4942
  -OEChem-07051212542D

 56 58  0     0  0  0  0  0  0999 V2000
    6.5000   -0.8660    0.0000 O   0  0  0  0  0  0  0  0  0  0  0  0
    4.0000    0.0000    0.0000 O   0  0  0  0  0  0  0  0  0  0  0  0
    6.5000    0.8660    0.0000 O   0  0  0  0  0  0  0  0  0  0  0  0
    9.5000   -0.8660    0.0000 N   0  0  0  0  0  0  0  0  0  0  0  0
    7.5000   -0.8660    0.0000 C   0  0  0  0  0  0  0  0  0  0  0  0
    8.0000    0.0000    0.0000 C   0  0  0  0  0  0  0  0  0  0  0  0
    8.0000   -1.7320    0.0000 C   0  0  0  0  0  0  0  0  0  0  0  0
    9.0000    0.0000    0.0000 C   0  0  0  0  0  0  0  0  0  0  0  0
    9.0000   -1.7320    0.0000 C   0  0  0  0  0  0  0  0  0  0  0  0
    5.0000    0.0000    0.0000 C   0  0  0  0  0  0  0  0  0  0  0  0
   10.5000   -0.8660    0.0000 C   0  0  0  0  0  0  0  0  0  0  0  0
    6.0000    0.0000    0.0000 C   0  0  0  0  0  0  0  0  0  0  0  0
    5.0000   -1.0000    0.0000 C   0  0  0  0  0  0  0  0  0  0  0  0
    5.0000    1.0000    0.0000 C   0  0  0  0  0  0  0  0  0  0  0  0
    3.5000    0.8660    0.0000 C   0  0  0  0  0  0  0  0  0  0  0  0
    4.1340   -1.5000    0.0000 C   0  0  0  0  0  0  0  0  0  0  0  0
    5.8660    1.5000    0.0000 C   0  0  0  0  0  0  0  0  0  0  0  0
    5.8660   -1.5000    0.0000 C   0  0  0  0  0  0  0  0  0  0  0  0
    4.1340    1.5000    0.0000 C   0  0  0  0  0  0  0  0  0  0  0  0
    2.5000    0.8660    0.0000 C   0  0  0  0  0  0  0  0  0  0  0  0
    4.1340   -2.5000    0.0000 C   0  0  0  0  0  0  0  0  0  0  0  0
    5.8660    2.5000    0.0000 C   0  0  0  0  0  0  0  0  0  0  0  0
    5.8660   -2.5000    0.0000 C   0  0  0  0  0  0  0  0  0  0  0  0
    4.1340    2.5000    0.0000 C   0  0  0  0  0  0  0  0  0  0  0  0
    5.0000    3.0000    0.0000 C   0  0  0  0  0  0  0  0  0  0  0  0
    5.0000   -3.0000    0.0000 C   0  0  0  0  0  0  0  0  0  0  0  0
    2.0000    1.7320    0.0000 C   0  0  0  0  0  0  0  0  0  0  0  0
    7.1900   -1.4030    0.0000 H   0  0  0  0  0  0  0  0  0  0  0  0
    7.4174   -1.9441    0.0000 H   0  0  0  0  0  0  0  0  0  0  0  0
    8.1077   -2.3426    0.0000 H   0  0  0  0  0  0  0  0  0  0  0  0
    8.1077    0.6106    0.0000 H   0  0  0  0  0  0  0  0  0  0  0  0
    7.4174    0.2121    0.0000 H   0  0  0  0  0  0  0  0  0  0  0  0
    8.8923   -2.3426    0.0000 H   0  0  0  0  0  0  0  0  0  0  0  0
    9.5826   -1.9441    0.0000 H   0  0  0  0  0  0  0  0  0  0  0  0
    9.5826    0.2121    0.0000 H   0  0  0  0  0  0  0  0  0  0  0  0
    8.8923    0.6106    0.0000 H   0  0  0  0  0  0  0  0  0  0  0  0
   10.5000   -1.4860    0.0000 H   0  0  0  0  0  0  0  0  0  0  0  0
   11.1200   -0.8660    0.0000 H   0  0  0  0  0  0  0  0  0  0  0  0
   10.5000   -0.2460    0.0000 H   0  0  0  0  0  0  0  0  0  0  0  0
    4.0826    1.0781    0.0000 H   0  0  0  0  0  0  0  0  0  0  0  0
    3.3923    1.4766    0.0000 H   0  0  0  0  0  0  0  0  0  0  0  0
    3.5970   -1.1900    0.0000 H   0  0  0  0  0  0  0  0  0  0  0  0
    6.4030    1.1900    0.0000 H   0  0  0  0  0  0  0  0  0  0  0  0
    6.4030   -1.1900    0.0000 H   0  0  0  0  0  0  0  0  0  0  0  0
    3.5970    1.1900    0.0000 H   0  0  0  0  0  0  0  0  0  0  0  0
    1.9174    0.6540    0.0000 H   0  0  0  0  0  0  0  0  0  0  0  0
    2.6077    0.2554    0.0000 H   0  0  0  0  0  0  0  0  0  0  0  0
    3.5970   -2.8100    0.0000 H   0  0  0  0  0  0  0  0  0  0  0  0
    6.4030    2.8100    0.0000 H   0  0  0  0  0  0  0  0  0  0  0  0
    6.4030   -2.8100    0.0000 H   0  0  0  0  0  0  0  0  0  0  0  0
    3.5970    2.8100    0.0000 H   0  0  0  0  0  0  0  0  0  0  0  0
    5.0000    3.6200    0.0000 H   0  0  0  0  0  0  0  0  0  0  0  0
    5.0000   -3.6200    0.0000 H   0  0  0  0  0  0  0  0  0  0  0  0
    2.5369    2.0420    0.0000 H   0  0  0  0  0  0  0  0  0  0  0  0
    1.6900    2.2690    0.0000 H   0  0  0  0  0  0  0  0  0  0  0  0
    1.4631    1.4220    0.0000 H   0  0  0  0  0  0  0  0  0  0  0  0
  1  5  1  0  0  0  0
  1 12  1  0  0  0  0
  2 10  1  0  0  0  0
  2 15  1  0  0  0  0
  3 12  2  0  0  0  0
  4  8  1  0  0  0  0
  4  9  1  0  0  0  0
  4 11  1  0  0  0  0
  5  6  1  0  0  0  0
  5  7  1  0  0  0  0
  5 28  1  0  0  0  0
  6  8  1  0  0  0  0
  6 31  1  0  0  0  0
  6 32  1  0  0  0  0
  7  9  1  0  0  0  0
  7 29  1  0  0  0  0
  7 30  1  0  0  0  0
  8 35  1  0  0  0  0
  8 36  1  0  0  0  0
  9 33  1  0  0  0  0
  9 34  1  0  0  0  0
 10 12  1  0  0  0  0
 10 13  1  0  0  0  0
 10 14  1  0  0  0  0
 11 37  1  0  0  0  0
 11 38  1  0  0  0  0
 11 39  1  0  0  0  0
 13 16  2  0  0  0  0
 13 18  1  0  0  0  0
 14 17  2  0  0  0  0
 14 19  1  0  0  0  0
 15 20  1  0  0  0  0
 15 40  1  0  0  0  0
 15 41  1  0  0  0  0
 16 21  1  0  0  0  0
 16 42  1  0  0  0  0
 17 22  1  0  0  0  0
 17 43  1  0  0  0  0
 18 23  2  0  0  0  0
 18 44  1  0  0  0  0
 19 24  2  0  0  0  0
 19 45  1  0  0  0  0
 20 27  1  0  0  0  0
 20 46  1  0  0  0  0
 20 47  1  0  0  0  0
 21 26  2  0  0  0  0
 21 48  1  0  0  0  0
 22 25  2  0  0  0  0
 22 49  1  0  0  0  0
 23 26  1  0  0  0  0
 23 50  1  0  0  0  0
 24 25  1  0  0  0  0
 24 51  1  0  0  0  0
 25 52  1  0  0  0  0
 26 53  1  0  0  0  0
 27 54  1  0  0  0  0
 27 55  1  0  0  0  0
 27 56  1  0  0  0  0
M  END
> <PUBCHEM_COMPOUND_CID>
4942

> <PUBCHEM_COMPOUND_CANONICALIZED>
1

> <PUBCHEM_CACTVS_COMPLEXITY>
429

> <PUBCHEM_CACTVS_HBOND_ACCEPTOR>
4

> <PUBCHEM_CACTVS_HBOND_DONOR>
0

> <PUBCHEM_CACTVS_ROTATABLE_BOND>
8

> <PUBCHEM_CACTVS_SUBSKEYS>
AAADceB6MAAAAAAAAAAAAAAAAAAAAAAAAAA8YIAAAAAAAAABQAAAHgAAAAAADFThmAYyCIMABACIAiDSCAICAAAgAAAIiAFICIgJJjKAtRyGMAAmwAGKqAeYyOCOgAAAAAAAAAAAAAAAAAAAAAAAAAAAAA==

> <PUBCHEM_IUPAC_OPENEYE_NAME>
(1-methyl-4-piperidyl) 2,2-diphenyl-2-propoxy-acetate

> <PUBCHEM_IUPAC_CAS_NAME>
2,2-diphenyl-2-propoxyacetic acid (1-methyl-4-piperidinyl) ester

> <PUBCHEM_IUPAC_NAME>
(1-methylpiperidin-4-yl) 2,2-diphenyl-2-propoxyacetate

> <PUBCHEM_IUPAC_SYSTEMATIC_NAME>
(1-methylpiperidin-4-yl) 2,2-diphenyl-2-propoxy-ethanoate

> <PUBCHEM_IUPAC_TRADITIONAL_NAME>
2,2-diphenyl-2-propoxy-acetic acid (1-methyl-4-piperidyl) ester

> <PUBCHEM_IUPAC_INCHI>
InChI=1S/C23H29NO3/c1-3-18-26-23(19-10-6-4-7-11-19,20-12-8-5-9-13-20)22(25)27-21-14-16-24(2)17-15-21/h4-13,21H,3,14-18H2,1-2H3

> <PUBCHEM_IUPAC_INCHIKEY>
QPCVHQBVMYCJOM-UHFFFAOYSA-N

> <PUBCHEM_XLOGP3_AA>
4.7

> <PUBCHEM_EXACT_MASS>
367.214744

> <PUBCHEM_MOLECULAR_FORMULA>
C23H29NO3

> <PUBCHEM_MOLECULAR_WEIGHT>
367.48126

> <PUBCHEM_OPENEYE_CAN_SMILES>
CCCOC(C1=CC=CC=C1)(C2=CC=CC=C2)C(=O)OC3CCN(CC3)C

> <PUBCHEM_OPENEYE_ISO_SMILES>
CCCOC(C1=CC=CC=C1)(C2=CC=CC=C2)C(=O)OC3CCN(CC3)C

> <PUBCHEM_CACTVS_TPSA>
38.8

> <PUBCHEM_MONOISOTOPIC_WEIGHT>
367.214744

> <PUBCHEM_TOTAL_CHARGE>
0

> <PUBCHEM_HEAVY_ATOM_COUNT>
27

> <PUBCHEM_ATOM_DEF_STEREO_COUNT>
0

> <PUBCHEM_ATOM_UDEF_STEREO_COUNT>
0

> <PUBCHEM_BOND_DEF_STEREO_COUNT>
0

> <PUBCHEM_BOND_UDEF_STEREO_COUNT>
0

> <PUBCHEM_ISOTOPIC_ATOM_COUNT>
0

> <PUBCHEM_COMPONENT_COUNT>
1

> <PUBCHEM_CACTVS_TAUTO_COUNT>
1

> <PUBCHEM_COORDINATE_TYPE>
1
5
255

> <PUBCHEM_BONDANNOTATIONS>
13  16  8
13  18  8
14  17  8
14  19  8
16  21  8
17  22  8
18  23  8
19  24  8
21  26  8
22  25  8
23  26  8
24  25  8

$$$$

