6530
  -OEChem-06261201222D

 74 76  0     0  0  0  0  0  0999 V2000
    3.8660    0.0000    0.0000 P   0  0  0  0  0  0  0  0  0  0  0  0
    4.7320    0.5000    0.0000 O   0  0  0  0  0  0  0  0  0  0  0  0
    3.0000   -0.5000    0.0000 O   0  0  0  0  0  0  0  0  0  0  0  0
    4.3660   -0.8660    0.0000 O   0  0  0  0  0  0  0  0  0  0  0  0
    3.3660    0.8660    0.0000 O   0  0  0  0  0  0  0  0  0  0  0  0
    4.7320    4.5000    0.0000 C   0  0  0  0  0  0  0  0  0  0  0  0
    3.0000   -4.5000    0.0000 C   0  0  0  0  0  0  0  0  0  0  0  0
    8.3660   -0.8660    0.0000 C   0  0  0  0  0  0  0  0  0  0  0  0
    4.7320    3.5000    0.0000 C   0  0  0  0  0  0  0  0  0  0  0  0
    3.0000   -3.5000    0.0000 C   0  0  0  0  0  0  0  0  0  0  0  0
    7.3660   -0.8660    0.0000 C   0  0  0  0  0  0  0  0  0  0  0  0
    9.3660   -0.8660    0.0000 C   0  0  0  0  0  0  0  0  0  0  0  0
    8.3660   -1.8660    0.0000 C   0  0  0  0  0  0  0  0  0  0  0  0
    8.3660    0.1340    0.0000 C   0  0  0  0  0  0  0  0  0  0  0  0
    3.0000   -5.5000    0.0000 C   0  0  0  0  0  0  0  0  0  0  0  0
    2.0000   -4.5000    0.0000 C   0  0  0  0  0  0  0  0  0  0  0  0
    4.0000   -4.5000    0.0000 C   0  0  0  0  0  0  0  0  0  0  0  0
    4.7320    5.5000    0.0000 C   0  0  0  0  0  0  0  0  0  0  0  0
    5.7320    4.5000    0.0000 C   0  0  0  0  0  0  0  0  0  0  0  0
    3.7320    4.5000    0.0000 C   0  0  0  0  0  0  0  0  0  0  0  0
    3.8660    3.0000    0.0000 C   0  0  0  0  0  0  0  0  0  0  0  0
    3.8660   -3.0000    0.0000 C   0  0  0  0  0  0  0  0  0  0  0  0
    6.8660    0.0000    0.0000 C   0  0  0  0  0  0  0  0  0  0  0  0
    5.5981    3.0000    0.0000 C   0  0  0  0  0  0  0  0  0  0  0  0
    2.1340   -3.0000    0.0000 C   0  0  0  0  0  0  0  0  0  0  0  0
    6.8660   -1.7320    0.0000 C   0  0  0  0  0  0  0  0  0  0  0  0
    5.3660   -0.8660    0.0000 C   0  0  0  0  0  0  0  0  0  0  0  0
    3.0000   -1.5000    0.0000 C   0  0  0  0  0  0  0  0  0  0  0  0
    4.7320    1.5000    0.0000 C   0  0  0  0  0  0  0  0  0  0  0  0
    5.8660    0.0000    0.0000 C   0  0  0  0  0  0  0  0  0  0  0  0
    3.8660   -2.0000    0.0000 C   0  0  0  0  0  0  0  0  0  0  0  0
    3.8660    2.0000    0.0000 C   0  0  0  0  0  0  0  0  0  0  0  0
    5.8660   -1.7320    0.0000 C   0  0  0  0  0  0  0  0  0  0  0  0
    2.1340   -2.0000    0.0000 C   0  0  0  0  0  0  0  0  0  0  0  0
    5.5981    2.0000    0.0000 C   0  0  0  0  0  0  0  0  0  0  0  0
    3.7320    5.1200    0.0000 H   0  0  0  0  0  0  0  0  0  0  0  0
    3.1120    4.5000    0.0000 H   0  0  0  0  0  0  0  0  0  0  0  0
    9.3660   -1.4860    0.0000 H   0  0  0  0  0  0  0  0  0  0  0  0
    9.9860   -0.8660    0.0000 H   0  0  0  0  0  0  0  0  0  0  0  0
    9.3660   -0.2460    0.0000 H   0  0  0  0  0  0  0  0  0  0  0  0
    7.7460   -1.8660    0.0000 H   0  0  0  0  0  0  0  0  0  0  0  0
    8.3660   -2.4860    0.0000 H   0  0  0  0  0  0  0  0  0  0  0  0
    8.9860   -1.8660    0.0000 H   0  0  0  0  0  0  0  0  0  0  0  0
    8.9860    0.1340    0.0000 H   0  0  0  0  0  0  0  0  0  0  0  0
    8.3660    0.7540    0.0000 H   0  0  0  0  0  0  0  0  0  0  0  0
    7.7460    0.1340    0.0000 H   0  0  0  0  0  0  0  0  0  0  0  0
    2.3800   -5.5000    0.0000 H   0  0  0  0  0  0  0  0  0  0  0  0
    3.0000   -6.1200    0.0000 H   0  0  0  0  0  0  0  0  0  0  0  0
    3.6200   -5.5000    0.0000 H   0  0  0  0  0  0  0  0  0  0  0  0
    3.7320    3.8800    0.0000 H   0  0  0  0  0  0  0  0  0  0  0  0
    5.7320    3.8800    0.0000 H   0  0  0  0  0  0  0  0  0  0  0  0
    6.3520    4.5000    0.0000 H   0  0  0  0  0  0  0  0  0  0  0  0
    5.7320    5.1200    0.0000 H   0  0  0  0  0  0  0  0  0  0  0  0
    5.3520    5.5000    0.0000 H   0  0  0  0  0  0  0  0  0  0  0  0
    4.7320    6.1200    0.0000 H   0  0  0  0  0  0  0  0  0  0  0  0
    4.1120    5.5000    0.0000 H   0  0  0  0  0  0  0  0  0  0  0  0
    4.0000   -5.1200    0.0000 H   0  0  0  0  0  0  0  0  0  0  0  0
    4.6200   -4.5000    0.0000 H   0  0  0  0  0  0  0  0  0  0  0  0
    4.0000   -3.8800    0.0000 H   0  0  0  0  0  0  0  0  0  0  0  0
    2.0000   -3.8800    0.0000 H   0  0  0  0  0  0  0  0  0  0  0  0
    1.3800   -4.5000    0.0000 H   0  0  0  0  0  0  0  0  0  0  0  0
    2.0000   -5.1200    0.0000 H   0  0  0  0  0  0  0  0  0  0  0  0
    3.3291    3.3100    0.0000 H   0  0  0  0  0  0  0  0  0  0  0  0
    4.4030   -3.3100    0.0000 H   0  0  0  0  0  0  0  0  0  0  0  0
    7.1760    0.5369    0.0000 H   0  0  0  0  0  0  0  0  0  0  0  0
    6.1350    3.3100    0.0000 H   0  0  0  0  0  0  0  0  0  0  0  0
    1.5970   -3.3100    0.0000 H   0  0  0  0  0  0  0  0  0  0  0  0
    7.1760   -2.2690    0.0000 H   0  0  0  0  0  0  0  0  0  0  0  0
    5.5560    0.5369    0.0000 H   0  0  0  0  0  0  0  0  0  0  0  0
    4.4030   -1.6900    0.0000 H   0  0  0  0  0  0  0  0  0  0  0  0
    3.3291    1.6900    0.0000 H   0  0  0  0  0  0  0  0  0  0  0  0
    5.5560   -2.2690    0.0000 H   0  0  0  0  0  0  0  0  0  0  0  0
    1.5970   -1.6900    0.0000 H   0  0  0  0  0  0  0  0  0  0  0  0
    6.1350    1.6900    0.0000 H   0  0  0  0  0  0  0  0  0  0  0  0
  1  2  1  0  0  0  0
  1  3  1  0  0  0  0
  1  4  1  0  0  0  0
  1  5  2  0  0  0  0
  2 29  1  0  0  0  0
  3 28  1  0  0  0  0
  4 27  1  0  0  0  0
  6  9  1  0  0  0  0
  6 18  1  0  0  0  0
  6 19  1  0  0  0  0
  6 20  1  0  0  0  0
  7 10  1  0  0  0  0
  7 15  1  0  0  0  0
  7 16  1  0  0  0  0
  7 17  1  0  0  0  0
  8 11  1  0  0  0  0
  8 12  1  0  0  0  0
  8 13  1  0  0  0  0
  8 14  1  0  0  0  0
  9 21  2  0  0  0  0
  9 24  1  0  0  0  0
 10 22  2  0  0  0  0
 10 25  1  0  0  0  0
 11 23  2  0  0  0  0
 11 26  1  0  0  0  0
 12 38  1  0  0  0  0
 12 39  1  0  0  0  0
 12 40  1  0  0  0  0
 13 41  1  0  0  0  0
 13 42  1  0  0  0  0
 13 43  1  0  0  0  0
 14 44  1  0  0  0  0
 14 45  1  0  0  0  0
 14 46  1  0  0  0  0
 15 47  1  0  0  0  0
 15 48  1  0  0  0  0
 15 49  1  0  0  0  0
 16 60  1  0  0  0  0
 16 61  1  0  0  0  0
 16 62  1  0  0  0  0
 17 57  1  0  0  0  0
 17 58  1  0  0  0  0
 17 59  1  0  0  0  0
 18 54  1  0  0  0  0
 18 55  1  0  0  0  0
 18 56  1  0  0  0  0
 19 51  1  0  0  0  0
 19 52  1  0  0  0  0
 19 53  1  0  0  0  0
 20 36  1  0  0  0  0
 20 37  1  0  0  0  0
 20 50  1  0  0  0  0
 21 32  1  0  0  0  0
 21 63  1  0  0  0  0
 22 31  1  0  0  0  0
 22 64  1  0  0  0  0
 23 30  1  0  0  0  0
 23 65  1  0  0  0  0
 24 35  2  0  0  0  0
 24 66  1  0  0  0  0
 25 34  2  0  0  0  0
 25 67  1  0  0  0  0
 26 33  2  0  0  0  0
 26 68  1  0  0  0  0
 27 30  2  0  0  0  0
 27 33  1  0  0  0  0
 28 31  2  0  0  0  0
 28 34  1  0  0  0  0
 29 32  2  0  0  0  0
 29 35  1  0  0  0  0
 30 69  1  0  0  0  0
 31 70  1  0  0  0  0
 32 71  1  0  0  0  0
 33 72  1  0  0  0  0
 34 73  1  0  0  0  0
 35 74  1  0  0  0  0
M  END
> <PUBCHEM_COMPOUND_CID>
6530

> <PUBCHEM_COMPOUND_CANONICALIZED>
1

> <PUBCHEM_CACTVS_COMPLEXITY>
594

> <PUBCHEM_CACTVS_HBOND_ACCEPTOR>
4

> <PUBCHEM_CACTVS_HBOND_DONOR>
0

> <PUBCHEM_CACTVS_ROTATABLE_BOND>
9

> <PUBCHEM_CACTVS_SUBSKEYS>
AAADcfB4OAIAAAAAAAAAAAAAAAAAAAAAAAAwYMAAAAAAAAABUAAAGgAAACAADgSAmAAyBoAAARCAQiBCAIACAAAgIAAIiAAGCIgIJiKAERKAMAAkwBEIiAeAwNAPoAAAAAAAAABAAAAAAAAAAAAAAAAAAA==

> <PUBCHEM_IUPAC_OPENEYE_NAME>
tris(4-tert-butylphenyl) phosphate

> <PUBCHEM_IUPAC_CAS_NAME>
phosphoric acid tris(4-tert-butylphenyl) ester

> <PUBCHEM_IUPAC_NAME>
tris(4-tert-butylphenyl) phosphate

> <PUBCHEM_IUPAC_SYSTEMATIC_NAME>
tris(4-tert-butylphenyl) phosphate

> <PUBCHEM_IUPAC_TRADITIONAL_NAME>
phosphoric acid tris(4-tert-butylphenyl) ester

> <PUBCHEM_IUPAC_INCHI>
InChI=1S/C30H39O4P/c1-28(2,3)22-10-16-25(17-11-22)32-35(31,33-26-18-12-23(13-19-26)29(4,5)6)34-27-20-14-24(15-21-27)30(7,8)9/h10-21H,1-9H3

> <PUBCHEM_IUPAC_INCHIKEY>
LORSVOJSXMHDHF-UHFFFAOYSA-N

> <PUBCHEM_XLOGP3>
9

> <PUBCHEM_EXACT_MASS>
494.258596

> <PUBCHEM_MOLECULAR_FORMULA>
C30H39O4P

> <PUBCHEM_MOLECULAR_WEIGHT>
494.602022

> <PUBCHEM_OPENEYE_CAN_SMILES>
CC(C)(C)C1=CC=C(C=C1)OP(=O)(OC2=CC=C(C=C2)C(C)(C)C)OC3=CC=C(C=C3)C(C)(C)C

> <PUBCHEM_OPENEYE_ISO_SMILES>
CC(C)(C)C1=CC=C(C=C1)OP(=O)(OC2=CC=C(C=C2)C(C)(C)C)OC3=CC=C(C=C3)C(C)(C)C

> <PUBCHEM_CACTVS_TPSA>
44.8

> <PUBCHEM_MONOISOTOPIC_WEIGHT>
494.258596

> <PUBCHEM_TOTAL_CHARGE>
0

> <PUBCHEM_HEAVY_ATOM_COUNT>
35

> <PUBCHEM_ATOM_DEF_STEREO_COUNT>
0

> <PUBCHEM_ATOM_UDEF_STEREO_COUNT>
0

> <PUBCHEM_BOND_DEF_STEREO_COUNT>
0

> <PUBCHEM_BOND_UDEF_STEREO_COUNT>
0

> <PUBCHEM_ISOTOPIC_ATOM_COUNT>
0

> <PUBCHEM_COMPONENT_COUNT>
1

> <PUBCHEM_CACTVS_TAUTO_COUNT>
1

> <PUBCHEM_COORDINATE_TYPE>
1
5
255

> <PUBCHEM_BONDANNOTATIONS>
10  22  8
10  25  8
11  23  8
11  26  8
21  32  8
22  31  8
23  30  8
24  35  8
25  34  8
26  33  8
27  30  8
27  33  8
28  31  8
28  34  8
29  32  8
29  35  8
9  21  8
9  24  8

$$$$

