14372344
  -OEChem-07051213152D

 46 48  0     1  0  0  0  0  0999 V2000
    6.7210    3.9376    0.0000 O   0  0  0  0  0  0  0  0  0  0  0  0
    2.8660    1.1824    0.0000 O   0  0  0  0  0  0  0  0  0  0  0  0
    5.4641   -3.3176    0.0000 O   0  0  0  0  0  0  0  0  0  0  0  0
    5.4641    1.6824    0.0000 C   0  0  2  0  0  0  0  0  0  0  0  0
    5.4641    2.6824    0.0000 C   0  0  2  0  0  0  0  0  0  0  0  0
    4.5981    1.1824    0.0000 C   0  0  1  0  0  0  0  0  0  0  0  0
    6.4103    1.3776    0.0000 C   0  0  0  0  0  0  0  0  0  0  0  0
    4.5981    3.1824    0.0000 C   0  0  0  0  0  0  0  0  0  0  0  0
    6.4103    2.9871    0.0000 C   0  0  0  0  0  0  0  0  0  0  0  0
    6.9939    2.1824    0.0000 C   0  0  0  0  0  0  0  0  0  0  0  0
    3.7320    2.6824    0.0000 C   0  0  0  0  0  0  0  0  0  0  0  0
    3.7320    1.6824    0.0000 C   0  0  0  0  0  0  0  0  0  0  0  0
    5.4641    3.6824    0.0000 C   0  0  0  0  0  0  0  0  0  0  0  0
    4.5981    0.1824    0.0000 C   0  0  0  0  0  0  0  0  0  0  0  0
    3.7320   -0.3176    0.0000 C   0  0  0  0  0  0  0  0  0  0  0  0
    3.7320   -1.3176    0.0000 C   0  0  0  0  0  0  0  0  0  0  0  0
    2.8660   -1.8176    0.0000 C   0  0  0  0  0  0  0  0  0  0  0  0
    4.5981   -1.8176    0.0000 C   0  0  0  0  0  0  0  0  0  0  0  0
    2.8660   -2.8176    0.0000 C   0  0  0  0  0  0  0  0  0  0  0  0
    4.5981   -2.8176    0.0000 C   0  0  0  0  0  0  0  0  0  0  0  0
    2.0000   -1.3176    0.0000 C   0  0  0  0  0  0  0  0  0  0  0  0
    3.7320   -3.3176    0.0000 C   0  0  0  0  0  0  0  0  0  0  0  0
    5.5540    0.8371    0.0000 H   0  0  0  0  0  0  0  0  0  0  0  0
    5.1350    0.8724    0.0000 H   0  0  0  0  0  0  0  0  0  0  0  0
    6.1593    0.8107    0.0000 H   0  0  0  0  0  0  0  0  0  0  0  0
    6.9477    1.0684    0.0000 H   0  0  0  0  0  0  0  0  0  0  0  0
    4.9966    3.6573    0.0000 H   0  0  0  0  0  0  0  0  0  0  0  0
    4.1996    3.6573    0.0000 H   0  0  0  0  0  0  0  0  0  0  0  0
    7.4548    1.7676    0.0000 H   0  0  0  0  0  0  0  0  0  0  0  0
    7.4548    2.5971    0.0000 H   0  0  0  0  0  0  0  0  0  0  0  0
    3.5200    3.2650    0.0000 H   0  0  0  0  0  0  0  0  0  0  0  0
    3.1215    2.5747    0.0000 H   0  0  0  0  0  0  0  0  0  0  0  0
    6.0841    3.6824    0.0000 H   0  0  0  0  0  0  0  0  0  0  0  0
    5.4641    4.3024    0.0000 H   0  0  0  0  0  0  0  0  0  0  0  0
    4.8441    3.6824    0.0000 H   0  0  0  0  0  0  0  0  0  0  0  0
    4.8101   -0.4002    0.0000 H   0  0  0  0  0  0  0  0  0  0  0  0
    5.2087    0.2900    0.0000 H   0  0  0  0  0  0  0  0  0  0  0  0
    3.5200    0.2650    0.0000 H   0  0  0  0  0  0  0  0  0  0  0  0
    3.1215   -0.4253    0.0000 H   0  0  0  0  0  0  0  0  0  0  0  0
    5.1350   -1.5076    0.0000 H   0  0  0  0  0  0  0  0  0  0  0  0
    2.3291   -3.1276    0.0000 H   0  0  0  0  0  0  0  0  0  0  0  0
    2.3100   -0.7807    0.0000 H   0  0  0  0  0  0  0  0  0  0  0  0
    1.4631   -1.0076    0.0000 H   0  0  0  0  0  0  0  0  0  0  0  0
    1.6900   -1.8546    0.0000 H   0  0  0  0  0  0  0  0  0  0  0  0
    3.7320   -3.9376    0.0000 H   0  0  0  0  0  0  0  0  0  0  0  0
    5.4641   -3.9376    0.0000 H   0  0  0  0  0  0  0  0  0  0  0  0
  1  9  2  0  0  0  0
  2 12  2  0  0  0  0
  3 20  1  0  0  0  0
  3 46  1  0  0  0  0
  4  5  1  0  0  0  0
  4  6  1  0  0  0  0
  4  7  1  0  0  0  0
  4 23  1  6  0  0  0
  5  8  1  0  0  0  0
  5  9  1  0  0  0  0
  5 13  1  1  0  0  0
  6 12  1  0  0  0  0
  6 14  1  6  0  0  0
  6 24  1  0  0  0  0
  7 10  1  0  0  0  0
  7 25  1  0  0  0  0
  7 26  1  0  0  0  0
  8 11  1  0  0  0  0
  8 27  1  0  0  0  0
  8 28  1  0  0  0  0
  9 10  1  0  0  0  0
 10 29  1  0  0  0  0
 10 30  1  0  0  0  0
 11 12  1  0  0  0  0
 11 31  1  0  0  0  0
 11 32  1  0  0  0  0
 13 33  1  0  0  0  0
 13 34  1  0  0  0  0
 13 35  1  0  0  0  0
 14 15  1  0  0  0  0
 14 36  1  0  0  0  0
 14 37  1  0  0  0  0
 15 16  1  0  0  0  0
 15 38  1  0  0  0  0
 15 39  1  0  0  0  0
 16 17  2  0  0  0  0
 16 18  1  0  0  0  0
 17 19  1  0  0  0  0
 17 21  1  0  0  0  0
 18 20  2  0  0  0  0
 18 40  1  0  0  0  0
 19 22  2  0  0  0  0
 19 41  1  0  0  0  0
 20 22  1  0  0  0  0
 21 42  1  0  0  0  0
 21 43  1  0  0  0  0
 21 44  1  0  0  0  0
 22 45  1  0  0  0  0
M  END
> <PUBCHEM_COMPOUND_CID>
14372344

> <PUBCHEM_COMPOUND_CANONICALIZED>
1

> <PUBCHEM_CACTVS_COMPLEXITY>
458

> <PUBCHEM_CACTVS_HBOND_ACCEPTOR>
3

> <PUBCHEM_CACTVS_HBOND_DONOR>
1

> <PUBCHEM_CACTVS_ROTATABLE_BOND>
3

> <PUBCHEM_CACTVS_SUBSKEYS>
AAADceB4MAAAAAAAAAAAAAAAAAAAAYAAAAAwYAAAAAAAAGABAAAAGgAACAAADwSAmAAyBoAAAgCIAqBSAAACAAAgIAAIiAEGCIgIJjKCERKAcAAkwBEImAeIyvCvoAABAAAQAABAAAYAACAAAAAACAAAAA==

> <PUBCHEM_IUPAC_OPENEYE_NAME>
(3aS,4S,7aS)-4-[2-(5-hydroxy-2-methyl-phenyl)ethyl]-7a-methyl-2,3,3a,4,6,7-hexahydroindene-1,5-dione

> <PUBCHEM_IUPAC_CAS_NAME>
(3aS,4S,7aS)-4-[2-(5-hydroxy-2-methylphenyl)ethyl]-7a-methyl-2,3,3a,4,6,7-hexahydroindene-1,5-dione

> <PUBCHEM_IUPAC_NAME>
(3aS,4S,7aS)-4-[2-(5-hydroxy-2-methylphenyl)ethyl]-7a-methyl-2,3,3a,4,6,7-hexahydroindene-1,5-dione

> <PUBCHEM_IUPAC_SYSTEMATIC_NAME>
(3aS,4S,7aS)-7a-methyl-4-[2-(2-methyl-5-oxidanyl-phenyl)ethyl]-2,3,3a,4,6,7-hexahydroindene-1,5-dione

> <PUBCHEM_IUPAC_TRADITIONAL_NAME>
(3aS,4S,7aS)-4-[2-(5-hydroxy-2-methyl-phenyl)ethyl]-7a-methyl-2,3,3a,4,6,7-hexahydroindene-1,5-quinone

> <PUBCHEM_IUPAC_INCHI>
InChI=1S/C19H24O3/c1-12-3-5-14(20)11-13(12)4-6-15-16-7-8-18(22)19(16,2)10-9-17(15)21/h3,5,11,15-16,20H,4,6-10H2,1-2H3/t15-,16-,19-/m0/s1

> <PUBCHEM_IUPAC_INCHIKEY>
ZWXONJFCJAGEBA-BXWFABGCSA-N

> <PUBCHEM_XLOGP3_AA>
2.9

> <PUBCHEM_EXACT_MASS>
300.172545

> <PUBCHEM_MOLECULAR_FORMULA>
C19H24O3

> <PUBCHEM_MOLECULAR_WEIGHT>
300.39206

> <PUBCHEM_OPENEYE_CAN_SMILES>
CC1=C(C=C(C=C1)O)CCC2C3CCC(=O)C3(CCC2=O)C

> <PUBCHEM_OPENEYE_ISO_SMILES>
CC1=C(C=C(C=C1)O)CC[C@H]2[C@@H]3CCC(=O)[C@]3(CCC2=O)C

> <PUBCHEM_CACTVS_TPSA>
54.4

> <PUBCHEM_MONOISOTOPIC_WEIGHT>
300.172545

> <PUBCHEM_TOTAL_CHARGE>
0

> <PUBCHEM_HEAVY_ATOM_COUNT>
22

> <PUBCHEM_ATOM_DEF_STEREO_COUNT>
3

> <PUBCHEM_ATOM_UDEF_STEREO_COUNT>
0

> <PUBCHEM_BOND_DEF_STEREO_COUNT>
0

> <PUBCHEM_BOND_UDEF_STEREO_COUNT>
0

> <PUBCHEM_ISOTOPIC_ATOM_COUNT>
0

> <PUBCHEM_COMPONENT_COUNT>
1

> <PUBCHEM_CACTVS_TAUTO_COUNT>
54

> <PUBCHEM_COORDINATE_TYPE>
1
5
255

> <PUBCHEM_BONDANNOTATIONS>
16  17  8
16  18  8
17  19  8
18  20  8
19  22  8
20  22  8
4  23  6
5  13  5
6  14  6

$$$$

