441804
  -OEChem-07051212562D

 71 75  0     1  0  0  0  0  0999 V2000
    6.7975    0.9405    0.0000 O   0  0  0  0  0  0  0  0  0  0  0  0
    7.4252   -1.9063    0.0000 O   0  0  0  0  0  0  0  0  0  0  0  0
    4.7789    1.6441    0.0000 O   0  0  0  0  0  0  0  0  0  0  0  0
    6.5109    2.6441    0.0000 O   0  0  0  0  0  0  0  0  0  0  0  0
    9.1387    0.1796    0.0000 O   0  0  0  0  0  0  0  0  0  0  0  0
    3.8273    1.2011    0.0000 O   0  0  0  0  0  0  0  0  0  0  0  0
    9.1868   -1.8589    0.0000 O   0  0  0  0  0  0  0  0  0  0  0  0
    2.0000    0.1834    0.0000 O   0  0  0  0  0  0  0  0  0  0  0  0
   10.0455   -1.2961    0.0000 O   0  0  0  0  0  0  0  0  0  0  0  0
   11.7495   -0.2490    0.0000 O   0  0  0  0  0  0  0  0  0  0  0  0
   12.5741    1.2741    0.0000 O   0  0  0  0  0  0  0  0  0  0  0  0
    6.5109   -0.3559    0.0000 C   0  0  2  0  0  0  0  0  0  0  0  0
    5.6449    0.1441    0.0000 C   0  0  1  0  0  0  0  0  0  0  0  0
    7.3770    0.1441    0.0000 C   0  0  2  0  0  0  0  0  0  0  0  0
    4.7349   -0.3628    0.0000 C   0  0  2  0  0  0  0  0  0  0  0  0
    7.3770    1.1441    0.0000 C   0  0  1  0  0  0  0  0  0  0  0  0
    6.5270   -1.3974    0.0000 C   0  0  1  0  0  0  0  0  0  0  0  0
    5.6449    1.1441    0.0000 C   0  0  2  0  0  0  0  0  0  0  0  0
    6.3975    0.2477    0.0000 C   0  0  0  0  0  0  0  0  0  0  0  0
    4.7269   -1.4044    0.0000 C   0  0  1  0  0  0  0  0  0  0  0  0
    6.5109    1.6441    0.0000 C   0  0  2  0  0  0  0  0  0  0  0  0
    5.6290   -1.9252    0.0000 C   0  0  0  0  0  0  0  0  0  0  0  0
    8.2867   -0.3439    0.0000 C   0  0  2  0  0  0  0  0  0  0  0  0
    3.8081    0.2013    0.0000 C   0  0  1  0  0  0  0  0  0  0  0  0
    4.4001    0.5795    0.0000 C   0  0  0  0  0  0  0  0  0  0  0  0
    7.8770    2.0101    0.0000 C   0  0  0  0  0  0  0  0  0  0  0  0
    3.7914   -1.9541    0.0000 C   0  0  0  0  0  0  0  0  0  0  0  0
    8.3110   -1.3760    0.0000 C   0  0  0  0  0  0  0  0  0  0  0  0
    2.8602   -0.3266    0.0000 C   0  0  0  0  0  0  0  0  0  0  0  0
    2.8518   -1.4116    0.0000 C   0  0  0  0  0  0  0  0  0  0  0  0
    3.7953   -2.9541    0.0000 C   0  0  0  0  0  0  0  0  0  0  0  0
   10.0181   -0.2965    0.0000 C   0  0  0  0  0  0  0  0  0  0  0  0
   10.8701    0.2271    0.0000 C   0  0  1  0  0  0  0  0  0  0  0  0
   10.8427    1.2267    0.0000 C   0  0  0  0  0  0  0  0  0  0  0  0
   11.6947    1.7502    0.0000 C   0  0  0  0  0  0  0  0  0  0  0  0
   12.6015    0.2745    0.0000 C   0  0  0  0  0  0  0  0  0  0  0  0
   13.4809   -0.2016    0.0000 C   0  0  0  0  0  0  0  0  0  0  0  0
    4.9088    0.5691    0.0000 H   0  0  0  0  0  0  0  0  0  0  0  0
    7.8020   -0.5920    0.0000 H   0  0  0  0  0  0  0  0  0  0  0  0
    6.5337   -2.2474    0.0000 H   0  0  0  0  0  0  0  0  0  0  0  0
    5.6449    1.7641    0.0000 H   0  0  0  0  0  0  0  0  0  0  0  0
    5.9704    0.6971    0.0000 H   0  0  0  0  0  0  0  0  0  0  0  0
    5.8456   -0.0347    0.0000 H   0  0  0  0  0  0  0  0  0  0  0  0
    4.7302   -2.2544    0.0000 H   0  0  0  0  0  0  0  0  0  0  0  0
    7.0479    1.9541    0.0000 H   0  0  0  0  0  0  0  0  0  0  0  0
    5.2316   -2.4012    0.0000 H   0  0  0  0  0  0  0  0  0  0  0  0
    6.0299   -2.3981    0.0000 H   0  0  0  0  0  0  0  0  0  0  0  0
    8.8314   -0.6402    0.0000 H   0  0  0  0  0  0  0  0  0  0  0  0
    4.3515    0.4999    0.0000 H   0  0  0  0  0  0  0  0  0  0  0  0
    4.9844    0.7871    0.0000 H   0  0  0  0  0  0  0  0  0  0  0  0
    4.1926    1.1638    0.0000 H   0  0  0  0  0  0  0  0  0  0  0  0
    3.8159    0.3720    0.0000 H   0  0  0  0  0  0  0  0  0  0  0  0
    8.4139    1.7001    0.0000 H   0  0  0  0  0  0  0  0  0  0  0  0
    8.1870    2.5470    0.0000 H   0  0  0  0  0  0  0  0  0  0  0  0
    7.3400    2.3201    0.0000 H   0  0  0  0  0  0  0  0  0  0  0  0
    4.7789    2.2641    0.0000 H   0  0  0  0  0  0  0  0  0  0  0  0
    7.0479    2.9541    0.0000 H   0  0  0  0  0  0  0  0  0  0  0  0
    2.3137   -1.7195    0.0000 H   0  0  0  0  0  0  0  0  0  0  0  0
    3.2965    1.5214    0.0000 H   0  0  0  0  0  0  0  0  0  0  0  0
    3.1753   -2.9565    0.0000 H   0  0  0  0  0  0  0  0  0  0  0  0
    3.7977   -3.5741    0.0000 H   0  0  0  0  0  0  0  0  0  0  0  0
    4.4153   -2.9517    0.0000 H   0  0  0  0  0  0  0  0  0  0  0  0
   11.3984    0.5517    0.0000 H   0  0  0  0  0  0  0  0  0  0  0  0
   10.6148    1.8033    0.0000 H   0  0  0  0  0  0  0  0  0  0  0  0
   10.2353    1.1023    0.0000 H   0  0  0  0  0  0  0  0  0  0  0  0
   12.0193    1.2220    0.0000 H   0  0  0  0  0  0  0  0  0  0  0  0
   12.2230    2.0748    0.0000 H   0  0  0  0  0  0  0  0  0  0  0  0
   11.3702    2.2785    0.0000 H   0  0  0  0  0  0  0  0  0  0  0  0
   13.1858   -0.7468    0.0000 H   0  0  0  0  0  0  0  0  0  0  0  0
   14.0262   -0.4967    0.0000 H   0  0  0  0  0  0  0  0  0  0  0  0
   13.7761    0.3437    0.0000 H   0  0  0  0  0  0  0  0  0  0  0  0
  1 16  1  0  0  0  0
  1 19  1  0  0  0  0
  2 17  1  0  0  0  0
  2 28  1  0  0  0  0
 18  3  1  1  0  0  0
  3 56  1  0  0  0  0
 21  4  1  6  0  0  0
  4 57  1  0  0  0  0
 23  5  1  1  0  0  0
  5 32  1  0  0  0  0
 24  6  1  1  0  0  0
  6 59  1  0  0  0  0
  7 28  2  0  0  0  0
  8 29  2  0  0  0  0
  9 32  2  0  0  0  0
 33 10  1  1  0  0  0
 10 36  1  0  0  0  0
 11 36  2  0  0  0  0
 12 13  1  0  0  0  0
 12 14  1  0  0  0  0
 12 17  1  0  0  0  0
 12 19  1  1  0  0  0
 13 15  1  0  0  0  0
 13 18  1  0  0  0  0
 13 38  1  6  0  0  0
 14 16  1  0  0  0  0
 14 23  1  0  0  0  0
 14 39  1  1  0  0  0
 15 20  1  0  0  0  0
 15 24  1  0  0  0  0
 15 25  1  1  0  0  0
 16 21  1  0  0  0  0
 16 26  1  1  0  0  0
 17 22  1  0  0  0  0
 17 40  1  1  0  0  0
 18 21  1  0  0  0  0
 18 41  1  0  0  0  0
 19 42  1  0  0  0  0
 19 43  1  0  0  0  0
 20 22  1  0  0  0  0
 20 27  1  0  0  0  0
 20 44  1  6  0  0  0
 21 45  1  0  0  0  0
 22 46  1  0  0  0  0
 22 47  1  0  0  0  0
 23 28  1  0  0  0  0
 23 48  1  0  0  0  0
 24 29  1  0  0  0  0
 24 49  1  0  0  0  0
 25 50  1  0  0  0  0
 25 51  1  0  0  0  0
 25 52  1  0  0  0  0
 26 53  1  0  0  0  0
 26 54  1  0  0  0  0
 26 55  1  0  0  0  0
 27 30  2  0  0  0  0
 27 31  1  0  0  0  0
 29 30  1  0  0  0  0
 30 58  1  0  0  0  0
 31 60  1  0  0  0  0
 31 61  1  0  0  0  0
 31 62  1  0  0  0  0
 32 33  1  0  0  0  0
 33 34  1  0  0  0  0
 33 63  1  0  0  0  0
 34 35  1  0  0  0  0
 34 64  1  0  0  0  0
 34 65  1  0  0  0  0
 35 66  1  0  0  0  0
 35 67  1  0  0  0  0
 35 68  1  0  0  0  0
 36 37  1  0  0  0  0
 37 69  1  0  0  0  0
 37 70  1  0  0  0  0
 37 71  1  0  0  0  0
M  END
> <PUBCHEM_COMPOUND_CID>
441804

> <PUBCHEM_COMPOUND_CANONICALIZED>
1

> <PUBCHEM_CACTVS_COMPLEXITY>
1080

> <PUBCHEM_CACTVS_HBOND_ACCEPTOR>
11

> <PUBCHEM_CACTVS_HBOND_DONOR>
3

> <PUBCHEM_CACTVS_ROTATABLE_BOND>
6

> <PUBCHEM_CACTVS_SUBSKEYS>
AAADcfB4PAAAAAAAAAAAAAAAAAAAASAAAAA0YIEABIAAAEjQAAAAGgAACAAAD1SggAICCAAABgCIAqDSCAIAAAAgAAAACAFAAEgBEBIAAQQCQAAFwAALAQPK7PzPgAAAAAAAAADAAAYQADCAAAAAAAAAAA==

> <PUBCHEM_IUPAC_INCHI>
InChI=1S/C26H34O11/c1-6-14(35-11(3)27)22(32)37-17-19-25(5)21(31)16(29)18-24(4)12(10(2)7-13(28)20(24)30)8-15(36-23(17)33)26(18,19)9-34-25/h7,12,14-21,29-31H,6,8-9H2,1-5H3/t12-,14+,15+,16+,17+,18+,19-,20+,21-,24-,25-,26+/m0/s1

> <PUBCHEM_IUPAC_INCHIKEY>
QOXAISGIEITGJU-HGXLBWMBSA-N

> <PUBCHEM_XLOGP3_AA>
0.1

> <PUBCHEM_EXACT_MASS>
522.210112

> <PUBCHEM_MOLECULAR_FORMULA>
C26H34O11

> <PUBCHEM_MOLECULAR_WEIGHT>
522.54156

> <PUBCHEM_OPENEYE_CAN_SMILES>
CCC(C(=O)OC1C2C3(C(C(C4C2(CO3)C(CC5C4(C(C(=O)C=C5C)O)C)OC1=O)O)O)C)OC(=O)C

> <PUBCHEM_OPENEYE_ISO_SMILES>
CC[C@H](C(=O)O[C@@H]1[C@H]2[C@]3([C@H]([C@@H]([C@H]4[C@@]2(CO3)[C@@H](C[C@@H]5[C@@]4([C@@H](C(=O)C=C5C)O)C)OC1=O)O)O)C)OC(=O)C

> <PUBCHEM_CACTVS_TPSA>
166

> <PUBCHEM_MONOISOTOPIC_WEIGHT>
522.210112

> <PUBCHEM_TOTAL_CHARGE>
0

> <PUBCHEM_HEAVY_ATOM_COUNT>
37

> <PUBCHEM_ATOM_DEF_STEREO_COUNT>
12

> <PUBCHEM_ATOM_UDEF_STEREO_COUNT>
0

> <PUBCHEM_BOND_DEF_STEREO_COUNT>
0

> <PUBCHEM_BOND_UDEF_STEREO_COUNT>
0

> <PUBCHEM_ISOTOPIC_ATOM_COUNT>
0

> <PUBCHEM_COMPONENT_COUNT>
1

> <PUBCHEM_CACTVS_TAUTO_COUNT>
26

> <PUBCHEM_COORDINATE_TYPE>
1
5
255

> <PUBCHEM_BONDANNOTATIONS>
33  10  5
12  19  5
13  38  6
14  39  5
15  25  5
16  26  5
17  40  5
20  44  6
18  3  5
21  4  6
23  5  5
24  6  5

$$$$

