   Color/Form
        White solid
   from [1]HSDB

   Melting Point
        202 deg C
   from [2]HSDB

   Density/Specific Gravity
        1.48 g/cu cm
   from [3]HSDB

   Dissociation Constants
        pKa = 5.2
   from [4]HSDB

   Octanol/Water Partition Coefficient
        log Kow = 1.20
   from [5]HSDB

   Solubilities

     * In mg/kg at 25 deg C: acetone 3300, acetonitrile 1800, ethyl
       acetate 650, diethyl ether 60, hexane <1, methanol 550,
       dichloromethane 15,000, dimethyl sulfoxide 32,000, octanol 140,
       toluene 240
     * In water, pH 5 buffer 6.42 ppm; pH 7 buffer 244 ppm; pH 8.6 buffer
       12,500 ppm
     * In water, 244 mg/L at 25 deg C

   from [6]HSDB

   Vapor Pressure
        5.48X10-16 mm Hg at 25 deg C
   from [7]HSDB

   Other Chemical/Physical Properties

     * Colorless solid /Technical grade/
     * Henry's Law constant = 5.17X10-14 atm-cu m/mole at 25 deg C (est)
     * Hydroxyl radical reaction rate constant = 3.59X10-11 cu
       cm/molecule-sec at 25 deg C (est)

   from [8]HSDB

   Computed Properties
   Molecular Weight                  364.37634 [g/mol]
   Molecular Formula                 C[15]H[16]N[4]O[5]S
   XLogP3-AA                         1.9
   H-Bond Donor                      2
   H-Bond Acceptor                   7
   Rotatable Bond Count              5
   Tautomer Count                    13
   Exact Mass                        364.084141
   MonoIsotopic Mass                 364.084141
   Topological Polar Surface Area    136
   Heavy Atom Count                  25
   Formal Charge                     0
   Complexity                        581
   Isotope Atom Count                0
   Defined Atom Stereocenter Count   0
   Undefined Atom Stereocenter Count 0
   Defined Bond Stereocenter Count   0
   Undefined Bond Stereocenter Count 0
   Covalently-Bonded Unit Count      1
   Feature 3D Acceptor Count         5
   Feature 3D Donor Count            2
   Feature 3D Ring Count             2
   Effective Rotor Count             7
   Conformer Sampling RMSD           0.8
   CID Conformer Count               [9]149

References

   1. http://toxnet.nlm.nih.gov/cgi-bin/sis/search/r?dbs+hsdb:@term+@rn+@rel+74222-97-2
   2. http://toxnet.nlm.nih.gov/cgi-bin/sis/search/r?dbs+hsdb:@term+@rn+@rel+74222-97-2
   3. http://toxnet.nlm.nih.gov/cgi-bin/sis/search/r?dbs+hsdb:@term+@rn+@rel+74222-97-2
   4. http://toxnet.nlm.nih.gov/cgi-bin/sis/search/r?dbs+hsdb:@term+@rn+@rel+74222-97-2
   5. http://toxnet.nlm.nih.gov/cgi-bin/sis/search/r?dbs+hsdb:@term+@rn+@rel+74222-97-2
   6. http://toxnet.nlm.nih.gov/cgi-bin/sis/search/r?dbs+hsdb:@term+@rn+@rel+74222-97-2
   7. http://toxnet.nlm.nih.gov/cgi-bin/sis/search/r?dbs+hsdb:@term+@rn+@rel+74222-97-2
   8. http://toxnet.nlm.nih.gov/cgi-bin/sis/search/r?dbs+hsdb:@term+@rn+@rel+74222-97-2
   9. http://pubchem.ncbi.nlm.nih.gov/vw3d/vw3d.cgi?cid=52997
