47205540
  -OEChem-06241222592D

 24 24  0     0  0  0  0  0  0999 V2000
    2.2788    1.8430    0.0000 O   0  0  0  0  0  0  0  0  0  0  0  0
    4.3126   -0.1133    0.0000 O   0  0  0  0  0  0  0  0  0  0  0  0
    6.7500    0.9160    0.0000 O   0  0  0  0  0  0  0  0  0  0  0  0
    4.8479    1.5340    0.0000 N   0  0  0  0  0  0  0  0  0  0  0  0
    3.0878    1.2552    0.0000 N   0  0  0  0  0  0  0  0  0  0  0  0
    6.2147   -0.7313    0.0000 N   0  0  0  0  0  0  0  0  0  0  0  0
    3.8968    1.8430    0.0000 C   0  0  0  0  0  0  0  0  0  0  0  0
    2.5878    2.7941    0.0000 C   0  0  0  0  0  0  0  0  0  0  0  0
    3.5878    2.7941    0.0000 C   0  0  0  0  0  0  0  0  0  0  0  0
    5.0558    0.5558    0.0000 C   0  0  0  0  0  0  0  0  0  0  0  0
    2.0000    3.6031    0.0000 C   0  0  0  0  0  0  0  0  0  0  0  0
    6.0068    0.2468    0.0000 C   0  0  0  0  0  0  0  0  0  0  0  0
    7.1658   -1.0403    0.0000 C   0  0  0  0  0  0  0  0  0  0  0  0
    7.3737   -2.0185    0.0000 C   0  0  0  0  0  0  0  0  0  0  0  0
    7.5816   -2.9966    0.0000 C   0  0  0  0  0  0  0  0  0  0  0  0
    3.9522    3.2957    0.0000 H   0  0  0  0  0  0  0  0  0  0  0  0
    5.3086    1.9488    0.0000 H   0  0  0  0  0  0  0  0  0  0  0  0
    2.5016    3.9675    0.0000 H   0  0  0  0  0  0  0  0  0  0  0  0
    1.6356    4.1047    0.0000 H   0  0  0  0  0  0  0  0  0  0  0  0
    1.4984    3.2387    0.0000 H   0  0  0  0  0  0  0  0  0  0  0  0
    5.7540   -1.1462    0.0000 H   0  0  0  0  0  0  0  0  0  0  0  0
    7.7854   -1.0187    0.0000 H   0  0  0  0  0  0  0  0  0  0  0  0
    7.2521   -0.4264    0.0000 H   0  0  0  0  0  0  0  0  0  0  0  0
    7.7105   -3.6031    0.0000 H   0  0  0  0  0  0  0  0  0  0  0  0
  1  5  1  0  0  0  0
  1  8  1  0  0  0  0
  2 10  2  0  0  0  0
  3 12  2  0  0  0  0
  4  7  1  0  0  0  0
  4 10  1  0  0  0  0
  4 17  1  0  0  0  0
  5  7  2  0  0  0  0
  6 12  1  0  0  0  0
  6 13  1  0  0  0  0
  6 21  1  0  0  0  0
  7  9  1  0  0  0  0
  8  9  2  0  0  0  0
  8 11  1  0  0  0  0
  9 16  1  0  0  0  0
 10 12  1  0  0  0  0
 11 18  1  0  0  0  0
 11 19  1  0  0  0  0
 11 20  1  0  0  0  0
 13 14  1  0  0  0  0
 13 22  1  0  0  0  0
 13 23  1  0  0  0  0
 14 15  3  0  0  0  0
 15 24  1  0  0  0  0
M  END
> <PUBCHEM_COMPOUND_CID>
47205540

> <PUBCHEM_COMPOUND_CANONICALIZED>
1

> <PUBCHEM_CACTVS_COMPLEXITY>
307

> <PUBCHEM_CACTVS_HBOND_ACCEPTOR>
4

> <PUBCHEM_CACTVS_HBOND_DONOR>
2

> <PUBCHEM_CACTVS_ROTATABLE_BOND>
2

> <PUBCHEM_CACTVS_SUBSKEYS>
AAADccBzMAAAAAAAAAAAAAAAAAAAAWAAAAAAAAAAAAAAAAABgAAAHgAUAAAACATBkgQztJLQAADpGKNycgCAAAAlIgAhGKG+bFqAZAhAiaAUAIhCFwrAQEAAAAAAAAAAAAAAAAAAAAAAAAAAAAAAAAAAAA==

> <PUBCHEM_IUPAC_OPENEYE_NAME>
N'-(5-methylisoxazol-3-yl)-N-prop-2-ynyl-oxamide

> <PUBCHEM_IUPAC_CAS_NAME>
N'-(5-methyl-3-isoxazolyl)-N-prop-2-ynyloxamide

> <PUBCHEM_IUPAC_NAME>
N'-(5-methyl-1,2-oxazol-3-yl)-N-prop-2-ynyloxamide

> <PUBCHEM_IUPAC_SYSTEMATIC_NAME>
N'-(5-methyl-1,2-oxazol-3-yl)-N-prop-2-ynyl-ethanediamide

> <PUBCHEM_IUPAC_TRADITIONAL_NAME>
N'-(5-methylisoxazol-3-yl)-N-propargyl-oxamide

> <PUBCHEM_IUPAC_INCHI>
InChI=1S/C9H9N3O3/c1-3-4-10-8(13)9(14)11-7-5-6(2)15-12-7/h1,5H,4H2,2H3,(H,10,13)(H,11,12,14)

> <PUBCHEM_IUPAC_INCHIKEY>
BWFFNWXDOMVAGL-UHFFFAOYSA-N

> <PUBCHEM_XLOGP3_AA>
0.1

> <PUBCHEM_EXACT_MASS>
207.064391

> <PUBCHEM_MOLECULAR_FORMULA>
C9H9N3O3

> <PUBCHEM_MOLECULAR_WEIGHT>
207.18606

> <PUBCHEM_OPENEYE_CAN_SMILES>
CC1=CC(=NO1)NC(=O)C(=O)NCC#C

> <PUBCHEM_OPENEYE_ISO_SMILES>
CC1=CC(=NO1)NC(=O)C(=O)NCC#C

> <PUBCHEM_CACTVS_TPSA>
84.2

> <PUBCHEM_MONOISOTOPIC_WEIGHT>
207.064391

> <PUBCHEM_TOTAL_CHARGE>
0

> <PUBCHEM_HEAVY_ATOM_COUNT>
15

> <PUBCHEM_ATOM_DEF_STEREO_COUNT>
0

> <PUBCHEM_ATOM_UDEF_STEREO_COUNT>
0

> <PUBCHEM_BOND_DEF_STEREO_COUNT>
0

> <PUBCHEM_BOND_UDEF_STEREO_COUNT>
0

> <PUBCHEM_ISOTOPIC_ATOM_COUNT>
0

> <PUBCHEM_COMPONENT_COUNT>
1

> <PUBCHEM_CACTVS_TAUTO_COUNT>
16

> <PUBCHEM_COORDINATE_TYPE>
1
5
255

> <PUBCHEM_BONDANNOTATIONS>
1  5  8
1  8  8
5  7  8
7  9  8
8  9  8

$$$$

