442939
  -OEChem-07051213002D

 39 41  0     1  0  0  0  0  0999 V2000
    2.0000   -0.6420    0.0000 O   0  0  0  0  0  0  0  0  0  0  0  0
    3.7608   -0.4600    0.0000 N   0  0  0  0  0  0  0  0  0  0  0  0
    8.6914   -0.0390    0.0000 N   0  0  0  0  0  0  0  0  0  0  0  0
    6.2095    0.3764    0.0000 C   0  0  2  0  0  0  0  0  0  0  0  0
    6.4683    1.3423    0.0000 C   0  0  2  0  0  0  0  0  0  0  0  0
    4.6744   -0.8668    0.0000 C   0  0  1  0  0  0  0  0  0  0  0  0
    5.7317    2.3249    0.0000 C   0  0  0  0  0  0  0  0  0  0  0  0
    8.3330    0.8946    0.0000 C   0  0  2  0  0  0  0  0  0  0  0  0
    3.8654    0.5345    0.0000 C   0  0  0  0  0  0  0  0  0  0  0  0
    7.9142   -0.6683    0.0000 C   0  0  0  0  0  0  0  0  0  0  0  0
    4.7992   -1.9009    0.0000 C   0  0  0  0  0  0  0  0  0  0  0  0
    3.9612   -2.5196    0.0000 C   0  0  0  0  0  0  0  0  0  0  0  0
    2.9088   -1.0592    0.0000 C   0  0  0  0  0  0  0  0  0  0  0  0
    8.8776    1.7333    0.0000 C   0  0  0  0  0  0  0  0  0  0  0  0
    3.0097   -2.0960    0.0000 C   0  0  0  0  0  0  0  0  0  0  0  0
    9.8763    1.6810    0.0000 C   0  0  0  0  0  0  0  0  0  0  0  0
   10.4209    2.5196    0.0000 C   0  0  0  0  0  0  0  0  0  0  0  0
    5.9895   -0.4447    0.0000 H   0  0  0  0  0  0  0  0  0  0  0  0
    6.6883    2.1633    0.0000 H   0  0  0  0  0  0  0  0  0  0  0  0
    5.4509   -1.2125    0.0000 H   0  0  0  0  0  0  0  0  0  0  0  0
    6.0495    2.8573    0.0000 H   0  0  0  0  0  0  0  0  0  0  0  0
    5.1186    2.4169    0.0000 H   0  0  0  0  0  0  0  0  0  0  0  0
    8.9496    0.8298    0.0000 H   0  0  0  0  0  0  0  0  0  0  0  0
    3.7631    1.1460    0.0000 H   0  0  0  0  0  0  0  0  0  0  0  0
    3.2456    0.5156    0.0000 H   0  0  0  0  0  0  0  0  0  0  0  0
    7.5325   -1.1568    0.0000 H   0  0  0  0  0  0  0  0  0  0  0  0
    8.3564   -1.1028    0.0000 H   0  0  0  0  0  0  0  0  0  0  0  0
    5.0767   -2.4553    0.0000 H   0  0  0  0  0  0  0  0  0  0  0  0
    5.3929   -1.7224    0.0000 H   0  0  0  0  0  0  0  0  0  0  0  0
    9.2902   -0.1994    0.0000 H   0  0  0  0  0  0  0  0  0  0  0  0
    3.6159   -3.0345    0.0000 H   0  0  0  0  0  0  0  0  0  0  0  0
    4.4094   -2.9480    0.0000 H   0  0  0  0  0  0  0  0  0  0  0  0
    9.0171    2.3374    0.0000 H   0  0  0  0  0  0  0  0  0  0  0  0
    8.3069    1.9756    0.0000 H   0  0  0  0  0  0  0  0  0  0  0  0
    2.3914   -2.0495    0.0000 H   0  0  0  0  0  0  0  0  0  0  0  0
    2.8581   -2.6972    0.0000 H   0  0  0  0  0  0  0  0  0  0  0  0
   10.1577    1.1285    0.0000 H   0  0  0  0  0  0  0  0  0  0  0  0
   11.0401    2.4872    0.0000 H   0  0  0  0  0  0  0  0  0  0  0  0
   10.1394    3.0721    0.0000 H   0  0  0  0  0  0  0  0  0  0  0  0
  1 13  2  0  0  0  0
  2  6  1  0  0  0  0
  2  9  1  0  0  0  0
  2 13  1  0  0  0  0
  3  8  1  0  0  0  0
  3 10  1  0  0  0  0
  3 30  1  0  0  0  0
  4  6  1  0  0  0  0
  4  7  1  0  0  0  0
  4 10  1  0  0  0  0
  4 18  1  1  0  0  0
  5  7  1  0  0  0  0
  5  8  1  0  0  0  0
  5  9  1  0  0  0  0
  5 19  1  1  0  0  0
  6 11  1  0  0  0  0
  6 20  1  6  0  0  0
  7 21  1  0  0  0  0
  7 22  1  0  0  0  0
  8 14  1  6  0  0  0
  8 23  1  0  0  0  0
  9 24  1  0  0  0  0
  9 25  1  0  0  0  0
 10 26  1  0  0  0  0
 10 27  1  0  0  0  0
 11 12  1  0  0  0  0
 11 28  1  0  0  0  0
 11 29  1  0  0  0  0
 12 15  1  0  0  0  0
 12 31  1  0  0  0  0
 12 32  1  0  0  0  0
 13 15  1  0  0  0  0
 14 16  1  0  0  0  0
 14 33  1  0  0  0  0
 14 34  1  0  0  0  0
 15 35  1  0  0  0  0
 15 36  1  0  0  0  0
 16 17  2  0  0  0  0
 16 37  1  0  0  0  0
 17 38  1  0  0  0  0
 17 39  1  0  0  0  0
M  END
> <PUBCHEM_COMPOUND_CID>
442939

> <PUBCHEM_COMPOUND_CANONICALIZED>
1

> <PUBCHEM_CACTVS_COMPLEXITY>
328

> <PUBCHEM_CACTVS_HBOND_ACCEPTOR>
2

> <PUBCHEM_CACTVS_HBOND_DONOR>
1

> <PUBCHEM_CACTVS_ROTATABLE_BOND>
2

> <PUBCHEM_CACTVS_SUBSKEYS>
AAADceBzIAAAAAAAAAAAAAAAAAAAAAAAAAAsWLAAAAAWAACwAAAAHgAQAAAADSjBgAQAAAPAAACIACFSEAAAAAAgAAAIAIEIAAgAABIAwQAEAAAAlgCAAAEYicCeAAAAAAAAAAAAAAAAAAAAAAAAAAAAAA==

> <PUBCHEM_IUPAC_INCHI>
InChI=1S/C14H22N2O/c1-2-4-12-11-7-10(8-15-12)13-5-3-6-14(17)16(13)9-11/h2,10-13,15H,1,3-9H2/t10-,11+,12+,13-/m1/s1

> <PUBCHEM_IUPAC_INCHIKEY>
VTIPIBIDDZPDAV-MROQNXINSA-N

> <PUBCHEM_XLOGP3_AA>
1.4

> <PUBCHEM_EXACT_MASS>
234.173213

> <PUBCHEM_MOLECULAR_FORMULA>
C14H22N2O

> <PUBCHEM_MOLECULAR_WEIGHT>
234.33728

> <PUBCHEM_OPENEYE_CAN_SMILES>
C=CCC1C2CC(CN1)C3CCCC(=O)N3C2

> <PUBCHEM_OPENEYE_ISO_SMILES>
C=CC[C@H]1[C@H]2C[C@H](CN1)[C@H]3CCCC(=O)N3C2

> <PUBCHEM_CACTVS_TPSA>
32.3

> <PUBCHEM_MONOISOTOPIC_WEIGHT>
234.173213

> <PUBCHEM_TOTAL_CHARGE>
0

> <PUBCHEM_HEAVY_ATOM_COUNT>
17

> <PUBCHEM_ATOM_DEF_STEREO_COUNT>
4

> <PUBCHEM_ATOM_UDEF_STEREO_COUNT>
0

> <PUBCHEM_BOND_DEF_STEREO_COUNT>
0

> <PUBCHEM_BOND_UDEF_STEREO_COUNT>
0

> <PUBCHEM_ISOTOPIC_ATOM_COUNT>
0

> <PUBCHEM_COMPONENT_COUNT>
1

> <PUBCHEM_CACTVS_TAUTO_COUNT>
2

> <PUBCHEM_COORDINATE_TYPE>
1
5
255

> <PUBCHEM_BONDANNOTATIONS>
4  18  5
5  19  5
6  20  6
8  14  6

$$$$

