5281734
  -OEChem-07051212592D

 51 53  0     1  0  0  0  0  0999 V2000
    4.5787    0.1675    0.0000 O   0  0  0  0  0  0  0  0  0  0  0  0
    5.4045    3.6114    0.0000 O   0  5  0  0  0  0  0  0  0  0  0  0
    7.1188   -0.3213    0.0000 O   0  0  0  0  0  0  0  0  0  0  0  0
    5.8496   -2.6942    0.0000 O   0  0  0  0  0  0  0  0  0  0  0  0
    2.8660    0.1787    0.0000 O   0  0  0  0  0  0  0  0  0  0  0  0
    7.9848   -1.7990    0.0000 O   0  0  0  0  0  0  0  0  0  0  0  0
    7.4969   -3.0126    0.0000 O   0  0  0  0  0  0  0  0  0  0  0  0
    5.4255    2.6117    0.0000 N   0  3  3  0  0  0  0  0  0  0  0  0
    5.4255    1.6340    0.0000 C   0  0  1  0  0  0  0  0  0  0  0  0
    4.5787    1.1452    0.0000 C   0  0  1  0  0  0  0  0  0  0  0  0
    4.4056    2.8561    0.0000 C   0  0  0  0  0  0  0  0  0  0  0  0
    3.8842    2.0740    0.0000 C   0  0  0  0  0  0  0  0  0  0  0  0
    6.3609    2.8778    0.0000 C   0  0  0  0  0  0  0  0  0  0  0  0
    6.2721    1.1452    0.0000 C   0  0  0  0  0  0  0  0  0  0  0  0
    6.9692    2.0740    0.0000 C   0  0  0  0  0  0  0  0  0  0  0  0
    6.2721    0.1675    0.0000 C   0  0  0  0  0  0  0  0  0  0  0  0
    3.7320   -0.3213    0.0000 C   0  0  0  0  0  0  0  0  0  0  0  0
    5.4255   -1.2990    0.0000 C   0  0  1  0  0  0  0  0  0  0  0  0
    6.2721   -1.7878    0.0000 C   0  0  2  0  0  0  0  0  0  0  0  0
    4.5787   -1.7878    0.0000 C   0  0  0  0  0  0  0  0  0  0  0  0
    3.7320   -1.2990    0.0000 C   0  0  0  0  0  0  0  0  0  0  0  0
    7.1188   -1.2990    0.0000 C   0  0  0  0  0  0  0  0  0  0  0  0
    6.5309   -2.7538    0.0000 C   0  0  0  0  0  0  0  0  0  0  0  0
    5.4255   -0.2990    0.0000 C   0  0  0  0  0  0  0  0  0  0  0  0
    2.8660   -1.7990    0.0000 C   0  0  0  0  0  0  0  0  0  0  0  0
    2.0000   -1.2990    0.0000 C   0  0  0  0  0  0  0  0  0  0  0  0
    5.4255    0.7840    0.0000 H   0  0  0  0  0  0  0  0  0  0  0  0
    3.7721    0.8769    0.0000 H   0  0  0  0  0  0  0  0  0  0  0  0
    4.6198    3.4379    0.0000 H   0  0  0  0  0  0  0  0  0  0  0  0
    3.8529    3.1371    0.0000 H   0  0  0  0  0  0  0  0  0  0  0  0
    3.4106    2.4741    0.0000 H   0  0  0  0  0  0  0  0  0  0  0  0
    3.4329    1.6488    0.0000 H   0  0  0  0  0  0  0  0  0  0  0  0
    6.8976    3.1881    0.0000 H   0  0  0  0  0  0  0  0  0  0  0  0
    6.1190    3.4487    0.0000 H   0  0  0  0  0  0  0  0  0  0  0  0
    7.5892    2.0752    0.0000 H   0  0  0  0  0  0  0  0  0  0  0  0
    5.6615    0.2752    0.0000 H   0  0  0  0  0  0  0  0  0  0  0  0
    6.0601   -0.4151    0.0000 H   0  0  0  0  0  0  0  0  0  0  0  0
    5.9624   -0.9890    0.0000 H   0  0  0  0  0  0  0  0  0  0  0  0
    4.1802   -2.2628    0.0000 H   0  0  0  0  0  0  0  0  0  0  0  0
    4.9772   -2.2628    0.0000 H   0  0  0  0  0  0  0  0  0  0  0  0
    5.9133   -2.8078    0.0000 H   0  0  0  0  0  0  0  0  0  0  0  0
    6.4769   -3.3714    0.0000 H   0  0  0  0  0  0  0  0  0  0  0  0
    6.0455   -0.2990    0.0000 H   0  0  0  0  0  0  0  0  0  0  0  0
    5.4254    0.3210    0.0000 H   0  0  0  0  0  0  0  0  0  0  0  0
    4.8055   -0.2990    0.0000 H   0  0  0  0  0  0  0  0  0  0  0  0
    2.8660   -2.4190    0.0000 H   0  0  0  0  0  0  0  0  0  0  0  0
    5.2319   -2.7482    0.0000 H   0  0  0  0  0  0  0  0  0  0  0  0
    7.6573   -3.6114    0.0000 H   0  0  0  0  0  0  0  0  0  0  0  0
    2.3100   -0.7621    0.0000 H   0  0  0  0  0  0  0  0  0  0  0  0
    1.4631   -0.9890    0.0000 H   0  0  0  0  0  0  0  0  0  0  0  0
    1.6900   -1.8359    0.0000 H   0  0  0  0  0  0  0  0  0  0  0  0
  1 10  1  0  0  0  0
  1 17  1  0  0  0  0
  2  8  1  0  0  0  0
  3 16  1  0  0  0  0
  3 22  1  0  0  0  0
 19  4  1  6  0  0  0
  4 47  1  0  0  0  0
  5 17  2  0  0  0  0
  6 22  2  0  0  0  0
  7 23  1  0  0  0  0
  7 48  1  0  0  0  0
  8  9  1  0  0  0  0
  8 11  1  0  0  0  0
  8 13  1  0  0  0  0
  9 10  1  0  0  0  0
  9 14  1  0  0  0  0
  9 27  1  1  0  0  0
 10 12  1  0  0  0  0
 10 28  1  1  0  0  0
 11 12  1  0  0  0  0
 11 29  1  0  0  0  0
 11 30  1  0  0  0  0
 12 31  1  0  0  0  0
 12 32  1  0  0  0  0
 13 15  1  0  0  0  0
 13 33  1  0  0  0  0
 13 34  1  0  0  0  0
 14 15  2  0  0  0  0
 14 16  1  0  0  0  0
 15 35  1  0  0  0  0
 16 36  1  0  0  0  0
 16 37  1  0  0  0  0
 17 21  1  0  0  0  0
 18 19  1  0  0  0  0
 18 20  1  0  0  0  0
 18 24  1  1  0  0  0
 18 38  1  0  0  0  0
 19 22  1  0  0  0  0
 19 23  1  0  0  0  0
 20 21  1  0  0  0  0
 20 39  1  0  0  0  0
 20 40  1  0  0  0  0
 21 25  2  0  0  0  0
 23 41  1  0  0  0  0
 23 42  1  0  0  0  0
 24 43  1  0  0  0  0
 24 44  1  0  0  0  0
 24 45  1  0  0  0  0
 25 26  1  0  0  0  0
 25 46  1  0  0  0  0
 26 49  1  0  0  0  0
 26 50  1  0  0  0  0
 26 51  1  0  0  0  0
M  CHG  2   2  -1   8   1
M  END
> <PUBCHEM_COMPOUND_CID>
5281734

> <PUBCHEM_COMPOUND_CANONICALIZED>
1

> <PUBCHEM_CACTVS_COMPLEXITY>
673

> <PUBCHEM_CACTVS_HBOND_ACCEPTOR>
7

> <PUBCHEM_CACTVS_HBOND_DONOR>
2

> <PUBCHEM_CACTVS_ROTATABLE_BOND>
1

> <PUBCHEM_CACTVS_SUBSKEYS>
AAADceB6OAAAAAAAAAAAAAAAAAAAAWIAAAAAAAAAAAAQAAAAAAAAHgAECAAADXzhgAYCCAMQBgCIAiDSCAKAAAAgAAAgCAFIAEgDFBYAoQAHUAAH4ACbIYPYbBxOgAAAAAAAAAAAAAAAAAAAAAAAAAAAAA==

> <PUBCHEM_IUPAC_INCHI>
InChI=1S/C18H25NO7/c1-3-12-8-11(2)18(23,10-20)17(22)25-9-13-4-6-19(24)7-5-14(15(13)19)26-16(12)21/h3-4,11,14-15,20,23H,5-10H2,1-2H3/b12-3-/t11-,14-,15-,18-,19?/m1/s1

> <PUBCHEM_IUPAC_INCHIKEY>
IDIMIWQPUHURPV-WTWIWYCDSA-N

> <PUBCHEM_XLOGP3_AA>
0

> <PUBCHEM_EXACT_MASS>
367.163102

> <PUBCHEM_MOLECULAR_FORMULA>
C18H25NO7

> <PUBCHEM_MOLECULAR_WEIGHT>
367.3936

> <PUBCHEM_OPENEYE_CAN_SMILES>
CC=C1CC(C(C(=O)OCC2=CC[N+]3(C2C(CC3)OC1=O)[O-])(CO)O)C

> <PUBCHEM_OPENEYE_ISO_SMILES>
C/C=C\1/C[C@H]([C@@](C(=O)OCC2=CC[N+]3([C@H]2[C@@H](CC3)OC1=O)[O-])(CO)O)C

> <PUBCHEM_CACTVS_TPSA>
111

> <PUBCHEM_MONOISOTOPIC_WEIGHT>
367.163102

> <PUBCHEM_TOTAL_CHARGE>
0

> <PUBCHEM_HEAVY_ATOM_COUNT>
26

> <PUBCHEM_ATOM_DEF_STEREO_COUNT>
4

> <PUBCHEM_ATOM_UDEF_STEREO_COUNT>
1

> <PUBCHEM_BOND_DEF_STEREO_COUNT>
1

> <PUBCHEM_BOND_UDEF_STEREO_COUNT>
0

> <PUBCHEM_ISOTOPIC_ATOM_COUNT>
0

> <PUBCHEM_COMPONENT_COUNT>
1

> <PUBCHEM_CACTVS_TAUTO_COUNT>
1

> <PUBCHEM_COORDINATE_TYPE>
1
5
255

> <PUBCHEM_BONDANNOTATIONS>
10  28  5
18  24  5
8  2  3
19  4  6
9  27  5

$$$$

