582880
  -OEChem-06241222442D

 38 38  0     0  0  0  0  0  0999 V2000
    4.5981    2.5670    0.0000 Si  0  0  0  0  0  0  0  0  0  0  0  0
    3.7320    2.0670    0.0000 O   0  0  0  0  0  0  0  0  0  0  0  0
    2.8660   -0.4330    0.0000 O   0  0  0  0  0  0  0  0  0  0  0  0
    3.7320    1.0670    0.0000 C   0  0  0  0  0  0  0  0  0  0  0  0
    3.7320    0.0670    0.0000 C   0  0  0  0  0  0  0  0  0  0  0  0
    4.7320    1.0670    0.0000 C   0  0  0  0  0  0  0  0  0  0  0  0
    2.7320    1.0670    0.0000 C   0  0  0  0  0  0  0  0  0  0  0  0
    5.4641    3.0670    0.0000 C   0  0  0  0  0  0  0  0  0  0  0  0
    4.0981    3.4330    0.0000 C   0  0  0  0  0  0  0  0  0  0  0  0
    5.0981    1.7010    0.0000 C   0  0  0  0  0  0  0  0  0  0  0  0
    2.8660   -1.4330    0.0000 C   0  0  0  0  0  0  0  0  0  0  0  0
    2.0000   -1.9330    0.0000 C   0  0  0  0  0  0  0  0  0  0  0  0
    3.7320   -1.9330    0.0000 C   0  0  0  0  0  0  0  0  0  0  0  0
    2.0000   -2.9330    0.0000 C   0  0  0  0  0  0  0  0  0  0  0  0
    3.7320   -2.9330    0.0000 C   0  0  0  0  0  0  0  0  0  0  0  0
    2.8660   -3.4330    0.0000 C   0  0  0  0  0  0  0  0  0  0  0  0
    3.9441   -0.5156    0.0000 H   0  0  0  0  0  0  0  0  0  0  0  0
    4.3426    0.1746    0.0000 H   0  0  0  0  0  0  0  0  0  0  0  0
    4.7320    0.4470    0.0000 H   0  0  0  0  0  0  0  0  0  0  0  0
    5.3520    1.0670    0.0000 H   0  0  0  0  0  0  0  0  0  0  0  0
    4.7320    1.6870    0.0000 H   0  0  0  0  0  0  0  0  0  0  0  0
    2.7320    1.6870    0.0000 H   0  0  0  0  0  0  0  0  0  0  0  0
    2.1120    1.0670    0.0000 H   0  0  0  0  0  0  0  0  0  0  0  0
    2.7320    0.4470    0.0000 H   0  0  0  0  0  0  0  0  0  0  0  0
    5.7741    2.5300    0.0000 H   0  0  0  0  0  0  0  0  0  0  0  0
    6.0010    3.3770    0.0000 H   0  0  0  0  0  0  0  0  0  0  0  0
    5.1541    3.6039    0.0000 H   0  0  0  0  0  0  0  0  0  0  0  0
    4.6350    3.7430    0.0000 H   0  0  0  0  0  0  0  0  0  0  0  0
    3.7881    3.9700    0.0000 H   0  0  0  0  0  0  0  0  0  0  0  0
    3.5611    3.1230    0.0000 H   0  0  0  0  0  0  0  0  0  0  0  0
    4.5611    1.3910    0.0000 H   0  0  0  0  0  0  0  0  0  0  0  0
    5.4081    1.1640    0.0000 H   0  0  0  0  0  0  0  0  0  0  0  0
    5.6350    2.0110    0.0000 H   0  0  0  0  0  0  0  0  0  0  0  0
    1.4631   -1.6230    0.0000 H   0  0  0  0  0  0  0  0  0  0  0  0
    4.2690   -1.6230    0.0000 H   0  0  0  0  0  0  0  0  0  0  0  0
    1.4631   -3.2430    0.0000 H   0  0  0  0  0  0  0  0  0  0  0  0
    4.2690   -3.2430    0.0000 H   0  0  0  0  0  0  0  0  0  0  0  0
    2.8660   -4.0530    0.0000 H   0  0  0  0  0  0  0  0  0  0  0  0
  1  2  1  0  0  0  0
  1  8  1  0  0  0  0
  1  9  1  0  0  0  0
  1 10  1  0  0  0  0
  2  4  1  0  0  0  0
  3  5  1  0  0  0  0
  3 11  1  0  0  0  0
  4  5  1  0  0  0  0
  4  6  1  0  0  0  0
  4  7  1  0  0  0  0
  5 17  1  0  0  0  0
  5 18  1  0  0  0  0
  6 19  1  0  0  0  0
  6 20  1  0  0  0  0
  6 21  1  0  0  0  0
  7 22  1  0  0  0  0
  7 23  1  0  0  0  0
  7 24  1  0  0  0  0
  8 25  1  0  0  0  0
  8 26  1  0  0  0  0
  8 27  1  0  0  0  0
  9 28  1  0  0  0  0
  9 29  1  0  0  0  0
  9 30  1  0  0  0  0
 10 31  1  0  0  0  0
 10 32  1  0  0  0  0
 10 33  1  0  0  0  0
 11 12  2  0  0  0  0
 11 13  1  0  0  0  0
 12 14  1  0  0  0  0
 12 34  1  0  0  0  0
 13 15  2  0  0  0  0
 13 35  1  0  0  0  0
 14 16  2  0  0  0  0
 14 36  1  0  0  0  0
 15 16  1  0  0  0  0
 15 37  1  0  0  0  0
 16 38  1  0  0  0  0
M  END
> <PUBCHEM_COMPOUND_CID>
582880

> <PUBCHEM_COMPOUND_CANONICALIZED>
1

> <PUBCHEM_CACTVS_COMPLEXITY>
203

> <PUBCHEM_CACTVS_HBOND_ACCEPTOR>
2

> <PUBCHEM_CACTVS_HBOND_DONOR>
0

> <PUBCHEM_CACTVS_ROTATABLE_BOND>
5

> <PUBCHEM_CACTVS_SUBSKEYS>
AAADceBwMAgAAAAAAAAAAAAAAAAAAAAAAAAwAAAAAAAAAAABAAAAGhAAAEAADESgkAJyBoAABAGAACBCAAACCAAgIAAIiAAGCIgNJiKEMRqCOCCkwBEKqAeAQAAAAAAAAAAAAAAAAAAAAAAAAAAAAAAAAA==

> <PUBCHEM_IUPAC_OPENEYE_NAME>
(1,1-dimethyl-2-phenoxy-ethoxy)-trimethyl-silane

> <PUBCHEM_IUPAC_CAS_NAME>
trimethyl-(2-methyl-1-phenoxypropan-2-yl)oxysilane

> <PUBCHEM_IUPAC_NAME>
trimethyl-(2-methyl-1-phenoxypropan-2-yl)oxysilane

> <PUBCHEM_IUPAC_SYSTEMATIC_NAME>
trimethyl-(2-methyl-1-phenoxy-propan-2-yl)oxy-silane

> <PUBCHEM_IUPAC_TRADITIONAL_NAME>
(1,1-dimethyl-2-phenoxy-ethoxy)-trimethyl-silane

> <PUBCHEM_IUPAC_INCHI>
InChI=1S/C13H22O2Si/c1-13(2,15-16(3,4)5)11-14-12-9-7-6-8-10-12/h6-10H,11H2,1-5H3

> <PUBCHEM_IUPAC_INCHIKEY>
WRSVZLOALAEXCR-UHFFFAOYSA-N

> <PUBCHEM_EXACT_MASS>
238.138906

> <PUBCHEM_MOLECULAR_FORMULA>
C13H22O2Si

> <PUBCHEM_MOLECULAR_WEIGHT>
238.39808

> <PUBCHEM_OPENEYE_CAN_SMILES>
CC(C)(COC1=CC=CC=C1)O[Si](C)(C)C

> <PUBCHEM_OPENEYE_ISO_SMILES>
CC(C)(COC1=CC=CC=C1)O[Si](C)(C)C

> <PUBCHEM_CACTVS_TPSA>
18.5

> <PUBCHEM_MONOISOTOPIC_WEIGHT>
238.138906

> <PUBCHEM_TOTAL_CHARGE>
0

> <PUBCHEM_HEAVY_ATOM_COUNT>
16

> <PUBCHEM_ATOM_DEF_STEREO_COUNT>
0

> <PUBCHEM_ATOM_UDEF_STEREO_COUNT>
0

> <PUBCHEM_BOND_DEF_STEREO_COUNT>
0

> <PUBCHEM_BOND_UDEF_STEREO_COUNT>
0

> <PUBCHEM_ISOTOPIC_ATOM_COUNT>
0

> <PUBCHEM_COMPONENT_COUNT>
1

> <PUBCHEM_CACTVS_TAUTO_COUNT>
1

> <PUBCHEM_COORDINATE_TYPE>
1
5
255

> <PUBCHEM_BONDANNOTATIONS>
11  12  8
11  13  8
12  14  8
13  15  8
14  16  8
15  16  8

$$$$

