   Melting Point
        114 deg C
   from [1]HSDB

   Dissociation Constants
        pKa = 9.86 (est)
   from [2]HSDB

   Octanol/Water Partition Coefficient
        log Kow = 4.49
   from [3]HSDB

   Solubilities
        In water, 18 mg/L at 25 deg C (est)
   from [4]HSDB

   Spectral Properties

     * Intense mass spectral peaks: 98 m/z, 218 m/z, 301 m/z
     * IR: 5196 (Coblentz Society spectral collection)

   from [5]HSDB

   Vapor Pressure
        5.61X10-10 mm Hg at 25 deg C (est)
   from [6]HSDB

   Other Chemical/Physical Properties

     * Henry's Law constant = 4.73X10-10 atm-cu m/mol at 25 deg C (est)
     * Hydroxyl radical reaction rate constant = 1.29X10-14 cu
       cm/molec-sec at 25 deg C (est)
     * White or slightly off white, crystalline powder ... very faint odor
       /Hydrochloride/
     * Crystals from isopropyl alcohol; mp: 264 deg C; specific optical
       rotation: -30 deg at 20 deg C/D (c = 0.4% in chloroform). Specific
       optical rotation: -25 deg at 20 deg C/D (c = 0.4% in ethanol).
       /L-form hydrochloride/
     * Free base mp 112-113 deg C. /L-form/
     * Crystals; decomp at 258.5 deg C; pH of 1% aq soln 5.5-6.0;
       solubility (g/100 mL): water at 25 deg C 1.0, alcohol 6, chloroform
       5; more soluble in methanol; very slightly soluble in ether,
       benzene /Hydrochloride/

   from [7]HSDB

   Computed Properties
   Molecular Weight                  301.46624 [g/mol]
   Molecular Formula                 C[20]H[31]NO
   XLogP3                            4.5
   H-Bond Donor                      1
   H-Bond Acceptor                   2
   Rotatable Bond Count              5
   Exact Mass                        301.240565
   MonoIsotopic Mass                 301.240565
   Topological Polar Surface Area    23.5
   Heavy Atom Count                  22
   Formal Charge                     0
   Complexity                        314
   Isotope Atom Count                0
   Defined Atom Stereocenter Count   0
   Undefined Atom Stereocenter Count 1
   Defined Bond Stereocenter Count   0
   Undefined Bond Stereocenter Count 0
   Covalently-Bonded Unit Count      1
   Feature 3D Acceptor Count         1
   Feature 3D Donor Count            1
   Feature 3D Cation Count           1
   Feature 3D Ring Count             3
   Effective Rotor Count             7.4
   Conformer Sampling RMSD           0.8
   CID Conformer Count               [8]33

References

   1. http://toxnet.nlm.nih.gov/cgi-bin/sis/search/r?dbs+hsdb:@term+@rn+@rel+144-11-6
   2. http://toxnet.nlm.nih.gov/cgi-bin/sis/search/r?dbs+hsdb:@term+@rn+@rel+144-11-6
   3. http://toxnet.nlm.nih.gov/cgi-bin/sis/search/r?dbs+hsdb:@term+@rn+@rel+144-11-6
   4. http://toxnet.nlm.nih.gov/cgi-bin/sis/search/r?dbs+hsdb:@term+@rn+@rel+144-11-6
   5. http://toxnet.nlm.nih.gov/cgi-bin/sis/search/r?dbs+hsdb:@term+@rn+@rel+144-11-6
   6. http://toxnet.nlm.nih.gov/cgi-bin/sis/search/r?dbs+hsdb:@term+@rn+@rel+144-11-6
   7. http://toxnet.nlm.nih.gov/cgi-bin/sis/search/r?dbs+hsdb:@term+@rn+@rel+144-11-6
   8. http://pubchem.ncbi.nlm.nih.gov/vw3d/vw3d.cgi?cid=5572
