   Color/Form

     * Long white needles from water.
     * White crystalline solid /TECHNICAL GRADE/

   from [1]HSDB

   Odor
        Mild odor
   from [2]HSDB

   Melting Point
        167 to 169 deg C
   from [3]HSDB

   Density/Specific Gravity
        1.59 g/cu cm at 23 deg C
   from [4]HSDB

   Dissociation Constants
        pKa = 10.88
   from [5]HSDB

   Octanol/Water Partition Coefficient
        Log Kow = -0.17
   from [6]HSDB

   Solubilities

     * In acetonitrile 180 g/l, methanol 10.7 g/l, toluene 8.979 g/l (all
       at 25 deg C).
     * In water, 4.6 g/l at 25 deg C.

   from [7]HSDB

   Vapor Pressure
        3.83X10-7 mm Hg at 25 deg C
   from [8]HSDB

   Other Chemical/Physical Properties

     * Stable for 1 year at 20 deg C; 14 days at 55 deg C. Stable to light
       greater than or equal to 7 days at 25 deg C. Undergoes degradation
       in aqueous solution.
     * Photolysis rate constants: 9.07X10-3 /day in soil at 25 deg C;
       0.017 /day in water at 25 deg C and pH 5 to 9.
     * Hydrolysis rate constants: 6.9X10-5 at pH 3; 1.5X10-5 at pH 6; and
       7.9X10-4 at pH 9 (all at 25 deg C).
     * Henry's Law constant = 2.3X10-6 Pa-cu m/mole at 25 deg C

   from [9]HSDB

   Computed Properties
   Molecular Weight                  210.2712 [g/mol]
   Molecular Formula                 C[6]H[10]O[4]S[2]
   XLogP3-AA                         -0.5
   H-Bond Donor                      0
   H-Bond Acceptor                   4
   Rotatable Bond Count              0
   Exact Mass                        210.002051
   MonoIsotopic Mass                 210.002051
   Topological Polar Surface Area    85
   Heavy Atom Count                  12
   Formal Charge                     0
   Complexity                        371
   Isotope Atom Count                0
   Defined Atom Stereocenter Count   0
   Undefined Atom Stereocenter Count 0
   Defined Bond Stereocenter Count   0
   Undefined Bond Stereocenter Count 0
   Covalently-Bonded Unit Count      1
   Feature 3D Acceptor Count         4
   Feature 3D Ring Count             1
   Effective Rotor Count             0.4
   Conformer Sampling RMSD           0.4
   CID Conformer Count               [10]3

References

   1. http://toxnet.nlm.nih.gov/cgi-bin/sis/search/r?dbs+hsdb:@term+@rn+@rel+55290-64-7
   2. http://toxnet.nlm.nih.gov/cgi-bin/sis/search/r?dbs+hsdb:@term+@rn+@rel+55290-64-7
   3. http://toxnet.nlm.nih.gov/cgi-bin/sis/search/r?dbs+hsdb:@term+@rn+@rel+55290-64-7
   4. http://toxnet.nlm.nih.gov/cgi-bin/sis/search/r?dbs+hsdb:@term+@rn+@rel+55290-64-7
   5. http://toxnet.nlm.nih.gov/cgi-bin/sis/search/r?dbs+hsdb:@term+@rn+@rel+55290-64-7
   6. http://toxnet.nlm.nih.gov/cgi-bin/sis/search/r?dbs+hsdb:@term+@rn+@rel+55290-64-7
   7. http://toxnet.nlm.nih.gov/cgi-bin/sis/search/r?dbs+hsdb:@term+@rn+@rel+55290-64-7
   8. http://toxnet.nlm.nih.gov/cgi-bin/sis/search/r?dbs+hsdb:@term+@rn+@rel+55290-64-7
   9. http://toxnet.nlm.nih.gov/cgi-bin/sis/search/r?dbs+hsdb:@term+@rn+@rel+55290-64-7
  10. http://pubchem.ncbi.nlm.nih.gov/vw3d/vw3d.cgi?cid=41385
