   Color/Form
        YELLOW NEEDLES FROM ALCOHOL AND ACETIC ACID
   from [1]HSDB

   Odor
        Odorless
   from [2]HSDB

   Melting Point
        191 DEG C
   from [3]HSDB

   Corrosivity
        NON-CORROSIVE
   from [4]HSDB

   Dissociation Constants
        pKa = 3.31
   from [5]HSDB

   Octanol/Water Partition Coefficient
        log Kow = 1.79 /not recommended value/
   from [6]HSDB

   Solubilities

     * SOL IN ALCOHOL
     * 6.3 mg/L water @ 20 deg C
     * 34 g/L acetone @ 20 deg C
     * 4.6 g/L benzene @ 20 deg C
     * 12 g/L chloroform @ 20 deg C
     * 60 mg/L cyclohexane @ 20 deg C
     * 40 g/L dioxane @ 20 deg C
     * 19 g/L in ethyl acetate @ 20 deg C
     * SLIGHTLY SOL IN NON-POLAR SOLVENTS

   from [7]HSDB

   Spectral Properties

     * MAX ABSORPTION (HEPTANE): 240 NM (LOG E= 3.90); 322 NM (LOG E=
       4.16); SADTLER REFERENCE NUMBER: 6529 (IR, PRISM)
     * IR: 21083 (Sadtler Research Laboratories IR Grating Collection)
     * UV: 1814 (Sadtler Research Laboratories Spectral Collection)
     * NMR: 9851 (Sadtler Research Laboratories Spectral Collection)
     * MASS: 1251 (National Bureau of Standards EPA-NIH Mass Spectra Data
       Base, NSRDS-NBS-63)

   from [8]HSDB

   Vapor Pressure
        0.16 mPa @ 20 deg C; 0.26 mPa @ 25 deg C
   from [9]HSDB

   Other Chemical/Physical Properties
        BROWNISH-YELLOW /TECHNICAL PRODUCT, PURITY MORE THAN 90%/
   from [10]HSDB

   Computed Properties
   Molecular Weight                  207.01416 [g/mol]
   Molecular Formula                 C[6]H[4]Cl[2]N[2]O[2]
   XLogP3                            2.9
   H-Bond Donor                      1
   H-Bond Acceptor                   3
   Rotatable Bond Count              0
   Exact Mass                        205.964983
   MonoIsotopic Mass                 205.964983
   Topological Polar Surface Area    71.8
   Heavy Atom Count                  12
   Formal Charge                     0
   Complexity                        173
   Isotope Atom Count                0
   Defined Atom Stereocenter Count   0
   Undefined Atom Stereocenter Count 0
   Defined Bond Stereocenter Count   0
   Undefined Bond Stereocenter Count 0
   Covalently-Bonded Unit Count      1
   Feature 3D Acceptor Count         2
   Feature 3D Donor Count            1
   Feature 3D Anion Count            1
   Feature 3D Cation Count           1
   Feature 3D Ring Count             1
   Effective Rotor Count             1
   Conformer Sampling RMSD           0.4
   CID Conformer Count               [11]1

References

   1. http://toxnet.nlm.nih.gov/cgi-bin/sis/search/r?dbs+hsdb:@term+@rn+@rel+99-30-9
   2. http://toxnet.nlm.nih.gov/cgi-bin/sis/search/r?dbs+hsdb:@term+@rn+@rel+99-30-9
   3. http://toxnet.nlm.nih.gov/cgi-bin/sis/search/r?dbs+hsdb:@term+@rn+@rel+99-30-9
   4. http://toxnet.nlm.nih.gov/cgi-bin/sis/search/r?dbs+hsdb:@term+@rn+@rel+99-30-9
   5. http://toxnet.nlm.nih.gov/cgi-bin/sis/search/r?dbs+hsdb:@term+@rn+@rel+99-30-9
   6. http://toxnet.nlm.nih.gov/cgi-bin/sis/search/r?dbs+hsdb:@term+@rn+@rel+99-30-9
   7. http://toxnet.nlm.nih.gov/cgi-bin/sis/search/r?dbs+hsdb:@term+@rn+@rel+99-30-9
   8. http://toxnet.nlm.nih.gov/cgi-bin/sis/search/r?dbs+hsdb:@term+@rn+@rel+99-30-9
   9. http://toxnet.nlm.nih.gov/cgi-bin/sis/search/r?dbs+hsdb:@term+@rn+@rel+99-30-9
  10. http://toxnet.nlm.nih.gov/cgi-bin/sis/search/r?dbs+hsdb:@term+@rn+@rel+99-30-9
  11. http://pubchem.ncbi.nlm.nih.gov/vw3d/vw3d.cgi?cid=7430
