439726
  -OEChem-07051212472D

 43 46  0     1  0  0  0  0  0999 V2000
    2.5357   -2.0032    0.0000 O   0  0  0  0  0  0  0  0  0  0  0  0
    7.9288    1.0491    0.0000 C   0  0  3  0  0  0  0  0  0  0  0  0
    7.9288    0.0491    0.0000 C   0  0  3  0  0  0  0  0  0  0  0  0
    7.0628   -0.4509    0.0000 C   0  0  3  0  0  0  0  0  0  0  0  0
    6.1968    0.0491    0.0000 C   0  0  3  0  0  0  0  0  0  0  0  0
    7.0628    1.5491    0.0000 C   0  0  0  0  0  0  0  0  0  0  0  0
    8.8750    1.3538    0.0000 C   0  0  0  0  0  0  0  0  0  0  0  0
    8.8750   -0.2556    0.0000 C   0  0  0  0  0  0  0  0  0  0  0  0
    6.1968    1.0491    0.0000 C   0  0  0  0  0  0  0  0  0  0  0  0
    9.4586    0.5491    0.0000 C   0  0  0  0  0  0  0  0  0  0  0  0
    7.0789   -1.4924    0.0000 C   0  0  0  0  0  0  0  0  0  0  0  0
    7.9288    2.0491    0.0000 C   0  0  0  0  0  0  0  0  0  0  0  0
    5.2868   -0.4578    0.0000 C   0  0  0  0  0  0  0  0  0  0  0  0
    6.1808   -2.0202    0.0000 C   0  0  0  0  0  0  0  0  0  0  0  0
    5.2787   -1.4994    0.0000 C   0  0  0  0  0  0  0  0  0  0  0  0
    4.3599    0.1063    0.0000 C   0  0  0  0  0  0  0  0  0  0  0  0
    4.3433   -2.0491    0.0000 C   0  0  0  0  0  0  0  0  0  0  0  0
    3.4120   -0.4216    0.0000 C   0  0  0  0  0  0  0  0  0  0  0  0
    3.4037   -1.5066    0.0000 C   0  0  0  0  0  0  0  0  0  0  0  0
    8.0188   -0.7961    0.0000 H   0  0  0  0  0  0  0  0  0  0  0  0
    7.8022   -0.8702    0.0000 H   0  0  0  0  0  0  0  0  0  0  0  0
    6.9329    0.4741    0.0000 H   0  0  0  0  0  0  0  0  0  0  0  0
    7.4613    2.0240    0.0000 H   0  0  0  0  0  0  0  0  0  0  0  0
    6.6643    2.0240    0.0000 H   0  0  0  0  0  0  0  0  0  0  0  0
    9.4124    1.6630    0.0000 H   0  0  0  0  0  0  0  0  0  0  0  0
    8.6240    1.9207    0.0000 H   0  0  0  0  0  0  0  0  0  0  0  0
    8.6240   -0.8226    0.0000 H   0  0  0  0  0  0  0  0  0  0  0  0
    9.4124   -0.5649    0.0000 H   0  0  0  0  0  0  0  0  0  0  0  0
    5.9847    1.6317    0.0000 H   0  0  0  0  0  0  0  0  0  0  0  0
    5.5862    0.9414    0.0000 H   0  0  0  0  0  0  0  0  0  0  0  0
    9.9195    0.1344    0.0000 H   0  0  0  0  0  0  0  0  0  0  0  0
    9.9195    0.9638    0.0000 H   0  0  0  0  0  0  0  0  0  0  0  0
    7.2969   -2.0728    0.0000 H   0  0  0  0  0  0  0  0  0  0  0  0
    7.6880   -1.3769    0.0000 H   0  0  0  0  0  0  0  0  0  0  0  0
    8.5488    2.0491    0.0000 H   0  0  0  0  0  0  0  0  0  0  0  0
    7.9288    2.6691    0.0000 H   0  0  0  0  0  0  0  0  0  0  0  0
    7.3088    2.0491    0.0000 H   0  0  0  0  0  0  0  0  0  0  0  0
    5.7835   -2.4962    0.0000 H   0  0  0  0  0  0  0  0  0  0  0  0
    6.5818   -2.4931    0.0000 H   0  0  0  0  0  0  0  0  0  0  0  0
    4.3719    0.7262    0.0000 H   0  0  0  0  0  0  0  0  0  0  0  0
    4.3457   -2.6691    0.0000 H   0  0  0  0  0  0  0  0  0  0  0  0
    2.8787   -0.1054    0.0000 H   0  0  0  0  0  0  0  0  0  0  0  0
    2.0000   -1.6912    0.0000 H   0  0  0  0  0  0  0  0  0  0  0  0
  1 19  1  0  0  0  0
  1 43  1  0  0  0  0
  2  3  1  0  0  0  0
  2  6  1  0  0  0  0
  2  7  1  0  0  0  0
  2 12  1  0  0  0  0
  3  4  1  0  0  0  0
  3  8  1  0  0  0  0
  3 20  1  0  0  0  0
  4  5  1  0  0  0  0
  4 11  1  0  0  0  0
  4 21  1  0  0  0  0
  5  9  1  0  0  0  0
  5 13  1  0  0  0  0
  5 22  1  0  0  0  0
  6  9  1  0  0  0  0
  6 23  1  0  0  0  0
  6 24  1  0  0  0  0
  7 10  1  0  0  0  0
  7 25  1  0  0  0  0
  7 26  1  0  0  0  0
  8 10  1  0  0  0  0
  8 27  1  0  0  0  0
  8 28  1  0  0  0  0
  9 29  1  0  0  0  0
  9 30  1  0  0  0  0
 10 31  1  0  0  0  0
 10 32  1  0  0  0  0
 11 14  1  0  0  0  0
 11 33  1  0  0  0  0
 11 34  1  0  0  0  0
 12 35  1  0  0  0  0
 12 36  1  0  0  0  0
 12 37  1  0  0  0  0
 13 15  2  0  0  0  0
 13 16  1  0  0  0  0
 14 15  1  0  0  0  0
 14 38  1  0  0  0  0
 14 39  1  0  0  0  0
 15 17  1  0  0  0  0
 16 18  2  0  0  0  0
 16 40  1  0  0  0  0
 17 19  2  0  0  0  0
 17 41  1  0  0  0  0
 18 19  1  0  0  0  0
 18 42  1  0  0  0  0
M  END
> <PUBCHEM_COMPOUND_CID>
439726

> <PUBCHEM_COMPOUND_CANONICALIZED>
1

> <PUBCHEM_CACTVS_COMPLEXITY>
352

> <PUBCHEM_CACTVS_HBOND_ACCEPTOR>
1

> <PUBCHEM_CACTVS_HBOND_DONOR>
1

> <PUBCHEM_CACTVS_ROTATABLE_BOND>
0

> <PUBCHEM_CACTVS_SUBSKEYS>
AAADceB4IAAAAAAAAAAAAAAAAAAAAYAAAAAwYMAAAAAAAGDBAAAAGgAACAAADwSAmAAyBoAAAgCAAiBCAAACAAAgIAAIiAAGCIgIJiKCERKAcAAkwBEImAeAwPAPoAABAAAQAADAAAYAACAAAAAACAAAAA==

> <PUBCHEM_IUPAC_OPENEYE_NAME>
13-methyl-6,7,8,9,11,12,14,15,16,17-decahydrocyclopenta[a]phenanthren-3-ol

> <PUBCHEM_IUPAC_CAS_NAME>
13-methyl-6,7,8,9,11,12,14,15,16,17-decahydrocyclopenta[a]phenanthren-3-ol

> <PUBCHEM_IUPAC_NAME>
13-methyl-6,7,8,9,11,12,14,15,16,17-decahydrocyclopenta[a]phenanthren-3-ol

> <PUBCHEM_IUPAC_SYSTEMATIC_NAME>
13-methyl-6,7,8,9,11,12,14,15,16,17-decahydrocyclopenta[a]phenanthren-3-ol

> <PUBCHEM_IUPAC_TRADITIONAL_NAME>
13-methyl-6,7,8,9,11,12,14,15,16,17-decahydrocyclopenta[a]phenanthren-3-ol

> <PUBCHEM_IUPAC_INCHI>
InChI=1S/C18H24O/c1-18-9-2-3-17(18)16-6-4-12-11-13(19)5-7-14(12)15(16)8-10-18/h5,7,11,15-17,19H,2-4,6,8-10H2,1H3

> <PUBCHEM_IUPAC_INCHIKEY>
HJKVPZJVBHWFCQ-UHFFFAOYSA-N

> <PUBCHEM_XLOGP3_AA>
5.6

> <PUBCHEM_EXACT_MASS>
256.182715

> <PUBCHEM_MOLECULAR_FORMULA>
C18H24O

> <PUBCHEM_MOLECULAR_WEIGHT>
256.38256

> <PUBCHEM_OPENEYE_CAN_SMILES>
CC12CCCC1C3CCC4=C(C3CC2)C=CC(=C4)O

> <PUBCHEM_OPENEYE_ISO_SMILES>
CC12CCCC1C3CCC4=C(C3CC2)C=CC(=C4)O

> <PUBCHEM_CACTVS_TPSA>
20.2

> <PUBCHEM_MONOISOTOPIC_WEIGHT>
256.182715

> <PUBCHEM_TOTAL_CHARGE>
0

> <PUBCHEM_HEAVY_ATOM_COUNT>
19

> <PUBCHEM_ATOM_DEF_STEREO_COUNT>
0

> <PUBCHEM_ATOM_UDEF_STEREO_COUNT>
4

> <PUBCHEM_BOND_DEF_STEREO_COUNT>
0

> <PUBCHEM_BOND_UDEF_STEREO_COUNT>
0

> <PUBCHEM_ISOTOPIC_ATOM_COUNT>
0

> <PUBCHEM_COMPONENT_COUNT>
1

> <PUBCHEM_CACTVS_TAUTO_COUNT>
9

> <PUBCHEM_COORDINATE_TYPE>
1
5
255

> <PUBCHEM_BONDANNOTATIONS>
13  15  8
13  16  8
15  17  8
16  18  8
17  19  8
18  19  8
2  12  3
3  20  3
4  21  3
5  22  3

$$$$

