441991
  -OEChem-07051212562D

 51 55  0     1  0  0  0  0  0999 V2000
    3.8488   -2.9277    0.0000 O   0  0  0  0  0  0  0  0  0  0  0  0
    2.0000   -2.4769    0.0000 O   0  0  0  0  0  0  0  0  0  0  0  0
    7.0358   -1.8921    0.0000 O   0  0  0  0  0  0  0  0  0  0  0  0
    7.3959   -0.1979    0.0000 O   0  0  0  0  0  0  0  0  0  0  0  0
    3.0057   -0.1502    0.0000 N   0  0  3  0  0  0  0  0  0  0  0  0
    6.0852    0.8504    0.0000 N   0  0  0  0  0  0  0  0  0  0  0  0
    3.9200   -0.3445    0.0000 C   0  0  2  0  0  0  0  0  0  0  0  0
    4.5455    0.3501    0.0000 C   0  0  2  0  0  0  0  0  0  0  0  0
    4.2089   -1.2335    0.0000 C   0  0  2  0  0  0  0  0  0  0  0  0
    4.1604    1.3857    0.0000 C   0  0  0  0  0  0  0  0  0  0  0  0
    5.1232   -1.4278    0.0000 C   0  0  0  0  0  0  0  0  0  0  0  0
    5.4598    0.1558    0.0000 C   0  0  0  0  0  0  0  0  0  0  0  0
    2.7169    0.7388    0.0000 C   0  0  0  0  0  0  0  0  0  0  0  0
    3.5834   -1.9281    0.0000 C   0  0  0  0  0  0  0  0  0  0  0  0
    4.8821    1.9337    0.0000 C   0  0  0  0  0  0  0  0  0  0  0  0
    4.5179   -2.1845    0.0000 C   0  0  2  0  0  0  0  0  0  0  0  0
    5.7486   -0.7332    0.0000 C   0  0  0  0  0  0  0  0  0  0  0  0
    2.3803   -0.8448    0.0000 C   0  0  0  0  0  0  0  0  0  0  0  0
    2.6691   -1.7338    0.0000 C   0  0  0  0  0  0  0  0  0  0  0  0
    5.7964    1.7394    0.0000 C   0  0  0  0  0  0  0  0  0  0  0  0
    5.4960   -2.3924    0.0000 C   0  0  0  0  0  0  0  0  0  0  0  0
    4.5932    2.8227    0.0000 C   0  0  0  0  0  0  0  0  0  0  0  0
    6.7267   -0.9411    0.0000 C   0  0  0  0  0  0  0  0  0  0  0  0
    6.4218    2.4340    0.0000 C   0  0  0  0  0  0  0  0  0  0  0  0
    5.2187    3.5173    0.0000 C   0  0  0  0  0  0  0  0  0  0  0  0
    6.1330    3.3230    0.0000 C   0  0  0  0  0  0  0  0  0  0  0  0
    8.0139   -2.1000    0.0000 C   0  0  0  0  0  0  0  0  0  0  0  0
    3.6574    0.4639    0.0000 H   0  0  0  0  0  0  0  0  0  0  0  0
    4.7367    1.6144    0.0000 H   0  0  0  0  0  0  0  0  0  0  0  0
    3.9192    1.9569    0.0000 H   0  0  0  0  0  0  0  0  0  0  0  0
    4.8909   -2.0027    0.0000 H   0  0  0  0  0  0  0  0  0  0  0  0
    5.6490   -1.7564    0.0000 H   0  0  0  0  0  0  0  0  0  0  0  0
    2.4837    1.3133    0.0000 H   0  0  0  0  0  0  0  0  0  0  0  0
    2.1344    0.5263    0.0000 H   0  0  0  0  0  0  0  0  0  0  0  0
    3.3512   -2.5029    0.0000 H   0  0  0  0  0  0  0  0  0  0  0  0
    4.1092   -2.2566    0.0000 H   0  0  0  0  0  0  0  0  0  0  0  0
    4.7095   -2.7742    0.0000 H   0  0  0  0  0  0  0  0  0  0  0  0
    1.9986   -0.3562    0.0000 H   0  0  0  0  0  0  0  0  0  0  0  0
    1.8329   -1.1359    0.0000 H   0  0  0  0  0  0  0  0  0  0  0  0
    6.6916    0.7215    0.0000 H   0  0  0  0  0  0  0  0  0  0  0  0
    5.3671   -2.9989    0.0000 H   0  0  0  0  0  0  0  0  0  0  0  0
    6.1025   -2.5213    0.0000 H   0  0  0  0  0  0  0  0  0  0  0  0
    5.6249   -1.7860    0.0000 H   0  0  0  0  0  0  0  0  0  0  0  0
    3.9868    2.9516    0.0000 H   0  0  0  0  0  0  0  0  0  0  0  0
    4.0403   -3.5173    0.0000 H   0  0  0  0  0  0  0  0  0  0  0  0
    7.0282    2.3051    0.0000 H   0  0  0  0  0  0  0  0  0  0  0  0
    5.0271    4.1070    0.0000 H   0  0  0  0  0  0  0  0  0  0  0  0
    6.5478    3.7837    0.0000 H   0  0  0  0  0  0  0  0  0  0  0  0
    7.8850   -2.7065    0.0000 H   0  0  0  0  0  0  0  0  0  0  0  0
    8.6204   -2.2290    0.0000 H   0  0  0  0  0  0  0  0  0  0  0  0
    8.1428   -1.4936    0.0000 H   0  0  0  0  0  0  0  0  0  0  0  0
 16  1  1  6  0  0  0
  1 45  1  0  0  0  0
  2 19  2  0  0  0  0
  3 23  1  0  0  0  0
  3 27  1  0  0  0  0
  4 23  2  0  0  0  0
  5  7  1  0  0  0  0
  5 13  1  0  0  0  0
  5 18  1  0  0  0  0
  6 12  1  0  0  0  0
  6 20  1  0  0  0  0
  6 40  1  0  0  0  0
  7  8  1  0  0  0  0
  7  9  1  0  0  0  0
  7 28  1  1  0  0  0
  8 10  1  6  0  0  0
  8 12  1  0  0  0  0
  8 15  1  0  0  0  0
  9 11  1  0  0  0  0
  9 14  1  6  0  0  0
  9 16  1  0  0  0  0
 10 13  1  0  0  0  0
 10 29  1  0  0  0  0
 10 30  1  0  0  0  0
 11 17  1  0  0  0  0
 11 31  1  0  0  0  0
 11 32  1  0  0  0  0
 12 17  2  0  0  0  0
 13 33  1  0  0  0  0
 13 34  1  0  0  0  0
 14 19  1  0  0  0  0
 14 35  1  0  0  0  0
 14 36  1  0  0  0  0
 15 20  1  0  0  0  0
 15 22  2  0  0  0  0
 16 21  1  0  0  0  0
 16 37  1  0  0  0  0
 17 23  1  0  0  0  0
 18 19  1  0  0  0  0
 18 38  1  0  0  0  0
 18 39  1  0  0  0  0
 20 24  2  0  0  0  0
 21 41  1  0  0  0  0
 21 42  1  0  0  0  0
 21 43  1  0  0  0  0
 22 25  1  0  0  0  0
 22 44  1  0  0  0  0
 24 26  1  0  0  0  0
 24 46  1  0  0  0  0
 25 26  2  0  0  0  0
 25 47  1  0  0  0  0
 26 48  1  0  0  0  0
 27 49  1  0  0  0  0
 27 50  1  0  0  0  0
 27 51  1  0  0  0  0
M  END
> <PUBCHEM_COMPOUND_CID>
441991

> <PUBCHEM_COMPOUND_CANONICALIZED>
1

> <PUBCHEM_CACTVS_COMPLEXITY>
734

> <PUBCHEM_CACTVS_HBOND_ACCEPTOR>
6

> <PUBCHEM_CACTVS_HBOND_DONOR>
2

> <PUBCHEM_CACTVS_ROTATABLE_BOND>
3

> <PUBCHEM_CACTVS_SUBSKEYS>
AAADceB7OAAAAAAAAAAAAAAAAAAAAWLAAAA8QIAAAAAAAFiBAAAAHgAQCAAADjzhmAYyyIPABgCIAqTSSACCAAAhAgAIiAGIZMgINDLA8bGEcAhmkADI6Uee/f/fgAAAAAACAAAAAAAAAAQAAAAAAAAAAA==

> <PUBCHEM_IUPAC_INCHI>
InChI=1S/C21H24N2O4/c1-12(24)20-9-13(25)11-23-8-7-21(19(20)23)15-5-3-4-6-16(15)22-17(21)14(10-20)18(26)27-2/h3-6,12,19,22,24H,7-11H2,1-2H3/t12-,19-,20-,21-/m0/s1

> <PUBCHEM_IUPAC_INCHIKEY>
CQSFDKICYDHRGT-XSGSXHBCSA-N

> <PUBCHEM_XLOGP3_AA>
1.4

> <PUBCHEM_EXACT_MASS>
368.173607

> <PUBCHEM_MOLECULAR_FORMULA>
C21H24N2O4

> <PUBCHEM_MOLECULAR_WEIGHT>
368.42626

> <PUBCHEM_OPENEYE_CAN_SMILES>
CC(C12CC(=O)CN3C1C4(CC3)C5=CC=CC=C5NC4=C(C2)C(=O)OC)O

> <PUBCHEM_OPENEYE_ISO_SMILES>
C[C@@H]([C@@]12CC(=O)CN3[C@@H]1[C@@]4(CC3)C5=CC=CC=C5NC4=C(C2)C(=O)OC)O

> <PUBCHEM_CACTVS_TPSA>
78.9

> <PUBCHEM_MONOISOTOPIC_WEIGHT>
368.173607

> <PUBCHEM_TOTAL_CHARGE>
0

> <PUBCHEM_HEAVY_ATOM_COUNT>
27

> <PUBCHEM_ATOM_DEF_STEREO_COUNT>
4

> <PUBCHEM_ATOM_UDEF_STEREO_COUNT>
0

> <PUBCHEM_BOND_DEF_STEREO_COUNT>
0

> <PUBCHEM_BOND_UDEF_STEREO_COUNT>
0

> <PUBCHEM_ISOTOPIC_ATOM_COUNT>
0

> <PUBCHEM_COMPONENT_COUNT>
1

> <PUBCHEM_CACTVS_TAUTO_COUNT>
9

> <PUBCHEM_COORDINATE_TYPE>
1
5
255

> <PUBCHEM_BONDANNOTATIONS>
16  1  6
15  20  8
15  22  8
20  24  8
22  25  8
24  26  8
25  26  8
7  28  5
8  10  6
9  14  6

$$$$

