442958
  -OEChem-07051213002D

 43 46  0     1  0  0  0  0  0999 V2000
    9.2150   -2.5845    0.0000 O   0  0  0  0  0  0  0  0  0  0  0  0
   10.4708    0.7251    0.0000 O   0  0  0  0  0  0  0  0  0  0  0  0
    3.7923    0.0240    0.0000 N   0  0  3  0  0  0  0  0  0  0  0  0
    8.7229    0.4451    0.0000 N   0  0  0  0  0  0  0  0  0  0  0  0
    6.4998    1.8263    0.0000 C   0  0  1  0  0  0  0  0  0  0  0  0
    6.2410    0.8604    0.0000 C   0  0  2  0  0  0  0  0  0  0  0  0
    3.8968    1.0185    0.0000 C   0  0  2  0  0  0  0  0  0  0  0  0
    7.9457   -0.1843    0.0000 C   0  0  1  0  0  0  0  0  0  0  0  0
    5.7632    2.8089    0.0000 C   0  0  0  0  0  0  0  0  0  0  0  0
    4.7059   -0.3828    0.0000 C   0  0  0  0  0  0  0  0  0  0  0  0
    8.3645    1.3786    0.0000 C   0  0  0  0  0  0  0  0  0  0  0  0
    3.0637    1.6437    0.0000 C   0  0  0  0  0  0  0  0  0  0  0  0
    8.0928   -1.2154    0.0000 C   0  0  0  0  0  0  0  0  0  0  0  0
    2.8474   -0.4143    0.0000 C   0  0  0  0  0  0  0  0  0  0  0  0
    2.1089    1.2274    0.0000 C   0  0  0  0  0  0  0  0  0  0  0  0
    2.0000    0.1914    0.0000 C   0  0  0  0  0  0  0  0  0  0  0  0
    9.0623   -1.5962    0.0000 C   0  0  1  0  0  0  0  0  0  0  0  0
    9.7010    0.0868    0.0000 C   0  0  0  0  0  0  0  0  0  0  0  0
    9.8718   -0.9407    0.0000 C   0  0  0  0  0  0  0  0  0  0  0  0
    6.7198    2.6474    0.0000 H   0  0  0  0  0  0  0  0  0  0  0  0
    6.0210    0.0393    0.0000 H   0  0  0  0  0  0  0  0  0  0  0  0
    3.9857    1.8638    0.0000 H   0  0  0  0  0  0  0  0  0  0  0  0
    7.2852   -0.7192    0.0000 H   0  0  0  0  0  0  0  0  0  0  0  0
    6.0810    3.3413    0.0000 H   0  0  0  0  0  0  0  0  0  0  0  0
    5.1501    2.9009    0.0000 H   0  0  0  0  0  0  0  0  0  0  0  0
    4.3682   -0.9027    0.0000 H   0  0  0  0  0  0  0  0  0  0  0  0
    5.1666   -0.7976    0.0000 H   0  0  0  0  0  0  0  0  0  0  0  0
    8.9760    1.4810    0.0000 H   0  0  0  0  0  0  0  0  0  0  0  0
    8.3861    1.9983    0.0000 H   0  0  0  0  0  0  0  0  0  0  0  0
    3.5152    2.0686    0.0000 H   0  0  0  0  0  0  0  0  0  0  0  0
    2.7223    2.1612    0.0000 H   0  0  0  0  0  0  0  0  0  0  0  0
    7.4731   -1.1967    0.0000 H   0  0  0  0  0  0  0  0  0  0  0  0
    7.9682   -1.8228    0.0000 H   0  0  0  0  0  0  0  0  0  0  0  0
    2.4058   -0.8496    0.0000 H   0  0  0  0  0  0  0  0  0  0  0  0
    3.2007   -0.9238    0.0000 H   0  0  0  0  0  0  0  0  0  0  0  0
    1.9620    1.8297    0.0000 H   0  0  0  0  0  0  0  0  0  0  0  0
    1.4903    1.1857    0.0000 H   0  0  0  0  0  0  0  0  0  0  0  0
    1.4036    0.3608    0.0000 H   0  0  0  0  0  0  0  0  0  0  0  0
    1.7311   -0.3672    0.0000 H   0  0  0  0  0  0  0  0  0  0  0  0
    9.6407   -1.8195    0.0000 H   0  0  0  0  0  0  0  0  0  0  0  0
   10.1738   -1.4822    0.0000 H   0  0  0  0  0  0  0  0  0  0  0  0
   10.4570   -0.7358    0.0000 H   0  0  0  0  0  0  0  0  0  0  0  0
    9.7929   -2.8089    0.0000 H   0  0  0  0  0  0  0  0  0  0  0  0
 17  1  1  1  0  0  0
  1 43  1  0  0  0  0
  2 18  2  0  0  0  0
  3  7  1  0  0  0  0
  3 10  1  0  0  0  0
  3 14  1  0  0  0  0
  4  8  1  0  0  0  0
  4 11  1  0  0  0  0
  4 18  1  0  0  0  0
  5  7  1  0  0  0  0
  5  9  1  0  0  0  0
  5 11  1  0  0  0  0
  5 20  1  6  0  0  0
  6  8  1  0  0  0  0
  6  9  1  0  0  0  0
  6 10  1  0  0  0  0
  6 21  1  6  0  0  0
  7 12  1  0  0  0  0
  7 22  1  6  0  0  0
  8 13  1  0  0  0  0
  8 23  1  1  0  0  0
  9 24  1  0  0  0  0
  9 25  1  0  0  0  0
 10 26  1  0  0  0  0
 10 27  1  0  0  0  0
 11 28  1  0  0  0  0
 11 29  1  0  0  0  0
 12 15  1  0  0  0  0
 12 30  1  0  0  0  0
 12 31  1  0  0  0  0
 13 17  1  0  0  0  0
 13 32  1  0  0  0  0
 13 33  1  0  0  0  0
 14 16  1  0  0  0  0
 14 34  1  0  0  0  0
 14 35  1  0  0  0  0
 15 16  1  0  0  0  0
 15 36  1  0  0  0  0
 15 37  1  0  0  0  0
 16 38  1  0  0  0  0
 16 39  1  0  0  0  0
 17 19  1  0  0  0  0
 17 40  1  0  0  0  0
 18 19  1  0  0  0  0
 19 41  1  0  0  0  0
 19 42  1  0  0  0  0
M  END
> <PUBCHEM_COMPOUND_CID>
442958

> <PUBCHEM_COMPOUND_CANONICALIZED>
1

> <PUBCHEM_CACTVS_COMPLEXITY>
386

> <PUBCHEM_CACTVS_HBOND_ACCEPTOR>
3

> <PUBCHEM_CACTVS_HBOND_DONOR>
1

> <PUBCHEM_CACTVS_ROTATABLE_BOND>
0

> <PUBCHEM_CACTVS_SUBSKEYS>
AAADceBzMAAAAAAAAAAAAAAAAAAAAAAAAAAsWLFgAAAWAACwAAAAHgAACAAADTzhgAYAAAMAAgAIAAEQEAAAAAAAAAAAAAEIAAAAEBYAwAAEQAAGJgCAAAGY2eKeAAAAAAAAAAAAAAAAAAAAAAAAAAAAAA==

> <PUBCHEM_IUPAC_INCHI>
InChI=1S/C15H24N2O2/c18-12-6-14-10-5-11(9-17(14)15(19)7-12)13-3-1-2-4-16(13)8-10/h10-14,18H,1-9H2/t10-,11+,12+,13+,14-/m1/s1

> <PUBCHEM_IUPAC_INCHIKEY>
GIQKWLHFWBBSSV-IKOXMDCHSA-N

> <PUBCHEM_XLOGP3_AA>
0.6

> <PUBCHEM_EXACT_MASS>
264.183778

> <PUBCHEM_MOLECULAR_FORMULA>
C15H24N2O2

> <PUBCHEM_MOLECULAR_WEIGHT>
264.36326

> <PUBCHEM_OPENEYE_CAN_SMILES>
C1CCN2CC3CC(C2C1)CN4C3CC(CC4=O)O

> <PUBCHEM_OPENEYE_ISO_SMILES>
C1CCN2C[C@H]3C[C@H]([C@@H]2C1)CN4[C@@H]3C[C@@H](CC4=O)O

> <PUBCHEM_CACTVS_TPSA>
43.8

> <PUBCHEM_MONOISOTOPIC_WEIGHT>
264.183778

> <PUBCHEM_TOTAL_CHARGE>
0

> <PUBCHEM_HEAVY_ATOM_COUNT>
19

> <PUBCHEM_ATOM_DEF_STEREO_COUNT>
5

> <PUBCHEM_ATOM_UDEF_STEREO_COUNT>
0

> <PUBCHEM_BOND_DEF_STEREO_COUNT>
0

> <PUBCHEM_BOND_UDEF_STEREO_COUNT>
0

> <PUBCHEM_ISOTOPIC_ATOM_COUNT>
0

> <PUBCHEM_COMPONENT_COUNT>
1

> <PUBCHEM_CACTVS_TAUTO_COUNT>
2

> <PUBCHEM_COORDINATE_TYPE>
1
5
255

> <PUBCHEM_BONDANNOTATIONS>
17  1  5
5  20  6
6  21  6
7  22  6
8  23  5

$$$$

