   Color/Form

     * Monoclinic needles (lamellar twining on 001) from water
     * White powder

   from [1]HSDB

   Taste
        Bitter tasting alkaloid
   from [2]HSDB

   Boiling Point
        Sublimes 290-295 deg C
   from [3]HSDB

   Melting Point
        357 deg C
   from [4]HSDB

   Dissociation Constants
        pKa = 9.90
   from [5]HSDB

   Octanol/Water Partition Coefficient
        log Kow = -0.78
   from [6]HSDB

   Solubilities

     * One gram dissolves in about 200 mL water, 150 mL boiling water, 220
       mL 95% alcohol; soluble in fixed alkali hydroxides, concentrated
       acids, in about 22 parts of 20% aqueous tribasic sodium phosphate
       solution; moderately soluble in ammonia. Almost insoluble in
       benzene, ether, chloroform, carbon tetrachloride.
     * Slightly soluble in water, ethanol; insoluble in ethyl ether,
       benzene, carbon tetrachloride, chloroform, ligroin
     * Moderately soluble in ammonia
     * In water, 330 mg/L at 25 deg C

   from [7]HSDB

   Spectral Properties

     * UV spectra: aqueous acid - 272 nm (A1/1 = 536a); aqueous alkali -
       274 nm
     * MASS: 25367 (NIST/EPA/MSDC Mass Spectral Database, 1990 version)
     * IR: 7164 (Sadtler Research Laboratories IR Prism)
     * 1H NMR: 17339 (Sadtler Research Laboratories spectral collection)
     * UV: 2-104 (Phillip et al., Organic Electronic Spectral Data, John
       Wiley & Sons)

   from [8]HSDB

   Vapor Pressure
        8.9X10-10 mm Hg at 25 deg C (est)
   from [9]HSDB

   Other Chemical/Physical Properties

     * Henry's Law constant = 1.6X10-11 atm-cu m/mol at 25 deg C (est)
     * Hydroxyl radical reaction rate constant = 1.9X10-11 cu cm/molec-sec
       at 25 deg C (est)
     * Forms salts which are decomposed by water, and compounds with bases
       which are more stable.

   from [10]HSDB

   Computed Properties
   Molecular Weight                  180.16402 [g/mol]
   Molecular Formula                 C[7]H[8]N[4]O[2]
   XLogP3                            -0.8
   H-Bond Donor                      1
   H-Bond Acceptor                   3
   Rotatable Bond Count              0
   Tautomer Count                    3
   Exact Mass                        180.064726
   MonoIsotopic Mass                 180.064726
   Topological Polar Surface Area    67.2
   Heavy Atom Count                  13
   Formal Charge                     0
   Complexity                        267
   Isotope Atom Count                0
   Defined Atom Stereocenter Count   0
   Undefined Atom Stereocenter Count 0
   Defined Bond Stereocenter Count   0
   Undefined Bond Stereocenter Count 0
   Covalently-Bonded Unit Count      1
   Feature 3D Acceptor Count         2
   Feature 3D Donor Count            1
   Feature 3D Cation Count           1
   Feature 3D Ring Count             2
   Effective Rotor Count             0
   Conformer Sampling RMSD           0.4
   CID Conformer Count               [11]1

References

   1. http://toxnet.nlm.nih.gov/cgi-bin/sis/search/r?dbs+hsdb:@term+@rn+@rel+83-67-0
   2. http://toxnet.nlm.nih.gov/cgi-bin/sis/search/r?dbs+hsdb:@term+@rn+@rel+83-67-0
   3. http://toxnet.nlm.nih.gov/cgi-bin/sis/search/r?dbs+hsdb:@term+@rn+@rel+83-67-0
   4. http://toxnet.nlm.nih.gov/cgi-bin/sis/search/r?dbs+hsdb:@term+@rn+@rel+83-67-0
   5. http://toxnet.nlm.nih.gov/cgi-bin/sis/search/r?dbs+hsdb:@term+@rn+@rel+83-67-0
   6. http://toxnet.nlm.nih.gov/cgi-bin/sis/search/r?dbs+hsdb:@term+@rn+@rel+83-67-0
   7. http://toxnet.nlm.nih.gov/cgi-bin/sis/search/r?dbs+hsdb:@term+@rn+@rel+83-67-0
   8. http://toxnet.nlm.nih.gov/cgi-bin/sis/search/r?dbs+hsdb:@term+@rn+@rel+83-67-0
   9. http://toxnet.nlm.nih.gov/cgi-bin/sis/search/r?dbs+hsdb:@term+@rn+@rel+83-67-0
  10. http://toxnet.nlm.nih.gov/cgi-bin/sis/search/r?dbs+hsdb:@term+@rn+@rel+83-67-0
  11. http://pubchem.ncbi.nlm.nih.gov/vw3d/vw3d.cgi?cid=5429
