11953988
  -OEChem-07051213022D

 88 92  0     1  0  0  0  0  0999 V2000
    8.1282   -1.7500    0.0000 O   0  0  0  0  0  0  0  0  0  0  0  0
    8.1282   -0.7500    0.0000 O   0  0  0  0  0  0  0  0  0  0  0  0
    5.5301    0.7500    0.0000 O   0  0  0  0  0  0  0  0  0  0  0  0
    4.1714    4.6939    0.0000 O   0  0  0  0  0  0  0  0  0  0  0  0
    4.3221    4.1897    0.0000 O   0  0  0  0  0  0  0  0  0  0  0  0
    6.5301    1.7500    0.0000 O   0  0  0  0  0  0  0  0  0  0  0  0
    2.0000    3.7742    0.0000 O   0  0  0  0  0  0  0  0  0  0  0  0
   10.7263    3.7500    0.0000 O   0  0  0  0  0  0  0  0  0  0  0  0
    7.2622   -1.2500    0.0000 C   0  0  1  0  0  0  0  0  0  0  0  0
    6.3961   -0.7500    0.0000 C   0  0  0  0  0  0  0  0  0  0  0  0
    6.3961    0.2500    0.0000 C   0  0  2  0  0  0  0  0  0  0  0  0
    8.1282   -2.7500    0.0000 C   0  0  1  0  0  0  0  0  0  0  0  0
    4.6641    3.2500    0.0000 C   0  0  2  0  0  0  0  0  0  0  0  0
    7.2622    0.7500    0.0000 C   0  0  0  0  0  0  0  0  0  0  0  0
    8.1282    0.2500    0.0000 C   0  0  1  0  0  0  0  0  0  0  0  0
    7.2622   -3.2500    0.0000 C   0  0  2  0  0  0  0  0  0  0  0  0
    4.6641    2.2500    0.0000 C   0  0  2  0  0  0  0  0  0  0  0  0
    8.9942   -3.2500    0.0000 C   0  0  3  0  0  0  0  0  0  0  0  0
    3.7702    3.7847    0.0000 C   0  0  1  0  0  0  0  0  0  0  0  0
    6.3961   -1.7500    0.0000 C   0  0  0  0  0  0  0  0  0  0  0  0
    6.3961   -2.7500    0.0000 C   0  0  0  0  0  0  0  0  0  0  0  0
    5.5301    3.7500    0.0000 C   0  0  0  0  0  0  0  0  0  0  0  0
    8.9942    0.7500    0.0000 C   0  0  0  0  0  0  0  0  0  0  0  0
    5.5301    1.7500    0.0000 C   0  0  0  0  0  0  0  0  0  0  0  0
    5.1650    4.6743    0.0000 C   0  0  0  0  0  0  0  0  0  0  0  0
    3.7702    1.7153    0.0000 C   0  0  0  0  0  0  0  0  0  0  0  0
    8.9942   -4.2500    0.0000 C   0  0  0  0  0  0  0  0  0  0  0  0
    2.8641    3.2708    0.0000 C   0  0  0  0  0  0  0  0  0  0  0  0
    7.2622   -4.2500    0.0000 C   0  0  0  0  0  0  0  0  0  0  0  0
    2.8641    2.2292    0.0000 C   0  0  0  0  0  0  0  0  0  0  0  0
    9.8602   -2.7500    0.0000 C   0  0  0  0  0  0  0  0  0  0  0  0
    8.9942    1.7500    0.0000 C   0  0  0  0  0  0  0  0  0  0  0  0
    6.3961    3.2500    0.0000 C   0  0  0  0  0  0  0  0  0  0  0  0
    9.8602   -4.7500    0.0000 C   0  0  0  0  0  0  0  0  0  0  0  0
    9.8602    2.2500    0.0000 C   0  0  0  0  0  0  0  0  0  0  0  0
    2.0000    1.7258    0.0000 C   0  0  0  0  0  0  0  0  0  0  0  0
    9.8602    3.2500    0.0000 C   0  0  2  0  0  0  0  0  0  0  0  0
    8.9942    3.7500    0.0000 C   0  0  2  0  0  0  0  0  0  0  0  0
    7.2622    3.7500    0.0000 C   0  0  0  0  0  0  0  0  0  0  0  0
    8.1282    3.2500    0.0000 C   0  0  0  0  0  0  0  0  0  0  0  0
   10.7263    1.7500    0.0000 C   0  0  0  0  0  0  0  0  0  0  0  0
    8.9942    4.7500    0.0000 C   0  0  0  0  0  0  0  0  0  0  0  0
    5.7856   -0.6423    0.0000 H   0  0  0  0  0  0  0  0  0  0  0  0
    6.1841   -1.3326    0.0000 H   0  0  0  0  0  0  0  0  0  0  0  0
    5.6600   -0.1750    0.0000 H   0  0  0  0  0  0  0  0  0  0  0  0
    8.6651   -2.4400    0.0000 H   0  0  0  0  0  0  0  0  0  0  0  0
    7.6607    1.2250    0.0000 H   0  0  0  0  0  0  0  0  0  0  0  0
    6.8636    1.2250    0.0000 H   0  0  0  0  0  0  0  0  0  0  0  0
    8.8643   -0.1750    0.0000 H   0  0  0  0  0  0  0  0  0  0  0  0
    6.7252   -3.5600    0.0000 H   0  0  0  0  0  0  0  0  0  0  0  0
    4.6641    1.4000    0.0000 H   0  0  0  0  0  0  0  0  0  0  0  0
    8.9942   -2.4000    0.0000 H   0  0  0  0  0  0  0  0  0  0  0  0
    3.1397    4.3548    0.0000 H   0  0  0  0  0  0  0  0  0  0  0  0
    5.8592   -1.4400    0.0000 H   0  0  0  0  0  0  0  0  0  0  0  0
    5.8592   -3.0600    0.0000 H   0  0  0  0  0  0  0  0  0  0  0  0
    9.2063    0.1674    0.0000 H   0  0  0  0  0  0  0  0  0  0  0  0
    9.6048    0.8577    0.0000 H   0  0  0  0  0  0  0  0  0  0  0  0
    5.7666    4.8242    0.0000 H   0  0  0  0  0  0  0  0  0  0  0  0
    5.0956    5.2904    0.0000 H   0  0  0  0  0  0  0  0  0  0  0  0
    3.7773    1.0954    0.0000 H   0  0  0  0  0  0  0  0  0  0  0  0
    8.3836   -4.1423    0.0000 H   0  0  0  0  0  0  0  0  0  0  0  0
    8.7822   -4.8326    0.0000 H   0  0  0  0  0  0  0  0  0  0  0  0
    6.6422   -4.2500    0.0000 H   0  0  0  0  0  0  0  0  0  0  0  0
    7.2622   -4.8700    0.0000 H   0  0  0  0  0  0  0  0  0  0  0  0
    7.8822   -4.2500    0.0000 H   0  0  0  0  0  0  0  0  0  0  0  0
   10.1703   -3.2869    0.0000 H   0  0  0  0  0  0  0  0  0  0  0  0
   10.3972   -2.4400    0.0000 H   0  0  0  0  0  0  0  0  0  0  0  0
    9.5502   -2.2131    0.0000 H   0  0  0  0  0  0  0  0  0  0  0  0
    3.7395    4.4018    0.0000 H   0  0  0  0  0  0  0  0  0  0  0  0
    8.4573    2.0600    0.0000 H   0  0  0  0  0  0  0  0  0  0  0  0
    6.7062    2.7131    0.0000 H   0  0  0  0  0  0  0  0  0  0  0  0
    9.5502   -5.2869    0.0000 H   0  0  0  0  0  0  0  0  0  0  0  0
   10.3972   -5.0600    0.0000 H   0  0  0  0  0  0  0  0  0  0  0  0
   10.1703   -4.2131    0.0000 H   0  0  0  0  0  0  0  0  0  0  0  0
    1.6879    2.2616    0.0000 H   0  0  0  0  0  0  0  0  0  0  0  0
    1.4643    1.4138    0.0000 H   0  0  0  0  0  0  0  0  0  0  0  0
    2.3121    1.1901    0.0000 H   0  0  0  0  0  0  0  0  0  0  0  0
   10.3972    2.9400    0.0000 H   0  0  0  0  0  0  0  0  0  0  0  0
    8.4573    4.0600    0.0000 H   0  0  0  0  0  0  0  0  0  0  0  0
    7.2622    4.3700    0.0000 H   0  0  0  0  0  0  0  0  0  0  0  0
    8.1282    2.6300    0.0000 H   0  0  0  0  0  0  0  0  0  0  0  0
   10.4163    1.2131    0.0000 H   0  0  0  0  0  0  0  0  0  0  0  0
   11.2632    1.4400    0.0000 H   0  0  0  0  0  0  0  0  0  0  0  0
   11.0363    2.2869    0.0000 H   0  0  0  0  0  0  0  0  0  0  0  0
    9.6142    4.7500    0.0000 H   0  0  0  0  0  0  0  0  0  0  0  0
    8.9942    5.3700    0.0000 H   0  0  0  0  0  0  0  0  0  0  0  0
    8.3742    4.7500    0.0000 H   0  0  0  0  0  0  0  0  0  0  0  0
   11.2632    3.4400    0.0000 H   0  0  0  0  0  0  0  0  0  0  0  0
  9  1  1  6  0  0  0
  1 12  1  0  0  0  0
  2  9  1  0  0  0  0
  2 15  1  0  0  0  0
  3 11  1  0  0  0  0
  3 24  1  0  0  0  0
  4 19  1  0  0  0  0
  4 25  1  0  0  0  0
 13  5  1  6  0  0  0
  5 69  1  0  0  0  0
  6 24  2  0  0  0  0
  7 28  2  0  0  0  0
 37  8  1  6  0  0  0
  8 88  1  0  0  0  0
  9 10  1  0  0  0  0
  9 20  1  0  0  0  0
 10 11  1  0  0  0  0
 10 43  1  0  0  0  0
 10 44  1  0  0  0  0
 11 14  1  0  0  0  0
 11 45  1  6  0  0  0
 12 16  1  0  0  0  0
 12 18  1  6  0  0  0
 12 46  1  0  0  0  0
 13 17  1  0  0  0  0
 13 19  1  0  0  0  0
 13 22  1  0  0  0  0
 14 15  1  0  0  0  0
 14 47  1  0  0  0  0
 14 48  1  0  0  0  0
 15 23  1  0  0  0  0
 15 49  1  6  0  0  0
 16 21  1  0  0  0  0
 16 29  1  1  0  0  0
 16 50  1  0  0  0  0
 17 24  1  0  0  0  0
 17 26  1  0  0  0  0
 17 51  1  1  0  0  0
 18 27  1  0  0  0  0
 18 31  1  0  0  0  0
 18 52  1  0  0  0  0
 19 28  1  0  0  0  0
 19 53  1  6  0  0  0
 20 21  2  0  0  0  0
 20 54  1  0  0  0  0
 21 55  1  0  0  0  0
 22 25  1  0  0  0  0
 22 33  2  0  0  0  0
 23 32  1  0  0  0  0
 23 56  1  0  0  0  0
 23 57  1  0  0  0  0
 25 58  1  0  0  0  0
 25 59  1  0  0  0  0
 26 30  2  0  0  0  0
 26 60  1  0  0  0  0
 27 34  1  0  0  0  0
 27 61  1  0  0  0  0
 27 62  1  0  0  0  0
 28 30  1  0  0  0  0
 29 63  1  0  0  0  0
 29 64  1  0  0  0  0
 29 65  1  0  0  0  0
 30 36  1  0  0  0  0
 31 66  1  0  0  0  0
 31 67  1  0  0  0  0
 31 68  1  0  0  0  0
 32 35  2  0  0  0  0
 32 70  1  0  0  0  0
 33 39  1  0  0  0  0
 33 71  1  0  0  0  0
 34 72  1  0  0  0  0
 34 73  1  0  0  0  0
 34 74  1  0  0  0  0
 35 37  1  0  0  0  0
 35 41  1  0  0  0  0
 36 75  1  0  0  0  0
 36 76  1  0  0  0  0
 36 77  1  0  0  0  0
 37 38  1  0  0  0  0
 37 78  1  0  0  0  0
 38 40  1  0  0  0  0
 38 42  1  6  0  0  0
 38 79  1  0  0  0  0
 39 40  2  0  0  0  0
 39 80  1  0  0  0  0
 40 81  1  0  0  0  0
 41 82  1  0  0  0  0
 41 83  1  0  0  0  0
 41 84  1  0  0  0  0
 42 85  1  0  0  0  0
 42 86  1  0  0  0  0
 42 87  1  0  0  0  0
M  END
> <PUBCHEM_COMPOUND_CID>
11953988

> <PUBCHEM_COMPOUND_CANONICALIZED>
1

> <PUBCHEM_CACTVS_COMPLEXITY>
1230

> <PUBCHEM_CACTVS_HBOND_ACCEPTOR>
8

> <PUBCHEM_CACTVS_HBOND_DONOR>
2

> <PUBCHEM_CACTVS_ROTATABLE_BOND>
2

> <PUBCHEM_CACTVS_SUBSKEYS>
AAADcfB8PAAAAAAAAAAAAAAAAAAAASAAAAAkQIAAAAAAAEAAAAAAGgAACAAADVSggAICCAAABgCIAqDSCAIAAAAgAAAICAFAAEgZFBYAIQQiUAAF4AAPsYPK7uyugAAAAAAAAAAAAAAAAAAAAAAAAAAAAA==

> <PUBCHEM_IUPAC_INCHI>
InChI=1S/C34H46O8/c1-7-19(2)30-22(5)13-14-33(42-30)17-26-16-25(41-33)12-11-21(4)28(35)20(3)9-8-10-24-18-39-31-29(36)23(6)15-27(32(37)40-26)34(24,31)38/h8-11,13-15,19-20,22,25-28,30-31,35,38H,7,12,16-18H2,1-6H3/b9-8+,21-11+,24-10+/t19?,20-,22-,25+,26-,27-,28-,30+,31+,33+,34+/m0/s1

> <PUBCHEM_IUPAC_INCHIKEY>
ZSPNNRIPLTXTIF-ZJHNFQRCSA-N

> <PUBCHEM_XLOGP3_AA>
3.8

> <PUBCHEM_EXACT_MASS>
582.319268

> <PUBCHEM_MOLECULAR_FORMULA>
C34H46O8

> <PUBCHEM_MOLECULAR_WEIGHT>
582.72424

> <PUBCHEM_OPENEYE_CAN_SMILES>
CCC(C)C1C(C=CC2(O1)CC3CC(O2)CC=C(C(C(C=CC=C4COC5C4(C(C=C(C5=O)C)C(=O)O3)O)C)O)C)C

> <PUBCHEM_OPENEYE_ISO_SMILES>
CCC(C)[C@@H]1[C@H](C=C[C@@]2(O1)C[C@@H]3C[C@H](O2)C/C=C(/[C@H]([C@H](/C=C/C=C/4\CO[C@H]5[C@@]4([C@@H](C=C(C5=O)C)C(=O)O3)O)C)O)\C)C

> <PUBCHEM_CACTVS_TPSA>
112

> <PUBCHEM_MONOISOTOPIC_WEIGHT>
582.319268

> <PUBCHEM_TOTAL_CHARGE>
0

> <PUBCHEM_HEAVY_ATOM_COUNT>
42

> <PUBCHEM_ATOM_DEF_STEREO_COUNT>
10

> <PUBCHEM_ATOM_UDEF_STEREO_COUNT>
1

> <PUBCHEM_BOND_DEF_STEREO_COUNT>
3

> <PUBCHEM_BOND_UDEF_STEREO_COUNT>
0

> <PUBCHEM_ISOTOPIC_ATOM_COUNT>
0

> <PUBCHEM_COMPONENT_COUNT>
1

> <PUBCHEM_CACTVS_TAUTO_COUNT>
7

> <PUBCHEM_COORDINATE_TYPE>
1
5
255

> <PUBCHEM_BONDANNOTATIONS>
9  1  6
11  45  6
12  18  6
15  49  6
16  29  5
17  51  5
18  52  3
19  53  6
38  42  6
13  5  6
37  8  6

$$$$

