5280491
  -OEChem-07051212462D

 50 53  0     1  0  0  0  0  0999 V2000
    7.5587   -2.5301    0.0000 O   0  0  0  0  0  0  0  0  0  0  0  0
    6.2760   -1.3662    0.0000 O   0  0  0  0  0  0  0  0  0  0  0  0
    8.7326   -2.3698    0.0000 O   0  0  0  0  0  0  0  0  0  0  0  0
    6.9654    2.0780    0.0000 N   0  0  3  0  0  0  0  0  0  0  0  0
    4.5124    0.9605    0.0000 N   0  0  0  0  0  0  0  0  0  0  0  0
    6.2962    1.3348    0.0000 C   0  0  1  0  0  0  0  0  0  0  0  0
    6.6028    0.3393    0.0000 C   0  0  0  0  0  0  0  0  0  0  0  0
    7.6200    0.1149    0.0000 C   0  0  1  0  0  0  0  0  0  0  0  0
    5.3181    1.5427    0.0000 C   0  0  0  0  0  0  0  0  0  0  0  0
    7.9875    1.8771    0.0000 C   0  0  0  0  0  0  0  0  0  0  0  0
    6.6564    3.0290    0.0000 C   0  0  0  0  0  0  0  0  0  0  0  0
    8.3170    0.8890    0.0000 C   0  0  0  0  0  0  0  0  0  0  0  0
    5.0091    2.4938    0.0000 C   0  0  0  0  0  0  0  0  0  0  0  0
    5.6782    3.2369    0.0000 C   0  0  0  0  0  0  0  0  0  0  0  0
    7.9253   -0.8373    0.0000 C   0  0  3  0  0  0  0  0  0  0  0  0
    4.0150    2.4912    0.0000 C   0  0  0  0  0  0  0  0  0  0  0  0
    3.7086    1.5455    0.0000 C   0  0  0  0  0  0  0  0  0  0  0  0
    9.2959    0.6848    0.0000 C   0  0  0  0  0  0  0  0  0  0  0  0
    7.2533   -1.5779    0.0000 C   0  0  0  0  0  0  0  0  0  0  0  0
    8.7713   -1.3705    0.0000 C   0  0  0  0  0  0  0  0  0  0  0  0
    3.3334    3.2707    0.0000 C   0  0  0  0  0  0  0  0  0  0  0  0
    2.6994    1.3138    0.0000 C   0  0  0  0  0  0  0  0  0  0  0  0
    9.9146   -0.1008    0.0000 C   0  0  0  0  0  0  0  0  0  0  0  0
    2.3191    3.0624    0.0000 C   0  0  0  0  0  0  0  0  0  0  0  0
    2.0000    2.0773    0.0000 C   0  0  0  0  0  0  0  0  0  0  0  0
    6.8867   -3.2707    0.0000 C   0  0  0  0  0  0  0  0  0  0  0  0
    5.7226    0.7075    0.0000 H   0  0  0  0  0  0  0  0  0  0  0  0
    5.9878    0.2609    0.0000 H   0  0  0  0  0  0  0  0  0  0  0  0
    6.5748   -0.2800    0.0000 H   0  0  0  0  0  0  0  0  0  0  0  0
    7.2025   -0.3434    0.0000 H   0  0  0  0  0  0  0  0  0  0  0  0
    8.6005    1.9697    0.0000 H   0  0  0  0  0  0  0  0  0  0  0  0
    8.0011    2.4970    0.0000 H   0  0  0  0  0  0  0  0  0  0  0  0
    7.2703    3.1153    0.0000 H   0  0  0  0  0  0  0  0  0  0  0  0
    6.6780    3.6486    0.0000 H   0  0  0  0  0  0  0  0  0  0  0  0
    5.9105    3.8118    0.0000 H   0  0  0  0  0  0  0  0  0  0  0  0
    5.1524    3.5655    0.0000 H   0  0  0  0  0  0  0  0  0  0  0  0
    8.4154   -0.4575    0.0000 H   0  0  0  0  0  0  0  0  0  0  0  0
    4.5113    0.3405    0.0000 H   0  0  0  0  0  0  0  0  0  0  0  0
    9.7090    1.1472    0.0000 H   0  0  0  0  0  0  0  0  0  0  0  0
    9.3199   -1.0816    0.0000 H   0  0  0  0  0  0  0  0  0  0  0  0
    3.5313    3.8583    0.0000 H   0  0  0  0  0  0  0  0  0  0  0  0
    2.5152    0.7218    0.0000 H   0  0  0  0  0  0  0  0  0  0  0  0
    9.4275   -0.4844    0.0000 H   0  0  0  0  0  0  0  0  0  0  0  0
   10.2982   -0.5879    0.0000 H   0  0  0  0  0  0  0  0  0  0  0  0
   10.4017    0.2828    0.0000 H   0  0  0  0  0  0  0  0  0  0  0  0
    1.9056    3.5243    0.0000 H   0  0  0  0  0  0  0  0  0  0  0  0
    1.3942    1.9455    0.0000 H   0  0  0  0  0  0  0  0  0  0  0  0
    6.4276   -2.8541    0.0000 H   0  0  0  0  0  0  0  0  0  0  0  0
    6.4701   -3.7298    0.0000 H   0  0  0  0  0  0  0  0  0  0  0  0
    7.3458   -3.6873    0.0000 H   0  0  0  0  0  0  0  0  0  0  0  0
  1 19  1  0  0  0  0
  1 26  1  0  0  0  0
  2 19  2  0  0  0  0
  3 20  2  0  0  0  0
  4  6  1  0  0  0  0
  4 10  1  0  0  0  0
  4 11  1  0  0  0  0
  5  9  1  0  0  0  0
  5 17  1  0  0  0  0
  5 38  1  0  0  0  0
  6  7  1  0  0  0  0
  6  9  1  0  0  0  0
  6 27  1  6  0  0  0
  7  8  1  0  0  0  0
  7 28  1  0  0  0  0
  7 29  1  0  0  0  0
  8 12  1  0  0  0  0
  8 15  1  1  0  0  0
  8 30  1  0  0  0  0
  9 13  2  0  0  0  0
 10 12  1  0  0  0  0
 10 31  1  0  0  0  0
 10 32  1  0  0  0  0
 11 14  1  0  0  0  0
 11 33  1  0  0  0  0
 11 34  1  0  0  0  0
 12 18  2  0  0  0  0
 13 14  1  0  0  0  0
 13 16  1  0  0  0  0
 14 35  1  0  0  0  0
 14 36  1  0  0  0  0
 15 19  1  0  0  0  0
 15 20  1  0  0  0  0
 15 37  1  0  0  0  0
 16 17  1  0  0  0  0
 16 21  2  0  0  0  0
 17 22  2  0  0  0  0
 18 23  1  0  0  0  0
 18 39  1  0  0  0  0
 20 40  1  0  0  0  0
 21 24  1  0  0  0  0
 21 41  1  0  0  0  0
 22 25  1  0  0  0  0
 22 42  1  0  0  0  0
 23 43  1  0  0  0  0
 23 44  1  0  0  0  0
 23 45  1  0  0  0  0
 24 25  2  0  0  0  0
 24 46  1  0  0  0  0
 25 47  1  0  0  0  0
 26 48  1  0  0  0  0
 26 49  1  0  0  0  0
 26 50  1  0  0  0  0
M  END
> <PUBCHEM_COMPOUND_CID>
5280491

> <PUBCHEM_COMPOUND_CANONICALIZED>
1

> <PUBCHEM_CACTVS_COMPLEXITY>
590

> <PUBCHEM_CACTVS_HBOND_ACCEPTOR>
4

> <PUBCHEM_CACTVS_HBOND_DONOR>
1

> <PUBCHEM_CACTVS_ROTATABLE_BOND>
4

> <PUBCHEM_CACTVS_SUBSKEYS>
AAADceB7MAAAAAAAAAAAAAAAAAAAAWAAAAA8WIAAAAAAAFix8AAAHgAQAAAADSjhngYyyPPJlACoAyzyzACCgCAhAiAImSE4ZJgIYPbIkZGUIAhksADIyAeY2eOegAAAAAACAAAAAAAAAAQAAAAAAAAAAA==

> <PUBCHEM_IUPAC_OPENEYE_NAME>
methyl 2-[(2R,3E,12bS)-3-ethylidene-2,4,6,7,12,12b-hexahydro-1H-indolo[2,3-a]quinolizin-2-yl]-3-oxo-propanoate

> <PUBCHEM_IUPAC_CAS_NAME>
2-[(2R,3E,12bS)-3-ethylidene-2,4,6,7,12,12b-hexahydro-1H-indolo[2,3-a]quinolizin-2-yl]-3-oxopropanoic acid methyl ester

> <PUBCHEM_IUPAC_NAME>
methyl 2-[(2R,3E,12bS)-3-ethylidene-2,4,6,7,12,12b-hexahydro-1H-indolo[2,3-a]quinolizin-2-yl]-3-oxopropanoate

> <PUBCHEM_IUPAC_SYSTEMATIC_NAME>
methyl 2-[(2R,3E,12bS)-3-ethylidene-2,4,6,7,12,12b-hexahydro-1H-indolo[2,3-a]quinolizin-2-yl]-3-oxidanylidene-propanoate

> <PUBCHEM_IUPAC_TRADITIONAL_NAME>
2-[(2R,3E,12bS)-3-ethylidene-2,4,6,7,12,12b-hexahydro-1H-pyrido[2,1-a]$b-carbolin-2-yl]-3-keto-propionic acid methyl ester

> <PUBCHEM_IUPAC_INCHI>
InChI=1S/C21H24N2O3/c1-3-13-11-23-9-8-15-14-6-4-5-7-18(14)22-20(15)19(23)10-16(13)17(12-24)21(25)26-2/h3-7,12,16-17,19,22H,8-11H2,1-2H3/b13-3-/t16-,17?,19-/m0/s1

> <PUBCHEM_IUPAC_INCHIKEY>
AUOFTPXWUVYOOQ-VJBMQPMPSA-N

> <PUBCHEM_XLOGP3_AA>
2.2

> <PUBCHEM_EXACT_MASS>
352.178693

> <PUBCHEM_MOLECULAR_FORMULA>
C21H24N2O3

> <PUBCHEM_MOLECULAR_WEIGHT>
352.42686

> <PUBCHEM_OPENEYE_CAN_SMILES>
CC=C1CN2CCC3=C(C2CC1C(C=O)C(=O)OC)NC4=CC=CC=C34

> <PUBCHEM_OPENEYE_ISO_SMILES>
C/C=C\1/CN2CCC3=C([C@@H]2C[C@@H]1C(C=O)C(=O)OC)NC4=CC=CC=C34

> <PUBCHEM_CACTVS_TPSA>
62.4

> <PUBCHEM_MONOISOTOPIC_WEIGHT>
352.178693

> <PUBCHEM_TOTAL_CHARGE>
0

> <PUBCHEM_HEAVY_ATOM_COUNT>
26

> <PUBCHEM_ATOM_DEF_STEREO_COUNT>
2

> <PUBCHEM_ATOM_UDEF_STEREO_COUNT>
1

> <PUBCHEM_BOND_DEF_STEREO_COUNT>
1

> <PUBCHEM_BOND_UDEF_STEREO_COUNT>
0

> <PUBCHEM_ISOTOPIC_ATOM_COUNT>
0

> <PUBCHEM_COMPONENT_COUNT>
1

> <PUBCHEM_CACTVS_TAUTO_COUNT>
3

> <PUBCHEM_COORDINATE_TYPE>
1
5
255

> <PUBCHEM_BONDANNOTATIONS>
13  16  8
15  20  3
16  17  8
16  21  8
17  22  8
21  24  8
22  25  8
24  25  8
5  17  8
5  9  8
6  27  6
8  15  5
9  13  8

$$$$

