   Color/Form
        COLORLESS TO YELLOW LIQUID
   from [1]HSDB

   Odor
        PUNGENT AROMATIC ODOR
   from [2]HSDB

   Boiling Point
        173-174 DEG C @ 760 MM HG
   from [3]HSDB

   Density/Specific Gravity
        1.065-1.070 @ 25 DEG C/4 DEG C
   from [4]HSDB

   Dissociation Constants
        pKa= 8.7 /From table/
   from [5]HSDB

   Solubilities
        IMMISCIBLE WITH WATER; MISCIBLE WITH MOST ORG SOLVENTS
   from [6]HSDB

   Spectral Properties
        INDEX OF REFRACTION: 1.4675-1.4800 @ 25 DEG C/D
   from [7]HSDB

   Computed Properties
   Molecular Weight                  144.59876 [g/mol]
   Molecular Formula                 C[7]H[9]ClO
   XLogP3-AA                         1.5
   H-Bond Donor                      1
   H-Bond Acceptor                   1
   Rotatable Bond Count              3
   Exact Mass                        144.034193
   MonoIsotopic Mass                 144.034193
   Topological Polar Surface Area    20.2
   Heavy Atom Count                  9
   Formal Charge                     0
   Complexity                        154
   Isotope Atom Count                0
   Defined Atom Stereocenter Count   0
   Undefined Atom Stereocenter Count 1
   Defined Bond Stereocenter Count   1
   Undefined Bond Stereocenter Count 0
   Covalently-Bonded Unit Count      1
   Feature 3D Acceptor Count         1
   Feature 3D Donor Count            1
   Feature 3D Hydrophobe Count       2
   Effective Rotor Count             2
   Conformer Sampling RMSD           0.4
   CID Conformer Count               [8]10

References

   1. http://toxnet.nlm.nih.gov/cgi-bin/sis/search/r?dbs+hsdb:@term+@rn+@rel+113-18-8
   2. http://toxnet.nlm.nih.gov/cgi-bin/sis/search/r?dbs+hsdb:@term+@rn+@rel+113-18-8
   3. http://toxnet.nlm.nih.gov/cgi-bin/sis/search/r?dbs+hsdb:@term+@rn+@rel+113-18-8
   4. http://toxnet.nlm.nih.gov/cgi-bin/sis/search/r?dbs+hsdb:@term+@rn+@rel+113-18-8
   5. http://toxnet.nlm.nih.gov/cgi-bin/sis/search/r?dbs+hsdb:@term+@rn+@rel+113-18-8
   6. http://toxnet.nlm.nih.gov/cgi-bin/sis/search/r?dbs+hsdb:@term+@rn+@rel+113-18-8
   7. http://toxnet.nlm.nih.gov/cgi-bin/sis/search/r?dbs+hsdb:@term+@rn+@rel+113-18-8
   8. http://pubchem.ncbi.nlm.nih.gov/vw3d/vw3d.cgi?cid=5281077
