   Color/Form

     * GRAYISH-YELLOW CRYSTALLINE POWDER
     * WHITE NEEDLES
     * Yellow-grey crystals

   from [1]HSDB

   Melting Point
        103 DEG C
   from [2]HSDB

   Solubilities

     * In water at 25 deg C, 13 mg/L; in benzene 40%; dioxine 50%; acetone
       50%; hexane 1.5-2.0%; ethanol 2%
     * SPARINGLY SOL IN MOST ORG SOLVENTS
     * SPARINGLY SOL IN TRICHLOROETHYLENE

   from [3]HSDB

   Vapor Pressure
        5.2X10-5 mm Hg at 25 deg C
   from [4]HSDB

   Other Chemical/Physical Properties
        HIGHLY LIPOPHILIC (WATER/CYCLOHEXANONE PARTITION RATES: 1/320)
   from [5]HSDB

   Computed Properties
   Molecular Weight                  375.12949 [g/mol]
   Molecular Formula                 C[15]H[7]Cl[2]F[3]N[2]O[2]
   XLogP3-AA                         5.5
   H-Bond Donor                      0
   H-Bond Acceptor                   6
   Rotatable Bond Count              2
   Exact Mass                        373.983667
   MonoIsotopic Mass                 373.983667
   Topological Polar Surface Area    44.1
   Heavy Atom Count                  24
   Formal Charge                     0
   Complexity                        474
   Isotope Atom Count                0
   Defined Atom Stereocenter Count   0
   Undefined Atom Stereocenter Count 0
   Defined Bond Stereocenter Count   0
   Undefined Bond Stereocenter Count 0
   Covalently-Bonded Unit Count      1
   Feature 3D Acceptor Count         1
   Feature 3D Ring Count             3
   Effective Rotor Count             4
   Conformer Sampling RMSD           0.8
   CID Conformer Count               [6]16

References

   1. http://toxnet.nlm.nih.gov/cgi-bin/sis/search/r?dbs+hsdb:@term+@rn+@rel+14255-88-0
   2. http://toxnet.nlm.nih.gov/cgi-bin/sis/search/r?dbs+hsdb:@term+@rn+@rel+14255-88-0
   3. http://toxnet.nlm.nih.gov/cgi-bin/sis/search/r?dbs+hsdb:@term+@rn+@rel+14255-88-0
   4. http://toxnet.nlm.nih.gov/cgi-bin/sis/search/r?dbs+hsdb:@term+@rn+@rel+14255-88-0
   5. http://toxnet.nlm.nih.gov/cgi-bin/sis/search/r?dbs+hsdb:@term+@rn+@rel+14255-88-0
   6. http://pubchem.ncbi.nlm.nih.gov/vw3d/vw3d.cgi?cid=26597
