5289
  -OEChem-06261200372D

 85 87  0     1  0  0  0  0  0999 V2000
   13.6245    4.1537    0.0000 O   0  0  0  0  0  0  0  0  0  0  0  0
   14.2384    1.7321    0.0000 O   0  0  0  0  0  0  0  0  0  0  0  0
    7.5766    1.6086    0.0000 O   0  0  0  0  0  0  0  0  0  0  0  0
    4.9820   -3.6169    0.0000 O   0  0  0  0  0  0  0  0  0  0  0  0
    3.3357   -3.0788    0.0000 O   0  0  0  0  0  0  0  0  0  0  0  0
   10.9724    2.6086    0.0000 C   0  0  3  0  0  0  0  0  0  0  0  0
   11.8385    2.1086    0.0000 C   0  0  3  0  0  0  0  0  0  0  0  0
   10.1064    2.1086    0.0000 C   0  0  3  0  0  0  0  0  0  0  0  0
   10.1064    1.1086    0.0000 C   0  0  3  0  0  0  0  0  0  0  0  0
   12.7485    2.6154    0.0000 C   0  0  3  0  0  0  0  0  0  0  0  0
   11.8385    1.1086    0.0000 C   0  0  0  0  0  0  0  0  0  0  0  0
   10.9564    3.6501    0.0000 C   0  0  0  0  0  0  0  0  0  0  0  0
   10.9724    0.6086    0.0000 C   0  0  0  0  0  0  0  0  0  0  0  0
   12.7565    3.6570    0.0000 C   0  0  3  0  0  0  0  0  0  0  0  0
    9.1602    2.4133    0.0000 C   0  0  0  0  0  0  0  0  0  0  0  0
   11.8544    4.1778    0.0000 C   0  0  0  0  0  0  0  0  0  0  0  0
   10.1064    3.1086    0.0000 C   0  0  0  0  0  0  0  0  0  0  0  0
    9.1602    0.8038    0.0000 C   0  0  0  0  0  0  0  0  0  0  0  0
   10.1064    0.1086    0.0000 C   0  0  0  0  0  0  0  0  0  0  0  0
    8.5766    1.6086    0.0000 C   0  0  0  0  0  0  0  0  0  0  0  0
   13.7484    2.6038    0.0000 C   0  0  0  0  0  0  0  0  0  0  0  0
   13.2384    1.7436    0.0000 C   0  0  0  0  0  0  0  0  0  0  0  0
    8.8495   -0.1467    0.0000 C   0  0  0  0  0  0  0  0  0  0  0  0
    9.5174   -0.8910    0.0000 C   0  0  0  0  0  0  0  0  0  0  0  0
    7.8710   -0.3529    0.0000 C   0  0  0  0  0  0  0  0  0  0  0  0
    7.5604   -1.3034    0.0000 C   0  0  0  0  0  0  0  0  0  0  0  0
    6.5819   -1.5097    0.0000 C   0  0  0  0  0  0  0  0  0  0  0  0
    6.2712   -2.4602    0.0000 C   0  0  0  0  0  0  0  0  0  0  0  0
    5.2927   -2.6664    0.0000 C   0  0  3  0  0  0  0  0  0  0  0  0
    6.9390   -3.2045    0.0000 C   0  0  0  0  0  0  0  0  0  0  0  0
    4.6249   -1.9221    0.0000 C   0  0  0  0  0  0  0  0  0  0  0  0
    3.6464   -2.1283    0.0000 C   0  0  0  0  0  0  0  0  0  0  0  0
    4.0035   -3.8231    0.0000 C   0  0  0  0  0  0  0  0  0  0  0  0
    2.9785   -1.3840    0.0000 C   0  0  0  0  0  0  0  0  0  0  0  0
    3.6929   -4.7736    0.0000 C   0  0  0  0  0  0  0  0  0  0  0  0
    2.0000   -1.5902    0.0000 C   0  0  0  0  0  0  0  0  0  0  0  0
    3.2892   -0.4335    0.0000 C   0  0  0  0  0  0  0  0  0  0  0  0
   12.5713    1.6779    0.0000 H   0  0  0  0  0  0  0  0  0  0  0  0
   10.0165    2.9538    0.0000 H   0  0  0  0  0  0  0  0  0  0  0  0
   12.0505    0.5259    0.0000 H   0  0  0  0  0  0  0  0  0  0  0  0
   12.4491    1.2162    0.0000 H   0  0  0  0  0  0  0  0  0  0  0  0
   10.7384    4.2305    0.0000 H   0  0  0  0  0  0  0  0  0  0  0  0
   10.3472    3.5346    0.0000 H   0  0  0  0  0  0  0  0  0  0  0  0
   10.5739    0.1336    0.0000 H   0  0  0  0  0  0  0  0  0  0  0  0
   11.3710    0.1336    0.0000 H   0  0  0  0  0  0  0  0  0  0  0  0
   12.7581    4.5070    0.0000 H   0  0  0  0  0  0  0  0  0  0  0  0
    9.4112    2.9802    0.0000 H   0  0  0  0  0  0  0  0  0  0  0  0
    8.6228    2.7225    0.0000 H   0  0  0  0  0  0  0  0  0  0  0  0
   12.2517    4.6538    0.0000 H   0  0  0  0  0  0  0  0  0  0  0  0
   11.4535    4.6507    0.0000 H   0  0  0  0  0  0  0  0  0  0  0  0
   10.4164    3.6455    0.0000 H   0  0  0  0  0  0  0  0  0  0  0  0
    9.5695    3.4186    0.0000 H   0  0  0  0  0  0  0  0  0  0  0  0
    9.7964    2.5716    0.0000 H   0  0  0  0  0  0  0  0  0  0  0  0
    9.4864    0.1086    0.0000 H   0  0  0  0  0  0  0  0  0  0  0  0
   10.1064   -0.5114    0.0000 H   0  0  0  0  0  0  0  0  0  0  0  0
   10.7264    0.1086    0.0000 H   0  0  0  0  0  0  0  0  0  0  0  0
   14.3334    2.8091    0.0000 H   0  0  0  0  0  0  0  0  0  0  0  0
   13.6478    3.2156    0.0000 H   0  0  0  0  0  0  0  0  0  0  0  0
   12.6979    1.4399    0.0000 H   0  0  0  0  0  0  0  0  0  0  0  0
   13.5422    1.2032    0.0000 H   0  0  0  0  0  0  0  0  0  0  0  0
   13.7789    2.0474    0.0000 H   0  0  0  0  0  0  0  0  0  0  0  0
   13.6268    4.7736    0.0000 H   0  0  0  0  0  0  0  0  0  0  0  0
   14.8583    1.7249    0.0000 H   0  0  0  0  0  0  0  0  0  0  0  0
    9.0559   -1.3051    0.0000 H   0  0  0  0  0  0  0  0  0  0  0  0
    9.9314   -1.3525    0.0000 H   0  0  0  0  0  0  0  0  0  0  0  0
    9.9788   -0.4769    0.0000 H   0  0  0  0  0  0  0  0  0  0  0  0
    7.4570    0.1086    0.0000 H   0  0  0  0  0  0  0  0  0  0  0  0
    7.9744   -1.7649    0.0000 H   0  0  0  0  0  0  0  0  0  0  0  0
    6.1678   -1.0482    0.0000 H   0  0  0  0  0  0  0  0  0  0  0  0
    4.4610   -2.8417    0.0000 H   0  0  0  0  0  0  0  0  0  0  0  0
    6.4776   -3.6185    0.0000 H   0  0  0  0  0  0  0  0  0  0  0  0
    7.3531   -3.6659    0.0000 H   0  0  0  0  0  0  0  0  0  0  0  0
    7.4005   -2.7904    0.0000 H   0  0  0  0  0  0  0  0  0  0  0  0
    5.1512   -1.5944    0.0000 H   0  0  0  0  0  0  0  0  0  0  0  0
    4.3936   -1.3468    0.0000 H   0  0  0  0  0  0  0  0  0  0  0  0
    3.4537   -2.7176    0.0000 H   0  0  0  0  0  0  0  0  0  0  0  0
    3.1035   -4.5810    0.0000 H   0  0  0  0  0  0  0  0  0  0  0  0
    3.5003   -5.3630    0.0000 H   0  0  0  0  0  0  0  0  0  0  0  0
    4.2822   -4.9663    0.0000 H   0  0  0  0  0  0  0  0  0  0  0  0
    3.8785   -0.6261    0.0000 H   0  0  0  0  0  0  0  0  0  0  0  0
    1.8721   -0.9836    0.0000 H   0  0  0  0  0  0  0  0  0  0  0  0
    3.4818    0.1558    0.0000 H   0  0  0  0  0  0  0  0  0  0  0  0
    2.6998   -0.2409    0.0000 H   0  0  0  0  0  0  0  0  0  0  0  0
    1.3933   -1.7181    0.0000 H   0  0  0  0  0  0  0  0  0  0  0  0
    2.1279   -2.1969    0.0000 H   0  0  0  0  0  0  0  0  0  0  0  0
  1 14  1  0  0  0  0
  1 62  1  0  0  0  0
  2 21  1  0  0  0  0
  2 63  1  0  0  0  0
  3 20  2  0  0  0  0
  4 29  1  0  0  0  0
  4 33  1  0  0  0  0
  5 33  2  0  0  0  0
  6  7  1  0  0  0  0
  6  8  1  0  0  0  0
  6 12  1  0  0  0  0
  6 17  1  0  0  0  0
  7 10  1  0  0  0  0
  7 11  1  0  0  0  0
  7 38  1  0  0  0  0
  8  9  1  0  0  0  0
  8 15  1  0  0  0  0
  8 39  1  0  0  0  0
  9 13  1  0  0  0  0
  9 18  1  0  0  0  0
  9 19  1  0  0  0  0
 10 14  1  0  0  0  0
 10 21  1  0  0  0  0
 10 22  1  0  0  0  0
 11 13  1  0  0  0  0
 11 40  1  0  0  0  0
 11 41  1  0  0  0  0
 12 16  1  0  0  0  0
 12 42  1  0  0  0  0
 12 43  1  0  0  0  0
 13 44  1  0  0  0  0
 13 45  1  0  0  0  0
 14 16  1  0  0  0  0
 14 46  1  0  0  0  0
 15 20  1  0  0  0  0
 15 47  1  0  0  0  0
 15 48  1  0  0  0  0
 16 49  1  0  0  0  0
 16 50  1  0  0  0  0
 17 51  1  0  0  0  0
 17 52  1  0  0  0  0
 17 53  1  0  0  0  0
 18 20  1  0  0  0  0
 18 23  2  3  0  0  0
 19 54  1  0  0  0  0
 19 55  1  0  0  0  0
 19 56  1  0  0  0  0
 21 57  1  0  0  0  0
 21 58  1  0  0  0  0
 22 59  1  0  0  0  0
 22 60  1  0  0  0  0
 22 61  1  0  0  0  0
 23 24  1  0  0  0  0
 23 25  1  0  0  0  0
 24 64  1  0  0  0  0
 24 65  1  0  0  0  0
 24 66  1  0  0  0  0
 25 26  2  3  0  0  0
 25 67  1  0  0  0  0
 26 27  1  0  0  0  0
 26 68  1  0  0  0  0
 27 28  2  3  0  0  0
 27 69  1  0  0  0  0
 28 29  1  0  0  0  0
 28 30  1  0  0  0  0
 29 31  1  0  0  0  0
 29 70  1  0  0  0  0
 30 71  1  0  0  0  0
 30 72  1  0  0  0  0
 30 73  1  0  0  0  0
 31 32  1  0  0  0  0
 31 74  1  0  0  0  0
 31 75  1  0  0  0  0
 32 34  2  0  0  0  0
 32 76  1  0  0  0  0
 33 35  1  0  0  0  0
 34 36  1  0  0  0  0
 34 37  1  0  0  0  0
 35 77  1  0  0  0  0
 35 78  1  0  0  0  0
 35 79  1  0  0  0  0
 36 81  1  0  0  0  0
 36 84  1  0  0  0  0
 36 85  1  0  0  0  0
 37 80  1  0  0  0  0
 37 82  1  0  0  0  0
 37 83  1  0  0  0  0
M  END
> <PUBCHEM_COMPOUND_CID>
5289

> <PUBCHEM_COMPOUND_CANONICALIZED>
1

> <PUBCHEM_CACTVS_COMPLEXITY>
1030

> <PUBCHEM_CACTVS_HBOND_ACCEPTOR>
5

> <PUBCHEM_CACTVS_HBOND_DONOR>
2

> <PUBCHEM_CACTVS_ROTATABLE_BOND>
8

> <PUBCHEM_CACTVS_SUBSKEYS>
AAADcfB8OAAAAAAAAAAAAAAAAAAAAYAAAAAwYAAAAAAAAGDAAAAAGgAACAAADxSggAICCAAABgCIAqDSCAAAAAAgAAAICAEAAEgIFBIAIQACUAAFwAAIoQOIyPCPgAAAAAAAAADAAAYAADAAAAAACAAAAA==

> <PUBCHEM_IUPAC_OPENEYE_NAME>
[6-[7-hydroxy-6-(hydroxymethyl)-3a,6,9a-trimethyl-2-oxo-1,4,5,5a,7,8,9,9b-octahydrocyclopenta[a]naphthalen-3-ylidene]-2-methyl-1-(3-methylbut-2-enyl)hepta-2,4-dienyl] acetate

> <PUBCHEM_IUPAC_CAS_NAME>
acetic acid [10-[7-hydroxy-6-(hydroxymethyl)-3a,6,9a-trimethyl-2-oxo-1,4,5,5a,7,8,9,9b-octahydrocyclopenta[a]naphthalen-3-ylidene]-2,6-dimethylundeca-2,6,8-trien-5-yl] ester

> <PUBCHEM_IUPAC_NAME>
[10-[7-hydroxy-6-(hydroxymethyl)-3a,6,9a-trimethyl-2-oxo-1,4,5,5a,7,8,9,9b-octahydrocyclopenta[a]naphthalen-3-ylidene]-2,6-dimethylundeca-2,6,8-trien-5-yl] acetate

> <PUBCHEM_IUPAC_SYSTEMATIC_NAME>
[10-[6-(hydroxymethyl)-3a,6,9a-trimethyl-7-oxidanyl-2-oxidanylidene-1,4,5,5a,7,8,9,9b-octahydrocyclopenta[a]naphthalen-3-ylidene]-2,6-dimethyl-undeca-2,6,8-trien-5-yl] ethanoate

> <PUBCHEM_IUPAC_TRADITIONAL_NAME>
acetic acid [6-(7-hydroxy-2-keto-3a,6,9a-trimethyl-6-methylol-1,4,5,5a,7,8,9,9b-octahydrobenz[e]inden-3-ylidene)-2-methyl-1-(3-methylbut-2-enyl)hepta-2,4-dienyl] ester

> <PUBCHEM_IUPAC_INCHI>
InChI=1S/C32H48O5/c1-20(2)12-13-25(37-23(5)34)21(3)10-9-11-22(4)29-24(35)18-27-30(6)17-15-28(36)32(8,19-33)26(30)14-16-31(27,29)7/h9-12,25-28,33,36H,13-19H2,1-8H3

> <PUBCHEM_IUPAC_INCHIKEY>
LRKJRNYRZIABOX-UHFFFAOYSA-N

> <PUBCHEM_XLOGP3_AA>
7.4

> <PUBCHEM_EXACT_MASS>
512.350175

> <PUBCHEM_MOLECULAR_FORMULA>
C32H48O5

> <PUBCHEM_MOLECULAR_WEIGHT>
512.72052

> <PUBCHEM_OPENEYE_CAN_SMILES>
CC(=CCC(C(=CC=CC(=C1C(=O)CC2C1(CCC3C2(CCC(C3(C)CO)O)C)C)C)C)OC(=O)C)C

> <PUBCHEM_OPENEYE_ISO_SMILES>
CC(=CCC(C(=CC=CC(=C1C(=O)CC2C1(CCC3C2(CCC(C3(C)CO)O)C)C)C)C)OC(=O)C)C

> <PUBCHEM_CACTVS_TPSA>
83.8

> <PUBCHEM_MONOISOTOPIC_WEIGHT>
512.350175

> <PUBCHEM_TOTAL_CHARGE>
0

> <PUBCHEM_HEAVY_ATOM_COUNT>
37

> <PUBCHEM_ATOM_DEF_STEREO_COUNT>
0

> <PUBCHEM_ATOM_UDEF_STEREO_COUNT>
7

> <PUBCHEM_BOND_DEF_STEREO_COUNT>
0

> <PUBCHEM_BOND_UDEF_STEREO_COUNT>
3

> <PUBCHEM_ISOTOPIC_ATOM_COUNT>
0

> <PUBCHEM_COMPONENT_COUNT>
1

> <PUBCHEM_CACTVS_TAUTO_COUNT>
5

> <PUBCHEM_COORDINATE_TYPE>
1
5
255

> <PUBCHEM_BONDANNOTATIONS>
10  21  3
14  46  3
18  23  1
25  26  1
27  28  1
29  70  3
6  17  3
7  38  3
8  39  3
9  19  3

$$$$

