   Color/Form
        FINE, WHITE OR PRACTICALLY WHITE, CRYSTALLINE POWDER
   from [1]HSDB

   Odor
        SLIGHT CHARACTERISTIC ODOR
   from [2]HSDB

   Taste
        SLIGHTLY BITTER
   from [3]HSDB

   Melting Point
        202-206 deg C
   from [4]HSDB

   Solubilities
        FREELY SOL IN WATER; SLIGHTLY SOL IN ALC; INSOL IN ETHER,
   CHLOROFORM.
   from [5]HSDB

   Spectral Properties
        SPECIFIC OPTICAL ROTATION: -63 DEG @ 25 DEG C/D (CONCENTRATION BY
   VOLUME = 0.1 G IN 100 ML PYRIDINE)
   from [6]HSDB

   Other Chemical/Physical Properties

     * CRYSTALS; DECOMP 201 DEG C; PK VALUES: CARBOXYL 1.8, ALPHA-AMINO
       7.9, BETA-THIOL 10.5 /DL-PENICILLAMINE/
     * CRYSTALS; DECOMP 145-148 DEG C /DL-PENICILLAMINE HYDROCHLORIDE/
     * CRYSTALS; MP 190-194 DEG C; SPECIFIC OPTICAL ROTATION: +63 DEG @ 25
       DEG C/D (IN N SODIUM HYDROXIDE). /L-PENICILLAMINE/
     * CRYSTALS; DECOMP 177.5 DEG C; SPECIFIC OPTICAL ROTATION: -63 DEG @
       25 DEG C/D (1N SODIUM HYDROXIDE); HYGROSCOPIC; FREELY SOL IN WATER,
       SOL IN ETHANOL. /D-PENICILLAMINE HYDROCHLORIDE/
     * Decomposes at 178 deg C

   from [7]HSDB

   Computed Properties
   Molecular Weight                  149.21134 [g/mol]
   Molecular Formula                 C[5]H[11]NO[2]S
   XLogP3                            -1.8
   H-Bond Donor                      3
   H-Bond Acceptor                   4
   Rotatable Bond Count              2
   Exact Mass                        149.05105
   MonoIsotopic Mass                 149.05105
   Topological Polar Surface Area    64.3
   Heavy Atom Count                  9
   Formal Charge                     0
   Complexity                        124
   Isotope Atom Count                0
   Defined Atom Stereocenter Count   1
   Undefined Atom Stereocenter Count 0
   Defined Bond Stereocenter Count   0
   Undefined Bond Stereocenter Count 0
   Covalently-Bonded Unit Count      1
   Feature 3D Acceptor Count         2
   Feature 3D Donor Count            1
   Feature 3D Anion Count            1
   Feature 3D Cation Count           1
   Feature 3D Hydrophobe Count       1
   Effective Rotor Count             2
   Conformer Sampling RMSD           0.4
   CID Conformer Count               [8]9

References

   1. http://toxnet.nlm.nih.gov/cgi-bin/sis/search/r?dbs+hsdb:@term+@rn+@rel+52-67-5
   2. http://toxnet.nlm.nih.gov/cgi-bin/sis/search/r?dbs+hsdb:@term+@rn+@rel+52-67-5
   3. http://toxnet.nlm.nih.gov/cgi-bin/sis/search/r?dbs+hsdb:@term+@rn+@rel+52-67-5
   4. http://toxnet.nlm.nih.gov/cgi-bin/sis/search/r?dbs+hsdb:@term+@rn+@rel+52-67-5
   5. http://toxnet.nlm.nih.gov/cgi-bin/sis/search/r?dbs+hsdb:@term+@rn+@rel+52-67-5
   6. http://toxnet.nlm.nih.gov/cgi-bin/sis/search/r?dbs+hsdb:@term+@rn+@rel+52-67-5
   7. http://toxnet.nlm.nih.gov/cgi-bin/sis/search/r?dbs+hsdb:@term+@rn+@rel+52-67-5
   8. http://pubchem.ncbi.nlm.nih.gov/vw3d/vw3d.cgi?cid=5852
