   Color/Form

     * Colorless crystals
     * White crystals

   from [1]HSDB

   Melting Point
        240 deg C decomposes
   from [2]HSDB

   Dissociation Constants
        pK1 1.71; pK2 8.33; pK3 10.78
   from [3]HSDB

   Octanol/Water Partition Coefficient
        log Kow = -2.49
   from [4]HSDB

   Solubilities

     * Freely sol in alcohol, acetic acid, ammonia water; insol in ether,
       acetone, ethyl acetate, benzene, carbon disulfide, carbon
       tetrachloride
     * Solubility (per g/100 g H2O): 28 g/100 ml of soln at 25 deg C; 16
       g/100 ml of soln at 20 deg C

   from [5]HSDB

   Spectral Properties

     * Specific optical rotation: + 6.5 deg @ 25 deg C/D (5 N HCl); +13.0
       deg @ 25 deg C/D (glacial acetic acid)
     * Specific optical rotation: +9.7 deg C (c=8 in 1M HCL) @ 25 deg C/D
     * MASS: NIST 63547 (NIST/EPA/MCDC Mass Spectral Database 1990
       version)
     * IR: SADP 13419 (Sadtler Research Laboratories IR prism collection)
     * UV: OES 2-10 (Phillip et al; Organic Electronic Spectral Data. NT,
       NY: John Wiley and Sons)
     * 1H NMR: SAD 16992 (Sadtler Research Laboratories spectral
       collection)

   from [6]HSDB

   Other Chemical/Physical Properties

     * In neutral or slightly alkaline aq soln it is oxidized to cystine
       by air or by filtration through charcoal. More stable in acidic
       solns.
     * Decomposes 175-178 deg C; sol in water, alcohol, acetone; the aq
       soln is acid; decomposes and oxidizes slowly; hygroscopic. Specific
       optical rotation: +5.0 deg C (5 N HCl) at 25 deg C/D; +10.0 deg C
       at 25 deg C/D (glacial acetic acid) /Hydrochloride/

   from [7]HSDB

   Computed Properties
   Molecular Weight                  121.15818 [g/mol]
   Molecular Formula                 C[3]H[7]NO[2]S
   XLogP3                            -2.5
   H-Bond Donor                      3
   H-Bond Acceptor                   4
   Rotatable Bond Count              2
   Exact Mass                        121.019749
   MonoIsotopic Mass                 121.019749
   Topological Polar Surface Area    64.3
   Heavy Atom Count                  7
   Formal Charge                     0
   Complexity                        75.3
   Isotope Atom Count                0
   Defined Atom Stereocenter Count   1
   Undefined Atom Stereocenter Count 0
   Defined Bond Stereocenter Count   0
   Undefined Bond Stereocenter Count 0
   Covalently-Bonded Unit Count      1
   Feature 3D Acceptor Count         2
   Feature 3D Donor Count            1
   Feature 3D Anion Count            1
   Feature 3D Cation Count           1
   Effective Rotor Count             2
   Conformer Sampling RMSD           0.4
   CID Conformer Count               [8]9

References

   1. http://toxnet.nlm.nih.gov/cgi-bin/sis/search/r?dbs+hsdb:@term+@rn+@rel+52-90-4
   2. http://toxnet.nlm.nih.gov/cgi-bin/sis/search/r?dbs+hsdb:@term+@rn+@rel+52-90-4
   3. http://toxnet.nlm.nih.gov/cgi-bin/sis/search/r?dbs+hsdb:@term+@rn+@rel+52-90-4
   4. http://toxnet.nlm.nih.gov/cgi-bin/sis/search/r?dbs+hsdb:@term+@rn+@rel+52-90-4
   5. http://toxnet.nlm.nih.gov/cgi-bin/sis/search/r?dbs+hsdb:@term+@rn+@rel+52-90-4
   6. http://toxnet.nlm.nih.gov/cgi-bin/sis/search/r?dbs+hsdb:@term+@rn+@rel+52-90-4
   7. http://toxnet.nlm.nih.gov/cgi-bin/sis/search/r?dbs+hsdb:@term+@rn+@rel+52-90-4
   8. http://pubchem.ncbi.nlm.nih.gov/vw3d/vw3d.cgi?cid=5862
