10298166
  -OEChem-07051212502D

 51 52  0     1  0  0  0  0  0999 V2000
    8.0622   -1.3455    0.0000 S   0  0  0  0  0  0  0  0  0  0  0  0
    5.4641   -2.8455    0.0000 O   0  0  0  0  0  0  0  0  0  0  0  0
    5.4641    0.1545    0.0000 O   0  0  0  0  0  0  0  0  0  0  0  0
    7.1962   -0.8455    0.0000 O   0  0  0  0  0  0  0  0  0  0  0  0
    3.7320   -2.8455    0.0000 O   0  0  0  0  0  0  0  0  0  0  0  0
    6.9641    1.0205    0.0000 O   0  0  0  0  0  0  0  0  0  0  0  0
    7.1962   -3.8455    0.0000 O   0  0  0  0  0  0  0  0  0  0  0  0
    4.4641    1.8865    0.0000 O   0  0  0  0  0  0  0  0  0  0  0  0
    5.4641    3.6186    0.0000 O   0  0  0  0  0  0  0  0  0  0  0  0
    8.9282   -1.8455    0.0000 O   0  0  0  0  0  0  0  0  0  0  0  0
    2.8660   -2.3455    0.0000 O   0  0  0  0  0  0  0  0  0  0  0  0
    7.5622   -2.2115    0.0000 O   0  0  0  0  0  0  0  0  0  0  0  0
    8.5622   -0.4795    0.0000 O   0  0  0  0  0  0  0  0  0  0  0  0
    8.9641    2.7526    0.0000 O   0  0  0  0  0  0  0  0  0  0  0  0
    8.9641    1.0205    0.0000 O   0  0  0  0  0  0  0  0  0  0  0  0
    3.7320   -0.8455    0.0000 N   0  0  0  0  0  0  0  0  0  0  0  0
    5.4641   -0.8455    0.0000 C   0  0  1  0  0  0  0  0  0  0  0  0
    6.3301   -1.3455    0.0000 C   0  0  2  0  0  0  0  0  0  0  0  0
    4.5981   -1.3455    0.0000 C   0  0  2  0  0  0  0  0  0  0  0  0
    6.3301   -2.3455    0.0000 C   0  0  1  0  0  0  0  0  0  0  0  0
    4.5981   -2.3455    0.0000 C   0  0  3  0  0  0  0  0  0  0  0  0
    5.9641    1.0205    0.0000 C   0  0  2  0  0  0  0  0  0  0  0  0
    7.1962   -2.8455    0.0000 C   0  0  0  0  0  0  0  0  0  0  0  0
    5.4641    1.8865    0.0000 C   0  0  1  0  0  0  0  0  0  0  0  0
    5.9641    2.7526    0.0000 C   0  0  2  0  0  0  0  0  0  0  0  0
    2.8660   -1.3455    0.0000 C   0  0  0  0  0  0  0  0  0  0  0  0
    6.9641    2.7526    0.0000 C   0  0  0  0  0  0  0  0  0  0  0  0
    7.4641    1.8865    0.0000 C   0  0  0  0  0  0  0  0  0  0  0  0
    2.0000   -0.8455    0.0000 C   0  0  0  0  0  0  0  0  0  0  0  0
    8.4641    1.8865    0.0000 C   0  0  0  0  0  0  0  0  0  0  0  0
    6.0010   -0.5355    0.0000 H   0  0  0  0  0  0  0  0  0  0  0  0
    6.8671   -1.6555    0.0000 H   0  0  0  0  0  0  0  0  0  0  0  0
    4.5981   -0.7255    0.0000 H   0  0  0  0  0  0  0  0  0  0  0  0
    6.3301   -2.9655    0.0000 H   0  0  0  0  0  0  0  0  0  0  0  0
    4.5981   -3.1955    0.0000 H   0  0  0  0  0  0  0  0  0  0  0  0
    5.3441    1.0205    0.0000 H   0  0  0  0  0  0  0  0  0  0  0  0
    7.8067   -2.9532    0.0000 H   0  0  0  0  0  0  0  0  0  0  0  0
    7.4082   -2.2629    0.0000 H   0  0  0  0  0  0  0  0  0  0  0  0
    3.7320   -0.2255    0.0000 H   0  0  0  0  0  0  0  0  0  0  0  0
    5.1541    1.3496    0.0000 H   0  0  0  0  0  0  0  0  0  0  0  0
    5.3441    2.7526    0.0000 H   0  0  0  0  0  0  0  0  0  0  0  0
    3.7320   -3.4655    0.0000 H   0  0  0  0  0  0  0  0  0  0  0  0
    7.2741    3.2895    0.0000 H   0  0  0  0  0  0  0  0  0  0  0  0
    7.7331   -4.1555    0.0000 H   0  0  0  0  0  0  0  0  0  0  0  0
    4.1541    2.4235    0.0000 H   0  0  0  0  0  0  0  0  0  0  0  0
    2.3100   -0.3086    0.0000 H   0  0  0  0  0  0  0  0  0  0  0  0
    1.4631   -0.5355    0.0000 H   0  0  0  0  0  0  0  0  0  0  0  0
    1.6900   -1.3824    0.0000 H   0  0  0  0  0  0  0  0  0  0  0  0
    5.7741    4.1555    0.0000 H   0  0  0  0  0  0  0  0  0  0  0  0
    8.9282   -2.4655    0.0000 H   0  0  0  0  0  0  0  0  0  0  0  0
    9.5841    2.7526    0.0000 H   0  0  0  0  0  0  0  0  0  0  0  0
  1  4  1  0  0  0  0
  1 10  1  0  0  0  0
  1 12  2  0  0  0  0
  1 13  2  0  0  0  0
  2 20  1  0  0  0  0
  2 21  1  0  0  0  0
 17  3  1  1  0  0  0
 22  3  1  1  0  0  0
 18  4  1  1  0  0  0
  5 21  1  0  0  0  0
  5 42  1  0  0  0  0
  6 22  1  0  0  0  0
  6 28  1  0  0  0  0
  7 23  1  0  0  0  0
  7 44  1  0  0  0  0
 24  8  1  6  0  0  0
  8 45  1  0  0  0  0
 25  9  1  1  0  0  0
  9 49  1  0  0  0  0
 10 50  1  0  0  0  0
 11 26  2  0  0  0  0
 14 30  1  0  0  0  0
 14 51  1  0  0  0  0
 15 30  2  0  0  0  0
 19 16  1  6  0  0  0
 16 26  1  0  0  0  0
 16 39  1  0  0  0  0
 17 18  1  0  0  0  0
 17 19  1  0  0  0  0
 17 31  1  0  0  0  0
 18 20  1  0  0  0  0
 18 32  1  0  0  0  0
 19 21  1  0  0  0  0
 19 33  1  0  0  0  0
 20 23  1  1  0  0  0
 20 34  1  0  0  0  0
 21 35  1  0  0  0  0
 22 24  1  0  0  0  0
 22 36  1  0  0  0  0
 23 37  1  0  0  0  0
 23 38  1  0  0  0  0
 24 25  1  0  0  0  0
 24 40  1  0  0  0  0
 25 27  1  0  0  0  0
 25 41  1  0  0  0  0
 26 29  1  0  0  0  0
 27 28  2  0  0  0  0
 27 43  1  0  0  0  0
 28 30  1  0  0  0  0
 29 46  1  0  0  0  0
 29 47  1  0  0  0  0
 29 48  1  0  0  0  0
M  END
> <PUBCHEM_COMPOUND_CID>
10298166

> <PUBCHEM_COMPOUND_CANONICALIZED>
1

> <PUBCHEM_CACTVS_COMPLEXITY>
778

> <PUBCHEM_CACTVS_HBOND_ACCEPTOR>
14

> <PUBCHEM_CACTVS_HBOND_DONOR>
7

> <PUBCHEM_CACTVS_ROTATABLE_BOND>
7

> <PUBCHEM_CACTVS_SUBSKEYS>
AAADceByPABAAAAAAAAAAAAAAAAAAAAAAAAkQAAAAAAAAAAAAAAAHgAQCAAACDzxgAcCCALABoCIACHSGDIACAAgIAAACIBIAEgTFAIAgAQnUAAH1gCfEYPwcAcAAAAAAAAAAAAAAAAAAAAAAAAAAAAAAA==

> <PUBCHEM_IUPAC_OPENEYE_NAME>
(2R,3R,4S)-2-[(3R,4R,5R,6R)-3-acetamido-2-hydroxy-6-(hydroxymethyl)-5-sulfooxy-tetrahydropyran-4-yl]oxy-3,4-dihydroxy-3,4-dihydro-2H-pyran-6-carboxylic acid

> <PUBCHEM_IUPAC_CAS_NAME>
(2R,3R,4S)-2-[[(3R,4R,5R,6R)-3-acetamido-2-hydroxy-6-(hydroxymethyl)-5-sulfooxy-4-oxanyl]oxy]-3,4-dihydroxy-3,4-dihydro-2H-pyran-6-carboxylic acid

> <PUBCHEM_IUPAC_NAME>
(2R,3R,4S)-2-[(3R,4R,5R,6R)-3-acetamido-2-hydroxy-6-(hydroxymethyl)-5-sulfooxyoxan-4-yl]oxy-3,4-dihydroxy-3,4-dihydro-2H-pyran-6-carboxylic acid

> <PUBCHEM_IUPAC_SYSTEMATIC_NAME>
(2R,3R,4S)-2-[(2R,3R,4R,5R)-5-acetamido-2-(hydroxymethyl)-6-oxidanyl-3-sulfooxy-oxan-4-yl]oxy-3,4-bis(oxidanyl)-3,4-dihydro-2H-pyran-6-carboxylic acid

> <PUBCHEM_IUPAC_TRADITIONAL_NAME>
(2R,3R,4S)-2-[(3R,4R,5R,6R)-3-acetamido-2-hydroxy-6-methylol-5-sulfoxy-tetrahydropyran-4-yl]oxy-3,4-dihydroxy-3,4-dihydro-2H-pyran-6-carboxylic acid

> <PUBCHEM_IUPAC_INCHI>
InChI=1S/C14H21NO14S/c1-4(17)15-8-11(10(29-30(23,24)25)7(3-16)26-13(8)22)28-14-9(19)5(18)2-6(27-14)12(20)21/h2,5,7-11,13-14,16,18-19,22H,3H2,1H3,(H,15,17)(H,20,21)(H,23,24,25)/t5-,7+,8+,9+,10-,11+,13?,14-/m0/s1

> <PUBCHEM_IUPAC_INCHIKEY>
BWBRFVRXCBBDEH-ZTVLJYEESA-N

> <PUBCHEM_XLOGP3_AA>
-4.2

> <PUBCHEM_EXACT_MASS>
459.068275

> <PUBCHEM_MOLECULAR_FORMULA>
C14H21NO14S

> <PUBCHEM_MOLECULAR_WEIGHT>
459.37984

> <PUBCHEM_OPENEYE_CAN_SMILES>
CC(=O)NC1C(C(C(OC1O)CO)OS(=O)(=O)O)OC2C(C(C=C(O2)C(=O)O)O)O

> <PUBCHEM_OPENEYE_ISO_SMILES>
CC(=O)N[C@@H]1[C@H]([C@H]([C@H](OC1O)CO)OS(=O)(=O)O)O[C@H]2[C@@H]([C@H](C=C(O2)C(=O)O)O)O

> <PUBCHEM_CACTVS_TPSA>
247

> <PUBCHEM_MONOISOTOPIC_WEIGHT>
459.068275

> <PUBCHEM_TOTAL_CHARGE>
0

> <PUBCHEM_HEAVY_ATOM_COUNT>
30

> <PUBCHEM_ATOM_DEF_STEREO_COUNT>
7

> <PUBCHEM_ATOM_UDEF_STEREO_COUNT>
1

> <PUBCHEM_BOND_DEF_STEREO_COUNT>
0

> <PUBCHEM_BOND_UDEF_STEREO_COUNT>
0

> <PUBCHEM_ISOTOPIC_ATOM_COUNT>
0

> <PUBCHEM_COMPONENT_COUNT>
1

> <PUBCHEM_CACTVS_TAUTO_COUNT>
2

> <PUBCHEM_COORDINATE_TYPE>
1
5
255

> <PUBCHEM_BONDANNOTATIONS>
19  16  6
20  23  5
21  35  3
17  3  5
22  3  5
18  4  5
24  8  6
25  9  5

$$$$

