442725
  -OEChem-07051212592D

 59 62  0     1  0  0  0  0  0999 V2000
   10.4586   -1.1317    0.0000 O   0  0  0  0  0  0  0  0  0  0  0  0
    9.5984    0.3717    0.0000 O   0  0  0  0  0  0  0  0  0  0  0  0
    7.8548   -2.6216    0.0000 O   0  0  0  0  0  0  0  0  0  0  0  0
    9.5830   -3.6283    0.0000 O   0  0  0  0  0  0  0  0  0  0  0  0
    7.8625   -0.6217    0.0000 O   0  0  0  0  0  0  0  0  0  0  0  0
   12.1868   -2.1383    0.0000 O   0  0  0  0  0  0  0  0  0  0  0  0
    9.5984    2.4200    0.0000 O   0  0  0  0  0  0  0  0  0  0  0  0
    7.8167    3.4304    0.0000 O   0  0  0  0  0  0  0  0  0  0  0  0
    4.3198    3.4304    0.0000 O   0  0  0  0  0  0  0  0  0  0  0  0
    6.0682   -0.6042    0.0000 O   0  0  0  0  0  0  0  0  0  0  0  0
    6.0682    3.3958    0.0000 O   0  0  0  0  0  0  0  0  0  0  0  0
    2.5381    2.4200    0.0000 O   0  0  0  0  0  0  0  0  0  0  0  0
    8.7227   -2.1250    0.0000 C   0  0  1  0  0  0  0  0  0  0  0  0
    9.5868   -2.6283    0.0000 C   0  0  1  0  0  0  0  0  0  0  0  0
    8.7266   -1.1250    0.0000 C   0  0  2  0  0  0  0  0  0  0  0  0
   10.4548   -2.1317    0.0000 C   0  0  1  0  0  0  0  0  0  0  0  0
    9.5945   -0.6283    0.0000 C   0  0  1  0  0  0  0  0  0  0  0  0
   11.3189   -2.6350    0.0000 C   0  0  0  0  0  0  0  0  0  0  0  0
    8.7343    0.8750    0.0000 C   0  0  0  0  0  0  0  0  0  0  0  0
    6.9343    0.8958    0.0000 C   0  0  0  0  0  0  0  0  0  0  0  0
    7.8282    0.3611    0.0000 C   0  0  0  0  0  0  0  0  0  0  0  0
    6.9343    1.8958    0.0000 C   0  0  0  0  0  0  0  0  0  0  0  0
    8.7343    1.9166    0.0000 C   0  0  0  0  0  0  0  0  0  0  0  0
    7.8282    2.4305    0.0000 C   0  0  0  0  0  0  0  0  0  0  0  0
    5.2022    1.8958    0.0000 C   0  0  0  0  0  0  0  0  0  0  0  0
    5.2022    0.8958    0.0000 C   0  0  0  0  0  0  0  0  0  0  0  0
    6.0682    0.3958    0.0000 C   0  0  0  0  0  0  0  0  0  0  0  0
    6.0682    2.3958    0.0000 C   0  0  0  0  0  0  0  0  0  0  0  0
    4.3083    2.4305    0.0000 C   0  0  0  0  0  0  0  0  0  0  0  0
    4.3083    0.3611    0.0000 C   0  0  0  0  0  0  0  0  0  0  0  0
    3.4022    0.8750    0.0000 C   0  0  0  0  0  0  0  0  0  0  0  0
    3.4022    1.9166    0.0000 C   0  0  0  0  0  0  0  0  0  0  0  0
    2.5381    0.3717    0.0000 C   0  0  0  0  0  0  0  0  0  0  0  0
   10.4663    1.9233    0.0000 C   0  0  0  0  0  0  0  0  0  0  0  0
    3.4597    3.9404    0.0000 C   0  0  0  0  0  0  0  0  0  0  0  0
    8.1870   -1.8129    0.0000 H   0  0  0  0  0  0  0  0  0  0  0  0
   10.1226   -2.9404    0.0000 H   0  0  0  0  0  0  0  0  0  0  0  0
    8.7290   -0.5050    0.0000 H   0  0  0  0  0  0  0  0  0  0  0  0
   10.9929   -1.8237    0.0000 H   0  0  0  0  0  0  0  0  0  0  0  0
    9.0588   -0.3163    0.0000 H   0  0  0  0  0  0  0  0  0  0  0  0
   10.9185   -3.1084    0.0000 H   0  0  0  0  0  0  0  0  0  0  0  0
   11.7155   -3.1115    0.0000 H   0  0  0  0  0  0  0  0  0  0  0  0
    7.8524   -3.2416    0.0000 H   0  0  0  0  0  0  0  0  0  0  0  0
   10.1187   -3.9404    0.0000 H   0  0  0  0  0  0  0  0  0  0  0  0
    7.3244   -0.9296    0.0000 H   0  0  0  0  0  0  0  0  0  0  0  0
    7.8210   -0.2588    0.0000 H   0  0  0  0  0  0  0  0  0  0  0  0
   12.7225   -2.4504    0.0000 H   0  0  0  0  0  0  0  0  0  0  0  0
    4.3154   -0.2588    0.0000 H   0  0  0  0  0  0  0  0  0  0  0  0
    8.3500    3.7466    0.0000 H   0  0  0  0  0  0  0  0  0  0  0  0
    2.2261    0.9074    0.0000 H   0  0  0  0  0  0  0  0  0  0  0  0
    2.0024    0.0596    0.0000 H   0  0  0  0  0  0  0  0  0  0  0  0
    2.8502   -0.1641    0.0000 H   0  0  0  0  0  0  0  0  0  0  0  0
   10.1584    1.3852    0.0000 H   0  0  0  0  0  0  0  0  0  0  0  0
   11.0045    1.6154    0.0000 H   0  0  0  0  0  0  0  0  0  0  0  0
   10.7743    2.4614    0.0000 H   0  0  0  0  0  0  0  0  0  0  0  0
    2.0000    2.1120    0.0000 H   0  0  0  0  0  0  0  0  0  0  0  0
    3.7758    4.4737    0.0000 H   0  0  0  0  0  0  0  0  0  0  0  0
    2.9263    4.2566    0.0000 H   0  0  0  0  0  0  0  0  0  0  0  0
    3.1435    3.4071    0.0000 H   0  0  0  0  0  0  0  0  0  0  0  0
  1 16  1  0  0  0  0
  1 17  1  0  0  0  0
 17  2  1  6  0  0  0
  2 19  1  0  0  0  0
 13  3  1  6  0  0  0
  3 43  1  0  0  0  0
 14  4  1  1  0  0  0
  4 44  1  0  0  0  0
 15  5  1  1  0  0  0
  5 45  1  0  0  0  0
  6 18  1  0  0  0  0
  6 47  1  0  0  0  0
  7 23  1  0  0  0  0
  7 34  1  0  0  0  0
  8 24  1  0  0  0  0
  8 49  1  0  0  0  0
  9 29  1  0  0  0  0
  9 35  1  0  0  0  0
 10 27  2  0  0  0  0
 11 28  2  0  0  0  0
 12 32  1  0  0  0  0
 12 56  1  0  0  0  0
 13 14  1  0  0  0  0
 13 15  1  0  0  0  0
 13 36  1  0  0  0  0
 14 16  1  0  0  0  0
 14 37  1  0  0  0  0
 15 17  1  0  0  0  0
 15 38  1  0  0  0  0
 16 18  1  6  0  0  0
 16 39  1  0  0  0  0
 17 40  1  0  0  0  0
 18 41  1  0  0  0  0
 18 42  1  0  0  0  0
 19 21  1  0  0  0  0
 19 23  2  0  0  0  0
 20 21  2  0  0  0  0
 20 22  1  0  0  0  0
 20 27  1  0  0  0  0
 21 46  1  0  0  0  0
 22 24  2  0  0  0  0
 22 28  1  0  0  0  0
 23 24  1  0  0  0  0
 25 26  2  0  0  0  0
 25 28  1  0  0  0  0
 25 29  1  0  0  0  0
 26 27  1  0  0  0  0
 26 30  1  0  0  0  0
 29 32  2  0  0  0  0
 30 31  2  0  0  0  0
 30 48  1  0  0  0  0
 31 32  1  0  0  0  0
 31 33  1  0  0  0  0
 33 50  1  0  0  0  0
 33 51  1  0  0  0  0
 33 52  1  0  0  0  0
 34 53  1  0  0  0  0
 34 54  1  0  0  0  0
 34 55  1  0  0  0  0
 35 57  1  0  0  0  0
 35 58  1  0  0  0  0
 35 59  1  0  0  0  0
M  END
> <PUBCHEM_COMPOUND_CID>
442725

> <PUBCHEM_COMPOUND_CANONICALIZED>
1

> <PUBCHEM_CACTVS_COMPLEXITY>
793

> <PUBCHEM_CACTVS_HBOND_ACCEPTOR>
12

> <PUBCHEM_CACTVS_HBOND_DONOR>
6

> <PUBCHEM_CACTVS_ROTATABLE_BOND>
5

> <PUBCHEM_CACTVS_SUBSKEYS>
AAADceB4PAAAAAAAAAAAAAAAAAAAAAAAAAA0YMEAAAAAAADBQAAAGgAACAAADBSwmAMyDoAABgCIAqBSAAACCAAkIAAAiAEGiMgdNzaGNRqieWOl4BUPuYfL7PzO4AADCAAYQADAAAYQADCAAAAAAAAAAA==

> <PUBCHEM_IUPAC_OPENEYE_NAME>
1,7-dihydroxy-2,8-dimethoxy-6-methyl-3-[(2S,3R,4S,5S,6R)-3,4,5-trihydroxy-6-(hydroxymethyl)tetrahydropyran-2-yl]oxy-anthracene-9,10-dione

> <PUBCHEM_IUPAC_CAS_NAME>
1,7-dihydroxy-2,8-dimethoxy-6-methyl-3-[[(2S,3R,4S,5S,6R)-3,4,5-trihydroxy-6-(hydroxymethyl)-2-oxanyl]oxy]anthracene-9,10-dione

> <PUBCHEM_IUPAC_NAME>
1,7-dihydroxy-2,8-dimethoxy-6-methyl-3-[(2S,3R,4S,5S,6R)-3,4,5-trihydroxy-6-(hydroxymethyl)oxan-2-yl]oxyanthracene-9,10-dione

> <PUBCHEM_IUPAC_SYSTEMATIC_NAME>
6-[(2S,3R,4S,5S,6R)-6-(hydroxymethyl)-3,4,5-tris(oxidanyl)oxan-2-yl]oxy-1,7-dimethoxy-3-methyl-2,8-bis(oxidanyl)anthracene-9,10-dione

> <PUBCHEM_IUPAC_TRADITIONAL_NAME>
1,7-dihydroxy-2,8-dimethoxy-6-methyl-3-[(2S,3R,4S,5S,6R)-3,4,5-trihydroxy-6-methylol-tetrahydropyran-2-yl]oxy-9,10-anthraquinone

> <PUBCHEM_IUPAC_INCHI>
InChI=1S/C23H24O12/c1-7-4-8-13(22(33-3)14(7)25)17(28)12-9(15(8)26)5-10(21(32-2)18(12)29)34-23-20(31)19(30)16(27)11(6-24)35-23/h4-5,11,16,19-20,23-25,27,29-31H,6H2,1-3H3/t11-,16-,19+,20-,23-/m1/s1

> <PUBCHEM_IUPAC_INCHIKEY>
LQYQYAJWKXDTHR-PHVGODQESA-N

> <PUBCHEM_XLOGP3_AA>
0.9

> <PUBCHEM_EXACT_MASS>
492.126776

> <PUBCHEM_MOLECULAR_FORMULA>
C23H24O12

> <PUBCHEM_MOLECULAR_WEIGHT>
492.42946

> <PUBCHEM_OPENEYE_CAN_SMILES>
CC1=C(C(=C2C(=C1)C(=O)C3=CC(=C(C(=C3C2=O)O)OC)OC4C(C(C(C(O4)CO)O)O)O)OC)O

> <PUBCHEM_OPENEYE_ISO_SMILES>
CC1=C(C(=C2C(=C1)C(=O)C3=CC(=C(C(=C3C2=O)O)OC)O[C@H]4[C@@H]([C@H]([C@@H]([C@H](O4)CO)O)O)O)OC)O

> <PUBCHEM_CACTVS_TPSA>
192

> <PUBCHEM_MONOISOTOPIC_WEIGHT>
492.126776

> <PUBCHEM_TOTAL_CHARGE>
0

> <PUBCHEM_HEAVY_ATOM_COUNT>
35

> <PUBCHEM_ATOM_DEF_STEREO_COUNT>
5

> <PUBCHEM_ATOM_UDEF_STEREO_COUNT>
0

> <PUBCHEM_BOND_DEF_STEREO_COUNT>
0

> <PUBCHEM_BOND_UDEF_STEREO_COUNT>
0

> <PUBCHEM_ISOTOPIC_ATOM_COUNT>
0

> <PUBCHEM_COMPONENT_COUNT>
1

> <PUBCHEM_CACTVS_TAUTO_COUNT>
79

> <PUBCHEM_COORDINATE_TYPE>
1
5
255

> <PUBCHEM_BONDANNOTATIONS>
16  18  6
19  21  8
19  23  8
17  2  6
20  21  8
20  22  8
22  24  8
23  24  8
25  26  8
25  29  8
26  30  8
29  32  8
13  3  6
30  31  8
31  32  8
14  4  5
15  5  5

$$$$

