12953
  -OEChem-06261207352D

 62 66  0     1  0  0  0  0  0999 V2000
    7.9288   -1.6474    0.0000 O   0  0  0  0  0  0  0  0  0  0  0  0
    7.0628    1.8526    0.0000 O   0  0  0  0  0  0  0  0  0  0  0  0
    5.2710   -3.1958    0.0000 O   0  0  0  0  0  0  0  0  0  0  0  0
    2.5357   -2.6997    0.0000 O   0  0  0  0  0  0  0  0  0  0  0  0
    3.9686   -0.0307    0.0000 O   0  0  0  0  0  0  0  0  0  0  0  0
    9.1885    3.2259    0.0000 O   0  0  0  0  0  0  0  0  0  0  0  0
   10.9491    3.5016    0.0000 O   0  0  0  0  0  0  0  0  0  0  0  0
    7.9288   -0.6474    0.0000 C   0  0  1  0  0  0  0  0  0  0  0  0
    7.0628   -1.1474    0.0000 C   0  0  3  0  0  0  0  0  0  0  0  0
    7.9288    0.3526    0.0000 C   0  0  2  0  0  0  0  0  0  0  0  0
    6.1968   -0.6474    0.0000 C   0  0  3  0  0  0  0  0  0  0  0  0
    5.2868   -1.1542    0.0000 C   0  0  2  0  0  0  0  0  0  0  0  0
    7.0628    0.8526    0.0000 C   0  0  1  0  0  0  0  0  0  0  0  0
    5.2787   -2.1958    0.0000 C   0  0  1  0  0  0  0  0  0  0  0  0
    8.8750    0.6574    0.0000 C   0  0  2  0  0  0  0  0  0  0  0  0
    6.1968    0.3526    0.0000 C   0  0  0  0  0  0  0  0  0  0  0  0
    8.8750   -0.9521    0.0000 C   0  0  0  0  0  0  0  0  0  0  0  0
    7.0789   -2.1889    0.0000 C   0  0  0  0  0  0  0  0  0  0  0  0
    9.4586   -0.1474    0.0000 C   0  0  0  0  0  0  0  0  0  0  0  0
    6.1808   -2.7166    0.0000 C   0  0  0  0  0  0  0  0  0  0  0  0
    4.3599   -0.5901    0.0000 C   0  0  0  0  0  0  0  0  0  0  0  0
    7.9288    1.3526    0.0000 C   0  0  0  0  0  0  0  0  0  0  0  0
    4.3433   -2.7455    0.0000 C   0  0  0  0  0  0  0  0  0  0  0  0
    3.4120   -1.1181    0.0000 C   0  0  0  0  0  0  0  0  0  0  0  0
    3.4037   -2.2030    0.0000 C   0  0  2  0  0  0  0  0  0  0  0  0
    4.9520   -0.2119    0.0000 C   0  0  0  0  0  0  0  0  0  0  0  0
    9.1857    1.6079    0.0000 C   0  0  0  0  0  0  0  0  0  0  0  0
    8.5993    2.4179    0.0000 C   0  0  0  0  0  0  0  0  0  0  0  0
   10.1373    1.9152    0.0000 C   0  0  0  0  0  0  0  0  0  0  0  0
   10.1390    2.9152    0.0000 C   0  0  0  0  0  0  0  0  0  0  0  0
    7.6021   -1.4532    0.0000 H   0  0  0  0  0  0  0  0  0  0  0  0
    6.7337   -0.3374    0.0000 H   0  0  0  0  0  0  0  0  0  0  0  0
    7.5997    1.1626    0.0000 H   0  0  0  0  0  0  0  0  0  0  0  0
    9.4875    0.7536    0.0000 H   0  0  0  0  0  0  0  0  0  0  0  0
    5.9847    0.9352    0.0000 H   0  0  0  0  0  0  0  0  0  0  0  0
    5.5862    0.2450    0.0000 H   0  0  0  0  0  0  0  0  0  0  0  0
    8.6240   -1.5190    0.0000 H   0  0  0  0  0  0  0  0  0  0  0  0
    9.4124   -1.2613    0.0000 H   0  0  0  0  0  0  0  0  0  0  0  0
    7.2969   -2.7693    0.0000 H   0  0  0  0  0  0  0  0  0  0  0  0
    7.6880   -2.0734    0.0000 H   0  0  0  0  0  0  0  0  0  0  0  0
    9.9195   -0.5621    0.0000 H   0  0  0  0  0  0  0  0  0  0  0  0
    9.9195    0.2674    0.0000 H   0  0  0  0  0  0  0  0  0  0  0  0
    5.7835   -3.1926    0.0000 H   0  0  0  0  0  0  0  0  0  0  0  0
    6.5818   -3.1895    0.0000 H   0  0  0  0  0  0  0  0  0  0  0  0
    4.7681   -0.1235    0.0000 H   0  0  0  0  0  0  0  0  0  0  0  0
    3.9700   -0.1081    0.0000 H   0  0  0  0  0  0  0  0  0  0  0  0
    8.5488    1.3526    0.0000 H   0  0  0  0  0  0  0  0  0  0  0  0
    7.9288    1.9726    0.0000 H   0  0  0  0  0  0  0  0  0  0  0  0
    7.3088    1.3526    0.0000 H   0  0  0  0  0  0  0  0  0  0  0  0
    3.9460   -3.2215    0.0000 H   0  0  0  0  0  0  0  0  0  0  0  0
    4.7443   -3.2184    0.0000 H   0  0  0  0  0  0  0  0  0  0  0  0
    3.2075   -0.5328    0.0000 H   0  0  0  0  0  0  0  0  0  0  0  0
    2.8004   -1.2195    0.0000 H   0  0  0  0  0  0  0  0  0  0  0  0
    8.4658   -1.9574    0.0000 H   0  0  0  0  0  0  0  0  0  0  0  0
    3.4025   -2.8230    0.0000 H   0  0  0  0  0  0  0  0  0  0  0  0
    5.3542    0.2599    0.0000 H   0  0  0  0  0  0  0  0  0  0  0  0
    6.5259    2.1626    0.0000 H   0  0  0  0  0  0  0  0  0  0  0  0
    4.7317   -3.5016    0.0000 H   0  0  0  0  0  0  0  0  0  0  0  0
    8.1393    2.8336    0.0000 H   0  0  0  0  0  0  0  0  0  0  0  0
    8.1378    2.0038    0.0000 H   0  0  0  0  0  0  0  0  0  0  0  0
   10.6383    1.5500    0.0000 H   0  0  0  0  0  0  0  0  0  0  0  0
    2.0000   -2.3876    0.0000 H   0  0  0  0  0  0  0  0  0  0  0  0
  8  1  1  1  0  0  0
  1 54  1  0  0  0  0
 13  2  1  1  0  0  0
  2 57  1  0  0  0  0
 14  3  1  1  0  0  0
  3 58  1  0  0  0  0
 25  4  1  1  0  0  0
  4 62  1  0  0  0  0
  5 26  2  0  0  0  0
  6 28  1  0  0  0  0
  6 30  1  0  0  0  0
  7 30  2  0  0  0  0
  8  9  1  0  0  0  0
  8 10  1  0  0  0  0
  8 17  1  0  0  0  0
  9 11  1  0  0  0  0
  9 18  1  0  0  0  0
  9 31  1  0  0  0  0
 10 13  1  0  0  0  0
 10 15  1  0  0  0  0
 10 22  1  1  0  0  0
 11 12  1  0  0  0  0
 11 16  1  0  0  0  0
 11 32  1  0  0  0  0
 12 14  1  0  0  0  0
 12 21  1  0  0  0  0
 12 26  1  1  0  0  0
 13 16  1  0  0  0  0
 13 33  1  0  0  0  0
 14 20  1  0  0  0  0
 14 23  1  0  0  0  0
 15 19  1  0  0  0  0
 15 27  1  1  0  0  0
 15 34  1  0  0  0  0
 16 35  1  0  0  0  0
 16 36  1  0  0  0  0
 17 19  1  0  0  0  0
 17 37  1  0  0  0  0
 17 38  1  0  0  0  0
 18 20  1  0  0  0  0
 18 39  1  0  0  0  0
 18 40  1  0  0  0  0
 19 41  1  0  0  0  0
 19 42  1  0  0  0  0
 20 43  1  0  0  0  0
 20 44  1  0  0  0  0
 21 24  1  0  0  0  0
 21 45  1  0  0  0  0
 21 46  1  0  0  0  0
 22 47  1  0  0  0  0
 22 48  1  0  0  0  0
 22 49  1  0  0  0  0
 23 25  1  0  0  0  0
 23 50  1  0  0  0  0
 23 51  1  0  0  0  0
 24 25  1  0  0  0  0
 24 52  1  0  0  0  0
 24 53  1  0  0  0  0
 25 55  1  0  0  0  0
 26 56  1  0  0  0  0
 27 28  1  0  0  0  0
 27 29  2  0  0  0  0
 28 59  1  0  0  0  0
 28 60  1  0  0  0  0
 29 30  1  0  0  0  0
 29 61  1  0  0  0  0
M  END
> <PUBCHEM_COMPOUND_CID>
12953

> <PUBCHEM_COMPOUND_CANONICALIZED>
1

> <PUBCHEM_CACTVS_COMPLEXITY>
809

> <PUBCHEM_CACTVS_HBOND_ACCEPTOR>
7

> <PUBCHEM_CACTVS_HBOND_DONOR>
4

> <PUBCHEM_CACTVS_ROTATABLE_BOND>
2

> <PUBCHEM_CACTVS_SUBSKEYS>
AAADcfB4OAAAAAAAAAAAAAAAAAAAAYIAAAAwYMAAAAAAAGDAAAAAGgAACAAAD1SggAICCAAABgCIAijSiAAAAAAgAAAACAEAAEgAFBYAIQACUAAFoAAIIQOI7PzPgAAAAAAAAADAAAYQADAAAYAADAAAAA==

> <PUBCHEM_IUPAC_OPENEYE_NAME>
(3S,5S,10S,12R,13S,14S,17R)-3,5,12,14-tetrahydroxy-13-methyl-17-(5-oxo-2H-furan-3-yl)-2,3,4,6,7,8,9,11,12,15,16,17-dodecahydro-1H-cyclopenta[a]phenanthrene-10-carbaldehyde

> <PUBCHEM_IUPAC_CAS_NAME>
(3S,5S,10S,12R,13S,14S,17R)-3,5,12,14-tetrahydroxy-13-methyl-17-(5-oxo-2H-furan-3-yl)-2,3,4,6,7,8,9,11,12,15,16,17-dodecahydro-1H-cyclopenta[a]phenanthrene-10-carboxaldehyde

> <PUBCHEM_IUPAC_NAME>
(3S,5S,10S,12R,13S,14S,17R)-3,5,12,14-tetrahydroxy-13-methyl-17-(5-oxo-2H-furan-3-yl)-2,3,4,6,7,8,9,11,12,15,16,17-dodecahydro-1H-cyclopenta[a]phenanthrene-10-carbaldehyde

> <PUBCHEM_IUPAC_SYSTEMATIC_NAME>
(3S,5S,10S,12R,13S,14S,17R)-13-methyl-3,5,12,14-tetrakis(oxidanyl)-17-(5-oxidanylidene-2H-furan-3-yl)-2,3,4,6,7,8,9,11,12,15,16,17-dodecahydro-1H-cyclopenta[a]phenanthrene-10-carbaldehyde

> <PUBCHEM_IUPAC_TRADITIONAL_NAME>
(3S,5S,10S,12R,13S,14S,17R)-3,5,12,14-tetrahydroxy-17-(5-keto-2H-furan-3-yl)-13-methyl-2,3,4,6,7,8,9,11,12,15,16,17-dodecahydro-1H-cyclopenta[a]phenanthrene-10-carbaldehyde

> <PUBCHEM_IUPAC_INCHI>
InChI=1S/C23H32O7/c1-20-15(13-8-19(27)30-11-13)4-7-23(20,29)16-3-6-22(28)10-14(25)2-5-21(22,12-24)17(16)9-18(20)26/h8,12,14-18,25-26,28-29H,2-7,9-11H2,1H3/t14-,15+,16?,17?,18+,20-,21-,22-,23-/m0/s1

> <PUBCHEM_IUPAC_INCHIKEY>
FMCCZSFBYFYVDN-MBDBEIGXSA-N

> <PUBCHEM_XLOGP3>
-0.5

> <PUBCHEM_EXACT_MASS>
420.214803

> <PUBCHEM_MOLECULAR_FORMULA>
C23H32O7

> <PUBCHEM_MOLECULAR_WEIGHT>
420.49598

> <PUBCHEM_OPENEYE_CAN_SMILES>
CC12C(CCC1(C3CCC4(CC(CCC4(C3CC2O)C=O)O)O)O)C5=CC(=O)OC5

> <PUBCHEM_OPENEYE_ISO_SMILES>
C[C@@]12[C@H](CC[C@@]1(C3CC[C@@]4(C[C@H](CC[C@@]4(C3C[C@H]2O)C=O)O)O)O)C5=CC(=O)OC5

> <PUBCHEM_CACTVS_TPSA>
124

> <PUBCHEM_MONOISOTOPIC_WEIGHT>
420.214803

> <PUBCHEM_TOTAL_CHARGE>
0

> <PUBCHEM_HEAVY_ATOM_COUNT>
30

> <PUBCHEM_ATOM_DEF_STEREO_COUNT>
7

> <PUBCHEM_ATOM_UDEF_STEREO_COUNT>
2

> <PUBCHEM_BOND_DEF_STEREO_COUNT>
0

> <PUBCHEM_BOND_UDEF_STEREO_COUNT>
0

> <PUBCHEM_ISOTOPIC_ATOM_COUNT>
0

> <PUBCHEM_COMPONENT_COUNT>
1

> <PUBCHEM_CACTVS_TAUTO_COUNT>
1

> <PUBCHEM_COORDINATE_TYPE>
1
5
255

> <PUBCHEM_BONDANNOTATIONS>
8  1  5
10  22  5
11  16  3
12  26  5
15  27  5
13  2  5
14  3  5
25  4  5
9  18  3

$$$$

