442020
  -OEChem-07051212562D

 76 82  0     1  0  0  0  0  0999 V2000
    2.9162   -0.8714    0.0000 N   0  0  3  0  0  0  0  0  0  0  0  0
    3.4414   -0.7650    0.0000 N   0  0  0  0  0  0  0  0  0  0  0  0
    7.1195   -1.4333    0.0000 N   0  0  0  0  0  0  0  0  0  0  0  0
    8.4786    2.5989    0.0000 N   0  0  0  0  0  0  0  0  0  0  0  0
    5.0531   -0.7664    0.0000 C   0  0  2  0  0  0  0  0  0  0  0  0
    4.2441   -0.1786    0.0000 C   0  0  1  0  0  0  0  0  0  0  0  0
    5.5531    0.7725    0.0000 C   0  0  2  0  0  0  0  0  0  0  0  0
    5.8621   -0.1786    0.0000 C   0  0  1  0  0  0  0  0  0  0  0  0
    4.5531    0.7725    0.0000 C   0  0  2  0  0  0  0  0  0  0  0  0
    4.8045   -2.2434    0.0000 C   0  0  0  0  0  0  0  0  0  0  0  0
    6.0877    1.6664    0.0000 C   0  0  0  0  0  0  0  0  0  0  0  0
    4.7434   -1.7110    0.0000 C   0  0  0  0  0  0  0  0  0  0  0  0
    3.3085   -2.3170    0.0000 C   0  0  0  0  0  0  0  0  0  0  0  0
    4.0184    1.6664    0.0000 C   0  0  0  0  0  0  0  0  0  0  0  0
    6.8132   -0.4876    0.0000 C   0  0  0  0  0  0  0  0  0  0  0  0
    3.7494   -1.7101    0.0000 C   0  0  0  0  0  0  0  0  0  0  0  0
    5.5739    2.5725    0.0000 C   0  0  0  0  0  0  0  0  0  0  0  0
    4.5323    2.5725    0.0000 C   0  0  0  0  0  0  0  0  0  0  0  0
    6.9595    2.1564    0.0000 C   0  0  0  0  0  0  0  0  0  0  0  0
    6.9479    1.1564    0.0000 C   0  0  0  0  0  0  0  0  0  0  0  0
    2.0000   -0.4706    0.0000 C   0  0  0  0  0  0  0  0  0  0  0  0
    5.6476   -2.2156    0.0000 C   0  0  0  0  0  0  0  0  0  0  0  0
    7.6169    0.0974    0.0000 C   0  0  0  0  0  0  0  0  0  0  0  0
    3.7325   -2.7455    0.0000 C   0  0  0  0  0  0  0  0  0  0  0  0
    4.0289    3.4366    0.0000 C   0  0  0  0  0  0  0  0  0  0  0  0
    5.6104   -3.0853    0.0000 C   0  0  0  0  0  0  0  0  0  0  0  0
    8.4226   -0.4848    0.0000 C   0  0  0  0  0  0  0  0  0  0  0  0
    8.1136   -1.4359    0.0000 C   0  0  0  0  0  0  0  0  0  0  0  0
    4.6690   -3.4366    0.0000 C   0  0  0  0  0  0  0  0  0  0  0  0
    7.6151    1.0974    0.0000 C   0  0  0  0  0  0  0  0  0  0  0  0
    9.4008   -0.2769    0.0000 C   0  0  0  0  0  0  0  0  0  0  0  0
    8.7827   -2.1790    0.0000 C   0  0  0  0  0  0  0  0  0  0  0  0
    8.4803    1.5989    0.0000 C   0  0  0  0  0  0  0  0  0  0  0  0
   10.0699   -1.0200    0.0000 C   0  0  0  0  0  0  0  0  0  0  0  0
    9.7609   -1.9711    0.0000 C   0  0  0  0  0  0  0  0  0  0  0  0
    9.3437    3.1004    0.0000 C   0  0  0  0  0  0  0  0  0  0  0  0
    6.3977    0.6771    0.0000 H   0  0  0  0  0  0  0  0  0  0  0  0
    6.4631    0.4225    0.0000 H   0  0  0  0  0  0  0  0  0  0  0  0
    3.7084    0.6771    0.0000 H   0  0  0  0  0  0  0  0  0  0  0  0
    4.7903   -2.8632    0.0000 H   0  0  0  0  0  0  0  0  0  0  0  0
    5.4217   -2.3021    0.0000 H   0  0  0  0  0  0  0  0  0  0  0  0
    2.7000   -2.4359    0.0000 H   0  0  0  0  0  0  0  0  0  0  0  0
    3.3834   -2.9324    0.0000 H   0  0  0  0  0  0  0  0  0  0  0  0
    3.3114   -0.1587    0.0000 H   0  0  0  0  0  0  0  0  0  0  0  0
    3.3984    1.6592    0.0000 H   0  0  0  0  0  0  0  0  0  0  0  0
    6.1576    2.7815    0.0000 H   0  0  0  0  0  0  0  0  0  0  0  0
    5.4678    3.1833    0.0000 H   0  0  0  0  0  0  0  0  0  0  0  0
    7.2633    1.6159    0.0000 H   0  0  0  0  0  0  0  0  0  0  0  0
    7.5000    2.4601    0.0000 H   0  0  0  0  0  0  0  0  0  0  0  0
    6.6557    2.6969    0.0000 H   0  0  0  0  0  0  0  0  0  0  0  0
    6.6317    0.6231    0.0000 H   0  0  0  0  0  0  0  0  0  0  0  0
    7.4812    0.8402    0.0000 H   0  0  0  0  0  0  0  0  0  0  0  0
    7.2641    1.6898    0.0000 H   0  0  0  0  0  0  0  0  0  0  0  0
    2.2485    0.0974    0.0000 H   0  0  0  0  0  0  0  0  0  0  0  0
    1.4320   -0.2221    0.0000 H   0  0  0  0  0  0  0  0  0  0  0  0
    1.7515   -1.0386    0.0000 H   0  0  0  0  0  0  0  0  0  0  0  0
    6.1889   -1.9132    0.0000 H   0  0  0  0  0  0  0  0  0  0  0  0
    6.7542   -1.9342    0.0000 H   0  0  0  0  0  0  0  0  0  0  0  0
    3.1768   -3.0204    0.0000 H   0  0  0  0  0  0  0  0  0  0  0  0
    4.5647    3.7486    0.0000 H   0  0  0  0  0  0  0  0  0  0  0  0
    3.7169    3.9723    0.0000 H   0  0  0  0  0  0  0  0  0  0  0  0
    3.4932    3.1245    0.0000 H   0  0  0  0  0  0  0  0  0  0  0  0
    6.1121   -3.4497    0.0000 H   0  0  0  0  0  0  0  0  0  0  0  0
    4.5829   -4.0506    0.0000 H   0  0  0  0  0  0  0  0  0  0  0  0
    7.4021    1.6796    0.0000 H   0  0  0  0  0  0  0  0  0  0  0  0
    7.0048    0.9887    0.0000 H   0  0  0  0  0  0  0  0  0  0  0  0
    9.5924    0.3128    0.0000 H   0  0  0  0  0  0  0  0  0  0  0  0
    8.5911   -2.7687    0.0000 H   0  0  0  0  0  0  0  0  0  0  0  0
    8.6934    1.0167    0.0000 H   0  0  0  0  0  0  0  0  0  0  0  0
    9.0907    1.7076    0.0000 H   0  0  0  0  0  0  0  0  0  0  0  0
   10.6763   -0.8911    0.0000 H   0  0  0  0  0  0  0  0  0  0  0  0
   10.1757   -2.4318    0.0000 H   0  0  0  0  0  0  0  0  0  0  0  0
    7.9411    2.9080    0.0000 H   0  0  0  0  0  0  0  0  0  0  0  0
    9.6547    2.5640    0.0000 H   0  0  0  0  0  0  0  0  0  0  0  0
    9.8801    3.4113    0.0000 H   0  0  0  0  0  0  0  0  0  0  0  0
    9.0328    3.6368    0.0000 H   0  0  0  0  0  0  0  0  0  0  0  0
  1  6  1  0  0  0  0
  1 13  1  0  0  0  0
  1 21  1  0  0  0  0
  6  2  1  1  0  0  0
  2 16  1  0  0  0  0
  2 44  1  0  0  0  0
  3 15  1  0  0  0  0
  3 28  1  0  0  0  0
  3 58  1  0  0  0  0
  4 33  1  0  0  0  0
  4 36  1  0  0  0  0
  4 73  1  0  0  0  0
  5  6  1  0  0  0  0
  5  8  1  0  0  0  0
  5 10  1  6  0  0  0
  5 12  1  0  0  0  0
  6  9  1  0  0  0  0
  7  8  1  0  0  0  0
  7  9  1  0  0  0  0
  7 11  1  0  0  0  0
  7 37  1  1  0  0  0
  8 15  1  0  0  0  0
  8 38  1  6  0  0  0
  9 14  1  0  0  0  0
  9 39  1  6  0  0  0
 10 13  1  0  0  0  0
 10 40  1  0  0  0  0
 10 41  1  0  0  0  0
 11 17  1  0  0  0  0
 11 19  1  0  0  0  0
 11 20  1  0  0  0  0
 12 16  1  0  0  0  0
 12 22  2  0  0  0  0
 13 42  1  0  0  0  0
 13 43  1  0  0  0  0
 14 18  2  0  0  0  0
 14 45  1  0  0  0  0
 15 23  2  0  0  0  0
 16 24  2  0  0  0  0
 17 18  1  0  0  0  0
 17 46  1  0  0  0  0
 17 47  1  0  0  0  0
 18 25  1  0  0  0  0
 19 48  1  0  0  0  0
 19 49  1  0  0  0  0
 19 50  1  0  0  0  0
 20 51  1  0  0  0  0
 20 52  1  0  0  0  0
 20 53  1  0  0  0  0
 21 54  1  0  0  0  0
 21 55  1  0  0  0  0
 21 56  1  0  0  0  0
 22 26  1  0  0  0  0
 22 57  1  0  0  0  0
 23 27  1  0  0  0  0
 23 30  1  0  0  0  0
 24 29  1  0  0  0  0
 24 59  1  0  0  0  0
 25 60  1  0  0  0  0
 25 61  1  0  0  0  0
 25 62  1  0  0  0  0
 26 29  2  0  0  0  0
 26 63  1  0  0  0  0
 27 28  1  0  0  0  0
 27 31  2  0  0  0  0
 28 32  2  0  0  0  0
 29 64  1  0  0  0  0
 30 33  1  0  0  0  0
 30 65  1  0  0  0  0
 30 66  1  0  0  0  0
 31 34  1  0  0  0  0
 31 67  1  0  0  0  0
 32 35  1  0  0  0  0
 32 68  1  0  0  0  0
 33 69  1  0  0  0  0
 33 70  1  0  0  0  0
 34 35  2  0  0  0  0
 34 71  1  0  0  0  0
 35 72  1  0  0  0  0
 36 74  1  0  0  0  0
 36 75  1  0  0  0  0
 36 76  1  0  0  0  0
M  END
> <PUBCHEM_COMPOUND_CID>
442020

> <PUBCHEM_COMPOUND_CANONICALIZED>
1

> <PUBCHEM_CACTVS_COMPLEXITY>
897

> <PUBCHEM_CACTVS_HBOND_ACCEPTOR>
3

> <PUBCHEM_CACTVS_HBOND_DONOR>
3

> <PUBCHEM_CACTVS_ROTATABLE_BOND>
4

> <PUBCHEM_CACTVS_SUBSKEYS>
AAADcfB/gAAAAAAAAAAAAAAAAAAAAeLFiAAwYIAAAAAWLFgB9AAAHAAQAAAADwjBHgQzwPPJkACgAyRiRACCgCAhAiAImaA4ZJiIIOLAkZGEIAhokALIyCcQgMAPgAAAAAACAAAAAAAAAAQAASAACQAAAA==

> <PUBCHEM_IUPAC_INCHI>
InChI=1S/C32H40N4/c1-20-18-24-27(30(2,3)19-20)28(29-22(14-16-33-4)21-10-6-8-12-25(21)34-29)31-15-17-36(5)32(24,31)35-26-13-9-7-11-23(26)31/h6-13,18,24,27-28,33-35H,14-17,19H2,1-5H3/t24-,27-,28-,31+,32+/m0/s1

> <PUBCHEM_IUPAC_INCHIKEY>
PHMBUGRSZKDHNS-QGEDZZHQSA-N

> <PUBCHEM_XLOGP3_AA>
5.7

> <PUBCHEM_EXACT_MASS>
480.325297

> <PUBCHEM_MOLECULAR_FORMULA>
C32H40N4

> <PUBCHEM_MOLECULAR_WEIGHT>
480.6868

> <PUBCHEM_OPENEYE_CAN_SMILES>
CC1=CC2C(C(C34C2(NC5=CC=CC=C53)N(CC4)C)C6=C(C7=CC=CC=C7N6)CCNC)C(C1)(C)C

> <PUBCHEM_OPENEYE_ISO_SMILES>
CC1=C[C@H]2[C@@H]([C@H]([C@]34[C@]2(NC5=CC=CC=C53)N(CC4)C)C6=C(C7=CC=CC=C7N6)CCNC)C(C1)(C)C

> <PUBCHEM_CACTVS_TPSA>
43.1

> <PUBCHEM_MONOISOTOPIC_WEIGHT>
480.325297

> <PUBCHEM_TOTAL_CHARGE>
0

> <PUBCHEM_HEAVY_ATOM_COUNT>
36

> <PUBCHEM_ATOM_DEF_STEREO_COUNT>
5

> <PUBCHEM_ATOM_UDEF_STEREO_COUNT>
0

> <PUBCHEM_BOND_DEF_STEREO_COUNT>
0

> <PUBCHEM_BOND_UDEF_STEREO_COUNT>
0

> <PUBCHEM_ISOTOPIC_ATOM_COUNT>
0

> <PUBCHEM_COMPONENT_COUNT>
1

> <PUBCHEM_CACTVS_TAUTO_COUNT>
1

> <PUBCHEM_COORDINATE_TYPE>
1
5
255

> <PUBCHEM_BONDANNOTATIONS>
12  16  8
12  22  8
15  23  8
16  24  8
6  2  5
22  26  8
23  27  8
24  29  8
26  29  8
27  28  8
27  31  8
28  32  8
3  15  8
3  28  8
31  34  8
32  35  8
34  35  8
5  10  6
7  37  5
8  38  6
9  39  6

$$$$

