   Chemical and Physical Properties References

   [1]USDA ARS - USDA chemical properties
   from [2]ChemIDplus

   Color/Form
        White crystalline solid [Note: Decomposes without melting above
   572 degrees F].
   from [3]HSDB

   Odor
        Faint, acrid odor.
   from [4]HSDB

   Melting Point
        140 deg C (decomposes)
   from [5]HSDB

   Corrosivity
        NON-CORROSIVE TO METALS
   from [6]HSDB

   Octanol/Water Partition Coefficient
        log Kow= 2.12
   from [7]HSDB

   Solubilities

     * Solubility (25 deg C): 18 g/kg acetone; 94 g/kg chloroform; 53 g/kg
       dimethylformamide; 4 g/kg ethanol; 0.4 g/kg heptane; 10 g/kg
       xylene.
     * In water 3.8 ppm @ 20 deg C.

   from [8]HSDB

   Spectral Properties
        Intense mass spectral peaks: 191 m/z (100%), 159 m/z (99%), 105
   m/z (44%), 42 m/z (41%)
   from [9]HSDB

   Vapor Pressure
        3.7X10-9 mm Hg @ 25 deg C
   from [10]HSDB

   Other Chemical/Physical Properties

     * In some solvents dissociation occurs to form carbendazim and butyl
       isocyanate. ... Decomposed by strong acids and strong alkalis.
     * OPTIMAL PH FOR HYDROXYLATION WAS BETWEEN PH 7.0 & 8.0, & @ ABOUT
       8.0 FOR ESTER CLEAVAGE; BUTYLCARBAMOYL SIDE CHAIN WAS STABLE @ PH
       7.5 BUT BECAME INCREASINGLY LABILE WITH INCREASING ACIDITY.
     * DECOMP WITHOUT MELTING.
     * IN AQ SOLN, BENOMYL DECOMPOSES TO METHYL N-(2-BENZIMIDAZOLYL)
       CARBAMATE & THE ETHYL ANALOG.
     * Henry's Law constant = 4.93X10-12 atm-cu m/mole @ 25 deg C

   from [11]HSDB

   Computed Properties
   Molecular Weight                  290.31772 [g/mol]
   Molecular Formula                 C[14]H[18]N[4]O[3]
   XLogP3                            2.1
   H-Bond Donor                      2
   H-Bond Acceptor                   4
   Rotatable Bond Count              5
   Tautomer Count                    6
   Exact Mass                        290.13789
   MonoIsotopic Mass                 290.13789
   Topological Polar Surface Area    85.2
   Heavy Atom Count                  21
   Formal Charge                     0
   Complexity                        377
   Isotope Atom Count                0
   Defined Atom Stereocenter Count   0
   Undefined Atom Stereocenter Count 0
   Defined Bond Stereocenter Count   0
   Undefined Bond Stereocenter Count 0
   Covalently-Bonded Unit Count      1
   Feature 3D Acceptor Count         2
   Feature 3D Donor Count            2
   Feature 3D Hydrophobe Count       1
   Feature 3D Ring Count             2
   Effective Rotor Count             8
   Conformer Sampling RMSD           0.8
   CID Conformer Count               [12]66

References

   1. http://www.ars.usda.gov/SP2UserFiles/ad_hoc/12755100DatabaseFiles/PesticidePropertiesDatabase/IndividualPesticideFiles/BENOMYL.TXT
   2. http://chem.sis.nlm.nih.gov/chemidplus/
   3. http://toxnet.nlm.nih.gov/cgi-bin/sis/search/r?dbs+hsdb:@term+@rn+@rel+17804-35-2
   4. http://toxnet.nlm.nih.gov/cgi-bin/sis/search/r?dbs+hsdb:@term+@rn+@rel+17804-35-2
   5. http://toxnet.nlm.nih.gov/cgi-bin/sis/search/r?dbs+hsdb:@term+@rn+@rel+17804-35-2
   6. http://toxnet.nlm.nih.gov/cgi-bin/sis/search/r?dbs+hsdb:@term+@rn+@rel+17804-35-2
   7. http://toxnet.nlm.nih.gov/cgi-bin/sis/search/r?dbs+hsdb:@term+@rn+@rel+17804-35-2
   8. http://toxnet.nlm.nih.gov/cgi-bin/sis/search/r?dbs+hsdb:@term+@rn+@rel+17804-35-2
   9. http://toxnet.nlm.nih.gov/cgi-bin/sis/search/r?dbs+hsdb:@term+@rn+@rel+17804-35-2
  10. http://toxnet.nlm.nih.gov/cgi-bin/sis/search/r?dbs+hsdb:@term+@rn+@rel+17804-35-2
  11. http://toxnet.nlm.nih.gov/cgi-bin/sis/search/r?dbs+hsdb:@term+@rn+@rel+17804-35-2
  12. http://pubchem.ncbi.nlm.nih.gov/vw3d/vw3d.cgi?cid=28780
