8248
  -OEChem-06261202412D

 63 62  0     0  0  0  0  0  0999 V2000
    8.8070    0.8660    0.0000 S   0  0  0  0  0  0  0  0  0  0  0  0
    9.6730    1.3660    0.0000 O   0  5  0  0  0  0  0  0  0  0  0  0
    7.9409    0.3660    0.0000 O   0  5  0  0  0  0  0  0  0  0  0  0
    8.3070    1.7320    0.0000 O   0  0  0  0  0  0  0  0  0  0  0  0
    9.3070    0.0000    0.0000 O   0  0  0  0  0  0  0  0  0  0  0  0
    2.2690    5.9860    0.0000 N   0  0  0  0  0  0  0  0  0  0  0  0
    8.8070    7.8520    0.0000 N   0  0  0  0  0  0  0  0  0  0  0  0
    3.1350    7.4860    0.0000 N   0  3  0  0  0  0  0  0  0  0  0  0
    9.6730    9.3520    0.0000 N   0  3  0  0  0  0  0  0  0  0  0  0
    1.4030    7.4860    0.0000 N   0  0  0  0  0  0  0  0  0  0  0  0
    7.9409    9.3520    0.0000 N   0  0  0  0  0  0  0  0  0  0  0  0
    1.4030    5.4860    0.0000 C   0  0  0  0  0  0  0  0  0  0  0  0
    7.9409    7.3520    0.0000 C   0  0  0  0  0  0  0  0  0  0  0  0
    1.4030    4.4860    0.0000 C   0  0  0  0  0  0  0  0  0  0  0  0
    7.9409    6.3520    0.0000 C   0  0  0  0  0  0  0  0  0  0  0  0
    2.2690    6.9860    0.0000 C   0  0  0  0  0  0  0  0  0  0  0  0
    8.8070    8.8520    0.0000 C   0  0  0  0  0  0  0  0  0  0  0  0
    0.5369    3.9860    0.0000 C   0  0  0  0  0  0  0  0  0  0  0  0
    7.0749    5.8520    0.0000 C   0  0  0  0  0  0  0  0  0  0  0  0
    2.2690    3.9860    0.0000 C   0  0  0  0  0  0  0  0  0  0  0  0
    8.8070    5.8520    0.0000 C   0  0  0  0  0  0  0  0  0  0  0  0
    4.0010    7.9860    0.0000 C   0  0  0  0  0  0  0  0  0  0  0  0
   10.5390    9.8520    0.0000 C   0  0  0  0  0  0  0  0  0  0  0  0
    0.5369    2.9860    0.0000 C   0  0  0  0  0  0  0  0  0  0  0  0
    7.0749    4.8520    0.0000 C   0  0  0  0  0  0  0  0  0  0  0  0
    2.2690    2.9860    0.0000 C   0  0  0  0  0  0  0  0  0  0  0  0
    8.8070    4.8520    0.0000 C   0  0  0  0  0  0  0  0  0  0  0  0
    1.4030    2.4860    0.0000 C   0  0  0  0  0  0  0  0  0  0  0  0
    7.9409    4.3520    0.0000 C   0  0  0  0  0  0  0  0  0  0  0  0
    7.9409   10.3521    0.0000 C   0  0  0  0  0  0  0  0  0  0  0  0
    1.4030    8.4860    0.0000 C   0  0  0  0  0  0  0  0  0  0  0  0
    7.7289    7.9347    0.0000 H   0  0  0  0  0  0  0  0  0  0  0  0
    7.3304    7.2444    0.0000 H   0  0  0  0  0  0  0  0  0  0  0  0
    1.1909    6.0686    0.0000 H   0  0  0  0  0  0  0  0  0  0  0  0
    0.7924    5.3784    0.0000 H   0  0  0  0  0  0  0  0  0  0  0  0
    2.8059    5.6760    0.0000 H   0  0  0  0  0  0  0  0  0  0  0  0
    9.3439    7.5420    0.0000 H   0  0  0  0  0  0  0  0  0  0  0  0
    2.8250    8.0230    0.0000 H   0  0  0  0  0  0  0  0  0  0  0  0
    3.4450    6.9491    0.0000 H   0  0  0  0  0  0  0  0  0  0  0  0
    9.3630    9.8890    0.0000 H   0  0  0  0  0  0  0  0  0  0  0  0
    9.9830    8.8151    0.0000 H   0  0  0  0  0  0  0  0  0  0  0  0
    0.0000    4.2960    0.0000 H   0  0  0  0  0  0  0  0  0  0  0  0
    6.5380    6.1620    0.0000 H   0  0  0  0  0  0  0  0  0  0  0  0
    2.8059    4.2960    0.0000 H   0  0  0  0  0  0  0  0  0  0  0  0
    9.3439    6.1620    0.0000 H   0  0  0  0  0  0  0  0  0  0  0  0
    4.3110    7.4491    0.0000 H   0  0  0  0  0  0  0  0  0  0  0  0
    4.5380    8.2960    0.0000 H   0  0  0  0  0  0  0  0  0  0  0  0
    3.6910    8.5230    0.0000 H   0  0  0  0  0  0  0  0  0  0  0  0
   10.8490    9.3151    0.0000 H   0  0  0  0  0  0  0  0  0  0  0  0
   11.0759   10.1621    0.0000 H   0  0  0  0  0  0  0  0  0  0  0  0
   10.2290   10.3890    0.0000 H   0  0  0  0  0  0  0  0  0  0  0  0
    0.0000    2.6760    0.0000 H   0  0  0  0  0  0  0  0  0  0  0  0
    6.5380    4.5420    0.0000 H   0  0  0  0  0  0  0  0  0  0  0  0
    2.8059    2.6760    0.0000 H   0  0  0  0  0  0  0  0  0  0  0  0
    9.3439    4.5420    0.0000 H   0  0  0  0  0  0  0  0  0  0  0  0
    1.4030    1.8660    0.0000 H   0  0  0  0  0  0  0  0  0  0  0  0
    7.9409    3.7320    0.0000 H   0  0  0  0  0  0  0  0  0  0  0  0
    8.5609   10.3521    0.0000 H   0  0  0  0  0  0  0  0  0  0  0  0
    7.9409   10.9721    0.0000 H   0  0  0  0  0  0  0  0  0  0  0  0
    7.3209   10.3521    0.0000 H   0  0  0  0  0  0  0  0  0  0  0  0
    2.0230    8.4860    0.0000 H   0  0  0  0  0  0  0  0  0  0  0  0
    1.4030    9.1060    0.0000 H   0  0  0  0  0  0  0  0  0  0  0  0
    0.7830    8.4860    0.0000 H   0  0  0  0  0  0  0  0  0  0  0  0
  1  2  1  0  0  0  0
  1  3  1  0  0  0  0
  1  4  2  0  0  0  0
  1  5  2  0  0  0  0
  6 12  1  0  0  0  0
  6 16  1  0  0  0  0
  6 36  1  0  0  0  0
  7 13  1  0  0  0  0
  7 17  1  0  0  0  0
  7 37  1  0  0  0  0
  8 16  1  0  0  0  0
  8 22  1  0  0  0  0
  8 38  1  0  0  0  0
  8 39  1  0  0  0  0
  9 17  1  0  0  0  0
  9 23  1  0  0  0  0
  9 40  1  0  0  0  0
  9 41  1  0  0  0  0
 10 16  2  0  0  0  0
 10 31  1  0  0  0  0
 11 17  2  0  0  0  0
 11 30  1  0  0  0  0
 12 14  1  0  0  0  0
 12 34  1  0  0  0  0
 12 35  1  0  0  0  0
 13 15  1  0  0  0  0
 13 32  1  0  0  0  0
 13 33  1  0  0  0  0
 14 18  2  0  0  0  0
 14 20  1  0  0  0  0
 15 19  2  0  0  0  0
 15 21  1  0  0  0  0
 18 24  1  0  0  0  0
 18 42  1  0  0  0  0
 19 25  1  0  0  0  0
 19 43  1  0  0  0  0
 20 26  2  0  0  0  0
 20 44  1  0  0  0  0
 21 27  2  0  0  0  0
 21 45  1  0  0  0  0
 22 46  1  0  0  0  0
 22 47  1  0  0  0  0
 22 48  1  0  0  0  0
 23 49  1  0  0  0  0
 23 50  1  0  0  0  0
 23 51  1  0  0  0  0
 24 28  2  0  0  0  0
 24 52  1  0  0  0  0
 25 29  2  0  0  0  0
 25 53  1  0  0  0  0
 26 28  1  0  0  0  0
 26 54  1  0  0  0  0
 27 29  1  0  0  0  0
 27 55  1  0  0  0  0
 28 56  1  0  0  0  0
 29 57  1  0  0  0  0
 30 58  1  0  0  0  0
 30 59  1  0  0  0  0
 30 60  1  0  0  0  0
 31 61  1  0  0  0  0
 31 62  1  0  0  0  0
 31 63  1  0  0  0  0
M  CHG  4   2  -1   3  -1   8   1   9   1
M  END
> <PUBCHEM_COMPOUND_CID>
8248

> <PUBCHEM_COMPOUND_CANONICALIZED>
1

> <PUBCHEM_CACTVS_COMPLEXITY>
222

> <PUBCHEM_CACTVS_HBOND_ACCEPTOR>
6

> <PUBCHEM_CACTVS_HBOND_DONOR>
4

> <PUBCHEM_CACTVS_ROTATABLE_BOND>
8

> <PUBCHEM_CACTVS_SUBSKEYS>
AAADcfB7uABAAAAAAAAAAAAAAAAAAAAAAAAwYAAAAAAAAAABQAAAHAAQAAAADADBGAQzAILAAACgAiBCJDCCAAEgAAAJiIAIBIiIICKAmRGEIAhogAIIiAcQgAAOAAAAAAAAAAAAAAAAAAAAAAAAAAAAAA==

> <PUBCHEM_IUPAC_OPENEYE_NAME>
(N-benzyl-N'-methyl-carbamimidoyl)-methyl-ammonium sulfate

> <PUBCHEM_IUPAC_CAS_NAME>
methyl-[methylimino-[(phenylmethyl)amino]methyl]ammonium sulfate

> <PUBCHEM_IUPAC_NAME>
(N-benzyl-N'-methylcarbamimidoyl)-methylazanium sulfate

> <PUBCHEM_IUPAC_SYSTEMATIC_NAME>
methyl-[N'-methyl-N-(phenylmethyl)carbamimidoyl]azanium sulfate

> <PUBCHEM_IUPAC_TRADITIONAL_NAME>
(N-benzyl-N'-methyl-amidino)-methyl-ammonium sulfate

> <PUBCHEM_IUPAC_INCHI>
InChI=1S/2C10H15N3.H2O4S/c2*1-11-10(12-2)13-8-9-6-4-3-5-7-9;1-5(2,3)4/h2*3-7H,8H2,1-2H3,(H2,11,12,13);(H2,1,2,3,4)

> <PUBCHEM_IUPAC_INCHIKEY>
YTIJUXVIZLYQTB-UHFFFAOYSA-N

> <PUBCHEM_EXACT_MASS>
452.220575

> <PUBCHEM_MOLECULAR_FORMULA>
C20H32N6O4S

> <PUBCHEM_MOLECULAR_WEIGHT>
452.57088

> <PUBCHEM_OPENEYE_CAN_SMILES>
C[NH2+]C(=NC)NCC1=CC=CC=C1.C[NH2+]C(=NC)NCC1=CC=CC=C1.[O-]S(=O)(=O)[O-]

> <PUBCHEM_OPENEYE_ISO_SMILES>
C[NH2+]C(=NC)NCC1=CC=CC=C1.C[NH2+]C(=NC)NCC1=CC=CC=C1.[O-]S(=O)(=O)[O-]

> <PUBCHEM_CACTVS_TPSA>
171

> <PUBCHEM_MONOISOTOPIC_WEIGHT>
452.220575

> <PUBCHEM_TOTAL_CHARGE>
0

> <PUBCHEM_HEAVY_ATOM_COUNT>
31

> <PUBCHEM_ATOM_DEF_STEREO_COUNT>
0

> <PUBCHEM_ATOM_UDEF_STEREO_COUNT>
0

> <PUBCHEM_BOND_DEF_STEREO_COUNT>
0

> <PUBCHEM_BOND_UDEF_STEREO_COUNT>
0

> <PUBCHEM_ISOTOPIC_ATOM_COUNT>
0

> <PUBCHEM_COMPONENT_COUNT>
3

> <PUBCHEM_CACTVS_TAUTO_COUNT>
6

> <PUBCHEM_COORDINATE_TYPE>
1
5
255

> <PUBCHEM_BONDANNOTATIONS>
14  18  8
14  20  8
15  19  8
15  21  8
18  24  8
19  25  8
20  26  8
21  27  8
24  28  8
25  29  8
26  28  8
27  29  8

$$$$

