162366
  -OEChem-07051213122D

 90 86  0     0  0  0  0  0  0999 V2000
   11.4050    1.5000    0.0000 O   0  0  0  0  0  0  0  0  0  0  0  0
   20.5411   11.2150    0.0000 O   0  0  0  0  0  0  0  0  0  0  0  0
    2.2690   11.2150    0.0000 O   0  0  0  0  0  0  0  0  0  0  0  0
   10.5390    0.0000    0.0000 O   0  0  0  0  0  0  0  0  0  0  0  0
   19.6751    9.7150    0.0000 O   0  0  0  0  0  0  0  0  0  0  0  0
    1.4030    9.7150    0.0000 O   0  0  0  0  0  0  0  0  0  0  0  0
   10.5390   12.8469    0.0000 N   0  0  0  0  0  0  0  0  0  0  0  0
   14.8691   19.3469    0.0000 N   0  0  0  0  0  0  0  0  0  0  0  0
    7.0749    5.8469    0.0000 N   0  0  0  0  0  0  0  0  0  0  0  0
   15.7352   20.8469    0.0000 N   0  0  0  0  0  0  0  0  0  0  0  0
   14.0031   20.8469    0.0000 N   0  0  0  0  0  0  0  0  0  0  0  0
    6.2089    4.3469    0.0000 N   0  0  0  0  0  0  0  0  0  0  0  0
    5.3429    5.8469    0.0000 N   0  0  0  0  0  0  0  0  0  0  0  0
   12.2711   14.8469    0.0000 C   0  0  0  0  0  0  0  0  0  0  0  0
    9.6730   10.3469    0.0000 C   0  0  0  0  0  0  0  0  0  0  0  0
   12.2711   15.8469    0.0000 C   0  0  0  0  0  0  0  0  0  0  0  0
    8.8070    9.8469    0.0000 C   0  0  0  0  0  0  0  0  0  0  0  0
   11.4050   14.3469    0.0000 C   0  0  0  0  0  0  0  0  0  0  0  0
    9.6730   11.3469    0.0000 C   0  0  0  0  0  0  0  0  0  0  0  0
   13.1371   16.3469    0.0000 C   0  0  0  0  0  0  0  0  0  0  0  0
    8.8070    8.8469    0.0000 C   0  0  0  0  0  0  0  0  0  0  0  0
   11.4050   13.3469    0.0000 C   0  0  0  0  0  0  0  0  0  0  0  0
   10.5390   11.8469    0.0000 C   0  0  0  0  0  0  0  0  0  0  0  0
   13.1371   17.3469    0.0000 C   0  0  0  0  0  0  0  0  0  0  0  0
    7.9409    8.3469    0.0000 C   0  0  0  0  0  0  0  0  0  0  0  0
   14.0031   17.8469    0.0000 C   0  0  0  0  0  0  0  0  0  0  0  0
    7.9409    7.3469    0.0000 C   0  0  0  0  0  0  0  0  0  0  0  0
   14.0031   18.8469    0.0000 C   0  0  0  0  0  0  0  0  0  0  0  0
    7.0749    6.8469    0.0000 C   0  0  0  0  0  0  0  0  0  0  0  0
   14.8691   20.3469    0.0000 C   0  0  0  0  0  0  0  0  0  0  0  0
    6.2089    5.3469    0.0000 C   0  0  0  0  0  0  0  0  0  0  0  0
    9.6730    1.5000    0.0000 C   0  0  0  0  0  0  0  0  0  0  0  0
   18.8090   11.2150    0.0000 C   0  0  0  0  0  0  0  0  0  0  0  0
    0.5369   11.2150    0.0000 C   0  0  0  0  0  0  0  0  0  0  0  0
   10.5390    1.0000    0.0000 C   0  0  0  0  0  0  0  0  0  0  0  0
   19.6751   10.7150    0.0000 C   0  0  0  0  0  0  0  0  0  0  0  0
    1.4030   10.7150    0.0000 C   0  0  0  0  0  0  0  0  0  0  0  0
   12.4831   14.2643    0.0000 H   0  0  0  0  0  0  0  0  0  0  0  0
   12.8816   14.9546    0.0000 H   0  0  0  0  0  0  0  0  0  0  0  0
    9.8850    9.7643    0.0000 H   0  0  0  0  0  0  0  0  0  0  0  0
   10.2836   10.4546    0.0000 H   0  0  0  0  0  0  0  0  0  0  0  0
   12.0590   16.4295    0.0000 H   0  0  0  0  0  0  0  0  0  0  0  0
   11.6605   15.7393    0.0000 H   0  0  0  0  0  0  0  0  0  0  0  0
    8.5949   10.4295    0.0000 H   0  0  0  0  0  0  0  0  0  0  0  0
    8.1964    9.7393    0.0000 H   0  0  0  0  0  0  0  0  0  0  0  0
   11.1930   14.9295    0.0000 H   0  0  0  0  0  0  0  0  0  0  0  0
   10.7945   14.2393    0.0000 H   0  0  0  0  0  0  0  0  0  0  0  0
    9.4609   11.9295    0.0000 H   0  0  0  0  0  0  0  0  0  0  0  0
    9.0624   11.2393    0.0000 H   0  0  0  0  0  0  0  0  0  0  0  0
   13.3491   15.7643    0.0000 H   0  0  0  0  0  0  0  0  0  0  0  0
   13.7477   16.4546    0.0000 H   0  0  0  0  0  0  0  0  0  0  0  0
    9.0190    8.2643    0.0000 H   0  0  0  0  0  0  0  0  0  0  0  0
    9.4175    8.9546    0.0000 H   0  0  0  0  0  0  0  0  0  0  0  0
   11.6171   12.7643    0.0000 H   0  0  0  0  0  0  0  0  0  0  0  0
   12.0156   13.4546    0.0000 H   0  0  0  0  0  0  0  0  0  0  0  0
   10.7511   11.2643    0.0000 H   0  0  0  0  0  0  0  0  0  0  0  0
   11.1496   11.9546    0.0000 H   0  0  0  0  0  0  0  0  0  0  0  0
   12.9250   17.9295    0.0000 H   0  0  0  0  0  0  0  0  0  0  0  0
   12.5265   17.2393    0.0000 H   0  0  0  0  0  0  0  0  0  0  0  0
    7.7289    8.9296    0.0000 H   0  0  0  0  0  0  0  0  0  0  0  0
    7.3304    8.2393    0.0000 H   0  0  0  0  0  0  0  0  0  0  0  0
   10.0021   13.1569    0.0000 H   0  0  0  0  0  0  0  0  0  0  0  0
    8.1530    6.7643    0.0000 H   0  0  0  0  0  0  0  0  0  0  0  0
    8.5515    7.4546    0.0000 H   0  0  0  0  0  0  0  0  0  0  0  0
   14.2152   17.2643    0.0000 H   0  0  0  0  0  0  0  0  0  0  0  0
   14.6137   17.9546    0.0000 H   0  0  0  0  0  0  0  0  0  0  0  0
   13.7911   19.4295    0.0000 H   0  0  0  0  0  0  0  0  0  0  0  0
   13.3925   18.7393    0.0000 H   0  0  0  0  0  0  0  0  0  0  0  0
    6.8629    7.4295    0.0000 H   0  0  0  0  0  0  0  0  0  0  0  0
    6.4643    6.7393    0.0000 H   0  0  0  0  0  0  0  0  0  0  0  0
    4.8059    5.5369    0.0000 H   0  0  0  0  0  0  0  0  0  0  0  0
    5.3429    6.4669    0.0000 H   0  0  0  0  0  0  0  0  0  0  0  0
    5.6720    4.0369    0.0000 H   0  0  0  0  0  0  0  0  0  0  0  0
    6.7458    4.0369    0.0000 H   0  0  0  0  0  0  0  0  0  0  0  0
   13.4662   20.5369    0.0000 H   0  0  0  0  0  0  0  0  0  0  0  0
   14.0031   21.4669    0.0000 H   0  0  0  0  0  0  0  0  0  0  0  0
   16.2721   20.5369    0.0000 H   0  0  0  0  0  0  0  0  0  0  0  0
   15.7352   21.4669    0.0000 H   0  0  0  0  0  0  0  0  0  0  0  0
    9.9830    2.0369    0.0000 H   0  0  0  0  0  0  0  0  0  0  0  0
    9.1360    1.8100    0.0000 H   0  0  0  0  0  0  0  0  0  0  0  0
    9.3630    0.9631    0.0000 H   0  0  0  0  0  0  0  0  0  0  0  0
   19.1190   11.7519    0.0000 H   0  0  0  0  0  0  0  0  0  0  0  0
   18.2721   11.5250    0.0000 H   0  0  0  0  0  0  0  0  0  0  0  0
   18.4990   10.6781    0.0000 H   0  0  0  0  0  0  0  0  0  0  0  0
    0.8469   11.7519    0.0000 H   0  0  0  0  0  0  0  0  0  0  0  0
    0.0000   11.5250    0.0000 H   0  0  0  0  0  0  0  0  0  0  0  0
    0.2269   10.6781    0.0000 H   0  0  0  0  0  0  0  0  0  0  0  0
   11.9420    1.1900    0.0000 H   0  0  0  0  0  0  0  0  0  0  0  0
   21.0780   10.9050    0.0000 H   0  0  0  0  0  0  0  0  0  0  0  0
    2.8059   10.9050    0.0000 H   0  0  0  0  0  0  0  0  0  0  0  0
  1 35  1  0  0  0  0
  1 88  1  0  0  0  0
  2 36  1  0  0  0  0
  2 89  1  0  0  0  0
  3 37  1  0  0  0  0
  3 90  1  0  0  0  0
  4 35  2  0  0  0  0
  5 36  2  0  0  0  0
  6 37  2  0  0  0  0
  7 22  1  0  0  0  0
  7 23  1  0  0  0  0
  7 62  1  0  0  0  0
  8 28  1  0  0  0  0
  8 30  2  0  0  0  0
  9 29  1  0  0  0  0
  9 31  2  0  0  0  0
 10 30  1  0  0  0  0
 10 77  1  0  0  0  0
 10 78  1  0  0  0  0
 11 30  1  0  0  0  0
 11 75  1  0  0  0  0
 11 76  1  0  0  0  0
 12 31  1  0  0  0  0
 12 73  1  0  0  0  0
 12 74  1  0  0  0  0
 13 31  1  0  0  0  0
 13 71  1  0  0  0  0
 13 72  1  0  0  0  0
 14 16  1  0  0  0  0
 14 18  1  0  0  0  0
 14 38  1  0  0  0  0
 14 39  1  0  0  0  0
 15 17  1  0  0  0  0
 15 19  1  0  0  0  0
 15 40  1  0  0  0  0
 15 41  1  0  0  0  0
 16 20  1  0  0  0  0
 16 42  1  0  0  0  0
 16 43  1  0  0  0  0
 17 21  1  0  0  0  0
 17 44  1  0  0  0  0
 17 45  1  0  0  0  0
 18 22  1  0  0  0  0
 18 46  1  0  0  0  0
 18 47  1  0  0  0  0
 19 23  1  0  0  0  0
 19 48  1  0  0  0  0
 19 49  1  0  0  0  0
 20 24  1  0  0  0  0
 20 50  1  0  0  0  0
 20 51  1  0  0  0  0
 21 25  1  0  0  0  0
 21 52  1  0  0  0  0
 21 53  1  0  0  0  0
 22 54  1  0  0  0  0
 22 55  1  0  0  0  0
 23 56  1  0  0  0  0
 23 57  1  0  0  0  0
 24 26  1  0  0  0  0
 24 58  1  0  0  0  0
 24 59  1  0  0  0  0
 25 27  1  0  0  0  0
 25 60  1  0  0  0  0
 25 61  1  0  0  0  0
 26 28  1  0  0  0  0
 26 65  1  0  0  0  0
 26 66  1  0  0  0  0
 27 29  1  0  0  0  0
 27 63  1  0  0  0  0
 27 64  1  0  0  0  0
 28 67  1  0  0  0  0
 28 68  1  0  0  0  0
 29 69  1  0  0  0  0
 29 70  1  0  0  0  0
 32 35  1  0  0  0  0
 32 79  1  0  0  0  0
 32 80  1  0  0  0  0
 32 81  1  0  0  0  0
 33 36  1  0  0  0  0
 33 82  1  0  0  0  0
 33 83  1  0  0  0  0
 33 84  1  0  0  0  0
 34 37  1  0  0  0  0
 34 85  1  0  0  0  0
 34 86  1  0  0  0  0
 34 87  1  0  0  0  0
M  END
> <PUBCHEM_COMPOUND_CID>
162366

> <PUBCHEM_COMPOUND_CANONICALIZED>
1

> <PUBCHEM_CACTVS_COMPLEXITY>
333

> <PUBCHEM_CACTVS_HBOND_ACCEPTOR>
9

> <PUBCHEM_CACTVS_HBOND_DONOR>
8

> <PUBCHEM_CACTVS_ROTATABLE_BOND>
18

> <PUBCHEM_CACTVS_SUBSKEYS>
AAADcfB7uAAAAAAAAAAAAAAAAAAAAAAAAAAAAAAAAAAAAAAAAAAAHgAQCAAACADBgAQDCALAAgAoAACQLAAAAAEAAAAAAIAIAAAAAAIAgAAEAAAAEACAAAEQgIAAAAAAAAAAAAAAAAAAAAAAAAAAAAAAAA==

> <PUBCHEM_IUPAC_OPENEYE_NAME>
acetic acid; 2-[8-(8-guanidinooctylamino)octyl]guanidine

> <PUBCHEM_IUPAC_CAS_NAME>
acetic acid; 2-[8-[8-(diaminomethylideneamino)octylamino]octyl]guanidine

> <PUBCHEM_IUPAC_NAME>
acetic acid; 2-[8-[8-(diaminomethylideneamino)octylamino]octyl]guanidine

> <PUBCHEM_IUPAC_SYSTEMATIC_NAME>
2-[8-[8-[bis(azanyl)methylideneamino]octylamino]octyl]guanidine; ethanoic acid

> <PUBCHEM_IUPAC_TRADITIONAL_NAME>
acetic acid; 2-[8-(8-guanidinooctylamino)octyl]guanidine

> <PUBCHEM_IUPAC_INCHI>
InChI=1S/C18H41N7.3C2H4O2/c19-17(20)24-15-11-7-3-1-5-9-13-23-14-10-6-2-4-8-12-16-25-18(21)22;3*1-2(3)4/h23H,1-16H2,(H4,19,20,24)(H4,21,22,25);3*1H3,(H,3,4)

> <PUBCHEM_IUPAC_INCHIKEY>
FKWDSATZSMJRLC-UHFFFAOYSA-N

> <PUBCHEM_EXACT_MASS>
535.405732

> <PUBCHEM_MOLECULAR_FORMULA>
C24H53N7O6

> <PUBCHEM_MOLECULAR_WEIGHT>
535.72092

> <PUBCHEM_OPENEYE_CAN_SMILES>
CC(=O)O.CC(=O)O.CC(=O)O.C(CCCCN=C(N)N)CCCNCCCCCCCCN=C(N)N

> <PUBCHEM_OPENEYE_ISO_SMILES>
CC(=O)O.CC(=O)O.CC(=O)O.C(CCCCN=C(N)N)CCCNCCCCCCCCN=C(N)N

> <PUBCHEM_CACTVS_TPSA>
253

> <PUBCHEM_MONOISOTOPIC_WEIGHT>
535.405732

> <PUBCHEM_TOTAL_CHARGE>
0

> <PUBCHEM_HEAVY_ATOM_COUNT>
37

> <PUBCHEM_ATOM_DEF_STEREO_COUNT>
0

> <PUBCHEM_ATOM_UDEF_STEREO_COUNT>
0

> <PUBCHEM_BOND_DEF_STEREO_COUNT>
0

> <PUBCHEM_BOND_UDEF_STEREO_COUNT>
0

> <PUBCHEM_ISOTOPIC_ATOM_COUNT>
0

> <PUBCHEM_COMPONENT_COUNT>
4

> <PUBCHEM_CACTVS_TAUTO_COUNT>
3

> <PUBCHEM_COORDINATE_TYPE>
1
5
255

$$$$

