5893
  -OEChem-07051212432D

 72 76  0     1  0  0  0  0  0999 V2000
    5.0474    0.6813    0.0000 P   0  0  3  0  0  0  0  0  0  0  0  0
    5.4104    2.3749    0.0000 P   0  0  3  0  0  0  0  0  0  0  0  0
    4.4026   -2.7718    0.0000 O   0  0  0  0  0  0  0  0  0  0  0  0
    7.4382    4.7042    0.0000 O   0  0  0  0  0  0  0  0  0  0  0  0
    6.7523   -1.6881    0.0000 O   0  0  0  0  0  0  0  0  0  0  0  0
    6.7485   -3.8637    0.0000 O   0  0  0  0  0  0  0  0  0  0  0  0
    5.3248    6.1973    0.0000 O   0  0  0  0  0  0  0  0  0  0  0  0
    7.2108    7.2818    0.0000 O   0  0  0  0  0  0  0  0  0  0  0  0
    5.3548   -0.2703    0.0000 O   0  0  0  0  0  0  0  0  0  0  0  0
    6.0809    3.1169    0.0000 O   0  0  0  0  0  0  0  0  0  0  0  0
    4.7400    1.6329    0.0000 O   0  0  0  0  0  0  0  0  0  0  0  0
    5.9990    0.9887    0.0000 O   0  0  0  0  0  0  0  0  0  0  0  0
    4.6685    3.0453    0.0000 O   0  0  0  0  0  0  0  0  0  0  0  0
    4.0958    0.3740    0.0000 O   0  0  0  0  0  0  0  0  0  0  0  0
    6.1524    1.7045    0.0000 O   0  0  0  0  0  0  0  0  0  0  0  0
   10.8286    3.5904    0.0000 O   0  0  0  0  0  0  0  0  0  0  0  0
    4.6783   -4.5324    0.0000 N   0  0  0  0  0  0  0  0  0  0  0  0
    8.8251    5.8233    0.0000 N   0  3  0  0  0  0  0  0  0  0  0  0
    4.6783   -6.1418    0.0000 N   0  0  0  0  0  0  0  0  0  0  0  0
    2.8660   -4.3371    0.0000 N   0  0  0  0  0  0  0  0  0  0  0  0
    2.0000   -5.8371    0.0000 N   0  0  0  0  0  0  0  0  0  0  0  0
    2.8660   -7.3371    0.0000 N   0  0  0  0  0  0  0  0  0  0  0  0
   12.1178    4.7471    0.0000 N   0  0  0  0  0  0  0  0  0  0  0  0
    5.9422   -2.2745    0.0000 C   0  0  1  0  0  0  0  0  0  0  0  0
    5.9405   -3.2745    0.0000 C   0  0  2  0  0  0  0  0  0  0  0  0
    4.9917   -1.9638    0.0000 C   0  0  1  0  0  0  0  0  0  0  0  0
    4.9889   -3.5819    0.0000 C   0  0  1  0  0  0  0  0  0  0  0  0
    6.2377    5.7890    0.0000 C   0  0  1  0  0  0  0  0  0  0  0  0
    7.1046    6.2875    0.0000 C   0  0  2  0  0  0  0  0  0  0  0  0
    6.4439    4.8105    0.0000 C   0  0  1  0  0  0  0  0  0  0  0  0
    7.8466    5.6171    0.0000 C   0  0  1  0  0  0  0  0  0  0  0  0
    4.6844   -1.0122    0.0000 C   0  0  0  0  0  0  0  0  0  0  0  0
    5.7735    4.0685    0.0000 C   0  0  0  0  0  0  0  0  0  0  0  0
    3.7320   -4.8371    0.0000 C   0  0  0  0  0  0  0  0  0  0  0  0
    5.2619   -5.3371    0.0000 C   0  0  0  0  0  0  0  0  0  0  0  0
    9.4929    5.0790    0.0000 C   0  0  0  0  0  0  0  0  0  0  0  0
    9.1357    6.7738    0.0000 C   0  0  0  0  0  0  0  0  0  0  0  0
    3.7320   -5.8371    0.0000 C   0  0  0  0  0  0  0  0  0  0  0  0
   10.4714    5.2852    0.0000 C   0  0  0  0  0  0  0  0  0  0  0  0
   10.1142    6.9800    0.0000 C   0  0  0  0  0  0  0  0  0  0  0  0
   10.7821    6.2357    0.0000 C   0  0  0  0  0  0  0  0  0  0  0  0
    2.8660   -6.3371    0.0000 C   0  0  0  0  0  0  0  0  0  0  0  0
    2.0000   -4.8371    0.0000 C   0  0  0  0  0  0  0  0  0  0  0  0
   11.1393    4.5409    0.0000 C   0  0  0  0  0  0  0  0  0  0  0  0
    5.8463   -1.6620    0.0000 H   0  0  0  0  0  0  0  0  0  0  0  0
    6.4934   -2.9940    0.0000 H   0  0  0  0  0  0  0  0  0  0  0  0
    4.3795   -1.8658    0.0000 H   0  0  0  0  0  0  0  0  0  0  0  0
    5.4266   -4.0210    0.0000 H   0  0  0  0  0  0  0  0  0  0  0  0
    5.7552    5.3996    0.0000 H   0  0  0  0  0  0  0  0  0  0  0  0
    7.6838    6.5087    0.0000 H   0  0  0  0  0  0  0  0  0  0  0  0
    6.6651    4.2313    0.0000 H   0  0  0  0  0  0  0  0  0  0  0  0
    8.2359    5.1346    0.0000 H   0  0  0  0  0  0  0  0  0  0  0  0
    4.3035   -0.5230    0.0000 H   0  0  0  0  0  0  0  0  0  0  0  0
    4.1364   -1.3024    0.0000 H   0  0  0  0  0  0  0  0  0  0  0  0
    5.3926    4.5577    0.0000 H   0  0  0  0  0  0  0  0  0  0  0  0
    5.2256    3.7784    0.0000 H   0  0  0  0  0  0  0  0  0  0  0  0
    7.3182   -1.9413    0.0000 H   0  0  0  0  0  0  0  0  0  0  0  0
    7.3154   -3.6125    0.0000 H   0  0  0  0  0  0  0  0  0  0  0  0
    5.2611    6.8140    0.0000 H   0  0  0  0  0  0  0  0  0  0  0  0
    6.7099    7.6471    0.0000 H   0  0  0  0  0  0  0  0  0  0  0  0
    5.8819   -5.3371    0.0000 H   0  0  0  0  0  0  0  0  0  0  0  0
    9.3003    4.4897    0.0000 H   0  0  0  0  0  0  0  0  0  0  0  0
    8.7217    7.2353    0.0000 H   0  0  0  0  0  0  0  0  0  0  0  0
   10.3069    7.5693    0.0000 H   0  0  0  0  0  0  0  0  0  0  0  0
   11.3888    6.3636    0.0000 H   0  0  0  0  0  0  0  0  0  0  0  0
    1.4631   -4.5271    0.0000 H   0  0  0  0  0  0  0  0  0  0  0  0
    6.4590    0.5730    0.0000 H   0  0  0  0  0  0  0  0  0  0  0  0
    4.0785    2.8548    0.0000 H   0  0  0  0  0  0  0  0  0  0  0  0
    2.3291   -7.6471    0.0000 H   0  0  0  0  0  0  0  0  0  0  0  0
    3.4030   -7.6471    0.0000 H   0  0  0  0  0  0  0  0  0  0  0  0
   12.5318    4.2857    0.0000 H   0  0  0  0  0  0  0  0  0  0  0  0
   12.3104    5.3364    0.0000 H   0  0  0  0  0  0  0  0  0  0  0  0
  1  9  1  0  0  0  0
  1 11  1  0  0  0  0
  1 12  1  0  0  0  0
  1 14  2  0  0  0  0
  2 10  1  0  0  0  0
  2 11  1  0  0  0  0
  2 13  1  0  0  0  0
  2 15  2  0  0  0  0
  3 26  1  0  0  0  0
  3 27  1  0  0  0  0
  4 30  1  0  0  0  0
  4 31  1  0  0  0  0
 24  5  1  1  0  0  0
  5 57  1  0  0  0  0
 25  6  1  1  0  0  0
  6 58  1  0  0  0  0
 28  7  1  1  0  0  0
  7 59  1  0  0  0  0
 29  8  1  1  0  0  0
  8 60  1  0  0  0  0
  9 32  1  0  0  0  0
 10 33  1  0  0  0  0
 12 67  1  0  0  0  0
 13 68  1  0  0  0  0
 16 44  2  0  0  0  0
 27 17  1  6  0  0  0
 17 34  1  0  0  0  0
 17 35  1  0  0  0  0
 31 18  1  6  0  0  0
 18 36  1  0  0  0  0
 18 37  2  0  0  0  0
 19 35  2  0  0  0  0
 19 38  1  0  0  0  0
 20 34  2  0  0  0  0
 20 43  1  0  0  0  0
 21 42  1  0  0  0  0
 21 43  2  0  0  0  0
 22 42  1  0  0  0  0
 22 69  1  0  0  0  0
 22 70  1  0  0  0  0
 23 44  1  0  0  0  0
 23 71  1  0  0  0  0
 23 72  1  0  0  0  0
 24 25  1  0  0  0  0
 24 26  1  0  0  0  0
 24 45  1  0  0  0  0
 25 27  1  0  0  0  0
 25 46  1  0  0  0  0
 26 32  1  6  0  0  0
 26 47  1  0  0  0  0
 27 48  1  0  0  0  0
 28 29  1  0  0  0  0
 28 30  1  0  0  0  0
 28 49  1  0  0  0  0
 29 31  1  0  0  0  0
 29 50  1  0  0  0  0
 30 33  1  6  0  0  0
 30 51  1  0  0  0  0
 31 52  1  0  0  0  0
 32 53  1  0  0  0  0
 32 54  1  0  0  0  0
 33 55  1  0  0  0  0
 33 56  1  0  0  0  0
 34 38  1  0  0  0  0
 35 61  1  0  0  0  0
 36 39  2  0  0  0  0
 36 62  1  0  0  0  0
 37 40  1  0  0  0  0
 37 63  1  0  0  0  0
 38 42  2  0  0  0  0
 39 41  1  0  0  0  0
 39 44  1  0  0  0  0
 40 41  2  0  0  0  0
 40 64  1  0  0  0  0
 41 65  1  0  0  0  0
 43 66  1  0  0  0  0
M  CHG  1  18   1
M  END
> <PUBCHEM_COMPOUND_CID>
5893

> <PUBCHEM_COMPOUND_CANONICALIZED>
1

> <PUBCHEM_CACTVS_COMPLEXITY>
1130

> <PUBCHEM_CACTVS_HBOND_ACCEPTOR>
18

> <PUBCHEM_CACTVS_HBOND_DONOR>
8

> <PUBCHEM_CACTVS_ROTATABLE_BOND>
11

> <PUBCHEM_CACTVS_SUBSKEYS>
AAADceB7vAMAAAAAAAAAAAAAAAAAAWJEgAAsWAAAAAAAAFgB/gAAHgAQCCAADBzhnwY98L9MFxCoQzd3dICCgC01EqAJ2CE4dNiLePrA3dGeZYhvgALbyeb4MQIMAAAAAAAAAAAAAAAAAAAAAAAAAAAAAA==

> <PUBCHEM_IUPAC_OPENEYE_NAME>
[[(2R,3S,4R,5R)-5-(6-aminopurin-9-yl)-3,4-dihydroxy-tetrahydrofuran-2-yl]methoxy-hydroxy-phosphoryl] [(2R,3S,4R,5R)-5-(3-carbamoylpyridin-1-ium-1-yl)-3,4-dihydroxy-tetrahydrofuran-2-yl]methyl hydrogen phosphate

> <PUBCHEM_IUPAC_CAS_NAME>
[[(2R,3S,4R,5R)-5-(6-aminopurin-9-yl)-3,4-dihydroxy-2-oxolanyl]methoxy-hydroxyphosphoryl] [(2R,3S,4R,5R)-5-(3-carbamoyl-1-pyridin-1-iumyl)-3,4-dihydroxy-2-oxolanyl]methyl hydrogen phosphate

> <PUBCHEM_IUPAC_NAME>
[[(2R,3S,4R,5R)-5-(6-aminopurin-9-yl)-3,4-dihydroxyoxolan-2-yl]methoxy-hydroxyphosphoryl] [(2R,3S,4R,5R)-5-(3-carbamoylpyridin-1-ium-1-yl)-3,4-dihydroxyoxolan-2-yl]methyl hydrogen phosphate

> <PUBCHEM_IUPAC_SYSTEMATIC_NAME>
[[(2R,3S,4R,5R)-5-(3-aminocarbonylpyridin-1-ium-1-yl)-3,4-bis(oxidanyl)oxolan-2-yl]methoxy-oxidanyl-phosphoryl] [(2R,3S,4R,5R)-5-(6-aminopurin-9-yl)-3,4-bis(oxidanyl)oxolan-2-yl]methyl hydrogen phosphate

> <PUBCHEM_IUPAC_TRADITIONAL_NAME>
[[(2R,3S,4R,5R)-5-adenin-9-yl-3,4-dihydroxy-tetrahydrofuran-2-yl]methoxy-hydroxy-phosphoryl] [(2R,3S,4R,5R)-5-(3-carbamoylpyridin-1-ium-1-yl)-3,4-dihydroxy-tetrahydrofuran-2-yl]methyl hydrogen phosphate

> <PUBCHEM_IUPAC_INCHI>
InChI=1S/C21H27N7O14P2/c22-17-12-19(25-7-24-17)28(8-26-12)21-16(32)14(30)11(41-21)6-39-44(36,37)42-43(34,35)38-5-10-13(29)15(31)20(40-10)27-3-1-2-9(4-27)18(23)33/h1-4,7-8,10-11,13-16,20-21,29-32H,5-6H2,(H5-,22,23,24,25,33,34,35,36,37)/p+1/t10-,11-,13-,14-,15-,16-,20-,21-/m1/s1

> <PUBCHEM_IUPAC_INCHIKEY>
BAWFJGJZGIEFAR-NNYOXOHSSA-O

> <PUBCHEM_XLOGP3>
-5.9

> <PUBCHEM_EXACT_MASS>
664.116947

> <PUBCHEM_MOLECULAR_FORMULA>
C21H28N7O14P2+

> <PUBCHEM_MOLECULAR_WEIGHT>
664.433044

> <PUBCHEM_OPENEYE_CAN_SMILES>
C1=CC(=C[N+](=C1)C2C(C(C(O2)COP(=O)(O)OP(=O)(O)OCC3C(C(C(O3)N4C=NC5=C4N=CN=C5N)O)O)O)O)C(=O)N

> <PUBCHEM_OPENEYE_ISO_SMILES>
C1=CC(=C[N+](=C1)[C@H]2[C@@H]([C@@H]([C@H](O2)COP(=O)(O)OP(=O)(O)OC[C@@H]3[C@H]([C@H]([C@@H](O3)N4C=NC5=C4N=CN=C5N)O)O)O)O)C(=O)N

> <PUBCHEM_CACTVS_TPSA>
318

> <PUBCHEM_MONOISOTOPIC_WEIGHT>
664.116947

> <PUBCHEM_TOTAL_CHARGE>
1

> <PUBCHEM_HEAVY_ATOM_COUNT>
44

> <PUBCHEM_ATOM_DEF_STEREO_COUNT>
8

> <PUBCHEM_ATOM_UDEF_STEREO_COUNT>
0

> <PUBCHEM_BOND_DEF_STEREO_COUNT>
0

> <PUBCHEM_BOND_UDEF_STEREO_COUNT>
0

> <PUBCHEM_ISOTOPIC_ATOM_COUNT>
0

> <PUBCHEM_COMPONENT_COUNT>
1

> <PUBCHEM_CACTVS_TAUTO_COUNT>
6

> <PUBCHEM_COORDINATE_TYPE>
1
5
255

> <PUBCHEM_BONDANNOTATIONS>
27  17  6
17  34  8
17  35  8
31  18  6
18  36  8
18  37  8
19  35  8
19  38  8
20  34  8
20  43  8
21  42  8
21  43  8
26  32  6
30  33  6
34  38  8
36  39  8
37  40  8
38  42  8
39  41  8
40  41  8
24  5  5
25  6  5
28  7  5
29  8  5

$$$$

