3417419
  -OEChem-07051213132D

 17 17  0     0  0  0  0  0  0999 V2000
    2.5369    0.5600    0.0000 O   0  0  0  0  0  0  0  0  0  0  0  0
    5.1350    2.0600    0.0000 O   0  5  0  0  0  0  0  0  0  0  0  0
    3.4030    2.0600    0.0000 O   0  0  0  0  0  0  0  0  0  0  0  0
    4.2690    1.5600    0.0000 N   0  3  0  0  0  0  0  0  0  0  0  0
    6.0010   -1.4400    0.0000 N   0  0  0  0  0  0  0  0  0  0  0  0
    4.2690    0.5600    0.0000 C   0  0  0  0  0  0  0  0  0  0  0  0
    5.1350   -0.9400    0.0000 C   0  0  0  0  0  0  0  0  0  0  0  0
    5.1350    0.0600    0.0000 C   0  0  0  0  0  0  0  0  0  0  0  0
    3.4030    0.0600    0.0000 C   0  0  0  0  0  0  0  0  0  0  0  0
    4.2690   -1.4400    0.0000 C   0  0  0  0  0  0  0  0  0  0  0  0
    3.4030   -0.9400    0.0000 C   0  0  0  0  0  0  0  0  0  0  0  0
    5.6720    0.3700    0.0000 H   0  0  0  0  0  0  0  0  0  0  0  0
    4.2690   -2.0600    0.0000 H   0  0  0  0  0  0  0  0  0  0  0  0
    2.8660   -1.2500    0.0000 H   0  0  0  0  0  0  0  0  0  0  0  0
    6.0010   -2.0600    0.0000 H   0  0  0  0  0  0  0  0  0  0  0  0
    6.5380   -1.1300    0.0000 H   0  0  0  0  0  0  0  0  0  0  0  0
    2.0000    0.2500    0.0000 H   0  0  0  0  0  0  0  0  0  0  0  0
  1  9  1  0  0  0  0
  1 17  1  0  0  0  0
  2  4  1  0  0  0  0
  3  4  2  0  0  0  0
  4  6  1  0  0  0  0
  5  7  1  0  0  0  0
  5 15  1  0  0  0  0
  5 16  1  0  0  0  0
  6  8  1  0  0  0  0
  6  9  2  0  0  0  0
  7  8  2  0  0  0  0
  7 10  1  0  0  0  0
  8 12  1  0  0  0  0
  9 11  1  0  0  0  0
 10 11  2  0  0  0  0
 10 13  1  0  0  0  0
 11 14  1  0  0  0  0
M  CHG  2   2  -1   4   1
M  END
> <PUBCHEM_COMPOUND_CID>
3417419

> <PUBCHEM_COMPOUND_CANONICALIZED>
1

> <PUBCHEM_CACTVS_COMPLEXITY>
156

> <PUBCHEM_CACTVS_HBOND_ACCEPTOR>
4

> <PUBCHEM_CACTVS_HBOND_DONOR>
2

> <PUBCHEM_CACTVS_ROTATABLE_BOND>
0

> <PUBCHEM_CACTVS_SUBSKEYS>
AAADcYBjMAAAAAAAAAAAAAAAAAAAAAAAAAAwAAAAAAAAAAABAAAAHgAUCAAACAyBkAAwxoBQQgCBACRCQwCCAAAgIgAoiAAHbIoKJiKS0dOAcABk0FEI2AewQAAAAEAAAAQAEAAAgAAACAAgAAAAAAAAAA==

> <PUBCHEM_IUPAC_OPENEYE_NAME>
4-amino-2-nitro-phenol

> <PUBCHEM_IUPAC_CAS_NAME>
4-amino-2-nitrophenol

> <PUBCHEM_IUPAC_NAME>
4-amino-2-nitrophenol

> <PUBCHEM_IUPAC_SYSTEMATIC_NAME>
4-azanyl-2-nitro-phenol

> <PUBCHEM_IUPAC_TRADITIONAL_NAME>
4-amino-2-nitro-phenol

> <PUBCHEM_IUPAC_INCHI>
InChI=1S/C6H6N2O3/c7-4-1-2-6(9)5(3-4)8(10)11/h1-3,9H,7H2

> <PUBCHEM_IUPAC_INCHIKEY>
WHODQVWERNSQEO-UHFFFAOYSA-N

> <PUBCHEM_XLOGP3>
1

> <PUBCHEM_EXACT_MASS>
154.037842

> <PUBCHEM_MOLECULAR_FORMULA>
C6H6N2O3

> <PUBCHEM_MOLECULAR_WEIGHT>
154.12344

> <PUBCHEM_OPENEYE_CAN_SMILES>
C1=CC(=C(C=C1N)[N+](=O)[O-])O

> <PUBCHEM_OPENEYE_ISO_SMILES>
C1=CC(=C(C=C1N)[N+](=O)[O-])O

> <PUBCHEM_CACTVS_TPSA>
92.1

> <PUBCHEM_MONOISOTOPIC_WEIGHT>
154.037842

> <PUBCHEM_TOTAL_CHARGE>
0

> <PUBCHEM_HEAVY_ATOM_COUNT>
11

> <PUBCHEM_ATOM_DEF_STEREO_COUNT>
0

> <PUBCHEM_ATOM_UDEF_STEREO_COUNT>
0

> <PUBCHEM_BOND_DEF_STEREO_COUNT>
0

> <PUBCHEM_BOND_UDEF_STEREO_COUNT>
0

> <PUBCHEM_ISOTOPIC_ATOM_COUNT>
0

> <PUBCHEM_COMPONENT_COUNT>
1

> <PUBCHEM_CACTVS_TAUTO_COUNT>
9

> <PUBCHEM_COORDINATE_TYPE>
1
5
255

> <PUBCHEM_BONDANNOTATIONS>
10  11  8
6  8  8
6  9  8
7  10  8
7  8  8
9  11  8

$$$$

