   Color/Form
        Colorless crystals
   from [1]HSDB

   Odor
        Odorless
   from [2]HSDB

   Melting Point
        210.5 - 212.5 deg C (decomposes)
   from [3]HSDB

   Dissociation Constants
        pKa = 8.86
   from [4]HSDB

   Octanol/Water Partition Coefficient
        log Kow = 1.77 at pH 7.3
   from [5]HSDB

   pH
        pH = 6.50 at 20 deg C
   from [6]HSDB

   Solubilities

     * >500 g/L in dimethyl sulfoxide; > 500 g/L in dimethylformamide;
       21.5 g/L in cyclohexane; 4.5 g/L in methanol; 8 g/L in acetone
     * 0.002 g/L in hexane at 20 deg C; 0.003 g/L at 20 deg C; 1.1 g/L in
       ethyl acetate at 20 deg C
     * In water, 20 mg/L at 23 deg C [Shiu WY et al; Rev Environ Contam
       Toxicol 116: 15-187 (1990)] [7]PubMed Abstract

   from [8]HSDB

   Spectral Properties
        Lambda max = 238 nm; extinction coefficient = 985 M-1 cm-1
   from [9]HSDB

   Vapor Pressure
        2.30X10-11 mmHg at 25 deg C
   from [10]HSDB

   Other Chemical/Physical Properties

     * Density = 0.324 gm/cu cm at 20 deg C /technical grade/
     * Hydrolytically stable at room temperature from pH 5-9
     * Henry's Law constant = 3.3X10-13 atm-cu m/mole at 25 deg C (est)

   from [11]HSDB

   Computed Properties
   Molecular Weight                  220.25102 [g/mol]
   Molecular Formula                 C[9]H[8]N[4]OS
   XLogP3-AA                         1.3
   H-Bond Donor                      2
   H-Bond Acceptor                   4
   Rotatable Bond Count              2
   Tautomer Count                    5
   Exact Mass                        220.041882
   MonoIsotopic Mass                 220.041882
   Topological Polar Surface Area    95.2
   Heavy Atom Count                  15
   Formal Charge                     0
   Complexity                        220
   Isotope Atom Count                0
   Defined Atom Stereocenter Count   0
   Undefined Atom Stereocenter Count 0
   Defined Bond Stereocenter Count   0
   Undefined Bond Stereocenter Count 0
   Covalently-Bonded Unit Count      1
   Feature 3D Acceptor Count         1
   Feature 3D Donor Count            2
   Feature 3D Ring Count             2
   Effective Rotor Count             4
   Conformer Sampling RMSD           0.6
   CID Conformer Count               [12]7

References

   1. http://toxnet.nlm.nih.gov/cgi-bin/sis/search/r?dbs+hsdb:@term+@rn+@rel+51707-55-2
   2. http://toxnet.nlm.nih.gov/cgi-bin/sis/search/r?dbs+hsdb:@term+@rn+@rel+51707-55-2
   3. http://toxnet.nlm.nih.gov/cgi-bin/sis/search/r?dbs+hsdb:@term+@rn+@rel+51707-55-2
   4. http://toxnet.nlm.nih.gov/cgi-bin/sis/search/r?dbs+hsdb:@term+@rn+@rel+51707-55-2
   5. http://toxnet.nlm.nih.gov/cgi-bin/sis/search/r?dbs+hsdb:@term+@rn+@rel+51707-55-2
   6. http://toxnet.nlm.nih.gov/cgi-bin/sis/search/r?dbs+hsdb:@term+@rn+@rel+51707-55-2
   7. http://www.ncbi.nlm.nih.gov/entrez/query.fcgi?cmd=Retrieve&db=pubmed&dopt=Abstract&list_uids=2205893
   8. http://toxnet.nlm.nih.gov/cgi-bin/sis/search/r?dbs+hsdb:@term+@rn+@rel+51707-55-2
   9. http://toxnet.nlm.nih.gov/cgi-bin/sis/search/r?dbs+hsdb:@term+@rn+@rel+51707-55-2
  10. http://toxnet.nlm.nih.gov/cgi-bin/sis/search/r?dbs+hsdb:@term+@rn+@rel+51707-55-2
  11. http://toxnet.nlm.nih.gov/cgi-bin/sis/search/r?dbs+hsdb:@term+@rn+@rel+51707-55-2
  12. http://pubchem.ncbi.nlm.nih.gov/vw3d/vw3d.cgi?cid=40087
