5418
  -OEChem-06261200412D

 50 52  0     1  0  0  0  0  0999 V2000
    2.0000    0.7722    0.0000 O   0  0  0  0  0  0  0  0  0  0  0  0
    2.0000    2.7722    0.0000 O   0  0  0  0  0  0  0  0  0  0  0  0
    7.1777   -3.2822    0.0000 O   0  0  0  0  0  0  0  0  0  0  0  0
    8.9212   -2.3023    0.0000 O   0  0  0  0  0  0  0  0  0  0  0  0
    6.3981    1.2514    0.0000 N   0  0  0  0  0  0  0  0  0  0  0  0
    5.4920    0.7375    0.0000 C   0  0  3  0  0  0  0  0  0  0  0  0
    4.5981    1.2722    0.0000 C   0  0  0  0  0  0  0  0  0  0  0  0
    4.5981    2.2722    0.0000 C   0  0  0  0  0  0  0  0  0  0  0  0
    5.4920    2.8068    0.0000 C   0  0  0  0  0  0  0  0  0  0  0  0
    6.3981    2.2930    0.0000 C   0  0  0  0  0  0  0  0  0  0  0  0
    5.4804   -0.2624    0.0000 C   0  0  0  0  0  0  0  0  0  0  0  0
    3.7320    0.7722    0.0000 C   0  0  0  0  0  0  0  0  0  0  0  0
    6.3406   -0.7724    0.0000 C   0  0  0  0  0  0  0  0  0  0  0  0
    3.7320    2.7722    0.0000 C   0  0  0  0  0  0  0  0  0  0  0  0
    2.8660    1.2722    0.0000 C   0  0  0  0  0  0  0  0  0  0  0  0
    2.8660    2.2722    0.0000 C   0  0  0  0  0  0  0  0  0  0  0  0
    6.3291   -1.7723    0.0000 C   0  0  0  0  0  0  0  0  0  0  0  0
    7.2124   -0.2824    0.0000 C   0  0  0  0  0  0  0  0  0  0  0  0
    7.1893   -2.2823    0.0000 C   0  0  0  0  0  0  0  0  0  0  0  0
    8.0726   -0.7924    0.0000 C   0  0  0  0  0  0  0  0  0  0  0  0
    8.0610   -1.7924    0.0000 C   0  0  0  0  0  0  0  0  0  0  0  0
    2.0000   -0.2278    0.0000 C   0  0  0  0  0  0  0  0  0  0  0  0
    2.0000    3.7722    0.0000 C   0  0  0  0  0  0  0  0  0  0  0  0
    6.3060   -3.7722    0.0000 C   0  0  0  0  0  0  0  0  0  0  0  0
    9.7930   -1.8124    0.0000 C   0  0  0  0  0  0  0  0  0  0  0  0
    6.0259    0.4224    0.0000 H   0  0  0  0  0  0  0  0  0  0  0  0
    5.8856    3.2859    0.0000 H   0  0  0  0  0  0  0  0  0  0  0  0
    5.0874    3.2766    0.0000 H   0  0  0  0  0  0  0  0  0  0  0  0
    7.0089    2.1869    0.0000 H   0  0  0  0  0  0  0  0  0  0  0  0
    6.6071    2.8767    0.0000 H   0  0  0  0  0  0  0  0  0  0  0  0
    4.8712   -0.1477    0.0000 H   0  0  0  0  0  0  0  0  0  0  0  0
    5.2617   -0.8425    0.0000 H   0  0  0  0  0  0  0  0  0  0  0  0
    6.9338    0.9393    0.0000 H   0  0  0  0  0  0  0  0  0  0  0  0
    3.7320    0.1522    0.0000 H   0  0  0  0  0  0  0  0  0  0  0  0
    3.7320    3.3922    0.0000 H   0  0  0  0  0  0  0  0  0  0  0  0
    5.7886   -2.0761    0.0000 H   0  0  0  0  0  0  0  0  0  0  0  0
    7.2196    0.3375    0.0000 H   0  0  0  0  0  0  0  0  0  0  0  0
    8.6131   -0.4886    0.0000 H   0  0  0  0  0  0  0  0  0  0  0  0
    1.3800   -0.2278    0.0000 H   0  0  0  0  0  0  0  0  0  0  0  0
    2.0000   -0.8478    0.0000 H   0  0  0  0  0  0  0  0  0  0  0  0
    2.6200   -0.2278    0.0000 H   0  0  0  0  0  0  0  0  0  0  0  0
    2.6200    3.7722    0.0000 H   0  0  0  0  0  0  0  0  0  0  0  0
    2.0000    4.3922    0.0000 H   0  0  0  0  0  0  0  0  0  0  0  0
    1.3800    3.7722    0.0000 H   0  0  0  0  0  0  0  0  0  0  0  0
    6.0022   -3.2317    0.0000 H   0  0  0  0  0  0  0  0  0  0  0  0
    5.7655   -4.0760    0.0000 H   0  0  0  0  0  0  0  0  0  0  0  0
    6.6097   -4.3127    0.0000 H   0  0  0  0  0  0  0  0  0  0  0  0
   10.0967   -2.3529    0.0000 H   0  0  0  0  0  0  0  0  0  0  0  0
   10.3334   -1.5086    0.0000 H   0  0  0  0  0  0  0  0  0  0  0  0
    9.4892   -1.2719    0.0000 H   0  0  0  0  0  0  0  0  0  0  0  0
  1 15  1  0  0  0  0
  1 22  1  0  0  0  0
  2 16  1  0  0  0  0
  2 23  1  0  0  0  0
  3 19  1  0  0  0  0
  3 24  1  0  0  0  0
  4 21  1  0  0  0  0
  4 25  1  0  0  0  0
  5  6  1  0  0  0  0
  5 10  1  0  0  0  0
  5 33  1  0  0  0  0
  6  7  1  0  0  0  0
  6 11  1  0  0  0  0
  6 26  1  0  0  0  0
  7  8  1  0  0  0  0
  7 12  2  0  0  0  0
  8  9  1  0  0  0  0
  8 14  2  0  0  0  0
  9 10  1  0  0  0  0
  9 27  1  0  0  0  0
  9 28  1  0  0  0  0
 10 29  1  0  0  0  0
 10 30  1  0  0  0  0
 11 13  1  0  0  0  0
 11 31  1  0  0  0  0
 11 32  1  0  0  0  0
 12 15  1  0  0  0  0
 12 34  1  0  0  0  0
 13 17  2  0  0  0  0
 13 18  1  0  0  0  0
 14 16  1  0  0  0  0
 14 35  1  0  0  0  0
 15 16  2  0  0  0  0
 17 19  1  0  0  0  0
 17 36  1  0  0  0  0
 18 20  2  0  0  0  0
 18 37  1  0  0  0  0
 19 21  2  0  0  0  0
 20 21  1  0  0  0  0
 20 38  1  0  0  0  0
 22 39  1  0  0  0  0
 22 40  1  0  0  0  0
 22 41  1  0  0  0  0
 23 42  1  0  0  0  0
 23 43  1  0  0  0  0
 23 44  1  0  0  0  0
 24 45  1  0  0  0  0
 24 46  1  0  0  0  0
 24 47  1  0  0  0  0
 25 48  1  0  0  0  0
 25 49  1  0  0  0  0
 25 50  1  0  0  0  0
M  END
> <PUBCHEM_COMPOUND_CID>
5418

> <PUBCHEM_COMPOUND_CANONICALIZED>
1

> <PUBCHEM_CACTVS_COMPLEXITY>
407

> <PUBCHEM_CACTVS_HBOND_ACCEPTOR>
5

> <PUBCHEM_CACTVS_HBOND_DONOR>
1

> <PUBCHEM_CACTVS_ROTATABLE_BOND>
6

> <PUBCHEM_CACTVS_SUBSKEYS>
AAADceB6OAAAAAAAAAAAAAAAAAAAAAAAAAA8YIAAAAAAAACxQAAAHgAQAAAADCzBmAYyBoLABACAAiBCAACCCAAgIAAIiIAOjIgNJiKEsRuEMCpk0BGKqAew0PMOoAABAAAQQABAAAIAACCAAAAAAAAAAA==

> <PUBCHEM_IUPAC_OPENEYE_NAME>
1-[(3,4-dimethoxyphenyl)methyl]-6,7-dimethoxy-1,2,3,4-tetrahydroisoquinoline

> <PUBCHEM_IUPAC_CAS_NAME>
1-[(3,4-dimethoxyphenyl)methyl]-6,7-dimethoxy-1,2,3,4-tetrahydroisoquinoline

> <PUBCHEM_IUPAC_NAME>
1-[(3,4-dimethoxyphenyl)methyl]-6,7-dimethoxy-1,2,3,4-tetrahydroisoquinoline

> <PUBCHEM_IUPAC_SYSTEMATIC_NAME>
1-[(3,4-dimethoxyphenyl)methyl]-6,7-dimethoxy-1,2,3,4-tetrahydroisoquinoline

> <PUBCHEM_IUPAC_TRADITIONAL_NAME>
6,7-dimethoxy-1-veratryl-1,2,3,4-tetrahydroisoquinoline

> <PUBCHEM_IUPAC_INCHI>
InChI=1S/C20H25NO4/c1-22-17-6-5-13(10-18(17)23-2)9-16-15-12-20(25-4)19(24-3)11-14(15)7-8-21-16/h5-6,10-12,16,21H,7-9H2,1-4H3

> <PUBCHEM_IUPAC_INCHIKEY>
YXWQTVWJNHKSCC-UHFFFAOYSA-N

> <PUBCHEM_XLOGP3_AA>
3.2

> <PUBCHEM_EXACT_MASS>
343.178358

> <PUBCHEM_MOLECULAR_FORMULA>
C20H25NO4

> <PUBCHEM_MOLECULAR_WEIGHT>
343.4168

> <PUBCHEM_OPENEYE_CAN_SMILES>
COC1=C(C=C(C=C1)CC2C3=CC(=C(C=C3CCN2)OC)OC)OC

> <PUBCHEM_OPENEYE_ISO_SMILES>
COC1=C(C=C(C=C1)CC2C3=CC(=C(C=C3CCN2)OC)OC)OC

> <PUBCHEM_CACTVS_TPSA>
49

> <PUBCHEM_MONOISOTOPIC_WEIGHT>
343.178358

> <PUBCHEM_TOTAL_CHARGE>
0

> <PUBCHEM_HEAVY_ATOM_COUNT>
25

> <PUBCHEM_ATOM_DEF_STEREO_COUNT>
0

> <PUBCHEM_ATOM_UDEF_STEREO_COUNT>
1

> <PUBCHEM_BOND_DEF_STEREO_COUNT>
0

> <PUBCHEM_BOND_UDEF_STEREO_COUNT>
0

> <PUBCHEM_ISOTOPIC_ATOM_COUNT>
0

> <PUBCHEM_COMPONENT_COUNT>
1

> <PUBCHEM_CACTVS_TAUTO_COUNT>
1

> <PUBCHEM_COORDINATE_TYPE>
1
5
255

> <PUBCHEM_BONDANNOTATIONS>
12  15  8
13  17  8
13  18  8
14  16  8
15  16  8
17  19  8
18  20  8
19  21  8
20  21  8
6  11  3
7  12  8
7  8  8
8  14  8

$$$$

