445888
  -OEChem-07051212492D

 62 64  0     1  0  0  0  0  0999 V2000
    7.5010    0.5446    0.0000 P   0  0  3  0  0  0  0  0  0  0  0  0
    5.1350   -0.8214    0.0000 O   0  0  0  0  0  0  0  0  0  0  0  0
   10.5888    0.6016    0.0000 O   0  0  0  0  0  0  0  0  0  0  0  0
    6.5010    0.5446    0.0000 O   0  0  0  0  0  0  0  0  0  0  0  0
    6.0010   -3.3214    0.0000 O   0  0  0  0  0  0  0  0  0  0  0  0
    7.7331   -2.3214    0.0000 O   0  0  0  0  0  0  0  0  0  0  0  0
    8.5010    0.5446    0.0000 O   0  0  0  0  0  0  0  0  0  0  0  0
   10.2798    3.1707    0.0000 O   0  0  0  0  0  0  0  0  0  0  0  0
   12.3489    2.4984    0.0000 O   0  0  0  0  0  0  0  0  0  0  0  0
    4.2690   -3.3214    0.0000 O   0  0  0  0  0  0  0  0  0  0  0  0
    4.5010    0.5446    0.0000 O   0  0  0  0  0  0  0  0  0  0  0  0
    7.5010    1.5446    0.0000 O   0  0  0  0  0  0  0  0  0  0  0  0
    2.5369   -2.3214    0.0000 O   0  0  0  0  0  0  0  0  0  0  0  0
    6.0010    1.4106    0.0000 O   0  0  0  0  0  0  0  0  0  0  0  0
    7.5010   -0.4554    0.0000 O   0  0  0  0  0  0  0  0  0  0  0  0
   11.3308   -1.0784    0.0000 O   0  0  0  0  0  0  0  0  0  0  0  0
   12.3489    0.3228    0.0000 N   0  0  0  0  0  0  0  0  0  0  0  0
   13.0534   -1.2595    0.0000 N   0  0  0  0  0  0  0  0  0  0  0  0
   14.7759   -1.4405    0.0000 N   0  0  0  0  0  0  0  0  0  0  0  0
    5.1350   -1.8214    0.0000 C   0  0  1  0  0  0  0  0  0  0  0  0
    6.0010   -2.3214    0.0000 C   0  0  1  0  0  0  0  0  0  0  0  0
    6.8671   -1.8214    0.0000 C   0  0  1  0  0  0  0  0  0  0  0  0
    6.0010   -0.3214    0.0000 C   0  0  1  0  0  0  0  0  0  0  0  0
    6.8671   -0.8214    0.0000 C   0  0  0  0  0  0  0  0  0  0  0  0
   10.0010    1.4106    0.0000 C   0  0  1  0  0  0  0  0  0  0  0  0
   10.5888    2.2196    0.0000 C   0  0  2  0  0  0  0  0  0  0  0  0
   11.5399    1.9106    0.0000 C   0  0  2  0  0  0  0  0  0  0  0  0
   11.5399    0.9106    0.0000 C   0  0  1  0  0  0  0  0  0  0  0  0
    4.2690   -2.3214    0.0000 C   0  0  1  0  0  0  0  0  0  0  0  0
    9.0010    1.4106    0.0000 C   0  0  0  0  0  0  0  0  0  0  0  0
    5.5010    0.5446    0.0000 C   0  0  0  0  0  0  0  0  0  0  0  0
    3.4030   -1.8214    0.0000 C   0  0  0  0  0  0  0  0  0  0  0  0
   13.2624    0.7296    0.0000 C   0  0  0  0  0  0  0  0  0  0  0  0
   12.2444   -0.6717    0.0000 C   0  0  0  0  0  0  0  0  0  0  0  0
   14.0715    0.1418    0.0000 C   0  0  0  0  0  0  0  0  0  0  0  0
   13.9669   -0.8527    0.0000 C   0  0  0  0  0  0  0  0  0  0  0  0
    4.3989   -1.3964    0.0000 H   0  0  0  0  0  0  0  0  0  0  0  0
    6.5380   -2.6314    0.0000 H   0  0  0  0  0  0  0  0  0  0  0  0
    7.4040   -1.5114    0.0000 H   0  0  0  0  0  0  0  0  0  0  0  0
    7.4776   -0.9291    0.0000 H   0  0  0  0  0  0  0  0  0  0  0  0
    7.0791   -0.2388    0.0000 H   0  0  0  0  0  0  0  0  0  0  0  0
    9.7196    0.8582    0.0000 H   0  0  0  0  0  0  0  0  0  0  0  0
    9.9765    2.3166    0.0000 H   0  0  0  0  0  0  0  0  0  0  0  0
   11.4429    2.5230    0.0000 H   0  0  0  0  0  0  0  0  0  0  0  0
   11.4429    0.2982    0.0000 H   0  0  0  0  0  0  0  0  0  0  0  0
    3.7320   -2.6314    0.0000 H   0  0  0  0  0  0  0  0  0  0  0  0
    9.1087    2.0212    0.0000 H   0  0  0  0  0  0  0  0  0  0  0  0
    8.4184    1.6227    0.0000 H   0  0  0  0  0  0  0  0  0  0  0  0
    3.8015   -1.3465    0.0000 H   0  0  0  0  0  0  0  0  0  0  0  0
    3.0044   -1.3465    0.0000 H   0  0  0  0  0  0  0  0  0  0  0  0
    6.5380   -3.6314    0.0000 H   0  0  0  0  0  0  0  0  0  0  0  0
    8.2700   -2.0114    0.0000 H   0  0  0  0  0  0  0  0  0  0  0  0
   10.6947    3.6314    0.0000 H   0  0  0  0  0  0  0  0  0  0  0  0
   12.2841    3.1150    0.0000 H   0  0  0  0  0  0  0  0  0  0  0  0
    3.7320   -3.6314    0.0000 H   0  0  0  0  0  0  0  0  0  0  0  0
   13.3272    1.3462    0.0000 H   0  0  0  0  0  0  0  0  0  0  0  0
    4.1910    1.0815    0.0000 H   0  0  0  0  0  0  0  0  0  0  0  0
    8.0380    1.8546    0.0000 H   0  0  0  0  0  0  0  0  0  0  0  0
    2.0000   -2.0114    0.0000 H   0  0  0  0  0  0  0  0  0  0  0  0
   14.6379    0.3940    0.0000 H   0  0  0  0  0  0  0  0  0  0  0  0
   15.3423   -1.1884    0.0000 H   0  0  0  0  0  0  0  0  0  0  0  0
   14.7111   -2.0571    0.0000 H   0  0  0  0  0  0  0  0  0  0  0  0
  1  4  1  0  0  0  0
  1  7  1  0  0  0  0
  1 12  1  0  0  0  0
  1 15  2  0  0  0  0
  2 20  1  0  0  0  0
  2 23  1  0  0  0  0
  3 25  1  0  0  0  0
  3 28  1  0  0  0  0
 23  4  1  1  0  0  0
 21  5  1  1  0  0  0
  5 51  1  0  0  0  0
 22  6  1  1  0  0  0
  6 52  1  0  0  0  0
  7 30  1  0  0  0  0
 26  8  1  1  0  0  0
  8 53  1  0  0  0  0
 27  9  1  1  0  0  0
  9 54  1  0  0  0  0
 29 10  1  6  0  0  0
 10 55  1  0  0  0  0
 11 31  1  0  0  0  0
 11 57  1  0  0  0  0
 12 58  1  0  0  0  0
 13 32  1  0  0  0  0
 13 59  1  0  0  0  0
 14 31  2  0  0  0  0
 16 34  2  0  0  0  0
 28 17  1  6  0  0  0
 17 33  1  0  0  0  0
 17 34  1  0  0  0  0
 18 34  1  0  0  0  0
 18 36  2  0  0  0  0
 19 36  1  0  0  0  0
 19 61  1  0  0  0  0
 19 62  1  0  0  0  0
 20 21  1  0  0  0  0
 20 29  1  0  0  0  0
 20 37  1  6  0  0  0
 21 22  1  0  0  0  0
 21 38  1  0  0  0  0
 22 24  1  0  0  0  0
 22 39  1  0  0  0  0
 23 24  1  0  0  0  0
 23 31  1  0  0  0  0
 24 40  1  0  0  0  0
 24 41  1  0  0  0  0
 25 26  1  0  0  0  0
 25 30  1  6  0  0  0
 25 42  1  0  0  0  0
 26 27  1  0  0  0  0
 26 43  1  0  0  0  0
 27 28  1  0  0  0  0
 27 44  1  0  0  0  0
 28 45  1  0  0  0  0
 29 32  1  0  0  0  0
 29 46  1  0  0  0  0
 30 47  1  0  0  0  0
 30 48  1  0  0  0  0
 32 49  1  0  0  0  0
 32 50  1  0  0  0  0
 33 35  2  0  0  0  0
 33 56  1  0  0  0  0
 35 36  1  0  0  0  0
 35 60  1  0  0  0  0
M  END
> <PUBCHEM_COMPOUND_CID>
445888

> <PUBCHEM_COMPOUND_CANONICALIZED>
1

> <PUBCHEM_CACTVS_COMPLEXITY>
964

> <PUBCHEM_CACTVS_HBOND_ACCEPTOR>
15

> <PUBCHEM_CACTVS_HBOND_DONOR>
9

> <PUBCHEM_CACTVS_ROTATABLE_BOND>
9

> <PUBCHEM_CACTVS_SUBSKEYS>
AAADceB7PAIAAAAAAAAAAAAAAAAAASAAAAAkQAAAAAAAAAAAAAAAHgAQCCAACBThgAYBCANABxCoQCL2fIKAAAEAAgAIAAFYABCTEBIAgAQOQAAHFgIXAAH6/KbAAAAAAAAAAAAAAAAAAAAAAAAAAAAAAA==

> <PUBCHEM_IUPAC_OPENEYE_NAME>
(2R,4R,5R,6R)-2-[[(2R,3S,4R,5R)-5-(4-amino-2-oxo-pyrimidin-1-yl)-3,4-dihydroxy-tetrahydrofuran-2-yl]methoxy-hydroxy-phosphoryl]oxy-6-[(1R)-1,2-dihydroxyethyl]-4,5-dihydroxy-tetrahydropyran-2-carboxylic acid

> <PUBCHEM_IUPAC_CAS_NAME>
(2R,4R,5R,6R)-2-[[(2R,3S,4R,5R)-5-(4-amino-2-oxo-1-pyrimidinyl)-3,4-dihydroxy-2-oxolanyl]methoxy-hydroxyphosphoryl]oxy-6-[(1R)-1,2-dihydroxyethyl]-4,5-dihydroxy-2-oxanecarboxylic acid

> <PUBCHEM_IUPAC_NAME>
(2R,4R,5R,6R)-2-[[(2R,3S,4R,5R)-5-(4-amino-2-oxopyrimidin-1-yl)-3,4-dihydroxyoxolan-2-yl]methoxy-hydroxyphosphoryl]oxy-6-[(1R)-1,2-dihydroxyethyl]-4,5-dihydroxyoxane-2-carboxylic acid

> <PUBCHEM_IUPAC_SYSTEMATIC_NAME>
(2R,4R,5R,6R)-2-[[(2R,3S,4R,5R)-5-(4-azanyl-2-oxidanylidene-pyrimidin-1-yl)-3,4-bis(oxidanyl)oxolan-2-yl]methoxy-oxidanyl-phosphoryl]oxy-6-[(1R)-1,2-bis(oxidanyl)ethyl]-4,5-bis(oxidanyl)oxane-2-carboxylic acid

> <PUBCHEM_IUPAC_TRADITIONAL_NAME>
(2R,4R,5R,6R)-2-[[(2R,3S,4R,5R)-5-(4-amino-2-keto-pyrimidin-1-yl)-3,4-dihydroxy-tetrahydrofuran-2-yl]methoxy-hydroxy-phosphoryl]oxy-6-[(1R)-1,2-dihydroxyethyl]-4,5-dihydroxy-tetrahydropyran-2-carboxylic acid

> <PUBCHEM_IUPAC_INCHI>
InChI=1S/C17H26N3O15P/c18-9-1-2-20(16(29)19-9)14-12(26)11(25)8(33-14)5-32-36(30,31)35-17(15(27)28)3-6(22)10(24)13(34-17)7(23)4-21/h1-2,6-8,10-14,21-26H,3-5H2,(H,27,28)(H,30,31)(H2,18,19,29)/t6-,7-,8-,10-,11-,12-,13-,14-,17-/m1/s1

> <PUBCHEM_IUPAC_INCHIKEY>
YWWJKULNWGRYAS-UOVSKDHASA-N

> <PUBCHEM_XLOGP3_AA>
-6.1

> <PUBCHEM_EXACT_MASS>
543.110154

> <PUBCHEM_MOLECULAR_FORMULA>
C17H26N3O15P

> <PUBCHEM_MOLECULAR_WEIGHT>
543.373202

> <PUBCHEM_OPENEYE_CAN_SMILES>
C1C(C(C(OC1(C(=O)O)OP(=O)(O)OCC2C(C(C(O2)N3C=CC(=NC3=O)N)O)O)C(CO)O)O)O

> <PUBCHEM_OPENEYE_ISO_SMILES>
C1[C@H]([C@H]([C@H](O[C@@]1(C(=O)O)OP(=O)(O)OC[C@@H]2[C@H]([C@H]([C@@H](O2)N3C=CC(=NC3=O)N)O)O)[C@@H](CO)O)O)O

> <PUBCHEM_CACTVS_TPSA>
292

> <PUBCHEM_MONOISOTOPIC_WEIGHT>
543.110154

> <PUBCHEM_TOTAL_CHARGE>
0

> <PUBCHEM_HEAVY_ATOM_COUNT>
36

> <PUBCHEM_ATOM_DEF_STEREO_COUNT>
9

> <PUBCHEM_ATOM_UDEF_STEREO_COUNT>
0

> <PUBCHEM_BOND_DEF_STEREO_COUNT>
0

> <PUBCHEM_BOND_UDEF_STEREO_COUNT>
0

> <PUBCHEM_ISOTOPIC_ATOM_COUNT>
0

> <PUBCHEM_COMPONENT_COUNT>
1

> <PUBCHEM_CACTVS_TAUTO_COUNT>
3

> <PUBCHEM_COORDINATE_TYPE>
1
5
255

> <PUBCHEM_BONDANNOTATIONS>
29  10  6
28  17  6
17  33  8
17  34  8
18  34  8
18  36  8
20  37  6
25  30  6
33  35  8
35  36  8
23  4  5
21  5  5
22  6  5
26  8  5
27  9  5

$$$$

