443377
  -OEChem-07051213022D

 67 67  0     1  0  0  0  0  0999 V2000
    7.1962    0.7306    0.0000 S   0  0  0  0  0  0  0  0  0  0  0  0
    3.7320   -2.2694    0.0000 O   0  0  0  0  0  0  0  0  0  0  0  0
    3.7320   -3.2694    0.0000 O   0  0  0  0  0  0  0  0  0  0  0  0
    4.5981    1.2306    0.0000 O   0  0  0  0  0  0  0  0  0  0  0  0
    8.9562    4.0094    0.0000 O   0  0  0  0  0  0  0  0  0  0  0  0
    5.4361    4.0094    0.0000 O   0  0  0  0  0  0  0  0  0  0  0  0
    5.4641   -2.2694    0.0000 N   0  0  0  0  0  0  0  0  0  0  0  0
    5.4641   -0.2694    0.0000 N   0  0  0  0  0  0  0  0  0  0  0  0
    7.1962    3.7306    0.0000 N   0  0  0  0  0  0  0  0  0  0  0  0
    4.5981   -4.7694    0.0000 N   0  0  0  0  0  0  0  0  0  0  0  0
    6.3301   -3.7694    0.0000 C   0  0  0  0  0  0  0  0  0  0  0  0
    5.4641   -3.2694    0.0000 C   0  0  3  0  0  0  0  0  0  0  0  0
    4.5981   -0.7694    0.0000 C   0  0  1  0  0  0  0  0  0  0  0  0
    3.7320   -0.2694    0.0000 C   0  0  0  0  0  0  0  0  0  0  0  0
    7.1962   -4.2694    0.0000 C   0  0  0  0  0  0  0  0  0  0  0  0
    5.8301   -4.6354    0.0000 C   0  0  0  0  0  0  0  0  0  0  0  0
    6.8301   -2.9034    0.0000 C   0  0  0  0  0  0  0  0  0  0  0  0
    2.8660   -0.7694    0.0000 C   0  0  0  0  0  0  0  0  0  0  0  0
    4.5981   -1.7694    0.0000 C   0  0  0  0  0  0  0  0  0  0  0  0
    4.5981   -3.7694    0.0000 C   0  0  0  0  0  0  0  0  0  0  0  0
    6.3301    1.2306    0.0000 C   0  0  3  0  0  0  0  0  0  0  0  0
    6.3301    2.2306    0.0000 C   0  0  0  0  0  0  0  0  0  0  0  0
    7.1962    2.7306    0.0000 C   0  0  0  0  0  0  0  0  0  0  0  0
    5.4641    0.7306    0.0000 C   0  0  0  0  0  0  0  0  0  0  0  0
    2.0000   -0.2694    0.0000 C   0  0  0  0  0  0  0  0  0  0  0  0
    2.8660   -1.7694    0.0000 C   0  0  0  0  0  0  0  0  0  0  0  0
    7.6962    5.2694    0.0000 C   0  0  0  0  0  0  0  0  0  0  0  0
    6.6962    5.2694    0.0000 C   0  0  0  0  0  0  0  0  0  0  0  0
    8.0052    4.3184    0.0000 C   0  0  0  0  0  0  0  0  0  0  0  0
    6.3871    4.3184    0.0000 C   0  0  0  0  0  0  0  0  0  0  0  0
    3.7320   -5.2694    0.0000 C   0  0  0  0  0  0  0  0  0  0  0  0
    6.2002   -2.8444    0.0000 H   0  0  0  0  0  0  0  0  0  0  0  0
    4.5981   -0.1494    0.0000 H   0  0  0  0  0  0  0  0  0  0  0  0
    4.1306    0.2055    0.0000 H   0  0  0  0  0  0  0  0  0  0  0  0
    3.3335    0.2055    0.0000 H   0  0  0  0  0  0  0  0  0  0  0  0
    6.0010   -1.9594    0.0000 H   0  0  0  0  0  0  0  0  0  0  0  0
    7.3671   -3.2134    0.0000 H   0  0  0  0  0  0  0  0  0  0  0  0
    7.1401   -2.3665    0.0000 H   0  0  0  0  0  0  0  0  0  0  0  0
    6.2932   -2.5934    0.0000 H   0  0  0  0  0  0  0  0  0  0  0  0
    6.8862   -4.8064    0.0000 H   0  0  0  0  0  0  0  0  0  0  0  0
    7.7331   -4.5794    0.0000 H   0  0  0  0  0  0  0  0  0  0  0  0
    7.5062   -3.7325    0.0000 H   0  0  0  0  0  0  0  0  0  0  0  0
    5.2932   -4.3254    0.0000 H   0  0  0  0  0  0  0  0  0  0  0  0
    5.5201   -5.1724    0.0000 H   0  0  0  0  0  0  0  0  0  0  0  0
    6.3671   -4.9454    0.0000 H   0  0  0  0  0  0  0  0  0  0  0  0
    2.8660   -0.1494    0.0000 H   0  0  0  0  0  0  0  0  0  0  0  0
    6.0010   -0.5794    0.0000 H   0  0  0  0  0  0  0  0  0  0  0  0
    7.0662    1.6556    0.0000 H   0  0  0  0  0  0  0  0  0  0  0  0
    6.1181    2.8132    0.0000 H   0  0  0  0  0  0  0  0  0  0  0  0
    5.7196    2.1229    0.0000 H   0  0  0  0  0  0  0  0  0  0  0  0
    7.4082    2.1480    0.0000 H   0  0  0  0  0  0  0  0  0  0  0  0
    7.8067    2.8382    0.0000 H   0  0  0  0  0  0  0  0  0  0  0  0
    2.3100    0.2675    0.0000 H   0  0  0  0  0  0  0  0  0  0  0  0
    2.2460   -1.7694    0.0000 H   0  0  0  0  0  0  0  0  0  0  0  0
    2.8660   -2.3894    0.0000 H   0  0  0  0  0  0  0  0  0  0  0  0
    3.4860   -1.7694    0.0000 H   0  0  0  0  0  0  0  0  0  0  0  0
    1.4631    0.0406    0.0000 H   0  0  0  0  0  0  0  0  0  0  0  0
    1.6900   -0.8064    0.0000 H   0  0  0  0  0  0  0  0  0  0  0  0
    5.1350   -5.0794    0.0000 H   0  0  0  0  0  0  0  0  0  0  0  0
    8.3026    5.3983    0.0000 H   0  0  0  0  0  0  0  0  0  0  0  0
    7.6313    5.8860    0.0000 H   0  0  0  0  0  0  0  0  0  0  0  0
    6.7610    5.8860    0.0000 H   0  0  0  0  0  0  0  0  0  0  0  0
    6.0897    5.3983    0.0000 H   0  0  0  0  0  0  0  0  0  0  0  0
    3.4220   -4.7325    0.0000 H   0  0  0  0  0  0  0  0  0  0  0  0
    3.1951   -5.5794    0.0000 H   0  0  0  0  0  0  0  0  0  0  0  0
    4.0420   -5.8064    0.0000 H   0  0  0  0  0  0  0  0  0  0  0  0
    7.1962    0.1106    0.0000 H   0  0  0  0  0  0  0  0  0  0  0  0
  1 21  1  0  0  0  0
  1 67  1  0  0  0  0
  2 19  2  0  0  0  0
  3 20  2  0  0  0  0
  4 24  2  0  0  0  0
  5 29  2  0  0  0  0
  6 30  2  0  0  0  0
  7 12  1  0  0  0  0
  7 19  1  0  0  0  0
  7 36  1  0  0  0  0
 13  8  1  6  0  0  0
  8 24  1  0  0  0  0
  8 47  1  0  0  0  0
  9 23  1  0  0  0  0
  9 29  1  0  0  0  0
  9 30  1  0  0  0  0
 10 20  1  0  0  0  0
 10 31  1  0  0  0  0
 10 59  1  0  0  0  0
 11 12  1  0  0  0  0
 11 15  1  0  0  0  0
 11 16  1  0  0  0  0
 11 17  1  0  0  0  0
 12 20  1  0  0  0  0
 12 32  1  0  0  0  0
 13 14  1  0  0  0  0
 13 19  1  0  0  0  0
 13 33  1  0  0  0  0
 14 18  1  0  0  0  0
 14 34  1  0  0  0  0
 14 35  1  0  0  0  0
 15 40  1  0  0  0  0
 15 41  1  0  0  0  0
 15 42  1  0  0  0  0
 16 43  1  0  0  0  0
 16 44  1  0  0  0  0
 16 45  1  0  0  0  0
 17 37  1  0  0  0  0
 17 38  1  0  0  0  0
 17 39  1  0  0  0  0
 18 25  1  0  0  0  0
 18 26  1  0  0  0  0
 18 46  1  0  0  0  0
 21 22  1  0  0  0  0
 21 24  1  0  0  0  0
 21 48  1  0  0  0  0
 22 23  1  0  0  0  0
 22 49  1  0  0  0  0
 22 50  1  0  0  0  0
 23 51  1  0  0  0  0
 23 52  1  0  0  0  0
 25 53  1  0  0  0  0
 25 57  1  0  0  0  0
 25 58  1  0  0  0  0
 26 54  1  0  0  0  0
 26 55  1  0  0  0  0
 26 56  1  0  0  0  0
 27 28  1  0  0  0  0
 27 29  1  0  0  0  0
 27 60  1  0  0  0  0
 27 61  1  0  0  0  0
 28 30  1  0  0  0  0
 28 62  1  0  0  0  0
 28 63  1  0  0  0  0
 31 64  1  0  0  0  0
 31 65  1  0  0  0  0
 31 66  1  0  0  0  0
M  END
> <PUBCHEM_COMPOUND_CID>
443377

> <PUBCHEM_COMPOUND_CANONICALIZED>
1

> <PUBCHEM_CACTVS_COMPLEXITY>
688

> <PUBCHEM_CACTVS_HBOND_ACCEPTOR>
6

> <PUBCHEM_CACTVS_HBOND_DONOR>
4

> <PUBCHEM_CACTVS_ROTATABLE_BOND>
11

> <PUBCHEM_CACTVS_SUBSKEYS>
AAADcfB7uABAAAAAAAAAAAAAAAAAAWAAAAAAAAAAAAAAAAAAAAAAHgQQAAAADyjFwASCAAPAAAQIAAEQEAAAAAAAAAAAAIGIAAAAQBIAgCAUAAAAFiCAAAAdAAANAAAAAAAAAAAAAAAAAAAAAAAAAAAAAA==

> <PUBCHEM_IUPAC_OPENEYE_NAME>
(2S)-N-[2,2-dimethyl-1-(methylcarbamoyl)propyl]-2-[[4-(2,5-dioxopyrrolidin-1-yl)-2-sulfanyl-butanoyl]amino]-4-methyl-pentanamide

> <PUBCHEM_IUPAC_CAS_NAME>
(2S)-N-[3,3-dimethyl-1-(methylamino)-1-oxobutan-2-yl]-2-[[4-(2,5-dioxo-1-pyrrolidinyl)-2-mercapto-1-oxobutyl]amino]-4-methylpentanamide

> <PUBCHEM_IUPAC_NAME>
(2S)-N-[3,3-dimethyl-1-(methylamino)-1-oxobutan-2-yl]-2-[[4-(2,5-dioxopyrrolidin-1-yl)-2-sulfanylbutanoyl]amino]-4-methylpentanamide

> <PUBCHEM_IUPAC_SYSTEMATIC_NAME>
(2S)-2-[[4-[2,5-bis(oxidanylidene)pyrrolidin-1-yl]-2-sulfanyl-butanoyl]amino]-N-[3,3-dimethyl-1-(methylamino)-1-oxidanylidene-butan-2-yl]-4-methyl-pentanamide

> <PUBCHEM_IUPAC_TRADITIONAL_NAME>
(2S)-N-[2,2-dimethyl-1-(methylcarbamoyl)propyl]-2-[(2-mercapto-4-succinimido-butanoyl)amino]-4-methyl-valeramide

> <PUBCHEM_IUPAC_INCHI>
InChI=1S/C21H36N4O5S/c1-12(2)11-13(18(28)24-17(20(30)22-6)21(3,4)5)23-19(29)14(31)9-10-25-15(26)7-8-16(25)27/h12-14,17,31H,7-11H2,1-6H3,(H,22,30)(H,23,29)(H,24,28)/t13-,14?,17?/m0/s1

> <PUBCHEM_IUPAC_INCHIKEY>
JSAZXDIRFNTFPR-CBCUQQMYSA-N

> <PUBCHEM_XLOGP3_AA>
1.3

> <PUBCHEM_EXACT_MASS>
456.240641

> <PUBCHEM_MOLECULAR_FORMULA>
C21H36N4O5S

> <PUBCHEM_MOLECULAR_WEIGHT>
456.59934

> <PUBCHEM_OPENEYE_CAN_SMILES>
CC(C)CC(C(=O)NC(C(=O)NC)C(C)(C)C)NC(=O)C(CCN1C(=O)CCC1=O)S

> <PUBCHEM_OPENEYE_ISO_SMILES>
CC(C)C[C@@H](C(=O)NC(C(=O)NC)C(C)(C)C)NC(=O)C(CCN1C(=O)CCC1=O)S

> <PUBCHEM_CACTVS_TPSA>
126

> <PUBCHEM_MONOISOTOPIC_WEIGHT>
456.240641

> <PUBCHEM_TOTAL_CHARGE>
0

> <PUBCHEM_HEAVY_ATOM_COUNT>
31

> <PUBCHEM_ATOM_DEF_STEREO_COUNT>
1

> <PUBCHEM_ATOM_UDEF_STEREO_COUNT>
2

> <PUBCHEM_BOND_DEF_STEREO_COUNT>
0

> <PUBCHEM_BOND_UDEF_STEREO_COUNT>
0

> <PUBCHEM_ISOTOPIC_ATOM_COUNT>
0

> <PUBCHEM_COMPONENT_COUNT>
1

> <PUBCHEM_CACTVS_TAUTO_COUNT>
24

> <PUBCHEM_COORDINATE_TYPE>
1
5
255

> <PUBCHEM_BONDANNOTATIONS>
12  32  3
21  48  3
13  8  6

$$$$

