441555
  -OEChem-07051212552D

110112  0     1  0  0  0  0  0999 V2000
   16.1466   -0.2421    0.0000 O   0  0  0  0  0  0  0  0  0  0  0  0
   18.2157   -0.9144    0.0000 O   0  0  0  0  0  0  0  0  0  0  0  0
   14.1786   -0.9415    0.0000 O   0  0  0  0  0  0  0  0  0  0  0  0
   19.3967   -2.6370    0.0000 O   0  0  0  0  0  0  0  0  0  0  0  0
    5.3803    3.4845    0.0000 O   0  0  0  0  0  0  0  0  0  0  0  0
    2.0000    3.5246    0.0000 O   0  0  0  0  0  0  0  0  0  0  0  0
    2.0933    1.7450    0.0000 O   0  0  0  0  0  0  0  0  0  0  0  0
   16.9556    0.3457    0.0000 C   0  0  1  0  0  0  0  0  0  0  0  0
   17.9066    0.0366    0.0000 C   0  0  1  0  0  0  0  0  0  0  0  0
   16.6466    1.2967    0.0000 C   0  0  0  0  0  0  0  0  0  0  0  0
   18.7157    0.6244    0.0000 C   0  0  0  0  0  0  0  0  0  0  0  0
   15.3376    0.3457    0.0000 C   0  0  2  0  0  0  0  0  0  0  0  0
   19.2157   -0.9144    0.0000 C   0  0  2  0  0  0  0  0  0  0  0  0
   15.6466    1.2967    0.0000 C   0  0  0  0  0  0  0  0  0  0  0  0
   19.5247    0.0366    0.0000 C   0  0  0  0  0  0  0  0  0  0  0  0
   14.3865    0.0366    0.0000 C   0  0  1  0  0  0  0  0  0  0  0  0
   19.8034   -1.7234    0.0000 C   0  0  1  0  0  0  0  0  0  0  0  0
   13.6434    0.7058    0.0000 C   0  0  0  0  0  0  0  0  0  0  0  0
   20.7980   -1.6189    0.0000 C   0  0  0  0  0  0  0  0  0  0  0  0
   12.6923    0.3968    0.0000 C   0  0  0  0  0  0  0  0  0  0  0  0
   21.3858   -2.4279    0.0000 C   0  0  0  0  0  0  0  0  0  0  0  0
   11.9492    1.0659    0.0000 C   0  0  0  0  0  0  0  0  0  0  0  0
   22.3803   -2.3234    0.0000 C   0  0  0  0  0  0  0  0  0  0  0  0
   10.9981    0.7569    0.0000 C   0  0  0  0  0  0  0  0  0  0  0  0
   22.9681   -3.1324    0.0000 C   0  0  0  0  0  0  0  0  0  0  0  0
   10.2550    1.4260    0.0000 C   0  0  0  0  0  0  0  0  0  0  0  0
   23.9626   -3.0279    0.0000 C   0  0  0  0  0  0  0  0  0  0  0  0
    9.3039    1.1170    0.0000 C   0  0  0  0  0  0  0  0  0  0  0  0
   24.5504   -3.8369    0.0000 C   0  0  0  0  0  0  0  0  0  0  0  0
    8.5608    1.7861    0.0000 C   0  0  0  0  0  0  0  0  0  0  0  0
    7.6097    1.4771    0.0000 C   0  0  0  0  0  0  0  0  0  0  0  0
   25.5449   -3.7324    0.0000 C   0  0  0  0  0  0  0  0  0  0  0  0
    6.8666    2.1462    0.0000 C   0  0  0  0  0  0  0  0  0  0  0  0
   26.1327   -4.5414    0.0000 C   0  0  0  0  0  0  0  0  0  0  0  0
    5.9155    1.8372    0.0000 C   0  0  0  0  0  0  0  0  0  0  0  0
    5.1724    2.5064    0.0000 C   0  0  1  0  0  0  0  0  0  0  0  0
   27.1272   -4.4368    0.0000 C   0  0  0  0  0  0  0  0  0  0  0  0
    4.2213    2.1973    0.0000 C   0  0  0  0  0  0  0  0  0  0  0  0
    3.4782    2.8665    0.0000 C   0  0  0  0  0  0  0  0  0  0  0  0
   27.7150   -5.2459    0.0000 C   0  0  0  0  0  0  0  0  0  0  0  0
    3.5827    3.8610    0.0000 C   0  0  0  0  0  0  0  0  0  0  0  0
    2.6691    4.2677    0.0000 C   0  0  2  0  0  0  0  0  0  0  0  0
    2.5000    2.6586    0.0000 C   0  0  0  0  0  0  0  0  0  0  0  0
    2.4612    5.2459    0.0000 C   0  0  0  0  0  0  0  0  0  0  0  0
   17.0886   -0.4939    0.0000 H   0  0  0  0  0  0  0  0  0  0  0  0
   17.3056   -0.5644    0.0000 H   0  0  0  0  0  0  0  0  0  0  0  0
   17.2530    1.4256    0.0000 H   0  0  0  0  0  0  0  0  0  0  0  0
   16.5818    1.9133    0.0000 H   0  0  0  0  0  0  0  0  0  0  0  0
   19.1305    1.0852    0.0000 H   0  0  0  0  0  0  0  0  0  0  0  0
   18.3008    1.0852    0.0000 H   0  0  0  0  0  0  0  0  0  0  0  0
   15.2046   -0.4939    0.0000 H   0  0  0  0  0  0  0  0  0  0  0  0
   18.8298   -1.6718    0.0000 H   0  0  0  0  0  0  0  0  0  0  0  0
   15.7114    1.9133    0.0000 H   0  0  0  0  0  0  0  0  0  0  0  0
   15.0401    1.4256    0.0000 H   0  0  0  0  0  0  0  0  0  0  0  0
   20.0911   -0.2155    0.0000 H   0  0  0  0  0  0  0  0  0  0  0  0
   19.8347    0.5736    0.0000 H   0  0  0  0  0  0  0  0  0  0  0  0
   13.7968   -0.1549    0.0000 H   0  0  0  0  0  0  0  0  0  0  0  0
   20.1679   -2.2250    0.0000 H   0  0  0  0  0  0  0  0  0  0  0  0
   14.1319    1.0875    0.0000 H   0  0  0  0  0  0  0  0  0  0  0  0
   13.3523    1.2532    0.0000 H   0  0  0  0  0  0  0  0  0  0  0  0
   21.3552   -1.3471    0.0000 H   0  0  0  0  0  0  0  0  0  0  0  0
   20.6271   -1.0229    0.0000 H   0  0  0  0  0  0  0  0  0  0  0  0
   12.2037    0.0151    0.0000 H   0  0  0  0  0  0  0  0  0  0  0  0
   12.9834   -0.1507    0.0000 H   0  0  0  0  0  0  0  0  0  0  0  0
   20.8285   -2.6997    0.0000 H   0  0  0  0  0  0  0  0  0  0  0  0
   21.5567   -3.0239    0.0000 H   0  0  0  0  0  0  0  0  0  0  0  0
   13.5889   -1.1331    0.0000 H   0  0  0  0  0  0  0  0  0  0  0  0
   19.7611   -3.1386    0.0000 H   0  0  0  0  0  0  0  0  0  0  0  0
   12.4377    1.4476    0.0000 H   0  0  0  0  0  0  0  0  0  0  0  0
   11.6581    1.6133    0.0000 H   0  0  0  0  0  0  0  0  0  0  0  0
   22.9375   -2.0516    0.0000 H   0  0  0  0  0  0  0  0  0  0  0  0
   22.2094   -1.7274    0.0000 H   0  0  0  0  0  0  0  0  0  0  0  0
   10.5095    0.3752    0.0000 H   0  0  0  0  0  0  0  0  0  0  0  0
   11.2892    0.2094    0.0000 H   0  0  0  0  0  0  0  0  0  0  0  0
   22.4108   -3.4042    0.0000 H   0  0  0  0  0  0  0  0  0  0  0  0
   23.1390   -3.7284    0.0000 H   0  0  0  0  0  0  0  0  0  0  0  0
   10.7435    1.8077    0.0000 H   0  0  0  0  0  0  0  0  0  0  0  0
    9.9639    1.9734    0.0000 H   0  0  0  0  0  0  0  0  0  0  0  0
   24.5198   -2.7561    0.0000 H   0  0  0  0  0  0  0  0  0  0  0  0
   23.7917   -2.4319    0.0000 H   0  0  0  0  0  0  0  0  0  0  0  0
    8.8153    0.7353    0.0000 H   0  0  0  0  0  0  0  0  0  0  0  0
    9.5950    0.5696    0.0000 H   0  0  0  0  0  0  0  0  0  0  0  0
   23.9931   -4.1087    0.0000 H   0  0  0  0  0  0  0  0  0  0  0  0
   24.7213   -4.4329    0.0000 H   0  0  0  0  0  0  0  0  0  0  0  0
    9.0493    2.1678    0.0000 H   0  0  0  0  0  0  0  0  0  0  0  0
    8.2697    2.3335    0.0000 H   0  0  0  0  0  0  0  0  0  0  0  0
    7.1211    1.0954    0.0000 H   0  0  0  0  0  0  0  0  0  0  0  0
    7.9008    0.9297    0.0000 H   0  0  0  0  0  0  0  0  0  0  0  0
   26.1021   -3.4606    0.0000 H   0  0  0  0  0  0  0  0  0  0  0  0
   25.3740   -3.1364    0.0000 H   0  0  0  0  0  0  0  0  0  0  0  0
    7.3551    2.5279    0.0000 H   0  0  0  0  0  0  0  0  0  0  0  0
    6.5755    2.6937    0.0000 H   0  0  0  0  0  0  0  0  0  0  0  0
   25.5754   -4.8132    0.0000 H   0  0  0  0  0  0  0  0  0  0  0  0
   26.3036   -5.1374    0.0000 H   0  0  0  0  0  0  0  0  0  0  0  0
    5.4269    1.4555    0.0000 H   0  0  0  0  0  0  0  0  0  0  0  0
    6.2066    1.2898    0.0000 H   0  0  0  0  0  0  0  0  0  0  0  0
    5.7620    2.6979    0.0000 H   0  0  0  0  0  0  0  0  0  0  0  0
   27.6845   -4.1651    0.0000 H   0  0  0  0  0  0  0  0  0  0  0  0
   26.9563   -3.8409    0.0000 H   0  0  0  0  0  0  0  0  0  0  0  0
    3.7327    1.8156    0.0000 H   0  0  0  0  0  0  0  0  0  0  0  0
    4.5124    1.6499    0.0000 H   0  0  0  0  0  0  0  0  0  0  0  0
   27.2134   -5.6103    0.0000 H   0  0  0  0  0  0  0  0  0  0  0  0
   28.0794   -5.7475    0.0000 H   0  0  0  0  0  0  0  0  0  0  0  0
   28.2166   -4.8814    0.0000 H   0  0  0  0  0  0  0  0  0  0  0  0
    5.9699    3.6761    0.0000 H   0  0  0  0  0  0  0  0  0  0  0  0
    4.1196    4.1710    0.0000 H   0  0  0  0  0  0  0  0  0  0  0  0
    2.0703    4.4282    0.0000 H   0  0  0  0  0  0  0  0  0  0  0  0
    3.0677    5.3748    0.0000 H   0  0  0  0  0  0  0  0  0  0  0  0
    2.3323    5.8523    0.0000 H   0  0  0  0  0  0  0  0  0  0  0  0
    1.8548    5.1170    0.0000 H   0  0  0  0  0  0  0  0  0  0  0  0
  1  8  1  0  0  0  0
  1 12  1  0  0  0  0
  2  9  1  0  0  0  0
  2 13  1  0  0  0  0
 16  3  1  6  0  0  0
  3 67  1  0  0  0  0
 17  4  1  1  0  0  0
  4 68  1  0  0  0  0
 36  5  1  1  0  0  0
  5105  1  0  0  0  0
  6 42  1  0  0  0  0
  6 43  1  0  0  0  0
  7 43  2  0  0  0  0
  8  9  1  0  0  0  0
  8 10  1  0  0  0  0
  8 45  1  1  0  0  0
  9 11  1  0  0  0  0
  9 46  1  6  0  0  0
 10 14  1  0  0  0  0
 10 47  1  0  0  0  0
 10 48  1  0  0  0  0
 11 15  1  0  0  0  0
 11 49  1  0  0  0  0
 11 50  1  0  0  0  0
 12 14  1  0  0  0  0
 12 16  1  0  0  0  0
 12 51  1  6  0  0  0
 13 15  1  0  0  0  0
 13 17  1  0  0  0  0
 13 52  1  1  0  0  0
 14 53  1  0  0  0  0
 14 54  1  0  0  0  0
 15 55  1  0  0  0  0
 15 56  1  0  0  0  0
 16 18  1  0  0  0  0
 16 57  1  0  0  0  0
 17 19  1  0  0  0  0
 17 58  1  0  0  0  0
 18 20  1  0  0  0  0
 18 59  1  0  0  0  0
 18 60  1  0  0  0  0
 19 21  1  0  0  0  0
 19 61  1  0  0  0  0
 19 62  1  0  0  0  0
 20 22  1  0  0  0  0
 20 63  1  0  0  0  0
 20 64  1  0  0  0  0
 21 23  1  0  0  0  0
 21 65  1  0  0  0  0
 21 66  1  0  0  0  0
 22 24  1  0  0  0  0
 22 69  1  0  0  0  0
 22 70  1  0  0  0  0
 23 25  1  0  0  0  0
 23 71  1  0  0  0  0
 23 72  1  0  0  0  0
 24 26  1  0  0  0  0
 24 73  1  0  0  0  0
 24 74  1  0  0  0  0
 25 27  1  0  0  0  0
 25 75  1  0  0  0  0
 25 76  1  0  0  0  0
 26 28  1  0  0  0  0
 26 77  1  0  0  0  0
 26 78  1  0  0  0  0
 27 29  1  0  0  0  0
 27 79  1  0  0  0  0
 27 80  1  0  0  0  0
 28 30  1  0  0  0  0
 28 81  1  0  0  0  0
 28 82  1  0  0  0  0
 29 32  1  0  0  0  0
 29 83  1  0  0  0  0
 29 84  1  0  0  0  0
 30 31  1  0  0  0  0
 30 85  1  0  0  0  0
 30 86  1  0  0  0  0
 31 33  1  0  0  0  0
 31 87  1  0  0  0  0
 31 88  1  0  0  0  0
 32 34  1  0  0  0  0
 32 89  1  0  0  0  0
 32 90  1  0  0  0  0
 33 35  1  0  0  0  0
 33 91  1  0  0  0  0
 33 92  1  0  0  0  0
 34 37  1  0  0  0  0
 34 93  1  0  0  0  0
 34 94  1  0  0  0  0
 35 36  1  0  0  0  0
 35 95  1  0  0  0  0
 35 96  1  0  0  0  0
 36 38  1  0  0  0  0
 36 97  1  0  0  0  0
 37 40  1  0  0  0  0
 37 98  1  0  0  0  0
 37 99  1  0  0  0  0
 38 39  1  0  0  0  0
 38100  1  0  0  0  0
 38101  1  0  0  0  0
 39 41  2  0  0  0  0
 39 43  1  0  0  0  0
 40102  1  0  0  0  0
 40103  1  0  0  0  0
 40104  1  0  0  0  0
 41 42  1  0  0  0  0
 41106  1  0  0  0  0
 42 44  1  1  0  0  0
 42107  1  0  0  0  0
 44108  1  0  0  0  0
 44109  1  0  0  0  0
 44110  1  0  0  0  0
M  END
> <PUBCHEM_COMPOUND_CID>
441555

> <PUBCHEM_COMPOUND_CANONICALIZED>
1

> <PUBCHEM_CACTVS_COMPLEXITY>
801

> <PUBCHEM_CACTVS_HBOND_ACCEPTOR>
7

> <PUBCHEM_CACTVS_HBOND_DONOR>
3

> <PUBCHEM_CACTVS_ROTATABLE_BOND>
25

> <PUBCHEM_CACTVS_SUBSKEYS>
AAADcfB8OAAAAAAAAAAAAAAAAAAAASJEAAAAAAAAAAAAAAAAAAAAGgAACAAADBSggAICCAAABgCIAiDSCAAAAAAgAAAACAEAAEgBFBIAIQACUAAEwAALIYPK6KyAAAAAAAAAAAAAAAAAAAAAAAAAAAAAAA==

> <PUBCHEM_IUPAC_OPENEYE_NAME>
(2S)-4-[(2S,13R)-2,13-dihydroxy-13-[(2R,5R)-5-[(2R,5R)-5-[(1R)-1-hydroxyundecyl]tetrahydrofuran-2-yl]tetrahydrofuran-2-yl]tridecyl]-2-methyl-2H-furan-5-one

> <PUBCHEM_IUPAC_CAS_NAME>
(2S)-4-[(2S,13R)-2,13-dihydroxy-13-[(2R,5R)-5-[(2R,5R)-5-[(1R)-1-hydroxyundecyl]-2-oxolanyl]-2-oxolanyl]tridecyl]-2-methyl-2H-furan-5-one

> <PUBCHEM_IUPAC_NAME>
(2S)-4-[(2S,13R)-2,13-dihydroxy-13-[(2R,5R)-5-[(2R,5R)-5-[(1R)-1-hydroxyundecyl]oxolan-2-yl]oxolan-2-yl]tridecyl]-2-methyl-2H-furan-5-one

> <PUBCHEM_IUPAC_SYSTEMATIC_NAME>
(2S)-4-[(2S,13R)-2,13-bis(oxidanyl)-13-[(2R,5R)-5-[(2R,5R)-5-[(1R)-1-oxidanylundecyl]oxolan-2-yl]oxolan-2-yl]tridecyl]-2-methyl-2H-furan-5-one

> <PUBCHEM_IUPAC_TRADITIONAL_NAME>
(2S)-4-[(2S,13R)-2,13-dihydroxy-13-[(2R,5R)-5-[(2R,5R)-5-[(1R)-1-hydroxyundecyl]tetrahydrofuran-2-yl]tetrahydrofuran-2-yl]tridecyl]-2-methyl-2H-furan-5-one

> <PUBCHEM_IUPAC_INCHI>
InChI=1S/C37H66O7/c1-3-4-5-6-7-11-14-17-20-31(39)33-22-24-35(43-33)36-25-23-34(44-36)32(40)21-18-15-12-9-8-10-13-16-19-30(38)27-29-26-28(2)42-37(29)41/h26,28,30-36,38-40H,3-25,27H2,1-2H3/t28-,30-,31+,32+,33+,34+,35+,36+/m0/s1

> <PUBCHEM_IUPAC_INCHIKEY>
MBABCNBNDNGODA-WGCJABNLSA-N

> <PUBCHEM_XLOGP3_AA>
9.7

> <PUBCHEM_EXACT_MASS>
622.480854

> <PUBCHEM_MOLECULAR_FORMULA>
C37H66O7

> <PUBCHEM_MOLECULAR_WEIGHT>
622.91574

> <PUBCHEM_OPENEYE_CAN_SMILES>
CCCCCCCCCCC(C1CCC(O1)C2CCC(O2)C(CCCCCCCCCCC(CC3=CC(OC3=O)C)O)O)O

> <PUBCHEM_OPENEYE_ISO_SMILES>
CCCCCCCCCC[C@H]([C@H]1CC[C@@H](O1)[C@H]2CC[C@@H](O2)[C@@H](CCCCCCCCCC[C@@H](CC3=C[C@@H](OC3=O)C)O)O)O

> <PUBCHEM_CACTVS_TPSA>
105

> <PUBCHEM_MONOISOTOPIC_WEIGHT>
622.480854

> <PUBCHEM_TOTAL_CHARGE>
0

> <PUBCHEM_HEAVY_ATOM_COUNT>
44

> <PUBCHEM_ATOM_DEF_STEREO_COUNT>
8

> <PUBCHEM_ATOM_UDEF_STEREO_COUNT>
0

> <PUBCHEM_BOND_DEF_STEREO_COUNT>
0

> <PUBCHEM_BOND_UDEF_STEREO_COUNT>
0

> <PUBCHEM_ISOTOPIC_ATOM_COUNT>
0

> <PUBCHEM_COMPONENT_COUNT>
1

> <PUBCHEM_CACTVS_TAUTO_COUNT>
1

> <PUBCHEM_COORDINATE_TYPE>
1
5
255

> <PUBCHEM_BONDANNOTATIONS>
12  51  6
13  52  5
16  3  6
17  4  5
42  44  5
36  5  5
8  45  5
9  46  6

$$$$

