442868
  -OEChem-07051213002D

 49 52  0     1  0  0  0  0  0999 V2000
    6.0290   -0.4202    0.0000 O   0  0  0  0  0  0  0  0  0  0  0  0
    2.5369   -0.3856    0.0000 O   0  0  0  0  0  0  0  0  0  0  0  0
    2.5369    1.6144    0.0000 O   0  0  0  0  0  0  0  0  0  0  0  0
    4.2690    2.6144    0.0000 O   0  0  0  0  0  0  0  0  0  0  0  0
    6.0174    2.6490    0.0000 O   0  0  0  0  0  0  0  0  0  0  0  0
   10.3914   -1.9197    0.0000 O   0  0  0  0  0  0  0  0  0  0  0  0
    3.4600   -1.9734    0.0000 N   0  0  3  0  0  0  0  0  0  0  0  0
    4.2690   -1.3856    0.0000 C   0  0  3  0  0  0  0  0  0  0  0  0
    5.0780   -1.9734    0.0000 C   0  0  0  0  0  0  0  0  0  0  0  0
    4.7690   -2.9244    0.0000 C   0  0  0  0  0  0  0  0  0  0  0  0
    3.7690   -2.9244    0.0000 C   0  0  0  0  0  0  0  0  0  0  0  0
    4.2690   -0.3856    0.0000 C   0  0  0  0  0  0  0  0  0  0  0  0
    2.5089   -1.6644    0.0000 C   0  0  0  0  0  0  0  0  0  0  0  0
    5.1350    0.1144    0.0000 C   0  0  0  0  0  0  0  0  0  0  0  0
    3.4030    0.1144    0.0000 C   0  0  0  0  0  0  0  0  0  0  0  0
    5.1350    1.1144    0.0000 C   0  0  0  0  0  0  0  0  0  0  0  0
    3.4030    1.1144    0.0000 C   0  0  0  0  0  0  0  0  0  0  0  0
    4.2690    1.6144    0.0000 C   0  0  0  0  0  0  0  0  0  0  0  0
    6.0290    1.6491    0.0000 C   0  0  0  0  0  0  0  0  0  0  0  0
    6.9350    0.0936    0.0000 C   0  0  0  0  0  0  0  0  0  0  0  0
    6.9350    1.1352    0.0000 C   0  0  0  0  0  0  0  0  0  0  0  0
    7.7991   -0.4097    0.0000 C   0  0  0  0  0  0  0  0  0  0  0  0
    2.5369    2.6144    0.0000 C   0  0  0  0  0  0  0  0  0  0  0  0
    7.7953   -1.4097    0.0000 C   0  0  0  0  0  0  0  0  0  0  0  0
    8.6671    0.0869    0.0000 C   0  0  0  0  0  0  0  0  0  0  0  0
    8.6594   -1.9131    0.0000 C   0  0  0  0  0  0  0  0  0  0  0  0
    9.5312   -0.4164    0.0000 C   0  0  0  0  0  0  0  0  0  0  0  0
    9.5273   -1.4164    0.0000 C   0  0  0  0  0  0  0  0  0  0  0  0
    5.0263   -0.9997    0.0000 H   0  0  0  0  0  0  0  0  0  0  0  0
    5.6444   -2.2255    0.0000 H   0  0  0  0  0  0  0  0  0  0  0  0
    5.3880   -1.4364    0.0000 H   0  0  0  0  0  0  0  0  0  0  0  0
    4.7042   -3.5410    0.0000 H   0  0  0  0  0  0  0  0  0  0  0  0
    5.3754   -3.0533    0.0000 H   0  0  0  0  0  0  0  0  0  0  0  0
    3.1625   -3.0533    0.0000 H   0  0  0  0  0  0  0  0  0  0  0  0
    3.8338   -3.5410    0.0000 H   0  0  0  0  0  0  0  0  0  0  0  0
    2.7005   -1.0747    0.0000 H   0  0  0  0  0  0  0  0  0  0  0  0
    1.9193   -1.4728    0.0000 H   0  0  0  0  0  0  0  0  0  0  0  0
    2.3173   -2.2540    0.0000 H   0  0  0  0  0  0  0  0  0  0  0  0
    7.4708    1.4473    0.0000 H   0  0  0  0  0  0  0  0  0  0  0  0
    2.0000   -0.0756    0.0000 H   0  0  0  0  0  0  0  0  0  0  0  0
    3.7320    2.9244    0.0000 H   0  0  0  0  0  0  0  0  0  0  0  0
    3.1569    2.6144    0.0000 H   0  0  0  0  0  0  0  0  0  0  0  0
    2.5369    3.2344    0.0000 H   0  0  0  0  0  0  0  0  0  0  0  0
    1.9169    2.6144    0.0000 H   0  0  0  0  0  0  0  0  0  0  0  0
    7.2571   -1.7176    0.0000 H   0  0  0  0  0  0  0  0  0  0  0  0
    8.6694    0.7069    0.0000 H   0  0  0  0  0  0  0  0  0  0  0  0
    8.6570   -2.5330    0.0000 H   0  0  0  0  0  0  0  0  0  0  0  0
   10.0693   -0.1085    0.0000 H   0  0  0  0  0  0  0  0  0  0  0  0
   10.9295   -1.6118    0.0000 H   0  0  0  0  0  0  0  0  0  0  0  0
  1 14  1  0  0  0  0
  1 20  1  0  0  0  0
  2 15  1  0  0  0  0
  2 40  1  0  0  0  0
  3 17  1  0  0  0  0
  3 23  1  0  0  0  0
  4 18  1  0  0  0  0
  4 41  1  0  0  0  0
  5 19  2  0  0  0  0
  6 28  1  0  0  0  0
  6 49  1  0  0  0  0
  7  8  1  0  0  0  0
  7 11  1  0  0  0  0
  7 13  1  0  0  0  0
  8  9  1  0  0  0  0
  8 12  1  0  0  0  0
  8 29  1  0  0  0  0
  9 10  1  0  0  0  0
  9 30  1  0  0  0  0
  9 31  1  0  0  0  0
 10 11  1  0  0  0  0
 10 32  1  0  0  0  0
 10 33  1  0  0  0  0
 11 34  1  0  0  0  0
 11 35  1  0  0  0  0
 12 14  1  0  0  0  0
 12 15  2  0  0  0  0
 13 36  1  0  0  0  0
 13 37  1  0  0  0  0
 13 38  1  0  0  0  0
 14 16  2  0  0  0  0
 15 17  1  0  0  0  0
 16 18  1  0  0  0  0
 16 19  1  0  0  0  0
 17 18  2  0  0  0  0
 19 21  1  0  0  0  0
 20 21  2  0  0  0  0
 20 22  1  0  0  0  0
 21 39  1  0  0  0  0
 22 24  2  0  0  0  0
 22 25  1  0  0  0  0
 23 42  1  0  0  0  0
 23 43  1  0  0  0  0
 23 44  1  0  0  0  0
 24 26  1  0  0  0  0
 24 45  1  0  0  0  0
 25 27  2  0  0  0  0
 25 46  1  0  0  0  0
 26 28  2  0  0  0  0
 26 47  1  0  0  0  0
 27 28  1  0  0  0  0
 27 48  1  0  0  0  0
M  END
> <PUBCHEM_COMPOUND_CID>
442868

> <PUBCHEM_COMPOUND_CANONICALIZED>
1

> <PUBCHEM_CACTVS_COMPLEXITY>
616

> <PUBCHEM_CACTVS_HBOND_ACCEPTOR>
7

> <PUBCHEM_CACTVS_HBOND_DONOR>
3

> <PUBCHEM_CACTVS_ROTATABLE_BOND>
3

> <PUBCHEM_CACTVS_SUBSKEYS>
AAADceB6OAAAAAAAAAAAAAAAAAAAAWAAAAAwYIAAAAAAAACBQAAAHgAACAAADCzBmAYyBoMABgCIAqBSAACCCAAkIAAIiAEOjMgNJzaGtRuGeWvn4BWLuQf6/f/eIQADCAAIQABCAAYQABCAAAAAAAAAAA==

> <PUBCHEM_IUPAC_OPENEYE_NAME>
5,7-dihydroxy-2-(4-hydroxyphenyl)-6-methoxy-8-(1-methylpyrrolidin-2-yl)chromen-4-one

> <PUBCHEM_IUPAC_CAS_NAME>
5,7-dihydroxy-2-(4-hydroxyphenyl)-6-methoxy-8-(1-methyl-2-pyrrolidinyl)-1-benzopyran-4-one

> <PUBCHEM_IUPAC_NAME>
5,7-dihydroxy-2-(4-hydroxyphenyl)-6-methoxy-8-(1-methylpyrrolidin-2-yl)chromen-4-one

> <PUBCHEM_IUPAC_SYSTEMATIC_NAME>
2-(4-hydroxyphenyl)-6-methoxy-8-(1-methylpyrrolidin-2-yl)-5,7-bis(oxidanyl)chromen-4-one

> <PUBCHEM_IUPAC_TRADITIONAL_NAME>
5,7-dihydroxy-2-(4-hydroxyphenyl)-6-methoxy-8-(1-methylpyrrolidin-2-yl)chromone

> <PUBCHEM_IUPAC_INCHI>
InChI=1S/C21H21NO6/c1-22-9-3-4-13(22)16-18(25)21(27-2)19(26)17-14(24)10-15(28-20(16)17)11-5-7-12(23)8-6-11/h5-8,10,13,23,25-26H,3-4,9H2,1-2H3

> <PUBCHEM_IUPAC_INCHIKEY>
MHPSUMPGWBYSSV-UHFFFAOYSA-N

> <PUBCHEM_XLOGP3_AA>
3

> <PUBCHEM_EXACT_MASS>
383.136887

> <PUBCHEM_MOLECULAR_FORMULA>
C21H21NO6

> <PUBCHEM_MOLECULAR_WEIGHT>
383.39454

> <PUBCHEM_OPENEYE_CAN_SMILES>
CN1CCCC1C2=C(C(=C(C3=C2OC(=CC3=O)C4=CC=C(C=C4)O)O)OC)O

> <PUBCHEM_OPENEYE_ISO_SMILES>
CN1CCCC1C2=C(C(=C(C3=C2OC(=CC3=O)C4=CC=C(C=C4)O)O)OC)O

> <PUBCHEM_CACTVS_TPSA>
99.5

> <PUBCHEM_MONOISOTOPIC_WEIGHT>
383.136887

> <PUBCHEM_TOTAL_CHARGE>
0

> <PUBCHEM_HEAVY_ATOM_COUNT>
28

> <PUBCHEM_ATOM_DEF_STEREO_COUNT>
0

> <PUBCHEM_ATOM_UDEF_STEREO_COUNT>
1

> <PUBCHEM_BOND_DEF_STEREO_COUNT>
0

> <PUBCHEM_BOND_UDEF_STEREO_COUNT>
0

> <PUBCHEM_ISOTOPIC_ATOM_COUNT>
0

> <PUBCHEM_COMPONENT_COUNT>
1

> <PUBCHEM_CACTVS_TAUTO_COUNT>
57

> <PUBCHEM_COORDINATE_TYPE>
1
5
255

> <PUBCHEM_BONDANNOTATIONS>
1  14  8
1  20  8
12  14  8
12  15  8
14  16  8
15  17  8
16  18  8
16  19  8
17  18  8
19  21  8
20  21  8
22  24  8
22  25  8
24  26  8
25  27  8
26  28  8
27  28  8
8  29  3

$$$$

