4407
  -OEChem-06261200062D

 20 21  0     0  0  0  0  0  0999 V2000
    2.0000   -1.0000    0.0000 Cl  0  0  0  0  0  0  0  0  0  0  0  0
    2.0000    1.0000    0.0000 Cl  0  0  0  0  0  0  0  0  0  0  0  0
    3.7320   -2.0000    0.0000 O   0  0  0  0  0  0  0  0  0  0  0  0
    3.7320    2.0000    0.0000 O   0  0  0  0  0  0  0  0  0  0  0  0
    5.4804   -2.0346    0.0000 O   0  0  0  0  0  0  0  0  0  0  0  0
    5.4804    2.0346    0.0000 O   0  0  0  0  0  0  0  0  0  0  0  0
    4.5981   -0.5000    0.0000 C   0  0  0  0  0  0  0  0  0  0  0  0
    4.5981    0.5000    0.0000 C   0  0  0  0  0  0  0  0  0  0  0  0
    3.7320   -1.0000    0.0000 C   0  0  0  0  0  0  0  0  0  0  0  0
    3.7320    1.0000    0.0000 C   0  0  0  0  0  0  0  0  0  0  0  0
    5.4920   -1.0347    0.0000 C   0  0  0  0  0  0  0  0  0  0  0  0
    5.4920    1.0347    0.0000 C   0  0  0  0  0  0  0  0  0  0  0  0
    2.8660   -0.5000    0.0000 C   0  0  0  0  0  0  0  0  0  0  0  0
    2.8660    0.5000    0.0000 C   0  0  0  0  0  0  0  0  0  0  0  0
    6.3981   -0.5208    0.0000 C   0  0  0  0  0  0  0  0  0  0  0  0
    6.3981    0.5208    0.0000 C   0  0  0  0  0  0  0  0  0  0  0  0
    6.9338    0.8329    0.0000 H   0  0  0  0  0  0  0  0  0  0  0  0
    6.9338   -0.8329    0.0000 H   0  0  0  0  0  0  0  0  0  0  0  0
    3.1951    2.3100    0.0000 H   0  0  0  0  0  0  0  0  0  0  0  0
    3.1951   -2.3100    0.0000 H   0  0  0  0  0  0  0  0  0  0  0  0
  1 13  1  0  0  0  0
  2 14  1  0  0  0  0
  3  9  1  0  0  0  0
  3 20  1  0  0  0  0
  4 10  1  0  0  0  0
  4 19  1  0  0  0  0
  5 11  2  0  0  0  0
  6 12  2  0  0  0  0
  7  8  2  0  0  0  0
  7  9  1  0  0  0  0
  7 11  1  0  0  0  0
  8 10  1  0  0  0  0
  8 12  1  0  0  0  0
  9 13  2  0  0  0  0
 10 14  2  0  0  0  0
 11 15  1  0  0  0  0
 12 16  1  0  0  0  0
 13 14  1  0  0  0  0
 15 16  2  0  0  0  0
 15 18  1  0  0  0  0
 16 17  1  0  0  0  0
M  END
> <PUBCHEM_COMPOUND_CID>
4407

> <PUBCHEM_COMPOUND_CANONICALIZED>
1

> <PUBCHEM_CACTVS_COMPLEXITY>
334

> <PUBCHEM_CACTVS_HBOND_ACCEPTOR>
4

> <PUBCHEM_CACTVS_HBOND_DONOR>
2

> <PUBCHEM_CACTVS_ROTATABLE_BOND>
0

> <PUBCHEM_CACTVS_SUBSKEYS>
AAADcYBwOAAGAAAAAAAAAAAAAAAAAAAAAAAwQAAAAAAAAACBAAAAGgIACAAADAaAmCAABoAAAgCIAqBSAAACAAAkJEAIikEEC8gIJjaDFhKAcUAk4BEImYfLyLCOhQABIQAYCAQKAAJCADAQCAAAAAAAAA==

> <PUBCHEM_IUPAC_OPENEYE_NAME>
6,7-dichloro-5,8-dihydroxy-naphthalene-1,4-dione

> <PUBCHEM_IUPAC_CAS_NAME>
6,7-dichloro-5,8-dihydroxynaphthalene-1,4-dione

> <PUBCHEM_IUPAC_NAME>
6,7-dichloro-5,8-dihydroxynaphthalene-1,4-dione

> <PUBCHEM_IUPAC_SYSTEMATIC_NAME>
6,7-bis(chloranyl)-5,8-bis(oxidanyl)naphthalene-1,4-dione

> <PUBCHEM_IUPAC_TRADITIONAL_NAME>
6,7-dichloro-5,8-dihydroxy-1,4-naphthoquinone

> <PUBCHEM_IUPAC_INCHI>
InChI=1S/C10H4Cl2O4/c11-7-8(12)10(16)6-4(14)2-1-3(13)5(6)9(7)15/h1-2,15-16H

> <PUBCHEM_IUPAC_INCHIKEY>
KFAVXUQFBGHURZ-UHFFFAOYSA-N

> <PUBCHEM_XLOGP3_AA>
3.1

> <PUBCHEM_EXACT_MASS>
257.948664

> <PUBCHEM_MOLECULAR_FORMULA>
C10H4Cl2O4

> <PUBCHEM_MOLECULAR_WEIGHT>
259.04236

> <PUBCHEM_OPENEYE_CAN_SMILES>
C1=CC(=O)C2=C(C1=O)C(=C(C(=C2O)Cl)Cl)O

> <PUBCHEM_OPENEYE_ISO_SMILES>
C1=CC(=O)C2=C(C1=O)C(=C(C(=C2O)Cl)Cl)O

> <PUBCHEM_CACTVS_TPSA>
74.6

> <PUBCHEM_MONOISOTOPIC_WEIGHT>
257.948664

> <PUBCHEM_TOTAL_CHARGE>
0

> <PUBCHEM_HEAVY_ATOM_COUNT>
16

> <PUBCHEM_ATOM_DEF_STEREO_COUNT>
0

> <PUBCHEM_ATOM_UDEF_STEREO_COUNT>
0

> <PUBCHEM_BOND_DEF_STEREO_COUNT>
0

> <PUBCHEM_BOND_UDEF_STEREO_COUNT>
0

> <PUBCHEM_ISOTOPIC_ATOM_COUNT>
0

> <PUBCHEM_COMPONENT_COUNT>
1

> <PUBCHEM_CACTVS_TAUTO_COUNT>
10

> <PUBCHEM_COORDINATE_TYPE>
1
5
255

> <PUBCHEM_BONDANNOTATIONS>
10  14  8
13  14  8
7  8  8
7  9  8
8  10  8
9  13  8

$$$$

