240339
  -OEChem-07051213072D

 52 55  0     1  0  0  0  0  0999 V2000
   11.2461    2.1128    0.0000 O   0  0  0  0  0  0  0  0  0  0  0  0
   12.5190    0.3575    0.0000 O   0  0  0  0  0  0  0  0  0  0  0  0
    4.5961   -2.1948    0.0000 O   0  0  0  0  0  0  0  0  0  0  0  0
    9.9892    0.8575    0.0000 C   0  0  1  0  0  0  0  0  0  0  0  0
    9.9892   -0.1425    0.0000 C   0  0  2  0  0  0  0  0  0  0  0  0
    9.1232   -0.6425    0.0000 C   0  0  1  0  0  0  0  0  0  0  0  0
    8.2572   -0.1425    0.0000 C   0  0  2  0  0  0  0  0  0  0  0  0
   10.9354    1.1623    0.0000 C   0  0  2  0  0  0  0  0  0  0  0  0
    9.1232    1.3575    0.0000 C   0  0  0  0  0  0  0  0  0  0  0  0
   10.9354   -0.4472    0.0000 C   0  0  0  0  0  0  0  0  0  0  0  0
   11.5190    0.3575    0.0000 C   0  0  2  0  0  0  0  0  0  0  0  0
    8.2572    0.8575    0.0000 C   0  0  0  0  0  0  0  0  0  0  0  0
    9.1392   -1.6840    0.0000 C   0  0  0  0  0  0  0  0  0  0  0  0
    9.9892    1.8575    0.0000 C   0  0  0  0  0  0  0  0  0  0  0  0
    7.3472   -0.6493    0.0000 C   0  0  0  0  0  0  0  0  0  0  0  0
    8.2412   -2.2117    0.0000 C   0  0  0  0  0  0  0  0  0  0  0  0
    7.3391   -1.6909    0.0000 C   0  0  0  0  0  0  0  0  0  0  0  0
    6.4203   -0.0852    0.0000 C   0  0  0  0  0  0  0  0  0  0  0  0
    6.4037   -2.2406    0.0000 C   0  0  0  0  0  0  0  0  0  0  0  0
    5.4724   -0.6132    0.0000 C   0  0  0  0  0  0  0  0  0  0  0  0
    5.4641   -1.6981    0.0000 C   0  0  0  0  0  0  0  0  0  0  0  0
    3.7320   -1.6915    0.0000 C   0  0  0  0  0  0  0  0  0  0  0  0
    2.8641   -2.1881    0.0000 C   0  0  0  0  0  0  0  0  0  0  0  0
    2.0000   -1.6848    0.0000 C   0  0  0  0  0  0  0  0  0  0  0  0
   10.0792   -0.9877    0.0000 H   0  0  0  0  0  0  0  0  0  0  0  0
    9.8626   -1.0618    0.0000 H   0  0  0  0  0  0  0  0  0  0  0  0
    8.9933    0.2825    0.0000 H   0  0  0  0  0  0  0  0  0  0  0  0
   10.4980    1.6016    0.0000 H   0  0  0  0  0  0  0  0  0  0  0  0
    9.5217    1.8325    0.0000 H   0  0  0  0  0  0  0  0  0  0  0  0
    8.7247    1.8325    0.0000 H   0  0  0  0  0  0  0  0  0  0  0  0
   10.6844   -1.0141    0.0000 H   0  0  0  0  0  0  0  0  0  0  0  0
   11.4728   -0.7564    0.0000 H   0  0  0  0  0  0  0  0  0  0  0  0
   11.8008    0.9098    0.0000 H   0  0  0  0  0  0  0  0  0  0  0  0
    8.0451    1.4401    0.0000 H   0  0  0  0  0  0  0  0  0  0  0  0
    7.6466    0.7499    0.0000 H   0  0  0  0  0  0  0  0  0  0  0  0
    9.3573   -2.2644    0.0000 H   0  0  0  0  0  0  0  0  0  0  0  0
    9.7484   -1.5685    0.0000 H   0  0  0  0  0  0  0  0  0  0  0  0
   10.6092    1.8575    0.0000 H   0  0  0  0  0  0  0  0  0  0  0  0
    9.9892    2.4775    0.0000 H   0  0  0  0  0  0  0  0  0  0  0  0
    9.3692    1.8575    0.0000 H   0  0  0  0  0  0  0  0  0  0  0  0
    7.8439   -2.6877    0.0000 H   0  0  0  0  0  0  0  0  0  0  0  0
    8.6422   -2.6846    0.0000 H   0  0  0  0  0  0  0  0  0  0  0  0
   11.8528    2.2406    0.0000 H   0  0  0  0  0  0  0  0  0  0  0  0
   12.8290   -0.1794    0.0000 H   0  0  0  0  0  0  0  0  0  0  0  0
    6.4323    0.5347    0.0000 H   0  0  0  0  0  0  0  0  0  0  0  0
    6.4061   -2.8606    0.0000 H   0  0  0  0  0  0  0  0  0  0  0  0
    4.9391   -0.2970    0.0000 H   0  0  0  0  0  0  0  0  0  0  0  0
    4.1324   -1.2181    0.0000 H   0  0  0  0  0  0  0  0  0  0  0  0
    3.3353   -1.2150    0.0000 H   0  0  0  0  0  0  0  0  0  0  0  0
    2.8617   -2.8081    0.0000 H   0  0  0  0  0  0  0  0  0  0  0  0
    2.0024   -1.0648    0.0000 H   0  0  0  0  0  0  0  0  0  0  0  0
    1.4619   -1.9927    0.0000 H   0  0  0  0  0  0  0  0  0  0  0  0
  8  1  1  1  0  0  0
  1 43  1  0  0  0  0
 11  2  1  1  0  0  0
  2 44  1  0  0  0  0
  3 21  1  0  0  0  0
  3 22  1  0  0  0  0
  4  5  1  0  0  0  0
  4  8  1  0  0  0  0
  4  9  1  0  0  0  0
  4 14  1  1  0  0  0
  5  6  1  0  0  0  0
  5 10  1  0  0  0  0
  5 25  1  6  0  0  0
  6  7  1  0  0  0  0
  6 13  1  0  0  0  0
  6 26  1  1  0  0  0
  7 12  1  0  0  0  0
  7 15  1  0  0  0  0
  7 27  1  6  0  0  0
  8 11  1  0  0  0  0
  8 28  1  0  0  0  0
  9 12  1  0  0  0  0
  9 29  1  0  0  0  0
  9 30  1  0  0  0  0
 10 11  1  0  0  0  0
 10 31  1  0  0  0  0
 10 32  1  0  0  0  0
 11 33  1  0  0  0  0
 12 34  1  0  0  0  0
 12 35  1  0  0  0  0
 13 16  1  0  0  0  0
 13 36  1  0  0  0  0
 13 37  1  0  0  0  0
 14 38  1  0  0  0  0
 14 39  1  0  0  0  0
 14 40  1  0  0  0  0
 15 17  2  0  0  0  0
 15 18  1  0  0  0  0
 16 17  1  0  0  0  0
 16 41  1  0  0  0  0
 16 42  1  0  0  0  0
 17 19  1  0  0  0  0
 18 20  2  0  0  0  0
 18 45  1  0  0  0  0
 19 21  2  0  0  0  0
 19 46  1  0  0  0  0
 20 21  1  0  0  0  0
 20 47  1  0  0  0  0
 22 23  1  0  0  0  0
 22 48  1  0  0  0  0
 22 49  1  0  0  0  0
 23 24  2  0  0  0  0
 23 50  1  0  0  0  0
 24 51  1  0  0  0  0
 24 52  1  0  0  0  0
M  END
> <PUBCHEM_COMPOUND_CID>
240339

> <PUBCHEM_COMPOUND_CANONICALIZED>
1

> <PUBCHEM_CACTVS_COMPLEXITY>
478

> <PUBCHEM_CACTVS_HBOND_ACCEPTOR>
3

> <PUBCHEM_CACTVS_HBOND_DONOR>
2

> <PUBCHEM_CACTVS_ROTATABLE_BOND>
3

> <PUBCHEM_CACTVS_SUBSKEYS>
AAADceB4MAAAAAAAAAAAAAAAAAAAAYAAAAAwYMAAAAAAAGDBAAAAGgAACAAADxSgmAIyBoAABgCAAiBCAAACCAAgIAAIiAAGCIgNNiKEMRqCeCCkwBEJqAeA4PAPoAABAAAQAADAAAYAACAAAIAADCAAAA==

> <PUBCHEM_IUPAC_OPENEYE_NAME>
(8R,9S,13S,14S,16S,17R)-3-allyloxy-13-methyl-6,7,8,9,11,12,14,15,16,17-decahydrocyclopenta[a]phenanthrene-16,17-diol

> <PUBCHEM_IUPAC_CAS_NAME>
(8R,9S,13S,14S,16S,17R)-13-methyl-3-prop-2-enoxy-6,7,8,9,11,12,14,15,16,17-decahydrocyclopenta[a]phenanthrene-16,17-diol

> <PUBCHEM_IUPAC_NAME>
(8R,9S,13S,14S,16S,17R)-13-methyl-3-prop-2-enoxy-6,7,8,9,11,12,14,15,16,17-decahydrocyclopenta[a]phenanthrene-16,17-diol

> <PUBCHEM_IUPAC_SYSTEMATIC_NAME>
(8R,9S,13S,14S,16S,17R)-13-methyl-3-prop-2-enoxy-6,7,8,9,11,12,14,15,16,17-decahydrocyclopenta[a]phenanthrene-16,17-diol

> <PUBCHEM_IUPAC_TRADITIONAL_NAME>
(8R,9S,13S,14S,16S,17R)-3-allyloxy-13-methyl-6,7,8,9,11,12,14,15,16,17-decahydrocyclopenta[a]phenanthrene-16,17-diol

> <PUBCHEM_IUPAC_INCHI>
InChI=1S/C21H28O3/c1-3-10-24-14-5-7-15-13(11-14)4-6-17-16(15)8-9-21(2)18(17)12-19(22)20(21)23/h3,5,7,11,16-20,22-23H,1,4,6,8-10,12H2,2H3/t16-,17-,18+,19+,20+,21+/m1/s1

> <PUBCHEM_IUPAC_INCHIKEY>
GVKVGOGUDSJCLX-OFELHODLSA-N

> <PUBCHEM_XLOGP3>
3.4

> <PUBCHEM_EXACT_MASS>
328.203845

> <PUBCHEM_MOLECULAR_FORMULA>
C21H28O3

> <PUBCHEM_MOLECULAR_WEIGHT>
328.44522

> <PUBCHEM_OPENEYE_CAN_SMILES>
CC12CCC3C(C1CC(C2O)O)CCC4=C3C=CC(=C4)OCC=C

> <PUBCHEM_OPENEYE_ISO_SMILES>
C[C@]12CC[C@H]3[C@H]([C@@H]1C[C@@H]([C@@H]2O)O)CCC4=C3C=CC(=C4)OCC=C

> <PUBCHEM_CACTVS_TPSA>
49.7

> <PUBCHEM_MONOISOTOPIC_WEIGHT>
328.203845

> <PUBCHEM_TOTAL_CHARGE>
0

> <PUBCHEM_HEAVY_ATOM_COUNT>
24

> <PUBCHEM_ATOM_DEF_STEREO_COUNT>
6

> <PUBCHEM_ATOM_UDEF_STEREO_COUNT>
0

> <PUBCHEM_BOND_DEF_STEREO_COUNT>
0

> <PUBCHEM_BOND_UDEF_STEREO_COUNT>
0

> <PUBCHEM_ISOTOPIC_ATOM_COUNT>
0

> <PUBCHEM_COMPONENT_COUNT>
1

> <PUBCHEM_CACTVS_TAUTO_COUNT>
1

> <PUBCHEM_COORDINATE_TYPE>
1
5
255

> <PUBCHEM_BONDANNOTATIONS>
8  1  5
15  17  8
15  18  8
17  19  8
18  20  8
19  21  8
11  2  5
20  21  8
4  14  5
5  25  6
6  26  5
7  27  6

$$$$

