443625
  -OEChem-07051213022D

 54 54  0     0  0  0  0  0  0999 V2000
   13.1906   -3.1598    0.0000 O   0  0  0  0  0  0  0  0  0  0  0  0
   13.1906   -1.4278    0.0000 O   0  0  0  0  0  0  0  0  0  0  0  0
    4.1906    2.0363    0.0000 C   0  0  0  0  0  0  0  0  0  0  0  0
    3.7568    1.1354    0.0000 C   0  0  0  0  0  0  0  0  0  0  0  0
    3.7568    2.9373    0.0000 C   0  0  0  0  0  0  0  0  0  0  0  0
    5.1906    2.0363    0.0000 C   0  0  0  0  0  0  0  0  0  0  0  0
    2.7818    0.9128    0.0000 C   0  0  0  0  0  0  0  0  0  0  0  0
    2.7818    3.1598    0.0000 C   0  0  0  0  0  0  0  0  0  0  0  0
    2.0000    1.5363    0.0000 C   0  0  0  0  0  0  0  0  0  0  0  0
    2.0000    2.5363    0.0000 C   0  0  0  0  0  0  0  0  0  0  0  0
    5.6906    1.1703    0.0000 C   0  0  0  0  0  0  0  0  0  0  0  0
    6.6906    1.1703    0.0000 C   0  0  0  0  0  0  0  0  0  0  0  0
    7.1906    0.3043    0.0000 C   0  0  0  0  0  0  0  0  0  0  0  0
    8.1906    0.3043    0.0000 C   0  0  0  0  0  0  0  0  0  0  0  0
    8.6906   -0.5617    0.0000 C   0  0  0  0  0  0  0  0  0  0  0  0
    9.6906   -0.5617    0.0000 C   0  0  0  0  0  0  0  0  0  0  0  0
   10.1906   -1.4278    0.0000 C   0  0  0  0  0  0  0  0  0  0  0  0
   11.1906   -1.4278    0.0000 C   0  0  0  0  0  0  0  0  0  0  0  0
   11.6906   -2.2938    0.0000 C   0  0  0  0  0  0  0  0  0  0  0  0
   12.6906   -2.2938    0.0000 C   0  0  0  0  0  0  0  0  0  0  0  0
    4.5205    2.5613    0.0000 H   0  0  0  0  0  0  0  0  0  0  0  0
    3.7568    0.5154    0.0000 H   0  0  0  0  0  0  0  0  0  0  0  0
    4.3612    0.9974    0.0000 H   0  0  0  0  0  0  0  0  0  0  0  0
    4.3612    3.0753    0.0000 H   0  0  0  0  0  0  0  0  0  0  0  0
    3.7568    3.5573    0.0000 H   0  0  0  0  0  0  0  0  0  0  0  0
    5.7732    2.2484    0.0000 H   0  0  0  0  0  0  0  0  0  0  0  0
    5.0830    2.6469    0.0000 H   0  0  0  0  0  0  0  0  0  0  0  0
    3.0508    3.7184    0.0000 H   0  0  0  0  0  0  0  0  0  0  0  0
    2.2971    0.5263    0.0000 H   0  0  0  0  0  0  0  0  0  0  0  0
    3.0508    0.3542    0.0000 H   0  0  0  0  0  0  0  0  0  0  0  0
    2.2971    3.5464    0.0000 H   0  0  0  0  0  0  0  0  0  0  0  0
    1.3955    1.6743    0.0000 H   0  0  0  0  0  0  0  0  0  0  0  0
    1.7310    0.9777    0.0000 H   0  0  0  0  0  0  0  0  0  0  0  0
    1.7310    3.0949    0.0000 H   0  0  0  0  0  0  0  0  0  0  0  0
    1.3955    2.3984    0.0000 H   0  0  0  0  0  0  0  0  0  0  0  0
    5.1080    0.9583    0.0000 H   0  0  0  0  0  0  0  0  0  0  0  0
    5.7983    0.5597    0.0000 H   0  0  0  0  0  0  0  0  0  0  0  0
    7.2732    1.3824    0.0000 H   0  0  0  0  0  0  0  0  0  0  0  0
    6.5830    1.7809    0.0000 H   0  0  0  0  0  0  0  0  0  0  0  0
    6.6080    0.0922    0.0000 H   0  0  0  0  0  0  0  0  0  0  0  0
    7.2983   -0.3063    0.0000 H   0  0  0  0  0  0  0  0  0  0  0  0
    8.7733    0.5163    0.0000 H   0  0  0  0  0  0  0  0  0  0  0  0
    8.0830    0.9149    0.0000 H   0  0  0  0  0  0  0  0  0  0  0  0
    8.1080   -0.7738    0.0000 H   0  0  0  0  0  0  0  0  0  0  0  0
    8.7983   -1.1723    0.0000 H   0  0  0  0  0  0  0  0  0  0  0  0
   10.2733   -0.3497    0.0000 H   0  0  0  0  0  0  0  0  0  0  0  0
    9.5830    0.0488    0.0000 H   0  0  0  0  0  0  0  0  0  0  0  0
    9.6080   -1.6398    0.0000 H   0  0  0  0  0  0  0  0  0  0  0  0
   10.2983   -2.0384    0.0000 H   0  0  0  0  0  0  0  0  0  0  0  0
   11.7733   -1.2157    0.0000 H   0  0  0  0  0  0  0  0  0  0  0  0
   11.0830   -0.8172    0.0000 H   0  0  0  0  0  0  0  0  0  0  0  0
   11.1080   -2.5058    0.0000 H   0  0  0  0  0  0  0  0  0  0  0  0
   11.7983   -2.9044    0.0000 H   0  0  0  0  0  0  0  0  0  0  0  0
   13.8106   -3.1598    0.0000 H   0  0  0  0  0  0  0  0  0  0  0  0
  1 20  1  0  0  0  0
  1 54  1  0  0  0  0
  2 20  2  0  0  0  0
  3  4  1  0  0  0  0
  3  5  1  0  0  0  0
  3  6  1  0  0  0  0
  3 21  1  0  0  0  0
  4  7  1  0  0  0  0
  4 22  1  0  0  0  0
  4 23  1  0  0  0  0
  5  8  1  0  0  0  0
  5 24  1  0  0  0  0
  5 25  1  0  0  0  0
  6 11  1  0  0  0  0
  6 26  1  0  0  0  0
  6 27  1  0  0  0  0
  7  9  1  0  0  0  0
  7 29  1  0  0  0  0
  7 30  1  0  0  0  0
  8 10  1  0  0  0  0
  8 28  1  0  0  0  0
  8 31  1  0  0  0  0
  9 10  1  0  0  0  0
  9 32  1  0  0  0  0
  9 33  1  0  0  0  0
 10 34  1  0  0  0  0
 10 35  1  0  0  0  0
 11 12  1  0  0  0  0
 11 36  1  0  0  0  0
 11 37  1  0  0  0  0
 12 13  1  0  0  0  0
 12 38  1  0  0  0  0
 12 39  1  0  0  0  0
 13 14  1  0  0  0  0
 13 40  1  0  0  0  0
 13 41  1  0  0  0  0
 14 15  1  0  0  0  0
 14 42  1  0  0  0  0
 14 43  1  0  0  0  0
 15 16  1  0  0  0  0
 15 44  1  0  0  0  0
 15 45  1  0  0  0  0
 16 17  1  0  0  0  0
 16 46  1  0  0  0  0
 16 47  1  0  0  0  0
 17 18  1  0  0  0  0
 17 48  1  0  0  0  0
 17 49  1  0  0  0  0
 18 19  1  0  0  0  0
 18 50  1  0  0  0  0
 18 51  1  0  0  0  0
 19 20  1  0  0  0  0
 19 52  1  0  0  0  0
 19 53  1  0  0  0  0
M  END
> <PUBCHEM_COMPOUND_CID>
443625

> <PUBCHEM_COMPOUND_CANONICALIZED>
1

> <PUBCHEM_CACTVS_COMPLEXITY>
230

> <PUBCHEM_CACTVS_HBOND_ACCEPTOR>
2

> <PUBCHEM_CACTVS_HBOND_DONOR>
1

> <PUBCHEM_CACTVS_ROTATABLE_BOND>
11

> <PUBCHEM_CACTVS_SUBSKEYS>
AAADcfB4MAAAAAAAAAAAAAAAAAAAAAAAAAAAAAAABgAAAAAAAAAAGgAACAAADQCAgAAACAAAAgAIAACQCAAAAAAAAAAAAAEAAAAAABIAAAAAQAAEAAAAAAGIyOCOAAAAAAAAAAAAAAAAAAAAAAAAAAAAAA==

> <PUBCHEM_IUPAC_OPENEYE_NAME>
11-cycloheptylundecanoic acid

> <PUBCHEM_IUPAC_CAS_NAME>
11-cycloheptylundecanoic acid

> <PUBCHEM_IUPAC_NAME>
11-cycloheptylundecanoic acid

> <PUBCHEM_IUPAC_SYSTEMATIC_NAME>
11-cycloheptylundecanoic acid

> <PUBCHEM_IUPAC_TRADITIONAL_NAME>
11-cycloheptylundecanoic acid

> <PUBCHEM_IUPAC_INCHI>
InChI=1S/C18H34O2/c19-18(20)16-12-6-4-2-1-3-5-9-13-17-14-10-7-8-11-15-17/h17H,1-16H2,(H,19,20)

> <PUBCHEM_IUPAC_INCHIKEY>
OMZUUGOYASJZKP-UHFFFAOYSA-N

> <PUBCHEM_XLOGP3_AA>
7.7

> <PUBCHEM_EXACT_MASS>
282.25588

> <PUBCHEM_MOLECULAR_FORMULA>
C18H34O2

> <PUBCHEM_MOLECULAR_WEIGHT>
282.46136

> <PUBCHEM_OPENEYE_CAN_SMILES>
C1CCCC(CC1)CCCCCCCCCCC(=O)O

> <PUBCHEM_OPENEYE_ISO_SMILES>
C1CCCC(CC1)CCCCCCCCCCC(=O)O

> <PUBCHEM_CACTVS_TPSA>
37.3

> <PUBCHEM_MONOISOTOPIC_WEIGHT>
282.25588

> <PUBCHEM_TOTAL_CHARGE>
0

> <PUBCHEM_HEAVY_ATOM_COUNT>
20

> <PUBCHEM_ATOM_DEF_STEREO_COUNT>
0

> <PUBCHEM_ATOM_UDEF_STEREO_COUNT>
0

> <PUBCHEM_BOND_DEF_STEREO_COUNT>
0

> <PUBCHEM_BOND_UDEF_STEREO_COUNT>
0

> <PUBCHEM_ISOTOPIC_ATOM_COUNT>
0

> <PUBCHEM_COMPONENT_COUNT>
1

> <PUBCHEM_CACTVS_TAUTO_COUNT>
1

> <PUBCHEM_COORDINATE_TYPE>
1
5
255

$$$$

