28292
  -OEChem-07051213052D

 34 35  0     0  0  0  0  0  0999 V2000
    4.8660    0.5000    0.0000 S   0  0  0  0  0  0  0  0  0  0  0  0
    3.1340   -0.5000    0.0000 S   0  0  0  0  0  0  0  0  0  0  0  0
    4.0000    0.0000    0.0000 P   0  0  0  0  0  0  0  0  0  0  0  0
    3.5000    0.8660    0.0000 O   0  0  0  0  0  0  0  0  0  0  0  0
    4.5000   -0.8660    0.0000 O   0  0  0  0  0  0  0  0  0  0  0  0
    3.1340   -1.5000    0.0000 C   0  0  0  0  0  0  0  0  0  0  0  0
    4.8660    1.5000    0.0000 C   0  0  0  0  0  0  0  0  0  0  0  0
    2.5000    0.8660    0.0000 C   0  0  0  0  0  0  0  0  0  0  0  0
    5.7320    2.0000    0.0000 C   0  0  0  0  0  0  0  0  0  0  0  0
    2.2680   -2.0000    0.0000 C   0  0  0  0  0  0  0  0  0  0  0  0
    4.0000    2.0000    0.0000 C   0  0  0  0  0  0  0  0  0  0  0  0
    4.0000   -2.0000    0.0000 C   0  0  0  0  0  0  0  0  0  0  0  0
    2.0000    1.7320    0.0000 C   0  0  0  0  0  0  0  0  0  0  0  0
    5.7320    3.0000    0.0000 C   0  0  0  0  0  0  0  0  0  0  0  0
    2.2680   -3.0000    0.0000 C   0  0  0  0  0  0  0  0  0  0  0  0
    4.0000    3.0000    0.0000 C   0  0  0  0  0  0  0  0  0  0  0  0
    4.0000   -3.0000    0.0000 C   0  0  0  0  0  0  0  0  0  0  0  0
    4.8660    3.5000    0.0000 C   0  0  0  0  0  0  0  0  0  0  0  0
    3.1340   -3.5000    0.0000 C   0  0  0  0  0  0  0  0  0  0  0  0
    1.9174    0.6540    0.0000 H   0  0  0  0  0  0  0  0  0  0  0  0
    2.6077    0.2554    0.0000 H   0  0  0  0  0  0  0  0  0  0  0  0
    1.7310   -1.6900    0.0000 H   0  0  0  0  0  0  0  0  0  0  0  0
    6.2690    1.6900    0.0000 H   0  0  0  0  0  0  0  0  0  0  0  0
    4.5369   -1.6900    0.0000 H   0  0  0  0  0  0  0  0  0  0  0  0
    3.4631    1.6900    0.0000 H   0  0  0  0  0  0  0  0  0  0  0  0
    2.5369    2.0420    0.0000 H   0  0  0  0  0  0  0  0  0  0  0  0
    1.6900    2.2690    0.0000 H   0  0  0  0  0  0  0  0  0  0  0  0
    1.4631    1.4220    0.0000 H   0  0  0  0  0  0  0  0  0  0  0  0
    6.2690    3.3100    0.0000 H   0  0  0  0  0  0  0  0  0  0  0  0
    1.7310   -3.3100    0.0000 H   0  0  0  0  0  0  0  0  0  0  0  0
    3.4631    3.3100    0.0000 H   0  0  0  0  0  0  0  0  0  0  0  0
    4.5369   -3.3100    0.0000 H   0  0  0  0  0  0  0  0  0  0  0  0
    4.8660    4.1200    0.0000 H   0  0  0  0  0  0  0  0  0  0  0  0
    3.1340   -4.1200    0.0000 H   0  0  0  0  0  0  0  0  0  0  0  0
  1  3  1  0  0  0  0
  1  7  1  0  0  0  0
  2  3  1  0  0  0  0
  2  6  1  0  0  0  0
  3  4  1  0  0  0  0
  3  5  2  0  0  0  0
  4  8  1  0  0  0  0
  6 10  2  0  0  0  0
  6 12  1  0  0  0  0
  7  9  2  0  0  0  0
  7 11  1  0  0  0  0
  8 13  1  0  0  0  0
  8 20  1  0  0  0  0
  8 21  1  0  0  0  0
  9 14  1  0  0  0  0
  9 23  1  0  0  0  0
 10 15  1  0  0  0  0
 10 22  1  0  0  0  0
 11 16  2  0  0  0  0
 11 25  1  0  0  0  0
 12 17  2  0  0  0  0
 12 24  1  0  0  0  0
 13 26  1  0  0  0  0
 13 27  1  0  0  0  0
 13 28  1  0  0  0  0
 14 18  2  0  0  0  0
 14 29  1  0  0  0  0
 15 19  2  0  0  0  0
 15 30  1  0  0  0  0
 16 18  1  0  0  0  0
 16 31  1  0  0  0  0
 17 19  1  0  0  0  0
 17 32  1  0  0  0  0
 18 33  1  0  0  0  0
 19 34  1  0  0  0  0
M  END
> <PUBCHEM_COMPOUND_CID>
28292

> <PUBCHEM_COMPOUND_CANONICALIZED>
1

> <PUBCHEM_CACTVS_COMPLEXITY>
276

> <PUBCHEM_CACTVS_HBOND_ACCEPTOR>
4

> <PUBCHEM_CACTVS_HBOND_DONOR>
0

> <PUBCHEM_CACTVS_ROTATABLE_BOND>
6

> <PUBCHEM_CACTVS_SUBSKEYS>
AAADccBwMAJgAAAAAAAAAAAAAAAAAAAAAAAwYAAAAAAAAAABQAAAGgQAACAACACg0AIyAYAAARCAQCBCAIACAAAgAAAIiBgAAIgIICKAERCAIAAggAAIiAcAAAAAAAAAAAAAAAAAAAAAAAAAAAAAAAAAAA==

> <PUBCHEM_IUPAC_OPENEYE_NAME>
[ethoxy(phenylsulfanyl)phosphoryl]sulfanylbenzene

> <PUBCHEM_IUPAC_CAS_NAME>
[[ethoxy-(phenylthio)phosphoryl]thio]benzene

> <PUBCHEM_IUPAC_NAME>
[ethoxy(phenylsulfanyl)phosphoryl]sulfanylbenzene

> <PUBCHEM_IUPAC_SYSTEMATIC_NAME>
[ethoxy(phenylsulfanyl)phosphoryl]sulfanylbenzene

> <PUBCHEM_IUPAC_TRADITIONAL_NAME>
[[ethoxy-(phenylthio)phosphoryl]thio]benzene

> <PUBCHEM_IUPAC_INCHI>
InChI=1S/C14H15O2PS2/c1-2-16-17(15,18-13-9-5-3-6-10-13)19-14-11-7-4-8-12-14/h3-12H,2H2,1H3

> <PUBCHEM_IUPAC_INCHIKEY>
AWZOLILCOUMRDG-UHFFFAOYSA-N

> <PUBCHEM_XLOGP3_AA>
3.8

> <PUBCHEM_EXACT_MASS>
310.025108

> <PUBCHEM_MOLECULAR_FORMULA>
C14H15O2PS2

> <PUBCHEM_MOLECULAR_WEIGHT>
310.371462

> <PUBCHEM_OPENEYE_CAN_SMILES>
CCOP(=O)(SC1=CC=CC=C1)SC2=CC=CC=C2

> <PUBCHEM_OPENEYE_ISO_SMILES>
CCOP(=O)(SC1=CC=CC=C1)SC2=CC=CC=C2

> <PUBCHEM_CACTVS_TPSA>
76.9

> <PUBCHEM_MONOISOTOPIC_WEIGHT>
310.025108

> <PUBCHEM_TOTAL_CHARGE>
0

> <PUBCHEM_HEAVY_ATOM_COUNT>
19

> <PUBCHEM_ATOM_DEF_STEREO_COUNT>
0

> <PUBCHEM_ATOM_UDEF_STEREO_COUNT>
0

> <PUBCHEM_BOND_DEF_STEREO_COUNT>
0

> <PUBCHEM_BOND_UDEF_STEREO_COUNT>
0

> <PUBCHEM_ISOTOPIC_ATOM_COUNT>
0

> <PUBCHEM_COMPONENT_COUNT>
1

> <PUBCHEM_CACTVS_TAUTO_COUNT>
1

> <PUBCHEM_COORDINATE_TYPE>
1
5
255

> <PUBCHEM_BONDANNOTATIONS>
10  15  8
11  16  8
12  17  8
14  18  8
15  19  8
16  18  8
17  19  8
6  10  8
6  12  8
7  11  8
7  9  8
9  14  8

$$$$

