11953805
  -OEChem-07051212462D

 65 69  0     1  0  0  0  0  0999 V2000
    5.0519   -2.8509    0.0000 O   0  0  0  0  0  0  0  0  0  0  0  0
    6.3194   -0.8962    0.0000 O   0  0  0  0  0  0  0  0  0  0  0  0
    7.0625   -1.5654    0.0000 O   0  0  0  0  0  0  0  0  0  0  0  0
    6.8547   -2.5434    0.0000 O   0  0  0  0  0  0  0  0  0  0  0  0
    6.4218    3.5941    0.0000 O   0  0  0  0  0  0  0  0  0  0  0  0
    6.3391   -4.0099    0.0000 O   0  0  0  0  0  0  0  0  0  0  0  0
    2.6254   -0.6222    0.0000 N   0  0  3  0  0  0  0  0  0  0  0  0
    5.7049    0.3784    0.0000 N   0  0  3  0  0  0  0  0  0  0  0  0
    4.1652   -0.1219    0.0000 C   0  0  1  0  0  0  0  0  0  0  0  0
    3.5397   -0.8166    0.0000 C   0  0  2  0  0  0  0  0  0  0  0  0
    3.8286   -1.7055    0.0000 C   0  0  1  0  0  0  0  0  0  0  0  0
    5.0795   -0.3163    0.0000 C   0  0  2  0  0  0  0  0  0  0  0  0
    5.3683   -1.2052    0.0000 C   0  0  3  0  0  0  0  0  0  0  0  0
    3.7801    0.9137    0.0000 C   0  0  0  0  0  0  0  0  0  0  0  0
    4.7429   -1.8999    0.0000 C   0  0  2  0  0  0  0  0  0  0  0  0
    4.5018    1.4617    0.0000 C   0  0  0  0  0  0  0  0  0  0  0  0
    2.3366    0.2667    0.0000 C   0  0  0  0  0  0  0  0  0  0  0  0
    4.1376   -2.6566    0.0000 C   0  0  0  0  0  0  0  0  0  0  0  0
    5.4161    1.2673    0.0000 C   0  0  0  0  0  0  0  0  0  0  0  0
    3.2031   -2.4002    0.0000 C   0  0  0  0  0  0  0  0  0  0  0  0
    2.0000   -1.3168    0.0000 C   0  0  0  0  0  0  0  0  0  0  0  0
    2.2888   -2.2058    0.0000 C   0  0  0  0  0  0  0  0  0  0  0  0
    6.1115   -1.8744    0.0000 C   0  0  0  0  0  0  0  0  0  0  0  0
    4.2129    2.3506    0.0000 C   0  0  0  0  0  0  0  0  0  0  0  0
    6.6560    0.6874    0.0000 C   0  0  0  0  0  0  0  0  0  0  0  0
    3.4685   -3.3997    0.0000 C   0  0  0  0  0  0  0  0  0  0  0  0
    6.0415    1.9620    0.0000 C   0  0  0  0  0  0  0  0  0  0  0  0
    4.8384    3.0453    0.0000 C   0  0  0  0  0  0  0  0  0  0  0  0
    5.7527    2.8509    0.0000 C   0  0  0  0  0  0  0  0  0  0  0  0
    5.3609   -3.8020    0.0000 C   0  0  0  0  0  0  0  0  0  0  0  0
    4.6918   -4.5451    0.0000 C   0  0  0  0  0  0  0  0  0  0  0  0
    7.8057   -2.2345    0.0000 C   0  0  0  0  0  0  0  0  0  0  0  0
    6.1128    4.5451    0.0000 C   0  0  0  0  0  0  0  0  0  0  0  0
    3.2771   -0.0082    0.0000 H   0  0  0  0  0  0  0  0  0  0  0  0
    5.9109   -0.4930    0.0000 H   0  0  0  0  0  0  0  0  0  0  0  0
    4.3564    1.1424    0.0000 H   0  0  0  0  0  0  0  0  0  0  0  0
    3.5389    1.4848    0.0000 H   0  0  0  0  0  0  0  0  0  0  0  0
    5.3493   -2.0288    0.0000 H   0  0  0  0  0  0  0  0  0  0  0  0
    2.1034    0.8412    0.0000 H   0  0  0  0  0  0  0  0  0  0  0  0
    1.7542    0.0542    0.0000 H   0  0  0  0  0  0  0  0  0  0  0  0
    4.5193   -3.1452    0.0000 H   0  0  0  0  0  0  0  0  0  0  0  0
    4.6850   -2.3655    0.0000 H   0  0  0  0  0  0  0  0  0  0  0  0
    3.3947   -2.9898    0.0000 H   0  0  0  0  0  0  0  0  0  0  0  0
    1.6183   -0.8283    0.0000 H   0  0  0  0  0  0  0  0  0  0  0  0
    1.4526   -1.6079    0.0000 H   0  0  0  0  0  0  0  0  0  0  0  0
    1.8740   -2.6666    0.0000 H   0  0  0  0  0  0  0  0  0  0  0  0
    3.6065    2.4795    0.0000 H   0  0  0  0  0  0  0  0  0  0  0  0
    6.7342   -0.4355    0.0000 H   0  0  0  0  0  0  0  0  0  0  0  0
    6.8476    0.0977    0.0000 H   0  0  0  0  0  0  0  0  0  0  0  0
    7.2456    0.8790    0.0000 H   0  0  0  0  0  0  0  0  0  0  0  0
    6.4644    1.2770    0.0000 H   0  0  0  0  0  0  0  0  0  0  0  0
    3.0077   -2.9849    0.0000 H   0  0  0  0  0  0  0  0  0  0  0  0
    3.0536   -3.8605    0.0000 H   0  0  0  0  0  0  0  0  0  0  0  0
    3.9292   -3.8146    0.0000 H   0  0  0  0  0  0  0  0  0  0  0  0
    6.6480    1.8330    0.0000 H   0  0  0  0  0  0  0  0  0  0  0  0
    4.6468    3.6349    0.0000 H   0  0  0  0  0  0  0  0  0  0  0  0
    4.2310   -4.1303    0.0000 H   0  0  0  0  0  0  0  0  0  0  0  0
    4.2769   -5.0059    0.0000 H   0  0  0  0  0  0  0  0  0  0  0  0
    5.1525   -4.9600    0.0000 H   0  0  0  0  0  0  0  0  0  0  0  0
    7.3908   -2.6952    0.0000 H   0  0  0  0  0  0  0  0  0  0  0  0
    8.2664   -2.6493    0.0000 H   0  0  0  0  0  0  0  0  0  0  0  0
    8.2205   -1.7737    0.0000 H   0  0  0  0  0  0  0  0  0  0  0  0
    6.7025    4.7367    0.0000 H   0  0  0  0  0  0  0  0  0  0  0  0
    5.9212    5.1348    0.0000 H   0  0  0  0  0  0  0  0  0  0  0  0
    5.5232    4.3535    0.0000 H   0  0  0  0  0  0  0  0  0  0  0  0
 15  1  1  6  0  0  0
  1 30  1  0  0  0  0
  2 13  1  0  0  0  0
  2 48  1  0  0  0  0
  3 23  1  0  0  0  0
  3 32  1  0  0  0  0
  4 23  2  0  0  0  0
  5 29  1  0  0  0  0
  5 33  1  0  0  0  0
  6 30  2  0  0  0  0
  7 10  1  0  0  0  0
  7 17  1  0  0  0  0
  7 21  1  0  0  0  0
  8 12  1  0  0  0  0
  8 19  1  0  0  0  0
  8 25  1  0  0  0  0
  9 10  1  0  0  0  0
  9 12  1  0  0  0  0
  9 14  1  6  0  0  0
  9 16  1  0  0  0  0
 10 11  1  0  0  0  0
 10 34  1  1  0  0  0
 11 15  1  0  0  0  0
 11 18  1  1  0  0  0
 11 20  1  0  0  0  0
 12 13  1  0  0  0  0
 12 35  1  6  0  0  0
 13 15  1  0  0  0  0
 13 23  1  0  0  0  0
 14 17  1  0  0  0  0
 14 36  1  0  0  0  0
 14 37  1  0  0  0  0
 15 38  1  0  0  0  0
 16 19  2  0  0  0  0
 16 24  1  0  0  0  0
 17 39  1  0  0  0  0
 17 40  1  0  0  0  0
 18 26  1  0  0  0  0
 18 41  1  0  0  0  0
 18 42  1  0  0  0  0
 19 27  1  0  0  0  0
 20 22  2  0  0  0  0
 20 43  1  0  0  0  0
 21 22  1  0  0  0  0
 21 44  1  0  0  0  0
 21 45  1  0  0  0  0
 22 46  1  0  0  0  0
 24 28  2  0  0  0  0
 24 47  1  0  0  0  0
 25 49  1  0  0  0  0
 25 50  1  0  0  0  0
 25 51  1  0  0  0  0
 26 52  1  0  0  0  0
 26 53  1  0  0  0  0
 26 54  1  0  0  0  0
 27 29  2  0  0  0  0
 27 55  1  0  0  0  0
 28 29  1  0  0  0  0
 28 56  1  0  0  0  0
 30 31  1  0  0  0  0
 31 57  1  0  0  0  0
 31 58  1  0  0  0  0
 31 59  1  0  0  0  0
 32 60  1  0  0  0  0
 32 61  1  0  0  0  0
 32 62  1  0  0  0  0
 33 63  1  0  0  0  0
 33 64  1  0  0  0  0
 33 65  1  0  0  0  0
M  END
> <PUBCHEM_COMPOUND_CID>
11953805

> <PUBCHEM_COMPOUND_CANONICALIZED>
1

> <PUBCHEM_CACTVS_COMPLEXITY>
864

> <PUBCHEM_CACTVS_HBOND_ACCEPTOR>
8

> <PUBCHEM_CACTVS_HBOND_DONOR>
1

> <PUBCHEM_CACTVS_ROTATABLE_BOND>
6

> <PUBCHEM_CACTVS_SUBSKEYS>
AAADcfB7OAAAAAAAAAAAAAAAAAAAAWLAAAAwYIAAAAAAAFiBAAAAHgAACAAADnzhmAYyzoMABgCIAiTSSAKCCAAhIgAIiAFObIgPJj7E8ZuGcChn4Bnb6Ae42fOfoAAAAgACAABQgAYECBSgAAAAAAAAAA==

> <PUBCHEM_IUPAC_INCHI>
InChI=1S/C25H32N2O6/c1-6-23-10-7-12-27-13-11-24(19(23)27)17-9-8-16(31-4)14-18(17)26(3)20(24)25(30,22(29)32-5)21(23)33-15(2)28/h7-10,14,19-21,30H,6,11-13H2,1-5H3/t19-,20+,21+,23+,24+,25?/m0/s1

> <PUBCHEM_IUPAC_INCHIKEY>
CXBGOBGJHGGWIE-MXXIQHGTSA-N

> <PUBCHEM_XLOGP3>
1.3

> <PUBCHEM_EXACT_MASS>
456.226037

> <PUBCHEM_MOLECULAR_FORMULA>
C25H32N2O6

> <PUBCHEM_MOLECULAR_WEIGHT>
456.53138

> <PUBCHEM_OPENEYE_CAN_SMILES>
CCC12C=CCN3C1C4(CC3)C(C(C2OC(=O)C)(C(=O)OC)O)N(C5=C4C=CC(=C5)OC)C

> <PUBCHEM_OPENEYE_ISO_SMILES>
CC[C@@]12C=CCN3[C@@H]1[C@]4(CC3)[C@H](C([C@@H]2OC(=O)C)(C(=O)OC)O)N(C5=C4C=CC(=C5)OC)C

> <PUBCHEM_CACTVS_TPSA>
88.5

> <PUBCHEM_MONOISOTOPIC_WEIGHT>
456.226037

> <PUBCHEM_TOTAL_CHARGE>
0

> <PUBCHEM_HEAVY_ATOM_COUNT>
33

> <PUBCHEM_ATOM_DEF_STEREO_COUNT>
5

> <PUBCHEM_ATOM_UDEF_STEREO_COUNT>
1

> <PUBCHEM_BOND_DEF_STEREO_COUNT>
0

> <PUBCHEM_BOND_UDEF_STEREO_COUNT>
0

> <PUBCHEM_ISOTOPIC_ATOM_COUNT>
0

> <PUBCHEM_COMPONENT_COUNT>
1

> <PUBCHEM_CACTVS_TAUTO_COUNT>
1

> <PUBCHEM_COORDINATE_TYPE>
1
5
255

> <PUBCHEM_BONDANNOTATIONS>
15  1  6
10  34  5
11  18  5
12  35  6
13  23  3
16  19  8
16  24  8
19  27  8
24  28  8
27  29  8
28  29  8
9  14  6

$$$$

