   Color/Form

     * RHOMBOHEDRAL NEEDLES OR PRISMS FROM ALCOHOL; MONOCLINIC,
       ORTHORHOMBIC
     * SMALL COLORLESS NEEDLES
     * ORTHORHOMBIC PLATES, NEEDLES FROM DILUTED ALCOHOL
     * SMALL, COLORLESS OR FAINTLY YELLOW CRYSTALS

   from [1]HSDB

   Boiling Point
        345.5 deg C @ 760 mm Hg
   from [2]HSDB

   Melting Point
        111 deg C; 106 deg C (form a); 110 deg C (form b)
   from [3]HSDB

   Density/Specific Gravity
        1.005 @ 20 DEG C/4 DEG C
   from [4]HSDB

   Dissociation Constants
        pKa= 5.45 at 15 deg C
   from [5]HSDB

   Octanol/Water Partition Coefficient
        Log P= 3.40
   from [6]HSDB

   pH
        A WEAK BASE, COLORS LITMUS PAPER BLUE
   from [7]HSDB

   Solubilities

     * SLIGHTLY SOL IN HOT WATER; VERY SOL IN ALCOHOL, ETHER, BENZENE AND
       CARBON DISULFIDE
     * Freely sol in hydrocarbons; slightly soluble in boiling water,
       liquid ammonia, liguid sulfur dioxide; sparingly soluble in light
       petroleum
     * Very soluble in carbon disulfide; very soluble in ethanol, ether,
       benzene; slightly soluble in water
     * 1 gm soluble in <1 ml boiling benzene or alcohol; 5 ml benzene (20
       deg C); 6 ml alcohol (20 deg C); 16 ml of ether (20 deg C); 1.8 ml
       boiling cyclohexane.
     * In water= 38.4 mg/L at 24 deg C.

   from [8]HSDB

   Spectral Properties

     * MAX ABSORPTION (ALCOHOL): 240 NM (LOG E= 5.2); 340 NM (LOG E= 3.8)
     * Intense mass spectral peaks: 179 m/z (100%), 180 m/z (14%), 178 m/z
       (14%), 89 m/z (12%)
     * IR: 1153 (Sadtler Research Laboratories Prism Collection)
     * UV: 342 (Sadtler Research Laboratories Spectral Collection)
     * NMR: 81 (Sadtler Research Laboratories Spectral Collection)
     * MASS: 1216 (Atlas of Mass Spectral Data, John Wiley & Sons, New
       York)

   from [9]HSDB

   Vapor Pressure
        1 MM HG @ 129 DEG C
   from [10]HSDB

   Other Chemical/Physical Properties

     * OF THE 5 CRYSTALLINE FORMS OF ACRIDINE, THE 2 STABLE FORMS MELT AT
       110 DEG C AND 106 DEG C
     * OF THE 5 CRYSTALLINE FORMS OF ACRIDINE, 3 MELT AT GREATER THAN 110
       DEG C; 109.5 DEG C AND 109 DEG C
     * DILUTE SOLN OF ACRIDINE AND ITS SALTS HAVE A VIOLET AND GREEN
       FLUORESCENCE, RESPECTIVELY
     * FORMS YELLOW CRYSTALLINE SALTS WITH MINERAL ACIDS; FORMS COLORED
       QUATERNARY AMMONIUM COMPOUNDS (ACRIDINIUM COMPD) BY ACTION OF ALKYL
       AND ARYL HALIDES AND SULFATES
     * SUBLIMES AT 100 DEG C
     * Vapor pressure= 1.35X10-4 mm Hg at 25 deg C /extrapolated from
       experimentally-derived coefficients/

   from [11]HSDB

   Computed Properties
   Molecular Weight                  179.21726 [g/mol]
   Molecular Formula                 C[13]H[9]N
   XLogP3                            3.4
   H-Bond Donor                      0
   H-Bond Acceptor                   1
   Rotatable Bond Count              0
   Exact Mass                        179.073499
   MonoIsotopic Mass                 179.073499
   Topological Polar Surface Area    12.9
   Heavy Atom Count                  14
   Formal Charge                     0
   Complexity                        181
   Isotope Atom Count                0
   Defined Atom Stereocenter Count   0
   Undefined Atom Stereocenter Count 0
   Defined Bond Stereocenter Count   0
   Undefined Bond Stereocenter Count 0
   Covalently-Bonded Unit Count      1
   Feature 3D Acceptor Count         1
   Feature 3D Ring Count             3
   Effective Rotor Count             0
   Conformer Sampling RMSD           0.4
   CID Conformer Count               [12]1

References

   1. http://toxnet.nlm.nih.gov/cgi-bin/sis/search/r?dbs+hsdb:@term+@rn+@rel+260-94-6
   2. http://toxnet.nlm.nih.gov/cgi-bin/sis/search/r?dbs+hsdb:@term+@rn+@rel+260-94-6
   3. http://toxnet.nlm.nih.gov/cgi-bin/sis/search/r?dbs+hsdb:@term+@rn+@rel+260-94-6
   4. http://toxnet.nlm.nih.gov/cgi-bin/sis/search/r?dbs+hsdb:@term+@rn+@rel+260-94-6
   5. http://toxnet.nlm.nih.gov/cgi-bin/sis/search/r?dbs+hsdb:@term+@rn+@rel+260-94-6
   6. http://toxnet.nlm.nih.gov/cgi-bin/sis/search/r?dbs+hsdb:@term+@rn+@rel+260-94-6
   7. http://toxnet.nlm.nih.gov/cgi-bin/sis/search/r?dbs+hsdb:@term+@rn+@rel+260-94-6
   8. http://toxnet.nlm.nih.gov/cgi-bin/sis/search/r?dbs+hsdb:@term+@rn+@rel+260-94-6
   9. http://toxnet.nlm.nih.gov/cgi-bin/sis/search/r?dbs+hsdb:@term+@rn+@rel+260-94-6
  10. http://toxnet.nlm.nih.gov/cgi-bin/sis/search/r?dbs+hsdb:@term+@rn+@rel+260-94-6
  11. http://toxnet.nlm.nih.gov/cgi-bin/sis/search/r?dbs+hsdb:@term+@rn+@rel+260-94-6
  12. http://pubchem.ncbi.nlm.nih.gov/vw3d/vw3d.cgi?cid=9215
