9232
  -OEChem-06261203312D

 16 18  0     1  0  0  0  0  0999 V2000
    2.0000    0.2502    0.0000 O   0  0  0  0  0  0  0  0  0  0  0  0
    4.5988   -1.2502    0.0000 O   0  0  0  0  0  0  0  0  0  0  0  0
    3.7326   -0.7498    0.0000 C   0  0  3  0  0  0  0  0  0  0  0  0
    2.8665   -0.2498    0.0000 C   0  0  3  0  0  0  0  0  0  0  0  0
    2.8665    0.7502    0.0000 C   0  0  3  0  0  0  0  0  0  0  0  0
    4.5986   -0.2498    0.0000 C   0  0  3  0  0  0  0  0  0  0  0  0
    3.7326    1.2502    0.0000 C   0  0  0  0  0  0  0  0  0  0  0  0
    4.5986    0.7502    0.0000 C   0  0  0  0  0  0  0  0  0  0  0  0
    3.4225   -1.2867    0.0000 H   0  0  0  0  0  0  0  0  0  0  0  0
    2.5566   -0.7868    0.0000 H   0  0  0  0  0  0  0  0  0  0  0  0
    2.5566    1.2872    0.0000 H   0  0  0  0  0  0  0  0  0  0  0  0
    5.2186   -0.2497    0.0000 H   0  0  0  0  0  0  0  0  0  0  0  0
    4.1311    1.7252    0.0000 H   0  0  0  0  0  0  0  0  0  0  0  0
    3.3340    1.7252    0.0000 H   0  0  0  0  0  0  0  0  0  0  0  0
    5.2092    0.6426    0.0000 H   0  0  0  0  0  0  0  0  0  0  0  0
    4.8106    1.3328    0.0000 H   0  0  0  0  0  0  0  0  0  0  0  0
  1  4  1  0  0  0  0
  1  5  1  0  0  0  0
  2  3  1  0  0  0  0
  2  6  1  0  0  0  0
  3  4  1  0  0  0  0
  3  6  1  0  0  0  0
  3  9  1  0  0  0  0
  4  5  1  0  0  0  0
  4 10  1  0  0  0  0
  5  7  1  0  0  0  0
  5 11  1  0  0  0  0
  6  8  1  0  0  0  0
  6 12  1  0  0  0  0
  7  8  1  0  0  0  0
  7 13  1  0  0  0  0
  7 14  1  0  0  0  0
  8 15  1  0  0  0  0
  8 16  1  0  0  0  0
M  END
> <PUBCHEM_COMPOUND_CID>
9232

> <PUBCHEM_COMPOUND_CANONICALIZED>
1

> <PUBCHEM_CACTVS_COMPLEXITY>
119

> <PUBCHEM_CACTVS_HBOND_ACCEPTOR>
2

> <PUBCHEM_CACTVS_HBOND_DONOR>
0

> <PUBCHEM_CACTVS_ROTATABLE_BOND>
0

> <PUBCHEM_CACTVS_SUBSKEYS>
AAADccBgMAAAAAAAAAAAAAAAEiQAAAAAAAAwAAAABIkAAAAAAAAAGgAAAAAACBSggAIAAAAABAAAAAAAAAAAAAAAAAAAAAAAAAABAAIAAAACAAAFAAACAAHAYAwAAAAAAAAAAAACAAAQAACAAAAAAAAAAA==

> <PUBCHEM_IUPAC_INCHI>
InChI=1S/C6H8O2/c1-2-4-6(8-4)5-3(1)7-5/h3-6H,1-2H2

> <PUBCHEM_IUPAC_INCHIKEY>
APXNRLPBXNJAGG-UHFFFAOYSA-N

> <PUBCHEM_XLOGP3_AA>
0.2

> <PUBCHEM_EXACT_MASS>
112.052429

> <PUBCHEM_MOLECULAR_FORMULA>
C6H8O2

> <PUBCHEM_MOLECULAR_WEIGHT>
112.12652

> <PUBCHEM_OPENEYE_CAN_SMILES>
C1CC2C(O2)C3C1O3

> <PUBCHEM_OPENEYE_ISO_SMILES>
C1CC2C(O2)C3C1O3

> <PUBCHEM_CACTVS_TPSA>
25.1

> <PUBCHEM_MONOISOTOPIC_WEIGHT>
112.052429

> <PUBCHEM_TOTAL_CHARGE>
0

> <PUBCHEM_HEAVY_ATOM_COUNT>
8

> <PUBCHEM_ATOM_DEF_STEREO_COUNT>
0

> <PUBCHEM_ATOM_UDEF_STEREO_COUNT>
4

> <PUBCHEM_BOND_DEF_STEREO_COUNT>
0

> <PUBCHEM_BOND_UDEF_STEREO_COUNT>
0

> <PUBCHEM_ISOTOPIC_ATOM_COUNT>
0

> <PUBCHEM_COMPONENT_COUNT>
1

> <PUBCHEM_CACTVS_TAUTO_COUNT>
1

> <PUBCHEM_COORDINATE_TYPE>
1
5
255

> <PUBCHEM_BONDANNOTATIONS>
4  1  3
3  2  3
5  7  3
6  8  3

$$$$

