   Color/Form

     * COLORLESS
     * WHITE TRICLINIC CRYSTALS

   from [1]HSDB

   Odor
        ODORLESS
   from [2]HSDB

   Taste

     * SMOOTHLY TART
     * Sour taste

   from [3]HSDB

   Density/Specific Gravity
        SPECIFIC GRAVITY, SATURATED SOLN: 1.250 @ 25 DEG C/4 DEG C
   from [4]HSDB

   Dissociation Constants

     * IONIZATION CONSTANTS: K1= 4X10-4; K2= 9X10-6
     * ACID DISSOCIATION: PKA1 3.4, PKA2 5.05
     * It has two dissociation constants at 20 deg C: Ka1=3.9X10-4,
       Ka2=1.4X10-5

   from [5]HSDB

   Heat of Combustion
        -320.1 KCAL/MOLE; HEAT OF SOLN -4.0 KCAL/MOLE
   from [6]HSDB

   Octanol/Water Partition Coefficient
        log Octanol/water partition coefficient: -1.26
   from [7]HSDB

   Solubilities

     * 100 g of water dissolves 126.3 g malic acid at 20 deg C
     * It is highly soluble in methanol, ethanol, acetone, ether, and
       other polar solvents
     * Water solubility = 592,000 mg/L.

   from [8]HSDB

   Other Chemical/Physical Properties

     * EXHIBITS ISOMERIC FORMS (DL, L, & D)
     * CRYSTALS; SOLUBILITIES @ 20 DEG C: 82.70 G/100 G METHANOL, 0.84
       G/100 G DIETHYL ETHER, 45.53 G/100 G ETHANOL, 17.75 G/100 G
       ACETONE, 22.70 G/100 G DIOXANE, 55.8 G/100 G WATER, PRACTICALLY
       INSOL IN BENZENE; MP: 131-132 DEG C /DL-FORM/
     * DENSITY: 1.601; MP: 128 DEG C; BP: 150 DEG C WITH DECOMP /DL-FORM/
     * BP: 150 DEG C; DENSITY 1.601 /DL-FORM/
     * CRYSTALS FROM ACETONE, OR ACETONE + CHLOROFORM; SOLUBILITIES @ 20
       DEG C: 60.66 G/100 G ACETONE, 74.35 G/100 G DIOXANE, 36.35 G/100 G
       WATER, PRACTICALLY INSOL IN BENZENE, 197.22 G/100 G METHANOL, 2.70
       G/100 G DIETHYL ETHER, 86.60 G/100 ETHANOL; SPECIFIC OPTICAL
       ROTATION: -2.3 DEG (conc = 8.5 G 1100 ML WATER); DECOMP ABOUT 140
       DEG C; MP: 100 DEG C /L-(-)-FORM/
     * CRYSTALS; MP: 101 DEG C /D(+)-FORM/
     * DENSITY: 1.595 @ 20 DEG C/40 DEG C; MP: 100 DEG C; BP: 140 DEG C
       WITH DECOMP /D- OR L-FORM/
     * BUFFERING INDEX: 3.26
     * SPECIFIC OPTICAL ROTATION: -5.7 DEG /L-FORM/, +5.2 DEG /D-FORM/ @
       18 DEG C (IN ACETONE)
     * IR: 2:275F (Aldrich Library of Infrared Spectra, Aldrich Chemical
       Co, Milwaukee, WI) /Malic acid (dl)/
     * NMR: 2:172B (Aldrich Library of Mass Spectra, Aldrich Chemical Co,
       Milwaukee, WI) /Malic acid (dl)/
     * IR: 2:275H (Aldrich Library of Infrared Spectra, Aldrich Chemical
       Co, Milwaukee, WI) /Malic acid (l)/
     * NMR: 2:172C (Aldrich Library of Mass Spectra, Aldrich Chemical Co,
       Milwaukee, WI) /Malic acid (l)/
     * IR: 2:275G (Aldrich Library of Infrared Spectra, Aldrich Chemical
       Co, Milwaukee, WI) /Malic acid (d)/
     * Melting point, 100 deg C; density, 1.595 at 20 deg C; solubility in
       water, 36.4 g in 100 g of water at 20 deg C
     * Water solubility: 592000 mg/l
     * Light brown color /Commercial product/

   from [9]HSDB

   Computed Properties
   Molecular Weight                  134.08744 [g/mol]
   Molecular Formula                 C[4]H[6]O[5]
   XLogP3                            -1.3
   H-Bond Donor                      3
   H-Bond Acceptor                   5
   Rotatable Bond Count              3
   Exact Mass                        134.021523
   MonoIsotopic Mass                 134.021523
   Topological Polar Surface Area    94.8
   Heavy Atom Count                  9
   Formal Charge                     0
   Complexity                        129
   Isotope Atom Count                0
   Defined Atom Stereocenter Count   1
   Undefined Atom Stereocenter Count 0
   Defined Bond Stereocenter Count   0
   Undefined Bond Stereocenter Count 0
   Covalently-Bonded Unit Count      1
   Feature 3D Acceptor Count         5
   Feature 3D Donor Count            1
   Feature 3D Anion Count            2
   Effective Rotor Count             3
   Conformer Sampling RMSD           0.6
   CID Conformer Count               [10]12

References

   1. http://toxnet.nlm.nih.gov/cgi-bin/sis/search/r?dbs+hsdb:@term+@rn+@rel+6915-15-7
   2. http://toxnet.nlm.nih.gov/cgi-bin/sis/search/r?dbs+hsdb:@term+@rn+@rel+6915-15-7
   3. http://toxnet.nlm.nih.gov/cgi-bin/sis/search/r?dbs+hsdb:@term+@rn+@rel+6915-15-7
   4. http://toxnet.nlm.nih.gov/cgi-bin/sis/search/r?dbs+hsdb:@term+@rn+@rel+6915-15-7
   5. http://toxnet.nlm.nih.gov/cgi-bin/sis/search/r?dbs+hsdb:@term+@rn+@rel+6915-15-7
   6. http://toxnet.nlm.nih.gov/cgi-bin/sis/search/r?dbs+hsdb:@term+@rn+@rel+6915-15-7
   7. http://toxnet.nlm.nih.gov/cgi-bin/sis/search/r?dbs+hsdb:@term+@rn+@rel+6915-15-7
   8. http://toxnet.nlm.nih.gov/cgi-bin/sis/search/r?dbs+hsdb:@term+@rn+@rel+6915-15-7
   9. http://toxnet.nlm.nih.gov/cgi-bin/sis/search/r?dbs+hsdb:@term+@rn+@rel+6915-15-7
  10. http://pubchem.ncbi.nlm.nih.gov/vw3d/vw3d.cgi?cid=222656
