   Color/Form

     * Colorless prisms
     * Prisms from aqueous, alcohol, + water

   from [1]HSDB

   Melting Point
        218 deg C (decomposes)
   from [2]HSDB

   Octanol/Water Partition Coefficient
        log Kow = -4.68 (est)
   from [3]HSDB

   Solubilities

     * Soluble in alcohol; nearly insoluble in ether, benzene, and
       chloroform
     * In water, 1.0X10+6 mg/L at 25 deg C (est) /miscible/

   from [4]HSDB

   Vapor Pressure
        6.67X10-4 mm Hg at 25 deg C (est)
   from [5]HSDB

   Other Chemical/Physical Properties

     * Crystals from ethanol, mp 23-233 deg C. Salty taste. Very soluble
       in water; soluble in alcohol. Practically insoluble in ether,
       chloroform /Monohydrate/
     * Crystals from 90% alcohol, mp 258-259 deg C. Very soluble in water,
       slightly in alcohol. Practically insoluble in ether, benzene.
       /Hydrochloride/
     * Henry's Law constant = 3.03X10-15 atm-cu m/mol at 25 deg C (est)
     * Hydroxyl radical reaction rate constant = 1.08X-11 cu cm/molec-sec
       at 25 deg C (est)

   from [6]HSDB

   Computed Properties
   Molecular Weight                  137.13598 [g/mol]
   Molecular Formula                 C[7]H[7]NO[2]
   XLogP3-AA                         1.2
   H-Bond Donor                      0
   H-Bond Acceptor                   2
   Rotatable Bond Count              0
   Exact Mass                        137.047678
   MonoIsotopic Mass                 137.047678
   Topological Polar Surface Area    44
   Heavy Atom Count                  10
   Formal Charge                     0
   Complexity                        130
   Isotope Atom Count                0
   Defined Atom Stereocenter Count   0
   Undefined Atom Stereocenter Count 0
   Defined Bond Stereocenter Count   0
   Undefined Bond Stereocenter Count 0
   Covalently-Bonded Unit Count      1
   Feature 3D Acceptor Count         2
   Feature 3D Anion Count            1
   Feature 3D Ring Count             1
   Effective Rotor Count             1
   Conformer Sampling RMSD           0.4
   CID Conformer Count               [7]1

References

   1. http://toxnet.nlm.nih.gov/cgi-bin/sis/search/r?dbs+hsdb:@term+@rn+@rel+535-83-1
   2. http://toxnet.nlm.nih.gov/cgi-bin/sis/search/r?dbs+hsdb:@term+@rn+@rel+535-83-1
   3. http://toxnet.nlm.nih.gov/cgi-bin/sis/search/r?dbs+hsdb:@term+@rn+@rel+535-83-1
   4. http://toxnet.nlm.nih.gov/cgi-bin/sis/search/r?dbs+hsdb:@term+@rn+@rel+535-83-1
   5. http://toxnet.nlm.nih.gov/cgi-bin/sis/search/r?dbs+hsdb:@term+@rn+@rel+535-83-1
   6. http://toxnet.nlm.nih.gov/cgi-bin/sis/search/r?dbs+hsdb:@term+@rn+@rel+535-83-1
   7. http://pubchem.ncbi.nlm.nih.gov/vw3d/vw3d.cgi?cid=5570
