17395626
  -OEChem-06241222512D

 39 41  0     0  0  0  0  0  0999 V2000
    8.0622    0.5600    0.0000 S   0  0  0  0  0  0  0  0  0  0  0  0
    5.4641   -2.9400    0.0000 N   0  0  0  0  0  0  0  0  0  0  0  0
    6.3301   -1.4400    0.0000 N   0  0  0  0  0  0  0  0  0  0  0  0
    7.1962   -2.9400    0.0000 N   0  0  0  0  0  0  0  0  0  0  0  0
    8.0622   -1.4400    0.0000 N   0  0  0  0  0  0  0  0  0  0  0  0
    8.9282   -2.9400    0.0000 N   0  0  0  0  0  0  0  0  0  0  0  0
    7.1962    2.0600    0.0000 N   0  0  0  0  0  0  0  0  0  0  0  0
    4.5981   -2.4400    0.0000 C   0  0  0  0  0  0  0  0  0  0  0  0
    2.8660   -1.4400    0.0000 C   0  0  0  0  0  0  0  0  0  0  0  0
    4.5981   -1.4400    0.0000 C   0  0  0  0  0  0  0  0  0  0  0  0
    3.7320   -2.9400    0.0000 C   0  0  0  0  0  0  0  0  0  0  0  0
    3.7320   -0.9400    0.0000 C   0  0  0  0  0  0  0  0  0  0  0  0
    2.8660   -2.4400    0.0000 C   0  0  0  0  0  0  0  0  0  0  0  0
    6.3301   -2.4400    0.0000 C   0  0  0  0  0  0  0  0  0  0  0  0
    7.1962   -0.9400    0.0000 C   0  0  0  0  0  0  0  0  0  0  0  0
    7.1962    0.0600    0.0000 C   0  0  0  0  0  0  0  0  0  0  0  0
    2.0000   -0.9400    0.0000 C   0  0  0  0  0  0  0  0  0  0  0  0
    8.0622   -2.4400    0.0000 C   0  0  0  0  0  0  0  0  0  0  0  0
    8.0622    1.5600    0.0000 C   0  0  0  0  0  0  0  0  0  0  0  0
    8.9282    2.0600    0.0000 C   0  0  0  0  0  0  0  0  0  0  0  0
    8.9282    3.0600    0.0000 C   0  0  0  0  0  0  0  0  0  0  0  0
    8.0622    3.5600    0.0000 C   0  0  0  0  0  0  0  0  0  0  0  0
    7.1962    3.0600    0.0000 C   0  0  0  0  0  0  0  0  0  0  0  0
    5.1350   -1.1300    0.0000 H   0  0  0  0  0  0  0  0  0  0  0  0
    3.7320   -3.5600    0.0000 H   0  0  0  0  0  0  0  0  0  0  0  0
    5.4641   -3.5600    0.0000 H   0  0  0  0  0  0  0  0  0  0  0  0
    3.7320   -0.3200    0.0000 H   0  0  0  0  0  0  0  0  0  0  0  0
    2.3291   -2.7500    0.0000 H   0  0  0  0  0  0  0  0  0  0  0  0
    6.9841    0.6426    0.0000 H   0  0  0  0  0  0  0  0  0  0  0  0
    6.5856   -0.0477    0.0000 H   0  0  0  0  0  0  0  0  0  0  0  0
    2.3100   -0.4031    0.0000 H   0  0  0  0  0  0  0  0  0  0  0  0
    1.4631   -0.6300    0.0000 H   0  0  0  0  0  0  0  0  0  0  0  0
    1.6900   -1.4769    0.0000 H   0  0  0  0  0  0  0  0  0  0  0  0
    9.4651    1.7500    0.0000 H   0  0  0  0  0  0  0  0  0  0  0  0
    9.4651    3.3700    0.0000 H   0  0  0  0  0  0  0  0  0  0  0  0
    9.4651   -2.6300    0.0000 H   0  0  0  0  0  0  0  0  0  0  0  0
    8.9282   -3.5600    0.0000 H   0  0  0  0  0  0  0  0  0  0  0  0
    8.0622    4.1800    0.0000 H   0  0  0  0  0  0  0  0  0  0  0  0
    6.6592    3.3700    0.0000 H   0  0  0  0  0  0  0  0  0  0  0  0
  1 16  1  0  0  0  0
  1 19  1  0  0  0  0
  2  8  1  0  0  0  0
  2 14  1  0  0  0  0
  2 26  1  0  0  0  0
  3 14  2  0  0  0  0
  3 15  1  0  0  0  0
  4 14  1  0  0  0  0
  4 18  2  0  0  0  0
  5 15  2  0  0  0  0
  5 18  1  0  0  0  0
  6 18  1  0  0  0  0
  6 36  1  0  0  0  0
  6 37  1  0  0  0  0
  7 19  1  0  0  0  0
  7 23  2  0  0  0  0
  8 10  2  0  0  0  0
  8 11  1  0  0  0  0
  9 12  2  0  0  0  0
  9 13  1  0  0  0  0
  9 17  1  0  0  0  0
 10 12  1  0  0  0  0
 10 24  1  0  0  0  0
 11 13  2  0  0  0  0
 11 25  1  0  0  0  0
 12 27  1  0  0  0  0
 13 28  1  0  0  0  0
 15 16  1  0  0  0  0
 16 29  1  0  0  0  0
 16 30  1  0  0  0  0
 17 31  1  0  0  0  0
 17 32  1  0  0  0  0
 17 33  1  0  0  0  0
 19 20  2  0  0  0  0
 20 21  1  0  0  0  0
 20 34  1  0  0  0  0
 21 22  2  0  0  0  0
 21 35  1  0  0  0  0
 22 23  1  0  0  0  0
 22 38  1  0  0  0  0
 23 39  1  0  0  0  0
M  END
> <PUBCHEM_COMPOUND_CID>
17395626

> <PUBCHEM_COMPOUND_CANONICALIZED>
1

> <PUBCHEM_CACTVS_COMPLEXITY>
350

> <PUBCHEM_CACTVS_HBOND_ACCEPTOR>
7

> <PUBCHEM_CACTVS_HBOND_DONOR>
2

> <PUBCHEM_CACTVS_ROTATABLE_BOND>
5

> <PUBCHEM_CACTVS_SUBSKEYS>
AAADceB7gABAAAAAAAAAAAAAAAAAAAAAAAA8WIAAAAAAAAAB8AAAHAQQAAAADAjFWwS/0ZbIEAigAjZnZACC0ClxCrAJ2Dg4ZJiIKOLgmZGEIAhokALoyCcQgAAOCAAAAAAAAAAQAAAAAAAAAAAAAAAAAA==

> <PUBCHEM_IUPAC_OPENEYE_NAME>
N2-(p-tolyl)-6-(2-pyridylsulfanylmethyl)-1,3,5-triazine-2,4-diamine

> <PUBCHEM_IUPAC_CAS_NAME>
N2-(4-methylphenyl)-6-[(2-pyridinylthio)methyl]-1,3,5-triazine-2,4-diamine

> <PUBCHEM_IUPAC_NAME>
2-N-(4-methylphenyl)-6-(pyridin-2-ylsulfanylmethyl)-1,3,5-triazine-2,4-diamine

> <PUBCHEM_IUPAC_SYSTEMATIC_NAME>
N2-(4-methylphenyl)-6-(pyridin-2-ylsulfanylmethyl)-1,3,5-triazine-2,4-diamine

> <PUBCHEM_IUPAC_TRADITIONAL_NAME>
[4-amino-6-[(2-pyridylthio)methyl]-s-triazin-2-yl]-(p-tolyl)amine

> <PUBCHEM_IUPAC_INCHI>
InChI=1S/C16H16N6S/c1-11-5-7-12(8-6-11)19-16-21-13(20-15(17)22-16)10-23-14-4-2-3-9-18-14/h2-9H,10H2,1H3,(H3,17,19,20,21,22)

> <PUBCHEM_IUPAC_INCHIKEY>
DZLCTDAIQIKZBA-UHFFFAOYSA-N

> <PUBCHEM_XLOGP3_AA>
3.2

> <PUBCHEM_EXACT_MASS>
324.115716

> <PUBCHEM_MOLECULAR_FORMULA>
C16H16N6S

> <PUBCHEM_MOLECULAR_WEIGHT>
324.40344

> <PUBCHEM_OPENEYE_CAN_SMILES>
CC1=CC=C(C=C1)NC2=NC(=NC(=N2)N)CSC3=CC=CC=N3

> <PUBCHEM_OPENEYE_ISO_SMILES>
CC1=CC=C(C=C1)NC2=NC(=NC(=N2)N)CSC3=CC=CC=N3

> <PUBCHEM_CACTVS_TPSA>
115

> <PUBCHEM_MONOISOTOPIC_WEIGHT>
324.115716

> <PUBCHEM_TOTAL_CHARGE>
0

> <PUBCHEM_HEAVY_ATOM_COUNT>
23

> <PUBCHEM_ATOM_DEF_STEREO_COUNT>
0

> <PUBCHEM_ATOM_UDEF_STEREO_COUNT>
0

> <PUBCHEM_BOND_DEF_STEREO_COUNT>
0

> <PUBCHEM_BOND_UDEF_STEREO_COUNT>
0

> <PUBCHEM_ISOTOPIC_ATOM_COUNT>
0

> <PUBCHEM_COMPONENT_COUNT>
1

> <PUBCHEM_CACTVS_TAUTO_COUNT>
9

> <PUBCHEM_COORDINATE_TYPE>
1
5
255

> <PUBCHEM_BONDANNOTATIONS>
10  12  8
11  13  8
19  20  8
20  21  8
21  22  8
22  23  8
3  14  8
3  15  8
4  14  8
4  18  8
5  15  8
5  18  8
7  19  8
7  23  8
8  10  8
8  11  8
9  12  8
9  13  8

$$$$

