4111
  -OEChem-06251223532D

 47 46  0     1  0  0  0  0  0999 V2000
    2.8660   -0.4330    0.0000 O   0  0  0  0  0  0  0  0  0  0  0  0
   13.2583    0.5670    0.0000 O   0  0  0  0  0  0  0  0  0  0  0  0
   12.3923   -0.9330    0.0000 O   0  0  0  0  0  0  0  0  0  0  0  0
    5.4641    0.0670    0.0000 C   0  0  0  0  0  0  0  0  0  0  0  0
    4.5981    0.5670    0.0000 C   0  0  0  0  0  0  0  0  0  0  0  0
    6.3301    0.5670    0.0000 C   0  0  0  0  0  0  0  0  0  0  0  0
    3.7320    0.0670    0.0000 C   0  0  0  0  0  0  0  0  0  0  0  0
    7.1962    0.0670    0.0000 C   0  0  3  0  0  0  0  0  0  0  0  0
    8.0622    0.5670    0.0000 C   0  0  0  0  0  0  0  0  0  0  0  0
    3.2320    0.9330    0.0000 C   0  0  0  0  0  0  0  0  0  0  0  0
    4.2320   -0.7990    0.0000 C   0  0  0  0  0  0  0  0  0  0  0  0
    7.1962   -0.9330    0.0000 C   0  0  0  0  0  0  0  0  0  0  0  0
    8.9282    0.0670    0.0000 C   0  0  0  0  0  0  0  0  0  0  0  0
    2.0000    0.0670    0.0000 C   0  0  0  0  0  0  0  0  0  0  0  0
    9.7942    0.5670    0.0000 C   0  0  0  0  0  0  0  0  0  0  0  0
   10.6603    0.0670    0.0000 C   0  0  0  0  0  0  0  0  0  0  0  0
   10.6603   -0.9330    0.0000 C   0  0  0  0  0  0  0  0  0  0  0  0
   11.5263    0.5670    0.0000 C   0  0  0  0  0  0  0  0  0  0  0  0
   12.3923    0.0670    0.0000 C   0  0  0  0  0  0  0  0  0  0  0  0
    5.0656   -0.4080    0.0000 H   0  0  0  0  0  0  0  0  0  0  0  0
    5.8626   -0.4080    0.0000 H   0  0  0  0  0  0  0  0  0  0  0  0
    4.9966    1.0419    0.0000 H   0  0  0  0  0  0  0  0  0  0  0  0
    4.1996    1.0419    0.0000 H   0  0  0  0  0  0  0  0  0  0  0  0
    6.7287    1.0419    0.0000 H   0  0  0  0  0  0  0  0  0  0  0  0
    5.9316    1.0419    0.0000 H   0  0  0  0  0  0  0  0  0  0  0  0
    6.4600   -0.3580    0.0000 H   0  0  0  0  0  0  0  0  0  0  0  0
    8.4607    1.0419    0.0000 H   0  0  0  0  0  0  0  0  0  0  0  0
    7.6636    1.0419    0.0000 H   0  0  0  0  0  0  0  0  0  0  0  0
    3.6951   -1.1090    0.0000 H   0  0  0  0  0  0  0  0  0  0  0  0
    4.5420   -1.3360    0.0000 H   0  0  0  0  0  0  0  0  0  0  0  0
    4.7690   -0.4890    0.0000 H   0  0  0  0  0  0  0  0  0  0  0  0
    3.7690    1.2430    0.0000 H   0  0  0  0  0  0  0  0  0  0  0  0
    2.9220    1.4700    0.0000 H   0  0  0  0  0  0  0  0  0  0  0  0
    2.6951    0.6230    0.0000 H   0  0  0  0  0  0  0  0  0  0  0  0
    6.5762   -0.9330    0.0000 H   0  0  0  0  0  0  0  0  0  0  0  0
    7.1962   -1.5530    0.0000 H   0  0  0  0  0  0  0  0  0  0  0  0
    7.8162   -0.9330    0.0000 H   0  0  0  0  0  0  0  0  0  0  0  0
    8.9282   -0.5530    0.0000 H   0  0  0  0  0  0  0  0  0  0  0  0
    2.3100    0.6039    0.0000 H   0  0  0  0  0  0  0  0  0  0  0  0
    1.4631    0.3770    0.0000 H   0  0  0  0  0  0  0  0  0  0  0  0
    1.6900   -0.4699    0.0000 H   0  0  0  0  0  0  0  0  0  0  0  0
    9.7942    1.1870    0.0000 H   0  0  0  0  0  0  0  0  0  0  0  0
   10.0403   -0.9330    0.0000 H   0  0  0  0  0  0  0  0  0  0  0  0
   10.6603   -1.5530    0.0000 H   0  0  0  0  0  0  0  0  0  0  0  0
   11.2803   -0.9330    0.0000 H   0  0  0  0  0  0  0  0  0  0  0  0
   11.5263    1.1870    0.0000 H   0  0  0  0  0  0  0  0  0  0  0  0
   13.7953    0.2570    0.0000 H   0  0  0  0  0  0  0  0  0  0  0  0
  1  7  1  0  0  0  0
  1 14  1  0  0  0  0
  2 19  1  0  0  0  0
  2 47  1  0  0  0  0
  3 19  2  0  0  0  0
  4  5  1  0  0  0  0
  4  6  1  0  0  0  0
  4 20  1  0  0  0  0
  4 21  1  0  0  0  0
  5  7  1  0  0  0  0
  5 22  1  0  0  0  0
  5 23  1  0  0  0  0
  6  8  1  0  0  0  0
  6 24  1  0  0  0  0
  6 25  1  0  0  0  0
  7 10  1  0  0  0  0
  7 11  1  0  0  0  0
  8  9  1  0  0  0  0
  8 12  1  0  0  0  0
  8 26  1  0  0  0  0
  9 13  1  0  0  0  0
  9 27  1  0  0  0  0
  9 28  1  0  0  0  0
 10 32  1  0  0  0  0
 10 33  1  0  0  0  0
 10 34  1  0  0  0  0
 11 29  1  0  0  0  0
 11 30  1  0  0  0  0
 11 31  1  0  0  0  0
 12 35  1  0  0  0  0
 12 36  1  0  0  0  0
 12 37  1  0  0  0  0
 13 15  2  3  0  0  0
 13 38  1  0  0  0  0
 14 39  1  0  0  0  0
 14 40  1  0  0  0  0
 14 41  1  0  0  0  0
 15 16  1  0  0  0  0
 15 42  1  0  0  0  0
 16 17  1  0  0  0  0
 16 18  2  3  0  0  0
 17 43  1  0  0  0  0
 17 44  1  0  0  0  0
 17 45  1  0  0  0  0
 18 19  1  0  0  0  0
 18 46  1  0  0  0  0
M  END
> <PUBCHEM_COMPOUND_CID>
4111

> <PUBCHEM_COMPOUND_CANONICALIZED>
1

> <PUBCHEM_CACTVS_COMPLEXITY>
327

> <PUBCHEM_CACTVS_HBOND_ACCEPTOR>
3

> <PUBCHEM_CACTVS_HBOND_DONOR>
1

> <PUBCHEM_CACTVS_ROTATABLE_BOND>
9

> <PUBCHEM_CACTVS_SUBSKEYS>
AAADceB4MAAAAAAAAAAAAAAAAAAAAAAAAAAAAAAAAAAAAAAAAAAAGgAACAAADUSAgAICCAAABgCIAiDSCAAAAAAgAAAICAAAAEgIBAIAAQAAEAAEgAAIkQOAwPAOAAAAAAAAAAAAAAAAAAAAAAAAAAAAAA==

> <PUBCHEM_IUPAC_OPENEYE_NAME>
11-methoxy-3,7,11-trimethyl-dodeca-2,4-dienoic acid

> <PUBCHEM_IUPAC_CAS_NAME>
11-methoxy-3,7,11-trimethyldodeca-2,4-dienoic acid

> <PUBCHEM_IUPAC_NAME>
11-methoxy-3,7,11-trimethyldodeca-2,4-dienoic acid

> <PUBCHEM_IUPAC_SYSTEMATIC_NAME>
11-methoxy-3,7,11-trimethyl-dodeca-2,4-dienoic acid

> <PUBCHEM_IUPAC_TRADITIONAL_NAME>
11-methoxy-3,7,11-trimethyl-dodeca-2,4-dienoic acid

> <PUBCHEM_IUPAC_INCHI>
InChI=1S/C16H28O3/c1-13(10-7-11-16(3,4)19-5)8-6-9-14(2)12-15(17)18/h6,9,12-13H,7-8,10-11H2,1-5H3,(H,17,18)

> <PUBCHEM_IUPAC_INCHIKEY>
MNYBEULOKRVZKY-UHFFFAOYSA-N

> <PUBCHEM_XLOGP3>
4.4

> <PUBCHEM_EXACT_MASS>
268.203845

> <PUBCHEM_MOLECULAR_FORMULA>
C16H28O3

> <PUBCHEM_MOLECULAR_WEIGHT>
268.39172

> <PUBCHEM_OPENEYE_CAN_SMILES>
CC(CCCC(C)(C)OC)CC=CC(=CC(=O)O)C

> <PUBCHEM_OPENEYE_ISO_SMILES>
CC(CCCC(C)(C)OC)CC=CC(=CC(=O)O)C

> <PUBCHEM_CACTVS_TPSA>
46.5

> <PUBCHEM_MONOISOTOPIC_WEIGHT>
268.203845

> <PUBCHEM_TOTAL_CHARGE>
0

> <PUBCHEM_HEAVY_ATOM_COUNT>
19

> <PUBCHEM_ATOM_DEF_STEREO_COUNT>
0

> <PUBCHEM_ATOM_UDEF_STEREO_COUNT>
1

> <PUBCHEM_BOND_DEF_STEREO_COUNT>
0

> <PUBCHEM_BOND_UDEF_STEREO_COUNT>
2

> <PUBCHEM_ISOTOPIC_ATOM_COUNT>
0

> <PUBCHEM_COMPONENT_COUNT>
1

> <PUBCHEM_CACTVS_TAUTO_COUNT>
3

> <PUBCHEM_COORDINATE_TYPE>
1
5
255

> <PUBCHEM_BONDANNOTATIONS>
13  15  1
16  18  1
8  26  3

$$$$

