56928073
  -OEChem-07051212572D

 47 48  0     0  0  0  0  0  0999 V2000
    2.5369    2.0600    0.0000 O   0  0  0  0  0  0  0  0  0  0  0  0
    8.5991   -4.4400    0.0000 O   0  0  0  0  0  0  0  0  0  0  0  0
    5.1350   -4.4400    0.0000 O   0  0  0  0  0  0  0  0  0  0  0  0
    6.0010   -0.9400    0.0000 C   0  0  0  0  0  0  0  0  0  0  0  0
    6.0010    0.0600    0.0000 C   0  0  0  0  0  0  0  0  0  0  0  0
    6.8671   -1.4400    0.0000 C   0  0  0  0  0  0  0  0  0  0  0  0
    5.1350    0.5600    0.0000 C   0  0  0  0  0  0  0  0  0  0  0  0
    6.8671   -2.4400    0.0000 C   0  0  0  0  0  0  0  0  0  0  0  0
    4.2690    2.0600    0.0000 C   0  0  0  0  0  0  0  0  0  0  0  0
    5.1350    1.5600    0.0000 C   0  0  0  0  0  0  0  0  0  0  0  0
    4.2690    0.0600    0.0000 C   0  0  0  0  0  0  0  0  0  0  0  0
    4.2690    3.0600    0.0000 C   0  0  0  0  0  0  0  0  0  0  0  0
    3.4030    1.5600    0.0000 C   0  0  0  0  0  0  0  0  0  0  0  0
    3.4030    0.5600    0.0000 C   0  0  0  0  0  0  0  0  0  0  0  0
    6.0010   -2.9400    0.0000 C   0  0  0  0  0  0  0  0  0  0  0  0
    7.7331   -2.9400    0.0000 C   0  0  0  0  0  0  0  0  0  0  0  0
    5.1350    3.5600    0.0000 C   0  0  0  0  0  0  0  0  0  0  0  0
    7.7331   -3.9400    0.0000 C   0  0  0  0  0  0  0  0  0  0  0  0
    6.0010   -3.9400    0.0000 C   0  0  0  0  0  0  0  0  0  0  0  0
    5.1350    4.5600    0.0000 C   0  0  0  0  0  0  0  0  0  0  0  0
    6.8671   -4.4400    0.0000 C   0  0  0  0  0  0  0  0  0  0  0  0
    6.0010    5.0600    0.0000 C   0  0  0  0  0  0  0  0  0  0  0  0
    4.2690    5.0600    0.0000 C   0  0  0  0  0  0  0  0  0  0  0  0
    5.3905   -0.8323    0.0000 H   0  0  0  0  0  0  0  0  0  0  0  0
    5.7890   -1.5226    0.0000 H   0  0  0  0  0  0  0  0  0  0  0  0
    6.6116   -0.0477    0.0000 H   0  0  0  0  0  0  0  0  0  0  0  0
    6.2131    0.6426    0.0000 H   0  0  0  0  0  0  0  0  0  0  0  0
    7.4776   -1.5477    0.0000 H   0  0  0  0  0  0  0  0  0  0  0  0
    7.0791   -0.8574    0.0000 H   0  0  0  0  0  0  0  0  0  0  0  0
    5.6720    1.8700    0.0000 H   0  0  0  0  0  0  0  0  0  0  0  0
    4.2690   -0.5600    0.0000 H   0  0  0  0  0  0  0  0  0  0  0  0
    4.0569    3.6426    0.0000 H   0  0  0  0  0  0  0  0  0  0  0  0
    3.6584    2.9523    0.0000 H   0  0  0  0  0  0  0  0  0  0  0  0
    2.8660    0.2500    0.0000 H   0  0  0  0  0  0  0  0  0  0  0  0
    5.4641   -2.6300    0.0000 H   0  0  0  0  0  0  0  0  0  0  0  0
    8.2700   -2.6300    0.0000 H   0  0  0  0  0  0  0  0  0  0  0  0
    5.6720    3.2500    0.0000 H   0  0  0  0  0  0  0  0  0  0  0  0
    6.8671   -5.0600    0.0000 H   0  0  0  0  0  0  0  0  0  0  0  0
    2.0000    1.7500    0.0000 H   0  0  0  0  0  0  0  0  0  0  0  0
    6.3110    4.5231    0.0000 H   0  0  0  0  0  0  0  0  0  0  0  0
    6.5380    5.3700    0.0000 H   0  0  0  0  0  0  0  0  0  0  0  0
    4.5790    5.5969    0.0000 H   0  0  0  0  0  0  0  0  0  0  0  0
    3.7320    5.3700    0.0000 H   0  0  0  0  0  0  0  0  0  0  0  0
    3.9590    4.5231    0.0000 H   0  0  0  0  0  0  0  0  0  0  0  0
    5.6910    5.5969    0.0000 H   0  0  0  0  0  0  0  0  0  0  0  0
    8.5991   -5.0600    0.0000 H   0  0  0  0  0  0  0  0  0  0  0  0
    5.1350   -5.0600    0.0000 H   0  0  0  0  0  0  0  0  0  0  0  0
  1 13  1  0  0  0  0
  1 39  1  0  0  0  0
  2 18  1  0  0  0  0
  2 46  1  0  0  0  0
  3 19  1  0  0  0  0
  3 47  1  0  0  0  0
  4  5  1  0  0  0  0
  4  6  1  0  0  0  0
  4 24  1  0  0  0  0
  4 25  1  0  0  0  0
  5  7  1  0  0  0  0
  5 26  1  0  0  0  0
  5 27  1  0  0  0  0
  6  8  1  0  0  0  0
  6 28  1  0  0  0  0
  6 29  1  0  0  0  0
  7 10  2  0  0  0  0
  7 11  1  0  0  0  0
  8 15  2  0  0  0  0
  8 16  1  0  0  0  0
  9 10  1  0  0  0  0
  9 12  1  0  0  0  0
  9 13  2  0  0  0  0
 10 30  1  0  0  0  0
 11 14  2  0  0  0  0
 11 31  1  0  0  0  0
 12 17  1  0  0  0  0
 12 32  1  0  0  0  0
 12 33  1  0  0  0  0
 13 14  1  0  0  0  0
 14 34  1  0  0  0  0
 15 19  1  0  0  0  0
 15 35  1  0  0  0  0
 16 18  2  0  0  0  0
 16 36  1  0  0  0  0
 17 20  2  0  0  0  0
 17 37  1  0  0  0  0
 18 21  1  0  0  0  0
 19 21  2  0  0  0  0
 20 22  1  0  0  0  0
 20 23  1  0  0  0  0
 21 38  1  0  0  0  0
 22 40  1  0  0  0  0
 22 41  1  0  0  0  0
 22 45  1  0  0  0  0
 23 42  1  0  0  0  0
 23 43  1  0  0  0  0
 23 44  1  0  0  0  0
M  END
> <PUBCHEM_COMPOUND_CID>
56928073

> <PUBCHEM_COMPOUND_CANONICALIZED>
1

> <PUBCHEM_CACTVS_COMPLEXITY>
365

> <PUBCHEM_CACTVS_HBOND_ACCEPTOR>
3

> <PUBCHEM_CACTVS_HBOND_DONOR>
3

> <PUBCHEM_CACTVS_ROTATABLE_BOND>
6

> <PUBCHEM_CACTVS_SUBSKEYS>
AAADceB4MAAAAAAAAAAAAAAAAAAAAAAAAAAwYAAAAAAAAAABQAAAGgAACAAADASAmAAyBoAAAgCAAiBCAAACAAAgIAAIiAAGCIgIJyKCERKAcAAlwBUImAeA4PQOIAADCAAIAABAAAYQABAAAAAAAAAAAA==

> <PUBCHEM_IUPAC_OPENEYE_NAME>
5-[3-[4-hydroxy-3-(3-methylbut-2-enyl)phenyl]propyl]benzene-1,3-diol

> <PUBCHEM_IUPAC_CAS_NAME>
5-[3-[4-hydroxy-3-(3-methylbut-2-enyl)phenyl]propyl]benzene-1,3-diol

> <PUBCHEM_IUPAC_NAME>
5-[3-[4-hydroxy-3-(3-methylbut-2-enyl)phenyl]propyl]benzene-1,3-diol

> <PUBCHEM_IUPAC_SYSTEMATIC_NAME>
5-[3-[3-(3-methylbut-2-enyl)-4-oxidanyl-phenyl]propyl]benzene-1,3-diol

> <PUBCHEM_IUPAC_TRADITIONAL_NAME>
5-[3-[4-hydroxy-3-(3-methylbut-2-enyl)phenyl]propyl]resorcinol

> <PUBCHEM_IUPAC_INCHI>
InChI=1S/C20H24O3/c1-14(2)6-8-17-10-15(7-9-20(17)23)4-3-5-16-11-18(21)13-19(22)12-16/h6-7,9-13,21-23H,3-5,8H2,1-2H3

> <PUBCHEM_IUPAC_INCHIKEY>
HTNHTFRNGHVXBF-UHFFFAOYSA-N

> <PUBCHEM_XLOGP3_AA>
5.5

> <PUBCHEM_EXACT_MASS>
312.172545

> <PUBCHEM_MOLECULAR_FORMULA>
C20H24O3

> <PUBCHEM_MOLECULAR_WEIGHT>
312.40276

> <PUBCHEM_OPENEYE_CAN_SMILES>
CC(=CCC1=C(C=CC(=C1)CCCC2=CC(=CC(=C2)O)O)O)C

> <PUBCHEM_OPENEYE_ISO_SMILES>
CC(=CCC1=C(C=CC(=C1)CCCC2=CC(=CC(=C2)O)O)O)C

> <PUBCHEM_CACTVS_TPSA>
60.7

> <PUBCHEM_MONOISOTOPIC_WEIGHT>
312.172545

> <PUBCHEM_TOTAL_CHARGE>
0

> <PUBCHEM_HEAVY_ATOM_COUNT>
23

> <PUBCHEM_ATOM_DEF_STEREO_COUNT>
0

> <PUBCHEM_ATOM_UDEF_STEREO_COUNT>
0

> <PUBCHEM_BOND_DEF_STEREO_COUNT>
0

> <PUBCHEM_BOND_UDEF_STEREO_COUNT>
0

> <PUBCHEM_ISOTOPIC_ATOM_COUNT>
0

> <PUBCHEM_COMPONENT_COUNT>
1

> <PUBCHEM_CACTVS_TAUTO_COUNT>
30

> <PUBCHEM_COORDINATE_TYPE>
1
5
255

> <PUBCHEM_BONDANNOTATIONS>
11  14  8
13  14  8
15  19  8
16  18  8
18  21  8
19  21  8
7  10  8
7  11  8
8  15  8
8  16  8
9  10  8
9  13  8

$$$$

