   Color/Form

     * SILVERY METAL
     * Metal: Lustrous, silvery solid.
     * Lustrous, white, hard, ferromagnetic metal; face centered cubic
       crystals
     * Silvery, malleable, magnetic metal

   from [1]HSDB

   Odor
        Odorless
   from [2]HSDB

   Boiling Point
        2730 deg C
   from [3]HSDB

   Melting Point
        1455 deg C
   from [4]HSDB

   Corrosivity
        Excellent resistance to corrosion
   from [5]HSDB

   Density/Specific Gravity
        8.908
   from [6]HSDB

   Solubilities
        INSOL IN WATER, AMMONIA; SOL IN DIL NITRIC ACID; SLIGHTLY SOL IN
   HYDROCHLORIC ACID, SULFURIC ACID
   from [7]HSDB

   Vapor Pressure
        1 MM HG @ 1810 DEG C
   from [8]HSDB

   Other Chemical/Physical Properties

     * Heat capacity @ 25 deg C: 6.23 cal/g-atom/deg C; Mohs' hardness
       3.8; latent heat of fusion 73 cal/g; electrical resistivity @ 20
       deg C: 6.844 microohms/cm; burns in oxygen, forming nickel oxide;
       decomp steam @ a red heat; slowly attacked by dil hydrochloric or
       sulfuric acid; readily attacked by nitric acid; five naturally
       occurring isotopes: 58 (67.76%); 60 (26.16%); 61 (1.25%); 62
       (3.66%); 64 (1.16%); artificial isotopes: 56; 57; 59; 63; 65-67
     * Not attacked by fused alkali hydroxides
     * Readily fabricated by hot and cold working; takes high polish
     * Atomic number 28; valence 2; seldom 1,3,4
     * Dark gray powder or crystal; Pyrophoric
     * Crystallizes as metallic cubes

   from [9]HSDB

   Computed Properties
   Molecular Weight                  58.6934 [g/mol]
   Molecular Formula                 Ni
   H-Bond Donor                      0
   H-Bond Acceptor                   0
   Rotatable Bond Count              0
   Exact Mass                        57.935343
   MonoIsotopic Mass                 57.935343
   Topological Polar Surface Area    0
   Heavy Atom Count                  1
   Formal Charge                     0
   Complexity                        0
   Isotope Atom Count                0
   Defined Atom Stereocenter Count   0
   Undefined Atom Stereocenter Count 0
   Defined Bond Stereocenter Count   0
   Undefined Bond Stereocenter Count 0
   Covalently-Bonded Unit Count      1

References

   1. http://toxnet.nlm.nih.gov/cgi-bin/sis/search/r?dbs+hsdb:@term+@rn+@rel+7440-02-0
   2. http://toxnet.nlm.nih.gov/cgi-bin/sis/search/r?dbs+hsdb:@term+@rn+@rel+7440-02-0
   3. http://toxnet.nlm.nih.gov/cgi-bin/sis/search/r?dbs+hsdb:@term+@rn+@rel+7440-02-0
   4. http://toxnet.nlm.nih.gov/cgi-bin/sis/search/r?dbs+hsdb:@term+@rn+@rel+7440-02-0
   5. http://toxnet.nlm.nih.gov/cgi-bin/sis/search/r?dbs+hsdb:@term+@rn+@rel+7440-02-0
   6. http://toxnet.nlm.nih.gov/cgi-bin/sis/search/r?dbs+hsdb:@term+@rn+@rel+7440-02-0
   7. http://toxnet.nlm.nih.gov/cgi-bin/sis/search/r?dbs+hsdb:@term+@rn+@rel+7440-02-0
   8. http://toxnet.nlm.nih.gov/cgi-bin/sis/search/r?dbs+hsdb:@term+@rn+@rel+7440-02-0
   9. http://toxnet.nlm.nih.gov/cgi-bin/sis/search/r?dbs+hsdb:@term+@rn+@rel+7440-02-0
