5281690
  -OEChem-07051212592D

 90 95  0     1  0  0  0  0  0999 V2000
    8.5991   -0.4050    0.0000 O   0  0  0  0  0  0  0  0  0  0  0  0
    6.0010    0.0950    0.0000 O   0  0  0  0  0  0  0  0  0  0  0  0
    9.4651   -2.9050    0.0000 O   0  0  0  0  0  0  0  0  0  0  0  0
   10.3312   -4.4050    0.0000 O   0  0  0  0  0  0  0  0  0  0  0  0
    6.0010   -1.9050    0.0000 O   0  0  0  0  0  0  0  0  0  0  0  0
    7.7331   -2.9050    0.0000 O   0  0  0  0  0  0  0  0  0  0  0  0
    7.7331    1.0950    0.0000 O   0  0  0  0  0  0  0  0  0  0  0  0
    5.1350   -1.4050    0.0000 O   0  0  0  0  0  0  0  0  0  0  0  0
    4.2690    1.0950    0.0000 O   0  0  0  0  0  0  0  0  0  0  0  0
   11.1972   -1.9050    0.0000 O   0  0  0  0  0  0  0  0  0  0  0  0
   12.9292   -2.9050    0.0000 O   0  0  0  0  0  0  0  0  0  0  0  0
   12.9292   -4.9050    0.0000 O   0  0  0  0  0  0  0  0  0  0  0  0
    2.5369    0.0950    0.0000 O   0  0  0  0  0  0  0  0  0  0  0  0
    2.5369   -1.9050    0.0000 O   0  0  0  0  0  0  0  0  0  0  0  0
    9.4651    3.0950    0.0000 O   0  0  0  0  0  0  0  0  0  0  0  0
    9.4651    0.0950    0.0000 O   0  0  0  0  0  0  0  0  0  0  0  0
   11.2135    0.0604    0.0000 O   0  0  0  0  0  0  0  0  0  0  0  0
   12.9953    3.1192    0.0000 O   0  0  0  0  0  0  0  0  0  0  0  0
    6.8671    5.5950    0.0000 O   0  0  0  0  0  0  0  0  0  0  0  0
    5.1350    4.5950    0.0000 O   0  0  0  0  0  0  0  0  0  0  0  0
    6.8671   -0.4050    0.0000 C   0  0  2  0  0  0  0  0  0  0  0  0
    6.8671   -1.4050    0.0000 C   0  0  2  0  0  0  0  0  0  0  0  0
    7.7331   -1.9050    0.0000 C   0  0  1  0  0  0  0  0  0  0  0  0
    8.5991   -1.4050    0.0000 C   0  0  1  0  0  0  0  0  0  0  0  0
    7.7331    0.0950    0.0000 C   0  0  1  0  0  0  0  0  0  0  0  0
    9.4651   -1.9050    0.0000 C   0  0  0  0  0  0  0  0  0  0  0  0
    5.1350   -0.4050    0.0000 C   0  0  2  0  0  0  0  0  0  0  0  0
   10.3312   -3.4050    0.0000 C   0  0  2  0  0  0  0  0  0  0  0  0
    4.2690    0.0950    0.0000 C   0  0  1  0  0  0  0  0  0  0  0  0
   11.1972   -2.9050    0.0000 C   0  0  1  0  0  0  0  0  0  0  0  0
   12.0632   -3.4050    0.0000 C   0  0  1  0  0  0  0  0  0  0  0  0
   12.0632   -4.4050    0.0000 C   0  0  2  0  0  0  0  0  0  0  0  0
    3.4030   -0.4050    0.0000 C   0  0  2  0  0  0  0  0  0  0  0  0
   11.1972   -4.9050    0.0000 C   0  0  2  0  0  0  0  0  0  0  0  0
    3.4030   -1.4050    0.0000 C   0  0  1  0  0  0  0  0  0  0  0  0
    4.2690   -1.9050    0.0000 C   0  0  0  0  0  0  0  0  0  0  0  0
   11.1972   -5.9050    0.0000 C   0  0  0  0  0  0  0  0  0  0  0  0
    8.5991    1.5950    0.0000 C   0  0  0  0  0  0  0  0  0  0  0  0
    8.5991    2.5950    0.0000 C   0  0  0  0  0  0  0  0  0  0  0  0
    9.4651    1.0950    0.0000 C   0  0  0  0  0  0  0  0  0  0  0  0
   10.3312    1.5950    0.0000 C   0  0  0  0  0  0  0  0  0  0  0  0
    7.7331    3.0950    0.0000 C   0  0  0  0  0  0  0  0  0  0  0  0
   10.3312    2.5950    0.0000 C   0  0  0  0  0  0  0  0  0  0  0  0
   11.2251    1.0603    0.0000 C   0  0  0  0  0  0  0  0  0  0  0  0
   11.2251    3.1297    0.0000 C   0  0  0  0  0  0  0  0  0  0  0  0
    7.7331    4.0950    0.0000 C   0  0  0  0  0  0  0  0  0  0  0  0
    6.8671    2.5950    0.0000 C   0  0  0  0  0  0  0  0  0  0  0  0
   12.1312    1.5742    0.0000 C   0  0  0  0  0  0  0  0  0  0  0  0
   12.1312    2.6158    0.0000 C   0  0  0  0  0  0  0  0  0  0  0  0
    6.8671    4.5950    0.0000 C   0  0  0  0  0  0  0  0  0  0  0  0
    6.0010    3.0950    0.0000 C   0  0  0  0  0  0  0  0  0  0  0  0
    6.0010    4.0950    0.0000 C   0  0  0  0  0  0  0  0  0  0  0  0
    6.3301   -0.7150    0.0000 H   0  0  0  0  0  0  0  0  0  0  0  0
    6.3301   -1.0950    0.0000 H   0  0  0  0  0  0  0  0  0  0  0  0
    8.2700   -2.2150    0.0000 H   0  0  0  0  0  0  0  0  0  0  0  0
    9.1360   -1.0950    0.0000 H   0  0  0  0  0  0  0  0  0  0  0  0
    7.1962    0.4050    0.0000 H   0  0  0  0  0  0  0  0  0  0  0  0
   10.0757   -2.0127    0.0000 H   0  0  0  0  0  0  0  0  0  0  0  0
    9.6772   -1.3224    0.0000 H   0  0  0  0  0  0  0  0  0  0  0  0
    5.1350    0.2150    0.0000 H   0  0  0  0  0  0  0  0  0  0  0  0
    9.7942   -3.7150    0.0000 H   0  0  0  0  0  0  0  0  0  0  0  0
    4.8059    0.4050    0.0000 H   0  0  0  0  0  0  0  0  0  0  0  0
   10.6603   -2.5950    0.0000 H   0  0  0  0  0  0  0  0  0  0  0  0
   12.6002   -3.7150    0.0000 H   0  0  0  0  0  0  0  0  0  0  0  0
   12.6002   -4.0950    0.0000 H   0  0  0  0  0  0  0  0  0  0  0  0
    3.4030    0.2150    0.0000 H   0  0  0  0  0  0  0  0  0  0  0  0
   10.6603   -5.2150    0.0000 H   0  0  0  0  0  0  0  0  0  0  0  0
    3.4030   -2.0250    0.0000 H   0  0  0  0  0  0  0  0  0  0  0  0
    3.8705   -2.3800    0.0000 H   0  0  0  0  0  0  0  0  0  0  0  0
    4.6675   -2.3800    0.0000 H   0  0  0  0  0  0  0  0  0  0  0  0
    6.0010   -2.5250    0.0000 H   0  0  0  0  0  0  0  0  0  0  0  0
    7.1962   -3.2150    0.0000 H   0  0  0  0  0  0  0  0  0  0  0  0
   10.5772   -5.9050    0.0000 H   0  0  0  0  0  0  0  0  0  0  0  0
   11.1972   -6.5250    0.0000 H   0  0  0  0  0  0  0  0  0  0  0  0
   11.8172   -5.9050    0.0000 H   0  0  0  0  0  0  0  0  0  0  0  0
    3.7320    1.4050    0.0000 H   0  0  0  0  0  0  0  0  0  0  0  0
   11.7341   -1.5950    0.0000 H   0  0  0  0  0  0  0  0  0  0  0  0
   13.4662   -3.2150    0.0000 H   0  0  0  0  0  0  0  0  0  0  0  0
   12.9292   -5.5250    0.0000 H   0  0  0  0  0  0  0  0  0  0  0  0
    2.0000   -0.2150    0.0000 H   0  0  0  0  0  0  0  0  0  0  0  0
    2.5369   -2.5250    0.0000 H   0  0  0  0  0  0  0  0  0  0  0  0
   11.2179    3.7496    0.0000 H   0  0  0  0  0  0  0  0  0  0  0  0
    8.2700    4.4050    0.0000 H   0  0  0  0  0  0  0  0  0  0  0  0
    6.8671    1.9750    0.0000 H   0  0  0  0  0  0  0  0  0  0  0  0
   12.6669    1.2621    0.0000 H   0  0  0  0  0  0  0  0  0  0  0  0
    5.4641    2.7850    0.0000 H   0  0  0  0  0  0  0  0  0  0  0  0
   11.7469   -0.2558    0.0000 H   0  0  0  0  0  0  0  0  0  0  0  0
   13.5334    2.8112    0.0000 H   0  0  0  0  0  0  0  0  0  0  0  0
    7.4040    5.9050    0.0000 H   0  0  0  0  0  0  0  0  0  0  0  0
    4.5981    4.2850    0.0000 H   0  0  0  0  0  0  0  0  0  0  0  0
  1 24  1  0  0  0  0
  1 25  1  0  0  0  0
 21  2  1  1  0  0  0
 27  2  1  6  0  0  0
  3 26  1  0  0  0  0
 28  3  1  1  0  0  0
  4 28  1  0  0  0  0
  4 34  1  0  0  0  0
 22  5  1  6  0  0  0
  5 71  1  0  0  0  0
 23  6  1  1  0  0  0
  6 72  1  0  0  0  0
 25  7  1  6  0  0  0
  7 38  1  0  0  0  0
  8 27  1  0  0  0  0
  8 36  1  0  0  0  0
 29  9  1  1  0  0  0
  9 76  1  0  0  0  0
 30 10  1  6  0  0  0
 10 77  1  0  0  0  0
 31 11  1  6  0  0  0
 11 78  1  0  0  0  0
 32 12  1  1  0  0  0
 12 79  1  0  0  0  0
 33 13  1  6  0  0  0
 13 80  1  0  0  0  0
 35 14  1  1  0  0  0
 14 81  1  0  0  0  0
 15 39  1  0  0  0  0
 15 43  1  0  0  0  0
 16 40  2  0  0  0  0
 17 44  1  0  0  0  0
 17 87  1  0  0  0  0
 18 49  1  0  0  0  0
 18 88  1  0  0  0  0
 19 50  1  0  0  0  0
 19 89  1  0  0  0  0
 20 52  1  0  0  0  0
 20 90  1  0  0  0  0
 21 22  1  0  0  0  0
 21 25  1  0  0  0  0
 21 53  1  0  0  0  0
 22 23  1  0  0  0  0
 22 54  1  0  0  0  0
 23 24  1  0  0  0  0
 23 55  1  0  0  0  0
 24 26  1  6  0  0  0
 24 56  1  0  0  0  0
 25 57  1  0  0  0  0
 26 58  1  0  0  0  0
 26 59  1  0  0  0  0
 27 29  1  0  0  0  0
 27 60  1  0  0  0  0
 28 30  1  0  0  0  0
 28 61  1  0  0  0  0
 29 33  1  0  0  0  0
 29 62  1  0  0  0  0
 30 31  1  0  0  0  0
 30 63  1  0  0  0  0
 31 32  1  0  0  0  0
 31 64  1  0  0  0  0
 32 34  1  0  0  0  0
 32 65  1  0  0  0  0
 33 35  1  0  0  0  0
 33 66  1  0  0  0  0
 34 37  1  6  0  0  0
 34 67  1  0  0  0  0
 35 36  1  0  0  0  0
 35 68  1  0  0  0  0
 36 69  1  0  0  0  0
 36 70  1  0  0  0  0
 37 73  1  0  0  0  0
 37 74  1  0  0  0  0
 37 75  1  0  0  0  0
 38 39  2  0  0  0  0
 38 40  1  0  0  0  0
 39 42  1  0  0  0  0
 40 41  1  0  0  0  0
 41 43  1  0  0  0  0
 41 44  2  0  0  0  0
 42 46  2  0  0  0  0
 42 47  1  0  0  0  0
 43 45  2  0  0  0  0
 44 48  1  0  0  0  0
 45 49  1  0  0  0  0
 45 82  1  0  0  0  0
 46 50  1  0  0  0  0
 46 83  1  0  0  0  0
 47 51  2  0  0  0  0
 47 84  1  0  0  0  0
 48 49  2  0  0  0  0
 48 85  1  0  0  0  0
 50 52  2  0  0  0  0
 51 52  1  0  0  0  0
 51 86  1  0  0  0  0
M  END
> <PUBCHEM_COMPOUND_CID>
5281690

> <PUBCHEM_COMPOUND_CANONICALIZED>
1

> <PUBCHEM_CACTVS_COMPLEXITY>
1270

> <PUBCHEM_CACTVS_HBOND_ACCEPTOR>
20

> <PUBCHEM_CACTVS_HBOND_DONOR>
12

> <PUBCHEM_CACTVS_ROTATABLE_BOND>
8

> <PUBCHEM_CACTVS_SUBSKEYS>
AAADcfB8PgAAAAAAAAAAAAAAAAAAAAAAAAA0aJECAAAAAACBQAAAGgAACAAADBSwmAMyDoAABgCIAqBSAAICCAAkIAAIiAFGiMgdNzaGNR6ieWGl4BUPuQfI7LzOIAABCAAIQABAAAIQABCAAAAAAAAAAA==

> <PUBCHEM_IUPAC_OPENEYE_NAME>
2-(3,4-dihydroxyphenyl)-3-[(2S,3R,4S,5S,6R)-4,5-dihydroxy-6-[[(2R,3R,4R,5R,6S)-3,4,5-trihydroxy-6-methyl-tetrahydropyran-2-yl]oxymethyl]-3-[(2S,3R,4S,5R)-3,4,5-trihydroxytetrahydropyran-2-yl]oxy-tetrahydropyran-2-yl]oxy-5,7-dihydroxy-chromen-4-one

> <PUBCHEM_IUPAC_CAS_NAME>
2-(3,4-dihydroxyphenyl)-3-[[(2S,3R,4S,5S,6R)-4,5-dihydroxy-6-[[(2R,3R,4R,5R,6S)-3,4,5-trihydroxy-6-methyl-2-oxanyl]oxymethyl]-3-[[(2S,3R,4S,5R)-3,4,5-trihydroxy-2-oxanyl]oxy]-2-oxanyl]oxy]-5,7-dihydroxy-1-benzopyran-4-one

> <PUBCHEM_IUPAC_NAME>
2-(3,4-dihydroxyphenyl)-3-[(2S,3R,4S,5S,6R)-4,5-dihydroxy-6-[[(2R,3R,4R,5R,6S)-3,4,5-trihydroxy-6-methyloxan-2-yl]oxymethyl]-3-[(2S,3R,4S,5R)-3,4,5-trihydroxyoxan-2-yl]oxyoxan-2-yl]oxy-5,7-dihydroxychromen-4-one

> <PUBCHEM_IUPAC_SYSTEMATIC_NAME>
2-[3,4-bis(oxidanyl)phenyl]-3-[(2S,3R,4S,5S,6R)-6-[[(2R,3R,4R,5R,6S)-6-methyl-3,4,5-tris(oxidanyl)oxan-2-yl]oxymethyl]-4,5-bis(oxidanyl)-3-[(2S,3R,4S,5R)-3,4,5-tris(oxidanyl)oxan-2-yl]oxy-oxan-2-yl]oxy-5,7-bis(oxidanyl)chromen-4-one

> <PUBCHEM_IUPAC_TRADITIONAL_NAME>
2-(3,4-dihydroxyphenyl)-3-[(2S,3R,4S,5S,6R)-4,5-dihydroxy-6-[[(2R,3R,4R,5R,6S)-3,4,5-trihydroxy-6-methyl-tetrahydropyran-2-yl]oxymethyl]-3-[(2S,3R,4S,5R)-3,4,5-trihydroxytetrahydropyran-2-yl]oxy-tetrahydropyran-2-yl]oxy-5,7-dihydroxy-chromone

> <PUBCHEM_IUPAC_INCHI>
InChI=1S/C32H38O20/c1-9-19(38)23(42)26(45)30(48-9)47-8-17-21(40)24(43)29(52-31-25(44)20(39)15(37)7-46-31)32(50-17)51-28-22(41)18-14(36)5-11(33)6-16(18)49-27(28)10-2-3-12(34)13(35)4-10/h2-6,9,15,17,19-21,23-26,29-40,42-45H,7-8H2,1H3/t9-,15+,17+,19-,20-,21+,23+,24-,25+,26+,29+,30+,31-,32-/m0/s1

> <PUBCHEM_IUPAC_INCHIKEY>
RLTNQOUWXZXZCS-VMMUDTPISA-N

> <PUBCHEM_XLOGP3_AA>
-2.8

> <PUBCHEM_EXACT_MASS>
742.195644

> <PUBCHEM_MOLECULAR_FORMULA>
C32H38O20

> <PUBCHEM_MOLECULAR_WEIGHT>
742.63212

> <PUBCHEM_OPENEYE_CAN_SMILES>
CC1C(C(C(C(O1)OCC2C(C(C(C(O2)OC3=C(OC4=CC(=CC(=C4C3=O)O)O)C5=CC(=C(C=C5)O)O)OC6C(C(C(CO6)O)O)O)O)O)O)O)O

> <PUBCHEM_OPENEYE_ISO_SMILES>
C[C@H]1[C@@H]([C@H]([C@H]([C@@H](O1)OC[C@@H]2[C@H]([C@@H]([C@H]([C@@H](O2)OC3=C(OC4=CC(=CC(=C4C3=O)O)O)C5=CC(=C(C=C5)O)O)O[C@H]6[C@@H]([C@H]([C@@H](CO6)O)O)O)O)O)O)O)O

> <PUBCHEM_CACTVS_TPSA>
324

> <PUBCHEM_MONOISOTOPIC_WEIGHT>
742.195644

> <PUBCHEM_TOTAL_CHARGE>
0

> <PUBCHEM_HEAVY_ATOM_COUNT>
52

> <PUBCHEM_ATOM_DEF_STEREO_COUNT>
14

> <PUBCHEM_ATOM_UDEF_STEREO_COUNT>
0

> <PUBCHEM_BOND_DEF_STEREO_COUNT>
0

> <PUBCHEM_BOND_UDEF_STEREO_COUNT>
0

> <PUBCHEM_ISOTOPIC_ATOM_COUNT>
0

> <PUBCHEM_COMPONENT_COUNT>
1

> <PUBCHEM_CACTVS_TAUTO_COUNT>
162

> <PUBCHEM_COORDINATE_TYPE>
1
5
255

> <PUBCHEM_BONDANNOTATIONS>
30  10  6
31  11  6
32  12  5
33  13  6
35  14  5
15  39  8
15  43  8
21  2  5
27  2  6
24  26  6
28  3  5
34  37  6
38  39  8
38  40  8
40  41  8
41  43  8
41  44  8
42  46  8
42  47  8
43  45  8
44  48  8
45  49  8
46  50  8
47  51  8
48  49  8
22  5  6
50  52  8
51  52  8
23  6  5
25  7  6
29  9  5

$$$$

