440928
  -OEChem-07051212512D

 45 50  0     1  0  0  0  0  0999 V2000
    2.9950    3.5673    0.0000 O   0  0  0  0  0  0  0  0  0  0  0  0
    4.4403    4.4167    0.0000 O   0  0  0  0  0  0  0  0  0  0  0  0
    5.5740   -3.5278    0.0000 O   0  0  0  0  0  0  0  0  0  0  0  0
    4.0684   -4.4125    0.0000 O   0  0  0  0  0  0  0  0  0  0  0  0
    2.9180    0.3368    0.0000 N   0  3  3  0  0  0  0  0  0  0  0  0
    3.7841   -0.1632    0.0000 C   0  0  1  0  0  0  0  0  0  0  0  0
    2.0080   -0.1700    0.0000 C   0  0  0  0  0  0  0  0  0  0  0  0
    2.9180    1.3368    0.0000 C   0  0  0  0  0  0  0  0  0  0  0  0
    4.6501    0.3368    0.0000 C   0  0  0  0  0  0  0  0  0  0  0  0
    3.8001   -1.2047    0.0000 C   0  0  0  0  0  0  0  0  0  0  0  0
    2.0000   -1.2116    0.0000 C   0  0  0  0  0  0  0  0  0  0  0  0
    2.0520    0.8368    0.0000 C   0  0  0  0  0  0  0  0  0  0  0  0
    3.7841    1.8368    0.0000 C   0  0  0  0  0  0  0  0  0  0  0  0
    4.6501    1.3368    0.0000 C   0  0  0  0  0  0  0  0  0  0  0  0
    2.9021   -1.7324    0.0000 C   0  0  0  0  0  0  0  0  0  0  0  0
    4.7520   -1.7253    0.0000 C   0  0  0  0  0  0  0  0  0  0  0  0
    3.7680    2.8783    0.0000 C   0  0  0  0  0  0  0  0  0  0  0  0
    2.8937   -2.8174    0.0000 C   0  0  0  0  0  0  0  0  0  0  0  0
    5.5601    1.8437    0.0000 C   0  0  0  0  0  0  0  0  0  0  0  0
    4.7688   -2.8102    0.0000 C   0  0  0  0  0  0  0  0  0  0  0  0
    3.8334   -3.3599    0.0000 C   0  0  0  0  0  0  0  0  0  0  0  0
    4.6660    3.4061    0.0000 C   0  0  0  0  0  0  0  0  0  0  0  0
    5.5681    2.8853    0.0000 C   0  0  0  0  0  0  0  0  0  0  0  0
    3.4096    4.5161    0.0000 C   0  0  0  0  0  0  0  0  0  0  0  0
    5.1420   -4.5161    0.0000 C   0  0  0  0  0  0  0  0  0  0  0  0
    4.5234   -0.5825    0.0000 H   0  0  0  0  0  0  0  0  0  0  0  0
    1.8035    0.4153    0.0000 H   0  0  0  0  0  0  0  0  0  0  0  0
    1.3964   -0.2714    0.0000 H   0  0  0  0  0  0  0  0  0  0  0  0
    2.7060    1.9194    0.0000 H   0  0  0  0  0  0  0  0  0  0  0  0
    2.3074    1.2292    0.0000 H   0  0  0  0  0  0  0  0  0  0  0  0
    4.8621   -0.2458    0.0000 H   0  0  0  0  0  0  0  0  0  0  0  0
    5.2607    0.4445    0.0000 H   0  0  0  0  0  0  0  0  0  0  0  0
    1.3900   -1.1008    0.0000 H   0  0  0  0  0  0  0  0  0  0  0  0
    1.7864   -1.7937    0.0000 H   0  0  0  0  0  0  0  0  0  0  0  0
    2.3620    1.3738    0.0000 H   0  0  0  0  0  0  0  0  0  0  0  0
    1.5151    1.1468    0.0000 H   0  0  0  0  0  0  0  0  0  0  0  0
    1.7420    0.2999    0.0000 H   0  0  0  0  0  0  0  0  0  0  0  0
    5.2829   -1.4050    0.0000 H   0  0  0  0  0  0  0  0  0  0  0  0
    2.3556   -3.1253    0.0000 H   0  0  0  0  0  0  0  0  0  0  0  0
    6.0934    1.5275    0.0000 H   0  0  0  0  0  0  0  0  0  0  0  0
    6.1062    3.1932    0.0000 H   0  0  0  0  0  0  0  0  0  0  0  0
    3.5337    5.1235    0.0000 H   0  0  0  0  0  0  0  0  0  0  0  0
    2.8186    4.7033    0.0000 H   0  0  0  0  0  0  0  0  0  0  0  0
    5.0180   -5.1235    0.0000 H   0  0  0  0  0  0  0  0  0  0  0  0
    5.7331   -4.7033    0.0000 H   0  0  0  0  0  0  0  0  0  0  0  0
  1 17  1  0  0  0  0
  1 24  1  0  0  0  0
  2 22  1  0  0  0  0
  2 24  1  0  0  0  0
  3 20  1  0  0  0  0
  3 25  1  0  0  0  0
  4 21  1  0  0  0  0
  4 25  1  0  0  0  0
  5  6  1  0  0  0  0
  5  7  1  0  0  0  0
  5  8  1  0  0  0  0
  5 12  1  0  0  0  0
  6  9  1  0  0  0  0
  6 10  1  0  0  0  0
  6 26  1  6  0  0  0
  7 11  1  0  0  0  0
  7 27  1  0  0  0  0
  7 28  1  0  0  0  0
  8 13  1  0  0  0  0
  8 29  1  0  0  0  0
  8 30  1  0  0  0  0
  9 14  1  0  0  0  0
  9 31  1  0  0  0  0
  9 32  1  0  0  0  0
 10 15  1  0  0  0  0
 10 16  2  0  0  0  0
 11 15  1  0  0  0  0
 11 33  1  0  0  0  0
 11 34  1  0  0  0  0
 12 35  1  0  0  0  0
 12 36  1  0  0  0  0
 12 37  1  0  0  0  0
 13 14  2  0  0  0  0
 13 17  1  0  0  0  0
 14 19  1  0  0  0  0
 15 18  2  0  0  0  0
 16 20  1  0  0  0  0
 16 38  1  0  0  0  0
 17 22  2  0  0  0  0
 18 21  1  0  0  0  0
 18 39  1  0  0  0  0
 19 23  2  0  0  0  0
 19 40  1  0  0  0  0
 20 21  2  0  0  0  0
 22 23  1  0  0  0  0
 23 41  1  0  0  0  0
 24 42  1  0  0  0  0
 24 43  1  0  0  0  0
 25 44  1  0  0  0  0
 25 45  1  0  0  0  0
M  CHG  1   5   1
M  END
> <PUBCHEM_COMPOUND_CID>
440928

> <PUBCHEM_COMPOUND_CANONICALIZED>
1

> <PUBCHEM_CACTVS_COMPLEXITY>
544

> <PUBCHEM_CACTVS_HBOND_ACCEPTOR>
4

> <PUBCHEM_CACTVS_HBOND_DONOR>
0

> <PUBCHEM_CACTVS_ROTATABLE_BOND>
0

> <PUBCHEM_CACTVS_SUBSKEYS>
AAADceB6OAAAAAAAAAAAAAAAAAAAASJAAAA8eIEAAAAAAEixQAAAHgAAAAAADCzBmAcyDoMABACAAiBCAACCCAAgIAAIiAAOjIgdJiKEsRukMCpmwBGOqAew0PMOoAABAAAYQABAAAIAADCAAAAAAAAAAA==

> <PUBCHEM_IUPAC_INCHI>
InChI=1S/C20H20NO4/c1-21-5-4-13-7-18-19(24-10-23-18)8-14(13)16(21)6-12-2-3-17-20(15(12)9-21)25-11-22-17/h2-3,7-8,16H,4-6,9-11H2,1H3/q+1/t16-,21?/m0/s1

> <PUBCHEM_IUPAC_INCHIKEY>
GBUUKFRQPCPYPW-BJQOMGFOSA-N

> <PUBCHEM_XLOGP3_AA>
3

> <PUBCHEM_EXACT_MASS>
338.139233

> <PUBCHEM_MOLECULAR_FORMULA>
C20H20NO4+

> <PUBCHEM_MOLECULAR_WEIGHT>
338.3771

> <PUBCHEM_OPENEYE_CAN_SMILES>
C[N+]12CCC3=CC4=C(C=C3C1CC5=C(C2)C6=C(C=C5)OCO6)OCO4

> <PUBCHEM_OPENEYE_ISO_SMILES>
C[N+]12CCC3=CC4=C(C=C3[C@@H]1CC5=C(C2)C6=C(C=C5)OCO6)OCO4

> <PUBCHEM_CACTVS_TPSA>
36.9

> <PUBCHEM_MONOISOTOPIC_WEIGHT>
338.139233

> <PUBCHEM_TOTAL_CHARGE>
1

> <PUBCHEM_HEAVY_ATOM_COUNT>
25

> <PUBCHEM_ATOM_DEF_STEREO_COUNT>
1

> <PUBCHEM_ATOM_UDEF_STEREO_COUNT>
1

> <PUBCHEM_BOND_DEF_STEREO_COUNT>
0

> <PUBCHEM_BOND_UDEF_STEREO_COUNT>
0

> <PUBCHEM_ISOTOPIC_ATOM_COUNT>
0

> <PUBCHEM_COMPONENT_COUNT>
1

> <PUBCHEM_CACTVS_TAUTO_COUNT>
1

> <PUBCHEM_COORDINATE_TYPE>
1
5
255

> <PUBCHEM_BONDANNOTATIONS>
10  15  8
10  16  8
13  14  8
13  17  8
14  19  8
15  18  8
16  20  8
17  22  8
18  21  8
19  23  8
20  21  8
22  23  8
5  12  3
6  26  6

$$$$

