443992
  -OEChem-07051213032D

 27 26  0     1  0  0  0  0  0999 V2000
    2.8660    1.4050    0.0000 O   0  0  0  0  0  0  0  0  0  0  0  0
    3.7320    2.9050    0.0000 O   0  0  0  0  0  0  0  0  0  0  0  0
    2.8660   -2.5950    0.0000 O   0  0  0  0  0  0  0  0  0  0  0  0
    6.3301    0.4050    0.0000 O   0  0  0  0  0  0  0  0  0  0  0  0
    2.0000   -1.0950    0.0000 O   0  0  0  0  0  0  0  0  0  0  0  0
    5.4641    1.9050    0.0000 N   0  0  0  0  0  0  0  0  0  0  0  0
    4.5981    0.4050    0.0000 C   0  0  0  0  0  0  0  0  0  0  0  0
    4.5981    1.4050    0.0000 C   0  0  1  0  0  0  0  0  0  0  0  0
    3.7320   -0.0950    0.0000 C   0  0  0  0  0  0  0  0  0  0  0  0
    3.7320   -1.0950    0.0000 C   0  0  0  0  0  0  0  0  0  0  0  0
    3.7320    1.9050    0.0000 C   0  0  0  0  0  0  0  0  0  0  0  0
    6.3301    1.4050    0.0000 C   0  0  0  0  0  0  0  0  0  0  0  0
    2.8660   -1.5950    0.0000 C   0  0  0  0  0  0  0  0  0  0  0  0
    7.1962    1.9050    0.0000 C   0  0  0  0  0  0  0  0  0  0  0  0
    4.8101   -0.1776    0.0000 H   0  0  0  0  0  0  0  0  0  0  0  0
    5.2087    0.5127    0.0000 H   0  0  0  0  0  0  0  0  0  0  0  0
    4.5981    2.0250    0.0000 H   0  0  0  0  0  0  0  0  0  0  0  0
    3.5200    0.4876    0.0000 H   0  0  0  0  0  0  0  0  0  0  0  0
    3.1215   -0.2027    0.0000 H   0  0  0  0  0  0  0  0  0  0  0  0
    3.9441   -1.6776    0.0000 H   0  0  0  0  0  0  0  0  0  0  0  0
    4.3426   -0.9873    0.0000 H   0  0  0  0  0  0  0  0  0  0  0  0
    5.4641    2.5250    0.0000 H   0  0  0  0  0  0  0  0  0  0  0  0
    7.5062    1.3681    0.0000 H   0  0  0  0  0  0  0  0  0  0  0  0
    7.7331    2.2150    0.0000 H   0  0  0  0  0  0  0  0  0  0  0  0
    6.8862    2.4419    0.0000 H   0  0  0  0  0  0  0  0  0  0  0  0
    2.3291    1.7150    0.0000 H   0  0  0  0  0  0  0  0  0  0  0  0
    2.3291   -2.9050    0.0000 H   0  0  0  0  0  0  0  0  0  0  0  0
  1 11  1  0  0  0  0
  1 26  1  0  0  0  0
  2 11  2  0  0  0  0
  3 13  1  0  0  0  0
  3 27  1  0  0  0  0
  4 12  2  0  0  0  0
  5 13  2  0  0  0  0
  8  6  1  1  0  0  0
  6 12  1  0  0  0  0
  6 22  1  0  0  0  0
  7  8  1  0  0  0  0
  7  9  1  0  0  0  0
  7 15  1  0  0  0  0
  7 16  1  0  0  0  0
  8 11  1  0  0  0  0
  8 17  1  0  0  0  0
  9 10  1  0  0  0  0
  9 18  1  0  0  0  0
  9 19  1  0  0  0  0
 10 13  1  0  0  0  0
 10 20  1  0  0  0  0
 10 21  1  0  0  0  0
 12 14  1  0  0  0  0
 14 23  1  0  0  0  0
 14 24  1  0  0  0  0
 14 25  1  0  0  0  0
M  END
> <PUBCHEM_COMPOUND_CID>
443992

> <PUBCHEM_COMPOUND_CANONICALIZED>
1

> <PUBCHEM_CACTVS_COMPLEXITY>
238

> <PUBCHEM_CACTVS_HBOND_ACCEPTOR>
5

> <PUBCHEM_CACTVS_HBOND_DONOR>
3

> <PUBCHEM_CACTVS_ROTATABLE_BOND>
6

> <PUBCHEM_CACTVS_SUBSKEYS>
AAADccByOAAAAAAAAAAAAAAAAAAAAAAAAAAAAAAAAAAAAAAAAAAAHgAQCAAACCjBgAQCCALAAgAIAAGQGAAAAAAAAAAAAIGIAAACABIAgCAEQAAEFgCQAAGYWQMQAAAAAAAAAAAAAAAAAAAAAAAAAAAAAA==

> <PUBCHEM_IUPAC_OPENEYE_NAME>
(2S)-2-acetamidohexanedioic acid

> <PUBCHEM_IUPAC_CAS_NAME>
(2S)-2-acetamidohexanedioic acid

> <PUBCHEM_IUPAC_NAME>
(2S)-2-acetamidohexanedioic acid

> <PUBCHEM_IUPAC_SYSTEMATIC_NAME>
(2S)-2-acetamidohexanedioic acid

> <PUBCHEM_IUPAC_TRADITIONAL_NAME>
(2S)-2-acetamidoadipic acid

> <PUBCHEM_IUPAC_INCHI>
InChI=1S/C8H13NO5/c1-5(10)9-6(8(13)14)3-2-4-7(11)12/h6H,2-4H2,1H3,(H,9,10)(H,11,12)(H,13,14)/t6-/m0/s1

> <PUBCHEM_IUPAC_INCHIKEY>
FTTGAAZKBNZDCZ-LURJTMIESA-N

> <PUBCHEM_XLOGP3_AA>
-0.6

> <PUBCHEM_EXACT_MASS>
203.079373

> <PUBCHEM_MOLECULAR_FORMULA>
C8H13NO5

> <PUBCHEM_MOLECULAR_WEIGHT>
203.19252

> <PUBCHEM_OPENEYE_CAN_SMILES>
CC(=O)NC(CCCC(=O)O)C(=O)O

> <PUBCHEM_OPENEYE_ISO_SMILES>
CC(=O)N[C@@H](CCCC(=O)O)C(=O)O

> <PUBCHEM_CACTVS_TPSA>
104

> <PUBCHEM_MONOISOTOPIC_WEIGHT>
203.079373

> <PUBCHEM_TOTAL_CHARGE>
0

> <PUBCHEM_HEAVY_ATOM_COUNT>
14

> <PUBCHEM_ATOM_DEF_STEREO_COUNT>
1

> <PUBCHEM_ATOM_UDEF_STEREO_COUNT>
0

> <PUBCHEM_BOND_DEF_STEREO_COUNT>
0

> <PUBCHEM_BOND_UDEF_STEREO_COUNT>
0

> <PUBCHEM_ISOTOPIC_ATOM_COUNT>
0

> <PUBCHEM_COMPONENT_COUNT>
1

> <PUBCHEM_CACTVS_TAUTO_COUNT>
2

> <PUBCHEM_COORDINATE_TYPE>
1
5
255

> <PUBCHEM_BONDANNOTATIONS>
8  6  5

$$$$

