586284
  -OEChem-06241222462D

 35 36  0     0  0  0  0  0  0999 V2000
    3.6180   -4.3184    0.0000 S   0  0  0  0  0  0  0  0  0  0  0  0
    4.5411   -0.7306    0.0000 O   0  0  0  0  0  0  0  0  0  0  0  0
    5.4071    3.7694    0.0000 O   0  0  0  0  0  0  0  0  0  0  0  0
    3.6750    3.7694    0.0000 O   0  0  0  0  0  0  0  0  0  0  0  0
    2.8090   -0.7306    0.0000 O   0  0  0  0  0  0  0  0  0  0  0  0
    4.5411    2.2694    0.0000 C   0  0  0  0  0  0  0  0  0  0  0  0
    4.5411    0.2694    0.0000 C   0  0  0  0  0  0  0  0  0  0  0  0
    3.6750    1.7694    0.0000 C   0  0  0  0  0  0  0  0  0  0  0  0
    5.4071    1.7694    0.0000 C   0  0  0  0  0  0  0  0  0  0  0  0
    3.6750    0.7694    0.0000 C   0  0  0  0  0  0  0  0  0  0  0  0
    5.4071    0.7694    0.0000 C   0  0  0  0  0  0  0  0  0  0  0  0
    4.5411    3.2694    0.0000 C   0  0  0  0  0  0  0  0  0  0  0  0
    5.4071    4.7694    0.0000 C   0  0  0  0  0  0  0  0  0  0  0  0
    2.8090   -3.7306    0.0000 C   0  0  0  0  0  0  0  0  0  0  0  0
    2.8090   -2.7306    0.0000 C   0  0  0  0  0  0  0  0  0  0  0  0
    2.0000   -4.3184    0.0000 C   0  0  0  0  0  0  0  0  0  0  0  0
    3.6750   -1.2306    0.0000 C   0  0  0  0  0  0  0  0  0  0  0  0
    3.6750   -2.2306    0.0000 C   0  0  0  0  0  0  0  0  0  0  0  0
    6.2731    5.2694    0.0000 C   0  0  0  0  0  0  0  0  0  0  0  0
    2.3090   -5.2694    0.0000 C   0  0  0  0  0  0  0  0  0  0  0  0
    3.3090   -5.2694    0.0000 C   0  0  0  0  0  0  0  0  0  0  0  0
    3.1381    2.0794    0.0000 H   0  0  0  0  0  0  0  0  0  0  0  0
    5.9440    2.0794    0.0000 H   0  0  0  0  0  0  0  0  0  0  0  0
    3.1381    0.4594    0.0000 H   0  0  0  0  0  0  0  0  0  0  0  0
    5.9440    0.4594    0.0000 H   0  0  0  0  0  0  0  0  0  0  0  0
    5.1950    5.3520    0.0000 H   0  0  0  0  0  0  0  0  0  0  0  0
    4.7965    4.6618    0.0000 H   0  0  0  0  0  0  0  0  0  0  0  0
    2.2721   -2.4206    0.0000 H   0  0  0  0  0  0  0  0  0  0  0  0
    1.4103   -4.1268    0.0000 H   0  0  0  0  0  0  0  0  0  0  0  0
    4.2120   -2.5406    0.0000 H   0  0  0  0  0  0  0  0  0  0  0  0
    6.5831    4.7325    0.0000 H   0  0  0  0  0  0  0  0  0  0  0  0
    6.8100    5.5794    0.0000 H   0  0  0  0  0  0  0  0  0  0  0  0
    5.9631    5.8064    0.0000 H   0  0  0  0  0  0  0  0  0  0  0  0
    1.9446   -5.7710    0.0000 H   0  0  0  0  0  0  0  0  0  0  0  0
    3.6734   -5.7710    0.0000 H   0  0  0  0  0  0  0  0  0  0  0  0
  1 14  1  0  0  0  0
  1 21  1  0  0  0  0
  2  7  1  0  0  0  0
  2 17  1  0  0  0  0
  3 12  1  0  0  0  0
  3 13  1  0  0  0  0
  4 12  2  0  0  0  0
  5 17  2  0  0  0  0
  6  8  2  0  0  0  0
  6  9  1  0  0  0  0
  6 12  1  0  0  0  0
  7 10  2  0  0  0  0
  7 11  1  0  0  0  0
  8 10  1  0  0  0  0
  8 22  1  0  0  0  0
  9 11  2  0  0  0  0
  9 23  1  0  0  0  0
 10 24  1  0  0  0  0
 11 25  1  0  0  0  0
 13 19  1  0  0  0  0
 13 26  1  0  0  0  0
 13 27  1  0  0  0  0
 14 15  1  0  0  0  0
 14 16  2  0  0  0  0
 15 18  2  3  0  0  0
 15 28  1  0  0  0  0
 16 20  1  0  0  0  0
 16 29  1  0  0  0  0
 17 18  1  0  0  0  0
 18 30  1  0  0  0  0
 19 31  1  0  0  0  0
 19 32  1  0  0  0  0
 19 33  1  0  0  0  0
 20 21  2  0  0  0  0
 20 34  1  0  0  0  0
 21 35  1  0  0  0  0
M  END
> <PUBCHEM_COMPOUND_CID>
586284

> <PUBCHEM_COMPOUND_CANONICALIZED>
1

> <PUBCHEM_CACTVS_COMPLEXITY>
386

> <PUBCHEM_CACTVS_HBOND_ACCEPTOR>
5

> <PUBCHEM_CACTVS_HBOND_DONOR>
0

> <PUBCHEM_CACTVS_ROTATABLE_BOND>
7

> <PUBCHEM_CACTVS_SUBSKEYS>
AAADccB4OABAAAAAAAAAAAAAAAAAASAAAAAwAAAAAAAAAAABwAAAGgQAAAAADASk2AKyD4AABAiMAiDSCAADCIAkKBBIiBkGCMgMJjKkNRqCOyCkwBEoqYeI7CzOIAAAAAAAAABAAAAAAAAAAAAAAAAAAA==

> <PUBCHEM_IUPAC_OPENEYE_NAME>
ethyl 4-[3-(2-thienyl)prop-2-enoyloxy]benzoate

> <PUBCHEM_IUPAC_CAS_NAME>
4-(1-oxo-3-thiophen-2-ylprop-2-enoxy)benzoic acid ethyl ester

> <PUBCHEM_IUPAC_NAME>
ethyl 4-(3-thiophen-2-ylprop-2-enoyloxy)benzoate

> <PUBCHEM_IUPAC_SYSTEMATIC_NAME>
ethyl 4-(3-thiophen-2-ylprop-2-enoyloxy)benzoate

> <PUBCHEM_IUPAC_TRADITIONAL_NAME>
4-[3-(2-thienyl)acryloyl]oxybenzoic acid ethyl ester

> <PUBCHEM_IUPAC_INCHI>
InChI=1S/C16H14O4S/c1-2-19-16(18)12-5-7-13(8-6-12)20-15(17)10-9-14-4-3-11-21-14/h3-11H,2H2,1H3

> <PUBCHEM_IUPAC_INCHIKEY>
RJGVDTNMAUYXIH-UHFFFAOYSA-N

> <PUBCHEM_XLOGP3_AA>
3.7

> <PUBCHEM_EXACT_MASS>
302.06128

> <PUBCHEM_MOLECULAR_FORMULA>
C16H14O4S

> <PUBCHEM_MOLECULAR_WEIGHT>
302.34496

> <PUBCHEM_OPENEYE_CAN_SMILES>
CCOC(=O)C1=CC=C(C=C1)OC(=O)C=CC2=CC=CS2

> <PUBCHEM_OPENEYE_ISO_SMILES>
CCOC(=O)C1=CC=C(C=C1)OC(=O)C=CC2=CC=CS2

> <PUBCHEM_CACTVS_TPSA>
80.8

> <PUBCHEM_MONOISOTOPIC_WEIGHT>
302.06128

> <PUBCHEM_TOTAL_CHARGE>
0

> <PUBCHEM_HEAVY_ATOM_COUNT>
21

> <PUBCHEM_ATOM_DEF_STEREO_COUNT>
0

> <PUBCHEM_ATOM_UDEF_STEREO_COUNT>
0

> <PUBCHEM_BOND_DEF_STEREO_COUNT>
0

> <PUBCHEM_BOND_UDEF_STEREO_COUNT>
1

> <PUBCHEM_ISOTOPIC_ATOM_COUNT>
0

> <PUBCHEM_COMPONENT_COUNT>
1

> <PUBCHEM_CACTVS_TAUTO_COUNT>
1

> <PUBCHEM_COORDINATE_TYPE>
1
5
255

> <PUBCHEM_BONDANNOTATIONS>
1  14  8
1  21  8
14  16  8
15  18  1
16  20  8
20  21  8
6  8  8
6  9  8
7  10  8
7  11  8
8  10  8
9  11  8

$$$$

