   Color/Form

     * White powder
     * Colorless to white solid.

   from [1]HSDB

   Odor
        Odorless
   from [2]HSDB

   Melting Point
        Decomposes
   from [3]HSDB

   Corrosivity
        Slight corrosive action on metals
   from [4]HSDB

   Density/Specific Gravity
        3.620
   from [5]HSDB

   Solubilities

     * Sol in dil acids
     * Insol in organic solvents
     * 0.013 G/100 CC OF WATER AT 25 DEG C

   from [6]HSDB

   Vapor Pressure
        0 mm Hg @ 20 deg C (approx)
   from [7]HSDB

   Other Chemical/Physical Properties
        Decomp on heating
   from [8]HSDB

   Computed Properties
   Molecular Weight                  398.0724 [g/mol]
   Molecular Formula                 As[2]Ca[3]O[8]
   H-Bond Donor                      0
   H-Bond Acceptor                   8
   Rotatable Bond Count              0
   Exact Mass                        397.690283
   MonoIsotopic Mass                 397.690283
   Topological Polar Surface Area    173
   Heavy Atom Count                  13
   Formal Charge                     0
   Complexity                        36.8
   Isotope Atom Count                0
   Defined Atom Stereocenter Count   0
   Undefined Atom Stereocenter Count 0
   Defined Bond Stereocenter Count   0
   Undefined Bond Stereocenter Count 0
   Covalently-Bonded Unit Count      5

References

   1. http://toxnet.nlm.nih.gov/cgi-bin/sis/search/r?dbs+hsdb:@term+@rn+@rel+7778-44-1
   2. http://toxnet.nlm.nih.gov/cgi-bin/sis/search/r?dbs+hsdb:@term+@rn+@rel+7778-44-1
   3. http://toxnet.nlm.nih.gov/cgi-bin/sis/search/r?dbs+hsdb:@term+@rn+@rel+7778-44-1
   4. http://toxnet.nlm.nih.gov/cgi-bin/sis/search/r?dbs+hsdb:@term+@rn+@rel+7778-44-1
   5. http://toxnet.nlm.nih.gov/cgi-bin/sis/search/r?dbs+hsdb:@term+@rn+@rel+7778-44-1
   6. http://toxnet.nlm.nih.gov/cgi-bin/sis/search/r?dbs+hsdb:@term+@rn+@rel+7778-44-1
   7. http://toxnet.nlm.nih.gov/cgi-bin/sis/search/r?dbs+hsdb:@term+@rn+@rel+7778-44-1
   8. http://toxnet.nlm.nih.gov/cgi-bin/sis/search/r?dbs+hsdb:@term+@rn+@rel+7778-44-1
