90504
  -OEChem-07051213062D

 59 60  0     0  0  0  0  0  0999 V2000
    4.5981    4.0000    0.0000 O   0  0  0  0  0  0  0  0  0  0  0  0
    4.5981   -4.0000    0.0000 O   0  0  0  0  0  0  0  0  0  0  0  0
    6.3301    6.0000    0.0000 O   0  0  0  0  0  0  0  0  0  0  0  0
    2.8660   -6.0000    0.0000 O   0  0  0  0  0  0  0  0  0  0  0  0
    5.4641    7.5000    0.0000 O   0  0  0  0  0  0  0  0  0  0  0  0
    3.7320   -7.5000    0.0000 O   0  0  0  0  0  0  0  0  0  0  0  0
    4.5981    0.0000    0.0000 C   0  0  0  0  0  0  0  0  0  0  0  0
    4.5981   -1.0000    0.0000 C   0  0  0  0  0  0  0  0  0  0  0  0
    4.5981    1.0000    0.0000 C   0  0  0  0  0  0  0  0  0  0  0  0
    5.5981    0.0000    0.0000 C   0  0  0  0  0  0  0  0  0  0  0  0
    3.5981    0.0000    0.0000 C   0  0  0  0  0  0  0  0  0  0  0  0
    3.7320   -1.5000    0.0000 C   0  0  0  0  0  0  0  0  0  0  0  0
    5.4641    1.5000    0.0000 C   0  0  0  0  0  0  0  0  0  0  0  0
    5.4641   -1.5000    0.0000 C   0  0  0  0  0  0  0  0  0  0  0  0
    3.7320    1.5000    0.0000 C   0  0  0  0  0  0  0  0  0  0  0  0
    5.4641    2.5000    0.0000 C   0  0  0  0  0  0  0  0  0  0  0  0
    3.7320   -2.5000    0.0000 C   0  0  0  0  0  0  0  0  0  0  0  0
    3.7320    2.5000    0.0000 C   0  0  0  0  0  0  0  0  0  0  0  0
    5.4641   -2.5000    0.0000 C   0  0  0  0  0  0  0  0  0  0  0  0
    4.5981   -3.0000    0.0000 C   0  0  0  0  0  0  0  0  0  0  0  0
    4.5981    3.0000    0.0000 C   0  0  0  0  0  0  0  0  0  0  0  0
    5.4641    4.5000    0.0000 C   0  0  0  0  0  0  0  0  0  0  0  0
    3.7320   -4.5000    0.0000 C   0  0  0  0  0  0  0  0  0  0  0  0
    5.4641    5.5000    0.0000 C   0  0  0  0  0  0  0  0  0  0  0  0
    3.7320   -5.5000    0.0000 C   0  0  0  0  0  0  0  0  0  0  0  0
    2.8660   -7.0000    0.0000 C   0  0  0  0  0  0  0  0  0  0  0  0
    6.3301    7.0000    0.0000 C   0  0  0  0  0  0  0  0  0  0  0  0
    2.0000   -7.5000    0.0000 C   0  0  0  0  0  0  0  0  0  0  0  0
    7.1962    7.5000    0.0000 C   0  0  0  0  0  0  0  0  0  0  0  0
    2.0000   -8.5000    0.0000 C   0  0  0  0  0  0  0  0  0  0  0  0
    7.1962    8.5000    0.0000 C   0  0  0  0  0  0  0  0  0  0  0  0
    5.5981   -0.6200    0.0000 H   0  0  0  0  0  0  0  0  0  0  0  0
    6.2181    0.0000    0.0000 H   0  0  0  0  0  0  0  0  0  0  0  0
    5.5981    0.6200    0.0000 H   0  0  0  0  0  0  0  0  0  0  0  0
    3.5981    0.6200    0.0000 H   0  0  0  0  0  0  0  0  0  0  0  0
    2.9781    0.0000    0.0000 H   0  0  0  0  0  0  0  0  0  0  0  0
    3.5981   -0.6200    0.0000 H   0  0  0  0  0  0  0  0  0  0  0  0
    6.0010    1.1900    0.0000 H   0  0  0  0  0  0  0  0  0  0  0  0
    3.1951   -1.1900    0.0000 H   0  0  0  0  0  0  0  0  0  0  0  0
    3.1951    1.1900    0.0000 H   0  0  0  0  0  0  0  0  0  0  0  0
    6.0010   -1.1900    0.0000 H   0  0  0  0  0  0  0  0  0  0  0  0
    6.0010    2.8100    0.0000 H   0  0  0  0  0  0  0  0  0  0  0  0
    3.1951   -2.8100    0.0000 H   0  0  0  0  0  0  0  0  0  0  0  0
    3.1951    2.8100    0.0000 H   0  0  0  0  0  0  0  0  0  0  0  0
    6.0010   -2.8100    0.0000 H   0  0  0  0  0  0  0  0  0  0  0  0
    5.6762    3.9174    0.0000 H   0  0  0  0  0  0  0  0  0  0  0  0
    6.0747    4.6077    0.0000 H   0  0  0  0  0  0  0  0  0  0  0  0
    3.5200   -3.9174    0.0000 H   0  0  0  0  0  0  0  0  0  0  0  0
    3.1215   -4.6077    0.0000 H   0  0  0  0  0  0  0  0  0  0  0  0
    5.2520    6.0826    0.0000 H   0  0  0  0  0  0  0  0  0  0  0  0
    4.8535    5.3923    0.0000 H   0  0  0  0  0  0  0  0  0  0  0  0
    3.9441   -6.0826    0.0000 H   0  0  0  0  0  0  0  0  0  0  0  0
    4.3426   -5.3923    0.0000 H   0  0  0  0  0  0  0  0  0  0  0  0
    7.7331    7.1900    0.0000 H   0  0  0  0  0  0  0  0  0  0  0  0
    1.4631   -7.1900    0.0000 H   0  0  0  0  0  0  0  0  0  0  0  0
    1.4631   -8.8100    0.0000 H   0  0  0  0  0  0  0  0  0  0  0  0
    2.5369   -8.8100    0.0000 H   0  0  0  0  0  0  0  0  0  0  0  0
    7.7331    8.8100    0.0000 H   0  0  0  0  0  0  0  0  0  0  0  0
    6.6592    8.8100    0.0000 H   0  0  0  0  0  0  0  0  0  0  0  0
  1 21  1  0  0  0  0
  1 22  1  0  0  0  0
  2 20  1  0  0  0  0
  2 23  1  0  0  0  0
  3 24  1  0  0  0  0
  3 27  1  0  0  0  0
  4 25  1  0  0  0  0
  4 26  1  0  0  0  0
  5 27  2  0  0  0  0
  6 26  2  0  0  0  0
  7  8  1  0  0  0  0
  7  9  1  0  0  0  0
  7 10  1  0  0  0  0
  7 11  1  0  0  0  0
  8 12  2  0  0  0  0
  8 14  1  0  0  0  0
  9 13  2  0  0  0  0
  9 15  1  0  0  0  0
 10 32  1  0  0  0  0
 10 33  1  0  0  0  0
 10 34  1  0  0  0  0
 11 35  1  0  0  0  0
 11 36  1  0  0  0  0
 11 37  1  0  0  0  0
 12 17  1  0  0  0  0
 12 39  1  0  0  0  0
 13 16  1  0  0  0  0
 13 38  1  0  0  0  0
 14 19  2  0  0  0  0
 14 41  1  0  0  0  0
 15 18  2  0  0  0  0
 15 40  1  0  0  0  0
 16 21  2  0  0  0  0
 16 42  1  0  0  0  0
 17 20  2  0  0  0  0
 17 43  1  0  0  0  0
 18 21  1  0  0  0  0
 18 44  1  0  0  0  0
 19 20  1  0  0  0  0
 19 45  1  0  0  0  0
 22 24  1  0  0  0  0
 22 46  1  0  0  0  0
 22 47  1  0  0  0  0
 23 25  1  0  0  0  0
 23 48  1  0  0  0  0
 23 49  1  0  0  0  0
 24 50  1  0  0  0  0
 24 51  1  0  0  0  0
 25 52  1  0  0  0  0
 25 53  1  0  0  0  0
 26 28  1  0  0  0  0
 27 29  1  0  0  0  0
 28 30  2  0  0  0  0
 28 55  1  0  0  0  0
 29 31  2  0  0  0  0
 29 54  1  0  0  0  0
 30 56  1  0  0  0  0
 30 57  1  0  0  0  0
 31 58  1  0  0  0  0
 31 59  1  0  0  0  0
M  END
> <PUBCHEM_COMPOUND_CID>
90504

> <PUBCHEM_COMPOUND_CANONICALIZED>
1

> <PUBCHEM_CACTVS_COMPLEXITY>
533

> <PUBCHEM_CACTVS_HBOND_ACCEPTOR>
6

> <PUBCHEM_CACTVS_HBOND_DONOR>
0

> <PUBCHEM_CACTVS_ROTATABLE_BOND>
14

> <PUBCHEM_CACTVS_SUBSKEYS>
AAADceB4OAAAAAAAAAAAAAAAAAAAAAAAAAAwYAAAAAAAAAABQAAAGgAAAAAADgSgmAIyDoAABACIAiDSCAACCAAgIAAIiAAGCMgNJiKEMRqCOCCkwBEKqIeAwPAPoAAAAAAAAABAAAAAAAAAAAAAAAAAAA==

> <PUBCHEM_IUPAC_OPENEYE_NAME>
2-[4-[1-methyl-1-[4-(2-prop-2-enoyloxyethoxy)phenyl]ethyl]phenoxy]ethyl prop-2-enoate

> <PUBCHEM_IUPAC_CAS_NAME>
2-propenoic acid 2-[4-[2-[4-[2-(1-oxoprop-2-enoxy)ethoxy]phenyl]propan-2-yl]phenoxy]ethyl ester

> <PUBCHEM_IUPAC_NAME>
2-[4-[2-[4-(2-prop-2-enoyloxyethoxy)phenyl]propan-2-yl]phenoxy]ethyl prop-2-enoate

> <PUBCHEM_IUPAC_SYSTEMATIC_NAME>
2-[4-[2-[4-(2-prop-2-enoyloxyethoxy)phenyl]propan-2-yl]phenoxy]ethyl prop-2-enoate

> <PUBCHEM_IUPAC_TRADITIONAL_NAME>
acrylic acid 2-[4-[1-[4-(2-acryloyloxyethoxy)phenyl]-1-methyl-ethyl]phenoxy]ethyl ester

> <PUBCHEM_IUPAC_INCHI>
InChI=1S/C25H28O6/c1-5-23(26)30-17-15-28-21-11-7-19(8-12-21)25(3,4)20-9-13-22(14-10-20)29-16-18-31-24(27)6-2/h5-14H,1-2,15-18H2,3-4H3

> <PUBCHEM_IUPAC_INCHIKEY>
XWUNIDGEMNBBAQ-UHFFFAOYSA-N

> <PUBCHEM_XLOGP3_AA>
5.6

> <PUBCHEM_EXACT_MASS>
424.188589

> <PUBCHEM_MOLECULAR_FORMULA>
C25H28O6

> <PUBCHEM_MOLECULAR_WEIGHT>
424.48622

> <PUBCHEM_OPENEYE_CAN_SMILES>
CC(C)(C1=CC=C(C=C1)OCCOC(=O)C=C)C2=CC=C(C=C2)OCCOC(=O)C=C

> <PUBCHEM_OPENEYE_ISO_SMILES>
CC(C)(C1=CC=C(C=C1)OCCOC(=O)C=C)C2=CC=C(C=C2)OCCOC(=O)C=C

> <PUBCHEM_CACTVS_TPSA>
71.1

> <PUBCHEM_MONOISOTOPIC_WEIGHT>
424.188589

> <PUBCHEM_TOTAL_CHARGE>
0

> <PUBCHEM_HEAVY_ATOM_COUNT>
31

> <PUBCHEM_ATOM_DEF_STEREO_COUNT>
0

> <PUBCHEM_ATOM_UDEF_STEREO_COUNT>
0

> <PUBCHEM_BOND_DEF_STEREO_COUNT>
0

> <PUBCHEM_BOND_UDEF_STEREO_COUNT>
0

> <PUBCHEM_ISOTOPIC_ATOM_COUNT>
0

> <PUBCHEM_COMPONENT_COUNT>
1

> <PUBCHEM_CACTVS_TAUTO_COUNT>
1

> <PUBCHEM_COORDINATE_TYPE>
1
5
255

> <PUBCHEM_BONDANNOTATIONS>
12  17  8
13  16  8
14  19  8
15  18  8
16  21  8
17  20  8
18  21  8
19  20  8
8  12  8
8  14  8
9  13  8
9  15  8

$$$$

