   Color/Form
        Faint to light yellow crystalline powder
   from [1]HSDB

   Melting Point
        decomposes @ 225-257 deg C
   from [2]HSDB

   Dissociation Constants
        pKa = 6.09 (carboxylic acid group); pKa = 8.74 (nitrogen on
   piperazinyl ring)
   from [3]HSDB

   Octanol/Water Partition Coefficient
        log Kow = 0.28 (non-ionized)
   from [4]HSDB

   pH
        pH range for the 1.0% aqueous concentrates in vials is 3.3 to 3.9;
   the pH range for the 0.2% ready-for-use infusion solutions is 3.5 to
   4.6
   from [5]HSDB

   Solubilities

     * Soluble in dilute (0.1N) hydrochloric acid; practically insoluble
       in ethanol
     * In water, 30,000 mg/l @ 20 deg C

   from [6]HSDB

   Other Chemical/Physical Properties

     * Water Solubility: approx 36 mg/ml @ 25 deg C /Ciprofloxacin
       hydrochloride/
     * Color: Faintly yellowish cmpd to yellow crystals. /Ciprofloxacin
       hydrochloride/
     * Aqueous solutions of ciprofloxacin hydrochloride have a pH of
       1.5-7.5 are stable for at least for 14 days at room temperature.
       /Ciprofloxacin hydrochloride/
     * Chemical Group: Fluoroquinolone /Antibacterial/

   from [7]HSDB

   Computed Properties
   Molecular Weight                  331.341523 [g/mol]
   Molecular Formula                 C[17]H[18]FN[3]O[3]
   XLogP3                            -1.1
   H-Bond Donor                      2
   H-Bond Acceptor                   7
   Rotatable Bond Count              3
   Exact Mass                        331.13322
   MonoIsotopic Mass                 331.13322
   Topological Polar Surface Area    72.9
   Heavy Atom Count                  24
   Formal Charge                     0
   Complexity                        571
   Isotope Atom Count                0
   Defined Atom Stereocenter Count   0
   Undefined Atom Stereocenter Count 0
   Defined Bond Stereocenter Count   0
   Undefined Bond Stereocenter Count 0
   Covalently-Bonded Unit Count      1
   Feature 3D Acceptor Count         3
   Feature 3D Donor Count            1
   Feature 3D Anion Count            2
   Feature 3D Cation Count           3
   Feature 3D Ring Count             3
   Effective Rotor Count             4.8
   Conformer Sampling RMSD           0.8
   CID Conformer Count               [8]5

References

   1. http://toxnet.nlm.nih.gov/cgi-bin/sis/search/r?dbs+hsdb:@term+@rn+@rel+85721-33-1
   2. http://toxnet.nlm.nih.gov/cgi-bin/sis/search/r?dbs+hsdb:@term+@rn+@rel+85721-33-1
   3. http://toxnet.nlm.nih.gov/cgi-bin/sis/search/r?dbs+hsdb:@term+@rn+@rel+85721-33-1
   4. http://toxnet.nlm.nih.gov/cgi-bin/sis/search/r?dbs+hsdb:@term+@rn+@rel+85721-33-1
   5. http://toxnet.nlm.nih.gov/cgi-bin/sis/search/r?dbs+hsdb:@term+@rn+@rel+85721-33-1
   6. http://toxnet.nlm.nih.gov/cgi-bin/sis/search/r?dbs+hsdb:@term+@rn+@rel+85721-33-1
   7. http://toxnet.nlm.nih.gov/cgi-bin/sis/search/r?dbs+hsdb:@term+@rn+@rel+85721-33-1
   8. http://pubchem.ncbi.nlm.nih.gov/vw3d/vw3d.cgi?cid=2764
