   Color/Form

     * Orange crystalline solid at room temperature
     * Orange to deep red brown crystalline solid

   from [1]HSDB

   Boiling Point
        358.2 deg C
   from [2]HSDB

   Melting Point
        85-90 deg C (tech., 65-84 deg C)
   from [3]HSDB

   Density/Specific Gravity
        1.49 g/L
   from [4]HSDB

   Octanol/Water Partition Coefficient
        log Kow = 4.73
   from [5]HSDB

   Solubilities

     * Readily soluble in most organic solvents, e.g. acetone 72.5,
       cyclohexanone, isophorone 61.5, dimethylformamide >50, chloroform
       50-55, mesityl oxide 40-50 (all in g/100 g, 25 deg C)
     * In water, 1.16X10-1 mg/L at 25 deg C

   from [6]HSDB

   Vapor Pressure
        2X10-7 mm Hg at 25 deg C
   from [7]HSDB

   Other Chemical/Physical Properties

     * Density: 1.35 at 73 deg C
     * Henry's Law constant = 1.2X10-6 atm-cu m/mol at 25 deg C (est)
     * Hydroxyl radical reaction rate constant = 1.15X10-11 cu
       cm/molec-sec at 25 deg C (est)

   from [8]HSDB

   Computed Properties
   Molecular Weight                  361.70035 [g/mol]
   Molecular Formula                 C[15]H[11]ClF[3]NO[4]
   XLogP3                            4.7
   H-Bond Donor                      0
   H-Bond Acceptor                   7
   Rotatable Bond Count              4
   Exact Mass                        361.03287
   MonoIsotopic Mass                 361.03287
   Topological Polar Surface Area    64.3
   Heavy Atom Count                  24
   Formal Charge                     0
   Complexity                        432
   Isotope Atom Count                0
   Defined Atom Stereocenter Count   0
   Undefined Atom Stereocenter Count 0
   Defined Bond Stereocenter Count   0
   Undefined Bond Stereocenter Count 0
   Covalently-Bonded Unit Count      1
   Feature 3D Acceptor Count         4
   Feature 3D Anion Count            1
   Feature 3D Ring Count             2
   Effective Rotor Count             6
   Conformer Sampling RMSD           0.8
   CID Conformer Count               [9]27

References

   1. http://toxnet.nlm.nih.gov/cgi-bin/sis/search/r?dbs+hsdb:@term+@rn+@rel+42874-03-3
   2. http://toxnet.nlm.nih.gov/cgi-bin/sis/search/r?dbs+hsdb:@term+@rn+@rel+42874-03-3
   3. http://toxnet.nlm.nih.gov/cgi-bin/sis/search/r?dbs+hsdb:@term+@rn+@rel+42874-03-3
   4. http://toxnet.nlm.nih.gov/cgi-bin/sis/search/r?dbs+hsdb:@term+@rn+@rel+42874-03-3
   5. http://toxnet.nlm.nih.gov/cgi-bin/sis/search/r?dbs+hsdb:@term+@rn+@rel+42874-03-3
   6. http://toxnet.nlm.nih.gov/cgi-bin/sis/search/r?dbs+hsdb:@term+@rn+@rel+42874-03-3
   7. http://toxnet.nlm.nih.gov/cgi-bin/sis/search/r?dbs+hsdb:@term+@rn+@rel+42874-03-3
   8. http://toxnet.nlm.nih.gov/cgi-bin/sis/search/r?dbs+hsdb:@term+@rn+@rel+42874-03-3
   9. http://pubchem.ncbi.nlm.nih.gov/vw3d/vw3d.cgi?cid=39327
