   Color/Form
        Crystals
   from [1]HSDB

   Melting Point
        76 deg C
   from [2]HSDB

   Octanol/Water Partition Coefficient
        log Kow = 1.28
   from [3]HSDB

   Solubilities

     * Soluble in benzene, very soluble in ethanol, ether.
     * Slightly soluble in water

   from [4]HSDB

   Spectral Properties

     * IR: 8633 (Sadtler Research Laboratories IR Grating Collection)
     * UV: 3798 (Sadtler Research Laboratories Spectral Collection)
     * IR: 2:651E (Aldrich Library of Infrared Spectra, Aldrich Chemical
       Co, Milwaukee, WI)
     * NMR: 5:81C (Aldrich Library of Mass Spectra, Aldrich Chemical Co,
       Milwaukee, WI)

   from [5]HSDB

   Computed Properties
   Molecular Weight                  142.58618 [g/mol]
   Molecular Formula                 C[6]H[7]ClN[2]
   XLogP3                            1.3
   H-Bond Donor                      2
   H-Bond Acceptor                   2
   Rotatable Bond Count              0
   Exact Mass                        142.029776
   MonoIsotopic Mass                 142.029776
   Topological Polar Surface Area    52
   Heavy Atom Count                  9
   Formal Charge                     0
   Complexity                        97.1
   Isotope Atom Count                0
   Defined Atom Stereocenter Count   0
   Undefined Atom Stereocenter Count 0
   Defined Bond Stereocenter Count   0
   Undefined Bond Stereocenter Count 0
   Covalently-Bonded Unit Count      1
   Feature 3D Donor Count            2
   Feature 3D Cation Count           2
   Feature 3D Ring Count             1
   Effective Rotor Count             0
   Conformer Sampling RMSD           0.4
   CID Conformer Count               [6]1

References

   1. http://toxnet.nlm.nih.gov/cgi-bin/sis/search/r?dbs+hsdb:@term+@rn+@rel+95-83-0
   2. http://toxnet.nlm.nih.gov/cgi-bin/sis/search/r?dbs+hsdb:@term+@rn+@rel+95-83-0
   3. http://toxnet.nlm.nih.gov/cgi-bin/sis/search/r?dbs+hsdb:@term+@rn+@rel+95-83-0
   4. http://toxnet.nlm.nih.gov/cgi-bin/sis/search/r?dbs+hsdb:@term+@rn+@rel+95-83-0
   5. http://toxnet.nlm.nih.gov/cgi-bin/sis/search/r?dbs+hsdb:@term+@rn+@rel+95-83-0
   6. http://pubchem.ncbi.nlm.nih.gov/vw3d/vw3d.cgi?cid=7263
