4418
  -OEChem-06261200062D

 57 60  0     1  0  0  0  0  0999 V2000
    6.3301    0.4827    0.0000 O   0  0  0  0  0  0  0  0  0  0  0  0
    6.3301    2.4827    0.0000 O   0  0  0  0  0  0  0  0  0  0  0  0
    2.8660   -3.5173    0.0000 O   0  0  0  0  0  0  0  0  0  0  0  0
    4.5981   -0.5173    0.0000 N   0  0  0  0  0  0  0  0  0  0  0  0
    4.5981   -2.5173    0.0000 N   0  0  0  0  0  0  0  0  0  0  0  0
    3.7320   -1.0173    0.0000 C   0  0  0  0  0  0  0  0  0  0  0  0
    5.4641   -1.0173    0.0000 C   0  0  0  0  0  0  0  0  0  0  0  0
    3.7320   -2.0173    0.0000 C   0  0  0  0  0  0  0  0  0  0  0  0
    5.4641   -2.0173    0.0000 C   0  0  0  0  0  0  0  0  0  0  0  0
    4.5981    0.4827    0.0000 C   0  0  0  0  0  0  0  0  0  0  0  0
    5.4641    0.9827    0.0000 C   0  0  3  0  0  0  0  0  0  0  0  0
    4.5981   -3.5173    0.0000 C   0  0  0  0  0  0  0  0  0  0  0  0
    5.4641    1.9827    0.0000 C   0  0  0  0  0  0  0  0  0  0  0  0
    3.7320   -4.0173    0.0000 C   0  0  0  0  0  0  0  0  0  0  0  0
    5.4641   -4.0173    0.0000 C   0  0  0  0  0  0  0  0  0  0  0  0
    3.7320   -5.0173    0.0000 C   0  0  0  0  0  0  0  0  0  0  0  0
    5.4641   -5.0173    0.0000 C   0  0  0  0  0  0  0  0  0  0  0  0
    4.5981   -5.5173    0.0000 C   0  0  0  0  0  0  0  0  0  0  0  0
    6.3301    3.4827    0.0000 C   0  0  0  0  0  0  0  0  0  0  0  0
    7.1962    3.9827    0.0000 C   0  0  0  0  0  0  0  0  0  0  0  0
    7.1962    4.9827    0.0000 C   0  0  0  0  0  0  0  0  0  0  0  0
    5.4641    3.9827    0.0000 C   0  0  0  0  0  0  0  0  0  0  0  0
    2.0000   -4.0173    0.0000 C   0  0  0  0  0  0  0  0  0  0  0  0
    8.0901    3.4480    0.0000 C   0  0  0  0  0  0  0  0  0  0  0  0
    6.3301    5.4827    0.0000 C   0  0  0  0  0  0  0  0  0  0  0  0
    5.4641    4.9827    0.0000 C   0  0  0  0  0  0  0  0  0  0  0  0
    8.0901    5.5173    0.0000 C   0  0  0  0  0  0  0  0  0  0  0  0
    8.9962    3.9618    0.0000 C   0  0  0  0  0  0  0  0  0  0  0  0
    8.9962    5.0035    0.0000 C   0  0  0  0  0  0  0  0  0  0  0  0
    6.0747   -1.1250    0.0000 H   0  0  0  0  0  0  0  0  0  0  0  0
    5.6762   -0.4347    0.0000 H   0  0  0  0  0  0  0  0  0  0  0  0
    3.5200   -0.4347    0.0000 H   0  0  0  0  0  0  0  0  0  0  0  0
    3.1215   -1.1250    0.0000 H   0  0  0  0  0  0  0  0  0  0  0  0
    3.1215   -1.9097    0.0000 H   0  0  0  0  0  0  0  0  0  0  0  0
    3.5200   -2.5999    0.0000 H   0  0  0  0  0  0  0  0  0  0  0  0
    5.6762   -2.5999    0.0000 H   0  0  0  0  0  0  0  0  0  0  0  0
    6.0747   -1.9097    0.0000 H   0  0  0  0  0  0  0  0  0  0  0  0
    4.3860    1.0653    0.0000 H   0  0  0  0  0  0  0  0  0  0  0  0
    3.9875    0.3750    0.0000 H   0  0  0  0  0  0  0  0  0  0  0  0
    5.4641    0.3627    0.0000 H   0  0  0  0  0  0  0  0  0  0  0  0
    5.2520    2.5653    0.0000 H   0  0  0  0  0  0  0  0  0  0  0  0
    4.8535    1.8750    0.0000 H   0  0  0  0  0  0  0  0  0  0  0  0
    6.0010   -3.7073    0.0000 H   0  0  0  0  0  0  0  0  0  0  0  0
    6.8671    0.7927    0.0000 H   0  0  0  0  0  0  0  0  0  0  0  0
    3.1951   -5.3273    0.0000 H   0  0  0  0  0  0  0  0  0  0  0  0
    6.0010   -5.3273    0.0000 H   0  0  0  0  0  0  0  0  0  0  0  0
    4.5981   -6.1373    0.0000 H   0  0  0  0  0  0  0  0  0  0  0  0
    4.9272    3.6727    0.0000 H   0  0  0  0  0  0  0  0  0  0  0  0
    1.6900   -3.4804    0.0000 H   0  0  0  0  0  0  0  0  0  0  0  0
    1.4631   -4.3273    0.0000 H   0  0  0  0  0  0  0  0  0  0  0  0
    2.3100   -4.5543    0.0000 H   0  0  0  0  0  0  0  0  0  0  0  0
    8.0829    2.8280    0.0000 H   0  0  0  0  0  0  0  0  0  0  0  0
    6.3301    6.1027    0.0000 H   0  0  0  0  0  0  0  0  0  0  0  0
    4.9272    5.2927    0.0000 H   0  0  0  0  0  0  0  0  0  0  0  0
    8.0829    6.1373    0.0000 H   0  0  0  0  0  0  0  0  0  0  0  0
    9.5319    3.6498    0.0000 H   0  0  0  0  0  0  0  0  0  0  0  0
    9.5319    5.3156    0.0000 H   0  0  0  0  0  0  0  0  0  0  0  0
  1 11  1  0  0  0  0
  1 44  1  0  0  0  0
  2 13  1  0  0  0  0
  2 19  1  0  0  0  0
  3 14  1  0  0  0  0
  3 23  1  0  0  0  0
  4  6  1  0  0  0  0
  4  7  1  0  0  0  0
  4 10  1  0  0  0  0
  5  8  1  0  0  0  0
  5  9  1  0  0  0  0
  5 12  1  0  0  0  0
  6  8  1  0  0  0  0
  6 32  1  0  0  0  0
  6 33  1  0  0  0  0
  7  9  1  0  0  0  0
  7 30  1  0  0  0  0
  7 31  1  0  0  0  0
  8 34  1  0  0  0  0
  8 35  1  0  0  0  0
  9 36  1  0  0  0  0
  9 37  1  0  0  0  0
 10 11  1  0  0  0  0
 10 38  1  0  0  0  0
 10 39  1  0  0  0  0
 11 13  1  0  0  0  0
 11 40  1  0  0  0  0
 12 14  1  0  0  0  0
 12 15  2  0  0  0  0
 13 41  1  0  0  0  0
 13 42  1  0  0  0  0
 14 16  2  0  0  0  0
 15 17  1  0  0  0  0
 15 43  1  0  0  0  0
 16 18  1  0  0  0  0
 16 45  1  0  0  0  0
 17 18  2  0  0  0  0
 17 46  1  0  0  0  0
 18 47  1  0  0  0  0
 19 20  1  0  0  0  0
 19 22  2  0  0  0  0
 20 21  1  0  0  0  0
 20 24  2  0  0  0  0
 21 25  1  0  0  0  0
 21 27  2  0  0  0  0
 22 26  1  0  0  0  0
 22 48  1  0  0  0  0
 23 49  1  0  0  0  0
 23 50  1  0  0  0  0
 23 51  1  0  0  0  0
 24 28  1  0  0  0  0
 24 52  1  0  0  0  0
 25 26  2  0  0  0  0
 25 53  1  0  0  0  0
 26 54  1  0  0  0  0
 27 29  1  0  0  0  0
 27 55  1  0  0  0  0
 28 29  2  0  0  0  0
 28 56  1  0  0  0  0
 29 57  1  0  0  0  0
M  END
> <PUBCHEM_COMPOUND_CID>
4418

> <PUBCHEM_COMPOUND_CANONICALIZED>
1

> <PUBCHEM_CACTVS_COMPLEXITY>
483

> <PUBCHEM_CACTVS_HBOND_ACCEPTOR>
5

> <PUBCHEM_CACTVS_HBOND_DONOR>
1

> <PUBCHEM_CACTVS_ROTATABLE_BOND>
7

> <PUBCHEM_CACTVS_SUBSKEYS>
AAADceB7MAAAAAAAAAAAAAAAAAAAAAAAAAA8YMEAAAAAAADBVAAAHgAACAAADBzhmAYyxsMABgCAAiRCQACCCAAhIgAIiAAPbIgPdiLEsZuXOCjmwBHb6AeQwLAOgAABAAAYEAAAAAIAADAgAAAAAAAAAA==

> <PUBCHEM_IUPAC_OPENEYE_NAME>
1-[4-(2-methoxyphenyl)piperazin-1-yl]-3-(1-naphthyloxy)propan-2-ol

> <PUBCHEM_IUPAC_CAS_NAME>
1-[4-(2-methoxyphenyl)-1-piperazinyl]-3-(1-naphthalenyloxy)-2-propanol

> <PUBCHEM_IUPAC_NAME>
1-[4-(2-methoxyphenyl)piperazin-1-yl]-3-naphthalen-1-yloxypropan-2-ol

> <PUBCHEM_IUPAC_SYSTEMATIC_NAME>
1-[4-(2-methoxyphenyl)piperazin-1-yl]-3-naphthalen-1-yloxy-propan-2-ol

> <PUBCHEM_IUPAC_TRADITIONAL_NAME>
1-[4-(2-methoxyphenyl)piperazino]-3-(1-naphthoxy)propan-2-ol

> <PUBCHEM_IUPAC_INCHI>
InChI=1S/C24H28N2O3/c1-28-24-11-5-4-10-22(24)26-15-13-25(14-16-26)17-20(27)18-29-23-12-6-8-19-7-2-3-9-21(19)23/h2-12,20,27H,13-18H2,1H3

> <PUBCHEM_IUPAC_INCHIKEY>
HRRBJVNMSRJFHQ-UHFFFAOYSA-N

> <PUBCHEM_XLOGP3_AA>
4.1

> <PUBCHEM_EXACT_MASS>
392.209993

> <PUBCHEM_MOLECULAR_FORMULA>
C24H28N2O3

> <PUBCHEM_MOLECULAR_WEIGHT>
392.49072

> <PUBCHEM_OPENEYE_CAN_SMILES>
COC1=CC=CC=C1N2CCN(CC2)CC(COC3=CC=CC4=CC=CC=C43)O

> <PUBCHEM_OPENEYE_ISO_SMILES>
COC1=CC=CC=C1N2CCN(CC2)CC(COC3=CC=CC4=CC=CC=C43)O

> <PUBCHEM_CACTVS_TPSA>
45.2

> <PUBCHEM_MONOISOTOPIC_WEIGHT>
392.209993

> <PUBCHEM_TOTAL_CHARGE>
0

> <PUBCHEM_HEAVY_ATOM_COUNT>
29

> <PUBCHEM_ATOM_DEF_STEREO_COUNT>
0

> <PUBCHEM_ATOM_UDEF_STEREO_COUNT>
1

> <PUBCHEM_BOND_DEF_STEREO_COUNT>
0

> <PUBCHEM_BOND_UDEF_STEREO_COUNT>
0

> <PUBCHEM_ISOTOPIC_ATOM_COUNT>
0

> <PUBCHEM_COMPONENT_COUNT>
1

> <PUBCHEM_CACTVS_TAUTO_COUNT>
1

> <PUBCHEM_COORDINATE_TYPE>
1
5
255

> <PUBCHEM_BONDANNOTATIONS>
11  1  3
12  14  8
12  15  8
14  16  8
15  17  8
16  18  8
17  18  8
19  20  8
19  22  8
20  21  8
20  24  8
21  25  8
21  27  8
22  26  8
24  28  8
25  26  8
27  29  8
28  29  8

$$$$

