   Color/Form
        Colorless crystalline solid
   from [1]HSDB

   Odor

     * Faint phenolic /tech grade/
     * Odorless when pure

   from [2]HSDB

   Boiling Point
        Sublimes at circa 140 deg C/0.1 mm Hg
   from [3]HSDB

   Melting Point
        212-213 deg C
   from [4]HSDB

   Corrosivity
        Non-corrosive
   from [5]HSDB

   Dissociation Constants
        PK: 3.96
   from [6]HSDB

   Octanol/Water Partition Coefficient
        Log Kow = 0.90 at pH 6.5
   from [7]HSDB

   Solubilities

     * SOLUBILITY IN WATER: 0.005% @ 20 DEG C; IN CYCLOHEXANONE: 14%; IN
       DIMETHYLFORMAMIDE: 74%
     * SLIGHTLY SOL IN CHLOROFORM; SOL IN ETHER
     * AT 25 DEG C: IN ACETONE MORE THAN 10 G/100 ML; IN BENZENE 1.1 G/100
       ML; IN CARBON TETRACHLORIDE 0.14 G/100 ML; IN METHANOL 3.3 G/100
       ML; IN WATER 130 PPM
     * In water 50 mg/l (25 deg C). In acetone 70, ethanol, methanol 20,
       cyclohexanone 140, tetrahydrofuran 340, dimethylformamide 740,
       chloroform 10, carbon tetrachloride <1 (all in g/l, 25 deg C)

   from [8]HSDB

   Spectral Properties

     * IR: 2:991C (Aldrich Library of Infrared Spectra, Aldrich Chemical
       Co, Milwaukee, WI)
     * NMR: 7:136C (Aldrich Library of Mass Spectra, Aldrich Chemical Co,
       Milwaukee, WI)
     * MASS: 5021 (National Bureau of Standards EPA-NIH Mass Spectra Data
       Base, NSRDS-NBS-63)

   from [9]HSDB

   Vapor Pressure
        Less than 1 mPa at 20 deg C
   from [10]HSDB

   Other Chemical/Physical Properties

     * HYDROLYZED TO THE BENZAMIDE WHEN WARMED WITH CONCN SULFURIC ACID;
       PROLONGED TREATMENT WITH CONCN SULFURIC ACID @ 40 DEG C RESULTS IN
       FORMATION OF THE CORRESPONDING BENZOIC ACID; RAPIDLY DECOMPOSES TO
       PRODUCE FREE IODINE & IODIDE IONS WHEN HEATED ABOVE 60 DEG C IN UV
       LIGHT OR SUNLIGHT
     * SUBLIMES AT ABOUT 140 DEG C @ 0.13 mbar
     * CREAM POWDER; FAINT PHENOLIC ODOR; MELTING POINT: 200 DEG C
       /TECHNICAL PRODUCT/
     * SOLUBILITY IN WATER @ 20-25 DEG C: 22% /LITHIUM SALT/; 14% /SODIUM
       SALT/; 10.7% /POTASSIUM SALT/
     * Vapor pressure: 2.77X10-5 mm Hg at 105 deg C /Octanoate/
     * Solubilities: In water 107 g/l (20-25 deg C). In acetone 60, 20%
       aqueous acetone 560, tetrahydrofurfuryl alcohol 750, methyl
       cellosolve 770 (all in g/l, 20-25 deg C /Potassium salt/
     * Very stable to acids and alkalis. Acidic in reaction, and forms
       salts.
     * Decomposed by sunlight and UV light.

   from [11]HSDB

   Computed Properties
   Molecular Weight                  370.91376 [g/mol]
   Molecular Formula                 C[7]H[3]I[2]NO
   XLogP3                            2
   H-Bond Donor                      1
   H-Bond Acceptor                   2
   Rotatable Bond Count              0
   Tautomer Count                    2
   Exact Mass                        370.83041
   MonoIsotopic Mass                 370.83041
   Topological Polar Surface Area    44
   Heavy Atom Count                  11
   Formal Charge                     0
   Complexity                        176
   Isotope Atom Count                0
   Defined Atom Stereocenter Count   0
   Undefined Atom Stereocenter Count 0
   Defined Bond Stereocenter Count   0
   Undefined Bond Stereocenter Count 0
   Covalently-Bonded Unit Count      1
   Feature 3D Acceptor Count         1
   Feature 3D Donor Count            1
   Feature 3D Hydrophobe Count       2
   Feature 3D Ring Count             1
   Effective Rotor Count             0
   Conformer Sampling RMSD           0.4
   CID Conformer Count               [12]1

References

   1. http://toxnet.nlm.nih.gov/cgi-bin/sis/search/r?dbs+hsdb:@term+@rn+@rel+1689-83-4
   2. http://toxnet.nlm.nih.gov/cgi-bin/sis/search/r?dbs+hsdb:@term+@rn+@rel+1689-83-4
   3. http://toxnet.nlm.nih.gov/cgi-bin/sis/search/r?dbs+hsdb:@term+@rn+@rel+1689-83-4
   4. http://toxnet.nlm.nih.gov/cgi-bin/sis/search/r?dbs+hsdb:@term+@rn+@rel+1689-83-4
   5. http://toxnet.nlm.nih.gov/cgi-bin/sis/search/r?dbs+hsdb:@term+@rn+@rel+1689-83-4
   6. http://toxnet.nlm.nih.gov/cgi-bin/sis/search/r?dbs+hsdb:@term+@rn+@rel+1689-83-4
   7. http://toxnet.nlm.nih.gov/cgi-bin/sis/search/r?dbs+hsdb:@term+@rn+@rel+1689-83-4
   8. http://toxnet.nlm.nih.gov/cgi-bin/sis/search/r?dbs+hsdb:@term+@rn+@rel+1689-83-4
   9. http://toxnet.nlm.nih.gov/cgi-bin/sis/search/r?dbs+hsdb:@term+@rn+@rel+1689-83-4
  10. http://toxnet.nlm.nih.gov/cgi-bin/sis/search/r?dbs+hsdb:@term+@rn+@rel+1689-83-4
  11. http://toxnet.nlm.nih.gov/cgi-bin/sis/search/r?dbs+hsdb:@term+@rn+@rel+1689-83-4
  12. http://pubchem.ncbi.nlm.nih.gov/vw3d/vw3d.cgi?cid=15530
