439823
  -OEChem-07051212502D

 21 21  0     1  0  0  0  0  0999 V2000
    2.8373   -0.9915    0.0000 O   0  0  0  0  0  0  0  0  0  0  0  0
    4.5201   -0.8019    0.0000 N   0  0  0  0  0  0  0  0  0  0  0  0
    2.4217    0.8294    0.0000 N   0  0  0  0  0  0  0  0  0  0  0  0
    4.0201    1.3888    0.0000 C   0  0  0  0  0  0  0  0  0  0  0  0
    5.0201    1.3888    0.0000 C   0  0  0  0  0  0  0  0  0  0  0  0
    3.3966    0.6069    0.0000 C   0  0  2  0  0  0  0  0  0  0  0  0
    5.6436    0.6069    0.0000 C   0  0  0  0  0  0  0  0  0  0  0  0
    5.4211   -0.3680    0.0000 C   0  0  0  0  0  0  0  0  0  0  0  0
    3.6192   -0.3680    0.0000 C   0  0  0  0  0  0  0  0  0  0  0  0
    4.1581    1.9932    0.0000 H   0  0  0  0  0  0  0  0  0  0  0  0
    3.4615    1.6578    0.0000 H   0  0  0  0  0  0  0  0  0  0  0  0
    5.5787    1.6578    0.0000 H   0  0  0  0  0  0  0  0  0  0  0  0
    4.8822    1.9932    0.0000 H   0  0  0  0  0  0  0  0  0  0  0  0
    3.1919    1.1921    0.0000 H   0  0  0  0  0  0  0  0  0  0  0  0
    6.2022    0.3379    0.0000 H   0  0  0  0  0  0  0  0  0  0  0  0
    6.0302    1.0916    0.0000 H   0  0  0  0  0  0  0  0  0  0  0  0
    5.5591   -0.9725    0.0000 H   0  0  0  0  0  0  0  0  0  0  0  0
    6.0411   -0.3680    0.0000 H   0  0  0  0  0  0  0  0  0  0  0  0
    4.5201   -1.4219    0.0000 H   0  0  0  0  0  0  0  0  0  0  0  0
    2.2390    1.4219    0.0000 H   0  0  0  0  0  0  0  0  0  0  0  0
    2.0000    0.3749    0.0000 H   0  0  0  0  0  0  0  0  0  0  0  0
  1  9  2  0  0  0  0
  2  8  1  0  0  0  0
  2  9  1  0  0  0  0
  2 19  1  0  0  0  0
  6  3  1  6  0  0  0
  3 20  1  0  0  0  0
  3 21  1  0  0  0  0
  4  5  1  0  0  0  0
  4  6  1  0  0  0  0
  4 10  1  0  0  0  0
  4 11  1  0  0  0  0
  5  7  1  0  0  0  0
  5 12  1  0  0  0  0
  5 13  1  0  0  0  0
  6  9  1  0  0  0  0
  6 14  1  0  0  0  0
  7  8  1  0  0  0  0
  7 15  1  0  0  0  0
  7 16  1  0  0  0  0
  8 17  1  0  0  0  0
  8 18  1  0  0  0  0
M  END
> <PUBCHEM_COMPOUND_CID>
439823

> <PUBCHEM_COMPOUND_CANONICALIZED>
1

> <PUBCHEM_CACTVS_COMPLEXITY>
114

> <PUBCHEM_CACTVS_HBOND_ACCEPTOR>
2

> <PUBCHEM_CACTVS_HBOND_DONOR>
2

> <PUBCHEM_CACTVS_ROTATABLE_BOND>
0

> <PUBCHEM_CACTVS_SUBSKEYS>
AAADccBjIAAAAAAAAAAAAAAAAAAAAAAAAAAAAAAABYAAAAAAAAAAHgAQAAAACCjBgAQAAALAAAAIAAEQEAAAAAAAAAAAAIGIAAAAQBIAgAAUAAAAFgCAAAEYCAAAAAAAAAAAAAAAAAAAAAAAAAAAAAAAAA==

> <PUBCHEM_IUPAC_OPENEYE_NAME>
(3R)-3-aminoazepan-2-one

> <PUBCHEM_IUPAC_CAS_NAME>
(3R)-3-amino-2-azepanone

> <PUBCHEM_IUPAC_NAME>
(3R)-3-aminoazepan-2-one

> <PUBCHEM_IUPAC_SYSTEMATIC_NAME>
(3R)-3-azanylazepan-2-one

> <PUBCHEM_IUPAC_TRADITIONAL_NAME>
(3R)-3-aminoazepan-2-one

> <PUBCHEM_IUPAC_INCHI>
InChI=1S/C6H12N2O/c7-5-3-1-2-4-8-6(5)9/h5H,1-4,7H2,(H,8,9)/t5-/m1/s1

> <PUBCHEM_IUPAC_INCHIKEY>
BOWUOGIPSRVRSJ-RXMQYKEDSA-N

> <PUBCHEM_XLOGP3_AA>
-0.5

> <PUBCHEM_EXACT_MASS>
128.094963

> <PUBCHEM_MOLECULAR_FORMULA>
C6H12N2O

> <PUBCHEM_MOLECULAR_WEIGHT>
128.17228

> <PUBCHEM_OPENEYE_CAN_SMILES>
C1CCNC(=O)C(C1)N

> <PUBCHEM_OPENEYE_ISO_SMILES>
C1CCNC(=O)[C@@H](C1)N

> <PUBCHEM_CACTVS_TPSA>
55.1

> <PUBCHEM_MONOISOTOPIC_WEIGHT>
128.094963

> <PUBCHEM_TOTAL_CHARGE>
0

> <PUBCHEM_HEAVY_ATOM_COUNT>
9

> <PUBCHEM_ATOM_DEF_STEREO_COUNT>
1

> <PUBCHEM_ATOM_UDEF_STEREO_COUNT>
0

> <PUBCHEM_BOND_DEF_STEREO_COUNT>
0

> <PUBCHEM_BOND_UDEF_STEREO_COUNT>
0

> <PUBCHEM_ISOTOPIC_ATOM_COUNT>
0

> <PUBCHEM_COMPONENT_COUNT>
1

> <PUBCHEM_CACTVS_TAUTO_COUNT>
5

> <PUBCHEM_COORDINATE_TYPE>
1
5
255

> <PUBCHEM_BONDANNOTATIONS>
6  3  6

$$$$

