   Color/Form
        White crystalline powder
   from [1]HSDB

   Octanol/Water Partition Coefficient
        log Kow = -1.07 (est)
   from [2]HSDB

   Solubilities
        Freely soluble in water
   from [3]HSDB

   Vapor Pressure
        1.96X10-8 mm Hg at 25 deg C (est)
   from [4]HSDB

   Other Chemical/Physical Properties

     * White solid from methanol/ether. Mp 160-161 deg C (dec).
       /Monohydrate/
     * Solubility in water: >9 g/100 ml, pKa1 <2.0; pKa2: 4.2; pKa3: 9.0;
       pKa4: 11.7 /Trihydrate/
     * Henry's Law constant = 7.26X10-20 atm-cu m/mol at 25 deg C (est)
     * Hydroxyl radical reaction rate constant = 1.41X10-14 cu
       cm/molec-sec at 25 deg C (est)

   from [5]HSDB

   Computed Properties
   Molecular Weight                  214.222962 [g/mol]
   Molecular Formula                 C[5]H[15]N[2]O[3]PS
   XLogP3-AA                         -4.5
   H-Bond Donor                      4
   H-Bond Acceptor                   6
   Rotatable Bond Count              7
   Exact Mass                        214.0541
   MonoIsotopic Mass                 214.0541
   Topological Polar Surface Area    121
   Heavy Atom Count                  12
   Formal Charge                     0
   Complexity                        152
   Isotope Atom Count                0
   Defined Atom Stereocenter Count   0
   Undefined Atom Stereocenter Count 0
   Defined Bond Stereocenter Count   0
   Undefined Bond Stereocenter Count 0
   Covalently-Bonded Unit Count      1
   Feature 3D Acceptor Count         3
   Feature 3D Donor Count            2
   Feature 3D Anion Count            1
   Feature 3D Cation Count           2
   Effective Rotor Count             7
   Conformer Sampling RMSD           0.8
   CID Conformer Count               [6]55

References

   1. http://toxnet.nlm.nih.gov/cgi-bin/sis/search/r?dbs+hsdb:@term+@rn+@rel+20537-88-6
   2. http://toxnet.nlm.nih.gov/cgi-bin/sis/search/r?dbs+hsdb:@term+@rn+@rel+20537-88-6
   3. http://toxnet.nlm.nih.gov/cgi-bin/sis/search/r?dbs+hsdb:@term+@rn+@rel+20537-88-6
   4. http://toxnet.nlm.nih.gov/cgi-bin/sis/search/r?dbs+hsdb:@term+@rn+@rel+20537-88-6
   5. http://toxnet.nlm.nih.gov/cgi-bin/sis/search/r?dbs+hsdb:@term+@rn+@rel+20537-88-6
   6. http://pubchem.ncbi.nlm.nih.gov/vw3d/vw3d.cgi?cid=2141
