440168
  -OEChem-07051212492D

 45 48  0     1  0  0  0  0  0999 V2000
    9.1857    2.7523    0.0000 O   0  0  0  0  0  0  0  0  0  0  0  0
    6.1847   -2.5722    0.0000 O   0  0  0  0  0  0  0  0  0  0  0  0
    2.5357   -1.5553    0.0000 O   0  0  0  0  0  0  0  0  0  0  0  0
    7.9288    1.4970    0.0000 C   0  0  1  0  0  0  0  0  0  0  0  0
    7.9288    0.4970    0.0000 C   0  0  2  0  0  0  0  0  0  0  0  0
    7.0628   -0.0030    0.0000 C   0  0  1  0  0  0  0  0  0  0  0  0
    6.1968    0.4970    0.0000 C   0  0  2  0  0  0  0  0  0  0  0  0
    8.8750    1.8018    0.0000 C   0  0  2  0  0  0  0  0  0  0  0  0
    7.0628    1.9970    0.0000 C   0  0  0  0  0  0  0  0  0  0  0  0
    8.8750    0.1923    0.0000 C   0  0  0  0  0  0  0  0  0  0  0  0
    6.1968    1.4970    0.0000 C   0  0  0  0  0  0  0  0  0  0  0  0
    9.4586    0.9970    0.0000 C   0  0  0  0  0  0  0  0  0  0  0  0
    7.0789   -1.0445    0.0000 C   0  0  0  0  0  0  0  0  0  0  0  0
    7.9288    2.4970    0.0000 C   0  0  0  0  0  0  0  0  0  0  0  0
    5.2868   -0.0098    0.0000 C   0  0  0  0  0  0  0  0  0  0  0  0
    6.1808   -1.5722    0.0000 C   0  0  2  0  0  0  0  0  0  0  0  0
    5.2787   -1.0514    0.0000 C   0  0  0  0  0  0  0  0  0  0  0  0
    4.3599    0.5543    0.0000 C   0  0  0  0  0  0  0  0  0  0  0  0
    4.3433   -1.6011    0.0000 C   0  0  0  0  0  0  0  0  0  0  0  0
    3.4120    0.0263    0.0000 C   0  0  0  0  0  0  0  0  0  0  0  0
    3.4037   -1.0586    0.0000 C   0  0  0  0  0  0  0  0  0  0  0  0
    8.0188   -0.3482    0.0000 H   0  0  0  0  0  0  0  0  0  0  0  0
    7.8022   -0.4223    0.0000 H   0  0  0  0  0  0  0  0  0  0  0  0
    6.9329    0.9220    0.0000 H   0  0  0  0  0  0  0  0  0  0  0  0
    9.4875    1.8980    0.0000 H   0  0  0  0  0  0  0  0  0  0  0  0
    7.4613    2.4720    0.0000 H   0  0  0  0  0  0  0  0  0  0  0  0
    6.6643    2.4720    0.0000 H   0  0  0  0  0  0  0  0  0  0  0  0
    8.6240   -0.3746    0.0000 H   0  0  0  0  0  0  0  0  0  0  0  0
    9.4124   -0.1169    0.0000 H   0  0  0  0  0  0  0  0  0  0  0  0
    5.9847    2.0796    0.0000 H   0  0  0  0  0  0  0  0  0  0  0  0
    5.5862    1.3894    0.0000 H   0  0  0  0  0  0  0  0  0  0  0  0
    9.9195    0.5823    0.0000 H   0  0  0  0  0  0  0  0  0  0  0  0
    9.9195    1.4118    0.0000 H   0  0  0  0  0  0  0  0  0  0  0  0
    7.2969   -1.6249    0.0000 H   0  0  0  0  0  0  0  0  0  0  0  0
    7.6880   -0.9290    0.0000 H   0  0  0  0  0  0  0  0  0  0  0  0
    8.5488    2.4970    0.0000 H   0  0  0  0  0  0  0  0  0  0  0  0
    7.9288    3.1170    0.0000 H   0  0  0  0  0  0  0  0  0  0  0  0
    7.3088    2.4970    0.0000 H   0  0  0  0  0  0  0  0  0  0  0  0
    6.7195   -1.8791    0.0000 H   0  0  0  0  0  0  0  0  0  0  0  0
    9.7924    2.8802    0.0000 H   0  0  0  0  0  0  0  0  0  0  0  0
    4.3719    1.1742    0.0000 H   0  0  0  0  0  0  0  0  0  0  0  0
    4.3457   -2.2211    0.0000 H   0  0  0  0  0  0  0  0  0  0  0  0
    6.7228   -2.8802    0.0000 H   0  0  0  0  0  0  0  0  0  0  0  0
    2.8787    0.3425    0.0000 H   0  0  0  0  0  0  0  0  0  0  0  0
    2.0000   -1.2432    0.0000 H   0  0  0  0  0  0  0  0  0  0  0  0
  8  1  1  1  0  0  0
  1 40  1  0  0  0  0
 16  2  1  1  0  0  0
  2 43  1  0  0  0  0
  3 21  1  0  0  0  0
  3 45  1  0  0  0  0
  4  5  1  0  0  0  0
  4  8  1  0  0  0  0
  4  9  1  0  0  0  0
  4 14  1  1  0  0  0
  5  6  1  0  0  0  0
  5 10  1  0  0  0  0
  5 22  1  6  0  0  0
  6  7  1  0  0  0  0
  6 13  1  0  0  0  0
  6 23  1  1  0  0  0
  7 11  1  0  0  0  0
  7 15  1  0  0  0  0
  7 24  1  6  0  0  0
  8 12  1  0  0  0  0
  8 25  1  0  0  0  0
  9 11  1  0  0  0  0
  9 26  1  0  0  0  0
  9 27  1  0  0  0  0
 10 12  1  0  0  0  0
 10 28  1  0  0  0  0
 10 29  1  0  0  0  0
 11 30  1  0  0  0  0
 11 31  1  0  0  0  0
 12 32  1  0  0  0  0
 12 33  1  0  0  0  0
 13 16  1  0  0  0  0
 13 34  1  0  0  0  0
 13 35  1  0  0  0  0
 14 36  1  0  0  0  0
 14 37  1  0  0  0  0
 14 38  1  0  0  0  0
 15 17  2  0  0  0  0
 15 18  1  0  0  0  0
 16 17  1  0  0  0  0
 16 39  1  0  0  0  0
 17 19  1  0  0  0  0
 18 20  2  0  0  0  0
 18 41  1  0  0  0  0
 19 21  2  0  0  0  0
 19 42  1  0  0  0  0
 20 21  1  0  0  0  0
 20 44  1  0  0  0  0
M  END
> <PUBCHEM_COMPOUND_CID>
440168

> <PUBCHEM_COMPOUND_CANONICALIZED>
1

> <PUBCHEM_CACTVS_COMPLEXITY>
411

> <PUBCHEM_CACTVS_HBOND_ACCEPTOR>
3

> <PUBCHEM_CACTVS_HBOND_DONOR>
3

> <PUBCHEM_CACTVS_ROTATABLE_BOND>
0

> <PUBCHEM_CACTVS_SUBSKEYS>
AAADceB4MAAAAAAAAAAAAAAAAAAAAYAAAAAwYMAAAAAAAGDBAAAAGgAACAAADxSgmAIyBoAAAgCAAiBCAAACAAAgIAAIiAAGCIgINiKCERKAcAAkwBEImAfAwPAPoAABAAAQAADAAAYAADAAAIAADAAAAA==

> <PUBCHEM_IUPAC_OPENEYE_NAME>
(6R,8R,9S,13S,14S,17S)-13-methyl-6,7,8,9,11,12,14,15,16,17-decahydrocyclopenta[a]phenanthrene-3,6,17-triol

> <PUBCHEM_IUPAC_CAS_NAME>
(6R,8R,9S,13S,14S,17S)-13-methyl-6,7,8,9,11,12,14,15,16,17-decahydrocyclopenta[a]phenanthrene-3,6,17-triol

> <PUBCHEM_IUPAC_NAME>
(6R,8R,9S,13S,14S,17S)-13-methyl-6,7,8,9,11,12,14,15,16,17-decahydrocyclopenta[a]phenanthrene-3,6,17-triol

> <PUBCHEM_IUPAC_SYSTEMATIC_NAME>
(6R,8R,9S,13S,14S,17S)-13-methyl-6,7,8,9,11,12,14,15,16,17-decahydrocyclopenta[a]phenanthrene-3,6,17-triol

> <PUBCHEM_IUPAC_TRADITIONAL_NAME>
(6R,8R,9S,13S,14S,17S)-13-methyl-6,7,8,9,11,12,14,15,16,17-decahydrocyclopenta[a]phenanthrene-3,6,17-triol

> <PUBCHEM_IUPAC_INCHI>
InChI=1S/C18H24O3/c1-18-7-6-12-11-3-2-10(19)8-14(11)16(20)9-13(12)15(18)4-5-17(18)21/h2-3,8,12-13,15-17,19-21H,4-7,9H2,1H3/t12-,13-,15+,16-,17+,18+/m1/s1

> <PUBCHEM_IUPAC_INCHIKEY>
QZZRQURPSRWTLG-UXCAXZQLSA-N

> <PUBCHEM_XLOGP3>
2.7

> <PUBCHEM_EXACT_MASS>
288.172545

> <PUBCHEM_MOLECULAR_FORMULA>
C18H24O3

> <PUBCHEM_MOLECULAR_WEIGHT>
288.38136

> <PUBCHEM_OPENEYE_CAN_SMILES>
CC12CCC3C(C1CCC2O)CC(C4=C3C=CC(=C4)O)O

> <PUBCHEM_OPENEYE_ISO_SMILES>
C[C@]12CC[C@H]3[C@H]([C@@H]1CC[C@@H]2O)C[C@H](C4=C3C=CC(=C4)O)O

> <PUBCHEM_CACTVS_TPSA>
60.7

> <PUBCHEM_MONOISOTOPIC_WEIGHT>
288.172545

> <PUBCHEM_TOTAL_CHARGE>
0

> <PUBCHEM_HEAVY_ATOM_COUNT>
21

> <PUBCHEM_ATOM_DEF_STEREO_COUNT>
6

> <PUBCHEM_ATOM_UDEF_STEREO_COUNT>
0

> <PUBCHEM_BOND_DEF_STEREO_COUNT>
0

> <PUBCHEM_BOND_UDEF_STEREO_COUNT>
0

> <PUBCHEM_ISOTOPIC_ATOM_COUNT>
0

> <PUBCHEM_COMPONENT_COUNT>
1

> <PUBCHEM_CACTVS_TAUTO_COUNT>
3

> <PUBCHEM_COORDINATE_TYPE>
1
5
255

> <PUBCHEM_BONDANNOTATIONS>
8  1  5
15  17  8
15  18  8
17  19  8
18  20  8
19  21  8
16  2  5
20  21  8
4  14  5
5  22  6
6  23  5
7  24  6

$$$$

