5282272
  -OEChem-07051213042D

 64 63  0     0  0  0  0  0  0999 V2000
    5.1350    2.1550    0.0000 O   0  0  0  0  0  0  0  0  0  0  0  0
    2.5369    4.6550    0.0000 O   0  0  0  0  0  0  0  0  0  0  0  0
    3.4030    2.1550    0.0000 N   0  0  0  0  0  0  0  0  0  0  0  0
    5.1350   -0.8450    0.0000 C   0  0  0  0  0  0  0  0  0  0  0  0
    6.0010   -1.3450    0.0000 C   0  0  0  0  0  0  0  0  0  0  0  0
    5.1350    0.1550    0.0000 C   0  0  0  0  0  0  0  0  0  0  0  0
    6.0010   -2.3450    0.0000 C   0  0  0  0  0  0  0  0  0  0  0  0
    6.8671   -2.8450    0.0000 C   0  0  0  0  0  0  0  0  0  0  0  0
    4.2690    0.6550    0.0000 C   0  0  0  0  0  0  0  0  0  0  0  0
   10.3312    0.1550    0.0000 C   0  0  0  0  0  0  0  0  0  0  0  0
    9.4651    0.6550    0.0000 C   0  0  0  0  0  0  0  0  0  0  0  0
    6.8671   -3.8450    0.0000 C   0  0  0  0  0  0  0  0  0  0  0  0
    4.2690    1.6550    0.0000 C   0  0  0  0  0  0  0  0  0  0  0  0
   10.3312   -0.8450    0.0000 C   0  0  0  0  0  0  0  0  0  0  0  0
    9.4651    1.6550    0.0000 C   0  0  0  0  0  0  0  0  0  0  0  0
    7.7331   -4.3450    0.0000 C   0  0  0  0  0  0  0  0  0  0  0  0
   11.1972   -1.3450    0.0000 C   0  0  0  0  0  0  0  0  0  0  0  0
    8.5991   -3.8450    0.0000 C   0  0  0  0  0  0  0  0  0  0  0  0
    8.5991    2.1550    0.0000 C   0  0  0  0  0  0  0  0  0  0  0  0
    3.4030    3.1550    0.0000 C   0  0  0  0  0  0  0  0  0  0  0  0
   11.1972   -2.3450    0.0000 C   0  0  0  0  0  0  0  0  0  0  0  0
   10.3312   -2.8450    0.0000 C   0  0  0  0  0  0  0  0  0  0  0  0
    9.4651   -4.3450    0.0000 C   0  0  0  0  0  0  0  0  0  0  0  0
   10.3312   -3.8450    0.0000 C   0  0  0  0  0  0  0  0  0  0  0  0
    2.5369    3.6550    0.0000 C   0  0  0  0  0  0  0  0  0  0  0  0
    4.5244   -0.7373    0.0000 H   0  0  0  0  0  0  0  0  0  0  0  0
    4.9230   -1.4276    0.0000 H   0  0  0  0  0  0  0  0  0  0  0  0
    6.6116   -1.4527    0.0000 H   0  0  0  0  0  0  0  0  0  0  0  0
    6.2131   -0.7624    0.0000 H   0  0  0  0  0  0  0  0  0  0  0  0
    5.7456    0.0473    0.0000 H   0  0  0  0  0  0  0  0  0  0  0  0
    5.3471    0.7376    0.0000 H   0  0  0  0  0  0  0  0  0  0  0  0
    5.3905   -2.2373    0.0000 H   0  0  0  0  0  0  0  0  0  0  0  0
    5.7890   -2.9276    0.0000 H   0  0  0  0  0  0  0  0  0  0  0  0
    7.4776   -2.9527    0.0000 H   0  0  0  0  0  0  0  0  0  0  0  0
    7.0791   -2.2624    0.0000 H   0  0  0  0  0  0  0  0  0  0  0  0
    3.6584    0.7627    0.0000 H   0  0  0  0  0  0  0  0  0  0  0  0
    4.0569    0.0724    0.0000 H   0  0  0  0  0  0  0  0  0  0  0  0
   10.9417    0.0473    0.0000 H   0  0  0  0  0  0  0  0  0  0  0  0
   10.5432    0.7376    0.0000 H   0  0  0  0  0  0  0  0  0  0  0  0
    8.8546    0.7627    0.0000 H   0  0  0  0  0  0  0  0  0  0  0  0
    9.2531    0.0724    0.0000 H   0  0  0  0  0  0  0  0  0  0  0  0
    6.3301   -4.1550    0.0000 H   0  0  0  0  0  0  0  0  0  0  0  0
    9.7206   -0.7373    0.0000 H   0  0  0  0  0  0  0  0  0  0  0  0
   10.1191   -1.4276    0.0000 H   0  0  0  0  0  0  0  0  0  0  0  0
   10.0757    1.5473    0.0000 H   0  0  0  0  0  0  0  0  0  0  0  0
    9.6772    2.2376    0.0000 H   0  0  0  0  0  0  0  0  0  0  0  0
    7.7331   -4.9650    0.0000 H   0  0  0  0  0  0  0  0  0  0  0  0
    2.8660    1.8450    0.0000 H   0  0  0  0  0  0  0  0  0  0  0  0
   11.7341   -1.0350    0.0000 H   0  0  0  0  0  0  0  0  0  0  0  0
    8.9976   -3.3700    0.0000 H   0  0  0  0  0  0  0  0  0  0  0  0
    8.2006   -3.3700    0.0000 H   0  0  0  0  0  0  0  0  0  0  0  0
    8.9091    2.6919    0.0000 H   0  0  0  0  0  0  0  0  0  0  0  0
    8.0622    2.4650    0.0000 H   0  0  0  0  0  0  0  0  0  0  0  0
    8.2891    1.6181    0.0000 H   0  0  0  0  0  0  0  0  0  0  0  0
    4.0135    3.0473    0.0000 H   0  0  0  0  0  0  0  0  0  0  0  0
    3.6150    3.7376    0.0000 H   0  0  0  0  0  0  0  0  0  0  0  0
   11.7341   -2.6550    0.0000 H   0  0  0  0  0  0  0  0  0  0  0  0
   10.1191   -2.2624    0.0000 H   0  0  0  0  0  0  0  0  0  0  0  0
    9.7206   -2.9527    0.0000 H   0  0  0  0  0  0  0  0  0  0  0  0
    9.4651   -4.9650    0.0000 H   0  0  0  0  0  0  0  0  0  0  0  0
   10.8681   -4.1550    0.0000 H   0  0  0  0  0  0  0  0  0  0  0  0
    1.9264    3.7627    0.0000 H   0  0  0  0  0  0  0  0  0  0  0  0
    2.3249    3.0724    0.0000 H   0  0  0  0  0  0  0  0  0  0  0  0
    2.0000    4.9650    0.0000 H   0  0  0  0  0  0  0  0  0  0  0  0
  1 13  2  0  0  0  0
  2 25  1  0  0  0  0
  2 64  1  0  0  0  0
  3 13  1  0  0  0  0
  3 20  1  0  0  0  0
  3 48  1  0  0  0  0
  4  5  1  0  0  0  0
  4  6  1  0  0  0  0
  4 26  1  0  0  0  0
  4 27  1  0  0  0  0
  5  7  1  0  0  0  0
  5 28  1  0  0  0  0
  5 29  1  0  0  0  0
  6  9  1  0  0  0  0
  6 30  1  0  0  0  0
  6 31  1  0  0  0  0
  7  8  1  0  0  0  0
  7 32  1  0  0  0  0
  7 33  1  0  0  0  0
  8 12  1  0  0  0  0
  8 34  1  0  0  0  0
  8 35  1  0  0  0  0
  9 13  1  0  0  0  0
  9 36  1  0  0  0  0
  9 37  1  0  0  0  0
 10 11  1  0  0  0  0
 10 14  1  0  0  0  0
 10 38  1  0  0  0  0
 10 39  1  0  0  0  0
 11 15  1  0  0  0  0
 11 40  1  0  0  0  0
 11 41  1  0  0  0  0
 12 16  2  0  0  0  0
 12 42  1  0  0  0  0
 14 17  1  0  0  0  0
 14 43  1  0  0  0  0
 14 44  1  0  0  0  0
 15 19  1  0  0  0  0
 15 45  1  0  0  0  0
 15 46  1  0  0  0  0
 16 18  1  0  0  0  0
 16 47  1  0  0  0  0
 17 21  2  0  0  0  0
 17 49  1  0  0  0  0
 18 23  1  0  0  0  0
 18 50  1  0  0  0  0
 18 51  1  0  0  0  0
 19 52  1  0  0  0  0
 19 53  1  0  0  0  0
 19 54  1  0  0  0  0
 20 25  1  0  0  0  0
 20 55  1  0  0  0  0
 20 56  1  0  0  0  0
 21 22  1  0  0  0  0
 21 57  1  0  0  0  0
 22 24  1  0  0  0  0
 22 58  1  0  0  0  0
 22 59  1  0  0  0  0
 23 24  2  0  0  0  0
 23 60  1  0  0  0  0
 24 61  1  0  0  0  0
 25 62  1  0  0  0  0
 25 63  1  0  0  0  0
M  END
> <PUBCHEM_COMPOUND_CID>
5282272

> <PUBCHEM_COMPOUND_CANONICALIZED>
1

> <PUBCHEM_CACTVS_COMPLEXITY>
372

> <PUBCHEM_CACTVS_HBOND_ACCEPTOR>
2

> <PUBCHEM_CACTVS_HBOND_DONOR>
2

> <PUBCHEM_CACTVS_ROTATABLE_BOND>
17

> <PUBCHEM_CACTVS_SUBSKEYS>
AAADcfB6MAAAAAAAAAAAAAAAAAAAAAAAAAAAAAAAAAAAAAAAAAAAHgAQCAAACADhgAYCAALAAgCIACFSEAAAAAAgAAAICIEIAAgCEBIAgQAEAAAAlgCYAAMYiICAAAAAAAAAAAAAAAAAAAAAAAAAAAAAAA==

> <PUBCHEM_IUPAC_OPENEYE_NAME>
(8Z,11Z,14Z)-N-(2-hydroxyethyl)icosa-8,11,14-trienamide

> <PUBCHEM_IUPAC_CAS_NAME>
(8Z,11Z,14Z)-N-(2-hydroxyethyl)eicosa-8,11,14-trienamide

> <PUBCHEM_IUPAC_NAME>
(8Z,11Z,14Z)-N-(2-hydroxyethyl)icosa-8,11,14-trienamide

> <PUBCHEM_IUPAC_SYSTEMATIC_NAME>
(8Z,11Z,14Z)-N-(2-hydroxyethyl)icosa-8,11,14-trienamide

> <PUBCHEM_IUPAC_TRADITIONAL_NAME>
(8Z,11Z,14Z)-N-(2-hydroxyethyl)eicosa-8,11,14-trienamide

> <PUBCHEM_IUPAC_INCHI>
InChI=1S/C22H39NO2/c1-2-3-4-5-6-7-8-9-10-11-12-13-14-15-16-17-18-19-22(25)23-20-21-24/h6-7,9-10,12-13,24H,2-5,8,11,14-21H2,1H3,(H,23,25)/b7-6-,10-9-,13-12-

> <PUBCHEM_IUPAC_INCHIKEY>
ULQWKETUACYZLI-QNEBEIHSSA-N

> <PUBCHEM_XLOGP3_AA>
6

> <PUBCHEM_EXACT_MASS>
349.298079

> <PUBCHEM_MOLECULAR_FORMULA>
C22H39NO2

> <PUBCHEM_MOLECULAR_WEIGHT>
349.55056

> <PUBCHEM_OPENEYE_CAN_SMILES>
CCCCCC=CCC=CCC=CCCCCCCC(=O)NCCO

> <PUBCHEM_OPENEYE_ISO_SMILES>
CCCCC/C=C\C/C=C\C/C=C\CCCCCCC(=O)NCCO

> <PUBCHEM_CACTVS_TPSA>
49.3

> <PUBCHEM_MONOISOTOPIC_WEIGHT>
349.298079

> <PUBCHEM_TOTAL_CHARGE>
0

> <PUBCHEM_HEAVY_ATOM_COUNT>
25

> <PUBCHEM_ATOM_DEF_STEREO_COUNT>
0

> <PUBCHEM_ATOM_UDEF_STEREO_COUNT>
0

> <PUBCHEM_BOND_DEF_STEREO_COUNT>
3

> <PUBCHEM_BOND_UDEF_STEREO_COUNT>
0

> <PUBCHEM_ISOTOPIC_ATOM_COUNT>
0

> <PUBCHEM_COMPONENT_COUNT>
1

> <PUBCHEM_CACTVS_TAUTO_COUNT>
2

> <PUBCHEM_COORDINATE_TYPE>
1
5
255

$$$$

