12864
  -OEChem-06261207282D

 32 33  0     0  0  0  0  0  0999 V2000
    5.2788   -2.1316    0.0000 O   0  0  0  0  0  0  0  0  0  0  0  0
    7.3479    0.7162    0.0000 O   0  0  0  0  0  0  0  0  0  0  0  0
    4.3006    1.5964    0.0000 O   0  0  0  0  0  0  0  0  0  0  0  0
    5.5878    0.4374    0.0000 N   0  0  0  0  0  0  0  0  0  0  0  0
    6.5388   -0.8716    0.0000 N   0  0  0  0  0  0  0  0  0  0  0  0
    5.0000   -0.3716    0.0000 C   0  0  0  0  0  0  0  0  0  0  0  0
    4.5000   -1.2376    0.0000 C   0  0  0  0  0  0  0  0  0  0  0  0
    4.5000    0.4945    0.0000 C   0  0  0  0  0  0  0  0  0  0  0  0
    3.0000   -0.3716    0.0000 C   0  0  0  0  0  0  0  0  0  0  0  0
    3.5000   -1.2376    0.0000 C   0  0  0  0  0  0  0  0  0  0  0  0
    3.5000    0.4945    0.0000 C   0  0  0  0  0  0  0  0  0  0  0  0
    5.5878   -1.1806    0.0000 C   0  0  0  0  0  0  0  0  0  0  0  0
    2.0000   -0.3716    0.0000 C   0  0  0  0  0  0  0  0  0  0  0  0
    6.5388    0.1284    0.0000 C   0  0  0  0  0  0  0  0  0  0  0  0
    5.2788    1.3885    0.0000 C   0  0  0  0  0  0  0  0  0  0  0  0
    5.9479    2.1316    0.0000 C   0  0  0  0  0  0  0  0  0  0  0  0
    4.3923   -1.8482    0.0000 H   0  0  0  0  0  0  0  0  0  0  0  0
    5.0826   -1.4497    0.0000 H   0  0  0  0  0  0  0  0  0  0  0  0
    5.0826    0.7065    0.0000 H   0  0  0  0  0  0  0  0  0  0  0  0
    4.3923    1.1050    0.0000 H   0  0  0  0  0  0  0  0  0  0  0  0
    2.6900    0.1654    0.0000 H   0  0  0  0  0  0  0  0  0  0  0  0
    2.9174   -1.4497    0.0000 H   0  0  0  0  0  0  0  0  0  0  0  0
    3.6077   -1.8482    0.0000 H   0  0  0  0  0  0  0  0  0  0  0  0
    3.6077    1.1050    0.0000 H   0  0  0  0  0  0  0  0  0  0  0  0
    2.9174    0.7065    0.0000 H   0  0  0  0  0  0  0  0  0  0  0  0
    2.0000    0.2484    0.0000 H   0  0  0  0  0  0  0  0  0  0  0  0
    1.3800   -0.3716    0.0000 H   0  0  0  0  0  0  0  0  0  0  0  0
    2.0000   -0.9916    0.0000 H   0  0  0  0  0  0  0  0  0  0  0  0
    7.0404   -1.2360    0.0000 H   0  0  0  0  0  0  0  0  0  0  0  0
    6.4086    1.7168    0.0000 H   0  0  0  0  0  0  0  0  0  0  0  0
    6.3628    2.5924    0.0000 H   0  0  0  0  0  0  0  0  0  0  0  0
    5.4872    2.5465    0.0000 H   0  0  0  0  0  0  0  0  0  0  0  0
  1 12  2  0  0  0  0
  2 14  2  0  0  0  0
  3 15  2  0  0  0  0
  4  6  1  0  0  0  0
  4 14  1  0  0  0  0
  4 15  1  0  0  0  0
  5 12  1  0  0  0  0
  5 14  1  0  0  0  0
  5 29  1  0  0  0  0
  6  7  1  0  0  0  0
  6  8  1  0  0  0  0
  6 12  1  0  0  0  0
  7 10  1  0  0  0  0
  7 17  1  0  0  0  0
  7 18  1  0  0  0  0
  8 11  1  0  0  0  0
  8 19  1  0  0  0  0
  8 20  1  0  0  0  0
  9 10  1  0  0  0  0
  9 11  1  0  0  0  0
  9 13  1  0  0  0  0
  9 21  1  0  0  0  0
 10 22  1  0  0  0  0
 10 23  1  0  0  0  0
 11 24  1  0  0  0  0
 11 25  1  0  0  0  0
 13 26  1  0  0  0  0
 13 27  1  0  0  0  0
 13 28  1  0  0  0  0
 15 16  1  0  0  0  0
 16 30  1  0  0  0  0
 16 31  1  0  0  0  0
 16 32  1  0  0  0  0
M  END
> <PUBCHEM_COMPOUND_CID>
12864

> <PUBCHEM_COMPOUND_CANONICALIZED>
1

> <PUBCHEM_CACTVS_COMPLEXITY>
356

> <PUBCHEM_CACTVS_HBOND_ACCEPTOR>
3

> <PUBCHEM_CACTVS_HBOND_DONOR>
1

> <PUBCHEM_CACTVS_ROTATABLE_BOND>
0

> <PUBCHEM_CACTVS_SUBSKEYS>
AAADceBzMAAAAAAAAAAAAAAAAAAAAWAAAAAwAAAAAAAAAAAAAAAAHgAQAAAADYiBgAADAAPAAAAIAAEQEAAAAAAAAAAAAAGAAACAQBIAgCAUAAAIBSKAAAEYiACOAAAAAAAAAACQAAAAAAAAAAAAAAAAAA==

> <PUBCHEM_IUPAC_OPENEYE_NAME>
1-acetyl-8-methyl-1,3-diazaspiro[4.5]decane-2,4-dione

> <PUBCHEM_IUPAC_CAS_NAME>
1-acetyl-8-methyl-1,3-diazaspiro[4.5]decane-2,4-dione

> <PUBCHEM_IUPAC_NAME>
1-acetyl-8-methyl-1,3-diazaspiro[4.5]decane-2,4-dione

> <PUBCHEM_IUPAC_SYSTEMATIC_NAME>
1-ethanoyl-8-methyl-1,3-diazaspiro[4.5]decane-2,4-dione

> <PUBCHEM_IUPAC_TRADITIONAL_NAME>
1-acetyl-8-methyl-1,3-diazaspiro[4.5]decane-2,4-quinone

> <PUBCHEM_IUPAC_INCHI>
InChI=1S/C11H16N2O3/c1-7-3-5-11(6-4-7)9(15)12-10(16)13(11)8(2)14/h7H,3-6H2,1-2H3,(H,12,15,16)

> <PUBCHEM_IUPAC_INCHIKEY>
RATQQGPZRABTFW-UHFFFAOYSA-N

> <PUBCHEM_XLOGP3_AA>
0.8

> <PUBCHEM_EXACT_MASS>
224.116092

> <PUBCHEM_MOLECULAR_FORMULA>
C11H16N2O3

> <PUBCHEM_MOLECULAR_WEIGHT>
224.25634

> <PUBCHEM_OPENEYE_CAN_SMILES>
CC1CCC2(CC1)C(=O)NC(=O)N2C(=O)C

> <PUBCHEM_OPENEYE_ISO_SMILES>
CC1CCC2(CC1)C(=O)NC(=O)N2C(=O)C

> <PUBCHEM_CACTVS_TPSA>
66.5

> <PUBCHEM_MONOISOTOPIC_WEIGHT>
224.116092

> <PUBCHEM_TOTAL_CHARGE>
0

> <PUBCHEM_HEAVY_ATOM_COUNT>
16

> <PUBCHEM_ATOM_DEF_STEREO_COUNT>
0

> <PUBCHEM_ATOM_UDEF_STEREO_COUNT>
0

> <PUBCHEM_BOND_DEF_STEREO_COUNT>
0

> <PUBCHEM_BOND_UDEF_STEREO_COUNT>
0

> <PUBCHEM_ISOTOPIC_ATOM_COUNT>
0

> <PUBCHEM_COMPONENT_COUNT>
1

> <PUBCHEM_CACTVS_TAUTO_COUNT>
3

> <PUBCHEM_COORDINATE_TYPE>
1
5
255

$$$$

