13105
  -OEChem-06261207462D

 38 41  0     0  0  0  0  0  0999 V2000
    6.1626   -0.9115    0.0000 N   0  0  0  0  0  0  0  0  0  0  0  0
    3.6688    2.0602    0.0000 N   0  0  0  0  0  0  0  0  0  0  0  0
    3.9696    0.3545    0.0000 C   0  0  0  0  0  0  0  0  0  0  0  0
    4.9544    0.5281    0.0000 C   0  0  0  0  0  0  0  0  0  0  0  0
    3.6276   -0.5852    0.0000 C   0  0  0  0  0  0  0  0  0  0  0  0
    5.8205    0.0281    0.0000 C   0  0  0  0  0  0  0  0  0  0  0  0
    6.6865    0.5281    0.0000 C   0  0  0  0  0  0  0  0  0  0  0  0
    2.6428   -0.7589    0.0000 C   0  0  0  0  0  0  0  0  0  0  0  0
    3.3269    1.1206    0.0000 C   0  0  0  0  0  0  0  0  0  0  0  0
    6.6865    1.5281    0.0000 C   0  0  0  0  0  0  0  0  0  0  0  0
    4.9544    1.5281    0.0000 C   0  0  0  0  0  0  0  0  0  0  0  0
    5.8205    2.0281    0.0000 C   0  0  0  0  0  0  0  0  0  0  0  0
    2.0000    0.0072    0.0000 C   0  0  0  0  0  0  0  0  0  0  0  0
    2.3420    0.9470    0.0000 C   0  0  0  0  0  0  0  0  0  0  0  0
    4.3094   -1.3727    0.0000 C   0  0  0  0  0  0  0  0  0  0  0  0
    7.5804   -0.0065    0.0000 C   0  0  0  0  0  0  0  0  0  0  0  0
    2.2715   -1.7321    0.0000 C   0  0  0  0  0  0  0  0  0  0  0  0
    7.5804    2.0628    0.0000 C   0  0  0  0  0  0  0  0  0  0  0  0
    3.9607   -2.3542    0.0000 C   0  0  0  0  0  0  0  0  0  0  0  0
    2.9349   -2.5352    0.0000 C   0  0  0  0  0  0  0  0  0  0  0  0
    8.4865    0.5073    0.0000 C   0  0  0  0  0  0  0  0  0  0  0  0
    8.4865    1.5490    0.0000 C   0  0  0  0  0  0  0  0  0  0  0  0
    4.4175    1.8381    0.0000 H   0  0  0  0  0  0  0  0  0  0  0  0
    5.8205    2.6481    0.0000 H   0  0  0  0  0  0  0  0  0  0  0  0
    1.3894   -0.1004    0.0000 H   0  0  0  0  0  0  0  0  0  0  0  0
    1.9435    1.4219    0.0000 H   0  0  0  0  0  0  0  0  0  0  0  0
    4.9187   -1.2580    0.0000 H   0  0  0  0  0  0  0  0  0  0  0  0
    7.5732   -0.6265    0.0000 H   0  0  0  0  0  0  0  0  0  0  0  0
    1.6597   -1.8327    0.0000 H   0  0  0  0  0  0  0  0  0  0  0  0
    7.5732    2.6828    0.0000 H   0  0  0  0  0  0  0  0  0  0  0  0
    4.3610   -2.8277    0.0000 H   0  0  0  0  0  0  0  0  0  0  0  0
    6.7731   -1.0192    0.0000 H   0  0  0  0  0  0  0  0  0  0  0  0
    5.7640   -1.3865    0.0000 H   0  0  0  0  0  0  0  0  0  0  0  0
    2.7206   -3.1170    0.0000 H   0  0  0  0  0  0  0  0  0  0  0  0
    9.0222    0.1953    0.0000 H   0  0  0  0  0  0  0  0  0  0  0  0
    9.0222    1.8610    0.0000 H   0  0  0  0  0  0  0  0  0  0  0  0
    3.2703    2.5352    0.0000 H   0  0  0  0  0  0  0  0  0  0  0  0
    4.2794    2.1679    0.0000 H   0  0  0  0  0  0  0  0  0  0  0  0
  1  6  1  0  0  0  0
  1 32  1  0  0  0  0
  1 33  1  0  0  0  0
  2  9  1  0  0  0  0
  2 37  1  0  0  0  0
  2 38  1  0  0  0  0
  3  4  1  0  0  0  0
  3  5  1  0  0  0  0
  3  9  2  0  0  0  0
  4  6  2  0  0  0  0
  4 11  1  0  0  0  0
  5  8  1  0  0  0  0
  5 15  2  0  0  0  0
  6  7  1  0  0  0  0
  7 10  1  0  0  0  0
  7 16  2  0  0  0  0
  8 13  1  0  0  0  0
  8 17  2  0  0  0  0
  9 14  1  0  0  0  0
 10 12  1  0  0  0  0
 10 18  2  0  0  0  0
 11 12  2  0  0  0  0
 11 23  1  0  0  0  0
 12 24  1  0  0  0  0
 13 14  2  0  0  0  0
 13 25  1  0  0  0  0
 14 26  1  0  0  0  0
 15 19  1  0  0  0  0
 15 27  1  0  0  0  0
 16 21  1  0  0  0  0
 16 28  1  0  0  0  0
 17 20  1  0  0  0  0
 17 29  1  0  0  0  0
 18 22  1  0  0  0  0
 18 30  1  0  0  0  0
 19 20  2  0  0  0  0
 19 31  1  0  0  0  0
 20 34  1  0  0  0  0
 21 22  2  0  0  0  0
 21 35  1  0  0  0  0
 22 36  1  0  0  0  0
M  END
> <PUBCHEM_COMPOUND_CID>
13105

> <PUBCHEM_COMPOUND_CANONICALIZED>
1

> <PUBCHEM_CACTVS_COMPLEXITY>
382

> <PUBCHEM_CACTVS_HBOND_ACCEPTOR>
2

> <PUBCHEM_CACTVS_HBOND_DONOR>
2

> <PUBCHEM_CACTVS_ROTATABLE_BOND>
1

> <PUBCHEM_CACTVS_SUBSKEYS>
AAADceB7AAAAAAAAAAAAAAAAAAAAAAAAAAAwYMGAAAAAAADBVAAAHAAQAAAADAiBGAAwwMBAAACAAiRCQACCAAAgAgAIiAAAZIgIICKAkZGAIABgkAAIyAcQgMAOyAACQAASAACQAASAACQAAAAAAAAAAA==

> <PUBCHEM_IUPAC_OPENEYE_NAME>
1-(1-amino-2-naphthyl)naphthalen-2-amine

> <PUBCHEM_IUPAC_CAS_NAME>
1-(1-amino-2-naphthalenyl)-2-naphthalenamine

> <PUBCHEM_IUPAC_NAME>
1-(1-aminonaphthalen-2-yl)naphthalen-2-amine

> <PUBCHEM_IUPAC_SYSTEMATIC_NAME>
1-(1-azanylnaphthalen-2-yl)naphthalen-2-amine

> <PUBCHEM_IUPAC_TRADITIONAL_NAME>
[1-(1-amino-2-naphthyl)-2-naphthyl]amine

> <PUBCHEM_IUPAC_INCHI>
InChI=1S/C20H16N2/c21-18-12-10-13-5-1-3-7-15(13)19(18)17-11-9-14-6-2-4-8-16(14)20(17)22/h1-12H,21-22H2

> <PUBCHEM_IUPAC_INCHIKEY>
YGXXZEGNXIPOQV-UHFFFAOYSA-N

> <PUBCHEM_XLOGP3_AA>
4.7

> <PUBCHEM_EXACT_MASS>
284.131349

> <PUBCHEM_MOLECULAR_FORMULA>
C20H16N2

> <PUBCHEM_MOLECULAR_WEIGHT>
284.35444

> <PUBCHEM_OPENEYE_CAN_SMILES>
C1=CC=C2C(=C1)C=CC(=C2C3=C(C4=CC=CC=C4C=C3)N)N

> <PUBCHEM_OPENEYE_ISO_SMILES>
C1=CC=C2C(=C1)C=CC(=C2C3=C(C4=CC=CC=C4C=C3)N)N

> <PUBCHEM_CACTVS_TPSA>
52

> <PUBCHEM_MONOISOTOPIC_WEIGHT>
284.131349

> <PUBCHEM_TOTAL_CHARGE>
0

> <PUBCHEM_HEAVY_ATOM_COUNT>
22

> <PUBCHEM_ATOM_DEF_STEREO_COUNT>
0

> <PUBCHEM_ATOM_UDEF_STEREO_COUNT>
0

> <PUBCHEM_BOND_DEF_STEREO_COUNT>
0

> <PUBCHEM_BOND_UDEF_STEREO_COUNT>
0

> <PUBCHEM_ISOTOPIC_ATOM_COUNT>
0

> <PUBCHEM_COMPONENT_COUNT>
1

> <PUBCHEM_CACTVS_TAUTO_COUNT>
1

> <PUBCHEM_COORDINATE_TYPE>
1
5
255

> <PUBCHEM_BONDANNOTATIONS>
10  12  8
10  18  8
11  12  8
13  14  8
15  19  8
16  21  8
17  20  8
18  22  8
19  20  8
21  22  8
3  5  8
3  9  8
4  11  8
4  6  8
5  15  8
5  8  8
6  7  8
7  10  8
7  16  8
8  13  8
8  17  8
9  14  8

$$$$

