   Color/Form
        Pale-yellow orthorhombic prisms from alcohol
   from [1]HSDB

   Boiling Point
        236 deg C at 760 mm Hg
   from [2]HSDB

   Melting Point
        46 deg C
   from [3]HSDB

   Critical Temperature and Pressure
        Critical temperature = 742.0 deg K; Critical pressure = 3.98E+6 Pa
   from [4]HSDB

   Density/Specific Gravity
        1.534 at 20 deg C/4 deg C
   from [5]HSDB

   Heat of Combustion
        -2.82E+9 J/kmol
   from [6]HSDB

   Heat of Vaporization
        5.58E+7 J/kmol at melting point at 317.65 deg K
   from [7]HSDB

   Octanol/Water Partition Coefficient
        log Kow = 2.41
   from [8]HSDB

   Solubilities

     * Sparingly sol in cold alcohol; freely soluble in hot alcohol,
       chloroform, ether, carbon disulfide, and glacial acetic acid
     * Soluble in most organic solvents
     * In water, 0.273 g/L at 20 deg C

   from [9]HSDB

   Spectral Properties

     * MAX ABSORPTION (METHANOL): 257.5 NM (LOG E= 3.89)
     * Index of refraction: 1.5374 at 80 deg C, alpha
     * IR: 6359 (Coblentz Society Spectral Collection)
     * UV: 2-46 (Organic Electronic Spectral Data, Phillips et al, John
       Wiley & Sons, New York)
     * 1H NMR: 6923 (Sadtler Research Laboratories Spectral Collection)
     * Raman: 304 (Sadtler Research Laboratories spectral collection)
     * MASS: 77710 (NIST/EPA/MSDC Mass Spectral database, 1990 version);
       114 (Aldermaston, Eight Peak Index of Mass Spectra, UK)

   from [10]HSDB

   Surface Tension
        4.37X10-2 N/m at 317.65 deg K
   from [11]HSDB

   Vapor Pressure
        0.097 mm Hg at 25 deg C
   from [12]HSDB

   Other Chemical/Physical Properties

     * Heat of fusion: 29.38 cal/g
     * CAN REACT WITH OXIDIZING MATERIALS
     * Liquid molar volume = 0.117 cu m/kmol; IG Heat of Formation =
       3.72X10+7 J/kmol; Heat of Fusion at melting point = 2.078X10+7
       J/kmol
     * Henry's Law constant = 1.35X10-5 atm-cu m/mol at 25 deg C
     * Hydroxyl radical reaction rate constant = 1.20X10-13 cu
       cm/molec-sec at 25 deg C (est)

   from [13]HSDB

   Computed Properties
   Molecular Weight                  157.55446 [g/mol]
   Molecular Formula                 C[6]H[4]ClNO[2]
   XLogP3                            2.5
   H-Bond Donor                      0
   H-Bond Acceptor                   2
   Rotatable Bond Count              0
   Exact Mass                        156.993056
   MonoIsotopic Mass                 156.993056
   Topological Polar Surface Area    45.8
   Heavy Atom Count                  10
   Formal Charge                     0
   Complexity                        134
   Isotope Atom Count                0
   Defined Atom Stereocenter Count   0
   Undefined Atom Stereocenter Count 0
   Defined Bond Stereocenter Count   0
   Undefined Bond Stereocenter Count 0
   Covalently-Bonded Unit Count      1
   Feature 3D Acceptor Count         2
   Feature 3D Anion Count            1
   Feature 3D Ring Count             1
   Effective Rotor Count             1
   Conformer Sampling RMSD           0.4
   CID Conformer Count               [14]1

References

   1. http://toxnet.nlm.nih.gov/cgi-bin/sis/search/r?dbs+hsdb:@term+@rn+@rel+121-73-3
   2. http://toxnet.nlm.nih.gov/cgi-bin/sis/search/r?dbs+hsdb:@term+@rn+@rel+121-73-3
   3. http://toxnet.nlm.nih.gov/cgi-bin/sis/search/r?dbs+hsdb:@term+@rn+@rel+121-73-3
   4. http://toxnet.nlm.nih.gov/cgi-bin/sis/search/r?dbs+hsdb:@term+@rn+@rel+121-73-3
   5. http://toxnet.nlm.nih.gov/cgi-bin/sis/search/r?dbs+hsdb:@term+@rn+@rel+121-73-3
   6. http://toxnet.nlm.nih.gov/cgi-bin/sis/search/r?dbs+hsdb:@term+@rn+@rel+121-73-3
   7. http://toxnet.nlm.nih.gov/cgi-bin/sis/search/r?dbs+hsdb:@term+@rn+@rel+121-73-3
   8. http://toxnet.nlm.nih.gov/cgi-bin/sis/search/r?dbs+hsdb:@term+@rn+@rel+121-73-3
   9. http://toxnet.nlm.nih.gov/cgi-bin/sis/search/r?dbs+hsdb:@term+@rn+@rel+121-73-3
  10. http://toxnet.nlm.nih.gov/cgi-bin/sis/search/r?dbs+hsdb:@term+@rn+@rel+121-73-3
  11. http://toxnet.nlm.nih.gov/cgi-bin/sis/search/r?dbs+hsdb:@term+@rn+@rel+121-73-3
  12. http://toxnet.nlm.nih.gov/cgi-bin/sis/search/r?dbs+hsdb:@term+@rn+@rel+121-73-3
  13. http://toxnet.nlm.nih.gov/cgi-bin/sis/search/r?dbs+hsdb:@term+@rn+@rel+121-73-3
  14. http://pubchem.ncbi.nlm.nih.gov/vw3d/vw3d.cgi?cid=8489
