   Color/Form

     * Crystals from ethylene chloride
     * Pastel yellow solid

   from [1]HSDB

   Melting Point
        254 deg C (decomposes)
   from [2]HSDB

   Dissociation Constants
        pKa = 4.08 in water; 4.24 in water/ethanol (1:1); 4.63 in
   water/ethanol (1:4)
   from [3]HSDB

   Octanol/Water Partition Coefficient
        log Kow = 3.54
   from [4]HSDB

   Solubilities

     * Very slightly soluble in methanol. Practically insoluble in water,
       with higher solubility observed in strong acids and bases.
     * In water, 7.15 mg/L at 25 deg C (est)

   from [5]HSDB

   Vapor Pressure
        1.07X10-15 mm Hg at 25 deg C (est)
   from [6]HSDB

   Other Chemical/Physical Properties

     * pKa1 = 4.44 (amine); pKa2 = 7.78 (phenol) (est)
     * Henry's Law constant = 1.74X10-19 atm-cu m/mol at 25 deg C (est)

   from [7]HSDB

   Computed Properties
   Molecular Weight                  351.40072 [g/mol]
   Molecular Formula                 C[14]H[13]N[3]O[4]S[2]
   XLogP3                            3
   H-Bond Donor                      2
   H-Bond Acceptor                   7
   Rotatable Bond Count              2
   Tautomer Count                    8
   Exact Mass                        351.034748
   MonoIsotopic Mass                 351.034748
   Topological Polar Surface Area    136
   Heavy Atom Count                  23
   Formal Charge                     0
   Complexity                        628
   Isotope Atom Count                0
   Defined Atom Stereocenter Count   0
   Undefined Atom Stereocenter Count 0
   Defined Bond Stereocenter Count   0
   Undefined Bond Stereocenter Count 0
   Covalently-Bonded Unit Count      1
   Feature 3D Acceptor Count         3
   Feature 3D Donor Count            2
   Feature 3D Ring Count             3
   Effective Rotor Count             3.2
   Conformer Sampling RMSD           0.6
   CID Conformer Count               [8]30

References

   1. http://toxnet.nlm.nih.gov/cgi-bin/sis/search/r?dbs+hsdb:@term+@rn+@rel+71125-38-7
   2. http://toxnet.nlm.nih.gov/cgi-bin/sis/search/r?dbs+hsdb:@term+@rn+@rel+71125-38-7
   3. http://toxnet.nlm.nih.gov/cgi-bin/sis/search/r?dbs+hsdb:@term+@rn+@rel+71125-38-7
   4. http://toxnet.nlm.nih.gov/cgi-bin/sis/search/r?dbs+hsdb:@term+@rn+@rel+71125-38-7
   5. http://toxnet.nlm.nih.gov/cgi-bin/sis/search/r?dbs+hsdb:@term+@rn+@rel+71125-38-7
   6. http://toxnet.nlm.nih.gov/cgi-bin/sis/search/r?dbs+hsdb:@term+@rn+@rel+71125-38-7
   7. http://toxnet.nlm.nih.gov/cgi-bin/sis/search/r?dbs+hsdb:@term+@rn+@rel+71125-38-7
   8. http://pubchem.ncbi.nlm.nih.gov/vw3d/vw3d.cgi?cid=54677470
