156088
  -OEChem-07051213112D

 62 63  0     1  0  0  0  0  0999 V2000
    5.1350   -2.1550    0.0000 O   0  0  0  0  0  0  0  0  0  0  0  0
    8.5991   -0.1550    0.0000 O   0  0  0  0  0  0  0  0  0  0  0  0
    5.1350   -0.1550    0.0000 O   0  0  0  0  0  0  0  0  0  0  0  0
    4.2690   -0.6550    0.0000 O   0  0  0  0  0  0  0  0  0  0  0  0
    8.5991    0.8450    0.0000 O   0  0  0  0  0  0  0  0  0  0  0  0
    6.8671    0.8450    0.0000 N   0  0  0  0  0  0  0  0  0  0  0  0
    6.8671   -3.1550    0.0000 N   0  0  0  0  0  0  0  0  0  0  0  0
    3.4030   -3.1550    0.0000 N   0  0  0  0  0  0  0  0  0  0  0  0
    2.5369    1.3450    0.0000 N   0  0  0  0  0  0  0  0  0  0  0  0
    8.5991    2.8450    0.0000 N   0  0  0  0  0  0  0  0  0  0  0  0
    6.0010   -1.6550    0.0000 C   0  0  1  0  0  0  0  0  0  0  0  0
    6.8671   -0.1550    0.0000 C   0  0  1  0  0  0  0  0  0  0  0  0
    6.0010   -0.6550    0.0000 C   0  0  1  0  0  0  0  0  0  0  0  0
    6.8671   -2.1550    0.0000 C   0  0  1  0  0  0  0  0  0  0  0  0
    7.7331   -0.6550    0.0000 C   0  0  2  0  0  0  0  0  0  0  0  0
    7.7331   -1.6550    0.0000 C   0  0  0  0  0  0  0  0  0  0  0  0
    4.2690   -1.6550    0.0000 C   0  0  1  0  0  0  0  0  0  0  0  0
    3.4030   -2.1550    0.0000 C   0  0  1  0  0  0  0  0  0  0  0  0
    2.5369   -1.6550    0.0000 C   0  0  0  0  0  0  0  0  0  0  0  0
    3.4030   -0.1550    0.0000 C   0  0  1  0  0  0  0  0  0  0  0  0
    2.5369   -0.6550    0.0000 C   0  0  0  0  0  0  0  0  0  0  0  0
    6.0010    1.3450    0.0000 C   0  0  0  0  0  0  0  0  0  0  0  0
    7.7331    1.3450    0.0000 C   0  0  0  0  0  0  0  0  0  0  0  0
    3.4030    0.8450    0.0000 C   0  0  0  0  0  0  0  0  0  0  0  0
    9.4651   -0.6550    0.0000 C   0  0  0  0  0  0  0  0  0  0  0  0
    7.7331    2.3450    0.0000 C   0  0  0  0  0  0  0  0  0  0  0  0
    2.5369    2.3450    0.0000 C   0  0  0  0  0  0  0  0  0  0  0  0
    5.4641   -1.3450    0.0000 H   0  0  0  0  0  0  0  0  0  0  0  0
    6.3301    0.1550    0.0000 H   0  0  0  0  0  0  0  0  0  0  0  0
    5.4641   -0.9650    0.0000 H   0  0  0  0  0  0  0  0  0  0  0  0
    6.3301   -2.4650    0.0000 H   0  0  0  0  0  0  0  0  0  0  0  0
    7.7331   -0.0350    0.0000 H   0  0  0  0  0  0  0  0  0  0  0  0
    7.9451   -2.2376    0.0000 H   0  0  0  0  0  0  0  0  0  0  0  0
    8.3437   -1.5473    0.0000 H   0  0  0  0  0  0  0  0  0  0  0  0
    4.2690   -2.2750    0.0000 H   0  0  0  0  0  0  0  0  0  0  0  0
    3.9399   -2.4650    0.0000 H   0  0  0  0  0  0  0  0  0  0  0  0
    1.9264   -1.5473    0.0000 H   0  0  0  0  0  0  0  0  0  0  0  0
    2.3249   -2.2376    0.0000 H   0  0  0  0  0  0  0  0  0  0  0  0
    7.4040   -3.4650    0.0000 H   0  0  0  0  0  0  0  0  0  0  0  0
    6.3301   -3.4650    0.0000 H   0  0  0  0  0  0  0  0  0  0  0  0
    3.9399    0.1550    0.0000 H   0  0  0  0  0  0  0  0  0  0  0  0
    2.3249   -0.0724    0.0000 H   0  0  0  0  0  0  0  0  0  0  0  0
    1.9264   -0.7627    0.0000 H   0  0  0  0  0  0  0  0  0  0  0  0
    5.1350    0.4650    0.0000 H   0  0  0  0  0  0  0  0  0  0  0  0
    6.3110    1.8819    0.0000 H   0  0  0  0  0  0  0  0  0  0  0  0
    5.4641    1.6550    0.0000 H   0  0  0  0  0  0  0  0  0  0  0  0
    5.6910    0.8081    0.0000 H   0  0  0  0  0  0  0  0  0  0  0  0
    4.0135    0.7373    0.0000 H   0  0  0  0  0  0  0  0  0  0  0  0
    3.6150    1.4276    0.0000 H   0  0  0  0  0  0  0  0  0  0  0  0
    2.8660   -3.4650    0.0000 H   0  0  0  0  0  0  0  0  0  0  0  0
    3.9399   -3.4650    0.0000 H   0  0  0  0  0  0  0  0  0  0  0  0
    9.1551   -1.1919    0.0000 H   0  0  0  0  0  0  0  0  0  0  0  0
   10.0021   -0.9650    0.0000 H   0  0  0  0  0  0  0  0  0  0  0  0
    9.7751   -0.1181    0.0000 H   0  0  0  0  0  0  0  0  0  0  0  0
    7.5210    2.9276    0.0000 H   0  0  0  0  0  0  0  0  0  0  0  0
    7.1225    2.2373    0.0000 H   0  0  0  0  0  0  0  0  0  0  0  0
    2.0000    1.0350    0.0000 H   0  0  0  0  0  0  0  0  0  0  0  0
    8.5991    3.4650    0.0000 H   0  0  0  0  0  0  0  0  0  0  0  0
    9.1360    2.5350    0.0000 H   0  0  0  0  0  0  0  0  0  0  0  0
    3.1569    2.3450    0.0000 H   0  0  0  0  0  0  0  0  0  0  0  0
    2.5369    2.9650    0.0000 H   0  0  0  0  0  0  0  0  0  0  0  0
    1.9169    2.3450    0.0000 H   0  0  0  0  0  0  0  0  0  0  0  0
 11  1  1  1  0  0  0
 17  1  1  6  0  0  0
 15  2  1  1  0  0  0
  2 25  1  0  0  0  0
 13  3  1  6  0  0  0
  3 44  1  0  0  0  0
  4 17  1  0  0  0  0
  4 20  1  0  0  0  0
  5 23  2  0  0  0  0
 12  6  1  6  0  0  0
  6 22  1  0  0  0  0
  6 23  1  0  0  0  0
 14  7  1  1  0  0  0
  7 39  1  0  0  0  0
  7 40  1  0  0  0  0
 18  8  1  6  0  0  0
  8 50  1  0  0  0  0
  8 51  1  0  0  0  0
  9 24  1  0  0  0  0
  9 27  1  0  0  0  0
  9 57  1  0  0  0  0
 10 26  1  0  0  0  0
 10 58  1  0  0  0  0
 10 59  1  0  0  0  0
 11 13  1  0  0  0  0
 11 14  1  0  0  0  0
 11 28  1  0  0  0  0
 12 13  1  0  0  0  0
 12 15  1  0  0  0  0
 12 29  1  0  0  0  0
 13 30  1  0  0  0  0
 14 16  1  0  0  0  0
 14 31  1  0  0  0  0
 15 16  1  0  0  0  0
 15 32  1  0  0  0  0
 16 33  1  0  0  0  0
 16 34  1  0  0  0  0
 17 18  1  0  0  0  0
 17 35  1  0  0  0  0
 18 19  1  0  0  0  0
 18 36  1  0  0  0  0
 19 21  1  0  0  0  0
 19 37  1  0  0  0  0
 19 38  1  0  0  0  0
 20 21  1  0  0  0  0
 20 24  1  1  0  0  0
 20 41  1  0  0  0  0
 21 42  1  0  0  0  0
 21 43  1  0  0  0  0
 22 45  1  0  0  0  0
 22 46  1  0  0  0  0
 22 47  1  0  0  0  0
 23 26  1  0  0  0  0
 24 48  1  0  0  0  0
 24 49  1  0  0  0  0
 25 52  1  0  0  0  0
 25 53  1  0  0  0  0
 25 54  1  0  0  0  0
 26 55  1  0  0  0  0
 26 56  1  0  0  0  0
 27 60  1  0  0  0  0
 27 61  1  0  0  0  0
 27 62  1  0  0  0  0
M  END
> <PUBCHEM_COMPOUND_CID>
156088

> <PUBCHEM_COMPOUND_CANONICALIZED>
1

> <PUBCHEM_CACTVS_COMPLEXITY>
485

> <PUBCHEM_CACTVS_HBOND_ACCEPTOR>
9

> <PUBCHEM_CACTVS_HBOND_DONOR>
5

> <PUBCHEM_CACTVS_ROTATABLE_BOND>
7

> <PUBCHEM_CACTVS_SUBSKEYS>
AAADcfB7uAAAAAAAAAAAAAAAAAAAAAAAAAA0QAAAAAAAAAAAAAAAHgAQCAAACDzxgAcCCAPABgAIAAEQEAAAAAAAAAAAAICIAAATUAIAgAA3QAAHFgCXAAHwcA8AAAAAAAAAAAACAQAUAACgAAAAAAAAAA==

> <PUBCHEM_IUPAC_OPENEYE_NAME>
2-amino-N-[(1S,2R,3R,4R,6S)-4-amino-3-[(2R,3R,6S)-3-amino-6-(methylaminomethyl)tetrahydropyran-2-yl]oxy-2-hydroxy-6-methoxy-cyclohexyl]-N-methyl-acetamide

> <PUBCHEM_IUPAC_CAS_NAME>
2-amino-N-[(1S,2R,3R,4R,6S)-4-amino-3-[[(2R,3R,6S)-3-amino-6-(methylaminomethyl)-2-oxanyl]oxy]-2-hydroxy-6-methoxycyclohexyl]-N-methylacetamide

> <PUBCHEM_IUPAC_NAME>
2-amino-N-[(1S,2R,3R,4R,6S)-4-amino-3-[(2R,3R,6S)-3-amino-6-(methylaminomethyl)oxan-2-yl]oxy-2-hydroxy-6-methoxycyclohexyl]-N-methylacetamide

> <PUBCHEM_IUPAC_SYSTEMATIC_NAME>
2-azanyl-N-[(1S,2R,3R,4R,6S)-4-azanyl-3-[(2R,3R,6S)-3-azanyl-6-(methylaminomethyl)oxan-2-yl]oxy-6-methoxy-2-oxidanyl-cyclohexyl]-N-methyl-ethanamide

> <PUBCHEM_IUPAC_TRADITIONAL_NAME>
2-amino-N-[(1S,2R,3R,4R,6S)-4-amino-3-[(2R,3R,6S)-3-amino-6-(methylaminomethyl)tetrahydropyran-2-yl]oxy-2-hydroxy-6-methoxy-cyclohexyl]-N-methyl-acetamide

> <PUBCHEM_IUPAC_INCHI>
InChI=1S/C17H35N5O5/c1-21-8-9-4-5-10(19)17(26-9)27-16-11(20)6-12(25-3)14(15(16)24)22(2)13(23)7-18/h9-12,14-17,21,24H,4-8,18-20H2,1-3H3/t9-,10+,11+,12-,14+,15+,16+,17+/m0/s1

> <PUBCHEM_IUPAC_INCHIKEY>
NEFDRWXEVITQMN-MKRRRRENSA-N

> <PUBCHEM_XLOGP3_AA>
-3.4

> <PUBCHEM_EXACT_MASS>
389.263819

> <PUBCHEM_MOLECULAR_FORMULA>
C17H35N5O5

> <PUBCHEM_MOLECULAR_WEIGHT>
389.4903

> <PUBCHEM_OPENEYE_CAN_SMILES>
CNCC1CCC(C(O1)OC2C(CC(C(C2O)N(C)C(=O)CN)OC)N)N

> <PUBCHEM_OPENEYE_ISO_SMILES>
CNC[C@@H]1CC[C@H]([C@H](O1)O[C@@H]2[C@@H](C[C@@H]([C@H]([C@H]2O)N(C)C(=O)CN)OC)N)N

> <PUBCHEM_CACTVS_TPSA>
158

> <PUBCHEM_MONOISOTOPIC_WEIGHT>
389.263819

> <PUBCHEM_TOTAL_CHARGE>
0

> <PUBCHEM_HEAVY_ATOM_COUNT>
27

> <PUBCHEM_ATOM_DEF_STEREO_COUNT>
8

> <PUBCHEM_ATOM_UDEF_STEREO_COUNT>
0

> <PUBCHEM_BOND_DEF_STEREO_COUNT>
0

> <PUBCHEM_BOND_UDEF_STEREO_COUNT>
0

> <PUBCHEM_ISOTOPIC_ATOM_COUNT>
0

> <PUBCHEM_COMPONENT_COUNT>
1

> <PUBCHEM_CACTVS_TAUTO_COUNT>
1

> <PUBCHEM_COORDINATE_TYPE>
1
5
255

> <PUBCHEM_BONDANNOTATIONS>
11  1  5
17  1  6
15  2  5
20  24  5
13  3  6
12  6  6
14  7  5
18  8  6

$$$$

