124025
  -OEChem-07051212592D

 66 72  0     1  0  0  0  0  0999 V2000
    4.2324    0.9226    0.0000 O   0  0  0  0  0  0  0  0  0  0  0  0
    8.7000    1.2828    0.0000 O   0  0  0  0  0  0  0  0  0  0  0  0
    6.1674   -1.9310    0.0000 O   0  0  0  0  0  0  0  0  0  0  0  0
    5.5988    3.5791    0.0000 O   0  0  0  0  0  0  0  0  0  0  0  0
    5.5329   -4.6468    0.0000 O   0  0  0  0  0  0  0  0  0  0  0  0
    2.5654   -2.2925    0.0000 O   0  0  0  0  0  0  0  0  0  0  0  0
    7.6439   -1.9316    0.0000 O   0  0  0  0  0  0  0  0  0  0  0  0
   11.1423   -1.3913    0.0000 O   0  0  0  0  0  0  0  0  0  0  0  0
    9.2848    4.1800    0.0000 O   0  0  0  0  0  0  0  0  0  0  0  0
    7.8706    5.5942    0.0000 O   0  0  0  0  0  0  0  0  0  0  0  0
    8.3658   -5.7870    0.0000 O   0  0  0  0  0  0  0  0  0  0  0  0
    9.9702   -4.5928    0.0000 O   0  0  0  0  0  0  0  0  0  0  0  0
    6.5766    0.7645    0.0000 C   0  0  1  0  0  0  0  0  0  0  0  0
    6.0988    2.7131    0.0000 C   0  0  2  0  0  0  0  0  0  0  0  0
    6.8354    1.7305    0.0000 C   0  0  2  0  0  0  0  0  0  0  0  0
    5.0414   -0.4786    0.0000 C   0  0  0  0  0  0  0  0  0  0  0  0
    8.2812   -0.2801    0.0000 C   0  0  0  0  0  0  0  0  0  0  0  0
    4.1278   -0.0719    0.0000 C   0  0  0  0  0  0  0  0  0  0  0  0
    5.1662   -1.5127    0.0000 C   0  0  0  0  0  0  0  0  0  0  0  0
    9.0584    0.3492    0.0000 C   0  0  0  0  0  0  0  0  0  0  0  0
    4.3283   -2.1315    0.0000 C   0  0  0  0  0  0  0  0  0  0  0  0
    7.0942    2.6964    0.0000 C   0  0  0  0  0  0  0  0  0  0  0  0
    4.4334   -3.2114    0.0000 C   0  0  0  0  0  0  0  0  0  0  0  0
    5.4246   -3.6527    0.0000 C   0  0  2  0  0  0  0  0  0  0  0  0
    6.2974   -3.0082    0.0000 C   0  0  1  0  0  0  0  0  0  0  0  0
    3.2758   -0.6711    0.0000 C   0  0  0  0  0  0  0  0  0  0  0  0
    3.3767   -1.7078    0.0000 C   0  0  0  0  0  0  0  0  0  0  0  0
    8.4283   -1.3113    0.0000 C   0  0  0  0  0  0  0  0  0  0  0  0
   10.0365   -0.0090    0.0000 C   0  0  0  0  0  0  0  0  0  0  0  0
    8.0601    2.9552    0.0000 C   0  0  0  0  0  0  0  0  0  0  0  0
    6.3871    3.4035    0.0000 C   0  0  0  0  0  0  0  0  0  0  0  0
    7.2156   -3.4043    0.0000 C   0  0  0  0  0  0  0  0  0  0  0  0
    9.3978   -1.6921    0.0000 C   0  0  0  0  0  0  0  0  0  0  0  0
   10.2073   -1.0366    0.0000 C   0  0  0  0  0  0  0  0  0  0  0  0
    8.3189    3.9211    0.0000 C   0  0  0  0  0  0  0  0  0  0  0  0
    6.6459    4.3694    0.0000 C   0  0  0  0  0  0  0  0  0  0  0  0
    7.3316   -4.3976    0.0000 C   0  0  0  0  0  0  0  0  0  0  0  0
    7.6118    4.6282    0.0000 C   0  0  0  0  0  0  0  0  0  0  0  0
    8.0178   -2.8072    0.0000 C   0  0  0  0  0  0  0  0  0  0  0  0
    8.2498   -4.7937    0.0000 C   0  0  0  0  0  0  0  0  0  0  0  0
    8.9359   -3.2034    0.0000 C   0  0  0  0  0  0  0  0  0  0  0  0
    9.0520   -4.1966    0.0000 C   0  0  0  0  0  0  0  0  0  0  0  0
    6.3566   -0.0565    0.0000 H   0  0  0  0  0  0  0  0  0  0  0  0
    6.6162    3.0546    0.0000 H   0  0  0  0  0  0  0  0  0  0  0  0
    3.8151   -3.1649    0.0000 H   0  0  0  0  0  0  0  0  0  0  0  0
    4.2818   -3.8126    0.0000 H   0  0  0  0  0  0  0  0  0  0  0  0
    5.9924   -3.9016    0.0000 H   0  0  0  0  0  0  0  0  0  0  0  0
    6.3681   -3.6241    0.0000 H   0  0  0  0  0  0  0  0  0  0  0  0
    2.7124   -0.4124    0.0000 H   0  0  0  0  0  0  0  0  0  0  0  0
    4.9788    3.5791    0.0000 H   0  0  0  0  0  0  0  0  0  0  0  0
   10.5138    0.3867    0.0000 H   0  0  0  0  0  0  0  0  0  0  0  0
    8.4985    2.5168    0.0000 H   0  0  0  0  0  0  0  0  0  0  0  0
    5.7882    3.2430    0.0000 H   0  0  0  0  0  0  0  0  0  0  0  0
    9.4925   -2.3048    0.0000 H   0  0  0  0  0  0  0  0  0  0  0  0
    5.0327   -5.0131    0.0000 H   0  0  0  0  0  0  0  0  0  0  0  0
    6.2075    4.8078    0.0000 H   0  0  0  0  0  0  0  0  0  0  0  0
    2.0000   -2.0381    0.0000 H   0  0  0  0  0  0  0  0  0  0  0  0
    7.0677   -1.7027    0.0000 H   0  0  0  0  0  0  0  0  0  0  0  0
    6.8343   -4.7678    0.0000 H   0  0  0  0  0  0  0  0  0  0  0  0
    7.9458   -2.1914    0.0000 H   0  0  0  0  0  0  0  0  0  0  0  0
   11.6226   -0.9993    0.0000 H   0  0  0  0  0  0  0  0  0  0  0  0
    9.4333   -2.8332    0.0000 H   0  0  0  0  0  0  0  0  0  0  0  0
    9.4453    4.7788    0.0000 H   0  0  0  0  0  0  0  0  0  0  0  0
    7.4322    6.0326    0.0000 H   0  0  0  0  0  0  0  0  0  0  0  0
    8.9351   -6.0326    0.0000 H   0  0  0  0  0  0  0  0  0  0  0  0
   10.4675   -4.2226    0.0000 H   0  0  0  0  0  0  0  0  0  0  0  0
  1 15  1  0  0  0  0
  1 18  1  0  0  0  0
  2 15  1  0  0  0  0
  2 20  1  0  0  0  0
  3 19  1  0  0  0  0
  3 25  1  0  0  0  0
 14  4  1  1  0  0  0
  4 50  1  0  0  0  0
 24  5  1  6  0  0  0
  5 55  1  0  0  0  0
  6 27  1  0  0  0  0
  6 57  1  0  0  0  0
  7 28  1  0  0  0  0
  7 58  1  0  0  0  0
  8 34  1  0  0  0  0
  8 61  1  0  0  0  0
  9 35  1  0  0  0  0
  9 63  1  0  0  0  0
 10 38  1  0  0  0  0
 10 64  1  0  0  0  0
 11 40  1  0  0  0  0
 11 65  1  0  0  0  0
 12 42  1  0  0  0  0
 12 66  1  0  0  0  0
 13 14  1  0  0  0  0
 13 16  1  0  0  0  0
 13 17  1  0  0  0  0
 13 43  1  1  0  0  0
 14 15  1  0  0  0  0
 14 44  1  0  0  0  0
 15 22  1  6  0  0  0
 16 18  2  0  0  0  0
 16 19  1  0  0  0  0
 17 20  1  0  0  0  0
 17 28  2  0  0  0  0
 18 26  1  0  0  0  0
 19 21  2  0  0  0  0
 20 29  2  0  0  0  0
 21 23  1  0  0  0  0
 21 27  1  0  0  0  0
 22 30  2  0  0  0  0
 22 31  1  0  0  0  0
 23 24  1  0  0  0  0
 23 45  1  0  0  0  0
 23 46  1  0  0  0  0
 24 25  1  0  0  0  0
 24 47  1  0  0  0  0
 25 32  1  6  0  0  0
 25 48  1  0  0  0  0
 26 27  2  0  0  0  0
 26 49  1  0  0  0  0
 28 33  1  0  0  0  0
 29 34  1  0  0  0  0
 29 51  1  0  0  0  0
 30 35  1  0  0  0  0
 30 52  1  0  0  0  0
 31 36  2  0  0  0  0
 31 53  1  0  0  0  0
 32 37  2  0  0  0  0
 32 39  1  0  0  0  0
 33 34  2  0  0  0  0
 33 54  1  0  0  0  0
 35 38  2  0  0  0  0
 36 38  1  0  0  0  0
 36 56  1  0  0  0  0
 37 40  1  0  0  0  0
 37 59  1  0  0  0  0
 39 41  2  0  0  0  0
 39 60  1  0  0  0  0
 40 42  2  0  0  0  0
 41 42  1  0  0  0  0
 41 62  1  0  0  0  0
M  END
> <PUBCHEM_COMPOUND_CID>
124025

> <PUBCHEM_COMPOUND_CANONICALIZED>
1

> <PUBCHEM_CACTVS_COMPLEXITY>
986

> <PUBCHEM_CACTVS_HBOND_ACCEPTOR>
12

> <PUBCHEM_CACTVS_HBOND_DONOR>
9

> <PUBCHEM_CACTVS_ROTATABLE_BOND>
2

> <PUBCHEM_CACTVS_SUBSKEYS>
AAADceB4PAAAAAAAAAAAAAAAAAAAAAAAAAA0aNGCAAASAACRVAAAGgAACAAADRSgmAIwDoAABgCAAiBCAAACCAAgIAAIiAAGiIgdNyKGMRqieCGlwBUPuAfA4PwOoAADCAAIQABAAAYQABCAAAAAAAAAAA==

> <PUBCHEM_IUPAC_INCHI>
InChI=1S/C30H24O12/c31-13-7-20(37)24-22(8-13)41-30(12-2-4-16(33)19(36)6-12)29(39)26(24)25-23(42-30)10-17(34)14-9-21(38)27(40-28(14)25)11-1-3-15(32)18(35)5-11/h1-8,10,21,26-27,29,31-39H,9H2/t21-,26-,27-,29-,30+/m1/s1

> <PUBCHEM_IUPAC_INCHIKEY>
NSEWTSAADLNHNH-LSBOWGMISA-N

> <PUBCHEM_XLOGP3_AA>
2.4

> <PUBCHEM_EXACT_MASS>
576.126776

> <PUBCHEM_MOLECULAR_FORMULA>
C30H24O12

> <PUBCHEM_MOLECULAR_WEIGHT>
576.50436

> <PUBCHEM_OPENEYE_CAN_SMILES>
C1C(C(OC2=C3C4C(C(OC5=CC(=CC(=C45)O)O)(OC3=CC(=C21)O)C6=CC(=C(C=C6)O)O)O)C7=CC(=C(C=C7)O)O)O

> <PUBCHEM_OPENEYE_ISO_SMILES>
C1[C@H]([C@H](OC2=C3[C@@H]4[C@H]([C@@](OC5=CC(=CC(=C45)O)O)(OC3=CC(=C21)O)C6=CC(=C(C=C6)O)O)O)C7=CC(=C(C=C7)O)O)O

> <PUBCHEM_CACTVS_TPSA>
210

> <PUBCHEM_MONOISOTOPIC_WEIGHT>
576.126776

> <PUBCHEM_TOTAL_CHARGE>
0

> <PUBCHEM_HEAVY_ATOM_COUNT>
42

> <PUBCHEM_ATOM_DEF_STEREO_COUNT>
5

> <PUBCHEM_ATOM_UDEF_STEREO_COUNT>
0

> <PUBCHEM_BOND_DEF_STEREO_COUNT>
0

> <PUBCHEM_BOND_UDEF_STEREO_COUNT>
0

> <PUBCHEM_ISOTOPIC_ATOM_COUNT>
0

> <PUBCHEM_COMPONENT_COUNT>
1

> <PUBCHEM_CACTVS_TAUTO_COUNT>
918

> <PUBCHEM_COORDINATE_TYPE>
1
5
255

> <PUBCHEM_BONDANNOTATIONS>
13  43  5
15  22  6
16  18  8
16  19  8
17  20  8
17  28  8
18  26  8
19  21  8
20  29  8
21  27  8
22  30  8
22  31  8
25  32  6
26  27  8
28  33  8
29  34  8
30  35  8
31  36  8
32  37  8
32  39  8
33  34  8
35  38  8
36  38  8
37  40  8
39  41  8
14  4  5
40  42  8
41  42  8
24  5  6

$$$$

