183116
  -OEChem-07051212582D

 43 44  0     1  0  0  0  0  0999 V2000
    2.3100    0.7498    0.0000 O   0  0  0  0  0  0  0  0  0  0  0  0
    7.5719    0.2498    0.0000 O   0  0  0  0  0  0  0  0  0  0  0  0
    5.0420    0.7498    0.0000 C   0  0  2  0  0  0  0  0  0  0  0  0
    5.0420   -0.2502    0.0000 C   0  0  1  0  0  0  0  0  0  0  0  0
    4.1760    1.2498    0.0000 C   0  0  2  0  0  0  0  0  0  0  0  0
    5.9883   -0.5550    0.0000 C   0  0  1  0  0  0  0  0  0  0  0  0
    5.9883    1.0545    0.0000 C   0  0  0  0  0  0  0  0  0  0  0  0
    3.3100    0.7498    0.0000 C   0  0  2  0  0  0  0  0  0  0  0  0
    6.5719    0.2498    0.0000 C   0  0  2  0  0  0  0  0  0  0  0  0
    4.1760   -0.7502    0.0000 C   0  0  0  0  0  0  0  0  0  0  0  0
    3.3100   -0.2502    0.0000 C   0  0  0  0  0  0  0  0  0  0  0  0
    5.0420    1.7498    0.0000 C   0  0  0  0  0  0  0  0  0  0  0  0
    4.1760    2.2498    0.0000 C   0  0  0  0  0  0  0  0  0  0  0  0
    6.2989   -1.5055    0.0000 C   0  0  0  0  0  0  0  0  0  0  0  0
    2.8100    1.6158    0.0000 C   0  0  0  0  0  0  0  0  0  0  0  0
    7.2774   -1.7117    0.0000 C   0  0  0  0  0  0  0  0  0  0  0  0
    5.6311   -2.2498    0.0000 C   0  0  0  0  0  0  0  0  0  0  0  0
    5.1320   -1.0954    0.0000 H   0  0  0  0  0  0  0  0  0  0  0  0
    4.7130    1.5598    0.0000 H   0  0  0  0  0  0  0  0  0  0  0  0
    6.6008   -0.6512    0.0000 H   0  0  0  0  0  0  0  0  0  0  0  0
    6.5256    1.3637    0.0000 H   0  0  0  0  0  0  0  0  0  0  0  0
    5.7372    1.6214    0.0000 H   0  0  0  0  0  0  0  0  0  0  0  0
    3.7775   -1.2252    0.0000 H   0  0  0  0  0  0  0  0  0  0  0  0
    4.5746   -1.2252    0.0000 H   0  0  0  0  0  0  0  0  0  0  0  0
    6.8536    0.8021    0.0000 H   0  0  0  0  0  0  0  0  0  0  0  0
    2.6994   -0.1426    0.0000 H   0  0  0  0  0  0  0  0  0  0  0  0
    3.0980   -0.8328    0.0000 H   0  0  0  0  0  0  0  0  0  0  0  0
    5.6620    1.7498    0.0000 H   0  0  0  0  0  0  0  0  0  0  0  0
    5.0420    2.3698    0.0000 H   0  0  0  0  0  0  0  0  0  0  0  0
    4.4220    1.7498    0.0000 H   0  0  0  0  0  0  0  0  0  0  0  0
    4.7960    2.2498    0.0000 H   0  0  0  0  0  0  0  0  0  0  0  0
    4.1760    2.8698    0.0000 H   0  0  0  0  0  0  0  0  0  0  0  0
    3.5560    2.2498    0.0000 H   0  0  0  0  0  0  0  0  0  0  0  0
    3.3469    1.9258    0.0000 H   0  0  0  0  0  0  0  0  0  0  0  0
    2.5000    2.1527    0.0000 H   0  0  0  0  0  0  0  0  0  0  0  0
    2.2731    1.3058    0.0000 H   0  0  0  0  0  0  0  0  0  0  0  0
    2.0000    0.2128    0.0000 H   0  0  0  0  0  0  0  0  0  0  0  0
    7.8819    0.7867    0.0000 H   0  0  0  0  0  0  0  0  0  0  0  0
    7.1496   -2.3184    0.0000 H   0  0  0  0  0  0  0  0  0  0  0  0
    7.8841   -1.8396    0.0000 H   0  0  0  0  0  0  0  0  0  0  0  0
    7.4053   -1.1050    0.0000 H   0  0  0  0  0  0  0  0  0  0  0  0
    5.0244   -2.1219    0.0000 H   0  0  0  0  0  0  0  0  0  0  0  0
    5.8237   -2.8391    0.0000 H   0  0  0  0  0  0  0  0  0  0  0  0
  8  1  1  6  0  0  0
  1 37  1  0  0  0  0
  9  2  1  6  0  0  0
  2 38  1  0  0  0  0
  3  4  1  0  0  0  0
  3  5  1  0  0  0  0
  3  7  1  0  0  0  0
  3 12  1  1  0  0  0
  4  6  1  0  0  0  0
  4 10  1  0  0  0  0
  4 18  1  6  0  0  0
  5  8  1  0  0  0  0
  5 13  1  6  0  0  0
  5 19  1  0  0  0  0
  6  9  1  0  0  0  0
  6 14  1  1  0  0  0
  6 20  1  0  0  0  0
  7  9  1  0  0  0  0
  7 21  1  0  0  0  0
  7 22  1  0  0  0  0
  8 11  1  0  0  0  0
  8 15  1  0  0  0  0
  9 25  1  0  0  0  0
 10 11  1  0  0  0  0
 10 23  1  0  0  0  0
 10 24  1  0  0  0  0
 11 26  1  0  0  0  0
 11 27  1  0  0  0  0
 12 28  1  0  0  0  0
 12 29  1  0  0  0  0
 12 30  1  0  0  0  0
 13 31  1  0  0  0  0
 13 32  1  0  0  0  0
 13 33  1  0  0  0  0
 14 16  1  0  0  0  0
 14 17  2  0  0  0  0
 15 34  1  0  0  0  0
 15 35  1  0  0  0  0
 15 36  1  0  0  0  0
 16 39  1  0  0  0  0
 16 40  1  0  0  0  0
 16 41  1  0  0  0  0
 17 42  1  0  0  0  0
 17 43  1  0  0  0  0
M  END
> <PUBCHEM_COMPOUND_CID>
183116

> <PUBCHEM_COMPOUND_CANONICALIZED>
1

> <PUBCHEM_CACTVS_COMPLEXITY>
338

> <PUBCHEM_CACTVS_HBOND_ACCEPTOR>
2

> <PUBCHEM_CACTVS_HBOND_DONOR>
2

> <PUBCHEM_CACTVS_ROTATABLE_BOND>
1

> <PUBCHEM_CACTVS_SUBSKEYS>
AAADceBwMAAAAAAAAAAAAAAAAAAAAYAAAAAwAAAAAAAAAGAAAAAAGgAACAAAD1SggAICAAAAAgCAAgBCAAAAAAAgAAAAAAAAAAgAEAIAAQAAQAAEwAAAAAGA4PQPgAAAAAAAAADAAAYAADAAAYAADAAAAA==

> <PUBCHEM_IUPAC_OPENEYE_NAME>
(1R,2S,3aR,4R,5S,7aR)-1-isopropenyl-3a,4,5-trimethyl-2,3,4,6,7,7a-hexahydro-1H-indene-2,5-diol

> <PUBCHEM_IUPAC_CAS_NAME>
(1R,2S,3aR,4R,5S,7aR)-3a,4,5-trimethyl-1-(1-methylethenyl)-2,3,4,6,7,7a-hexahydro-1H-indene-2,5-diol

> <PUBCHEM_IUPAC_NAME>
(1R,2S,3aR,4R,5S,7aR)-3a,4,5-trimethyl-1-prop-1-en-2-yl-2,3,4,6,7,7a-hexahydro-1H-indene-2,5-diol

> <PUBCHEM_IUPAC_SYSTEMATIC_NAME>
(1R,2S,3aR,4R,5S,7aR)-3a,4,5-trimethyl-1-prop-1-en-2-yl-2,3,4,6,7,7a-hexahydro-1H-indene-2,5-diol

> <PUBCHEM_IUPAC_TRADITIONAL_NAME>
(1R,2S,3aR,4R,5S,7aR)-1-isopropenyl-3a,4,5-trimethyl-2,3,4,6,7,7a-hexahydro-1H-indene-2,5-diol

> <PUBCHEM_IUPAC_INCHI>
InChI=1S/C15H26O2/c1-9(2)13-11-6-7-15(5,17)10(3)14(11,4)8-12(13)16/h10-13,16-17H,1,6-8H2,2-5H3/t10-,11-,12+,13+,14+,15+/m1/s1

> <PUBCHEM_IUPAC_INCHIKEY>
CGKHVNUMMHTZJY-UMBPPFEGSA-N

> <PUBCHEM_XLOGP3_AA>
3

> <PUBCHEM_EXACT_MASS>
238.19328

> <PUBCHEM_MOLECULAR_FORMULA>
C15H26O2

> <PUBCHEM_MOLECULAR_WEIGHT>
238.36574

> <PUBCHEM_OPENEYE_CAN_SMILES>
CC1C(CCC2C1(CC(C2C(=C)C)O)C)(C)O

> <PUBCHEM_OPENEYE_ISO_SMILES>
C[C@H]1[C@@](CC[C@H]2[C@]1(C[C@@H]([C@H]2C(=C)C)O)C)(C)O

> <PUBCHEM_CACTVS_TPSA>
40.5

> <PUBCHEM_MONOISOTOPIC_WEIGHT>
238.19328

> <PUBCHEM_TOTAL_CHARGE>
0

> <PUBCHEM_HEAVY_ATOM_COUNT>
17

> <PUBCHEM_ATOM_DEF_STEREO_COUNT>
6

> <PUBCHEM_ATOM_UDEF_STEREO_COUNT>
0

> <PUBCHEM_BOND_DEF_STEREO_COUNT>
0

> <PUBCHEM_BOND_UDEF_STEREO_COUNT>
0

> <PUBCHEM_ISOTOPIC_ATOM_COUNT>
0

> <PUBCHEM_COMPONENT_COUNT>
1

> <PUBCHEM_CACTVS_TAUTO_COUNT>
1

> <PUBCHEM_COORDINATE_TYPE>
1
5
255

> <PUBCHEM_BONDANNOTATIONS>
8  1  6
9  2  6
3  12  5
4  18  6
5  13  6
6  14  5

$$$$

