29936
  -OEChem-07051213062D

  1  0  0     0  0  0  0  0  0999 V2000
    2.0000    0.0000    0.0000 Fe  0  1  0  0  0  0  0  0  0  0  0  0
M  CHG  1   1   3
M  END
> <PUBCHEM_COMPOUND_CID>
29936

> <PUBCHEM_COMPOUND_CANONICALIZED>
1

> <PUBCHEM_CACTVS_COMPLEXITY>
0

> <PUBCHEM_CACTVS_HBOND_ACCEPTOR>
0

> <PUBCHEM_CACTVS_HBOND_DONOR>
0

> <PUBCHEM_CACTVS_ROTATABLE_BOND>
0

> <PUBCHEM_CACTVS_SUBSKEYS>
AAADcQAAAAAAAAAgAAAAAAAAAAAAAAAAAAAAAAAAAAAAAAAAAAAAAAAAAAAAAAAAAAAAAAAAAAAAAAAAAAAAAAAAAAAAAAAAAAAAAAAAAAAAAAAAAAAAAAAAAAAAAAAAAAAAAAAAAAAAAAAAAAAAAAAAAA==

> <PUBCHEM_IUPAC_OPENEYE_NAME>
iron(3+)

> <PUBCHEM_IUPAC_CAS_NAME>
iron(3+)

> <PUBCHEM_IUPAC_NAME>
iron(3+)

> <PUBCHEM_IUPAC_SYSTEMATIC_NAME>
iron(3+)

> <PUBCHEM_IUPAC_TRADITIONAL_NAME>
iron(3+)

> <PUBCHEM_IUPAC_INCHI>
InChI=1S/Fe/q+3

> <PUBCHEM_IUPAC_INCHIKEY>
VTLYFUHAOXGGBS-UHFFFAOYSA-N

> <PUBCHEM_EXACT_MASS>
55.934937

> <PUBCHEM_MOLECULAR_FORMULA>
Fe+3

> <PUBCHEM_MOLECULAR_WEIGHT>
55.845

> <PUBCHEM_OPENEYE_CAN_SMILES>
[Fe+3]

> <PUBCHEM_OPENEYE_ISO_SMILES>
[Fe+3]

> <PUBCHEM_CACTVS_TPSA>
0

> <PUBCHEM_MONOISOTOPIC_WEIGHT>
55.934937

> <PUBCHEM_TOTAL_CHARGE>
3

> <PUBCHEM_HEAVY_ATOM_COUNT>
1

> <PUBCHEM_ATOM_DEF_STEREO_COUNT>
0

> <PUBCHEM_ATOM_UDEF_STEREO_COUNT>
0

> <PUBCHEM_BOND_DEF_STEREO_COUNT>
0

> <PUBCHEM_BOND_UDEF_STEREO_COUNT>
0

> <PUBCHEM_ISOTOPIC_ATOM_COUNT>
0

> <PUBCHEM_COMPONENT_COUNT>
1

> <PUBCHEM_CACTVS_TAUTO_COUNT>
1

> <PUBCHEM_COORDINATE_TYPE>
1
5
255

$$$$

