13996
  -OEChem-06241222412D

 63 65  0     0  0  0  0  0  0999 V2000
    5.1860    0.0000    0.0000 Cl  0  0  0  0  0  0  0  0  0  0  0  0
    4.9358    5.7193    0.0000 O   0  0  0  0  0  0  0  0  0  0  0  0
    7.0862   10.1978    0.0000 O   0  0  0  0  0  0  0  0  0  0  0  0
    2.7561   10.6978    0.0000 O   0  0  0  0  0  0  0  0  0  0  0  0
    6.2202   11.6978    0.0000 O   0  0  0  0  0  0  0  0  0  0  0  0
    3.6221    9.1978    0.0000 O   0  0  0  0  0  0  0  0  0  0  0  0
    2.5016    5.4371    0.0000 N   0  0  0  0  0  0  0  0  0  0  0  0
    4.7462    4.0365    0.0000 N   0  0  0  0  0  0  0  0  0  0  0  0
    6.9932    4.0365    0.0000 N   0  0  0  0  0  0  0  0  0  0  0  0
    1.8214    4.7041    0.0000 C   0  0  0  0  0  0  0  0  0  0  0  0
    2.2068    6.3927    0.0000 C   0  0  0  0  0  0  0  0  0  0  0  0
    0.8465    4.9266    0.0000 C   0  0  0  0  0  0  0  0  0  0  0  0
    1.2319    6.6152    0.0000 C   0  0  0  0  0  0  0  0  0  0  0  0
    0.5517    5.8822    0.0000 C   0  0  0  0  0  0  0  0  0  0  0  0
    3.4765    5.2146    0.0000 C   0  0  0  0  0  0  0  0  0  0  0  0
    3.7713    4.2590    0.0000 C   0  0  0  0  0  0  0  0  0  0  0  0
    4.9687    3.0616    0.0000 C   0  0  0  0  0  0  0  0  0  0  0  0
    5.3697    4.8183    0.0000 C   0  0  0  0  0  0  0  0  0  0  0  0
    5.8697    2.6277    0.0000 C   0  0  0  0  0  0  0  0  0  0  0  0
    6.3697    4.8183    0.0000 C   0  0  0  0  0  0  0  0  0  0  0  0
    6.7706    3.0616    0.0000 C   0  0  0  0  0  0  0  0  0  0  0  0
    4.0991    2.4881    0.0000 C   0  0  0  0  0  0  0  0  0  0  0  0
    5.9635    1.5903    0.0000 C   0  0  0  0  0  0  0  0  0  0  0  0
    4.1690    1.4489    0.0000 C   0  0  0  0  0  0  0  0  0  0  0  0
    7.5525    2.4381    0.0000 C   0  0  0  0  0  0  0  0  0  0  0  0
    5.1074    0.9969    0.0000 C   0  0  0  0  0  0  0  0  0  0  0  0
    8.4834    2.8034    0.0000 C   0  0  0  0  0  0  0  0  0  0  0  0
    7.4034    1.4493    0.0000 C   0  0  0  0  0  0  0  0  0  0  0  0
    9.2652    2.1799    0.0000 C   0  0  0  0  0  0  0  0  0  0  0  0
    8.1853    0.8258    0.0000 C   0  0  0  0  0  0  0  0  0  0  0  0
    9.1161    1.1911    0.0000 C   0  0  0  0  0  0  0  0  0  0  0  0
    5.3542   10.1978    0.0000 C   0  0  0  0  0  0  0  0  0  0  0  0
    4.4881   10.6978    0.0000 C   0  0  0  0  0  0  0  0  0  0  0  0
    6.2202   10.6978    0.0000 C   0  0  0  0  0  0  0  0  0  0  0  0
    3.6221   10.1978    0.0000 C   0  0  0  0  0  0  0  0  0  0  0  0
    1.5806    4.1328    0.0000 H   0  0  0  0  0  0  0  0  0  0  0  0
    2.3422    4.3677    0.0000 H   0  0  0  0  0  0  0  0  0  0  0  0
    2.8220    6.4698    0.0000 H   0  0  0  0  0  0  0  0  0  0  0  0
    2.2377    7.0119    0.0000 H   0  0  0  0  0  0  0  0  0  0  0  0
    0.2313    4.8495    0.0000 H   0  0  0  0  0  0  0  0  0  0  0  0
    0.8156    4.3074    0.0000 H   0  0  0  0  0  0  0  0  0  0  0  0
    1.4727    7.1865    0.0000 H   0  0  0  0  0  0  0  0  0  0  0  0
    0.7111    6.9516    0.0000 H   0  0  0  0  0  0  0  0  0  0  0  0
    0.1774    6.3764    0.0000 H   0  0  0  0  0  0  0  0  0  0  0  0
    0.0000    5.5993    0.0000 H   0  0  0  0  0  0  0  0  0  0  0  0
    3.5074    5.8338    0.0000 H   0  0  0  0  0  0  0  0  0  0  0  0
    4.0917    5.2917    0.0000 H   0  0  0  0  0  0  0  0  0  0  0  0
    3.7404    3.6398    0.0000 H   0  0  0  0  0  0  0  0  0  0  0  0
    3.1561    4.1819    0.0000 H   0  0  0  0  0  0  0  0  0  0  0  0
    6.2317    5.4228    0.0000 H   0  0  0  0  0  0  0  0  0  0  0  0
    6.9283    5.0873    0.0000 H   0  0  0  0  0  0  0  0  0  0  0  0
    3.5437    2.7636    0.0000 H   0  0  0  0  0  0  0  0  0  0  0  0
    6.5252    1.3278    0.0000 H   0  0  0  0  0  0  0  0  0  0  0  0
    3.6553    1.1016    0.0000 H   0  0  0  0  0  0  0  0  0  0  0  0
    8.5758    3.4165    0.0000 H   0  0  0  0  0  0  0  0  0  0  0  0
    6.8263    1.2227    0.0000 H   0  0  0  0  0  0  0  0  0  0  0  0
    9.8423    2.4064    0.0000 H   0  0  0  0  0  0  0  0  0  0  0  0
    8.0929    0.2127    0.0000 H   0  0  0  0  0  0  0  0  0  0  0  0
    9.6009    0.8045    0.0000 H   0  0  0  0  0  0  0  0  0  0  0  0
    5.3542    9.5778    0.0000 H   0  0  0  0  0  0  0  0  0  0  0  0
    4.4881   11.3178    0.0000 H   0  0  0  0  0  0  0  0  0  0  0  0
    7.6232   10.5078    0.0000 H   0  0  0  0  0  0  0  0  0  0  0  0
    2.2192   10.3878    0.0000 H   0  0  0  0  0  0  0  0  0  0  0  0
  1 26  1  0  0  0  0
  2 18  2  0  0  0  0
  3 34  1  0  0  0  0
  3 62  1  0  0  0  0
  4 35  1  0  0  0  0
  4 63  1  0  0  0  0
  5 34  2  0  0  0  0
  6 35  2  0  0  0  0
  7 10  1  0  0  0  0
  7 11  1  0  0  0  0
  7 15  1  0  0  0  0
  8 16  1  0  0  0  0
  8 17  1  0  0  0  0
  8 18  1  0  0  0  0
  9 20  1  0  0  0  0
  9 21  2  0  0  0  0
 10 12  1  0  0  0  0
 10 36  1  0  0  0  0
 10 37  1  0  0  0  0
 11 13  1  0  0  0  0
 11 38  1  0  0  0  0
 11 39  1  0  0  0  0
 12 14  1  0  0  0  0
 12 40  1  0  0  0  0
 12 41  1  0  0  0  0
 13 14  1  0  0  0  0
 13 42  1  0  0  0  0
 13 43  1  0  0  0  0
 14 44  1  0  0  0  0
 14 45  1  0  0  0  0
 15 16  1  0  0  0  0
 15 46  1  0  0  0  0
 15 47  1  0  0  0  0
 16 48  1  0  0  0  0
 16 49  1  0  0  0  0
 17 19  2  0  0  0  0
 17 22  1  0  0  0  0
 18 20  1  0  0  0  0
 19 21  1  0  0  0  0
 19 23  1  0  0  0  0
 20 50  1  0  0  0  0
 20 51  1  0  0  0  0
 21 25  1  0  0  0  0
 22 24  2  0  0  0  0
 22 52  1  0  0  0  0
 23 26  2  0  0  0  0
 23 53  1  0  0  0  0
 24 26  1  0  0  0  0
 24 54  1  0  0  0  0
 25 27  2  0  0  0  0
 25 28  1  0  0  0  0
 27 29  1  0  0  0  0
 27 55  1  0  0  0  0
 28 30  2  0  0  0  0
 28 56  1  0  0  0  0
 29 31  2  0  0  0  0
 29 57  1  0  0  0  0
 30 31  1  0  0  0  0
 30 58  1  0  0  0  0
 31 59  1  0  0  0  0
 32 33  2  3  0  0  0
 32 34  1  0  0  0  0
 32 60  1  0  0  0  0
 33 35  1  0  0  0  0
 33 61  1  0  0  0  0
M  END
> <PUBCHEM_COMPOUND_CID>
13996

> <PUBCHEM_COMPOUND_CANONICALIZED>
1

> <PUBCHEM_CACTVS_COMPLEXITY>
659

> <PUBCHEM_CACTVS_HBOND_ACCEPTOR>
7

> <PUBCHEM_CACTVS_HBOND_DONOR>
2

> <PUBCHEM_CACTVS_ROTATABLE_BOND>
6

> <PUBCHEM_CACTVS_SUBSKEYS>
AAADceB7OAAEAAAAAAAAAAAAAAAAAAAAAAA8YIAABAAAAAABQAAAHgIACAAADArBmCQwyIMAAgCoAyXyXACCAAAhBwAIiACoZtgIZKLBk5GUMAhghgDI2YcQgMAOAABAIAACAAAAAIBAAAQAAAAAAAAAAA==

> <PUBCHEM_IUPAC_OPENEYE_NAME>
but-2-enedioic acid; 7-chloro-5-phenyl-1-[2-(1-piperidyl)ethyl]-3H-1,4-benzodiazepin-2-one

> <PUBCHEM_IUPAC_CAS_NAME>
but-2-enedioic acid; 7-chloro-5-phenyl-1-[2-(1-piperidinyl)ethyl]-3H-1,4-benzodiazepin-2-one

> <PUBCHEM_IUPAC_NAME>
but-2-enedioic acid; 7-chloro-5-phenyl-1-(2-piperidin-1-ylethyl)-3H-1,4-benzodiazepin-2-one

> <PUBCHEM_IUPAC_SYSTEMATIC_NAME>
but-2-enedioic acid; 7-chloranyl-5-phenyl-1-(2-piperidin-1-ylethyl)-3H-1,4-benzodiazepin-2-one

> <PUBCHEM_IUPAC_TRADITIONAL_NAME>
but-2-enedioic acid; 7-chloro-5-phenyl-1-(2-piperidinoethyl)-3H-1,4-benzodiazepin-2-one

> <PUBCHEM_IUPAC_INCHI>
InChI=1S/C22H24ClN3O.C4H4O4/c23-18-9-10-20-19(15-18)22(17-7-3-1-4-8-17)24-16-21(27)26(20)14-13-25-11-5-2-6-12-25;5-3(6)1-2-4(7)8/h1,3-4,7-10,15H,2,5-6,11-14,16H2;1-2H,(H,5,6)(H,7,8)

> <PUBCHEM_IUPAC_INCHIKEY>
ORGASLDGMIWPHX-UHFFFAOYSA-N

> <PUBCHEM_XLOGP3_AA>
3.574

> <PUBCHEM_EXACT_MASS>
497.171749

> <PUBCHEM_MOLECULAR_FORMULA>
C26H28ClN3O5

> <PUBCHEM_MOLECULAR_WEIGHT>
497.97062

> <PUBCHEM_OPENEYE_CAN_SMILES>
C1CCN(CC1)CCN2C(=O)CN=C(C3=C2C=CC(=C3)Cl)C4=CC=CC=C4.C(=CC(=O)O)C(=O)O

> <PUBCHEM_OPENEYE_ISO_SMILES>
C1CCN(CC1)CCN2C(=O)CN=C(C3=C2C=CC(=C3)Cl)C4=CC=CC=C4.C(=CC(=O)O)C(=O)O

> <PUBCHEM_CACTVS_TPSA>
111

> <PUBCHEM_MONOISOTOPIC_WEIGHT>
497.171749

> <PUBCHEM_TOTAL_CHARGE>
0

> <PUBCHEM_HEAVY_ATOM_COUNT>
35

> <PUBCHEM_ATOM_DEF_STEREO_COUNT>
0

> <PUBCHEM_ATOM_UDEF_STEREO_COUNT>
0

> <PUBCHEM_BOND_DEF_STEREO_COUNT>
0

> <PUBCHEM_BOND_UDEF_STEREO_COUNT>
1

> <PUBCHEM_ISOTOPIC_ATOM_COUNT>
0

> <PUBCHEM_COMPONENT_COUNT>
2

> <PUBCHEM_CACTVS_TAUTO_COUNT>
1

> <PUBCHEM_COORDINATE_TYPE>
1
5
255

> <PUBCHEM_BONDANNOTATIONS>
17  19  8
17  22  8
19  23  8
22  24  8
23  26  8
24  26  8
25  27  8
25  28  8
27  29  8
28  30  8
29  31  8
30  31  8
32  33  1

$$$$

