   Color/Form

     * CRYSTALS
     * WHITE CRYSTALLINE POWDER

   from [1]HSDB

   Odor
        ODORLESS
   from [2]HSDB

   Taste

     * PRACTICALLY TASTELESS
     * SLIGHTLY BITTER TASTE

   from [3]HSDB

   Melting Point
        281-282 DEG C
   from [4]HSDB

   Octanol/Water Partition Coefficient
        Log Kow = 0.91
   from [5]HSDB

   pH
        NO ACIDIC PROPERTIES
   from [6]HSDB

   Solubilities

     * SPARINGLY SOL IN WATER (0.6 G/L @ 37 DEG C); SPARINGLY SOL IN MOST
       ORG SOLVENTS
     * In water, 5.0X10+2 mg/l at 25 deg C.

   from [7]HSDB

   Spectral Properties

     * MAX ABSORPTION (ACID & BASE SALT): 257, 251 & 263 NM (A= 10, 8 & 8,
       1%, 1 CM)
     * UV: 1299 (Absorption Spectra in the UV and visible Regions,
       Academic Press, New York)
     * MASS: 2-592 (Archives of Mass Spectral Data, John Wiley & Sons, New
       York)
     * Intense mass spectral peaks: 117 m/z, 146 m/z, 161 m/z, 190 m/z,
       218 m/z

   from [8]HSDB

   Computed Properties
   Molecular Weight                  218.25176 [g/mol]
   Molecular Formula                 C[12]H[14]N[2]O[2]
   XLogP3                            0.9
   H-Bond Donor                      2
   H-Bond Acceptor                   2
   Rotatable Bond Count              2
   Tautomer Count                    3
   Exact Mass                        218.105528
   MonoIsotopic Mass                 218.105528
   Topological Polar Surface Area    58.2
   Heavy Atom Count                  16
   Formal Charge                     0
   Complexity                        279
   Isotope Atom Count                0
   Defined Atom Stereocenter Count   0
   Undefined Atom Stereocenter Count 0
   Defined Bond Stereocenter Count   0
   Undefined Bond Stereocenter Count 0
   Covalently-Bonded Unit Count      1
   Feature 3D Acceptor Count         2
   Feature 3D Donor Count            2
   Feature 3D Hydrophobe Count       1
   Feature 3D Ring Count             2
   Effective Rotor Count             2.8
   Conformer Sampling RMSD           0.6
   CID Conformer Count               [9]6

References

   1. http://toxnet.nlm.nih.gov/cgi-bin/sis/search/r?dbs+hsdb:@term+@rn+@rel+125-33-7
   2. http://toxnet.nlm.nih.gov/cgi-bin/sis/search/r?dbs+hsdb:@term+@rn+@rel+125-33-7
   3. http://toxnet.nlm.nih.gov/cgi-bin/sis/search/r?dbs+hsdb:@term+@rn+@rel+125-33-7
   4. http://toxnet.nlm.nih.gov/cgi-bin/sis/search/r?dbs+hsdb:@term+@rn+@rel+125-33-7
   5. http://toxnet.nlm.nih.gov/cgi-bin/sis/search/r?dbs+hsdb:@term+@rn+@rel+125-33-7
   6. http://toxnet.nlm.nih.gov/cgi-bin/sis/search/r?dbs+hsdb:@term+@rn+@rel+125-33-7
   7. http://toxnet.nlm.nih.gov/cgi-bin/sis/search/r?dbs+hsdb:@term+@rn+@rel+125-33-7
   8. http://toxnet.nlm.nih.gov/cgi-bin/sis/search/r?dbs+hsdb:@term+@rn+@rel+125-33-7
   9. http://pubchem.ncbi.nlm.nih.gov/vw3d/vw3d.cgi?cid=4909
