11954120
  -OEChem-07051213062D

 68 72  0     1  0  0  0  0  0999 V2000
   13.6230    2.4203    0.0000 S   0  0  0  0  0  0  0  0  0  0  0  0
   12.6445    2.2141    0.0000 O   0  0  0  0  0  0  0  0  0  0  0  0
   14.6015    2.6266    0.0000 O   0  0  0  0  0  0  0  0  0  0  0  0
    5.9945   -2.0935    0.0000 O   0  0  0  0  0  0  0  0  0  0  0  0
   13.4167    3.3988    0.0000 O   0  0  0  0  0  0  0  0  0  0  0  0
   13.8292    1.4418    0.0000 O   0  0  0  0  0  0  0  0  0  0  0  0
    5.1343   -0.5901    0.0000 O   0  0  0  0  0  0  0  0  0  0  0  0
    4.2586   -3.0868    0.0000 O   0  0  0  0  0  0  0  0  0  0  0  0
    2.5304   -2.0801    0.0000 O   0  0  0  0  0  0  0  0  0  0  0  0
    2.5381   -0.0801    0.0000 O   0  0  0  0  0  0  0  0  0  0  0  0
    3.4099    1.4165    0.0000 O   0  0  0  0  0  0  0  0  0  0  0  0
    5.1420    1.4098    0.0000 O   0  0  0  0  0  0  0  0  0  0  0  0
   11.3876    0.9589    0.0000 C   0  0  1  0  0  0  0  0  0  0  0  0
   11.3876   -0.0411    0.0000 C   0  0  2  0  0  0  0  0  0  0  0  0
   10.5216   -0.5411    0.0000 C   0  0  1  0  0  0  0  0  0  0  0  0
    9.6555   -0.0411    0.0000 C   0  0  2  0  0  0  0  0  0  0  0  0
   12.3338    1.2636    0.0000 C   0  0  2  0  0  0  0  0  0  0  0  0
   10.5216    1.4589    0.0000 C   0  0  0  0  0  0  0  0  0  0  0  0
   12.3338   -0.3459    0.0000 C   0  0  0  0  0  0  0  0  0  0  0  0
    9.6555    0.9589    0.0000 C   0  0  0  0  0  0  0  0  0  0  0  0
   12.9174    0.4589    0.0000 C   0  0  0  0  0  0  0  0  0  0  0  0
   10.5376   -1.5826    0.0000 C   0  0  0  0  0  0  0  0  0  0  0  0
   11.3876    1.9589    0.0000 C   0  0  0  0  0  0  0  0  0  0  0  0
    8.7455   -0.5480    0.0000 C   0  0  0  0  0  0  0  0  0  0  0  0
    9.6396   -2.1104    0.0000 C   0  0  0  0  0  0  0  0  0  0  0  0
    8.7375   -1.5896    0.0000 C   0  0  0  0  0  0  0  0  0  0  0  0
    7.8187    0.0161    0.0000 C   0  0  0  0  0  0  0  0  0  0  0  0
    7.8021   -2.1393    0.0000 C   0  0  0  0  0  0  0  0  0  0  0  0
    6.8708   -0.5118    0.0000 C   0  0  0  0  0  0  0  0  0  0  0  0
    6.8624   -1.5968    0.0000 C   0  0  0  0  0  0  0  0  0  0  0  0
    5.1304   -1.5901    0.0000 C   0  0  2  0  0  0  0  0  0  0  0  0
    4.2625   -2.0868    0.0000 C   0  0  1  0  0  0  0  0  0  0  0  0
    3.3984   -1.5834    0.0000 C   0  0  2  0  0  0  0  0  0  0  0  0
    3.4022   -0.5835    0.0000 C   0  0  1  0  0  0  0  0  0  0  0  0
    4.2702   -0.0868    0.0000 C   0  0  1  0  0  0  0  0  0  0  0  0
    4.2740    0.9132    0.0000 C   0  0  0  0  0  0  0  0  0  0  0  0
   11.4775   -0.8864    0.0000 H   0  0  0  0  0  0  0  0  0  0  0  0
   11.2609   -0.9604    0.0000 H   0  0  0  0  0  0  0  0  0  0  0  0
   10.3916    0.3839    0.0000 H   0  0  0  0  0  0  0  0  0  0  0  0
   11.8963    1.7030    0.0000 H   0  0  0  0  0  0  0  0  0  0  0  0
   10.9201    1.9338    0.0000 H   0  0  0  0  0  0  0  0  0  0  0  0
   10.1230    1.9338    0.0000 H   0  0  0  0  0  0  0  0  0  0  0  0
   12.0828   -0.9128    0.0000 H   0  0  0  0  0  0  0  0  0  0  0  0
   12.8712   -0.6551    0.0000 H   0  0  0  0  0  0  0  0  0  0  0  0
    9.4435    1.5415    0.0000 H   0  0  0  0  0  0  0  0  0  0  0  0
    9.0450    0.8512    0.0000 H   0  0  0  0  0  0  0  0  0  0  0  0
   13.3783    0.0441    0.0000 H   0  0  0  0  0  0  0  0  0  0  0  0
   13.3783    0.8736    0.0000 H   0  0  0  0  0  0  0  0  0  0  0  0
   10.7556   -2.1630    0.0000 H   0  0  0  0  0  0  0  0  0  0  0  0
   11.1468   -1.4671    0.0000 H   0  0  0  0  0  0  0  0  0  0  0  0
   12.0076    1.9589    0.0000 H   0  0  0  0  0  0  0  0  0  0  0  0
   11.3876    2.5789    0.0000 H   0  0  0  0  0  0  0  0  0  0  0  0
   10.7676    1.9589    0.0000 H   0  0  0  0  0  0  0  0  0  0  0  0
    9.2423   -2.5864    0.0000 H   0  0  0  0  0  0  0  0  0  0  0  0
   10.0405   -2.5833    0.0000 H   0  0  0  0  0  0  0  0  0  0  0  0
    7.8306    0.6360    0.0000 H   0  0  0  0  0  0  0  0  0  0  0  0
    7.8045   -2.7593    0.0000 H   0  0  0  0  0  0  0  0  0  0  0  0
    6.3375   -0.1957    0.0000 H   0  0  0  0  0  0  0  0  0  0  0  0
   14.7941    3.2159    0.0000 H   0  0  0  0  0  0  0  0  0  0  0  0
    5.1280   -2.2101    0.0000 H   0  0  0  0  0  0  0  0  0  0  0  0
    3.7243   -2.3947    0.0000 H   0  0  0  0  0  0  0  0  0  0  0  0
    2.8626   -1.2714    0.0000 H   0  0  0  0  0  0  0  0  0  0  0  0
    2.8641   -0.8914    0.0000 H   0  0  0  0  0  0  0  0  0  0  0  0
    4.8083    0.2211    0.0000 H   0  0  0  0  0  0  0  0  0  0  0  0
    4.7943   -3.3988    0.0000 H   0  0  0  0  0  0  0  0  0  0  0  0
    2.5280   -2.7001    0.0000 H   0  0  0  0  0  0  0  0  0  0  0  0
    2.0000   -0.3881    0.0000 H   0  0  0  0  0  0  0  0  0  0  0  0
    3.4123    2.0365    0.0000 H   0  0  0  0  0  0  0  0  0  0  0  0
  1  2  1  0  0  0  0
  1  3  1  0  0  0  0
  1  5  2  0  0  0  0
  1  6  2  0  0  0  0
 17  2  1  1  0  0  0
  3 59  1  0  0  0  0
  4 30  1  0  0  0  0
 31  4  1  1  0  0  0
  7 31  1  0  0  0  0
  7 35  1  0  0  0  0
 32  8  1  6  0  0  0
  8 65  1  0  0  0  0
 33  9  1  1  0  0  0
  9 66  1  0  0  0  0
 34 10  1  6  0  0  0
 10 67  1  0  0  0  0
 11 36  1  0  0  0  0
 11 68  1  0  0  0  0
 12 36  2  0  0  0  0
 13 14  1  0  0  0  0
 13 17  1  0  0  0  0
 13 18  1  0  0  0  0
 13 23  1  1  0  0  0
 14 15  1  0  0  0  0
 14 19  1  0  0  0  0
 14 37  1  6  0  0  0
 15 16  1  0  0  0  0
 15 22  1  0  0  0  0
 15 38  1  1  0  0  0
 16 20  1  0  0  0  0
 16 24  1  0  0  0  0
 16 39  1  6  0  0  0
 17 21  1  0  0  0  0
 17 40  1  0  0  0  0
 18 20  1  0  0  0  0
 18 41  1  0  0  0  0
 18 42  1  0  0  0  0
 19 21  1  0  0  0  0
 19 43  1  0  0  0  0
 19 44  1  0  0  0  0
 20 45  1  0  0  0  0
 20 46  1  0  0  0  0
 21 47  1  0  0  0  0
 21 48  1  0  0  0  0
 22 25  1  0  0  0  0
 22 49  1  0  0  0  0
 22 50  1  0  0  0  0
 23 51  1  0  0  0  0
 23 52  1  0  0  0  0
 23 53  1  0  0  0  0
 24 26  2  0  0  0  0
 24 27  1  0  0  0  0
 25 26  1  0  0  0  0
 25 54  1  0  0  0  0
 25 55  1  0  0  0  0
 26 28  1  0  0  0  0
 27 29  2  0  0  0  0
 27 56  1  0  0  0  0
 28 30  2  0  0  0  0
 28 57  1  0  0  0  0
 29 30  1  0  0  0  0
 29 58  1  0  0  0  0
 31 32  1  0  0  0  0
 31 60  1  0  0  0  0
 32 33  1  0  0  0  0
 32 61  1  0  0  0  0
 33 34  1  0  0  0  0
 33 62  1  0  0  0  0
 34 35  1  0  0  0  0
 34 63  1  0  0  0  0
 35 36  1  1  0  0  0
 35 64  1  0  0  0  0
M  END
> <PUBCHEM_COMPOUND_CID>
11954120

> <PUBCHEM_COMPOUND_CANONICALIZED>
1

> <PUBCHEM_CACTVS_COMPLEXITY>
937

> <PUBCHEM_CACTVS_HBOND_ACCEPTOR>
11

> <PUBCHEM_CACTVS_HBOND_DONOR>
5

> <PUBCHEM_CACTVS_ROTATABLE_BOND>
5

> <PUBCHEM_CACTVS_SUBSKEYS>
AAADcfB4PABAAAAAAAAAAAAAAAAAAYAAAAA0YMEAAAAAAGDBAAAAGgAACAAADxSwmAMyDoAABoCIAiDSCDICCAAgIAAIiAFGCIgdNjaEMR6ieCCl4BEPqAfK7PxPoAABAAAQAADAAAYAACAAAIAADAAAAA==

> <PUBCHEM_IUPAC_OPENEYE_NAME>
(2S,3S,4S,5R,6S)-3,4,5-trihydroxy-6-[[(8R,9S,13S,14S,17S)-13-methyl-17-sulfooxy-6,7,8,9,11,12,14,15,16,17-decahydrocyclopenta[a]phenanthren-3-yl]oxy]tetrahydropyran-2-carboxylic acid

> <PUBCHEM_IUPAC_CAS_NAME>
(2S,3S,4S,5R,6S)-3,4,5-trihydroxy-6-[[(8R,9S,13S,14S,17S)-13-methyl-17-sulfooxy-6,7,8,9,11,12,14,15,16,17-decahydrocyclopenta[a]phenanthren-3-yl]oxy]-2-oxanecarboxylic acid

> <PUBCHEM_IUPAC_NAME>
(2S,3S,4S,5R,6S)-3,4,5-trihydroxy-6-[[(8R,9S,13S,14S,17S)-13-methyl-17-sulfooxy-6,7,8,9,11,12,14,15,16,17-decahydrocyclopenta[a]phenanthren-3-yl]oxy]oxane-2-carboxylic acid

> <PUBCHEM_IUPAC_SYSTEMATIC_NAME>
(2S,3S,4S,5R,6S)-6-[[(8R,9S,13S,14S,17S)-13-methyl-17-sulfooxy-6,7,8,9,11,12,14,15,16,17-decahydrocyclopenta[a]phenanthren-3-yl]oxy]-3,4,5-tris(oxidanyl)oxane-2-carboxylic acid

> <PUBCHEM_IUPAC_TRADITIONAL_NAME>
(2S,3S,4S,5R,6S)-3,4,5-trihydroxy-6-[[(8R,9S,13S,14S,17S)-13-methyl-17-sulfoxy-6,7,8,9,11,12,14,15,16,17-decahydrocyclopenta[a]phenanthren-3-yl]oxy]tetrahydropyran-2-carboxylic acid

> <PUBCHEM_IUPAC_INCHI>
InChI=1S/C24H32O11S/c1-24-9-8-14-13-5-3-12(33-23-20(27)18(25)19(26)21(34-23)22(28)29)10-11(13)2-4-15(14)16(24)6-7-17(24)35-36(30,31)32/h3,5,10,14-21,23,25-27H,2,4,6-9H2,1H3,(H,28,29)(H,30,31,32)/t14-,15-,16+,17+,18+,19+,20-,21+,23-,24+/m1/s1

> <PUBCHEM_IUPAC_INCHIKEY>
XZXBPAODZJETKT-QXYWQCSFSA-N

> <PUBCHEM_XLOGP3_AA>
2

> <PUBCHEM_EXACT_MASS>
528.166533

> <PUBCHEM_MOLECULAR_FORMULA>
C24H32O11S

> <PUBCHEM_MOLECULAR_WEIGHT>
528.56928

> <PUBCHEM_OPENEYE_CAN_SMILES>
CC12CCC3C(C1CCC2OS(=O)(=O)O)CCC4=C3C=CC(=C4)OC5C(C(C(C(O5)C(=O)O)O)O)O

> <PUBCHEM_OPENEYE_ISO_SMILES>
C[C@]12CC[C@H]3[C@H]([C@@H]1CC[C@@H]2OS(=O)(=O)O)CCC4=C3C=CC(=C4)O[C@H]5[C@@H]([C@H]([C@@H]([C@H](O5)C(=O)O)O)O)O

> <PUBCHEM_CACTVS_TPSA>
188

> <PUBCHEM_MONOISOTOPIC_WEIGHT>
528.166533

> <PUBCHEM_TOTAL_CHARGE>
0

> <PUBCHEM_HEAVY_ATOM_COUNT>
36

> <PUBCHEM_ATOM_DEF_STEREO_COUNT>
10

> <PUBCHEM_ATOM_UDEF_STEREO_COUNT>
0

> <PUBCHEM_BOND_DEF_STEREO_COUNT>
0

> <PUBCHEM_BOND_UDEF_STEREO_COUNT>
0

> <PUBCHEM_ISOTOPIC_ATOM_COUNT>
0

> <PUBCHEM_COMPONENT_COUNT>
1

> <PUBCHEM_CACTVS_TAUTO_COUNT>
1

> <PUBCHEM_COORDINATE_TYPE>
1
5
255

> <PUBCHEM_BONDANNOTATIONS>
34  10  6
13  23  5
14  37  6
15  38  5
16  39  6
17  2  5
24  26  8
24  27  8
26  28  8
27  29  8
28  30  8
29  30  8
35  36  5
31  4  5
32  8  6
33  9  5

$$$$

