   Color/Form
        RHOMBIC OR HEXAGONAL LEAFLETS FROM ACETONE OR ALCOHOL
   from [1]HSDB

   Melting Point
        222-223 DEG C
   from [2]HSDB

   Spectral Properties
        SPECIFIC OPTICAL ROTATION (CHLOROFORM, 1.0417%): +105.6 DEG @ 17
   DEG C/D
   from [3]HSDB

   Other Chemical/Physical Properties

     * MAX ABSORPTION: 240 NM (LOG E= 4.33) /ACETATE/
     * ODORLESS OR HAS SLIGHT ODOR /CAPROATE/
     * WITH SLOW HEATING UNDERGOES MOLECULAR REARRANGEMENT ACCOMPANIED BY
       PARTIAL RESOLIDIFICATION & BECOMES MOLTEN @ 276 DEG C
     * CRYSTALS FROM CHLOROFORM + METHANOL /ACETATE/
     * WHITE CRYSTALLINE SOLID /ACETATE/
     * WHITE OR CREAMY WHITE, CRYSTALLINE POWDER /CAPROATE/
     * WHITE NEEDLES /CAPROATE/
     * SLIGHTLY SOL IN WATER & SOL IN ALCOHOL /ACETATE/
     * INSOL IN WATER; 1 G IN ABOUT 20 ML ETHER /CAPROATE/
     * 1 G IN ABOUT 800 ML BENZENE /CAPROATE/

   from [4]HSDB

   Computed Properties
   Molecular Weight                  330.4611 [g/mol]
   Molecular Formula                 C[21]H[30]O[3]
   XLogP3                            3.2
   H-Bond Donor                      1
   H-Bond Acceptor                   3
   Rotatable Bond Count              1
   Tautomer Count                    10
   Exact Mass                        330.219495
   MonoIsotopic Mass                 330.219495
   Topological Polar Surface Area    54.4
   Heavy Atom Count                  24
   Formal Charge                     0
   Complexity                        635
   Isotope Atom Count                0
   Defined Atom Stereocenter Count   6
   Undefined Atom Stereocenter Count 0
   Defined Bond Stereocenter Count   0
   Undefined Bond Stereocenter Count 0
   Covalently-Bonded Unit Count      1
   Feature 3D Acceptor Count         3
   Feature 3D Donor Count            1
   Feature 3D Ring Count             4
   Effective Rotor Count             2.8
   Conformer Sampling RMSD           0.6
   CID Conformer Count               [5]3

References

   1. http://toxnet.nlm.nih.gov/cgi-bin/sis/search/r?dbs+hsdb:@term+@rn+@rel+68-96-2
   2. http://toxnet.nlm.nih.gov/cgi-bin/sis/search/r?dbs+hsdb:@term+@rn+@rel+68-96-2
   3. http://toxnet.nlm.nih.gov/cgi-bin/sis/search/r?dbs+hsdb:@term+@rn+@rel+68-96-2
   4. http://toxnet.nlm.nih.gov/cgi-bin/sis/search/r?dbs+hsdb:@term+@rn+@rel+68-96-2
   5. http://pubchem.ncbi.nlm.nih.gov/vw3d/vw3d.cgi?cid=6238
