   Color/Form
        Yellow crystals from benzene
   from [1]HSDB

   Odor
        ODORLESS
   from [2]HSDB

   Melting Point
        171 deg C
   from [3]HSDB

   Corrosivity
        Non-corrosive
   from [4]HSDB

   Density/Specific Gravity
        1.556 g/cu cm at 20 deg C
   from [5]HSDB

   Octanol/Water Partition Coefficient
        log Kow = 3.78 at 20 deg C
   from [6]HSDB

   Solubilities

     * Solubility (g/L at 20 deg C) in: toluene, 25; dichloromethane, 40;
       hexane, 1.8; isopropanol, 0.9; cyclohexanone, 18;
       dimethylformamide, 10; petroleum oils, 4
     * In water, 1 mg/L at 20 deg C

   from [7]HSDB

   Spectral Properties

     * Intense mass spectral peaks: 234 m/z (100%), 206 m/z (96%), 116 m/z
       (54%), 174 m/z (41%)
     * Mass spectra and infrared spectra of oxythioquinox and its
       photoproducts.

   from [8]HSDB

   Vapor Pressure
        0.026 mPa (2.0X10-7 mm Hg) at 20 deg C
   from [9]HSDB

   Other Chemical/Physical Properties

     * Relatively stable under normal conditions; hydrolyzes in alkaline
       media
     * Henry's Law constant = 6.2X10-8 atm-cu m/mol at 25 deg C
       /Estimated/
     * Hydroxyl radical reaction rate constant = 3.4X10-12 cu cm/molec-sec
       at 25 deg C /Estimated/

   from [10]HSDB

   Computed Properties
   Molecular Weight                  234.29744 [g/mol]
   Molecular Formula                 C[10]H[6]N[2]OS[2]
   XLogP3-AA                         3.1
   H-Bond Donor                      0
   H-Bond Acceptor                   5
   Rotatable Bond Count              0
   Exact Mass                        233.992155
   MonoIsotopic Mass                 233.992155
   Topological Polar Surface Area    93.4
   Heavy Atom Count                  15
   Formal Charge                     0
   Complexity                        287
   Isotope Atom Count                0
   Defined Atom Stereocenter Count   0
   Undefined Atom Stereocenter Count 0
   Defined Bond Stereocenter Count   0
   Undefined Bond Stereocenter Count 0
   Covalently-Bonded Unit Count      1
   Feature 3D Acceptor Count         2
   Feature 3D Ring Count             3
   Effective Rotor Count             0
   Conformer Sampling RMSD           0.4
   CID Conformer Count               [11]1

References

   1. http://toxnet.nlm.nih.gov/cgi-bin/sis/search/r?dbs+hsdb:@term+@rn+@rel+2439-01-2
   2. http://toxnet.nlm.nih.gov/cgi-bin/sis/search/r?dbs+hsdb:@term+@rn+@rel+2439-01-2
   3. http://toxnet.nlm.nih.gov/cgi-bin/sis/search/r?dbs+hsdb:@term+@rn+@rel+2439-01-2
   4. http://toxnet.nlm.nih.gov/cgi-bin/sis/search/r?dbs+hsdb:@term+@rn+@rel+2439-01-2
   5. http://toxnet.nlm.nih.gov/cgi-bin/sis/search/r?dbs+hsdb:@term+@rn+@rel+2439-01-2
   6. http://toxnet.nlm.nih.gov/cgi-bin/sis/search/r?dbs+hsdb:@term+@rn+@rel+2439-01-2
   7. http://toxnet.nlm.nih.gov/cgi-bin/sis/search/r?dbs+hsdb:@term+@rn+@rel+2439-01-2
   8. http://toxnet.nlm.nih.gov/cgi-bin/sis/search/r?dbs+hsdb:@term+@rn+@rel+2439-01-2
   9. http://toxnet.nlm.nih.gov/cgi-bin/sis/search/r?dbs+hsdb:@term+@rn+@rel+2439-01-2
  10. http://toxnet.nlm.nih.gov/cgi-bin/sis/search/r?dbs+hsdb:@term+@rn+@rel+2439-01-2
  11. http://pubchem.ncbi.nlm.nih.gov/vw3d/vw3d.cgi?cid=17109
