2724385
  -OEChem-07051212522D

119126  0     1  0  0  0  0  0999 V2000
   18.3157   -1.5584    0.0000 O   0  0  0  0  0  0  0  0  0  0  0  0
   17.4497    1.9416    0.0000 O   0  0  0  0  0  0  0  0  0  0  0  0
   12.9226   -2.6107    0.0000 O   0  0  0  0  0  0  0  0  0  0  0  0
   19.5754    3.3149    0.0000 O   0  0  0  0  0  0  0  0  0  0  0  0
   12.0624   -1.1074    0.0000 O   0  0  0  0  0  0  0  0  0  0  0  0
   21.3360    3.5906    0.0000 O   0  0  0  0  0  0  0  0  0  0  0  0
    9.4586   -2.5973    0.0000 O   0  0  0  0  0  0  0  0  0  0  0  0
    9.4663   -0.5973    0.0000 O   0  0  0  0  0  0  0  0  0  0  0  0
    8.5945   -2.0940    0.0000 O   0  0  0  0  0  0  0  0  0  0  0  0
    5.9945   -2.5840    0.0000 O   0  0  0  0  0  0  0  0  0  0  0  0
    6.0022   -0.5840    0.0000 O   0  0  0  0  0  0  0  0  0  0  0  0
    4.2625   -2.5773    0.0000 O   0  0  0  0  0  0  0  0  0  0  0  0
    4.2740    0.4227    0.0000 O   0  0  0  0  0  0  0  0  0  0  0  0
    2.5381   -0.5706    0.0000 O   0  0  0  0  0  0  0  0  0  0  0  0
   18.3157   -0.5584    0.0000 C   0  0  1  0  0  0  0  0  0  0  0  0
   17.4497   -1.0584    0.0000 C   0  0  1  0  0  0  0  0  0  0  0  0
   16.5837   -0.5584    0.0000 C   0  0  1  0  0  0  0  0  0  0  0  0
   18.3157    0.4416    0.0000 C   0  0  2  0  0  0  0  0  0  0  0  0
   15.6737   -1.0652    0.0000 C   0  0  2  0  0  0  0  0  0  0  0  0
   15.6656   -2.1068    0.0000 C   0  0  2  0  0  0  0  0  0  0  0  0
   17.4497    0.9416    0.0000 C   0  0  1  0  0  0  0  0  0  0  0  0
   16.5837    0.4416    0.0000 C   0  0  0  0  0  0  0  0  0  0  0  0
   19.2619    0.7464    0.0000 C   0  0  2  0  0  0  0  0  0  0  0  0
   19.2619   -0.8631    0.0000 C   0  0  0  0  0  0  0  0  0  0  0  0
   17.4658   -2.0999    0.0000 C   0  0  0  0  0  0  0  0  0  0  0  0
   16.5677   -2.6276    0.0000 C   0  0  0  0  0  0  0  0  0  0  0  0
   19.8456   -0.0584    0.0000 C   0  0  0  0  0  0  0  0  0  0  0  0
   14.7468   -0.5011    0.0000 C   0  0  0  0  0  0  0  0  0  0  0  0
   18.3157    1.4416    0.0000 C   0  0  0  0  0  0  0  0  0  0  0  0
   14.7302   -2.6565    0.0000 C   0  0  0  0  0  0  0  0  0  0  0  0
   15.6814   -0.0652    0.0000 C   0  0  0  0  0  0  0  0  0  0  0  0
   13.7990   -1.0291    0.0000 C   0  0  0  0  0  0  0  0  0  0  0  0
   13.7906   -2.1140    0.0000 C   0  0  2  0  0  0  0  0  0  0  0  0
   19.5726    1.6969    0.0000 C   0  0  0  0  0  0  0  0  0  0  0  0
   18.9862    2.5069    0.0000 C   0  0  0  0  0  0  0  0  0  0  0  0
   20.5242    2.0043    0.0000 C   0  0  0  0  0  0  0  0  0  0  0  0
   20.5259    3.0043    0.0000 C   0  0  0  0  0  0  0  0  0  0  0  0
   12.0586   -2.1074    0.0000 C   0  0  2  0  0  0  0  0  0  0  0  0
   11.1906   -2.6040    0.0000 C   0  0  0  0  0  0  0  0  0  0  0  0
   10.3265   -2.1007    0.0000 C   0  0  1  0  0  0  0  0  0  0  0  0
   11.1983   -0.6040    0.0000 C   0  0  1  0  0  0  0  0  0  0  0  0
   10.3304   -1.1007    0.0000 C   0  0  1  0  0  0  0  0  0  0  0  0
   11.2022    0.3960    0.0000 C   0  0  0  0  0  0  0  0  0  0  0  0
    8.5983   -1.0940    0.0000 C   0  0  2  0  0  0  0  0  0  0  0  0
    7.7342   -0.5907    0.0000 C   0  0  0  0  0  0  0  0  0  0  0  0
    6.8663   -1.0873    0.0000 C   0  0  1  0  0  0  0  0  0  0  0  0
    7.7265   -2.5907    0.0000 C   0  0  1  0  0  0  0  0  0  0  0  0
    6.8624   -2.0873    0.0000 C   0  0  1  0  0  0  0  0  0  0  0  0
    7.7227   -3.5906    0.0000 C   0  0  0  0  0  0  0  0  0  0  0  0
    5.1304   -2.0806    0.0000 C   0  0  2  0  0  0  0  0  0  0  0  0
    5.1343   -1.0807    0.0000 C   0  0  0  0  0  0  0  0  0  0  0  0
    4.2702   -0.5773    0.0000 C   0  0  1  0  0  0  0  0  0  0  0  0
    3.3984   -2.0740    0.0000 C   0  0  1  0  0  0  0  0  0  0  0  0
    3.4022   -1.0740    0.0000 C   0  0  1  0  0  0  0  0  0  0  0  0
    2.5304   -2.5706    0.0000 C   0  0  0  0  0  0  0  0  0  0  0  0
   18.1891   -1.4777    0.0000 H   0  0  0  0  0  0  0  0  0  0  0  0
   17.3198   -0.1334    0.0000 H   0  0  0  0  0  0  0  0  0  0  0  0
   15.6689   -2.9568    0.0000 H   0  0  0  0  0  0  0  0  0  0  0  0
   16.9128    1.2516    0.0000 H   0  0  0  0  0  0  0  0  0  0  0  0
   16.3716    1.0243    0.0000 H   0  0  0  0  0  0  0  0  0  0  0  0
   15.9731    0.3340    0.0000 H   0  0  0  0  0  0  0  0  0  0  0  0
   19.8744    0.8426    0.0000 H   0  0  0  0  0  0  0  0  0  0  0  0
   19.0109   -1.4300    0.0000 H   0  0  0  0  0  0  0  0  0  0  0  0
   19.7993   -1.1723    0.0000 H   0  0  0  0  0  0  0  0  0  0  0  0
   17.6838   -2.6803    0.0000 H   0  0  0  0  0  0  0  0  0  0  0  0
   18.0749   -1.9844    0.0000 H   0  0  0  0  0  0  0  0  0  0  0  0
   16.1704   -3.1036    0.0000 H   0  0  0  0  0  0  0  0  0  0  0  0
   16.9687   -3.1005    0.0000 H   0  0  0  0  0  0  0  0  0  0  0  0
   20.3064   -0.4731    0.0000 H   0  0  0  0  0  0  0  0  0  0  0  0
   20.3064    0.3564    0.0000 H   0  0  0  0  0  0  0  0  0  0  0  0
   15.1550   -0.0345    0.0000 H   0  0  0  0  0  0  0  0  0  0  0  0
   14.3569   -0.0191    0.0000 H   0  0  0  0  0  0  0  0  0  0  0  0
   18.9357    1.4416    0.0000 H   0  0  0  0  0  0  0  0  0  0  0  0
   18.3157    2.0616    0.0000 H   0  0  0  0  0  0  0  0  0  0  0  0
   17.6957    1.4416    0.0000 H   0  0  0  0  0  0  0  0  0  0  0  0
   14.3329   -3.1325    0.0000 H   0  0  0  0  0  0  0  0  0  0  0  0
   15.1312   -3.1294    0.0000 H   0  0  0  0  0  0  0  0  0  0  0  0
   16.3014   -0.0700    0.0000 H   0  0  0  0  0  0  0  0  0  0  0  0
   15.6862    0.5548    0.0000 H   0  0  0  0  0  0  0  0  0  0  0  0
   15.0614   -0.0605    0.0000 H   0  0  0  0  0  0  0  0  0  0  0  0
   13.5944   -0.4438    0.0000 H   0  0  0  0  0  0  0  0  0  0  0  0
   13.1873   -1.1304    0.0000 H   0  0  0  0  0  0  0  0  0  0  0  0
   13.2555   -1.8009    0.0000 H   0  0  0  0  0  0  0  0  0  0  0  0
   18.8527   -1.8684    0.0000 H   0  0  0  0  0  0  0  0  0  0  0  0
   16.9128    2.2516    0.0000 H   0  0  0  0  0  0  0  0  0  0  0  0
   18.5262    2.9226    0.0000 H   0  0  0  0  0  0  0  0  0  0  0  0
   18.5248    2.0929    0.0000 H   0  0  0  0  0  0  0  0  0  0  0  0
   21.0252    1.6390    0.0000 H   0  0  0  0  0  0  0  0  0  0  0  0
   12.0562   -2.7274    0.0000 H   0  0  0  0  0  0  0  0  0  0  0  0
   10.7903   -3.0774    0.0000 H   0  0  0  0  0  0  0  0  0  0  0  0
   11.5873   -3.0805    0.0000 H   0  0  0  0  0  0  0  0  0  0  0  0
    9.7908   -1.7886    0.0000 H   0  0  0  0  0  0  0  0  0  0  0  0
   11.7364   -0.2961    0.0000 H   0  0  0  0  0  0  0  0  0  0  0  0
   10.3328   -0.4807    0.0000 H   0  0  0  0  0  0  0  0  0  0  0  0
   11.8222    0.3936    0.0000 H   0  0  0  0  0  0  0  0  0  0  0  0
   11.2046    1.0160    0.0000 H   0  0  0  0  0  0  0  0  0  0  0  0
   10.5822    0.3984    0.0000 H   0  0  0  0  0  0  0  0  0  0  0  0
    9.4562   -3.2173    0.0000 H   0  0  0  0  0  0  0  0  0  0  0  0
    8.6007   -0.4740    0.0000 H   0  0  0  0  0  0  0  0  0  0  0  0
    8.1346   -0.1173    0.0000 H   0  0  0  0  0  0  0  0  0  0  0  0
    7.3376   -0.1142    0.0000 H   0  0  0  0  0  0  0  0  0  0  0  0
    6.8687   -0.4673    0.0000 H   0  0  0  0  0  0  0  0  0  0  0  0
    8.2623   -2.9027    0.0000 H   0  0  0  0  0  0  0  0  0  0  0  0
    6.8600   -2.7073    0.0000 H   0  0  0  0  0  0  0  0  0  0  0  0
    7.1027   -3.5883    0.0000 H   0  0  0  0  0  0  0  0  0  0  0  0
    7.7203   -4.2106    0.0000 H   0  0  0  0  0  0  0  0  0  0  0  0
    8.3427   -3.5930    0.0000 H   0  0  0  0  0  0  0  0  0  0  0  0
    6.0046    0.0360    0.0000 H   0  0  0  0  0  0  0  0  0  0  0  0
    5.1280   -2.7006    0.0000 H   0  0  0  0  0  0  0  0  0  0  0  0
    5.7444   -1.1907    0.0000 H   0  0  0  0  0  0  0  0  0  0  0  0
    5.3486   -0.4989    0.0000 H   0  0  0  0  0  0  0  0  0  0  0  0
    3.7344   -0.2653    0.0000 H   0  0  0  0  0  0  0  0  0  0  0  0
    3.3960   -2.6940    0.0000 H   0  0  0  0  0  0  0  0  0  0  0  0
    2.8641   -1.3819    0.0000 H   0  0  0  0  0  0  0  0  0  0  0  0
    2.2225   -2.0325    0.0000 H   0  0  0  0  0  0  0  0  0  0  0  0
    1.9923   -2.8786    0.0000 H   0  0  0  0  0  0  0  0  0  0  0  0
    2.8384   -3.1088    0.0000 H   0  0  0  0  0  0  0  0  0  0  0  0
    3.7383    0.7347    0.0000 H   0  0  0  0  0  0  0  0  0  0  0  0
    2.0000   -0.8786    0.0000 H   0  0  0  0  0  0  0  0  0  0  0  0
 15  1  1  1  0  0  0
  1 84  1  0  0  0  0
 21  2  1  1  0  0  0
  2 85  1  0  0  0  0
 33  3  1  1  0  0  0
 38  3  1  1  0  0  0
  4 35  1  0  0  0  0
  4 37  1  0  0  0  0
  5 38  1  0  0  0  0
  5 41  1  0  0  0  0
  6 37  2  0  0  0  0
 40  7  1  6  0  0  0
  7 98  1  0  0  0  0
 42  8  1  6  0  0  0
 44  8  1  6  0  0  0
  9 44  1  0  0  0  0
  9 47  1  0  0  0  0
 48 10  1  1  0  0  0
 50 10  1  6  0  0  0
 46 11  1  1  0  0  0
 11108  1  0  0  0  0
 12 50  1  0  0  0  0
 12 53  1  0  0  0  0
 52 13  1  1  0  0  0
 13118  1  0  0  0  0
 54 14  1  1  0  0  0
 14119  1  0  0  0  0
 15 16  1  0  0  0  0
 15 18  1  0  0  0  0
 15 24  1  0  0  0  0
 16 17  1  0  0  0  0
 16 25  1  0  0  0  0
 16 56  1  1  0  0  0
 17 19  1  0  0  0  0
 17 22  1  0  0  0  0
 17 57  1  6  0  0  0
 18 21  1  0  0  0  0
 18 23  1  0  0  0  0
 18 29  1  1  0  0  0
 19 20  1  0  0  0  0
 19 28  1  0  0  0  0
 19 31  1  1  0  0  0
 20 26  1  0  0  0  0
 20 30  1  0  0  0  0
 20 58  1  1  0  0  0
 21 22  1  0  0  0  0
 21 59  1  0  0  0  0
 22 60  1  0  0  0  0
 22 61  1  0  0  0  0
 23 27  1  0  0  0  0
 23 34  1  1  0  0  0
 23 62  1  0  0  0  0
 24 27  1  0  0  0  0
 24 63  1  0  0  0  0
 24 64  1  0  0  0  0
 25 26  1  0  0  0  0
 25 65  1  0  0  0  0
 25 66  1  0  0  0  0
 26 67  1  0  0  0  0
 26 68  1  0  0  0  0
 27 69  1  0  0  0  0
 27 70  1  0  0  0  0
 28 32  1  0  0  0  0
 28 71  1  0  0  0  0
 28 72  1  0  0  0  0
 29 73  1  0  0  0  0
 29 74  1  0  0  0  0
 29 75  1  0  0  0  0
 30 33  1  0  0  0  0
 30 76  1  0  0  0  0
 30 77  1  0  0  0  0
 31 78  1  0  0  0  0
 31 79  1  0  0  0  0
 31 80  1  0  0  0  0
 32 33  1  0  0  0  0
 32 81  1  0  0  0  0
 32 82  1  0  0  0  0
 33 83  1  0  0  0  0
 34 35  1  0  0  0  0
 34 36  2  0  0  0  0
 35 86  1  0  0  0  0
 35 87  1  0  0  0  0
 36 37  1  0  0  0  0
 36 88  1  0  0  0  0
 38 39  1  0  0  0  0
 38 89  1  0  0  0  0
 39 40  1  0  0  0  0
 39 90  1  0  0  0  0
 39 91  1  0  0  0  0
 40 42  1  0  0  0  0
 40 92  1  0  0  0  0
 41 42  1  0  0  0  0
 41 43  1  1  0  0  0
 41 93  1  0  0  0  0
 42 94  1  0  0  0  0
 43 95  1  0  0  0  0
 43 96  1  0  0  0  0
 43 97  1  0  0  0  0
 44 45  1  0  0  0  0
 44 99  1  0  0  0  0
 45 46  1  0  0  0  0
 45100  1  0  0  0  0
 45101  1  0  0  0  0
 46 48  1  0  0  0  0
 46102  1  0  0  0  0
 47 48  1  0  0  0  0
 47 49  1  6  0  0  0
 47103  1  0  0  0  0
 48104  1  0  0  0  0
 49105  1  0  0  0  0
 49106  1  0  0  0  0
 49107  1  0  0  0  0
 50 51  1  0  0  0  0
 50109  1  0  0  0  0
 51 52  1  0  0  0  0
 51110  1  0  0  0  0
 51111  1  0  0  0  0
 52 54  1  0  0  0  0
 52112  1  0  0  0  0
 53 54  1  0  0  0  0
 53 55  1  6  0  0  0
 53113  1  0  0  0  0
 54114  1  0  0  0  0
 55115  1  0  0  0  0
 55116  1  0  0  0  0
 55117  1  0  0  0  0
M  END
> <PUBCHEM_COMPOUND_CID>
2724385

> <PUBCHEM_COMPOUND_CANONICALIZED>
1

> <PUBCHEM_CACTVS_COMPLEXITY>
1450

> <PUBCHEM_CACTVS_HBOND_ACCEPTOR>
14

> <PUBCHEM_CACTVS_HBOND_DONOR>
6

> <PUBCHEM_CACTVS_ROTATABLE_BOND>
7

> <PUBCHEM_CACTVS_SUBSKEYS>
AAADcfB8PAAAAAAAAAAAAAAAAAAAAYIAAAA0aNECAAAAAGDAAAAAGgAACAAAD1SwgAMCCAAABgCIAiDSCAAAAAAgAAAACAAAAEgRFAIAIQAiUAAFgAAPIQPA4PwPgAAAAAAAAADAAAYQADAAAYAADAAAAA==

> <PUBCHEM_IUPAC_OPENEYE_NAME>
3-[(3S,5R,8R,9S,10S,12R,13S,14S,17R)-3-[(2R,4S,5S,6R)-5-[(2S,4S,5S,6R)-5-[(2S,4S,5S,6R)-4,5-dihydroxy-6-methyl-tetrahydropyran-2-yl]oxy-4-hydroxy-6-methyl-tetrahydropyran-2-yl]oxy-4-hydroxy-6-methyl-tetrahydropyran-2-yl]oxy-12,14-dihydroxy-10,13-dimethyl-1,2,3,4,5,6,7,8,9,11,12,15,16,17-tetradecahydrocyclopenta[a]phenanthren-17-yl]-2H-furan-5-one

> <PUBCHEM_IUPAC_CAS_NAME>
3-[(3S,5R,8R,9S,10S,12R,13S,14S,17R)-3-[[(2R,4S,5S,6R)-5-[[(2S,4S,5S,6R)-5-[[(2S,4S,5S,6R)-4,5-dihydroxy-6-methyl-2-oxanyl]oxy]-4-hydroxy-6-methyl-2-oxanyl]oxy]-4-hydroxy-6-methyl-2-oxanyl]oxy]-12,14-dihydroxy-10,13-dimethyl-1,2,3,4,5,6,7,8,9,11,12,15,16,17-tetradecahydrocyclopenta[a]phenanthren-17-yl]-2H-furan-5-one

> <PUBCHEM_IUPAC_NAME>
3-[(3S,5R,8R,9S,10S,12R,13S,14S,17R)-3-[(2R,4S,5S,6R)-5-[(2S,4S,5S,6R)-5-[(2S,4S,5S,6R)-4,5-dihydroxy-6-methyloxan-2-yl]oxy-4-hydroxy-6-methyloxan-2-yl]oxy-4-hydroxy-6-methyloxan-2-yl]oxy-12,14-dihydroxy-10,13-dimethyl-1,2,3,4,5,6,7,8,9,11,12,15,16,17-tetradecahydrocyclopenta[a]phenanthren-17-yl]-2H-furan-5-one

> <PUBCHEM_IUPAC_SYSTEMATIC_NAME>
3-[(3S,5R,8R,9S,10S,12R,13S,14S,17R)-10,13-dimethyl-3-[(2R,4S,5S,6R)-6-methyl-5-[(2S,4S,5S,6R)-6-methyl-5-[(2S,4S,5S,6R)-6-methyl-4,5-bis(oxidanyl)oxan-2-yl]oxy-4-oxidanyl-oxan-2-yl]oxy-4-oxidanyl-oxan-2-yl]oxy-12,14-bis(oxidanyl)-1,2,3,4,5,6,7,8,9,11,12,15,16,17-tetradecahydrocyclopenta[a]phenanthren-17-yl]-2H-furan-5-one

> <PUBCHEM_IUPAC_TRADITIONAL_NAME>
3-[(3S,5R,8R,9S,10S,12R,13S,14S,17R)-3-[(2R,4S,5S,6R)-5-[(2S,4S,5S,6R)-5-[(2S,4S,5S,6R)-4,5-dihydroxy-6-methyl-tetrahydropyran-2-yl]oxy-4-hydroxy-6-methyl-tetrahydropyran-2-yl]oxy-4-hydroxy-6-methyl-tetrahydropyran-2-yl]oxy-12,14-dihydroxy-10,13-dimethyl-1,2,3,4,5,6,7,8,9,11,12,15,16,17-tetradecahydrocyclopenta[a]phenanthren-17-yl]-2H-furan-5-one

> <PUBCHEM_IUPAC_INCHI>
InChI=1S/C41H64O14/c1-19-36(47)28(42)15-34(50-19)54-38-21(3)52-35(17-30(38)44)55-37-20(2)51-33(16-29(37)43)53-24-8-10-39(4)23(13-24)6-7-26-27(39)14-31(45)40(5)25(9-11-41(26,40)48)22-12-32(46)49-18-22/h12,19-21,23-31,33-38,42-45,47-48H,6-11,13-18H2,1-5H3/t19-,20-,21-,23-,24+,25-,26-,27+,28+,29+,30+,31-,33+,34+,35+,36-,37-,38-,39+,40+,41+/m1/s1

> <PUBCHEM_IUPAC_INCHIKEY>
LTMHDMANZUZIPE-PUGKRICDSA-N

> <PUBCHEM_XLOGP3>
1.3

> <PUBCHEM_EXACT_MASS>
780.429607

> <PUBCHEM_MOLECULAR_FORMULA>
C41H64O14

> <PUBCHEM_MOLECULAR_WEIGHT>
780.93846

> <PUBCHEM_OPENEYE_CAN_SMILES>
CC1C(C(CC(O1)OC2C(OC(CC2O)OC3C(OC(CC3O)OC4CCC5(C(C4)CCC6C5CC(C7(C6(CCC7C8=CC(=O)OC8)O)C)O)C)C)C)O)O

> <PUBCHEM_OPENEYE_ISO_SMILES>
C[C@@H]1[C@H]([C@H](C[C@@H](O1)O[C@@H]2[C@H](O[C@H](C[C@@H]2O)O[C@@H]3[C@H](O[C@H](C[C@@H]3O)O[C@H]4CC[C@]5([C@@H](C4)CC[C@@H]6[C@@H]5C[C@H]([C@]7([C@@]6(CC[C@@H]7C8=CC(=O)OC8)O)C)O)C)C)C)O)O

> <PUBCHEM_CACTVS_TPSA>
203

> <PUBCHEM_MONOISOTOPIC_WEIGHT>
780.429607

> <PUBCHEM_TOTAL_CHARGE>
0

> <PUBCHEM_HEAVY_ATOM_COUNT>
55

> <PUBCHEM_ATOM_DEF_STEREO_COUNT>
21

> <PUBCHEM_ATOM_UDEF_STEREO_COUNT>
0

> <PUBCHEM_BOND_DEF_STEREO_COUNT>
0

> <PUBCHEM_BOND_UDEF_STEREO_COUNT>
0

> <PUBCHEM_ISOTOPIC_ATOM_COUNT>
0

> <PUBCHEM_COMPONENT_COUNT>
1

> <PUBCHEM_CACTVS_TAUTO_COUNT>
1

> <PUBCHEM_COORDINATE_TYPE>
1
5
255

> <PUBCHEM_BONDANNOTATIONS>
15  1  5
48  10  5
50  10  6
46  11  5
52  13  5
54  14  5
16  56  5
17  57  6
18  29  5
19  31  5
21  2  5
20  58  5
23  34  5
33  3  5
38  3  5
41  43  5
47  49  6
53  55  6
40  7  6
42  8  6
44  8  6

$$$$

