   Melting Point
        88 deg C
   from [1]HSDB

   Dissociation Constants
        pKa = 7.58
   from [2]HSDB

   Octanol/Water Partition Coefficient
        log Kow = -4.2 (est)
   from [3]HSDB

   Solubilities
        In water, 1X10+6 mg/l at 25 deg C (est)
   from [4]HSDB

   Vapor Pressure
        9.02X10-8 mm Hg at 25 deg C (est)
   from [5]HSDB

   Other Chemical/Physical Properties

     * Henry's Law constant = 7.7X0-16 atm-cu m/mol at 25 deg C (est)
     * Hydroxyl radical reaction rate constant = 1.2X10-10 cu cm/molec-sec
       at 25 deg C (est)
     * Crystals, mp 88 deg C; specific optical rotation +100 deg changing
       to +47.5 deg after 30 minutes in water at 20 deg C /alpha form/
     * Needles from methanol, dec 110 deg C, specific optical rotation +28
       deg changing to +47.5 deg after 30 minutes in water at 20 deg C;
       very soluble in water, soluble in about 38 parts boiling methanol;
       sparingly soluble in cold methanol or ethanol; practically
       insoluble in ether, chloroform /beta form/

   from [6]HSDB

   Computed Properties
   Molecular Weight                  179.17112 [g/mol]
   Molecular Formula                 C[6]H[13]NO[5]
   XLogP3-AA                         -2.8
   H-Bond Donor                      5
   H-Bond Acceptor                   6
   Rotatable Bond Count              1
   Exact Mass                        179.079373
   MonoIsotopic Mass                 179.079373
   Topological Polar Surface Area    116
   Heavy Atom Count                  12
   Formal Charge                     0
   Complexity                        155
   Isotope Atom Count                0
   Defined Atom Stereocenter Count   4
   Undefined Atom Stereocenter Count 1
   Defined Bond Stereocenter Count   0
   Undefined Bond Stereocenter Count 0
   Covalently-Bonded Unit Count      1
   Feature 3D Acceptor Count         5
   Feature 3D Donor Count            5
   Feature 3D Cation Count           1
   Feature 3D Ring Count             1
   Effective Rotor Count             2.2
   Conformer Sampling RMSD           0.6
   CID Conformer Count               [7]7

References

   1. http://toxnet.nlm.nih.gov/cgi-bin/sis/search/r?dbs+hsdb:@term+@rn+@rel+3416-24-8
   2. http://toxnet.nlm.nih.gov/cgi-bin/sis/search/r?dbs+hsdb:@term+@rn+@rel+3416-24-8
   3. http://toxnet.nlm.nih.gov/cgi-bin/sis/search/r?dbs+hsdb:@term+@rn+@rel+3416-24-8
   4. http://toxnet.nlm.nih.gov/cgi-bin/sis/search/r?dbs+hsdb:@term+@rn+@rel+3416-24-8
   5. http://toxnet.nlm.nih.gov/cgi-bin/sis/search/r?dbs+hsdb:@term+@rn+@rel+3416-24-8
   6. http://toxnet.nlm.nih.gov/cgi-bin/sis/search/r?dbs+hsdb:@term+@rn+@rel+3416-24-8
   7. http://pubchem.ncbi.nlm.nih.gov/vw3d/vw3d.cgi?cid=439213
