   Color/Form

     * COLORLESS LIQUID
     * Colorless liquid ...

   from [1]HSDB

   Odor

     * Suffocating odor
     * ... Suffocating odor.

   from [2]HSDB

   Boiling Point
        106 DEG C
   from [3]HSDB

   Melting Point
        -41.5 DEG C
   from [4]HSDB

   Density/Specific Gravity
        1.323 @ 15 DEG C/4 DEG C
   from [5]HSDB

   Octanol/Water Partition Coefficient
        log Kow= 1.04
   from [6]HSDB

   Solubilities

     * MISCIBLE WITH ETHYL ALCOHOL, ETHYL ETHER
     * MISCIBLE WITH MANY ORGANIC SOLVENTS
     * In water, 1,020 mg/l @ 25 deg C

   from [7]HSDB

   Spectral Properties

     * INDEX OF REFRACTION: 1.4345 AT 21 DEG C/D
     * IR: 5196 (Sadtler Research Laboratories Prism Collection)
     * MASS: 393 (Atlas of Mass Spectral Data, John Wiley & Sons, New
       York)

   from [8]HSDB

   Vapor Density
        4.0 (Air=1)
   from [9]HSDB

   Vapor Pressure
        29.4 mm Hg @ 25 deg C /from experimentally derived coefficients/
   from [10]HSDB

   Other Chemical/Physical Properties

     * Highly volatile
     * ... At 10-100 ppm /bis(chloromethyl) ether/ is stable in air with
       70% relative humidity for at least 18 hr.
     * BCME can be formed in gaseous and liquid phases from its
       precursors, formaldehyde and Cl-. This reaction requires a very low
       pH and/or a very low content of water.
     * Air pollution factors: 1 mg/cu m= 0.21 ppm, 1 ppm= 4.75 mg/cu m
     * Reported to form spontaneously from formaldehyde & chloride ions in
       moist air.

   from [11]HSDB

   Computed Properties
   Molecular Weight                  114.95856 [g/mol]
   Molecular Formula                 C[2]H[4]Cl[2]O
   XLogP3-AA                         1.5
   H-Bond Donor                      0
   H-Bond Acceptor                   1
   Rotatable Bond Count              2
   Exact Mass                        113.96392
   MonoIsotopic Mass                 113.96392
   Topological Polar Surface Area    9.2
   Heavy Atom Count                  5
   Formal Charge                     0
   Complexity                        15.1
   Isotope Atom Count                0
   Defined Atom Stereocenter Count   0
   Undefined Atom Stereocenter Count 0
   Defined Bond Stereocenter Count   0
   Undefined Bond Stereocenter Count 0
   Covalently-Bonded Unit Count      1
   Feature 3D Acceptor Count         1
   Effective Rotor Count             2
   Conformer Sampling RMSD           0.4
   CID Conformer Count               [12]5

References

   1. http://toxnet.nlm.nih.gov/cgi-bin/sis/search/r?dbs+hsdb:@term+@rn+@rel+542-88-1
   2. http://toxnet.nlm.nih.gov/cgi-bin/sis/search/r?dbs+hsdb:@term+@rn+@rel+542-88-1
   3. http://toxnet.nlm.nih.gov/cgi-bin/sis/search/r?dbs+hsdb:@term+@rn+@rel+542-88-1
   4. http://toxnet.nlm.nih.gov/cgi-bin/sis/search/r?dbs+hsdb:@term+@rn+@rel+542-88-1
   5. http://toxnet.nlm.nih.gov/cgi-bin/sis/search/r?dbs+hsdb:@term+@rn+@rel+542-88-1
   6. http://toxnet.nlm.nih.gov/cgi-bin/sis/search/r?dbs+hsdb:@term+@rn+@rel+542-88-1
   7. http://toxnet.nlm.nih.gov/cgi-bin/sis/search/r?dbs+hsdb:@term+@rn+@rel+542-88-1
   8. http://toxnet.nlm.nih.gov/cgi-bin/sis/search/r?dbs+hsdb:@term+@rn+@rel+542-88-1
   9. http://toxnet.nlm.nih.gov/cgi-bin/sis/search/r?dbs+hsdb:@term+@rn+@rel+542-88-1
  10. http://toxnet.nlm.nih.gov/cgi-bin/sis/search/r?dbs+hsdb:@term+@rn+@rel+542-88-1
  11. http://toxnet.nlm.nih.gov/cgi-bin/sis/search/r?dbs+hsdb:@term+@rn+@rel+542-88-1
  12. http://pubchem.ncbi.nlm.nih.gov/vw3d/vw3d.cgi?cid=10967
