9430
  -OEChem-06261203422D

 35 37  0     0  0  0  0  0  0999 V2000
    4.6660   -2.2549    0.0000 N   0  0  0  0  0  0  0  0  0  0  0  0
    6.4144    0.7797    0.0000 N   0  0  0  0  0  0  0  0  0  0  0  0
    2.0000   -0.7341    0.0000 C   0  0  0  0  0  0  0  0  0  0  0  0
    2.9061   -0.2203    0.0000 C   0  0  0  0  0  0  0  0  0  0  0  0
    2.0000   -1.7757    0.0000 C   0  0  0  0  0  0  0  0  0  0  0  0
    2.9061   -2.2896    0.0000 C   0  0  0  0  0  0  0  0  0  0  0  0
    3.8000   -0.7549    0.0000 C   0  0  0  0  0  0  0  0  0  0  0  0
    3.8000   -1.7549    0.0000 C   0  0  0  0  0  0  0  0  0  0  0  0
    4.6660   -0.2549    0.0000 C   0  0  0  0  0  0  0  0  0  0  0  0
    5.5321   -0.7549    0.0000 C   0  0  0  0  0  0  0  0  0  0  0  0
    5.5321   -1.7549    0.0000 C   0  0  0  0  0  0  0  0  0  0  0  0
    6.4260   -0.2203    0.0000 C   0  0  0  0  0  0  0  0  0  0  0  0
    6.4260   -2.2896    0.0000 C   0  0  0  0  0  0  0  0  0  0  0  0
    7.3321   -0.7341    0.0000 C   0  0  0  0  0  0  0  0  0  0  0  0
    7.3321   -1.7757    0.0000 C   0  0  0  0  0  0  0  0  0  0  0  0
    7.2746    1.2896    0.0000 C   0  0  0  0  0  0  0  0  0  0  0  0
    7.2631    2.2896    0.0000 C   0  0  0  0  0  0  0  0  0  0  0  0
    1.7909   -0.1504    0.0000 H   0  0  0  0  0  0  0  0  0  0  0  0
    1.3891   -0.8402    0.0000 H   0  0  0  0  0  0  0  0  0  0  0  0
    3.3107    0.2495    0.0000 H   0  0  0  0  0  0  0  0  0  0  0  0
    2.5124    0.2588    0.0000 H   0  0  0  0  0  0  0  0  0  0  0  0
    1.3891   -1.6696    0.0000 H   0  0  0  0  0  0  0  0  0  0  0  0
    1.7909   -2.3594    0.0000 H   0  0  0  0  0  0  0  0  0  0  0  0
    2.5124   -2.7686    0.0000 H   0  0  0  0  0  0  0  0  0  0  0  0
    3.3107   -2.7594    0.0000 H   0  0  0  0  0  0  0  0  0  0  0  0
    4.6660    0.3651    0.0000 H   0  0  0  0  0  0  0  0  0  0  0  0
    6.4188   -2.9095    0.0000 H   0  0  0  0  0  0  0  0  0  0  0  0
    7.8678   -0.4220    0.0000 H   0  0  0  0  0  0  0  0  0  0  0  0
    5.8740    1.0834    0.0000 H   0  0  0  0  0  0  0  0  0  0  0  0
    7.8678   -2.0878    0.0000 H   0  0  0  0  0  0  0  0  0  0  0  0
    7.4934    0.7095    0.0000 H   0  0  0  0  0  0  0  0  0  0  0  0
    7.8839    1.4044    0.0000 H   0  0  0  0  0  0  0  0  0  0  0  0
    7.8830    2.2968    0.0000 H   0  0  0  0  0  0  0  0  0  0  0  0
    7.2559    2.9095    0.0000 H   0  0  0  0  0  0  0  0  0  0  0  0
    6.6431    2.2824    0.0000 H   0  0  0  0  0  0  0  0  0  0  0  0
  1  8  2  0  0  0  0
  1 11  1  0  0  0  0
  2 12  1  0  0  0  0
  2 16  1  0  0  0  0
  2 29  1  0  0  0  0
  3  4  1  0  0  0  0
  3  5  1  0  0  0  0
  3 18  1  0  0  0  0
  3 19  1  0  0  0  0
  4  7  1  0  0  0  0
  4 20  1  0  0  0  0
  4 21  1  0  0  0  0
  5  6  1  0  0  0  0
  5 22  1  0  0  0  0
  5 23  1  0  0  0  0
  6  8  1  0  0  0  0
  6 24  1  0  0  0  0
  6 25  1  0  0  0  0
  7  8  1  0  0  0  0
  7  9  2  0  0  0  0
  9 10  1  0  0  0  0
  9 26  1  0  0  0  0
 10 11  2  0  0  0  0
 10 12  1  0  0  0  0
 11 13  1  0  0  0  0
 12 14  2  0  0  0  0
 13 15  2  0  0  0  0
 13 27  1  0  0  0  0
 14 15  1  0  0  0  0
 14 28  1  0  0  0  0
 15 30  1  0  0  0  0
 16 17  1  0  0  0  0
 16 31  1  0  0  0  0
 16 32  1  0  0  0  0
 17 33  1  0  0  0  0
 17 34  1  0  0  0  0
 17 35  1  0  0  0  0
M  END
> <PUBCHEM_COMPOUND_CID>
9430

> <PUBCHEM_COMPOUND_CANONICALIZED>
1

> <PUBCHEM_CACTVS_COMPLEXITY>
253

> <PUBCHEM_CACTVS_HBOND_ACCEPTOR>
2

> <PUBCHEM_CACTVS_HBOND_DONOR>
1

> <PUBCHEM_CACTVS_ROTATABLE_BOND>
2

> <PUBCHEM_CACTVS_SUBSKEYS>
AAADceBzAAAAAAAAAAAAAAAAAAAAAAAAAAA8YIAAAAAAAACx8AAAHAAQAAAADAjBHgQywPLIEACgAyRiRACCgCAhAiAImKA4ZJgIIOLA0dGEJAhgkADIyAcQgMAOAAAAAAQCAAAAAAAACAQAAAAAAAAAAA==

> <PUBCHEM_IUPAC_OPENEYE_NAME>
N-ethyl-5,6,7,8-tetrahydroacridin-1-amine

> <PUBCHEM_IUPAC_CAS_NAME>
N-ethyl-5,6,7,8-tetrahydroacridin-1-amine

> <PUBCHEM_IUPAC_NAME>
N-ethyl-5,6,7,8-tetrahydroacridin-1-amine

> <PUBCHEM_IUPAC_SYSTEMATIC_NAME>
N-ethyl-5,6,7,8-tetrahydroacridin-1-amine

> <PUBCHEM_IUPAC_TRADITIONAL_NAME>
ethyl(5,6,7,8-tetrahydroacridin-1-yl)amine

> <PUBCHEM_IUPAC_INCHI>
InChI=1S/C15H18N2/c1-2-16-14-8-5-9-15-12(14)10-11-6-3-4-7-13(11)17-15/h5,8-10,16H,2-4,6-7H2,1H3

> <PUBCHEM_IUPAC_INCHIKEY>
DMEGQYPEMFISNA-UHFFFAOYSA-N

> <PUBCHEM_XLOGP3_AA>
3.8

> <PUBCHEM_EXACT_MASS>
226.146999

> <PUBCHEM_MOLECULAR_FORMULA>
C15H18N2

> <PUBCHEM_MOLECULAR_WEIGHT>
226.31682

> <PUBCHEM_OPENEYE_CAN_SMILES>
CCNC1=CC=CC2=NC3=C(CCCC3)C=C21

> <PUBCHEM_OPENEYE_ISO_SMILES>
CCNC1=CC=CC2=NC3=C(CCCC3)C=C21

> <PUBCHEM_CACTVS_TPSA>
24.9

> <PUBCHEM_MONOISOTOPIC_WEIGHT>
226.146999

> <PUBCHEM_TOTAL_CHARGE>
0

> <PUBCHEM_HEAVY_ATOM_COUNT>
17

> <PUBCHEM_ATOM_DEF_STEREO_COUNT>
0

> <PUBCHEM_ATOM_UDEF_STEREO_COUNT>
0

> <PUBCHEM_BOND_DEF_STEREO_COUNT>
0

> <PUBCHEM_BOND_UDEF_STEREO_COUNT>
0

> <PUBCHEM_ISOTOPIC_ATOM_COUNT>
0

> <PUBCHEM_COMPONENT_COUNT>
1

> <PUBCHEM_CACTVS_TAUTO_COUNT>
4

> <PUBCHEM_COORDINATE_TYPE>
1
5
255

> <PUBCHEM_BONDANNOTATIONS>
1  11  8
1  8  8
10  11  8
10  12  8
11  13  8
12  14  8
13  15  8
14  15  8
7  8  8
7  9  8
9  10  8

$$$$

