246162
  -OEChem-07051213062D

 65 69  0     1  0  0  0  0  0999 V2000
   10.2339    2.6890    0.0000 O   0  0  0  0  0  0  0  0  0  0  0  0
    7.2450    0.4337    0.0000 C   0  0  2  0  0  0  0  0  0  0  0  0
    6.3350   -0.0731    0.0000 C   0  0  2  0  0  0  0  0  0  0  0  0
    8.1110   -0.0663    0.0000 C   0  0  2  0  0  0  0  0  0  0  0  0
    8.9770    0.4337    0.0000 C   0  0  1  0  0  0  0  0  0  0  0  0
    8.9770    1.4337    0.0000 C   0  0  2  0  0  0  0  0  0  0  0  0
    6.3270   -1.1147    0.0000 C   0  0  1  0  0  0  0  0  0  0  0  0
    7.2450    1.4337    0.0000 C   0  0  0  0  0  0  0  0  0  0  0  0
    8.1271   -1.1078    0.0000 C   0  0  0  0  0  0  0  0  0  0  0  0
    8.1110    1.9337    0.0000 C   0  0  0  0  0  0  0  0  0  0  0  0
    7.2290   -1.6355    0.0000 C   0  0  0  0  0  0  0  0  0  0  0  0
    5.4082    0.4910    0.0000 C   0  0  0  0  0  0  0  0  0  0  0  0
    9.9233    0.1290    0.0000 C   0  0  0  0  0  0  0  0  0  0  0  0
    9.9233    1.7385    0.0000 C   0  0  2  0  0  0  0  0  0  0  0  0
    5.3915   -1.6644    0.0000 C   0  0  0  0  0  0  0  0  0  0  0  0
    4.4519   -1.1219    0.0000 C   0  0  2  0  0  0  0  0  0  0  0  0
   10.5069    0.9337    0.0000 C   0  0  0  0  0  0  0  0  0  0  0  0
    4.4603   -0.0370    0.0000 C   0  0  0  0  0  0  0  0  0  0  0  0
    6.3427    0.9269    0.0000 C   0  0  0  0  0  0  0  0  0  0  0  0
    8.9770    2.4337    0.0000 C   0  0  0  0  0  0  0  0  0  0  0  0
    3.5840   -1.6186    0.0000 C   0  0  0  0  0  0  0  0  0  0  0  0
    2.6720   -1.2083    0.0000 C   0  0  0  0  0  0  0  0  0  0  0  0
    3.4756   -2.6127    0.0000 C   0  0  0  0  0  0  0  0  0  0  0  0
    2.4967   -2.8168    0.0000 C   0  0  0  0  0  0  0  0  0  0  0  0
    2.0000   -1.9489    0.0000 C   0  0  0  0  0  0  0  0  0  0  0  0
    7.9811    0.8587    0.0000 H   0  0  0  0  0  0  0  0  0  0  0  0
    8.8504   -0.4856    0.0000 H   0  0  0  0  0  0  0  0  0  0  0  0
    9.0670   -0.4115    0.0000 H   0  0  0  0  0  0  0  0  0  0  0  0
    6.3302   -1.9647    0.0000 H   0  0  0  0  0  0  0  0  0  0  0  0
    7.0329    2.0164    0.0000 H   0  0  0  0  0  0  0  0  0  0  0  0
    6.6344    1.3261    0.0000 H   0  0  0  0  0  0  0  0  0  0  0  0
    8.3451   -1.6882    0.0000 H   0  0  0  0  0  0  0  0  0  0  0  0
    8.7362   -0.9923    0.0000 H   0  0  0  0  0  0  0  0  0  0  0  0
    8.5096    2.4087    0.0000 H   0  0  0  0  0  0  0  0  0  0  0  0
    7.7125    2.4087    0.0000 H   0  0  0  0  0  0  0  0  0  0  0  0
    6.8317   -2.1115    0.0000 H   0  0  0  0  0  0  0  0  0  0  0  0
    7.6300   -2.1084    0.0000 H   0  0  0  0  0  0  0  0  0  0  0  0
    5.8164    0.9576    0.0000 H   0  0  0  0  0  0  0  0  0  0  0  0
    5.0182    0.9730    0.0000 H   0  0  0  0  0  0  0  0  0  0  0  0
    9.6722   -0.4379    0.0000 H   0  0  0  0  0  0  0  0  0  0  0  0
   10.4606   -0.1802    0.0000 H   0  0  0  0  0  0  0  0  0  0  0  0
   10.5358    1.8347    0.0000 H   0  0  0  0  0  0  0  0  0  0  0  0
    4.9942   -2.1404    0.0000 H   0  0  0  0  0  0  0  0  0  0  0  0
    5.7925   -2.1373    0.0000 H   0  0  0  0  0  0  0  0  0  0  0  0
    3.7183   -0.6927    0.0000 H   0  0  0  0  0  0  0  0  0  0  0  0
   10.9677    0.5190    0.0000 H   0  0  0  0  0  0  0  0  0  0  0  0
   10.9677    1.3485    0.0000 H   0  0  0  0  0  0  0  0  0  0  0  0
    4.2557    0.5483    0.0000 H   0  0  0  0  0  0  0  0  0  0  0  0
    3.8486   -0.1384    0.0000 H   0  0  0  0  0  0  0  0  0  0  0  0
    6.9627    0.9221    0.0000 H   0  0  0  0  0  0  0  0  0  0  0  0
    6.3475    1.5468    0.0000 H   0  0  0  0  0  0  0  0  0  0  0  0
    5.7227    0.9316    0.0000 H   0  0  0  0  0  0  0  0  0  0  0  0
    9.5970    2.4337    0.0000 H   0  0  0  0  0  0  0  0  0  0  0  0
    8.9770    3.0537    0.0000 H   0  0  0  0  0  0  0  0  0  0  0  0
    8.3570    2.4337    0.0000 H   0  0  0  0  0  0  0  0  0  0  0  0
    4.1026   -1.9583    0.0000 H   0  0  0  0  0  0  0  0  0  0  0  0
    2.9841   -0.6726    0.0000 H   0  0  0  0  0  0  0  0  0  0  0  0
    2.1718   -0.8420    0.0000 H   0  0  0  0  0  0  0  0  0  0  0  0
    3.5380   -3.2296    0.0000 H   0  0  0  0  0  0  0  0  0  0  0  0
    4.0956   -2.6151    0.0000 H   0  0  0  0  0  0  0  0  0  0  0  0
   10.8406    2.8168    0.0000 H   0  0  0  0  0  0  0  0  0  0  0  0
    1.5869   -1.4866    0.0000 H   0  0  0  0  0  0  0  0  0  0  0  0
    1.4970   -2.3114    0.0000 H   0  0  0  0  0  0  0  0  0  0  0  0
    1.9293   -3.0668    0.0000 H   0  0  0  0  0  0  0  0  0  0  0  0
    2.6860   -3.4072    0.0000 H   0  0  0  0  0  0  0  0  0  0  0  0
 14  1  1  1  0  0  0
  1 61  1  0  0  0  0
  2  3  1  0  0  0  0
  2  4  1  0  0  0  0
  2  8  1  0  0  0  0
  2 26  1  6  0  0  0
  3  7  1  0  0  0  0
  3 12  1  0  0  0  0
  3 19  1  1  0  0  0
  4  5  1  0  0  0  0
  4  9  1  0  0  0  0
  4 27  1  1  0  0  0
  5  6  1  0  0  0  0
  5 13  1  0  0  0  0
  5 28  1  6  0  0  0
  6 10  1  0  0  0  0
  6 14  1  0  0  0  0
  6 20  1  1  0  0  0
  7 11  1  0  0  0  0
  7 15  1  0  0  0  0
  7 29  1  6  0  0  0
  8 10  1  0  0  0  0
  8 30  1  0  0  0  0
  8 31  1  0  0  0  0
  9 11  1  0  0  0  0
  9 32  1  0  0  0  0
  9 33  1  0  0  0  0
 10 34  1  0  0  0  0
 10 35  1  0  0  0  0
 11 36  1  0  0  0  0
 11 37  1  0  0  0  0
 12 18  1  0  0  0  0
 12 38  1  0  0  0  0
 12 39  1  0  0  0  0
 13 17  1  0  0  0  0
 13 40  1  0  0  0  0
 13 41  1  0  0  0  0
 14 17  1  0  0  0  0
 14 42  1  0  0  0  0
 15 16  1  0  0  0  0
 15 43  1  0  0  0  0
 15 44  1  0  0  0  0
 16 18  1  0  0  0  0
 16 21  1  0  0  0  0
 16 45  1  6  0  0  0
 17 46  1  0  0  0  0
 17 47  1  0  0  0  0
 18 48  1  0  0  0  0
 18 49  1  0  0  0  0
 19 50  1  0  0  0  0
 19 51  1  0  0  0  0
 19 52  1  0  0  0  0
 20 53  1  0  0  0  0
 20 54  1  0  0  0  0
 20 55  1  0  0  0  0
 21 22  1  0  0  0  0
 21 23  1  0  0  0  0
 21 56  1  0  0  0  0
 22 25  1  0  0  0  0
 22 57  1  0  0  0  0
 22 58  1  0  0  0  0
 23 24  1  0  0  0  0
 23 59  1  0  0  0  0
 23 60  1  0  0  0  0
 24 25  1  0  0  0  0
 24 64  1  0  0  0  0
 24 65  1  0  0  0  0
 25 62  1  0  0  0  0
 25 63  1  0  0  0  0
M  END
> <PUBCHEM_COMPOUND_CID>
246162

> <PUBCHEM_COMPOUND_CANONICALIZED>
1

> <PUBCHEM_CACTVS_COMPLEXITY>
508

> <PUBCHEM_CACTVS_HBOND_ACCEPTOR>
1

> <PUBCHEM_CACTVS_HBOND_DONOR>
1

> <PUBCHEM_CACTVS_ROTATABLE_BOND>
1

> <PUBCHEM_CACTVS_SUBSKEYS>
AAADcfB4IAAAAAAAAAAAAAAAAAAAAYMAAAAwYMAAAAAAAGDAAAAAGgAACAAADxSggAICAAAAAgAAAAAAAAAAAAAAAAAAAAAAAAAAEAIAAAAAQAAEAAAAAAGAwPAPgAAAAAAAAACAAAQAACAAAIAADAAAAA==

> <PUBCHEM_IUPAC_OPENEYE_NAME>
(3S,5S,8R,9S,10S,13S,14S,17S)-3-cyclopentyl-10,13-dimethyl-2,3,4,5,6,7,8,9,11,12,14,15,16,17-tetradecahydro-1H-cyclopenta[a]phenanthren-17-ol

> <PUBCHEM_IUPAC_CAS_NAME>
(3S,5S,8R,9S,10S,13S,14S,17S)-3-cyclopentyl-10,13-dimethyl-2,3,4,5,6,7,8,9,11,12,14,15,16,17-tetradecahydro-1H-cyclopenta[a]phenanthren-17-ol

> <PUBCHEM_IUPAC_NAME>
(3S,5S,8R,9S,10S,13S,14S,17S)-3-cyclopentyl-10,13-dimethyl-2,3,4,5,6,7,8,9,11,12,14,15,16,17-tetradecahydro-1H-cyclopenta[a]phenanthren-17-ol

> <PUBCHEM_IUPAC_SYSTEMATIC_NAME>
(3S,5S,8R,9S,10S,13S,14S,17S)-3-cyclopentyl-10,13-dimethyl-2,3,4,5,6,7,8,9,11,12,14,15,16,17-tetradecahydro-1H-cyclopenta[a]phenanthren-17-ol

> <PUBCHEM_IUPAC_TRADITIONAL_NAME>
(3S,5S,8R,9S,10S,13S,14S,17S)-3-cyclopentyl-10,13-dimethyl-2,3,4,5,6,7,8,9,11,12,14,15,16,17-tetradecahydro-1H-cyclopenta[a]phenanthren-17-ol

> <PUBCHEM_IUPAC_INCHI>
InChI=1S/C24H40O/c1-23-13-11-17(16-5-3-4-6-16)15-18(23)7-8-19-20-9-10-22(25)24(20,2)14-12-21(19)23/h16-22,25H,3-15H2,1-2H3/t17-,18-,19-,20-,21-,22-,23-,24-/m0/s1

> <PUBCHEM_IUPAC_INCHIKEY>
RBCMLWGBXWRMNN-OPKHLUCYSA-N

> <PUBCHEM_XLOGP3>
7.8

> <PUBCHEM_EXACT_MASS>
344.307916

> <PUBCHEM_MOLECULAR_FORMULA>
C24H40O

> <PUBCHEM_MOLECULAR_WEIGHT>
344.5738

> <PUBCHEM_OPENEYE_CAN_SMILES>
CC12CCC(CC1CCC3C2CCC4(C3CCC4O)C)C5CCCC5

> <PUBCHEM_OPENEYE_ISO_SMILES>
C[C@]12CC[C@@H](C[C@@H]1CC[C@@H]3[C@@H]2CC[C@]4([C@H]3CC[C@@H]4O)C)C5CCCC5

> <PUBCHEM_CACTVS_TPSA>
20.2

> <PUBCHEM_MONOISOTOPIC_WEIGHT>
344.307916

> <PUBCHEM_TOTAL_CHARGE>
0

> <PUBCHEM_HEAVY_ATOM_COUNT>
25

> <PUBCHEM_ATOM_DEF_STEREO_COUNT>
8

> <PUBCHEM_ATOM_UDEF_STEREO_COUNT>
0

> <PUBCHEM_BOND_DEF_STEREO_COUNT>
0

> <PUBCHEM_BOND_UDEF_STEREO_COUNT>
0

> <PUBCHEM_ISOTOPIC_ATOM_COUNT>
0

> <PUBCHEM_COMPONENT_COUNT>
1

> <PUBCHEM_CACTVS_TAUTO_COUNT>
1

> <PUBCHEM_COORDINATE_TYPE>
1
5
255

> <PUBCHEM_BONDANNOTATIONS>
14  1  5
16  45  6
2  26  6
3  19  5
4  27  5
5  28  6
6  20  5
7  29  6

$$$$

