   Color/Form

     * Colorless liquid
     * Clear, colorless liquid

   from [1]HSDB

   Odor
        Distinctive, aromatic odor
   from [2]HSDB

   Boiling Point
        176.12 deg C
   from [3]HSDB

   Melting Point
        -25.4 deg C
   from [4]HSDB

   Critical Temperature and Pressure
        Critical temperature: 664.5 K; critical pressure: 3.454 MPa
   from [5]HSDB

   Density/Specific Gravity
        0.8944 g/cu cm at 20 deg C
   from [6]HSDB

   Heat of Vaporization
        49.05 kJ/mol at 20 deg C
   from [7]HSDB

   Octanol/Water Partition Coefficient
        log Kow = 3.66
   from [8]HSDB

   Solubilities

     * Miscible with ethanol, ether, acetone, benzene, petroleum ether,
       carbon tetrachloride
     * In water, 75.2 mg/L at 25 deg C

   from [9]HSDB

   Spectral Properties

     * Index of refraction: 1.5139 at 20 deg C/D
     * MASS: 6406 (NIST/EPA/MSDC Mass Spectral Database, 1990 version);
       484 (Atlas of Mass Spectral Data, John Wiley & Sons, New York)
     * IR: 3584 (Coblentz Society spectral collection)
     * UV: 16670 (Sadtler Research Laboratories spectral collection)
     * Raman: 87 (Dollish et al; Characteristic Raman Frequencies of
       Organic Compounds, John Wiley & Sons, New York)
     * 1H NMR: 8846 (Sadtler Research Laboratories spectral collection)

   from [10]HSDB

   Vapor Density
        4.15 (Air = 1)
   from [11]HSDB

   Vapor Pressure
        1.69 mm Hg at 25 deg C
   from [12]HSDB

   Other Chemical/Physical Properties

     * Conversion factors: 1 mg/cu m = 0.20 ppm; 1 ppm = 5.00 mg/cu m
     * Heat of formation: -58.5 kJ/mol at 298.15 K (liquid); -9.5 kJ/mol
       at 298.15 K (gas)
     * Standard molar entropy: 267.9 J/mol K at 298.15 K
     * Molar heat capacity: 216.4 J/mol K at 298.15 K and constant
       pressure
     * Henry's Law constant = 4.36X10-3 atm-cu m/mol at 25 deg C
     * Hydroxyl radical reaction rate constant = 3.27X10-11 cu
       cm/molec-sec at 25 deg C

   from [13]HSDB

   Computed Properties
   Molecular Weight                  120.19158 [g/mol]
   Molecular Formula                 C[9]H[12]
   XLogP3                            3.6
   H-Bond Donor                      0
   H-Bond Acceptor                   0
   Rotatable Bond Count              0
   Exact Mass                        120.0939
   MonoIsotopic Mass                 120.0939
   Topological Polar Surface Area    0
   Heavy Atom Count                  9
   Formal Charge                     0
   Complexity                        76
   Isotope Atom Count                0
   Defined Atom Stereocenter Count   0
   Undefined Atom Stereocenter Count 0
   Defined Bond Stereocenter Count   0
   Undefined Bond Stereocenter Count 0
   Covalently-Bonded Unit Count      1
   Feature 3D Ring Count             1
   Effective Rotor Count             0
   Conformer Sampling RMSD           0.4
   CID Conformer Count               [14]1

References

   1. http://toxnet.nlm.nih.gov/cgi-bin/sis/search/r?dbs+hsdb:@term+@rn+@rel+526-73-8
   2. http://toxnet.nlm.nih.gov/cgi-bin/sis/search/r?dbs+hsdb:@term+@rn+@rel+526-73-8
   3. http://toxnet.nlm.nih.gov/cgi-bin/sis/search/r?dbs+hsdb:@term+@rn+@rel+526-73-8
   4. http://toxnet.nlm.nih.gov/cgi-bin/sis/search/r?dbs+hsdb:@term+@rn+@rel+526-73-8
   5. http://toxnet.nlm.nih.gov/cgi-bin/sis/search/r?dbs+hsdb:@term+@rn+@rel+526-73-8
   6. http://toxnet.nlm.nih.gov/cgi-bin/sis/search/r?dbs+hsdb:@term+@rn+@rel+526-73-8
   7. http://toxnet.nlm.nih.gov/cgi-bin/sis/search/r?dbs+hsdb:@term+@rn+@rel+526-73-8
   8. http://toxnet.nlm.nih.gov/cgi-bin/sis/search/r?dbs+hsdb:@term+@rn+@rel+526-73-8
   9. http://toxnet.nlm.nih.gov/cgi-bin/sis/search/r?dbs+hsdb:@term+@rn+@rel+526-73-8
  10. http://toxnet.nlm.nih.gov/cgi-bin/sis/search/r?dbs+hsdb:@term+@rn+@rel+526-73-8
  11. http://toxnet.nlm.nih.gov/cgi-bin/sis/search/r?dbs+hsdb:@term+@rn+@rel+526-73-8
  12. http://toxnet.nlm.nih.gov/cgi-bin/sis/search/r?dbs+hsdb:@term+@rn+@rel+526-73-8
  13. http://toxnet.nlm.nih.gov/cgi-bin/sis/search/r?dbs+hsdb:@term+@rn+@rel+526-73-8
  14. http://pubchem.ncbi.nlm.nih.gov/vw3d/vw3d.cgi?cid=10686
