56928077
  -OEChem-07051213022D

 32 34  0     1  0  0  0  0  0999 V2000
    7.2746    2.5446    0.0000 O   0  0  0  0  0  0  0  0  0  0  0  0
    2.0574   -2.5446    0.0000 O   0  0  0  0  0  0  0  0  0  0  0  0
    3.7894   -2.5246    0.0000 O   0  0  0  0  0  0  0  0  0  0  0  0
    4.6660    1.0000    0.0000 N   0  0  0  0  0  0  0  0  0  0  0  0
    4.6660   -1.0000    0.0000 N   0  0  0  0  0  0  0  0  0  0  0  0
    6.4260    1.0347    0.0000 C   0  0  0  0  0  0  0  0  0  0  0  0
    5.5321    0.5000    0.0000 C   0  0  0  0  0  0  0  0  0  0  0  0
    6.4144    2.0346    0.0000 C   0  0  1  0  0  0  0  0  0  0  0  0
    5.5321   -0.5000    0.0000 C   0  0  0  0  0  0  0  0  0  0  0  0
    3.8000   -0.5000    0.0000 C   0  0  0  0  0  0  0  0  0  0  0  0
    3.8000    0.5000    0.0000 C   0  0  0  0  0  0  0  0  0  0  0  0
    7.3321    0.5208    0.0000 C   0  0  0  0  0  0  0  0  0  0  0  0
    6.4260   -1.0347    0.0000 C   0  0  0  0  0  0  0  0  0  0  0  0
    2.9061   -1.0347    0.0000 C   0  0  0  0  0  0  0  0  0  0  0  0
    7.3321   -0.5208    0.0000 C   0  0  0  0  0  0  0  0  0  0  0  0
    5.5427    2.5246    0.0000 C   0  0  0  0  0  0  0  0  0  0  0  0
    2.9061    1.0347    0.0000 C   0  0  0  0  0  0  0  0  0  0  0  0
    2.0000   -0.5208    0.0000 C   0  0  0  0  0  0  0  0  0  0  0  0
    2.0000    0.5208    0.0000 C   0  0  0  0  0  0  0  0  0  0  0  0
    2.9176   -2.0346    0.0000 C   0  0  0  0  0  0  0  0  0  0  0  0
    6.4073    2.6546    0.0000 H   0  0  0  0  0  0  0  0  0  0  0  0
    7.8678    0.8329    0.0000 H   0  0  0  0  0  0  0  0  0  0  0  0
    6.4188   -1.6546    0.0000 H   0  0  0  0  0  0  0  0  0  0  0  0
    7.8678   -0.8329    0.0000 H   0  0  0  0  0  0  0  0  0  0  0  0
    5.8465    3.0650    0.0000 H   0  0  0  0  0  0  0  0  0  0  0  0
    5.0022    2.8283    0.0000 H   0  0  0  0  0  0  0  0  0  0  0  0
    5.2389    1.9841    0.0000 H   0  0  0  0  0  0  0  0  0  0  0  0
    2.9132    1.6546    0.0000 H   0  0  0  0  0  0  0  0  0  0  0  0
    1.4643   -0.8329    0.0000 H   0  0  0  0  0  0  0  0  0  0  0  0
    1.4643    0.8329    0.0000 H   0  0  0  0  0  0  0  0  0  0  0  0
    7.2674    3.1645    0.0000 H   0  0  0  0  0  0  0  0  0  0  0  0
    2.0646   -3.1645    0.0000 H   0  0  0  0  0  0  0  0  0  0  0  0
  8  1  1  1  0  0  0
  1 31  1  0  0  0  0
  2 20  1  0  0  0  0
  2 32  1  0  0  0  0
  3 20  2  0  0  0  0
  4  7  1  0  0  0  0
  4 11  2  0  0  0  0
  5  9  1  0  0  0  0
  5 10  2  0  0  0  0
  6  7  2  0  0  0  0
  6  8  1  0  0  0  0
  6 12  1  0  0  0  0
  7  9  1  0  0  0  0
  8 16  1  0  0  0  0
  8 21  1  0  0  0  0
  9 13  2  0  0  0  0
 10 11  1  0  0  0  0
 10 14  1  0  0  0  0
 11 17  1  0  0  0  0
 12 15  2  0  0  0  0
 12 22  1  0  0  0  0
 13 15  1  0  0  0  0
 13 23  1  0  0  0  0
 14 18  2  0  0  0  0
 14 20  1  0  0  0  0
 15 24  1  0  0  0  0
 16 25  1  0  0  0  0
 16 26  1  0  0  0  0
 16 27  1  0  0  0  0
 17 19  2  0  0  0  0
 17 28  1  0  0  0  0
 18 19  1  0  0  0  0
 18 29  1  0  0  0  0
 19 30  1  0  0  0  0
M  END
> <PUBCHEM_COMPOUND_CID>
56928077

> <PUBCHEM_COMPOUND_CANONICALIZED>
1

> <PUBCHEM_CACTVS_COMPLEXITY>
376

> <PUBCHEM_CACTVS_HBOND_ACCEPTOR>
5

> <PUBCHEM_CACTVS_HBOND_DONOR>
2

> <PUBCHEM_CACTVS_ROTATABLE_BOND>
2

> <PUBCHEM_CACTVS_SUBSKEYS>
AAADccBzMAAAAAAAAAAAAAAAAAAAAAAAAAA8YIAAAAAAAACx/AAAHgAACAAADByhngIyyLIIEgCoAyTyTACCgCQlEiAImCEwfNgIdvrAlZGUcYhmwAHI2ce8yKCOAAAAQAACACAAAACAAAQAQAAAAAAAAA==

> <PUBCHEM_IUPAC_OPENEYE_NAME>
6-[(1R)-1-hydroxyethyl]phenazine-1-carboxylic acid

> <PUBCHEM_IUPAC_CAS_NAME>
6-[(1R)-1-hydroxyethyl]-1-phenazinecarboxylic acid

> <PUBCHEM_IUPAC_NAME>
6-[(1R)-1-hydroxyethyl]phenazine-1-carboxylic acid

> <PUBCHEM_IUPAC_SYSTEMATIC_NAME>
6-[(1R)-1-oxidanylethyl]phenazine-1-carboxylic acid

> <PUBCHEM_IUPAC_TRADITIONAL_NAME>
6-[(1R)-1-hydroxyethyl]phenazine-1-carboxylic acid

> <PUBCHEM_IUPAC_INCHI>
InChI=1S/C15H12N2O3/c1-8(18)9-4-2-6-11-13(9)16-12-7-3-5-10(15(19)20)14(12)17-11/h2-8,18H,1H3,(H,19,20)/t8-/m1/s1

> <PUBCHEM_IUPAC_INCHIKEY>
OWDPOEGUZYTAJW-MRVPVSSYSA-N

> <PUBCHEM_XLOGP3_AA>
1.7

> <PUBCHEM_EXACT_MASS>
268.084792

> <PUBCHEM_MOLECULAR_FORMULA>
C15H12N2O3

> <PUBCHEM_MOLECULAR_WEIGHT>
268.26738

> <PUBCHEM_OPENEYE_CAN_SMILES>
CC(C1=CC=CC2=NC3=C(C=CC=C3N=C21)C(=O)O)O

> <PUBCHEM_OPENEYE_ISO_SMILES>
C[C@H](C1=CC=CC2=NC3=C(C=CC=C3N=C21)C(=O)O)O

> <PUBCHEM_CACTVS_TPSA>
83.3

> <PUBCHEM_MONOISOTOPIC_WEIGHT>
268.084792

> <PUBCHEM_TOTAL_CHARGE>
0

> <PUBCHEM_HEAVY_ATOM_COUNT>
20

> <PUBCHEM_ATOM_DEF_STEREO_COUNT>
1

> <PUBCHEM_ATOM_UDEF_STEREO_COUNT>
0

> <PUBCHEM_BOND_DEF_STEREO_COUNT>
0

> <PUBCHEM_BOND_UDEF_STEREO_COUNT>
0

> <PUBCHEM_ISOTOPIC_ATOM_COUNT>
0

> <PUBCHEM_COMPONENT_COUNT>
1

> <PUBCHEM_CACTVS_TAUTO_COUNT>
1

> <PUBCHEM_COORDINATE_TYPE>
1
5
255

> <PUBCHEM_BONDANNOTATIONS>
8  1  5
10  11  8
10  14  8
11  17  8
12  15  8
13  15  8
14  18  8
17  19  8
18  19  8
4  11  8
4  7  8
5  10  8
5  9  8
6  12  8
6  7  8
7  9  8
9  13  8

$$$$

