   Color/Form
        Colorless solid
   from [1]HSDB

   Odor
        Characteristic odor
   from [2]HSDB

   Melting Point
        82.3 deg C
   from [3]HSDB

   Corrosivity
        Non-corrosive
   from [4]HSDB

   Density/Specific Gravity
        1.22 at 20 deg C
   from [5]HSDB

   Octanol/Water Partition Coefficient
        log Kow = 2.77
   from [6]HSDB

   Solubilities

     * Moderately sol in most organic solvents except aliphatics.
     * Solubility (20 deg C): 0.6-1.2 kg/kg cyclohexanone
     * In dichloromethane >200, toluene >200, isopropanol 99, hexane 6.3
       (all in g/L, 20 deg C)
     * In water, of 71.5 mg/L at 25 deg C

   from [7]HSDB

   Spectral Properties
        Intense mass spectral peaks: 57 m/z (100%), 208 m/z (44%), 85 m/z
   (25%), 210 m/z (15%)
   from [8]HSDB

   Vapor Pressure
        1.5X10-8 mm Hg at 25 deg C
   from [9]HSDB

   Other Chemical/Physical Properties

     * Stable in 0.1 N H2SO4 for 24 hours; stable in 0.1N NaOH at 20 deg C
     * Stable to hydrolysis; DT50 at 22 deg C = 1 yr (pH = 3,6,9)
     * Henry's Law constant = 8.10X10-11 atm-cu m/mole at 25 deg C (est)

   from [10]HSDB

   Computed Properties
   Molecular Weight                  293.74874 [g/mol]
   Molecular Formula                 C[14]H[16]ClN[3]O[2]
   XLogP3                            2.8
   H-Bond Donor                      0
   H-Bond Acceptor                   4
   Rotatable Bond Count              5
   Tautomer Count                    2
   Exact Mass                        293.093104
   MonoIsotopic Mass                 293.093104
   Topological Polar Surface Area    57
   Heavy Atom Count                  20
   Formal Charge                     0
   Complexity                        338
   Isotope Atom Count                0
   Defined Atom Stereocenter Count   0
   Undefined Atom Stereocenter Count 1
   Defined Bond Stereocenter Count   0
   Undefined Bond Stereocenter Count 0
   Covalently-Bonded Unit Count      1
   Feature 3D Acceptor Count         2
   Feature 3D Cation Count           2
   Feature 3D Hydrophobe Count       1
   Feature 3D Ring Count             2
   Effective Rotor Count             5
   Conformer Sampling RMSD           0.8
   CID Conformer Count               [11]69

References

   1. http://toxnet.nlm.nih.gov/cgi-bin/sis/search/r?dbs+hsdb:@term+@rn+@rel+43121-43-3
   2. http://toxnet.nlm.nih.gov/cgi-bin/sis/search/r?dbs+hsdb:@term+@rn+@rel+43121-43-3
   3. http://toxnet.nlm.nih.gov/cgi-bin/sis/search/r?dbs+hsdb:@term+@rn+@rel+43121-43-3
   4. http://toxnet.nlm.nih.gov/cgi-bin/sis/search/r?dbs+hsdb:@term+@rn+@rel+43121-43-3
   5. http://toxnet.nlm.nih.gov/cgi-bin/sis/search/r?dbs+hsdb:@term+@rn+@rel+43121-43-3
   6. http://toxnet.nlm.nih.gov/cgi-bin/sis/search/r?dbs+hsdb:@term+@rn+@rel+43121-43-3
   7. http://toxnet.nlm.nih.gov/cgi-bin/sis/search/r?dbs+hsdb:@term+@rn+@rel+43121-43-3
   8. http://toxnet.nlm.nih.gov/cgi-bin/sis/search/r?dbs+hsdb:@term+@rn+@rel+43121-43-3
   9. http://toxnet.nlm.nih.gov/cgi-bin/sis/search/r?dbs+hsdb:@term+@rn+@rel+43121-43-3
  10. http://toxnet.nlm.nih.gov/cgi-bin/sis/search/r?dbs+hsdb:@term+@rn+@rel+43121-43-3
  11. http://pubchem.ncbi.nlm.nih.gov/vw3d/vw3d.cgi?cid=39385
