46173864
  -OEChem-07051213092D

 62 64  0     1  0  0  0  0  0999 V2000
   10.1588    0.7301    0.0000 P   0  0  3  0  0  0  0  0  0  0  0  0
    9.2928   -0.7699    0.0000 P   0  0  3  0  0  0  0  0  0  0  0  0
    6.6472   -2.3632    0.0000 O   0  0  0  0  0  0  0  0  0  0  0  0
   11.8909    1.7300    0.0000 O   0  0  0  0  0  0  0  0  0  0  0  0
   10.1588    1.7300    0.0000 O   0  0  0  0  0  0  0  0  0  0  0  0
    8.1994   -4.4336    0.0000 O   0  0  0  0  0  0  0  0  0  0  0  0
   13.6229    3.7300    0.0000 O   0  0  0  0  0  0  0  0  0  0  0  0
   10.1588    3.7300    0.0000 O   0  0  0  0  0  0  0  0  0  0  0  0
    8.4268   -1.2700    0.0000 O   0  0  0  0  0  0  0  0  0  0  0  0
   10.1588   -0.2699    0.0000 O   0  0  0  0  0  0  0  0  0  0  0  0
    9.1588    0.7301    0.0000 O   0  0  0  0  0  0  0  0  0  0  0  0
    4.8025   -4.7244    0.0000 O   0  0  0  0  0  0  0  0  0  0  0  0
    9.7928   -1.6360    0.0000 O   0  0  0  0  0  0  0  0  0  0  0  0
   11.1588    0.7301    0.0000 O   0  0  0  0  0  0  0  0  0  0  0  0
    8.7928    0.0961    0.0000 O   0  0  0  0  0  0  0  0  0  0  0  0
    2.0000   -2.6882    0.0000 O   0  0  0  0  0  0  0  0  0  0  0  0
    4.9836   -3.0018    0.0000 N   0  0  0  0  0  0  0  0  0  0  0  0
   11.8909    4.7300    0.0000 N   0  0  0  0  0  0  0  0  0  0  0  0
    3.4013   -3.7063    0.0000 N   0  0  0  0  0  0  0  0  0  0  0  0
   11.8909    3.7300    0.0000 C   0  0  2  0  0  0  0  0  0  0  0  0
    7.4562   -3.7645    0.0000 C   0  0  2  0  0  0  0  0  0  0  0  0
    7.5608   -2.7700    0.0000 C   0  0  1  0  0  0  0  0  0  0  0  0
   12.7569    3.2300    0.0000 C   0  0  1  0  0  0  0  0  0  0  0  0
    6.4781   -3.9724    0.0000 C   0  0  0  0  0  0  0  0  0  0  0  0
    5.9781   -3.1064    0.0000 C   0  0  1  0  0  0  0  0  0  0  0  0
   11.0249    3.2300    0.0000 C   0  0  2  0  0  0  0  0  0  0  0  0
   12.7569    2.2300    0.0000 C   0  0  1  0  0  0  0  0  0  0  0  0
   11.0249    2.2300    0.0000 C   0  0  2  0  0  0  0  0  0  0  0  0
    8.4268   -2.2700    0.0000 C   0  0  0  0  0  0  0  0  0  0  0  0
   13.6229    1.7300    0.0000 C   0  0  0  0  0  0  0  0  0  0  0  0
    4.5768   -2.0883    0.0000 C   0  0  0  0  0  0  0  0  0  0  0  0
    4.3958   -3.8108    0.0000 C   0  0  0  0  0  0  0  0  0  0  0  0
    3.5823   -1.9838    0.0000 C   0  0  0  0  0  0  0  0  0  0  0  0
    2.9945   -2.7928    0.0000 C   0  0  0  0  0  0  0  0  0  0  0  0
    3.1756   -1.0702    0.0000 C   0  0  0  0  0  0  0  0  0  0  0  0
   12.4278    4.0400    0.0000 H   0  0  0  0  0  0  0  0  0  0  0  0
    8.0351   -3.5423    0.0000 H   0  0  0  0  0  0  0  0  0  0  0  0
    7.5283   -2.1508    0.0000 H   0  0  0  0  0  0  0  0  0  0  0  0
   13.2939    2.9200    0.0000 H   0  0  0  0  0  0  0  0  0  0  0  0
    5.9117   -4.2246    0.0000 H   0  0  0  0  0  0  0  0  0  0  0  0
    6.6697   -4.5620    0.0000 H   0  0  0  0  0  0  0  0  0  0  0  0
    5.7559   -2.5275    0.0000 H   0  0  0  0  0  0  0  0  0  0  0  0
   10.4879    2.9200    0.0000 H   0  0  0  0  0  0  0  0  0  0  0  0
   12.7569    1.6100    0.0000 H   0  0  0  0  0  0  0  0  0  0  0  0
   10.4879    2.5400    0.0000 H   0  0  0  0  0  0  0  0  0  0  0  0
    8.6388   -2.8526    0.0000 H   0  0  0  0  0  0  0  0  0  0  0  0
    9.0374   -2.1623    0.0000 H   0  0  0  0  0  0  0  0  0  0  0  0
   13.3129    1.1931    0.0000 H   0  0  0  0  0  0  0  0  0  0  0  0
   14.1599    1.4200    0.0000 H   0  0  0  0  0  0  0  0  0  0  0  0
   13.9329    2.2670    0.0000 H   0  0  0  0  0  0  0  0  0  0  0  0
   12.4278    5.0400    0.0000 H   0  0  0  0  0  0  0  0  0  0  0  0
   11.3540    5.0400    0.0000 H   0  0  0  0  0  0  0  0  0  0  0  0
    8.0705   -5.0400    0.0000 H   0  0  0  0  0  0  0  0  0  0  0  0
   14.1599    3.4200    0.0000 H   0  0  0  0  0  0  0  0  0  0  0  0
    9.6219    3.4200    0.0000 H   0  0  0  0  0  0  0  0  0  0  0  0
    4.9413   -1.5867    0.0000 H   0  0  0  0  0  0  0  0  0  0  0  0
    3.0368   -4.2079    0.0000 H   0  0  0  0  0  0  0  0  0  0  0  0
    3.7420   -0.8180    0.0000 H   0  0  0  0  0  0  0  0  0  0  0  0
    2.9234   -0.5038    0.0000 H   0  0  0  0  0  0  0  0  0  0  0  0
    2.6092   -1.3224    0.0000 H   0  0  0  0  0  0  0  0  0  0  0  0
    8.8488    1.2670    0.0000 H   0  0  0  0  0  0  0  0  0  0  0  0
   10.4128   -1.6360    0.0000 H   0  0  0  0  0  0  0  0  0  0  0  0
  1  5  1  0  0  0  0
  1 10  1  0  0  0  0
  1 11  1  0  0  0  0
  1 14  2  0  0  0  0
  2  9  1  0  0  0  0
  2 10  1  0  0  0  0
  2 13  1  0  0  0  0
  2 15  2  0  0  0  0
  3 22  1  0  0  0  0
  3 25  1  0  0  0  0
  4 27  1  0  0  0  0
  4 28  1  0  0  0  0
 28  5  1  6  0  0  0
 21  6  1  1  0  0  0
  6 53  1  0  0  0  0
 23  7  1  6  0  0  0
  7 54  1  0  0  0  0
 26  8  1  6  0  0  0
  8 55  1  0  0  0  0
  9 29  1  0  0  0  0
 11 61  1  0  0  0  0
 12 32  2  0  0  0  0
 13 62  1  0  0  0  0
 16 34  2  0  0  0  0
 25 17  1  6  0  0  0
 17 31  1  0  0  0  0
 17 32  1  0  0  0  0
 20 18  1  6  0  0  0
 18 51  1  0  0  0  0
 18 52  1  0  0  0  0
 19 32  1  0  0  0  0
 19 34  1  0  0  0  0
 19 57  1  0  0  0  0
 20 23  1  0  0  0  0
 20 26  1  0  0  0  0
 20 36  1  0  0  0  0
 21 22  1  0  0  0  0
 21 24  1  0  0  0  0
 21 37  1  0  0  0  0
 22 29  1  6  0  0  0
 22 38  1  0  0  0  0
 23 27  1  0  0  0  0
 23 39  1  0  0  0  0
 24 25  1  0  0  0  0
 24 40  1  0  0  0  0
 24 41  1  0  0  0  0
 25 42  1  0  0  0  0
 26 28  1  0  0  0  0
 26 43  1  0  0  0  0
 27 30  1  1  0  0  0
 27 44  1  0  0  0  0
 28 45  1  0  0  0  0
 29 46  1  0  0  0  0
 29 47  1  0  0  0  0
 30 48  1  0  0  0  0
 30 49  1  0  0  0  0
 30 50  1  0  0  0  0
 31 33  2  0  0  0  0
 31 56  1  0  0  0  0
 33 34  1  0  0  0  0
 33 35  1  0  0  0  0
 35 58  1  0  0  0  0
 35 59  1  0  0  0  0
 35 60  1  0  0  0  0
M  END
> <PUBCHEM_COMPOUND_CID>
46173864

> <PUBCHEM_COMPOUND_CANONICALIZED>
1

> <PUBCHEM_CACTVS_COMPLEXITY>
964

> <PUBCHEM_CACTVS_HBOND_ACCEPTOR>
15

> <PUBCHEM_CACTVS_HBOND_DONOR>
7

> <PUBCHEM_CACTVS_ROTATABLE_BOND>
8

> <PUBCHEM_CACTVS_SUBSKEYS>
AAADceB7PAMAAAAAAAAAAAAAAAAAASAAAAAkQAAAAAAAAAAAAAAAHgAQCCAADDzxgAcDCAPABxCIQgFWUICAAAAAAAAAAIEIAECTEAIAgQAOQAAPFyIHAMHwcAYAAAAAAAAAAAAAAAAAAAAAAAAAAAAAAA==

> <PUBCHEM_IUPAC_OPENEYE_NAME>
[(2R,3R,4R,5S,6R)-4-amino-3,5-dihydroxy-6-methyl-tetrahydropyran-2-yl] [hydroxy-[[(2R,3S,5R)-3-hydroxy-5-(5-methyl-2,4-dioxo-pyrimidin-1-yl)tetrahydrofuran-2-yl]methoxy]phosphoryl] hydrogen phosphate

> <PUBCHEM_IUPAC_CAS_NAME>
[(2R,3R,4R,5S,6R)-4-amino-3,5-dihydroxy-6-methyl-2-oxanyl] [hydroxy-[[(2R,3S,5R)-3-hydroxy-5-(5-methyl-2,4-dioxo-1-pyrimidinyl)-2-oxolanyl]methoxy]phosphoryl] hydrogen phosphate

> <PUBCHEM_IUPAC_NAME>
[(2R,3R,4R,5S,6R)-4-amino-3,5-dihydroxy-6-methyloxan-2-yl] [hydroxy-[[(2R,3S,5R)-3-hydroxy-5-(5-methyl-2,4-dioxopyrimidin-1-yl)oxolan-2-yl]methoxy]phosphoryl] hydrogen phosphate

> <PUBCHEM_IUPAC_SYSTEMATIC_NAME>
[(2R,3R,4R,5S,6R)-4-azanyl-6-methyl-3,5-bis(oxidanyl)oxan-2-yl] [[(2R,3S,5R)-5-[5-methyl-2,4-bis(oxidanylidene)pyrimidin-1-yl]-3-oxidanyl-oxolan-2-yl]methoxy-oxidanyl-phosphoryl] hydrogen phosphate

> <PUBCHEM_IUPAC_TRADITIONAL_NAME>
[(2R,3R,4R,5S,6R)-4-amino-3,5-dihydroxy-6-methyl-tetrahydropyran-2-yl] [[(2R,3S,5R)-5-(2,4-diketo-5-methyl-pyrimidin-1-yl)-3-hydroxy-tetrahydrofuran-2-yl]methoxy-hydroxy-phosphoryl] hydrogen phosphate

> <PUBCHEM_IUPAC_INCHI>
InChI=1S/C16H27N3O14P2/c1-6-4-19(16(24)18-14(6)23)10-3-8(20)9(31-10)5-29-34(25,26)33-35(27,28)32-15-13(22)11(17)12(21)7(2)30-15/h4,7-13,15,20-22H,3,5,17H2,1-2H3,(H,25,26)(H,27,28)(H,18,23,24)/t7-,8+,9-,10-,11-,12-,13-,15-/m1/s1

> <PUBCHEM_IUPAC_INCHIKEY>
KVYJLJOGNUNRJK-BVSJMFFESA-N

> <PUBCHEM_XLOGP3_AA>
-7.3

> <PUBCHEM_EXACT_MASS>
547.096826

> <PUBCHEM_MOLECULAR_FORMULA>
C16H27N3O14P2

> <PUBCHEM_MOLECULAR_WEIGHT>
547.344804

> <PUBCHEM_OPENEYE_CAN_SMILES>
CC1C(C(C(C(O1)OP(=O)(O)OP(=O)(O)OCC2C(CC(O2)N3C=C(C(=O)NC3=O)C)O)O)N)O

> <PUBCHEM_OPENEYE_ISO_SMILES>
C[C@@H]1[C@H]([C@H]([C@H]([C@H](O1)OP(=O)(O)OP(=O)(O)OC[C@@H]2[C@H](C[C@@H](O2)N3C=C(C(=O)NC3=O)C)O)O)N)O

> <PUBCHEM_CACTVS_TPSA>
257

> <PUBCHEM_MONOISOTOPIC_WEIGHT>
547.096826

> <PUBCHEM_TOTAL_CHARGE>
0

> <PUBCHEM_HEAVY_ATOM_COUNT>
35

> <PUBCHEM_ATOM_DEF_STEREO_COUNT>
8

> <PUBCHEM_ATOM_UDEF_STEREO_COUNT>
0

> <PUBCHEM_BOND_DEF_STEREO_COUNT>
0

> <PUBCHEM_BOND_UDEF_STEREO_COUNT>
0

> <PUBCHEM_ISOTOPIC_ATOM_COUNT>
0

> <PUBCHEM_COMPONENT_COUNT>
1

> <PUBCHEM_CACTVS_TAUTO_COUNT>
3

> <PUBCHEM_COORDINATE_TYPE>
1
5
255

> <PUBCHEM_BONDANNOTATIONS>
25  17  6
17  31  8
17  32  8
20  18  6
19  32  8
19  34  8
22  29  6
27  30  5
31  33  8
33  34  8
28  5  6
21  6  5
23  7  6
26  8  6

$$$$

