17395529
  -OEChem-06241222502D

 29 31  0     0  0  0  0  0  0999 V2000
    2.6691   -0.0080    0.0000 S   0  0  0  0  0  0  0  0  0  0  0  0
    5.3147    1.3988    0.0000 O   0  0  0  0  0  0  0  0  0  0  0  0
    4.4487   -0.1012    0.0000 N   0  0  0  0  0  0  0  0  0  0  0  0
    3.4782    1.3933    0.0000 N   0  0  0  0  0  0  0  0  0  0  0  0
    9.4426   -0.6012    0.0000 C   0  0  0  0  0  0  0  0  0  0  0  0
    8.8590    0.2035    0.0000 C   0  0  0  0  0  0  0  0  0  0  0  0
    8.8590   -1.4060    0.0000 C   0  0  0  0  0  0  0  0  0  0  0  0
    7.9128   -0.1012    0.0000 C   0  0  0  0  0  0  0  0  0  0  0  0
    7.9128   -1.1012    0.0000 C   0  0  0  0  0  0  0  0  0  0  0  0
    7.0468    0.3988    0.0000 C   0  0  0  0  0  0  0  0  0  0  0  0
    7.0468   -1.6012    0.0000 C   0  0  0  0  0  0  0  0  0  0  0  0
    6.1808   -0.1012    0.0000 C   0  0  0  0  0  0  0  0  0  0  0  0
    6.1808   -1.1012    0.0000 C   0  0  0  0  0  0  0  0  0  0  0  0
    5.3147    0.3988    0.0000 C   0  0  0  0  0  0  0  0  0  0  0  0
    3.5827    0.3988    0.0000 C   0  0  0  0  0  0  0  0  0  0  0  0
    2.0000    0.7352    0.0000 C   0  0  0  0  0  0  0  0  0  0  0  0
    2.5000    1.6012    0.0000 C   0  0  0  0  0  0  0  0  0  0  0  0
    9.9035   -1.0159    0.0000 H   0  0  0  0  0  0  0  0  0  0  0  0
    9.9035   -0.1865    0.0000 H   0  0  0  0  0  0  0  0  0  0  0  0
    9.3964    0.5127    0.0000 H   0  0  0  0  0  0  0  0  0  0  0  0
    8.6080    0.7704    0.0000 H   0  0  0  0  0  0  0  0  0  0  0  0
    8.6080   -1.9729    0.0000 H   0  0  0  0  0  0  0  0  0  0  0  0
    9.3964   -1.7152    0.0000 H   0  0  0  0  0  0  0  0  0  0  0  0
    7.0468    1.0188    0.0000 H   0  0  0  0  0  0  0  0  0  0  0  0
    7.0468   -2.2212    0.0000 H   0  0  0  0  0  0  0  0  0  0  0  0
    5.6438   -1.4112    0.0000 H   0  0  0  0  0  0  0  0  0  0  0  0
    4.4487   -0.7212    0.0000 H   0  0  0  0  0  0  0  0  0  0  0  0
    1.3834    0.6704    0.0000 H   0  0  0  0  0  0  0  0  0  0  0  0
    2.2478    2.1676    0.0000 H   0  0  0  0  0  0  0  0  0  0  0  0
  1 15  1  0  0  0  0
  1 16  1  0  0  0  0
  2 14  2  0  0  0  0
  3 14  1  0  0  0  0
  3 15  1  0  0  0  0
  3 27  1  0  0  0  0
  4 15  2  0  0  0  0
  4 17  1  0  0  0  0
  5  6  1  0  0  0  0
  5  7  1  0  0  0  0
  5 18  1  0  0  0  0
  5 19  1  0  0  0  0
  6  8  1  0  0  0  0
  6 20  1  0  0  0  0
  6 21  1  0  0  0  0
  7  9  1  0  0  0  0
  7 22  1  0  0  0  0
  7 23  1  0  0  0  0
  8  9  2  0  0  0  0
  8 10  1  0  0  0  0
  9 11  1  0  0  0  0
 10 12  2  0  0  0  0
 10 24  1  0  0  0  0
 11 13  2  0  0  0  0
 11 25  1  0  0  0  0
 12 13  1  0  0  0  0
 12 14  1  0  0  0  0
 13 26  1  0  0  0  0
 16 17  2  0  0  0  0
 16 28  1  0  0  0  0
 17 29  1  0  0  0  0
M  END
> <PUBCHEM_COMPOUND_CID>
17395529

> <PUBCHEM_COMPOUND_CANONICALIZED>
1

> <PUBCHEM_CACTVS_COMPLEXITY>
297

> <PUBCHEM_CACTVS_HBOND_ACCEPTOR>
3

> <PUBCHEM_CACTVS_HBOND_DONOR>
1

> <PUBCHEM_CACTVS_ROTATABLE_BOND>
2

> <PUBCHEM_CACTVS_SUBSKEYS>
AAADccBzIABAAAAAAAAAAAAAAAAAAeIAAAAwAAAAAAAAAGABwAAAHgQQAAAADADF2gS9kZLIEAisAjF3dACC8Kl1CjlJyA0YJMiIIDKAnRGEIQhogQIIiacYiMCOwAACAAAQAACAAAQAACAAAAAACAAAAA==

> <PUBCHEM_IUPAC_OPENEYE_NAME>
N-thiazol-2-ylindane-5-carboxamide

> <PUBCHEM_IUPAC_CAS_NAME>
N-(2-thiazolyl)-2,3-dihydro-1H-indene-5-carboxamide

> <PUBCHEM_IUPAC_NAME>
N-(1,3-thiazol-2-yl)-2,3-dihydro-1H-indene-5-carboxamide

> <PUBCHEM_IUPAC_SYSTEMATIC_NAME>
N-(1,3-thiazol-2-yl)-2,3-dihydro-1H-indene-5-carboxamide

> <PUBCHEM_IUPAC_TRADITIONAL_NAME>
N-thiazol-2-ylindane-5-carboxamide

> <PUBCHEM_IUPAC_INCHI>
InChI=1S/C13H12N2OS/c16-12(15-13-14-6-7-17-13)11-5-4-9-2-1-3-10(9)8-11/h4-8H,1-3H2,(H,14,15,16)

> <PUBCHEM_IUPAC_INCHIKEY>
GSPMEVKXNDSZRL-UHFFFAOYSA-N

> <PUBCHEM_XLOGP3_AA>
3

> <PUBCHEM_EXACT_MASS>
244.067034

> <PUBCHEM_MOLECULAR_FORMULA>
C13H12N2OS

> <PUBCHEM_MOLECULAR_WEIGHT>
244.31218

> <PUBCHEM_OPENEYE_CAN_SMILES>
C1CC2=C(C1)C=C(C=C2)C(=O)NC3=NC=CS3

> <PUBCHEM_OPENEYE_ISO_SMILES>
C1CC2=C(C1)C=C(C=C2)C(=O)NC3=NC=CS3

> <PUBCHEM_CACTVS_TPSA>
70.2

> <PUBCHEM_MONOISOTOPIC_WEIGHT>
244.067034

> <PUBCHEM_TOTAL_CHARGE>
0

> <PUBCHEM_HEAVY_ATOM_COUNT>
17

> <PUBCHEM_ATOM_DEF_STEREO_COUNT>
0

> <PUBCHEM_ATOM_UDEF_STEREO_COUNT>
0

> <PUBCHEM_BOND_DEF_STEREO_COUNT>
0

> <PUBCHEM_BOND_UDEF_STEREO_COUNT>
0

> <PUBCHEM_ISOTOPIC_ATOM_COUNT>
0

> <PUBCHEM_COMPONENT_COUNT>
1

> <PUBCHEM_CACTVS_TAUTO_COUNT>
14

> <PUBCHEM_COORDINATE_TYPE>
1
5
255

> <PUBCHEM_BONDANNOTATIONS>
1  15  8
1  16  8
10  12  8
11  13  8
12  13  8
16  17  8
4  15  8
4  17  8
8  10  8
8  9  8
9  11  8

$$$$

