11705814
  -OEChem-07051212492D

 71 70  0     1  0  0  0  0  0999 V2000
    3.4030   -0.4050    0.0000 P   0  0  0  0  0  0  0  0  0  0  0  0
    7.7331    0.0950    0.0000 O   0  0  0  0  0  0  0  0  0  0  0  0
    6.0010    1.0950    0.0000 O   0  0  0  0  0  0  0  0  0  0  0  0
    4.2690    0.0950    0.0000 O   0  0  0  0  0  0  0  0  0  0  0  0
    2.5369   -0.9050    0.0000 O   0  0  0  0  0  0  0  0  0  0  0  0
    2.9030    0.4610    0.0000 O   0  0  0  0  0  0  0  0  0  0  0  0
    3.9030   -1.2710    0.0000 O   0  0  0  0  0  0  0  0  0  0  0  0
   14.6613    0.0950    0.0000 C   0  0  0  0  0  0  0  0  0  0  0  0
   15.5273   -0.4050    0.0000 C   0  0  0  0  0  0  0  0  0  0  0  0
   13.7953   -0.4050    0.0000 C   0  0  0  0  0  0  0  0  0  0  0  0
   12.0632   -0.4050    0.0000 C   0  0  0  0  0  0  0  0  0  0  0  0
   11.1972    0.0950    0.0000 C   0  0  0  0  0  0  0  0  0  0  0  0
   12.9292    0.0950    0.0000 C   0  0  0  0  0  0  0  0  0  0  0  0
   17.2594   -0.4050    0.0000 C   0  0  0  0  0  0  0  0  0  0  0  0
   18.1254    0.0950    0.0000 C   0  0  0  0  0  0  0  0  0  0  0  0
   16.3933    0.0950    0.0000 C   0  0  0  0  0  0  0  0  0  0  0  0
   10.3312   -0.4050    0.0000 C   0  0  0  0  0  0  0  0  0  0  0  0
   18.9914   -0.4050    0.0000 C   0  0  0  0  0  0  0  0  0  0  0  0
   13.7953   -1.4050    0.0000 C   0  0  0  0  0  0  0  0  0  0  0  0
   17.2594   -1.4050    0.0000 C   0  0  0  0  0  0  0  0  0  0  0  0
    9.4651    0.0950    0.0000 C   0  0  0  0  0  0  0  0  0  0  0  0
   10.3312   -1.4050    0.0000 C   0  0  0  0  0  0  0  0  0  0  0  0
    8.5991   -0.4050    0.0000 C   0  0  0  0  0  0  0  0  0  0  0  0
   19.8574    0.0950    0.0000 C   0  0  0  0  0  0  0  0  0  0  0  0
    6.0010    0.0950    0.0000 C   0  0  1  0  0  0  0  0  0  0  0  0
    6.8671   -0.4050    0.0000 C   0  0  0  0  0  0  0  0  0  0  0  0
   20.7235   -0.4050    0.0000 C   0  0  0  0  0  0  0  0  0  0  0  0
    5.1350   -0.4050    0.0000 C   0  0  0  0  0  0  0  0  0  0  0  0
   21.5895    0.0950    0.0000 C   0  0  0  0  0  0  0  0  0  0  0  0
   20.7235   -1.4050    0.0000 C   0  0  0  0  0  0  0  0  0  0  0  0
   15.0598    0.5699    0.0000 H   0  0  0  0  0  0  0  0  0  0  0  0
   14.2628    0.5699    0.0000 H   0  0  0  0  0  0  0  0  0  0  0  0
   15.1288   -0.8799    0.0000 H   0  0  0  0  0  0  0  0  0  0  0  0
   15.9258   -0.8799    0.0000 H   0  0  0  0  0  0  0  0  0  0  0  0
   11.6647   -0.8799    0.0000 H   0  0  0  0  0  0  0  0  0  0  0  0
   12.4617   -0.8799    0.0000 H   0  0  0  0  0  0  0  0  0  0  0  0
   11.5957    0.5699    0.0000 H   0  0  0  0  0  0  0  0  0  0  0  0
   10.7987    0.5699    0.0000 H   0  0  0  0  0  0  0  0  0  0  0  0
   12.9292    0.7150    0.0000 H   0  0  0  0  0  0  0  0  0  0  0  0
   18.5239    0.5699    0.0000 H   0  0  0  0  0  0  0  0  0  0  0  0
   17.7269    0.5699    0.0000 H   0  0  0  0  0  0  0  0  0  0  0  0
   16.3933    0.7150    0.0000 H   0  0  0  0  0  0  0  0  0  0  0  0
   18.5929   -0.8799    0.0000 H   0  0  0  0  0  0  0  0  0  0  0  0
   19.3899   -0.8799    0.0000 H   0  0  0  0  0  0  0  0  0  0  0  0
   13.1753   -1.4050    0.0000 H   0  0  0  0  0  0  0  0  0  0  0  0
   13.7953   -2.0250    0.0000 H   0  0  0  0  0  0  0  0  0  0  0  0
   14.4153   -1.4050    0.0000 H   0  0  0  0  0  0  0  0  0  0  0  0
   16.6394   -1.4050    0.0000 H   0  0  0  0  0  0  0  0  0  0  0  0
   17.2594   -2.0250    0.0000 H   0  0  0  0  0  0  0  0  0  0  0  0
   17.8794   -1.4050    0.0000 H   0  0  0  0  0  0  0  0  0  0  0  0
    9.4651    0.7150    0.0000 H   0  0  0  0  0  0  0  0  0  0  0  0
    9.7112   -1.4050    0.0000 H   0  0  0  0  0  0  0  0  0  0  0  0
   10.3312   -2.0250    0.0000 H   0  0  0  0  0  0  0  0  0  0  0  0
   10.9512   -1.4050    0.0000 H   0  0  0  0  0  0  0  0  0  0  0  0
    8.2006   -0.8799    0.0000 H   0  0  0  0  0  0  0  0  0  0  0  0
    8.9976   -0.8799    0.0000 H   0  0  0  0  0  0  0  0  0  0  0  0
    6.5380    0.4050    0.0000 H   0  0  0  0  0  0  0  0  0  0  0  0
   19.8574    0.7150    0.0000 H   0  0  0  0  0  0  0  0  0  0  0  0
    6.4685   -0.8799    0.0000 H   0  0  0  0  0  0  0  0  0  0  0  0
    7.2656   -0.8799    0.0000 H   0  0  0  0  0  0  0  0  0  0  0  0
    4.7365   -0.8799    0.0000 H   0  0  0  0  0  0  0  0  0  0  0  0
    5.5335   -0.8799    0.0000 H   0  0  0  0  0  0  0  0  0  0  0  0
   21.8995   -0.4419    0.0000 H   0  0  0  0  0  0  0  0  0  0  0  0
   22.1264    0.4050    0.0000 H   0  0  0  0  0  0  0  0  0  0  0  0
   21.2795    0.6319    0.0000 H   0  0  0  0  0  0  0  0  0  0  0  0
   20.1035   -1.4050    0.0000 H   0  0  0  0  0  0  0  0  0  0  0  0
   20.7235   -2.0250    0.0000 H   0  0  0  0  0  0  0  0  0  0  0  0
   21.3435   -1.4050    0.0000 H   0  0  0  0  0  0  0  0  0  0  0  0
    6.5380    1.4050    0.0000 H   0  0  0  0  0  0  0  0  0  0  0  0
    2.0000   -0.5950    0.0000 H   0  0  0  0  0  0  0  0  0  0  0  0
    3.2130    0.9980    0.0000 H   0  0  0  0  0  0  0  0  0  0  0  0
  1  4  1  0  0  0  0
  1  5  1  0  0  0  0
  1  6  1  0  0  0  0
  1  7  2  0  0  0  0
  2 23  1  0  0  0  0
  2 26  1  0  0  0  0
 25  3  1  1  0  0  0
  3 69  1  0  0  0  0
  4 28  1  0  0  0  0
  5 70  1  0  0  0  0
  6 71  1  0  0  0  0
  8  9  1  0  0  0  0
  8 10  1  0  0  0  0
  8 31  1  0  0  0  0
  8 32  1  0  0  0  0
  9 16  1  0  0  0  0
  9 33  1  0  0  0  0
  9 34  1  0  0  0  0
 10 13  2  0  0  0  0
 10 19  1  0  0  0  0
 11 12  1  0  0  0  0
 11 13  1  0  0  0  0
 11 35  1  0  0  0  0
 11 36  1  0  0  0  0
 12 17  1  0  0  0  0
 12 37  1  0  0  0  0
 12 38  1  0  0  0  0
 13 39  1  0  0  0  0
 14 15  1  0  0  0  0
 14 16  2  0  0  0  0
 14 20  1  0  0  0  0
 15 18  1  0  0  0  0
 15 40  1  0  0  0  0
 15 41  1  0  0  0  0
 16 42  1  0  0  0  0
 17 21  2  0  0  0  0
 17 22  1  0  0  0  0
 18 24  1  0  0  0  0
 18 43  1  0  0  0  0
 18 44  1  0  0  0  0
 19 45  1  0  0  0  0
 19 46  1  0  0  0  0
 19 47  1  0  0  0  0
 20 48  1  0  0  0  0
 20 49  1  0  0  0  0
 20 50  1  0  0  0  0
 21 23  1  0  0  0  0
 21 51  1  0  0  0  0
 22 52  1  0  0  0  0
 22 53  1  0  0  0  0
 22 54  1  0  0  0  0
 23 55  1  0  0  0  0
 23 56  1  0  0  0  0
 24 27  2  0  0  0  0
 24 58  1  0  0  0  0
 25 26  1  0  0  0  0
 25 28  1  0  0  0  0
 25 57  1  0  0  0  0
 26 59  1  0  0  0  0
 26 60  1  0  0  0  0
 27 29  1  0  0  0  0
 27 30  1  0  0  0  0
 28 61  1  0  0  0  0
 28 62  1  0  0  0  0
 29 63  1  0  0  0  0
 29 64  1  0  0  0  0
 29 65  1  0  0  0  0
 30 66  1  0  0  0  0
 30 67  1  0  0  0  0
 30 68  1  0  0  0  0
M  END
> <PUBCHEM_COMPOUND_CID>
11705814

> <PUBCHEM_COMPOUND_CANONICALIZED>
1

> <PUBCHEM_CACTVS_COMPLEXITY>
638

> <PUBCHEM_CACTVS_HBOND_ACCEPTOR>
6

> <PUBCHEM_CACTVS_HBOND_DONOR>
3

> <PUBCHEM_CACTVS_ROTATABLE_BOND>
16

> <PUBCHEM_CACTVS_SUBSKEYS>
AAADcfB4OAIAAAAAAAAAAAAAAAAAAAAAAAAAAAAAAAAAAAAAAAAAGgAACCAADBSggAICAAAABxCAQiBCAIAAAAAgAAAACAAAAAgBFAIAIQACEAABgAALIAIAAAAAAAAAAAAAAAAAAAAAAAAAAAAAAAAAAA==

> <PUBCHEM_IUPAC_OPENEYE_NAME>
[(2S)-2-hydroxy-3-[(2E,6E,10E)-3,7,11,15-tetramethylhexadeca-2,6,10,14-tetraenoxy]propyl] dihydrogen phosphate

> <PUBCHEM_IUPAC_CAS_NAME>
[(2S)-2-hydroxy-3-[(2E,6E,10E)-3,7,11,15-tetramethylhexadeca-2,6,10,14-tetraenoxy]propyl] dihydrogen phosphate

> <PUBCHEM_IUPAC_NAME>
[(2S)-2-hydroxy-3-[(2E,6E,10E)-3,7,11,15-tetramethylhexadeca-2,6,10,14-tetraenoxy]propyl] dihydrogen phosphate

> <PUBCHEM_IUPAC_SYSTEMATIC_NAME>
[(2S)-2-oxidanyl-3-[(2E,6E,10E)-3,7,11,15-tetramethylhexadeca-2,6,10,14-tetraenoxy]propyl] dihydrogen phosphate

> <PUBCHEM_IUPAC_TRADITIONAL_NAME>
[(2S)-2-hydroxy-3-[(2E,6E,10E)-3,7,11,15-tetramethylhexadeca-2,6,10,14-tetraenoxy]propyl] dihydrogen phosphate

> <PUBCHEM_IUPAC_INCHI>
InChI=1S/C23H41O6P/c1-19(2)9-6-10-20(3)11-7-12-21(4)13-8-14-22(5)15-16-28-17-23(24)18-29-30(25,26)27/h9,11,13,15,23-24H,6-8,10,12,14,16-18H2,1-5H3,(H2,25,26,27)/b20-11+,21-13+,22-15+/t23-/m0/s1

> <PUBCHEM_IUPAC_INCHIKEY>
BJLPWUCPFAJINB-UAQSTNRTSA-N

> <PUBCHEM_XLOGP3_AA>
4.8

> <PUBCHEM_EXACT_MASS>
444.264076

> <PUBCHEM_MOLECULAR_FORMULA>
C23H41O6P

> <PUBCHEM_MOLECULAR_WEIGHT>
444.541802

> <PUBCHEM_OPENEYE_CAN_SMILES>
CC(=CCCC(=CCCC(=CCCC(=CCOCC(COP(=O)(O)O)O)C)C)C)C

> <PUBCHEM_OPENEYE_ISO_SMILES>
CC(=CCC/C(=C/CC/C(=C/CC/C(=C/COC[C@@H](COP(=O)(O)O)O)/C)/C)/C)C

> <PUBCHEM_CACTVS_TPSA>
96.2

> <PUBCHEM_MONOISOTOPIC_WEIGHT>
444.264076

> <PUBCHEM_TOTAL_CHARGE>
0

> <PUBCHEM_HEAVY_ATOM_COUNT>
30

> <PUBCHEM_ATOM_DEF_STEREO_COUNT>
1

> <PUBCHEM_ATOM_UDEF_STEREO_COUNT>
0

> <PUBCHEM_BOND_DEF_STEREO_COUNT>
3

> <PUBCHEM_BOND_UDEF_STEREO_COUNT>
0

> <PUBCHEM_ISOTOPIC_ATOM_COUNT>
0

> <PUBCHEM_COMPONENT_COUNT>
1

> <PUBCHEM_CACTVS_TAUTO_COUNT>
1

> <PUBCHEM_COORDINATE_TYPE>
1
5
255

> <PUBCHEM_BONDANNOTATIONS>
25  3  5

$$$$

