47205598
  -OEChem-06241222592D

 37 37  0     1  0  0  0  0  0999 V2000
    4.5981    1.8450    0.0000 O   0  0  0  0  0  0  0  0  0  0  0  0
    5.4641   -1.6550    0.0000 O   0  0  0  0  0  0  0  0  0  0  0  0
    8.0622    2.8450    0.0000 O   0  0  0  0  0  0  0  0  0  0  0  0
    6.3301    2.8450    0.0000 N   0  0  0  0  0  0  0  0  0  0  0  0
    5.4641    0.3450    0.0000 N   0  0  0  0  0  0  0  0  0  0  0  0
    3.7320   -1.6550    0.0000 N   0  0  0  0  0  0  0  0  0  0  0  0
    4.5981   -0.1550    0.0000 N   0  0  0  0  0  0  0  0  0  0  0  0
    7.1962    4.3450    0.0000 N   0  0  0  0  0  0  0  0  0  0  0  0
    6.3301    1.8450    0.0000 C   0  0  3  0  0  0  0  0  0  0  0  0
    7.1962    1.3450    0.0000 C   0  0  0  0  0  0  0  0  0  0  0  0
    5.4641    1.3450    0.0000 C   0  0  0  0  0  0  0  0  0  0  0  0
    3.7320   -2.6550    0.0000 C   0  0  0  0  0  0  0  0  0  0  0  0
    2.8660   -3.1550    0.0000 C   0  0  0  0  0  0  0  0  0  0  0  0
    4.5981   -3.1550    0.0000 C   0  0  0  0  0  0  0  0  0  0  0  0
    2.8660   -4.1550    0.0000 C   0  0  0  0  0  0  0  0  0  0  0  0
    2.0000   -2.6550    0.0000 C   0  0  0  0  0  0  0  0  0  0  0  0
    4.5981   -1.1550    0.0000 C   0  0  0  0  0  0  0  0  0  0  0  0
    4.5981   -4.1550    0.0000 C   0  0  0  0  0  0  0  0  0  0  0  0
    3.7320   -4.6550    0.0000 C   0  0  0  0  0  0  0  0  0  0  0  0
    7.1962    3.3450    0.0000 C   0  0  0  0  0  0  0  0  0  0  0  0
    6.8671    2.1550    0.0000 H   0  0  0  0  0  0  0  0  0  0  0  0
    6.8862    0.8081    0.0000 H   0  0  0  0  0  0  0  0  0  0  0  0
    7.7331    1.0350    0.0000 H   0  0  0  0  0  0  0  0  0  0  0  0
    7.5062    1.8819    0.0000 H   0  0  0  0  0  0  0  0  0  0  0  0
    5.7932    3.1550    0.0000 H   0  0  0  0  0  0  0  0  0  0  0  0
    6.0010    0.0350    0.0000 H   0  0  0  0  0  0  0  0  0  0  0  0
    3.1951   -1.3450    0.0000 H   0  0  0  0  0  0  0  0  0  0  0  0
    5.1350   -2.8450    0.0000 H   0  0  0  0  0  0  0  0  0  0  0  0
    2.3291   -4.4650    0.0000 H   0  0  0  0  0  0  0  0  0  0  0  0
    2.3100   -2.1181    0.0000 H   0  0  0  0  0  0  0  0  0  0  0  0
    1.4631   -2.3450    0.0000 H   0  0  0  0  0  0  0  0  0  0  0  0
    1.6900   -3.1919    0.0000 H   0  0  0  0  0  0  0  0  0  0  0  0
    4.0611    0.1550    0.0000 H   0  0  0  0  0  0  0  0  0  0  0  0
    5.1350   -4.4650    0.0000 H   0  0  0  0  0  0  0  0  0  0  0  0
    3.7320   -5.2750    0.0000 H   0  0  0  0  0  0  0  0  0  0  0  0
    7.7331    4.6550    0.0000 H   0  0  0  0  0  0  0  0  0  0  0  0
    6.6592    4.6550    0.0000 H   0  0  0  0  0  0  0  0  0  0  0  0
  1 11  2  0  0  0  0
  2 17  2  0  0  0  0
  3 20  2  0  0  0  0
  4  9  1  0  0  0  0
  4 20  1  0  0  0  0
  4 25  1  0  0  0  0
  5  7  1  0  0  0  0
  5 11  1  0  0  0  0
  5 26  1  0  0  0  0
  6 12  1  0  0  0  0
  6 17  1  0  0  0  0
  6 27  1  0  0  0  0
  7 17  1  0  0  0  0
  7 33  1  0  0  0  0
  8 20  1  0  0  0  0
  8 36  1  0  0  0  0
  8 37  1  0  0  0  0
  9 10  1  0  0  0  0
  9 11  1  0  0  0  0
  9 21  1  0  0  0  0
 10 22  1  0  0  0  0
 10 23  1  0  0  0  0
 10 24  1  0  0  0  0
 12 13  1  0  0  0  0
 12 14  2  0  0  0  0
 13 15  2  0  0  0  0
 13 16  1  0  0  0  0
 14 18  1  0  0  0  0
 14 28  1  0  0  0  0
 15 19  1  0  0  0  0
 15 29  1  0  0  0  0
 16 30  1  0  0  0  0
 16 31  1  0  0  0  0
 16 32  1  0  0  0  0
 18 19  2  0  0  0  0
 18 34  1  0  0  0  0
 19 35  1  0  0  0  0
M  END
> <PUBCHEM_COMPOUND_CID>
47205598

> <PUBCHEM_COMPOUND_CANONICALIZED>
1

> <PUBCHEM_CACTVS_COMPLEXITY>
374

> <PUBCHEM_CACTVS_HBOND_ACCEPTOR>
3

> <PUBCHEM_CACTVS_HBOND_DONOR>
5

> <PUBCHEM_CACTVS_ROTATABLE_BOND>
3

> <PUBCHEM_CACTVS_SUBSKEYS>
AAADceBzsAAAAAAAAAAAAAAAAAAAAAAAAAAwAAAAAAAAAAABAAAAHgAYAAAADCjBmAQzwILiAACIAiVSUACCAAAhAgIeqIGIZIiIYCLAkbGUIAhwlgJIyCcQgAAOAAAAAAACAAAAAAAAAAQAAAAAAAAAAA==

> <PUBCHEM_IUPAC_OPENEYE_NAME>
1-(o-tolyl)-3-(2-ureidopropanoylamino)urea

> <PUBCHEM_IUPAC_CAS_NAME>
1-[[2-(carbamoylamino)-1-oxopropyl]amino]-3-(2-methylphenyl)urea

> <PUBCHEM_IUPAC_NAME>
1-[2-(carbamoylamino)propanoylamino]-3-(2-methylphenyl)urea

> <PUBCHEM_IUPAC_SYSTEMATIC_NAME>
1-[2-(aminocarbonylamino)propanoylamino]-3-(2-methylphenyl)urea

> <PUBCHEM_IUPAC_TRADITIONAL_NAME>
1-(o-tolyl)-3-(2-ureidopropanoylamino)urea

> <PUBCHEM_IUPAC_INCHI>
InChI=1S/C12H17N5O3/c1-7-5-3-4-6-9(7)15-12(20)17-16-10(18)8(2)14-11(13)19/h3-6,8H,1-2H3,(H,16,18)(H3,13,14,19)(H2,15,17,20)

> <PUBCHEM_IUPAC_INCHIKEY>
ALDKKUHFYXQBHI-UHFFFAOYSA-N

> <PUBCHEM_XLOGP3_AA>
0

> <PUBCHEM_EXACT_MASS>
279.133139

> <PUBCHEM_MOLECULAR_FORMULA>
C12H17N5O3

> <PUBCHEM_MOLECULAR_WEIGHT>
279.29508

> <PUBCHEM_OPENEYE_CAN_SMILES>
CC1=CC=CC=C1NC(=O)NNC(=O)C(C)NC(=O)N

> <PUBCHEM_OPENEYE_ISO_SMILES>
CC1=CC=CC=C1NC(=O)NNC(=O)C(C)NC(=O)N

> <PUBCHEM_CACTVS_TPSA>
125

> <PUBCHEM_MONOISOTOPIC_WEIGHT>
279.133139

> <PUBCHEM_TOTAL_CHARGE>
0

> <PUBCHEM_HEAVY_ATOM_COUNT>
20

> <PUBCHEM_ATOM_DEF_STEREO_COUNT>
0

> <PUBCHEM_ATOM_UDEF_STEREO_COUNT>
1

> <PUBCHEM_BOND_DEF_STEREO_COUNT>
0

> <PUBCHEM_BOND_UDEF_STEREO_COUNT>
0

> <PUBCHEM_ISOTOPIC_ATOM_COUNT>
0

> <PUBCHEM_COMPONENT_COUNT>
1

> <PUBCHEM_CACTVS_TAUTO_COUNT>
18

> <PUBCHEM_COORDINATE_TYPE>
1
5
255

> <PUBCHEM_BONDANNOTATIONS>
12  13  8
12  14  8
13  15  8
14  18  8
15  19  8
18  19  8
9  10  3

$$$$

