22131
  -OEChem-07051213042D

 10 10  0     0  0  0  0  0  0999 V2000
    4.5691   -0.1410    0.0000 Hg  0  0  0  0  0  0  0  0  0  0  0  0
    4.7770   -1.1191    0.0000 Cl  0  0  0  0  0  0  0  0  0  0  0  0
    2.8090   -0.4197    0.0000 O   0  0  0  0  0  0  0  0  0  0  0  0
    3.3090    1.1191    0.0000 C   0  0  0  0  0  0  0  0  0  0  0  0
    3.6180    0.1681    0.0000 C   0  0  0  0  0  0  0  0  0  0  0  0
    2.3090    1.1191    0.0000 C   0  0  0  0  0  0  0  0  0  0  0  0
    2.0000    0.1681    0.0000 C   0  0  0  0  0  0  0  0  0  0  0  0
    3.6734    1.6207    0.0000 H   0  0  0  0  0  0  0  0  0  0  0  0
    1.9446    1.6207    0.0000 H   0  0  0  0  0  0  0  0  0  0  0  0
    1.4103   -0.0235    0.0000 H   0  0  0  0  0  0  0  0  0  0  0  0
  1  2  1  0  0  0  0
  1  5  1  0  0  0  0
  3  5  1  0  0  0  0
  3  7  1  0  0  0  0
  4  5  2  0  0  0  0
  4  6  1  0  0  0  0
  4  8  1  0  0  0  0
  6  7  2  0  0  0  0
  6  9  1  0  0  0  0
  7 10  1  0  0  0  0
M  END
> <PUBCHEM_COMPOUND_CID>
22131

> <PUBCHEM_COMPOUND_CANONICALIZED>
1

> <PUBCHEM_CACTVS_COMPLEXITY>
59.7

> <PUBCHEM_CACTVS_HBOND_ACCEPTOR>
1

> <PUBCHEM_CACTVS_HBOND_DONOR>
0

> <PUBCHEM_CACTVS_ROTATABLE_BOND>
0

> <PUBCHEM_CACTVS_SUBSKEYS>
AAADcQBgIAAEAAAAAAAAAQAAAAAAASAAAAAAAAAAAAAAAAABgAAAGgAAAAAACACgkAIwBIAABECIAChSgAACCAAkIAAIiAEGCMgMJhAEJQoCGSCEQBEAIYAAAAAAAAAAAAAAAAAAAAAAAAAAAAAAAAAAAA==

> <PUBCHEM_IUPAC_OPENEYE_NAME>
chloro(2-furyl)mercury

> <PUBCHEM_IUPAC_CAS_NAME>
chloro(2-furanyl)mercury

> <PUBCHEM_IUPAC_NAME>
chloro(furan-2-yl)mercury

> <PUBCHEM_IUPAC_SYSTEMATIC_NAME>
chloranyl(furan-2-yl)mercury

> <PUBCHEM_IUPAC_TRADITIONAL_NAME>
chloro(2-furyl)mercury

> <PUBCHEM_IUPAC_INCHI>
InChI=1S/C4H3O.ClH.Hg/c1-2-4-5-3-1;;/h1-3H;1H;/q;;+1/p-1

> <PUBCHEM_IUPAC_INCHIKEY>
PJIDVHUAUADUJP-UHFFFAOYSA-M

> <PUBCHEM_EXACT_MASS>
303.957885

> <PUBCHEM_MOLECULAR_FORMULA>
C4H3ClHgO

> <PUBCHEM_MOLECULAR_WEIGHT>
303.10902

> <PUBCHEM_OPENEYE_CAN_SMILES>
C1=COC(=C1)[Hg]Cl

> <PUBCHEM_OPENEYE_ISO_SMILES>
C1=COC(=C1)[Hg]Cl

> <PUBCHEM_CACTVS_TPSA>
13.1

> <PUBCHEM_MONOISOTOPIC_WEIGHT>
303.957885

> <PUBCHEM_TOTAL_CHARGE>
0

> <PUBCHEM_HEAVY_ATOM_COUNT>
7

> <PUBCHEM_ATOM_DEF_STEREO_COUNT>
0

> <PUBCHEM_ATOM_UDEF_STEREO_COUNT>
0

> <PUBCHEM_BOND_DEF_STEREO_COUNT>
0

> <PUBCHEM_BOND_UDEF_STEREO_COUNT>
0

> <PUBCHEM_ISOTOPIC_ATOM_COUNT>
0

> <PUBCHEM_COMPONENT_COUNT>
1

> <PUBCHEM_CACTVS_TAUTO_COUNT>
1

> <PUBCHEM_COORDINATE_TYPE>
1
5
255

> <PUBCHEM_BONDANNOTATIONS>
3  5  8
3  7  8
4  5  8
4  6  8
6  7  8

$$$$

