181883
  -OEChem-07051212592D

 43 47  0     1  0  0  0  0  0999 V2000
    5.9065   -0.4144    0.0000 O   0  0  0  0  0  0  0  0  0  0  0  0
    8.0505    1.6541    0.0000 O   0  0  0  0  0  0  0  0  0  0  0  0
    6.0942    2.0699    0.0000 O   0  0  0  0  0  0  0  0  0  0  0  0
   10.7758   -0.6951    0.0000 O   0  0  0  0  0  0  0  0  0  0  0  0
    2.4170    0.4899    0.0000 O   0  0  0  0  0  0  0  0  0  0  0  0
    6.4033    1.1189    0.0000 C   0  0  1  0  0  0  0  0  0  0  0  0
    6.7123    0.1678    0.0000 C   0  0  2  0  0  0  0  0  0  0  0  0
    5.4092    1.1163    0.0000 C   0  0  0  0  0  0  0  0  0  0  0  0
    7.0724    1.8620    0.0000 C   0  0  0  0  0  0  0  0  0  0  0  0
    7.6904   -0.0401    0.0000 C   0  0  0  0  0  0  0  0  0  0  0  0
    5.1028    0.1706    0.0000 C   0  0  0  0  0  0  0  0  0  0  0  0
    8.3596    0.7031    0.0000 C   0  0  0  0  0  0  0  0  0  0  0  0
    7.9970   -1.0356    0.0000 C   0  0  0  0  0  0  0  0  0  0  0  0
    9.0142   -1.2600    0.0000 C   0  0  0  0  0  0  0  0  0  0  0  0
    4.7276    1.8958    0.0000 C   0  0  0  0  0  0  0  0  0  0  0  0
    9.3816    0.5022    0.0000 C   0  0  0  0  0  0  0  0  0  0  0  0
    9.7112   -0.4859    0.0000 C   0  0  0  0  0  0  0  0  0  0  0  0
   11.1190   -1.7244    0.0000 C   0  0  0  0  0  0  0  0  0  0  0  0
    4.0936   -0.0611    0.0000 C   0  0  0  0  0  0  0  0  0  0  0  0
    9.3335   -2.2969    0.0000 C   0  0  0  0  0  0  0  0  0  0  0  0
    3.7133    1.6875    0.0000 C   0  0  0  0  0  0  0  0  0  0  0  0
   10.3930   -2.5307    0.0000 C   0  0  0  0  0  0  0  0  0  0  0  0
    3.3942    0.7024    0.0000 C   0  0  0  0  0  0  0  0  0  0  0  0
   11.8647   -2.3906    0.0000 C   0  0  0  0  0  0  0  0  0  0  0  0
   12.0689   -1.4117    0.0000 C   0  0  0  0  0  0  0  0  0  0  0  0
    6.8879   -0.6638    0.0000 H   0  0  0  0  0  0  0  0  0  0  0  0
    7.3046    2.4369    0.0000 H   0  0  0  0  0  0  0  0  0  0  0  0
    6.5466    2.1906    0.0000 H   0  0  0  0  0  0  0  0  0  0  0  0
    7.5768   -1.4915    0.0000 H   0  0  0  0  0  0  0  0  0  0  0  0
    4.9255    2.4834    0.0000 H   0  0  0  0  0  0  0  0  0  0  0  0
    6.5091    2.5307    0.0000 H   0  0  0  0  0  0  0  0  0  0  0  0
    9.7912    0.9677    0.0000 H   0  0  0  0  0  0  0  0  0  0  0  0
    3.9094   -0.6531    0.0000 H   0  0  0  0  0  0  0  0  0  0  0  0
    8.9133   -2.7528    0.0000 H   0  0  0  0  0  0  0  0  0  0  0  0
    3.2998    2.1494    0.0000 H   0  0  0  0  0  0  0  0  0  0  0  0
   10.5823   -3.1211    0.0000 H   0  0  0  0  0  0  0  0  0  0  0  0
   12.2627   -2.0006    0.0000 H   0  0  0  0  0  0  0  0  0  0  0  0
   12.6578   -1.2178    0.0000 H   0  0  0  0  0  0  0  0  0  0  0  0
   11.8750   -0.8228    0.0000 H   0  0  0  0  0  0  0  0  0  0  0  0
   11.4517   -2.8530    0.0000 H   0  0  0  0  0  0  0  0  0  0  0  0
   12.3271   -2.8037    0.0000 H   0  0  0  0  0  0  0  0  0  0  0  0
   12.2778   -1.9283    0.0000 H   0  0  0  0  0  0  0  0  0  0  0  0
    2.0000    0.9487    0.0000 H   0  0  0  0  0  0  0  0  0  0  0  0
  1  7  1  0  0  0  0
  1 11  1  0  0  0  0
  2  9  1  0  0  0  0
  2 12  1  0  0  0  0
  6  3  1  1  0  0  0
  3 31  1  0  0  0  0
  4 17  1  0  0  0  0
  4 18  1  0  0  0  0
  5 23  1  0  0  0  0
  5 43  1  0  0  0  0
  6  7  1  0  0  0  0
  6  8  1  0  0  0  0
  6  9  1  0  0  0  0
  7 10  1  0  0  0  0
  7 26  1  1  0  0  0
  8 11  2  0  0  0  0
  8 15  1  0  0  0  0
  9 27  1  0  0  0  0
  9 28  1  0  0  0  0
 10 12  2  0  0  0  0
 10 13  1  0  0  0  0
 11 19  1  0  0  0  0
 12 16  1  0  0  0  0
 13 14  2  0  0  0  0
 13 29  1  0  0  0  0
 14 17  1  0  0  0  0
 14 20  1  0  0  0  0
 15 21  2  0  0  0  0
 15 30  1  0  0  0  0
 16 17  2  0  0  0  0
 16 32  1  0  0  0  0
 18 22  1  0  0  0  0
 18 24  1  0  0  0  0
 18 25  1  0  0  0  0
 19 23  2  0  0  0  0
 19 33  1  0  0  0  0
 20 22  2  0  0  0  0
 20 34  1  0  0  0  0
 21 23  1  0  0  0  0
 21 35  1  0  0  0  0
 22 36  1  0  0  0  0
 24 40  1  0  0  0  0
 24 41  1  0  0  0  0
 24 42  1  0  0  0  0
 25 37  1  0  0  0  0
 25 38  1  0  0  0  0
 25 39  1  0  0  0  0
M  END
> <PUBCHEM_COMPOUND_CID>
181883

> <PUBCHEM_COMPOUND_CANONICALIZED>
1

> <PUBCHEM_CACTVS_COMPLEXITY>
574

> <PUBCHEM_CACTVS_HBOND_ACCEPTOR>
5

> <PUBCHEM_CACTVS_HBOND_DONOR>
2

> <PUBCHEM_CACTVS_ROTATABLE_BOND>
0

> <PUBCHEM_CACTVS_SUBSKEYS>
AAADceB4OAAAAAAAAAAAAAAAAAAAASAAAAA0YIEAAAAAAEiRQAAAGgAACAAADFSgmAIyBoAABgCAAiBCAAACCAAgIAAIiAAGCIgNJyKGMRqCeCClwBULuAfA4PwOoAACCAAIAABAAAQQABAAAAAAAAAAAA==

> <PUBCHEM_IUPAC_INCHI>
InChI=1S/C20H18O5/c1-19(2)6-5-11-7-13-16(9-15(11)25-19)23-10-20(22)14-4-3-12(21)8-17(14)24-18(13)20/h3-9,18,21-22H,10H2,1-2H3/t18-,20+/m0/s1

> <PUBCHEM_IUPAC_INCHIKEY>
DDJVLBCETGUEBO-AZUAARDMSA-N

> <PUBCHEM_XLOGP3_AA>
2.5

> <PUBCHEM_EXACT_MASS>
338.115424

> <PUBCHEM_MOLECULAR_FORMULA>
C20H18O5

> <PUBCHEM_MOLECULAR_WEIGHT>
338.35392

> <PUBCHEM_OPENEYE_CAN_SMILES>
CC1(C=CC2=CC3=C(C=C2O1)OCC4(C3OC5=C4C=CC(=C5)O)O)C

> <PUBCHEM_OPENEYE_ISO_SMILES>
CC1(C=CC2=CC3=C(C=C2O1)OC[C@@]4([C@H]3OC5=C4C=CC(=C5)O)O)C

> <PUBCHEM_CACTVS_TPSA>
68.2

> <PUBCHEM_MONOISOTOPIC_WEIGHT>
338.115424

> <PUBCHEM_TOTAL_CHARGE>
0

> <PUBCHEM_HEAVY_ATOM_COUNT>
25

> <PUBCHEM_ATOM_DEF_STEREO_COUNT>
2

> <PUBCHEM_ATOM_UDEF_STEREO_COUNT>
0

> <PUBCHEM_BOND_DEF_STEREO_COUNT>
0

> <PUBCHEM_BOND_UDEF_STEREO_COUNT>
0

> <PUBCHEM_ISOTOPIC_ATOM_COUNT>
0

> <PUBCHEM_COMPONENT_COUNT>
1

> <PUBCHEM_CACTVS_TAUTO_COUNT>
3

> <PUBCHEM_COORDINATE_TYPE>
1
5
255

> <PUBCHEM_BONDANNOTATIONS>
10  12  8
10  13  8
11  19  8
12  16  8
13  14  8
14  17  8
15  21  8
16  17  8
19  23  8
21  23  8
6  3  5
7  26  5
8  11  8
8  15  8

$$$$

