60772
  -OEChem-07051212532D

 45 45  0     1  0  0  0  0  0999 V2000
    4.3260    0.0000    0.0000 Cl  0  0  0  0  0  0  0  0  0  0  0  0
    6.9702    8.5663    0.0000 O   0  0  0  0  0  0  0  0  0  0  0  0
    5.3704    6.4590    0.0000 O   0  0  0  0  0  0  0  0  0  0  0  0
    8.6166    8.0282    0.0000 O   0  0  0  0  0  0  0  0  0  0  0  0
    2.2690    2.4975    0.0000 O   0  0  0  0  0  0  0  0  0  0  0  0
    4.0812    5.3023    0.0000 N   0  0  0  0  0  0  0  0  0  0  0  0
    9.2379    9.9292    0.0000 N   0  0  0  0  0  0  0  0  0  0  0  0
    2.2690    5.4975    0.0000 N   0  0  0  0  0  0  0  0  0  0  0  0
    4.0812    3.6928    0.0000 N   0  0  0  0  0  0  0  0  0  0  0  0
    1.4030    3.9975    0.0000 N   0  0  0  0  0  0  0  0  0  0  0  0
    0.5369    5.4975    0.0000 N   0  0  0  0  0  0  0  0  0  0  0  0
    7.5916   10.4673    0.0000 C   0  0  0  0  0  0  0  0  0  0  0  0
    8.2594    9.7230    0.0000 C   0  0  1  0  0  0  0  0  0  0  0  0
    7.9022   11.4178    0.0000 C   0  0  0  0  0  0  0  0  0  0  0  0
    6.6130   10.2611    0.0000 C   0  0  0  0  0  0  0  0  0  0  0  0
    7.9487    8.7725    0.0000 C   0  0  0  0  0  0  0  0  0  0  0  0
    3.1350    4.9975    0.0000 C   0  0  0  0  0  0  0  0  0  0  0  0
    4.3919    6.2528    0.0000 C   0  0  0  0  0  0  0  0  0  0  0  0
    6.6596    7.6157    0.0000 C   0  0  0  0  0  0  0  0  0  0  0  0
    3.1350    3.9975    0.0000 C   0  0  0  0  0  0  0  0  0  0  0  0
    5.6811    7.4095    0.0000 C   0  0  0  0  0  0  0  0  0  0  0  0
    4.6648    4.4975    0.0000 C   0  0  0  0  0  0  0  0  0  0  0  0
    2.2690    3.4975    0.0000 C   0  0  0  0  0  0  0  0  0  0  0  0
    1.4030    4.9975    0.0000 C   0  0  0  0  0  0  0  0  0  0  0  0
    8.1982   10.5952    0.0000 H   0  0  0  0  0  0  0  0  0  0  0  0
    8.6735    9.2615    0.0000 H   0  0  0  0  0  0  0  0  0  0  0  0
    8.4915   11.2252    0.0000 H   0  0  0  0  0  0  0  0  0  0  0  0
    8.0948   12.0071    0.0000 H   0  0  0  0  0  0  0  0  0  0  0  0
    7.3129   11.6104    0.0000 H   0  0  0  0  0  0  0  0  0  0  0  0
    6.4852   10.8678    0.0000 H   0  0  0  0  0  0  0  0  0  0  0  0
    6.0064   10.1332    0.0000 H   0  0  0  0  0  0  0  0  0  0  0  0
    6.7409    9.6544    0.0000 H   0  0  0  0  0  0  0  0  0  0  0  0
    4.3713    6.8724    0.0000 H   0  0  0  0  0  0  0  0  0  0  0  0
    3.7781    6.3401    0.0000 H   0  0  0  0  0  0  0  0  0  0  0  0
    9.4305   10.5185    0.0000 H   0  0  0  0  0  0  0  0  0  0  0  0
    9.6520    9.4678    0.0000 H   0  0  0  0  0  0  0  0  0  0  0  0
    6.6801    6.9961    0.0000 H   0  0  0  0  0  0  0  0  0  0  0  0
    7.2734    7.5284    0.0000 H   0  0  0  0  0  0  0  0  0  0  0  0
    5.6605    8.0292    0.0000 H   0  0  0  0  0  0  0  0  0  0  0  0
    5.0672    7.4969    0.0000 H   0  0  0  0  0  0  0  0  0  0  0  0
    5.2848    4.4975    0.0000 H   0  0  0  0  0  0  0  0  0  0  0  0
    2.2690    6.1175    0.0000 H   0  0  0  0  0  0  0  0  0  0  0  0
    0.0000    5.1875    0.0000 H   0  0  0  0  0  0  0  0  0  0  0  0
    0.5369    6.1175    0.0000 H   0  0  0  0  0  0  0  0  0  0  0  0
    5.3260    0.0000    0.0000 H   0  0  0  0  0  0  0  0  0  0  0  0
  1 45  1  0  0  0  0
  2 16  1  0  0  0  0
  2 19  1  0  0  0  0
  3 18  1  0  0  0  0
  3 21  1  0  0  0  0
  4 16  2  0  0  0  0
  5 23  2  0  0  0  0
  6 17  1  0  0  0  0
  6 18  1  0  0  0  0
  6 22  1  0  0  0  0
 13  7  1  6  0  0  0
  7 35  1  0  0  0  0
  7 36  1  0  0  0  0
  8 17  1  0  0  0  0
  8 24  1  0  0  0  0
  8 42  1  0  0  0  0
  9 20  1  0  0  0  0
  9 22  2  0  0  0  0
 10 23  1  0  0  0  0
 10 24  2  0  0  0  0
 11 24  1  0  0  0  0
 11 43  1  0  0  0  0
 11 44  1  0  0  0  0
 12 13  1  0  0  0  0
 12 14  1  0  0  0  0
 12 15  1  0  0  0  0
 12 25  1  0  0  0  0
 13 16  1  0  0  0  0
 13 26  1  0  0  0  0
 14 27  1  0  0  0  0
 14 28  1  0  0  0  0
 14 29  1  0  0  0  0
 15 30  1  0  0  0  0
 15 31  1  0  0  0  0
 15 32  1  0  0  0  0
 17 20  2  0  0  0  0
 18 33  1  0  0  0  0
 18 34  1  0  0  0  0
 19 21  1  0  0  0  0
 19 37  1  0  0  0  0
 19 38  1  0  0  0  0
 20 23  1  0  0  0  0
 21 39  1  0  0  0  0
 21 40  1  0  0  0  0
 22 41  1  0  0  0  0
M  END
> <PUBCHEM_COMPOUND_CID>
60772

> <PUBCHEM_COMPOUND_CANONICALIZED>
1

> <PUBCHEM_CACTVS_COMPLEXITY>
483

> <PUBCHEM_CACTVS_HBOND_ACCEPTOR>
6

> <PUBCHEM_CACTVS_HBOND_DONOR>
4

> <PUBCHEM_CACTVS_ROTATABLE_BOND>
8

> <PUBCHEM_CACTVS_SUBSKEYS>
AAADceBzuAAEAAAAAAAAAAAAAAAAAWAAAAAgAAAAAAAAAEABgAAAHgAQAAAADSjhlgYHuBfMFACoAQfxfACAgC0XEKABUIGoVECDSBhASCAfAIAMEAJCAGAAAAAIAAAAAAAAAAAAAAAAAAAAAAAAAAAAAA==

> <PUBCHEM_IUPAC_OPENEYE_NAME>
2-[(2-amino-6-oxo-3H-purin-9-yl)methoxy]ethyl (2S)-2-amino-3-methyl-butanoate hydrochloride

> <PUBCHEM_IUPAC_CAS_NAME>
(2S)-2-amino-3-methylbutanoic acid 2-[(2-amino-6-oxo-3H-purin-9-yl)methoxy]ethyl ester hydrochloride

> <PUBCHEM_IUPAC_NAME>
2-[(2-amino-6-oxo-3H-purin-9-yl)methoxy]ethyl (2S)-2-amino-3-methylbutanoate hydrochloride

> <PUBCHEM_IUPAC_SYSTEMATIC_NAME>
2-[(2-azanyl-6-oxidanylidene-3H-purin-9-yl)methoxy]ethyl (2S)-2-azanyl-3-methyl-butanoate hydrochloride

> <PUBCHEM_IUPAC_TRADITIONAL_NAME>
(2S)-2-amino-3-methyl-butyric acid 2-[(2-amino-6-keto-3H-purin-9-yl)methoxy]ethyl ester hydrochloride

> <PUBCHEM_IUPAC_INCHI>
InChI=1S/C13H20N6O4.ClH/c1-7(2)8(14)12(21)23-4-3-22-6-19-5-16-9-10(19)17-13(15)18-11(9)20;/h5,7-8H,3-4,6,14H2,1-2H3,(H3,15,17,18,20);1H/t8-;/m0./s1

> <PUBCHEM_IUPAC_INCHIKEY>
ZCDDBUOENGJMLV-QRPNPIFTSA-N

> <PUBCHEM_EXACT_MASS>
360.131281

> <PUBCHEM_MOLECULAR_FORMULA>
C13H21ClN6O4

> <PUBCHEM_MOLECULAR_WEIGHT>
360.79664

> <PUBCHEM_OPENEYE_CAN_SMILES>
CC(C)C(C(=O)OCCOCN1C=NC2=C1NC(=NC2=O)N)N.Cl

> <PUBCHEM_OPENEYE_ISO_SMILES>
CC(C)[C@@H](C(=O)OCCOCN1C=NC2=C1NC(=NC2=O)N)N.Cl

> <PUBCHEM_CACTVS_TPSA>
147

> <PUBCHEM_MONOISOTOPIC_WEIGHT>
360.131281

> <PUBCHEM_TOTAL_CHARGE>
0

> <PUBCHEM_HEAVY_ATOM_COUNT>
24

> <PUBCHEM_ATOM_DEF_STEREO_COUNT>
1

> <PUBCHEM_ATOM_UDEF_STEREO_COUNT>
0

> <PUBCHEM_BOND_DEF_STEREO_COUNT>
0

> <PUBCHEM_BOND_UDEF_STEREO_COUNT>
0

> <PUBCHEM_ISOTOPIC_ATOM_COUNT>
0

> <PUBCHEM_COMPONENT_COUNT>
2

> <PUBCHEM_CACTVS_TAUTO_COUNT>
9

> <PUBCHEM_COORDINATE_TYPE>
1
5
255

> <PUBCHEM_BONDANNOTATIONS>
10  23  8
10  24  8
17  20  8
20  23  8
6  17  8
6  22  8
13  7  6
8  17  8
8  24  8
9  20  8
9  22  8

$$$$

