9543353
  -OEChem-07051213112D

 31 34  0     1  0  0  0  0  0999 V2000
    2.8549    2.8392    0.0000 O   0  0  0  0  0  0  0  0  0  0  0  0
    2.0000    1.3328    0.0000 O   0  0  0  0  0  0  0  0  0  0  0  0
    3.7320    1.3456    0.0000 C   0  0  3  0  0  0  0  0  0  0  0  0
    4.5993   -0.1461    0.0000 C   0  0  0  0  0  0  0  0  0  0  0  0
    3.7332    0.3539    0.0000 C   0  0  0  0  0  0  0  0  0  0  0  0
    4.5993   -1.1461    0.0000 C   0  0  0  0  0  0  0  0  0  0  0  0
    4.5841    1.8531    0.0000 C   0  0  0  0  0  0  0  0  0  0  0  0
    5.4932    0.3886    0.0000 C   0  0  0  0  0  0  0  0  0  0  0  0
    5.4554    1.3796    0.0000 C   0  0  0  0  0  0  0  0  0  0  0  0
    3.7332   -1.6461    0.0000 C   0  0  0  0  0  0  0  0  0  0  0  0
    5.4932   -1.6807    0.0000 C   0  0  0  0  0  0  0  0  0  0  0  0
    2.8672   -0.1461    0.0000 C   0  0  0  0  0  0  0  0  0  0  0  0
    6.3993   -0.1252    0.0000 C   0  0  0  0  0  0  0  0  0  0  0  0
    2.8672   -1.1461    0.0000 C   0  0  0  0  0  0  0  0  0  0  0  0
    6.3993   -1.1669    0.0000 C   0  0  0  0  0  0  0  0  0  0  0  0
    2.8623    1.8392    0.0000 C   0  0  0  0  0  0  0  0  0  0  0  0
    3.7320   -2.6378    0.0000 C   0  0  0  0  0  0  0  0  0  0  0  0
    5.4554   -2.6717    0.0000 C   0  0  0  0  0  0  0  0  0  0  0  0
    4.5841   -3.1452    0.0000 C   0  0  0  0  0  0  0  0  0  0  0  0
    3.7255    1.9656    0.0000 H   0  0  0  0  0  0  0  0  0  0  0  0
    4.9722    2.3366    0.0000 H   0  0  0  0  0  0  0  0  0  0  0  0
    4.1772    2.3209    0.0000 H   0  0  0  0  0  0  0  0  0  0  0  0
    5.9822    1.7066    0.0000 H   0  0  0  0  0  0  0  0  0  0  0  0
    2.3303    0.1639    0.0000 H   0  0  0  0  0  0  0  0  0  0  0  0
    6.9350    0.1868    0.0000 H   0  0  0  0  0  0  0  0  0  0  0  0
    2.3303   -1.4561    0.0000 H   0  0  0  0  0  0  0  0  0  0  0  0
    6.9350   -1.4790    0.0000 H   0  0  0  0  0  0  0  0  0  0  0  0
    3.1928   -2.9438    0.0000 H   0  0  0  0  0  0  0  0  0  0  0  0
    5.9822   -2.9987    0.0000 H   0  0  0  0  0  0  0  0  0  0  0  0
    4.5718   -3.7651    0.0000 H   0  0  0  0  0  0  0  0  0  0  0  0
    2.3157    3.1452    0.0000 H   0  0  0  0  0  0  0  0  0  0  0  0
  1 16  1  0  0  0  0
  1 31  1  0  0  0  0
  2 16  2  0  0  0  0
  3  5  1  0  0  0  0
  3  7  1  0  0  0  0
  3 16  1  0  0  0  0
  3 20  1  0  0  0  0
  4  5  2  0  0  0  0
  4  6  1  0  0  0  0
  4  8  1  0  0  0  0
  5 12  1  0  0  0  0
  6 10  1  0  0  0  0
  6 11  2  0  0  0  0
  7  9  1  0  0  0  0
  7 21  1  0  0  0  0
  7 22  1  0  0  0  0
  8  9  2  0  0  0  0
  8 13  1  0  0  0  0
  9 23  1  0  0  0  0
 10 14  1  0  0  0  0
 10 17  2  0  0  0  0
 11 15  1  0  0  0  0
 11 18  1  0  0  0  0
 12 14  2  0  0  0  0
 12 24  1  0  0  0  0
 13 15  2  0  0  0  0
 13 25  1  0  0  0  0
 14 26  1  0  0  0  0
 15 27  1  0  0  0  0
 17 19  1  0  0  0  0
 17 28  1  0  0  0  0
 18 19  2  0  0  0  0
 18 29  1  0  0  0  0
 19 30  1  0  0  0  0
M  END
> <PUBCHEM_COMPOUND_CID>
9543353

> <PUBCHEM_COMPOUND_CANONICALIZED>
1

> <PUBCHEM_CACTVS_COMPLEXITY>
462

> <PUBCHEM_CACTVS_HBOND_ACCEPTOR>
2

> <PUBCHEM_CACTVS_HBOND_DONOR>
1

> <PUBCHEM_CACTVS_ROTATABLE_BOND>
1

> <PUBCHEM_CACTVS_SUBSKEYS>
AAADccB4MAAAAAAAAAAAAAAAAAAAAAAAAAAwYIEAAAAAAADBUAAAGgAACAAADQCAmAAwCMAAAgCIAiDSCAACAAAgAAAIiAEAAIgIIDKAFRCAYAAkwAEIiAeIyPCOwAACAAAQAACAAAQAACAAAAAAAAAAAA==

> <PUBCHEM_IUPAC_OPENEYE_NAME>
1,2-dihydropyrene-1-carboxylic acid

> <PUBCHEM_IUPAC_CAS_NAME>
1,2-dihydropyrene-1-carboxylic acid

> <PUBCHEM_IUPAC_NAME>
1,2-dihydropyrene-1-carboxylic acid

> <PUBCHEM_IUPAC_SYSTEMATIC_NAME>
1,2-dihydropyrene-1-carboxylic acid

> <PUBCHEM_IUPAC_TRADITIONAL_NAME>
1,2-dihydropyrene-1-carboxylic acid

> <PUBCHEM_IUPAC_INCHI>
InChI=1S/C17H12O2/c18-17(19)14-9-7-12-5-4-10-2-1-3-11-6-8-13(14)16(12)15(10)11/h1-8,14H,9H2,(H,18,19)

> <PUBCHEM_IUPAC_INCHIKEY>
KJCULGPSFZKSBJ-UHFFFAOYSA-N

> <PUBCHEM_XLOGP3>
4.2

> <PUBCHEM_EXACT_MASS>
248.08373

> <PUBCHEM_MOLECULAR_FORMULA>
C17H12O2

> <PUBCHEM_MOLECULAR_WEIGHT>
248.27598

> <PUBCHEM_OPENEYE_CAN_SMILES>
C1C=C2C=CC3=C4C2=C(C1C(=O)O)C=CC4=CC=C3

> <PUBCHEM_OPENEYE_ISO_SMILES>
C1C=C2C=CC3=C4C2=C(C1C(=O)O)C=CC4=CC=C3

> <PUBCHEM_CACTVS_TPSA>
37.3

> <PUBCHEM_MONOISOTOPIC_WEIGHT>
248.08373

> <PUBCHEM_TOTAL_CHARGE>
0

> <PUBCHEM_HEAVY_ATOM_COUNT>
19

> <PUBCHEM_ATOM_DEF_STEREO_COUNT>
0

> <PUBCHEM_ATOM_UDEF_STEREO_COUNT>
1

> <PUBCHEM_BOND_DEF_STEREO_COUNT>
0

> <PUBCHEM_BOND_UDEF_STEREO_COUNT>
0

> <PUBCHEM_ISOTOPIC_ATOM_COUNT>
0

> <PUBCHEM_COMPONENT_COUNT>
1

> <PUBCHEM_CACTVS_TAUTO_COUNT>
1

> <PUBCHEM_COORDINATE_TYPE>
1
5
255

> <PUBCHEM_BONDANNOTATIONS>
10  14  8
10  17  8
11  15  8
11  18  8
12  14  8
13  15  8
17  19  8
18  19  8
3  16  3
4  5  8
4  6  8
4  8  8
5  12  8
6  10  8
6  11  8
8  13  8

$$$$

