17396093
  -OEChem-06241222542D

 40 42  0     0  0  0  0  0  0999 V2000
    5.2463    0.2386    0.0000 S   0  0  0  0  0  0  0  0  0  0  0  0
    2.0000   -0.7365    0.0000 S   0  0  0  0  0  0  0  0  0  0  0  0
    7.0259    1.3318    0.0000 O   0  0  0  0  0  0  0  0  0  0  0  0
    7.8919   -0.1682    0.0000 N   0  0  0  0  0  0  0  0  0  0  0  0
    5.0772   -1.3706    0.0000 N   0  0  0  0  0  0  0  0  0  0  0  0
   11.3560   -0.1682    0.0000 N   0  0  0  0  0  0  0  0  0  0  0  0
    8.7579    0.3318    0.0000 C   0  0  0  0  0  0  0  0  0  0  0  0
    9.6240   -0.1682    0.0000 C   0  0  0  0  0  0  0  0  0  0  0  0
    7.0259    0.3318    0.0000 C   0  0  0  0  0  0  0  0  0  0  0  0
    6.1599   -0.1682    0.0000 C   0  0  0  0  0  0  0  0  0  0  0  0
   10.4900    0.3318    0.0000 C   0  0  0  0  0  0  0  0  0  0  0  0
    7.8919   -1.1682    0.0000 C   0  0  0  0  0  0  0  0  0  0  0  0
    6.0554   -1.1627    0.0000 C   0  0  0  0  0  0  0  0  0  0  0  0
    4.5772   -0.5046    0.0000 C   0  0  0  0  0  0  0  0  0  0  0  0
    3.5827   -0.4001    0.0000 C   0  0  0  0  0  0  0  0  0  0  0  0
   10.4900    1.3318    0.0000 C   0  0  0  0  0  0  0  0  0  0  0  0
    6.7985   -1.8318    0.0000 C   0  0  0  0  0  0  0  0  0  0  0  0
   11.3560    1.8318    0.0000 C   0  0  0  0  0  0  0  0  0  0  0  0
    3.0827    0.4660    0.0000 C   0  0  0  0  0  0  0  0  0  0  0  0
    2.9136   -1.1432    0.0000 C   0  0  0  0  0  0  0  0  0  0  0  0
   12.2221    0.3318    0.0000 C   0  0  0  0  0  0  0  0  0  0  0  0
   12.2221    1.3318    0.0000 C   0  0  0  0  0  0  0  0  0  0  0  0
    2.1045    0.2581    0.0000 C   0  0  0  0  0  0  0  0  0  0  0  0
    9.1565    0.8068    0.0000 H   0  0  0  0  0  0  0  0  0  0  0  0
    8.3594    0.8068    0.0000 H   0  0  0  0  0  0  0  0  0  0  0  0
    9.2254   -0.6431    0.0000 H   0  0  0  0  0  0  0  0  0  0  0  0
   10.0225   -0.6431    0.0000 H   0  0  0  0  0  0  0  0  0  0  0  0
    7.2719   -1.1682    0.0000 H   0  0  0  0  0  0  0  0  0  0  0  0
    7.8919   -1.7882    0.0000 H   0  0  0  0  0  0  0  0  0  0  0  0
    8.5119   -1.1682    0.0000 H   0  0  0  0  0  0  0  0  0  0  0  0
    9.9531    1.6418    0.0000 H   0  0  0  0  0  0  0  0  0  0  0  0
    6.3836   -2.2926    0.0000 H   0  0  0  0  0  0  0  0  0  0  0  0
    7.2592   -2.2467    0.0000 H   0  0  0  0  0  0  0  0  0  0  0  0
    7.2134   -1.3711    0.0000 H   0  0  0  0  0  0  0  0  0  0  0  0
   11.3560    2.4518    0.0000 H   0  0  0  0  0  0  0  0  0  0  0  0
    3.3348    1.0324    0.0000 H   0  0  0  0  0  0  0  0  0  0  0  0
    3.0424   -1.7496    0.0000 H   0  0  0  0  0  0  0  0  0  0  0  0
   12.7590    0.0218    0.0000 H   0  0  0  0  0  0  0  0  0  0  0  0
   12.7590    1.6418    0.0000 H   0  0  0  0  0  0  0  0  0  0  0  0
    1.6438    0.6729    0.0000 H   0  0  0  0  0  0  0  0  0  0  0  0
  1 10  1  0  0  0  0
  1 14  1  0  0  0  0
  2 20  1  0  0  0  0
  2 23  1  0  0  0  0
  3  9  2  0  0  0  0
  4  7  1  0  0  0  0
  4  9  1  0  0  0  0
  4 12  1  0  0  0  0
  5 13  1  0  0  0  0
  5 14  2  0  0  0  0
  6 11  1  0  0  0  0
  6 21  2  0  0  0  0
  7  8  1  0  0  0  0
  7 24  1  0  0  0  0
  7 25  1  0  0  0  0
  8 11  1  0  0  0  0
  8 26  1  0  0  0  0
  8 27  1  0  0  0  0
  9 10  1  0  0  0  0
 10 13  2  0  0  0  0
 11 16  2  0  0  0  0
 12 28  1  0  0  0  0
 12 29  1  0  0  0  0
 12 30  1  0  0  0  0
 13 17  1  0  0  0  0
 14 15  1  0  0  0  0
 15 19  1  0  0  0  0
 15 20  2  0  0  0  0
 16 18  1  0  0  0  0
 16 31  1  0  0  0  0
 17 32  1  0  0  0  0
 17 33  1  0  0  0  0
 17 34  1  0  0  0  0
 18 22  2  0  0  0  0
 18 35  1  0  0  0  0
 19 23  2  0  0  0  0
 19 36  1  0  0  0  0
 20 37  1  0  0  0  0
 21 22  1  0  0  0  0
 21 38  1  0  0  0  0
 22 39  1  0  0  0  0
 23 40  1  0  0  0  0
M  END
> <PUBCHEM_COMPOUND_CID>
17396093

> <PUBCHEM_COMPOUND_CANONICALIZED>
1

> <PUBCHEM_CACTVS_COMPLEXITY>
409

> <PUBCHEM_CACTVS_HBOND_ACCEPTOR>
5

> <PUBCHEM_CACTVS_HBOND_DONOR>
0

> <PUBCHEM_CACTVS_ROTATABLE_BOND>
5

> <PUBCHEM_CACTVS_SUBSKEYS>
AAADceB7IABgAAAAAAAAAAAAAAAAAWJAAAAsAAAAAAAAAAAB+AAAHgQAAAAADAjF3gS+gZMIEAisAzV3VACD8KB1CjhI2D04ZNgIIPrg0ZGEIYhghgDoyUcQgAAIAAAAAAAAAAAAAAAAAAAAAAAAAAAAAA==

> <PUBCHEM_IUPAC_OPENEYE_NAME>
N,4-dimethyl-N-[2-(2-pyridyl)ethyl]-2-(3-thienyl)thiazole-5-carboxamide

> <PUBCHEM_IUPAC_CAS_NAME>
N,4-dimethyl-N-[2-(2-pyridinyl)ethyl]-2-(3-thiophenyl)-5-thiazolecarboxamide

> <PUBCHEM_IUPAC_NAME>
N,4-dimethyl-N-(2-pyridin-2-ylethyl)-2-thiophen-3-yl-1,3-thiazole-5-carboxamide

> <PUBCHEM_IUPAC_SYSTEMATIC_NAME>
N,4-dimethyl-N-(2-pyridin-2-ylethyl)-2-thiophen-3-yl-1,3-thiazole-5-carboxamide

> <PUBCHEM_IUPAC_TRADITIONAL_NAME>
N,4-dimethyl-N-[2-(2-pyridyl)ethyl]-2-(3-thienyl)thiazole-5-carboxamide

> <PUBCHEM_IUPAC_INCHI>
InChI=1S/C17H17N3OS2/c1-12-15(23-16(19-12)13-7-10-22-11-13)17(21)20(2)9-6-14-5-3-4-8-18-14/h3-5,7-8,10-11H,6,9H2,1-2H3

> <PUBCHEM_IUPAC_INCHIKEY>
SWINGBKVSUBTBK-UHFFFAOYSA-N

> <PUBCHEM_XLOGP3_AA>
3.4

> <PUBCHEM_EXACT_MASS>
343.081304

> <PUBCHEM_MOLECULAR_FORMULA>
C17H17N3OS2

> <PUBCHEM_MOLECULAR_WEIGHT>
343.46638

> <PUBCHEM_OPENEYE_CAN_SMILES>
CC1=C(SC(=N1)C2=CSC=C2)C(=O)N(C)CCC3=CC=CC=N3

> <PUBCHEM_OPENEYE_ISO_SMILES>
CC1=C(SC(=N1)C2=CSC=C2)C(=O)N(C)CCC3=CC=CC=N3

> <PUBCHEM_CACTVS_TPSA>
103

> <PUBCHEM_MONOISOTOPIC_WEIGHT>
343.081304

> <PUBCHEM_TOTAL_CHARGE>
0

> <PUBCHEM_HEAVY_ATOM_COUNT>
23

> <PUBCHEM_ATOM_DEF_STEREO_COUNT>
0

> <PUBCHEM_ATOM_UDEF_STEREO_COUNT>
0

> <PUBCHEM_BOND_DEF_STEREO_COUNT>
0

> <PUBCHEM_BOND_UDEF_STEREO_COUNT>
0

> <PUBCHEM_ISOTOPIC_ATOM_COUNT>
0

> <PUBCHEM_COMPONENT_COUNT>
1

> <PUBCHEM_CACTVS_TAUTO_COUNT>
2

> <PUBCHEM_COORDINATE_TYPE>
1
5
255

> <PUBCHEM_BONDANNOTATIONS>
1  10  8
1  14  8
10  13  8
11  16  8
15  19  8
15  20  8
16  18  8
18  22  8
19  23  8
2  20  8
2  23  8
21  22  8
5  13  8
5  14  8
6  11  8
6  21  8

$$$$

