17395440
  -OEChem-06241222502D

 41 43  0     1  0  0  0  0  0999 V2000
    2.0000   -2.6375    0.0000 Cl  0  0  0  0  0  0  0  0  0  0  0  0
    6.4763    2.0188    0.0000 O   0  0  0  0  0  0  0  0  0  0  0  0
    5.5443   -2.4422    0.0000 O   0  0  0  0  0  0  0  0  0  0  0  0
    7.1279   -1.6375    0.0000 O   0  0  0  0  0  0  0  0  0  0  0  0
    8.1226    1.4807    0.0000 N   0  0  0  0  0  0  0  0  0  0  0  0
    5.5443   -0.8327    0.0000 N   0  0  0  0  0  0  0  0  0  0  0  0
    9.7690    0.9427    0.0000 C   0  0  3  0  0  0  0  0  0  0  0  0
   10.0796    1.8932    0.0000 C   0  0  0  0  0  0  0  0  0  0  0  0
    8.7905    0.7364    0.0000 C   0  0  0  0  0  0  0  0  0  0  0  0
    9.4118    2.6375    0.0000 C   0  0  0  0  0  0  0  0  0  0  0  0
    8.4333    2.4313    0.0000 C   0  0  0  0  0  0  0  0  0  0  0  0
   10.4368    0.1984    0.0000 C   0  0  0  0  0  0  0  0  0  0  0  0
    7.1441    1.2745    0.0000 C   0  0  0  0  0  0  0  0  0  0  0  0
    6.8335    0.3240    0.0000 C   0  0  0  0  0  0  0  0  0  0  0  0
    5.8550    0.1178    0.0000 C   0  0  0  0  0  0  0  0  0  0  0  0
    4.5981   -1.1375    0.0000 C   0  0  0  0  0  0  0  0  0  0  0  0
    6.1279   -1.6375    0.0000 C   0  0  0  0  0  0  0  0  0  0  0  0
    4.5981   -2.1375    0.0000 C   0  0  0  0  0  0  0  0  0  0  0  0
    3.7320   -0.6375    0.0000 C   0  0  0  0  0  0  0  0  0  0  0  0
    3.7320   -2.6375    0.0000 C   0  0  0  0  0  0  0  0  0  0  0  0
    2.8660   -1.1375    0.0000 C   0  0  0  0  0  0  0  0  0  0  0  0
    2.8660   -2.1375    0.0000 C   0  0  0  0  0  0  0  0  0  0  0  0
    9.5764    0.3533    0.0000 H   0  0  0  0  0  0  0  0  0  0  0  0
   10.6266    1.6012    0.0000 H   0  0  0  0  0  0  0  0  0  0  0  0
   10.4622    2.3811    0.0000 H   0  0  0  0  0  0  0  0  0  0  0  0
    8.2641    0.4088    0.0000 H   0  0  0  0  0  0  0  0  0  0  0  0
    9.0217    0.1612    0.0000 H   0  0  0  0  0  0  0  0  0  0  0  0
    9.9382    2.9651    0.0000 H   0  0  0  0  0  0  0  0  0  0  0  0
    9.1805    3.2127    0.0000 H   0  0  0  0  0  0  0  0  0  0  0  0
    8.4127    3.0509    0.0000 H   0  0  0  0  0  0  0  0  0  0  0  0
    7.8195    2.5186    0.0000 H   0  0  0  0  0  0  0  0  0  0  0  0
    9.9754   -0.2157    0.0000 H   0  0  0  0  0  0  0  0  0  0  0  0
   10.8509   -0.2631    0.0000 H   0  0  0  0  0  0  0  0  0  0  0  0
   10.8983    0.6124    0.0000 H   0  0  0  0  0  0  0  0  0  0  0  0
    6.8540   -0.2957    0.0000 H   0  0  0  0  0  0  0  0  0  0  0  0
    7.4473    0.2366    0.0000 H   0  0  0  0  0  0  0  0  0  0  0  0
    5.8344    0.7374    0.0000 H   0  0  0  0  0  0  0  0  0  0  0  0
    5.2411    0.2051    0.0000 H   0  0  0  0  0  0  0  0  0  0  0  0
    3.7320   -0.0175    0.0000 H   0  0  0  0  0  0  0  0  0  0  0  0
    3.7320   -3.2575    0.0000 H   0  0  0  0  0  0  0  0  0  0  0  0
    2.3291   -0.8275    0.0000 H   0  0  0  0  0  0  0  0  0  0  0  0
  1 22  1  0  0  0  0
  2 13  2  0  0  0  0
  3 17  1  0  0  0  0
  3 18  1  0  0  0  0
  4 17  2  0  0  0  0
  5  9  1  0  0  0  0
  5 11  1  0  0  0  0
  5 13  1  0  0  0  0
  6 15  1  0  0  0  0
  6 16  1  0  0  0  0
  6 17  1  0  0  0  0
  7  8  1  0  0  0  0
  7  9  1  0  0  0  0
  7 12  1  0  0  0  0
  7 23  1  0  0  0  0
  8 10  1  0  0  0  0
  8 24  1  0  0  0  0
  8 25  1  0  0  0  0
  9 26  1  0  0  0  0
  9 27  1  0  0  0  0
 10 11  1  0  0  0  0
 10 28  1  0  0  0  0
 10 29  1  0  0  0  0
 11 30  1  0  0  0  0
 11 31  1  0  0  0  0
 12 32  1  0  0  0  0
 12 33  1  0  0  0  0
 12 34  1  0  0  0  0
 13 14  1  0  0  0  0
 14 15  1  0  0  0  0
 14 35  1  0  0  0  0
 14 36  1  0  0  0  0
 15 37  1  0  0  0  0
 15 38  1  0  0  0  0
 16 18  2  0  0  0  0
 16 19  1  0  0  0  0
 18 20  1  0  0  0  0
 19 21  2  0  0  0  0
 19 39  1  0  0  0  0
 20 22  2  0  0  0  0
 20 40  1  0  0  0  0
 21 22  1  0  0  0  0
 21 41  1  0  0  0  0
M  END
> <PUBCHEM_COMPOUND_CID>
17395440

> <PUBCHEM_COMPOUND_CANONICALIZED>
1

> <PUBCHEM_CACTVS_COMPLEXITY>
445

> <PUBCHEM_CACTVS_HBOND_ACCEPTOR>
3

> <PUBCHEM_CACTVS_HBOND_DONOR>
0

> <PUBCHEM_CACTVS_ROTATABLE_BOND>
3

> <PUBCHEM_CACTVS_SUBSKEYS>
AAADceB7MAAEAAAAAAAAAAAAAAAAAWAAAAA8QAAAAAAAAFgBAAAAHgIAAAAADQ7BkCQyzoMABACIACVSWACCCAAhJwAIiAEPbogOJirF85uNMihkxhHY6AeQQAAMAABAAQAAEAAAAIACAAAgAAAAAAAAAA==

> <PUBCHEM_IUPAC_OPENEYE_NAME>
6-chloro-3-[3-(3-methyl-1-piperidyl)-3-oxo-propyl]-1,3-benzoxazol-2-one

> <PUBCHEM_IUPAC_CAS_NAME>
6-chloro-3-[3-(3-methyl-1-piperidinyl)-3-oxopropyl]-1,3-benzoxazol-2-one

> <PUBCHEM_IUPAC_NAME>
6-chloro-3-[3-(3-methylpiperidin-1-yl)-3-oxopropyl]-1,3-benzoxazol-2-one

> <PUBCHEM_IUPAC_SYSTEMATIC_NAME>
6-chloranyl-3-[3-(3-methylpiperidin-1-yl)-3-oxidanylidene-propyl]-1,3-benzoxazol-2-one

> <PUBCHEM_IUPAC_TRADITIONAL_NAME>
6-chloro-3-[3-keto-3-(3-methylpiperidino)propyl]-1,3-benzoxazol-2-one

> <PUBCHEM_IUPAC_INCHI>
InChI=1S/C16H19ClN2O3/c1-11-3-2-7-18(10-11)15(20)6-8-19-13-5-4-12(17)9-14(13)22-16(19)21/h4-5,9,11H,2-3,6-8,10H2,1H3

> <PUBCHEM_IUPAC_INCHIKEY>
BBGLOEJCSINJCV-UHFFFAOYSA-N

> <PUBCHEM_XLOGP3_AA>
2.7

> <PUBCHEM_EXACT_MASS>
322.10842

> <PUBCHEM_MOLECULAR_FORMULA>
C16H19ClN2O3

> <PUBCHEM_MOLECULAR_WEIGHT>
322.78666

> <PUBCHEM_OPENEYE_CAN_SMILES>
CC1CCCN(C1)C(=O)CCN2C3=C(C=C(C=C3)Cl)OC2=O

> <PUBCHEM_OPENEYE_ISO_SMILES>
CC1CCCN(C1)C(=O)CCN2C3=C(C=C(C=C3)Cl)OC2=O

> <PUBCHEM_CACTVS_TPSA>
49.8

> <PUBCHEM_MONOISOTOPIC_WEIGHT>
322.10842

> <PUBCHEM_TOTAL_CHARGE>
0

> <PUBCHEM_HEAVY_ATOM_COUNT>
22

> <PUBCHEM_ATOM_DEF_STEREO_COUNT>
0

> <PUBCHEM_ATOM_UDEF_STEREO_COUNT>
1

> <PUBCHEM_BOND_DEF_STEREO_COUNT>
0

> <PUBCHEM_BOND_UDEF_STEREO_COUNT>
0

> <PUBCHEM_ISOTOPIC_ATOM_COUNT>
0

> <PUBCHEM_COMPONENT_COUNT>
1

> <PUBCHEM_CACTVS_TAUTO_COUNT>
1

> <PUBCHEM_COORDINATE_TYPE>
1
5
255

> <PUBCHEM_BONDANNOTATIONS>
16  18  8
16  19  8
18  20  8
19  21  8
20  22  8
21  22  8
3  17  8
3  18  8
6  16  8
6  17  8
7  12  3

$$$$

