   Color/Form
        Needles from alcohol, acetone
   from [1]HSDB

   Corrosivity
        426.72
   from [2]HSDB

   Density/Specific Gravity
        0.9457 g/cu cm at 218 deg C
   from [3]HSDB

   Octanol/Water Partition Coefficient
        log Kow = 9.23 (est)
   from [4]HSDB

   Solubilities

     * Very soluble in ethanol, acetone, chloroform
     * Freely soluble in ether, benzene, petroleum ether, warm alcohol.
       Practically insoluble in dilute acid and alkalies.
     * In water, 6.1X10-6 mg/L at 25 deg C (est)

   from [5]HSDB

   Spectral Properties

     * Index of refraction = 1.4910 at 218 deg C/D
     * Specific optical rotation: +27.2 deg at 20 deg C/D ( c = 4.8 in
       chloroform)

   from [6]HSDB

   Vapor Pressure
        5.03X10-11 mm Hg at 25 deg C (est)
   from [7]HSDB

   Other Chemical/Physical Properties

     * Needles from acetone, mp 29 deg C. Specific optical rotation: +47.3
       deg at 20 deg C/D ) c = 2 in chloroform) /Acetate/
     * Prisms from acetone, mp 273-274 deg C. Specific optical rotation:
       +61 deg at 20 deg C/D (0.78 in 25 mL chloroform) /Benzoate/
     * Needles from ethanol, mp 211-212 deg C. Specific optical rotation:
       -31 deg ( c = 1.1 in chloroform) /Hydrochloride/
     * Henry's Law constant = 1.46X10-4 atm-cu m/mol at 25 deg C (est)
     * Hydroxyl radical reaction rate constant = 9.11X10-11 cu
       cm/molec-sec at 25 deg C (est)
     * Ozone radical reaction rate constant = 1.2X10-17 cu cm/molec-sec at
       25 deg C (est)

   from [8]HSDB

   Computed Properties
   Molecular Weight                  426.7174 [g/mol]
   Molecular Formula                 C[30]H[50]O
   XLogP3-AA                         9.9
   H-Bond Donor                      1
   H-Bond Acceptor                   1
   Rotatable Bond Count              1
   Exact Mass                        426.386166
   MonoIsotopic Mass                 426.386166
   Topological Polar Surface Area    20.2
   Heavy Atom Count                  31
   Formal Charge                     0
   Complexity                        766
   Isotope Atom Count                0
   Defined Atom Stereocenter Count   10
   Undefined Atom Stereocenter Count 0
   Defined Bond Stereocenter Count   0
   Undefined Bond Stereocenter Count 0
   Covalently-Bonded Unit Count      1
   Feature 3D Acceptor Count         1
   Feature 3D Donor Count            1
   Feature 3D Hydrophobe Count       1
   Feature 3D Ring Count             5
   Effective Rotor Count             3.6
   Conformer Sampling RMSD           0.8
   CID Conformer Count               [9]1

References

   1. http://toxnet.nlm.nih.gov/cgi-bin/sis/search/r?dbs+hsdb:@term+@rn+@rel+545-47-1
   2. http://toxnet.nlm.nih.gov/cgi-bin/sis/search/r?dbs+hsdb:@term+@rn+@rel+545-47-1
   3. http://toxnet.nlm.nih.gov/cgi-bin/sis/search/r?dbs+hsdb:@term+@rn+@rel+545-47-1
   4. http://toxnet.nlm.nih.gov/cgi-bin/sis/search/r?dbs+hsdb:@term+@rn+@rel+545-47-1
   5. http://toxnet.nlm.nih.gov/cgi-bin/sis/search/r?dbs+hsdb:@term+@rn+@rel+545-47-1
   6. http://toxnet.nlm.nih.gov/cgi-bin/sis/search/r?dbs+hsdb:@term+@rn+@rel+545-47-1
   7. http://toxnet.nlm.nih.gov/cgi-bin/sis/search/r?dbs+hsdb:@term+@rn+@rel+545-47-1
   8. http://toxnet.nlm.nih.gov/cgi-bin/sis/search/r?dbs+hsdb:@term+@rn+@rel+545-47-1
   9. http://pubchem.ncbi.nlm.nih.gov/vw3d/vw3d.cgi?cid=259846
