   Color/Form

     * COLORLESS LIQUID
     * Colorless gas or liquid (below 54 degrees F) ... [Note: Shipped as
       a liquefied compressed gas].

   from [1]HSDB

   Odor

     * Ethereal odor
     * Pungent
     * ... Pungent, ether-like odor ...

   from [2]HSDB

   Taste
        Burning taste
   from [3]HSDB

   Boiling Point
        12.3 deg C @ 760 mm Hg
   from [4]HSDB

   Melting Point
        -138.7 deg C
   from [5]HSDB

   Corrosivity

     * Reacts with water or steam to produce corrosive fumes.
     * Liquid ethyl chloride will attack some forms of plastics, rubber,
       and coatings.

   from [6]HSDB

   Critical Temperature and Pressure
        Critical temperature: 187 deg C; critical pressure: 52 atm
   from [7]HSDB

   Density/Specific Gravity
        0.9214 @ 0 deg C/4 deg C
   from [8]HSDB

   Heat of Combustion
        -316.7 kg cal/g mol wt at 20 deg C (vapor)
   from [9]HSDB

   Heat of Vaporization
        6,310.6 g cal/g mole
   from [10]HSDB

   Octanol/Water Partition Coefficient
        log Kow= 1.43
   from [11]HSDB

   Solubilities

     * 0.574 g/100 ml in water @ 20 deg C
     * 48.3 g/100 ml in alc
     * 0.447 g/100 g water at 0 deg C
     * Solubility: 0.07 g water/100 g ethyl chloride at 0 deg C; 103 g
       acetone/100 g ethyl chloride at 25 deg C; 110 g benzene/100 g ethyl
       chloride at 25 deg C; 87 g n-heptane/100 g ethyl chloride at 25 deg
       C; 48 g ethanol/100 g ethyl chloride at 21 deg C; 37 g methanol/100
       g ethyl chloride at 25 deg C; 0.6 G water/100 g ethyl chloride at
       20 deg C
     * Miscible with ether
     * Water solubility = 5.68X10+3 mg/l @ 20 deg C

   from [12]HSDB

   Spectral Properties

     * INDEX OF REFRACTION: 1.3676 @ 20 DEG C/D
     * Index of refraction: 1.001 @ 25 deg C/D
     * IR: 533 (Sadtler Research Laboratories Prism Collection)
     * NMR: 11 (Varian Associates NMR Spectra Catalogue)
     * MASS: 45 (Atlas of Mass Spectral Data, John Wiley & Sons, New York)

   from [13]HSDB

   Surface Tension
        19.5 dynes/cm at 20 deg C
   from [14]HSDB

   Vapor Density
        2.22 (Air= 1.00)
   from [15]HSDB

   Vapor Pressure
        1010 mm Hg at 20 deg C
   from [16]HSDB

   Relative Evaporation Rate
        Much higher than 1 (butyl acetate= 1).
   from [17]HSDB

   Viscosity
        0.279 cP at 10 deg C
   from [18]HSDB

   Other Chemical/Physical Properties

     * 1 mg/l air= 379 ppm @ 25 deg C, 760 mm Hg; 1 ppm= 2.64 mg/cu m air
       @ 25 deg C, 760 mm Hg
     * Liquid water interfacial tension: (est) 40 dynes/cm at 0 deg C
     * Ratio of specific heats of vapor: 1.155
     * Heat of fusion: 16.49 cal/g
     * Liquid heat capacity= 0.392 Btu/lb/degree F @ 50 deg C
     * Liquid thermal conductivity= 0.861 Btu-in/hr-sq ft/per degree F at
       50 deg C
     * Saturated vapor pressure= 22.400 lb/sq in @ 75 deg C
     * Saturated vapor density= 0.25180 lb/cu ft @ 75 deg C
     * Ideal gas heat capacity= 0.231 Btu/lb ft @ 75 deg F
     * Burns with a smoky, greenish flame ... .
     * Henry's Law constant = 1.11X10-2 atm-cu m/mol @ 24 deg C
     * Hydroxyl radical rate constant= 4.11X10-13 cu cm/molecule-sec @ 25
       deg C

   from [19]HSDB

   Computed Properties
   Molecular Weight                  64.5141 [g/mol]
   Molecular Formula                 C[2]H[5]Cl
   XLogP3-AA                         1.2
   H-Bond Donor                      0
   H-Bond Acceptor                   0
   Rotatable Bond Count              0
   Exact Mass                        64.007978
   MonoIsotopic Mass                 64.007978
   Topological Polar Surface Area    0
   Heavy Atom Count                  3
   Formal Charge                     0
   Complexity                        2.8
   Isotope Atom Count                0
   Defined Atom Stereocenter Count   0
   Undefined Atom Stereocenter Count 0
   Defined Bond Stereocenter Count   0
   Undefined Bond Stereocenter Count 0
   Covalently-Bonded Unit Count      1
   Effective Rotor Count             0
   Conformer Sampling RMSD           0.4
   CID Conformer Count               [20]1

References

   1. http://toxnet.nlm.nih.gov/cgi-bin/sis/search/r?dbs+hsdb:@term+@rn+@rel+75-00-3
   2. http://toxnet.nlm.nih.gov/cgi-bin/sis/search/r?dbs+hsdb:@term+@rn+@rel+75-00-3
   3. http://toxnet.nlm.nih.gov/cgi-bin/sis/search/r?dbs+hsdb:@term+@rn+@rel+75-00-3
   4. http://toxnet.nlm.nih.gov/cgi-bin/sis/search/r?dbs+hsdb:@term+@rn+@rel+75-00-3
   5. http://toxnet.nlm.nih.gov/cgi-bin/sis/search/r?dbs+hsdb:@term+@rn+@rel+75-00-3
   6. http://toxnet.nlm.nih.gov/cgi-bin/sis/search/r?dbs+hsdb:@term+@rn+@rel+75-00-3
   7. http://toxnet.nlm.nih.gov/cgi-bin/sis/search/r?dbs+hsdb:@term+@rn+@rel+75-00-3
   8. http://toxnet.nlm.nih.gov/cgi-bin/sis/search/r?dbs+hsdb:@term+@rn+@rel+75-00-3
   9. http://toxnet.nlm.nih.gov/cgi-bin/sis/search/r?dbs+hsdb:@term+@rn+@rel+75-00-3
  10. http://toxnet.nlm.nih.gov/cgi-bin/sis/search/r?dbs+hsdb:@term+@rn+@rel+75-00-3
  11. http://toxnet.nlm.nih.gov/cgi-bin/sis/search/r?dbs+hsdb:@term+@rn+@rel+75-00-3
  12. http://toxnet.nlm.nih.gov/cgi-bin/sis/search/r?dbs+hsdb:@term+@rn+@rel+75-00-3
  13. http://toxnet.nlm.nih.gov/cgi-bin/sis/search/r?dbs+hsdb:@term+@rn+@rel+75-00-3
  14. http://toxnet.nlm.nih.gov/cgi-bin/sis/search/r?dbs+hsdb:@term+@rn+@rel+75-00-3
  15. http://toxnet.nlm.nih.gov/cgi-bin/sis/search/r?dbs+hsdb:@term+@rn+@rel+75-00-3
  16. http://toxnet.nlm.nih.gov/cgi-bin/sis/search/r?dbs+hsdb:@term+@rn+@rel+75-00-3
  17. http://toxnet.nlm.nih.gov/cgi-bin/sis/search/r?dbs+hsdb:@term+@rn+@rel+75-00-3
  18. http://toxnet.nlm.nih.gov/cgi-bin/sis/search/r?dbs+hsdb:@term+@rn+@rel+75-00-3
  19. http://toxnet.nlm.nih.gov/cgi-bin/sis/search/r?dbs+hsdb:@term+@rn+@rel+75-00-3
  20. http://pubchem.ncbi.nlm.nih.gov/vw3d/vw3d.cgi?cid=6337
