   Color/Form
        Liquid
   from [1]HSDB

   Boiling Point
        138-140 deg C
   from [2]HSDB

   Density/Specific Gravity
        1.68
   from [3]HSDB

   Octanol/Water Partition Coefficient
        log Kow = 0.38 (est)
   from [4]HSDB

   Solubilities
        In water, 1.87X10+4 mg/L at 25 deg C (est)
   from [5]HSDB

   Vapor Pressure
        0.913 mm Hg at 25 deg C (est)
   from [6]HSDB

   Other Chemical/Physical Properties

     * Conversion factor: mg/cu m = 6.32 X ppm
     * Henry's Law constant = 1.24X10-6 atm-cu m/mol at 25 deg C (est)
     * Hydroxyl radical reaction rate constant = 3.9X10-14 cu cm/molec-sec
       at 25 deg C (est)

   from [7]HSDB

   Computed Properties
   Molecular Weight                  154.39304 [g/mol]
   Molecular Formula                 C[2]HBrClN
   XLogP3-AA                         1.5
   H-Bond Donor                      0
   H-Bond Acceptor                   1
   Rotatable Bond Count              0
   Exact Mass                        152.898089
   MonoIsotopic Mass                 152.898089
   Topological Polar Surface Area    23.8
   Heavy Atom Count                  5
   Formal Charge                     0
   Complexity                        63.3
   Isotope Atom Count                0
   Defined Atom Stereocenter Count   0
   Undefined Atom Stereocenter Count 1
   Defined Bond Stereocenter Count   0
   Undefined Bond Stereocenter Count 0
   Covalently-Bonded Unit Count      1
   Feature 3D Acceptor Count         1
   Feature 3D Hydrophobe Count       1
   Effective Rotor Count             0
   Conformer Sampling RMSD           0.4
   CID Conformer Count               [8]2

References

   1. http://toxnet.nlm.nih.gov/cgi-bin/sis/search/r?dbs+hsdb:@term+@rn+@rel+83463-62-1
   2. http://toxnet.nlm.nih.gov/cgi-bin/sis/search/r?dbs+hsdb:@term+@rn+@rel+83463-62-1
   3. http://toxnet.nlm.nih.gov/cgi-bin/sis/search/r?dbs+hsdb:@term+@rn+@rel+83463-62-1
   4. http://toxnet.nlm.nih.gov/cgi-bin/sis/search/r?dbs+hsdb:@term+@rn+@rel+83463-62-1
   5. http://toxnet.nlm.nih.gov/cgi-bin/sis/search/r?dbs+hsdb:@term+@rn+@rel+83463-62-1
   6. http://toxnet.nlm.nih.gov/cgi-bin/sis/search/r?dbs+hsdb:@term+@rn+@rel+83463-62-1
   7. http://toxnet.nlm.nih.gov/cgi-bin/sis/search/r?dbs+hsdb:@term+@rn+@rel+83463-62-1
   8. http://pubchem.ncbi.nlm.nih.gov/vw3d/vw3d.cgi?cid=55004
