6444477
  -OEChem-07051213032D

 77 78  0     0  0  0  0  0  0999 V2000
   14.7462    2.6788    0.0000 Cl  0  0  0  0  0  0  0  0  0  0  0  0
   11.2161    0.6546    0.0000 S   0  0  0  0  0  0  0  0  0  0  0  0
    6.0200    8.6546    0.0000 O   0  0  0  0  0  0  0  0  0  0  0  0
    4.0010    8.2668    0.0000 O   0  0  0  0  0  0  0  0  0  0  0  0
    0.5369    6.2668    0.0000 O   0  0  0  0  0  0  0  0  0  0  0  0
   12.3836   13.9135    0.0000 O   0  0  0  0  0  0  0  0  0  0  0  0
    8.9195   11.9135    0.0000 O   0  0  0  0  0  0  0  0  0  0  0  0
    1.4030    7.7668    0.0000 O   0  0  0  0  0  0  0  0  0  0  0  0
   10.6516   13.9135    0.0000 O   0  0  0  0  0  0  0  0  0  0  0  0
    9.7855   13.4135    0.0000 O   0  0  0  0  0  0  0  0  0  0  0  0
    2.2690    8.2668    0.0000 O   0  0  0  0  0  0  0  0  0  0  0  0
    9.4841    5.6546    0.0000 N   0  0  0  0  0  0  0  0  0  0  0  0
    7.7520    6.6546    0.0000 N   0  0  0  0  0  0  0  0  0  0  0  0
   11.2161    2.6546    0.0000 N   0  0  0  0  0  0  0  0  0  0  0  0
    9.4841    6.6546    0.0000 C   0  0  0  0  0  0  0  0  0  0  0  0
    8.6180    5.1546    0.0000 C   0  0  0  0  0  0  0  0  0  0  0  0
    8.6180    7.1546    0.0000 C   0  0  0  0  0  0  0  0  0  0  0  0
    7.7520    5.6546    0.0000 C   0  0  0  0  0  0  0  0  0  0  0  0
   10.3501    5.1546    0.0000 C   0  0  0  0  0  0  0  0  0  0  0  0
   10.3501    4.1546    0.0000 C   0  0  0  0  0  0  0  0  0  0  0  0
    6.8860    7.1546    0.0000 C   0  0  0  0  0  0  0  0  0  0  0  0
   11.2161    3.6546    0.0000 C   0  0  0  0  0  0  0  0  0  0  0  0
    6.8860    8.1546    0.0000 C   0  0  0  0  0  0  0  0  0  0  0  0
   12.0821    2.1546    0.0000 C   0  0  0  0  0  0  0  0  0  0  0  0
   10.3501    2.1546    0.0000 C   0  0  0  0  0  0  0  0  0  0  0  0
   12.0821    1.1546    0.0000 C   0  0  0  0  0  0  0  0  0  0  0  0
   10.3501    1.1546    0.0000 C   0  0  0  0  0  0  0  0  0  0  0  0
   12.9761    2.6893    0.0000 C   0  0  0  0  0  0  0  0  0  0  0  0
    9.4561    2.6893    0.0000 C   0  0  0  0  0  0  0  0  0  0  0  0
   12.9761    0.6200    0.0000 C   0  0  0  0  0  0  0  0  0  0  0  0
    9.4561    0.6200    0.0000 C   0  0  0  0  0  0  0  0  0  0  0  0
   13.8821    2.1754    0.0000 C   0  0  0  0  0  0  0  0  0  0  0  0
    8.5501    2.1754    0.0000 C   0  0  0  0  0  0  0  0  0  0  0  0
   13.8821    1.1338    0.0000 C   0  0  0  0  0  0  0  0  0  0  0  0
    8.5501    1.1338    0.0000 C   0  0  0  0  0  0  0  0  0  0  0  0
   10.6516   11.9135    0.0000 C   0  0  0  0  0  0  0  0  0  0  0  0
   11.5176   12.4135    0.0000 C   0  0  0  0  0  0  0  0  0  0  0  0
    2.2690    6.2668    0.0000 C   0  0  0  0  0  0  0  0  0  0  0  0
    3.1350    6.7668    0.0000 C   0  0  0  0  0  0  0  0  0  0  0  0
    9.7855   12.4135    0.0000 C   0  0  0  0  0  0  0  0  0  0  0  0
   11.5176   13.4135    0.0000 C   0  0  0  0  0  0  0  0  0  0  0  0
    1.4030    6.7668    0.0000 C   0  0  0  0  0  0  0  0  0  0  0  0
    3.1350    7.7668    0.0000 C   0  0  0  0  0  0  0  0  0  0  0  0
    8.2195    4.6797    0.0000 H   0  0  0  0  0  0  0  0  0  0  0  0
    9.0166    4.6797    0.0000 H   0  0  0  0  0  0  0  0  0  0  0  0
   10.0946    6.5470    0.0000 H   0  0  0  0  0  0  0  0  0  0  0  0
    9.6961    7.2372    0.0000 H   0  0  0  0  0  0  0  0  0  0  0  0
    7.1414    5.7623    0.0000 H   0  0  0  0  0  0  0  0  0  0  0  0
    7.5400    5.0720    0.0000 H   0  0  0  0  0  0  0  0  0  0  0  0
    9.0166    7.6296    0.0000 H   0  0  0  0  0  0  0  0  0  0  0  0
    8.2195    7.6296    0.0000 H   0  0  0  0  0  0  0  0  0  0  0  0
   10.9607    5.0470    0.0000 H   0  0  0  0  0  0  0  0  0  0  0  0
   10.5621    5.7372    0.0000 H   0  0  0  0  0  0  0  0  0  0  0  0
    9.7395    4.2623    0.0000 H   0  0  0  0  0  0  0  0  0  0  0  0
   10.1380    3.5720    0.0000 H   0  0  0  0  0  0  0  0  0  0  0  0
    6.2754    7.2623    0.0000 H   0  0  0  0  0  0  0  0  0  0  0  0
    6.6739    6.5720    0.0000 H   0  0  0  0  0  0  0  0  0  0  0  0
   11.8267    3.5470    0.0000 H   0  0  0  0  0  0  0  0  0  0  0  0
   11.4282    4.2372    0.0000 H   0  0  0  0  0  0  0  0  0  0  0  0
    7.4966    8.0470    0.0000 H   0  0  0  0  0  0  0  0  0  0  0  0
    7.0980    8.7372    0.0000 H   0  0  0  0  0  0  0  0  0  0  0  0
   12.9689    3.3092    0.0000 H   0  0  0  0  0  0  0  0  0  0  0  0
    9.4633    3.3092    0.0000 H   0  0  0  0  0  0  0  0  0  0  0  0
    6.0200    9.2746    0.0000 H   0  0  0  0  0  0  0  0  0  0  0  0
   12.9689    0.0000    0.0000 H   0  0  0  0  0  0  0  0  0  0  0  0
    9.4633    0.0000    0.0000 H   0  0  0  0  0  0  0  0  0  0  0  0
    8.0143    2.4875    0.0000 H   0  0  0  0  0  0  0  0  0  0  0  0
   14.4179    0.8217    0.0000 H   0  0  0  0  0  0  0  0  0  0  0  0
    8.0143    0.8217    0.0000 H   0  0  0  0  0  0  0  0  0  0  0  0
   12.0545   12.1035    0.0000 H   0  0  0  0  0  0  0  0  0  0  0  0
    2.2690    5.6468    0.0000 H   0  0  0  0  0  0  0  0  0  0  0  0
    3.6720    6.4568    0.0000 H   0  0  0  0  0  0  0  0  0  0  0  0
   10.6516   11.2935    0.0000 H   0  0  0  0  0  0  0  0  0  0  0  0
    4.0010    8.8868    0.0000 H   0  0  0  0  0  0  0  0  0  0  0  0
    0.0000    6.5768    0.0000 H   0  0  0  0  0  0  0  0  0  0  0  0
   12.3836   14.5335    0.0000 H   0  0  0  0  0  0  0  0  0  0  0  0
    8.3826   12.2235    0.0000 H   0  0  0  0  0  0  0  0  0  0  0  0
  1 32  1  0  0  0  0
  2 26  1  0  0  0  0
  2 27  1  0  0  0  0
  3 23  1  0  0  0  0
  3 64  1  0  0  0  0
  4 43  1  0  0  0  0
  4 74  1  0  0  0  0
  5 42  1  0  0  0  0
  5 75  1  0  0  0  0
  6 41  1  0  0  0  0
  6 76  1  0  0  0  0
  7 40  1  0  0  0  0
  7 77  1  0  0  0  0
  8 42  2  0  0  0  0
  9 41  2  0  0  0  0
 10 40  2  0  0  0  0
 11 43  2  0  0  0  0
 12 15  1  0  0  0  0
 12 16  1  0  0  0  0
 12 19  1  0  0  0  0
 13 17  1  0  0  0  0
 13 18  1  0  0  0  0
 13 21  1  0  0  0  0
 14 22  1  0  0  0  0
 14 24  1  0  0  0  0
 14 25  1  0  0  0  0
 15 17  1  0  0  0  0
 15 46  1  0  0  0  0
 15 47  1  0  0  0  0
 16 18  1  0  0  0  0
 16 44  1  0  0  0  0
 16 45  1  0  0  0  0
 17 50  1  0  0  0  0
 17 51  1  0  0  0  0
 18 48  1  0  0  0  0
 18 49  1  0  0  0  0
 19 20  1  0  0  0  0
 19 52  1  0  0  0  0
 19 53  1  0  0  0  0
 20 22  1  0  0  0  0
 20 54  1  0  0  0  0
 20 55  1  0  0  0  0
 21 23  1  0  0  0  0
 21 56  1  0  0  0  0
 21 57  1  0  0  0  0
 22 58  1  0  0  0  0
 22 59  1  0  0  0  0
 23 60  1  0  0  0  0
 23 61  1  0  0  0  0
 24 26  2  0  0  0  0
 24 28  1  0  0  0  0
 25 27  1  0  0  0  0
 25 29  2  0  0  0  0
 26 30  1  0  0  0  0
 27 31  2  0  0  0  0
 28 32  2  0  0  0  0
 28 62  1  0  0  0  0
 29 33  1  0  0  0  0
 29 63  1  0  0  0  0
 30 34  2  0  0  0  0
 30 65  1  0  0  0  0
 31 35  1  0  0  0  0
 31 66  1  0  0  0  0
 32 34  1  0  0  0  0
 33 35  2  0  0  0  0
 33 67  1  0  0  0  0
 34 68  1  0  0  0  0
 35 69  1  0  0  0  0
 36 37  2  0  0  0  0
 36 40  1  0  0  0  0
 36 73  1  0  0  0  0
 37 41  1  0  0  0  0
 37 70  1  0  0  0  0
 38 39  2  0  0  0  0
 38 42  1  0  0  0  0
 38 71  1  0  0  0  0
 39 43  1  0  0  0  0
 39 72  1  0  0  0  0
M  END
> <PUBCHEM_COMPOUND_CID>
6444477

> <PUBCHEM_COMPOUND_CANONICALIZED>
1

> <PUBCHEM_CACTVS_COMPLEXITY>
582

> <PUBCHEM_CACTVS_HBOND_ACCEPTOR>
13

> <PUBCHEM_CACTVS_HBOND_DONOR>
5

> <PUBCHEM_CACTVS_ROTATABLE_BOND>
10

> <PUBCHEM_CACTVS_SUBSKEYS>
AAADcfB7PABEAAAAAAAAAAAAAAAAAAAAAAA8eIEAAAAAAACxQAAAHgYACAAACArh0CYwyYMAAgiIACTSSACCAAAhDxAIiBwIZsgKdGLh05GUMAhggAD42YcQAAAAAAIAAAIAAQAABAAABAACAAAAAAAAAA==

> <PUBCHEM_IUPAC_OPENEYE_NAME>
2-[4-[3-(2-chlorophenothiazin-10-yl)propyl]piperazin-1-yl]ethanol; maleic acid

> <PUBCHEM_IUPAC_CAS_NAME>
(Z)-2-butenedioic acid; 2-[4-[3-(2-chloro-10-phenothiazinyl)propyl]-1-piperazinyl]ethanol

> <PUBCHEM_IUPAC_NAME>
(Z)-but-2-enedioic acid; 2-[4-[3-(2-chlorophenothiazin-10-yl)propyl]piperazin-1-yl]ethanol

> <PUBCHEM_IUPAC_SYSTEMATIC_NAME>
(Z)-but-2-enedioic acid; 2-[4-[3-(2-chloranylphenothiazin-10-yl)propyl]piperazin-1-yl]ethanol

> <PUBCHEM_IUPAC_TRADITIONAL_NAME>
2-[4-[3-(2-chlorophenothiazin-10-yl)propyl]piperazino]ethanol; maleic acid

> <PUBCHEM_IUPAC_INCHI>
InChI=1S/C21H26ClN3OS.2C4H4O4/c22-17-6-7-21-19(16-17)25(18-4-1-2-5-20(18)27-21)9-3-8-23-10-12-24(13-11-23)14-15-26;2*5-3(6)1-2-4(7)8/h1-2,4-7,16,26H,3,8-15H2;2*1-2H,(H,5,6)(H,7,8)/b;2*2-1-

> <PUBCHEM_IUPAC_INCHIKEY>
HYYMPXVEPSKZOU-SPIKMXEPSA-N

> <PUBCHEM_EXACT_MASS>
635.170428

> <PUBCHEM_MOLECULAR_FORMULA>
C29H34ClN3O9S

> <PUBCHEM_MOLECULAR_WEIGHT>
636.11296

> <PUBCHEM_OPENEYE_CAN_SMILES>
C1CN(CCN1CCCN2C3=CC=CC=C3SC4=C2C=C(C=C4)Cl)CCO.C(=CC(=O)O)C(=O)O.C(=CC(=O)O)C(=O)O

> <PUBCHEM_OPENEYE_ISO_SMILES>
C1N(CCN(C1)CCO)CCCN2C3=C(SC4=CC=CC=C24)C=CC(=C3)Cl.C(=C\C(=O)O)\C(=O)O.C(=C\C(=O)O)\C(=O)O

> <PUBCHEM_CACTVS_TPSA>
204

> <PUBCHEM_MONOISOTOPIC_WEIGHT>
635.170428

> <PUBCHEM_TOTAL_CHARGE>
0

> <PUBCHEM_HEAVY_ATOM_COUNT>
43

> <PUBCHEM_ATOM_DEF_STEREO_COUNT>
0

> <PUBCHEM_ATOM_UDEF_STEREO_COUNT>
0

> <PUBCHEM_BOND_DEF_STEREO_COUNT>
2

> <PUBCHEM_BOND_UDEF_STEREO_COUNT>
0

> <PUBCHEM_ISOTOPIC_ATOM_COUNT>
0

> <PUBCHEM_COMPONENT_COUNT>
3

> <PUBCHEM_CACTVS_TAUTO_COUNT>
1

> <PUBCHEM_COORDINATE_TYPE>
1
5
255

> <PUBCHEM_BONDANNOTATIONS>
24  26  8
24  28  8
25  27  8
25  29  8
26  30  8
27  31  8
28  32  8
29  33  8
30  34  8
31  35  8
32  34  8
33  35  8

$$$$

