   Chemical and Physical Properties References

   [1]USDA ARS - USDA chemical properties
   from [2]ChemIDplus

   Color/Form
        Colorless crystals
   from [3]HSDB

   Melting Point
        239 deg C
   from [4]HSDB

   Corrosivity
        Non-corrosive
   from [5]HSDB

   Octanol/Water Partition Coefficient
        log Kow= 3.89
   from [6]HSDB

   Solubilities

     * In water, 0.08 mg/l @ 25 deg C
     * In water 0.08 mg/l (pH 5.5, 20 deg C). In acetone 6.5 g/l (20 deg
       C). In dimethylformamide 104, dioxane 20 (both in g/l, 25 deg C).
       Moderately sol in polar organic solvents; very slightly sol in
       non-polar organic solvents (<10 g/l).

   from [7]HSDB

   Spectral Properties
        Intense mass spectral peaks: 153 mz (100%), 141 mz (84%), 155 mz
   (46%), 63 mz (38%).
   from [8]HSDB

   Vapor Pressure
        9X10-10 mm Hg @ 25 deg C
   from [9]HSDB

   Other Chemical/Physical Properties

     * Decomposes on distillation
     * Off-white to yellow crystals; Melting point: 210-230 deg C, with
       decomposition /technical diflubenzuron/

   from [10]HSDB

   Computed Properties
   Molecular Weight                  310.683266 [g/mol]
   Molecular Formula                 C[14]H[9]ClF[2]N[2]O[2]
   XLogP3                            3.9
   H-Bond Donor                      2
   H-Bond Acceptor                   4
   Rotatable Bond Count              2
   Tautomer Count                    5
   Exact Mass                        310.032062
   MonoIsotopic Mass                 310.032062
   Topological Polar Surface Area    58.2
   Heavy Atom Count                  21
   Formal Charge                     0
   Complexity                        379
   Isotope Atom Count                0
   Defined Atom Stereocenter Count   0
   Undefined Atom Stereocenter Count 0
   Defined Bond Stereocenter Count   0
   Undefined Bond Stereocenter Count 0
   Covalently-Bonded Unit Count      1
   Feature 3D Acceptor Count         2
   Feature 3D Donor Count            2
   Feature 3D Ring Count             2
   Effective Rotor Count             5
   Conformer Sampling RMSD           0.8
   CID Conformer Count               [11]8

References

   1. http://www.ars.usda.gov/SP2UserFiles/ad_hoc/12755100DatabaseFiles/PesticidePropertiesDatabase/IndividualPesticideFiles/DIFLUBENZURON.TXT
   2. http://chem.sis.nlm.nih.gov/chemidplus/
   3. http://toxnet.nlm.nih.gov/cgi-bin/sis/search/r?dbs+hsdb:@term+@rn+@rel+35367-38-5
   4. http://toxnet.nlm.nih.gov/cgi-bin/sis/search/r?dbs+hsdb:@term+@rn+@rel+35367-38-5
   5. http://toxnet.nlm.nih.gov/cgi-bin/sis/search/r?dbs+hsdb:@term+@rn+@rel+35367-38-5
   6. http://toxnet.nlm.nih.gov/cgi-bin/sis/search/r?dbs+hsdb:@term+@rn+@rel+35367-38-5
   7. http://toxnet.nlm.nih.gov/cgi-bin/sis/search/r?dbs+hsdb:@term+@rn+@rel+35367-38-5
   8. http://toxnet.nlm.nih.gov/cgi-bin/sis/search/r?dbs+hsdb:@term+@rn+@rel+35367-38-5
   9. http://toxnet.nlm.nih.gov/cgi-bin/sis/search/r?dbs+hsdb:@term+@rn+@rel+35367-38-5
  10. http://toxnet.nlm.nih.gov/cgi-bin/sis/search/r?dbs+hsdb:@term+@rn+@rel+35367-38-5
  11. http://pubchem.ncbi.nlm.nih.gov/vw3d/vw3d.cgi?cid=37123
