   Color/Form
        Yellow orange crystals
   from [1]HSDB

   Odor
        Slightly aromatic odor
   from [2]HSDB

   Boiling Point
        134-146 deg C at 0.5 mm Hg
   from [3]HSDB

   Melting Point
        61 deg C
   from [4]HSDB

   Density/Specific Gravity
        1.06 at 25 deg C
   from [5]HSDB

   Octanol/Water Partition Coefficient
        log Kow = 4.93 at 23 deg C
   from [6]HSDB

   Solubilities

     * Solubility in ethanol 73, methanol 98 and hexane 300 g/L at 25-26
       deg C. Solubility in dichloroethane 146, benzene 270 and acetone
       448 g/100 mL at 24 deg C.
     * In water, 1 mg/L at 25 deg C [Shiu WY et al; Rev Environ Contam
       Toxicol 116: 15-187 (1990)] [7]PubMed Abstract

   from [8]HSDB

   Vapor Pressure
        1.3X10-5 mm Hg at 25 deg C
   from [9]HSDB

   Other Chemical/Physical Properties

     * Henry's Law constant = 4.9X10-6 atm-cu m/mol at 25 deg C
     * Hydroxyl radical reaction rate constant = 24.2X10-12 cu
       cm/molec-sec at 25 deg C (est)

   from [10]HSDB

   Computed Properties
   Molecular Weight                  295.33424 [g/mol]
   Molecular Formula                 C[14]H[21]N[3]O[4]
   XLogP3-AA                         5.1
   H-Bond Donor                      1
   H-Bond Acceptor                   5
   Rotatable Bond Count              4
   Exact Mass                        295.153206
   MonoIsotopic Mass                 295.153206
   Topological Polar Surface Area    104
   Heavy Atom Count                  21
   Formal Charge                     0
   Complexity                        359
   Isotope Atom Count                0
   Defined Atom Stereocenter Count   0
   Undefined Atom Stereocenter Count 1
   Defined Bond Stereocenter Count   0
   Undefined Bond Stereocenter Count 0
   Covalently-Bonded Unit Count      1
   Feature 3D Acceptor Count         4
   Feature 3D Donor Count            1
   Feature 3D Anion Count            2
   Feature 3D Cation Count           1
   Feature 3D Hydrophobe Count       2
   Feature 3D Ring Count             1
   Effective Rotor Count             6
   Conformer Sampling RMSD           0.8
   CID Conformer Count               [11]5

References

   1. http://toxnet.nlm.nih.gov/cgi-bin/sis/search/r?dbs+hsdb:@term+@rn+@rel+33629-47-9
   2. http://toxnet.nlm.nih.gov/cgi-bin/sis/search/r?dbs+hsdb:@term+@rn+@rel+33629-47-9
   3. http://toxnet.nlm.nih.gov/cgi-bin/sis/search/r?dbs+hsdb:@term+@rn+@rel+33629-47-9
   4. http://toxnet.nlm.nih.gov/cgi-bin/sis/search/r?dbs+hsdb:@term+@rn+@rel+33629-47-9
   5. http://toxnet.nlm.nih.gov/cgi-bin/sis/search/r?dbs+hsdb:@term+@rn+@rel+33629-47-9
   6. http://toxnet.nlm.nih.gov/cgi-bin/sis/search/r?dbs+hsdb:@term+@rn+@rel+33629-47-9
   7. http://www.ncbi.nlm.nih.gov/entrez/query.fcgi?cmd=Retrieve&db=pubmed&dopt=Abstract&list_uids=2205893
   8. http://toxnet.nlm.nih.gov/cgi-bin/sis/search/r?dbs+hsdb:@term+@rn+@rel+33629-47-9
   9. http://toxnet.nlm.nih.gov/cgi-bin/sis/search/r?dbs+hsdb:@term+@rn+@rel+33629-47-9
  10. http://toxnet.nlm.nih.gov/cgi-bin/sis/search/r?dbs+hsdb:@term+@rn+@rel+33629-47-9
  11. http://pubchem.ncbi.nlm.nih.gov/vw3d/vw3d.cgi?cid=36565
