14078
  -OEChem-06241222412D

  9  9  0     0  0  0  0  0  0999 V2000
    4.2208   -0.7694    0.0000 S   0  0  0  0  0  0  0  0  0  0  0  0
    5.9809   -0.4907    0.0000 S   0  0  0  0  0  0  0  0  0  0  0  0
    2.4607   -0.4907    0.0000 S   0  0  0  0  0  0  0  0  0  0  0  0
    4.7208    0.7694    0.0000 N   0  0  0  0  0  0  0  0  0  0  0  0
    3.7208    0.7694    0.0000 N   0  0  0  0  0  0  0  0  0  0  0  0
    5.0298   -0.1816    0.0000 C   0  0  0  0  0  0  0  0  0  0  0  0
    3.4118   -0.1816    0.0000 C   0  0  0  0  0  0  0  0  0  0  0  0
    6.4416   -0.0758    0.0000 H   0  0  0  0  0  0  0  0  0  0  0  0
    2.0000   -0.0758    0.0000 H   0  0  0  0  0  0  0  0  0  0  0  0
  1  6  1  0  0  0  0
  1  7  1  0  0  0  0
  2  6  1  0  0  0  0
  2  8  1  0  0  0  0
  3  7  1  0  0  0  0
  3  9  1  0  0  0  0
  4  5  1  0  0  0  0
  4  6  2  0  0  0  0
  5  7  2  0  0  0  0
M  END
> <PUBCHEM_COMPOUND_CID>
14078

> <PUBCHEM_COMPOUND_CANONICALIZED>
1

> <PUBCHEM_CACTVS_COMPLEXITY>
60

> <PUBCHEM_CACTVS_HBOND_ACCEPTOR>
5

> <PUBCHEM_CACTVS_HBOND_DONOR>
2

> <PUBCHEM_CACTVS_ROTATABLE_BOND>
0

> <PUBCHEM_CACTVS_SUBSKEYS>
AAADcQBDAABgAAAAAAAAAAAAAAAAAWAAAAAAAAAAAAAAAAABgAAABAQIAAAAAAAAAAAAAAAAAAwmAAAAAAEQAQBAAAAAAAAAAAAAAAAAAAAAAAAAAAAAAAAAAAAAAAAAAAAAAAAAAAAAAAAAAAAAAAAAAA==

> <PUBCHEM_IUPAC_OPENEYE_NAME>
1,3,4-thiadiazole-2,5-dithiol

> <PUBCHEM_IUPAC_CAS_NAME>
1,3,4-thiadiazole-2,5-dithiol

> <PUBCHEM_IUPAC_NAME>
1,3,4-thiadiazole-2,5-dithiol

> <PUBCHEM_IUPAC_SYSTEMATIC_NAME>
1,3,4-thiadiazole-2,5-dithiol

> <PUBCHEM_IUPAC_TRADITIONAL_NAME>
1,3,4-thiadiazole-2,5-dithiol

> <PUBCHEM_IUPAC_INCHI>
InChI=1S/C2H2N2S3/c5-1-3-4-2(6)7-1/h(H,3,5)(H,4,6)

> <PUBCHEM_IUPAC_INCHIKEY>
BIGYLAKFCGVRAN-UHFFFAOYSA-N

> <PUBCHEM_XLOGP3_AA>
1.3

> <PUBCHEM_EXACT_MASS>
149.938011

> <PUBCHEM_MOLECULAR_FORMULA>
C2H2N2S3

> <PUBCHEM_MOLECULAR_WEIGHT>
150.24568

> <PUBCHEM_OPENEYE_CAN_SMILES>
C1(=NN=C(S1)S)S

> <PUBCHEM_OPENEYE_ISO_SMILES>
C1(=NN=C(S1)S)S

> <PUBCHEM_CACTVS_TPSA>
56

> <PUBCHEM_MONOISOTOPIC_WEIGHT>
149.938011

> <PUBCHEM_TOTAL_CHARGE>
0

> <PUBCHEM_HEAVY_ATOM_COUNT>
7

> <PUBCHEM_ATOM_DEF_STEREO_COUNT>
0

> <PUBCHEM_ATOM_UDEF_STEREO_COUNT>
0

> <PUBCHEM_BOND_DEF_STEREO_COUNT>
0

> <PUBCHEM_BOND_UDEF_STEREO_COUNT>
0

> <PUBCHEM_ISOTOPIC_ATOM_COUNT>
0

> <PUBCHEM_COMPONENT_COUNT>
1

> <PUBCHEM_CACTVS_TAUTO_COUNT>
3

> <PUBCHEM_COORDINATE_TYPE>
1
5
255

> <PUBCHEM_BONDANNOTATIONS>
1  6  8
1  7  8
4  5  8
4  6  8
5  7  8

$$$$

