5281888
  -OEChem-07051213012D

 61 63  0     1  0  0  0  0  0999 V2000
   16.7885   -1.6792    0.0000 Cl  0  0  0  0  0  0  0  0  0  0  0  0
    6.3301   -1.6550    0.0000 S   0  0  0  0  0  0  0  0  0  0  0  0
    7.1962   -0.1550    0.0000 S   0  0  0  0  0  0  0  0  0  0  0  0
    3.7320   -0.1550    0.0000 O   0  0  0  0  0  0  0  0  0  0  0  0
    5.4641    2.8450    0.0000 O   0  0  0  0  0  0  0  0  0  0  0  0
    4.5981    1.3450    0.0000 O   0  0  0  0  0  0  0  0  0  0  0  0
    2.8660   -1.6550    0.0000 N   0  0  0  0  0  0  0  0  0  0  0  0
   13.2583   -1.6550    0.0000 N   0  0  0  0  0  0  0  0  0  0  0  0
    7.1962   -1.1550    0.0000 C   0  0  3  0  0  0  0  0  0  0  0  0
    8.0622   -1.6550    0.0000 C   0  0  0  0  0  0  0  0  0  0  0  0
    5.4641   -1.1550    0.0000 C   0  0  0  0  0  0  0  0  0  0  0  0
    8.9282   -1.1550    0.0000 C   0  0  0  0  0  0  0  0  0  0  0  0
    4.5981   -1.6550    0.0000 C   0  0  0  0  0  0  0  0  0  0  0  0
    9.7942   -1.6550    0.0000 C   0  0  0  0  0  0  0  0  0  0  0  0
    8.0622   -2.6550    0.0000 C   0  0  0  0  0  0  0  0  0  0  0  0
    6.3301    0.3450    0.0000 C   0  0  0  0  0  0  0  0  0  0  0  0
    9.7942   -2.6550    0.0000 C   0  0  0  0  0  0  0  0  0  0  0  0
    8.9282   -3.1550    0.0000 C   0  0  0  0  0  0  0  0  0  0  0  0
    3.7320   -1.1550    0.0000 C   0  0  0  0  0  0  0  0  0  0  0  0
   10.6603   -1.1550    0.0000 C   0  0  0  0  0  0  0  0  0  0  0  0
    6.3301    1.3450    0.0000 C   0  0  0  0  0  0  0  0  0  0  0  0
   11.5263   -1.6550    0.0000 C   0  0  0  0  0  0  0  0  0  0  0  0
   12.3923   -1.1550    0.0000 C   0  0  0  0  0  0  0  0  0  0  0  0
   14.1244   -0.1550    0.0000 C   0  0  0  0  0  0  0  0  0  0  0  0
   14.1244   -1.1550    0.0000 C   0  0  0  0  0  0  0  0  0  0  0  0
   12.3923   -0.1550    0.0000 C   0  0  0  0  0  0  0  0  0  0  0  0
   13.2583    0.3450    0.0000 C   0  0  0  0  0  0  0  0  0  0  0  0
    2.0000   -1.1550    0.0000 C   0  0  0  0  0  0  0  0  0  0  0  0
    2.8660   -2.6550    0.0000 C   0  0  0  0  0  0  0  0  0  0  0  0
   15.0183    0.3797    0.0000 C   0  0  0  0  0  0  0  0  0  0  0  0
   15.0183   -1.6897    0.0000 C   0  0  0  0  0  0  0  0  0  0  0  0
    5.4641    1.8450    0.0000 C   0  0  0  0  0  0  0  0  0  0  0  0
   15.9244   -0.1342    0.0000 C   0  0  0  0  0  0  0  0  0  0  0  0
   15.9244   -1.1758    0.0000 C   0  0  0  0  0  0  0  0  0  0  0  0
    6.6592   -0.8450    0.0000 H   0  0  0  0  0  0  0  0  0  0  0  0
    5.8626   -0.6801    0.0000 H   0  0  0  0  0  0  0  0  0  0  0  0
    5.0656   -0.6801    0.0000 H   0  0  0  0  0  0  0  0  0  0  0  0
    8.9282   -0.5350    0.0000 H   0  0  0  0  0  0  0  0  0  0  0  0
    4.1996   -2.1300    0.0000 H   0  0  0  0  0  0  0  0  0  0  0  0
    4.9966   -2.1300    0.0000 H   0  0  0  0  0  0  0  0  0  0  0  0
    7.5252   -2.9650    0.0000 H   0  0  0  0  0  0  0  0  0  0  0  0
    5.7196    0.4527    0.0000 H   0  0  0  0  0  0  0  0  0  0  0  0
    6.1181   -0.2376    0.0000 H   0  0  0  0  0  0  0  0  0  0  0  0
   10.3312   -2.9650    0.0000 H   0  0  0  0  0  0  0  0  0  0  0  0
    8.9282   -3.7750    0.0000 H   0  0  0  0  0  0  0  0  0  0  0  0
   10.6603   -0.5350    0.0000 H   0  0  0  0  0  0  0  0  0  0  0  0
    6.9407    1.2373    0.0000 H   0  0  0  0  0  0  0  0  0  0  0  0
    6.5422    1.9276    0.0000 H   0  0  0  0  0  0  0  0  0  0  0  0
   11.5263   -2.2750    0.0000 H   0  0  0  0  0  0  0  0  0  0  0  0
   11.8554    0.1550    0.0000 H   0  0  0  0  0  0  0  0  0  0  0  0
   13.2583    0.9650    0.0000 H   0  0  0  0  0  0  0  0  0  0  0  0
    2.3100   -0.6181    0.0000 H   0  0  0  0  0  0  0  0  0  0  0  0
    2.2460   -2.6550    0.0000 H   0  0  0  0  0  0  0  0  0  0  0  0
    2.8660   -3.2750    0.0000 H   0  0  0  0  0  0  0  0  0  0  0  0
    3.4860   -2.6550    0.0000 H   0  0  0  0  0  0  0  0  0  0  0  0
    1.4631   -0.8450    0.0000 H   0  0  0  0  0  0  0  0  0  0  0  0
    1.6900   -1.6919    0.0000 H   0  0  0  0  0  0  0  0  0  0  0  0
   15.0111    0.9996    0.0000 H   0  0  0  0  0  0  0  0  0  0  0  0
   15.0111   -2.3096    0.0000 H   0  0  0  0  0  0  0  0  0  0  0  0
   16.4601    0.1779    0.0000 H   0  0  0  0  0  0  0  0  0  0  0  0
    4.9272    3.1550    0.0000 H   0  0  0  0  0  0  0  0  0  0  0  0
  1 34  1  0  0  0  0
  2  9  1  0  0  0  0
  2 11  1  0  0  0  0
  3  9  1  0  0  0  0
  3 16  1  0  0  0  0
  4 19  2  0  0  0  0
  5 32  1  0  0  0  0
  5 61  1  0  0  0  0
  6 32  2  0  0  0  0
  7 19  1  0  0  0  0
  7 28  1  0  0  0  0
  7 29  1  0  0  0  0
  8 23  2  0  0  0  0
  8 25  1  0  0  0  0
  9 10  1  0  0  0  0
  9 35  1  0  0  0  0
 10 12  1  0  0  0  0
 10 15  2  0  0  0  0
 11 13  1  0  0  0  0
 11 36  1  0  0  0  0
 11 37  1  0  0  0  0
 12 14  2  0  0  0  0
 12 38  1  0  0  0  0
 13 19  1  0  0  0  0
 13 39  1  0  0  0  0
 13 40  1  0  0  0  0
 14 17  1  0  0  0  0
 14 20  1  0  0  0  0
 15 18  1  0  0  0  0
 15 41  1  0  0  0  0
 16 21  1  0  0  0  0
 16 42  1  0  0  0  0
 16 43  1  0  0  0  0
 17 18  2  0  0  0  0
 17 44  1  0  0  0  0
 18 45  1  0  0  0  0
 20 22  2  0  0  0  0
 20 46  1  0  0  0  0
 21 32  1  0  0  0  0
 21 47  1  0  0  0  0
 21 48  1  0  0  0  0
 22 23  1  0  0  0  0
 22 49  1  0  0  0  0
 23 26  1  0  0  0  0
 24 25  2  0  0  0  0
 24 27  1  0  0  0  0
 24 30  1  0  0  0  0
 25 31  1  0  0  0  0
 26 27  2  0  0  0  0
 26 50  1  0  0  0  0
 27 51  1  0  0  0  0
 28 52  1  0  0  0  0
 28 56  1  0  0  0  0
 28 57  1  0  0  0  0
 29 53  1  0  0  0  0
 29 54  1  0  0  0  0
 29 55  1  0  0  0  0
 30 33  2  0  0  0  0
 30 58  1  0  0  0  0
 31 34  2  0  0  0  0
 31 59  1  0  0  0  0
 33 34  1  0  0  0  0
 33 60  1  0  0  0  0
M  END
> <PUBCHEM_COMPOUND_CID>
5281888

> <PUBCHEM_COMPOUND_CANONICALIZED>
1

> <PUBCHEM_CACTVS_COMPLEXITY>
693

> <PUBCHEM_CACTVS_HBOND_ACCEPTOR>
6

> <PUBCHEM_CACTVS_HBOND_DONOR>
1

> <PUBCHEM_CACTVS_ROTATABLE_BOND>
11

> <PUBCHEM_CACTVS_SUBSKEYS>
AAADceB7MABkAAAAAAAAAAAAAAAAAAAAAAA8YIAAAAAAAACx9AAAHgYACAAADAqF3iSyyPMIEgioAyXyXACCgSAhBzAImCE4ZpgIIOLhk5GEYAhgggDoyAcQgMAOBAACAAICAAAIAAQABAQAAAAAAAAAAA==

> <PUBCHEM_IUPAC_OPENEYE_NAME>
3-[[3-[(E)-2-(7-chloro-2-quinolyl)vinyl]phenyl]-[3-(dimethylamino)-3-oxo-propyl]sulfanyl-methyl]sulfanylpropanoic acid

> <PUBCHEM_IUPAC_CAS_NAME>
3-[[[3-[(E)-2-(7-chloro-2-quinolinyl)ethenyl]phenyl]-[[3-(dimethylamino)-3-oxopropyl]thio]methyl]thio]propanoic acid

> <PUBCHEM_IUPAC_NAME>
3-[[3-[(E)-2-(7-chloroquinolin-2-yl)ethenyl]phenyl]-[3-(dimethylamino)-3-oxopropyl]sulfanylmethyl]sulfanylpropanoic acid

> <PUBCHEM_IUPAC_SYSTEMATIC_NAME>
3-[[3-[(E)-2-(7-chloranylquinolin-2-yl)ethenyl]phenyl]-[3-(dimethylamino)-3-oxidanylidene-propyl]sulfanyl-methyl]sulfanylpropanoic acid

> <PUBCHEM_IUPAC_TRADITIONAL_NAME>
3-[[[3-[(E)-2-(7-chloro-2-quinolyl)vinyl]phenyl]-[[3-(dimethylamino)-3-keto-propyl]thio]methyl]thio]propionic acid

> <PUBCHEM_IUPAC_INCHI>
InChI=1S/C26H27ClN2O3S2/c1-29(2)24(30)12-14-33-26(34-15-13-25(31)32)20-5-3-4-18(16-20)6-10-22-11-8-19-7-9-21(27)17-23(19)28-22/h3-11,16-17,26H,12-15H2,1-2H3,(H,31,32)/b10-6+

> <PUBCHEM_IUPAC_INCHIKEY>
AXUZQJFHDNNPFG-UXBLZVDNSA-N

> <PUBCHEM_XLOGP3_AA>
5.3

> <PUBCHEM_EXACT_MASS>
514.115162

> <PUBCHEM_MOLECULAR_FORMULA>
C26H27ClN2O3S2

> <PUBCHEM_MOLECULAR_WEIGHT>
515.08718

> <PUBCHEM_OPENEYE_CAN_SMILES>
CN(C)C(=O)CCSC(C1=CC=CC(=C1)C=CC2=NC3=C(C=CC(=C3)Cl)C=C2)SCCC(=O)O

> <PUBCHEM_OPENEYE_ISO_SMILES>
CN(C)C(=O)CCSC(C1=CC=CC(=C1)/C=C/C2=NC3=C(C=CC(=C3)Cl)C=C2)SCCC(=O)O

> <PUBCHEM_CACTVS_TPSA>
121

> <PUBCHEM_MONOISOTOPIC_WEIGHT>
514.115162

> <PUBCHEM_TOTAL_CHARGE>
0

> <PUBCHEM_HEAVY_ATOM_COUNT>
34

> <PUBCHEM_ATOM_DEF_STEREO_COUNT>
0

> <PUBCHEM_ATOM_UDEF_STEREO_COUNT>
1

> <PUBCHEM_BOND_DEF_STEREO_COUNT>
1

> <PUBCHEM_BOND_UDEF_STEREO_COUNT>
0

> <PUBCHEM_ISOTOPIC_ATOM_COUNT>
0

> <PUBCHEM_COMPONENT_COUNT>
1

> <PUBCHEM_CACTVS_TAUTO_COUNT>
1

> <PUBCHEM_COORDINATE_TYPE>
1
5
255

> <PUBCHEM_BONDANNOTATIONS>
10  12  8
10  15  8
12  14  8
14  17  8
15  18  8
17  18  8
9  2  3
23  26  8
24  25  8
24  27  8
24  30  8
25  31  8
26  27  8
30  33  8
31  34  8
33  34  8
8  23  8
8  25  8

$$$$

