   Color/Form

     * Light amber liquid
     * Colorless to yellow brown liquid

   from [1]HSDB

   Odor

     * Unpleasant penetrating odor
     * Carbolic odor

   from [2]HSDB

   Taste
        Strong medicinal taste and odor
   from [3]HSDB

   Boiling Point
        174.9 deg C at 760 mm Hg
   from [4]HSDB

   Melting Point
        9.8 deg C
   from [5]HSDB

   Density/Specific Gravity
        1.2634 at 20 deg C/4 deg C
   from [6]HSDB

   Dissociation Constants

     * Ka = 3.2X10-9 at 25 deg C
     * pKa = 8.52
     * pKa = 8.56

   from [7]HSDB

   Heat of Combustion
        2790.0 kJ.mol at 77 deg F (liquid) /25 deg C/
   from [8]HSDB

   Heat of Vaporization
        40.12 kJ/mole at 174.53 deg C / 447.53 K/
   from [9]HSDB

   Octanol/Water Partition Coefficient
        log Kow = 2.15
   from [10]HSDB

   pH
        weakly acidic
   from [11]HSDB

   Solubilities

     * Sol in ethanol, ethyl ether; slightly soluble in chloroform; very
       sol in benzene
     * Sol in aqueous sodium hydroxide, alcohol, ether
     * 2.85 PARTS SOL IN 100 PARTS WATER @ 20 DEG C
     * Freely soluble in alcohol, ether, caustic alkali solutions
     * Soluble in aqueous alkali, oxygenated and aromatic solvents
     * In water, 1.13X10+4 mg/L at 25 deg C

   from [12]HSDB

   Spectral Properties

     * MAX ABSORPTION (ALCOHOL): 216 NM (LOG E= 3.81); 274.5 NM (LOG E=
       3.37); 280 NM SHOULDER (LOG E= 3.30), SADTLER REF NUMBER: 2800 (IR,
       PRISM); 343 (IR, GRATING)
     * Intense mass spectral peaks: 128 m/z (100%), 64 m/z (52%), 130 m/z
       (32%), 63 m/z (26%)
     * Index of refraction: 1.5524 @ 20 deg C
     * Index of refraction: 1.5565 at 25 deg C/D; 1.5473 at 40 deg C/D
     * IR: 6193 (Coblentz Society Spectral Collection)
     * UV: 772 (Sadtler Research Laboratories Spectral Collection)
     * NMR: 1209 (Sadtler Research Laboratories Spectral Collection)
     * MASS: 551 (Atlas of Mass Spectral Data, John Wiley & Sons, New
       York)

   from [13]HSDB

   Surface Tension
        40.50 dynes/cm at 25 deg C
   from [14]HSDB

   Vapor Pressure
        2.53 mm Hg at 25 deg C
   from [15]HSDB

   Viscosity
        3.579 cP at 25 deg C
   from [16]HSDB

   Other Chemical/Physical Properties

     * /Threshold for taste is/ 0.1 ug/l.
     * MP: 7 DEG C (ALPHA), 0 DEG C (BETA), 4.1 DEG C (GAMMA)
     * Dipole moment in benzene: 1.33 D. Volatile with steam
     * Heat of fusion = 105.027 kJ/kg at 282 K /9 deg C/
     * Specific heat capacity = 198.53 J/mol-K at 25 deg C
     * Medicinal, empyreumatic odor /Chlorophenols/
     * Henry's Law constant = 1.12X10-5 atm-cu m/mole at 25 deg C [Abraham
       MH et al; J Pharm Sci 83: 1085-100 (1994)] [17]PubMed Abstract
     * Hydroxyl radical reaction rate constant = 9.87X10-12
       cu-cm/molec-sec at 25 deg C (est)

   from [18]HSDB

   Computed Properties
   Molecular Weight                  128.5563 [g/mol]
   Molecular Formula                 C[6]H[5]ClO
   XLogP3                            2.1
   H-Bond Donor                      1
   H-Bond Acceptor                   1
   Rotatable Bond Count              0
   Tautomer Count                    3
   Exact Mass                        128.002892
   MonoIsotopic Mass                 128.002892
   Topological Polar Surface Area    20.2
   Heavy Atom Count                  8
   Formal Charge                     0
   Complexity                        74.9
   Isotope Atom Count                0
   Defined Atom Stereocenter Count   0
   Undefined Atom Stereocenter Count 0
   Defined Bond Stereocenter Count   0
   Undefined Bond Stereocenter Count 0
   Covalently-Bonded Unit Count      1
   Feature 3D Donor Count            1
   Feature 3D Ring Count             1
   Effective Rotor Count             0
   Conformer Sampling RMSD           0.4
   CID Conformer Count               [19]1

References

   1. http://toxnet.nlm.nih.gov/cgi-bin/sis/search/r?dbs+hsdb:@term+@rn+@rel+95-57-8
   2. http://toxnet.nlm.nih.gov/cgi-bin/sis/search/r?dbs+hsdb:@term+@rn+@rel+95-57-8
   3. http://toxnet.nlm.nih.gov/cgi-bin/sis/search/r?dbs+hsdb:@term+@rn+@rel+95-57-8
   4. http://toxnet.nlm.nih.gov/cgi-bin/sis/search/r?dbs+hsdb:@term+@rn+@rel+95-57-8
   5. http://toxnet.nlm.nih.gov/cgi-bin/sis/search/r?dbs+hsdb:@term+@rn+@rel+95-57-8
   6. http://toxnet.nlm.nih.gov/cgi-bin/sis/search/r?dbs+hsdb:@term+@rn+@rel+95-57-8
   7. http://toxnet.nlm.nih.gov/cgi-bin/sis/search/r?dbs+hsdb:@term+@rn+@rel+95-57-8
   8. http://toxnet.nlm.nih.gov/cgi-bin/sis/search/r?dbs+hsdb:@term+@rn+@rel+95-57-8
   9. http://toxnet.nlm.nih.gov/cgi-bin/sis/search/r?dbs+hsdb:@term+@rn+@rel+95-57-8
  10. http://toxnet.nlm.nih.gov/cgi-bin/sis/search/r?dbs+hsdb:@term+@rn+@rel+95-57-8
  11. http://toxnet.nlm.nih.gov/cgi-bin/sis/search/r?dbs+hsdb:@term+@rn+@rel+95-57-8
  12. http://toxnet.nlm.nih.gov/cgi-bin/sis/search/r?dbs+hsdb:@term+@rn+@rel+95-57-8
  13. http://toxnet.nlm.nih.gov/cgi-bin/sis/search/r?dbs+hsdb:@term+@rn+@rel+95-57-8
  14. http://toxnet.nlm.nih.gov/cgi-bin/sis/search/r?dbs+hsdb:@term+@rn+@rel+95-57-8
  15. http://toxnet.nlm.nih.gov/cgi-bin/sis/search/r?dbs+hsdb:@term+@rn+@rel+95-57-8
  16. http://toxnet.nlm.nih.gov/cgi-bin/sis/search/r?dbs+hsdb:@term+@rn+@rel+95-57-8
  17. http://www.ncbi.nlm.nih.gov/entrez/query.fcgi?cmd=Retrieve&db=pubmed&dopt=Abstract&list_uids=7983591
  18. http://toxnet.nlm.nih.gov/cgi-bin/sis/search/r?dbs+hsdb:@term+@rn+@rel+95-57-8
  19. http://pubchem.ncbi.nlm.nih.gov/vw3d/vw3d.cgi?cid=7245
