   Color/Form

     * Yellow crystals
     * Crystalline powder
     * White
     * Powder at room temperature

   from [1]HSDB

   Odor
        Odorless
   from [2]HSDB

   Melting Point
        141-145 deg C
   from [3]HSDB

   Corrosivity
        NON-CORROSIVE
   from [4]HSDB

   Density/Specific Gravity
        Bulk density: 1.87 g/ml
   from [5]HSDB

   Dissociation Constants
        Acidic, forming water soluble alkali metal salts
   from [6]HSDB

   Octanol/Water Partition Coefficient
        log Kow = 4.27
   from [7]HSDB

   Solubilities

     * SOL IN METHYL CYANIDE, CYCLOHEXANE
     * SOL IN ETHER, GLACIAL ACETIC ACID
     * Soluble in acetic aicd
     * Slightly soluble in benzene
     * In choroform 204, toluene 73, xylene 50, acetone 29, ethanol 21,
       heptane 1.8 (all in g/kg); soluble in alkalis with the formation of
       salts.
     * In water, 0.3 mg/l, temp not specified

   from [8]HSDB

   Spectral Properties

     * Index of refraction: 1.670 C/D
     * Intense mass spectral peaks: 173 m/z (100%), 167 m/z (89%), 340 m/z
       (57%), 165 m/z (40%)
     * MASS: 52491 (NIST/EPA/MSDC Mass Spectral Database, 1990 version)

   from [9]HSDB

   Vapor Pressure
        1.03X10-10 mm Hg @ 25 deg C
   from [10]HSDB

   Other Chemical/Physical Properties

     * Forms a sodium salt which is sparingly sol in water.
     * Yellow powder (95% pure); mp: 145 deg C; density: 1.281 at 25 deg
       C; vapor pressure: 13.7 nPa (25 deg C) /Technical diphenadione/

   from [11]HSDB

   Computed Properties
   Molecular Weight                  340.37134 [g/mol]
   Molecular Formula                 C[23]H[16]O[3]
   XLogP3                            3.7
   H-Bond Donor                      0
   H-Bond Acceptor                   3
   Rotatable Bond Count              4
   Tautomer Count                    5
   Exact Mass                        340.109944
   MonoIsotopic Mass                 340.109944
   Topological Polar Surface Area    51.2
   Heavy Atom Count                  26
   Formal Charge                     0
   Complexity                        512
   Isotope Atom Count                0
   Defined Atom Stereocenter Count   0
   Undefined Atom Stereocenter Count 0
   Defined Bond Stereocenter Count   0
   Undefined Bond Stereocenter Count 0
   Covalently-Bonded Unit Count      1
   Feature 3D Acceptor Count         3
   Feature 3D Anion Count            1
   Feature 3D Ring Count             4
   Effective Rotor Count             4.2
   Conformer Sampling RMSD           0.8
   CID Conformer Count               [12]30

References

   1. http://toxnet.nlm.nih.gov/cgi-bin/sis/search/r?dbs+hsdb:@term+@rn+@rel+82-66-6
   2. http://toxnet.nlm.nih.gov/cgi-bin/sis/search/r?dbs+hsdb:@term+@rn+@rel+82-66-6
   3. http://toxnet.nlm.nih.gov/cgi-bin/sis/search/r?dbs+hsdb:@term+@rn+@rel+82-66-6
   4. http://toxnet.nlm.nih.gov/cgi-bin/sis/search/r?dbs+hsdb:@term+@rn+@rel+82-66-6
   5. http://toxnet.nlm.nih.gov/cgi-bin/sis/search/r?dbs+hsdb:@term+@rn+@rel+82-66-6
   6. http://toxnet.nlm.nih.gov/cgi-bin/sis/search/r?dbs+hsdb:@term+@rn+@rel+82-66-6
   7. http://toxnet.nlm.nih.gov/cgi-bin/sis/search/r?dbs+hsdb:@term+@rn+@rel+82-66-6
   8. http://toxnet.nlm.nih.gov/cgi-bin/sis/search/r?dbs+hsdb:@term+@rn+@rel+82-66-6
   9. http://toxnet.nlm.nih.gov/cgi-bin/sis/search/r?dbs+hsdb:@term+@rn+@rel+82-66-6
  10. http://toxnet.nlm.nih.gov/cgi-bin/sis/search/r?dbs+hsdb:@term+@rn+@rel+82-66-6
  11. http://toxnet.nlm.nih.gov/cgi-bin/sis/search/r?dbs+hsdb:@term+@rn+@rel+82-66-6
  12. http://pubchem.ncbi.nlm.nih.gov/vw3d/vw3d.cgi?cid=6719
