12422
  -OEChem-06261206552D

 70 74  0     1  0  0  0  0  0999 V2000
   13.1995    2.7815    0.0000 S   0  0  0  0  0  0  0  0  0  0  0  0
    8.0319    0.2148    0.0000 O   0  0  0  0  0  0  0  0  0  0  0  0
    4.7950   -0.5416    0.0000 O   0  0  0  0  0  0  0  0  0  0  0  0
    9.0465    0.8443    0.0000 O   0  0  0  0  0  0  0  0  0  0  0  0
   10.8722    0.0276    0.0000 O   0  0  0  0  0  0  0  0  0  0  0  0
    2.0000   -4.0939    0.0000 O   0  0  0  0  0  0  0  0  0  0  0  0
   11.8879   -1.3754    0.0000 O   0  0  0  0  0  0  0  0  0  0  0  0
   13.0967    3.7762    0.0000 O   0  0  0  0  0  0  0  0  0  0  0  0
   14.1942    2.8843    0.0000 O   0  0  0  0  0  0  0  0  0  0  0  0
   12.2048    2.6787    0.0000 O   0  0  0  0  0  0  0  0  0  0  0  0
    7.3931   -1.0416    0.0000 C   0  0  3  0  0  0  0  0  0  0  0  0
    7.3931   -2.0416    0.0000 C   0  0  3  0  0  0  0  0  0  0  0  0
    6.5271   -2.5416    0.0000 C   0  0  3  0  0  0  0  0  0  0  0  0
    5.6610   -2.0416    0.0000 C   0  0  3  0  0  0  0  0  0  0  0  0
    8.3393   -0.7368    0.0000 C   0  0  3  0  0  0  0  0  0  0  0  0
    6.5271   -0.5416    0.0000 C   0  0  0  0  0  0  0  0  0  0  0  0
    8.3393   -2.3463    0.0000 C   0  0  0  0  0  0  0  0  0  0  0  0
    5.6610   -1.0416    0.0000 C   0  0  3  0  0  0  0  0  0  0  0  0
    4.7510   -2.5484    0.0000 C   0  0  3  0  0  0  0  0  0  0  0  0
    8.9229   -1.5416    0.0000 C   0  0  0  0  0  0  0  0  0  0  0  0
    6.5431   -3.5831    0.0000 C   0  0  0  0  0  0  0  0  0  0  0  0
    7.3931   -0.0416    0.0000 C   0  0  0  0  0  0  0  0  0  0  0  0
    5.6451   -4.1108    0.0000 C   0  0  0  0  0  0  0  0  0  0  0  0
    4.7430   -3.5900    0.0000 C   0  0  0  0  0  0  0  0  0  0  0  0
    9.1493   -0.1504    0.0000 C   0  0  0  0  0  0  0  0  0  0  0  0
    4.7587   -1.5484    0.0000 C   0  0  0  0  0  0  0  0  0  0  0  0
    3.8242   -1.9843    0.0000 C   0  0  0  0  0  0  0  0  0  0  0  0
    3.8076   -4.1397    0.0000 C   0  0  0  0  0  0  0  0  0  0  0  0
   10.0622   -0.5588    0.0000 C   0  0  0  0  0  0  0  0  0  0  0  0
    2.8763   -2.5123    0.0000 C   0  0  0  0  0  0  0  0  0  0  0  0
    2.8680   -3.5972    0.0000 C   0  0  0  0  0  0  0  0  0  0  0  0
   11.7851   -0.3807    0.0000 C   0  0  0  0  0  0  0  0  0  0  0  0
   12.5951    0.2057    0.0000 C   0  0  0  0  0  0  0  0  0  0  0  0
   12.4923    1.2004    0.0000 C   0  0  0  0  0  0  0  0  0  0  0  0
   13.5079   -0.2026    0.0000 C   0  0  0  0  0  0  0  0  0  0  0  0
   13.3023    1.7868    0.0000 C   0  0  0  0  0  0  0  0  0  0  0  0
   14.3180    0.3838    0.0000 C   0  0  0  0  0  0  0  0  0  0  0  0
   14.2151    1.3785    0.0000 C   0  0  0  0  0  0  0  0  0  0  0  0
    7.4830   -2.8868    0.0000 H   0  0  0  0  0  0  0  0  0  0  0  0
    7.2664   -2.9609    0.0000 H   0  0  0  0  0  0  0  0  0  0  0  0
    6.3972   -1.6166    0.0000 H   0  0  0  0  0  0  0  0  0  0  0  0
    6.9256   -0.0666    0.0000 H   0  0  0  0  0  0  0  0  0  0  0  0
    6.1285   -0.0666    0.0000 H   0  0  0  0  0  0  0  0  0  0  0  0
    8.0883   -2.9132    0.0000 H   0  0  0  0  0  0  0  0  0  0  0  0
    8.8767   -2.6555    0.0000 H   0  0  0  0  0  0  0  0  0  0  0  0
    5.6610   -0.1916    0.0000 H   0  0  0  0  0  0  0  0  0  0  0  0
    9.3838   -1.9563    0.0000 H   0  0  0  0  0  0  0  0  0  0  0  0
    9.3838   -1.1268    0.0000 H   0  0  0  0  0  0  0  0  0  0  0  0
    6.7612   -4.1635    0.0000 H   0  0  0  0  0  0  0  0  0  0  0  0
    7.1523   -3.4676    0.0000 H   0  0  0  0  0  0  0  0  0  0  0  0
    8.0131   -0.0416    0.0000 H   0  0  0  0  0  0  0  0  0  0  0  0
    7.3931    0.5784    0.0000 H   0  0  0  0  0  0  0  0  0  0  0  0
    6.7731   -0.0416    0.0000 H   0  0  0  0  0  0  0  0  0  0  0  0
    5.2478   -4.5868    0.0000 H   0  0  0  0  0  0  0  0  0  0  0  0
    6.0460   -4.5837    0.0000 H   0  0  0  0  0  0  0  0  0  0  0  0
    5.3787   -1.5532    0.0000 H   0  0  0  0  0  0  0  0  0  0  0  0
    4.7635   -0.9285    0.0000 H   0  0  0  0  0  0  0  0  0  0  0  0
    4.1388   -1.5437    0.0000 H   0  0  0  0  0  0  0  0  0  0  0  0
    3.8361   -1.3644    0.0000 H   0  0  0  0  0  0  0  0  0  0  0  0
    8.4476    0.6748    0.0000 H   0  0  0  0  0  0  0  0  0  0  0  0
    4.7950    0.0784    0.0000 H   0  0  0  0  0  0  0  0  0  0  0  0
    3.8100   -4.7597    0.0000 H   0  0  0  0  0  0  0  0  0  0  0  0
    9.7146   -1.0722    0.0000 H   0  0  0  0  0  0  0  0  0  0  0  0
   10.5074   -0.9902    0.0000 H   0  0  0  0  0  0  0  0  0  0  0  0
    2.3430   -2.1961    0.0000 H   0  0  0  0  0  0  0  0  0  0  0  0
   11.9263    1.4535    0.0000 H   0  0  0  0  0  0  0  0  0  0  0  0
   13.5717   -0.8193    0.0000 H   0  0  0  0  0  0  0  0  0  0  0  0
   14.8839    0.1306    0.0000 H   0  0  0  0  0  0  0  0  0  0  0  0
   14.7174    1.7420    0.0000 H   0  0  0  0  0  0  0  0  0  0  0  0
   13.5989    4.1397    0.0000 H   0  0  0  0  0  0  0  0  0  0  0  0
  1  8  1  0  0  0  0
  1  9  2  0  0  0  0
  1 10  2  0  0  0  0
  1 36  1  0  0  0  0
  2 15  1  0  0  0  0
  2 60  1  0  0  0  0
  3 18  1  0  0  0  0
  3 61  1  0  0  0  0
  4 25  2  0  0  0  0
  5 29  1  0  0  0  0
  5 32  1  0  0  0  0
  6 31  2  0  0  0  0
  7 32  2  0  0  0  0
  8 70  1  0  0  0  0
 11 12  1  0  0  0  0
 11 15  1  0  0  0  0
 11 16  1  0  0  0  0
 11 22  1  0  0  0  0
 12 13  1  0  0  0  0
 12 17  1  0  0  0  0
 12 39  1  0  0  0  0
 13 14  1  0  0  0  0
 13 21  1  0  0  0  0
 13 40  1  0  0  0  0
 14 18  1  0  0  0  0
 14 19  1  0  0  0  0
 14 41  1  0  0  0  0
 15 20  1  0  0  0  0
 15 25  1  0  0  0  0
 16 18  1  0  0  0  0
 16 42  1  0  0  0  0
 16 43  1  0  0  0  0
 17 20  1  0  0  0  0
 17 44  1  0  0  0  0
 17 45  1  0  0  0  0
 18 46  1  0  0  0  0
 19 24  1  0  0  0  0
 19 26  1  0  0  0  0
 19 27  1  0  0  0  0
 20 47  1  0  0  0  0
 20 48  1  0  0  0  0
 21 23  1  0  0  0  0
 21 49  1  0  0  0  0
 21 50  1  0  0  0  0
 22 51  1  0  0  0  0
 22 52  1  0  0  0  0
 22 53  1  0  0  0  0
 23 24  1  0  0  0  0
 23 54  1  0  0  0  0
 23 55  1  0  0  0  0
 24 28  2  0  0  0  0
 25 29  1  0  0  0  0
 26 56  1  0  0  0  0
 26 57  1  0  0  0  0
 26 58  1  0  0  0  0
 27 30  2  0  0  0  0
 27 59  1  0  0  0  0
 28 31  1  0  0  0  0
 28 62  1  0  0  0  0
 29 63  1  0  0  0  0
 29 64  1  0  0  0  0
 30 31  1  0  0  0  0
 30 65  1  0  0  0  0
 32 33  1  0  0  0  0
 33 34  2  0  0  0  0
 33 35  1  0  0  0  0
 34 36  1  0  0  0  0
 34 66  1  0  0  0  0
 35 37  2  0  0  0  0
 35 67  1  0  0  0  0
 36 38  2  0  0  0  0
 37 38  1  0  0  0  0
 37 68  1  0  0  0  0
 38 69  1  0  0  0  0
M  END
> <PUBCHEM_COMPOUND_CID>
12422

> <PUBCHEM_COMPOUND_CANONICALIZED>
1

> <PUBCHEM_CACTVS_COMPLEXITY>
1200

> <PUBCHEM_CACTVS_HBOND_ACCEPTOR>
9

> <PUBCHEM_CACTVS_HBOND_DONOR>
3

> <PUBCHEM_CACTVS_ROTATABLE_BOND>
6

> <PUBCHEM_CACTVS_SUBSKEYS>
AAADcfB4PABAAAAAAAAAAAAAAAAAAYAAAAAwYMEAAAAAAGDBAAAAGgQACAAAD1Sg2AIyCYAABoKIAqDSCHJCAEAkAAAIiBlACMgINjKANRyCcQAlwAEIqYfIzPDPgAAAgAAAAADAAAcAADAAAYAADAAAAA==

> <PUBCHEM_IUPAC_OPENEYE_NAME>
3-[2-(11,17-dihydroxy-10,13-dimethyl-3-oxo-7,8,9,11,12,14,15,16-octahydro-6H-cyclopenta[a]phenanthren-17-yl)-2-oxo-ethoxy]carbonylbenzenesulfonic acid

> <PUBCHEM_IUPAC_CAS_NAME>
3-[[2-(11,17-dihydroxy-10,13-dimethyl-3-oxo-7,8,9,11,12,14,15,16-octahydro-6H-cyclopenta[a]phenanthren-17-yl)-2-oxoethoxy]-oxomethyl]benzenesulfonic acid

> <PUBCHEM_IUPAC_NAME>
3-[2-(11,17-dihydroxy-10,13-dimethyl-3-oxo-7,8,9,11,12,14,15,16-octahydro-6H-cyclopenta[a]phenanthren-17-yl)-2-oxoethoxy]carbonylbenzenesulfonic acid

> <PUBCHEM_IUPAC_SYSTEMATIC_NAME>
3-[2-[10,13-dimethyl-11,17-bis(oxidanyl)-3-oxidanylidene-7,8,9,11,12,14,15,16-octahydro-6H-cyclopenta[a]phenanthren-17-yl]-2-oxidanylidene-ethoxy]carbonylbenzenesulfonic acid

> <PUBCHEM_IUPAC_TRADITIONAL_NAME>
3-[2-(11,17-dihydroxy-3-keto-10,13-dimethyl-7,8,9,11,12,14,15,16-octahydro-6H-cyclopenta[a]phenanthren-17-yl)-2-keto-ethoxy]carbonylbesylic acid

> <PUBCHEM_IUPAC_INCHI>
InChI=1S/C28H32O9S/c1-26-10-8-18(29)13-17(26)6-7-20-21-9-11-28(33,27(21,2)14-22(30)24(20)26)23(31)15-37-25(32)16-4-3-5-19(12-16)38(34,35)36/h3-5,8,10,12-13,20-22,24,30,33H,6-7,9,11,14-15H2,1-2H3,(H,34,35,36)

> <PUBCHEM_IUPAC_INCHIKEY>
WVKSUFYQOHQCMM-UHFFFAOYSA-N

> <PUBCHEM_XLOGP3>
2.8

> <PUBCHEM_EXACT_MASS>
544.176704

> <PUBCHEM_MOLECULAR_FORMULA>
C28H32O9S

> <PUBCHEM_MOLECULAR_WEIGHT>
544.61328

> <PUBCHEM_OPENEYE_CAN_SMILES>
CC12CC(C3C(C1CCC2(C(=O)COC(=O)C4=CC(=CC=C4)S(=O)(=O)O)O)CCC5=CC(=O)C=CC35C)O

> <PUBCHEM_OPENEYE_ISO_SMILES>
CC12CC(C3C(C1CCC2(C(=O)COC(=O)C4=CC(=CC=C4)S(=O)(=O)O)O)CCC5=CC(=O)C=CC35C)O

> <PUBCHEM_CACTVS_TPSA>
164

> <PUBCHEM_MONOISOTOPIC_WEIGHT>
544.176704

> <PUBCHEM_TOTAL_CHARGE>
0

> <PUBCHEM_HEAVY_ATOM_COUNT>
38

> <PUBCHEM_ATOM_DEF_STEREO_COUNT>
0

> <PUBCHEM_ATOM_UDEF_STEREO_COUNT>
7

> <PUBCHEM_BOND_DEF_STEREO_COUNT>
0

> <PUBCHEM_BOND_UDEF_STEREO_COUNT>
0

> <PUBCHEM_ISOTOPIC_ATOM_COUNT>
0

> <PUBCHEM_COMPONENT_COUNT>
1

> <PUBCHEM_CACTVS_TAUTO_COUNT>
6

> <PUBCHEM_COORDINATE_TYPE>
1
5
255

> <PUBCHEM_BONDANNOTATIONS>
11  22  3
12  39  3
13  40  3
14  41  3
15  25  3
18  46  3
19  26  3
33  34  8
33  35  8
34  36  8
35  37  8
36  38  8
37  38  8

$$$$

