11954098
  -OEChem-07051213062D

 55 58  0     1  0  0  0  0  0999 V2000
    8.5065    2.2787    0.0000 O   0  0  0  0  0  0  0  0  0  0  0  0
    2.5405   -0.6816    0.0000 O   0  0  0  0  0  0  0  0  0  0  0  0
    2.5244   -2.7732    0.0000 O   0  0  0  0  0  0  0  0  0  0  0  0
   10.4635    2.6912    0.0000 O   0  0  0  0  0  0  0  0  0  0  0  0
    7.9174   -0.7208    0.0000 C   0  0  2  0  0  0  0  0  0  0  0  0
    7.9174    0.2792    0.0000 C   0  0  1  0  0  0  0  0  0  0  0  0
    7.0514   -1.2208    0.0000 C   0  0  1  0  0  0  0  0  0  0  0  0
    6.1854   -0.7208    0.0000 C   0  0  1  0  0  0  0  0  0  0  0  0
    5.2754   -1.2277    0.0000 C   0  0  2  0  0  0  0  0  0  0  0  0
    8.8637    0.5839    0.0000 C   0  0  2  0  0  0  0  0  0  0  0  0
    7.0514    0.7792    0.0000 C   0  0  0  0  0  0  0  0  0  0  0  0
    6.1854    0.2792    0.0000 C   0  0  0  0  0  0  0  0  0  0  0  0
    8.8637   -1.0256    0.0000 C   0  0  0  0  0  0  0  0  0  0  0  0
    7.0675   -2.2624    0.0000 C   0  0  0  0  0  0  0  0  0  0  0  0
    9.4473   -0.2208    0.0000 C   0  0  0  0  0  0  0  0  0  0  0  0
    5.2674   -2.2693    0.0000 C   0  0  0  0  0  0  0  0  0  0  0  0
    7.9174    1.2792    0.0000 C   0  0  0  0  0  0  0  0  0  0  0  0
    6.1694   -2.7901    0.0000 C   0  0  0  0  0  0  0  0  0  0  0  0
    4.3486   -0.6636    0.0000 C   0  0  0  0  0  0  0  0  0  0  0  0
    5.2831   -0.2277    0.0000 C   0  0  0  0  0  0  0  0  0  0  0  0
    9.1743    1.5344    0.0000 C   0  0  0  0  0  0  0  0  0  0  0  0
    3.4007   -1.1916    0.0000 C   0  0  1  0  0  0  0  0  0  0  0  0
    4.3319   -2.8190    0.0000 C   0  0  0  0  0  0  0  0  0  0  0  0
    3.3923   -2.2765    0.0000 C   0  0  0  0  0  0  0  0  0  0  0  0
   10.1528    1.7406    0.0000 C   0  0  0  0  0  0  0  0  0  0  0  0
    8.0074   -1.5661    0.0000 H   0  0  0  0  0  0  0  0  0  0  0  0
    7.7908   -1.6402    0.0000 H   0  0  0  0  0  0  0  0  0  0  0  0
    6.9215   -0.2958    0.0000 H   0  0  0  0  0  0  0  0  0  0  0  0
    8.4262    1.0232    0.0000 H   0  0  0  0  0  0  0  0  0  0  0  0
    7.4500    1.2541    0.0000 H   0  0  0  0  0  0  0  0  0  0  0  0
    6.6529    1.2541    0.0000 H   0  0  0  0  0  0  0  0  0  0  0  0
    5.9733    0.8618    0.0000 H   0  0  0  0  0  0  0  0  0  0  0  0
    5.5748    0.1715    0.0000 H   0  0  0  0  0  0  0  0  0  0  0  0
    8.6126   -1.5925    0.0000 H   0  0  0  0  0  0  0  0  0  0  0  0
    9.4010   -1.3348    0.0000 H   0  0  0  0  0  0  0  0  0  0  0  0
    7.2855   -2.8427    0.0000 H   0  0  0  0  0  0  0  0  0  0  0  0
    7.6766   -2.1468    0.0000 H   0  0  0  0  0  0  0  0  0  0  0  0
    9.9081   -0.6356    0.0000 H   0  0  0  0  0  0  0  0  0  0  0  0
    9.9081    0.1939    0.0000 H   0  0  0  0  0  0  0  0  0  0  0  0
    8.5374    1.2792    0.0000 H   0  0  0  0  0  0  0  0  0  0  0  0
    7.9174    1.8992    0.0000 H   0  0  0  0  0  0  0  0  0  0  0  0
    7.2974    1.2792    0.0000 H   0  0  0  0  0  0  0  0  0  0  0  0
    5.7721   -3.2661    0.0000 H   0  0  0  0  0  0  0  0  0  0  0  0
    6.5704   -3.2630    0.0000 H   0  0  0  0  0  0  0  0  0  0  0  0
    4.7568   -0.1969    0.0000 H   0  0  0  0  0  0  0  0  0  0  0  0
    3.9586   -0.1816    0.0000 H   0  0  0  0  0  0  0  0  0  0  0  0
    5.9031   -0.2325    0.0000 H   0  0  0  0  0  0  0  0  0  0  0  0
    5.2879    0.3923    0.0000 H   0  0  0  0  0  0  0  0  0  0  0  0
    4.6631   -0.2229    0.0000 H   0  0  0  0  0  0  0  0  0  0  0  0
    3.4090   -0.5716    0.0000 H   0  0  0  0  0  0  0  0  0  0  0  0
    4.3343   -3.4390    0.0000 H   0  0  0  0  0  0  0  0  0  0  0  0
   10.1734    1.1210    0.0000 H   0  0  0  0  0  0  0  0  0  0  0  0
   10.7666    1.6533    0.0000 H   0  0  0  0  0  0  0  0  0  0  0  0
    2.0000   -0.9853    0.0000 H   0  0  0  0  0  0  0  0  0  0  0  0
   11.0702    2.8190    0.0000 H   0  0  0  0  0  0  0  0  0  0  0  0
  1 21  2  0  0  0  0
 22  2  1  1  0  0  0
  2 54  1  0  0  0  0
  3 24  2  0  0  0  0
  4 25  1  0  0  0  0
  4 55  1  0  0  0  0
  5  6  1  0  0  0  0
  5  7  1  0  0  0  0
  5 13  1  0  0  0  0
  5 26  1  6  0  0  0
  6 10  1  0  0  0  0
  6 11  1  0  0  0  0
  6 17  1  1  0  0  0
  7  8  1  0  0  0  0
  7 14  1  0  0  0  0
  7 27  1  1  0  0  0
  8  9  1  0  0  0  0
  8 12  1  0  0  0  0
  8 28  1  6  0  0  0
  9 16  1  0  0  0  0
  9 19  1  0  0  0  0
  9 20  1  1  0  0  0
 10 15  1  0  0  0  0
 10 21  1  1  0  0  0
 10 29  1  0  0  0  0
 11 12  1  0  0  0  0
 11 30  1  0  0  0  0
 11 31  1  0  0  0  0
 12 32  1  0  0  0  0
 12 33  1  0  0  0  0
 13 15  1  0  0  0  0
 13 34  1  0  0  0  0
 13 35  1  0  0  0  0
 14 18  1  0  0  0  0
 14 36  1  0  0  0  0
 14 37  1  0  0  0  0
 15 38  1  0  0  0  0
 15 39  1  0  0  0  0
 16 18  1  0  0  0  0
 16 23  2  0  0  0  0
 17 40  1  0  0  0  0
 17 41  1  0  0  0  0
 17 42  1  0  0  0  0
 18 43  1  0  0  0  0
 18 44  1  0  0  0  0
 19 22  1  0  0  0  0
 19 45  1  0  0  0  0
 19 46  1  0  0  0  0
 20 47  1  0  0  0  0
 20 48  1  0  0  0  0
 20 49  1  0  0  0  0
 21 25  1  0  0  0  0
 22 24  1  0  0  0  0
 22 50  1  0  0  0  0
 23 24  1  0  0  0  0
 23 51  1  0  0  0  0
 25 52  1  0  0  0  0
 25 53  1  0  0  0  0
M  END
> <PUBCHEM_COMPOUND_CID>
11954098

> <PUBCHEM_COMPOUND_CANONICALIZED>
1

> <PUBCHEM_CACTVS_COMPLEXITY>
638

> <PUBCHEM_CACTVS_HBOND_ACCEPTOR>
4

> <PUBCHEM_CACTVS_HBOND_DONOR>
2

> <PUBCHEM_CACTVS_ROTATABLE_BOND>
2

> <PUBCHEM_CACTVS_SUBSKEYS>
AAADceB4OAAAAAAAAAAAAAAAAAAAAYAAAAAwYIAAAAAAAGDAAAAAGgAACAAADxSggAICAAAAAgCIAqBSAAIAAAAgAAAACAFAAEgAEBIAAQAAQAAEwAAIAQOIyPCPgAAAAAAAAACAAAQAACAAAQAACAAAAA==

> <PUBCHEM_IUPAC_OPENEYE_NAME>
(2S,8S,9S,10R,13S,14S,17S)-2-hydroxy-17-(2-hydroxyacetyl)-10,13-dimethyl-1,2,6,7,8,9,11,12,14,15,16,17-dodecahydrocyclopenta[a]phenanthren-3-one

> <PUBCHEM_IUPAC_CAS_NAME>
(2S,8S,9S,10R,13S,14S,17S)-2-hydroxy-17-(2-hydroxy-1-oxoethyl)-10,13-dimethyl-1,2,6,7,8,9,11,12,14,15,16,17-dodecahydrocyclopenta[a]phenanthren-3-one

> <PUBCHEM_IUPAC_NAME>
(2S,8S,9S,10R,13S,14S,17S)-2-hydroxy-17-(2-hydroxyacetyl)-10,13-dimethyl-1,2,6,7,8,9,11,12,14,15,16,17-dodecahydrocyclopenta[a]phenanthren-3-one

> <PUBCHEM_IUPAC_SYSTEMATIC_NAME>
(2S,8S,9S,10R,13S,14S,17S)-10,13-dimethyl-2-oxidanyl-17-(2-oxidanylethanoyl)-1,2,6,7,8,9,11,12,14,15,16,17-dodecahydrocyclopenta[a]phenanthren-3-one

> <PUBCHEM_IUPAC_TRADITIONAL_NAME>
(2S,8S,9S,10R,13S,14S,17S)-17-glycoloyl-2-hydroxy-10,13-dimethyl-1,2,6,7,8,9,11,12,14,15,16,17-dodecahydrocyclopenta[a]phenanthren-3-one

> <PUBCHEM_IUPAC_INCHI>
InChI=1S/C21H30O4/c1-20-8-7-15-13(14(20)5-6-16(20)19(25)11-22)4-3-12-9-17(23)18(24)10-21(12,15)2/h9,13-16,18,22,24H,3-8,10-11H2,1-2H3/t13-,14-,15-,16+,18-,20-,21-/m0/s1

> <PUBCHEM_IUPAC_INCHIKEY>
KYRHFGKXGJXOGD-FOXYBHETSA-N

> <PUBCHEM_XLOGP3>
2.3

> <PUBCHEM_EXACT_MASS>
346.214409

> <PUBCHEM_MOLECULAR_FORMULA>
C21H30O4

> <PUBCHEM_MOLECULAR_WEIGHT>
346.4605

> <PUBCHEM_OPENEYE_CAN_SMILES>
CC12CCC3C(C1CCC2C(=O)CO)CCC4=CC(=O)C(CC34C)O

> <PUBCHEM_OPENEYE_ISO_SMILES>
C[C@]12CC[C@H]3[C@H]([C@@H]1CC[C@@H]2C(=O)CO)CCC4=CC(=O)[C@H](C[C@]34C)O

> <PUBCHEM_CACTVS_TPSA>
74.6

> <PUBCHEM_MONOISOTOPIC_WEIGHT>
346.214409

> <PUBCHEM_TOTAL_CHARGE>
0

> <PUBCHEM_HEAVY_ATOM_COUNT>
25

> <PUBCHEM_ATOM_DEF_STEREO_COUNT>
7

> <PUBCHEM_ATOM_UDEF_STEREO_COUNT>
0

> <PUBCHEM_BOND_DEF_STEREO_COUNT>
0

> <PUBCHEM_BOND_UDEF_STEREO_COUNT>
0

> <PUBCHEM_ISOTOPIC_ATOM_COUNT>
0

> <PUBCHEM_COMPONENT_COUNT>
1

> <PUBCHEM_CACTVS_TAUTO_COUNT>
52

> <PUBCHEM_COORDINATE_TYPE>
1
5
255

> <PUBCHEM_BONDANNOTATIONS>
10  21  5
22  2  5
5  26  6
6  17  5
7  27  5
8  28  6
9  20  5

$$$$

