10373
  -OEChem-07051213042D

 39 40  0     1  0  0  0  0  0999 V2000
    3.8660    0.0600    0.0000 O   0  0  0  0  0  0  0  0  0  0  0  0
    5.5981    0.0600    0.0000 O   0  0  0  0  0  0  0  0  0  0  0  0
    3.8660   -2.9400    0.0000 N   0  0  0  0  0  0  0  0  0  0  0  0
    3.0000   -2.4400    0.0000 C   0  0  0  0  0  0  0  0  0  0  0  0
    3.0000   -1.4400    0.0000 C   0  0  0  0  0  0  0  0  0  0  0  0
    3.8660   -0.9400    0.0000 C   0  0  3  0  0  0  0  0  0  0  0  0
    4.7320   -2.4400    0.0000 C   0  0  3  0  0  0  0  0  0  0  0  0
    4.7320   -1.4400    0.0000 C   0  0  0  0  0  0  0  0  0  0  0  0
    2.0000   -2.4400    0.0000 C   0  0  0  0  0  0  0  0  0  0  0  0
    2.5000   -3.3060    0.0000 C   0  0  0  0  0  0  0  0  0  0  0  0
    5.5981   -2.9400    0.0000 C   0  0  0  0  0  0  0  0  0  0  0  0
    4.7320    0.5600    0.0000 C   0  0  0  0  0  0  0  0  0  0  0  0
    4.7320    1.5600    0.0000 C   0  0  0  0  0  0  0  0  0  0  0  0
    5.5981    2.0600    0.0000 C   0  0  0  0  0  0  0  0  0  0  0  0
    3.8660    2.0600    0.0000 C   0  0  0  0  0  0  0  0  0  0  0  0
    5.5981    3.0600    0.0000 C   0  0  0  0  0  0  0  0  0  0  0  0
    3.8660    3.0600    0.0000 C   0  0  0  0  0  0  0  0  0  0  0  0
    4.7320    3.5600    0.0000 C   0  0  0  0  0  0  0  0  0  0  0  0
    2.7880   -0.8574    0.0000 H   0  0  0  0  0  0  0  0  0  0  0  0
    2.3894   -1.5477    0.0000 H   0  0  0  0  0  0  0  0  0  0  0  0
    4.6022   -0.5150    0.0000 H   0  0  0  0  0  0  0  0  0  0  0  0
    4.7320   -3.2900    0.0000 H   0  0  0  0  0  0  0  0  0  0  0  0
    5.3426   -1.5477    0.0000 H   0  0  0  0  0  0  0  0  0  0  0  0
    4.9441   -0.8574    0.0000 H   0  0  0  0  0  0  0  0  0  0  0  0
    3.8660   -3.5600    0.0000 H   0  0  0  0  0  0  0  0  0  0  0  0
    2.0000   -1.8200    0.0000 H   0  0  0  0  0  0  0  0  0  0  0  0
    1.3800   -2.4400    0.0000 H   0  0  0  0  0  0  0  0  0  0  0  0
    2.0000   -3.0600    0.0000 H   0  0  0  0  0  0  0  0  0  0  0  0
    1.9631   -2.9960    0.0000 H   0  0  0  0  0  0  0  0  0  0  0  0
    2.1900   -3.8430    0.0000 H   0  0  0  0  0  0  0  0  0  0  0  0
    3.0369   -3.6160    0.0000 H   0  0  0  0  0  0  0  0  0  0  0  0
    5.2881   -3.4769    0.0000 H   0  0  0  0  0  0  0  0  0  0  0  0
    6.1350   -3.2500    0.0000 H   0  0  0  0  0  0  0  0  0  0  0  0
    5.9081   -2.4031    0.0000 H   0  0  0  0  0  0  0  0  0  0  0  0
    6.1350    1.7500    0.0000 H   0  0  0  0  0  0  0  0  0  0  0  0
    3.3291    1.7500    0.0000 H   0  0  0  0  0  0  0  0  0  0  0  0
    6.1350    3.3700    0.0000 H   0  0  0  0  0  0  0  0  0  0  0  0
    3.3291    3.3700    0.0000 H   0  0  0  0  0  0  0  0  0  0  0  0
    4.7320    4.1800    0.0000 H   0  0  0  0  0  0  0  0  0  0  0  0
  1  6  1  0  0  0  0
  1 12  1  0  0  0  0
  2 12  2  0  0  0  0
  3  4  1  0  0  0  0
  3  7  1  0  0  0  0
  3 25  1  0  0  0  0
  4  5  1  0  0  0  0
  4  9  1  0  0  0  0
  4 10  1  0  0  0  0
  5  6  1  0  0  0  0
  5 19  1  0  0  0  0
  5 20  1  0  0  0  0
  6  8  1  0  0  0  0
  6 21  1  0  0  0  0
  7  8  1  0  0  0  0
  7 11  1  0  0  0  0
  7 22  1  0  0  0  0
  8 23  1  0  0  0  0
  8 24  1  0  0  0  0
  9 26  1  0  0  0  0
  9 27  1  0  0  0  0
  9 28  1  0  0  0  0
 10 29  1  0  0  0  0
 10 30  1  0  0  0  0
 10 31  1  0  0  0  0
 11 32  1  0  0  0  0
 11 33  1  0  0  0  0
 11 34  1  0  0  0  0
 12 13  1  0  0  0  0
 13 14  2  0  0  0  0
 13 15  1  0  0  0  0
 14 16  1  0  0  0  0
 14 35  1  0  0  0  0
 15 17  2  0  0  0  0
 15 36  1  0  0  0  0
 16 18  2  0  0  0  0
 16 37  1  0  0  0  0
 17 18  1  0  0  0  0
 17 38  1  0  0  0  0
 18 39  1  0  0  0  0
M  END
> <PUBCHEM_COMPOUND_CID>
10373

> <PUBCHEM_COMPOUND_CANONICALIZED>
1

> <PUBCHEM_CACTVS_COMPLEXITY>
295

> <PUBCHEM_CACTVS_HBOND_ACCEPTOR>
3

> <PUBCHEM_CACTVS_HBOND_DONOR>
1

> <PUBCHEM_CACTVS_ROTATABLE_BOND>
3

> <PUBCHEM_CACTVS_SUBSKEYS>
AAADceByMAAAAAAAAAAAAAAAAAAAAAAAAAA8QAAAAAAAAAABAAAAHgAQAAAADLzhmAYyCILABACIAiDSCAACAAAkAAAIiIEICMgIJjKAtRiGMQAm0AGIqYeYyGCOAAAAAAAAAAAAAAAAAAAAAAAAAAAAAA==

> <PUBCHEM_IUPAC_OPENEYE_NAME>
(2,2,6-trimethyl-4-piperidyl) benzoate

> <PUBCHEM_IUPAC_CAS_NAME>
benzoic acid (2,2,6-trimethyl-4-piperidinyl) ester

> <PUBCHEM_IUPAC_NAME>
(2,2,6-trimethylpiperidin-4-yl) benzoate

> <PUBCHEM_IUPAC_SYSTEMATIC_NAME>
(2,2,6-trimethylpiperidin-4-yl) benzoate

> <PUBCHEM_IUPAC_TRADITIONAL_NAME>
benzoic acid (2,2,6-trimethyl-4-piperidyl) ester

> <PUBCHEM_IUPAC_INCHI>
InChI=1S/C15H21NO2/c1-11-9-13(10-15(2,3)16-11)18-14(17)12-7-5-4-6-8-12/h4-8,11,13,16H,9-10H2,1-3H3

> <PUBCHEM_IUPAC_INCHIKEY>
ZYHGIAPHLSTGMX-UHFFFAOYSA-N

> <PUBCHEM_XLOGP3_AA>
2.9

> <PUBCHEM_EXACT_MASS>
247.157229

> <PUBCHEM_MOLECULAR_FORMULA>
C15H21NO2

> <PUBCHEM_MOLECULAR_WEIGHT>
247.33274

> <PUBCHEM_OPENEYE_CAN_SMILES>
CC1CC(CC(N1)(C)C)OC(=O)C2=CC=CC=C2

> <PUBCHEM_OPENEYE_ISO_SMILES>
CC1CC(CC(N1)(C)C)OC(=O)C2=CC=CC=C2

> <PUBCHEM_CACTVS_TPSA>
38.3

> <PUBCHEM_MONOISOTOPIC_WEIGHT>
247.157229

> <PUBCHEM_TOTAL_CHARGE>
0

> <PUBCHEM_HEAVY_ATOM_COUNT>
18

> <PUBCHEM_ATOM_DEF_STEREO_COUNT>
0

> <PUBCHEM_ATOM_UDEF_STEREO_COUNT>
2

> <PUBCHEM_BOND_DEF_STEREO_COUNT>
0

> <PUBCHEM_BOND_UDEF_STEREO_COUNT>
0

> <PUBCHEM_ISOTOPIC_ATOM_COUNT>
0

> <PUBCHEM_COMPONENT_COUNT>
1

> <PUBCHEM_CACTVS_TAUTO_COUNT>
1

> <PUBCHEM_COORDINATE_TYPE>
1
5
255

> <PUBCHEM_BONDANNOTATIONS>
13  14  8
13  15  8
14  16  8
15  17  8
16  18  8
17  18  8
6  21  3
7  22  3

$$$$

