443695
  -OEChem-07051213022D

 42 46  0     1  0  0  0  0  0999 V2000
    6.3737   -2.5538    0.0000 O   0  0  0  0  0  0  0  0  0  0  0  0
    2.8680   -0.4944    0.0000 O   0  0  0  0  0  0  0  0  0  0  0  0
    2.8680    1.5539    0.0000 O   0  0  0  0  0  0  0  0  0  0  0  0
    7.2641    1.0297    0.0000 N   0  0  3  0  0  0  0  0  0  0  0  0
    6.3981   -0.4703    0.0000 C   0  0  1  0  0  0  0  0  0  0  0  0
    6.3820   -1.5118    0.0000 C   0  0  2  0  0  0  0  0  0  0  0  0
    7.2641    0.0297    0.0000 C   0  0  3  0  0  0  0  0  0  0  0  0
    7.2800   -2.0396    0.0000 C   0  0  2  0  0  0  0  0  0  0  0  0
    6.2847    0.1333    0.0000 C   0  0  0  0  0  0  0  0  0  0  0  0
    8.1741   -0.4771    0.0000 C   0  0  0  0  0  0  0  0  0  0  0  0
    8.1821   -1.5187    0.0000 C   0  0  0  0  0  0  0  0  0  0  0  0
    5.5320    0.0297    0.0000 C   0  0  0  0  0  0  0  0  0  0  0  0
    6.6847    0.8261    0.0000 C   0  0  0  0  0  0  0  0  0  0  0  0
    6.3981    1.5297    0.0000 C   0  0  0  0  0  0  0  0  0  0  0  0
    5.5320    1.0297    0.0000 C   0  0  0  0  0  0  0  0  0  0  0  0
    4.6381   -0.5049    0.0000 C   0  0  0  0  0  0  0  0  0  0  0  0
    4.6381    1.5644    0.0000 C   0  0  0  0  0  0  0  0  0  0  0  0
    3.7320    0.0089    0.0000 C   0  0  0  0  0  0  0  0  0  0  0  0
    3.7320    1.0505    0.0000 C   0  0  0  0  0  0  0  0  0  0  0  0
    2.0000    0.0022    0.0000 C   0  0  0  0  0  0  0  0  0  0  0  0
    2.8718    2.5538    0.0000 C   0  0  0  0  0  0  0  0  0  0  0  0
    5.7621   -1.5046    0.0000 H   0  0  0  0  0  0  0  0  0  0  0  0
    7.7986    0.3438    0.0000 H   0  0  0  0  0  0  0  0  0  0  0  0
    7.5880   -2.5776    0.0000 H   0  0  0  0  0  0  0  0  0  0  0  0
    5.8575    0.5827    0.0000 H   0  0  0  0  0  0  0  0  0  0  0  0
    5.7327   -0.1491    0.0000 H   0  0  0  0  0  0  0  0  0  0  0  0
    8.7858   -0.5785    0.0000 H   0  0  0  0  0  0  0  0  0  0  0  0
    8.3786    0.1082    0.0000 H   0  0  0  0  0  0  0  0  0  0  0  0
    8.3957   -2.1008    0.0000 H   0  0  0  0  0  0  0  0  0  0  0  0
    8.7922   -1.4079    0.0000 H   0  0  0  0  0  0  0  0  0  0  0  0
    6.6532    1.4453    0.0000 H   0  0  0  0  0  0  0  0  0  0  0  0
    6.0819    0.9714    0.0000 H   0  0  0  0  0  0  0  0  0  0  0  0
    6.7966    2.0047    0.0000 H   0  0  0  0  0  0  0  0  0  0  0  0
    5.9995    2.0047    0.0000 H   0  0  0  0  0  0  0  0  0  0  0  0
    4.6453   -1.1249    0.0000 H   0  0  0  0  0  0  0  0  0  0  0  0
    4.6453    2.1843    0.0000 H   0  0  0  0  0  0  0  0  0  0  0  0
    2.3079    0.5403    0.0000 H   0  0  0  0  0  0  0  0  0  0  0  0
    1.4619    0.3101    0.0000 H   0  0  0  0  0  0  0  0  0  0  0  0
    1.6921   -0.5359    0.0000 H   0  0  0  0  0  0  0  0  0  0  0  0
    3.4918    2.5515    0.0000 H   0  0  0  0  0  0  0  0  0  0  0  0
    2.8742    3.1738    0.0000 H   0  0  0  0  0  0  0  0  0  0  0  0
    2.2518    2.5562    0.0000 H   0  0  0  0  0  0  0  0  0  0  0  0
  6  1  1  6  0  0  0
  8  1  1  6  0  0  0
  2 18  1  0  0  0  0
  2 20  1  0  0  0  0
  3 19  1  0  0  0  0
  3 21  1  0  0  0  0
  4  7  1  0  0  0  0
  4 13  1  0  0  0  0
  4 14  1  0  0  0  0
  5  6  1  0  0  0  0
  5  7  1  0  0  0  0
  5  9  1  6  0  0  0
  5 12  1  0  0  0  0
  6  8  1  0  0  0  0
  6 22  1  0  0  0  0
  7 10  1  0  0  0  0
  7 23  1  0  0  0  0
  8 11  1  0  0  0  0
  8 24  1  0  0  0  0
  9 13  1  0  0  0  0
  9 25  1  0  0  0  0
  9 26  1  0  0  0  0
 10 11  1  0  0  0  0
 10 27  1  0  0  0  0
 10 28  1  0  0  0  0
 11 29  1  0  0  0  0
 11 30  1  0  0  0  0
 12 15  1  0  0  0  0
 12 16  2  0  0  0  0
 13 31  1  0  0  0  0
 13 32  1  0  0  0  0
 14 15  1  0  0  0  0
 14 33  1  0  0  0  0
 14 34  1  0  0  0  0
 15 17  2  0  0  0  0
 16 18  1  0  0  0  0
 16 35  1  0  0  0  0
 17 19  1  0  0  0  0
 17 36  1  0  0  0  0
 18 19  2  0  0  0  0
 20 37  1  0  0  0  0
 20 38  1  0  0  0  0
 20 39  1  0  0  0  0
 21 40  1  0  0  0  0
 21 41  1  0  0  0  0
 21 42  1  0  0  0  0
M  END
> <PUBCHEM_COMPOUND_CID>
443695

> <PUBCHEM_COMPOUND_CANONICALIZED>
1

> <PUBCHEM_CACTVS_COMPLEXITY>
444

> <PUBCHEM_CACTVS_HBOND_ACCEPTOR>
4

> <PUBCHEM_CACTVS_HBOND_DONOR>
0

> <PUBCHEM_CACTVS_ROTATABLE_BOND>
2

> <PUBCHEM_CACTVS_SUBSKEYS>
AAADceB6MAAAAAAAAAAAAAAAEgAAAWAAAAA8YIAABYkAAFixAAAAHgAAAAAADjzhmAYyBoMABACAAiBCAACCCAAgIAAAiAAOjIgNJiKEsRuGMCpmwBGKqAew8P8PoAABAAAQQABAgAIEADSAAAAAAAAAAA==

> <PUBCHEM_IUPAC_INCHI>
InChI=1S/C17H21NO3/c1-19-13-7-10-9-18-6-5-17(11(10)8-14(13)20-2)15(18)4-3-12-16(17)21-12/h7-8,12,15-16H,3-6,9H2,1-2H3/t12-,15?,16-,17-/m0/s1

> <PUBCHEM_IUPAC_INCHIKEY>
RAWVDDAJSCCYHU-CSJRWYNFSA-N

> <PUBCHEM_XLOGP3_AA>
2

> <PUBCHEM_EXACT_MASS>
287.152144

> <PUBCHEM_MOLECULAR_FORMULA>
C17H21NO3

> <PUBCHEM_MOLECULAR_WEIGHT>
287.35354

> <PUBCHEM_OPENEYE_CAN_SMILES>
COC1=C(C=C2C(=C1)CN3CCC24C3CCC5C4O5)OC

> <PUBCHEM_OPENEYE_ISO_SMILES>
COC1=C(C=C2C(=C1)CN3CC[C@@]24C3CC[C@H]5[C@@H]4O5)OC

> <PUBCHEM_CACTVS_TPSA>
34.2

> <PUBCHEM_MONOISOTOPIC_WEIGHT>
287.152144

> <PUBCHEM_TOTAL_CHARGE>
0

> <PUBCHEM_HEAVY_ATOM_COUNT>
21

> <PUBCHEM_ATOM_DEF_STEREO_COUNT>
3

> <PUBCHEM_ATOM_UDEF_STEREO_COUNT>
1

> <PUBCHEM_BOND_DEF_STEREO_COUNT>
0

> <PUBCHEM_BOND_UDEF_STEREO_COUNT>
0

> <PUBCHEM_ISOTOPIC_ATOM_COUNT>
0

> <PUBCHEM_COMPONENT_COUNT>
1

> <PUBCHEM_CACTVS_TAUTO_COUNT>
1

> <PUBCHEM_COORDINATE_TYPE>
1
5
255

> <PUBCHEM_BONDANNOTATIONS>
6  1  6
8  1  6
12  15  8
12  16  8
15  17  8
16  18  8
17  19  8
18  19  8
5  9  6
7  10  3

$$$$

