11954169
  -OEChem-07051213072D

 32 32  0     1  0  0  0  0  0999 V2000
    6.1350    3.6200    0.0000 Cl  0  0  0  0  0  0  0  0  0  0  0  0
    0.0000    3.6200    0.0000 Cl  0  0  0  0  0  0  0  0  0  0  0  0
    3.5369    4.1200    0.0000 N   0  0  0  0  0  0  0  0  0  0  0  0
    4.4030    3.6200    0.0000 C   0  0  3  0  0  0  0  0  0  0  0  0
    5.2690    4.1200    0.0000 C   0  0  3  0  0  0  0  0  0  0  0  0
    4.4030    2.6200    0.0000 C   0  0  0  0  0  0  0  0  0  0  0  0
    5.2690    5.1200    0.0000 C   0  0  0  0  0  0  0  0  0  0  0  0
    3.5369    2.1200    0.0000 C   0  0  0  0  0  0  0  0  0  0  0  0
    5.2690    2.1200    0.0000 C   0  0  0  0  0  0  0  0  0  0  0  0
    6.1350    5.6200    0.0000 C   0  0  0  0  0  0  0  0  0  0  0  0
    4.4030    5.6200    0.0000 C   0  0  0  0  0  0  0  0  0  0  0  0
    3.5369    1.1200    0.0000 C   0  0  0  0  0  0  0  0  0  0  0  0
    5.2690    1.1200    0.0000 C   0  0  0  0  0  0  0  0  0  0  0  0
    6.1350    6.6200    0.0000 C   0  0  0  0  0  0  0  0  0  0  0  0
    4.4030    6.6200    0.0000 C   0  0  0  0  0  0  0  0  0  0  0  0
    4.4030    0.6200    0.0000 C   0  0  0  0  0  0  0  0  0  0  0  0
    5.2690    7.1200    0.0000 C   0  0  0  0  0  0  0  0  0  0  0  0
    4.4030    4.4700    0.0000 H   0  0  0  0  0  0  0  0  0  0  0  0
    5.2690    3.2700    0.0000 H   0  0  0  0  0  0  0  0  0  0  0  0
    3.0000    3.8100    0.0000 H   0  0  0  0  0  0  0  0  0  0  0  0
    3.5369    4.7400    0.0000 H   0  0  0  0  0  0  0  0  0  0  0  0
    3.0000    2.4300    0.0000 H   0  0  0  0  0  0  0  0  0  0  0  0
    5.8059    2.4300    0.0000 H   0  0  0  0  0  0  0  0  0  0  0  0
    6.6720    5.3100    0.0000 H   0  0  0  0  0  0  0  0  0  0  0  0
    3.8660    5.3100    0.0000 H   0  0  0  0  0  0  0  0  0  0  0  0
    3.0000    0.8100    0.0000 H   0  0  0  0  0  0  0  0  0  0  0  0
    5.8059    0.8100    0.0000 H   0  0  0  0  0  0  0  0  0  0  0  0
    6.6720    6.9300    0.0000 H   0  0  0  0  0  0  0  0  0  0  0  0
    3.8660    6.9300    0.0000 H   0  0  0  0  0  0  0  0  0  0  0  0
    4.4030    0.0000    0.0000 H   0  0  0  0  0  0  0  0  0  0  0  0
    5.2690    7.7400    0.0000 H   0  0  0  0  0  0  0  0  0  0  0  0
    1.0000    3.6200    0.0000 H   0  0  0  0  0  0  0  0  0  0  0  0
  1  5  1  0  0  0  0
  2 32  1  0  0  0  0
  3  4  1  0  0  0  0
  3 20  1  0  0  0  0
  3 21  1  0  0  0  0
  4  5  1  0  0  0  0
  4  6  1  0  0  0  0
  4 18  1  0  0  0  0
  5  7  1  0  0  0  0
  5 19  1  0  0  0  0
  6  8  2  0  0  0  0
  6  9  1  0  0  0  0
  7 10  2  0  0  0  0
  7 11  1  0  0  0  0
  8 12  1  0  0  0  0
  8 22  1  0  0  0  0
  9 13  2  0  0  0  0
  9 23  1  0  0  0  0
 10 14  1  0  0  0  0
 10 24  1  0  0  0  0
 11 15  2  0  0  0  0
 11 25  1  0  0  0  0
 12 16  2  0  0  0  0
 12 26  1  0  0  0  0
 13 16  1  0  0  0  0
 13 27  1  0  0  0  0
 14 17  2  0  0  0  0
 14 28  1  0  0  0  0
 15 17  1  0  0  0  0
 15 29  1  0  0  0  0
 16 30  1  0  0  0  0
 17 31  1  0  0  0  0
M  END
> <PUBCHEM_COMPOUND_CID>
11954169

> <PUBCHEM_COMPOUND_CANONICALIZED>
1

> <PUBCHEM_CACTVS_COMPLEXITY>
195

> <PUBCHEM_CACTVS_HBOND_ACCEPTOR>
1

> <PUBCHEM_CACTVS_HBOND_DONOR>
2

> <PUBCHEM_CACTVS_ROTATABLE_BOND>
3

> <PUBCHEM_CACTVS_SUBSKEYS>
AAADccByAAAGAAAAAAAAAAAAAAAAAAAAAAAwYAAAAAAAAAABQAAAHAIQAAAADCvBGEQwAIBAAACAAiBCAACCAAAgAAAIiIAABogIICKBkRGAIABgkAAIiAcQgMAOAAAAAAAAAAAAAAAAAAAAAAAAAAAAAA==

> <PUBCHEM_IUPAC_OPENEYE_NAME>
2-chloro-1,2-diphenyl-ethanamine hydrochloride

> <PUBCHEM_IUPAC_CAS_NAME>
2-chloro-1,2-diphenylethanamine hydrochloride

> <PUBCHEM_IUPAC_NAME>
2-chloro-1,2-diphenylethanamine hydrochloride

> <PUBCHEM_IUPAC_SYSTEMATIC_NAME>
2-chloranyl-1,2-diphenyl-ethanamine hydrochloride

> <PUBCHEM_IUPAC_TRADITIONAL_NAME>
(2-chloro-1,2-diphenyl-ethyl)amine hydrochloride

> <PUBCHEM_IUPAC_INCHI>
InChI=1S/C14H14ClN.ClH/c15-13(11-7-3-1-4-8-11)14(16)12-9-5-2-6-10-12;/h1-10,13-14H,16H2;1H

> <PUBCHEM_IUPAC_INCHIKEY>
GVKJUMBEYUTLLX-UHFFFAOYSA-N

> <PUBCHEM_EXACT_MASS>
267.058155

> <PUBCHEM_MOLECULAR_FORMULA>
C14H15Cl2N

> <PUBCHEM_MOLECULAR_WEIGHT>
268.1816

> <PUBCHEM_OPENEYE_CAN_SMILES>
C1=CC=C(C=C1)C(C(C2=CC=CC=C2)Cl)N.Cl

> <PUBCHEM_OPENEYE_ISO_SMILES>
C1=CC=C(C=C1)C(C(C2=CC=CC=C2)Cl)N.Cl

> <PUBCHEM_CACTVS_TPSA>
26

> <PUBCHEM_MONOISOTOPIC_WEIGHT>
267.058155

> <PUBCHEM_TOTAL_CHARGE>
0

> <PUBCHEM_HEAVY_ATOM_COUNT>
17

> <PUBCHEM_ATOM_DEF_STEREO_COUNT>
0

> <PUBCHEM_ATOM_UDEF_STEREO_COUNT>
2

> <PUBCHEM_BOND_DEF_STEREO_COUNT>
0

> <PUBCHEM_BOND_UDEF_STEREO_COUNT>
0

> <PUBCHEM_ISOTOPIC_ATOM_COUNT>
0

> <PUBCHEM_COMPONENT_COUNT>
2

> <PUBCHEM_CACTVS_TAUTO_COUNT>
1

> <PUBCHEM_COORDINATE_TYPE>
1
5
255

> <PUBCHEM_BONDANNOTATIONS>
10  14  8
11  15  8
12  16  8
13  16  8
14  17  8
15  17  8
4  18  3
5  19  3
6  8  8
6  9  8
7  10  8
7  11  8
8  12  8
9  13  8

$$$$

