54611
  -OEChem-07051213142D

 41 44  0     0  0  0  0  0  0999 V2000
    2.8660    2.7884    0.0000 S   0  0  0  0  0  0  0  0  0  0  0  0
    3.7320    2.2884    0.0000 O   0  0  0  0  0  0  0  0  0  0  0  0
    2.0000    3.2884    0.0000 O   0  0  0  0  0  0  0  0  0  0  0  0
    3.3660    3.6544    0.0000 O   0  0  0  0  0  0  0  0  0  0  0  0
    2.3660    1.9223    0.0000 O   0  0  0  0  0  0  0  0  0  0  0  0
    5.4641   -0.7116    0.0000 C   0  0  0  0  0  0  0  0  0  0  0  0
    4.5981   -0.2116    0.0000 C   0  0  0  0  0  0  0  0  0  0  0  0
    4.5981    0.7884    0.0000 C   0  0  0  0  0  0  0  0  0  0  0  0
    6.3301   -0.2116    0.0000 C   0  0  0  0  0  0  0  0  0  0  0  0
    5.4641    1.2884    0.0000 C   0  0  0  0  0  0  0  0  0  0  0  0
    6.3301    0.7884    0.0000 C   0  0  0  0  0  0  0  0  0  0  0  0
    5.4802   -1.7532    0.0000 C   0  0  0  0  0  0  0  0  0  0  0  0
    4.5821   -2.2809    0.0000 C   0  0  0  0  0  0  0  0  0  0  0  0
    3.6881   -0.7185    0.0000 C   0  0  0  0  0  0  0  0  0  0  0  0
    3.7320    1.2884    0.0000 C   0  0  0  0  0  0  0  0  0  0  0  0
    3.6800   -1.7601    0.0000 C   0  0  0  0  0  0  0  0  0  0  0  0
    7.1962   -0.7116    0.0000 C   0  0  0  0  0  0  0  0  0  0  0  0
    5.4480    2.3299    0.0000 C   0  0  0  0  0  0  0  0  0  0  0  0
    7.2401    1.2952    0.0000 C   0  0  0  0  0  0  0  0  0  0  0  0
    6.4321   -2.2738    0.0000 C   0  0  0  0  0  0  0  0  0  0  0  0
    4.5738   -3.3659    0.0000 C   0  0  0  0  0  0  0  0  0  0  0  0
    6.3461    2.8576    0.0000 C   0  0  0  0  0  0  0  0  0  0  0  0
    7.2482    2.3368    0.0000 C   0  0  0  0  0  0  0  0  0  0  0  0
    6.4488   -3.3586    0.0000 C   0  0  0  0  0  0  0  0  0  0  0  0
    5.5134   -3.9084    0.0000 C   0  0  0  0  0  0  0  0  0  0  0  0
    3.1548   -0.4023    0.0000 H   0  0  0  0  0  0  0  0  0  0  0  0
    3.1215    1.3960    0.0000 H   0  0  0  0  0  0  0  0  0  0  0  0
    3.5200    0.7058    0.0000 H   0  0  0  0  0  0  0  0  0  0  0  0
    3.1419   -2.0680    0.0000 H   0  0  0  0  0  0  0  0  0  0  0  0
    6.8862   -1.2486    0.0000 H   0  0  0  0  0  0  0  0  0  0  0  0
    7.7331   -1.0216    0.0000 H   0  0  0  0  0  0  0  0  0  0  0  0
    7.5062   -0.1747    0.0000 H   0  0  0  0  0  0  0  0  0  0  0  0
    4.9076    2.6336    0.0000 H   0  0  0  0  0  0  0  0  0  0  0  0
    7.7734    0.9790    0.0000 H   0  0  0  0  0  0  0  0  0  0  0  0
    6.9630   -1.9535    0.0000 H   0  0  0  0  0  0  0  0  0  0  0  0
    4.0356   -3.6738    0.0000 H   0  0  0  0  0  0  0  0  0  0  0  0
    6.3437    3.4776    0.0000 H   0  0  0  0  0  0  0  0  0  0  0  0
    7.7863    2.6447    0.0000 H   0  0  0  0  0  0  0  0  0  0  0  0
    6.9893   -3.6624    0.0000 H   0  0  0  0  0  0  0  0  0  0  0  0
    5.5158   -4.5284    0.0000 H   0  0  0  0  0  0  0  0  0  0  0  0
    2.0000    3.9084    0.0000 H   0  0  0  0  0  0  0  0  0  0  0  0
  1  2  1  0  0  0  0
  1  3  1  0  0  0  0
  1  4  2  0  0  0  0
  1  5  2  0  0  0  0
  2 15  1  0  0  0  0
  3 41  1  0  0  0  0
  6  7  1  0  0  0  0
  6  9  2  0  0  0  0
  6 12  1  0  0  0  0
  7  8  2  0  0  0  0
  7 14  1  0  0  0  0
  8 10  1  0  0  0  0
  8 15  1  0  0  0  0
  9 11  1  0  0  0  0
  9 17  1  0  0  0  0
 10 11  1  0  0  0  0
 10 18  2  0  0  0  0
 11 19  2  0  0  0  0
 12 13  1  0  0  0  0
 12 20  2  0  0  0  0
 13 16  1  0  0  0  0
 13 21  2  0  0  0  0
 14 16  2  0  0  0  0
 14 26  1  0  0  0  0
 15 27  1  0  0  0  0
 15 28  1  0  0  0  0
 16 29  1  0  0  0  0
 17 30  1  0  0  0  0
 17 31  1  0  0  0  0
 17 32  1  0  0  0  0
 18 22  1  0  0  0  0
 18 33  1  0  0  0  0
 19 23  1  0  0  0  0
 19 34  1  0  0  0  0
 20 24  1  0  0  0  0
 20 35  1  0  0  0  0
 21 25  1  0  0  0  0
 21 36  1  0  0  0  0
 22 23  2  0  0  0  0
 22 37  1  0  0  0  0
 23 38  1  0  0  0  0
 24 25  2  0  0  0  0
 24 39  1  0  0  0  0
 25 40  1  0  0  0  0
M  END
> <PUBCHEM_COMPOUND_CID>
54611

> <PUBCHEM_COMPOUND_CANONICALIZED>
1

> <PUBCHEM_CACTVS_COMPLEXITY>
569

> <PUBCHEM_CACTVS_HBOND_ACCEPTOR>
4

> <PUBCHEM_CACTVS_HBOND_DONOR>
1

> <PUBCHEM_CACTVS_ROTATABLE_BOND>
3

> <PUBCHEM_CACTVS_SUBSKEYS>
AAADceB4OABAAAAAAAAAAAAAAAAAAAAAAAAwYMGAAAAAAADBVAAAGgAACAAADACgmAIyAMAAAICAAiBCADACAAAgAAAIiAAACIgIJiKAERCAMAAkwAEIiAeAwPAOwAACAAAQAACAAAQAACAAAAAAAAAAAA==

> <PUBCHEM_IUPAC_OPENEYE_NAME>
(12-methylbenzo[a]anthracen-7-yl)methyl hydrogen sulfate

> <PUBCHEM_IUPAC_CAS_NAME>
sulfuric acid (12-methyl-7-benzo[a]anthracenyl)methyl ester

> <PUBCHEM_IUPAC_NAME>
(12-methylbenzo[a]anthracen-7-yl)methyl hydrogen sulfate

> <PUBCHEM_IUPAC_SYSTEMATIC_NAME>
(12-methylbenzo[a]anthracen-7-yl)methyl hydrogen sulfate

> <PUBCHEM_IUPAC_TRADITIONAL_NAME>
sulfuric acid (12-methylbenz[a]anthracen-7-yl)methyl ester

> <PUBCHEM_IUPAC_INCHI>
InChI=1S/C20H16O4S/c1-13-15-7-4-5-9-17(15)19(12-24-25(21,22)23)18-11-10-14-6-2-3-8-16(14)20(13)18/h2-11H,12H2,1H3,(H,21,22,23)

> <PUBCHEM_IUPAC_INCHIKEY>
WYUDBEMLROEPHR-UHFFFAOYSA-N

> <PUBCHEM_XLOGP3>
4.2

> <PUBCHEM_EXACT_MASS>
352.07693

> <PUBCHEM_MOLECULAR_FORMULA>
C20H16O4S

> <PUBCHEM_MOLECULAR_WEIGHT>
352.40364

> <PUBCHEM_OPENEYE_CAN_SMILES>
CC1=C2C(=C(C3=CC=CC=C13)COS(=O)(=O)O)C=CC4=CC=CC=C42

> <PUBCHEM_OPENEYE_ISO_SMILES>
CC1=C2C(=C(C3=CC=CC=C13)COS(=O)(=O)O)C=CC4=CC=CC=C42

> <PUBCHEM_CACTVS_TPSA>
72

> <PUBCHEM_MONOISOTOPIC_WEIGHT>
352.07693

> <PUBCHEM_TOTAL_CHARGE>
0

> <PUBCHEM_HEAVY_ATOM_COUNT>
25

> <PUBCHEM_ATOM_DEF_STEREO_COUNT>
0

> <PUBCHEM_ATOM_UDEF_STEREO_COUNT>
0

> <PUBCHEM_BOND_DEF_STEREO_COUNT>
0

> <PUBCHEM_BOND_UDEF_STEREO_COUNT>
0

> <PUBCHEM_ISOTOPIC_ATOM_COUNT>
0

> <PUBCHEM_COMPONENT_COUNT>
1

> <PUBCHEM_CACTVS_TAUTO_COUNT>
1

> <PUBCHEM_COORDINATE_TYPE>
1
5
255

> <PUBCHEM_BONDANNOTATIONS>
10  11  8
10  18  8
11  19  8
12  13  8
12  20  8
13  16  8
13  21  8
14  16  8
18  22  8
19  23  8
20  24  8
21  25  8
22  23  8
24  25  8
6  12  8
6  7  8
6  9  8
7  14  8
7  8  8
8  10  8
9  11  8

$$$$

