   Color/Form

     * Crystals from hexane
     * Colorless to pale yellow liquid

   from [1]HSDB

   Odor

     * Mild-spicy, slightly herbal odor
     * Clove, carnation odor

   from [2]HSDB

   Taste
        BITTER, BURNING TASTE
   from [3]HSDB

   Boiling Point
        254.7 deg C
   from [4]HSDB

   Melting Point
        -4 deg C
   from [5]HSDB

   Density/Specific Gravity
        1.032-1.036 at 25 deg C
   from [6]HSDB

   Octanol/Water Partition Coefficient
        log Kow = 3.03 (est)
   from [7]HSDB

   Solubilities

     * Soluble in most organic solvents
     * Soluble in ethanol, ethyl ether
     * Soluble in fixed oils; insoluble in glycerin and propylene glycol
     * In water, 500 mg/L at 25 deg C

   from [8]HSDB

   Spectral Properties

     * MAX ABSORPTION (ALCOHOL): 230 NM (LOG E= 3.8), 280 NM (LOG E= 3.4)
     * Index of refraction = 1.5340 at 20 deg C/D
     * IR: 3729 (Coblentz Society spectral collection)
     * NMR: 4257 (Sadtler Research Laboratories spectral collection)
     * MASS: 107171 (NIST/EPA/MSDC Mass Spectral database, 1990 version)
     * UV: 5557 (Sadtler Research Laboratories spectral collection)

   from [9]HSDB

   Vapor Pressure
        0.012 mm Hg at 25 deg C (extrapolated)
   from [10]HSDB

   Other Chemical/Physical Properties

     * Forms azeotropic mixtures with ethylene glycol (31.5%), eugenol
       (55%), benzoic acid (11%) & others.
     * Henry's Law constant = 5.6X10-6 atm-cu m/mol at 25 deg C (est)
     * Hydroxyl radical reaction rate constant = 7.5X10-11 cu cm/molec-sec
       at 25 deg C (est)

   from [11]HSDB

   Computed Properties
   Molecular Weight                  178.22766 [g/mol]
   Molecular Formula                 C[11]H[14]O[2]
   XLogP3                            2.5
   H-Bond Donor                      0
   H-Bond Acceptor                   2
   Rotatable Bond Count              4
   Exact Mass                        178.09938
   MonoIsotopic Mass                 178.09938
   Topological Polar Surface Area    18.5
   Heavy Atom Count                  13
   Formal Charge                     0
   Complexity                        156
   Isotope Atom Count                0
   Defined Atom Stereocenter Count   0
   Undefined Atom Stereocenter Count 0
   Defined Bond Stereocenter Count   0
   Undefined Bond Stereocenter Count 0
   Covalently-Bonded Unit Count      1
   Feature 3D Acceptor Count         2
   Feature 3D Hydrophobe Count       1
   Feature 3D Ring Count             1
   Effective Rotor Count             4
   Conformer Sampling RMSD           0.6
   CID Conformer Count               [12]22

References

   1. http://toxnet.nlm.nih.gov/cgi-bin/sis/search/r?dbs+hsdb:@term+@rn+@rel+93-15-2
   2. http://toxnet.nlm.nih.gov/cgi-bin/sis/search/r?dbs+hsdb:@term+@rn+@rel+93-15-2
   3. http://toxnet.nlm.nih.gov/cgi-bin/sis/search/r?dbs+hsdb:@term+@rn+@rel+93-15-2
   4. http://toxnet.nlm.nih.gov/cgi-bin/sis/search/r?dbs+hsdb:@term+@rn+@rel+93-15-2
   5. http://toxnet.nlm.nih.gov/cgi-bin/sis/search/r?dbs+hsdb:@term+@rn+@rel+93-15-2
   6. http://toxnet.nlm.nih.gov/cgi-bin/sis/search/r?dbs+hsdb:@term+@rn+@rel+93-15-2
   7. http://toxnet.nlm.nih.gov/cgi-bin/sis/search/r?dbs+hsdb:@term+@rn+@rel+93-15-2
   8. http://toxnet.nlm.nih.gov/cgi-bin/sis/search/r?dbs+hsdb:@term+@rn+@rel+93-15-2
   9. http://toxnet.nlm.nih.gov/cgi-bin/sis/search/r?dbs+hsdb:@term+@rn+@rel+93-15-2
  10. http://toxnet.nlm.nih.gov/cgi-bin/sis/search/r?dbs+hsdb:@term+@rn+@rel+93-15-2
  11. http://toxnet.nlm.nih.gov/cgi-bin/sis/search/r?dbs+hsdb:@term+@rn+@rel+93-15-2
  12. http://pubchem.ncbi.nlm.nih.gov/vw3d/vw3d.cgi?cid=7127
