9270
  -OEChem-07051213032D

 60 63  0     1  0  0  0  0  0999 V2000
   10.8814    1.0412    0.0000 O   0  0  0  0  0  0  0  0  0  0  0  0
    3.7320   -2.9022    0.0000 O   0  0  0  0  0  0  0  0  0  0  0  0
   11.8970   -0.3618    0.0000 O   0  0  0  0  0  0  0  0  0  0  0  0
    2.8718   -1.3989    0.0000 O   0  0  0  0  0  0  0  0  0  0  0  0
    9.1251    0.1501    0.0000 C   0  0  1  0  0  0  0  0  0  0  0  0
    9.1251   -0.8499    0.0000 C   0  0  2  0  0  0  0  0  0  0  0  0
    8.2591   -1.3499    0.0000 C   0  0  1  0  0  0  0  0  0  0  0  0
    7.3931   -0.8499    0.0000 C   0  0  2  0  0  0  0  0  0  0  0  0
   10.0713    0.4549    0.0000 C   0  0  2  0  0  0  0  0  0  0  0  0
    8.2591    0.6501    0.0000 C   0  0  0  0  0  0  0  0  0  0  0  0
   10.0713   -1.1546    0.0000 C   0  0  0  0  0  0  0  0  0  0  0  0
    7.3931    0.1501    0.0000 C   0  0  0  0  0  0  0  0  0  0  0  0
    6.4831   -1.3567    0.0000 C   0  0  2  0  0  0  0  0  0  0  0  0
   10.6550   -0.3499    0.0000 C   0  0  0  0  0  0  0  0  0  0  0  0
    8.2752   -2.3914    0.0000 C   0  0  0  0  0  0  0  0  0  0  0  0
    9.1251    1.1501    0.0000 C   0  0  0  0  0  0  0  0  0  0  0  0
    6.4750   -2.3983    0.0000 C   0  0  0  0  0  0  0  0  0  0  0  0
    7.3771   -2.9191    0.0000 C   0  0  0  0  0  0  0  0  0  0  0  0
    5.5562   -0.7926    0.0000 C   0  0  0  0  0  0  0  0  0  0  0  0
    4.6084   -1.3206    0.0000 C   0  0  0  0  0  0  0  0  0  0  0  0
    9.7640    1.4065    0.0000 C   0  0  0  0  0  0  0  0  0  0  0  0
    5.5396   -2.9480    0.0000 C   0  0  0  0  0  0  0  0  0  0  0  0
    4.6000   -2.4055    0.0000 C   0  0  1  0  0  0  0  0  0  0  0  0
   11.7942    0.6329    0.0000 C   0  0  0  0  0  0  0  0  0  0  0  0
    9.4566    2.3580    0.0000 C   0  0  0  0  0  0  0  0  0  0  0  0
   12.6042    1.2193    0.0000 C   0  0  0  0  0  0  0  0  0  0  0  0
    2.8680   -2.3989    0.0000 C   0  0  0  0  0  0  0  0  0  0  0  0
    2.0000   -2.8955    0.0000 C   0  0  0  0  0  0  0  0  0  0  0  0
    9.2151   -1.6951    0.0000 H   0  0  0  0  0  0  0  0  0  0  0  0
    8.9985   -1.7692    0.0000 H   0  0  0  0  0  0  0  0  0  0  0  0
    8.1292   -0.4249    0.0000 H   0  0  0  0  0  0  0  0  0  0  0  0
    8.6576    1.1251    0.0000 H   0  0  0  0  0  0  0  0  0  0  0  0
    7.8606    1.1251    0.0000 H   0  0  0  0  0  0  0  0  0  0  0  0
    9.8203   -1.7215    0.0000 H   0  0  0  0  0  0  0  0  0  0  0  0
   10.6087   -1.4638    0.0000 H   0  0  0  0  0  0  0  0  0  0  0  0
    7.1810    0.7327    0.0000 H   0  0  0  0  0  0  0  0  0  0  0  0
    6.7825    0.0425    0.0000 H   0  0  0  0  0  0  0  0  0  0  0  0
    6.4995   -0.5069    0.0000 H   0  0  0  0  0  0  0  0  0  0  0  0
   11.1158   -0.7646    0.0000 H   0  0  0  0  0  0  0  0  0  0  0  0
   11.1158    0.0649    0.0000 H   0  0  0  0  0  0  0  0  0  0  0  0
    8.4932   -2.9718    0.0000 H   0  0  0  0  0  0  0  0  0  0  0  0
    8.8843   -2.2759    0.0000 H   0  0  0  0  0  0  0  0  0  0  0  0
    9.7451    1.1501    0.0000 H   0  0  0  0  0  0  0  0  0  0  0  0
    9.1251    1.7701    0.0000 H   0  0  0  0  0  0  0  0  0  0  0  0
    8.5051    1.1501    0.0000 H   0  0  0  0  0  0  0  0  0  0  0  0
    6.9798   -3.3951    0.0000 H   0  0  0  0  0  0  0  0  0  0  0  0
    7.7781   -3.3920    0.0000 H   0  0  0  0  0  0  0  0  0  0  0  0
    5.9644   -0.3260    0.0000 H   0  0  0  0  0  0  0  0  0  0  0  0
    5.1663   -0.3106    0.0000 H   0  0  0  0  0  0  0  0  0  0  0  0
    4.4038   -0.7353    0.0000 H   0  0  0  0  0  0  0  0  0  0  0  0
    3.9967   -1.4220    0.0000 H   0  0  0  0  0  0  0  0  0  0  0  0
    5.5420   -3.5680    0.0000 H   0  0  0  0  0  0  0  0  0  0  0  0
    4.0648   -2.0924    0.0000 H   0  0  0  0  0  0  0  0  0  0  0  0
    9.2660    2.9480    0.0000 H   0  0  0  0  0  0  0  0  0  0  0  0
   12.9678    0.7171    0.0000 H   0  0  0  0  0  0  0  0  0  0  0  0
   13.1065    1.5829    0.0000 H   0  0  0  0  0  0  0  0  0  0  0  0
   12.2407    1.7215    0.0000 H   0  0  0  0  0  0  0  0  0  0  0  0
    1.6921   -2.3574    0.0000 H   0  0  0  0  0  0  0  0  0  0  0  0
    1.4619   -3.2034    0.0000 H   0  0  0  0  0  0  0  0  0  0  0  0
    2.3079   -3.4336    0.0000 H   0  0  0  0  0  0  0  0  0  0  0  0
  9  1  1  1  0  0  0
  1 24  1  0  0  0  0
 23  2  1  1  0  0  0
  2 27  1  0  0  0  0
  3 24  2  0  0  0  0
  4 27  2  0  0  0  0
  5  6  1  0  0  0  0
  5  9  1  0  0  0  0
  5 10  1  0  0  0  0
  5 16  1  1  0  0  0
  6  7  1  0  0  0  0
  6 11  1  0  0  0  0
  6 29  1  6  0  0  0
  7  8  1  0  0  0  0
  7 15  1  0  0  0  0
  7 30  1  1  0  0  0
  8 12  1  0  0  0  0
  8 13  1  0  0  0  0
  8 31  1  6  0  0  0
  9 14  1  0  0  0  0
  9 21  1  0  0  0  0
 10 12  1  0  0  0  0
 10 32  1  0  0  0  0
 10 33  1  0  0  0  0
 11 14  1  0  0  0  0
 11 34  1  0  0  0  0
 11 35  1  0  0  0  0
 12 36  1  0  0  0  0
 12 37  1  0  0  0  0
 13 17  1  0  0  0  0
 13 19  1  0  0  0  0
 13 38  1  1  0  0  0
 14 39  1  0  0  0  0
 14 40  1  0  0  0  0
 15 18  1  0  0  0  0
 15 41  1  0  0  0  0
 15 42  1  0  0  0  0
 16 43  1  0  0  0  0
 16 44  1  0  0  0  0
 16 45  1  0  0  0  0
 17 18  1  0  0  0  0
 17 22  2  0  0  0  0
 18 46  1  0  0  0  0
 18 47  1  0  0  0  0
 19 20  1  0  0  0  0
 19 48  1  0  0  0  0
 19 49  1  0  0  0  0
 20 23  1  0  0  0  0
 20 50  1  0  0  0  0
 20 51  1  0  0  0  0
 21 25  3  0  0  0  0
 22 23  1  0  0  0  0
 22 52  1  0  0  0  0
 23 53  1  0  0  0  0
 24 26  1  0  0  0  0
 25 54  1  0  0  0  0
 26 55  1  0  0  0  0
 26 56  1  0  0  0  0
 26 57  1  0  0  0  0
 27 28  1  0  0  0  0
 28 58  1  0  0  0  0
 28 59  1  0  0  0  0
 28 60  1  0  0  0  0
M  END
> <PUBCHEM_COMPOUND_CID>
9270

> <PUBCHEM_COMPOUND_CANONICALIZED>
1

> <PUBCHEM_CACTVS_COMPLEXITY>
758

> <PUBCHEM_CACTVS_HBOND_ACCEPTOR>
4

> <PUBCHEM_CACTVS_HBOND_DONOR>
0

> <PUBCHEM_CACTVS_ROTATABLE_BOND>
5

> <PUBCHEM_CACTVS_SUBSKEYS>
AAADcfB4OAAAAAAAAAAAAAAAAAAAAYAAAAAwYIAAAAAAAGDAAAAAGgAAAAAAD1SggAICCAAABADIGiDSCAgAAAAgAAAACAAAAAgABAIAIQACEAAEgAAIIAOAwPAPgAAAAAAAAACAAAQAACAAAYAADAAAAA==

> <PUBCHEM_IUPAC_OPENEYE_NAME>
[(3S,8R,9S,10R,13S,14S,17R)-17-acetoxy-17-ethynyl-13-methyl-2,3,6,7,8,9,10,11,12,14,15,16-dodecahydro-1H-cyclopenta[a]phenanthren-3-yl] acetate

> <PUBCHEM_IUPAC_CAS_NAME>
acetic acid [(3S,8R,9S,10R,13S,14S,17R)-17-acetyloxy-17-ethynyl-13-methyl-2,3,6,7,8,9,10,11,12,14,15,16-dodecahydro-1H-cyclopenta[a]phenanthren-3-yl] ester

> <PUBCHEM_IUPAC_NAME>
[(3S,8R,9S,10R,13S,14S,17R)-17-acetyloxy-17-ethynyl-13-methyl-2,3,6,7,8,9,10,11,12,14,15,16-dodecahydro-1H-cyclopenta[a]phenanthren-3-yl] acetate

> <PUBCHEM_IUPAC_SYSTEMATIC_NAME>
[(3S,8R,9S,10R,13S,14S,17R)-17-acetyloxy-17-ethynyl-13-methyl-2,3,6,7,8,9,10,11,12,14,15,16-dodecahydro-1H-cyclopenta[a]phenanthren-3-yl] ethanoate

> <PUBCHEM_IUPAC_TRADITIONAL_NAME>
acetic acid [(3S,8R,9S,10R,13S,14S,17R)-17-acetoxy-17-ethynyl-13-methyl-2,3,6,7,8,9,10,11,12,14,15,16-dodecahydro-1H-cyclopenta[a]phenanthren-3-yl] ester

> <PUBCHEM_IUPAC_INCHI>
InChI=1S/C24H32O4/c1-5-24(28-16(3)26)13-11-22-21-8-6-17-14-18(27-15(2)25)7-9-19(17)20(21)10-12-23(22,24)4/h1,14,18-22H,6-13H2,2-4H3/t18-,19-,20+,21+,22-,23-,24-/m0/s1

> <PUBCHEM_IUPAC_INCHIKEY>
ONKUMRGIYFNPJW-KIEAKMPYSA-N

> <PUBCHEM_XLOGP3_AA>
3.9

> <PUBCHEM_EXACT_MASS>
384.23006

> <PUBCHEM_MOLECULAR_FORMULA>
C24H32O4

> <PUBCHEM_MOLECULAR_WEIGHT>
384.50848

> <PUBCHEM_OPENEYE_CAN_SMILES>
CC(=O)OC1CCC2C3CCC4(C(C3CCC2=C1)CCC4(C#C)OC(=O)C)C

> <PUBCHEM_OPENEYE_ISO_SMILES>
CC(=O)O[C@H]1CC[C@@H]2[C@H]3CC[C@]4([C@H]([C@@H]3CCC2=C1)CC[C@]4(C#C)OC(=O)C)C

> <PUBCHEM_CACTVS_TPSA>
52.6

> <PUBCHEM_MONOISOTOPIC_WEIGHT>
384.23006

> <PUBCHEM_TOTAL_CHARGE>
0

> <PUBCHEM_HEAVY_ATOM_COUNT>
28

> <PUBCHEM_ATOM_DEF_STEREO_COUNT>
7

> <PUBCHEM_ATOM_UDEF_STEREO_COUNT>
0

> <PUBCHEM_BOND_DEF_STEREO_COUNT>
0

> <PUBCHEM_BOND_UDEF_STEREO_COUNT>
0

> <PUBCHEM_ISOTOPIC_ATOM_COUNT>
0

> <PUBCHEM_COMPONENT_COUNT>
1

> <PUBCHEM_CACTVS_TAUTO_COUNT>
1

> <PUBCHEM_COORDINATE_TYPE>
1
5
255

> <PUBCHEM_BONDANNOTATIONS>
9  1  5
13  38  5
23  2  5
5  16  5
6  29  6
7  30  5
8  31  6

$$$$

