   Color/Form

     * COLORLESS TO BROWN /SRP: TECHNICAL GRADE/
     * Highly refractive/darkens with age
     * Colorless liquid

   from [1]HSDB

   Odor

     * Penetrating odor, not as offensive as pyridine
     * Unpleasant odor

   from [2]HSDB

   Boiling Point
        237.7 deg C @ 760 mm Hg
   from [3]HSDB

   Melting Point
        -14.78 deg C
   from [4]HSDB

   Corrosivity
        May attack some forms of plastic
   from [5]HSDB

   Critical Temperature and Pressure
        Critical temperature: 509 deg C
   from [6]HSDB

   Density/Specific Gravity
        1.0900 @ 25 deg C/4 deg C
   from [7]HSDB

   Dissociation Constants
        pKa= 4.90
   from [8]HSDB

   Heat of Combustion
        -8710 cal/g
   from [9]HSDB

   Octanol/Water Partition Coefficient
        log Kow= 2.03
   from [10]HSDB

   pH
        Weak tertiary base
   from [11]HSDB

   Solubilities

     * Soluble in alcohol, ether, and carbon disulfide
     * Miscible with oxygenated solvents
     * More sol in hot than cold water; sol in ethanol, ethyl ether,
       acetone, carbon disulfide and other common organic solvents.
     * In water, 6,110 mg/l @ 25 deg C

   from [12]HSDB

   Spectral Properties

     * Index of refraction: 1.62683 @ 20 deg C/D
     * MAX ABSORPTION (WATER): 275 NM (LOG E= 3.51), 299 NM (LOG E= 3.46),
       312 NM (LOG E= 3.52); SADTLER REFERENCE NUMBER: 1053 (IR, PRISM)
     * Intense mass spectral peaks: 129 m/z (100%), 102 m/z (21%), 51 m/z
       (17%), 128 m/z (16%)
     * IR: 213 (Sadtler Research Laboratories IR Grating Collection)
     * UV: 320 (Sadtler Research Laboratories Spectral Collection)
     * NMR: 6683 (Sadtler Research Laboratories Spectral Collection)
     * MASS: 579 (Atlas of Mass Spectral Data, John Wiley & Sons, New
       York)

   from [13]HSDB

   Surface Tension
        45.0 dynes/cm @ 20 deg C
   from [14]HSDB

   Vapor Density
        4.45 (Air= 1)
   from [15]HSDB

   Vapor Pressure
        0.06 mm Hg @ 25 deg C
   from [16]HSDB

   Viscosity
        2.997 millipascal second (=cP) at 30 deg C
   from [17]HSDB

   Other Chemical/Physical Properties

     * 1 MG/L= 189 PPM; 1 PPM= 5.28 MG/CU M
     * Hygroscopic liquid, absorbs as much as 22% water. ... Forms water
       sol salts with strong acids: pK 9.5
     * Hydroxyl radical reaction rate constant = 1.16X10-11 cu
       cm/molecule-sec @ 24 deg C

   from [18]HSDB

   Computed Properties
   Molecular Weight                  129.15858 [g/mol]
   Molecular Formula                 C[9]H[7]N
   XLogP3                            2
   H-Bond Donor                      0
   H-Bond Acceptor                   1
   Rotatable Bond Count              0
   Exact Mass                        129.057849
   MonoIsotopic Mass                 129.057849
   Topological Polar Surface Area    12.9
   Heavy Atom Count                  10
   Formal Charge                     0
   Complexity                        111
   Isotope Atom Count                0
   Defined Atom Stereocenter Count   0
   Undefined Atom Stereocenter Count 0
   Defined Bond Stereocenter Count   0
   Undefined Bond Stereocenter Count 0
   Covalently-Bonded Unit Count      1
   Feature 3D Acceptor Count         1
   Feature 3D Ring Count             2
   Effective Rotor Count             0
   Conformer Sampling RMSD           0.4
   CID Conformer Count               [19]1

References

   1. http://toxnet.nlm.nih.gov/cgi-bin/sis/search/r?dbs+hsdb:@term+@rn+@rel+91-22-5
   2. http://toxnet.nlm.nih.gov/cgi-bin/sis/search/r?dbs+hsdb:@term+@rn+@rel+91-22-5
   3. http://toxnet.nlm.nih.gov/cgi-bin/sis/search/r?dbs+hsdb:@term+@rn+@rel+91-22-5
   4. http://toxnet.nlm.nih.gov/cgi-bin/sis/search/r?dbs+hsdb:@term+@rn+@rel+91-22-5
   5. http://toxnet.nlm.nih.gov/cgi-bin/sis/search/r?dbs+hsdb:@term+@rn+@rel+91-22-5
   6. http://toxnet.nlm.nih.gov/cgi-bin/sis/search/r?dbs+hsdb:@term+@rn+@rel+91-22-5
   7. http://toxnet.nlm.nih.gov/cgi-bin/sis/search/r?dbs+hsdb:@term+@rn+@rel+91-22-5
   8. http://toxnet.nlm.nih.gov/cgi-bin/sis/search/r?dbs+hsdb:@term+@rn+@rel+91-22-5
   9. http://toxnet.nlm.nih.gov/cgi-bin/sis/search/r?dbs+hsdb:@term+@rn+@rel+91-22-5
  10. http://toxnet.nlm.nih.gov/cgi-bin/sis/search/r?dbs+hsdb:@term+@rn+@rel+91-22-5
  11. http://toxnet.nlm.nih.gov/cgi-bin/sis/search/r?dbs+hsdb:@term+@rn+@rel+91-22-5
  12. http://toxnet.nlm.nih.gov/cgi-bin/sis/search/r?dbs+hsdb:@term+@rn+@rel+91-22-5
  13. http://toxnet.nlm.nih.gov/cgi-bin/sis/search/r?dbs+hsdb:@term+@rn+@rel+91-22-5
  14. http://toxnet.nlm.nih.gov/cgi-bin/sis/search/r?dbs+hsdb:@term+@rn+@rel+91-22-5
  15. http://toxnet.nlm.nih.gov/cgi-bin/sis/search/r?dbs+hsdb:@term+@rn+@rel+91-22-5
  16. http://toxnet.nlm.nih.gov/cgi-bin/sis/search/r?dbs+hsdb:@term+@rn+@rel+91-22-5
  17. http://toxnet.nlm.nih.gov/cgi-bin/sis/search/r?dbs+hsdb:@term+@rn+@rel+91-22-5
  18. http://toxnet.nlm.nih.gov/cgi-bin/sis/search/r?dbs+hsdb:@term+@rn+@rel+91-22-5
  19. http://pubchem.ncbi.nlm.nih.gov/vw3d/vw3d.cgi?cid=7047
