92990
  -OEChem-07051212572D

 47 50  0     1  0  0  0  0  0999 V2000
    5.4354    1.4779    0.0000 N   0  0  3  0  0  0  0  0  0  0  0  0
    2.6197   -1.1579    0.0000 N   0  0  0  0  0  0  0  0  0  0  0  0
    3.6693    2.1207    0.0000 C   0  0  2  0  0  0  0  0  0  0  0  0
    4.6693    2.1207    0.0000 C   0  0  0  0  0  0  0  0  0  0  0  0
    4.0637    3.0600    0.0000 C   0  0  0  0  0  0  0  0  0  0  0  0
    2.9033    1.4779    0.0000 C   0  0  0  0  0  0  0  0  0  0  0  0
    5.0697    3.2206    0.0000 C   0  0  0  0  0  0  0  0  0  0  0  0
    2.8643    2.7139    0.0000 C   0  0  0  0  0  0  0  0  0  0  0  0
    5.7370    2.4509    0.0000 C   0  0  0  0  0  0  0  0  0  0  0  0
    2.7296    0.4931    0.0000 C   0  0  0  0  0  0  0  0  0  0  0  0
    5.6090    0.4931    0.0000 C   0  0  0  0  0  0  0  0  0  0  0  0
    5.1090   -0.3730    0.0000 C   0  0  0  0  0  0  0  0  0  0  0  0
    3.2296   -0.3730    0.0000 C   0  0  0  0  0  0  0  0  0  0  0  0
    4.1693   -0.7150    0.0000 C   0  0  0  0  0  0  0  0  0  0  0  0
    2.9756    3.7077    0.0000 C   0  0  0  0  0  0  0  0  0  0  0  0
    4.1321   -1.7084    0.0000 C   0  0  0  0  0  0  0  0  0  0  0  0
    3.1762   -1.9815    0.0000 C   0  0  0  0  0  0  0  0  0  0  0  0
    4.8873   -2.4167    0.0000 C   0  0  0  0  0  0  0  0  0  0  0  0
    2.9094   -2.9820    0.0000 C   0  0  0  0  0  0  0  0  0  0  0  0
    4.6437   -3.4231    0.0000 C   0  0  0  0  0  0  0  0  0  0  0  0
    3.6481   -3.7077    0.0000 C   0  0  0  0  0  0  0  0  0  0  0  0
    5.1873    2.4614    0.0000 H   0  0  0  0  0  0  0  0  0  0  0  0
    4.4915    2.7146    0.0000 H   0  0  0  0  0  0  0  0  0  0  0  0
    4.0804    3.6797    0.0000 H   0  0  0  0  0  0  0  0  0  0  0  0
    3.4576    3.1906    0.0000 H   0  0  0  0  0  0  0  0  0  0  0  0
    2.6577    2.0472    0.0000 H   0  0  0  0  0  0  0  0  0  0  0  0
    2.2875    1.4059    0.0000 H   0  0  0  0  0  0  0  0  0  0  0  0
    5.6050    3.5335    0.0000 H   0  0  0  0  0  0  0  0  0  0  0  0
    4.8608    3.8044    0.0000 H   0  0  0  0  0  0  0  0  0  0  0  0
    2.2695    2.8888    0.0000 H   0  0  0  0  0  0  0  0  0  0  0  0
    2.5888    2.1585    0.0000 H   0  0  0  0  0  0  0  0  0  0  0  0
    6.2853    2.1614    0.0000 H   0  0  0  0  0  0  0  0  0  0  0  0
    6.1226    2.9364    0.0000 H   0  0  0  0  0  0  0  0  0  0  0  0
    2.1756    0.7713    0.0000 H   0  0  0  0  0  0  0  0  0  0  0  0
    2.3042    0.0421    0.0000 H   0  0  0  0  0  0  0  0  0  0  0  0
    6.0345    0.0421    0.0000 H   0  0  0  0  0  0  0  0  0  0  0  0
    6.1631    0.7713    0.0000 H   0  0  0  0  0  0  0  0  0  0  0  0
    5.1451   -0.9919    0.0000 H   0  0  0  0  0  0  0  0  0  0  0  0
    5.7123   -0.5159    0.0000 H   0  0  0  0  0  0  0  0  0  0  0  0
    3.5917    3.6387    0.0000 H   0  0  0  0  0  0  0  0  0  0  0  0
    3.0445    4.3238    0.0000 H   0  0  0  0  0  0  0  0  0  0  0  0
    2.3594    3.7767    0.0000 H   0  0  0  0  0  0  0  0  0  0  0  0
    2.0000   -1.1373    0.0000 H   0  0  0  0  0  0  0  0  0  0  0  0
    5.4814   -2.2395    0.0000 H   0  0  0  0  0  0  0  0  0  0  0  0
    2.3114   -3.1455    0.0000 H   0  0  0  0  0  0  0  0  0  0  0  0
    5.0910   -3.8525    0.0000 H   0  0  0  0  0  0  0  0  0  0  0  0
    3.4952   -4.3086    0.0000 H   0  0  0  0  0  0  0  0  0  0  0  0
  1  4  1  0  0  0  0
  1  9  1  0  0  0  0
  1 11  1  0  0  0  0
  2 13  1  0  0  0  0
  2 17  1  0  0  0  0
  2 43  1  0  0  0  0
  3  4  1  0  0  0  0
  3  5  1  0  0  0  0
  3  6  1  0  0  0  0
  3  8  1  6  0  0  0
  4 22  1  0  0  0  0
  4 23  1  0  0  0  0
  5  7  1  0  0  0  0
  5 24  1  0  0  0  0
  5 25  1  0  0  0  0
  6 10  1  0  0  0  0
  6 26  1  0  0  0  0
  6 27  1  0  0  0  0
  7  9  1  0  0  0  0
  7 28  1  0  0  0  0
  7 29  1  0  0  0  0
  8 15  1  0  0  0  0
  8 30  1  0  0  0  0
  8 31  1  0  0  0  0
  9 32  1  0  0  0  0
  9 33  1  0  0  0  0
 10 13  1  0  0  0  0
 10 34  1  0  0  0  0
 10 35  1  0  0  0  0
 11 12  1  0  0  0  0
 11 36  1  0  0  0  0
 11 37  1  0  0  0  0
 12 14  1  0  0  0  0
 12 38  1  0  0  0  0
 12 39  1  0  0  0  0
 13 14  2  0  0  0  0
 14 16  1  0  0  0  0
 15 40  1  0  0  0  0
 15 41  1  0  0  0  0
 15 42  1  0  0  0  0
 16 17  1  0  0  0  0
 16 18  2  0  0  0  0
 17 19  2  0  0  0  0
 18 20  1  0  0  0  0
 18 44  1  0  0  0  0
 19 21  1  0  0  0  0
 19 45  1  0  0  0  0
 20 21  2  0  0  0  0
 20 46  1  0  0  0  0
 21 47  1  0  0  0  0
M  END
> <PUBCHEM_COMPOUND_CID>
92990

> <PUBCHEM_COMPOUND_CANONICALIZED>
1

> <PUBCHEM_CACTVS_COMPLEXITY>
369

> <PUBCHEM_CACTVS_HBOND_ACCEPTOR>
1

> <PUBCHEM_CACTVS_HBOND_DONOR>
1

> <PUBCHEM_CACTVS_ROTATABLE_BOND>
1

> <PUBCHEM_CACTVS_SUBSKEYS>
AAADceB7AAAAAAAAAAAAAAAAAAAAAWAAAAA8QAAAAAAAAFgB8AAAHAAQAAAADgjBHgQywPPJkACgAyRiRACCgCAhAiAImSA4ZJgIIOLAkZGEIAhgkADIyAcQgMAPgAAAAAACAAAAAAAAAAQAAAAAAAAAAA==

> <PUBCHEM_IUPAC_INCHI>
InChI=1S/C19H26N2/c1-2-19-10-5-12-21(14-19)13-9-16-15-6-3-4-7-17(15)20-18(16)8-11-19/h3-4,6-7,20H,2,5,8-14H2,1H3/t19-/m1/s1

> <PUBCHEM_IUPAC_INCHIKEY>
FDNDLNFGITWTOZ-LJQANCHMSA-N

> <PUBCHEM_XLOGP3_AA>
4.3

> <PUBCHEM_EXACT_MASS>
282.209599

> <PUBCHEM_MOLECULAR_FORMULA>
C19H26N2

> <PUBCHEM_MOLECULAR_WEIGHT>
282.42314

> <PUBCHEM_OPENEYE_CAN_SMILES>
CCC12CCCN(C1)CCC3=C(CC2)NC4=CC=CC=C34

> <PUBCHEM_OPENEYE_ISO_SMILES>
CC[C@]12CCCN(C1)CCC3=C(CC2)NC4=CC=CC=C34

> <PUBCHEM_CACTVS_TPSA>
19

> <PUBCHEM_MONOISOTOPIC_WEIGHT>
282.209599

> <PUBCHEM_TOTAL_CHARGE>
0

> <PUBCHEM_HEAVY_ATOM_COUNT>
21

> <PUBCHEM_ATOM_DEF_STEREO_COUNT>
1

> <PUBCHEM_ATOM_UDEF_STEREO_COUNT>
0

> <PUBCHEM_BOND_DEF_STEREO_COUNT>
0

> <PUBCHEM_BOND_UDEF_STEREO_COUNT>
0

> <PUBCHEM_ISOTOPIC_ATOM_COUNT>
0

> <PUBCHEM_COMPONENT_COUNT>
1

> <PUBCHEM_CACTVS_TAUTO_COUNT>
1

> <PUBCHEM_COORDINATE_TYPE>
1
5
255

> <PUBCHEM_BONDANNOTATIONS>
13  14  8
14  16  8
16  17  8
16  18  8
17  19  8
18  20  8
19  21  8
2  13  8
2  17  8
20  21  8
3  8  6

$$$$

