11954192
  -OEChem-07051213072D

 45 48  0     1  0  0  0  0  0999 V2000
    5.9065   -1.1523    0.0000 O   0  0  0  0  0  0  0  0  0  0  0  0
    8.0505    0.9162    0.0000 O   0  0  0  0  0  0  0  0  0  0  0  0
    6.0942    1.3321    0.0000 O   0  0  0  0  0  0  0  0  0  0  0  0
   10.6901   -1.4279    0.0000 O   0  0  0  0  0  0  0  0  0  0  0  0
    2.4170   -0.2480    0.0000 O   0  0  0  0  0  0  0  0  0  0  0  0
    6.4033    0.3810    0.0000 C   0  0  1  0  0  0  0  0  0  0  0  0
    6.7123   -0.5701    0.0000 C   0  0  2  0  0  0  0  0  0  0  0  0
    5.4092    0.3784    0.0000 C   0  0  0  0  0  0  0  0  0  0  0  0
    7.0724    1.1242    0.0000 C   0  0  0  0  0  0  0  0  0  0  0  0
    7.6904   -0.7780    0.0000 C   0  0  0  0  0  0  0  0  0  0  0  0
    5.1028   -0.5673    0.0000 C   0  0  0  0  0  0  0  0  0  0  0  0
    8.3596   -0.0348    0.0000 C   0  0  0  0  0  0  0  0  0  0  0  0
    9.3816   -0.2357    0.0000 C   0  0  0  0  0  0  0  0  0  0  0  0
    4.7276    1.1579    0.0000 C   0  0  0  0  0  0  0  0  0  0  0  0
    7.9970   -1.7735    0.0000 C   0  0  0  0  0  0  0  0  0  0  0  0
    4.0936   -0.7990    0.0000 C   0  0  0  0  0  0  0  0  0  0  0  0
    9.7112   -1.2238    0.0000 C   0  0  0  0  0  0  0  0  0  0  0  0
    9.0142   -1.9979    0.0000 C   0  0  0  0  0  0  0  0  0  0  0  0
   10.0421    0.5152    0.0000 C   0  0  0  0  0  0  0  0  0  0  0  0
    3.7133    0.9496    0.0000 C   0  0  0  0  0  0  0  0  0  0  0  0
    3.3942   -0.0355    0.0000 C   0  0  0  0  0  0  0  0  0  0  0  0
   11.0226    0.3186    0.0000 C   0  0  0  0  0  0  0  0  0  0  0  0
   11.6831    1.0694    0.0000 C   0  0  0  0  0  0  0  0  0  0  0  0
   12.6636    0.8728    0.0000 C   0  0  0  0  0  0  0  0  0  0  0  0
   11.3631    2.0168    0.0000 C   0  0  0  0  0  0  0  0  0  0  0  0
    6.8879   -1.4017    0.0000 H   0  0  0  0  0  0  0  0  0  0  0  0
    7.3046    1.6990    0.0000 H   0  0  0  0  0  0  0  0  0  0  0  0
    6.5466    1.4527    0.0000 H   0  0  0  0  0  0  0  0  0  0  0  0
    4.9255    1.7455    0.0000 H   0  0  0  0  0  0  0  0  0  0  0  0
    6.5091    1.7928    0.0000 H   0  0  0  0  0  0  0  0  0  0  0  0
    7.5768   -2.2294    0.0000 H   0  0  0  0  0  0  0  0  0  0  0  0
    3.9094   -1.3910    0.0000 H   0  0  0  0  0  0  0  0  0  0  0  0
    9.2035   -2.5883    0.0000 H   0  0  0  0  0  0  0  0  0  0  0  0
   10.2677    1.0927    0.0000 H   0  0  0  0  0  0  0  0  0  0  0  0
    9.5126    0.8376    0.0000 H   0  0  0  0  0  0  0  0  0  0  0  0
    3.2998    1.4116    0.0000 H   0  0  0  0  0  0  0  0  0  0  0  0
   11.2210   -0.2688    0.0000 H   0  0  0  0  0  0  0  0  0  0  0  0
   10.8840   -2.0168    0.0000 H   0  0  0  0  0  0  0  0  0  0  0  0
    2.0000    0.2108    0.0000 H   0  0  0  0  0  0  0  0  0  0  0  0
   11.9505    2.2152    0.0000 H   0  0  0  0  0  0  0  0  0  0  0  0
   11.1647    2.6042    0.0000 H   0  0  0  0  0  0  0  0  0  0  0  0
   10.7757    1.8184    0.0000 H   0  0  0  0  0  0  0  0  0  0  0  0
   12.5417    0.2649    0.0000 H   0  0  0  0  0  0  0  0  0  0  0  0
   13.2715    0.7510    0.0000 H   0  0  0  0  0  0  0  0  0  0  0  0
   12.7855    1.4807    0.0000 H   0  0  0  0  0  0  0  0  0  0  0  0
  1  7  1  0  0  0  0
  1 11  1  0  0  0  0
  2  9  1  0  0  0  0
  2 12  1  0  0  0  0
  6  3  1  1  0  0  0
  3 30  1  0  0  0  0
  4 17  1  0  0  0  0
  4 38  1  0  0  0  0
  5 21  1  0  0  0  0
  5 39  1  0  0  0  0
  6  7  1  0  0  0  0
  6  8  1  0  0  0  0
  6  9  1  0  0  0  0
  7 10  1  0  0  0  0
  7 26  1  1  0  0  0
  8 11  2  0  0  0  0
  8 14  1  0  0  0  0
  9 27  1  0  0  0  0
  9 28  1  0  0  0  0
 10 12  2  0  0  0  0
 10 15  1  0  0  0  0
 11 16  1  0  0  0  0
 12 13  1  0  0  0  0
 13 17  2  0  0  0  0
 13 19  1  0  0  0  0
 14 20  2  0  0  0  0
 14 29  1  0  0  0  0
 15 18  2  0  0  0  0
 15 31  1  0  0  0  0
 16 21  2  0  0  0  0
 16 32  1  0  0  0  0
 17 18  1  0  0  0  0
 18 33  1  0  0  0  0
 19 22  1  0  0  0  0
 19 34  1  0  0  0  0
 19 35  1  0  0  0  0
 20 21  1  0  0  0  0
 20 36  1  0  0  0  0
 22 23  2  0  0  0  0
 22 37  1  0  0  0  0
 23 24  1  0  0  0  0
 23 25  1  0  0  0  0
 24 43  1  0  0  0  0
 24 44  1  0  0  0  0
 24 45  1  0  0  0  0
 25 40  1  0  0  0  0
 25 41  1  0  0  0  0
 25 42  1  0  0  0  0
M  END
> <PUBCHEM_COMPOUND_CID>
11954192

> <PUBCHEM_COMPOUND_CANONICALIZED>
1

> <PUBCHEM_CACTVS_COMPLEXITY>
530

> <PUBCHEM_CACTVS_HBOND_ACCEPTOR>
5

> <PUBCHEM_CACTVS_HBOND_DONOR>
3

> <PUBCHEM_CACTVS_ROTATABLE_BOND>
2

> <PUBCHEM_CACTVS_SUBSKEYS>
AAADceB4OAAAAAAAAAAAAAAAAAAAASAAAAA0YIAAAAAAAEiRQAAAGgAACAAADFSgmAIyBoAABgCAAiBCAAACCAAgIAAIiAAGCIgNJyKGMRqCeCClwBULuAfA4PwOoAACCAAIAABAAAQQABAAAAAAAAAAAA==

> <PUBCHEM_IUPAC_OPENEYE_NAME>
(6aS,11aS)-4-(3-methylbut-2-enyl)-6,11a-dihydrobenzofuro[3,2-c]chromene-3,6a,9-triol

> <PUBCHEM_IUPAC_CAS_NAME>
(6aS,11aS)-4-(3-methylbut-2-enyl)-6,11a-dihydrobenzofuro[3,2-c][1]benzopyran-3,6a,9-triol

> <PUBCHEM_IUPAC_NAME>
(6aS,11aS)-4-(3-methylbut-2-enyl)-6,11a-dihydro-[1]benzofuro[3,2-c]chromene-3,6a,9-triol

> <PUBCHEM_IUPAC_SYSTEMATIC_NAME>
(6aS,11aS)-4-(3-methylbut-2-enyl)-6,11a-dihydro-[1]benzofuro[3,2-c]chromene-3,6a,9-triol

> <PUBCHEM_IUPAC_TRADITIONAL_NAME>
(6aS,11aS)-4-(3-methylbut-2-enyl)-6,11a-dihydrobenzofuro[3,2-c]chromene-3,6a,9-triol

> <PUBCHEM_IUPAC_INCHI>
InChI=1S/C20H20O5/c1-11(2)3-5-13-16(22)8-6-14-18(13)24-10-20(23)15-7-4-12(21)9-17(15)25-19(14)20/h3-4,6-9,19,21-23H,5,10H2,1-2H3/t19-,20+/m0/s1

> <PUBCHEM_IUPAC_INCHIKEY>
NLHMQOCIFRDSNU-VQTJNVASSA-N

> <PUBCHEM_XLOGP3_AA>
3.1

> <PUBCHEM_EXACT_MASS>
340.131074

> <PUBCHEM_MOLECULAR_FORMULA>
C20H20O5

> <PUBCHEM_MOLECULAR_WEIGHT>
340.3698

> <PUBCHEM_OPENEYE_CAN_SMILES>
CC(=CCC1=C(C=CC2=C1OCC3(C2OC4=C3C=CC(=C4)O)O)O)C

> <PUBCHEM_OPENEYE_ISO_SMILES>
CC(=CCC1=C(C=CC2=C1OC[C@@]3([C@H]2OC4=C3C=CC(=C4)O)O)O)C

> <PUBCHEM_CACTVS_TPSA>
79.2

> <PUBCHEM_MONOISOTOPIC_WEIGHT>
340.131074

> <PUBCHEM_TOTAL_CHARGE>
0

> <PUBCHEM_HEAVY_ATOM_COUNT>
25

> <PUBCHEM_ATOM_DEF_STEREO_COUNT>
2

> <PUBCHEM_ATOM_UDEF_STEREO_COUNT>
0

> <PUBCHEM_BOND_DEF_STEREO_COUNT>
0

> <PUBCHEM_BOND_UDEF_STEREO_COUNT>
0

> <PUBCHEM_ISOTOPIC_ATOM_COUNT>
0

> <PUBCHEM_COMPONENT_COUNT>
1

> <PUBCHEM_CACTVS_TAUTO_COUNT>
8

> <PUBCHEM_COORDINATE_TYPE>
1
5
255

> <PUBCHEM_BONDANNOTATIONS>
10  12  8
10  15  8
11  16  8
12  13  8
13  17  8
14  20  8
15  18  8
16  21  8
17  18  8
20  21  8
6  3  5
7  26  5
8  11  8
8  14  8

$$$$

