5281949
  -OEChem-07051213012D

 47 49  0     0  0  0  0  0  0999 V2000
    7.1962   -0.4031    0.0000 O   0  0  0  0  0  0  0  0  0  0  0  0
   10.7263   -0.4273    0.0000 O   0  0  0  0  0  0  0  0  0  0  0  0
    8.9446    2.6315    0.0000 O   0  0  0  0  0  0  0  0  0  0  0  0
    5.4641    1.5969    0.0000 O   0  0  0  0  0  0  0  0  0  0  0  0
    7.1962    2.5969    0.0000 O   0  0  0  0  0  0  0  0  0  0  0  0
    2.8660   -1.9031    0.0000 O   0  0  0  0  0  0  0  0  0  0  0  0
    8.9446   -1.4377    0.0000 C   0  0  0  0  0  0  0  0  0  0  0  0
    8.9561   -0.4378    0.0000 C   0  0  0  0  0  0  0  0  0  0  0  0
    8.0622    0.0969    0.0000 C   0  0  0  0  0  0  0  0  0  0  0  0
    9.9445   -1.4493    0.0000 C   0  0  0  0  0  0  0  0  0  0  0  0
    7.9446   -1.4262    0.0000 C   0  0  0  0  0  0  0  0  0  0  0  0
    8.0622    1.0969    0.0000 C   0  0  0  0  0  0  0  0  0  0  0  0
    9.8622    0.0760    0.0000 C   0  0  0  0  0  0  0  0  0  0  0  0
    8.9330   -2.4377    0.0000 C   0  0  0  0  0  0  0  0  0  0  0  0
    8.9561    1.6315    0.0000 C   0  0  0  0  0  0  0  0  0  0  0  0
    9.8622    1.1177    0.0000 C   0  0  0  0  0  0  0  0  0  0  0  0
    7.1962    1.5969    0.0000 C   0  0  0  0  0  0  0  0  0  0  0  0
    6.3301    0.0969    0.0000 C   0  0  0  0  0  0  0  0  0  0  0  0
    6.3301    1.0969    0.0000 C   0  0  0  0  0  0  0  0  0  0  0  0
    5.4641   -0.4031    0.0000 C   0  0  0  0  0  0  0  0  0  0  0  0
    9.7932   -2.9476    0.0000 C   0  0  0  0  0  0  0  0  0  0  0  0
    4.5981    0.0969    0.0000 C   0  0  0  0  0  0  0  0  0  0  0  0
    5.4641   -1.4031    0.0000 C   0  0  0  0  0  0  0  0  0  0  0  0
    3.7320   -0.4031    0.0000 C   0  0  0  0  0  0  0  0  0  0  0  0
    4.5981   -1.9031    0.0000 C   0  0  0  0  0  0  0  0  0  0  0  0
    3.7320   -1.4031    0.0000 C   0  0  0  0  0  0  0  0  0  0  0  0
    2.0000   -1.4031    0.0000 C   0  0  0  0  0  0  0  0  0  0  0  0
    9.9373   -2.0692    0.0000 H   0  0  0  0  0  0  0  0  0  0  0  0
    7.9518   -0.8062    0.0000 H   0  0  0  0  0  0  0  0  0  0  0  0
    7.3247   -1.4190    0.0000 H   0  0  0  0  0  0  0  0  0  0  0  0
    7.9374   -2.0461    0.0000 H   0  0  0  0  0  0  0  0  0  0  0  0
   10.5644   -1.4565    0.0000 H   0  0  0  0  0  0  0  0  0  0  0  0
    9.9517   -0.8293    0.0000 H   0  0  0  0  0  0  0  0  0  0  0  0
    8.3925   -2.7414    0.0000 H   0  0  0  0  0  0  0  0  0  0  0  0
   10.3979    1.4298    0.0000 H   0  0  0  0  0  0  0  0  0  0  0  0
    9.7860   -3.5676    0.0000 H   0  0  0  0  0  0  0  0  0  0  0  0
   10.3337   -2.6439    0.0000 H   0  0  0  0  0  0  0  0  0  0  0  0
   11.2644   -0.1194    0.0000 H   0  0  0  0  0  0  0  0  0  0  0  0
    4.5981    0.7169    0.0000 H   0  0  0  0  0  0  0  0  0  0  0  0
    6.0010   -1.7131    0.0000 H   0  0  0  0  0  0  0  0  0  0  0  0
    9.4779    2.9476    0.0000 H   0  0  0  0  0  0  0  0  0  0  0  0
    5.4641    2.2169    0.0000 H   0  0  0  0  0  0  0  0  0  0  0  0
    3.1951   -0.0931    0.0000 H   0  0  0  0  0  0  0  0  0  0  0  0
    4.5981   -2.5231    0.0000 H   0  0  0  0  0  0  0  0  0  0  0  0
    2.3100   -0.8662    0.0000 H   0  0  0  0  0  0  0  0  0  0  0  0
    1.4631   -1.0931    0.0000 H   0  0  0  0  0  0  0  0  0  0  0  0
    1.6900   -1.9401    0.0000 H   0  0  0  0  0  0  0  0  0  0  0  0
  1  9  1  0  0  0  0
  1 18  1  0  0  0  0
  2 13  1  0  0  0  0
  2 38  1  0  0  0  0
  3 15  1  0  0  0  0
  3 41  1  0  0  0  0
  4 19  1  0  0  0  0
  4 42  1  0  0  0  0
  5 17  2  0  0  0  0
  6 26  1  0  0  0  0
  6 27  1  0  0  0  0
  7  8  1  0  0  0  0
  7 10  1  0  0  0  0
  7 11  1  0  0  0  0
  7 14  1  0  0  0  0
  8  9  1  0  0  0  0
  8 13  2  0  0  0  0
  9 12  2  0  0  0  0
 10 28  1  0  0  0  0
 10 32  1  0  0  0  0
 10 33  1  0  0  0  0
 11 29  1  0  0  0  0
 11 30  1  0  0  0  0
 11 31  1  0  0  0  0
 12 15  1  0  0  0  0
 12 17  1  0  0  0  0
 13 16  1  0  0  0  0
 14 21  2  0  0  0  0
 14 34  1  0  0  0  0
 15 16  2  0  0  0  0
 16 35  1  0  0  0  0
 17 19  1  0  0  0  0
 18 19  2  0  0  0  0
 18 20  1  0  0  0  0
 20 22  2  0  0  0  0
 20 23  1  0  0  0  0
 21 36  1  0  0  0  0
 21 37  1  0  0  0  0
 22 24  1  0  0  0  0
 22 39  1  0  0  0  0
 23 25  2  0  0  0  0
 23 40  1  0  0  0  0
 24 26  2  0  0  0  0
 24 43  1  0  0  0  0
 25 26  1  0  0  0  0
 25 44  1  0  0  0  0
 27 45  1  0  0  0  0
 27 46  1  0  0  0  0
 27 47  1  0  0  0  0
M  END
> <PUBCHEM_COMPOUND_CID>
5281949

> <PUBCHEM_COMPOUND_CANONICALIZED>
1

> <PUBCHEM_CACTVS_COMPLEXITY>
616

> <PUBCHEM_CACTVS_HBOND_ACCEPTOR>
6

> <PUBCHEM_CACTVS_HBOND_DONOR>
3

> <PUBCHEM_CACTVS_ROTATABLE_BOND>
4

> <PUBCHEM_CACTVS_SUBSKEYS>
AAADceB4OAAAAAAAAAAAAAAAAAAAAAAAAAAwYIAAAAAAAACBQAAAGgAACAAADgSAmAIyBoAABgCIAqBSAAICCAAkIAAIiAFGCMgMJzaGNRqCeWCl4BUIuQfI7PzPoAACCAAIAABAAAQQABAAAAAAAAAAAA==

> <PUBCHEM_IUPAC_OPENEYE_NAME>
8-(1,1-dimethylallyl)-3,5,7-trihydroxy-2-(4-methoxyphenyl)chromen-4-one

> <PUBCHEM_IUPAC_CAS_NAME>
3,5,7-trihydroxy-2-(4-methoxyphenyl)-8-(2-methylbut-3-en-2-yl)-1-benzopyran-4-one

> <PUBCHEM_IUPAC_NAME>
3,5,7-trihydroxy-2-(4-methoxyphenyl)-8-(2-methylbut-3-en-2-yl)chromen-4-one

> <PUBCHEM_IUPAC_SYSTEMATIC_NAME>
2-(4-methoxyphenyl)-8-(2-methylbut-3-en-2-yl)-3,5,7-tris(oxidanyl)chromen-4-one

> <PUBCHEM_IUPAC_TRADITIONAL_NAME>
8-(1,1-dimethylallyl)-3,5,7-trihydroxy-2-(4-methoxyphenyl)chromone

> <PUBCHEM_IUPAC_INCHI>
InChI=1S/C21H20O6/c1-5-21(2,3)16-14(23)10-13(22)15-17(24)18(25)19(27-20(15)16)11-6-8-12(26-4)9-7-11/h5-10,22-23,25H,1H2,2-4H3

> <PUBCHEM_IUPAC_INCHIKEY>
ZETKATWNOCCPNF-UHFFFAOYSA-N

> <PUBCHEM_XLOGP3_AA>
4.8

> <PUBCHEM_EXACT_MASS>
368.125988

> <PUBCHEM_MOLECULAR_FORMULA>
C21H20O6

> <PUBCHEM_MOLECULAR_WEIGHT>
368.3799

> <PUBCHEM_OPENEYE_CAN_SMILES>
CC(C)(C=C)C1=C(C=C(C2=C1OC(=C(C2=O)O)C3=CC=C(C=C3)OC)O)O

> <PUBCHEM_OPENEYE_ISO_SMILES>
CC(C)(C=C)C1=C(C=C(C2=C1OC(=C(C2=O)O)C3=CC=C(C=C3)OC)O)O

> <PUBCHEM_CACTVS_TPSA>
96.2

> <PUBCHEM_MONOISOTOPIC_WEIGHT>
368.125988

> <PUBCHEM_TOTAL_CHARGE>
0

> <PUBCHEM_HEAVY_ATOM_COUNT>
27

> <PUBCHEM_ATOM_DEF_STEREO_COUNT>
0

> <PUBCHEM_ATOM_UDEF_STEREO_COUNT>
0

> <PUBCHEM_BOND_DEF_STEREO_COUNT>
0

> <PUBCHEM_BOND_UDEF_STEREO_COUNT>
0

> <PUBCHEM_ISOTOPIC_ATOM_COUNT>
0

> <PUBCHEM_COMPONENT_COUNT>
1

> <PUBCHEM_CACTVS_TAUTO_COUNT>
24

> <PUBCHEM_COORDINATE_TYPE>
1
5
255

> <PUBCHEM_BONDANNOTATIONS>
1  18  8
1  9  8
12  15  8
12  17  8
13  16  8
15  16  8
17  19  8
18  19  8
20  22  8
20  23  8
22  24  8
23  25  8
24  26  8
25  26  8
8  13  8
8  9  8
9  12  8

$$$$

