11937
  -OEChem-07051213052D

 26 28  0     0  0  0  0  0  0999 V2000
    8.1962    0.7194    0.0000 N   0  0  0  0  0  0  0  0  0  0  0  0
    5.5321    0.1953    0.0000 C   0  0  0  0  0  0  0  0  0  0  0  0
    5.5321   -0.8047    0.0000 C   0  0  0  0  0  0  0  0  0  0  0  0
    3.8000    0.1953    0.0000 C   0  0  0  0  0  0  0  0  0  0  0  0
    3.8000   -0.8047    0.0000 C   0  0  0  0  0  0  0  0  0  0  0  0
    4.6660    0.6953    0.0000 C   0  0  0  0  0  0  0  0  0  0  0  0
    4.6660   -1.3047    0.0000 C   0  0  0  0  0  0  0  0  0  0  0  0
    6.4260    0.7299    0.0000 C   0  0  0  0  0  0  0  0  0  0  0  0
    6.4260   -1.3394    0.0000 C   0  0  0  0  0  0  0  0  0  0  0  0
    2.9061    0.7299    0.0000 C   0  0  0  0  0  0  0  0  0  0  0  0
    2.9061   -1.3394    0.0000 C   0  0  0  0  0  0  0  0  0  0  0  0
    7.3321    0.2161    0.0000 C   0  0  0  0  0  0  0  0  0  0  0  0
    7.3321   -0.8256    0.0000 C   0  0  0  0  0  0  0  0  0  0  0  0
    2.0000    0.2161    0.0000 C   0  0  0  0  0  0  0  0  0  0  0  0
    2.0000   -0.8256    0.0000 C   0  0  0  0  0  0  0  0  0  0  0  0
    4.6660    1.3153    0.0000 H   0  0  0  0  0  0  0  0  0  0  0  0
    4.6660   -1.9247    0.0000 H   0  0  0  0  0  0  0  0  0  0  0  0
    6.4188    1.3499    0.0000 H   0  0  0  0  0  0  0  0  0  0  0  0
    6.4188   -1.9594    0.0000 H   0  0  0  0  0  0  0  0  0  0  0  0
    2.9132    1.3499    0.0000 H   0  0  0  0  0  0  0  0  0  0  0  0
    2.9132   -1.9594    0.0000 H   0  0  0  0  0  0  0  0  0  0  0  0
    7.8678   -1.1376    0.0000 H   0  0  0  0  0  0  0  0  0  0  0  0
    1.4643    0.5281    0.0000 H   0  0  0  0  0  0  0  0  0  0  0  0
    1.4643   -1.1376    0.0000 H   0  0  0  0  0  0  0  0  0  0  0  0
    8.7343    0.4115    0.0000 H   0  0  0  0  0  0  0  0  0  0  0  0
    8.1938    1.3394    0.0000 H   0  0  0  0  0  0  0  0  0  0  0  0
  1 12  1  0  0  0  0
  1 25  1  0  0  0  0
  1 26  1  0  0  0  0
  2  3  1  0  0  0  0
  2  6  2  0  0  0  0
  2  8  1  0  0  0  0
  3  7  2  0  0  0  0
  3  9  1  0  0  0  0
  4  5  1  0  0  0  0
  4  6  1  0  0  0  0
  4 10  2  0  0  0  0
  5  7  1  0  0  0  0
  5 11  2  0  0  0  0
  6 16  1  0  0  0  0
  7 17  1  0  0  0  0
  8 12  2  0  0  0  0
  8 18  1  0  0  0  0
  9 13  2  0  0  0  0
  9 19  1  0  0  0  0
 10 14  1  0  0  0  0
 10 20  1  0  0  0  0
 11 15  1  0  0  0  0
 11 21  1  0  0  0  0
 12 13  1  0  0  0  0
 13 22  1  0  0  0  0
 14 15  2  0  0  0  0
 14 23  1  0  0  0  0
 15 24  1  0  0  0  0
M  END
> <PUBCHEM_COMPOUND_CID>
11937

> <PUBCHEM_COMPOUND_CANONICALIZED>
1

> <PUBCHEM_CACTVS_COMPLEXITY>
225

> <PUBCHEM_CACTVS_HBOND_ACCEPTOR>
1

> <PUBCHEM_CACTVS_HBOND_DONOR>
1

> <PUBCHEM_CACTVS_ROTATABLE_BOND>
0

> <PUBCHEM_CACTVS_SUBSKEYS>
AAADccByAAAAAAAAAAAAAAAAAAAAAAAAAAAwYMAAAAAAAADBVAAAHAAQAAAADAiBGAAwwMBAAACAAiRCQACCAAAgAgAIiAAAZIgIICKAkZGAIABgkAAIyAcQgMAOyAACQAAQAACQAASAACAAAAAAAAAAAA==

> <PUBCHEM_IUPAC_OPENEYE_NAME>
anthracen-2-amine

> <PUBCHEM_IUPAC_CAS_NAME>
2-anthracenamine

> <PUBCHEM_IUPAC_NAME>
anthracen-2-amine

> <PUBCHEM_IUPAC_SYSTEMATIC_NAME>
anthracen-2-amine

> <PUBCHEM_IUPAC_TRADITIONAL_NAME>
2-anthrylamine

> <PUBCHEM_IUPAC_INCHI>
InChI=1S/C14H11N/c15-14-6-5-12-7-10-3-1-2-4-11(10)8-13(12)9-14/h1-9H,15H2

> <PUBCHEM_IUPAC_INCHIKEY>
YCSBALJAGZKWFF-UHFFFAOYSA-N

> <PUBCHEM_XLOGP3>
3.5

> <PUBCHEM_EXACT_MASS>
193.089149

> <PUBCHEM_MOLECULAR_FORMULA>
C14H11N

> <PUBCHEM_MOLECULAR_WEIGHT>
193.24384

> <PUBCHEM_OPENEYE_CAN_SMILES>
C1=CC=C2C=C3C=C(C=CC3=CC2=C1)N

> <PUBCHEM_OPENEYE_ISO_SMILES>
C1=CC=C2C=C3C=C(C=CC3=CC2=C1)N

> <PUBCHEM_CACTVS_TPSA>
26

> <PUBCHEM_MONOISOTOPIC_WEIGHT>
193.089149

> <PUBCHEM_TOTAL_CHARGE>
0

> <PUBCHEM_HEAVY_ATOM_COUNT>
15

> <PUBCHEM_ATOM_DEF_STEREO_COUNT>
0

> <PUBCHEM_ATOM_UDEF_STEREO_COUNT>
0

> <PUBCHEM_BOND_DEF_STEREO_COUNT>
0

> <PUBCHEM_BOND_UDEF_STEREO_COUNT>
0

> <PUBCHEM_ISOTOPIC_ATOM_COUNT>
0

> <PUBCHEM_COMPONENT_COUNT>
1

> <PUBCHEM_CACTVS_TAUTO_COUNT>
1

> <PUBCHEM_COORDINATE_TYPE>
1
5
255

> <PUBCHEM_BONDANNOTATIONS>
10  14  8
11  15  8
12  13  8
14  15  8
2  3  8
2  6  8
2  8  8
3  7  8
3  9  8
4  10  8
4  5  8
4  6  8
5  11  8
5  7  8
8  12  8
9  13  8

$$$$

