13888890
  -OEChem-07051212562D

 47 51  0     1  0  0  0  0  0999 V2000
    5.2901    0.4643    0.0000 O   0  0  0  0  0  0  0  0  0  0  0  0
    7.0567    0.0355    0.0000 O   0  0  0  0  0  0  0  0  0  0  0  0
    2.4064   -0.9162    0.0000 O   0  0  0  0  0  0  0  0  0  0  0  0
    3.8350    1.3629    0.0000 O   0  0  0  0  0  0  0  0  0  0  0  0
    6.6091    1.5928    0.0000 O   0  0  0  0  0  0  0  0  0  0  0  0
    4.8775    1.5573    0.0000 O   0  0  0  0  0  0  0  0  0  0  0  0
    5.3016   -1.4768    0.0000 C   0  0  2  0  0  0  0  0  0  0  0  0
    6.3038   -1.4612    0.0000 C   0  0  1  0  0  0  0  0  0  0  0  0
    4.9748   -0.5297    0.0000 C   0  0  1  0  0  0  0  0  0  0  0  0
    4.0270   -0.3704    0.0000 C   0  0  1  0  0  0  0  0  0  0  0  0
    5.7740    0.0754    0.0000 C   0  0  1  0  0  0  0  0  0  0  0  0
    6.5976   -0.4967    0.0000 C   0  0  0  0  0  0  0  0  0  0  0  0
    4.6628   -2.2127    0.0000 C   0  0  0  0  0  0  0  0  0  0  0  0
    6.9922   -2.1981    0.0000 C   0  0  0  0  0  0  0  0  0  0  0  0
    6.8022   -0.9316    0.0000 C   0  0  2  0  0  0  0  0  0  0  0  0
    3.3882   -1.1063    0.0000 C   0  0  2  0  0  0  0  0  0  0  0  0
    3.7061   -2.0274    0.0000 C   0  0  0  0  0  0  0  0  0  0  0  0
    8.2686   -1.0052    0.0000 C   0  0  2  0  0  0  0  0  0  0  0  0
    7.9747   -1.9702    0.0000 C   0  0  0  0  0  0  0  0  0  0  0  0
    4.3157    0.4860    0.0000 C   0  0  0  0  0  0  0  0  0  0  0  0
    7.5800   -0.2684    0.0000 C   0  0  0  0  0  0  0  0  0  0  0  0
    7.5883   -0.7493    0.0000 C   0  0  0  0  0  0  0  0  0  0  0  0
    3.1591    0.1265    0.0000 C   0  0  0  0  0  0  0  0  0  0  0  0
    5.7536    1.0752    0.0000 C   0  0  0  0  0  0  0  0  0  0  0  0
    8.2821   -0.0291    0.0000 C   0  0  0  0  0  0  0  0  0  0  0  0
    4.7722    0.2958    0.0000 H   0  0  0  0  0  0  0  0  0  0  0  0
    6.3205    0.3683    0.0000 H   0  0  0  0  0  0  0  0  0  0  0  0
    4.4411   -2.7917    0.0000 H   0  0  0  0  0  0  0  0  0  0  0  0
    5.1945   -2.5316    0.0000 H   0  0  0  0  0  0  0  0  0  0  0  0
    6.4726   -2.5362    0.0000 H   0  0  0  0  0  0  0  0  0  0  0  0
    7.2350   -2.7685    0.0000 H   0  0  0  0  0  0  0  0  0  0  0  0
    6.2599   -0.6310    0.0000 H   0  0  0  0  0  0  0  0  0  0  0  0
    3.1859   -0.5202    0.0000 H   0  0  0  0  0  0  0  0  0  0  0  0
    3.0938   -2.1249    0.0000 H   0  0  0  0  0  0  0  0  0  0  0  0
    3.6958   -2.6474    0.0000 H   0  0  0  0  0  0  0  0  0  0  0  0
    9.0966   -0.8131    0.0000 H   0  0  0  0  0  0  0  0  0  0  0  0
    8.0078   -2.5893    0.0000 H   0  0  0  0  0  0  0  0  0  0  0  0
    8.5901   -2.0451    0.0000 H   0  0  0  0  0  0  0  0  0  0  0  0
    7.7605    0.3248    0.0000 H   0  0  0  0  0  0  0  0  0  0  0  0
    3.4672    0.6645    0.0000 H   0  0  0  0  0  0  0  0  0  0  0  0
    2.6211    0.4345    0.0000 H   0  0  0  0  0  0  0  0  0  0  0  0
    2.8511   -0.4116    0.0000 H   0  0  0  0  0  0  0  0  0  0  0  0
    6.6163    0.4720    0.0000 H   0  0  0  0  0  0  0  0  0  0  0  0
    2.0000   -1.3845    0.0000 H   0  0  0  0  0  0  0  0  0  0  0  0
    8.8839   -0.1785    0.0000 H   0  0  0  0  0  0  0  0  0  0  0  0
    8.1106    0.5667    0.0000 H   0  0  0  0  0  0  0  0  0  0  0  0
    6.5964    2.2127    0.0000 H   0  0  0  0  0  0  0  0  0  0  0  0
  7  1  1  1  0  0  0
  1 20  1  0  0  0  0
 15  2  1  1  0  0  0
  2 43  1  0  0  0  0
 16  3  1  6  0  0  0
  3 44  1  0  0  0  0
  4 20  2  0  0  0  0
  5 24  1  0  0  0  0
  5 47  1  0  0  0  0
  6 24  2  0  0  0  0
  7  8  1  0  0  0  0
  7  9  1  0  0  0  0
  7 13  1  0  0  0  0
  8 12  1  0  0  0  0
  8 14  1  1  0  0  0
  8 15  1  0  0  0  0
  9 10  1  0  0  0  0
  9 11  1  0  0  0  0
  9 26  1  6  0  0  0
 10 16  1  0  0  0  0
 10 20  1  0  0  0  0
 10 23  1  6  0  0  0
 11 12  1  0  0  0  0
 11 24  1  6  0  0  0
 11 27  1  0  0  0  0
 12 21  2  0  0  0  0
 13 17  1  0  0  0  0
 13 28  1  0  0  0  0
 13 29  1  0  0  0  0
 14 19  1  0  0  0  0
 14 30  1  0  0  0  0
 14 31  1  0  0  0  0
 15 22  1  0  0  0  0
 15 32  1  0  0  0  0
 16 17  1  0  0  0  0
 16 33  1  0  0  0  0
 17 34  1  0  0  0  0
 17 35  1  0  0  0  0
 18 19  1  0  0  0  0
 18 21  1  0  0  0  0
 18 22  1  0  0  0  0
 18 36  1  6  0  0  0
 19 37  1  0  0  0  0
 19 38  1  0  0  0  0
 21 39  1  0  0  0  0
 22 25  2  0  0  0  0
 23 40  1  0  0  0  0
 23 41  1  0  0  0  0
 23 42  1  0  0  0  0
 25 45  1  0  0  0  0
 25 46  1  0  0  0  0
M  END
> <PUBCHEM_COMPOUND_CID>
13888890

> <PUBCHEM_COMPOUND_CANONICALIZED>
1

> <PUBCHEM_CACTVS_COMPLEXITY>
770

> <PUBCHEM_CACTVS_HBOND_ACCEPTOR>
6

> <PUBCHEM_CACTVS_HBOND_DONOR>
3

> <PUBCHEM_CACTVS_ROTATABLE_BOND>
1

> <PUBCHEM_CACTVS_SUBSKEYS>
AAADceB4OAAAAAAAAAAAAAAAAAAAAaIAAAAwYIEABIASAGAAAAAAGgAACAAAD1SggAICCAAABgCIAiDSCAAAAAAgAAAACAEAAAgAFBYAAQACQAAF4AAIEAPK7vzPgAAAAAAAAADCAAYAADAAAYAADAAAAA==

> <PUBCHEM_IUPAC_INCHI>
InChI=1S/C19H22O6/c1-8-9-3-5-18(14(8)21)10(7-9)12(15(22)23)13-17(2)11(20)4-6-19(13,18)25-16(17)24/h7,9,11-14,20-21H,1,3-6H2,2H3,(H,22,23)/t9-,11+,12-,13-,14+,17-,18-,19+/m1/s1

> <PUBCHEM_IUPAC_INCHIKEY>
JTZFSLGTRUNHFY-QZVHHHNJSA-N

> <PUBCHEM_XLOGP3_AA>
0.1

> <PUBCHEM_EXACT_MASS>
346.141638

> <PUBCHEM_MOLECULAR_FORMULA>
C19H22O6

> <PUBCHEM_MOLECULAR_WEIGHT>
346.37438

> <PUBCHEM_OPENEYE_CAN_SMILES>
CC12C(CCC3(C1C(C4=CC5CCC43C(C5=C)O)C(=O)O)OC2=O)O

> <PUBCHEM_OPENEYE_ISO_SMILES>
C[C@@]12[C@H](CC[C@@]3([C@@H]1[C@@H](C4=C[C@H]5CC[C@]43[C@H](C5=C)O)C(=O)O)OC2=O)O

> <PUBCHEM_CACTVS_TPSA>
104

> <PUBCHEM_MONOISOTOPIC_WEIGHT>
346.141638

> <PUBCHEM_TOTAL_CHARGE>
0

> <PUBCHEM_HEAVY_ATOM_COUNT>
25

> <PUBCHEM_ATOM_DEF_STEREO_COUNT>
8

> <PUBCHEM_ATOM_UDEF_STEREO_COUNT>
0

> <PUBCHEM_BOND_DEF_STEREO_COUNT>
0

> <PUBCHEM_BOND_UDEF_STEREO_COUNT>
0

> <PUBCHEM_ISOTOPIC_ATOM_COUNT>
0

> <PUBCHEM_COMPONENT_COUNT>
1

> <PUBCHEM_CACTVS_TAUTO_COUNT>
1

> <PUBCHEM_COORDINATE_TYPE>
1
5
255

> <PUBCHEM_BONDANNOTATIONS>
7  1  5
10  23  6
11  24  6
18  36  6
15  2  5
16  3  6
8  14  5
9  26  6

$$$$

