14314
  -OEChem-06241222432D

 20 21  0     0  0  0  0  0  0999 V2000
    2.8660    1.6276    0.0000 S   0  0  0  0  0  0  0  0  0  0  0  0
    4.6783   -1.1771    0.0000 N   0  0  0  0  0  0  0  0  0  0  0  0
    4.6783    0.4324    0.0000 N   0  0  0  0  0  0  0  0  0  0  0  0
    2.8660   -1.3724    0.0000 N   0  0  0  0  0  0  0  0  0  0  0  0
    2.0000    0.1276    0.0000 N   0  0  0  0  0  0  0  0  0  0  0  0
    3.7320   -0.8724    0.0000 C   0  0  0  0  0  0  0  0  0  0  0  0
    3.7320    0.1276    0.0000 C   0  0  0  0  0  0  0  0  0  0  0  0
    5.2619   -0.3724    0.0000 C   0  0  0  0  0  0  0  0  0  0  0  0
    2.8660    0.6276    0.0000 C   0  0  0  0  0  0  0  0  0  0  0  0
    4.9889   -2.1276    0.0000 C   0  0  0  0  0  0  0  0  0  0  0  0
    2.0000   -0.8724    0.0000 C   0  0  0  0  0  0  0  0  0  0  0  0
    2.0000    2.1276    0.0000 C   0  0  0  0  0  0  0  0  0  0  0  0
    5.8819   -0.3724    0.0000 H   0  0  0  0  0  0  0  0  0  0  0  0
    4.3996   -2.3202    0.0000 H   0  0  0  0  0  0  0  0  0  0  0  0
    5.1815   -2.7170    0.0000 H   0  0  0  0  0  0  0  0  0  0  0  0
    5.5783   -1.9350    0.0000 H   0  0  0  0  0  0  0  0  0  0  0  0
    1.4631   -1.1824    0.0000 H   0  0  0  0  0  0  0  0  0  0  0  0
    2.3100    2.6646    0.0000 H   0  0  0  0  0  0  0  0  0  0  0  0
    1.4631    2.4376    0.0000 H   0  0  0  0  0  0  0  0  0  0  0  0
    1.6900    1.5907    0.0000 H   0  0  0  0  0  0  0  0  0  0  0  0
  1  9  1  0  0  0  0
  1 12  1  0  0  0  0
  2  6  1  0  0  0  0
  2  8  1  0  0  0  0
  2 10  1  0  0  0  0
  3  7  1  0  0  0  0
  3  8  2  0  0  0  0
  4  6  1  0  0  0  0
  4 11  2  0  0  0  0
  5  9  2  0  0  0  0
  5 11  1  0  0  0  0
  6  7  2  0  0  0  0
  7  9  1  0  0  0  0
  8 13  1  0  0  0  0
 10 14  1  0  0  0  0
 10 15  1  0  0  0  0
 10 16  1  0  0  0  0
 11 17  1  0  0  0  0
 12 18  1  0  0  0  0
 12 19  1  0  0  0  0
 12 20  1  0  0  0  0
M  END
> <PUBCHEM_COMPOUND_CID>
14314

> <PUBCHEM_COMPOUND_CANONICALIZED>
1

> <PUBCHEM_CACTVS_COMPLEXITY>
166

> <PUBCHEM_CACTVS_HBOND_ACCEPTOR>
4

> <PUBCHEM_CACTVS_HBOND_DONOR>
0

> <PUBCHEM_CACTVS_ROTATABLE_BOND>
1

> <PUBCHEM_CACTVS_SUBSKEYS>
AAADccBjgABAAAAAAAAAAAAAAAAAAWAAAAAsAAAAAAAAAFgB+AAAHAQAAAAACAgBVwSH8b8MEAigAQZhZACA0C1RGLABUDQoVBCASABgSEAUBAwIAAJAACAAAAAAAAAAAAAAAAAAAAAAAAAAAAAAAAAAAA==

> <PUBCHEM_IUPAC_OPENEYE_NAME>
9-methyl-6-methylsulfanyl-purine

> <PUBCHEM_IUPAC_CAS_NAME>
9-methyl-6-(methylthio)purine

> <PUBCHEM_IUPAC_NAME>
9-methyl-6-methylsulfanylpurine

> <PUBCHEM_IUPAC_SYSTEMATIC_NAME>
9-methyl-6-methylsulfanyl-purine

> <PUBCHEM_IUPAC_TRADITIONAL_NAME>
9-methyl-6-(methylthio)purine

> <PUBCHEM_IUPAC_INCHI>
InChI=1S/C7H8N4S/c1-11-4-10-5-6(11)8-3-9-7(5)12-2/h3-4H,1-2H3

> <PUBCHEM_IUPAC_INCHIKEY>
WSHSHJGZEQTGJO-UHFFFAOYSA-N

> <PUBCHEM_XLOGP3>
1.2

> <PUBCHEM_EXACT_MASS>
180.046967

> <PUBCHEM_MOLECULAR_FORMULA>
C7H8N4S

> <PUBCHEM_MOLECULAR_WEIGHT>
180.23022

> <PUBCHEM_OPENEYE_CAN_SMILES>
CN1C=NC2=C1N=CN=C2SC

> <PUBCHEM_OPENEYE_ISO_SMILES>
CN1C=NC2=C1N=CN=C2SC

> <PUBCHEM_CACTVS_TPSA>
68.9

> <PUBCHEM_MONOISOTOPIC_WEIGHT>
180.046967

> <PUBCHEM_TOTAL_CHARGE>
0

> <PUBCHEM_HEAVY_ATOM_COUNT>
12

> <PUBCHEM_ATOM_DEF_STEREO_COUNT>
0

> <PUBCHEM_ATOM_UDEF_STEREO_COUNT>
0

> <PUBCHEM_BOND_DEF_STEREO_COUNT>
0

> <PUBCHEM_BOND_UDEF_STEREO_COUNT>
0

> <PUBCHEM_ISOTOPIC_ATOM_COUNT>
0

> <PUBCHEM_COMPONENT_COUNT>
1

> <PUBCHEM_CACTVS_TAUTO_COUNT>
1

> <PUBCHEM_COORDINATE_TYPE>
1
5
255

> <PUBCHEM_BONDANNOTATIONS>
2  6  8
2  8  8
3  7  8
3  8  8
4  11  8
4  6  8
5  11  8
5  9  8
6  7  8
7  9  8

$$$$

