443294
  -OEChem-07051213012D

 58 61  0     1  0  0  0  0  0999 V2000
    7.8133   -0.1497    0.0000 S   0  0  0  0  0  0  0  0  0  0  0  0
    5.1350   -1.8450    0.0000 O   0  0  0  0  0  0  0  0  0  0  0  0
    4.2690   -0.3450    0.0000 O   0  0  0  0  0  0  0  0  0  0  0  0
    2.5369   -3.3450    0.0000 O   0  0  0  0  0  0  0  0  0  0  0  0
    2.5369   -1.3450    0.0000 O   0  0  0  0  0  0  0  0  0  0  0  0
    4.2690   -4.3450    0.0000 O   0  0  0  0  0  0  0  0  0  0  0  0
    6.8671   -2.8450    0.0000 O   0  0  0  0  0  0  0  0  0  0  0  0
    6.0010   -4.3450    0.0000 O   0  0  0  0  0  0  0  0  0  0  0  0
    7.8133    1.4597    0.0000 N   0  0  0  0  0  0  0  0  0  0  0  0
    9.3969    0.6550    0.0000 N   0  0  0  0  0  0  0  0  0  0  0  0
    3.4030    3.1550    0.0000 N   0  0  0  0  0  0  0  0  0  0  0  0
    3.4030   -2.8450    0.0000 C   0  0  2  0  0  0  0  0  0  0  0  0
    3.4030   -1.8450    0.0000 C   0  0  2  0  0  0  0  0  0  0  0  0
    4.2690   -3.3450    0.0000 C   0  0  1  0  0  0  0  0  0  0  0  0
    4.2690   -1.3450    0.0000 C   0  0  1  0  0  0  0  0  0  0  0  0
    5.1350   -2.8450    0.0000 C   0  0  1  0  0  0  0  0  0  0  0  0
    5.1350    0.1550    0.0000 C   0  0  0  0  0  0  0  0  0  0  0  0
    6.0010   -3.3450    0.0000 C   0  0  0  0  0  0  0  0  0  0  0  0
    5.1350    1.1550    0.0000 C   0  0  0  0  0  0  0  0  0  0  0  0
    6.0010   -0.3450    0.0000 C   0  0  0  0  0  0  0  0  0  0  0  0
    6.0010    1.6550    0.0000 C   0  0  0  0  0  0  0  0  0  0  0  0
    6.8671    0.1550    0.0000 C   0  0  0  0  0  0  0  0  0  0  0  0
    6.8671    1.1550    0.0000 C   0  0  0  0  0  0  0  0  0  0  0  0
    6.0010    2.6550    0.0000 C   0  0  0  0  0  0  0  0  0  0  0  0
    4.2690    1.6550    0.0000 C   0  0  0  0  0  0  0  0  0  0  0  0
    6.0010   -1.3450    0.0000 C   0  0  0  0  0  0  0  0  0  0  0  0
    5.1350    3.1550    0.0000 C   0  0  0  0  0  0  0  0  0  0  0  0
    8.3969    0.6550    0.0000 C   0  0  0  0  0  0  0  0  0  0  0  0
    5.1350    4.1550    0.0000 C   0  0  0  0  0  0  0  0  0  0  0  0
    4.2690    2.6550    0.0000 C   0  0  0  0  0  0  0  0  0  0  0  0
    4.2690    4.6550    0.0000 C   0  0  0  0  0  0  0  0  0  0  0  0
    9.8969   -0.2110    0.0000 C   0  0  0  0  0  0  0  0  0  0  0  0
    3.4030    4.1550    0.0000 C   0  0  0  0  0  0  0  0  0  0  0  0
    3.4030   -3.4650    0.0000 H   0  0  0  0  0  0  0  0  0  0  0  0
    3.4030   -1.2250    0.0000 H   0  0  0  0  0  0  0  0  0  0  0  0
    4.8059   -3.6550    0.0000 H   0  0  0  0  0  0  0  0  0  0  0  0
    3.7320   -1.0350    0.0000 H   0  0  0  0  0  0  0  0  0  0  0  0
    5.6720   -2.5350    0.0000 H   0  0  0  0  0  0  0  0  0  0  0  0
    2.5369   -3.9650    0.0000 H   0  0  0  0  0  0  0  0  0  0  0  0
    2.0000   -1.6550    0.0000 H   0  0  0  0  0  0  0  0  0  0  0  0
    3.7320   -4.6550    0.0000 H   0  0  0  0  0  0  0  0  0  0  0  0
    6.6116    2.5473    0.0000 H   0  0  0  0  0  0  0  0  0  0  0  0
    6.2131    3.2376    0.0000 H   0  0  0  0  0  0  0  0  0  0  0  0
    4.5790    2.1919    0.0000 H   0  0  0  0  0  0  0  0  0  0  0  0
    3.7320    1.9650    0.0000 H   0  0  0  0  0  0  0  0  0  0  0  0
    3.9590    1.1181    0.0000 H   0  0  0  0  0  0  0  0  0  0  0  0
    5.3810   -1.3450    0.0000 H   0  0  0  0  0  0  0  0  0  0  0  0
    6.0010   -1.9650    0.0000 H   0  0  0  0  0  0  0  0  0  0  0  0
    6.6210   -1.3450    0.0000 H   0  0  0  0  0  0  0  0  0  0  0  0
    7.4040   -3.1550    0.0000 H   0  0  0  0  0  0  0  0  0  0  0  0
    5.6720    4.4650    0.0000 H   0  0  0  0  0  0  0  0  0  0  0  0
    4.2690    2.0350    0.0000 H   0  0  0  0  0  0  0  0  0  0  0  0
    9.7069    1.1919    0.0000 H   0  0  0  0  0  0  0  0  0  0  0  0
    4.2690    5.2750    0.0000 H   0  0  0  0  0  0  0  0  0  0  0  0
    9.3600   -0.5210    0.0000 H   0  0  0  0  0  0  0  0  0  0  0  0
   10.2069   -0.7480    0.0000 H   0  0  0  0  0  0  0  0  0  0  0  0
   10.4338    0.0990    0.0000 H   0  0  0  0  0  0  0  0  0  0  0  0
    2.8660    4.4650    0.0000 H   0  0  0  0  0  0  0  0  0  0  0  0
  1 22  1  0  0  0  0
  1 28  1  0  0  0  0
  2 15  1  0  0  0  0
  2 16  1  0  0  0  0
 15  3  1  6  0  0  0
  3 17  1  0  0  0  0
 12  4  1  6  0  0  0
  4 39  1  0  0  0  0
 13  5  1  1  0  0  0
  5 40  1  0  0  0  0
 14  6  1  1  0  0  0
  6 41  1  0  0  0  0
  7 18  1  0  0  0  0
  7 50  1  0  0  0  0
  8 18  2  0  0  0  0
  9 23  1  0  0  0  0
  9 28  2  0  0  0  0
 10 28  1  0  0  0  0
 10 32  1  0  0  0  0
 10 53  1  0  0  0  0
 11 30  1  0  0  0  0
 11 33  2  0  0  0  0
 12 13  1  0  0  0  0
 12 14  1  0  0  0  0
 12 34  1  0  0  0  0
 13 15  1  0  0  0  0
 13 35  1  0  0  0  0
 14 16  1  0  0  0  0
 14 36  1  0  0  0  0
 15 37  1  0  0  0  0
 16 18  1  6  0  0  0
 16 38  1  0  0  0  0
 17 19  1  0  0  0  0
 17 20  2  0  0  0  0
 19 21  2  0  0  0  0
 19 25  1  0  0  0  0
 20 22  1  0  0  0  0
 20 26  1  0  0  0  0
 21 23  1  0  0  0  0
 21 24  1  0  0  0  0
 22 23  2  0  0  0  0
 24 27  1  0  0  0  0
 24 42  1  0  0  0  0
 24 43  1  0  0  0  0
 25 44  1  0  0  0  0
 25 45  1  0  0  0  0
 25 46  1  0  0  0  0
 26 47  1  0  0  0  0
 26 48  1  0  0  0  0
 26 49  1  0  0  0  0
 27 29  1  0  0  0  0
 27 30  2  0  0  0  0
 29 31  2  0  0  0  0
 29 51  1  0  0  0  0
 30 52  1  0  0  0  0
 31 33  1  0  0  0  0
 31 54  1  0  0  0  0
 32 55  1  0  0  0  0
 32 56  1  0  0  0  0
 32 57  1  0  0  0  0
 33 58  1  0  0  0  0
M  END
> <PUBCHEM_COMPOUND_CID>
443294

> <PUBCHEM_COMPOUND_CANONICALIZED>
1

> <PUBCHEM_CACTVS_COMPLEXITY>
690

> <PUBCHEM_CACTVS_HBOND_ACCEPTOR>
11

> <PUBCHEM_CACTVS_HBOND_DONOR>
5

> <PUBCHEM_CACTVS_ROTATABLE_BOND>
6

> <PUBCHEM_CACTVS_SUBSKEYS>
AAADceB7OABAAAAAAAAAAAAAAAAAAWAAAAA8SIAAAAAAAFgB/AAAHgQQCAAADBzx3gc/37LIFgisAzT3bAKD+KlxKjkJ2LV8bJidNvbksZ+meCjt4BPP6Cf67PxO0EADxAAeAQCggAeIADwCAAAAAAAAAA==

> <PUBCHEM_IUPAC_OPENEYE_NAME>
(2S,3S,4S,5R,6S)-6-[[5,7-dimethyl-2-(methylamino)-4-(3-pyridylmethyl)-1,3-benzothiazol-6-yl]oxy]-3,4,5-trihydroxy-tetrahydropyran-2-carboxylic acid

> <PUBCHEM_IUPAC_CAS_NAME>
(2S,3S,4S,5R,6S)-6-[[5,7-dimethyl-2-(methylamino)-4-(3-pyridinylmethyl)-1,3-benzothiazol-6-yl]oxy]-3,4,5-trihydroxy-2-oxanecarboxylic acid

> <PUBCHEM_IUPAC_NAME>
(2S,3S,4S,5R,6S)-6-[[5,7-dimethyl-2-(methylamino)-4-(pyridin-3-ylmethyl)-1,3-benzothiazol-6-yl]oxy]-3,4,5-trihydroxyoxane-2-carboxylic acid

> <PUBCHEM_IUPAC_SYSTEMATIC_NAME>
(2S,3S,4S,5R,6S)-6-[[5,7-dimethyl-2-(methylamino)-4-(pyridin-3-ylmethyl)-1,3-benzothiazol-6-yl]oxy]-3,4,5-tris(oxidanyl)oxane-2-carboxylic acid

> <PUBCHEM_IUPAC_TRADITIONAL_NAME>
(2S,3S,4S,5R,6S)-6-[[5,7-dimethyl-2-(methylamino)-4-(3-pyridylmethyl)-1,3-benzothiazol-6-yl]oxy]-3,4,5-trihydroxy-tetrahydropyran-2-carboxylic acid

> <PUBCHEM_IUPAC_INCHI>
InChI=1S/C22H25N3O7S/c1-9-12(7-11-5-4-6-24-8-11)13-19(33-22(23-3)25-13)10(2)17(9)31-21-16(28)14(26)15(27)18(32-21)20(29)30/h4-6,8,14-16,18,21,26-28H,7H2,1-3H3,(H,23,25)(H,29,30)/t14-,15-,16+,18-,21+/m0/s1

> <PUBCHEM_IUPAC_INCHIKEY>
RJBKVKVYNJTHJS-DQSYDGHTSA-N

> <PUBCHEM_XLOGP3_AA>
2.4

> <PUBCHEM_EXACT_MASS>
475.141321

> <PUBCHEM_MOLECULAR_FORMULA>
C22H25N3O7S

> <PUBCHEM_MOLECULAR_WEIGHT>
475.5148

> <PUBCHEM_OPENEYE_CAN_SMILES>
CC1=C(C2=C(C(=C1OC3C(C(C(C(O3)C(=O)O)O)O)O)C)SC(=N2)NC)CC4=CN=CC=C4

> <PUBCHEM_OPENEYE_ISO_SMILES>
CC1=C(C2=C(C(=C1O[C@H]3[C@@H]([C@H]([C@@H]([C@H](O3)C(=O)O)O)O)O)C)SC(=N2)NC)CC4=CN=CC=C4

> <PUBCHEM_CACTVS_TPSA>
183

> <PUBCHEM_MONOISOTOPIC_WEIGHT>
475.141321

> <PUBCHEM_TOTAL_CHARGE>
0

> <PUBCHEM_HEAVY_ATOM_COUNT>
33

> <PUBCHEM_ATOM_DEF_STEREO_COUNT>
5

> <PUBCHEM_ATOM_UDEF_STEREO_COUNT>
0

> <PUBCHEM_BOND_DEF_STEREO_COUNT>
0

> <PUBCHEM_BOND_UDEF_STEREO_COUNT>
0

> <PUBCHEM_ISOTOPIC_ATOM_COUNT>
0

> <PUBCHEM_COMPONENT_COUNT>
1

> <PUBCHEM_CACTVS_TAUTO_COUNT>
2

> <PUBCHEM_COORDINATE_TYPE>
1
5
255

> <PUBCHEM_BONDANNOTATIONS>
1  22  8
1  28  8
11  30  8
11  33  8
16  18  6
17  19  8
17  20  8
19  21  8
20  22  8
21  23  8
22  23  8
27  29  8
27  30  8
29  31  8
15  3  6
31  33  8
12  4  6
13  5  5
14  6  5
9  23  8
9  28  8

$$$$

