3035199
  -OEChem-07051213152D

 40 42  0     1  0  0  0  0  0999 V2000
    7.7886   -2.1254    0.0000 S   0  0  0  0  0  0  0  0  0  0  0  0
    5.1971   -2.1511    0.0000 O   0  0  0  0  0  0  0  0  0  0  0  0
    4.3221   -1.3660    0.0000 O   0  0  0  0  0  0  0  0  0  0  0  0
    6.7886   -2.1254    0.0000 O   0  0  0  0  0  0  0  0  0  0  0  0
    5.0907    2.8154    0.0000 O   0  0  0  0  0  0  0  0  0  0  0  0
    3.3586    2.8154    0.0000 O   0  0  0  0  0  0  0  0  0  0  0  0
    8.7886   -2.1254    0.0000 O   0  0  0  0  0  0  0  0  0  0  0  0
    7.7886   -3.1254    0.0000 O   0  0  0  0  0  0  0  0  0  0  0  0
    7.7886   -1.1254    0.0000 O   0  0  0  0  0  0  0  0  0  0  0  0
    5.9567    0.3154    0.0000 N   0  0  0  0  0  0  0  0  0  0  0  0
    3.2528    0.1062    0.0000 N   0  0  0  0  0  0  0  0  0  0  0  0
    4.4236   -0.9216    0.0000 N   0  0  0  0  0  0  0  0  0  0  0  0
    5.0907    1.8154    0.0000 N   0  0  0  0  0  0  0  0  0  0  0  0
    6.8227    1.8154    0.0000 N   0  0  0  0  0  0  0  0  0  0  0  0
    2.5897   -1.3686    0.0000 N   0  0  0  0  0  0  0  0  0  0  0  0
    5.0907   -0.1846    0.0000 C   0  0  1  0  0  0  0  0  0  0  0  0
    4.2247    0.3154    0.0000 C   0  0  2  0  0  0  0  0  0  0  0  0
    5.2999   -1.1564    0.0000 C   0  0  0  0  0  0  0  0  0  0  0  0
    6.2886   -1.2594    0.0000 C   0  0  1  0  0  0  0  0  0  0  0  0
    4.2247    1.3154    0.0000 C   0  0  2  0  0  0  0  0  0  0  0  0
    6.6937   -0.3516    0.0000 C   0  0  0  0  0  0  0  0  0  0  0  0
    5.9567    1.3154    0.0000 C   0  0  0  0  0  0  0  0  0  0  0  0
    3.3328   -0.6995    0.0000 C   0  0  0  0  0  0  0  0  0  0  0  0
    3.3586    1.8154    0.0000 C   0  0  0  0  0  0  0  0  0  0  0  0
    3.6023    0.8181    0.0000 H   0  0  0  0  0  0  0  0  0  0  0  0
    5.9512   -1.7795    0.0000 H   0  0  0  0  0  0  0  0  0  0  0  0
    4.2247    1.9354    0.0000 H   0  0  0  0  0  0  0  0  0  0  0  0
    7.0592    0.1492    0.0000 H   0  0  0  0  0  0  0  0  0  0  0  0
    7.2302   -0.6624    0.0000 H   0  0  0  0  0  0  0  0  0  0  0  0
    2.7154    0.4153    0.0000 H   0  0  0  0  0  0  0  0  0  0  0  0
    2.7481    1.9231    0.0000 H   0  0  0  0  0  0  0  0  0  0  0  0
    3.1466    1.2328    0.0000 H   0  0  0  0  0  0  0  0  0  0  0  0
    4.6311   -2.4042    0.0000 H   0  0  0  0  0  0  0  0  0  0  0  0
    4.1315   -1.9560    0.0000 H   0  0  0  0  0  0  0  0  0  0  0  0
    6.8227    2.4354    0.0000 H   0  0  0  0  0  0  0  0  0  0  0  0
    2.0000   -1.1770    0.0000 H   0  0  0  0  0  0  0  0  0  0  0  0
    2.7186   -1.9750    0.0000 H   0  0  0  0  0  0  0  0  0  0  0  0
    5.6276    3.1254    0.0000 H   0  0  0  0  0  0  0  0  0  0  0  0
    2.8217    3.1254    0.0000 H   0  0  0  0  0  0  0  0  0  0  0  0
    9.0986   -2.6624    0.0000 H   0  0  0  0  0  0  0  0  0  0  0  0
  1  4  1  0  0  0  0
  1  7  1  0  0  0  0
  1  8  2  0  0  0  0
  1  9  2  0  0  0  0
  2 18  1  0  0  0  0
  2 33  1  0  0  0  0
  3 18  1  0  0  0  0
  3 34  1  0  0  0  0
  4 19  1  0  0  0  0
  5 13  1  0  0  0  0
  5 38  1  0  0  0  0
  6 24  1  0  0  0  0
  6 39  1  0  0  0  0
  7 40  1  0  0  0  0
 10 16  1  0  0  0  0
 10 21  1  0  0  0  0
 10 22  1  0  0  0  0
 11 17  1  0  0  0  0
 11 23  1  0  0  0  0
 11 30  1  0  0  0  0
 16 12  1  6  0  0  0
 12 23  2  0  0  0  0
 13 20  1  0  0  0  0
 13 22  1  0  0  0  0
 14 22  2  0  0  0  0
 14 35  1  0  0  0  0
 15 23  1  0  0  0  0
 15 36  1  0  0  0  0
 15 37  1  0  0  0  0
 16 17  1  0  0  0  0
 16 18  1  1  0  0  0
 17 20  1  0  0  0  0
 17 25  1  1  0  0  0
 18 19  1  0  0  0  0
 19 21  1  0  0  0  0
 19 26  1  6  0  0  0
 20 24  1  0  0  0  0
 20 27  1  1  0  0  0
 21 28  1  0  0  0  0
 21 29  1  0  0  0  0
 24 31  1  0  0  0  0
 24 32  1  0  0  0  0
M  END
> <PUBCHEM_COMPOUND_CID>
3035199

> <PUBCHEM_COMPOUND_CANONICALIZED>
1

> <PUBCHEM_CACTVS_COMPLEXITY>
705

> <PUBCHEM_CACTVS_HBOND_ACCEPTOR>
10

> <PUBCHEM_CACTVS_HBOND_DONOR>
8

> <PUBCHEM_CACTVS_ROTATABLE_BOND>
3

> <PUBCHEM_CACTVS_SUBSKEYS>
AAADceBzvABAAAAAAAAAAAAAAAAAAWIAAAAsAAAAAAAAAFgAAAAAHgAUCAAACDzhgAYBCAPQAoAgAAAAJDAAAAGAAAAhAIAIAACDUAIAyAAUQAAOEAKRAAGw8CcAAAAAAAAAAAAAAAAAAAAAAAAAAAAAAA==

> <PUBCHEM_IUPAC_OPENEYE_NAME>
[(3aS,4R,9R,10aS)-2-amino-5,10,10-trihydroxy-4-(hydroxymethyl)-6-imino-3a,4,8,9-tetrahydro-3H-pyrrolo[1,2-c]purin-9-yl] hydrogen sulfate

> <PUBCHEM_IUPAC_CAS_NAME>
sulfuric acid [(3aS,4R,9R,10aS)-2-amino-5,10,10-trihydroxy-4-(hydroxymethyl)-6-imino-3a,4,8,9-tetrahydro-3H-pyrrolo[1,2-c]purin-9-yl] ester

> <PUBCHEM_IUPAC_NAME>
[(3aS,4R,9R,10aS)-2-amino-5,10,10-trihydroxy-4-(hydroxymethyl)-6-imino-3a,4,8,9-tetrahydro-3H-pyrrolo[1,2-c]purin-9-yl] hydrogen sulfate

> <PUBCHEM_IUPAC_SYSTEMATIC_NAME>
[(3aS,4R,9R,10aS)-2-azanyl-6-azanylidene-4-(hydroxymethyl)-5,10,10-tris(oxidanyl)-3a,4,8,9-tetrahydro-3H-pyrrolo[1,2-c]purin-9-yl] hydrogen sulfate

> <PUBCHEM_IUPAC_TRADITIONAL_NAME>
sulfuric acid [(3aS,4R,9R,10aS)-2-amino-5,10,10-trihydroxy-6-imino-4-methylol-3a,4,8,9-tetrahydro-3H-pyrrolo[1,2-c]purin-9-yl] ester

> <PUBCHEM_IUPAC_INCHI>
InChI=1S/C9H16N6O8S/c10-6-12-5-3(2-16)15(19)7(11)14-1-4(23-24(20,21)22)9(17,18)8(5,14)13-6/h3-5,11,16-19H,1-2H2,(H3,10,12,13)(H,20,21,22)/t3-,4+,5-,8-/m0/s1

> <PUBCHEM_IUPAC_INCHIKEY>
AXKNFGCPJPRVCA-WVBYAZCYSA-N

> <PUBCHEM_XLOGP3_AA>
-5.1

> <PUBCHEM_EXACT_MASS>
368.075032

> <PUBCHEM_MOLECULAR_FORMULA>
C9H16N6O8S

> <PUBCHEM_MOLECULAR_WEIGHT>
368.32374

> <PUBCHEM_OPENEYE_CAN_SMILES>
C1C(C(C23N1C(=N)N(C(C2NC(=N3)N)CO)O)(O)O)OS(=O)(=O)O

> <PUBCHEM_OPENEYE_ISO_SMILES>
C1[C@H](C([C@@]23N1C(=N)N([C@H]([C@@H]2NC(=N3)N)CO)O)(O)O)OS(=O)(=O)O

> <PUBCHEM_CACTVS_TPSA>
234

> <PUBCHEM_MONOISOTOPIC_WEIGHT>
368.075032

> <PUBCHEM_TOTAL_CHARGE>
0

> <PUBCHEM_HEAVY_ATOM_COUNT>
24

> <PUBCHEM_ATOM_DEF_STEREO_COUNT>
4

> <PUBCHEM_ATOM_UDEF_STEREO_COUNT>
0

> <PUBCHEM_BOND_DEF_STEREO_COUNT>
0

> <PUBCHEM_BOND_UDEF_STEREO_COUNT>
0

> <PUBCHEM_ISOTOPIC_ATOM_COUNT>
0

> <PUBCHEM_COMPONENT_COUNT>
1

> <PUBCHEM_CACTVS_TAUTO_COUNT>
3

> <PUBCHEM_COORDINATE_TYPE>
1
5
255

> <PUBCHEM_BONDANNOTATIONS>
16  12  6
16  18  5
17  25  5
19  26  6
20  27  5

$$$$

