   Color/Form

     * Monoclinic leaflets from dilute alcohol
     * Crystals
     * Colorless, tan, amber, or brown crystalline solid.

   from [1]HSDB

   Odor
        Pleasant, floral odor.
   from [2]HSDB

   Boiling Point
        302 deg C
   from [3]HSDB

   Melting Point
        53-54 deg C
   from [4]HSDB

   Density/Specific Gravity
        1.16
   from [5]HSDB

   Dissociation Constants
        pKa = 0.78 @ 24 deg C
   from [6]HSDB

   Heat of Combustion
        -16.300 BTU/LB= -9.060 CAL/G= -379X10+5 J/KG
   from [7]HSDB

   Octanol/Water Partition Coefficient
        log Kow = 3.50
   from [8]HSDB

   Solubilities

     * 1 g dissolves in 2.2 ml of alcohol, 4 ml propyl alcohol; Freely sol
       in benzene, ether, glacial acetic acid, carbon disulfide.
     * Very sol in ethanol, acetone, benzene, carbon tetrachloride,
       pyridine, ethyl acetate; sol in ether, acetic acid; slightly sol in
       chloroform
     * Soluble in oxygenated and aromatic solvents
     * In water, 53 mg/liter @ 20 deg C

   from [9]HSDB

   Spectral Properties

     * MAX ABSORPTION (ALCOHOL): 208 NM (LOG E= 4.33); 286 NM (LOG E=
       4.29); SADTLER REFERENCE NUMBER: 68 (IR, PRISM); 8009 (IR, GRATING)
     * Intense mass spectral peaks: 169 m/z (100%), 168 m/z (47%), 167 m/z
       (28%), 51 m/z (14%)
     * IR: 4833 (Coblentz Society Spectral Collection)
     * UV: 30 (Sadtler Research Laboratories Spectral Collection)
     * NMR: 11 (Sadtler Research Laboratories Spectral Collection)
     * MASS: 60820 (NIST/EPA/MSDC Mass Spectral Database, 1990 Version);
       4272 (National Bureau of Standards)
     * RAMAN:241 (Sadtler Research Laboratories spectral collection)

   from [10]HSDB

   Surface Tension
        39.3 DYNES/CM = 0.0393 N/M @ 60 DEG C
   from [11]HSDB

   Vapor Density
        5.82 (Air= 1)
   from [12]HSDB

   Vapor Pressure
        6.70X10-4 mm Hg @ 25 deg C
   from [13]HSDB

   Other Chemical/Physical Properties

     * Forms salts with strong acids
     * Henry's Law constant: 2.69X10-006 atm-cu m/mole @ 25 deg C
       /Estimated/
     * Hydroxyl radical reaction rate constant: 2.00X10-10 cu
       m/molecule-sec @ 25 deg C

   from [14]HSDB

   Computed Properties
   Molecular Weight                  169.22244 [g/mol]
   Molecular Formula                 C[12]H[11]N
   XLogP3                            3.5
   H-Bond Donor                      1
   H-Bond Acceptor                   1
   Rotatable Bond Count              2
   Exact Mass                        169.089149
   MonoIsotopic Mass                 169.089149
   Topological Polar Surface Area    12
   Heavy Atom Count                  13
   Formal Charge                     0
   Complexity                        116
   Isotope Atom Count                0
   Defined Atom Stereocenter Count   0
   Undefined Atom Stereocenter Count 0
   Defined Bond Stereocenter Count   0
   Undefined Bond Stereocenter Count 0
   Covalently-Bonded Unit Count      1
   Feature 3D Donor Count            1
   Feature 3D Cation Count           1
   Feature 3D Ring Count             2
   Effective Rotor Count             2
   Conformer Sampling RMSD           0.6
   CID Conformer Count               [15]3

References

   1. http://toxnet.nlm.nih.gov/cgi-bin/sis/search/r?dbs+hsdb:@term+@rn+@rel+122-39-4
   2. http://toxnet.nlm.nih.gov/cgi-bin/sis/search/r?dbs+hsdb:@term+@rn+@rel+122-39-4
   3. http://toxnet.nlm.nih.gov/cgi-bin/sis/search/r?dbs+hsdb:@term+@rn+@rel+122-39-4
   4. http://toxnet.nlm.nih.gov/cgi-bin/sis/search/r?dbs+hsdb:@term+@rn+@rel+122-39-4
   5. http://toxnet.nlm.nih.gov/cgi-bin/sis/search/r?dbs+hsdb:@term+@rn+@rel+122-39-4
   6. http://toxnet.nlm.nih.gov/cgi-bin/sis/search/r?dbs+hsdb:@term+@rn+@rel+122-39-4
   7. http://toxnet.nlm.nih.gov/cgi-bin/sis/search/r?dbs+hsdb:@term+@rn+@rel+122-39-4
   8. http://toxnet.nlm.nih.gov/cgi-bin/sis/search/r?dbs+hsdb:@term+@rn+@rel+122-39-4
   9. http://toxnet.nlm.nih.gov/cgi-bin/sis/search/r?dbs+hsdb:@term+@rn+@rel+122-39-4
  10. http://toxnet.nlm.nih.gov/cgi-bin/sis/search/r?dbs+hsdb:@term+@rn+@rel+122-39-4
  11. http://toxnet.nlm.nih.gov/cgi-bin/sis/search/r?dbs+hsdb:@term+@rn+@rel+122-39-4
  12. http://toxnet.nlm.nih.gov/cgi-bin/sis/search/r?dbs+hsdb:@term+@rn+@rel+122-39-4
  13. http://toxnet.nlm.nih.gov/cgi-bin/sis/search/r?dbs+hsdb:@term+@rn+@rel+122-39-4
  14. http://toxnet.nlm.nih.gov/cgi-bin/sis/search/r?dbs+hsdb:@term+@rn+@rel+122-39-4
  15. http://pubchem.ncbi.nlm.nih.gov/vw3d/vw3d.cgi?cid=11487
