4879
  -OEChem-06261200232D

 25 27  0     0  0  0  0  0  0999 V2000
    4.6783    0.1316    0.0000 N   0  0  0  0  0  0  0  0  0  0  0  0
    5.2619   -0.6731    0.0000 N   0  0  0  0  0  0  0  0  0  0  0  0
    2.8660    0.3269    0.0000 N   0  0  0  0  0  0  0  0  0  0  0  0
    2.0000   -1.1732    0.0000 N   0  0  0  0  0  0  0  0  0  0  0  0
    2.8660   -2.6732    0.0000 N   0  0  0  0  0  0  0  0  0  0  0  0
    3.7320   -0.1731    0.0000 C   0  0  0  0  0  0  0  0  0  0  0  0
    3.7320   -1.1732    0.0000 C   0  0  0  0  0  0  0  0  0  0  0  0
    4.9889    1.0821    0.0000 C   0  0  0  0  0  0  0  0  0  0  0  0
    4.6783   -1.4779    0.0000 C   0  0  0  0  0  0  0  0  0  0  0  0
    2.8660   -1.6732    0.0000 C   0  0  0  0  0  0  0  0  0  0  0  0
    5.9674    1.2883    0.0000 C   0  0  0  0  0  0  0  0  0  0  0  0
    4.3211    1.8264    0.0000 C   0  0  0  0  0  0  0  0  0  0  0  0
    6.2781    2.2388    0.0000 C   0  0  0  0  0  0  0  0  0  0  0  0
    4.6318    2.7769    0.0000 C   0  0  0  0  0  0  0  0  0  0  0  0
    2.0000   -0.1731    0.0000 C   0  0  0  0  0  0  0  0  0  0  0  0
    5.6103    2.9832    0.0000 C   0  0  0  0  0  0  0  0  0  0  0  0
    4.8709   -2.0672    0.0000 H   0  0  0  0  0  0  0  0  0  0  0  0
    6.3815    0.8269    0.0000 H   0  0  0  0  0  0  0  0  0  0  0  0
    3.7144    1.6986    0.0000 H   0  0  0  0  0  0  0  0  0  0  0  0
    6.8848    2.3667    0.0000 H   0  0  0  0  0  0  0  0  0  0  0  0
    4.2177    3.2384    0.0000 H   0  0  0  0  0  0  0  0  0  0  0  0
    1.4631    0.1369    0.0000 H   0  0  0  0  0  0  0  0  0  0  0  0
    5.8029    3.5725    0.0000 H   0  0  0  0  0  0  0  0  0  0  0  0
    2.3291   -2.9832    0.0000 H   0  0  0  0  0  0  0  0  0  0  0  0
    3.4030   -2.9832    0.0000 H   0  0  0  0  0  0  0  0  0  0  0  0
  1  2  1  0  0  0  0
  1  6  1  0  0  0  0
  1  8  1  0  0  0  0
  2  9  2  0  0  0  0
  3  6  2  0  0  0  0
  3 15  1  0  0  0  0
  4 10  1  0  0  0  0
  4 15  2  0  0  0  0
  5 10  1  0  0  0  0
  5 24  1  0  0  0  0
  5 25  1  0  0  0  0
  6  7  1  0  0  0  0
  7  9  1  0  0  0  0
  7 10  2  0  0  0  0
  8 11  2  0  0  0  0
  8 12  1  0  0  0  0
  9 17  1  0  0  0  0
 11 13  1  0  0  0  0
 11 18  1  0  0  0  0
 12 14  2  0  0  0  0
 12 19  1  0  0  0  0
 13 16  2  0  0  0  0
 13 20  1  0  0  0  0
 14 16  1  0  0  0  0
 14 21  1  0  0  0  0
 15 22  1  0  0  0  0
 16 23  1  0  0  0  0
M  END
> <PUBCHEM_COMPOUND_CID>
4879

> <PUBCHEM_COMPOUND_CANONICALIZED>
1

> <PUBCHEM_CACTVS_COMPLEXITY>
241

> <PUBCHEM_CACTVS_HBOND_ACCEPTOR>
4

> <PUBCHEM_CACTVS_HBOND_DONOR>
1

> <PUBCHEM_CACTVS_ROTATABLE_BOND>
1

> <PUBCHEM_CACTVS_SUBSKEYS>
AAADccBzgAAAAAAAAAAAAAAAAAAAAWAAAAA8QAAAAAAAAFgB/AAAHAAYAAAADAjBGwQ98N5IEACiAjZnZACShCsxgqAd2CAoZJiIKOLA2dGEpAhoiALIyCcQAAAAAAAAAAAAAAAAAAAAAAAAAAAAAAAAAA==

> <PUBCHEM_IUPAC_OPENEYE_NAME>
1-phenylpyrazolo[3,4-d]pyrimidin-4-amine

> <PUBCHEM_IUPAC_CAS_NAME>
1-phenyl-4-pyrazolo[3,4-d]pyrimidinamine

> <PUBCHEM_IUPAC_NAME>
1-phenylpyrazolo[3,4-d]pyrimidin-4-amine

> <PUBCHEM_IUPAC_SYSTEMATIC_NAME>
1-phenylpyrazolo[3,4-d]pyrimidin-4-amine

> <PUBCHEM_IUPAC_TRADITIONAL_NAME>
(1-phenylpyrazolo[3,4-d]pyrimidin-4-yl)amine

> <PUBCHEM_IUPAC_INCHI>
InChI=1S/C11H9N5/c12-10-9-6-15-16(11(9)14-7-13-10)8-4-2-1-3-5-8/h1-7H,(H2,12,13,14)

> <PUBCHEM_IUPAC_INCHIKEY>
KKDPIZPUTYIBFX-UHFFFAOYSA-N

> <PUBCHEM_XLOGP3_AA>
1.5

> <PUBCHEM_EXACT_MASS>
211.085795

> <PUBCHEM_MOLECULAR_FORMULA>
C11H9N5

> <PUBCHEM_MOLECULAR_WEIGHT>
211.22266

> <PUBCHEM_OPENEYE_CAN_SMILES>
C1=CC=C(C=C1)N2C3=C(C=N2)C(=NC=N3)N

> <PUBCHEM_OPENEYE_ISO_SMILES>
C1=CC=C(C=C1)N2C3=C(C=N2)C(=NC=N3)N

> <PUBCHEM_CACTVS_TPSA>
69.6

> <PUBCHEM_MONOISOTOPIC_WEIGHT>
211.085795

> <PUBCHEM_TOTAL_CHARGE>
0

> <PUBCHEM_HEAVY_ATOM_COUNT>
16

> <PUBCHEM_ATOM_DEF_STEREO_COUNT>
0

> <PUBCHEM_ATOM_UDEF_STEREO_COUNT>
0

> <PUBCHEM_BOND_DEF_STEREO_COUNT>
0

> <PUBCHEM_BOND_UDEF_STEREO_COUNT>
0

> <PUBCHEM_ISOTOPIC_ATOM_COUNT>
0

> <PUBCHEM_COMPONENT_COUNT>
1

> <PUBCHEM_CACTVS_TAUTO_COUNT>
5

> <PUBCHEM_COORDINATE_TYPE>
1
5
255

> <PUBCHEM_BONDANNOTATIONS>
1  2  8
1  6  8
11  13  8
12  14  8
13  16  8
14  16  8
2  9  8
3  15  8
3  6  8
4  10  8
4  15  8
6  7  8
7  10  8
7  9  8
8  11  8
8  12  8

$$$$

