   Color/Form
        Viscous yellow-orange liquid
   from [1]HSDB

   Odor
        Faint petroleum odor
   from [2]HSDB

   Boiling Point
        350-355 deg C
   from [3]HSDB

   Melting Point
        -22.1 deg C
   from [4]HSDB

   Density/Specific Gravity
        1.457 g/cu cm at 20 deg C
   from [5]HSDB

   Octanol/Water Partition Coefficient
        log Kow = 3.36
   from [6]HSDB

   pH
        pH of 1% aqueous solution = 5.8
   from [7]HSDB

   Solubilities

     * In water, 12 mg/L at 20 deg C, 22 mg/L at 25 deg C, and 23 mg/L at
       30 deg C.
     * Solubility in toluene 0.9 g/mL at 20 deg C,1.06 g/mL at 25 deg C,
       1.2 g/mL at 25 deg C. Solubility in hexane 0.03 g/mL at 20 deg C,
       0.05 g/mL at 25 deg C, 0.05 g/mL at 30 deg C. Miscible in all
       proportions with acetone, ethanol, ethyl acetate, methylene
       chloride.

   from [8]HSDB

   Vapor Pressure
        1.20X10-7 mm Hg at 25 deg C
   from [9]HSDB

   Other Chemical/Physical Properties

     * Henry's Law constant = 3.0X10-9 atm-cu m/mol at 25 deg C
       /Estimated/
     * Hydroxyl radical reaction rate constant = 5.0X10-12 cu
       cm/molecule-sec at 25 deg C /Estimated/

   from [10]HSDB

   Computed Properties
   Molecular Weight                  412.19117 [g/mol]
   Molecular Formula                 C[15]H[14]Cl[2]F[3]N[3]O[3]
   XLogP3-AA                         4
   H-Bond Donor                      0
   H-Bond Acceptor                   7
   Rotatable Bond Count              7
   Exact Mass                        411.036431
   MonoIsotopic Mass                 411.036431
   Topological Polar Surface Area    62.2
   Heavy Atom Count                  26
   Formal Charge                     0
   Complexity                        582
   Isotope Atom Count                0
   Defined Atom Stereocenter Count   0
   Undefined Atom Stereocenter Count 1
   Defined Bond Stereocenter Count   0
   Undefined Bond Stereocenter Count 0
   Covalently-Bonded Unit Count      1
   Feature 3D Acceptor Count         2
   Feature 3D Ring Count             2
   Effective Rotor Count             7
   Conformer Sampling RMSD           0.8
   CID Conformer Count               [11]126

References

   1. http://toxnet.nlm.nih.gov/cgi-bin/sis/search/r?dbs+hsdb:@term+@rn+@rel+128639-02-1
   2. http://toxnet.nlm.nih.gov/cgi-bin/sis/search/r?dbs+hsdb:@term+@rn+@rel+128639-02-1
   3. http://toxnet.nlm.nih.gov/cgi-bin/sis/search/r?dbs+hsdb:@term+@rn+@rel+128639-02-1
   4. http://toxnet.nlm.nih.gov/cgi-bin/sis/search/r?dbs+hsdb:@term+@rn+@rel+128639-02-1
   5. http://toxnet.nlm.nih.gov/cgi-bin/sis/search/r?dbs+hsdb:@term+@rn+@rel+128639-02-1
   6. http://toxnet.nlm.nih.gov/cgi-bin/sis/search/r?dbs+hsdb:@term+@rn+@rel+128639-02-1
   7. http://toxnet.nlm.nih.gov/cgi-bin/sis/search/r?dbs+hsdb:@term+@rn+@rel+128639-02-1
   8. http://toxnet.nlm.nih.gov/cgi-bin/sis/search/r?dbs+hsdb:@term+@rn+@rel+128639-02-1
   9. http://toxnet.nlm.nih.gov/cgi-bin/sis/search/r?dbs+hsdb:@term+@rn+@rel+128639-02-1
  10. http://toxnet.nlm.nih.gov/cgi-bin/sis/search/r?dbs+hsdb:@term+@rn+@rel+128639-02-1
  11. http://pubchem.ncbi.nlm.nih.gov/vw3d/vw3d.cgi?cid=86222
