10166
  -OEChem-07051212592D

 36 38  0     1  0  0  0  0  0999 V2000
    2.8641    0.2485    0.0000 O   0  0  0  0  0  0  0  0  0  0  0  0
    5.5301    1.7277    0.0000 O   0  0  0  0  0  0  0  0  0  0  0  0
    5.5301   -2.2723    0.0000 O   0  0  0  0  0  0  0  0  0  0  0  0
    7.2785    1.7623    0.0000 O   0  0  0  0  0  0  0  0  0  0  0  0
    3.7702   -1.3070    0.0000 C   0  0  0  0  0  0  0  0  0  0  0  0
    2.8641   -0.7931    0.0000 C   0  0  2  0  0  0  0  0  0  0  0  0
    3.7702    0.7624    0.0000 C   0  0  1  0  0  0  0  0  0  0  0  0
    4.6641   -0.7723    0.0000 C   0  0  0  0  0  0  0  0  0  0  0  0
    4.6641    0.2277    0.0000 C   0  0  0  0  0  0  0  0  0  0  0  0
    5.5301    0.7277    0.0000 C   0  0  0  0  0  0  0  0  0  0  0  0
    5.5301   -1.2723    0.0000 C   0  0  0  0  0  0  0  0  0  0  0  0
    6.3961    0.2277    0.0000 C   0  0  0  0  0  0  0  0  0  0  0  0
    6.3961   -0.7723    0.0000 C   0  0  0  0  0  0  0  0  0  0  0  0
    2.0000   -1.2964    0.0000 C   0  0  0  0  0  0  0  0  0  0  0  0
    3.7817    1.7623    0.0000 C   0  0  0  0  0  0  0  0  0  0  0  0
    7.2901    0.7624    0.0000 C   0  0  0  0  0  0  0  0  0  0  0  0
    7.2901   -1.3070    0.0000 C   0  0  0  0  0  0  0  0  0  0  0  0
    8.1962    0.2485    0.0000 C   0  0  0  0  0  0  0  0  0  0  0  0
    8.1962   -0.7931    0.0000 C   0  0  0  0  0  0  0  0  0  0  0  0
    8.1387    2.2723    0.0000 C   0  0  0  0  0  0  0  0  0  0  0  0
    3.3765   -1.7860    0.0000 H   0  0  0  0  0  0  0  0  0  0  0  0
    4.1748   -1.7767    0.0000 H   0  0  0  0  0  0  0  0  0  0  0  0
    2.3266   -0.4841    0.0000 H   0  0  0  0  0  0  0  0  0  0  0  0
    3.2362    1.0775    0.0000 H   0  0  0  0  0  0  0  0  0  0  0  0
    1.6879   -0.7607    0.0000 H   0  0  0  0  0  0  0  0  0  0  0  0
    1.4643   -1.6085    0.0000 H   0  0  0  0  0  0  0  0  0  0  0  0
    2.3121   -1.8322    0.0000 H   0  0  0  0  0  0  0  0  0  0  0  0
    4.4017    1.7551    0.0000 H   0  0  0  0  0  0  0  0  0  0  0  0
    3.7889    2.3823    0.0000 H   0  0  0  0  0  0  0  0  0  0  0  0
    3.1618    1.7695    0.0000 H   0  0  0  0  0  0  0  0  0  0  0  0
    7.2829   -1.9269    0.0000 H   0  0  0  0  0  0  0  0  0  0  0  0
    8.7319    0.5606    0.0000 H   0  0  0  0  0  0  0  0  0  0  0  0
    8.7319   -1.1052    0.0000 H   0  0  0  0  0  0  0  0  0  0  0  0
    8.4549    1.7390    0.0000 H   0  0  0  0  0  0  0  0  0  0  0  0
    8.6720    2.5885    0.0000 H   0  0  0  0  0  0  0  0  0  0  0  0
    7.8225    2.8056    0.0000 H   0  0  0  0  0  0  0  0  0  0  0  0
  1  6  1  0  0  0  0
  1  7  1  0  0  0  0
  2 10  2  0  0  0  0
  3 11  2  0  0  0  0
  4 16  1  0  0  0  0
  4 20  1  0  0  0  0
  5  6  1  0  0  0  0
  5  8  1  0  0  0  0
  5 21  1  0  0  0  0
  5 22  1  0  0  0  0
  6 14  1  6  0  0  0
  6 23  1  0  0  0  0
  7  9  1  0  0  0  0
  7 15  1  6  0  0  0
  7 24  1  0  0  0  0
  8  9  2  0  0  0  0
  8 11  1  0  0  0  0
  9 10  1  0  0  0  0
 10 12  1  0  0  0  0
 11 13  1  0  0  0  0
 12 13  2  0  0  0  0
 12 16  1  0  0  0  0
 13 17  1  0  0  0  0
 14 25  1  0  0  0  0
 14 26  1  0  0  0  0
 14 27  1  0  0  0  0
 15 28  1  0  0  0  0
 15 29  1  0  0  0  0
 15 30  1  0  0  0  0
 16 18  2  0  0  0  0
 17 19  2  0  0  0  0
 17 31  1  0  0  0  0
 18 19  1  0  0  0  0
 18 32  1  0  0  0  0
 19 33  1  0  0  0  0
 20 34  1  0  0  0  0
 20 35  1  0  0  0  0
 20 36  1  0  0  0  0
M  END
> <PUBCHEM_COMPOUND_CID>
10166

> <PUBCHEM_COMPOUND_CANONICALIZED>
1

> <PUBCHEM_CACTVS_COMPLEXITY>
479

> <PUBCHEM_CACTVS_HBOND_ACCEPTOR>
4

> <PUBCHEM_CACTVS_HBOND_DONOR>
0

> <PUBCHEM_CACTVS_ROTATABLE_BOND>
1

> <PUBCHEM_CACTVS_SUBSKEYS>
AAADceB4OAAAAAAAAAAAAAAAAAAAAAAAAAAwQIAAAAAAAACRAAAAGgAAAAAADBSgmAIyBoAABACIAqBSAAACCAAkIAAIiAEGCMgMJjaENRqCMWAk4BEIqYeL6PyOgAABAAAYAAAAAAIAADAAAAAAAAAAAA==

> <PUBCHEM_IUPAC_OPENEYE_NAME>
(1R,3S)-9-methoxy-1,3-dimethyl-3,4-dihydro-1H-benzo[g]isochromene-5,10-dione

> <PUBCHEM_IUPAC_CAS_NAME>
(1R,3S)-9-methoxy-1,3-dimethyl-3,4-dihydro-1H-benzo[g][2]benzopyran-5,10-dione

> <PUBCHEM_IUPAC_NAME>
(1R,3S)-9-methoxy-1,3-dimethyl-3,4-dihydro-1H-benzo[g]isochromene-5,10-dione

> <PUBCHEM_IUPAC_SYSTEMATIC_NAME>
(1R,3S)-9-methoxy-1,3-dimethyl-3,4-dihydro-1H-benzo[g]isochromene-5,10-dione

> <PUBCHEM_IUPAC_TRADITIONAL_NAME>
(1R,3S)-9-methoxy-1,3-dimethyl-3,4-dihydro-1H-benz[g]isochromene-5,10-quinone

> <PUBCHEM_IUPAC_INCHI>
InChI=1S/C16H16O4/c1-8-7-11-13(9(2)20-8)16(18)14-10(15(11)17)5-4-6-12(14)19-3/h4-6,8-9H,7H2,1-3H3/t8-,9+/m0/s1

> <PUBCHEM_IUPAC_INCHIKEY>
IAJIIJBMBCZPSW-DTWKUNHWSA-N

> <PUBCHEM_XLOGP3_AA>
2

> <PUBCHEM_EXACT_MASS>
272.104859

> <PUBCHEM_MOLECULAR_FORMULA>
C16H16O4

> <PUBCHEM_MOLECULAR_WEIGHT>
272.29584

> <PUBCHEM_OPENEYE_CAN_SMILES>
CC1CC2=C(C(O1)C)C(=O)C3=C(C2=O)C=CC=C3OC

> <PUBCHEM_OPENEYE_ISO_SMILES>
C[C@H]1CC2=C([C@H](O1)C)C(=O)C3=C(C2=O)C=CC=C3OC

> <PUBCHEM_CACTVS_TPSA>
52.6

> <PUBCHEM_MONOISOTOPIC_WEIGHT>
272.104859

> <PUBCHEM_TOTAL_CHARGE>
0

> <PUBCHEM_HEAVY_ATOM_COUNT>
20

> <PUBCHEM_ATOM_DEF_STEREO_COUNT>
2

> <PUBCHEM_ATOM_UDEF_STEREO_COUNT>
0

> <PUBCHEM_BOND_DEF_STEREO_COUNT>
0

> <PUBCHEM_BOND_UDEF_STEREO_COUNT>
0

> <PUBCHEM_ISOTOPIC_ATOM_COUNT>
0

> <PUBCHEM_COMPONENT_COUNT>
1

> <PUBCHEM_CACTVS_TAUTO_COUNT>
3

> <PUBCHEM_COORDINATE_TYPE>
1
5
255

> <PUBCHEM_BONDANNOTATIONS>
12  13  8
12  16  8
13  17  8
16  18  8
17  19  8
18  19  8
6  14  6
7  15  6

$$$$

