   Color/Form
        Leaf, from ligroin
   from [1]HSDB

   Boiling Point
        Sublimes
   from [2]HSDB

   Melting Point
        115 deg C
   from [3]HSDB

   Dissociation Constants
        pKa = 5.14
   from [4]HSDB

   Octanol/Water Partition Coefficient
        log Kow = 3.88
   from [5]HSDB

   Solubilities
        Very soluble in benzene, slightly soluble in water, soluble in
   ligroin.
   from [6]HSDB

   Computed Properties
   Molecular Weight                  231.89148 [g/mol]
   Molecular Formula                 C[6]H[2]Cl[4]O
   XLogP3                            3.9
   H-Bond Donor                      1
   H-Bond Acceptor                   1
   Rotatable Bond Count              0
   Tautomer Count                    2
   Exact Mass                        231.883025
   MonoIsotopic Mass                 229.885975
   Topological Polar Surface Area    20.2
   Heavy Atom Count                  11
   Formal Charge                     0
   Complexity                        129
   Isotope Atom Count                0
   Defined Atom Stereocenter Count   0
   Undefined Atom Stereocenter Count 0
   Defined Bond Stereocenter Count   0
   Undefined Bond Stereocenter Count 0
   Covalently-Bonded Unit Count      1
   Feature 3D Donor Count            1
   Feature 3D Ring Count             1
   Effective Rotor Count             0
   Conformer Sampling RMSD           0.4
   CID Conformer Count               [7]1

References

   1. http://toxnet.nlm.nih.gov/cgi-bin/sis/search/r?dbs+hsdb:@term+@rn+@rel+935-95-5
   2. http://toxnet.nlm.nih.gov/cgi-bin/sis/search/r?dbs+hsdb:@term+@rn+@rel+935-95-5
   3. http://toxnet.nlm.nih.gov/cgi-bin/sis/search/r?dbs+hsdb:@term+@rn+@rel+935-95-5
   4. http://toxnet.nlm.nih.gov/cgi-bin/sis/search/r?dbs+hsdb:@term+@rn+@rel+935-95-5
   5. http://toxnet.nlm.nih.gov/cgi-bin/sis/search/r?dbs+hsdb:@term+@rn+@rel+935-95-5
   6. http://toxnet.nlm.nih.gov/cgi-bin/sis/search/r?dbs+hsdb:@term+@rn+@rel+935-95-5
   7. http://pubchem.ncbi.nlm.nih.gov/vw3d/vw3d.cgi?cid=13636
