9489
  -OEChem-06261203452D

 28 27  0     1  0  0  0  0  0999 V2000
    5.7550    3.4650    0.0000 Cl  0  5  0  0  0  0  0  0  0  0  0  0
    1.4030    4.8100    0.0000 O   0  0  0  0  0  0  0  0  0  0  0  0
    0.5369    1.3100    0.0000 O   0  0  0  0  0  0  0  0  0  0  0  0
    2.2690    0.3100    0.0000 O   0  0  0  0  0  0  0  0  0  0  0  0
    3.1350    5.8100    0.0000 N   0  3  0  0  0  0  0  0  0  0  0  0
    2.2690    4.3100    0.0000 C   0  0  3  0  0  0  0  0  0  0  0  0
    3.1350    4.8100    0.0000 C   0  0  0  0  0  0  0  0  0  0  0  0
    2.2690    3.3100    0.0000 C   0  0  0  0  0  0  0  0  0  0  0  0
    1.4030    2.8100    0.0000 C   0  0  0  0  0  0  0  0  0  0  0  0
    3.1350    2.8100    0.0000 C   0  0  0  0  0  0  0  0  0  0  0  0
    3.1350    6.8100    0.0000 C   0  0  0  0  0  0  0  0  0  0  0  0
    1.4030    1.8100    0.0000 C   0  0  0  0  0  0  0  0  0  0  0  0
    3.1350    1.8100    0.0000 C   0  0  0  0  0  0  0  0  0  0  0  0
    2.2690    1.3100    0.0000 C   0  0  0  0  0  0  0  0  0  0  0  0
    2.2690    4.9300    0.0000 H   0  0  0  0  0  0  0  0  0  0  0  0
    3.3471    4.2274    0.0000 H   0  0  0  0  0  0  0  0  0  0  0  0
    3.7456    4.9177    0.0000 H   0  0  0  0  0  0  0  0  0  0  0  0
    3.7550    5.8100    0.0000 H   0  0  0  0  0  0  0  0  0  0  0  0
    2.5150    5.8100    0.0000 H   0  0  0  0  0  0  0  0  0  0  0  0
    0.8660    3.1200    0.0000 H   0  0  0  0  0  0  0  0  0  0  0  0
    3.6720    3.1200    0.0000 H   0  0  0  0  0  0  0  0  0  0  0  0
    3.7550    6.8100    0.0000 H   0  0  0  0  0  0  0  0  0  0  0  0
    3.1350    7.4300    0.0000 H   0  0  0  0  0  0  0  0  0  0  0  0
    2.5150    6.8100    0.0000 H   0  0  0  0  0  0  0  0  0  0  0  0
    1.4030    5.4300    0.0000 H   0  0  0  0  0  0  0  0  0  0  0  0
    3.6720    1.5000    0.0000 H   0  0  0  0  0  0  0  0  0  0  0  0
    0.0000    1.6200    0.0000 H   0  0  0  0  0  0  0  0  0  0  0  0
    2.8059    0.0000    0.0000 H   0  0  0  0  0  0  0  0  0  0  0  0
  2  6  1  0  0  0  0
  2 25  1  0  0  0  0
  3 12  1  0  0  0  0
  3 27  1  0  0  0  0
  4 14  1  0  0  0  0
  4 28  1  0  0  0  0
  5  7  1  0  0  0  0
  5 11  1  0  0  0  0
  5 18  1  0  0  0  0
  5 19  1  0  0  0  0
  6  7  1  0  0  0  0
  6  8  1  0  0  0  0
  6 15  1  0  0  0  0
  7 16  1  0  0  0  0
  7 17  1  0  0  0  0
  8  9  2  0  0  0  0
  8 10  1  0  0  0  0
  9 12  1  0  0  0  0
  9 20  1  0  0  0  0
 10 13  2  0  0  0  0
 10 21  1  0  0  0  0
 11 22  1  0  0  0  0
 11 23  1  0  0  0  0
 11 24  1  0  0  0  0
 12 14  2  0  0  0  0
 13 14  1  0  0  0  0
 13 26  1  0  0  0  0
M  CHG  2   1  -1   5   1
M  END
> <PUBCHEM_COMPOUND_CID>
9489

> <PUBCHEM_COMPOUND_CANONICALIZED>
1

> <PUBCHEM_CACTVS_COMPLEXITY>
154

> <PUBCHEM_CACTVS_HBOND_ACCEPTOR>
4

> <PUBCHEM_CACTVS_HBOND_DONOR>
4

> <PUBCHEM_CACTVS_ROTATABLE_BOND>
3

> <PUBCHEM_CACTVS_SUBSKEYS>
AAADccByMAAEAAAAAAAAAAAAAAAAAAAAAAAwAAAAAAAAAAABAAAAHgAQCAAADBThmAYyBoLAAgCAAiBCAAACAAAgIAAIiIAOiIgLNiKCkROEcAEk0BEZmAfQ8LYOIAABAAAAQABAAAIAAACAAAAAAAAAAA==

> <PUBCHEM_IUPAC_OPENEYE_NAME>
[2-(3,4-dihydroxyphenyl)-2-hydroxy-ethyl]-methyl-ammonium chloride

> <PUBCHEM_IUPAC_CAS_NAME>
[2-(3,4-dihydroxyphenyl)-2-hydroxyethyl]-methylammonium chloride

> <PUBCHEM_IUPAC_NAME>
[2-(3,4-dihydroxyphenyl)-2-hydroxyethyl]-methylazanium chloride

> <PUBCHEM_IUPAC_SYSTEMATIC_NAME>
[2-[3,4-bis(oxidanyl)phenyl]-2-oxidanyl-ethyl]-methyl-azanium chloride

> <PUBCHEM_IUPAC_TRADITIONAL_NAME>
[2-(3,4-dihydroxyphenyl)-2-hydroxy-ethyl]-methyl-ammonium chloride

> <PUBCHEM_IUPAC_INCHI>
InChI=1S/C9H13NO3.ClH/c1-10-5-9(13)6-2-3-7(11)8(12)4-6;/h2-4,9-13H,5H2,1H3;1H

> <PUBCHEM_IUPAC_INCHIKEY>
ATADHKWKHYVBTJ-UHFFFAOYSA-N

> <PUBCHEM_EXACT_MASS>
219.066221

> <PUBCHEM_MOLECULAR_FORMULA>
C9H14ClNO3

> <PUBCHEM_MOLECULAR_WEIGHT>
219.66536

> <PUBCHEM_OPENEYE_CAN_SMILES>
C[NH2+]CC(C1=CC(=C(C=C1)O)O)O.[Cl-]

> <PUBCHEM_OPENEYE_ISO_SMILES>
C[NH2+]CC(C1=CC(=C(C=C1)O)O)O.[Cl-]

> <PUBCHEM_CACTVS_TPSA>
77.3

> <PUBCHEM_MONOISOTOPIC_WEIGHT>
219.066221

> <PUBCHEM_TOTAL_CHARGE>
0

> <PUBCHEM_HEAVY_ATOM_COUNT>
14

> <PUBCHEM_ATOM_DEF_STEREO_COUNT>
0

> <PUBCHEM_ATOM_UDEF_STEREO_COUNT>
1

> <PUBCHEM_BOND_DEF_STEREO_COUNT>
0

> <PUBCHEM_BOND_UDEF_STEREO_COUNT>
0

> <PUBCHEM_ISOTOPIC_ATOM_COUNT>
0

> <PUBCHEM_COMPONENT_COUNT>
2

> <PUBCHEM_CACTVS_TAUTO_COUNT>
10

> <PUBCHEM_COORDINATE_TYPE>
1
5
255

> <PUBCHEM_BONDANNOTATIONS>
10  13  8
12  14  8
13  14  8
6  2  3
8  10  8
8  9  8
9  12  8

$$$$

