155957
  -OEChem-07051213062D

 19 21  0     1  0  0  0  0  0999 V2000
    5.5323   -1.2676    0.0000 O   0  0  0  0  0  0  0  0  0  0  0  0
    4.6660   -0.7671    0.0000 C   0  0  1  0  0  0  0  0  0  0  0  0
    5.5321   -0.2671    0.0000 C   0  0  2  0  0  0  0  0  0  0  0  0
    3.8000   -0.2671    0.0000 C   0  0  0  0  0  0  0  0  0  0  0  0
    5.5321    0.7329    0.0000 C   0  0  0  0  0  0  0  0  0  0  0  0
    3.8000    0.7329    0.0000 C   0  0  0  0  0  0  0  0  0  0  0  0
    4.6660    1.2329    0.0000 C   0  0  0  0  0  0  0  0  0  0  0  0
    2.9061   -0.8018    0.0000 C   0  0  0  0  0  0  0  0  0  0  0  0
    2.9061    1.2676    0.0000 C   0  0  0  0  0  0  0  0  0  0  0  0
    2.0000   -0.2879    0.0000 C   0  0  0  0  0  0  0  0  0  0  0  0
    2.0000    0.7537    0.0000 C   0  0  0  0  0  0  0  0  0  0  0  0
    4.3560   -1.3040    0.0000 H   0  0  0  0  0  0  0  0  0  0  0  0
    6.1521   -0.2670    0.0000 H   0  0  0  0  0  0  0  0  0  0  0  0
    6.0690    1.0429    0.0000 H   0  0  0  0  0  0  0  0  0  0  0  0
    4.6660    1.8529    0.0000 H   0  0  0  0  0  0  0  0  0  0  0  0
    2.9132   -1.4217    0.0000 H   0  0  0  0  0  0  0  0  0  0  0  0
    2.9132    1.8875    0.0000 H   0  0  0  0  0  0  0  0  0  0  0  0
    1.4643   -0.6000    0.0000 H   0  0  0  0  0  0  0  0  0  0  0  0
    1.4643    1.0658    0.0000 H   0  0  0  0  0  0  0  0  0  0  0  0
  2  1  1  6  0  0  0
  3  1  1  6  0  0  0
  2  3  1  0  0  0  0
  2  4  1  0  0  0  0
  2 12  1  0  0  0  0
  3  5  1  0  0  0  0
  3 13  1  0  0  0  0
  4  6  1  0  0  0  0
  4  8  2  0  0  0  0
  5  7  2  0  0  0  0
  5 14  1  0  0  0  0
  6  7  1  0  0  0  0
  6  9  2  0  0  0  0
  7 15  1  0  0  0  0
  8 10  1  0  0  0  0
  8 16  1  0  0  0  0
  9 11  1  0  0  0  0
  9 17  1  0  0  0  0
 10 11  2  0  0  0  0
 10 18  1  0  0  0  0
 11 19  1  0  0  0  0
M  END
> <PUBCHEM_COMPOUND_CID>
155957

> <PUBCHEM_COMPOUND_CANONICALIZED>
1

> <PUBCHEM_CACTVS_COMPLEXITY>
197

> <PUBCHEM_CACTVS_HBOND_ACCEPTOR>
1

> <PUBCHEM_CACTVS_HBOND_DONOR>
0

> <PUBCHEM_CACTVS_ROTATABLE_BOND>
0

> <PUBCHEM_CACTVS_SUBSKEYS>
AAADccBwIAAAAAAAAAAAAAAAEgAAAAAAAAAwQAAABAAAAACBAAAAGgAAAAAADBSgmAIwAIAABACAAiBCAAACAAAgAAAIiAAACIgIJiKAMRiCMAAkwAEIqAeAwKAOgAAAAAAQAAAAAAAAACAAAAAAAAAAAA==

> <PUBCHEM_IUPAC_OPENEYE_NAME>
(1aS,7bR)-1a,7b-dihydronaphtho[1,2-b]oxirene

> <PUBCHEM_IUPAC_CAS_NAME>
(1aS,7bR)-1a,7b-dihydronaphtho[1,2-b]oxirene

> <PUBCHEM_IUPAC_NAME>
(1aS,7bR)-1a,7b-dihydronaphtho[1,2-b]oxirene

> <PUBCHEM_IUPAC_SYSTEMATIC_NAME>
(1aS,7bR)-1a,7b-dihydronaphtho[1,2-b]oxirene

> <PUBCHEM_IUPAC_TRADITIONAL_NAME>
(1aS,7bR)-1a,7b-dihydronaphtho[1,2-b]oxirene

> <PUBCHEM_IUPAC_INCHI>
InChI=1S/C10H8O/c1-2-4-8-7(3-1)5-6-9-10(8)11-9/h1-6,9-10H/t9-,10+/m0/s1

> <PUBCHEM_IUPAC_INCHIKEY>
XQIJIALOJPIKGX-VHSXEESVSA-N

> <PUBCHEM_XLOGP3_AA>
1.8

> <PUBCHEM_EXACT_MASS>
144.057515

> <PUBCHEM_MOLECULAR_FORMULA>
C10H8O

> <PUBCHEM_MOLECULAR_WEIGHT>
144.16992

> <PUBCHEM_OPENEYE_CAN_SMILES>
C1=CC=C2C3C(O3)C=CC2=C1

> <PUBCHEM_OPENEYE_ISO_SMILES>
C1=CC=C2[C@@H]3[C@@H](O3)C=CC2=C1

> <PUBCHEM_CACTVS_TPSA>
12.5

> <PUBCHEM_MONOISOTOPIC_WEIGHT>
144.057515

> <PUBCHEM_TOTAL_CHARGE>
0

> <PUBCHEM_HEAVY_ATOM_COUNT>
11

> <PUBCHEM_ATOM_DEF_STEREO_COUNT>
2

> <PUBCHEM_ATOM_UDEF_STEREO_COUNT>
0

> <PUBCHEM_BOND_DEF_STEREO_COUNT>
0

> <PUBCHEM_BOND_UDEF_STEREO_COUNT>
0

> <PUBCHEM_ISOTOPIC_ATOM_COUNT>
0

> <PUBCHEM_COMPONENT_COUNT>
1

> <PUBCHEM_CACTVS_TAUTO_COUNT>
1

> <PUBCHEM_COORDINATE_TYPE>
1
5
255

> <PUBCHEM_BONDANNOTATIONS>
2  1  6
3  1  6
10  11  8
4  6  8
4  8  8
6  9  8
8  10  8
9  11  8

$$$$

