   Color/Form

     * Leaflets
     * White to light yellow, oily liquid
     * Colorless crystals

   from [1]HSDB

   Odor

     * Herbal
     * Odor similar to coumarin at room temp or reminiscent of
       nitrobenzene at higher temp.
     * Coconut odor
     * Hay-like

   from [2]HSDB

   Taste

     * Sweet then bitter
     * Burning

   from [3]HSDB

   Boiling Point
        272 deg C
   from [4]HSDB

   Melting Point
        25 deg C
   from [5]HSDB

   Density/Specific Gravity
        1.169 @ 18 DEG C
   from [6]HSDB

   Solubilities

     * Slightly soluble in ether and carbon tetrachloride
     * 1:2.5-3.5 IN 70% ALCOHOL
     * Soluble in chloroform.
     * Soluble in chlorinated solvents
     * In water, 3,000 mg/l at 37 deg C

   from [7]HSDB

   Spectral Properties

     * MAX ABSORPTION (ALCOHOL): 266 NM (LOG E= 2.85), 273 NM (LOG E=
       2.86), 312 NM (LOG E= 1.02)
     * Index of refraction: 1.5563 @ 20 deg C/D
     * IR: 973 (Coblentz Society Spectral Collection)
     * UV: 3578 (Sadtler Research Laboratories Spectral Collection)
     * MASS: 49911 (NIST/EPA/MSDC Mass Spectral Database, 1990 version)

   from [8]HSDB

   Other Chemical/Physical Properties
        Congealing point: 23 deg C
   from [9]HSDB

   Computed Properties
   Molecular Weight                  148.15862 [g/mol]
   Molecular Formula                 C[9]H[8]O[2]
   XLogP3-AA                         1.6
   H-Bond Donor                      0
   H-Bond Acceptor                   2
   Rotatable Bond Count              0
   Tautomer Count                    2
   Exact Mass                        148.052429
   MonoIsotopic Mass                 148.052429
   Topological Polar Surface Area    26.3
   Heavy Atom Count                  11
   Formal Charge                     0
   Complexity                        165
   Isotope Atom Count                0
   Defined Atom Stereocenter Count   0
   Undefined Atom Stereocenter Count 0
   Defined Bond Stereocenter Count   0
   Undefined Bond Stereocenter Count 0
   Covalently-Bonded Unit Count      1
   Feature 3D Acceptor Count         1
   Feature 3D Ring Count             2
   Effective Rotor Count             0.6
   Conformer Sampling RMSD           0.4
   CID Conformer Count               [10]1

References

   1. http://toxnet.nlm.nih.gov/cgi-bin/sis/search/r?dbs+hsdb:@term+@rn+@rel+119-84-6
   2. http://toxnet.nlm.nih.gov/cgi-bin/sis/search/r?dbs+hsdb:@term+@rn+@rel+119-84-6
   3. http://toxnet.nlm.nih.gov/cgi-bin/sis/search/r?dbs+hsdb:@term+@rn+@rel+119-84-6
   4. http://toxnet.nlm.nih.gov/cgi-bin/sis/search/r?dbs+hsdb:@term+@rn+@rel+119-84-6
   5. http://toxnet.nlm.nih.gov/cgi-bin/sis/search/r?dbs+hsdb:@term+@rn+@rel+119-84-6
   6. http://toxnet.nlm.nih.gov/cgi-bin/sis/search/r?dbs+hsdb:@term+@rn+@rel+119-84-6
   7. http://toxnet.nlm.nih.gov/cgi-bin/sis/search/r?dbs+hsdb:@term+@rn+@rel+119-84-6
   8. http://toxnet.nlm.nih.gov/cgi-bin/sis/search/r?dbs+hsdb:@term+@rn+@rel+119-84-6
   9. http://toxnet.nlm.nih.gov/cgi-bin/sis/search/r?dbs+hsdb:@term+@rn+@rel+119-84-6
  10. http://pubchem.ncbi.nlm.nih.gov/vw3d/vw3d.cgi?cid=660
