124702
  -OEChem-07051212592D

 24 24  0     1  0  0  0  0  0999 V2000
    3.4699   -1.6194    0.0000 O   0  0  0  0  0  0  0  0  0  0  0  0
    5.6454   -1.6194    0.0000 O   0  0  0  0  0  0  0  0  0  0  0  0
    2.5896    1.4278    0.0000 O   0  0  0  0  0  0  0  0  0  0  0  0
    6.5256    1.4278    0.0000 O   0  0  0  0  0  0  0  0  0  0  0  0
    4.5576    0.7284    0.0000 N   0  0  0  0  0  0  0  0  0  0  0  0
    3.7486    0.1407    0.0000 C   0  0  1  0  0  0  0  0  0  0  0  0
    5.3667    0.1407    0.0000 C   0  0  1  0  0  0  0  0  0  0  0  0
    4.0576   -0.8104    0.0000 C   0  0  2  0  0  0  0  0  0  0  0  0
    5.0576   -0.8104    0.0000 C   0  0  2  0  0  0  0  0  0  0  0  0
    2.7976    0.4497    0.0000 C   0  0  0  0  0  0  0  0  0  0  0  0
    6.3177    0.4497    0.0000 C   0  0  0  0  0  0  0  0  0  0  0  0
    3.6516    0.7530    0.0000 H   0  0  0  0  0  0  0  0  0  0  0  0
    5.4636    0.7530    0.0000 H   0  0  0  0  0  0  0  0  0  0  0  0
    3.4453   -0.7134    0.0000 H   0  0  0  0  0  0  0  0  0  0  0  0
    4.7762   -1.3628    0.0000 H   0  0  0  0  0  0  0  0  0  0  0  0
    4.5576    1.3484    0.0000 H   0  0  0  0  0  0  0  0  0  0  0  0
    2.1779    0.4280    0.0000 H   0  0  0  0  0  0  0  0  0  0  0  0
    2.7113   -0.1643    0.0000 H   0  0  0  0  0  0  0  0  0  0  0  0
    6.4040   -0.1643    0.0000 H   0  0  0  0  0  0  0  0  0  0  0  0
    6.9373    0.4280    0.0000 H   0  0  0  0  0  0  0  0  0  0  0  0
    2.8532   -1.5546    0.0000 H   0  0  0  0  0  0  0  0  0  0  0  0
    6.2620   -1.5546    0.0000 H   0  0  0  0  0  0  0  0  0  0  0  0
    2.0000    1.6194    0.0000 H   0  0  0  0  0  0  0  0  0  0  0  0
    7.1153    1.6194    0.0000 H   0  0  0  0  0  0  0  0  0  0  0  0
  8  1  1  6  0  0  0
  1 21  1  0  0  0  0
  9  2  1  1  0  0  0
  2 22  1  0  0  0  0
  3 10  1  0  0  0  0
  3 23  1  0  0  0  0
  4 11  1  0  0  0  0
  4 24  1  0  0  0  0
  5  6  1  0  0  0  0
  5  7  1  0  0  0  0
  5 16  1  0  0  0  0
  6  8  1  0  0  0  0
  6 10  1  1  0  0  0
  6 12  1  0  0  0  0
  7  9  1  0  0  0  0
  7 11  1  6  0  0  0
  7 13  1  0  0  0  0
  8  9  1  0  0  0  0
  8 14  1  0  0  0  0
  9 15  1  0  0  0  0
 10 17  1  0  0  0  0
 10 18  1  0  0  0  0
 11 19  1  0  0  0  0
 11 20  1  0  0  0  0
M  END
> <PUBCHEM_COMPOUND_CID>
124702

> <PUBCHEM_COMPOUND_CANONICALIZED>
1

> <PUBCHEM_CACTVS_COMPLEXITY>
118

> <PUBCHEM_CACTVS_HBOND_ACCEPTOR>
5

> <PUBCHEM_CACTVS_HBOND_DONOR>
5

> <PUBCHEM_CACTVS_ROTATABLE_BOND>
2

> <PUBCHEM_CACTVS_SUBSKEYS>
AAADccBiOAAAAAAAAAAAAAAAAAAAAWAAAAAAAAAAAAAAAAAAAAAAHgAQCAAACDzhgAYAAALAAgAAAAAAAAAAAAAAAAAAAIAIAAADEAIAgAAEQAAHEACRAAHQUAEAAAAAAAAAAAAAAAAAAAAAAAAAAAAAAA==

> <PUBCHEM_IUPAC_OPENEYE_NAME>
(2R,3R,4R,5R)-2,5-bis(hydroxymethyl)pyrrolidine-3,4-diol

> <PUBCHEM_IUPAC_CAS_NAME>
(2R,3R,4R,5R)-2,5-bis(hydroxymethyl)pyrrolidine-3,4-diol

> <PUBCHEM_IUPAC_NAME>
(2R,3R,4R,5R)-2,5-bis(hydroxymethyl)pyrrolidine-3,4-diol

> <PUBCHEM_IUPAC_SYSTEMATIC_NAME>
(2R,3R,4R,5R)-2,5-bis(hydroxymethyl)pyrrolidine-3,4-diol

> <PUBCHEM_IUPAC_TRADITIONAL_NAME>
(2R,3R,4R,5R)-2,5-dimethylolpyrrolidine-3,4-diol

> <PUBCHEM_IUPAC_INCHI>
InChI=1S/C6H13NO4/c8-1-3-5(10)6(11)4(2-9)7-3/h3-11H,1-2H2/t3-,4-,5-,6-/m1/s1

> <PUBCHEM_IUPAC_INCHIKEY>
PFYHYHZGDNWFIF-KVTDHHQDSA-N

> <PUBCHEM_XLOGP3_AA>
-1.8

> <PUBCHEM_EXACT_MASS>
163.084458

> <PUBCHEM_MOLECULAR_FORMULA>
C6H13NO4

> <PUBCHEM_MOLECULAR_WEIGHT>
163.17172

> <PUBCHEM_OPENEYE_CAN_SMILES>
C(C1C(C(C(N1)CO)O)O)O

> <PUBCHEM_OPENEYE_ISO_SMILES>
C([C@@H]1[C@H]([C@@H]([C@H](N1)CO)O)O)O

> <PUBCHEM_CACTVS_TPSA>
93

> <PUBCHEM_MONOISOTOPIC_WEIGHT>
163.084458

> <PUBCHEM_TOTAL_CHARGE>
0

> <PUBCHEM_HEAVY_ATOM_COUNT>
11

> <PUBCHEM_ATOM_DEF_STEREO_COUNT>
4

> <PUBCHEM_ATOM_UDEF_STEREO_COUNT>
0

> <PUBCHEM_BOND_DEF_STEREO_COUNT>
0

> <PUBCHEM_BOND_UDEF_STEREO_COUNT>
0

> <PUBCHEM_ISOTOPIC_ATOM_COUNT>
0

> <PUBCHEM_COMPONENT_COUNT>
1

> <PUBCHEM_CACTVS_TAUTO_COUNT>
1

> <PUBCHEM_COORDINATE_TYPE>
1
5
255

> <PUBCHEM_BONDANNOTATIONS>
8  1  6
9  2  5
6  10  5
7  11  6

$$$$

