440722
  -OEChem-07051212502D

 49 48  0     1  0  0  0  0  0999 V2000
    7.7331    1.4400    0.0000 S   0  0  0  0  0  0  0  0  0  0  0  0
    6.0010   -1.5600    0.0000 O   0  0  0  0  0  0  0  0  0  0  0  0
    2.5369   -0.5600    0.0000 O   0  0  0  0  0  0  0  0  0  0  0  0
    8.5991    0.9400    0.0000 O   0  0  0  0  0  0  0  0  0  0  0  0
    3.4030    0.9400    0.0000 O   0  0  0  0  0  0  0  0  0  0  0  0
   13.7953   -0.0600    0.0000 O   0  0  0  0  0  0  0  0  0  0  0  0
   12.9292   -1.5600    0.0000 O   0  0  0  0  0  0  0  0  0  0  0  0
    5.1350   -0.0600    0.0000 N   0  0  0  0  0  0  0  0  0  0  0  0
    7.7331   -0.5600    0.0000 N   0  0  0  0  0  0  0  0  0  0  0  0
   12.0632    0.9400    0.0000 N   0  0  0  0  0  0  0  0  0  0  0  0
    4.2690   -1.5600    0.0000 C   0  0  0  0  0  0  0  0  0  0  0  0
    4.2690   -0.5600    0.0000 C   0  0  2  0  0  0  0  0  0  0  0  0
    6.8671   -0.0600    0.0000 C   0  0  3  0  0  0  0  0  0  0  0  0
   10.3312   -0.0600    0.0000 C   0  0  0  0  0  0  0  0  0  0  0  0
   11.1972   -0.5600    0.0000 C   0  0  0  0  0  0  0  0  0  0  0  0
    9.4651   -0.5600    0.0000 C   0  0  0  0  0  0  0  0  0  0  0  0
    6.0010   -0.5600    0.0000 C   0  0  0  0  0  0  0  0  0  0  0  0
    3.4030   -2.0600    0.0000 C   0  0  0  0  0  0  0  0  0  0  0  0
    5.1350   -2.0600    0.0000 C   0  0  0  0  0  0  0  0  0  0  0  0
   12.0632   -0.0600    0.0000 C   0  0  1  0  0  0  0  0  0  0  0  0
    8.5991   -0.0600    0.0000 C   0  0  0  0  0  0  0  0  0  0  0  0
    6.8671    0.9400    0.0000 C   0  0  0  0  0  0  0  0  0  0  0  0
    3.4030   -0.0600    0.0000 C   0  0  0  0  0  0  0  0  0  0  0  0
   12.9292   -0.5600    0.0000 C   0  0  0  0  0  0  0  0  0  0  0  0
    4.2690   -2.1800    0.0000 H   0  0  0  0  0  0  0  0  0  0  0  0
    4.2690    0.0600    0.0000 H   0  0  0  0  0  0  0  0  0  0  0  0
    7.6032    0.3650    0.0000 H   0  0  0  0  0  0  0  0  0  0  0  0
   10.7297    0.4149    0.0000 H   0  0  0  0  0  0  0  0  0  0  0  0
    9.9326    0.4149    0.0000 H   0  0  0  0  0  0  0  0  0  0  0  0
    5.1350    0.5600    0.0000 H   0  0  0  0  0  0  0  0  0  0  0  0
   10.7987   -1.0350    0.0000 H   0  0  0  0  0  0  0  0  0  0  0  0
   11.5957   -1.0350    0.0000 H   0  0  0  0  0  0  0  0  0  0  0  0
    9.0666   -1.0350    0.0000 H   0  0  0  0  0  0  0  0  0  0  0  0
    9.8637   -1.0350    0.0000 H   0  0  0  0  0  0  0  0  0  0  0  0
    3.0930   -1.5231    0.0000 H   0  0  0  0  0  0  0  0  0  0  0  0
    2.8660   -2.3700    0.0000 H   0  0  0  0  0  0  0  0  0  0  0  0
    3.7130   -2.5969    0.0000 H   0  0  0  0  0  0  0  0  0  0  0  0
    4.8250   -2.5969    0.0000 H   0  0  0  0  0  0  0  0  0  0  0  0
    5.6720   -2.3700    0.0000 H   0  0  0  0  0  0  0  0  0  0  0  0
    5.4450   -1.5231    0.0000 H   0  0  0  0  0  0  0  0  0  0  0  0
    7.7331   -1.1800    0.0000 H   0  0  0  0  0  0  0  0  0  0  0  0
   12.6002    0.2500    0.0000 H   0  0  0  0  0  0  0  0  0  0  0  0
    6.6550    1.5226    0.0000 H   0  0  0  0  0  0  0  0  0  0  0  0
    6.2565    0.8323    0.0000 H   0  0  0  0  0  0  0  0  0  0  0  0
   12.6002    1.2500    0.0000 H   0  0  0  0  0  0  0  0  0  0  0  0
   11.5263    1.2500    0.0000 H   0  0  0  0  0  0  0  0  0  0  0  0
    7.7331    2.0600    0.0000 H   0  0  0  0  0  0  0  0  0  0  0  0
    2.0000   -0.2500    0.0000 H   0  0  0  0  0  0  0  0  0  0  0  0
   14.3322   -0.3700    0.0000 H   0  0  0  0  0  0  0  0  0  0  0  0
  1 22  1  0  0  0  0
  1 47  1  0  0  0  0
  2 17  2  0  0  0  0
  3 23  1  0  0  0  0
  3 48  1  0  0  0  0
  4 21  2  0  0  0  0
  5 23  2  0  0  0  0
  6 24  1  0  0  0  0
  6 49  1  0  0  0  0
  7 24  2  0  0  0  0
 12  8  1  6  0  0  0
  8 17  1  0  0  0  0
  8 30  1  0  0  0  0
  9 13  1  0  0  0  0
  9 21  1  0  0  0  0
  9 41  1  0  0  0  0
 20 10  1  6  0  0  0
 10 45  1  0  0  0  0
 10 46  1  0  0  0  0
 11 12  1  0  0  0  0
 11 18  1  0  0  0  0
 11 19  1  0  0  0  0
 11 25  1  0  0  0  0
 12 23  1  0  0  0  0
 12 26  1  0  0  0  0
 13 17  1  0  0  0  0
 13 22  1  0  0  0  0
 13 27  1  0  0  0  0
 14 15  1  0  0  0  0
 14 16  1  0  0  0  0
 14 28  1  0  0  0  0
 14 29  1  0  0  0  0
 15 20  1  0  0  0  0
 15 31  1  0  0  0  0
 15 32  1  0  0  0  0
 16 21  1  0  0  0  0
 16 33  1  0  0  0  0
 16 34  1  0  0  0  0
 18 35  1  0  0  0  0
 18 36  1  0  0  0  0
 18 37  1  0  0  0  0
 19 38  1  0  0  0  0
 19 39  1  0  0  0  0
 19 40  1  0  0  0  0
 20 24  1  0  0  0  0
 20 42  1  0  0  0  0
 22 43  1  0  0  0  0
 22 44  1  0  0  0  0
M  END
> <PUBCHEM_COMPOUND_CID>
440722

> <PUBCHEM_COMPOUND_CANONICALIZED>
1

> <PUBCHEM_CACTVS_COMPLEXITY>
471

> <PUBCHEM_CACTVS_HBOND_ACCEPTOR>
8

> <PUBCHEM_CACTVS_HBOND_DONOR>
6

> <PUBCHEM_CACTVS_ROTATABLE_BOND>
11

> <PUBCHEM_CACTVS_SUBSKEYS>
AAADceBzOABAAAAAAAAAAAAAAAAAAAAAAAAAAAAAAAAAAAAAAAAAHgQQCAAADSjFwASCCALAAgQIAAGQGAAAAAAAAAAAAIGIAAACQBIAgCAUQAAEFgCQAAGYSQAYAAAAAAAAAAAAAAAAAAAAAAAAAAAAAA==

> <PUBCHEM_IUPAC_OPENEYE_NAME>
(2S)-2-amino-6-[[2-[[(1R)-1-carboxy-2-methyl-propyl]amino]-2-oxo-1-(sulfanylmethyl)ethyl]amino]-6-oxo-hexanoic acid

> <PUBCHEM_IUPAC_CAS_NAME>
(2S)-2-amino-6-[[1-[[(1R)-1-carboxy-2-methylpropyl]amino]-3-mercapto-1-oxopropan-2-yl]amino]-6-oxohexanoic acid

> <PUBCHEM_IUPAC_NAME>
(2S)-2-amino-6-[[1-[[(1R)-1-carboxy-2-methylpropyl]amino]-1-oxo-3-sulfanylpropan-2-yl]amino]-6-oxohexanoic acid

> <PUBCHEM_IUPAC_SYSTEMATIC_NAME>
(2S)-2-azanyl-6-[[1-[[(2R)-3-methyl-1-oxidanyl-1-oxidanylidene-butan-2-yl]amino]-1-oxidanylidene-3-sulfanyl-propan-2-yl]amino]-6-oxidanylidene-hexanoic acid

> <PUBCHEM_IUPAC_TRADITIONAL_NAME>
(2S)-2-amino-6-[[2-[[(1R)-1-carboxy-2-methyl-propyl]amino]-2-keto-1-(mercaptomethyl)ethyl]amino]-6-keto-hexanoic acid

> <PUBCHEM_IUPAC_INCHI>
InChI=1S/C14H25N3O6S/c1-7(2)11(14(22)23)17-12(19)9(6-24)16-10(18)5-3-4-8(15)13(20)21/h7-9,11,24H,3-6,15H2,1-2H3,(H,16,18)(H,17,19)(H,20,21)(H,22,23)/t8-,9?,11+/m0/s1

> <PUBCHEM_IUPAC_INCHIKEY>
BYEIJZFKOAXBBV-PGIIIRCOSA-N

> <PUBCHEM_XLOGP3_AA>
-2.8

> <PUBCHEM_EXACT_MASS>
363.146407

> <PUBCHEM_MOLECULAR_FORMULA>
C14H25N3O6S

> <PUBCHEM_MOLECULAR_WEIGHT>
363.4298

> <PUBCHEM_OPENEYE_CAN_SMILES>
CC(C)C(C(=O)O)NC(=O)C(CS)NC(=O)CCCC(C(=O)O)N

> <PUBCHEM_OPENEYE_ISO_SMILES>
CC(C)[C@H](C(=O)O)NC(=O)C(CS)NC(=O)CCC[C@@H](C(=O)O)N

> <PUBCHEM_CACTVS_TPSA>
160

> <PUBCHEM_MONOISOTOPIC_WEIGHT>
363.146407

> <PUBCHEM_TOTAL_CHARGE>
0

> <PUBCHEM_HEAVY_ATOM_COUNT>
24

> <PUBCHEM_ATOM_DEF_STEREO_COUNT>
2

> <PUBCHEM_ATOM_UDEF_STEREO_COUNT>
1

> <PUBCHEM_BOND_DEF_STEREO_COUNT>
0

> <PUBCHEM_BOND_UDEF_STEREO_COUNT>
0

> <PUBCHEM_ISOTOPIC_ATOM_COUNT>
0

> <PUBCHEM_COMPONENT_COUNT>
1

> <PUBCHEM_CACTVS_TAUTO_COUNT>
4

> <PUBCHEM_COORDINATE_TYPE>
1
5
255

> <PUBCHEM_BONDANNOTATIONS>
20  10  6
13  27  3
12  8  6

$$$$

