4583
  -OEChem-07051212532D

 46 49  0     1  0  0  0  0  0999 V2000
    6.3301    2.6342    0.0000 F   0  0  0  0  0  0  0  0  0  0  0  0
    4.5541   -0.3726    0.0000 O   0  0  0  0  0  0  0  0  0  0  0  0
    8.9179    0.1458    0.0000 O   0  0  0  0  0  0  0  0  0  0  0  0
    8.9644   -2.8348    0.0000 O   0  0  0  0  0  0  0  0  0  0  0  0
    9.8008   -1.3181    0.0000 O   0  0  0  0  0  0  0  0  0  0  0  0
    4.5981    1.6342    0.0000 N   0  0  0  0  0  0  0  0  0  0  0  0
    6.3462   -1.4073    0.0000 N   0  0  0  0  0  0  0  0  0  0  0  0
    2.8660    2.6342    0.0000 N   0  0  0  0  0  0  0  0  0  0  0  0
    3.7320    1.1342    0.0000 C   0  0  0  0  0  0  0  0  0  0  0  0
    4.5981    2.6342    0.0000 C   0  0  0  0  0  0  0  0  0  0  0  0
    5.4482   -1.9351    0.0000 C   0  0  3  0  0  0  0  0  0  0  0  0
    5.4641    1.1342    0.0000 C   0  0  0  0  0  0  0  0  0  0  0  0
    6.3301   -0.3658    0.0000 C   0  0  0  0  0  0  0  0  0  0  0  0
    5.4641    0.1342    0.0000 C   0  0  0  0  0  0  0  0  0  0  0  0
    2.8660    1.6342    0.0000 C   0  0  0  0  0  0  0  0  0  0  0  0
    3.7320    3.1342    0.0000 C   0  0  0  0  0  0  0  0  0  0  0  0
    4.5461   -1.4142    0.0000 C   0  0  0  0  0  0  0  0  0  0  0  0
    7.1962    0.1342    0.0000 C   0  0  0  0  0  0  0  0  0  0  0  0
    6.3301    1.6342    0.0000 C   0  0  0  0  0  0  0  0  0  0  0  0
    7.2233   -1.8701    0.0000 C   0  0  0  0  0  0  0  0  0  0  0  0
    7.1962    1.1342    0.0000 C   0  0  0  0  0  0  0  0  0  0  0  0
    5.4520   -2.9350    0.0000 C   0  0  0  0  0  0  0  0  0  0  0  0
    8.0556   -0.3606    0.0000 C   0  0  0  0  0  0  0  0  0  0  0  0
    2.0000    3.1342    0.0000 C   0  0  0  0  0  0  0  0  0  0  0  0
    8.0690   -1.3522    0.0000 C   0  0  0  0  0  0  0  0  0  0  0  0
    8.9448   -1.8350    0.0000 C   0  0  0  0  0  0  0  0  0  0  0  0
    5.2087    2.5265    0.0000 H   0  0  0  0  0  0  0  0  0  0  0  0
    4.8101    3.2168    0.0000 H   0  0  0  0  0  0  0  0  0  0  0  0
    3.3335    0.6593    0.0000 H   0  0  0  0  0  0  0  0  0  0  0  0
    4.1306    0.6593    0.0000 H   0  0  0  0  0  0  0  0  0  0  0  0
    5.9869   -2.2420    0.0000 H   0  0  0  0  0  0  0  0  0  0  0  0
    4.1306    3.6092    0.0000 H   0  0  0  0  0  0  0  0  0  0  0  0
    3.3335    3.6092    0.0000 H   0  0  0  0  0  0  0  0  0  0  0  0
    2.2554    1.7419    0.0000 H   0  0  0  0  0  0  0  0  0  0  0  0
    2.6540    1.0516    0.0000 H   0  0  0  0  0  0  0  0  0  0  0  0
    3.9360   -1.3034    0.0000 H   0  0  0  0  0  0  0  0  0  0  0  0
    4.3325   -1.9963    0.0000 H   0  0  0  0  0  0  0  0  0  0  0  0
    7.2431   -2.4897    0.0000 H   0  0  0  0  0  0  0  0  0  0  0  0
    7.7331    1.4442    0.0000 H   0  0  0  0  0  0  0  0  0  0  0  0
    4.8320   -2.9374    0.0000 H   0  0  0  0  0  0  0  0  0  0  0  0
    5.4544   -3.5550    0.0000 H   0  0  0  0  0  0  0  0  0  0  0  0
    6.0720   -2.9327    0.0000 H   0  0  0  0  0  0  0  0  0  0  0  0
    2.3100    3.6711    0.0000 H   0  0  0  0  0  0  0  0  0  0  0  0
    1.4631    3.4442    0.0000 H   0  0  0  0  0  0  0  0  0  0  0  0
    1.6900    2.5973    0.0000 H   0  0  0  0  0  0  0  0  0  0  0  0
    9.5074   -3.1342    0.0000 H   0  0  0  0  0  0  0  0  0  0  0  0
  1 19  1  0  0  0  0
  2 14  1  0  0  0  0
  2 17  1  0  0  0  0
  3 23  2  0  0  0  0
  4 26  1  0  0  0  0
  4 46  1  0  0  0  0
  5 26  2  0  0  0  0
  6  9  1  0  0  0  0
  6 10  1  0  0  0  0
  6 12  1  0  0  0  0
  7 11  1  0  0  0  0
  7 13  1  0  0  0  0
  7 20  1  0  0  0  0
  8 15  1  0  0  0  0
  8 16  1  0  0  0  0
  8 24  1  0  0  0  0
  9 15  1  0  0  0  0
  9 29  1  0  0  0  0
  9 30  1  0  0  0  0
 10 16  1  0  0  0  0
 10 27  1  0  0  0  0
 10 28  1  0  0  0  0
 11 17  1  0  0  0  0
 11 22  1  0  0  0  0
 11 31  1  0  0  0  0
 12 14  1  0  0  0  0
 12 19  2  0  0  0  0
 13 14  2  0  0  0  0
 13 18  1  0  0  0  0
 15 34  1  0  0  0  0
 15 35  1  0  0  0  0
 16 32  1  0  0  0  0
 16 33  1  0  0  0  0
 17 36  1  0  0  0  0
 17 37  1  0  0  0  0
 18 21  2  0  0  0  0
 18 23  1  0  0  0  0
 19 21  1  0  0  0  0
 20 25  2  0  0  0  0
 20 38  1  0  0  0  0
 21 39  1  0  0  0  0
 22 40  1  0  0  0  0
 22 41  1  0  0  0  0
 22 42  1  0  0  0  0
 23 25  1  0  0  0  0
 24 43  1  0  0  0  0
 24 44  1  0  0  0  0
 24 45  1  0  0  0  0
 25 26  1  0  0  0  0
M  END
> <PUBCHEM_COMPOUND_CID>
4583

> <PUBCHEM_COMPOUND_CANONICALIZED>
1

> <PUBCHEM_CACTVS_COMPLEXITY>
634

> <PUBCHEM_CACTVS_HBOND_ACCEPTOR>
8

> <PUBCHEM_CACTVS_HBOND_DONOR>
1

> <PUBCHEM_CACTVS_ROTATABLE_BOND>
2

> <PUBCHEM_CACTVS_SUBSKEYS>
AAADceB7OQAAAAAAAAAAAAAAAAAAAAAAAAA8WIEAAAAAAACxAAAAHwAACAAADCzhmA4yzoMABgCIAqTWSACCCAAlIAAAiAENTMgOZj7M9NuXeajk4BHY+cea2bOeCAABAAQCEAAQAAIACAQgAAAAAAAAAA==

> <PUBCHEM_IUPAC_INCHI>
InChI=1S/C18H20FN3O4/c1-10-9-26-17-14-11(16(23)12(18(24)25)8-22(10)14)7-13(19)15(17)21-5-3-20(2)4-6-21/h7-8,10H,3-6,9H2,1-2H3,(H,24,25)

> <PUBCHEM_IUPAC_INCHIKEY>
GSDSWSVVBLHKDQ-UHFFFAOYSA-N

> <PUBCHEM_XLOGP3>
-0.4

> <PUBCHEM_EXACT_MASS>
361.143784

> <PUBCHEM_MOLECULAR_FORMULA>
C18H20FN3O4

> <PUBCHEM_MOLECULAR_WEIGHT>
361.367503

> <PUBCHEM_OPENEYE_CAN_SMILES>
CC1COC2=C3N1C=C(C(=O)C3=CC(=C2N4CCN(CC4)C)F)C(=O)O

> <PUBCHEM_OPENEYE_ISO_SMILES>
CC1COC2=C3N1C=C(C(=O)C3=CC(=C2N4CCN(CC4)C)F)C(=O)O

> <PUBCHEM_CACTVS_TPSA>
73.3

> <PUBCHEM_MONOISOTOPIC_WEIGHT>
361.143784

> <PUBCHEM_TOTAL_CHARGE>
0

> <PUBCHEM_HEAVY_ATOM_COUNT>
26

> <PUBCHEM_ATOM_DEF_STEREO_COUNT>
0

> <PUBCHEM_ATOM_UDEF_STEREO_COUNT>
1

> <PUBCHEM_BOND_DEF_STEREO_COUNT>
0

> <PUBCHEM_BOND_UDEF_STEREO_COUNT>
0

> <PUBCHEM_ISOTOPIC_ATOM_COUNT>
0

> <PUBCHEM_COMPONENT_COUNT>
1

> <PUBCHEM_CACTVS_TAUTO_COUNT>
1

> <PUBCHEM_COORDINATE_TYPE>
1
5
255

> <PUBCHEM_BONDANNOTATIONS>
11  22  3
12  14  8
12  19  8
13  14  8
13  18  8
18  21  8
18  23  8
19  21  8
20  25  8
23  25  8
7  13  8
7  20  8

$$$$

