3082301
  -OEChem-07051213092D

 72 75  0     1  0  0  0  0  0999 V2000
   10.3312    1.0950    0.0000 O   0  0  0  0  0  0  0  0  0  0  0  0
    8.5991    1.0950    0.0000 O   0  0  0  0  0  0  0  0  0  0  0  0
    9.4651   -0.4050    0.0000 O   0  0  0  0  0  0  0  0  0  0  0  0
    6.0010    1.5950    0.0000 O   0  0  0  0  0  0  0  0  0  0  0  0
    5.1350    0.0950    0.0000 O   0  0  0  0  0  0  0  0  0  0  0  0
   10.3312    3.0950    0.0000 O   0  0  0  0  0  0  0  0  0  0  0  0
    6.8671    3.0950    0.0000 O   0  0  0  0  0  0  0  0  0  0  0  0
    8.5991    4.0950    0.0000 O   0  0  0  0  0  0  0  0  0  0  0  0
   13.4326    1.0565    0.0000 O   0  0  0  0  0  0  0  0  0  0  0  0
    4.2690    2.5950    0.0000 O   0  0  0  0  0  0  0  0  0  0  0  0
    2.5369    1.5950    0.0000 O   0  0  0  0  0  0  0  0  0  0  0  0
    2.5369   -0.4050    0.0000 O   0  0  0  0  0  0  0  0  0  0  0  0
    9.4651   -3.4050    0.0000 O   0  0  0  0  0  0  0  0  0  0  0  0
   11.1972   -3.4050    0.0000 O   0  0  0  0  0  0  0  0  0  0  0  0
    3.4030   -1.9050    0.0000 O   0  0  0  0  0  0  0  0  0  0  0  0
   11.1972   -0.4050    0.0000 C   0  0  2  0  0  0  0  0  0  0  0  0
   11.1972   -1.4050    0.0000 C   0  0  2  0  0  0  0  0  0  0  0  0
   10.3312    0.0950    0.0000 C   0  0  2  0  0  0  0  0  0  0  0  0
   12.1434   -1.7097    0.0000 C   0  0  0  0  0  0  0  0  0  0  0  0
   12.1434   -0.1003    0.0000 C   0  0  0  0  0  0  0  0  0  0  0  0
    9.4651    1.5950    0.0000 C   0  0  2  0  0  0  0  0  0  0  0  0
    7.7331    1.5950    0.0000 C   0  0  1  0  0  0  0  0  0  0  0  0
    9.4651    2.5950    0.0000 C   0  0  1  0  0  0  0  0  0  0  0  0
    7.7331    2.5950    0.0000 C   0  0  2  0  0  0  0  0  0  0  0  0
    8.5991    3.0950    0.0000 C   0  0  2  0  0  0  0  0  0  0  0  0
   12.7270   -0.9050    0.0000 C   0  0  0  0  0  0  0  0  0  0  0  0
   10.3312   -1.9050    0.0000 C   0  0  0  0  0  0  0  0  0  0  0  0
    6.8671    1.0950    0.0000 C   0  0  0  0  0  0  0  0  0  0  0  0
   12.4541    0.8503    0.0000 C   0  0  0  0  0  0  0  0  0  0  0  0
    5.1350    1.0950    0.0000 C   0  0  2  0  0  0  0  0  0  0  0  0
    9.4651   -1.4050    0.0000 C   0  0  0  0  0  0  0  0  0  0  0  0
    4.2690    1.5950    0.0000 C   0  0  1  0  0  0  0  0  0  0  0  0
    3.4030    1.0950    0.0000 C   0  0  2  0  0  0  0  0  0  0  0  0
    3.4030    0.0950    0.0000 C   0  0  1  0  0  0  0  0  0  0  0  0
    4.2690   -0.4050    0.0000 C   0  0  1  0  0  0  0  0  0  0  0  0
   10.3312   -2.9050    0.0000 C   0  0  0  0  0  0  0  0  0  0  0  0
    4.2690   -1.4050    0.0000 C   0  0  0  0  0  0  0  0  0  0  0  0
    9.4651   -4.4050    0.0000 C   0  0  0  0  0  0  0  0  0  0  0  0
   11.2871    0.4402    0.0000 H   0  0  0  0  0  0  0  0  0  0  0  0
   11.2871   -2.2502    0.0000 H   0  0  0  0  0  0  0  0  0  0  0  0
   10.8681    0.4050    0.0000 H   0  0  0  0  0  0  0  0  0  0  0  0
   11.8924   -2.2766    0.0000 H   0  0  0  0  0  0  0  0  0  0  0  0
   12.6808   -2.0190    0.0000 H   0  0  0  0  0  0  0  0  0  0  0  0
   10.0021    1.9050    0.0000 H   0  0  0  0  0  0  0  0  0  0  0  0
    7.7331    0.9750    0.0000 H   0  0  0  0  0  0  0  0  0  0  0  0
   10.0021    2.2850    0.0000 H   0  0  0  0  0  0  0  0  0  0  0  0
    7.7331    3.2150    0.0000 H   0  0  0  0  0  0  0  0  0  0  0  0
    8.0622    3.4050    0.0000 H   0  0  0  0  0  0  0  0  0  0  0  0
   13.3470   -0.9050    0.0000 H   0  0  0  0  0  0  0  0  0  0  0  0
    6.4685    0.6201    0.0000 H   0  0  0  0  0  0  0  0  0  0  0  0
    7.2656    0.6201    0.0000 H   0  0  0  0  0  0  0  0  0  0  0  0
    5.1350    1.7150    0.0000 H   0  0  0  0  0  0  0  0  0  0  0  0
   12.4335    1.4699    0.0000 H   0  0  0  0  0  0  0  0  0  0  0  0
   11.8403    0.9376    0.0000 H   0  0  0  0  0  0  0  0  0  0  0  0
    4.8059    1.9050    0.0000 H   0  0  0  0  0  0  0  0  0  0  0  0
    8.9282   -1.7150    0.0000 H   0  0  0  0  0  0  0  0  0  0  0  0
    3.4030    1.7150    0.0000 H   0  0  0  0  0  0  0  0  0  0  0  0
    3.4030   -0.5250    0.0000 H   0  0  0  0  0  0  0  0  0  0  0  0
    4.8059   -0.7150    0.0000 H   0  0  0  0  0  0  0  0  0  0  0  0
   10.3312    3.7150    0.0000 H   0  0  0  0  0  0  0  0  0  0  0  0
    6.8671    3.7150    0.0000 H   0  0  0  0  0  0  0  0  0  0  0  0
    8.0622    4.4050    0.0000 H   0  0  0  0  0  0  0  0  0  0  0  0
    4.4810   -1.9876    0.0000 H   0  0  0  0  0  0  0  0  0  0  0  0
    4.8796   -1.2973    0.0000 H   0  0  0  0  0  0  0  0  0  0  0  0
    3.7320    2.9050    0.0000 H   0  0  0  0  0  0  0  0  0  0  0  0
   13.6252    1.6458    0.0000 H   0  0  0  0  0  0  0  0  0  0  0  0
    2.0000    1.2850    0.0000 H   0  0  0  0  0  0  0  0  0  0  0  0
    2.0000   -0.0950    0.0000 H   0  0  0  0  0  0  0  0  0  0  0  0
    3.4030   -2.5250    0.0000 H   0  0  0  0  0  0  0  0  0  0  0  0
    8.8451   -4.4050    0.0000 H   0  0  0  0  0  0  0  0  0  0  0  0
    9.4651   -5.0250    0.0000 H   0  0  0  0  0  0  0  0  0  0  0  0
   10.0851   -4.4050    0.0000 H   0  0  0  0  0  0  0  0  0  0  0  0
 18  1  1  1  0  0  0
 21  1  1  6  0  0  0
  2 21  1  0  0  0  0
  2 22  1  0  0  0  0
  3 18  1  0  0  0  0
  3 31  1  0  0  0  0
  4 28  1  0  0  0  0
 30  4  1  6  0  0  0
  5 30  1  0  0  0  0
  5 35  1  0  0  0  0
 23  6  1  1  0  0  0
  6 60  1  0  0  0  0
 24  7  1  1  0  0  0
  7 61  1  0  0  0  0
 25  8  1  6  0  0  0
  8 62  1  0  0  0  0
  9 29  1  0  0  0  0
  9 66  1  0  0  0  0
 32 10  1  1  0  0  0
 10 65  1  0  0  0  0
 33 11  1  6  0  0  0
 11 67  1  0  0  0  0
 34 12  1  1  0  0  0
 12 68  1  0  0  0  0
 13 36  1  0  0  0  0
 13 38  1  0  0  0  0
 14 36  2  0  0  0  0
 15 37  1  0  0  0  0
 15 69  1  0  0  0  0
 16 17  1  0  0  0  0
 16 18  1  0  0  0  0
 16 20  1  0  0  0  0
 16 39  1  1  0  0  0
 17 19  1  0  0  0  0
 17 27  1  0  0  0  0
 17 40  1  1  0  0  0
 18 41  1  0  0  0  0
 19 26  1  0  0  0  0
 19 42  1  0  0  0  0
 19 43  1  0  0  0  0
 20 26  2  0  0  0  0
 20 29  1  0  0  0  0
 21 23  1  0  0  0  0
 21 44  1  0  0  0  0
 22 24  1  0  0  0  0
 22 28  1  6  0  0  0
 22 45  1  0  0  0  0
 23 25  1  0  0  0  0
 23 46  1  0  0  0  0
 24 25  1  0  0  0  0
 24 47  1  0  0  0  0
 25 48  1  0  0  0  0
 26 49  1  0  0  0  0
 27 31  2  0  0  0  0
 27 36  1  0  0  0  0
 28 50  1  0  0  0  0
 28 51  1  0  0  0  0
 29 53  1  0  0  0  0
 29 54  1  0  0  0  0
 30 32  1  0  0  0  0
 30 52  1  0  0  0  0
 31 56  1  0  0  0  0
 32 33  1  0  0  0  0
 32 55  1  0  0  0  0
 33 34  1  0  0  0  0
 33 57  1  0  0  0  0
 34 35  1  0  0  0  0
 34 58  1  0  0  0  0
 35 37  1  6  0  0  0
 35 59  1  0  0  0  0
 37 63  1  0  0  0  0
 37 64  1  0  0  0  0
 38 70  1  0  0  0  0
 38 71  1  0  0  0  0
 38 72  1  0  0  0  0
M  END
> <PUBCHEM_COMPOUND_CID>
3082301

> <PUBCHEM_COMPOUND_CANONICALIZED>
1

> <PUBCHEM_CACTVS_COMPLEXITY>
894

> <PUBCHEM_CACTVS_HBOND_ACCEPTOR>
15

> <PUBCHEM_CACTVS_HBOND_DONOR>
8

> <PUBCHEM_CACTVS_ROTATABLE_BOND>
9

> <PUBCHEM_CACTVS_SUBSKEYS>
AAADcfB4PAAAAAAAAAAAAAAAAAAAAQAAAAAkSIAAAAAAAEAAAAAAGgAACAAADRSwgAMCCAAABgCIAiDSCAAACAAgIAAACAEAAEgRFBIAIQAiUAAFwAAPMIPIbAwOgAAAAAAAAAAAAAAAAAAAAAAAAAAAAA==

> <PUBCHEM_IUPAC_OPENEYE_NAME>
methyl (1S,4aS,7aS)-7-(hydroxymethyl)-1-[(2S,3R,4S,5S,6R)-3,4,5-trihydroxy-6-[[(2R,3R,4S,5S,6R)-3,4,5-trihydroxy-6-(hydroxymethyl)tetrahydropyran-2-yl]oxymethyl]tetrahydropyran-2-yl]oxy-1,4a,5,7a-tetrahydrocyclopenta[c]pyran-4-carboxylate

> <PUBCHEM_IUPAC_CAS_NAME>
(1S,4aS,7aS)-7-(hydroxymethyl)-1-[[(2S,3R,4S,5S,6R)-3,4,5-trihydroxy-6-[[(2R,3R,4S,5S,6R)-3,4,5-trihydroxy-6-(hydroxymethyl)-2-oxanyl]oxymethyl]-2-oxanyl]oxy]-1,4a,5,7a-tetrahydrocyclopenta[c]pyran-4-carboxylic acid methyl ester

> <PUBCHEM_IUPAC_NAME>
methyl (1S,4aS,7aS)-7-(hydroxymethyl)-1-[(2S,3R,4S,5S,6R)-3,4,5-trihydroxy-6-[[(2R,3R,4S,5S,6R)-3,4,5-trihydroxy-6-(hydroxymethyl)oxan-2-yl]oxymethyl]oxan-2-yl]oxy-1,4a,5,7a-tetrahydrocyclopenta[c]pyran-4-carboxylate

> <PUBCHEM_IUPAC_SYSTEMATIC_NAME>
methyl (1S,4aS,7aS)-7-(hydroxymethyl)-1-[(2S,3R,4S,5S,6R)-6-[[(2R,3R,4S,5S,6R)-6-(hydroxymethyl)-3,4,5-tris(oxidanyl)oxan-2-yl]oxymethyl]-3,4,5-tris(oxidanyl)oxan-2-yl]oxy-1,4a,5,7a-tetrahydrocyclopenta[c]pyran-4-carboxylate

> <PUBCHEM_IUPAC_TRADITIONAL_NAME>
(1S,4aS,7aS)-7-methylol-1-[(2S,3R,4S,5S,6R)-3,4,5-trihydroxy-6-[[(2R,3R,4S,5S,6R)-3,4,5-trihydroxy-6-methylol-tetrahydropyran-2-yl]oxymethyl]tetrahydropyran-2-yl]oxy-1,4a,5,7a-tetrahydrocyclopenta[c]pyran-4-carboxylic acid methyl ester

> <PUBCHEM_IUPAC_INCHI>
InChI=1S/C23H34O15/c1-33-20(32)10-6-34-21(13-8(4-24)2-3-9(10)13)38-23-19(31)17(29)15(27)12(37-23)7-35-22-18(30)16(28)14(26)11(5-25)36-22/h2,6,9,11-19,21-31H,3-5,7H2,1H3/t9-,11-,12-,13-,14-,15-,16+,17+,18-,19-,21+,22-,23+/m1/s1

> <PUBCHEM_IUPAC_INCHIKEY>
FYZYXYLPBWLLGI-AUOPOVQUSA-N

> <PUBCHEM_XLOGP3_AA>
-4.5

> <PUBCHEM_EXACT_MASS>
550.18977

> <PUBCHEM_MOLECULAR_FORMULA>
C23H34O15

> <PUBCHEM_MOLECULAR_WEIGHT>
550.50706

> <PUBCHEM_OPENEYE_CAN_SMILES>
COC(=O)C1=COC(C2C1CC=C2CO)OC3C(C(C(C(O3)COC4C(C(C(C(O4)CO)O)O)O)O)O)O

> <PUBCHEM_OPENEYE_ISO_SMILES>
COC(=O)C1=CO[C@H]([C@H]2[C@@H]1CC=C2CO)O[C@H]3[C@@H]([C@H]([C@@H]([C@H](O3)CO[C@H]4[C@@H]([C@H]([C@@H]([C@H](O4)CO)O)O)O)O)O)O

> <PUBCHEM_CACTVS_TPSA>
234

> <PUBCHEM_MONOISOTOPIC_WEIGHT>
550.18977

> <PUBCHEM_TOTAL_CHARGE>
0

> <PUBCHEM_HEAVY_ATOM_COUNT>
38

> <PUBCHEM_ATOM_DEF_STEREO_COUNT>
13

> <PUBCHEM_ATOM_UDEF_STEREO_COUNT>
0

> <PUBCHEM_BOND_DEF_STEREO_COUNT>
0

> <PUBCHEM_BOND_UDEF_STEREO_COUNT>
0

> <PUBCHEM_ISOTOPIC_ATOM_COUNT>
0

> <PUBCHEM_COMPONENT_COUNT>
1

> <PUBCHEM_CACTVS_TAUTO_COUNT>
1

> <PUBCHEM_COORDINATE_TYPE>
1
5
255

> <PUBCHEM_BONDANNOTATIONS>
18  1  5
21  1  6
32  10  5
33  11  6
34  12  5
16  39  5
17  40  5
22  28  6
35  37  6
30  4  6
23  6  5
24  7  5
25  8  6

$$$$

