   Color/Form

     * Colorless liquid
     * Water-white liquid
     * Colorless to yellowish liquid.

   from [1]HSDB

   Odor

     * Sharp, pungent, irritating
     * Strong, pungent odor.

   from [2]HSDB

   Boiling Point
        106 DEG C
   from [3]HSDB

   Melting Point
        -21.77 DEG C
   from [4]HSDB

   Corrosivity
        ... metals (corrosive)
   from [5]HSDB

   Critical Temperature and Pressure
        Critical temp = 581 deg K; Critical pressure = 5.11X10+6 Pa
   from [6]HSDB

   Density/Specific Gravity
        1.4202 @ 20 DEG C/4 DEG C
   from [7]HSDB

   Heat of Combustion
        -4,000 Btu/lb = -2,000 cal/g = -90X10+5 J/kg (est)
   from [8]HSDB

   Heat of Vaporization
        4.124X10+7 J/Kmol @ 251.15 K
   from [9]HSDB

   Solubilities

     * Miscible with ethyl ether; soluble in acetone and carbon
       tetrachloride.
     * Miscible with acetone and benzene. Initially insoluble in water,
       however a slow reaction at the water-chloroacetyl chloride
       interface produces chloroacetic acid. When sufficient acid is
       formed to solubilize the two phases, a violent reaction forming
       chloroacetic acid and HCl occurs.

   from [10]HSDB

   Spectral Properties

     * Index of refraction: 1.4541 @ 20 deg C/D
     * IR: 2239 (Coblentz Society Spectral Collection)
     * NMR: 9147 (Sadtler Research Laboratories Spectral Collection)
     * MASS: 130 (National Bureau of Standards EPA-NIH Mass Spectra Data
       Base, NSRDS-NBS-63)
     * IR: 2:376C (Aldrich Library of Infrared Spectra, Aldrich Chemical
       Co, Milwaukee, WI)
     * NMR: 3:87B (Aldrich Library of Mass Spectra, Aldrich Chemical Co,
       Milwaukee, WI)

   from [11]HSDB

   Surface Tension
        4.51X10-2 N/m @ 251.15 K
   from [12]HSDB

   Vapor Pressure
        25.2 mm Hg @ 25 deg C
   from [13]HSDB

   Other Chemical/Physical Properties

     * Ratio of specific heat of vapor (gas): 1.1191; Heat of solution:
       -54 Btu/lb = -30 cal/g = -1.3X10+5 J/kg (est)
     * Critical volume = 0.245 cu m/kmol
     * It is initially insoluble in water...a slow reaction at the
       water-chloroacetyl chloride interface produces chloroacetic acid;
       when sufficient acid is formed to solubilize the two phases, a
       violent reaction of chloroacetic acid and hydrogen chloride occurs.
     * Liquid molar volume = 0.080245 cu m/kmol
     * Heat of formation = -2.4560X10+8 J/kmol
     * Hydrolyzed by water and alcohol.

   from [14]HSDB

   Computed Properties
   Molecular Weight                  112.94268 [g/mol]
   Molecular Formula                 C[2]H[2]Cl[2]O
   XLogP3-AA                         1.4
   H-Bond Donor                      0
   H-Bond Acceptor                   1
   Rotatable Bond Count              1
   Exact Mass                        111.94827
   MonoIsotopic Mass                 111.94827
   Topological Polar Surface Area    17.1
   Heavy Atom Count                  5
   Formal Charge                     0
   Complexity                        42.9
   Isotope Atom Count                0
   Defined Atom Stereocenter Count   0
   Undefined Atom Stereocenter Count 0
   Defined Bond Stereocenter Count   0
   Undefined Bond Stereocenter Count 0
   Covalently-Bonded Unit Count      1
   Effective Rotor Count             1
   Conformer Sampling RMSD           0.4
   CID Conformer Count               [15]6

References

   1. http://toxnet.nlm.nih.gov/cgi-bin/sis/search/r?dbs+hsdb:@term+@rn+@rel+79-04-9
   2. http://toxnet.nlm.nih.gov/cgi-bin/sis/search/r?dbs+hsdb:@term+@rn+@rel+79-04-9
   3. http://toxnet.nlm.nih.gov/cgi-bin/sis/search/r?dbs+hsdb:@term+@rn+@rel+79-04-9
   4. http://toxnet.nlm.nih.gov/cgi-bin/sis/search/r?dbs+hsdb:@term+@rn+@rel+79-04-9
   5. http://toxnet.nlm.nih.gov/cgi-bin/sis/search/r?dbs+hsdb:@term+@rn+@rel+79-04-9
   6. http://toxnet.nlm.nih.gov/cgi-bin/sis/search/r?dbs+hsdb:@term+@rn+@rel+79-04-9
   7. http://toxnet.nlm.nih.gov/cgi-bin/sis/search/r?dbs+hsdb:@term+@rn+@rel+79-04-9
   8. http://toxnet.nlm.nih.gov/cgi-bin/sis/search/r?dbs+hsdb:@term+@rn+@rel+79-04-9
   9. http://toxnet.nlm.nih.gov/cgi-bin/sis/search/r?dbs+hsdb:@term+@rn+@rel+79-04-9
  10. http://toxnet.nlm.nih.gov/cgi-bin/sis/search/r?dbs+hsdb:@term+@rn+@rel+79-04-9
  11. http://toxnet.nlm.nih.gov/cgi-bin/sis/search/r?dbs+hsdb:@term+@rn+@rel+79-04-9
  12. http://toxnet.nlm.nih.gov/cgi-bin/sis/search/r?dbs+hsdb:@term+@rn+@rel+79-04-9
  13. http://toxnet.nlm.nih.gov/cgi-bin/sis/search/r?dbs+hsdb:@term+@rn+@rel+79-04-9
  14. http://toxnet.nlm.nih.gov/cgi-bin/sis/search/r?dbs+hsdb:@term+@rn+@rel+79-04-9
  15. http://pubchem.ncbi.nlm.nih.gov/vw3d/vw3d.cgi?cid=6577
