443936
  -OEChem-07051213032D

 70 73  0     1  0  0  0  0  0999 V2000
    5.0182    0.1669    0.0000 F   0  0  0  0  0  0  0  0  0  0  0  0
    5.6489   -3.6684    0.0000 F   0  0  0  0  0  0  0  0  0  0  0  0
    8.0319    1.6572    0.0000 O   0  0  0  0  0  0  0  0  0  0  0  0
    4.7950    0.9008    0.0000 O   0  0  0  0  0  0  0  0  0  0  0  0
    9.7423    1.7212    0.0000 O   0  0  0  0  0  0  0  0  0  0  0  0
   10.9151    0.1012    0.0000 O   0  0  0  0  0  0  0  0  0  0  0  0
    9.1931    2.9423    0.0000 O   0  0  0  0  0  0  0  0  0  0  0  0
    2.0000   -2.6515    0.0000 O   0  0  0  0  0  0  0  0  0  0  0  0
   11.0932   -1.6217    0.0000 O   0  0  0  0  0  0  0  0  0  0  0  0
    7.3931    0.4008    0.0000 C   0  0  1  0  0  0  0  0  0  0  0  0
    7.3931   -0.5992    0.0000 C   0  0  2  0  0  0  0  0  0  0  0  0
    6.5271   -1.0992    0.0000 C   0  0  1  0  0  0  0  0  0  0  0  0
    5.6610   -0.5992    0.0000 C   0  0  1  0  0  0  0  0  0  0  0  0
    8.3393    0.7056    0.0000 C   0  0  1  0  0  0  0  0  0  0  0  0
    6.5271    0.9008    0.0000 C   0  0  0  0  0  0  0  0  0  0  0  0
    8.3393   -0.9039    0.0000 C   0  0  0  0  0  0  0  0  0  0  0  0
    5.6610    0.4008    0.0000 C   0  0  2  0  0  0  0  0  0  0  0  0
    4.7510   -1.1060    0.0000 C   0  0  1  0  0  0  0  0  0  0  0  0
    8.9229   -0.0992    0.0000 C   0  0  0  0  0  0  0  0  0  0  0  0
    6.5431   -2.1407    0.0000 C   0  0  0  0  0  0  0  0  0  0  0  0
    7.3931    1.4008    0.0000 C   0  0  0  0  0  0  0  0  0  0  0  0
    5.6451   -2.6684    0.0000 C   0  0  1  0  0  0  0  0  0  0  0  0
    4.7430   -2.1476    0.0000 C   0  0  0  0  0  0  0  0  0  0  0  0
    9.3340    0.8084    0.0000 C   0  0  0  0  0  0  0  0  0  0  0  0
    4.4163   -0.1637    0.0000 C   0  0  0  0  0  0  0  0  0  0  0  0
    3.8242   -0.5419    0.0000 C   0  0  0  0  0  0  0  0  0  0  0  0
    3.8076   -2.6973    0.0000 C   0  0  0  0  0  0  0  0  0  0  0  0
    9.9204   -0.0017    0.0000 C   0  0  0  0  0  0  0  0  0  0  0  0
    2.8763   -1.0699    0.0000 C   0  0  0  0  0  0  0  0  0  0  0  0
    8.2415    2.6350    0.0000 C   0  0  0  0  0  0  0  0  0  0  0  0
    2.8680   -2.1548    0.0000 C   0  0  0  0  0  0  0  0  0  0  0  0
    7.4996    3.3054    0.0000 C   0  0  0  0  0  0  0  0  0  0  0  0
    6.5480    2.9980    0.0000 C   0  0  0  0  0  0  0  0  0  0  0  0
   11.5015   -0.7089    0.0000 C   0  0  0  0  0  0  0  0  0  0  0  0
    5.8060    3.6684    0.0000 C   0  0  0  0  0  0  0  0  0  0  0  0
   12.4962   -0.6061    0.0000 C   0  0  0  0  0  0  0  0  0  0  0  0
    7.4830   -1.4444    0.0000 H   0  0  0  0  0  0  0  0  0  0  0  0
    7.2664   -1.5185    0.0000 H   0  0  0  0  0  0  0  0  0  0  0  0
    6.9256    1.3758    0.0000 H   0  0  0  0  0  0  0  0  0  0  0  0
    6.1285    1.3758    0.0000 H   0  0  0  0  0  0  0  0  0  0  0  0
    8.0883   -1.4708    0.0000 H   0  0  0  0  0  0  0  0  0  0  0  0
    8.8767   -1.2131    0.0000 H   0  0  0  0  0  0  0  0  0  0  0  0
    5.6610    1.0208    0.0000 H   0  0  0  0  0  0  0  0  0  0  0  0
    9.3838   -0.5139    0.0000 H   0  0  0  0  0  0  0  0  0  0  0  0
    9.3838    0.3156    0.0000 H   0  0  0  0  0  0  0  0  0  0  0  0
    6.7612   -2.7211    0.0000 H   0  0  0  0  0  0  0  0  0  0  0  0
    7.1523   -2.0252    0.0000 H   0  0  0  0  0  0  0  0  0  0  0  0
    8.0131    1.4008    0.0000 H   0  0  0  0  0  0  0  0  0  0  0  0
    7.3931    2.0208    0.0000 H   0  0  0  0  0  0  0  0  0  0  0  0
    6.7731    1.4008    0.0000 H   0  0  0  0  0  0  0  0  0  0  0  0
    5.1087   -2.9794    0.0000 H   0  0  0  0  0  0  0  0  0  0  0  0
    5.0005    0.0439    0.0000 H   0  0  0  0  0  0  0  0  0  0  0  0
    4.2087    0.4205    0.0000 H   0  0  0  0  0  0  0  0  0  0  0  0
    3.8320   -0.3713    0.0000 H   0  0  0  0  0  0  0  0  0  0  0  0
    3.8361    0.0780    0.0000 H   0  0  0  0  0  0  0  0  0  0  0  0
    4.7950    1.5208    0.0000 H   0  0  0  0  0  0  0  0  0  0  0  0
    3.8100   -3.3173    0.0000 H   0  0  0  0  0  0  0  0  0  0  0  0
    9.3627   -0.2725    0.0000 H   0  0  0  0  0  0  0  0  0  0  0  0
   10.0903   -0.5979    0.0000 H   0  0  0  0  0  0  0  0  0  0  0  0
    2.3430   -0.7537    0.0000 H   0  0  0  0  0  0  0  0  0  0  0  0
    7.9888    3.6862    0.0000 H   0  0  0  0  0  0  0  0  0  0  0  0
    7.2094    3.8533    0.0000 H   0  0  0  0  0  0  0  0  0  0  0  0
    6.0587    2.6171    0.0000 H   0  0  0  0  0  0  0  0  0  0  0  0
    6.8381    2.4501    0.0000 H   0  0  0  0  0  0  0  0  0  0  0  0
    6.2216    4.1284    0.0000 H   0  0  0  0  0  0  0  0  0  0  0  0
    5.3459    4.0841    0.0000 H   0  0  0  0  0  0  0  0  0  0  0  0
    5.3903    3.2084    0.0000 H   0  0  0  0  0  0  0  0  0  0  0  0
   12.5599   -1.2228    0.0000 H   0  0  0  0  0  0  0  0  0  0  0  0
   13.1129   -0.5423    0.0000 H   0  0  0  0  0  0  0  0  0  0  0  0
   12.4324    0.0106    0.0000 H   0  0  0  0  0  0  0  0  0  0  0  0
 13  1  1  6  0  0  0
 22  2  1  6  0  0  0
 14  3  1  6  0  0  0
  3 30  1  0  0  0  0
 17  4  1  1  0  0  0
  4 56  1  0  0  0  0
  5 24  2  0  0  0  0
  6 28  1  0  0  0  0
  6 34  1  0  0  0  0
  7 30  2  0  0  0  0
  8 31  2  0  0  0  0
  9 34  2  0  0  0  0
 10 11  1  0  0  0  0
 10 14  1  0  0  0  0
 10 15  1  0  0  0  0
 10 21  1  1  0  0  0
 11 12  1  0  0  0  0
 11 16  1  0  0  0  0
 11 37  1  6  0  0  0
 12 13  1  0  0  0  0
 12 20  1  0  0  0  0
 12 38  1  1  0  0  0
 13 17  1  0  0  0  0
 13 18  1  0  0  0  0
 14 19  1  0  0  0  0
 14 24  1  0  0  0  0
 15 17  1  0  0  0  0
 15 39  1  0  0  0  0
 15 40  1  0  0  0  0
 16 19  1  0  0  0  0
 16 41  1  0  0  0  0
 16 42  1  0  0  0  0
 17 43  1  0  0  0  0
 18 23  1  0  0  0  0
 18 25  1  1  0  0  0
 18 26  1  0  0  0  0
 19 44  1  0  0  0  0
 19 45  1  0  0  0  0
 20 22  1  0  0  0  0
 20 46  1  0  0  0  0
 20 47  1  0  0  0  0
 21 48  1  0  0  0  0
 21 49  1  0  0  0  0
 21 50  1  0  0  0  0
 22 23  1  0  0  0  0
 22 51  1  0  0  0  0
 23 27  2  0  0  0  0
 24 28  1  0  0  0  0
 25 52  1  0  0  0  0
 25 53  1  0  0  0  0
 25 54  1  0  0  0  0
 26 29  2  0  0  0  0
 26 55  1  0  0  0  0
 27 31  1  0  0  0  0
 27 57  1  0  0  0  0
 28 58  1  0  0  0  0
 28 59  1  0  0  0  0
 29 31  1  0  0  0  0
 29 60  1  0  0  0  0
 30 32  1  0  0  0  0
 32 33  1  0  0  0  0
 32 61  1  0  0  0  0
 32 62  1  0  0  0  0
 33 35  1  0  0  0  0
 33 63  1  0  0  0  0
 33 64  1  0  0  0  0
 34 36  1  0  0  0  0
 35 65  1  0  0  0  0
 35 66  1  0  0  0  0
 35 67  1  0  0  0  0
 36 68  1  0  0  0  0
 36 69  1  0  0  0  0
 36 70  1  0  0  0  0
M  END
> <PUBCHEM_COMPOUND_CID>
443936

> <PUBCHEM_COMPOUND_CANONICALIZED>
1

> <PUBCHEM_CACTVS_COMPLEXITY>
1050

> <PUBCHEM_CACTVS_HBOND_ACCEPTOR>
9

> <PUBCHEM_CACTVS_HBOND_DONOR>
1

> <PUBCHEM_CACTVS_ROTATABLE_BOND>
8

> <PUBCHEM_CACTVS_SUBSKEYS>
AAADcfB4OYAAAAAAAAAAAAAAAAAAAYAAAAAwYIAAAAAAAGDAAAAAGwAACAAAD1SggAICCAAABgCIAqDSCAIAAAAgAAAICAFAAEgAEBIAAQQCQAAFgAAIAYPIzPDPgAAAAAAAAADAAAYAADAAAYAADAAAAA==

> <PUBCHEM_IUPAC_OPENEYE_NAME>
[(6S,8S,9R,10S,11S,13S,14S,17R)-17-(2-acetoxyacetyl)-6,9-difluoro-11-hydroxy-10,13-dimethyl-3-oxo-6,7,8,11,12,14,15,16-octahydrocyclopenta[a]phenanthren-17-yl] butanoate

> <PUBCHEM_IUPAC_CAS_NAME>
butanoic acid [(6S,8S,9R,10S,11S,13S,14S,17R)-17-(2-acetyloxy-1-oxoethyl)-6,9-difluoro-11-hydroxy-10,13-dimethyl-3-oxo-6,7,8,11,12,14,15,16-octahydrocyclopenta[a]phenanthren-17-yl] ester

> <PUBCHEM_IUPAC_NAME>
[(6S,8S,9R,10S,11S,13S,14S,17R)-17-(2-acetyloxyacetyl)-6,9-difluoro-11-hydroxy-10,13-dimethyl-3-oxo-6,7,8,11,12,14,15,16-octahydrocyclopenta[a]phenanthren-17-yl] butanoate

> <PUBCHEM_IUPAC_SYSTEMATIC_NAME>
[(6S,8S,9R,10S,11S,13S,14S,17R)-17-(2-acetyloxyethanoyl)-6,9-bis(fluoranyl)-10,13-dimethyl-11-oxidanyl-3-oxidanylidene-6,7,8,11,12,14,15,16-octahydrocyclopenta[a]phenanthren-17-yl] butanoate

> <PUBCHEM_IUPAC_TRADITIONAL_NAME>
butyric acid [(6S,8S,9R,10S,11S,13S,14S,17R)-17-(2-acetoxyacetyl)-6,9-difluoro-11-hydroxy-3-keto-10,13-dimethyl-6,7,8,11,12,14,15,16-octahydrocyclopenta[a]phenanthren-17-yl] ester

> <PUBCHEM_IUPAC_INCHI>
InChI=1S/C27H34F2O7/c1-5-6-23(34)36-26(22(33)14-35-15(2)30)10-8-17-18-12-20(28)19-11-16(31)7-9-24(19,3)27(18,29)21(32)13-25(17,26)4/h7,9,11,17-18,20-21,32H,5-6,8,10,12-14H2,1-4H3/t17-,18-,20-,21-,24-,25-,26-,27-/m0/s1

> <PUBCHEM_IUPAC_INCHIKEY>
WYQPLTPSGFELIB-JTQPXKBDSA-N

> <PUBCHEM_XLOGP3>
3.4

> <PUBCHEM_EXACT_MASS>
508.22726

> <PUBCHEM_MOLECULAR_FORMULA>
C27H34F2O7

> <PUBCHEM_MOLECULAR_WEIGHT>
508.551466

> <PUBCHEM_OPENEYE_CAN_SMILES>
CCCC(=O)OC1(CCC2C1(CC(C3(C2CC(C4=CC(=O)C=CC43C)F)F)O)C)C(=O)COC(=O)C

> <PUBCHEM_OPENEYE_ISO_SMILES>
CCCC(=O)O[C@@]1(CC[C@@H]2[C@@]1(C[C@@H]([C@]3([C@H]2C[C@@H](C4=CC(=O)C=C[C@@]43C)F)F)O)C)C(=O)COC(=O)C

> <PUBCHEM_CACTVS_TPSA>
107

> <PUBCHEM_MONOISOTOPIC_WEIGHT>
508.22726

> <PUBCHEM_TOTAL_CHARGE>
0

> <PUBCHEM_HEAVY_ATOM_COUNT>
36

> <PUBCHEM_ATOM_DEF_STEREO_COUNT>
8

> <PUBCHEM_ATOM_UDEF_STEREO_COUNT>
0

> <PUBCHEM_BOND_DEF_STEREO_COUNT>
0

> <PUBCHEM_BOND_UDEF_STEREO_COUNT>
0

> <PUBCHEM_ISOTOPIC_ATOM_COUNT>
0

> <PUBCHEM_COMPONENT_COUNT>
1

> <PUBCHEM_CACTVS_TAUTO_COUNT>
2

> <PUBCHEM_COORDINATE_TYPE>
1
5
255

> <PUBCHEM_BONDANNOTATIONS>
13  1  6
10  21  5
11  37  6
12  38  5
18  25  5
22  2  6
14  3  6
17  4  5

$$$$

