   Color/Form

     * CRYSTALS
     * WHITE TO PALE YELLOW, CRYSTALLINE POWDER

   from [1]HSDB

   Odor
        ODORLESS OR HAS FAINT ODOR
   from [2]HSDB

   Melting Point
        155-156 deg C (decomposes)
   from [3]HSDB

   pH
        AQ SOLN HAVE PH OF ABOUT 6
   from [4]HSDB

   Solubilities
        SOL IN WATER; SLIGHTLY SOL IN METHANOL, PROPYLENE GLYCOL
   from [5]HSDB

   Spectral Properties

     * INDEX OF REFRACTION: 1.583 (ALPHA), 1.630 (GAMMA)
     * MAX ABSORPTION: 226 NM (E= 402, 1%, 1 CM)
     * SPECIFIC OPTICAL ROTATION: +116 DEG @ 23 DEG C/D (1.17%); +137 DEG
       @ 25 DEG C/546 NM (2 N NAOH, 5%)
     * IR: 9803 (Sadtler Research Laboratories IR Grating Collection)
     * UV: 651 (Absorption Spectra in the UV and visible Regions, Academic
       Press, New York)

   from [6]HSDB

   Other Chemical/Physical Properties

     * FORMS SALT WITH ACIDS OR BASES
     * HYGROSCOPIC

   from [7]HSDB

   Computed Properties
   Molecular Weight                  102.09194 [g/mol]
   Molecular Formula                 C[3]H[6]N[2]O[2]
   XLogP3-AA                         -1.5
   H-Bond Donor                      2
   H-Bond Acceptor                   3
   Rotatable Bond Count              0
   Tautomer Count                    5
   Exact Mass                        102.042927
   MonoIsotopic Mass                 102.042927
   Topological Polar Surface Area    64.4
   Heavy Atom Count                  7
   Formal Charge                     0
   Complexity                        92.9
   Isotope Atom Count                0
   Defined Atom Stereocenter Count   0
   Undefined Atom Stereocenter Count 1
   Defined Bond Stereocenter Count   0
   Undefined Bond Stereocenter Count 0
   Covalently-Bonded Unit Count      1
   Feature 3D Acceptor Count         1
   Feature 3D Donor Count            2
   Feature 3D Cation Count           1
   Feature 3D Ring Count             1
   Effective Rotor Count             0.8
   Conformer Sampling RMSD           0.4
   CID Conformer Count               [8]1

References

   1. http://toxnet.nlm.nih.gov/cgi-bin/sis/search/r?dbs+hsdb:@term+@rn+@rel+68-41-7
   2. http://toxnet.nlm.nih.gov/cgi-bin/sis/search/r?dbs+hsdb:@term+@rn+@rel+68-41-7
   3. http://toxnet.nlm.nih.gov/cgi-bin/sis/search/r?dbs+hsdb:@term+@rn+@rel+68-41-7
   4. http://toxnet.nlm.nih.gov/cgi-bin/sis/search/r?dbs+hsdb:@term+@rn+@rel+68-41-7
   5. http://toxnet.nlm.nih.gov/cgi-bin/sis/search/r?dbs+hsdb:@term+@rn+@rel+68-41-7
   6. http://toxnet.nlm.nih.gov/cgi-bin/sis/search/r?dbs+hsdb:@term+@rn+@rel+68-41-7
   7. http://toxnet.nlm.nih.gov/cgi-bin/sis/search/r?dbs+hsdb:@term+@rn+@rel+68-41-7
   8. http://pubchem.ncbi.nlm.nih.gov/vw3d/vw3d.cgi?cid=401
