5607
  -OEChem-06261200462D

117120  0     1  0  0  0  0  0999 V2000
    6.8671   -2.1126    0.0000 O   0  0  0  0  0  0  0  0  0  0  0  0
    9.4081   -5.7003    0.0000 O   0  0  0  0  0  0  0  0  0  0  0  0
    6.0010   -0.6125    0.0000 O   0  0  0  0  0  0  0  0  0  0  0  0
    9.4651   -2.6126    0.0000 O   0  0  0  0  0  0  0  0  0  0  0  0
    5.1350   -2.1126    0.0000 O   0  0  0  0  0  0  0  0  0  0  0  0
    9.4651   -3.6126    0.0000 O   0  0  0  0  0  0  0  0  0  0  0  0
    9.4651   -0.6125    0.0000 O   0  0  0  0  0  0  0  0  0  0  0  0
    6.8390   -5.3913    0.0000 O   0  0  0  0  0  0  0  0  0  0  0  0
    7.5113   -7.4604    0.0000 O   0  0  0  0  0  0  0  0  0  0  0  0
    2.5369   -0.6125    0.0000 O   0  0  0  0  0  0  0  0  0  0  0  0
    2.5369   -2.6126    0.0000 O   0  0  0  0  0  0  0  0  0  0  0  0
    3.4030   -4.1126    0.0000 O   0  0  0  0  0  0  0  0  0  0  0  0
    9.4651    0.3875    0.0000 O   0  0  0  0  0  0  0  0  0  0  0  0
    8.2856   -8.4785    0.0000 O   0  0  0  0  0  0  0  0  0  0  0  0
    2.5369    0.3875    0.0000 O   0  0  0  0  0  0  0  0  0  0  0  0
   11.4503   -9.8874    0.0000 O   0  0  0  0  0  0  0  0  0  0  0  0
    7.7331    0.3875    0.0000 N   0  0  0  0  0  0  0  0  0  0  0  0
    9.6869   -7.4604    0.0000 N   0  0  0  0  0  0  0  0  0  0  0  0
    4.2690    0.3875    0.0000 N   0  0  0  0  0  0  0  0  0  0  0  0
    9.8680   -9.1830    0.0000 N   0  0  0  0  0  0  0  0  0  0  0  0
    7.7331   -2.6126    0.0000 C   0  0  3  0  0  0  0  0  0  0  0  0
    8.5991   -5.1126    0.0000 C   0  0  3  0  0  0  0  0  0  0  0  0
    8.5991   -2.1126    0.0000 C   0  0  3  0  0  0  0  0  0  0  0  0
    7.7331   -3.6126    0.0000 C   0  0  0  0  0  0  0  0  0  0  0  0
    8.5991   -4.1126    0.0000 C   0  0  3  0  0  0  0  0  0  0  0  0
    7.7331   -0.6125    0.0000 C   0  0  3  0  0  0  0  0  0  0  0  0
    8.5991   -1.1126    0.0000 C   0  0  3  0  0  0  0  0  0  0  0  0
    6.8671   -1.1126    0.0000 C   0  0  3  0  0  0  0  0  0  0  0  0
    7.7901   -5.7003    0.0000 C   0  0  3  0  0  0  0  0  0  0  0  0
    8.0991   -6.6514    0.0000 C   0  0  3  0  0  0  0  0  0  0  0  0
    9.0991   -6.6514    0.0000 C   0  0  3  0  0  0  0  0  0  0  0  0
    5.1350   -1.1126    0.0000 C   0  0  3  0  0  0  0  0  0  0  0  0
    4.2690   -0.6125    0.0000 C   0  0  3  0  0  0  0  0  0  0  0  0
    3.4030   -1.1126    0.0000 C   0  0  3  0  0  0  0  0  0  0  0  0
    3.4030   -2.1126    0.0000 C   0  0  3  0  0  0  0  0  0  0  0  0
    4.2690   -2.6126    0.0000 C   0  0  3  0  0  0  0  0  0  0  0  0
    4.2690   -3.6126    0.0000 C   0  0  0  0  0  0  0  0  0  0  0  0
    8.5991    0.8875    0.0000 C   0  0  0  0  0  0  0  0  0  0  0  0
    9.2802   -8.3740    0.0000 C   0  0  0  0  0  0  0  0  0  0  0  0
   10.6814   -7.3559    0.0000 C   0  0  0  0  0  0  0  0  0  0  0  0
    3.4030    0.8875    0.0000 C   0  0  0  0  0  0  0  0  0  0  0  0
   11.2692   -8.1649    0.0000 C   0  0  0  0  0  0  0  0  0  0  0  0
    8.5991    1.8874    0.0000 C   0  0  0  0  0  0  0  0  0  0  0  0
   10.8625   -9.0784    0.0000 C   0  0  0  0  0  0  0  0  0  0  0  0
    3.4030    1.8874    0.0000 C   0  0  0  0  0  0  0  0  0  0  0  0
    9.4651    2.3874    0.0000 C   0  0  0  0  0  0  0  0  0  0  0  0
    9.4651    3.3874    0.0000 C   0  0  0  0  0  0  0  0  0  0  0  0
   10.3312    3.8874    0.0000 C   0  0  0  0  0  0  0  0  0  0  0  0
   10.3312    4.8874    0.0000 C   0  0  0  0  0  0  0  0  0  0  0  0
   11.1972    5.3874    0.0000 C   0  0  0  0  0  0  0  0  0  0  0  0
   11.1972    6.3874    0.0000 C   0  0  0  0  0  0  0  0  0  0  0  0
   12.0632    6.8874    0.0000 C   0  0  0  0  0  0  0  0  0  0  0  0
   12.0632    7.8874    0.0000 C   0  0  0  0  0  0  0  0  0  0  0  0
   12.9292    8.3874    0.0000 C   0  0  0  0  0  0  0  0  0  0  0  0
   12.9292    9.3874    0.0000 C   0  0  0  0  0  0  0  0  0  0  0  0
   13.7953    9.8874    0.0000 C   0  0  0  0  0  0  0  0  0  0  0  0
   12.0632    9.8874    0.0000 C   0  0  0  0  0  0  0  0  0  0  0  0
    6.9970   -3.0375    0.0000 H   0  0  0  0  0  0  0  0  0  0  0  0
    9.3565   -4.7266    0.0000 H   0  0  0  0  0  0  0  0  0  0  0  0
    8.5991   -2.9625    0.0000 H   0  0  0  0  0  0  0  0  0  0  0  0
    7.1225   -3.5049    0.0000 H   0  0  0  0  0  0  0  0  0  0  0  0
    7.5210   -4.1952    0.0000 H   0  0  0  0  0  0  0  0  0  0  0  0
    8.5991   -3.2626    0.0000 H   0  0  0  0  0  0  0  0  0  0  0  0
    8.4692   -0.1875    0.0000 H   0  0  0  0  0  0  0  0  0  0  0  0
    8.5991   -0.2625    0.0000 H   0  0  0  0  0  0  0  0  0  0  0  0
    6.1309   -1.5376    0.0000 H   0  0  0  0  0  0  0  0  0  0  0  0
    7.6571   -4.8608    0.0000 H   0  0  0  0  0  0  0  0  0  0  0  0
    7.2596   -6.5184    0.0000 H   0  0  0  0  0  0  0  0  0  0  0  0
    8.7132   -7.4087    0.0000 H   0  0  0  0  0  0  0  0  0  0  0  0
    5.1350   -0.2625    0.0000 H   0  0  0  0  0  0  0  0  0  0  0  0
    5.0051   -0.1875    0.0000 H   0  0  0  0  0  0  0  0  0  0  0  0
    3.4030   -0.2625    0.0000 H   0  0  0  0  0  0  0  0  0  0  0  0
    3.4030   -2.9625    0.0000 H   0  0  0  0  0  0  0  0  0  0  0  0
    5.0051   -3.0375    0.0000 H   0  0  0  0  0  0  0  0  0  0  0  0
    7.1962    0.6975    0.0000 H   0  0  0  0  0  0  0  0  0  0  0  0
   10.0021   -2.3026    0.0000 H   0  0  0  0  0  0  0  0  0  0  0  0
   10.0021   -3.9226    0.0000 H   0  0  0  0  0  0  0  0  0  0  0  0
   10.0021   -0.9225    0.0000 H   0  0  0  0  0  0  0  0  0  0  0  0
    6.3783   -5.8062    0.0000 H   0  0  0  0  0  0  0  0  0  0  0  0
    4.8059    0.6975    0.0000 H   0  0  0  0  0  0  0  0  0  0  0  0
    6.8947   -7.3956    0.0000 H   0  0  0  0  0  0  0  0  0  0  0  0
    4.4810   -4.1952    0.0000 H   0  0  0  0  0  0  0  0  0  0  0  0
    4.8796   -3.5049    0.0000 H   0  0  0  0  0  0  0  0  0  0  0  0
   10.9336   -6.7895    0.0000 H   0  0  0  0  0  0  0  0  0  0  0  0
    2.0000   -0.9225    0.0000 H   0  0  0  0  0  0  0  0  0  0  0  0
    2.0000   -2.3026    0.0000 H   0  0  0  0  0  0  0  0  0  0  0  0
    9.6158   -9.7494    0.0000 H   0  0  0  0  0  0  0  0  0  0  0  0
   11.8858   -8.1001    0.0000 H   0  0  0  0  0  0  0  0  0  0  0  0
    8.0622    2.1974    0.0000 H   0  0  0  0  0  0  0  0  0  0  0  0
    3.4030   -4.7325    0.0000 H   0  0  0  0  0  0  0  0  0  0  0  0
    4.0230    1.8874    0.0000 H   0  0  0  0  0  0  0  0  0  0  0  0
    3.4030    2.5074    0.0000 H   0  0  0  0  0  0  0  0  0  0  0  0
    2.7830    1.8874    0.0000 H   0  0  0  0  0  0  0  0  0  0  0  0
   10.0021    2.0775    0.0000 H   0  0  0  0  0  0  0  0  0  0  0  0
    9.2531    3.9701    0.0000 H   0  0  0  0  0  0  0  0  0  0  0  0
    8.8546    3.2798    0.0000 H   0  0  0  0  0  0  0  0  0  0  0  0
   10.5432    3.3048    0.0000 H   0  0  0  0  0  0  0  0  0  0  0  0
   10.9417    3.9951    0.0000 H   0  0  0  0  0  0  0  0  0  0  0  0
   10.1191    5.4701    0.0000 H   0  0  0  0  0  0  0  0  0  0  0  0
    9.7206    4.7798    0.0000 H   0  0  0  0  0  0  0  0  0  0  0  0
   11.4092    4.8048    0.0000 H   0  0  0  0  0  0  0  0  0  0  0  0
   11.8078    5.4951    0.0000 H   0  0  0  0  0  0  0  0  0  0  0  0
   10.9851    6.9701    0.0000 H   0  0  0  0  0  0  0  0  0  0  0  0
   10.5866    6.2798    0.0000 H   0  0  0  0  0  0  0  0  0  0  0  0
   12.2753    6.3048    0.0000 H   0  0  0  0  0  0  0  0  0  0  0  0
   12.6738    6.9951    0.0000 H   0  0  0  0  0  0  0  0  0  0  0  0
   11.8512    8.4701    0.0000 H   0  0  0  0  0  0  0  0  0  0  0  0
   11.4526    7.7798    0.0000 H   0  0  0  0  0  0  0  0  0  0  0  0
   13.1413    7.8048    0.0000 H   0  0  0  0  0  0  0  0  0  0  0  0
   13.5398    8.4951    0.0000 H   0  0  0  0  0  0  0  0  0  0  0  0
   12.3923    9.0775    0.0000 H   0  0  0  0  0  0  0  0  0  0  0  0
   14.1053    9.3505    0.0000 H   0  0  0  0  0  0  0  0  0  0  0  0
   14.3322   10.1975    0.0000 H   0  0  0  0  0  0  0  0  0  0  0  0
   13.4853   10.4244    0.0000 H   0  0  0  0  0  0  0  0  0  0  0  0
   12.3732   10.4244    0.0000 H   0  0  0  0  0  0  0  0  0  0  0  0
   11.5263   10.1975    0.0000 H   0  0  0  0  0  0  0  0  0  0  0  0
   11.7532    9.3505    0.0000 H   0  0  0  0  0  0  0  0  0  0  0  0
  1 21  1  0  0  0  0
  1 28  1  0  0  0  0
  2 22  1  0  0  0  0
  2 31  1  0  0  0  0
  3 28  1  0  0  0  0
  3 32  1  0  0  0  0
  4 23  1  0  0  0  0
  4 76  1  0  0  0  0
  5 32  1  0  0  0  0
  5 36  1  0  0  0  0
  6 25  1  0  0  0  0
  6 77  1  0  0  0  0
  7 27  1  0  0  0  0
  7 78  1  0  0  0  0
  8 29  1  0  0  0  0
  8 79  1  0  0  0  0
  9 30  1  0  0  0  0
  9 81  1  0  0  0  0
 10 34  1  0  0  0  0
 10 85  1  0  0  0  0
 11 35  1  0  0  0  0
 11 86  1  0  0  0  0
 12 37  1  0  0  0  0
 12 90  1  0  0  0  0
 13 38  2  0  0  0  0
 14 39  2  0  0  0  0
 15 41  2  0  0  0  0
 16 44  2  0  0  0  0
 17 26  1  0  0  0  0
 17 38  1  0  0  0  0
 17 75  1  0  0  0  0
 18 31  1  0  0  0  0
 18 39  1  0  0  0  0
 18 40  1  0  0  0  0
 19 33  1  0  0  0  0
 19 41  1  0  0  0  0
 19 80  1  0  0  0  0
 20 39  1  0  0  0  0
 20 44  1  0  0  0  0
 20 87  1  0  0  0  0
 21 23  1  0  0  0  0
 21 24  1  0  0  0  0
 21 58  1  0  0  0  0
 22 25  1  0  0  0  0
 22 29  1  0  0  0  0
 22 59  1  0  0  0  0
 23 27  1  0  0  0  0
 23 60  1  0  0  0  0
 24 25  1  0  0  0  0
 24 61  1  0  0  0  0
 24 62  1  0  0  0  0
 25 63  1  0  0  0  0
 26 27  1  0  0  0  0
 26 28  1  0  0  0  0
 26 64  1  0  0  0  0
 27 65  1  0  0  0  0
 28 66  1  0  0  0  0
 29 30  1  0  0  0  0
 29 67  1  0  0  0  0
 30 31  1  0  0  0  0
 30 68  1  0  0  0  0
 31 69  1  0  0  0  0
 32 33  1  0  0  0  0
 32 70  1  0  0  0  0
 33 34  1  0  0  0  0
 33 71  1  0  0  0  0
 34 35  1  0  0  0  0
 34 72  1  0  0  0  0
 35 36  1  0  0  0  0
 35 73  1  0  0  0  0
 36 37  1  0  0  0  0
 36 74  1  0  0  0  0
 37 82  1  0  0  0  0
 37 83  1  0  0  0  0
 38 43  1  0  0  0  0
 40 42  2  0  0  0  0
 40 84  1  0  0  0  0
 41 45  1  0  0  0  0
 42 44  1  0  0  0  0
 42 88  1  0  0  0  0
 43 46  2  3  0  0  0
 43 89  1  0  0  0  0
 45 91  1  0  0  0  0
 45 92  1  0  0  0  0
 45 93  1  0  0  0  0
 46 47  1  0  0  0  0
 46 94  1  0  0  0  0
 47 48  1  0  0  0  0
 47 95  1  0  0  0  0
 47 96  1  0  0  0  0
 48 49  1  0  0  0  0
 48 97  1  0  0  0  0
 48 98  1  0  0  0  0
 49 50  1  0  0  0  0
 49 99  1  0  0  0  0
 49100  1  0  0  0  0
 50 51  1  0  0  0  0
 50101  1  0  0  0  0
 50102  1  0  0  0  0
 51 52  1  0  0  0  0
 51103  1  0  0  0  0
 51104  1  0  0  0  0
 52 53  1  0  0  0  0
 52105  1  0  0  0  0
 52106  1  0  0  0  0
 53 54  1  0  0  0  0
 53107  1  0  0  0  0
 53108  1  0  0  0  0
 54 55  1  0  0  0  0
 54109  1  0  0  0  0
 54110  1  0  0  0  0
 55 56  1  0  0  0  0
 55 57  1  0  0  0  0
 55111  1  0  0  0  0
 56112  1  0  0  0  0
 56113  1  0  0  0  0
 56114  1  0  0  0  0
 57115  1  0  0  0  0
 57116  1  0  0  0  0
 57117  1  0  0  0  0
M  END
> <PUBCHEM_COMPOUND_CID>
5607

> <PUBCHEM_COMPOUND_CANONICALIZED>
1

> <PUBCHEM_CACTVS_COMPLEXITY>
1400

> <PUBCHEM_CACTVS_HBOND_ACCEPTOR>
16

> <PUBCHEM_CACTVS_HBOND_DONOR>
11

> <PUBCHEM_CACTVS_ROTATABLE_BOND>
19

> <PUBCHEM_CACTVS_SUBSKEYS>
AAADcfB/vgAAAAAAAAAAAAAAAAAAASAAAAAkSIAAAAAAAAAAAAAAHgAQCAAADTzxgAcDCAPABgCIACFWUACAAAAgAgAICIAIAEiTEAIAgQAvQAAPlyKfAcPw8O8MAAAAAAAAAAAAAAAAAAAAAAAAAAAAAA==

> <PUBCHEM_IUPAC_OPENEYE_NAME>
N-[2-[3-acetamido-4,5-dihydroxy-6-(hydroxymethyl)tetrahydropyran-2-yl]oxy-6-[2-[5-(2,4-dioxopyrimidin-1-yl)-3,4-dihydroxy-tetrahydrofuran-2-yl]-2-hydroxy-ethyl]-4,5-dihydroxy-tetrahydropyran-3-yl]-12-methyl-tridec-2-enamide

> <PUBCHEM_IUPAC_CAS_NAME>
N-[2-[[3-acetamido-4,5-dihydroxy-6-(hydroxymethyl)-2-oxanyl]oxy]-6-[2-[5-(2,4-dioxo-1-pyrimidinyl)-3,4-dihydroxy-2-oxolanyl]-2-hydroxyethyl]-4,5-dihydroxy-3-oxanyl]-12-methyl-2-tridecenamide

> <PUBCHEM_IUPAC_NAME>
N-[2-[3-acetamido-4,5-dihydroxy-6-(hydroxymethyl)oxan-2-yl]oxy-6-[2-[5-(2,4-dioxopyrimidin-1-yl)-3,4-dihydroxyoxolan-2-yl]-2-hydroxyethyl]-4,5-dihydroxyoxan-3-yl]-12-methyltridec-2-enamide

> <PUBCHEM_IUPAC_SYSTEMATIC_NAME>
N-[2-[3-acetamido-6-(hydroxymethyl)-4,5-bis(oxidanyl)oxan-2-yl]oxy-6-[2-[5-[2,4-bis(oxidanylidene)pyrimidin-1-yl]-3,4-bis(oxidanyl)oxolan-2-yl]-2-oxidanyl-ethyl]-4,5-bis(oxidanyl)oxan-3-yl]-12-methyl-tridec-2-enamide

> <PUBCHEM_IUPAC_TRADITIONAL_NAME>
N-[2-(3-acetamido-4,5-dihydroxy-6-methylol-tetrahydropyran-2-yl)oxy-6-[2-[5-(2,4-diketopyrimidin-1-yl)-3,4-dihydroxy-tetrahydrofuran-2-yl]-2-hydroxy-ethyl]-4,5-dihydroxy-tetrahydropyran-3-yl]-12-methyl-tridec-2-enamide

> <PUBCHEM_IUPAC_INCHI>
InChI=1S/C37H60N4O16/c1-18(2)12-10-8-6-4-5-7-9-11-13-23(45)39-26-30(50)27(47)21(54-36(26)57-35-25(38-19(3)43)29(49)28(48)22(17-42)55-35)16-20(44)33-31(51)32(52)34(56-33)41-15-14-24(46)40-37(41)53/h11,13-15,18,20-22,25-36,42,44,47-52H,4-10,12,16-17H2,1-3H3,(H,38,43)(H,39,45)(H,40,46,53)

> <PUBCHEM_IUPAC_INCHIKEY>
YJQCOFNZVFGCAF-UHFFFAOYSA-N

> <PUBCHEM_XLOGP3_AA>
-0.3

> <PUBCHEM_EXACT_MASS>
816.400432

> <PUBCHEM_MOLECULAR_FORMULA>
C37H60N4O16

> <PUBCHEM_MOLECULAR_WEIGHT>
816.8895

> <PUBCHEM_OPENEYE_CAN_SMILES>
CC(C)CCCCCCCCC=CC(=O)NC1C(C(C(OC1OC2C(C(C(C(O2)CO)O)O)NC(=O)C)CC(C3C(C(C(O3)N4C=CC(=O)NC4=O)O)O)O)O)O

> <PUBCHEM_OPENEYE_ISO_SMILES>
CC(C)CCCCCCCCC=CC(=O)NC1C(C(C(OC1OC2C(C(C(C(O2)CO)O)O)NC(=O)C)CC(C3C(C(C(O3)N4C=CC(=O)NC4=O)O)O)O)O)O

> <PUBCHEM_CACTVS_TPSA>
306

> <PUBCHEM_MONOISOTOPIC_WEIGHT>
816.400432

> <PUBCHEM_TOTAL_CHARGE>
0

> <PUBCHEM_HEAVY_ATOM_COUNT>
57

> <PUBCHEM_ATOM_DEF_STEREO_COUNT>
0

> <PUBCHEM_ATOM_UDEF_STEREO_COUNT>
15

> <PUBCHEM_BOND_DEF_STEREO_COUNT>
0

> <PUBCHEM_BOND_UDEF_STEREO_COUNT>
1

> <PUBCHEM_ISOTOPIC_ATOM_COUNT>
0

> <PUBCHEM_COMPONENT_COUNT>
1

> <PUBCHEM_CACTVS_TAUTO_COUNT>
12

> <PUBCHEM_COORDINATE_TYPE>
1
5
255

> <PUBCHEM_BONDANNOTATIONS>
18  39  8
18  40  8
20  39  8
20  44  8
21  58  3
22  59  3
23  60  3
25  63  3
26  64  3
27  65  3
28  66  3
29  67  3
30  68  3
31  69  3
32  70  3
33  71  3
34  72  3
35  73  3
36  74  3
40  42  8
42  44  8
43  46  1

$$$$

