15916864
  -OEChem-07051213092D

 65 64  0     1  0  0  0  0  0999 V2000
   15.5273   -1.0950    0.0000 O   0  0  0  0  0  0  0  0  0  0  0  0
   13.7953   -1.0950    0.0000 O   0  0  0  0  0  0  0  0  0  0  0  0
   12.0632   -1.0950    0.0000 O   0  0  0  0  0  0  0  0  0  0  0  0
   11.1972    1.4050    0.0000 O   0  0  0  0  0  0  0  0  0  0  0  0
    6.0010    0.4050    0.0000 N   0  0  0  0  0  0  0  0  0  0  0  0
   10.3312   -0.0950    0.0000 N   0  0  0  0  0  0  0  0  0  0  0  0
   12.9292    0.4050    0.0000 N   0  0  0  0  0  0  0  0  0  0  0  0
   19.8574    0.4050    0.0000 N   0  0  0  0  0  0  0  0  0  0  0  0
    2.5369    0.4050    0.0000 N   0  0  0  0  0  0  0  0  0  0  0  0
   21.5895    0.4050    0.0000 N   0  0  0  0  0  0  0  0  0  0  0  0
   20.7235   -1.0950    0.0000 N   0  0  0  0  0  0  0  0  0  0  0  0
   16.3933    0.4050    0.0000 C   0  0  0  0  0  0  0  0  0  0  0  0
   15.5273   -0.0950    0.0000 C   0  0  1  0  0  0  0  0  0  0  0  0
   17.2594   -0.0950    0.0000 C   0  0  0  0  0  0  0  0  0  0  0  0
   14.6613    0.4050    0.0000 C   0  0  0  0  0  0  0  0  0  0  0  0
   18.1254    0.4050    0.0000 C   0  0  0  0  0  0  0  0  0  0  0  0
    7.7331    0.4050    0.0000 C   0  0  0  0  0  0  0  0  0  0  0  0
    8.5991   -0.0950    0.0000 C   0  0  0  0  0  0  0  0  0  0  0  0
    6.8671   -0.0950    0.0000 C   0  0  0  0  0  0  0  0  0  0  0  0
    9.4651    0.4050    0.0000 C   0  0  0  0  0  0  0  0  0  0  0  0
   18.9914   -0.0950    0.0000 C   0  0  0  0  0  0  0  0  0  0  0  0
   13.7953   -0.0950    0.0000 C   0  0  0  0  0  0  0  0  0  0  0  0
    5.1350   -0.0950    0.0000 C   0  0  0  0  0  0  0  0  0  0  0  0
    4.2690    0.4050    0.0000 C   0  0  0  0  0  0  0  0  0  0  0  0
   12.0632   -0.0950    0.0000 C   0  0  2  0  0  0  0  0  0  0  0  0
   11.1972    0.4050    0.0000 C   0  0  0  0  0  0  0  0  0  0  0  0
    3.4030   -0.0950    0.0000 C   0  0  0  0  0  0  0  0  0  0  0  0
   20.7235   -0.0950    0.0000 C   0  0  0  0  0  0  0  0  0  0  0  0
   16.7919    0.8799    0.0000 H   0  0  0  0  0  0  0  0  0  0  0  0
   15.9948    0.8799    0.0000 H   0  0  0  0  0  0  0  0  0  0  0  0
   16.0643   -0.4050    0.0000 H   0  0  0  0  0  0  0  0  0  0  0  0
   16.8608   -0.5699    0.0000 H   0  0  0  0  0  0  0  0  0  0  0  0
   17.6579   -0.5699    0.0000 H   0  0  0  0  0  0  0  0  0  0  0  0
   15.0598    0.8799    0.0000 H   0  0  0  0  0  0  0  0  0  0  0  0
   14.2628    0.8799    0.0000 H   0  0  0  0  0  0  0  0  0  0  0  0
   18.5239    0.8799    0.0000 H   0  0  0  0  0  0  0  0  0  0  0  0
   17.7269    0.8799    0.0000 H   0  0  0  0  0  0  0  0  0  0  0  0
    8.1316    0.8799    0.0000 H   0  0  0  0  0  0  0  0  0  0  0  0
    7.3346    0.8799    0.0000 H   0  0  0  0  0  0  0  0  0  0  0  0
    8.2006   -0.5699    0.0000 H   0  0  0  0  0  0  0  0  0  0  0  0
    8.9976   -0.5699    0.0000 H   0  0  0  0  0  0  0  0  0  0  0  0
    6.4685   -0.5699    0.0000 H   0  0  0  0  0  0  0  0  0  0  0  0
    7.2656   -0.5699    0.0000 H   0  0  0  0  0  0  0  0  0  0  0  0
    9.8637    0.8799    0.0000 H   0  0  0  0  0  0  0  0  0  0  0  0
    9.0666    0.8799    0.0000 H   0  0  0  0  0  0  0  0  0  0  0  0
   18.5929   -0.5699    0.0000 H   0  0  0  0  0  0  0  0  0  0  0  0
   19.3899   -0.5699    0.0000 H   0  0  0  0  0  0  0  0  0  0  0  0
    6.0010    1.0250    0.0000 H   0  0  0  0  0  0  0  0  0  0  0  0
    4.7365   -0.5699    0.0000 H   0  0  0  0  0  0  0  0  0  0  0  0
    5.5335   -0.5699    0.0000 H   0  0  0  0  0  0  0  0  0  0  0  0
    4.6675    0.8799    0.0000 H   0  0  0  0  0  0  0  0  0  0  0  0
    3.8705    0.8799    0.0000 H   0  0  0  0  0  0  0  0  0  0  0  0
   11.5263   -0.4050    0.0000 H   0  0  0  0  0  0  0  0  0  0  0  0
   10.3312   -0.7150    0.0000 H   0  0  0  0  0  0  0  0  0  0  0  0
   12.9292    1.0250    0.0000 H   0  0  0  0  0  0  0  0  0  0  0  0
   16.0643   -1.4050    0.0000 H   0  0  0  0  0  0  0  0  0  0  0  0
    3.0044   -0.5699    0.0000 H   0  0  0  0  0  0  0  0  0  0  0  0
    3.8015   -0.5699    0.0000 H   0  0  0  0  0  0  0  0  0  0  0  0
   11.5263   -1.4050    0.0000 H   0  0  0  0  0  0  0  0  0  0  0  0
    2.0000    0.0950    0.0000 H   0  0  0  0  0  0  0  0  0  0  0  0
    2.5369    1.0250    0.0000 H   0  0  0  0  0  0  0  0  0  0  0  0
   22.1264    0.0950    0.0000 H   0  0  0  0  0  0  0  0  0  0  0  0
   21.5895    1.0250    0.0000 H   0  0  0  0  0  0  0  0  0  0  0  0
   21.2604   -1.4050    0.0000 H   0  0  0  0  0  0  0  0  0  0  0  0
   20.1865   -1.4050    0.0000 H   0  0  0  0  0  0  0  0  0  0  0  0
 13  1  1  6  0  0  0
  1 56  1  0  0  0  0
  2 22  2  0  0  0  0
 25  3  1  1  0  0  0
  3 59  1  0  0  0  0
  4 26  2  0  0  0  0
  5 19  1  0  0  0  0
  5 23  1  0  0  0  0
  5 48  1  0  0  0  0
  6 20  1  0  0  0  0
  6 26  1  0  0  0  0
  6 54  1  0  0  0  0
  7 22  1  0  0  0  0
  7 25  1  0  0  0  0
  7 55  1  0  0  0  0
  8 21  1  0  0  0  0
  8 28  2  0  0  0  0
  9 27  1  0  0  0  0
  9 60  1  0  0  0  0
  9 61  1  0  0  0  0
 10 28  1  0  0  0  0
 10 62  1  0  0  0  0
 10 63  1  0  0  0  0
 11 28  1  0  0  0  0
 11 64  1  0  0  0  0
 11 65  1  0  0  0  0
 12 13  1  0  0  0  0
 12 14  1  0  0  0  0
 12 29  1  0  0  0  0
 12 30  1  0  0  0  0
 13 15  1  0  0  0  0
 13 31  1  0  0  0  0
 14 16  1  0  0  0  0
 14 32  1  0  0  0  0
 14 33  1  0  0  0  0
 15 22  1  0  0  0  0
 15 34  1  0  0  0  0
 15 35  1  0  0  0  0
 16 21  1  0  0  0  0
 16 36  1  0  0  0  0
 16 37  1  0  0  0  0
 17 18  1  0  0  0  0
 17 19  1  0  0  0  0
 17 38  1  0  0  0  0
 17 39  1  0  0  0  0
 18 20  1  0  0  0  0
 18 40  1  0  0  0  0
 18 41  1  0  0  0  0
 19 42  1  0  0  0  0
 19 43  1  0  0  0  0
 20 44  1  0  0  0  0
 20 45  1  0  0  0  0
 21 46  1  0  0  0  0
 21 47  1  0  0  0  0
 23 24  1  0  0  0  0
 23 49  1  0  0  0  0
 23 50  1  0  0  0  0
 24 27  1  0  0  0  0
 24 51  1  0  0  0  0
 24 52  1  0  0  0  0
 25 26  1  0  0  0  0
 25 53  1  0  0  0  0
 27 57  1  0  0  0  0
 27 58  1  0  0  0  0
M  END
> <PUBCHEM_COMPOUND_CID>
15916864

> <PUBCHEM_COMPOUND_CANONICALIZED>
1

> <PUBCHEM_CACTVS_COMPLEXITY>
459

> <PUBCHEM_CACTVS_HBOND_ACCEPTOR>
7

> <PUBCHEM_CACTVS_HBOND_DONOR>
8

> <PUBCHEM_CACTVS_ROTATABLE_BOND>
17

> <PUBCHEM_CACTVS_SUBSKEYS>
AAADcfB7uAAAAAAAAAAAAAAAAAAAAAAAAAAAAAAAAAAAAAAAAAAAHgAQCAAACBThgAYBAALAAgAoAAEQNAIAAAEAAAAAAIHIAAECUBYAwCAUQAAGNgCQAAGYmACAAAAAAAAAAAAAAAAAAAAAAAAAAAAAAA==

> <PUBCHEM_IUPAC_OPENEYE_NAME>
(3S)-N-[(1S)-2-[4-(3-aminopropylamino)butylamino]-1-hydroxy-2-oxo-ethyl]-7-guanidino-3-hydroxy-heptanamide

> <PUBCHEM_IUPAC_CAS_NAME>
(3S)-N-[(1S)-2-[4-(3-aminopropylamino)butylamino]-1-hydroxy-2-oxoethyl]-7-(diaminomethylideneamino)-3-hydroxyheptanamide

> <PUBCHEM_IUPAC_NAME>
(3S)-N-[(1S)-2-[4-(3-aminopropylamino)butylamino]-1-hydroxy-2-oxoethyl]-7-(diaminomethylideneamino)-3-hydroxyheptanamide

> <PUBCHEM_IUPAC_SYSTEMATIC_NAME>
(3S)-N-[(1S)-2-[4-(3-azanylpropylamino)butylamino]-1-oxidanyl-2-oxidanylidene-ethyl]-7-[bis(azanyl)methylideneamino]-3-oxidanyl-heptanamide

> <PUBCHEM_IUPAC_TRADITIONAL_NAME>
(3S)-N-[(1S)-2-[4-(3-aminopropylamino)butylamino]-1-hydroxy-2-keto-ethyl]-7-guanidino-3-hydroxy-enanthamide

> <PUBCHEM_IUPAC_INCHI>
InChI=1S/C17H37N7O4/c18-7-5-9-21-8-3-4-10-22-15(27)16(28)24-14(26)12-13(25)6-1-2-11-23-17(19)20/h13,16,21,25,28H,1-12,18H2,(H,22,27)(H,24,26)(H4,19,20,23)/t13-,16-/m0/s1

> <PUBCHEM_IUPAC_INCHIKEY>
GDVNLLJNADMLLR-BBRMVZONSA-N

> <PUBCHEM_XLOGP3_AA>
-3.1

> <PUBCHEM_EXACT_MASS>
403.290703

> <PUBCHEM_MOLECULAR_FORMULA>
C17H37N7O4

> <PUBCHEM_MOLECULAR_WEIGHT>
403.52018

> <PUBCHEM_OPENEYE_CAN_SMILES>
C(CCN=C(N)N)CC(CC(=O)NC(C(=O)NCCCCNCCCN)O)O

> <PUBCHEM_OPENEYE_ISO_SMILES>
C(CCN=C(N)N)C[C@@H](CC(=O)N[C@H](C(=O)NCCCCNCCCN)O)O

> <PUBCHEM_CACTVS_TPSA>
201

> <PUBCHEM_MONOISOTOPIC_WEIGHT>
403.290703

> <PUBCHEM_TOTAL_CHARGE>
0

> <PUBCHEM_HEAVY_ATOM_COUNT>
28

> <PUBCHEM_ATOM_DEF_STEREO_COUNT>
2

> <PUBCHEM_ATOM_UDEF_STEREO_COUNT>
0

> <PUBCHEM_BOND_DEF_STEREO_COUNT>
0

> <PUBCHEM_BOND_UDEF_STEREO_COUNT>
0

> <PUBCHEM_ISOTOPIC_ATOM_COUNT>
0

> <PUBCHEM_COMPONENT_COUNT>
1

> <PUBCHEM_CACTVS_TAUTO_COUNT>
8

> <PUBCHEM_COORDINATE_TYPE>
1
5
255

> <PUBCHEM_BONDANNOTATIONS>
13  1  6
25  3  5

$$$$

