   Color/Form

     * CRYSTALS
     * White to cream colored, finely divided, crystalline powder

   from [1]HSDB

   Odor
        ODORLESS
   from [2]HSDB

   Melting Point
        272-273 DEG C
   from [3]HSDB

   Dissociation Constants
        PK1 8.9; PK2 10.7
   from [4]HSDB

   Octanol/Water Partition Coefficient
        log Kow = 0.36
   from [5]HSDB

   pH
        1 IN 100 DISPERSION IN WATER: BETWEEN 4.5-7.5
   from [6]HSDB

   Solubilities

     * Solubility (mg/ml) at 25 deg C: acetone >100; methanol 58;
       acetonitrile 43; water 0.3; ether 0.2; benzene <0.1.
     * INSOL IN ACID
     * Soluble in dilute alkali but unstable in alkaline solutions.
     * SOL IN ALC; FREELY SOL IN ACETONE

   from [7]HSDB

   Spectral Properties

     * MAX ABSORPTION (0.1 N SULFURIC ACID): 273 NM; 324 NM; MAX
       ABSORPTION (0.1 N SODIUM HYDROXIDE): 273 NM; 332 NM
     * UV max (methanol): 272.5 nm (log E 4.286).

   from [8]HSDB

   Other Chemical/Physical Properties
        FORMS WATER-SOL SALTS WITH BASES
   from [9]HSDB

   Computed Properties
   Molecular Weight                  331.29203 [g/mol]
   Molecular Formula                 C[8]H[8]F[3]N[3]O[4]S[2]
   XLogP3                            0.4
   H-Bond Donor                      3
   H-Bond Acceptor                   10
   Rotatable Bond Count              1
   Exact Mass                        330.990832
   MonoIsotopic Mass                 330.990832
   Topological Polar Surface Area    135
   Heavy Atom Count                  20
   Formal Charge                     0
   Complexity                        578
   Isotope Atom Count                0
   Defined Atom Stereocenter Count   0
   Undefined Atom Stereocenter Count 0
   Defined Bond Stereocenter Count   0
   Undefined Bond Stereocenter Count 0
   Covalently-Bonded Unit Count      1
   Feature 3D Acceptor Count         4
   Feature 3D Donor Count            3
   Feature 3D Cation Count           1
   Feature 3D Ring Count             2
   Effective Rotor Count             2.6
   Conformer Sampling RMSD           0.6
   CID Conformer Count               [10]2

References

   1. http://toxnet.nlm.nih.gov/cgi-bin/sis/search/r?dbs+hsdb:@term+@rn+@rel+135-09-1
   2. http://toxnet.nlm.nih.gov/cgi-bin/sis/search/r?dbs+hsdb:@term+@rn+@rel+135-09-1
   3. http://toxnet.nlm.nih.gov/cgi-bin/sis/search/r?dbs+hsdb:@term+@rn+@rel+135-09-1
   4. http://toxnet.nlm.nih.gov/cgi-bin/sis/search/r?dbs+hsdb:@term+@rn+@rel+135-09-1
   5. http://toxnet.nlm.nih.gov/cgi-bin/sis/search/r?dbs+hsdb:@term+@rn+@rel+135-09-1
   6. http://toxnet.nlm.nih.gov/cgi-bin/sis/search/r?dbs+hsdb:@term+@rn+@rel+135-09-1
   7. http://toxnet.nlm.nih.gov/cgi-bin/sis/search/r?dbs+hsdb:@term+@rn+@rel+135-09-1
   8. http://toxnet.nlm.nih.gov/cgi-bin/sis/search/r?dbs+hsdb:@term+@rn+@rel+135-09-1
   9. http://toxnet.nlm.nih.gov/cgi-bin/sis/search/r?dbs+hsdb:@term+@rn+@rel+135-09-1
  10. http://pubchem.ncbi.nlm.nih.gov/vw3d/vw3d.cgi?cid=3647
