   Color/Form

     * Colorless liquid
     * Pale yellowish liquid
     * Light brown liquid

   from [1]HSDB

   Odor

     * ODORLESS
     * Mild odor

   from [2]HSDB

   Taste
        FAINT BITTER TASTE
   from [3]HSDB

   Boiling Point
        180 deg C at 1 mm Hg /Technical/
   from [4]HSDB

   Corrosivity
        NONCORROSIVE
   from [5]HSDB

   Density/Specific Gravity
        1.06 at 20 deg C
   from [6]HSDB

   Octanol/Water Partition Coefficient
        log Kow = 4.75
   from [7]HSDB

   Solubilities

     * Miscible with methanol, ethanol, benzene, Freons, Geons, petroleum
       oils, and other organic solvents
     * In water, 14.3 mg/L at 25 deg C

   from [8]HSDB

   Spectral Properties

     * Index of refraction: 1.50 at 20 deg C/D
     * Intense mass spectral peaks: 176 m/z (100%), 177 m/z (41%), 194 m/z
       (26%), 57 m/z (19%)

   from [9]HSDB

   Vapor Pressure
        5.2X10-6 mm Hg at 25 deg C (est)
   from [10]HSDB

   Viscosity
        40 cP at 25 deg C
   from [11]HSDB

   Other Chemical/Physical Properties

     * Resistant to hydrolysis
     * Yellow oil /Technical product/
     * Henry's Law constant = 8.9X10-11 atm-cu m/mol at 25 deg C (est)
     * Hydroxyl radical reaction rate constant = 1.1X10-10 cu cm/molec-sec
       at 25 deg C (est)

   from [12]HSDB

   Computed Properties
   Molecular Weight                  338.4385 [g/mol]
   Molecular Formula                 C[19]H[30]O[5]
   XLogP3-AA                         3.7
   H-Bond Donor                      0
   H-Bond Acceptor                   5
   Rotatable Bond Count              13
   Exact Mass                        338.209324
   MonoIsotopic Mass                 338.209324
   Topological Polar Surface Area    46.2
   Heavy Atom Count                  24
   Formal Charge                     0
   Complexity                        312
   Isotope Atom Count                0
   Defined Atom Stereocenter Count   0
   Undefined Atom Stereocenter Count 0
   Defined Bond Stereocenter Count   0
   Undefined Bond Stereocenter Count 0
   Covalently-Bonded Unit Count      1
   Feature 3D Acceptor Count         5
   Feature 3D Hydrophobe Count       2
   Feature 3D Ring Count             2
   Effective Rotor Count             13.6
   Conformer Sampling RMSD           1.2
   CID Conformer Count               [13]60

References

   1. http://toxnet.nlm.nih.gov/cgi-bin/sis/search/r?dbs+hsdb:@term+@rn+@rel+51-03-6
   2. http://toxnet.nlm.nih.gov/cgi-bin/sis/search/r?dbs+hsdb:@term+@rn+@rel+51-03-6
   3. http://toxnet.nlm.nih.gov/cgi-bin/sis/search/r?dbs+hsdb:@term+@rn+@rel+51-03-6
   4. http://toxnet.nlm.nih.gov/cgi-bin/sis/search/r?dbs+hsdb:@term+@rn+@rel+51-03-6
   5. http://toxnet.nlm.nih.gov/cgi-bin/sis/search/r?dbs+hsdb:@term+@rn+@rel+51-03-6
   6. http://toxnet.nlm.nih.gov/cgi-bin/sis/search/r?dbs+hsdb:@term+@rn+@rel+51-03-6
   7. http://toxnet.nlm.nih.gov/cgi-bin/sis/search/r?dbs+hsdb:@term+@rn+@rel+51-03-6
   8. http://toxnet.nlm.nih.gov/cgi-bin/sis/search/r?dbs+hsdb:@term+@rn+@rel+51-03-6
   9. http://toxnet.nlm.nih.gov/cgi-bin/sis/search/r?dbs+hsdb:@term+@rn+@rel+51-03-6
  10. http://toxnet.nlm.nih.gov/cgi-bin/sis/search/r?dbs+hsdb:@term+@rn+@rel+51-03-6
  11. http://toxnet.nlm.nih.gov/cgi-bin/sis/search/r?dbs+hsdb:@term+@rn+@rel+51-03-6
  12. http://toxnet.nlm.nih.gov/cgi-bin/sis/search/r?dbs+hsdb:@term+@rn+@rel+51-03-6
  13. http://pubchem.ncbi.nlm.nih.gov/vw3d/vw3d.cgi?cid=5794
