   Color/Form

     * Crystals or granules
     * COLORLESS, HEXAGONAL, USUALLY NEEDLE-LIKE CRYSTALS, OR FUSED
       MASSES, OR CRYSTALLINE POWDER

   from [1]HSDB

   Odor
        Peppermint odor
   from [2]HSDB

   Taste
        Peppermint taste
   from [3]HSDB

   Boiling Point
        212 deg C
   from [4]HSDB

   Melting Point
        41-43 deg C
   from [5]HSDB

   Density/Specific Gravity
        0.890
   from [6]HSDB

   Octanol/Water Partition Coefficient
        log Kow = 3.3
   from [7]HSDB

   Solubilities

     * Slightly sol in water; very sol in alc, chloroform, ether,
       petroleum ether; freely sol in glacial acetic acid, liq petrolatum
     * Water solubility = 456 mg/l @ 25 deg C

   from [8]HSDB

   Spectral Properties

     * Index of refraction: 1.58 @ 25 deg C/D; Specific optical rotation:
       -50 deg @ 18 deg C/D (10% alc soln) /D- form/
     * MASS: 966 (Atlas of Mass Spectral Data, John Wiley & Sons, New
       York)

   from [9]HSDB

   Vapor Pressure
        0.0637 mm Hg @ 25 deg C
   from [10]HSDB

   Other Chemical/Physical Properties

     * SOL IN ALC, ETHER, ACETONE, BENZENE, ORG SOLVENTS; SPECIFIC OPTICAL
       ROTATION: +49.2 DEG/D (ALCOHOL, 5%) /D-FORM/
     * NEEDLES FROM PETROLEUM; DENSITY: 0904 @ 15 DEG C/15 DEG C; INDEX OF
       REFRACTION: 1.4615 @ 20 DEG C/D; INSOL IN WATER; SOL IN ORG
       SOLVENTS; VERY SOL IN CHLOROFORM, ALC, ETHER, ACETONE, BENZENE
     * DL-MENTHOL EXISTS IN TWO CRYSTALLINE MODIFICATIONS MELTING AT 28
       DEG & 38 DEG C, RESPECTIVELY
     * FREEZING POINT: 27 TO 28 DEG C, RISING ON PROLONGED STIRRING TO 30
       DEG C TO 32 DEG C
     * UV: 635 (Sadtler Research Laboratories Spectral Collection)
     * NMR: 410 (Johnson and Jankowski, Carbon-13 NMR Spectra, John Wiley
       & Sons, New York)
     * MASS: 966 (Atlas of Mass Spectral Data, John Wiley & Sons, New
       York)
     * UV: 635 (Sadtler Research Laboratories Spectral Collection)
       /Menthol (d)/
     * NMR: 410 (Johnson and Jankowski, Carbon-13 NMR Spectra, John Wiley
       & Sons, New York) /Menthol (d)/
     * MASS: 966 (Atlas of Mass Spectral Data, John Wiley & Sons, New
       York) /Menthol (d)/

   from [11]HSDB

   Computed Properties
   Molecular Weight                  156.2652 [g/mol]
   Molecular Formula                 C[10]H[20]O
   XLogP3-AA                         3
   H-Bond Donor                      1
   H-Bond Acceptor                   1
   Rotatable Bond Count              1
   Exact Mass                        156.151415
   MonoIsotopic Mass                 156.151415
   Topological Polar Surface Area    20.2
   Heavy Atom Count                  11
   Formal Charge                     0
   Complexity                        120
   Isotope Atom Count                0
   Defined Atom Stereocenter Count   3
   Undefined Atom Stereocenter Count 0
   Defined Bond Stereocenter Count   0
   Undefined Bond Stereocenter Count 0
   Covalently-Bonded Unit Count      1
   Feature 3D Acceptor Count         1
   Feature 3D Donor Count            1
   Feature 3D Hydrophobe Count       1
   Feature 3D Ring Count             1
   Effective Rotor Count             2.2
   Conformer Sampling RMSD           0.6
   CID Conformer Count               [12]4

References

   1. http://toxnet.nlm.nih.gov/cgi-bin/sis/search/r?dbs+hsdb:@term+@rn+@rel+89-78-1
   2. http://toxnet.nlm.nih.gov/cgi-bin/sis/search/r?dbs+hsdb:@term+@rn+@rel+89-78-1
   3. http://toxnet.nlm.nih.gov/cgi-bin/sis/search/r?dbs+hsdb:@term+@rn+@rel+89-78-1
   4. http://toxnet.nlm.nih.gov/cgi-bin/sis/search/r?dbs+hsdb:@term+@rn+@rel+89-78-1
   5. http://toxnet.nlm.nih.gov/cgi-bin/sis/search/r?dbs+hsdb:@term+@rn+@rel+89-78-1
   6. http://toxnet.nlm.nih.gov/cgi-bin/sis/search/r?dbs+hsdb:@term+@rn+@rel+89-78-1
   7. http://toxnet.nlm.nih.gov/cgi-bin/sis/search/r?dbs+hsdb:@term+@rn+@rel+89-78-1
   8. http://toxnet.nlm.nih.gov/cgi-bin/sis/search/r?dbs+hsdb:@term+@rn+@rel+89-78-1
   9. http://toxnet.nlm.nih.gov/cgi-bin/sis/search/r?dbs+hsdb:@term+@rn+@rel+89-78-1
  10. http://toxnet.nlm.nih.gov/cgi-bin/sis/search/r?dbs+hsdb:@term+@rn+@rel+89-78-1
  11. http://toxnet.nlm.nih.gov/cgi-bin/sis/search/r?dbs+hsdb:@term+@rn+@rel+89-78-1
  12. http://pubchem.ncbi.nlm.nih.gov/vw3d/vw3d.cgi?cid=16666
