6093
  -OEChem-07051213132D

 20 21  0     0  0  0  0  0  0999 V2000
    3.6180   -0.4773    0.0000 S   0  0  0  0  0  0  0  0  0  0  0  0
    4.5691    1.3893    0.0000 O   0  0  0  0  0  0  0  0  0  0  0  0
    3.4901   -3.1509    0.0000 O   0  5  0  0  0  0  0  0  0  0  0  0
    4.8913   -2.1328    0.0000 O   0  0  0  0  0  0  0  0  0  0  0  0
    2.8090    1.1105    0.0000 N   0  0  0  0  0  0  0  0  0  0  0  0
    3.3090    2.6493    0.0000 N   0  0  0  0  0  0  0  0  0  0  0  0
    2.0000   -0.4773    0.0000 N   0  0  0  0  0  0  0  0  0  0  0  0
    3.8968   -2.2374    0.0000 N   0  3  0  0  0  0  0  0  0  0  0  0
    2.0000    1.6983    0.0000 C   0  0  0  0  0  0  0  0  0  0  0  0
    2.3090    2.6493    0.0000 C   0  0  0  0  0  0  0  0  0  0  0  0
    3.6180    1.6983    0.0000 C   0  0  0  0  0  0  0  0  0  0  0  0
    2.8090    0.1105    0.0000 C   0  0  0  0  0  0  0  0  0  0  0  0
    3.3090   -1.4284    0.0000 C   0  0  0  0  0  0  0  0  0  0  0  0
    2.3090   -1.4284    0.0000 C   0  0  0  0  0  0  0  0  0  0  0  0
    1.4336    1.9504    0.0000 H   0  0  0  0  0  0  0  0  0  0  0  0
    1.6900    1.1613    0.0000 H   0  0  0  0  0  0  0  0  0  0  0  0
    2.3738    3.2659    0.0000 H   0  0  0  0  0  0  0  0  0  0  0  0
    1.7026    2.7782    0.0000 H   0  0  0  0  0  0  0  0  0  0  0  0
    3.6734    3.1509    0.0000 H   0  0  0  0  0  0  0  0  0  0  0  0
    1.9446   -1.9300    0.0000 H   0  0  0  0  0  0  0  0  0  0  0  0
  1 12  1  0  0  0  0
  1 13  1  0  0  0  0
  2 11  2  0  0  0  0
  3  8  1  0  0  0  0
  4  8  2  0  0  0  0
  5  9  1  0  0  0  0
  5 11  1  0  0  0  0
  5 12  1  0  0  0  0
  6 10  1  0  0  0  0
  6 11  1  0  0  0  0
  6 19  1  0  0  0  0
  7 12  2  0  0  0  0
  7 14  1  0  0  0  0
  8 13  1  0  0  0  0
  9 10  1  0  0  0  0
  9 15  1  0  0  0  0
  9 16  1  0  0  0  0
 10 17  1  0  0  0  0
 10 18  1  0  0  0  0
 13 14  2  0  0  0  0
 14 20  1  0  0  0  0
M  CHG  2   3  -1   8   1
M  END
> <PUBCHEM_COMPOUND_CID>
6093

> <PUBCHEM_COMPOUND_CANONICALIZED>
1

> <PUBCHEM_CACTVS_COMPLEXITY>
268

> <PUBCHEM_CACTVS_HBOND_ACCEPTOR>
5

> <PUBCHEM_CACTVS_HBOND_DONOR>
1

> <PUBCHEM_CACTVS_ROTATABLE_BOND>
1

> <PUBCHEM_CACTVS_SUBSKEYS>
AAADcYBjsABAAAAAAAAAAAAAAAAAAWLAAAAAAAAAAAAAAAABgAAAHgQUAAAAAADBQgQtkRPYUAitABAndwAA8KlRGjhhQIwIMAKAQAAACAAQAAAIF4IAACAAAAAAAAAAAAAAAAAAAAAAAAAAAAAAAAAAAA==

> <PUBCHEM_IUPAC_OPENEYE_NAME>
1-(5-nitrothiazol-2-yl)imidazolidin-2-one

> <PUBCHEM_IUPAC_CAS_NAME>
1-(5-nitro-2-thiazolyl)-2-imidazolidinone

> <PUBCHEM_IUPAC_NAME>
1-(5-nitro-1,3-thiazol-2-yl)imidazolidin-2-one

> <PUBCHEM_IUPAC_SYSTEMATIC_NAME>
1-(5-nitro-1,3-thiazol-2-yl)imidazolidin-2-one

> <PUBCHEM_IUPAC_TRADITIONAL_NAME>
1-(5-nitrothiazol-2-yl)-2-imidazolidinone

> <PUBCHEM_IUPAC_INCHI>
InChI=1S/C6H6N4O3S/c11-5-7-1-2-9(5)6-8-3-4(14-6)10(12)13/h3H,1-2H2,(H,7,11)

> <PUBCHEM_IUPAC_INCHIKEY>
RDXLYGJSWZYTFJ-UHFFFAOYSA-N

> <PUBCHEM_XLOGP3>
0.9

> <PUBCHEM_EXACT_MASS>
214.016061

> <PUBCHEM_MOLECULAR_FORMULA>
C6H6N4O3S

> <PUBCHEM_MOLECULAR_WEIGHT>
214.20184

> <PUBCHEM_OPENEYE_CAN_SMILES>
C1CN(C(=O)N1)C2=NC=C(S2)[N+](=O)[O-]

> <PUBCHEM_OPENEYE_ISO_SMILES>
C1CN(C(=O)N1)C2=NC=C(S2)[N+](=O)[O-]

> <PUBCHEM_CACTVS_TPSA>
119

> <PUBCHEM_MONOISOTOPIC_WEIGHT>
214.016061

> <PUBCHEM_TOTAL_CHARGE>
0

> <PUBCHEM_HEAVY_ATOM_COUNT>
14

> <PUBCHEM_ATOM_DEF_STEREO_COUNT>
0

> <PUBCHEM_ATOM_UDEF_STEREO_COUNT>
0

> <PUBCHEM_BOND_DEF_STEREO_COUNT>
0

> <PUBCHEM_BOND_UDEF_STEREO_COUNT>
0

> <PUBCHEM_ISOTOPIC_ATOM_COUNT>
0

> <PUBCHEM_COMPONENT_COUNT>
1

> <PUBCHEM_CACTVS_TAUTO_COUNT>
2

> <PUBCHEM_COORDINATE_TYPE>
1
5
255

> <PUBCHEM_BONDANNOTATIONS>
1  12  8
1  13  8
13  14  8
7  12  8
7  14  8

$$$$

