4491
  -OEChem-06261200102D

 35 37  0     0  0  0  0  0  0999 V2000
    2.8660    1.9827    0.0000 O   0  0  0  0  0  0  0  0  0  0  0  0
    2.0000   -0.5173    0.0000 O   0  0  0  0  0  0  0  0  0  0  0  0
    3.7321    0.4827    0.0000 N   0  0  0  0  0  0  0  0  0  0  0  0
    3.7321   -0.5173    0.0000 N   0  0  0  0  0  0  0  0  0  0  0  0
    2.8660   -4.0173    0.0000 N   0  0  0  0  0  0  0  0  0  0  0  0
    5.4641    2.4827    0.0000 C   0  0  0  0  0  0  0  0  0  0  0  0
    5.4641    3.4827    0.0000 C   0  0  0  0  0  0  0  0  0  0  0  0
    4.5981    1.9827    0.0000 C   0  0  0  0  0  0  0  0  0  0  0  0
    3.7321    2.4827    0.0000 C   0  0  0  0  0  0  0  0  0  0  0  0
    4.5981    3.9827    0.0000 C   0  0  0  0  0  0  0  0  0  0  0  0
    6.3580    1.9480    0.0000 C   0  0  0  0  0  0  0  0  0  0  0  0
    6.3580    4.0173    0.0000 C   0  0  0  0  0  0  0  0  0  0  0  0
    3.7321    3.4827    0.0000 C   0  0  0  0  0  0  0  0  0  0  0  0
    7.2641    2.4619    0.0000 C   0  0  0  0  0  0  0  0  0  0  0  0
    7.2641    3.5035    0.0000 C   0  0  0  0  0  0  0  0  0  0  0  0
    4.5981    0.9827    0.0000 C   0  0  0  0  0  0  0  0  0  0  0  0
    2.8660   -2.0173    0.0000 C   0  0  0  0  0  0  0  0  0  0  0  0
    2.8660   -1.0173    0.0000 C   0  0  0  0  0  0  0  0  0  0  0  0
    3.7321   -2.5173    0.0000 C   0  0  0  0  0  0  0  0  0  0  0  0
    2.0000   -2.5173    0.0000 C   0  0  0  0  0  0  0  0  0  0  0  0
    3.7321   -3.5173    0.0000 C   0  0  0  0  0  0  0  0  0  0  0  0
    2.0000   -3.5173    0.0000 C   0  0  0  0  0  0  0  0  0  0  0  0
    4.5981    4.6027    0.0000 H   0  0  0  0  0  0  0  0  0  0  0  0
    6.3509    1.3280    0.0000 H   0  0  0  0  0  0  0  0  0  0  0  0
    6.3509    4.6373    0.0000 H   0  0  0  0  0  0  0  0  0  0  0  0
    3.1951    3.7927    0.0000 H   0  0  0  0  0  0  0  0  0  0  0  0
    7.7998    2.1498    0.0000 H   0  0  0  0  0  0  0  0  0  0  0  0
    7.7998    3.8156    0.0000 H   0  0  0  0  0  0  0  0  0  0  0  0
    5.1350    0.6727    0.0000 H   0  0  0  0  0  0  0  0  0  0  0  0
    2.3291    2.2927    0.0000 H   0  0  0  0  0  0  0  0  0  0  0  0
    4.2690   -0.8273    0.0000 H   0  0  0  0  0  0  0  0  0  0  0  0
    4.2690   -2.2073    0.0000 H   0  0  0  0  0  0  0  0  0  0  0  0
    1.4631   -2.2073    0.0000 H   0  0  0  0  0  0  0  0  0  0  0  0
    4.2690   -3.8273    0.0000 H   0  0  0  0  0  0  0  0  0  0  0  0
    1.4631   -3.8273    0.0000 H   0  0  0  0  0  0  0  0  0  0  0  0
  1  9  1  0  0  0  0
  1 30  1  0  0  0  0
  2 18  2  0  0  0  0
  3  4  1  0  0  0  0
  3 16  2  3  0  0  0
  4 18  1  0  0  0  0
  4 31  1  0  0  0  0
  5 21  2  0  0  0  0
  5 22  1  0  0  0  0
  6  7  1  0  0  0  0
  6  8  1  0  0  0  0
  6 11  2  0  0  0  0
  7 10  1  0  0  0  0
  7 12  2  0  0  0  0
  8  9  2  0  0  0  0
  8 16  1  0  0  0  0
  9 13  1  0  0  0  0
 10 13  2  0  0  0  0
 10 23  1  0  0  0  0
 11 14  1  0  0  0  0
 11 24  1  0  0  0  0
 12 15  1  0  0  0  0
 12 25  1  0  0  0  0
 13 26  1  0  0  0  0
 14 15  2  0  0  0  0
 14 27  1  0  0  0  0
 15 28  1  0  0  0  0
 16 29  1  0  0  0  0
 17 18  1  0  0  0  0
 17 19  2  0  0  0  0
 17 20  1  0  0  0  0
 19 21  1  0  0  0  0
 19 32  1  0  0  0  0
 20 22  2  0  0  0  0
 20 33  1  0  0  0  0
 21 34  1  0  0  0  0
 22 35  1  0  0  0  0
M  END
> <PUBCHEM_COMPOUND_CID>
4491

> <PUBCHEM_COMPOUND_CANONICALIZED>
1

> <PUBCHEM_CACTVS_COMPLEXITY>
407

> <PUBCHEM_CACTVS_HBOND_ACCEPTOR>
4

> <PUBCHEM_CACTVS_HBOND_DONOR>
2

> <PUBCHEM_CACTVS_ROTATABLE_BOND>
3

> <PUBCHEM_CACTVS_SUBSKEYS>
AAADccB7MAAAAAAAAAAAAAAAAAAAAAAAAAA8YIAAAAAAAADB1AAAHgAYCAAADATBmgQ8htJqEgCoAjF3VACSgCA1IiAa2CE+bNgIJnLClZOEcQhkyBHI2YeUwPAOoAADAAAYAABAAAYAADAAAAAAAAAAAA==

> <PUBCHEM_IUPAC_OPENEYE_NAME>
N-[(2-hydroxy-1-naphthyl)methyleneamino]pyridine-4-carboxamide

> <PUBCHEM_IUPAC_CAS_NAME>
N-[(2-hydroxy-1-naphthalenyl)methylideneamino]-4-pyridinecarboxamide

> <PUBCHEM_IUPAC_NAME>
N-[(2-hydroxynaphthalen-1-yl)methylideneamino]pyridine-4-carboxamide

> <PUBCHEM_IUPAC_SYSTEMATIC_NAME>
N-[(2-oxidanylnaphthalen-1-yl)methylideneamino]pyridine-4-carboxamide

> <PUBCHEM_IUPAC_TRADITIONAL_NAME>
N-[(2-hydroxy-1-naphthyl)methyleneamino]isonicotinamide

> <PUBCHEM_IUPAC_INCHI>
InChI=1S/C17H13N3O2/c21-16-6-5-12-3-1-2-4-14(12)15(16)11-19-20-17(22)13-7-9-18-10-8-13/h1-11,21H,(H,20,22)

> <PUBCHEM_IUPAC_INCHIKEY>
WQSHHAVECQJKLX-UHFFFAOYSA-N

> <PUBCHEM_XLOGP3_AA>
2.7

> <PUBCHEM_EXACT_MASS>
291.100777

> <PUBCHEM_MOLECULAR_FORMULA>
C17H13N3O2

> <PUBCHEM_MOLECULAR_WEIGHT>
291.30402

> <PUBCHEM_OPENEYE_CAN_SMILES>
C1=CC=C2C(=C1)C=CC(=C2C=NNC(=O)C3=CC=NC=C3)O

> <PUBCHEM_OPENEYE_ISO_SMILES>
C1=CC=C2C(=C1)C=CC(=C2C=NNC(=O)C3=CC=NC=C3)O

> <PUBCHEM_CACTVS_TPSA>
74.6

> <PUBCHEM_MONOISOTOPIC_WEIGHT>
291.100777

> <PUBCHEM_TOTAL_CHARGE>
0

> <PUBCHEM_HEAVY_ATOM_COUNT>
22

> <PUBCHEM_ATOM_DEF_STEREO_COUNT>
0

> <PUBCHEM_ATOM_UDEF_STEREO_COUNT>
0

> <PUBCHEM_BOND_DEF_STEREO_COUNT>
0

> <PUBCHEM_BOND_UDEF_STEREO_COUNT>
1

> <PUBCHEM_ISOTOPIC_ATOM_COUNT>
0

> <PUBCHEM_COMPONENT_COUNT>
1

> <PUBCHEM_CACTVS_TAUTO_COUNT>
9

> <PUBCHEM_COORDINATE_TYPE>
1
5
255

> <PUBCHEM_BONDANNOTATIONS>
10  13  8
11  14  8
12  15  8
14  15  8
17  19  8
17  20  8
19  21  8
20  22  8
5  21  8
5  22  8
6  11  8
6  7  8
6  8  8
7  10  8
7  12  8
8  9  8
9  13  8

$$$$

