443448
  -OEChem-07051213022D

 47 50  0     1  0  0  0  0  0999 V2000
    6.8928    3.5692    0.0000 O   0  0  0  0  0  0  0  0  0  0  0  0
    7.7163   -0.9947    0.0000 O   0  0  0  0  0  0  0  0  0  0  0  0
    6.5172   -2.2445    0.0000 O   0  0  0  0  0  0  0  0  0  0  0  0
    3.6340   -3.1320    0.0000 O   0  0  0  0  0  0  0  0  0  0  0  0
    2.0000   -0.6810    0.0000 O   0  0  0  0  0  0  0  0  0  0  0  0
    5.3658   -3.1623    0.0000 O   0  0  0  0  0  0  0  0  0  0  0  0
    6.1703    0.4036    0.0000 C   0  0  1  0  0  0  0  0  0  0  0  0
    5.2693    0.8375    0.0000 C   0  0  2  0  0  0  0  0  0  0  0  0
    6.0343   -0.5811    0.0000 C   0  0  2  0  0  0  0  0  0  0  0  0
    6.0635    1.5804    0.0000 C   0  0  0  0  0  0  0  0  0  0  0  0
    5.0561   -0.7578    0.0000 C   0  0  1  0  0  0  0  0  0  0  0  0
    6.6703    2.5942    0.0000 C   0  0  2  0  0  0  0  0  0  0  0  0
    7.0713    0.8375    0.0000 C   0  0  0  0  0  0  0  0  0  0  0  0
    4.5842    0.1172    0.0000 C   0  0  0  0  0  0  0  0  0  0  0  0
    5.0468    1.8124    0.0000 C   0  0  0  0  0  0  0  0  0  0  0  0
    5.6703    2.5942    0.0000 C   0  0  0  0  0  0  0  0  0  0  0  0
    7.2938    1.8124    0.0000 C   0  0  0  0  0  0  0  0  0  0  0  0
    4.5262   -1.6474    0.0000 C   0  0  2  0  0  0  0  0  0  0  0  0
    6.7559   -1.2734    0.0000 C   0  0  0  0  0  0  0  0  0  0  0  0
    3.5498    0.1632    0.0000 C   0  0  0  0  0  0  0  0  0  0  0  0
    3.4909   -1.6253    0.0000 C   0  0  0  0  0  0  0  0  0  0  0  0
    5.3833   -2.1625    0.0000 C   0  0  0  0  0  0  0  0  0  0  0  0
    2.9995   -0.7139    0.0000 C   0  0  0  0  0  0  0  0  0  0  0  0
    4.5087   -2.6472    0.0000 C   0  0  0  0  0  0  0  0  0  0  0  0
    8.2687    2.0349    0.0000 C   0  0  0  0  0  0  0  0  0  0  0  0
    4.5035    1.2063    0.0000 H   0  0  0  0  0  0  0  0  0  0  0  0
    6.6200   -0.3776    0.0000 H   0  0  0  0  0  0  0  0  0  0  0  0
    5.6557    2.0474    0.0000 H   0  0  0  0  0  0  0  0  0  0  0  0
    5.4934    1.3365    0.0000 H   0  0  0  0  0  0  0  0  0  0  0  0
    5.5403   -1.4564    0.0000 H   0  0  0  0  0  0  0  0  0  0  0  0
    7.2092    0.2330    0.0000 H   0  0  0  0  0  0  0  0  0  0  0  0
    7.6913    0.8375    0.0000 H   0  0  0  0  0  0  0  0  0  0  0  0
    4.6603    2.2971    0.0000 H   0  0  0  0  0  0  0  0  0  0  0  0
    4.4882    1.5434    0.0000 H   0  0  0  0  0  0  0  0  0  0  0  0
    5.8083    3.1987    0.0000 H   0  0  0  0  0  0  0  0  0  0  0  0
    5.1117    2.8632    0.0000 H   0  0  0  0  0  0  0  0  0  0  0  0
    3.2619    0.7123    0.0000 H   0  0  0  0  0  0  0  0  0  0  0  0
    2.9029   -1.8218    0.0000 H   0  0  0  0  0  0  0  0  0  0  0  0
    3.5840   -2.2383    0.0000 H   0  0  0  0  0  0  0  0  0  0  0  0
    5.0640   -2.6939    0.0000 H   0  0  0  0  0  0  0  0  0  0  0  0
    5.9147   -2.4818    0.0000 H   0  0  0  0  0  0  0  0  0  0  0  0
    5.7026   -1.6310    0.0000 H   0  0  0  0  0  0  0  0  0  0  0  0
    7.4853    3.7519    0.0000 H   0  0  0  0  0  0  0  0  0  0  0  0
    8.6904    1.5804    0.0000 H   0  0  0  0  0  0  0  0  0  0  0  0
    8.4515    2.6274    0.0000 H   0  0  0  0  0  0  0  0  0  0  0  0
    8.1637   -1.4239    0.0000 H   0  0  0  0  0  0  0  0  0  0  0  0
    3.6232   -3.7519    0.0000 H   0  0  0  0  0  0  0  0  0  0  0  0
 12  1  1  6  0  0  0
  1 43  1  0  0  0  0
  2 19  1  0  0  0  0
  2 46  1  0  0  0  0
  3 19  2  0  0  0  0
  4 24  1  0  0  0  0
  4 47  1  0  0  0  0
  5 23  2  0  0  0  0
  6 24  2  0  0  0  0
  7  8  1  0  0  0  0
  7  9  1  0  0  0  0
  7 10  1  6  0  0  0
  7 13  1  0  0  0  0
  8 14  1  0  0  0  0
  8 15  1  0  0  0  0
  8 26  1  1  0  0  0
  9 11  1  0  0  0  0
  9 19  1  1  0  0  0
  9 27  1  0  0  0  0
 10 12  1  0  0  0  0
 10 28  1  0  0  0  0
 10 29  1  0  0  0  0
 11 14  1  0  0  0  0
 11 18  1  0  0  0  0
 11 30  1  1  0  0  0
 12 16  1  0  0  0  0
 12 17  1  0  0  0  0
 13 17  1  0  0  0  0
 13 31  1  0  0  0  0
 13 32  1  0  0  0  0
 14 20  2  0  0  0  0
 15 16  1  0  0  0  0
 15 33  1  0  0  0  0
 15 34  1  0  0  0  0
 16 35  1  0  0  0  0
 16 36  1  0  0  0  0
 17 25  2  0  0  0  0
 18 21  1  0  0  0  0
 18 22  1  1  0  0  0
 18 24  1  0  0  0  0
 20 23  1  0  0  0  0
 20 37  1  0  0  0  0
 21 23  1  0  0  0  0
 21 38  1  0  0  0  0
 21 39  1  0  0  0  0
 22 40  1  0  0  0  0
 22 41  1  0  0  0  0
 22 42  1  0  0  0  0
 25 44  1  0  0  0  0
 25 45  1  0  0  0  0
M  END
> <PUBCHEM_COMPOUND_CID>
443448

> <PUBCHEM_COMPOUND_CANONICALIZED>
1

> <PUBCHEM_CACTVS_COMPLEXITY>
766

> <PUBCHEM_CACTVS_HBOND_ACCEPTOR>
6

> <PUBCHEM_CACTVS_HBOND_DONOR>
3

> <PUBCHEM_CACTVS_ROTATABLE_BOND>
2

> <PUBCHEM_CACTVS_SUBSKEYS>
AAADceB4OAAAAAAAAAAAAAAAAAAAAYMAAAAwQAAABgAAAGDAAAAAGgAACAAAD0SAgAACCAAAAgCIAqDSCAAAAAAgAAAACAEAAEgABBIAAQAAQAAEgAAIEQOL7vTPgAAAAAAAAADAAAYAACAAAYAACAAAAA==

> <PUBCHEM_IUPAC_INCHI>
InChI=1S/C19H22O6/c1-9-6-18-8-19(9,25)4-3-12(18)11-5-10(20)7-17(2,16(23)24)13(11)14(18)15(21)22/h5,12-14,25H,1,3-4,6-8H2,2H3,(H,21,22)(H,23,24)/t12-,13+,14+,17+,18-,19-/m0/s1

> <PUBCHEM_IUPAC_INCHIKEY>
CFYSKMXAQIWPNE-SBECISRQSA-N

> <PUBCHEM_XLOGP3_AA>
-0.4

> <PUBCHEM_EXACT_MASS>
346.141638

> <PUBCHEM_MOLECULAR_FORMULA>
C19H22O6

> <PUBCHEM_MOLECULAR_WEIGHT>
346.37438

> <PUBCHEM_OPENEYE_CAN_SMILES>
CC1(CC(=O)C=C2C1C(C34C2CCC(C3)(C(=C)C4)O)C(=O)O)C(=O)O

> <PUBCHEM_OPENEYE_ISO_SMILES>
C[C@]1(CC(=O)C=C2[C@@H]1[C@@H]([C@]34[C@H]2CC[C@](C3)(C(=C)C4)O)C(=O)O)C(=O)O

> <PUBCHEM_CACTVS_TPSA>
112

> <PUBCHEM_MONOISOTOPIC_WEIGHT>
346.141638

> <PUBCHEM_TOTAL_CHARGE>
0

> <PUBCHEM_HEAVY_ATOM_COUNT>
25

> <PUBCHEM_ATOM_DEF_STEREO_COUNT>
6

> <PUBCHEM_ATOM_UDEF_STEREO_COUNT>
0

> <PUBCHEM_BOND_DEF_STEREO_COUNT>
0

> <PUBCHEM_BOND_UDEF_STEREO_COUNT>
0

> <PUBCHEM_ISOTOPIC_ATOM_COUNT>
0

> <PUBCHEM_COMPONENT_COUNT>
1

> <PUBCHEM_CACTVS_TAUTO_COUNT>
8

> <PUBCHEM_COORDINATE_TYPE>
1
5
255

> <PUBCHEM_BONDANNOTATIONS>
12  1  6
11  30  5
18  22  5
7  10  6
8  26  5
9  19  5

$$$$

