242676
  -OEChem-07051213062D

 44 46  0     1  0  0  0  0  0999 V2000
    3.7320   -1.2880    0.0000 O   0  0  0  0  0  0  0  0  0  0  0  0
    4.6038   -2.7846    0.0000 O   0  0  0  0  0  0  0  0  0  0  0  0
   10.7821    1.7846    0.0000 O   0  0  0  0  0  0  0  0  0  0  0  0
    7.2641   -1.2605    0.0000 N   0  0  3  0  0  0  0  0  0  0  0  0
    7.2641   -0.2605    0.0000 C   0  0  1  0  0  0  0  0  0  0  0  0
    6.3701    0.2742    0.0000 C   0  0  0  0  0  0  0  0  0  0  0  0
    5.4641   -1.2813    0.0000 C   0  0  2  0  0  0  0  0  0  0  0  0
    6.3701   -1.7951    0.0000 C   0  0  0  0  0  0  0  0  0  0  0  0
    5.4641   -0.2397    0.0000 C   0  0  0  0  0  0  0  0  0  0  0  0
    8.1301   -1.7605    0.0000 C   0  0  0  0  0  0  0  0  0  0  0  0
    8.1301    0.2395    0.0000 C   0  0  0  0  0  0  0  0  0  0  0  0
    8.9961   -1.2605    0.0000 C   0  0  0  0  0  0  0  0  0  0  0  0
    8.9961   -0.2605    0.0000 C   0  0  0  0  0  0  0  0  0  0  0  0
    4.6000   -1.7846    0.0000 C   0  0  0  0  0  0  0  0  0  0  0  0
    8.1140    1.2810    0.0000 C   0  0  0  0  0  0  0  0  0  0  0  0
    9.9061    0.2464    0.0000 C   0  0  0  0  0  0  0  0  0  0  0  0
    9.0121    1.8088    0.0000 C   0  0  0  0  0  0  0  0  0  0  0  0
    9.9142    1.2880    0.0000 C   0  0  0  0  0  0  0  0  0  0  0  0
    2.8680   -1.7913    0.0000 C   0  0  0  0  0  0  0  0  0  0  0  0
    2.0000   -1.2946    0.0000 C   0  0  0  0  0  0  0  0  0  0  0  0
   10.7860    2.7846    0.0000 C   0  0  0  0  0  0  0  0  0  0  0  0
    7.2706    0.5895    0.0000 H   0  0  0  0  0  0  0  0  0  0  0  0
    6.7747    0.7440    0.0000 H   0  0  0  0  0  0  0  0  0  0  0  0
    5.9765    0.7532    0.0000 H   0  0  0  0  0  0  0  0  0  0  0  0
    5.4677   -1.9013    0.0000 H   0  0  0  0  0  0  0  0  0  0  0  0
    5.9765   -2.2742    0.0000 H   0  0  0  0  0  0  0  0  0  0  0  0
    6.7747   -2.2649    0.0000 H   0  0  0  0  0  0  0  0  0  0  0  0
    5.2550    0.3440    0.0000 H   0  0  0  0  0  0  0  0  0  0  0  0
    4.8532   -0.3458    0.0000 H   0  0  0  0  0  0  0  0  0  0  0  0
    7.7316   -2.2354    0.0000 H   0  0  0  0  0  0  0  0  0  0  0  0
    8.5286   -2.2354    0.0000 H   0  0  0  0  0  0  0  0  0  0  0  0
    9.2082   -1.8431    0.0000 H   0  0  0  0  0  0  0  0  0  0  0  0
    9.6067   -1.1528    0.0000 H   0  0  0  0  0  0  0  0  0  0  0  0
    7.5736    1.5848    0.0000 H   0  0  0  0  0  0  0  0  0  0  0  0
   10.4395   -0.0698    0.0000 H   0  0  0  0  0  0  0  0  0  0  0  0
    9.0097    2.4288    0.0000 H   0  0  0  0  0  0  0  0  0  0  0  0
    2.4712   -2.2678    0.0000 H   0  0  0  0  0  0  0  0  0  0  0  0
    3.2683   -2.2647    0.0000 H   0  0  0  0  0  0  0  0  0  0  0  0
    2.3079   -0.7565    0.0000 H   0  0  0  0  0  0  0  0  0  0  0  0
    1.4619   -0.9867    0.0000 H   0  0  0  0  0  0  0  0  0  0  0  0
    1.6921   -1.8328    0.0000 H   0  0  0  0  0  0  0  0  0  0  0  0
   11.4060    2.7822    0.0000 H   0  0  0  0  0  0  0  0  0  0  0  0
   10.7884    3.4046    0.0000 H   0  0  0  0  0  0  0  0  0  0  0  0
   10.1660    2.7870    0.0000 H   0  0  0  0  0  0  0  0  0  0  0  0
  1 14  1  0  0  0  0
  1 19  1  0  0  0  0
  2 14  2  0  0  0  0
  3 18  1  0  0  0  0
  3 21  1  0  0  0  0
  4  5  1  0  0  0  0
  4  8  1  0  0  0  0
  4 10  1  0  0  0  0
  5  6  1  0  0  0  0
  5 11  1  0  0  0  0
  5 22  1  6  0  0  0
  6  9  1  0  0  0  0
  6 23  1  0  0  0  0
  6 24  1  0  0  0  0
  7  8  1  0  0  0  0
  7  9  1  0  0  0  0
  7 14  1  1  0  0  0
  7 25  1  0  0  0  0
  8 26  1  0  0  0  0
  8 27  1  0  0  0  0
  9 28  1  0  0  0  0
  9 29  1  0  0  0  0
 10 12  1  0  0  0  0
 10 30  1  0  0  0  0
 10 31  1  0  0  0  0
 11 13  2  0  0  0  0
 11 15  1  0  0  0  0
 12 13  1  0  0  0  0
 12 32  1  0  0  0  0
 12 33  1  0  0  0  0
 13 16  1  0  0  0  0
 15 17  2  0  0  0  0
 15 34  1  0  0  0  0
 16 18  2  0  0  0  0
 16 35  1  0  0  0  0
 17 18  1  0  0  0  0
 17 36  1  0  0  0  0
 19 20  1  0  0  0  0
 19 37  1  0  0  0  0
 19 38  1  0  0  0  0
 20 39  1  0  0  0  0
 20 40  1  0  0  0  0
 20 41  1  0  0  0  0
 21 42  1  0  0  0  0
 21 43  1  0  0  0  0
 21 44  1  0  0  0  0
M  END
> <PUBCHEM_COMPOUND_CID>
242676

> <PUBCHEM_COMPOUND_CANONICALIZED>
1

> <PUBCHEM_CACTVS_COMPLEXITY>
373

> <PUBCHEM_CACTVS_HBOND_ACCEPTOR>
4

> <PUBCHEM_CACTVS_HBOND_DONOR>
0

> <PUBCHEM_CACTVS_ROTATABLE_BOND>
4

> <PUBCHEM_CACTVS_SUBSKEYS>
AAADceB6MAAAAAAAAAAAAAAAAAAAAAAAAAA8WIAAAAAAAACxAAAAHgAAAAAADSzhmAYyDoMABACIAiDSCACCCAAgIAAIiAEODIgMJjqEsRuGMChmwBGIqAeY2fOeoAABAAAQAABAAAIAACAAAAAAAAAAAA==

> <PUBCHEM_IUPAC_OPENEYE_NAME>
ethyl (3S,11bS)-9-methoxy-2,3,4,6,7,11b-hexahydro-1H-benzo[a]quinolizine-3-carboxylate

> <PUBCHEM_IUPAC_CAS_NAME>
(3S,11bS)-9-methoxy-2,3,4,6,7,11b-hexahydro-1H-benzo[a]quinolizine-3-carboxylic acid ethyl ester

> <PUBCHEM_IUPAC_NAME>
ethyl (3S,11bS)-9-methoxy-2,3,4,6,7,11b-hexahydro-1H-benzo[a]quinolizine-3-carboxylate

> <PUBCHEM_IUPAC_SYSTEMATIC_NAME>
ethyl (3S,11bS)-9-methoxy-2,3,4,6,7,11b-hexahydro-1H-benzo[a]quinolizine-3-carboxylate

> <PUBCHEM_IUPAC_TRADITIONAL_NAME>
(3S,11bS)-9-methoxy-2,3,4,6,7,11b-hexahydro-1H-benzo[a]quinolizine-3-carboxylic acid ethyl ester

> <PUBCHEM_IUPAC_INCHI>
InChI=1S/C17H23NO3/c1-3-21-17(19)13-4-7-16-15-6-5-14(20-2)10-12(15)8-9-18(16)11-13/h5-6,10,13,16H,3-4,7-9,11H2,1-2H3/t13-,16-/m0/s1

> <PUBCHEM_IUPAC_INCHIKEY>
GVIQKSWGRJBTDB-BBRMVZONSA-N

> <PUBCHEM_XLOGP3_AA>
2.5

> <PUBCHEM_EXACT_MASS>
289.167794

> <PUBCHEM_MOLECULAR_FORMULA>
C17H23NO3

> <PUBCHEM_MOLECULAR_WEIGHT>
289.36942

> <PUBCHEM_OPENEYE_CAN_SMILES>
CCOC(=O)C1CCC2C3=C(CCN2C1)C=C(C=C3)OC

> <PUBCHEM_OPENEYE_ISO_SMILES>
CCOC(=O)[C@H]1CC[C@H]2C3=C(CCN2C1)C=C(C=C3)OC

> <PUBCHEM_CACTVS_TPSA>
38.8

> <PUBCHEM_MONOISOTOPIC_WEIGHT>
289.167794

> <PUBCHEM_TOTAL_CHARGE>
0

> <PUBCHEM_HEAVY_ATOM_COUNT>
21

> <PUBCHEM_ATOM_DEF_STEREO_COUNT>
2

> <PUBCHEM_ATOM_UDEF_STEREO_COUNT>
0

> <PUBCHEM_BOND_DEF_STEREO_COUNT>
0

> <PUBCHEM_BOND_UDEF_STEREO_COUNT>
0

> <PUBCHEM_ISOTOPIC_ATOM_COUNT>
0

> <PUBCHEM_COMPONENT_COUNT>
1

> <PUBCHEM_CACTVS_TAUTO_COUNT>
1

> <PUBCHEM_COORDINATE_TYPE>
1
5
255

> <PUBCHEM_BONDANNOTATIONS>
11  13  8
11  15  8
13  16  8
15  17  8
16  18  8
17  18  8
5  22  6
7  14  5

$$$$

