   Color/Form

     * Yellowish red solid
     * Hue varies considerably with particle size and therefore several
       shades are commercially available.

   from [1]HSDB

   Melting Point
        270 to 272 deg C
   from [2]HSDB

   Density/Specific Gravity
        1.37 to 1.50 g/cu cm
   from [3]HSDB

   Octanol/Water Partition Coefficient
        log Kow = 6.5 (est)
   from [4]HSDB

   Solubilities

     * Slightly soluble in ethanol and xylene; poorly soluble in ethers
       and ketones.
     * Slightly soluble in water(0.8 g/L) ethanol(0.7 g/L), ethylene
       glycol methyl ether(0.9 g/L), acetone, and benzene; very soluble in
       mineral spirits, aromatic hydrocarbons and plasticizers.
     * In water, 4.85X10-2 mg/L at 25 deg C (est)

   from [5]HSDB

   Spectral Properties

     * UV lambda max = 398, 507 nm
     * Infrared Absorption Spectrum, KBr pellet method, 24 min scans
     * 1H NMR Spectrum , 250 MHz Bruker, solvent = d-HMPA
     * Mass Spectrum: HPLC/PB MS detected fragmentation of C.I. pigment
       red 3. Identified reduction product included 1-amino-2-napthol(MW =
       159), and unidentified reduction products (MW = 130, 103, 77)

   from [6]HSDB

   Vapor Pressure
        3.7X10-11 mm Hg at 25 deg C (est)
   from [7]HSDB

   Other Chemical/Physical Properties

     * Henry's Law constant = 1.2X10-12 atm-cu m/mole at 25 deg C (est)
     * Hydroxyl radical reaction rate constant = 1.8X10-11 cu
       cm/molecule-sec at 25 deg C (est)

   from [8]HSDB

   Computed Properties
   Molecular Weight                  307.30342 [g/mol]
   Molecular Formula                 C[17]H[13]N[3]O[3]
   XLogP3-AA                         4.4
   H-Bond Donor                      1
   H-Bond Acceptor                   5
   Rotatable Bond Count              2
   Tautomer Count                    13
   Exact Mass                        307.095691
   MonoIsotopic Mass                 307.095691
   Topological Polar Surface Area    87.3
   Heavy Atom Count                  23
   Formal Charge                     0
   Complexity                        538
   Isotope Atom Count                0
   Defined Atom Stereocenter Count   0
   Undefined Atom Stereocenter Count 0
   Defined Bond Stereocenter Count   1
   Undefined Bond Stereocenter Count 0
   Covalently-Bonded Unit Count      1
   Feature 3D Acceptor Count         4
   Feature 3D Donor Count            1
   Feature 3D Anion Count            1
   Feature 3D Ring Count             3
   Effective Rotor Count             3
   Conformer Sampling RMSD           0.6
   CID Conformer Count               [9]7

References

   1. http://toxnet.nlm.nih.gov/cgi-bin/sis/search/r?dbs+hsdb:@term+@rn+@rel+2425-85-6
   2. http://toxnet.nlm.nih.gov/cgi-bin/sis/search/r?dbs+hsdb:@term+@rn+@rel+2425-85-6
   3. http://toxnet.nlm.nih.gov/cgi-bin/sis/search/r?dbs+hsdb:@term+@rn+@rel+2425-85-6
   4. http://toxnet.nlm.nih.gov/cgi-bin/sis/search/r?dbs+hsdb:@term+@rn+@rel+2425-85-6
   5. http://toxnet.nlm.nih.gov/cgi-bin/sis/search/r?dbs+hsdb:@term+@rn+@rel+2425-85-6
   6. http://toxnet.nlm.nih.gov/cgi-bin/sis/search/r?dbs+hsdb:@term+@rn+@rel+2425-85-6
   7. http://toxnet.nlm.nih.gov/cgi-bin/sis/search/r?dbs+hsdb:@term+@rn+@rel+2425-85-6
   8. http://toxnet.nlm.nih.gov/cgi-bin/sis/search/r?dbs+hsdb:@term+@rn+@rel+2425-85-6
   9. http://pubchem.ncbi.nlm.nih.gov/vw3d/vw3d.cgi?cid=5798639
