12701
  -OEChem-06261207162D

 15 14  0     0  0  0  0  0  0999 V2000
    6.3301    1.0000    0.0000 F   0  0  0  0  0  0  0  0  0  0  0  0
    5.9641   -0.3660    0.0000 F   0  0  0  0  0  0  0  0  0  0  0  0
    4.9641    1.3660    0.0000 F   0  0  0  0  0  0  0  0  0  0  0  0
    3.7320   -1.5000    0.0000 F   0  0  0  0  0  0  0  0  0  0  0  0
    5.4641   -1.5000    0.0000 F   0  0  0  0  0  0  0  0  0  0  0  0
    2.8660    0.0000    0.0000 O   0  0  0  0  0  0  0  0  0  0  0  0
    3.7320    1.5000    0.0000 O   0  0  0  0  0  0  0  0  0  0  0  0
    4.5981    0.0000    0.0000 C   0  0  0  0  0  0  0  0  0  0  0  0
    5.4641    0.5000    0.0000 C   0  0  0  0  0  0  0  0  0  0  0  0
    3.7320    0.5000    0.0000 C   0  0  0  0  0  0  0  0  0  0  0  0
    4.5981   -1.0000    0.0000 C   0  0  0  0  0  0  0  0  0  0  0  0
    2.0000    0.5000    0.0000 C   0  0  0  0  0  0  0  0  0  0  0  0
    2.3100    1.0369    0.0000 H   0  0  0  0  0  0  0  0  0  0  0  0
    1.4631    0.8100    0.0000 H   0  0  0  0  0  0  0  0  0  0  0  0
    1.6900   -0.0369    0.0000 H   0  0  0  0  0  0  0  0  0  0  0  0
  1  9  1  0  0  0  0
  2  9  1  0  0  0  0
  3  9  1  0  0  0  0
  4 11  1  0  0  0  0
  5 11  1  0  0  0  0
  6 10  1  0  0  0  0
  6 12  1  0  0  0  0
  7 10  2  0  0  0  0
  8  9  1  0  0  0  0
  8 10  1  0  0  0  0
  8 11  2  0  0  0  0
 12 13  1  0  0  0  0
 12 14  1  0  0  0  0
 12 15  1  0  0  0  0
M  END
> <PUBCHEM_COMPOUND_CID>
12701

> <PUBCHEM_COMPOUND_CANONICALIZED>
1

> <PUBCHEM_CACTVS_COMPLEXITY>
212

> <PUBCHEM_CACTVS_HBOND_ACCEPTOR>
7

> <PUBCHEM_CACTVS_HBOND_DONOR>
0

> <PUBCHEM_CACTVS_ROTATABLE_BOND>
2

> <PUBCHEM_CACTVS_SUBSKEYS>
AAADcQBgMcAAAAAAAAAAAAAAAAAAAAAAAAAAAAAAAAAAAAAAAAAAGwAAAAAADAAAgBICCAAABACIAgDQCAAAAAAAAAAAAAEAAEAABAAAIAAAAAAAAAAAIAAAAAAAAAAAAAAAAAAAAAAAAAAAAAAAAAAAAA==

> <PUBCHEM_IUPAC_OPENEYE_NAME>
methyl 3,3-difluoro-2-(trifluoromethyl)prop-2-enoate

> <PUBCHEM_IUPAC_CAS_NAME>
3,3-difluoro-2-(trifluoromethyl)-2-propenoic acid methyl ester

> <PUBCHEM_IUPAC_NAME>
methyl 3,3-difluoro-2-(trifluoromethyl)prop-2-enoate

> <PUBCHEM_IUPAC_SYSTEMATIC_NAME>
methyl 3,3-bis(fluoranyl)-2-(trifluoromethyl)prop-2-enoate

> <PUBCHEM_IUPAC_TRADITIONAL_NAME>
3,3-difluoro-2-(trifluoromethyl)acrylic acid methyl ester

> <PUBCHEM_IUPAC_INCHI>
InChI=1S/C5H3F5O2/c1-12-4(11)2(3(6)7)5(8,9)10/h1H3

> <PUBCHEM_IUPAC_INCHIKEY>
MRJFAPJDIVTPJG-UHFFFAOYSA-N

> <PUBCHEM_XLOGP3_AA>
1.7

> <PUBCHEM_EXACT_MASS>
190.00532

> <PUBCHEM_MOLECULAR_FORMULA>
C5H3F5O2

> <PUBCHEM_MOLECULAR_WEIGHT>
190.068136

> <PUBCHEM_OPENEYE_CAN_SMILES>
COC(=O)C(=C(F)F)C(F)(F)F

> <PUBCHEM_OPENEYE_ISO_SMILES>
COC(=O)C(=C(F)F)C(F)(F)F

> <PUBCHEM_CACTVS_TPSA>
26.3

> <PUBCHEM_MONOISOTOPIC_WEIGHT>
190.00532

> <PUBCHEM_TOTAL_CHARGE>
0

> <PUBCHEM_HEAVY_ATOM_COUNT>
12

> <PUBCHEM_ATOM_DEF_STEREO_COUNT>
0

> <PUBCHEM_ATOM_UDEF_STEREO_COUNT>
0

> <PUBCHEM_BOND_DEF_STEREO_COUNT>
0

> <PUBCHEM_BOND_UDEF_STEREO_COUNT>
0

> <PUBCHEM_ISOTOPIC_ATOM_COUNT>
0

> <PUBCHEM_COMPONENT_COUNT>
1

> <PUBCHEM_CACTVS_TAUTO_COUNT>
1

> <PUBCHEM_COORDINATE_TYPE>
1
5
255

$$$$

