9543072
  -OEChem-07051213082D

 24 25  0     0  0  0  0  0  0999 V2000
    3.4030    1.2424    0.0000 S   0  0  0  0  0  0  0  0  0  0  0  0
    6.8834   -1.7922    0.0000 O   0  0  0  0  0  0  0  0  0  0  0  0
    2.5369    1.7424    0.0000 O   0  0  0  0  0  0  0  0  0  0  0  0
    8.6651   -0.7818    0.0000 O   0  0  0  0  0  0  0  0  0  0  0  0
    2.9030    0.3764    0.0000 O   0  0  0  0  0  0  0  0  0  0  0  0
    3.9030    2.1084    0.0000 O   0  0  0  0  0  0  0  0  0  0  0  0
    6.0010    0.7424    0.0000 C   0  0  0  0  0  0  0  0  0  0  0  0
    6.0010   -0.2576    0.0000 C   0  0  0  0  0  0  0  0  0  0  0  0
    4.2690    0.7424    0.0000 C   0  0  0  0  0  0  0  0  0  0  0  0
    5.1350    1.2424    0.0000 C   0  0  0  0  0  0  0  0  0  0  0  0
    5.1350   -0.7576    0.0000 C   0  0  0  0  0  0  0  0  0  0  0  0
    6.8950   -0.7923    0.0000 C   0  0  0  0  0  0  0  0  0  0  0  0
    4.2690   -0.2576    0.0000 C   0  0  0  0  0  0  0  0  0  0  0  0
    6.8950    1.2770    0.0000 C   0  0  0  0  0  0  0  0  0  0  0  0
    7.8010   -0.2784    0.0000 C   0  0  0  0  0  0  0  0  0  0  0  0
    7.8010    0.7632    0.0000 C   0  0  0  0  0  0  0  0  0  0  0  0
    5.1350    1.8624    0.0000 H   0  0  0  0  0  0  0  0  0  0  0  0
    5.1350   -1.3776    0.0000 H   0  0  0  0  0  0  0  0  0  0  0  0
    3.7320   -0.5676    0.0000 H   0  0  0  0  0  0  0  0  0  0  0  0
    6.8878    1.8970    0.0000 H   0  0  0  0  0  0  0  0  0  0  0  0
    8.3368    1.0753    0.0000 H   0  0  0  0  0  0  0  0  0  0  0  0
    7.4167   -2.1084    0.0000 H   0  0  0  0  0  0  0  0  0  0  0  0
    2.0000    1.4324    0.0000 H   0  0  0  0  0  0  0  0  0  0  0  0
    9.2033   -0.4738    0.0000 H   0  0  0  0  0  0  0  0  0  0  0  0
  1  3  1  0  0  0  0
  1  5  2  0  0  0  0
  1  6  2  0  0  0  0
  1  9  1  0  0  0  0
  2 12  1  0  0  0  0
  2 22  1  0  0  0  0
  3 23  1  0  0  0  0
  4 15  1  0  0  0  0
  4 24  1  0  0  0  0
  7  8  2  0  0  0  0
  7 10  1  0  0  0  0
  7 14  1  0  0  0  0
  8 11  1  0  0  0  0
  8 12  1  0  0  0  0
  9 10  2  0  0  0  0
  9 13  1  0  0  0  0
 10 17  1  0  0  0  0
 11 13  2  0  0  0  0
 11 18  1  0  0  0  0
 12 15  2  0  0  0  0
 13 19  1  0  0  0  0
 14 16  2  0  0  0  0
 14 20  1  0  0  0  0
 15 16  1  0  0  0  0
 16 21  1  0  0  0  0
M  END
> <PUBCHEM_COMPOUND_CID>
9543072

> <PUBCHEM_COMPOUND_CANONICALIZED>
1

> <PUBCHEM_CACTVS_COMPLEXITY>
347

> <PUBCHEM_CACTVS_HBOND_ACCEPTOR>
5

> <PUBCHEM_CACTVS_HBOND_DONOR>
3

> <PUBCHEM_CACTVS_ROTATABLE_BOND>
1

> <PUBCHEM_CACTVS_SUBSKEYS>
AAADccBwOABAAAAAAAAAAAAAAAAAAAAAAAAwYAAAAAAAAADBUAAAGgQACAAADASA2AAwB8AAAoKAAiBCAHBCAEAgIAAIiBgGiIgJJiKCERKAcAEkwBEJmAeAwLAOsAABgAAYQABgAAMAADCAAAAAAAAAAA==

> <PUBCHEM_IUPAC_OPENEYE_NAME>
5,6-dihydroxynaphthalene-2-sulfonic acid

> <PUBCHEM_IUPAC_CAS_NAME>
5,6-dihydroxy-2-naphthalenesulfonic acid

> <PUBCHEM_IUPAC_NAME>
5,6-dihydroxynaphthalene-2-sulfonic acid

> <PUBCHEM_IUPAC_SYSTEMATIC_NAME>
5,6-bis(oxidanyl)naphthalene-2-sulfonic acid

> <PUBCHEM_IUPAC_TRADITIONAL_NAME>
5,6-dihydroxynaphthalene-2-sulfonic acid

> <PUBCHEM_IUPAC_INCHI>
InChI=1S/C10H8O5S/c11-9-4-1-6-5-7(16(13,14)15)2-3-8(6)10(9)12/h1-5,11-12H,(H,13,14,15)

> <PUBCHEM_IUPAC_INCHIKEY>
BMLXRHYQPFZFNY-UHFFFAOYSA-N

> <PUBCHEM_XLOGP3_AA>
1.2

> <PUBCHEM_EXACT_MASS>
240.009244

> <PUBCHEM_MOLECULAR_FORMULA>
C10H8O5S

> <PUBCHEM_MOLECULAR_WEIGHT>
240.23252

> <PUBCHEM_OPENEYE_CAN_SMILES>
C1=CC2=C(C=CC(=C2O)O)C=C1S(=O)(=O)O

> <PUBCHEM_OPENEYE_ISO_SMILES>
C1=CC2=C(C=CC(=C2O)O)C=C1S(=O)(=O)O

> <PUBCHEM_CACTVS_TPSA>
103

> <PUBCHEM_MONOISOTOPIC_WEIGHT>
240.009244

> <PUBCHEM_TOTAL_CHARGE>
0

> <PUBCHEM_HEAVY_ATOM_COUNT>
16

> <PUBCHEM_ATOM_DEF_STEREO_COUNT>
0

> <PUBCHEM_ATOM_UDEF_STEREO_COUNT>
0

> <PUBCHEM_BOND_DEF_STEREO_COUNT>
0

> <PUBCHEM_BOND_UDEF_STEREO_COUNT>
0

> <PUBCHEM_ISOTOPIC_ATOM_COUNT>
0

> <PUBCHEM_COMPONENT_COUNT>
1

> <PUBCHEM_CACTVS_TAUTO_COUNT>
20

> <PUBCHEM_COORDINATE_TYPE>
1
5
255

> <PUBCHEM_BONDANNOTATIONS>
11  13  8
12  15  8
14  16  8
15  16  8
7  10  8
7  14  8
7  8  8
8  11  8
8  12  8
9  10  8
9  13  8

$$$$

