442955
  -OEChem-07051213002D

 44 46  0     1  0  0  0  0  0999 V2000
    4.5981   -2.2673    0.0000 O   0  0  0  0  0  0  0  0  0  0  0  0
    6.3301    0.7327    0.0000 N   0  0  3  0  0  0  0  0  0  0  0  0
    3.7320   -0.7673    0.0000 N   0  0  0  0  0  0  0  0  0  0  0  0
    4.5981    0.7327    0.0000 C   0  0  1  0  0  0  0  0  0  0  0  0
    6.3301    1.7327    0.0000 C   0  0  2  0  0  0  0  0  0  0  0  0
    3.7320    0.2327    0.0000 C   0  0  1  0  0  0  0  0  0  0  0  0
    5.4641    0.2327    0.0000 C   0  0  0  0  0  0  0  0  0  0  0  0
    4.5981    1.7327    0.0000 C   0  0  0  0  0  0  0  0  0  0  0  0
    5.4641    2.2327    0.0000 C   0  0  0  0  0  0  0  0  0  0  0  0
    7.2241    2.2673    0.0000 C   0  0  0  0  0  0  0  0  0  0  0  0
    7.2241    0.1980    0.0000 C   0  0  0  0  0  0  0  0  0  0  0  0
    2.8660    0.7327    0.0000 C   0  0  0  0  0  0  0  0  0  0  0  0
    8.1301    1.7535    0.0000 C   0  0  0  0  0  0  0  0  0  0  0  0
    8.1301    0.7119    0.0000 C   0  0  0  0  0  0  0  0  0  0  0  0
    2.0000    0.2327    0.0000 C   0  0  0  0  0  0  0  0  0  0  0  0
    2.8660   -1.2673    0.0000 C   0  0  0  0  0  0  0  0  0  0  0  0
    2.0000   -0.7673    0.0000 C   0  0  0  0  0  0  0  0  0  0  0  0
    4.5981   -1.2673    0.0000 C   0  0  0  0  0  0  0  0  0  0  0  0
    4.5981   -0.1173    0.0000 H   0  0  0  0  0  0  0  0  0  0  0  0
    6.3236    2.5826    0.0000 H   0  0  0  0  0  0  0  0  0  0  0  0
    3.7320    1.0827    0.0000 H   0  0  0  0  0  0  0  0  0  0  0  0
    5.0656   -0.2423    0.0000 H   0  0  0  0  0  0  0  0  0  0  0  0
    5.8626   -0.2423    0.0000 H   0  0  0  0  0  0  0  0  0  0  0  0
    4.3860    2.3153    0.0000 H   0  0  0  0  0  0  0  0  0  0  0  0
    3.9875    1.6250    0.0000 H   0  0  0  0  0  0  0  0  0  0  0  0
    5.8626    2.7076    0.0000 H   0  0  0  0  0  0  0  0  0  0  0  0
    5.0656    2.7076    0.0000 H   0  0  0  0  0  0  0  0  0  0  0  0
    7.6177    2.7464    0.0000 H   0  0  0  0  0  0  0  0  0  0  0  0
    6.8195    2.7371    0.0000 H   0  0  0  0  0  0  0  0  0  0  0  0
    6.8195   -0.2718    0.0000 H   0  0  0  0  0  0  0  0  0  0  0  0
    7.6177   -0.2810    0.0000 H   0  0  0  0  0  0  0  0  0  0  0  0
    3.2646    1.2076    0.0000 H   0  0  0  0  0  0  0  0  0  0  0  0
    2.4675    1.2076    0.0000 H   0  0  0  0  0  0  0  0  0  0  0  0
    8.7410    1.6474    0.0000 H   0  0  0  0  0  0  0  0  0  0  0  0
    8.3392    2.3372    0.0000 H   0  0  0  0  0  0  0  0  0  0  0  0
    8.3392    0.1282    0.0000 H   0  0  0  0  0  0  0  0  0  0  0  0
    8.7410    0.8179    0.0000 H   0  0  0  0  0  0  0  0  0  0  0  0
    1.7880    0.8153    0.0000 H   0  0  0  0  0  0  0  0  0  0  0  0
    1.3894    0.1250    0.0000 H   0  0  0  0  0  0  0  0  0  0  0  0
    2.4675   -1.7423    0.0000 H   0  0  0  0  0  0  0  0  0  0  0  0
    3.2646   -1.7423    0.0000 H   0  0  0  0  0  0  0  0  0  0  0  0
    1.3894   -0.6597    0.0000 H   0  0  0  0  0  0  0  0  0  0  0  0
    1.7880   -1.3499    0.0000 H   0  0  0  0  0  0  0  0  0  0  0  0
    5.1350   -0.9573    0.0000 H   0  0  0  0  0  0  0  0  0  0  0  0
  1 18  2  0  0  0  0
  2  5  1  0  0  0  0
  2  7  1  0  0  0  0
  2 11  1  0  0  0  0
  3  6  1  0  0  0  0
  3 16  1  0  0  0  0
  3 18  1  0  0  0  0
  4  6  1  0  0  0  0
  4  7  1  0  0  0  0
  4  8  1  0  0  0  0
  4 19  1  1  0  0  0
  5  9  1  0  0  0  0
  5 10  1  0  0  0  0
  5 20  1  1  0  0  0
  6 12  1  0  0  0  0
  6 21  1  1  0  0  0
  7 22  1  0  0  0  0
  7 23  1  0  0  0  0
  8  9  1  0  0  0  0
  8 24  1  0  0  0  0
  8 25  1  0  0  0  0
  9 26  1  0  0  0  0
  9 27  1  0  0  0  0
 10 13  1  0  0  0  0
 10 28  1  0  0  0  0
 10 29  1  0  0  0  0
 11 14  1  0  0  0  0
 11 30  1  0  0  0  0
 11 31  1  0  0  0  0
 12 15  1  0  0  0  0
 12 32  1  0  0  0  0
 12 33  1  0  0  0  0
 13 14  1  0  0  0  0
 13 34  1  0  0  0  0
 13 35  1  0  0  0  0
 14 36  1  0  0  0  0
 14 37  1  0  0  0  0
 15 17  1  0  0  0  0
 15 38  1  0  0  0  0
 15 39  1  0  0  0  0
 16 17  1  0  0  0  0
 16 40  1  0  0  0  0
 16 41  1  0  0  0  0
 17 42  1  0  0  0  0
 17 43  1  0  0  0  0
 18 44  1  0  0  0  0
M  END
> <PUBCHEM_COMPOUND_CID>
442955

> <PUBCHEM_COMPOUND_CANONICALIZED>
1

> <PUBCHEM_CACTVS_COMPLEXITY>
294

> <PUBCHEM_CACTVS_HBOND_ACCEPTOR>
2

> <PUBCHEM_CACTVS_HBOND_DONOR>
0

> <PUBCHEM_CACTVS_ROTATABLE_BOND>
1

> <PUBCHEM_CACTVS_SUBSKEYS>
AAADceBzIAAAAAAAAAAAAAAAAAAAAAAAAAAsWLAAAAAAAACwAAAAHgAAAAAADSjBAAYAAAMAAAAIAAAAkAAAAAAAAAAAAAAIAAAAAAIAwAAEAAAABgCAAAEQgMAOAAAAAAAAAAAAAAAAAAAAAAAAAAAAAA==

> <PUBCHEM_IUPAC_OPENEYE_NAME>
(2R)-2-[(3R,9aS)-2,3,4,6,7,8,9,9a-octahydro-1H-quinolizin-3-yl]piperidine-1-carbaldehyde

> <PUBCHEM_IUPAC_CAS_NAME>
(2R)-2-[(3R,9aS)-2,3,4,6,7,8,9,9a-octahydro-1H-quinolizin-3-yl]-1-piperidinecarboxaldehyde

> <PUBCHEM_IUPAC_NAME>
(2R)-2-[(3R,9aS)-2,3,4,6,7,8,9,9a-octahydro-1H-quinolizin-3-yl]piperidine-1-carbaldehyde

> <PUBCHEM_IUPAC_SYSTEMATIC_NAME>
(2R)-2-[(3R,9aS)-2,3,4,6,7,8,9,9a-octahydro-1H-quinolizin-3-yl]piperidine-1-carbaldehyde

> <PUBCHEM_IUPAC_TRADITIONAL_NAME>
(2R)-2-[(3R,9aS)-quinolizidin-3-yl]piperidine-1-carbaldehyde

> <PUBCHEM_IUPAC_INCHI>
InChI=1S/C15H26N2O/c18-12-17-10-4-2-6-15(17)13-7-8-14-5-1-3-9-16(14)11-13/h12-15H,1-11H2/t13-,14+,15-/m1/s1

> <PUBCHEM_IUPAC_INCHIKEY>
LUGPGVVCVOWJLT-QLFBSQMISA-N

> <PUBCHEM_XLOGP3_AA>
2.3

> <PUBCHEM_EXACT_MASS>
250.204513

> <PUBCHEM_MOLECULAR_FORMULA>
C15H26N2O

> <PUBCHEM_MOLECULAR_WEIGHT>
250.37974

> <PUBCHEM_OPENEYE_CAN_SMILES>
C1CCN2CC(CCC2C1)C3CCCCN3C=O

> <PUBCHEM_OPENEYE_ISO_SMILES>
C1CCN2C[C@@H](CC[C@@H]2C1)[C@H]3CCCCN3C=O

> <PUBCHEM_CACTVS_TPSA>
23.6

> <PUBCHEM_MONOISOTOPIC_WEIGHT>
250.204513

> <PUBCHEM_TOTAL_CHARGE>
0

> <PUBCHEM_HEAVY_ATOM_COUNT>
18

> <PUBCHEM_ATOM_DEF_STEREO_COUNT>
3

> <PUBCHEM_ATOM_UDEF_STEREO_COUNT>
0

> <PUBCHEM_BOND_DEF_STEREO_COUNT>
0

> <PUBCHEM_BOND_UDEF_STEREO_COUNT>
0

> <PUBCHEM_ISOTOPIC_ATOM_COUNT>
0

> <PUBCHEM_COMPONENT_COUNT>
1

> <PUBCHEM_CACTVS_TAUTO_COUNT>
1

> <PUBCHEM_COORDINATE_TYPE>
1
5
255

> <PUBCHEM_BONDANNOTATIONS>
4  19  5
5  20  5
6  21  5

$$$$

