3422
  -OEChem-06251223242D

 56 56  0     1  0  0  0  0  0999 V2000
    3.4030    2.8100    0.0000 P   0  0  0  0  0  0  0  0  0  0  0  0
    4.2690    3.3100    0.0000 O   0  0  0  0  0  0  0  0  0  0  0  0
    5.5010    4.1760    0.0000 O   0  0  0  0  0  0  0  0  0  0  0  0
    6.8671    1.8100    0.0000 O   0  0  0  0  0  0  0  0  0  0  0  0
    9.4651    3.3100    0.0000 O   0  0  0  0  0  0  0  0  0  0  0  0
    2.5369    2.3100    0.0000 O   0  0  0  0  0  0  0  0  0  0  0  0
    2.9030    3.6760    0.0000 O   0  0  0  0  0  0  0  0  0  0  0  0
    3.9030    1.9440    0.0000 O   0  0  0  0  0  0  0  0  0  0  0  0
   11.1972    3.3100    0.0000 O   0  0  0  0  0  0  0  0  0  0  0  0
    9.4651   -4.6900    0.0000 O   0  0  0  0  0  0  0  0  0  0  0  0
    5.1350    2.8100    0.0000 C   0  0  3  0  0  0  0  0  0  0  0  0
    6.0010    3.3100    0.0000 C   0  0  3  0  0  0  0  0  0  0  0  0
    5.1350    1.8100    0.0000 C   0  0  0  0  0  0  0  0  0  0  0  0
    6.8671    3.8100    0.0000 C   0  0  0  0  0  0  0  0  0  0  0  0
    6.5010    2.4440    0.0000 C   0  0  0  0  0  0  0  0  0  0  0  0
    6.0010    1.3100    0.0000 C   0  0  3  0  0  0  0  0  0  0  0  0
    7.7331    3.3100    0.0000 C   0  0  0  0  0  0  0  0  0  0  0  0
    8.5991    3.8100    0.0000 C   0  0  3  0  0  0  0  0  0  0  0  0
    6.0010    0.3100    0.0000 C   0  0  0  0  0  0  0  0  0  0  0  0
    8.5991    4.8100    0.0000 C   0  0  0  0  0  0  0  0  0  0  0  0
    9.4651    5.3100    0.0000 C   0  0  0  0  0  0  0  0  0  0  0  0
    6.8671   -0.1900    0.0000 C   0  0  0  0  0  0  0  0  0  0  0  0
   10.3312    3.8100    0.0000 C   0  0  0  0  0  0  0  0  0  0  0  0
   10.3312    4.8100    0.0000 C   0  0  0  0  0  0  0  0  0  0  0  0
    6.8671   -1.1900    0.0000 C   0  0  0  0  0  0  0  0  0  0  0  0
    7.7331   -1.6900    0.0000 C   0  0  0  0  0  0  0  0  0  0  0  0
    7.7331   -2.6900    0.0000 C   0  0  0  0  0  0  0  0  0  0  0  0
    8.5991   -3.1900    0.0000 C   0  0  0  0  0  0  0  0  0  0  0  0
    8.5991   -4.1900    0.0000 C   0  0  0  0  0  0  0  0  0  0  0  0
    5.1350    3.6600    0.0000 H   0  0  0  0  0  0  0  0  0  0  0  0
    4.5244    1.9177    0.0000 H   0  0  0  0  0  0  0  0  0  0  0  0
    4.9230    1.2274    0.0000 H   0  0  0  0  0  0  0  0  0  0  0  0
    6.8671    4.4300    0.0000 H   0  0  0  0  0  0  0  0  0  0  0  0
    5.9641    2.1340    0.0000 H   0  0  0  0  0  0  0  0  0  0  0  0
    6.8110    1.9070    0.0000 H   0  0  0  0  0  0  0  0  0  0  0  0
    7.0380    2.7540    0.0000 H   0  0  0  0  0  0  0  0  0  0  0  0
    6.7372    0.8850    0.0000 H   0  0  0  0  0  0  0  0  0  0  0  0
    7.7331    2.6900    0.0000 H   0  0  0  0  0  0  0  0  0  0  0  0
    8.5991    2.9600    0.0000 H   0  0  0  0  0  0  0  0  0  0  0  0
    5.8110    4.7130    0.0000 H   0  0  0  0  0  0  0  0  0  0  0  0
    5.4641    0.0000    0.0000 H   0  0  0  0  0  0  0  0  0  0  0  0
    8.3871    5.3926    0.0000 H   0  0  0  0  0  0  0  0  0  0  0  0
    7.9885    4.7023    0.0000 H   0  0  0  0  0  0  0  0  0  0  0  0
    7.4040    1.5000    0.0000 H   0  0  0  0  0  0  0  0  0  0  0  0
    9.4651    5.9300    0.0000 H   0  0  0  0  0  0  0  0  0  0  0  0
    7.4040    0.1200    0.0000 H   0  0  0  0  0  0  0  0  0  0  0  0
   10.8681    5.1200    0.0000 H   0  0  0  0  0  0  0  0  0  0  0  0
    2.0000    2.6200    0.0000 H   0  0  0  0  0  0  0  0  0  0  0  0
    3.2130    4.2130    0.0000 H   0  0  0  0  0  0  0  0  0  0  0  0
    6.3301   -1.5000    0.0000 H   0  0  0  0  0  0  0  0  0  0  0  0
    8.2700   -1.3800    0.0000 H   0  0  0  0  0  0  0  0  0  0  0  0
    7.1962   -3.0000    0.0000 H   0  0  0  0  0  0  0  0  0  0  0  0
    9.1360   -2.8800    0.0000 H   0  0  0  0  0  0  0  0  0  0  0  0
    7.9885   -4.0823    0.0000 H   0  0  0  0  0  0  0  0  0  0  0  0
    8.3871   -4.7726    0.0000 H   0  0  0  0  0  0  0  0  0  0  0  0
    9.4651   -5.3100    0.0000 H   0  0  0  0  0  0  0  0  0  0  0  0
  1  2  1  0  0  0  0
  1  6  1  0  0  0  0
  1  7  1  0  0  0  0
  1  8  2  0  0  0  0
  2 11  1  0  0  0  0
  3 12  1  0  0  0  0
  3 40  1  0  0  0  0
  4 16  1  0  0  0  0
  4 44  1  0  0  0  0
  5 18  1  0  0  0  0
  5 23  1  0  0  0  0
  6 48  1  0  0  0  0
  7 49  1  0  0  0  0
  9 23  2  0  0  0  0
 10 29  1  0  0  0  0
 10 56  1  0  0  0  0
 11 12  1  0  0  0  0
 11 13  1  0  0  0  0
 11 30  1  0  0  0  0
 12 14  1  0  0  0  0
 12 15  1  0  0  0  0
 13 16  1  0  0  0  0
 13 31  1  0  0  0  0
 13 32  1  0  0  0  0
 14 17  2  3  0  0  0
 14 33  1  0  0  0  0
 15 34  1  0  0  0  0
 15 35  1  0  0  0  0
 15 36  1  0  0  0  0
 16 19  1  0  0  0  0
 16 37  1  0  0  0  0
 17 18  1  0  0  0  0
 17 38  1  0  0  0  0
 18 20  1  0  0  0  0
 18 39  1  0  0  0  0
 19 22  2  3  0  0  0
 19 41  1  0  0  0  0
 20 21  1  0  0  0  0
 20 42  1  0  0  0  0
 20 43  1  0  0  0  0
 21 24  2  0  0  0  0
 21 45  1  0  0  0  0
 22 25  1  0  0  0  0
 22 46  1  0  0  0  0
 23 24  1  0  0  0  0
 24 47  1  0  0  0  0
 25 26  2  3  0  0  0
 25 50  1  0  0  0  0
 26 27  1  0  0  0  0
 26 51  1  0  0  0  0
 27 28  2  3  0  0  0
 27 52  1  0  0  0  0
 28 29  1  0  0  0  0
 28 53  1  0  0  0  0
 29 54  1  0  0  0  0
 29 55  1  0  0  0  0
M  END
> <PUBCHEM_COMPOUND_CID>
3422

> <PUBCHEM_COMPOUND_CANONICALIZED>
1

> <PUBCHEM_CACTVS_COMPLEXITY>
719

> <PUBCHEM_CACTVS_HBOND_ACCEPTOR>
9

> <PUBCHEM_CACTVS_HBOND_DONOR>
5

> <PUBCHEM_CACTVS_ROTATABLE_BOND>
11

> <PUBCHEM_CACTVS_SUBSKEYS>
AAADceB4PAIAAAAAAAAAAAAAAAAAAAAAAAAgAAAAAAAAAAAAAAAAGgAACCAADFSggAICCAAABxCIQCDSCIAAAAAgAAAICAAAAEgJFAIAIQACUAAFwAAJsYPAAAAMAAAAAAAAAAAAAAAAAAAAAAAAAAAAAA==

> <PUBCHEM_IUPAC_OPENEYE_NAME>
[3,10-dihydroxy-1-[1-hydroxy-1-methyl-3-(6-oxo-2,3-dihydropyran-2-yl)allyl]deca-4,6,8-trienyl] dihydrogen phosphate

> <PUBCHEM_IUPAC_CAS_NAME>
[3,6,13-trihydroxy-3-methyl-1-(6-oxo-2,3-dihydropyran-2-yl)trideca-1,7,9,11-tetraen-4-yl] dihydrogen phosphate

> <PUBCHEM_IUPAC_NAME>
[3,6,13-trihydroxy-3-methyl-1-(6-oxo-2,3-dihydropyran-2-yl)trideca-1,7,9,11-tetraen-4-yl] dihydrogen phosphate

> <PUBCHEM_IUPAC_SYSTEMATIC_NAME>
[3-methyl-3,6,13-tris(oxidanyl)-1-(6-oxidanylidene-2,3-dihydropyran-2-yl)trideca-1,7,9,11-tetraen-4-yl] dihydrogen phosphate

> <PUBCHEM_IUPAC_TRADITIONAL_NAME>
[3,10-dihydroxy-1-[1-hydroxy-3-(6-keto-2,3-dihydropyran-2-yl)-1-methyl-allyl]deca-4,6,8-trienyl] dihydrogen phosphate

> <PUBCHEM_IUPAC_INCHI>
InChI=1S/C19H27O9P/c1-19(23,12-11-16-9-7-10-18(22)27-16)17(28-29(24,25)26)14-15(21)8-5-3-2-4-6-13-20/h2-8,10-12,15-17,20-21,23H,9,13-14H2,1H3,(H2,24,25,26)

> <PUBCHEM_IUPAC_INCHIKEY>
ZMQRJWIYMXZORG-UHFFFAOYSA-N

> <PUBCHEM_XLOGP3_AA>
-0.5

> <PUBCHEM_EXACT_MASS>
430.139269

> <PUBCHEM_MOLECULAR_FORMULA>
C19H27O9P

> <PUBCHEM_MOLECULAR_WEIGHT>
430.386042

> <PUBCHEM_OPENEYE_CAN_SMILES>
CC(C=CC1CC=CC(=O)O1)(C(CC(C=CC=CC=CCO)O)OP(=O)(O)O)O

> <PUBCHEM_OPENEYE_ISO_SMILES>
CC(C=CC1CC=CC(=O)O1)(C(CC(C=CC=CC=CCO)O)OP(=O)(O)O)O

> <PUBCHEM_CACTVS_TPSA>
154

> <PUBCHEM_MONOISOTOPIC_WEIGHT>
430.139269

> <PUBCHEM_TOTAL_CHARGE>
0

> <PUBCHEM_HEAVY_ATOM_COUNT>
29

> <PUBCHEM_ATOM_DEF_STEREO_COUNT>
0

> <PUBCHEM_ATOM_UDEF_STEREO_COUNT>
4

> <PUBCHEM_BOND_DEF_STEREO_COUNT>
0

> <PUBCHEM_BOND_UDEF_STEREO_COUNT>
4

> <PUBCHEM_ISOTOPIC_ATOM_COUNT>
0

> <PUBCHEM_COMPONENT_COUNT>
1

> <PUBCHEM_CACTVS_TAUTO_COUNT>
1

> <PUBCHEM_COORDINATE_TYPE>
1
5
255

> <PUBCHEM_BONDANNOTATIONS>
11  30  3
12  14  3
14  17  1
16  37  3
18  39  3
19  22  1
25  26  1
27  28  1

$$$$

