13347
  -OEChem-06261209122D

 29 26  0     0  0  0  0  0  0999 V2000
    6.2089    1.8100    0.0000 S   0  0  0  0  0  0  0  0  0  0  0  0
    6.2089    6.2400    0.0000 S   0  0  0  0  0  0  0  0  0  0  0  0
    1.4030    3.4300    0.0000 S   0  0  0  0  0  0  0  0  0  0  0  0
    2.2690    3.9300    0.0000 O   0  0  0  0  0  0  0  0  0  0  0  0
    0.5369    2.9300    0.0000 O   0  0  0  0  0  0  0  0  0  0  0  0
    0.9030    4.2960    0.0000 O   0  0  0  0  0  0  0  0  0  0  0  0
    1.9030    2.5640    0.0000 O   0  0  0  0  0  0  0  0  0  0  0  0
    7.9409    1.8100    0.0000 N   0  0  0  0  0  0  0  0  0  0  0  0
    7.9409    6.2400    0.0000 N   0  0  0  0  0  0  0  0  0  0  0  0
    7.0749    0.3100    0.0000 N   0  0  0  0  0  0  0  0  0  0  0  0
    7.0749    4.7400    0.0000 N   0  0  0  0  0  0  0  0  0  0  0  0
    5.3429    1.3100    0.0000 C   0  0  0  0  0  0  0  0  0  0  0  0
    5.3429    5.7400    0.0000 C   0  0  0  0  0  0  0  0  0  0  0  0
    7.0749    1.3100    0.0000 C   0  0  0  0  0  0  0  0  0  0  0  0
    7.0749    5.7400    0.0000 C   0  0  0  0  0  0  0  0  0  0  0  0
    5.0329    1.8469    0.0000 H   0  0  0  0  0  0  0  0  0  0  0  0
    4.8059    1.0000    0.0000 H   0  0  0  0  0  0  0  0  0  0  0  0
    5.6529    0.7731    0.0000 H   0  0  0  0  0  0  0  0  0  0  0  0
    5.0329    6.2769    0.0000 H   0  0  0  0  0  0  0  0  0  0  0  0
    4.8059    5.4300    0.0000 H   0  0  0  0  0  0  0  0  0  0  0  0
    5.6529    5.2031    0.0000 H   0  0  0  0  0  0  0  0  0  0  0  0
    8.4779    1.5000    0.0000 H   0  0  0  0  0  0  0  0  0  0  0  0
    7.9409    2.4300    0.0000 H   0  0  0  0  0  0  0  0  0  0  0  0
    8.4779    5.9300    0.0000 H   0  0  0  0  0  0  0  0  0  0  0  0
    7.9409    6.8600    0.0000 H   0  0  0  0  0  0  0  0  0  0  0  0
    6.5380    0.0000    0.0000 H   0  0  0  0  0  0  0  0  0  0  0  0
    6.5380    4.4300    0.0000 H   0  0  0  0  0  0  0  0  0  0  0  0
    2.8059    3.6200    0.0000 H   0  0  0  0  0  0  0  0  0  0  0  0
    0.0000    3.2400    0.0000 H   0  0  0  0  0  0  0  0  0  0  0  0
  1 12  1  0  0  0  0
  1 14  1  0  0  0  0
  2 13  1  0  0  0  0
  2 15  1  0  0  0  0
  3  4  1  0  0  0  0
  3  5  1  0  0  0  0
  3  6  2  0  0  0  0
  3  7  2  0  0  0  0
  4 28  1  0  0  0  0
  5 29  1  0  0  0  0
  8 14  1  0  0  0  0
  8 22  1  0  0  0  0
  8 23  1  0  0  0  0
  9 15  1  0  0  0  0
  9 24  1  0  0  0  0
  9 25  1  0  0  0  0
 10 14  2  0  0  0  0
 10 26  1  0  0  0  0
 11 15  2  0  0  0  0
 11 27  1  0  0  0  0
 12 16  1  0  0  0  0
 12 17  1  0  0  0  0
 12 18  1  0  0  0  0
 13 19  1  0  0  0  0
 13 20  1  0  0  0  0
 13 21  1  0  0  0  0
M  END
> <PUBCHEM_COMPOUND_CID>
13347

> <PUBCHEM_COMPOUND_CANONICALIZED>
1

> <PUBCHEM_CACTVS_COMPLEXITY>
124

> <PUBCHEM_CACTVS_HBOND_ACCEPTOR>
8

> <PUBCHEM_CACTVS_HBOND_DONOR>
6

> <PUBCHEM_CACTVS_ROTATABLE_BOND>
2

> <PUBCHEM_CACTVS_SUBSKEYS>
AAADccBjuABgAAAAAAAAAAAAAAAAAAAAAAAAAAAAAAAAAAAAAAAAFAQQCAAAAAAAAACDAABAAIggAAAAIDAAAgDAAAAAAAAAAAAAAAAAAAAAAAAAAAAAAAAAAAAAAAAAAAAAAAAAAAAAAAAAAAAAAAAAAA==

> <PUBCHEM_IUPAC_OPENEYE_NAME>
2-methylisothiourea; sulfuric acid

> <PUBCHEM_IUPAC_CAS_NAME>
carbamimidothioic acid methyl ester; sulfuric acid

> <PUBCHEM_IUPAC_NAME>
methyl carbamimidothioate; sulfuric acid

> <PUBCHEM_IUPAC_SYSTEMATIC_NAME>
methyl carbamimidothioate; sulfuric acid

> <PUBCHEM_IUPAC_TRADITIONAL_NAME>
2-methylisothiourea; sulfuric acid

> <PUBCHEM_IUPAC_INCHI>
InChI=1S/2C2H6N2S.H2O4S/c2*1-5-2(3)4;1-5(2,3)4/h2*1H3,(H3,3,4);(H2,1,2,3,4)

> <PUBCHEM_IUPAC_INCHIKEY>
BZZXQZOBAUXLHZ-UHFFFAOYSA-N

> <PUBCHEM_EXACT_MASS>
278.017718

> <PUBCHEM_MOLECULAR_FORMULA>
C4H14N4O4S3

> <PUBCHEM_MOLECULAR_WEIGHT>
278.37336

> <PUBCHEM_OPENEYE_CAN_SMILES>
CSC(=N)N.CSC(=N)N.OS(=O)(=O)O

> <PUBCHEM_OPENEYE_ISO_SMILES>
CSC(=N)N.CSC(=N)N.OS(=O)(=O)O

> <PUBCHEM_CACTVS_TPSA>
233

> <PUBCHEM_MONOISOTOPIC_WEIGHT>
278.017718

> <PUBCHEM_TOTAL_CHARGE>
0

> <PUBCHEM_HEAVY_ATOM_COUNT>
15

> <PUBCHEM_ATOM_DEF_STEREO_COUNT>
0

> <PUBCHEM_ATOM_UDEF_STEREO_COUNT>
0

> <PUBCHEM_BOND_DEF_STEREO_COUNT>
0

> <PUBCHEM_BOND_UDEF_STEREO_COUNT>
0

> <PUBCHEM_ISOTOPIC_ATOM_COUNT>
0

> <PUBCHEM_COMPONENT_COUNT>
3

> <PUBCHEM_CACTVS_TAUTO_COUNT>
1

> <PUBCHEM_COORDINATE_TYPE>
1
5
255

$$$$

