91746
  -OEChem-07051213122D

 51 52  0     0  0  0  0  0  0999 V2000
    2.0000   -0.7321    0.0000 O   0  0  0  0  0  0  0  0  0  0  0  0
    5.4641   -0.7321    0.0000 O   0  0  0  0  0  0  0  0  0  0  0  0
    2.8660   -3.2320    0.0000 O   0  0  0  0  0  0  0  0  0  0  0  0
    2.8660   -2.2320    0.0000 N   0  0  0  0  0  0  0  0  0  0  0  0
    3.7320    1.2680    0.0000 C   0  0  0  0  0  0  0  0  0  0  0  0
    2.8660    0.7679    0.0000 C   0  0  0  0  0  0  0  0  0  0  0  0
    4.5981    0.7679    0.0000 C   0  0  0  0  0  0  0  0  0  0  0  0
    4.2320    2.1340    0.0000 C   0  0  0  0  0  0  0  0  0  0  0  0
    2.8660   -0.2321    0.0000 C   0  0  0  0  0  0  0  0  0  0  0  0
    4.5981   -0.2321    0.0000 C   0  0  0  0  0  0  0  0  0  0  0  0
    3.7320   -0.7321    0.0000 C   0  0  0  0  0  0  0  0  0  0  0  0
    5.2320    2.1340    0.0000 C   0  0  0  0  0  0  0  0  0  0  0  0
    3.7320    3.0000    0.0000 C   0  0  0  0  0  0  0  0  0  0  0  0
    3.7320   -1.7320    0.0000 C   0  0  0  0  0  0  0  0  0  0  0  0
    5.7320    3.0000    0.0000 C   0  0  0  0  0  0  0  0  0  0  0  0
    4.2320    3.8660    0.0000 C   0  0  0  0  0  0  0  0  0  0  0  0
    5.2320    3.8660    0.0000 C   0  0  0  0  0  0  0  0  0  0  0  0
    5.7320    1.2680    0.0000 C   0  0  0  0  0  0  0  0  0  0  0  0
    2.7320    3.0000    0.0000 C   0  0  0  0  0  0  0  0  0  0  0  0
    4.5981   -2.2320    0.0000 C   0  0  0  0  0  0  0  0  0  0  0  0
    5.7320    4.7320    0.0000 C   0  0  0  0  0  0  0  0  0  0  0  0
    4.5981   -3.2320    0.0000 C   0  0  0  0  0  0  0  0  0  0  0  0
    2.0000   -3.7320    0.0000 C   0  0  0  0  0  0  0  0  0  0  0  0
    2.0000   -4.7320    0.0000 C   0  0  0  0  0  0  0  0  0  0  0  0
    3.4220    1.8049    0.0000 H   0  0  0  0  0  0  0  0  0  0  0  0
    2.6540    1.3506    0.0000 H   0  0  0  0  0  0  0  0  0  0  0  0
    2.2554    0.6603    0.0000 H   0  0  0  0  0  0  0  0  0  0  0  0
    5.2087    0.6603    0.0000 H   0  0  0  0  0  0  0  0  0  0  0  0
    4.8101    1.3506    0.0000 H   0  0  0  0  0  0  0  0  0  0  0  0
    6.3520    3.0000    0.0000 H   0  0  0  0  0  0  0  0  0  0  0  0
    3.9220    4.4030    0.0000 H   0  0  0  0  0  0  0  0  0  0  0  0
    5.1951    0.9579    0.0000 H   0  0  0  0  0  0  0  0  0  0  0  0
    6.0420    0.7310    0.0000 H   0  0  0  0  0  0  0  0  0  0  0  0
    6.2690    1.5780    0.0000 H   0  0  0  0  0  0  0  0  0  0  0  0
    2.7320    3.6200    0.0000 H   0  0  0  0  0  0  0  0  0  0  0  0
    2.1120    3.0000    0.0000 H   0  0  0  0  0  0  0  0  0  0  0  0
    2.7320    2.3800    0.0000 H   0  0  0  0  0  0  0  0  0  0  0  0
    5.2087   -2.3397    0.0000 H   0  0  0  0  0  0  0  0  0  0  0  0
    4.8101   -1.6494    0.0000 H   0  0  0  0  0  0  0  0  0  0  0  0
    6.2690    4.4220    0.0000 H   0  0  0  0  0  0  0  0  0  0  0  0
    6.0420    5.2690    0.0000 H   0  0  0  0  0  0  0  0  0  0  0  0
    5.1951    5.0420    0.0000 H   0  0  0  0  0  0  0  0  0  0  0  0
    2.3291   -1.9220    0.0000 H   0  0  0  0  0  0  0  0  0  0  0  0
    3.9781   -3.2320    0.0000 H   0  0  0  0  0  0  0  0  0  0  0  0
    4.5981   -3.8520    0.0000 H   0  0  0  0  0  0  0  0  0  0  0  0
    5.2181   -3.2320    0.0000 H   0  0  0  0  0  0  0  0  0  0  0  0
    1.7880   -3.1494    0.0000 H   0  0  0  0  0  0  0  0  0  0  0  0
    1.3894   -3.8397    0.0000 H   0  0  0  0  0  0  0  0  0  0  0  0
    1.3800   -4.7320    0.0000 H   0  0  0  0  0  0  0  0  0  0  0  0
    2.0000   -5.3520    0.0000 H   0  0  0  0  0  0  0  0  0  0  0  0
    2.6200   -4.7320    0.0000 H   0  0  0  0  0  0  0  0  0  0  0  0
  1  9  2  0  0  0  0
  2 10  2  0  0  0  0
  3  4  1  0  0  0  0
  3 23  1  0  0  0  0
  4 14  1  0  0  0  0
  4 43  1  0  0  0  0
  5  6  1  0  0  0  0
  5  7  1  0  0  0  0
  5  8  1  0  0  0  0
  5 25  1  0  0  0  0
  6  9  1  0  0  0  0
  6 26  1  0  0  0  0
  6 27  1  0  0  0  0
  7 10  1  0  0  0  0
  7 28  1  0  0  0  0
  7 29  1  0  0  0  0
  8 12  2  0  0  0  0
  8 13  1  0  0  0  0
  9 11  1  0  0  0  0
 10 11  1  0  0  0  0
 11 14  2  0  0  0  0
 12 15  1  0  0  0  0
 12 18  1  0  0  0  0
 13 16  2  0  0  0  0
 13 19  1  0  0  0  0
 14 20  1  0  0  0  0
 15 17  2  0  0  0  0
 15 30  1  0  0  0  0
 16 17  1  0  0  0  0
 16 31  1  0  0  0  0
 17 21  1  0  0  0  0
 18 32  1  0  0  0  0
 18 33  1  0  0  0  0
 18 34  1  0  0  0  0
 19 35  1  0  0  0  0
 19 36  1  0  0  0  0
 19 37  1  0  0  0  0
 20 22  1  0  0  0  0
 20 38  1  0  0  0  0
 20 39  1  0  0  0  0
 21 40  1  0  0  0  0
 21 41  1  0  0  0  0
 21 42  1  0  0  0  0
 22 44  1  0  0  0  0
 22 45  1  0  0  0  0
 22 46  1  0  0  0  0
 23 24  1  0  0  0  0
 23 47  1  0  0  0  0
 23 48  1  0  0  0  0
 24 49  1  0  0  0  0
 24 50  1  0  0  0  0
 24 51  1  0  0  0  0
M  END
> <PUBCHEM_COMPOUND_CID>
91746

> <PUBCHEM_COMPOUND_CANONICALIZED>
1

> <PUBCHEM_CACTVS_COMPLEXITY>
479

> <PUBCHEM_CACTVS_HBOND_ACCEPTOR>
4

> <PUBCHEM_CACTVS_HBOND_DONOR>
1

> <PUBCHEM_CACTVS_ROTATABLE_BOND>
5

> <PUBCHEM_CACTVS_SUBSKEYS>
AAADceB6MAAAAAAAAAAAAAAAAAAAAAAAAAAwYAAAAAAAAAABAAAAHgAUAAAADQyhmAIyAIBQAACIAqRSQAACAAAgAAAgiAEAAMgIIDKIERCAIAAgkAAIiUcIisCuwAACAAAQAACAAAQAACAAAAAAAAAAAA==

> <PUBCHEM_IUPAC_OPENEYE_NAME>
2-[1-(ethoxyamino)propylidene]-5-(2,4,6-trimethylphenyl)cyclohexane-1,3-dione

> <PUBCHEM_IUPAC_CAS_NAME>
2-[1-(ethoxyamino)propylidene]-5-(2,4,6-trimethylphenyl)cyclohexane-1,3-dione

> <PUBCHEM_IUPAC_NAME>
2-[1-(ethoxyamino)propylidene]-5-(2,4,6-trimethylphenyl)cyclohexane-1,3-dione

> <PUBCHEM_IUPAC_SYSTEMATIC_NAME>
2-[1-(ethoxyamino)propylidene]-5-(2,4,6-trimethylphenyl)cyclohexane-1,3-dione

> <PUBCHEM_IUPAC_TRADITIONAL_NAME>
2-[1-(ethoxyamino)propylidene]-5-mesityl-cyclohexane-1,3-quinone

> <PUBCHEM_IUPAC_INCHI>
InChI=1S/C20H27NO3/c1-6-16(21-24-7-2)20-17(22)10-15(11-18(20)23)19-13(4)8-12(3)9-14(19)5/h8-9,15,21H,6-7,10-11H2,1-5H3

> <PUBCHEM_IUPAC_INCHIKEY>
SOTLWPHEAQOHHC-UHFFFAOYSA-N

> <PUBCHEM_XLOGP3_AA>
4.5

> <PUBCHEM_EXACT_MASS>
329.199094

> <PUBCHEM_MOLECULAR_FORMULA>
C20H27NO3

> <PUBCHEM_MOLECULAR_WEIGHT>
329.43328

> <PUBCHEM_OPENEYE_CAN_SMILES>
CCC(=C1C(=O)CC(CC1=O)C2=C(C=C(C=C2C)C)C)NOCC

> <PUBCHEM_OPENEYE_ISO_SMILES>
CCC(=C1C(=O)CC(CC1=O)C2=C(C=C(C=C2C)C)C)NOCC

> <PUBCHEM_CACTVS_TPSA>
55.4

> <PUBCHEM_MONOISOTOPIC_WEIGHT>
329.199094

> <PUBCHEM_TOTAL_CHARGE>
0

> <PUBCHEM_HEAVY_ATOM_COUNT>
24

> <PUBCHEM_ATOM_DEF_STEREO_COUNT>
0

> <PUBCHEM_ATOM_UDEF_STEREO_COUNT>
0

> <PUBCHEM_BOND_DEF_STEREO_COUNT>
0

> <PUBCHEM_BOND_UDEF_STEREO_COUNT>
0

> <PUBCHEM_ISOTOPIC_ATOM_COUNT>
0

> <PUBCHEM_COMPONENT_COUNT>
1

> <PUBCHEM_CACTVS_TAUTO_COUNT>
13

> <PUBCHEM_COORDINATE_TYPE>
1
5
255

> <PUBCHEM_BONDANNOTATIONS>
12  15  8
13  16  8
15  17  8
16  17  8
8  12  8
8  13  8

$$$$

