5282061
  -OEChem-07051213022D

 52 51  0     0  0  0  0  0  0999 V2000
   13.7953    2.4050    0.0000 O   0  0  0  0  0  0  0  0  0  0  0  0
   14.6613    0.9050    0.0000 O   0  0  0  0  0  0  0  0  0  0  0  0
    6.0010   -2.0950    0.0000 C   0  0  0  0  0  0  0  0  0  0  0  0
    5.1350   -1.5950    0.0000 C   0  0  0  0  0  0  0  0  0  0  0  0
    6.8671   -1.5950    0.0000 C   0  0  0  0  0  0  0  0  0  0  0  0
   12.9292   -0.0950    0.0000 C   0  0  0  0  0  0  0  0  0  0  0  0
    4.2690   -2.0950    0.0000 C   0  0  0  0  0  0  0  0  0  0  0  0
   12.0632   -0.5950    0.0000 C   0  0  0  0  0  0  0  0  0  0  0  0
    7.7331   -2.0950    0.0000 C   0  0  0  0  0  0  0  0  0  0  0  0
   12.9292    0.9050    0.0000 C   0  0  0  0  0  0  0  0  0  0  0  0
    3.4030   -1.5950    0.0000 C   0  0  0  0  0  0  0  0  0  0  0  0
    3.4030   -0.5950    0.0000 C   0  0  0  0  0  0  0  0  0  0  0  0
   12.0632   -1.5950    0.0000 C   0  0  0  0  0  0  0  0  0  0  0  0
    8.5991   -1.5950    0.0000 C   0  0  0  0  0  0  0  0  0  0  0  0
    2.5369   -0.0950    0.0000 C   0  0  0  0  0  0  0  0  0  0  0  0
   11.1972   -2.0950    0.0000 C   0  0  0  0  0  0  0  0  0  0  0  0
   13.7953    1.4050    0.0000 C   0  0  0  0  0  0  0  0  0  0  0  0
    9.4651   -2.0950    0.0000 C   0  0  0  0  0  0  0  0  0  0  0  0
    2.5369    0.9050    0.0000 C   0  0  0  0  0  0  0  0  0  0  0  0
   10.3312   -1.5950    0.0000 C   0  0  0  0  0  0  0  0  0  0  0  0
    3.4030    1.4050    0.0000 C   0  0  0  0  0  0  0  0  0  0  0  0
    3.4030    2.4050    0.0000 C   0  0  0  0  0  0  0  0  0  0  0  0
    5.6025   -2.5700    0.0000 H   0  0  0  0  0  0  0  0  0  0  0  0
    6.3996   -2.5700    0.0000 H   0  0  0  0  0  0  0  0  0  0  0  0
    5.5335   -1.1200    0.0000 H   0  0  0  0  0  0  0  0  0  0  0  0
    4.7365   -1.1200    0.0000 H   0  0  0  0  0  0  0  0  0  0  0  0
    7.2656   -1.1200    0.0000 H   0  0  0  0  0  0  0  0  0  0  0  0
    6.4685   -1.1200    0.0000 H   0  0  0  0  0  0  0  0  0  0  0  0
   13.1413   -0.6776    0.0000 H   0  0  0  0  0  0  0  0  0  0  0  0
   13.5398    0.0127    0.0000 H   0  0  0  0  0  0  0  0  0  0  0  0
    4.2690   -2.7150    0.0000 H   0  0  0  0  0  0  0  0  0  0  0  0
   11.8512   -0.0124    0.0000 H   0  0  0  0  0  0  0  0  0  0  0  0
   11.4526   -0.7027    0.0000 H   0  0  0  0  0  0  0  0  0  0  0  0
   12.7172    1.4876    0.0000 H   0  0  0  0  0  0  0  0  0  0  0  0
   12.3187    0.7973    0.0000 H   0  0  0  0  0  0  0  0  0  0  0  0
    7.7331   -2.7150    0.0000 H   0  0  0  0  0  0  0  0  0  0  0  0
    2.8660   -1.9050    0.0000 H   0  0  0  0  0  0  0  0  0  0  0  0
    4.0135   -0.7027    0.0000 H   0  0  0  0  0  0  0  0  0  0  0  0
    3.6150   -0.0124    0.0000 H   0  0  0  0  0  0  0  0  0  0  0  0
   12.6002   -1.9050    0.0000 H   0  0  0  0  0  0  0  0  0  0  0  0
    8.5991   -0.9750    0.0000 H   0  0  0  0  0  0  0  0  0  0  0  0
    2.0000   -0.4050    0.0000 H   0  0  0  0  0  0  0  0  0  0  0  0
   11.1972   -2.7150    0.0000 H   0  0  0  0  0  0  0  0  0  0  0  0
    9.4651   -2.7150    0.0000 H   0  0  0  0  0  0  0  0  0  0  0  0
    2.0000    1.2150    0.0000 H   0  0  0  0  0  0  0  0  0  0  0  0
   10.3312   -0.9750    0.0000 H   0  0  0  0  0  0  0  0  0  0  0  0
    3.6150    0.8224    0.0000 H   0  0  0  0  0  0  0  0  0  0  0  0
    4.0135    1.5127    0.0000 H   0  0  0  0  0  0  0  0  0  0  0  0
    4.0230    2.4050    0.0000 H   0  0  0  0  0  0  0  0  0  0  0  0
    3.4030    3.0250    0.0000 H   0  0  0  0  0  0  0  0  0  0  0  0
    2.7830    2.4050    0.0000 H   0  0  0  0  0  0  0  0  0  0  0  0
   14.3322    2.7150    0.0000 H   0  0  0  0  0  0  0  0  0  0  0  0
  1 17  1  0  0  0  0
  1 52  1  0  0  0  0
  2 17  2  0  0  0  0
  3  4  1  0  0  0  0
  3  5  1  0  0  0  0
  3 23  1  0  0  0  0
  3 24  1  0  0  0  0
  4  7  1  0  0  0  0
  4 25  1  0  0  0  0
  4 26  1  0  0  0  0
  5  9  1  0  0  0  0
  5 27  1  0  0  0  0
  5 28  1  0  0  0  0
  6  8  1  0  0  0  0
  6 10  1  0  0  0  0
  6 29  1  0  0  0  0
  6 30  1  0  0  0  0
  7 11  2  0  0  0  0
  7 31  1  0  0  0  0
  8 13  1  0  0  0  0
  8 32  1  0  0  0  0
  8 33  1  0  0  0  0
  9 14  2  0  0  0  0
  9 36  1  0  0  0  0
 10 17  1  0  0  0  0
 10 34  1  0  0  0  0
 10 35  1  0  0  0  0
 11 12  1  0  0  0  0
 11 37  1  0  0  0  0
 12 15  1  0  0  0  0
 12 38  1  0  0  0  0
 12 39  1  0  0  0  0
 13 16  2  0  0  0  0
 13 40  1  0  0  0  0
 14 18  1  0  0  0  0
 14 41  1  0  0  0  0
 15 19  2  0  0  0  0
 15 42  1  0  0  0  0
 16 20  1  0  0  0  0
 16 43  1  0  0  0  0
 18 20  2  0  0  0  0
 18 44  1  0  0  0  0
 19 21  1  0  0  0  0
 19 45  1  0  0  0  0
 20 46  1  0  0  0  0
 21 22  1  0  0  0  0
 21 47  1  0  0  0  0
 21 48  1  0  0  0  0
 22 49  1  0  0  0  0
 22 50  1  0  0  0  0
 22 51  1  0  0  0  0
M  END
> <PUBCHEM_COMPOUND_CID>
5282061

> <PUBCHEM_COMPOUND_CANONICALIZED>
1

> <PUBCHEM_CACTVS_COMPLEXITY>
398

> <PUBCHEM_CACTVS_HBOND_ACCEPTOR>
2

> <PUBCHEM_CACTVS_HBOND_DONOR>
1

> <PUBCHEM_CACTVS_ROTATABLE_BOND>
13

> <PUBCHEM_CACTVS_SUBSKEYS>
AAADceB4MAAAAAAAAAAAAAAAAAAAAAAAAAAAAAAAAAAAAAAAAAAAGgAACAAACACAgAACCAAAAgCIACDSCAAAAAAgAAAICAEAAAgIABIAAQAAQAAEgAAIgAKIAAAAAAAAAAAAAAAAAAAAAAAAAAAAAAAAAA==

> <PUBCHEM_IUPAC_OPENEYE_NAME>
(5Z,7E,9E,14Z,17Z)-icosa-5,7,9,14,17-pentaenoic acid

> <PUBCHEM_IUPAC_CAS_NAME>
(5Z,7E,9E,14Z,17Z)-eicosa-5,7,9,14,17-pentaenoic acid

> <PUBCHEM_IUPAC_NAME>
(5Z,7E,9E,14Z,17Z)-icosa-5,7,9,14,17-pentaenoic acid

> <PUBCHEM_IUPAC_SYSTEMATIC_NAME>
(5Z,7E,9E,14Z,17Z)-icosa-5,7,9,14,17-pentaenoic acid

> <PUBCHEM_IUPAC_TRADITIONAL_NAME>
(5Z,7E,9E,14Z,17Z)-eicosa-5,7,9,14,17-pentaenoic acid

> <PUBCHEM_IUPAC_INCHI>
InChI=1S/C20H30O2/c1-2-3-4-5-6-7-8-9-10-11-12-13-14-15-16-17-18-19-20(21)22/h3-4,6-7,11-16H,2,5,8-10,17-19H2,1H3,(H,21,22)/b4-3-,7-6-,12-11+,14-13+,16-15-

> <PUBCHEM_IUPAC_INCHIKEY>
XGTCGDUVXWLURC-FZNBEQTOSA-N

> <PUBCHEM_XLOGP3_AA>
5.9

> <PUBCHEM_EXACT_MASS>
302.22458

> <PUBCHEM_MOLECULAR_FORMULA>
C20H30O2

> <PUBCHEM_MOLECULAR_WEIGHT>
302.451

> <PUBCHEM_OPENEYE_CAN_SMILES>
CCC=CCC=CCCCC=CC=CC=CCCCC(=O)O

> <PUBCHEM_OPENEYE_ISO_SMILES>
CC/C=C\C/C=C\CCC/C=C/C=C/C=C\CCCC(=O)O

> <PUBCHEM_CACTVS_TPSA>
37.3

> <PUBCHEM_MONOISOTOPIC_WEIGHT>
302.22458

> <PUBCHEM_TOTAL_CHARGE>
0

> <PUBCHEM_HEAVY_ATOM_COUNT>
22

> <PUBCHEM_ATOM_DEF_STEREO_COUNT>
0

> <PUBCHEM_ATOM_UDEF_STEREO_COUNT>
0

> <PUBCHEM_BOND_DEF_STEREO_COUNT>
5

> <PUBCHEM_BOND_UDEF_STEREO_COUNT>
0

> <PUBCHEM_ISOTOPIC_ATOM_COUNT>
0

> <PUBCHEM_COMPONENT_COUNT>
1

> <PUBCHEM_CACTVS_TAUTO_COUNT>
1

> <PUBCHEM_COORDINATE_TYPE>
1
5
255

$$$$

