441984
  -OEChem-07051212562D

 49 54  0     1  0  0  0  0  0999 V2000
    2.6039    2.2857    0.0000 O   0  0  0  0  0  0  0  0  0  0  0  0
    3.6006    3.5961    0.0000 O   0  0  0  0  0  0  0  0  0  0  0  0
    6.3981    2.2606    0.0000 O   0  0  0  0  0  0  0  0  0  0  0  0
    7.2641    0.7606    0.0000 O   0  0  0  0  0  0  0  0  0  0  0  0
    2.9061   -0.7740    0.0000 N   0  0  3  0  0  0  0  0  0  0  0  0
    6.2691   -0.9065    0.0000 N   0  0  0  0  0  0  0  0  0  0  0  0
    3.8000   -0.2394    0.0000 C   0  0  1  0  0  0  0  0  0  0  0  0
    3.8000    0.7606    0.0000 C   0  0  1  0  0  0  0  0  0  0  0  0
    4.6660   -0.7394    0.0000 C   0  0  2  0  0  0  0  0  0  0  0  0
    2.9061    1.2953    0.0000 C   0  0  2  0  0  0  0  0  0  0  0  0
    4.3009   -1.6637    0.0000 C   0  0  0  0  0  0  0  0  0  0  0  0
    4.6660    1.2606    0.0000 C   0  0  0  0  0  0  0  0  0  0  0  0
    3.3073   -1.6833    0.0000 C   0  0  0  0  0  0  0  0  0  0  0  0
    5.5321   -0.2394    0.0000 C   0  0  0  0  0  0  0  0  0  0  0  0
    4.1326    1.7412    0.0000 C   0  0  0  0  0  0  0  0  0  0  0  0
    2.0000   -0.2602    0.0000 C   0  0  0  0  0  0  0  0  0  0  0  0
    2.0000    0.7814    0.0000 C   0  0  0  0  0  0  0  0  0  0  0  0
    4.8752   -1.7112    0.0000 C   0  0  0  0  0  0  0  0  0  0  0  0
    5.5321    0.7606    0.0000 C   0  0  0  0  0  0  0  0  0  0  0  0
    3.3776    2.6213    0.0000 C   0  0  0  0  0  0  0  0  0  0  0  0
    5.8640   -1.8142    0.0000 C   0  0  0  0  0  0  0  0  0  0  0  0
    4.2545   -2.5400    0.0000 C   0  0  0  0  0  0  0  0  0  0  0  0
    6.3981    1.2606    0.0000 C   0  0  0  0  0  0  0  0  0  0  0  0
    6.3005   -2.7532    0.0000 C   0  0  0  0  0  0  0  0  0  0  0  0
    4.6692   -3.4888    0.0000 C   0  0  0  0  0  0  0  0  0  0  0  0
    5.6990   -3.5961    0.0000 C   0  0  0  0  0  0  0  0  0  0  0  0
    7.2641    2.7606    0.0000 C   0  0  0  0  0  0  0  0  0  0  0  0
    3.0639    0.1856    0.0000 H   0  0  0  0  0  0  0  0  0  0  0  0
    2.1165    1.6101    0.0000 H   0  0  0  0  0  0  0  0  0  0  0  0
    4.2315   -2.2798    0.0000 H   0  0  0  0  0  0  0  0  0  0  0  0
    4.9025   -1.8136    0.0000 H   0  0  0  0  0  0  0  0  0  0  0  0
    5.0646    1.7356    0.0000 H   0  0  0  0  0  0  0  0  0  0  0  0
    4.2675    1.7356    0.0000 H   0  0  0  0  0  0  0  0  0  0  0  0
    2.7121   -1.8568    0.0000 H   0  0  0  0  0  0  0  0  0  0  0  0
    3.4010   -2.2962    0.0000 H   0  0  0  0  0  0  0  0  0  0  0  0
    4.6751    1.4411    0.0000 H   0  0  0  0  0  0  0  0  0  0  0  0
    4.5241    2.2220    0.0000 H   0  0  0  0  0  0  0  0  0  0  0  0
    1.3891   -0.1541    0.0000 H   0  0  0  0  0  0  0  0  0  0  0  0
    1.7909   -0.8439    0.0000 H   0  0  0  0  0  0  0  0  0  0  0  0
    1.7909    1.3651    0.0000 H   0  0  0  0  0  0  0  0  0  0  0  0
    1.3891    0.6753    0.0000 H   0  0  0  0  0  0  0  0  0  0  0  0
    6.8758   -0.7786    0.0000 H   0  0  0  0  0  0  0  0  0  0  0  0
    3.6386   -2.4686    0.0000 H   0  0  0  0  0  0  0  0  0  0  0  0
    6.9178   -2.8104    0.0000 H   0  0  0  0  0  0  0  0  0  0  0  0
    4.3032   -3.9893    0.0000 H   0  0  0  0  0  0  0  0  0  0  0  0
    5.9539   -4.1613    0.0000 H   0  0  0  0  0  0  0  0  0  0  0  0
    7.5741    2.2237    0.0000 H   0  0  0  0  0  0  0  0  0  0  0  0
    7.8010    3.0706    0.0000 H   0  0  0  0  0  0  0  0  0  0  0  0
    6.9541    3.2976    0.0000 H   0  0  0  0  0  0  0  0  0  0  0  0
  1 10  1  0  0  0  0
  1 20  1  0  0  0  0
  2 20  2  0  0  0  0
  3 23  1  0  0  0  0
  3 27  1  0  0  0  0
  4 23  2  0  0  0  0
  5  7  1  0  0  0  0
  5 13  1  0  0  0  0
  5 16  1  0  0  0  0
  6 14  1  0  0  0  0
  6 21  1  0  0  0  0
  6 42  1  0  0  0  0
  7  8  1  0  0  0  0
  7  9  1  0  0  0  0
  7 28  1  6  0  0  0
  8 10  1  0  0  0  0
  8 12  1  0  0  0  0
  8 15  1  6  0  0  0
  9 11  1  1  0  0  0
  9 14  1  0  0  0  0
  9 18  1  0  0  0  0
 10 17  1  0  0  0  0
 10 29  1  1  0  0  0
 11 13  1  0  0  0  0
 11 30  1  0  0  0  0
 11 31  1  0  0  0  0
 12 19  1  0  0  0  0
 12 32  1  0  0  0  0
 12 33  1  0  0  0  0
 13 34  1  0  0  0  0
 13 35  1  0  0  0  0
 14 19  2  0  0  0  0
 15 20  1  0  0  0  0
 15 36  1  0  0  0  0
 15 37  1  0  0  0  0
 16 17  1  0  0  0  0
 16 38  1  0  0  0  0
 16 39  1  0  0  0  0
 17 40  1  0  0  0  0
 17 41  1  0  0  0  0
 18 21  1  0  0  0  0
 18 22  2  0  0  0  0
 19 23  1  0  0  0  0
 21 24  2  0  0  0  0
 22 25  1  0  0  0  0
 22 43  1  0  0  0  0
 24 26  1  0  0  0  0
 24 44  1  0  0  0  0
 25 26  2  0  0  0  0
 25 45  1  0  0  0  0
 26 46  1  0  0  0  0
 27 47  1  0  0  0  0
 27 48  1  0  0  0  0
 27 49  1  0  0  0  0
M  END
> <PUBCHEM_COMPOUND_CID>
441984

> <PUBCHEM_COMPOUND_CANONICALIZED>
1

> <PUBCHEM_CACTVS_COMPLEXITY>
763

> <PUBCHEM_CACTVS_HBOND_ACCEPTOR>
6

> <PUBCHEM_CACTVS_HBOND_DONOR>
1

> <PUBCHEM_CACTVS_ROTATABLE_BOND>
2

> <PUBCHEM_CACTVS_SUBSKEYS>
AAADceB7OAAAAAAAAAAAAAAAAAAAAWLEgAA8QIAAAAAAAFiBAAAAHgAQAAAADjzhmAYyyIPABACIAiTSSACCAAAhAgAIiAEIZMgIJDLA8ZGGMAhmkADI6Ue+/f/fgAAAAAACAAAAAAAAAAQAAAAAAAAAAA==

> <PUBCHEM_IUPAC_INCHI>
InChI=1S/C21H22N2O4/c1-26-18(25)12-10-20-11-16(24)27-15(20)6-8-23-9-7-21(19(20)23)13-4-2-3-5-14(13)22-17(12)21/h2-5,15,19,22H,6-11H2,1H3/t15-,19-,20-,21-/m0/s1

> <PUBCHEM_IUPAC_INCHIKEY>
SXLKMYFJLWDXFU-ZEWNOJEFSA-N

> <PUBCHEM_XLOGP3_AA>
1.9

> <PUBCHEM_EXACT_MASS>
366.157957

> <PUBCHEM_MOLECULAR_FORMULA>
C21H22N2O4

> <PUBCHEM_MOLECULAR_WEIGHT>
366.41038

> <PUBCHEM_OPENEYE_CAN_SMILES>
COC(=O)C1=C2C3(CCN4C3C5(C1)CC(=O)OC5CC4)C6=CC=CC=C6N2

> <PUBCHEM_OPENEYE_ISO_SMILES>
COC(=O)C1=C2[C@]3(CCN4[C@H]3[C@@]5(C1)CC(=O)O[C@H]5CC4)C6=CC=CC=C6N2

> <PUBCHEM_CACTVS_TPSA>
67.9

> <PUBCHEM_MONOISOTOPIC_WEIGHT>
366.157957

> <PUBCHEM_TOTAL_CHARGE>
0

> <PUBCHEM_HEAVY_ATOM_COUNT>
27

> <PUBCHEM_ATOM_DEF_STEREO_COUNT>
4

> <PUBCHEM_ATOM_UDEF_STEREO_COUNT>
0

> <PUBCHEM_BOND_DEF_STEREO_COUNT>
0

> <PUBCHEM_BOND_UDEF_STEREO_COUNT>
0

> <PUBCHEM_ISOTOPIC_ATOM_COUNT>
0

> <PUBCHEM_COMPONENT_COUNT>
1

> <PUBCHEM_CACTVS_TAUTO_COUNT>
6

> <PUBCHEM_COORDINATE_TYPE>
1
5
255

> <PUBCHEM_BONDANNOTATIONS>
10  29  5
18  21  8
18  22  8
21  24  8
22  25  8
24  26  8
25  26  8
7  28  6
8  15  6
9  11  5

$$$$

