   Color/Form
        Off-white powder from methanol
   from [1]HSDB

   Melting Point
        253-255 deg C
   from [2]HSDB

   Dissociation Constants
        pKa1 = 9.07 (phenol); pKa2 = 10.06 (phenol); pKa3 = 11.56 (phenol)
   from [3]HSDB

   Octanol/Water Partition Coefficient
        log Kow = 3.08 (est)
   from [4]HSDB

   Solubilities

     * Very soluble in ethanol
     * In water, 16.9 mg/L at 25 deg C (est)

   from [5]HSDB

   Spectral Properties
        UV: 4-504 (Phillip et al., Organic Electronic Spectral Data, John
   Wiley & Sons, New York)
   from [6]HSDB

   Vapor Pressure
        1.24X10-9 mm Hg at 25 deg C (est)
   from [7]HSDB

   Other Chemical/Physical Properties

     * MP: 261 deg C (decomposes)
     * Henry's Law constant = 1.39X10-16 atm-cu m/mol at 25 deg C (est)
     * Hydroxyl radical reaction rate constant = 2.57X10-10 cu
       cm/molec-sec at 25 deg C (est)
     * Ozone radical reaction rate constant = 1.26X10-15 cu cm/molec-sec
       at 25 deg C (est)

   from [8]HSDB

   Computed Properties
   Molecular Weight                  228.24328 [g/mol]
   Molecular Formula                 C[14]H[12]O[3]
   XLogP3-AA                         3.1
   H-Bond Donor                      3
   H-Bond Acceptor                   3
   Rotatable Bond Count              2
   Tautomer Count                    25
   Exact Mass                        228.078644
   MonoIsotopic Mass                 228.078644
   Topological Polar Surface Area    60.7
   Heavy Atom Count                  17
   Formal Charge                     0
   Complexity                        246
   Isotope Atom Count                0
   Defined Atom Stereocenter Count   0
   Undefined Atom Stereocenter Count 0
   Defined Bond Stereocenter Count   1
   Undefined Bond Stereocenter Count 0
   Covalently-Bonded Unit Count      1
   Feature 3D Donor Count            3
   Feature 3D Ring Count             2
   Effective Rotor Count             2
   Conformer Sampling RMSD           0.6
   CID Conformer Count               [9]2

References

   1. http://toxnet.nlm.nih.gov/cgi-bin/sis/search/r?dbs+hsdb:@term+@rn+@rel+501-36-0
   2. http://toxnet.nlm.nih.gov/cgi-bin/sis/search/r?dbs+hsdb:@term+@rn+@rel+501-36-0
   3. http://toxnet.nlm.nih.gov/cgi-bin/sis/search/r?dbs+hsdb:@term+@rn+@rel+501-36-0
   4. http://toxnet.nlm.nih.gov/cgi-bin/sis/search/r?dbs+hsdb:@term+@rn+@rel+501-36-0
   5. http://toxnet.nlm.nih.gov/cgi-bin/sis/search/r?dbs+hsdb:@term+@rn+@rel+501-36-0
   6. http://toxnet.nlm.nih.gov/cgi-bin/sis/search/r?dbs+hsdb:@term+@rn+@rel+501-36-0
   7. http://toxnet.nlm.nih.gov/cgi-bin/sis/search/r?dbs+hsdb:@term+@rn+@rel+501-36-0
   8. http://toxnet.nlm.nih.gov/cgi-bin/sis/search/r?dbs+hsdb:@term+@rn+@rel+501-36-0
   9. http://pubchem.ncbi.nlm.nih.gov/vw3d/vw3d.cgi?cid=445154
