5321977
  -OEChem-07051213102D

 32 33  0     0  0  0  0  0  0999 V2000
    4.5981   -1.8367    0.0000 O   0  0  0  0  0  0  0  0  0  0  0  0
    8.1282    1.1875    0.0000 O   0  0  0  0  0  0  0  0  0  0  0  0
    6.3465   -1.8713    0.0000 O   0  0  0  0  0  0  0  0  0  0  0  0
    2.8660   -1.8367    0.0000 O   0  0  0  0  0  0  0  0  0  0  0  0
    5.4641   -0.3367    0.0000 C   0  0  0  0  0  0  0  0  0  0  0  0
    5.4641    0.6633    0.0000 C   0  0  0  0  0  0  0  0  0  0  0  0
    3.7320   -0.3367    0.0000 C   0  0  0  0  0  0  0  0  0  0  0  0
    3.7320    0.6633    0.0000 C   0  0  0  0  0  0  0  0  0  0  0  0
    4.5981   -0.8367    0.0000 C   0  0  0  0  0  0  0  0  0  0  0  0
    4.5981    1.1633    0.0000 C   0  0  0  0  0  0  0  0  0  0  0  0
    6.3580   -0.8713    0.0000 C   0  0  0  0  0  0  0  0  0  0  0  0
    6.3580    1.1980    0.0000 C   0  0  0  0  0  0  0  0  0  0  0  0
    7.2641    0.6841    0.0000 C   0  0  0  0  0  0  0  0  0  0  0  0
    7.2641   -0.3575    0.0000 C   0  0  0  0  0  0  0  0  0  0  0  0
    2.8660    1.1633    0.0000 C   0  0  0  0  0  0  0  0  0  0  0  0
    2.8660   -0.8367    0.0000 C   0  0  0  0  0  0  0  0  0  0  0  0
    2.0000   -0.3367    0.0000 C   0  0  0  0  0  0  0  0  0  0  0  0
    8.1244    2.1875    0.0000 C   0  0  0  0  0  0  0  0  0  0  0  0
    4.5981    1.7833    0.0000 H   0  0  0  0  0  0  0  0  0  0  0  0
    6.3509    1.8179    0.0000 H   0  0  0  0  0  0  0  0  0  0  0  0
    7.7998   -0.6696    0.0000 H   0  0  0  0  0  0  0  0  0  0  0  0
    3.1760    1.7003    0.0000 H   0  0  0  0  0  0  0  0  0  0  0  0
    2.3291    1.4733    0.0000 H   0  0  0  0  0  0  0  0  0  0  0  0
    2.5560    0.6264    0.0000 H   0  0  0  0  0  0  0  0  0  0  0  0
    2.3100    0.2003    0.0000 H   0  0  0  0  0  0  0  0  0  0  0  0
    1.4631   -0.0267    0.0000 H   0  0  0  0  0  0  0  0  0  0  0  0
    1.6900   -0.8736    0.0000 H   0  0  0  0  0  0  0  0  0  0  0  0
    4.0611   -2.1467    0.0000 H   0  0  0  0  0  0  0  0  0  0  0  0
    6.8798   -2.1875    0.0000 H   0  0  0  0  0  0  0  0  0  0  0  0
    8.7443    2.1898    0.0000 H   0  0  0  0  0  0  0  0  0  0  0  0
    8.1220    2.8075    0.0000 H   0  0  0  0  0  0  0  0  0  0  0  0
    7.5044    2.1851    0.0000 H   0  0  0  0  0  0  0  0  0  0  0  0
  1  9  1  0  0  0  0
  1 28  1  0  0  0  0
  2 13  1  0  0  0  0
  2 18  1  0  0  0  0
  3 11  1  0  0  0  0
  3 29  1  0  0  0  0
  4 16  2  0  0  0  0
  5  6  1  0  0  0  0
  5  9  1  0  0  0  0
  5 11  2  0  0  0  0
  6 10  1  0  0  0  0
  6 12  2  0  0  0  0
  7  8  1  0  0  0  0
  7  9  2  0  0  0  0
  7 16  1  0  0  0  0
  8 10  2  0  0  0  0
  8 15  1  0  0  0  0
 10 19  1  0  0  0  0
 11 14  1  0  0  0  0
 12 13  1  0  0  0  0
 12 20  1  0  0  0  0
 13 14  2  0  0  0  0
 14 21  1  0  0  0  0
 15 22  1  0  0  0  0
 15 23  1  0  0  0  0
 15 24  1  0  0  0  0
 16 17  1  0  0  0  0
 17 25  1  0  0  0  0
 17 26  1  0  0  0  0
 17 27  1  0  0  0  0
 18 30  1  0  0  0  0
 18 31  1  0  0  0  0
 18 32  1  0  0  0  0
M  END
> <PUBCHEM_COMPOUND_CID>
5321977

> <PUBCHEM_COMPOUND_CANONICALIZED>
1

> <PUBCHEM_CACTVS_COMPLEXITY>
317

> <PUBCHEM_CACTVS_HBOND_ACCEPTOR>
4

> <PUBCHEM_CACTVS_HBOND_DONOR>
2

> <PUBCHEM_CACTVS_ROTATABLE_BOND>
2

> <PUBCHEM_CACTVS_SUBSKEYS>
AAADccBwOAAAAAAAAAAAAAAAAAAAAAAAAAAwYAAAAAAAAADBUAAAGgAACAAADASAmAIyBsAABgCIAqBSAAACCAAkIAAAiAEGCMgMJzaGNRqAcWAl4BUIuQeI7PzO4AADCAAYAADAAAYQADAAAAAAAAAAAA==

> <PUBCHEM_IUPAC_OPENEYE_NAME>
1-(1,8-dihydroxy-6-methoxy-3-methyl-2-naphthyl)ethanone

> <PUBCHEM_IUPAC_CAS_NAME>
1-(1,8-dihydroxy-6-methoxy-3-methyl-2-naphthalenyl)ethanone

> <PUBCHEM_IUPAC_NAME>
1-(1,8-dihydroxy-6-methoxy-3-methylnaphthalen-2-yl)ethanone

> <PUBCHEM_IUPAC_SYSTEMATIC_NAME>
1-[6-methoxy-3-methyl-1,8-bis(oxidanyl)naphthalen-2-yl]ethanone

> <PUBCHEM_IUPAC_TRADITIONAL_NAME>
1-(1,8-dihydroxy-6-methoxy-3-methyl-2-naphthyl)ethanone

> <PUBCHEM_IUPAC_INCHI>
InChI=1S/C14H14O4/c1-7-4-9-5-10(18-3)6-11(16)13(9)14(17)12(7)8(2)15/h4-6,16-17H,1-3H3

> <PUBCHEM_IUPAC_INCHIKEY>
BIJOPUWEMBBDEG-UHFFFAOYSA-N

> <PUBCHEM_XLOGP3_AA>
3

> <PUBCHEM_EXACT_MASS>
246.089209

> <PUBCHEM_MOLECULAR_FORMULA>
C14H14O4

> <PUBCHEM_MOLECULAR_WEIGHT>
246.25856

> <PUBCHEM_OPENEYE_CAN_SMILES>
CC1=C(C(=C2C(=C1)C=C(C=C2O)OC)O)C(=O)C

> <PUBCHEM_OPENEYE_ISO_SMILES>
CC1=C(C(=C2C(=C1)C=C(C=C2O)OC)O)C(=O)C

> <PUBCHEM_CACTVS_TPSA>
66.8

> <PUBCHEM_MONOISOTOPIC_WEIGHT>
246.089209

> <PUBCHEM_TOTAL_CHARGE>
0

> <PUBCHEM_HEAVY_ATOM_COUNT>
18

> <PUBCHEM_ATOM_DEF_STEREO_COUNT>
0

> <PUBCHEM_ATOM_UDEF_STEREO_COUNT>
0

> <PUBCHEM_BOND_DEF_STEREO_COUNT>
0

> <PUBCHEM_BOND_UDEF_STEREO_COUNT>
0

> <PUBCHEM_ISOTOPIC_ATOM_COUNT>
0

> <PUBCHEM_COMPONENT_COUNT>
1

> <PUBCHEM_CACTVS_TAUTO_COUNT>
100

> <PUBCHEM_COORDINATE_TYPE>
1
5
255

> <PUBCHEM_BONDANNOTATIONS>
11  14  8
12  13  8
13  14  8
5  11  8
5  6  8
5  9  8
6  10  8
6  12  8
7  8  8
7  9  8
8  10  8

$$$$

