15183849
  -OEChem-07051213112D

 27 27  0     1  0  0  0  0  0999 V2000
    6.8671    0.3450    0.0000 O   0  0  0  0  0  0  0  0  0  0  0  0
    2.5369   -0.1550    0.0000 O   0  0  0  0  0  0  0  0  0  0  0  0
    3.4030    1.3450    0.0000 O   0  0  0  0  0  0  0  0  0  0  0  0
    9.4651   -0.1550    0.0000 O   0  0  0  0  0  0  0  0  0  0  0  0
    8.5991    1.3450    0.0000 O   0  0  0  0  0  0  0  0  0  0  0  0
    5.1350    1.3450    0.0000 N   0  0  0  0  0  0  0  0  0  0  0  0
    5.1350    0.3450    0.0000 C   0  0  2  0  0  0  0  0  0  0  0  0
    6.0010   -0.1550    0.0000 C   0  0  2  0  0  0  0  0  0  0  0  0
    4.2690   -0.1550    0.0000 C   0  0  0  0  0  0  0  0  0  0  0  0
    6.0010   -1.1550    0.0000 C   0  0  0  0  0  0  0  0  0  0  0  0
    4.2690   -1.1550    0.0000 C   0  0  0  0  0  0  0  0  0  0  0  0
    5.1350   -1.6550    0.0000 C   0  0  0  0  0  0  0  0  0  0  0  0
    3.4030    0.3450    0.0000 C   0  0  0  0  0  0  0  0  0  0  0  0
    7.7331   -0.1550    0.0000 C   0  0  0  0  0  0  0  0  0  0  0  0
    8.5991    0.3450    0.0000 C   0  0  0  0  0  0  0  0  0  0  0  0
    7.7331   -1.1550    0.0000 C   0  0  0  0  0  0  0  0  0  0  0  0
    5.6720    0.6550    0.0000 H   0  0  0  0  0  0  0  0  0  0  0  0
    6.5380   -0.4650    0.0000 H   0  0  0  0  0  0  0  0  0  0  0  0
    6.5380   -1.4650    0.0000 H   0  0  0  0  0  0  0  0  0  0  0  0
    3.7320   -1.4650    0.0000 H   0  0  0  0  0  0  0  0  0  0  0  0
    5.1350   -2.2750    0.0000 H   0  0  0  0  0  0  0  0  0  0  0  0
    5.6720    1.6550    0.0000 H   0  0  0  0  0  0  0  0  0  0  0  0
    4.5981    1.6550    0.0000 H   0  0  0  0  0  0  0  0  0  0  0  0
    2.0000    0.1550    0.0000 H   0  0  0  0  0  0  0  0  0  0  0  0
    7.1962   -1.4650    0.0000 H   0  0  0  0  0  0  0  0  0  0  0  0
    8.2700   -1.4650    0.0000 H   0  0  0  0  0  0  0  0  0  0  0  0
   10.0021    0.1550    0.0000 H   0  0  0  0  0  0  0  0  0  0  0  0
  8  1  1  1  0  0  0
  1 14  1  0  0  0  0
  2 13  1  0  0  0  0
  2 24  1  0  0  0  0
  3 13  2  0  0  0  0
  4 15  1  0  0  0  0
  4 27  1  0  0  0  0
  5 15  2  0  0  0  0
  7  6  1  6  0  0  0
  6 22  1  0  0  0  0
  6 23  1  0  0  0  0
  7  8  1  0  0  0  0
  7  9  1  0  0  0  0
  7 17  1  0  0  0  0
  8 10  1  0  0  0  0
  8 18  1  0  0  0  0
  9 11  2  0  0  0  0
  9 13  1  0  0  0  0
 10 12  2  0  0  0  0
 10 19  1  0  0  0  0
 11 12  1  0  0  0  0
 11 20  1  0  0  0  0
 12 21  1  0  0  0  0
 14 15  1  0  0  0  0
 14 16  2  0  0  0  0
 16 25  1  0  0  0  0
 16 26  1  0  0  0  0
M  END
> <PUBCHEM_COMPOUND_CID>
15183849

> <PUBCHEM_COMPOUND_CANONICALIZED>
1

> <PUBCHEM_CACTVS_COMPLEXITY>
396

> <PUBCHEM_CACTVS_HBOND_ACCEPTOR>
6

> <PUBCHEM_CACTVS_HBOND_DONOR>
3

> <PUBCHEM_CACTVS_ROTATABLE_BOND>
4

> <PUBCHEM_CACTVS_SUBSKEYS>
AAADccByOAAAAAAAAAAAAAAAAAAAAAAAAAAgAAAAAAAAAAAAAAAAHgAQCAAADDzhgAYACABABgCIAiDSCAKACAAgAAAICIFAAEgLBBoAIQQDUAAG0AALsYLKAAAAAAAAAAAAAAAAAAAAAAAAAAAAAAAAAA==

> <PUBCHEM_IUPAC_OPENEYE_NAME>
(5S,6S)-6-amino-5-(1-carboxyvinyloxy)cyclohexa-1,3-diene-1-carboxylic acid

> <PUBCHEM_IUPAC_CAS_NAME>
(5S,6S)-6-amino-5-(1-carboxyethenoxy)-1-cyclohexa-1,3-dienecarboxylic acid

> <PUBCHEM_IUPAC_NAME>
(5S,6S)-6-amino-5-(1-carboxyethenoxy)cyclohexa-1,3-diene-1-carboxylic acid

> <PUBCHEM_IUPAC_SYSTEMATIC_NAME>
(5S,6S)-6-azanyl-5-(3-oxidanyl-3-oxidanylidene-prop-1-en-2-yl)oxy-cyclohexa-1,3-diene-1-carboxylic acid

> <PUBCHEM_IUPAC_TRADITIONAL_NAME>
(5S,6S)-6-amino-5-(1-carboxyvinyloxy)cyclohexa-1,3-diene-1-carboxylic acid

> <PUBCHEM_IUPAC_INCHI>
InChI=1S/C10H11NO5/c1-5(9(12)13)16-7-4-2-3-6(8(7)11)10(14)15/h2-4,7-8H,1,11H2,(H,12,13)(H,14,15)/t7-,8-/m0/s1

> <PUBCHEM_IUPAC_INCHIKEY>
OKLGKGPAZUNROU-YUMQZZPRSA-N

> <PUBCHEM_XLOGP3_AA>
-1.8

> <PUBCHEM_EXACT_MASS>
225.063722

> <PUBCHEM_MOLECULAR_FORMULA>
C10H11NO5

> <PUBCHEM_MOLECULAR_WEIGHT>
225.19804

> <PUBCHEM_OPENEYE_CAN_SMILES>
C=C(C(=O)O)OC1C=CC=C(C1N)C(=O)O

> <PUBCHEM_OPENEYE_ISO_SMILES>
C=C(C(=O)O)O[C@H]1C=CC=C([C@@H]1N)C(=O)O

> <PUBCHEM_CACTVS_TPSA>
110

> <PUBCHEM_MONOISOTOPIC_WEIGHT>
225.063722

> <PUBCHEM_TOTAL_CHARGE>
0

> <PUBCHEM_HEAVY_ATOM_COUNT>
16

> <PUBCHEM_ATOM_DEF_STEREO_COUNT>
2

> <PUBCHEM_ATOM_UDEF_STEREO_COUNT>
0

> <PUBCHEM_BOND_DEF_STEREO_COUNT>
0

> <PUBCHEM_BOND_UDEF_STEREO_COUNT>
0

> <PUBCHEM_ISOTOPIC_ATOM_COUNT>
0

> <PUBCHEM_COMPONENT_COUNT>
1

> <PUBCHEM_CACTVS_TAUTO_COUNT>
1

> <PUBCHEM_COORDINATE_TYPE>
1
5
255

> <PUBCHEM_BONDANNOTATIONS>
8  1  5
7  6  6

$$$$

