101609
  -OEChem-07051212472D

 34 35  0     1  0  0  0  0  0999 V2000
    3.3328   -1.4908    0.0000 P   0  0  0  0  0  0  0  0  0  0  0  0
    6.6450   -1.1307    0.0000 O   0  0  0  0  0  0  0  0  0  0  0  0
    4.0759   -0.8216    0.0000 O   0  0  0  0  0  0  0  0  0  0  0  0
    4.7482   -2.8907    0.0000 O   0  0  0  0  0  0  0  0  0  0  0  0
    7.9183   -2.7862    0.0000 O   0  0  0  0  0  0  0  0  0  0  0  0
    2.5896   -2.1599    0.0000 O   0  0  0  0  0  0  0  0  0  0  0  0
    2.6637   -0.7476    0.0000 O   0  0  0  0  0  0  0  0  0  0  0  0
    4.1040    0.4571    0.0000 O   0  0  0  0  0  0  0  0  0  0  0  0
    4.0019   -2.2339    0.0000 O   0  0  0  0  0  0  0  0  0  0  0  0
    5.8360    3.4571    0.0000 O   0  0  0  0  0  0  0  0  0  0  0  0
    5.8360    0.4571    0.0000 N   0  0  0  0  0  0  0  0  0  0  0  0
    4.9700    1.9571    0.0000 N   0  0  0  0  0  0  0  0  0  0  0  0
    5.0270   -1.1307    0.0000 C   0  0  2  0  0  0  0  0  0  0  0  0
    5.3360   -2.0817    0.0000 C   0  0  1  0  0  0  0  0  0  0  0  0
    5.8360   -0.5429    0.0000 C   0  0  1  0  0  0  0  0  0  0  0  0
    6.3360   -2.0817    0.0000 C   0  0  1  0  0  0  0  0  0  0  0  0
    6.9238   -2.8907    0.0000 C   0  0  0  0  0  0  0  0  0  0  0  0
    4.9700    0.9571    0.0000 C   0  0  0  0  0  0  0  0  0  0  0  0
    6.7020    0.9571    0.0000 C   0  0  0  0  0  0  0  0  0  0  0  0
    6.7020    1.9571    0.0000 C   0  0  0  0  0  0  0  0  0  0  0  0
    5.8360    2.4571    0.0000 C   0  0  0  0  0  0  0  0  0  0  0  0
    4.5886   -1.5691    0.0000 H   0  0  0  0  0  0  0  0  0  0  0  0
    4.7236   -1.9847    0.0000 H   0  0  0  0  0  0  0  0  0  0  0  0
    5.2836   -0.2614    0.0000 H   0  0  0  0  0  0  0  0  0  0  0  0
    6.9484   -1.9847    0.0000 H   0  0  0  0  0  0  0  0  0  0  0  0
    6.3666   -3.1625    0.0000 H   0  0  0  0  0  0  0  0  0  0  0  0
    7.0947   -3.4867    0.0000 H   0  0  0  0  0  0  0  0  0  0  0  0
    5.0004   -3.4571    0.0000 H   0  0  0  0  0  0  0  0  0  0  0  0
    7.2390    0.6471    0.0000 H   0  0  0  0  0  0  0  0  0  0  0  0
    8.2828   -3.2878    0.0000 H   0  0  0  0  0  0  0  0  0  0  0  0
    4.4331    2.2671    0.0000 H   0  0  0  0  0  0  0  0  0  0  0  0
    7.2390    2.2671    0.0000 H   0  0  0  0  0  0  0  0  0  0  0  0
    2.0000   -1.9683    0.0000 H   0  0  0  0  0  0  0  0  0  0  0  0
    2.0572   -0.8765    0.0000 H   0  0  0  0  0  0  0  0  0  0  0  0
  1  3  1  0  0  0  0
  1  6  1  0  0  0  0
  1  7  1  0  0  0  0
  1  9  2  0  0  0  0
  2 15  1  0  0  0  0
  2 16  1  0  0  0  0
 13  3  1  1  0  0  0
 14  4  1  1  0  0  0
  4 28  1  0  0  0  0
  5 17  1  0  0  0  0
  5 30  1  0  0  0  0
  6 33  1  0  0  0  0
  7 34  1  0  0  0  0
  8 18  2  0  0  0  0
 10 21  2  0  0  0  0
 15 11  1  6  0  0  0
 11 18  1  0  0  0  0
 11 19  1  0  0  0  0
 12 18  1  0  0  0  0
 12 21  1  0  0  0  0
 12 31  1  0  0  0  0
 13 14  1  0  0  0  0
 13 15  1  0  0  0  0
 13 22  1  0  0  0  0
 14 16  1  0  0  0  0
 14 23  1  0  0  0  0
 15 24  1  0  0  0  0
 16 17  1  6  0  0  0
 16 25  1  0  0  0  0
 17 26  1  0  0  0  0
 17 27  1  0  0  0  0
 19 20  2  0  0  0  0
 19 29  1  0  0  0  0
 20 21  1  0  0  0  0
 20 32  1  0  0  0  0
M  END
> <PUBCHEM_COMPOUND_CID>
101609

> <PUBCHEM_COMPOUND_CANONICALIZED>
1

> <PUBCHEM_CACTVS_COMPLEXITY>
517

> <PUBCHEM_CACTVS_HBOND_ACCEPTOR>
9

> <PUBCHEM_CACTVS_HBOND_DONOR>
5

> <PUBCHEM_CACTVS_ROTATABLE_BOND>
4

> <PUBCHEM_CACTVS_SUBSKEYS>
AAADccBzPAIAAAAAAAAAAAAAAAAAASAAAAAgAAAAAAAAAAAAAAAAHgAQCCAACBThgAYBAAPABxCIQCFWUICAAAAAAgAIAAAIAECDEAIAgAAOQAAPFyITAMDwMAIAAAAAAAAAAAAAAAAAAAAAAAAAAAAAAA==

> <PUBCHEM_IUPAC_OPENEYE_NAME>
[(2R,3R,4R,5R)-2-(2,4-dioxopyrimidin-1-yl)-4-hydroxy-5-(hydroxymethyl)tetrahydrofuran-3-yl] dihydrogen phosphate

> <PUBCHEM_IUPAC_CAS_NAME>
[(2R,3R,4R,5R)-2-(2,4-dioxo-1-pyrimidinyl)-4-hydroxy-5-(hydroxymethyl)-3-oxolanyl] dihydrogen phosphate

> <PUBCHEM_IUPAC_NAME>
[(2R,3R,4R,5R)-2-(2,4-dioxopyrimidin-1-yl)-4-hydroxy-5-(hydroxymethyl)oxolan-3-yl] dihydrogen phosphate

> <PUBCHEM_IUPAC_SYSTEMATIC_NAME>
[(2R,3R,4R,5R)-2-[2,4-bis(oxidanylidene)pyrimidin-1-yl]-5-(hydroxymethyl)-4-oxidanyl-oxolan-3-yl] dihydrogen phosphate

> <PUBCHEM_IUPAC_TRADITIONAL_NAME>
[(2R,3R,4R,5R)-2-(2,4-diketopyrimidin-1-yl)-4-hydroxy-5-methylol-tetrahydrofuran-3-yl] dihydrogen phosphate

> <PUBCHEM_IUPAC_INCHI>
InChI=1S/C9H13N2O9P/c12-3-4-6(14)7(20-21(16,17)18)8(19-4)11-2-1-5(13)10-9(11)15/h1-2,4,6-8,12,14H,3H2,(H,10,13,15)(H2,16,17,18)/t4-,6-,7-,8-/m1/s1

> <PUBCHEM_IUPAC_INCHIKEY>
HQIDPEYTETUCNF-XVFCMESISA-N

> <PUBCHEM_XLOGP3>
-3.1

> <PUBCHEM_EXACT_MASS>
324.035867

> <PUBCHEM_MOLECULAR_FORMULA>
C9H13N2O9P

> <PUBCHEM_MOLECULAR_WEIGHT>
324.181282

> <PUBCHEM_OPENEYE_CAN_SMILES>
C1=CN(C(=O)NC1=O)C2C(C(C(O2)CO)O)OP(=O)(O)O

> <PUBCHEM_OPENEYE_ISO_SMILES>
C1=CN(C(=O)NC1=O)[C@H]2[C@@H]([C@@H]([C@H](O2)CO)O)OP(=O)(O)O

> <PUBCHEM_CACTVS_TPSA>
166

> <PUBCHEM_MONOISOTOPIC_WEIGHT>
324.035867

> <PUBCHEM_TOTAL_CHARGE>
0

> <PUBCHEM_HEAVY_ATOM_COUNT>
21

> <PUBCHEM_ATOM_DEF_STEREO_COUNT>
4

> <PUBCHEM_ATOM_UDEF_STEREO_COUNT>
0

> <PUBCHEM_BOND_DEF_STEREO_COUNT>
0

> <PUBCHEM_BOND_UDEF_STEREO_COUNT>
0

> <PUBCHEM_ISOTOPIC_ATOM_COUNT>
0

> <PUBCHEM_COMPONENT_COUNT>
1

> <PUBCHEM_CACTVS_TAUTO_COUNT>
3

> <PUBCHEM_COORDINATE_TYPE>
1
5
255

> <PUBCHEM_BONDANNOTATIONS>
15  11  6
11  18  8
11  19  8
12  18  8
12  21  8
16  17  6
19  20  8
20  21  8
13  3  5
14  4  5

$$$$

