   Color/Form

     * Colorless crystals
     * WHITE TO TAN, CRYSTALLINE SOLID

   from [1]HSDB

   Odor

     * ODORLESS
     * Faint phenolic odor

   from [2]HSDB

   Melting Point
        117.5 deg C
   from [3]HSDB

   Corrosivity
        CORROSIVE TO METALS IN PRESENCE OF WATER; CONCN SOLN (480 G AE/L)
   DOES NOT CORRODE IRON OR TIN PLATE OF IRON IF PH IS GREATER THAN OR
   EQUAL TO 8.6 & TEMP LESS THAN 70 DEG C.
   from [4]HSDB

   Density/Specific Gravity
        1.42
   from [5]HSDB

   Dissociation Constants
        pKa = 3.10
   from [6]HSDB

   Octanol/Water Partition Coefficient
        log Kow = 3.43
   from [7]HSDB

   Solubilities

     * In acetone 595, isopropanol 510, benzene 85, toluene 69, xylene 51,
       kerosene 2.1 (all in g/L, 20 deg C).
     * Chloroform 10.8, ether 82.1, ethanol more than 100 (all in g/100 g
       at 20 deg C)
     * Heptane 0.5% wt/vol
     * Soluble in ethanol, ether; very soluble in ligroin
     * In water, 350 mg/L at 20 deg C

   from [8]HSDB

   Spectral Properties

     * Intense mass spectral peaks: 162 m/z (100%), 164 m/z (63%), 45 m/z
       (21%), 234 m/z (16%)
     * Intense mass spectral peaks: 111 m/z, 145 m/z, 175 m/z, 199 m/z
     * MASS: 11279 (NIST/EPA/MSDC Mass Spectral database, 1990 version)
     * IR: u 1963 (Coblentz Society spectral collection) /spectrum
       converted from micrometers to wavenumbers /
     * UV: 18314 (Sadtler Research Laboratories spectral collection)

   from [9]HSDB

   Vapor Pressure
        7.50X10-8 mm Hg at 20 deg C
   from [10]HSDB

   Other Chemical/Physical Properties

     * Yellowish-to-colorless solid /Technical/
     * Brown powder with a phenolic odor. MP 114 deg C /Technical/
     * The esters are hydrolyzed on warming with acids or alkalis
       /Dichlorprop butotyl/
     * Clear, brown-orange liquid with a faint, slightly pungent odor. MP
       less than 37 deg C; VP 0.45 mPa at 20 deg C; Specific gravity about
       1.12; Stability Stable after 14 days at 54 deg C in the presence of
       metals. Some degradation over 14 days in sunlight
       /Dichlorprop-isoctyl/
     * Solubility in water 900 g acid equivalent/L at 20 deg C
       /Dichlorprop-potassium/
     * Solubility in water, 660 g acid equivalent/L at 20 deg C /Sodium
       salt/
     * Solubility in water, 740 g acid equivalent/L at 20 deg C
       /Diethanolamine salt/
     * Henry's Law constant = 8.68X10-11 atm-cu m/mol at 20 deg C (est)
     * Hydroxyl radical reaction rate constant = 1.14X10-11 cu
       cm/molec-sec at 25 deg C (est)

   from [11]HSDB

   Computed Properties
   Molecular Weight                  235.06402 [g/mol]
   Molecular Formula                 C[9]H[8]Cl[2]O[3]
   XLogP3                            3.4
   H-Bond Donor                      1
   H-Bond Acceptor                   3
   Rotatable Bond Count              3
   Exact Mass                        233.985049
   MonoIsotopic Mass                 233.985049
   Topological Polar Surface Area    46.5
   Heavy Atom Count                  14
   Formal Charge                     0
   Complexity                        210
   Isotope Atom Count                0
   Defined Atom Stereocenter Count   0
   Undefined Atom Stereocenter Count 1
   Defined Bond Stereocenter Count   0
   Undefined Bond Stereocenter Count 0
   Covalently-Bonded Unit Count      1
   Feature 3D Acceptor Count         3
   Feature 3D Anion Count            1
   Feature 3D Ring Count             1
   Effective Rotor Count             3
   Conformer Sampling RMSD           0.6
   CID Conformer Count               [12]28

References

   1. http://toxnet.nlm.nih.gov/cgi-bin/sis/search/r?dbs+hsdb:@term+@rn+@rel+120-36-5
   2. http://toxnet.nlm.nih.gov/cgi-bin/sis/search/r?dbs+hsdb:@term+@rn+@rel+120-36-5
   3. http://toxnet.nlm.nih.gov/cgi-bin/sis/search/r?dbs+hsdb:@term+@rn+@rel+120-36-5
   4. http://toxnet.nlm.nih.gov/cgi-bin/sis/search/r?dbs+hsdb:@term+@rn+@rel+120-36-5
   5. http://toxnet.nlm.nih.gov/cgi-bin/sis/search/r?dbs+hsdb:@term+@rn+@rel+120-36-5
   6. http://toxnet.nlm.nih.gov/cgi-bin/sis/search/r?dbs+hsdb:@term+@rn+@rel+120-36-5
   7. http://toxnet.nlm.nih.gov/cgi-bin/sis/search/r?dbs+hsdb:@term+@rn+@rel+120-36-5
   8. http://toxnet.nlm.nih.gov/cgi-bin/sis/search/r?dbs+hsdb:@term+@rn+@rel+120-36-5
   9. http://toxnet.nlm.nih.gov/cgi-bin/sis/search/r?dbs+hsdb:@term+@rn+@rel+120-36-5
  10. http://toxnet.nlm.nih.gov/cgi-bin/sis/search/r?dbs+hsdb:@term+@rn+@rel+120-36-5
  11. http://toxnet.nlm.nih.gov/cgi-bin/sis/search/r?dbs+hsdb:@term+@rn+@rel+120-36-5
  12. http://pubchem.ncbi.nlm.nih.gov/vw3d/vw3d.cgi?cid=8427
