23724755
  -OEChem-07051213082D

 52 54  0     1  0  0  0  0  0999 V2000
    5.1350    2.5950    0.0000 O   0  0  0  0  0  0  0  0  0  0  0  0
    4.2690    1.0950    0.0000 O   0  0  0  0  0  0  0  0  0  0  0  0
    2.5369    4.0950    0.0000 O   0  0  0  0  0  0  0  0  0  0  0  0
    4.2690    5.0950    0.0000 O   0  0  0  0  0  0  0  0  0  0  0  0
    2.5369    2.0950    0.0000 O   0  0  0  0  0  0  0  0  0  0  0  0
    6.8671    3.5950    0.0000 O   0  0  0  0  0  0  0  0  0  0  0  0
    6.8671   -2.4050    0.0000 N   0  0  0  0  0  0  0  0  0  0  0  0
    6.0010   -3.9050    0.0000 N   0  0  0  0  0  0  0  0  0  0  0  0
    8.6793   -3.6003    0.0000 N   0  0  0  0  0  0  0  0  0  0  0  0
    6.8671   -5.4050    0.0000 N   0  0  0  0  0  0  0  0  0  0  0  0
    8.6793   -5.2097    0.0000 N   0  0  0  0  0  0  0  0  0  0  0  0
    3.4030    3.5950    0.0000 C   0  0  1  0  0  0  0  0  0  0  0  0
    4.2690    4.0950    0.0000 C   0  0  1  0  0  0  0  0  0  0  0  0
    3.4030    2.5950    0.0000 C   0  0  2  0  0  0  0  0  0  0  0  0
    5.1350    3.5950    0.0000 C   0  0  1  0  0  0  0  0  0  0  0  0
    4.2690    2.0950    0.0000 C   0  0  1  0  0  0  0  0  0  0  0  0
    6.0010    4.0950    0.0000 C   0  0  0  0  0  0  0  0  0  0  0  0
    5.1350   -0.4050    0.0000 C   0  0  3  0  0  0  0  0  0  0  0  0
    5.1350    0.5950    0.0000 C   0  0  0  0  0  0  0  0  0  0  0  0
    6.0010   -0.9050    0.0000 C   0  0  0  0  0  0  0  0  0  0  0  0
    4.2690   -0.9050    0.0000 C   0  0  0  0  0  0  0  0  0  0  0  0
    6.0010   -1.9050    0.0000 C   0  0  0  0  0  0  0  0  0  0  0  0
    6.8671   -3.4050    0.0000 C   0  0  0  0  0  0  0  0  0  0  0  0
    7.7331   -3.9050    0.0000 C   0  0  0  0  0  0  0  0  0  0  0  0
    7.7331   -4.9050    0.0000 C   0  0  0  0  0  0  0  0  0  0  0  0
    6.0010   -4.9050    0.0000 C   0  0  0  0  0  0  0  0  0  0  0  0
    9.2629   -4.4050    0.0000 C   0  0  0  0  0  0  0  0  0  0  0  0
    3.4030    4.2150    0.0000 H   0  0  0  0  0  0  0  0  0  0  0  0
    4.8059    4.4050    0.0000 H   0  0  0  0  0  0  0  0  0  0  0  0
    3.4030    1.9750    0.0000 H   0  0  0  0  0  0  0  0  0  0  0  0
    5.6720    3.2850    0.0000 H   0  0  0  0  0  0  0  0  0  0  0  0
    3.7320    1.7850    0.0000 H   0  0  0  0  0  0  0  0  0  0  0  0
    5.1350   -1.0250    0.0000 H   0  0  0  0  0  0  0  0  0  0  0  0
    6.3996    4.5700    0.0000 H   0  0  0  0  0  0  0  0  0  0  0  0
    5.6025    4.5700    0.0000 H   0  0  0  0  0  0  0  0  0  0  0  0
    5.7456    0.4873    0.0000 H   0  0  0  0  0  0  0  0  0  0  0  0
    5.3471    1.1776    0.0000 H   0  0  0  0  0  0  0  0  0  0  0  0
    6.6116   -1.0127    0.0000 H   0  0  0  0  0  0  0  0  0  0  0  0
    6.2131   -0.3224    0.0000 H   0  0  0  0  0  0  0  0  0  0  0  0
    2.5369    4.7150    0.0000 H   0  0  0  0  0  0  0  0  0  0  0  0
    4.8059    5.4050    0.0000 H   0  0  0  0  0  0  0  0  0  0  0  0
    2.0000    2.4050    0.0000 H   0  0  0  0  0  0  0  0  0  0  0  0
    3.9590   -0.3681    0.0000 H   0  0  0  0  0  0  0  0  0  0  0  0
    3.7320   -1.2150    0.0000 H   0  0  0  0  0  0  0  0  0  0  0  0
    4.5790   -1.4419    0.0000 H   0  0  0  0  0  0  0  0  0  0  0  0
    5.3905   -1.7973    0.0000 H   0  0  0  0  0  0  0  0  0  0  0  0
    5.7890   -2.4876    0.0000 H   0  0  0  0  0  0  0  0  0  0  0  0
    7.4040    3.9050    0.0000 H   0  0  0  0  0  0  0  0  0  0  0  0
    7.4040   -2.0950    0.0000 H   0  0  0  0  0  0  0  0  0  0  0  0
    8.8719   -3.0109    0.0000 H   0  0  0  0  0  0  0  0  0  0  0  0
    5.4641   -5.2150    0.0000 H   0  0  0  0  0  0  0  0  0  0  0  0
    9.8829   -4.4050    0.0000 H   0  0  0  0  0  0  0  0  0  0  0  0
  1 15  1  0  0  0  0
  1 16  1  0  0  0  0
 16  2  1  1  0  0  0
  2 19  1  0  0  0  0
 12  3  1  1  0  0  0
  3 40  1  0  0  0  0
 13  4  1  6  0  0  0
  4 41  1  0  0  0  0
 14  5  1  6  0  0  0
  5 42  1  0  0  0  0
  6 17  1  0  0  0  0
  6 48  1  0  0  0  0
  7 22  1  0  0  0  0
  7 23  1  0  0  0  0
  7 49  1  0  0  0  0
  8 23  2  0  0  0  0
  8 26  1  0  0  0  0
  9 24  1  0  0  0  0
  9 27  1  0  0  0  0
  9 50  1  0  0  0  0
 10 25  1  0  0  0  0
 10 26  2  0  0  0  0
 11 25  1  0  0  0  0
 11 27  2  0  0  0  0
 12 13  1  0  0  0  0
 12 14  1  0  0  0  0
 12 28  1  0  0  0  0
 13 15  1  0  0  0  0
 13 29  1  0  0  0  0
 14 16  1  0  0  0  0
 14 30  1  0  0  0  0
 15 17  1  1  0  0  0
 15 31  1  0  0  0  0
 16 32  1  0  0  0  0
 17 34  1  0  0  0  0
 17 35  1  0  0  0  0
 18 19  1  0  0  0  0
 18 20  1  0  0  0  0
 18 21  1  0  0  0  0
 18 33  1  0  0  0  0
 19 36  1  0  0  0  0
 19 37  1  0  0  0  0
 20 22  1  0  0  0  0
 20 38  1  0  0  0  0
 20 39  1  0  0  0  0
 21 43  1  0  0  0  0
 21 44  1  0  0  0  0
 21 45  1  0  0  0  0
 22 46  1  0  0  0  0
 22 47  1  0  0  0  0
 23 24  1  0  0  0  0
 24 25  2  0  0  0  0
 26 51  1  0  0  0  0
 27 52  1  0  0  0  0
M  END
> <PUBCHEM_COMPOUND_CID>
23724755

> <PUBCHEM_COMPOUND_CANONICALIZED>
1

> <PUBCHEM_CACTVS_COMPLEXITY>
463

> <PUBCHEM_CACTVS_HBOND_ACCEPTOR>
10

> <PUBCHEM_CACTVS_HBOND_DONOR>
6

> <PUBCHEM_CACTVS_ROTATABLE_BOND>
8

> <PUBCHEM_CACTVS_SUBSKEYS>
AAADceB7uAAAAAAAAAAAAAAAAAAAAWAAAAAsSAAAAAAAAFgB+AAAHgAQCAAADRzxlwcH+L7JlgCgAQZhZACAgC2REKABUaAoVBCRWAJAyEA2RAgNEALHACHgYAwIAAAAAAAAAAAAAAAAAAAAAAAAAAAAAA==

> <PUBCHEM_IUPAC_OPENEYE_NAME>
(2R,3S,4S,5R,6R)-2-(hydroxymethyl)-6-[2-methyl-4-(7H-purin-6-ylamino)butoxy]tetrahydropyran-3,4,5-triol

> <PUBCHEM_IUPAC_CAS_NAME>
(2R,3S,4S,5R,6R)-2-(hydroxymethyl)-6-[2-methyl-4-(7H-purin-6-ylamino)butoxy]oxane-3,4,5-triol

> <PUBCHEM_IUPAC_NAME>
(2R,3S,4S,5R,6R)-2-(hydroxymethyl)-6-[2-methyl-4-(7H-purin-6-ylamino)butoxy]oxane-3,4,5-triol

> <PUBCHEM_IUPAC_SYSTEMATIC_NAME>
(2R,3S,4S,5R,6R)-2-(hydroxymethyl)-6-[2-methyl-4-(7H-purin-6-ylamino)butoxy]oxane-3,4,5-triol

> <PUBCHEM_IUPAC_TRADITIONAL_NAME>
(2R,3S,4S,5R,6R)-2-methylol-6-[2-methyl-4-(7H-purin-6-ylamino)butoxy]tetrahydropyran-3,4,5-triol

> <PUBCHEM_IUPAC_INCHI>
InChI=1S/C16H25N5O6/c1-8(2-3-17-14-10-15(19-6-18-10)21-7-20-14)5-26-16-13(25)12(24)11(23)9(4-22)27-16/h6-9,11-13,16,22-25H,2-5H2,1H3,(H2,17,18,19,20,21)/t8?,9-,11-,12+,13-,16-/m1/s1

> <PUBCHEM_IUPAC_INCHIKEY>
QRZHDHJUYBONQQ-UFZVAZPKSA-N

> <PUBCHEM_XLOGP3_AA>
-0.7

> <PUBCHEM_EXACT_MASS>
383.180484

> <PUBCHEM_MOLECULAR_FORMULA>
C16H25N5O6

> <PUBCHEM_MOLECULAR_WEIGHT>
383.3996

> <PUBCHEM_OPENEYE_CAN_SMILES>
CC(CCNC1=NC=NC2=C1NC=N2)COC3C(C(C(C(O3)CO)O)O)O

> <PUBCHEM_OPENEYE_ISO_SMILES>
CC(CCNC1=NC=NC2=C1NC=N2)CO[C@H]3[C@@H]([C@H]([C@@H]([C@H](O3)CO)O)O)O

> <PUBCHEM_CACTVS_TPSA>
166

> <PUBCHEM_MONOISOTOPIC_WEIGHT>
383.180484

> <PUBCHEM_TOTAL_CHARGE>
0

> <PUBCHEM_HEAVY_ATOM_COUNT>
27

> <PUBCHEM_ATOM_DEF_STEREO_COUNT>
5

> <PUBCHEM_ATOM_UDEF_STEREO_COUNT>
1

> <PUBCHEM_BOND_DEF_STEREO_COUNT>
0

> <PUBCHEM_BOND_UDEF_STEREO_COUNT>
0

> <PUBCHEM_ISOTOPIC_ATOM_COUNT>
0

> <PUBCHEM_COMPONENT_COUNT>
1

> <PUBCHEM_CACTVS_TAUTO_COUNT>
8

> <PUBCHEM_COORDINATE_TYPE>
1
5
255

> <PUBCHEM_BONDANNOTATIONS>
10  25  8
10  26  8
11  25  8
11  27  8
15  17  5
18  21  3
16  2  5
23  24  8
24  25  8
12  3  5
13  4  6
14  5  6
8  23  8
8  26  8
9  24  8
9  27  8

$$$$

