12306850
  -OEChem-07051212572D

 43 46  0     1  0  0  0  0  0999 V2000
    3.1185    0.2231    0.0000 O   0  0  0  0  0  0  0  0  0  0  0  0
    5.7035    1.3953    0.0000 O   0  0  0  0  0  0  0  0  0  0  0  0
    2.0588    0.4714    0.0000 O   0  0  0  0  0  0  0  0  0  0  0  0
    3.5969    2.3612    0.0000 O   0  0  0  0  0  0  0  0  0  0  0  0
    2.5124   -1.9245    0.0000 O   0  0  0  0  0  0  0  0  0  0  0  0
    6.4106   -1.1596    0.0000 O   0  0  0  0  0  0  0  0  0  0  0  0
    2.0000   -0.8786    0.0000 O   0  0  0  0  0  0  0  0  0  0  0  0
    7.0862    0.4714    0.0000 O   0  0  0  0  0  0  0  0  0  0  0  0
    4.7796   -0.8352    0.0000 C   0  0  2  0  0  0  0  0  0  0  0  0
    3.8558   -0.4525    0.0000 C   0  0  2  0  0  0  0  0  0  0  0  0
    3.4731    0.4714    0.0000 C   0  0  1  0  0  0  0  0  0  0  0  0
    4.6991   -1.8260    0.0000 C   0  0  1  0  0  0  0  0  0  0  0  0
    3.8558    1.3953    0.0000 C   0  0  2  0  0  0  0  0  0  0  0  0
    4.4136    0.4714    0.0000 C   0  0  0  0  0  0  0  0  0  0  0  0
    3.2121   -1.2101    0.0000 C   0  0  1  0  0  0  0  0  0  0  0  0
    4.7796    1.7780    0.0000 C   0  0  2  0  0  0  0  0  0  0  0  0
    3.7322   -2.0572    0.0000 C   0  0  0  0  0  0  0  0  0  0  0  0
    5.7035   -0.4525    0.0000 C   0  0  2  0  0  0  0  0  0  0  0  0
    2.7660    1.1785    0.0000 C   0  0  0  0  0  0  0  0  0  0  0  0
    2.7660   -0.2357    0.0000 C   0  0  0  0  0  0  0  0  0  0  0  0
    5.4583   -2.4767    0.0000 C   0  0  0  0  0  0  0  0  0  0  0  0
    2.9494    1.8179    0.0000 C   0  0  0  0  0  0  0  0  0  0  0  0
    6.0862    0.4714    0.0000 C   0  0  0  0  0  0  0  0  0  0  0  0
    4.5535   -2.4287    0.0000 H   0  0  0  0  0  0  0  0  0  0  0  0
    3.9071    0.8289    0.0000 H   0  0  0  0  0  0  0  0  0  0  0  0
    5.0336    0.4714    0.0000 H   0  0  0  0  0  0  0  0  0  0  0  0
    2.7541   -0.7922    0.0000 H   0  0  0  0  0  0  0  0  0  0  0  0
    4.7796    2.6280    0.0000 H   0  0  0  0  0  0  0  0  0  0  0  0
    3.1727   -2.3243    0.0000 H   0  0  0  0  0  0  0  0  0  0  0  0
    3.9390   -2.6417    0.0000 H   0  0  0  0  0  0  0  0  0  0  0  0
    6.3116   -0.3315    0.0000 H   0  0  0  0  0  0  0  0  0  0  0  0
    3.2044    1.6169    0.0000 H   0  0  0  0  0  0  0  0  0  0  0  0
    2.3276    1.6169    0.0000 H   0  0  0  0  0  0  0  0  0  0  0  0
    5.0549   -2.9475    0.0000 H   0  0  0  0  0  0  0  0  0  0  0  0
    5.9291   -2.8802    0.0000 H   0  0  0  0  0  0  0  0  0  0  0  0
    5.8618   -2.0060    0.0000 H   0  0  0  0  0  0  0  0  0  0  0  0
    2.5956    0.5563    0.0000 H   0  0  0  0  0  0  0  0  0  0  0  0
    3.2115    2.3798    0.0000 H   0  0  0  0  0  0  0  0  0  0  0  0
    2.3875    2.0799    0.0000 H   0  0  0  0  0  0  0  0  0  0  0  0
    2.6874    1.2560    0.0000 H   0  0  0  0  0  0  0  0  0  0  0  0
    2.9980    2.5217    0.0000 H   0  0  0  0  0  0  0  0  0  0  0  0
    2.6791   -2.5217    0.0000 H   0  0  0  0  0  0  0  0  0  0  0  0
    7.0095   -0.9991    0.0000 H   0  0  0  0  0  0  0  0  0  0  0  0
 10  1  1  1  0  0  0
  1 37  1  0  0  0  0
  2 16  1  0  0  0  0
  2 23  1  0  0  0  0
  3 19  1  0  0  0  0
  3 20  1  0  0  0  0
 13  4  1  1  0  0  0
  4 41  1  0  0  0  0
 15  5  1  1  0  0  0
  5 42  1  0  0  0  0
 18  6  1  6  0  0  0
  6 43  1  0  0  0  0
  7 20  2  0  0  0  0
  8 23  2  0  0  0  0
  9 10  1  0  0  0  0
  9 12  1  0  0  0  0
  9 14  1  1  0  0  0
  9 18  1  0  0  0  0
 10 11  1  0  0  0  0
 10 15  1  0  0  0  0
 11 13  1  0  0  0  0
 11 19  1  6  0  0  0
 11 20  1  0  0  0  0
 12 17  1  0  0  0  0
 12 21  1  6  0  0  0
 12 24  1  0  0  0  0
 13 16  1  0  0  0  0
 13 22  1  0  0  0  0
 14 16  1  0  0  0  0
 14 25  1  0  0  0  0
 14 26  1  0  0  0  0
 15 17  1  0  0  0  0
 15 27  1  0  0  0  0
 16 28  1  6  0  0  0
 17 29  1  0  0  0  0
 17 30  1  0  0  0  0
 18 23  1  0  0  0  0
 18 31  1  0  0  0  0
 19 32  1  0  0  0  0
 19 33  1  0  0  0  0
 21 34  1  0  0  0  0
 21 35  1  0  0  0  0
 21 36  1  0  0  0  0
 22 38  1  0  0  0  0
 22 39  1  0  0  0  0
 22 40  1  0  0  0  0
M  END
> <PUBCHEM_COMPOUND_CID>
12306850

> <PUBCHEM_COMPOUND_CANONICALIZED>
1

> <PUBCHEM_CACTVS_COMPLEXITY>
621

> <PUBCHEM_CACTVS_HBOND_ACCEPTOR>
8

> <PUBCHEM_CACTVS_HBOND_DONOR>
4

> <PUBCHEM_CACTVS_ROTATABLE_BOND>
0

> <PUBCHEM_CACTVS_SUBSKEYS>
AAADceBwPAAAAAAAAAAAAAAAAABIAYAAAAA0QAAAAAASAGAAAAAAGgAACAAAD1SggAICCAAABgAIAACQCAIAAAAAAAAAAAFAAAABEBYAAAACQAAFIAADAAHK7PzPgAAAAAAAAADCAAYQADCAAYAADCAAAA==

> <PUBCHEM_IUPAC_INCHI>
InChI=1S/C15H20O8/c1-6-3-7(16)15(21)13(6)4-8(23-10(18)9(13)17)12(2,20)14(15)5-22-11(14)19/h6-9,16-17,20-21H,3-5H2,1-2H3/t6-,7-,8+,9+,12+,13+,14+,15-/m1/s1

> <PUBCHEM_IUPAC_INCHIKEY>
GEVWHIDSUOMVRI-UMRKJVLKSA-N

> <PUBCHEM_XLOGP3_AA>
-1.9

> <PUBCHEM_EXACT_MASS>
328.115818

> <PUBCHEM_MOLECULAR_FORMULA>
C15H20O8

> <PUBCHEM_MOLECULAR_WEIGHT>
328.3145

> <PUBCHEM_OPENEYE_CAN_SMILES>
CC1CC(C2(C13CC(C(C24COC4=O)(C)O)OC(=O)C3O)O)O

> <PUBCHEM_OPENEYE_ISO_SMILES>
C[C@@H]1C[C@H]([C@]2([C@@]13C[C@@H]([C@]([C@@]24COC4=O)(C)O)OC(=O)[C@@H]3O)O)O

> <PUBCHEM_CACTVS_TPSA>
134

> <PUBCHEM_MONOISOTOPIC_WEIGHT>
328.115818

> <PUBCHEM_TOTAL_CHARGE>
0

> <PUBCHEM_HEAVY_ATOM_COUNT>
23

> <PUBCHEM_ATOM_DEF_STEREO_COUNT>
8

> <PUBCHEM_ATOM_UDEF_STEREO_COUNT>
0

> <PUBCHEM_BOND_DEF_STEREO_COUNT>
0

> <PUBCHEM_BOND_UDEF_STEREO_COUNT>
0

> <PUBCHEM_ISOTOPIC_ATOM_COUNT>
0

> <PUBCHEM_COMPONENT_COUNT>
1

> <PUBCHEM_CACTVS_TAUTO_COUNT>
3

> <PUBCHEM_COORDINATE_TYPE>
1
5
255

> <PUBCHEM_BONDANNOTATIONS>
10  1  5
11  19  6
12  21  6
16  28  6
13  4  5
15  5  5
18  6  6
9  14  5

$$$$

