   Color/Form

     * Hygroscopic leaflets from petroleum ether
     * White, crystalline solid or flakes ... [Note: Significant vapor
       concentrations would be expected only at elevated temperatures].
     * White flakes or fused

   from [1]HSDB

   Odor
        ... Unpleasant odor ...
   from [2]HSDB

   Taste
        UNPLEASANT
   from [3]HSDB

   Boiling Point
        270 deg C
   from [4]HSDB

   Melting Point
        69.3 deg C
   from [5]HSDB

   Density/Specific Gravity
        Specific gravity: 1.02 at 75 deg C/4 deg C (liq)
   from [6]HSDB

   Heat of Combustion
        -31,900 J/g (liquid @ 25 deg C)
   from [7]HSDB

   Heat of Vaporization
        116 cal/g
   from [8]HSDB

   Solubilities

     * Soluble in chlorinated solvents, petroleum distillate, and
       cyclohexene.
     * Freely sol in methanol, ethanol,tetrahydrofurfuryl alc; ether,
       dimethylformamide, sol in chlorinated hydrocarbons, cyclohexene,
       petroleum fractions
     * Soluble in benzene, ethanol, and chloroform
     * In water, 5.25X10+6 mg/l @ 25 deg C.

   from [9]HSDB

   Spectral Properties

     * MAX ABSORPTION: 198 NM (E= 686, 1%, 1 CM)
     * IR: 1228 (Coblentz Society Spectral Collection)
     * UV: 6-91 (Organic Electronic Spectral Data, Phillips et al, John
       Wiley & Sons, New York)
     * NMR: 6492 (Sadtler Research Laboratories Spectral Collection)
     * MASS: 145 (National Bureau of Standards EPA-NIH Mass Spectra Data
       Base, NSRDS-NBS-63)

   from [10]HSDB

   Vapor Density
        3.91 (air=1)
   from [11]HSDB

   Vapor Pressure
        1.9X10-3 mm Hg at 25 deg C
   from [12]HSDB

   Viscosity
        9 cP @ 78 deg C
   from [13]HSDB

   Other Chemical/Physical Properties

     * HEAT OF FUSION: 29 CAL/G; HYGROSCOPIC
     * Density: 1.05 @ 25 deg C/4 deg C /70% aq soln/
     * HYDROLYSED BY STRONG MINERAL ACIDS, GIVING AMINO ACIDS
     * Index of refraction: 1.4965 @ 31 deg C/D; 1.4935 @ 40 deg C/D /70%
       aq soln/
     * Vapor pressure: 6 mm Hg @ 120 deg C
     * BP: 180 deg C @ 50 mm Hg

   from [14]HSDB

   Computed Properties
   Molecular Weight                  113.15764 [g/mol]
   Molecular Formula                 C[6]H[11]NO
   XLogP3                            -0.1
   H-Bond Donor                      1
   H-Bond Acceptor                   1
   Rotatable Bond Count              0
   Tautomer Count                    3
   Exact Mass                        113.084064
   MonoIsotopic Mass                 113.084064
   Topological Polar Surface Area    29.1
   Heavy Atom Count                  8
   Formal Charge                     0
   Complexity                        90.5
   Isotope Atom Count                0
   Defined Atom Stereocenter Count   0
   Undefined Atom Stereocenter Count 0
   Defined Bond Stereocenter Count   0
   Undefined Bond Stereocenter Count 0
   Covalently-Bonded Unit Count      1
   Feature 3D Acceptor Count         1
   Feature 3D Donor Count            1
   Feature 3D Ring Count             1
   Effective Rotor Count             1.2
   Conformer Sampling RMSD           0.4
   CID Conformer Count               [15]4

References

   1. http://toxnet.nlm.nih.gov/cgi-bin/sis/search/r?dbs+hsdb:@term+@rn+@rel+105-60-2
   2. http://toxnet.nlm.nih.gov/cgi-bin/sis/search/r?dbs+hsdb:@term+@rn+@rel+105-60-2
   3. http://toxnet.nlm.nih.gov/cgi-bin/sis/search/r?dbs+hsdb:@term+@rn+@rel+105-60-2
   4. http://toxnet.nlm.nih.gov/cgi-bin/sis/search/r?dbs+hsdb:@term+@rn+@rel+105-60-2
   5. http://toxnet.nlm.nih.gov/cgi-bin/sis/search/r?dbs+hsdb:@term+@rn+@rel+105-60-2
   6. http://toxnet.nlm.nih.gov/cgi-bin/sis/search/r?dbs+hsdb:@term+@rn+@rel+105-60-2
   7. http://toxnet.nlm.nih.gov/cgi-bin/sis/search/r?dbs+hsdb:@term+@rn+@rel+105-60-2
   8. http://toxnet.nlm.nih.gov/cgi-bin/sis/search/r?dbs+hsdb:@term+@rn+@rel+105-60-2
   9. http://toxnet.nlm.nih.gov/cgi-bin/sis/search/r?dbs+hsdb:@term+@rn+@rel+105-60-2
  10. http://toxnet.nlm.nih.gov/cgi-bin/sis/search/r?dbs+hsdb:@term+@rn+@rel+105-60-2
  11. http://toxnet.nlm.nih.gov/cgi-bin/sis/search/r?dbs+hsdb:@term+@rn+@rel+105-60-2
  12. http://toxnet.nlm.nih.gov/cgi-bin/sis/search/r?dbs+hsdb:@term+@rn+@rel+105-60-2
  13. http://toxnet.nlm.nih.gov/cgi-bin/sis/search/r?dbs+hsdb:@term+@rn+@rel+105-60-2
  14. http://toxnet.nlm.nih.gov/cgi-bin/sis/search/r?dbs+hsdb:@term+@rn+@rel+105-60-2
  15. http://pubchem.ncbi.nlm.nih.gov/vw3d/vw3d.cgi?cid=7768
