   Color/Form

     * Liquid
     * Colorless oil

   from [1]HSDB

   Odor
        Odor of volatile oil of almond
   from [2]HSDB

   Taste
        Sharp taste
   from [3]HSDB

   Boiling Point
        190.7 deg C @ 760 mm Hg
   from [4]HSDB

   Melting Point
        -13.1 deg C
   from [5]HSDB

   Corrosivity
        Will attack some plastics
   from [6]HSDB

   Critical Temperature and Pressure
        Critical temperature: 426.2 deg C; critical pressure: 41.6 atm
   from [7]HSDB

   Density/Specific Gravity
        1.010 @ 15 deg C/15 deg C
   from [8]HSDB

   Heat of Combustion
        865.5 kg cal/g mol wt at 20 deg C (liquid)
   from [9]HSDB

   Heat of Vaporization
        45.9 kJ/mole
   from [10]HSDB

   Octanol/Water Partition Coefficient
        log Kow= 1.56
   from [11]HSDB

   Solubilities

     * Miscible with common organic solvents
     * Soluble in alcohol, ether, acetone
     * In water, 2000 mg/l @ 25 deg C.

   from [12]HSDB

   Spectral Properties

     * SADTLER REF NUMBER: 2255 (IR, PRISM); 312 (IR, GRATING); MAX
       ABSORPTION (ALCOHOL): 222 NM (LOG E= 4.11); 230 NM (LOG E= 4.04)
     * Index of refraction: 1.5289 at 20 deg C/D
     * IR: COB 4824 (Coblentz Society Spectral Collection)
     * UV: SAD 602 (Sadtler Research Laboratories Spectral Collection)
     * NMR: SAD 138 (Sadtler Research Laboratories Spectral Collection)
     * MS: NIST 60870 (NIST/EPA/MSDC Mass Spectral Database 1990 version);
       NBS 4127

   from [13]HSDB

   Surface Tension
        38.79 dynes/cm @ 25 deg C; 35.90 dynes/cm @ 50 deg C; 33.00
   dynes/cm @ 75 deg C.
   from [14]HSDB

   Vapor Density
        Vapor specific gravity: 3.6
   from [15]HSDB

   Vapor Pressure
        0.768 mm Hg at 25 deg C
   from [16]HSDB

   Relative Evaporation Rate
        13 (butyl acetate = 100)
   from [17]HSDB

   Viscosity
        1.054 centistokes @ 100 deg F
   from [18]HSDB

   Other Chemical/Physical Properties

     * Ratio of specific heats of vapor: 1.091
     * Saturated liquid density: 62.980 lb/cu ft (at 75 deg F)
     * Liquid viscosity: 1.250 Centipoise at 77 deg F
     * Saturated vapor pressure: 0.050 lb/sq in; saturated vapor density:
       0.00084 lb/cu ft (both at 110 deg F)
     * Ideal gas heat capacity: 0.236 Btu/lb-F at 80 deg F
     * Liquid thermal conductivity: 1.031 Btu-inch/hr-sq ft-F (at 75 deg
       F)
     * Liquid heat capacity: 0.440 Btu/lb-F (at 75 deg F)
     * Hydroxyl radical reaction rate constant = 3.30X10-13 cu
       cm/molecule-sec @ 25 deg C.
     * Coefficient of expansion = 9X10-41 1/deg C; dielectric constant =
       25.5 @ 25 deg C; dipole moment = 13.144X10-30 C-m @ 22 deg C.

   from [19]HSDB

   Computed Properties
   Molecular Weight                  103.1213 [g/mol]
   Molecular Formula                 C[7]H[5]N
   XLogP3                            1.6
   H-Bond Donor                      0
   H-Bond Acceptor                   1
   Rotatable Bond Count              0
   Exact Mass                        103.042199
   MonoIsotopic Mass                 103.042199
   Topological Polar Surface Area    23.8
   Heavy Atom Count                  8
   Formal Charge                     0
   Complexity                        103
   Isotope Atom Count                0
   Defined Atom Stereocenter Count   0
   Undefined Atom Stereocenter Count 0
   Defined Bond Stereocenter Count   0
   Undefined Bond Stereocenter Count 0
   Covalently-Bonded Unit Count      1
   Feature 3D Acceptor Count         1
   Feature 3D Ring Count             1
   Effective Rotor Count             0
   Conformer Sampling RMSD           0.4
   CID Conformer Count               [20]1

References

   1. http://toxnet.nlm.nih.gov/cgi-bin/sis/search/r?dbs+hsdb:@term+@rn+@rel+100-47-0
   2. http://toxnet.nlm.nih.gov/cgi-bin/sis/search/r?dbs+hsdb:@term+@rn+@rel+100-47-0
   3. http://toxnet.nlm.nih.gov/cgi-bin/sis/search/r?dbs+hsdb:@term+@rn+@rel+100-47-0
   4. http://toxnet.nlm.nih.gov/cgi-bin/sis/search/r?dbs+hsdb:@term+@rn+@rel+100-47-0
   5. http://toxnet.nlm.nih.gov/cgi-bin/sis/search/r?dbs+hsdb:@term+@rn+@rel+100-47-0
   6. http://toxnet.nlm.nih.gov/cgi-bin/sis/search/r?dbs+hsdb:@term+@rn+@rel+100-47-0
   7. http://toxnet.nlm.nih.gov/cgi-bin/sis/search/r?dbs+hsdb:@term+@rn+@rel+100-47-0
   8. http://toxnet.nlm.nih.gov/cgi-bin/sis/search/r?dbs+hsdb:@term+@rn+@rel+100-47-0
   9. http://toxnet.nlm.nih.gov/cgi-bin/sis/search/r?dbs+hsdb:@term+@rn+@rel+100-47-0
  10. http://toxnet.nlm.nih.gov/cgi-bin/sis/search/r?dbs+hsdb:@term+@rn+@rel+100-47-0
  11. http://toxnet.nlm.nih.gov/cgi-bin/sis/search/r?dbs+hsdb:@term+@rn+@rel+100-47-0
  12. http://toxnet.nlm.nih.gov/cgi-bin/sis/search/r?dbs+hsdb:@term+@rn+@rel+100-47-0
  13. http://toxnet.nlm.nih.gov/cgi-bin/sis/search/r?dbs+hsdb:@term+@rn+@rel+100-47-0
  14. http://toxnet.nlm.nih.gov/cgi-bin/sis/search/r?dbs+hsdb:@term+@rn+@rel+100-47-0
  15. http://toxnet.nlm.nih.gov/cgi-bin/sis/search/r?dbs+hsdb:@term+@rn+@rel+100-47-0
  16. http://toxnet.nlm.nih.gov/cgi-bin/sis/search/r?dbs+hsdb:@term+@rn+@rel+100-47-0
  17. http://toxnet.nlm.nih.gov/cgi-bin/sis/search/r?dbs+hsdb:@term+@rn+@rel+100-47-0
  18. http://toxnet.nlm.nih.gov/cgi-bin/sis/search/r?dbs+hsdb:@term+@rn+@rel+100-47-0
  19. http://toxnet.nlm.nih.gov/cgi-bin/sis/search/r?dbs+hsdb:@term+@rn+@rel+100-47-0
  20. http://pubchem.ncbi.nlm.nih.gov/vw3d/vw3d.cgi?cid=7505
