   Color/Form

     * Prisms from 80% alcohol
     * White or slightly yellow, small crystals or crystalline powder

   from [1]HSDB

   Melting Point
        173 - 179 deg C
   from [2]HSDB

   Octanol/Water Partition Coefficient
        log Kow = 4.01 /B-estradiol/
   from [3]HSDB

   Solubilities

     * Freely soluble in alcohol; soluble in acetone, dioxane, other
       organic solvents; solutions of fixed alkali hydroxides; sparingly
       soluble in vegetable oils.
     * In water, 3.60 mg/l @ 27 deg C.

   from [4]HSDB

   Spectral Properties
        Specific optical rotation at 25 deg C for D (sodium) line: +76 deg
   to +83 deg (dioxane); UV max: 225, 280 nm.
   from [5]HSDB

   Other Chemical/Physical Properties

     * It occurs in two isomeric forms, alpha and beta. Beta-estradiol has
       the greatest physiological activity of any naturally occurring
       estrogen. The alpha-form is relatively inactive.
     * Precipitated by digitonin; stable in air.

   from [6]HSDB

   Computed Properties
   Molecular Weight                  272.38196 [g/mol]
   Molecular Formula                 C[18]H[24]O[2]
   XLogP3                            4
   H-Bond Donor                      2
   H-Bond Acceptor                   2
   Rotatable Bond Count              0
   Tautomer Count                    9
   Exact Mass                        272.17763
   MonoIsotopic Mass                 272.17763
   Topological Polar Surface Area    40.5
   Heavy Atom Count                  20
   Formal Charge                     0
   Complexity                        382
   Isotope Atom Count                0
   Defined Atom Stereocenter Count   5
   Undefined Atom Stereocenter Count 0
   Defined Bond Stereocenter Count   0
   Undefined Bond Stereocenter Count 0
   Covalently-Bonded Unit Count      1
   Feature 3D Acceptor Count         1
   Feature 3D Donor Count            2
   Feature 3D Ring Count             4
   Effective Rotor Count             1.4
   Conformer Sampling RMSD           0.6
   CID Conformer Count               [7]1

References

   1. http://toxnet.nlm.nih.gov/cgi-bin/sis/search/r?dbs+hsdb:@term+@rn+@rel+50-28-2
   2. http://toxnet.nlm.nih.gov/cgi-bin/sis/search/r?dbs+hsdb:@term+@rn+@rel+50-28-2
   3. http://toxnet.nlm.nih.gov/cgi-bin/sis/search/r?dbs+hsdb:@term+@rn+@rel+50-28-2
   4. http://toxnet.nlm.nih.gov/cgi-bin/sis/search/r?dbs+hsdb:@term+@rn+@rel+50-28-2
   5. http://toxnet.nlm.nih.gov/cgi-bin/sis/search/r?dbs+hsdb:@term+@rn+@rel+50-28-2
   6. http://toxnet.nlm.nih.gov/cgi-bin/sis/search/r?dbs+hsdb:@term+@rn+@rel+50-28-2
   7. http://pubchem.ncbi.nlm.nih.gov/vw3d/vw3d.cgi?cid=5757
