17395608
  -OEChem-06241222512D

 35 37  0     0  0  0  0  0  0999 V2000
    4.1136   -2.3965    0.0000 F   0  0  0  0  0  0  0  0  0  0  0  0
    5.0366   -0.8087    0.0000 O   0  0  0  0  0  0  0  0  0  0  0  0
    3.7634    0.8468    0.0000 O   0  0  0  0  0  0  0  0  0  0  0  0
    5.1646    1.8649    0.0000 N   0  0  0  0  0  0  0  0  0  0  0  0
    4.9836    3.5875    0.0000 N   0  0  0  0  0  0  0  0  0  0  0  0
    5.8457   -1.3965    0.0000 C   0  0  0  0  0  0  0  0  0  0  0  0
    5.8457   -2.3965    0.0000 C   0  0  0  0  0  0  0  0  0  0  0  0
    5.3457    0.1424    0.0000 C   0  0  0  0  0  0  0  0  0  0  0  0
    6.6547   -0.8087    0.0000 C   0  0  0  0  0  0  0  0  0  0  0  0
    6.3457    0.1424    0.0000 C   0  0  0  0  0  0  0  0  0  0  0  0
    4.7579    0.9514    0.0000 C   0  0  0  0  0  0  0  0  0  0  0  0
    4.9796   -2.8965    0.0000 C   0  0  0  0  0  0  0  0  0  0  0  0
    6.7117   -2.8965    0.0000 C   0  0  0  0  0  0  0  0  0  0  0  0
    4.5768    2.6739    0.0000 C   0  0  0  0  0  0  0  0  0  0  0  0
    2.9945    3.3784    0.0000 C   0  0  0  0  0  0  0  0  0  0  0  0
    3.5823    2.5694    0.0000 C   0  0  0  0  0  0  0  0  0  0  0  0
    4.9796   -3.8965    0.0000 C   0  0  0  0  0  0  0  0  0  0  0  0
    6.7117   -3.8965    0.0000 C   0  0  0  0  0  0  0  0  0  0  0  0
    5.8457   -4.3965    0.0000 C   0  0  0  0  0  0  0  0  0  0  0  0
    3.4013    4.2920    0.0000 C   0  0  0  0  0  0  0  0  0  0  0  0
    2.0000    3.2739    0.0000 C   0  0  0  0  0  0  0  0  0  0  0  0
    4.3958    4.3965    0.0000 C   0  0  0  0  0  0  0  0  0  0  0  0
    7.2443   -1.0003    0.0000 H   0  0  0  0  0  0  0  0  0  0  0  0
    6.7101    0.6439    0.0000 H   0  0  0  0  0  0  0  0  0  0  0  0
    7.2486   -2.5865    0.0000 H   0  0  0  0  0  0  0  0  0  0  0  0
    5.7812    1.9297    0.0000 H   0  0  0  0  0  0  0  0  0  0  0  0
    3.3301    2.0030    0.0000 H   0  0  0  0  0  0  0  0  0  0  0  0
    4.4427   -4.2065    0.0000 H   0  0  0  0  0  0  0  0  0  0  0  0
    7.2486   -4.2065    0.0000 H   0  0  0  0  0  0  0  0  0  0  0  0
    3.0368    4.7936    0.0000 H   0  0  0  0  0  0  0  0  0  0  0  0
    5.8457   -5.0165    0.0000 H   0  0  0  0  0  0  0  0  0  0  0  0
    1.9352    3.8905    0.0000 H   0  0  0  0  0  0  0  0  0  0  0  0
    1.3834    3.2091    0.0000 H   0  0  0  0  0  0  0  0  0  0  0  0
    2.0648    2.6573    0.0000 H   0  0  0  0  0  0  0  0  0  0  0  0
    4.6480    4.9629    0.0000 H   0  0  0  0  0  0  0  0  0  0  0  0
  1 12  1  0  0  0  0
  2  6  1  0  0  0  0
  2  8  1  0  0  0  0
  3 11  2  0  0  0  0
  4 11  1  0  0  0  0
  4 14  1  0  0  0  0
  4 26  1  0  0  0  0
  5 14  2  0  0  0  0
  5 22  1  0  0  0  0
  6  7  1  0  0  0  0
  6  9  2  0  0  0  0
  7 12  1  0  0  0  0
  7 13  2  0  0  0  0
  8 10  2  0  0  0  0
  8 11  1  0  0  0  0
  9 10  1  0  0  0  0
  9 23  1  0  0  0  0
 10 24  1  0  0  0  0
 12 17  2  0  0  0  0
 13 18  1  0  0  0  0
 13 25  1  0  0  0  0
 14 16  1  0  0  0  0
 15 16  2  0  0  0  0
 15 20  1  0  0  0  0
 15 21  1  0  0  0  0
 16 27  1  0  0  0  0
 17 19  1  0  0  0  0
 17 28  1  0  0  0  0
 18 19  2  0  0  0  0
 18 29  1  0  0  0  0
 19 31  1  0  0  0  0
 20 22  2  0  0  0  0
 20 30  1  0  0  0  0
 21 32  1  0  0  0  0
 21 33  1  0  0  0  0
 21 34  1  0  0  0  0
 22 35  1  0  0  0  0
M  END
> <PUBCHEM_COMPOUND_CID>
17395608

> <PUBCHEM_COMPOUND_CANONICALIZED>
1

> <PUBCHEM_CACTVS_COMPLEXITY>
393

> <PUBCHEM_CACTVS_HBOND_ACCEPTOR>
4

> <PUBCHEM_CACTVS_HBOND_DONOR>
1

> <PUBCHEM_CACTVS_ROTATABLE_BOND>
3

> <PUBCHEM_CACTVS_SUBSKEYS>
AAADccB7MQAAAAAAAAAAAAAAAAAAASAAAAA8QAAAAAAAAAAB8AAAHwAQAAAADATBmgw/tJLIFECoArN3dAKCiCk1IiAJ2CH+bNiOJnLEvb+HOSjs1RPY6aeY3/LuAAAAAAAAAAAAAAAAAAAAAAAAAAAAAA==

> <PUBCHEM_IUPAC_OPENEYE_NAME>
5-(2-fluorophenyl)-N-(4-methyl-2-pyridyl)furan-2-carboxamide

> <PUBCHEM_IUPAC_CAS_NAME>
5-(2-fluorophenyl)-N-(4-methyl-2-pyridinyl)-2-furancarboxamide

> <PUBCHEM_IUPAC_NAME>
5-(2-fluorophenyl)-N-(4-methylpyridin-2-yl)furan-2-carboxamide

> <PUBCHEM_IUPAC_SYSTEMATIC_NAME>
5-(2-fluorophenyl)-N-(4-methylpyridin-2-yl)furan-2-carboxamide

> <PUBCHEM_IUPAC_TRADITIONAL_NAME>
5-(2-fluorophenyl)-N-(4-methyl-2-pyridyl)-2-furamide

> <PUBCHEM_IUPAC_INCHI>
InChI=1S/C17H13FN2O2/c1-11-8-9-19-16(10-11)20-17(21)15-7-6-14(22-15)12-4-2-3-5-13(12)18/h2-10H,1H3,(H,19,20,21)

> <PUBCHEM_IUPAC_INCHIKEY>
GXYJGNYGWRMSNZ-UHFFFAOYSA-N

> <PUBCHEM_XLOGP3_AA>
3.5

> <PUBCHEM_EXACT_MASS>
296.096106

> <PUBCHEM_MOLECULAR_FORMULA>
C17H13FN2O2

> <PUBCHEM_MOLECULAR_WEIGHT>
296.295723

> <PUBCHEM_OPENEYE_CAN_SMILES>
CC1=CC(=NC=C1)NC(=O)C2=CC=C(O2)C3=CC=CC=C3F

> <PUBCHEM_OPENEYE_ISO_SMILES>
CC1=CC(=NC=C1)NC(=O)C2=CC=C(O2)C3=CC=CC=C3F

> <PUBCHEM_CACTVS_TPSA>
55.1

> <PUBCHEM_MONOISOTOPIC_WEIGHT>
296.096106

> <PUBCHEM_TOTAL_CHARGE>
0

> <PUBCHEM_HEAVY_ATOM_COUNT>
22

> <PUBCHEM_ATOM_DEF_STEREO_COUNT>
0

> <PUBCHEM_ATOM_UDEF_STEREO_COUNT>
0

> <PUBCHEM_BOND_DEF_STEREO_COUNT>
0

> <PUBCHEM_BOND_UDEF_STEREO_COUNT>
0

> <PUBCHEM_ISOTOPIC_ATOM_COUNT>
0

> <PUBCHEM_COMPONENT_COUNT>
1

> <PUBCHEM_CACTVS_TAUTO_COUNT>
5

> <PUBCHEM_COORDINATE_TYPE>
1
5
255

> <PUBCHEM_BONDANNOTATIONS>
12  17  8
13  18  8
14  16  8
15  16  8
15  20  8
17  19  8
18  19  8
2  6  8
2  8  8
20  22  8
5  14  8
5  22  8
6  9  8
7  12  8
7  13  8
8  10  8
9  10  8

$$$$

