   Color/Form

     * Faintly yellowish, limpid, oily liquid or yellow crystals
     * White or slightly yellow crystalline mass or colorless to
       yellowish, very refractive liquid
     * Hexagonal prisms

   from [1]HSDB

   Odor

     * Aromatic odor
     * CHARACTERISTIC SWEET ODOR, SLIGHTLY PHENOLIC

   from [2]HSDB

   Boiling Point
        205 deg C
   from [3]HSDB

   Melting Point
        32 deg C
   from [4]HSDB

   Density/Specific Gravity
        1.1287 g/cu cm at 21 deg C
   from [5]HSDB

   Dissociation Constants
        pKa = 9.98
   from [6]HSDB

   Octanol/Water Partition Coefficient
        log Kow = 1.32
   from [7]HSDB

   Solubilities

     * Soluble in carbon tetrachloride
     * Miscible with alcohol, chloroform, ether, oils, glacial acetic
       acid; slightly soluble in petroleum ether; soluble in sodium
       hydroxide solution
     * 1 g /o-methoxyphenol/ is soluble in 60-70 mL water, in 1 mL
       glycerol
     * In water 18,700 mg/L at 25 deg C

   from [8]HSDB

   Spectral Properties

     * Index of refraction: 1.5429 at 20 deg C/D
     * MAX ABSORPTION (ALCOHOL): 274 NM (LOG E= 3.41)
     * IR: 3218 (Coblentz Society Spectral Collection)
     * UV: 36 (Sadtler Research Laboratories Spectral Collection)
     * 1H NMR: 3149 (Sadtler Research Laboratories Spectral Collection)
     * MASS: 20585 (NIST/EPA/MSDC Mass Spectral Database, 1990 version);
       1081(Atlas of Mass Spectral Data, John Wiley & Sons, New York)

   from [9]HSDB

   Vapor Pressure
        0.103 mm Hg 25 deg C
   from [10]HSDB

   Other Chemical/Physical Properties

     * Darkens on exposure to air and light. Solidifies at 28 deg C but
       may remain liquid for a long time even at a much lower temperature.
     * With moderately concentrated potassium hydroxide it forms a
       sparingly soluble compound
     * Adsorbs UV at 289 nm /Sodium salt/
     * Henry's Law constant = 1.2X10-6 atm-cu m/mol at 25 deg C
     * Hydroxyl radical reaction rate constant = 3.2X10-11 cu cm/molec-sec
       at 25 deg C (est)

   from [11]HSDB

   Computed Properties
   Molecular Weight                  124.13722 [g/mol]
   Molecular Formula                 C[7]H[8]O[2]
   XLogP3                            1.3
   H-Bond Donor                      1
   H-Bond Acceptor                   2
   Rotatable Bond Count              1
   Tautomer Count                    3
   Exact Mass                        124.052429
   MonoIsotopic Mass                 124.052429
   Topological Polar Surface Area    29.5
   Heavy Atom Count                  9
   Formal Charge                     0
   Complexity                        83
   Isotope Atom Count                0
   Defined Atom Stereocenter Count   0
   Undefined Atom Stereocenter Count 0
   Defined Bond Stereocenter Count   0
   Undefined Bond Stereocenter Count 0
   Covalently-Bonded Unit Count      1
   Feature 3D Acceptor Count         1
   Feature 3D Donor Count            1
   Feature 3D Ring Count             1
   Effective Rotor Count             1
   Conformer Sampling RMSD           0.4
   CID Conformer Count               [12]3

References

   1. http://toxnet.nlm.nih.gov/cgi-bin/sis/search/r?dbs+hsdb:@term+@rn+@rel+90-05-1
   2. http://toxnet.nlm.nih.gov/cgi-bin/sis/search/r?dbs+hsdb:@term+@rn+@rel+90-05-1
   3. http://toxnet.nlm.nih.gov/cgi-bin/sis/search/r?dbs+hsdb:@term+@rn+@rel+90-05-1
   4. http://toxnet.nlm.nih.gov/cgi-bin/sis/search/r?dbs+hsdb:@term+@rn+@rel+90-05-1
   5. http://toxnet.nlm.nih.gov/cgi-bin/sis/search/r?dbs+hsdb:@term+@rn+@rel+90-05-1
   6. http://toxnet.nlm.nih.gov/cgi-bin/sis/search/r?dbs+hsdb:@term+@rn+@rel+90-05-1
   7. http://toxnet.nlm.nih.gov/cgi-bin/sis/search/r?dbs+hsdb:@term+@rn+@rel+90-05-1
   8. http://toxnet.nlm.nih.gov/cgi-bin/sis/search/r?dbs+hsdb:@term+@rn+@rel+90-05-1
   9. http://toxnet.nlm.nih.gov/cgi-bin/sis/search/r?dbs+hsdb:@term+@rn+@rel+90-05-1
  10. http://toxnet.nlm.nih.gov/cgi-bin/sis/search/r?dbs+hsdb:@term+@rn+@rel+90-05-1
  11. http://toxnet.nlm.nih.gov/cgi-bin/sis/search/r?dbs+hsdb:@term+@rn+@rel+90-05-1
  12. http://pubchem.ncbi.nlm.nih.gov/vw3d/vw3d.cgi?cid=460
