   Color/Form
        Colorless crystals
   from [1]HSDB

   Melting Point
        210 deg C (decomposes)
   from [2]HSDB

   Dissociation Constants
        pKa=5.36
   from [3]HSDB

   Octanol/Water Partition Coefficient
        log Kow = 5.30
   from [4]HSDB

   Solubilities

     * In isopropanol 10-20, dichloromethane 20-50, n-hexane 0.1-1,
       toluene 2-5 (all in g/l at 20 deg C).
     * In water, 0.12 mg/l @ 20 deg C.

   from [5]HSDB

   Vapor Pressure
        4.5X10-13 mm Hg at 25 deg C
   from [6]HSDB

   Computed Properties
   Molecular Weight                  436.222 [g/mol]
   Molecular Formula                 C[20]H[35]N[3]Sn
   H-Bond Donor                      0
   H-Bond Acceptor                   2
   Rotatable Bond Count              4
   Exact Mass                        437.185293
   MonoIsotopic Mass                 437.185293
   Topological Polar Surface Area    30.7
   Heavy Atom Count                  24
   Formal Charge                     0
   Complexity                        339
   Isotope Atom Count                0
   Defined Atom Stereocenter Count   0
   Undefined Atom Stereocenter Count 0
   Defined Bond Stereocenter Count   0
   Undefined Bond Stereocenter Count 0
   Covalently-Bonded Unit Count      1

References

   1. http://toxnet.nlm.nih.gov/cgi-bin/sis/search/r?dbs+hsdb:@term+@rn+@rel+41083-11-8
   2. http://toxnet.nlm.nih.gov/cgi-bin/sis/search/r?dbs+hsdb:@term+@rn+@rel+41083-11-8
   3. http://toxnet.nlm.nih.gov/cgi-bin/sis/search/r?dbs+hsdb:@term+@rn+@rel+41083-11-8
   4. http://toxnet.nlm.nih.gov/cgi-bin/sis/search/r?dbs+hsdb:@term+@rn+@rel+41083-11-8
   5. http://toxnet.nlm.nih.gov/cgi-bin/sis/search/r?dbs+hsdb:@term+@rn+@rel+41083-11-8
   6. http://toxnet.nlm.nih.gov/cgi-bin/sis/search/r?dbs+hsdb:@term+@rn+@rel+41083-11-8
