443335
  -OEChem-07051213022D

 48 50  0     1  0  0  0  0  0999 V2000
    6.0010    0.1900    0.0000 O   0  0  0  0  0  0  0  0  0  0  0  0
    5.1350   -1.3100    0.0000 O   0  0  0  0  0  0  0  0  0  0  0  0
    5.1350    1.6900    0.0000 O   0  0  0  0  0  0  0  0  0  0  0  0
    4.2690   -0.8100    0.0000 O   0  0  0  0  0  0  0  0  0  0  0  0
    2.5369    0.1900    0.0000 O   0  0  0  0  0  0  0  0  0  0  0  0
    2.5369    2.1900    0.0000 O   0  0  0  0  0  0  0  0  0  0  0  0
    5.1350   -4.3100    0.0000 O   0  0  0  0  0  0  0  0  0  0  0  0
    5.1350    3.6900    0.0000 O   0  0  0  0  0  0  0  0  0  0  0  0
    6.8671   -1.3100    0.0000 C   0  0  1  0  0  0  0  0  0  0  0  0
    6.8671   -2.3100    0.0000 C   0  0  2  0  0  0  0  0  0  0  0  0
    7.8133   -1.0053    0.0000 C   0  0  2  0  0  0  0  0  0  0  0  0
    7.8133   -2.6147    0.0000 C   0  0  0  0  0  0  0  0  0  0  0  0
    8.3969   -1.8100    0.0000 C   0  0  0  0  0  0  0  0  0  0  0  0
    6.0010   -0.8100    0.0000 C   0  0  2  0  0  0  0  0  0  0  0  0
    6.0010   -2.8100    0.0000 C   0  0  0  0  0  0  0  0  0  0  0  0
    8.1240   -0.0547    0.0000 C   0  0  0  0  0  0  0  0  0  0  0  0
    5.1350    0.6900    0.0000 C   0  0  2  0  0  0  0  0  0  0  0  0
    4.2690    0.1900    0.0000 C   0  0  1  0  0  0  0  0  0  0  0  0
    5.1350   -2.3100    0.0000 C   0  0  0  0  0  0  0  0  0  0  0  0
    3.4030    0.6900    0.0000 C   0  0  2  0  0  0  0  0  0  0  0  0
    3.4030    1.6900    0.0000 C   0  0  1  0  0  0  0  0  0  0  0  0
    4.2690    2.1900    0.0000 C   0  0  1  0  0  0  0  0  0  0  0  0
    6.0010   -3.8100    0.0000 C   0  0  0  0  0  0  0  0  0  0  0  0
    4.2690    3.1900    0.0000 C   0  0  0  0  0  0  0  0  0  0  0  0
    6.9570   -0.4648    0.0000 H   0  0  0  0  0  0  0  0  0  0  0  0
    6.9570   -3.1552    0.0000 H   0  0  0  0  0  0  0  0  0  0  0  0
    7.3758   -0.5659    0.0000 H   0  0  0  0  0  0  0  0  0  0  0  0
    7.5622   -3.1816    0.0000 H   0  0  0  0  0  0  0  0  0  0  0  0
    8.3507   -2.9240    0.0000 H   0  0  0  0  0  0  0  0  0  0  0  0
    8.8578   -2.2247    0.0000 H   0  0  0  0  0  0  0  0  0  0  0  0
    8.8578   -1.3953    0.0000 H   0  0  0  0  0  0  0  0  0  0  0  0
    6.5380   -0.5000    0.0000 H   0  0  0  0  0  0  0  0  0  0  0  0
    8.7133   -0.2474    0.0000 H   0  0  0  0  0  0  0  0  0  0  0  0
    8.3166    0.5346    0.0000 H   0  0  0  0  0  0  0  0  0  0  0  0
    7.5346    0.1379    0.0000 H   0  0  0  0  0  0  0  0  0  0  0  0
    5.1350    0.0700    0.0000 H   0  0  0  0  0  0  0  0  0  0  0  0
    4.8059   -0.1200    0.0000 H   0  0  0  0  0  0  0  0  0  0  0  0
    4.5981   -2.6200    0.0000 H   0  0  0  0  0  0  0  0  0  0  0  0
    3.4030    0.0700    0.0000 H   0  0  0  0  0  0  0  0  0  0  0  0
    3.4030    2.3100    0.0000 H   0  0  0  0  0  0  0  0  0  0  0  0
    4.8059    2.5000    0.0000 H   0  0  0  0  0  0  0  0  0  0  0  0
    6.5380   -4.1200    0.0000 H   0  0  0  0  0  0  0  0  0  0  0  0
    4.0569    3.7726    0.0000 H   0  0  0  0  0  0  0  0  0  0  0  0
    3.6584    3.0823    0.0000 H   0  0  0  0  0  0  0  0  0  0  0  0
    3.7320   -1.1200    0.0000 H   0  0  0  0  0  0  0  0  0  0  0  0
    2.0000    0.5000    0.0000 H   0  0  0  0  0  0  0  0  0  0  0  0
    2.5369    2.8100    0.0000 H   0  0  0  0  0  0  0  0  0  0  0  0
    5.1350    4.3100    0.0000 H   0  0  0  0  0  0  0  0  0  0  0  0
 14  1  1  1  0  0  0
 17  1  1  1  0  0  0
  2 14  1  0  0  0  0
  2 19  1  0  0  0  0
  3 17  1  0  0  0  0
  3 22  1  0  0  0  0
 18  4  1  6  0  0  0
  4 45  1  0  0  0  0
 20  5  1  1  0  0  0
  5 46  1  0  0  0  0
 21  6  1  6  0  0  0
  6 47  1  0  0  0  0
  7 23  2  0  0  0  0
  8 24  1  0  0  0  0
  8 48  1  0  0  0  0
  9 10  1  0  0  0  0
  9 11  1  0  0  0  0
  9 14  1  0  0  0  0
  9 25  1  1  0  0  0
 10 12  1  0  0  0  0
 10 15  1  0  0  0  0
 10 26  1  1  0  0  0
 11 13  1  0  0  0  0
 11 16  1  1  0  0  0
 11 27  1  0  0  0  0
 12 13  1  0  0  0  0
 12 28  1  0  0  0  0
 12 29  1  0  0  0  0
 13 30  1  0  0  0  0
 13 31  1  0  0  0  0
 14 32  1  0  0  0  0
 15 19  2  0  0  0  0
 15 23  1  0  0  0  0
 16 33  1  0  0  0  0
 16 34  1  0  0  0  0
 16 35  1  0  0  0  0
 17 18  1  0  0  0  0
 17 36  1  0  0  0  0
 18 20  1  0  0  0  0
 18 37  1  0  0  0  0
 19 38  1  0  0  0  0
 20 21  1  0  0  0  0
 20 39  1  0  0  0  0
 21 22  1  0  0  0  0
 21 40  1  0  0  0  0
 22 24  1  1  0  0  0
 22 41  1  0  0  0  0
 23 42  1  0  0  0  0
 24 43  1  0  0  0  0
 24 44  1  0  0  0  0
M  END
> <PUBCHEM_COMPOUND_CID>
443335

> <PUBCHEM_COMPOUND_CANONICALIZED>
1

> <PUBCHEM_CACTVS_COMPLEXITY>
495

> <PUBCHEM_CACTVS_HBOND_ACCEPTOR>
8

> <PUBCHEM_CACTVS_HBOND_DONOR>
4

> <PUBCHEM_CACTVS_ROTATABLE_BOND>
4

> <PUBCHEM_CACTVS_SUBSKEYS>
AAADceB4PAAAAAAAAAAAAAAAAAAAAYAAAAAkQAAAAAAAAEAAAAAAGgAACAAADRSwgAMCCAAABgCIAghSgAAACAAgIAAAAAEAAEgREBIAAQAiQAAFgAAHAIHI7OyOgAAAAAAAAAAAAAAAAAAAAQAACAAAAA==

> <PUBCHEM_IUPAC_OPENEYE_NAME>
(1S,4aS,7S,7aR)-7-methyl-1-[(2S,3R,4S,5S,6R)-3,4,5-trihydroxy-6-(hydroxymethyl)tetrahydropyran-2-yl]oxy-1,4a,5,6,7,7a-hexahydrocyclopenta[c]pyran-4-carbaldehyde

> <PUBCHEM_IUPAC_CAS_NAME>
(1S,4aS,7S,7aR)-7-methyl-1-[[(2S,3R,4S,5S,6R)-3,4,5-trihydroxy-6-(hydroxymethyl)-2-oxanyl]oxy]-1,4a,5,6,7,7a-hexahydrocyclopenta[c]pyran-4-carboxaldehyde

> <PUBCHEM_IUPAC_NAME>
(1S,4aS,7S,7aR)-7-methyl-1-[(2S,3R,4S,5S,6R)-3,4,5-trihydroxy-6-(hydroxymethyl)oxan-2-yl]oxy-1,4a,5,6,7,7a-hexahydrocyclopenta[c]pyran-4-carbaldehyde

> <PUBCHEM_IUPAC_SYSTEMATIC_NAME>
(1S,4aS,7S,7aR)-1-[(2S,3R,4S,5S,6R)-6-(hydroxymethyl)-3,4,5-tris(oxidanyl)oxan-2-yl]oxy-7-methyl-1,4a,5,6,7,7a-hexahydrocyclopenta[c]pyran-4-carbaldehyde

> <PUBCHEM_IUPAC_TRADITIONAL_NAME>
(1S,4aS,7S,7aR)-7-methyl-1-[(2S,3R,4S,5S,6R)-3,4,5-trihydroxy-6-methylol-tetrahydropyran-2-yl]oxy-1,4a,5,6,7,7a-hexahydrocyclopenta[c]pyran-4-carbaldehyde

> <PUBCHEM_IUPAC_INCHI>
InChI=1S/C16H24O8/c1-7-2-3-9-8(4-17)6-22-15(11(7)9)24-16-14(21)13(20)12(19)10(5-18)23-16/h4,6-7,9-16,18-21H,2-3,5H2,1H3/t7-,9+,10+,11+,12+,13-,14+,15-,16-/m0/s1

> <PUBCHEM_IUPAC_INCHIKEY>
MRIFZKMKTDPBHR-MDHPXLNESA-N

> <PUBCHEM_XLOGP3_AA>
-0.4

> <PUBCHEM_EXACT_MASS>
344.147118

> <PUBCHEM_MOLECULAR_FORMULA>
C16H24O8

> <PUBCHEM_MOLECULAR_WEIGHT>
344.35696

> <PUBCHEM_OPENEYE_CAN_SMILES>
CC1CCC2C1C(OC=C2C=O)OC3C(C(C(C(O3)CO)O)O)O

> <PUBCHEM_OPENEYE_ISO_SMILES>
C[C@H]1CC[C@H]2[C@@H]1[C@@H](OC=C2C=O)O[C@H]3[C@@H]([C@H]([C@@H]([C@H](O3)CO)O)O)O

> <PUBCHEM_CACTVS_TPSA>
126

> <PUBCHEM_MONOISOTOPIC_WEIGHT>
344.147118

> <PUBCHEM_TOTAL_CHARGE>
0

> <PUBCHEM_HEAVY_ATOM_COUNT>
24

> <PUBCHEM_ATOM_DEF_STEREO_COUNT>
9

> <PUBCHEM_ATOM_UDEF_STEREO_COUNT>
0

> <PUBCHEM_BOND_DEF_STEREO_COUNT>
0

> <PUBCHEM_BOND_UDEF_STEREO_COUNT>
0

> <PUBCHEM_ISOTOPIC_ATOM_COUNT>
0

> <PUBCHEM_COMPONENT_COUNT>
1

> <PUBCHEM_CACTVS_TAUTO_COUNT>
1

> <PUBCHEM_COORDINATE_TYPE>
1
5
255

> <PUBCHEM_BONDANNOTATIONS>
14  1  5
17  1  5
10  26  5
11  16  5
22  24  5
18  4  6
20  5  5
21  6  6
9  25  5

$$$$

