   Color/Form
        Crystals (from diethyl ether)
   from [1]HSDB

   Melting Point
        208 deg C
   from [2]HSDB

   Dissociation Constants
        pKa = 7.64
   from [3]HSDB

   Octanol/Water Partition Coefficient
        log Kow = 1.86
   from [4]HSDB

   Solubilities

     * Slightly soluble in water; soluble in alkali, acetone, ethanol
     * Sparingly soluble in ether; soluble in chloroform, dilute alkalies

   from [5]HSDB

   Spectral Properties

     * Specific optical rotation: -155.3 deg C (c = 3 in methanol)
     * UV max: 285 nm (in acid); 298 nm (in alkali)

   from [6]HSDB

   Vapor Density
        1.5X10-10 mm Hg at 25 deg C (est)
   from [7]HSDB

   Other Chemical/Physical Properties

     * Decomp at 258-259 deg C; crystals from alc; soluble in water
       /Nalorphine hydrobromide/
     * MP: 260-263 deg C; max absorption (water): 285 nm; min: 260 nm; pH
       of 0.5% aqueous solution: 5.0; crystals from alcohol; moderately
       soluble in alcohol; soluble in water /Nalorphine hydrochloride/
     * ODORLESS; WHITE OR PRACTICALLY WHITE, CRYSTALLINE POWDER; INSOL IN
       CHLOROFORM & ETHER; SOL IN DIL ALKALI HYDROXIDE /NALORPHINE
       HYDROCHLORIDE/
     * Henry's Law constant = 1.8X10-16 atm-cu m/mol at 25 deg C (est)
     * Hydroxyl radical reaction rate constant = 3.0X10-10 cu cm/molec-sec
       at 25 deg C (est)

   from [8]HSDB

   Computed Properties
   Molecular Weight                  311.37494 [g/mol]
   Molecular Formula                 C[19]H[21]NO[3]
   XLogP3                            1.9
   H-Bond Donor                      2
   H-Bond Acceptor                   4
   Rotatable Bond Count              2
   Tautomer Count                    2
   Exact Mass                        311.152144
   MonoIsotopic Mass                 311.152144
   Topological Polar Surface Area    52.9
   Heavy Atom Count                  23
   Formal Charge                     0
   Complexity                        549
   Isotope Atom Count                0
   Defined Atom Stereocenter Count   5
   Undefined Atom Stereocenter Count 0
   Defined Bond Stereocenter Count   0
   Undefined Bond Stereocenter Count 0
   Covalently-Bonded Unit Count      1
   Feature 3D Acceptor Count         2
   Feature 3D Donor Count            2
   Feature 3D Cation Count           1
   Feature 3D Hydrophobe Count       1
   Feature 3D Ring Count             5
   Effective Rotor Count             3.2
   Conformer Sampling RMSD           0.6
   CID Conformer Count               [9]5

References

   1. http://toxnet.nlm.nih.gov/cgi-bin/sis/search/r?dbs+hsdb:@term+@rn+@rel+62-67-9
   2. http://toxnet.nlm.nih.gov/cgi-bin/sis/search/r?dbs+hsdb:@term+@rn+@rel+62-67-9
   3. http://toxnet.nlm.nih.gov/cgi-bin/sis/search/r?dbs+hsdb:@term+@rn+@rel+62-67-9
   4. http://toxnet.nlm.nih.gov/cgi-bin/sis/search/r?dbs+hsdb:@term+@rn+@rel+62-67-9
   5. http://toxnet.nlm.nih.gov/cgi-bin/sis/search/r?dbs+hsdb:@term+@rn+@rel+62-67-9
   6. http://toxnet.nlm.nih.gov/cgi-bin/sis/search/r?dbs+hsdb:@term+@rn+@rel+62-67-9
   7. http://toxnet.nlm.nih.gov/cgi-bin/sis/search/r?dbs+hsdb:@term+@rn+@rel+62-67-9
   8. http://toxnet.nlm.nih.gov/cgi-bin/sis/search/r?dbs+hsdb:@term+@rn+@rel+62-67-9
   9. http://pubchem.ncbi.nlm.nih.gov/vw3d/vw3d.cgi?cid=5284595
