124035
  -OEChem-07051212582D

 58 60  0     1  0  0  0  0  0999 V2000
    8.0901    0.1897    0.0000 O   0  0  0  0  0  0  0  0  0  0  0  0
    6.3301   -2.8450    0.0000 O   0  0  0  0  0  0  0  0  0  0  0  0
    4.5981    0.1550    0.0000 O   0  0  0  0  0  0  0  0  0  0  0  0
    8.0785   -2.8796    0.0000 O   0  0  0  0  0  0  0  0  0  0  0  0
   12.4525    1.6892    0.0000 O   0  0  0  0  0  0  0  0  0  0  0  0
    8.9962   -0.3242    0.0000 C   0  0  1  0  0  0  0  0  0  0  0  0
    8.9962   -1.3658    0.0000 C   0  0  0  0  0  0  0  0  0  0  0  0
    7.1962   -0.3450    0.0000 C   0  0  0  0  0  0  0  0  0  0  0  0
    7.1962   -1.3450    0.0000 C   0  0  0  0  0  0  0  0  0  0  0  0
    6.3301    0.1550    0.0000 C   0  0  0  0  0  0  0  0  0  0  0  0
    8.0901   -1.8797    0.0000 C   0  0  0  0  0  0  0  0  0  0  0  0
    5.4641   -1.3450    0.0000 C   0  0  0  0  0  0  0  0  0  0  0  0
    6.3301   -1.8450    0.0000 C   0  0  0  0  0  0  0  0  0  0  0  0
    5.4641   -0.3450    0.0000 C   0  0  0  0  0  0  0  0  0  0  0  0
    9.8602    0.1792    0.0000 C   0  0  0  0  0  0  0  0  0  0  0  0
    6.3301    1.1550    0.0000 C   0  0  0  0  0  0  0  0  0  0  0  0
    4.5981   -1.8450    0.0000 C   0  0  0  0  0  0  0  0  0  0  0  0
   10.7282   -0.3175    0.0000 C   0  0  0  0  0  0  0  0  0  0  0  0
    9.8564    1.1791    0.0000 C   0  0  0  0  0  0  0  0  0  0  0  0
    5.4641    1.6550    0.0000 C   0  0  0  0  0  0  0  0  0  0  0  0
    3.7320   -1.3450    0.0000 C   0  0  0  0  0  0  0  0  0  0  0  0
   11.5923    0.1858    0.0000 C   0  0  0  0  0  0  0  0  0  0  0  0
   10.7205    1.6825    0.0000 C   0  0  0  0  0  0  0  0  0  0  0  0
    5.4641    2.6550    0.0000 C   0  0  0  0  0  0  0  0  0  0  0  0
   11.5884    1.1858    0.0000 C   0  0  0  0  0  0  0  0  0  0  0  0
    2.8660   -1.8450    0.0000 C   0  0  0  0  0  0  0  0  0  0  0  0
    4.5981    3.1550    0.0000 C   0  0  0  0  0  0  0  0  0  0  0  0
    6.3301    3.1550    0.0000 C   0  0  0  0  0  0  0  0  0  0  0  0
    2.0000   -1.3450    0.0000 C   0  0  0  0  0  0  0  0  0  0  0  0
    2.8660   -2.8450    0.0000 C   0  0  0  0  0  0  0  0  0  0  0  0
    8.9926    0.2958    0.0000 H   0  0  0  0  0  0  0  0  0  0  0  0
    9.2052   -1.9495    0.0000 H   0  0  0  0  0  0  0  0  0  0  0  0
    9.6070   -1.2597    0.0000 H   0  0  0  0  0  0  0  0  0  0  0  0
    6.9407    1.0473    0.0000 H   0  0  0  0  0  0  0  0  0  0  0  0
    6.5422    1.7376    0.0000 H   0  0  0  0  0  0  0  0  0  0  0  0
    4.1996   -2.3200    0.0000 H   0  0  0  0  0  0  0  0  0  0  0  0
    4.9966   -2.3200    0.0000 H   0  0  0  0  0  0  0  0  0  0  0  0
   10.7306   -0.9375    0.0000 H   0  0  0  0  0  0  0  0  0  0  0  0
    9.3183    1.4871    0.0000 H   0  0  0  0  0  0  0  0  0  0  0  0
    4.9272    1.3450    0.0000 H   0  0  0  0  0  0  0  0  0  0  0  0
    3.7320   -0.7250    0.0000 H   0  0  0  0  0  0  0  0  0  0  0  0
    5.7932   -3.1550    0.0000 H   0  0  0  0  0  0  0  0  0  0  0  0
    4.0611   -0.1550    0.0000 H   0  0  0  0  0  0  0  0  0  0  0  0
   12.1304   -0.1221    0.0000 H   0  0  0  0  0  0  0  0  0  0  0  0
   10.7181    2.3025    0.0000 H   0  0  0  0  0  0  0  0  0  0  0  0
    6.6401    2.6181    0.0000 H   0  0  0  0  0  0  0  0  0  0  0  0
    6.8671    3.4650    0.0000 H   0  0  0  0  0  0  0  0  0  0  0  0
    6.0201    3.6919    0.0000 H   0  0  0  0  0  0  0  0  0  0  0  0
    4.9081    3.6919    0.0000 H   0  0  0  0  0  0  0  0  0  0  0  0
    4.0611    3.4650    0.0000 H   0  0  0  0  0  0  0  0  0  0  0  0
    4.2881    2.6181    0.0000 H   0  0  0  0  0  0  0  0  0  0  0  0
    2.3100   -0.8081    0.0000 H   0  0  0  0  0  0  0  0  0  0  0  0
    1.4631   -1.0350    0.0000 H   0  0  0  0  0  0  0  0  0  0  0  0
    1.6900   -1.8819    0.0000 H   0  0  0  0  0  0  0  0  0  0  0  0
    2.2460   -2.8450    0.0000 H   0  0  0  0  0  0  0  0  0  0  0  0
    2.8660   -3.4650    0.0000 H   0  0  0  0  0  0  0  0  0  0  0  0
    3.4860   -2.8450    0.0000 H   0  0  0  0  0  0  0  0  0  0  0  0
   12.9907    1.3812    0.0000 H   0  0  0  0  0  0  0  0  0  0  0  0
  1  6  1  0  0  0  0
  1  8  1  0  0  0  0
  2 13  1  0  0  0  0
  2 42  1  0  0  0  0
  3 14  1  0  0  0  0
  3 43  1  0  0  0  0
  4 11  2  0  0  0  0
  5 25  1  0  0  0  0
  5 58  1  0  0  0  0
  6  7  1  0  0  0  0
  6 15  1  6  0  0  0
  6 31  1  0  0  0  0
  7 11  1  0  0  0  0
  7 32  1  0  0  0  0
  7 33  1  0  0  0  0
  8  9  1  0  0  0  0
  8 10  2  0  0  0  0
  9 11  1  0  0  0  0
  9 13  2  0  0  0  0
 10 14  1  0  0  0  0
 10 16  1  0  0  0  0
 12 13  1  0  0  0  0
 12 14  2  0  0  0  0
 12 17  1  0  0  0  0
 15 18  2  0  0  0  0
 15 19  1  0  0  0  0
 16 20  1  0  0  0  0
 16 34  1  0  0  0  0
 16 35  1  0  0  0  0
 17 21  1  0  0  0  0
 17 36  1  0  0  0  0
 17 37  1  0  0  0  0
 18 22  1  0  0  0  0
 18 38  1  0  0  0  0
 19 23  2  0  0  0  0
 19 39  1  0  0  0  0
 20 24  2  0  0  0  0
 20 40  1  0  0  0  0
 21 26  2  0  0  0  0
 21 41  1  0  0  0  0
 22 25  2  0  0  0  0
 22 44  1  0  0  0  0
 23 25  1  0  0  0  0
 23 45  1  0  0  0  0
 24 27  1  0  0  0  0
 24 28  1  0  0  0  0
 26 29  1  0  0  0  0
 26 30  1  0  0  0  0
 27 49  1  0  0  0  0
 27 50  1  0  0  0  0
 27 51  1  0  0  0  0
 28 46  1  0  0  0  0
 28 47  1  0  0  0  0
 28 48  1  0  0  0  0
 29 52  1  0  0  0  0
 29 53  1  0  0  0  0
 29 54  1  0  0  0  0
 30 55  1  0  0  0  0
 30 56  1  0  0  0  0
 30 57  1  0  0  0  0
M  END
> <PUBCHEM_COMPOUND_CID>
124035

> <PUBCHEM_COMPOUND_CANONICALIZED>
1

> <PUBCHEM_CACTVS_COMPLEXITY>
653

> <PUBCHEM_CACTVS_HBOND_ACCEPTOR>
5

> <PUBCHEM_CACTVS_HBOND_DONOR>
3

> <PUBCHEM_CACTVS_ROTATABLE_BOND>
5

> <PUBCHEM_CACTVS_SUBSKEYS>
AAADceB4OAAAAAAAAAAAAAAAAAAAAAAAAAA0YIAAAAAAAACRQAAAGgAACAAADBSgmAIyBoAABgCIAqBSAAACCAAkIAAIiAEGCMgMJzaGNRqCeWCl4BUIuQeI7OzOIAACCAAIAABAAAQQABAAAAAAAAAAAA==

> <PUBCHEM_IUPAC_OPENEYE_NAME>
(2S)-5,7-dihydroxy-2-(4-hydroxyphenyl)-6,8-bis(3-methylbut-2-enyl)chroman-4-one

> <PUBCHEM_IUPAC_CAS_NAME>
(2S)-5,7-dihydroxy-2-(4-hydroxyphenyl)-6,8-bis(3-methylbut-2-enyl)-3,4-dihydro-2H-1-benzopyran-4-one

> <PUBCHEM_IUPAC_NAME>
(2S)-5,7-dihydroxy-2-(4-hydroxyphenyl)-6,8-bis(3-methylbut-2-enyl)-2,3-dihydrochromen-4-one

> <PUBCHEM_IUPAC_SYSTEMATIC_NAME>
(2S)-2-(4-hydroxyphenyl)-6,8-bis(3-methylbut-2-enyl)-5,7-bis(oxidanyl)-2,3-dihydrochromen-4-one

> <PUBCHEM_IUPAC_TRADITIONAL_NAME>
(2S)-5,7-dihydroxy-2-(4-hydroxyphenyl)-6,8-bis(3-methylbut-2-enyl)chroman-4-one

> <PUBCHEM_IUPAC_INCHI>
InChI=1S/C25H28O5/c1-14(2)5-11-18-23(28)19(12-6-15(3)4)25-22(24(18)29)20(27)13-21(30-25)16-7-9-17(26)10-8-16/h5-10,21,26,28-29H,11-13H2,1-4H3/t21-/m0/s1

> <PUBCHEM_IUPAC_INCHIKEY>
HCNLDGTUMBOHKT-NRFANRHFSA-N

> <PUBCHEM_XLOGP3_AA>
6.2

> <PUBCHEM_EXACT_MASS>
408.193674

> <PUBCHEM_MOLECULAR_FORMULA>
C25H28O5

> <PUBCHEM_MOLECULAR_WEIGHT>
408.48682

> <PUBCHEM_OPENEYE_CAN_SMILES>
CC(=CCC1=C(C2=C(C(=C1O)CC=C(C)C)OC(CC2=O)C3=CC=C(C=C3)O)O)C

> <PUBCHEM_OPENEYE_ISO_SMILES>
CC(=CCC1=C(C2=C(C(=C1O)CC=C(C)C)O[C@@H](CC2=O)C3=CC=C(C=C3)O)O)C

> <PUBCHEM_CACTVS_TPSA>
87

> <PUBCHEM_MONOISOTOPIC_WEIGHT>
408.193674

> <PUBCHEM_TOTAL_CHARGE>
0

> <PUBCHEM_HEAVY_ATOM_COUNT>
30

> <PUBCHEM_ATOM_DEF_STEREO_COUNT>
1

> <PUBCHEM_ATOM_UDEF_STEREO_COUNT>
0

> <PUBCHEM_BOND_DEF_STEREO_COUNT>
0

> <PUBCHEM_BOND_UDEF_STEREO_COUNT>
0

> <PUBCHEM_ISOTOPIC_ATOM_COUNT>
0

> <PUBCHEM_COMPONENT_COUNT>
1

> <PUBCHEM_CACTVS_TAUTO_COUNT>
42

> <PUBCHEM_COORDINATE_TYPE>
1
5
255

> <PUBCHEM_BONDANNOTATIONS>
10  14  8
12  13  8
12  14  8
15  18  8
15  19  8
18  22  8
19  23  8
22  25  8
23  25  8
6  15  6
8  10  8
8  9  8
9  13  8

$$$$

