   Color/Form
        Orange to dark red powder
   from [1]HSDB

   Melting Point
        205.5 deg C
   from [2]HSDB

   Dissociation Constants
        pKa = 1.48 (amine) (est)
   from [3]HSDB

   Octanol/Water Partition Coefficient
        log Kow = 4.07 (est)
   from [4]HSDB

   Solubilities

     * Soluble in ethanol, benzene, chloroform,; slightly soluble in
       diethyl ether
     * In water, 0.332 mg/L at 25 deg C

   from [5]HSDB

   Spectral Properties

     * IR: 19527 (Sadtler Research Laboratories Prism Collection)
     * UV: 7792 (Sadtler Research Laboratories Spectral Collection)
     * MASS: 75986 (NIST/EPA/MSDC Mass Spectral Database 1990 version)
     * In 50% ethanol, E485 nm

   from [6]HSDB

   Vapor Pressure
        4.1X10-5 mm Hg at 25 deg C (est)
   from [7]HSDB

   Other Chemical/Physical Properties

     * UV: 1371 (Absorption Spectra in the UV and Visible Regions,
       Academic Press, New York); MP: 181 deg C
       /1-Amino-4-methylanthraquinone/
     * Henry's Law constant = 1.2X10-12 atm-cu m/mole at 25 deg C (est)
     * Hydroxyl radical reaction rate constant = 5.2X10-11 cu cm/molec-sec
       at 25 deg C (est)

   from [8]HSDB

   Computed Properties
   Molecular Weight                  237.25334 [g/mol]
   Molecular Formula                 C[15]H[11]NO[2]
   XLogP3-AA                         3.1
   H-Bond Donor                      1
   H-Bond Acceptor                   3
   Rotatable Bond Count              0
   Tautomer Count                    15
   Exact Mass                        237.078979
   MonoIsotopic Mass                 237.078979
   Topological Polar Surface Area    60.2
   Heavy Atom Count                  18
   Formal Charge                     0
   Complexity                        379
   Isotope Atom Count                0
   Defined Atom Stereocenter Count   0
   Undefined Atom Stereocenter Count 0
   Defined Bond Stereocenter Count   0
   Undefined Bond Stereocenter Count 0
   Covalently-Bonded Unit Count      1
   Feature 3D Acceptor Count         2
   Feature 3D Donor Count            1
   Feature 3D Cation Count           1
   Feature 3D Ring Count             3
   Effective Rotor Count             0
   Conformer Sampling RMSD           0.4
   CID Conformer Count               [9]1

References

   1. http://toxnet.nlm.nih.gov/cgi-bin/sis/search/r?dbs+hsdb:@term+@rn+@rel+82-28-0
   2. http://toxnet.nlm.nih.gov/cgi-bin/sis/search/r?dbs+hsdb:@term+@rn+@rel+82-28-0
   3. http://toxnet.nlm.nih.gov/cgi-bin/sis/search/r?dbs+hsdb:@term+@rn+@rel+82-28-0
   4. http://toxnet.nlm.nih.gov/cgi-bin/sis/search/r?dbs+hsdb:@term+@rn+@rel+82-28-0
   5. http://toxnet.nlm.nih.gov/cgi-bin/sis/search/r?dbs+hsdb:@term+@rn+@rel+82-28-0
   6. http://toxnet.nlm.nih.gov/cgi-bin/sis/search/r?dbs+hsdb:@term+@rn+@rel+82-28-0
   7. http://toxnet.nlm.nih.gov/cgi-bin/sis/search/r?dbs+hsdb:@term+@rn+@rel+82-28-0
   8. http://toxnet.nlm.nih.gov/cgi-bin/sis/search/r?dbs+hsdb:@term+@rn+@rel+82-28-0
   9. http://pubchem.ncbi.nlm.nih.gov/vw3d/vw3d.cgi?cid=6702
