5282292
  -OEChem-07051213042D

128127  0     1  0  0  0  0  0999 V2000
   17.5885    4.0000    0.0000 P   0  0  3  0  0  0  0  0  0  0  0  0
   14.1244    2.0000    0.0000 O   0  0  0  0  0  0  0  0  0  0  0  0
   14.1244    4.0000    0.0000 O   0  0  0  0  0  0  0  0  0  0  0  0
   14.9904    0.5000    0.0000 O   0  0  0  0  0  0  0  0  0  0  0  0
   16.7224    3.5000    0.0000 O   0  0  0  0  0  0  0  0  0  0  0  0
   13.2583    2.5000    0.0000 O   0  0  0  0  0  0  0  0  0  0  0  0
   18.4545    4.5000    0.0000 O   0  0  0  0  0  0  0  0  0  0  0  0
   17.0885    4.8660    0.0000 O   0  0  0  0  0  0  0  0  0  0  0  0
   18.0885    3.1340    0.0000 O   0  0  0  0  0  0  0  0  0  0  0  0
   21.9186    4.5000    0.0000 O   0  0  0  0  0  0  0  0  0  0  0  0
   21.0526    3.0000    0.0000 O   0  0  0  0  0  0  0  0  0  0  0  0
   20.1865    5.5000    0.0000 N   0  0  0  0  0  0  0  0  0  0  0  0
   10.6603   -4.0000    0.0000 C   0  0  0  0  0  0  0  0  0  0  0  0
   10.6603   -5.0000    0.0000 C   0  0  0  0  0  0  0  0  0  0  0  0
   11.5263   -3.5000    0.0000 C   0  0  0  0  0  0  0  0  0  0  0  0
    9.7942   -5.5000    0.0000 C   0  0  0  0  0  0  0  0  0  0  0  0
   11.5263   -2.5000    0.0000 C   0  0  0  0  0  0  0  0  0  0  0  0
    9.7942   -6.5000    0.0000 C   0  0  0  0  0  0  0  0  0  0  0  0
    8.9282   -7.0000    0.0000 C   0  0  0  0  0  0  0  0  0  0  0  0
   12.3923   -2.0000    0.0000 C   0  0  0  0  0  0  0  0  0  0  0  0
    8.9282   -8.0000    0.0000 C   0  0  0  0  0  0  0  0  0  0  0  0
   12.3923   -1.0000    0.0000 C   0  0  0  0  0  0  0  0  0  0  0  0
    8.0622   -8.5000    0.0000 C   0  0  0  0  0  0  0  0  0  0  0  0
   13.2583   -0.5000    0.0000 C   0  0  0  0  0  0  0  0  0  0  0  0
    8.0622   -9.5000    0.0000 C   0  0  0  0  0  0  0  0  0  0  0  0
   13.2583    0.5000    0.0000 C   0  0  0  0  0  0  0  0  0  0  0  0
    9.7942    3.5000    0.0000 C   0  0  0  0  0  0  0  0  0  0  0  0
    8.9282    4.0000    0.0000 C   0  0  0  0  0  0  0  0  0  0  0  0
   10.6603    4.0000    0.0000 C   0  0  0  0  0  0  0  0  0  0  0  0
    3.7320    7.0000    0.0000 C   0  0  0  0  0  0  0  0  0  0  0  0
    4.5981    6.5000    0.0000 C   0  0  0  0  0  0  0  0  0  0  0  0
    8.0622    3.5000    0.0000 C   0  0  0  0  0  0  0  0  0  0  0  0
    3.7320    8.0000    0.0000 C   0  0  0  0  0  0  0  0  0  0  0  0
    4.5981    5.5000    0.0000 C   0  0  0  0  0  0  0  0  0  0  0  0
   11.5263    3.5000    0.0000 C   0  0  0  0  0  0  0  0  0  0  0  0
    7.1962    4.0000    0.0000 C   0  0  0  0  0  0  0  0  0  0  0  0
    7.1962  -10.0000    0.0000 C   0  0  0  0  0  0  0  0  0  0  0  0
    2.8660    8.5000    0.0000 C   0  0  0  0  0  0  0  0  0  0  0  0
    5.4641    5.0000    0.0000 C   0  0  0  0  0  0  0  0  0  0  0  0
   14.1244    1.0000    0.0000 C   0  0  0  0  0  0  0  0  0  0  0  0
   12.3923    4.0000    0.0000 C   0  0  0  0  0  0  0  0  0  0  0  0
    6.3301    3.5000    0.0000 C   0  0  0  0  0  0  0  0  0  0  0  0
    2.8660    9.5000    0.0000 C   0  0  0  0  0  0  0  0  0  0  0  0
    5.4641    4.0000    0.0000 C   0  0  0  0  0  0  0  0  0  0  0  0
   14.9904    3.5000    0.0000 C   0  0  3  0  0  0  0  0  0  0  0  0
   14.9904    2.5000    0.0000 C   0  0  0  0  0  0  0  0  0  0  0  0
   13.2583    3.5000    0.0000 C   0  0  0  0  0  0  0  0  0  0  0  0
   15.8564    4.0000    0.0000 C   0  0  0  0  0  0  0  0  0  0  0  0
    2.0000   10.0000    0.0000 C   0  0  0  0  0  0  0  0  0  0  0  0
   19.3205    4.0000    0.0000 C   0  0  0  0  0  0  0  0  0  0  0  0
   20.1865    4.5000    0.0000 C   0  0  1  0  0  0  0  0  0  0  0  0
   21.0526    4.0000    0.0000 C   0  0  0  0  0  0  0  0  0  0  0  0
   10.4482   -3.4174    0.0000 H   0  0  0  0  0  0  0  0  0  0  0  0
   10.0497   -4.1077    0.0000 H   0  0  0  0  0  0  0  0  0  0  0  0
   10.8723   -5.5826    0.0000 H   0  0  0  0  0  0  0  0  0  0  0  0
   11.2708   -4.8923    0.0000 H   0  0  0  0  0  0  0  0  0  0  0  0
   11.7383   -4.0826    0.0000 H   0  0  0  0  0  0  0  0  0  0  0  0
   12.1369   -3.3923    0.0000 H   0  0  0  0  0  0  0  0  0  0  0  0
    9.5822   -4.9174    0.0000 H   0  0  0  0  0  0  0  0  0  0  0  0
    9.1836   -5.6077    0.0000 H   0  0  0  0  0  0  0  0  0  0  0  0
   11.3142   -1.9174    0.0000 H   0  0  0  0  0  0  0  0  0  0  0  0
   10.9157   -2.6077    0.0000 H   0  0  0  0  0  0  0  0  0  0  0  0
   10.0063   -7.0826    0.0000 H   0  0  0  0  0  0  0  0  0  0  0  0
   10.4048   -6.3923    0.0000 H   0  0  0  0  0  0  0  0  0  0  0  0
    8.7162   -6.4174    0.0000 H   0  0  0  0  0  0  0  0  0  0  0  0
    8.3176   -7.1077    0.0000 H   0  0  0  0  0  0  0  0  0  0  0  0
   12.6044   -2.5826    0.0000 H   0  0  0  0  0  0  0  0  0  0  0  0
   13.0029   -1.8923    0.0000 H   0  0  0  0  0  0  0  0  0  0  0  0
    9.1403   -8.5826    0.0000 H   0  0  0  0  0  0  0  0  0  0  0  0
    9.5388   -7.8923    0.0000 H   0  0  0  0  0  0  0  0  0  0  0  0
   12.1803   -0.4174    0.0000 H   0  0  0  0  0  0  0  0  0  0  0  0
   11.7817   -1.1077    0.0000 H   0  0  0  0  0  0  0  0  0  0  0  0
    7.8501   -7.9174    0.0000 H   0  0  0  0  0  0  0  0  0  0  0  0
    7.4516   -8.6077    0.0000 H   0  0  0  0  0  0  0  0  0  0  0  0
   13.4704   -1.0826    0.0000 H   0  0  0  0  0  0  0  0  0  0  0  0
   13.8689   -0.3923    0.0000 H   0  0  0  0  0  0  0  0  0  0  0  0
    8.2742  -10.0826    0.0000 H   0  0  0  0  0  0  0  0  0  0  0  0
    8.6728   -9.3923    0.0000 H   0  0  0  0  0  0  0  0  0  0  0  0
   13.0463    1.0826    0.0000 H   0  0  0  0  0  0  0  0  0  0  0  0
   12.6477    0.3923    0.0000 H   0  0  0  0  0  0  0  0  0  0  0  0
    9.3957    3.0250    0.0000 H   0  0  0  0  0  0  0  0  0  0  0  0
   10.1928    3.0250    0.0000 H   0  0  0  0  0  0  0  0  0  0  0  0
    9.3267    4.4750    0.0000 H   0  0  0  0  0  0  0  0  0  0  0  0
    8.5297    4.4750    0.0000 H   0  0  0  0  0  0  0  0  0  0  0  0
   11.0588    4.4750    0.0000 H   0  0  0  0  0  0  0  0  0  0  0  0
   10.2617    4.4750    0.0000 H   0  0  0  0  0  0  0  0  0  0  0  0
    3.1215    7.1077    0.0000 H   0  0  0  0  0  0  0  0  0  0  0  0
    3.5200    6.4174    0.0000 H   0  0  0  0  0  0  0  0  0  0  0  0
    5.2087    6.3923    0.0000 H   0  0  0  0  0  0  0  0  0  0  0  0
    4.8101    7.0826    0.0000 H   0  0  0  0  0  0  0  0  0  0  0  0
    7.6636    3.0250    0.0000 H   0  0  0  0  0  0  0  0  0  0  0  0
    8.4607    3.0250    0.0000 H   0  0  0  0  0  0  0  0  0  0  0  0
    4.3426    7.8923    0.0000 H   0  0  0  0  0  0  0  0  0  0  0  0
    3.9441    8.5826    0.0000 H   0  0  0  0  0  0  0  0  0  0  0  0
    3.9875    5.6077    0.0000 H   0  0  0  0  0  0  0  0  0  0  0  0
    4.3860    4.9174    0.0000 H   0  0  0  0  0  0  0  0  0  0  0  0
   11.1278    3.0250    0.0000 H   0  0  0  0  0  0  0  0  0  0  0  0
   11.9248    3.0250    0.0000 H   0  0  0  0  0  0  0  0  0  0  0  0
    7.5947    4.4750    0.0000 H   0  0  0  0  0  0  0  0  0  0  0  0
    6.7976    4.4750    0.0000 H   0  0  0  0  0  0  0  0  0  0  0  0
    6.8862   -9.4631    0.0000 H   0  0  0  0  0  0  0  0  0  0  0  0
    6.6592  -10.3100    0.0000 H   0  0  0  0  0  0  0  0  0  0  0  0
    7.5062  -10.5369    0.0000 H   0  0  0  0  0  0  0  0  0  0  0  0
    2.2554    8.6077    0.0000 H   0  0  0  0  0  0  0  0  0  0  0  0
    2.6540    7.9174    0.0000 H   0  0  0  0  0  0  0  0  0  0  0  0
    6.0747    4.8923    0.0000 H   0  0  0  0  0  0  0  0  0  0  0  0
    5.6762    5.5826    0.0000 H   0  0  0  0  0  0  0  0  0  0  0  0
   12.7908    4.4750    0.0000 H   0  0  0  0  0  0  0  0  0  0  0  0
   11.9938    4.4750    0.0000 H   0  0  0  0  0  0  0  0  0  0  0  0
    6.3301    2.8800    0.0000 H   0  0  0  0  0  0  0  0  0  0  0  0
    3.4766    9.3923    0.0000 H   0  0  0  0  0  0  0  0  0  0  0  0
    3.0781   10.0826    0.0000 H   0  0  0  0  0  0  0  0  0  0  0  0
    4.9272    3.6900    0.0000 H   0  0  0  0  0  0  0  0  0  0  0  0
   14.9904    4.3500    0.0000 H   0  0  0  0  0  0  0  0  0  0  0  0
   15.2024    1.9174    0.0000 H   0  0  0  0  0  0  0  0  0  0  0  0
   15.6010    2.6077    0.0000 H   0  0  0  0  0  0  0  0  0  0  0  0
   16.2549    4.4750    0.0000 H   0  0  0  0  0  0  0  0  0  0  0  0
   15.4579    4.4750    0.0000 H   0  0  0  0  0  0  0  0  0  0  0  0
    2.3100   10.5369    0.0000 H   0  0  0  0  0  0  0  0  0  0  0  0
    1.4631   10.3100    0.0000 H   0  0  0  0  0  0  0  0  0  0  0  0
    1.6900    9.4631    0.0000 H   0  0  0  0  0  0  0  0  0  0  0  0
   18.9220    3.5250    0.0000 H   0  0  0  0  0  0  0  0  0  0  0  0
   19.7190    3.5250    0.0000 H   0  0  0  0  0  0  0  0  0  0  0  0
   17.3985    5.4030    0.0000 H   0  0  0  0  0  0  0  0  0  0  0  0
   19.6496    4.8100    0.0000 H   0  0  0  0  0  0  0  0  0  0  0  0
   20.7235    5.8100    0.0000 H   0  0  0  0  0  0  0  0  0  0  0  0
   19.6496    5.8100    0.0000 H   0  0  0  0  0  0  0  0  0  0  0  0
   22.4555    4.1900    0.0000 H   0  0  0  0  0  0  0  0  0  0  0  0
  1  5  1  0  0  0  0
  1  7  1  0  0  0  0
  1  8  1  0  0  0  0
  1  9  2  0  0  0  0
  2 40  1  0  0  0  0
  2 46  1  0  0  0  0
  3 45  1  0  0  0  0
  3 47  1  0  0  0  0
  4 40  2  0  0  0  0
  5 48  1  0  0  0  0
  6 47  2  0  0  0  0
  7 50  1  0  0  0  0
  8124  1  0  0  0  0
 10 52  1  0  0  0  0
 10128  1  0  0  0  0
 11 52  2  0  0  0  0
 51 12  1  6  0  0  0
 12126  1  0  0  0  0
 12127  1  0  0  0  0
 13 14  1  0  0  0  0
 13 15  1  0  0  0  0
 13 53  1  0  0  0  0
 13 54  1  0  0  0  0
 14 16  1  0  0  0  0
 14 55  1  0  0  0  0
 14 56  1  0  0  0  0
 15 17  1  0  0  0  0
 15 57  1  0  0  0  0
 15 58  1  0  0  0  0
 16 18  1  0  0  0  0
 16 59  1  0  0  0  0
 16 60  1  0  0  0  0
 17 20  1  0  0  0  0
 17 61  1  0  0  0  0
 17 62  1  0  0  0  0
 18 19  1  0  0  0  0
 18 63  1  0  0  0  0
 18 64  1  0  0  0  0
 19 21  1  0  0  0  0
 19 65  1  0  0  0  0
 19 66  1  0  0  0  0
 20 22  1  0  0  0  0
 20 67  1  0  0  0  0
 20 68  1  0  0  0  0
 21 23  1  0  0  0  0
 21 69  1  0  0  0  0
 21 70  1  0  0  0  0
 22 24  1  0  0  0  0
 22 71  1  0  0  0  0
 22 72  1  0  0  0  0
 23 25  1  0  0  0  0
 23 73  1  0  0  0  0
 23 74  1  0  0  0  0
 24 26  1  0  0  0  0
 24 75  1  0  0  0  0
 24 76  1  0  0  0  0
 25 37  1  0  0  0  0
 25 77  1  0  0  0  0
 25 78  1  0  0  0  0
 26 40  1  0  0  0  0
 26 79  1  0  0  0  0
 26 80  1  0  0  0  0
 27 28  1  0  0  0  0
 27 29  1  0  0  0  0
 27 81  1  0  0  0  0
 27 82  1  0  0  0  0
 28 32  1  0  0  0  0
 28 83  1  0  0  0  0
 28 84  1  0  0  0  0
 29 35  1  0  0  0  0
 29 85  1  0  0  0  0
 29 86  1  0  0  0  0
 30 31  1  0  0  0  0
 30 33  1  0  0  0  0
 30 87  1  0  0  0  0
 30 88  1  0  0  0  0
 31 34  1  0  0  0  0
 31 89  1  0  0  0  0
 31 90  1  0  0  0  0
 32 36  1  0  0  0  0
 32 91  1  0  0  0  0
 32 92  1  0  0  0  0
 33 38  1  0  0  0  0
 33 93  1  0  0  0  0
 33 94  1  0  0  0  0
 34 39  1  0  0  0  0
 34 95  1  0  0  0  0
 34 96  1  0  0  0  0
 35 41  1  0  0  0  0
 35 97  1  0  0  0  0
 35 98  1  0  0  0  0
 36 42  1  0  0  0  0
 36 99  1  0  0  0  0
 36100  1  0  0  0  0
 37101  1  0  0  0  0
 37102  1  0  0  0  0
 37103  1  0  0  0  0
 38 43  1  0  0  0  0
 38104  1  0  0  0  0
 38105  1  0  0  0  0
 39 44  1  0  0  0  0
 39106  1  0  0  0  0
 39107  1  0  0  0  0
 41 47  1  0  0  0  0
 41108  1  0  0  0  0
 41109  1  0  0  0  0
 42 44  2  0  0  0  0
 42110  1  0  0  0  0
 43 49  1  0  0  0  0
 43111  1  0  0  0  0
 43112  1  0  0  0  0
 44113  1  0  0  0  0
 45 46  1  0  0  0  0
 45 48  1  0  0  0  0
 45114  1  0  0  0  0
 46115  1  0  0  0  0
 46116  1  0  0  0  0
 48117  1  0  0  0  0
 48118  1  0  0  0  0
 49119  1  0  0  0  0
 49120  1  0  0  0  0
 49121  1  0  0  0  0
 50 51  1  0  0  0  0
 50122  1  0  0  0  0
 50123  1  0  0  0  0
 51 52  1  0  0  0  0
 51125  1  0  0  0  0
M  END
> <PUBCHEM_COMPOUND_CID>
5282292

> <PUBCHEM_COMPOUND_CANONICALIZED>
1

> <PUBCHEM_CACTVS_COMPLEXITY>
947

> <PUBCHEM_CACTVS_HBOND_ACCEPTOR>
11

> <PUBCHEM_CACTVS_HBOND_DONOR>
3

> <PUBCHEM_CACTVS_ROTATABLE_BOND>
41

> <PUBCHEM_CACTVS_SUBSKEYS>
AAADcfB+PAIAAAAAAAAAAAAAAAAAAAAAAAAAAAAAAAAAAAAAAAAAHgAQCCAACDzhgAYCCABABxCIQCDSCIAAAAAgAAAICIGAAAgDABYAAQACQAAFsAAKAAOIyKCAAAAAAAAAAAAAAAAAAAAAAAAAAAAAAA==

> <PUBCHEM_IUPAC_OPENEYE_NAME>
(2S)-2-amino-3-[[3-hexadecanoyloxy-2-[(Z)-octadec-9-enoyl]oxy-propoxy]-hydroxy-phosphoryl]oxy-propanoic acid

> <PUBCHEM_IUPAC_CAS_NAME>
(2S)-2-amino-3-[hydroxy-[3-(1-oxohexadecoxy)-2-[(Z)-1-oxooctadec-9-enoxy]propoxy]phosphoryl]oxypropanoic acid

> <PUBCHEM_IUPAC_NAME>
(2S)-2-amino-3-[[3-hexadecanoyloxy-2-[(Z)-octadec-9-enoyl]oxypropoxy]-hydroxyphosphoryl]oxypropanoic acid

> <PUBCHEM_IUPAC_SYSTEMATIC_NAME>
(2S)-2-azanyl-3-[[3-hexadecanoyloxy-2-[(Z)-octadec-9-enoyl]oxy-propoxy]-oxidanyl-phosphoryl]oxy-propanoic acid

> <PUBCHEM_IUPAC_TRADITIONAL_NAME>
(2S)-2-amino-3-[[3-hexadecanoyloxy-2-[(Z)-octadec-9-enoyl]oxy-propoxy]-hydroxy-phosphoryl]oxy-propionic acid

> <PUBCHEM_IUPAC_INCHI>
InChI=1S/C40H76NO10P/c1-3-5-7-9-11-13-15-17-18-20-22-24-26-28-30-32-39(43)51-36(34-49-52(46,47)50-35-37(41)40(44)45)33-48-38(42)31-29-27-25-23-21-19-16-14-12-10-8-6-4-2/h17-18,36-37H,3-16,19-35,41H2,1-2H3,(H,44,45)(H,46,47)/b18-17-/t36?,37-/m0/s1

> <PUBCHEM_IUPAC_INCHIKEY>
OIWCYIUQAVBPGV-VCRPNNHXSA-N

> <PUBCHEM_XLOGP3_AA>
10

> <PUBCHEM_EXACT_MASS>
761.520684

> <PUBCHEM_MOLECULAR_FORMULA>
C40H76NO10P

> <PUBCHEM_MOLECULAR_WEIGHT>
762.005902

> <PUBCHEM_OPENEYE_CAN_SMILES>
CCCCCCCCCCCCCCCC(=O)OCC(COP(=O)(O)OCC(C(=O)O)N)OC(=O)CCCCCCCC=CCCCCCCCC

> <PUBCHEM_OPENEYE_ISO_SMILES>
CCCCCCCCCCCCCCCC(=O)OCC(COP(=O)(O)OC[C@@H](C(=O)O)N)OC(=O)CCCCCCC/C=C\CCCCCCCC

> <PUBCHEM_CACTVS_TPSA>
172

> <PUBCHEM_MONOISOTOPIC_WEIGHT>
761.520684

> <PUBCHEM_TOTAL_CHARGE>
0

> <PUBCHEM_HEAVY_ATOM_COUNT>
52

> <PUBCHEM_ATOM_DEF_STEREO_COUNT>
1

> <PUBCHEM_ATOM_UDEF_STEREO_COUNT>
1

> <PUBCHEM_BOND_DEF_STEREO_COUNT>
1

> <PUBCHEM_BOND_UDEF_STEREO_COUNT>
0

> <PUBCHEM_ISOTOPIC_ATOM_COUNT>
0

> <PUBCHEM_COMPONENT_COUNT>
1

> <PUBCHEM_CACTVS_TAUTO_COUNT>
1

> <PUBCHEM_COORDINATE_TYPE>
1
5
255

> <PUBCHEM_BONDANNOTATIONS>
51  12  6
45  114  3

$$$$

