53297344
  -OEChem-07051212512D

 27 27  0     1  0  0  0  0  0999 V2000
    2.0000   -1.1790    0.0000 O   0  0  0  0  0  0  0  0  0  0  0  0
    5.3692    2.2689    0.0000 O   0  0  0  0  0  0  0  0  0  0  0  0
    3.6372    2.2689    0.0000 O   0  0  0  0  0  0  0  0  0  0  0  0
    4.0032   -1.7699    0.0000 C   0  0  2  0  0  0  0  0  0  0  0  0
    3.6942   -0.8189    0.0000 C   0  0  2  0  0  0  0  0  0  0  0  0
    4.5032   -0.2311    0.0000 C   0  0  2  0  0  0  0  0  0  0  0  0
    5.0032   -1.7699    0.0000 C   0  0  0  0  0  0  0  0  0  0  0  0
    5.3122   -0.8189    0.0000 C   0  0  0  0  0  0  0  0  0  0  0  0
    3.4154   -2.5789    0.0000 C   0  0  0  0  0  0  0  0  0  0  0  0
    4.5032    0.7689    0.0000 C   0  0  0  0  0  0  0  0  0  0  0  0
    2.7431   -0.5098    0.0000 C   0  0  0  0  0  0  0  0  0  0  0  0
    5.3692    1.2689    0.0000 C   0  0  0  0  0  0  0  0  0  0  0  0
    3.6372    1.2689    0.0000 C   0  0  0  0  0  0  0  0  0  0  0  0
    3.3908   -1.6729    0.0000 H   0  0  0  0  0  0  0  0  0  0  0  0
    3.2558   -1.2573    0.0000 H   0  0  0  0  0  0  0  0  0  0  0  0
    3.9508    0.0504    0.0000 H   0  0  0  0  0  0  0  0  0  0  0  0
    4.9384   -2.3865    0.0000 H   0  0  0  0  0  0  0  0  0  0  0  0
    5.6097   -1.8988    0.0000 H   0  0  0  0  0  0  0  0  0  0  0  0
    5.8786   -1.0710    0.0000 H   0  0  0  0  0  0  0  0  0  0  0  0
    5.6222   -0.2819    0.0000 H   0  0  0  0  0  0  0  0  0  0  0  0
    2.9138   -2.2145    0.0000 H   0  0  0  0  0  0  0  0  0  0  0  0
    3.0510   -3.0805    0.0000 H   0  0  0  0  0  0  0  0  0  0  0  0
    3.9170   -2.9434    0.0000 H   0  0  0  0  0  0  0  0  0  0  0  0
    2.6142    0.0966    0.0000 H   0  0  0  0  0  0  0  0  0  0  0  0
    5.9062    0.9589    0.0000 H   0  0  0  0  0  0  0  0  0  0  0  0
    3.1003    0.9589    0.0000 H   0  0  0  0  0  0  0  0  0  0  0  0
    5.9062    2.5789    0.0000 H   0  0  0  0  0  0  0  0  0  0  0  0
  1 11  2  0  0  0  0
  2 12  1  0  0  0  0
  2 27  1  0  0  0  0
  3 13  2  0  0  0  0
  4  5  1  0  0  0  0
  4  7  1  0  0  0  0
  4  9  1  6  0  0  0
  4 14  1  0  0  0  0
  5  6  1  0  0  0  0
  5 11  1  1  0  0  0
  5 15  1  0  0  0  0
  6  8  1  0  0  0  0
  6 10  1  1  0  0  0
  6 16  1  0  0  0  0
  7  8  1  0  0  0  0
  7 17  1  0  0  0  0
  7 18  1  0  0  0  0
  8 19  1  0  0  0  0
  8 20  1  0  0  0  0
  9 21  1  0  0  0  0
  9 22  1  0  0  0  0
  9 23  1  0  0  0  0
 10 12  2  0  0  0  0
 10 13  1  0  0  0  0
 11 24  1  0  0  0  0
 12 25  1  0  0  0  0
 13 26  1  0  0  0  0
M  END
> <PUBCHEM_COMPOUND_CID>
53297344

> <PUBCHEM_COMPOUND_CANONICALIZED>
1

> <PUBCHEM_CACTVS_COMPLEXITY>
232

> <PUBCHEM_CACTVS_HBOND_ACCEPTOR>
3

> <PUBCHEM_CACTVS_HBOND_DONOR>
1

> <PUBCHEM_CACTVS_ROTATABLE_BOND>
3

> <PUBCHEM_CACTVS_SUBSKEYS>
AAADccBwMAAAAAAAAAAAAAAAAAAAAYAAAAAAAAAAAAAAAAAAAAAAGgAACAAADQCggAICAAAAAgCIAghSgAAAAAAgIAAAAAEAAEgAEBIAAQAAAAAAgAAAAIEIisCOgAAAAAAAAAAAAAAAAAAAAQAACAAAAA==

> <PUBCHEM_IUPAC_OPENEYE_NAME>
(1R,2S,5S)-2-[(Z)-1-formyl-2-hydroxy-vinyl]-5-methyl-cyclopentanecarbaldehyde

> <PUBCHEM_IUPAC_CAS_NAME>
(1R,2S,5S)-2-[(Z)-1-hydroxy-3-oxoprop-1-en-2-yl]-5-methyl-1-cyclopentanecarboxaldehyde

> <PUBCHEM_IUPAC_NAME>
(1R,2S,5S)-2-[(Z)-1-hydroxy-3-oxoprop-1-en-2-yl]-5-methylcyclopentane-1-carbaldehyde

> <PUBCHEM_IUPAC_SYSTEMATIC_NAME>
(1R,2S,5S)-2-methyl-5-[(Z)-1-oxidanyl-3-oxidanylidene-prop-1-en-2-yl]cyclopentane-1-carbaldehyde

> <PUBCHEM_IUPAC_TRADITIONAL_NAME>
(1R,2S,5S)-2-[(Z)-1-formyl-2-hydroxy-vinyl]-5-methyl-cyclopentanecarbaldehyde

> <PUBCHEM_IUPAC_INCHI>
InChI=1S/C10H14O3/c1-7-2-3-9(10(7)6-13)8(4-11)5-12/h4-7,9-11H,2-3H2,1H3/b8-4+/t7-,9+,10+/m0/s1

> <PUBCHEM_IUPAC_INCHIKEY>
PFGBAVLSGZLAAY-JYPFKNLRSA-N

> <PUBCHEM_XLOGP3_AA>
1.3

> <PUBCHEM_EXACT_MASS>
182.094294

> <PUBCHEM_MOLECULAR_FORMULA>
C10H14O3

> <PUBCHEM_MOLECULAR_WEIGHT>
182.21636

> <PUBCHEM_OPENEYE_CAN_SMILES>
CC1CCC(C1C=O)C(=CO)C=O

> <PUBCHEM_OPENEYE_ISO_SMILES>
C[C@H]1CC[C@@H]([C@@H]1C=O)/C(=C/O)/C=O

> <PUBCHEM_CACTVS_TPSA>
54.4

> <PUBCHEM_MONOISOTOPIC_WEIGHT>
182.094294

> <PUBCHEM_TOTAL_CHARGE>
0

> <PUBCHEM_HEAVY_ATOM_COUNT>
13

> <PUBCHEM_ATOM_DEF_STEREO_COUNT>
3

> <PUBCHEM_ATOM_UDEF_STEREO_COUNT>
0

> <PUBCHEM_BOND_DEF_STEREO_COUNT>
1

> <PUBCHEM_BOND_UDEF_STEREO_COUNT>
0

> <PUBCHEM_ISOTOPIC_ATOM_COUNT>
0

> <PUBCHEM_COMPONENT_COUNT>
1

> <PUBCHEM_CACTVS_TAUTO_COUNT>
4

> <PUBCHEM_COORDINATE_TYPE>
1
5
255

> <PUBCHEM_BONDANNOTATIONS>
4  9  6
5  11  5
6  10  5

$$$$

