   Color/Form

     * Light brown or amber-colored crystalline mass
     * NEEDLES FROM PETROLEUM ETHER

   from [1]HSDB

   Boiling Point
        251 deg C
   from [2]HSDB

   Melting Point
        50 deg C
   from [3]HSDB

   Octanol/Water Partition Coefficient
        log Kow= 2.92
   from [4]HSDB

   Solubilities

     * Sol in dilute hydrochloric acid
     * Slightly soluble in water; soluble in ethanol, ethyl ether, banzene

   from [5]HSDB

   Spectral Properties

     * MAX ABSORPTION (WATER): 293 NM (LOG E= 2.45)
     * IR: 8093 (Sadtler Research Laboratories IR Grating Collection)
     * UV: 253 (Sadtler Research Laboratories Spectral Collection)
     * MASS: 619 (National Bureau of Standards EPA-NIH Mass Spectra Data
       Base, NSRDS-NBS-63)
     * NMR: 58 (Sadtler Research Laboratories Spectral Collection)

   from [6]HSDB

   Computed Properties
   Molecular Weight                  162.0166 [g/mol]
   Molecular Formula                 C[6]H[5]Cl[2]N
   XLogP3                            2.9
   H-Bond Donor                      1
   H-Bond Acceptor                   1
   Rotatable Bond Count              0
   Exact Mass                        160.979905
   MonoIsotopic Mass                 160.979905
   Topological Polar Surface Area    26
   Heavy Atom Count                  9
   Formal Charge                     0
   Complexity                        97.1
   Isotope Atom Count                0
   Defined Atom Stereocenter Count   0
   Undefined Atom Stereocenter Count 0
   Defined Bond Stereocenter Count   0
   Undefined Bond Stereocenter Count 0
   Covalently-Bonded Unit Count      1
   Feature 3D Donor Count            1
   Feature 3D Cation Count           1
   Feature 3D Ring Count             1
   Effective Rotor Count             0
   Conformer Sampling RMSD           0.4
   CID Conformer Count               [7]1

References

   1. http://toxnet.nlm.nih.gov/cgi-bin/sis/search/r?dbs+hsdb:@term+@rn+@rel+95-82-9
   2. http://toxnet.nlm.nih.gov/cgi-bin/sis/search/r?dbs+hsdb:@term+@rn+@rel+95-82-9
   3. http://toxnet.nlm.nih.gov/cgi-bin/sis/search/r?dbs+hsdb:@term+@rn+@rel+95-82-9
   4. http://toxnet.nlm.nih.gov/cgi-bin/sis/search/r?dbs+hsdb:@term+@rn+@rel+95-82-9
   5. http://toxnet.nlm.nih.gov/cgi-bin/sis/search/r?dbs+hsdb:@term+@rn+@rel+95-82-9
   6. http://toxnet.nlm.nih.gov/cgi-bin/sis/search/r?dbs+hsdb:@term+@rn+@rel+95-82-9
   7. http://pubchem.ncbi.nlm.nih.gov/vw3d/vw3d.cgi?cid=7262
