   Chemical and Physical Properties References

   [1]USDA ARS - USDA chemical properties
   from [2]ChemIDplus

   Color/Form
        White needles
   from [3]HSDB

   Boiling Point
        325 DEG C
   from [4]HSDB

   Melting Point
        231.8 DEG C
   from [5]HSDB

   Density/Specific Gravity
        2.044 g/cu-cm at 23 deg C
   from [6]HSDB

   Heat of Combustion
        -2372 kJ/mol
   from [7]HSDB

   Octanol/Water Partition Coefficient
        log Kow= 5.73
   from [8]HSDB

   Solubilities

     * Sparingly soluble in cold alcohol; soluble in benzene, chloroform,
       and ether.
     * Sol in carbon disulfide; sparingly sol in carbon tetrachloride
     * In water, 4.7X10-3 mg/l at 25 deg C.

   from [9]HSDB

   Spectral Properties

     * MAX ABSORPTION (ISOOCTANE): 291 NM (LOG E= 2.32); 301 NM (LOG E=
       2.25)
     * Intense mass spectral peaks: 284 m/z (100%), 286 m/z (82%), 282 m/z
       (52%), 288 m/z (35%)
     * IR: 410 (Sadtler Research Laboratories IR Grating Collection)
     * UV: 5-44 (Organic Electronic Spectral Data, Phillips et al, John
       Wiley & Sons, New York)
     * MASS: 1858 (Atlas of Mass Spectral Data, John Wiley & Sons, New
       York)
     * Intense mass spectral peaks: 142 m/z, 177 m/z, 212 m/z, 247 m/z

   from [10]HSDB

   Vapor Density
        9.83
   from [11]HSDB

   Vapor Pressure
        4.9X10-5 mm Hg at 25 deg C /calculated from experimentally derived
   coefficients/
   from [12]HSDB

   Other Chemical/Physical Properties

     * Sublimes at 322 deg C
     * MELTING POINT: 200 DEG C /TECHNICAL PRODUCT/
     * 1 ppm = 11.65 mg/cu m at 25 deg C, 760 torr
     * Henry's Law constant = 5.8X10-4 atm-cu m/mol at 25 deg C.

   from [13]HSDB

   Computed Properties
   Molecular Weight                  284.7822 [g/mol]
   Molecular Formula                 C[6]Cl[6]
   XLogP3                            5.7
   H-Bond Donor                      0
   H-Bond Acceptor                   0
   Rotatable Bond Count              0
   Exact Mass                        283.810166
   MonoIsotopic Mass                 281.813116
   Topological Polar Surface Area    0
   Heavy Atom Count                  12
   Formal Charge                     0
   Complexity                        104
   Isotope Atom Count                0
   Defined Atom Stereocenter Count   0
   Undefined Atom Stereocenter Count 0
   Defined Bond Stereocenter Count   0
   Undefined Bond Stereocenter Count 0
   Covalently-Bonded Unit Count      1
   Feature 3D Ring Count             1
   Effective Rotor Count             0
   Conformer Sampling RMSD           0.4
   CID Conformer Count               [14]1

References

   1. http://www.ars.usda.gov/SP2UserFiles/ad_hoc/12755100DatabaseFiles/PesticidePropertiesDatabase/IndividualPesticideFiles/HEXACHLOROBENZENE(HCB).TXT
   2. http://chem.sis.nlm.nih.gov/chemidplus/
   3. http://toxnet.nlm.nih.gov/cgi-bin/sis/search/r?dbs+hsdb:@term+@rn+@rel+118-74-1
   4. http://toxnet.nlm.nih.gov/cgi-bin/sis/search/r?dbs+hsdb:@term+@rn+@rel+118-74-1
   5. http://toxnet.nlm.nih.gov/cgi-bin/sis/search/r?dbs+hsdb:@term+@rn+@rel+118-74-1
   6. http://toxnet.nlm.nih.gov/cgi-bin/sis/search/r?dbs+hsdb:@term+@rn+@rel+118-74-1
   7. http://toxnet.nlm.nih.gov/cgi-bin/sis/search/r?dbs+hsdb:@term+@rn+@rel+118-74-1
   8. http://toxnet.nlm.nih.gov/cgi-bin/sis/search/r?dbs+hsdb:@term+@rn+@rel+118-74-1
   9. http://toxnet.nlm.nih.gov/cgi-bin/sis/search/r?dbs+hsdb:@term+@rn+@rel+118-74-1
  10. http://toxnet.nlm.nih.gov/cgi-bin/sis/search/r?dbs+hsdb:@term+@rn+@rel+118-74-1
  11. http://toxnet.nlm.nih.gov/cgi-bin/sis/search/r?dbs+hsdb:@term+@rn+@rel+118-74-1
  12. http://toxnet.nlm.nih.gov/cgi-bin/sis/search/r?dbs+hsdb:@term+@rn+@rel+118-74-1
  13. http://toxnet.nlm.nih.gov/cgi-bin/sis/search/r?dbs+hsdb:@term+@rn+@rel+118-74-1
  14. http://pubchem.ncbi.nlm.nih.gov/vw3d/vw3d.cgi?cid=8370
