5282225
  -OEChem-07051213032D

 40 40  0     1  0  0  0  0  0999 V2000
    3.6200    0.2010    0.0000 O   0  0  0  0  0  0  0  0  0  0  0  0
    4.1200   -3.6651    0.0000 O   0  0  0  0  0  0  0  0  0  0  0  0
    2.6200    3.6651    0.0000 O   0  0  0  0  0  0  0  0  0  0  0  0
    3.2540   -1.1651    0.0000 C   0  0  0  0  0  0  0  0  0  0  0  0
    4.1200   -0.6651    0.0000 C   0  0  1  0  0  0  0  0  0  0  0  0
    3.2540   -2.1651    0.0000 C   0  0  0  0  0  0  0  0  0  0  0  0
    4.9860   -1.1651    0.0000 C   0  0  0  0  0  0  0  0  0  0  0  0
    2.2540   -1.1651    0.0000 C   0  0  0  0  0  0  0  0  0  0  0  0
    2.4879   -0.5223    0.0000 C   0  0  0  0  0  0  0  0  0  0  0  0
    4.1200   -2.6651    0.0000 C   0  0  0  0  0  0  0  0  0  0  0  0
    4.6200    0.2010    0.0000 C   0  0  0  0  0  0  0  0  0  0  0  0
    4.9860   -2.1651    0.0000 C   0  0  0  0  0  0  0  0  0  0  0  0
    5.8520   -0.6651    0.0000 C   0  0  0  0  0  0  0  0  0  0  0  0
    4.1200    1.0670    0.0000 C   0  0  0  0  0  0  0  0  0  0  0  0
    4.6200    1.9330    0.0000 C   0  0  0  0  0  0  0  0  0  0  0  0
    5.6200    1.9330    0.0000 C   0  0  0  0  0  0  0  0  0  0  0  0
    4.1200    2.7990    0.0000 C   0  0  0  0  0  0  0  0  0  0  0  0
    3.1200    2.7990    0.0000 C   0  0  0  0  0  0  0  0  0  0  0  0
    2.6434   -2.0574    0.0000 H   0  0  0  0  0  0  0  0  0  0  0  0
    3.0419   -2.7477    0.0000 H   0  0  0  0  0  0  0  0  0  0  0  0
    2.2540   -0.5451    0.0000 H   0  0  0  0  0  0  0  0  0  0  0  0
    1.6340   -1.1651    0.0000 H   0  0  0  0  0  0  0  0  0  0  0  0
    2.2540   -1.7851    0.0000 H   0  0  0  0  0  0  0  0  0  0  0  0
    2.8865   -0.0473    0.0000 H   0  0  0  0  0  0  0  0  0  0  0  0
    2.0130   -0.1237    0.0000 H   0  0  0  0  0  0  0  0  0  0  0  0
    2.0894   -0.9972    0.0000 H   0  0  0  0  0  0  0  0  0  0  0  0
    5.2400    0.2010    0.0000 H   0  0  0  0  0  0  0  0  0  0  0  0
    5.5230   -2.4751    0.0000 H   0  0  0  0  0  0  0  0  0  0  0  0
    3.0000    0.2010    0.0000 H   0  0  0  0  0  0  0  0  0  0  0  0
    6.1620   -1.2020    0.0000 H   0  0  0  0  0  0  0  0  0  0  0  0
    6.3890   -0.3551    0.0000 H   0  0  0  0  0  0  0  0  0  0  0  0
    5.5420   -0.1281    0.0000 H   0  0  0  0  0  0  0  0  0  0  0  0
    3.5000    1.0670    0.0000 H   0  0  0  0  0  0  0  0  0  0  0  0
    5.6200    1.3130    0.0000 H   0  0  0  0  0  0  0  0  0  0  0  0
    6.2400    1.9330    0.0000 H   0  0  0  0  0  0  0  0  0  0  0  0
    5.6200    2.5530    0.0000 H   0  0  0  0  0  0  0  0  0  0  0  0
    4.4300    3.3360    0.0000 H   0  0  0  0  0  0  0  0  0  0  0  0
    2.5374    2.5870    0.0000 H   0  0  0  0  0  0  0  0  0  0  0  0
    3.2277    2.1885    0.0000 H   0  0  0  0  0  0  0  0  0  0  0  0
    2.0000    3.6651    0.0000 H   0  0  0  0  0  0  0  0  0  0  0  0
  5  1  1  6  0  0  0
  1 29  1  0  0  0  0
  2 10  2  0  0  0  0
  3 18  1  0  0  0  0
  3 40  1  0  0  0  0
  4  5  1  0  0  0  0
  4  6  1  0  0  0  0
  4  8  1  0  0  0  0
  4  9  1  0  0  0  0
  5  7  1  0  0  0  0
  5 11  1  0  0  0  0
  6 10  1  0  0  0  0
  6 19  1  0  0  0  0
  6 20  1  0  0  0  0
  7 12  2  0  0  0  0
  7 13  1  0  0  0  0
  8 21  1  0  0  0  0
  8 22  1  0  0  0  0
  8 23  1  0  0  0  0
  9 24  1  0  0  0  0
  9 25  1  0  0  0  0
  9 26  1  0  0  0  0
 10 12  1  0  0  0  0
 11 14  2  0  0  0  0
 11 27  1  0  0  0  0
 12 28  1  0  0  0  0
 13 30  1  0  0  0  0
 13 31  1  0  0  0  0
 13 32  1  0  0  0  0
 14 15  1  0  0  0  0
 14 33  1  0  0  0  0
 15 16  1  0  0  0  0
 15 17  2  0  0  0  0
 16 34  1  0  0  0  0
 16 35  1  0  0  0  0
 16 36  1  0  0  0  0
 17 18  1  0  0  0  0
 17 37  1  0  0  0  0
 18 38  1  0  0  0  0
 18 39  1  0  0  0  0
M  END
> <PUBCHEM_COMPOUND_CID>
5282225

> <PUBCHEM_COMPOUND_CANONICALIZED>
1

> <PUBCHEM_CACTVS_COMPLEXITY>
427

> <PUBCHEM_CACTVS_HBOND_ACCEPTOR>
3

> <PUBCHEM_CACTVS_HBOND_DONOR>
2

> <PUBCHEM_CACTVS_ROTATABLE_BOND>
3

> <PUBCHEM_CACTVS_SUBSKEYS>
AAADceBwMAAAAAAAAAAAAAAAAAAAAAAAAAAgAAAAAAAAAAAAAAAAGgAACAAADkSggAICAAAAAgCIAqBSAAAAAAAgAAAICAEAAEgIFBIAAQAAUAAEgAAIkQOKiAAPgAAAAAAAAAAAAAAAAAAAAAAAAAAAAA==

> <PUBCHEM_IUPAC_OPENEYE_NAME>
(4S)-4-hydroxy-4-[(1E,3Z)-5-hydroxy-3-methyl-penta-1,3-dienyl]-3,5,5-trimethyl-cyclohex-2-en-1-one

> <PUBCHEM_IUPAC_CAS_NAME>
(4S)-4-hydroxy-4-[(1E,3Z)-5-hydroxy-3-methylpenta-1,3-dienyl]-3,5,5-trimethyl-1-cyclohex-2-enone

> <PUBCHEM_IUPAC_NAME>
(4S)-4-hydroxy-4-[(1E,3Z)-5-hydroxy-3-methylpenta-1,3-dienyl]-3,5,5-trimethylcyclohex-2-en-1-one

> <PUBCHEM_IUPAC_SYSTEMATIC_NAME>
(4S)-3,5,5-trimethyl-4-[(1E,3Z)-3-methyl-5-oxidanyl-penta-1,3-dienyl]-4-oxidanyl-cyclohex-2-en-1-one

> <PUBCHEM_IUPAC_TRADITIONAL_NAME>
(4S)-4-hydroxy-4-[(1E,3Z)-5-hydroxy-3-methyl-penta-1,3-dienyl]-3,5,5-trimethyl-cyclohex-2-en-1-one

> <PUBCHEM_IUPAC_INCHI>
InChI=1S/C15H22O3/c1-11(6-8-16)5-7-15(18)12(2)9-13(17)10-14(15,3)4/h5-7,9,16,18H,8,10H2,1-4H3/b7-5+,11-6-/t15-/m1/s1

> <PUBCHEM_IUPAC_INCHIKEY>
GRJFTUSJGMRSSJ-KICRZJJPSA-N

> <PUBCHEM_XLOGP3_AA>
1.4

> <PUBCHEM_EXACT_MASS>
250.156895

> <PUBCHEM_MOLECULAR_FORMULA>
C15H22O3

> <PUBCHEM_MOLECULAR_WEIGHT>
250.33338

> <PUBCHEM_OPENEYE_CAN_SMILES>
CC1=CC(=O)CC(C1(C=CC(=CCO)C)O)(C)C

> <PUBCHEM_OPENEYE_ISO_SMILES>
CC1=CC(=O)CC([C@]1(/C=C/C(=C\CO)/C)O)(C)C

> <PUBCHEM_CACTVS_TPSA>
57.5

> <PUBCHEM_MONOISOTOPIC_WEIGHT>
250.156895

> <PUBCHEM_TOTAL_CHARGE>
0

> <PUBCHEM_HEAVY_ATOM_COUNT>
18

> <PUBCHEM_ATOM_DEF_STEREO_COUNT>
1

> <PUBCHEM_ATOM_UDEF_STEREO_COUNT>
0

> <PUBCHEM_BOND_DEF_STEREO_COUNT>
2

> <PUBCHEM_BOND_UDEF_STEREO_COUNT>
0

> <PUBCHEM_ISOTOPIC_ATOM_COUNT>
0

> <PUBCHEM_COMPONENT_COUNT>
1

> <PUBCHEM_CACTVS_TAUTO_COUNT>
5

> <PUBCHEM_COORDINATE_TYPE>
1
5
255

> <PUBCHEM_BONDANNOTATIONS>
5  1  6

$$$$

