17396298
  -OEChem-06241222552D

 31 32  0     0  0  0  0  0  0999 V2000
    5.5211    2.4139    0.0000 S   0  0  0  0  0  0  0  0  0  0  0  0
    4.5981    0.8261    0.0000 O   0  0  0  0  0  0  0  0  0  0  0  0
    2.0000   -2.6739    0.0000 O   0  5  0  0  0  0  0  0  0  0  0  0
    2.8660   -1.1739    0.0000 O   0  0  0  0  0  0  0  0  0  0  0  0
    6.3301    0.8261    0.0000 N   0  0  0  0  0  0  0  0  0  0  0  0
    7.1391    2.4139    0.0000 N   0  0  0  0  0  0  0  0  0  0  0  0
    2.8660   -2.1739    0.0000 N   0  3  0  0  0  0  0  0  0  0  0  0
    4.5981   -2.1739    0.0000 C   0  0  0  0  0  0  0  0  0  0  0  0
    3.7320   -2.6739    0.0000 C   0  0  0  0  0  0  0  0  0  0  0  0
    5.4641   -2.6739    0.0000 C   0  0  0  0  0  0  0  0  0  0  0  0
    4.5981   -1.1739    0.0000 C   0  0  0  0  0  0  0  0  0  0  0  0
    3.7320   -3.6739    0.0000 C   0  0  0  0  0  0  0  0  0  0  0  0
    6.3301    1.8261    0.0000 C   0  0  0  0  0  0  0  0  0  0  0  0
    5.4641   -3.6739    0.0000 C   0  0  0  0  0  0  0  0  0  0  0  0
    5.8301    3.3649    0.0000 C   0  0  0  0  0  0  0  0  0  0  0  0
    4.5981   -4.1739    0.0000 C   0  0  0  0  0  0  0  0  0  0  0  0
    5.4641   -0.6739    0.0000 C   0  0  0  0  0  0  0  0  0  0  0  0
    5.4641    0.3261    0.0000 C   0  0  0  0  0  0  0  0  0  0  0  0
    6.8301    3.3649    0.0000 C   0  0  0  0  0  0  0  0  0  0  0  0
    5.2423    4.1739    0.0000 C   0  0  0  0  0  0  0  0  0  0  0  0
    6.0010   -2.3639    0.0000 H   0  0  0  0  0  0  0  0  0  0  0  0
    4.0611   -0.8639    0.0000 H   0  0  0  0  0  0  0  0  0  0  0  0
    3.1951   -3.9839    0.0000 H   0  0  0  0  0  0  0  0  0  0  0  0
    6.0010   -3.9839    0.0000 H   0  0  0  0  0  0  0  0  0  0  0  0
    6.0010   -0.9839    0.0000 H   0  0  0  0  0  0  0  0  0  0  0  0
    4.5981   -4.7939    0.0000 H   0  0  0  0  0  0  0  0  0  0  0  0
    6.8671    0.5161    0.0000 H   0  0  0  0  0  0  0  0  0  0  0  0
    7.1946    3.8665    0.0000 H   0  0  0  0  0  0  0  0  0  0  0  0
    5.7439    4.5384    0.0000 H   0  0  0  0  0  0  0  0  0  0  0  0
    4.8779    4.6755    0.0000 H   0  0  0  0  0  0  0  0  0  0  0  0
    4.7408    3.8095    0.0000 H   0  0  0  0  0  0  0  0  0  0  0  0
  1 13  1  0  0  0  0
  1 15  1  0  0  0  0
  2 18  2  0  0  0  0
  3  7  1  0  0  0  0
  4  7  2  0  0  0  0
  5 13  1  0  0  0  0
  5 18  1  0  0  0  0
  5 27  1  0  0  0  0
  6 13  2  0  0  0  0
  6 19  1  0  0  0  0
  7  9  1  0  0  0  0
  8  9  1  0  0  0  0
  8 10  2  0  0  0  0
  8 11  1  0  0  0  0
  9 12  2  0  0  0  0
 10 14  1  0  0  0  0
 10 21  1  0  0  0  0
 11 17  2  0  0  0  0
 11 22  1  0  0  0  0
 12 16  1  0  0  0  0
 12 23  1  0  0  0  0
 14 16  2  0  0  0  0
 14 24  1  0  0  0  0
 15 19  2  0  0  0  0
 15 20  1  0  0  0  0
 16 26  1  0  0  0  0
 17 18  1  0  0  0  0
 17 25  1  0  0  0  0
 19 28  1  0  0  0  0
 20 29  1  0  0  0  0
 20 30  1  0  0  0  0
 20 31  1  0  0  0  0
M  CHG  2   3  -1   7   1
M  END
> <PUBCHEM_COMPOUND_CID>
17396298

> <PUBCHEM_COMPOUND_CANONICALIZED>
1

> <PUBCHEM_CACTVS_COMPLEXITY>
397

> <PUBCHEM_CACTVS_HBOND_ACCEPTOR>
5

> <PUBCHEM_CACTVS_HBOND_DONOR>
1

> <PUBCHEM_CACTVS_ROTATABLE_BOND>
3

> <PUBCHEM_CACTVS_SUBSKEYS>
AAADccBzMABAAAAAAAAAAAAAAAAAAWAAAAAwAAAAAAAAAAABwAAAHgQUAAAADAjB2gQ/0ZLYUAitAjV3dwCC8KlxCjlp2AwoZMqIICLAmZGEIABokQJIyacQgAAOAAAAAAACAAAAAAAAAAQAAAAAAAAAAA==

> <PUBCHEM_IUPAC_OPENEYE_NAME>
(E)-N-(5-methylthiazol-2-yl)-3-(2-nitrophenyl)prop-2-enamide

> <PUBCHEM_IUPAC_CAS_NAME>
(E)-N-(5-methyl-2-thiazolyl)-3-(2-nitrophenyl)-2-propenamide

> <PUBCHEM_IUPAC_NAME>
(E)-N-(5-methyl-1,3-thiazol-2-yl)-3-(2-nitrophenyl)prop-2-enamide

> <PUBCHEM_IUPAC_SYSTEMATIC_NAME>
(E)-N-(5-methyl-1,3-thiazol-2-yl)-3-(2-nitrophenyl)prop-2-enamide

> <PUBCHEM_IUPAC_TRADITIONAL_NAME>
(E)-N-(5-methylthiazol-2-yl)-3-(2-nitrophenyl)acrylamide

> <PUBCHEM_IUPAC_INCHI>
InChI=1S/C13H11N3O3S/c1-9-8-14-13(20-9)15-12(17)7-6-10-4-2-3-5-11(10)16(18)19/h2-8H,1H3,(H,14,15,17)/b7-6+

> <PUBCHEM_IUPAC_INCHIKEY>
PQSDYVBFKDVTJK-VOTSOKGWSA-N

> <PUBCHEM_XLOGP3_AA>
2.8

> <PUBCHEM_EXACT_MASS>
289.052112

> <PUBCHEM_MOLECULAR_FORMULA>
C13H11N3O3S

> <PUBCHEM_MOLECULAR_WEIGHT>
289.30974

> <PUBCHEM_OPENEYE_CAN_SMILES>
CC1=CN=C(S1)NC(=O)C=CC2=CC=CC=C2[N+](=O)[O-]

> <PUBCHEM_OPENEYE_ISO_SMILES>
CC1=CN=C(S1)NC(=O)/C=C/C2=CC=CC=C2[N+](=O)[O-]

> <PUBCHEM_CACTVS_TPSA>
116

> <PUBCHEM_MONOISOTOPIC_WEIGHT>
289.052112

> <PUBCHEM_TOTAL_CHARGE>
0

> <PUBCHEM_HEAVY_ATOM_COUNT>
20

> <PUBCHEM_ATOM_DEF_STEREO_COUNT>
0

> <PUBCHEM_ATOM_UDEF_STEREO_COUNT>
0

> <PUBCHEM_BOND_DEF_STEREO_COUNT>
1

> <PUBCHEM_BOND_UDEF_STEREO_COUNT>
0

> <PUBCHEM_ISOTOPIC_ATOM_COUNT>
0

> <PUBCHEM_COMPONENT_COUNT>
1

> <PUBCHEM_CACTVS_TAUTO_COUNT>
3

> <PUBCHEM_COORDINATE_TYPE>
1
5
255

> <PUBCHEM_BONDANNOTATIONS>
1  13  8
1  15  8
10  14  8
12  16  8
14  16  8
15  19  8
6  13  8
6  19  8
8  10  8
8  9  8
9  12  8

$$$$

