5316970
  -OEChem-07051212562D

 64 66  0     0  0  0  0  0  0999 V2000
   10.3748   -1.5130    0.0000 O   0  0  0  0  0  0  0  0  0  0  0  0
    7.5668    2.4011    0.0000 O   0  0  0  0  0  0  0  0  0  0  0  0
    4.9132    0.1744    0.0000 O   0  0  0  0  0  0  0  0  0  0  0  0
    4.3116    3.5859    0.0000 O   0  0  0  0  0  0  0  0  0  0  0  0
    9.2576    1.2878    0.0000 O   0  0  0  0  0  0  0  0  0  0  0  0
    6.8828   -1.4783    0.0000 O   0  0  0  0  0  0  0  0  0  0  0  0
    3.2856    0.7668    0.0000 O   0  0  0  0  0  0  0  0  0  0  0  0
    7.7488   -2.9783    0.0000 O   0  0  0  0  0  0  0  0  0  0  0  0
    5.9392    2.9935    0.0000 C   0  0  0  0  0  0  0  0  0  0  0  0
    6.2400    1.2878    0.0000 C   0  0  0  0  0  0  0  0  0  0  0  0
    6.5820    2.2274    0.0000 C   0  0  0  0  0  0  0  0  0  0  0  0
    6.8828    0.5217    0.0000 C   0  0  0  0  0  0  0  0  0  0  0  0
    4.9544    2.8198    0.0000 C   0  0  0  0  0  0  0  0  0  0  0  0
    7.7488    0.0217    0.0000 C   0  0  0  0  0  0  0  0  0  0  0  0
    4.6124    1.8802    0.0000 C   0  0  0  0  0  0  0  0  0  0  0  0
    5.7656    3.9783    0.0000 C   0  0  0  0  0  0  0  0  0  0  0  0
    6.7053    3.6363    0.0000 C   0  0  0  0  0  0  0  0  0  0  0  0
    5.2552    1.1141    0.0000 C   0  0  0  0  0  0  0  0  0  0  0  0
   11.2809   -0.9991    0.0000 C   0  0  0  0  0  0  0  0  0  0  0  0
    9.4809    0.0217    0.0000 C   0  0  0  0  0  0  0  0  0  0  0  0
    9.4809   -0.9783    0.0000 C   0  0  0  0  0  0  0  0  0  0  0  0
    8.6148    0.5217    0.0000 C   0  0  0  0  0  0  0  0  0  0  0  0
    8.6148   -1.4783    0.0000 C   0  0  0  0  0  0  0  0  0  0  0  0
    7.7488   -0.9783    0.0000 C   0  0  0  0  0  0  0  0  0  0  0  0
   11.2809    0.0425    0.0000 C   0  0  0  0  0  0  0  0  0  0  0  0
   10.3748    0.5564    0.0000 C   0  0  0  0  0  0  0  0  0  0  0  0
    3.6276    1.7065    0.0000 C   0  0  0  0  0  0  0  0  0  0  0  0
   12.2809   -1.0030    0.0000 C   0  0  0  0  0  0  0  0  0  0  0  0
   11.7775   -1.8671    0.0000 C   0  0  0  0  0  0  0  0  0  0  0  0
    8.6148   -2.4783    0.0000 C   0  0  0  0  0  0  0  0  0  0  0  0
    2.9848    2.4725    0.0000 C   0  0  0  0  0  0  0  0  0  0  0  0
    9.4809   -2.9783    0.0000 C   0  0  0  0  0  0  0  0  0  0  0  0
    2.0000    2.2989    0.0000 C   0  0  0  0  0  0  0  0  0  0  0  0
    9.4809   -3.9783    0.0000 C   0  0  0  0  0  0  0  0  0  0  0  0
    6.2888    0.3439    0.0000 H   0  0  0  0  0  0  0  0  0  0  0  0
    7.2813    0.9967    0.0000 H   0  0  0  0  0  0  0  0  0  0  0  0
    6.3762    4.0860    0.0000 H   0  0  0  0  0  0  0  0  0  0  0  0
    7.1038    3.1613    0.0000 H   0  0  0  0  0  0  0  0  0  0  0  0
    7.1802    4.0348    0.0000 H   0  0  0  0  0  0  0  0  0  0  0  0
    6.3068    4.1112    0.0000 H   0  0  0  0  0  0  0  0  0  0  0  0
    5.6579    4.5889    0.0000 H   0  0  0  0  0  0  0  0  0  0  0  0
    5.1550    3.8706    0.0000 H   0  0  0  0  0  0  0  0  0  0  0  0
   11.8166    0.3546    0.0000 H   0  0  0  0  0  0  0  0  0  0  0  0
   10.3676    1.1763    0.0000 H   0  0  0  0  0  0  0  0  0  0  0  0
   12.2785   -1.6230    0.0000 H   0  0  0  0  0  0  0  0  0  0  0  0
   12.9009   -1.0054    0.0000 H   0  0  0  0  0  0  0  0  0  0  0  0
   12.2833   -0.3830    0.0000 H   0  0  0  0  0  0  0  0  0  0  0  0
   11.2394   -2.1750    0.0000 H   0  0  0  0  0  0  0  0  0  0  0  0
   12.0855   -2.4052    0.0000 H   0  0  0  0  0  0  0  0  0  0  0  0
   12.3157   -1.5591    0.0000 H   0  0  0  0  0  0  0  0  0  0  0  0
    7.9654    1.9261    0.0000 H   0  0  0  0  0  0  0  0  0  0  0  0
    3.5217    2.7825    0.0000 H   0  0  0  0  0  0  0  0  0  0  0  0
    2.7728    3.0551    0.0000 H   0  0  0  0  0  0  0  0  0  0  0  0
    4.3026    0.0667    0.0000 H   0  0  0  0  0  0  0  0  0  0  0  0
   10.0914   -3.0860    0.0000 H   0  0  0  0  0  0  0  0  0  0  0  0
    9.6929   -2.3957    0.0000 H   0  0  0  0  0  0  0  0  0  0  0  0
    9.8682    1.1801    0.0000 H   0  0  0  0  0  0  0  0  0  0  0  0
    6.8828   -2.0983    0.0000 H   0  0  0  0  0  0  0  0  0  0  0  0
    1.8923    2.9095    0.0000 H   0  0  0  0  0  0  0  0  0  0  0  0
    1.3894    2.1912    0.0000 H   0  0  0  0  0  0  0  0  0  0  0  0
    2.1077    1.6883    0.0000 H   0  0  0  0  0  0  0  0  0  0  0  0
    8.8609   -3.9783    0.0000 H   0  0  0  0  0  0  0  0  0  0  0  0
    9.4809   -4.5983    0.0000 H   0  0  0  0  0  0  0  0  0  0  0  0
   10.1009   -3.9783    0.0000 H   0  0  0  0  0  0  0  0  0  0  0  0
  1 19  1  0  0  0  0
  1 21  1  0  0  0  0
  2 11  1  0  0  0  0
  2 51  1  0  0  0  0
  3 18  1  0  0  0  0
  3 54  1  0  0  0  0
  4 13  2  0  0  0  0
  5 22  1  0  0  0  0
  5 57  1  0  0  0  0
  6 24  1  0  0  0  0
  6 58  1  0  0  0  0
  7 27  2  0  0  0  0
  8 30  2  0  0  0  0
  9 11  1  0  0  0  0
  9 13  1  0  0  0  0
  9 16  1  0  0  0  0
  9 17  1  0  0  0  0
 10 11  2  0  0  0  0
 10 12  1  0  0  0  0
 10 18  1  0  0  0  0
 12 14  1  0  0  0  0
 12 35  1  0  0  0  0
 12 36  1  0  0  0  0
 13 15  1  0  0  0  0
 14 22  1  0  0  0  0
 14 24  2  0  0  0  0
 15 18  2  0  0  0  0
 15 27  1  0  0  0  0
 16 37  1  0  0  0  0
 16 41  1  0  0  0  0
 16 42  1  0  0  0  0
 17 38  1  0  0  0  0
 17 39  1  0  0  0  0
 17 40  1  0  0  0  0
 19 25  1  0  0  0  0
 19 28  1  0  0  0  0
 19 29  1  0  0  0  0
 20 21  1  0  0  0  0
 20 22  2  0  0  0  0
 20 26  1  0  0  0  0
 21 23  2  0  0  0  0
 23 24  1  0  0  0  0
 23 30  1  0  0  0  0
 25 26  2  0  0  0  0
 25 43  1  0  0  0  0
 26 44  1  0  0  0  0
 27 31  1  0  0  0  0
 28 45  1  0  0  0  0
 28 46  1  0  0  0  0
 28 47  1  0  0  0  0
 29 48  1  0  0  0  0
 29 49  1  0  0  0  0
 29 50  1  0  0  0  0
 30 32  1  0  0  0  0
 31 33  1  0  0  0  0
 31 52  1  0  0  0  0
 31 53  1  0  0  0  0
 32 34  1  0  0  0  0
 32 55  1  0  0  0  0
 32 56  1  0  0  0  0
 33 59  1  0  0  0  0
 33 60  1  0  0  0  0
 33 61  1  0  0  0  0
 34 62  1  0  0  0  0
 34 63  1  0  0  0  0
 34 64  1  0  0  0  0
M  END
> <PUBCHEM_COMPOUND_CID>
5316970

> <PUBCHEM_COMPOUND_CANONICALIZED>
1

> <PUBCHEM_CACTVS_COMPLEXITY>
983

> <PUBCHEM_CACTVS_HBOND_ACCEPTOR>
8

> <PUBCHEM_CACTVS_HBOND_DONOR>
4

> <PUBCHEM_CACTVS_ROTATABLE_BOND>
6

> <PUBCHEM_CACTVS_SUBSKEYS>
AAADceB4PAAAAAAAAAAAAAAAAAAAAAAAAAAwQIAAAAAAAACBAAAAGgAACAAADkSAmAACBoAABgCIAqBSAAACCAAkIAAIiAEECMgMJzaONBqCeWCl4BUIuQeI7OzPIAACCAAIAABAAAQQABAAAAAAAAAAAA==

> <PUBCHEM_IUPAC_OPENEYE_NAME>
4-[(5,7-dihydroxy-2,2-dimethyl-8-propanoyl-chromen-6-yl)methyl]-3,5-dihydroxy-6,6-dimethyl-2-propanoyl-cyclohexa-2,4-dien-1-one

> <PUBCHEM_IUPAC_CAS_NAME>
4-[[5,7-dihydroxy-2,2-dimethyl-8-(1-oxopropyl)-1-benzopyran-6-yl]methyl]-3,5-dihydroxy-6,6-dimethyl-2-(1-oxopropyl)-1-cyclohexa-2,4-dienone

> <PUBCHEM_IUPAC_NAME>
4-[(5,7-dihydroxy-2,2-dimethyl-8-propanoylchromen-6-yl)methyl]-3,5-dihydroxy-6,6-dimethyl-2-propanoylcyclohexa-2,4-dien-1-one

> <PUBCHEM_IUPAC_SYSTEMATIC_NAME>
4-[[2,2-dimethyl-5,7-bis(oxidanyl)-8-propanoyl-chromen-6-yl]methyl]-6,6-dimethyl-3,5-bis(oxidanyl)-2-propanoyl-cyclohexa-2,4-dien-1-one

> <PUBCHEM_IUPAC_TRADITIONAL_NAME>
4-[(5,7-dihydroxy-2,2-dimethyl-8-propionyl-chromen-6-yl)methyl]-3,5-dihydroxy-6,6-dimethyl-2-propionyl-cyclohexa-2,4-dien-1-one

> <PUBCHEM_IUPAC_INCHI>
InChI=1S/C26H30O8/c1-7-15(27)17-20(30)13(19(29)12-9-10-25(3,4)34-22(12)17)11-14-21(31)18(16(28)8-2)24(33)26(5,6)23(14)32/h9-10,29-32H,7-8,11H2,1-6H3

> <PUBCHEM_IUPAC_INCHIKEY>
LHWKHBMFNXXUHX-UHFFFAOYSA-N

> <PUBCHEM_XLOGP3_AA>
4

> <PUBCHEM_EXACT_MASS>
470.194068

> <PUBCHEM_MOLECULAR_FORMULA>
C26H30O8

> <PUBCHEM_MOLECULAR_WEIGHT>
470.5116

> <PUBCHEM_OPENEYE_CAN_SMILES>
CCC(=O)C1=C(C(=C(C2=C1OC(C=C2)(C)C)O)CC3=C(C(C(=O)C(=C3O)C(=O)CC)(C)C)O)O

> <PUBCHEM_OPENEYE_ISO_SMILES>
CCC(=O)C1=C(C(=C(C2=C1OC(C=C2)(C)C)O)CC3=C(C(C(=O)C(=C3O)C(=O)CC)(C)C)O)O

> <PUBCHEM_CACTVS_TPSA>
141

> <PUBCHEM_MONOISOTOPIC_WEIGHT>
470.194068

> <PUBCHEM_TOTAL_CHARGE>
0

> <PUBCHEM_HEAVY_ATOM_COUNT>
34

> <PUBCHEM_ATOM_DEF_STEREO_COUNT>
0

> <PUBCHEM_ATOM_UDEF_STEREO_COUNT>
0

> <PUBCHEM_BOND_DEF_STEREO_COUNT>
0

> <PUBCHEM_BOND_UDEF_STEREO_COUNT>
0

> <PUBCHEM_ISOTOPIC_ATOM_COUNT>
0

> <PUBCHEM_COMPONENT_COUNT>
1

> <PUBCHEM_CACTVS_TAUTO_COUNT>
513

> <PUBCHEM_COORDINATE_TYPE>
1
5
255

> <PUBCHEM_BONDANNOTATIONS>
14  22  8
14  24  8
20  21  8
20  22  8
21  23  8
23  24  8

$$$$

