443396
  -OEChem-07051213022D

 58 59  0     0  0  0  0  0  0999 V2000
    8.9995    4.0922    0.0000 Cl  0  5  0  0  0  0  0  0  0  0  0  0
    4.0678    4.1546    0.0000 O   0  0  0  0  0  0  0  0  0  0  0  0
    3.2018    0.6546    0.0000 O   0  0  0  0  0  0  0  0  0  0  0  0
    2.3358    4.1546    0.0000 O   0  0  0  0  0  0  0  0  0  0  0  0
    4.9338    6.6546    0.0000 N   0  3  0  0  0  0  0  0  0  0  0  0
    4.9338    7.6546    0.0000 C   0  0  0  0  0  0  0  0  0  0  0  0
    5.9338    6.6546    0.0000 C   0  0  0  0  0  0  0  0  0  0  0  0
    4.9338    5.6546    0.0000 C   0  0  0  0  0  0  0  0  0  0  0  0
    3.9338    6.6546    0.0000 C   0  0  0  0  0  0  0  0  0  0  0  0
    6.4338    5.7886    0.0000 C   0  0  0  0  0  0  0  0  0  0  0  0
    6.4338    7.5206    0.0000 C   0  0  0  0  0  0  0  0  0  0  0  0
    5.7998    8.1546    0.0000 C   0  0  0  0  0  0  0  0  0  0  0  0
    4.0678    8.1546    0.0000 C   0  0  0  0  0  0  0  0  0  0  0  0
    4.0678    5.1546    0.0000 C   0  0  0  0  0  0  0  0  0  0  0  0
    3.2018    2.6546    0.0000 C   0  0  0  0  0  0  0  0  0  0  0  0
    3.2018    3.6546    0.0000 C   0  0  0  0  0  0  0  0  0  0  0  0
    4.0678    2.1546    0.0000 C   0  0  0  0  0  0  0  0  0  0  0  0
    2.3358    2.1546    0.0000 C   0  0  0  0  0  0  0  0  0  0  0  0
    4.0678    1.1546    0.0000 C   0  0  0  0  0  0  0  0  0  0  0  0
    2.3358    1.1546    0.0000 C   0  0  0  0  0  0  0  0  0  0  0  0
    4.9617    2.6893    0.0000 C   0  0  0  0  0  0  0  0  0  0  0  0
    1.4418    2.6893    0.0000 C   0  0  0  0  0  0  0  0  0  0  0  0
    4.9617    0.6200    0.0000 C   0  0  0  0  0  0  0  0  0  0  0  0
    1.4418    0.6200    0.0000 C   0  0  0  0  0  0  0  0  0  0  0  0
    5.8678    2.1754    0.0000 C   0  0  0  0  0  0  0  0  0  0  0  0
    0.5357    2.1754    0.0000 C   0  0  0  0  0  0  0  0  0  0  0  0
    5.8678    1.1338    0.0000 C   0  0  0  0  0  0  0  0  0  0  0  0
    0.5357    1.1338    0.0000 C   0  0  0  0  0  0  0  0  0  0  0  0
    6.5538    6.6546    0.0000 H   0  0  0  0  0  0  0  0  0  0  0  0
    4.3969    7.3446    0.0000 H   0  0  0  0  0  0  0  0  0  0  0  0
    5.1459    5.0720    0.0000 H   0  0  0  0  0  0  0  0  0  0  0  0
    5.5444    5.7623    0.0000 H   0  0  0  0  0  0  0  0  0  0  0  0
    3.9338    7.2746    0.0000 H   0  0  0  0  0  0  0  0  0  0  0  0
    3.3138    6.6546    0.0000 H   0  0  0  0  0  0  0  0  0  0  0  0
    3.9338    6.0346    0.0000 H   0  0  0  0  0  0  0  0  0  0  0  0
    4.3778    8.6916    0.0000 H   0  0  0  0  0  0  0  0  0  0  0  0
    3.5309    8.4646    0.0000 H   0  0  0  0  0  0  0  0  0  0  0  0
    3.7578    7.6177    0.0000 H   0  0  0  0  0  0  0  0  0  0  0  0
    6.1098    7.6177    0.0000 H   0  0  0  0  0  0  0  0  0  0  0  0
    6.3368    8.4646    0.0000 H   0  0  0  0  0  0  0  0  0  0  0  0
    5.4898    8.6916    0.0000 H   0  0  0  0  0  0  0  0  0  0  0  0
    6.9708    7.2106    0.0000 H   0  0  0  0  0  0  0  0  0  0  0  0
    6.7438    8.0576    0.0000 H   0  0  0  0  0  0  0  0  0  0  0  0
    5.8969    7.8306    0.0000 H   0  0  0  0  0  0  0  0  0  0  0  0
    5.8969    5.4786    0.0000 H   0  0  0  0  0  0  0  0  0  0  0  0
    6.7438    5.2517    0.0000 H   0  0  0  0  0  0  0  0  0  0  0  0
    6.9708    6.0986    0.0000 H   0  0  0  0  0  0  0  0  0  0  0  0
    3.8557    5.7372    0.0000 H   0  0  0  0  0  0  0  0  0  0  0  0
    3.4572    5.0470    0.0000 H   0  0  0  0  0  0  0  0  0  0  0  0
    3.7387    2.9646    0.0000 H   0  0  0  0  0  0  0  0  0  0  0  0
    1.4490    3.3092    0.0000 H   0  0  0  0  0  0  0  0  0  0  0  0
    4.9546    3.3092    0.0000 H   0  0  0  0  0  0  0  0  0  0  0  0
    1.4490    0.0000    0.0000 H   0  0  0  0  0  0  0  0  0  0  0  0
    4.9546    0.0000    0.0000 H   0  0  0  0  0  0  0  0  0  0  0  0
    6.4035    2.4875    0.0000 H   0  0  0  0  0  0  0  0  0  0  0  0
    0.0000    2.4875    0.0000 H   0  0  0  0  0  0  0  0  0  0  0  0
    0.0000    0.8217    0.0000 H   0  0  0  0  0  0  0  0  0  0  0  0
    6.4035    0.8217    0.0000 H   0  0  0  0  0  0  0  0  0  0  0  0
  2 14  1  0  0  0  0
  2 16  1  0  0  0  0
  3 19  1  0  0  0  0
  3 20  1  0  0  0  0
  4 16  2  0  0  0  0
  5  6  1  0  0  0  0
  5  7  1  0  0  0  0
  5  8  1  0  0  0  0
  5  9  1  0  0  0  0
  6 12  1  0  0  0  0
  6 13  1  0  0  0  0
  6 30  1  0  0  0  0
  7 10  1  0  0  0  0
  7 11  1  0  0  0  0
  7 29  1  0  0  0  0
  8 14  1  0  0  0  0
  8 31  1  0  0  0  0
  8 32  1  0  0  0  0
  9 33  1  0  0  0  0
  9 34  1  0  0  0  0
  9 35  1  0  0  0  0
 10 45  1  0  0  0  0
 10 46  1  0  0  0  0
 10 47  1  0  0  0  0
 11 42  1  0  0  0  0
 11 43  1  0  0  0  0
 11 44  1  0  0  0  0
 12 39  1  0  0  0  0
 12 40  1  0  0  0  0
 12 41  1  0  0  0  0
 13 36  1  0  0  0  0
 13 37  1  0  0  0  0
 13 38  1  0  0  0  0
 14 48  1  0  0  0  0
 14 49  1  0  0  0  0
 15 16  1  0  0  0  0
 15 17  1  0  0  0  0
 15 18  1  0  0  0  0
 15 50  1  0  0  0  0
 17 19  1  0  0  0  0
 17 21  2  0  0  0  0
 18 20  1  0  0  0  0
 18 22  2  0  0  0  0
 19 23  2  0  0  0  0
 20 24  2  0  0  0  0
 21 25  1  0  0  0  0
 21 52  1  0  0  0  0
 22 26  1  0  0  0  0
 22 51  1  0  0  0  0
 23 27  1  0  0  0  0
 23 54  1  0  0  0  0
 24 28  1  0  0  0  0
 24 53  1  0  0  0  0
 25 27  2  0  0  0  0
 25 55  1  0  0  0  0
 26 28  2  0  0  0  0
 26 56  1  0  0  0  0
 27 58  1  0  0  0  0
 28 57  1  0  0  0  0
M  CHG  2   1  -1   5   1
M  END
> <PUBCHEM_COMPOUND_CID>
443396

> <PUBCHEM_COMPOUND_CANONICALIZED>
1

> <PUBCHEM_CACTVS_COMPLEXITY>
474

> <PUBCHEM_CACTVS_HBOND_ACCEPTOR>
4

> <PUBCHEM_CACTVS_HBOND_DONOR>
0

> <PUBCHEM_CACTVS_ROTATABLE_BOND>
7

> <PUBCHEM_CACTVS_SUBSKEYS>
AAADceB6MAAEAAAAAAAAAAAAAAAAAAAAAAA0YIAAAAAAAACRQAAAHgAAAAAADSzhmAYyDoMABACIAiDSCAACCAAgIAAIiAEOCIgOJjKENRqDOCCkwBGYqAfKyOCOgAAAAAAIAAAAAAAAABAAAAAAAAAAAA==

> <PUBCHEM_IUPAC_OPENEYE_NAME>
diisopropyl-methyl-[2-(9H-xanthene-9-carbonyloxy)ethyl]ammonium chloride

> <PUBCHEM_IUPAC_CAS_NAME>
methyl-[2-[oxo(9H-xanthen-9-yl)methoxy]ethyl]-di(propan-2-yl)ammonium chloride

> <PUBCHEM_IUPAC_NAME>
methyl-di(propan-2-yl)-[2-(9H-xanthene-9-carbonyloxy)ethyl]azanium chloride

> <PUBCHEM_IUPAC_SYSTEMATIC_NAME>
methyl-di(propan-2-yl)-[2-(9H-xanthen-9-ylcarbonyloxy)ethyl]azanium chloride

> <PUBCHEM_IUPAC_TRADITIONAL_NAME>
diisopropyl-methyl-[2-(9H-xanthene-9-carbonyloxy)ethyl]ammonium chloride

> <PUBCHEM_IUPAC_INCHI>
InChI=1S/C23H30NO3.ClH/c1-16(2)24(5,17(3)4)14-15-26-23(25)22-18-10-6-8-12-20(18)27-21-13-9-7-11-19(21)22;/h6-13,16-17,22H,14-15H2,1-5H3;1H/q+1;/p-1

> <PUBCHEM_IUPAC_INCHIKEY>
BCKRMIBTFWVFEV-UHFFFAOYSA-M

> <PUBCHEM_EXACT_MASS>
403.191422

> <PUBCHEM_MOLECULAR_FORMULA>
C23H30ClNO3

> <PUBCHEM_MOLECULAR_WEIGHT>
403.9422

> <PUBCHEM_OPENEYE_CAN_SMILES>
CC(C)[N+](C)(CCOC(=O)C1C2=CC=CC=C2OC3=CC=CC=C13)C(C)C.[Cl-]

> <PUBCHEM_OPENEYE_ISO_SMILES>
CC(C)[N+](C)(CCOC(=O)C1C2=CC=CC=C2OC3=CC=CC=C13)C(C)C.[Cl-]

> <PUBCHEM_CACTVS_TPSA>
35.5

> <PUBCHEM_MONOISOTOPIC_WEIGHT>
403.191422

> <PUBCHEM_TOTAL_CHARGE>
0

> <PUBCHEM_HEAVY_ATOM_COUNT>
28

> <PUBCHEM_ATOM_DEF_STEREO_COUNT>
0

> <PUBCHEM_ATOM_UDEF_STEREO_COUNT>
0

> <PUBCHEM_BOND_DEF_STEREO_COUNT>
0

> <PUBCHEM_BOND_UDEF_STEREO_COUNT>
0

> <PUBCHEM_ISOTOPIC_ATOM_COUNT>
0

> <PUBCHEM_COMPONENT_COUNT>
2

> <PUBCHEM_CACTVS_TAUTO_COUNT>
1

> <PUBCHEM_COORDINATE_TYPE>
1
5
255

> <PUBCHEM_BONDANNOTATIONS>
17  19  8
17  21  8
18  20  8
18  22  8
19  23  8
20  24  8
21  25  8
22  26  8
23  27  8
24  28  8
25  27  8
26  28  8

$$$$

