   Color/Form
        Colorless liq
   from [1]HSDB

   Boiling Point
        417 deg C
   from [2]HSDB

   Melting Point
        30 deg C
   from [3]HSDB

   Octanol/Water Partition Coefficient
        log Kow= 7.38
   from [4]HSDB

   Solubilities

     * Insol in water; very sol in ethyl alc, acetone; sol in ether
     * Insoluble in water, soluble in alcohol and ether

   from [5]HSDB

   Spectral Properties

     * Index of refraction: 1.4310 @ 45 deg C
     * SADTLER REF NUMBER: 5172 (IR, PRISM)
     * IR: 7503 (Coblentz Society Spectral Collection)
     * NMR: 248 (Sadtler Research Laboratories Spectral Collection)
     * MASS: 212 (Aldermaston, Eight Peak Index of Mass Spectra, UK)

   from [6]HSDB

   Vapor Pressure
        6.04X10-5 @ 25 deg C
   from [7]HSDB

   Computed Properties
   Molecular Weight                  270.45066 [g/mol]
   Molecular Formula                 C[17]H[34]O[2]
   XLogP3                            7.9
   H-Bond Donor                      0
   H-Bond Acceptor                   2
   Rotatable Bond Count              15
   Exact Mass                        270.25588
   MonoIsotopic Mass                 270.25588
   Topological Polar Surface Area    26.3
   Heavy Atom Count                  19
   Formal Charge                     0
   Complexity                        190
   Isotope Atom Count                0
   Defined Atom Stereocenter Count   0
   Undefined Atom Stereocenter Count 0
   Defined Bond Stereocenter Count   0
   Undefined Bond Stereocenter Count 0
   Covalently-Bonded Unit Count      1
   Feature 3D Acceptor Count         1
   Feature 3D Hydrophobe Count       1
   Effective Rotor Count             15
   Conformer Sampling RMSD           1.4
   CID Conformer Count               [8]91

References

   1. http://toxnet.nlm.nih.gov/cgi-bin/sis/search/r?dbs+hsdb:@term+@rn+@rel+112-39-0
   2. http://toxnet.nlm.nih.gov/cgi-bin/sis/search/r?dbs+hsdb:@term+@rn+@rel+112-39-0
   3. http://toxnet.nlm.nih.gov/cgi-bin/sis/search/r?dbs+hsdb:@term+@rn+@rel+112-39-0
   4. http://toxnet.nlm.nih.gov/cgi-bin/sis/search/r?dbs+hsdb:@term+@rn+@rel+112-39-0
   5. http://toxnet.nlm.nih.gov/cgi-bin/sis/search/r?dbs+hsdb:@term+@rn+@rel+112-39-0
   6. http://toxnet.nlm.nih.gov/cgi-bin/sis/search/r?dbs+hsdb:@term+@rn+@rel+112-39-0
   7. http://toxnet.nlm.nih.gov/cgi-bin/sis/search/r?dbs+hsdb:@term+@rn+@rel+112-39-0
   8. http://pubchem.ncbi.nlm.nih.gov/vw3d/vw3d.cgi?cid=8181
