7326
  -OEChem-06261202012D

 51 52  0     1  0  0  0  0  0999 V2000
    3.7601    0.8090    0.0000 O   0  0  0  0  0  0  0  0  0  0  0  0
    5.4921    0.8090    0.0000 O   0  0  0  0  0  0  0  0  0  0  0  0
    4.8479   -2.5389    0.0000 O   0  0  0  0  0  0  0  0  0  0  0  0
    5.1261    3.1750    0.0000 C   0  0  0  0  0  0  0  0  0  0  0  0
    4.1261    3.1750    0.0000 C   0  0  1  0  0  0  0  0  0  0  0  0
    4.6261    2.3090    0.0000 C   0  0  3  0  0  0  0  0  0  0  0  0
    5.1261    4.1750    0.0000 C   0  0  0  0  0  0  0  0  0  0  0  0
    5.9921    2.6750    0.0000 C   0  0  0  0  0  0  0  0  0  0  0  0
    3.2601    3.6750    0.0000 C   0  0  0  0  0  0  0  0  0  0  0  0
    4.6261    1.3090    0.0000 C   0  0  0  0  0  0  0  0  0  0  0  0
    3.2601    4.6750    0.0000 C   0  0  0  0  0  0  0  0  0  0  0  0
    3.7601   -0.1910    0.0000 C   0  0  1  0  0  0  0  0  0  0  0  0
    4.1261    5.1750    0.0000 C   0  0  0  0  0  0  0  0  0  0  0  0
    2.3940    5.1750    0.0000 C   0  0  0  0  0  0  0  0  0  0  0  0
    4.5691   -0.7788    0.0000 C   0  0  0  0  0  0  0  0  0  0  0  0
    2.9511   -0.7788    0.0000 C   0  0  0  0  0  0  0  0  0  0  0  0
    3.2601   -1.7299    0.0000 C   0  0  0  0  0  0  0  0  0  0  0  0
    4.2601   -1.7299    0.0000 C   0  0  0  0  0  0  0  0  0  0  0  0
    2.0000   -0.4698    0.0000 C   0  0  0  0  0  0  0  0  0  0  0  0
    2.6723   -2.5389    0.0000 C   0  0  0  0  0  0  0  0  0  0  0  0
    3.0790   -3.4524    0.0000 C   0  0  0  0  0  0  0  0  0  0  0  0
    2.4912   -4.2615    0.0000 C   0  0  0  0  0  0  0  0  0  0  0  0
    2.8980   -5.1750    0.0000 C   0  0  0  0  0  0  0  0  0  0  0  0
    4.2866    3.7739    0.0000 H   0  0  0  0  0  0  0  0  0  0  0  0
    5.2250    2.1485    0.0000 H   0  0  0  0  0  0  0  0  0  0  0  0
    5.7461    4.1750    0.0000 H   0  0  0  0  0  0  0  0  0  0  0  0
    5.1261    4.7950    0.0000 H   0  0  0  0  0  0  0  0  0  0  0  0
    4.5061    4.1750    0.0000 H   0  0  0  0  0  0  0  0  0  0  0  0
    5.6821    2.1381    0.0000 H   0  0  0  0  0  0  0  0  0  0  0  0
    6.5291    2.3650    0.0000 H   0  0  0  0  0  0  0  0  0  0  0  0
    6.3021    3.2119    0.0000 H   0  0  0  0  0  0  0  0  0  0  0  0
    2.7231    3.3650    0.0000 H   0  0  0  0  0  0  0  0  0  0  0  0
    4.3125    0.0904    0.0000 H   0  0  0  0  0  0  0  0  0  0  0  0
    4.4361    4.6381    0.0000 H   0  0  0  0  0  0  0  0  0  0  0  0
    4.6630    5.4850    0.0000 H   0  0  0  0  0  0  0  0  0  0  0  0
    3.8161    5.7119    0.0000 H   0  0  0  0  0  0  0  0  0  0  0  0
    2.7040    5.7119    0.0000 H   0  0  0  0  0  0  0  0  0  0  0  0
    1.8571    5.4850    0.0000 H   0  0  0  0  0  0  0  0  0  0  0  0
    2.0840    4.6381    0.0000 H   0  0  0  0  0  0  0  0  0  0  0  0
    4.8791   -0.2419    0.0000 H   0  0  0  0  0  0  0  0  0  0  0  0
    5.1355   -1.0310    0.0000 H   0  0  0  0  0  0  0  0  0  0  0  0
    2.1916    0.1199    0.0000 H   0  0  0  0  0  0  0  0  0  0  0  0
    1.4103   -0.2782    0.0000 H   0  0  0  0  0  0  0  0  0  0  0  0
    1.8084   -1.0595    0.0000 H   0  0  0  0  0  0  0  0  0  0  0  0
    2.2416   -2.0929    0.0000 H   0  0  0  0  0  0  0  0  0  0  0  0
    2.1583   -2.8856    0.0000 H   0  0  0  0  0  0  0  0  0  0  0  0
    3.6956   -3.5172    0.0000 H   0  0  0  0  0  0  0  0  0  0  0  0
    1.8746   -4.1966    0.0000 H   0  0  0  0  0  0  0  0  0  0  0  0
    2.3316   -5.4272    0.0000 H   0  0  0  0  0  0  0  0  0  0  0  0
    3.1502   -5.7414    0.0000 H   0  0  0  0  0  0  0  0  0  0  0  0
    3.4644   -4.9228    0.0000 H   0  0  0  0  0  0  0  0  0  0  0  0
  1 10  1  0  0  0  0
 12  1  1  1  0  0  0
  2 10  2  0  0  0  0
  3 18  2  0  0  0  0
  4  5  1  0  0  0  0
  4  6  1  0  0  0  0
  4  7  1  0  0  0  0
  4  8  1  0  0  0  0
  5  6  1  0  0  0  0
  5  9  1  1  0  0  0
  5 24  1  0  0  0  0
  6 10  1  0  0  0  0
  6 25  1  0  0  0  0
  7 26  1  0  0  0  0
  7 27  1  0  0  0  0
  7 28  1  0  0  0  0
  8 29  1  0  0  0  0
  8 30  1  0  0  0  0
  8 31  1  0  0  0  0
  9 11  2  0  0  0  0
  9 32  1  0  0  0  0
 11 13  1  0  0  0  0
 11 14  1  0  0  0  0
 12 15  1  0  0  0  0
 12 16  1  0  0  0  0
 12 33  1  0  0  0  0
 13 34  1  0  0  0  0
 13 35  1  0  0  0  0
 13 36  1  0  0  0  0
 14 37  1  0  0  0  0
 14 38  1  0  0  0  0
 14 39  1  0  0  0  0
 15 18  1  0  0  0  0
 15 40  1  0  0  0  0
 15 41  1  0  0  0  0
 16 17  2  0  0  0  0
 16 19  1  0  0  0  0
 17 18  1  0  0  0  0
 17 20  1  0  0  0  0
 19 42  1  0  0  0  0
 19 43  1  0  0  0  0
 19 44  1  0  0  0  0
 20 21  1  0  0  0  0
 20 45  1  0  0  0  0
 20 46  1  0  0  0  0
 21 22  2  3  0  0  0
 21 47  1  0  0  0  0
 22 23  1  0  0  0  0
 22 48  1  0  0  0  0
 23 49  1  0  0  0  0
 23 50  1  0  0  0  0
 23 51  1  0  0  0  0
M  END
> <PUBCHEM_COMPOUND_CID>
7326

> <PUBCHEM_COMPOUND_CANONICALIZED>
1

> <PUBCHEM_CACTVS_COMPLEXITY>
600

> <PUBCHEM_CACTVS_HBOND_ACCEPTOR>
3

> <PUBCHEM_CACTVS_HBOND_DONOR>
0

> <PUBCHEM_CACTVS_ROTATABLE_BOND>
6

> <PUBCHEM_CACTVS_SUBSKEYS>
AAADceB4MAAAAAAAAAAAAAAAGAAAAQAAAAAAAAAAAAAAAAAAAAAAGgAAAAAADxSggAICCAAABACIAqDSCAAAAAAgAAAICAEAAEgABBYAIQACEAAEoAAIIQOIwIAPgAAAAAAAAAAAAAAAAAAAAAAAAAAAAA==

> <PUBCHEM_IUPAC_OPENEYE_NAME>
[(1S)-3-but-2-enyl-2-methyl-4-oxo-cyclopent-2-en-1-yl] (3R)-2,2-dimethyl-3-(2-methylprop-1-enyl)cyclopropanecarboxylate

> <PUBCHEM_IUPAC_CAS_NAME>
(3R)-2,2-dimethyl-3-(2-methylprop-1-enyl)-1-cyclopropanecarboxylic acid [(1S)-3-but-2-enyl-2-methyl-4-oxo-1-cyclopent-2-enyl] ester

> <PUBCHEM_IUPAC_NAME>
[(1S)-3-but-2-enyl-2-methyl-4-oxocyclopent-2-en-1-yl] (3R)-2,2-dimethyl-3-(2-methylprop-1-enyl)cyclopropane-1-carboxylate

> <PUBCHEM_IUPAC_SYSTEMATIC_NAME>
[(1S)-3-but-2-enyl-2-methyl-4-oxidanylidene-cyclopent-2-en-1-yl] (3R)-2,2-dimethyl-3-(2-methylprop-1-enyl)cyclopropane-1-carboxylate

> <PUBCHEM_IUPAC_TRADITIONAL_NAME>
(3R)-2,2-dimethyl-3-(2-methylprop-1-enyl)cyclopropanecarboxylic acid [(1S)-3-but-2-enyl-4-keto-2-methyl-cyclopent-2-en-1-yl] ester

> <PUBCHEM_IUPAC_INCHI>
InChI=1S/C20H28O3/c1-7-8-9-14-13(4)17(11-16(14)21)23-19(22)18-15(10-12(2)3)20(18,5)6/h7-8,10,15,17-18H,9,11H2,1-6H3/t15-,17+,18?/m1/s1

> <PUBCHEM_IUPAC_INCHIKEY>
FMTFEIJHMMQUJI-OEQNEYKNSA-N

> <PUBCHEM_XLOGP3>
5

> <PUBCHEM_EXACT_MASS>
316.203845

> <PUBCHEM_MOLECULAR_FORMULA>
C20H28O3

> <PUBCHEM_MOLECULAR_WEIGHT>
316.43452

> <PUBCHEM_OPENEYE_CAN_SMILES>
CC=CCC1=C(C(CC1=O)OC(=O)C2C(C2(C)C)C=C(C)C)C

> <PUBCHEM_OPENEYE_ISO_SMILES>
CC=CCC1=C([C@H](CC1=O)OC(=O)C2[C@H](C2(C)C)C=C(C)C)C

> <PUBCHEM_CACTVS_TPSA>
43.4

> <PUBCHEM_MONOISOTOPIC_WEIGHT>
316.203845

> <PUBCHEM_TOTAL_CHARGE>
0

> <PUBCHEM_HEAVY_ATOM_COUNT>
23

> <PUBCHEM_ATOM_DEF_STEREO_COUNT>
2

> <PUBCHEM_ATOM_UDEF_STEREO_COUNT>
0

> <PUBCHEM_BOND_DEF_STEREO_COUNT>
0

> <PUBCHEM_BOND_UDEF_STEREO_COUNT>
1

> <PUBCHEM_ISOTOPIC_ATOM_COUNT>
0

> <PUBCHEM_COMPONENT_COUNT>
1

> <PUBCHEM_CACTVS_TAUTO_COUNT>
5

> <PUBCHEM_COORDINATE_TYPE>
1
5
255

> <PUBCHEM_BONDANNOTATIONS>
12  1  5
21  22  1
5  9  5

$$$$

