   Color/Form

     * Crystals
     * Tan to white, crystalline solid.

   from [1]HSDB

   Odor
        Odorless
   from [2]HSDB

   Melting Point
        350 deg C (decomp)
   from [3]HSDB

   Corrosivity
        NONCORROSIVE
   from [4]HSDB

   Density/Specific Gravity
        1.59-1.63 at 25 deg C
   from [5]HSDB

   Octanol/Water Partition Coefficient
        log Kow = 5.41
   from [6]HSDB

   Solubilities

     * SOL IN STRONGLY ALKALINE AQ SOLN; READILY SOL IN ACETONE, LESS SOL
       IN BENZENE & LIGHT PETROLEUM
     * Slightly soluble in hydrocarbon solvents. Soluble in alcohols,
       ketones, acetic acid.
     * 0.4% in water at 100 deg C
     * 0.470 lb/100 lb water at 212 deg F
     * Soluble in organic solvents such as benzene and hexane. Soluble in
       light petroleum and may be recrystallized from 85-90% aqueous
       ethanol.
     * In water, 2.70 mg/L at 25 deg C

   from [7]HSDB

   Spectral Properties
        Intense mass spectral peaks: 272 m/z (100%), 274 m/z (79%), 270
   m/z (51%), 237 m/z (45%)
   from [8]HSDB

   Vapor Density
        16.94 (Air= 1)
   from [9]HSDB

   Vapor Pressure
        2.25X10-7 mm Hg at 25 deg C
   from [10]HSDB

   Other Chemical/Physical Properties

     * The hydrate /of kepone/ is less soluble in polar solvents.
       Oxygenated solvents such as ketones and alcohols are recommended
       for the hydrate. /Hydrate/
     * Henry's Law constant = 5.38X10-8 atm-cu m/mol at 25 deg C
       /Estimated/
     * Hydroxyl radical reaction rate constant = 0 cu cm/molc-sec at 25
       deg C /Estimated/

   from [11]HSDB

   Computed Properties
   Molecular Weight                  490.6364 [g/mol]
   Molecular Formula                 C[10]Cl[10]O
   XLogP3-AA                         3.9
   H-Bond Donor                      0
   H-Bond Acceptor                   1
   Rotatable Bond Count              0
   Exact Mass                        489.677541
   MonoIsotopic Mass                 485.683441
   Topological Polar Surface Area    17.1
   Heavy Atom Count                  21
   Formal Charge                     0
   Complexity                        631
   Isotope Atom Count                0
   Defined Atom Stereocenter Count   0
   Undefined Atom Stereocenter Count 4
   Defined Bond Stereocenter Count   0
   Undefined Bond Stereocenter Count 0
   Covalently-Bonded Unit Count      1
   Feature 3D Acceptor Count         1
   Feature 3D Ring Count             1
   Effective Rotor Count             0.2
   Conformer Sampling RMSD           0.6
   CID Conformer Count               [12]1

References

   1. http://toxnet.nlm.nih.gov/cgi-bin/sis/search/r?dbs+hsdb:@term+@rn+@rel+143-50-0
   2. http://toxnet.nlm.nih.gov/cgi-bin/sis/search/r?dbs+hsdb:@term+@rn+@rel+143-50-0
   3. http://toxnet.nlm.nih.gov/cgi-bin/sis/search/r?dbs+hsdb:@term+@rn+@rel+143-50-0
   4. http://toxnet.nlm.nih.gov/cgi-bin/sis/search/r?dbs+hsdb:@term+@rn+@rel+143-50-0
   5. http://toxnet.nlm.nih.gov/cgi-bin/sis/search/r?dbs+hsdb:@term+@rn+@rel+143-50-0
   6. http://toxnet.nlm.nih.gov/cgi-bin/sis/search/r?dbs+hsdb:@term+@rn+@rel+143-50-0
   7. http://toxnet.nlm.nih.gov/cgi-bin/sis/search/r?dbs+hsdb:@term+@rn+@rel+143-50-0
   8. http://toxnet.nlm.nih.gov/cgi-bin/sis/search/r?dbs+hsdb:@term+@rn+@rel+143-50-0
   9. http://toxnet.nlm.nih.gov/cgi-bin/sis/search/r?dbs+hsdb:@term+@rn+@rel+143-50-0
  10. http://toxnet.nlm.nih.gov/cgi-bin/sis/search/r?dbs+hsdb:@term+@rn+@rel+143-50-0
  11. http://toxnet.nlm.nih.gov/cgi-bin/sis/search/r?dbs+hsdb:@term+@rn+@rel+143-50-0
  12. http://pubchem.ncbi.nlm.nih.gov/vw3d/vw3d.cgi?cid=299
