   Color/Form
        Colorless to yellow liquid ... [Note: A gas above 101 degrees F].
   from [1]HSDB

   Odor
        ... Ether-like odor.
   from [2]HSDB

   Taste
        Burning taste
   from [3]HSDB

   Boiling Point
        38.2 deg C
   from [4]HSDB

   Melting Point
        -119 deg C
   from [5]HSDB

   Corrosivity
        Liquid ethyl bromide will attack some forms of plastics, rubber
   and coatings.
   from [6]HSDB

   Critical Temperature and Pressure
        Critical temperature: 776.8 deg C; critical pressure: 6.2315X10+6
   Pa
   from [7]HSDB

   Density/Specific Gravity
        1.4612 @ 20 deg C/4 deg C
   from [8]HSDB

   Heat of Combustion
        -1.2844X10+9 J/kmol
   from [9]HSDB

   Heat of Vaporization
        3.3377X10+7 J/kmol @ -118.45 deg C
   from [10]HSDB

   Octanol/Water Partition Coefficient
        log Kow = 1.61
   from [11]HSDB

   Solubilities

     * Miscible in alcohol, ether, chloroform, org solvents
     * 1.067, 0.965, 0.914, and 0.896 G/100 G water at 0, 10, 20, and 30
       deg C, respectively.
     * In water, 9,000 mg/l @ 25 deg C

   from [12]HSDB

   Spectral Properties

     * Index of refraction: 1.42386 @ 25 deg C
     * Index of refraction 1.4242 @ 20 deg C/D
     * IR: 5930 (Coblentz Society Spectral Collection)
     * 1H NMR: 10 (Varian Associates NMR Spectra Catalogue)
     * MASS: 1450 (NIST/EPA/MSDC Mass Spectral Database, 1990 version)
     * C-13 NMR: 133 (Stothers, Carbon-13 NMR scectroscopy, Academic
       Press, New York)

   from [13]HSDB

   Surface Tension
        24.5 dyne/cm @ 20 deg C
   from [14]HSDB

   Vapor Density
        3.76 (Air= 1)
   from [15]HSDB

   Vapor Pressure
        467 mm Hg @ 25 deg C
   from [16]HSDB

   Viscosity
        0.379 cP @ 25 deg C
   from [17]HSDB

   Other Chemical/Physical Properties

     * Per cent in saturated air: 62.5 at 25 deg C
     * 1 mg/l = approx. 224.3 ppm and 1ppm = approx. 4.46 mg/cu-m at 25
       deg C and 760 torr
     * Henry's Law constant = 7.41X10-3 atm-cu m/mole @ 25 deg C
     * Hydroxyl radical reaction rate constant = 3.50X10-13 cu cm/molc sec
       @ 25 deg C

   from [18]HSDB

   Computed Properties
   Molecular Weight                  108.9651 [g/mol]
   Molecular Formula                 C[2]H[5]Br
   XLogP3-AA                         1.4
   H-Bond Donor                      0
   H-Bond Acceptor                   0
   Rotatable Bond Count              0
   Exact Mass                        107.957462
   MonoIsotopic Mass                 107.957462
   Topological Polar Surface Area    0
   Heavy Atom Count                  3
   Formal Charge                     0
   Complexity                        2.8
   Isotope Atom Count                0
   Defined Atom Stereocenter Count   0
   Undefined Atom Stereocenter Count 0
   Defined Bond Stereocenter Count   0
   Undefined Bond Stereocenter Count 0
   Covalently-Bonded Unit Count      1
   Feature 3D Hydrophobe Count       2
   Effective Rotor Count             0
   Conformer Sampling RMSD           0.4
   CID Conformer Count               [19]1

References

   1. http://toxnet.nlm.nih.gov/cgi-bin/sis/search/r?dbs+hsdb:@term+@rn+@rel+74-96-4
   2. http://toxnet.nlm.nih.gov/cgi-bin/sis/search/r?dbs+hsdb:@term+@rn+@rel+74-96-4
   3. http://toxnet.nlm.nih.gov/cgi-bin/sis/search/r?dbs+hsdb:@term+@rn+@rel+74-96-4
   4. http://toxnet.nlm.nih.gov/cgi-bin/sis/search/r?dbs+hsdb:@term+@rn+@rel+74-96-4
   5. http://toxnet.nlm.nih.gov/cgi-bin/sis/search/r?dbs+hsdb:@term+@rn+@rel+74-96-4
   6. http://toxnet.nlm.nih.gov/cgi-bin/sis/search/r?dbs+hsdb:@term+@rn+@rel+74-96-4
   7. http://toxnet.nlm.nih.gov/cgi-bin/sis/search/r?dbs+hsdb:@term+@rn+@rel+74-96-4
   8. http://toxnet.nlm.nih.gov/cgi-bin/sis/search/r?dbs+hsdb:@term+@rn+@rel+74-96-4
   9. http://toxnet.nlm.nih.gov/cgi-bin/sis/search/r?dbs+hsdb:@term+@rn+@rel+74-96-4
  10. http://toxnet.nlm.nih.gov/cgi-bin/sis/search/r?dbs+hsdb:@term+@rn+@rel+74-96-4
  11. http://toxnet.nlm.nih.gov/cgi-bin/sis/search/r?dbs+hsdb:@term+@rn+@rel+74-96-4
  12. http://toxnet.nlm.nih.gov/cgi-bin/sis/search/r?dbs+hsdb:@term+@rn+@rel+74-96-4
  13. http://toxnet.nlm.nih.gov/cgi-bin/sis/search/r?dbs+hsdb:@term+@rn+@rel+74-96-4
  14. http://toxnet.nlm.nih.gov/cgi-bin/sis/search/r?dbs+hsdb:@term+@rn+@rel+74-96-4
  15. http://toxnet.nlm.nih.gov/cgi-bin/sis/search/r?dbs+hsdb:@term+@rn+@rel+74-96-4
  16. http://toxnet.nlm.nih.gov/cgi-bin/sis/search/r?dbs+hsdb:@term+@rn+@rel+74-96-4
  17. http://toxnet.nlm.nih.gov/cgi-bin/sis/search/r?dbs+hsdb:@term+@rn+@rel+74-96-4
  18. http://toxnet.nlm.nih.gov/cgi-bin/sis/search/r?dbs+hsdb:@term+@rn+@rel+74-96-4
  19. http://pubchem.ncbi.nlm.nih.gov/vw3d/vw3d.cgi?cid=6332
