5941
  -OEChem-06261200592D

 24 21  0     0  0  0  0  0  0999 V2000
    3.0680    0.0000    0.0000 Cl  0  0  0  0  0  0  0  0  0  0  0  0
    3.0680    2.5000    0.0000 Cl  0  0  0  0  0  0  0  0  0  0  0  0
    3.1350    6.1200    0.0000 S   0  0  0  0  0  0  0  0  0  0  0  0
    4.0010    5.6200    0.0000 S   0  0  0  0  0  0  0  0  0  0  0  0
    0.5369    5.6200    0.0000 N   0  0  0  0  0  0  0  0  0  0  0  0
    6.5991    6.1200    0.0000 N   0  0  0  0  0  0  0  0  0  0  0  0
    2.2690    5.6200    0.0000 C   0  0  0  0  0  0  0  0  0  0  0  0
    4.8671    6.1200    0.0000 C   0  0  0  0  0  0  0  0  0  0  0  0
    1.4030    6.1200    0.0000 C   0  0  0  0  0  0  0  0  0  0  0  0
    5.7331    5.6200    0.0000 C   0  0  0  0  0  0  0  0  0  0  0  0
    1.8705    5.1450    0.0000 H   0  0  0  0  0  0  0  0  0  0  0  0
    2.6675    5.1450    0.0000 H   0  0  0  0  0  0  0  0  0  0  0  0
    5.2656    6.5950    0.0000 H   0  0  0  0  0  0  0  0  0  0  0  0
    4.4685    6.5950    0.0000 H   0  0  0  0  0  0  0  0  0  0  0  0
    1.8015    6.5950    0.0000 H   0  0  0  0  0  0  0  0  0  0  0  0
    1.0044    6.5950    0.0000 H   0  0  0  0  0  0  0  0  0  0  0  0
    5.3346    5.1450    0.0000 H   0  0  0  0  0  0  0  0  0  0  0  0
    6.1316    5.1450    0.0000 H   0  0  0  0  0  0  0  0  0  0  0  0
    7.1360    5.8100    0.0000 H   0  0  0  0  0  0  0  0  0  0  0  0
    6.5991    6.7400    0.0000 H   0  0  0  0  0  0  0  0  0  0  0  0
    0.0000    5.9300    0.0000 H   0  0  0  0  0  0  0  0  0  0  0  0
    0.5369    5.0000    0.0000 H   0  0  0  0  0  0  0  0  0  0  0  0
    4.0680    0.0000    0.0000 H   0  0  0  0  0  0  0  0  0  0  0  0
    4.0680    2.5000    0.0000 H   0  0  0  0  0  0  0  0  0  0  0  0
  1 23  1  0  0  0  0
  2 24  1  0  0  0  0
  3  4  1  0  0  0  0
  3  7  1  0  0  0  0
  4  8  1  0  0  0  0
  5  9  1  0  0  0  0
  5 21  1  0  0  0  0
  5 22  1  0  0  0  0
  6 10  1  0  0  0  0
  6 19  1  0  0  0  0
  6 20  1  0  0  0  0
  7  9  1  0  0  0  0
  7 11  1  0  0  0  0
  7 12  1  0  0  0  0
  8 10  1  0  0  0  0
  8 13  1  0  0  0  0
  8 14  1  0  0  0  0
  9 15  1  0  0  0  0
  9 16  1  0  0  0  0
 10 17  1  0  0  0  0
 10 18  1  0  0  0  0
M  END
> <PUBCHEM_COMPOUND_CID>
5941

> <PUBCHEM_COMPOUND_CANONICALIZED>
1

> <PUBCHEM_CACTVS_COMPLEXITY>
37

> <PUBCHEM_CACTVS_HBOND_ACCEPTOR>
4

> <PUBCHEM_CACTVS_HBOND_DONOR>
4

> <PUBCHEM_CACTVS_ROTATABLE_BOND>
5

> <PUBCHEM_CACTVS_SUBSKEYS>
AAADccBjAABmAAAAAAAAAAAAAAAAAAAAAAAAAAAAAAAAAAAAAAAAHAQQAAAAAADFQASAAABAAAAAAAAAAAAAAAAAAAAAAIAAAAAAAAAAAAAAAAAAEAAAAAAAAAAAAAAAAAAAAAAAAAAAAAAAAAAAAAAAAA==

> <PUBCHEM_IUPAC_OPENEYE_NAME>
2-(2-aminoethyldisulfanyl)ethanamine dihydrochloride

> <PUBCHEM_IUPAC_CAS_NAME>
2-(2-aminoethyldisulfanyl)ethanamine dihydrochloride

> <PUBCHEM_IUPAC_NAME>
2-(2-aminoethyldisulfanyl)ethanamine dihydrochloride

> <PUBCHEM_IUPAC_SYSTEMATIC_NAME>
2-(2-azanylethyldisulfanyl)ethanamine dihydrochloride

> <PUBCHEM_IUPAC_TRADITIONAL_NAME>
2-(2-aminoethyldisulfanyl)ethylamine dihydrochloride

> <PUBCHEM_IUPAC_INCHI>
InChI=1S/C4H12N2S2.2ClH/c5-1-3-7-8-4-2-6;;/h1-6H2;2*1H

> <PUBCHEM_IUPAC_INCHIKEY>
YUFRRMZSSPQMOS-UHFFFAOYSA-N

> <PUBCHEM_EXACT_MASS>
223.997546

> <PUBCHEM_MOLECULAR_FORMULA>
C4H14Cl2N2S2

> <PUBCHEM_MOLECULAR_WEIGHT>
225.20336

> <PUBCHEM_OPENEYE_CAN_SMILES>
C(CSSCCN)N.Cl.Cl

> <PUBCHEM_OPENEYE_ISO_SMILES>
C(CSSCCN)N.Cl.Cl

> <PUBCHEM_CACTVS_TPSA>
103

> <PUBCHEM_MONOISOTOPIC_WEIGHT>
223.997546

> <PUBCHEM_TOTAL_CHARGE>
0

> <PUBCHEM_HEAVY_ATOM_COUNT>
10

> <PUBCHEM_ATOM_DEF_STEREO_COUNT>
0

> <PUBCHEM_ATOM_UDEF_STEREO_COUNT>
0

> <PUBCHEM_BOND_DEF_STEREO_COUNT>
0

> <PUBCHEM_BOND_UDEF_STEREO_COUNT>
0

> <PUBCHEM_ISOTOPIC_ATOM_COUNT>
0

> <PUBCHEM_COMPONENT_COUNT>
3

> <PUBCHEM_CACTVS_TAUTO_COUNT>
1

> <PUBCHEM_COORDINATE_TYPE>
1
5
255

$$$$

