13735
  -OEChem-06241222402D

 33 34  0     0  0  0  0  0  0999 V2000
    4.2470    0.0000    0.0000 Cl  0  5  0  0  0  0  0  0  0  0  0  0
    4.0682    5.2067    0.0000 S   0  0  0  0  0  0  0  0  0  0  0  0
    7.5984    5.2308    0.0000 N   0  3  0  0  0  0  0  0  0  0  0  0
    4.0682    3.2067    0.0000 N   0  0  0  0  0  0  0  0  0  0  0  0
    0.5381    5.2308    0.0000 N   0  0  0  0  0  0  0  0  0  0  0  0
    4.9343    4.7067    0.0000 C   0  0  0  0  0  0  0  0  0  0  0  0
    6.7343    4.7275    0.0000 C   0  0  0  0  0  0  0  0  0  0  0  0
    4.9343    3.7067    0.0000 C   0  0  0  0  0  0  0  0  0  0  0  0
    5.8282    5.2413    0.0000 C   0  0  0  0  0  0  0  0  0  0  0  0
    3.2022    4.7067    0.0000 C   0  0  0  0  0  0  0  0  0  0  0  0
    3.2022    3.7067    0.0000 C   0  0  0  0  0  0  0  0  0  0  0  0
    6.7343    3.6858    0.0000 C   0  0  0  0  0  0  0  0  0  0  0  0
    5.8282    3.1720    0.0000 C   0  0  0  0  0  0  0  0  0  0  0  0
    2.3083    5.2413    0.0000 C   0  0  0  0  0  0  0  0  0  0  0  0
    2.3083    3.1720    0.0000 C   0  0  0  0  0  0  0  0  0  0  0  0
    1.4022    4.7275    0.0000 C   0  0  0  0  0  0  0  0  0  0  0  0
    8.4663    4.7342    0.0000 C   0  0  0  0  0  0  0  0  0  0  0  0
    7.5945    6.2308    0.0000 C   0  0  0  0  0  0  0  0  0  0  0  0
    1.4022    3.6858    0.0000 C   0  0  0  0  0  0  0  0  0  0  0  0
    5.8210    5.8613    0.0000 H   0  0  0  0  0  0  0  0  0  0  0  0
    7.2700    3.3738    0.0000 H   0  0  0  0  0  0  0  0  0  0  0  0
    5.8210    2.5520    0.0000 H   0  0  0  0  0  0  0  0  0  0  0  0
    2.3154    5.8613    0.0000 H   0  0  0  0  0  0  0  0  0  0  0  0
    2.3154    2.5520    0.0000 H   0  0  0  0  0  0  0  0  0  0  0  0
    8.2145    6.2332    0.0000 H   0  0  0  0  0  0  0  0  0  0  0  0
    8.1584    4.1960    0.0000 H   0  0  0  0  0  0  0  0  0  0  0  0
    9.0044    4.4262    0.0000 H   0  0  0  0  0  0  0  0  0  0  0  0
    8.7742    5.2723    0.0000 H   0  0  0  0  0  0  0  0  0  0  0  0
    7.5921    6.8508    0.0000 H   0  0  0  0  0  0  0  0  0  0  0  0
    6.9745    6.2284    0.0000 H   0  0  0  0  0  0  0  0  0  0  0  0
    0.8665    3.3738    0.0000 H   0  0  0  0  0  0  0  0  0  0  0  0
    0.0000    4.9229    0.0000 H   0  0  0  0  0  0  0  0  0  0  0  0
    0.5405    5.8508    0.0000 H   0  0  0  0  0  0  0  0  0  0  0  0
  2  6  1  0  0  0  0
  2 10  1  0  0  0  0
  3  7  2  0  0  0  0
  3 17  1  0  0  0  0
  3 18  1  0  0  0  0
  4  8  2  0  0  0  0
  4 11  1  0  0  0  0
  5 16  1  0  0  0  0
  5 32  1  0  0  0  0
  5 33  1  0  0  0  0
  6  8  1  0  0  0  0
  6  9  2  0  0  0  0
  7  9  1  0  0  0  0
  7 12  1  0  0  0  0
  8 13  1  0  0  0  0
  9 20  1  0  0  0  0
 10 11  2  0  0  0  0
 10 14  1  0  0  0  0
 11 15  1  0  0  0  0
 12 13  2  0  0  0  0
 12 21  1  0  0  0  0
 13 22  1  0  0  0  0
 14 16  2  0  0  0  0
 14 23  1  0  0  0  0
 15 19  2  0  0  0  0
 15 24  1  0  0  0  0
 16 19  1  0  0  0  0
 17 26  1  0  0  0  0
 17 27  1  0  0  0  0
 17 28  1  0  0  0  0
 18 25  1  0  0  0  0
 18 29  1  0  0  0  0
 18 30  1  0  0  0  0
 19 31  1  0  0  0  0
M  CHG  2   1  -1   3   1
M  END
> <PUBCHEM_COMPOUND_CID>
13735

> <PUBCHEM_COMPOUND_CANONICALIZED>
1

> <PUBCHEM_CACTVS_COMPLEXITY>
483

> <PUBCHEM_CACTVS_HBOND_ACCEPTOR>
4

> <PUBCHEM_CACTVS_HBOND_DONOR>
1

> <PUBCHEM_CACTVS_ROTATABLE_BOND>
0

> <PUBCHEM_CACTVS_SUBSKEYS>
AAADccBzAABEAAAAAAAAAAAAAAAAAAAAAAAwQIAAAAAAAACBAAAAHAQQAAAACAiBUAQywYNAAAigASRiRACCAAAgChAIiBwYZJgIICKgkZGAIARgkAAoyAcQAAAAAACAACAAAQAAAQAAQAACAAAAAAAAAA==

> <PUBCHEM_IUPAC_OPENEYE_NAME>
(7-aminophenothiazin-3-ylidene)-dimethyl-ammonium chloride

> <PUBCHEM_IUPAC_CAS_NAME>
(7-amino-3-phenothiazinylidene)-dimethylammonium chloride

> <PUBCHEM_IUPAC_NAME>
(7-aminophenothiazin-3-ylidene)-dimethylazanium chloride

> <PUBCHEM_IUPAC_SYSTEMATIC_NAME>
(7-azanylphenothiazin-3-ylidene)-dimethyl-azanium chloride

> <PUBCHEM_IUPAC_TRADITIONAL_NAME>
(7-aminophenothiazin-3-ylidene)-dimethyl-ammonium chloride

> <PUBCHEM_IUPAC_INCHI>
InChI=1S/C14H13N3S.ClH/c1-17(2)10-4-6-12-14(8-10)18-13-7-9(15)3-5-11(13)16-12;/h3-8,15H,1-2H3;1H

> <PUBCHEM_IUPAC_INCHIKEY>
NALREUIWICQLPS-UHFFFAOYSA-N

> <PUBCHEM_EXACT_MASS>
291.059696

> <PUBCHEM_MOLECULAR_FORMULA>
C14H14ClN3S

> <PUBCHEM_MOLECULAR_WEIGHT>
291.79906

> <PUBCHEM_OPENEYE_CAN_SMILES>
C[N+](=C1C=CC2=NC3=C(C=C(C=C3)N)SC2=C1)C.[Cl-]

> <PUBCHEM_OPENEYE_ISO_SMILES>
C[N+](=C1C=CC2=NC3=C(C=C(C=C3)N)SC2=C1)C.[Cl-]

> <PUBCHEM_CACTVS_TPSA>
66.7

> <PUBCHEM_MONOISOTOPIC_WEIGHT>
291.059696

> <PUBCHEM_TOTAL_CHARGE>
0

> <PUBCHEM_HEAVY_ATOM_COUNT>
19

> <PUBCHEM_ATOM_DEF_STEREO_COUNT>
0

> <PUBCHEM_ATOM_UDEF_STEREO_COUNT>
0

> <PUBCHEM_BOND_DEF_STEREO_COUNT>
0

> <PUBCHEM_BOND_UDEF_STEREO_COUNT>
0

> <PUBCHEM_ISOTOPIC_ATOM_COUNT>
0

> <PUBCHEM_COMPONENT_COUNT>
2

> <PUBCHEM_CACTVS_TAUTO_COUNT>
1

> <PUBCHEM_COORDINATE_TYPE>
1
5
255

> <PUBCHEM_BONDANNOTATIONS>
10  11  8
10  14  8
11  15  8
12  13  8
14  16  8
15  19  8
16  19  8
2  10  8
2  6  8
4  11  8
4  8  8
6  9  8
7  12  8
7  9  8
8  13  8

$$$$

