16212360
  -OEChem-07051213122D

  8  6  0     0  0  0  0  0  0999 V2000
    5.4641    0.2500    0.0000 Na  0  3  0  0  0  0  0  0  0  0  0  0
    2.0000    0.2500    0.0000 F   0  0  0  0  0  0  0  0  0  0  0  0
    4.5981    0.7500    0.0000 O   0  5  0  0  0  0  0  0  0  0  0  0
    3.7320   -0.7500    0.0000 O   0  0  0  0  0  0  0  0  0  0  0  0
    2.8660    0.7500    0.0000 C   0  0  0  0  0  0  0  0  0  0  0  0
    3.7320    0.2500    0.0000 C   0  0  0  0  0  0  0  0  0  0  0  0
    3.2646    1.2250    0.0000 H   0  0  0  0  0  0  0  0  0  0  0  0
    2.4675    1.2250    0.0000 H   0  0  0  0  0  0  0  0  0  0  0  0
  2  5  1  0  0  0  0
  3  6  1  0  0  0  0
  4  6  2  0  0  0  0
  5  6  1  0  0  0  0
  5  7  1  0  0  0  0
  5  8  1  0  0  0  0
M  CHG  2   1   1   3  -1
M  END
> <PUBCHEM_COMPOUND_CID>
16212360

> <PUBCHEM_COMPOUND_CANONICALIZED>
1

> <PUBCHEM_CACTVS_COMPLEXITY>
46.8

> <PUBCHEM_CACTVS_HBOND_ACCEPTOR>
3

> <PUBCHEM_CACTVS_HBOND_DONOR>
0

> <PUBCHEM_CACTVS_ROTATABLE_BOND>
1

> <PUBCHEM_CACTVS_SUBSKEYS>
AAADcQBAMSAAAAAAAAAAAAAAAAAAAAAAAAAAAAAAAAAAAAAAAAAAGwAAAAAAAACAgAAACAAAAAAIAACQCAAAAAAAAAAAAAAAAAAAAAAAAAAAAAAAAAAAAAAAAAAAAAAAAAAAAAAAAAAAAAAAAAAAAAAAAA==

> <PUBCHEM_IUPAC_OPENEYE_NAME>
sodium 2-fluoroacetate

> <PUBCHEM_IUPAC_CAS_NAME>
sodium 2-fluoroacetate

> <PUBCHEM_IUPAC_NAME>
sodium 2-fluoroacetate

> <PUBCHEM_IUPAC_SYSTEMATIC_NAME>
sodium 2-fluoranylethanoate

> <PUBCHEM_IUPAC_TRADITIONAL_NAME>
sodium 2-fluoroacetate

> <PUBCHEM_IUPAC_INCHI>
InChI=1S/C2H3FO2.Na/c3-1-2(4)5;/h1H2,(H,4,5);/q;+1/p-1

> <PUBCHEM_IUPAC_INCHIKEY>
JGFYQVQAXANWJU-UHFFFAOYSA-M

> <PUBCHEM_EXACT_MASS>
99.993652

> <PUBCHEM_MOLECULAR_FORMULA>
C2H2FNaO2

> <PUBCHEM_MOLECULAR_WEIGHT>
100.024252

> <PUBCHEM_OPENEYE_CAN_SMILES>
C(C(=O)[O-])F.[Na+]

> <PUBCHEM_OPENEYE_ISO_SMILES>
C(C(=O)[O-])F.[Na+]

> <PUBCHEM_CACTVS_TPSA>
40.1

> <PUBCHEM_MONOISOTOPIC_WEIGHT>
99.993652

> <PUBCHEM_TOTAL_CHARGE>
0

> <PUBCHEM_HEAVY_ATOM_COUNT>
6

> <PUBCHEM_ATOM_DEF_STEREO_COUNT>
0

> <PUBCHEM_ATOM_UDEF_STEREO_COUNT>
0

> <PUBCHEM_BOND_DEF_STEREO_COUNT>
0

> <PUBCHEM_BOND_UDEF_STEREO_COUNT>
0

> <PUBCHEM_ISOTOPIC_ATOM_COUNT>
0

> <PUBCHEM_COMPONENT_COUNT>
2

> <PUBCHEM_CACTVS_TAUTO_COUNT>
1

> <PUBCHEM_NONSTANDARDBOND>
1  3  7

> <PUBCHEM_COORDINATE_TYPE>
1
5
255

$$$$

