441589
  -OEChem-07051212552D

 37 41  0     1  0  0  0  0  0999 V2000
    6.3002   -1.1621    0.0000 O   0  0  0  0  0  0  0  0  0  0  0  0
    3.4519   -2.7090    0.0000 O   0  0  0  0  0  0  0  0  0  0  0  0
    2.0000   -1.8708    0.0000 O   0  0  0  0  0  0  0  0  0  0  0  0
    4.5518    1.8725    0.0000 N   0  0  3  0  0  0  0  0  0  0  0  0
    5.4178    1.3725    0.0000 C   0  0  1  0  0  0  0  0  0  0  0  0
    5.4178    0.3725    0.0000 C   0  0  1  0  0  0  0  0  0  0  0  0
    6.3117    1.9072    0.0000 C   0  0  0  0  0  0  0  0  0  0  0  0
    6.3117   -0.1622    0.0000 C   0  0  1  0  0  0  0  0  0  0  0  0
    4.9169    2.7968    0.0000 C   0  0  0  0  0  0  0  0  0  0  0  0
    5.9105    2.8164    0.0000 C   0  0  0  0  0  0  0  0  0  0  0  0
    4.5518   -0.1275    0.0000 C   0  0  0  0  0  0  0  0  0  0  0  0
    3.6857    1.3725    0.0000 C   0  0  0  0  0  0  0  0  0  0  0  0
    7.2178    0.3517    0.0000 C   0  0  0  0  0  0  0  0  0  0  0  0
    3.6857    0.3725    0.0000 C   0  0  0  0  0  0  0  0  0  0  0  0
    7.2178    1.3933    0.0000 C   0  0  0  0  0  0  0  0  0  0  0  0
    4.5678   -1.1690    0.0000 C   0  0  0  0  0  0  0  0  0  0  0  0
    2.7757   -0.1344    0.0000 C   0  0  0  0  0  0  0  0  0  0  0  0
    3.6698   -1.6968    0.0000 C   0  0  0  0  0  0  0  0  0  0  0  0
    2.7677   -1.1760    0.0000 C   0  0  0  0  0  0  0  0  0  0  0  0
    2.4220   -2.8164    0.0000 C   0  0  0  0  0  0  0  0  0  0  0  0
    6.1539    0.9475    0.0000 H   0  0  0  0  0  0  0  0  0  0  0  0
    5.4112   -0.4775    0.0000 H   0  0  0  0  0  0  0  0  0  0  0  0
    6.8456   -0.4773    0.0000 H   0  0  0  0  0  0  0  0  0  0  0  0
    4.9863    3.4129    0.0000 H   0  0  0  0  0  0  0  0  0  0  0  0
    4.3153    2.9467    0.0000 H   0  0  0  0  0  0  0  0  0  0  0  0
    6.5057    2.9899    0.0000 H   0  0  0  0  0  0  0  0  0  0  0  0
    5.8168    3.4293    0.0000 H   0  0  0  0  0  0  0  0  0  0  0  0
    3.4737    1.9551    0.0000 H   0  0  0  0  0  0  0  0  0  0  0  0
    3.0752    1.2648    0.0000 H   0  0  0  0  0  0  0  0  0  0  0  0
    7.4268   -0.2320    0.0000 H   0  0  0  0  0  0  0  0  0  0  0  0
    7.8286    0.4578    0.0000 H   0  0  0  0  0  0  0  0  0  0  0  0
    7.7535    1.7054    0.0000 H   0  0  0  0  0  0  0  0  0  0  0  0
    5.1083   -1.4728    0.0000 H   0  0  0  0  0  0  0  0  0  0  0  0
    2.2424    0.1818    0.0000 H   0  0  0  0  0  0  0  0  0  0  0  0
    6.8335   -1.4783    0.0000 H   0  0  0  0  0  0  0  0  0  0  0  0
    1.8324   -3.0081    0.0000 H   0  0  0  0  0  0  0  0  0  0  0  0
    2.5507   -3.4229    0.0000 H   0  0  0  0  0  0  0  0  0  0  0  0
  8  1  1  1  0  0  0
  1 35  1  0  0  0  0
  2 18  1  0  0  0  0
  2 20  1  0  0  0  0
  3 19  1  0  0  0  0
  3 20  1  0  0  0  0
  4  5  1  0  0  0  0
  4  9  1  0  0  0  0
  4 12  1  0  0  0  0
  5  6  1  0  0  0  0
  5  7  1  0  0  0  0
  5 21  1  1  0  0  0
  6  8  1  0  0  0  0
  6 11  1  0  0  0  0
  6 22  1  6  0  0  0
  7 10  1  0  0  0  0
  7 15  2  0  0  0  0
  8 13  1  0  0  0  0
  8 23  1  0  0  0  0
  9 10  1  0  0  0  0
  9 24  1  0  0  0  0
  9 25  1  0  0  0  0
 10 26  1  0  0  0  0
 10 27  1  0  0  0  0
 11 14  1  0  0  0  0
 11 16  2  0  0  0  0
 12 14  1  0  0  0  0
 12 28  1  0  0  0  0
 12 29  1  0  0  0  0
 13 15  1  0  0  0  0
 13 30  1  0  0  0  0
 13 31  1  0  0  0  0
 14 17  2  0  0  0  0
 15 32  1  0  0  0  0
 16 18  1  0  0  0  0
 16 33  1  0  0  0  0
 17 19  1  0  0  0  0
 17 34  1  0  0  0  0
 18 19  2  0  0  0  0
 20 36  1  0  0  0  0
 20 37  1  0  0  0  0
M  END
> <PUBCHEM_COMPOUND_CID>
441589

> <PUBCHEM_COMPOUND_CANONICALIZED>
1

> <PUBCHEM_CACTVS_COMPLEXITY>
451

> <PUBCHEM_CACTVS_HBOND_ACCEPTOR>
4

> <PUBCHEM_CACTVS_HBOND_DONOR>
1

> <PUBCHEM_CACTVS_ROTATABLE_BOND>
0

> <PUBCHEM_CACTVS_SUBSKEYS>
AAADceB6MAAAAAAAAAAAAAAAAAAAAWJAAAA8QIAAAAAAAFixAAAAHgAACAAADTzhmAcwDoMABgCAAiBCAACCCAAgIAAAiAAOjIgdNiKEsRukcCpmwBGOqAew8P8OoAABAAAQQABAAAIAACCAAAAAAAAAAA==

> <PUBCHEM_IUPAC_INCHI>
InChI=1S/C16H17NO3/c18-12-2-1-9-3-4-17-7-10-5-13-14(20-8-19-13)6-11(10)15(12)16(9)17/h1,5-6,12,15-16,18H,2-4,7-8H2/t12-,15-,16-/m1/s1

> <PUBCHEM_IUPAC_INCHIKEY>
XKYSLILSDJBMCU-DAXOMENPSA-N

> <PUBCHEM_XLOGP3_AA>
1.1

> <PUBCHEM_EXACT_MASS>
271.120843

> <PUBCHEM_MOLECULAR_FORMULA>
C16H17NO3

> <PUBCHEM_MOLECULAR_WEIGHT>
271.31108

> <PUBCHEM_OPENEYE_CAN_SMILES>
C1CN2CC3=CC4=C(C=C3C5C2C1=CCC5O)OCO4

> <PUBCHEM_OPENEYE_ISO_SMILES>
C1CN2CC3=CC4=C(C=C3[C@H]5[C@H]2C1=CC[C@H]5O)OCO4

> <PUBCHEM_CACTVS_TPSA>
41.9

> <PUBCHEM_MONOISOTOPIC_WEIGHT>
271.120843

> <PUBCHEM_TOTAL_CHARGE>
0

> <PUBCHEM_HEAVY_ATOM_COUNT>
20

> <PUBCHEM_ATOM_DEF_STEREO_COUNT>
3

> <PUBCHEM_ATOM_UDEF_STEREO_COUNT>
0

> <PUBCHEM_BOND_DEF_STEREO_COUNT>
0

> <PUBCHEM_BOND_UDEF_STEREO_COUNT>
0

> <PUBCHEM_ISOTOPIC_ATOM_COUNT>
0

> <PUBCHEM_COMPONENT_COUNT>
1

> <PUBCHEM_CACTVS_TAUTO_COUNT>
1

> <PUBCHEM_COORDINATE_TYPE>
1
5
255

> <PUBCHEM_BONDANNOTATIONS>
8  1  5
11  14  8
11  16  8
14  17  8
16  18  8
17  19  8
18  19  8
5  21  5
6  22  6

$$$$

