10306
  -OEChem-06261204272D

 38 39  0     1  0  0  0  0  0999 V2000
    7.1391    2.0684    0.0000 S   0  0  0  0  0  0  0  0  0  0  0  0
    5.4641   -0.0194    0.0000 N   0  0  3  0  0  0  0  0  0  0  0  0
    2.8660    0.4806    0.0000 N   0  0  0  0  0  0  0  0  0  0  0  0
    4.5981    0.4806    0.0000 C   0  0  0  0  0  0  0  0  0  0  0  0
    3.7320   -0.0194    0.0000 C   0  0  0  0  0  0  0  0  0  0  0  0
    6.3301    0.4806    0.0000 C   0  0  0  0  0  0  0  0  0  0  0  0
    5.4641   -1.0194    0.0000 C   0  0  0  0  0  0  0  0  0  0  0  0
    6.3301    1.4806    0.0000 C   0  0  0  0  0  0  0  0  0  0  0  0
    4.5981   -1.5194    0.0000 C   0  0  0  0  0  0  0  0  0  0  0  0
    6.3301   -1.5194    0.0000 C   0  0  0  0  0  0  0  0  0  0  0  0
    2.0000   -0.0194    0.0000 C   0  0  0  0  0  0  0  0  0  0  0  0
    2.8660    1.4806    0.0000 C   0  0  0  0  0  0  0  0  0  0  0  0
    5.5211    2.0684    0.0000 C   0  0  0  0  0  0  0  0  0  0  0  0
    4.5981   -2.5194    0.0000 C   0  0  0  0  0  0  0  0  0  0  0  0
    6.3301   -2.5194    0.0000 C   0  0  0  0  0  0  0  0  0  0  0  0
    5.4641   -3.0194    0.0000 C   0  0  0  0  0  0  0  0  0  0  0  0
    5.8301    3.0194    0.0000 C   0  0  0  0  0  0  0  0  0  0  0  0
    6.8301    3.0194    0.0000 C   0  0  0  0  0  0  0  0  0  0  0  0
    4.9966    0.9555    0.0000 H   0  0  0  0  0  0  0  0  0  0  0  0
    4.1996    0.9555    0.0000 H   0  0  0  0  0  0  0  0  0  0  0  0
    3.3335   -0.4944    0.0000 H   0  0  0  0  0  0  0  0  0  0  0  0
    4.1306   -0.4944    0.0000 H   0  0  0  0  0  0  0  0  0  0  0  0
    6.5422   -0.1020    0.0000 H   0  0  0  0  0  0  0  0  0  0  0  0
    6.9407    0.5882    0.0000 H   0  0  0  0  0  0  0  0  0  0  0  0
    4.0611   -1.2094    0.0000 H   0  0  0  0  0  0  0  0  0  0  0  0
    6.8671   -1.2094    0.0000 H   0  0  0  0  0  0  0  0  0  0  0  0
    3.4860    1.4806    0.0000 H   0  0  0  0  0  0  0  0  0  0  0  0
    2.8660    2.1006    0.0000 H   0  0  0  0  0  0  0  0  0  0  0  0
    2.2460    1.4806    0.0000 H   0  0  0  0  0  0  0  0  0  0  0  0
    1.6900    0.5175    0.0000 H   0  0  0  0  0  0  0  0  0  0  0  0
    1.4631   -0.3294    0.0000 H   0  0  0  0  0  0  0  0  0  0  0  0
    2.3100   -0.5564    0.0000 H   0  0  0  0  0  0  0  0  0  0  0  0
    4.9315    1.8768    0.0000 H   0  0  0  0  0  0  0  0  0  0  0  0
    4.0611   -2.8294    0.0000 H   0  0  0  0  0  0  0  0  0  0  0  0
    6.8671   -2.8294    0.0000 H   0  0  0  0  0  0  0  0  0  0  0  0
    5.4641   -3.6394    0.0000 H   0  0  0  0  0  0  0  0  0  0  0  0
    5.4657    3.5210    0.0000 H   0  0  0  0  0  0  0  0  0  0  0  0
    7.1946    3.5210    0.0000 H   0  0  0  0  0  0  0  0  0  0  0  0
  1  8  1  0  0  0  0
  1 18  1  0  0  0  0
  2  4  1  0  0  0  0
  2  6  1  0  0  0  0
  2  7  1  0  0  0  0
  3  5  1  0  0  0  0
  3 11  1  0  0  0  0
  3 12  1  0  0  0  0
  4  5  1  0  0  0  0
  4 19  1  0  0  0  0
  4 20  1  0  0  0  0
  5 21  1  0  0  0  0
  5 22  1  0  0  0  0
  6  8  1  0  0  0  0
  6 23  1  0  0  0  0
  6 24  1  0  0  0  0
  7  9  2  0  0  0  0
  7 10  1  0  0  0  0
  8 13  2  0  0  0  0
  9 14  1  0  0  0  0
  9 25  1  0  0  0  0
 10 15  2  0  0  0  0
 10 26  1  0  0  0  0
 11 30  1  0  0  0  0
 11 31  1  0  0  0  0
 11 32  1  0  0  0  0
 12 27  1  0  0  0  0
 12 28  1  0  0  0  0
 12 29  1  0  0  0  0
 13 17  1  0  0  0  0
 13 33  1  0  0  0  0
 14 16  2  0  0  0  0
 14 34  1  0  0  0  0
 15 16  1  0  0  0  0
 15 35  1  0  0  0  0
 16 36  1  0  0  0  0
 17 18  2  0  0  0  0
 17 37  1  0  0  0  0
 18 38  1  0  0  0  0
M  END
> <PUBCHEM_COMPOUND_CID>
10306

> <PUBCHEM_COMPOUND_CANONICALIZED>
1

> <PUBCHEM_CACTVS_COMPLEXITY>
227

> <PUBCHEM_CACTVS_HBOND_ACCEPTOR>
3

> <PUBCHEM_CACTVS_HBOND_DONOR>
0

> <PUBCHEM_CACTVS_ROTATABLE_BOND>
6

> <PUBCHEM_CACTVS_SUBSKEYS>
AAADceBzAABAAAAAAAAAAAAAAAAAASAAAAAwAAAAAAAAAAABwAAAHAQAAAAACAjFUASywYMAAAiEACRCQACDAIAhChBIiBgIZIgIYCLgkZGUIAhggADoyAcQAAAAAAAAAAAAAAAAAAAAAAAAAAAAAAAAAA==

> <PUBCHEM_IUPAC_OPENEYE_NAME>
N,N-dimethyl-N'-phenyl-N'-(2-thienylmethyl)ethane-1,2-diamine

> <PUBCHEM_IUPAC_CAS_NAME>
N,N-dimethyl-N'-phenyl-N'-(thiophen-2-ylmethyl)ethane-1,2-diamine

> <PUBCHEM_IUPAC_NAME>
N,N-dimethyl-N'-phenyl-N'-(thiophen-2-ylmethyl)ethane-1,2-diamine

> <PUBCHEM_IUPAC_SYSTEMATIC_NAME>
N,N-dimethyl-N'-phenyl-N'-(thiophen-2-ylmethyl)ethane-1,2-diamine

> <PUBCHEM_IUPAC_TRADITIONAL_NAME>
dimethyl-[2-[N-(2-thenyl)anilino]ethyl]amine

> <PUBCHEM_IUPAC_INCHI>
InChI=1S/C15H20N2S/c1-16(2)10-11-17(13-15-9-6-12-18-15)14-7-4-3-5-8-14/h3-9,12H,10-11,13H2,1-2H3

> <PUBCHEM_IUPAC_INCHIKEY>
LDYJXVUOVPVZKA-UHFFFAOYSA-N

> <PUBCHEM_XLOGP3_AA>
3.3

> <PUBCHEM_EXACT_MASS>
260.13472

> <PUBCHEM_MOLECULAR_FORMULA>
C15H20N2S

> <PUBCHEM_MOLECULAR_WEIGHT>
260.3977

> <PUBCHEM_OPENEYE_CAN_SMILES>
CN(C)CCN(CC1=CC=CS1)C2=CC=CC=C2

> <PUBCHEM_OPENEYE_ISO_SMILES>
CN(C)CCN(CC1=CC=CS1)C2=CC=CC=C2

> <PUBCHEM_CACTVS_TPSA>
34.7

> <PUBCHEM_MONOISOTOPIC_WEIGHT>
260.13472

> <PUBCHEM_TOTAL_CHARGE>
0

> <PUBCHEM_HEAVY_ATOM_COUNT>
18

> <PUBCHEM_ATOM_DEF_STEREO_COUNT>
0

> <PUBCHEM_ATOM_UDEF_STEREO_COUNT>
0

> <PUBCHEM_BOND_DEF_STEREO_COUNT>
0

> <PUBCHEM_BOND_UDEF_STEREO_COUNT>
0

> <PUBCHEM_ISOTOPIC_ATOM_COUNT>
0

> <PUBCHEM_COMPONENT_COUNT>
1

> <PUBCHEM_CACTVS_TAUTO_COUNT>
1

> <PUBCHEM_COORDINATE_TYPE>
1
5
255

> <PUBCHEM_BONDANNOTATIONS>
1  18  8
1  8  8
10  15  8
13  17  8
14  16  8
15  16  8
17  18  8
7  10  8
7  9  8
8  13  8
9  14  8

$$$$

