2247
  -OEChem-07051212522D

 65 69  0     0  0  0  0  0  0999 V2000
    2.3176    5.8303    0.0000 F   0  0  0  0  0  0  0  0  0  0  0  0
   11.2619   -5.8303    0.0000 O   0  0  0  0  0  0  0  0  0  0  0  0
    7.7619   -1.5002    0.0000 N   0  0  0  0  0  0  0  0  0  0  0  0
    6.2619    1.0979    0.0000 N   0  0  0  0  0  0  0  0  0  0  0  0
    4.6783    1.9026    0.0000 N   0  0  0  0  0  0  0  0  0  0  0  0
    4.6783    0.2931    0.0000 N   0  0  0  0  0  0  0  0  0  0  0  0
    6.7619    0.2318    0.0000 C   0  0  0  0  0  0  0  0  0  0  0  0
    7.7619    0.2318    0.0000 C   0  0  0  0  0  0  0  0  0  0  0  0
    6.2619   -0.6342    0.0000 C   0  0  0  0  0  0  0  0  0  0  0  0
    8.2619   -0.6342    0.0000 C   0  0  0  0  0  0  0  0  0  0  0  0
    6.7619   -1.5002    0.0000 C   0  0  0  0  0  0  0  0  0  0  0  0
    8.2619   -2.3662    0.0000 C   0  0  0  0  0  0  0  0  0  0  0  0
    9.2619   -2.3662    0.0000 C   0  0  0  0  0  0  0  0  0  0  0  0
    5.2619    1.0979    0.0000 C   0  0  0  0  0  0  0  0  0  0  0  0
    9.7619   -3.2322    0.0000 C   0  0  0  0  0  0  0  0  0  0  0  0
    3.7320    1.5979    0.0000 C   0  0  0  0  0  0  0  0  0  0  0  0
    4.9889    2.8531    0.0000 C   0  0  0  0  0  0  0  0  0  0  0  0
    3.7320    0.5979    0.0000 C   0  0  0  0  0  0  0  0  0  0  0  0
    2.8660    2.0979    0.0000 C   0  0  0  0  0  0  0  0  0  0  0  0
    4.3211    3.5974    0.0000 C   0  0  0  0  0  0  0  0  0  0  0  0
    9.2619   -4.0983    0.0000 C   0  0  0  0  0  0  0  0  0  0  0  0
   10.7619   -3.2322    0.0000 C   0  0  0  0  0  0  0  0  0  0  0  0
    2.8660    0.0979    0.0000 C   0  0  0  0  0  0  0  0  0  0  0  0
    2.0000    1.5979    0.0000 C   0  0  0  0  0  0  0  0  0  0  0  0
    2.0000    0.5979    0.0000 C   0  0  0  0  0  0  0  0  0  0  0  0
    9.7619   -4.9643    0.0000 C   0  0  0  0  0  0  0  0  0  0  0  0
   11.2619   -4.0983    0.0000 C   0  0  0  0  0  0  0  0  0  0  0  0
    4.6318    4.5480    0.0000 C   0  0  0  0  0  0  0  0  0  0  0  0
    3.3426    3.3912    0.0000 C   0  0  0  0  0  0  0  0  0  0  0  0
   10.7619   -4.9643    0.0000 C   0  0  0  0  0  0  0  0  0  0  0  0
    3.9639    5.2922    0.0000 C   0  0  0  0  0  0  0  0  0  0  0  0
    2.6747    4.1355    0.0000 C   0  0  0  0  0  0  0  0  0  0  0  0
    2.9854    5.0860    0.0000 C   0  0  0  0  0  0  0  0  0  0  0  0
   12.2619   -5.8303    0.0000 C   0  0  0  0  0  0  0  0  0  0  0  0
    7.0719    0.7688    0.0000 H   0  0  0  0  0  0  0  0  0  0  0  0
    8.3445    0.4439    0.0000 H   0  0  0  0  0  0  0  0  0  0  0  0
    7.6542    0.8424    0.0000 H   0  0  0  0  0  0  0  0  0  0  0  0
    5.7869   -0.2356    0.0000 H   0  0  0  0  0  0  0  0  0  0  0  0
    5.7869   -1.0327    0.0000 H   0  0  0  0  0  0  0  0  0  0  0  0
    6.1793   -1.7123    0.0000 H   0  0  0  0  0  0  0  0  0  0  0  0
    6.8695   -2.1108    0.0000 H   0  0  0  0  0  0  0  0  0  0  0  0
    8.7368   -1.0327    0.0000 H   0  0  0  0  0  0  0  0  0  0  0  0
    8.7368   -0.2356    0.0000 H   0  0  0  0  0  0  0  0  0  0  0  0
    7.6793   -2.5783    0.0000 H   0  0  0  0  0  0  0  0  0  0  0  0
    8.3695   -2.9768    0.0000 H   0  0  0  0  0  0  0  0  0  0  0  0
    6.5719    1.6348    0.0000 H   0  0  0  0  0  0  0  0  0  0  0  0
    9.8445   -2.1542    0.0000 H   0  0  0  0  0  0  0  0  0  0  0  0
    9.1542   -1.7556    0.0000 H   0  0  0  0  0  0  0  0  0  0  0  0
    5.5359    2.5611    0.0000 H   0  0  0  0  0  0  0  0  0  0  0  0
    5.3715    3.3410    0.0000 H   0  0  0  0  0  0  0  0  0  0  0  0
    2.8660    2.7179    0.0000 H   0  0  0  0  0  0  0  0  0  0  0  0
    8.6419   -4.0983    0.0000 H   0  0  0  0  0  0  0  0  0  0  0  0
   11.0719   -2.6953    0.0000 H   0  0  0  0  0  0  0  0  0  0  0  0
    2.8660   -0.5221    0.0000 H   0  0  0  0  0  0  0  0  0  0  0  0
    1.4631    1.9079    0.0000 H   0  0  0  0  0  0  0  0  0  0  0  0
    1.4631    0.2879    0.0000 H   0  0  0  0  0  0  0  0  0  0  0  0
    9.4519   -5.5012    0.0000 H   0  0  0  0  0  0  0  0  0  0  0  0
   11.8819   -4.0983    0.0000 H   0  0  0  0  0  0  0  0  0  0  0  0
    5.2384    4.6758    0.0000 H   0  0  0  0  0  0  0  0  0  0  0  0
    3.1500    2.8019    0.0000 H   0  0  0  0  0  0  0  0  0  0  0  0
    4.1565    5.8816    0.0000 H   0  0  0  0  0  0  0  0  0  0  0  0
    2.0681    4.0076    0.0000 H   0  0  0  0  0  0  0  0  0  0  0  0
   12.2619   -6.4503    0.0000 H   0  0  0  0  0  0  0  0  0  0  0  0
   12.8819   -5.8303    0.0000 H   0  0  0  0  0  0  0  0  0  0  0  0
   12.2619   -5.2103    0.0000 H   0  0  0  0  0  0  0  0  0  0  0  0
  1 33  1  0  0  0  0
  2 30  1  0  0  0  0
  2 34  1  0  0  0  0
  3 10  1  0  0  0  0
  3 11  1  0  0  0  0
  3 12  1  0  0  0  0
  4  7  1  0  0  0  0
  4 14  1  0  0  0  0
  4 46  1  0  0  0  0
  5 14  1  0  0  0  0
  5 16  1  0  0  0  0
  5 17  1  0  0  0  0
  6 14  2  0  0  0  0
  6 18  1  0  0  0  0
  7  8  1  0  0  0  0
  7  9  1  0  0  0  0
  7 35  1  0  0  0  0
  8 10  1  0  0  0  0
  8 36  1  0  0  0  0
  8 37  1  0  0  0  0
  9 11  1  0  0  0  0
  9 38  1  0  0  0  0
  9 39  1  0  0  0  0
 10 42  1  0  0  0  0
 10 43  1  0  0  0  0
 11 40  1  0  0  0  0
 11 41  1  0  0  0  0
 12 13  1  0  0  0  0
 12 44  1  0  0  0  0
 12 45  1  0  0  0  0
 13 15  1  0  0  0  0
 13 47  1  0  0  0  0
 13 48  1  0  0  0  0
 15 21  2  0  0  0  0
 15 22  1  0  0  0  0
 16 18  1  0  0  0  0
 16 19  2  0  0  0  0
 17 20  1  0  0  0  0
 17 49  1  0  0  0  0
 17 50  1  0  0  0  0
 18 23  2  0  0  0  0
 19 24  1  0  0  0  0
 19 51  1  0  0  0  0
 20 28  2  0  0  0  0
 20 29  1  0  0  0  0
 21 26  1  0  0  0  0
 21 52  1  0  0  0  0
 22 27  2  0  0  0  0
 22 53  1  0  0  0  0
 23 25  1  0  0  0  0
 23 54  1  0  0  0  0
 24 25  2  0  0  0  0
 24 55  1  0  0  0  0
 25 56  1  0  0  0  0
 26 30  2  0  0  0  0
 26 57  1  0  0  0  0
 27 30  1  0  0  0  0
 27 58  1  0  0  0  0
 28 31  1  0  0  0  0
 28 59  1  0  0  0  0
 29 32  2  0  0  0  0
 29 60  1  0  0  0  0
 31 33  2  0  0  0  0
 31 61  1  0  0  0  0
 32 33  1  0  0  0  0
 32 62  1  0  0  0  0
 34 63  1  0  0  0  0
 34 64  1  0  0  0  0
 34 65  1  0  0  0  0
M  END
> <PUBCHEM_COMPOUND_CID>
2247

> <PUBCHEM_COMPOUND_CANONICALIZED>
1

> <PUBCHEM_CACTVS_COMPLEXITY>
599

> <PUBCHEM_CACTVS_HBOND_ACCEPTOR>
5

> <PUBCHEM_CACTVS_HBOND_DONOR>
1

> <PUBCHEM_CACTVS_ROTATABLE_BOND>
8

> <PUBCHEM_CACTVS_SUBSKEYS>
AAADceB7oQAAAAAAAAAAAAAAAAAAAWAAAAA8YMEAAAAAAFgB9AAAHwAQAAAADCzBng4z1rfMFACgAyRiZACCiC0hMqAJ2KA+fJiMbqLE+ZuUMChs0BPI6CeQwIAOIAAAAAAAACBAAAAAAAAAQAAAAAAAAA==

> <PUBCHEM_IUPAC_OPENEYE_NAME>
1-[(4-fluorophenyl)methyl]-N-[1-[2-(4-methoxyphenyl)ethyl]-4-piperidyl]benzimidazol-2-amine

> <PUBCHEM_IUPAC_CAS_NAME>
1-[(4-fluorophenyl)methyl]-N-[1-[2-(4-methoxyphenyl)ethyl]-4-piperidinyl]-2-benzimidazolamine

> <PUBCHEM_IUPAC_NAME>
1-[(4-fluorophenyl)methyl]-N-[1-[2-(4-methoxyphenyl)ethyl]piperidin-4-yl]benzimidazol-2-amine

> <PUBCHEM_IUPAC_SYSTEMATIC_NAME>
1-[(4-fluorophenyl)methyl]-N-[1-[2-(4-methoxyphenyl)ethyl]piperidin-4-yl]benzimidazol-2-amine

> <PUBCHEM_IUPAC_TRADITIONAL_NAME>
[1-(4-fluorobenzyl)benzimidazol-2-yl]-[1-[2-(4-methoxyphenyl)ethyl]-4-piperidyl]amine

> <PUBCHEM_IUPAC_INCHI>
InChI=1S/C28H31FN4O/c1-34-25-12-8-21(9-13-25)14-17-32-18-15-24(16-19-32)30-28-31-26-4-2-3-5-27(26)33(28)20-22-6-10-23(29)11-7-22/h2-13,24H,14-20H2,1H3,(H,30,31)

> <PUBCHEM_IUPAC_INCHIKEY>
GXDALQBWZGODGZ-UHFFFAOYSA-N

> <PUBCHEM_XLOGP3_AA>
6

> <PUBCHEM_EXACT_MASS>
458.24819

> <PUBCHEM_MOLECULAR_FORMULA>
C28H31FN4O

> <PUBCHEM_MOLECULAR_WEIGHT>
458.570343

> <PUBCHEM_OPENEYE_CAN_SMILES>
COC1=CC=C(C=C1)CCN2CCC(CC2)NC3=NC4=CC=CC=C4N3CC5=CC=C(C=C5)F

> <PUBCHEM_OPENEYE_ISO_SMILES>
COC1=CC=C(C=C1)CCN2CCC(CC2)NC3=NC4=CC=CC=C4N3CC5=CC=C(C=C5)F

> <PUBCHEM_CACTVS_TPSA>
42.3

> <PUBCHEM_MONOISOTOPIC_WEIGHT>
458.24819

> <PUBCHEM_TOTAL_CHARGE>
0

> <PUBCHEM_HEAVY_ATOM_COUNT>
34

> <PUBCHEM_ATOM_DEF_STEREO_COUNT>
0

> <PUBCHEM_ATOM_UDEF_STEREO_COUNT>
0

> <PUBCHEM_BOND_DEF_STEREO_COUNT>
0

> <PUBCHEM_BOND_UDEF_STEREO_COUNT>
0

> <PUBCHEM_ISOTOPIC_ATOM_COUNT>
0

> <PUBCHEM_COMPONENT_COUNT>
1

> <PUBCHEM_CACTVS_TAUTO_COUNT>
2

> <PUBCHEM_COORDINATE_TYPE>
1
5
255

> <PUBCHEM_BONDANNOTATIONS>
15  21  8
15  22  8
16  18  8
16  19  8
18  23  8
19  24  8
20  28  8
20  29  8
21  26  8
22  27  8
23  25  8
24  25  8
26  30  8
27  30  8
28  31  8
29  32  8
31  33  8
32  33  8
5  14  8
5  16  8
6  14  8
6  18  8

$$$$

