   Color/Form

     * COLORLESS OR SLIGHTLY YELLOW LIQ
     * Yellow to light brown liquid.

   from [1]HSDB

   Odor
        Weak, ammonia-like odor.
   from [2]HSDB

   Boiling Point
        196.25 DEG C
   from [3]HSDB

   Melting Point
        -57 DEG C
   from [4]HSDB

   Critical Temperature and Pressure
        Critical temperature = 428 deg C; Critical pressure = 51.3 atm
   from [5]HSDB

   Density/Specific Gravity
        0.989 @ 20 DEG C/4 DEG C
   from [6]HSDB

   Dissociation Constants
        pKa = 4.848 @ 25 deg C
   from [7]HSDB

   Heat of Combustion
        -973.5 kcal/mol @ 25 deg C /Liquid/
   from [8]HSDB

   Heat of Vaporization
        12.7 kcal/mol @ 25 deg C
   from [9]HSDB

   Octanol/Water Partition Coefficient
        Log kow = 1.66
   from [10]HSDB

   Solubilities

     * SOL IN ETHANOL, ETHER, CARBON TETRACHLORIDE
     * 5624 mg/l @ 25 deg C

   from [11]HSDB

   Spectral Properties

     * MAX ABSORPTION (ALCOHOL): 240 NM (LOG E= 4.0); 294 NM (LOG E=
       3.18); SADTLER REFERENCE NUMBER: 6365 (IR, PRISM); 8463 (IR,
       GRATING)
     * IR: 6959 (Coblentz Society Spectral Collection)
     * UV: 1754 (Sadtler Research Laboratories Spectral Collection)
     * NMR: 3203 (Sadtler Research Laboratories Spectral Collection)
     * MASS: 329 (Atlas of Mass Spectral Data, John Wiley & Sons, New
       York)
     * Index of refraction: 1.57367 @ 15 deg C/D; 1.5684 @ 25 deg C/D

   from [12]HSDB

   Surface Tension
        39.97 dynes/cm @ 15 deg C; 39.54 dynes/cm @ 30 deg C
   from [13]HSDB

   Vapor Density
        3.70 (AIR= 1)
   from [14]HSDB

   Vapor Pressure
        0.453 mm Hg @ 25 deg C, calculated from experimentally derived
   coefficients
   from [15]HSDB

   Viscosity
        2.568 cP @ 15 deg C; 1.766 cP @ 30 deg C
   from [16]HSDB

   Other Chemical/Physical Properties

     * Standard Heat of fusion @ 25 deg C: 7.7 kcal/mol /liquid/; 20.4
       kcal/mol /gas/
     * Dielectric constant: 6.06 @ 25 deg C
     * Becomes brown on exposure to air.

   from [17]HSDB

   Computed Properties
   Molecular Weight                  107.15306 [g/mol]
   Molecular Formula                 C[7]H[9]N
   XLogP3                            1.7
   H-Bond Donor                      1
   H-Bond Acceptor                   1
   Rotatable Bond Count              1
   Exact Mass                        107.073499
   MonoIsotopic Mass                 107.073499
   Topological Polar Surface Area    12
   Heavy Atom Count                  8
   Formal Charge                     0
   Complexity                        55.4
   Isotope Atom Count                0
   Defined Atom Stereocenter Count   0
   Undefined Atom Stereocenter Count 0
   Defined Bond Stereocenter Count   0
   Undefined Bond Stereocenter Count 0
   Covalently-Bonded Unit Count      1
   Feature 3D Donor Count            1
   Feature 3D Cation Count           1
   Feature 3D Ring Count             1
   Effective Rotor Count             1
   Conformer Sampling RMSD           0.4
   CID Conformer Count               [18]2

References

   1. http://toxnet.nlm.nih.gov/cgi-bin/sis/search/r?dbs+hsdb:@term+@rn+@rel+100-61-8
   2. http://toxnet.nlm.nih.gov/cgi-bin/sis/search/r?dbs+hsdb:@term+@rn+@rel+100-61-8
   3. http://toxnet.nlm.nih.gov/cgi-bin/sis/search/r?dbs+hsdb:@term+@rn+@rel+100-61-8
   4. http://toxnet.nlm.nih.gov/cgi-bin/sis/search/r?dbs+hsdb:@term+@rn+@rel+100-61-8
   5. http://toxnet.nlm.nih.gov/cgi-bin/sis/search/r?dbs+hsdb:@term+@rn+@rel+100-61-8
   6. http://toxnet.nlm.nih.gov/cgi-bin/sis/search/r?dbs+hsdb:@term+@rn+@rel+100-61-8
   7. http://toxnet.nlm.nih.gov/cgi-bin/sis/search/r?dbs+hsdb:@term+@rn+@rel+100-61-8
   8. http://toxnet.nlm.nih.gov/cgi-bin/sis/search/r?dbs+hsdb:@term+@rn+@rel+100-61-8
   9. http://toxnet.nlm.nih.gov/cgi-bin/sis/search/r?dbs+hsdb:@term+@rn+@rel+100-61-8
  10. http://toxnet.nlm.nih.gov/cgi-bin/sis/search/r?dbs+hsdb:@term+@rn+@rel+100-61-8
  11. http://toxnet.nlm.nih.gov/cgi-bin/sis/search/r?dbs+hsdb:@term+@rn+@rel+100-61-8
  12. http://toxnet.nlm.nih.gov/cgi-bin/sis/search/r?dbs+hsdb:@term+@rn+@rel+100-61-8
  13. http://toxnet.nlm.nih.gov/cgi-bin/sis/search/r?dbs+hsdb:@term+@rn+@rel+100-61-8
  14. http://toxnet.nlm.nih.gov/cgi-bin/sis/search/r?dbs+hsdb:@term+@rn+@rel+100-61-8
  15. http://toxnet.nlm.nih.gov/cgi-bin/sis/search/r?dbs+hsdb:@term+@rn+@rel+100-61-8
  16. http://toxnet.nlm.nih.gov/cgi-bin/sis/search/r?dbs+hsdb:@term+@rn+@rel+100-61-8
  17. http://toxnet.nlm.nih.gov/cgi-bin/sis/search/r?dbs+hsdb:@term+@rn+@rel+100-61-8
  18. http://pubchem.ncbi.nlm.nih.gov/vw3d/vw3d.cgi?cid=7515
