   Color/Form
        COLORLESS LIQUID
   from [1]HSDB

   Odor

     * CHLOROFORM-LIKE ODOR
     * Sharp, sweet, penetrating irritating odor

   from [2]HSDB

   Boiling Point
        104.3 deg C
   from [3]HSDB

   Density/Specific Gravity
        1.224 @ 20 deg C
   from [4]HSDB

   Octanol/Water Partition Coefficient
        log Kow = 2.06
   from [5]HSDB

   Solubilities

     * Sol in ether, benzene, and chloroform
     * Miscible with hydrocarbons, halogenated solvents, esters, and
       ketones
     * In water, 2,700 mg/l @ 25 deg C.

   from [6]HSDB

   Spectral Properties

     * Index of refraction: 1.4730 @ 20 deg C
     * IR: 23676 (Sadtler Research Laboratories Prism Collection)
     * 1H NMR: 14414 (Sadtler Research Laboratories Spectral Collection)
     * MASS: NIST (NIST/EPA/MCDC Mass Spectral Database 1990 version)
       1551; WILEY (Atlas of Mass Spectral Data, John Wiley and Sons, NY)
       345

   from [7]HSDB

   Vapor Density
        1.4 AT 37.8 DEG C (AIR= 1)
   from [8]HSDB

   Vapor Pressure
        26.3 mm Hg @ 20 deg C
   from [9]HSDB

   Other Chemical/Physical Properties

     * Colorless-to-amber liquid /Technical/
     * Henry's Law constant = 2.7X10-3 atm-cu m/mole @ 20 deg C
     * Hydroxyl radical rate constant = 8.4X10-12 cu cm/molecule-sec @ 25
       deg C

   from [10]HSDB

   Computed Properties
   Molecular Weight                  110.96986 [g/mol]
   Molecular Formula                 C[3]H[4]Cl[2]
   XLogP3-AA                         1.7
   H-Bond Donor                      0
   H-Bond Acceptor                   0
   Rotatable Bond Count              1
   Exact Mass                        109.969005
   MonoIsotopic Mass                 109.969005
   Topological Polar Surface Area    0
   Heavy Atom Count                  5
   Formal Charge                     0
   Complexity                        31.9
   Isotope Atom Count                0
   Defined Atom Stereocenter Count   0
   Undefined Atom Stereocenter Count 0
   Defined Bond Stereocenter Count   1
   Undefined Bond Stereocenter Count 0
   Covalently-Bonded Unit Count      1
   Effective Rotor Count             1
   Conformer Sampling RMSD           0.4
   CID Conformer Count               [11]5

References

   1. http://toxnet.nlm.nih.gov/cgi-bin/sis/search/r?dbs+hsdb:@term+@rn+@rel+10061-01-5
   2. http://toxnet.nlm.nih.gov/cgi-bin/sis/search/r?dbs+hsdb:@term+@rn+@rel+10061-01-5
   3. http://toxnet.nlm.nih.gov/cgi-bin/sis/search/r?dbs+hsdb:@term+@rn+@rel+10061-01-5
   4. http://toxnet.nlm.nih.gov/cgi-bin/sis/search/r?dbs+hsdb:@term+@rn+@rel+10061-01-5
   5. http://toxnet.nlm.nih.gov/cgi-bin/sis/search/r?dbs+hsdb:@term+@rn+@rel+10061-01-5
   6. http://toxnet.nlm.nih.gov/cgi-bin/sis/search/r?dbs+hsdb:@term+@rn+@rel+10061-01-5
   7. http://toxnet.nlm.nih.gov/cgi-bin/sis/search/r?dbs+hsdb:@term+@rn+@rel+10061-01-5
   8. http://toxnet.nlm.nih.gov/cgi-bin/sis/search/r?dbs+hsdb:@term+@rn+@rel+10061-01-5
   9. http://toxnet.nlm.nih.gov/cgi-bin/sis/search/r?dbs+hsdb:@term+@rn+@rel+10061-01-5
  10. http://toxnet.nlm.nih.gov/cgi-bin/sis/search/r?dbs+hsdb:@term+@rn+@rel+10061-01-5
  11. http://pubchem.ncbi.nlm.nih.gov/vw3d/vw3d.cgi?cid=5280970
