5281367
  -OEChem-07051212562D

 91 97  0     1  0  0  0  0  0999 V2000
    6.7281    5.2243    0.0000 O   0  0  0  0  0  0  0  0  0  0  0  0
    6.3861    3.4354    0.0000 O   0  0  0  0  0  0  0  0  0  0  0  0
    5.5000    2.9509    0.0000 O   0  0  0  0  0  0  0  0  0  0  0  0
    5.6060    1.3744    0.0000 O   0  0  0  0  0  0  0  0  0  0  0  0
    7.5337    0.2566    0.0000 O   0  0  0  0  0  0  0  0  0  0  0  0
    9.5633    5.2680    0.0000 O   0  0  0  0  0  0  0  0  0  0  0  0
    9.1512    5.9759    0.0000 O   0  0  0  0  0  0  0  0  0  0  0  0
    7.9755    6.7876    0.0000 O   0  0  0  0  0  0  0  0  0  0  0  0
   10.8455    5.2372    0.0000 O   0  0  0  0  0  0  0  0  0  0  0  0
    9.2604    0.3927    0.0000 O   0  0  0  0  0  0  0  0  0  0  0  0
    7.3164    3.3181    0.0000 C   0  0  1  0  0  0  0  0  0  0  0  0
    8.2173    2.8843    0.0000 C   0  0  2  0  0  0  0  0  0  0  0  0
    7.0938    4.2931    0.0000 C   0  0  1  0  0  0  0  0  0  0  0  0
    7.7173    5.0749    0.0000 C   0  0  1  0  0  0  0  0  0  0  0  0
    6.4468    2.7447    0.0000 C   0  0  2  0  0  0  0  0  0  0  0  0
    9.1183    3.3181    0.0000 C   0  0  1  0  0  0  0  0  0  0  0  0
    8.3112    1.8469    0.0000 C   0  0  1  0  0  0  0  0  0  0  0  0
    6.5166    1.7054    0.0000 C   0  0  2  0  0  0  0  0  0  0  0  0
    9.3408    4.2931    0.0000 C   0  0  1  0  0  0  0  0  0  0  0  0
    8.7173    5.0749    0.0000 C   0  0  2  0  0  0  0  0  0  0  0  0
    7.4551    1.2535    0.0000 C   0  0  2  0  0  0  0  0  0  0  0  0
    4.9932    2.1250    0.0000 C   0  0  3  0  0  0  0  0  0  0  0  0
    8.3408    5.8567    0.0000 C   0  0  0  0  0  0  0  0  0  0  0  0
    9.9730    2.8105    0.0000 C   0  0  0  0  0  0  0  0  0  0  0  0
    9.2171    1.4234    0.0000 C   0  0  0  0  0  0  0  0  0  0  0  0
   10.3311    4.3796    0.0000 C   0  0  0  0  0  0  0  0  0  0  0  0
    6.5836    0.7077    0.0000 C   0  0  0  0  0  0  0  0  0  0  0  0
   10.7210    3.4652    0.0000 C   0  0  0  0  0  0  0  0  0  0  0  0
    3.9955    2.0580    0.0000 C   0  0  0  0  0  0  0  0  0  0  0  0
    5.7531    0.1507    0.0000 C   0  0  0  0  0  0  0  0  0  0  0  0
    6.6507   -0.2901    0.0000 C   0  0  0  0  0  0  0  0  0  0  0  0
   11.6960    3.2427    0.0000 C   0  0  0  0  0  0  0  0  0  0  0  0
    3.4386    2.8886    0.0000 C   0  0  0  0  0  0  0  0  0  0  0  0
    3.5547    1.1604    0.0000 C   0  0  0  0  0  0  0  0  0  0  0  0
    8.4363   -0.1738    0.0000 C   0  0  0  0  0  0  0  0  0  0  0  0
    2.4408    2.8215    0.0000 C   0  0  0  0  0  0  0  0  0  0  0  0
    2.5569    1.0934    0.0000 C   0  0  0  0  0  0  0  0  0  0  0  0
    8.5149   -1.1708    0.0000 C   0  0  0  0  0  0  0  0  0  0  0  0
    2.0000    1.9239    0.0000 C   0  0  0  0  0  0  0  0  0  0  0  0
    9.4175   -1.6012    0.0000 C   0  0  0  0  0  0  0  0  0  0  0  0
    9.4961   -2.5981    0.0000 C   0  0  0  0  0  0  0  0  0  0  0  0
   10.3987   -3.0285    0.0000 C   0  0  0  0  0  0  0  0  0  0  0  0
   10.4773   -4.0254    0.0000 C   0  0  0  0  0  0  0  0  0  0  0  0
   11.3799   -4.4558    0.0000 C   0  0  0  0  0  0  0  0  0  0  0  0
   11.4585   -5.4527    0.0000 C   0  0  0  0  0  0  0  0  0  0  0  0
   12.3611   -5.8831    0.0000 C   0  0  0  0  0  0  0  0  0  0  0  0
   12.4397   -6.8800    0.0000 C   0  0  0  0  0  0  0  0  0  0  0  0
    6.7915    3.9868    0.0000 H   0  0  0  0  0  0  0  0  0  0  0  0
    6.2816    4.0424    0.0000 H   0  0  0  0  0  0  0  0  0  0  0  0
    5.7904    3.2847    0.0000 H   0  0  0  0  0  0  0  0  0  0  0  0
    9.0813    2.4690    0.0000 H   0  0  0  0  0  0  0  0  0  0  0  0
    8.8187    2.2030    0.0000 H   0  0  0  0  0  0  0  0  0  0  0  0
    9.3334    5.1443    0.0000 H   0  0  0  0  0  0  0  0  0  0  0  0
    6.9435    0.9032    0.0000 H   0  0  0  0  0  0  0  0  0  0  0  0
    8.7511    5.3919    0.0000 H   0  0  0  0  0  0  0  0  0  0  0  0
    8.8699    6.1800    0.0000 H   0  0  0  0  0  0  0  0  0  0  0  0
   10.0296    2.1931    0.0000 H   0  0  0  0  0  0  0  0  0  0  0  0
    8.9546    0.8618    0.0000 H   0  0  0  0  0  0  0  0  0  0  0  0
    9.7788    1.1609    0.0000 H   0  0  0  0  0  0  0  0  0  0  0  0
    9.4796    1.9851    0.0000 H   0  0  0  0  0  0  0  0  0  0  0  0
   10.1558    5.4508    0.0000 H   0  0  0  0  0  0  0  0  0  0  0  0
    8.8020    6.4881    0.0000 H   0  0  0  0  0  0  0  0  0  0  0  0
    5.4078    0.6657    0.0000 H   0  0  0  0  0  0  0  0  0  0  0  0
    5.2382   -0.1946    0.0000 H   0  0  0  0  0  0  0  0  0  0  0  0
    6.0984   -0.3642    0.0000 H   0  0  0  0  0  0  0  0  0  0  0  0
    7.3624    6.8800    0.0000 H   0  0  0  0  0  0  0  0  0  0  0  0
    6.1358   -0.6354    0.0000 H   0  0  0  0  0  0  0  0  0  0  0  0
    7.2072   -0.5634    0.0000 H   0  0  0  0  0  0  0  0  0  0  0  0
   11.5580    2.6382    0.0000 H   0  0  0  0  0  0  0  0  0  0  0  0
   12.3004    3.1047    0.0000 H   0  0  0  0  0  0  0  0  0  0  0  0
   11.8339    3.8471    0.0000 H   0  0  0  0  0  0  0  0  0  0  0  0
    3.7119    3.4451    0.0000 H   0  0  0  0  0  0  0  0  0  0  0  0
    3.9000    0.6455    0.0000 H   0  0  0  0  0  0  0  0  0  0  0  0
    2.0955    3.3365    0.0000 H   0  0  0  0  0  0  0  0  0  0  0  0
    2.2836    0.5369    0.0000 H   0  0  0  0  0  0  0  0  0  0  0  0
    8.0040   -1.5220    0.0000 H   0  0  0  0  0  0  0  0  0  0  0  0
    1.3814    1.8824    0.0000 H   0  0  0  0  0  0  0  0  0  0  0  0
    9.9284   -1.2499    0.0000 H   0  0  0  0  0  0  0  0  0  0  0  0
    8.9852   -2.9493    0.0000 H   0  0  0  0  0  0  0  0  0  0  0  0
   10.9096   -2.6772    0.0000 H   0  0  0  0  0  0  0  0  0  0  0  0
    9.8601   -3.9660    0.0000 H   0  0  0  0  0  0  0  0  0  0  0  0
   10.3117   -4.6228    0.0000 H   0  0  0  0  0  0  0  0  0  0  0  0
   11.9971   -4.5151    0.0000 H   0  0  0  0  0  0  0  0  0  0  0  0
   11.5455   -3.8583    0.0000 H   0  0  0  0  0  0  0  0  0  0  0  0
   10.8413   -5.3933    0.0000 H   0  0  0  0  0  0  0  0  0  0  0  0
   11.2929   -6.0502    0.0000 H   0  0  0  0  0  0  0  0  0  0  0  0
   12.9783   -5.9425    0.0000 H   0  0  0  0  0  0  0  0  0  0  0  0
   12.5267   -5.2856    0.0000 H   0  0  0  0  0  0  0  0  0  0  0  0
   11.8216   -6.9287    0.0000 H   0  0  0  0  0  0  0  0  0  0  0  0
   12.4884   -7.4981    0.0000 H   0  0  0  0  0  0  0  0  0  0  0  0
   13.0578   -6.8313    0.0000 H   0  0  0  0  0  0  0  0  0  0  0  0
  1 13  1  0  0  0  0
  1 14  1  0  0  0  0
 12  2  1  6  0  0  0
  2 22  1  0  0  0  0
  3 15  1  0  0  0  0
  3 22  1  0  0  0  0
  4 18  1  0  0  0  0
  4 22  1  0  0  0  0
 21  5  1  1  0  0  0
  5 35  1  0  0  0  0
 19  6  1  1  0  0  0
  6 61  1  0  0  0  0
 20  7  1  1  0  0  0
  7 62  1  0  0  0  0
  8 23  1  0  0  0  0
  8 66  1  0  0  0  0
  9 26  2  0  0  0  0
 10 35  2  0  0  0  0
 11 12  1  0  0  0  0
 11 13  1  0  0  0  0
 11 15  1  0  0  0  0
 11 48  1  1  0  0  0
 12 16  1  0  0  0  0
 12 17  1  0  0  0  0
 13 14  1  0  0  0  0
 13 49  1  1  0  0  0
 14 20  1  0  0  0  0
 14 23  1  1  0  0  0
 15 18  1  0  0  0  0
 15 50  1  1  0  0  0
 16 19  1  0  0  0  0
 16 24  1  0  0  0  0
 16 51  1  6  0  0  0
 17 21  1  0  0  0  0
 17 25  1  6  0  0  0
 17 52  1  0  0  0  0
 18 21  1  0  0  0  0
 18 27  1  1  0  0  0
 19 20  1  0  0  0  0
 19 26  1  0  0  0  0
 20 53  1  0  0  0  0
 21 54  1  0  0  0  0
 22 29  1  0  0  0  0
 23 55  1  0  0  0  0
 23 56  1  0  0  0  0
 24 28  2  0  0  0  0
 24 57  1  0  0  0  0
 25 58  1  0  0  0  0
 25 59  1  0  0  0  0
 25 60  1  0  0  0  0
 26 28  1  0  0  0  0
 27 30  1  0  0  0  0
 27 31  2  0  0  0  0
 28 32  1  0  0  0  0
 29 33  2  0  0  0  0
 29 34  1  0  0  0  0
 30 63  1  0  0  0  0
 30 64  1  0  0  0  0
 30 65  1  0  0  0  0
 31 67  1  0  0  0  0
 31 68  1  0  0  0  0
 32 69  1  0  0  0  0
 32 70  1  0  0  0  0
 32 71  1  0  0  0  0
 33 36  1  0  0  0  0
 33 72  1  0  0  0  0
 34 37  2  0  0  0  0
 34 73  1  0  0  0  0
 35 38  1  0  0  0  0
 36 39  2  0  0  0  0
 36 74  1  0  0  0  0
 37 39  1  0  0  0  0
 37 75  1  0  0  0  0
 38 40  2  0  0  0  0
 38 76  1  0  0  0  0
 39 77  1  0  0  0  0
 40 41  1  0  0  0  0
 40 78  1  0  0  0  0
 41 42  2  0  0  0  0
 41 79  1  0  0  0  0
 42 43  1  0  0  0  0
 42 80  1  0  0  0  0
 43 44  1  0  0  0  0
 43 81  1  0  0  0  0
 43 82  1  0  0  0  0
 44 45  1  0  0  0  0
 44 83  1  0  0  0  0
 44 84  1  0  0  0  0
 45 46  1  0  0  0  0
 45 85  1  0  0  0  0
 45 86  1  0  0  0  0
 46 47  1  0  0  0  0
 46 87  1  0  0  0  0
 46 88  1  0  0  0  0
 47 89  1  0  0  0  0
 47 90  1  0  0  0  0
 47 91  1  0  0  0  0
M  END
> <PUBCHEM_COMPOUND_CID>
5281367

> <PUBCHEM_COMPOUND_CANONICALIZED>
1

> <PUBCHEM_CACTVS_COMPLEXITY>
1410

> <PUBCHEM_CACTVS_HBOND_ACCEPTOR>
10

> <PUBCHEM_CACTVS_HBOND_DONOR>
3

> <PUBCHEM_CACTVS_ROTATABLE_BOND>
11

> <PUBCHEM_CACTVS_SUBSKEYS>
AAADcfB8PAAAAAAAAAAAAAAAEgAAASIAAAA0YIAABogSAACBAAAAGgAACAAADVSgmAIyCIAABgCIAqDSCAICAAAgAAAIiAFACMgZNjaAMRiicAAl4AEPqYfK7PzOgAAAAAAAAADCAAYQADCAAAAAAAAAAA==

> <PUBCHEM_IUPAC_INCHI>
InChI=1S/C37H44O10/c1-6-7-8-9-10-11-15-18-26(39)43-29-23(5)36-25-19-22(4)28(40)34(25,42)32(41)33(20-38)30(44-33)27(36)31-35(29,21(2)3)46-37(45-31,47-36)24-16-13-12-14-17-24/h10-19,23,25,27,29-32,38,41-42H,2,6-9,20H2,1,3-5H3/b11-10+,18-15+/t23-,25-,27+,29-,30+,31-,32-,33+,34-,35+,36+,37?/m1/s1

> <PUBCHEM_IUPAC_INCHIKEY>
OBYWPUMYSJSSFH-GCWWINTLSA-N

> <PUBCHEM_XLOGP3_AA>
4.6

> <PUBCHEM_EXACT_MASS>
648.293448

> <PUBCHEM_MOLECULAR_FORMULA>
C37H44O10

> <PUBCHEM_MOLECULAR_WEIGHT>
648.73926

> <PUBCHEM_OPENEYE_CAN_SMILES>
CCCCCC=CC=CC(=O)OC1C(C23C4C=C(C(=O)C4(C(C5(C(C2C6C1(OC(O6)(O3)C7=CC=CC=C7)C(=C)C)O5)CO)O)O)C)C

> <PUBCHEM_OPENEYE_ISO_SMILES>
CCCCC/C=C/C=C/C(=O)O[C@@H]1[C@H]([C@]23[C@@H]4C=C(C(=O)[C@]4([C@@H]([C@@]5([C@H]([C@H]2[C@@H]6[C@]1(OC(O6)(O3)C7=CC=CC=C7)C(=C)C)O5)CO)O)O)C)C

> <PUBCHEM_CACTVS_TPSA>
144

> <PUBCHEM_MONOISOTOPIC_WEIGHT>
648.293448

> <PUBCHEM_TOTAL_CHARGE>
0

> <PUBCHEM_HEAVY_ATOM_COUNT>
47

> <PUBCHEM_ATOM_DEF_STEREO_COUNT>
11

> <PUBCHEM_ATOM_UDEF_STEREO_COUNT>
1

> <PUBCHEM_BOND_DEF_STEREO_COUNT>
2

> <PUBCHEM_BOND_UDEF_STEREO_COUNT>
0

> <PUBCHEM_ISOTOPIC_ATOM_COUNT>
0

> <PUBCHEM_COMPONENT_COUNT>
1

> <PUBCHEM_CACTVS_TAUTO_COUNT>
9

> <PUBCHEM_COORDINATE_TYPE>
1
5
255

> <PUBCHEM_BONDANNOTATIONS>
11  48  5
13  49  5
14  23  5
15  50  5
16  51  6
17  25  6
18  27  5
12  2  6
22  29  3
29  33  8
29  34  8
33  36  8
34  37  8
36  39  8
37  39  8
21  5  5
19  6  5
20  7  5

$$$$

