443287
  -OEChem-07051213012D

 18 17  0     0  0  0  0  0  0999 V2000
    3.0000    2.6200    0.0000 Cl  0  0  0  0  0  0  0  0  0  0  0  0
    0.0000    2.1200    0.0000 Cl  0  0  0  0  0  0  0  0  0  0  0  0
    4.7320    3.6200    0.0000 N   0  0  0  0  0  0  0  0  0  0  0  0
    5.5981    4.1200    0.0000 N   0  0  0  0  0  0  0  0  0  0  0  0
    4.7320    2.6200    0.0000 C   0  0  0  0  0  0  0  0  0  0  0  0
    3.8660    2.1200    0.0000 C   0  0  0  0  0  0  0  0  0  0  0  0
    5.5981    2.1200    0.0000 C   0  0  0  0  0  0  0  0  0  0  0  0
    3.8660    1.1200    0.0000 C   0  0  0  0  0  0  0  0  0  0  0  0
    5.5981    1.1200    0.0000 C   0  0  0  0  0  0  0  0  0  0  0  0
    4.7320    0.6200    0.0000 C   0  0  0  0  0  0  0  0  0  0  0  0
    6.1350    2.4300    0.0000 H   0  0  0  0  0  0  0  0  0  0  0  0
    3.3291    0.8100    0.0000 H   0  0  0  0  0  0  0  0  0  0  0  0
    6.1350    0.8100    0.0000 H   0  0  0  0  0  0  0  0  0  0  0  0
    4.7320    0.0000    0.0000 H   0  0  0  0  0  0  0  0  0  0  0  0
    4.1951    3.9300    0.0000 H   0  0  0  0  0  0  0  0  0  0  0  0
    5.5981    4.7400    0.0000 H   0  0  0  0  0  0  0  0  0  0  0  0
    6.1350    3.8100    0.0000 H   0  0  0  0  0  0  0  0  0  0  0  0
    1.0000    2.1200    0.0000 H   0  0  0  0  0  0  0  0  0  0  0  0
  1  6  1  0  0  0  0
  2 18  1  0  0  0  0
  3  4  1  0  0  0  0
  3  5  1  0  0  0  0
  3 15  1  0  0  0  0
  4 16  1  0  0  0  0
  4 17  1  0  0  0  0
  5  6  1  0  0  0  0
  5  7  2  0  0  0  0
  6  8  2  0  0  0  0
  7  9  1  0  0  0  0
  7 11  1  0  0  0  0
  8 10  1  0  0  0  0
  8 12  1  0  0  0  0
  9 10  2  0  0  0  0
  9 13  1  0  0  0  0
 10 14  1  0  0  0  0
M  END
> <PUBCHEM_COMPOUND_CID>
443287

> <PUBCHEM_COMPOUND_CANONICALIZED>
1

> <PUBCHEM_CACTVS_COMPLEXITY>
87.1

> <PUBCHEM_CACTVS_HBOND_ACCEPTOR>
2

> <PUBCHEM_CACTVS_HBOND_DONOR>
3

> <PUBCHEM_CACTVS_ROTATABLE_BOND>
1

> <PUBCHEM_CACTVS_SUBSKEYS>
AAADccBjAAAGAAAAAAAAAAAAAAAAAAAAAAAwAAAAAAAAAAABAAAAHAIYAAAACAqBECAwwIBiAACAACRCQACCBAAgBwIYqAAAZogIICKBk5GAIABgkAAIyAcQAAAAAAAAAAAAABAAAAAAAAAAIAAAAAAAAA==

> <PUBCHEM_IUPAC_OPENEYE_NAME>
(2-chlorophenyl)hydrazine hydrochloride

> <PUBCHEM_IUPAC_CAS_NAME>
(2-chlorophenyl)hydrazine hydrochloride

> <PUBCHEM_IUPAC_NAME>
(2-chlorophenyl)hydrazine hydrochloride

> <PUBCHEM_IUPAC_SYSTEMATIC_NAME>
(2-chlorophenyl)diazane hydrochloride

> <PUBCHEM_IUPAC_TRADITIONAL_NAME>
(2-chlorophenyl)hydrazine hydrochloride

> <PUBCHEM_IUPAC_INCHI>
InChI=1S/C6H7ClN2.ClH/c7-5-3-1-2-4-6(5)9-8;/h1-4,9H,8H2;1H

> <PUBCHEM_IUPAC_INCHIKEY>
ADODRSVGNHNKAT-UHFFFAOYSA-N

> <PUBCHEM_EXACT_MASS>
178.006454

> <PUBCHEM_MOLECULAR_FORMULA>
C6H8Cl2N2

> <PUBCHEM_MOLECULAR_WEIGHT>
179.04712

> <PUBCHEM_OPENEYE_CAN_SMILES>
C1=CC=C(C(=C1)NN)Cl.Cl

> <PUBCHEM_OPENEYE_ISO_SMILES>
C1=CC=C(C(=C1)NN)Cl.Cl

> <PUBCHEM_CACTVS_TPSA>
38

> <PUBCHEM_MONOISOTOPIC_WEIGHT>
178.006454

> <PUBCHEM_TOTAL_CHARGE>
0

> <PUBCHEM_HEAVY_ATOM_COUNT>
10

> <PUBCHEM_ATOM_DEF_STEREO_COUNT>
0

> <PUBCHEM_ATOM_UDEF_STEREO_COUNT>
0

> <PUBCHEM_BOND_DEF_STEREO_COUNT>
0

> <PUBCHEM_BOND_UDEF_STEREO_COUNT>
0

> <PUBCHEM_ISOTOPIC_ATOM_COUNT>
0

> <PUBCHEM_COMPONENT_COUNT>
2

> <PUBCHEM_CACTVS_TAUTO_COUNT>
1

> <PUBCHEM_COORDINATE_TYPE>
1
5
255

> <PUBCHEM_BONDANNOTATIONS>
5  6  8
5  7  8
6  8  8
7  9  8
8  10  8
9  10  8

$$$$

