53297400
  -OEChem-07051213122D

 44 46  0     0  0  0  0  0  0999 V2000
    7.8167    2.4329    0.0000 O   0  0  0  0  0  0  0  0  0  0  0  0
    6.0682    2.3983    0.0000 O   0  0  0  0  0  0  0  0  0  0  0  0
    4.3198    2.4329    0.0000 O   0  0  0  0  0  0  0  0  0  0  0  0
    9.5945    2.4225    0.0000 O   0  0  0  0  0  0  0  0  0  0  0  0
    2.5381   -0.6258    0.0000 O   0  0  0  0  0  0  0  0  0  0  0  0
   10.4586   -2.1291    0.0000 O   0  0  0  0  0  0  0  0  0  0  0  0
    8.7266   -2.1225    0.0000 O   0  0  0  0  0  0  0  0  0  0  0  0
   11.3266    2.4292    0.0000 O   0  0  0  0  0  0  0  0  0  0  0  0
    6.9343    0.8983    0.0000 C   0  0  0  0  0  0  0  0  0  0  0  0
    6.9343   -0.1017    0.0000 C   0  0  0  0  0  0  0  0  0  0  0  0
    8.7343   -0.1225    0.0000 C   0  0  0  0  0  0  0  0  0  0  0  0
    8.7343    0.9192    0.0000 C   0  0  0  0  0  0  0  0  0  0  0  0
    5.2022    0.8983    0.0000 C   0  0  0  0  0  0  0  0  0  0  0  0
    7.8282    1.4330    0.0000 C   0  0  0  0  0  0  0  0  0  0  0  0
    6.0682    1.3983    0.0000 C   0  0  0  0  0  0  0  0  0  0  0  0
    5.2022   -0.1017    0.0000 C   0  0  0  0  0  0  0  0  0  0  0  0
    7.8282   -0.6363    0.0000 C   0  0  0  0  0  0  0  0  0  0  0  0
    6.0682   -0.6017    0.0000 C   0  0  0  0  0  0  0  0  0  0  0  0
    9.5984   -0.6258    0.0000 C   0  0  0  0  0  0  0  0  0  0  0  0
    9.5984    1.4225    0.0000 C   0  0  0  0  0  0  0  0  0  0  0  0
    4.3083    1.4330    0.0000 C   0  0  0  0  0  0  0  0  0  0  0  0
    4.3083   -0.6363    0.0000 C   0  0  0  0  0  0  0  0  0  0  0  0
   10.4663    0.9258    0.0000 C   0  0  0  0  0  0  0  0  0  0  0  0
    3.4022   -0.1225    0.0000 C   0  0  0  0  0  0  0  0  0  0  0  0
    3.4022    0.9192    0.0000 C   0  0  0  0  0  0  0  0  0  0  0  0
    9.5945   -1.6258    0.0000 C   0  0  0  0  0  0  0  0  0  0  0  0
   11.3304    1.4292    0.0000 C   0  0  0  0  0  0  0  0  0  0  0  0
   12.1984    0.9325    0.0000 C   0  0  0  0  0  0  0  0  0  0  0  0
    7.8210   -1.2563    0.0000 H   0  0  0  0  0  0  0  0  0  0  0  0
    6.0682   -1.2217    0.0000 H   0  0  0  0  0  0  0  0  0  0  0  0
   10.2085   -0.7358    0.0000 H   0  0  0  0  0  0  0  0  0  0  0  0
    9.8127   -0.0440    0.0000 H   0  0  0  0  0  0  0  0  0  0  0  0
    4.3154   -1.2563    0.0000 H   0  0  0  0  0  0  0  0  0  0  0  0
   10.0696    0.4494    0.0000 H   0  0  0  0  0  0  0  0  0  0  0  0
   10.8667    0.4524    0.0000 H   0  0  0  0  0  0  0  0  0  0  0  0
    2.8665    1.2312    0.0000 H   0  0  0  0  0  0  0  0  0  0  0  0
    8.3500    2.7491    0.0000 H   0  0  0  0  0  0  0  0  0  0  0  0
    5.5313    2.7083    0.0000 H   0  0  0  0  0  0  0  0  0  0  0  0
    3.7865    2.7491    0.0000 H   0  0  0  0  0  0  0  0  0  0  0  0
    2.0000   -0.3179    0.0000 H   0  0  0  0  0  0  0  0  0  0  0  0
   11.8904    0.3944    0.0000 H   0  0  0  0  0  0  0  0  0  0  0  0
   12.7365    0.6246    0.0000 H   0  0  0  0  0  0  0  0  0  0  0  0
   12.5063    1.4706    0.0000 H   0  0  0  0  0  0  0  0  0  0  0  0
   10.4562   -2.7491    0.0000 H   0  0  0  0  0  0  0  0  0  0  0  0
  1 14  1  0  0  0  0
  1 37  1  0  0  0  0
  2 15  1  0  0  0  0
  2 38  1  0  0  0  0
  3 21  1  0  0  0  0
  3 39  1  0  0  0  0
  4 20  2  0  0  0  0
  5 24  1  0  0  0  0
  5 40  1  0  0  0  0
  6 26  1  0  0  0  0
  6 44  1  0  0  0  0
  7 26  2  0  0  0  0
  8 27  2  0  0  0  0
  9 10  1  0  0  0  0
  9 14  2  0  0  0  0
  9 15  1  0  0  0  0
 10 17  2  0  0  0  0
 10 18  1  0  0  0  0
 11 12  2  0  0  0  0
 11 17  1  0  0  0  0
 11 19  1  0  0  0  0
 12 14  1  0  0  0  0
 12 20  1  0  0  0  0
 13 15  2  0  0  0  0
 13 16  1  0  0  0  0
 13 21  1  0  0  0  0
 16 18  2  0  0  0  0
 16 22  1  0  0  0  0
 17 29  1  0  0  0  0
 18 30  1  0  0  0  0
 19 26  1  0  0  0  0
 19 31  1  0  0  0  0
 19 32  1  0  0  0  0
 20 23  1  0  0  0  0
 21 25  2  0  0  0  0
 22 24  2  0  0  0  0
 22 33  1  0  0  0  0
 23 27  1  0  0  0  0
 23 34  1  0  0  0  0
 23 35  1  0  0  0  0
 24 25  1  0  0  0  0
 25 36  1  0  0  0  0
 27 28  1  0  0  0  0
 28 41  1  0  0  0  0
 28 42  1  0  0  0  0
 28 43  1  0  0  0  0
M  END
> <PUBCHEM_COMPOUND_CID>
53297400

> <PUBCHEM_COMPOUND_CANONICALIZED>
1

> <PUBCHEM_CACTVS_COMPLEXITY>
634

> <PUBCHEM_CACTVS_HBOND_ACCEPTOR>
8

> <PUBCHEM_CACTVS_HBOND_DONOR>
5

> <PUBCHEM_CACTVS_ROTATABLE_BOND>
5

> <PUBCHEM_CACTVS_SUBSKEYS>
AAADceB4PAAAAAAAAAAAAAAAAAAAAAAAAAAwYMAAAAAAAADBVAAAGgAACAAADASAmAAyDsAAAgCIAqDSCAACAAAkIAAAiAEGCMgIJzaKFRKAcUAl4BUImQeI7vTu4AADCAAYAADAAAYQADAAAAAAAAAAAA==

> <PUBCHEM_IUPAC_OPENEYE_NAME>
2-[4,5,7,10-tetrahydroxy-3-(3-oxobutanoyl)-2-anthryl]acetic acid

> <PUBCHEM_IUPAC_CAS_NAME>
2-[3-(1,3-dioxobutyl)-4,5,7,10-tetrahydroxy-2-anthracenyl]acetic acid

> <PUBCHEM_IUPAC_NAME>
2-[4,5,7,10-tetrahydroxy-3-(3-oxobutanoyl)anthracen-2-yl]acetic acid

> <PUBCHEM_IUPAC_SYSTEMATIC_NAME>
2-[4,5,7,10-tetrakis(oxidanyl)-3-(3-oxidanylidenebutanoyl)anthracen-2-yl]ethanoic acid

> <PUBCHEM_IUPAC_TRADITIONAL_NAME>
2-(3-acetoacetyl-4,5,7,10-tetrahydroxy-2-anthryl)acetic acid

> <PUBCHEM_IUPAC_INCHI>
InChI=1S/C20H16O8/c1-8(21)2-13(23)17-11(6-15(25)26)4-9-3-10-5-12(22)7-14(24)16(10)19(27)18(9)20(17)28/h3-5,7,22,24,27-28H,2,6H2,1H3,(H,25,26)

> <PUBCHEM_IUPAC_INCHIKEY>
HSQXIUDISYBBAW-UHFFFAOYSA-N

> <PUBCHEM_XLOGP3_AA>
2.6

> <PUBCHEM_EXACT_MASS>
384.084517

> <PUBCHEM_MOLECULAR_FORMULA>
C20H16O8

> <PUBCHEM_MOLECULAR_WEIGHT>
384.33624

> <PUBCHEM_OPENEYE_CAN_SMILES>
CC(=O)CC(=O)C1=C(C2=C(C3=C(C=C(C=C3C=C2C=C1CC(=O)O)O)O)O)O

> <PUBCHEM_OPENEYE_ISO_SMILES>
CC(=O)CC(=O)C1=C(C2=C(C3=C(C=C(C=C3C=C2C=C1CC(=O)O)O)O)O)O

> <PUBCHEM_CACTVS_TPSA>
152

> <PUBCHEM_MONOISOTOPIC_WEIGHT>
384.084517

> <PUBCHEM_TOTAL_CHARGE>
0

> <PUBCHEM_HEAVY_ATOM_COUNT>
28

> <PUBCHEM_ATOM_DEF_STEREO_COUNT>
0

> <PUBCHEM_ATOM_UDEF_STEREO_COUNT>
0

> <PUBCHEM_BOND_DEF_STEREO_COUNT>
0

> <PUBCHEM_BOND_UDEF_STEREO_COUNT>
0

> <PUBCHEM_ISOTOPIC_ATOM_COUNT>
0

> <PUBCHEM_COMPONENT_COUNT>
1

> <PUBCHEM_CACTVS_TAUTO_COUNT>
998

> <PUBCHEM_COORDINATE_TYPE>
1
5
255

> <PUBCHEM_BONDANNOTATIONS>
10  17  8
10  18  8
11  12  8
11  17  8
12  14  8
13  15  8
13  16  8
13  21  8
16  18  8
16  22  8
21  25  8
22  24  8
24  25  8
9  10  8
9  14  8
9  15  8

$$$$

