   Color/Form

     * Yellow viscous oil
     * LIGHT-YELLOW SOLIDS OR OILS
     * Pale yellow oil or yellow crystals
     * Clear, yellow to amber, viscous, odourless liquid

   from [1]HSDB

   Odor
        Odorless
   from [2]HSDB

   Boiling Point
        140-145 deg C @ 0.001 mm Hg
   from [3]HSDB

   Melting Point
        -20 deg C
   from [4]HSDB

   Density/Specific Gravity
        0.964 @ 25 deg C/25 deg C
   from [5]HSDB

   pH
        SOLN OF 1 PART VIT K1 & 20 PARTS ALC IS NEUTRAL TO LITMUS
   from [6]HSDB

   Solubilities

     * Insoluble in water; sparingly soluble in methanol; sol in ethanol;
       sol in acetone, benzene, petroleum ether, hexane, and dioxane; sol
       in chloroform, and other fat solvents; sol in vegetable oils
     * SOL IN FATS

   from [7]HSDB

   Spectral Properties

     * Index of refraction: 1.5263 @ 20 deg C/D; specific optical rotation
       (dioxane): -0.28 @ 589 nm
     * UV max absorption (petroleum ether): 242, 248, 260, 269, 325 nm (E=
       396, 419, 383, 387, 68, 1%, 1 cm)
     * SADTLER REF NUMBER: 16104 (IR, PRISM)
     * IR: 5231 (Coblentz Society Spectral Collection)
     * UV: 2-826 (Organic Electronic Spectral Data, Phillips et al, John
       Wiley & Sons, NY)

   from [8]HSDB

   Other Chemical/Physical Properties

     * CRYSTALS, MP: 62-63 DEG C /DIACETYL-DIHYDRO DERIVATIVE/
     * Stable to air and moisture, but decomposes in sunlight. Unaffected
       by dilute acids, but is destroyed by solutions of alkali hydroxides
       and by reducing agents.
     * Waxy mass; freely soluble in ether; sparing soluble in petroleum
       ether; insoluble in water /Dihydro form/
     * MP: 138 deg C; sol in water and methanol /Dihydro form sodium
       diphosphate/
     * Colorless oil; UV max (95% alcohol): 259, 305 nm (log Em 3.79,
       3.31); insol in water /2,3-Epoxide/

   from [9]HSDB

   Computed Properties
   Molecular Weight                  450.69574 [g/mol]
   Molecular Formula                 C[31]H[46]O[2]
   XLogP3-AA                         10.9
   H-Bond Donor                      0
   H-Bond Acceptor                   2
   Rotatable Bond Count              14
   Tautomer Count                    27
   Exact Mass                        450.349781
   MonoIsotopic Mass                 450.349781
   Topological Polar Surface Area    34.1
   Heavy Atom Count                  33
   Formal Charge                     0
   Complexity                        696
   Isotope Atom Count                0
   Defined Atom Stereocenter Count   0
   Undefined Atom Stereocenter Count 2
   Defined Bond Stereocenter Count   1
   Undefined Bond Stereocenter Count 0
   Covalently-Bonded Unit Count      1
   Feature 3D Acceptor Count         2
   Feature 3D Hydrophobe Count       4
   Feature 3D Ring Count             2
   Effective Rotor Count             14
   Conformer Sampling RMSD           1.6
   CID Conformer Count               [10]209

References

   1. http://toxnet.nlm.nih.gov/cgi-bin/sis/search/r?dbs+hsdb:@term+@rn+@rel+84-80-0
   2. http://toxnet.nlm.nih.gov/cgi-bin/sis/search/r?dbs+hsdb:@term+@rn+@rel+84-80-0
   3. http://toxnet.nlm.nih.gov/cgi-bin/sis/search/r?dbs+hsdb:@term+@rn+@rel+84-80-0
   4. http://toxnet.nlm.nih.gov/cgi-bin/sis/search/r?dbs+hsdb:@term+@rn+@rel+84-80-0
   5. http://toxnet.nlm.nih.gov/cgi-bin/sis/search/r?dbs+hsdb:@term+@rn+@rel+84-80-0
   6. http://toxnet.nlm.nih.gov/cgi-bin/sis/search/r?dbs+hsdb:@term+@rn+@rel+84-80-0
   7. http://toxnet.nlm.nih.gov/cgi-bin/sis/search/r?dbs+hsdb:@term+@rn+@rel+84-80-0
   8. http://toxnet.nlm.nih.gov/cgi-bin/sis/search/r?dbs+hsdb:@term+@rn+@rel+84-80-0
   9. http://toxnet.nlm.nih.gov/cgi-bin/sis/search/r?dbs+hsdb:@term+@rn+@rel+84-80-0
  10. http://pubchem.ncbi.nlm.nih.gov/vw3d/vw3d.cgi?cid=5280483
