14011
  -OEChem-06241222412D

 64 67  0     0  0  0  0  0  0999 V2000
    9.6872    3.8922    0.0000 Cl  0  0  0  0  0  0  0  0  0  0  0  0
    8.1524    4.5811    0.0000 F   0  0  0  0  0  0  0  0  0  0  0  0
    2.5105   -5.2612    0.0000 O   0  0  0  0  0  0  0  0  0  0  0  0
    4.6429    1.1853    0.0000 O   0  0  0  0  0  0  0  0  0  0  0  0
    5.2202   -1.5656    0.0000 N   0  0  0  0  0  0  0  0  0  0  0  0
    3.7541   -2.9260    0.0000 N   0  0  0  0  0  0  0  0  0  0  0  0
    6.2413    1.7446    0.0000 N   0  0  0  0  0  0  0  0  0  0  0  0
    5.2664    3.7690    0.0000 N   0  0  0  0  0  0  0  0  0  0  0  0
    4.2646   -1.2709    0.0000 C   0  0  0  0  0  0  0  0  0  0  0  0
    5.4427   -2.5406    0.0000 C   0  0  0  0  0  0  0  0  0  0  0  0
    4.7097   -3.2207    0.0000 C   0  0  0  0  0  0  0  0  0  0  0  0
    3.5316   -1.9510    0.0000 C   0  0  0  0  0  0  0  0  0  0  0  0
    5.9533   -0.8854    0.0000 C   0  0  0  0  0  0  0  0  0  0  0  0
    5.7307    0.0895    0.0000 C   0  0  0  0  0  0  0  0  0  0  0  0
    3.0211   -3.6061    0.0000 C   0  0  0  0  0  0  0  0  0  0  0  0
    6.4638    0.7697    0.0000 C   0  0  0  0  0  0  0  0  0  0  0  0
    3.2436   -4.5811    0.0000 C   0  0  0  0  0  0  0  0  0  0  0  0
    7.0231    2.3681    0.0000 C   0  0  0  0  0  0  0  0  0  0  0  0
    5.2664    1.9671    0.0000 C   0  0  0  0  0  0  0  0  0  0  0  0
    7.0231    3.3681    0.0000 C   0  0  0  0  0  0  0  0  0  0  0  0
    4.8325    2.8681    0.0000 C   0  0  0  0  0  0  0  0  0  0  0  0
    6.2413    3.9916    0.0000 C   0  0  0  0  0  0  0  0  0  0  0  0
    7.9170    1.8334    0.0000 C   0  0  0  0  0  0  0  0  0  0  0  0
    7.9170    3.9027    0.0000 C   0  0  0  0  0  0  0  0  0  0  0  0
    8.8231    2.3472    0.0000 C   0  0  0  0  0  0  0  0  0  0  0  0
    6.4638    4.9665    0.0000 C   0  0  0  0  0  0  0  0  0  0  0  0
    8.8231    3.3889    0.0000 C   0  0  0  0  0  0  0  0  0  0  0  0
    2.7330   -6.2362    0.0000 C   0  0  0  0  0  0  0  0  0  0  0  0
    7.4194    5.2612    0.0000 C   0  0  0  0  0  0  0  0  0  0  0  0
    5.7307    5.6467    0.0000 C   0  0  0  0  0  0  0  0  0  0  0  0
    7.6419    6.2362    0.0000 C   0  0  0  0  0  0  0  0  0  0  0  0
    5.9533    6.6216    0.0000 C   0  0  0  0  0  0  0  0  0  0  0  0
    2.0000   -6.9163    0.0000 C   0  0  0  0  0  0  0  0  0  0  0  0
    6.9088    6.9163    0.0000 C   0  0  0  0  0  0  0  0  0  0  0  0
    5.7791   -3.0614    0.0000 H   0  0  0  0  0  0  0  0  0  0  0  0
    4.5475   -0.7191    0.0000 H   0  0  0  0  0  0  0  0  0  0  0  0
    3.7704   -0.8965    0.0000 H   0  0  0  0  0  0  0  0  0  0  0  0
    6.0140   -2.2997    0.0000 H   0  0  0  0  0  0  0  0  0  0  0  0
    4.4268   -3.7724    0.0000 H   0  0  0  0  0  0  0  0  0  0  0  0
    5.2039   -3.5951    0.0000 H   0  0  0  0  0  0  0  0  0  0  0  0
    3.1952   -1.4302    0.0000 H   0  0  0  0  0  0  0  0  0  0  0  0
    2.9603   -2.1919    0.0000 H   0  0  0  0  0  0  0  0  0  0  0  0
    6.2896   -1.4063    0.0000 H   0  0  0  0  0  0  0  0  0  0  0  0
    6.5246   -0.6446    0.0000 H   0  0  0  0  0  0  0  0  0  0  0  0
    5.3944    0.6103    0.0000 H   0  0  0  0  0  0  0  0  0  0  0  0
    5.1594   -0.1514    0.0000 H   0  0  0  0  0  0  0  0  0  0  0  0
    2.6847   -3.0853    0.0000 H   0  0  0  0  0  0  0  0  0  0  0  0
    2.4498   -3.8470    0.0000 H   0  0  0  0  0  0  0  0  0  0  0  0
    6.8002    0.2488    0.0000 H   0  0  0  0  0  0  0  0  0  0  0  0
    7.0351    1.0105    0.0000 H   0  0  0  0  0  0  0  0  0  0  0  0
    3.5800   -5.1019    0.0000 H   0  0  0  0  0  0  0  0  0  0  0  0
    3.8149   -4.3402    0.0000 H   0  0  0  0  0  0  0  0  0  0  0  0
    4.3477    3.2546    0.0000 H   0  0  0  0  0  0  0  0  0  0  0  0
    4.3477    2.4815    0.0000 H   0  0  0  0  0  0  0  0  0  0  0  0
    7.9099    1.2134    0.0000 H   0  0  0  0  0  0  0  0  0  0  0  0
    7.9099    4.5227    0.0000 H   0  0  0  0  0  0  0  0  0  0  0  0
    9.3589    2.0352    0.0000 H   0  0  0  0  0  0  0  0  0  0  0  0
    3.3255   -6.4189    0.0000 H   0  0  0  0  0  0  0  0  0  0  0  0
    5.1383    5.4639    0.0000 H   0  0  0  0  0  0  0  0  0  0  0  0
    8.2343    6.4189    0.0000 H   0  0  0  0  0  0  0  0  0  0  0  0
    5.4988    7.0433    0.0000 H   0  0  0  0  0  0  0  0  0  0  0  0
    1.4075   -6.7336    0.0000 H   0  0  0  0  0  0  0  0  0  0  0  0
    2.1380   -7.5208    0.0000 H   0  0  0  0  0  0  0  0  0  0  0  0
    7.0468    7.5208    0.0000 H   0  0  0  0  0  0  0  0  0  0  0  0
  1 27  1  0  0  0  0
  2 29  1  0  0  0  0
  3 17  1  0  0  0  0
  3 28  1  0  0  0  0
  4 19  2  0  0  0  0
  5  9  1  0  0  0  0
  5 10  1  0  0  0  0
  5 13  1  0  0  0  0
  6 11  1  0  0  0  0
  6 12  1  0  0  0  0
  6 15  1  0  0  0  0
  7 16  1  0  0  0  0
  7 18  1  0  0  0  0
  7 19  1  0  0  0  0
  8 21  1  0  0  0  0
  8 22  2  0  0  0  0
  9 12  1  0  0  0  0
  9 36  1  0  0  0  0
  9 37  1  0  0  0  0
 10 11  1  0  0  0  0
 10 35  1  0  0  0  0
 10 38  1  0  0  0  0
 11 39  1  0  0  0  0
 11 40  1  0  0  0  0
 12 41  1  0  0  0  0
 12 42  1  0  0  0  0
 13 14  1  0  0  0  0
 13 43  1  0  0  0  0
 13 44  1  0  0  0  0
 14 16  1  0  0  0  0
 14 45  1  0  0  0  0
 14 46  1  0  0  0  0
 15 17  1  0  0  0  0
 15 47  1  0  0  0  0
 15 48  1  0  0  0  0
 16 49  1  0  0  0  0
 16 50  1  0  0  0  0
 17 51  1  0  0  0  0
 17 52  1  0  0  0  0
 18 20  2  0  0  0  0
 18 23  1  0  0  0  0
 19 21  1  0  0  0  0
 20 22  1  0  0  0  0
 20 24  1  0  0  0  0
 21 53  1  0  0  0  0
 21 54  1  0  0  0  0
 22 26  1  0  0  0  0
 23 25  2  0  0  0  0
 23 55  1  0  0  0  0
 24 27  2  0  0  0  0
 24 56  1  0  0  0  0
 25 27  1  0  0  0  0
 25 57  1  0  0  0  0
 26 29  1  0  0  0  0
 26 30  2  0  0  0  0
 28 33  2  0  0  0  0
 28 58  1  0  0  0  0
 29 31  2  0  0  0  0
 30 32  1  0  0  0  0
 30 59  1  0  0  0  0
 31 34  1  0  0  0  0
 31 60  1  0  0  0  0
 32 34  2  0  0  0  0
 32 61  1  0  0  0  0
 33 62  1  0  0  0  0
 33 63  1  0  0  0  0
 34 64  1  0  0  0  0
M  END
> <PUBCHEM_COMPOUND_CID>
14011

> <PUBCHEM_COMPOUND_CANONICALIZED>
1

> <PUBCHEM_CACTVS_COMPLEXITY>
715

> <PUBCHEM_CACTVS_HBOND_ACCEPTOR>
6

> <PUBCHEM_CACTVS_HBOND_DONOR>
0

> <PUBCHEM_CACTVS_ROTATABLE_BOND>
9

> <PUBCHEM_CACTVS_SUBSKEYS>
AAADceB7sQAEAAAAAAAAAAAAAAAAAAAAAAA8YIAABAAAAAABQAAAHwIAAAAADArhmC4wwIMABACoAyVyVACCCAAhBwAIiACoZpgKYKLB05GVIAhghgDYyAcQgMAOAABAIAACAAAAAIBAAAQAAAAAAAAAAA==

> <PUBCHEM_IUPAC_OPENEYE_NAME>
7-chloro-5-(2-fluorophenyl)-1-[3-[4-(2-vinyloxyethyl)piperazin-1-yl]propyl]-3H-1,4-benzodiazepin-2-one

> <PUBCHEM_IUPAC_CAS_NAME>
7-chloro-1-[3-[4-(2-ethenoxyethyl)-1-piperazinyl]propyl]-5-(2-fluorophenyl)-3H-1,4-benzodiazepin-2-one

> <PUBCHEM_IUPAC_NAME>
7-chloro-1-[3-[4-(2-ethenoxyethyl)piperazin-1-yl]propyl]-5-(2-fluorophenyl)-3H-1,4-benzodiazepin-2-one

> <PUBCHEM_IUPAC_SYSTEMATIC_NAME>
7-chloranyl-1-[3-[4-(2-ethenoxyethyl)piperazin-1-yl]propyl]-5-(2-fluorophenyl)-3H-1,4-benzodiazepin-2-one

> <PUBCHEM_IUPAC_TRADITIONAL_NAME>
7-chloro-5-(2-fluorophenyl)-1-[3-[4-(2-vinyloxyethyl)piperazino]propyl]-3H-1,4-benzodiazepin-2-one

> <PUBCHEM_IUPAC_INCHI>
InChI=1S/C26H30ClFN4O2/c1-2-34-17-16-31-14-12-30(13-15-31)10-5-11-32-24-9-8-20(27)18-22(24)26(29-19-25(32)33)21-6-3-4-7-23(21)28/h2-4,6-9,18H,1,5,10-17,19H2

> <PUBCHEM_IUPAC_INCHIKEY>
VGUDOGHKKXBBMW-UHFFFAOYSA-N

> <PUBCHEM_XLOGP3>
3.1

> <PUBCHEM_EXACT_MASS>
484.204132

> <PUBCHEM_MOLECULAR_FORMULA>
C26H30ClFN4O2

> <PUBCHEM_MOLECULAR_WEIGHT>
484.993403

> <PUBCHEM_OPENEYE_CAN_SMILES>
C=COCCN1CCN(CC1)CCCN2C(=O)CN=C(C3=C2C=CC(=C3)Cl)C4=CC=CC=C4F

> <PUBCHEM_OPENEYE_ISO_SMILES>
C=COCCN1CCN(CC1)CCCN2C(=O)CN=C(C3=C2C=CC(=C3)Cl)C4=CC=CC=C4F

> <PUBCHEM_CACTVS_TPSA>
48.4

> <PUBCHEM_MONOISOTOPIC_WEIGHT>
484.204132

> <PUBCHEM_TOTAL_CHARGE>
0

> <PUBCHEM_HEAVY_ATOM_COUNT>
34

> <PUBCHEM_ATOM_DEF_STEREO_COUNT>
0

> <PUBCHEM_ATOM_UDEF_STEREO_COUNT>
0

> <PUBCHEM_BOND_DEF_STEREO_COUNT>
0

> <PUBCHEM_BOND_UDEF_STEREO_COUNT>
0

> <PUBCHEM_ISOTOPIC_ATOM_COUNT>
0

> <PUBCHEM_COMPONENT_COUNT>
1

> <PUBCHEM_CACTVS_TAUTO_COUNT>
2

> <PUBCHEM_COORDINATE_TYPE>
1
5
255

> <PUBCHEM_BONDANNOTATIONS>
18  20  8
18  23  8
20  24  8
23  25  8
24  27  8
25  27  8
26  29  8
26  30  8
29  31  8
30  32  8
31  34  8
32  34  8

$$$$

