17395623
  -OEChem-06241222512D

 59 62  0     0  0  0  0  0  0999 V2000
    8.2619    2.0504    0.0000 O   0  0  0  0  0  0  0  0  0  0  0  0
    9.2619   -3.1458    0.0000 O   0  0  0  0  0  0  0  0  0  0  0  0
    9.2619   -1.4138    0.0000 N   0  0  0  0  0  0  0  0  0  0  0  0
    6.7619    1.1843    0.0000 N   0  0  0  0  0  0  0  0  0  0  0  0
    4.6783    2.8551    0.0000 N   0  0  0  0  0  0  0  0  0  0  0  0
    4.6783    1.2456    0.0000 N   0  0  0  0  0  0  0  0  0  0  0  0
    8.2619    0.3183    0.0000 C   0  0  0  0  0  0  0  0  0  0  0  0
    9.2619    0.3183    0.0000 C   0  0  0  0  0  0  0  0  0  0  0  0
    7.7619   -0.5477    0.0000 C   0  0  0  0  0  0  0  0  0  0  0  0
    9.7619   -0.5477    0.0000 C   0  0  0  0  0  0  0  0  0  0  0  0
    8.2619   -1.4138    0.0000 C   0  0  0  0  0  0  0  0  0  0  0  0
    7.7619    1.1843    0.0000 C   0  0  0  0  0  0  0  0  0  0  0  0
    9.7619   -2.2798    0.0000 C   0  0  0  0  0  0  0  0  0  0  0  0
    6.2619    2.0504    0.0000 C   0  0  0  0  0  0  0  0  0  0  0  0
    5.2619    2.0504    0.0000 C   0  0  0  0  0  0  0  0  0  0  0  0
    3.7320    2.5504    0.0000 C   0  0  0  0  0  0  0  0  0  0  0  0
   10.7619   -2.2798    0.0000 C   0  0  0  0  0  0  0  0  0  0  0  0
    4.9889    3.8056    0.0000 C   0  0  0  0  0  0  0  0  0  0  0  0
    3.7320    1.5503    0.0000 C   0  0  0  0  0  0  0  0  0  0  0  0
    2.8660    3.0504    0.0000 C   0  0  0  0  0  0  0  0  0  0  0  0
    2.8660    1.0503    0.0000 C   0  0  0  0  0  0  0  0  0  0  0  0
   11.2619   -3.1458    0.0000 C   0  0  0  0  0  0  0  0  0  0  0  0
    5.9674    4.0118    0.0000 C   0  0  0  0  0  0  0  0  0  0  0  0
    2.0000    2.5504    0.0000 C   0  0  0  0  0  0  0  0  0  0  0  0
    2.0000    1.5503    0.0000 C   0  0  0  0  0  0  0  0  0  0  0  0
   12.2619   -3.1458    0.0000 C   0  0  0  0  0  0  0  0  0  0  0  0
   12.7619   -4.0118    0.0000 C   0  0  0  0  0  0  0  0  0  0  0  0
   12.7619   -2.2798    0.0000 C   0  0  0  0  0  0  0  0  0  0  0  0
   13.7619   -4.0118    0.0000 C   0  0  0  0  0  0  0  0  0  0  0  0
   13.7619   -2.2798    0.0000 C   0  0  0  0  0  0  0  0  0  0  0  0
   14.2619   -3.1458    0.0000 C   0  0  0  0  0  0  0  0  0  0  0  0
    8.5719    0.8552    0.0000 H   0  0  0  0  0  0  0  0  0  0  0  0
    9.8445    0.5304    0.0000 H   0  0  0  0  0  0  0  0  0  0  0  0
    7.2869   -0.1492    0.0000 H   0  0  0  0  0  0  0  0  0  0  0  0
    7.2869   -0.9463    0.0000 H   0  0  0  0  0  0  0  0  0  0  0  0
    9.1542    0.9289    0.0000 H   0  0  0  0  0  0  0  0  0  0  0  0
    7.6793   -1.6258    0.0000 H   0  0  0  0  0  0  0  0  0  0  0  0
    8.3695   -2.0243    0.0000 H   0  0  0  0  0  0  0  0  0  0  0  0
   10.2368   -0.9463    0.0000 H   0  0  0  0  0  0  0  0  0  0  0  0
   10.2368   -0.1492    0.0000 H   0  0  0  0  0  0  0  0  0  0  0  0
    6.4519    0.6474    0.0000 H   0  0  0  0  0  0  0  0  0  0  0  0
    6.8445    2.2624    0.0000 H   0  0  0  0  0  0  0  0  0  0  0  0
    6.1542    2.6609    0.0000 H   0  0  0  0  0  0  0  0  0  0  0  0
   11.0719   -1.7428    0.0000 H   0  0  0  0  0  0  0  0  0  0  0  0
    4.9684    4.4253    0.0000 H   0  0  0  0  0  0  0  0  0  0  0  0
    4.3751    3.8930    0.0000 H   0  0  0  0  0  0  0  0  0  0  0  0
    2.8660    3.6704    0.0000 H   0  0  0  0  0  0  0  0  0  0  0  0
    2.8660    0.4304    0.0000 H   0  0  0  0  0  0  0  0  0  0  0  0
    6.0953    3.4052    0.0000 H   0  0  0  0  0  0  0  0  0  0  0  0
    6.5741    4.1397    0.0000 H   0  0  0  0  0  0  0  0  0  0  0  0
    5.8396    4.6185    0.0000 H   0  0  0  0  0  0  0  0  0  0  0  0
   10.9519   -3.6827    0.0000 H   0  0  0  0  0  0  0  0  0  0  0  0
    1.4631    2.8604    0.0000 H   0  0  0  0  0  0  0  0  0  0  0  0
    1.4631    1.2404    0.0000 H   0  0  0  0  0  0  0  0  0  0  0  0
   12.4519   -4.5488    0.0000 H   0  0  0  0  0  0  0  0  0  0  0  0
   12.4519   -1.7428    0.0000 H   0  0  0  0  0  0  0  0  0  0  0  0
   14.0719   -4.5488    0.0000 H   0  0  0  0  0  0  0  0  0  0  0  0
   14.0719   -1.7428    0.0000 H   0  0  0  0  0  0  0  0  0  0  0  0
   14.8819   -3.1458    0.0000 H   0  0  0  0  0  0  0  0  0  0  0  0
  1 12  2  0  0  0  0
  2 13  2  0  0  0  0
  3 10  1  0  0  0  0
  3 11  1  0  0  0  0
  3 13  1  0  0  0  0
  4 12  1  0  0  0  0
  4 14  1  0  0  0  0
  4 41  1  0  0  0  0
  5 15  1  0  0  0  0
  5 16  1  0  0  0  0
  5 18  1  0  0  0  0
  6 15  2  0  0  0  0
  6 19  1  0  0  0  0
  7  8  1  0  0  0  0
  7  9  1  0  0  0  0
  7 12  1  0  0  0  0
  7 32  1  0  0  0  0
  8 10  1  0  0  0  0
  8 33  1  0  0  0  0
  8 36  1  0  0  0  0
  9 11  1  0  0  0  0
  9 34  1  0  0  0  0
  9 35  1  0  0  0  0
 10 39  1  0  0  0  0
 10 40  1  0  0  0  0
 11 37  1  0  0  0  0
 11 38  1  0  0  0  0
 13 17  1  0  0  0  0
 14 15  1  0  0  0  0
 14 42  1  0  0  0  0
 14 43  1  0  0  0  0
 16 19  1  0  0  0  0
 16 20  2  0  0  0  0
 17 22  2  0  0  0  0
 17 44  1  0  0  0  0
 18 23  1  0  0  0  0
 18 45  1  0  0  0  0
 18 46  1  0  0  0  0
 19 21  2  0  0  0  0
 20 24  1  0  0  0  0
 20 47  1  0  0  0  0
 21 25  1  0  0  0  0
 21 48  1  0  0  0  0
 22 26  1  0  0  0  0
 22 52  1  0  0  0  0
 23 49  1  0  0  0  0
 23 50  1  0  0  0  0
 23 51  1  0  0  0  0
 24 25  2  0  0  0  0
 24 53  1  0  0  0  0
 25 54  1  0  0  0  0
 26 27  2  0  0  0  0
 26 28  1  0  0  0  0
 27 29  1  0  0  0  0
 27 55  1  0  0  0  0
 28 30  2  0  0  0  0
 28 56  1  0  0  0  0
 29 31  2  0  0  0  0
 29 57  1  0  0  0  0
 30 31  1  0  0  0  0
 30 58  1  0  0  0  0
 31 59  1  0  0  0  0
M  END
> <PUBCHEM_COMPOUND_CID>
17395623

> <PUBCHEM_COMPOUND_CANONICALIZED>
1

> <PUBCHEM_CACTVS_COMPLEXITY>
637

> <PUBCHEM_CACTVS_HBOND_ACCEPTOR>
3

> <PUBCHEM_CACTVS_HBOND_DONOR>
1

> <PUBCHEM_CACTVS_ROTATABLE_BOND>
6

> <PUBCHEM_CACTVS_SUBSKEYS>
AAADceB7sAAAAAAAAAAAAAAAAAAAAWAAAAA8YIAAAAAAAFgB9AAAHgAQAAAADQjBnwQz0LfMEACoAydydACCgC0hEqAJ2KE4dNiIaLLAmZGUIAholgLIyacUgAAOAAAAAAAAACAAAAAAAAAAQAAAAAAAAA==

> <PUBCHEM_IUPAC_OPENEYE_NAME>
N-[(1-ethylbenzimidazol-2-yl)methyl]-1-[(E)-3-phenylprop-2-enoyl]piperidine-4-carboxamide

> <PUBCHEM_IUPAC_CAS_NAME>
N-[(1-ethyl-2-benzimidazolyl)methyl]-1-[(E)-1-oxo-3-phenylprop-2-enyl]-4-piperidinecarboxamide

> <PUBCHEM_IUPAC_NAME>
N-[(1-ethylbenzimidazol-2-yl)methyl]-1-[(E)-3-phenylprop-2-enoyl]piperidine-4-carboxamide

> <PUBCHEM_IUPAC_SYSTEMATIC_NAME>
N-[(1-ethylbenzimidazol-2-yl)methyl]-1-[(E)-3-phenylprop-2-enoyl]piperidine-4-carboxamide

> <PUBCHEM_IUPAC_TRADITIONAL_NAME>
N-[(1-ethylbenzimidazol-2-yl)methyl]-1-[(E)-3-phenylacryloyl]isonipecotamide

> <PUBCHEM_IUPAC_INCHI>
InChI=1S/C25H28N4O2/c1-2-29-22-11-7-6-10-21(22)27-23(29)18-26-25(31)20-14-16-28(17-15-20)24(30)13-12-19-8-4-3-5-9-19/h3-13,20H,2,14-18H2,1H3,(H,26,31)/b13-12+

> <PUBCHEM_IUPAC_INCHIKEY>
JEKQNRZVDBNMIG-OUKQBFOZSA-N

> <PUBCHEM_XLOGP3_AA>
2.9

> <PUBCHEM_EXACT_MASS>
416.221226

> <PUBCHEM_MOLECULAR_FORMULA>
C25H28N4O2

> <PUBCHEM_MOLECULAR_WEIGHT>
416.51542

> <PUBCHEM_OPENEYE_CAN_SMILES>
CCN1C2=CC=CC=C2N=C1CNC(=O)C3CCN(CC3)C(=O)C=CC4=CC=CC=C4

> <PUBCHEM_OPENEYE_ISO_SMILES>
CCN1C2=CC=CC=C2N=C1CNC(=O)C3CCN(CC3)C(=O)/C=C/C4=CC=CC=C4

> <PUBCHEM_CACTVS_TPSA>
67.2

> <PUBCHEM_MONOISOTOPIC_WEIGHT>
416.221226

> <PUBCHEM_TOTAL_CHARGE>
0

> <PUBCHEM_HEAVY_ATOM_COUNT>
31

> <PUBCHEM_ATOM_DEF_STEREO_COUNT>
0

> <PUBCHEM_ATOM_UDEF_STEREO_COUNT>
0

> <PUBCHEM_BOND_DEF_STEREO_COUNT>
1

> <PUBCHEM_BOND_UDEF_STEREO_COUNT>
0

> <PUBCHEM_ISOTOPIC_ATOM_COUNT>
0

> <PUBCHEM_COMPONENT_COUNT>
1

> <PUBCHEM_CACTVS_TAUTO_COUNT>
2

> <PUBCHEM_COORDINATE_TYPE>
1
5
255

> <PUBCHEM_BONDANNOTATIONS>
16  19  8
16  20  8
19  21  8
20  24  8
21  25  8
24  25  8
26  27  8
26  28  8
27  29  8
28  30  8
29  31  8
30  31  8
5  15  8
5  16  8
6  15  8
6  19  8

$$$$

