60018
  -OEChem-07051213132D

 30 33  0     0  0  0  0  0  0999 V2000
    2.0000    3.1240    0.0000 O   0  5  0  0  0  0  0  0  0  0  0  0
    2.0200    1.3920    0.0000 O   0  0  0  0  0  0  0  0  0  0  0  0
    6.2942   -3.0961    0.0000 O   0  5  0  0  0  0  0  0  0  0  0  0
    4.5642   -3.1814    0.0000 O   0  0  0  0  0  0  0  0  0  0  0  0
    2.5100    2.2638    0.0000 N   0  3  0  0  0  0  0  0  0  0  0  0
    5.4046   -2.6394    0.0000 N   0  3  0  0  0  0  0  0  0  0  0  0
    4.5446   -0.1574    0.0000 C   0  0  0  0  0  0  0  0  0  0  0  0
    3.7356    0.4303    0.0000 C   0  0  0  0  0  0  0  0  0  0  0  0
    5.3536    0.4303    0.0000 C   0  0  0  0  0  0  0  0  0  0  0  0
    4.0446    1.3814    0.0000 C   0  0  0  0  0  0  0  0  0  0  0  0
    5.0446    1.3814    0.0000 C   0  0  0  0  0  0  0  0  0  0  0  0
    4.4517   -1.1949    0.0000 C   0  0  0  0  0  0  0  0  0  0  0  0
    6.2099   -0.1006    0.0000 C   0  0  0  0  0  0  0  0  0  0  0  0
    3.5099    2.2754    0.0000 C   0  0  0  0  0  0  0  0  0  0  0  0
    2.7776    0.0214    0.0000 C   0  0  0  0  0  0  0  0  0  0  0  0
    5.3553   -1.6406    0.0000 C   0  0  0  0  0  0  0  0  0  0  0  0
    5.5792    2.2754    0.0000 C   0  0  0  0  0  0  0  0  0  0  0  0
    3.5034   -1.6259    0.0000 C   0  0  0  0  0  0  0  0  0  0  0  0
    6.2107   -1.1082    0.0000 C   0  0  0  0  0  0  0  0  0  0  0  0
    2.6607   -1.0137    0.0000 C   0  0  0  0  0  0  0  0  0  0  0  0
    4.0238    3.1814    0.0000 C   0  0  0  0  0  0  0  0  0  0  0  0
    5.0654    3.1814    0.0000 C   0  0  0  0  0  0  0  0  0  0  0  0
    6.7515    0.2011    0.0000 H   0  0  0  0  0  0  0  0  0  0  0  0
    2.2802    0.3916    0.0000 H   0  0  0  0  0  0  0  0  0  0  0  0
    6.1992    2.2682    0.0000 H   0  0  0  0  0  0  0  0  0  0  0  0
    3.4410   -2.2428    0.0000 H   0  0  0  0  0  0  0  0  0  0  0  0
    6.7528   -1.4090    0.0000 H   0  0  0  0  0  0  0  0  0  0  0  0
    2.0933   -1.2636    0.0000 H   0  0  0  0  0  0  0  0  0  0  0  0
    3.7117    3.7172    0.0000 H   0  0  0  0  0  0  0  0  0  0  0  0
    5.3775    3.7172    0.0000 H   0  0  0  0  0  0  0  0  0  0  0  0
  1  5  1  0  0  0  0
  2  5  2  0  0  0  0
  3  6  1  0  0  0  0
  4  6  2  0  0  0  0
  5 14  1  0  0  0  0
  6 16  1  0  0  0  0
  7  8  1  0  0  0  0
  7  9  2  0  0  0  0
  7 12  1  0  0  0  0
  8 10  1  0  0  0  0
  8 15  2  0  0  0  0
  9 11  1  0  0  0  0
  9 13  1  0  0  0  0
 10 11  2  0  0  0  0
 10 14  1  0  0  0  0
 11 17  1  0  0  0  0
 12 16  2  0  0  0  0
 12 18  1  0  0  0  0
 13 19  2  0  0  0  0
 13 23  1  0  0  0  0
 14 21  2  0  0  0  0
 15 20  1  0  0  0  0
 15 24  1  0  0  0  0
 16 19  1  0  0  0  0
 17 22  2  0  0  0  0
 17 25  1  0  0  0  0
 18 20  2  0  0  0  0
 18 26  1  0  0  0  0
 19 27  1  0  0  0  0
 20 28  1  0  0  0  0
 21 22  1  0  0  0  0
 21 29  1  0  0  0  0
 22 30  1  0  0  0  0
M  CHG  4   1  -1   3  -1   5   1   6   1
M  END
> <PUBCHEM_COMPOUND_CID>
60018

> <PUBCHEM_COMPOUND_CANONICALIZED>
1

> <PUBCHEM_CACTVS_COMPLEXITY>
486

> <PUBCHEM_CACTVS_HBOND_ACCEPTOR>
4

> <PUBCHEM_CACTVS_HBOND_DONOR>
0

> <PUBCHEM_CACTVS_ROTATABLE_BOND>
0

> <PUBCHEM_CACTVS_SUBSKEYS>
AAADccB7OAAAAAAAAAAAAAAAAAAAAYAAAAAwYMAAAAAAAGDBVAAAHAAEAAAADAiBGAAwwMAQQACBAiRCQwCCAAAgAgAoiAAAZIoIICKAkZGAIABggAAIyAcQgMAOiAACQAASAAAQAASAACQAAQAACAAAAA==

> <PUBCHEM_IUPAC_OPENEYE_NAME>
3,7-dinitrofluoranthene

> <PUBCHEM_IUPAC_CAS_NAME>
3,7-dinitrofluoranthene

> <PUBCHEM_IUPAC_NAME>
3,7-dinitrofluoranthene

> <PUBCHEM_IUPAC_SYSTEMATIC_NAME>
3,7-dinitrofluoranthene

> <PUBCHEM_IUPAC_TRADITIONAL_NAME>
3,7-dinitrofluoranthene

> <PUBCHEM_IUPAC_INCHI>
InChI=1S/C16H8N2O4/c19-17(20)13-8-7-10-9-3-2-6-14(18(21)22)16(9)12-5-1-4-11(13)15(10)12/h1-8H

> <PUBCHEM_IUPAC_INCHIKEY>
WAAHHGKGQYVTNS-UHFFFAOYSA-N

> <PUBCHEM_XLOGP3_AA>
4.2

> <PUBCHEM_EXACT_MASS>
292.048407

> <PUBCHEM_MOLECULAR_FORMULA>
C16H8N2O4

> <PUBCHEM_MOLECULAR_WEIGHT>
292.24572

> <PUBCHEM_OPENEYE_CAN_SMILES>
C1=CC2=C(C=CC3=C2C(=C1)C4=C3C=CC=C4[N+](=O)[O-])[N+](=O)[O-]

> <PUBCHEM_OPENEYE_ISO_SMILES>
C1=CC2=C(C=CC3=C2C(=C1)C4=C3C=CC=C4[N+](=O)[O-])[N+](=O)[O-]

> <PUBCHEM_CACTVS_TPSA>
91.6

> <PUBCHEM_MONOISOTOPIC_WEIGHT>
292.048407

> <PUBCHEM_TOTAL_CHARGE>
0

> <PUBCHEM_HEAVY_ATOM_COUNT>
22

> <PUBCHEM_ATOM_DEF_STEREO_COUNT>
0

> <PUBCHEM_ATOM_UDEF_STEREO_COUNT>
0

> <PUBCHEM_BOND_DEF_STEREO_COUNT>
0

> <PUBCHEM_BOND_UDEF_STEREO_COUNT>
0

> <PUBCHEM_ISOTOPIC_ATOM_COUNT>
0

> <PUBCHEM_COMPONENT_COUNT>
1

> <PUBCHEM_CACTVS_TAUTO_COUNT>
1

> <PUBCHEM_COORDINATE_TYPE>
1
5
255

> <PUBCHEM_BONDANNOTATIONS>
10  11  8
10  14  8
11  17  8
12  16  8
12  18  8
13  19  8
14  21  8
15  20  8
16  19  8
17  22  8
18  20  8
21  22  8
7  12  8
7  8  8
7  9  8
8  15  8
9  13  8

$$$$

