441209
  -OEChem-07051212522D

 23 25  0     1  0  0  0  0  0999 V2000
    5.7021    0.6452    0.0000 O   0  0  0  0  0  0  0  0  0  0  0  0
    5.3388   -0.4729    0.0000 O   0  0  0  0  0  0  0  0  0  0  0  0
    6.5111    2.2330    0.0000 O   0  0  0  0  0  0  0  0  0  0  0  0
    5.0601   -2.2330    0.0000 O   0  0  0  0  0  0  0  0  0  0  0  0
    4.7511    0.3361    0.0000 C   0  0  3  0  0  0  0  0  0  0  0  0
    4.1633    1.1452    0.0000 C   0  0  0  0  0  0  0  0  0  0  0  0
    3.8000    0.0271    0.0000 C   0  0  0  0  0  0  0  0  0  0  0  0
    4.7511    1.9542    0.0000 C   0  0  0  0  0  0  0  0  0  0  0  0
    3.8000   -0.9729    0.0000 C   0  0  0  0  0  0  0  0  0  0  0  0
    5.7021    1.6452    0.0000 C   0  0  0  0  0  0  0  0  0  0  0  0
    4.7511   -1.2819    0.0000 C   0  0  0  0  0  0  0  0  0  0  0  0
    2.9061    0.5618    0.0000 C   0  0  0  0  0  0  0  0  0  0  0  0
    2.9061   -1.5075    0.0000 C   0  0  0  0  0  0  0  0  0  0  0  0
    2.0000    0.0479    0.0000 C   0  0  0  0  0  0  0  0  0  0  0  0
    2.0000   -0.9937    0.0000 C   0  0  0  0  0  0  0  0  0  0  0  0
    3.7025    1.5600    0.0000 H   0  0  0  0  0  0  0  0  0  0  0  0
    3.7025    0.7303    0.0000 H   0  0  0  0  0  0  0  0  0  0  0  0
    5.0032    2.5206    0.0000 H   0  0  0  0  0  0  0  0  0  0  0  0
    4.2141    2.2642    0.0000 H   0  0  0  0  0  0  0  0  0  0  0  0
    2.9132    1.1818    0.0000 H   0  0  0  0  0  0  0  0  0  0  0  0
    2.9132   -2.1275    0.0000 H   0  0  0  0  0  0  0  0  0  0  0  0
    1.4643    0.3600    0.0000 H   0  0  0  0  0  0  0  0  0  0  0  0
    1.4643   -1.3058    0.0000 H   0  0  0  0  0  0  0  0  0  0  0  0
  1  5  1  0  0  0  0
  1 10  1  0  0  0  0
  2  5  1  0  0  0  0
  2 11  1  0  0  0  0
  3 10  2  0  0  0  0
  4 11  2  0  0  0  0
  5  6  1  0  0  0  0
  5  7  1  0  0  0  0
  6  8  1  0  0  0  0
  6 16  1  0  0  0  0
  6 17  1  0  0  0  0
  7  9  1  0  0  0  0
  7 12  2  0  0  0  0
  8 10  1  0  0  0  0
  8 18  1  0  0  0  0
  8 19  1  0  0  0  0
  9 11  1  0  0  0  0
  9 13  2  0  0  0  0
 12 14  1  0  0  0  0
 12 20  1  0  0  0  0
 13 15  1  0  0  0  0
 13 21  1  0  0  0  0
 14 15  2  0  0  0  0
 14 22  1  0  0  0  0
 15 23  1  0  0  0  0
M  END
> <PUBCHEM_COMPOUND_CID>
441209

> <PUBCHEM_COMPOUND_CANONICALIZED>
1

> <PUBCHEM_CACTVS_COMPLEXITY>
325

> <PUBCHEM_CACTVS_HBOND_ACCEPTOR>
4

> <PUBCHEM_CACTVS_HBOND_DONOR>
0

> <PUBCHEM_CACTVS_ROTATABLE_BOND>
0

> <PUBCHEM_CACTVS_SUBSKEYS>
AAADccBwOAAAAAAAAAAAAAAAAAAAASJAAAAwAAAAAAAAAEgBAAAAGgAAAAAADASAmAAwCIAABACIAiDSCAACAAAkAAAIiAEACMgYJjKANRiiMQAkwAEMqYfKyPCOgAAAAAAQAAAAAAAAACAAAAAAAAAAAA==

> <PUBCHEM_IUPAC_OPENEYE_NAME>
spiro[isobenzofuran-3,5'-tetrahydrofuran]-1,2'-dione

> <PUBCHEM_IUPAC_CAS_NAME>
spiro[isobenzofuran-3,5'-oxolane]-1,2'-dione

> <PUBCHEM_IUPAC_NAME>
spiro[2-benzofuran-3,5'-oxolane]-1,2'-dione

> <PUBCHEM_IUPAC_SYSTEMATIC_NAME>
spiro[2-benzofuran-3,5'-oxolane]-1,2'-dione

> <PUBCHEM_IUPAC_TRADITIONAL_NAME>
spiro[phthalan-3,5'-tetrahydrofuran]-1,2'-quinone

> <PUBCHEM_IUPAC_INCHI>
InChI=1S/C11H8O4/c12-9-5-6-11(14-9)8-4-2-1-3-7(8)10(13)15-11/h1-4H,5-6H2

> <PUBCHEM_IUPAC_INCHIKEY>
ZKEVGLUAKGKGMO-UHFFFAOYSA-N

> <PUBCHEM_XLOGP3>
1

> <PUBCHEM_EXACT_MASS>
204.042259

> <PUBCHEM_MOLECULAR_FORMULA>
C11H8O4

> <PUBCHEM_MOLECULAR_WEIGHT>
204.17882

> <PUBCHEM_OPENEYE_CAN_SMILES>
C1CC2(C3=CC=CC=C3C(=O)O2)OC1=O

> <PUBCHEM_OPENEYE_ISO_SMILES>
C1CC2(C3=CC=CC=C3C(=O)O2)OC1=O

> <PUBCHEM_CACTVS_TPSA>
52.6

> <PUBCHEM_MONOISOTOPIC_WEIGHT>
204.042259

> <PUBCHEM_TOTAL_CHARGE>
0

> <PUBCHEM_HEAVY_ATOM_COUNT>
15

> <PUBCHEM_ATOM_DEF_STEREO_COUNT>
0

> <PUBCHEM_ATOM_UDEF_STEREO_COUNT>
1

> <PUBCHEM_BOND_DEF_STEREO_COUNT>
0

> <PUBCHEM_BOND_UDEF_STEREO_COUNT>
0

> <PUBCHEM_ISOTOPIC_ATOM_COUNT>
0

> <PUBCHEM_COMPONENT_COUNT>
1

> <PUBCHEM_CACTVS_TAUTO_COUNT>
2

> <PUBCHEM_COORDINATE_TYPE>
1
5
255

> <PUBCHEM_BONDANNOTATIONS>
12  14  8
13  15  8
14  15  8
5  6  3
7  12  8
7  9  8
9  13  8

$$$$

