5281479
  -OEChem-07051212572D

 54 57  0     1  0  0  0  0  0999 V2000
    5.5298   -1.6270    0.0000 O   0  0  0  0  0  0  0  0  0  0  0  0
    7.9942    3.3735    0.0000 O   0  0  0  0  0  0  0  0  0  0  0  0
    5.3958   -0.1270    0.0000 O   0  0  0  0  0  0  0  0  0  0  0  0
    3.5836    2.6778    0.0000 O   0  0  0  0  0  0  0  0  0  0  0  0
    6.9047    2.1391    0.0000 O   0  0  0  0  0  0  0  0  0  0  0  0
    3.5298   -0.6270    0.0000 O   0  0  0  0  0  0  0  0  0  0  0  0
    2.0000    1.8730    0.0000 O   0  0  0  0  0  0  0  0  0  0  0  0
    7.9939   -0.6270    0.0000 O   0  0  0  0  0  0  0  0  0  0  0  0
    6.2619   -0.6270    0.0000 O   0  0  0  0  0  0  0  0  0  0  0  0
    4.5298   -1.6270    0.0000 C   0  0  2  0  0  0  0  0  0  0  0  0
    4.5298    1.3730    0.0000 C   0  0  2  0  0  0  0  0  0  0  0  0
    5.3958    0.8730    0.0000 C   0  0  1  0  0  0  0  0  0  0  0  0
    7.1279    2.8730    0.0000 C   0  0  2  0  0  0  0  0  0  0  0  0
    5.0298   -2.4930    0.0000 C   0  0  1  0  0  0  0  0  0  0  0  0
    7.9939    2.3730    0.0000 C   0  0  1  0  0  0  0  0  0  0  0  0
    4.5298    2.3730    0.0000 C   0  0  1  0  0  0  0  0  0  0  0  0
    6.2619    1.3730    0.0000 C   0  0  2  0  0  0  0  0  0  0  0  0
    6.2619    2.3730    0.0000 C   0  0  0  0  0  0  0  0  0  0  0  0
    4.5298   -0.6270    0.0000 C   0  0  0  0  0  0  0  0  0  0  0  0
    5.3958    2.8730    0.0000 C   0  0  0  0  0  0  0  0  0  0  0  0
    3.5836    1.0683    0.0000 C   0  0  0  0  0  0  0  0  0  0  0  0
    7.9939    1.3730    0.0000 C   0  0  0  0  0  0  0  0  0  0  0  0
    7.1279    0.8730    0.0000 C   0  0  0  0  0  0  0  0  0  0  0  0
    3.6638   -2.1270    0.0000 C   0  0  0  0  0  0  0  0  0  0  0  0
    5.0298   -3.4930    0.0000 C   0  0  0  0  0  0  0  0  0  0  0  0
    3.0000    1.8730    0.0000 C   0  0  0  0  0  0  0  0  0  0  0  0
    5.8764    1.9132    0.0000 C   0  0  0  0  0  0  0  0  0  0  0  0
    7.1279   -0.1270    0.0000 C   0  0  0  0  0  0  0  0  0  0  0  0
    2.8394    0.4004    0.0000 C   0  0  0  0  0  0  0  0  0  0  0  0
    7.9939   -1.6270    0.0000 C   0  0  0  0  0  0  0  0  0  0  0  0
    4.4399    0.5278    0.0000 H   0  0  0  0  0  0  0  0  0  0  0  0
    5.9328    0.5630    0.0000 H   0  0  0  0  0  0  0  0  0  0  0  0
    6.8178    3.4099    0.0000 H   0  0  0  0  0  0  0  0  0  0  0  0
    5.6287   -2.6535    0.0000 H   0  0  0  0  0  0  0  0  0  0  0  0
    8.6139    2.3729    0.0000 H   0  0  0  0  0  0  0  0  0  0  0  0
    4.4399    3.2182    0.0000 H   0  0  0  0  0  0  0  0  0  0  0  0
    5.8633    1.8480    0.0000 H   0  0  0  0  0  0  0  0  0  0  0  0
    5.3958    3.4930    0.0000 H   0  0  0  0  0  0  0  0  0  0  0  0
    8.5309    1.0630    0.0000 H   0  0  0  0  0  0  0  0  0  0  0  0
    3.3538   -1.5900    0.0000 H   0  0  0  0  0  0  0  0  0  0  0  0
    3.1269   -2.4370    0.0000 H   0  0  0  0  0  0  0  0  0  0  0  0
    3.9738   -2.6639    0.0000 H   0  0  0  0  0  0  0  0  0  0  0  0
    4.4098   -3.4930    0.0000 H   0  0  0  0  0  0  0  0  0  0  0  0
    5.0298   -4.1130    0.0000 H   0  0  0  0  0  0  0  0  0  0  0  0
    5.6498   -3.4930    0.0000 H   0  0  0  0  0  0  0  0  0  0  0  0
    5.4013    2.3115    0.0000 H   0  0  0  0  0  0  0  0  0  0  0  0
    5.4781    1.4381    0.0000 H   0  0  0  0  0  0  0  0  0  0  0  0
    6.3515    1.5149    0.0000 H   0  0  0  0  0  0  0  0  0  0  0  0
    7.4416    1.8291    0.0000 H   0  0  0  0  0  0  0  0  0  0  0  0
    2.2500    0.5930    0.0000 H   0  0  0  0  0  0  0  0  0  0  0  0
    2.9672   -0.2063    0.0000 H   0  0  0  0  0  0  0  0  0  0  0  0
    7.3739   -1.6270    0.0000 H   0  0  0  0  0  0  0  0  0  0  0  0
    7.9939   -2.2470    0.0000 H   0  0  0  0  0  0  0  0  0  0  0  0
    8.6139   -1.6270    0.0000 H   0  0  0  0  0  0  0  0  0  0  0  0
  1 10  1  0  0  0  0
  1 14  1  0  0  0  0
 13  2  1  6  0  0  0
 15  2  1  6  0  0  0
 12  3  1  1  0  0  0
  3 19  1  0  0  0  0
  4 16  1  0  0  0  0
  4 26  1  0  0  0  0
 17  5  1  1  0  0  0
  5 49  1  0  0  0  0
  6 19  2  0  0  0  0
  7 26  2  0  0  0  0
  8 28  1  0  0  0  0
  8 30  1  0  0  0  0
  9 28  2  0  0  0  0
 10 14  1  0  0  0  0
 10 19  1  0  0  0  0
 10 24  1  1  0  0  0
 11 12  1  0  0  0  0
 11 16  1  0  0  0  0
 11 21  1  0  0  0  0
 11 31  1  6  0  0  0
 12 17  1  0  0  0  0
 12 32  1  0  0  0  0
 13 15  1  0  0  0  0
 13 18  1  0  0  0  0
 13 33  1  0  0  0  0
 14 25  1  6  0  0  0
 14 34  1  0  0  0  0
 15 22  1  0  0  0  0
 15 35  1  0  0  0  0
 16 20  1  0  0  0  0
 16 36  1  1  0  0  0
 17 23  1  0  0  0  0
 17 37  1  0  0  0  0
 18 20  2  0  0  0  0
 18 27  1  0  0  0  0
 20 38  1  0  0  0  0
 21 26  1  0  0  0  0
 21 29  2  0  0  0  0
 22 23  2  0  0  0  0
 22 39  1  0  0  0  0
 23 28  1  0  0  0  0
 24 40  1  0  0  0  0
 24 41  1  0  0  0  0
 24 42  1  0  0  0  0
 25 43  1  0  0  0  0
 25 44  1  0  0  0  0
 25 45  1  0  0  0  0
 27 46  1  0  0  0  0
 27 47  1  0  0  0  0
 27 48  1  0  0  0  0
 29 50  1  0  0  0  0
 29 51  1  0  0  0  0
 30 52  1  0  0  0  0
 30 53  1  0  0  0  0
 30 54  1  0  0  0  0
M  END
> <PUBCHEM_COMPOUND_CID>
5281479

> <PUBCHEM_COMPOUND_CANONICALIZED>
1

> <PUBCHEM_CACTVS_COMPLEXITY>
887

> <PUBCHEM_CACTVS_HBOND_ACCEPTOR>
9

> <PUBCHEM_CACTVS_HBOND_DONOR>
1

> <PUBCHEM_CACTVS_ROTATABLE_BOND>
5

> <PUBCHEM_CACTVS_SUBSKEYS>
AAADceB4PAAAAAAAAAAAAAAAEiQAASAAAAAAAAAAAAAAAACAAAAAGgAACAAADVSggAICCAAABgCIAiDSCAIAAAAgAAAACAFAAEgBFBYAIQQCUAAF4AALMYPK7DzOAAAAAAAAAAAAAAAAAAAAAAAAAAAAAA==

> <PUBCHEM_IUPAC_INCHI>
InChI=1S/C21H24O9/c1-8-6-12-14(9(2)18(23)28-12)17(29-20(25)21(4)10(3)30-21)15(22)11(19(24)26-5)7-13-16(8)27-13/h6-7,10,12-17,22H,2H2,1,3-5H3/b8-6+,11-7+/t10-,12-,13-,14+,15+,16+,17+,21-/m1/s1

> <PUBCHEM_IUPAC_INCHIKEY>
ZFFQDPLDTMMAKO-PORRQQDQSA-N

> <PUBCHEM_XLOGP3_AA>
0.6

> <PUBCHEM_EXACT_MASS>
420.142032

> <PUBCHEM_MOLECULAR_FORMULA>
C21H24O9

> <PUBCHEM_MOLECULAR_WEIGHT>
420.40986

> <PUBCHEM_OPENEYE_CAN_SMILES>
CC1C(O1)(C)C(=O)OC2C3C(C=C(C4C(O4)C=C(C2O)C(=O)OC)C)OC(=O)C3=C

> <PUBCHEM_OPENEYE_ISO_SMILES>
C[C@@H]1[C@](O1)(C)C(=O)O[C@H]2[C@@H]3[C@@H](/C=C(/[C@H]4[C@H](O4)/C=C(\[C@@H]2O)/C(=O)OC)\C)OC(=O)C3=C

> <PUBCHEM_CACTVS_TPSA>
124

> <PUBCHEM_MONOISOTOPIC_WEIGHT>
420.142032

> <PUBCHEM_TOTAL_CHARGE>
0

> <PUBCHEM_HEAVY_ATOM_COUNT>
30

> <PUBCHEM_ATOM_DEF_STEREO_COUNT>
8

> <PUBCHEM_ATOM_UDEF_STEREO_COUNT>
0

> <PUBCHEM_BOND_DEF_STEREO_COUNT>
2

> <PUBCHEM_BOND_UDEF_STEREO_COUNT>
0

> <PUBCHEM_ISOTOPIC_ATOM_COUNT>
0

> <PUBCHEM_COMPONENT_COUNT>
1

> <PUBCHEM_CACTVS_TAUTO_COUNT>
1

> <PUBCHEM_COORDINATE_TYPE>
1
5
255

> <PUBCHEM_BONDANNOTATIONS>
10  24  5
11  31  6
14  25  6
16  36  5
13  2  6
15  2  6
12  3  5
17  5  5

$$$$

