443068
  -OEChem-07051213012D

 49 49  0     1  0  0  0  0  0999 V2000
    2.8090    2.7982    0.0000 S   0  0  0  0  0  0  0  0  0  0  0  0
    3.6180    3.3860    0.0000 C   0  0  3  0  0  0  0  0  0  0  0  0
    4.5691    3.0770    0.0000 C   0  0  0  0  0  0  0  0  0  0  0  0
    3.3090    4.3370    0.0000 C   0  0  0  0  0  0  0  0  0  0  0  0
    4.7770    2.0988    0.0000 C   0  0  0  0  0  0  0  0  0  0  0  0
    2.3090    4.3370    0.0000 C   0  0  0  0  0  0  0  0  0  0  0  0
    5.7281    1.7898    0.0000 C   0  0  0  0  0  0  0  0  0  0  0  0
    5.9360    0.8116    0.0000 C   0  0  0  0  0  0  0  0  0  0  0  0
    2.0000    3.3860    0.0000 C   0  0  0  0  0  0  0  0  0  0  0  0
    6.8870    0.5026    0.0000 C   0  0  0  0  0  0  0  0  0  0  0  0
    7.0949   -0.4755    0.0000 C   0  0  0  0  0  0  0  0  0  0  0  0
    8.0460   -0.7845    0.0000 C   0  0  0  0  0  0  0  0  0  0  0  0
    8.2539   -1.7627    0.0000 C   0  0  0  0  0  0  0  0  0  0  0  0
    9.2050   -2.0717    0.0000 C   0  0  0  0  0  0  0  0  0  0  0  0
    9.4129   -3.0499    0.0000 C   0  0  0  0  0  0  0  0  0  0  0  0
   10.3639   -3.3589    0.0000 C   0  0  0  0  0  0  0  0  0  0  0  0
   10.5718   -4.3370    0.0000 C   0  0  0  0  0  0  0  0  0  0  0  0
    3.7510    2.5464    0.0000 H   0  0  0  0  0  0  0  0  0  0  0  0
    5.1887    3.0986    0.0000 H   0  0  0  0  0  0  0  0  0  0  0  0
    4.6554    3.6909    0.0000 H   0  0  0  0  0  0  0  0  0  0  0  0
    3.9155    4.4659    0.0000 H   0  0  0  0  0  0  0  0  0  0  0  0
    3.2442    4.9536    0.0000 H   0  0  0  0  0  0  0  0  0  0  0  0
    4.1574    2.0772    0.0000 H   0  0  0  0  0  0  0  0  0  0  0  0
    4.6907    1.4848    0.0000 H   0  0  0  0  0  0  0  0  0  0  0  0
    2.3738    4.9536    0.0000 H   0  0  0  0  0  0  0  0  0  0  0  0
    1.7026    4.4659    0.0000 H   0  0  0  0  0  0  0  0  0  0  0  0
    6.3477    1.8114    0.0000 H   0  0  0  0  0  0  0  0  0  0  0  0
    5.8144    2.4038    0.0000 H   0  0  0  0  0  0  0  0  0  0  0  0
    5.3164    0.7900    0.0000 H   0  0  0  0  0  0  0  0  0  0  0  0
    5.8497    0.1977    0.0000 H   0  0  0  0  0  0  0  0  0  0  0  0
    1.4336    3.6381    0.0000 H   0  0  0  0  0  0  0  0  0  0  0  0
    1.6900    2.8490    0.0000 H   0  0  0  0  0  0  0  0  0  0  0  0
    7.5066    0.5243    0.0000 H   0  0  0  0  0  0  0  0  0  0  0  0
    6.9733    1.1166    0.0000 H   0  0  0  0  0  0  0  0  0  0  0  0
    6.4753   -0.4972    0.0000 H   0  0  0  0  0  0  0  0  0  0  0  0
    7.0086   -1.0895    0.0000 H   0  0  0  0  0  0  0  0  0  0  0  0
    8.6656   -0.7629    0.0000 H   0  0  0  0  0  0  0  0  0  0  0  0
    8.1323   -0.1706    0.0000 H   0  0  0  0  0  0  0  0  0  0  0  0
    7.6343   -1.7843    0.0000 H   0  0  0  0  0  0  0  0  0  0  0  0
    8.1676   -2.3767    0.0000 H   0  0  0  0  0  0  0  0  0  0  0  0
    9.8246   -2.0501    0.0000 H   0  0  0  0  0  0  0  0  0  0  0  0
    9.2912   -1.4577    0.0000 H   0  0  0  0  0  0  0  0  0  0  0  0
    8.7932   -3.0715    0.0000 H   0  0  0  0  0  0  0  0  0  0  0  0
    9.3266   -3.6638    0.0000 H   0  0  0  0  0  0  0  0  0  0  0  0
   10.9836   -3.3372    0.0000 H   0  0  0  0  0  0  0  0  0  0  0  0
   10.4502   -2.7449    0.0000 H   0  0  0  0  0  0  0  0  0  0  0  0
    9.9654   -4.4659    0.0000 H   0  0  0  0  0  0  0  0  0  0  0  0
   10.7007   -4.9435    0.0000 H   0  0  0  0  0  0  0  0  0  0  0  0
   11.1783   -4.2081    0.0000 H   0  0  0  0  0  0  0  0  0  0  0  0
  1  2  1  0  0  0  0
  1  9  1  0  0  0  0
  2  3  1  0  0  0  0
  2  4  1  0  0  0  0
  2 18  1  0  0  0  0
  3  5  1  0  0  0  0
  3 19  1  0  0  0  0
  3 20  1  0  0  0  0
  4  6  1  0  0  0  0
  4 21  1  0  0  0  0
  4 22  1  0  0  0  0
  5  7  1  0  0  0  0
  5 23  1  0  0  0  0
  5 24  1  0  0  0  0
  6  9  1  0  0  0  0
  6 25  1  0  0  0  0
  6 26  1  0  0  0  0
  7  8  1  0  0  0  0
  7 27  1  0  0  0  0
  7 28  1  0  0  0  0
  8 10  1  0  0  0  0
  8 29  1  0  0  0  0
  8 30  1  0  0  0  0
  9 31  1  0  0  0  0
  9 32  1  0  0  0  0
 10 11  1  0  0  0  0
 10 33  1  0  0  0  0
 10 34  1  0  0  0  0
 11 12  1  0  0  0  0
 11 35  1  0  0  0  0
 11 36  1  0  0  0  0
 12 13  1  0  0  0  0
 12 37  1  0  0  0  0
 12 38  1  0  0  0  0
 13 14  1  0  0  0  0
 13 39  1  0  0  0  0
 13 40  1  0  0  0  0
 14 15  1  0  0  0  0
 14 41  1  0  0  0  0
 14 42  1  0  0  0  0
 15 16  1  0  0  0  0
 15 43  1  0  0  0  0
 15 44  1  0  0  0  0
 16 17  1  0  0  0  0
 16 45  1  0  0  0  0
 16 46  1  0  0  0  0
 17 47  1  0  0  0  0
 17 48  1  0  0  0  0
 17 49  1  0  0  0  0
M  END
> <PUBCHEM_COMPOUND_CID>
443068

> <PUBCHEM_COMPOUND_CANONICALIZED>
1

> <PUBCHEM_CACTVS_COMPLEXITY>
156

> <PUBCHEM_CACTVS_HBOND_ACCEPTOR>
1

> <PUBCHEM_CACTVS_HBOND_DONOR>
0

> <PUBCHEM_CACTVS_ROTATABLE_BOND>
11

> <PUBCHEM_CACTVS_SUBSKEYS>
AAADcfB4AABAAAAAAAAAAAAAAAAAASAAAAAAAAAAAAAAAAAAAAAAGAQAAAAACACEQACCAAAAAAgAAAAAAAAAAAAAABAAAAAAAAAAAAIgAAAAAAAAAAAgAAEAgIAAAAAAAAAAAAAAAAAAAAAAAAAAAAAAAA==

> <PUBCHEM_IUPAC_OPENEYE_NAME>
2-dodecyltetrahydrothiophene

> <PUBCHEM_IUPAC_CAS_NAME>
2-dodecylthiolane

> <PUBCHEM_IUPAC_NAME>
2-dodecylthiolane

> <PUBCHEM_IUPAC_SYSTEMATIC_NAME>
2-dodecylthiolane

> <PUBCHEM_IUPAC_TRADITIONAL_NAME>
2-lauryltetrahydrothiophene

> <PUBCHEM_IUPAC_INCHI>
InChI=1S/C16H32S/c1-2-3-4-5-6-7-8-9-10-11-13-16-14-12-15-17-16/h16H,2-15H2,1H3

> <PUBCHEM_IUPAC_INCHIKEY>
OGNMSZFPUKYWMR-UHFFFAOYSA-N

> <PUBCHEM_XLOGP3_AA>
7.6

> <PUBCHEM_EXACT_MASS>
256.222472

> <PUBCHEM_MOLECULAR_FORMULA>
C16H32S

> <PUBCHEM_MOLECULAR_WEIGHT>
256.49028

> <PUBCHEM_OPENEYE_CAN_SMILES>
CCCCCCCCCCCCC1CCCS1

> <PUBCHEM_OPENEYE_ISO_SMILES>
CCCCCCCCCCCCC1CCCS1

> <PUBCHEM_CACTVS_TPSA>
25.3

> <PUBCHEM_MONOISOTOPIC_WEIGHT>
256.222472

> <PUBCHEM_TOTAL_CHARGE>
0

> <PUBCHEM_HEAVY_ATOM_COUNT>
17

> <PUBCHEM_ATOM_DEF_STEREO_COUNT>
0

> <PUBCHEM_ATOM_UDEF_STEREO_COUNT>
1

> <PUBCHEM_BOND_DEF_STEREO_COUNT>
0

> <PUBCHEM_BOND_UDEF_STEREO_COUNT>
0

> <PUBCHEM_ISOTOPIC_ATOM_COUNT>
0

> <PUBCHEM_COMPONENT_COUNT>
1

> <PUBCHEM_CACTVS_TAUTO_COUNT>
1

> <PUBCHEM_COORDINATE_TYPE>
1
5
255

> <PUBCHEM_BONDANNOTATIONS>
2  18  3

$$$$

