585168
  -OEChem-06241222452D

 88 95  0     1  0  0  0  0  0999 V2000
    5.4641   -1.2500    0.0000 C   0  0  0  0  0  0  0  0  0  0  0  0
    4.5981    1.2500    0.0000 C   0  0  0  0  0  0  0  0  0  0  0  0
    5.4641   -0.2500    0.0000 C   0  0  3  0  0  0  0  0  0  0  0  0
    4.5981    0.2500    0.0000 C   0  0  3  0  0  0  0  0  0  0  0  0
    6.3003   -1.7328    0.0000 C   0  0  0  0  0  0  0  0  0  0  0  0
    4.6279   -1.7328    0.0000 C   0  0  0  0  0  0  0  0  0  0  0  0
    4.7730   -2.0881    0.0000 C   0  0  0  0  0  0  0  0  0  0  0  0
    5.4342    1.7328    0.0000 C   0  0  0  0  0  0  0  0  0  0  0  0
    3.7619    1.7328    0.0000 C   0  0  0  0  0  0  0  0  0  0  0  0
    3.9070    2.0881    0.0000 C   0  0  0  0  0  0  0  0  0  0  0  0
    6.3003   -2.6983    0.0000 C   0  0  0  0  0  0  0  0  0  0  0  0
    4.6279   -2.6983    0.0000 C   0  0  0  0  0  0  0  0  0  0  0  0
    4.7730   -3.1334    0.0000 C   0  0  0  0  0  0  0  0  0  0  0  0
    5.4342    2.6983    0.0000 C   0  0  0  0  0  0  0  0  0  0  0  0
    3.7618    2.6983    0.0000 C   0  0  0  0  0  0  0  0  0  0  0  0
    3.9070    3.1334    0.0000 C   0  0  0  0  0  0  0  0  0  0  0  0
    6.3301    0.2500    0.0000 C   0  0  0  0  0  0  0  0  0  0  0  0
    3.7320   -0.2500    0.0000 C   0  0  0  0  0  0  0  0  0  0  0  0
    5.4641   -3.0011    0.0000 C   0  0  0  0  0  0  0  0  0  0  0  0
    5.6787   -3.6102    0.0000 C   0  0  0  0  0  0  0  0  0  0  0  0
    3.7911   -3.1811    0.0000 C   0  0  0  0  0  0  0  0  0  0  0  0
    4.5981    3.0011    0.0000 C   0  0  0  0  0  0  0  0  0  0  0  0
    4.8126    3.6102    0.0000 C   0  0  0  0  0  0  0  0  0  0  0  0
    2.9251    3.1811    0.0000 C   0  0  0  0  0  0  0  0  0  0  0  0
    7.1962   -0.2500    0.0000 C   0  0  0  0  0  0  0  0  0  0  0  0
    6.3301    1.2500    0.0000 C   0  0  0  0  0  0  0  0  0  0  0  0
    2.8660    0.2500    0.0000 C   0  0  0  0  0  0  0  0  0  0  0  0
    3.7320   -1.2500    0.0000 C   0  0  0  0  0  0  0  0  0  0  0  0
    8.0622    0.2500    0.0000 C   0  0  0  0  0  0  0  0  0  0  0  0
    7.1962    1.7500    0.0000 C   0  0  0  0  0  0  0  0  0  0  0  0
    2.0000   -0.2500    0.0000 C   0  0  0  0  0  0  0  0  0  0  0  0
    2.8660   -1.7500    0.0000 C   0  0  0  0  0  0  0  0  0  0  0  0
    8.0622    1.2500    0.0000 C   0  0  0  0  0  0  0  0  0  0  0  0
    2.0000   -1.2500    0.0000 C   0  0  0  0  0  0  0  0  0  0  0  0
    5.4641    0.3700    0.0000 H   0  0  0  0  0  0  0  0  0  0  0  0
    5.1350    0.5600    0.0000 H   0  0  0  0  0  0  0  0  0  0  0  0
    6.9109   -1.8404    0.0000 H   0  0  0  0  0  0  0  0  0  0  0  0
    6.5123   -1.1502    0.0000 H   0  0  0  0  0  0  0  0  0  0  0  0
    4.4158   -1.1502    0.0000 H   0  0  0  0  0  0  0  0  0  0  0  0
    4.0173   -1.8404    0.0000 H   0  0  0  0  0  0  0  0  0  0  0  0
    4.4294   -1.5721    0.0000 H   0  0  0  0  0  0  0  0  0  0  0  0
    4.1796   -2.2676    0.0000 H   0  0  0  0  0  0  0  0  0  0  0  0
    5.6463    1.1502    0.0000 H   0  0  0  0  0  0  0  0  0  0  0  0
    6.0448    1.8404    0.0000 H   0  0  0  0  0  0  0  0  0  0  0  0
    3.1513    1.8404    0.0000 H   0  0  0  0  0  0  0  0  0  0  0  0
    3.5498    1.1502    0.0000 H   0  0  0  0  0  0  0  0  0  0  0  0
    3.3136    2.2676    0.0000 H   0  0  0  0  0  0  0  0  0  0  0  0
    3.5633    1.5721    0.0000 H   0  0  0  0  0  0  0  0  0  0  0  0
    6.8928   -2.8810    0.0000 H   0  0  0  0  0  0  0  0  0  0  0  0
    4.6823   -3.3159    0.0000 H   0  0  0  0  0  0  0  0  0  0  0  0
    4.6389   -3.7387    0.0000 H   0  0  0  0  0  0  0  0  0  0  0  0
    6.0267    2.8810    0.0000 H   0  0  0  0  0  0  0  0  0  0  0  0
    3.8163    3.3159    0.0000 H   0  0  0  0  0  0  0  0  0  0  0  0
    3.7729    3.7387    0.0000 H   0  0  0  0  0  0  0  0  0  0  0  0
    5.7932    0.5600    0.0000 H   0  0  0  0  0  0  0  0  0  0  0  0
    4.2690   -0.5600    0.0000 H   0  0  0  0  0  0  0  0  0  0  0  0
    5.0942   -3.4986    0.0000 H   0  0  0  0  0  0  0  0  0  0  0  0
    5.8341   -3.4986    0.0000 H   0  0  0  0  0  0  0  0  0  0  0  0
    5.3693   -4.1475    0.0000 H   0  0  0  0  0  0  0  0  0  0  0  0
    6.2038   -3.9398    0.0000 H   0  0  0  0  0  0  0  0  0  0  0  0
    3.3099   -2.7902    0.0000 H   0  0  0  0  0  0  0  0  0  0  0  0
    3.5979   -3.7702    0.0000 H   0  0  0  0  0  0  0  0  0  0  0  0
    4.9680    3.4986    0.0000 H   0  0  0  0  0  0  0  0  0  0  0  0
    4.2281    3.4986    0.0000 H   0  0  0  0  0  0  0  0  0  0  0  0
    5.3378    3.9398    0.0000 H   0  0  0  0  0  0  0  0  0  0  0  0
    4.5032    4.1475    0.0000 H   0  0  0  0  0  0  0  0  0  0  0  0
    2.7319    3.7702    0.0000 H   0  0  0  0  0  0  0  0  0  0  0  0
    2.4438    2.7902    0.0000 H   0  0  0  0  0  0  0  0  0  0  0  0
    3.9441   -1.8326    0.0000 H   0  0  0  0  0  0  0  0  0  0  0  0
    4.3426   -1.1423    0.0000 H   0  0  0  0  0  0  0  0  0  0  0  0
    3.2646    0.7249    0.0000 H   0  0  0  0  0  0  0  0  0  0  0  0
    2.4675    0.7249    0.0000 H   0  0  0  0  0  0  0  0  0  0  0  0
    6.1181    1.8326    0.0000 H   0  0  0  0  0  0  0  0  0  0  0  0
    5.7195    1.1423    0.0000 H   0  0  0  0  0  0  0  0  0  0  0  0
    6.7976   -0.7249    0.0000 H   0  0  0  0  0  0  0  0  0  0  0  0
    7.5947   -0.7249    0.0000 H   0  0  0  0  0  0  0  0  0  0  0  0
    8.2742   -0.3326    0.0000 H   0  0  0  0  0  0  0  0  0  0  0  0
    8.6728    0.3577    0.0000 H   0  0  0  0  0  0  0  0  0  0  0  0
    7.5947    2.2250    0.0000 H   0  0  0  0  0  0  0  0  0  0  0  0
    6.7976    2.2250    0.0000 H   0  0  0  0  0  0  0  0  0  0  0  0
    1.7880    0.3326    0.0000 H   0  0  0  0  0  0  0  0  0  0  0  0
    1.3894   -0.3577    0.0000 H   0  0  0  0  0  0  0  0  0  0  0  0
    2.4675   -2.2250    0.0000 H   0  0  0  0  0  0  0  0  0  0  0  0
    3.2646   -2.2250    0.0000 H   0  0  0  0  0  0  0  0  0  0  0  0
    1.3894   -1.1424    0.0000 H   0  0  0  0  0  0  0  0  0  0  0  0
    1.7880   -1.8326    0.0000 H   0  0  0  0  0  0  0  0  0  0  0  0
    8.6728    1.1424    0.0000 H   0  0  0  0  0  0  0  0  0  0  0  0
    8.2742    1.8326    0.0000 H   0  0  0  0  0  0  0  0  0  0  0  0
  1  3  1  0  0  0  0
  1  5  1  0  0  0  0
  1  6  1  0  0  0  0
  1  7  1  0  0  0  0
  2  4  1  0  0  0  0
  2  8  1  0  0  0  0
  2  9  1  0  0  0  0
  2 10  1  0  0  0  0
  3  4  1  0  0  0  0
  3 17  1  0  0  0  0
  3 35  1  0  0  0  0
  4 18  1  0  0  0  0
  4 36  1  0  0  0  0
  5 11  1  0  0  0  0
  5 37  1  0  0  0  0
  5 38  1  0  0  0  0
  6 12  1  0  0  0  0
  6 39  1  0  0  0  0
  6 40  1  0  0  0  0
  7 13  1  0  0  0  0
  7 41  1  0  0  0  0
  7 42  1  0  0  0  0
  8 14  1  0  0  0  0
  8 43  1  0  0  0  0
  8 44  1  0  0  0  0
  9 15  1  0  0  0  0
  9 45  1  0  0  0  0
  9 46  1  0  0  0  0
 10 16  1  0  0  0  0
 10 47  1  0  0  0  0
 10 48  1  0  0  0  0
 11 19  1  0  0  0  0
 11 20  1  0  0  0  0
 11 49  1  0  0  0  0
 12 19  1  0  0  0  0
 12 21  1  0  0  0  0
 12 50  1  0  0  0  0
 13 20  1  0  0  0  0
 13 21  1  0  0  0  0
 13 51  1  0  0  0  0
 14 22  1  0  0  0  0
 14 23  1  0  0  0  0
 14 52  1  0  0  0  0
 15 22  1  0  0  0  0
 15 24  1  0  0  0  0
 15 53  1  0  0  0  0
 16 23  1  0  0  0  0
 16 24  1  0  0  0  0
 16 54  1  0  0  0  0
 17 25  1  0  0  0  0
 17 26  1  0  0  0  0
 17 55  1  0  0  0  0
 18 27  1  0  0  0  0
 18 28  1  0  0  0  0
 18 56  1  0  0  0  0
 19 57  1  0  0  0  0
 19 58  1  0  0  0  0
 20 59  1  0  0  0  0
 20 60  1  0  0  0  0
 21 61  1  0  0  0  0
 21 62  1  0  0  0  0
 22 63  1  0  0  0  0
 22 64  1  0  0  0  0
 23 65  1  0  0  0  0
 23 66  1  0  0  0  0
 24 67  1  0  0  0  0
 24 68  1  0  0  0  0
 25 29  1  0  0  0  0
 25 75  1  0  0  0  0
 25 76  1  0  0  0  0
 26 30  1  0  0  0  0
 26 73  1  0  0  0  0
 26 74  1  0  0  0  0
 27 31  1  0  0  0  0
 27 71  1  0  0  0  0
 27 72  1  0  0  0  0
 28 32  1  0  0  0  0
 28 69  1  0  0  0  0
 28 70  1  0  0  0  0
 29 33  1  0  0  0  0
 29 77  1  0  0  0  0
 29 78  1  0  0  0  0
 30 33  1  0  0  0  0
 30 79  1  0  0  0  0
 30 80  1  0  0  0  0
 31 34  1  0  0  0  0
 31 81  1  0  0  0  0
 31 82  1  0  0  0  0
 32 34  1  0  0  0  0
 32 83  1  0  0  0  0
 32 84  1  0  0  0  0
 33 87  1  0  0  0  0
 33 88  1  0  0  0  0
 34 85  1  0  0  0  0
 34 86  1  0  0  0  0
M  END
> <PUBCHEM_COMPOUND_CID>
585168

> <PUBCHEM_COMPOUND_CANONICALIZED>
1

> <PUBCHEM_CACTVS_COMPLEXITY>
601

> <PUBCHEM_CACTVS_HBOND_ACCEPTOR>
0

> <PUBCHEM_CACTVS_HBOND_DONOR>
0

> <PUBCHEM_CACTVS_ROTATABLE_BOND>
5

> <PUBCHEM_CACTVS_SUBSKEYS>
AAADcfB8AAAAAAAAAAAAAAAAAAAAAAAAAAAwYMGDAAAAAAAAAAAAGAAAAAAADwCAAAAAAAAAAAAAAAAAAAAAAAAAAAAAAAAAAAAAAAIAAAAAAAAAAAAAAAEAgMAPgAAAAAAAAAAAAAQAAAAAAAAAAAAAAA==

> <PUBCHEM_IUPAC_OPENEYE_NAME>
1-[2-(1-adamantyl)-1,2-dicyclohexyl-ethyl]adamantane

> <PUBCHEM_IUPAC_CAS_NAME>
1-[2-(1-adamantyl)-1,2-dicyclohexylethyl]adamantane

> <PUBCHEM_IUPAC_NAME>
1-[2-(1-adamantyl)-1,2-dicyclohexylethyl]adamantane

> <PUBCHEM_IUPAC_SYSTEMATIC_NAME>
1-[2-(1-adamantyl)-1,2-dicyclohexyl-ethyl]adamantane

> <PUBCHEM_IUPAC_TRADITIONAL_NAME>
1-[2-(1-adamantyl)-1,2-dicyclohexyl-ethyl]adamantane

> <PUBCHEM_IUPAC_INCHI>
InChI=1S/C34H54/c1-3-7-29(8-4-1)31(33-17-23-11-24(18-33)13-25(12-23)19-33)32(30-9-5-2-6-10-30)34-20-26-14-27(21-34)16-28(15-26)22-34/h23-32H,1-22H2

> <PUBCHEM_IUPAC_INCHIKEY>
SNBDRUPVBYQELM-UHFFFAOYSA-N

> <PUBCHEM_XLOGP3_AA>
13.1

> <PUBCHEM_EXACT_MASS>
462.422552

> <PUBCHEM_MOLECULAR_FORMULA>
C34H54

> <PUBCHEM_MOLECULAR_WEIGHT>
462.79256

> <PUBCHEM_OPENEYE_CAN_SMILES>
C1CCC(CC1)C(C(C2CCCCC2)C34CC5CC(C3)CC(C5)C4)C67CC8CC(C6)CC(C8)C7

> <PUBCHEM_OPENEYE_ISO_SMILES>
C1CCC(CC1)C(C(C2CCCCC2)C34CC5CC(C3)CC(C5)C4)C67CC8CC(C6)CC(C8)C7

> <PUBCHEM_CACTVS_TPSA>
0

> <PUBCHEM_MONOISOTOPIC_WEIGHT>
462.422552

> <PUBCHEM_TOTAL_CHARGE>
0

> <PUBCHEM_HEAVY_ATOM_COUNT>
34

> <PUBCHEM_ATOM_DEF_STEREO_COUNT>
0

> <PUBCHEM_ATOM_UDEF_STEREO_COUNT>
2

> <PUBCHEM_BOND_DEF_STEREO_COUNT>
0

> <PUBCHEM_BOND_UDEF_STEREO_COUNT>
0

> <PUBCHEM_ISOTOPIC_ATOM_COUNT>
0

> <PUBCHEM_COMPONENT_COUNT>
1

> <PUBCHEM_CACTVS_TAUTO_COUNT>
1

> <PUBCHEM_COORDINATE_TYPE>
1
5
255

> <PUBCHEM_BONDANNOTATIONS>
3  1  3
4  2  3

$$$$

