65517
  -OEChem-07051213112D

 50 53  0     1  0  0  0  0  0999 V2000
    7.9506   -1.8334    0.0000 O   0  0  0  0  0  0  0  0  0  0  0  0
    9.1857    2.4533    0.0000 O   0  0  0  0  0  0  0  0  0  0  0  0
    2.5357   -1.8542    0.0000 O   0  0  0  0  0  0  0  0  0  0  0  0
    6.1968    0.1981    0.0000 C   0  0  1  0  0  0  0  0  0  0  0  0
    7.0628   -0.3019    0.0000 C   0  0  2  0  0  0  0  0  0  0  0  0
    7.9288    0.1981    0.0000 C   0  0  1  0  0  0  0  0  0  0  0  0
    7.9288    1.1981    0.0000 C   0  0  2  0  0  0  0  0  0  0  0  0
    5.2868   -0.3088    0.0000 C   0  0  2  0  0  0  0  0  0  0  0  0
    6.1968    1.1981    0.0000 C   0  0  0  0  0  0  0  0  0  0  0  0
    7.0628    1.6981    0.0000 C   0  0  0  0  0  0  0  0  0  0  0  0
    7.0789   -1.3434    0.0000 C   0  0  1  0  0  0  0  0  0  0  0  0
    8.8750   -0.1066    0.0000 C   0  0  0  0  0  0  0  0  0  0  0  0
    5.2787   -1.3504    0.0000 C   0  0  0  0  0  0  0  0  0  0  0  0
    4.3599    0.2553    0.0000 C   0  0  0  0  0  0  0  0  0  0  0  0
    8.8750    1.5028    0.0000 C   0  0  0  0  0  0  0  0  0  0  0  0
    9.4586    0.6981    0.0000 C   0  0  0  0  0  0  0  0  0  0  0  0
    6.1808   -1.8712    0.0000 C   0  0  0  0  0  0  0  0  0  0  0  0
    7.9288    2.1981    0.0000 C   0  0  0  0  0  0  0  0  0  0  0  0
    5.2945    0.6912    0.0000 C   0  0  0  0  0  0  0  0  0  0  0  0
    4.3433   -1.9001    0.0000 C   0  0  0  0  0  0  0  0  0  0  0  0
    3.4120   -0.2726    0.0000 C   0  0  0  0  0  0  0  0  0  0  0  0
    3.4037   -1.3576    0.0000 C   0  0  2  0  0  0  0  0  0  0  0  0
    6.9329    0.6231    0.0000 H   0  0  0  0  0  0  0  0  0  0  0  0
    7.8022   -0.7212    0.0000 H   0  0  0  0  0  0  0  0  0  0  0  0
    8.0188   -0.6471    0.0000 H   0  0  0  0  0  0  0  0  0  0  0  0
    5.9847    1.7807    0.0000 H   0  0  0  0  0  0  0  0  0  0  0  0
    5.5862    1.0904    0.0000 H   0  0  0  0  0  0  0  0  0  0  0  0
    7.4613    2.1730    0.0000 H   0  0  0  0  0  0  0  0  0  0  0  0
    6.6643    2.1730    0.0000 H   0  0  0  0  0  0  0  0  0  0  0  0
    7.6116   -1.0262    0.0000 H   0  0  0  0  0  0  0  0  0  0  0  0
    8.6240   -0.6736    0.0000 H   0  0  0  0  0  0  0  0  0  0  0  0
    9.4124   -0.4159    0.0000 H   0  0  0  0  0  0  0  0  0  0  0  0
    4.7681    0.7220    0.0000 H   0  0  0  0  0  0  0  0  0  0  0  0
    3.9700    0.7374    0.0000 H   0  0  0  0  0  0  0  0  0  0  0  0
    9.9195    0.2834    0.0000 H   0  0  0  0  0  0  0  0  0  0  0  0
    9.9195    1.1128    0.0000 H   0  0  0  0  0  0  0  0  0  0  0  0
    6.1832   -2.4912    0.0000 H   0  0  0  0  0  0  0  0  0  0  0  0
    8.5488    2.1981    0.0000 H   0  0  0  0  0  0  0  0  0  0  0  0
    7.9288    2.8181    0.0000 H   0  0  0  0  0  0  0  0  0  0  0  0
    7.3088    2.1981    0.0000 H   0  0  0  0  0  0  0  0  0  0  0  0
    5.9145    0.6864    0.0000 H   0  0  0  0  0  0  0  0  0  0  0  0
    5.2993    1.3112    0.0000 H   0  0  0  0  0  0  0  0  0  0  0  0
    4.6745    0.6960    0.0000 H   0  0  0  0  0  0  0  0  0  0  0  0
    3.9460   -2.3761    0.0000 H   0  0  0  0  0  0  0  0  0  0  0  0
    4.7443   -2.3730    0.0000 H   0  0  0  0  0  0  0  0  0  0  0  0
    3.2075    0.3127    0.0000 H   0  0  0  0  0  0  0  0  0  0  0  0
    2.8004   -0.3740    0.0000 H   0  0  0  0  0  0  0  0  0  0  0  0
    3.4025   -1.9776    0.0000 H   0  0  0  0  0  0  0  0  0  0  0  0
    7.9578   -2.4533    0.0000 H   0  0  0  0  0  0  0  0  0  0  0  0
    2.0000   -1.5422    0.0000 H   0  0  0  0  0  0  0  0  0  0  0  0
 11  1  1  6  0  0  0
  1 49  1  0  0  0  0
  2 15  2  0  0  0  0
 22  3  1  1  0  0  0
  3 50  1  0  0  0  0
  4  5  1  0  0  0  0
  4  8  1  0  0  0  0
  4  9  1  0  0  0  0
  4 23  1  6  0  0  0
  5  6  1  0  0  0  0
  5 11  1  0  0  0  0
  5 24  1  1  0  0  0
  6  7  1  0  0  0  0
  6 12  1  0  0  0  0
  6 25  1  6  0  0  0
  7 10  1  0  0  0  0
  7 15  1  0  0  0  0
  7 18  1  1  0  0  0
  8 13  1  0  0  0  0
  8 14  1  0  0  0  0
  8 19  1  1  0  0  0
  9 10  1  0  0  0  0
  9 26  1  0  0  0  0
  9 27  1  0  0  0  0
 10 28  1  0  0  0  0
 10 29  1  0  0  0  0
 11 17  1  0  0  0  0
 11 30  1  0  0  0  0
 12 16  1  0  0  0  0
 12 31  1  0  0  0  0
 12 32  1  0  0  0  0
 13 17  2  0  0  0  0
 13 20  1  0  0  0  0
 14 21  1  0  0  0  0
 14 33  1  0  0  0  0
 14 34  1  0  0  0  0
 15 16  1  0  0  0  0
 16 35  1  0  0  0  0
 16 36  1  0  0  0  0
 17 37  1  0  0  0  0
 18 38  1  0  0  0  0
 18 39  1  0  0  0  0
 18 40  1  0  0  0  0
 19 41  1  0  0  0  0
 19 42  1  0  0  0  0
 19 43  1  0  0  0  0
 20 22  1  0  0  0  0
 20 44  1  0  0  0  0
 20 45  1  0  0  0  0
 21 22  1  0  0  0  0
 21 46  1  0  0  0  0
 21 47  1  0  0  0  0
 22 48  1  0  0  0  0
M  END
> <PUBCHEM_COMPOUND_CID>
65517

> <PUBCHEM_COMPOUND_CANONICALIZED>
1

> <PUBCHEM_CACTVS_COMPLEXITY>
539

> <PUBCHEM_CACTVS_HBOND_ACCEPTOR>
3

> <PUBCHEM_CACTVS_HBOND_DONOR>
2

> <PUBCHEM_CACTVS_ROTATABLE_BOND>
0

> <PUBCHEM_CACTVS_SUBSKEYS>
AAADceB4MAAAAAAAAAAAAAAAAAAAAYAAAAAwYIAAAAAAAGCAAAAAGgAACAAADxSggAICAAAAAgCIAqBSAAAAAAAgAAAACAEAAAgAFBIAAQAAUAAEwAAIEAOIzPDPgAAAAAAAAADAAAQAACAAAAAACAAAAA==

> <PUBCHEM_IUPAC_OPENEYE_NAME>
(3S,7S,8R,9S,10R,13S,14S)-3,7-dihydroxy-10,13-dimethyl-1,2,3,4,7,8,9,11,12,14,15,16-dodecahydrocyclopenta[a]phenanthren-17-one

> <PUBCHEM_IUPAC_CAS_NAME>
(3S,7S,8R,9S,10R,13S,14S)-3,7-dihydroxy-10,13-dimethyl-1,2,3,4,7,8,9,11,12,14,15,16-dodecahydrocyclopenta[a]phenanthren-17-one

> <PUBCHEM_IUPAC_NAME>
(3S,7S,8R,9S,10R,13S,14S)-3,7-dihydroxy-10,13-dimethyl-1,2,3,4,7,8,9,11,12,14,15,16-dodecahydrocyclopenta[a]phenanthren-17-one

> <PUBCHEM_IUPAC_SYSTEMATIC_NAME>
(3S,7S,8R,9S,10R,13S,14S)-10,13-dimethyl-3,7-bis(oxidanyl)-1,2,3,4,7,8,9,11,12,14,15,16-dodecahydrocyclopenta[a]phenanthren-17-one

> <PUBCHEM_IUPAC_TRADITIONAL_NAME>
(3S,7S,8R,9S,10R,13S,14S)-3,7-dihydroxy-10,13-dimethyl-1,2,3,4,7,8,9,11,12,14,15,16-dodecahydrocyclopenta[a]phenanthren-17-one

> <PUBCHEM_IUPAC_INCHI>
InChI=1S/C19H28O3/c1-18-7-5-12(20)9-11(18)10-15(21)17-13-3-4-16(22)19(13,2)8-6-14(17)18/h10,12-15,17,20-21H,3-9H2,1-2H3/t12-,13-,14-,15+,17-,18-,19-/m0/s1

> <PUBCHEM_IUPAC_INCHIKEY>
OLPSAOWBSPXZEA-JIEICEMKSA-N

> <PUBCHEM_XLOGP3>
2.1

> <PUBCHEM_EXACT_MASS>
304.203845

> <PUBCHEM_MOLECULAR_FORMULA>
C19H28O3

> <PUBCHEM_MOLECULAR_WEIGHT>
304.42382

> <PUBCHEM_OPENEYE_CAN_SMILES>
CC12CCC3C(C1CCC2=O)C(C=C4C3(CCC(C4)O)C)O

> <PUBCHEM_OPENEYE_ISO_SMILES>
C[C@]12CC[C@H]3[C@H]([C@@H]1CCC2=O)[C@@H](C=C4[C@@]3(CC[C@@H](C4)O)C)O

> <PUBCHEM_CACTVS_TPSA>
57.5

> <PUBCHEM_MONOISOTOPIC_WEIGHT>
304.203845

> <PUBCHEM_TOTAL_CHARGE>
0

> <PUBCHEM_HEAVY_ATOM_COUNT>
22

> <PUBCHEM_ATOM_DEF_STEREO_COUNT>
7

> <PUBCHEM_ATOM_UDEF_STEREO_COUNT>
0

> <PUBCHEM_BOND_DEF_STEREO_COUNT>
0

> <PUBCHEM_BOND_UDEF_STEREO_COUNT>
0

> <PUBCHEM_ISOTOPIC_ATOM_COUNT>
0

> <PUBCHEM_COMPONENT_COUNT>
1

> <PUBCHEM_CACTVS_TAUTO_COUNT>
2

> <PUBCHEM_COORDINATE_TYPE>
1
5
255

> <PUBCHEM_BONDANNOTATIONS>
11  1  6
22  3  5
4  23  6
5  24  5
6  25  6
7  18  5
8  19  5

$$$$

