39676
  -OEChem-07051213002D

 27 28  0     1  0  0  0  0  0999 V2000
    5.4921   -3.0194    0.0000 Cl  0  0  0  0  0  0  0  0  0  0  0  0
    2.0280   -3.0194    0.0000 Cl  0  0  0  0  0  0  0  0  0  0  0  0
    3.2601    1.5194    0.0000 O   0  0  0  0  0  0  0  0  0  0  0  0
    5.5202    0.2593    0.0000 O   0  0  0  0  0  0  0  0  0  0  0  0
    2.0000    0.2593    0.0000 O   0  0  0  0  0  0  0  0  0  0  0  0
    3.7601   -0.0194    0.0000 N   0  0  0  0  0  0  0  0  0  0  0  0
    4.2601    1.5194    0.0000 C   0  0  3  0  0  0  0  0  0  0  0  0
    4.5691    0.5684    0.0000 C   0  0  0  0  0  0  0  0  0  0  0  0
    5.2111    1.8284    0.0000 C   0  0  0  0  0  0  0  0  0  0  0  0
    2.9511    0.5684    0.0000 C   0  0  0  0  0  0  0  0  0  0  0  0
    3.7601   -1.0194    0.0000 C   0  0  0  0  0  0  0  0  0  0  0  0
    4.2601    2.5194    0.0000 C   0  0  0  0  0  0  0  0  0  0  0  0
    2.8940   -1.5194    0.0000 C   0  0  0  0  0  0  0  0  0  0  0  0
    4.6261   -1.5194    0.0000 C   0  0  0  0  0  0  0  0  0  0  0  0
    4.6261   -2.5194    0.0000 C   0  0  0  0  0  0  0  0  0  0  0  0
    2.8940   -2.5194    0.0000 C   0  0  0  0  0  0  0  0  0  0  0  0
    3.3940    3.0194    0.0000 C   0  0  0  0  0  0  0  0  0  0  0  0
    3.7601   -3.0194    0.0000 C   0  0  0  0  0  0  0  0  0  0  0  0
    5.4027    1.2388    0.0000 H   0  0  0  0  0  0  0  0  0  0  0  0
    5.8008    2.0200    0.0000 H   0  0  0  0  0  0  0  0  0  0  0  0
    5.0195    2.4181    0.0000 H   0  0  0  0  0  0  0  0  0  0  0  0
    4.7970    2.8294    0.0000 H   0  0  0  0  0  0  0  0  0  0  0  0
    2.3571   -1.2094    0.0000 H   0  0  0  0  0  0  0  0  0  0  0  0
    5.1630   -1.2094    0.0000 H   0  0  0  0  0  0  0  0  0  0  0  0
    3.3940    3.6394    0.0000 H   0  0  0  0  0  0  0  0  0  0  0  0
    2.8571    2.7094    0.0000 H   0  0  0  0  0  0  0  0  0  0  0  0
    3.7601   -3.6394    0.0000 H   0  0  0  0  0  0  0  0  0  0  0  0
  1 15  1  0  0  0  0
  2 16  1  0  0  0  0
  3  7  1  0  0  0  0
  3 10  1  0  0  0  0
  4  8  2  0  0  0  0
  5 10  2  0  0  0  0
  6  8  1  0  0  0  0
  6 10  1  0  0  0  0
  6 11  1  0  0  0  0
  7  8  1  0  0  0  0
  7  9  1  0  0  0  0
  7 12  1  0  0  0  0
  9 19  1  0  0  0  0
  9 20  1  0  0  0  0
  9 21  1  0  0  0  0
 11 13  2  0  0  0  0
 11 14  1  0  0  0  0
 12 17  2  0  0  0  0
 12 22  1  0  0  0  0
 13 16  1  0  0  0  0
 13 23  1  0  0  0  0
 14 15  2  0  0  0  0
 14 24  1  0  0  0  0
 15 18  1  0  0  0  0
 16 18  2  0  0  0  0
 17 25  1  0  0  0  0
 17 26  1  0  0  0  0
 18 27  1  0  0  0  0
M  END
> <PUBCHEM_COMPOUND_CID>
39676

> <PUBCHEM_COMPOUND_CANONICALIZED>
1

> <PUBCHEM_CACTVS_COMPLEXITY>
391

> <PUBCHEM_CACTVS_HBOND_ACCEPTOR>
3

> <PUBCHEM_CACTVS_HBOND_DONOR>
0

> <PUBCHEM_CACTVS_ROTATABLE_BOND>
2

> <PUBCHEM_CACTVS_SUBSKEYS>
AAADccByMAAGAAAAAAAAAAAAAAAAAWAAAAAwAAAAAAAAAAABAAAAHgIAAAAADE6BkCAyyIMABACIACVSWAKCAAAhBwAIiAFAZogKJCLBs5WNIAhghCDY6AcQAAAAAAAAAAKAAAAAAAAABQAAAAAAAAAAAA==

> <PUBCHEM_IUPAC_OPENEYE_NAME>
3-(3,5-dichlorophenyl)-5-methyl-5-vinyl-oxazolidine-2,4-dione

> <PUBCHEM_IUPAC_CAS_NAME>
3-(3,5-dichlorophenyl)-5-ethenyl-5-methyloxazolidine-2,4-dione

> <PUBCHEM_IUPAC_NAME>
3-(3,5-dichlorophenyl)-5-ethenyl-5-methyl-1,3-oxazolidine-2,4-dione

> <PUBCHEM_IUPAC_SYSTEMATIC_NAME>
3-[3,5-bis(chloranyl)phenyl]-5-ethenyl-5-methyl-1,3-oxazolidine-2,4-dione

> <PUBCHEM_IUPAC_TRADITIONAL_NAME>
3-(3,5-dichlorophenyl)-5-methyl-5-vinyl-oxazolidine-2,4-quinone

> <PUBCHEM_IUPAC_INCHI>
InChI=1S/C12H9Cl2NO3/c1-3-12(2)10(16)15(11(17)18-12)9-5-7(13)4-8(14)6-9/h3-6H,1H2,2H3

> <PUBCHEM_IUPAC_INCHIKEY>
FSCWZHGZWWDELK-UHFFFAOYSA-N

> <PUBCHEM_XLOGP3>
3.1

> <PUBCHEM_EXACT_MASS>
284.995949

> <PUBCHEM_MOLECULAR_FORMULA>
C12H9Cl2NO3

> <PUBCHEM_MOLECULAR_WEIGHT>
286.11076

> <PUBCHEM_OPENEYE_CAN_SMILES>
CC1(C(=O)N(C(=O)O1)C2=CC(=CC(=C2)Cl)Cl)C=C

> <PUBCHEM_OPENEYE_ISO_SMILES>
CC1(C(=O)N(C(=O)O1)C2=CC(=CC(=C2)Cl)Cl)C=C

> <PUBCHEM_CACTVS_TPSA>
46.6

> <PUBCHEM_MONOISOTOPIC_WEIGHT>
284.995949

> <PUBCHEM_TOTAL_CHARGE>
0

> <PUBCHEM_HEAVY_ATOM_COUNT>
18

> <PUBCHEM_ATOM_DEF_STEREO_COUNT>
0

> <PUBCHEM_ATOM_UDEF_STEREO_COUNT>
1

> <PUBCHEM_BOND_DEF_STEREO_COUNT>
0

> <PUBCHEM_BOND_UDEF_STEREO_COUNT>
0

> <PUBCHEM_ISOTOPIC_ATOM_COUNT>
0

> <PUBCHEM_COMPONENT_COUNT>
1

> <PUBCHEM_CACTVS_TAUTO_COUNT>
1

> <PUBCHEM_COORDINATE_TYPE>
1
5
255

> <PUBCHEM_BONDANNOTATIONS>
11  13  8
11  14  8
13  16  8
14  15  8
15  18  8
16  18  8
7  12  3

$$$$

