9882882
  -OEChem-07051212502D

 42 42  0     1  0  0  0  0  0999 V2000
    3.4483   -5.1164    0.0000 O   0  0  0  0  0  0  0  0  0  0  0  0
    4.6730   -3.8916    0.0000 O   0  0  0  0  0  0  0  0  0  0  0  0
    5.8284    0.3851    0.0000 O   0  0  0  0  0  0  0  0  0  0  0  0
    5.3801   -1.2879    0.0000 O   0  0  0  0  0  0  0  0  0  0  0  0
    5.5003    4.9559    0.0000 O   0  0  0  0  0  0  0  0  0  0  0  0
    3.8272    4.5076    0.0000 O   0  0  0  0  0  0  0  0  0  0  0  0
    3.0000   -2.4433    0.0000 N   0  0  3  0  0  0  0  0  0  0  0  0
    3.8966    0.9027    0.0000 N   0  0  0  0  0  0  0  0  0  0  0  0
    6.0179    3.0240    0.0000 N   0  0  0  0  0  0  0  0  0  0  0  0
    3.0000   -3.4433    0.0000 C   0  0  1  0  0  0  0  0  0  0  0  0
    2.0000   -3.4433    0.0000 C   0  0  0  0  0  0  0  0  0  0  0  0
    2.0000   -2.4433    0.0000 C   0  0  0  0  0  0  0  0  0  0  0  0
    3.7071   -1.7362    0.0000 C   0  0  0  0  0  0  0  0  0  0  0  0
    3.4483   -0.7703    0.0000 C   0  0  0  0  0  0  0  0  0  0  0  0
    4.1554   -0.0632    0.0000 C   0  0  1  0  0  0  0  0  0  0  0  0
    3.7071   -4.1504    0.0000 C   0  0  0  0  0  0  0  0  0  0  0  0
    4.6037    1.6098    0.0000 C   0  0  0  0  0  0  0  0  0  0  0  0
    5.1213   -0.3220    0.0000 C   0  0  0  0  0  0  0  0  0  0  0  0
    4.3449    2.5758    0.0000 C   0  0  0  0  0  0  0  0  0  0  0  0
    5.0520    3.2829    0.0000 C   0  0  1  0  0  0  0  0  0  0  0  0
    4.7932    4.2488    0.0000 C   0  0  0  0  0  0  0  0  0  0  0  0
    3.5728   -3.2061    0.0000 H   0  0  0  0  0  0  0  0  0  0  0  0
    1.3800   -3.4433    0.0000 H   0  0  0  0  0  0  0  0  0  0  0  0
    2.0000   -4.0633    0.0000 H   0  0  0  0  0  0  0  0  0  0  0  0
    2.0000   -1.8233    0.0000 H   0  0  0  0  0  0  0  0  0  0  0  0
    1.3800   -2.4433    0.0000 H   0  0  0  0  0  0  0  0  0  0  0  0
    4.0627   -2.2441    0.0000 H   0  0  0  0  0  0  0  0  0  0  0  0
    4.2690   -1.4742    0.0000 H   0  0  0  0  0  0  0  0  0  0  0  0
    3.0927   -0.2624    0.0000 H   0  0  0  0  0  0  0  0  0  0  0  0
    2.8864   -1.0323    0.0000 H   0  0  0  0  0  0  0  0  0  0  0  0
    4.5938    0.3752    0.0000 H   0  0  0  0  0  0  0  0  0  0  0  0
    3.2977    1.0632    0.0000 H   0  0  0  0  0  0  0  0  0  0  0  0
    4.9593    1.1020    0.0000 H   0  0  0  0  0  0  0  0  0  0  0  0
    5.1656    1.8719    0.0000 H   0  0  0  0  0  0  0  0  0  0  0  0
    3.9892    3.0836    0.0000 H   0  0  0  0  0  0  0  0  0  0  0  0
    3.7830    2.3137    0.0000 H   0  0  0  0  0  0  0  0  0  0  0  0
    5.4904    3.7213    0.0000 H   0  0  0  0  0  0  0  0  0  0  0  0
    3.8867   -5.5548    0.0000 H   0  0  0  0  0  0  0  0  0  0  0  0
    6.4273    0.2246    0.0000 H   0  0  0  0  0  0  0  0  0  0  0  0
    6.4563    3.4625    0.0000 H   0  0  0  0  0  0  0  0  0  0  0  0
    6.1784    2.4252    0.0000 H   0  0  0  0  0  0  0  0  0  0  0  0
    5.3398    5.5548    0.0000 H   0  0  0  0  0  0  0  0  0  0  0  0
  1 16  1  0  0  0  0
  1 38  1  0  0  0  0
  2 16  2  0  0  0  0
  3 18  1  0  0  0  0
  3 39  1  0  0  0  0
  4 18  2  0  0  0  0
  5 21  1  0  0  0  0
  5 42  1  0  0  0  0
  6 21  2  0  0  0  0
  7 10  1  0  0  0  0
  7 12  1  0  0  0  0
  7 13  1  0  0  0  0
 15  8  1  6  0  0  0
  8 17  1  0  0  0  0
  8 32  1  0  0  0  0
 20  9  1  1  0  0  0
  9 40  1  0  0  0  0
  9 41  1  0  0  0  0
 10 11  1  0  0  0  0
 10 16  1  6  0  0  0
 10 22  1  0  0  0  0
 11 12  1  0  0  0  0
 11 23  1  0  0  0  0
 11 24  1  0  0  0  0
 12 25  1  0  0  0  0
 12 26  1  0  0  0  0
 13 14  1  0  0  0  0
 13 27  1  0  0  0  0
 13 28  1  0  0  0  0
 14 15  1  0  0  0  0
 14 29  1  0  0  0  0
 14 30  1  0  0  0  0
 15 18  1  0  0  0  0
 15 31  1  0  0  0  0
 17 19  1  0  0  0  0
 17 33  1  0  0  0  0
 17 34  1  0  0  0  0
 19 20  1  0  0  0  0
 19 35  1  0  0  0  0
 19 36  1  0  0  0  0
 20 21  1  0  0  0  0
 20 37  1  0  0  0  0
M  END
> <PUBCHEM_COMPOUND_CID>
9882882

> <PUBCHEM_COMPOUND_CANONICALIZED>
1

> <PUBCHEM_CACTVS_COMPLEXITY>
403

> <PUBCHEM_CACTVS_HBOND_ACCEPTOR>
9

> <PUBCHEM_CACTVS_HBOND_DONOR>
5

> <PUBCHEM_CACTVS_ROTATABLE_BOND>
10

> <PUBCHEM_CACTVS_SUBSKEYS>
AAADceBzOAAAAAAAAAAAAAAAAABYAAAAAAAAAAAAAAAAAAAAAAAAHgAQCAAACCjBgAQACAPAAgAIAACQCAAAAAAAAAAAAIGIAAACABAAwCAEQAAEEACQAAAkAAAAAAAAAAAAAAAAAAAAAAAAAAAAAAAAAA==

> <PUBCHEM_IUPAC_OPENEYE_NAME>
(2S)-1-[(3S)-3-[[(3S)-3-amino-3-carboxy-propyl]amino]-3-carboxy-propyl]azetidine-2-carboxylic acid

> <PUBCHEM_IUPAC_CAS_NAME>
(2S)-1-[(3S)-3-[[(3S)-3-amino-3-carboxypropyl]amino]-3-carboxypropyl]-2-azetidinecarboxylic acid

> <PUBCHEM_IUPAC_NAME>
(2S)-1-[(3S)-3-[[(3S)-3-amino-3-carboxypropyl]amino]-3-carboxypropyl]azetidine-2-carboxylic acid

> <PUBCHEM_IUPAC_SYSTEMATIC_NAME>
(2S)-1-[(3S)-3-[[(3S)-3-azanyl-4-oxidanyl-4-oxidanylidene-butyl]amino]-4-oxidanyl-4-oxidanylidene-butyl]azetidine-2-carboxylic acid

> <PUBCHEM_IUPAC_TRADITIONAL_NAME>
(2S)-1-[(3S)-3-[[(3S)-3-amino-3-carboxy-propyl]amino]-3-carboxy-propyl]azetidine-2-carboxylic acid

> <PUBCHEM_IUPAC_INCHI>
InChI=1S/C12H21N3O6/c13-7(10(16)17)1-4-14-8(11(18)19)2-5-15-6-3-9(15)12(20)21/h7-9,14H,1-6,13H2,(H,16,17)(H,18,19)(H,20,21)/t7-,8-,9-/m0/s1

> <PUBCHEM_IUPAC_INCHIKEY>
KRGPXXHMOXVMMM-CIUDSAMLSA-N

> <PUBCHEM_XLOGP3_AA>
-8.2

> <PUBCHEM_EXACT_MASS>
303.143035

> <PUBCHEM_MOLECULAR_FORMULA>
C12H21N3O6

> <PUBCHEM_MOLECULAR_WEIGHT>
303.31164

> <PUBCHEM_OPENEYE_CAN_SMILES>
C1CN(C1C(=O)O)CCC(C(=O)O)NCCC(C(=O)O)N

> <PUBCHEM_OPENEYE_ISO_SMILES>
C1CN([C@@H]1C(=O)O)CC[C@@H](C(=O)O)NCC[C@@H](C(=O)O)N

> <PUBCHEM_CACTVS_TPSA>
153

> <PUBCHEM_MONOISOTOPIC_WEIGHT>
303.143035

> <PUBCHEM_TOTAL_CHARGE>
0

> <PUBCHEM_HEAVY_ATOM_COUNT>
21

> <PUBCHEM_ATOM_DEF_STEREO_COUNT>
3

> <PUBCHEM_ATOM_UDEF_STEREO_COUNT>
0

> <PUBCHEM_BOND_DEF_STEREO_COUNT>
0

> <PUBCHEM_BOND_UDEF_STEREO_COUNT>
0

> <PUBCHEM_ISOTOPIC_ATOM_COUNT>
0

> <PUBCHEM_COMPONENT_COUNT>
1

> <PUBCHEM_CACTVS_TAUTO_COUNT>
1

> <PUBCHEM_COORDINATE_TYPE>
1
5
255

> <PUBCHEM_BONDANNOTATIONS>
10  16  6
15  8  6
20  9  5

$$$$

