13464
  -OEChem-06261214302D

 42 42  0     0  0  0  0  0  0999 V2000
    8.4871    3.8700    0.0000 Cl  0  5  0  0  0  0  0  0  0  0  0  0
    1.6200    6.6200    0.0000 N   0  3  0  0  0  0  0  0  0  0  0  0
    1.6200    5.6200    0.0000 C   0  0  0  0  0  0  0  0  0  0  0  0
    2.4860    5.1200    0.0000 C   0  0  0  0  0  0  0  0  0  0  0  0
    1.6200    7.6200    0.0000 C   0  0  0  0  0  0  0  0  0  0  0  0
    0.6200    6.6200    0.0000 C   0  0  0  0  0  0  0  0  0  0  0  0
    2.4860    4.1200    0.0000 C   0  0  0  0  0  0  0  0  0  0  0  0
    3.3520    3.6200    0.0000 C   0  0  0  0  0  0  0  0  0  0  0  0
    3.3520    2.6200    0.0000 C   0  0  0  0  0  0  0  0  0  0  0  0
    4.2181    4.1200    0.0000 C   0  0  0  0  0  0  0  0  0  0  0  0
    2.4860    2.1200    0.0000 C   0  0  0  0  0  0  0  0  0  0  0  0
    5.0841    3.6200    0.0000 C   0  0  0  0  0  0  0  0  0  0  0  0
    4.2181    2.1200    0.0000 C   0  0  0  0  0  0  0  0  0  0  0  0
    4.2181    5.1200    0.0000 C   0  0  0  0  0  0  0  0  0  0  0  0
    2.4860    1.1200    0.0000 C   0  0  0  0  0  0  0  0  0  0  0  0
    5.9501    4.1200    0.0000 C   0  0  0  0  0  0  0  0  0  0  0  0
    4.2181    1.1200    0.0000 C   0  0  0  0  0  0  0  0  0  0  0  0
    5.0841    5.6200    0.0000 C   0  0  0  0  0  0  0  0  0  0  0  0
    3.3520    0.6200    0.0000 C   0  0  0  0  0  0  0  0  0  0  0  0
    5.9501    5.1200    0.0000 C   0  0  0  0  0  0  0  0  0  0  0  0
    2.2400    6.6200    0.0000 H   0  0  0  0  0  0  0  0  0  0  0  0
    1.0094    5.7277    0.0000 H   0  0  0  0  0  0  0  0  0  0  0  0
    1.4080    5.0374    0.0000 H   0  0  0  0  0  0  0  0  0  0  0  0
    3.0966    5.0123    0.0000 H   0  0  0  0  0  0  0  0  0  0  0  0
    2.6981    5.7026    0.0000 H   0  0  0  0  0  0  0  0  0  0  0  0
    2.2400    7.6200    0.0000 H   0  0  0  0  0  0  0  0  0  0  0  0
    0.6200    7.2400    0.0000 H   0  0  0  0  0  0  0  0  0  0  0  0
    0.0000    6.6200    0.0000 H   0  0  0  0  0  0  0  0  0  0  0  0
    0.6200    6.0000    0.0000 H   0  0  0  0  0  0  0  0  0  0  0  0
    1.6200    8.2400    0.0000 H   0  0  0  0  0  0  0  0  0  0  0  0
    1.0000    7.6200    0.0000 H   0  0  0  0  0  0  0  0  0  0  0  0
    1.9491    3.8100    0.0000 H   0  0  0  0  0  0  0  0  0  0  0  0
    5.0841    3.0000    0.0000 H   0  0  0  0  0  0  0  0  0  0  0  0
    1.9491    2.4300    0.0000 H   0  0  0  0  0  0  0  0  0  0  0  0
    3.6811    5.4300    0.0000 H   0  0  0  0  0  0  0  0  0  0  0  0
    4.7550    2.4300    0.0000 H   0  0  0  0  0  0  0  0  0  0  0  0
    6.4871    3.8100    0.0000 H   0  0  0  0  0  0  0  0  0  0  0  0
    1.9491    0.8100    0.0000 H   0  0  0  0  0  0  0  0  0  0  0  0
    5.0841    6.2400    0.0000 H   0  0  0  0  0  0  0  0  0  0  0  0
    4.7550    0.8100    0.0000 H   0  0  0  0  0  0  0  0  0  0  0  0
    6.4871    5.4300    0.0000 H   0  0  0  0  0  0  0  0  0  0  0  0
    3.3520    0.0000    0.0000 H   0  0  0  0  0  0  0  0  0  0  0  0
  2  3  1  0  0  0  0
  2  5  1  0  0  0  0
  2  6  1  0  0  0  0
  2 21  1  0  0  0  0
  3  4  1  0  0  0  0
  3 22  1  0  0  0  0
  3 23  1  0  0  0  0
  4  7  1  0  0  0  0
  4 24  1  0  0  0  0
  4 25  1  0  0  0  0
  5 26  1  0  0  0  0
  5 30  1  0  0  0  0
  5 31  1  0  0  0  0
  6 27  1  0  0  0  0
  6 28  1  0  0  0  0
  6 29  1  0  0  0  0
  7  8  2  0  0  0  0
  7 32  1  0  0  0  0
  8  9  1  0  0  0  0
  8 10  1  0  0  0  0
  9 11  2  0  0  0  0
  9 13  1  0  0  0  0
 10 12  2  0  0  0  0
 10 14  1  0  0  0  0
 11 15  1  0  0  0  0
 11 34  1  0  0  0  0
 12 16  1  0  0  0  0
 12 33  1  0  0  0  0
 13 17  2  0  0  0  0
 13 36  1  0  0  0  0
 14 18  2  0  0  0  0
 14 35  1  0  0  0  0
 15 19  2  0  0  0  0
 15 38  1  0  0  0  0
 16 20  2  0  0  0  0
 16 37  1  0  0  0  0
 17 19  1  0  0  0  0
 17 40  1  0  0  0  0
 18 20  1  0  0  0  0
 18 39  1  0  0  0  0
 19 42  1  0  0  0  0
 20 41  1  0  0  0  0
M  CHG  2   1  -1   2   1
M  END
> <PUBCHEM_COMPOUND_CID>
13464

> <PUBCHEM_COMPOUND_CANONICALIZED>
1

> <PUBCHEM_CACTVS_COMPLEXITY>
247

> <PUBCHEM_CACTVS_HBOND_ACCEPTOR>
1

> <PUBCHEM_CACTVS_HBOND_DONOR>
1

> <PUBCHEM_CACTVS_ROTATABLE_BOND>
5

> <PUBCHEM_CACTVS_SUBSKEYS>
AAADceB6AAAEAAAAAAAAAAAAAAAAAAAAAAAwYAAAAAAAAAABQAAAHAAQAAAADADBGAQyAIPAAACAAiBCAAACAAAgAAAIiIAIAIgIICKAERCEIAAgkAAIiAcAgMAOAAAAAAAAAAAAAAAAAAAAAAAAAAAAAA==

> <PUBCHEM_IUPAC_OPENEYE_NAME>
4,4-diphenylbut-3-enyl(dimethyl)ammonium chloride

> <PUBCHEM_IUPAC_CAS_NAME>
4,4-diphenylbut-3-enyl(dimethyl)ammonium chloride

> <PUBCHEM_IUPAC_NAME>
4,4-diphenylbut-3-enyl(dimethyl)azanium chloride

> <PUBCHEM_IUPAC_SYSTEMATIC_NAME>
4,4-diphenylbut-3-enyl(dimethyl)azanium chloride

> <PUBCHEM_IUPAC_TRADITIONAL_NAME>
4,4-diphenylbut-3-enyl(dimethyl)ammonium chloride

> <PUBCHEM_IUPAC_INCHI>
InChI=1S/C18H21N.ClH/c1-19(2)15-9-14-18(16-10-5-3-6-11-16)17-12-7-4-8-13-17;/h3-8,10-14H,9,15H2,1-2H3;1H

> <PUBCHEM_IUPAC_INCHIKEY>
WFWARGVWOBVRBH-UHFFFAOYSA-N

> <PUBCHEM_EXACT_MASS>
287.144077

> <PUBCHEM_MOLECULAR_FORMULA>
C18H22ClN

> <PUBCHEM_MOLECULAR_WEIGHT>
287.82698

> <PUBCHEM_OPENEYE_CAN_SMILES>
C[NH+](C)CCC=C(C1=CC=CC=C1)C2=CC=CC=C2.[Cl-]

> <PUBCHEM_OPENEYE_ISO_SMILES>
C[NH+](C)CCC=C(C1=CC=CC=C1)C2=CC=CC=C2.[Cl-]

> <PUBCHEM_CACTVS_TPSA>
4.4

> <PUBCHEM_MONOISOTOPIC_WEIGHT>
287.144077

> <PUBCHEM_TOTAL_CHARGE>
0

> <PUBCHEM_HEAVY_ATOM_COUNT>
20

> <PUBCHEM_ATOM_DEF_STEREO_COUNT>
0

> <PUBCHEM_ATOM_UDEF_STEREO_COUNT>
0

> <PUBCHEM_BOND_DEF_STEREO_COUNT>
0

> <PUBCHEM_BOND_UDEF_STEREO_COUNT>
0

> <PUBCHEM_ISOTOPIC_ATOM_COUNT>
0

> <PUBCHEM_COMPONENT_COUNT>
2

> <PUBCHEM_CACTVS_TAUTO_COUNT>
1

> <PUBCHEM_COORDINATE_TYPE>
1
5
255

> <PUBCHEM_BONDANNOTATIONS>
10  12  8
10  14  8
11  15  8
12  16  8
13  17  8
14  18  8
15  19  8
16  20  8
17  19  8
18  20  8
9  11  8
9  13  8

$$$$

