   Color/Form

     * Monoclinic leaflets from alcohol
     * White leaflets
     * Colorless, waxy solid

   from [1]HSDB

   Boiling Point
        350 deg C (dec); 232 deg C at 15 mm Hg
   from [2]HSDB

   Melting Point
        69.3 deg C
   from [3]HSDB

   Density/Specific Gravity
        0.9408 at 20 deg C/4 deg C
   from [4]HSDB

   Dissociation Constants
        pKa = 4.75 (est)
   from [5]HSDB

   Heat of Vaporization
        -11,342.4 kJ/mol
   from [6]HSDB

   Octanol/Water Partition Coefficient
        log Kow = 8.23
   from [7]HSDB

   Solubilities

     * Slightly soluble in ethanol, benzene; soluble in acetone,
       chloroform, carbon disulfide
     * 1 gram dissolves in 21 mL alcohol, 5 mL benzene, 2 mL chloroform,
       26 mL acetone, 6 mL carbon tetrachloride, 3.4 mL carbon disulfide;
       also soluble in amyl acetate, toluene
     * Soluble in alcohol, ether, chloroform, carbon disulfide, carbon
       tetrachloride; insoluble in water
     * In water, 0.597 mg/L at 25 deg C
     * In water, 0.568 mg/L at 25 deg C

   from [8]HSDB

   Spectral Properties

     * Index of refraction: 1.4299 at 80 deg C
     * Intense mass spectral peaks: 56 m/z, 129 m/z, 256 m/z, 284 m/z
     * MAX ABSORPTION: (ALCOHOL); 210 NM (LOG E= 1.69); SADTLER REFERENCE
       NUMBER: 50 (IR, PRISM)
     * Intense mass spectral peaks: 43 m/z (100%), 73 m/z (84%), 60 m/z
       (81%), 57 m/z (76%)
     * IR: 2010 (Coblentz Society Spectral Collection)
     * NMR: 9661 (Sadtler Research Laboratories Spectral Collection)
     * MASS: 1869 (Atlas of Mass Spectral Data, John Wiley & Sons, New
       York)

   from [9]HSDB

   Vapor Density
        9.80
   from [10]HSDB

   Vapor Pressure
        4.28X10-8 mm Hg at 25 deg C (est)
   from [11]HSDB

   Viscosity
        9.87 mPa.sec (cP) at 70 deg C
   from [12]HSDB

   Other Chemical/Physical Properties

     * White or slightly yellow crystal masses; or a white to slightly
       yellow powder. Slight tallow-like odor. Does not congeal below 54
       deg C /USP/
     * Slowly volatilizes at 90 to 100 deg C
     * White, crystalline solid; odorless or practically so; mp 33-35 deg
       C; bp 224 deg C. Ethyl stearate of commerce solidifies at 20-24 deg
       C; bp 180 deg at 4 mm Hg. Insoluble in water; soluble in alcohol or
       ether /Ethyl ester/
     * White crystals. MP 38-389 deg c; bp 215 deg C at 15 mm Hg.
       Insoluble in water, soluble in alcohol, ether /Methyl ester/
     * Henry's Law constant = 4.76X10-7 atm-cu m/mol at 25 deg C (est)
     * Hydroxyl radical reaction rate constant = 2.25X10-11 cu
       cm/molec-sec at 25 deg C (est)

   from [13]HSDB

   Computed Properties
   Molecular Weight                  284.47724 [g/mol]
   Molecular Formula                 C[18]H[36]O[2]
   XLogP3                            7.4
   H-Bond Donor                      1
   H-Bond Acceptor                   2
   Rotatable Bond Count              16
   Exact Mass                        284.27153
   MonoIsotopic Mass                 284.27153
   Topological Polar Surface Area    37.3
   Heavy Atom Count                  20
   Formal Charge                     0
   Complexity                        202
   Isotope Atom Count                0
   Defined Atom Stereocenter Count   0
   Undefined Atom Stereocenter Count 0
   Defined Bond Stereocenter Count   0
   Undefined Bond Stereocenter Count 0
   Covalently-Bonded Unit Count      1

References

   1. http://toxnet.nlm.nih.gov/cgi-bin/sis/search/r?dbs+hsdb:@term+@rn+@rel+57-11-4
   2. http://toxnet.nlm.nih.gov/cgi-bin/sis/search/r?dbs+hsdb:@term+@rn+@rel+57-11-4
   3. http://toxnet.nlm.nih.gov/cgi-bin/sis/search/r?dbs+hsdb:@term+@rn+@rel+57-11-4
   4. http://toxnet.nlm.nih.gov/cgi-bin/sis/search/r?dbs+hsdb:@term+@rn+@rel+57-11-4
   5. http://toxnet.nlm.nih.gov/cgi-bin/sis/search/r?dbs+hsdb:@term+@rn+@rel+57-11-4
   6. http://toxnet.nlm.nih.gov/cgi-bin/sis/search/r?dbs+hsdb:@term+@rn+@rel+57-11-4
   7. http://toxnet.nlm.nih.gov/cgi-bin/sis/search/r?dbs+hsdb:@term+@rn+@rel+57-11-4
   8. http://toxnet.nlm.nih.gov/cgi-bin/sis/search/r?dbs+hsdb:@term+@rn+@rel+57-11-4
   9. http://toxnet.nlm.nih.gov/cgi-bin/sis/search/r?dbs+hsdb:@term+@rn+@rel+57-11-4
  10. http://toxnet.nlm.nih.gov/cgi-bin/sis/search/r?dbs+hsdb:@term+@rn+@rel+57-11-4
  11. http://toxnet.nlm.nih.gov/cgi-bin/sis/search/r?dbs+hsdb:@term+@rn+@rel+57-11-4
  12. http://toxnet.nlm.nih.gov/cgi-bin/sis/search/r?dbs+hsdb:@term+@rn+@rel+57-11-4
  13. http://toxnet.nlm.nih.gov/cgi-bin/sis/search/r?dbs+hsdb:@term+@rn+@rel+57-11-4
