49661771
  -OEChem-06241223002D

 61 64  0     0  0  0  0  0  0999 V2000
   10.6603    0.0000    0.0000 S   0  0  0  0  0  0  0  0  0  0  0  0
    2.8660    1.5000    0.0000 F   0  0  0  0  0  0  0  0  0  0  0  0
   11.6603    0.0000    0.0000 O   0  0  0  0  0  0  0  0  0  0  0  0
    9.6602    0.0000    0.0000 O   0  0  0  0  0  0  0  0  0  0  0  0
    6.3301    1.5000    0.0000 O   0  0  0  0  0  0  0  0  0  0  0  0
    8.9282   -1.0000    0.0000 N   0  0  0  0  0  0  0  0  0  0  0  0
   10.6603    1.0000    0.0000 N   0  0  0  0  0  0  0  0  0  0  0  0
    5.4641    0.0000    0.0000 N   0  0  0  0  0  0  0  0  0  0  0  0
    9.7942   -2.5000    0.0000 N   0  0  0  0  0  0  0  0  0  0  0  0
    7.1962    0.0000    0.0000 C   0  0  0  0  0  0  0  0  0  0  0  0
    8.0622    0.5000    0.0000 C   0  0  0  0  0  0  0  0  0  0  0  0
    7.1962   -1.0000    0.0000 C   0  0  0  0  0  0  0  0  0  0  0  0
    8.9282    0.0000    0.0000 C   0  0  0  0  0  0  0  0  0  0  0  0
    8.0622   -1.5000    0.0000 C   0  0  0  0  0  0  0  0  0  0  0  0
   11.5263    1.5000    0.0000 C   0  0  0  0  0  0  0  0  0  0  0  0
    9.7942    1.5000    0.0000 C   0  0  0  0  0  0  0  0  0  0  0  0
    9.7942    2.5000    0.0000 C   0  0  0  0  0  0  0  0  0  0  0  0
   11.5263    2.5000    0.0000 C   0  0  0  0  0  0  0  0  0  0  0  0
   10.6603    3.0000    0.0000 C   0  0  0  0  0  0  0  0  0  0  0  0
    9.7942   -1.5000    0.0000 C   0  0  0  0  0  0  0  0  0  0  0  0
   10.6603   -1.0000    0.0000 C   0  0  0  0  0  0  0  0  0  0  0  0
    6.3301    0.5000    0.0000 C   0  0  0  0  0  0  0  0  0  0  0  0
   11.5263   -1.5000    0.0000 C   0  0  0  0  0  0  0  0  0  0  0  0
   11.5263   -2.5000    0.0000 C   0  0  0  0  0  0  0  0  0  0  0  0
   10.6603   -3.0000    0.0000 C   0  0  0  0  0  0  0  0  0  0  0  0
    4.5981    0.5000    0.0000 C   0  0  0  0  0  0  0  0  0  0  0  0
    3.7320    0.0000    0.0000 C   0  0  0  0  0  0  0  0  0  0  0  0
    2.8660    0.5000    0.0000 C   0  0  0  0  0  0  0  0  0  0  0  0
    3.7320   -1.0000    0.0000 C   0  0  0  0  0  0  0  0  0  0  0  0
    2.0000    0.0000    0.0000 C   0  0  0  0  0  0  0  0  0  0  0  0
    2.8660   -1.5000    0.0000 C   0  0  0  0  0  0  0  0  0  0  0  0
    2.0000   -1.0000    0.0000 C   0  0  0  0  0  0  0  0  0  0  0  0
    6.6592   -0.3100    0.0000 H   0  0  0  0  0  0  0  0  0  0  0  0
    6.5856   -0.8923    0.0000 H   0  0  0  0  0  0  0  0  0  0  0  0
    6.9841   -1.5826    0.0000 H   0  0  0  0  0  0  0  0  0  0  0  0
    8.4607    0.9749    0.0000 H   0  0  0  0  0  0  0  0  0  0  0  0
    7.6636    0.9749    0.0000 H   0  0  0  0  0  0  0  0  0  0  0  0
    7.6636   -1.9750    0.0000 H   0  0  0  0  0  0  0  0  0  0  0  0
    8.4607   -1.9750    0.0000 H   0  0  0  0  0  0  0  0  0  0  0  0
    9.5388   -0.1077    0.0000 H   0  0  0  0  0  0  0  0  0  0  0  0
    9.1403    0.5826    0.0000 H   0  0  0  0  0  0  0  0  0  0  0  0
    9.1836    1.6077    0.0000 H   0  0  0  0  0  0  0  0  0  0  0  0
    9.5822    0.9174    0.0000 H   0  0  0  0  0  0  0  0  0  0  0  0
   11.7383    0.9174    0.0000 H   0  0  0  0  0  0  0  0  0  0  0  0
   12.1369    1.6077    0.0000 H   0  0  0  0  0  0  0  0  0  0  0  0
    9.5822    3.0826    0.0000 H   0  0  0  0  0  0  0  0  0  0  0  0
    9.1836    2.3923    0.0000 H   0  0  0  0  0  0  0  0  0  0  0  0
   12.1369    2.3923    0.0000 H   0  0  0  0  0  0  0  0  0  0  0  0
   11.7383    3.0826    0.0000 H   0  0  0  0  0  0  0  0  0  0  0  0
   11.0588    3.4750    0.0000 H   0  0  0  0  0  0  0  0  0  0  0  0
   10.2617    3.4750    0.0000 H   0  0  0  0  0  0  0  0  0  0  0  0
   12.0632   -1.1900    0.0000 H   0  0  0  0  0  0  0  0  0  0  0  0
    5.4641   -0.6200    0.0000 H   0  0  0  0  0  0  0  0  0  0  0  0
   12.0632   -2.8100    0.0000 H   0  0  0  0  0  0  0  0  0  0  0  0
   10.6603   -3.6200    0.0000 H   0  0  0  0  0  0  0  0  0  0  0  0
    4.9966    0.9749    0.0000 H   0  0  0  0  0  0  0  0  0  0  0  0
    4.1996    0.9749    0.0000 H   0  0  0  0  0  0  0  0  0  0  0  0
    4.2690   -1.3100    0.0000 H   0  0  0  0  0  0  0  0  0  0  0  0
    1.4631    0.3100    0.0000 H   0  0  0  0  0  0  0  0  0  0  0  0
    2.8660   -2.1200    0.0000 H   0  0  0  0  0  0  0  0  0  0  0  0
    1.4631   -1.3100    0.0000 H   0  0  0  0  0  0  0  0  0  0  0  0
  1  3  2  0  0  0  0
  1  4  2  0  0  0  0
  1  7  1  0  0  0  0
  1 21  1  0  0  0  0
  2 28  1  0  0  0  0
  5 22  2  0  0  0  0
  6 13  1  0  0  0  0
  6 14  1  0  0  0  0
  6 20  1  0  0  0  0
  7 15  1  0  0  0  0
  7 16  1  0  0  0  0
  8 22  1  0  0  0  0
  8 26  1  0  0  0  0
  8 53  1  0  0  0  0
  9 20  1  0  0  0  0
  9 25  2  0  0  0  0
 10 11  1  0  0  0  0
 10 12  1  0  0  0  0
 10 22  1  0  0  0  0
 10 33  1  0  0  0  0
 11 13  1  0  0  0  0
 11 36  1  0  0  0  0
 11 37  1  0  0  0  0
 12 14  1  0  0  0  0
 12 34  1  0  0  0  0
 12 35  1  0  0  0  0
 13 40  1  0  0  0  0
 13 41  1  0  0  0  0
 14 38  1  0  0  0  0
 14 39  1  0  0  0  0
 15 18  1  0  0  0  0
 15 44  1  0  0  0  0
 15 45  1  0  0  0  0
 16 17  1  0  0  0  0
 16 42  1  0  0  0  0
 16 43  1  0  0  0  0
 17 19  1  0  0  0  0
 17 46  1  0  0  0  0
 17 47  1  0  0  0  0
 18 19  1  0  0  0  0
 18 48  1  0  0  0  0
 18 49  1  0  0  0  0
 19 50  1  0  0  0  0
 19 51  1  0  0  0  0
 20 21  2  0  0  0  0
 21 23  1  0  0  0  0
 23 24  2  0  0  0  0
 23 52  1  0  0  0  0
 24 25  1  0  0  0  0
 24 54  1  0  0  0  0
 25 55  1  0  0  0  0
 26 27  1  0  0  0  0
 26 56  1  0  0  0  0
 26 57  1  0  0  0  0
 27 28  1  0  0  0  0
 27 29  2  0  0  0  0
 28 30  2  0  0  0  0
 29 31  1  0  0  0  0
 29 58  1  0  0  0  0
 30 32  1  0  0  0  0
 30 59  1  0  0  0  0
 31 32  2  0  0  0  0
 31 60  1  0  0  0  0
 32 61  1  0  0  0  0
M  END
> <PUBCHEM_COMPOUND_CID>
49661771

> <PUBCHEM_COMPOUND_CANONICALIZED>
1

> <PUBCHEM_CACTVS_COMPLEXITY>
717

> <PUBCHEM_CACTVS_HBOND_ACCEPTOR>
7

> <PUBCHEM_CACTVS_HBOND_DONOR>
1

> <PUBCHEM_CACTVS_ROTATABLE_BOND>
6

> <PUBCHEM_CACTVS_SUBSKEYS>
AAADceB7sQBAAAAAAAAAAAAAAAAAAAAAAAA8WLEAAAAAAAABwAAAHwQQQAAADQDB2gw9sZPIEAKoAjN3dHDCgDkxAiAJ2L04ZJiIIPLAmZGEIAholgLIyCcUgAAOAAAAAAAAAAAAAAAAAAAAAAAAAAAAAA==

> <PUBCHEM_IUPAC_OPENEYE_NAME>
N-[(2-fluorophenyl)methyl]-1-[3-(1-piperidylsulfonyl)-2-pyridyl]piperidine-4-carboxamide

> <PUBCHEM_IUPAC_CAS_NAME>
N-[(2-fluorophenyl)methyl]-1-[3-(1-piperidinylsulfonyl)-2-pyridinyl]-4-piperidinecarboxamide

> <PUBCHEM_IUPAC_NAME>
N-[(2-fluorophenyl)methyl]-1-(3-piperidin-1-ylsulfonylpyridin-2-yl)piperidine-4-carboxamide

> <PUBCHEM_IUPAC_SYSTEMATIC_NAME>
N-[(2-fluorophenyl)methyl]-1-(3-piperidin-1-ylsulfonylpyridin-2-yl)piperidine-4-carboxamide

> <PUBCHEM_IUPAC_TRADITIONAL_NAME>
N-(2-fluorobenzyl)-1-(3-piperidinosulfonyl-2-pyridyl)isonipecotamide

> <PUBCHEM_IUPAC_INCHI>
InChI=1S/C23H29FN4O3S/c24-20-8-3-2-7-19(20)17-26-23(29)18-10-15-27(16-11-18)22-21(9-6-12-25-22)32(30,31)28-13-4-1-5-14-28/h2-3,6-9,12,18H,1,4-5,10-11,13-17H2,(H,26,29)

> <PUBCHEM_IUPAC_INCHIKEY>
GWRXXEXQKPLHLA-UHFFFAOYSA-N

> <PUBCHEM_XLOGP3_AA>
2.7

> <PUBCHEM_EXACT_MASS>
460.19444

> <PUBCHEM_MOLECULAR_FORMULA>
C23H29FN4O3S

> <PUBCHEM_MOLECULAR_WEIGHT>
460.564763

> <PUBCHEM_OPENEYE_CAN_SMILES>
C1CCN(CC1)S(=O)(=O)C2=C(N=CC=C2)N3CCC(CC3)C(=O)NCC4=CC=CC=C4F

> <PUBCHEM_OPENEYE_ISO_SMILES>
C1CCN(CC1)S(=O)(=O)C2=C(N=CC=C2)N3CCC(CC3)C(=O)NCC4=CC=CC=C4F

> <PUBCHEM_CACTVS_TPSA>
91

> <PUBCHEM_MONOISOTOPIC_WEIGHT>
460.19444

> <PUBCHEM_TOTAL_CHARGE>
0

> <PUBCHEM_HEAVY_ATOM_COUNT>
32

> <PUBCHEM_ATOM_DEF_STEREO_COUNT>
0

> <PUBCHEM_ATOM_UDEF_STEREO_COUNT>
0

> <PUBCHEM_BOND_DEF_STEREO_COUNT>
0

> <PUBCHEM_BOND_UDEF_STEREO_COUNT>
0

> <PUBCHEM_ISOTOPIC_ATOM_COUNT>
0

> <PUBCHEM_COMPONENT_COUNT>
1

> <PUBCHEM_CACTVS_TAUTO_COUNT>
2

> <PUBCHEM_COORDINATE_TYPE>
1
5
255

> <PUBCHEM_BONDANNOTATIONS>
20  21  8
21  23  8
23  24  8
24  25  8
27  28  8
27  29  8
28  30  8
29  31  8
30  32  8
31  32  8
9  20  8
9  25  8

$$$$

