   Color/Form
        COLORLESS CRYSTALS
   from [1]HSDB

   Odor
        ODORLESS
   from [2]HSDB

   Melting Point
        138 DEG C (PURE)
   from [3]HSDB

   Corrosivity
        Noncorrosive
   from [4]HSDB

   Solubilities

     * SOLUBILITY @ 20 DEG C: 1.1 G/L WATER, 67 G/KG ACETONE, 55 G/KG
       BENZENE, 500 G/KG METHANOL
     * In water at 20 deg C, 0.11%. In acetone 6.7%, benzene 5.5%,
       methanol 50%, ethyl acetate 4.4 g/100g, diethyl ether 1.6g/100g
       (all at 20 deg C).
     * In water 1.2X10+3 mg/l at 20 deg C

   from [5]HSDB

   Vapor Pressure
        1X10-7 MM HG @ 20 DEG C
   from [6]HSDB

   Other Chemical/Physical Properties

     * MP: 134-138 deg C /Technical/
     * The ureas form salts with strong acids. /Urea herbicides/

   from [7]HSDB

   Computed Properties
   Molecular Weight                  198.30518 [g/mol]
   Molecular Formula                 C[11]H[22]N[2]O
   XLogP3-AA                         2.4
   H-Bond Donor                      1
   H-Bond Acceptor                   1
   Rotatable Bond Count              1
   Tautomer Count                    2
   Exact Mass                        198.173213
   MonoIsotopic Mass                 198.173213
   Topological Polar Surface Area    32.3
   Heavy Atom Count                  14
   Formal Charge                     0
   Complexity                        172
   Isotope Atom Count                0
   Defined Atom Stereocenter Count   0
   Undefined Atom Stereocenter Count 0
   Defined Bond Stereocenter Count   0
   Undefined Bond Stereocenter Count 0
   Covalently-Bonded Unit Count      1
   Feature 3D Acceptor Count         1
   Feature 3D Donor Count            1
   Effective Rotor Count             4.6
   Conformer Sampling RMSD           0.6
   CID Conformer Count               [8]31

References

   1. http://toxnet.nlm.nih.gov/cgi-bin/sis/search/r?dbs+hsdb:@term+@rn+@rel+2163-69-1
   2. http://toxnet.nlm.nih.gov/cgi-bin/sis/search/r?dbs+hsdb:@term+@rn+@rel+2163-69-1
   3. http://toxnet.nlm.nih.gov/cgi-bin/sis/search/r?dbs+hsdb:@term+@rn+@rel+2163-69-1
   4. http://toxnet.nlm.nih.gov/cgi-bin/sis/search/r?dbs+hsdb:@term+@rn+@rel+2163-69-1
   5. http://toxnet.nlm.nih.gov/cgi-bin/sis/search/r?dbs+hsdb:@term+@rn+@rel+2163-69-1
   6. http://toxnet.nlm.nih.gov/cgi-bin/sis/search/r?dbs+hsdb:@term+@rn+@rel+2163-69-1
   7. http://toxnet.nlm.nih.gov/cgi-bin/sis/search/r?dbs+hsdb:@term+@rn+@rel+2163-69-1
   8. http://pubchem.ncbi.nlm.nih.gov/vw3d/vw3d.cgi?cid=16554
