   Color/Form
        Slightly yellow, oily liquid
   from [1]HSDB

   Odor

     * SWEETISH
     * Butyl-like

   from [2]HSDB

   Boiling Point
        215-228 deg C @ 4 mm Hg
   from [3]HSDB

   Melting Point
        -70 deg C
   from [4]HSDB

   Density/Specific Gravity
        1.020 @ 20 deg C
   from [5]HSDB

   Octanol/Water Partition Coefficient
        low Kow = 3.75
   from [6]HSDB

   Solubilities

     * SOL IN MINERAL OILS & MOST ORG LIQ
     * Insoluble or limited solubility in glycerol, glycols, certain
       amines
     * In water, 1,100 mg/l @ 25 deg C

   from [7]HSDB

   Spectral Properties
        Index of refraction: 1.434 @ 25 deg C
   from [8]HSDB

   Vapor Density
        13.8 (Air= 1)
   from [9]HSDB

   Other Chemical/Physical Properties
        VP: 0.03 mm Hg @ 150 deg C
   from [10]HSDB

   Computed Properties
   Molecular Weight                  398.471822 [g/mol]
   Molecular Formula                 C[18]H[39]O[7]P
   XLogP3-AA                         2.8
   H-Bond Donor                      0
   H-Bond Acceptor                   7
   Rotatable Bond Count              21
   Exact Mass                        398.24334
   MonoIsotopic Mass                 398.24334
   Topological Polar Surface Area    72.4
   Heavy Atom Count                  26
   Formal Charge                     0
   Complexity                        281
   Isotope Atom Count                0
   Defined Atom Stereocenter Count   0
   Undefined Atom Stereocenter Count 0
   Defined Bond Stereocenter Count   0
   Undefined Bond Stereocenter Count 0
   Covalently-Bonded Unit Count      1

References

   1. http://toxnet.nlm.nih.gov/cgi-bin/sis/search/r?dbs+hsdb:@term+@rn+@rel+78-51-3
   2. http://toxnet.nlm.nih.gov/cgi-bin/sis/search/r?dbs+hsdb:@term+@rn+@rel+78-51-3
   3. http://toxnet.nlm.nih.gov/cgi-bin/sis/search/r?dbs+hsdb:@term+@rn+@rel+78-51-3
   4. http://toxnet.nlm.nih.gov/cgi-bin/sis/search/r?dbs+hsdb:@term+@rn+@rel+78-51-3
   5. http://toxnet.nlm.nih.gov/cgi-bin/sis/search/r?dbs+hsdb:@term+@rn+@rel+78-51-3
   6. http://toxnet.nlm.nih.gov/cgi-bin/sis/search/r?dbs+hsdb:@term+@rn+@rel+78-51-3
   7. http://toxnet.nlm.nih.gov/cgi-bin/sis/search/r?dbs+hsdb:@term+@rn+@rel+78-51-3
   8. http://toxnet.nlm.nih.gov/cgi-bin/sis/search/r?dbs+hsdb:@term+@rn+@rel+78-51-3
   9. http://toxnet.nlm.nih.gov/cgi-bin/sis/search/r?dbs+hsdb:@term+@rn+@rel+78-51-3
  10. http://toxnet.nlm.nih.gov/cgi-bin/sis/search/r?dbs+hsdb:@term+@rn+@rel+78-51-3
