5281311
  -OEChem-07051212562D

 72 76  0     1  0  0  0  0  0999 V2000
    6.6548    2.4269    0.0000 O   0  0  0  0  0  0  0  0  0  0  0  0
    5.4862   -0.4388    0.0000 O   0  0  0  0  0  0  0  0  0  0  0  0
    7.7342    3.4965    0.0000 O   0  0  0  0  0  0  0  0  0  0  0  0
    7.2944   -1.4199    0.0000 O   0  0  0  0  0  0  0  0  0  0  0  0
    6.3682    4.1304    0.0000 O   0  0  0  0  0  0  0  0  0  0  0  0
    3.7319    1.6336    0.0000 O   0  0  0  0  0  0  0  0  0  0  0  0
    9.0185    2.7154    0.0000 O   0  0  0  0  0  0  0  0  0  0  0  0
    3.7161   -0.4147    0.0000 O   0  0  0  0  0  0  0  0  0  0  0  0
   10.8533    1.7312    0.0000 O   0  0  0  0  0  0  0  0  0  0  0  0
    5.5625   -1.4407    0.0000 O   0  0  0  0  0  0  0  0  0  0  0  0
    2.8486    0.1437    0.0000 O   0  0  0  0  0  0  0  0  0  0  0  0
    6.3682    1.1304    0.0000 C   0  0  2  0  0  0  0  0  0  0  0  0
    7.2342    1.6304    0.0000 C   0  0  1  0  0  0  0  0  0  0  0  0
    8.1440    1.1424    0.0000 C   0  0  2  0  0  0  0  0  0  0  0  0
    5.5021    1.6304    0.0000 C   0  0  2  0  0  0  0  0  0  0  0  0
    7.2342    2.6304    0.0000 C   0  0  2  0  0  0  0  0  0  0  0  0
    6.3842    0.0889    0.0000 C   0  0  1  0  0  0  0  0  0  0  0  0
    8.1683    0.1103    0.0000 C   0  0  1  0  0  0  0  0  0  0  0  0
    6.2547    1.7340    0.0000 C   0  0  0  0  0  0  0  0  0  0  0  0
    5.5021    2.6304    0.0000 C   0  0  2  0  0  0  0  0  0  0  0  0
    7.2825   -0.4200    0.0000 C   0  0  1  0  0  0  0  0  0  0  0  0
    6.3682    3.1304    0.0000 C   0  0  1  0  0  0  0  0  0  0  0  0
    4.5921    1.1236    0.0000 C   0  0  2  0  0  0  0  0  0  0  0  0
    9.0536    1.7160    0.0000 C   0  0  1  0  0  0  0  0  0  0  0  0
    8.1204    2.1422    0.0000 C   0  0  0  0  0  0  0  0  0  0  0  0
    9.1039   -0.4198    0.0000 C   0  0  0  0  0  0  0  0  0  0  0  0
    4.6361    3.1304    0.0000 C   0  0  0  0  0  0  0  0  0  0  0  0
    4.5841    0.0820    0.0000 C   0  0  0  0  0  0  0  0  0  0  0  0
   10.0013    1.2077    0.0000 C   0  0  0  0  0  0  0  0  0  0  0  0
   10.0266    0.1326    0.0000 C   0  0  0  0  0  0  0  0  0  0  0  0
    9.1159   -1.4197    0.0000 C   0  0  0  0  0  0  0  0  0  0  0  0
    6.4345   -1.9302    0.0000 C   0  0  0  0  0  0  0  0  0  0  0  0
    2.8602    1.1436    0.0000 C   0  0  0  0  0  0  0  0  0  0  0  0
    6.4464   -2.9302    0.0000 C   0  0  0  0  0  0  0  0  0  0  0  0
    2.0000    1.6536    0.0000 C   0  0  0  0  0  0  0  0  0  0  0  0
    7.3184   -3.4198    0.0000 C   0  0  0  0  0  0  0  0  0  0  0  0
    5.5865   -3.4405    0.0000 C   0  0  0  0  0  0  0  0  0  0  0  0
    5.5985   -4.4404    0.0000 C   0  0  0  0  0  0  0  0  0  0  0  0
    7.6592    0.8943    0.0000 H   0  0  0  0  0  0  0  0  0  0  0  0
    4.7660    2.0554    0.0000 H   0  0  0  0  0  0  0  0  0  0  0  0
    6.3909   -0.7610    0.0000 H   0  0  0  0  0  0  0  0  0  0  0  0
    8.1784   -0.7396    0.0000 H   0  0  0  0  0  0  0  0  0  0  0  0
    5.8276    2.1834    0.0000 H   0  0  0  0  0  0  0  0  0  0  0  0
    5.7028    1.4517    0.0000 H   0  0  0  0  0  0  0  0  0  0  0  0
    5.5021    3.2504    0.0000 H   0  0  0  0  0  0  0  0  0  0  0  0
    6.7487   -0.7354    0.0000 H   0  0  0  0  0  0  0  0  0  0  0  0
    6.9051    3.4404    0.0000 H   0  0  0  0  0  0  0  0  0  0  0  0
    4.0522    0.8188    0.0000 H   0  0  0  0  0  0  0  0  0  0  0  0
    9.5800    2.0436    0.0000 H   0  0  0  0  0  0  0  0  0  0  0  0
    8.7402    2.1568    0.0000 H   0  0  0  0  0  0  0  0  0  0  0  0
    8.1058    2.7620    0.0000 H   0  0  0  0  0  0  0  0  0  0  0  0
    7.5006    2.1276    0.0000 H   0  0  0  0  0  0  0  0  0  0  0  0
    4.9461    3.6674    0.0000 H   0  0  0  0  0  0  0  0  0  0  0  0
    4.0992    3.4404    0.0000 H   0  0  0  0  0  0  0  0  0  0  0  0
    4.3261    2.5935    0.0000 H   0  0  0  0  0  0  0  0  0  0  0  0
    7.4242    4.0334    0.0000 H   0  0  0  0  0  0  0  0  0  0  0  0
   10.5695   -0.1668    0.0000 H   0  0  0  0  0  0  0  0  0  0  0  0
    5.8312    4.4404    0.0000 H   0  0  0  0  0  0  0  0  0  0  0  0
    9.5442    3.0440    0.0000 H   0  0  0  0  0  0  0  0  0  0  0  0
    8.4959   -1.4271    0.0000 H   0  0  0  0  0  0  0  0  0  0  0  0
    9.1233   -2.0397    0.0000 H   0  0  0  0  0  0  0  0  0  0  0  0
    9.7358   -1.4123    0.0000 H   0  0  0  0  0  0  0  0  0  0  0  0
    2.3162    2.1869    0.0000 H   0  0  0  0  0  0  0  0  0  0  0  0
    1.4667    1.9698    0.0000 H   0  0  0  0  0  0  0  0  0  0  0  0
    1.6838    1.1203    0.0000 H   0  0  0  0  0  0  0  0  0  0  0  0
    7.0149   -3.9604    0.0000 H   0  0  0  0  0  0  0  0  0  0  0  0
    7.8590   -3.7233    0.0000 H   0  0  0  0  0  0  0  0  0  0  0  0
    7.6220   -2.8792    0.0000 H   0  0  0  0  0  0  0  0  0  0  0  0
    5.0459   -3.1370    0.0000 H   0  0  0  0  0  0  0  0  0  0  0  0
    4.9785   -4.4479    0.0000 H   0  0  0  0  0  0  0  0  0  0  0  0
    5.6059   -5.0604    0.0000 H   0  0  0  0  0  0  0  0  0  0  0  0
    6.2184   -4.4330    0.0000 H   0  0  0  0  0  0  0  0  0  0  0  0
  1 16  1  0  0  0  0
  1 19  1  0  0  0  0
  2 17  1  0  0  0  0
  2 28  1  0  0  0  0
 16  3  1  6  0  0  0
  3 56  1  0  0  0  0
 21  4  1  1  0  0  0
  4 32  1  0  0  0  0
 22  5  1  1  0  0  0
  5 58  1  0  0  0  0
 23  6  1  6  0  0  0
  6 33  1  0  0  0  0
 24  7  1  6  0  0  0
  7 59  1  0  0  0  0
  8 28  2  0  0  0  0
  9 29  2  0  0  0  0
 10 32  2  0  0  0  0
 11 33  2  0  0  0  0
 12 13  1  0  0  0  0
 12 15  1  0  0  0  0
 12 17  1  0  0  0  0
 12 19  1  6  0  0  0
 13 14  1  0  0  0  0
 13 16  1  0  0  0  0
 13 39  1  1  0  0  0
 14 18  1  0  0  0  0
 14 24  1  0  0  0  0
 14 25  1  6  0  0  0
 15 20  1  0  0  0  0
 15 23  1  0  0  0  0
 15 40  1  6  0  0  0
 16 22  1  0  0  0  0
 17 21  1  0  0  0  0
 17 41  1  6  0  0  0
 18 21  1  0  0  0  0
 18 26  1  0  0  0  0
 18 42  1  1  0  0  0
 19 43  1  0  0  0  0
 19 44  1  0  0  0  0
 20 22  1  0  0  0  0
 20 27  1  1  0  0  0
 20 45  1  0  0  0  0
 21 46  1  0  0  0  0
 22 47  1  0  0  0  0
 23 28  1  0  0  0  0
 23 48  1  0  0  0  0
 24 29  1  0  0  0  0
 24 49  1  0  0  0  0
 25 50  1  0  0  0  0
 25 51  1  0  0  0  0
 25 52  1  0  0  0  0
 26 30  2  0  0  0  0
 26 31  1  0  0  0  0
 27 53  1  0  0  0  0
 27 54  1  0  0  0  0
 27 55  1  0  0  0  0
 29 30  1  0  0  0  0
 30 57  1  0  0  0  0
 31 60  1  0  0  0  0
 31 61  1  0  0  0  0
 31 62  1  0  0  0  0
 32 34  1  0  0  0  0
 33 35  1  0  0  0  0
 34 36  1  0  0  0  0
 34 37  2  0  0  0  0
 35 63  1  0  0  0  0
 35 64  1  0  0  0  0
 35 65  1  0  0  0  0
 36 66  1  0  0  0  0
 36 67  1  0  0  0  0
 36 68  1  0  0  0  0
 37 38  1  0  0  0  0
 37 69  1  0  0  0  0
 38 70  1  0  0  0  0
 38 71  1  0  0  0  0
 38 72  1  0  0  0  0
M  END
> <PUBCHEM_COMPOUND_CID>
5281311

> <PUBCHEM_COMPOUND_CANONICALIZED>
1

> <PUBCHEM_CACTVS_COMPLEXITY>
1170

> <PUBCHEM_CACTVS_HBOND_ACCEPTOR>
11

> <PUBCHEM_CACTVS_HBOND_DONOR>
3

> <PUBCHEM_CACTVS_ROTATABLE_BOND>
5

> <PUBCHEM_CACTVS_SUBSKEYS>
AAADcfB4PAAAAAAAAAAAAAAAAAAAASAAAAA0YIEABIAAAEiQAAAAGgAACAAADxSggAICCAAABgCIAqDSCAIAAAAgAAAACAFAAEgRFBIAIQQCUAAFwAAPIYPI7PzPgAAAAAAAAADAAAYAADCAAAAAAAAAAA==

> <PUBCHEM_IUPAC_INCHI>
InChI=1S/C27H34O11/c1-7-10(2)22(32)37-17-15-11(3)8-14(29)20(31)25(15,6)24-26-9-35-27(24,34)19(30)12(4)16(26)18(36-13(5)28)23(33)38-21(17)26/h7-8,12,15-21,24,30-31,34H,9H2,1-6H3/b10-7+/t12-,15-,16-,17-,18-,19-,20-,21-,24-,25-,26-,27+/m1/s1

> <PUBCHEM_IUPAC_INCHIKEY>
VKCVPDRXEYKUOZ-ZZWVBLAUSA-N

> <PUBCHEM_XLOGP3_AA>
0.5

> <PUBCHEM_EXACT_MASS>
534.210112

> <PUBCHEM_MOLECULAR_FORMULA>
C27H34O11

> <PUBCHEM_MOLECULAR_WEIGHT>
534.55226

> <PUBCHEM_OPENEYE_CAN_SMILES>
CC=C(C)C(=O)OC1C2C(=CC(=O)C(C2(C3C45C1OC(=O)C(C4C(C(C3(OC5)O)O)C)OC(=O)C)C)O)C

> <PUBCHEM_OPENEYE_ISO_SMILES>
C/C=C(\C)/C(=O)O[C@@H]1[C@H]2C(=CC(=O)[C@H]([C@@]2([C@@H]3[C@@]45[C@@H]1OC(=O)[C@@H]([C@H]4[C@H]([C@H]([C@@]3(OC5)O)O)C)OC(=O)C)C)O)C

> <PUBCHEM_CACTVS_TPSA>
166

> <PUBCHEM_MONOISOTOPIC_WEIGHT>
534.210112

> <PUBCHEM_TOTAL_CHARGE>
0

> <PUBCHEM_HEAVY_ATOM_COUNT>
38

> <PUBCHEM_ATOM_DEF_STEREO_COUNT>
12

> <PUBCHEM_ATOM_UDEF_STEREO_COUNT>
0

> <PUBCHEM_BOND_DEF_STEREO_COUNT>
1

> <PUBCHEM_BOND_UDEF_STEREO_COUNT>
0

> <PUBCHEM_ISOTOPIC_ATOM_COUNT>
0

> <PUBCHEM_COMPONENT_COUNT>
1

> <PUBCHEM_CACTVS_TAUTO_COUNT>
26

> <PUBCHEM_COORDINATE_TYPE>
1
5
255

> <PUBCHEM_BONDANNOTATIONS>
12  19  6
13  39  5
14  25  6
15  40  6
17  41  6
18  42  5
20  27  5
16  3  6
21  4  5
22  5  5
23  6  6
24  7  6

$$$$

