6451142
  -OEChem-07051213122D

 36 38  0     1  0  0  0  0  0999 V2000
    6.7709    0.6177    0.0000 Cl  0  0  0  0  0  0  0  0  0  0  0  0
    2.4408   -0.8823    0.0000 Cl  0  0  0  0  0  0  0  0  0  0  0  0
    3.2601   -0.2764    0.0000 S   0  0  0  0  0  0  0  0  0  0  0  0
    5.5388   -0.2484    0.0000 O   0  0  0  0  0  0  0  0  0  0  0  0
    3.5388    1.4837    0.0000 N   0  0  0  0  0  0  0  0  0  0  0  0
    2.9511    2.2927    0.0000 N   0  0  0  0  0  0  0  0  0  0  0  0
    2.0000    0.9837    0.0000 N   0  0  0  0  0  0  0  0  0  0  0  0
    5.9049    1.1176    0.0000 C   0  0  0  0  0  0  0  0  0  0  0  0
    5.4049    1.9837    0.0000 C   0  0  0  0  0  0  0  0  0  0  0  0
    6.4049    1.9837    0.0000 C   0  0  0  0  0  0  0  0  0  0  0  0
    5.0388    0.6177    0.0000 C   0  0  3  0  0  0  0  0  0  0  0  0
    4.5388    1.4837    0.0000 C   0  0  0  0  0  0  0  0  0  0  0  0
    4.1728    0.1177    0.0000 C   0  0  0  0  0  0  0  0  0  0  0  0
    4.1728   -0.8823    0.0000 C   0  0  0  0  0  0  0  0  0  0  0  0
    3.3068   -1.3824    0.0000 C   0  0  0  0  0  0  0  0  0  0  0  0
    5.0388   -1.3824    0.0000 C   0  0  0  0  0  0  0  0  0  0  0  0
    2.9511    0.6747    0.0000 C   0  0  0  0  0  0  0  0  0  0  0  0
    2.0000    1.9837    0.0000 C   0  0  0  0  0  0  0  0  0  0  0  0
    3.3068   -2.3824    0.0000 C   0  0  0  0  0  0  0  0  0  0  0  0
    5.0388   -2.3824    0.0000 C   0  0  0  0  0  0  0  0  0  0  0  0
    4.1728   -2.8824    0.0000 C   0  0  0  0  0  0  0  0  0  0  0  0
    5.2972    2.5943    0.0000 H   0  0  0  0  0  0  0  0  0  0  0  0
    4.8223    1.7716    0.0000 H   0  0  0  0  0  0  0  0  0  0  0  0
    6.9875    1.7716    0.0000 H   0  0  0  0  0  0  0  0  0  0  0  0
    6.5125    2.5943    0.0000 H   0  0  0  0  0  0  0  0  0  0  0  0
    5.1214    1.6957    0.0000 H   0  0  0  0  0  0  0  0  0  0  0  0
    4.4312    2.0943    0.0000 H   0  0  0  0  0  0  0  0  0  0  0  0
    3.9608    0.7003    0.0000 H   0  0  0  0  0  0  0  0  0  0  0  0
    3.5622    0.0100    0.0000 H   0  0  0  0  0  0  0  0  0  0  0  0
    6.1588   -0.2484    0.0000 H   0  0  0  0  0  0  0  0  0  0  0  0
    3.1426    2.8824    0.0000 H   0  0  0  0  0  0  0  0  0  0  0  0
    5.5758   -1.0724    0.0000 H   0  0  0  0  0  0  0  0  0  0  0  0
    1.4984    2.3481    0.0000 H   0  0  0  0  0  0  0  0  0  0  0  0
    2.7699   -2.6923    0.0000 H   0  0  0  0  0  0  0  0  0  0  0  0
    5.5758   -2.6923    0.0000 H   0  0  0  0  0  0  0  0  0  0  0  0
    4.1728   -3.5024    0.0000 H   0  0  0  0  0  0  0  0  0  0  0  0
  1  8  1  0  0  0  0
  2 15  1  0  0  0  0
  3 17  2  0  0  0  0
  4 11  1  0  0  0  0
  4 30  1  0  0  0  0
  5  6  1  0  0  0  0
  5 12  1  0  0  0  0
  5 17  1  0  0  0  0
  6 18  1  0  0  0  0
  6 31  1  0  0  0  0
  7 17  1  0  0  0  0
  7 18  2  0  0  0  0
  8  9  1  0  0  0  0
  8 10  1  0  0  0  0
  8 11  1  0  0  0  0
  9 10  1  0  0  0  0
  9 22  1  0  0  0  0
  9 23  1  0  0  0  0
 10 24  1  0  0  0  0
 10 25  1  0  0  0  0
 11 12  1  0  0  0  0
 11 13  1  0  0  0  0
 12 26  1  0  0  0  0
 12 27  1  0  0  0  0
 13 14  1  0  0  0  0
 13 28  1  0  0  0  0
 13 29  1  0  0  0  0
 14 15  1  0  0  0  0
 14 16  2  0  0  0  0
 15 19  2  0  0  0  0
 16 20  1  0  0  0  0
 16 32  1  0  0  0  0
 18 33  1  0  0  0  0
 19 21  1  0  0  0  0
 19 34  1  0  0  0  0
 20 21  2  0  0  0  0
 20 35  1  0  0  0  0
 21 36  1  0  0  0  0
M  END
> <PUBCHEM_COMPOUND_CID>
6451142

> <PUBCHEM_COMPOUND_CANONICALIZED>
1

> <PUBCHEM_CACTVS_COMPLEXITY>
458

> <PUBCHEM_CACTVS_HBOND_ACCEPTOR>
2

> <PUBCHEM_CACTVS_HBOND_DONOR>
2

> <PUBCHEM_CACTVS_ROTATABLE_BOND>
5

> <PUBCHEM_CACTVS_SUBSKEYS>
AAADccBzIABGAAAAAAAAAAAAGAAAAQAAAAAwAAAAAAAAAAABAAAAHgYYCAAADEbBmCQxAIJiAgCkAiBDJAACAAEgBQgcqIAIA4iKICKBkxCEYAAkwAMYiAeQwOAOgAAAAAABAAAAAAAAAAIAAAAAAAAAAA==

> <PUBCHEM_IUPAC_OPENEYE_NAME>
2-[2-(1-chlorocyclopropyl)-3-(2-chlorophenyl)-2-hydroxy-propyl]-1H-1,2,4-triazole-3-thione

> <PUBCHEM_IUPAC_CAS_NAME>
2-[2-(1-chlorocyclopropyl)-3-(2-chlorophenyl)-2-hydroxypropyl]-1H-1,2,4-triazole-3-thione

> <PUBCHEM_IUPAC_NAME>
2-[2-(1-chlorocyclopropyl)-3-(2-chlorophenyl)-2-hydroxypropyl]-1H-1,2,4-triazole-3-thione

> <PUBCHEM_IUPAC_SYSTEMATIC_NAME>
2-[2-(1-chloranylcyclopropyl)-3-(2-chlorophenyl)-2-oxidanyl-propyl]-1H-1,2,4-triazole-3-thione

> <PUBCHEM_IUPAC_TRADITIONAL_NAME>
2-[2-(1-chlorocyclopropyl)-3-(2-chlorophenyl)-2-hydroxy-propyl]-1H-1,2,4-triazole-3-thione

> <PUBCHEM_IUPAC_INCHI>
InChI=1S/C14H15Cl2N3OS/c15-11-4-2-1-3-10(11)7-14(20,13(16)5-6-13)8-19-12(21)17-9-18-19/h1-4,9,20H,5-8H2,(H,17,18,21)

> <PUBCHEM_IUPAC_INCHIKEY>
MNHVNIJQQRJYDH-UHFFFAOYSA-N

> <PUBCHEM_XLOGP3_AA>
2.7

> <PUBCHEM_EXACT_MASS>
343.031288

> <PUBCHEM_MOLECULAR_FORMULA>
C14H15Cl2N3OS

> <PUBCHEM_MOLECULAR_WEIGHT>
344.2594

> <PUBCHEM_OPENEYE_CAN_SMILES>
C1CC1(C(CC2=CC=CC=C2Cl)(CN3C(=S)N=CN3)O)Cl

> <PUBCHEM_OPENEYE_ISO_SMILES>
C1CC1(C(CC2=CC=CC=C2Cl)(CN3C(=S)N=CN3)O)Cl

> <PUBCHEM_CACTVS_TPSA>
80

> <PUBCHEM_MONOISOTOPIC_WEIGHT>
343.031288

> <PUBCHEM_TOTAL_CHARGE>
0

> <PUBCHEM_HEAVY_ATOM_COUNT>
21

> <PUBCHEM_ATOM_DEF_STEREO_COUNT>
0

> <PUBCHEM_ATOM_UDEF_STEREO_COUNT>
1

> <PUBCHEM_BOND_DEF_STEREO_COUNT>
0

> <PUBCHEM_BOND_UDEF_STEREO_COUNT>
0

> <PUBCHEM_ISOTOPIC_ATOM_COUNT>
0

> <PUBCHEM_COMPONENT_COUNT>
1

> <PUBCHEM_CACTVS_TAUTO_COUNT>
3

> <PUBCHEM_COORDINATE_TYPE>
1
5
255

> <PUBCHEM_BONDANNOTATIONS>
14  15  8
14  16  8
15  19  8
16  20  8
19  21  8
20  21  8
11  4  3
5  17  8
5  6  8
6  18  8
7  17  8
7  18  8

$$$$

