   Color/Form
        Colorless plates
   from [1]HSDB

   Melting Point
        228 deg C
   from [2]HSDB

   Octanol/Water Partition Coefficient
        log Kow = -0.78 @ 25 deg C /Estimated/
   from [3]HSDB

   Solubilities

     * Sol in chloroform; sparingly sol in ethanol, water and ether
     * In water, 1.5X10+5 mg/L @ 25 deg C /Estimated/

   from [4]HSDB

   Spectral Properties
        Specific optical rotation (chloroform): -40 deg at 20 deg C/D
   from [5]HSDB

   Vapor Pressure
        9.3X10-13 mm Hg @ 25 deg C /Estimated/
   from [6]HSDB

   Other Chemical/Physical Properties

     * READILY HYDROLYZED WITH ALKALI; REACTS WITH HYDROCHLORIC ACID TO
       FORM THE CHLORHYDRIN, JACONINE
     * Henry's Law constant = 5.6X10-13 atm-cu m/mol @ 25 deg C
       /Estimated/
     * Hydroxyl radical reaction rate constant = 1.3X10-10 cu cm/molec-sec
       @ 25 deg C /Estimated/

   from [7]HSDB

   Computed Properties
   Molecular Weight                  351.3942 [g/mol]
   Molecular Formula                 C[18]H[25]NO[6]
   XLogP3-AA                         0.3
   H-Bond Donor                      1
   H-Bond Acceptor                   7
   Rotatable Bond Count              0
   Exact Mass                        351.168188
   MonoIsotopic Mass                 351.168188
   Topological Polar Surface Area    88.6
   Heavy Atom Count                  25
   Formal Charge                     0
   Complexity                        648
   Isotope Atom Count                0
   Defined Atom Stereocenter Count   6
   Undefined Atom Stereocenter Count 0
   Defined Bond Stereocenter Count   0
   Undefined Bond Stereocenter Count 0
   Covalently-Bonded Unit Count      1
   Feature 3D Acceptor Count         4
   Feature 3D Donor Count            1
   Feature 3D Cation Count           1
   Feature 3D Ring Count             2
   Effective Rotor Count             2.2
   Conformer Sampling RMSD           0.6
   CID Conformer Count               [8]5

References

   1. http://toxnet.nlm.nih.gov/cgi-bin/sis/search/r?dbs+hsdb:@term+@rn+@rel+6870-67-3
   2. http://toxnet.nlm.nih.gov/cgi-bin/sis/search/r?dbs+hsdb:@term+@rn+@rel+6870-67-3
   3. http://toxnet.nlm.nih.gov/cgi-bin/sis/search/r?dbs+hsdb:@term+@rn+@rel+6870-67-3
   4. http://toxnet.nlm.nih.gov/cgi-bin/sis/search/r?dbs+hsdb:@term+@rn+@rel+6870-67-3
   5. http://toxnet.nlm.nih.gov/cgi-bin/sis/search/r?dbs+hsdb:@term+@rn+@rel+6870-67-3
   6. http://toxnet.nlm.nih.gov/cgi-bin/sis/search/r?dbs+hsdb:@term+@rn+@rel+6870-67-3
   7. http://toxnet.nlm.nih.gov/cgi-bin/sis/search/r?dbs+hsdb:@term+@rn+@rel+6870-67-3
   8. http://pubchem.ncbi.nlm.nih.gov/vw3d/vw3d.cgi?cid=442741
