11954052
  -OEChem-07051213062D

 24 25  0     1  0  0  0  0  0999 V2000
    4.2690    2.1173    0.0000 O   0  0  0  0  0  0  0  0  0  0  0  0
    2.5369    1.1173    0.0000 O   0  0  0  0  0  0  0  0  0  0  0  0
    6.8776   -2.4273    0.0000 O   0  5  0  0  0  0  0  0  0  0  0  0
    5.1456   -2.4073    0.0000 O   0  0  0  0  0  0  0  0  0  0  0  0
    6.0174   -1.9173    0.0000 N   0  3  0  0  0  0  0  0  0  0  0  0
    4.2690    1.1173    0.0000 C   0  0  3  0  0  0  0  0  0  0  0  0
    5.1350    0.6173    0.0000 C   0  0  0  0  0  0  0  0  0  0  0  0
    3.4030    0.6173    0.0000 C   0  0  3  0  0  0  0  0  0  0  0  0
    5.1350   -0.3827    0.0000 C   0  0  0  0  0  0  0  0  0  0  0  0
    3.4030   -0.3827    0.0000 C   0  0  0  0  0  0  0  0  0  0  0  0
    4.2690   -0.8827    0.0000 C   0  0  0  0  0  0  0  0  0  0  0  0
    6.0290   -0.9174    0.0000 C   0  0  0  0  0  0  0  0  0  0  0  0
    6.0290    1.1520    0.0000 C   0  0  0  0  0  0  0  0  0  0  0  0
    6.9350   -0.4035    0.0000 C   0  0  0  0  0  0  0  0  0  0  0  0
    6.9350    0.6381    0.0000 C   0  0  0  0  0  0  0  0  0  0  0  0
    5.0051    1.5423    0.0000 H   0  0  0  0  0  0  0  0  0  0  0  0
    3.4030    1.4673    0.0000 H   0  0  0  0  0  0  0  0  0  0  0  0
    2.8660   -0.6927    0.0000 H   0  0  0  0  0  0  0  0  0  0  0  0
    4.2690   -1.5027    0.0000 H   0  0  0  0  0  0  0  0  0  0  0  0
    6.0218    1.7719    0.0000 H   0  0  0  0  0  0  0  0  0  0  0  0
    7.4708   -0.7156    0.0000 H   0  0  0  0  0  0  0  0  0  0  0  0
    7.4708    0.9502    0.0000 H   0  0  0  0  0  0  0  0  0  0  0  0
    3.7320    2.4273    0.0000 H   0  0  0  0  0  0  0  0  0  0  0  0
    2.0000    0.8073    0.0000 H   0  0  0  0  0  0  0  0  0  0  0  0
  1  6  1  0  0  0  0
  1 23  1  0  0  0  0
  2  8  1  0  0  0  0
  2 24  1  0  0  0  0
  3  5  1  0  0  0  0
  4  5  2  0  0  0  0
  5 12  1  0  0  0  0
  6  7  1  0  0  0  0
  6  8  1  0  0  0  0
  6 16  1  0  0  0  0
  7  9  2  0  0  0  0
  7 13  1  0  0  0  0
  8 10  1  0  0  0  0
  8 17  1  0  0  0  0
  9 11  1  0  0  0  0
  9 12  1  0  0  0  0
 10 11  2  0  0  0  0
 10 18  1  0  0  0  0
 11 19  1  0  0  0  0
 12 14  2  0  0  0  0
 13 15  2  0  0  0  0
 13 20  1  0  0  0  0
 14 15  1  0  0  0  0
 14 21  1  0  0  0  0
 15 22  1  0  0  0  0
M  CHG  2   3  -1   5   1
M  END
> <PUBCHEM_COMPOUND_CID>
11954052

> <PUBCHEM_COMPOUND_CANONICALIZED>
1

> <PUBCHEM_CACTVS_COMPLEXITY>
286

> <PUBCHEM_CACTVS_HBOND_ACCEPTOR>
4

> <PUBCHEM_CACTVS_HBOND_DONOR>
2

> <PUBCHEM_CACTVS_ROTATABLE_BOND>
0

> <PUBCHEM_CACTVS_SUBSKEYS>
AAADccByOAAAAAAAAAAAAAAAAAAAAAAAAAAwQAAAAAAAAACBAAAAHgAECAAADByhmAIwwIAQQgCBAiRCQwCCAAAgAgAoiAAAbIoJNiKAkZGAcABkwAEJ2Aew0KEOgAAAQAASAAAAAACAACQAAAAAAAAAAA==

> <PUBCHEM_IUPAC_OPENEYE_NAME>
5-nitro-1,2-dihydronaphthalene-1,2-diol

> <PUBCHEM_IUPAC_CAS_NAME>
5-nitro-1,2-dihydronaphthalene-1,2-diol

> <PUBCHEM_IUPAC_NAME>
5-nitro-1,2-dihydronaphthalene-1,2-diol

> <PUBCHEM_IUPAC_SYSTEMATIC_NAME>
5-nitro-1,2-dihydronaphthalene-1,2-diol

> <PUBCHEM_IUPAC_TRADITIONAL_NAME>
5-nitro-1,2-dihydronaphthalene-1,2-diol

> <PUBCHEM_IUPAC_INCHI>
InChI=1S/C10H9NO4/c12-9-5-4-6-7(10(9)13)2-1-3-8(6)11(14)15/h1-5,9-10,12-13H

> <PUBCHEM_IUPAC_INCHIKEY>
VNMNNCGXMBPWIX-UHFFFAOYSA-N

> <PUBCHEM_XLOGP3_AA>
0.6

> <PUBCHEM_EXACT_MASS>
207.053158

> <PUBCHEM_MOLECULAR_FORMULA>
C10H9NO4

> <PUBCHEM_MOLECULAR_WEIGHT>
207.18276

> <PUBCHEM_OPENEYE_CAN_SMILES>
C1=CC2=C(C=CC(C2O)O)C(=C1)[N+](=O)[O-]

> <PUBCHEM_OPENEYE_ISO_SMILES>
C1=CC2=C(C=CC(C2O)O)C(=C1)[N+](=O)[O-]

> <PUBCHEM_CACTVS_TPSA>
86.3

> <PUBCHEM_MONOISOTOPIC_WEIGHT>
207.053158

> <PUBCHEM_TOTAL_CHARGE>
0

> <PUBCHEM_HEAVY_ATOM_COUNT>
15

> <PUBCHEM_ATOM_DEF_STEREO_COUNT>
0

> <PUBCHEM_ATOM_UDEF_STEREO_COUNT>
2

> <PUBCHEM_BOND_DEF_STEREO_COUNT>
0

> <PUBCHEM_BOND_UDEF_STEREO_COUNT>
0

> <PUBCHEM_ISOTOPIC_ATOM_COUNT>
0

> <PUBCHEM_COMPONENT_COUNT>
1

> <PUBCHEM_CACTVS_TAUTO_COUNT>
1

> <PUBCHEM_COORDINATE_TYPE>
1
5
255

> <PUBCHEM_BONDANNOTATIONS>
12  14  8
13  15  8
14  15  8
6  16  3
7  13  8
7  9  8
8  17  3
9  12  8

$$$$

