   Color/Form
        Colorless, heavy liquid
   from [1]HSDB

   Boiling Point
        130.2 deg C
   from [2]HSDB

   Melting Point
        -70.2 deg C
   from [3]HSDB

   Critical Temperature and Pressure
        Critical temperature = 624 K; Critical pressure = 4.02X10+06 Pa
   from [4]HSDB

   Density/Specific Gravity
        1.5406 g/cu cm at 20 deg C
   from [5]HSDB

   Heat of Combustion
        -8.3784X10+08 J/Kmol
   from [6]HSDB

   Heat of Vaporization
        243.50 joules/g at 20 deg C
   from [7]HSDB

   Octanol/Water Partition Coefficient
        log Kow = 2.93 (est)
   from [8]HSDB

   Solubilities

     * Soluble in acetone, benzene, chloroform; miscible in ethanol and
       ether
     * In water, 1.07X10+3 mg/L at 25 deg C

   from [9]HSDB

   Spectral Properties

     * Index of refraction = 1.4821 at 20 deg C/D
     * MASS: 34546 (NIST/EPA/MSDC Mass Spectral Database, 1990 Version)

   from [10]HSDB

   Surface Tension
        3.21X10-2 N/m at 20 deg C
   from [11]HSDB

   Vapor Pressure
        12.0 mm Hg at 25 deg C
   from [12]HSDB

   Viscosity
        1.50X10-3 Pa-sec at 20 deg C
   from [13]HSDB

   Other Chemical/Physical Properties

     * Henry's Law constant = 2.50X10-3 atm-cu m/mol at 25 det C
     * Hydroxyl radical reaction rate constant = 1.80X10-14 cu
       cm/molecule-sec at 25 deg C

   from [14]HSDB

   Computed Properties
   Molecular Weight                  167.84928 [g/mol]
   Molecular Formula                 C[2]H[2]Cl[4]
   XLogP3-AA                         2.7
   H-Bond Donor                      0
   H-Bond Acceptor                   0
   Rotatable Bond Count              0
   Exact Mass                        167.888111
   MonoIsotopic Mass                 165.891061
   Topological Polar Surface Area    0
   Heavy Atom Count                  6
   Formal Charge                     0
   Complexity                        35.3
   Isotope Atom Count                0
   Defined Atom Stereocenter Count   0
   Undefined Atom Stereocenter Count 0
   Defined Bond Stereocenter Count   0
   Undefined Bond Stereocenter Count 0
   Covalently-Bonded Unit Count      1
   Effective Rotor Count             1
   Conformer Sampling RMSD           0.4
   CID Conformer Count               [15]1

References

   1. http://toxnet.nlm.nih.gov/cgi-bin/sis/search/r?dbs+hsdb:@term+@rn+@rel+630-20-6
   2. http://toxnet.nlm.nih.gov/cgi-bin/sis/search/r?dbs+hsdb:@term+@rn+@rel+630-20-6
   3. http://toxnet.nlm.nih.gov/cgi-bin/sis/search/r?dbs+hsdb:@term+@rn+@rel+630-20-6
   4. http://toxnet.nlm.nih.gov/cgi-bin/sis/search/r?dbs+hsdb:@term+@rn+@rel+630-20-6
   5. http://toxnet.nlm.nih.gov/cgi-bin/sis/search/r?dbs+hsdb:@term+@rn+@rel+630-20-6
   6. http://toxnet.nlm.nih.gov/cgi-bin/sis/search/r?dbs+hsdb:@term+@rn+@rel+630-20-6
   7. http://toxnet.nlm.nih.gov/cgi-bin/sis/search/r?dbs+hsdb:@term+@rn+@rel+630-20-6
   8. http://toxnet.nlm.nih.gov/cgi-bin/sis/search/r?dbs+hsdb:@term+@rn+@rel+630-20-6
   9. http://toxnet.nlm.nih.gov/cgi-bin/sis/search/r?dbs+hsdb:@term+@rn+@rel+630-20-6
  10. http://toxnet.nlm.nih.gov/cgi-bin/sis/search/r?dbs+hsdb:@term+@rn+@rel+630-20-6
  11. http://toxnet.nlm.nih.gov/cgi-bin/sis/search/r?dbs+hsdb:@term+@rn+@rel+630-20-6
  12. http://toxnet.nlm.nih.gov/cgi-bin/sis/search/r?dbs+hsdb:@term+@rn+@rel+630-20-6
  13. http://toxnet.nlm.nih.gov/cgi-bin/sis/search/r?dbs+hsdb:@term+@rn+@rel+630-20-6
  14. http://toxnet.nlm.nih.gov/cgi-bin/sis/search/r?dbs+hsdb:@term+@rn+@rel+630-20-6
  15. http://pubchem.ncbi.nlm.nih.gov/vw3d/vw3d.cgi?cid=12418
