   Color/Form
        Colorless liquid
   from [1]HSDB

   Odor

     * HARSH FUSEL ODOR WITH BANANA
     * ODOR SIMILAR TO AMYL ALCOHOL
     * Rancid, sweet
     * Strong characteristic, mildly alcoholic odor

   from [2]HSDB

   Taste

     * BANANA, FUSEL TASTE
     * DRY, BURNING TASTE
     * 5.00X10-1 ppm (taste detection in water, gas chromatically pure)

   from [3]HSDB

   Boiling Point
        117.7 deg C
   from [4]HSDB

   Melting Point
        -89.8 deg C
   from [5]HSDB

   Corrosivity
        Attack some forms of plastics, rubber, and coatings
   from [6]HSDB

   Critical Temperature and Pressure
        Critical temperature: 563 K; critical pressure: 4.414 MPa
   from [7]HSDB

   Density/Specific Gravity
        0.8098 @ 20 deg C/4 deg C
   from [8]HSDB

   Dissociation Constants
        pKa= 16.10
   from [9]HSDB

   Heat of Combustion
        639.53 kg cal/g mol wt at 25 deg C
   from [10]HSDB

   Heat of Vaporization
        52.35 kJ/mol @ 25 deg C
   from [11]HSDB

   Octanol/Water Partition Coefficient
        log Kow= 0.88
   from [12]HSDB

   Solubilities

     * In water, 6.32X10+4 mg/l @ 25 deg C
     * Miscible with many organic solvents
     * Very soluble in acetone; miscible with ethanol and ethyl ether
     * > 10% in benzene

   from [13]HSDB

   Spectral Properties

     * Index of refraction: 1.3993 @ 20 deg C/D
     * Specific rotation: +9.8 at 20 deg C/D (water)
     * IR: 4807 (Coblentz Society Spectral Collection)
     * 1H NMR: SAD 7200 (Sadtler Research Laboratories Spectral
       Collection)
     * 13C NMR: STOT 140 (Stothers, Cabon-13 NMR Spectroscopy, Academic
       Press, New York)
     * MS: NIST 19177 (NIST/EPA/MCDC Mass Spectral Database 1990 version);
       NBS 23 (National Bureau of Standards)
     * Raman: SAD 180 (Sadtler Research Laboratories Spectral Collection)

   from [14]HSDB

   Surface Tension
        26.28 dynes/cm @ 10 deg C; 24.93 dynes/cm @ 25 deg C; 22.69
   dynes/cm @ 50 deg C
   from [15]HSDB

   Vapor Density
        2.6 (Air= 1)
   from [16]HSDB

   Vapor Pressure
        7.0 mm Hg @ 25 deg C
   from [17]HSDB

   Relative Evaporation Rate
        0.46 (butyl acetate= 1)
   from [18]HSDB

   Viscosity
        36.1 cP at -50.9 deg C; 5.186 cP at 0 deg C; 2.544 cP at 25 deg C;
   0.533 cP at 100 deg C
   from [19]HSDB

   Other Chemical/Physical Properties

     * Highly refractive liq
     * Leaves transitory greasy spot on paper.
     * PERCENT IN SATURATED AIR 0.86 (25 DEG C); DENSITY OF SATURATED AIR:
       1.01 (AIR= 1)
     * Heat of fusion: 29.93 cal/g= 125.23 J/g= 9,282 J/mol
     * Sat concn in air 20 g/cu m at 20 deg C; 39 g/cu m at 30 deg C
     * Liquid heat capacity= 0.566 BTU/lb-F @ 75 deg F; Liquid thermal
       conductivity= 1.028 BTU-inch/hr-sq ft-F @ 75 deg F; Saturated vapor
       density= 0.00145 lb/cu ft @ 75 deg F; Ideal gas heat capacity=
       0.354 BTU/lb-F @ 75 deg F
     * Ionization potential= 10.01 eV
     * Observed and estimated solubility of naphthalene in 1-butanol at 40
       deg C: 0.116 mole fraction (observed) & 0.111 mole fraction
       (estimated)
     * Hydroxyl radical reaction rate constant = 8.3X10-12 cu
       cm/molecule-sec @ 25 deg C
     * Coefficient of cubical expansion: 0.00093/deg C, 0.00052/deg F;
       specific heat of liquid: 0.563 cal/g at 20 deg c; wt/gal: 6.756 lb
       at 20 deg C
     * Forms binary azeotropes with 1-bromo-3-methylbutane, butyl acetate,
       butyl ether, butyl formate, butyl vinyl ether, camphene,
       chlorobenzene, 1-chloro-3-methylbutane, cyclohexane, cyclohexene,
       dibutyl ether, 1,3-dimethylcyclohexane, 2,5-dimethylhexane, ethyl
       borate, ethyl butyrate, ethyl carbonate, ethyl isobutyrate,
       heptane, hexane, 2-hexanone, 3-hexanone, 1-iodo-3-methylbutane,
       isoamyl formate, isobutyl acetate, isobutyl ether, isopropyl
       isobutyrate, isopropyl sulfide, methylcyclohexane,
       methylcyclopentane, methyl isovalerate, 4-methyl-2-pentanone,
       octane, paraldehyde, alpha-pinene, pyridine, styrene,
       tetrachloroethylene, toluene, o-xylene, p-xylene
     * Forms ternary azeotropes with water, butyl acetate; water, butyl
       chloroacetate; water, butyl ether; water, butyl formate; water,
       carbon tetrachloride
     * Dielectric constant: 17.8 at 20 deg C; 8.2 at 118 deg C; dipole
       moment: 1.66 (gas, at 20 deg C in benzene)
     * Enthalpies of formation: -78.18 kcal/mole (liquid); -65.65
       kcal/mole (gas)
     * Gibbs (free) energies of formation: -38.84 kcal/mole (liquid);
       -36.04 kcal/mole (gas)
     * Entropies: 54.1 cal/deg-mole (liquid); 86.7 cal/deg-mole (gas)
     * Heat capacities: 42.31 cal/deg-mole (liquid); 26.29 cal/deg-mole
       (gas)
     * Electrical conductivity: 9.12X10-9/ohm.cm
     * Diffusion coefficient: 0.025 sq m/hr in air at 0 deg C and 1 atm
     * Burns with strongly luminous flame.
     * Henry's Law constant = 8.8X10-6 atm-cu m/mole @ 25 deg C

   from [20]HSDB

   Computed Properties
   Molecular Weight                  74.1216 [g/mol]
   Molecular Formula                 C[4]H[10]O
   XLogP3                            0.9
   H-Bond Donor                      1
   H-Bond Acceptor                   1
   Rotatable Bond Count              2
   Exact Mass                        74.073165
   MonoIsotopic Mass                 74.073165
   Topological Polar Surface Area    20.2
   Heavy Atom Count                  5
   Formal Charge                     0
   Complexity                        13.1
   Isotope Atom Count                0
   Defined Atom Stereocenter Count   0
   Undefined Atom Stereocenter Count 0
   Defined Bond Stereocenter Count   0
   Undefined Bond Stereocenter Count 0
   Covalently-Bonded Unit Count      1
   Feature 3D Acceptor Count         1
   Feature 3D Donor Count            1
   Feature 3D Hydrophobe Count       1
   Effective Rotor Count             2
   Conformer Sampling RMSD           0.4
   CID Conformer Count               [21]8

References

   1. http://toxnet.nlm.nih.gov/cgi-bin/sis/search/r?dbs+hsdb:@term+@rn+@rel+71-36-3
   2. http://toxnet.nlm.nih.gov/cgi-bin/sis/search/r?dbs+hsdb:@term+@rn+@rel+71-36-3
   3. http://toxnet.nlm.nih.gov/cgi-bin/sis/search/r?dbs+hsdb:@term+@rn+@rel+71-36-3
   4. http://toxnet.nlm.nih.gov/cgi-bin/sis/search/r?dbs+hsdb:@term+@rn+@rel+71-36-3
   5. http://toxnet.nlm.nih.gov/cgi-bin/sis/search/r?dbs+hsdb:@term+@rn+@rel+71-36-3
   6. http://toxnet.nlm.nih.gov/cgi-bin/sis/search/r?dbs+hsdb:@term+@rn+@rel+71-36-3
   7. http://toxnet.nlm.nih.gov/cgi-bin/sis/search/r?dbs+hsdb:@term+@rn+@rel+71-36-3
   8. http://toxnet.nlm.nih.gov/cgi-bin/sis/search/r?dbs+hsdb:@term+@rn+@rel+71-36-3
   9. http://toxnet.nlm.nih.gov/cgi-bin/sis/search/r?dbs+hsdb:@term+@rn+@rel+71-36-3
  10. http://toxnet.nlm.nih.gov/cgi-bin/sis/search/r?dbs+hsdb:@term+@rn+@rel+71-36-3
  11. http://toxnet.nlm.nih.gov/cgi-bin/sis/search/r?dbs+hsdb:@term+@rn+@rel+71-36-3
  12. http://toxnet.nlm.nih.gov/cgi-bin/sis/search/r?dbs+hsdb:@term+@rn+@rel+71-36-3
  13. http://toxnet.nlm.nih.gov/cgi-bin/sis/search/r?dbs+hsdb:@term+@rn+@rel+71-36-3
  14. http://toxnet.nlm.nih.gov/cgi-bin/sis/search/r?dbs+hsdb:@term+@rn+@rel+71-36-3
  15. http://toxnet.nlm.nih.gov/cgi-bin/sis/search/r?dbs+hsdb:@term+@rn+@rel+71-36-3
  16. http://toxnet.nlm.nih.gov/cgi-bin/sis/search/r?dbs+hsdb:@term+@rn+@rel+71-36-3
  17. http://toxnet.nlm.nih.gov/cgi-bin/sis/search/r?dbs+hsdb:@term+@rn+@rel+71-36-3
  18. http://toxnet.nlm.nih.gov/cgi-bin/sis/search/r?dbs+hsdb:@term+@rn+@rel+71-36-3
  19. http://toxnet.nlm.nih.gov/cgi-bin/sis/search/r?dbs+hsdb:@term+@rn+@rel+71-36-3
  20. http://toxnet.nlm.nih.gov/cgi-bin/sis/search/r?dbs+hsdb:@term+@rn+@rel+71-36-3
  21. http://pubchem.ncbi.nlm.nih.gov/vw3d/vw3d.cgi?cid=263
