   Color/Form
        Colorless liquid ...
   from [1]HSDB

   Odor

     * STRONG FRUITY ODOR
     * PLEASANT, BANANA-LIKE ODOR
     * Sweet

   from [2]HSDB

   Taste

     * BURNING THEN SWEET TASTE REMINISCENT OF PINEAPPLE
     * PLEASANT, BANANA-LIKE TASTE

   from [3]HSDB

   Boiling Point
        126.1 DEG C
   from [4]HSDB

   Melting Point
        -78 DEG C
   from [5]HSDB

   Critical Temperature and Pressure
        CRITICAL TEMP: 582.6 DEG F= 305.9 DEG C= 579.1 DEG K; CRITICAL
   PRESSURE: 455 PSIA= 31 ATM= 3.1 MN/SQ M
   from [6]HSDB

   Density/Specific Gravity
        Sp gr: 0.8826 @ 20 DEG C/20 DEG C
   from [7]HSDB

   Heat of Combustion
        -13.130 BTU/LB= -7294 CAL/G= -305.4X10+5 J/KG
   from [8]HSDB

   Heat of Vaporization
        133 BTU/LB= 73.9 CAL/G= 3.09X10+5 J/KG
   from [9]HSDB

   Octanol/Water Partition Coefficient
        log Kow= 1.78
   from [10]HSDB

   Solubilities

     * SOL IN MOST HYDROCARBONS
     * Very soluble in ethanol and ether; soluble in acetone
     * In water: 14,000 mg/l at 20 deg C; 5,000 mg/l at 25 deg C
     * Water solubility of 6,700 ppm at 25 deg C

   from [11]HSDB

   Spectral Properties

     * INDEX OF REFRACTION: 1.3941 @ 20 DEG C/D
     * SADTLER REFERENCE NUMBER: 10971 (IR, GRATING)
     * IR: 1041 (Sadtler Research Laboratories Prism Collection)
     * NMR: 140 (Varian Associates NMR Spectra Catalogue)

   from [12]HSDB

   Surface Tension
        14.5 DYNES/CM= 0.0145 NEWTONS/MET @ 25 DEG C
   from [13]HSDB

   Vapor Density
        4.0 (AIR= 1)
   from [14]HSDB

   Vapor Pressure
        11.5 mm Hg @ 25 deg C /from experimentally derived coefficients/
   from [15]HSDB

   Relative Evaporation Rate
        1.0 (Butyl acetate= 1)
   from [16]HSDB

   Viscosity
        1.004, 0.732 & 0.563 CP AT 0, 20 & 40 DEG C, RESPECTIVELY
   from [17]HSDB

   Other Chemical/Physical Properties

     * WT/VOL CONVERSION 4.74 MG/CU M APPROX EQUIV TO 1 PPM
     * LIQUID-WATER INTERFACIAL TENSION: 57 DYNES/CM= 0.057 N/M @ 22 DEG C
       (EST)
     * ACID VALUE 0.2 MAX
     * Dissolves many plastics and resins.
     * Henry's Law constant = 2.81X10-4 atm-cu m/mol at 25 deg c

   from [18]HSDB

   Computed Properties
   Molecular Weight                  116.15828 [g/mol]
   Molecular Formula                 C[6]H[12]O[2]
   XLogP3                            1.8
   H-Bond Donor                      0
   H-Bond Acceptor                   2
   Rotatable Bond Count              4
   Exact Mass                        116.08373
   MonoIsotopic Mass                 116.08373
   Topological Polar Surface Area    26.3
   Heavy Atom Count                  8
   Formal Charge                     0
   Complexity                        68.9
   Isotope Atom Count                0
   Defined Atom Stereocenter Count   0
   Undefined Atom Stereocenter Count 0
   Defined Bond Stereocenter Count   0
   Undefined Bond Stereocenter Count 0
   Covalently-Bonded Unit Count      1
   Feature 3D Acceptor Count         1
   Feature 3D Hydrophobe Count       1
   Effective Rotor Count             4
   Conformer Sampling RMSD           0.6
   CID Conformer Count               [19]36

References

   1. http://toxnet.nlm.nih.gov/cgi-bin/sis/search/r?dbs+hsdb:@term+@rn+@rel+123-86-4
   2. http://toxnet.nlm.nih.gov/cgi-bin/sis/search/r?dbs+hsdb:@term+@rn+@rel+123-86-4
   3. http://toxnet.nlm.nih.gov/cgi-bin/sis/search/r?dbs+hsdb:@term+@rn+@rel+123-86-4
   4. http://toxnet.nlm.nih.gov/cgi-bin/sis/search/r?dbs+hsdb:@term+@rn+@rel+123-86-4
   5. http://toxnet.nlm.nih.gov/cgi-bin/sis/search/r?dbs+hsdb:@term+@rn+@rel+123-86-4
   6. http://toxnet.nlm.nih.gov/cgi-bin/sis/search/r?dbs+hsdb:@term+@rn+@rel+123-86-4
   7. http://toxnet.nlm.nih.gov/cgi-bin/sis/search/r?dbs+hsdb:@term+@rn+@rel+123-86-4
   8. http://toxnet.nlm.nih.gov/cgi-bin/sis/search/r?dbs+hsdb:@term+@rn+@rel+123-86-4
   9. http://toxnet.nlm.nih.gov/cgi-bin/sis/search/r?dbs+hsdb:@term+@rn+@rel+123-86-4
  10. http://toxnet.nlm.nih.gov/cgi-bin/sis/search/r?dbs+hsdb:@term+@rn+@rel+123-86-4
  11. http://toxnet.nlm.nih.gov/cgi-bin/sis/search/r?dbs+hsdb:@term+@rn+@rel+123-86-4
  12. http://toxnet.nlm.nih.gov/cgi-bin/sis/search/r?dbs+hsdb:@term+@rn+@rel+123-86-4
  13. http://toxnet.nlm.nih.gov/cgi-bin/sis/search/r?dbs+hsdb:@term+@rn+@rel+123-86-4
  14. http://toxnet.nlm.nih.gov/cgi-bin/sis/search/r?dbs+hsdb:@term+@rn+@rel+123-86-4
  15. http://toxnet.nlm.nih.gov/cgi-bin/sis/search/r?dbs+hsdb:@term+@rn+@rel+123-86-4
  16. http://toxnet.nlm.nih.gov/cgi-bin/sis/search/r?dbs+hsdb:@term+@rn+@rel+123-86-4
  17. http://toxnet.nlm.nih.gov/cgi-bin/sis/search/r?dbs+hsdb:@term+@rn+@rel+123-86-4
  18. http://toxnet.nlm.nih.gov/cgi-bin/sis/search/r?dbs+hsdb:@term+@rn+@rel+123-86-4
  19. http://pubchem.ncbi.nlm.nih.gov/vw3d/vw3d.cgi?cid=31272
