11438
  -OEChem-06261205402D

 23 22  0     0  0  0  0  0  0999 V2000
    6.2633   -0.8958    0.0000 Hg  0  2  0  0  0  0  0  0  0  0  0  0
    5.5202   -1.5649    0.0000 O   0  5  0  0  0  0  0  0  0  0  0  0
    7.2144   -1.2048    0.0000 O   0  5  0  0  0  0  0  0  0  0  0  0
    2.0000   -1.5649    0.0000 O   0  0  0  0  0  0  0  0  0  0  0  0
    8.9744    1.8437    0.0000 O   0  0  0  0  0  0  0  0  0  0  0  0
    3.7601   -1.8437    0.0000 N   0  0  0  0  0  0  0  0  0  0  0  0
    7.8530    0.4588    0.0000 N   0  0  0  0  0  0  0  0  0  0  0  0
    4.2601   -0.3049    0.0000 C   0  0  0  0  0  0  0  0  0  0  0  0
    8.9356   -0.7436    0.0000 C   0  0  0  0  0  0  0  0  0  0  0  0
    3.2601   -0.3049    0.0000 C   0  0  0  0  0  0  0  0  0  0  0  0
    9.4356    0.1224    0.0000 C   0  0  0  0  0  0  0  0  0  0  0  0
    4.5691   -1.2559    0.0000 C   0  0  0  0  0  0  0  0  0  0  0  0
    7.9575   -0.5357    0.0000 C   0  0  0  0  0  0  0  0  0  0  0  0
    2.9511   -1.2559    0.0000 C   0  0  0  0  0  0  0  0  0  0  0  0
    8.7665    0.8656    0.0000 C   0  0  0  0  0  0  0  0  0  0  0  0
    4.8665   -0.1760    0.0000 H   0  0  0  0  0  0  0  0  0  0  0  0
    4.1953    0.3117    0.0000 H   0  0  0  0  0  0  0  0  0  0  0  0
    8.7440   -1.3333    0.0000 H   0  0  0  0  0  0  0  0  0  0  0  0
    9.5020   -0.9958    0.0000 H   0  0  0  0  0  0  0  0  0  0  0  0
    3.3249    0.3117    0.0000 H   0  0  0  0  0  0  0  0  0  0  0  0
    2.6536   -0.1760    0.0000 H   0  0  0  0  0  0  0  0  0  0  0  0
    9.9372   -0.2420    0.0000 H   0  0  0  0  0  0  0  0  0  0  0  0
    9.8505    0.5832    0.0000 H   0  0  0  0  0  0  0  0  0  0  0  0
  2 12  1  0  0  0  0
  3 13  1  0  0  0  0
  4 14  2  0  0  0  0
  5 15  2  0  0  0  0
  6 12  2  0  0  0  0
  6 14  1  0  0  0  0
  7 13  2  0  0  0  0
  7 15  1  0  0  0  0
  8 10  1  0  0  0  0
  8 12  1  0  0  0  0
  8 16  1  0  0  0  0
  8 17  1  0  0  0  0
  9 11  1  0  0  0  0
  9 13  1  0  0  0  0
  9 18  1  0  0  0  0
  9 19  1  0  0  0  0
 10 14  1  0  0  0  0
 10 20  1  0  0  0  0
 10 21  1  0  0  0  0
 11 15  1  0  0  0  0
 11 22  1  0  0  0  0
 11 23  1  0  0  0  0
M  CHG  3   1   2   2  -1   3  -1
M  END
> <PUBCHEM_COMPOUND_CID>
11438

> <PUBCHEM_COMPOUND_CANONICALIZED>
1

> <PUBCHEM_CACTVS_COMPLEXITY>
113

> <PUBCHEM_CACTVS_HBOND_ACCEPTOR>
4

> <PUBCHEM_CACTVS_HBOND_DONOR>
0

> <PUBCHEM_CACTVS_ROTATABLE_BOND>
0

> <PUBCHEM_CACTVS_SUBSKEYS>
AAADccBzOAAAAAAAAAAAAQAAAAAAAQIAAAAAAAAAAAAAAAAAAAAAHgAAAAAACACBgAAAAAIAAAAoAAEwFAAAAAAAAAAAAAEwAAAAABAAgAAAAAAEAAAAAAAiAAAAAAAAAAAAAAAAAAAAAAAAAAAAAAAAAA==

> <PUBCHEM_IUPAC_OPENEYE_NAME>
mercuric 5-oxo-3,4-dihydropyrrol-2-olate

> <PUBCHEM_IUPAC_CAS_NAME>
mercury(2+); 5-oxo-3,4-dihydropyrrol-2-olate

> <PUBCHEM_IUPAC_NAME>
mercury(2+); 5-oxo-3,4-dihydropyrrol-2-olate

> <PUBCHEM_IUPAC_SYSTEMATIC_NAME>
mercury(2+); 5-oxidanylidene-3,4-dihydropyrrol-2-olate

> <PUBCHEM_IUPAC_TRADITIONAL_NAME>
mercuric 5-keto-1-pyrrolin-2-olate

> <PUBCHEM_IUPAC_INCHI>
InChI=1S/2C4H5NO2.Hg/c2*6-3-1-2-4(7)5-3;/h2*1-2H2,(H,5,6,7);/q;;+2/p-2

> <PUBCHEM_IUPAC_INCHIKEY>
MLBQTLYAKKFTFA-UHFFFAOYSA-L

> <PUBCHEM_EXACT_MASS>
398.01905

> <PUBCHEM_MOLECULAR_FORMULA>
C8H8HgN2O4

> <PUBCHEM_MOLECULAR_WEIGHT>
396.75012

> <PUBCHEM_OPENEYE_CAN_SMILES>
C1CC(=O)N=C1[O-].C1CC(=O)N=C1[O-].[Hg+2]

> <PUBCHEM_OPENEYE_ISO_SMILES>
C1CC(=O)N=C1[O-].C1CC(=O)N=C1[O-].[Hg+2]

> <PUBCHEM_CACTVS_TPSA>
105

> <PUBCHEM_MONOISOTOPIC_WEIGHT>
398.01905

> <PUBCHEM_TOTAL_CHARGE>
0

> <PUBCHEM_HEAVY_ATOM_COUNT>
15

> <PUBCHEM_ATOM_DEF_STEREO_COUNT>
0

> <PUBCHEM_ATOM_UDEF_STEREO_COUNT>
0

> <PUBCHEM_BOND_DEF_STEREO_COUNT>
0

> <PUBCHEM_BOND_UDEF_STEREO_COUNT>
0

> <PUBCHEM_ISOTOPIC_ATOM_COUNT>
0

> <PUBCHEM_COMPONENT_COUNT>
3

> <PUBCHEM_CACTVS_TAUTO_COUNT>
15

> <PUBCHEM_COORDINATE_TYPE>
1
5
255

$$$$

