11217495
  -OEChem-07051213132D

 30 30  0     1  0  0  0  0  0999 V2000
    4.7690    2.1830    0.0000 O   0  0  0  0  0  0  0  0  0  0  0  0
    2.5369    1.3170    0.0000 O   0  0  0  0  0  0  0  0  0  0  0  0
    4.2690    1.3170    0.0000 C   0  0  1  0  0  0  0  0  0  0  0  0
    4.2690   -0.6830    0.0000 C   0  0  2  0  0  0  0  0  0  0  0  0
    3.4030    0.8170    0.0000 C   0  0  1  0  0  0  0  0  0  0  0  0
    5.1350    0.8170    0.0000 C   0  0  0  0  0  0  0  0  0  0  0  0
    3.4030   -0.1830    0.0000 C   0  0  0  0  0  0  0  0  0  0  0  0
    5.1350   -0.1830    0.0000 C   0  0  0  0  0  0  0  0  0  0  0  0
    3.7690    2.1830    0.0000 C   0  0  0  0  0  0  0  0  0  0  0  0
    4.2690   -1.6830    0.0000 C   0  0  0  0  0  0  0  0  0  0  0  0
    5.1350   -2.1830    0.0000 C   0  0  0  0  0  0  0  0  0  0  0  0
    3.4030   -2.1830    0.0000 C   0  0  0  0  0  0  0  0  0  0  0  0
    4.8059   -0.9930    0.0000 H   0  0  0  0  0  0  0  0  0  0  0  0
    3.4030    1.4370    0.0000 H   0  0  0  0  0  0  0  0  0  0  0  0
    5.7456    0.7093    0.0000 H   0  0  0  0  0  0  0  0  0  0  0  0
    5.3471    1.3996    0.0000 H   0  0  0  0  0  0  0  0  0  0  0  0
    2.7924   -0.0754    0.0000 H   0  0  0  0  0  0  0  0  0  0  0  0
    3.1909   -0.7656    0.0000 H   0  0  0  0  0  0  0  0  0  0  0  0
    5.3471   -0.7656    0.0000 H   0  0  0  0  0  0  0  0  0  0  0  0
    5.7456   -0.0754    0.0000 H   0  0  0  0  0  0  0  0  0  0  0  0
    4.3059    2.4930    0.0000 H   0  0  0  0  0  0  0  0  0  0  0  0
    3.4590    2.7200    0.0000 H   0  0  0  0  0  0  0  0  0  0  0  0
    3.2320    1.8730    0.0000 H   0  0  0  0  0  0  0  0  0  0  0  0
    5.3890    2.1830    0.0000 H   0  0  0  0  0  0  0  0  0  0  0  0
    2.0000    1.0070    0.0000 H   0  0  0  0  0  0  0  0  0  0  0  0
    4.8250   -2.7200    0.0000 H   0  0  0  0  0  0  0  0  0  0  0  0
    5.6720   -2.4930    0.0000 H   0  0  0  0  0  0  0  0  0  0  0  0
    5.4450   -1.6461    0.0000 H   0  0  0  0  0  0  0  0  0  0  0  0
    2.8660   -1.8730    0.0000 H   0  0  0  0  0  0  0  0  0  0  0  0
    3.4030   -2.8030    0.0000 H   0  0  0  0  0  0  0  0  0  0  0  0
  3  1  1  6  0  0  0
  1 24  1  0  0  0  0
  5  2  1  1  0  0  0
  2 25  1  0  0  0  0
  3  5  1  0  0  0  0
  3  6  1  0  0  0  0
  3  9  1  0  0  0  0
  4  7  1  0  0  0  0
  4  8  1  0  0  0  0
  4 10  1  6  0  0  0
  4 13  1  0  0  0  0
  5  7  1  0  0  0  0
  5 14  1  0  0  0  0
  6  8  1  0  0  0  0
  6 15  1  0  0  0  0
  6 16  1  0  0  0  0
  7 17  1  0  0  0  0
  7 18  1  0  0  0  0
  8 19  1  0  0  0  0
  8 20  1  0  0  0  0
  9 21  1  0  0  0  0
  9 22  1  0  0  0  0
  9 23  1  0  0  0  0
 10 11  1  0  0  0  0
 10 12  2  0  0  0  0
 11 26  1  0  0  0  0
 11 27  1  0  0  0  0
 11 28  1  0  0  0  0
 12 29  1  0  0  0  0
 12 30  1  0  0  0  0
M  END
> <PUBCHEM_COMPOUND_CID>
11217495

> <PUBCHEM_COMPOUND_CANONICALIZED>
1

> <PUBCHEM_CACTVS_COMPLEXITY>
188

> <PUBCHEM_CACTVS_HBOND_ACCEPTOR>
2

> <PUBCHEM_CACTVS_HBOND_DONOR>
2

> <PUBCHEM_CACTVS_ROTATABLE_BOND>
1

> <PUBCHEM_CACTVS_SUBSKEYS>
AAADceBwMAAAAAAAAAAAAAAAAAAAAAAAAAAwAAAAAAAAAAAAAAAAGgAACAAADVSggAICAAAAAgCAAgBCAAAAAAAgAAAAAAAAAAgBEAIAAQAAQAAEgAABAAGAwPAOAAAAAAAAAADAAAIAABCAAAAAAAAAAA==

> <PUBCHEM_IUPAC_OPENEYE_NAME>
(1R,2R,4S)-4-isopropenyl-1-methyl-cyclohexane-1,2-diol

> <PUBCHEM_IUPAC_CAS_NAME>
(1R,2R,4S)-1-methyl-4-(1-methylethenyl)cyclohexane-1,2-diol

> <PUBCHEM_IUPAC_NAME>
(1R,2R,4S)-1-methyl-4-prop-1-en-2-ylcyclohexane-1,2-diol

> <PUBCHEM_IUPAC_SYSTEMATIC_NAME>
(1R,2R,4S)-1-methyl-4-prop-1-en-2-yl-cyclohexane-1,2-diol

> <PUBCHEM_IUPAC_TRADITIONAL_NAME>
(1R,2R,4S)-4-isopropenyl-1-methyl-cyclohexane-1,2-diol

> <PUBCHEM_IUPAC_INCHI>
InChI=1S/C10H18O2/c1-7(2)8-4-5-10(3,12)9(11)6-8/h8-9,11-12H,1,4-6H2,2-3H3/t8-,9+,10+/m0/s1

> <PUBCHEM_IUPAC_INCHIKEY>
WKZWTZTZWGWEGE-IVZWLZJFSA-N

> <PUBCHEM_XLOGP3_AA>
1.5

> <PUBCHEM_EXACT_MASS>
170.13068

> <PUBCHEM_MOLECULAR_FORMULA>
C10H18O2

> <PUBCHEM_MOLECULAR_WEIGHT>
170.24872

> <PUBCHEM_OPENEYE_CAN_SMILES>
CC(=C)C1CCC(C(C1)O)(C)O

> <PUBCHEM_OPENEYE_ISO_SMILES>
CC(=C)[C@H]1CC[C@@]([C@@H](C1)O)(C)O

> <PUBCHEM_CACTVS_TPSA>
40.5

> <PUBCHEM_MONOISOTOPIC_WEIGHT>
170.13068

> <PUBCHEM_TOTAL_CHARGE>
0

> <PUBCHEM_HEAVY_ATOM_COUNT>
12

> <PUBCHEM_ATOM_DEF_STEREO_COUNT>
3

> <PUBCHEM_ATOM_UDEF_STEREO_COUNT>
0

> <PUBCHEM_BOND_DEF_STEREO_COUNT>
0

> <PUBCHEM_BOND_UDEF_STEREO_COUNT>
0

> <PUBCHEM_ISOTOPIC_ATOM_COUNT>
0

> <PUBCHEM_COMPONENT_COUNT>
1

> <PUBCHEM_CACTVS_TAUTO_COUNT>
1

> <PUBCHEM_COORDINATE_TYPE>
1
5
255

> <PUBCHEM_BONDANNOTATIONS>
3  1  6
5  2  5
4  10  6

$$$$

