6124753
  -OEChem-07051213002D

 60 61  0     0  0  0  0  0  0999 V2000
   13.2583   -1.8100    0.0000 O   0  0  0  0  0  0  0  0  0  0  0  0
   13.2583    1.1900    0.0000 N   0  0  0  0  0  0  0  0  0  0  0  0
   12.3923   -0.3100    0.0000 C   0  0  0  0  0  0  0  0  0  0  0  0
    8.9282   -0.3100    0.0000 C   0  0  0  0  0  0  0  0  0  0  0  0
   11.5263   -0.8100    0.0000 C   0  0  0  0  0  0  0  0  0  0  0  0
    8.0622   -0.8100    0.0000 C   0  0  0  0  0  0  0  0  0  0  0  0
    9.7942   -0.8100    0.0000 C   0  0  0  0  0  0  0  0  0  0  0  0
   12.3923    0.6900    0.0000 C   0  0  0  0  0  0  0  0  0  0  0  0
   10.6603   -0.3100    0.0000 C   0  0  0  0  0  0  0  0  0  0  0  0
   14.1244   -0.3100    0.0000 C   0  0  0  0  0  0  0  0  0  0  0  0
   13.2583   -0.8100    0.0000 C   0  0  0  0  0  0  0  0  0  0  0  0
   14.1244    0.6900    0.0000 C   0  0  0  0  0  0  0  0  0  0  0  0
    6.3301   -0.8100    0.0000 C   0  0  0  0  0  0  0  0  0  0  0  0
    5.4641   -0.3100    0.0000 C   0  0  0  0  0  0  0  0  0  0  0  0
    7.1962   -0.3100    0.0000 C   0  0  0  0  0  0  0  0  0  0  0  0
    4.5981   -0.8100    0.0000 C   0  0  0  0  0  0  0  0  0  0  0  0
    9.7942   -1.8100    0.0000 C   0  0  0  0  0  0  0  0  0  0  0  0
   11.5263    1.1900    0.0000 C   0  0  0  0  0  0  0  0  0  0  0  0
   15.0183   -0.8447    0.0000 C   0  0  0  0  0  0  0  0  0  0  0  0
   15.0183    1.2247    0.0000 C   0  0  0  0  0  0  0  0  0  0  0  0
    6.3301   -1.8100    0.0000 C   0  0  0  0  0  0  0  0  0  0  0  0
    3.7320   -0.3100    0.0000 C   0  0  0  0  0  0  0  0  0  0  0  0
   15.9244   -0.3308    0.0000 C   0  0  0  0  0  0  0  0  0  0  0  0
   15.9244    0.7108    0.0000 C   0  0  0  0  0  0  0  0  0  0  0  0
    2.8660   -0.8100    0.0000 C   0  0  0  0  0  0  0  0  0  0  0  0
    2.0000   -0.3100    0.0000 C   0  0  0  0  0  0  0  0  0  0  0  0
    2.8660   -1.8100    0.0000 C   0  0  0  0  0  0  0  0  0  0  0  0
    9.3267    0.1649    0.0000 H   0  0  0  0  0  0  0  0  0  0  0  0
    8.5297    0.1649    0.0000 H   0  0  0  0  0  0  0  0  0  0  0  0
   11.1278   -1.2850    0.0000 H   0  0  0  0  0  0  0  0  0  0  0  0
   11.9248   -1.2850    0.0000 H   0  0  0  0  0  0  0  0  0  0  0  0
    7.6636   -1.2850    0.0000 H   0  0  0  0  0  0  0  0  0  0  0  0
    8.4607   -1.2850    0.0000 H   0  0  0  0  0  0  0  0  0  0  0  0
   10.6603    0.3100    0.0000 H   0  0  0  0  0  0  0  0  0  0  0  0
    5.8626    0.1649    0.0000 H   0  0  0  0  0  0  0  0  0  0  0  0
    5.0656    0.1649    0.0000 H   0  0  0  0  0  0  0  0  0  0  0  0
    7.1962    0.3100    0.0000 H   0  0  0  0  0  0  0  0  0  0  0  0
   13.2583    1.8100    0.0000 H   0  0  0  0  0  0  0  0  0  0  0  0
    4.1996   -1.2850    0.0000 H   0  0  0  0  0  0  0  0  0  0  0  0
    4.9966   -1.2850    0.0000 H   0  0  0  0  0  0  0  0  0  0  0  0
    9.1742   -1.8100    0.0000 H   0  0  0  0  0  0  0  0  0  0  0  0
    9.7942   -2.4300    0.0000 H   0  0  0  0  0  0  0  0  0  0  0  0
   10.4142   -1.8100    0.0000 H   0  0  0  0  0  0  0  0  0  0  0  0
   11.8363    1.7269    0.0000 H   0  0  0  0  0  0  0  0  0  0  0  0
   10.9893    1.5000    0.0000 H   0  0  0  0  0  0  0  0  0  0  0  0
   11.2163    0.6531    0.0000 H   0  0  0  0  0  0  0  0  0  0  0  0
   15.0111   -1.4646    0.0000 H   0  0  0  0  0  0  0  0  0  0  0  0
   15.0111    1.8446    0.0000 H   0  0  0  0  0  0  0  0  0  0  0  0
    5.7101   -1.8100    0.0000 H   0  0  0  0  0  0  0  0  0  0  0  0
    6.3301   -2.4300    0.0000 H   0  0  0  0  0  0  0  0  0  0  0  0
    6.9501   -1.8100    0.0000 H   0  0  0  0  0  0  0  0  0  0  0  0
    3.7320    0.3100    0.0000 H   0  0  0  0  0  0  0  0  0  0  0  0
   16.4601   -0.6429    0.0000 H   0  0  0  0  0  0  0  0  0  0  0  0
   16.4601    1.0229    0.0000 H   0  0  0  0  0  0  0  0  0  0  0  0
    2.2460   -1.8100    0.0000 H   0  0  0  0  0  0  0  0  0  0  0  0
    2.8660   -2.4300    0.0000 H   0  0  0  0  0  0  0  0  0  0  0  0
    3.4860   -1.8100    0.0000 H   0  0  0  0  0  0  0  0  0  0  0  0
    2.3100    0.2269    0.0000 H   0  0  0  0  0  0  0  0  0  0  0  0
    1.4631    0.0000    0.0000 H   0  0  0  0  0  0  0  0  0  0  0  0
    1.6900   -0.8469    0.0000 H   0  0  0  0  0  0  0  0  0  0  0  0
  1 11  2  0  0  0  0
  2  8  1  0  0  0  0
  2 12  1  0  0  0  0
  2 38  1  0  0  0  0
  3  5  1  0  0  0  0
  3  8  2  0  0  0  0
  3 11  1  0  0  0  0
  4  6  1  0  0  0  0
  4  7  1  0  0  0  0
  4 28  1  0  0  0  0
  4 29  1  0  0  0  0
  5  9  1  0  0  0  0
  5 30  1  0  0  0  0
  5 31  1  0  0  0  0
  6 15  1  0  0  0  0
  6 32  1  0  0  0  0
  6 33  1  0  0  0  0
  7  9  2  0  0  0  0
  7 17  1  0  0  0  0
  8 18  1  0  0  0  0
  9 34  1  0  0  0  0
 10 11  1  0  0  0  0
 10 12  1  0  0  0  0
 10 19  2  0  0  0  0
 12 20  2  0  0  0  0
 13 14  1  0  0  0  0
 13 15  2  0  0  0  0
 13 21  1  0  0  0  0
 14 16  1  0  0  0  0
 14 35  1  0  0  0  0
 14 36  1  0  0  0  0
 15 37  1  0  0  0  0
 16 22  1  0  0  0  0
 16 39  1  0  0  0  0
 16 40  1  0  0  0  0
 17 41  1  0  0  0  0
 17 42  1  0  0  0  0
 17 43  1  0  0  0  0
 18 44  1  0  0  0  0
 18 45  1  0  0  0  0
 18 46  1  0  0  0  0
 19 23  1  0  0  0  0
 19 47  1  0  0  0  0
 20 24  1  0  0  0  0
 20 48  1  0  0  0  0
 21 49  1  0  0  0  0
 21 50  1  0  0  0  0
 21 51  1  0  0  0  0
 22 25  2  0  0  0  0
 22 52  1  0  0  0  0
 23 24  2  0  0  0  0
 23 53  1  0  0  0  0
 24 54  1  0  0  0  0
 25 26  1  0  0  0  0
 25 27  1  0  0  0  0
 26 58  1  0  0  0  0
 26 59  1  0  0  0  0
 26 60  1  0  0  0  0
 27 55  1  0  0  0  0
 27 56  1  0  0  0  0
 27 57  1  0  0  0  0
M  END
> <PUBCHEM_COMPOUND_CID>
6124753

> <PUBCHEM_COMPOUND_CANONICALIZED>
1

> <PUBCHEM_CACTVS_COMPLEXITY>
643

> <PUBCHEM_CACTVS_HBOND_ACCEPTOR>
2

> <PUBCHEM_CACTVS_HBOND_DONOR>
1

> <PUBCHEM_CACTVS_ROTATABLE_BOND>
8

> <PUBCHEM_CACTVS_SUBSKEYS>
AAADcfB6IAAAAAAAAAAAAAAAAAAAAAAAAAAwQAAAAAAAAACBAAAAHgAQAAAADAyBmAAywILAAACIAqRSQACCAAAlAgAIiAEAZMgIIDrAlZGEIYhgkADIyccYiICOAAAAAAACAAAAAAAAAAQAAAAAAAAAAA==

> <PUBCHEM_IUPAC_OPENEYE_NAME>
2-methyl-3-[(2E,6E)-3,7,11-trimethyldodeca-2,6,10-trienyl]-1H-quinolin-4-one

> <PUBCHEM_IUPAC_CAS_NAME>
2-methyl-3-[(2E,6E)-3,7,11-trimethyldodeca-2,6,10-trienyl]-1H-quinolin-4-one

> <PUBCHEM_IUPAC_NAME>
2-methyl-3-[(2E,6E)-3,7,11-trimethyldodeca-2,6,10-trienyl]-1H-quinolin-4-one

> <PUBCHEM_IUPAC_SYSTEMATIC_NAME>
2-methyl-3-[(2E,6E)-3,7,11-trimethyldodeca-2,6,10-trienyl]-1H-quinolin-4-one

> <PUBCHEM_IUPAC_TRADITIONAL_NAME>
2-methyl-3-[(2E,6E)-3,7,11-trimethyldodeca-2,6,10-trienyl]-4-quinolone

> <PUBCHEM_IUPAC_INCHI>
InChI=1S/C25H33NO/c1-18(2)10-8-11-19(3)12-9-13-20(4)16-17-22-21(5)26-24-15-7-6-14-23(24)25(22)27/h6-7,10,12,14-16H,8-9,11,13,17H2,1-5H3,(H,26,27)/b19-12+,20-16+

> <PUBCHEM_IUPAC_INCHIKEY>
JHMLNOXMSHURLQ-YEFHWUCQSA-N

> <PUBCHEM_XLOGP3_AA>
7.6

> <PUBCHEM_EXACT_MASS>
363.256215

> <PUBCHEM_MOLECULAR_FORMULA>
C25H33NO

> <PUBCHEM_MOLECULAR_WEIGHT>
363.53562

> <PUBCHEM_OPENEYE_CAN_SMILES>
CC1=C(C(=O)C2=CC=CC=C2N1)CC=C(C)CCC=C(C)CCC=C(C)C

> <PUBCHEM_OPENEYE_ISO_SMILES>
CC1=C(C(=O)C2=CC=CC=C2N1)C/C=C(\C)/CC/C=C(\C)/CCC=C(C)C

> <PUBCHEM_CACTVS_TPSA>
29.1

> <PUBCHEM_MONOISOTOPIC_WEIGHT>
363.256215

> <PUBCHEM_TOTAL_CHARGE>
0

> <PUBCHEM_HEAVY_ATOM_COUNT>
27

> <PUBCHEM_ATOM_DEF_STEREO_COUNT>
0

> <PUBCHEM_ATOM_UDEF_STEREO_COUNT>
0

> <PUBCHEM_BOND_DEF_STEREO_COUNT>
2

> <PUBCHEM_BOND_UDEF_STEREO_COUNT>
0

> <PUBCHEM_ISOTOPIC_ATOM_COUNT>
0

> <PUBCHEM_COMPONENT_COUNT>
1

> <PUBCHEM_CACTVS_TAUTO_COUNT>
15

> <PUBCHEM_COORDINATE_TYPE>
1
5
255

> <PUBCHEM_BONDANNOTATIONS>
10  11  8
10  12  8
10  19  8
12  20  8
19  23  8
2  12  8
2  8  8
20  24  8
23  24  8
3  11  8
3  8  8

$$$$

