854333
  -OEChem-06241222482D

 33 35  0     0  0  0  0  0  0999 V2000
    6.3301   -0.5173    0.0000 O   0  0  0  0  0  0  0  0  0  0  0  0
    9.8222   -0.5520    0.0000 O   0  0  0  0  0  0  0  0  0  0  0  0
    4.5981   -1.5173    0.0000 O   0  0  0  0  0  0  0  0  0  0  0  0
   11.5923   -0.5415    0.0000 O   0  0  0  0  0  0  0  0  0  0  0  0
    8.9282    0.9827    0.0000 C   0  0  0  0  0  0  0  0  0  0  0  0
    8.9282   -0.0173    0.0000 C   0  0  0  0  0  0  0  0  0  0  0  0
    7.1962   -0.0173    0.0000 C   0  0  0  0  0  0  0  0  0  0  0  0
    8.0622   -0.5173    0.0000 C   0  0  0  0  0  0  0  0  0  0  0  0
    8.0622    1.4827    0.0000 C   0  0  0  0  0  0  0  0  0  0  0  0
    7.1962    0.9827    0.0000 C   0  0  0  0  0  0  0  0  0  0  0  0
    5.4641   -0.0173    0.0000 C   0  0  0  0  0  0  0  0  0  0  0  0
    9.8222    1.5173    0.0000 C   0  0  0  0  0  0  0  0  0  0  0  0
    3.7320   -0.0173    0.0000 C   0  0  0  0  0  0  0  0  0  0  0  0
    4.5981   -0.5173    0.0000 C   0  0  0  0  0  0  0  0  0  0  0  0
   10.7282    1.0035    0.0000 C   0  0  0  0  0  0  0  0  0  0  0  0
    3.7320    0.9827    0.0000 C   0  0  0  0  0  0  0  0  0  0  0  0
    2.8660   -0.5173    0.0000 C   0  0  0  0  0  0  0  0  0  0  0  0
   10.7282   -0.0381    0.0000 C   0  0  0  0  0  0  0  0  0  0  0  0
    2.8660    1.4827    0.0000 C   0  0  0  0  0  0  0  0  0  0  0  0
    2.0000   -0.0173    0.0000 C   0  0  0  0  0  0  0  0  0  0  0  0
    2.0000    0.9827    0.0000 C   0  0  0  0  0  0  0  0  0  0  0  0
    8.0622   -1.1373    0.0000 H   0  0  0  0  0  0  0  0  0  0  0  0
    8.0622    2.1027    0.0000 H   0  0  0  0  0  0  0  0  0  0  0  0
    6.6592    1.2927    0.0000 H   0  0  0  0  0  0  0  0  0  0  0  0
    5.8626    0.4576    0.0000 H   0  0  0  0  0  0  0  0  0  0  0  0
    5.0656    0.4576    0.0000 H   0  0  0  0  0  0  0  0  0  0  0  0
    9.8150    2.1373    0.0000 H   0  0  0  0  0  0  0  0  0  0  0  0
   11.2639    1.3156    0.0000 H   0  0  0  0  0  0  0  0  0  0  0  0
    4.2690    1.2927    0.0000 H   0  0  0  0  0  0  0  0  0  0  0  0
    2.8660   -1.1373    0.0000 H   0  0  0  0  0  0  0  0  0  0  0  0
    2.8660    2.1027    0.0000 H   0  0  0  0  0  0  0  0  0  0  0  0
    1.4631   -0.3273    0.0000 H   0  0  0  0  0  0  0  0  0  0  0  0
    1.4631    1.2927    0.0000 H   0  0  0  0  0  0  0  0  0  0  0  0
  1  7  1  0  0  0  0
  1 11  1  0  0  0  0
  2  6  1  0  0  0  0
  2 18  1  0  0  0  0
  3 14  2  0  0  0  0
  4 18  2  0  0  0  0
  5  6  2  0  0  0  0
  5  9  1  0  0  0  0
  5 12  1  0  0  0  0
  6  8  1  0  0  0  0
  7  8  2  0  0  0  0
  7 10  1  0  0  0  0
  8 22  1  0  0  0  0
  9 10  2  0  0  0  0
  9 23  1  0  0  0  0
 10 24  1  0  0  0  0
 11 14  1  0  0  0  0
 11 25  1  0  0  0  0
 11 26  1  0  0  0  0
 12 15  2  0  0  0  0
 12 27  1  0  0  0  0
 13 14  1  0  0  0  0
 13 16  2  0  0  0  0
 13 17  1  0  0  0  0
 15 18  1  0  0  0  0
 15 28  1  0  0  0  0
 16 19  1  0  0  0  0
 16 29  1  0  0  0  0
 17 20  2  0  0  0  0
 17 30  1  0  0  0  0
 19 21  2  0  0  0  0
 19 31  1  0  0  0  0
 20 21  1  0  0  0  0
 20 32  1  0  0  0  0
 21 33  1  0  0  0  0
M  END
> <PUBCHEM_COMPOUND_CID>
854333

> <PUBCHEM_COMPOUND_CANONICALIZED>
1

> <PUBCHEM_CACTVS_COMPLEXITY>
423

> <PUBCHEM_CACTVS_HBOND_ACCEPTOR>
4

> <PUBCHEM_CACTVS_HBOND_DONOR>
0

> <PUBCHEM_CACTVS_ROTATABLE_BOND>
4

> <PUBCHEM_CACTVS_SUBSKEYS>
AAADccB4OAAAAAAAAAAAAAAAAAAAAAAAAAAwYIAAAAAAAACBQAAAGgAAAAAADASgmAIwDoAABACIAqDSCAICCAAkIAAIiAFGCMgMJzKENR6COyClwBUIqYeI6KyOIAAACAAIAABAAAAQABAAAAAAAAAAAA==

> <PUBCHEM_IUPAC_OPENEYE_NAME>
7-phenacyloxychromen-2-one

> <PUBCHEM_IUPAC_CAS_NAME>
7-phenacyloxy-1-benzopyran-2-one

> <PUBCHEM_IUPAC_NAME>
7-phenacyloxychromen-2-one

> <PUBCHEM_IUPAC_SYSTEMATIC_NAME>
7-phenacyloxychromen-2-one

> <PUBCHEM_IUPAC_TRADITIONAL_NAME>
7-phenacyloxycoumarin

> <PUBCHEM_IUPAC_INCHI>
InChI=1S/C17H12O4/c18-15(12-4-2-1-3-5-12)11-20-14-8-6-13-7-9-17(19)21-16(13)10-14/h1-10H,11H2

> <PUBCHEM_IUPAC_INCHIKEY>
XFZPLDRMRZGQKD-UHFFFAOYSA-N

> <PUBCHEM_XLOGP3>
3.3

> <PUBCHEM_EXACT_MASS>
280.073559

> <PUBCHEM_MOLECULAR_FORMULA>
C17H12O4

> <PUBCHEM_MOLECULAR_WEIGHT>
280.27478

> <PUBCHEM_OPENEYE_CAN_SMILES>
C1=CC=C(C=C1)C(=O)COC2=CC3=C(C=C2)C=CC(=O)O3

> <PUBCHEM_OPENEYE_ISO_SMILES>
C1=CC=C(C=C1)C(=O)COC2=CC3=C(C=C2)C=CC(=O)O3

> <PUBCHEM_CACTVS_TPSA>
52.6

> <PUBCHEM_MONOISOTOPIC_WEIGHT>
280.073559

> <PUBCHEM_TOTAL_CHARGE>
0

> <PUBCHEM_HEAVY_ATOM_COUNT>
21

> <PUBCHEM_ATOM_DEF_STEREO_COUNT>
0

> <PUBCHEM_ATOM_UDEF_STEREO_COUNT>
0

> <PUBCHEM_BOND_DEF_STEREO_COUNT>
0

> <PUBCHEM_BOND_UDEF_STEREO_COUNT>
0

> <PUBCHEM_ISOTOPIC_ATOM_COUNT>
0

> <PUBCHEM_COMPONENT_COUNT>
1

> <PUBCHEM_CACTVS_TAUTO_COUNT>
2

> <PUBCHEM_COORDINATE_TYPE>
1
5
255

> <PUBCHEM_BONDANNOTATIONS>
12  15  8
13  16  8
13  17  8
15  18  8
16  19  8
17  20  8
19  21  8
2  18  8
2  6  8
20  21  8
5  12  8
5  6  8
5  9  8
6  8  8
7  10  8
7  8  8
9  10  8

$$$$

