11953981
  -OEChem-07051213022D

 91 95  0     1  0  0  0  0  0999 V2000
    8.1282   -1.7500    0.0000 O   0  0  0  0  0  0  0  0  0  0  0  0
    8.1282   -0.7500    0.0000 O   0  0  0  0  0  0  0  0  0  0  0  0
    5.5301    0.7500    0.0000 O   0  0  0  0  0  0  0  0  0  0  0  0
    5.5301   -3.2500    0.0000 O   0  0  0  0  0  0  0  0  0  0  0  0
    4.1714    4.6939    0.0000 O   0  0  0  0  0  0  0  0  0  0  0  0
    4.3221    4.1897    0.0000 O   0  0  0  0  0  0  0  0  0  0  0  0
    6.5301    1.7500    0.0000 O   0  0  0  0  0  0  0  0  0  0  0  0
    2.0000    3.7742    0.0000 O   0  0  0  0  0  0  0  0  0  0  0  0
   10.7263    3.7500    0.0000 O   0  0  0  0  0  0  0  0  0  0  0  0
    7.2622   -1.2500    0.0000 C   0  0  2  0  0  0  0  0  0  0  0  0
    8.1282   -2.7500    0.0000 C   0  0  1  0  0  0  0  0  0  0  0  0
    7.2622   -3.2500    0.0000 C   0  0  2  0  0  0  0  0  0  0  0  0
    6.3961   -1.7500    0.0000 C   0  0  0  0  0  0  0  0  0  0  0  0
    6.3961   -2.7500    0.0000 C   0  0  2  0  0  0  0  0  0  0  0  0
    6.3961   -0.7500    0.0000 C   0  0  0  0  0  0  0  0  0  0  0  0
    6.3961    0.2500    0.0000 C   0  0  2  0  0  0  0  0  0  0  0  0
    8.9942   -3.2500    0.0000 C   0  0  3  0  0  0  0  0  0  0  0  0
    8.1282    0.2500    0.0000 C   0  0  1  0  0  0  0  0  0  0  0  0
    7.2622    0.7500    0.0000 C   0  0  0  0  0  0  0  0  0  0  0  0
    7.2622   -4.2500    0.0000 C   0  0  0  0  0  0  0  0  0  0  0  0
    8.9942   -4.2500    0.0000 C   0  0  0  0  0  0  0  0  0  0  0  0
    8.9942    0.7500    0.0000 C   0  0  0  0  0  0  0  0  0  0  0  0
    4.6641    3.2500    0.0000 C   0  0  2  0  0  0  0  0  0  0  0  0
    9.8602   -2.7500    0.0000 C   0  0  0  0  0  0  0  0  0  0  0  0
    4.6641    2.2500    0.0000 C   0  0  2  0  0  0  0  0  0  0  0  0
    3.7702    3.7847    0.0000 C   0  0  1  0  0  0  0  0  0  0  0  0
    5.5301    1.7500    0.0000 C   0  0  0  0  0  0  0  0  0  0  0  0
    5.5301    3.7500    0.0000 C   0  0  0  0  0  0  0  0  0  0  0  0
    9.8602   -4.7500    0.0000 C   0  0  0  0  0  0  0  0  0  0  0  0
    8.9942    1.7500    0.0000 C   0  0  0  0  0  0  0  0  0  0  0  0
    3.7702    1.7153    0.0000 C   0  0  0  0  0  0  0  0  0  0  0  0
    5.1650    4.6743    0.0000 C   0  0  0  0  0  0  0  0  0  0  0  0
    2.8641    3.2708    0.0000 C   0  0  0  0  0  0  0  0  0  0  0  0
    2.8641    2.2292    0.0000 C   0  0  0  0  0  0  0  0  0  0  0  0
    9.8602    2.2500    0.0000 C   0  0  0  0  0  0  0  0  0  0  0  0
    6.3961    3.2500    0.0000 C   0  0  0  0  0  0  0  0  0  0  0  0
    9.8602    3.2500    0.0000 C   0  0  2  0  0  0  0  0  0  0  0  0
    2.0000    1.7258    0.0000 C   0  0  0  0  0  0  0  0  0  0  0  0
    8.9942    3.7500    0.0000 C   0  0  2  0  0  0  0  0  0  0  0  0
    7.2622    3.7500    0.0000 C   0  0  0  0  0  0  0  0  0  0  0  0
   10.7263    1.7500    0.0000 C   0  0  0  0  0  0  0  0  0  0  0  0
    8.1282    3.2500    0.0000 C   0  0  0  0  0  0  0  0  0  0  0  0
    8.9942    4.7500    0.0000 C   0  0  0  0  0  0  0  0  0  0  0  0
    8.6651   -2.4400    0.0000 H   0  0  0  0  0  0  0  0  0  0  0  0
    6.7252   -3.5600    0.0000 H   0  0  0  0  0  0  0  0  0  0  0  0
    6.1841   -1.1674    0.0000 H   0  0  0  0  0  0  0  0  0  0  0  0
    5.7856   -1.8577    0.0000 H   0  0  0  0  0  0  0  0  0  0  0  0
    5.8592   -2.4400    0.0000 H   0  0  0  0  0  0  0  0  0  0  0  0
    5.7856   -0.6423    0.0000 H   0  0  0  0  0  0  0  0  0  0  0  0
    6.1841   -1.3326    0.0000 H   0  0  0  0  0  0  0  0  0  0  0  0
    5.6600   -0.1750    0.0000 H   0  0  0  0  0  0  0  0  0  0  0  0
    8.9942   -2.4000    0.0000 H   0  0  0  0  0  0  0  0  0  0  0  0
    8.8643   -0.1750    0.0000 H   0  0  0  0  0  0  0  0  0  0  0  0
    7.6607    1.2250    0.0000 H   0  0  0  0  0  0  0  0  0  0  0  0
    6.8636    1.2250    0.0000 H   0  0  0  0  0  0  0  0  0  0  0  0
    6.6422   -4.2500    0.0000 H   0  0  0  0  0  0  0  0  0  0  0  0
    7.2622   -4.8700    0.0000 H   0  0  0  0  0  0  0  0  0  0  0  0
    7.8822   -4.2500    0.0000 H   0  0  0  0  0  0  0  0  0  0  0  0
    8.3836   -4.1423    0.0000 H   0  0  0  0  0  0  0  0  0  0  0  0
    8.7822   -4.8326    0.0000 H   0  0  0  0  0  0  0  0  0  0  0  0
    9.2063    0.1674    0.0000 H   0  0  0  0  0  0  0  0  0  0  0  0
    9.6048    0.8577    0.0000 H   0  0  0  0  0  0  0  0  0  0  0  0
   10.1703   -3.2869    0.0000 H   0  0  0  0  0  0  0  0  0  0  0  0
   10.3972   -2.4400    0.0000 H   0  0  0  0  0  0  0  0  0  0  0  0
    9.5502   -2.2131    0.0000 H   0  0  0  0  0  0  0  0  0  0  0  0
    4.6641    1.4000    0.0000 H   0  0  0  0  0  0  0  0  0  0  0  0
    5.5301   -3.8700    0.0000 H   0  0  0  0  0  0  0  0  0  0  0  0
    3.1397    4.3548    0.0000 H   0  0  0  0  0  0  0  0  0  0  0  0
    9.5502   -5.2869    0.0000 H   0  0  0  0  0  0  0  0  0  0  0  0
   10.3972   -5.0600    0.0000 H   0  0  0  0  0  0  0  0  0  0  0  0
   10.1703   -4.2131    0.0000 H   0  0  0  0  0  0  0  0  0  0  0  0
    8.4573    2.0600    0.0000 H   0  0  0  0  0  0  0  0  0  0  0  0
    3.7773    1.0954    0.0000 H   0  0  0  0  0  0  0  0  0  0  0  0
    5.7666    4.8242    0.0000 H   0  0  0  0  0  0  0  0  0  0  0  0
    5.0956    5.2904    0.0000 H   0  0  0  0  0  0  0  0  0  0  0  0
    3.7395    4.4018    0.0000 H   0  0  0  0  0  0  0  0  0  0  0  0
    6.7062    2.7131    0.0000 H   0  0  0  0  0  0  0  0  0  0  0  0
   10.3972    2.9400    0.0000 H   0  0  0  0  0  0  0  0  0  0  0  0
    1.6879    2.2616    0.0000 H   0  0  0  0  0  0  0  0  0  0  0  0
    1.4643    1.4138    0.0000 H   0  0  0  0  0  0  0  0  0  0  0  0
    2.3121    1.1901    0.0000 H   0  0  0  0  0  0  0  0  0  0  0  0
    8.4573    4.0600    0.0000 H   0  0  0  0  0  0  0  0  0  0  0  0
    7.2622    4.3700    0.0000 H   0  0  0  0  0  0  0  0  0  0  0  0
   10.4163    1.2131    0.0000 H   0  0  0  0  0  0  0  0  0  0  0  0
   11.2632    1.4400    0.0000 H   0  0  0  0  0  0  0  0  0  0  0  0
   11.0363    2.2869    0.0000 H   0  0  0  0  0  0  0  0  0  0  0  0
    8.1282    2.6300    0.0000 H   0  0  0  0  0  0  0  0  0  0  0  0
    9.6142    4.7500    0.0000 H   0  0  0  0  0  0  0  0  0  0  0  0
    8.9942    5.3700    0.0000 H   0  0  0  0  0  0  0  0  0  0  0  0
    8.3742    4.7500    0.0000 H   0  0  0  0  0  0  0  0  0  0  0  0
   11.2632    3.4400    0.0000 H   0  0  0  0  0  0  0  0  0  0  0  0
 10  1  1  6  0  0  0
  1 11  1  0  0  0  0
  2 10  1  0  0  0  0
  2 18  1  0  0  0  0
  3 16  1  0  0  0  0
  3 27  1  0  0  0  0
 14  4  1  1  0  0  0
  4 67  1  0  0  0  0
  5 26  1  0  0  0  0
  5 32  1  0  0  0  0
 23  6  1  6  0  0  0
  6 76  1  0  0  0  0
  7 27  2  0  0  0  0
  8 33  2  0  0  0  0
 37  9  1  6  0  0  0
  9 91  1  0  0  0  0
 10 13  1  0  0  0  0
 10 15  1  0  0  0  0
 11 12  1  0  0  0  0
 11 17  1  6  0  0  0
 11 44  1  0  0  0  0
 12 14  1  0  0  0  0
 12 20  1  1  0  0  0
 12 45  1  0  0  0  0
 13 14  1  0  0  0  0
 13 46  1  0  0  0  0
 13 47  1  0  0  0  0
 14 48  1  0  0  0  0
 15 16  1  0  0  0  0
 15 49  1  0  0  0  0
 15 50  1  0  0  0  0
 16 19  1  0  0  0  0
 16 51  1  6  0  0  0
 17 21  1  0  0  0  0
 17 24  1  0  0  0  0
 17 52  1  0  0  0  0
 18 19  1  0  0  0  0
 18 22  1  0  0  0  0
 18 53  1  6  0  0  0
 19 54  1  0  0  0  0
 19 55  1  0  0  0  0
 20 56  1  0  0  0  0
 20 57  1  0  0  0  0
 20 58  1  0  0  0  0
 21 29  1  0  0  0  0
 21 59  1  0  0  0  0
 21 60  1  0  0  0  0
 22 30  1  0  0  0  0
 22 61  1  0  0  0  0
 22 62  1  0  0  0  0
 23 25  1  0  0  0  0
 23 26  1  0  0  0  0
 23 28  1  0  0  0  0
 24 63  1  0  0  0  0
 24 64  1  0  0  0  0
 24 65  1  0  0  0  0
 25 27  1  0  0  0  0
 25 31  1  0  0  0  0
 25 66  1  1  0  0  0
 26 33  1  0  0  0  0
 26 68  1  6  0  0  0
 28 32  1  0  0  0  0
 28 36  2  0  0  0  0
 29 69  1  0  0  0  0
 29 70  1  0  0  0  0
 29 71  1  0  0  0  0
 30 35  2  0  0  0  0
 30 72  1  0  0  0  0
 31 34  2  0  0  0  0
 31 73  1  0  0  0  0
 32 74  1  0  0  0  0
 32 75  1  0  0  0  0
 33 34  1  0  0  0  0
 34 38  1  0  0  0  0
 35 37  1  0  0  0  0
 35 41  1  0  0  0  0
 36 40  1  0  0  0  0
 36 77  1  0  0  0  0
 37 39  1  0  0  0  0
 37 78  1  0  0  0  0
 38 79  1  0  0  0  0
 38 80  1  0  0  0  0
 38 81  1  0  0  0  0
 39 42  1  0  0  0  0
 39 43  1  6  0  0  0
 39 82  1  0  0  0  0
 40 42  2  0  0  0  0
 40 83  1  0  0  0  0
 41 84  1  0  0  0  0
 41 85  1  0  0  0  0
 41 86  1  0  0  0  0
 42 87  1  0  0  0  0
 43 88  1  0  0  0  0
 43 89  1  0  0  0  0
 43 90  1  0  0  0  0
M  END
> <PUBCHEM_COMPOUND_CID>
11953981

> <PUBCHEM_COMPOUND_CANONICALIZED>
1

> <PUBCHEM_CACTVS_COMPLEXITY>
1220

> <PUBCHEM_CACTVS_HBOND_ACCEPTOR>
9

> <PUBCHEM_CACTVS_HBOND_DONOR>
3

> <PUBCHEM_CACTVS_ROTATABLE_BOND>
2

> <PUBCHEM_CACTVS_SUBSKEYS>
AAADcfB8PAAAAAAAAAAAAAAAAAAAASAAAAAkSIAAAAAAAEAAAAAAGgAACAAADVSggAICCAAABgCIAqDSCAIAAAAgAAAICAFAAEgZFBYAIQQiUAAF4AAPsYPK7uyugAAAAAAAAAAAAAAAAAAAAAAAAAAAAA==

> <PUBCHEM_IUPAC_INCHI>
InChI=1S/C34H48O9/c1-7-18(2)30-22(6)27(35)16-33(43-30)15-25-14-24(42-33)12-11-20(4)28(36)19(3)9-8-10-23-17-40-31-29(37)21(5)13-26(32(38)41-25)34(23,31)39/h8-11,13,18-19,22,24-28,30-31,35-36,39H,7,12,14-17H2,1-6H3/b9-8+,20-11+,23-10+/t18?,19-,22-,24+,25-,26-,27-,28-,30+,31+,33-,34+/m0/s1

> <PUBCHEM_IUPAC_INCHIKEY>
AWFYDDCOWUMYCB-ILCSDPHRSA-N

> <PUBCHEM_XLOGP3_AA>
3.1

> <PUBCHEM_EXACT_MASS>
600.329833

> <PUBCHEM_MOLECULAR_FORMULA>
C34H48O9

> <PUBCHEM_MOLECULAR_WEIGHT>
600.73952

> <PUBCHEM_OPENEYE_CAN_SMILES>
CCC(C)C1C(C(CC2(O1)CC3CC(O2)CC=C(C(C(C=CC=C4COC5C4(C(C=C(C5=O)C)C(=O)O3)O)C)O)C)O)C

> <PUBCHEM_OPENEYE_ISO_SMILES>
CCC(C)[C@@H]1[C@H]([C@H](C[C@@]2(O1)C[C@@H]3C[C@H](O2)C/C=C(/[C@H]([C@H](/C=C/C=C/4\CO[C@H]5[C@@]4([C@@H](C=C(C5=O)C)C(=O)O3)O)C)O)\C)O)C

> <PUBCHEM_CACTVS_TPSA>
132

> <PUBCHEM_MONOISOTOPIC_WEIGHT>
600.329833

> <PUBCHEM_TOTAL_CHARGE>
0

> <PUBCHEM_HEAVY_ATOM_COUNT>
43

> <PUBCHEM_ATOM_DEF_STEREO_COUNT>
11

> <PUBCHEM_ATOM_UDEF_STEREO_COUNT>
1

> <PUBCHEM_BOND_DEF_STEREO_COUNT>
3

> <PUBCHEM_BOND_UDEF_STEREO_COUNT>
0

> <PUBCHEM_ISOTOPIC_ATOM_COUNT>
0

> <PUBCHEM_COMPONENT_COUNT>
1

> <PUBCHEM_CACTVS_TAUTO_COUNT>
7

> <PUBCHEM_COORDINATE_TYPE>
1
5
255

> <PUBCHEM_BONDANNOTATIONS>
10  1  6
11  17  6
12  20  5
16  51  6
17  52  3
18  53  6
25  66  5
26  68  6
39  43  6
14  4  5
23  6  6
37  9  6

$$$$

