11954079
  -OEChem-07051213062D

 48 51  0     1  0  0  0  0  0999 V2000
    8.6500    2.3894    0.0000 O   0  0  0  0  0  0  0  0  0  0  0  0
    7.4149   -1.8973    0.0000 O   0  0  0  0  0  0  0  0  0  0  0  0
    2.0000   -1.9182    0.0000 O   0  0  0  0  0  0  0  0  0  0  0  0
    7.3931    0.1342    0.0000 C   0  0  2  0  0  0  0  0  0  0  0  0
    7.3931    1.1342    0.0000 C   0  0  2  0  0  0  0  0  0  0  0  0
    6.5271   -0.3658    0.0000 C   0  0  1  0  0  0  0  0  0  0  0  0
    5.6610    0.1342    0.0000 C   0  0  2  0  0  0  0  0  0  0  0  0
    6.5271    1.6342    0.0000 C   0  0  0  0  0  0  0  0  0  0  0  0
    8.3393    1.4389    0.0000 C   0  0  2  0  0  0  0  0  0  0  0  0
    5.6610    1.1342    0.0000 C   0  0  0  0  0  0  0  0  0  0  0  0
    8.3393   -0.1706    0.0000 C   0  0  0  0  0  0  0  0  0  0  0  0
    4.7510   -0.3727    0.0000 C   0  0  1  0  0  0  0  0  0  0  0  0
    6.5431   -1.4074    0.0000 C   0  0  1  0  0  0  0  0  0  0  0  0
    8.9229    0.6342    0.0000 C   0  0  0  0  0  0  0  0  0  0  0  0
    7.3931    2.1342    0.0000 C   0  0  0  0  0  0  0  0  0  0  0  0
    5.6451   -1.9351    0.0000 C   0  0  0  0  0  0  0  0  0  0  0  0
    4.7430   -1.4143    0.0000 C   0  0  0  0  0  0  0  0  0  0  0  0
    4.7587    0.6273    0.0000 C   0  0  0  0  0  0  0  0  0  0  0  0
    3.8242    0.1914    0.0000 C   0  0  0  0  0  0  0  0  0  0  0  0
    3.8076   -1.9640    0.0000 C   0  0  0  0  0  0  0  0  0  0  0  0
    2.8763   -0.3366    0.0000 C   0  0  0  0  0  0  0  0  0  0  0  0
    2.8680   -1.4215    0.0000 C   0  0  0  0  0  0  0  0  0  0  0  0
    7.4830   -0.7111    0.0000 H   0  0  0  0  0  0  0  0  0  0  0  0
    7.2664   -0.7852    0.0000 H   0  0  0  0  0  0  0  0  0  0  0  0
    6.3972    0.5592    0.0000 H   0  0  0  0  0  0  0  0  0  0  0  0
    6.9256    2.1091    0.0000 H   0  0  0  0  0  0  0  0  0  0  0  0
    6.1285    2.1091    0.0000 H   0  0  0  0  0  0  0  0  0  0  0  0
    5.4490    1.7168    0.0000 H   0  0  0  0  0  0  0  0  0  0  0  0
    5.0504    1.0265    0.0000 H   0  0  0  0  0  0  0  0  0  0  0  0
    7.9018    1.8782    0.0000 H   0  0  0  0  0  0  0  0  0  0  0  0
    8.0883   -0.7375    0.0000 H   0  0  0  0  0  0  0  0  0  0  0  0
    8.8767   -0.4798    0.0000 H   0  0  0  0  0  0  0  0  0  0  0  0
    6.5491   -2.0273    0.0000 H   0  0  0  0  0  0  0  0  0  0  0  0
    9.3838    0.2194    0.0000 H   0  0  0  0  0  0  0  0  0  0  0  0
    9.3838    1.0489    0.0000 H   0  0  0  0  0  0  0  0  0  0  0  0
    8.0131    2.1342    0.0000 H   0  0  0  0  0  0  0  0  0  0  0  0
    7.3931    2.7542    0.0000 H   0  0  0  0  0  0  0  0  0  0  0  0
    6.7731    2.1342    0.0000 H   0  0  0  0  0  0  0  0  0  0  0  0
    5.2478   -2.4111    0.0000 H   0  0  0  0  0  0  0  0  0  0  0  0
    6.0460   -2.4080    0.0000 H   0  0  0  0  0  0  0  0  0  0  0  0
    5.3787    0.6225    0.0000 H   0  0  0  0  0  0  0  0  0  0  0  0
    4.7635    1.2473    0.0000 H   0  0  0  0  0  0  0  0  0  0  0  0
    4.1388    0.6321    0.0000 H   0  0  0  0  0  0  0  0  0  0  0  0
    3.8361    0.8113    0.0000 H   0  0  0  0  0  0  0  0  0  0  0  0
    9.2566    2.5173    0.0000 H   0  0  0  0  0  0  0  0  0  0  0  0
    3.8100   -2.5840    0.0000 H   0  0  0  0  0  0  0  0  0  0  0  0
    7.4220   -2.5173    0.0000 H   0  0  0  0  0  0  0  0  0  0  0  0
    2.3430   -0.0204    0.0000 H   0  0  0  0  0  0  0  0  0  0  0  0
  9  1  1  1  0  0  0
  1 45  1  0  0  0  0
 13  2  1  6  0  0  0
  2 47  1  0  0  0  0
  3 22  2  0  0  0  0
  4  5  1  0  0  0  0
  4  6  1  0  0  0  0
  4 11  1  0  0  0  0
  4 23  1  6  0  0  0
  5  8  1  0  0  0  0
  5  9  1  0  0  0  0
  5 15  1  1  0  0  0
  6  7  1  0  0  0  0
  6 13  1  0  0  0  0
  6 24  1  1  0  0  0
  7 10  1  0  0  0  0
  7 12  1  0  0  0  0
  7 25  1  6  0  0  0
  8 10  1  0  0  0  0
  8 26  1  0  0  0  0
  8 27  1  0  0  0  0
  9 14  1  0  0  0  0
  9 30  1  0  0  0  0
 10 28  1  0  0  0  0
 10 29  1  0  0  0  0
 11 14  1  0  0  0  0
 11 31  1  0  0  0  0
 11 32  1  0  0  0  0
 12 17  1  0  0  0  0
 12 18  1  1  0  0  0
 12 19  1  0  0  0  0
 13 16  1  0  0  0  0
 13 33  1  0  0  0  0
 14 34  1  0  0  0  0
 14 35  1  0  0  0  0
 15 36  1  0  0  0  0
 15 37  1  0  0  0  0
 15 38  1  0  0  0  0
 16 17  1  0  0  0  0
 16 39  1  0  0  0  0
 16 40  1  0  0  0  0
 17 20  2  0  0  0  0
 18 41  1  0  0  0  0
 18 42  1  0  0  0  0
 18 43  1  0  0  0  0
 19 21  2  0  0  0  0
 19 44  1  0  0  0  0
 20 22  1  0  0  0  0
 20 46  1  0  0  0  0
 21 22  1  0  0  0  0
 21 48  1  0  0  0  0
M  END
> <PUBCHEM_COMPOUND_CID>
11954079

> <PUBCHEM_COMPOUND_CANONICALIZED>
1

> <PUBCHEM_CACTVS_COMPLEXITY>
577

> <PUBCHEM_CACTVS_HBOND_ACCEPTOR>
3

> <PUBCHEM_CACTVS_HBOND_DONOR>
2

> <PUBCHEM_CACTVS_ROTATABLE_BOND>
0

> <PUBCHEM_CACTVS_SUBSKEYS>
AAADceB4MAAAAAAAAAAAAAAAAAAAAYAAAAAwYIAAAAAAAGDAAAAAGgAACAAADxSggAICAAAAAgCIAqBSAAAAAAAgAAAICAAAAEgAEAIAAQAAQAAEwAAIAYOA4PQPgAAAAAAAAADAAAYAADAAAIAADAAAAA==

> <PUBCHEM_IUPAC_OPENEYE_NAME>
(7R,8R,9S,10R,13S,14S,17S)-7,17-dihydroxy-10,13-dimethyl-6,7,8,9,11,12,14,15,16,17-decahydrocyclopenta[a]phenanthren-3-one

> <PUBCHEM_IUPAC_CAS_NAME>
(7R,8R,9S,10R,13S,14S,17S)-7,17-dihydroxy-10,13-dimethyl-6,7,8,9,11,12,14,15,16,17-decahydrocyclopenta[a]phenanthren-3-one

> <PUBCHEM_IUPAC_NAME>
(7R,8R,9S,10R,13S,14S,17S)-7,17-dihydroxy-10,13-dimethyl-6,7,8,9,11,12,14,15,16,17-decahydrocyclopenta[a]phenanthren-3-one

> <PUBCHEM_IUPAC_SYSTEMATIC_NAME>
(7R,8R,9S,10R,13S,14S,17S)-10,13-dimethyl-7,17-bis(oxidanyl)-6,7,8,9,11,12,14,15,16,17-decahydrocyclopenta[a]phenanthren-3-one

> <PUBCHEM_IUPAC_TRADITIONAL_NAME>
(7R,8R,9S,10R,13S,14S,17S)-7,17-dihydroxy-10,13-dimethyl-6,7,8,9,11,12,14,15,16,17-decahydrocyclopenta[a]phenanthren-3-one

> <PUBCHEM_IUPAC_INCHI>
InChI=1S/C19H26O3/c1-18-7-5-12(20)9-11(18)10-15(21)17-13-3-4-16(22)19(13,2)8-6-14(17)18/h5,7,9,13-17,21-22H,3-4,6,8,10H2,1-2H3/t13-,14-,15+,16-,17-,18-,19-/m0/s1

> <PUBCHEM_IUPAC_INCHIKEY>
MXWNAVKICSVPAC-JUKXBMAYSA-N

> <PUBCHEM_XLOGP3_AA>
2.4

> <PUBCHEM_EXACT_MASS>
302.188195

> <PUBCHEM_MOLECULAR_FORMULA>
C19H26O3

> <PUBCHEM_MOLECULAR_WEIGHT>
302.40794

> <PUBCHEM_OPENEYE_CAN_SMILES>
CC12CCC3C(C1CCC2O)C(CC4=CC(=O)C=CC34C)O

> <PUBCHEM_OPENEYE_ISO_SMILES>
C[C@]12CC[C@H]3[C@H]([C@@H]1CC[C@@H]2O)[C@@H](CC4=CC(=O)C=C[C@]34C)O

> <PUBCHEM_CACTVS_TPSA>
57.5

> <PUBCHEM_MONOISOTOPIC_WEIGHT>
302.188195

> <PUBCHEM_TOTAL_CHARGE>
0

> <PUBCHEM_HEAVY_ATOM_COUNT>
22

> <PUBCHEM_ATOM_DEF_STEREO_COUNT>
7

> <PUBCHEM_ATOM_UDEF_STEREO_COUNT>
0

> <PUBCHEM_BOND_DEF_STEREO_COUNT>
0

> <PUBCHEM_BOND_UDEF_STEREO_COUNT>
0

> <PUBCHEM_ISOTOPIC_ATOM_COUNT>
0

> <PUBCHEM_COMPONENT_COUNT>
1

> <PUBCHEM_CACTVS_TAUTO_COUNT>
3

> <PUBCHEM_COORDINATE_TYPE>
1
5
255

> <PUBCHEM_BONDANNOTATIONS>
9  1  5
12  18  5
13  2  6
4  23  6
5  15  5
6  24  5
7  25  6

$$$$

