60753
  -OEChem-07051212542D

 62 62  0     1  0  0  0  0  0999 V2000
    8.0622    5.8170    0.0000 S   0  0  0  0  0  0  0  0  0  0  0  0
    8.0622    0.8170    0.0000 O   0  0  0  0  0  0  0  0  0  0  0  0
    7.5622    6.6830    0.0000 O   0  0  0  0  0  0  0  0  0  0  0  0
    8.5622    4.9510    0.0000 O   0  0  0  0  0  0  0  0  0  0  0  0
    5.4641   -1.6830    0.0000 N   0  0  3  0  0  0  0  0  0  0  0  0
    7.1962    5.3170    0.0000 N   0  0  0  0  0  0  0  0  0  0  0  0
    4.5981   -2.1830    0.0000 C   0  0  0  0  0  0  0  0  0  0  0  0
    5.4641   -0.6830    0.0000 C   0  0  0  0  0  0  0  0  0  0  0  0
    4.5981   -3.1830    0.0000 C   0  0  0  0  0  0  0  0  0  0  0  0
    6.3301   -0.1830    0.0000 C   0  0  0  0  0  0  0  0  0  0  0  0
    3.7320   -3.6830    0.0000 C   0  0  0  0  0  0  0  0  0  0  0  0
    6.3301    0.8170    0.0000 C   0  0  0  0  0  0  0  0  0  0  0  0
    3.7320   -4.6830    0.0000 C   0  0  0  0  0  0  0  0  0  0  0  0
    6.3301   -2.1830    0.0000 C   0  0  0  0  0  0  0  0  0  0  0  0
    7.1962    1.3170    0.0000 C   0  0  3  0  0  0  0  0  0  0  0  0
    2.8660   -5.1830    0.0000 C   0  0  0  0  0  0  0  0  0  0  0  0
    7.1962    2.3170    0.0000 C   0  0  0  0  0  0  0  0  0  0  0  0
    2.8660   -6.1830    0.0000 C   0  0  0  0  0  0  0  0  0  0  0  0
    6.3301   -3.1830    0.0000 C   0  0  0  0  0  0  0  0  0  0  0  0
    8.0622    2.8170    0.0000 C   0  0  0  0  0  0  0  0  0  0  0  0
    6.3301    2.8170    0.0000 C   0  0  0  0  0  0  0  0  0  0  0  0
    2.0000   -6.6830    0.0000 C   0  0  0  0  0  0  0  0  0  0  0  0
    8.0622    3.8170    0.0000 C   0  0  0  0  0  0  0  0  0  0  0  0
    6.3301    3.8170    0.0000 C   0  0  0  0  0  0  0  0  0  0  0  0
    7.1962    4.3170    0.0000 C   0  0  0  0  0  0  0  0  0  0  0  0
    8.9282    6.3170    0.0000 C   0  0  0  0  0  0  0  0  0  0  0  0
    4.3860   -1.6004    0.0000 H   0  0  0  0  0  0  0  0  0  0  0  0
    3.9875   -2.2907    0.0000 H   0  0  0  0  0  0  0  0  0  0  0  0
    5.2520   -0.1004    0.0000 H   0  0  0  0  0  0  0  0  0  0  0  0
    4.8535   -0.7907    0.0000 H   0  0  0  0  0  0  0  0  0  0  0  0
    4.8101   -3.7656    0.0000 H   0  0  0  0  0  0  0  0  0  0  0  0
    5.2087   -3.0753    0.0000 H   0  0  0  0  0  0  0  0  0  0  0  0
    6.5422   -0.7656    0.0000 H   0  0  0  0  0  0  0  0  0  0  0  0
    6.9407   -0.0754    0.0000 H   0  0  0  0  0  0  0  0  0  0  0  0
    3.5200   -3.1004    0.0000 H   0  0  0  0  0  0  0  0  0  0  0  0
    3.1215   -3.7907    0.0000 H   0  0  0  0  0  0  0  0  0  0  0  0
    6.1181    1.3996    0.0000 H   0  0  0  0  0  0  0  0  0  0  0  0
    5.7196    0.7093    0.0000 H   0  0  0  0  0  0  0  0  0  0  0  0
    3.9441   -5.2656    0.0000 H   0  0  0  0  0  0  0  0  0  0  0  0
    4.3426   -4.5754    0.0000 H   0  0  0  0  0  0  0  0  0  0  0  0
    6.9407   -2.2907    0.0000 H   0  0  0  0  0  0  0  0  0  0  0  0
    6.5422   -1.6004    0.0000 H   0  0  0  0  0  0  0  0  0  0  0  0
    7.9323    1.7420    0.0000 H   0  0  0  0  0  0  0  0  0  0  0  0
    2.6540   -4.6004    0.0000 H   0  0  0  0  0  0  0  0  0  0  0  0
    2.2554   -5.2907    0.0000 H   0  0  0  0  0  0  0  0  0  0  0  0
    3.0781   -6.7656    0.0000 H   0  0  0  0  0  0  0  0  0  0  0  0
    3.4766   -6.0754    0.0000 H   0  0  0  0  0  0  0  0  0  0  0  0
    5.7101   -3.1830    0.0000 H   0  0  0  0  0  0  0  0  0  0  0  0
    6.3301   -3.8030    0.0000 H   0  0  0  0  0  0  0  0  0  0  0  0
    6.9501   -3.1830    0.0000 H   0  0  0  0  0  0  0  0  0  0  0  0
    8.5991    2.5070    0.0000 H   0  0  0  0  0  0  0  0  0  0  0  0
    5.7932    2.5070    0.0000 H   0  0  0  0  0  0  0  0  0  0  0  0
    1.6900   -6.1461    0.0000 H   0  0  0  0  0  0  0  0  0  0  0  0
    1.4631   -6.9930    0.0000 H   0  0  0  0  0  0  0  0  0  0  0  0
    2.3100   -7.2200    0.0000 H   0  0  0  0  0  0  0  0  0  0  0  0
    8.0622    0.1970    0.0000 H   0  0  0  0  0  0  0  0  0  0  0  0
    8.5991    4.1270    0.0000 H   0  0  0  0  0  0  0  0  0  0  0  0
    5.7932    4.1270    0.0000 H   0  0  0  0  0  0  0  0  0  0  0  0
    6.6592    5.6270    0.0000 H   0  0  0  0  0  0  0  0  0  0  0  0
    9.2382    5.7800    0.0000 H   0  0  0  0  0  0  0  0  0  0  0  0
    9.4651    6.6270    0.0000 H   0  0  0  0  0  0  0  0  0  0  0  0
    8.6182    6.8539    0.0000 H   0  0  0  0  0  0  0  0  0  0  0  0
  1  3  2  0  0  0  0
  1  4  2  0  0  0  0
  1  6  1  0  0  0  0
  1 26  1  0  0  0  0
  2 15  1  0  0  0  0
  2 56  1  0  0  0  0
  5  7  1  0  0  0  0
  5  8  1  0  0  0  0
  5 14  1  0  0  0  0
  6 25  1  0  0  0  0
  6 59  1  0  0  0  0
  7  9  1  0  0  0  0
  7 27  1  0  0  0  0
  7 28  1  0  0  0  0
  8 10  1  0  0  0  0
  8 29  1  0  0  0  0
  8 30  1  0  0  0  0
  9 11  1  0  0  0  0
  9 31  1  0  0  0  0
  9 32  1  0  0  0  0
 10 12  1  0  0  0  0
 10 33  1  0  0  0  0
 10 34  1  0  0  0  0
 11 13  1  0  0  0  0
 11 35  1  0  0  0  0
 11 36  1  0  0  0  0
 12 15  1  0  0  0  0
 12 37  1  0  0  0  0
 12 38  1  0  0  0  0
 13 16  1  0  0  0  0
 13 39  1  0  0  0  0
 13 40  1  0  0  0  0
 14 19  1  0  0  0  0
 14 41  1  0  0  0  0
 14 42  1  0  0  0  0
 15 17  1  0  0  0  0
 15 43  1  0  0  0  0
 16 18  1  0  0  0  0
 16 44  1  0  0  0  0
 16 45  1  0  0  0  0
 17 20  2  0  0  0  0
 17 21  1  0  0  0  0
 18 22  1  0  0  0  0
 18 46  1  0  0  0  0
 18 47  1  0  0  0  0
 19 48  1  0  0  0  0
 19 49  1  0  0  0  0
 19 50  1  0  0  0  0
 20 23  1  0  0  0  0
 20 51  1  0  0  0  0
 21 24  2  0  0  0  0
 21 52  1  0  0  0  0
 22 53  1  0  0  0  0
 22 54  1  0  0  0  0
 22 55  1  0  0  0  0
 23 25  2  0  0  0  0
 23 57  1  0  0  0  0
 24 25  1  0  0  0  0
 24 58  1  0  0  0  0
 26 60  1  0  0  0  0
 26 61  1  0  0  0  0
 26 62  1  0  0  0  0
M  END
> <PUBCHEM_COMPOUND_CID>
60753

> <PUBCHEM_COMPOUND_CANONICALIZED>
1

> <PUBCHEM_CACTVS_COMPLEXITY>
443

> <PUBCHEM_CACTVS_HBOND_ACCEPTOR>
5

> <PUBCHEM_CACTVS_HBOND_DONOR>
2

> <PUBCHEM_CACTVS_ROTATABLE_BOND>
14

> <PUBCHEM_CACTVS_SUBSKEYS>
AAADcfB7MABAAAAAAAAAAAAAAAAAAAAAAAAwAAAAAAAAAAABAAAAHgQQSAAADBzhmAaywINAAgKAAiRCQHCCAAAgAgAIiAAIbIgINiKAkZGEcABk0AGI2Aew0KEOCAAAAAAAAAAQAAAAAAAAAAAAAAAAAA==

> <PUBCHEM_IUPAC_OPENEYE_NAME>
N-[4-[4-[ethyl(heptyl)amino]-1-hydroxy-butyl]phenyl]methanesulfonamide

> <PUBCHEM_IUPAC_CAS_NAME>
N-[4-[4-[ethyl(heptyl)amino]-1-hydroxybutyl]phenyl]methanesulfonamide

> <PUBCHEM_IUPAC_NAME>
N-[4-[4-[ethyl(heptyl)amino]-1-hydroxybutyl]phenyl]methanesulfonamide

> <PUBCHEM_IUPAC_SYSTEMATIC_NAME>
N-[4-[4-[ethyl(heptyl)amino]-1-oxidanyl-butyl]phenyl]methanesulfonamide

> <PUBCHEM_IUPAC_TRADITIONAL_NAME>
N-[4-[4-[ethyl(heptyl)amino]-1-hydroxy-butyl]phenyl]methanesulfonamide

> <PUBCHEM_IUPAC_INCHI>
InChI=1S/C20H36N2O3S/c1-4-6-7-8-9-16-22(5-2)17-10-11-20(23)18-12-14-19(15-13-18)21-26(3,24)25/h12-15,20-21,23H,4-11,16-17H2,1-3H3

> <PUBCHEM_IUPAC_INCHIKEY>
ALOBUEHUHMBRLE-UHFFFAOYSA-N

> <PUBCHEM_XLOGP3_AA>
4

> <PUBCHEM_EXACT_MASS>
384.244664

> <PUBCHEM_MOLECULAR_FORMULA>
C20H36N2O3S

> <PUBCHEM_MOLECULAR_WEIGHT>
384.57644

> <PUBCHEM_OPENEYE_CAN_SMILES>
CCCCCCCN(CC)CCCC(C1=CC=C(C=C1)NS(=O)(=O)C)O

> <PUBCHEM_OPENEYE_ISO_SMILES>
CCCCCCCN(CC)CCCC(C1=CC=C(C=C1)NS(=O)(=O)C)O

> <PUBCHEM_CACTVS_TPSA>
78

> <PUBCHEM_MONOISOTOPIC_WEIGHT>
384.244664

> <PUBCHEM_TOTAL_CHARGE>
0

> <PUBCHEM_HEAVY_ATOM_COUNT>
26

> <PUBCHEM_ATOM_DEF_STEREO_COUNT>
0

> <PUBCHEM_ATOM_UDEF_STEREO_COUNT>
1

> <PUBCHEM_BOND_DEF_STEREO_COUNT>
0

> <PUBCHEM_BOND_UDEF_STEREO_COUNT>
0

> <PUBCHEM_ISOTOPIC_ATOM_COUNT>
0

> <PUBCHEM_COMPONENT_COUNT>
1

> <PUBCHEM_CACTVS_TAUTO_COUNT>
1

> <PUBCHEM_COORDINATE_TYPE>
1
5
255

> <PUBCHEM_BONDANNOTATIONS>
15  43  3
17  20  8
17  21  8
20  23  8
21  24  8
23  25  8
24  25  8

$$$$

