441931
  -OEChem-07051212562D

 96101  0     1  0  0  0  0  0999 V2000
    5.6947   -2.5810    0.0000 O   0  0  0  0  0  0  0  0  0  0  0  0
    4.7300   -1.0828    0.0000 O   0  0  0  0  0  0  0  0  0  0  0  0
   14.6198    0.5055    0.0000 O   0  0  0  0  0  0  0  0  0  0  0  0
   13.7654   -1.0011    0.0000 O   0  0  0  0  0  0  0  0  0  0  0  0
    3.7039   -3.4582    0.0000 O   0  0  0  0  0  0  0  0  0  0  0  0
    2.2544   -1.8359    0.0000 O   0  0  0  0  0  0  0  0  0  0  0  0
    2.3553    0.1524    0.0000 O   0  0  0  0  0  0  0  0  0  0  0  0
   10.2218   -1.0287    0.0000 C   0  0  2  0  0  0  0  0  0  0  0  0
    8.4458   -1.0355    0.0000 C   0  0  2  0  0  0  0  0  0  0  0  0
    9.3558   -0.5287    0.0000 C   0  0  1  0  0  0  0  0  0  0  0  0
    8.4377   -2.0771    0.0000 C   0  0  2  0  0  0  0  0  0  0  0  0
   11.0878   -0.5287    0.0000 C   0  0  1  0  0  0  0  0  0  0  0  0
   10.2379   -2.0702    0.0000 C   0  0  0  0  0  0  0  0  0  0  0  0
    7.5023   -2.6268    0.0000 C   0  0  0  0  0  0  0  0  0  0  0  0
    9.3398   -2.5979    0.0000 C   0  0  0  0  0  0  0  0  0  0  0  0
    7.5189   -0.4714    0.0000 C   0  0  0  0  0  0  0  0  0  0  0  0
    9.3558    0.4713    0.0000 C   0  0  0  0  0  0  0  0  0  0  0  0
   11.0878    0.4713    0.0000 C   0  0  0  0  0  0  0  0  0  0  0  0
    6.5627   -2.0844    0.0000 C   0  0  2  0  0  0  0  0  0  0  0  0
   11.9818   -1.0633    0.0000 C   0  0  0  0  0  0  0  0  0  0  0  0
    6.5710   -0.9994    0.0000 C   0  0  0  0  0  0  0  0  0  0  0  0
   10.8646   -1.7947    0.0000 C   0  0  0  0  0  0  0  0  0  0  0  0
    8.4535   -0.0356    0.0000 C   0  0  0  0  0  0  0  0  0  0  0  0
   10.2218    0.9713    0.0000 C   0  0  0  0  0  0  0  0  0  0  0  0
   11.4299   -1.4683    0.0000 C   0  0  0  0  0  0  0  0  0  0  0  0
   12.8878    0.4921    0.0000 C   0  0  1  0  0  0  0  0  0  0  0  0
   11.9818    1.0060    0.0000 C   0  0  0  0  0  0  0  0  0  0  0  0
   12.8878   -0.5495    0.0000 C   0  0  0  0  0  0  0  0  0  0  0  0
    7.0057   -3.4948    0.0000 C   0  0  0  0  0  0  0  0  0  0  0  0
    8.0056   -3.4909    0.0000 C   0  0  0  0  0  0  0  0  0  0  0  0
   13.8316    1.0274    0.0000 C   0  0  0  0  0  0  0  0  0  0  0  0
   11.9567    2.0907    0.0000 C   0  0  0  0  0  0  0  0  0  0  0  0
   12.8878    2.6476    0.0000 C   0  0  2  0  0  0  0  0  0  0  0  0
   13.8316    2.1124    0.0000 C   0  0  0  0  0  0  0  0  0  0  0  0
   13.7577   -0.0012    0.0000 C   0  0  0  0  0  0  0  0  0  0  0  0
    4.8306   -2.0777    0.0000 C   0  0  2  0  0  0  0  0  0  0  0  0
   11.0812    2.5739    0.0000 C   0  0  0  0  0  0  0  0  0  0  0  0
   12.8763    3.6475    0.0000 C   0  0  0  0  0  0  0  0  0  0  0  0
    3.9155   -2.4809    0.0000 C   0  0  1  0  0  0  0  0  0  0  0  0
    3.2493   -1.7352    0.0000 C   0  0  2  0  0  0  0  0  0  0  0  0
    3.7526   -0.8711    0.0000 C   0  0  1  0  0  0  0  0  0  0  0  0
    3.3494    0.0440    0.0000 C   0  0  0  0  0  0  0  0  0  0  0  0
   10.0919   -0.1037    0.0000 H   0  0  0  0  0  0  0  0  0  0  0  0
    8.4410   -2.9271    0.0000 H   0  0  0  0  0  0  0  0  0  0  0  0
   10.4559   -2.6506    0.0000 H   0  0  0  0  0  0  0  0  0  0  0  0
   10.8470   -1.9547    0.0000 H   0  0  0  0  0  0  0  0  0  0  0  0
    8.9425   -3.0739    0.0000 H   0  0  0  0  0  0  0  0  0  0  0  0
    9.7408   -3.0708    0.0000 H   0  0  0  0  0  0  0  0  0  0  0  0
    7.9271   -0.0048    0.0000 H   0  0  0  0  0  0  0  0  0  0  0  0
    7.1290    0.0106    0.0000 H   0  0  0  0  0  0  0  0  0  0  0  0
    9.1437    1.0539    0.0000 H   0  0  0  0  0  0  0  0  0  0  0  0
    8.7452    0.3637    0.0000 H   0  0  0  0  0  0  0  0  0  0  0  0
    6.5615   -2.7043    0.0000 H   0  0  0  0  0  0  0  0  0  0  0  0
   11.5772   -1.5331    0.0000 H   0  0  0  0  0  0  0  0  0  0  0  0
   12.3754   -1.5424    0.0000 H   0  0  0  0  0  0  0  0  0  0  0  0
    6.3665   -0.4141    0.0000 H   0  0  0  0  0  0  0  0  0  0  0  0
    5.9594   -1.1008    0.0000 H   0  0  0  0  0  0  0  0  0  0  0  0
   10.3896   -2.1932    0.0000 H   0  0  0  0  0  0  0  0  0  0  0  0
   11.2631   -2.2697    0.0000 H   0  0  0  0  0  0  0  0  0  0  0  0
   11.3395   -1.3962    0.0000 H   0  0  0  0  0  0  0  0  0  0  0  0
    9.0735   -0.0403    0.0000 H   0  0  0  0  0  0  0  0  0  0  0  0
    8.4582    0.5844    0.0000 H   0  0  0  0  0  0  0  0  0  0  0  0
    7.8335   -0.0308    0.0000 H   0  0  0  0  0  0  0  0  0  0  0  0
   10.2218    1.5913    0.0000 H   0  0  0  0  0  0  0  0  0  0  0  0
   10.8473   -1.6804    0.0000 H   0  0  0  0  0  0  0  0  0  0  0  0
   11.6420   -2.0509    0.0000 H   0  0  0  0  0  0  0  0  0  0  0  0
   12.0125   -1.2562    0.0000 H   0  0  0  0  0  0  0  0  0  0  0  0
   13.0969   -1.1332    0.0000 H   0  0  0  0  0  0  0  0  0  0  0  0
   13.4987   -0.4434    0.0000 H   0  0  0  0  0  0  0  0  0  0  0  0
    6.4675   -3.1869    0.0000 H   0  0  0  0  0  0  0  0  0  0  0  0
    6.6977   -4.0329    0.0000 H   0  0  0  0  0  0  0  0  0  0  0  0
    7.5438   -3.8027    0.0000 H   0  0  0  0  0  0  0  0  0  0  0  0
    7.4699   -3.8030    0.0000 H   0  0  0  0  0  0  0  0  0  0  0  0
    8.3177   -4.0267    0.0000 H   0  0  0  0  0  0  0  0  0  0  0  0
    8.5414   -3.1789    0.0000 H   0  0  0  0  0  0  0  0  0  0  0  0
   14.0407    0.4437    0.0000 H   0  0  0  0  0  0  0  0  0  0  0  0
   14.4425    1.1335    0.0000 H   0  0  0  0  0  0  0  0  0  0  0  0
   12.3468    2.9503    0.0000 H   0  0  0  0  0  0  0  0  0  0  0  0
   14.4425    2.0063    0.0000 H   0  0  0  0  0  0  0  0  0  0  0  0
   14.0407    2.6961    0.0000 H   0  0  0  0  0  0  0  0  0  0  0  0
    4.7958   -2.6967    0.0000 H   0  0  0  0  0  0  0  0  0  0  0  0
   11.3808    3.1167    0.0000 H   0  0  0  0  0  0  0  0  0  0  0  0
   10.5384    2.8735    0.0000 H   0  0  0  0  0  0  0  0  0  0  0  0
   10.7816    2.0311    0.0000 H   0  0  0  0  0  0  0  0  0  0  0  0
   13.4962    3.6547    0.0000 H   0  0  0  0  0  0  0  0  0  0  0  0
   12.8691    4.2675    0.0000 H   0  0  0  0  0  0  0  0  0  0  0  0
   12.2563    3.6404    0.0000 H   0  0  0  0  0  0  0  0  0  0  0  0
    3.3160   -2.6390    0.0000 H   0  0  0  0  0  0  0  0  0  0  0  0
    3.0249   -2.3131    0.0000 H   0  0  0  0  0  0  0  0  0  0  0  0
   15.1591    0.1996    0.0000 H   0  0  0  0  0  0  0  0  0  0  0  0
    4.1446   -0.3908    0.0000 H   0  0  0  0  0  0  0  0  0  0  0  0
    3.1135   -3.6475    0.0000 H   0  0  0  0  0  0  0  0  0  0  0  0
    3.9516    0.1917    0.0000 H   0  0  0  0  0  0  0  0  0  0  0  0
    3.3085    0.6627    0.0000 H   0  0  0  0  0  0  0  0  0  0  0  0
    2.0000   -2.4013    0.0000 H   0  0  0  0  0  0  0  0  0  0  0  0
    2.1053    0.7198    0.0000 H   0  0  0  0  0  0  0  0  0  0  0  0
 19  1  1  1  0  0  0
 36  1  1  1  0  0  0
  2 36  1  0  0  0  0
  2 41  1  0  0  0  0
  3 35  1  0  0  0  0
  3 90  1  0  0  0  0
  4 35  2  0  0  0  0
 39  5  1  6  0  0  0
  5 92  1  0  0  0  0
 40  6  1  1  0  0  0
  6 95  1  0  0  0  0
  7 42  1  0  0  0  0
  7 96  1  0  0  0  0
  8 10  1  0  0  0  0
  8 12  1  0  0  0  0
  8 13  1  0  0  0  0
  8 22  1  1  0  0  0
  9 10  1  0  0  0  0
  9 11  1  0  0  0  0
  9 16  1  0  0  0  0
  9 23  1  1  0  0  0
 10 17  1  0  0  0  0
 10 43  1  6  0  0  0
 11 14  1  0  0  0  0
 11 15  1  0  0  0  0
 11 44  1  6  0  0  0
 12 18  1  0  0  0  0
 12 20  1  0  0  0  0
 12 25  1  6  0  0  0
 13 15  1  0  0  0  0
 13 45  1  0  0  0  0
 13 46  1  0  0  0  0
 14 19  1  0  0  0  0
 14 29  1  0  0  0  0
 14 30  1  0  0  0  0
 15 47  1  0  0  0  0
 15 48  1  0  0  0  0
 16 21  1  0  0  0  0
 16 49  1  0  0  0  0
 16 50  1  0  0  0  0
 17 24  1  0  0  0  0
 17 51  1  0  0  0  0
 17 52  1  0  0  0  0
 18 24  2  0  0  0  0
 18 27  1  0  0  0  0
 19 21  1  0  0  0  0
 19 53  1  0  0  0  0
 20 28  1  0  0  0  0
 20 54  1  0  0  0  0
 20 55  1  0  0  0  0
 21 56  1  0  0  0  0
 21 57  1  0  0  0  0
 22 58  1  0  0  0  0
 22 59  1  0  0  0  0
 22 60  1  0  0  0  0
 23 61  1  0  0  0  0
 23 62  1  0  0  0  0
 23 63  1  0  0  0  0
 24 64  1  0  0  0  0
 25 65  1  0  0  0  0
 25 66  1  0  0  0  0
 25 67  1  0  0  0  0
 26 27  1  0  0  0  0
 26 28  1  0  0  0  0
 26 31  1  0  0  0  0
 26 35  1  1  0  0  0
 27 32  2  0  0  0  0
 28 68  1  0  0  0  0
 28 69  1  0  0  0  0
 29 70  1  0  0  0  0
 29 71  1  0  0  0  0
 29 72  1  0  0  0  0
 30 73  1  0  0  0  0
 30 74  1  0  0  0  0
 30 75  1  0  0  0  0
 31 34  1  0  0  0  0
 31 76  1  0  0  0  0
 31 77  1  0  0  0  0
 32 33  1  0  0  0  0
 32 37  1  0  0  0  0
 33 34  1  0  0  0  0
 33 38  1  1  0  0  0
 33 78  1  0  0  0  0
 34 79  1  0  0  0  0
 34 80  1  0  0  0  0
 36 39  1  0  0  0  0
 36 81  1  0  0  0  0
 37 82  1  0  0  0  0
 37 83  1  0  0  0  0
 37 84  1  0  0  0  0
 38 85  1  0  0  0  0
 38 86  1  0  0  0  0
 38 87  1  0  0  0  0
 39 40  1  0  0  0  0
 39 88  1  0  0  0  0
 40 41  1  0  0  0  0
 40 89  1  0  0  0  0
 41 42  1  1  0  0  0
 41 91  1  0  0  0  0
 42 93  1  0  0  0  0
 42 94  1  0  0  0  0
M  END
> <PUBCHEM_COMPOUND_CID>
441931

> <PUBCHEM_COMPOUND_CANONICALIZED>
1

> <PUBCHEM_CACTVS_COMPLEXITY>
1190

> <PUBCHEM_CACTVS_HBOND_ACCEPTOR>
7

> <PUBCHEM_CACTVS_HBOND_DONOR>
4

> <PUBCHEM_CACTVS_ROTATABLE_BOND>
4

> <PUBCHEM_CACTVS_SUBSKEYS>
AAADcfB8OAAAAAAAAAAAAAAAAAAAASAAAAAwYMECAAAAAADAAAAAGgAACAAADxSwgAMCCAAABgCIAiDSCAAAAAAgAAAACAEAAAgZEBIAAAAiQAAFwAAPgAPI6PiPgAAAAAAAAADAAAYAADAAAAAAAAAAAA==

> <PUBCHEM_IUPAC_OPENEYE_NAME>
(2S,4aS,6aR,6aS,6bR,8aR,10S,12aR)-10-[(2R,3R,4R,5R)-3,4-dihydroxy-5-(hydroxymethyl)tetrahydrofuran-2-yl]oxy-1,2,6a,6b,9,9,12a-heptamethyl-3,4,5,6,6a,7,8,8a,10,11,12,13-dodecahydro-2H-picene-4a-carboxylic acid

> <PUBCHEM_IUPAC_CAS_NAME>
(2S,4aS,6aR,6aS,6bR,8aR,10S,12aR)-10-[[(2R,3R,4R,5R)-3,4-dihydroxy-5-(hydroxymethyl)-2-oxolanyl]oxy]-1,2,6a,6b,9,9,12a-heptamethyl-3,4,5,6,6a,7,8,8a,10,11,12,13-dodecahydro-2H-picene-4a-carboxylic acid

> <PUBCHEM_IUPAC_NAME>
(2S,4aS,6aR,6aS,6bR,8aR,10S,12aR)-10-[(2R,3R,4R,5R)-3,4-dihydroxy-5-(hydroxymethyl)oxolan-2-yl]oxy-1,2,6a,6b,9,9,12a-heptamethyl-3,4,5,6,6a,7,8,8a,10,11,12,13-dodecahydro-2H-picene-4a-carboxylic acid

> <PUBCHEM_IUPAC_SYSTEMATIC_NAME>
(2S,4aS,6aR,6aS,6bR,8aR,10S,12aR)-10-[(2R,3R,4R,5R)-5-(hydroxymethyl)-3,4-bis(oxidanyl)oxolan-2-yl]oxy-1,2,6a,6b,9,9,12a-heptamethyl-3,4,5,6,6a,7,8,8a,10,11,12,13-dodecahydro-2H-picene-4a-carboxylic acid

> <PUBCHEM_IUPAC_TRADITIONAL_NAME>
(2S,4aS,6aR,6aS,6bR,8aR,10S,12aR)-10-[(2R,3R,4R,5R)-3,4-dihydroxy-5-methylol-tetrahydrofuran-2-yl]oxy-1,2,6a,6b,9,9,12a-heptamethyl-3,4,5,6,6a,7,8,8a,10,11,12,13-dodecahydro-2H-picene-4a-carboxylic acid

> <PUBCHEM_IUPAC_INCHI>
InChI=1S/C35H54O7/c1-19-10-15-35(30(39)40)17-16-33(6)21(26(35)20(19)2)8-9-24-32(5)13-12-25(31(3,4)23(32)11-14-34(24,33)7)42-29-28(38)27(37)22(18-36)41-29/h8,19,22-25,27-29,36-38H,9-18H2,1-7H3,(H,39,40)/t19-,22+,23-,24+,25-,27-,28+,29-,32-,33+,34+,35-/m0/s1

> <PUBCHEM_IUPAC_INCHIKEY>
FHYVXROQJGJCKH-GBYWDZGLSA-N

> <PUBCHEM_XLOGP3_AA>
5.5

> <PUBCHEM_EXACT_MASS>
586.386954

> <PUBCHEM_MOLECULAR_FORMULA>
C35H54O7

> <PUBCHEM_MOLECULAR_WEIGHT>
586.79906

> <PUBCHEM_OPENEYE_CAN_SMILES>
CC1CCC2(CCC3(C(=CCC4C3(CCC5C4(CCC(C5(C)C)OC6C(C(C(O6)CO)O)O)C)C)C2=C1C)C)C(=O)O

> <PUBCHEM_OPENEYE_ISO_SMILES>
C[C@H]1CC[C@@]2(CC[C@@]3(C(=CC[C@H]4[C@]3(CC[C@@H]5[C@@]4(CC[C@@H](C5(C)C)O[C@H]6[C@@H]([C@H]([C@H](O6)CO)O)O)C)C)C2=C1C)C)C(=O)O

> <PUBCHEM_CACTVS_TPSA>
116

> <PUBCHEM_MONOISOTOPIC_WEIGHT>
586.386954

> <PUBCHEM_TOTAL_CHARGE>
0

> <PUBCHEM_HEAVY_ATOM_COUNT>
42

> <PUBCHEM_ATOM_DEF_STEREO_COUNT>
12

> <PUBCHEM_ATOM_UDEF_STEREO_COUNT>
0

> <PUBCHEM_BOND_DEF_STEREO_COUNT>
0

> <PUBCHEM_BOND_UDEF_STEREO_COUNT>
0

> <PUBCHEM_ISOTOPIC_ATOM_COUNT>
0

> <PUBCHEM_COMPONENT_COUNT>
1

> <PUBCHEM_CACTVS_TAUTO_COUNT>
1

> <PUBCHEM_COORDINATE_TYPE>
1
5
255

> <PUBCHEM_BONDANNOTATIONS>
19  1  5
36  1  5
10  43  6
11  44  6
12  25  6
26  35  5
33  38  5
41  42  5
39  5  6
40  6  5
8  22  5
9  23  5

$$$$

