   Chemical and Physical Properties References

   [1]USDA ARS - USDA chemical properties
   from [2]ChemIDplus

   Color/Form

     * CRYSTALS FROM ETHANOL OR METHANOL
     * WHITE SOLID
     * Off-white crystalline solid

   from [3]HSDB

   Melting Point
        91.5 to 92.5 deg C and 98 to 101 deg C, reflecting two crystalline
   structures which revert to one in solution.
   from [4]HSDB

   Corrosivity
        Non-corrosive
   from [5]HSDB

   Density/Specific Gravity
        1.7 g/mL
   from [6]HSDB

   Octanol/Water Partition Coefficient
        log Kow = 2.3
   from [7]HSDB

   Solubilities

     * 221.2 g/L in acetone, 89.33 g/L in methanol, 107.7 g/L in ethyl
       acetate, all at 20 deg C.
     * In water, 147 mg/L at 20 deg C

   from [8]HSDB

   Spectral Properties

     * Intense mass spectral peaks: 43 m/z (100%), 143 m/z (96%), 87 m/z
       (80%), 235 m/z (33%)
     * UV absorption spectra of carboxin in aqueous solution show 2
       absorption maxima at 245 and 285 nm.

   from [9]HSDB

   Vapor Pressure
        1.5X10-7 mm Hg at 25 deg C
   from [10]HSDB

   Other Chemical/Physical Properties

     * Colorless solid; mp: 91.5-92.5 deg C; a dimorphic form has mp:
       98-100 deg C; vp: <133 Pa (20 deg C); solubility (25 deg C): 170
       mg/l water; 600 g/kg acetone; 1500 g/kg dimethyl sulfoxide; 110
       g/kg ethanol; 210 g/kg methanol. /Technical carboxin (>97% pure)/
     * Henry's Law constant = 3.2X10-10 atm-cu m/mol at 25 deg C (est)
     * Hydroxyl radical reaction rate constant = 1.3X10-10 cu cm/molec-sec
       at 25 deg C (est)

   from [11]HSDB

   Computed Properties
   Molecular Weight                  235.30212 [g/mol]
   Molecular Formula                 C[12]H[13]NO[2]S
   XLogP3                            2.1
   H-Bond Donor                      1
   H-Bond Acceptor                   3
   Rotatable Bond Count              2
   Tautomer Count                    2
   Exact Mass                        235.0667
   MonoIsotopic Mass                 235.0667
   Topological Polar Surface Area    63.6
   Heavy Atom Count                  16
   Formal Charge                     0
   Complexity                        295
   Isotope Atom Count                0
   Defined Atom Stereocenter Count   0
   Undefined Atom Stereocenter Count 0
   Defined Bond Stereocenter Count   0
   Undefined Bond Stereocenter Count 0
   Covalently-Bonded Unit Count      1
   Feature 3D Acceptor Count         2
   Feature 3D Donor Count            1
   Feature 3D Ring Count             2
   Effective Rotor Count             3.8
   Conformer Sampling RMSD           0.6
   CID Conformer Count               [12]8

References

   1. http://www.ars.usda.gov/SP2UserFiles/ad_hoc/12755100DatabaseFiles/PesticidePropertiesDatabase/IndividualPesticideFiles/CARBOXIN.TXT
   2. http://chem.sis.nlm.nih.gov/chemidplus/
   3. http://toxnet.nlm.nih.gov/cgi-bin/sis/search/r?dbs+hsdb:@term+@rn+@rel+5234-68-4
   4. http://toxnet.nlm.nih.gov/cgi-bin/sis/search/r?dbs+hsdb:@term+@rn+@rel+5234-68-4
   5. http://toxnet.nlm.nih.gov/cgi-bin/sis/search/r?dbs+hsdb:@term+@rn+@rel+5234-68-4
   6. http://toxnet.nlm.nih.gov/cgi-bin/sis/search/r?dbs+hsdb:@term+@rn+@rel+5234-68-4
   7. http://toxnet.nlm.nih.gov/cgi-bin/sis/search/r?dbs+hsdb:@term+@rn+@rel+5234-68-4
   8. http://toxnet.nlm.nih.gov/cgi-bin/sis/search/r?dbs+hsdb:@term+@rn+@rel+5234-68-4
   9. http://toxnet.nlm.nih.gov/cgi-bin/sis/search/r?dbs+hsdb:@term+@rn+@rel+5234-68-4
  10. http://toxnet.nlm.nih.gov/cgi-bin/sis/search/r?dbs+hsdb:@term+@rn+@rel+5234-68-4
  11. http://toxnet.nlm.nih.gov/cgi-bin/sis/search/r?dbs+hsdb:@term+@rn+@rel+5234-68-4
  12. http://pubchem.ncbi.nlm.nih.gov/vw3d/vw3d.cgi?cid=21307
