5281424
  -OEChem-07051212572D

 39 40  0     1  0  0  0  0  0999 V2000
    2.0949    0.9466    0.0000 O   0  0  0  0  0  0  0  0  0  0  0  0
    5.4300    0.7796    0.0000 O   0  0  0  0  0  0  0  0  0  0  0  0
    2.0000    2.7204    0.0000 O   0  0  0  0  0  0  0  0  0  0  0  0
    7.1620   -1.2204    0.0000 O   0  0  0  0  0  0  0  0  0  0  0  0
    3.6979    0.7796    0.0000 C   0  0  2  0  0  0  0  0  0  0  0  0
    2.8319    0.2796    0.0000 C   0  0  2  0  0  0  0  0  0  0  0  0
    4.5640    0.2796    0.0000 C   0  0  1  0  0  0  0  0  0  0  0  0
    2.8319   -0.7204    0.0000 C   0  0  0  0  0  0  0  0  0  0  0  0
    3.4887    1.7514    0.0000 C   0  0  0  0  0  0  0  0  0  0  0  0
    3.6979   -1.2204    0.0000 C   0  0  0  0  0  0  0  0  0  0  0  0
    4.5640   -0.7204    0.0000 C   0  0  0  0  0  0  0  0  0  0  0  0
    2.5000    1.8544    0.0000 C   0  0  0  0  0  0  0  0  0  0  0  0
    5.4300   -1.2204    0.0000 C   0  0  0  0  0  0  0  0  0  0  0  0
    5.4300   -2.2204    0.0000 C   0  0  0  0  0  0  0  0  0  0  0  0
    4.5640   -2.7204    0.0000 C   0  0  0  0  0  0  0  0  0  0  0  0
    3.6979   -2.2204    0.0000 C   0  0  0  0  0  0  0  0  0  0  0  0
    4.1566    2.4957    0.0000 C   0  0  0  0  0  0  0  0  0  0  0  0
    4.8853   -0.2241    0.0000 C   0  0  0  0  0  0  0  0  0  0  0  0
    6.2960   -0.7204    0.0000 C   0  0  0  0  0  0  0  0  0  0  0  0
    4.3849    1.2801    0.0000 H   0  0  0  0  0  0  0  0  0  0  0  0
    2.0549   -0.0652    0.0000 H   0  0  0  0  0  0  0  0  0  0  0  0
    5.1009   -0.0304    0.0000 H   0  0  0  0  0  0  0  0  0  0  0  0
    2.2213   -0.6128    0.0000 H   0  0  0  0  0  0  0  0  0  0  0  0
    2.6198   -1.3031    0.0000 H   0  0  0  0  0  0  0  0  0  0  0  0
    4.3519   -1.3031    0.0000 H   0  0  0  0  0  0  0  0  0  0  0  0
    5.6420   -2.8031    0.0000 H   0  0  0  0  0  0  0  0  0  0  0  0
    6.0406   -2.1128    0.0000 H   0  0  0  0  0  0  0  0  0  0  0  0
    4.1654   -3.1954    0.0000 H   0  0  0  0  0  0  0  0  0  0  0  0
    4.9625   -3.1954    0.0000 H   0  0  0  0  0  0  0  0  0  0  0  0
    3.1610   -2.5304    0.0000 H   0  0  0  0  0  0  0  0  0  0  0  0
    4.7632    2.3678    0.0000 H   0  0  0  0  0  0  0  0  0  0  0  0
    3.9640    3.0850    0.0000 H   0  0  0  0  0  0  0  0  0  0  0  0
    5.4300    1.3996    0.0000 H   0  0  0  0  0  0  0  0  0  0  0  0
    5.2838   -0.6991    0.0000 H   0  0  0  0  0  0  0  0  0  0  0  0
    5.3602    0.1744    0.0000 H   0  0  0  0  0  0  0  0  0  0  0  0
    4.4868    0.2508    0.0000 H   0  0  0  0  0  0  0  0  0  0  0  0
    6.6945   -0.2455    0.0000 H   0  0  0  0  0  0  0  0  0  0  0  0
    5.8975   -0.2455    0.0000 H   0  0  0  0  0  0  0  0  0  0  0  0
    7.6990   -0.9104    0.0000 H   0  0  0  0  0  0  0  0  0  0  0  0
  1  6  1  0  0  0  0
  1 12  1  0  0  0  0
  7  2  1  6  0  0  0
  2 33  1  0  0  0  0
  3 12  2  0  0  0  0
  4 19  1  0  0  0  0
  4 39  1  0  0  0  0
  5  6  1  0  0  0  0
  5  7  1  0  0  0  0
  5  9  1  0  0  0  0
  5 20  1  6  0  0  0
  6  8  1  0  0  0  0
  6 21  1  1  0  0  0
  7 11  1  0  0  0  0
  7 22  1  0  0  0  0
  8 10  1  0  0  0  0
  8 23  1  0  0  0  0
  8 24  1  0  0  0  0
  9 12  1  0  0  0  0
  9 17  2  0  0  0  0
 10 16  2  0  0  0  0
 10 18  1  0  0  0  0
 11 13  2  0  0  0  0
 11 25  1  0  0  0  0
 13 14  1  0  0  0  0
 13 19  1  0  0  0  0
 14 15  1  0  0  0  0
 14 26  1  0  0  0  0
 14 27  1  0  0  0  0
 15 16  1  0  0  0  0
 15 28  1  0  0  0  0
 15 29  1  0  0  0  0
 16 30  1  0  0  0  0
 17 31  1  0  0  0  0
 17 32  1  0  0  0  0
 18 34  1  0  0  0  0
 18 35  1  0  0  0  0
 18 36  1  0  0  0  0
 19 37  1  0  0  0  0
 19 38  1  0  0  0  0
M  END
> <PUBCHEM_COMPOUND_CID>
5281424

> <PUBCHEM_COMPOUND_CANONICALIZED>
1

> <PUBCHEM_CACTVS_COMPLEXITY>
447

> <PUBCHEM_CACTVS_HBOND_ACCEPTOR>
4

> <PUBCHEM_CACTVS_HBOND_DONOR>
2

> <PUBCHEM_CACTVS_ROTATABLE_BOND>
1

> <PUBCHEM_CACTVS_SUBSKEYS>
AAADceBwOAAAAAAAAAAAAAAAAAAAASAAAAAAAAAAAAAAAACAAAAAGgAACAAADRSggAICCAAABgCIAiDSCAAAAAAgAAAACAEAAEgAFBIAIQACUAAFwAAIMIPKyCCOAAAAAAAAAAAAAAAAAAAAAAAAAAAAAA==

> <PUBCHEM_IUPAC_OPENEYE_NAME>
(3aS,4R,5Z,9E,11aS)-4-hydroxy-6-(hydroxymethyl)-10-methyl-3-methylene-3a,4,7,8,11,11a-hexahydrocyclodeca[b]furan-2-one

> <PUBCHEM_IUPAC_CAS_NAME>
(3aS,4R,5Z,9E,11aS)-4-hydroxy-6-(hydroxymethyl)-10-methyl-3-methylene-3a,4,7,8,11,11a-hexahydrocyclodeca[b]furan-2-one

> <PUBCHEM_IUPAC_NAME>
(3aS,4R,5Z,9E,11aS)-4-hydroxy-6-(hydroxymethyl)-10-methyl-3-methylidene-3a,4,7,8,11,11a-hexahydrocyclodeca[b]furan-2-one

> <PUBCHEM_IUPAC_SYSTEMATIC_NAME>
(3aS,4R,5Z,9E,11aS)-6-(hydroxymethyl)-10-methyl-3-methylidene-4-oxidanyl-3a,4,7,8,11,11a-hexahydrocyclodeca[b]furan-2-one

> <PUBCHEM_IUPAC_TRADITIONAL_NAME>
(3aS,4R,5Z,9E,11aS)-4-hydroxy-10-methyl-3-methylene-6-methylol-3a,4,7,8,11,11a-hexahydrocyclodeca[b]furan-2-one

> <PUBCHEM_IUPAC_INCHI>
InChI=1S/C15H20O4/c1-9-4-3-5-11(8-16)7-12(17)14-10(2)15(18)19-13(14)6-9/h4,7,12-14,16-17H,2-3,5-6,8H2,1H3/b9-4+,11-7-/t12-,13+,14+/m1/s1

> <PUBCHEM_IUPAC_INCHIKEY>
WMFCEEAYDCXJCA-MRPJSKIDSA-N

> <PUBCHEM_XLOGP3_AA>
0.6

> <PUBCHEM_EXACT_MASS>
264.136159

> <PUBCHEM_MOLECULAR_FORMULA>
C15H20O4

> <PUBCHEM_MOLECULAR_WEIGHT>
264.3169

> <PUBCHEM_OPENEYE_CAN_SMILES>
CC1=CCCC(=CC(C2C(C1)OC(=O)C2=C)O)CO

> <PUBCHEM_OPENEYE_ISO_SMILES>
C/C/1=C\CC/C(=C/[C@H]([C@H]2[C@H](C1)OC(=O)C2=C)O)/CO

> <PUBCHEM_CACTVS_TPSA>
66.8

> <PUBCHEM_MONOISOTOPIC_WEIGHT>
264.136159

> <PUBCHEM_TOTAL_CHARGE>
0

> <PUBCHEM_HEAVY_ATOM_COUNT>
19

> <PUBCHEM_ATOM_DEF_STEREO_COUNT>
3

> <PUBCHEM_ATOM_UDEF_STEREO_COUNT>
0

> <PUBCHEM_BOND_DEF_STEREO_COUNT>
2

> <PUBCHEM_BOND_UDEF_STEREO_COUNT>
0

> <PUBCHEM_ISOTOPIC_ATOM_COUNT>
0

> <PUBCHEM_COMPONENT_COUNT>
1

> <PUBCHEM_CACTVS_TAUTO_COUNT>
1

> <PUBCHEM_COORDINATE_TYPE>
1
5
255

> <PUBCHEM_BONDANNOTATIONS>
7  2  6
5  20  6
6  21  5

$$$$

