53297378
  -OEChem-07051213112D

 38 40  0     1  0  0  0  0  0999 V2000
    7.3321    0.5004    0.0000 O   0  0  0  0  0  0  0  0  0  0  0  0
    4.6660   -2.0204    0.0000 O   0  0  0  0  0  0  0  0  0  0  0  0
    4.6660    1.9796    0.0000 O   0  0  0  0  0  0  0  0  0  0  0  0
    2.9176    2.0142    0.0000 O   0  0  0  0  0  0  0  0  0  0  0  0
    9.9282   -1.0512    0.0000 O   0  0  0  0  0  0  0  0  0  0  0  0
    9.0680    0.4521    0.0000 O   0  0  0  0  0  0  0  0  0  0  0  0
    7.3321   -0.5412    0.0000 C   0  0  1  0  0  0  0  0  0  0  0  0
    6.4260   -1.0550    0.0000 C   0  0  0  0  0  0  0  0  0  0  0  0
    5.5321   -0.5204    0.0000 C   0  0  0  0  0  0  0  0  0  0  0  0
    6.4260    1.0143    0.0000 C   0  0  1  0  0  0  0  0  0  0  0  0
    5.5321    0.4796    0.0000 C   0  0  0  0  0  0  0  0  0  0  0  0
    4.6660   -1.0204    0.0000 C   0  0  0  0  0  0  0  0  0  0  0  0
    4.6660    0.9796    0.0000 C   0  0  0  0  0  0  0  0  0  0  0  0
    8.1962   -1.0445    0.0000 C   0  0  0  0  0  0  0  0  0  0  0  0
    3.8000    0.4796    0.0000 C   0  0  0  0  0  0  0  0  0  0  0  0
    3.8000   -0.5204    0.0000 C   0  0  0  0  0  0  0  0  0  0  0  0
    6.4144    2.0142    0.0000 C   0  0  0  0  0  0  0  0  0  0  0  0
    2.9061    1.0143    0.0000 C   0  0  0  0  0  0  0  0  0  0  0  0
    2.9061   -1.0550    0.0000 C   0  0  0  0  0  0  0  0  0  0  0  0
    9.0641   -0.5479    0.0000 C   0  0  0  0  0  0  0  0  0  0  0  0
    2.0000    0.5004    0.0000 C   0  0  0  0  0  0  0  0  0  0  0  0
    2.0000   -0.5412    0.0000 C   0  0  0  0  0  0  0  0  0  0  0  0
    7.8696   -0.2322    0.0000 H   0  0  0  0  0  0  0  0  0  0  0  0
    6.0214   -1.5248    0.0000 H   0  0  0  0  0  0  0  0  0  0  0  0
    6.8196   -1.5341    0.0000 H   0  0  0  0  0  0  0  0  0  0  0  0
    6.9599    1.3294    0.0000 H   0  0  0  0  0  0  0  0  0  0  0  0
    7.7958   -1.5180    0.0000 H   0  0  0  0  0  0  0  0  0  0  0  0
    8.5929   -1.5210    0.0000 H   0  0  0  0  0  0  0  0  0  0  0  0
    7.0344    2.0214    0.0000 H   0  0  0  0  0  0  0  0  0  0  0  0
    6.4073    2.6342    0.0000 H   0  0  0  0  0  0  0  0  0  0  0  0
    5.7945    2.0070    0.0000 H   0  0  0  0  0  0  0  0  0  0  0  0
    2.9132   -1.6750    0.0000 H   0  0  0  0  0  0  0  0  0  0  0  0
    1.4643    0.8125    0.0000 H   0  0  0  0  0  0  0  0  0  0  0  0
    4.1291   -2.3304    0.0000 H   0  0  0  0  0  0  0  0  0  0  0  0
    4.1291    2.2896    0.0000 H   0  0  0  0  0  0  0  0  0  0  0  0
    1.4643   -0.8533    0.0000 H   0  0  0  0  0  0  0  0  0  0  0  0
    2.3843    2.3304    0.0000 H   0  0  0  0  0  0  0  0  0  0  0  0
   10.4663   -0.7433    0.0000 H   0  0  0  0  0  0  0  0  0  0  0  0
  1  7  1  0  0  0  0
  1 10  1  0  0  0  0
  2 12  1  0  0  0  0
  2 34  1  0  0  0  0
  3 13  1  0  0  0  0
  3 35  1  0  0  0  0
  4 18  1  0  0  0  0
  4 37  1  0  0  0  0
  5 20  1  0  0  0  0
  5 38  1  0  0  0  0
  6 20  2  0  0  0  0
  7  8  1  0  0  0  0
  7 14  1  6  0  0  0
  7 23  1  0  0  0  0
  8  9  1  0  0  0  0
  8 24  1  0  0  0  0
  8 25  1  0  0  0  0
  9 11  1  0  0  0  0
  9 12  2  0  0  0  0
 10 11  1  0  0  0  0
 10 17  1  1  0  0  0
 10 26  1  0  0  0  0
 11 13  2  0  0  0  0
 12 16  1  0  0  0  0
 13 15  1  0  0  0  0
 14 20  1  0  0  0  0
 14 27  1  0  0  0  0
 14 28  1  0  0  0  0
 15 16  2  0  0  0  0
 15 18  1  0  0  0  0
 16 19  1  0  0  0  0
 17 29  1  0  0  0  0
 17 30  1  0  0  0  0
 17 31  1  0  0  0  0
 18 21  2  0  0  0  0
 19 22  2  0  0  0  0
 19 32  1  0  0  0  0
 21 22  1  0  0  0  0
 21 33  1  0  0  0  0
 22 36  1  0  0  0  0
M  END
> <PUBCHEM_COMPOUND_CID>
53297378

> <PUBCHEM_COMPOUND_CANONICALIZED>
1

> <PUBCHEM_CACTVS_COMPLEXITY>
427

> <PUBCHEM_CACTVS_HBOND_ACCEPTOR>
6

> <PUBCHEM_CACTVS_HBOND_DONOR>
4

> <PUBCHEM_CACTVS_ROTATABLE_BOND>
2

> <PUBCHEM_CACTVS_SUBSKEYS>
AAADceB4OAAAAAAAAAAAAAAAAAAAAAAAAAA0YIAAAAAAAADRUAAAGgAACAAADBSgmAIyDsAABgCIAiDSCAACAAAgIAAIiAEGCIgIJzaCMRqCcAAl4BUIuAfI6PyOwQADAAAYAACCAAYAADAAAAAAAAAAAA==

> <PUBCHEM_IUPAC_OPENEYE_NAME>
2-[(1R,3S)-5,9,10-trihydroxy-1-methyl-3,4-dihydro-1H-benzo[g]isochromen-3-yl]acetic acid

> <PUBCHEM_IUPAC_CAS_NAME>
2-[(1R,3S)-5,9,10-trihydroxy-1-methyl-3,4-dihydro-1H-benzo[g][2]benzopyran-3-yl]acetic acid

> <PUBCHEM_IUPAC_NAME>
2-[(1R,3S)-5,9,10-trihydroxy-1-methyl-3,4-dihydro-1H-benzo[g]isochromen-3-yl]acetic acid

> <PUBCHEM_IUPAC_SYSTEMATIC_NAME>
2-[(1R,3S)-1-methyl-5,9,10-tris(oxidanyl)-3,4-dihydro-1H-benzo[g]isochromen-3-yl]ethanoic acid

> <PUBCHEM_IUPAC_TRADITIONAL_NAME>
2-[(1R,3S)-5,9,10-trihydroxy-1-methyl-3,4-dihydro-1H-benz[g]isochromen-3-yl]acetic acid

> <PUBCHEM_IUPAC_INCHI>
InChI=1S/C16H16O6/c1-7-13-10(5-8(22-7)6-12(18)19)15(20)9-3-2-4-11(17)14(9)16(13)21/h2-4,7-8,17,20-21H,5-6H2,1H3,(H,18,19)/t7-,8+/m1/s1

> <PUBCHEM_IUPAC_INCHIKEY>
GBBQTBKHHWHZSJ-SFYZADRCSA-N

> <PUBCHEM_XLOGP3_AA>
2.3

> <PUBCHEM_EXACT_MASS>
304.094688

> <PUBCHEM_MOLECULAR_FORMULA>
C16H16O6

> <PUBCHEM_MOLECULAR_WEIGHT>
304.29464

> <PUBCHEM_OPENEYE_CAN_SMILES>
CC1C2=C(C3=C(C=CC=C3O)C(=C2CC(O1)CC(=O)O)O)O

> <PUBCHEM_OPENEYE_ISO_SMILES>
C[C@@H]1C2=C(C3=C(C=CC=C3O)C(=C2C[C@H](O1)CC(=O)O)O)O

> <PUBCHEM_CACTVS_TPSA>
107

> <PUBCHEM_MONOISOTOPIC_WEIGHT>
304.094688

> <PUBCHEM_TOTAL_CHARGE>
0

> <PUBCHEM_HEAVY_ATOM_COUNT>
22

> <PUBCHEM_ATOM_DEF_STEREO_COUNT>
2

> <PUBCHEM_ATOM_UDEF_STEREO_COUNT>
0

> <PUBCHEM_BOND_DEF_STEREO_COUNT>
0

> <PUBCHEM_BOND_UDEF_STEREO_COUNT>
0

> <PUBCHEM_ISOTOPIC_ATOM_COUNT>
0

> <PUBCHEM_COMPONENT_COUNT>
1

> <PUBCHEM_CACTVS_TAUTO_COUNT>
76

> <PUBCHEM_COORDINATE_TYPE>
1
5
255

> <PUBCHEM_BONDANNOTATIONS>
10  17  5
11  13  8
12  16  8
13  15  8
15  16  8
15  18  8
16  19  8
18  21  8
19  22  8
21  22  8
7  14  6
9  11  8
9  12  8

$$$$

