439529
  -OEChem-07051212462D

 70 74  0     1  0  0  0  0  0999 V2000
    5.8380   -2.3453    0.0000 O   0  0  0  0  0  0  0  0  0  0  0  0
    3.3389    1.6846    0.0000 O   0  0  0  0  0  0  0  0  0  0  0  0
    4.5896   -2.5138    0.0000 O   0  0  0  0  0  0  0  0  0  0  0  0
    5.9546    1.9109    0.0000 O   0  0  0  0  0  0  0  0  0  0  0  0
    9.0701   -1.4793    0.0000 O   0  0  0  0  0  0  0  0  0  0  0  0
    6.8380   -4.0773    0.0000 O   0  0  0  0  0  0  0  0  0  0  0  0
    8.3380   -3.2113    0.0000 O   0  0  0  0  0  0  0  0  0  0  0  0
    9.0404    1.4694    0.0000 O   0  0  0  0  0  0  0  0  0  0  0  0
    4.0563    4.1967    0.0000 O   0  0  0  0  0  0  0  0  0  0  0  0
    2.8897    2.9165    0.0000 O   0  0  0  0  0  0  0  0  0  0  0  0
    6.3380   -1.4793    0.0000 C   0  0  1  0  0  0  0  0  0  0  0  0
    5.4720   -0.9793    0.0000 C   0  0  1  0  0  0  0  0  0  0  0  0
    5.4720    0.0207    0.0000 C   0  0  1  0  0  0  0  0  0  0  0  0
    4.5780    0.5554    0.0000 C   0  0  2  0  0  0  0  0  0  0  0  0
    7.2040   -0.9793    0.0000 C   0  0  1  0  0  0  0  0  0  0  0  0
    3.6720    0.0416    0.0000 C   0  0  1  0  0  0  0  0  0  0  0  0
    6.8380   -2.3453    0.0000 C   0  0  1  0  0  0  0  0  0  0  0  0
    6.3380    0.5207    0.0000 C   0  0  0  0  0  0  0  0  0  0  0  0
    7.2040    0.0207    0.0000 C   0  0  0  0  0  0  0  0  0  0  0  0
    4.3680    1.5693    0.0000 C   0  0  2  0  0  0  0  0  0  0  0  0
    4.5780   -1.5139    0.0000 C   0  0  0  0  0  0  0  0  0  0  0  0
    3.6720   -1.0001    0.0000 C   0  0  0  0  0  0  0  0  0  0  0  0
    2.9097    0.7423    0.0000 C   0  0  0  0  0  0  0  0  0  0  0  0
    5.1301   -1.9190    0.0000 C   0  0  0  0  0  0  0  0  0  0  0  0
    5.4479    1.0487    0.0000 C   0  0  0  0  0  0  0  0  0  0  0  0
    8.2040   -0.9793    0.0000 C   0  0  2  0  0  0  0  0  0  0  0  0
    7.7040   -1.8453    0.0000 C   0  0  0  0  0  0  0  0  0  0  0  0
    7.3380   -3.2113    0.0000 C   0  0  0  0  0  0  0  0  0  0  0  0
    4.5817    2.5462    0.0000 C   0  0  0  0  0  0  0  0  0  0  0  0
    2.0000    1.1576    0.0000 C   0  0  0  0  0  0  0  0  0  0  0  0
    2.2336    0.0055    0.0000 C   0  0  0  0  0  0  0  0  0  0  0  0
    8.7040   -0.1132    0.0000 C   0  0  0  0  0  0  0  0  0  0  0  0
    3.8426    3.2198    0.0000 C   0  0  0  0  0  0  0  0  0  0  0  0
    9.6986   -0.0087    0.0000 C   0  0  0  0  0  0  0  0  0  0  0  0
    8.2973    0.8003    0.0000 C   0  0  0  0  0  0  0  0  0  0  0  0
    9.9065    0.9694    0.0000 C   0  0  0  0  0  0  0  0  0  0  0  0
    6.2081   -0.4043    0.0000 H   0  0  0  0  0  0  0  0  0  0  0  0
    2.8937   -0.3002    0.0000 H   0  0  0  0  0  0  0  0  0  0  0  0
    6.5280   -2.8822    0.0000 H   0  0  0  0  0  0  0  0  0  0  0  0
    6.7366    0.9957    0.0000 H   0  0  0  0  0  0  0  0  0  0  0  0
    5.9395    0.9957    0.0000 H   0  0  0  0  0  0  0  0  0  0  0  0
    7.8146   -0.0869    0.0000 H   0  0  0  0  0  0  0  0  0  0  0  0
    7.4161    0.6034    0.0000 H   0  0  0  0  0  0  0  0  0  0  0  0
    4.0067    2.0732    0.0000 H   0  0  0  0  0  0  0  0  0  0  0  0
    3.0611   -0.8940    0.0000 H   0  0  0  0  0  0  0  0  0  0  0  0
    3.4629   -1.5838    0.0000 H   0  0  0  0  0  0  0  0  0  0  0  0
    4.5474   -1.7070    0.0000 H   0  0  0  0  0  0  0  0  0  0  0  0
    4.9181   -2.5016    0.0000 H   0  0  0  0  0  0  0  0  0  0  0  0
    5.7127   -2.1310    0.0000 H   0  0  0  0  0  0  0  0  0  0  0  0
    5.5509    0.4373    0.0000 H   0  0  0  0  0  0  0  0  0  0  0  0
    5.0129    1.4905    0.0000 H   0  0  0  0  0  0  0  0  0  0  0  0
    8.0436   -1.5781    0.0000 H   0  0  0  0  0  0  0  0  0  0  0  0
    7.1671   -2.1553    0.0000 H   0  0  0  0  0  0  0  0  0  0  0  0
    8.0140   -2.3822    0.0000 H   0  0  0  0  0  0  0  0  0  0  0  0
    8.2410   -1.5353    0.0000 H   0  0  0  0  0  0  0  0  0  0  0  0
    5.1552    2.3105    0.0000 H   0  0  0  0  0  0  0  0  0  0  0  0
    4.9134    3.0700    0.0000 H   0  0  0  0  0  0  0  0  0  0  0  0
    2.2575    1.7216    0.0000 H   0  0  0  0  0  0  0  0  0  0  0  0
    1.4360    1.4152    0.0000 H   0  0  0  0  0  0  0  0  0  0  0  0
    1.7425    0.5937    0.0000 H   0  0  0  0  0  0  0  0  0  0  0  0
    1.7767    0.4247    0.0000 H   0  0  0  0  0  0  0  0  0  0  0  0
    1.8144   -0.4513    0.0000 H   0  0  0  0  0  0  0  0  0  0  0  0
    2.6904   -0.4137    0.0000 H   0  0  0  0  0  0  0  0  0  0  0  0
    6.5746    1.9061    0.0000 H   0  0  0  0  0  0  0  0  0  0  0  0
    9.6070   -1.1693    0.0000 H   0  0  0  0  0  0  0  0  0  0  0  0
    7.1480   -4.6143    0.0000 H   0  0  0  0  0  0  0  0  0  0  0  0
   10.1134   -0.4695    0.0000 H   0  0  0  0  0  0  0  0  0  0  0  0
    7.6909    0.9292    0.0000 H   0  0  0  0  0  0  0  0  0  0  0  0
   10.4729    1.2216    0.0000 H   0  0  0  0  0  0  0  0  0  0  0  0
    3.5981    4.6143    0.0000 H   0  0  0  0  0  0  0  0  0  0  0  0
 11  1  1  1  0  0  0
  1 17  1  0  0  0  0
  2 20  1  0  0  0  0
  2 23  1  0  0  0  0
  3 21  2  0  0  0  0
  4 25  1  0  0  0  0
  4 64  1  0  0  0  0
 26  5  1  6  0  0  0
  5 65  1  0  0  0  0
  6 28  1  0  0  0  0
  6 66  1  0  0  0  0
  7 28  2  0  0  0  0
  8 35  1  0  0  0  0
  8 36  1  0  0  0  0
  9 33  1  0  0  0  0
  9 70  1  0  0  0  0
 10 33  2  0  0  0  0
 11 12  1  0  0  0  0
 11 15  1  0  0  0  0
 11 17  1  0  0  0  0
 12 13  1  0  0  0  0
 12 21  1  0  0  0  0
 12 24  1  1  0  0  0
 13 14  1  0  0  0  0
 13 18  1  0  0  0  0
 13 37  1  6  0  0  0
 14 16  1  0  0  0  0
 14 20  1  0  0  0  0
 14 25  1  1  0  0  0
 15 19  1  0  0  0  0
 15 26  1  0  0  0  0
 15 27  1  6  0  0  0
 16 22  1  0  0  0  0
 16 23  1  0  0  0  0
 16 38  1  6  0  0  0
 17 28  1  1  0  0  0
 17 39  1  0  0  0  0
 18 19  1  0  0  0  0
 18 40  1  0  0  0  0
 18 41  1  0  0  0  0
 19 42  1  0  0  0  0
 19 43  1  0  0  0  0
 20 29  1  1  0  0  0
 20 44  1  0  0  0  0
 21 22  1  0  0  0  0
 22 45  1  0  0  0  0
 22 46  1  0  0  0  0
 23 30  1  0  0  0  0
 23 31  1  0  0  0  0
 24 47  1  0  0  0  0
 24 48  1  0  0  0  0
 24 49  1  0  0  0  0
 25 50  1  0  0  0  0
 25 51  1  0  0  0  0
 26 32  1  0  0  0  0
 26 52  1  0  0  0  0
 27 53  1  0  0  0  0
 27 54  1  0  0  0  0
 27 55  1  0  0  0  0
 29 33  1  0  0  0  0
 29 56  1  0  0  0  0
 29 57  1  0  0  0  0
 30 58  1  0  0  0  0
 30 59  1  0  0  0  0
 30 60  1  0  0  0  0
 31 61  1  0  0  0  0
 31 62  1  0  0  0  0
 31 63  1  0  0  0  0
 32 34  1  0  0  0  0
 32 35  2  0  0  0  0
 34 36  2  0  0  0  0
 34 67  1  0  0  0  0
 35 68  1  0  0  0  0
 36 69  1  0  0  0  0
M  END
> <PUBCHEM_COMPOUND_CID>
439529

> <PUBCHEM_COMPOUND_CANONICALIZED>
1

> <PUBCHEM_CACTVS_COMPLEXITY>
980

> <PUBCHEM_CACTVS_HBOND_ACCEPTOR>
10

> <PUBCHEM_CACTVS_HBOND_DONOR>
4

> <PUBCHEM_CACTVS_ROTATABLE_BOND>
6

> <PUBCHEM_CACTVS_SUBSKEYS>
AAADcfB4PAAAAAAAAAAAAAAAEgAAASJAAAAwYAAAAAAAAEjBgAAAGgAACAAAD1SgmAIyDIAABkCIAqjSiAICCAAkIAAIiAFGCMgNNxYENQ6CWSCl4BELOYPK7vzvgAAAAAAAAACAAAYAADAAAAAAAAAAAA==

> <PUBCHEM_IUPAC_OPENEYE_NAME>
(1S,2'S,3aR,5aR,6R,7S,9aR,9bR)-1-(carboxymethyl)-7-[(S)-3-furyl(hydroxy)methyl]-9b-(hydroxymethyl)-3,3,5a,7-tetramethyl-5-oxo-spiro[1,3a,4,8,9,9a-hexahydrobenzo[e]isobenzofuran-6,3'-oxirane]-2'-carboxylic acid

> <PUBCHEM_IUPAC_CAS_NAME>
(1S,2'S,3aR,5aR,6R,7S,9aR,9bR)-1-(carboxymethyl)-7-[(S)-3-furanyl(hydroxy)methyl]-9b-(hydroxymethyl)-3,3,5a,7-tetramethyl-5-oxo-2'-spiro[1,3a,4,8,9,9a-hexahydrobenzo[e]isobenzofuran-6,3'-oxirane]carboxylic acid

> <PUBCHEM_IUPAC_NAME>
(1S,2'S,3aR,5aR,6R,7S,9aR,9bR)-1-(carboxymethyl)-7-[(S)-furan-3-yl(hydroxy)methyl]-9b-(hydroxymethyl)-3,3,5a,7-tetramethyl-5-oxospiro[1,3a,4,8,9,9a-hexahydrobenzo[e][2]benzofuran-6,3'-oxirane]-2'-carboxylic acid

> <PUBCHEM_IUPAC_SYSTEMATIC_NAME>
(1S,2'S,3aR,5aR,6R,7S,9aR,9bR)-7-[(S)-furan-3-yl(oxidanyl)methyl]-9b-(hydroxymethyl)-1-(2-hydroxy-2-oxoethyl)-3,3,5a,7-tetramethyl-5-oxidanylidene-spiro[1,3a,4,8,9,9a-hexahydrobenzo[e][2]benzofuran-6,3'-oxirane]-2'-carboxylic acid

> <PUBCHEM_IUPAC_TRADITIONAL_NAME>
(1S,2'S,3aR,5aR,6R,7S,9aR,9bR)-1-(carboxymethyl)-7-[(S)-3-furyl(hydroxy)methyl]-5-keto-3,3,5a,7-tetramethyl-9b-methylol-spiro[1,3a,4,8,9,9a-hexahydrobenz[e]isobenzofuran-6,3'-oxirane]-2'-carboxylic acid

> <PUBCHEM_IUPAC_INCHI>
InChI=1S/C26H34O10/c1-22(2)15-9-16(28)24(4)14(25(15,12-27)17(35-22)10-18(29)30)5-7-23(3,19(31)13-6-8-34-11-13)26(24)20(36-26)21(32)33/h6,8,11,14-15,17,19-20,27,31H,5,7,9-10,12H2,1-4H3,(H,29,30)(H,32,33)/t14-,15-,17-,19-,20+,23-,24-,25+,26+/m0/s1

> <PUBCHEM_IUPAC_INCHIKEY>
WOJQWDNWUNSRTA-MSGMIQHVSA-N

> <PUBCHEM_XLOGP3_AA>
0.2

> <PUBCHEM_EXACT_MASS>
506.215197

> <PUBCHEM_MOLECULAR_FORMULA>
C26H34O10

> <PUBCHEM_MOLECULAR_WEIGHT>
506.54216

> <PUBCHEM_OPENEYE_CAN_SMILES>
CC1(C2CC(=O)C3(C(C2(C(O1)CC(=O)O)CO)CCC(C34C(O4)C(=O)O)(C)C(C5=COC=C5)O)C)C

> <PUBCHEM_OPENEYE_ISO_SMILES>
C[C@]1(CC[C@H]2[C@]([C@@]13[C@H](O3)C(=O)O)(C(=O)C[C@@H]4[C@@]2([C@@H](OC4(C)C)CC(=O)O)CO)C)[C@H](C5=COC=C5)O

> <PUBCHEM_CACTVS_TPSA>
167

> <PUBCHEM_MONOISOTOPIC_WEIGHT>
506.215197

> <PUBCHEM_TOTAL_CHARGE>
0

> <PUBCHEM_HEAVY_ATOM_COUNT>
36

> <PUBCHEM_ATOM_DEF_STEREO_COUNT>
9

> <PUBCHEM_ATOM_UDEF_STEREO_COUNT>
0

> <PUBCHEM_BOND_DEF_STEREO_COUNT>
0

> <PUBCHEM_BOND_UDEF_STEREO_COUNT>
0

> <PUBCHEM_ISOTOPIC_ATOM_COUNT>
0

> <PUBCHEM_COMPONENT_COUNT>
1

> <PUBCHEM_CACTVS_TAUTO_COUNT>
2

> <PUBCHEM_COORDINATE_TYPE>
1
5
255

> <PUBCHEM_BONDANNOTATIONS>
11  1  5
12  24  5
13  37  6
14  25  5
15  27  6
16  38  6
17  28  5
20  29  5
32  34  8
32  35  8
34  36  8
26  5  6
8  35  8
8  36  8

$$$$

