   Color/Form
        Colorless liquid
   from [1]HSDB

   Odor

     * Amine odor
     * Fish-like odor.

   from [2]HSDB

   Boiling Point
        68-69 deg C
   from [3]HSDB

   Melting Point
        -85 deg C
   from [4]HSDB

   Corrosivity
        Strongly caustic
   from [5]HSDB

   Critical Temperature and Pressure
        Critical temperature: 519 K; Critical pressure: 4.07 MPa
   from [6]HSDB

   Density/Specific Gravity
        0.724 at 25 deg C/4 deg C
   from [7]HSDB

   Dissociation Constants
        pKa = 10.68 at 25 deg C
   from [8]HSDB

   Heat of Combustion
        -3013.5 kJ/mol at 25 deg C (liquid); -3047.4 kJ/mol at 25 deg C
   (gas)
   from [9]HSDB

   Heat of Vaporization
        33.85 kJ/mol at 25 deg C
   from [10]HSDB

   Octanol/Water Partition Coefficient
        log Kow = 0.73
   from [11]HSDB

   Solubilities

     * Very sol in alcohol, ether; Sol in acetone, benzene
     * In water, 1X10+6 mg/L (miscible) at 25 deg C

   from [12]HSDB

   Spectral Properties

     * Index of refraction: 1.3988 at 17 deg C/D
     * IR: 2:151F (Aldrich Library of Infrared Spectra, Aldrich Chemical
       Co, Milwaukee, WI)
     * MASS: 308 (NIST/EPA/MSDC Mass Spectral database, 1990 version); 21
       (National Bureau of Standards EPA-NIH Mass Spectra Data Base,
       NSRDS-NBS-63)

   from [13]HSDB

   Surface Tension
        21.75 mN/m at 25 deg C; 19.02 mN/m at 50 deg C
   from [14]HSDB

   Vapor Density
        2.5 (Air = 1)
   from [15]HSDB

   Vapor Pressure
        138 mm Hg at 25 deg C
   from [16]HSDB

   Other Chemical/Physical Properties

     * CONVERSION UNITS: 1 MG/L= 334 PPM; 1 PPM= 2.99 MG/CU M
     * It is lighter than water. ... Its vapors are heavier than air. ...
       It weighs 6.1 lb/gal.
     * Henry's Law constant = 1.4X10-5 atm-cu m/mole at 25 deg C (est)
     * Hydroxyl radical reaction rate constant = 3.4X10-11 cu
       cm/molecule-sec at 25 deg C (est)

   from [17]HSDB

   Computed Properties
   Molecular Weight                  73.13684 [g/mol]
   Molecular Formula                 C[4]H[11]N
   XLogP3                            0.7
   H-Bond Donor                      1
   H-Bond Acceptor                   1
   Rotatable Bond Count              1
   Exact Mass                        73.089149
   MonoIsotopic Mass                 73.089149
   Topological Polar Surface Area    26
   Heavy Atom Count                  5
   Formal Charge                     0
   Complexity                        17.6
   Isotope Atom Count                0
   Defined Atom Stereocenter Count   0
   Undefined Atom Stereocenter Count 0
   Defined Bond Stereocenter Count   0
   Undefined Bond Stereocenter Count 0
   Covalently-Bonded Unit Count      1
   Feature 3D Donor Count            1
   Feature 3D Cation Count           1
   Feature 3D Hydrophobe Count       1
   Effective Rotor Count             1
   Conformer Sampling RMSD           0.4
   CID Conformer Count               [18]1

References

   1. http://toxnet.nlm.nih.gov/cgi-bin/sis/search/r?dbs+hsdb:@term+@rn+@rel+78-81-9
   2. http://toxnet.nlm.nih.gov/cgi-bin/sis/search/r?dbs+hsdb:@term+@rn+@rel+78-81-9
   3. http://toxnet.nlm.nih.gov/cgi-bin/sis/search/r?dbs+hsdb:@term+@rn+@rel+78-81-9
   4. http://toxnet.nlm.nih.gov/cgi-bin/sis/search/r?dbs+hsdb:@term+@rn+@rel+78-81-9
   5. http://toxnet.nlm.nih.gov/cgi-bin/sis/search/r?dbs+hsdb:@term+@rn+@rel+78-81-9
   6. http://toxnet.nlm.nih.gov/cgi-bin/sis/search/r?dbs+hsdb:@term+@rn+@rel+78-81-9
   7. http://toxnet.nlm.nih.gov/cgi-bin/sis/search/r?dbs+hsdb:@term+@rn+@rel+78-81-9
   8. http://toxnet.nlm.nih.gov/cgi-bin/sis/search/r?dbs+hsdb:@term+@rn+@rel+78-81-9
   9. http://toxnet.nlm.nih.gov/cgi-bin/sis/search/r?dbs+hsdb:@term+@rn+@rel+78-81-9
  10. http://toxnet.nlm.nih.gov/cgi-bin/sis/search/r?dbs+hsdb:@term+@rn+@rel+78-81-9
  11. http://toxnet.nlm.nih.gov/cgi-bin/sis/search/r?dbs+hsdb:@term+@rn+@rel+78-81-9
  12. http://toxnet.nlm.nih.gov/cgi-bin/sis/search/r?dbs+hsdb:@term+@rn+@rel+78-81-9
  13. http://toxnet.nlm.nih.gov/cgi-bin/sis/search/r?dbs+hsdb:@term+@rn+@rel+78-81-9
  14. http://toxnet.nlm.nih.gov/cgi-bin/sis/search/r?dbs+hsdb:@term+@rn+@rel+78-81-9
  15. http://toxnet.nlm.nih.gov/cgi-bin/sis/search/r?dbs+hsdb:@term+@rn+@rel+78-81-9
  16. http://toxnet.nlm.nih.gov/cgi-bin/sis/search/r?dbs+hsdb:@term+@rn+@rel+78-81-9
  17. http://toxnet.nlm.nih.gov/cgi-bin/sis/search/r?dbs+hsdb:@term+@rn+@rel+78-81-9
  18. http://pubchem.ncbi.nlm.nih.gov/vw3d/vw3d.cgi?cid=6558
