586285
  -OEChem-06241222462D

 26 27  0     0  0  0  0  0  0999 V2000
    2.0000   -1.7694    0.0000 Cl  0  0  0  0  0  0  0  0  0  0  0  0
    5.4641   -1.7694    0.0000 Cl  0  0  0  0  0  0  0  0  0  0  0  0
    6.2731    2.8184    0.0000 S   0  0  0  0  0  0  0  0  0  0  0  0
    3.7320   -0.7694    0.0000 O   0  0  0  0  0  0  0  0  0  0  0  0
    5.4641   -0.7694    0.0000 O   0  0  0  0  0  0  0  0  0  0  0  0
    3.7320   -1.7694    0.0000 C   0  0  0  0  0  0  0  0  0  0  0  0
    2.8660   -2.2694    0.0000 C   0  0  0  0  0  0  0  0  0  0  0  0
    4.5981   -2.2694    0.0000 C   0  0  0  0  0  0  0  0  0  0  0  0
    5.4641    2.2306    0.0000 C   0  0  0  0  0  0  0  0  0  0  0  0
    2.8660   -3.2694    0.0000 C   0  0  0  0  0  0  0  0  0  0  0  0
    4.5981   -3.2694    0.0000 C   0  0  0  0  0  0  0  0  0  0  0  0
    3.7320   -3.7694    0.0000 C   0  0  0  0  0  0  0  0  0  0  0  0
    5.4641    1.2306    0.0000 C   0  0  0  0  0  0  0  0  0  0  0  0
    4.6551    2.8184    0.0000 C   0  0  0  0  0  0  0  0  0  0  0  0
    4.5981    0.7306    0.0000 C   0  0  0  0  0  0  0  0  0  0  0  0
    4.5981   -0.2694    0.0000 C   0  0  0  0  0  0  0  0  0  0  0  0
    4.9641    3.7694    0.0000 C   0  0  0  0  0  0  0  0  0  0  0  0
    5.9641    3.7694    0.0000 C   0  0  0  0  0  0  0  0  0  0  0  0
    2.3291   -3.5794    0.0000 H   0  0  0  0  0  0  0  0  0  0  0  0
    5.1350   -3.5794    0.0000 H   0  0  0  0  0  0  0  0  0  0  0  0
    3.7320   -4.3894    0.0000 H   0  0  0  0  0  0  0  0  0  0  0  0
    6.0010    0.9206    0.0000 H   0  0  0  0  0  0  0  0  0  0  0  0
    4.0654    2.6268    0.0000 H   0  0  0  0  0  0  0  0  0  0  0  0
    4.0611    1.0406    0.0000 H   0  0  0  0  0  0  0  0  0  0  0  0
    4.5997    4.2710    0.0000 H   0  0  0  0  0  0  0  0  0  0  0  0
    6.3285    4.2710    0.0000 H   0  0  0  0  0  0  0  0  0  0  0  0
  1  7  1  0  0  0  0
  2  8  1  0  0  0  0
  3  9  1  0  0  0  0
  3 18  1  0  0  0  0
  4  6  1  0  0  0  0
  4 16  1  0  0  0  0
  5 16  2  0  0  0  0
  6  7  2  0  0  0  0
  6  8  1  0  0  0  0
  7 10  1  0  0  0  0
  8 11  2  0  0  0  0
  9 13  1  0  0  0  0
  9 14  2  0  0  0  0
 10 12  2  0  0  0  0
 10 19  1  0  0  0  0
 11 12  1  0  0  0  0
 11 20  1  0  0  0  0
 12 21  1  0  0  0  0
 13 15  2  3  0  0  0
 13 22  1  0  0  0  0
 14 17  1  0  0  0  0
 14 23  1  0  0  0  0
 15 16  1  0  0  0  0
 15 24  1  0  0  0  0
 17 18  2  0  0  0  0
 17 25  1  0  0  0  0
 18 26  1  0  0  0  0
M  END
> <PUBCHEM_COMPOUND_CID>
586285

> <PUBCHEM_COMPOUND_CANONICALIZED>
1

> <PUBCHEM_CACTVS_COMPLEXITY>
312

> <PUBCHEM_CACTVS_HBOND_ACCEPTOR>
3

> <PUBCHEM_CACTVS_HBOND_DONOR>
0

> <PUBCHEM_CACTVS_ROTATABLE_BOND>
4

> <PUBCHEM_CACTVS_SUBSKEYS>
AAADccBwMABGAAAAAAAAAAAAAAAAASAAAAAwAAAAAAAAAAABwAAAGgYAAAAACAaE0CCwD4AABAiMACDSCAADCIAgLVBIiBgEC8gMJiOlMxqCOiCkwBEoqYeAQAAAAAAAAACACAAAAAAAAQAQAAAAAAAAAA==

> <PUBCHEM_IUPAC_OPENEYE_NAME>
(2,6-dichlorophenyl) 3-(2-thienyl)prop-2-enoate

> <PUBCHEM_IUPAC_CAS_NAME>
3-thiophen-2-yl-2-propenoic acid (2,6-dichlorophenyl) ester

> <PUBCHEM_IUPAC_NAME>
(2,6-dichlorophenyl) 3-thiophen-2-ylprop-2-enoate

> <PUBCHEM_IUPAC_SYSTEMATIC_NAME>
[2,6-bis(chloranyl)phenyl] 3-thiophen-2-ylprop-2-enoate

> <PUBCHEM_IUPAC_TRADITIONAL_NAME>
3-(2-thienyl)acrylic acid (2,6-dichlorophenyl) ester

> <PUBCHEM_IUPAC_INCHI>
InChI=1S/C13H8Cl2O2S/c14-10-4-1-5-11(15)13(10)17-12(16)7-6-9-3-2-8-18-9/h1-8H

> <PUBCHEM_IUPAC_INCHIKEY>
ZCYDOMNKDWYUPH-UHFFFAOYSA-N

> <PUBCHEM_XLOGP3_AA>
4.7

> <PUBCHEM_EXACT_MASS>
297.962206

> <PUBCHEM_MOLECULAR_FORMULA>
C13H8Cl2O2S

> <PUBCHEM_MOLECULAR_WEIGHT>
299.17242

> <PUBCHEM_OPENEYE_CAN_SMILES>
C1=CC(=C(C(=C1)Cl)OC(=O)C=CC2=CC=CS2)Cl

> <PUBCHEM_OPENEYE_ISO_SMILES>
C1=CC(=C(C(=C1)Cl)OC(=O)C=CC2=CC=CS2)Cl

> <PUBCHEM_CACTVS_TPSA>
54.5

> <PUBCHEM_MONOISOTOPIC_WEIGHT>
297.962206

> <PUBCHEM_TOTAL_CHARGE>
0

> <PUBCHEM_HEAVY_ATOM_COUNT>
18

> <PUBCHEM_ATOM_DEF_STEREO_COUNT>
0

> <PUBCHEM_ATOM_UDEF_STEREO_COUNT>
0

> <PUBCHEM_BOND_DEF_STEREO_COUNT>
0

> <PUBCHEM_BOND_UDEF_STEREO_COUNT>
1

> <PUBCHEM_ISOTOPIC_ATOM_COUNT>
0

> <PUBCHEM_COMPONENT_COUNT>
1

> <PUBCHEM_CACTVS_TAUTO_COUNT>
1

> <PUBCHEM_COORDINATE_TYPE>
1
5
255

> <PUBCHEM_BONDANNOTATIONS>
10  12  8
11  12  8
13  15  1
14  17  8
17  18  8
3  18  8
3  9  8
6  7  8
6  8  8
7  10  8
8  11  8
9  14  8

$$$$

