5281730
  -OEChem-07051212592D

 42 45  0     0  0  0  0  0  0999 V2000
    8.1580   -1.0347    0.0000 O   0  0  0  0  0  0  0  0  0  0  0  0
    6.3981    2.0000    0.0000 O   0  0  0  0  0  0  0  0  0  0  0  0
    6.3981   -2.0000    0.0000 O   0  0  0  0  0  0  0  0  0  0  0  0
    8.1465    2.0346    0.0000 O   0  0  0  0  0  0  0  0  0  0  0  0
   11.8031   -1.0458    0.0000 O   0  0  0  0  0  0  0  0  0  0  0  0
    2.8680   -1.0241    0.0000 O   0  0  0  0  0  0  0  0  0  0  0  0
    4.6497   -2.0346    0.0000 O   0  0  0  0  0  0  0  0  0  0  0  0
    4.6497    2.0346    0.0000 O   0  0  0  0  0  0  0  0  0  0  0  0
    7.2641    0.5000    0.0000 C   0  0  0  0  0  0  0  0  0  0  0  0
    7.2641   -0.5000    0.0000 C   0  0  0  0  0  0  0  0  0  0  0  0
    9.0641    0.5208    0.0000 C   0  0  0  0  0  0  0  0  0  0  0  0
    5.5320    0.5000    0.0000 C   0  0  0  0  0  0  0  0  0  0  0  0
    5.5320   -0.5000    0.0000 C   0  0  0  0  0  0  0  0  0  0  0  0
    6.3981    1.0000    0.0000 C   0  0  0  0  0  0  0  0  0  0  0  0
    8.1580    1.0347    0.0000 C   0  0  0  0  0  0  0  0  0  0  0  0
    9.0641   -0.5208    0.0000 C   0  0  0  0  0  0  0  0  0  0  0  0
    6.3981   -1.0000    0.0000 C   0  0  0  0  0  0  0  0  0  0  0  0
    9.9953    1.0777    0.0000 C   0  0  0  0  0  0  0  0  0  0  0  0
    4.6381   -1.0347    0.0000 C   0  0  0  0  0  0  0  0  0  0  0  0
    4.6381    1.0347    0.0000 C   0  0  0  0  0  0  0  0  0  0  0  0
    9.9953   -1.0777    0.0000 C   0  0  0  0  0  0  0  0  0  0  0  0
   10.9391    0.5425    0.0000 C   0  0  0  0  0  0  0  0  0  0  0  0
   10.9391   -0.5425    0.0000 C   0  0  0  0  0  0  0  0  0  0  0  0
    3.7320   -0.5208    0.0000 C   0  0  0  0  0  0  0  0  0  0  0  0
    3.7320    0.5208    0.0000 C   0  0  0  0  0  0  0  0  0  0  0  0
    9.9837    2.0777    0.0000 C   0  0  0  0  0  0  0  0  0  0  0  0
   12.6711   -0.5492    0.0000 C   0  0  0  0  0  0  0  0  0  0  0  0
    2.0000   -0.5275    0.0000 C   0  0  0  0  0  0  0  0  0  0  0  0
    9.9881   -1.6977    0.0000 H   0  0  0  0  0  0  0  0  0  0  0  0
   11.4748    0.8546    0.0000 H   0  0  0  0  0  0  0  0  0  0  0  0
    3.1963    0.8329    0.0000 H   0  0  0  0  0  0  0  0  0  0  0  0
   10.6037    2.0848    0.0000 H   0  0  0  0  0  0  0  0  0  0  0  0
    9.9765    2.6976    0.0000 H   0  0  0  0  0  0  0  0  0  0  0  0
    9.3637    2.0705    0.0000 H   0  0  0  0  0  0  0  0  0  0  0  0
    5.8611    2.3100    0.0000 H   0  0  0  0  0  0  0  0  0  0  0  0
    6.9350   -2.3100    0.0000 H   0  0  0  0  0  0  0  0  0  0  0  0
   12.9790   -1.0873    0.0000 H   0  0  0  0  0  0  0  0  0  0  0  0
   13.2092   -0.2412    0.0000 H   0  0  0  0  0  0  0  0  0  0  0  0
   12.3632   -0.0110    0.0000 H   0  0  0  0  0  0  0  0  0  0  0  0
    2.3079    0.0106    0.0000 H   0  0  0  0  0  0  0  0  0  0  0  0
    1.4619   -0.2196    0.0000 H   0  0  0  0  0  0  0  0  0  0  0  0
    1.6921   -1.0656    0.0000 H   0  0  0  0  0  0  0  0  0  0  0  0
  1 10  1  0  0  0  0
  1 16  1  0  0  0  0
  2 14  1  0  0  0  0
  2 35  1  0  0  0  0
  3 17  1  0  0  0  0
  3 36  1  0  0  0  0
  4 15  2  0  0  0  0
  5 23  1  0  0  0  0
  5 27  1  0  0  0  0
  6 24  1  0  0  0  0
  6 28  1  0  0  0  0
  7 19  2  0  0  0  0
  8 20  2  0  0  0  0
  9 10  1  0  0  0  0
  9 14  2  0  0  0  0
  9 15  1  0  0  0  0
 10 17  2  0  0  0  0
 11 15  1  0  0  0  0
 11 16  2  0  0  0  0
 11 18  1  0  0  0  0
 12 13  2  0  0  0  0
 12 14  1  0  0  0  0
 12 20  1  0  0  0  0
 13 17  1  0  0  0  0
 13 19  1  0  0  0  0
 16 21  1  0  0  0  0
 18 22  2  0  0  0  0
 18 26  1  0  0  0  0
 19 24  1  0  0  0  0
 20 25  1  0  0  0  0
 21 23  2  0  0  0  0
 21 29  1  0  0  0  0
 22 23  1  0  0  0  0
 22 30  1  0  0  0  0
 24 25  2  0  0  0  0
 25 31  1  0  0  0  0
 26 32  1  0  0  0  0
 26 33  1  0  0  0  0
 26 34  1  0  0  0  0
 27 37  1  0  0  0  0
 27 38  1  0  0  0  0
 27 39  1  0  0  0  0
 28 40  1  0  0  0  0
 28 41  1  0  0  0  0
 28 42  1  0  0  0  0
M  END
> <PUBCHEM_COMPOUND_CID>
5281730

> <PUBCHEM_COMPOUND_CANONICALIZED>
1

> <PUBCHEM_CACTVS_COMPLEXITY>
730

> <PUBCHEM_CACTVS_HBOND_ACCEPTOR>
8

> <PUBCHEM_CACTVS_HBOND_DONOR>
2

> <PUBCHEM_CACTVS_ROTATABLE_BOND>
2

> <PUBCHEM_CACTVS_SUBSKEYS>
AAADccB4PAAAAAAAAAAAAAAAAAAAAAAAAAA0YIEAAAAAAACRQAAAGgAACAAADASAmAIyBoAABgCIAqBSAAICCAAkIAAAiAFGiMgNJzaGNR6CeWOl4BULuYfL7vzu4QADCAAYQADCAAYQADCAAAAAAAAAAA==

> <PUBCHEM_IUPAC_OPENEYE_NAME>
6,11-dihydroxy-3,8-dimethoxy-1-methyl-benzo[b]xanthene-7,10,12-trione

> <PUBCHEM_IUPAC_CAS_NAME>
6,11-dihydroxy-3,8-dimethoxy-1-methylbenzo[b]xanthene-7,10,12-trione

> <PUBCHEM_IUPAC_NAME>
6,11-dihydroxy-3,8-dimethoxy-1-methylbenzo[b]xanthene-7,10,12-trione

> <PUBCHEM_IUPAC_SYSTEMATIC_NAME>
3,8-dimethoxy-1-methyl-6,11-bis(oxidanyl)benzo[b]xanthene-7,10,12-trione

> <PUBCHEM_IUPAC_TRADITIONAL_NAME>
6,11-dihydroxy-3,8-dimethoxy-1-methyl-benzo[b]xanthene-7,10,12-trione

> <PUBCHEM_IUPAC_INCHI>
InChI=1S/C20H14O8/c1-7-4-8(26-2)5-10-12(7)17(23)15-18(24)13-9(21)6-11(27-3)16(22)14(13)19(25)20(15)28-10/h4-6,24-25H,1-3H3

> <PUBCHEM_IUPAC_INCHIKEY>
ZOQMSOSJEWBMHP-UHFFFAOYSA-N

> <PUBCHEM_XLOGP3_AA>
3.4

> <PUBCHEM_EXACT_MASS>
382.068867

> <PUBCHEM_MOLECULAR_FORMULA>
C20H14O8

> <PUBCHEM_MOLECULAR_WEIGHT>
382.32036

> <PUBCHEM_OPENEYE_CAN_SMILES>
CC1=CC(=CC2=C1C(=O)C3=C(O2)C(=C4C(=C3O)C(=O)C=C(C4=O)OC)O)OC

> <PUBCHEM_OPENEYE_ISO_SMILES>
CC1=CC(=CC2=C1C(=O)C3=C(O2)C(=C4C(=C3O)C(=O)C=C(C4=O)OC)O)OC

> <PUBCHEM_CACTVS_TPSA>
119

> <PUBCHEM_MONOISOTOPIC_WEIGHT>
382.068867

> <PUBCHEM_TOTAL_CHARGE>
0

> <PUBCHEM_HEAVY_ATOM_COUNT>
28

> <PUBCHEM_ATOM_DEF_STEREO_COUNT>
0

> <PUBCHEM_ATOM_UDEF_STEREO_COUNT>
0

> <PUBCHEM_BOND_DEF_STEREO_COUNT>
0

> <PUBCHEM_BOND_UDEF_STEREO_COUNT>
0

> <PUBCHEM_ISOTOPIC_ATOM_COUNT>
0

> <PUBCHEM_COMPONENT_COUNT>
1

> <PUBCHEM_CACTVS_TAUTO_COUNT>
17

> <PUBCHEM_COORDINATE_TYPE>
1
5
255

> <PUBCHEM_BONDANNOTATIONS>
1  10  8
1  16  8
10  17  8
11  15  8
11  16  8
11  18  8
12  13  8
12  14  8
13  17  8
16  21  8
18  22  8
21  23  8
22  23  8
9  10  8
9  14  8
9  15  8

$$$$

