236417
  -OEChem-07051213062D

 52 55  0     1  0  0  0  0  0999 V2000
    8.6500    2.5983    0.0000 O   0  0  0  0  0  0  0  0  0  0  0  0
    2.0000   -1.7093    0.0000 O   0  0  0  0  0  0  0  0  0  0  0  0
    7.3931    0.3431    0.0000 C   0  0  1  0  0  0  0  0  0  0  0  0
    6.5271   -0.1569    0.0000 C   0  0  1  0  0  0  0  0  0  0  0  0
    7.3931    1.3431    0.0000 C   0  0  2  0  0  0  0  0  0  0  0  0
    5.6610    0.3431    0.0000 C   0  0  1  0  0  0  0  0  0  0  0  0
    4.7510   -0.1638    0.0000 C   0  0  2  0  0  0  0  0  0  0  0  0
    6.5271    1.8431    0.0000 C   0  0  0  0  0  0  0  0  0  0  0  0
    5.6610    1.3431    0.0000 C   0  0  0  0  0  0  0  0  0  0  0  0
    8.3393    1.6478    0.0000 C   0  0  2  0  0  0  0  0  0  0  0  0
    8.3393    0.0383    0.0000 C   0  0  0  0  0  0  0  0  0  0  0  0
    6.5431   -1.1984    0.0000 C   0  0  0  0  0  0  0  0  0  0  0  0
    8.9229    0.8431    0.0000 C   0  0  0  0  0  0  0  0  0  0  0  0
    5.6451   -1.7262    0.0000 C   0  0  1  0  0  0  0  0  0  0  0  0
    4.7430   -1.2054    0.0000 C   0  0  0  0  0  0  0  0  0  0  0  0
    7.3931    2.3431    0.0000 C   0  0  0  0  0  0  0  0  0  0  0  0
    3.8242    0.4003    0.0000 C   0  0  0  0  0  0  0  0  0  0  0  0
    4.7587    0.8362    0.0000 C   0  0  0  0  0  0  0  0  0  0  0  0
    2.8763   -0.1276    0.0000 C   0  0  0  0  0  0  0  0  0  0  0  0
    3.8076   -1.7551    0.0000 C   0  0  0  0  0  0  0  0  0  0  0  0
    5.6489   -2.7262    0.0000 C   0  0  0  0  0  0  0  0  0  0  0  0
    2.8680   -1.2126    0.0000 C   0  0  0  0  0  0  0  0  0  0  0  0
    7.4830   -0.5022    0.0000 H   0  0  0  0  0  0  0  0  0  0  0  0
    7.2664   -0.5762    0.0000 H   0  0  0  0  0  0  0  0  0  0  0  0
    6.3972    0.7681    0.0000 H   0  0  0  0  0  0  0  0  0  0  0  0
    6.9256    2.3180    0.0000 H   0  0  0  0  0  0  0  0  0  0  0  0
    6.1285    2.3180    0.0000 H   0  0  0  0  0  0  0  0  0  0  0  0
    5.4490    1.9257    0.0000 H   0  0  0  0  0  0  0  0  0  0  0  0
    5.0504    1.2354    0.0000 H   0  0  0  0  0  0  0  0  0  0  0  0
    7.9018    2.0872    0.0000 H   0  0  0  0  0  0  0  0  0  0  0  0
    8.0883   -0.5286    0.0000 H   0  0  0  0  0  0  0  0  0  0  0  0
    8.8767   -0.2709    0.0000 H   0  0  0  0  0  0  0  0  0  0  0  0
    6.7612   -1.7788    0.0000 H   0  0  0  0  0  0  0  0  0  0  0  0
    7.1523   -1.0829    0.0000 H   0  0  0  0  0  0  0  0  0  0  0  0
    9.3838    0.4283    0.0000 H   0  0  0  0  0  0  0  0  0  0  0  0
    9.3838    1.2578    0.0000 H   0  0  0  0  0  0  0  0  0  0  0  0
    5.1087   -2.0372    0.0000 H   0  0  0  0  0  0  0  0  0  0  0  0
    8.0131    2.3431    0.0000 H   0  0  0  0  0  0  0  0  0  0  0  0
    7.3931    2.9631    0.0000 H   0  0  0  0  0  0  0  0  0  0  0  0
    6.7731    2.3431    0.0000 H   0  0  0  0  0  0  0  0  0  0  0  0
    4.2324    0.8670    0.0000 H   0  0  0  0  0  0  0  0  0  0  0  0
    3.4343    0.8823    0.0000 H   0  0  0  0  0  0  0  0  0  0  0  0
    5.3787    0.8314    0.0000 H   0  0  0  0  0  0  0  0  0  0  0  0
    4.7635    1.4562    0.0000 H   0  0  0  0  0  0  0  0  0  0  0  0
    4.1388    0.8410    0.0000 H   0  0  0  0  0  0  0  0  0  0  0  0
    2.6718    0.4576    0.0000 H   0  0  0  0  0  0  0  0  0  0  0  0
    2.2647   -0.2290    0.0000 H   0  0  0  0  0  0  0  0  0  0  0  0
    3.8100   -2.3751    0.0000 H   0  0  0  0  0  0  0  0  0  0  0  0
    5.0289   -2.7286    0.0000 H   0  0  0  0  0  0  0  0  0  0  0  0
    5.6513   -3.3462    0.0000 H   0  0  0  0  0  0  0  0  0  0  0  0
    6.2689   -2.7238    0.0000 H   0  0  0  0  0  0  0  0  0  0  0  0
    9.2566    2.7262    0.0000 H   0  0  0  0  0  0  0  0  0  0  0  0
 10  1  1  1  0  0  0
  1 52  1  0  0  0  0
  2 22  2  0  0  0  0
  3  4  1  0  0  0  0
  3  5  1  0  0  0  0
  3 11  1  0  0  0  0
  3 23  1  6  0  0  0
  4  6  1  0  0  0  0
  4 12  1  0  0  0  0
  4 24  1  1  0  0  0
  5  8  1  0  0  0  0
  5 10  1  0  0  0  0
  5 16  1  1  0  0  0
  6  7  1  0  0  0  0
  6  9  1  0  0  0  0
  6 25  1  6  0  0  0
  7 15  1  0  0  0  0
  7 17  1  0  0  0  0
  7 18  1  1  0  0  0
  8  9  1  0  0  0  0
  8 26  1  0  0  0  0
  8 27  1  0  0  0  0
  9 28  1  0  0  0  0
  9 29  1  0  0  0  0
 10 13  1  0  0  0  0
 10 30  1  0  0  0  0
 11 13  1  0  0  0  0
 11 31  1  0  0  0  0
 11 32  1  0  0  0  0
 12 14  1  0  0  0  0
 12 33  1  0  0  0  0
 12 34  1  0  0  0  0
 13 35  1  0  0  0  0
 13 36  1  0  0  0  0
 14 15  1  0  0  0  0
 14 21  1  6  0  0  0
 14 37  1  0  0  0  0
 15 20  2  0  0  0  0
 16 38  1  0  0  0  0
 16 39  1  0  0  0  0
 16 40  1  0  0  0  0
 17 19  1  0  0  0  0
 17 41  1  0  0  0  0
 17 42  1  0  0  0  0
 18 43  1  0  0  0  0
 18 44  1  0  0  0  0
 18 45  1  0  0  0  0
 19 22  1  0  0  0  0
 19 46  1  0  0  0  0
 19 47  1  0  0  0  0
 20 22  1  0  0  0  0
 20 48  1  0  0  0  0
 21 49  1  0  0  0  0
 21 50  1  0  0  0  0
 21 51  1  0  0  0  0
M  END
> <PUBCHEM_COMPOUND_CID>
236417

> <PUBCHEM_COMPOUND_CANONICALIZED>
1

> <PUBCHEM_CACTVS_COMPLEXITY>
536

> <PUBCHEM_CACTVS_HBOND_ACCEPTOR>
2

> <PUBCHEM_CACTVS_HBOND_DONOR>
1

> <PUBCHEM_CACTVS_ROTATABLE_BOND>
0

> <PUBCHEM_CACTVS_SUBSKEYS>
AAADceB4MAAAAAAAAAAAAAAAAAAAAYAAAAAwYIAAAAAAAGDAAAAAGgAACAAADxSggAICAAAAAgCIAqBSAAAAAAAgAAAACAEAAEgAEBIAAQAAQAAEgAAIAQOIyPCPgAAAAAAAAACAAAQAACAAAIAADAAAAA==

> <PUBCHEM_IUPAC_OPENEYE_NAME>
(6S,8R,9S,10R,13S,14S,17S)-17-hydroxy-6,10,13-trimethyl-1,2,6,7,8,9,11,12,14,15,16,17-dodecahydrocyclopenta[a]phenanthren-3-one

> <PUBCHEM_IUPAC_CAS_NAME>
(6S,8R,9S,10R,13S,14S,17S)-17-hydroxy-6,10,13-trimethyl-1,2,6,7,8,9,11,12,14,15,16,17-dodecahydrocyclopenta[a]phenanthren-3-one

> <PUBCHEM_IUPAC_NAME>
(6S,8R,9S,10R,13S,14S,17S)-17-hydroxy-6,10,13-trimethyl-1,2,6,7,8,9,11,12,14,15,16,17-dodecahydrocyclopenta[a]phenanthren-3-one

> <PUBCHEM_IUPAC_SYSTEMATIC_NAME>
(6S,8R,9S,10R,13S,14S,17S)-6,10,13-trimethyl-17-oxidanyl-1,2,6,7,8,9,11,12,14,15,16,17-dodecahydrocyclopenta[a]phenanthren-3-one

> <PUBCHEM_IUPAC_TRADITIONAL_NAME>
(6S,8R,9S,10R,13S,14S,17S)-17-hydroxy-6,10,13-trimethyl-1,2,6,7,8,9,11,12,14,15,16,17-dodecahydrocyclopenta[a]phenanthren-3-one

> <PUBCHEM_IUPAC_INCHI>
InChI=1S/C20H30O2/c1-12-10-14-15-4-5-18(22)20(15,3)9-7-16(14)19(2)8-6-13(21)11-17(12)19/h11-12,14-16,18,22H,4-10H2,1-3H3/t12-,14-,15-,16-,18-,19+,20-/m0/s1

> <PUBCHEM_IUPAC_INCHIKEY>
QRHBXQAFGLVWFW-JQMFHEMUSA-N

> <PUBCHEM_XLOGP3>
3.6

> <PUBCHEM_EXACT_MASS>
302.22458

> <PUBCHEM_MOLECULAR_FORMULA>
C20H30O2

> <PUBCHEM_MOLECULAR_WEIGHT>
302.451

> <PUBCHEM_OPENEYE_CAN_SMILES>
CC1CC2C3CCC(C3(CCC2C4(C1=CC(=O)CC4)C)C)O

> <PUBCHEM_OPENEYE_ISO_SMILES>
C[C@H]1C[C@H]2[C@@H]3CC[C@@H]([C@]3(CC[C@@H]2[C@@]4(C1=CC(=O)CC4)C)C)O

> <PUBCHEM_CACTVS_TPSA>
37.3

> <PUBCHEM_MONOISOTOPIC_WEIGHT>
302.22458

> <PUBCHEM_TOTAL_CHARGE>
0

> <PUBCHEM_HEAVY_ATOM_COUNT>
22

> <PUBCHEM_ATOM_DEF_STEREO_COUNT>
7

> <PUBCHEM_ATOM_UDEF_STEREO_COUNT>
0

> <PUBCHEM_BOND_DEF_STEREO_COUNT>
0

> <PUBCHEM_BOND_UDEF_STEREO_COUNT>
0

> <PUBCHEM_ISOTOPIC_ATOM_COUNT>
0

> <PUBCHEM_COMPONENT_COUNT>
1

> <PUBCHEM_CACTVS_TAUTO_COUNT>
5

> <PUBCHEM_COORDINATE_TYPE>
1
5
255

> <PUBCHEM_BONDANNOTATIONS>
10  1  5
14  21  6
3  23  6
4  24  5
5  16  5
6  25  6
7  18  5

$$$$

