   Chemical and Physical Properties References

   [1]USDA ARS - USDA chemical properties
   from [2]ChemIDplus

   Color/Form
        Snow-white crystals from benzene
   from [3]HSDB

   Odor
        Odorless
   from [4]HSDB

   Melting Point
        485 deg C (decomposes)
   from [5]HSDB

   Corrosivity
        Practically non-corrosive to metals
   from [6]HSDB

   Octanol/Water Partition Coefficient
        log Kow = 6.89
   from [7]HSDB

   Solubilities

     * 15.3% in dioxane at room temp; 14.3% in xylene at room temp; 12.2%
       in benzene at room temp; 7.2% in carbon tetrachloride at room temp;
       5.6% in methyl ethyl ketone at room temp
     * In water, 0.085 mg/L at 25 deg C

   from [8]HSDB

   Spectral Properties

     * MASS: 6205 (National Bureau of Standards EPA-NIH Mass Spectra Data
       Base, NSRDS-NBS-63)
     * Intense mass spectral peaks: 272 m/z (100%), 274 m/z (75%), 270 m/z
       (54%), 237 m/z (46%)

   from [9]HSDB

   Vapor Pressure
        8X10-7 mm Hg at 25 deg C
   from [10]HSDB

   Other Chemical/Physical Properties

     * Vapor specific gravity: 18.8 (calculated)
     * Highly lipophilic
     * Henry's Law constant = 8.1X10-4 atm-cu m/mol at 25 deg C

   from [11]HSDB

   Computed Properties
   Molecular Weight                  545.543 [g/mol]
   Molecular Formula                 C[10]Cl[12]
   XLogP3                            5.3
   H-Bond Donor                      0
   H-Bond Acceptor                   0
   Rotatable Bond Count              0
   Exact Mass                        545.617382
   MonoIsotopic Mass                 539.626232
   Topological Polar Surface Area    0
   Heavy Atom Count                  22
   Formal Charge                     0
   Complexity                        567
   Isotope Atom Count                0
   Defined Atom Stereocenter Count   0
   Undefined Atom Stereocenter Count 0
   Defined Bond Stereocenter Count   0
   Undefined Bond Stereocenter Count 0
   Covalently-Bonded Unit Count      1
   Feature 3D Ring Count             1
   Effective Rotor Count             0.4
   Conformer Sampling RMSD           0.6
   CID Conformer Count               [12]1

References

   1. http://www.ars.usda.gov/SP2UserFiles/ad_hoc/12755100DatabaseFiles/PesticidePropertiesDatabase/IndividualPesticideFiles/MIREX.TXT
   2. http://chem.sis.nlm.nih.gov/chemidplus/
   3. http://toxnet.nlm.nih.gov/cgi-bin/sis/search/r?dbs+hsdb:@term+@rn+@rel+2385-85-5
   4. http://toxnet.nlm.nih.gov/cgi-bin/sis/search/r?dbs+hsdb:@term+@rn+@rel+2385-85-5
   5. http://toxnet.nlm.nih.gov/cgi-bin/sis/search/r?dbs+hsdb:@term+@rn+@rel+2385-85-5
   6. http://toxnet.nlm.nih.gov/cgi-bin/sis/search/r?dbs+hsdb:@term+@rn+@rel+2385-85-5
   7. http://toxnet.nlm.nih.gov/cgi-bin/sis/search/r?dbs+hsdb:@term+@rn+@rel+2385-85-5
   8. http://toxnet.nlm.nih.gov/cgi-bin/sis/search/r?dbs+hsdb:@term+@rn+@rel+2385-85-5
   9. http://toxnet.nlm.nih.gov/cgi-bin/sis/search/r?dbs+hsdb:@term+@rn+@rel+2385-85-5
  10. http://toxnet.nlm.nih.gov/cgi-bin/sis/search/r?dbs+hsdb:@term+@rn+@rel+2385-85-5
  11. http://toxnet.nlm.nih.gov/cgi-bin/sis/search/r?dbs+hsdb:@term+@rn+@rel+2385-85-5
  12. http://pubchem.ncbi.nlm.nih.gov/vw3d/vw3d.cgi?cid=16945
