   Color/Form
        Colorless crystals
   from [1]HSDB

   Boiling Point
        220 deg C @ 0.2 mm Hg
   from [2]HSDB

   Melting Point
        91.7-92.1 deg C
   from [3]HSDB

   Density/Specific Gravity
        1.35 @ 20 deg C
   from [4]HSDB

   Octanol/Water Partition Coefficient
        log Kow= 4.28
   from [5]HSDB

   Solubilities

     * In benzene 290, xylene 120, acetone 111, ethanol 9, hexane 2.6 (all
       in g/l, at 20 deg C)
     * In water, 0.3 mg/l @ 20 deg C [Shiu WY et al; Rev Environ Contam
       Toxicol 116: 15-187(1990)] [6]PubMed Abstract

   from [7]HSDB

   Vapor Pressure
        6.49X10-9 mm Hg @ 20 deg C
   from [8]HSDB

   Computed Properties
   Molecular Weight                  372.80228 [g/mol]
   Molecular Formula                 C[19]H[17]ClN[2]O[4]
   XLogP3                            4.3
   H-Bond Donor                      0
   H-Bond Acceptor                   6
   Rotatable Bond Count              7
   Exact Mass                        372.087685
   MonoIsotopic Mass                 372.087685
   Topological Polar Surface Area    70.5
   Heavy Atom Count                  26
   Formal Charge                     0
   Complexity                        459
   Isotope Atom Count                0
   Defined Atom Stereocenter Count   0
   Undefined Atom Stereocenter Count 1
   Defined Bond Stereocenter Count   0
   Undefined Bond Stereocenter Count 0
   Covalently-Bonded Unit Count      1
   Feature 3D Acceptor Count         5
   Feature 3D Ring Count             3
   Effective Rotor Count             7
   Conformer Sampling RMSD           0.8
   CID Conformer Count               [9]271

References

   1. http://toxnet.nlm.nih.gov/cgi-bin/sis/search/r?dbs+hsdb:@term+@rn+@rel+76578-14-8
   2. http://toxnet.nlm.nih.gov/cgi-bin/sis/search/r?dbs+hsdb:@term+@rn+@rel+76578-14-8
   3. http://toxnet.nlm.nih.gov/cgi-bin/sis/search/r?dbs+hsdb:@term+@rn+@rel+76578-14-8
   4. http://toxnet.nlm.nih.gov/cgi-bin/sis/search/r?dbs+hsdb:@term+@rn+@rel+76578-14-8
   5. http://toxnet.nlm.nih.gov/cgi-bin/sis/search/r?dbs+hsdb:@term+@rn+@rel+76578-14-8
   6. http://www.ncbi.nlm.nih.gov/entrez/query.fcgi?cmd=Retrieve&db=pubmed&dopt=Abstract&list_uids=2205893
   7. http://toxnet.nlm.nih.gov/cgi-bin/sis/search/r?dbs+hsdb:@term+@rn+@rel+76578-14-8
   8. http://toxnet.nlm.nih.gov/cgi-bin/sis/search/r?dbs+hsdb:@term+@rn+@rel+76578-14-8
   9. http://pubchem.ncbi.nlm.nih.gov/vw3d/vw3d.cgi?cid=53518
