441707
  -OEChem-07051212552D

 91 98  0     1  0  0  0  0  0999 V2000
    3.3162    0.9683    0.0000 O   0  0  0  0  0  0  0  0  0  0  0  0
    2.8750    1.8064    0.0000 O   0  0  0  0  0  0  0  0  0  0  0  0
    4.3925    0.6375    0.0000 O   0  0  0  0  0  0  0  0  0  0  0  0
    6.2152    4.3994    0.0000 O   0  0  0  0  0  0  0  0  0  0  0  0
    2.4983    3.9735    0.0000 O   0  0  0  0  0  0  0  0  0  0  0  0
    2.0975    4.8573    0.0000 O   0  0  0  0  0  0  0  0  0  0  0  0
    7.0812    0.1642    0.0000 O   0  0  0  0  0  0  0  0  0  0  0  0
    6.2152   -1.3358    0.0000 O   0  0  0  0  0  0  0  0  0  0  0  0
    9.1638   -4.1394    0.0000 O   0  0  0  0  0  0  0  0  0  0  0  0
    5.8559   -2.9354    0.0000 O   0  0  0  0  0  0  0  0  0  0  0  0
    7.4105    2.5703    0.0000 N   0  0  0  0  0  0  0  0  0  0  0  0
    7.6052   -3.2755    0.0000 N   0  0  0  0  0  0  0  0  0  0  0  0
    5.4638    2.9656    0.0000 C   0  0  2  0  0  0  0  0  0  0  0  0
    4.7855    3.5065    0.0000 C   0  0  1  0  0  0  0  0  0  0  0  0
    5.4638    2.0980    0.0000 C   0  0  2  0  0  0  0  0  0  0  0  0
    3.9397    1.7501    0.0000 C   0  0  2  0  0  0  0  0  0  0  0  0
    3.9397    3.3134    0.0000 C   0  0  1  0  0  0  0  0  0  0  0  0
    6.4658    2.8595    0.0000 C   0  0  3  0  0  0  0  0  0  0  0  0
    3.5633    2.5318    0.0000 C   0  0  1  0  0  0  0  0  0  0  0  0
    4.7855    1.5571    0.0000 C   0  0  1  0  0  0  0  0  0  0  0  0
    6.2152    1.6642    0.0000 C   0  0  1  0  0  0  0  0  0  0  0  0
    4.8633    4.3706    0.0000 C   0  0  0  0  0  0  0  0  0  0  0  0
    4.0656    4.7116    0.0000 C   0  0  1  0  0  0  0  0  0  0  0  0
    6.2152    3.3994    0.0000 C   0  0  2  0  0  0  0  0  0  0  0  0
    3.4947    4.0582    0.0000 C   0  0  2  0  0  0  0  0  0  0  0  0
    2.9184    2.8017    0.0000 C   0  0  0  0  0  0  0  0  0  0  0  0
    2.9184    4.2862    0.0000 C   0  0  2  0  0  0  0  0  0  0  0  0
    6.9665    2.0980    0.0000 C   0  0  0  0  0  0  0  0  0  0  0  0
    6.9665    2.9656    0.0000 C   0  0  0  0  0  0  0  0  0  0  0  0
    7.4105    1.8184    0.0000 C   0  0  0  0  0  0  0  0  0  0  0  0
    6.2152    0.6642    0.0000 C   0  0  0  0  0  0  0  0  0  0  0  0
    4.9923   -0.1626    0.0000 C   0  0  0  0  0  0  0  0  0  0  0  0
    7.0812    4.8994    0.0000 C   0  0  0  0  0  0  0  0  0  0  0  0
    2.0734    3.0683    0.0000 C   0  0  0  0  0  0  0  0  0  0  0  0
    2.1817    5.8538    0.0000 C   0  0  0  0  0  0  0  0  0  0  0  0
    7.0812   -0.8358    0.0000 C   0  0  0  0  0  0  0  0  0  0  0  0
    7.9472   -1.3358    0.0000 C   0  0  0  0  0  0  0  0  0  0  0  0
    7.9472   -2.3358    0.0000 C   0  0  0  0  0  0  0  0  0  0  0  0
    8.8132   -0.8358    0.0000 C   0  0  0  0  0  0  0  0  0  0  0  0
    8.8132   -2.8358    0.0000 C   0  0  0  0  0  0  0  0  0  0  0  0
    9.6793   -1.3358    0.0000 C   0  0  0  0  0  0  0  0  0  0  0  0
    9.6793   -2.3358    0.0000 C   0  0  0  0  0  0  0  0  0  0  0  0
    8.1644   -4.1045    0.0000 C   0  0  0  0  0  0  0  0  0  0  0  0
    6.6439   -3.5511    0.0000 C   0  0  0  0  0  0  0  0  0  0  0  0
    7.5487   -4.8925    0.0000 C   0  0  2  0  0  0  0  0  0  0  0  0
    6.6090   -4.5505    0.0000 C   0  0  0  0  0  0  0  0  0  0  0  0
    7.8244   -5.8538    0.0000 C   0  0  0  0  0  0  0  0  0  0  0  0
    5.5671    3.8406    0.0000 H   0  0  0  0  0  0  0  0  0  0  0  0
    5.5274    1.2504    0.0000 H   0  0  0  0  0  0  0  0  0  0  0  0
    3.0906    3.2753    0.0000 H   0  0  0  0  0  0  0  0  0  0  0  0
    6.5897    3.4670    0.0000 H   0  0  0  0  0  0  0  0  0  0  0  0
    4.9859    0.9704    0.0000 H   0  0  0  0  0  0  0  0  0  0  0  0
    5.0460    4.9630    0.0000 H   0  0  0  0  0  0  0  0  0  0  0  0
    5.4716    4.2508    0.0000 H   0  0  0  0  0  0  0  0  0  0  0  0
    4.0863    5.5613    0.0000 H   0  0  0  0  0  0  0  0  0  0  0  0
    5.6782    3.7094    0.0000 H   0  0  0  0  0  0  0  0  0  0  0  0
    3.2146    4.6113    0.0000 H   0  0  0  0  0  0  0  0  0  0  0  0
    2.7564    2.2032    0.0000 H   0  0  0  0  0  0  0  0  0  0  0  0
    2.3038    2.8834    0.0000 H   0  0  0  0  0  0  0  0  0  0  0  0
    2.9965    4.9013    0.0000 H   0  0  0  0  0  0  0  0  0  0  0  0
    7.5771    2.2057    0.0000 H   0  0  0  0  0  0  0  0  0  0  0  0
    7.1786    1.5154    0.0000 H   0  0  0  0  0  0  0  0  0  0  0  0
    7.1786    3.5482    0.0000 H   0  0  0  0  0  0  0  0  0  0  0  0
    7.5771    2.8579    0.0000 H   0  0  0  0  0  0  0  0  0  0  0  0
    7.8761    1.4090    0.0000 H   0  0  0  0  0  0  0  0  0  0  0  0
    3.5427    0.3912    0.0000 H   0  0  0  0  0  0  0  0  0  0  0  0
    6.0031    0.0816    0.0000 H   0  0  0  0  0  0  0  0  0  0  0  0
    5.6046    0.7719    0.0000 H   0  0  0  0  0  0  0  0  0  0  0  0
    2.2721    1.9511    0.0000 H   0  0  0  0  0  0  0  0  0  0  0  0
    5.4884    0.2093    0.0000 H   0  0  0  0  0  0  0  0  0  0  0  0
    5.3642   -0.6587    0.0000 H   0  0  0  0  0  0  0  0  0  0  0  0
    4.4962   -0.5345    0.0000 H   0  0  0  0  0  0  0  0  0  0  0  0
    6.7712    5.4363    0.0000 H   0  0  0  0  0  0  0  0  0  0  0  0
    7.6181    5.2094    0.0000 H   0  0  0  0  0  0  0  0  0  0  0  0
    7.3912    4.3624    0.0000 H   0  0  0  0  0  0  0  0  0  0  0  0
    2.6347    2.8049    0.0000 H   0  0  0  0  0  0  0  0  0  0  0  0
    1.8100    2.5070    0.0000 H   0  0  0  0  0  0  0  0  0  0  0  0
    1.5122    3.3317    0.0000 H   0  0  0  0  0  0  0  0  0  0  0  0
    1.5639    5.9060    0.0000 H   0  0  0  0  0  0  0  0  0  0  0  0
    2.2339    6.4716    0.0000 H   0  0  0  0  0  0  0  0  0  0  0  0
    2.7995    5.8016    0.0000 H   0  0  0  0  0  0  0  0  0  0  0  0
    8.8132   -0.2158    0.0000 H   0  0  0  0  0  0  0  0  0  0  0  0
    8.8132   -3.4558    0.0000 H   0  0  0  0  0  0  0  0  0  0  0  0
   10.2162   -1.0258    0.0000 H   0  0  0  0  0  0  0  0  0  0  0  0
   10.2162   -2.6458    0.0000 H   0  0  0  0  0  0  0  0  0  0  0  0
    7.0953   -5.3154    0.0000 H   0  0  0  0  0  0  0  0  0  0  0  0
    6.4591   -5.1521    0.0000 H   0  0  0  0  0  0  0  0  0  0  0  0
    5.9951   -4.4642    0.0000 H   0  0  0  0  0  0  0  0  0  0  0  0
    8.4203   -5.6829    0.0000 H   0  0  0  0  0  0  0  0  0  0  0  0
    7.9953   -6.4498    0.0000 H   0  0  0  0  0  0  0  0  0  0  0  0
    7.2284   -6.0247    0.0000 H   0  0  0  0  0  0  0  0  0  0  0  0
 16  1  1  1  0  0  0
  1 66  1  0  0  0  0
 19  2  1  6  0  0  0
  2 69  1  0  0  0  0
 20  3  1  6  0  0  0
  3 32  1  0  0  0  0
 24  4  1  1  0  0  0
  4 33  1  0  0  0  0
 25  5  1  1  0  0  0
  5 34  1  0  0  0  0
 27  6  1  6  0  0  0
  6 35  1  0  0  0  0
  7 31  1  0  0  0  0
  7 36  1  0  0  0  0
  8 36  2  0  0  0  0
  9 43  2  0  0  0  0
 10 44  2  0  0  0  0
 11 18  1  0  0  0  0
 11 30  2  0  0  0  0
 12 38  1  0  0  0  0
 12 43  1  0  0  0  0
 12 44  1  0  0  0  0
 13 14  1  0  0  0  0
 13 15  1  0  0  0  0
 13 18  1  0  0  0  0
 13 24  1  6  0  0  0
 14 17  1  0  0  0  0
 14 22  1  0  0  0  0
 14 48  1  6  0  0  0
 15 20  1  0  0  0  0
 15 21  1  0  0  0  0
 15 49  1  6  0  0  0
 16 18  1  0  0  0  0
 16 19  1  0  0  0  0
 16 20  1  0  0  0  0
 17 19  1  0  0  0  0
 17 25  1  0  0  0  0
 17 50  1  6  0  0  0
 18 51  1  0  0  0  0
 19 26  1  0  0  0  0
 20 52  1  0  0  0  0
 21 28  1  0  0  0  0
 21 30  1  0  0  0  0
 21 31  1  6  0  0  0
 22 23  1  0  0  0  0
 22 53  1  0  0  0  0
 22 54  1  0  0  0  0
 23 25  1  0  0  0  0
 23 27  1  0  0  0  0
 23 55  1  6  0  0  0
 24 29  1  0  0  0  0
 24 56  1  0  0  0  0
 25 57  1  0  0  0  0
 26 27  1  0  0  0  0
 26 58  1  0  0  0  0
 26 59  1  0  0  0  0
 27 60  1  0  0  0  0
 28 29  1  0  0  0  0
 28 61  1  0  0  0  0
 28 62  1  0  0  0  0
 29 63  1  0  0  0  0
 29 64  1  0  0  0  0
 30 65  1  0  0  0  0
 31 67  1  0  0  0  0
 31 68  1  0  0  0  0
 32 70  1  0  0  0  0
 32 71  1  0  0  0  0
 32 72  1  0  0  0  0
 33 73  1  0  0  0  0
 33 74  1  0  0  0  0
 33 75  1  0  0  0  0
 34 76  1  0  0  0  0
 34 77  1  0  0  0  0
 34 78  1  0  0  0  0
 35 79  1  0  0  0  0
 35 80  1  0  0  0  0
 35 81  1  0  0  0  0
 36 37  1  0  0  0  0
 37 38  1  0  0  0  0
 37 39  2  0  0  0  0
 38 40  2  0  0  0  0
 39 41  1  0  0  0  0
 39 82  1  0  0  0  0
 40 42  1  0  0  0  0
 40 83  1  0  0  0  0
 41 42  2  0  0  0  0
 41 84  1  0  0  0  0
 42 85  1  0  0  0  0
 43 45  1  0  0  0  0
 44 46  1  0  0  0  0
 45 46  1  0  0  0  0
 45 47  1  1  0  0  0
 45 86  1  0  0  0  0
 46 87  1  0  0  0  0
 46 88  1  0  0  0  0
 47 89  1  0  0  0  0
 47 90  1  0  0  0  0
 47 91  1  0  0  0  0
M  END
> <PUBCHEM_COMPOUND_CID>
441707

> <PUBCHEM_COMPOUND_CANONICALIZED>
1

> <PUBCHEM_CACTVS_COMPLEXITY>
1380

> <PUBCHEM_CACTVS_HBOND_ACCEPTOR>
11

> <PUBCHEM_CACTVS_HBOND_DONOR>
2

> <PUBCHEM_CACTVS_ROTATABLE_BOND>
9

> <PUBCHEM_CACTVS_SUBSKEYS>
AAADcfB/PAAAAAAAAAAAAAAAAAAAAeMEAAAwYMGCBggQAGABAAAAHgAACAAAD3zhmAYyyIMABgCoAjXzXACCAAAlAgAIiAEgbMgLJjrAtZmGcYhnxCHL6cf9+P2PgAAAAAACAADQAAaUADSgAaEADSgAAA==

> <PUBCHEM_IUPAC_INCHI>
InChI=1S/C35H44N2O10/c1-17-12-24(38)37(29(17)39)21-9-7-6-8-18(21)30(40)47-16-32-11-10-23(44-3)34-20-13-19-22(43-2)14-33(41,25(20)26(19)45-4)35(42,31(34)36-15-32)28(46-5)27(32)34/h6-9,15,17,19-20,22-23,25-28,31,41-42H,10-14,16H2,1-5H3/t17-,19+,20+,22-,23-,25+,26-,27+,28-,31?,32-,33+,34-,35+/m0/s1

> <PUBCHEM_IUPAC_INCHIKEY>
ZXTOPWJFZABXSX-BMRUPKHXSA-N

> <PUBCHEM_XLOGP3_AA>
-0.3

> <PUBCHEM_EXACT_MASS>
652.299596

> <PUBCHEM_MOLECULAR_FORMULA>
C35H44N2O10

> <PUBCHEM_MOLECULAR_WEIGHT>
652.73126

> <PUBCHEM_OPENEYE_CAN_SMILES>
CC1CC(=O)N(C1=O)C2=CC=CC=C2C(=O)OCC34CCC(C56C3C(C(C5N=C4)(C7(CC(C8CC6C7C8OC)OC)O)O)OC)OC

> <PUBCHEM_OPENEYE_ISO_SMILES>
C[C@H]1CC(=O)N(C1=O)C2=CC=CC=C2C(=O)OC[C@@]34CC[C@@H]([C@@]56[C@@H]3[C@@H]([C@@](C5N=C4)([C@]7(C[C@@H]([C@H]8C[C@@H]6[C@@H]7[C@H]8OC)OC)O)O)OC)OC

> <PUBCHEM_CACTVS_TPSA>
153

> <PUBCHEM_MONOISOTOPIC_WEIGHT>
652.299596

> <PUBCHEM_TOTAL_CHARGE>
0

> <PUBCHEM_HEAVY_ATOM_COUNT>
47

> <PUBCHEM_ATOM_DEF_STEREO_COUNT>
13

> <PUBCHEM_ATOM_UDEF_STEREO_COUNT>
1

> <PUBCHEM_BOND_DEF_STEREO_COUNT>
0

> <PUBCHEM_BOND_UDEF_STEREO_COUNT>
0

> <PUBCHEM_ISOTOPIC_ATOM_COUNT>
0

> <PUBCHEM_COMPONENT_COUNT>
1

> <PUBCHEM_CACTVS_TAUTO_COUNT>
4

> <PUBCHEM_COORDINATE_TYPE>
1
5
255

> <PUBCHEM_BONDANNOTATIONS>
16  1  5
18  11  3
13  24  6
14  48  6
15  49  6
17  50  6
19  2  6
21  31  6
23  55  6
20  3  6
37  38  8
37  39  8
38  40  8
39  41  8
24  4  5
40  42  8
41  42  8
45  47  5
25  5  5
27  6  6

$$$$

