   Color/Form

     * ... yellowish /colored/ pigment. [Cocchietto M, et al;
       Naturwissenschaften 89: 137-46 (2002)] [1]PubMed Abstract
     * Yellow orthorombic prisms from acetone
     * Crystalline yellow solid

   from [2]HSDB

   Melting Point
        204 deg C
   from [3]HSDB

   Octanol/Water Partition Coefficient
        log Kow = 2.88
   from [4]HSDB

   Solubilities

     * Solubility at 25 deg C (g/100 ml): acetone, 0.77; ethyl acetate,
       0.88; fural, 7.32; furfuryl alcohol, 1.21
     * Solubility at 25 deg C (g/100 ml): water, <0.01

   from [5]HSDB

   Other Chemical/Physical Properties

     * Specific optical rotation at 16 deg C for the D (sodium) line:
       +509.4 deg (c=0.697 in chloroform) /Monobasic acid/
     * Pale yellow silky needles; slightly soluble in water /Sodium salt
       dihydrate/
     * Occurs in nature in both the d- and l-forms as well as a racemic
       mixture.

   from [6]HSDB

   Computed Properties
   Molecular Weight                  344.31544 [g/mol]
   Molecular Formula                 C[18]H[16]O[7]
   XLogP3-AA                         1.4
   H-Bond Donor                      2
   H-Bond Acceptor                   7
   Rotatable Bond Count              2
   Tautomer Count                    147
   Exact Mass                        344.089603
   MonoIsotopic Mass                 344.089603
   Topological Polar Surface Area    118
   Heavy Atom Count                  25
   Formal Charge                     0
   Complexity                        708
   Isotope Atom Count                0
   Defined Atom Stereocenter Count   0
   Undefined Atom Stereocenter Count 2
   Defined Bond Stereocenter Count   0
   Undefined Bond Stereocenter Count 0
   Covalently-Bonded Unit Count      1
   Feature 3D Acceptor Count         5
   Feature 3D Donor Count            2
   Feature 3D Anion Count            1
   Feature 3D Ring Count             3
   Effective Rotor Count             2.4
   Conformer Sampling RMSD           0.6
   CID Conformer Count               [7]18

References

   1. http://www.ncbi.nlm.nih.gov/entrez/query.fcgi?cmd=Retrieve&db=pubmed&dopt=Abstract&list_uids=12061397
   2. http://toxnet.nlm.nih.gov/cgi-bin/sis/search/r?dbs+hsdb:@term+@rn+@rel+125-46-2
   3. http://toxnet.nlm.nih.gov/cgi-bin/sis/search/r?dbs+hsdb:@term+@rn+@rel+125-46-2
   4. http://toxnet.nlm.nih.gov/cgi-bin/sis/search/r?dbs+hsdb:@term+@rn+@rel+125-46-2
   5. http://toxnet.nlm.nih.gov/cgi-bin/sis/search/r?dbs+hsdb:@term+@rn+@rel+125-46-2
   6. http://toxnet.nlm.nih.gov/cgi-bin/sis/search/r?dbs+hsdb:@term+@rn+@rel+125-46-2
   7. http://pubchem.ncbi.nlm.nih.gov/vw3d/vw3d.cgi?cid=5646
