   Chemical and Physical Properties References

   [1]USDA ARS - USDA chemical properties
   from [2]ChemIDplus

   Color/Form

     * Mobile ... liquid
     * Clear, colorless or faintly yellow liquid

   from [3]HSDB

   Odor

     * Purest distillates have sweet, pleasing, and ethereal odor ...
       usual commercial and reagent grades are foul smelling
     * When pure, carbon disulfide has sweetish aromatic odor similar to
       that of chloroform.

   from [4]HSDB

   Boiling Point
        46 deg C at 760 mm Hg
   from [5]HSDB

   Melting Point
        -112.1 deg C
   from [6]HSDB

   Corrosivity

     * Carbon disulfide is normally stored and handled in mild steel
       equipment. Copper and copper alloys are attacked by carbon
       disulfide and must be avoided.
     * Liquid carbon disulfide will attack some forms of plastics, rubber,
       and coatings.

   from [7]HSDB

   Critical Temperature and Pressure
        Critical temperature: 280 deg C; critical pressure: 72.9 atm
   from [8]HSDB

   Density/Specific Gravity
        1.2632 at 20 deg C/4 deg C
   from [9]HSDB

   Heat of Combustion
        -5814 BTU/LB= -3230 CAL/G= -135.2X10+5 JOULES/KG
   from [10]HSDB

   Heat of Vaporization
        84.1 cal/g at BP
   from [11]HSDB

   Octanol/Water Partition Coefficient
        log Kow = 1.94
   from [12]HSDB

   Solubilities

     * Miscible with anhydrous methanol, ethanol, ether, benzene,
       chloroform, carbon tetrachloride, and oils
     * In water, 2160 mg/L at 25 deg C

   from [13]HSDB

   Spectral Properties

     * Index of refraction = 1.6319 at 20 deg C
     * IR: 10977 (Sadtler Research Laboratories IR Grating Collection)
     * UV: 596 (Sadtler Research Laboratories Spectral Collection)
     * MASS: 89 (Atlas of Mass Spectral Data, John Wiley & Sons, New York)

   from [14]HSDB

   Surface Tension
        32.25 dynes/cm at 20 deg C
   from [15]HSDB

   Vapor Density
        2.67 (Air= 1)
   from [16]HSDB

   Vapor Pressure
        359 mm Hg at 25 deg C
   from [17]HSDB

   Relative Evaporation Rate
        22.6 (butyl acetate= 1)
   from [18]HSDB

   Viscosity
        Coefficient of viscosity = 0.363 at 20 deg C
   from [19]HSDB

   Other Chemical/Physical Properties

     * Dipole moment 0.0; heat of fusion 1.049 kcal/mole; heat capacity at
       24.3 deg C: 18.17 cal/mole/deg; ebullioscopic constant 2.35 deg;
       dielectric constant 2.641 at low frequencies; burns with blue flame
       to carbon dioxide and sulfur dioxide; azeotrope with water bp 42.6
       deg C, contains 97.2% carbon disulfide
     * CAN CHELATE TRACE METALS, ESPECIALLY COPPER & ZINC
     * LIQ-WATER INTERFACIAL TENSION: 48.4 DYNES/CM= 0.484 N/M @ 20 DEG C;
       LATENT HEAT OF VAPORIZATION: 153 BTU/LB= 85 CAL/G= 3.559X10+5
       JOULES/KG
     * Liquid heat capacity= 0.239 Btu/lb ft @ 70 deg F
     * Saturated vapor pressure= 5.990 lb/sq in @ 70 deg C
     * Saturated vapor density= 0.08021 lb/cu ft @ 70 deg C
     * Ideal heat capacity= 0.115 Btu/lb @ 60 deg F
     * Latent heat of fusion: 57.7 kJ/kg
     * Solubility of sulfur: 17-47 wt% at 0-40 deg C
     * Crude technical product has disagreeable odor of decaying radishes.
     * The Henry's Law constant= 1.44X10-2 atm-cu m/mole at 24 deg C
     * Solubility of water in carbon disulfide: 86 ppm at 10 deg C; 142
       ppm at 25 deg C
     * Hydroxyl radical reaction rate constant = 2.90X10-12 cu
       cm/molec-sec at 25 deg C

   from [20]HSDB

   Computed Properties
   Molecular Weight                  76.1407 [g/mol]
   Molecular Formula                 CS[2]
   XLogP3-AA                         2.1
   H-Bond Donor                      0
   H-Bond Acceptor                   2
   Rotatable Bond Count              0
   Exact Mass                        75.944142
   MonoIsotopic Mass                 75.944142
   Topological Polar Surface Area    64.2
   Heavy Atom Count                  3
   Formal Charge                     0
   Complexity                        18.3
   Isotope Atom Count                0
   Defined Atom Stereocenter Count   0
   Undefined Atom Stereocenter Count 0
   Defined Bond Stereocenter Count   0
   Undefined Bond Stereocenter Count 0
   Covalently-Bonded Unit Count      1
   Feature 3D Acceptor Count         2
   Effective Rotor Count             0
   Conformer Sampling RMSD           0.4
   CID Conformer Count               [21]1

References

   1. http://www.ars.usda.gov/SP2UserFiles/ad_hoc/12755100DatabaseFiles/PesticidePropertiesDatabase/IndividualPesticideFiles/CARBON_DISULFIDE.TXT
   2. http://chem.sis.nlm.nih.gov/chemidplus/
   3. http://toxnet.nlm.nih.gov/cgi-bin/sis/search/r?dbs+hsdb:@term+@rn+@rel+75-15-0
   4. http://toxnet.nlm.nih.gov/cgi-bin/sis/search/r?dbs+hsdb:@term+@rn+@rel+75-15-0
   5. http://toxnet.nlm.nih.gov/cgi-bin/sis/search/r?dbs+hsdb:@term+@rn+@rel+75-15-0
   6. http://toxnet.nlm.nih.gov/cgi-bin/sis/search/r?dbs+hsdb:@term+@rn+@rel+75-15-0
   7. http://toxnet.nlm.nih.gov/cgi-bin/sis/search/r?dbs+hsdb:@term+@rn+@rel+75-15-0
   8. http://toxnet.nlm.nih.gov/cgi-bin/sis/search/r?dbs+hsdb:@term+@rn+@rel+75-15-0
   9. http://toxnet.nlm.nih.gov/cgi-bin/sis/search/r?dbs+hsdb:@term+@rn+@rel+75-15-0
  10. http://toxnet.nlm.nih.gov/cgi-bin/sis/search/r?dbs+hsdb:@term+@rn+@rel+75-15-0
  11. http://toxnet.nlm.nih.gov/cgi-bin/sis/search/r?dbs+hsdb:@term+@rn+@rel+75-15-0
  12. http://toxnet.nlm.nih.gov/cgi-bin/sis/search/r?dbs+hsdb:@term+@rn+@rel+75-15-0
  13. http://toxnet.nlm.nih.gov/cgi-bin/sis/search/r?dbs+hsdb:@term+@rn+@rel+75-15-0
  14. http://toxnet.nlm.nih.gov/cgi-bin/sis/search/r?dbs+hsdb:@term+@rn+@rel+75-15-0
  15. http://toxnet.nlm.nih.gov/cgi-bin/sis/search/r?dbs+hsdb:@term+@rn+@rel+75-15-0
  16. http://toxnet.nlm.nih.gov/cgi-bin/sis/search/r?dbs+hsdb:@term+@rn+@rel+75-15-0
  17. http://toxnet.nlm.nih.gov/cgi-bin/sis/search/r?dbs+hsdb:@term+@rn+@rel+75-15-0
  18. http://toxnet.nlm.nih.gov/cgi-bin/sis/search/r?dbs+hsdb:@term+@rn+@rel+75-15-0
  19. http://toxnet.nlm.nih.gov/cgi-bin/sis/search/r?dbs+hsdb:@term+@rn+@rel+75-15-0
  20. http://toxnet.nlm.nih.gov/cgi-bin/sis/search/r?dbs+hsdb:@term+@rn+@rel+75-15-0
  21. http://pubchem.ncbi.nlm.nih.gov/vw3d/vw3d.cgi?cid=6348
