49787010
  -OEChem-07051212522D

117120  0     1  0  0  0  0  0999 V2000
    7.1522   -0.1183    0.0000 O   0  0  0  0  0  0  0  0  0  0  0  0
    8.0462   -1.6807    0.0000 O   0  0  0  0  0  0  0  0  0  0  0  0
    6.2801   -0.6565    0.0000 O   0  0  0  0  0  0  0  0  0  0  0  0
    6.3301    1.3886    0.0000 O   0  0  0  0  0  0  0  0  0  0  0  0
    6.9373    3.8545    0.0000 O   0  0  0  0  0  0  0  0  0  0  0  0
    5.7690   -3.5206    0.0000 O   0  0  0  0  0  0  0  0  0  0  0  0
    5.4641    2.8886    0.0000 O   0  0  0  0  0  0  0  0  0  0  0  0
   10.6603   -0.1114    0.0000 O   0  0  0  0  0  0  0  0  0  0  0  0
    4.5403   -2.6498    0.0000 O   0  0  0  0  0  0  0  0  0  0  0  0
    4.5981    0.3886    0.0000 O   0  0  0  0  0  0  0  0  0  0  0  0
    9.7942    1.3886    0.0000 O   0  0  0  0  0  0  0  0  0  0  0  0
   12.4922    1.6474    0.0000 O   0  0  0  0  0  0  0  0  0  0  0  0
   10.3182    0.9489    0.0000 O   0  0  0  0  0  0  0  0  0  0  0  0
    9.7942    4.3886    0.0000 O   0  0  0  0  0  0  0  0  0  0  0  0
    2.8660    1.3886    0.0000 N   0  0  0  0  0  0  0  0  0  0  0  0
    8.0622    1.3886    0.0000 C   0  0  1  0  0  0  0  0  0  0  0  0
    8.0622    0.3886    0.0000 C   0  0  1  0  0  0  0  0  0  0  0  0
    7.1962    1.8886    0.0000 C   0  0  2  0  0  0  0  0  0  0  0  0
    7.1442   -1.1599    0.0000 C   0  0  3  0  0  0  0  0  0  0  0  0
    8.9282   -0.1114    0.0000 C   0  0  1  0  0  0  0  0  0  0  0  0
    7.1962    2.8886    0.0000 C   0  0  1  0  0  0  0  0  0  0  0  0
    6.2724   -2.6565    0.0000 C   0  0  2  0  0  0  0  0  0  0  0  0
    7.1403   -2.1599    0.0000 C   0  0  0  0  0  0  0  0  0  0  0  0
    5.4082   -2.1532    0.0000 C   0  0  2  0  0  0  0  0  0  0  0  0
    8.9443   -1.1529    0.0000 C   0  0  0  0  0  0  0  0  0  0  0  0
    8.0622    3.3886    0.0000 C   0  0  0  0  0  0  0  0  0  0  0  0
    5.4121   -1.1532    0.0000 C   0  0  2  0  0  0  0  0  0  0  0  0
    8.9282    1.8886    0.0000 C   0  0  0  0  0  0  0  0  0  0  0  0
    8.9282    2.8886    0.0000 C   0  0  2  0  0  0  0  0  0  0  0  0
    5.4641    1.8886    0.0000 C   0  0  2  0  0  0  0  0  0  0  0  0
    6.2302    3.1474    0.0000 C   0  0  0  0  0  0  0  0  0  0  0  0
    9.7942    0.3886    0.0000 C   0  0  0  0  0  0  0  0  0  0  0  0
    4.5981    1.3886    0.0000 C   0  0  1  0  0  0  0  0  0  0  0  0
    6.7690   -3.5245    0.0000 C   0  0  0  0  0  0  0  0  0  0  0  0
    3.7320    1.8886    0.0000 C   0  0  2  0  0  0  0  0  0  0  0  0
   11.5263    1.3886    0.0000 C   0  0  1  0  0  0  0  0  0  0  0  0
   10.6603    2.8886    0.0000 C   0  0  2  0  0  0  0  0  0  0  0  0
   10.6603    1.8886    0.0000 C   0  0  1  0  0  0  0  0  0  0  0  0
   11.5263    0.3886    0.0000 C   0  0  1  0  0  0  0  0  0  0  0  0
    9.7942    3.3886    0.0000 C   0  0  0  0  0  0  0  0  0  0  0  0
    3.7320    2.8886    0.0000 C   0  0  0  0  0  0  0  0  0  0  0  0
    4.5480   -0.6499    0.0000 C   0  0  0  0  0  0  0  0  0  0  0  0
    4.5981    3.3886    0.0000 C   0  0  1  0  0  0  0  0  0  0  0  0
    8.0622    2.3885    0.0000 C   0  0  0  0  0  0  0  0  0  0  0  0
   12.3923   -0.1114    0.0000 C   0  0  0  0  0  0  0  0  0  0  0  0
   11.9489    2.2949    0.0000 C   0  0  0  0  0  0  0  0  0  0  0  0
   11.5263    3.3886    0.0000 C   0  0  0  0  0  0  0  0  0  0  0  0
    6.2657   -4.3886    0.0000 C   0  0  0  0  0  0  0  0  0  0  0  0
    4.5981    4.3886    0.0000 C   0  0  0  0  0  0  0  0  0  0  0  0
    2.0000    1.8886    0.0000 C   0  0  0  0  0  0  0  0  0  0  0  0
    2.8660    0.3886    0.0000 C   0  0  0  0  0  0  0  0  0  0  0  0
   12.3923   -1.1114    0.0000 C   0  0  0  0  0  0  0  0  0  0  0  0
    8.0622    2.0086    0.0000 H   0  0  0  0  0  0  0  0  0  0  0  0
    7.3294    0.8192    0.0000 H   0  0  0  0  0  0  0  0  0  0  0  0
    6.6592    2.1986    0.0000 H   0  0  0  0  0  0  0  0  0  0  0  0
    9.6676   -0.5307    0.0000 H   0  0  0  0  0  0  0  0  0  0  0  0
    7.3501   -2.7433    0.0000 H   0  0  0  0  0  0  0  0  0  0  0  0
    7.7513   -2.0546    0.0000 H   0  0  0  0  0  0  0  0  0  0  0  0
    5.4059   -2.7732    0.0000 H   0  0  0  0  0  0  0  0  0  0  0  0
    9.1623   -1.7333    0.0000 H   0  0  0  0  0  0  0  0  0  0  0  0
    9.5534   -1.0374    0.0000 H   0  0  0  0  0  0  0  0  0  0  0  0
    8.4607    3.8635    0.0000 H   0  0  0  0  0  0  0  0  0  0  0  0
    7.6636    3.8635    0.0000 H   0  0  0  0  0  0  0  0  0  0  0  0
    5.4145   -0.5332    0.0000 H   0  0  0  0  0  0  0  0  0  0  0  0
    9.2382    1.3516    0.0000 H   0  0  0  0  0  0  0  0  0  0  0  0
    9.4651    2.1986    0.0000 H   0  0  0  0  0  0  0  0  0  0  0  0
    8.6182    2.4255    0.0000 H   0  0  0  0  0  0  0  0  0  0  0  0
    9.2382    2.3516    0.0000 H   0  0  0  0  0  0  0  0  0  0  0  0
    5.4641    1.2686    0.0000 H   0  0  0  0  0  0  0  0  0  0  0  0
    6.3907    3.7463    0.0000 H   0  0  0  0  0  0  0  0  0  0  0  0
    5.6314    3.3078    0.0000 H   0  0  0  0  0  0  0  0  0  0  0  0
    6.0698    2.5485    0.0000 H   0  0  0  0  0  0  0  0  0  0  0  0
    5.1350    1.0786    0.0000 H   0  0  0  0  0  0  0  0  0  0  0  0
    6.2309   -3.8324    0.0000 H   0  0  0  0  0  0  0  0  0  0  0  0
    7.0769   -4.0626    0.0000 H   0  0  0  0  0  0  0  0  0  0  0  0
    7.3071   -3.2165    0.0000 H   0  0  0  0  0  0  0  0  0  0  0  0
    3.7320    1.2686    0.0000 H   0  0  0  0  0  0  0  0  0  0  0  0
   11.1972    2.5786    0.0000 H   0  0  0  0  0  0  0  0  0  0  0  0
   10.0497    1.9962    0.0000 H   0  0  0  0  0  0  0  0  0  0  0  0
   11.5263   -0.2314    0.0000 H   0  0  0  0  0  0  0  0  0  0  0  0
    3.5200    3.4712    0.0000 H   0  0  0  0  0  0  0  0  0  0  0  0
    3.1215    2.7809    0.0000 H   0  0  0  0  0  0  0  0  0  0  0  0
    4.8601   -0.1141    0.0000 H   0  0  0  0  0  0  0  0  0  0  0  0
    4.0123   -0.3378    0.0000 H   0  0  0  0  0  0  0  0  0  0  0  0
    4.2360   -1.1856    0.0000 H   0  0  0  0  0  0  0  0  0  0  0  0
    7.3757    4.2929    0.0000 H   0  0  0  0  0  0  0  0  0  0  0  0
    5.1350    3.6986    0.0000 H   0  0  0  0  0  0  0  0  0  0  0  0
    7.7522    2.9254    0.0000 H   0  0  0  0  0  0  0  0  0  0  0  0
    7.5253    2.0784    0.0000 H   0  0  0  0  0  0  0  0  0  0  0  0
    8.3723    1.8516    0.0000 H   0  0  0  0  0  0  0  0  0  0  0  0
    4.0046   -2.3378    0.0000 H   0  0  0  0  0  0  0  0  0  0  0  0
   13.0029   -0.2191    0.0000 H   0  0  0  0  0  0  0  0  0  0  0  0
   12.6044    0.4712    0.0000 H   0  0  0  0  0  0  0  0  0  0  0  0
   12.5108    2.0328    0.0000 H   0  0  0  0  0  0  0  0  0  0  0  0
   12.2109    2.8568    0.0000 H   0  0  0  0  0  0  0  0  0  0  0  0
   11.3870    2.5569    0.0000 H   0  0  0  0  0  0  0  0  0  0  0  0
   11.8363    2.8516    0.0000 H   0  0  0  0  0  0  0  0  0  0  0  0
   12.0632    3.6986    0.0000 H   0  0  0  0  0  0  0  0  0  0  0  0
   11.2163    3.9255    0.0000 H   0  0  0  0  0  0  0  0  0  0  0  0
    5.7275   -4.6965    0.0000 H   0  0  0  0  0  0  0  0  0  0  0  0
    6.5736   -4.9267    0.0000 H   0  0  0  0  0  0  0  0  0  0  0  0
    6.8038   -4.0806    0.0000 H   0  0  0  0  0  0  0  0  0  0  0  0
    5.2181    4.3886    0.0000 H   0  0  0  0  0  0  0  0  0  0  0  0
    4.5981    5.0086    0.0000 H   0  0  0  0  0  0  0  0  0  0  0  0
    3.9781    4.3886    0.0000 H   0  0  0  0  0  0  0  0  0  0  0  0
    4.0611    0.0786    0.0000 H   0  0  0  0  0  0  0  0  0  0  0  0
   12.9306    1.2090    0.0000 H   0  0  0  0  0  0  0  0  0  0  0  0
   10.9009    0.7369    0.0000 H   0  0  0  0  0  0  0  0  0  0  0  0
    2.3100    2.4255    0.0000 H   0  0  0  0  0  0  0  0  0  0  0  0
    1.4631    2.1986    0.0000 H   0  0  0  0  0  0  0  0  0  0  0  0
    1.6900    1.3516    0.0000 H   0  0  0  0  0  0  0  0  0  0  0  0
    2.2460    0.3886    0.0000 H   0  0  0  0  0  0  0  0  0  0  0  0
    2.8660   -0.2314    0.0000 H   0  0  0  0  0  0  0  0  0  0  0  0
    3.4860    0.3886    0.0000 H   0  0  0  0  0  0  0  0  0  0  0  0
   11.7723   -1.1114    0.0000 H   0  0  0  0  0  0  0  0  0  0  0  0
   12.3923   -1.7314    0.0000 H   0  0  0  0  0  0  0  0  0  0  0  0
   13.0123   -1.1114    0.0000 H   0  0  0  0  0  0  0  0  0  0  0  0
  1 17  1  0  0  0  0
  1 19  1  0  0  0  0
  2 19  1  0  0  0  0
  2 25  1  0  0  0  0
  3 19  1  0  0  0  0
  3 27  1  0  0  0  0
 18  4  1  1  0  0  0
 30  4  1  1  0  0  0
 21  5  1  6  0  0  0
  5 86  1  0  0  0  0
 22  6  1  1  0  0  0
  6 48  1  0  0  0  0
  7 30  1  0  0  0  0
  7 43  1  0  0  0  0
  8 32  1  0  0  0  0
  8 39  1  0  0  0  0
 24  9  1  1  0  0  0
  9 91  1  0  0  0  0
 33 10  1  6  0  0  0
 10106  1  0  0  0  0
 11 32  2  0  0  0  0
 36 12  1  6  0  0  0
 12107  1  0  0  0  0
 38 13  1  6  0  0  0
 13108  1  0  0  0  0
 14 40  2  0  0  0  0
 35 15  1  1  0  0  0
 15 50  1  0  0  0  0
 15 51  1  0  0  0  0
 16 17  1  0  0  0  0
 16 18  1  0  0  0  0
 16 28  1  1  0  0  0
 16 53  1  0  0  0  0
 17 20  1  0  0  0  0
 17 54  1  6  0  0  0
 18 21  1  0  0  0  0
 18 55  1  0  0  0  0
 19 23  1  0  0  0  0
 20 25  1  0  0  0  0
 20 32  1  0  0  0  0
 20 56  1  1  0  0  0
 21 26  1  0  0  0  0
 21 31  1  0  0  0  0
 22 23  1  0  0  0  0
 22 24  1  0  0  0  0
 22 34  1  0  0  0  0
 23 57  1  0  0  0  0
 23 58  1  0  0  0  0
 24 27  1  0  0  0  0
 24 59  1  0  0  0  0
 25 60  1  0  0  0  0
 25 61  1  0  0  0  0
 26 29  1  0  0  0  0
 26 62  1  0  0  0  0
 26 63  1  0  0  0  0
 27 42  1  6  0  0  0
 27 64  1  0  0  0  0
 28 65  1  0  0  0  0
 28 66  1  0  0  0  0
 28 67  1  0  0  0  0
 29 40  1  0  0  0  0
 29 44  1  6  0  0  0
 29 68  1  0  0  0  0
 30 33  1  0  0  0  0
 30 69  1  0  0  0  0
 31 70  1  0  0  0  0
 31 71  1  0  0  0  0
 31 72  1  0  0  0  0
 33 35  1  0  0  0  0
 33 73  1  0  0  0  0
 34 74  1  0  0  0  0
 34 75  1  0  0  0  0
 34 76  1  0  0  0  0
 35 41  1  0  0  0  0
 35 77  1  0  0  0  0
 36 38  1  0  0  0  0
 36 39  1  0  0  0  0
 36 46  1  0  0  0  0
 37 38  1  0  0  0  0
 37 40  1  0  0  0  0
 37 47  1  6  0  0  0
 37 78  1  0  0  0  0
 38 79  1  0  0  0  0
 39 45  1  1  0  0  0
 39 80  1  0  0  0  0
 41 43  1  0  0  0  0
 41 81  1  0  0  0  0
 41 82  1  0  0  0  0
 42 83  1  0  0  0  0
 42 84  1  0  0  0  0
 42 85  1  0  0  0  0
 43 49  1  1  0  0  0
 43 87  1  0  0  0  0
 44 88  1  0  0  0  0
 44 89  1  0  0  0  0
 44 90  1  0  0  0  0
 45 52  1  0  0  0  0
 45 92  1  0  0  0  0
 45 93  1  0  0  0  0
 46 94  1  0  0  0  0
 46 95  1  0  0  0  0
 46 96  1  0  0  0  0
 47 97  1  0  0  0  0
 47 98  1  0  0  0  0
 47 99  1  0  0  0  0
 48100  1  0  0  0  0
 48101  1  0  0  0  0
 48102  1  0  0  0  0
 49103  1  0  0  0  0
 49104  1  0  0  0  0
 49105  1  0  0  0  0
 50109  1  0  0  0  0
 50110  1  0  0  0  0
 50111  1  0  0  0  0
 51112  1  0  0  0  0
 51113  1  0  0  0  0
 51114  1  0  0  0  0
 52115  1  0  0  0  0
 52116  1  0  0  0  0
 52117  1  0  0  0  0
M  END
> <PUBCHEM_COMPOUND_CID>
49787010

> <PUBCHEM_COMPOUND_CANONICALIZED>
1

> <PUBCHEM_CACTVS_COMPLEXITY>
1260

> <PUBCHEM_CACTVS_HBOND_ACCEPTOR>
15

> <PUBCHEM_CACTVS_HBOND_DONOR>
5

> <PUBCHEM_CACTVS_ROTATABLE_BOND>
5

> <PUBCHEM_CACTVS_SUBSKEYS>
AAADcfB+PAAAAAAAAAAAAAAAAAAAAAAAAAAkSJAAAAAAAAAAAAAAHgAACAAADXzxgAcCCAMABgAIAICQCAAAAAAAAAAAAAEIAAATEBYAgAAmQAAHIAAXAAHK7PzOAAAAAAAAAAAAAAAAAAAAAAAAAAAAAA==

> <PUBCHEM_IUPAC_OPENEYE_NAME>
(1R,4R,4'R,5S,5'S,6R,6'S,7R,9R,11R,12R,13S,14S)-12-[(2S,3R,4S,6R)-4-(dimethylamino)-3-hydroxy-6-methyl-tetrahydropyran-2-yl]oxy-4-ethyl-5,5',6,11-tetrahydroxy-4'-methoxy-4',5,6',7,9,11,13-heptamethyl-spiro[3,15,17-trioxabicyclo[12.4.0]octadecane-16,2'-tetrahydropyran]-2,8-dione

> <PUBCHEM_IUPAC_CAS_NAME>
(1R,4R,4'R,5S,5'S,6R,6'S,7R,9R,11R,12R,13S,14S)-12-[[(2S,3R,4S,6R)-4-(dimethylamino)-3-hydroxy-6-methyl-2-oxanyl]oxy]-4-ethyl-5,5',6,11-tetrahydroxy-4'-methoxy-4',5,6',7,9,11,13-heptamethylspiro[3,15,17-trioxabicyclo[12.4.0]octadecane-16,2'-oxane]-2,8-dione

> <PUBCHEM_IUPAC_NAME>
(1R,4R,4'R,5S,5'S,6R,6'S,7R,9R,11R,12R,13S,14S)-12-[(2S,3R,4S,6R)-4-(dimethylamino)-3-hydroxy-6-methyloxan-2-yl]oxy-4-ethyl-5,5',6,11-tetrahydroxy-4'-methoxy-4',5,6',7,9,11,13-heptamethylspiro[3,15,17-trioxabicyclo[12.4.0]octadecane-16,2'-oxane]-2,8-dione

> <PUBCHEM_IUPAC_SYSTEMATIC_NAME>
(1R,4R,4'R,5S,5'S,6R,6'S,7R,9R,11R,12R,13S,14S)-12-[(2S,3R,4S,6R)-4-(dimethylamino)-6-methyl-3-oxidanyl-oxan-2-yl]oxy-4-ethyl-4'-methoxy-4',5,6',7,9,11,13-heptamethyl-5,5',6,11-tetrakis(oxidanyl)spiro[3,15,17-trioxabicyclo[12.4.0]octadecane-16,2'-oxane]-2,8-dione

> <PUBCHEM_IUPAC_TRADITIONAL_NAME>
(1R,4R,4'R,5S,5'S,6R,6'S,7R,9R,11R,12R,13S,14S)-12-[(2S,3R,4S,6R)-4-(dimethylamino)-3-hydroxy-6-methyl-tetrahydropyran-2-yl]oxy-4-ethyl-5,5',6,11-tetrahydroxy-4'-methoxy-4',5,6',7,9,11,13-heptamethyl-spiro[3,15,17-trioxabicyclo[12.4.0]octadecane-16,2'-tetrahydropyran]-2,8-quinone

> <PUBCHEM_IUPAC_INCHI>
InChI=1S/C37H65NO14/c1-13-25-36(9,45)29(41)20(4)26(39)18(2)15-34(7,44)31(50-33-27(40)24(38(10)11)14-19(3)48-33)21(5)28-23(32(43)49-25)16-47-37(52-28)17-35(8,46-12)30(42)22(6)51-37/h18-25,27-31,33,40-42,44-45H,13-17H2,1-12H3/t18-,19-,20+,21+,22+,23-,24+,25-,27-,28+,29-,30+,31-,33+,34-,35-,36-,37?/m1/s1

> <PUBCHEM_IUPAC_INCHIKEY>
PRUSTPADOGZAML-MQLBXLHUSA-N

> <PUBCHEM_XLOGP3>
1.7

> <PUBCHEM_EXACT_MASS>
747.440506

> <PUBCHEM_MOLECULAR_FORMULA>
C37H65NO14

> <PUBCHEM_MOLECULAR_WEIGHT>
747.9103

> <PUBCHEM_OPENEYE_CAN_SMILES>
CCC1C(C(C(C(=O)C(CC(C(C(C2C(COC3(O2)CC(C(C(O3)C)O)(C)OC)C(=O)O1)C)OC4C(C(CC(O4)C)N(C)C)O)(C)O)C)C)O)(C)O

> <PUBCHEM_OPENEYE_ISO_SMILES>
CC[C@@H]1[C@@]([C@@H]([C@H](C(=O)[C@@H](C[C@@]([C@@H]([C@H]([C@H]2[C@@H](COC3(O2)C[C@@]([C@H]([C@@H](O3)C)O)(C)OC)C(=O)O1)C)O[C@H]4[C@@H]([C@H](C[C@H](O4)C)N(C)C)O)(C)O)C)C)O)(C)O

> <PUBCHEM_CACTVS_TPSA>
203

> <PUBCHEM_MONOISOTOPIC_WEIGHT>
747.440506

> <PUBCHEM_TOTAL_CHARGE>
0

> <PUBCHEM_HEAVY_ATOM_COUNT>
52

> <PUBCHEM_ATOM_DEF_STEREO_COUNT>
17

> <PUBCHEM_ATOM_UDEF_STEREO_COUNT>
1

> <PUBCHEM_BOND_DEF_STEREO_COUNT>
0

> <PUBCHEM_BOND_UDEF_STEREO_COUNT>
0

> <PUBCHEM_ISOTOPIC_ATOM_COUNT>
0

> <PUBCHEM_COMPONENT_COUNT>
1

> <PUBCHEM_CACTVS_TAUTO_COUNT>
6

> <PUBCHEM_COORDINATE_TYPE>
1
5
255

> <PUBCHEM_BONDANNOTATIONS>
33  10  6
36  12  6
38  13  6
35  15  5
16  28  5
17  54  6
19  23  3
20  56  5
27  42  6
29  44  6
37  47  6
39  45  5
18  4  5
30  4  5
43  49  5
21  5  6
22  6  5
24  9  5

$$$$

