854320
  -OEChem-06241222472D

 41 44  0     0  0  0  0  0  0999 V2000
    5.5321   -1.5346    0.0000 S   0  0  0  0  0  0  0  0  0  0  0  0
    5.0321   -2.4007    0.0000 O   0  0  0  0  0  0  0  0  0  0  0  0
    6.0321   -0.6686    0.0000 O   0  0  0  0  0  0  0  0  0  0  0  0
    4.6660   -1.0346    0.0000 N   0  0  0  0  0  0  0  0  0  0  0  0
    5.5321    0.4654    0.0000 N   0  0  0  0  0  0  0  0  0  0  0  0
    3.8000    1.4654    0.0000 C   0  0  0  0  0  0  0  0  0  0  0  0
    3.8000    0.4654    0.0000 C   0  0  0  0  0  0  0  0  0  0  0  0
    4.6660    1.9654    0.0000 C   0  0  0  0  0  0  0  0  0  0  0  0
    4.6660   -0.0346    0.0000 C   0  0  0  0  0  0  0  0  0  0  0  0
    5.5321    1.4654    0.0000 C   0  0  0  0  0  0  0  0  0  0  0  0
    6.3981   -2.0346    0.0000 C   0  0  0  0  0  0  0  0  0  0  0  0
    2.9061    2.0000    0.0000 C   0  0  0  0  0  0  0  0  0  0  0  0
    2.9061   -0.0693    0.0000 C   0  0  0  0  0  0  0  0  0  0  0  0
    4.6500    3.0069    0.0000 C   0  0  0  0  0  0  0  0  0  0  0  0
    6.4421    1.9722    0.0000 C   0  0  0  0  0  0  0  0  0  0  0  0
    2.0000    1.4862    0.0000 C   0  0  0  0  0  0  0  0  0  0  0  0
    2.0000    0.4446    0.0000 C   0  0  0  0  0  0  0  0  0  0  0  0
    6.3981   -3.0346    0.0000 C   0  0  0  0  0  0  0  0  0  0  0  0
    7.2641   -1.5346    0.0000 C   0  0  0  0  0  0  0  0  0  0  0  0
    5.5480    3.5346    0.0000 C   0  0  0  0  0  0  0  0  0  0  0  0
    6.4501    3.0138    0.0000 C   0  0  0  0  0  0  0  0  0  0  0  0
    8.1301   -3.0346    0.0000 C   0  0  0  0  0  0  0  0  0  0  0  0
    7.2641   -3.5346    0.0000 C   0  0  0  0  0  0  0  0  0  0  0  0
    8.1301   -2.0346    0.0000 C   0  0  0  0  0  0  0  0  0  0  0  0
    8.9962   -3.5346    0.0000 C   0  0  0  0  0  0  0  0  0  0  0  0
    4.1291   -1.3446    0.0000 H   0  0  0  0  0  0  0  0  0  0  0  0
    2.9132    2.6200    0.0000 H   0  0  0  0  0  0  0  0  0  0  0  0
    2.9132   -0.6892    0.0000 H   0  0  0  0  0  0  0  0  0  0  0  0
    4.1095    3.3106    0.0000 H   0  0  0  0  0  0  0  0  0  0  0  0
    6.9754    1.6560    0.0000 H   0  0  0  0  0  0  0  0  0  0  0  0
    1.4643    1.7982    0.0000 H   0  0  0  0  0  0  0  0  0  0  0  0
    1.4643    0.1325    0.0000 H   0  0  0  0  0  0  0  0  0  0  0  0
    5.8612   -3.3446    0.0000 H   0  0  0  0  0  0  0  0  0  0  0  0
    7.2641   -0.9146    0.0000 H   0  0  0  0  0  0  0  0  0  0  0  0
    5.5456    4.1546    0.0000 H   0  0  0  0  0  0  0  0  0  0  0  0
    6.9882    3.3217    0.0000 H   0  0  0  0  0  0  0  0  0  0  0  0
    7.2641   -4.1546    0.0000 H   0  0  0  0  0  0  0  0  0  0  0  0
    8.6671   -1.7246    0.0000 H   0  0  0  0  0  0  0  0  0  0  0  0
    8.6862   -4.0716    0.0000 H   0  0  0  0  0  0  0  0  0  0  0  0
    9.5331   -3.8446    0.0000 H   0  0  0  0  0  0  0  0  0  0  0  0
    9.3062   -2.9977    0.0000 H   0  0  0  0  0  0  0  0  0  0  0  0
  1  2  2  0  0  0  0
  1  3  2  0  0  0  0
  1  4  1  0  0  0  0
  1 11  1  0  0  0  0
  4  9  1  0  0  0  0
  4 26  1  0  0  0  0
  5  9  2  0  0  0  0
  5 10  1  0  0  0  0
  6  7  1  0  0  0  0
  6  8  1  0  0  0  0
  6 12  2  0  0  0  0
  7  9  1  0  0  0  0
  7 13  2  0  0  0  0
  8 10  1  0  0  0  0
  8 14  2  0  0  0  0
 10 15  2  0  0  0  0
 11 18  2  0  0  0  0
 11 19  1  0  0  0  0
 12 16  1  0  0  0  0
 12 27  1  0  0  0  0
 13 17  1  0  0  0  0
 13 28  1  0  0  0  0
 14 20  1  0  0  0  0
 14 29  1  0  0  0  0
 15 21  1  0  0  0  0
 15 30  1  0  0  0  0
 16 17  2  0  0  0  0
 16 31  1  0  0  0  0
 17 32  1  0  0  0  0
 18 23  1  0  0  0  0
 18 33  1  0  0  0  0
 19 24  2  0  0  0  0
 19 34  1  0  0  0  0
 20 21  2  0  0  0  0
 20 35  1  0  0  0  0
 21 36  1  0  0  0  0
 22 23  2  0  0  0  0
 22 24  1  0  0  0  0
 22 25  1  0  0  0  0
 23 37  1  0  0  0  0
 24 38  1  0  0  0  0
 25 39  1  0  0  0  0
 25 40  1  0  0  0  0
 25 41  1  0  0  0  0
M  END
> <PUBCHEM_COMPOUND_CID>
854320

> <PUBCHEM_COMPOUND_CANONICALIZED>
1

> <PUBCHEM_CACTVS_COMPLEXITY>
551

> <PUBCHEM_CACTVS_HBOND_ACCEPTOR>
4

> <PUBCHEM_CACTVS_HBOND_DONOR>
1

> <PUBCHEM_CACTVS_ROTATABLE_BOND>
3

> <PUBCHEM_CACTVS_SUBSKEYS>
AAADceB7MABAAAAAAAAAAAAAAAAAAAAAAAA8YMEAAAAAAACx/AAAHAQQQAAADAiBXgAz8fJIEAKgAyZiZHDCgDkhAiAImDgwZJiIIOLAkZGEIAhggALIyCcQgMAOkAAAAAASAAAgAAAAACQAAAAAAAAAAA==

> <PUBCHEM_IUPAC_OPENEYE_NAME>
4-methyl-N-phenanthridin-6-yl-benzenesulfonamide

> <PUBCHEM_IUPAC_CAS_NAME>
4-methyl-N-(6-phenanthridinyl)benzenesulfonamide

> <PUBCHEM_IUPAC_NAME>
4-methyl-N-phenanthridin-6-ylbenzenesulfonamide

> <PUBCHEM_IUPAC_SYSTEMATIC_NAME>
4-methyl-N-phenanthridin-6-yl-benzenesulfonamide

> <PUBCHEM_IUPAC_TRADITIONAL_NAME>
4-methyl-N-phenanthridin-6-yl-benzenesulfonamide

> <PUBCHEM_IUPAC_INCHI>
InChI=1S/C20H16N2O2S/c1-14-10-12-15(13-11-14)25(23,24)22-20-18-8-3-2-6-16(18)17-7-4-5-9-19(17)21-20/h2-13H,1H3,(H,21,22)

> <PUBCHEM_IUPAC_INCHIKEY>
OLSQPYVAVBICDD-UHFFFAOYSA-N

> <PUBCHEM_XLOGP3_AA>
4.7

> <PUBCHEM_EXACT_MASS>
348.093249

> <PUBCHEM_MOLECULAR_FORMULA>
C20H16N2O2S

> <PUBCHEM_MOLECULAR_WEIGHT>
348.41824

> <PUBCHEM_OPENEYE_CAN_SMILES>
CC1=CC=C(C=C1)S(=O)(=O)NC2=NC3=CC=CC=C3C4=CC=CC=C42

> <PUBCHEM_OPENEYE_ISO_SMILES>
CC1=CC=C(C=C1)S(=O)(=O)NC2=NC3=CC=CC=C3C4=CC=CC=C42

> <PUBCHEM_CACTVS_TPSA>
67.4

> <PUBCHEM_MONOISOTOPIC_WEIGHT>
348.093249

> <PUBCHEM_TOTAL_CHARGE>
0

> <PUBCHEM_HEAVY_ATOM_COUNT>
25

> <PUBCHEM_ATOM_DEF_STEREO_COUNT>
0

> <PUBCHEM_ATOM_UDEF_STEREO_COUNT>
0

> <PUBCHEM_BOND_DEF_STEREO_COUNT>
0

> <PUBCHEM_BOND_UDEF_STEREO_COUNT>
0

> <PUBCHEM_ISOTOPIC_ATOM_COUNT>
0

> <PUBCHEM_COMPONENT_COUNT>
1

> <PUBCHEM_CACTVS_TAUTO_COUNT>
2

> <PUBCHEM_COORDINATE_TYPE>
1
5
255

> <PUBCHEM_BONDANNOTATIONS>
10  15  8
11  18  8
11  19  8
12  16  8
13  17  8
14  20  8
15  21  8
16  17  8
18  23  8
19  24  8
20  21  8
22  23  8
22  24  8
5  10  8
5  9  8
6  12  8
6  7  8
6  8  8
7  13  8
7  9  8
8  10  8
8  14  8

$$$$

