47205040
  -OEChem-06241222572D

 38 39  0     0  0  0  0  0  0999 V2000
    6.1808   -1.2953    0.0000 O   0  0  0  0  0  0  0  0  0  0  0  0
    4.4487   -1.2953    0.0000 N   0  0  0  0  0  0  0  0  0  0  0  0
    3.4782   -3.7898    0.0000 N   0  0  0  0  0  0  0  0  0  0  0  0
    2.5000   -3.9977    0.0000 N   0  0  0  0  0  0  0  0  0  0  0  0
    5.3147    3.2047    0.0000 C   0  0  0  0  0  0  0  0  0  0  0  0
    5.3147    2.2047    0.0000 C   0  0  0  0  0  0  0  0  0  0  0  0
    5.3147    4.2047    0.0000 C   0  0  0  0  0  0  0  0  0  0  0  0
    6.3147    3.2047    0.0000 C   0  0  0  0  0  0  0  0  0  0  0  0
    4.3147    3.2047    0.0000 C   0  0  0  0  0  0  0  0  0  0  0  0
    4.4487    1.7047    0.0000 C   0  0  0  0  0  0  0  0  0  0  0  0
    6.1808    1.7047    0.0000 C   0  0  0  0  0  0  0  0  0  0  0  0
    5.3147    0.2047    0.0000 C   0  0  0  0  0  0  0  0  0  0  0  0
    4.4487    0.7047    0.0000 C   0  0  0  0  0  0  0  0  0  0  0  0
    6.1808    0.7047    0.0000 C   0  0  0  0  0  0  0  0  0  0  0  0
    5.3147   -0.7953    0.0000 C   0  0  0  0  0  0  0  0  0  0  0  0
    4.4487   -2.2953    0.0000 C   0  0  0  0  0  0  0  0  0  0  0  0
    3.5827   -2.7953    0.0000 C   0  0  0  0  0  0  0  0  0  0  0  0
    2.6691   -2.3886    0.0000 C   0  0  0  0  0  0  0  0  0  0  0  0
    2.0000   -3.1317    0.0000 C   0  0  0  0  0  0  0  0  0  0  0  0
    5.9347    4.2047    0.0000 H   0  0  0  0  0  0  0  0  0  0  0  0
    4.3147    3.8247    0.0000 H   0  0  0  0  0  0  0  0  0  0  0  0
    3.6947    3.2047    0.0000 H   0  0  0  0  0  0  0  0  0  0  0  0
    4.3147    2.5847    0.0000 H   0  0  0  0  0  0  0  0  0  0  0  0
    6.3147    2.5847    0.0000 H   0  0  0  0  0  0  0  0  0  0  0  0
    6.9347    3.2047    0.0000 H   0  0  0  0  0  0  0  0  0  0  0  0
    6.3147    3.8247    0.0000 H   0  0  0  0  0  0  0  0  0  0  0  0
    5.3147    4.8247    0.0000 H   0  0  0  0  0  0  0  0  0  0  0  0
    4.6947    4.2047    0.0000 H   0  0  0  0  0  0  0  0  0  0  0  0
    3.9118    2.0147    0.0000 H   0  0  0  0  0  0  0  0  0  0  0  0
    6.7177    2.0147    0.0000 H   0  0  0  0  0  0  0  0  0  0  0  0
    3.9118    0.3947    0.0000 H   0  0  0  0  0  0  0  0  0  0  0  0
    6.7177    0.3947    0.0000 H   0  0  0  0  0  0  0  0  0  0  0  0
    4.6608   -2.8779    0.0000 H   0  0  0  0  0  0  0  0  0  0  0  0
    5.0593   -2.1876    0.0000 H   0  0  0  0  0  0  0  0  0  0  0  0
    3.9118   -0.9853    0.0000 H   0  0  0  0  0  0  0  0  0  0  0  0
    2.5402   -1.7821    0.0000 H   0  0  0  0  0  0  0  0  0  0  0  0
    3.9389   -4.2047    0.0000 H   0  0  0  0  0  0  0  0  0  0  0  0
    1.3834   -3.0669    0.0000 H   0  0  0  0  0  0  0  0  0  0  0  0
  1 15  2  0  0  0  0
  2 15  1  0  0  0  0
  2 16  1  0  0  0  0
  2 35  1  0  0  0  0
  3  4  1  0  0  0  0
  3 17  1  0  0  0  0
  3 37  1  0  0  0  0
  4 19  2  0  0  0  0
  5  6  1  0  0  0  0
  5  7  1  0  0  0  0
  5  8  1  0  0  0  0
  5  9  1  0  0  0  0
  6 10  2  0  0  0  0
  6 11  1  0  0  0  0
  7 20  1  0  0  0  0
  7 27  1  0  0  0  0
  7 28  1  0  0  0  0
  8 24  1  0  0  0  0
  8 25  1  0  0  0  0
  8 26  1  0  0  0  0
  9 21  1  0  0  0  0
  9 22  1  0  0  0  0
  9 23  1  0  0  0  0
 10 13  1  0  0  0  0
 10 29  1  0  0  0  0
 11 14  2  0  0  0  0
 11 30  1  0  0  0  0
 12 13  2  0  0  0  0
 12 14  1  0  0  0  0
 12 15  1  0  0  0  0
 13 31  1  0  0  0  0
 14 32  1  0  0  0  0
 16 17  1  0  0  0  0
 16 33  1  0  0  0  0
 16 34  1  0  0  0  0
 17 18  2  0  0  0  0
 18 19  1  0  0  0  0
 18 36  1  0  0  0  0
 19 38  1  0  0  0  0
M  END
> <PUBCHEM_COMPOUND_CID>
47205040

> <PUBCHEM_COMPOUND_CANONICALIZED>
1

> <PUBCHEM_CACTVS_COMPLEXITY>
303

> <PUBCHEM_CACTVS_HBOND_ACCEPTOR>
2

> <PUBCHEM_CACTVS_HBOND_DONOR>
2

> <PUBCHEM_CACTVS_ROTATABLE_BOND>
4

> <PUBCHEM_CACTVS_SUBSKEYS>
AAADceBzIAAAAAAAAAAAAAAAAAAAAWAAAAAwAAAAAAAAAAABwAAAHgAYAAAADgjBngQ+gJLjAACqAzV3UACSBAAkggAYuaE4ZNgIYLKA1dGUpQhgngCIyYcYiMCPwAAAAAAAAACAAAAAAAAAAAAAAAAAAA==

> <PUBCHEM_IUPAC_OPENEYE_NAME>
4-tert-butyl-N-(1H-pyrazol-5-ylmethyl)benzamide

> <PUBCHEM_IUPAC_CAS_NAME>
4-tert-butyl-N-(1H-pyrazol-5-ylmethyl)benzamide

> <PUBCHEM_IUPAC_NAME>
4-tert-butyl-N-(1H-pyrazol-5-ylmethyl)benzamide

> <PUBCHEM_IUPAC_SYSTEMATIC_NAME>
4-tert-butyl-N-(1H-pyrazol-5-ylmethyl)benzamide

> <PUBCHEM_IUPAC_TRADITIONAL_NAME>
4-tert-butyl-N-(1H-pyrazol-5-ylmethyl)benzamide

> <PUBCHEM_IUPAC_INCHI>
InChI=1S/C15H19N3O/c1-15(2,3)12-6-4-11(5-7-12)14(19)16-10-13-8-9-17-18-13/h4-9H,10H2,1-3H3,(H,16,19)(H,17,18)

> <PUBCHEM_IUPAC_INCHIKEY>
PFPAIZXZVLYXEW-UHFFFAOYSA-N

> <PUBCHEM_XLOGP3_AA>
2.7

> <PUBCHEM_EXACT_MASS>
257.152812

> <PUBCHEM_MOLECULAR_FORMULA>
C15H19N3O

> <PUBCHEM_MOLECULAR_WEIGHT>
257.33086

> <PUBCHEM_OPENEYE_CAN_SMILES>
CC(C)(C)C1=CC=C(C=C1)C(=O)NCC2=CC=NN2

> <PUBCHEM_OPENEYE_ISO_SMILES>
CC(C)(C)C1=CC=C(C=C1)C(=O)NCC2=CC=NN2

> <PUBCHEM_CACTVS_TPSA>
57.8

> <PUBCHEM_MONOISOTOPIC_WEIGHT>
257.152812

> <PUBCHEM_TOTAL_CHARGE>
0

> <PUBCHEM_HEAVY_ATOM_COUNT>
19

> <PUBCHEM_ATOM_DEF_STEREO_COUNT>
0

> <PUBCHEM_ATOM_UDEF_STEREO_COUNT>
0

> <PUBCHEM_BOND_DEF_STEREO_COUNT>
0

> <PUBCHEM_BOND_UDEF_STEREO_COUNT>
0

> <PUBCHEM_ISOTOPIC_ATOM_COUNT>
0

> <PUBCHEM_COMPONENT_COUNT>
1

> <PUBCHEM_CACTVS_TAUTO_COUNT>
4

> <PUBCHEM_COORDINATE_TYPE>
1
5
255

> <PUBCHEM_BONDANNOTATIONS>
10  13  8
11  14  8
12  13  8
12  14  8
17  18  8
18  19  8
3  17  8
3  4  8
4  19  8
6  10  8
6  11  8

$$$$

