   Color/Form
        GREENISH-YELLOW PRISMS FROM ETHER
   from [1]HSDB

   Melting Point
        54-55 DEG C
   from [2]HSDB

   Solubilities
        SOLUBLE IN WATER, ALCOHOL, ACETONE, CHLOROFORM, SLIGHTLY SOL IN
   ETHER, BENZENE, PETROLEUM ETHER
   from [3]HSDB

   Spectral Properties
        SPECIFIC OPTICAL ROTATION: -35 DEG @ 18 DEG C/D (CHLOROFORM,
   3.4%); MAXIMUM ABSORPTION (METHANOL): 215 NM (E= 10,160)
   from [4]HSDB

   Other Chemical/Physical Properties
        DISTILLS UNCHANGED IN VACUO
   from [5]HSDB

   Computed Properties
   Molecular Weight                  221.29546 [g/mol]
   Molecular Formula                 C[13]H[19]NO[2]
   XLogP3-AA                         1.5
   H-Bond Donor                      0
   H-Bond Acceptor                   3
   Rotatable Bond Count              0
   Exact Mass                        221.141579
   MonoIsotopic Mass                 221.141579
   Topological Polar Surface Area    29.5
   Heavy Atom Count                  16
   Formal Charge                     0
   Complexity                        363
   Isotope Atom Count                0
   Defined Atom Stereocenter Count   3
   Undefined Atom Stereocenter Count 0
   Defined Bond Stereocenter Count   0
   Undefined Bond Stereocenter Count 0
   Covalently-Bonded Unit Count      1
   Feature 3D Acceptor Count         1
   Feature 3D Cation Count           1
   Feature 3D Ring Count             2
   Effective Rotor Count             1.4
   Conformer Sampling RMSD           0.6
   CID Conformer Count               [6]2

References

   1. http://toxnet.nlm.nih.gov/cgi-bin/sis/search/r?dbs+hsdb:@term+@rn+@rel+3329-91-7
   2. http://toxnet.nlm.nih.gov/cgi-bin/sis/search/r?dbs+hsdb:@term+@rn+@rel+3329-91-7
   3. http://toxnet.nlm.nih.gov/cgi-bin/sis/search/r?dbs+hsdb:@term+@rn+@rel+3329-91-7
   4. http://toxnet.nlm.nih.gov/cgi-bin/sis/search/r?dbs+hsdb:@term+@rn+@rel+3329-91-7
   5. http://toxnet.nlm.nih.gov/cgi-bin/sis/search/r?dbs+hsdb:@term+@rn+@rel+3329-91-7
   6. http://pubchem.ncbi.nlm.nih.gov/vw3d/vw3d.cgi?cid=442635
