442611
  -OEChem-07051212512D

 55 58  0     1  0  0  0  0  0999 V2000
    5.1350   -0.1721    0.0000 O   0  0  0  0  0  0  0  0  0  0  0  0
    6.8671   -2.1721    0.0000 O   0  0  0  0  0  0  0  0  0  0  0  0
    5.1350   -3.1721    0.0000 O   0  0  0  0  0  0  0  0  0  0  0  0
    3.4030   -2.1721    0.0000 O   0  0  0  0  0  0  0  0  0  0  0  0
    2.5369   -0.6721    0.0000 O   0  0  0  0  0  0  0  0  0  0  0  0
    7.7331   -1.6721    0.0000 O   0  0  0  0  0  0  0  0  0  0  0  0
    6.0010    1.3279    0.0000 O   0  0  0  0  0  0  0  0  0  0  0  0
    9.4931    1.3626    0.0000 O   0  0  0  0  0  0  0  0  0  0  0  0
    9.4815   -1.7067    0.0000 O   0  0  0  0  0  0  0  0  0  0  0  0
   13.8632    0.8621    0.0000 O   0  0  0  0  0  0  0  0  0  0  0  0
   13.8555    2.8621    0.0000 O   0  0  0  0  0  0  0  0  0  0  0  0
    6.0010   -1.6721    0.0000 C   0  0  2  0  0  0  0  0  0  0  0  0
    5.1350   -2.1721    0.0000 C   0  0  2  0  0  0  0  0  0  0  0  0
    6.0010   -0.6721    0.0000 C   0  0  2  0  0  0  0  0  0  0  0  0
    4.2690   -1.6721    0.0000 C   0  0  1  0  0  0  0  0  0  0  0  0
    4.2690   -0.6721    0.0000 C   0  0  1  0  0  0  0  0  0  0  0  0
    6.8671   -0.1721    0.0000 C   0  0  0  0  0  0  0  0  0  0  0  0
    3.4030   -0.1721    0.0000 C   0  0  0  0  0  0  0  0  0  0  0  0
    7.7331   -0.6721    0.0000 C   0  0  0  0  0  0  0  0  0  0  0  0
    6.8671    0.8279    0.0000 C   0  0  0  0  0  0  0  0  0  0  0  0
    8.5991   -0.1721    0.0000 C   0  0  0  0  0  0  0  0  0  0  0  0
    7.7331    1.3279    0.0000 C   0  0  0  0  0  0  0  0  0  0  0  0
    8.5991    0.8279    0.0000 C   0  0  0  0  0  0  0  0  0  0  0  0
    9.4931   -0.7067    0.0000 C   0  0  0  0  0  0  0  0  0  0  0  0
   10.3991    0.8487    0.0000 C   0  0  0  0  0  0  0  0  0  0  0  0
   10.3991   -0.1929    0.0000 C   0  0  0  0  0  0  0  0  0  0  0  0
   11.2632    1.3521    0.0000 C   0  0  0  0  0  0  0  0  0  0  0  0
   12.1312    0.8554    0.0000 C   0  0  0  0  0  0  0  0  0  0  0  0
   11.2594    2.3521    0.0000 C   0  0  0  0  0  0  0  0  0  0  0  0
   12.9953    1.3587    0.0000 C   0  0  0  0  0  0  0  0  0  0  0  0
   12.1235    2.8554    0.0000 C   0  0  0  0  0  0  0  0  0  0  0  0
   12.9914    2.3587    0.0000 C   0  0  0  0  0  0  0  0  0  0  0  0
   13.8671   -0.1379    0.0000 C   0  0  0  0  0  0  0  0  0  0  0  0
    6.5380   -1.3621    0.0000 H   0  0  0  0  0  0  0  0  0  0  0  0
    5.6720   -2.4821    0.0000 H   0  0  0  0  0  0  0  0  0  0  0  0
    6.7372   -1.0971    0.0000 H   0  0  0  0  0  0  0  0  0  0  0  0
    4.2690   -2.2921    0.0000 H   0  0  0  0  0  0  0  0  0  0  0  0
    4.2690   -0.0521    0.0000 H   0  0  0  0  0  0  0  0  0  0  0  0
    3.8015    0.3029    0.0000 H   0  0  0  0  0  0  0  0  0  0  0  0
    3.0044    0.3029    0.0000 H   0  0  0  0  0  0  0  0  0  0  0  0
    6.8671   -2.7921    0.0000 H   0  0  0  0  0  0  0  0  0  0  0  0
    4.5981   -3.4821    0.0000 H   0  0  0  0  0  0  0  0  0  0  0  0
    3.4030   -2.7921    0.0000 H   0  0  0  0  0  0  0  0  0  0  0  0
    7.7331    1.9479    0.0000 H   0  0  0  0  0  0  0  0  0  0  0  0
    2.0000   -0.3621    0.0000 H   0  0  0  0  0  0  0  0  0  0  0  0
    8.2700   -1.9821    0.0000 H   0  0  0  0  0  0  0  0  0  0  0  0
    6.0010    1.9479    0.0000 H   0  0  0  0  0  0  0  0  0  0  0  0
   10.9349   -0.5050    0.0000 H   0  0  0  0  0  0  0  0  0  0  0  0
   12.1336    0.2354    0.0000 H   0  0  0  0  0  0  0  0  0  0  0  0
   10.7212    2.6600    0.0000 H   0  0  0  0  0  0  0  0  0  0  0  0
   12.1211    3.4754    0.0000 H   0  0  0  0  0  0  0  0  0  0  0  0
   13.8531    3.4821    0.0000 H   0  0  0  0  0  0  0  0  0  0  0  0
   13.2471   -0.1403    0.0000 H   0  0  0  0  0  0  0  0  0  0  0  0
   13.8694   -0.7579    0.0000 H   0  0  0  0  0  0  0  0  0  0  0  0
   14.4870   -0.1355    0.0000 H   0  0  0  0  0  0  0  0  0  0  0  0
  1 14  1  0  0  0  0
  1 16  1  0  0  0  0
 12  2  1  6  0  0  0
  2 41  1  0  0  0  0
 13  3  1  1  0  0  0
  3 42  1  0  0  0  0
 15  4  1  6  0  0  0
  4 43  1  0  0  0  0
  5 18  1  0  0  0  0
  5 45  1  0  0  0  0
  6 19  1  0  0  0  0
  6 46  1  0  0  0  0
  7 20  1  0  0  0  0
  7 47  1  0  0  0  0
  8 23  1  0  0  0  0
  8 25  1  0  0  0  0
  9 24  2  0  0  0  0
 10 30  1  0  0  0  0
 10 33  1  0  0  0  0
 11 32  1  0  0  0  0
 11 52  1  0  0  0  0
 12 13  1  0  0  0  0
 12 14  1  0  0  0  0
 12 34  1  0  0  0  0
 13 15  1  0  0  0  0
 13 35  1  0  0  0  0
 14 17  1  0  0  0  0
 14 36  1  6  0  0  0
 15 16  1  0  0  0  0
 15 37  1  0  0  0  0
 16 18  1  1  0  0  0
 16 38  1  0  0  0  0
 17 19  1  0  0  0  0
 17 20  2  0  0  0  0
 18 39  1  0  0  0  0
 18 40  1  0  0  0  0
 19 21  2  0  0  0  0
 20 22  1  0  0  0  0
 21 23  1  0  0  0  0
 21 24  1  0  0  0  0
 22 23  2  0  0  0  0
 22 44  1  0  0  0  0
 24 26  1  0  0  0  0
 25 26  2  0  0  0  0
 25 27  1  0  0  0  0
 26 48  1  0  0  0  0
 27 28  2  0  0  0  0
 27 29  1  0  0  0  0
 28 30  1  0  0  0  0
 28 49  1  0  0  0  0
 29 31  2  0  0  0  0
 29 50  1  0  0  0  0
 30 32  2  0  0  0  0
 31 32  1  0  0  0  0
 31 51  1  0  0  0  0
 33 53  1  0  0  0  0
 33 54  1  0  0  0  0
 33 55  1  0  0  0  0
M  END
> <PUBCHEM_COMPOUND_CID>
442611

> <PUBCHEM_COMPOUND_CANONICALIZED>
1

> <PUBCHEM_CACTVS_COMPLEXITY>
744

> <PUBCHEM_CACTVS_HBOND_ACCEPTOR>
11

> <PUBCHEM_CACTVS_HBOND_DONOR>
7

> <PUBCHEM_CACTVS_ROTATABLE_BOND>
4

> <PUBCHEM_CACTVS_SUBSKEYS>
AAADceB4PAAAAAAAAAAAAAAAAAAAAAAAAAA0YIEAAAAAAACBQAAAGgAACAAADBSgmAIyBoAABgCIAqBSAAACCAAkIAAIiAEGiMgNNzaGNRqCeWOl4BULuQfI7PzOIAADCAAIQABAAAYQABCAAAAAAAAAAA==

> <PUBCHEM_IUPAC_OPENEYE_NAME>
5,7-dihydroxy-2-(4-hydroxy-3-methoxy-phenyl)-6-[(2S,3R,4R,5S,6R)-3,4,5-trihydroxy-6-(hydroxymethyl)tetrahydropyran-2-yl]chromen-4-one

> <PUBCHEM_IUPAC_CAS_NAME>
5,7-dihydroxy-2-(4-hydroxy-3-methoxyphenyl)-6-[(2S,3R,4R,5S,6R)-3,4,5-trihydroxy-6-(hydroxymethyl)-2-oxanyl]-1-benzopyran-4-one

> <PUBCHEM_IUPAC_NAME>
5,7-dihydroxy-2-(4-hydroxy-3-methoxyphenyl)-6-[(2S,3R,4R,5S,6R)-3,4,5-trihydroxy-6-(hydroxymethyl)oxan-2-yl]chromen-4-one

> <PUBCHEM_IUPAC_SYSTEMATIC_NAME>
6-[(2S,3R,4R,5S,6R)-6-(hydroxymethyl)-3,4,5-tris(oxidanyl)oxan-2-yl]-2-(3-methoxy-4-oxidanyl-phenyl)-5,7-bis(oxidanyl)chromen-4-one

> <PUBCHEM_IUPAC_TRADITIONAL_NAME>
5,7-dihydroxy-2-(4-hydroxy-3-methoxy-phenyl)-6-[(2S,3R,4R,5S,6R)-3,4,5-trihydroxy-6-methylol-tetrahydropyran-2-yl]chromone

> <PUBCHEM_IUPAC_INCHI>
InChI=1S/C22H22O11/c1-31-13-4-8(2-3-9(13)24)12-5-10(25)16-14(32-12)6-11(26)17(19(16)28)22-21(30)20(29)18(27)15(7-23)33-22/h2-6,15,18,20-24,26-30H,7H2,1H3/t15-,18-,20+,21-,22+/m1/s1

> <PUBCHEM_IUPAC_INCHIKEY>
KOMUHHCFAXYRPO-DGHBBABESA-N

> <PUBCHEM_XLOGP3_AA>
0.2

> <PUBCHEM_EXACT_MASS>
462.116212

> <PUBCHEM_MOLECULAR_FORMULA>
C22H22O11

> <PUBCHEM_MOLECULAR_WEIGHT>
462.40348

> <PUBCHEM_OPENEYE_CAN_SMILES>
COC1=C(C=CC(=C1)C2=CC(=O)C3=C(C(=C(C=C3O2)O)C4C(C(C(C(O4)CO)O)O)O)O)O

> <PUBCHEM_OPENEYE_ISO_SMILES>
COC1=C(C=CC(=C1)C2=CC(=O)C3=C(C(=C(C=C3O2)O)[C@H]4[C@@H]([C@H]([C@@H]([C@H](O4)CO)O)O)O)O)O

> <PUBCHEM_CACTVS_TPSA>
186

> <PUBCHEM_MONOISOTOPIC_WEIGHT>
462.116212

> <PUBCHEM_TOTAL_CHARGE>
0

> <PUBCHEM_HEAVY_ATOM_COUNT>
33

> <PUBCHEM_ATOM_DEF_STEREO_COUNT>
5

> <PUBCHEM_ATOM_UDEF_STEREO_COUNT>
0

> <PUBCHEM_BOND_DEF_STEREO_COUNT>
0

> <PUBCHEM_BOND_UDEF_STEREO_COUNT>
0

> <PUBCHEM_ISOTOPIC_ATOM_COUNT>
0

> <PUBCHEM_COMPONENT_COUNT>
1

> <PUBCHEM_CACTVS_TAUTO_COUNT>
69

> <PUBCHEM_COORDINATE_TYPE>
1
5
255

> <PUBCHEM_BONDANNOTATIONS>
14  36  6
16  18  5
17  19  8
17  20  8
19  21  8
12  2  6
20  22  8
21  23  8
21  24  8
22  23  8
24  26  8
25  26  8
27  28  8
27  29  8
28  30  8
29  31  8
13  3  5
30  32  8
31  32  8
15  4  6
8  23  8
8  25  8

$$$$

