   Color/Form

     * Colorless crystals
     * White crystalline solid

   from [1]HSDB

   Melting Point
        224.9 deg C
   from [2]HSDB

   Density/Specific Gravity
        1.35 g/cu cm (20 deg C)
   from [3]HSDB

   Dissociation Constants
        pKa = 5.22 (weak base)
   from [4]HSDB

   Octanol/Water Partition Coefficient
        log Kow = -0.06 (pH 7.0)
   from [5]HSDB

   Solubilities

     * All in g/kg, 20 deg C: In methanol 22, isopropanol, 2.5, acetone,
       1.7, n-octanol 1.2, dichloromethane 0.25, toluene, 0.015, hexane
       0.0002
     * In water, 1.30X10+4 mg/L at 25 deg C, pH 7.1
     * In water, 1.1% at 20 deg C (pH 7.5); methanol 1.7%

   from [6]HSDB

   Vapor Pressure
        3.36X10-9 mm Hg at 25 deg C
   from [7]HSDB

   Other Chemical/Physical Properties

     * Stable up to 310 deg C. Stable to hydrolysis for 28 days at up to
       70 deg C
     * Henry's Law constant = 5.65X10-14 atm-cu m/mole at 25 deg C (est)
     * Hydroxyl radical reaction rate constant = 1.26X10-12 cu
       cm/molec-sec at 25 deg C (est)

   from [8]HSDB

   Computed Properties
   Molecular Weight                  166.1838 [g/mol]
   Molecular Formula                 C[6]H[10]N[6]
   XLogP3                            -0.2
   H-Bond Donor                      3
   H-Bond Acceptor                   6
   Rotatable Bond Count              2
   Tautomer Count                    10
   Exact Mass                        166.096694
   MonoIsotopic Mass                 166.096694
   Topological Polar Surface Area    103
   Heavy Atom Count                  12
   Formal Charge                     0
   Complexity                        148
   Isotope Atom Count                0
   Defined Atom Stereocenter Count   0
   Undefined Atom Stereocenter Count 0
   Defined Bond Stereocenter Count   0
   Undefined Bond Stereocenter Count 0
   Covalently-Bonded Unit Count      1
   Feature 3D Donor Count            3
   Feature 3D Cation Count           3
   Feature 3D Ring Count             1
   Effective Rotor Count             2.6
   Conformer Sampling RMSD           0.6
   CID Conformer Count               [9]5

References

   1. http://toxnet.nlm.nih.gov/cgi-bin/sis/search/r?dbs+hsdb:@term+@rn+@rel+66215-27-8
   2. http://toxnet.nlm.nih.gov/cgi-bin/sis/search/r?dbs+hsdb:@term+@rn+@rel+66215-27-8
   3. http://toxnet.nlm.nih.gov/cgi-bin/sis/search/r?dbs+hsdb:@term+@rn+@rel+66215-27-8
   4. http://toxnet.nlm.nih.gov/cgi-bin/sis/search/r?dbs+hsdb:@term+@rn+@rel+66215-27-8
   5. http://toxnet.nlm.nih.gov/cgi-bin/sis/search/r?dbs+hsdb:@term+@rn+@rel+66215-27-8
   6. http://toxnet.nlm.nih.gov/cgi-bin/sis/search/r?dbs+hsdb:@term+@rn+@rel+66215-27-8
   7. http://toxnet.nlm.nih.gov/cgi-bin/sis/search/r?dbs+hsdb:@term+@rn+@rel+66215-27-8
   8. http://toxnet.nlm.nih.gov/cgi-bin/sis/search/r?dbs+hsdb:@term+@rn+@rel+66215-27-8
   9. http://pubchem.ncbi.nlm.nih.gov/vw3d/vw3d.cgi?cid=47866
