   Color/Form
        Oil
   from [1]HSDB

   Boiling Point
        200 deg C @ 0.02 mm Hg
   from [2]HSDB

   Dissociation Constants
        pKa= 10.6
   from [3]HSDB

   Octanol/Water Partition Coefficient
        log Kow= 6.97
   from [4]HSDB

   Solubilities

     * 1 part in 1 part of alcohol
     * 1 part in 1 part of acetone
     * 1 part in 3 parts of glycerol
     * Soluble in fixed oils
     * 2.8 mg/l in water @ 23 deg C
     * 0.77 mg/l in 0.15M sodium chloride @ 23 deg C

   from [5]HSDB

   Spectral Properties

     * UV max (ethanol): 283, 276 nm (log epsilon= 3.21, 3.20)
     * Specific optical rotation: -150.5 deg @ 20 deg C (concn= 0.53% in
       chloroform)

   from [6]HSDB

   Other Chemical/Physical Properties
        Viscous oil
   from [7]HSDB

   Computed Properties
   Molecular Weight                  314.4617 [g/mol]
   Molecular Formula                 C[21]H[30]O[2]
   XLogP3                            7
   H-Bond Donor                      1
   H-Bond Acceptor                   2
   Rotatable Bond Count              4
   Tautomer Count                    9
   Exact Mass                        314.22458
   MonoIsotopic Mass                 314.22458
   Topological Polar Surface Area    29.5
   Heavy Atom Count                  23
   Formal Charge                     0
   Complexity                        439
   Isotope Atom Count                0
   Defined Atom Stereocenter Count   2
   Undefined Atom Stereocenter Count 0
   Defined Bond Stereocenter Count   0
   Undefined Bond Stereocenter Count 0
   Covalently-Bonded Unit Count      1
   Feature 3D Acceptor Count         1
   Feature 3D Donor Count            1
   Feature 3D Hydrophobe Count       3
   Feature 3D Ring Count             3
   Effective Rotor Count             4.8
   Conformer Sampling RMSD           0.8
   CID Conformer Count               [8]10

References

   1. http://toxnet.nlm.nih.gov/cgi-bin/sis/search/r?dbs+hsdb:@term+@rn+@rel+1972-08-3
   2. http://toxnet.nlm.nih.gov/cgi-bin/sis/search/r?dbs+hsdb:@term+@rn+@rel+1972-08-3
   3. http://toxnet.nlm.nih.gov/cgi-bin/sis/search/r?dbs+hsdb:@term+@rn+@rel+1972-08-3
   4. http://toxnet.nlm.nih.gov/cgi-bin/sis/search/r?dbs+hsdb:@term+@rn+@rel+1972-08-3
   5. http://toxnet.nlm.nih.gov/cgi-bin/sis/search/r?dbs+hsdb:@term+@rn+@rel+1972-08-3
   6. http://toxnet.nlm.nih.gov/cgi-bin/sis/search/r?dbs+hsdb:@term+@rn+@rel+1972-08-3
   7. http://toxnet.nlm.nih.gov/cgi-bin/sis/search/r?dbs+hsdb:@term+@rn+@rel+1972-08-3
   8. http://pubchem.ncbi.nlm.nih.gov/vw3d/vw3d.cgi?cid=16078
