4320
  -OEChem-06261200022D

106110  0     1  0  0  0  0  0999 V2000
    8.0622    6.2694    0.0000 Cl  0  0  0  0  0  0  0  0  0  0  0  0
    5.4361   -5.5094    0.0000 O   0  0  0  0  0  0  0  0  0  0  0  0
    8.0622   -0.7306    0.0000 O   0  0  0  0  0  0  0  0  0  0  0  0
    8.9282   -4.2306    0.0000 O   0  0  0  0  0  0  0  0  0  0  0  0
    4.5981   -0.7306    0.0000 O   0  0  0  0  0  0  0  0  0  0  0  0
    5.4641    3.7694    0.0000 O   0  0  0  0  0  0  0  0  0  0  0  0
    7.1962   -4.2306    0.0000 N   0  0  0  0  0  0  0  0  0  0  0  0
    6.3301    0.2694    0.0000 N   0  0  3  0  0  0  0  0  0  0  0  0
    6.3301    2.2694    0.0000 N   0  0  0  0  0  0  0  0  0  0  0  0
    3.7320    0.7694    0.0000 N   0  0  0  0  0  0  0  0  0  0  0  0
    9.7942    5.2694    0.0000 N   0  0  0  0  0  0  0  0  0  0  0  0
   11.5263    6.2694    0.0000 N   0  0  0  0  0  0  0  0  0  0  0  0
    7.1962    4.7694    0.0000 N   0  0  0  0  0  0  0  0  0  0  0  0
    8.9282    3.7694    0.0000 N   0  0  0  0  0  0  0  0  0  0  0  0
    7.1962   -5.2306    0.0000 C   0  0  3  0  0  0  0  0  0  0  0  0
    8.0052   -5.8184    0.0000 C   0  0  3  0  0  0  0  0  0  0  0  0
    6.3871   -5.8184    0.0000 C   0  0  3  0  0  0  0  0  0  0  0  0
    7.6962   -6.7694    0.0000 C   0  0  0  0  0  0  0  0  0  0  0  0
    6.6962   -6.7694    0.0000 C   0  0  0  0  0  0  0  0  0  0  0  0
    8.9562   -5.5094    0.0000 C   0  0  0  0  0  0  0  0  0  0  0  0
    8.0622   -2.7306    0.0000 C   0  0  3  0  0  0  0  0  0  0  0  0
    8.0622   -3.7306    0.0000 C   0  0  0  0  0  0  0  0  0  0  0  0
    7.1962   -2.2306    0.0000 C   0  0  0  0  0  0  0  0  0  0  0  0
    7.1962   -1.2306    0.0000 C   0  0  3  0  0  0  0  0  0  0  0  0
    5.4641    0.7694    0.0000 C   0  0  3  0  0  0  0  0  0  0  0  0
    6.3301   -0.7306    0.0000 C   0  0  0  0  0  0  0  0  0  0  0  0
    7.1962    0.7694    0.0000 C   0  0  0  0  0  0  0  0  0  0  0  0
    5.4641    1.7694    0.0000 C   0  0  0  0  0  0  0  0  0  0  0  0
    8.9282   -2.2306    0.0000 C   0  0  0  0  0  0  0  0  0  0  0  0
    7.1962    1.7694    0.0000 C   0  0  0  0  0  0  0  0  0  0  0  0
    4.5981    0.2694    0.0000 C   0  0  0  0  0  0  0  0  0  0  0  0
    9.7942   -2.7306    0.0000 C   0  0  0  0  0  0  0  0  0  0  0  0
    2.8660    0.2694    0.0000 C   0  0  0  0  0  0  0  0  0  0  0  0
    6.3301    3.2694    0.0000 C   0  0  0  0  0  0  0  0  0  0  0  0
   10.6603   -2.2306    0.0000 C   0  0  0  0  0  0  0  0  0  0  0  0
    9.7942   -3.7306    0.0000 C   0  0  0  0  0  0  0  0  0  0  0  0
    7.1962    3.7694    0.0000 C   0  0  0  0  0  0  0  0  0  0  0  0
    2.0000   -0.2306    0.0000 C   0  0  0  0  0  0  0  0  0  0  0  0
    2.3660    1.1354    0.0000 C   0  0  0  0  0  0  0  0  0  0  0  0
    3.3660   -0.5966    0.0000 C   0  0  0  0  0  0  0  0  0  0  0  0
   11.5263   -2.7306    0.0000 C   0  0  0  0  0  0  0  0  0  0  0  0
   10.6603   -4.2306    0.0000 C   0  0  0  0  0  0  0  0  0  0  0  0
    9.7942    6.2694    0.0000 C   0  0  0  0  0  0  0  0  0  0  0  0
   10.6603    4.7694    0.0000 C   0  0  0  0  0  0  0  0  0  0  0  0
    8.0622    3.2694    0.0000 C   0  0  0  0  0  0  0  0  0  0  0  0
   10.6603    6.7694    0.0000 C   0  0  0  0  0  0  0  0  0  0  0  0
   11.5263    5.2694    0.0000 C   0  0  0  0  0  0  0  0  0  0  0  0
   11.5263   -3.7306    0.0000 C   0  0  0  0  0  0  0  0  0  0  0  0
    8.9282    4.7694    0.0000 C   0  0  0  0  0  0  0  0  0  0  0  0
    8.0622    5.2694    0.0000 C   0  0  0  0  0  0  0  0  0  0  0  0
   12.3923    6.7694    0.0000 C   0  0  0  0  0  0  0  0  0  0  0  0
    6.6437   -4.9491    0.0000 H   0  0  0  0  0  0  0  0  0  0  0  0
    8.1022   -5.2060    0.0000 H   0  0  0  0  0  0  0  0  0  0  0  0
    6.2902   -5.2060    0.0000 H   0  0  0  0  0  0  0  0  0  0  0  0
    7.6313   -7.3860    0.0000 H   0  0  0  0  0  0  0  0  0  0  0  0
    8.3026   -6.8983    0.0000 H   0  0  0  0  0  0  0  0  0  0  0  0
    6.0897   -6.8983    0.0000 H   0  0  0  0  0  0  0  0  0  0  0  0
    6.7610   -7.3860    0.0000 H   0  0  0  0  0  0  0  0  0  0  0  0
    6.6592   -3.9206    0.0000 H   0  0  0  0  0  0  0  0  0  0  0  0
    9.1478   -6.0990    0.0000 H   0  0  0  0  0  0  0  0  0  0  0  0
    9.5459   -5.3178    0.0000 H   0  0  0  0  0  0  0  0  0  0  0  0
    8.7646   -4.9197    0.0000 H   0  0  0  0  0  0  0  0  0  0  0  0
    8.0622   -2.1106    0.0000 H   0  0  0  0  0  0  0  0  0  0  0  0
    6.5856   -2.1229    0.0000 H   0  0  0  0  0  0  0  0  0  0  0  0
    6.9841   -2.8132    0.0000 H   0  0  0  0  0  0  0  0  0  0  0  0
    7.7331   -1.5406    0.0000 H   0  0  0  0  0  0  0  0  0  0  0  0
    5.4641    0.1494    0.0000 H   0  0  0  0  0  0  0  0  0  0  0  0
    5.7196   -0.6229    0.0000 H   0  0  0  0  0  0  0  0  0  0  0  0
    6.1181   -1.3132    0.0000 H   0  0  0  0  0  0  0  0  0  0  0  0
    4.9753   -5.9242    0.0000 H   0  0  0  0  0  0  0  0  0  0  0  0
    7.4082    0.1868    0.0000 H   0  0  0  0  0  0  0  0  0  0  0  0
    7.8067    0.8771    0.0000 H   0  0  0  0  0  0  0  0  0  0  0  0
    5.2520    2.3520    0.0000 H   0  0  0  0  0  0  0  0  0  0  0  0
    4.8535    1.6618    0.0000 H   0  0  0  0  0  0  0  0  0  0  0  0
    9.3267   -1.7556    0.0000 H   0  0  0  0  0  0  0  0  0  0  0  0
    8.5297   -1.7556    0.0000 H   0  0  0  0  0  0  0  0  0  0  0  0
    7.8067    1.6618    0.0000 H   0  0  0  0  0  0  0  0  0  0  0  0
    7.4082    2.3520    0.0000 H   0  0  0  0  0  0  0  0  0  0  0  0
    8.5991   -1.0406    0.0000 H   0  0  0  0  0  0  0  0  0  0  0  0
    3.7320    1.3894    0.0000 H   0  0  0  0  0  0  0  0  0  0  0  0
   10.6603   -1.6106    0.0000 H   0  0  0  0  0  0  0  0  0  0  0  0
    9.2573   -4.0406    0.0000 H   0  0  0  0  0  0  0  0  0  0  0  0
    2.8291   -0.9066    0.0000 H   0  0  0  0  0  0  0  0  0  0  0  0
    3.6760   -1.1335    0.0000 H   0  0  0  0  0  0  0  0  0  0  0  0
    3.9030   -0.2866    0.0000 H   0  0  0  0  0  0  0  0  0  0  0  0
    2.9030    1.4454    0.0000 H   0  0  0  0  0  0  0  0  0  0  0  0
    2.0560    1.6724    0.0000 H   0  0  0  0  0  0  0  0  0  0  0  0
    1.8291    0.8254    0.0000 H   0  0  0  0  0  0  0  0  0  0  0  0
    1.6900    0.3064    0.0000 H   0  0  0  0  0  0  0  0  0  0  0  0
    1.4631   -0.5406    0.0000 H   0  0  0  0  0  0  0  0  0  0  0  0
    2.3100   -0.7675    0.0000 H   0  0  0  0  0  0  0  0  0  0  0  0
   12.0632   -2.4206    0.0000 H   0  0  0  0  0  0  0  0  0  0  0  0
   10.6603   -4.8506    0.0000 H   0  0  0  0  0  0  0  0  0  0  0  0
    9.5822    6.8520    0.0000 H   0  0  0  0  0  0  0  0  0  0  0  0
    9.1836    6.1618    0.0000 H   0  0  0  0  0  0  0  0  0  0  0  0
   10.2617    4.2945    0.0000 H   0  0  0  0  0  0  0  0  0  0  0  0
   11.0588    4.2945    0.0000 H   0  0  0  0  0  0  0  0  0  0  0  0
    8.0622    2.6494    0.0000 H   0  0  0  0  0  0  0  0  0  0  0  0
   11.0588    7.2444    0.0000 H   0  0  0  0  0  0  0  0  0  0  0  0
   10.2617    7.2444    0.0000 H   0  0  0  0  0  0  0  0  0  0  0  0
   11.7383    4.6868    0.0000 H   0  0  0  0  0  0  0  0  0  0  0  0
   12.1369    5.3771    0.0000 H   0  0  0  0  0  0  0  0  0  0  0  0
   12.0632   -4.0406    0.0000 H   0  0  0  0  0  0  0  0  0  0  0  0
   12.7023    6.2325    0.0000 H   0  0  0  0  0  0  0  0  0  0  0  0
   12.9292    7.0794    0.0000 H   0  0  0  0  0  0  0  0  0  0  0  0
   12.0823    7.3064    0.0000 H   0  0  0  0  0  0  0  0  0  0  0  0
  1 50  1  0  0  0  0
  2 17  1  0  0  0  0
  2 70  1  0  0  0  0
  3 24  1  0  0  0  0
  3 79  1  0  0  0  0
  4 22  2  0  0  0  0
  5 31  2  0  0  0  0
  6 34  2  0  0  0  0
  7 15  1  0  0  0  0
  7 22  1  0  0  0  0
  7 59  1  0  0  0  0
  8 25  1  0  0  0  0
  8 26  1  0  0  0  0
  8 27  1  0  0  0  0
  9 28  1  0  0  0  0
  9 30  1  0  0  0  0
  9 34  1  0  0  0  0
 10 31  1  0  0  0  0
 10 33  1  0  0  0  0
 10 80  1  0  0  0  0
 11 43  1  0  0  0  0
 11 44  1  0  0  0  0
 11 49  1  0  0  0  0
 12 46  1  0  0  0  0
 12 47  1  0  0  0  0
 12 51  1  0  0  0  0
 13 37  1  0  0  0  0
 13 50  2  0  0  0  0
 14 45  1  0  0  0  0
 14 49  2  0  0  0  0
 15 16  1  0  0  0  0
 15 17  1  0  0  0  0
 15 52  1  0  0  0  0
 16 18  1  0  0  0  0
 16 20  1  0  0  0  0
 16 53  1  0  0  0  0
 17 19  1  0  0  0  0
 17 54  1  0  0  0  0
 18 19  1  0  0  0  0
 18 55  1  0  0  0  0
 18 56  1  0  0  0  0
 19 57  1  0  0  0  0
 19 58  1  0  0  0  0
 20 60  1  0  0  0  0
 20 61  1  0  0  0  0
 20 62  1  0  0  0  0
 21 22  1  0  0  0  0
 21 23  1  0  0  0  0
 21 29  1  0  0  0  0
 21 63  1  0  0  0  0
 23 24  1  0  0  0  0
 23 64  1  0  0  0  0
 23 65  1  0  0  0  0
 24 26  1  0  0  0  0
 24 66  1  0  0  0  0
 25 28  1  0  0  0  0
 25 31  1  0  0  0  0
 25 67  1  0  0  0  0
 26 68  1  0  0  0  0
 26 69  1  0  0  0  0
 27 30  1  0  0  0  0
 27 71  1  0  0  0  0
 27 72  1  0  0  0  0
 28 73  1  0  0  0  0
 28 74  1  0  0  0  0
 29 32  1  0  0  0  0
 29 75  1  0  0  0  0
 29 76  1  0  0  0  0
 30 77  1  0  0  0  0
 30 78  1  0  0  0  0
 32 35  2  0  0  0  0
 32 36  1  0  0  0  0
 33 38  1  0  0  0  0
 33 39  1  0  0  0  0
 33 40  1  0  0  0  0
 34 37  1  0  0  0  0
 35 41  1  0  0  0  0
 35 81  1  0  0  0  0
 36 42  2  0  0  0  0
 36 82  1  0  0  0  0
 37 45  2  0  0  0  0
 38 89  1  0  0  0  0
 38 90  1  0  0  0  0
 38 91  1  0  0  0  0
 39 86  1  0  0  0  0
 39 87  1  0  0  0  0
 39 88  1  0  0  0  0
 40 83  1  0  0  0  0
 40 84  1  0  0  0  0
 40 85  1  0  0  0  0
 41 48  2  0  0  0  0
 41 92  1  0  0  0  0
 42 48  1  0  0  0  0
 42 93  1  0  0  0  0
 43 46  1  0  0  0  0
 43 94  1  0  0  0  0
 43 95  1  0  0  0  0
 44 47  1  0  0  0  0
 44 96  1  0  0  0  0
 44 97  1  0  0  0  0
 45 98  1  0  0  0  0
 46 99  1  0  0  0  0
 46100  1  0  0  0  0
 47101  1  0  0  0  0
 47102  1  0  0  0  0
 48103  1  0  0  0  0
 49 50  1  0  0  0  0
 51104  1  0  0  0  0
 51105  1  0  0  0  0
 51106  1  0  0  0  0
M  END
> <PUBCHEM_COMPOUND_CID>
4320

> <PUBCHEM_COMPOUND_CANONICALIZED>
1

> <PUBCHEM_CACTVS_COMPLEXITY>
1160

> <PUBCHEM_CACTVS_HBOND_ACCEPTOR>
10

> <PUBCHEM_CACTVS_HBOND_DONOR>
4

> <PUBCHEM_CACTVS_ROTATABLE_BOND>
12

> <PUBCHEM_CACTVS_SUBSKEYS>
AAADcfB/+AAEAAAAAAAAAAAAAAAAAYAAAAA8WLEAAAAAAAABwAAAHgIQCAAADb7hniY/sJPIEgCoAzd3dACCgC03EiAJ2IG4dMiKcHrA2TDUYIgslgLYiOe62fKOAAAAAAAAAAAAAAAAAAAAAIAAAQgAAA==

> <PUBCHEM_IUPAC_OPENEYE_NAME>
1-[4-benzyl-2-hydroxy-5-[(2-hydroxy-5-methyl-cyclopentyl)amino]-5-oxo-pentyl]-N-tert-butyl-4-[6-chloro-5-(4-methylpiperazin-1-yl)pyrazine-2-carbonyl]piperazine-2-carboxamide

> <PUBCHEM_IUPAC_CAS_NAME>
N-tert-butyl-4-[[6-chloro-5-(4-methyl-1-piperazinyl)-2-pyrazinyl]-oxomethyl]-1-[2-hydroxy-5-[(2-hydroxy-5-methylcyclopentyl)amino]-5-oxo-4-(phenylmethyl)pentyl]-2-piperazinecarboxamide

> <PUBCHEM_IUPAC_NAME>
1-[4-benzyl-2-hydroxy-5-[(2-hydroxy-5-methylcyclopentyl)amino]-5-oxopentyl]-N-tert-butyl-4-[6-chloro-5-(4-methylpiperazin-1-yl)pyrazine-2-carbonyl]piperazine-2-carboxamide

> <PUBCHEM_IUPAC_SYSTEMATIC_NAME>
N-tert-butyl-4-[6-chloranyl-5-(4-methylpiperazin-1-yl)pyrazin-2-yl]carbonyl-1-[5-[(2-methyl-5-oxidanyl-cyclopentyl)amino]-2-oxidanyl-5-oxidanylidene-4-(phenylmethyl)pentyl]piperazine-2-carboxamide

> <PUBCHEM_IUPAC_TRADITIONAL_NAME>
1-[4-benzyl-2-hydroxy-5-[(2-hydroxy-5-methyl-cyclopentyl)amino]-5-keto-pentyl]-N-tert-butyl-4-[6-chloro-5-(4-methylpiperazino)pyrazinoyl]piperazine-2-carboxamide

> <PUBCHEM_IUPAC_INCHI>
InChI=1S/C37H55ClN8O5/c1-24-11-12-30(48)31(24)41-34(49)26(19-25-9-7-6-8-10-25)20-27(47)22-45-17-18-46(23-29(45)35(50)42-37(2,3)4)36(51)28-21-39-33(32(38)40-28)44-15-13-43(5)14-16-44/h6-10,21,24,26-27,29-31,47-48H,11-20,22-23H2,1-5H3,(H,41,49)(H,42,50)

> <PUBCHEM_IUPAC_INCHIKEY>
SQZXWXXIPWXBCL-UHFFFAOYSA-N

> <PUBCHEM_XLOGP3_AA>
2.7

> <PUBCHEM_EXACT_MASS>
726.398395

> <PUBCHEM_MOLECULAR_FORMULA>
C37H55ClN8O5

> <PUBCHEM_MOLECULAR_WEIGHT>
727.3362

> <PUBCHEM_OPENEYE_CAN_SMILES>
CC1CCC(C1NC(=O)C(CC2=CC=CC=C2)CC(CN3CCN(CC3C(=O)NC(C)(C)C)C(=O)C4=CN=C(C(=N4)Cl)N5CCN(CC5)C)O)O

> <PUBCHEM_OPENEYE_ISO_SMILES>
CC1CCC(C1NC(=O)C(CC2=CC=CC=C2)CC(CN3CCN(CC3C(=O)NC(C)(C)C)C(=O)C4=CN=C(C(=N4)Cl)N5CCN(CC5)C)O)O

> <PUBCHEM_CACTVS_TPSA>
155

> <PUBCHEM_MONOISOTOPIC_WEIGHT>
726.398395

> <PUBCHEM_TOTAL_CHARGE>
0

> <PUBCHEM_HEAVY_ATOM_COUNT>
51

> <PUBCHEM_ATOM_DEF_STEREO_COUNT>
0

> <PUBCHEM_ATOM_UDEF_STEREO_COUNT>
6

> <PUBCHEM_BOND_DEF_STEREO_COUNT>
0

> <PUBCHEM_BOND_UDEF_STEREO_COUNT>
0

> <PUBCHEM_ISOTOPIC_ATOM_COUNT>
0

> <PUBCHEM_COMPONENT_COUNT>
1

> <PUBCHEM_CACTVS_TAUTO_COUNT>
4

> <PUBCHEM_COORDINATE_TYPE>
1
5
255

> <PUBCHEM_BONDANNOTATIONS>
13  37  8
13  50  8
14  45  8
14  49  8
16  20  3
17  2  3
21  29  3
25  31  3
24  3  3
32  35  8
32  36  8
35  41  8
36  42  8
37  45  8
41  48  8
42  48  8
49  50  8
15  7  3

$$$$

