9543220
  -OEChem-07051212522D

 20 20  0     1  0  0  0  0  0999 V2000
    5.3745    1.1739    0.0000 S   0  0  0  0  0  0  0  0  0  0  0  0
    3.9777   -0.2229    0.0000 O   0  0  0  0  0  0  0  0  0  0  0  0
    5.9623    1.9830    0.0000 O   0  0  0  0  0  0  0  0  0  0  0  0
    6.1835    0.5861    0.0000 O   0  0  0  0  0  0  0  0  0  0  0  0
    4.5655    1.7617    0.0000 O   0  0  0  0  0  0  0  0  0  0  0  0
    2.6166    1.8784    0.0000 O   0  0  0  0  0  0  0  0  0  0  0  0
    3.6989   -1.9830    0.0000 O   0  0  0  0  0  0  0  0  0  0  0  0
    2.7976    0.1559    0.0000 O   0  0  0  0  0  0  0  0  0  0  0  0
    4.7867    0.3649    0.0000 C   0  0  3  0  0  0  0  0  0  0  0  0
    4.1989    1.1739    0.0000 C   0  0  0  0  0  0  0  0  0  0  0  0
    5.5957   -0.2229    0.0000 C   0  0  0  0  0  0  0  0  0  0  0  0
    5.2867   -1.1739    0.0000 C   0  0  0  0  0  0  0  0  0  0  0  0
    4.2867   -1.1739    0.0000 C   0  0  0  0  0  0  0  0  0  0  0  0
    3.2044    1.0694    0.0000 C   0  0  0  0  0  0  0  0  0  0  0  0
    4.7562    1.4457    0.0000 H   0  0  0  0  0  0  0  0  0  0  0  0
    4.0280    1.7699    0.0000 H   0  0  0  0  0  0  0  0  0  0  0  0
    6.1854   -0.0313    0.0000 H   0  0  0  0  0  0  0  0  0  0  0  0
    5.6511   -1.6755    0.0000 H   0  0  0  0  0  0  0  0  0  0  0  0
    6.5789    1.9181    0.0000 H   0  0  0  0  0  0  0  0  0  0  0  0
    2.0000    1.8136    0.0000 H   0  0  0  0  0  0  0  0  0  0  0  0
  1  3  1  0  0  0  0
  1  4  2  0  0  0  0
  1  5  2  0  0  0  0
  1  9  1  0  0  0  0
  2  9  1  0  0  0  0
  2 13  1  0  0  0  0
  3 19  1  0  0  0  0
  6 14  1  0  0  0  0
  6 20  1  0  0  0  0
  7 13  2  0  0  0  0
  8 14  2  0  0  0  0
  9 10  1  0  0  0  0
  9 11  1  0  0  0  0
 10 14  1  0  0  0  0
 10 15  1  0  0  0  0
 10 16  1  0  0  0  0
 11 12  2  0  0  0  0
 11 17  1  0  0  0  0
 12 13  1  0  0  0  0
 12 18  1  0  0  0  0
M  END
> <PUBCHEM_COMPOUND_CID>
9543220

> <PUBCHEM_COMPOUND_CANONICALIZED>
1

> <PUBCHEM_CACTVS_COMPLEXITY>
400

> <PUBCHEM_CACTVS_HBOND_ACCEPTOR>
7

> <PUBCHEM_CACTVS_HBOND_DONOR>
2

> <PUBCHEM_CACTVS_ROTATABLE_BOND>
3

> <PUBCHEM_CACTVS_SUBSKEYS>
AAADcYBgOABAAAAAAAAAAAAAAAAAAQAAAAAAAAAAAAAAAAAAAAAAGgQACAAACASAwAAACAAABoKIACDSCHBAAAAgAAAICAEAAEgABBQAIAACUAAFoAAIIYIAAAAAAAAAAAAAAAAAAAAAAAAAAAAAAAAAAA==

> <PUBCHEM_IUPAC_OPENEYE_NAME>
2-(5-oxo-2-sulfo-2-furyl)acetic acid

> <PUBCHEM_IUPAC_CAS_NAME>
2-(5-oxo-2-sulfo-2-furanyl)acetic acid

> <PUBCHEM_IUPAC_NAME>
2-(5-oxo-2-sulfofuran-2-yl)acetic acid

> <PUBCHEM_IUPAC_SYSTEMATIC_NAME>
2-(5-oxidanylidene-2-sulfo-furan-2-yl)ethanoic acid

> <PUBCHEM_IUPAC_TRADITIONAL_NAME>
2-(5-keto-2-sulfo-2-furyl)acetic acid

> <PUBCHEM_IUPAC_INCHI>
InChI=1S/C6H6O7S/c7-4(8)3-6(14(10,11)12)2-1-5(9)13-6/h1-2H,3H2,(H,7,8)(H,10,11,12)

> <PUBCHEM_IUPAC_INCHIKEY>
WEEOYKXHMIPYQX-UHFFFAOYSA-N

> <PUBCHEM_XLOGP3_AA>
-1.4

> <PUBCHEM_EXACT_MASS>
221.983424

> <PUBCHEM_MOLECULAR_FORMULA>
C6H6O7S

> <PUBCHEM_MOLECULAR_WEIGHT>
222.17264

> <PUBCHEM_OPENEYE_CAN_SMILES>
C1=CC(OC1=O)(CC(=O)O)S(=O)(=O)O

> <PUBCHEM_OPENEYE_ISO_SMILES>
C1=CC(OC1=O)(CC(=O)O)S(=O)(=O)O

> <PUBCHEM_CACTVS_TPSA>
126

> <PUBCHEM_MONOISOTOPIC_WEIGHT>
221.983424

> <PUBCHEM_TOTAL_CHARGE>
0

> <PUBCHEM_HEAVY_ATOM_COUNT>
14

> <PUBCHEM_ATOM_DEF_STEREO_COUNT>
0

> <PUBCHEM_ATOM_UDEF_STEREO_COUNT>
1

> <PUBCHEM_BOND_DEF_STEREO_COUNT>
0

> <PUBCHEM_BOND_UDEF_STEREO_COUNT>
0

> <PUBCHEM_ISOTOPIC_ATOM_COUNT>
0

> <PUBCHEM_COMPONENT_COUNT>
1

> <PUBCHEM_CACTVS_TAUTO_COUNT>
1

> <PUBCHEM_COORDINATE_TYPE>
1
5
255

> <PUBCHEM_BONDANNOTATIONS>
9  10  3

$$$$

