441862
  -OEChem-07051212562D

 82 90  0     1  0  0  0  0  0999 V2000
    7.4038    3.1669    0.0000 S   0  0  0  0  0  0  0  0  0  0  0  0
    2.7168   -1.5492    0.0000 O   0  0  0  0  0  0  0  0  0  0  0  0
    2.5810   -2.2563    0.0000 O   0  0  0  0  0  0  0  0  0  0  0  0
    6.2194   -0.5456    0.0000 O   0  0  0  0  0  0  0  0  0  0  0  0
    6.3151    2.5277    0.0000 O   0  0  0  0  0  0  0  0  0  0  0  0
    4.4484    3.6054    0.0000 O   0  0  0  0  0  0  0  0  0  0  0  0
    6.2351   -2.5938    0.0000 O   0  0  0  0  0  0  0  0  0  0  0  0
    5.3664    5.2851    0.0000 O   0  0  0  0  0  0  0  0  0  0  0  0
    6.2950   -5.2002    0.0000 O   0  0  0  0  0  0  0  0  0  0  0  0
    6.9662    2.8466    0.0000 O   0  0  0  0  0  0  0  0  0  0  0  0
    5.6408   -6.8578    0.0000 O   0  0  0  0  0  0  0  0  0  0  0  0
    8.2290    4.5587    0.0000 N   0  0  0  0  0  0  0  0  0  0  0  0
    3.5831   -1.0487    0.0000 C   0  0  1  0  0  0  0  0  0  0  0  0
    4.4492   -0.5487    0.0000 C   0  0  1  0  0  0  0  0  0  0  0  0
    3.5671   -2.0902    0.0000 C   0  0  1  0  0  0  0  0  0  0  0  0
    2.7171   -0.5487    0.0000 C   0  0  2  0  0  0  0  0  0  0  0  0
    4.4492    0.4513    0.0000 C   0  0  2  0  0  0  0  0  0  0  0  0
    4.4651   -2.6180    0.0000 C   0  0  1  0  0  0  0  0  0  0  0  0
    3.5831    0.9513    0.0000 C   0  0  1  0  0  0  0  0  0  0  0  0
    2.7171    0.4513    0.0000 C   0  0  0  0  0  0  0  0  0  0  0  0
    5.3592   -1.0556    0.0000 C   0  0  1  0  0  0  0  0  0  0  0  0
    2.7940   -2.7792    0.0000 C   0  0  0  0  0  0  0  0  0  0  0  0
    4.2394   -3.6286    0.0000 C   0  0  2  0  0  0  0  0  0  0  0  0
    5.3592    0.9581    0.0000 C   0  0  0  0  0  0  0  0  0  0  0  0
    5.3672   -2.0972    0.0000 C   0  0  0  0  0  0  0  0  0  0  0  0
    3.2087   -3.7280    0.0000 C   0  0  0  0  0  0  0  0  0  0  0  0
    3.5671    1.9928    0.0000 C   0  0  0  0  0  0  0  0  0  0  0  0
    5.3152   -0.0487    0.0000 C   0  0  0  0  0  0  0  0  0  0  0  0
    5.3672    1.9997    0.0000 C   0  0  2  0  0  0  0  0  0  0  0  0
    4.4651    2.5205    0.0000 C   0  0  2  0  0  0  0  0  0  0  0  0
    5.3273   -3.1247    0.0000 C   0  0  0  0  0  0  0  0  0  0  0  0
    4.9015   -4.3780    0.0000 C   0  0  0  0  0  0  0  0  0  0  0  0
    6.3234    3.6126    0.0000 C   0  0  2  0  0  0  0  0  0  0  0  0
    5.3838    4.1551    0.0000 C   0  0  2  0  0  0  0  0  0  0  0  0
    5.8970   -4.2828    0.0000 C   0  0  0  0  0  0  0  0  0  0  0  0
    4.6844   -5.3541    0.0000 C   0  0  0  0  0  0  0  0  0  0  0  0
    7.3108    4.1625    0.0000 C   0  0  3  0  0  0  0  0  0  0  0  0
    7.3195    5.2927    0.0000 C   0  0  0  0  0  0  0  0  0  0  0  0
    5.5456   -5.8623    0.0000 C   0  0  0  0  0  0  0  0  0  0  0  0
    6.3408    5.8578    0.0000 C   0  0  1  0  0  0  0  0  0  0  0  0
    6.3369    6.8578    0.0000 C   0  0  0  0  0  0  0  0  0  0  0  0
    8.3795    2.9477    0.0000 C   0  0  0  0  0  0  0  0  0  0  0  0
    8.8895    3.8079    0.0000 C   0  0  0  0  0  0  0  0  0  0  0  0
    5.1820   -0.1181    0.0000 H   0  0  0  0  0  0  0  0  0  0  0  0
    1.8671   -0.5486    0.0000 H   0  0  0  0  0  0  0  0  0  0  0  0
    2.8438    1.3706    0.0000 H   0  0  0  0  0  0  0  0  0  0  0  0
    2.5051    1.0339    0.0000 H   0  0  0  0  0  0  0  0  0  0  0  0
    2.1065    0.3436    0.0000 H   0  0  0  0  0  0  0  0  0  0  0  0
    5.3508   -0.4356    0.0000 H   0  0  0  0  0  0  0  0  0  0  0  0
    2.4325   -2.2755    0.0000 H   0  0  0  0  0  0  0  0  0  0  0  0
    2.2552   -3.0858    0.0000 H   0  0  0  0  0  0  0  0  0  0  0  0
    4.0120   -4.2054    0.0000 H   0  0  0  0  0  0  0  0  0  0  0  0
    5.5637    0.3728    0.0000 H   0  0  0  0  0  0  0  0  0  0  0  0
    5.9708    1.0595    0.0000 H   0  0  0  0  0  0  0  0  0  0  0  0
    2.6177   -3.9152    0.0000 H   0  0  0  0  0  0  0  0  0  0  0  0
    3.3328   -4.3354    0.0000 H   0  0  0  0  0  0  0  0  0  0  0  0
    3.3490    2.5732    0.0000 H   0  0  0  0  0  0  0  0  0  0  0  0
    2.9579    1.8773    0.0000 H   0  0  0  0  0  0  0  0  0  0  0  0
    5.0052   -0.5857    0.0000 H   0  0  0  0  0  0  0  0  0  0  0  0
    5.8521   -0.3587    0.0000 H   0  0  0  0  0  0  0  0  0  0  0  0
    5.6252    0.4882    0.0000 H   0  0  0  0  0  0  0  0  0  0  0  0
    6.0984    1.5662    0.0000 H   0  0  0  0  0  0  0  0  0  0  0  0
    3.7241    2.9370    0.0000 H   0  0  0  0  0  0  0  0  0  0  0  0
    5.0131   -3.6592    0.0000 H   0  0  0  0  0  0  0  0  0  0  0  0
    5.8618   -3.4388    0.0000 H   0  0  0  0  0  0  0  0  0  0  0  0
    5.6414   -2.5901    0.0000 H   0  0  0  0  0  0  0  0  0  0  0  0
    2.0000   -2.0398    0.0000 H   0  0  0  0  0  0  0  0  0  0  0  0
    6.7598   -0.8494    0.0000 H   0  0  0  0  0  0  0  0  0  0  0  0
    4.6428    4.5716    0.0000 H   0  0  0  0  0  0  0  0  0  0  0  0
    6.4884   -4.0968    0.0000 H   0  0  0  0  0  0  0  0  0  0  0  0
    5.7738   -3.6752    0.0000 H   0  0  0  0  0  0  0  0  0  0  0  0
    4.1156   -5.6010    0.0000 H   0  0  0  0  0  0  0  0  0  0  0  0
    7.9295    5.1819    0.0000 H   0  0  0  0  0  0  0  0  0  0  0  0
    7.5330    5.8747    0.0000 H   0  0  0  0  0  0  0  0  0  0  0  0
    5.8020    6.1646    0.0000 H   0  0  0  0  0  0  0  0  0  0  0  0
    7.0740    2.2360    0.0000 H   0  0  0  0  0  0  0  0  0  0  0  0
    6.9569    6.8601    0.0000 H   0  0  0  0  0  0  0  0  0  0  0  0
    6.3345    7.4777    0.0000 H   0  0  0  0  0  0  0  0  0  0  0  0
    5.7169    6.8554    0.0000 H   0  0  0  0  0  0  0  0  0  0  0  0
    8.1811    2.3603    0.0000 H   0  0  0  0  0  0  0  0  0  0  0  0
    8.9429    2.6890    0.0000 H   0  0  0  0  0  0  0  0  0  0  0  0
    9.5068    3.8655    0.0000 H   0  0  0  0  0  0  0  0  0  0  0  0
  1 37  1  0  0  0  0
  1 42  1  0  0  0  0
 13  2  1  1  0  0  0
  2 16  1  0  0  0  0
 15  3  1  1  0  0  0
  3 67  1  0  0  0  0
 21  4  1  6  0  0  0
  4 68  1  0  0  0  0
  5 29  1  0  0  0  0
  5 33  1  0  0  0  0
  6 30  1  0  0  0  0
  6 34  1  0  0  0  0
  7 25  2  0  0  0  0
  8 34  1  0  0  0  0
  8 40  1  0  0  0  0
  9 35  1  0  0  0  0
  9 39  1  0  0  0  0
 33 10  1  1  0  0  0
 10 76  1  0  0  0  0
 11 39  2  0  0  0  0
 12 37  1  0  0  0  0
 12 43  2  0  0  0  0
 13 14  1  0  0  0  0
 13 15  1  0  0  0  0
 13 16  1  0  0  0  0
 14 17  1  0  0  0  0
 14 21  1  0  0  0  0
 14 44  1  6  0  0  0
 15 18  1  0  0  0  0
 15 22  1  0  0  0  0
 16 20  1  0  0  0  0
 16 45  1  6  0  0  0
 17 19  1  0  0  0  0
 17 24  1  0  0  0  0
 17 28  1  1  0  0  0
 18 23  1  0  0  0  0
 18 25  1  0  0  0  0
 18 31  1  1  0  0  0
 19 20  1  0  0  0  0
 19 27  1  0  0  0  0
 19 46  1  6  0  0  0
 20 47  1  0  0  0  0
 20 48  1  0  0  0  0
 21 25  1  0  0  0  0
 21 49  1  0  0  0  0
 22 26  1  0  0  0  0
 22 50  1  0  0  0  0
 22 51  1  0  0  0  0
 23 26  1  0  0  0  0
 23 32  1  1  0  0  0
 23 52  1  0  0  0  0
 24 29  1  0  0  0  0
 24 53  1  0  0  0  0
 24 54  1  0  0  0  0
 26 55  1  0  0  0  0
 26 56  1  0  0  0  0
 27 30  1  0  0  0  0
 27 57  1  0  0  0  0
 27 58  1  0  0  0  0
 28 59  1  0  0  0  0
 28 60  1  0  0  0  0
 28 61  1  0  0  0  0
 29 30  1  0  0  0  0
 29 62  1  1  0  0  0
 30 63  1  6  0  0  0
 31 64  1  0  0  0  0
 31 65  1  0  0  0  0
 31 66  1  0  0  0  0
 32 35  1  0  0  0  0
 32 36  2  0  0  0  0
 33 34  1  0  0  0  0
 33 37  1  0  0  0  0
 34 69  1  1  0  0  0
 35 70  1  0  0  0  0
 35 71  1  0  0  0  0
 36 39  1  0  0  0  0
 36 72  1  0  0  0  0
 37 38  1  0  0  0  0
 38 40  1  0  0  0  0
 38 73  1  0  0  0  0
 38 74  1  0  0  0  0
 40 41  1  6  0  0  0
 40 75  1  0  0  0  0
 41 77  1  0  0  0  0
 41 78  1  0  0  0  0
 41 79  1  0  0  0  0
 42 43  1  0  0  0  0
 42 80  1  0  0  0  0
 42 81  1  0  0  0  0
 43 82  1  0  0  0  0
M  END
> <PUBCHEM_COMPOUND_CID>
441862

> <PUBCHEM_COMPOUND_CANONICALIZED>
1

> <PUBCHEM_CACTVS_COMPLEXITY>
1390

> <PUBCHEM_CACTVS_HBOND_ACCEPTOR>
12

> <PUBCHEM_CACTVS_HBOND_DONOR>
3

> <PUBCHEM_CACTVS_ROTATABLE_BOND>
1

> <PUBCHEM_CACTVS_SUBSKEYS>
AAADcfB6PABAAAAAAAAAAAAAEgAAAYIEAAA0aMECBIAAAGDQAAAAHgQACAAAD1z1wAeCCAIABgioArDzDAIAAABgABAACAFQAEgTFBYgoQAjUAAHoAAvIQPK7PzPgAAAAAAAAADCAAYQADCAAYAADAAAAA==

> <PUBCHEM_IUPAC_INCHI>
InChI=1S/C31H39NO10S/c1-14-11-29(32-6-7-43-29)31(37)25(39-14)40-18-9-16-10-20-30(42-20)23(26(16,2)12-19(18)41-31)22(34)24(35)27(3)17(4-5-28(27,30)36)15-8-21(33)38-13-15/h6,8,14,16-20,22-23,25,34,36-37H,4-5,7,9-13H2,1-3H3/t14-,16-,17-,18-,19-,20+,22+,23-,25+,26+,27+,28-,29?,30+,31-/m1/s1

> <PUBCHEM_IUPAC_INCHIKEY>
BGKAKFOJZRBENJ-YWBLJHEQSA-N

> <PUBCHEM_XLOGP3_AA>
-0.5

> <PUBCHEM_EXACT_MASS>
617.229467

> <PUBCHEM_MOLECULAR_FORMULA>
C31H39NO10S

> <PUBCHEM_MOLECULAR_WEIGHT>
617.70706

> <PUBCHEM_OPENEYE_CAN_SMILES>
CC1CC2(C3(C(O1)OC4CC5CC6C7(O6)C(C5(CC4O3)C)C(C(=O)C8(C7(CCC8C9=CC(=O)OC9)O)C)O)O)N=CCS2

> <PUBCHEM_OPENEYE_ISO_SMILES>
C[C@@H]1CC2([C@]3([C@@H](O1)O[C@@H]4C[C@@H]5C[C@H]6[C@]7(O6)[C@@H]([C@]5(C[C@H]4O3)C)[C@@H](C(=O)[C@]8([C@@]7(CC[C@@H]8C9=CC(=O)OC9)O)C)O)O)N=CCS2

> <PUBCHEM_CACTVS_TPSA>
182

> <PUBCHEM_MONOISOTOPIC_WEIGHT>
617.229467

> <PUBCHEM_TOTAL_CHARGE>
0

> <PUBCHEM_HEAVY_ATOM_COUNT>
43

> <PUBCHEM_ATOM_DEF_STEREO_COUNT>
14

> <PUBCHEM_ATOM_UDEF_STEREO_COUNT>
1

> <PUBCHEM_BOND_DEF_STEREO_COUNT>
0

> <PUBCHEM_BOND_UDEF_STEREO_COUNT>
0

> <PUBCHEM_ISOTOPIC_ATOM_COUNT>
0

> <PUBCHEM_COMPONENT_COUNT>
1

> <PUBCHEM_CACTVS_TAUTO_COUNT>
4

> <PUBCHEM_COORDINATE_TYPE>
1
5
255

> <PUBCHEM_BONDANNOTATIONS>
33  10  5
14  44  6
16  45  6
17  28  5
18  31  5
19  46  6
13  2  5
23  32  5
29  62  5
15  3  5
30  63  6
34  69  5
37  38  3
21  4  6
40  41  6

$$$$

