   Chemical and Physical Properties References

   [1]USDA ARS - USDA chemical properties
   from [2]ChemIDplus

   Color/Form
        White, crystalline solid
   from [3]HSDB

   Odor
        Odorless
   from [4]HSDB

   Boiling Point
        Decomposes @ 180-190 deg C
   from [5]HSDB

   Melting Point
        158-159 deg C
   from [6]HSDB

   Corrosivity
        Non-corrosive
   from [7]HSDB

   Octanol/Water Partition Coefficient
        log Kow= 2.68
   from [8]HSDB

   Solubilities

     * Very low in hydrocarbon solvents
     * 53 g/kg in acetone @ 27 deg C
     * 1200 ppm sol in benzene @ 27 deg C; 1400 ppm sol in butyl stearate
       @ 27 deg C; 900 ppm sol in cottonseed oil (refined) @ 27 deg C
     * In water, 36.4 mg/l @ 25 deg C

   from [9]HSDB

   Spectral Properties

     * Intense mass spectral peaks: 72 m/z (100%), 232 m/z (38%), 234 m/z
       (26%), 44 m/z (26%)
     * Intense mass spectral peaks: 59 m/z, 124 m/z, 174 m/z, 187 m/z, 219
       m/z

   from [10]HSDB

   Vapor Pressure
        6.9X10-8 mm Hg @ 25 deg C
   from [11]HSDB

   Other Chemical/Physical Properties
        Hydrolyzed by acids and alkalis; decomposes at 180-190 deg C
   from [12]HSDB

   Computed Properties
   Molecular Weight                  233.0945 [g/mol]
   Molecular Formula                 C[9]H[10]Cl[2]N[2]O
   XLogP3                            2.7
   H-Bond Donor                      1
   H-Bond Acceptor                   1
   Rotatable Bond Count              1
   Tautomer Count                    2
   Exact Mass                        232.017018
   MonoIsotopic Mass                 232.017018
   Topological Polar Surface Area    32.3
   Heavy Atom Count                  14
   Formal Charge                     0
   Complexity                        211
   Isotope Atom Count                0
   Defined Atom Stereocenter Count   0
   Undefined Atom Stereocenter Count 0
   Defined Bond Stereocenter Count   0
   Undefined Bond Stereocenter Count 0
   Covalently-Bonded Unit Count      1
   Feature 3D Acceptor Count         1
   Feature 3D Donor Count            1
   Feature 3D Ring Count             1
   Effective Rotor Count             3
   Conformer Sampling RMSD           0.6
   CID Conformer Count               [13]10

References

   1. http://www.ars.usda.gov/SP2UserFiles/ad_hoc/12755100DatabaseFiles/PesticidePropertiesDatabase/IndividualPesticideFiles/DIURON.TXT
   2. http://chem.sis.nlm.nih.gov/chemidplus/
   3. http://toxnet.nlm.nih.gov/cgi-bin/sis/search/r?dbs+hsdb:@term+@rn+@rel+330-54-1
   4. http://toxnet.nlm.nih.gov/cgi-bin/sis/search/r?dbs+hsdb:@term+@rn+@rel+330-54-1
   5. http://toxnet.nlm.nih.gov/cgi-bin/sis/search/r?dbs+hsdb:@term+@rn+@rel+330-54-1
   6. http://toxnet.nlm.nih.gov/cgi-bin/sis/search/r?dbs+hsdb:@term+@rn+@rel+330-54-1
   7. http://toxnet.nlm.nih.gov/cgi-bin/sis/search/r?dbs+hsdb:@term+@rn+@rel+330-54-1
   8. http://toxnet.nlm.nih.gov/cgi-bin/sis/search/r?dbs+hsdb:@term+@rn+@rel+330-54-1
   9. http://toxnet.nlm.nih.gov/cgi-bin/sis/search/r?dbs+hsdb:@term+@rn+@rel+330-54-1
  10. http://toxnet.nlm.nih.gov/cgi-bin/sis/search/r?dbs+hsdb:@term+@rn+@rel+330-54-1
  11. http://toxnet.nlm.nih.gov/cgi-bin/sis/search/r?dbs+hsdb:@term+@rn+@rel+330-54-1
  12. http://toxnet.nlm.nih.gov/cgi-bin/sis/search/r?dbs+hsdb:@term+@rn+@rel+330-54-1
  13. http://pubchem.ncbi.nlm.nih.gov/vw3d/vw3d.cgi?cid=3120
