   Color/Form

     * Colorless crystals
     * Crystals from ether

   from [1]HSDB

   Odor
        Mercaptan-like odor
   from [2]HSDB

   Boiling Point
        Decomposes on heating without boiling
   from [3]HSDB

   Melting Point
        44.9 deg C
   from [4]HSDB

   Corrosivity
        Slightly corrosive to mild steel and copper-containing alloys.
   from [5]HSDB

   Density/Specific Gravity
        1.27 g/cu cm at 20 deg C
   from [6]HSDB

   Octanol/Water Partition Coefficient
        log Kow = -0.8 @ 20 deg C
   from [7]HSDB

   Solubilities

     * Soluble in aliphatic chlorinated hydrocarbons, alcohols; slightly
       soluble in ether.
     * Solubility (g/l) at 20 deg C in: isopropanol: >200;
       dichloromethane: >200; hexane: 0.1-1; toluene: 2-5
     * Readily sol in n-hexane, dichloromethane, 2-propanol, toluene
     * Miscible in water [Shiu WY et al; Rev Environ Contam TOxicol 116:
       15-187 (1990)] [8]PubMed Abstract

   from [9]HSDB

   Spectral Properties

     * Index of refraction: 1.5092 @ 40 deg C/D
     * Intense mass spectral peaks: 94 m/z (100%), 95 m/z (62%), 141 m/z
       (50%), 64 m/z (24%)

   from [10]HSDB

   Vapor Pressure
        4.7 mPa (3.5X10-5 mm Hg) at 25 deg C
   from [11]HSDB

   Other Chemical/Physical Properties

     * MP: 20-25 deg C /Technical/
     * CORROSIVE TO MILD STEEL AND COPPER CONTAINING ALLOYS /TECHNICAL
       GRADE/
     * PUNGENT ODOR CHARACTERISTIC OF ORGANOPHOSPHORUS CMPD /TECHNICAL
       GRADE/
     * Melting point: 39-41 deg C.
     * Methamidophos is a racemic mixture of 2 stereoisomers: dextrorotary
       D (+) and levorotary L (-). This racemic mixture, Methamidophos
       (+/-), can be separated into the individual isomers (enantiomers):
       Methamidophos (+) and Methamidophos (-).

   from [12]HSDB

   Computed Properties
   Molecular Weight                  141.129182 [g/mol]
   Molecular Formula                 C[2]H[8]NO[2]PS
   XLogP3-AA                         -0.9
   H-Bond Donor                      1
   H-Bond Acceptor                   4
   Rotatable Bond Count              2
   Tautomer Count                    2
   Exact Mass                        141.001336
   MonoIsotopic Mass                 141.001336
   Topological Polar Surface Area    77.6
   Heavy Atom Count                  7
   Formal Charge                     0
   Complexity                        95.7
   Isotope Atom Count                0
   Defined Atom Stereocenter Count   0
   Undefined Atom Stereocenter Count 1
   Defined Bond Stereocenter Count   0
   Undefined Bond Stereocenter Count 0
   Covalently-Bonded Unit Count      1
   Effective Rotor Count             2
   Conformer Sampling RMSD           0.4
   CID Conformer Count               [13]9

References

   1. http://toxnet.nlm.nih.gov/cgi-bin/sis/search/r?dbs+hsdb:@term+@rn+@rel+10265-92-6
   2. http://toxnet.nlm.nih.gov/cgi-bin/sis/search/r?dbs+hsdb:@term+@rn+@rel+10265-92-6
   3. http://toxnet.nlm.nih.gov/cgi-bin/sis/search/r?dbs+hsdb:@term+@rn+@rel+10265-92-6
   4. http://toxnet.nlm.nih.gov/cgi-bin/sis/search/r?dbs+hsdb:@term+@rn+@rel+10265-92-6
   5. http://toxnet.nlm.nih.gov/cgi-bin/sis/search/r?dbs+hsdb:@term+@rn+@rel+10265-92-6
   6. http://toxnet.nlm.nih.gov/cgi-bin/sis/search/r?dbs+hsdb:@term+@rn+@rel+10265-92-6
   7. http://toxnet.nlm.nih.gov/cgi-bin/sis/search/r?dbs+hsdb:@term+@rn+@rel+10265-92-6
   8. http://www.ncbi.nlm.nih.gov/entrez/query.fcgi?cmd=Retrieve&db=pubmed&dopt=Abstract&list_uids=2205893
   9. http://toxnet.nlm.nih.gov/cgi-bin/sis/search/r?dbs+hsdb:@term+@rn+@rel+10265-92-6
  10. http://toxnet.nlm.nih.gov/cgi-bin/sis/search/r?dbs+hsdb:@term+@rn+@rel+10265-92-6
  11. http://toxnet.nlm.nih.gov/cgi-bin/sis/search/r?dbs+hsdb:@term+@rn+@rel+10265-92-6
  12. http://toxnet.nlm.nih.gov/cgi-bin/sis/search/r?dbs+hsdb:@term+@rn+@rel+10265-92-6
  13. http://pubchem.ncbi.nlm.nih.gov/vw3d/vw3d.cgi?cid=4096
