47205659
  -OEChem-06241222592D

 32 33  0     0  0  0  0  0  0999 V2000
    4.5981   -4.1830    0.0000 F   0  0  0  0  0  0  0  0  0  0  0  0
    5.4641    3.3170    0.0000 O   0  0  0  0  0  0  0  0  0  0  0  0
    6.3301   -0.1830    0.0000 O   0  0  0  0  0  0  0  0  0  0  0  0
    2.0000   -2.6830    0.0000 O   0  5  0  0  0  0  0  0  0  0  0  0
    2.8660   -4.1830    0.0000 O   0  0  0  0  0  0  0  0  0  0  0  0
    6.3301    1.8170    0.0000 N   0  0  0  0  0  0  0  0  0  0  0  0
    4.5981   -0.1830    0.0000 N   0  0  0  0  0  0  0  0  0  0  0  0
    2.8660   -3.1830    0.0000 N   0  3  0  0  0  0  0  0  0  0  0  0
    7.1962    3.3170    0.0000 C   0  0  0  0  0  0  0  0  0  0  0  0
    8.1962    3.3170    0.0000 C   0  0  0  0  0  0  0  0  0  0  0  0
    7.6962    4.1830    0.0000 C   0  0  0  0  0  0  0  0  0  0  0  0
    6.3301    2.8170    0.0000 C   0  0  0  0  0  0  0  0  0  0  0  0
    5.4641    1.3170    0.0000 C   0  0  0  0  0  0  0  0  0  0  0  0
    5.4641    0.3170    0.0000 C   0  0  0  0  0  0  0  0  0  0  0  0
    4.5981   -1.1830    0.0000 C   0  0  0  0  0  0  0  0  0  0  0  0
    3.7320   -1.6830    0.0000 C   0  0  0  0  0  0  0  0  0  0  0  0
    5.4641   -1.6830    0.0000 C   0  0  0  0  0  0  0  0  0  0  0  0
    3.7320   -2.6830    0.0000 C   0  0  0  0  0  0  0  0  0  0  0  0
    5.4641   -2.6830    0.0000 C   0  0  0  0  0  0  0  0  0  0  0  0
    4.5981   -3.1830    0.0000 C   0  0  0  0  0  0  0  0  0  0  0  0
    6.7578    3.7554    0.0000 H   0  0  0  0  0  0  0  0  0  0  0  0
    8.3038    2.7064    0.0000 H   0  0  0  0  0  0  0  0  0  0  0  0
    8.7788    3.5290    0.0000 H   0  0  0  0  0  0  0  0  0  0  0  0
    8.1711    4.5815    0.0000 H   0  0  0  0  0  0  0  0  0  0  0  0
    7.2212    4.5815    0.0000 H   0  0  0  0  0  0  0  0  0  0  0  0
    6.8671    1.5070    0.0000 H   0  0  0  0  0  0  0  0  0  0  0  0
    5.2520    1.8996    0.0000 H   0  0  0  0  0  0  0  0  0  0  0  0
    4.8535    1.2093    0.0000 H   0  0  0  0  0  0  0  0  0  0  0  0
    4.0611    0.1270    0.0000 H   0  0  0  0  0  0  0  0  0  0  0  0
    3.1951   -1.3730    0.0000 H   0  0  0  0  0  0  0  0  0  0  0  0
    6.0010   -1.3730    0.0000 H   0  0  0  0  0  0  0  0  0  0  0  0
    6.0010   -2.9930    0.0000 H   0  0  0  0  0  0  0  0  0  0  0  0
  1 20  1  0  0  0  0
  2 12  2  0  0  0  0
  3 14  2  0  0  0  0
  4  8  1  0  0  0  0
  5  8  2  0  0  0  0
  6 12  1  0  0  0  0
  6 13  1  0  0  0  0
  6 26  1  0  0  0  0
  7 14  1  0  0  0  0
  7 15  1  0  0  0  0
  7 29  1  0  0  0  0
  8 18  1  0  0  0  0
  9 10  1  0  0  0  0
  9 11  1  0  0  0  0
  9 12  1  0  0  0  0
  9 21  1  0  0  0  0
 10 11  1  0  0  0  0
 10 22  1  0  0  0  0
 10 23  1  0  0  0  0
 11 24  1  0  0  0  0
 11 25  1  0  0  0  0
 13 14  1  0  0  0  0
 13 27  1  0  0  0  0
 13 28  1  0  0  0  0
 15 16  2  0  0  0  0
 15 17  1  0  0  0  0
 16 18  1  0  0  0  0
 16 30  1  0  0  0  0
 17 19  2  0  0  0  0
 17 31  1  0  0  0  0
 18 20  2  0  0  0  0
 19 20  1  0  0  0  0
 19 32  1  0  0  0  0
M  CHG  2   4  -1   8   1
M  END
> <PUBCHEM_COMPOUND_CID>
47205659

> <PUBCHEM_COMPOUND_CANONICALIZED>
1

> <PUBCHEM_CACTVS_COMPLEXITY>
408

> <PUBCHEM_CACTVS_HBOND_ACCEPTOR>
5

> <PUBCHEM_CACTVS_HBOND_DONOR>
2

> <PUBCHEM_CACTVS_ROTATABLE_BOND>
4

> <PUBCHEM_CACTVS_SUBSKEYS>
AAADccBzOQAAAAAAAAAAAAAAGAAAAAAAAAAwAAAAAAAAAAABAAAAHwAUAAAADQjBkAwwwILQQACJACVSUwCCAAAhAgAoiIGIZIoIYDLA0fGUIAhglgDIyAcQAAAAAAAAAAQAAAAAAAAACAAAAAAAAAAAAA==

> <PUBCHEM_IUPAC_OPENEYE_NAME>
N-[2-(4-fluoro-3-nitro-anilino)-2-oxo-ethyl]cyclopropanecarboxamide

> <PUBCHEM_IUPAC_CAS_NAME>
N-[2-(4-fluoro-3-nitroanilino)-2-oxoethyl]cyclopropanecarboxamide

> <PUBCHEM_IUPAC_NAME>
N-[2-(4-fluoro-3-nitroanilino)-2-oxoethyl]cyclopropanecarboxamide

> <PUBCHEM_IUPAC_SYSTEMATIC_NAME>
N-[2-[(4-fluoranyl-3-nitro-phenyl)amino]-2-oxidanylidene-ethyl]cyclopropanecarboxamide

> <PUBCHEM_IUPAC_TRADITIONAL_NAME>
N-[2-(4-fluoro-3-nitro-anilino)-2-keto-ethyl]cyclopropanecarboxamide

> <PUBCHEM_IUPAC_INCHI>
InChI=1S/C12H12FN3O4/c13-9-4-3-8(5-10(9)16(19)20)15-11(17)6-14-12(18)7-1-2-7/h3-5,7H,1-2,6H2,(H,14,18)(H,15,17)

> <PUBCHEM_IUPAC_INCHIKEY>
HORZIHGQRVQRFY-UHFFFAOYSA-N

> <PUBCHEM_XLOGP3_AA>
0.8

> <PUBCHEM_EXACT_MASS>
281.081184

> <PUBCHEM_MOLECULAR_FORMULA>
C12H12FN3O4

> <PUBCHEM_MOLECULAR_WEIGHT>
281.239783

> <PUBCHEM_OPENEYE_CAN_SMILES>
C1CC1C(=O)NCC(=O)NC2=CC(=C(C=C2)F)[N+](=O)[O-]

> <PUBCHEM_OPENEYE_ISO_SMILES>
C1CC1C(=O)NCC(=O)NC2=CC(=C(C=C2)F)[N+](=O)[O-]

> <PUBCHEM_CACTVS_TPSA>
104

> <PUBCHEM_MONOISOTOPIC_WEIGHT>
281.081184

> <PUBCHEM_TOTAL_CHARGE>
0

> <PUBCHEM_HEAVY_ATOM_COUNT>
20

> <PUBCHEM_ATOM_DEF_STEREO_COUNT>
0

> <PUBCHEM_ATOM_UDEF_STEREO_COUNT>
0

> <PUBCHEM_BOND_DEF_STEREO_COUNT>
0

> <PUBCHEM_BOND_UDEF_STEREO_COUNT>
0

> <PUBCHEM_ISOTOPIC_ATOM_COUNT>
0

> <PUBCHEM_COMPONENT_COUNT>
1

> <PUBCHEM_CACTVS_TAUTO_COUNT>
6

> <PUBCHEM_COORDINATE_TYPE>
1
5
255

> <PUBCHEM_BONDANNOTATIONS>
15  16  8
15  17  8
16  18  8
17  19  8
18  20  8
19  20  8

$$$$

