5976
  -OEChem-07051213132D

 12 11  0     0  0  0  0  0  0999 V2000
    2.8660   -0.0600    0.0000 N   0  0  0  0  0  0  0  0  0  0  0  0
    3.7320    0.4400    0.0000 N   0  0  0  0  0  0  0  0  0  0  0  0
    2.0000    0.4400    0.0000 C   0  0  0  0  0  0  0  0  0  0  0  0
    2.8660   -1.0600    0.0000 C   0  0  0  0  0  0  0  0  0  0  0  0
    2.3100    0.9769    0.0000 H   0  0  0  0  0  0  0  0  0  0  0  0
    1.4631    0.7500    0.0000 H   0  0  0  0  0  0  0  0  0  0  0  0
    1.6900   -0.0969    0.0000 H   0  0  0  0  0  0  0  0  0  0  0  0
    2.2460   -1.0600    0.0000 H   0  0  0  0  0  0  0  0  0  0  0  0
    2.8660   -1.6800    0.0000 H   0  0  0  0  0  0  0  0  0  0  0  0
    3.4860   -1.0600    0.0000 H   0  0  0  0  0  0  0  0  0  0  0  0
    4.2690    0.1300    0.0000 H   0  0  0  0  0  0  0  0  0  0  0  0
    3.7320    1.0600    0.0000 H   0  0  0  0  0  0  0  0  0  0  0  0
  1  2  1  0  0  0  0
  1  3  1  0  0  0  0
  1  4  1  0  0  0  0
  2 11  1  0  0  0  0
  2 12  1  0  0  0  0
  3  5  1  0  0  0  0
  3  6  1  0  0  0  0
  3  7  1  0  0  0  0
  4  8  1  0  0  0  0
  4  9  1  0  0  0  0
  4 10  1  0  0  0  0
M  END
> <PUBCHEM_COMPOUND_CID>
5976

> <PUBCHEM_COMPOUND_CANONICALIZED>
1

> <PUBCHEM_CACTVS_COMPLEXITY>
11.5

> <PUBCHEM_CACTVS_HBOND_ACCEPTOR>
2

> <PUBCHEM_CACTVS_HBOND_DONOR>
1

> <PUBCHEM_CACTVS_ROTATABLE_BOND>
0

> <PUBCHEM_CACTVS_SUBSKEYS>
AAADccBDAAAAAAAAAAAAAAAAAAAAAAAAAAAAAAAAAAAAAAAAAAAAFAAYAAAAAAAAAAQCAAICAAAAAAAAAAAAAAAAAAAAIAAIAAAAAAAAAAAAAAAAAAAAAAAAAAAAAAAAAAAAAAAAAAAAAAAAAAAAAAAAAA==

> <PUBCHEM_IUPAC_OPENEYE_NAME>
1,1-dimethylhydrazine

> <PUBCHEM_IUPAC_CAS_NAME>
1,1-dimethylhydrazine

> <PUBCHEM_IUPAC_NAME>
1,1-dimethylhydrazine

> <PUBCHEM_IUPAC_SYSTEMATIC_NAME>
1,1-dimethyldiazane

> <PUBCHEM_IUPAC_TRADITIONAL_NAME>
1,1-dimethylhydrazine

> <PUBCHEM_IUPAC_INCHI>
InChI=1S/C2H8N2/c1-4(2)3/h3H2,1-2H3

> <PUBCHEM_IUPAC_INCHIKEY>
RHUYHJGZWVXEHW-UHFFFAOYSA-N

> <PUBCHEM_XLOGP3_AA>
-0.5

> <PUBCHEM_EXACT_MASS>
60.068748

> <PUBCHEM_MOLECULAR_FORMULA>
C2H8N2

> <PUBCHEM_MOLECULAR_WEIGHT>
60.09832

> <PUBCHEM_OPENEYE_CAN_SMILES>
CN(C)N

> <PUBCHEM_OPENEYE_ISO_SMILES>
CN(C)N

> <PUBCHEM_CACTVS_TPSA>
29.3

> <PUBCHEM_MONOISOTOPIC_WEIGHT>
60.068748

> <PUBCHEM_TOTAL_CHARGE>
0

> <PUBCHEM_HEAVY_ATOM_COUNT>
4

> <PUBCHEM_ATOM_DEF_STEREO_COUNT>
0

> <PUBCHEM_ATOM_UDEF_STEREO_COUNT>
0

> <PUBCHEM_BOND_DEF_STEREO_COUNT>
0

> <PUBCHEM_BOND_UDEF_STEREO_COUNT>
0

> <PUBCHEM_ISOTOPIC_ATOM_COUNT>
0

> <PUBCHEM_COMPONENT_COUNT>
1

> <PUBCHEM_CACTVS_TAUTO_COUNT>
1

> <PUBCHEM_COORDINATE_TYPE>
1
5
255

$$$$

