11954205
  -OEChem-07051213072D

 79 82  0     1  0  0  0  0  0999 V2000
    7.9622   -4.1244    0.0000 S   0  0  0  0  0  0  0  0  0  0  0  0
    7.9506   -3.1244    0.0000 O   0  0  0  0  0  0  0  0  0  0  0  0
    2.5357   -3.1453    0.0000 O   0  0  0  0  0  0  0  0  0  0  0  0
    7.9737   -5.1243    0.0000 O   0  0  0  0  0  0  0  0  0  0  0  0
    8.9621   -4.1128    0.0000 O   0  0  0  0  0  0  0  0  0  0  0  0
    6.9622   -4.1359    0.0000 O   0  0  0  0  0  0  0  0  0  0  0  0
   12.1212    1.7810    0.0000 O   0  0  0  0  0  0  0  0  0  0  0  0
   14.0317    4.8387    0.0000 O   0  0  0  0  0  0  0  0  0  0  0  0
   12.3854    5.3768    0.0000 O   0  0  0  0  0  0  0  0  0  0  0  0
   11.7640    3.4758    0.0000 N   0  0  0  0  0  0  0  0  0  0  0  0
    7.9288   -1.0930    0.0000 C   0  0  1  0  0  0  0  0  0  0  0  0
    7.0628   -1.5930    0.0000 C   0  0  1  0  0  0  0  0  0  0  0  0
    7.9288   -0.0930    0.0000 C   0  0  1  0  0  0  0  0  0  0  0  0
    6.1968   -1.0930    0.0000 C   0  0  1  0  0  0  0  0  0  0  0  0
    5.2868   -1.5998    0.0000 C   0  0  2  0  0  0  0  0  0  0  0  0
    8.8750    0.2118    0.0000 C   0  0  2  0  0  0  0  0  0  0  0  0
    5.2787   -2.6414    0.0000 C   0  0  2  0  0  0  0  0  0  0  0  0
    7.0628    0.4070    0.0000 C   0  0  0  0  0  0  0  0  0  0  0  0
    6.1968   -0.0930    0.0000 C   0  0  0  0  0  0  0  0  0  0  0  0
    7.0789   -2.6345    0.0000 C   0  0  1  0  0  0  0  0  0  0  0  0
    8.8750   -1.3977    0.0000 C   0  0  0  0  0  0  0  0  0  0  0  0
    9.4586   -0.5930    0.0000 C   0  0  0  0  0  0  0  0  0  0  0  0
    6.1808   -3.1622    0.0000 C   0  0  0  0  0  0  0  0  0  0  0  0
    4.3599   -1.0357    0.0000 C   0  0  0  0  0  0  0  0  0  0  0  0
    7.9288    0.9070    0.0000 C   0  0  0  0  0  0  0  0  0  0  0  0
    9.1857    1.1623    0.0000 C   0  0  1  0  0  0  0  0  0  0  0  0
    4.3433   -3.1911    0.0000 C   0  0  0  0  0  0  0  0  0  0  0  0
    5.2945   -0.5998    0.0000 C   0  0  0  0  0  0  0  0  0  0  0  0
    3.4120   -1.5637    0.0000 C   0  0  0  0  0  0  0  0  0  0  0  0
    3.4037   -2.6486    0.0000 C   0  0  1  0  0  0  0  0  0  0  0  0
   10.1642    1.3685    0.0000 C   0  0  0  0  0  0  0  0  0  0  0  0
    8.5179    1.9066    0.0000 C   0  0  0  0  0  0  0  0  0  0  0  0
   10.4749    2.3190    0.0000 C   0  0  0  0  0  0  0  0  0  0  0  0
   11.4534    2.5253    0.0000 C   0  0  0  0  0  0  0  0  0  0  0  0
   12.7425    3.6820    0.0000 C   0  0  0  0  0  0  0  0  0  0  0  0
   13.0532    4.6325    0.0000 C   0  0  0  0  0  0  0  0  0  0  0  0
    8.0188   -1.9382    0.0000 H   0  0  0  0  0  0  0  0  0  0  0  0
    7.8022   -2.0123    0.0000 H   0  0  0  0  0  0  0  0  0  0  0  0
    6.9329   -0.6680    0.0000 H   0  0  0  0  0  0  0  0  0  0  0  0
    9.7148    0.3437    0.0000 H   0  0  0  0  0  0  0  0  0  0  0  0
    5.2820   -3.4914    0.0000 H   0  0  0  0  0  0  0  0  0  0  0  0
    7.4613    0.8820    0.0000 H   0  0  0  0  0  0  0  0  0  0  0  0
    6.6643    0.8820    0.0000 H   0  0  0  0  0  0  0  0  0  0  0  0
    5.9847    0.4897    0.0000 H   0  0  0  0  0  0  0  0  0  0  0  0
    5.5862   -0.2006    0.0000 H   0  0  0  0  0  0  0  0  0  0  0  0
    7.6116   -2.3172    0.0000 H   0  0  0  0  0  0  0  0  0  0  0  0
    8.6240   -1.9646    0.0000 H   0  0  0  0  0  0  0  0  0  0  0  0
    9.4124   -1.7069    0.0000 H   0  0  0  0  0  0  0  0  0  0  0  0
    9.9195   -1.0077    0.0000 H   0  0  0  0  0  0  0  0  0  0  0  0
    9.9195   -0.1782    0.0000 H   0  0  0  0  0  0  0  0  0  0  0  0
    5.7835   -3.6382    0.0000 H   0  0  0  0  0  0  0  0  0  0  0  0
    6.5818   -3.6351    0.0000 H   0  0  0  0  0  0  0  0  0  0  0  0
    4.7681   -0.5691    0.0000 H   0  0  0  0  0  0  0  0  0  0  0  0
    3.9700   -0.5537    0.0000 H   0  0  0  0  0  0  0  0  0  0  0  0
    8.5488    0.9070    0.0000 H   0  0  0  0  0  0  0  0  0  0  0  0
    7.9288    1.5270    0.0000 H   0  0  0  0  0  0  0  0  0  0  0  0
    7.3088    0.9070    0.0000 H   0  0  0  0  0  0  0  0  0  0  0  0
    9.3783    1.7516    0.0000 H   0  0  0  0  0  0  0  0  0  0  0  0
    3.9460   -3.6671    0.0000 H   0  0  0  0  0  0  0  0  0  0  0  0
    4.7443   -3.6640    0.0000 H   0  0  0  0  0  0  0  0  0  0  0  0
    5.9145   -0.6046    0.0000 H   0  0  0  0  0  0  0  0  0  0  0  0
    5.2993    0.0201    0.0000 H   0  0  0  0  0  0  0  0  0  0  0  0
    4.6745   -0.5951    0.0000 H   0  0  0  0  0  0  0  0  0  0  0  0
    3.2075   -0.9784    0.0000 H   0  0  0  0  0  0  0  0  0  0  0  0
    2.8004   -1.6650    0.0000 H   0  0  0  0  0  0  0  0  0  0  0  0
    3.4025   -3.2686    0.0000 H   0  0  0  0  0  0  0  0  0  0  0  0
   10.1848    0.7489    0.0000 H   0  0  0  0  0  0  0  0  0  0  0  0
   10.7780    1.2812    0.0000 H   0  0  0  0  0  0  0  0  0  0  0  0
    8.9793    2.3207    0.0000 H   0  0  0  0  0  0  0  0  0  0  0  0
    8.1038    2.3681    0.0000 H   0  0  0  0  0  0  0  0  0  0  0  0
    8.0564    1.4925    0.0000 H   0  0  0  0  0  0  0  0  0  0  0  0
    2.0000   -2.8332    0.0000 H   0  0  0  0  0  0  0  0  0  0  0  0
   10.4543    2.9387    0.0000 H   0  0  0  0  0  0  0  0  0  0  0  0
    9.8611    2.4064    0.0000 H   0  0  0  0  0  0  0  0  0  0  0  0
    8.5142   -5.4280    0.0000 H   0  0  0  0  0  0  0  0  0  0  0  0
   11.3500    3.9372    0.0000 H   0  0  0  0  0  0  0  0  0  0  0  0
   12.7631    3.0623    0.0000 H   0  0  0  0  0  0  0  0  0  0  0  0
   13.3564    3.5946    0.0000 H   0  0  0  0  0  0  0  0  0  0  0  0
   14.2243    5.4280    0.0000 H   0  0  0  0  0  0  0  0  0  0  0  0
  1  2  1  0  0  0  0
  1  4  1  0  0  0  0
  1  5  2  0  0  0  0
  1  6  2  0  0  0  0
 20  2  1  6  0  0  0
 30  3  1  6  0  0  0
  3 72  1  0  0  0  0
  4 75  1  0  0  0  0
  7 34  2  0  0  0  0
  8 36  1  0  0  0  0
  8 79  1  0  0  0  0
  9 36  2  0  0  0  0
 10 34  1  0  0  0  0
 10 35  1  0  0  0  0
 10 76  1  0  0  0  0
 11 12  1  0  0  0  0
 11 13  1  0  0  0  0
 11 21  1  0  0  0  0
 11 37  1  6  0  0  0
 12 14  1  0  0  0  0
 12 20  1  0  0  0  0
 12 38  1  1  0  0  0
 13 16  1  0  0  0  0
 13 18  1  0  0  0  0
 13 25  1  1  0  0  0
 14 15  1  0  0  0  0
 14 19  1  0  0  0  0
 14 39  1  6  0  0  0
 15 17  1  0  0  0  0
 15 24  1  0  0  0  0
 15 28  1  1  0  0  0
 16 22  1  0  0  0  0
 16 26  1  0  0  0  0
 16 40  1  6  0  0  0
 17 23  1  0  0  0  0
 17 27  1  0  0  0  0
 17 41  1  1  0  0  0
 18 19  1  0  0  0  0
 18 42  1  0  0  0  0
 18 43  1  0  0  0  0
 19 44  1  0  0  0  0
 19 45  1  0  0  0  0
 20 23  1  0  0  0  0
 20 46  1  0  0  0  0
 21 22  1  0  0  0  0
 21 47  1  0  0  0  0
 21 48  1  0  0  0  0
 22 49  1  0  0  0  0
 22 50  1  0  0  0  0
 23 51  1  0  0  0  0
 23 52  1  0  0  0  0
 24 29  1  0  0  0  0
 24 53  1  0  0  0  0
 24 54  1  0  0  0  0
 25 55  1  0  0  0  0
 25 56  1  0  0  0  0
 25 57  1  0  0  0  0
 26 31  1  0  0  0  0
 26 32  1  6  0  0  0
 26 58  1  0  0  0  0
 27 30  1  0  0  0  0
 27 59  1  0  0  0  0
 27 60  1  0  0  0  0
 28 61  1  0  0  0  0
 28 62  1  0  0  0  0
 28 63  1  0  0  0  0
 29 30  1  0  0  0  0
 29 64  1  0  0  0  0
 29 65  1  0  0  0  0
 30 66  1  0  0  0  0
 31 33  1  0  0  0  0
 31 67  1  0  0  0  0
 31 68  1  0  0  0  0
 32 69  1  0  0  0  0
 32 70  1  0  0  0  0
 32 71  1  0  0  0  0
 33 34  1  0  0  0  0
 33 73  1  0  0  0  0
 33 74  1  0  0  0  0
 35 36  1  0  0  0  0
 35 77  1  0  0  0  0
 35 78  1  0  0  0  0
M  END
> <PUBCHEM_COMPOUND_CID>
11954205

> <PUBCHEM_COMPOUND_CANONICALIZED>
1

> <PUBCHEM_CACTVS_COMPLEXITY>
950

> <PUBCHEM_CACTVS_HBOND_ACCEPTOR>
8

> <PUBCHEM_CACTVS_HBOND_DONOR>
4

> <PUBCHEM_CACTVS_ROTATABLE_BOND>
8

> <PUBCHEM_CACTVS_SUBSKEYS>
AAADcfB6PABAAAAAAAAAAAAAAAAAAYAAAAAwYMAAAAAAAGDAAAAAHgAQCAAADxThgAYCCALAAoAIAAGQGDAAAAAAAAAAAIGIAAACEBIAgCAEQAAEFgCQAAGY6PSPgAAAAAAAAADAAAYAADAAAQAACAAAAA==

> <PUBCHEM_IUPAC_OPENEYE_NAME>
2-[[(4R)-4-[(3R,5S,7R,8R,9S,10S,13R,14S,17R)-3-hydroxy-10,13-dimethyl-7-sulfooxy-2,3,4,5,6,7,8,9,11,12,14,15,16,17-tetradecahydro-1H-cyclopenta[a]phenanthren-17-yl]pentanoyl]amino]acetic acid

> <PUBCHEM_IUPAC_CAS_NAME>
2-[[(4R)-4-[(3R,5S,7R,8R,9S,10S,13R,14S,17R)-3-hydroxy-10,13-dimethyl-7-sulfooxy-2,3,4,5,6,7,8,9,11,12,14,15,16,17-tetradecahydro-1H-cyclopenta[a]phenanthren-17-yl]-1-oxopentyl]amino]acetic acid

> <PUBCHEM_IUPAC_NAME>
2-[[(4R)-4-[(3R,5S,7R,8R,9S,10S,13R,14S,17R)-3-hydroxy-10,13-dimethyl-7-sulfooxy-2,3,4,5,6,7,8,9,11,12,14,15,16,17-tetradecahydro-1H-cyclopenta[a]phenanthren-17-yl]pentanoyl]amino]acetic acid

> <PUBCHEM_IUPAC_SYSTEMATIC_NAME>
2-[[(4R)-4-[(3R,5S,7R,8R,9S,10S,13R,14S,17R)-10,13-dimethyl-3-oxidanyl-7-sulfooxy-2,3,4,5,6,7,8,9,11,12,14,15,16,17-tetradecahydro-1H-cyclopenta[a]phenanthren-17-yl]pentanoyl]amino]ethanoic acid

> <PUBCHEM_IUPAC_TRADITIONAL_NAME>
2-[[(4R)-4-[(3R,5S,7R,8R,9S,10S,13R,14S,17R)-3-hydroxy-10,13-dimethyl-7-sulfoxy-2,3,4,5,6,7,8,9,11,12,14,15,16,17-tetradecahydro-1H-cyclopenta[a]phenanthren-17-yl]pentanoyl]amino]acetic acid

> <PUBCHEM_IUPAC_INCHI>
InChI=1S/C26H43NO8S/c1-15(4-7-22(29)27-14-23(30)31)18-5-6-19-24-20(9-11-26(18,19)3)25(2)10-8-17(28)12-16(25)13-21(24)35-36(32,33)34/h15-21,24,28H,4-14H2,1-3H3,(H,27,29)(H,30,31)(H,32,33,34)/t15-,16+,17-,18-,19+,20+,21-,24+,25+,26-/m1/s1

> <PUBCHEM_IUPAC_INCHIKEY>
GLYPHOJMMLQNJQ-GYPHWSFCSA-N

> <PUBCHEM_XLOGP3_AA>
3.9

> <PUBCHEM_EXACT_MASS>
529.270938

> <PUBCHEM_MOLECULAR_FORMULA>
C26H43NO8S

> <PUBCHEM_MOLECULAR_WEIGHT>
529.68652

> <PUBCHEM_OPENEYE_CAN_SMILES>
CC(CCC(=O)NCC(=O)O)C1CCC2C1(CCC3C2C(CC4C3(CCC(C4)O)C)OS(=O)(=O)O)C

> <PUBCHEM_OPENEYE_ISO_SMILES>
C[C@H](CCC(=O)NCC(=O)O)[C@H]1CC[C@@H]2[C@@]1(CC[C@H]3[C@H]2[C@@H](C[C@H]4[C@@]3(CC[C@H](C4)O)C)OS(=O)(=O)O)C

> <PUBCHEM_CACTVS_TPSA>
159

> <PUBCHEM_MONOISOTOPIC_WEIGHT>
529.270938

> <PUBCHEM_TOTAL_CHARGE>
0

> <PUBCHEM_HEAVY_ATOM_COUNT>
36

> <PUBCHEM_ATOM_DEF_STEREO_COUNT>
10

> <PUBCHEM_ATOM_UDEF_STEREO_COUNT>
0

> <PUBCHEM_BOND_DEF_STEREO_COUNT>
0

> <PUBCHEM_BOND_UDEF_STEREO_COUNT>
0

> <PUBCHEM_ISOTOPIC_ATOM_COUNT>
0

> <PUBCHEM_COMPONENT_COUNT>
1

> <PUBCHEM_CACTVS_TAUTO_COUNT>
2

> <PUBCHEM_COORDINATE_TYPE>
1
5
255

> <PUBCHEM_BONDANNOTATIONS>
11  37  6
12  38  5
13  25  5
14  39  6
15  28  5
16  40  6
17  41  5
20  2  6
26  32  6
30  3  6

$$$$

