238684
  -OEChem-07051213062D

 54 58  0     1  0  0  0  0  0999 V2000
    9.8462   -1.9961    0.0000 O   0  0  0  0  0  0  0  0  0  0  0  0
    2.6079    1.7806    0.0000 N   0  0  0  0  0  0  0  0  0  0  0  0
    2.0000    0.9423    0.0000 N   0  0  0  0  0  0  0  0  0  0  0  0
    8.0436   -1.1061    0.0000 C   0  0  1  0  0  0  0  0  0  0  0  0
    8.0356   -0.0645    0.0000 C   0  0  2  0  0  0  0  0  0  0  0  0
    7.1256    0.4423    0.0000 C   0  0  1  0  0  0  0  0  0  0  0  0
    6.2596   -0.0577    0.0000 C   0  0  1  0  0  0  0  0  0  0  0  0
    9.0316   -1.4159    0.0000 C   0  0  2  0  0  0  0  0  0  0  0  0
    7.1415   -1.6269    0.0000 C   0  0  0  0  0  0  0  0  0  0  0  0
    5.3935    0.4423    0.0000 C   0  0  2  0  0  0  0  0  0  0  0  0
    9.0187    0.2605    0.0000 C   0  0  0  0  0  0  0  0  0  0  0  0
    6.2435   -1.0992    0.0000 C   0  0  0  0  0  0  0  0  0  0  0  0
    9.6331   -0.5730    0.0000 C   0  0  0  0  0  0  0  0  0  0  0  0
    7.1256    1.4423    0.0000 C   0  0  0  0  0  0  0  0  0  0  0  0
    8.0513   -2.1061    0.0000 C   0  0  0  0  0  0  0  0  0  0  0  0
    5.3935    1.4423    0.0000 C   0  0  0  0  0  0  0  0  0  0  0  0
    6.2596    1.9423    0.0000 C   0  0  0  0  0  0  0  0  0  0  0  0
    4.4996   -0.0923    0.0000 C   0  0  0  0  0  0  0  0  0  0  0  0
    8.7316   -2.3699    0.0000 C   0  0  0  0  0  0  0  0  0  0  0  0
    5.3935   -0.5577    0.0000 C   0  0  0  0  0  0  0  0  0  0  0  0
    4.4996    1.9770    0.0000 C   0  0  0  0  0  0  0  0  0  0  0  0
    3.5935    0.4215    0.0000 C   0  0  0  0  0  0  0  0  0  0  0  0
    3.5935    1.4631    0.0000 C   0  0  0  0  0  0  0  0  0  0  0  0
    2.6079    0.1041    0.0000 C   0  0  0  0  0  0  0  0  0  0  0  0
    8.1157    0.7817    0.0000 H   0  0  0  0  0  0  0  0  0  0  0  0
    7.8584    0.8730    0.0000 H   0  0  0  0  0  0  0  0  0  0  0  0
    5.5202   -0.4770    0.0000 H   0  0  0  0  0  0  0  0  0  0  0  0
    6.7406   -2.0998    0.0000 H   0  0  0  0  0  0  0  0  0  0  0  0
    7.5388   -2.1029    0.0000 H   0  0  0  0  0  0  0  0  0  0  0  0
    9.5537    0.5738    0.0000 H   0  0  0  0  0  0  0  0  0  0  0  0
    8.7633    0.8254    0.0000 H   0  0  0  0  0  0  0  0  0  0  0  0
    5.6343   -0.9837    0.0000 H   0  0  0  0  0  0  0  0  0  0  0  0
    6.0255   -1.6796    0.0000 H   0  0  0  0  0  0  0  0  0  0  0  0
   10.0971   -0.9842    0.0000 H   0  0  0  0  0  0  0  0  0  0  0  0
   10.0907   -0.1548    0.0000 H   0  0  0  0  0  0  0  0  0  0  0  0
    7.7362    1.3346    0.0000 H   0  0  0  0  0  0  0  0  0  0  0  0
    7.3376    2.0249    0.0000 H   0  0  0  0  0  0  0  0  0  0  0  0
    7.4313   -2.1109    0.0000 H   0  0  0  0  0  0  0  0  0  0  0  0
    8.0561   -2.7261    0.0000 H   0  0  0  0  0  0  0  0  0  0  0  0
    8.6713   -2.1013    0.0000 H   0  0  0  0  0  0  0  0  0  0  0  0
    6.6581    2.4173    0.0000 H   0  0  0  0  0  0  0  0  0  0  0  0
    5.8610    2.4173    0.0000 H   0  0  0  0  0  0  0  0  0  0  0  0
    4.1060   -0.5714    0.0000 H   0  0  0  0  0  0  0  0  0  0  0  0
    4.9042   -0.5621    0.0000 H   0  0  0  0  0  0  0  0  0  0  0  0
    8.1402   -2.1839    0.0000 H   0  0  0  0  0  0  0  0  0  0  0  0
    8.5456   -2.9613    0.0000 H   0  0  0  0  0  0  0  0  0  0  0  0
    9.3230   -2.5559    0.0000 H   0  0  0  0  0  0  0  0  0  0  0  0
    4.7735   -0.5577    0.0000 H   0  0  0  0  0  0  0  0  0  0  0  0
    5.3935   -1.1777    0.0000 H   0  0  0  0  0  0  0  0  0  0  0  0
    6.0135   -0.5577    0.0000 H   0  0  0  0  0  0  0  0  0  0  0  0
   10.4102   -1.7386    0.0000 H   0  0  0  0  0  0  0  0  0  0  0  0
    4.5068    2.5969    0.0000 H   0  0  0  0  0  0  0  0  0  0  0  0
    2.4153   -0.4852    0.0000 H   0  0  0  0  0  0  0  0  0  0  0  0
    2.4153    2.3699    0.0000 H   0  0  0  0  0  0  0  0  0  0  0  0
  8  1  1  6  0  0  0
  1 51  1  0  0  0  0
  2  3  1  0  0  0  0
  2 23  1  0  0  0  0
  2 54  1  0  0  0  0
  3 24  2  0  0  0  0
  4  5  1  0  0  0  0
  4  8  1  0  0  0  0
  4  9  1  0  0  0  0
  4 15  1  6  0  0  0
  5  6  1  0  0  0  0
  5 11  1  0  0  0  0
  5 25  1  1  0  0  0
  6  7  1  0  0  0  0
  6 14  1  0  0  0  0
  6 26  1  6  0  0  0
  7 10  1  0  0  0  0
  7 12  1  0  0  0  0
  7 27  1  1  0  0  0
  8 13  1  0  0  0  0
  8 19  1  0  0  0  0
  9 12  1  0  0  0  0
  9 28  1  0  0  0  0
  9 29  1  0  0  0  0
 10 16  1  0  0  0  0
 10 18  1  0  0  0  0
 10 20  1  6  0  0  0
 11 13  1  0  0  0  0
 11 30  1  0  0  0  0
 11 31  1  0  0  0  0
 12 32  1  0  0  0  0
 12 33  1  0  0  0  0
 13 34  1  0  0  0  0
 13 35  1  0  0  0  0
 14 17  1  0  0  0  0
 14 36  1  0  0  0  0
 14 37  1  0  0  0  0
 15 38  1  0  0  0  0
 15 39  1  0  0  0  0
 15 40  1  0  0  0  0
 16 17  1  0  0  0  0
 16 21  2  0  0  0  0
 17 41  1  0  0  0  0
 17 42  1  0  0  0  0
 18 22  1  0  0  0  0
 18 43  1  0  0  0  0
 18 44  1  0  0  0  0
 19 45  1  0  0  0  0
 19 46  1  0  0  0  0
 19 47  1  0  0  0  0
 20 48  1  0  0  0  0
 20 49  1  0  0  0  0
 20 50  1  0  0  0  0
 21 23  1  0  0  0  0
 21 52  1  0  0  0  0
 22 23  2  0  0  0  0
 22 24  1  0  0  0  0
 24 53  1  0  0  0  0
M  END
> <PUBCHEM_COMPOUND_CID>
238684

> <PUBCHEM_COMPOUND_CANONICALIZED>
1

> <PUBCHEM_CACTVS_COMPLEXITY>
588

> <PUBCHEM_CACTVS_HBOND_ACCEPTOR>
2

> <PUBCHEM_CACTVS_HBOND_DONOR>
2

> <PUBCHEM_CACTVS_ROTATABLE_BOND>
0

> <PUBCHEM_CACTVS_SUBSKEYS>
AAADceB7IAAAAAAAAAAAAAAAAAAAAeIAAAAwYIAAAAAAAGDBgAAAHgAYCAAAD0zBngQugJBjAgCiAzRnQACSBAAggAAQuSAwRBgIIIKA0cCAxABkmAAIyAeQwPAPgAAAAAAAAACAAAQAACAAAYAADAAAAA==

> <PUBCHEM_IUPAC_INCHI>
InChI=1S/C21H30N2O/c1-19-11-13-12-22-23-18(13)10-14(19)4-5-15-16(19)6-8-20(2)17(15)7-9-21(20,3)24/h10,12,15-17,24H,4-9,11H2,1-3H3,(H,22,23)/t15-,16+,17+,19+,20+,21+/m1/s1

> <PUBCHEM_IUPAC_INCHIKEY>
OIIHTRLQCQVVQC-OBQKJFGGSA-N

> <PUBCHEM_XLOGP3_AA>
4

> <PUBCHEM_EXACT_MASS>
326.235814

> <PUBCHEM_MOLECULAR_FORMULA>
C21H30N2O

> <PUBCHEM_MOLECULAR_WEIGHT>
326.4757

> <PUBCHEM_OPENEYE_CAN_SMILES>
CC12CCC3C(C1CCC2(C)O)CCC4=CC5=C(CC34C)C=NN5

> <PUBCHEM_OPENEYE_ISO_SMILES>
C[C@]12CC[C@H]3[C@H]([C@@H]1CC[C@]2(C)O)CCC4=CC5=C(C[C@]34C)C=NN5

> <PUBCHEM_CACTVS_TPSA>
48.9

> <PUBCHEM_MONOISOTOPIC_WEIGHT>
326.235814

> <PUBCHEM_TOTAL_CHARGE>
0

> <PUBCHEM_HEAVY_ATOM_COUNT>
24

> <PUBCHEM_ATOM_DEF_STEREO_COUNT>
6

> <PUBCHEM_ATOM_UDEF_STEREO_COUNT>
0

> <PUBCHEM_BOND_DEF_STEREO_COUNT>
0

> <PUBCHEM_BOND_UDEF_STEREO_COUNT>
0

> <PUBCHEM_ISOTOPIC_ATOM_COUNT>
0

> <PUBCHEM_COMPONENT_COUNT>
1

> <PUBCHEM_CACTVS_TAUTO_COUNT>
3

> <PUBCHEM_COORDINATE_TYPE>
1
5
255

> <PUBCHEM_BONDANNOTATIONS>
8  1  6
10  20  6
2  23  8
2  3  8
22  23  8
22  24  8
3  24  8
4  15  6
5  25  5
6  26  6
7  27  5

$$$$

