   Color/Form

     * Colorless crystalline powder
     * White...solid

   from [1]HSDB

   Boiling Point
        Sublimes
   from [2]HSDB

   Melting Point
        108 deg C
   from [3]HSDB

   Octanol/Water Partition Coefficient
        log Kow= -1.05
   from [4]HSDB

   Solubilities

     * Freely sol in water, sol in acetone; sparingly sol in chloroform
     * Moderately sol in ethanol; sparingly sol in aliphatic and aromatic
       hydrocarbons

   from [5]HSDB

   Spectral Properties

     * IR: 2:389C (Aldrich Library of Infrared Spectra, Aldrich Chemical
       Co, Milwaukee, WI)
     * NMR: 3:103D (Aldrich Library of Mass Spectra, Aldrich Chemical Co,
       Milwaukee, WI)
     * IR: 3:439D (Aldrich Library of Infrared Spectra, Aldrich Chemical
       Co, Milwaukee, WI)
     * MASS: NIST 75365 (NIST/EPA/MCDC Mass Spectral Database 1990
       version)

   from [6]HSDB

   Other Chemical/Physical Properties
        Sublimes on heating
   from [7]HSDB

   Computed Properties
   Molecular Weight                  77.057663 [g/mol]
   Molecular Formula                 C[2]H[4]FNO
   XLogP3                            -1
   H-Bond Donor                      1
   H-Bond Acceptor                   2
   Rotatable Bond Count              1
   Tautomer Count                    3
   Exact Mass                        77.027692
   MonoIsotopic Mass                 77.027692
   Topological Polar Surface Area    43.1
   Heavy Atom Count                  5
   Formal Charge                     0
   Complexity                        44.9
   Isotope Atom Count                0
   Defined Atom Stereocenter Count   0
   Undefined Atom Stereocenter Count 0
   Defined Bond Stereocenter Count   0
   Undefined Bond Stereocenter Count 0
   Covalently-Bonded Unit Count      1
   Feature 3D Acceptor Count         1
   Feature 3D Donor Count            1
   Effective Rotor Count             1
   Conformer Sampling RMSD           0.4
   CID Conformer Count               [8]3

References

   1. http://toxnet.nlm.nih.gov/cgi-bin/sis/search/r?dbs+hsdb:@term+@rn+@rel+640-19-7
   2. http://toxnet.nlm.nih.gov/cgi-bin/sis/search/r?dbs+hsdb:@term+@rn+@rel+640-19-7
   3. http://toxnet.nlm.nih.gov/cgi-bin/sis/search/r?dbs+hsdb:@term+@rn+@rel+640-19-7
   4. http://toxnet.nlm.nih.gov/cgi-bin/sis/search/r?dbs+hsdb:@term+@rn+@rel+640-19-7
   5. http://toxnet.nlm.nih.gov/cgi-bin/sis/search/r?dbs+hsdb:@term+@rn+@rel+640-19-7
   6. http://toxnet.nlm.nih.gov/cgi-bin/sis/search/r?dbs+hsdb:@term+@rn+@rel+640-19-7
   7. http://toxnet.nlm.nih.gov/cgi-bin/sis/search/r?dbs+hsdb:@term+@rn+@rel+640-19-7
   8. http://pubchem.ncbi.nlm.nih.gov/vw3d/vw3d.cgi?cid=12542
