   Color/Form
        Colorless crystal
   from [1]HSDB

   Melting Point
        85-89 deg C /Technical/
   from [2]HSDB

   Density/Specific Gravity
        1.21 g/cu cm @ 20 deg C
   from [3]HSDB

   Solubilities

     * Readily soluble in polar organic solvents; slightly soluble in
       non-polar solvents; solubility (g/l @ 20 deg C): in chloroform 186,
       acetone 172, isopropanol 101, toluene 29, carbon tetrachloride 5.3,
       cyclohexane 0.9, heptane 0.1
     * In water, 209 g/l @ 20 deg C

   from [4]HSDB

   Vapor Pressure
        2.0X10-6 mm Hg @ 20 deg C /Technical/
   from [5]HSDB

   Computed Properties
   Molecular Weight                  222.26206 [g/mol]
   Molecular Formula                 C[7]H[14]N[2]O[4]S
   XLogP3-AA                         -0.1
   H-Bond Donor                      1
   H-Bond Acceptor                   5
   Rotatable Bond Count              4
   Tautomer Count                    6
   Exact Mass                        222.067428
   MonoIsotopic Mass                 222.067428
   Topological Polar Surface Area    93.2
   Heavy Atom Count                  14
   Formal Charge                     0
   Complexity                        328
   Isotope Atom Count                0
   Defined Atom Stereocenter Count   0
   Undefined Atom Stereocenter Count 1
   Defined Bond Stereocenter Count   1
   Undefined Bond Stereocenter Count 0
   Covalently-Bonded Unit Count      1
   Feature 3D Acceptor Count         4
   Feature 3D Donor Count            1
   Effective Rotor Count             5
   Conformer Sampling RMSD           0.6
   CID Conformer Count               [6]187

References

   1. http://toxnet.nlm.nih.gov/cgi-bin/sis/search/r?dbs+hsdb:@term+@rn+@rel+34681-23-7
   2. http://toxnet.nlm.nih.gov/cgi-bin/sis/search/r?dbs+hsdb:@term+@rn+@rel+34681-23-7
   3. http://toxnet.nlm.nih.gov/cgi-bin/sis/search/r?dbs+hsdb:@term+@rn+@rel+34681-23-7
   4. http://toxnet.nlm.nih.gov/cgi-bin/sis/search/r?dbs+hsdb:@term+@rn+@rel+34681-23-7
   5. http://toxnet.nlm.nih.gov/cgi-bin/sis/search/r?dbs+hsdb:@term+@rn+@rel+34681-23-7
   6. http://pubchem.ncbi.nlm.nih.gov/vw3d/vw3d.cgi?cid=9571009
