442885
  -OEChem-07051213002D

 51 54  0     1  0  0  0  0  0999 V2000
    7.2764   -0.8047    0.0000 O   0  0  0  0  0  0  0  0  0  0  0  0
    6.3301    1.5000    0.0000 O   0  0  0  0  0  0  0  0  0  0  0  0
    6.3301   -1.5000    0.0000 O   0  0  0  0  0  0  0  0  0  0  0  0
    3.7320   -1.0000    0.0000 O   0  0  0  0  0  0  0  0  0  0  0  0
   11.0270   -1.6030    0.0000 O   0  0  0  0  0  0  0  0  0  0  0  0
   11.8318   -0.2092    0.0000 O   0  0  0  0  0  0  0  0  0  0  0  0
    6.3301    0.5000    0.0000 C   0  0  2  0  0  0  0  0  0  0  0  0
    6.3301   -0.5000    0.0000 C   0  0  1  0  0  0  0  0  0  0  0  0
    7.2764    0.8047    0.0000 C   0  0  1  0  0  0  0  0  0  0  0  0
    7.8600    0.0000    0.0000 C   0  0  1  0  0  0  0  0  0  0  0  0
    5.4641   -1.0000    0.0000 C   0  0  0  0  0  0  0  0  0  0  0  0
    5.4641    1.0000    0.0000 C   0  0  0  0  0  0  0  0  0  0  0  0
    7.5870    1.7552    0.0000 C   0  0  0  0  0  0  0  0  0  0  0  0
    4.5981    0.5000    0.0000 C   0  0  0  0  0  0  0  0  0  0  0  0
    8.8600    0.0000    0.0000 C   0  0  0  0  0  0  0  0  0  0  0  0
    4.5981   -0.5000    0.0000 C   0  0  0  0  0  0  0  0  0  0  0  0
    3.7320    1.0000    0.0000 C   0  0  0  0  0  0  0  0  0  0  0  0
    9.3600   -0.8660    0.0000 C   0  0  0  0  0  0  0  0  0  0  0  0
    5.4641    2.0000    0.0000 C   0  0  0  0  0  0  0  0  0  0  0  0
    9.3600    0.8660    0.0000 C   0  0  0  0  0  0  0  0  0  0  0  0
    7.1962   -2.0000    0.0000 C   0  0  0  0  0  0  0  0  0  0  0  0
   10.3600   -0.8660    0.0000 C   0  0  0  0  0  0  0  0  0  0  0  0
   10.3600    0.8660    0.0000 C   0  0  0  0  0  0  0  0  0  0  0  0
   10.8600    0.0000    0.0000 C   0  0  0  0  0  0  0  0  0  0  0  0
    2.8660    0.5000    0.0000 C   0  0  0  0  0  0  0  0  0  0  0  0
   11.9348   -1.1979    0.0000 C   0  0  0  0  0  0  0  0  0  0  0  0
    2.0000    1.0000    0.0000 C   0  0  0  0  0  0  0  0  0  0  0  0
    6.8389    1.2441    0.0000 H   0  0  0  0  0  0  0  0  0  0  0  0
    8.1417    0.5523    0.0000 H   0  0  0  0  0  0  0  0  0  0  0  0
    5.0656   -1.4750    0.0000 H   0  0  0  0  0  0  0  0  0  0  0  0
    5.8626   -1.4750    0.0000 H   0  0  0  0  0  0  0  0  0  0  0  0
    5.4641    1.6200    0.0000 H   0  0  0  0  0  0  0  0  0  0  0  0
    8.1763    1.5626    0.0000 H   0  0  0  0  0  0  0  0  0  0  0  0
    7.7796    2.3446    0.0000 H   0  0  0  0  0  0  0  0  0  0  0  0
    6.9977    1.9479    0.0000 H   0  0  0  0  0  0  0  0  0  0  0  0
    4.1306    1.4750    0.0000 H   0  0  0  0  0  0  0  0  0  0  0  0
    3.3335    1.4750    0.0000 H   0  0  0  0  0  0  0  0  0  0  0  0
    9.0500   -1.4030    0.0000 H   0  0  0  0  0  0  0  0  0  0  0  0
    5.7741    2.5369    0.0000 H   0  0  0  0  0  0  0  0  0  0  0  0
    4.9272    2.3100    0.0000 H   0  0  0  0  0  0  0  0  0  0  0  0
    5.1541    1.4631    0.0000 H   0  0  0  0  0  0  0  0  0  0  0  0
    9.0500    1.4030    0.0000 H   0  0  0  0  0  0  0  0  0  0  0  0
    6.8862   -2.5369    0.0000 H   0  0  0  0  0  0  0  0  0  0  0  0
    7.7331   -2.3100    0.0000 H   0  0  0  0  0  0  0  0  0  0  0  0
    7.5062   -1.4631    0.0000 H   0  0  0  0  0  0  0  0  0  0  0  0
   10.6700    1.4030    0.0000 H   0  0  0  0  0  0  0  0  0  0  0  0
    2.8660   -0.1200    0.0000 H   0  0  0  0  0  0  0  0  0  0  0  0
   12.1266   -1.7875    0.0000 H   0  0  0  0  0  0  0  0  0  0  0  0
   12.5413   -1.0692    0.0000 H   0  0  0  0  0  0  0  0  0  0  0  0
    2.0000    1.6200    0.0000 H   0  0  0  0  0  0  0  0  0  0  0  0
    1.4631    0.6900    0.0000 H   0  0  0  0  0  0  0  0  0  0  0  0
  1  8  1  0  0  0  0
  1 10  1  0  0  0  0
  7  2  1  1  0  0  0
  2 19  1  0  0  0  0
  8  3  1  1  0  0  0
  3 21  1  0  0  0  0
  4 16  2  0  0  0  0
  5 22  1  0  0  0  0
  5 26  1  0  0  0  0
  6 24  1  0  0  0  0
  6 26  1  0  0  0  0
  7  8  1  0  0  0  0
  7  9  1  0  0  0  0
  7 12  1  0  0  0  0
  8 11  1  0  0  0  0
  9 10  1  0  0  0  0
  9 13  1  6  0  0  0
  9 28  1  0  0  0  0
 10 15  1  1  0  0  0
 10 29  1  0  0  0  0
 11 16  1  0  0  0  0
 11 30  1  0  0  0  0
 11 31  1  0  0  0  0
 12 14  2  0  0  0  0
 12 32  1  0  0  0  0
 13 33  1  0  0  0  0
 13 34  1  0  0  0  0
 13 35  1  0  0  0  0
 14 16  1  0  0  0  0
 14 17  1  0  0  0  0
 15 18  2  0  0  0  0
 15 20  1  0  0  0  0
 17 25  1  0  0  0  0
 17 36  1  0  0  0  0
 17 37  1  0  0  0  0
 18 22  1  0  0  0  0
 18 38  1  0  0  0  0
 19 39  1  0  0  0  0
 19 40  1  0  0  0  0
 19 41  1  0  0  0  0
 20 23  2  0  0  0  0
 20 42  1  0  0  0  0
 21 43  1  0  0  0  0
 21 44  1  0  0  0  0
 21 45  1  0  0  0  0
 22 24  2  0  0  0  0
 23 24  1  0  0  0  0
 23 46  1  0  0  0  0
 25 27  2  0  0  0  0
 25 47  1  0  0  0  0
 26 48  1  0  0  0  0
 26 49  1  0  0  0  0
 27 50  1  0  0  0  0
 27 51  1  0  0  0  0
M  END
> <PUBCHEM_COMPOUND_CID>
442885

> <PUBCHEM_COMPOUND_CANONICALIZED>
1

> <PUBCHEM_CACTVS_COMPLEXITY>
645

> <PUBCHEM_CACTVS_HBOND_ACCEPTOR>
6

> <PUBCHEM_CACTVS_HBOND_DONOR>
0

> <PUBCHEM_CACTVS_ROTATABLE_BOND>
5

> <PUBCHEM_CACTVS_SUBSKEYS>
AAADceB4OAAAAAAAAAAAAAAAAAAAASJAAAAwQAAAAAAAAEgBAAAAGgAAAAAADVSgmAMyDoAABACIAqBSAAACCAAgIAAIiAEGiMgdJjaEMRqiMCIl4BEOqYfK6PyOoAABAAAAQABAAAIAAACAAAAAAAAAAA==

> <PUBCHEM_IUPAC_OPENEYE_NAME>
(2S,3R,3aS,7aR)-5-allyl-2-(1,3-benzodioxol-5-yl)-3a,7a-dimethoxy-3-methyl-3,7-dihydro-2H-benzofuran-6-one

> <PUBCHEM_IUPAC_CAS_NAME>
(2S,3R,3aS,7aR)-2-(1,3-benzodioxol-5-yl)-3a,7a-dimethoxy-3-methyl-5-prop-2-enyl-3,7-dihydro-2H-benzofuran-6-one

> <PUBCHEM_IUPAC_NAME>
(2S,3R,3aS,7aR)-2-(1,3-benzodioxol-5-yl)-3a,7a-dimethoxy-3-methyl-5-prop-2-enyl-3,7-dihydro-2H-1-benzofuran-6-one

> <PUBCHEM_IUPAC_SYSTEMATIC_NAME>
(2S,3R,3aS,7aR)-2-(1,3-benzodioxol-5-yl)-3a,7a-dimethoxy-3-methyl-5-prop-2-enyl-3,7-dihydro-2H-1-benzofuran-6-one

> <PUBCHEM_IUPAC_TRADITIONAL_NAME>
(2S,3R,3aS,7aR)-5-allyl-2-(1,3-benzodioxol-5-yl)-3a,7a-dimethoxy-3-methyl-3,7-dihydro-2H-benzofuran-6-one

> <PUBCHEM_IUPAC_INCHI>
InChI=1S/C21H24O6/c1-5-6-15-10-20(23-3)13(2)19(27-21(20,24-4)11-16(15)22)14-7-8-17-18(9-14)26-12-25-17/h5,7-10,13,19H,1,6,11-12H2,2-4H3/t13-,19+,20+,21-/m1/s1

> <PUBCHEM_IUPAC_INCHIKEY>
YVRYZXAHRGGELT-MZNUGIIHSA-N

> <PUBCHEM_XLOGP3_AA>
2.5

> <PUBCHEM_EXACT_MASS>
372.157288

> <PUBCHEM_MOLECULAR_FORMULA>
C21H24O6

> <PUBCHEM_MOLECULAR_WEIGHT>
372.41166

> <PUBCHEM_OPENEYE_CAN_SMILES>
CC1C(OC2(C1(C=C(C(=O)C2)CC=C)OC)OC)C3=CC4=C(C=C3)OCO4

> <PUBCHEM_OPENEYE_ISO_SMILES>
C[C@@H]1[C@H](O[C@]2([C@@]1(C=C(C(=O)C2)CC=C)OC)OC)C3=CC4=C(C=C3)OCO4

> <PUBCHEM_CACTVS_TPSA>
63.2

> <PUBCHEM_MONOISOTOPIC_WEIGHT>
372.157288

> <PUBCHEM_TOTAL_CHARGE>
0

> <PUBCHEM_HEAVY_ATOM_COUNT>
27

> <PUBCHEM_ATOM_DEF_STEREO_COUNT>
4

> <PUBCHEM_ATOM_UDEF_STEREO_COUNT>
0

> <PUBCHEM_BOND_DEF_STEREO_COUNT>
0

> <PUBCHEM_BOND_UDEF_STEREO_COUNT>
0

> <PUBCHEM_ISOTOPIC_ATOM_COUNT>
0

> <PUBCHEM_COMPONENT_COUNT>
1

> <PUBCHEM_CACTVS_TAUTO_COUNT>
2

> <PUBCHEM_COORDINATE_TYPE>
1
5
255

> <PUBCHEM_BONDANNOTATIONS>
10  15  5
15  18  8
15  20  8
18  22  8
7  2  5
20  23  8
22  24  8
23  24  8
8  3  5
9  13  6

$$$$

