443814
  -OEChem-07051213032D

 58 62  0     1  0  0  0  0  0999 V2000
    6.9300    3.1643    0.0000 O   0  0  0  0  0  0  0  0  0  0  0  0
    4.3261    4.6542    0.0000 O   0  0  0  0  0  0  0  0  0  0  0  0
    6.0543    5.6609    0.0000 O   0  0  0  0  0  0  0  0  0  0  0  0
    5.7404   -5.9691    0.0000 O   0  0  0  0  0  0  0  0  0  0  0  0
    4.2999    1.6231    0.0000 O   0  0  0  0  0  0  0  0  0  0  0  0
    7.0120   -2.9538    0.0000 O   0  0  0  0  0  0  0  0  0  0  0  0
    2.5357   -3.4534    0.0000 O   0  0  0  0  0  0  0  0  0  0  0  0
    6.9198   -1.9083    0.0000 O   0  0  0  0  0  0  0  0  0  0  0  0
    3.4557    0.0917    0.0000 O   0  0  0  0  0  0  0  0  0  0  0  0
    6.0659    2.6609    0.0000 C   0  0  2  0  0  0  0  0  0  0  0  0
    5.1979    3.1576    0.0000 C   0  0  0  0  0  0  0  0  0  0  0  0
    5.1941    4.1576    0.0000 C   0  0  2  0  0  0  0  0  0  0  0  0
    6.0582    4.6609    0.0000 C   0  0  1  0  0  0  0  0  0  0  0  0
    6.9261    4.1643    0.0000 C   0  0  1  0  0  0  0  0  0  0  0  0
    5.2370   -5.1050    0.0000 C   0  0  2  0  0  0  0  0  0  0  0  0
    4.2974   -4.5625    0.0000 C   0  0  0  0  0  0  0  0  0  0  0  0
    6.0697    1.6610    0.0000 C   0  0  0  0  0  0  0  0  0  0  0  0
    4.3058   -3.4776    0.0000 C   0  0  0  0  0  0  0  0  0  0  0  0
    6.1725   -4.5553    0.0000 C   0  0  0  0  0  0  0  0  0  0  0  0
    5.2038   -2.9498    0.0000 C   0  0  0  0  0  0  0  0  0  0  0  0
    5.1877   -1.9083    0.0000 C   0  0  0  0  0  0  0  0  0  0  0  0
    6.1557   -3.4704    0.0000 C   0  0  0  0  0  0  0  0  0  0  0  0
    5.1877    0.0917    0.0000 C   0  0  0  0  0  0  0  0  0  0  0  0
    4.3217   -1.4083    0.0000 C   0  0  0  0  0  0  0  0  0  0  0  0
    5.1717    1.1332    0.0000 C   0  0  0  0  0  0  0  0  0  0  0  0
    6.0538   -0.4083    0.0000 C   0  0  0  0  0  0  0  0  0  0  0  0
    7.7902    4.6676    0.0000 C   0  0  0  0  0  0  0  0  0  0  0  0
    4.7404   -5.9730    0.0000 C   0  0  0  0  0  0  0  0  0  0  0  0
    3.4037   -2.9568    0.0000 C   0  0  0  0  0  0  0  0  0  0  0  0
    6.0538   -1.4083    0.0000 C   0  0  0  0  0  0  0  0  0  0  0  0
    6.9718    1.1401    0.0000 C   0  0  0  0  0  0  0  0  0  0  0  0
    4.3217   -0.4083    0.0000 C   0  0  0  0  0  0  0  0  0  0  0  0
    3.4117   -1.9152    0.0000 C   0  0  0  0  0  0  0  0  0  0  0  0
    6.9638    0.0985    0.0000 C   0  0  0  0  0  0  0  0  0  0  0  0
    5.3314    2.2331    0.0000 H   0  0  0  0  0  0  0  0  0  0  0  0
    4.5869    3.2629    0.0000 H   0  0  0  0  0  0  0  0  0  0  0  0
    4.9881    2.5742    0.0000 H   0  0  0  0  0  0  0  0  0  0  0  0
    5.1917    4.7776    0.0000 H   0  0  0  0  0  0  0  0  0  0  0  0
    5.5200    4.9688    0.0000 H   0  0  0  0  0  0  0  0  0  0  0  0
    7.4642    3.8563    0.0000 H   0  0  0  0  0  0  0  0  0  0  0  0
    3.6874   -4.4517    0.0000 H   0  0  0  0  0  0  0  0  0  0  0  0
    4.0838   -5.1446    0.0000 H   0  0  0  0  0  0  0  0  0  0  0  0
    6.3905   -5.1357    0.0000 H   0  0  0  0  0  0  0  0  0  0  0  0
    6.7816   -4.4398    0.0000 H   0  0  0  0  0  0  0  0  0  0  0  0
    8.1023    4.1319    0.0000 H   0  0  0  0  0  0  0  0  0  0  0  0
    8.3259    4.9797    0.0000 H   0  0  0  0  0  0  0  0  0  0  0  0
    7.4781    5.2033    0.0000 H   0  0  0  0  0  0  0  0  0  0  0  0
    4.2022   -5.6650    0.0000 H   0  0  0  0  0  0  0  0  0  0  0  0
    4.4324   -6.5111    0.0000 H   0  0  0  0  0  0  0  0  0  0  0  0
    5.2785   -6.2809    0.0000 H   0  0  0  0  0  0  0  0  0  0  0  0
    7.5099    1.4481    0.0000 H   0  0  0  0  0  0  0  0  0  0  0  0
    2.8784   -1.5990    0.0000 H   0  0  0  0  0  0  0  0  0  0  0  0
    7.4971   -0.2177    0.0000 H   0  0  0  0  0  0  0  0  0  0  0  0
    4.3237    5.2742    0.0000 H   0  0  0  0  0  0  0  0  0  0  0  0
    6.5900    5.9730    0.0000 H   0  0  0  0  0  0  0  0  0  0  0  0
    6.3604   -5.9667    0.0000 H   0  0  0  0  0  0  0  0  0  0  0  0
    3.7666    1.3070    0.0000 H   0  0  0  0  0  0  0  0  0  0  0  0
    2.0000   -3.1414    0.0000 H   0  0  0  0  0  0  0  0  0  0  0  0
  1 10  1  0  0  0  0
  1 14  1  0  0  0  0
 12  2  1  1  0  0  0
  2 54  1  0  0  0  0
 13  3  1  6  0  0  0
  3 55  1  0  0  0  0
 15  4  1  6  0  0  0
  4 56  1  0  0  0  0
  5 25  1  0  0  0  0
  5 57  1  0  0  0  0
  6 22  2  0  0  0  0
  7 29  1  0  0  0  0
  7 58  1  0  0  0  0
  8 30  2  0  0  0  0
  9 32  2  0  0  0  0
 10 11  1  0  0  0  0
 10 17  1  0  0  0  0
 10 35  1  6  0  0  0
 11 12  1  0  0  0  0
 11 36  1  0  0  0  0
 11 37  1  0  0  0  0
 12 13  1  0  0  0  0
 12 38  1  0  0  0  0
 13 14  1  0  0  0  0
 13 39  1  0  0  0  0
 14 27  1  1  0  0  0
 14 40  1  0  0  0  0
 15 16  1  0  0  0  0
 15 19  1  0  0  0  0
 15 28  1  0  0  0  0
 16 18  1  0  0  0  0
 16 41  1  0  0  0  0
 16 42  1  0  0  0  0
 17 25  2  0  0  0  0
 17 31  1  0  0  0  0
 18 20  1  0  0  0  0
 18 29  2  0  0  0  0
 19 22  1  0  0  0  0
 19 43  1  0  0  0  0
 19 44  1  0  0  0  0
 20 21  2  0  0  0  0
 20 22  1  0  0  0  0
 21 24  1  0  0  0  0
 21 30  1  0  0  0  0
 23 25  1  0  0  0  0
 23 26  2  0  0  0  0
 23 32  1  0  0  0  0
 24 32  1  0  0  0  0
 24 33  2  0  0  0  0
 26 30  1  0  0  0  0
 26 34  1  0  0  0  0
 27 45  1  0  0  0  0
 27 46  1  0  0  0  0
 27 47  1  0  0  0  0
 28 48  1  0  0  0  0
 28 49  1  0  0  0  0
 28 50  1  0  0  0  0
 29 33  1  0  0  0  0
 31 34  2  0  0  0  0
 31 51  1  0  0  0  0
 33 52  1  0  0  0  0
 34 53  1  0  0  0  0
M  END
> <PUBCHEM_COMPOUND_CID>
443814

> <PUBCHEM_COMPOUND_CANONICALIZED>
1

> <PUBCHEM_CACTVS_COMPLEXITY>
874

> <PUBCHEM_CACTVS_HBOND_ACCEPTOR>
9

> <PUBCHEM_CACTVS_HBOND_DONOR>
5

> <PUBCHEM_CACTVS_ROTATABLE_BOND>
1

> <PUBCHEM_CACTVS_SUBSKEYS>
AAADceB4PAAAAAAAAAAAAAAAAAAAAAAAAAA0YMGCAAAAAADBQAAAGgAACAAADFSgmAIyBoAABgCIAqBSAAACAAAkIAAIiAEGCMgJNzaCNRqCcUAl4BELuYfL7vTu4AADAAAYAADAAAYAADAAAAAAAAAAAA==

> <PUBCHEM_IUPAC_OPENEYE_NAME>
(3R)-9-[(2R,4R,5S,6R)-4,5-dihydroxy-6-methyl-tetrahydropyran-2-yl]-3,5,8-trihydroxy-3-methyl-2,4-dihydrobenzo[a]anthracene-1,7,12-trione

> <PUBCHEM_IUPAC_CAS_NAME>
(3R)-9-[(2R,4R,5S,6R)-4,5-dihydroxy-6-methyl-2-oxanyl]-3,5,8-trihydroxy-3-methyl-2,4-dihydrobenzo[a]anthracene-1,7,12-trione

> <PUBCHEM_IUPAC_NAME>
(3R)-9-[(2R,4R,5S,6R)-4,5-dihydroxy-6-methyloxan-2-yl]-3,5,8-trihydroxy-3-methyl-2,4-dihydrobenzo[a]anthracene-1,7,12-trione

> <PUBCHEM_IUPAC_SYSTEMATIC_NAME>
(3R)-3-methyl-9-[(2R,4R,5S,6R)-6-methyl-4,5-bis(oxidanyl)oxan-2-yl]-3,5,8-tris(oxidanyl)-2,4-dihydrobenzo[a]anthracene-1,7,12-trione

> <PUBCHEM_IUPAC_TRADITIONAL_NAME>
(3R)-9-[(2R,4R,5S,6R)-4,5-dihydroxy-6-methyl-tetrahydropyran-2-yl]-3,5,8-trihydroxy-3-methyl-2,4-dihydrobenz[a]anthracene-1,7,12-trione

> <PUBCHEM_IUPAC_INCHI>
InChI=1S/C25H24O9/c1-9-21(29)15(27)6-17(34-9)10-3-4-11-20(22(10)30)24(32)12-5-14(26)13-7-25(2,33)8-16(28)18(13)19(12)23(11)31/h3-5,9,15,17,21,26-27,29-30,33H,6-8H2,1-2H3/t9-,15-,17-,21-,25-/m1/s1

> <PUBCHEM_IUPAC_INCHIKEY>
WOFFYFKONQZKOV-MMELWNKQSA-N

> <PUBCHEM_XLOGP3_AA>
1

> <PUBCHEM_EXACT_MASS>
468.142032

> <PUBCHEM_MOLECULAR_FORMULA>
C25H24O9

> <PUBCHEM_MOLECULAR_WEIGHT>
468.45266

> <PUBCHEM_OPENEYE_CAN_SMILES>
CC1C(C(CC(O1)C2=C(C3=C(C=C2)C(=O)C4=C5C(=C(C=C4C3=O)O)CC(CC5=O)(C)O)O)O)O

> <PUBCHEM_OPENEYE_ISO_SMILES>
C[C@@H]1[C@H]([C@@H](C[C@@H](O1)C2=C(C3=C(C=C2)C(=O)C4=C5C(=C(C=C4C3=O)O)C[C@@](CC5=O)(C)O)O)O)O

> <PUBCHEM_CACTVS_TPSA>
162

> <PUBCHEM_MONOISOTOPIC_WEIGHT>
468.142032

> <PUBCHEM_TOTAL_CHARGE>
0

> <PUBCHEM_HEAVY_ATOM_COUNT>
34

> <PUBCHEM_ATOM_DEF_STEREO_COUNT>
5

> <PUBCHEM_ATOM_UDEF_STEREO_COUNT>
0

> <PUBCHEM_BOND_DEF_STEREO_COUNT>
0

> <PUBCHEM_BOND_UDEF_STEREO_COUNT>
0

> <PUBCHEM_ISOTOPIC_ATOM_COUNT>
0

> <PUBCHEM_COMPONENT_COUNT>
1

> <PUBCHEM_CACTVS_TAUTO_COUNT>
192

> <PUBCHEM_COORDINATE_TYPE>
1
5
255

> <PUBCHEM_BONDANNOTATIONS>
10  35  6
14  27  5
17  25  8
17  31  8
18  20  8
18  29  8
12  2  5
20  21  8
21  24  8
23  25  8
23  26  8
24  33  8
26  34  8
29  33  8
13  3  6
31  34  8
15  4  6

$$$$

