   Color/Form

     * Liquid
     * Colorless

   from [1]HSDB

   Odor
        Sweetish
   from [2]HSDB

   Boiling Point
        60.1 deg C @ 760 mm Hg
   from [3]HSDB

   Melting Point
        -80 deg C
   from [4]HSDB

   Critical Temperature and Pressure
        Critical temperature = 544.2 K; critical pressure = 6030 kPa
   from [5]HSDB

   Density/Specific Gravity
        1.2837 @ 20 deg C/4 deg C
   from [6]HSDB

   Heat of Vaporization
        73.0 cal/g at 60.3 deg C at 760 mm Hg
   from [7]HSDB

   Octanol/Water Partition Coefficient
        log Kow = 1.86
   from [8]HSDB

   Solubilities

     * SOL IN BENZENE AND CHLOROFORM.
     * Soluble in alcohol, acetone, ether
     * In water, 6.41X10+3 mg/l @ 25 deg C

   from [9]HSDB

   Spectral Properties

     * MAX ABSORPTION (VAPOR): GREATER THAN 200 NM.
     * Index of refraction: 1.4490 @ 20 deg C/D
     * IR: 3645 (Sadtler Reference Number)
     * MASS: 19679 (NIST/EPA/MCDC Mass Spectral Database 1990 version);
       619 (Atlas of Mass Spectral Data, John Wiley & Sons, NY)
     * 13C NMR: 186 (Stothers Carbon-13 NMR Spectroscopy, Academic Press,
       NY)

   from [10]HSDB

   Surface Tension
        28X10-3 N/m @ 20 deg C
   from [11]HSDB

   Vapor Density
        3.54 g/l (at bp, 760 mm Hg)
   from [12]HSDB

   Vapor Pressure
        2.00X10+2 mm Hg @ 25 deg C
   from [13]HSDB

   Viscosity
        0.48 cp at 20 deg C (liquid)
   from [14]HSDB

   Other Chemical/Physical Properties

     * Residue on evaporation: 0.007% by weight (maximum); Vapor pressure:
       273 mm Hg at 30 deg C
     * Waste water treatment: Evaporation from water @ 25 deg C of 1 ppm
       solution was 50% after 18 min and 90% after 64 min; measured
       half-life for evaporation from 1 ppm aqueous solution @ 25 deg C,
       still air, and an avg depth of 6.5 cm was 19 min.
     * Partition coefficients at 37 deg C for cis-1,2-dichloroethylene
       into blood= 9.2; into oil= 270. [Sato A, Nakajima T; Scand J Work
       Environ Health 13: 81-93 (1987)] [15]PubMed Abstract
     * Vapor pressure = 24 mPa at 20 deg C
     * Henry's Law constant = 4.08X10-3 atm-cu m/mole @ 24 deg C
     * Hydroxyl radical reaction rate constant = 2.62X10-12 cu
       cm/molecule-sec @ 25 deg C

   from [16]HSDB

   Computed Properties
   Molecular Weight                  96.94328 [g/mol]
   Molecular Formula                 C[2]H[2]Cl[2]
   XLogP3                            1.9
   H-Bond Donor                      0
   H-Bond Acceptor                   0
   Rotatable Bond Count              0
   Exact Mass                        95.953355
   MonoIsotopic Mass                 95.953355
   Topological Polar Surface Area    0
   Heavy Atom Count                  4
   Formal Charge                     0
   Complexity                        19.2
   Isotope Atom Count                0
   Defined Atom Stereocenter Count   0
   Undefined Atom Stereocenter Count 0
   Defined Bond Stereocenter Count   1
   Undefined Bond Stereocenter Count 0
   Covalently-Bonded Unit Count      1
   Effective Rotor Count             0
   Conformer Sampling RMSD           0.4
   CID Conformer Count               [17]1

References

   1. http://toxnet.nlm.nih.gov/cgi-bin/sis/search/r?dbs+hsdb:@term+@rn+@rel+156-59-2
   2. http://toxnet.nlm.nih.gov/cgi-bin/sis/search/r?dbs+hsdb:@term+@rn+@rel+156-59-2
   3. http://toxnet.nlm.nih.gov/cgi-bin/sis/search/r?dbs+hsdb:@term+@rn+@rel+156-59-2
   4. http://toxnet.nlm.nih.gov/cgi-bin/sis/search/r?dbs+hsdb:@term+@rn+@rel+156-59-2
   5. http://toxnet.nlm.nih.gov/cgi-bin/sis/search/r?dbs+hsdb:@term+@rn+@rel+156-59-2
   6. http://toxnet.nlm.nih.gov/cgi-bin/sis/search/r?dbs+hsdb:@term+@rn+@rel+156-59-2
   7. http://toxnet.nlm.nih.gov/cgi-bin/sis/search/r?dbs+hsdb:@term+@rn+@rel+156-59-2
   8. http://toxnet.nlm.nih.gov/cgi-bin/sis/search/r?dbs+hsdb:@term+@rn+@rel+156-59-2
   9. http://toxnet.nlm.nih.gov/cgi-bin/sis/search/r?dbs+hsdb:@term+@rn+@rel+156-59-2
  10. http://toxnet.nlm.nih.gov/cgi-bin/sis/search/r?dbs+hsdb:@term+@rn+@rel+156-59-2
  11. http://toxnet.nlm.nih.gov/cgi-bin/sis/search/r?dbs+hsdb:@term+@rn+@rel+156-59-2
  12. http://toxnet.nlm.nih.gov/cgi-bin/sis/search/r?dbs+hsdb:@term+@rn+@rel+156-59-2
  13. http://toxnet.nlm.nih.gov/cgi-bin/sis/search/r?dbs+hsdb:@term+@rn+@rel+156-59-2
  14. http://toxnet.nlm.nih.gov/cgi-bin/sis/search/r?dbs+hsdb:@term+@rn+@rel+156-59-2
  15. http://www.ncbi.nlm.nih.gov/entrez/query.fcgi?cmd=Retrieve&db=pubmed&dopt=Abstract&list_uids=3299685
  16. http://toxnet.nlm.nih.gov/cgi-bin/sis/search/r?dbs+hsdb:@term+@rn+@rel+156-59-2
  17. http://pubchem.ncbi.nlm.nih.gov/vw3d/vw3d.cgi?cid=643833
