133322
  -OEChem-07051212572D

 45 48  0     1  0  0  0  0  0999 V2000
    5.1804    1.5072    0.0000 O   0  0  0  0  0  0  0  0  0  0  0  0
    6.9464    2.5450    0.0000 O   0  0  0  0  0  0  0  0  0  0  0  0
    2.5381   -2.0484    0.0000 O   0  0  0  0  0  0  0  0  0  0  0  0
    2.5381   -0.0001    0.0000 O   0  0  0  0  0  0  0  0  0  0  0  0
    7.7925   -2.0212    0.0000 N   0  0  3  0  0  0  0  0  0  0  0  0
    6.9343   -1.5242    0.0000 C   0  0  2  0  0  0  0  0  0  0  0  0
    6.9343   -0.5242    0.0000 C   0  0  0  0  0  0  0  0  0  0  0  0
    6.0682   -2.0242    0.0000 C   0  0  0  0  0  0  0  0  0  0  0  0
    7.8443   -0.0174    0.0000 C   0  0  0  0  0  0  0  0  0  0  0  0
    8.6580   -1.5370    0.0000 C   0  0  0  0  0  0  0  0  0  0  0  0
    6.0682   -0.0242    0.0000 C   0  0  0  0  0  0  0  0  0  0  0  0
    8.6836   -0.5456    0.0000 C   0  0  0  0  0  0  0  0  0  0  0  0
    5.2022   -1.5242    0.0000 C   0  0  0  0  0  0  0  0  0  0  0  0
    5.2022   -0.5242    0.0000 C   0  0  0  0  0  0  0  0  0  0  0  0
    7.8523    1.0242    0.0000 C   0  0  0  0  0  0  0  0  0  0  0  0
    6.0522    1.0173    0.0000 C   0  0  0  0  0  0  0  0  0  0  0  0
    7.7851   -3.0211    0.0000 C   0  0  0  0  0  0  0  0  0  0  0  0
    6.9502    1.5450    0.0000 C   0  0  0  0  0  0  0  0  0  0  0  0
    4.3083   -2.0589    0.0000 C   0  0  0  0  0  0  0  0  0  0  0  0
    4.3083    0.0104    0.0000 C   0  0  0  0  0  0  0  0  0  0  0  0
    3.4022   -1.5450    0.0000 C   0  0  0  0  0  0  0  0  0  0  0  0
    3.4022   -0.5034    0.0000 C   0  0  0  0  0  0  0  0  0  0  0  0
    7.8105    3.0484    0.0000 C   0  0  0  0  0  0  0  0  0  0  0  0
    2.5420   -3.0484    0.0000 C   0  0  0  0  0  0  0  0  0  0  0  0
    6.9337   -2.3742    0.0000 H   0  0  0  0  0  0  0  0  0  0  0  0
    5.6697   -2.4992    0.0000 H   0  0  0  0  0  0  0  0  0  0  0  0
    6.4668   -2.4992    0.0000 H   0  0  0  0  0  0  0  0  0  0  0  0
    8.8597   -2.1232    0.0000 H   0  0  0  0  0  0  0  0  0  0  0  0
    9.2708   -1.4426    0.0000 H   0  0  0  0  0  0  0  0  0  0  0  0
    9.2907   -0.6715    0.0000 H   0  0  0  0  0  0  0  0  0  0  0  0
    8.9154    0.0295    0.0000 H   0  0  0  0  0  0  0  0  0  0  0  0
    8.3904    1.3322    0.0000 H   0  0  0  0  0  0  0  0  0  0  0  0
    7.1651   -3.0165    0.0000 H   0  0  0  0  0  0  0  0  0  0  0  0
    7.7805   -3.6411    0.0000 H   0  0  0  0  0  0  0  0  0  0  0  0
    8.4051   -3.0257    0.0000 H   0  0  0  0  0  0  0  0  0  0  0  0
    4.3154   -2.6788    0.0000 H   0  0  0  0  0  0  0  0  0  0  0  0
    4.3154    0.6304    0.0000 H   0  0  0  0  0  0  0  0  0  0  0  0
    5.1733    2.1272    0.0000 H   0  0  0  0  0  0  0  0  0  0  0  0
    2.0000   -0.3080    0.0000 H   0  0  0  0  0  0  0  0  0  0  0  0
    8.1225    2.5126    0.0000 H   0  0  0  0  0  0  0  0  0  0  0  0
    8.3462    3.3604    0.0000 H   0  0  0  0  0  0  0  0  0  0  0  0
    7.4984    3.5841    0.0000 H   0  0  0  0  0  0  0  0  0  0  0  0
    1.9220   -3.0508    0.0000 H   0  0  0  0  0  0  0  0  0  0  0  0
    2.5444   -3.6684    0.0000 H   0  0  0  0  0  0  0  0  0  0  0  0
    3.1620   -3.0460    0.0000 H   0  0  0  0  0  0  0  0  0  0  0  0
  1 16  1  0  0  0  0
  1 38  1  0  0  0  0
  2 18  1  0  0  0  0
  2 23  1  0  0  0  0
  3 21  1  0  0  0  0
  3 24  1  0  0  0  0
  4 22  1  0  0  0  0
  4 39  1  0  0  0  0
  5  6  1  0  0  0  0
  5 10  1  0  0  0  0
  5 17  1  0  0  0  0
  6  7  1  0  0  0  0
  6  8  1  0  0  0  0
  6 25  1  6  0  0  0
  7  9  1  0  0  0  0
  7 11  2  0  0  0  0
  8 13  1  0  0  0  0
  8 26  1  0  0  0  0
  8 27  1  0  0  0  0
  9 12  1  0  0  0  0
  9 15  2  0  0  0  0
 10 12  1  0  0  0  0
 10 28  1  0  0  0  0
 10 29  1  0  0  0  0
 11 14  1  0  0  0  0
 11 16  1  0  0  0  0
 12 30  1  0  0  0  0
 12 31  1  0  0  0  0
 13 14  1  0  0  0  0
 13 19  2  0  0  0  0
 14 20  2  0  0  0  0
 15 18  1  0  0  0  0
 15 32  1  0  0  0  0
 16 18  2  0  0  0  0
 17 33  1  0  0  0  0
 17 34  1  0  0  0  0
 17 35  1  0  0  0  0
 19 21  1  0  0  0  0
 19 36  1  0  0  0  0
 20 22  1  0  0  0  0
 20 37  1  0  0  0  0
 21 22  2  0  0  0  0
 23 40  1  0  0  0  0
 23 41  1  0  0  0  0
 23 42  1  0  0  0  0
 24 43  1  0  0  0  0
 24 44  1  0  0  0  0
 24 45  1  0  0  0  0
M  END
> <PUBCHEM_COMPOUND_CID>
133322

> <PUBCHEM_COMPOUND_CANONICALIZED>
1

> <PUBCHEM_CACTVS_COMPLEXITY>
461

> <PUBCHEM_CACTVS_HBOND_ACCEPTOR>
5

> <PUBCHEM_CACTVS_HBOND_DONOR>
2

> <PUBCHEM_CACTVS_ROTATABLE_BOND>
2

> <PUBCHEM_CACTVS_SUBSKEYS>
AAADceB6OAAAAAAAAAAAAAAAAAAAAAAAAAA8YMEAAAAAAADxQAAAHgAACAAADCzBmAYyBoMABgCAAiBCAACCCAAgIAAAiAAOjIgNJiKGsRuEcCtkwBGLuAew8PcOoAADAAAYQADQAAaAADSAAAAAAAAAAA==

> <PUBCHEM_IUPAC_OPENEYE_NAME>
(8S)-2,12-dimethoxy-7-methyl-5,6,6a,7-tetrahydro-4H-dibenzo[de,g]quinoline-1,13-diol

> <PUBCHEM_IUPAC_CAS_NAME>
(8S)-2,12-dimethoxy-7-methyl-5,6,6a,7-tetrahydro-4H-dibenzo[de,g]quinoline-1,13-diol

> <PUBCHEM_IUPAC_NAME>
(8S)-2,12-dimethoxy-7-methyl-5,6,6a,7-tetrahydro-4H-dibenzo[de,g]quinoline-1,13-diol

> <PUBCHEM_IUPAC_SYSTEMATIC_NAME>
(8S)-2,12-dimethoxy-7-methyl-5,6,6a,7-tetrahydro-4H-dibenzo[de,g]quinoline-1,13-diol

> <PUBCHEM_IUPAC_TRADITIONAL_NAME>
(8S)-2,12-dimethoxy-7-methyl-5,6,6a,7-tetrahydro-4H-dibenzo[de,g]quinoline-1,13-diol

> <PUBCHEM_IUPAC_INCHI>
InChI=1S/C19H21NO4/c1-20-5-4-10-7-16(24-3)19(22)18-12-9-14(21)15(23-2)8-11(12)6-13(20)17(10)18/h7-9,13,21-22H,4-6H2,1-3H3/t13-/m0/s1

> <PUBCHEM_IUPAC_INCHIKEY>
PLEOQAHCVRVCDL-ZDUSSCGKSA-N

> <PUBCHEM_XLOGP3>
2.2

> <PUBCHEM_EXACT_MASS>
327.147058

> <PUBCHEM_MOLECULAR_FORMULA>
C19H21NO4

> <PUBCHEM_MOLECULAR_WEIGHT>
327.37434

> <PUBCHEM_OPENEYE_CAN_SMILES>
CN1CCC2=CC(=C(C3=C2C1CC4=CC(=C(C=C43)O)OC)O)OC

> <PUBCHEM_OPENEYE_ISO_SMILES>
CN1CCC2=CC(=C(C3=C2[C@@H]1CC4=CC(=C(C=C43)O)OC)O)OC

> <PUBCHEM_CACTVS_TPSA>
62.2

> <PUBCHEM_MONOISOTOPIC_WEIGHT>
327.147058

> <PUBCHEM_TOTAL_CHARGE>
0

> <PUBCHEM_HEAVY_ATOM_COUNT>
24

> <PUBCHEM_ATOM_DEF_STEREO_COUNT>
1

> <PUBCHEM_ATOM_UDEF_STEREO_COUNT>
0

> <PUBCHEM_BOND_DEF_STEREO_COUNT>
0

> <PUBCHEM_BOND_UDEF_STEREO_COUNT>
0

> <PUBCHEM_ISOTOPIC_ATOM_COUNT>
0

> <PUBCHEM_COMPONENT_COUNT>
1

> <PUBCHEM_CACTVS_TAUTO_COUNT>
19

> <PUBCHEM_COORDINATE_TYPE>
1
5
255

> <PUBCHEM_BONDANNOTATIONS>
11  16  8
13  14  8
13  19  8
14  20  8
15  18  8
16  18  8
19  21  8
20  22  8
21  22  8
6  25  6
7  11  8
7  9  8
9  15  8

$$$$

