440875
  -OEChem-07051212512D

 20 19  0     1  0  0  0  0  0999 V2000
    3.2320    0.9821    0.0000 O   0  0  0  0  0  0  0  0  0  0  0  0
    5.4641    0.1160    0.0000 O   0  0  0  0  0  0  0  0  0  0  0  0
    2.8660   -1.3840    0.0000 O   0  0  0  0  0  0  0  0  0  0  0  0
    4.5981    1.6160    0.0000 O   0  0  0  0  0  0  0  0  0  0  0  0
    3.7320    0.1160    0.0000 C   0  0  1  0  0  0  0  0  0  0  0  0
    4.2320   -0.7500    0.0000 C   0  0  0  0  0  0  0  0  0  0  0  0
    2.8660   -0.3840    0.0000 C   0  0  0  0  0  0  0  0  0  0  0  0
    3.7320   -1.6160    0.0000 C   0  0  0  0  0  0  0  0  0  0  0  0
    4.5981    0.6160    0.0000 C   0  0  0  0  0  0  0  0  0  0  0  0
    2.0000    0.1160    0.0000 C   0  0  0  0  0  0  0  0  0  0  0  0
    4.7070   -1.1485    0.0000 H   0  0  0  0  0  0  0  0  0  0  0  0
    4.7070   -0.3515    0.0000 H   0  0  0  0  0  0  0  0  0  0  0  0
    3.1951   -1.3060    0.0000 H   0  0  0  0  0  0  0  0  0  0  0  0
    3.4220   -2.1530    0.0000 H   0  0  0  0  0  0  0  0  0  0  0  0
    4.2690   -1.9260    0.0000 H   0  0  0  0  0  0  0  0  0  0  0  0
    2.3100    0.6530    0.0000 H   0  0  0  0  0  0  0  0  0  0  0  0
    1.4631    0.4260    0.0000 H   0  0  0  0  0  0  0  0  0  0  0  0
    1.6900   -0.4209    0.0000 H   0  0  0  0  0  0  0  0  0  0  0  0
    3.5420    1.5190    0.0000 H   0  0  0  0  0  0  0  0  0  0  0  0
    6.0010    0.4260    0.0000 H   0  0  0  0  0  0  0  0  0  0  0  0
  5  1  1  1  0  0  0
  1 19  1  0  0  0  0
  2  9  1  0  0  0  0
  2 20  1  0  0  0  0
  3  7  2  0  0  0  0
  4  9  2  0  0  0  0
  5  6  1  0  0  0  0
  5  7  1  0  0  0  0
  5  9  1  0  0  0  0
  6  8  1  0  0  0  0
  6 11  1  0  0  0  0
  6 12  1  0  0  0  0
  7 10  1  0  0  0  0
  8 13  1  0  0  0  0
  8 14  1  0  0  0  0
  8 15  1  0  0  0  0
 10 16  1  0  0  0  0
 10 17  1  0  0  0  0
 10 18  1  0  0  0  0
M  END
> <PUBCHEM_COMPOUND_CID>
440875

> <PUBCHEM_COMPOUND_CANONICALIZED>
1

> <PUBCHEM_CACTVS_COMPLEXITY>
163

> <PUBCHEM_CACTVS_HBOND_ACCEPTOR>
4

> <PUBCHEM_CACTVS_HBOND_DONOR>
2

> <PUBCHEM_CACTVS_ROTATABLE_BOND>
3

> <PUBCHEM_CACTVS_SUBSKEYS>
AAADccBgOAAAAAAAAAAAAAAAAAAAAAAAAAAAAAAAAAAAAAAAAAAAGgAACAAADESAgAACCAAAAgAIAICQCAIAAAAAAAAAAAFAAAABABYIAAAAQAAEIAABAAAAAAAKAAAAAAAAAAAAAAAAAAAAAAAAAAAAAA==

> <PUBCHEM_IUPAC_OPENEYE_NAME>
(2S)-2-ethyl-2-hydroxy-3-oxo-butanoic acid

> <PUBCHEM_IUPAC_CAS_NAME>
(2S)-2-ethyl-2-hydroxy-3-oxobutanoic acid

> <PUBCHEM_IUPAC_NAME>
(2S)-2-ethyl-2-hydroxy-3-oxobutanoic acid

> <PUBCHEM_IUPAC_SYSTEMATIC_NAME>
(2S)-2-ethyl-2-oxidanyl-3-oxidanylidene-butanoic acid

> <PUBCHEM_IUPAC_TRADITIONAL_NAME>
(2S)-2-ethyl-2-hydroxy-3-keto-butyric acid

> <PUBCHEM_IUPAC_INCHI>
InChI=1S/C6H10O4/c1-3-6(10,4(2)7)5(8)9/h10H,3H2,1-2H3,(H,8,9)/t6-/m0/s1

> <PUBCHEM_IUPAC_INCHIKEY>
VUQLHQFKACOHNZ-LURJTMIESA-N

> <PUBCHEM_XLOGP3_AA>
-0.2

> <PUBCHEM_EXACT_MASS>
146.057909

> <PUBCHEM_MOLECULAR_FORMULA>
C6H10O4

> <PUBCHEM_MOLECULAR_WEIGHT>
146.1412

> <PUBCHEM_OPENEYE_CAN_SMILES>
CCC(C(=O)C)(C(=O)O)O

> <PUBCHEM_OPENEYE_ISO_SMILES>
CC[C@](C(=O)C)(C(=O)O)O

> <PUBCHEM_CACTVS_TPSA>
74.6

> <PUBCHEM_MONOISOTOPIC_WEIGHT>
146.057909

> <PUBCHEM_TOTAL_CHARGE>
0

> <PUBCHEM_HEAVY_ATOM_COUNT>
10

> <PUBCHEM_ATOM_DEF_STEREO_COUNT>
1

> <PUBCHEM_ATOM_UDEF_STEREO_COUNT>
0

> <PUBCHEM_BOND_DEF_STEREO_COUNT>
0

> <PUBCHEM_BOND_UDEF_STEREO_COUNT>
0

> <PUBCHEM_ISOTOPIC_ATOM_COUNT>
0

> <PUBCHEM_COMPONENT_COUNT>
1

> <PUBCHEM_CACTVS_TAUTO_COUNT>
2

> <PUBCHEM_COORDINATE_TYPE>
1
5
255

> <PUBCHEM_BONDANNOTATIONS>
5  1  5

$$$$

