   Color/Form
        Off-white powder
   from [1]HSDB

   Melting Point
        179-181 deg C
   from [2]HSDB

   Density/Specific Gravity
        2.2 kg/l at 4 deg C
   from [3]HSDB

   Solubilities
        Insoluble in water. Soluble in oxygenated solvents.
   from [4]HSDB

   Spectral Properties
        MASS: 5205 (National Bureau of Standards EPA-NIH Mass Spectra Data
   Base, NSRDS-NBS-63)
   from [5]HSDB

   Other Chemical/Physical Properties
        Bromine content= 58.4%; specific gravity= 2.17; melting point= 180
   deg C /commercial product/
   from [6]HSDB

   Computed Properties
   Molecular Weight                  543.87058 [g/mol]
   Molecular Formula                 C[15]H[12]Br[4]O[2]
   XLogP3-AA                         6.8
   H-Bond Donor                      2
   H-Bond Acceptor                   2
   Rotatable Bond Count              2
   Tautomer Count                    3
   Exact Mass                        543.752985
   MonoIsotopic Mass                 539.757078
   Topological Polar Surface Area    40.5
   Heavy Atom Count                  21
   Formal Charge                     0
   Complexity                        310
   Isotope Atom Count                0
   Defined Atom Stereocenter Count   0
   Undefined Atom Stereocenter Count 0
   Defined Bond Stereocenter Count   0
   Undefined Bond Stereocenter Count 0
   Covalently-Bonded Unit Count      1
   Feature 3D Donor Count            2
   Feature 3D Hydrophobe Count       5
   Feature 3D Ring Count             2
   Effective Rotor Count             2
   Conformer Sampling RMSD           0.6
   CID Conformer Count               [7]5

References

   1. http://toxnet.nlm.nih.gov/cgi-bin/sis/search/r?dbs+hsdb:@term+@rn+@rel+79-94-7
   2. http://toxnet.nlm.nih.gov/cgi-bin/sis/search/r?dbs+hsdb:@term+@rn+@rel+79-94-7
   3. http://toxnet.nlm.nih.gov/cgi-bin/sis/search/r?dbs+hsdb:@term+@rn+@rel+79-94-7
   4. http://toxnet.nlm.nih.gov/cgi-bin/sis/search/r?dbs+hsdb:@term+@rn+@rel+79-94-7
   5. http://toxnet.nlm.nih.gov/cgi-bin/sis/search/r?dbs+hsdb:@term+@rn+@rel+79-94-7
   6. http://toxnet.nlm.nih.gov/cgi-bin/sis/search/r?dbs+hsdb:@term+@rn+@rel+79-94-7
   7. http://pubchem.ncbi.nlm.nih.gov/vw3d/vw3d.cgi?cid=6618
