47205553
  -OEChem-06241222592D

 41 41  0     0  0  0  0  0  0999 V2000
    8.5327   -2.1672    0.0000 O   0  0  0  0  0  0  0  0  0  0  0  0
    6.7500    2.0544    0.0000 O   0  0  0  0  0  0  0  0  0  0  0  0
    2.2788    2.9815    0.0000 O   0  0  0  0  0  0  0  0  0  0  0  0
    4.3126    1.0252    0.0000 O   0  0  0  0  0  0  0  0  0  0  0  0
    6.2147    0.4071    0.0000 N   0  0  0  0  0  0  0  0  0  0  0  0
    4.8479    2.6724    0.0000 N   0  0  0  0  0  0  0  0  0  0  0  0
    3.0878    2.3937    0.0000 N   0  0  0  0  0  0  0  0  0  0  0  0
    7.3737   -0.8800    0.0000 C   0  0  0  0  0  0  0  0  0  0  0  0
    9.6916   -3.4544    0.0000 C   0  0  0  0  0  0  0  0  0  0  0  0
    8.3248   -1.1890    0.0000 C   0  0  0  0  0  0  0  0  0  0  0  0
    9.4837   -2.4762    0.0000 C   0  0  0  0  0  0  0  0  0  0  0  0
    7.1658    0.0981    0.0000 C   0  0  0  0  0  0  0  0  0  0  0  0
   10.6427   -3.7634    0.0000 C   0  0  0  0  0  0  0  0  0  0  0  0
   10.8506   -4.7415    0.0000 C   0  0  0  0  0  0  0  0  0  0  0  0
    6.0068    1.3853    0.0000 C   0  0  0  0  0  0  0  0  0  0  0  0
    5.0558    1.6943    0.0000 C   0  0  0  0  0  0  0  0  0  0  0  0
    3.8968    2.9815    0.0000 C   0  0  0  0  0  0  0  0  0  0  0  0
    3.5878    3.9325    0.0000 C   0  0  0  0  0  0  0  0  0  0  0  0
    2.5878    3.9325    0.0000 C   0  0  0  0  0  0  0  0  0  0  0  0
    2.0000    4.7415    0.0000 C   0  0  0  0  0  0  0  0  0  0  0  0
    6.7541   -0.9017    0.0000 H   0  0  0  0  0  0  0  0  0  0  0  0
    7.2874   -1.4940    0.0000 H   0  0  0  0  0  0  0  0  0  0  0  0
    9.0720   -3.4760    0.0000 H   0  0  0  0  0  0  0  0  0  0  0  0
    9.6054   -4.0683    0.0000 H   0  0  0  0  0  0  0  0  0  0  0  0
    8.9444   -1.1674    0.0000 H   0  0  0  0  0  0  0  0  0  0  0  0
    8.4110   -0.5751    0.0000 H   0  0  0  0  0  0  0  0  0  0  0  0
   10.1034   -2.4546    0.0000 H   0  0  0  0  0  0  0  0  0  0  0  0
    9.5700   -1.8622    0.0000 H   0  0  0  0  0  0  0  0  0  0  0  0
    7.7854    0.1197    0.0000 H   0  0  0  0  0  0  0  0  0  0  0  0
    7.2521    0.7121    0.0000 H   0  0  0  0  0  0  0  0  0  0  0  0
   11.2623   -3.7418    0.0000 H   0  0  0  0  0  0  0  0  0  0  0  0
   10.7290   -3.1494    0.0000 H   0  0  0  0  0  0  0  0  0  0  0  0
   10.2442   -4.8704    0.0000 H   0  0  0  0  0  0  0  0  0  0  0  0
   10.9795   -5.3480    0.0000 H   0  0  0  0  0  0  0  0  0  0  0  0
   11.4571   -4.6126    0.0000 H   0  0  0  0  0  0  0  0  0  0  0  0
    5.7540   -0.0077    0.0000 H   0  0  0  0  0  0  0  0  0  0  0  0
    5.3086    3.0873    0.0000 H   0  0  0  0  0  0  0  0  0  0  0  0
    3.9522    4.4341    0.0000 H   0  0  0  0  0  0  0  0  0  0  0  0
    2.5016    5.1060    0.0000 H   0  0  0  0  0  0  0  0  0  0  0  0
    1.6356    5.2431    0.0000 H   0  0  0  0  0  0  0  0  0  0  0  0
    1.4984    4.3771    0.0000 H   0  0  0  0  0  0  0  0  0  0  0  0
  1 10  1  0  0  0  0
  1 11  1  0  0  0  0
  2 15  2  0  0  0  0
  3  7  1  0  0  0  0
  3 19  1  0  0  0  0
  4 16  2  0  0  0  0
  5 12  1  0  0  0  0
  5 15  1  0  0  0  0
  5 36  1  0  0  0  0
  6 16  1  0  0  0  0
  6 17  1  0  0  0  0
  6 37  1  0  0  0  0
  7 17  2  0  0  0  0
  8 10  1  0  0  0  0
  8 12  1  0  0  0  0
  8 21  1  0  0  0  0
  8 22  1  0  0  0  0
  9 11  1  0  0  0  0
  9 13  1  0  0  0  0
  9 23  1  0  0  0  0
  9 24  1  0  0  0  0
 10 25  1  0  0  0  0
 10 26  1  0  0  0  0
 11 27  1  0  0  0  0
 11 28  1  0  0  0  0
 12 29  1  0  0  0  0
 12 30  1  0  0  0  0
 13 14  1  0  0  0  0
 13 31  1  0  0  0  0
 13 32  1  0  0  0  0
 14 33  1  0  0  0  0
 14 34  1  0  0  0  0
 14 35  1  0  0  0  0
 15 16  1  0  0  0  0
 17 18  1  0  0  0  0
 18 19  2  0  0  0  0
 18 38  1  0  0  0  0
 19 20  1  0  0  0  0
 20 39  1  0  0  0  0
 20 40  1  0  0  0  0
 20 41  1  0  0  0  0
M  END
> <PUBCHEM_COMPOUND_CID>
47205553

> <PUBCHEM_COMPOUND_CANONICALIZED>
1

> <PUBCHEM_CACTVS_COMPLEXITY>
312

> <PUBCHEM_CACTVS_HBOND_ACCEPTOR>
5

> <PUBCHEM_CACTVS_HBOND_DONOR>
2

> <PUBCHEM_CACTVS_ROTATABLE_BOND>
8

> <PUBCHEM_CACTVS_SUBSKEYS>
AAADceBzOAAAAAAAAAAAAAAAAAAAAWAAAAAAAAAAAAAAAAABgAAAHgAUAAAACAThkgYztJLQBACpAKNycgCAAAAlIgAhGKG+bFqAZAhAiaAWAIhGFwrAQEAAAAAAAAAAAAAAAAAAAAAAAAAAAAAAAAAAAA==

> <PUBCHEM_IUPAC_OPENEYE_NAME>
N-(3-butoxypropyl)-N'-(5-methylisoxazol-3-yl)oxamide

> <PUBCHEM_IUPAC_CAS_NAME>
N-(3-butoxypropyl)-N'-(5-methyl-3-isoxazolyl)oxamide

> <PUBCHEM_IUPAC_NAME>
N-(3-butoxypropyl)-N'-(5-methyl-1,2-oxazol-3-yl)oxamide

> <PUBCHEM_IUPAC_SYSTEMATIC_NAME>
N-(3-butoxypropyl)-N'-(5-methyl-1,2-oxazol-3-yl)ethanediamide

> <PUBCHEM_IUPAC_TRADITIONAL_NAME>
N-(3-butoxypropyl)-N'-(5-methylisoxazol-3-yl)oxamide

> <PUBCHEM_IUPAC_INCHI>
InChI=1S/C13H21N3O4/c1-3-4-7-19-8-5-6-14-12(17)13(18)15-11-9-10(2)20-16-11/h9H,3-8H2,1-2H3,(H,14,17)(H,15,16,18)

> <PUBCHEM_IUPAC_INCHIKEY>
VPHFWONOKIDMCT-UHFFFAOYSA-N

> <PUBCHEM_XLOGP3_AA>
1.4

> <PUBCHEM_EXACT_MASS>
283.153206

> <PUBCHEM_MOLECULAR_FORMULA>
C13H21N3O4

> <PUBCHEM_MOLECULAR_WEIGHT>
283.32354

> <PUBCHEM_OPENEYE_CAN_SMILES>
CCCCOCCCNC(=O)C(=O)NC1=NOC(=C1)C

> <PUBCHEM_OPENEYE_ISO_SMILES>
CCCCOCCCNC(=O)C(=O)NC1=NOC(=C1)C

> <PUBCHEM_CACTVS_TPSA>
93.5

> <PUBCHEM_MONOISOTOPIC_WEIGHT>
283.153206

> <PUBCHEM_TOTAL_CHARGE>
0

> <PUBCHEM_HEAVY_ATOM_COUNT>
20

> <PUBCHEM_ATOM_DEF_STEREO_COUNT>
0

> <PUBCHEM_ATOM_UDEF_STEREO_COUNT>
0

> <PUBCHEM_BOND_DEF_STEREO_COUNT>
0

> <PUBCHEM_BOND_UDEF_STEREO_COUNT>
0

> <PUBCHEM_ISOTOPIC_ATOM_COUNT>
0

> <PUBCHEM_COMPONENT_COUNT>
1

> <PUBCHEM_CACTVS_TAUTO_COUNT>
16

> <PUBCHEM_COORDINATE_TYPE>
1
5
255

> <PUBCHEM_BONDANNOTATIONS>
17  18  8
18  19  8
3  19  8
3  7  8
7  17  8

$$$$

