   Color/Form
        Liquid
   from [1]HSDB

   Boiling Point
        112.5 deg C
   from [2]HSDB

   Corrosivity
        Corrosive
   from [3]HSDB

   Density/Specific Gravity
        1.369 g/cu cm at 20 deg C
   from [4]HSDB

   Octanol/Water Partition Coefficient
        log Kow = 0.29 (est)
   from [5]HSDB

   Solubilities

     * Soluble in methanol
     * Soluble in ethanol
     * In water, 3.35X10+4 mg/L at 25 deg C (est)

   from [6]HSDB

   Spectral Properties

     * Index of refraction = 1.4391 at 25 deg C/D
     * MASS: 76066 (NIST/EPA/MSDC Mass Spectral Database, 1990 version);
       547 (Atlas of Mass Spectral Data, Johm Wiley & Sons, New York)
     * IR: 4639 (Coblentz Society spectral collection)

   from [7]HSDB

   Vapor Pressure
        2.82 mm Hg at 25 deg C (est)
   from [8]HSDB

   Other Chemical/Physical Properties

     * Conversion factor: mg/cu m = 4.50 X ppm
     * When heated to decomposition it emits toxic fumes of /Hydrogen
       Chloride/, /Cyanide/, and /Nitrogen oxides/.
     * Henry's Law constant = 3.79X10-6 atm-cu m/mol at 25 deg C (est)
     * Hydroxyl radical reaction rate constant = 5.32X10-14 cu
       cm/molec-sec at 25 deg C (est)

   from [9]HSDB

   Computed Properties
   Molecular Weight                  109.94204 [g/mol]
   Molecular Formula                 C[2]HCl[2]N
   XLogP3-AA                         1.3
   H-Bond Donor                      0
   H-Bond Acceptor                   1
   Rotatable Bond Count              0
   Exact Mass                        108.948604
   MonoIsotopic Mass                 108.948604
   Topological Polar Surface Area    23.8
   Heavy Atom Count                  5
   Formal Charge                     0
   Complexity                        59.3
   Isotope Atom Count                0
   Defined Atom Stereocenter Count   0
   Undefined Atom Stereocenter Count 0
   Defined Bond Stereocenter Count   0
   Undefined Bond Stereocenter Count 0
   Covalently-Bonded Unit Count      1
   Feature 3D Acceptor Count         1
   Effective Rotor Count             0
   Conformer Sampling RMSD           0.4
   CID Conformer Count               [10]1

References

   1. http://toxnet.nlm.nih.gov/cgi-bin/sis/search/r?dbs+hsdb:@term+@rn+@rel+3018-12-0
   2. http://toxnet.nlm.nih.gov/cgi-bin/sis/search/r?dbs+hsdb:@term+@rn+@rel+3018-12-0
   3. http://toxnet.nlm.nih.gov/cgi-bin/sis/search/r?dbs+hsdb:@term+@rn+@rel+3018-12-0
   4. http://toxnet.nlm.nih.gov/cgi-bin/sis/search/r?dbs+hsdb:@term+@rn+@rel+3018-12-0
   5. http://toxnet.nlm.nih.gov/cgi-bin/sis/search/r?dbs+hsdb:@term+@rn+@rel+3018-12-0
   6. http://toxnet.nlm.nih.gov/cgi-bin/sis/search/r?dbs+hsdb:@term+@rn+@rel+3018-12-0
   7. http://toxnet.nlm.nih.gov/cgi-bin/sis/search/r?dbs+hsdb:@term+@rn+@rel+3018-12-0
   8. http://toxnet.nlm.nih.gov/cgi-bin/sis/search/r?dbs+hsdb:@term+@rn+@rel+3018-12-0
   9. http://toxnet.nlm.nih.gov/cgi-bin/sis/search/r?dbs+hsdb:@term+@rn+@rel+3018-12-0
  10. http://pubchem.ncbi.nlm.nih.gov/vw3d/vw3d.cgi?cid=18177
