182886
  -OEChem-07051212542D

 26 27  0     0  0  0  0  0  0999 V2000
    4.2690    0.8100    0.0000 O   0  0  0  0  0  0  0  0  0  0  0  0
    2.5369   -0.1900    0.0000 O   0  0  0  0  0  0  0  0  0  0  0  0
    6.0010   -0.1900    0.0000 O   0  0  0  0  0  0  0  0  0  0  0  0
    2.5369   -2.1900    0.0000 O   0  0  0  0  0  0  0  0  0  0  0  0
    4.2690   -0.1900    0.0000 C   0  0  0  0  0  0  0  0  0  0  0  0
    5.1350    1.3100    0.0000 C   0  0  0  0  0  0  0  0  0  0  0  0
    3.4030   -0.6900    0.0000 C   0  0  0  0  0  0  0  0  0  0  0  0
    5.1350   -0.6900    0.0000 C   0  0  0  0  0  0  0  0  0  0  0  0
    6.0010    0.8100    0.0000 C   0  0  0  0  0  0  0  0  0  0  0  0
    3.4030   -1.6900    0.0000 C   0  0  0  0  0  0  0  0  0  0  0  0
    5.1350    2.3100    0.0000 C   0  0  0  0  0  0  0  0  0  0  0  0
    5.1350   -1.6900    0.0000 C   0  0  0  0  0  0  0  0  0  0  0  0
    4.2690   -2.1900    0.0000 C   0  0  0  0  0  0  0  0  0  0  0  0
    6.8671    1.3100    0.0000 C   0  0  0  0  0  0  0  0  0  0  0  0
    6.0010    2.8100    0.0000 C   0  0  0  0  0  0  0  0  0  0  0  0
    6.8671    2.3100    0.0000 C   0  0  0  0  0  0  0  0  0  0  0  0
    5.6720   -0.3800    0.0000 H   0  0  0  0  0  0  0  0  0  0  0  0
    4.5981    2.6200    0.0000 H   0  0  0  0  0  0  0  0  0  0  0  0
    5.6720   -2.0000    0.0000 H   0  0  0  0  0  0  0  0  0  0  0  0
    4.2690   -2.8100    0.0000 H   0  0  0  0  0  0  0  0  0  0  0  0
    7.4040    1.0000    0.0000 H   0  0  0  0  0  0  0  0  0  0  0  0
    6.0010    3.4300    0.0000 H   0  0  0  0  0  0  0  0  0  0  0  0
    7.4040    2.6200    0.0000 H   0  0  0  0  0  0  0  0  0  0  0  0
    2.0000   -0.5000    0.0000 H   0  0  0  0  0  0  0  0  0  0  0  0
    6.5380   -0.5000    0.0000 H   0  0  0  0  0  0  0  0  0  0  0  0
    2.5369   -2.8100    0.0000 H   0  0  0  0  0  0  0  0  0  0  0  0
  1  5  1  0  0  0  0
  1  6  1  0  0  0  0
  2  7  1  0  0  0  0
  2 24  1  0  0  0  0
  3  9  1  0  0  0  0
  3 25  1  0  0  0  0
  4 10  1  0  0  0  0
  4 26  1  0  0  0  0
  5  7  1  0  0  0  0
  5  8  2  0  0  0  0
  6  9  1  0  0  0  0
  6 11  2  0  0  0  0
  7 10  2  0  0  0  0
  8 12  1  0  0  0  0
  8 17  1  0  0  0  0
  9 14  2  0  0  0  0
 10 13  1  0  0  0  0
 11 15  1  0  0  0  0
 11 18  1  0  0  0  0
 12 13  2  0  0  0  0
 12 19  1  0  0  0  0
 13 20  1  0  0  0  0
 14 16  1  0  0  0  0
 14 21  1  0  0  0  0
 15 16  2  0  0  0  0
 15 22  1  0  0  0  0
 16 23  1  0  0  0  0
M  END
> <PUBCHEM_COMPOUND_CID>
182886

> <PUBCHEM_COMPOUND_CANONICALIZED>
1

> <PUBCHEM_CACTVS_COMPLEXITY>
221

> <PUBCHEM_CACTVS_HBOND_ACCEPTOR>
4

> <PUBCHEM_CACTVS_HBOND_DONOR>
3

> <PUBCHEM_CACTVS_ROTATABLE_BOND>
2

> <PUBCHEM_CACTVS_SUBSKEYS>
AAADccBwOAAAAAAAAAAAAAAAAAAAAAAAAAAwYAAAAAAAAAABQAAAGgAACAAACASAkAAwBoAABgCAACBCAAACCAAgIAAIiAAGiIgNJyKGMRqCeCOlwBULuAeAYAwAAAAACAAAQAAAAAAQAACAAAAAAAAAAA==

> <PUBCHEM_IUPAC_OPENEYE_NAME>
3-(2-hydroxyphenoxy)benzene-1,2-diol

> <PUBCHEM_IUPAC_CAS_NAME>
3-(2-hydroxyphenoxy)benzene-1,2-diol

> <PUBCHEM_IUPAC_NAME>
3-(2-hydroxyphenoxy)benzene-1,2-diol

> <PUBCHEM_IUPAC_SYSTEMATIC_NAME>
3-(2-oxidanylphenoxy)benzene-1,2-diol

> <PUBCHEM_IUPAC_TRADITIONAL_NAME>
3-(2-hydroxyphenoxy)pyrocatechol

> <PUBCHEM_IUPAC_INCHI>
InChI=1S/C12H10O4/c13-8-4-1-2-6-10(8)16-11-7-3-5-9(14)12(11)15/h1-7,13-15H

> <PUBCHEM_IUPAC_INCHIKEY>
XEAZDMSYJLCYDK-UHFFFAOYSA-N

> <PUBCHEM_XLOGP3_AA>
2.4

> <PUBCHEM_EXACT_MASS>
218.057909

> <PUBCHEM_MOLECULAR_FORMULA>
C12H10O4

> <PUBCHEM_MOLECULAR_WEIGHT>
218.2054

> <PUBCHEM_OPENEYE_CAN_SMILES>
C1=CC=C(C(=C1)O)OC2=CC=CC(=C2O)O

> <PUBCHEM_OPENEYE_ISO_SMILES>
C1=CC=C(C(=C1)O)OC2=CC=CC(=C2O)O

> <PUBCHEM_CACTVS_TPSA>
69.9

> <PUBCHEM_MONOISOTOPIC_WEIGHT>
218.057909

> <PUBCHEM_TOTAL_CHARGE>
0

> <PUBCHEM_HEAVY_ATOM_COUNT>
16

> <PUBCHEM_ATOM_DEF_STEREO_COUNT>
0

> <PUBCHEM_ATOM_UDEF_STEREO_COUNT>
0

> <PUBCHEM_BOND_DEF_STEREO_COUNT>
0

> <PUBCHEM_BOND_UDEF_STEREO_COUNT>
0

> <PUBCHEM_ISOTOPIC_ATOM_COUNT>
0

> <PUBCHEM_COMPONENT_COUNT>
1

> <PUBCHEM_CACTVS_TAUTO_COUNT>
23

> <PUBCHEM_COORDINATE_TYPE>
1
5
255

> <PUBCHEM_BONDANNOTATIONS>
10  13  8
11  15  8
12  13  8
14  16  8
15  16  8
5  7  8
5  8  8
6  11  8
6  9  8
7  10  8
8  12  8
9  14  8

$$$$

