443107
  -OEChem-07051213012D

106106  0     1  0  0  0  0  0999 V2000
    5.4641    2.1550    0.0000 O   0  0  0  0  0  0  0  0  0  0  0  0
    8.0622   -0.3450    0.0000 O   0  0  0  0  0  0  0  0  0  0  0  0
    4.5981    2.6550    0.0000 O   0  0  0  0  0  0  0  0  0  0  0  0
    8.9282   -0.8450    0.0000 O   0  0  0  0  0  0  0  0  0  0  0  0
    3.7320    2.1550    0.0000 O   0  0  0  0  0  0  0  0  0  0  0  0
   11.5263   -3.3450    0.0000 O   0  0  0  0  0  0  0  0  0  0  0  0
    9.7942   -6.3450    0.0000 O   0  0  0  0  0  0  0  0  0  0  0  0
    7.1962    2.1550    0.0000 N   0  0  0  0  0  0  0  0  0  0  0  0
    8.9282    1.1550    0.0000 N   0  0  0  0  0  0  0  0  0  0  0  0
    5.4641    4.1550    0.0000 N   0  0  0  0  0  0  0  0  0  0  0  0
    2.8660    3.6550    0.0000 N   0  0  0  0  0  0  0  0  0  0  0  0
   10.6603   -0.8450    0.0000 N   0  0  0  0  0  0  0  0  0  0  0  0
   12.3923   -1.8450    0.0000 N   0  0  0  0  0  0  0  0  0  0  0  0
    7.1962    1.1550    0.0000 C   0  0  3  0  0  0  0  0  0  0  0  0
    6.3301    3.6550    0.0000 C   0  0  3  0  0  0  0  0  0  0  0  0
    6.3301    0.6550    0.0000 C   0  0  0  0  0  0  0  0  0  0  0  0
    7.1962    4.1550    0.0000 C   0  0  0  0  0  0  0  0  0  0  0  0
    6.3301   -0.3450    0.0000 C   0  0  0  0  0  0  0  0  0  0  0  0
    9.7942    0.6550    0.0000 C   0  0  3  0  0  0  0  0  0  0  0  0
    7.1962    5.1550    0.0000 C   0  0  0  0  0  0  0  0  0  0  0  0
   10.6603    1.1550    0.0000 C   0  0  0  0  0  0  0  0  0  0  0  0
    6.3301    2.6550    0.0000 C   0  0  0  0  0  0  0  0  0  0  0  0
    8.0622    0.6550    0.0000 C   0  0  0  0  0  0  0  0  0  0  0  0
   10.6603    2.1550    0.0000 C   0  0  0  0  0  0  0  0  0  0  0  0
    3.7320    4.1550    0.0000 C   0  0  3  0  0  0  0  0  0  0  0  0
    3.7320    5.1550    0.0000 C   0  0  0  0  0  0  0  0  0  0  0  0
    2.8660    5.6550    0.0000 C   0  0  0  0  0  0  0  0  0  0  0  0
    4.5981    3.6550    0.0000 C   0  0  0  0  0  0  0  0  0  0  0  0
    5.4641   -0.8450    0.0000 C   0  0  0  0  0  0  0  0  0  0  0  0
    7.1962   -0.8450    0.0000 C   0  0  0  0  0  0  0  0  0  0  0  0
    9.7942   -0.3450    0.0000 C   0  0  0  0  0  0  0  0  0  0  0  0
    8.0622    5.6550    0.0000 C   0  0  0  0  0  0  0  0  0  0  0  0
    6.3301    5.6550    0.0000 C   0  0  0  0  0  0  0  0  0  0  0  0
   11.5263    2.6550    0.0000 C   0  0  0  0  0  0  0  0  0  0  0  0
    9.7942    2.6550    0.0000 C   0  0  0  0  0  0  0  0  0  0  0  0
   10.6603   -1.8450    0.0000 C   0  0  3  0  0  0  0  0  0  0  0  0
    2.8660    6.6550    0.0000 C   0  0  0  0  0  0  0  0  0  0  0  0
    2.0000    5.1550    0.0000 C   0  0  0  0  0  0  0  0  0  0  0  0
    9.7942   -2.3450    0.0000 C   0  0  0  0  0  0  0  0  0  0  0  0
    2.8660    2.6550    0.0000 C   0  0  0  0  0  0  0  0  0  0  0  0
   11.5263   -2.3450    0.0000 C   0  0  0  0  0  0  0  0  0  0  0  0
    9.7942   -3.3450    0.0000 C   0  0  0  0  0  0  0  0  0  0  0  0
    2.0000    2.1550    0.0000 C   0  0  0  0  0  0  0  0  0  0  0  0
    8.9282   -3.8450    0.0000 C   0  0  0  0  0  0  0  0  0  0  0  0
   10.6603   -3.8450    0.0000 C   0  0  0  0  0  0  0  0  0  0  0  0
    8.9282   -4.8450    0.0000 C   0  0  0  0  0  0  0  0  0  0  0  0
   10.6603   -4.8450    0.0000 C   0  0  0  0  0  0  0  0  0  0  0  0
    9.7942   -5.3450    0.0000 C   0  0  0  0  0  0  0  0  0  0  0  0
    6.6592    1.4650    0.0000 H   0  0  0  0  0  0  0  0  0  0  0  0
    5.7932    3.3450    0.0000 H   0  0  0  0  0  0  0  0  0  0  0  0
    6.1181    1.2376    0.0000 H   0  0  0  0  0  0  0  0  0  0  0  0
    5.7196    0.5473    0.0000 H   0  0  0  0  0  0  0  0  0  0  0  0
    7.4082    3.5724    0.0000 H   0  0  0  0  0  0  0  0  0  0  0  0
    7.8067    4.2627    0.0000 H   0  0  0  0  0  0  0  0  0  0  0  0
    6.8671   -0.0350    0.0000 H   0  0  0  0  0  0  0  0  0  0  0  0
    9.2573    0.3450    0.0000 H   0  0  0  0  0  0  0  0  0  0  0  0
    6.6592    4.8450    0.0000 H   0  0  0  0  0  0  0  0  0  0  0  0
   10.8723    0.5724    0.0000 H   0  0  0  0  0  0  0  0  0  0  0  0
   11.2708    1.2627    0.0000 H   0  0  0  0  0  0  0  0  0  0  0  0
    7.7331    2.4650    0.0000 H   0  0  0  0  0  0  0  0  0  0  0  0
   11.1972    1.8450    0.0000 H   0  0  0  0  0  0  0  0  0  0  0  0
    3.1951    4.4650    0.0000 H   0  0  0  0  0  0  0  0  0  0  0  0
    8.9282    1.7750    0.0000 H   0  0  0  0  0  0  0  0  0  0  0  0
    5.4641    4.7750    0.0000 H   0  0  0  0  0  0  0  0  0  0  0  0
    4.3426    5.0473    0.0000 H   0  0  0  0  0  0  0  0  0  0  0  0
    3.9441    5.7376    0.0000 H   0  0  0  0  0  0  0  0  0  0  0  0
    2.8660    5.0350    0.0000 H   0  0  0  0  0  0  0  0  0  0  0  0
    6.8862   -1.3819    0.0000 H   0  0  0  0  0  0  0  0  0  0  0  0
    7.7331   -1.1550    0.0000 H   0  0  0  0  0  0  0  0  0  0  0  0
    7.5062   -0.3081    0.0000 H   0  0  0  0  0  0  0  0  0  0  0  0
    5.1541   -0.3081    0.0000 H   0  0  0  0  0  0  0  0  0  0  0  0
    4.9272   -1.1550    0.0000 H   0  0  0  0  0  0  0  0  0  0  0  0
    5.7741   -1.3819    0.0000 H   0  0  0  0  0  0  0  0  0  0  0  0
    8.3722    5.1181    0.0000 H   0  0  0  0  0  0  0  0  0  0  0  0
    8.5991    5.9650    0.0000 H   0  0  0  0  0  0  0  0  0  0  0  0
    7.7522    6.1919    0.0000 H   0  0  0  0  0  0  0  0  0  0  0  0
    6.6401    6.1919    0.0000 H   0  0  0  0  0  0  0  0  0  0  0  0
    5.7932    5.9650    0.0000 H   0  0  0  0  0  0  0  0  0  0  0  0
    6.0201    5.1181    0.0000 H   0  0  0  0  0  0  0  0  0  0  0  0
   11.8363    2.1181    0.0000 H   0  0  0  0  0  0  0  0  0  0  0  0
   12.0632    2.9650    0.0000 H   0  0  0  0  0  0  0  0  0  0  0  0
   11.2163    3.1919    0.0000 H   0  0  0  0  0  0  0  0  0  0  0  0
   10.1042    3.1919    0.0000 H   0  0  0  0  0  0  0  0  0  0  0  0
    9.2573    2.9650    0.0000 H   0  0  0  0  0  0  0  0  0  0  0  0
    9.4842    2.1181    0.0000 H   0  0  0  0  0  0  0  0  0  0  0  0
    2.3291    3.9650    0.0000 H   0  0  0  0  0  0  0  0  0  0  0  0
   11.1972   -0.5350    0.0000 H   0  0  0  0  0  0  0  0  0  0  0  0
   11.1972   -1.5350    0.0000 H   0  0  0  0  0  0  0  0  0  0  0  0
    3.4860    6.6550    0.0000 H   0  0  0  0  0  0  0  0  0  0  0  0
    2.8660    7.2750    0.0000 H   0  0  0  0  0  0  0  0  0  0  0  0
    2.2460    6.6550    0.0000 H   0  0  0  0  0  0  0  0  0  0  0  0
    1.6900    5.6919    0.0000 H   0  0  0  0  0  0  0  0  0  0  0  0
    1.4631    4.8450    0.0000 H   0  0  0  0  0  0  0  0  0  0  0  0
    2.3100    4.6181    0.0000 H   0  0  0  0  0  0  0  0  0  0  0  0
    9.5822   -1.7624    0.0000 H   0  0  0  0  0  0  0  0  0  0  0  0
    9.1836   -2.4527    0.0000 H   0  0  0  0  0  0  0  0  0  0  0  0
    1.6900    2.6919    0.0000 H   0  0  0  0  0  0  0  0  0  0  0  0
    1.4631    1.8450    0.0000 H   0  0  0  0  0  0  0  0  0  0  0  0
    2.3100    1.6181    0.0000 H   0  0  0  0  0  0  0  0  0  0  0  0
    8.3913   -3.5350    0.0000 H   0  0  0  0  0  0  0  0  0  0  0  0
   11.1972   -3.5350    0.0000 H   0  0  0  0  0  0  0  0  0  0  0  0
   12.9292   -2.1550    0.0000 H   0  0  0  0  0  0  0  0  0  0  0  0
   12.3923   -1.2250    0.0000 H   0  0  0  0  0  0  0  0  0  0  0  0
    8.3913   -5.1550    0.0000 H   0  0  0  0  0  0  0  0  0  0  0  0
   11.1972   -5.1550    0.0000 H   0  0  0  0  0  0  0  0  0  0  0  0
    9.2573   -6.6550    0.0000 H   0  0  0  0  0  0  0  0  0  0  0  0
  1 22  2  0  0  0  0
  2 23  2  0  0  0  0
  3 28  2  0  0  0  0
  4 31  2  0  0  0  0
  5 40  2  0  0  0  0
  6 41  2  0  0  0  0
  7 48  1  0  0  0  0
  7106  1  0  0  0  0
  8 14  1  0  0  0  0
  8 22  1  0  0  0  0
  8 60  1  0  0  0  0
  9 19  1  0  0  0  0
  9 23  1  0  0  0  0
  9 63  1  0  0  0  0
 10 15  1  0  0  0  0
 10 28  1  0  0  0  0
 10 64  1  0  0  0  0
 11 25  1  0  0  0  0
 11 40  1  0  0  0  0
 11 86  1  0  0  0  0
 12 31  1  0  0  0  0
 12 36  1  0  0  0  0
 12 87  1  0  0  0  0
 13 41  1  0  0  0  0
 13102  1  0  0  0  0
 13103  1  0  0  0  0
 14 16  1  0  0  0  0
 14 23  1  0  0  0  0
 14 49  1  0  0  0  0
 15 17  1  0  0  0  0
 15 22  1  0  0  0  0
 15 50  1  0  0  0  0
 16 18  1  0  0  0  0
 16 51  1  0  0  0  0
 16 52  1  0  0  0  0
 17 20  1  0  0  0  0
 17 53  1  0  0  0  0
 17 54  1  0  0  0  0
 18 29  1  0  0  0  0
 18 30  1  0  0  0  0
 18 55  1  0  0  0  0
 19 21  1  0  0  0  0
 19 31  1  0  0  0  0
 19 56  1  0  0  0  0
 20 32  1  0  0  0  0
 20 33  1  0  0  0  0
 20 57  1  0  0  0  0
 21 24  1  0  0  0  0
 21 58  1  0  0  0  0
 21 59  1  0  0  0  0
 24 34  1  0  0  0  0
 24 35  1  0  0  0  0
 24 61  1  0  0  0  0
 25 26  1  0  0  0  0
 25 28  1  0  0  0  0
 25 62  1  0  0  0  0
 26 27  1  0  0  0  0
 26 65  1  0  0  0  0
 26 66  1  0  0  0  0
 27 37  1  0  0  0  0
 27 38  1  0  0  0  0
 27 67  1  0  0  0  0
 29 71  1  0  0  0  0
 29 72  1  0  0  0  0
 29 73  1  0  0  0  0
 30 68  1  0  0  0  0
 30 69  1  0  0  0  0
 30 70  1  0  0  0  0
 32 74  1  0  0  0  0
 32 75  1  0  0  0  0
 32 76  1  0  0  0  0
 33 77  1  0  0  0  0
 33 78  1  0  0  0  0
 33 79  1  0  0  0  0
 34 80  1  0  0  0  0
 34 81  1  0  0  0  0
 34 82  1  0  0  0  0
 35 83  1  0  0  0  0
 35 84  1  0  0  0  0
 35 85  1  0  0  0  0
 36 39  1  0  0  0  0
 36 41  1  0  0  0  0
 36 88  1  0  0  0  0
 37 89  1  0  0  0  0
 37 90  1  0  0  0  0
 37 91  1  0  0  0  0
 38 92  1  0  0  0  0
 38 93  1  0  0  0  0
 38 94  1  0  0  0  0
 39 42  1  0  0  0  0
 39 95  1  0  0  0  0
 39 96  1  0  0  0  0
 40 43  1  0  0  0  0
 42 44  2  0  0  0  0
 42 45  1  0  0  0  0
 43 97  1  0  0  0  0
 43 98  1  0  0  0  0
 43 99  1  0  0  0  0
 44 46  1  0  0  0  0
 44100  1  0  0  0  0
 45 47  2  0  0  0  0
 45101  1  0  0  0  0
 46 48  2  0  0  0  0
 46104  1  0  0  0  0
 47 48  1  0  0  0  0
 47105  1  0  0  0  0
M  END
> <PUBCHEM_COMPOUND_CID>
443107

> <PUBCHEM_COMPOUND_CANONICALIZED>
1

> <PUBCHEM_CACTVS_COMPLEXITY>
1070

> <PUBCHEM_CACTVS_HBOND_ACCEPTOR>
7

> <PUBCHEM_CACTVS_HBOND_DONOR>
7

> <PUBCHEM_CACTVS_ROTATABLE_BOND>
20

> <PUBCHEM_CACTVS_SUBSKEYS>
AAADcfB/uAAAAAAAAAAAAAAAAAAAAAAAAAAwAAAAAAAAAAABAAAAHgAQCAAADSzBmAQyBoLAAgCIAiFSEAACAAAgIAAIiIGOCIgIZjKCkTOUcAAk1hGImAeYyKCOIAAAAAAAAABAAAAAAAAAAAAAAAAAAA==

> <PUBCHEM_IUPAC_OPENEYE_NAME>
2-acetamido-N-[1-[[1-[[1-[[2-amino-1-[(4-hydroxyphenyl)methyl]-2-oxo-ethyl]carbamoyl]-3-methyl-butyl]carbamoyl]-3-methyl-butyl]carbamoyl]-3-methyl-butyl]-4-methyl-pentanamide

> <PUBCHEM_IUPAC_CAS_NAME>
2-acetamido-N-[1-[[1-[[1-[[1-amino-3-(4-hydroxyphenyl)-1-oxopropan-2-yl]amino]-4-methyl-1-oxopentan-2-yl]amino]-4-methyl-1-oxopentan-2-yl]amino]-4-methyl-1-oxopentan-2-yl]-4-methylpentanamide

> <PUBCHEM_IUPAC_NAME>
2-acetamido-N-[1-[[1-[[1-[[1-amino-3-(4-hydroxyphenyl)-1-oxopropan-2-yl]amino]-4-methyl-1-oxopentan-2-yl]amino]-4-methyl-1-oxopentan-2-yl]amino]-4-methyl-1-oxopentan-2-yl]-4-methylpentanamide

> <PUBCHEM_IUPAC_SYSTEMATIC_NAME>
2-acetamido-N-[1-[[1-[[1-[[1-azanyl-3-(4-hydroxyphenyl)-1-oxidanylidene-propan-2-yl]amino]-4-methyl-1-oxidanylidene-pentan-2-yl]amino]-4-methyl-1-oxidanylidene-pentan-2-yl]amino]-4-methyl-1-oxidanylidene-pentan-2-yl]-4-methyl-pentanamide

> <PUBCHEM_IUPAC_TRADITIONAL_NAME>
2-acetamido-N-[1-[[1-[[1-[[2-amino-1-(4-hydroxybenzyl)-2-keto-ethyl]carbamoyl]-3-methyl-butyl]carbamoyl]-3-methyl-butyl]carbamoyl]-3-methyl-butyl]-4-methyl-valeramide

> <PUBCHEM_IUPAC_INCHI>
InChI=1S/C35H58N6O7/c1-19(2)14-27(37-23(9)42)32(45)39-29(16-21(5)6)34(47)41-30(17-22(7)8)35(48)40-28(15-20(3)4)33(46)38-26(31(36)44)18-24-10-12-25(43)13-11-24/h10-13,19-22,26-30,43H,14-18H2,1-9H3,(H2,36,44)(H,37,42)(H,38,46)(H,39,45)(H,40,48)(H,41,47)

> <PUBCHEM_IUPAC_INCHIKEY>
UDNYENJTSAIONB-UHFFFAOYSA-N

> <PUBCHEM_XLOGP3>
3.5

> <PUBCHEM_EXACT_MASS>
674.436698

> <PUBCHEM_MOLECULAR_FORMULA>
C35H58N6O7

> <PUBCHEM_MOLECULAR_WEIGHT>
674.87102

> <PUBCHEM_OPENEYE_CAN_SMILES>
CC(C)CC(C(=O)NC(CC(C)C)C(=O)NC(CC(C)C)C(=O)NC(CC(C)C)C(=O)NC(CC1=CC=C(C=C1)O)C(=O)N)NC(=O)C

> <PUBCHEM_OPENEYE_ISO_SMILES>
CC(C)CC(C(=O)NC(CC(C)C)C(=O)NC(CC(C)C)C(=O)NC(CC(C)C)C(=O)NC(CC1=CC=C(C=C1)O)C(=O)N)NC(=O)C

> <PUBCHEM_CACTVS_TPSA>
209

> <PUBCHEM_MONOISOTOPIC_WEIGHT>
674.436698

> <PUBCHEM_TOTAL_CHARGE>
0

> <PUBCHEM_HEAVY_ATOM_COUNT>
48

> <PUBCHEM_ATOM_DEF_STEREO_COUNT>
0

> <PUBCHEM_ATOM_UDEF_STEREO_COUNT>
5

> <PUBCHEM_BOND_DEF_STEREO_COUNT>
0

> <PUBCHEM_BOND_UDEF_STEREO_COUNT>
0

> <PUBCHEM_ISOTOPIC_ATOM_COUNT>
0

> <PUBCHEM_COMPONENT_COUNT>
1

> <PUBCHEM_CACTVS_TAUTO_COUNT>
192

> <PUBCHEM_COORDINATE_TYPE>
1
5
255

> <PUBCHEM_BONDANNOTATIONS>
14  16  3
15  17  3
19  21  3
25  26  3
36  39  3
42  44  8
42  45  8
44  46  8
45  47  8
46  48  8
47  48  8

$$$$

