11954134
  -OEChem-07051213072D

 22 24  0     0  0  0  0  0  0999 V2000
    6.9942    2.1678    0.0000 Cl  0  0  0  0  0  0  0  0  0  0  0  0
    2.0000   -1.2918    0.0000 Cl  0  0  0  0  0  0  0  0  0  0  0  0
    4.8717    1.5687    0.0000 O   0  0  0  0  0  0  0  0  0  0  0  0
    5.7367   -1.7023    0.0000 O   0  0  0  0  0  0  0  0  0  0  0  0
    5.3717    0.0299    0.0000 C   0  0  0  0  0  0  0  0  0  0  0  0
    4.3717    0.0299    0.0000 C   0  0  0  0  0  0  0  0  0  0  0  0
    5.6808    0.9810    0.0000 C   0  0  0  0  0  0  0  0  0  0  0  0
    4.0627    0.9810    0.0000 C   0  0  0  0  0  0  0  0  0  0  0  0
    6.0567   -0.7548    0.0000 C   0  0  0  0  0  0  0  0  0  0  0  0
    3.6868   -0.7548    0.0000 C   0  0  0  0  0  0  0  0  0  0  0  0
    6.6962    1.2132    0.0000 C   0  0  0  0  0  0  0  0  0  0  0  0
    3.0473    1.2132    0.0000 C   0  0  0  0  0  0  0  0  0  0  0  0
    7.0772   -0.5461    0.0000 C   0  0  0  0  0  0  0  0  0  0  0  0
    7.3991    0.4445    0.0000 C   0  0  0  0  0  0  0  0  0  0  0  0
    2.6663   -0.5461    0.0000 C   0  0  0  0  0  0  0  0  0  0  0  0
    2.3444    0.4445    0.0000 C   0  0  0  0  0  0  0  0  0  0  0  0
    3.8852   -1.3422    0.0000 H   0  0  0  0  0  0  0  0  0  0  0  0
    2.8626    1.8050    0.0000 H   0  0  0  0  0  0  0  0  0  0  0  0
    7.4903   -1.0085    0.0000 H   0  0  0  0  0  0  0  0  0  0  0  0
    8.0050    0.5758    0.0000 H   0  0  0  0  0  0  0  0  0  0  0  0
    1.7384    0.5758    0.0000 H   0  0  0  0  0  0  0  0  0  0  0  0
    6.1462   -2.1678    0.0000 H   0  0  0  0  0  0  0  0  0  0  0  0
  1 11  1  0  0  0  0
  2 15  1  0  0  0  0
  3  7  1  0  0  0  0
  3  8  1  0  0  0  0
  4  9  1  0  0  0  0
  4 22  1  0  0  0  0
  5  6  1  0  0  0  0
  5  7  1  0  0  0  0
  5  9  2  0  0  0  0
  6  8  2  0  0  0  0
  6 10  1  0  0  0  0
  7 11  2  0  0  0  0
  8 12  1  0  0  0  0
  9 13  1  0  0  0  0
 10 15  2  0  0  0  0
 10 17  1  0  0  0  0
 11 14  1  0  0  0  0
 12 16  2  0  0  0  0
 12 18  1  0  0  0  0
 13 14  2  0  0  0  0
 13 19  1  0  0  0  0
 14 20  1  0  0  0  0
 15 16  1  0  0  0  0
 16 21  1  0  0  0  0
M  END
> <PUBCHEM_COMPOUND_CID>
11954134

> <PUBCHEM_COMPOUND_CANONICALIZED>
1

> <PUBCHEM_CACTVS_COMPLEXITY>
274

> <PUBCHEM_CACTVS_HBOND_ACCEPTOR>
2

> <PUBCHEM_CACTVS_HBOND_DONOR>
1

> <PUBCHEM_CACTVS_ROTATABLE_BOND>
0

> <PUBCHEM_CACTVS_SUBSKEYS>
AAADcYBwMAAGAAAAAAAAAAAAAAAAASAAAAAwYAAAAAAAAEgB/AAAGgIACAAADAaAmCAwBsAABkCIAqBSAAACCAAkJUAIiAEGC8hMJzeHNxqCeWCl4BUIuYfK7OzOgCAAKAAICAAAQABQABAQAAAAAAAAAA==

> <PUBCHEM_IUPAC_OPENEYE_NAME>
4,8-dichlorodibenzofuran-1-ol

> <PUBCHEM_IUPAC_CAS_NAME>
4,8-dichloro-1-dibenzofuranol

> <PUBCHEM_IUPAC_NAME>
4,8-dichlorodibenzofuran-1-ol

> <PUBCHEM_IUPAC_SYSTEMATIC_NAME>
4,8-bis(chloranyl)dibenzofuran-1-ol

> <PUBCHEM_IUPAC_TRADITIONAL_NAME>
4,8-dichlorodibenzofuran-1-ol

> <PUBCHEM_IUPAC_INCHI>
InChI=1S/C12H6Cl2O2/c13-6-1-4-10-7(5-6)11-9(15)3-2-8(14)12(11)16-10/h1-5,15H

> <PUBCHEM_IUPAC_INCHIKEY>
OWUKZTGSLORTKY-UHFFFAOYSA-N

> <PUBCHEM_XLOGP3>
4.5

> <PUBCHEM_EXACT_MASS>
251.974485

> <PUBCHEM_MOLECULAR_FORMULA>
C12H6Cl2O2

> <PUBCHEM_MOLECULAR_WEIGHT>
253.08084

> <PUBCHEM_OPENEYE_CAN_SMILES>
C1=CC2=C(C=C1Cl)C3=C(C=CC(=C3O2)Cl)O

> <PUBCHEM_OPENEYE_ISO_SMILES>
C1=CC2=C(C=C1Cl)C3=C(C=CC(=C3O2)Cl)O

> <PUBCHEM_CACTVS_TPSA>
33.4

> <PUBCHEM_MONOISOTOPIC_WEIGHT>
251.974485

> <PUBCHEM_TOTAL_CHARGE>
0

> <PUBCHEM_HEAVY_ATOM_COUNT>
16

> <PUBCHEM_ATOM_DEF_STEREO_COUNT>
0

> <PUBCHEM_ATOM_UDEF_STEREO_COUNT>
0

> <PUBCHEM_BOND_DEF_STEREO_COUNT>
0

> <PUBCHEM_BOND_UDEF_STEREO_COUNT>
0

> <PUBCHEM_ISOTOPIC_ATOM_COUNT>
0

> <PUBCHEM_COMPONENT_COUNT>
1

> <PUBCHEM_CACTVS_TAUTO_COUNT>
2

> <PUBCHEM_COORDINATE_TYPE>
1
5
255

> <PUBCHEM_BONDANNOTATIONS>
10  15  8
11  14  8
12  16  8
13  14  8
15  16  8
3  7  8
3  8  8
5  6  8
5  7  8
5  9  8
6  10  8
6  8  8
7  11  8
8  12  8
9  13  8

$$$$

