   Color/Form

     * Very pale yellow crystals
     * Yellow rhombic leaflets

   from [1]HSDB

   Melting Point
        222-223 deg C
   from [2]HSDB

   Dissociation Constants
        pKa = 2.79
   from [3]HSDB

   Octanol/Water Partition Coefficient
        log Kow = 3.05
   from [4]HSDB

   Solubilities

     * Sol in benzene, chloroform, alkaline soln; freely soluble in
       alcohol and ether
     * SOL IN TOLUENE
     * 0.1 wt% in water at 25 deg C

   from [5]HSDB

   Spectral Properties

     * MAX ABSORPTION (ALCOHOL): 232 NM (LOG E= 4.80), 266 NM (LOG E=
       3.78), 328 NM (LOG E= 3.28)
     * IR: 1829 (Sadtler Research Laboratories Prism Collection)
     * UV: 514 (Sadtler Research Laboratories Spectral Collection)
     * NMR: 9270 (Sadtler Research Laboratories Prism Collection)

   from [6]HSDB

   Other Chemical/Physical Properties
        Lemon to greenish yellow, odorless powder, MP: 218 deg C (minimum)
   /Commercial product, 98% purity/
   from [7]HSDB

   Computed Properties
   Molecular Weight                  188.17942 [g/mol]
   Molecular Formula                 C[11]H[8]O[3]
   XLogP3-AA                         2.9
   H-Bond Donor                      2
   H-Bond Acceptor                   3
   Rotatable Bond Count              1
   Tautomer Count                    5
   Exact Mass                        188.047344
   MonoIsotopic Mass                 188.047344
   Topological Polar Surface Area    57.5
   Heavy Atom Count                  14
   Formal Charge                     0
   Complexity                        227
   Isotope Atom Count                0
   Defined Atom Stereocenter Count   0
   Undefined Atom Stereocenter Count 0
   Defined Bond Stereocenter Count   0
   Undefined Bond Stereocenter Count 0
   Covalently-Bonded Unit Count      1
   Feature 3D Acceptor Count         2
   Feature 3D Donor Count            1
   Feature 3D Anion Count            1
   Feature 3D Ring Count             2
   Effective Rotor Count             1
   Conformer Sampling RMSD           0.4
   CID Conformer Count               [8]3

References

   1. http://toxnet.nlm.nih.gov/cgi-bin/sis/search/r?dbs+hsdb:@term+@rn+@rel+92-70-6
   2. http://toxnet.nlm.nih.gov/cgi-bin/sis/search/r?dbs+hsdb:@term+@rn+@rel+92-70-6
   3. http://toxnet.nlm.nih.gov/cgi-bin/sis/search/r?dbs+hsdb:@term+@rn+@rel+92-70-6
   4. http://toxnet.nlm.nih.gov/cgi-bin/sis/search/r?dbs+hsdb:@term+@rn+@rel+92-70-6
   5. http://toxnet.nlm.nih.gov/cgi-bin/sis/search/r?dbs+hsdb:@term+@rn+@rel+92-70-6
   6. http://toxnet.nlm.nih.gov/cgi-bin/sis/search/r?dbs+hsdb:@term+@rn+@rel+92-70-6
   7. http://toxnet.nlm.nih.gov/cgi-bin/sis/search/r?dbs+hsdb:@term+@rn+@rel+92-70-6
   8. http://pubchem.ncbi.nlm.nih.gov/vw3d/vw3d.cgi?cid=7104
