442128
  -OEChem-07051212572D

 52 54  0     1  0  0  0  0  0999 V2000
    6.3624   -2.1249    0.0000 O   0  0  0  0  0  0  0  0  0  0  0  0
    4.5923   -0.0661    0.0000 O   0  0  0  0  0  0  0  0  0  0  0  0
    6.3740    0.9443    0.0000 O   0  0  0  0  0  0  0  0  0  0  0  0
    8.1063    0.9513    0.0000 O   0  0  0  0  0  0  0  0  0  0  0  0
    3.7205   -1.5628    0.0000 O   0  0  0  0  0  0  0  0  0  0  0  0
    4.6421    0.9644    0.0000 O   0  0  0  0  0  0  0  0  0  0  0  0
    9.0005    2.4790    0.0000 O   0  0  0  0  0  0  0  0  0  0  0  0
    5.4564   -1.6111    0.0000 C   0  0  0  0  0  0  0  0  0  0  0  0
    5.4564   -0.5694    0.0000 C   0  0  1  0  0  0  0  0  0  0  0  0
    6.3624   -0.0556    0.0000 C   0  0  1  0  0  0  0  0  0  0  0  0
    7.2564   -0.5902    0.0000 C   0  0  0  0  0  0  0  0  0  0  0  0
    7.2564   -1.5902    0.0000 C   0  0  0  0  0  0  0  0  0  0  0  0
    4.9597   -2.4790    0.0000 C   0  0  0  0  0  0  0  0  0  0  0  0
    4.4564   -1.6149    0.0000 C   0  0  0  0  0  0  0  0  0  0  0  0
    8.1224   -0.0902    0.0000 C   0  0  0  0  0  0  0  0  0  0  0  0
    8.1224   -2.0902    0.0000 C   0  0  0  0  0  0  0  0  0  0  0  0
    8.9884   -0.5902    0.0000 C   0  0  0  0  0  0  0  0  0  0  0  0
    3.7243   -0.5628    0.0000 C   0  0  0  0  0  0  0  0  0  0  0  0
    8.9884   -1.5902    0.0000 C   0  0  0  0  0  0  0  0  0  0  0  0
    2.8602   -0.0594    0.0000 C   0  0  0  0  0  0  0  0  0  0  0  0
    2.8641    0.9406    0.0000 C   0  0  0  0  0  0  0  0  0  0  0  0
    5.5138    1.4543    0.0000 C   0  0  0  0  0  0  0  0  0  0  0  0
    9.8984   -0.0834    0.0000 C   0  0  0  0  0  0  0  0  0  0  0  0
    9.0044    1.4790    0.0000 C   0  0  0  0  0  0  0  0  0  0  0  0
    2.0000    1.4439    0.0000 C   0  0  0  0  0  0  0  0  0  0  0  0
    3.7320    1.4372    0.0000 C   0  0  0  0  0  0  0  0  0  0  0  0
    9.9065    0.9582    0.0000 C   0  0  0  0  0  0  0  0  0  0  0  0
    5.5254    2.4543    0.0000 C   0  0  0  0  0  0  0  0  0  0  0  0
    5.4600    0.0506    0.0000 H   0  0  0  0  0  0  0  0  0  0  0  0
    5.8285    0.2596    0.0000 H   0  0  0  0  0  0  0  0  0  0  0  0
    4.4540   -0.9949    0.0000 H   0  0  0  0  0  0  0  0  0  0  0  0
    3.8364   -1.6173    0.0000 H   0  0  0  0  0  0  0  0  0  0  0  0
    4.4588   -2.2349    0.0000 H   0  0  0  0  0  0  0  0  0  0  0  0
    4.4216   -2.1711    0.0000 H   0  0  0  0  0  0  0  0  0  0  0  0
    4.6518   -3.0171    0.0000 H   0  0  0  0  0  0  0  0  0  0  0  0
    5.4978   -2.7869    0.0000 H   0  0  0  0  0  0  0  0  0  0  0  0
    8.1224   -2.7102    0.0000 H   0  0  0  0  0  0  0  0  0  0  0  0
    9.5254   -1.9002    0.0000 H   0  0  0  0  0  0  0  0  0  0  0  0
    2.2501    0.0506    0.0000 H   0  0  0  0  0  0  0  0  0  0  0  0
    2.6459   -0.6412    0.0000 H   0  0  0  0  0  0  0  0  0  0  0  0
    2.3260    0.6326    0.0000 H   0  0  0  0  0  0  0  0  0  0  0  0
   10.4317   -0.3996    0.0000 H   0  0  0  0  0  0  0  0  0  0  0  0
    2.3121    1.9796    0.0000 H   0  0  0  0  0  0  0  0  0  0  0  0
    1.4643    1.7560    0.0000 H   0  0  0  0  0  0  0  0  0  0  0  0
    1.6879    0.9082    0.0000 H   0  0  0  0  0  0  0  0  0  0  0  0
    4.0400    0.8991    0.0000 H   0  0  0  0  0  0  0  0  0  0  0  0
    4.2702    1.7452    0.0000 H   0  0  0  0  0  0  0  0  0  0  0  0
    3.4241    1.9754    0.0000 H   0  0  0  0  0  0  0  0  0  0  0  0
   10.4446    1.2661    0.0000 H   0  0  0  0  0  0  0  0  0  0  0  0
    6.1453    2.4471    0.0000 H   0  0  0  0  0  0  0  0  0  0  0  0
    5.5325    3.0742    0.0000 H   0  0  0  0  0  0  0  0  0  0  0  0
    4.9054    2.4614    0.0000 H   0  0  0  0  0  0  0  0  0  0  0  0
  1  8  1  0  0  0  0
  1 12  1  0  0  0  0
  9  2  1  6  0  0  0
  2 18  1  0  0  0  0
 10  3  1  6  0  0  0
  3 22  1  0  0  0  0
  4 15  1  0  0  0  0
  4 24  1  0  0  0  0
  5 18  2  0  0  0  0
  6 22  2  0  0  0  0
  7 24  2  0  0  0  0
  8  9  1  0  0  0  0
  8 13  1  0  0  0  0
  8 14  1  0  0  0  0
  9 10  1  0  0  0  0
  9 29  1  0  0  0  0
 10 11  1  0  0  0  0
 10 30  1  0  0  0  0
 11 12  2  0  0  0  0
 11 15  1  0  0  0  0
 12 16  1  0  0  0  0
 13 34  1  0  0  0  0
 13 35  1  0  0  0  0
 13 36  1  0  0  0  0
 14 31  1  0  0  0  0
 14 32  1  0  0  0  0
 14 33  1  0  0  0  0
 15 17  2  0  0  0  0
 16 19  2  0  0  0  0
 16 37  1  0  0  0  0
 17 19  1  0  0  0  0
 17 23  1  0  0  0  0
 18 20  1  0  0  0  0
 19 38  1  0  0  0  0
 20 21  1  0  0  0  0
 20 39  1  0  0  0  0
 20 40  1  0  0  0  0
 21 25  1  0  0  0  0
 21 26  1  0  0  0  0
 21 41  1  0  0  0  0
 22 28  1  0  0  0  0
 23 27  2  0  0  0  0
 23 42  1  0  0  0  0
 24 27  1  0  0  0  0
 25 43  1  0  0  0  0
 25 44  1  0  0  0  0
 25 45  1  0  0  0  0
 26 46  1  0  0  0  0
 26 47  1  0  0  0  0
 26 48  1  0  0  0  0
 27 49  1  0  0  0  0
 28 50  1  0  0  0  0
 28 51  1  0  0  0  0
 28 52  1  0  0  0  0
M  END
> <PUBCHEM_COMPOUND_CID>
442128

> <PUBCHEM_COMPOUND_CANONICALIZED>
1

> <PUBCHEM_CACTVS_COMPLEXITY>
666

> <PUBCHEM_CACTVS_HBOND_ACCEPTOR>
7

> <PUBCHEM_CACTVS_HBOND_DONOR>
0

> <PUBCHEM_CACTVS_ROTATABLE_BOND>
6

> <PUBCHEM_CACTVS_SUBSKEYS>
AAADceB4OAAAAAAAAAAAAAAAAAAAAAAAAAA0QIAAAAAAAACRAAAAGgAAAAAADVSgmAIyDoAABACIAiDSCAACCAAgIAAIiAEGCMgNJzKEMRqCOiClwBUKqYfA4PwOIAACCAAIAABAAAQQABAAAAAAAAAAAA==

> <PUBCHEM_IUPAC_OPENEYE_NAME>
[(9R,10R)-10-acetoxy-8,8-dimethyl-2-oxo-9,10-dihydropyrano[2,3-f]chromen-9-yl] 3-methylbutanoate

> <PUBCHEM_IUPAC_CAS_NAME>
3-methylbutanoic acid [(9R,10R)-10-acetyloxy-8,8-dimethyl-2-oxo-9,10-dihydropyrano[2,3-f][1]benzopyran-9-yl] ester

> <PUBCHEM_IUPAC_NAME>
[(9R,10R)-10-acetyloxy-8,8-dimethyl-2-oxo-9,10-dihydropyrano[2,3-f]chromen-9-yl] 3-methylbutanoate

> <PUBCHEM_IUPAC_SYSTEMATIC_NAME>
[(9R,10R)-10-acetyloxy-8,8-dimethyl-2-oxidanylidene-9,10-dihydropyrano[2,3-f]chromen-9-yl] 3-methylbutanoate

> <PUBCHEM_IUPAC_TRADITIONAL_NAME>
3-methylbutyric acid [(9R,10R)-10-acetoxy-2-keto-8,8-dimethyl-9,10-dihydropyrano[2,3-f]chromen-9-yl] ester

> <PUBCHEM_IUPAC_INCHI>
InChI=1S/C21H24O7/c1-11(2)10-16(24)27-20-19(25-12(3)22)17-14(28-21(20,4)5)8-6-13-7-9-15(23)26-18(13)17/h6-9,11,19-20H,10H2,1-5H3/t19-,20-/m1/s1

> <PUBCHEM_IUPAC_INCHIKEY>
ALKTVPFKDYZFGA-WOJBJXKFSA-N

> <PUBCHEM_XLOGP3_AA>
3.2

> <PUBCHEM_EXACT_MASS>
388.152203

> <PUBCHEM_MOLECULAR_FORMULA>
C21H24O7

> <PUBCHEM_MOLECULAR_WEIGHT>
388.41106

> <PUBCHEM_OPENEYE_CAN_SMILES>
CC(C)CC(=O)OC1C(C2=C(C=CC3=C2OC(=O)C=C3)OC1(C)C)OC(=O)C

> <PUBCHEM_OPENEYE_ISO_SMILES>
CC(C)CC(=O)O[C@@H]1[C@@H](C2=C(C=CC3=C2OC(=O)C=C3)OC1(C)C)OC(=O)C

> <PUBCHEM_CACTVS_TPSA>
88.1

> <PUBCHEM_MONOISOTOPIC_WEIGHT>
388.152203

> <PUBCHEM_TOTAL_CHARGE>
0

> <PUBCHEM_HEAVY_ATOM_COUNT>
28

> <PUBCHEM_ATOM_DEF_STEREO_COUNT>
2

> <PUBCHEM_ATOM_UDEF_STEREO_COUNT>
0

> <PUBCHEM_BOND_DEF_STEREO_COUNT>
0

> <PUBCHEM_BOND_UDEF_STEREO_COUNT>
0

> <PUBCHEM_ISOTOPIC_ATOM_COUNT>
0

> <PUBCHEM_COMPONENT_COUNT>
1

> <PUBCHEM_CACTVS_TAUTO_COUNT>
1

> <PUBCHEM_COORDINATE_TYPE>
1
5
255

> <PUBCHEM_BONDANNOTATIONS>
11  12  8
11  15  8
12  16  8
15  17  8
16  19  8
17  19  8
17  23  8
9  2  6
23  27  8
24  27  8
10  3  6
4  15  8
4  24  8

$$$$

