8667
  -OEChem-06261202592D

 39 39  0     1  0  0  0  0  0999 V2000
    3.0332    0.0000    0.0000 Cl  0  0  0  0  0  0  0  0  0  0  0  0
    2.0948    5.0424    0.0000 S   0  0  0  0  0  0  0  0  0  0  0  0
    3.9313    6.0369    0.0000 N   0  0  3  0  0  0  0  0  0  0  0  0
    4.7974    3.5369    0.0000 N   0  0  0  0  0  0  0  0  0  0  0  0
    5.6634    6.0369    0.0000 N   0  0  0  0  0  0  0  0  0  0  0  0
    3.9313    5.0369    0.0000 C   0  0  0  0  0  0  0  0  0  0  0  0
    4.7974    4.5369    0.0000 C   0  0  0  0  0  0  0  0  0  0  0  0
    3.0653    6.5369    0.0000 C   0  0  0  0  0  0  0  0  0  0  0  0
    4.7974    6.5369    0.0000 C   0  0  0  0  0  0  0  0  0  0  0  0
    2.1993    6.0369    0.0000 C   0  0  0  0  0  0  0  0  0  0  0  0
    5.6634    3.0369    0.0000 C   0  0  0  0  0  0  0  0  0  0  0  0
    3.9313    3.0369    0.0000 C   0  0  0  0  0  0  0  0  0  0  0  0
    4.7974    7.5369    0.0000 C   0  0  0  0  0  0  0  0  0  0  0  0
    1.2857    6.4437    0.0000 C   0  0  0  0  0  0  0  0  0  0  0  0
    0.6166    5.7005    0.0000 C   0  0  0  0  0  0  0  0  0  0  0  0
    5.6634    8.0369    0.0000 C   0  0  0  0  0  0  0  0  0  0  0  0
    1.1166    4.8345    0.0000 C   0  0  0  0  0  0  0  0  0  0  0  0
    6.5294    6.5369    0.0000 C   0  0  0  0  0  0  0  0  0  0  0  0
    6.5294    7.5369    0.0000 C   0  0  0  0  0  0  0  0  0  0  0  0
    3.3208    5.1446    0.0000 H   0  0  0  0  0  0  0  0  0  0  0  0
    3.7193    4.4543    0.0000 H   0  0  0  0  0  0  0  0  0  0  0  0
    5.4079    4.4293    0.0000 H   0  0  0  0  0  0  0  0  0  0  0  0
    5.0094    5.1195    0.0000 H   0  0  0  0  0  0  0  0  0  0  0  0
    3.4638    7.0119    0.0000 H   0  0  0  0  0  0  0  0  0  0  0  0
    2.6668    7.0119    0.0000 H   0  0  0  0  0  0  0  0  0  0  0  0
    3.6213    3.5739    0.0000 H   0  0  0  0  0  0  0  0  0  0  0  0
    5.3534    2.5000    0.0000 H   0  0  0  0  0  0  0  0  0  0  0  0
    6.2003    2.7269    0.0000 H   0  0  0  0  0  0  0  0  0  0  0  0
    5.9734    3.5739    0.0000 H   0  0  0  0  0  0  0  0  0  0  0  0
    3.3944    2.7269    0.0000 H   0  0  0  0  0  0  0  0  0  0  0  0
    4.2413    2.5000    0.0000 H   0  0  0  0  0  0  0  0  0  0  0  0
    4.2604    7.8469    0.0000 H   0  0  0  0  0  0  0  0  0  0  0  0
    1.1568    7.0501    0.0000 H   0  0  0  0  0  0  0  0  0  0  0  0
    0.0000    5.7653    0.0000 H   0  0  0  0  0  0  0  0  0  0  0  0
    5.6634    8.6569    0.0000 H   0  0  0  0  0  0  0  0  0  0  0  0
    0.8644    4.2681    0.0000 H   0  0  0  0  0  0  0  0  0  0  0  0
    7.0663    6.2269    0.0000 H   0  0  0  0  0  0  0  0  0  0  0  0
    7.0663    7.8469    0.0000 H   0  0  0  0  0  0  0  0  0  0  0  0
    4.0332    0.0000    0.0000 H   0  0  0  0  0  0  0  0  0  0  0  0
  1 39  1  0  0  0  0
  2 10  1  0  0  0  0
  2 17  1  0  0  0  0
  3  6  1  0  0  0  0
  3  8  1  0  0  0  0
  3  9  1  0  0  0  0
  4  7  1  0  0  0  0
  4 11  1  0  0  0  0
  4 12  1  0  0  0  0
  5  9  1  0  0  0  0
  5 18  2  0  0  0  0
  6  7  1  0  0  0  0
  6 20  1  0  0  0  0
  6 21  1  0  0  0  0
  7 22  1  0  0  0  0
  7 23  1  0  0  0  0
  8 10  1  0  0  0  0
  8 24  1  0  0  0  0
  8 25  1  0  0  0  0
  9 13  2  0  0  0  0
 10 14  2  0  0  0  0
 11 27  1  0  0  0  0
 11 28  1  0  0  0  0
 11 29  1  0  0  0  0
 12 26  1  0  0  0  0
 12 30  1  0  0  0  0
 12 31  1  0  0  0  0
 13 16  1  0  0  0  0
 13 32  1  0  0  0  0
 14 15  1  0  0  0  0
 14 33  1  0  0  0  0
 15 17  2  0  0  0  0
 15 34  1  0  0  0  0
 16 19  2  0  0  0  0
 16 35  1  0  0  0  0
 17 36  1  0  0  0  0
 18 19  1  0  0  0  0
 18 37  1  0  0  0  0
 19 38  1  0  0  0  0
M  END
> <PUBCHEM_COMPOUND_CID>
8667

> <PUBCHEM_COMPOUND_CANONICALIZED>
1

> <PUBCHEM_CACTVS_COMPLEXITY>
235

> <PUBCHEM_CACTVS_HBOND_ACCEPTOR>
4

> <PUBCHEM_CACTVS_HBOND_DONOR>
1

> <PUBCHEM_CACTVS_ROTATABLE_BOND>
6

> <PUBCHEM_CACTVS_SUBSKEYS>
AAADceBzAABEAAAAAAAAAAAAAAAAASAAAAAsAAAAAAAAAAAB4AAAHAQAAAAACADFUgS/sZMIEAikADJnZACDgKkxCjBJ2Dg4ZJiIYOLgmZGUIAhogALoyCYQAAAAAAAAAAAAAAAAAAAAAAAAAAAAAAAAAA==

> <PUBCHEM_IUPAC_OPENEYE_NAME>
N,N-dimethyl-N'-(2-pyridyl)-N'-(2-thienylmethyl)ethane-1,2-diamine hydrochloride

> <PUBCHEM_IUPAC_CAS_NAME>
N,N-dimethyl-N'-(2-pyridinyl)-N'-(thiophen-2-ylmethyl)ethane-1,2-diamine hydrochloride

> <PUBCHEM_IUPAC_NAME>
N,N-dimethyl-N'-pyridin-2-yl-N'-(thiophen-2-ylmethyl)ethane-1,2-diamine hydrochloride

> <PUBCHEM_IUPAC_SYSTEMATIC_NAME>
N,N-dimethyl-N'-pyridin-2-yl-N'-(thiophen-2-ylmethyl)ethane-1,2-diamine hydrochloride

> <PUBCHEM_IUPAC_TRADITIONAL_NAME>
dimethyl-[2-[2-pyridyl(2-thenyl)amino]ethyl]amine hydrochloride

> <PUBCHEM_IUPAC_INCHI>
InChI=1S/C14H19N3S.ClH/c1-16(2)9-10-17(12-13-6-5-11-18-13)14-7-3-4-8-15-14;/h3-8,11H,9-10,12H2,1-2H3;1H

> <PUBCHEM_IUPAC_INCHIKEY>
BONORRGKLJBGRV-UHFFFAOYSA-N

> <PUBCHEM_EXACT_MASS>
297.106646

> <PUBCHEM_MOLECULAR_FORMULA>
C14H20ClN3S

> <PUBCHEM_MOLECULAR_WEIGHT>
297.8467

> <PUBCHEM_OPENEYE_CAN_SMILES>
CN(C)CCN(CC1=CC=CS1)C2=CC=CC=N2.Cl

> <PUBCHEM_OPENEYE_ISO_SMILES>
CN(C)CCN(CC1=CC=CS1)C2=CC=CC=N2.Cl

> <PUBCHEM_CACTVS_TPSA>
47.6

> <PUBCHEM_MONOISOTOPIC_WEIGHT>
297.106646

> <PUBCHEM_TOTAL_CHARGE>
0

> <PUBCHEM_HEAVY_ATOM_COUNT>
19

> <PUBCHEM_ATOM_DEF_STEREO_COUNT>
0

> <PUBCHEM_ATOM_UDEF_STEREO_COUNT>
0

> <PUBCHEM_BOND_DEF_STEREO_COUNT>
0

> <PUBCHEM_BOND_UDEF_STEREO_COUNT>
0

> <PUBCHEM_ISOTOPIC_ATOM_COUNT>
0

> <PUBCHEM_COMPONENT_COUNT>
2

> <PUBCHEM_CACTVS_TAUTO_COUNT>
1

> <PUBCHEM_COORDINATE_TYPE>
1
5
255

> <PUBCHEM_BONDANNOTATIONS>
10  14  8
13  16  8
14  15  8
15  17  8
16  19  8
18  19  8
2  10  8
2  17  8
5  18  8
5  9  8
9  13  8

$$$$

