   Color/Form

     * NEEDLES FROM SATURATED SODIUM CHLORIDE SOLN
     * NEEDLES FROM WATER, BENZENE OR PETROLEUM ETHER SOLN

   from [1]HSDB

   Melting Point
        82 DEG C
   from [2]HSDB

   Solubilities
        VERY SOL IN CHLOROFORM; INSOL IN PETROLEUM ETHER; FREELY SOL IN
   ALCOHOL, CARBON DISULFIDE, DIL MINERAL ACID, ETHER, HOT BENZENE, ACETIC
   ACID
   from [3]HSDB

   Spectral Properties

     * MAX ABSORPTION (ALCOHOL): 236 NM (LOG E= 3.8); 279 NM (LOG E= 3.0)
     * UV: 1-94 (Organic Electronic Spectral Data, Phillips et al, John
       Wiley & Sons, New York)
     * MASS: 119 (National Bureau of Standards EPA-NIH Mass Spectra Data
       Base, NSRDS-NBS-63)

   from [4]HSDB

   Computed Properties
   Molecular Weight                  109.12588 [g/mol]
   Molecular Formula                 C[6]H[7]NO
   XLogP3                            0.8
   H-Bond Donor                      2
   H-Bond Acceptor                   2
   Rotatable Bond Count              1
   Exact Mass                        109.052764
   MonoIsotopic Mass                 109.052764
   Topological Polar Surface Area    32.3
   Heavy Atom Count                  8
   Formal Charge                     0
   Complexity                        59.5
   Isotope Atom Count                0
   Defined Atom Stereocenter Count   0
   Undefined Atom Stereocenter Count 0
   Defined Bond Stereocenter Count   0
   Undefined Bond Stereocenter Count 0
   Covalently-Bonded Unit Count      1
   Feature 3D Anion Count            1
   Feature 3D Ring Count             1
   Effective Rotor Count             1
   Conformer Sampling RMSD           0.4
   CID Conformer Count               [5]2

References

   1. http://toxnet.nlm.nih.gov/cgi-bin/sis/search/r?dbs+hsdb:@term+@rn+@rel+100-65-2
   2. http://toxnet.nlm.nih.gov/cgi-bin/sis/search/r?dbs+hsdb:@term+@rn+@rel+100-65-2
   3. http://toxnet.nlm.nih.gov/cgi-bin/sis/search/r?dbs+hsdb:@term+@rn+@rel+100-65-2
   4. http://toxnet.nlm.nih.gov/cgi-bin/sis/search/r?dbs+hsdb:@term+@rn+@rel+100-65-2
   5. http://pubchem.ncbi.nlm.nih.gov/vw3d/vw3d.cgi?cid=7518
