13598
  -OEChem-06241222392D

 24 24  0     1  0  0  0  0  0999 V2000
    3.7601    0.0194    0.0000 C   0  0  1  0  0  0  0  0  0  0  0  0
    2.9511   -0.5684    0.0000 C   0  0  1  0  0  0  0  0  0  0  0  0
    4.5691   -0.5684    0.0000 C   0  0  0  0  0  0  0  0  0  0  0  0
    3.2601   -1.5194    0.0000 C   0  0  0  0  0  0  0  0  0  0  0  0
    4.2601   -1.5194    0.0000 C   0  0  0  0  0  0  0  0  0  0  0  0
    3.7601    1.0194    0.0000 C   0  0  0  0  0  0  0  0  0  0  0  0
    2.0000   -0.2593    0.0000 C   0  0  0  0  0  0  0  0  0  0  0  0
    4.6261    1.5194    0.0000 C   0  0  0  0  0  0  0  0  0  0  0  0
    4.3125    0.3009    0.0000 H   0  0  0  0  0  0  0  0  0  0  0  0
    2.5126   -1.0068    0.0000 H   0  0  0  0  0  0  0  0  0  0  0  0
    5.1355   -0.8205    0.0000 H   0  0  0  0  0  0  0  0  0  0  0  0
    4.8791   -0.0314    0.0000 H   0  0  0  0  0  0  0  0  0  0  0  0
    2.6536   -1.6483    0.0000 H   0  0  0  0  0  0  0  0  0  0  0  0
    3.3249   -2.1360    0.0000 H   0  0  0  0  0  0  0  0  0  0  0  0
    4.1953   -2.1360    0.0000 H   0  0  0  0  0  0  0  0  0  0  0  0
    4.8665   -1.6483    0.0000 H   0  0  0  0  0  0  0  0  0  0  0  0
    3.5480    1.6020    0.0000 H   0  0  0  0  0  0  0  0  0  0  0  0
    3.1495    0.9118    0.0000 H   0  0  0  0  0  0  0  0  0  0  0  0
    2.1916    0.3303    0.0000 H   0  0  0  0  0  0  0  0  0  0  0  0
    1.4103   -0.0678    0.0000 H   0  0  0  0  0  0  0  0  0  0  0  0
    1.8084   -0.8490    0.0000 H   0  0  0  0  0  0  0  0  0  0  0  0
    4.9361    0.9825    0.0000 H   0  0  0  0  0  0  0  0  0  0  0  0
    5.1630    1.8294    0.0000 H   0  0  0  0  0  0  0  0  0  0  0  0
    4.3161    2.0564    0.0000 H   0  0  0  0  0  0  0  0  0  0  0  0
  1  2  1  0  0  0  0
  1  3  1  0  0  0  0
  1  6  1  6  0  0  0
  1  9  1  0  0  0  0
  2  4  1  0  0  0  0
  2  7  1  1  0  0  0
  2 10  1  0  0  0  0
  3  5  1  0  0  0  0
  3 11  1  0  0  0  0
  3 12  1  0  0  0  0
  4  5  1  0  0  0  0
  4 13  1  0  0  0  0
  4 14  1  0  0  0  0
  5 15  1  0  0  0  0
  5 16  1  0  0  0  0
  6  8  1  0  0  0  0
  6 17  1  0  0  0  0
  6 18  1  0  0  0  0
  7 19  1  0  0  0  0
  7 20  1  0  0  0  0
  7 21  1  0  0  0  0
  8 22  1  0  0  0  0
  8 23  1  0  0  0  0
  8 24  1  0  0  0  0
M  END
> <PUBCHEM_COMPOUND_CID>
13598

> <PUBCHEM_COMPOUND_CANONICALIZED>
1

> <PUBCHEM_CACTVS_COMPLEXITY>
66.4

> <PUBCHEM_CACTVS_HBOND_ACCEPTOR>
0

> <PUBCHEM_CACTVS_HBOND_DONOR>
0

> <PUBCHEM_CACTVS_ROTATABLE_BOND>
1

> <PUBCHEM_CACTVS_SUBSKEYS>
AAADceBwAAAAAAAAAAAAAAAAAAAAAYAAAAAAAAAAAAAAAAAAAAAAGAAAAAAADQCAAAACAAAAAAAAAAAAAAAAAAAAAAAAAAAAAAAAAAIAAAAAAAAAAAAAAAEAgIAOgAAAAAAAAAAAAAAAAAAAAAAACAAAAA==

> <PUBCHEM_IUPAC_OPENEYE_NAME>
(1R,2R)-1-ethyl-2-methyl-cyclopentane

> <PUBCHEM_IUPAC_CAS_NAME>
(1R,2R)-1-ethyl-2-methylcyclopentane

> <PUBCHEM_IUPAC_NAME>
(1R,2R)-1-ethyl-2-methylcyclopentane

> <PUBCHEM_IUPAC_SYSTEMATIC_NAME>
(1R,2R)-1-ethyl-2-methyl-cyclopentane

> <PUBCHEM_IUPAC_TRADITIONAL_NAME>
(1R,2R)-1-ethyl-2-methyl-cyclopentane

> <PUBCHEM_IUPAC_INCHI>
InChI=1S/C8H16/c1-3-8-6-4-5-7(8)2/h7-8H,3-6H2,1-2H3/t7-,8-/m1/s1

> <PUBCHEM_IUPAC_INCHIKEY>
BSKOLJVTLRLTHE-HTQZYQBOSA-N

> <PUBCHEM_XLOGP3_AA>
3.8

> <PUBCHEM_EXACT_MASS>
112.125201

> <PUBCHEM_MOLECULAR_FORMULA>
C8H16

> <PUBCHEM_MOLECULAR_WEIGHT>
112.21264

> <PUBCHEM_OPENEYE_CAN_SMILES>
CCC1CCCC1C

> <PUBCHEM_OPENEYE_ISO_SMILES>
CC[C@@H]1CCC[C@H]1C

> <PUBCHEM_CACTVS_TPSA>
0

> <PUBCHEM_MONOISOTOPIC_WEIGHT>
112.125201

> <PUBCHEM_TOTAL_CHARGE>
0

> <PUBCHEM_HEAVY_ATOM_COUNT>
8

> <PUBCHEM_ATOM_DEF_STEREO_COUNT>
2

> <PUBCHEM_ATOM_UDEF_STEREO_COUNT>
0

> <PUBCHEM_BOND_DEF_STEREO_COUNT>
0

> <PUBCHEM_BOND_UDEF_STEREO_COUNT>
0

> <PUBCHEM_ISOTOPIC_ATOM_COUNT>
0

> <PUBCHEM_COMPONENT_COUNT>
1

> <PUBCHEM_CACTVS_TAUTO_COUNT>
1

> <PUBCHEM_COORDINATE_TYPE>
1
5
255

> <PUBCHEM_BONDANNOTATIONS>
1  6  6
2  7  5

$$$$

