   Color/Form
        Colorless liquid
   from [1]HSDB

   Odor
        Pleasant fruity odor.
   from [2]HSDB

   Boiling Point
        120.2 deg C
   from [3]HSDB

   Melting Point
        -91.3 deg C
   from [4]HSDB

   Critical Temperature and Pressure
        Critical temperature: 344.7 deg C
   from [5]HSDB

   Density/Specific Gravity
        0.9821 g/cu cm at 25 deg C
   from [6]HSDB

   Dissociation Constants
        pKa = 7.68
   from [7]HSDB

   Heat of Combustion
        477.60 Kcal/mol at 25 deg C
   from [8]HSDB

   Heat of Vaporization
        9.88 Kcal/mol at 25 deg C
   from [9]HSDB

   Octanol/Water Partition Coefficient
        log Kow = 0.93
   from [10]HSDB

   Solubilities

     * Soluble in chloroform
     * Miscible with most aromatic hydrocarbons, ketones, esters, ethers,
       and the lower carboxylic acids
     * In water, 1.70X10+4 mg/L at 25 deg C

   from [11]HSDB

   Spectral Properties

     * Index of refraction: 1.3944 at 20 deg C /D
     * MAX ABSORPTION (ALCOHOL): 260 NM (LOG E= 1.66); SADTLER REF NUMBER:
       1 (IR, PRISM)
     * IR: 1 (Sadtler Research Laboratories IR Grating Collection)
     * UV: 1 (Sadtler Research Laboratories Spectral Collection)
     * MASS: 708 (NIST/EPA/MSDC Mass Spectral Database 1990 Version)
     * Raman: 299 (Sadtler Research Laboratories spectral collection)
     * C-13 NMR: 155 (Stothers, Carbon-13 NMR Spectroscopy, Academic
       Press, New York

   from [12]HSDB

   Surface Tension
        29.87 dyne/cm at 20 deg C
   from [13]HSDB

   Vapor Density
        3.06 (Air= 1)
   from [14]HSDB

   Vapor Pressure
        1.72X10+1 mm Hg at 25 deg C /Extrapolated/
   from [15]HSDB

   Relative Evaporation Rate
        1.10 (Butyl acetate = 1)
   from [16]HSDB

   Viscosity
        0.721 cP at 25 deg C
   from [17]HSDB

   Other Chemical/Physical Properties

     * 2-Nitropropane exists in equilibrium with its tautomer
       propane-2-nitronic acid, present in physiological media as the
       anion propane-2-nitronate.
     * Wt/gal 8.3 lb; heat of formation: -43.78 Kcal/mol at 25 deg C; 0.6
       ml water dissolves in 100 ml of 2-nitropropane
     * Henry's Law constant = 1.19X10-4 atm-cu m/mol at 25 deg C
     * Hydroxyl radical reaction rate constant = 2.60X10-13 cu
       cm/molecule-sec at 25 deg C

   from [18]HSDB

   Computed Properties
   Molecular Weight                  89.09318 [g/mol]
   Molecular Formula                 C[3]H[7]NO[2]
   XLogP3                            0.8
   H-Bond Donor                      0
   H-Bond Acceptor                   2
   Rotatable Bond Count              0
   Tautomer Count                    2
   Exact Mass                        89.047678
   MonoIsotopic Mass                 89.047678
   Topological Polar Surface Area    45.8
   Heavy Atom Count                  6
   Formal Charge                     0
   Complexity                        54.3
   Isotope Atom Count                0
   Defined Atom Stereocenter Count   0
   Undefined Atom Stereocenter Count 0
   Defined Bond Stereocenter Count   0
   Undefined Bond Stereocenter Count 0
   Covalently-Bonded Unit Count      1
   Feature 3D Acceptor Count         2
   Feature 3D Anion Count            1
   Feature 3D Hydrophobe Count       1
   Effective Rotor Count             1
   Conformer Sampling RMSD           0.4
   CID Conformer Count               [19]3

References

   1. http://toxnet.nlm.nih.gov/cgi-bin/sis/search/r?dbs+hsdb:@term+@rn+@rel+79-46-9
   2. http://toxnet.nlm.nih.gov/cgi-bin/sis/search/r?dbs+hsdb:@term+@rn+@rel+79-46-9
   3. http://toxnet.nlm.nih.gov/cgi-bin/sis/search/r?dbs+hsdb:@term+@rn+@rel+79-46-9
   4. http://toxnet.nlm.nih.gov/cgi-bin/sis/search/r?dbs+hsdb:@term+@rn+@rel+79-46-9
   5. http://toxnet.nlm.nih.gov/cgi-bin/sis/search/r?dbs+hsdb:@term+@rn+@rel+79-46-9
   6. http://toxnet.nlm.nih.gov/cgi-bin/sis/search/r?dbs+hsdb:@term+@rn+@rel+79-46-9
   7. http://toxnet.nlm.nih.gov/cgi-bin/sis/search/r?dbs+hsdb:@term+@rn+@rel+79-46-9
   8. http://toxnet.nlm.nih.gov/cgi-bin/sis/search/r?dbs+hsdb:@term+@rn+@rel+79-46-9
   9. http://toxnet.nlm.nih.gov/cgi-bin/sis/search/r?dbs+hsdb:@term+@rn+@rel+79-46-9
  10. http://toxnet.nlm.nih.gov/cgi-bin/sis/search/r?dbs+hsdb:@term+@rn+@rel+79-46-9
  11. http://toxnet.nlm.nih.gov/cgi-bin/sis/search/r?dbs+hsdb:@term+@rn+@rel+79-46-9
  12. http://toxnet.nlm.nih.gov/cgi-bin/sis/search/r?dbs+hsdb:@term+@rn+@rel+79-46-9
  13. http://toxnet.nlm.nih.gov/cgi-bin/sis/search/r?dbs+hsdb:@term+@rn+@rel+79-46-9
  14. http://toxnet.nlm.nih.gov/cgi-bin/sis/search/r?dbs+hsdb:@term+@rn+@rel+79-46-9
  15. http://toxnet.nlm.nih.gov/cgi-bin/sis/search/r?dbs+hsdb:@term+@rn+@rel+79-46-9
  16. http://toxnet.nlm.nih.gov/cgi-bin/sis/search/r?dbs+hsdb:@term+@rn+@rel+79-46-9
  17. http://toxnet.nlm.nih.gov/cgi-bin/sis/search/r?dbs+hsdb:@term+@rn+@rel+79-46-9
  18. http://toxnet.nlm.nih.gov/cgi-bin/sis/search/r?dbs+hsdb:@term+@rn+@rel+79-46-9
  19. http://pubchem.ncbi.nlm.nih.gov/vw3d/vw3d.cgi?cid=398
