   Color/Form
        White solid
   from [1]HSDB

   Melting Point
        200-201 deg C
   from [2]HSDB

   Density/Specific Gravity
        1.477-1.626 @ 20 deg C
   from [3]HSDB

   Octanol/Water Partition Coefficient
        log Kow= 4.0 (shake flask method)
   from [4]HSDB

   Solubilities

     * In organic solvents (g/l @ 20 deg C): acetone 545.9,
       dichloromethane 22.3, hexane 0.028, toluene 3.0
     * In water (mg/l @ 20 deg C): 1.9 (distilled), 1.9 (pH 5), 2.4 (pH 9)

   from [5]HSDB

   Vapor Pressure
        2.78X10-9 mm Hg @ 25 deg C
   from [6]HSDB

   Computed Properties
   Molecular Weight                  437.147779 [g/mol]
   Molecular Formula                 C[12]H[4]Cl[2]F[6]N[4]OS
   XLogP3-AA                         4.5
   H-Bond Donor                      1
   H-Bond Acceptor                   11
   Rotatable Bond Count              2
   Tautomer Count                    3
   Exact Mass                        435.938706
   MonoIsotopic Mass                 435.938706
   Topological Polar Surface Area    104
   Heavy Atom Count                  26
   Formal Charge                     0
   Complexity                        599
   Isotope Atom Count                0
   Defined Atom Stereocenter Count   0
   Undefined Atom Stereocenter Count 1
   Defined Bond Stereocenter Count   0
   Undefined Bond Stereocenter Count 0
   Covalently-Bonded Unit Count      1
   Feature 3D Acceptor Count         3
   Feature 3D Donor Count            1
   Feature 3D Cation Count           1
   Feature 3D Ring Count             2
   Effective Rotor Count             4
   Conformer Sampling RMSD           0.8
   CID Conformer Count               [7]5

References

   1. http://toxnet.nlm.nih.gov/cgi-bin/sis/search/r?dbs+hsdb:@term+@rn+@rel+120068-37-3
   2. http://toxnet.nlm.nih.gov/cgi-bin/sis/search/r?dbs+hsdb:@term+@rn+@rel+120068-37-3
   3. http://toxnet.nlm.nih.gov/cgi-bin/sis/search/r?dbs+hsdb:@term+@rn+@rel+120068-37-3
   4. http://toxnet.nlm.nih.gov/cgi-bin/sis/search/r?dbs+hsdb:@term+@rn+@rel+120068-37-3
   5. http://toxnet.nlm.nih.gov/cgi-bin/sis/search/r?dbs+hsdb:@term+@rn+@rel+120068-37-3
   6. http://toxnet.nlm.nih.gov/cgi-bin/sis/search/r?dbs+hsdb:@term+@rn+@rel+120068-37-3
   7. http://pubchem.ncbi.nlm.nih.gov/vw3d/vw3d.cgi?cid=3352
