18209
  -OEChem-07051213092D

 14 14  0     0  0  0  0  0  0999 V2000
    3.4901    2.1307    0.0000 O   0  5  0  0  0  0  0  0  0  0  0  0
    4.8913    1.1126    0.0000 O   0  0  0  0  0  0  0  0  0  0  0  0
    2.8090   -1.1307    0.0000 N   0  0  0  0  0  0  0  0  0  0  0  0
    2.3090    0.4081    0.0000 N   0  0  0  0  0  0  0  0  0  0  0  0
    3.8968    1.2172    0.0000 N   0  3  0  0  0  0  0  0  0  0  0  0
    3.6180   -0.5429    0.0000 C   0  0  0  0  0  0  0  0  0  0  0  0
    3.3090    0.4081    0.0000 C   0  0  0  0  0  0  0  0  0  0  0  0
    2.0000   -0.5429    0.0000 C   0  0  0  0  0  0  0  0  0  0  0  0
    2.8090   -2.1307    0.0000 C   0  0  0  0  0  0  0  0  0  0  0  0
    4.2077   -0.7345    0.0000 H   0  0  0  0  0  0  0  0  0  0  0  0
    1.4103   -0.7345    0.0000 H   0  0  0  0  0  0  0  0  0  0  0  0
    2.1890   -2.1307    0.0000 H   0  0  0  0  0  0  0  0  0  0  0  0
    2.8090   -2.7507    0.0000 H   0  0  0  0  0  0  0  0  0  0  0  0
    3.4290   -2.1307    0.0000 H   0  0  0  0  0  0  0  0  0  0  0  0
  1  5  1  0  0  0  0
  2  5  2  0  0  0  0
  3  6  1  0  0  0  0
  3  8  1  0  0  0  0
  3  9  1  0  0  0  0
  4  7  1  0  0  0  0
  4  8  2  0  0  0  0
  5  7  1  0  0  0  0
  6  7  2  0  0  0  0
  6 10  1  0  0  0  0
  8 11  1  0  0  0  0
  9 12  1  0  0  0  0
  9 13  1  0  0  0  0
  9 14  1  0  0  0  0
M  CHG  2   1  -1   5   1
M  END
> <PUBCHEM_COMPOUND_CID>
18209

> <PUBCHEM_COMPOUND_CANONICALIZED>
1

> <PUBCHEM_CACTVS_COMPLEXITY>
122

> <PUBCHEM_CACTVS_HBOND_ACCEPTOR>
3

> <PUBCHEM_CACTVS_HBOND_DONOR>
0

> <PUBCHEM_CACTVS_ROTATABLE_BOND>
0

> <PUBCHEM_CACTVS_SUBSKEYS>
AAADcYBjMAAAAAAAAAAAAAAAAAAAAWAAAAAAAAAAAAAAAAABgAAAHAAEAAAAAADBAgQvsBccUAChABInZwAAgC0REqAhQAAYMAKASAAACAAQAAAIAIIAACAAAAAAAAAAAAAAAAAAAAAAAAAAAAAAAAAAAA==

> <PUBCHEM_IUPAC_OPENEYE_NAME>
1-methyl-4-nitro-imidazole

> <PUBCHEM_IUPAC_CAS_NAME>
1-methyl-4-nitroimidazole

> <PUBCHEM_IUPAC_NAME>
1-methyl-4-nitroimidazole

> <PUBCHEM_IUPAC_SYSTEMATIC_NAME>
1-methyl-4-nitro-imidazole

> <PUBCHEM_IUPAC_TRADITIONAL_NAME>
1-methyl-4-nitro-imidazole

> <PUBCHEM_IUPAC_INCHI>
InChI=1S/C4H5N3O2/c1-6-2-4(5-3-6)7(8)9/h2-3H,1H3

> <PUBCHEM_IUPAC_INCHIKEY>
HSCOLDQJZRZQMV-UHFFFAOYSA-N

> <PUBCHEM_XLOGP3>
-0.4

> <PUBCHEM_EXACT_MASS>
127.038176

> <PUBCHEM_MOLECULAR_FORMULA>
C4H5N3O2

> <PUBCHEM_MOLECULAR_WEIGHT>
127.1014

> <PUBCHEM_OPENEYE_CAN_SMILES>
CN1C=C(N=C1)[N+](=O)[O-]

> <PUBCHEM_OPENEYE_ISO_SMILES>
CN1C=C(N=C1)[N+](=O)[O-]

> <PUBCHEM_CACTVS_TPSA>
63.6

> <PUBCHEM_MONOISOTOPIC_WEIGHT>
127.038176

> <PUBCHEM_TOTAL_CHARGE>
0

> <PUBCHEM_HEAVY_ATOM_COUNT>
9

> <PUBCHEM_ATOM_DEF_STEREO_COUNT>
0

> <PUBCHEM_ATOM_UDEF_STEREO_COUNT>
0

> <PUBCHEM_BOND_DEF_STEREO_COUNT>
0

> <PUBCHEM_BOND_UDEF_STEREO_COUNT>
0

> <PUBCHEM_ISOTOPIC_ATOM_COUNT>
0

> <PUBCHEM_COMPONENT_COUNT>
1

> <PUBCHEM_CACTVS_TAUTO_COUNT>
1

> <PUBCHEM_COORDINATE_TYPE>
1
5
255

> <PUBCHEM_BONDANNOTATIONS>
3  6  8
3  8  8
4  7  8
4  8  8
6  7  8

$$$$

