   Color/Form
        White solid
   from [1]HSDB

   Melting Point
        223-225 deg C
   from [2]HSDB

   Dissociation Constants
        pKa = 3.3 (carboxylic acid); pKa = 10.5 (amine) /Estimated/
   from [3]HSDB

   Octanol/Water Partition Coefficient
        log Kow = 1.4 /Estimated/
   from [4]HSDB

   Vapor Pressure
        5.2X10-16 mmHg at 25 deg C /Estimated/
   from [5]HSDB

   Other Chemical/Physical Properties

     * White to off-white, non-hygroscopic, free-flowing powder; MW:
       495.08; very slightly soluble in water. /Tirofiban hydrochloride
       salt mono hydrate/
     * Henry's Law constant = 7.4X10-15 atm-cu m/mole at 25 deg C
       /Estimated/
     * Hydroxyl radical reaction rate constant = 1.6X10-10 cu cm/molec-sec
       at 25 deg C /Estimated/

   from [6]HSDB

   Computed Properties
   Molecular Weight                  440.59664 [g/mol]
   Molecular Formula                 C[22]H[36]N[2]O[5]S
   XLogP3-AA                         1.4
   H-Bond Donor                      3
   H-Bond Acceptor                   7
   Rotatable Bond Count              14
   Exact Mass                        440.234493
   MonoIsotopic Mass                 440.234493
   Topological Polar Surface Area    113
   Heavy Atom Count                  30
   Formal Charge                     0
   Complexity                        579
   Isotope Atom Count                0
   Defined Atom Stereocenter Count   1
   Undefined Atom Stereocenter Count 0
   Defined Bond Stereocenter Count   0
   Undefined Bond Stereocenter Count 0
   Covalently-Bonded Unit Count      1
   Feature 3D Acceptor Count         5
   Feature 3D Donor Count            2
   Feature 3D Anion Count            1
   Feature 3D Cation Count           1
   Feature 3D Hydrophobe Count       1
   Feature 3D Ring Count             2
   Effective Rotor Count             15.2
   Conformer Sampling RMSD           1.2
   CID Conformer Count               [7]183

References

   1. http://toxnet.nlm.nih.gov/cgi-bin/sis/search/r?dbs+hsdb:@term+@rn+@rel+144494-65-5
   2. http://toxnet.nlm.nih.gov/cgi-bin/sis/search/r?dbs+hsdb:@term+@rn+@rel+144494-65-5
   3. http://toxnet.nlm.nih.gov/cgi-bin/sis/search/r?dbs+hsdb:@term+@rn+@rel+144494-65-5
   4. http://toxnet.nlm.nih.gov/cgi-bin/sis/search/r?dbs+hsdb:@term+@rn+@rel+144494-65-5
   5. http://toxnet.nlm.nih.gov/cgi-bin/sis/search/r?dbs+hsdb:@term+@rn+@rel+144494-65-5
   6. http://toxnet.nlm.nih.gov/cgi-bin/sis/search/r?dbs+hsdb:@term+@rn+@rel+144494-65-5
   7. http://pubchem.ncbi.nlm.nih.gov/vw3d/vw3d.cgi?cid=60947
