17395589
  -OEChem-06241222512D

 55 56  0     0  0  0  0  0  0999 V2000
    8.1097    3.1683    0.0000 S   0  0  0  0  0  0  0  0  0  0  0  0
    6.3301    3.0750    0.0000 S   0  0  0  0  0  0  0  0  0  0  0  0
    5.4641   -1.4250    0.0000 O   0  0  0  0  0  0  0  0  0  0  0  0
    4.5981    2.0750    0.0000 O   0  0  0  0  0  0  0  0  0  0  0  0
    9.7734    3.8069    0.0000 N   0  0  0  0  0  0  0  0  0  0  0  0
    3.7320   -1.4250    0.0000 N   0  0  0  0  0  0  0  0  0  0  0  0
    8.2788    4.7775    0.0000 N   0  0  0  0  0  0  0  0  0  0  0  0
    5.4641    0.5750    0.0000 N   0  0  0  0  0  0  0  0  0  0  0  0
    7.3007    4.5696    0.0000 N   0  0  0  0  0  0  0  0  0  0  0  0
   10.3611    4.6159    0.0000 C   0  0  0  0  0  0  0  0  0  0  0  0
   10.9489    5.4250    0.0000 C   0  0  0  0  0  0  0  0  0  0  0  0
   11.1702    4.0282    0.0000 C   0  0  0  0  0  0  0  0  0  0  0  0
    9.5521    5.2037    0.0000 C   0  0  0  0  0  0  0  0  0  0  0  0
    3.7320   -2.4250    0.0000 C   0  0  0  0  0  0  0  0  0  0  0  0
    8.7788    3.9114    0.0000 C   0  0  0  0  0  0  0  0  0  0  0  0
    2.8660   -2.9250    0.0000 C   0  0  0  0  0  0  0  0  0  0  0  0
    4.5981   -2.9250    0.0000 C   0  0  0  0  0  0  0  0  0  0  0  0
    3.7320   -4.4250    0.0000 C   0  0  0  0  0  0  0  0  0  0  0  0
    2.8660   -3.9250    0.0000 C   0  0  0  0  0  0  0  0  0  0  0  0
    4.5981   -3.9250    0.0000 C   0  0  0  0  0  0  0  0  0  0  0  0
    2.0000   -2.4250    0.0000 C   0  0  0  0  0  0  0  0  0  0  0  0
    5.4641   -2.4250    0.0000 C   0  0  0  0  0  0  0  0  0  0  0  0
    3.7320   -5.4250    0.0000 C   0  0  0  0  0  0  0  0  0  0  0  0
    4.5981   -0.9250    0.0000 C   0  0  0  0  0  0  0  0  0  0  0  0
    4.5981    0.0750    0.0000 C   0  0  0  0  0  0  0  0  0  0  0  0
    7.1962    3.5750    0.0000 C   0  0  0  0  0  0  0  0  0  0  0  0
    6.3301    2.0750    0.0000 C   0  0  0  0  0  0  0  0  0  0  0  0
    5.4641    1.5750    0.0000 C   0  0  0  0  0  0  0  0  0  0  0  0
   11.4505    5.0605    0.0000 H   0  0  0  0  0  0  0  0  0  0  0  0
   11.3133    5.9266    0.0000 H   0  0  0  0  0  0  0  0  0  0  0  0
   10.4473    5.7894    0.0000 H   0  0  0  0  0  0  0  0  0  0  0  0
   10.8057    3.5266    0.0000 H   0  0  0  0  0  0  0  0  0  0  0  0
   11.6717    3.6637    0.0000 H   0  0  0  0  0  0  0  0  0  0  0  0
   11.5346    4.5297    0.0000 H   0  0  0  0  0  0  0  0  0  0  0  0
    9.9165    5.7053    0.0000 H   0  0  0  0  0  0  0  0  0  0  0  0
    9.0505    5.5682    0.0000 H   0  0  0  0  0  0  0  0  0  0  0  0
    9.1877    4.7021    0.0000 H   0  0  0  0  0  0  0  0  0  0  0  0
   10.0255    3.2405    0.0000 H   0  0  0  0  0  0  0  0  0  0  0  0
    2.3291   -4.2350    0.0000 H   0  0  0  0  0  0  0  0  0  0  0  0
    5.1350   -4.2350    0.0000 H   0  0  0  0  0  0  0  0  0  0  0  0
    3.1951   -1.1150    0.0000 H   0  0  0  0  0  0  0  0  0  0  0  0
    2.3100   -1.8880    0.0000 H   0  0  0  0  0  0  0  0  0  0  0  0
    1.4631   -2.1150    0.0000 H   0  0  0  0  0  0  0  0  0  0  0  0
    1.6900   -2.9619    0.0000 H   0  0  0  0  0  0  0  0  0  0  0  0
    5.7741   -2.9619    0.0000 H   0  0  0  0  0  0  0  0  0  0  0  0
    6.0010   -2.1150    0.0000 H   0  0  0  0  0  0  0  0  0  0  0  0
    5.1541   -1.8880    0.0000 H   0  0  0  0  0  0  0  0  0  0  0  0
    3.1120   -5.4250    0.0000 H   0  0  0  0  0  0  0  0  0  0  0  0
    3.7320   -6.0450    0.0000 H   0  0  0  0  0  0  0  0  0  0  0  0
    4.3520   -5.4250    0.0000 H   0  0  0  0  0  0  0  0  0  0  0  0
    4.3860    0.6577    0.0000 H   0  0  0  0  0  0  0  0  0  0  0  0
    3.9875   -0.0326    0.0000 H   0  0  0  0  0  0  0  0  0  0  0  0
    6.0010    0.2650    0.0000 H   0  0  0  0  0  0  0  0  0  0  0  0
    6.5422    1.4924    0.0000 H   0  0  0  0  0  0  0  0  0  0  0  0
    6.9407    2.1827    0.0000 H   0  0  0  0  0  0  0  0  0  0  0  0
  1 15  1  0  0  0  0
  1 26  1  0  0  0  0
  2 26  1  0  0  0  0
  2 27  1  0  0  0  0
  3 24  2  0  0  0  0
  4 28  2  0  0  0  0
  5 10  1  0  0  0  0
  5 15  1  0  0  0  0
  5 38  1  0  0  0  0
  6 14  1  0  0  0  0
  6 24  1  0  0  0  0
  6 41  1  0  0  0  0
  7  9  1  0  0  0  0
  7 15  2  0  0  0  0
  8 25  1  0  0  0  0
  8 28  1  0  0  0  0
  8 53  1  0  0  0  0
  9 26  2  0  0  0  0
 10 11  1  0  0  0  0
 10 12  1  0  0  0  0
 10 13  1  0  0  0  0
 11 29  1  0  0  0  0
 11 30  1  0  0  0  0
 11 31  1  0  0  0  0
 12 32  1  0  0  0  0
 12 33  1  0  0  0  0
 12 34  1  0  0  0  0
 13 35  1  0  0  0  0
 13 36  1  0  0  0  0
 13 37  1  0  0  0  0
 14 16  2  0  0  0  0
 14 17  1  0  0  0  0
 16 19  1  0  0  0  0
 16 21  1  0  0  0  0
 17 20  2  0  0  0  0
 17 22  1  0  0  0  0
 18 19  2  0  0  0  0
 18 20  1  0  0  0  0
 18 23  1  0  0  0  0
 19 39  1  0  0  0  0
 20 40  1  0  0  0  0
 21 42  1  0  0  0  0
 21 43  1  0  0  0  0
 21 44  1  0  0  0  0
 22 45  1  0  0  0  0
 22 46  1  0  0  0  0
 22 47  1  0  0  0  0
 23 48  1  0  0  0  0
 23 49  1  0  0  0  0
 23 50  1  0  0  0  0
 24 25  1  0  0  0  0
 25 51  1  0  0  0  0
 25 52  1  0  0  0  0
 27 28  1  0  0  0  0
 27 54  1  0  0  0  0
 27 55  1  0  0  0  0
M  END
> <PUBCHEM_COMPOUND_CID>
17395589

> <PUBCHEM_COMPOUND_CANONICALIZED>
1

> <PUBCHEM_CACTVS_COMPLEXITY>
531

> <PUBCHEM_CACTVS_HBOND_ACCEPTOR>
7

> <PUBCHEM_CACTVS_HBOND_DONOR>
3

> <PUBCHEM_CACTVS_ROTATABLE_BOND>
8

> <PUBCHEM_CACTVS_SUBSKEYS>
AAADceB7sABgAAAAAAAAAAAAAAAAAWAAAAAwAAAAAAAAAAABwAAAHgQYAAAADIjF2ASz0ILAAAiuAiVScACSAQJhABkFiICIRIiIYCLAmbGUIAhwlgLIyAcQgEAOCAACAAACAAAQAAQAAAQAAAAAAAAAAA==

> <PUBCHEM_IUPAC_OPENEYE_NAME>
2-[[2-[[5-(tert-butylamino)-1,3,4-thiadiazol-2-yl]sulfanyl]acetyl]amino]-N-(2,4,6-trimethylphenyl)acetamide

> <PUBCHEM_IUPAC_CAS_NAME>
2-[[2-[[5-(tert-butylamino)-1,3,4-thiadiazol-2-yl]thio]-1-oxoethyl]amino]-N-(2,4,6-trimethylphenyl)acetamide

> <PUBCHEM_IUPAC_NAME>
2-[[2-[[5-(tert-butylamino)-1,3,4-thiadiazol-2-yl]sulfanyl]acetyl]amino]-N-(2,4,6-trimethylphenyl)acetamide

> <PUBCHEM_IUPAC_SYSTEMATIC_NAME>
2-[2-[[5-(tert-butylamino)-1,3,4-thiadiazol-2-yl]sulfanyl]ethanoylamino]-N-(2,4,6-trimethylphenyl)ethanamide

> <PUBCHEM_IUPAC_TRADITIONAL_NAME>
2-[[2-[[5-(tert-butylamino)-1,3,4-thiadiazol-2-yl]thio]acetyl]amino]-N-mesityl-acetamide

> <PUBCHEM_IUPAC_INCHI>
InChI=1S/C19H27N5O2S2/c1-11-7-12(2)16(13(3)8-11)21-14(25)9-20-15(26)10-27-18-24-23-17(28-18)22-19(4,5)6/h7-8H,9-10H2,1-6H3,(H,20,26)(H,21,25)(H,22,23)

> <PUBCHEM_IUPAC_INCHIKEY>
ZMEAVIWMVCKFKZ-UHFFFAOYSA-N

> <PUBCHEM_XLOGP3_AA>
3.9

> <PUBCHEM_EXACT_MASS>
421.160617

> <PUBCHEM_MOLECULAR_FORMULA>
C19H27N5O2S2

> <PUBCHEM_MOLECULAR_WEIGHT>
421.57998

> <PUBCHEM_OPENEYE_CAN_SMILES>
CC1=CC(=C(C(=C1)C)NC(=O)CNC(=O)CSC2=NN=C(S2)NC(C)(C)C)C

> <PUBCHEM_OPENEYE_ISO_SMILES>
CC1=CC(=C(C(=C1)C)NC(=O)CNC(=O)CSC2=NN=C(S2)NC(C)(C)C)C

> <PUBCHEM_CACTVS_TPSA>
150

> <PUBCHEM_MONOISOTOPIC_WEIGHT>
421.160617

> <PUBCHEM_TOTAL_CHARGE>
0

> <PUBCHEM_HEAVY_ATOM_COUNT>
28

> <PUBCHEM_ATOM_DEF_STEREO_COUNT>
0

> <PUBCHEM_ATOM_UDEF_STEREO_COUNT>
0

> <PUBCHEM_BOND_DEF_STEREO_COUNT>
0

> <PUBCHEM_BOND_UDEF_STEREO_COUNT>
0

> <PUBCHEM_ISOTOPIC_ATOM_COUNT>
0

> <PUBCHEM_COMPONENT_COUNT>
1

> <PUBCHEM_CACTVS_TAUTO_COUNT>
12

> <PUBCHEM_COORDINATE_TYPE>
1
5
255

> <PUBCHEM_BONDANNOTATIONS>
1  15  8
1  26  8
14  16  8
14  17  8
16  19  8
17  20  8
18  19  8
18  20  8
7  15  8
7  9  8
9  26  8

$$$$

