9285
  -OEChem-07051212442D

 35 36  0     0  0  0  0  0  0999 V2000
    2.5003    0.8660    0.0000 S   0  0  0  0  0  0  0  0  0  0  0  0
    3.3663    1.3660    0.0000 O   0  0  0  0  0  0  0  0  0  0  0  0
    1.6343    0.3660    0.0000 O   0  5  0  0  0  0  0  0  0  0  0  0
    2.0003    1.7320    0.0000 O   0  0  0  0  0  0  0  0  0  0  0  0
    3.0003    0.0000    0.0000 O   0  0  0  0  0  0  0  0  0  0  0  0
    3.2018    6.4245    0.0000 N   0  3  0  0  0  0  0  0  0  0  0  0
    3.2018    4.4245    0.0000 N   0  0  0  0  0  0  0  0  0  0  0  0
    4.0678    5.9245    0.0000 C   0  0  0  0  0  0  0  0  0  0  0  0
    2.3358    5.9245    0.0000 C   0  0  0  0  0  0  0  0  0  0  0  0
    4.0678    4.9245    0.0000 C   0  0  0  0  0  0  0  0  0  0  0  0
    2.3358    4.9245    0.0000 C   0  0  0  0  0  0  0  0  0  0  0  0
    3.2018    7.4245    0.0000 C   0  0  0  0  0  0  0  0  0  0  0  0
    4.9617    6.4592    0.0000 C   0  0  0  0  0  0  0  0  0  0  0  0
    1.4418    6.4592    0.0000 C   0  0  0  0  0  0  0  0  0  0  0  0
    4.9617    4.3899    0.0000 C   0  0  0  0  0  0  0  0  0  0  0  0
    1.4418    4.3899    0.0000 C   0  0  0  0  0  0  0  0  0  0  0  0
    5.8678    5.9453    0.0000 C   0  0  0  0  0  0  0  0  0  0  0  0
    0.5357    5.9453    0.0000 C   0  0  0  0  0  0  0  0  0  0  0  0
    5.8678    4.9037    0.0000 C   0  0  0  0  0  0  0  0  0  0  0  0
    0.5357    4.9037    0.0000 C   0  0  0  0  0  0  0  0  0  0  0  0
    4.2323    0.8660    0.0000 C   0  0  0  0  0  0  0  0  0  0  0  0
    3.8218    7.4245    0.0000 H   0  0  0  0  0  0  0  0  0  0  0  0
    3.2018    8.0445    0.0000 H   0  0  0  0  0  0  0  0  0  0  0  0
    2.5818    7.4245    0.0000 H   0  0  0  0  0  0  0  0  0  0  0  0
    4.9546    7.0791    0.0000 H   0  0  0  0  0  0  0  0  0  0  0  0
    1.4490    7.0791    0.0000 H   0  0  0  0  0  0  0  0  0  0  0  0
    4.9546    3.7699    0.0000 H   0  0  0  0  0  0  0  0  0  0  0  0
    1.4490    3.7699    0.0000 H   0  0  0  0  0  0  0  0  0  0  0  0
    6.4035    6.2574    0.0000 H   0  0  0  0  0  0  0  0  0  0  0  0
    0.0000    6.2574    0.0000 H   0  0  0  0  0  0  0  0  0  0  0  0
    6.4035    4.5916    0.0000 H   0  0  0  0  0  0  0  0  0  0  0  0
    0.0000    4.5916    0.0000 H   0  0  0  0  0  0  0  0  0  0  0  0
    3.9223    0.3291    0.0000 H   0  0  0  0  0  0  0  0  0  0  0  0
    4.7693    0.5560    0.0000 H   0  0  0  0  0  0  0  0  0  0  0  0
    4.5423    1.4030    0.0000 H   0  0  0  0  0  0  0  0  0  0  0  0
  1  2  1  0  0  0  0
  1  3  1  0  0  0  0
  1  4  2  0  0  0  0
  1  5  2  0  0  0  0
  2 21  1  0  0  0  0
  6  8  2  0  0  0  0
  6  9  1  0  0  0  0
  6 12  1  0  0  0  0
  7 10  2  0  0  0  0
  7 11  1  0  0  0  0
  8 10  1  0  0  0  0
  8 13  1  0  0  0  0
  9 11  1  0  0  0  0
  9 14  2  0  0  0  0
 10 15  1  0  0  0  0
 11 16  2  0  0  0  0
 12 22  1  0  0  0  0
 12 23  1  0  0  0  0
 12 24  1  0  0  0  0
 13 17  2  0  0  0  0
 13 25  1  0  0  0  0
 14 18  1  0  0  0  0
 14 26  1  0  0  0  0
 15 19  2  0  0  0  0
 15 27  1  0  0  0  0
 16 20  1  0  0  0  0
 16 28  1  0  0  0  0
 17 19  1  0  0  0  0
 17 29  1  0  0  0  0
 18 20  2  0  0  0  0
 18 30  1  0  0  0  0
 19 31  1  0  0  0  0
 20 32  1  0  0  0  0
 21 33  1  0  0  0  0
 21 34  1  0  0  0  0
 21 35  1  0  0  0  0
M  CHG  2   3  -1   6   1
M  END
> <PUBCHEM_COMPOUND_CID>
9285

> <PUBCHEM_COMPOUND_CANONICALIZED>
1

> <PUBCHEM_CACTVS_COMPLEXITY>
297

> <PUBCHEM_CACTVS_HBOND_ACCEPTOR>
5

> <PUBCHEM_CACTVS_HBOND_DONOR>
0

> <PUBCHEM_CACTVS_ROTATABLE_BOND>
0

> <PUBCHEM_CACTVS_SUBSKEYS>
AAADccBzOABAAAAAAAAAAAAAAAAAAAAAAAA8YIAAAAAAAACx/AAAHgAAAAAACAiBFgYywLMMEACgASRiRDCCgCQhEiAI2CA4dJgIYOLAkZGUIAhggADIyAcQAAAAAAAAAAAAACAAAAAAAAAAQAAAAAAAAA==

> <PUBCHEM_IUPAC_OPENEYE_NAME>
5-methylphenazin-5-ium; methyl sulfate

> <PUBCHEM_IUPAC_CAS_NAME>
5-methylphenazin-5-ium; methyl sulfate

> <PUBCHEM_IUPAC_NAME>
5-methylphenazin-5-ium; methyl sulfate

> <PUBCHEM_IUPAC_SYSTEMATIC_NAME>
5-methylphenazin-5-ium; methyl sulfate

> <PUBCHEM_IUPAC_TRADITIONAL_NAME>
5-methylphenazin-5-ium; methyl sulfate

> <PUBCHEM_IUPAC_INCHI>
InChI=1S/C13H11N2.CH4O4S/c1-15-12-8-4-2-6-10(12)14-11-7-3-5-9-13(11)15;1-5-6(2,3)4/h2-9H,1H3;1H3,(H,2,3,4)/q+1;/p-1

> <PUBCHEM_IUPAC_INCHIKEY>
RXGJTUSBYWCRBK-UHFFFAOYSA-M

> <PUBCHEM_EXACT_MASS>
306.067428

> <PUBCHEM_MOLECULAR_FORMULA>
C14H14N2O4S

> <PUBCHEM_MOLECULAR_WEIGHT>
306.33696

> <PUBCHEM_OPENEYE_CAN_SMILES>
C[N+]1=C2C=CC=CC2=NC3=CC=CC=C31.COS(=O)(=O)[O-]

> <PUBCHEM_OPENEYE_ISO_SMILES>
C[N+]1=C2C=CC=CC2=NC3=CC=CC=C31.COS(=O)(=O)[O-]

> <PUBCHEM_CACTVS_TPSA>
91.6

> <PUBCHEM_MONOISOTOPIC_WEIGHT>
306.067428

> <PUBCHEM_TOTAL_CHARGE>
0

> <PUBCHEM_HEAVY_ATOM_COUNT>
21

> <PUBCHEM_ATOM_DEF_STEREO_COUNT>
0

> <PUBCHEM_ATOM_UDEF_STEREO_COUNT>
0

> <PUBCHEM_BOND_DEF_STEREO_COUNT>
0

> <PUBCHEM_BOND_UDEF_STEREO_COUNT>
0

> <PUBCHEM_ISOTOPIC_ATOM_COUNT>
0

> <PUBCHEM_COMPONENT_COUNT>
2

> <PUBCHEM_CACTVS_TAUTO_COUNT>
1

> <PUBCHEM_COORDINATE_TYPE>
1
5
255

> <PUBCHEM_BONDANNOTATIONS>
10  15  8
11  16  8
13  17  8
14  18  8
15  19  8
16  20  8
17  19  8
18  20  8
6  8  8
6  9  8
7  10  8
7  11  8
8  10  8
8  13  8
9  11  8
9  14  8

$$$$

