3707
  -OEChem-06251223362D

 32 35  0     0  0  0  0  0  0999 V2000
    6.2619   -1.8085    0.0000 O   0  0  0  0  0  0  0  0  0  0  0  0
    2.9053    1.6175    0.0000 O   0  0  0  0  0  0  0  0  0  0  0  0
    5.9352    0.2515    0.0000 N   0  0  0  0  0  0  0  0  0  0  0  0
    4.6783   -2.6132    0.0000 N   0  0  0  0  0  0  0  0  0  0  0  0
    3.4053    0.7515    0.0000 N   0  0  0  0  0  0  0  0  0  0  0  0
    4.6783   -1.0038    0.0000 C   0  0  0  0  0  0  0  0  0  0  0  0
    4.9889   -0.0533    0.0000 C   0  0  0  0  0  0  0  0  0  0  0  0
    3.7321   -1.3085    0.0000 C   0  0  0  0  0  0  0  0  0  0  0  0
    4.9889    1.5562    0.0000 C   0  0  0  0  0  0  0  0  0  0  0  0
    4.4053    0.7515    0.0000 C   0  0  0  0  0  0  0  0  0  0  0  0
    5.9395    1.2455    0.0000 C   0  0  0  0  0  0  0  0  0  0  0  0
    3.7321   -2.3085    0.0000 C   0  0  0  0  0  0  0  0  0  0  0  0
    5.2619   -1.8085    0.0000 C   0  0  0  0  0  0  0  0  0  0  0  0
    2.8660   -0.8085    0.0000 C   0  0  0  0  0  0  0  0  0  0  0  0
    2.8660   -2.8085    0.0000 C   0  0  0  0  0  0  0  0  0  0  0  0
    4.7827    2.5347    0.0000 C   0  0  0  0  0  0  0  0  0  0  0  0
    6.6838    1.9134    0.0000 C   0  0  0  0  0  0  0  0  0  0  0  0
    2.0000   -1.3085    0.0000 C   0  0  0  0  0  0  0  0  0  0  0  0
    2.0000   -2.3085    0.0000 C   0  0  0  0  0  0  0  0  0  0  0  0
    5.5270    3.2026    0.0000 C   0  0  0  0  0  0  0  0  0  0  0  0
    6.4775    2.8919    0.0000 C   0  0  0  0  0  0  0  0  0  0  0  0
    6.4355   -0.1147    0.0000 H   0  0  0  0  0  0  0  0  0  0  0  0
    4.8709   -3.2026    0.0000 H   0  0  0  0  0  0  0  0  0  0  0  0
    2.8660   -0.1885    0.0000 H   0  0  0  0  0  0  0  0  0  0  0  0
    2.8660   -3.4285    0.0000 H   0  0  0  0  0  0  0  0  0  0  0  0
    4.1934    2.7273    0.0000 H   0  0  0  0  0  0  0  0  0  0  0  0
    7.2731    1.7208    0.0000 H   0  0  0  0  0  0  0  0  0  0  0  0
    1.4631   -0.9985    0.0000 H   0  0  0  0  0  0  0  0  0  0  0  0
    1.4631   -2.6185    0.0000 H   0  0  0  0  0  0  0  0  0  0  0  0
    5.3992    3.8092    0.0000 H   0  0  0  0  0  0  0  0  0  0  0  0
    6.9390    3.3060    0.0000 H   0  0  0  0  0  0  0  0  0  0  0  0
    6.5719   -2.3454    0.0000 H   0  0  0  0  0  0  0  0  0  0  0  0
  1 13  1  0  0  0  0
  1 32  1  0  0  0  0
  2  5  2  0  0  0  0
  3  7  1  0  0  0  0
  3 11  1  0  0  0  0
  3 22  1  0  0  0  0
  4 12  1  0  0  0  0
  4 13  1  0  0  0  0
  4 23  1  0  0  0  0
  5 10  1  0  0  0  0
  6  7  1  0  0  0  0
  6  8  1  0  0  0  0
  6 13  2  0  0  0  0
  7 10  2  0  0  0  0
  8 12  1  0  0  0  0
  8 14  2  0  0  0  0
  9 10  1  0  0  0  0
  9 11  1  0  0  0  0
  9 16  2  0  0  0  0
 11 17  2  0  0  0  0
 12 15  2  0  0  0  0
 14 18  1  0  0  0  0
 14 24  1  0  0  0  0
 15 19  1  0  0  0  0
 15 25  1  0  0  0  0
 16 20  1  0  0  0  0
 16 26  1  0  0  0  0
 17 21  1  0  0  0  0
 17 27  1  0  0  0  0
 18 19  2  0  0  0  0
 18 28  1  0  0  0  0
 19 29  1  0  0  0  0
 20 21  2  0  0  0  0
 20 30  1  0  0  0  0
 21 31  1  0  0  0  0
M  END
> <PUBCHEM_COMPOUND_CID>
3707

> <PUBCHEM_COMPOUND_CANONICALIZED>
1

> <PUBCHEM_CACTVS_COMPLEXITY>
405

> <PUBCHEM_CACTVS_HBOND_ACCEPTOR>
3

> <PUBCHEM_CACTVS_HBOND_DONOR>
3

> <PUBCHEM_CACTVS_ROTATABLE_BOND>
1

> <PUBCHEM_CACTVS_SUBSKEYS>
AAADccB7MAAAAAAAAAAAAAAAAAAAAWLAAAAwYAAAAAAAAFgB/gAAHgAUCAAADAiBngAwxPLZkgChAyRiRgCCgCAhMiAImSA0fJ8IZuLC0dOUdAhm0JHI2AewwPAOgAAAAAACAAAAAAAAAAQAAAAAAAAAAA==

> <PUBCHEM_IUPAC_OPENEYE_NAME>
3-(3-nitroso-1H-indol-2-yl)-1H-indol-2-ol

> <PUBCHEM_IUPAC_CAS_NAME>
3-(3-nitroso-1H-indol-2-yl)-1H-indol-2-ol

> <PUBCHEM_IUPAC_NAME>
3-(3-nitroso-1H-indol-2-yl)-1H-indol-2-ol

> <PUBCHEM_IUPAC_SYSTEMATIC_NAME>
3-(3-nitroso-1H-indol-2-yl)-1H-indol-2-ol

> <PUBCHEM_IUPAC_TRADITIONAL_NAME>
3-(3-nitroso-1H-indol-2-yl)-1H-indol-2-ol

> <PUBCHEM_IUPAC_INCHI>
InChI=1S/C16H11N3O2/c20-16-13(9-5-1-3-7-11(9)18-16)15-14(19-21)10-6-2-4-8-12(10)17-15/h1-8,17-18,20H

> <PUBCHEM_IUPAC_INCHIKEY>
FQCPPVRJPILDIK-UHFFFAOYSA-N

> <PUBCHEM_XLOGP3_AA>
3.2

> <PUBCHEM_EXACT_MASS>
277.085127

> <PUBCHEM_MOLECULAR_FORMULA>
C16H11N3O2

> <PUBCHEM_MOLECULAR_WEIGHT>
277.27744

> <PUBCHEM_OPENEYE_CAN_SMILES>
C1=CC=C2C(=C1)C(=C(N2)O)C3=C(C4=CC=CC=C4N3)N=O

> <PUBCHEM_OPENEYE_ISO_SMILES>
C1=CC=C2C(=C1)C(=C(N2)O)C3=C(C4=CC=CC=C4N3)N=O

> <PUBCHEM_CACTVS_TPSA>
81.2

> <PUBCHEM_MONOISOTOPIC_WEIGHT>
277.085127

> <PUBCHEM_TOTAL_CHARGE>
0

> <PUBCHEM_HEAVY_ATOM_COUNT>
21

> <PUBCHEM_ATOM_DEF_STEREO_COUNT>
0

> <PUBCHEM_ATOM_UDEF_STEREO_COUNT>
0

> <PUBCHEM_BOND_DEF_STEREO_COUNT>
0

> <PUBCHEM_BOND_UDEF_STEREO_COUNT>
0

> <PUBCHEM_ISOTOPIC_ATOM_COUNT>
0

> <PUBCHEM_COMPONENT_COUNT>
1

> <PUBCHEM_CACTVS_TAUTO_COUNT>
14

> <PUBCHEM_COORDINATE_TYPE>
1
5
255

> <PUBCHEM_BONDANNOTATIONS>
11  17  8
12  15  8
14  18  8
15  19  8
16  20  8
17  21  8
18  19  8
20  21  8
3  11  8
3  7  8
4  12  8
4  13  8
6  13  8
6  8  8
7  10  8
8  12  8
8  14  8
9  10  8
9  11  8
9  16  8

$$$$

