181744
  -OEChem-07051212562D

 77 81  0     1  0  0  0  0  0999 V2000
    7.9174   -2.4940    0.0000 O   0  0  0  0  0  0  0  0  0  0  0  0
   10.1248    0.4506    0.0000 O   0  0  0  0  0  0  0  0  0  0  0  0
    7.0514    1.0060    0.0000 O   0  0  0  0  0  0  0  0  0  0  0  0
    8.8172    2.4560    0.0000 O   0  0  0  0  0  0  0  0  0  0  0  0
    2.5405   -1.4548    0.0000 O   0  0  0  0  0  0  0  0  0  0  0  0
    2.5244   -3.5464    0.0000 O   0  0  0  0  0  0  0  0  0  0  0  0
    6.1733   -4.5633    0.0000 O   0  0  0  0  0  0  0  0  0  0  0  0
    8.4600    4.1509    0.0000 O   0  0  0  0  0  0  0  0  0  0  0  0
    7.9174   -0.4940    0.0000 C   0  0  1  0  0  0  0  0  0  0  0  0
    7.9174   -1.4940    0.0000 C   0  0  1  0  0  0  0  0  0  0  0  0
    8.8637   -0.1893    0.0000 C   0  0  2  0  0  0  0  0  0  0  0  0
    6.1854   -1.4940    0.0000 C   0  0  2  0  0  0  0  0  0  0  0  0
    5.2754   -2.0009    0.0000 C   0  0  2  0  0  0  0  0  0  0  0  0
    7.0514   -1.9940    0.0000 C   0  0  0  0  0  0  0  0  0  0  0  0
    8.8637   -1.7988    0.0000 C   0  0  0  0  0  0  0  0  0  0  0  0
    9.4473   -0.9940    0.0000 C   0  0  0  0  0  0  0  0  0  0  0  0
    6.1854   -0.4940    0.0000 C   0  0  0  0  0  0  0  0  0  0  0  0
    5.2674   -3.0425    0.0000 C   0  0  1  0  0  0  0  0  0  0  0  0
    7.0514    0.0060    0.0000 C   0  0  0  0  0  0  0  0  0  0  0  0
    9.1743    0.7612    0.0000 C   0  0  2  0  0  0  0  0  0  0  0  0
    4.3486   -1.4368    0.0000 C   0  0  0  0  0  0  0  0  0  0  0  0
    7.9174    0.5060    0.0000 C   0  0  0  0  0  0  0  0  0  0  0  0
    7.0675   -3.0356    0.0000 C   0  0  0  0  0  0  0  0  0  0  0  0
    4.3319   -3.5922    0.0000 C   0  0  0  0  0  0  0  0  0  0  0  0
    5.2831   -1.0009    0.0000 C   0  0  0  0  0  0  0  0  0  0  0  0
    6.1694   -3.5633    0.0000 C   0  0  0  0  0  0  0  0  0  0  0  0
    3.4007   -1.9648    0.0000 C   0  0  1  0  0  0  0  0  0  0  0  0
    3.3923   -3.0497    0.0000 C   0  0  2  0  0  0  0  0  0  0  0  0
    9.4850    1.7117    0.0000 C   0  0  1  0  0  0  0  0  0  0  0  0
    8.2238    1.0719    0.0000 C   0  0  0  0  0  0  0  0  0  0  0  0
   10.4635    1.9180    0.0000 C   0  0  0  0  0  0  0  0  0  0  0  0
   10.7742    2.8685    0.0000 C   0  0  0  0  0  0  0  0  0  0  0  0
    9.1278    3.4066    0.0000 C   0  0  0  0  0  0  0  0  0  0  0  0
   10.1063    3.6128    0.0000 C   0  0  0  0  0  0  0  0  0  0  0  0
   11.7527    3.0747    0.0000 C   0  0  0  0  0  0  0  0  0  0  0  0
   10.4170    4.5633    0.0000 C   0  0  0  0  0  0  0  0  0  0  0  0
   12.0633    4.0252    0.0000 C   0  0  0  0  0  0  0  0  0  0  0  0
    9.7034   -0.0574    0.0000 H   0  0  0  0  0  0  0  0  0  0  0  0
    6.9215   -1.0690    0.0000 H   0  0  0  0  0  0  0  0  0  0  0  0
    8.6126   -2.3657    0.0000 H   0  0  0  0  0  0  0  0  0  0  0  0
    9.4010   -2.1080    0.0000 H   0  0  0  0  0  0  0  0  0  0  0  0
    9.9081   -1.4088    0.0000 H   0  0  0  0  0  0  0  0  0  0  0  0
    9.9081   -0.5793    0.0000 H   0  0  0  0  0  0  0  0  0  0  0  0
    5.9733    0.0886    0.0000 H   0  0  0  0  0  0  0  0  0  0  0  0
    5.5748   -0.6017    0.0000 H   0  0  0  0  0  0  0  0  0  0  0  0
    5.2706   -3.8925    0.0000 H   0  0  0  0  0  0  0  0  0  0  0  0
    4.7568   -0.9701    0.0000 H   0  0  0  0  0  0  0  0  0  0  0  0
    3.9586   -0.9548    0.0000 H   0  0  0  0  0  0  0  0  0  0  0  0
    8.5374    0.5060    0.0000 H   0  0  0  0  0  0  0  0  0  0  0  0
    7.9174    1.1260    0.0000 H   0  0  0  0  0  0  0  0  0  0  0  0
    7.2974    0.5060    0.0000 H   0  0  0  0  0  0  0  0  0  0  0  0
    7.6080   -3.3393    0.0000 H   0  0  0  0  0  0  0  0  0  0  0  0
    3.9346   -4.0682    0.0000 H   0  0  0  0  0  0  0  0  0  0  0  0
    4.7329   -4.0651    0.0000 H   0  0  0  0  0  0  0  0  0  0  0  0
    5.9031   -1.0057    0.0000 H   0  0  0  0  0  0  0  0  0  0  0  0
    5.2879   -0.3809    0.0000 H   0  0  0  0  0  0  0  0  0  0  0  0
    4.6631   -0.9961    0.0000 H   0  0  0  0  0  0  0  0  0  0  0  0
    2.8608   -2.2696    0.0000 H   0  0  0  0  0  0  0  0  0  0  0  0
    3.3911   -3.6697    0.0000 H   0  0  0  0  0  0  0  0  0  0  0  0
    8.6533    1.5365    0.0000 H   0  0  0  0  0  0  0  0  0  0  0  0
    8.4544   -2.8040    0.0000 H   0  0  0  0  0  0  0  0  0  0  0  0
    8.4164    1.6612    0.0000 H   0  0  0  0  0  0  0  0  0  0  0  0
    7.6345    1.2645    0.0000 H   0  0  0  0  0  0  0  0  0  0  0  0
    8.0312    0.4826    0.0000 H   0  0  0  0  0  0  0  0  0  0  0  0
   10.2527   -0.1561    0.0000 H   0  0  0  0  0  0  0  0  0  0  0  0
   10.4841    1.2983    0.0000 H   0  0  0  0  0  0  0  0  0  0  0  0
   11.0773    1.8306    0.0000 H   0  0  0  0  0  0  0  0  0  0  0  0
    2.0000   -1.7585    0.0000 H   0  0  0  0  0  0  0  0  0  0  0  0
    2.5220   -4.1664    0.0000 H   0  0  0  0  0  0  0  0  0  0  0  0
   11.7732    2.4550    0.0000 H   0  0  0  0  0  0  0  0  0  0  0  0
   12.3665    2.9873    0.0000 H   0  0  0  0  0  0  0  0  0  0  0  0
   11.0063    4.3707    0.0000 H   0  0  0  0  0  0  0  0  0  0  0  0
   10.6096    5.1526    0.0000 H   0  0  0  0  0  0  0  0  0  0  0  0
    9.8276    4.7559    0.0000 H   0  0  0  0  0  0  0  0  0  0  0  0
   12.6526    3.8326    0.0000 H   0  0  0  0  0  0  0  0  0  0  0  0
   12.2559    4.6145    0.0000 H   0  0  0  0  0  0  0  0  0  0  0  0
   11.4740    4.2178    0.0000 H   0  0  0  0  0  0  0  0  0  0  0  0
 10  1  1  6  0  0  0
  1 61  1  0  0  0  0
 20  2  1  1  0  0  0
  2 65  1  0  0  0  0
  3 19  2  0  0  0  0
  4 29  1  0  0  0  0
  4 33  1  0  0  0  0
 27  5  1  1  0  0  0
  5 68  1  0  0  0  0
 28  6  1  1  0  0  0
  6 69  1  0  0  0  0
  7 26  2  0  0  0  0
  8 33  2  0  0  0  0
  9 10  1  0  0  0  0
  9 11  1  0  0  0  0
  9 19  1  0  0  0  0
  9 22  1  1  0  0  0
 10 14  1  0  0  0  0
 10 15  1  0  0  0  0
 11 16  1  0  0  0  0
 11 20  1  0  0  0  0
 11 38  1  6  0  0  0
 12 13  1  0  0  0  0
 12 14  1  0  0  0  0
 12 17  1  0  0  0  0
 12 39  1  6  0  0  0
 13 18  1  0  0  0  0
 13 21  1  0  0  0  0
 13 25  1  1  0  0  0
 14 23  2  0  0  0  0
 15 16  1  0  0  0  0
 15 40  1  0  0  0  0
 15 41  1  0  0  0  0
 16 42  1  0  0  0  0
 16 43  1  0  0  0  0
 17 19  1  0  0  0  0
 17 44  1  0  0  0  0
 17 45  1  0  0  0  0
 18 24  1  0  0  0  0
 18 26  1  0  0  0  0
 18 46  1  1  0  0  0
 20 29  1  0  0  0  0
 20 30  1  0  0  0  0
 21 27  1  0  0  0  0
 21 47  1  0  0  0  0
 21 48  1  0  0  0  0
 22 49  1  0  0  0  0
 22 50  1  0  0  0  0
 22 51  1  0  0  0  0
 23 26  1  0  0  0  0
 23 52  1  0  0  0  0
 24 28  1  0  0  0  0
 24 53  1  0  0  0  0
 24 54  1  0  0  0  0
 25 55  1  0  0  0  0
 25 56  1  0  0  0  0
 25 57  1  0  0  0  0
 27 28  1  0  0  0  0
 27 58  1  0  0  0  0
 28 59  1  0  0  0  0
 29 31  1  0  0  0  0
 29 60  1  1  0  0  0
 30 62  1  0  0  0  0
 30 63  1  0  0  0  0
 30 64  1  0  0  0  0
 31 32  1  0  0  0  0
 31 66  1  0  0  0  0
 31 67  1  0  0  0  0
 32 34  2  0  0  0  0
 32 35  1  0  0  0  0
 33 34  1  0  0  0  0
 34 36  1  0  0  0  0
 35 37  1  0  0  0  0
 35 70  1  0  0  0  0
 35 71  1  0  0  0  0
 36 72  1  0  0  0  0
 36 73  1  0  0  0  0
 36 74  1  0  0  0  0
 37 75  1  0  0  0  0
 37 76  1  0  0  0  0
 37 77  1  0  0  0  0
M  END
> <PUBCHEM_COMPOUND_CID>
181744

> <PUBCHEM_COMPOUND_CANONICALIZED>
1

> <PUBCHEM_CACTVS_COMPLEXITY>
1120

> <PUBCHEM_CACTVS_HBOND_ACCEPTOR>
8

> <PUBCHEM_CACTVS_HBOND_DONOR>
4

> <PUBCHEM_CACTVS_ROTATABLE_BOND>
3

> <PUBCHEM_CACTVS_SUBSKEYS>
AAADcfB4PAAAAAAAAAAAAAAAAAAAAYAAAAAwYIEAAAAAAGCAAAAAGgAACAAAD1SggAICCAAABgCIAqDSCAAAAAAgAAAACAEAAEgBFBYAIQACUAAE4AALMQPK7PzPgAAAAAAAAADAAAYAADCAAYAADAAAAA==

> <PUBCHEM_IUPAC_OPENEYE_NAME>
(2S,3R,5R,9R,10R,13R,14R,17S)-17-[(1R)-1-[(2R)-4-ethyl-5-methyl-6-oxo-2,3-dihydropyran-2-yl]-1-hydroxy-ethyl]-2,3,14-trihydroxy-10,13-dimethyl-1,2,3,4,5,9,11,15,16,17-decahydrocyclopenta[a]phenanthrene-6,12-dione

> <PUBCHEM_IUPAC_CAS_NAME>
(2S,3R,5R,9R,10R,13R,14R,17S)-17-[(1R)-1-[(2R)-4-ethyl-5-methyl-6-oxo-2,3-dihydropyran-2-yl]-1-hydroxyethyl]-2,3,14-trihydroxy-10,13-dimethyl-1,2,3,4,5,9,11,15,16,17-decahydrocyclopenta[a]phenanthrene-6,12-dione

> <PUBCHEM_IUPAC_NAME>
(2S,3R,5R,9R,10R,13R,14R,17S)-17-[(1R)-1-[(2R)-4-ethyl-5-methyl-6-oxo-2,3-dihydropyran-2-yl]-1-hydroxyethyl]-2,3,14-trihydroxy-10,13-dimethyl-1,2,3,4,5,9,11,15,16,17-decahydrocyclopenta[a]phenanthrene-6,12-dione

> <PUBCHEM_IUPAC_SYSTEMATIC_NAME>
(2S,3R,5R,9R,10R,13R,14R,17S)-17-[(1R)-1-[(2R)-4-ethyl-5-methyl-6-oxidanylidene-2,3-dihydropyran-2-yl]-1-oxidanyl-ethyl]-10,13-dimethyl-2,3,14-tris(oxidanyl)-1,2,3,4,5,9,11,15,16,17-decahydrocyclopenta[a]phenanthrene-6,12-dione

> <PUBCHEM_IUPAC_TRADITIONAL_NAME>
(2S,3R,5R,9R,10R,13R,14R,17S)-17-[(1R)-1-[(2R)-4-ethyl-6-keto-5-methyl-2,3-dihydropyran-2-yl]-1-hydroxy-ethyl]-2,3,14-trihydroxy-10,13-dimethyl-1,2,3,4,5,9,11,15,16,17-decahydrocyclopenta[a]phenanthrene-6,12-quinone

> <PUBCHEM_IUPAC_INCHI>
InChI=1S/C29H40O8/c1-6-15-9-24(37-25(34)14(15)2)28(5,35)22-7-8-29(36)17-10-19(30)18-11-20(31)21(32)13-26(18,3)16(17)12-23(33)27(22,29)4/h10,16,18,20-22,24,31-32,35-36H,6-9,11-13H2,1-5H3/t16-,18-,20+,21-,22-,24+,26+,27-,28+,29+/m0/s1

> <PUBCHEM_IUPAC_INCHIKEY>
LLPOMLNTBDOEOC-LYUHEGIFSA-N

> <PUBCHEM_XLOGP3_AA>
0.2

> <PUBCHEM_EXACT_MASS>
516.272318

> <PUBCHEM_MOLECULAR_FORMULA>
C29H40O8

> <PUBCHEM_MOLECULAR_WEIGHT>
516.6231

> <PUBCHEM_OPENEYE_CAN_SMILES>
CCC1=C(C(=O)OC(C1)C(C)(C2CCC3(C2(C(=O)CC4C3=CC(=O)C5C4(CC(C(C5)O)O)C)C)O)O)C

> <PUBCHEM_OPENEYE_ISO_SMILES>
CCC1=C(C(=O)O[C@H](C1)[C@@](C)([C@H]2CC[C@@]3([C@@]2(C(=O)C[C@H]4C3=CC(=O)[C@H]5[C@@]4(C[C@@H]([C@@H](C5)O)O)C)C)O)O)C

> <PUBCHEM_CACTVS_TPSA>
141

> <PUBCHEM_MONOISOTOPIC_WEIGHT>
516.272318

> <PUBCHEM_TOTAL_CHARGE>
0

> <PUBCHEM_HEAVY_ATOM_COUNT>
37

> <PUBCHEM_ATOM_DEF_STEREO_COUNT>
10

> <PUBCHEM_ATOM_UDEF_STEREO_COUNT>
0

> <PUBCHEM_BOND_DEF_STEREO_COUNT>
0

> <PUBCHEM_BOND_UDEF_STEREO_COUNT>
0

> <PUBCHEM_ISOTOPIC_ATOM_COUNT>
0

> <PUBCHEM_COMPONENT_COUNT>
1

> <PUBCHEM_CACTVS_TAUTO_COUNT>
13

> <PUBCHEM_COORDINATE_TYPE>
1
5
255

> <PUBCHEM_BONDANNOTATIONS>
10  1  6
11  38  6
12  39  6
13  25  5
18  46  5
20  2  5
29  60  5
27  5  5
28  6  5
9  22  5

$$$$

