   Color/Form

     * Crystals from aqueous methanol
     * White to colorless powder or crystals
     * Monoclinic plates

   from [1]HSDB

   Odor

     * Odorless
     * Pleasant smelling

   from [2]HSDB

   Taste
        Tasteless
   from [3]HSDB

   Melting Point
        239 deg C /Racemic form/
   from [4]HSDB

   Octanol/Water Partition Coefficient
        log Kow = -3.14 (est)
   from [5]HSDB

   pH
        pH = 4.5 - 6 (5% in water, 20 deg C)
   from [6]HSDB

   Solubilities

     * Soluble in alcohol, methanol, pyridine
     * Soluble in ethanol, sodium hydroxide; insoluble in ethyl ether,
       methanol
     * Water: 0.57% (25 deg C); ethanol (96%): 0.04% (25 deg C); eth/water
       (1/1): 0.35% (25 deg C); propylene glycol/water (1/1): 0.40% (25
       deg C); glycerol/water (1/1): 0.60% (25 deg C)
     * In water, 5.26X10+3 mg/L at 25 deg C

   from [7]HSDB

   Spectral Properties

     * Optically active forms are known
     * MASS: 76364 (NIST/EPA/MSDC Mass Spectral database, 1990 version);
       173 (Aldermaston, Eight Peak Index of Mass Spectra, U.K.)
     * IR: 1808 (Coblentz Society spectral collection)

   from [8]HSDB

   Vapor Pressure
        4.32X10-9 mm Hg at 25 deg C (est)
   from [9]HSDB

   Other Chemical/Physical Properties

     * MP: 230 deg C (decomposes)
     * Stable at pH 4-9. Hydrolytic decomposition with strong acids and
       bases
     * Henry's Law constant = 3.41X10-18 atm-cu/mol at 25 deg C (est)
     * Hydroxyl radical reaction rate constant = 1.97X10-11 cu
       cm/molec-sec at 25 deg C (est)

   from [10]HSDB

   Computed Properties
   Molecular Weight                  158.11544 [g/mol]
   Molecular Formula                 C[4]H[6]N[4]O[3]
   XLogP3-AA                         -2.2
   H-Bond Donor                      4
   H-Bond Acceptor                   3
   Rotatable Bond Count              1
   Tautomer Count                    24
   Exact Mass                        158.04399
   MonoIsotopic Mass                 158.04399
   Topological Polar Surface Area    113
   Heavy Atom Count                  11
   Formal Charge                     0
   Complexity                        225
   Isotope Atom Count                0
   Defined Atom Stereocenter Count   0
   Undefined Atom Stereocenter Count 1
   Defined Bond Stereocenter Count   0
   Undefined Bond Stereocenter Count 0
   Covalently-Bonded Unit Count      1
   Feature 3D Acceptor Count         3
   Feature 3D Donor Count            4
   Feature 3D Ring Count             1
   Effective Rotor Count             2.6
   Conformer Sampling RMSD           0.6
   CID Conformer Count               [11]6

References

   1. http://toxnet.nlm.nih.gov/cgi-bin/sis/search/r?dbs+hsdb:@term+@rn+@rel+97-59-6
   2. http://toxnet.nlm.nih.gov/cgi-bin/sis/search/r?dbs+hsdb:@term+@rn+@rel+97-59-6
   3. http://toxnet.nlm.nih.gov/cgi-bin/sis/search/r?dbs+hsdb:@term+@rn+@rel+97-59-6
   4. http://toxnet.nlm.nih.gov/cgi-bin/sis/search/r?dbs+hsdb:@term+@rn+@rel+97-59-6
   5. http://toxnet.nlm.nih.gov/cgi-bin/sis/search/r?dbs+hsdb:@term+@rn+@rel+97-59-6
   6. http://toxnet.nlm.nih.gov/cgi-bin/sis/search/r?dbs+hsdb:@term+@rn+@rel+97-59-6
   7. http://toxnet.nlm.nih.gov/cgi-bin/sis/search/r?dbs+hsdb:@term+@rn+@rel+97-59-6
   8. http://toxnet.nlm.nih.gov/cgi-bin/sis/search/r?dbs+hsdb:@term+@rn+@rel+97-59-6
   9. http://toxnet.nlm.nih.gov/cgi-bin/sis/search/r?dbs+hsdb:@term+@rn+@rel+97-59-6
  10. http://toxnet.nlm.nih.gov/cgi-bin/sis/search/r?dbs+hsdb:@term+@rn+@rel+97-59-6
  11. http://pubchem.ncbi.nlm.nih.gov/vw3d/vw3d.cgi?cid=204
