   Color/Form
        Colorless hygroscopic crystals
   from [1]HSDB

   Odor
        Slightly sweet, musty smell
   from [2]HSDB

   Melting Point
        >300 deg C, with discoloration at about 296 deg C
   from [3]HSDB

   Density/Specific Gravity
        1.187 g/cu cm (technical material, 20 deg C)
   from [4]HSDB

   Octanol/Water Partition Coefficient
        log Kow = -2.82 @ pH 7
   from [5]HSDB

   pH
        pH = 6.74
   from [6]HSDB

   Solubilities

     * Solubility in ethanol 162, chloroform 10.5, benzene, ethyl acetate,
       cyclohexane all <1.0 (all in g/kg at 20 deg C)
     * Solubility in octanol - 0.95 g/100 ml; water - 52.9 g/100 ml;
       methanol - 5 g/100 ml
     * Solubility in acetone, 20,000 mg/l; chloroform, 10,500 mg/l;
       ethanol 162,000 mg/l

   from [7]HSDB

   Vapor Pressure
        <2.3X10-6 Torr @ 25.3 deg C
   from [8]HSDB

   Other Chemical/Physical Properties

     * Stable in aqueous media (7 d at pH 1-2 and pH 12-13, 95 deg C);
       stable in artificial sunlight.
     * Bulk density = 0.421 g/ml

   from [9]HSDB

   Computed Properties
   Molecular Weight                  149.66164 [g/mol]
   Molecular Formula                 C[7]H[16]ClN
   H-Bond Donor                      0
   H-Bond Acceptor                   1
   Rotatable Bond Count              0
   Exact Mass                        149.097127
   MonoIsotopic Mass                 149.097127
   Topological Polar Surface Area    0
   Heavy Atom Count                  9
   Formal Charge                     0
   Complexity                        68.5
   Isotope Atom Count                0
   Defined Atom Stereocenter Count   0
   Undefined Atom Stereocenter Count 0
   Defined Bond Stereocenter Count   0
   Undefined Bond Stereocenter Count 0
   Covalently-Bonded Unit Count      2

References

   1. http://toxnet.nlm.nih.gov/cgi-bin/sis/search/r?dbs+hsdb:@term+@rn+@rel+24307-26-4
   2. http://toxnet.nlm.nih.gov/cgi-bin/sis/search/r?dbs+hsdb:@term+@rn+@rel+24307-26-4
   3. http://toxnet.nlm.nih.gov/cgi-bin/sis/search/r?dbs+hsdb:@term+@rn+@rel+24307-26-4
   4. http://toxnet.nlm.nih.gov/cgi-bin/sis/search/r?dbs+hsdb:@term+@rn+@rel+24307-26-4
   5. http://toxnet.nlm.nih.gov/cgi-bin/sis/search/r?dbs+hsdb:@term+@rn+@rel+24307-26-4
   6. http://toxnet.nlm.nih.gov/cgi-bin/sis/search/r?dbs+hsdb:@term+@rn+@rel+24307-26-4
   7. http://toxnet.nlm.nih.gov/cgi-bin/sis/search/r?dbs+hsdb:@term+@rn+@rel+24307-26-4
   8. http://toxnet.nlm.nih.gov/cgi-bin/sis/search/r?dbs+hsdb:@term+@rn+@rel+24307-26-4
   9. http://toxnet.nlm.nih.gov/cgi-bin/sis/search/r?dbs+hsdb:@term+@rn+@rel+24307-26-4
