53297359
  -OEChem-07051213032D

 48 50  0     0  0  0  0  0  0999 V2000
    6.4144    2.6229    0.0000 O   0  0  0  0  0  0  0  0  0  0  0  0
    4.6660    2.5883    0.0000 O   0  0  0  0  0  0  0  0  0  0  0  0
    4.6660   -1.4117    0.0000 O   0  0  0  0  0  0  0  0  0  0  0  0
    8.1923    2.6125    0.0000 O   0  0  0  0  0  0  0  0  0  0  0  0
    2.9176    2.6229    0.0000 O   0  0  0  0  0  0  0  0  0  0  0  0
    9.0564   -1.9391    0.0000 O   0  0  0  0  0  0  0  0  0  0  0  0
    9.9243    2.6192    0.0000 O   0  0  0  0  0  0  0  0  0  0  0  0
    7.3244   -1.9325    0.0000 O   0  0  0  0  0  0  0  0  0  0  0  0
    5.5321    1.0883    0.0000 C   0  0  0  0  0  0  0  0  0  0  0  0
    5.5321    0.0883    0.0000 C   0  0  0  0  0  0  0  0  0  0  0  0
    7.3321    0.0675    0.0000 C   0  0  0  0  0  0  0  0  0  0  0  0
    7.3321    1.1092    0.0000 C   0  0  0  0  0  0  0  0  0  0  0  0
    6.4260    1.6230    0.0000 C   0  0  0  0  0  0  0  0  0  0  0  0
    6.4260   -0.4463    0.0000 C   0  0  0  0  0  0  0  0  0  0  0  0
    3.8000    1.0883    0.0000 C   0  0  0  0  0  0  0  0  0  0  0  0
    3.8000    0.0883    0.0000 C   0  0  0  0  0  0  0  0  0  0  0  0
    4.6660    1.5883    0.0000 C   0  0  0  0  0  0  0  0  0  0  0  0
    4.6660   -0.4117    0.0000 C   0  0  0  0  0  0  0  0  0  0  0  0
    8.1962   -0.4358    0.0000 C   0  0  0  0  0  0  0  0  0  0  0  0
    8.1962    1.6125    0.0000 C   0  0  0  0  0  0  0  0  0  0  0  0
    2.9061    1.6230    0.0000 C   0  0  0  0  0  0  0  0  0  0  0  0
    9.0641    1.1158    0.0000 C   0  0  0  0  0  0  0  0  0  0  0  0
    2.9061   -0.4463    0.0000 C   0  0  0  0  0  0  0  0  0  0  0  0
    2.0000    1.1092    0.0000 C   0  0  0  0  0  0  0  0  0  0  0  0
    2.0000    0.0675    0.0000 C   0  0  0  0  0  0  0  0  0  0  0  0
    9.9282    1.6192    0.0000 C   0  0  0  0  0  0  0  0  0  0  0  0
    8.1923   -1.4358    0.0000 C   0  0  0  0  0  0  0  0  0  0  0  0
   10.7961    1.1225    0.0000 C   0  0  0  0  0  0  0  0  0  0  0  0
   11.6602    1.6258    0.0000 C   0  0  0  0  0  0  0  0  0  0  0  0
    9.0525   -2.9391    0.0000 C   0  0  0  0  0  0  0  0  0  0  0  0
    6.4188   -1.0663    0.0000 H   0  0  0  0  0  0  0  0  0  0  0  0
    8.8063   -0.5458    0.0000 H   0  0  0  0  0  0  0  0  0  0  0  0
    8.4105    0.1460    0.0000 H   0  0  0  0  0  0  0  0  0  0  0  0
    8.6674    0.6394    0.0000 H   0  0  0  0  0  0  0  0  0  0  0  0
    9.4645    0.6424    0.0000 H   0  0  0  0  0  0  0  0  0  0  0  0
    2.9132   -1.0663    0.0000 H   0  0  0  0  0  0  0  0  0  0  0  0
    1.4643    1.4212    0.0000 H   0  0  0  0  0  0  0  0  0  0  0  0
    1.4643   -0.2445    0.0000 H   0  0  0  0  0  0  0  0  0  0  0  0
    6.9478    2.9391    0.0000 H   0  0  0  0  0  0  0  0  0  0  0  0
   10.3995    0.6460    0.0000 H   0  0  0  0  0  0  0  0  0  0  0  0
   11.1965    0.6491    0.0000 H   0  0  0  0  0  0  0  0  0  0  0  0
    2.3843    2.9391    0.0000 H   0  0  0  0  0  0  0  0  0  0  0  0
   11.9723    1.0901    0.0000 H   0  0  0  0  0  0  0  0  0  0  0  0
   12.1960    1.9379    0.0000 H   0  0  0  0  0  0  0  0  0  0  0  0
   11.3482    2.1616    0.0000 H   0  0  0  0  0  0  0  0  0  0  0  0
    8.4326   -2.9367    0.0000 H   0  0  0  0  0  0  0  0  0  0  0  0
    9.0502   -3.5591    0.0000 H   0  0  0  0  0  0  0  0  0  0  0  0
    9.6725   -2.9415    0.0000 H   0  0  0  0  0  0  0  0  0  0  0  0
  1 13  1  0  0  0  0
  1 39  1  0  0  0  0
  2 17  2  0  0  0  0
  3 18  2  0  0  0  0
  4 20  2  0  0  0  0
  5 21  1  0  0  0  0
  5 42  1  0  0  0  0
  6 27  1  0  0  0  0
  6 30  1  0  0  0  0
  7 26  2  0  0  0  0
  8 27  2  0  0  0  0
  9 10  2  0  0  0  0
  9 13  1  0  0  0  0
  9 17  1  0  0  0  0
 10 14  1  0  0  0  0
 10 18  1  0  0  0  0
 11 12  1  0  0  0  0
 11 14  2  0  0  0  0
 11 19  1  0  0  0  0
 12 13  2  0  0  0  0
 12 20  1  0  0  0  0
 14 31  1  0  0  0  0
 15 16  2  0  0  0  0
 15 17  1  0  0  0  0
 15 21  1  0  0  0  0
 16 18  1  0  0  0  0
 16 23  1  0  0  0  0
 19 27  1  0  0  0  0
 19 32  1  0  0  0  0
 19 33  1  0  0  0  0
 20 22  1  0  0  0  0
 21 24  2  0  0  0  0
 22 26  1  0  0  0  0
 22 34  1  0  0  0  0
 22 35  1  0  0  0  0
 23 25  2  0  0  0  0
 23 36  1  0  0  0  0
 24 25  1  0  0  0  0
 24 37  1  0  0  0  0
 25 38  1  0  0  0  0
 26 28  1  0  0  0  0
 28 29  1  0  0  0  0
 28 40  1  0  0  0  0
 28 41  1  0  0  0  0
 29 43  1  0  0  0  0
 29 44  1  0  0  0  0
 29 45  1  0  0  0  0
 30 46  1  0  0  0  0
 30 47  1  0  0  0  0
 30 48  1  0  0  0  0
M  END
> <PUBCHEM_COMPOUND_CID>
53297359

> <PUBCHEM_COMPOUND_CANONICALIZED>
1

> <PUBCHEM_CACTVS_COMPLEXITY>
743

> <PUBCHEM_CACTVS_HBOND_ACCEPTOR>
8

> <PUBCHEM_CACTVS_HBOND_DONOR>
2

> <PUBCHEM_CACTVS_ROTATABLE_BOND>
7

> <PUBCHEM_CACTVS_SUBSKEYS>
AAADceB4PAAAAAAAAAAAAAAAAAAAAAAAAAAwYMAAAAAAAADBQAAAGgAACAAADASAmAIyDoAABgCIAqDSCAACAAAkIAAIiAEGCMgIJjaKFRKAcUAk4BEImYeL7vzuwAADAAAYAACAAAYAADAAAAAAAAAAAA==

> <PUBCHEM_IUPAC_OPENEYE_NAME>
methyl 2-[4,5-dihydroxy-9,10-dioxo-3-(3-oxopentanoyl)-2-anthryl]acetate

> <PUBCHEM_IUPAC_CAS_NAME>
2-[3-(1,3-dioxopentyl)-4,5-dihydroxy-9,10-dioxo-2-anthracenyl]acetic acid methyl ester

> <PUBCHEM_IUPAC_NAME>
methyl 2-[4,5-dihydroxy-9,10-dioxo-3-(3-oxopentanoyl)anthracen-2-yl]acetate

> <PUBCHEM_IUPAC_SYSTEMATIC_NAME>
methyl 2-[4,5-bis(oxidanyl)-9,10-bis(oxidanylidene)-3-(3-oxidanylidenepentanoyl)anthracen-2-yl]ethanoate

> <PUBCHEM_IUPAC_TRADITIONAL_NAME>
2-[4,5-dihydroxy-9,10-diketo-3-(3-ketopentanoyl)-2-anthryl]acetic acid methyl ester

> <PUBCHEM_IUPAC_INCHI>
InChI=1S/C22H18O8/c1-3-11(23)9-15(25)17-10(8-16(26)30-2)7-13-19(21(17)28)22(29)18-12(20(13)27)5-4-6-14(18)24/h4-7,24,28H,3,8-9H2,1-2H3

> <PUBCHEM_IUPAC_INCHIKEY>
IDEZUESUWKFILV-UHFFFAOYSA-N

> <PUBCHEM_XLOGP3_AA>
2.5

> <PUBCHEM_EXACT_MASS>
410.100168

> <PUBCHEM_MOLECULAR_FORMULA>
C22H18O8

> <PUBCHEM_MOLECULAR_WEIGHT>
410.37352

> <PUBCHEM_OPENEYE_CAN_SMILES>
CCC(=O)CC(=O)C1=C(C=C2C(=C1O)C(=O)C3=C(C2=O)C=CC=C3O)CC(=O)OC

> <PUBCHEM_OPENEYE_ISO_SMILES>
CCC(=O)CC(=O)C1=C(C=C2C(=C1O)C(=O)C3=C(C2=O)C=CC=C3O)CC(=O)OC

> <PUBCHEM_CACTVS_TPSA>
135

> <PUBCHEM_MONOISOTOPIC_WEIGHT>
410.100168

> <PUBCHEM_TOTAL_CHARGE>
0

> <PUBCHEM_HEAVY_ATOM_COUNT>
30

> <PUBCHEM_ATOM_DEF_STEREO_COUNT>
0

> <PUBCHEM_ATOM_UDEF_STEREO_COUNT>
0

> <PUBCHEM_BOND_DEF_STEREO_COUNT>
0

> <PUBCHEM_BOND_UDEF_STEREO_COUNT>
0

> <PUBCHEM_ISOTOPIC_ATOM_COUNT>
0

> <PUBCHEM_COMPONENT_COUNT>
1

> <PUBCHEM_CACTVS_TAUTO_COUNT>
492

> <PUBCHEM_COORDINATE_TYPE>
1
5
255

> <PUBCHEM_BONDANNOTATIONS>
10  14  8
11  12  8
11  14  8
12  13  8
15  16  8
15  21  8
16  23  8
21  24  8
23  25  8
24  25  8
9  10  8
9  13  8

$$$$

