9570442
  -OEChem-07051213132D

 31 32  0     0  0  0  0  0  0999 V2000
    4.5032   -0.4333    0.0000 O   0  0  0  0  0  0  0  0  0  0  0  0
    8.7665    0.7934    0.0000 O   0  0  0  0  0  0  0  0  0  0  0  0
    2.0000    0.5146    0.0000 O   0  5  0  0  0  0  0  0  0  0  0  0
    2.5352   -1.1327    0.0000 O   0  0  0  0  0  0  0  0  0  0  0  0
   12.2208    0.1545    0.0000 N   0  0  0  0  0  0  0  0  0  0  0  0
   10.5266    0.5146    0.0000 N   0  0  0  0  0  0  0  0  0  0  0  0
    2.7431   -0.1545    0.0000 N   0  3  0  0  0  0  0  0  0  0  0  0
    8.2665   -0.7455    0.0000 N   0  0  0  0  0  0  0  0  0  0  0  0
    9.2665   -0.7455    0.0000 N   0  0  0  0  0  0  0  0  0  0  0  0
    5.3122    0.1545    0.0000 C   0  0  0  0  0  0  0  0  0  0  0  0
    5.0032    1.1056    0.0000 C   0  0  0  0  0  0  0  0  0  0  0  0
    6.2633   -0.1545    0.0000 C   0  0  0  0  0  0  0  0  0  0  0  0
    3.6942    0.1545    0.0000 C   0  0  0  0  0  0  0  0  0  0  0  0
    4.0032    1.1056    0.0000 C   0  0  0  0  0  0  0  0  0  0  0  0
    7.0064    0.5146    0.0000 C   0  0  0  0  0  0  0  0  0  0  0  0
    7.9575    0.2056    0.0000 C   0  0  0  0  0  0  0  0  0  0  0  0
   12.9639   -0.5146    0.0000 C   0  0  0  0  0  0  0  0  0  0  0  0
   12.4287    1.1327    0.0000 C   0  0  0  0  0  0  0  0  0  0  0  0
   11.2697   -0.1545    0.0000 C   0  0  0  0  0  0  0  0  0  0  0  0
    9.5755    0.2056    0.0000 C   0  0  0  0  0  0  0  0  0  0  0  0
    5.3676    1.6072    0.0000 H   0  0  0  0  0  0  0  0  0  0  0  0
    6.3922   -0.7610    0.0000 H   0  0  0  0  0  0  0  0  0  0  0  0
    3.6388    1.6072    0.0000 H   0  0  0  0  0  0  0  0  0  0  0  0
    6.8775    1.1211    0.0000 H   0  0  0  0  0  0  0  0  0  0  0  0
   12.5491   -0.9754    0.0000 H   0  0  0  0  0  0  0  0  0  0  0  0
   13.4247   -0.9295    0.0000 H   0  0  0  0  0  0  0  0  0  0  0  0
   13.3788   -0.0539    0.0000 H   0  0  0  0  0  0  0  0  0  0  0  0
   13.0351    1.0038    0.0000 H   0  0  0  0  0  0  0  0  0  0  0  0
   12.5576    1.7391    0.0000 H   0  0  0  0  0  0  0  0  0  0  0  0
   11.8222    1.2616    0.0000 H   0  0  0  0  0  0  0  0  0  0  0  0
   11.1408   -0.7610    0.0000 H   0  0  0  0  0  0  0  0  0  0  0  0
  1 10  1  0  0  0  0
  1 13  1  0  0  0  0
  2 16  1  0  0  0  0
  2 20  1  0  0  0  0
  3  7  1  0  0  0  0
  4  7  2  0  0  0  0
  5 17  1  0  0  0  0
  5 18  1  0  0  0  0
  5 19  1  0  0  0  0
  6 19  2  0  0  0  0
  6 20  1  0  0  0  0
  7 13  1  0  0  0  0
  8  9  1  0  0  0  0
  8 16  2  0  0  0  0
  9 20  2  0  0  0  0
 10 11  2  0  0  0  0
 10 12  1  0  0  0  0
 11 14  1  0  0  0  0
 11 21  1  0  0  0  0
 12 15  2  0  0  0  0
 12 22  1  0  0  0  0
 13 14  2  0  0  0  0
 14 23  1  0  0  0  0
 15 16  1  0  0  0  0
 15 24  1  0  0  0  0
 17 25  1  0  0  0  0
 17 26  1  0  0  0  0
 17 27  1  0  0  0  0
 18 28  1  0  0  0  0
 18 29  1  0  0  0  0
 18 30  1  0  0  0  0
 19 31  1  0  0  0  0
M  CHG  2   3  -1   7   1
M  END
> <PUBCHEM_COMPOUND_CID>
9570442

> <PUBCHEM_COMPOUND_CANONICALIZED>
1

> <PUBCHEM_CACTVS_COMPLEXITY>
395

> <PUBCHEM_CACTVS_HBOND_ACCEPTOR>
7

> <PUBCHEM_CACTVS_HBOND_DONOR>
0

> <PUBCHEM_CACTVS_ROTATABLE_BOND>
4

> <PUBCHEM_CACTVS_SUBSKEYS>
AAADccBzuAAAAAAAAAAAAAAAAAAAAWJAAAAAAAAAAAAAAAAB4AAAHgAMAAAACASBkgQzlIMQRECrAKFzdwCSCAMsIgA/iAEebNoMJjKEtZuKGSDkyBEI6Ya8AAAAAAAAAAAAAAAAAAAAAAAAAAAAAAAAAA==

> <PUBCHEM_IUPAC_OPENEYE_NAME>
N,N-dimethyl-N'-[5-[(E)-2-(5-nitro-2-furyl)vinyl]-1,3,4-oxadiazol-2-yl]formamidine

> <PUBCHEM_IUPAC_CAS_NAME>
N,N-dimethyl-N'-[5-[(E)-2-(5-nitro-2-furanyl)ethenyl]-1,3,4-oxadiazol-2-yl]methanimidamide

> <PUBCHEM_IUPAC_NAME>
N,N-dimethyl-N'-[5-[(E)-2-(5-nitrofuran-2-yl)ethenyl]-1,3,4-oxadiazol-2-yl]methanimidamide

> <PUBCHEM_IUPAC_SYSTEMATIC_NAME>
N,N-dimethyl-N'-[5-[(E)-2-(5-nitrofuran-2-yl)ethenyl]-1,3,4-oxadiazol-2-yl]methanimidamide

> <PUBCHEM_IUPAC_TRADITIONAL_NAME>
N,N-dimethyl-N'-[5-[(E)-2-(5-nitro-2-furyl)vinyl]-1,3,4-oxadiazol-2-yl]formamidine

> <PUBCHEM_IUPAC_INCHI>
InChI=1S/C11H11N5O4/c1-15(2)7-12-11-14-13-9(20-11)5-3-8-4-6-10(19-8)16(17)18/h3-7H,1-2H3/b5-3+,12-7+

> <PUBCHEM_IUPAC_INCHIKEY>
QLKWZSDBTUTCIJ-PPRDQHCASA-N

> <PUBCHEM_XLOGP3_AA>
1.3

> <PUBCHEM_EXACT_MASS>
277.081104

> <PUBCHEM_MOLECULAR_FORMULA>
C11H11N5O4

> <PUBCHEM_MOLECULAR_WEIGHT>
277.23614

> <PUBCHEM_OPENEYE_CAN_SMILES>
CN(C)C=NC1=NN=C(O1)C=CC2=CC=C(O2)[N+](=O)[O-]

> <PUBCHEM_OPENEYE_ISO_SMILES>
CN(C)/C=N/C1=NN=C(O1)/C=C/C2=CC=C(O2)[N+](=O)[O-]

> <PUBCHEM_CACTVS_TPSA>
114

> <PUBCHEM_MONOISOTOPIC_WEIGHT>
277.081104

> <PUBCHEM_TOTAL_CHARGE>
0

> <PUBCHEM_HEAVY_ATOM_COUNT>
20

> <PUBCHEM_ATOM_DEF_STEREO_COUNT>
0

> <PUBCHEM_ATOM_UDEF_STEREO_COUNT>
0

> <PUBCHEM_BOND_DEF_STEREO_COUNT>
2

> <PUBCHEM_BOND_UDEF_STEREO_COUNT>
0

> <PUBCHEM_ISOTOPIC_ATOM_COUNT>
0

> <PUBCHEM_COMPONENT_COUNT>
1

> <PUBCHEM_CACTVS_TAUTO_COUNT>
1

> <PUBCHEM_COORDINATE_TYPE>
1
5
255

> <PUBCHEM_BONDANNOTATIONS>
1  10  8
1  13  8
10  11  8
11  14  8
13  14  8
2  16  8
2  20  8
8  16  8
8  9  8
9  20  8

$$$$

