443820
  -OEChem-07051213032D

 45 47  0     0  0  0  0  0  0999 V2000
    6.4144    2.6229    0.0000 O   0  0  0  0  0  0  0  0  0  0  0  0
    4.6660    2.5883    0.0000 O   0  0  0  0  0  0  0  0  0  0  0  0
    4.6660   -1.4117    0.0000 O   0  0  0  0  0  0  0  0  0  0  0  0
    2.9176    2.6229    0.0000 O   0  0  0  0  0  0  0  0  0  0  0  0
    8.1923    2.6125    0.0000 O   0  0  0  0  0  0  0  0  0  0  0  0
    9.0564   -1.9391    0.0000 O   0  0  0  0  0  0  0  0  0  0  0  0
    7.3244   -1.9325    0.0000 O   0  0  0  0  0  0  0  0  0  0  0  0
    9.9243    2.6192    0.0000 O   0  0  0  0  0  0  0  0  0  0  0  0
    5.5321    1.0883    0.0000 C   0  0  0  0  0  0  0  0  0  0  0  0
    5.5321    0.0883    0.0000 C   0  0  0  0  0  0  0  0  0  0  0  0
    7.3321    0.0675    0.0000 C   0  0  0  0  0  0  0  0  0  0  0  0
    7.3321    1.1092    0.0000 C   0  0  0  0  0  0  0  0  0  0  0  0
    6.4260    1.6230    0.0000 C   0  0  0  0  0  0  0  0  0  0  0  0
    6.4260   -0.4463    0.0000 C   0  0  0  0  0  0  0  0  0  0  0  0
    3.8000    1.0883    0.0000 C   0  0  0  0  0  0  0  0  0  0  0  0
    3.8000    0.0883    0.0000 C   0  0  0  0  0  0  0  0  0  0  0  0
    4.6660    1.5883    0.0000 C   0  0  0  0  0  0  0  0  0  0  0  0
    4.6660   -0.4117    0.0000 C   0  0  0  0  0  0  0  0  0  0  0  0
    8.1962   -0.4358    0.0000 C   0  0  0  0  0  0  0  0  0  0  0  0
    8.1962    1.6125    0.0000 C   0  0  0  0  0  0  0  0  0  0  0  0
    2.9061    1.6230    0.0000 C   0  0  0  0  0  0  0  0  0  0  0  0
    2.9061   -0.4463    0.0000 C   0  0  0  0  0  0  0  0  0  0  0  0
    9.0641    1.1158    0.0000 C   0  0  0  0  0  0  0  0  0  0  0  0
    2.0000    1.1092    0.0000 C   0  0  0  0  0  0  0  0  0  0  0  0
    2.0000    0.0675    0.0000 C   0  0  0  0  0  0  0  0  0  0  0  0
    8.1923   -1.4358    0.0000 C   0  0  0  0  0  0  0  0  0  0  0  0
    9.9282    1.6192    0.0000 C   0  0  0  0  0  0  0  0  0  0  0  0
   10.7961    1.1225    0.0000 C   0  0  0  0  0  0  0  0  0  0  0  0
    9.0525   -2.9391    0.0000 C   0  0  0  0  0  0  0  0  0  0  0  0
    6.4188   -1.0663    0.0000 H   0  0  0  0  0  0  0  0  0  0  0  0
    8.8063   -0.5458    0.0000 H   0  0  0  0  0  0  0  0  0  0  0  0
    8.4105    0.1460    0.0000 H   0  0  0  0  0  0  0  0  0  0  0  0
    2.9132   -1.0663    0.0000 H   0  0  0  0  0  0  0  0  0  0  0  0
    8.6674    0.6394    0.0000 H   0  0  0  0  0  0  0  0  0  0  0  0
    9.4645    0.6424    0.0000 H   0  0  0  0  0  0  0  0  0  0  0  0
    1.4643    1.4212    0.0000 H   0  0  0  0  0  0  0  0  0  0  0  0
    1.4643   -0.2445    0.0000 H   0  0  0  0  0  0  0  0  0  0  0  0
    6.9478    2.9391    0.0000 H   0  0  0  0  0  0  0  0  0  0  0  0
    2.3843    2.9391    0.0000 H   0  0  0  0  0  0  0  0  0  0  0  0
   10.4882    0.5844    0.0000 H   0  0  0  0  0  0  0  0  0  0  0  0
   11.3343    0.8146    0.0000 H   0  0  0  0  0  0  0  0  0  0  0  0
   11.1041    1.6606    0.0000 H   0  0  0  0  0  0  0  0  0  0  0  0
    8.4326   -2.9367    0.0000 H   0  0  0  0  0  0  0  0  0  0  0  0
    9.0502   -3.5591    0.0000 H   0  0  0  0  0  0  0  0  0  0  0  0
    9.6725   -2.9415    0.0000 H   0  0  0  0  0  0  0  0  0  0  0  0
  1 13  1  0  0  0  0
  1 38  1  0  0  0  0
  2 17  2  0  0  0  0
  3 18  2  0  0  0  0
  4 21  1  0  0  0  0
  4 39  1  0  0  0  0
  5 20  2  0  0  0  0
  6 26  1  0  0  0  0
  6 29  1  0  0  0  0
  7 26  2  0  0  0  0
  8 27  2  0  0  0  0
  9 10  2  0  0  0  0
  9 13  1  0  0  0  0
  9 17  1  0  0  0  0
 10 14  1  0  0  0  0
 10 18  1  0  0  0  0
 11 12  1  0  0  0  0
 11 14  2  0  0  0  0
 11 19  1  0  0  0  0
 12 13  2  0  0  0  0
 12 20  1  0  0  0  0
 14 30  1  0  0  0  0
 15 16  2  0  0  0  0
 15 17  1  0  0  0  0
 15 21  1  0  0  0  0
 16 18  1  0  0  0  0
 16 22  1  0  0  0  0
 19 26  1  0  0  0  0
 19 31  1  0  0  0  0
 19 32  1  0  0  0  0
 20 23  1  0  0  0  0
 21 24  2  0  0  0  0
 22 25  2  0  0  0  0
 22 33  1  0  0  0  0
 23 27  1  0  0  0  0
 23 34  1  0  0  0  0
 23 35  1  0  0  0  0
 24 25  1  0  0  0  0
 24 36  1  0  0  0  0
 25 37  1  0  0  0  0
 27 28  1  0  0  0  0
 28 40  1  0  0  0  0
 28 41  1  0  0  0  0
 28 42  1  0  0  0  0
 29 43  1  0  0  0  0
 29 44  1  0  0  0  0
 29 45  1  0  0  0  0
M  END
> <PUBCHEM_COMPOUND_CID>
443820

> <PUBCHEM_COMPOUND_CANONICALIZED>
1

> <PUBCHEM_CACTVS_COMPLEXITY>
728

> <PUBCHEM_CACTVS_HBOND_ACCEPTOR>
8

> <PUBCHEM_CACTVS_HBOND_DONOR>
2

> <PUBCHEM_CACTVS_ROTATABLE_BOND>
6

> <PUBCHEM_CACTVS_SUBSKEYS>
AAADceB4PAAAAAAAAAAAAAAAAAAAAAAAAAAwYMAAAAAAAADBQAAAGgAACAAADASAmAIyDoAABgCIAqDSCAACAAAkIAAIiAEGCMgIJjaKFRKAcUAk4BEImYeL7vzuwAADAAAYAACAAAYAADAAAAAAAAAAAA==

> <PUBCHEM_IUPAC_OPENEYE_NAME>
methyl 2-[4,5-dihydroxy-9,10-dioxo-3-(3-oxobutanoyl)-2-anthryl]acetate

> <PUBCHEM_IUPAC_CAS_NAME>
2-[3-(1,3-dioxobutyl)-4,5-dihydroxy-9,10-dioxo-2-anthracenyl]acetic acid methyl ester

> <PUBCHEM_IUPAC_NAME>
methyl 2-[4,5-dihydroxy-9,10-dioxo-3-(3-oxobutanoyl)anthracen-2-yl]acetate

> <PUBCHEM_IUPAC_SYSTEMATIC_NAME>
methyl 2-[4,5-bis(oxidanyl)-9,10-bis(oxidanylidene)-3-(3-oxidanylidenebutanoyl)anthracen-2-yl]ethanoate

> <PUBCHEM_IUPAC_TRADITIONAL_NAME>
2-(3-acetoacetyl-4,5-dihydroxy-9,10-diketo-2-anthryl)acetic acid methyl ester

> <PUBCHEM_IUPAC_INCHI>
InChI=1S/C21H16O8/c1-9(22)6-14(24)16-10(8-15(25)29-2)7-12-18(20(16)27)21(28)17-11(19(12)26)4-3-5-13(17)23/h3-5,7,23,27H,6,8H2,1-2H3

> <PUBCHEM_IUPAC_INCHIKEY>
QBPKMZSXGLNWOB-UHFFFAOYSA-N

> <PUBCHEM_XLOGP3_AA>
2

> <PUBCHEM_EXACT_MASS>
396.084517

> <PUBCHEM_MOLECULAR_FORMULA>
C21H16O8

> <PUBCHEM_MOLECULAR_WEIGHT>
396.34694

> <PUBCHEM_OPENEYE_CAN_SMILES>
CC(=O)CC(=O)C1=C(C=C2C(=C1O)C(=O)C3=C(C2=O)C=CC=C3O)CC(=O)OC

> <PUBCHEM_OPENEYE_ISO_SMILES>
CC(=O)CC(=O)C1=C(C=C2C(=C1O)C(=O)C3=C(C2=O)C=CC=C3O)CC(=O)OC

> <PUBCHEM_CACTVS_TPSA>
135

> <PUBCHEM_MONOISOTOPIC_WEIGHT>
396.084517

> <PUBCHEM_TOTAL_CHARGE>
0

> <PUBCHEM_HEAVY_ATOM_COUNT>
29

> <PUBCHEM_ATOM_DEF_STEREO_COUNT>
0

> <PUBCHEM_ATOM_UDEF_STEREO_COUNT>
0

> <PUBCHEM_BOND_DEF_STEREO_COUNT>
0

> <PUBCHEM_BOND_UDEF_STEREO_COUNT>
0

> <PUBCHEM_ISOTOPIC_ATOM_COUNT>
0

> <PUBCHEM_COMPONENT_COUNT>
1

> <PUBCHEM_CACTVS_TAUTO_COUNT>
492

> <PUBCHEM_COORDINATE_TYPE>
1
5
255

> <PUBCHEM_BONDANNOTATIONS>
10  14  8
11  12  8
11  14  8
12  13  8
15  16  8
15  21  8
16  22  8
21  24  8
22  25  8
24  25  8
9  10  8
9  13  8

$$$$

