   Color/Form

     * Colorless crystals or crystalline masses; or white, granular powder
     * Cubic crystals
     * A white, fine or coarse, crystalline powder
     * Finely divided, ... white particulate dispersed in air.

   from [1]HSDB

   Odor
        Odorless
   from [2]HSDB

   Taste
        Cooling, saline
   from [3]HSDB

   Corrosivity
        At fire temp corrodes metals
   from [4]HSDB

   Density/Specific Gravity
        1.5274 at 20 deg C
   from [5]HSDB

   pH
        pH of aq soln (25 deg C): 1% 5.5; 3% 5.1; 10% 5.0
   from [6]HSDB

   Solubilities

     * Almost insol in acetone, ether, ethyl acetate; sol in methanol
     * 28.3% (wt/wt) in water at 25 degC
     * SOL IN LIQ AMMONIA
     * 39.5 g/100 ml water at 25 deg C
     * 75.8 g/100 ml water at 100 deg C
     * 0.6 g/100 ml ethanol at 19 deg C
     * 37.840 lb/100 lb water at 70 deg F
     * 1 in 1.4 of boiling water
     * 1 in 8 of glycerol
     * In water, 3.72X10+5 mg/L at 20 deg C

   from [7]HSDB

   Spectral Properties
        Index of refraction: 1.642
   from [8]HSDB

   Vapor Pressure
        1 mm Hg at 160.4 deg C
   from [9]HSDB

   Other Chemical/Physical Properties

     * Strongly endothermic; sublimes at 340 deg C; somewhat hygroscopic;
       tendency to cake; hydrochloric acid and sodium chloride decrease
       sol in water
     * Triple point = 520 deg C; sublimes at 338 deg C
     * May volatilize and condense on cool surfaces.
     * A 0.8% soln is iso-osmotic with serum.
     * Ammonium chloride and silver salts may form a sensitive fulminating
       silver cmpd (possibly silver nitride).
     * Heat of soln: 130 BTU/lb= 72 cal/g= 3.0X10+5 J/kg

   from [10]HSDB

   Computed Properties
   Molecular Weight                  53.49146 [g/mol]
   Molecular Formula                 ClH[4]N
   H-Bond Donor                      1
   H-Bond Acceptor                   1
   Rotatable Bond Count              0
   Exact Mass                        53.003227
   MonoIsotopic Mass                 53.003227
   Topological Polar Surface Area    1
   Heavy Atom Count                  2
   Formal Charge                     0
   Complexity                        0
   Isotope Atom Count                0
   Defined Atom Stereocenter Count   0
   Undefined Atom Stereocenter Count 0
   Defined Bond Stereocenter Count   0
   Undefined Bond Stereocenter Count 0
   Covalently-Bonded Unit Count      2

References

   1. http://toxnet.nlm.nih.gov/cgi-bin/sis/search/r?dbs+hsdb:@term+@rn+@rel+12125-02-9
   2. http://toxnet.nlm.nih.gov/cgi-bin/sis/search/r?dbs+hsdb:@term+@rn+@rel+12125-02-9
   3. http://toxnet.nlm.nih.gov/cgi-bin/sis/search/r?dbs+hsdb:@term+@rn+@rel+12125-02-9
   4. http://toxnet.nlm.nih.gov/cgi-bin/sis/search/r?dbs+hsdb:@term+@rn+@rel+12125-02-9
   5. http://toxnet.nlm.nih.gov/cgi-bin/sis/search/r?dbs+hsdb:@term+@rn+@rel+12125-02-9
   6. http://toxnet.nlm.nih.gov/cgi-bin/sis/search/r?dbs+hsdb:@term+@rn+@rel+12125-02-9
   7. http://toxnet.nlm.nih.gov/cgi-bin/sis/search/r?dbs+hsdb:@term+@rn+@rel+12125-02-9
   8. http://toxnet.nlm.nih.gov/cgi-bin/sis/search/r?dbs+hsdb:@term+@rn+@rel+12125-02-9
   9. http://toxnet.nlm.nih.gov/cgi-bin/sis/search/r?dbs+hsdb:@term+@rn+@rel+12125-02-9
  10. http://toxnet.nlm.nih.gov/cgi-bin/sis/search/r?dbs+hsdb:@term+@rn+@rel+12125-02-9
