134572
  -OEChem-07051213052D

 69 72  0     1  0  0  0  0  0999 V2000
   11.2461    1.4952    0.0000 O   0  0  0  0  0  0  0  0  0  0  0  0
    4.5961   -2.8124    0.0000 O   0  0  0  0  0  0  0  0  0  0  0  0
   12.8924    0.9572    0.0000 O   0  0  0  0  0  0  0  0  0  0  0  0
    3.7359   -1.3090    0.0000 O   0  0  0  0  0  0  0  0  0  0  0  0
    8.2572   -0.7600    0.0000 C   0  0  1  0  0  0  0  0  0  0  0  0
    9.1232   -1.2600    0.0000 C   0  0  2  0  0  0  0  0  0  0  0  0
    9.9892   -0.7600    0.0000 C   0  0  1  0  0  0  0  0  0  0  0  0
    7.3472   -1.2669    0.0000 C   0  0  2  0  0  0  0  0  0  0  0  0
    9.9892    0.2400    0.0000 C   0  0  2  0  0  0  0  0  0  0  0  0
    7.3391   -2.3085    0.0000 C   0  0  1  0  0  0  0  0  0  0  0  0
    8.2572    0.2400    0.0000 C   0  0  0  0  0  0  0  0  0  0  0  0
    9.1232    0.7400    0.0000 C   0  0  0  0  0  0  0  0  0  0  0  0
    9.1392   -2.3015    0.0000 C   0  0  0  0  0  0  0  0  0  0  0  0
   10.9354    0.5447    0.0000 C   0  0  2  0  0  0  0  0  0  0  0  0
   10.9354   -1.0648    0.0000 C   0  0  0  0  0  0  0  0  0  0  0  0
    8.2412   -2.8293    0.0000 C   0  0  0  0  0  0  0  0  0  0  0  0
    6.4203   -0.7028    0.0000 C   0  0  0  0  0  0  0  0  0  0  0  0
   11.5190   -0.2600    0.0000 C   0  0  0  0  0  0  0  0  0  0  0  0
    6.4037   -2.8582    0.0000 C   0  0  0  0  0  0  0  0  0  0  0  0
    7.3549   -0.2669    0.0000 C   0  0  0  0  0  0  0  0  0  0  0  0
    9.9892    1.2400    0.0000 C   0  0  0  0  0  0  0  0  0  0  0  0
    5.4724   -1.2307    0.0000 C   0  0  0  0  0  0  0  0  0  0  0  0
    5.4641   -2.3157    0.0000 C   0  0  1  0  0  0  0  0  0  0  0  0
   12.2246    1.7014    0.0000 C   0  0  0  0  0  0  0  0  0  0  0  0
    3.7320   -2.3090    0.0000 C   0  0  0  0  0  0  0  0  0  0  0  0
   12.5353    2.6520    0.0000 C   0  0  0  0  0  0  0  0  0  0  0  0
    2.8641   -2.8057    0.0000 C   0  0  0  0  0  0  0  0  0  0  0  0
   13.5138    2.8582    0.0000 C   0  0  0  0  0  0  0  0  0  0  0  0
    2.0000   -2.3023    0.0000 C   0  0  0  0  0  0  0  0  0  0  0  0
    8.9933   -0.3350    0.0000 H   0  0  0  0  0  0  0  0  0  0  0  0
    9.8626   -1.6793    0.0000 H   0  0  0  0  0  0  0  0  0  0  0  0
   10.0792   -1.6052    0.0000 H   0  0  0  0  0  0  0  0  0  0  0  0
    7.3424   -3.1585    0.0000 H   0  0  0  0  0  0  0  0  0  0  0  0
    8.0451    0.8226    0.0000 H   0  0  0  0  0  0  0  0  0  0  0  0
    7.6466    0.1323    0.0000 H   0  0  0  0  0  0  0  0  0  0  0  0
    9.5217    1.2149    0.0000 H   0  0  0  0  0  0  0  0  0  0  0  0
    8.7247    1.2149    0.0000 H   0  0  0  0  0  0  0  0  0  0  0  0
    9.3573   -2.8819    0.0000 H   0  0  0  0  0  0  0  0  0  0  0  0
    9.7484   -2.1860    0.0000 H   0  0  0  0  0  0  0  0  0  0  0  0
   10.4980    0.9841    0.0000 H   0  0  0  0  0  0  0  0  0  0  0  0
   10.6844   -1.6317    0.0000 H   0  0  0  0  0  0  0  0  0  0  0  0
   11.4728   -1.3740    0.0000 H   0  0  0  0  0  0  0  0  0  0  0  0
    7.8439   -3.3052    0.0000 H   0  0  0  0  0  0  0  0  0  0  0  0
    8.6422   -3.3022    0.0000 H   0  0  0  0  0  0  0  0  0  0  0  0
    6.8285   -0.2361    0.0000 H   0  0  0  0  0  0  0  0  0  0  0  0
    6.0304   -0.2207    0.0000 H   0  0  0  0  0  0  0  0  0  0  0  0
   11.9799   -0.6747    0.0000 H   0  0  0  0  0  0  0  0  0  0  0  0
   11.9799    0.1547    0.0000 H   0  0  0  0  0  0  0  0  0  0  0  0
    6.0064   -3.3342    0.0000 H   0  0  0  0  0  0  0  0  0  0  0  0
    6.8047   -3.3311    0.0000 H   0  0  0  0  0  0  0  0  0  0  0  0
    7.9748   -0.2717    0.0000 H   0  0  0  0  0  0  0  0  0  0  0  0
    7.3596    0.3531    0.0000 H   0  0  0  0  0  0  0  0  0  0  0  0
    6.7349   -0.2621    0.0000 H   0  0  0  0  0  0  0  0  0  0  0  0
   10.6092    1.2400    0.0000 H   0  0  0  0  0  0  0  0  0  0  0  0
    9.9892    1.8600    0.0000 H   0  0  0  0  0  0  0  0  0  0  0  0
    9.3692    1.2400    0.0000 H   0  0  0  0  0  0  0  0  0  0  0  0
    5.2679   -0.6454    0.0000 H   0  0  0  0  0  0  0  0  0  0  0  0
    4.8608   -1.3321    0.0000 H   0  0  0  0  0  0  0  0  0  0  0  0
    4.9289   -2.0026    0.0000 H   0  0  0  0  0  0  0  0  0  0  0  0
   12.5147    3.2716    0.0000 H   0  0  0  0  0  0  0  0  0  0  0  0
   11.9214    2.7393    0.0000 H   0  0  0  0  0  0  0  0  0  0  0  0
    2.4637   -3.2791    0.0000 H   0  0  0  0  0  0  0  0  0  0  0  0
    3.2608   -3.2822    0.0000 H   0  0  0  0  0  0  0  0  0  0  0  0
   13.6416    2.2515    0.0000 H   0  0  0  0  0  0  0  0  0  0  0  0
   14.1204    2.9860    0.0000 H   0  0  0  0  0  0  0  0  0  0  0  0
   13.3859    3.4649    0.0000 H   0  0  0  0  0  0  0  0  0  0  0  0
    2.3121   -1.7666    0.0000 H   0  0  0  0  0  0  0  0  0  0  0  0
    1.4643   -1.9903    0.0000 H   0  0  0  0  0  0  0  0  0  0  0  0
    1.6879   -2.8381    0.0000 H   0  0  0  0  0  0  0  0  0  0  0  0
 14  1  1  1  0  0  0
  1 24  1  0  0  0  0
 23  2  1  6  0  0  0
  2 25  1  0  0  0  0
  3 24  2  0  0  0  0
  4 25  2  0  0  0  0
  5  6  1  0  0  0  0
  5  8  1  0  0  0  0
  5 11  1  0  0  0  0
  5 30  1  6  0  0  0
  6  7  1  0  0  0  0
  6 13  1  0  0  0  0
  6 31  1  1  0  0  0
  7  9  1  0  0  0  0
  7 15  1  0  0  0  0
  7 32  1  6  0  0  0
  8 10  1  0  0  0  0
  8 17  1  0  0  0  0
  8 20  1  1  0  0  0
  9 12  1  0  0  0  0
  9 14  1  0  0  0  0
  9 21  1  1  0  0  0
 10 16  1  0  0  0  0
 10 19  1  0  0  0  0
 10 33  1  6  0  0  0
 11 12  1  0  0  0  0
 11 34  1  0  0  0  0
 11 35  1  0  0  0  0
 12 36  1  0  0  0  0
 12 37  1  0  0  0  0
 13 16  1  0  0  0  0
 13 38  1  0  0  0  0
 13 39  1  0  0  0  0
 14 18  1  0  0  0  0
 14 40  1  0  0  0  0
 15 18  1  0  0  0  0
 15 41  1  0  0  0  0
 15 42  1  0  0  0  0
 16 43  1  0  0  0  0
 16 44  1  0  0  0  0
 17 22  1  0  0  0  0
 17 45  1  0  0  0  0
 17 46  1  0  0  0  0
 18 47  1  0  0  0  0
 18 48  1  0  0  0  0
 19 23  1  0  0  0  0
 19 49  1  0  0  0  0
 19 50  1  0  0  0  0
 20 51  1  0  0  0  0
 20 52  1  0  0  0  0
 20 53  1  0  0  0  0
 21 54  1  0  0  0  0
 21 55  1  0  0  0  0
 21 56  1  0  0  0  0
 22 23  1  0  0  0  0
 22 57  1  0  0  0  0
 22 58  1  0  0  0  0
 23 59  1  0  0  0  0
 24 26  1  0  0  0  0
 25 27  1  0  0  0  0
 26 28  1  0  0  0  0
 26 60  1  0  0  0  0
 26 61  1  0  0  0  0
 27 29  1  0  0  0  0
 27 62  1  0  0  0  0
 27 63  1  0  0  0  0
 28 64  1  0  0  0  0
 28 65  1  0  0  0  0
 28 66  1  0  0  0  0
 29 67  1  0  0  0  0
 29 68  1  0  0  0  0
 29 69  1  0  0  0  0
M  END
> <PUBCHEM_COMPOUND_CID>
134572

> <PUBCHEM_COMPOUND_CANONICALIZED>
1

> <PUBCHEM_CACTVS_COMPLEXITY>
645

> <PUBCHEM_CACTVS_HBOND_ACCEPTOR>
4

> <PUBCHEM_CACTVS_HBOND_DONOR>
0

> <PUBCHEM_CACTVS_ROTATABLE_BOND>
6

> <PUBCHEM_CACTVS_SUBSKEYS>
AAADcfB4OAAAAAAAAAAAAAAAAAAAAYAAAAAwYMAAAAAAAGDAAAAAGgAAAAAADxSggAICCAAABAAIAACQCAAAAAAAAAAAAAEAAAAAAAIAAAACAAAEAAAAAAGAwPAPgAAAAAAAAADAAAYAACAAAIAADAAAAA==

> <PUBCHEM_IUPAC_OPENEYE_NAME>
[(3R,5S,8R,9S,10S,13S,14S,17S)-10,13-dimethyl-17-propanoyloxy-2,3,4,5,6,7,8,9,11,12,14,15,16,17-tetradecahydro-1H-cyclopenta[a]phenanthren-3-yl] propanoate

> <PUBCHEM_IUPAC_CAS_NAME>
propanoic acid [(3R,5S,8R,9S,10S,13S,14S,17S)-10,13-dimethyl-17-(1-oxopropoxy)-2,3,4,5,6,7,8,9,11,12,14,15,16,17-tetradecahydro-1H-cyclopenta[a]phenanthren-3-yl] ester

> <PUBCHEM_IUPAC_NAME>
[(3R,5S,8R,9S,10S,13S,14S,17S)-10,13-dimethyl-17-propanoyloxy-2,3,4,5,6,7,8,9,11,12,14,15,16,17-tetradecahydro-1H-cyclopenta[a]phenanthren-3-yl] propanoate

> <PUBCHEM_IUPAC_SYSTEMATIC_NAME>
[(3R,5S,8R,9S,10S,13S,14S,17S)-10,13-dimethyl-17-propanoyloxy-2,3,4,5,6,7,8,9,11,12,14,15,16,17-tetradecahydro-1H-cyclopenta[a]phenanthren-3-yl] propanoate

> <PUBCHEM_IUPAC_TRADITIONAL_NAME>
propionic acid [(3R,5S,8R,9S,10S,13S,14S,17S)-10,13-dimethyl-17-propionyloxy-2,3,4,5,6,7,8,9,11,12,14,15,16,17-tetradecahydro-1H-cyclopenta[a]phenanthren-3-yl] ester

> <PUBCHEM_IUPAC_INCHI>
InChI=1S/C25H40O4/c1-5-22(26)28-17-11-13-24(3)16(15-17)7-8-18-19-9-10-21(29-23(27)6-2)25(19,4)14-12-20(18)24/h16-21H,5-15H2,1-4H3/t16-,17+,18-,19-,20-,21-,24-,25-/m0/s1

> <PUBCHEM_IUPAC_INCHIKEY>
FWAYUWSHYLKUEY-LFWYWRBCSA-N

> <PUBCHEM_XLOGP3>
6.2

> <PUBCHEM_EXACT_MASS>
404.29266

> <PUBCHEM_MOLECULAR_FORMULA>
C25H40O4

> <PUBCHEM_MOLECULAR_WEIGHT>
404.5827

> <PUBCHEM_OPENEYE_CAN_SMILES>
CCC(=O)OC1CCC2(C(C1)CCC3C2CCC4(C3CCC4OC(=O)CC)C)C

> <PUBCHEM_OPENEYE_ISO_SMILES>
CCC(=O)O[C@@H]1CC[C@]2([C@H](C1)CC[C@@H]3[C@@H]2CC[C@]4([C@H]3CC[C@@H]4OC(=O)CC)C)C

> <PUBCHEM_CACTVS_TPSA>
52.6

> <PUBCHEM_MONOISOTOPIC_WEIGHT>
404.29266

> <PUBCHEM_TOTAL_CHARGE>
0

> <PUBCHEM_HEAVY_ATOM_COUNT>
29

> <PUBCHEM_ATOM_DEF_STEREO_COUNT>
8

> <PUBCHEM_ATOM_UDEF_STEREO_COUNT>
0

> <PUBCHEM_BOND_DEF_STEREO_COUNT>
0

> <PUBCHEM_BOND_UDEF_STEREO_COUNT>
0

> <PUBCHEM_ISOTOPIC_ATOM_COUNT>
0

> <PUBCHEM_COMPONENT_COUNT>
1

> <PUBCHEM_CACTVS_TAUTO_COUNT>
1

> <PUBCHEM_COORDINATE_TYPE>
1
5
255

> <PUBCHEM_BONDANNOTATIONS>
14  1  5
10  33  6
23  2  6
5  30  6
6  31  5
7  32  6
8  20  5
9  21  5

$$$$

