4618
  -OEChem-07051213122D

 28 27  0     1  0  0  0  0  0999 V2000
    7.1962   -0.3660    0.0000 S   0  0  3  0  0  0  0  0  0  0  0  0
    4.5981    0.1340    0.0000 S   0  0  0  0  0  0  0  0  0  0  0  0
    3.7320   -0.3660    0.0000 P   0  0  0  0  0  0  0  0  0  0  0  0
    2.8660   -0.8660    0.0000 O   0  0  0  0  0  0  0  0  0  0  0  0
    3.2320    0.5000    0.0000 O   0  0  0  0  0  0  0  0  0  0  0  0
    7.1962   -1.3660    0.0000 O   0  0  0  0  0  0  0  0  0  0  0  0
    4.2320   -1.2320    0.0000 O   0  0  0  0  0  0  0  0  0  0  0  0
    6.3301    0.1340    0.0000 C   0  0  0  0  0  0  0  0  0  0  0  0
    5.4641   -0.3660    0.0000 C   0  0  0  0  0  0  0  0  0  0  0  0
    8.0622    0.1340    0.0000 C   0  0  0  0  0  0  0  0  0  0  0  0
    8.9282   -0.3660    0.0000 C   0  0  0  0  0  0  0  0  0  0  0  0
    2.0000   -0.3660    0.0000 C   0  0  0  0  0  0  0  0  0  0  0  0
    3.7320    1.3660    0.0000 C   0  0  0  0  0  0  0  0  0  0  0  0
    6.7287    0.6089    0.0000 H   0  0  0  0  0  0  0  0  0  0  0  0
    5.9316    0.6089    0.0000 H   0  0  0  0  0  0  0  0  0  0  0  0
    5.0656   -0.8410    0.0000 H   0  0  0  0  0  0  0  0  0  0  0  0
    5.8626   -0.8410    0.0000 H   0  0  0  0  0  0  0  0  0  0  0  0
    8.4607    0.6089    0.0000 H   0  0  0  0  0  0  0  0  0  0  0  0
    7.6636    0.6089    0.0000 H   0  0  0  0  0  0  0  0  0  0  0  0
    8.6182   -0.9030    0.0000 H   0  0  0  0  0  0  0  0  0  0  0  0
    9.4651   -0.6760    0.0000 H   0  0  0  0  0  0  0  0  0  0  0  0
    9.2382    0.1709    0.0000 H   0  0  0  0  0  0  0  0  0  0  0  0
    2.3100    0.1709    0.0000 H   0  0  0  0  0  0  0  0  0  0  0  0
    1.4631   -0.0560    0.0000 H   0  0  0  0  0  0  0  0  0  0  0  0
    1.6900   -0.9030    0.0000 H   0  0  0  0  0  0  0  0  0  0  0  0
    4.2690    1.0560    0.0000 H   0  0  0  0  0  0  0  0  0  0  0  0
    4.0420    1.9030    0.0000 H   0  0  0  0  0  0  0  0  0  0  0  0
    3.1951    1.6760    0.0000 H   0  0  0  0  0  0  0  0  0  0  0  0
  1  6  2  0  0  0  0
  1  8  1  0  0  0  0
  1 10  1  0  0  0  0
  2  3  1  0  0  0  0
  2  9  1  0  0  0  0
  3  4  1  0  0  0  0
  3  5  1  0  0  0  0
  3  7  2  0  0  0  0
  4 12  1  0  0  0  0
  5 13  1  0  0  0  0
  8  9  1  0  0  0  0
  8 14  1  0  0  0  0
  8 15  1  0  0  0  0
  9 16  1  0  0  0  0
  9 17  1  0  0  0  0
 10 11  1  0  0  0  0
 10 18  1  0  0  0  0
 10 19  1  0  0  0  0
 11 20  1  0  0  0  0
 11 21  1  0  0  0  0
 11 22  1  0  0  0  0
 12 23  1  0  0  0  0
 12 24  1  0  0  0  0
 12 25  1  0  0  0  0
 13 26  1  0  0  0  0
 13 27  1  0  0  0  0
 13 28  1  0  0  0  0
M  END
> <PUBCHEM_COMPOUND_CID>
4618

> <PUBCHEM_COMPOUND_CANONICALIZED>
1

> <PUBCHEM_CACTVS_COMPLEXITY>
201

> <PUBCHEM_CACTVS_HBOND_ACCEPTOR>
6

> <PUBCHEM_CACTVS_HBOND_DONOR>
0

> <PUBCHEM_CACTVS_ROTATABLE_BOND>
7

> <PUBCHEM_CACTVS_SUBSKEYS>
AAADccBgOAJgAAAAAAAAAAAAAAAAAAAAAAAAAAAAAAAAAAAAAAAAGgQAACAAAACEQAKCAAAAARoAQAAAAMBAAAAAABAAAAAAAAAAAAAAAAAAAAAAAAAgAAAAAAAAAAAAAAAAAAAAAAAAAAAAAAAAAAAAAA==

> <PUBCHEM_IUPAC_OPENEYE_NAME>
1-dimethoxyphosphorylsulfanyl-2-ethylsulfinyl-ethane

> <PUBCHEM_IUPAC_CAS_NAME>
1-(dimethoxyphosphorylthio)-2-ethylsulfinylethane

> <PUBCHEM_IUPAC_NAME>
1-dimethoxyphosphorylsulfanyl-2-ethylsulfinylethane

> <PUBCHEM_IUPAC_SYSTEMATIC_NAME>
1-dimethoxyphosphorylsulfanyl-2-ethylsulfinyl-ethane

> <PUBCHEM_IUPAC_TRADITIONAL_NAME>
1-(dimethoxyphosphorylthio)-2-ethylsulfinyl-ethane

> <PUBCHEM_IUPAC_INCHI>
InChI=1S/C6H15O4PS2/c1-4-13(8)6-5-12-11(7,9-2)10-3/h4-6H2,1-3H3

> <PUBCHEM_IUPAC_INCHIKEY>
PMCVMORKVPSKHZ-UHFFFAOYSA-N

> <PUBCHEM_XLOGP3_AA>
-0.7

> <PUBCHEM_EXACT_MASS>
246.014938

> <PUBCHEM_MOLECULAR_FORMULA>
C6H15O4PS2

> <PUBCHEM_MOLECULAR_WEIGHT>
246.284662

> <PUBCHEM_OPENEYE_CAN_SMILES>
CCS(=O)CCSP(=O)(OC)OC

> <PUBCHEM_OPENEYE_ISO_SMILES>
CCS(=O)CCSP(=O)(OC)OC

> <PUBCHEM_CACTVS_TPSA>
97.1

> <PUBCHEM_MONOISOTOPIC_WEIGHT>
246.014938

> <PUBCHEM_TOTAL_CHARGE>
0

> <PUBCHEM_HEAVY_ATOM_COUNT>
13

> <PUBCHEM_ATOM_DEF_STEREO_COUNT>
0

> <PUBCHEM_ATOM_UDEF_STEREO_COUNT>
1

> <PUBCHEM_BOND_DEF_STEREO_COUNT>
0

> <PUBCHEM_BOND_UDEF_STEREO_COUNT>
0

> <PUBCHEM_ISOTOPIC_ATOM_COUNT>
0

> <PUBCHEM_COMPONENT_COUNT>
1

> <PUBCHEM_CACTVS_TAUTO_COUNT>
1

> <PUBCHEM_COORDINATE_TYPE>
1
5
255

> <PUBCHEM_BONDANNOTATIONS>
1  8  3

$$$$

