   Color/Form

     * Crystals
     * WHITE TO FAINT YELLOW CRYSTALLINE POWDER

   from [1]HSDB

   Boiling Point
        190-192 deg C @ 3 mm Hg
   from [2]HSDB

   Melting Point
        60 deg C
   from [3]HSDB

   Octanol/Water Partition Coefficient
        log Kow = 4.81
   from [4]HSDB

   pH
        pH= 4-5.5 /Promethazine HCl/
   from [5]HSDB

   Solubilities

     * Practically insol in acetone, ether, ethyl acetate
     * Very sol in dil hydrogen chloride
     * In water, 15.6 mg/l @ 24 deg C

   from [6]HSDB

   Spectral Properties

     * IR: 5185 (Coblentz Society Spectral Collection)
     * MASS: 2-262 (Archives of Mass Spectral Data, John Wiley & Sons, New
       York)
     * MASS: 2088 (National Bureau of Standards EPA-NIH Mass Spectra Data
       Base, NSRDS-NBS-63)
     * Intense mass spectral peaks: 72 m/z, 199 m/z, 213 m/z, 284 m/z

   from [7]HSDB

   Other Chemical/Physical Properties

     * Crystals from ethylene dichloride; Soluble in alcohol, chlorform;
       MP: 230-232 deg C with some decomp; Max absorption: 249 nm;
       10[a(249)/a(298)]= 8.0-8.8; Slightly acid to litmus; pH of 10% aq
       soln 5.3 /HCl/
     * The osmolality of promethazine HCl 25 mg/ml was determined to be
       291 mOsm/kg. /Promethazine HCl/
     * PRACTICALLY ODORLESS /HCL/

   from [8]HSDB

   Computed Properties
   Molecular Weight                  284.4191 [g/mol]
   Molecular Formula                 C[17]H[20]N[2]S
   XLogP3                            4.8
   H-Bond Donor                      0
   H-Bond Acceptor                   3
   Rotatable Bond Count              3
   Exact Mass                        284.13472
   MonoIsotopic Mass                 284.13472
   Topological Polar Surface Area    31.8
   Heavy Atom Count                  20
   Formal Charge                     0
   Complexity                        298
   Isotope Atom Count                0
   Defined Atom Stereocenter Count   0
   Undefined Atom Stereocenter Count 1
   Defined Bond Stereocenter Count   0
   Undefined Bond Stereocenter Count 0
   Covalently-Bonded Unit Count      1
   Feature 3D Cation Count           2
   Feature 3D Ring Count             3
   Effective Rotor Count             3.4
   Conformer Sampling RMSD           0.6
   CID Conformer Count               [9]5

References

   1. http://toxnet.nlm.nih.gov/cgi-bin/sis/search/r?dbs+hsdb:@term+@rn+@rel+60-87-7
   2. http://toxnet.nlm.nih.gov/cgi-bin/sis/search/r?dbs+hsdb:@term+@rn+@rel+60-87-7
   3. http://toxnet.nlm.nih.gov/cgi-bin/sis/search/r?dbs+hsdb:@term+@rn+@rel+60-87-7
   4. http://toxnet.nlm.nih.gov/cgi-bin/sis/search/r?dbs+hsdb:@term+@rn+@rel+60-87-7
   5. http://toxnet.nlm.nih.gov/cgi-bin/sis/search/r?dbs+hsdb:@term+@rn+@rel+60-87-7
   6. http://toxnet.nlm.nih.gov/cgi-bin/sis/search/r?dbs+hsdb:@term+@rn+@rel+60-87-7
   7. http://toxnet.nlm.nih.gov/cgi-bin/sis/search/r?dbs+hsdb:@term+@rn+@rel+60-87-7
   8. http://toxnet.nlm.nih.gov/cgi-bin/sis/search/r?dbs+hsdb:@term+@rn+@rel+60-87-7
   9. http://pubchem.ncbi.nlm.nih.gov/vw3d/vw3d.cgi?cid=4927
