253633
  -OEChem-07051213062D

 56 59  0     1  0  0  0  0  0999 V2000
    8.6524    2.3999    0.0000 O   0  0  0  0  0  0  0  0  0  0  0  0
    2.0024   -1.9077    0.0000 O   0  0  0  0  0  0  0  0  0  0  0  0
    5.6634    0.1446    0.0000 C   0  0  1  0  0  0  0  0  0  0  0  0
    6.5294   -0.3554    0.0000 C   0  0  2  0  0  0  0  0  0  0  0  0
    4.7534   -0.3622    0.0000 C   0  0  2  0  0  0  0  0  0  0  0  0
    7.3955    0.1446    0.0000 C   0  0  1  0  0  0  0  0  0  0  0  0
    7.3955    1.1446    0.0000 C   0  0  2  0  0  0  0  0  0  0  0  0
    4.7454   -1.4038    0.0000 C   0  0  1  0  0  0  0  0  0  0  0  0
    5.6634    1.1446    0.0000 C   0  0  0  0  0  0  0  0  0  0  0  0
    6.5455   -1.3969    0.0000 C   0  0  0  0  0  0  0  0  0  0  0  0
    6.5294    1.6446    0.0000 C   0  0  0  0  0  0  0  0  0  0  0  0
    5.6475   -1.9246    0.0000 C   0  0  0  0  0  0  0  0  0  0  0  0
    8.3417   -0.1601    0.0000 C   0  0  0  0  0  0  0  0  0  0  0  0
    3.8266    0.2018    0.0000 C   0  0  0  0  0  0  0  0  0  0  0  0
    8.3417    1.4493    0.0000 C   0  0  2  0  0  0  0  0  0  0  0  0
    8.9253    0.6446    0.0000 C   0  0  0  0  0  0  0  0  0  0  0  0
    3.8100   -1.9536    0.0000 C   0  0  0  0  0  0  0  0  0  0  0  0
    2.8787   -0.3261    0.0000 C   0  0  2  0  0  0  0  0  0  0  0  0
    4.7611    0.6377    0.0000 C   0  0  0  0  0  0  0  0  0  0  0  0
    7.3955    2.1446    0.0000 C   0  0  0  0  0  0  0  0  0  0  0  0
    2.8703   -1.4111    0.0000 C   0  0  1  0  0  0  0  0  0  0  0  0
    2.0185    0.1839    0.0000 C   0  0  0  0  0  0  0  0  0  0  0  0
    6.3995    0.5696    0.0000 H   0  0  0  0  0  0  0  0  0  0  0  0
    7.2688   -0.7747    0.0000 H   0  0  0  0  0  0  0  0  0  0  0  0
    7.4854   -0.7006    0.0000 H   0  0  0  0  0  0  0  0  0  0  0  0
    4.7487   -2.2538    0.0000 H   0  0  0  0  0  0  0  0  0  0  0  0
    5.4514    1.7272    0.0000 H   0  0  0  0  0  0  0  0  0  0  0  0
    5.0528    1.0370    0.0000 H   0  0  0  0  0  0  0  0  0  0  0  0
    6.7635   -1.9773    0.0000 H   0  0  0  0  0  0  0  0  0  0  0  0
    7.1546   -1.2814    0.0000 H   0  0  0  0  0  0  0  0  0  0  0  0
    6.9280    2.1196    0.0000 H   0  0  0  0  0  0  0  0  0  0  0  0
    6.1309    2.1196    0.0000 H   0  0  0  0  0  0  0  0  0  0  0  0
    5.2502   -2.4006    0.0000 H   0  0  0  0  0  0  0  0  0  0  0  0
    6.0484   -2.3975    0.0000 H   0  0  0  0  0  0  0  0  0  0  0  0
    8.0907   -0.7270    0.0000 H   0  0  0  0  0  0  0  0  0  0  0  0
    8.8791   -0.4693    0.0000 H   0  0  0  0  0  0  0  0  0  0  0  0
    4.2348    0.6685    0.0000 H   0  0  0  0  0  0  0  0  0  0  0  0
    3.4367    0.6839    0.0000 H   0  0  0  0  0  0  0  0  0  0  0  0
    8.9542    1.5455    0.0000 H   0  0  0  0  0  0  0  0  0  0  0  0
    9.3862    0.2299    0.0000 H   0  0  0  0  0  0  0  0  0  0  0  0
    9.3862    1.0593    0.0000 H   0  0  0  0  0  0  0  0  0  0  0  0
    3.4127   -2.4295    0.0000 H   0  0  0  0  0  0  0  0  0  0  0  0
    4.2109   -2.4264    0.0000 H   0  0  0  0  0  0  0  0  0  0  0  0
    2.8871    0.2938    0.0000 H   0  0  0  0  0  0  0  0  0  0  0  0
    5.3811    0.6330    0.0000 H   0  0  0  0  0  0  0  0  0  0  0  0
    4.7659    1.2577    0.0000 H   0  0  0  0  0  0  0  0  0  0  0  0
    4.1412    0.6425    0.0000 H   0  0  0  0  0  0  0  0  0  0  0  0
    8.0155    2.1446    0.0000 H   0  0  0  0  0  0  0  0  0  0  0  0
    7.3955    2.7646    0.0000 H   0  0  0  0  0  0  0  0  0  0  0  0
    6.7755    2.1446    0.0000 H   0  0  0  0  0  0  0  0  0  0  0  0
    2.3352   -1.0980    0.0000 H   0  0  0  0  0  0  0  0  0  0  0  0
    2.3347    0.7172    0.0000 H   0  0  0  0  0  0  0  0  0  0  0  0
    1.4852    0.5001    0.0000 H   0  0  0  0  0  0  0  0  0  0  0  0
    1.7023   -0.3494    0.0000 H   0  0  0  0  0  0  0  0  0  0  0  0
    9.2590    2.5277    0.0000 H   0  0  0  0  0  0  0  0  0  0  0  0
    2.0000   -2.5277    0.0000 H   0  0  0  0  0  0  0  0  0  0  0  0
 15  1  1  1  0  0  0
  1 55  1  0  0  0  0
 21  2  1  6  0  0  0
  2 56  1  0  0  0  0
  3  4  1  0  0  0  0
  3  5  1  0  0  0  0
  3  9  1  0  0  0  0
  3 23  1  6  0  0  0
  4  6  1  0  0  0  0
  4 10  1  0  0  0  0
  4 24  1  1  0  0  0
  5  8  1  0  0  0  0
  5 14  1  0  0  0  0
  5 19  1  1  0  0  0
  6  7  1  0  0  0  0
  6 13  1  0  0  0  0
  6 25  1  6  0  0  0
  7 11  1  0  0  0  0
  7 15  1  0  0  0  0
  7 20  1  1  0  0  0
  8 12  1  0  0  0  0
  8 17  1  0  0  0  0
  8 26  1  6  0  0  0
  9 11  1  0  0  0  0
  9 27  1  0  0  0  0
  9 28  1  0  0  0  0
 10 12  1  0  0  0  0
 10 29  1  0  0  0  0
 10 30  1  0  0  0  0
 11 31  1  0  0  0  0
 11 32  1  0  0  0  0
 12 33  1  0  0  0  0
 12 34  1  0  0  0  0
 13 16  1  0  0  0  0
 13 35  1  0  0  0  0
 13 36  1  0  0  0  0
 14 18  1  0  0  0  0
 14 37  1  0  0  0  0
 14 38  1  0  0  0  0
 15 16  1  0  0  0  0
 15 39  1  0  0  0  0
 16 40  1  0  0  0  0
 16 41  1  0  0  0  0
 17 21  1  0  0  0  0
 17 42  1  0  0  0  0
 17 43  1  0  0  0  0
 18 21  1  0  0  0  0
 18 22  1  6  0  0  0
 18 44  1  0  0  0  0
 19 45  1  0  0  0  0
 19 46  1  0  0  0  0
 19 47  1  0  0  0  0
 20 48  1  0  0  0  0
 20 49  1  0  0  0  0
 20 50  1  0  0  0  0
 21 51  1  0  0  0  0
 22 52  1  0  0  0  0
 22 53  1  0  0  0  0
 22 54  1  0  0  0  0
M  END
> <PUBCHEM_COMPOUND_CID>
253633

> <PUBCHEM_COMPOUND_CANONICALIZED>
1

> <PUBCHEM_CACTVS_COMPLEXITY>
449

> <PUBCHEM_CACTVS_HBOND_ACCEPTOR>
2

> <PUBCHEM_CACTVS_HBOND_DONOR>
2

> <PUBCHEM_CACTVS_ROTATABLE_BOND>
0

> <PUBCHEM_CACTVS_SUBSKEYS>
AAADcfB4MAAAAAAAAAAAAAAAAAAAAYAAAAAwYMAAAAAAAGDAAAAAGgAACAAADxSggAICAAAAAgAAAAAAAAAAAAAAAAAAAAAAAAAAEAIAAAAAQAAEAAAAAAGAwPAPgAAAAAAAAADAAAYAADAAAIAADAAAAA==

> <PUBCHEM_IUPAC_OPENEYE_NAME>
(2R,3S,5S,8R,9S,10S,13S,14S,17S)-2,10,13-trimethyl-2,3,4,5,6,7,8,9,11,12,14,15,16,17-tetradecahydro-1H-cyclopenta[a]phenanthrene-3,17-diol

> <PUBCHEM_IUPAC_CAS_NAME>
(2R,3S,5S,8R,9S,10S,13S,14S,17S)-2,10,13-trimethyl-2,3,4,5,6,7,8,9,11,12,14,15,16,17-tetradecahydro-1H-cyclopenta[a]phenanthrene-3,17-diol

> <PUBCHEM_IUPAC_NAME>
(2R,3S,5S,8R,9S,10S,13S,14S,17S)-2,10,13-trimethyl-2,3,4,5,6,7,8,9,11,12,14,15,16,17-tetradecahydro-1H-cyclopenta[a]phenanthrene-3,17-diol

> <PUBCHEM_IUPAC_SYSTEMATIC_NAME>
(2R,3S,5S,8R,9S,10S,13S,14S,17S)-2,10,13-trimethyl-2,3,4,5,6,7,8,9,11,12,14,15,16,17-tetradecahydro-1H-cyclopenta[a]phenanthrene-3,17-diol

> <PUBCHEM_IUPAC_TRADITIONAL_NAME>
(2R,3S,5S,8R,9S,10S,13S,14S,17S)-2,10,13-trimethyl-2,3,4,5,6,7,8,9,11,12,14,15,16,17-tetradecahydro-1H-cyclopenta[a]phenanthrene-3,17-diol

> <PUBCHEM_IUPAC_INCHI>
InChI=1S/C20H34O2/c1-12-11-20(3)13(10-17(12)21)4-5-14-15-6-7-18(22)19(15,2)9-8-16(14)20/h12-18,21-22H,4-11H2,1-3H3/t12-,13+,14+,15+,16+,17+,18+,19+,20+/m1/s1

> <PUBCHEM_IUPAC_INCHIKEY>
GKHMLMUXODLNKN-NZPOWLKHSA-N

> <PUBCHEM_XLOGP3>
4.6

> <PUBCHEM_EXACT_MASS>
306.25588

> <PUBCHEM_MOLECULAR_FORMULA>
C20H34O2

> <PUBCHEM_MOLECULAR_WEIGHT>
306.48276

> <PUBCHEM_OPENEYE_CAN_SMILES>
CC1CC2(C(CCC3C2CCC4(C3CCC4O)C)CC1O)C

> <PUBCHEM_OPENEYE_ISO_SMILES>
C[C@@H]1C[C@]2([C@@H](CC[C@@H]3[C@@H]2CC[C@]4([C@H]3CC[C@@H]4O)C)C[C@@H]1O)C

> <PUBCHEM_CACTVS_TPSA>
40.5

> <PUBCHEM_MONOISOTOPIC_WEIGHT>
306.25588

> <PUBCHEM_TOTAL_CHARGE>
0

> <PUBCHEM_HEAVY_ATOM_COUNT>
22

> <PUBCHEM_ATOM_DEF_STEREO_COUNT>
9

> <PUBCHEM_ATOM_UDEF_STEREO_COUNT>
0

> <PUBCHEM_BOND_DEF_STEREO_COUNT>
0

> <PUBCHEM_BOND_UDEF_STEREO_COUNT>
0

> <PUBCHEM_ISOTOPIC_ATOM_COUNT>
0

> <PUBCHEM_COMPONENT_COUNT>
1

> <PUBCHEM_CACTVS_TAUTO_COUNT>
1

> <PUBCHEM_COORDINATE_TYPE>
1
5
255

> <PUBCHEM_BONDANNOTATIONS>
15  1  5
18  22  6
21  2  6
3  23  6
4  24  5
5  19  5
6  25  6
7  20  5
8  26  6

$$$$

