439776
  -OEChem-07051212472D

 19 19  0     0  0  0  0  0  0999 V2000
    4.3802   -1.2174    0.0000 O   0  0  0  0  0  0  0  0  0  0  0  0
    5.1906    0.4654    0.0000 O   0  0  0  0  0  0  0  0  0  0  0  0
    4.3802    2.1482    0.0000 O   0  0  0  0  0  0  0  0  0  0  0  0
    3.7568   -0.4355    0.0000 C   0  0  0  0  0  0  0  0  0  0  0  0
    4.1906    0.4654    0.0000 C   0  0  0  0  0  0  0  0  0  0  0  0
    2.7818   -0.6581    0.0000 C   0  0  0  0  0  0  0  0  0  0  0  0
    3.7568    1.3664    0.0000 C   0  0  0  0  0  0  0  0  0  0  0  0
    2.0000   -0.0346    0.0000 C   0  0  0  0  0  0  0  0  0  0  0  0
    2.7818    1.5889    0.0000 C   0  0  0  0  0  0  0  0  0  0  0  0
    2.0000    0.9654    0.0000 C   0  0  0  0  0  0  0  0  0  0  0  0
    4.0149   -2.1482    0.0000 C   0  0  0  0  0  0  0  0  0  0  0  0
    2.6439   -1.2625    0.0000 H   0  0  0  0  0  0  0  0  0  0  0  0
    1.4414   -0.3036    0.0000 H   0  0  0  0  0  0  0  0  0  0  0  0
    2.6439    2.1934    0.0000 H   0  0  0  0  0  0  0  0  0  0  0  0
    1.4414    1.2344    0.0000 H   0  0  0  0  0  0  0  0  0  0  0  0
    3.4378   -1.9217    0.0000 H   0  0  0  0  0  0  0  0  0  0  0  0
    3.7884   -2.7254    0.0000 H   0  0  0  0  0  0  0  0  0  0  0  0
    4.5921   -2.3748    0.0000 H   0  0  0  0  0  0  0  0  0  0  0  0
    5.5006   -0.0715    0.0000 H   0  0  0  0  0  0  0  0  0  0  0  0
  1  4  1  0  0  0  0
  1 11  1  0  0  0  0
  2  5  1  0  0  0  0
  2 19  1  0  0  0  0
  3  7  2  0  0  0  0
  4  5  2  0  0  0  0
  4  6  1  0  0  0  0
  5  7  1  0  0  0  0
  6  8  2  0  0  0  0
  6 12  1  0  0  0  0
  7  9  1  0  0  0  0
  8 10  1  0  0  0  0
  8 13  1  0  0  0  0
  9 10  2  0  0  0  0
  9 14  1  0  0  0  0
 10 15  1  0  0  0  0
 11 16  1  0  0  0  0
 11 17  1  0  0  0  0
 11 18  1  0  0  0  0
M  END
> <PUBCHEM_COMPOUND_CID>
439776

> <PUBCHEM_COMPOUND_CANONICALIZED>
1

> <PUBCHEM_CACTVS_COMPLEXITY>
259

> <PUBCHEM_CACTVS_HBOND_ACCEPTOR>
3

> <PUBCHEM_CACTVS_HBOND_DONOR>
1

> <PUBCHEM_CACTVS_ROTATABLE_BOND>
1

> <PUBCHEM_CACTVS_SUBSKEYS>
AAADccBwMAAAAAAAAAAAAAAAAAAAAAAAAAAAAAAABAAAAAAAAAAAGgAACAAACASAgAICAAAABgCIAKBSAAIACAAgIAAICABAAEgIBAAAIQAAUAAAQAAIoYIAAAAAAAAAAAAAAAAAAAAAAAAAAAAAAAAAAA==

> <PUBCHEM_IUPAC_OPENEYE_NAME>
2-hydroxy-3-methoxy-cyclohepta-2,4,6-trien-1-one

> <PUBCHEM_IUPAC_CAS_NAME>
2-hydroxy-3-methoxy-1-cyclohepta-2,4,6-trienone

> <PUBCHEM_IUPAC_NAME>
2-hydroxy-3-methoxycyclohepta-2,4,6-trien-1-one

> <PUBCHEM_IUPAC_SYSTEMATIC_NAME>
3-methoxy-2-oxidanyl-cyclohepta-2,4,6-trien-1-one

> <PUBCHEM_IUPAC_TRADITIONAL_NAME>
2-hydroxy-3-methoxy-cyclohepta-2,4,6-trien-1-one

> <PUBCHEM_IUPAC_INCHI>
InChI=1S/C8H8O3/c1-11-7-5-3-2-4-6(9)8(7)10/h2-5H,1H3,(H,9,10)

> <PUBCHEM_IUPAC_INCHIKEY>
MSUIQNOEASGXHI-UHFFFAOYSA-N

> <PUBCHEM_XLOGP3_AA>
1.1

> <PUBCHEM_EXACT_MASS>
152.047344

> <PUBCHEM_MOLECULAR_FORMULA>
C8H8O3

> <PUBCHEM_MOLECULAR_WEIGHT>
152.14732

> <PUBCHEM_OPENEYE_CAN_SMILES>
COC1=C(C(=O)C=CC=C1)O

> <PUBCHEM_OPENEYE_ISO_SMILES>
COC1=C(C(=O)C=CC=C1)O

> <PUBCHEM_CACTVS_TPSA>
46.5

> <PUBCHEM_MONOISOTOPIC_WEIGHT>
152.047344

> <PUBCHEM_TOTAL_CHARGE>
0

> <PUBCHEM_HEAVY_ATOM_COUNT>
11

> <PUBCHEM_ATOM_DEF_STEREO_COUNT>
0

> <PUBCHEM_ATOM_UDEF_STEREO_COUNT>
0

> <PUBCHEM_BOND_DEF_STEREO_COUNT>
0

> <PUBCHEM_BOND_UDEF_STEREO_COUNT>
0

> <PUBCHEM_ISOTOPIC_ATOM_COUNT>
0

> <PUBCHEM_COMPONENT_COUNT>
1

> <PUBCHEM_CACTVS_TAUTO_COUNT>
5

> <PUBCHEM_COORDINATE_TYPE>
1
5
255

> <PUBCHEM_BONDANNOTATIONS>
4  5  8
4  6  8
5  7  8
6  8  8
7  9  8
8  10  8
9  10  8

$$$$

