10463
  -OEChem-06261204342D

 41 40  0     1  0  0  0  0  0999 V2000
    4.5981   -1.5950    0.0000 O   0  0  0  0  0  0  0  0  0  0  0  0
   16.7224    1.4050    0.0000 O   0  0  0  0  0  0  0  0  0  0  0  0
    3.7320   -0.0950    0.0000 C   0  0  0  0  0  0  0  0  0  0  0  0
    4.5981   -0.5950    0.0000 C   0  0  3  0  0  0  0  0  0  0  0  0
    2.8660   -0.5950    0.0000 C   0  0  0  0  0  0  0  0  0  0  0  0
    2.0000   -0.0950    0.0000 C   0  0  0  0  0  0  0  0  0  0  0  0
    5.4641   -0.0950    0.0000 C   0  0  0  0  0  0  0  0  0  0  0  0
    6.3301   -0.5950    0.0000 C   0  0  0  0  0  0  0  0  0  0  0  0
   14.9904    1.4050    0.0000 C   0  0  0  0  0  0  0  0  0  0  0  0
   14.1244    1.9050    0.0000 C   0  0  0  0  0  0  0  0  0  0  0  0
   15.8564    1.9050    0.0000 C   0  0  0  0  0  0  0  0  0  0  0  0
    7.1962   -0.0950    0.0000 C   0  0  0  0  0  0  0  0  0  0  0  0
    8.0622   -0.5950    0.0000 C   0  0  0  0  0  0  0  0  0  0  0  0
   13.2583    1.4050    0.0000 C   0  0  0  0  0  0  0  0  0  0  0  0
    8.9282   -0.0950    0.0000 C   0  0  0  0  0  0  0  0  0  0  0  0
    9.7942   -0.5950    0.0000 C   0  0  0  0  0  0  0  0  0  0  0  0
   12.3923    0.9050    0.0000 C   0  0  0  0  0  0  0  0  0  0  0  0
   10.6603   -0.0950    0.0000 C   0  0  0  0  0  0  0  0  0  0  0  0
   11.5263    0.4050    0.0000 C   0  0  0  0  0  0  0  0  0  0  0  0
    4.1306    0.3799    0.0000 H   0  0  0  0  0  0  0  0  0  0  0  0
    3.3335    0.3799    0.0000 H   0  0  0  0  0  0  0  0  0  0  0  0
    5.3342   -1.0200    0.0000 H   0  0  0  0  0  0  0  0  0  0  0  0
    2.4675   -1.0700    0.0000 H   0  0  0  0  0  0  0  0  0  0  0  0
    3.2646   -1.0700    0.0000 H   0  0  0  0  0  0  0  0  0  0  0  0
    2.3100    0.4419    0.0000 H   0  0  0  0  0  0  0  0  0  0  0  0
    1.4631    0.2150    0.0000 H   0  0  0  0  0  0  0  0  0  0  0  0
    1.6900   -0.6319    0.0000 H   0  0  0  0  0  0  0  0  0  0  0  0
    5.4641    0.5250    0.0000 H   0  0  0  0  0  0  0  0  0  0  0  0
    4.0611   -1.9050    0.0000 H   0  0  0  0  0  0  0  0  0  0  0  0
    6.3301   -1.2150    0.0000 H   0  0  0  0  0  0  0  0  0  0  0  0
   14.5919    0.9301    0.0000 H   0  0  0  0  0  0  0  0  0  0  0  0
   15.3889    0.9301    0.0000 H   0  0  0  0  0  0  0  0  0  0  0  0
   14.5229    2.3800    0.0000 H   0  0  0  0  0  0  0  0  0  0  0  0
   13.7258    2.3800    0.0000 H   0  0  0  0  0  0  0  0  0  0  0  0
   16.2549    2.3800    0.0000 H   0  0  0  0  0  0  0  0  0  0  0  0
   15.4579    2.3800    0.0000 H   0  0  0  0  0  0  0  0  0  0  0  0
    7.1962    0.5250    0.0000 H   0  0  0  0  0  0  0  0  0  0  0  0
    8.0622   -1.2150    0.0000 H   0  0  0  0  0  0  0  0  0  0  0  0
   17.2594    1.7150    0.0000 H   0  0  0  0  0  0  0  0  0  0  0  0
    8.9282    0.5250    0.0000 H   0  0  0  0  0  0  0  0  0  0  0  0
    9.7942   -1.2150    0.0000 H   0  0  0  0  0  0  0  0  0  0  0  0
  1  4  1  0  0  0  0
  1 29  1  0  0  0  0
  2 11  1  0  0  0  0
  2 39  1  0  0  0  0
  3  4  1  0  0  0  0
  3  5  1  0  0  0  0
  3 20  1  0  0  0  0
  3 21  1  0  0  0  0
  4  7  1  0  0  0  0
  4 22  1  0  0  0  0
  5  6  1  0  0  0  0
  5 23  1  0  0  0  0
  5 24  1  0  0  0  0
  6 25  1  0  0  0  0
  6 26  1  0  0  0  0
  6 27  1  0  0  0  0
  7  8  2  3  0  0  0
  7 28  1  0  0  0  0
  8 12  1  0  0  0  0
  8 30  1  0  0  0  0
  9 10  1  0  0  0  0
  9 11  1  0  0  0  0
  9 31  1  0  0  0  0
  9 32  1  0  0  0  0
 10 14  1  0  0  0  0
 10 33  1  0  0  0  0
 10 34  1  0  0  0  0
 11 35  1  0  0  0  0
 11 36  1  0  0  0  0
 12 13  2  3  0  0  0
 12 37  1  0  0  0  0
 13 15  1  0  0  0  0
 13 38  1  0  0  0  0
 14 17  3  0  0  0  0
 15 16  2  3  0  0  0
 15 40  1  0  0  0  0
 16 18  1  0  0  0  0
 16 41  1  0  0  0  0
 17 19  1  0  0  0  0
 18 19  3  0  0  0  0
M  END
> <PUBCHEM_COMPOUND_CID>
10463

> <PUBCHEM_COMPOUND_CANONICALIZED>
1

> <PUBCHEM_CACTVS_COMPLEXITY>
429

> <PUBCHEM_CACTVS_HBOND_ACCEPTOR>
2

> <PUBCHEM_CACTVS_HBOND_DONOR>
2

> <PUBCHEM_CACTVS_ROTATABLE_BOND>
8

> <PUBCHEM_CACTVS_SUBSKEYS>
AAADceB4MAAAAAAAAAAAAAAAAAAAAAAAAAAAAAAAAAAAAAAAAAAAGgAACAAACBSggAICAAAAAgDAECBCAAgAAAAgAAAICAAAAAgIFAIAAQAAUAAEgAAIkAIAAAAAAAAAAAAAAAAAAAAAAAAAAAAAAAAAAA==

> <PUBCHEM_IUPAC_OPENEYE_NAME>
heptadeca-8,10,12-trien-4,6-diyne-1,14-diol

> <PUBCHEM_IUPAC_CAS_NAME>
heptadeca-8,10,12-trien-4,6-diyne-1,14-diol

> <PUBCHEM_IUPAC_NAME>
heptadeca-8,10,12-trien-4,6-diyne-1,14-diol

> <PUBCHEM_IUPAC_SYSTEMATIC_NAME>
heptadeca-8,10,12-trien-4,6-diyne-1,14-diol

> <PUBCHEM_IUPAC_TRADITIONAL_NAME>
heptadeca-8,10,12-trien-4,6-diyne-1,14-diol

> <PUBCHEM_IUPAC_INCHI>
InChI=1S/C17H22O2/c1-2-14-17(19)15-12-10-8-6-4-3-5-7-9-11-13-16-18/h4,6,8,10,12,15,17-19H,2,11,13-14,16H2,1H3

> <PUBCHEM_IUPAC_INCHIKEY>
FQVNSJQTSOVRKZ-UHFFFAOYSA-N

> <PUBCHEM_XLOGP3_AA>
3.3

> <PUBCHEM_EXACT_MASS>
258.16198

> <PUBCHEM_MOLECULAR_FORMULA>
C17H22O2

> <PUBCHEM_MOLECULAR_WEIGHT>
258.35538

> <PUBCHEM_OPENEYE_CAN_SMILES>
CCCC(C=CC=CC=CC#CC#CCCCO)O

> <PUBCHEM_OPENEYE_ISO_SMILES>
CCCC(C=CC=CC=CC#CC#CCCCO)O

> <PUBCHEM_CACTVS_TPSA>
40.5

> <PUBCHEM_MONOISOTOPIC_WEIGHT>
258.16198

> <PUBCHEM_TOTAL_CHARGE>
0

> <PUBCHEM_HEAVY_ATOM_COUNT>
19

> <PUBCHEM_ATOM_DEF_STEREO_COUNT>
0

> <PUBCHEM_ATOM_UDEF_STEREO_COUNT>
1

> <PUBCHEM_BOND_DEF_STEREO_COUNT>
0

> <PUBCHEM_BOND_UDEF_STEREO_COUNT>
3

> <PUBCHEM_ISOTOPIC_ATOM_COUNT>
0

> <PUBCHEM_COMPONENT_COUNT>
1

> <PUBCHEM_CACTVS_TAUTO_COUNT>
1

> <PUBCHEM_COORDINATE_TYPE>
1
5
255

> <PUBCHEM_BONDANNOTATIONS>
12  13  1
15  16  1
4  22  3
7  8  1

$$$$

