47205380
  -OEChem-06241222582D

 35 36  0     1  0  0  0  0  0999 V2000
    5.4641   -0.1012    0.0000 O   0  0  0  0  0  0  0  0  0  0  0  0
    5.4641    1.8988    0.0000 N   0  0  0  0  0  0  0  0  0  0  0  0
    3.7320   -0.1012    0.0000 N   0  0  0  0  0  0  0  0  0  0  0  0
    7.0468    2.2352    0.0000 N   0  0  0  0  0  0  0  0  0  0  0  0
    4.5981    1.3988    0.0000 C   0  0  3  0  0  0  0  0  0  0  0  0
    4.5981    0.3988    0.0000 C   0  0  0  0  0  0  0  0  0  0  0  0
    3.7320    1.8988    0.0000 C   0  0  0  0  0  0  0  0  0  0  0  0
    3.7320   -1.1012    0.0000 C   0  0  0  0  0  0  0  0  0  0  0  0
    4.5981   -2.6012    0.0000 C   0  0  0  0  0  0  0  0  0  0  0  0
    2.8660   -2.6012    0.0000 C   0  0  0  0  0  0  0  0  0  0  0  0
    2.8660   -1.6012    0.0000 C   0  0  0  0  0  0  0  0  0  0  0  0
    4.5981   -1.6012    0.0000 C   0  0  0  0  0  0  0  0  0  0  0  0
    5.5686    2.8933    0.0000 C   0  0  0  0  0  0  0  0  0  0  0  0
    6.3776    1.4921    0.0000 C   0  0  0  0  0  0  0  0  0  0  0  0
    3.7320   -3.1012    0.0000 C   0  0  0  0  0  0  0  0  0  0  0  0
    6.5468    3.1012    0.0000 C   0  0  0  0  0  0  0  0  0  0  0  0
    5.4641   -3.1012    0.0000 C   0  0  0  0  0  0  0  0  0  0  0  0
    2.0000   -3.1012    0.0000 C   0  0  0  0  0  0  0  0  0  0  0  0
    4.5981    2.0188    0.0000 H   0  0  0  0  0  0  0  0  0  0  0  0
    4.0420    2.4357    0.0000 H   0  0  0  0  0  0  0  0  0  0  0  0
    3.1951    2.2088    0.0000 H   0  0  0  0  0  0  0  0  0  0  0  0
    3.4220    1.3618    0.0000 H   0  0  0  0  0  0  0  0  0  0  0  0
    3.1951    0.2088    0.0000 H   0  0  0  0  0  0  0  0  0  0  0  0
    2.3291   -1.2912    0.0000 H   0  0  0  0  0  0  0  0  0  0  0  0
    5.1350   -1.2912    0.0000 H   0  0  0  0  0  0  0  0  0  0  0  0
    5.1079    3.3082    0.0000 H   0  0  0  0  0  0  0  0  0  0  0  0
    6.5066    0.8856    0.0000 H   0  0  0  0  0  0  0  0  0  0  0  0
    3.7320   -3.7212    0.0000 H   0  0  0  0  0  0  0  0  0  0  0  0
    6.7990    3.6676    0.0000 H   0  0  0  0  0  0  0  0  0  0  0  0
    5.1541   -3.6382    0.0000 H   0  0  0  0  0  0  0  0  0  0  0  0
    6.0010   -3.4112    0.0000 H   0  0  0  0  0  0  0  0  0  0  0  0
    5.7741   -2.5643    0.0000 H   0  0  0  0  0  0  0  0  0  0  0  0
    1.6900   -2.5643    0.0000 H   0  0  0  0  0  0  0  0  0  0  0  0
    1.4631   -3.4112    0.0000 H   0  0  0  0  0  0  0  0  0  0  0  0
    2.3100   -3.6382    0.0000 H   0  0  0  0  0  0  0  0  0  0  0  0
  1  6  2  0  0  0  0
  2  5  1  0  0  0  0
  2 13  1  0  0  0  0
  2 14  1  0  0  0  0
  3  6  1  0  0  0  0
  3  8  1  0  0  0  0
  3 23  1  0  0  0  0
  4 14  2  0  0  0  0
  4 16  1  0  0  0  0
  5  6  1  0  0  0  0
  5  7  1  0  0  0  0
  5 19  1  0  0  0  0
  7 20  1  0  0  0  0
  7 21  1  0  0  0  0
  7 22  1  0  0  0  0
  8 11  2  0  0  0  0
  8 12  1  0  0  0  0
  9 12  2  0  0  0  0
  9 15  1  0  0  0  0
  9 17  1  0  0  0  0
 10 11  1  0  0  0  0
 10 15  2  0  0  0  0
 10 18  1  0  0  0  0
 11 24  1  0  0  0  0
 12 25  1  0  0  0  0
 13 16  2  0  0  0  0
 13 26  1  0  0  0  0
 14 27  1  0  0  0  0
 15 28  1  0  0  0  0
 16 29  1  0  0  0  0
 17 30  1  0  0  0  0
 17 31  1  0  0  0  0
 17 32  1  0  0  0  0
 18 33  1  0  0  0  0
 18 34  1  0  0  0  0
 18 35  1  0  0  0  0
M  END
> <PUBCHEM_COMPOUND_CID>
47205380

> <PUBCHEM_COMPOUND_CANONICALIZED>
1

> <PUBCHEM_CACTVS_COMPLEXITY>
285

> <PUBCHEM_CACTVS_HBOND_ACCEPTOR>
2

> <PUBCHEM_CACTVS_HBOND_DONOR>
1

> <PUBCHEM_CACTVS_ROTATABLE_BOND>
3

> <PUBCHEM_CACTVS_SUBSKEYS>
AAADceBzIAAAAAAAAAAAAAAAAAAAAWAAAAAwAAAAAAAAAAABwAAAHgAQAAAADCjBmgQ/0JfMEACoAjV3dACCgC0xEqAJyAGYdIiIaCLAmbGUIAholALIyCcQgEAOAAACQAAAAAAAAASAAAAAAAAAAAAAAA==

> <PUBCHEM_IUPAC_OPENEYE_NAME>
N-(3,5-dimethylphenyl)-2-imidazol-1-yl-propanamide

> <PUBCHEM_IUPAC_CAS_NAME>
N-(3,5-dimethylphenyl)-2-(1-imidazolyl)propanamide

> <PUBCHEM_IUPAC_NAME>
N-(3,5-dimethylphenyl)-2-imidazol-1-ylpropanamide

> <PUBCHEM_IUPAC_SYSTEMATIC_NAME>
N-(3,5-dimethylphenyl)-2-imidazol-1-yl-propanamide

> <PUBCHEM_IUPAC_TRADITIONAL_NAME>
N-(3,5-dimethylphenyl)-2-imidazol-1-yl-propionamide

> <PUBCHEM_IUPAC_INCHI>
InChI=1S/C14H17N3O/c1-10-6-11(2)8-13(7-10)16-14(18)12(3)17-5-4-15-9-17/h4-9,12H,1-3H3,(H,16,18)

> <PUBCHEM_IUPAC_INCHIKEY>
CAKADBFBZSAAQA-UHFFFAOYSA-N

> <PUBCHEM_XLOGP3_AA>
2.1

> <PUBCHEM_EXACT_MASS>
243.137162

> <PUBCHEM_MOLECULAR_FORMULA>
C14H17N3O

> <PUBCHEM_MOLECULAR_WEIGHT>
243.30428

> <PUBCHEM_OPENEYE_CAN_SMILES>
CC1=CC(=CC(=C1)NC(=O)C(C)N2C=CN=C2)C

> <PUBCHEM_OPENEYE_ISO_SMILES>
CC1=CC(=CC(=C1)NC(=O)C(C)N2C=CN=C2)C

> <PUBCHEM_CACTVS_TPSA>
46.9

> <PUBCHEM_MONOISOTOPIC_WEIGHT>
243.137162

> <PUBCHEM_TOTAL_CHARGE>
0

> <PUBCHEM_HEAVY_ATOM_COUNT>
18

> <PUBCHEM_ATOM_DEF_STEREO_COUNT>
0

> <PUBCHEM_ATOM_UDEF_STEREO_COUNT>
1

> <PUBCHEM_BOND_DEF_STEREO_COUNT>
0

> <PUBCHEM_BOND_UDEF_STEREO_COUNT>
0

> <PUBCHEM_ISOTOPIC_ATOM_COUNT>
0

> <PUBCHEM_COMPONENT_COUNT>
1

> <PUBCHEM_CACTVS_TAUTO_COUNT>
3

> <PUBCHEM_COORDINATE_TYPE>
1
5
255

> <PUBCHEM_BONDANNOTATIONS>
10  11  8
10  15  8
13  16  8
2  13  8
2  14  8
4  14  8
4  16  8
5  7  3
8  11  8
8  12  8
9  12  8
9  15  8

$$$$

