167825
  -OEChem-07051213152D

 76 78  0     1  0  0  0  0  0999 V2000
    3.5000    1.1336    0.0000 O   0  0  0  0  0  0  0  0  0  0  0  0
    4.1756    2.7646    0.0000 O   0  0  0  0  0  0  0  0  0  0  0  0
    8.2185    3.5456    0.0000 O   0  0  0  0  0  0  0  0  0  0  0  0
    5.2713   -2.8349    0.0000 O   0  0  0  0  0  0  0  0  0  0  0  0
    3.5000    2.8656    0.0000 O   0  0  0  0  0  0  0  0  0  0  0  0
    5.4003    3.9893    0.0000 O   0  0  0  0  0  0  0  0  0  0  0  0
    9.4433    2.3208    0.0000 O   0  0  0  0  0  0  0  0  0  0  0  0
    3.5550   -3.0676    0.0000 O   0  0  0  0  0  0  0  0  0  0  0  0
    4.8827    0.2097    0.0000 C   0  0  2  0  0  0  0  0  0  0  0  0
    5.8066   -0.1730    0.0000 C   0  0  2  0  0  0  0  0  0  0  0  0
    7.1131    1.1336    0.0000 C   0  0  2  0  0  0  0  0  0  0  0  0
    6.7304    2.0575    0.0000 C   0  0  0  0  0  0  0  0  0  0  0  0
    6.7304    0.2097    0.0000 C   0  0  0  0  0  0  0  0  0  0  0  0
    4.5000    1.1336    0.0000 C   0  0  2  0  0  0  0  0  0  0  0  0
    5.8066    2.4402    0.0000 C   0  0  0  0  0  0  0  0  0  0  0  0
    4.0466   -0.4116    0.0000 C   0  0  0  0  0  0  0  0  0  0  0  0
    4.8827    2.0575    0.0000 C   0  0  1  0  0  0  0  0  0  0  0  0
    7.7862    1.8753    0.0000 C   0  0  0  0  0  0  0  0  0  0  0  0
    5.9584   -1.2035    0.0000 C   0  0  0  0  0  0  0  0  0  0  0  0
    4.1746   -1.4453    0.0000 C   0  0  0  0  0  0  0  0  0  0  0  0
    7.5114    2.8384    0.0000 C   0  0  1  0  0  0  0  0  0  0  0  0
    3.9588    0.5924    0.0000 C   0  0  0  0  0  0  0  0  0  0  0  0
    5.1370   -1.8439    0.0000 C   0  0  2  0  0  0  0  0  0  0  0  0
    6.5483    3.1133    0.0000 C   0  0  0  0  0  0  0  0  0  0  0  0
    7.0281    3.1683    0.0000 C   0  0  0  0  0  0  0  0  0  0  0  0
    7.8413    2.3551    0.0000 C   0  0  0  0  0  0  0  0  0  0  0  0
    6.3208    4.0870    0.0000 C   0  0  0  0  0  0  0  0  0  0  0  0
    6.8867   -1.5754    0.0000 C   0  0  0  0  0  0  0  0  0  0  0  0
    3.0000    1.9996    0.0000 C   0  0  0  0  0  0  0  0  0  0  0  0
    4.4344    3.7305    0.0000 C   0  0  0  0  0  0  0  0  0  0  0  0
    9.1845    3.2867    0.0000 C   0  0  0  0  0  0  0  0  0  0  0  0
    4.4803   -3.4467    0.0000 C   0  0  0  0  0  0  0  0  0  0  0  0
    2.0000    1.9996    0.0000 C   0  0  0  0  0  0  0  0  0  0  0  0
    3.7273    4.4376    0.0000 C   0  0  0  0  0  0  0  0  0  0  0  0
    9.8916    3.9938    0.0000 C   0  0  0  0  0  0  0  0  0  0  0  0
    4.6146   -4.4376    0.0000 C   0  0  0  0  0  0  0  0  0  0  0  0
    6.5919   -0.4983    0.0000 H   0  0  0  0  0  0  0  0  0  0  0  0
    7.4384    0.3483    0.0000 H   0  0  0  0  0  0  0  0  0  0  0  0
    6.8114   -0.4050    0.0000 H   0  0  0  0  0  0  0  0  0  0  0  0
    7.3451    0.1288    0.0000 H   0  0  0  0  0  0  0  0  0  0  0  0
    4.1556    0.6181    0.0000 H   0  0  0  0  0  0  0  0  0  0  0  0
    3.7674    0.1420    0.0000 H   0  0  0  0  0  0  0  0  0  0  0  0
    3.4534   -0.5919    0.0000 H   0  0  0  0  0  0  0  0  0  0  0  0
    5.0036    2.6656    0.0000 H   0  0  0  0  0  0  0  0  0  0  0  0
    8.1607    1.3812    0.0000 H   0  0  0  0  0  0  0  0  0  0  0  0
    8.3409    2.1523    0.0000 H   0  0  0  0  0  0  0  0  0  0  0  0
    3.5554   -1.4151    0.0000 H   0  0  0  0  0  0  0  0  0  0  0  0
    4.0389   -2.0503    0.0000 H   0  0  0  0  0  0  0  0  0  0  0  0
    8.1116    2.6828    0.0000 H   0  0  0  0  0  0  0  0  0  0  0  0
    4.1961    1.1652    0.0000 H   0  0  0  0  0  0  0  0  0  0  0  0
    3.3860    0.8297    0.0000 H   0  0  0  0  0  0  0  0  0  0  0  0
    3.7215    0.0196    0.0000 H   0  0  0  0  0  0  0  0  0  0  0  0
    5.7111   -2.0779    0.0000 H   0  0  0  0  0  0  0  0  0  0  0  0
    7.6270    3.0078    0.0000 H   0  0  0  0  0  0  0  0  0  0  0  0
    7.1886    3.7672    0.0000 H   0  0  0  0  0  0  0  0  0  0  0  0
    6.4292    3.3288    0.0000 H   0  0  0  0  0  0  0  0  0  0  0  0
    8.0017    1.7562    0.0000 H   0  0  0  0  0  0  0  0  0  0  0  0
    8.4401    2.5156    0.0000 H   0  0  0  0  0  0  0  0  0  0  0  0
    7.6808    2.9540    0.0000 H   0  0  0  0  0  0  0  0  0  0  0  0
    6.9245    4.2281    0.0000 H   0  0  0  0  0  0  0  0  0  0  0  0
    6.1797    4.6908    0.0000 H   0  0  0  0  0  0  0  0  0  0  0  0
    5.7170    3.9460    0.0000 H   0  0  0  0  0  0  0  0  0  0  0  0
    6.9747   -2.1892    0.0000 H   0  0  0  0  0  0  0  0  0  0  0  0
    7.3742   -1.1924    0.0000 H   0  0  0  0  0  0  0  0  0  0  0  0
    2.0000    2.6196    0.0000 H   0  0  0  0  0  0  0  0  0  0  0  0
    1.3800    1.9996    0.0000 H   0  0  0  0  0  0  0  0  0  0  0  0
    2.0000    1.3796    0.0000 H   0  0  0  0  0  0  0  0  0  0  0  0
    4.1657    4.8760    0.0000 H   0  0  0  0  0  0  0  0  0  0  0  0
    3.2889    4.8760    0.0000 H   0  0  0  0  0  0  0  0  0  0  0  0
    3.2889    3.9992    0.0000 H   0  0  0  0  0  0  0  0  0  0  0  0
   10.3300    3.5554    0.0000 H   0  0  0  0  0  0  0  0  0  0  0  0
   10.3300    4.4322    0.0000 H   0  0  0  0  0  0  0  0  0  0  0  0
    9.4532    4.4322    0.0000 H   0  0  0  0  0  0  0  0  0  0  0  0
    4.0003   -4.5209    0.0000 H   0  0  0  0  0  0  0  0  0  0  0  0
    4.6979   -5.0520    0.0000 H   0  0  0  0  0  0  0  0  0  0  0  0
    5.2290   -4.3543    0.0000 H   0  0  0  0  0  0  0  0  0  0  0  0
 14  1  1  1  0  0  0
  1 29  1  0  0  0  0
 17  2  1  6  0  0  0
  2 30  1  0  0  0  0
 21  3  1  1  0  0  0
  3 31  1  0  0  0  0
 23  4  1  1  0  0  0
  4 32  1  0  0  0  0
  5 29  2  0  0  0  0
  6 30  2  0  0  0  0
  7 31  2  0  0  0  0
  8 32  2  0  0  0  0
  9 10  1  0  0  0  0
  9 14  1  0  0  0  0
  9 16  1  0  0  0  0
  9 22  1  6  0  0  0
 10 13  1  0  0  0  0
 10 19  1  0  0  0  0
 10 37  1  1  0  0  0
 11 12  1  0  0  0  0
 11 13  1  0  0  0  0
 11 18  1  0  0  0  0
 11 38  1  6  0  0  0
 12 15  1  0  0  0  0
 12 25  1  0  0  0  0
 12 26  1  0  0  0  0
 13 39  1  0  0  0  0
 13 40  1  0  0  0  0
 14 17  1  0  0  0  0
 14 41  1  0  0  0  0
 15 17  1  0  0  0  0
 15 24  2  0  0  0  0
 16 20  1  0  0  0  0
 16 42  1  0  0  0  0
 16 43  1  0  0  0  0
 17 44  1  0  0  0  0
 18 21  1  0  0  0  0
 18 45  1  0  0  0  0
 18 46  1  0  0  0  0
 19 23  1  0  0  0  0
 19 28  2  0  0  0  0
 20 23  1  0  0  0  0
 20 47  1  0  0  0  0
 20 48  1  0  0  0  0
 21 24  1  0  0  0  0
 21 49  1  0  0  0  0
 22 50  1  0  0  0  0
 22 51  1  0  0  0  0
 22 52  1  0  0  0  0
 23 53  1  0  0  0  0
 24 27  1  0  0  0  0
 25 54  1  0  0  0  0
 25 55  1  0  0  0  0
 25 56  1  0  0  0  0
 26 57  1  0  0  0  0
 26 58  1  0  0  0  0
 26 59  1  0  0  0  0
 27 60  1  0  0  0  0
 27 61  1  0  0  0  0
 27 62  1  0  0  0  0
 28 63  1  0  0  0  0
 28 64  1  0  0  0  0
 29 33  1  0  0  0  0
 30 34  1  0  0  0  0
 31 35  1  0  0  0  0
 32 36  1  0  0  0  0
 33 65  1  0  0  0  0
 33 66  1  0  0  0  0
 33 67  1  0  0  0  0
 34 68  1  0  0  0  0
 34 69  1  0  0  0  0
 34 70  1  0  0  0  0
 35 71  1  0  0  0  0
 35 72  1  0  0  0  0
 35 73  1  0  0  0  0
 36 74  1  0  0  0  0
 36 75  1  0  0  0  0
 36 76  1  0  0  0  0
M  END
> <PUBCHEM_COMPOUND_CID>
167825

> <PUBCHEM_COMPOUND_CANONICALIZED>
1

> <PUBCHEM_CACTVS_COMPLEXITY>
992

> <PUBCHEM_CACTVS_HBOND_ACCEPTOR>
8

> <PUBCHEM_CACTVS_HBOND_DONOR>
0

> <PUBCHEM_CACTVS_ROTATABLE_BOND>
8

> <PUBCHEM_CACTVS_SUBSKEYS>
AAADcfB4PAAAAAAAAAAAAAAAAAAAAAAAAAAwQAAAAAAYAACAAAAAGgAAAAAADxSggAICCAAABACIAgDSCAAAAAAgAAAACAAAAAgBBAIAIQACEAAEwAAKIAOA4PwPgAAAAAAAAABAAAIAACAAAAAAAAAAAA==

> <PUBCHEM_IUPAC_INCHI>
InChI=1S/C28H40O8/c1-14-21-12-20-13-23(34-17(4)30)15(2)24(27(20,7)8)25(35-18(5)31)26(36-19(6)32)28(21,9)11-10-22(14)33-16(3)29/h20-23,25-26H,1,10-13H2,2-9H3/t20-,21-,22+,23+,25-,26+,28-/m1/s1

> <PUBCHEM_IUPAC_INCHIKEY>
SKJSIVQEPKBFTJ-HUWILPJBSA-N

> <PUBCHEM_XLOGP3_AA>
3.2

> <PUBCHEM_EXACT_MASS>
504.272318

> <PUBCHEM_MOLECULAR_FORMULA>
C28H40O8

> <PUBCHEM_MOLECULAR_WEIGHT>
504.6124

> <PUBCHEM_OPENEYE_CAN_SMILES>
CC1=C2C(C(C3(CCC(C(=C)C3CC(C2(C)C)CC1OC(=O)C)OC(=O)C)C)OC(=O)C)OC(=O)C

> <PUBCHEM_OPENEYE_ISO_SMILES>
CC1=C2[C@H]([C@@H]([C@@]3(CC[C@@H](C(=C)[C@H]3C[C@@H](C2(C)C)C[C@@H]1OC(=O)C)OC(=O)C)C)OC(=O)C)OC(=O)C

> <PUBCHEM_CACTVS_TPSA>
105

> <PUBCHEM_MONOISOTOPIC_WEIGHT>
504.272318

> <PUBCHEM_TOTAL_CHARGE>
0

> <PUBCHEM_HEAVY_ATOM_COUNT>
36

> <PUBCHEM_ATOM_DEF_STEREO_COUNT>
7

> <PUBCHEM_ATOM_UDEF_STEREO_COUNT>
0

> <PUBCHEM_BOND_DEF_STEREO_COUNT>
0

> <PUBCHEM_BOND_UDEF_STEREO_COUNT>
0

> <PUBCHEM_ISOTOPIC_ATOM_COUNT>
0

> <PUBCHEM_COMPONENT_COUNT>
1

> <PUBCHEM_CACTVS_TAUTO_COUNT>
1

> <PUBCHEM_COORDINATE_TYPE>
1
5
255

> <PUBCHEM_BONDANNOTATIONS>
14  1  5
10  37  5
11  38  6
17  2  6
21  3  5
23  4  5
9  22  6

$$$$

