440296
  -OEChem-07051212492D

 57 61  0     1  0  0  0  0  0999 V2000
    6.3194   -1.2882    0.0000 O   0  0  0  0  0  0  0  0  0  0  0  0
    5.0519   -3.2429    0.0000 O   0  0  0  0  0  0  0  0  0  0  0  0
    7.0625   -1.9573    0.0000 O   0  0  0  0  0  0  0  0  0  0  0  0
    5.9036   -3.2445    0.0000 O   0  0  0  0  0  0  0  0  0  0  0  0
    6.4218    3.2021    0.0000 O   0  0  0  0  0  0  0  0  0  0  0  0
    2.6254   -1.0142    0.0000 N   0  0  3  0  0  0  0  0  0  0  0  0
    5.7049   -0.0136    0.0000 N   0  0  3  0  0  0  0  0  0  0  0  0
    4.1652   -0.5139    0.0000 C   0  0  1  0  0  0  0  0  0  0  0  0
    3.5397   -1.2086    0.0000 C   0  0  2  0  0  0  0  0  0  0  0  0
    3.8286   -2.0975    0.0000 C   0  0  1  0  0  0  0  0  0  0  0  0
    5.0795   -0.7083    0.0000 C   0  0  2  0  0  0  0  0  0  0  0  0
    5.3683   -1.5972    0.0000 C   0  0  1  0  0  0  0  0  0  0  0  0
    3.7801    0.5217    0.0000 C   0  0  0  0  0  0  0  0  0  0  0  0
    4.7429   -2.2919    0.0000 C   0  0  2  0  0  0  0  0  0  0  0  0
    4.5018    1.0697    0.0000 C   0  0  0  0  0  0  0  0  0  0  0  0
    2.3366   -0.1253    0.0000 C   0  0  0  0  0  0  0  0  0  0  0  0
    4.1376   -3.0486    0.0000 C   0  0  0  0  0  0  0  0  0  0  0  0
    5.4161    0.8753    0.0000 C   0  0  0  0  0  0  0  0  0  0  0  0
    3.2031   -2.7922    0.0000 C   0  0  0  0  0  0  0  0  0  0  0  0
    2.0000   -1.7088    0.0000 C   0  0  0  0  0  0  0  0  0  0  0  0
    2.2888   -2.5978    0.0000 C   0  0  0  0  0  0  0  0  0  0  0  0
    6.1115   -2.2664    0.0000 C   0  0  0  0  0  0  0  0  0  0  0  0
    4.2129    1.9586    0.0000 C   0  0  0  0  0  0  0  0  0  0  0  0
    6.6560    0.2954    0.0000 C   0  0  0  0  0  0  0  0  0  0  0  0
    3.4685   -3.7917    0.0000 C   0  0  0  0  0  0  0  0  0  0  0  0
    6.0415    1.5700    0.0000 C   0  0  0  0  0  0  0  0  0  0  0  0
    4.8384    2.6533    0.0000 C   0  0  0  0  0  0  0  0  0  0  0  0
    5.7527    2.4589    0.0000 C   0  0  0  0  0  0  0  0  0  0  0  0
    7.8057   -2.6265    0.0000 C   0  0  0  0  0  0  0  0  0  0  0  0
    3.2771   -0.4002    0.0000 H   0  0  0  0  0  0  0  0  0  0  0  0
    5.9109   -0.8850    0.0000 H   0  0  0  0  0  0  0  0  0  0  0  0
    4.3564    0.7504    0.0000 H   0  0  0  0  0  0  0  0  0  0  0  0
    3.5389    1.0929    0.0000 H   0  0  0  0  0  0  0  0  0  0  0  0
    5.3493   -2.4208    0.0000 H   0  0  0  0  0  0  0  0  0  0  0  0
    2.1034    0.4492    0.0000 H   0  0  0  0  0  0  0  0  0  0  0  0
    1.7542   -0.3378    0.0000 H   0  0  0  0  0  0  0  0  0  0  0  0
    4.5193   -3.5371    0.0000 H   0  0  0  0  0  0  0  0  0  0  0  0
    4.6850   -2.7575    0.0000 H   0  0  0  0  0  0  0  0  0  0  0  0
    3.3947   -3.3818    0.0000 H   0  0  0  0  0  0  0  0  0  0  0  0
    1.6183   -1.2203    0.0000 H   0  0  0  0  0  0  0  0  0  0  0  0
    1.4526   -1.9999    0.0000 H   0  0  0  0  0  0  0  0  0  0  0  0
    1.8740   -3.0586    0.0000 H   0  0  0  0  0  0  0  0  0  0  0  0
    3.6065    2.0875    0.0000 H   0  0  0  0  0  0  0  0  0  0  0  0
    6.7342   -0.8275    0.0000 H   0  0  0  0  0  0  0  0  0  0  0  0
    6.8476   -0.2943    0.0000 H   0  0  0  0  0  0  0  0  0  0  0  0
    7.2456    0.4870    0.0000 H   0  0  0  0  0  0  0  0  0  0  0  0
    6.4644    0.8850    0.0000 H   0  0  0  0  0  0  0  0  0  0  0  0
    4.6370   -3.7037    0.0000 H   0  0  0  0  0  0  0  0  0  0  0  0
    3.0077   -3.3769    0.0000 H   0  0  0  0  0  0  0  0  0  0  0  0
    3.0536   -4.2525    0.0000 H   0  0  0  0  0  0  0  0  0  0  0  0
    3.9292   -4.2066    0.0000 H   0  0  0  0  0  0  0  0  0  0  0  0
    6.6480    1.4410    0.0000 H   0  0  0  0  0  0  0  0  0  0  0  0
    4.6468    3.2429    0.0000 H   0  0  0  0  0  0  0  0  0  0  0  0
    7.3908   -3.0872    0.0000 H   0  0  0  0  0  0  0  0  0  0  0  0
    8.2664   -3.0413    0.0000 H   0  0  0  0  0  0  0  0  0  0  0  0
    8.2205   -2.1657    0.0000 H   0  0  0  0  0  0  0  0  0  0  0  0
    6.2302    3.7917    0.0000 H   0  0  0  0  0  0  0  0  0  0  0  0
 12  1  1  6  0  0  0
  1 44  1  0  0  0  0
 14  2  1  6  0  0  0
  2 48  1  0  0  0  0
  3 22  1  0  0  0  0
  3 29  1  0  0  0  0
  4 22  2  0  0  0  0
  5 28  1  0  0  0  0
  5 57  1  0  0  0  0
  6  9  1  0  0  0  0
  6 16  1  0  0  0  0
  6 20  1  0  0  0  0
  7 11  1  0  0  0  0
  7 18  1  0  0  0  0
  7 24  1  0  0  0  0
  8  9  1  0  0  0  0
  8 11  1  0  0  0  0
  8 13  1  6  0  0  0
  8 15  1  0  0  0  0
  9 10  1  0  0  0  0
  9 30  1  1  0  0  0
 10 14  1  0  0  0  0
 10 17  1  1  0  0  0
 10 19  1  0  0  0  0
 11 12  1  0  0  0  0
 11 31  1  6  0  0  0
 12 14  1  0  0  0  0
 12 22  1  0  0  0  0
 13 16  1  0  0  0  0
 13 32  1  0  0  0  0
 13 33  1  0  0  0  0
 14 34  1  0  0  0  0
 15 18  2  0  0  0  0
 15 23  1  0  0  0  0
 16 35  1  0  0  0  0
 16 36  1  0  0  0  0
 17 25  1  0  0  0  0
 17 37  1  0  0  0  0
 17 38  1  0  0  0  0
 18 26  1  0  0  0  0
 19 21  2  0  0  0  0
 19 39  1  0  0  0  0
 20 21  1  0  0  0  0
 20 40  1  0  0  0  0
 20 41  1  0  0  0  0
 21 42  1  0  0  0  0
 23 27  2  0  0  0  0
 23 43  1  0  0  0  0
 24 45  1  0  0  0  0
 24 46  1  0  0  0  0
 24 47  1  0  0  0  0
 25 49  1  0  0  0  0
 25 50  1  0  0  0  0
 25 51  1  0  0  0  0
 26 28  2  0  0  0  0
 26 52  1  0  0  0  0
 27 28  1  0  0  0  0
 27 53  1  0  0  0  0
 29 54  1  0  0  0  0
 29 55  1  0  0  0  0
 29 56  1  0  0  0  0
M  END
> <PUBCHEM_COMPOUND_CID>
440296

> <PUBCHEM_COMPOUND_CANONICALIZED>
1

> <PUBCHEM_CACTVS_COMPLEXITY>
745

> <PUBCHEM_CACTVS_HBOND_ACCEPTOR>
7

> <PUBCHEM_CACTVS_HBOND_DONOR>
3

> <PUBCHEM_CACTVS_ROTATABLE_BOND>
3

> <PUBCHEM_CACTVS_SUBSKEYS>
AAADceB7OAAAAAAAAAAAAAAAAAAAAWLAAAAwYIAAAAAAAFiBAAAAHgAACAAADnzhmAYyzoMABgCIAiTSSAKCAAAhIgAIiAFObIgLNj7C0ZOEcAhn4Bnb2Ae42fOfoAAAAgACAABQgAYECBSgAAAAAAAAAA==

> <PUBCHEM_IUPAC_INCHI>
InChI=1S/C22H28N2O5/c1-4-20-8-5-10-24-11-9-21(16(20)24)14-7-6-13(25)12-15(14)23(2)17(21)22(28,18(20)26)19(27)29-3/h5-8,12,16-18,25-26,28H,4,9-11H2,1-3H3/t16-,17+,18+,20+,21+,22-/m0/s1

> <PUBCHEM_IUPAC_INCHIKEY>
MNCVVTFLNVITRD-RLFCDOPRSA-N

> <PUBCHEM_XLOGP3_AA>
2

> <PUBCHEM_EXACT_MASS>
400.199822

> <PUBCHEM_MOLECULAR_FORMULA>
C22H28N2O5

> <PUBCHEM_MOLECULAR_WEIGHT>
400.46812

> <PUBCHEM_OPENEYE_CAN_SMILES>
CCC12C=CCN3C1C4(CC3)C(C(C2O)(C(=O)OC)O)N(C5=C4C=CC(=C5)O)C

> <PUBCHEM_OPENEYE_ISO_SMILES>
CC[C@@]12C=CCN3[C@@H]1[C@]4(CC3)[C@H]([C@]([C@@H]2O)(C(=O)OC)O)N(C5=C4C=CC(=C5)O)C

> <PUBCHEM_CACTVS_TPSA>
93.5

> <PUBCHEM_MONOISOTOPIC_WEIGHT>
400.199822

> <PUBCHEM_TOTAL_CHARGE>
0

> <PUBCHEM_HEAVY_ATOM_COUNT>
29

> <PUBCHEM_ATOM_DEF_STEREO_COUNT>
6

> <PUBCHEM_ATOM_UDEF_STEREO_COUNT>
0

> <PUBCHEM_BOND_DEF_STEREO_COUNT>
0

> <PUBCHEM_BOND_UDEF_STEREO_COUNT>
0

> <PUBCHEM_ISOTOPIC_ATOM_COUNT>
0

> <PUBCHEM_COMPONENT_COUNT>
1

> <PUBCHEM_CACTVS_TAUTO_COUNT>
3

> <PUBCHEM_COORDINATE_TYPE>
1
5
255

> <PUBCHEM_BONDANNOTATIONS>
12  1  6
10  17  5
11  31  6
15  18  8
15  23  8
18  26  8
14  2  6
23  27  8
26  28  8
27  28  8
8  13  6
9  30  5

$$$$

