   Color/Form
        ORTHORHOMBIC PRISMS FROM ACETONE
   from [1]HSDB

   Boiling Point
        218 DEG C @ 2 MM HG
   from [2]HSDB

   Melting Point
        152-153 DEG C
   from [3]HSDB

   Dissociation Constants
        K1 7.7X10-7, PK1 6.11; K2 8.4X10-14, PK2 13.08
   from [4]HSDB

   Solubilities
        SOL IN 1.3 PARTS WATER, 13 PARTS ACETONE, 1.3 PARTS METHANOL, 3.5
   PARTS ALC, 30 PARTS BENZENE, 10 PARTS ETHYL ACETONE, 2.0 PARTS
   CHLOROFORM; PRACTICALLY INSOL IN PETROLEUM ETHER
   from [5]HSDB

   Spectral Properties

     * MAX ABSORPTION (METHANOL): 235 NM (LOG E= 3.9), 306 NM (LOG E=
       4.0); SADTLER REF NUMBER: 10785 (IR, PRISM)
     * SPECIFIC OPTICAL ROTATION: -120 DEG @ 17 DEG C/D
     * IR: 5303 (Coblentz Society Spectral Collection)
     * MASS: 2-330 (Archives of Mass Spectral Data, John Wiley & Sons, New
       York)

   from [6]HSDB

   Other Chemical/Physical Properties

     * NEEDLES OR LEAFLETS; SOLUBLE IN WATER, SLIGHTLY SOL IN ALCOHOL;
       PRACTICALLY INSOL IN ETHER /NITRATE MONOHYDRATE/
     * SUBLIMES

   from [7]HSDB

   Computed Properties
   Molecular Weight                  190.24166 [g/mol]
   Molecular Formula                 C[11]H[14]N[2]O
   XLogP3-AA                         0.2
   H-Bond Donor                      1
   H-Bond Acceptor                   2
   Rotatable Bond Count              0
   Tautomer Count                    3
   Exact Mass                        190.110613
   MonoIsotopic Mass                 190.110613
   Topological Polar Surface Area    32.3
   Heavy Atom Count                  14
   Formal Charge                     0
   Complexity                        332
   Isotope Atom Count                0
   Defined Atom Stereocenter Count   2
   Undefined Atom Stereocenter Count 0
   Defined Bond Stereocenter Count   0
   Undefined Bond Stereocenter Count 0
   Covalently-Bonded Unit Count      1
   Feature 3D Acceptor Count         1
   Feature 3D Donor Count            1
   Feature 3D Cation Count           1
   Feature 3D Ring Count             3
   Effective Rotor Count             1
   Conformer Sampling RMSD           0.4
   CID Conformer Count               [8]1

References

   1. http://toxnet.nlm.nih.gov/cgi-bin/sis/search/r?dbs+hsdb:@term+@rn+@rel+485-35-8
   2. http://toxnet.nlm.nih.gov/cgi-bin/sis/search/r?dbs+hsdb:@term+@rn+@rel+485-35-8
   3. http://toxnet.nlm.nih.gov/cgi-bin/sis/search/r?dbs+hsdb:@term+@rn+@rel+485-35-8
   4. http://toxnet.nlm.nih.gov/cgi-bin/sis/search/r?dbs+hsdb:@term+@rn+@rel+485-35-8
   5. http://toxnet.nlm.nih.gov/cgi-bin/sis/search/r?dbs+hsdb:@term+@rn+@rel+485-35-8
   6. http://toxnet.nlm.nih.gov/cgi-bin/sis/search/r?dbs+hsdb:@term+@rn+@rel+485-35-8
   7. http://toxnet.nlm.nih.gov/cgi-bin/sis/search/r?dbs+hsdb:@term+@rn+@rel+485-35-8
   8. http://pubchem.ncbi.nlm.nih.gov/vw3d/vw3d.cgi?cid=442949
