   Color/Form

     * MONOCLINIC NEEDLES FROM WATER
     * Needles from light petroleum

   from [1]HSDB

   Boiling Point
        296 DEG C @ 760 MM HG
   from [2]HSDB

   Melting Point
        62-63 deg C
   from [3]HSDB

   Octanol/Water Partition Coefficient
        log Kow = 3.03 (est)
   from [4]HSDB

   Solubilities

     * Practically insol in water; sol in alcohol, ether, glacial acetic
       acid, carbon tetrachloride, chloroform, petroleum ether
     * In water, 102 mg/L at 25 deg C (est)

   from [5]HSDB

   Spectral Properties

     * INDEX OF REFRACTION: 1.5683 @ 20 DEG C/D; SADTLER REF NUMBER: 34263
       (IR, PRISM)
     * Index of refraction: 1.5719 at 11 deg C/D

   from [6]HSDB

   Vapor Pressure
        1.5X10-3 mm Hg at 25 deg (est)
   from [7]HSDB

   Other Chemical/Physical Properties

     * Crystals. MP: 67 deg C. Insoluble in water; soluble in alcohol
       /isomer not specified/
     * Yellow to medium brown, moderately viscous liquid with a pleasant,
       spicy aromatic odor. Acid value: max 4. Ester value: 3-20.
       Solubility 1 vol in 5 vol of 90% ethanol; solutions may be turbid
       /cis-asarone/
     * Density: 0.940-0.980 at 25 deg C/25 deg C. Index of refraction:
       1.5010-1.5160 at 20 deg C/D. Specific optical rotation: -5 deg to
       +35 deg. /cis-asarone; European/
     * Density: 1.060-1.080 at 25 deg C/25 deg C. Index of refraction:
       1.5500-1.55525 at 20 deg C/D. Specific optical rotation: -2 deg to
       +6.5 deg. /cis-asarone; Indian/
     * Hnery's Law constant = 8.96X10-7 atm-cu cm/mol at 25 deg C (est)
     * Hydroxyl radical reaction rate constant = 2.5X10-10 cu cm/molec-sec
       at 25 deg C (est)

   from [8]HSDB

   Computed Properties
   Molecular Weight                  208.25364 [g/mol]
   Molecular Formula                 C[12]H[16]O[3]
   XLogP3                            3
   H-Bond Donor                      0
   H-Bond Acceptor                   3
   Rotatable Bond Count              4
   Exact Mass                        208.109944
   MonoIsotopic Mass                 208.109944
   Topological Polar Surface Area    27.7
   Heavy Atom Count                  15
   Formal Charge                     0
   Complexity                        203
   Isotope Atom Count                0
   Defined Atom Stereocenter Count   0
   Undefined Atom Stereocenter Count 0
   Defined Bond Stereocenter Count   1
   Undefined Bond Stereocenter Count 0
   Covalently-Bonded Unit Count      1
   Feature 3D Acceptor Count         3
   Feature 3D Hydrophobe Count       1
   Feature 3D Ring Count             1
   Effective Rotor Count             4
   Conformer Sampling RMSD           0.6
   CID Conformer Count               [9]11

References

   1. http://toxnet.nlm.nih.gov/cgi-bin/sis/search/r?dbs+hsdb:@term+@rn+@rel+2883-98-9
   2. http://toxnet.nlm.nih.gov/cgi-bin/sis/search/r?dbs+hsdb:@term+@rn+@rel+2883-98-9
   3. http://toxnet.nlm.nih.gov/cgi-bin/sis/search/r?dbs+hsdb:@term+@rn+@rel+2883-98-9
   4. http://toxnet.nlm.nih.gov/cgi-bin/sis/search/r?dbs+hsdb:@term+@rn+@rel+2883-98-9
   5. http://toxnet.nlm.nih.gov/cgi-bin/sis/search/r?dbs+hsdb:@term+@rn+@rel+2883-98-9
   6. http://toxnet.nlm.nih.gov/cgi-bin/sis/search/r?dbs+hsdb:@term+@rn+@rel+2883-98-9
   7. http://toxnet.nlm.nih.gov/cgi-bin/sis/search/r?dbs+hsdb:@term+@rn+@rel+2883-98-9
   8. http://toxnet.nlm.nih.gov/cgi-bin/sis/search/r?dbs+hsdb:@term+@rn+@rel+2883-98-9
   9. http://pubchem.ncbi.nlm.nih.gov/vw3d/vw3d.cgi?cid=636822
