11537
  -OEChem-06261205482D

  6  5  0     0  0  0  0  0  0999 V2000
    2.0000    0.2500    0.0000 I   0  0  0  0  0  0  0  0  0  0  0  0
    4.5981   -0.2500    0.0000 I   0  0  0  0  0  0  0  0  0  0  0  0
    2.8660   -0.2500    0.0000 C   0  0  0  0  0  0  0  0  0  0  0  0
    3.7321    0.2500    0.0000 C   0  0  0  0  0  0  0  0  0  0  0  0
    2.8660   -0.8700    0.0000 H   0  0  0  0  0  0  0  0  0  0  0  0
    3.7321    0.8700    0.0000 H   0  0  0  0  0  0  0  0  0  0  0  0
  1  3  1  0  0  0  0
  2  4  1  0  0  0  0
  3  4  2  3  0  0  0
  3  5  1  0  0  0  0
  4  6  1  0  0  0  0
M  END
> <PUBCHEM_COMPOUND_CID>
11537

> <PUBCHEM_COMPOUND_CANONICALIZED>
1

> <PUBCHEM_CACTVS_COMPLEXITY>
19.2

> <PUBCHEM_CACTVS_HBOND_ACCEPTOR>
0

> <PUBCHEM_CACTVS_HBOND_DONOR>
0

> <PUBCHEM_CACTVS_ROTATABLE_BOND>
0

> <PUBCHEM_CACTVS_SUBSKEYS>
AAADcQBAAAAAAwAAAAAAAAAAAAAAAAAAAAAAAAAAAAAAAAAAAAAAGAAgAAAAAACCAAAAAAAAAACAAAACAAAAAAAAAAAIAAAAAAAAAAAAAAAAAAAAAAAAAAAAAAAAAAAAAAAAAAAAAAAAAAAAAAAAAAAAAA==

> <PUBCHEM_IUPAC_OPENEYE_NAME>
1,2-diiodoethylene

> <PUBCHEM_IUPAC_CAS_NAME>
1,2-diiodoethene

> <PUBCHEM_IUPAC_NAME>
1,2-diiodoethene

> <PUBCHEM_IUPAC_SYSTEMATIC_NAME>
1,2-bis(iodanyl)ethene

> <PUBCHEM_IUPAC_TRADITIONAL_NAME>
1,2-diiodoethylene

> <PUBCHEM_IUPAC_INCHI>
InChI=1S/C2H2I2/c3-1-2-4/h1-2H

> <PUBCHEM_IUPAC_INCHIKEY>
CVOGMKGEVNGRSK-UHFFFAOYSA-N

> <PUBCHEM_XLOGP3_AA>
2.2

> <PUBCHEM_EXACT_MASS>
279.824596

> <PUBCHEM_MOLECULAR_FORMULA>
C2H2I2

> <PUBCHEM_MOLECULAR_WEIGHT>
279.84622

> <PUBCHEM_OPENEYE_CAN_SMILES>
C(=CI)I

> <PUBCHEM_OPENEYE_ISO_SMILES>
C(=CI)I

> <PUBCHEM_CACTVS_TPSA>
0

> <PUBCHEM_MONOISOTOPIC_WEIGHT>
279.824596

> <PUBCHEM_TOTAL_CHARGE>
0

> <PUBCHEM_HEAVY_ATOM_COUNT>
4

> <PUBCHEM_ATOM_DEF_STEREO_COUNT>
0

> <PUBCHEM_ATOM_UDEF_STEREO_COUNT>
0

> <PUBCHEM_BOND_DEF_STEREO_COUNT>
0

> <PUBCHEM_BOND_UDEF_STEREO_COUNT>
1

> <PUBCHEM_ISOTOPIC_ATOM_COUNT>
0

> <PUBCHEM_COMPONENT_COUNT>
1

> <PUBCHEM_CACTVS_TAUTO_COUNT>
1

> <PUBCHEM_COORDINATE_TYPE>
1
5
255

> <PUBCHEM_BONDANNOTATIONS>
3  4  1

$$$$

