5611
  -OEChem-06261200462D

 40 40  0     1  0  0  0  0  0999 V2000
    3.7320    0.4050    0.0000 I   0  0  0  0  0  0  0  0  0  0  0  0
    5.4641   -2.5950    0.0000 I   0  0  0  0  0  0  0  0  0  0  0  0
    7.1962    0.4050    0.0000 I   0  0  0  0  0  0  0  0  0  0  0  0
    2.8660   -4.0950    0.0000 O   0  0  0  0  0  0  0  0  0  0  0  0
    2.0000   -2.5950    0.0000 O   0  0  0  0  0  0  0  0  0  0  0  0
    7.1962    1.4050    0.0000 O   0  0  0  0  0  0  0  0  0  0  0  0
    5.4641    1.4050    0.0000 N   0  0  0  0  0  0  0  0  0  0  0  0
    3.7320   -2.5950    0.0000 C   0  0  3  0  0  0  0  0  0  0  0  0
    3.7320   -1.5950    0.0000 C   0  0  0  0  0  0  0  0  0  0  0  0
    4.5981   -3.0950    0.0000 C   0  0  0  0  0  0  0  0  0  0  0  0
    4.5981   -1.0950    0.0000 C   0  0  0  0  0  0  0  0  0  0  0  0
    4.5981   -0.0950    0.0000 C   0  0  0  0  0  0  0  0  0  0  0  0
    2.8660   -3.0950    0.0000 C   0  0  0  0  0  0  0  0  0  0  0  0
    4.5981   -4.0950    0.0000 C   0  0  0  0  0  0  0  0  0  0  0  0
    5.4641   -1.5950    0.0000 C   0  0  0  0  0  0  0  0  0  0  0  0
    5.4641    0.4050    0.0000 C   0  0  0  0  0  0  0  0  0  0  0  0
    6.3301   -1.0950    0.0000 C   0  0  0  0  0  0  0  0  0  0  0  0
    6.3301   -0.0950    0.0000 C   0  0  0  0  0  0  0  0  0  0  0  0
    6.3301    2.9050    0.0000 C   0  0  0  0  0  0  0  0  0  0  0  0
    6.3301    1.9050    0.0000 C   0  0  0  0  0  0  0  0  0  0  0  0
    7.1962    3.4050    0.0000 C   0  0  0  0  0  0  0  0  0  0  0  0
    7.1962    4.4050    0.0000 C   0  0  0  0  0  0  0  0  0  0  0  0
    3.7320   -3.4450    0.0000 H   0  0  0  0  0  0  0  0  0  0  0  0
    3.5200   -1.0124    0.0000 H   0  0  0  0  0  0  0  0  0  0  0  0
    3.1215   -1.7027    0.0000 H   0  0  0  0  0  0  0  0  0  0  0  0
    5.2087   -3.2027    0.0000 H   0  0  0  0  0  0  0  0  0  0  0  0
    4.8101   -2.5124    0.0000 H   0  0  0  0  0  0  0  0  0  0  0  0
    3.9781   -4.0950    0.0000 H   0  0  0  0  0  0  0  0  0  0  0  0
    4.5981   -4.7150    0.0000 H   0  0  0  0  0  0  0  0  0  0  0  0
    5.2181   -4.0950    0.0000 H   0  0  0  0  0  0  0  0  0  0  0  0
    6.8671   -1.4050    0.0000 H   0  0  0  0  0  0  0  0  0  0  0  0
    4.9272    1.7150    0.0000 H   0  0  0  0  0  0  0  0  0  0  0  0
    6.1181    3.4876    0.0000 H   0  0  0  0  0  0  0  0  0  0  0  0
    5.7196    2.7973    0.0000 H   0  0  0  0  0  0  0  0  0  0  0  0
    7.4082    2.8224    0.0000 H   0  0  0  0  0  0  0  0  0  0  0  0
    7.8067    3.5127    0.0000 H   0  0  0  0  0  0  0  0  0  0  0  0
    2.3291   -4.4050    0.0000 H   0  0  0  0  0  0  0  0  0  0  0  0
    7.8162    4.4050    0.0000 H   0  0  0  0  0  0  0  0  0  0  0  0
    7.1962    5.0250    0.0000 H   0  0  0  0  0  0  0  0  0  0  0  0
    6.5762    4.4050    0.0000 H   0  0  0  0  0  0  0  0  0  0  0  0
  1 12  1  0  0  0  0
  2 15  1  0  0  0  0
  3 18  1  0  0  0  0
  4 13  1  0  0  0  0
  4 37  1  0  0  0  0
  5 13  2  0  0  0  0
  6 20  2  0  0  0  0
  7 16  1  0  0  0  0
  7 20  1  0  0  0  0
  7 32  1  0  0  0  0
  8  9  1  0  0  0  0
  8 10  1  0  0  0  0
  8 13  1  0  0  0  0
  8 23  1  0  0  0  0
  9 11  1  0  0  0  0
  9 24  1  0  0  0  0
  9 25  1  0  0  0  0
 10 14  1  0  0  0  0
 10 26  1  0  0  0  0
 10 27  1  0  0  0  0
 11 12  2  0  0  0  0
 11 15  1  0  0  0  0
 12 16  1  0  0  0  0
 14 28  1  0  0  0  0
 14 29  1  0  0  0  0
 14 30  1  0  0  0  0
 15 17  2  0  0  0  0
 16 18  2  0  0  0  0
 17 18  1  0  0  0  0
 17 31  1  0  0  0  0
 19 20  1  0  0  0  0
 19 21  1  0  0  0  0
 19 33  1  0  0  0  0
 19 34  1  0  0  0  0
 21 22  1  0  0  0  0
 21 35  1  0  0  0  0
 21 36  1  0  0  0  0
 22 38  1  0  0  0  0
 22 39  1  0  0  0  0
 22 40  1  0  0  0  0
M  END
> <PUBCHEM_COMPOUND_CID>
5611

> <PUBCHEM_COMPOUND_CANONICALIZED>
1

> <PUBCHEM_CACTVS_COMPLEXITY>
394

> <PUBCHEM_CACTVS_HBOND_ACCEPTOR>
3

> <PUBCHEM_CACTVS_HBOND_DONOR>
2

> <PUBCHEM_CACTVS_ROTATABLE_BOND>
7

> <PUBCHEM_CACTVS_SUBSKEYS>
AAADceByMAAAAwAAAAAAAAAAAAAAAAAAAAAwAAAAAAAAAAABAAAAHgAwCAAADQiDmAAyyILAAgCIAiXSWACCAAAhAAAAiAEARIgIIDLAkJGEYAhklADIyAeYyOCOAAAAQAAAAAAAAACAAAAAAAAAAAAAAA==

> <PUBCHEM_IUPAC_OPENEYE_NAME>
2-[[3-(butanoylamino)-2,4,6-triiodo-phenyl]methyl]butanoic acid

> <PUBCHEM_IUPAC_CAS_NAME>
2-[[2,4,6-triiodo-3-(1-oxobutylamino)phenyl]methyl]butanoic acid

> <PUBCHEM_IUPAC_NAME>
2-[[3-(butanoylamino)-2,4,6-triiodophenyl]methyl]butanoic acid

> <PUBCHEM_IUPAC_SYSTEMATIC_NAME>
2-[[3-(butanoylamino)-2,4,6-tris(iodanyl)phenyl]methyl]butanoic acid

> <PUBCHEM_IUPAC_TRADITIONAL_NAME>
2-(3-butyramido-2,4,6-triiodo-benzyl)butyric acid

> <PUBCHEM_IUPAC_INCHI>
InChI=1S/C15H18I3NO3/c1-3-5-12(20)19-14-11(17)7-10(16)9(13(14)18)6-8(4-2)15(21)22/h7-8H,3-6H2,1-2H3,(H,19,20)(H,21,22)

> <PUBCHEM_IUPAC_INCHIKEY>
YMOXVLQZFAUUKI-UHFFFAOYSA-N

> <PUBCHEM_XLOGP3_AA>
4.6

> <PUBCHEM_EXACT_MASS>
640.842087

> <PUBCHEM_MOLECULAR_FORMULA>
C15H18I3NO3

> <PUBCHEM_MOLECULAR_WEIGHT>
641.02173

> <PUBCHEM_OPENEYE_CAN_SMILES>
CCCC(=O)NC1=C(C=C(C(=C1I)CC(CC)C(=O)O)I)I

> <PUBCHEM_OPENEYE_ISO_SMILES>
CCCC(=O)NC1=C(C=C(C(=C1I)CC(CC)C(=O)O)I)I

> <PUBCHEM_CACTVS_TPSA>
66.4

> <PUBCHEM_MONOISOTOPIC_WEIGHT>
640.842087

> <PUBCHEM_TOTAL_CHARGE>
0

> <PUBCHEM_HEAVY_ATOM_COUNT>
22

> <PUBCHEM_ATOM_DEF_STEREO_COUNT>
0

> <PUBCHEM_ATOM_UDEF_STEREO_COUNT>
1

> <PUBCHEM_BOND_DEF_STEREO_COUNT>
0

> <PUBCHEM_BOND_UDEF_STEREO_COUNT>
0

> <PUBCHEM_ISOTOPIC_ATOM_COUNT>
0

> <PUBCHEM_COMPONENT_COUNT>
1

> <PUBCHEM_CACTVS_TAUTO_COUNT>
3

> <PUBCHEM_COORDINATE_TYPE>
1
5
255

> <PUBCHEM_BONDANNOTATIONS>
11  12  8
11  15  8
12  16  8
15  17  8
16  18  8
17  18  8
8  23  3

$$$$

