   Color/Form
        NEEDLES (RECRYSTALLIZED FROM BENZENE), COLORLESS NEEDLES
   (RECRYSTALLIZED FROM TOLUENE OR GLACIAL ACETIC ACID)
   from [1]HSDB

   Melting Point
        168 DEG C
   from [2]HSDB

   Octanol/Water Partition Coefficient
        log Kow= 6.60 [Meador JP et al; Rev Environ Contam Toxicol 143:
   79-165 (1995)] [3]PubMed Abstract
   from [4]HSDB

   Solubilities

     * Very soluble in benzene
     * SLIGHTLY SOL IN ACETONE
     * Water solubility: 0.0012 mg/l /temp not specified/
     * In water, 0.0015 mg/l. /temp not specified/

   from [5]HSDB

   Spectral Properties

     * IR: 3545 (Coblentz Society Spectral Collection)
     * MASS: 1780 (National Bureau of Standards EPA-NIH Mass Spectra Data
       Base, NSRDS-NBS-63)
     * Intensity of mass spectral peaks: 252 m/z (100%), 253 m/z (23%),
       126 m/z (23%), 250 m/z (19%)
     * MAX ABSORPTION (BENZENE): 256 NM (LOG E= 4.54), 301 NM (LOG E=
       4.54), 338 NM (LOG E= 3.96), 369 NM (LOG E= 3.84)
     * Max absorption (cyclohexane): 255, 275, 288, 300, 340, 349, 367 NM
     * Adsorption and fluorescent spectra, fluorescent quantum yields,
       decay times, and O quenching constants of benzo(a)pyrene and
       benzo(e)pyrene, benzo(b)fluoranthene were measured.

   from [6]HSDB

   Vapor Pressure
        5.0X10-7 mm Hg at 20 deg C
   from [7]HSDB

   Other Chemical/Physical Properties

     * Benzo(b)fluoranthene forms a picrate with a melting-point of 156
       deg C
     * Partition coefficients for the 4:1 cyclohexane/methanolic water
       system is 14.7 and 1.94 for the 4:1 nitromethane/cyclohexane
       system.
     * Polycyclic aromatic hydrocarbons (PAHs) consists of 3 or more fused
       benzene rings in varying arrangements that contain only carbon &
       hydrogens. Hundreds of variations occur. /Polycyclic aromatic
       hydrocarbons/

   from [8]HSDB

   Computed Properties
   Molecular Weight                  252.30928 [g/mol]
   Molecular Formula                 C[20]H[12]
   XLogP3                            6.4
   H-Bond Donor                      0
   H-Bond Acceptor                   0
   Rotatable Bond Count              0
   Exact Mass                        252.0939
   MonoIsotopic Mass                 252.0939
   Topological Polar Surface Area    0
   Heavy Atom Count                  20
   Formal Charge                     0
   Complexity                        372
   Isotope Atom Count                0
   Defined Atom Stereocenter Count   0
   Undefined Atom Stereocenter Count 0
   Defined Bond Stereocenter Count   0
   Undefined Bond Stereocenter Count 0
   Covalently-Bonded Unit Count      1
   Feature 3D Ring Count             5
   Effective Rotor Count             0
   Conformer Sampling RMSD           0.6
   CID Conformer Count               [9]1

References

   1. http://toxnet.nlm.nih.gov/cgi-bin/sis/search/r?dbs+hsdb:@term+@rn+@rel+205-99-2
   2. http://toxnet.nlm.nih.gov/cgi-bin/sis/search/r?dbs+hsdb:@term+@rn+@rel+205-99-2
   3. http://www.ncbi.nlm.nih.gov/entrez/query.fcgi?cmd=Retrieve&db=pubmed&dopt=Abstract&list_uids=7501868
   4. http://toxnet.nlm.nih.gov/cgi-bin/sis/search/r?dbs+hsdb:@term+@rn+@rel+205-99-2
   5. http://toxnet.nlm.nih.gov/cgi-bin/sis/search/r?dbs+hsdb:@term+@rn+@rel+205-99-2
   6. http://toxnet.nlm.nih.gov/cgi-bin/sis/search/r?dbs+hsdb:@term+@rn+@rel+205-99-2
   7. http://toxnet.nlm.nih.gov/cgi-bin/sis/search/r?dbs+hsdb:@term+@rn+@rel+205-99-2
   8. http://toxnet.nlm.nih.gov/cgi-bin/sis/search/r?dbs+hsdb:@term+@rn+@rel+205-99-2
   9. http://pubchem.ncbi.nlm.nih.gov/vw3d/vw3d.cgi?cid=9153
