   Color/Form

     * Needles from acetone + water
     * COLORLESS CRYSTAL OR WHITE, CRYSTALLINE POWDER
     * White, crystalline alkaloid
     * Colorless prisms (from ethanol/water)

   from [1]HSDB

   Odor
        Odorless
   from [2]HSDB

   Taste
        Very bitter taste
   from [3]HSDB

   Boiling Point
        470 deg C
   from [4]HSDB

   Melting Point
        178 deg C
   from [5]HSDB

   Dissociation Constants
        pKa= 8.28 @ 25 deg C
   from [6]HSDB

   Heat of Combustion
        687.68 kg cal/g mole @ 25 deg C (gas)
   from [7]HSDB

   Octanol/Water Partition Coefficient
        Log Kow= 0.98
   from [8]HSDB

   Solubilities

     * Slightly soluble in ethyl ether and benzene; very soluble in
       ethanol.
     * Slightly sol in water, ether, glycerin and ethyl acetate.
     * Soluble in alcohol, chloroform, and benzene; slightly soluble in
       ether, glycerol, and ethyl acetate.
     * In water, 3.2X10+3 mg/l @ 15 deg C

   from [9]HSDB

   Spectral Properties

     * Specific optical rotation: -127 deg/D (chloroform), -85 deg/D (abs
       alc); max absorption (ethanol): 263 NM (log e= 4.09)
     * SPECIFIC OPTICAL ROTATION: -149.5 DEG @ 20 DEG C/5461 D
     * MAX ABSORPTION (ALCOHOL): 264 NM (LOG E= 4.01); 301 NM (LOG E=
       3.94)
     * SADTLER REFERENCE NUMBER: 2252 (IR, PRISM), 8248 (IR, GRATING); 600
       (UV); 683 (NMR)
     * MASS: 5060 (National Bureau of Standards EPA-NIH Mass Spectra Data
       Base, NSRDS-NBS-63)
     * Intense mass spectral peaks: 355 m/z, 379 m/z, 394 m/z

   from [10]HSDB

   Other Chemical/Physical Properties

     * AN ALKALOID OF NUX VOMICA; DIFFERS FROM STRYCHINE IN THAT IT
       CONTAINS 2 METHOXY GROUPS
     * Monoclinic prisms. Also forms a dihydrate. Very bitter taste.
       Bitterness threshold 1:220,000 ... Becomes anyhdr at 100 deg C. One
       g dissolves in 0.8 ml methanol, 1.3 ml alcohol, 5 ml chloroform, 25
       ml ethyl acetate, 36 ml glycerol, about 100 ml benzene, 187 ml
       ether, 1320 ml water, 750 ml boiling water. pH of satd water soln
       9.5. pKa 6.04, pK2 11.7. /Tetrahydrate/
     * Crystals. Sol in water or alcohol. The solns are neutral or
       slightly acid. /Hydrochloride/
     * Prisms, dec 230 deg C. Sol in water or alcohol. /Nitrate dihydrate/
     * Small, bitter crystals. One g dissolves in 75 ml cold water, about
       10 ml boiling water, 105 ml alcohol, 170 ml chloroform. Soly in
       water is decreased by H2SO4. /Sulfate heptahydrate/

   from [11]HSDB

   Computed Properties
   Molecular Weight                  394.46354 [g/mol]
   Molecular Formula                 C[23]H[26]N[2]O[4]
   XLogP3                            1
   H-Bond Donor                      0
   H-Bond Acceptor                   5
   Rotatable Bond Count              2
   Tautomer Count                    2
   Exact Mass                        394.189257
   MonoIsotopic Mass                 394.189257
   Topological Polar Surface Area    51.2
   Heavy Atom Count                  29
   Formal Charge                     0
   Complexity                        785
   Isotope Atom Count                0
   Defined Atom Stereocenter Count   6
   Undefined Atom Stereocenter Count 0
   Defined Bond Stereocenter Count   0
   Undefined Bond Stereocenter Count 0
   Covalently-Bonded Unit Count      1
   Feature 3D Acceptor Count         4
   Feature 3D Cation Count           1
   Feature 3D Ring Count             7
   Effective Rotor Count             3.4
   Conformer Sampling RMSD           0.8
   CID Conformer Count               [12]1

References

   1. http://toxnet.nlm.nih.gov/cgi-bin/sis/search/r?dbs+hsdb:@term+@rn+@rel+357-57-3
   2. http://toxnet.nlm.nih.gov/cgi-bin/sis/search/r?dbs+hsdb:@term+@rn+@rel+357-57-3
   3. http://toxnet.nlm.nih.gov/cgi-bin/sis/search/r?dbs+hsdb:@term+@rn+@rel+357-57-3
   4. http://toxnet.nlm.nih.gov/cgi-bin/sis/search/r?dbs+hsdb:@term+@rn+@rel+357-57-3
   5. http://toxnet.nlm.nih.gov/cgi-bin/sis/search/r?dbs+hsdb:@term+@rn+@rel+357-57-3
   6. http://toxnet.nlm.nih.gov/cgi-bin/sis/search/r?dbs+hsdb:@term+@rn+@rel+357-57-3
   7. http://toxnet.nlm.nih.gov/cgi-bin/sis/search/r?dbs+hsdb:@term+@rn+@rel+357-57-3
   8. http://toxnet.nlm.nih.gov/cgi-bin/sis/search/r?dbs+hsdb:@term+@rn+@rel+357-57-3
   9. http://toxnet.nlm.nih.gov/cgi-bin/sis/search/r?dbs+hsdb:@term+@rn+@rel+357-57-3
  10. http://toxnet.nlm.nih.gov/cgi-bin/sis/search/r?dbs+hsdb:@term+@rn+@rel+357-57-3
  11. http://toxnet.nlm.nih.gov/cgi-bin/sis/search/r?dbs+hsdb:@term+@rn+@rel+357-57-3
  12. http://pubchem.ncbi.nlm.nih.gov/vw3d/vw3d.cgi?cid=442021
