   Color/Form

     * Colorless liquid
     * Liquid

   from [1]HSDB

   Boiling Point
        85.7 deg C
   from [2]HSDB

   Melting Point
        -42 deg C
   from [3]HSDB

   Density/Specific Gravity
        1.4403 at 25 deg C/4 deg C; 1.4223 at 35 deg C/4 deg C
   from [4]HSDB

   Octanol/Water Partition Coefficient
        log Kow = 2.09
   from [5]HSDB

   Solubilities

     * In water, 715 mg/L at 25 deg C (est)
     * Insoluble in water

   from [6]HSDB

   Spectral Properties

     * Index of refraction: 1.4409 at 20 deg C/D; 1.4375 at 27.0 deg C/D
     * MASS: 4001 (NIST/EPA/MSDC Mass Spectral Database, 1990 version);
       4000 (National Bureau of Standards)
     * IR: 3256 (Coblentz Spectral Society)

   from [7]HSDB

   Vapor Pressure
        74.1 mm Hg at 25 deg C
   from [8]HSDB

   Other Chemical/Physical Properties

     * Conversion factor: mg/cu m = 5.91 X ppm
     * Henry's Law constant = 1.34X10-6 atm-cu m/mol at 25 deg C (est)

   from [9]HSDB

   Computed Properties
   Molecular Weight                  144.3871 [g/mol]
   Molecular Formula                 C[2]Cl[3]N
   XLogP3                            2.1
   H-Bond Donor                      0
   H-Bond Acceptor                   1
   Rotatable Bond Count              0
   Exact Mass                        142.909632
   MonoIsotopic Mass                 142.909632
   Topological Polar Surface Area    23.8
   Heavy Atom Count                  6
   Formal Charge                     0
   Complexity                        82.7
   Isotope Atom Count                0
   Defined Atom Stereocenter Count   0
   Undefined Atom Stereocenter Count 0
   Defined Bond Stereocenter Count   0
   Undefined Bond Stereocenter Count 0
   Covalently-Bonded Unit Count      1
   Feature 3D Acceptor Count         1
   Effective Rotor Count             0
   Conformer Sampling RMSD           0.4
   CID Conformer Count               [10]1

References

   1. http://toxnet.nlm.nih.gov/cgi-bin/sis/search/r?dbs+hsdb:@term+@rn+@rel+545-06-2
   2. http://toxnet.nlm.nih.gov/cgi-bin/sis/search/r?dbs+hsdb:@term+@rn+@rel+545-06-2
   3. http://toxnet.nlm.nih.gov/cgi-bin/sis/search/r?dbs+hsdb:@term+@rn+@rel+545-06-2
   4. http://toxnet.nlm.nih.gov/cgi-bin/sis/search/r?dbs+hsdb:@term+@rn+@rel+545-06-2
   5. http://toxnet.nlm.nih.gov/cgi-bin/sis/search/r?dbs+hsdb:@term+@rn+@rel+545-06-2
   6. http://toxnet.nlm.nih.gov/cgi-bin/sis/search/r?dbs+hsdb:@term+@rn+@rel+545-06-2
   7. http://toxnet.nlm.nih.gov/cgi-bin/sis/search/r?dbs+hsdb:@term+@rn+@rel+545-06-2
   8. http://toxnet.nlm.nih.gov/cgi-bin/sis/search/r?dbs+hsdb:@term+@rn+@rel+545-06-2
   9. http://toxnet.nlm.nih.gov/cgi-bin/sis/search/r?dbs+hsdb:@term+@rn+@rel+545-06-2
  10. http://pubchem.ncbi.nlm.nih.gov/vw3d/vw3d.cgi?cid=11011
