420422
  -OEChem-07051213002D

 45 47  0     1  0  0  0  0  0999 V2000
    6.3301   -0.8255    0.0000 O   0  0  0  0  0  0  0  0  0  0  0  0
    5.4641    0.6745    0.0000 O   0  0  0  0  0  0  0  0  0  0  0  0
    2.0000   -0.3255    0.0000 O   0  0  0  0  0  0  0  0  0  0  0  0
    2.0000   -2.3255    0.0000 O   0  0  0  0  0  0  0  0  0  0  0  0
    9.1671    2.4595    0.0000 N   0  0  0  0  0  0  0  0  0  0  0  0
    9.9037    1.4768    0.0000 C   0  0  3  0  0  0  0  0  0  0  0  0
    9.6448    0.5109    0.0000 C   0  0  3  0  0  0  0  0  0  0  0  0
   11.7356    0.7180    0.0000 C   0  0  0  0  0  0  0  0  0  0  0  0
   11.4768   -0.2479    0.0000 C   0  0  0  0  0  0  0  0  0  0  0  0
    7.3007    0.6690    0.0000 C   0  0  0  0  0  0  0  0  0  0  0  0
    8.1097   -0.7322    0.0000 C   0  0  0  0  0  0  0  0  0  0  0  0
    7.1962   -0.3255    0.0000 C   0  0  0  0  0  0  0  0  0  0  0  0
    8.6671    3.3255    0.0000 C   0  0  0  0  0  0  0  0  0  0  0  0
    5.4641   -0.3255    0.0000 C   0  0  0  0  0  0  0  0  0  0  0  0
    4.5981   -0.8255    0.0000 C   0  0  0  0  0  0  0  0  0  0  0  0
    3.7320   -0.3255    0.0000 C   0  0  0  0  0  0  0  0  0  0  0  0
    4.5981   -1.8255    0.0000 C   0  0  0  0  0  0  0  0  0  0  0  0
    2.8660   -0.8255    0.0000 C   0  0  0  0  0  0  0  0  0  0  0  0
    3.7320   -2.3255    0.0000 C   0  0  0  0  0  0  0  0  0  0  0  0
    2.8660   -1.8255    0.0000 C   0  0  0  0  0  0  0  0  0  0  0  0
    2.0000    0.6745    0.0000 C   0  0  0  0  0  0  0  0  0  0  0  0
    2.0000   -3.3255    0.0000 C   0  0  0  0  0  0  0  0  0  0  0  0
    9.7338   -0.1027    0.0000 H   0  0  0  0  0  0  0  0  0  0  0  0
    9.8752    0.8575    0.0000 H   0  0  0  0  0  0  0  0  0  0  0  0
   11.2648   -0.8305    0.0000 H   0  0  0  0  0  0  0  0  0  0  0  0
   12.0681   -0.4343    0.0000 H   0  0  0  0  0  0  0  0  0  0  0  0
   12.3269    0.5316    0.0000 H   0  0  0  0  0  0  0  0  0  0  0  0
   11.9477    1.3006    0.0000 H   0  0  0  0  0  0  0  0  0  0  0  0
    7.7720   -1.2522    0.0000 H   0  0  0  0  0  0  0  0  0  0  0  0
    8.5704   -1.1471    0.0000 H   0  0  0  0  0  0  0  0  0  0  0  0
    7.1984    1.2805    0.0000 H   0  0  0  0  0  0  0  0  0  0  0  0
    6.6810    0.6501    0.0000 H   0  0  0  0  0  0  0  0  0  0  0  0
    6.6762    0.0122    0.0000 H   0  0  0  0  0  0  0  0  0  0  0  0
    9.2040    3.6355    0.0000 H   0  0  0  0  0  0  0  0  0  0  0  0
    8.3571    3.8624    0.0000 H   0  0  0  0  0  0  0  0  0  0  0  0
    8.1301    3.0155    0.0000 H   0  0  0  0  0  0  0  0  0  0  0  0
    3.7320    0.2945    0.0000 H   0  0  0  0  0  0  0  0  0  0  0  0
    5.1350   -2.1355    0.0000 H   0  0  0  0  0  0  0  0  0  0  0  0
    3.7320   -2.9455    0.0000 H   0  0  0  0  0  0  0  0  0  0  0  0
    2.6200    0.6745    0.0000 H   0  0  0  0  0  0  0  0  0  0  0  0
    2.0000    1.2945    0.0000 H   0  0  0  0  0  0  0  0  0  0  0  0
    1.3800    0.6745    0.0000 H   0  0  0  0  0  0  0  0  0  0  0  0
    1.3800   -3.3255    0.0000 H   0  0  0  0  0  0  0  0  0  0  0  0
    2.0000   -3.9455    0.0000 H   0  0  0  0  0  0  0  0  0  0  0  0
    2.6200   -3.3255    0.0000 H   0  0  0  0  0  0  0  0  0  0  0  0
  1 12  1  0  0  0  0
  1 14  1  0  0  0  0
  2 14  2  0  0  0  0
  3 18  1  0  0  0  0
  3 21  1  0  0  0  0
  4 20  1  0  0  0  0
  4 22  1  0  0  0  0
  5  6  1  0  0  0  0
  5  7  1  0  0  0  0
  5 13  1  0  0  0  0
  6  8  1  0  0  0  0
  6 10  1  0  0  0  0
  6 24  1  0  0  0  0
  7  9  1  0  0  0  0
  7 11  1  0  0  0  0
  7 23  1  0  0  0  0
  8  9  1  0  0  0  0
  8 27  1  0  0  0  0
  8 28  1  0  0  0  0
  9 25  1  0  0  0  0
  9 26  1  0  0  0  0
 10 12  1  0  0  0  0
 10 31  1  0  0  0  0
 10 32  1  0  0  0  0
 11 12  1  0  0  0  0
 11 29  1  0  0  0  0
 11 30  1  0  0  0  0
 12 33  1  0  0  0  0
 13 34  1  0  0  0  0
 13 35  1  0  0  0  0
 13 36  1  0  0  0  0
 14 15  1  0  0  0  0
 15 16  2  0  0  0  0
 15 17  1  0  0  0  0
 16 18  1  0  0  0  0
 16 37  1  0  0  0  0
 17 19  2  0  0  0  0
 17 38  1  0  0  0  0
 18 20  2  0  0  0  0
 19 20  1  0  0  0  0
 19 39  1  0  0  0  0
 21 40  1  0  0  0  0
 21 41  1  0  0  0  0
 21 42  1  0  0  0  0
 22 43  1  0  0  0  0
 22 44  1  0  0  0  0
 22 45  1  0  0  0  0
M  END
> <PUBCHEM_COMPOUND_CID>
420422

> <PUBCHEM_COMPOUND_CANONICALIZED>
1

> <PUBCHEM_CACTVS_COMPLEXITY>
388

> <PUBCHEM_CACTVS_HBOND_ACCEPTOR>
5

> <PUBCHEM_CACTVS_HBOND_DONOR>
0

> <PUBCHEM_CACTVS_ROTATABLE_BOND>
5

> <PUBCHEM_CACTVS_SUBSKEYS>
AAADceB6OAAAAAAAAAAAAAAAAAAAAWAAAAA8QAAABgAAAAABAAAAHgAAAAAADDzhmAYyDoMABACIAiDSCAACCAAkIAAIiAEOiMgNJjKEtRqGMSImwBGKqYfa7DzOIAABAAAAQABAAAIAAACAAAAAAAAAAA==

> <PUBCHEM_IUPAC_OPENEYE_NAME>
(8-methyl-8-azabicyclo[3.2.1]octan-3-yl) 3,4-dimethoxybenzoate

> <PUBCHEM_IUPAC_CAS_NAME>
3,4-dimethoxybenzoic acid (8-methyl-8-azabicyclo[3.2.1]octan-3-yl) ester

> <PUBCHEM_IUPAC_NAME>
(8-methyl-8-azabicyclo[3.2.1]octan-3-yl) 3,4-dimethoxybenzoate

> <PUBCHEM_IUPAC_SYSTEMATIC_NAME>
(8-methyl-8-azabicyclo[3.2.1]octan-3-yl) 3,4-dimethoxybenzoate

> <PUBCHEM_IUPAC_TRADITIONAL_NAME>
3,4-dimethoxybenzoic acid (8-methyl-8-azabicyclo[3.2.1]octan-3-yl) ester

> <PUBCHEM_IUPAC_INCHI>
InChI=1S/C17H23NO4/c1-18-12-5-6-13(18)10-14(9-12)22-17(19)11-4-7-15(20-2)16(8-11)21-3/h4,7-8,12-14H,5-6,9-10H2,1-3H3

> <PUBCHEM_IUPAC_INCHIKEY>
AEFPCFUCFQBXDQ-UHFFFAOYSA-N

> <PUBCHEM_XLOGP3>
3.1

> <PUBCHEM_EXACT_MASS>
305.162708

> <PUBCHEM_MOLECULAR_FORMULA>
C17H23NO4

> <PUBCHEM_MOLECULAR_WEIGHT>
305.36882

> <PUBCHEM_OPENEYE_CAN_SMILES>
CN1C2CCC1CC(C2)OC(=O)C3=CC(=C(C=C3)OC)OC

> <PUBCHEM_OPENEYE_ISO_SMILES>
CN1C2CCC1CC(C2)OC(=O)C3=CC(=C(C=C3)OC)OC

> <PUBCHEM_CACTVS_TPSA>
48

> <PUBCHEM_MONOISOTOPIC_WEIGHT>
305.162708

> <PUBCHEM_TOTAL_CHARGE>
0

> <PUBCHEM_HEAVY_ATOM_COUNT>
22

> <PUBCHEM_ATOM_DEF_STEREO_COUNT>
0

> <PUBCHEM_ATOM_UDEF_STEREO_COUNT>
2

> <PUBCHEM_BOND_DEF_STEREO_COUNT>
0

> <PUBCHEM_BOND_UDEF_STEREO_COUNT>
0

> <PUBCHEM_ISOTOPIC_ATOM_COUNT>
0

> <PUBCHEM_COMPONENT_COUNT>
1

> <PUBCHEM_CACTVS_TAUTO_COUNT>
1

> <PUBCHEM_COORDINATE_TYPE>
1
5
255

> <PUBCHEM_BONDANNOTATIONS>
15  16  8
15  17  8
16  18  8
17  19  8
18  20  8
19  20  8
6  8  3
7  9  3

$$$$

