6437352
  -OEChem-07051213062D

 47 48  0     1  0  0  0  0  0999 V2000
    7.7748    2.8807    0.0000 O   0  0  0  0  0  0  0  0  0  0  0  0
    3.4446    1.3807    0.0000 O   0  0  0  0  0  0  0  0  0  0  0  0
    5.1767    1.3807    0.0000 O   0  0  0  0  0  0  0  0  0  0  0  0
    2.5405   -0.1162    0.0000 O   0  0  0  0  0  0  0  0  0  0  0  0
    4.2986   -3.1886    0.0000 O   0  0  0  0  0  0  0  0  0  0  0  0
    6.0427    2.8807    0.0000 C   0  0  0  0  0  0  0  0  0  0  0  0
    6.9088    2.3807    0.0000 C   0  0  2  0  0  0  0  0  0  0  0  0
    5.1767    2.3807    0.0000 C   0  0  0  0  0  0  0  0  0  0  0  0
    6.9088    1.3807    0.0000 C   0  0  0  0  0  0  0  0  0  0  0  0
    4.3107    2.8807    0.0000 C   0  0  0  0  0  0  0  0  0  0  0  0
    7.7748    0.8807    0.0000 C   0  0  0  0  0  0  0  0  0  0  0  0
    3.4446    2.3807    0.0000 C   0  0  2  0  0  0  0  0  0  0  0  0
    7.7748   -0.1193    0.0000 C   0  0  0  0  0  0  0  0  0  0  0  0
    2.5786    2.8807    0.0000 C   0  0  0  0  0  0  0  0  0  0  0  0
    6.9088   -0.6193    0.0000 C   0  0  0  0  0  0  0  0  0  0  0  0
    4.3107   -0.1193    0.0000 C   0  0  0  0  0  0  0  0  0  0  0  0
    5.1767   -0.6193    0.0000 C   0  0  0  0  0  0  0  0  0  0  0  0
    4.3107    0.8807    0.0000 C   0  0  0  0  0  0  0  0  0  0  0  0
    6.0427   -0.1193    0.0000 C   0  0  0  0  0  0  0  0  0  0  0  0
    3.4007   -0.6262    0.0000 C   0  0  0  0  0  0  0  0  0  0  0  0
    5.1928   -1.6608    0.0000 C   0  0  0  0  0  0  0  0  0  0  0  0
    4.2947   -2.1886    0.0000 C   0  0  0  0  0  0  0  0  0  0  0  0
    3.3926   -1.6678    0.0000 C   0  0  0  0  0  0  0  0  0  0  0  0
    6.4412    3.3556    0.0000 H   0  0  0  0  0  0  0  0  0  0  0  0
    5.6442    3.3556    0.0000 H   0  0  0  0  0  0  0  0  0  0  0  0
    6.9088    3.0007    0.0000 H   0  0  0  0  0  0  0  0  0  0  0  0
    4.7782    1.9057    0.0000 H   0  0  0  0  0  0  0  0  0  0  0  0
    5.5752    1.9057    0.0000 H   0  0  0  0  0  0  0  0  0  0  0  0
    6.2982    1.4883    0.0000 H   0  0  0  0  0  0  0  0  0  0  0  0
    6.6967    0.7981    0.0000 H   0  0  0  0  0  0  0  0  0  0  0  0
    4.7092    3.3556    0.0000 H   0  0  0  0  0  0  0  0  0  0  0  0
    3.9121    3.3556    0.0000 H   0  0  0  0  0  0  0  0  0  0  0  0
    8.3854    0.7730    0.0000 H   0  0  0  0  0  0  0  0  0  0  0  0
    7.9868    1.4633    0.0000 H   0  0  0  0  0  0  0  0  0  0  0  0
    2.9077    2.0707    0.0000 H   0  0  0  0  0  0  0  0  0  0  0  0
    7.9868   -0.7019    0.0000 H   0  0  0  0  0  0  0  0  0  0  0  0
    8.3854   -0.0117    0.0000 H   0  0  0  0  0  0  0  0  0  0  0  0
    2.8886    3.4176    0.0000 H   0  0  0  0  0  0  0  0  0  0  0  0
    2.0417    3.1907    0.0000 H   0  0  0  0  0  0  0  0  0  0  0  0
    2.2686    2.3437    0.0000 H   0  0  0  0  0  0  0  0  0  0  0  0
    7.7748    3.5007    0.0000 H   0  0  0  0  0  0  0  0  0  0  0  0
    6.9088   -1.2393    0.0000 H   0  0  0  0  0  0  0  0  0  0  0  0
    6.0427    0.5007    0.0000 H   0  0  0  0  0  0  0  0  0  0  0  0
    5.7332   -1.9646    0.0000 H   0  0  0  0  0  0  0  0  0  0  0  0
    2.8545   -1.9757    0.0000 H   0  0  0  0  0  0  0  0  0  0  0  0
    2.0000   -0.4200    0.0000 H   0  0  0  0  0  0  0  0  0  0  0  0
    3.7628   -3.5007    0.0000 H   0  0  0  0  0  0  0  0  0  0  0  0
  7  1  1  1  0  0  0
  1 41  1  0  0  0  0
  2 12  1  0  0  0  0
  2 18  1  0  0  0  0
  3 18  2  0  0  0  0
  4 20  1  0  0  0  0
  4 46  1  0  0  0  0
  5 22  1  0  0  0  0
  5 47  1  0  0  0  0
  6  7  1  0  0  0  0
  6  8  1  0  0  0  0
  6 24  1  0  0  0  0
  6 25  1  0  0  0  0
  7  9  1  0  0  0  0
  7 26  1  0  0  0  0
  8 10  1  0  0  0  0
  8 27  1  0  0  0  0
  8 28  1  0  0  0  0
  9 11  1  0  0  0  0
  9 29  1  0  0  0  0
  9 30  1  0  0  0  0
 10 12  1  0  0  0  0
 10 31  1  0  0  0  0
 10 32  1  0  0  0  0
 11 13  1  0  0  0  0
 11 33  1  0  0  0  0
 11 34  1  0  0  0  0
 12 14  1  1  0  0  0
 12 35  1  0  0  0  0
 13 15  1  0  0  0  0
 13 36  1  0  0  0  0
 13 37  1  0  0  0  0
 14 38  1  0  0  0  0
 14 39  1  0  0  0  0
 14 40  1  0  0  0  0
 15 19  2  0  0  0  0
 15 42  1  0  0  0  0
 16 17  1  0  0  0  0
 16 18  1  0  0  0  0
 16 20  2  0  0  0  0
 17 19  1  0  0  0  0
 17 21  2  0  0  0  0
 19 43  1  0  0  0  0
 20 23  1  0  0  0  0
 21 22  1  0  0  0  0
 21 44  1  0  0  0  0
 22 23  2  0  0  0  0
 23 45  1  0  0  0  0
M  END
> <PUBCHEM_COMPOUND_CID>
6437352

> <PUBCHEM_COMPOUND_CANONICALIZED>
1

> <PUBCHEM_CACTVS_COMPLEXITY>
408

> <PUBCHEM_CACTVS_HBOND_ACCEPTOR>
5

> <PUBCHEM_CACTVS_HBOND_DONOR>
3

> <PUBCHEM_CACTVS_ROTATABLE_BOND>
0

> <PUBCHEM_CACTVS_SUBSKEYS>
AAADceB4OAAAAAAAAAAAAAAAAAAAAAAAAAAwAAAAAAAAAAABAAAAGgAACAAADBSgmAIyDoAABgCIAiDSCAACAAAkIAAIiAEGCMgINzaCNRqCcUAl4BUIuQeI7LzOoAABCAAYAABAAAIQADAAAAAAAAAAAA==

> <PUBCHEM_IUPAC_OPENEYE_NAME>
(2E,7S,11S)-7,15,17-trihydroxy-11-methyl-12-oxabicyclo[12.4.0]octadeca-1(18),2,14,16-tetraen-13-one

> <PUBCHEM_IUPAC_CAS_NAME>
(2E,7S,11S)-7,15,17-trihydroxy-11-methyl-12-oxabicyclo[12.4.0]octadeca-1(18),2,14,16-tetraen-13-one

> <PUBCHEM_IUPAC_NAME>
(2E,7S,11S)-7,15,17-trihydroxy-11-methyl-12-oxabicyclo[12.4.0]octadeca-1(18),2,14,16-tetraen-13-one

> <PUBCHEM_IUPAC_SYSTEMATIC_NAME>
(2E,7S,11S)-11-methyl-7,15,17-tris(oxidanyl)-12-oxabicyclo[12.4.0]octadeca-1(18),2,14,16-tetraen-13-one

> <PUBCHEM_IUPAC_TRADITIONAL_NAME>
(2E,7S,11S)-7,15,17-trihydroxy-11-methyl-12-oxabicyclo[12.4.0]octadeca-1(18),2,14,16-tetraen-13-one

> <PUBCHEM_IUPAC_INCHI>
InChI=1S/C18H24O5/c1-12-6-5-9-14(19)8-4-2-3-7-13-10-15(20)11-16(21)17(13)18(22)23-12/h3,7,10-12,14,19-21H,2,4-6,8-9H2,1H3/b7-3+/t12-,14-/m0/s1

> <PUBCHEM_IUPAC_INCHIKEY>
FPQFYIAXQDXNOR-PMRAARRBSA-N

> <PUBCHEM_XLOGP3_AA>
4

> <PUBCHEM_EXACT_MASS>
320.162374

> <PUBCHEM_MOLECULAR_FORMULA>
C18H24O5

> <PUBCHEM_MOLECULAR_WEIGHT>
320.38016

> <PUBCHEM_OPENEYE_CAN_SMILES>
CC1CCCC(CCCC=CC2=CC(=CC(=C2C(=O)O1)O)O)O

> <PUBCHEM_OPENEYE_ISO_SMILES>
C[C@H]1CCC[C@H](CCC/C=C/C2=CC(=CC(=C2C(=O)O1)O)O)O

> <PUBCHEM_CACTVS_TPSA>
87

> <PUBCHEM_MONOISOTOPIC_WEIGHT>
320.162374

> <PUBCHEM_TOTAL_CHARGE>
0

> <PUBCHEM_HEAVY_ATOM_COUNT>
23

> <PUBCHEM_ATOM_DEF_STEREO_COUNT>
2

> <PUBCHEM_ATOM_UDEF_STEREO_COUNT>
0

> <PUBCHEM_BOND_DEF_STEREO_COUNT>
1

> <PUBCHEM_BOND_UDEF_STEREO_COUNT>
0

> <PUBCHEM_ISOTOPIC_ATOM_COUNT>
0

> <PUBCHEM_COMPONENT_COUNT>
1

> <PUBCHEM_CACTVS_TAUTO_COUNT>
37

> <PUBCHEM_COORDINATE_TYPE>
1
5
255

> <PUBCHEM_BONDANNOTATIONS>
7  1  5
12  14  5
16  17  8
16  20  8
17  21  8
20  23  8
21  22  8
22  23  8

$$$$

