   Color/Form
        Viscous liquid yellow-brown
   from [1]HSDB

   Odor
        Mild
   from [2]HSDB

   Boiling Point
        187-190 deg C @ 0.2 mm Hg
   from [3]HSDB

   Melting Point
        Below 10 deg C
   from [4]HSDB

   Density/Specific Gravity
        1.25 @ 25 deg C
   from [5]HSDB

   Octanol/Water Partition Coefficient
        log Kow = 6.8
   from [6]HSDB

   Solubilities

     * In acetone, dichloromethane, methanol, diethyl ether, ethyl
       acetate, hexane, toluene, all >500 g/l at 20 deg C.
     * In water, 5.0X10-3 mg/l, temp not specified.

   from [7]HSDB

   Spectral Properties
        Index of refraction: 1.534 at 24 deg C/D
   from [8]HSDB

   Vapor Pressure
        7.5X10-9 mm Hg @ 20 deg C
   from [9]HSDB

   Other Chemical/Physical Properties

     * Yellow to brown viscous oil /Technical cyhalothrin/
     * Decomposes at 275 deg C

   from [10]HSDB

   Computed Properties
   Molecular Weight                  449.85007 [g/mol]
   Molecular Formula                 C[23]H[19]ClF[3]NO[3]
   XLogP3                            6.1
   H-Bond Donor                      0
   H-Bond Acceptor                   7
   Rotatable Bond Count              7
   Exact Mass                        449.100556
   MonoIsotopic Mass                 449.100556
   Topological Polar Surface Area    59.3
   Heavy Atom Count                  31
   Formal Charge                     0
   Complexity                        736
   Isotope Atom Count                0
   Defined Atom Stereocenter Count   0
   Undefined Atom Stereocenter Count 3
   Defined Bond Stereocenter Count   1
   Undefined Bond Stereocenter Count 0
   Covalently-Bonded Unit Count      1
   Feature 3D Acceptor Count         3
   Feature 3D Hydrophobe Count       1
   Feature 3D Ring Count             2
   Effective Rotor Count             8.6
   Conformer Sampling RMSD           1.4
   CID Conformer Count               [11]364

References

   1. http://toxnet.nlm.nih.gov/cgi-bin/sis/search/r?dbs+hsdb:@term+@rn+@rel+68085-85-8
   2. http://toxnet.nlm.nih.gov/cgi-bin/sis/search/r?dbs+hsdb:@term+@rn+@rel+68085-85-8
   3. http://toxnet.nlm.nih.gov/cgi-bin/sis/search/r?dbs+hsdb:@term+@rn+@rel+68085-85-8
   4. http://toxnet.nlm.nih.gov/cgi-bin/sis/search/r?dbs+hsdb:@term+@rn+@rel+68085-85-8
   5. http://toxnet.nlm.nih.gov/cgi-bin/sis/search/r?dbs+hsdb:@term+@rn+@rel+68085-85-8
   6. http://toxnet.nlm.nih.gov/cgi-bin/sis/search/r?dbs+hsdb:@term+@rn+@rel+68085-85-8
   7. http://toxnet.nlm.nih.gov/cgi-bin/sis/search/r?dbs+hsdb:@term+@rn+@rel+68085-85-8
   8. http://toxnet.nlm.nih.gov/cgi-bin/sis/search/r?dbs+hsdb:@term+@rn+@rel+68085-85-8
   9. http://toxnet.nlm.nih.gov/cgi-bin/sis/search/r?dbs+hsdb:@term+@rn+@rel+68085-85-8
  10. http://toxnet.nlm.nih.gov/cgi-bin/sis/search/r?dbs+hsdb:@term+@rn+@rel+68085-85-8
  11. http://pubchem.ncbi.nlm.nih.gov/vw3d/vw3d.cgi?cid=5281873
