3412
  -OEChem-06251223242D

 77 77  0     1  0  0  0  0  0999 V2000
   10.6603    3.2500    0.0000 O   0  0  0  0  0  0  0  0  0  0  0  0
   14.1244    1.2500    0.0000 O   0  0  0  0  0  0  0  0  0  0  0  0
   10.6603   -1.7500    0.0000 O   0  0  0  0  0  0  0  0  0  0  0  0
    8.0622   -1.2500    0.0000 O   0  0  0  0  0  0  0  0  0  0  0  0
   14.1244    6.2500    0.0000 O   0  0  0  0  0  0  0  0  0  0  0  0
    9.7942   -4.2500    0.0000 O   0  0  0  0  0  0  0  0  0  0  0  0
    8.9282   -4.7500    0.0000 O   0  0  0  0  0  0  0  0  0  0  0  0
    3.7320   -5.7500    0.0000 O   0  0  0  0  0  0  0  0  0  0  0  0
    5.4641   -5.7500    0.0000 O   0  0  0  0  0  0  0  0  0  0  0  0
   15.8564    7.2500    0.0000 O   0  0  0  0  0  0  0  0  0  0  0  0
    2.0000   -4.7500    0.0000 O   0  0  0  0  0  0  0  0  0  0  0  0
   12.3923    1.2500    0.0000 N   0  0  0  0  0  0  0  0  0  0  0  0
   12.3923    3.2500    0.0000 N   0  0  0  0  0  0  0  0  0  0  0  0
    9.7942   -1.2500    0.0000 N   0  0  0  0  0  0  0  0  0  0  0  0
    8.0622   -3.2500    0.0000 N   0  0  0  0  0  0  0  0  0  0  0  0
   14.9904    5.7500    0.0000 N   0  0  0  0  0  0  0  0  0  0  0  0
    7.1962   -5.7500    0.0000 N   0  0  0  0  0  0  0  0  0  0  0  0
    3.7320   -4.7500    0.0000 N   0  0  0  0  0  0  0  0  0  0  0  0
   11.5263    1.7500    0.0000 C   0  0  3  0  0  0  0  0  0  0  0  0
   13.2583    2.7500    0.0000 C   0  0  3  0  0  0  0  0  0  0  0  0
   10.6603    1.2500    0.0000 C   0  0  0  0  0  0  0  0  0  0  0  0
   14.1244    3.2500    0.0000 C   0  0  0  0  0  0  0  0  0  0  0  0
   10.6603    0.2500    0.0000 C   0  0  0  0  0  0  0  0  0  0  0  0
   11.5263    2.7500    0.0000 C   0  0  0  0  0  0  0  0  0  0  0  0
   13.2583    1.7500    0.0000 C   0  0  0  0  0  0  0  0  0  0  0  0
   14.1244    4.2500    0.0000 C   0  0  0  0  0  0  0  0  0  0  0  0
    9.7942   -0.2500    0.0000 C   0  0  0  0  0  0  0  0  0  0  0  0
   14.9904    4.7500    0.0000 C   0  0  0  0  0  0  0  0  0  0  0  0
    8.9282   -2.7500    0.0000 C   0  0  3  0  0  0  0  0  0  0  0  0
    7.1962   -4.7500    0.0000 C   0  0  3  0  0  0  0  0  0  0  0  0
    6.3301   -4.2500    0.0000 C   0  0  0  0  0  0  0  0  0  0  0  0
    8.9282   -1.7500    0.0000 C   0  0  0  0  0  0  0  0  0  0  0  0
    5.4641   -4.7500    0.0000 C   0  0  0  0  0  0  0  0  0  0  0  0
    8.0622   -4.2500    0.0000 C   0  0  0  0  0  0  0  0  0  0  0  0
    9.7942   -3.2500    0.0000 C   0  0  0  0  0  0  0  0  0  0  0  0
    4.5981   -4.2500    0.0000 C   0  0  0  0  0  0  0  0  0  0  0  0
    6.3301   -6.2500    0.0000 C   0  0  0  0  0  0  0  0  0  0  0  0
   15.8564    6.2500    0.0000 C   0  0  0  0  0  0  0  0  0  0  0  0
    6.3301   -7.2500    0.0000 C   0  0  0  0  0  0  0  0  0  0  0  0
    2.8660   -4.2500    0.0000 C   0  0  0  0  0  0  0  0  0  0  0  0
   11.5263    1.1300    0.0000 H   0  0  0  0  0  0  0  0  0  0  0  0
   13.2583    3.3700    0.0000 H   0  0  0  0  0  0  0  0  0  0  0  0
   10.4482    1.8326    0.0000 H   0  0  0  0  0  0  0  0  0  0  0  0
   10.0497    1.1423    0.0000 H   0  0  0  0  0  0  0  0  0  0  0  0
   14.3364    2.6674    0.0000 H   0  0  0  0  0  0  0  0  0  0  0  0
   14.7349    3.3577    0.0000 H   0  0  0  0  0  0  0  0  0  0  0  0
   10.8723   -0.3326    0.0000 H   0  0  0  0  0  0  0  0  0  0  0  0
   11.2708    0.3577    0.0000 H   0  0  0  0  0  0  0  0  0  0  0  0
   12.3923    0.6300    0.0000 H   0  0  0  0  0  0  0  0  0  0  0  0
   12.3923    3.8700    0.0000 H   0  0  0  0  0  0  0  0  0  0  0  0
   13.9123    4.8326    0.0000 H   0  0  0  0  0  0  0  0  0  0  0  0
   13.5138    4.1423    0.0000 H   0  0  0  0  0  0  0  0  0  0  0  0
    9.5822    0.3326    0.0000 H   0  0  0  0  0  0  0  0  0  0  0  0
    9.1836   -0.3577    0.0000 H   0  0  0  0  0  0  0  0  0  0  0  0
   15.2024    4.1674    0.0000 H   0  0  0  0  0  0  0  0  0  0  0  0
   15.6010    4.8577    0.0000 H   0  0  0  0  0  0  0  0  0  0  0  0
    8.9282   -3.3700    0.0000 H   0  0  0  0  0  0  0  0  0  0  0  0
    6.6592   -5.0600    0.0000 H   0  0  0  0  0  0  0  0  0  0  0  0
    6.7287   -3.7750    0.0000 H   0  0  0  0  0  0  0  0  0  0  0  0
    5.9316   -3.7750    0.0000 H   0  0  0  0  0  0  0  0  0  0  0  0
    5.0656   -5.2250    0.0000 H   0  0  0  0  0  0  0  0  0  0  0  0
    5.8626   -5.2250    0.0000 H   0  0  0  0  0  0  0  0  0  0  0  0
    7.5252   -2.9400    0.0000 H   0  0  0  0  0  0  0  0  0  0  0  0
   10.4048   -3.3577    0.0000 H   0  0  0  0  0  0  0  0  0  0  0  0
   10.0063   -2.6674    0.0000 H   0  0  0  0  0  0  0  0  0  0  0  0
    4.9966   -3.7750    0.0000 H   0  0  0  0  0  0  0  0  0  0  0  0
    4.1996   -3.7750    0.0000 H   0  0  0  0  0  0  0  0  0  0  0  0
    7.7331   -6.0600    0.0000 H   0  0  0  0  0  0  0  0  0  0  0  0
   10.6603   -2.3700    0.0000 H   0  0  0  0  0  0  0  0  0  0  0  0
   16.3933    5.9400    0.0000 H   0  0  0  0  0  0  0  0  0  0  0  0
   10.3312   -4.5600    0.0000 H   0  0  0  0  0  0  0  0  0  0  0  0
   14.1244    6.8700    0.0000 H   0  0  0  0  0  0  0  0  0  0  0  0
    5.7101   -7.2500    0.0000 H   0  0  0  0  0  0  0  0  0  0  0  0
    6.3301   -7.8700    0.0000 H   0  0  0  0  0  0  0  0  0  0  0  0
    6.9501   -7.2500    0.0000 H   0  0  0  0  0  0  0  0  0  0  0  0
    2.8660   -3.6300    0.0000 H   0  0  0  0  0  0  0  0  0  0  0  0
    3.1951   -6.0600    0.0000 H   0  0  0  0  0  0  0  0  0  0  0  0
  1 24  2  0  0  0  0
  2 25  2  0  0  0  0
  3 14  1  0  0  0  0
  3 69  1  0  0  0  0
  4 32  2  0  0  0  0
  5 16  1  0  0  0  0
  5 72  1  0  0  0  0
  6 35  1  0  0  0  0
  6 71  1  0  0  0  0
  7 34  2  0  0  0  0
  8 18  1  0  0  0  0
  8 77  1  0  0  0  0
  9 37  2  0  0  0  0
 10 38  2  0  0  0  0
 11 40  2  0  0  0  0
 12 19  1  0  0  0  0
 12 25  1  0  0  0  0
 12 49  1  0  0  0  0
 13 20  1  0  0  0  0
 13 24  1  0  0  0  0
 13 50  1  0  0  0  0
 14 27  1  0  0  0  0
 14 32  1  0  0  0  0
 15 29  1  0  0  0  0
 15 34  1  0  0  0  0
 15 63  1  0  0  0  0
 16 28  1  0  0  0  0
 16 38  1  0  0  0  0
 17 30  1  0  0  0  0
 17 37  1  0  0  0  0
 17 68  1  0  0  0  0
 18 36  1  0  0  0  0
 18 40  1  0  0  0  0
 19 21  1  0  0  0  0
 19 24  1  0  0  0  0
 19 41  1  0  0  0  0
 20 22  1  0  0  0  0
 20 25  1  0  0  0  0
 20 42  1  0  0  0  0
 21 23  1  0  0  0  0
 21 43  1  0  0  0  0
 21 44  1  0  0  0  0
 22 26  1  0  0  0  0
 22 45  1  0  0  0  0
 22 46  1  0  0  0  0
 23 27  1  0  0  0  0
 23 47  1  0  0  0  0
 23 48  1  0  0  0  0
 26 28  1  0  0  0  0
 26 51  1  0  0  0  0
 26 52  1  0  0  0  0
 27 53  1  0  0  0  0
 27 54  1  0  0  0  0
 28 55  1  0  0  0  0
 28 56  1  0  0  0  0
 29 32  1  0  0  0  0
 29 35  1  0  0  0  0
 29 57  1  0  0  0  0
 30 31  1  0  0  0  0
 30 34  1  0  0  0  0
 30 58  1  0  0  0  0
 31 33  1  0  0  0  0
 31 59  1  0  0  0  0
 31 60  1  0  0  0  0
 33 36  1  0  0  0  0
 33 61  1  0  0  0  0
 33 62  1  0  0  0  0
 35 64  1  0  0  0  0
 35 65  1  0  0  0  0
 36 66  1  0  0  0  0
 36 67  1  0  0  0  0
 37 39  1  0  0  0  0
 38 70  1  0  0  0  0
 39 73  1  0  0  0  0
 39 74  1  0  0  0  0
 39 75  1  0  0  0  0
 40 76  1  0  0  0  0
M  END
> <PUBCHEM_COMPOUND_CID>
3412

> <PUBCHEM_COMPOUND_CANONICALIZED>
1

> <PUBCHEM_CACTVS_COMPLEXITY>
906

> <PUBCHEM_CACTVS_HBOND_ACCEPTOR>
11

> <PUBCHEM_CACTVS_HBOND_DONOR>
8

> <PUBCHEM_CACTVS_ROTATABLE_BOND>
17

> <PUBCHEM_CACTVS_SUBSKEYS>
AAADcfB7vAAAAAAAAAAAAAAAAAAAAAAAAAAsAAAAAAAAAAAAAAAAHgAUCAAACCjhgAYCAALQAgAIAAEQkAAAAAAAAAAgAIGIAAACUBYAgCAUQAACNgCQAAAYAQAAAAAAAAAAAAAAAAAAAAAAAAAAAAAAAA==

> <PUBCHEM_IUPAC_OPENEYE_NAME>
2-acetamido-5-[formyl(hydroxy)amino]-N-[2-[3-[5-[3-[formyl(hydroxy)amino]propyl]-3,6-dioxo-piperazin-2-yl]propyl-hydroxy-amino]-1-(hydroxymethyl)-2-oxo-ethyl]pentanamide

> <PUBCHEM_IUPAC_CAS_NAME>
2-acetamido-5-[formyl(hydroxy)amino]-N-[1-[3-[5-[3-[formyl(hydroxy)amino]propyl]-3,6-dioxo-2-piperazinyl]propyl-hydroxyamino]-3-hydroxy-1-oxopropan-2-yl]pentanamide

> <PUBCHEM_IUPAC_NAME>
2-acetamido-5-[formyl(hydroxy)amino]-N-[1-[3-[5-[3-[formyl(hydroxy)amino]propyl]-3,6-dioxopiperazin-2-yl]propyl-hydroxyamino]-3-hydroxy-1-oxopropan-2-yl]pentanamide

> <PUBCHEM_IUPAC_SYSTEMATIC_NAME>
2-acetamido-5-[methanoyl(oxidanyl)amino]-N-[1-[3-[5-[3-[methanoyl(oxidanyl)amino]propyl]-3,6-bis(oxidanylidene)piperazin-2-yl]propyl-oxidanyl-amino]-3-oxidanyl-1-oxidanylidene-propan-2-yl]pentanamide

> <PUBCHEM_IUPAC_TRADITIONAL_NAME>
2-acetamido-5-[formyl(hydroxy)amino]-N-[2-[3-[5-[3-[formyl(hydroxy)amino]propyl]-3,6-diketo-piperazin-2-yl]propyl-hydroxy-amino]-2-keto-1-methylol-ethyl]valeramide

> <PUBCHEM_IUPAC_INCHI>
InChI=1S/C22H37N7O11/c1-14(33)23-15(5-2-8-27(38)12-31)19(34)26-18(11-30)22(37)29(40)10-4-7-17-21(36)24-16(20(35)25-17)6-3-9-28(39)13-32/h12-13,15-18,30,38-40H,2-11H2,1H3,(H,23,33)(H,24,36)(H,25,35)(H,26,34)

> <PUBCHEM_IUPAC_INCHIKEY>
IQMHGRIOYXVPSE-UHFFFAOYSA-N

> <PUBCHEM_XLOGP3_AA>
-4

> <PUBCHEM_EXACT_MASS>
575.255105

> <PUBCHEM_MOLECULAR_FORMULA>
C22H37N7O11

> <PUBCHEM_MOLECULAR_WEIGHT>
575.56948

> <PUBCHEM_OPENEYE_CAN_SMILES>
CC(=O)NC(CCCN(C=O)O)C(=O)NC(CO)C(=O)N(CCCC1C(=O)NC(C(=O)N1)CCCN(C=O)O)O

> <PUBCHEM_OPENEYE_ISO_SMILES>
CC(=O)NC(CCCN(C=O)O)C(=O)NC(CO)C(=O)N(CCCC1C(=O)NC(C(=O)N1)CCCN(C=O)O)O

> <PUBCHEM_CACTVS_TPSA>
258

> <PUBCHEM_MONOISOTOPIC_WEIGHT>
575.255105

> <PUBCHEM_TOTAL_CHARGE>
0

> <PUBCHEM_HEAVY_ATOM_COUNT>
40

> <PUBCHEM_ATOM_DEF_STEREO_COUNT>
0

> <PUBCHEM_ATOM_UDEF_STEREO_COUNT>
4

> <PUBCHEM_BOND_DEF_STEREO_COUNT>
0

> <PUBCHEM_BOND_UDEF_STEREO_COUNT>
0

> <PUBCHEM_ISOTOPIC_ATOM_COUNT>
0

> <PUBCHEM_COMPONENT_COUNT>
1

> <PUBCHEM_CACTVS_TAUTO_COUNT>
36

> <PUBCHEM_COORDINATE_TYPE>
1
5
255

> <PUBCHEM_BONDANNOTATIONS>
19  21  3
20  22  3
29  35  3
30  31  3

$$$$

