   Color/Form

     * Pale yellow crystals from isopropanol
     * Yellow-orange, crystalline solid

   from [1]HSDB

   Melting Point
        147-149 deg C
   from [2]HSDB

   pH
        8-10 /Aqueous suspensions/
   from [3]HSDB

   Solubilities
        1 part in about 3300 parts of water at 27 deg C
   from [4]HSDB

   Other Chemical/Physical Properties
        /Oxamniquine/ is structurally similar to hycanthone and
   lucanthone.
   from [5]HSDB

   Computed Properties
   Molecular Weight                  279.33484 [g/mol]
   Molecular Formula                 C[14]H[21]N[3]O[3]
   XLogP3                            2.2
   H-Bond Donor                      3
   H-Bond Acceptor                   5
   Rotatable Bond Count              4
   Exact Mass                        279.158292
   MonoIsotopic Mass                 279.158292
   Topological Polar Surface Area    90.1
   Heavy Atom Count                  20
   Formal Charge                     0
   Complexity                        332
   Isotope Atom Count                0
   Defined Atom Stereocenter Count   0
   Undefined Atom Stereocenter Count 1
   Defined Bond Stereocenter Count   0
   Undefined Bond Stereocenter Count 0
   Covalently-Bonded Unit Count      1
   Feature 3D Acceptor Count         3
   Feature 3D Donor Count            3
   Feature 3D Anion Count            1
   Feature 3D Cation Count           2
   Feature 3D Hydrophobe Count       1
   Feature 3D Ring Count             2
   Effective Rotor Count             5.8
   Conformer Sampling RMSD           0.8
   CID Conformer Count               [6]10

References

   1. http://toxnet.nlm.nih.gov/cgi-bin/sis/search/r?dbs+hsdb:@term+@rn+@rel+21738-42-1
   2. http://toxnet.nlm.nih.gov/cgi-bin/sis/search/r?dbs+hsdb:@term+@rn+@rel+21738-42-1
   3. http://toxnet.nlm.nih.gov/cgi-bin/sis/search/r?dbs+hsdb:@term+@rn+@rel+21738-42-1
   4. http://toxnet.nlm.nih.gov/cgi-bin/sis/search/r?dbs+hsdb:@term+@rn+@rel+21738-42-1
   5. http://toxnet.nlm.nih.gov/cgi-bin/sis/search/r?dbs+hsdb:@term+@rn+@rel+21738-42-1
   6. http://pubchem.ncbi.nlm.nih.gov/vw3d/vw3d.cgi?cid=4612
