   Color/Form
        Viscous liquid
   from [1]HSDB

   Boiling Point
        182-184 deg C at 0.001 mm Hg
   from [2]HSDB

   Corrosivity
        Non-corrosive
   from [3]HSDB

   Solubilities

     * Sol in alcohol, petroleum ether, kerosene, carbon tetrachloride,
       ethylene dichloride, nitromethane.
     * Insoluble in water.

   from [4]HSDB

   Spectral Properties

     * Index of refraction: 1.5183 at 20 deg C/D
     * Specific optical rotation: +16 deg at 16 deg C/D (isooctane)
     * Max absorption: 229 nm (molar extinction coefficient = 28,700
       g-moles/l)

   from [5]HSDB

   Other Chemical/Physical Properties

     * Pale yellow viscous oils (as the crude extracts: dark brown) or tan
       dusts (as ground flowers). /Pyrethrins/
     * Quickly oxidizes in air.

   from [6]HSDB

   Computed Properties
   Molecular Weight                  360.44402 [g/mol]
   Molecular Formula                 C[21]H[28]O[5]
   XLogP3                            4
   H-Bond Donor                      0
   H-Bond Acceptor                   5
   Rotatable Bond Count              8
   Tautomer Count                    5
   Exact Mass                        360.193674
   MonoIsotopic Mass                 360.193674
   Topological Polar Surface Area    69.7
   Heavy Atom Count                  26
   Formal Charge                     0
   Complexity                        708
   Isotope Atom Count                0
   Defined Atom Stereocenter Count   3
   Undefined Atom Stereocenter Count 0
   Defined Bond Stereocenter Count   2
   Undefined Bond Stereocenter Count 0
   Covalently-Bonded Unit Count      1
   Feature 3D Acceptor Count         3
   Feature 3D Hydrophobe Count       3
   Feature 3D Ring Count             1
   Effective Rotor Count             9
   Conformer Sampling RMSD           1
   CID Conformer Count               [7]149

References

   1. http://toxnet.nlm.nih.gov/cgi-bin/sis/search/r?dbs+hsdb:@term+@rn+@rel+121-20-0
   2. http://toxnet.nlm.nih.gov/cgi-bin/sis/search/r?dbs+hsdb:@term+@rn+@rel+121-20-0
   3. http://toxnet.nlm.nih.gov/cgi-bin/sis/search/r?dbs+hsdb:@term+@rn+@rel+121-20-0
   4. http://toxnet.nlm.nih.gov/cgi-bin/sis/search/r?dbs+hsdb:@term+@rn+@rel+121-20-0
   5. http://toxnet.nlm.nih.gov/cgi-bin/sis/search/r?dbs+hsdb:@term+@rn+@rel+121-20-0
   6. http://toxnet.nlm.nih.gov/cgi-bin/sis/search/r?dbs+hsdb:@term+@rn+@rel+121-20-0
   7. http://pubchem.ncbi.nlm.nih.gov/vw3d/vw3d.cgi?cid=5281548
