17395591
  -OEChem-06241222512D

 48 51  0     0  0  0  0  0  0999 V2000
    2.0000    5.8355    0.0000 Br  0  0  0  0  0  0  0  0  0  0  0  0
    4.0020    1.6645    0.0000 S   0  0  0  0  0  0  0  0  0  0  0  0
    2.2700    0.6645    0.0000 O   0  0  0  0  0  0  0  0  0  0  0  0
    3.1360   -0.8355    0.0000 N   0  0  0  0  0  0  0  0  0  0  0  0
    3.1360   -2.8355    0.0000 N   0  0  0  0  0  0  0  0  0  0  0  0
    4.0020   -4.3355    0.0000 N   0  0  0  0  0  0  0  0  0  0  0  0
    4.9726    3.1590    0.0000 N   0  0  0  0  0  0  0  0  0  0  0  0
    5.7816    1.7577    0.0000 N   0  0  0  0  0  0  0  0  0  0  0  0
    4.0020   -1.3355    0.0000 C   0  0  0  0  0  0  0  0  0  0  0  0
    2.2700   -1.3355    0.0000 C   0  0  0  0  0  0  0  0  0  0  0  0
    4.0020   -2.3355    0.0000 C   0  0  0  0  0  0  0  0  0  0  0  0
    2.2700   -2.3355    0.0000 C   0  0  0  0  0  0  0  0  0  0  0  0
    3.1360    0.1645    0.0000 C   0  0  0  0  0  0  0  0  0  0  0  0
    3.1360   -3.8355    0.0000 C   0  0  0  0  0  0  0  0  0  0  0  0
    4.0020    0.6645    0.0000 C   0  0  0  0  0  0  0  0  0  0  0  0
    2.2700   -4.3355    0.0000 C   0  0  0  0  0  0  0  0  0  0  0  0
    2.2700   -5.3355    0.0000 C   0  0  0  0  0  0  0  0  0  0  0  0
    4.8680    2.1645    0.0000 C   0  0  0  0  0  0  0  0  0  0  0  0
    4.0020   -5.3355    0.0000 C   0  0  0  0  0  0  0  0  0  0  0  0
    3.1360   -5.8355    0.0000 C   0  0  0  0  0  0  0  0  0  0  0  0
    4.2294    3.8281    0.0000 C   0  0  0  0  0  0  0  0  0  0  0  0
    5.9507    3.3669    0.0000 C   0  0  0  0  0  0  0  0  0  0  0  0
    6.4507    2.5009    0.0000 C   0  0  0  0  0  0  0  0  0  0  0  0
    4.4374    4.8063    0.0000 C   0  0  0  0  0  0  0  0  0  0  0  0
    3.2784    3.5191    0.0000 C   0  0  0  0  0  0  0  0  0  0  0  0
    3.6942    5.4754    0.0000 C   0  0  0  0  0  0  0  0  0  0  0  0
    2.5352    4.1882    0.0000 C   0  0  0  0  0  0  0  0  0  0  0  0
    2.7431    5.1664    0.0000 C   0  0  0  0  0  0  0  0  0  0  0  0
    2.0579   -0.7529    0.0000 H   0  0  0  0  0  0  0  0  0  0  0  0
    1.6594   -1.4432    0.0000 H   0  0  0  0  0  0  0  0  0  0  0  0
    4.6126   -1.4432    0.0000 H   0  0  0  0  0  0  0  0  0  0  0  0
    4.2141   -0.7529    0.0000 H   0  0  0  0  0  0  0  0  0  0  0  0
    1.6594   -2.2279    0.0000 H   0  0  0  0  0  0  0  0  0  0  0  0
    4.2141   -2.9181    0.0000 H   0  0  0  0  0  0  0  0  0  0  0  0
    4.6126   -2.2279    0.0000 H   0  0  0  0  0  0  0  0  0  0  0  0
    2.0579   -2.9181    0.0000 H   0  0  0  0  0  0  0  0  0  0  0  0
    4.2141    0.0819    0.0000 H   0  0  0  0  0  0  0  0  0  0  0  0
    4.6126    0.7721    0.0000 H   0  0  0  0  0  0  0  0  0  0  0  0
    1.7330   -4.0255    0.0000 H   0  0  0  0  0  0  0  0  0  0  0  0
    1.7330   -5.6455    0.0000 H   0  0  0  0  0  0  0  0  0  0  0  0
    4.5390   -5.6455    0.0000 H   0  0  0  0  0  0  0  0  0  0  0  0
    3.1360   -6.4555    0.0000 H   0  0  0  0  0  0  0  0  0  0  0  0
    6.2029    3.9333    0.0000 H   0  0  0  0  0  0  0  0  0  0  0  0
    7.0673    2.4361    0.0000 H   0  0  0  0  0  0  0  0  0  0  0  0
    5.0270    4.9979    0.0000 H   0  0  0  0  0  0  0  0  0  0  0  0
    3.1495    2.9127    0.0000 H   0  0  0  0  0  0  0  0  0  0  0  0
    3.8231    6.0819    0.0000 H   0  0  0  0  0  0  0  0  0  0  0  0
    1.9456    3.9966    0.0000 H   0  0  0  0  0  0  0  0  0  0  0  0
  1 28  1  0  0  0  0
  2 15  1  0  0  0  0
  2 18  1  0  0  0  0
  3 13  2  0  0  0  0
  4  9  1  0  0  0  0
  4 10  1  0  0  0  0
  4 13  1  0  0  0  0
  5 11  1  0  0  0  0
  5 12  1  0  0  0  0
  5 14  1  0  0  0  0
  6 14  1  0  0  0  0
  6 19  2  0  0  0  0
  7 18  1  0  0  0  0
  7 21  1  0  0  0  0
  7 22  1  0  0  0  0
  8 18  2  0  0  0  0
  8 23  1  0  0  0  0
  9 11  1  0  0  0  0
  9 31  1  0  0  0  0
  9 32  1  0  0  0  0
 10 12  1  0  0  0  0
 10 29  1  0  0  0  0
 10 30  1  0  0  0  0
 11 34  1  0  0  0  0
 11 35  1  0  0  0  0
 12 33  1  0  0  0  0
 12 36  1  0  0  0  0
 13 15  1  0  0  0  0
 14 16  2  0  0  0  0
 15 37  1  0  0  0  0
 15 38  1  0  0  0  0
 16 17  1  0  0  0  0
 16 39  1  0  0  0  0
 17 20  2  0  0  0  0
 17 40  1  0  0  0  0
 19 20  1  0  0  0  0
 19 41  1  0  0  0  0
 20 42  1  0  0  0  0
 21 24  2  0  0  0  0
 21 25  1  0  0  0  0
 22 23  2  0  0  0  0
 22 43  1  0  0  0  0
 23 44  1  0  0  0  0
 24 26  1  0  0  0  0
 24 45  1  0  0  0  0
 25 27  2  0  0  0  0
 25 46  1  0  0  0  0
 26 28  2  0  0  0  0
 26 47  1  0  0  0  0
 27 28  1  0  0  0  0
 27 48  1  0  0  0  0
M  END
> <PUBCHEM_COMPOUND_CID>
17395591

> <PUBCHEM_COMPOUND_CANONICALIZED>
1

> <PUBCHEM_CACTVS_COMPLEXITY>
511

> <PUBCHEM_CACTVS_HBOND_ACCEPTOR>
5

> <PUBCHEM_CACTVS_HBOND_DONOR>
0

> <PUBCHEM_CACTVS_ROTATABLE_BOND>
5

> <PUBCHEM_CACTVS_SUBSKEYS>
AAADceB7oABAEAAAAAAAAAAAAAAAAWAAAAA8WIAAAAAAAAAB8AAAHgRAAAABqAjF0gS98JcMEAioADd3dACC0C1xErQJ2CA4dLiIaOLAmZGUIAhohgLIyjcQAAAAAAAgAAAAAAAAAEAAAAAAAAAAAAAAAA==

> <PUBCHEM_IUPAC_OPENEYE_NAME>
2-[1-(4-bromophenyl)imidazol-2-yl]sulfanyl-1-[4-(2-pyridyl)piperazin-1-yl]ethanone

> <PUBCHEM_IUPAC_CAS_NAME>
2-[[1-(4-bromophenyl)-2-imidazolyl]thio]-1-[4-(2-pyridinyl)-1-piperazinyl]ethanone

> <PUBCHEM_IUPAC_NAME>
2-[1-(4-bromophenyl)imidazol-2-yl]sulfanyl-1-(4-pyridin-2-ylpiperazin-1-yl)ethanone

> <PUBCHEM_IUPAC_SYSTEMATIC_NAME>
2-[1-(4-bromophenyl)imidazol-2-yl]sulfanyl-1-(4-pyridin-2-ylpiperazin-1-yl)ethanone

> <PUBCHEM_IUPAC_TRADITIONAL_NAME>
2-[[1-(4-bromophenyl)imidazol-2-yl]thio]-1-[4-(2-pyridyl)piperazino]ethanone

> <PUBCHEM_IUPAC_INCHI>
InChI=1S/C20H20BrN5OS/c21-16-4-6-17(7-5-16)26-10-9-23-20(26)28-15-19(27)25-13-11-24(12-14-25)18-3-1-2-8-22-18/h1-10H,11-15H2

> <PUBCHEM_IUPAC_INCHIKEY>
XVENFBHLTOVNGY-UHFFFAOYSA-N

> <PUBCHEM_XLOGP3_AA>
3.6

> <PUBCHEM_EXACT_MASS>
457.057193

> <PUBCHEM_MOLECULAR_FORMULA>
C20H20BrN5OS

> <PUBCHEM_MOLECULAR_WEIGHT>
458.3747

> <PUBCHEM_OPENEYE_CAN_SMILES>
C1CN(CCN1C2=CC=CC=N2)C(=O)CSC3=NC=CN3C4=CC=C(C=C4)Br

> <PUBCHEM_OPENEYE_ISO_SMILES>
C1CN(CCN1C2=CC=CC=N2)C(=O)CSC3=NC=CN3C4=CC=C(C=C4)Br

> <PUBCHEM_CACTVS_TPSA>
79.6

> <PUBCHEM_MONOISOTOPIC_WEIGHT>
457.057193

> <PUBCHEM_TOTAL_CHARGE>
0

> <PUBCHEM_HEAVY_ATOM_COUNT>
28

> <PUBCHEM_ATOM_DEF_STEREO_COUNT>
0

> <PUBCHEM_ATOM_UDEF_STEREO_COUNT>
0

> <PUBCHEM_BOND_DEF_STEREO_COUNT>
0

> <PUBCHEM_BOND_UDEF_STEREO_COUNT>
0

> <PUBCHEM_ISOTOPIC_ATOM_COUNT>
0

> <PUBCHEM_COMPONENT_COUNT>
1

> <PUBCHEM_CACTVS_TAUTO_COUNT>
1

> <PUBCHEM_COORDINATE_TYPE>
1
5
255

> <PUBCHEM_BONDANNOTATIONS>
14  16  8
16  17  8
17  20  8
19  20  8
21  24  8
21  25  8
22  23  8
24  26  8
25  27  8
26  28  8
27  28  8
6  14  8
6  19  8
7  18  8
7  22  8
8  18  8
8  23  8

$$$$

