13966
  -OEChem-06241222412D

 46 46  0     0  0  0  0  0  0999 V2000
    8.2700    5.3700    0.0000 Cl  0  5  0  0  0  0  0  0  0  0  0  0
    3.1350    3.6200    0.0000 O   0  0  0  0  0  0  0  0  0  0  0  0
    3.1350    7.6200    0.0000 O   0  0  0  0  0  0  0  0  0  0  0  0
    3.1350    5.6200    0.0000 N   0  3  0  0  0  0  0  0  0  0  0  0
    1.4030    3.6200    0.0000 N   0  0  0  0  0  0  0  0  0  0  0  0
    4.8671    7.6200    0.0000 N   0  0  0  0  0  0  0  0  0  0  0  0
    2.2690    5.1200    0.0000 C   0  0  0  0  0  0  0  0  0  0  0  0
    4.0010    6.1200    0.0000 C   0  0  0  0  0  0  0  0  0  0  0  0
    2.6350    6.4860    0.0000 C   0  0  0  0  0  0  0  0  0  0  0  0
    3.6350    4.7540    0.0000 C   0  0  0  0  0  0  0  0  0  0  0  0
    2.2690    4.1200    0.0000 C   0  0  0  0  0  0  0  0  0  0  0  0
    4.0010    7.1200    0.0000 C   0  0  0  0  0  0  0  0  0  0  0  0
    1.4030    2.6200    0.0000 C   0  0  0  0  0  0  0  0  0  0  0  0
    4.8671    8.6200    0.0000 C   0  0  0  0  0  0  0  0  0  0  0  0
    0.5369    2.1200    0.0000 C   0  0  0  0  0  0  0  0  0  0  0  0
    4.0010    9.1200    0.0000 C   0  0  0  0  0  0  0  0  0  0  0  0
    2.2690    2.1200    0.0000 C   0  0  0  0  0  0  0  0  0  0  0  0
    5.7331    9.1200    0.0000 C   0  0  0  0  0  0  0  0  0  0  0  0
    0.5369    1.1200    0.0000 C   0  0  0  0  0  0  0  0  0  0  0  0
    4.0010   10.1200    0.0000 C   0  0  0  0  0  0  0  0  0  0  0  0
    2.2690    1.1200    0.0000 C   0  0  0  0  0  0  0  0  0  0  0  0
    5.7331   10.1200    0.0000 C   0  0  0  0  0  0  0  0  0  0  0  0
    1.4030    0.6200    0.0000 C   0  0  0  0  0  0  0  0  0  0  0  0
    4.8671   10.6200    0.0000 C   0  0  0  0  0  0  0  0  0  0  0  0
    2.0569    5.7026    0.0000 H   0  0  0  0  0  0  0  0  0  0  0  0
    1.6584    5.0123    0.0000 H   0  0  0  0  0  0  0  0  0  0  0  0
    4.2131    5.5374    0.0000 H   0  0  0  0  0  0  0  0  0  0  0  0
    4.6116    6.2277    0.0000 H   0  0  0  0  0  0  0  0  0  0  0  0
    3.1720    6.7960    0.0000 H   0  0  0  0  0  0  0  0  0  0  0  0
    2.3250    7.0230    0.0000 H   0  0  0  0  0  0  0  0  0  0  0  0
    3.0981    4.4440    0.0000 H   0  0  0  0  0  0  0  0  0  0  0  0
    3.9450    4.2170    0.0000 H   0  0  0  0  0  0  0  0  0  0  0  0
    4.1720    5.0640    0.0000 H   0  0  0  0  0  0  0  0  0  0  0  0
    2.0981    6.1760    0.0000 H   0  0  0  0  0  0  0  0  0  0  0  0
    0.8660    3.9300    0.0000 H   0  0  0  0  0  0  0  0  0  0  0  0
    5.4040    7.3100    0.0000 H   0  0  0  0  0  0  0  0  0  0  0  0
    3.4641    8.8100    0.0000 H   0  0  0  0  0  0  0  0  0  0  0  0
    0.0000    2.4300    0.0000 H   0  0  0  0  0  0  0  0  0  0  0  0
    6.2700    8.8100    0.0000 H   0  0  0  0  0  0  0  0  0  0  0  0
    2.8059    2.4300    0.0000 H   0  0  0  0  0  0  0  0  0  0  0  0
    3.4641   10.4300    0.0000 H   0  0  0  0  0  0  0  0  0  0  0  0
    0.0000    0.8100    0.0000 H   0  0  0  0  0  0  0  0  0  0  0  0
    6.2700   10.4300    0.0000 H   0  0  0  0  0  0  0  0  0  0  0  0
    2.8059    0.8100    0.0000 H   0  0  0  0  0  0  0  0  0  0  0  0
    1.4030    0.0000    0.0000 H   0  0  0  0  0  0  0  0  0  0  0  0
    4.8671   11.2400    0.0000 H   0  0  0  0  0  0  0  0  0  0  0  0
  2 11  2  0  0  0  0
  3 12  2  0  0  0  0
  4  7  1  0  0  0  0
  4  8  1  0  0  0  0
  4  9  1  0  0  0  0
  4 10  1  0  0  0  0
  5 11  1  0  0  0  0
  5 13  1  0  0  0  0
  5 35  1  0  0  0  0
  6 12  1  0  0  0  0
  6 14  1  0  0  0  0
  6 36  1  0  0  0  0
  7 11  1  0  0  0  0
  7 25  1  0  0  0  0
  7 26  1  0  0  0  0
  8 12  1  0  0  0  0
  8 27  1  0  0  0  0
  8 28  1  0  0  0  0
  9 29  1  0  0  0  0
  9 30  1  0  0  0  0
  9 34  1  0  0  0  0
 10 31  1  0  0  0  0
 10 32  1  0  0  0  0
 10 33  1  0  0  0  0
 13 15  2  0  0  0  0
 13 17  1  0  0  0  0
 14 16  2  0  0  0  0
 14 18  1  0  0  0  0
 15 19  1  0  0  0  0
 15 38  1  0  0  0  0
 16 20  1  0  0  0  0
 16 37  1  0  0  0  0
 17 21  2  0  0  0  0
 17 40  1  0  0  0  0
 18 22  2  0  0  0  0
 18 39  1  0  0  0  0
 19 23  2  0  0  0  0
 19 42  1  0  0  0  0
 20 24  2  0  0  0  0
 20 41  1  0  0  0  0
 21 23  1  0  0  0  0
 21 44  1  0  0  0  0
 22 24  1  0  0  0  0
 22 43  1  0  0  0  0
 23 45  1  0  0  0  0
 24 46  1  0  0  0  0
M  CHG  2   1  -1   4   1
M  END
> <PUBCHEM_COMPOUND_CID>
13966

> <PUBCHEM_COMPOUND_CANONICALIZED>
1

> <PUBCHEM_CACTVS_COMPLEXITY>
361

> <PUBCHEM_CACTVS_HBOND_ACCEPTOR>
3

> <PUBCHEM_CACTVS_HBOND_DONOR>
2

> <PUBCHEM_CACTVS_ROTATABLE_BOND>
6

> <PUBCHEM_CACTVS_SUBSKEYS>
AAADceB7MAAEAAAAAAAAAAAAAAAAAAAAAAAwYAAAAAAAAAABQAAAHgAQAAAACAjBkAQywIPAAACIACVSUACCAAAhAgAIiACIZIgIYCLAkbGUIAhglADIyAcQAAAAAAAAAAAAAAAAAAAAAAAAAAAAAAAAAA==

> <PUBCHEM_IUPAC_OPENEYE_NAME>
bis(2-anilino-2-oxo-ethyl)-dimethyl-ammonium chloride

> <PUBCHEM_IUPAC_CAS_NAME>
bis(2-anilino-2-oxoethyl)-dimethylammonium chloride

> <PUBCHEM_IUPAC_NAME>
bis(2-anilino-2-oxoethyl)-dimethylazanium chloride

> <PUBCHEM_IUPAC_SYSTEMATIC_NAME>
dimethyl-bis(2-oxidanylidene-2-phenylazanyl-ethyl)azanium chloride

> <PUBCHEM_IUPAC_TRADITIONAL_NAME>
bis(2-anilino-2-keto-ethyl)-dimethyl-ammonium chloride

> <PUBCHEM_IUPAC_INCHI>
InChI=1S/C18H21N3O2.ClH/c1-21(2,13-17(22)19-15-9-5-3-6-10-15)14-18(23)20-16-11-7-4-8-12-16;/h3-12H,13-14H2,1-2H3,(H-,19,20,22,23);1H

> <PUBCHEM_IUPAC_INCHIKEY>
YGCONRRHHMKQRL-UHFFFAOYSA-N

> <PUBCHEM_EXACT_MASS>
347.140055

> <PUBCHEM_MOLECULAR_FORMULA>
C18H22ClN3O2

> <PUBCHEM_MOLECULAR_WEIGHT>
347.83918

> <PUBCHEM_OPENEYE_CAN_SMILES>
C[N+](C)(CC(=O)NC1=CC=CC=C1)CC(=O)NC2=CC=CC=C2.[Cl-]

> <PUBCHEM_OPENEYE_ISO_SMILES>
C[N+](C)(CC(=O)NC1=CC=CC=C1)CC(=O)NC2=CC=CC=C2.[Cl-]

> <PUBCHEM_CACTVS_TPSA>
58.2

> <PUBCHEM_MONOISOTOPIC_WEIGHT>
347.140055

> <PUBCHEM_TOTAL_CHARGE>
0

> <PUBCHEM_HEAVY_ATOM_COUNT>
24

> <PUBCHEM_ATOM_DEF_STEREO_COUNT>
0

> <PUBCHEM_ATOM_UDEF_STEREO_COUNT>
0

> <PUBCHEM_BOND_DEF_STEREO_COUNT>
0

> <PUBCHEM_BOND_UDEF_STEREO_COUNT>
0

> <PUBCHEM_ISOTOPIC_ATOM_COUNT>
0

> <PUBCHEM_COMPONENT_COUNT>
2

> <PUBCHEM_CACTVS_TAUTO_COUNT>
6

> <PUBCHEM_COORDINATE_TYPE>
1
5
255

> <PUBCHEM_BONDANNOTATIONS>
13  15  8
13  17  8
14  16  8
14  18  8
15  19  8
16  20  8
17  21  8
18  22  8
19  23  8
20  24  8
21  23  8
22  24  8

$$$$

