56206
  -OEChem-07051213012D

 48 51  0     0  0  0  0  0  0999 V2000
    8.6651    2.5242    0.0000 F   0  0  0  0  0  0  0  0  0  0  0  0
    5.1350   -3.5000    0.0000 F   0  0  0  0  0  0  0  0  0  0  0  0
    5.1350    3.5000    0.0000 O   0  0  0  0  0  0  0  0  0  0  0  0
    2.5369    2.0000    0.0000 O   0  0  0  0  0  0  0  0  0  0  0  0
    3.4030    3.5000    0.0000 O   0  0  0  0  0  0  0  0  0  0  0  0
    8.6651    0.4758    0.0000 N   0  0  0  0  0  0  0  0  0  0  0  0
   10.3933   -0.5308    0.0000 N   0  0  0  0  0  0  0  0  0  0  0  0
    5.1350    0.5000    0.0000 N   0  0  0  0  0  0  0  0  0  0  0  0
    8.6613   -0.5241    0.0000 C   0  0  0  0  0  0  0  0  0  0  0  0
    9.5331    0.9725    0.0000 C   0  0  0  0  0  0  0  0  0  0  0  0
    9.5254   -1.0275    0.0000 C   0  0  0  0  0  0  0  0  0  0  0  0
   10.3972    0.4692    0.0000 C   0  0  0  0  0  0  0  0  0  0  0  0
    7.8010    0.9792    0.0000 C   0  0  0  0  0  0  0  0  0  0  0  0
    6.8950    0.4653    0.0000 C   0  0  0  0  0  0  0  0  0  0  0  0
    6.0010    1.0000    0.0000 C   0  0  0  0  0  0  0  0  0  0  0  0
   11.2574   -1.0341    0.0000 C   0  0  0  0  0  0  0  0  0  0  0  0
    7.8010    2.0208    0.0000 C   0  0  0  0  0  0  0  0  0  0  0  0
    6.0010    2.0000    0.0000 C   0  0  0  0  0  0  0  0  0  0  0  0
    6.8950    2.5347    0.0000 C   0  0  0  0  0  0  0  0  0  0  0  0
    5.1350    2.5000    0.0000 C   0  0  0  0  0  0  0  0  0  0  0  0
    4.2690    1.0000    0.0000 C   0  0  0  0  0  0  0  0  0  0  0  0
    4.2690    2.0000    0.0000 C   0  0  0  0  0  0  0  0  0  0  0  0
    5.1350   -0.5000    0.0000 C   0  0  0  0  0  0  0  0  0  0  0  0
    4.2690   -1.0000    0.0000 C   0  0  0  0  0  0  0  0  0  0  0  0
    6.0010   -1.0000    0.0000 C   0  0  0  0  0  0  0  0  0  0  0  0
    3.4030    2.5000    0.0000 C   0  0  0  0  0  0  0  0  0  0  0  0
    4.2690   -2.0000    0.0000 C   0  0  0  0  0  0  0  0  0  0  0  0
    6.0010   -2.0000    0.0000 C   0  0  0  0  0  0  0  0  0  0  0  0
    5.1350   -2.5000    0.0000 C   0  0  0  0  0  0  0  0  0  0  0  0
    8.0511   -0.4141    0.0000 H   0  0  0  0  0  0  0  0  0  0  0  0
    8.4470   -1.1059    0.0000 H   0  0  0  0  0  0  0  0  0  0  0  0
    9.9334    1.4459    0.0000 H   0  0  0  0  0  0  0  0  0  0  0  0
    9.1364    1.4490    0.0000 H   0  0  0  0  0  0  0  0  0  0  0  0
    9.1250   -1.5009    0.0000 H   0  0  0  0  0  0  0  0  0  0  0  0
    9.9221   -1.5040    0.0000 H   0  0  0  0  0  0  0  0  0  0  0  0
   11.0073    0.3592    0.0000 H   0  0  0  0  0  0  0  0  0  0  0  0
   10.6115    1.0510    0.0000 H   0  0  0  0  0  0  0  0  0  0  0  0
    6.8878   -0.1546    0.0000 H   0  0  0  0  0  0  0  0  0  0  0  0
   10.9453   -1.5699    0.0000 H   0  0  0  0  0  0  0  0  0  0  0  0
   11.7931   -1.3462    0.0000 H   0  0  0  0  0  0  0  0  0  0  0  0
   11.5695   -0.4984    0.0000 H   0  0  0  0  0  0  0  0  0  0  0  0
    6.8878    3.1546    0.0000 H   0  0  0  0  0  0  0  0  0  0  0  0
    3.7320    0.6900    0.0000 H   0  0  0  0  0  0  0  0  0  0  0  0
    3.7320   -0.6900    0.0000 H   0  0  0  0  0  0  0  0  0  0  0  0
    6.5380   -0.6900    0.0000 H   0  0  0  0  0  0  0  0  0  0  0  0
    3.7320   -2.3100    0.0000 H   0  0  0  0  0  0  0  0  0  0  0  0
    6.5380   -2.3100    0.0000 H   0  0  0  0  0  0  0  0  0  0  0  0
    2.0000    2.3100    0.0000 H   0  0  0  0  0  0  0  0  0  0  0  0
  1 17  1  0  0  0  0
  2 29  1  0  0  0  0
  3 20  2  0  0  0  0
  4 26  1  0  0  0  0
  4 48  1  0  0  0  0
  5 26  2  0  0  0  0
  6  9  1  0  0  0  0
  6 10  1  0  0  0  0
  6 13  1  0  0  0  0
  7 11  1  0  0  0  0
  7 12  1  0  0  0  0
  7 16  1  0  0  0  0
  8 15  1  0  0  0  0
  8 21  1  0  0  0  0
  8 23  1  0  0  0  0
  9 11  1  0  0  0  0
  9 30  1  0  0  0  0
  9 31  1  0  0  0  0
 10 12  1  0  0  0  0
 10 32  1  0  0  0  0
 10 33  1  0  0  0  0
 11 34  1  0  0  0  0
 11 35  1  0  0  0  0
 12 36  1  0  0  0  0
 12 37  1  0  0  0  0
 13 14  1  0  0  0  0
 13 17  2  0  0  0  0
 14 15  2  0  0  0  0
 14 38  1  0  0  0  0
 15 18  1  0  0  0  0
 16 39  1  0  0  0  0
 16 40  1  0  0  0  0
 16 41  1  0  0  0  0
 17 19  1  0  0  0  0
 18 19  2  0  0  0  0
 18 20  1  0  0  0  0
 19 42  1  0  0  0  0
 20 22  1  0  0  0  0
 21 22  2  0  0  0  0
 21 43  1  0  0  0  0
 22 26  1  0  0  0  0
 23 24  2  0  0  0  0
 23 25  1  0  0  0  0
 24 27  1  0  0  0  0
 24 44  1  0  0  0  0
 25 28  2  0  0  0  0
 25 45  1  0  0  0  0
 27 29  2  0  0  0  0
 27 46  1  0  0  0  0
 28 29  1  0  0  0  0
 28 47  1  0  0  0  0
M  END
> <PUBCHEM_COMPOUND_CID>
56206

> <PUBCHEM_COMPOUND_CANONICALIZED>
1

> <PUBCHEM_CACTVS_COMPLEXITY>
672

> <PUBCHEM_CACTVS_HBOND_ACCEPTOR>
8

> <PUBCHEM_CACTVS_HBOND_DONOR>
1

> <PUBCHEM_CACTVS_ROTATABLE_BOND>
3

> <PUBCHEM_CACTVS_SUBSKEYS>
AAADceB7MYAAAAAAAAAAAAAAAAAAAAAAAAA8YIEAAAAAAACBQAAAHwAACAAADAzBmAwyyIMAAgCIAqTWSACCAAAlAgAIiAEIZMgIZH7I1dGUYYhkoADI2ceY2aOeCAAAAAQCAAAQAAAACAQAAAAAAAAAAA==

> <PUBCHEM_IUPAC_OPENEYE_NAME>
6-fluoro-1-(4-fluorophenyl)-7-(4-methylpiperazin-1-yl)-4-oxo-quinoline-3-carboxylic acid

> <PUBCHEM_IUPAC_CAS_NAME>
6-fluoro-1-(4-fluorophenyl)-7-(4-methyl-1-piperazinyl)-4-oxo-3-quinolinecarboxylic acid

> <PUBCHEM_IUPAC_NAME>
6-fluoro-1-(4-fluorophenyl)-7-(4-methylpiperazin-1-yl)-4-oxoquinoline-3-carboxylic acid

> <PUBCHEM_IUPAC_SYSTEMATIC_NAME>
6-fluoranyl-1-(4-fluorophenyl)-7-(4-methylpiperazin-1-yl)-4-oxidanylidene-quinoline-3-carboxylic acid

> <PUBCHEM_IUPAC_TRADITIONAL_NAME>
6-fluoro-1-(4-fluorophenyl)-4-keto-7-(4-methylpiperazino)quinoline-3-carboxylic acid

> <PUBCHEM_IUPAC_INCHI>
InChI=1S/C21H19F2N3O3/c1-24-6-8-25(9-7-24)19-11-18-15(10-17(19)23)20(27)16(21(28)29)12-26(18)14-4-2-13(22)3-5-14/h2-5,10-12H,6-9H2,1H3,(H,28,29)

> <PUBCHEM_IUPAC_INCHIKEY>
NOCJXYPHIIZEHN-UHFFFAOYSA-N

> <PUBCHEM_XLOGP3>
1.6

> <PUBCHEM_EXACT_MASS>
399.139448

> <PUBCHEM_MOLECULAR_FORMULA>
C21H19F2N3O3

> <PUBCHEM_MOLECULAR_WEIGHT>
399.390666

> <PUBCHEM_OPENEYE_CAN_SMILES>
CN1CCN(CC1)C2=C(C=C3C(=C2)N(C=C(C3=O)C(=O)O)C4=CC=C(C=C4)F)F

> <PUBCHEM_OPENEYE_ISO_SMILES>
CN1CCN(CC1)C2=C(C=C3C(=C2)N(C=C(C3=O)C(=O)O)C4=CC=C(C=C4)F)F

> <PUBCHEM_CACTVS_TPSA>
64.1

> <PUBCHEM_MONOISOTOPIC_WEIGHT>
399.139448

> <PUBCHEM_TOTAL_CHARGE>
0

> <PUBCHEM_HEAVY_ATOM_COUNT>
29

> <PUBCHEM_ATOM_DEF_STEREO_COUNT>
0

> <PUBCHEM_ATOM_UDEF_STEREO_COUNT>
0

> <PUBCHEM_BOND_DEF_STEREO_COUNT>
0

> <PUBCHEM_BOND_UDEF_STEREO_COUNT>
0

> <PUBCHEM_ISOTOPIC_ATOM_COUNT>
0

> <PUBCHEM_COMPONENT_COUNT>
1

> <PUBCHEM_CACTVS_TAUTO_COUNT>
1

> <PUBCHEM_COORDINATE_TYPE>
1
5
255

> <PUBCHEM_BONDANNOTATIONS>
13  14  8
13  17  8
14  15  8
15  18  8
17  19  8
18  19  8
18  20  8
20  22  8
21  22  8
23  24  8
23  25  8
24  27  8
25  28  8
27  29  8
28  29  8
8  15  8
8  21  8

$$$$

