17396084
  -OEChem-06241222542D

 51 53  0     1  0  0  0  0  0999 V2000
    4.6783    3.1713    0.0000 S   0  0  0  0  0  0  0  0  0  0  0  0
    8.7619    1.5005    0.0000 O   0  0  0  0  0  0  0  0  0  0  0  0
    9.7619   -1.9636    0.0000 O   0  0  0  0  0  0  0  0  0  0  0  0
   11.2619   -2.8296    0.0000 O   0  0  0  0  0  0  0  0  0  0  0  0
    4.6783    1.5618    0.0000 N   0  0  0  0  0  0  0  0  0  0  0  0
    8.7619   -0.2315    0.0000 N   0  0  0  0  0  0  0  0  0  0  0  0
    9.7619   -0.2315    0.0000 N   0  0  0  0  0  0  0  0  0  0  0  0
    6.7619    1.5005    0.0000 C   0  0  3  0  0  0  0  0  0  0  0  0
    6.2619    2.3665    0.0000 C   0  0  0  0  0  0  0  0  0  0  0  0
    7.6279    2.0005    0.0000 C   0  0  0  0  0  0  0  0  0  0  0  0
    7.2619    0.6345    0.0000 C   0  0  0  0  0  0  0  0  0  0  0  0
    5.8958    1.0005    0.0000 C   0  0  0  0  0  0  0  0  0  0  0  0
    5.2619    2.3665    0.0000 C   0  0  0  0  0  0  0  0  0  0  0  0
    7.6279    3.0005    0.0000 C   0  0  0  0  0  0  0  0  0  0  0  0
    8.2619    0.6345    0.0000 C   0  0  0  0  0  0  0  0  0  0  0  0
    3.7320    2.8665    0.0000 C   0  0  0  0  0  0  0  0  0  0  0  0
    3.7320    1.8665    0.0000 C   0  0  0  0  0  0  0  0  0  0  0  0
    2.8660    3.3665    0.0000 C   0  0  0  0  0  0  0  0  0  0  0  0
    2.8660    1.3665    0.0000 C   0  0  0  0  0  0  0  0  0  0  0  0
    2.0000    2.8665    0.0000 C   0  0  0  0  0  0  0  0  0  0  0  0
    2.0000    1.8665    0.0000 C   0  0  0  0  0  0  0  0  0  0  0  0
   10.2619   -1.0976    0.0000 C   0  0  0  0  0  0  0  0  0  0  0  0
   11.2619   -1.0976    0.0000 C   0  0  0  0  0  0  0  0  0  0  0  0
   11.7619   -1.9636    0.0000 C   0  0  0  0  0  0  0  0  0  0  0  0
   11.7619   -0.2315    0.0000 C   0  0  0  0  0  0  0  0  0  0  0  0
   12.7619   -1.9636    0.0000 C   0  0  0  0  0  0  0  0  0  0  0  0
   12.7619   -0.2315    0.0000 C   0  0  0  0  0  0  0  0  0  0  0  0
   13.2619   -1.0976    0.0000 C   0  0  0  0  0  0  0  0  0  0  0  0
    6.8445    2.5786    0.0000 H   0  0  0  0  0  0  0  0  0  0  0  0
    6.1542    2.9771    0.0000 H   0  0  0  0  0  0  0  0  0  0  0  0
    7.8400    1.4179    0.0000 H   0  0  0  0  0  0  0  0  0  0  0  0
    8.2385    2.1082    0.0000 H   0  0  0  0  0  0  0  0  0  0  0  0
    6.6793    0.4224    0.0000 H   0  0  0  0  0  0  0  0  0  0  0  0
    7.3695    0.0239    0.0000 H   0  0  0  0  0  0  0  0  0  0  0  0
    5.5858    1.5374    0.0000 H   0  0  0  0  0  0  0  0  0  0  0  0
    5.3589    0.6905    0.0000 H   0  0  0  0  0  0  0  0  0  0  0  0
    6.2058    0.4636    0.0000 H   0  0  0  0  0  0  0  0  0  0  0  0
    8.2479    3.0005    0.0000 H   0  0  0  0  0  0  0  0  0  0  0  0
    7.6279    3.6205    0.0000 H   0  0  0  0  0  0  0  0  0  0  0  0
    7.0079    3.0005    0.0000 H   0  0  0  0  0  0  0  0  0  0  0  0
    8.4519   -0.7685    0.0000 H   0  0  0  0  0  0  0  0  0  0  0  0
    2.8660    3.9865    0.0000 H   0  0  0  0  0  0  0  0  0  0  0  0
    2.8660    0.7465    0.0000 H   0  0  0  0  0  0  0  0  0  0  0  0
   10.0719    0.3054    0.0000 H   0  0  0  0  0  0  0  0  0  0  0  0
    1.4631    3.1765    0.0000 H   0  0  0  0  0  0  0  0  0  0  0  0
    1.4631    1.5565    0.0000 H   0  0  0  0  0  0  0  0  0  0  0  0
   11.4519    0.3054    0.0000 H   0  0  0  0  0  0  0  0  0  0  0  0
   13.0719   -2.5005    0.0000 H   0  0  0  0  0  0  0  0  0  0  0  0
   13.0719    0.3054    0.0000 H   0  0  0  0  0  0  0  0  0  0  0  0
   13.8819   -1.0976    0.0000 H   0  0  0  0  0  0  0  0  0  0  0  0
   11.5719   -3.3665    0.0000 H   0  0  0  0  0  0  0  0  0  0  0  0
  1 13  1  0  0  0  0
  1 16  1  0  0  0  0
  2 15  2  0  0  0  0
  3 22  2  0  0  0  0
  4 24  1  0  0  0  0
  4 51  1  0  0  0  0
  5 13  2  0  0  0  0
  5 17  1  0  0  0  0
  6  7  1  0  0  0  0
  6 15  1  0  0  0  0
  6 41  1  0  0  0  0
  7 22  1  0  0  0  0
  7 44  1  0  0  0  0
  8  9  1  0  0  0  0
  8 10  1  0  0  0  0
  8 11  1  0  0  0  0
  8 12  1  0  0  0  0
  9 13  1  0  0  0  0
  9 29  1  0  0  0  0
  9 30  1  0  0  0  0
 10 14  1  0  0  0  0
 10 31  1  0  0  0  0
 10 32  1  0  0  0  0
 11 15  1  0  0  0  0
 11 33  1  0  0  0  0
 11 34  1  0  0  0  0
 12 35  1  0  0  0  0
 12 36  1  0  0  0  0
 12 37  1  0  0  0  0
 14 38  1  0  0  0  0
 14 39  1  0  0  0  0
 14 40  1  0  0  0  0
 16 17  1  0  0  0  0
 16 18  2  0  0  0  0
 17 19  2  0  0  0  0
 18 20  1  0  0  0  0
 18 42  1  0  0  0  0
 19 21  1  0  0  0  0
 19 43  1  0  0  0  0
 20 21  2  0  0  0  0
 20 45  1  0  0  0  0
 21 46  1  0  0  0  0
 22 23  1  0  0  0  0
 23 24  1  0  0  0  0
 23 25  2  0  0  0  0
 24 26  2  0  0  0  0
 25 27  1  0  0  0  0
 25 47  1  0  0  0  0
 26 28  1  0  0  0  0
 26 48  1  0  0  0  0
 27 28  2  0  0  0  0
 27 49  1  0  0  0  0
 28 50  1  0  0  0  0
M  END
> <PUBCHEM_COMPOUND_CID>
17396084

> <PUBCHEM_COMPOUND_CANONICALIZED>
1

> <PUBCHEM_CACTVS_COMPLEXITY>
561

> <PUBCHEM_CACTVS_HBOND_ACCEPTOR>
5

> <PUBCHEM_CACTVS_HBOND_DONOR>
3

> <PUBCHEM_CACTVS_ROTATABLE_BOND>
6

> <PUBCHEM_CACTVS_SUBSKEYS>
AAADceB7MABAAAAAAAAAAAAAAAAAAWAAAAAwYAAAAAAAAFgB9AAAHgQYCAAADgyB3gAyx7JqEgisAyVyVACD8KBlKjpauD02bNgIJrbilZOEcUhm8BHo2YeYySCPAAAAAAAIAQAAAAAAABACAAAAAAAAAA==

> <PUBCHEM_IUPAC_OPENEYE_NAME>
N'-[3-(1,3-benzothiazol-2-ylmethyl)-3-methyl-pentanoyl]-2-hydroxy-benzohydrazide

> <PUBCHEM_IUPAC_CAS_NAME>
N'-[3-(1,3-benzothiazol-2-ylmethyl)-3-methyl-1-oxopentyl]-2-hydroxybenzohydrazide

> <PUBCHEM_IUPAC_NAME>
N'-[3-(1,3-benzothiazol-2-ylmethyl)-3-methylpentanoyl]-2-hydroxybenzohydrazide

> <PUBCHEM_IUPAC_SYSTEMATIC_NAME>
N'-[3-(1,3-benzothiazol-2-ylmethyl)-3-methyl-pentanoyl]-2-oxidanyl-benzohydrazide

> <PUBCHEM_IUPAC_TRADITIONAL_NAME>
N'-[3-(1,3-benzothiazol-2-ylmethyl)-3-methyl-pentanoyl]-2-hydroxy-benzohydrazide

> <PUBCHEM_IUPAC_INCHI>
InChI=1S/C21H23N3O3S/c1-3-21(2,13-19-22-15-9-5-7-11-17(15)28-19)12-18(26)23-24-20(27)14-8-4-6-10-16(14)25/h4-11,25H,3,12-13H2,1-2H3,(H,23,26)(H,24,27)

> <PUBCHEM_IUPAC_INCHIKEY>
IENGGXSBPZGNNQ-UHFFFAOYSA-N

> <PUBCHEM_XLOGP3_AA>
5

> <PUBCHEM_EXACT_MASS>
397.146013

> <PUBCHEM_MOLECULAR_FORMULA>
C21H23N3O3S

> <PUBCHEM_MOLECULAR_WEIGHT>
397.49062

> <PUBCHEM_OPENEYE_CAN_SMILES>
CCC(C)(CC1=NC2=CC=CC=C2S1)CC(=O)NNC(=O)C3=CC=CC=C3O

> <PUBCHEM_OPENEYE_ISO_SMILES>
CCC(C)(CC1=NC2=CC=CC=C2S1)CC(=O)NNC(=O)C3=CC=CC=C3O

> <PUBCHEM_CACTVS_TPSA>
120

> <PUBCHEM_MONOISOTOPIC_WEIGHT>
397.146013

> <PUBCHEM_TOTAL_CHARGE>
0

> <PUBCHEM_HEAVY_ATOM_COUNT>
28

> <PUBCHEM_ATOM_DEF_STEREO_COUNT>
0

> <PUBCHEM_ATOM_UDEF_STEREO_COUNT>
1

> <PUBCHEM_BOND_DEF_STEREO_COUNT>
0

> <PUBCHEM_BOND_UDEF_STEREO_COUNT>
0

> <PUBCHEM_ISOTOPIC_ATOM_COUNT>
0

> <PUBCHEM_COMPONENT_COUNT>
1

> <PUBCHEM_CACTVS_TAUTO_COUNT>
66

> <PUBCHEM_COORDINATE_TYPE>
1
5
255

> <PUBCHEM_BONDANNOTATIONS>
1  13  8
1  16  8
16  17  8
16  18  8
17  19  8
18  20  8
19  21  8
20  21  8
23  24  8
23  25  8
24  26  8
25  27  8
26  28  8
27  28  8
5  13  8
5  17  8
8  12  3

$$$$

