13875
  -OEChem-06241222402D

 24 23  0     0  0  0  0  0  0999 V2000
    2.7140    0.0000    0.0000 Cl  0  5  0  0  0  0  0  0  0  0  0  0
    3.4640    5.3447    0.0000 S   0  0  0  0  0  0  0  0  0  0  0  0
    2.4640    5.3447    0.0000 S   0  0  0  0  0  0  0  0  0  0  0  0
    4.7240    4.0846    0.0000 N   0  3  0  0  0  0  0  0  0  0  0  0
    1.2039    4.0846    0.0000 N   0  0  0  0  0  0  0  0  0  0  0  0
    2.9640    3.8058    0.0000 N   0  0  0  0  0  0  0  0  0  0  0  0
    3.7730    4.3936    0.0000 C   0  0  0  0  0  0  0  0  0  0  0  0
    2.1550    4.3936    0.0000 C   0  0  0  0  0  0  0  0  0  0  0  0
    5.4672    4.7537    0.0000 C   0  0  0  0  0  0  0  0  0  0  0  0
    4.9319    3.1064    0.0000 C   0  0  0  0  0  0  0  0  0  0  0  0
    0.4608    4.7537    0.0000 C   0  0  0  0  0  0  0  0  0  0  0  0
    0.9960    3.1064    0.0000 C   0  0  0  0  0  0  0  0  0  0  0  0
    5.8820    4.2930    0.0000 H   0  0  0  0  0  0  0  0  0  0  0  0
    5.9279    5.1686    0.0000 H   0  0  0  0  0  0  0  0  0  0  0  0
    5.0523    5.2145    0.0000 H   0  0  0  0  0  0  0  0  0  0  0  0
    4.3255    2.9776    0.0000 H   0  0  0  0  0  0  0  0  0  0  0  0
    5.0609    2.5000    0.0000 H   0  0  0  0  0  0  0  0  0  0  0  0
    5.5384    3.2354    0.0000 H   0  0  0  0  0  0  0  0  0  0  0  0
    0.8756    5.2145    0.0000 H   0  0  0  0  0  0  0  0  0  0  0  0
    0.0000    5.1686    0.0000 H   0  0  0  0  0  0  0  0  0  0  0  0
    0.0459    4.2930    0.0000 H   0  0  0  0  0  0  0  0  0  0  0  0
    0.3895    3.2354    0.0000 H   0  0  0  0  0  0  0  0  0  0  0  0
    0.8671    2.5000    0.0000 H   0  0  0  0  0  0  0  0  0  0  0  0
    1.6024    2.9776    0.0000 H   0  0  0  0  0  0  0  0  0  0  0  0
  2  3  1  0  0  0  0
  2  7  1  0  0  0  0
  3  8  1  0  0  0  0
  4  7  2  0  0  0  0
  4  9  1  0  0  0  0
  4 10  1  0  0  0  0
  5  8  1  0  0  0  0
  5 11  1  0  0  0  0
  5 12  1  0  0  0  0
  6  7  1  0  0  0  0
  6  8  2  0  0  0  0
  9 13  1  0  0  0  0
  9 14  1  0  0  0  0
  9 15  1  0  0  0  0
 10 16  1  0  0  0  0
 10 17  1  0  0  0  0
 10 18  1  0  0  0  0
 11 19  1  0  0  0  0
 11 20  1  0  0  0  0
 11 21  1  0  0  0  0
 12 22  1  0  0  0  0
 12 23  1  0  0  0  0
 12 24  1  0  0  0  0
M  CHG  2   1  -1   4   1
M  END
> <PUBCHEM_COMPOUND_CID>
13875

> <PUBCHEM_COMPOUND_CANONICALIZED>
1

> <PUBCHEM_CACTVS_COMPLEXITY>
194

> <PUBCHEM_CACTVS_HBOND_ACCEPTOR>
3

> <PUBCHEM_CACTVS_HBOND_DONOR>
0

> <PUBCHEM_CACTVS_ROTATABLE_BOND>
1

> <PUBCHEM_CACTVS_SUBSKEYS>
AAADccBjAABkAAAAAAAAAAAAAAAAAQAAAAAAAAAAAAAAAAAAAAAAFAQAAAAAAAAAAAQDAAMAAAAgAAAAJAAAEAEAAAABAAAIAAAAAAAAAAAAAAAAAAAAAAAAAAAAAAAAAAAAAAAAAAAAAAAAAAAAAAAAAA==

> <PUBCHEM_IUPAC_OPENEYE_NAME>
[5-(dimethylamino)-1,2,4-dithiazol-3-ylidene]-dimethyl-ammonium chloride

> <PUBCHEM_IUPAC_CAS_NAME>
[5-(dimethylamino)-1,2,4-dithiazol-3-ylidene]-dimethylammonium chloride

> <PUBCHEM_IUPAC_NAME>
[5-(dimethylamino)-1,2,4-dithiazol-3-ylidene]-dimethylazanium chloride

> <PUBCHEM_IUPAC_SYSTEMATIC_NAME>
[5-(dimethylamino)-1,2,4-dithiazol-3-ylidene]-dimethyl-azanium chloride

> <PUBCHEM_IUPAC_TRADITIONAL_NAME>
[5-(dimethylamino)-1,2,4-dithiazol-3-ylidene]-dimethyl-ammonium chloride

> <PUBCHEM_IUPAC_INCHI>
InChI=1S/C6H12N3S2.ClH/c1-8(2)5-7-6(9(3)4)11-10-5;/h1-4H3;1H/q+1;/p-1

> <PUBCHEM_IUPAC_INCHIKEY>
RVPKCCDBCDGECU-UHFFFAOYSA-M

> <PUBCHEM_EXACT_MASS>
225.016117

> <PUBCHEM_MOLECULAR_FORMULA>
C6H12ClN3S2

> <PUBCHEM_MOLECULAR_WEIGHT>
225.76258

> <PUBCHEM_OPENEYE_CAN_SMILES>
CN(C)C1=NC(=[N+](C)C)SS1.[Cl-]

> <PUBCHEM_OPENEYE_ISO_SMILES>
CN(C)C1=NC(=[N+](C)C)SS1.[Cl-]

> <PUBCHEM_CACTVS_TPSA>
69.2

> <PUBCHEM_MONOISOTOPIC_WEIGHT>
225.016117

> <PUBCHEM_TOTAL_CHARGE>
0

> <PUBCHEM_HEAVY_ATOM_COUNT>
12

> <PUBCHEM_ATOM_DEF_STEREO_COUNT>
0

> <PUBCHEM_ATOM_UDEF_STEREO_COUNT>
0

> <PUBCHEM_BOND_DEF_STEREO_COUNT>
0

> <PUBCHEM_BOND_UDEF_STEREO_COUNT>
0

> <PUBCHEM_ISOTOPIC_ATOM_COUNT>
0

> <PUBCHEM_COMPONENT_COUNT>
2

> <PUBCHEM_CACTVS_TAUTO_COUNT>
1

> <PUBCHEM_COORDINATE_TYPE>
1
5
255

> <PUBCHEM_BONDANNOTATIONS>
2  3  8
2  7  8
3  8  8
6  7  8
6  8  8

$$$$

