5281045
  -OEChem-07051212532D

 52 53  0     1  0  0  0  0  0999 V2000
    5.6714   -1.3003    0.0000 O   0  0  0  0  0  0  0  0  0  0  0  0
    7.0727   -2.3183    0.0000 O   0  0  0  0  0  0  0  0  0  0  0  0
    8.5193    0.7688    0.0000 O   0  0  0  0  0  0  0  0  0  0  0  0
    5.3858   -4.0174    0.0000 C   0  0  0  0  0  0  0  0  0  0  0  0
    4.5768   -3.4296    0.0000 C   0  0  1  0  0  0  0  0  0  0  0  0
    5.4904   -3.0228    0.0000 C   0  0  1  0  0  0  0  0  0  0  0  0
    4.7981   -4.8264    0.0000 C   0  0  0  0  0  0  0  0  0  0  0  0
    6.3804   -4.1219    0.0000 C   0  0  0  0  0  0  0  0  0  0  0  0
    3.5823   -3.3250    0.0000 C   0  0  0  0  0  0  0  0  0  0  0  0
    6.0782   -2.2138    0.0000 C   0  0  0  0  0  0  0  0  0  0  0  0
    2.9945   -4.1340    0.0000 C   0  0  0  0  0  0  0  0  0  0  0  0
    6.2592   -0.4912    0.0000 C   0  0  1  0  0  0  0  0  0  0  0  0
    2.0000   -4.0295    0.0000 C   0  0  0  0  0  0  0  0  0  0  0  0
    3.4013   -5.0476    0.0000 C   0  0  0  0  0  0  0  0  0  0  0  0
    7.2592   -0.4912    0.0000 C   0  0  0  0  0  0  0  0  0  0  0  0
    5.9502    0.4598    0.0000 C   0  0  0  0  0  0  0  0  0  0  0  0
    6.7592    1.0476    0.0000 C   0  0  0  0  0  0  0  0  0  0  0  0
    7.5682    0.4598    0.0000 C   0  0  0  0  0  0  0  0  0  0  0  0
    4.9991    0.7688    0.0000 C   0  0  0  0  0  0  0  0  0  0  0  0
    6.7592    2.0476    0.0000 C   0  0  0  0  0  0  0  0  0  0  0  0
    7.6252    2.5476    0.0000 C   0  0  0  0  0  0  0  0  0  0  0  0
    7.6252    3.5476    0.0000 C   0  0  0  0  0  0  0  0  0  0  0  0
    6.7592    4.0476    0.0000 C   0  0  0  0  0  0  0  0  0  0  0  0
    6.7592    5.0476    0.0000 C   0  0  0  0  0  0  0  0  0  0  0  0
    4.4798   -2.8172    0.0000 H   0  0  0  0  0  0  0  0  0  0  0  0
    5.1002   -2.5410    0.0000 H   0  0  0  0  0  0  0  0  0  0  0  0
    4.2965   -4.4619    0.0000 H   0  0  0  0  0  0  0  0  0  0  0  0
    4.4336   -5.3280    0.0000 H   0  0  0  0  0  0  0  0  0  0  0  0
    5.2996   -5.1908    0.0000 H   0  0  0  0  0  0  0  0  0  0  0  0
    6.3156   -4.7385    0.0000 H   0  0  0  0  0  0  0  0  0  0  0  0
    6.9970   -4.1867    0.0000 H   0  0  0  0  0  0  0  0  0  0  0  0
    6.4452   -3.5053    0.0000 H   0  0  0  0  0  0  0  0  0  0  0  0
    3.3301   -2.7586    0.0000 H   0  0  0  0  0  0  0  0  0  0  0  0
    5.6468   -0.3943    0.0000 H   0  0  0  0  0  0  0  0  0  0  0  0
    2.0648   -3.4129    0.0000 H   0  0  0  0  0  0  0  0  0  0  0  0
    2.8349   -5.2998    0.0000 H   0  0  0  0  0  0  0  0  0  0  0  0
    3.6534   -5.6140    0.0000 H   0  0  0  0  0  0  0  0  0  0  0  0
    3.9677   -4.7954    0.0000 H   0  0  0  0  0  0  0  0  0  0  0  0
    1.3834   -3.9647    0.0000 H   0  0  0  0  0  0  0  0  0  0  0  0
    1.9352   -4.6461    0.0000 H   0  0  0  0  0  0  0  0  0  0  0  0
    7.1944   -1.1078    0.0000 H   0  0  0  0  0  0  0  0  0  0  0  0
    7.8657   -0.6202    0.0000 H   0  0  0  0  0  0  0  0  0  0  0  0
    5.1907    1.3585    0.0000 H   0  0  0  0  0  0  0  0  0  0  0  0
    4.4095    0.9604    0.0000 H   0  0  0  0  0  0  0  0  0  0  0  0
    4.8075    0.1792    0.0000 H   0  0  0  0  0  0  0  0  0  0  0  0
    6.5472    2.6302    0.0000 H   0  0  0  0  0  0  0  0  0  0  0  0
    6.1486    1.9399    0.0000 H   0  0  0  0  0  0  0  0  0  0  0  0
    8.1622    2.2376    0.0000 H   0  0  0  0  0  0  0  0  0  0  0  0
    8.1622    3.8576    0.0000 H   0  0  0  0  0  0  0  0  0  0  0  0
    6.2223    3.7376    0.0000 H   0  0  0  0  0  0  0  0  0  0  0  0
    7.2961    5.3576    0.0000 H   0  0  0  0  0  0  0  0  0  0  0  0
    6.2223    5.3576    0.0000 H   0  0  0  0  0  0  0  0  0  0  0  0
  1 10  1  0  0  0  0
 12  1  1  6  0  0  0
  2 10  2  0  0  0  0
  3 18  2  0  0  0  0
  4  5  1  0  0  0  0
  4  6  1  0  0  0  0
  4  7  1  0  0  0  0
  4  8  1  0  0  0  0
  5  6  1  0  0  0  0
  5  9  1  6  0  0  0
  5 25  1  0  0  0  0
  6 10  1  1  0  0  0
  6 26  1  0  0  0  0
  7 27  1  0  0  0  0
  7 28  1  0  0  0  0
  7 29  1  0  0  0  0
  8 30  1  0  0  0  0
  8 31  1  0  0  0  0
  8 32  1  0  0  0  0
  9 11  2  0  0  0  0
  9 33  1  0  0  0  0
 11 13  1  0  0  0  0
 11 14  1  0  0  0  0
 12 15  1  0  0  0  0
 12 16  1  0  0  0  0
 12 34  1  0  0  0  0
 13 35  1  0  0  0  0
 13 39  1  0  0  0  0
 13 40  1  0  0  0  0
 14 36  1  0  0  0  0
 14 37  1  0  0  0  0
 14 38  1  0  0  0  0
 15 18  1  0  0  0  0
 15 41  1  0  0  0  0
 15 42  1  0  0  0  0
 16 17  2  0  0  0  0
 16 19  1  0  0  0  0
 17 18  1  0  0  0  0
 17 20  1  0  0  0  0
 19 43  1  0  0  0  0
 19 44  1  0  0  0  0
 19 45  1  0  0  0  0
 20 21  1  0  0  0  0
 20 46  1  0  0  0  0
 20 47  1  0  0  0  0
 21 22  2  0  0  0  0
 21 48  1  0  0  0  0
 22 23  1  0  0  0  0
 22 49  1  0  0  0  0
 23 24  2  0  0  0  0
 23 50  1  0  0  0  0
 24 51  1  0  0  0  0
 24 52  1  0  0  0  0
M  END
> <PUBCHEM_COMPOUND_CID>
5281045

> <PUBCHEM_COMPOUND_CANONICALIZED>
1

> <PUBCHEM_CACTVS_COMPLEXITY>
642

> <PUBCHEM_CACTVS_HBOND_ACCEPTOR>
3

> <PUBCHEM_CACTVS_HBOND_DONOR>
0

> <PUBCHEM_CACTVS_ROTATABLE_BOND>
7

> <PUBCHEM_CACTVS_SUBSKEYS>
AAADceB4MAAAAAAAAAAAAAAAGAAAAQAAAAAAAAAAAAAAAAAAAAAAGgAAAAAADxSggAICCAAABACIAqDSCAAAAAAgAAAICAEAAEgIBBYAIQACEAAEoAAIoQOIwIAPgAAAAAAAAAAAAAAAAAAAAAAAAAAAAA==

> <PUBCHEM_IUPAC_OPENEYE_NAME>
[(1S)-2-methyl-4-oxo-3-[(2Z)-penta-2,4-dienyl]cyclopent-2-en-1-yl] (1R,3R)-2,2-dimethyl-3-(2-methylprop-1-enyl)cyclopropanecarboxylate

> <PUBCHEM_IUPAC_CAS_NAME>
(1R,3R)-2,2-dimethyl-3-(2-methylprop-1-enyl)-1-cyclopropanecarboxylic acid [(1S)-2-methyl-4-oxo-3-[(2Z)-penta-2,4-dienyl]-1-cyclopent-2-enyl] ester

> <PUBCHEM_IUPAC_NAME>
[(1S)-2-methyl-4-oxo-3-[(2Z)-penta-2,4-dienyl]cyclopent-2-en-1-yl] (1R,3R)-2,2-dimethyl-3-(2-methylprop-1-enyl)cyclopropane-1-carboxylate

> <PUBCHEM_IUPAC_SYSTEMATIC_NAME>
[(1S)-2-methyl-4-oxidanylidene-3-[(2Z)-penta-2,4-dienyl]cyclopent-2-en-1-yl] (1R,3R)-2,2-dimethyl-3-(2-methylprop-1-enyl)cyclopropane-1-carboxylate

> <PUBCHEM_IUPAC_TRADITIONAL_NAME>
(1R,3R)-2,2-dimethyl-3-(2-methylprop-1-enyl)cyclopropanecarboxylic acid [(1S)-4-keto-2-methyl-3-[(2Z)-penta-2,4-dienyl]cyclopent-2-en-1-yl] ester

> <PUBCHEM_IUPAC_INCHI>
InChI=1S/C21H28O3/c1-7-8-9-10-15-14(4)18(12-17(15)22)24-20(23)19-16(11-13(2)3)21(19,5)6/h7-9,11,16,18-19H,1,10,12H2,2-6H3/b9-8-/t16-,18+,19+/m1/s1

> <PUBCHEM_IUPAC_INCHIKEY>
ROVGZAWFACYCSP-VUMXUWRFSA-N

> <PUBCHEM_XLOGP3>
5.4

> <PUBCHEM_EXACT_MASS>
328.203845

> <PUBCHEM_MOLECULAR_FORMULA>
C21H28O3

> <PUBCHEM_MOLECULAR_WEIGHT>
328.44522

> <PUBCHEM_OPENEYE_CAN_SMILES>
CC1=C(C(=O)CC1OC(=O)C2C(C2(C)C)C=C(C)C)CC=CC=C

> <PUBCHEM_OPENEYE_ISO_SMILES>
CC1=C(C(=O)C[C@@H]1OC(=O)[C@@H]2[C@H](C2(C)C)C=C(C)C)C/C=C\C=C

> <PUBCHEM_CACTVS_TPSA>
43.4

> <PUBCHEM_MONOISOTOPIC_WEIGHT>
328.203845

> <PUBCHEM_TOTAL_CHARGE>
0

> <PUBCHEM_HEAVY_ATOM_COUNT>
24

> <PUBCHEM_ATOM_DEF_STEREO_COUNT>
3

> <PUBCHEM_ATOM_UDEF_STEREO_COUNT>
0

> <PUBCHEM_BOND_DEF_STEREO_COUNT>
1

> <PUBCHEM_BOND_UDEF_STEREO_COUNT>
0

> <PUBCHEM_ISOTOPIC_ATOM_COUNT>
0

> <PUBCHEM_COMPONENT_COUNT>
1

> <PUBCHEM_CACTVS_TAUTO_COUNT>
5

> <PUBCHEM_COORDINATE_TYPE>
1
5
255

> <PUBCHEM_BONDANNOTATIONS>
12  1  6
5  9  6
6  10  5

$$$$

