   Color/Form
        Colorless yellow crystals (tech is an amber to yellow semi-solid)
   from [1]HSDB

   Odor
        Camphor-like odor
   from [2]HSDB

   Melting Point
        28.5 deg C
   from [3]HSDB

   Density/Specific Gravity
        1.151 at 32 deg C
   from [4]HSDB

   Octanol/Water Partition Coefficient
        log Kow = 2.17 (est)
   from [5]HSDB

   Solubilities

     * Miscible with most organic solvents e.g. hexane, cyclohexane,
       higher petroleum fractions <30. Light petroleum <20, glycerol <10
       (all in g/kg , 20 deg C)
     * In water, 2.5X10+3 mg/L at 20 deg C

   from [6]HSDB

   Spectral Properties
        Index of refraction: 1.5128 at 32 deg C, sodium lamp
   from [7]HSDB

   Vapor Pressure
        9.75X10-5 mm Hg at 40 deg C
   from [8]HSDB

   Other Chemical/Physical Properties

     * SOLIDIFIES AT 21 TO 24 DEG C; AMBER TO YELLOW SEMI-SOLID; MISCIBLE
       AT 20 DEG C WITH MOST ORGANIC SOLVENTS; SOLUBILITY LESS THAN: 10
       G/KG GLYCEROL, 20 G/KG LIGHT PETROLEUM, 30 G/KG CYCLOHEXANE, HEXANE
       & HIGHER PETROLEUM FRACTIONS /TECHNICAL PRODUCT/
     * Stable at 4.0<8.2, but decomposed at 50 deg C in about 48 hrs at pH
       9.2. Tech is stable to light and at less than/= 60 deg C.
     * Henry's Law constant = 6.55X10-11 atm-cu m/mol at 25 deg C (est)
     * Hydroxyl radical reaction rate constant = 1.20X10-10 cu
       cm/molec-sec at 25 deg C (est)

   from [9]HSDB

   Computed Properties
   Molecular Weight                  285.363762 [g/mol]
   Molecular Formula                 C[9]H[20]NO[3]PS[2]
   XLogP3-AA                         2.5
   H-Bond Donor                      1
   H-Bond Acceptor                   5
   Rotatable Bond Count              8
   Tautomer Count                    2
   Exact Mass                        285.062222
   MonoIsotopic Mass                 285.062222
   Topological Polar Surface Area    105
   Heavy Atom Count                  16
   Formal Charge                     0
   Complexity                        251
   Isotope Atom Count                0
   Defined Atom Stereocenter Count   0
   Undefined Atom Stereocenter Count 0
   Defined Bond Stereocenter Count   0
   Undefined Bond Stereocenter Count 0
   Covalently-Bonded Unit Count      1
   Feature 3D Acceptor Count         1
   Feature 3D Donor Count            1
   Feature 3D Hydrophobe Count       1
   Effective Rotor Count             9
   Conformer Sampling RMSD           0.8
   CID Conformer Count               [10]120

References

   1. http://toxnet.nlm.nih.gov/cgi-bin/sis/search/r?dbs+hsdb:@term+@rn+@rel+2275-18-5
   2. http://toxnet.nlm.nih.gov/cgi-bin/sis/search/r?dbs+hsdb:@term+@rn+@rel+2275-18-5
   3. http://toxnet.nlm.nih.gov/cgi-bin/sis/search/r?dbs+hsdb:@term+@rn+@rel+2275-18-5
   4. http://toxnet.nlm.nih.gov/cgi-bin/sis/search/r?dbs+hsdb:@term+@rn+@rel+2275-18-5
   5. http://toxnet.nlm.nih.gov/cgi-bin/sis/search/r?dbs+hsdb:@term+@rn+@rel+2275-18-5
   6. http://toxnet.nlm.nih.gov/cgi-bin/sis/search/r?dbs+hsdb:@term+@rn+@rel+2275-18-5
   7. http://toxnet.nlm.nih.gov/cgi-bin/sis/search/r?dbs+hsdb:@term+@rn+@rel+2275-18-5
   8. http://toxnet.nlm.nih.gov/cgi-bin/sis/search/r?dbs+hsdb:@term+@rn+@rel+2275-18-5
   9. http://toxnet.nlm.nih.gov/cgi-bin/sis/search/r?dbs+hsdb:@term+@rn+@rel+2275-18-5
  10. http://pubchem.ncbi.nlm.nih.gov/vw3d/vw3d.cgi?cid=16774
