9893571
  -OEChem-07051213072D

 58 61  0     0  0  0  0  0  0999 V2000
    6.8934   -6.1180    0.0000 Cl  0  0  0  0  0  0  0  0  0  0  0  0
    5.8229   -2.8235    0.0000 Cl  0  0  0  0  0  0  0  0  0  0  0  0
    2.0000    0.3080    0.0000 Cl  0  0  0  0  0  0  0  0  0  0  0  0
    4.0981   -5.7308    0.0000 O   0  0  0  0  0  0  0  0  0  0  0  0
    3.7320   -2.6920    0.0000 O   0  0  0  0  0  0  0  0  0  0  0  0
    6.3301    5.8080    0.0000 O   0  0  0  0  0  0  0  0  0  0  0  0
    7.1962    4.3080    0.0000 O   0  0  0  0  0  0  0  0  0  0  0  0
    5.0981   -5.7308    0.0000 N   0  0  0  0  0  0  0  0  0  0  0  0
    2.8380   -4.4708    0.0000 C   0  0  0  0  0  0  0  0  0  0  0  0
    3.7891   -4.7798    0.0000 C   0  0  0  0  0  0  0  0  0  0  0  0
    4.5981   -4.1920    0.0000 C   0  0  0  0  0  0  0  0  0  0  0  0
    5.4071   -4.7798    0.0000 C   0  0  0  0  0  0  0  0  0  0  0  0
    4.5981   -3.1920    0.0000 C   0  0  0  0  0  0  0  0  0  0  0  0
    2.0949   -5.1399    0.0000 C   0  0  0  0  0  0  0  0  0  0  0  0
    2.6301   -3.4926    0.0000 C   0  0  0  0  0  0  0  0  0  0  0  0
    6.3582   -4.4708    0.0000 C   0  0  0  0  0  0  0  0  0  0  0  0
    7.1013   -5.1399    0.0000 C   0  0  0  0  0  0  0  0  0  0  0  0
    6.5661   -3.4926    0.0000 C   0  0  0  0  0  0  0  0  0  0  0  0
    3.7320   -1.6920    0.0000 C   0  0  0  0  0  0  0  0  0  0  0  0
    8.0524   -4.8309    0.0000 C   0  0  0  0  0  0  0  0  0  0  0  0
    7.5171   -3.1836    0.0000 C   0  0  0  0  0  0  0  0  0  0  0  0
    2.8660   -1.1920    0.0000 C   0  0  0  0  0  0  0  0  0  0  0  0
    4.5981   -1.1920    0.0000 C   0  0  0  0  0  0  0  0  0  0  0  0
    8.2603   -3.8527    0.0000 C   0  0  0  0  0  0  0  0  0  0  0  0
    3.7320    0.3080    0.0000 C   0  0  0  0  0  0  0  0  0  0  0  0
    2.8660   -0.1920    0.0000 C   0  0  0  0  0  0  0  0  0  0  0  0
    4.5981   -0.1920    0.0000 C   0  0  0  0  0  0  0  0  0  0  0  0
    3.7320    1.3080    0.0000 C   0  0  0  0  0  0  0  0  0  0  0  0
    4.5981    2.8080    0.0000 C   0  0  0  0  0  0  0  0  0  0  0  0
    4.5981    1.8080    0.0000 C   0  0  0  0  0  0  0  0  0  0  0  0
    5.4641    3.3080    0.0000 C   0  0  0  0  0  0  0  0  0  0  0  0
    3.7320    3.3080    0.0000 C   0  0  0  0  0  0  0  0  0  0  0  0
    5.4641    4.3080    0.0000 C   0  0  0  0  0  0  0  0  0  0  0  0
    3.7320    4.3080    0.0000 C   0  0  0  0  0  0  0  0  0  0  0  0
    4.5981    4.8080    0.0000 C   0  0  0  0  0  0  0  0  0  0  0  0
    6.3301    4.8080    0.0000 C   0  0  0  0  0  0  0  0  0  0  0  0
    2.9669   -5.0772    0.0000 H   0  0  0  0  0  0  0  0  0  0  0  0
    5.2087   -3.2996    0.0000 H   0  0  0  0  0  0  0  0  0  0  0  0
    4.8101   -2.6094    0.0000 H   0  0  0  0  0  0  0  0  0  0  0  0
    1.6800   -4.6791    0.0000 H   0  0  0  0  0  0  0  0  0  0  0  0
    1.6341   -5.5547    0.0000 H   0  0  0  0  0  0  0  0  0  0  0  0
    2.5097   -5.6006    0.0000 H   0  0  0  0  0  0  0  0  0  0  0  0
    3.2365   -3.3637    0.0000 H   0  0  0  0  0  0  0  0  0  0  0  0
    2.5012   -2.8862    0.0000 H   0  0  0  0  0  0  0  0  0  0  0  0
    2.0236   -3.6215    0.0000 H   0  0  0  0  0  0  0  0  0  0  0  0
    8.5131   -5.2457    0.0000 H   0  0  0  0  0  0  0  0  0  0  0  0
    7.6460   -2.5771    0.0000 H   0  0  0  0  0  0  0  0  0  0  0  0
    2.3291   -1.5020    0.0000 H   0  0  0  0  0  0  0  0  0  0  0  0
    5.1350   -1.5020    0.0000 H   0  0  0  0  0  0  0  0  0  0  0  0
    8.8499   -3.6611    0.0000 H   0  0  0  0  0  0  0  0  0  0  0  0
    5.1350    0.1180    0.0000 H   0  0  0  0  0  0  0  0  0  0  0  0
    3.1951    1.6180    0.0000 H   0  0  0  0  0  0  0  0  0  0  0  0
    5.1350    1.4980    0.0000 H   0  0  0  0  0  0  0  0  0  0  0  0
    6.0010    2.9980    0.0000 H   0  0  0  0  0  0  0  0  0  0  0  0
    3.1951    2.9980    0.0000 H   0  0  0  0  0  0  0  0  0  0  0  0
    3.1951    4.6180    0.0000 H   0  0  0  0  0  0  0  0  0  0  0  0
    4.5981    5.4280    0.0000 H   0  0  0  0  0  0  0  0  0  0  0  0
    6.8671    6.1180    0.0000 H   0  0  0  0  0  0  0  0  0  0  0  0
  1 17  1  0  0  0  0
  2 18  1  0  0  0  0
  3 26  1  0  0  0  0
  4  8  1  0  0  0  0
  4 10  1  0  0  0  0
  5 13  1  0  0  0  0
  5 19  1  0  0  0  0
  6 36  1  0  0  0  0
  6 58  1  0  0  0  0
  7 36  2  0  0  0  0
  8 12  2  0  0  0  0
  9 10  1  0  0  0  0
  9 14  1  0  0  0  0
  9 15  1  0  0  0  0
  9 37  1  0  0  0  0
 10 11  2  0  0  0  0
 11 12  1  0  0  0  0
 11 13  1  0  0  0  0
 12 16  1  0  0  0  0
 13 38  1  0  0  0  0
 13 39  1  0  0  0  0
 14 40  1  0  0  0  0
 14 41  1  0  0  0  0
 14 42  1  0  0  0  0
 15 43  1  0  0  0  0
 15 44  1  0  0  0  0
 15 45  1  0  0  0  0
 16 17  2  0  0  0  0
 16 18  1  0  0  0  0
 17 20  1  0  0  0  0
 18 21  2  0  0  0  0
 19 22  2  0  0  0  0
 19 23  1  0  0  0  0
 20 24  2  0  0  0  0
 20 46  1  0  0  0  0
 21 24  1  0  0  0  0
 21 47  1  0  0  0  0
 22 26  1  0  0  0  0
 22 48  1  0  0  0  0
 23 27  2  0  0  0  0
 23 49  1  0  0  0  0
 24 50  1  0  0  0  0
 25 26  2  0  0  0  0
 25 27  1  0  0  0  0
 25 28  1  0  0  0  0
 27 51  1  0  0  0  0
 28 30  2  0  0  0  0
 28 52  1  0  0  0  0
 29 30  1  0  0  0  0
 29 31  2  0  0  0  0
 29 32  1  0  0  0  0
 30 53  1  0  0  0  0
 31 33  1  0  0  0  0
 31 54  1  0  0  0  0
 32 34  2  0  0  0  0
 32 55  1  0  0  0  0
 33 35  2  0  0  0  0
 33 36  1  0  0  0  0
 34 35  1  0  0  0  0
 34 56  1  0  0  0  0
 35 57  1  0  0  0  0
M  END
> <PUBCHEM_COMPOUND_CID>
9893571

> <PUBCHEM_COMPOUND_CANONICALIZED>
1

> <PUBCHEM_CACTVS_COMPLEXITY>
742

> <PUBCHEM_CACTVS_HBOND_ACCEPTOR>
5

> <PUBCHEM_CACTVS_HBOND_DONOR>
1

> <PUBCHEM_CACTVS_ROTATABLE_BOND>
8

> <PUBCHEM_CACTVS_SUBSKEYS>
AAADceB6OAAGAAAAAAAAAAAAAAAAAWAAAAAwYMAAAAAAAAAB1AAAHgIECAAADQ6hniIyjpAQBgCpA6TySgCCCAAkJQAomCEmTtoMJz6Ft5uCeaDn4BkI+ceYyOCOIAACAQCBAABAAAQCAQIAAAAAAAAAAA==

> <PUBCHEM_IUPAC_OPENEYE_NAME>
3-[(E)-2-[2-chloro-4-[[3-(2,6-dichlorophenyl)-5-isopropyl-isoxazol-4-yl]methoxy]phenyl]vinyl]benzoic acid

> <PUBCHEM_IUPAC_CAS_NAME>
3-[(E)-2-[2-chloro-4-[[3-(2,6-dichlorophenyl)-5-propan-2-yl-4-isoxazolyl]methoxy]phenyl]ethenyl]benzoic acid

> <PUBCHEM_IUPAC_NAME>
3-[(E)-2-[2-chloro-4-[[3-(2,6-dichlorophenyl)-5-propan-2-yl-1,2-oxazol-4-yl]methoxy]phenyl]ethenyl]benzoic acid

> <PUBCHEM_IUPAC_SYSTEMATIC_NAME>
3-[(E)-2-[4-[[3-[2,6-bis(chloranyl)phenyl]-5-propan-2-yl-1,2-oxazol-4-yl]methoxy]-2-chloranyl-phenyl]ethenyl]benzoic acid

> <PUBCHEM_IUPAC_TRADITIONAL_NAME>
3-[(E)-2-[2-chloro-4-[[3-(2,6-dichlorophenyl)-5-isopropyl-isoxazol-4-yl]methoxy]phenyl]vinyl]benzoic acid

> <PUBCHEM_IUPAC_INCHI>
InChI=1S/C28H22Cl3NO4/c1-16(2)27-21(26(32-36-27)25-22(29)7-4-8-23(25)30)15-35-20-12-11-18(24(31)14-20)10-9-17-5-3-6-19(13-17)28(33)34/h3-14,16H,15H2,1-2H3,(H,33,34)/b10-9+

> <PUBCHEM_IUPAC_INCHIKEY>
BYTNEISLBIENSA-MDZDMXLPSA-N

> <PUBCHEM_XLOGP3_AA>
8.3

> <PUBCHEM_EXACT_MASS>
541.061441

> <PUBCHEM_MOLECULAR_FORMULA>
C28H22Cl3NO4

> <PUBCHEM_MOLECULAR_WEIGHT>
542.83758

> <PUBCHEM_OPENEYE_CAN_SMILES>
CC(C)C1=C(C(=NO1)C2=C(C=CC=C2Cl)Cl)COC3=CC(=C(C=C3)C=CC4=CC(=CC=C4)C(=O)O)Cl

> <PUBCHEM_OPENEYE_ISO_SMILES>
CC(C)C1=C(C(=NO1)C2=C(C=CC=C2Cl)Cl)COC3=CC(=C(C=C3)/C=C/C4=CC(=CC=C4)C(=O)O)Cl

> <PUBCHEM_CACTVS_TPSA>
72.6

> <PUBCHEM_MONOISOTOPIC_WEIGHT>
541.061441

> <PUBCHEM_TOTAL_CHARGE>
0

> <PUBCHEM_HEAVY_ATOM_COUNT>
36

> <PUBCHEM_ATOM_DEF_STEREO_COUNT>
0

> <PUBCHEM_ATOM_UDEF_STEREO_COUNT>
0

> <PUBCHEM_BOND_DEF_STEREO_COUNT>
1

> <PUBCHEM_BOND_UDEF_STEREO_COUNT>
0

> <PUBCHEM_ISOTOPIC_ATOM_COUNT>
0

> <PUBCHEM_COMPONENT_COUNT>
1

> <PUBCHEM_CACTVS_TAUTO_COUNT>
1

> <PUBCHEM_COORDINATE_TYPE>
1
5
255

> <PUBCHEM_BONDANNOTATIONS>
10  11  8
11  12  8
16  17  8
16  18  8
17  20  8
18  21  8
19  22  8
19  23  8
20  24  8
21  24  8
22  26  8
23  27  8
25  26  8
25  27  8
29  31  8
29  32  8
31  33  8
32  34  8
33  35  8
34  35  8
4  10  8
4  8  8
8  12  8

$$$$

