443465
  -OEChem-07051213022D

 53 56  0     1  0  0  0  0  0999 V2000
    2.3052   -2.3476    0.0000 O   0  0  0  0  0  0  0  0  0  0  0  0
    6.5090    0.1434    0.0000 C   0  0  1  0  0  0  0  0  0  0  0  0
    5.6405    0.6391    0.0000 C   0  0  2  0  0  0  0  0  0  0  0  0
    4.7330    0.1277    0.0000 C   0  0  1  0  0  0  0  0  0  0  0  0
    4.7302   -0.9139    0.0000 C   0  0  2  0  0  0  0  0  0  0  0  0
    6.5302   -0.8980    0.0000 C   0  0  0  0  0  0  0  0  0  0  0  0
    6.4845    1.3248    0.0000 C   0  0  0  0  0  0  0  0  0  0  0  0
    5.6349   -1.4302    0.0000 C   0  0  0  0  0  0  0  0  0  0  0  0
    3.7975   -1.4683    0.0000 C   0  0  1  0  0  0  0  0  0  0  0  0
    7.1606    2.2938    0.0000 C   0  0  1  0  0  0  0  0  0  0  0  0
    5.4865    1.6272    0.0000 C   0  0  0  0  0  0  0  0  0  0  0  0
    7.4380    0.5134    0.0000 C   0  0  0  0  0  0  0  0  0  0  0  0
    3.8034    0.6872    0.0000 C   0  0  0  0  0  0  0  0  0  0  0  0
    6.1630    2.3636    0.0000 C   0  0  0  0  0  0  0  0  0  0  0  0
    7.7280    1.4704    0.0000 C   0  0  0  0  0  0  0  0  0  0  0  0
    4.3936    1.0683    0.0000 C   0  0  0  0  0  0  0  0  0  0  0  0
    2.8552   -0.9305    0.0000 C   0  0  0  0  0  0  0  0  0  0  0  0
    2.8582    0.1545    0.0000 C   0  0  0  0  0  0  0  0  0  0  0  0
    3.3052   -2.3387    0.0000 C   0  0  0  0  0  0  0  0  0  0  0  0
    4.3052   -2.3299    0.0000 C   0  0  0  0  0  0  0  0  0  0  0  0
    8.7161    1.6244    0.0000 C   0  0  0  0  0  0  0  0  0  0  0  0
    4.9023    1.0604    0.0000 H   0  0  0  0  0  0  0  0  0  0  0  0
    4.7377   -1.7639    0.0000 H   0  0  0  0  0  0  0  0  0  0  0  0
    6.7512   -1.4773    0.0000 H   0  0  0  0  0  0  0  0  0  0  0  0
    7.1388   -0.7795    0.0000 H   0  0  0  0  0  0  0  0  0  0  0  0
    6.1103    1.8191    0.0000 H   0  0  0  0  0  0  0  0  0  0  0  0
    5.8988    1.1213    0.0000 H   0  0  0  0  0  0  0  0  0  0  0  0
    5.2399   -1.9082    0.0000 H   0  0  0  0  0  0  0  0  0  0  0  0
    6.0382   -1.9011    0.0000 H   0  0  0  0  0  0  0  0  0  0  0  0
    7.4071    3.1073    0.0000 H   0  0  0  0  0  0  0  0  0  0  0  0
    5.1347    2.1377    0.0000 H   0  0  0  0  0  0  0  0  0  0  0  0
    4.9105    1.3978    0.0000 H   0  0  0  0  0  0  0  0  0  0  0  0
    7.5335   -0.0992    0.0000 H   0  0  0  0  0  0  0  0  0  0  0  0
    8.0565    0.4701    0.0000 H   0  0  0  0  0  0  0  0  0  0  0  0
    4.2093    1.1558    0.0000 H   0  0  0  0  0  0  0  0  0  0  0  0
    3.4111    1.1673    0.0000 H   0  0  0  0  0  0  0  0  0  0  0  0
    6.3428    2.9570    0.0000 H   0  0  0  0  0  0  0  0  0  0  0  0
    5.6246    2.6709    0.0000 H   0  0  0  0  0  0  0  0  0  0  0  0
    4.9768    1.2788    0.0000 H   0  0  0  0  0  0  0  0  0  0  0  0
    4.1831    1.6515    0.0000 H   0  0  0  0  0  0  0  0  0  0  0  0
    3.8104    0.8579    0.0000 H   0  0  0  0  0  0  0  0  0  0  0  0
    2.2446   -0.8227    0.0000 H   0  0  0  0  0  0  0  0  0  0  0  0
    2.6446   -1.5136    0.0000 H   0  0  0  0  0  0  0  0  0  0  0  0
    2.6507    0.7388    0.0000 H   0  0  0  0  0  0  0  0  0  0  0  0
    2.2470    0.0501    0.0000 H   0  0  0  0  0  0  0  0  0  0  0  0
    3.2029   -2.9502    0.0000 H   0  0  0  0  0  0  0  0  0  0  0  0
    3.8897   -2.5456    0.0000 H   0  0  0  0  0  0  0  0  0  0  0  0
    3.7710   -2.6446    0.0000 H   0  0  0  0  0  0  0  0  0  0  0  0
    4.6199   -2.8640    0.0000 H   0  0  0  0  0  0  0  0  0  0  0  0
    4.8393   -2.0151    0.0000 H   0  0  0  0  0  0  0  0  0  0  0  0
    9.1051    1.1416    0.0000 H   0  0  0  0  0  0  0  0  0  0  0  0
    8.9397    2.2027    0.0000 H   0  0  0  0  0  0  0  0  0  0  0  0
    2.0000   -2.8872    0.0000 H   0  0  0  0  0  0  0  0  0  0  0  0
  1 19  1  0  0  0  0
  1 53  1  0  0  0  0
  2  3  1  0  0  0  0
  2  6  1  6  0  0  0
  2  7  1  0  0  0  0
  2 12  1  0  0  0  0
  3  4  1  0  0  0  0
  3 11  1  0  0  0  0
  3 22  1  1  0  0  0
  4  5  1  0  0  0  0
  4 13  1  0  0  0  0
  4 16  1  6  0  0  0
  5  8  1  0  0  0  0
  5  9  1  0  0  0  0
  5 23  1  1  0  0  0
  6  8  1  0  0  0  0
  6 24  1  0  0  0  0
  6 25  1  0  0  0  0
  7 10  1  0  0  0  0
  7 26  1  0  0  0  0
  7 27  1  0  0  0  0
  8 28  1  0  0  0  0
  8 29  1  0  0  0  0
  9 17  1  0  0  0  0
  9 19  1  0  0  0  0
  9 20  1  1  0  0  0
 10 14  1  0  0  0  0
 10 15  1  0  0  0  0
 10 30  1  6  0  0  0
 11 14  1  0  0  0  0
 11 31  1  0  0  0  0
 11 32  1  0  0  0  0
 12 15  1  0  0  0  0
 12 33  1  0  0  0  0
 12 34  1  0  0  0  0
 13 18  1  0  0  0  0
 13 35  1  0  0  0  0
 13 36  1  0  0  0  0
 14 37  1  0  0  0  0
 14 38  1  0  0  0  0
 15 21  2  0  0  0  0
 16 39  1  0  0  0  0
 16 40  1  0  0  0  0
 16 41  1  0  0  0  0
 17 18  1  0  0  0  0
 17 42  1  0  0  0  0
 17 43  1  0  0  0  0
 18 44  1  0  0  0  0
 18 45  1  0  0  0  0
 19 46  1  0  0  0  0
 19 47  1  0  0  0  0
 20 48  1  0  0  0  0
 20 49  1  0  0  0  0
 20 50  1  0  0  0  0
 21 51  1  0  0  0  0
 21 52  1  0  0  0  0
M  END
> <PUBCHEM_COMPOUND_CID>
443465

> <PUBCHEM_COMPOUND_CANONICALIZED>
1

> <PUBCHEM_CACTVS_COMPLEXITY>
469

> <PUBCHEM_CACTVS_HBOND_ACCEPTOR>
1

> <PUBCHEM_CACTVS_HBOND_DONOR>
1

> <PUBCHEM_CACTVS_ROTATABLE_BOND>
1

> <PUBCHEM_CACTVS_SUBSKEYS>
AAADcfB4IAAAAAAAAAAAAAAAAAAAAYAAAAAwYMAABgAAAADAAAAAGgAACAAADwCggAICAAAAAgCAAgBCAAAAAAAgAAAAAAAAAAgAEAIAAQAAQAAEgAAAAAGAwPAPgAAAAAAAAACAAAQAACAAAQAAAAAAAA==

> <PUBCHEM_IUPAC_INCHI>
InChI=1S/C20H32O/c1-14-11-20-10-7-16-18(2,13-21)8-4-9-19(16,3)17(20)6-5-15(14)12-20/h15-17,21H,1,4-13H2,2-3H3/t15-,16-,17+,18+,19-,20-/m1/s1

> <PUBCHEM_IUPAC_INCHIKEY>
TUJQVRFWMWRMIO-XRNRSJMDSA-N

> <PUBCHEM_XLOGP3_AA>
5.5

> <PUBCHEM_EXACT_MASS>
288.245316

> <PUBCHEM_MOLECULAR_FORMULA>
C20H32O

> <PUBCHEM_MOLECULAR_WEIGHT>
288.46748

> <PUBCHEM_OPENEYE_CAN_SMILES>
CC1(CCCC2(C1CCC34C2CCC(C3)C(=C)C4)C)CO

> <PUBCHEM_OPENEYE_ISO_SMILES>
C[C@]1(CCC[C@@]2([C@@H]1CC[C@]34[C@H]2CC[C@H](C3)C(=C)C4)C)CO

> <PUBCHEM_CACTVS_TPSA>
20.2

> <PUBCHEM_MONOISOTOPIC_WEIGHT>
288.245316

> <PUBCHEM_TOTAL_CHARGE>
0

> <PUBCHEM_HEAVY_ATOM_COUNT>
21

> <PUBCHEM_ATOM_DEF_STEREO_COUNT>
6

> <PUBCHEM_ATOM_UDEF_STEREO_COUNT>
0

> <PUBCHEM_BOND_DEF_STEREO_COUNT>
0

> <PUBCHEM_BOND_UDEF_STEREO_COUNT>
0

> <PUBCHEM_ISOTOPIC_ATOM_COUNT>
0

> <PUBCHEM_COMPONENT_COUNT>
1

> <PUBCHEM_CACTVS_TAUTO_COUNT>
1

> <PUBCHEM_COORDINATE_TYPE>
1
5
255

> <PUBCHEM_BONDANNOTATIONS>
10  30  6
2  6  6
3  22  5
4  16  6
5  23  5
9  20  5

$$$$

