442517
  -OEChem-07051212582D

 91 96  0     1  0  0  0  0  0999 V2000
    7.1507   -2.8997    0.0000 O   0  0  0  0  0  0  0  0  0  0  0  0
    6.9684    0.3248    0.0000 O   0  0  0  0  0  0  0  0  0  0  0  0
    8.7840   -0.1135    0.0000 O   0  0  0  0  0  0  0  0  0  0  0  0
    5.3520    0.2679    0.0000 O   0  0  0  0  0  0  0  0  0  0  0  0
    3.7318   -0.7092    0.0000 O   0  0  0  0  0  0  0  0  0  0  0  0
    7.5190    0.0463    0.0000 O   0  0  0  0  0  0  0  0  0  0  0  0
    5.2002    1.2594    0.0000 O   0  0  0  0  0  0  0  0  0  0  0  0
   10.4041    0.4991    0.0000 O   0  0  0  0  0  0  0  0  0  0  0  0
    3.6396    0.0082    0.0000 O   0  0  0  0  0  0  0  0  0  0  0  0
    2.8414   -2.1949    0.0000 O   0  0  0  0  0  0  0  0  0  0  0  0
    6.9469    1.6812    0.0000 O   0  0  0  0  0  0  0  0  0  0  0  0
   12.2542   -1.1875    0.0000 N   0  0  0  0  0  0  0  0  0  0  0  0
    8.6792    3.4887    0.0000 N   0  0  0  0  0  0  0  0  0  0  0  0
    6.3767   -2.2665    0.0000 C   0  0  1  0  0  0  0  0  0  0  0  0
    6.3892   -1.2666    0.0000 C   0  0  2  0  0  0  0  0  0  0  0  0
    8.5734   -1.7938    0.0000 C   0  0  2  0  0  0  0  0  0  0  0  0
    7.3981   -1.6723    0.0000 C   0  0  0  0  0  0  0  0  0  0  0  0
    7.1787   -0.6529    0.0000 C   0  0  2  0  0  0  0  0  0  0  0  0
    5.4762   -2.7899    0.0000 C   0  0  1  0  0  0  0  0  0  0  0  0
    8.1283   -2.6893    0.0000 C   0  0  0  0  0  0  0  0  0  0  0  0
    8.1508   -0.8875    0.0000 C   0  0  2  0  0  0  0  0  0  0  0  0
    5.5020   -0.7208    0.0000 C   0  0  2  0  0  0  0  0  0  0  0  0
    4.5766   -2.2648    0.0000 C   0  0  0  0  0  0  0  0  0  0  0  0
    4.5896   -1.2233    0.0000 C   0  0  2  0  0  0  0  0  0  0  0  0
    6.5751   -0.2840    0.0000 C   0  0  0  0  0  0  0  0  0  0  0  0
    5.4753   -3.7899    0.0000 C   0  0  0  0  0  0  0  0  0  0  0  0
    8.1607   -3.6888    0.0000 C   0  0  0  0  0  0  0  0  0  0  0  0
    9.0889   -2.9673    0.0000 C   0  0  0  0  0  0  0  0  0  0  0  0
    6.0843    0.7920    0.0000 C   0  0  0  0  0  0  0  0  0  0  0  0
    9.7709   -0.2749    0.0000 C   0  0  0  0  0  0  0  0  0  0  0  0
    4.4208    0.6324    0.0000 C   0  0  0  0  0  0  0  0  0  0  0  0
    2.8577   -1.1950    0.0000 C   0  0  0  0  0  0  0  0  0  0  0  0
    7.7049    1.0289    0.0000 C   0  0  0  0  0  0  0  0  0  0  0  0
    6.0469    1.7913    0.0000 C   0  0  0  0  0  0  0  0  0  0  0  0
    3.4896    0.9969    0.0000 C   0  0  0  0  0  0  0  0  0  0  0  0
   10.5449   -0.9081    0.0000 C   0  0  0  0  0  0  0  0  0  0  0  0
    2.0000   -0.6810    0.0000 C   0  0  0  0  0  0  0  0  0  0  0  0
    8.3572    1.7868    0.0000 C   0  0  0  0  0  0  0  0  0  0  0  0
    5.1628    2.2586    0.0000 C   0  0  0  0  0  0  0  0  0  0  0  0
    6.8936    2.3234    0.0000 C   0  0  0  0  0  0  0  0  0  0  0  0
   10.3836   -1.8949    0.0000 C   0  0  0  0  0  0  0  0  0  0  0  0
   11.4802   -0.5543    0.0000 C   0  0  0  0  0  0  0  0  0  0  0  0
    9.3397    1.6009    0.0000 C   0  0  0  0  0  0  0  0  0  0  0  0
    8.0269    2.7307    0.0000 C   0  0  0  0  0  0  0  0  0  0  0  0
    5.1254    3.2579    0.0000 C   0  0  0  0  0  0  0  0  0  0  0  0
    6.8562    3.3227    0.0000 C   0  0  0  0  0  0  0  0  0  0  0  0
   11.1575   -2.5281    0.0000 C   0  0  0  0  0  0  0  0  0  0  0  0
    5.9721    3.7899    0.0000 C   0  0  0  0  0  0  0  0  0  0  0  0
    9.9920    2.3589    0.0000 C   0  0  0  0  0  0  0  0  0  0  0  0
   12.0929   -2.1744    0.0000 C   0  0  0  0  0  0  0  0  0  0  0  0
    9.6618    3.3028    0.0000 C   0  0  0  0  0  0  0  0  0  0  0  0
    9.4044   -1.6150    0.0000 H   0  0  0  0  0  0  0  0  0  0  0  0
    7.6490   -1.1054    0.0000 H   0  0  0  0  0  0  0  0  0  0  0  0
    6.9362   -1.2587    0.0000 H   0  0  0  0  0  0  0  0  0  0  0  0
    7.6226   -0.2199    0.0000 H   0  0  0  0  0  0  0  0  0  0  0  0
    4.9384   -3.0984    0.0000 H   0  0  0  0  0  0  0  0  0  0  0  0
    7.9533   -0.2998    0.0000 H   0  0  0  0  0  0  0  0  0  0  0  0
    6.0189   -0.3785    0.0000 H   0  0  0  0  0  0  0  0  0  0  0  0
    3.9671   -2.1511    0.0000 H   0  0  0  0  0  0  0  0  0  0  0  0
    4.3603   -2.8459    0.0000 H   0  0  0  0  0  0  0  0  0  0  0  0
    4.0482   -1.5255    0.0000 H   0  0  0  0  0  0  0  0  0  0  0  0
    6.4751    0.3279    0.0000 H   0  0  0  0  0  0  0  0  0  0  0  0
    5.9551   -0.2763    0.0000 H   0  0  0  0  0  0  0  0  0  0  0  0
    4.8553   -3.7894    0.0000 H   0  0  0  0  0  0  0  0  0  0  0  0
    5.4747   -4.4099    0.0000 H   0  0  0  0  0  0  0  0  0  0  0  0
    6.0953   -3.7905    0.0000 H   0  0  0  0  0  0  0  0  0  0  0  0
    7.5411   -3.7089    0.0000 H   0  0  0  0  0  0  0  0  0  0  0  0
    8.1808   -4.3085    0.0000 H   0  0  0  0  0  0  0  0  0  0  0  0
    8.7804   -3.6687    0.0000 H   0  0  0  0  0  0  0  0  0  0  0  0
    8.9165   -3.5629    0.0000 H   0  0  0  0  0  0  0  0  0  0  0  0
    9.6845   -3.1397    0.0000 H   0  0  0  0  0  0  0  0  0  0  0  0
    9.2613   -2.3718    0.0000 H   0  0  0  0  0  0  0  0  0  0  0  0
    3.7156    1.5743    0.0000 H   0  0  0  0  0  0  0  0  0  0  0  0
    2.9123    1.2229    0.0000 H   0  0  0  0  0  0  0  0  0  0  0  0
    3.2636    0.4196    0.0000 H   0  0  0  0  0  0  0  0  0  0  0  0
    2.3187   -0.1492    0.0000 H   0  0  0  0  0  0  0  0  0  0  0  0
    1.4682   -0.3622    0.0000 H   0  0  0  0  0  0  0  0  0  0  0  0
    1.6813   -1.2128    0.0000 H   0  0  0  0  0  0  0  0  0  0  0  0
    4.6378    1.9288    0.0000 H   0  0  0  0  0  0  0  0  0  0  0  0
    7.4417    2.0337    0.0000 H   0  0  0  0  0  0  0  0  0  0  0  0
    9.8037   -2.1142    0.0000 H   0  0  0  0  0  0  0  0  0  0  0  0
   11.5803    0.0575    0.0000 H   0  0  0  0  0  0  0  0  0  0  0  0
    9.5445    1.0157    0.0000 H   0  0  0  0  0  0  0  0  0  0  0  0
    7.4177    2.8460    0.0000 H   0  0  0  0  0  0  0  0  0  0  0  0
    4.5772    3.5476    0.0000 H   0  0  0  0  0  0  0  0  0  0  0  0
    7.3812    3.6525    0.0000 H   0  0  0  0  0  0  0  0  0  0  0  0
   11.0575   -3.1400    0.0000 H   0  0  0  0  0  0  0  0  0  0  0  0
    5.9489    4.4095    0.0000 H   0  0  0  0  0  0  0  0  0  0  0  0
   10.6012    2.2436    0.0000 H   0  0  0  0  0  0  0  0  0  0  0  0
   12.5728   -2.5670    0.0000 H   0  0  0  0  0  0  0  0  0  0  0  0
   10.0662    3.7727    0.0000 H   0  0  0  0  0  0  0  0  0  0  0  0
 14  1  1  1  0  0  0
  1 20  1  0  0  0  0
 18  2  1  1  0  0  0
  2 29  1  0  0  0  0
 21  3  1  6  0  0  0
  3 30  1  0  0  0  0
 22  4  1  6  0  0  0
  4 31  1  0  0  0  0
 24  5  1  6  0  0  0
  5 32  1  0  0  0  0
  6 25  1  0  0  0  0
  6 33  1  0  0  0  0
  7 29  2  0  0  0  0
  8 30  2  0  0  0  0
  9 31  2  0  0  0  0
 10 32  2  0  0  0  0
 11 33  2  0  0  0  0
 12 42  1  0  0  0  0
 12 50  2  0  0  0  0
 13 44  1  0  0  0  0
 13 51  2  0  0  0  0
 14 15  1  0  0  0  0
 14 17  1  0  0  0  0
 14 19  1  0  0  0  0
 15 18  1  0  0  0  0
 15 22  1  0  0  0  0
 15 25  1  6  0  0  0
 16 17  1  0  0  0  0
 16 20  1  0  0  0  0
 16 21  1  0  0  0  0
 16 52  1  6  0  0  0
 17 53  1  0  0  0  0
 17 54  1  0  0  0  0
 18 21  1  0  0  0  0
 18 55  1  0  0  0  0
 19 23  1  0  0  0  0
 19 26  1  6  0  0  0
 19 56  1  0  0  0  0
 20 27  1  0  0  0  0
 20 28  1  0  0  0  0
 21 57  1  0  0  0  0
 22 24  1  0  0  0  0
 22 58  1  0  0  0  0
 23 24  1  0  0  0  0
 23 59  1  0  0  0  0
 23 60  1  0  0  0  0
 24 61  1  0  0  0  0
 25 62  1  0  0  0  0
 25 63  1  0  0  0  0
 26 64  1  0  0  0  0
 26 65  1  0  0  0  0
 26 66  1  0  0  0  0
 27 67  1  0  0  0  0
 27 68  1  0  0  0  0
 27 69  1  0  0  0  0
 28 70  1  0  0  0  0
 28 71  1  0  0  0  0
 28 72  1  0  0  0  0
 29 34  1  0  0  0  0
 30 36  1  0  0  0  0
 31 35  1  0  0  0  0
 32 37  1  0  0  0  0
 33 38  1  0  0  0  0
 34 39  2  0  0  0  0
 34 40  1  0  0  0  0
 35 73  1  0  0  0  0
 35 74  1  0  0  0  0
 35 75  1  0  0  0  0
 36 41  1  0  0  0  0
 36 42  2  0  0  0  0
 37 76  1  0  0  0  0
 37 77  1  0  0  0  0
 37 78  1  0  0  0  0
 38 43  1  0  0  0  0
 38 44  2  0  0  0  0
 39 45  1  0  0  0  0
 39 79  1  0  0  0  0
 40 46  2  0  0  0  0
 40 80  1  0  0  0  0
 41 47  2  0  0  0  0
 41 81  1  0  0  0  0
 42 82  1  0  0  0  0
 43 49  2  0  0  0  0
 43 83  1  0  0  0  0
 44 84  1  0  0  0  0
 45 48  2  0  0  0  0
 45 85  1  0  0  0  0
 46 48  1  0  0  0  0
 46 86  1  0  0  0  0
 47 50  1  0  0  0  0
 47 87  1  0  0  0  0
 48 88  1  0  0  0  0
 49 51  1  0  0  0  0
 49 89  1  0  0  0  0
 50 90  1  0  0  0  0
 51 91  1  0  0  0  0
M  END
> <PUBCHEM_COMPOUND_CID>
442517

> <PUBCHEM_COMPOUND_CANONICALIZED>
1

> <PUBCHEM_CACTVS_COMPLEXITY>
1330

> <PUBCHEM_CACTVS_HBOND_ACCEPTOR>
13

> <PUBCHEM_CACTVS_HBOND_DONOR>
0

> <PUBCHEM_CACTVS_ROTATABLE_BOND>
14

> <PUBCHEM_CACTVS_SUBSKEYS>
AAADcfB/PAAAAAAAAAAAAAAAAAAAASAAAAA8eMECBIAAAADB8AAAHgAAAAAAD1ThmgY+iJIIFACoAjD3TACCgCA1AiAI2CE4bNgJJvrAtZmGMYhnwAHK6cfY+f6PgAAAAAAAAADCAAYQADCAAAAAAAAAAA==

> <PUBCHEM_IUPAC_INCHI>
InChI=1S/C38H40N2O11/c1-22-17-29(47-23(2)41)31(48-24(3)42)37(21-46-33(43)26-13-9-15-39-19-26)32(50-34(44)25-11-7-6-8-12-25)30(28-18-38(22,37)51-36(28,4)5)49-35(45)27-14-10-16-40-20-27/h6-16,19-20,22,28-32H,17-18,21H2,1-5H3/t22-,28+,29+,30-,31+,32+,37+,38+/m1/s1

> <PUBCHEM_IUPAC_INCHIKEY>
JNJVNIAUYUVQJX-VIUWVPTDSA-N

> <PUBCHEM_XLOGP3_AA>
4.3

> <PUBCHEM_EXACT_MASS>
700.26321

> <PUBCHEM_MOLECULAR_FORMULA>
C38H40N2O11

> <PUBCHEM_MOLECULAR_WEIGHT>
700.731

> <PUBCHEM_OPENEYE_CAN_SMILES>
CC1CC(C(C2(C13CC(C(C2OC(=O)C4=CC=CC=C4)OC(=O)C5=CN=CC=C5)C(O3)(C)C)COC(=O)C6=CN=CC=C6)OC(=O)C)OC(=O)C

> <PUBCHEM_OPENEYE_ISO_SMILES>
C[C@@H]1C[C@@H]([C@@H]([C@@]2([C@]13C[C@@H]([C@H]([C@@H]2OC(=O)C4=CC=CC=C4)OC(=O)C5=CN=CC=C5)C(O3)(C)C)COC(=O)C6=CN=CC=C6)OC(=O)C)OC(=O)C

> <PUBCHEM_CACTVS_TPSA>
167

> <PUBCHEM_MONOISOTOPIC_WEIGHT>
700.26321

> <PUBCHEM_TOTAL_CHARGE>
0

> <PUBCHEM_HEAVY_ATOM_COUNT>
51

> <PUBCHEM_ATOM_DEF_STEREO_COUNT>
8

> <PUBCHEM_ATOM_UDEF_STEREO_COUNT>
0

> <PUBCHEM_BOND_DEF_STEREO_COUNT>
0

> <PUBCHEM_BOND_UDEF_STEREO_COUNT>
0

> <PUBCHEM_ISOTOPIC_ATOM_COUNT>
0

> <PUBCHEM_COMPONENT_COUNT>
1

> <PUBCHEM_CACTVS_TAUTO_COUNT>
1

> <PUBCHEM_COORDINATE_TYPE>
1
5
255

> <PUBCHEM_BONDANNOTATIONS>
14  1  5
12  42  8
12  50  8
13  44  8
13  51  8
15  25  6
16  52  6
19  26  6
18  2  5
21  3  6
34  39  8
34  40  8
36  41  8
36  42  8
38  43  8
38  44  8
39  45  8
22  4  6
40  46  8
41  47  8
43  49  8
45  48  8
46  48  8
47  50  8
49  51  8
24  5  6

$$$$

