10076
  -OEChem-06261204172D

 37 41  0     1  0  0  0  0  0999 V2000
    5.6931    0.2295    0.0000 O   0  0  0  0  0  0  0  0  0  0  0  0
    6.7236    2.1667    0.0000 O   0  0  0  0  0  0  0  0  0  0  0  0
    5.4145   -2.3132    0.0000 O   0  0  0  0  0  0  0  0  0  0  0  0
    2.7455    0.9983    0.0000 N   0  0  0  0  0  0  0  0  0  0  0  0
    4.3007    1.0367    0.0000 C   0  0  2  0  0  0  0  0  0  0  0  0
    3.5575    1.7058    0.0000 C   0  0  3  0  0  0  0  0  0  0  0  0
    5.2896    1.1380    0.0000 C   0  0  2  0  0  0  0  0  0  0  0  0
    2.6065    1.3968    0.0000 C   0  0  2  0  0  0  0  0  0  0  0  0
    4.0927    0.0585    0.0000 C   0  0  0  0  0  0  0  0  0  0  0  0
    4.0116    0.7292    0.0000 C   0  0  0  0  0  0  0  0  0  0  0  0
    2.3985    0.4186    0.0000 C   0  0  0  0  0  0  0  0  0  0  0  0
    3.1417   -0.2505    0.0000 C   0  0  0  0  0  0  0  0  0  0  0  0
    3.2808    0.4038    0.0000 C   0  0  0  0  0  0  0  0  0  0  0  0
    5.7277    2.0762    0.0000 C   0  0  2  0  0  0  0  0  0  0  0  0
    4.0977    2.8146    0.0000 C   0  0  0  0  0  0  0  0  0  0  0  0
    4.8775   -0.6264    0.0000 C   0  0  0  0  0  0  0  0  0  0  0  0
    5.1277    2.9202    0.0000 C   0  0  0  0  0  0  0  0  0  0  0  0
    2.9094   -1.2659    0.0000 C   0  0  0  0  0  0  0  0  0  0  0  0
    4.6688   -1.6470    0.0000 C   0  0  0  0  0  0  0  0  0  0  0  0
    3.6781   -1.9688    0.0000 C   0  0  0  0  0  0  0  0  0  0  0  0
    3.1506    2.1736    0.0000 H   0  0  0  0  0  0  0  0  0  0  0  0
    6.0895    1.1305    0.0000 H   0  0  0  0  0  0  0  0  0  0  0  0
    1.8239    1.5631    0.0000 H   0  0  0  0  0  0  0  0  0  0  0  0
    4.0288    0.1094    0.0000 H   0  0  0  0  0  0  0  0  0  0  0  0
    3.6526    1.2347    0.0000 H   0  0  0  0  0  0  0  0  0  0  0  0
    1.8237    0.6509    0.0000 H   0  0  0  0  0  0  0  0  0  0  0  0
    2.0700   -0.1071    0.0000 H   0  0  0  0  0  0  0  0  0  0  0  0
    2.7792    0.0394    0.0000 H   0  0  0  0  0  0  0  0  0  0  0  0
    3.5908   -0.1331    0.0000 H   0  0  0  0  0  0  0  0  0  0  0  0
    5.9868    2.6395    0.0000 H   0  0  0  0  0  0  0  0  0  0  0  0
    2.1289    0.9335    0.0000 H   0  0  0  0  0  0  0  0  0  0  0  0
    3.7426    3.3228    0.0000 H   0  0  0  0  0  0  0  0  0  0  0  0
    5.3835    3.4849    0.0000 H   0  0  0  0  0  0  0  0  0  0  0  0
    2.3176   -1.4507    0.0000 H   0  0  0  0  0  0  0  0  0  0  0  0
    3.5469   -2.5748    0.0000 H   0  0  0  0  0  0  0  0  0  0  0  0
    6.9838    2.7294    0.0000 H   0  0  0  0  0  0  0  0  0  0  0  0
    5.2879   -2.9202    0.0000 H   0  0  0  0  0  0  0  0  0  0  0  0
  1  7  1  0  0  0  0
  1 16  1  0  0  0  0
  2 14  1  0  0  0  0
  2 36  1  0  0  0  0
  3 19  1  0  0  0  0
  3 37  1  0  0  0  0
  4  8  1  0  0  0  0
  4 13  1  0  0  0  0
  4 31  1  0  0  0  0
  5  6  1  0  0  0  0
  5  7  1  0  0  0  0
  5  9  1  0  0  0  0
  5 10  1  0  0  0  0
  6  8  1  0  0  0  0
  6 15  1  0  0  0  0
  6 21  1  0  0  0  0
  7 14  1  0  0  0  0
  7 22  1  0  0  0  0
  8 11  1  0  0  0  0
  8 23  1  0  0  0  0
  9 12  2  0  0  0  0
  9 16  1  0  0  0  0
 10 13  1  0  0  0  0
 10 24  1  0  0  0  0
 10 25  1  0  0  0  0
 11 12  1  0  0  0  0
 11 26  1  0  0  0  0
 11 27  1  0  0  0  0
 12 18  1  0  0  0  0
 13 28  1  0  0  0  0
 13 29  1  0  0  0  0
 14 17  1  0  0  0  0
 14 30  1  0  0  0  0
 15 17  2  0  0  0  0
 15 32  1  0  0  0  0
 16 19  2  0  0  0  0
 17 33  1  0  0  0  0
 18 20  2  0  0  0  0
 18 34  1  0  0  0  0
 19 20  1  0  0  0  0
 20 35  1  0  0  0  0
M  END
> <PUBCHEM_COMPOUND_CID>
10076

> <PUBCHEM_COMPOUND_CANONICALIZED>
1

> <PUBCHEM_CACTVS_COMPLEXITY>
467

> <PUBCHEM_CACTVS_HBOND_ACCEPTOR>
4

> <PUBCHEM_CACTVS_HBOND_DONOR>
3

> <PUBCHEM_CACTVS_ROTATABLE_BOND>
0

> <PUBCHEM_CACTVS_SUBSKEYS>
AAADceB6MAAAAAAAAAAAAAAAAAAAASAAAAA8YIEAAAAWAEjBAAAAHgAQCAAADzzhmAYwBoLABgCAAiBCAAACCAAgIAAIiIAOiIgNNiKGsRuGeCOk0BGLuAew8PcPoAABAAAYQADQAAaAADSAAAAAAAAAAA==

> <PUBCHEM_IUPAC_OPENEYE_NAME>
(4S,7S,7aR,12bS)-1,2,3,4,4a,7,7a,13-octahydro-4,12-methanobenzofuro[3,2-e]isoquinoline-7,9-diol

> <PUBCHEM_IUPAC_CAS_NAME>
(4S,7S,7aR,12bS)-1,2,3,4,4a,7,7a,13-octahydro-4,12-methanobenzofuro[3,2-e]isoquinoline-7,9-diol

> <PUBCHEM_IUPAC_NAME>
(4S,7S,7aR,12bS)-1,2,3,4,4a,7,7a,13-octahydro-4,12-methanobenzofuro[3,2-e]isoquinoline-7,9-diol

> <PUBCHEM_IUPAC_SYSTEMATIC_NAME>
(4S,7S,7aR,12bS)-1,2,3,4,4a,7,7a,13-octahydro-4,12-methanobenzofuro[3,2-e]isoquinoline-7,9-diol

> <PUBCHEM_IUPAC_TRADITIONAL_NAME>
(4S,7S,7aR,12bS)-1,2,3,4,4a,7,7a,13-octahydro-4,12-methanobenzofuro[3,2-e]isoquinoline-7,9-diol

> <PUBCHEM_IUPAC_INCHI>
InChI=1S/C16H17NO3/c18-11-3-1-8-7-10-9-2-4-12(19)15-16(9,5-6-17-10)13(8)14(11)20-15/h1-4,9-10,12,15,17-19H,5-7H2/t9?,10-,12-,15-,16-/m0/s1

> <PUBCHEM_IUPAC_INCHIKEY>
ONBWJWYUHXVEJS-ULRMONRASA-N

> <PUBCHEM_XLOGP3>
0.3

> <PUBCHEM_EXACT_MASS>
271.120843

> <PUBCHEM_MOLECULAR_FORMULA>
C16H17NO3

> <PUBCHEM_MOLECULAR_WEIGHT>
271.31108

> <PUBCHEM_OPENEYE_CAN_SMILES>
C1CNC2CC3=C4C15C2C=CC(C5OC4=C(C=C3)O)O

> <PUBCHEM_OPENEYE_ISO_SMILES>
C1CN[C@H]2CC3=C4[C@@]15C2C=C[C@@H]([C@@H]5OC4=C(C=C3)O)O

> <PUBCHEM_CACTVS_TPSA>
61.7

> <PUBCHEM_MONOISOTOPIC_WEIGHT>
271.120843

> <PUBCHEM_TOTAL_CHARGE>
0

> <PUBCHEM_HEAVY_ATOM_COUNT>
20

> <PUBCHEM_ATOM_DEF_STEREO_COUNT>
4

> <PUBCHEM_ATOM_UDEF_STEREO_COUNT>
1

> <PUBCHEM_BOND_DEF_STEREO_COUNT>
0

> <PUBCHEM_BOND_UDEF_STEREO_COUNT>
0

> <PUBCHEM_ISOTOPIC_ATOM_COUNT>
0

> <PUBCHEM_COMPONENT_COUNT>
1

> <PUBCHEM_CACTVS_TAUTO_COUNT>
3

> <PUBCHEM_COORDINATE_TYPE>
1
5
255

> <PUBCHEM_BONDANNOTATIONS>
12  18  8
16  19  8
18  20  8
19  20  8
14  2  3
5  10  3
6  21  3
7  22  3
8  23  3
9  12  8
9  16  8

$$$$

