442841
  -OEChem-07051212592D

 32 33  0     1  0  0  0  0  0999 V2000
    3.8660    1.8100    0.0000 O   0  0  0  0  0  0  0  0  0  0  0  0
    4.7320    0.3100    0.0000 N   0  0  0  0  0  0  0  0  0  0  0  0
    3.8660   -1.1900    0.0000 N   0  0  0  0  0  0  0  0  0  0  0  0
    5.6783   -0.9947    0.0000 N   0  0  0  0  0  0  0  0  0  0  0  0
    3.0000   -0.6900    0.0000 C   0  0  0  0  0  0  0  0  0  0  0  0
    3.0000    0.3100    0.0000 C   0  0  0  0  0  0  0  0  0  0  0  0
    5.6783    0.6147    0.0000 C   0  0  0  0  0  0  0  0  0  0  0  0
    4.7320   -0.6900    0.0000 C   0  0  0  0  0  0  0  0  0  0  0  0
    6.2619   -0.1900    0.0000 C   0  0  3  0  0  0  0  0  0  0  0  0
    3.8660    0.8100    0.0000 C   0  0  0  0  0  0  0  0  0  0  0  0
    2.0000   -0.6900    0.0000 C   0  0  0  0  0  0  0  0  0  0  0  0
    2.5000   -1.5560    0.0000 C   0  0  0  0  0  0  0  0  0  0  0  0
    7.2619   -0.1900    0.0000 C   0  0  0  0  0  0  0  0  0  0  0  0
    7.7619    0.6760    0.0000 C   0  0  0  0  0  0  0  0  0  0  0  0
    7.7619   -1.0560    0.0000 C   0  0  0  0  0  0  0  0  0  0  0  0
    2.7880    0.8926    0.0000 H   0  0  0  0  0  0  0  0  0  0  0  0
    2.3894    0.2023    0.0000 H   0  0  0  0  0  0  0  0  0  0  0  0
    6.2156    0.9240    0.0000 H   0  0  0  0  0  0  0  0  0  0  0  0
    5.4272    1.1816    0.0000 H   0  0  0  0  0  0  0  0  0  0  0  0
    3.8660   -1.8100    0.0000 H   0  0  0  0  0  0  0  0  0  0  0  0
    6.5436   -0.7423    0.0000 H   0  0  0  0  0  0  0  0  0  0  0  0
    2.0000   -0.0700    0.0000 H   0  0  0  0  0  0  0  0  0  0  0  0
    1.3800   -0.6900    0.0000 H   0  0  0  0  0  0  0  0  0  0  0  0
    2.0000   -1.3100    0.0000 H   0  0  0  0  0  0  0  0  0  0  0  0
    1.9631   -1.2460    0.0000 H   0  0  0  0  0  0  0  0  0  0  0  0
    2.1900   -2.0930    0.0000 H   0  0  0  0  0  0  0  0  0  0  0  0
    3.0369   -1.8660    0.0000 H   0  0  0  0  0  0  0  0  0  0  0  0
    8.2988    0.3660    0.0000 H   0  0  0  0  0  0  0  0  0  0  0  0
    8.0719    1.2130    0.0000 H   0  0  0  0  0  0  0  0  0  0  0  0
    7.2249    0.9860    0.0000 H   0  0  0  0  0  0  0  0  0  0  0  0
    7.4519   -1.5930    0.0000 H   0  0  0  0  0  0  0  0  0  0  0  0
    8.3819   -1.0560    0.0000 H   0  0  0  0  0  0  0  0  0  0  0  0
  1 10  2  0  0  0  0
  2  7  1  0  0  0  0
  2  8  1  0  0  0  0
  2 10  1  0  0  0  0
  3  5  1  0  0  0  0
  3  8  1  0  0  0  0
  3 20  1  0  0  0  0
  4  8  2  0  0  0  0
  4  9  1  0  0  0  0
  5  6  1  0  0  0  0
  5 11  1  0  0  0  0
  5 12  1  0  0  0  0
  6 10  1  0  0  0  0
  6 16  1  0  0  0  0
  6 17  1  0  0  0  0
  7  9  1  0  0  0  0
  7 18  1  0  0  0  0
  7 19  1  0  0  0  0
  9 13  1  0  0  0  0
  9 21  1  0  0  0  0
 11 22  1  0  0  0  0
 11 23  1  0  0  0  0
 11 24  1  0  0  0  0
 12 25  1  0  0  0  0
 12 26  1  0  0  0  0
 12 27  1  0  0  0  0
 13 14  1  0  0  0  0
 13 15  2  0  0  0  0
 14 28  1  0  0  0  0
 14 29  1  0  0  0  0
 14 30  1  0  0  0  0
 15 31  1  0  0  0  0
 15 32  1  0  0  0  0
M  END
> <PUBCHEM_COMPOUND_CID>
442841

> <PUBCHEM_COMPOUND_CANONICALIZED>
1

> <PUBCHEM_CACTVS_COMPLEXITY>
357

> <PUBCHEM_CACTVS_HBOND_ACCEPTOR>
2

> <PUBCHEM_CACTVS_HBOND_DONOR>
1

> <PUBCHEM_CACTVS_ROTATABLE_BOND>
1

> <PUBCHEM_CACTVS_SUBSKEYS>
AAADceBzIAAAAAAAAAAAAAAAAAAAAQAAAAAsAAAAAAAAAEAAAAAAHgAQAAAADKjBgAQDAAPAAACoAgFSNACAAAEgAAABAAEIAAiAQBgAyQAUAAAIFwKAAAAAAAAIAAAAAAAAAAAAAAAAAAAAAAAAAAAAAA==

> <PUBCHEM_IUPAC_OPENEYE_NAME>
2-isopropenyl-7,7-dimethyl-2,3,6,8-tetrahydroimidazo[1,2-a]pyrimidin-5-one

> <PUBCHEM_IUPAC_CAS_NAME>
7,7-dimethyl-2-(1-methylethenyl)-2,3,6,8-tetrahydroimidazo[1,2-a]pyrimidin-5-one

> <PUBCHEM_IUPAC_NAME>
7,7-dimethyl-2-prop-1-en-2-yl-2,3,6,8-tetrahydroimidazo[1,2-a]pyrimidin-5-one

> <PUBCHEM_IUPAC_SYSTEMATIC_NAME>
7,7-dimethyl-2-prop-1-en-2-yl-2,3,6,8-tetrahydroimidazo[1,2-a]pyrimidin-5-one

> <PUBCHEM_IUPAC_TRADITIONAL_NAME>
2-isopropenyl-7,7-dimethyl-2,3,6,8-tetrahydroimidazo[1,2-a]pyrimidin-5-one

> <PUBCHEM_IUPAC_INCHI>
InChI=1S/C11H17N3O/c1-7(2)8-6-14-9(15)5-11(3,4)13-10(14)12-8/h8H,1,5-6H2,2-4H3,(H,12,13)

> <PUBCHEM_IUPAC_INCHIKEY>
OWOGBGTWYNGTCR-UHFFFAOYSA-N

> <PUBCHEM_XLOGP3_AA>
0.8

> <PUBCHEM_EXACT_MASS>
207.137162

> <PUBCHEM_MOLECULAR_FORMULA>
C11H17N3O

> <PUBCHEM_MOLECULAR_WEIGHT>
207.27218

> <PUBCHEM_OPENEYE_CAN_SMILES>
CC(=C)C1CN2C(=O)CC(NC2=N1)(C)C

> <PUBCHEM_OPENEYE_ISO_SMILES>
CC(=C)C1CN2C(=O)CC(NC2=N1)(C)C

> <PUBCHEM_CACTVS_TPSA>
44.7

> <PUBCHEM_MONOISOTOPIC_WEIGHT>
207.137162

> <PUBCHEM_TOTAL_CHARGE>
0

> <PUBCHEM_HEAVY_ATOM_COUNT>
15

> <PUBCHEM_ATOM_DEF_STEREO_COUNT>
0

> <PUBCHEM_ATOM_UDEF_STEREO_COUNT>
1

> <PUBCHEM_BOND_DEF_STEREO_COUNT>
0

> <PUBCHEM_BOND_UDEF_STEREO_COUNT>
0

> <PUBCHEM_ISOTOPIC_ATOM_COUNT>
0

> <PUBCHEM_COMPONENT_COUNT>
1

> <PUBCHEM_CACTVS_TAUTO_COUNT>
4

> <PUBCHEM_COORDINATE_TYPE>
1
5
255

> <PUBCHEM_BONDANNOTATIONS>
9  13  3

$$$$

