   Color/Form
        Pale brown, viscous liquid (tech.). Crystalline at lower
   temperatures. /Technical butocarboxim/
   from [1]HSDB

   Melting Point
        37 deg C ((E)- isomer); ((Z)- isomer is an oil at room
   temperature)
   from [2]HSDB

   Density/Specific Gravity
        1.12 (20 deg C)
   from [3]HSDB

   Octanol/Water Partition Coefficient
        log Kow = 1.1
   from [4]HSDB

   Solubilities

     * Soluble in most organic solvents.
     * Completely miscible with aromatic hydrocarbons, esters, and
       ketones. Low solubility in aliphatic hydrocarbons (11 g/l) and
       carbon tetrachloride.
     * In water, 35 g/l @ 20 deg C

   from [5]HSDB

   Vapor Pressure
        7.95X10-5 mm Hg @ 20 deg C
   from [6]HSDB

   Other Chemical/Physical Properties

     * Liquid /Technical/
     * stable at pH 4-7

   from [7]HSDB

   Computed Properties
   Molecular Weight                  190.26326 [g/mol]
   Molecular Formula                 C[7]H[14]N[2]O[2]S
   XLogP3-AA                         1.2
   H-Bond Donor                      1
   H-Bond Acceptor                   4
   Rotatable Bond Count              4
   Tautomer Count                    6
   Exact Mass                        190.077599
   MonoIsotopic Mass                 190.077599
   Topological Polar Surface Area    76
   Heavy Atom Count                  12
   Formal Charge                     0
   Complexity                        182
   Isotope Atom Count                0
   Defined Atom Stereocenter Count   0
   Undefined Atom Stereocenter Count 1
   Defined Bond Stereocenter Count   1
   Undefined Bond Stereocenter Count 0
   Covalently-Bonded Unit Count      1
   Feature 3D Acceptor Count         2
   Feature 3D Donor Count            1
   Feature 3D Hydrophobe Count       2
   Effective Rotor Count             5
   Conformer Sampling RMSD           0.6
   CID Conformer Count               [8]194

References

   1. http://toxnet.nlm.nih.gov/cgi-bin/sis/search/r?dbs+hsdb:@term+@rn+@rel+34681-10-2
   2. http://toxnet.nlm.nih.gov/cgi-bin/sis/search/r?dbs+hsdb:@term+@rn+@rel+34681-10-2
   3. http://toxnet.nlm.nih.gov/cgi-bin/sis/search/r?dbs+hsdb:@term+@rn+@rel+34681-10-2
   4. http://toxnet.nlm.nih.gov/cgi-bin/sis/search/r?dbs+hsdb:@term+@rn+@rel+34681-10-2
   5. http://toxnet.nlm.nih.gov/cgi-bin/sis/search/r?dbs+hsdb:@term+@rn+@rel+34681-10-2
   6. http://toxnet.nlm.nih.gov/cgi-bin/sis/search/r?dbs+hsdb:@term+@rn+@rel+34681-10-2
   7. http://toxnet.nlm.nih.gov/cgi-bin/sis/search/r?dbs+hsdb:@term+@rn+@rel+34681-10-2
   8. http://pubchem.ncbi.nlm.nih.gov/vw3d/vw3d.cgi?cid=5360962
