441704
  -OEChem-07051212552D

 79 84  0     1  0  0  0  0  0999 V2000
    4.7203   -1.5407    0.0000 O   0  0  0  0  0  0  0  0  0  0  0  0
    4.2790   -0.7026    0.0000 O   0  0  0  0  0  0  0  0  0  0  0  0
    5.7966   -1.8714    0.0000 O   0  0  0  0  0  0  0  0  0  0  0  0
    7.6193    1.8904    0.0000 O   0  0  0  0  0  0  0  0  0  0  0  0
    3.9028    1.6388    0.0000 O   0  0  0  0  0  0  0  0  0  0  0  0
    3.5016    2.3483    0.0000 O   0  0  0  0  0  0  0  0  0  0  0  0
    8.4853   -2.3448    0.0000 O   0  0  0  0  0  0  0  0  0  0  0  0
    2.9058    0.2225    0.0000 O   0  0  0  0  0  0  0  0  0  0  0  0
    8.8146    0.0613    0.0000 N   0  0  3  0  0  0  0  0  0  0  0  0
    6.8679    0.4566    0.0000 C   0  0  2  0  0  0  0  0  0  0  0  0
    6.8679   -0.4110    0.0000 C   0  0  2  0  0  0  0  0  0  0  0  0
    7.8699    0.3505    0.0000 C   0  0  3  0  0  0  0  0  0  0  0  0
    6.1896    0.9975    0.0000 C   0  0  1  0  0  0  0  0  0  0  0  0
    5.3438   -0.7589    0.0000 C   0  0  2  0  0  0  0  0  0  0  0  0
    5.3438    0.8044    0.0000 C   0  0  1  0  0  0  0  0  0  0  0  0
    4.9674    0.0228    0.0000 C   0  0  1  0  0  0  0  0  0  0  0  0
    6.1896   -0.9519    0.0000 C   0  0  1  0  0  0  0  0  0  0  0  0
    7.6193   -0.8448    0.0000 C   0  0  2  0  0  0  0  0  0  0  0  0
    7.6193    0.8904    0.0000 C   0  0  2  0  0  0  0  0  0  0  0  0
    6.2674    1.8616    0.0000 C   0  0  0  0  0  0  0  0  0  0  0  0
    5.4696    2.2026    0.0000 C   0  0  1  0  0  0  0  0  0  0  0  0
    4.8988    1.5492    0.0000 C   0  0  2  0  0  0  0  0  0  0  0  0
    4.3225    0.2927    0.0000 C   0  0  0  0  0  0  0  0  0  0  0  0
    8.8146   -0.6906    0.0000 C   0  0  0  0  0  0  0  0  0  0  0  0
    8.3706   -0.4110    0.0000 C   0  0  0  0  0  0  0  0  0  0  0  0
    4.3225    1.7772    0.0000 C   0  0  2  0  0  0  0  0  0  0  0  0
    8.3706    0.4566    0.0000 C   0  0  0  0  0  0  0  0  0  0  0  0
    7.6193   -1.8448    0.0000 C   0  0  0  0  0  0  0  0  0  0  0  0
    9.6186    0.6560    0.0000 C   0  0  0  0  0  0  0  0  0  0  0  0
    6.3964   -2.6716    0.0000 C   0  0  0  0  0  0  0  0  0  0  0  0
   10.5355    0.2571    0.0000 C   0  0  0  0  0  0  0  0  0  0  0  0
    8.4853    2.3904    0.0000 C   0  0  0  0  0  0  0  0  0  0  0  0
    2.9955    1.2185    0.0000 C   0  0  0  0  0  0  0  0  0  0  0  0
    3.5858    3.3448    0.0000 C   0  0  0  0  0  0  0  0  0  0  0  0
    8.4853   -3.3448    0.0000 C   0  0  0  0  0  0  0  0  0  0  0  0
    2.1778    1.7941    0.0000 C   0  0  0  0  0  0  0  0  0  0  0  0
    6.9314   -1.2586    0.0000 H   0  0  0  0  0  0  0  0  0  0  0  0
    7.9938    0.9580    0.0000 H   0  0  0  0  0  0  0  0  0  0  0  0
    6.9712    1.3316    0.0000 H   0  0  0  0  0  0  0  0  0  0  0  0
    4.4946    0.7663    0.0000 H   0  0  0  0  0  0  0  0  0  0  0  0
    6.3900   -1.5386    0.0000 H   0  0  0  0  0  0  0  0  0  0  0  0
    7.0823    1.2004    0.0000 H   0  0  0  0  0  0  0  0  0  0  0  0
    6.4501    2.4540    0.0000 H   0  0  0  0  0  0  0  0  0  0  0  0
    6.8757    1.7418    0.0000 H   0  0  0  0  0  0  0  0  0  0  0  0
    5.4904    3.0523    0.0000 H   0  0  0  0  0  0  0  0  0  0  0  0
    4.6680    2.1246    0.0000 H   0  0  0  0  0  0  0  0  0  0  0  0
    4.1605   -0.3058    0.0000 H   0  0  0  0  0  0  0  0  0  0  0  0
    3.7079    0.3744    0.0000 H   0  0  0  0  0  0  0  0  0  0  0  0
    9.4340   -0.6640    0.0000 H   0  0  0  0  0  0  0  0  0  0  0  0
    8.8676   -1.3083    0.0000 H   0  0  0  0  0  0  0  0  0  0  0  0
    8.9812   -0.3033    0.0000 H   0  0  0  0  0  0  0  0  0  0  0  0
    8.5826   -0.9936    0.0000 H   0  0  0  0  0  0  0  0  0  0  0  0
    4.4006    2.3923    0.0000 H   0  0  0  0  0  0  0  0  0  0  0  0
    8.5827    1.0392    0.0000 H   0  0  0  0  0  0  0  0  0  0  0  0
    8.9812    0.3489    0.0000 H   0  0  0  0  0  0  0  0  0  0  0  0
    7.4072   -2.4274    0.0000 H   0  0  0  0  0  0  0  0  0  0  0  0
    7.0087   -1.7371    0.0000 H   0  0  0  0  0  0  0  0  0  0  0  0
    4.9468   -2.1178    0.0000 H   0  0  0  0  0  0  0  0  0  0  0  0
    3.6846   -0.8787    0.0000 H   0  0  0  0  0  0  0  0  0  0  0  0
    9.1689    1.0829    0.0000 H   0  0  0  0  0  0  0  0  0  0  0  0
    9.9609    1.1730    0.0000 H   0  0  0  0  0  0  0  0  0  0  0  0
    6.8925   -2.2997    0.0000 H   0  0  0  0  0  0  0  0  0  0  0  0
    6.7683   -3.1677    0.0000 H   0  0  0  0  0  0  0  0  0  0  0  0
    5.9003   -3.0435    0.0000 H   0  0  0  0  0  0  0  0  0  0  0  0
   10.7829    0.8256    0.0000 H   0  0  0  0  0  0  0  0  0  0  0  0
   11.1041    0.0098    0.0000 H   0  0  0  0  0  0  0  0  0  0  0  0
   10.2882   -0.3114    0.0000 H   0  0  0  0  0  0  0  0  0  0  0  0
    8.1753    2.9273    0.0000 H   0  0  0  0  0  0  0  0  0  0  0  0
    9.0222    2.7004    0.0000 H   0  0  0  0  0  0  0  0  0  0  0  0
    8.7953    1.8534    0.0000 H   0  0  0  0  0  0  0  0  0  0  0  0
    2.9680    3.3970    0.0000 H   0  0  0  0  0  0  0  0  0  0  0  0
    3.6379    3.9626    0.0000 H   0  0  0  0  0  0  0  0  0  0  0  0
    4.2036    3.2926    0.0000 H   0  0  0  0  0  0  0  0  0  0  0  0
    9.1053   -3.3448    0.0000 H   0  0  0  0  0  0  0  0  0  0  0  0
    8.4853   -3.9648    0.0000 H   0  0  0  0  0  0  0  0  0  0  0  0
    7.8653   -3.3448    0.0000 H   0  0  0  0  0  0  0  0  0  0  0  0
    1.8209    1.2871    0.0000 H   0  0  0  0  0  0  0  0  0  0  0  0
    1.6708    2.1510    0.0000 H   0  0  0  0  0  0  0  0  0  0  0  0
    2.5346    2.3011    0.0000 H   0  0  0  0  0  0  0  0  0  0  0  0
 14  1  1  1  0  0  0
  1 58  1  0  0  0  0
 16  2  1  6  0  0  0
  2 59  1  0  0  0  0
 17  3  1  6  0  0  0
  3 30  1  0  0  0  0
 19  4  1  1  0  0  0
  4 32  1  0  0  0  0
 22  5  1  1  0  0  0
  5 33  1  0  0  0  0
 26  6  1  6  0  0  0
  6 34  1  0  0  0  0
  7 28  1  0  0  0  0
  7 35  1  0  0  0  0
  8 33  2  0  0  0  0
  9 12  1  0  0  0  0
  9 24  1  0  0  0  0
  9 29  1  0  0  0  0
 10 11  1  0  0  0  0
 10 12  1  0  0  0  0
 10 13  1  0  0  0  0
 10 19  1  6  0  0  0
 11 17  1  0  0  0  0
 11 18  1  0  0  0  0
 11 37  1  6  0  0  0
 12 14  1  0  0  0  0
 12 38  1  0  0  0  0
 13 15  1  0  0  0  0
 13 20  1  0  0  0  0
 13 39  1  6  0  0  0
 14 16  1  0  0  0  0
 14 17  1  0  0  0  0
 15 16  1  0  0  0  0
 15 22  1  0  0  0  0
 15 40  1  6  0  0  0
 16 23  1  0  0  0  0
 17 41  1  0  0  0  0
 18 24  1  0  0  0  0
 18 25  1  0  0  0  0
 18 28  1  6  0  0  0
 19 27  1  0  0  0  0
 19 42  1  0  0  0  0
 20 21  1  0  0  0  0
 20 43  1  0  0  0  0
 20 44  1  0  0  0  0
 21 22  1  0  0  0  0
 21 26  1  0  0  0  0
 21 45  1  6  0  0  0
 22 46  1  0  0  0  0
 23 26  1  0  0  0  0
 23 47  1  0  0  0  0
 23 48  1  0  0  0  0
 24 49  1  0  0  0  0
 24 50  1  0  0  0  0
 25 27  1  0  0  0  0
 25 51  1  0  0  0  0
 25 52  1  0  0  0  0
 26 53  1  0  0  0  0
 27 54  1  0  0  0  0
 27 55  1  0  0  0  0
 28 56  1  0  0  0  0
 28 57  1  0  0  0  0
 29 31  1  0  0  0  0
 29 60  1  0  0  0  0
 29 61  1  0  0  0  0
 30 62  1  0  0  0  0
 30 63  1  0  0  0  0
 30 64  1  0  0  0  0
 31 65  1  0  0  0  0
 31 66  1  0  0  0  0
 31 67  1  0  0  0  0
 32 68  1  0  0  0  0
 32 69  1  0  0  0  0
 32 70  1  0  0  0  0
 33 36  1  0  0  0  0
 34 71  1  0  0  0  0
 34 72  1  0  0  0  0
 34 73  1  0  0  0  0
 35 74  1  0  0  0  0
 35 75  1  0  0  0  0
 35 76  1  0  0  0  0
 36 77  1  0  0  0  0
 36 78  1  0  0  0  0
 36 79  1  0  0  0  0
M  END
> <PUBCHEM_COMPOUND_CID>
441704

> <PUBCHEM_COMPOUND_CANONICALIZED>
1

> <PUBCHEM_CACTVS_COMPLEXITY>
918

> <PUBCHEM_CACTVS_HBOND_ACCEPTOR>
9

> <PUBCHEM_CACTVS_HBOND_DONOR>
2

> <PUBCHEM_CACTVS_ROTATABLE_BOND>
8

> <PUBCHEM_CACTVS_SUBSKEYS>
AAADcfB6PAAAAAAAAAAAAAAAAAAAAYMAAAA8YMEAB4gWAGAAAAAAHgAACAAAD3zhgAYCCAMABgAIAACQCAAAAAAAAAAAAAAIAAADAAIAgAAGQAAHAACTAAHw8P8PgAAAAAAAAADQAAaUADSgAaEADSgAAA==

> <PUBCHEM_IUPAC_INCHI>
InChI=1S/C27H43NO8/c1-7-28-12-24(13-32-3)9-8-18(34-5)26-16-10-15-17(33-4)11-25(30,19(16)20(15)36-14(2)29)27(31,23(26)28)22(35-6)21(24)26/h15-23,30-31H,7-13H2,1-6H3/t15-,16-,17+,18+,19-,20+,21-,22+,23?,24+,25-,26+,27-/m1/s1

> <PUBCHEM_IUPAC_INCHIKEY>
BQMFTYVYHRJVMQ-VEUWJJFUSA-N

> <PUBCHEM_XLOGP3_AA>
0

> <PUBCHEM_EXACT_MASS>
509.298867

> <PUBCHEM_MOLECULAR_FORMULA>
C27H43NO8

> <PUBCHEM_MOLECULAR_WEIGHT>
509.63222

> <PUBCHEM_OPENEYE_CAN_SMILES>
CCN1CC2(CCC(C34C2C(C(C31)(C5(CC(C6CC4C5C6OC(=O)C)OC)O)O)OC)OC)COC

> <PUBCHEM_OPENEYE_ISO_SMILES>
CCN1C[C@@]2(CC[C@@H]([C@@]34[C@@H]2[C@@H]([C@@](C31)([C@]5(C[C@@H]([C@H]6C[C@@H]4[C@@H]5[C@H]6OC(=O)C)OC)O)O)OC)OC)COC

> <PUBCHEM_CACTVS_TPSA>
107

> <PUBCHEM_MONOISOTOPIC_WEIGHT>
509.298867

> <PUBCHEM_TOTAL_CHARGE>
0

> <PUBCHEM_HEAVY_ATOM_COUNT>
36

> <PUBCHEM_ATOM_DEF_STEREO_COUNT>
12

> <PUBCHEM_ATOM_UDEF_STEREO_COUNT>
1

> <PUBCHEM_BOND_DEF_STEREO_COUNT>
0

> <PUBCHEM_BOND_UDEF_STEREO_COUNT>
0

> <PUBCHEM_ISOTOPIC_ATOM_COUNT>
0

> <PUBCHEM_COMPONENT_COUNT>
1

> <PUBCHEM_CACTVS_TAUTO_COUNT>
1

> <PUBCHEM_COORDINATE_TYPE>
1
5
255

> <PUBCHEM_BONDANNOTATIONS>
14  1  5
10  19  6
11  37  6
13  39  6
15  40  6
18  28  6
16  2  6
21  45  6
17  3  6
19  4  5
22  5  5
26  6  6
12  9  3

$$$$

