5496796
  -OEChem-07051212452D

 85 87  0     1  0  0  0  0  0999 V2000
   12.0632    0.2512    0.0000 P   0  0  3  0  0  0  0  0  0  0  0  0
   13.7953    0.2512    0.0000 P   0  0  3  0  0  0  0  0  0  0  0  0
   10.3312   -0.7488    0.0000 O   0  0  0  0  0  0  0  0  0  0  0  0
    7.7331    0.7512    0.0000 O   0  0  0  0  0  0  0  0  0  0  0  0
   17.3069    0.3445    0.0000 O   0  0  0  0  0  0  0  0  0  0  0  0
   11.1972    0.7512    0.0000 O   0  0  0  0  0  0  0  0  0  0  0  0
    7.7331   -1.2488    0.0000 O   0  0  0  0  0  0  0  0  0  0  0  0
   15.7547    2.4149    0.0000 O   0  0  0  0  0  0  0  0  0  0  0  0
   17.8828    2.8672    0.0000 O   0  0  0  0  0  0  0  0  0  0  0  0
   14.6613    0.7512    0.0000 O   0  0  0  0  0  0  0  0  0  0  0  0
   10.3312   -2.7488    0.0000 O   0  0  0  0  0  0  0  0  0  0  0  0
   12.9292   -0.2488    0.0000 O   0  0  0  0  0  0  0  0  0  0  0  0
   12.5632    1.1172    0.0000 O   0  0  0  0  0  0  0  0  0  0  0  0
   11.5632   -0.6148    0.0000 O   0  0  0  0  0  0  0  0  0  0  0  0
   11.1972    1.7512    0.0000 O   0  0  0  0  0  0  0  0  0  0  0  0
   14.2953   -0.6148    0.0000 O   0  0  0  0  0  0  0  0  0  0  0  0
    6.0010    1.7512    0.0000 O   0  0  0  0  0  0  0  0  0  0  0  0
   18.7895   -0.7395    0.0000 O   0  0  0  0  0  0  0  0  0  0  0  0
   13.2953    1.1172    0.0000 O   0  0  0  0  0  0  0  0  0  0  0  0
   21.9541    0.6695    0.0000 O   0  0  0  0  0  0  0  0  0  0  0  0
    2.5369    0.7512    0.0000 O   0  0  0  0  0  0  0  0  0  0  0  0
    3.4030   -0.7488    0.0000 O   0  0  0  0  0  0  0  0  0  0  0  0
    9.4651    1.7512    0.0000 N   0  0  0  0  0  0  0  0  0  0  0  0
   18.9705    0.9831    0.0000 N   0  0  0  0  0  0  0  0  0  0  0  0
   20.3718   -0.0350    0.0000 N   0  0  0  0  0  0  0  0  0  0  0  0
    5.1350    0.2512    0.0000 N   0  0  0  0  0  0  0  0  0  0  0  0
    8.5991    0.2512    0.0000 C   0  0  2  0  0  0  0  0  0  0  0  0
    9.4651    0.7512    0.0000 C   0  0  2  0  0  0  0  0  0  0  0  0
    8.5991   -0.7488    0.0000 C   0  0  1  0  0  0  0  0  0  0  0  0
    9.4651   -1.2488    0.0000 C   0  0  1  0  0  0  0  0  0  0  0  0
   10.3312    0.2512    0.0000 C   0  0  2  0  0  0  0  0  0  0  0  0
   16.4979    1.7457    0.0000 C   0  0  1  0  0  0  0  0  0  0  0  0
   17.4760    1.9536    0.0000 C   0  0  2  0  0  0  0  0  0  0  0  0
   16.3933    0.7512    0.0000 C   0  0  1  0  0  0  0  0  0  0  0  0
   17.9760    1.0876    0.0000 C   0  0  1  0  0  0  0  0  0  0  0  0
    9.4651   -2.2488    0.0000 C   0  0  0  0  0  0  0  0  0  0  0  0
   15.5273    0.2512    0.0000 C   0  0  0  0  0  0  0  0  0  0  0  0
    6.8671    0.2512    0.0000 C   0  0  2  0  0  0  0  0  0  0  0  0
   10.3312    2.2512    0.0000 C   0  0  0  0  0  0  0  0  0  0  0  0
    6.8671   -0.7488    0.0000 C   0  0  0  0  0  0  0  0  0  0  0  0
    6.0010    0.7512    0.0000 C   0  0  0  0  0  0  0  0  0  0  0  0
   19.3773    0.0695    0.0000 C   0  0  0  0  0  0  0  0  0  0  0  0
   19.5583    1.7921    0.0000 C   0  0  0  0  0  0  0  0  0  0  0  0
   10.3312    3.2512    0.0000 C   0  0  0  0  0  0  0  0  0  0  0  0
   20.5528    1.6876    0.0000 C   0  0  0  0  0  0  0  0  0  0  0  0
   20.9596    0.7740    0.0000 C   0  0  0  0  0  0  0  0  0  0  0  0
    4.2690    0.7512    0.0000 C   0  0  1  0  0  0  0  0  0  0  0  0
    4.2690    1.7512    0.0000 C   0  0  0  0  0  0  0  0  0  0  0  0
    3.4030    0.2512    0.0000 C   0  0  0  0  0  0  0  0  0  0  0  0
    8.5991    0.8712    0.0000 H   0  0  0  0  0  0  0  0  0  0  0  0
   10.0021    1.0612    0.0000 H   0  0  0  0  0  0  0  0  0  0  0  0
    8.5991   -1.3688    0.0000 H   0  0  0  0  0  0  0  0  0  0  0  0
   10.0021   -1.5588    0.0000 H   0  0  0  0  0  0  0  0  0  0  0  0
   10.3312    0.8712    0.0000 H   0  0  0  0  0  0  0  0  0  0  0  0
   16.6583    2.3446    0.0000 H   0  0  0  0  0  0  0  0  0  0  0  0
   18.0952    1.9861    0.0000 H   0  0  0  0  0  0  0  0  0  0  0  0
   16.4258    0.1321    0.0000 H   0  0  0  0  0  0  0  0  0  0  0  0
   18.3137    1.6076    0.0000 H   0  0  0  0  0  0  0  0  0  0  0  0
    8.9282    2.0612    0.0000 H   0  0  0  0  0  0  0  0  0  0  0  0
    8.8546   -2.1411    0.0000 H   0  0  0  0  0  0  0  0  0  0  0  0
    9.2531   -2.8314    0.0000 H   0  0  0  0  0  0  0  0  0  0  0  0
   15.1288   -0.2237    0.0000 H   0  0  0  0  0  0  0  0  0  0  0  0
   15.9258   -0.2237    0.0000 H   0  0  0  0  0  0  0  0  0  0  0  0
    7.4040   -0.0588    0.0000 H   0  0  0  0  0  0  0  0  0  0  0  0
    7.7331   -1.8688    0.0000 H   0  0  0  0  0  0  0  0  0  0  0  0
   15.8836    3.0213    0.0000 H   0  0  0  0  0  0  0  0  0  0  0  0
   17.5183    3.3688    0.0000 H   0  0  0  0  0  0  0  0  0  0  0  0
    6.2471   -0.7488    0.0000 H   0  0  0  0  0  0  0  0  0  0  0  0
    6.8671   -1.3688    0.0000 H   0  0  0  0  0  0  0  0  0  0  0  0
    7.4871   -0.7488    0.0000 H   0  0  0  0  0  0  0  0  0  0  0  0
   19.3061    2.3585    0.0000 H   0  0  0  0  0  0  0  0  0  0  0  0
   10.3312   -3.3688    0.0000 H   0  0  0  0  0  0  0  0  0  0  0  0
   10.9512    3.2512    0.0000 H   0  0  0  0  0  0  0  0  0  0  0  0
   10.3312    3.8712    0.0000 H   0  0  0  0  0  0  0  0  0  0  0  0
    9.7112    3.2512    0.0000 H   0  0  0  0  0  0  0  0  0  0  0  0
   20.6240   -0.6014    0.0000 H   0  0  0  0  0  0  0  0  0  0  0  0
   20.9173    2.1892    0.0000 H   0  0  0  0  0  0  0  0  0  0  0  0
    5.1350   -0.3688    0.0000 H   0  0  0  0  0  0  0  0  0  0  0  0
   12.2532    1.6542    0.0000 H   0  0  0  0  0  0  0  0  0  0  0  0
    4.2690    0.1312    0.0000 H   0  0  0  0  0  0  0  0  0  0  0  0
   13.9853   -1.1518    0.0000 H   0  0  0  0  0  0  0  0  0  0  0  0
    4.8890    1.7512    0.0000 H   0  0  0  0  0  0  0  0  0  0  0  0
    4.2690    2.3712    0.0000 H   0  0  0  0  0  0  0  0  0  0  0  0
    3.6490    1.7512    0.0000 H   0  0  0  0  0  0  0  0  0  0  0  0
    2.0000    0.4412    0.0000 H   0  0  0  0  0  0  0  0  0  0  0  0
  1  6  1  0  0  0  0
  1 12  1  0  0  0  0
  1 13  1  0  0  0  0
  1 14  2  0  0  0  0
  2 10  1  0  0  0  0
  2 12  1  0  0  0  0
  2 16  1  0  0  0  0
  2 19  2  0  0  0  0
  3 30  1  0  0  0  0
  3 31  1  0  0  0  0
 27  4  1  6  0  0  0
 38  4  1  6  0  0  0
  5 34  1  0  0  0  0
  5 35  1  0  0  0  0
 31  6  1  1  0  0  0
 29  7  1  1  0  0  0
  7 65  1  0  0  0  0
 32  8  1  1  0  0  0
  8 66  1  0  0  0  0
 33  9  1  1  0  0  0
  9 67  1  0  0  0  0
 10 37  1  0  0  0  0
 11 36  1  0  0  0  0
 11 72  1  0  0  0  0
 13 79  1  0  0  0  0
 15 39  2  0  0  0  0
 16 81  1  0  0  0  0
 17 41  2  0  0  0  0
 18 42  2  0  0  0  0
 20 46  2  0  0  0  0
 21 49  1  0  0  0  0
 21 85  1  0  0  0  0
 22 49  2  0  0  0  0
 28 23  1  1  0  0  0
 23 39  1  0  0  0  0
 23 59  1  0  0  0  0
 35 24  1  6  0  0  0
 24 42  1  0  0  0  0
 24 43  1  0  0  0  0
 25 42  1  0  0  0  0
 25 46  1  0  0  0  0
 25 76  1  0  0  0  0
 26 41  1  0  0  0  0
 47 26  1  6  0  0  0
 26 78  1  0  0  0  0
 27 28  1  0  0  0  0
 27 29  1  0  0  0  0
 27 50  1  0  0  0  0
 28 31  1  0  0  0  0
 28 51  1  0  0  0  0
 29 30  1  0  0  0  0
 29 52  1  0  0  0  0
 30 36  1  6  0  0  0
 30 53  1  0  0  0  0
 31 54  1  0  0  0  0
 32 33  1  0  0  0  0
 32 34  1  0  0  0  0
 32 55  1  0  0  0  0
 33 35  1  0  0  0  0
 33 56  1  0  0  0  0
 34 37  1  6  0  0  0
 34 57  1  0  0  0  0
 35 58  1  0  0  0  0
 36 60  1  0  0  0  0
 36 61  1  0  0  0  0
 37 62  1  0  0  0  0
 37 63  1  0  0  0  0
 38 40  1  0  0  0  0
 38 41  1  0  0  0  0
 38 64  1  0  0  0  0
 39 44  1  0  0  0  0
 40 68  1  0  0  0  0
 40 69  1  0  0  0  0
 40 70  1  0  0  0  0
 43 45  2  0  0  0  0
 43 71  1  0  0  0  0
 44 73  1  0  0  0  0
 44 74  1  0  0  0  0
 44 75  1  0  0  0  0
 45 46  1  0  0  0  0
 45 77  1  0  0  0  0
 47 48  1  0  0  0  0
 47 49  1  0  0  0  0
 47 80  1  0  0  0  0
 48 82  1  0  0  0  0
 48 83  1  0  0  0  0
 48 84  1  0  0  0  0
M  END
> <PUBCHEM_COMPOUND_CID>
5496796

> <PUBCHEM_COMPOUND_CANONICALIZED>
1

> <PUBCHEM_CACTVS_COMPLEXITY>
1400

> <PUBCHEM_CACTVS_HBOND_ACCEPTOR>
20

> <PUBCHEM_CACTVS_HBOND_DONOR>
10

> <PUBCHEM_CACTVS_ROTATABLE_BOND>
15

> <PUBCHEM_CACTVS_SUBSKEYS>
AAADcfB7vgMAAAAAAAAAAAAAAAAAASAAAAAkQAAAAAAAAAAAAAAAHgAQCCAACDzxgAcDCAPABxCIQCHWWIKAAAAAAgAIAIHIAECTEAIAgCQPQAAPFyKXAMHwcAcAAAAAAAAAAAAAAAAAAAAAAAAAAAAAAA==

> <PUBCHEM_IUPAC_OPENEYE_NAME>
(2S)-2-[[(2R)-2-[(2R,3R,4R,5S,6R)-3-acetamido-2-[[[(2R,3S,4R,5R)-5-(2,4-dioxopyrimidin-1-yl)-3,4-dihydroxy-tetrahydrofuran-2-yl]methoxy-hydroxy-phosphoryl]oxy-hydroxy-phosphoryl]oxy-5-hydroxy-6-(hydroxymethyl)tetrahydropyran-4-yl]oxypropanoyl]amino]propanoic acid

> <PUBCHEM_IUPAC_CAS_NAME>
(2S)-2-[[(2R)-2-[[(2R,3R,4R,5S,6R)-3-acetamido-2-[[[(2R,3S,4R,5R)-5-(2,4-dioxo-1-pyrimidinyl)-3,4-dihydroxy-2-oxolanyl]methoxy-hydroxyphosphoryl]oxy-hydroxyphosphoryl]oxy-5-hydroxy-6-(hydroxymethyl)-4-oxanyl]oxy]-1-oxopropyl]amino]propanoic acid

> <PUBCHEM_IUPAC_NAME>
(2S)-2-[[(2R)-2-[(2R,3R,4R,5S,6R)-3-acetamido-2-[[[(2R,3S,4R,5R)-5-(2,4-dioxopyrimidin-1-yl)-3,4-dihydroxyoxolan-2-yl]methoxy-hydroxyphosphoryl]oxy-hydroxyphosphoryl]oxy-5-hydroxy-6-(hydroxymethyl)oxan-4-yl]oxypropanoyl]amino]propanoic acid

> <PUBCHEM_IUPAC_SYSTEMATIC_NAME>
(2S)-2-[[(2R)-2-[(2R,3R,4R,5S,6R)-3-acetamido-2-[[[(2R,3S,4R,5R)-5-[2,4-bis(oxidanylidene)pyrimidin-1-yl]-3,4-bis(oxidanyl)oxolan-2-yl]methoxy-oxidanyl-phosphoryl]oxy-oxidanyl-phosphoryl]oxy-6-(hydroxymethyl)-5-oxidanyl-oxan-4-yl]oxypropanoyl]amino]propanoic acid

> <PUBCHEM_IUPAC_TRADITIONAL_NAME>
(2S)-2-[[(2R)-2-[(2R,3R,4R,5S,6R)-3-acetamido-2-[[[(2R,3S,4R,5R)-5-(2,4-diketopyrimidin-1-yl)-3,4-dihydroxy-tetrahydrofuran-2-yl]methoxy-hydroxy-phosphoryl]oxy-hydroxy-phosphoryl]oxy-5-hydroxy-6-methylol-tetrahydropyran-4-yl]oxypropanoyl]amino]propionic acid

> <PUBCHEM_IUPAC_INCHI>
InChI=1S/C23H36N4O20P2/c1-8(21(35)36)24-19(34)9(2)43-18-14(25-10(3)29)22(45-11(6-28)16(18)32)46-49(40,41)47-48(38,39)42-7-12-15(31)17(33)20(44-12)27-5-4-13(30)26-23(27)37/h4-5,8-9,11-12,14-18,20,22,28,31-33H,6-7H2,1-3H3,(H,24,34)(H,25,29)(H,35,36)(H,38,39)(H,40,41)(H,26,30,37)/t8-,9+,11+,12+,14+,15+,16+,17+,18+,20+,22+/m0/s1

> <PUBCHEM_IUPAC_INCHIKEY>
NTMMCWJNQNKACG-KBKUWGQMSA-N

> <PUBCHEM_XLOGP3_AA>
-6.4

> <PUBCHEM_EXACT_MASS>
750.139813

> <PUBCHEM_MOLECULAR_FORMULA>
C23H36N4O20P2

> <PUBCHEM_MOLECULAR_WEIGHT>
750.494264

> <PUBCHEM_OPENEYE_CAN_SMILES>
CC(C(=O)O)NC(=O)C(C)OC1C(C(OC(C1O)CO)OP(=O)(O)OP(=O)(O)OCC2C(C(C(O2)N3C=CC(=O)NC3=O)O)O)NC(=O)C

> <PUBCHEM_OPENEYE_ISO_SMILES>
C[C@@H](C(=O)O)NC(=O)[C@@H](C)O[C@@H]1[C@H]([C@H](O[C@@H]([C@H]1O)CO)OP(=O)(O)OP(=O)(O)OC[C@@H]2[C@H]([C@H]([C@@H](O2)N3C=CC(=O)NC3=O)O)O)NC(=O)C

> <PUBCHEM_CACTVS_TPSA>
356

> <PUBCHEM_MONOISOTOPIC_WEIGHT>
750.139813

> <PUBCHEM_TOTAL_CHARGE>
0

> <PUBCHEM_HEAVY_ATOM_COUNT>
49

> <PUBCHEM_ATOM_DEF_STEREO_COUNT>
11

> <PUBCHEM_ATOM_UDEF_STEREO_COUNT>
0

> <PUBCHEM_BOND_DEF_STEREO_COUNT>
0

> <PUBCHEM_BOND_UDEF_STEREO_COUNT>
0

> <PUBCHEM_ISOTOPIC_ATOM_COUNT>
0

> <PUBCHEM_COMPONENT_COUNT>
1

> <PUBCHEM_CACTVS_TAUTO_COUNT>
12

> <PUBCHEM_COORDINATE_TYPE>
1
5
255

> <PUBCHEM_BONDANNOTATIONS>
28  23  5
35  24  6
24  42  8
24  43  8
25  42  8
25  46  8
47  26  6
30  36  6
34  37  6
27  4  6
38  4  6
43  45  8
45  46  8
31  6  5
29  7  5
32  8  5
33  9  5

$$$$

