9404
  -OEChem-06261203402D

 32 30  0     0  0  0  0  0  0999 V2000
    2.8665    1.5000    0.0000 O   0  0  0  0  0  0  0  0  0  0  0  0
    1.1345    1.5000    0.0000 O   0  5  0  0  0  0  0  0  0  0  0  0
    2.0005    0.0000    0.0000 O   0  0  0  0  0  0  0  0  0  0  0  0
    2.2690    5.5369    0.0000 N   0  0  0  0  0  0  0  0  0  0  0  0
    4.0010    5.5369    0.0000 N   0  0  0  0  0  0  0  0  0  0  0  0
    3.1350    7.0369    0.0000 N   0  0  0  0  0  0  0  0  0  0  0  0
    2.0005    1.0000    0.0000 N   0  3  0  0  0  0  0  0  0  0  0  0
    1.4030    6.0369    0.0000 C   0  0  0  0  0  0  0  0  0  0  0  0
    2.2690    4.5369    0.0000 C   0  0  0  0  0  0  0  0  0  0  0  0
    0.5369    5.5369    0.0000 C   0  0  0  0  0  0  0  0  0  0  0  0
    1.4030    7.0369    0.0000 C   0  0  0  0  0  0  0  0  0  0  0  0
    1.4030    4.0369    0.0000 C   0  0  0  0  0  0  0  0  0  0  0  0
    3.1350    4.0369    0.0000 C   0  0  0  0  0  0  0  0  0  0  0  0
    3.1350    6.0369    0.0000 C   0  0  0  0  0  0  0  0  0  0  0  0
    1.4030    5.4169    0.0000 H   0  0  0  0  0  0  0  0  0  0  0  0
    2.8059    4.8469    0.0000 H   0  0  0  0  0  0  0  0  0  0  0  0
    0.2269    6.0739    0.0000 H   0  0  0  0  0  0  0  0  0  0  0  0
    0.0000    5.2269    0.0000 H   0  0  0  0  0  0  0  0  0  0  0  0
    0.8469    5.0000    0.0000 H   0  0  0  0  0  0  0  0  0  0  0  0
    2.0230    7.0369    0.0000 H   0  0  0  0  0  0  0  0  0  0  0  0
    1.4030    7.6569    0.0000 H   0  0  0  0  0  0  0  0  0  0  0  0
    0.7830    7.0369    0.0000 H   0  0  0  0  0  0  0  0  0  0  0  0
    1.0930    4.5739    0.0000 H   0  0  0  0  0  0  0  0  0  0  0  0
    0.8660    3.7269    0.0000 H   0  0  0  0  0  0  0  0  0  0  0  0
    1.7130    3.5000    0.0000 H   0  0  0  0  0  0  0  0  0  0  0  0
    2.8250    3.5000    0.0000 H   0  0  0  0  0  0  0  0  0  0  0  0
    3.6720    3.7269    0.0000 H   0  0  0  0  0  0  0  0  0  0  0  0
    3.4450    4.5739    0.0000 H   0  0  0  0  0  0  0  0  0  0  0  0
    4.5380    5.8469    0.0000 H   0  0  0  0  0  0  0  0  0  0  0  0
    4.0010    4.9169    0.0000 H   0  0  0  0  0  0  0  0  0  0  0  0
    3.6720    7.3469    0.0000 H   0  0  0  0  0  0  0  0  0  0  0  0
    3.4035    1.1900    0.0000 H   0  0  0  0  0  0  0  0  0  0  0  0
  1  7  1  0  0  0  0
  1 32  1  0  0  0  0
  2  7  1  0  0  0  0
  3  7  2  0  0  0  0
  4  8  1  0  0  0  0
  4  9  1  0  0  0  0
  4 14  1  0  0  0  0
  5 14  1  0  0  0  0
  5 29  1  0  0  0  0
  5 30  1  0  0  0  0
  6 14  2  0  0  0  0
  6 31  1  0  0  0  0
  8 10  1  0  0  0  0
  8 11  1  0  0  0  0
  8 15  1  0  0  0  0
  9 12  1  0  0  0  0
  9 13  1  0  0  0  0
  9 16  1  0  0  0  0
 10 17  1  0  0  0  0
 10 18  1  0  0  0  0
 10 19  1  0  0  0  0
 11 20  1  0  0  0  0
 11 21  1  0  0  0  0
 11 22  1  0  0  0  0
 12 23  1  0  0  0  0
 12 24  1  0  0  0  0
 12 25  1  0  0  0  0
 13 26  1  0  0  0  0
 13 27  1  0  0  0  0
 13 28  1  0  0  0  0
M  CHG  2   2  -1   7   1
M  END
> <PUBCHEM_COMPOUND_CID>
9404

> <PUBCHEM_COMPOUND_CANONICALIZED>
1

> <PUBCHEM_CACTVS_COMPLEXITY>
135

> <PUBCHEM_CACTVS_HBOND_ACCEPTOR>
4

> <PUBCHEM_CACTVS_HBOND_DONOR>
3

> <PUBCHEM_CACTVS_ROTATABLE_BOND>
3

> <PUBCHEM_CACTVS_SUBSKEYS>
AAADceBjsAAAAAAAAAAAAAAAAAAAAAAAAAAAAAAAAAAAAAAAAAAAHAAUCAAACCjBAAQDAANAQAAhAAAAIQAAAACAAAABAAAIAACAAAAACAAAAAAAAAKAAAAAAAAAAAAAAAAAAAAAAAAAAAAAAAAAAAAAAA==

> <PUBCHEM_IUPAC_OPENEYE_NAME>
1,1-diisopropylguanidine; nitric acid

> <PUBCHEM_IUPAC_CAS_NAME>
1,1-di(propan-2-yl)guanidine; nitric acid

> <PUBCHEM_IUPAC_NAME>
1,1-di(propan-2-yl)guanidine; nitric acid

> <PUBCHEM_IUPAC_SYSTEMATIC_NAME>
1,1-di(propan-2-yl)guanidine; nitric acid

> <PUBCHEM_IUPAC_TRADITIONAL_NAME>
1,1-diisopropylguanidine; nitric acid

> <PUBCHEM_IUPAC_INCHI>
InChI=1S/C7H17N3.HNO3/c1-5(2)10(6(3)4)7(8)9;2-1(3)4/h5-6H,1-4H3,(H3,8,9);(H,2,3,4)

> <PUBCHEM_IUPAC_INCHIKEY>
BGMVMJIGMILKIR-UHFFFAOYSA-N

> <PUBCHEM_EXACT_MASS>
206.13789

> <PUBCHEM_MOLECULAR_FORMULA>
C7H18N4O3

> <PUBCHEM_MOLECULAR_WEIGHT>
206.24282

> <PUBCHEM_OPENEYE_CAN_SMILES>
CC(C)N(C(C)C)C(=N)N.[N+](=O)(O)[O-]

> <PUBCHEM_OPENEYE_ISO_SMILES>
CC(C)N(C(C)C)C(=N)N.[N+](=O)(O)[O-]

> <PUBCHEM_CACTVS_TPSA>
119

> <PUBCHEM_MONOISOTOPIC_WEIGHT>
206.13789

> <PUBCHEM_TOTAL_CHARGE>
0

> <PUBCHEM_HEAVY_ATOM_COUNT>
14

> <PUBCHEM_ATOM_DEF_STEREO_COUNT>
0

> <PUBCHEM_ATOM_UDEF_STEREO_COUNT>
0

> <PUBCHEM_BOND_DEF_STEREO_COUNT>
0

> <PUBCHEM_BOND_UDEF_STEREO_COUNT>
0

> <PUBCHEM_ISOTOPIC_ATOM_COUNT>
0

> <PUBCHEM_COMPONENT_COUNT>
2

> <PUBCHEM_CACTVS_TAUTO_COUNT>
1

> <PUBCHEM_COORDINATE_TYPE>
1
5
255

$$$$

