3876
  -OEChem-06251223442D

 63 68  0     0  0  0  0  0  0999 V2000
    3.2546   -1.7088    0.0000 O   0  0  0  0  0  0  0  0  0  0  0  0
    2.5693   -0.0767    0.0000 O   0  0  0  0  0  0  0  0  0  0  0  0
    8.8147    2.4747    0.0000 O   0  0  0  0  0  0  0  0  0  0  0  0
    7.7828    4.2941    0.0000 O   0  0  0  0  0  0  0  0  0  0  0  0
    6.6568   -4.1664    0.0000 O   0  0  0  0  0  0  0  0  0  0  0  0
    8.2654   -2.8391    0.0000 O   0  0  0  0  0  0  0  0  0  0  0  0
    9.7517   -1.5009    0.0000 O   0  0  0  0  0  0  0  0  0  0  0  0
    4.7526   -5.0319    0.0000 O   0  0  0  0  0  0  0  0  0  0  0  0
    4.6385    0.6862    0.0000 N   0  0  0  0  0  0  0  0  0  0  0  0
    5.6385    0.6862    0.0000 C   0  0  0  0  0  0  0  0  0  0  0  0
    4.1038    1.5802    0.0000 C   0  0  0  0  0  0  0  0  0  0  0  0
    5.9475   -0.2648    0.0000 C   0  0  0  0  0  0  0  0  0  0  0  0
    4.3294   -0.2648    0.0000 C   0  0  0  0  0  0  0  0  0  0  0  0
    5.1385   -0.8526    0.0000 C   0  0  0  0  0  0  0  0  0  0  0  0
    4.6176    2.4863    0.0000 C   0  0  0  0  0  0  0  0  0  0  0  0
    6.1731    1.5802    0.0000 C   0  0  0  0  0  0  0  0  0  0  0  0
    5.6593    2.4863    0.0000 C   0  0  0  0  0  0  0  0  0  0  0  0
    5.0456   -1.8901    0.0000 C   0  0  0  0  0  0  0  0  0  0  0  0
    6.8985   -0.5738    0.0000 C   0  0  0  0  0  0  0  0  0  0  0  0
    3.3714   -0.6738    0.0000 C   0  0  0  0  0  0  0  0  0  0  0  0
    7.2578    1.5551    0.0000 C   0  0  0  0  0  0  0  0  0  0  0  0
    6.1945    3.4300    0.0000 C   0  0  0  0  0  0  0  0  0  0  0  0
    4.0973   -2.3211    0.0000 C   0  0  0  0  0  0  0  0  0  0  0  0
    7.8147    2.4863    0.0000 C   0  0  0  0  0  0  0  0  0  0  0  0
    7.2795    3.4300    0.0000 C   0  0  0  0  0  0  0  0  0  0  0  0
    5.9379   -2.5074    0.0000 C   0  0  0  0  0  0  0  0  0  0  0  0
    7.1064   -1.5520    0.0000 C   0  0  0  0  0  0  0  0  0  0  0  0
    7.6417    0.0953    0.0000 C   0  0  0  0  0  0  0  0  0  0  0  0
    3.9755   -3.3992    0.0000 C   0  0  0  0  0  0  0  0  0  0  0  0
    5.8411   -3.5880    0.0000 C   0  0  0  0  0  0  0  0  0  0  0  0
    4.8533   -4.0370    0.0000 C   0  0  0  0  0  0  0  0  0  0  0  0
    8.0575   -1.8610    0.0000 C   0  0  0  0  0  0  0  0  0  0  0  0
    8.5927   -0.2137    0.0000 C   0  0  0  0  0  0  0  0  0  0  0  0
    8.8006   -1.1919    0.0000 C   0  0  0  0  0  0  0  0  0  0  0  0
    9.3247    3.3349    0.0000 C   0  0  0  0  0  0  0  0  0  0  0  0
    7.2862    5.1621    0.0000 C   0  0  0  0  0  0  0  0  0  0  0  0
    6.5638   -5.1621    0.0000 C   0  0  0  0  0  0  0  0  0  0  0  0
   10.4948   -0.8317    0.0000 C   0  0  0  0  0  0  0  0  0  0  0  0
    3.6248    1.9738    0.0000 H   0  0  0  0  0  0  0  0  0  0  0  0
    3.6340    1.1756    0.0000 H   0  0  0  0  0  0  0  0  0  0  0  0
    4.7237    3.0971    0.0000 H   0  0  0  0  0  0  0  0  0  0  0  0
    4.0339    2.6953    0.0000 H   0  0  0  0  0  0  0  0  0  0  0  0
    7.5574    1.0123    0.0000 H   0  0  0  0  0  0  0  0  0  0  0  0
    5.8824    3.9658    0.0000 H   0  0  0  0  0  0  0  0  0  0  0  0
    6.4993   -2.2443    0.0000 H   0  0  0  0  0  0  0  0  0  0  0  0
    6.6457   -1.9668    0.0000 H   0  0  0  0  0  0  0  0  0  0  0  0
    7.5128    0.7018    0.0000 H   0  0  0  0  0  0  0  0  0  0  0  0
    3.4082   -3.6492    0.0000 H   0  0  0  0  0  0  0  0  0  0  0  0
    2.0000   -0.3223    0.0000 H   0  0  0  0  0  0  0  0  0  0  0  0
    9.0535    0.2011    0.0000 H   0  0  0  0  0  0  0  0  0  0  0  0
    9.8580    3.0187    0.0000 H   0  0  0  0  0  0  0  0  0  0  0  0
    9.6408    3.8682    0.0000 H   0  0  0  0  0  0  0  0  0  0  0  0
    8.7913    3.6511    0.0000 H   0  0  0  0  0  0  0  0  0  0  0  0
    7.8243    5.4700    0.0000 H   0  0  0  0  0  0  0  0  0  0  0  0
    6.9783    5.7002    0.0000 H   0  0  0  0  0  0  0  0  0  0  0  0
    6.7481    4.8542    0.0000 H   0  0  0  0  0  0  0  0  0  0  0  0
    8.8551   -3.0307    0.0000 H   0  0  0  0  0  0  0  0  0  0  0  0
    5.9465   -5.1044    0.0000 H   0  0  0  0  0  0  0  0  0  0  0  0
    6.5062   -5.7794    0.0000 H   0  0  0  0  0  0  0  0  0  0  0  0
    7.1811   -5.2198    0.0000 H   0  0  0  0  0  0  0  0  0  0  0  0
   10.9097   -1.2925    0.0000 H   0  0  0  0  0  0  0  0  0  0  0  0
   10.9556   -0.4169    0.0000 H   0  0  0  0  0  0  0  0  0  0  0  0
   10.0800   -0.3710    0.0000 H   0  0  0  0  0  0  0  0  0  0  0  0
  1 20  1  0  0  0  0
  1 23  1  0  0  0  0
  2 20  1  0  0  0  0
  2 49  1  0  0  0  0
  3 24  1  0  0  0  0
  3 35  1  0  0  0  0
  4 25  1  0  0  0  0
  4 36  1  0  0  0  0
  5 30  1  0  0  0  0
  5 37  1  0  0  0  0
  6 32  1  0  0  0  0
  6 57  1  0  0  0  0
  7 34  1  0  0  0  0
  7 38  1  0  0  0  0
  8 31  2  0  0  0  0
  9 10  1  0  0  0  0
  9 11  1  0  0  0  0
  9 13  1  0  0  0  0
 10 12  2  0  0  0  0
 10 16  1  0  0  0  0
 11 15  1  0  0  0  0
 11 39  1  0  0  0  0
 11 40  1  0  0  0  0
 12 14  1  0  0  0  0
 12 19  1  0  0  0  0
 13 14  1  0  0  0  0
 13 20  2  0  0  0  0
 14 18  2  0  0  0  0
 15 17  1  0  0  0  0
 15 41  1  0  0  0  0
 15 42  1  0  0  0  0
 16 17  1  0  0  0  0
 16 21  2  0  0  0  0
 17 22  2  0  0  0  0
 18 23  1  0  0  0  0
 18 26  1  0  0  0  0
 19 27  2  0  0  0  0
 19 28  1  0  0  0  0
 21 24  1  0  0  0  0
 21 43  1  0  0  0  0
 22 25  1  0  0  0  0
 22 44  1  0  0  0  0
 23 29  2  0  0  0  0
 24 25  2  0  0  0  0
 26 30  2  0  0  0  0
 26 45  1  0  0  0  0
 27 32  1  0  0  0  0
 27 46  1  0  0  0  0
 28 33  2  0  0  0  0
 28 47  1  0  0  0  0
 29 31  1  0  0  0  0
 29 48  1  0  0  0  0
 30 31  1  0  0  0  0
 32 34  2  0  0  0  0
 33 34  1  0  0  0  0
 33 50  1  0  0  0  0
 35 51  1  0  0  0  0
 35 52  1  0  0  0  0
 35 53  1  0  0  0  0
 36 54  1  0  0  0  0
 36 55  1  0  0  0  0
 36 56  1  0  0  0  0
 37 58  1  0  0  0  0
 37 59  1  0  0  0  0
 37 60  1  0  0  0  0
 38 61  1  0  0  0  0
 38 62  1  0  0  0  0
 38 63  1  0  0  0  0
M  END
> <PUBCHEM_COMPOUND_CID>
3876

> <PUBCHEM_COMPOUND_CANONICALIZED>
1

> <PUBCHEM_CACTVS_COMPLEXITY>
1180

> <PUBCHEM_CACTVS_HBOND_ACCEPTOR>
9

> <PUBCHEM_CACTVS_HBOND_DONOR>
2

> <PUBCHEM_CACTVS_ROTATABLE_BOND>
5

> <PUBCHEM_CACTVS_SUBSKEYS>
AAADceB6PAAAAAAAAAAAAAAAAAAAAQAAAAA8YIECAAAAAECxQAAAHgAACAAADAzBmAYyDoMABgCIAqRSQAKCCAAgIAAIiABOjMgdJiKGsR+EcCtkwBGPuYew0LIOoAABAAAQQABAAAIAACCAAAAAAAAAAA==

> <PUBCHEM_IUPAC_INCHI>
InChI=1S/C29H25NO8/c1-34-20-6-5-15(9-18(20)31)25-26-17-12-22(35-2)19(32)13-21(17)38-29(33)28(26)30-8-7-14-10-23(36-3)24(37-4)11-16(14)27(25)30/h5-6,9-13,31,33H,7-8H2,1-4H3

> <PUBCHEM_IUPAC_INCHIKEY>
HPYRILFZYDZMLR-UHFFFAOYSA-N

> <PUBCHEM_XLOGP3_AA>
2.9

> <PUBCHEM_EXACT_MASS>
515.158017

> <PUBCHEM_MOLECULAR_FORMULA>
C29H25NO8

> <PUBCHEM_MOLECULAR_WEIGHT>
515.5107

> <PUBCHEM_OPENEYE_CAN_SMILES>
COC1=C(C=C(C=C1)C2=C3C4=CC(=C(C=C4CCN3C5=C(OC6=CC(=O)C(=CC6=C25)OC)O)OC)OC)O

> <PUBCHEM_OPENEYE_ISO_SMILES>
COC1=C(C=C(C=C1)C2=C3C4=CC(=C(C=C4CCN3C5=C(OC6=CC(=O)C(=CC6=C25)OC)O)OC)OC)O

> <PUBCHEM_CACTVS_TPSA>
107

> <PUBCHEM_MONOISOTOPIC_WEIGHT>
515.158017

> <PUBCHEM_TOTAL_CHARGE>
0

> <PUBCHEM_HEAVY_ATOM_COUNT>
38

> <PUBCHEM_ATOM_DEF_STEREO_COUNT>
0

> <PUBCHEM_ATOM_UDEF_STEREO_COUNT>
0

> <PUBCHEM_BOND_DEF_STEREO_COUNT>
0

> <PUBCHEM_BOND_UDEF_STEREO_COUNT>
0

> <PUBCHEM_ISOTOPIC_ATOM_COUNT>
0

> <PUBCHEM_COMPONENT_COUNT>
1

> <PUBCHEM_CACTVS_TAUTO_COUNT>
3

> <PUBCHEM_COORDINATE_TYPE>
1
5
255

> <PUBCHEM_BONDANNOTATIONS>
1  20  8
1  23  8
10  12  8
12  14  8
13  14  8
13  20  8
14  18  8
16  17  8
16  21  8
17  22  8
18  26  8
19  27  8
19  28  8
21  24  8
22  25  8
23  29  8
24  25  8
26  30  8
27  32  8
28  33  8
29  31  8
30  31  8
32  34  8
33  34  8
9  10  8
9  13  8

$$$$

