   Color/Form
        Purple needles crystals from ethyl acetate
   from [1]HSDB

   Melting Point
        162.5-163 deg C
   from [2]HSDB

   Dissociation Constants
        pKa = 1.6 /Estimated/
   from [3]HSDB

   Octanol/Water Partition Coefficient
        log Kow = -0.13
   from [4]HSDB

   Solubilities

     * Sparingly soluble in cold water; soluble in acetone, benzene,
       chloroform, ethyl acetate, methanol, and warm acetic acid
     * In water, 1.1X10+5 mg/L at 25 deg C /Estimated/

   from [5]HSDB

   Vapor Pressure
        3.4X10-6 mm Hg at 25 deg C /Estimated/
   from [6]HSDB

   Other Chemical/Physical Properties

     * Henry's Law constant = 9.3X10-16 atm cu m/mol at 25 deg C
       /Estimated/
     * Hydroxyl radical reaction rate constant = 3.1X10-11 cu cm/molec-sec
       at 25 deg C /Estimated/

   from [7]HSDB

   Computed Properties
   Molecular Weight                  231.25052 [g/mol]
   Molecular Formula                 C[12]H[13]N[3]O[2]
   XLogP3                            -0.1
   H-Bond Donor                      0
   H-Bond Acceptor                   5
   Rotatable Bond Count              3
   Exact Mass                        231.100777
   MonoIsotopic Mass                 231.100777
   Topological Polar Surface Area    43.2
   Heavy Atom Count                  17
   Formal Charge                     0
   Complexity                        494
   Isotope Atom Count                0
   Defined Atom Stereocenter Count   0
   Undefined Atom Stereocenter Count 0
   Defined Bond Stereocenter Count   0
   Undefined Bond Stereocenter Count 0
   Covalently-Bonded Unit Count      1
   Feature 3D Acceptor Count         2
   Feature 3D Cation Count           3
   Feature 3D Ring Count             1
   Effective Rotor Count             4.8
   Conformer Sampling RMSD           0.6
   CID Conformer Count               [8]6

References

   1. http://toxnet.nlm.nih.gov/cgi-bin/sis/search/r?dbs+hsdb:@term+@rn+@rel+68-76-8
   2. http://toxnet.nlm.nih.gov/cgi-bin/sis/search/r?dbs+hsdb:@term+@rn+@rel+68-76-8
   3. http://toxnet.nlm.nih.gov/cgi-bin/sis/search/r?dbs+hsdb:@term+@rn+@rel+68-76-8
   4. http://toxnet.nlm.nih.gov/cgi-bin/sis/search/r?dbs+hsdb:@term+@rn+@rel+68-76-8
   5. http://toxnet.nlm.nih.gov/cgi-bin/sis/search/r?dbs+hsdb:@term+@rn+@rel+68-76-8
   6. http://toxnet.nlm.nih.gov/cgi-bin/sis/search/r?dbs+hsdb:@term+@rn+@rel+68-76-8
   7. http://toxnet.nlm.nih.gov/cgi-bin/sis/search/r?dbs+hsdb:@term+@rn+@rel+68-76-8
   8. http://pubchem.ncbi.nlm.nih.gov/vw3d/vw3d.cgi?cid=6235
