   Color/Form
        Yellow needles (dilute alcohol, +2 water)
   from [1]HSDB

   Boiling Point
        Sublimes
   from [2]HSDB

   Melting Point
        316.5 deg C
   from [3]HSDB

   Dissociation Constants
        pKa1 = 7.17 (phenol); pKa2 = 8.26 (phenol); pKa3 = 10.13 (phenol);
   pKa4 = 12.30 (phenol); pKa5 = 13.11 (phenol) (est)
   from [4]HSDB

   Octanol/Water Partition Coefficient
        log Kow = 1.48 (est)
   from [5]HSDB

   Solubilities

     * Very soluble in ether, methanol; soluble in ethanol, acetone,
       pyridine, acetic acid
     * Soluble in alcohol and glacial acetic acid; insoluble in water
     * In water, 60 mg/L at 16 deg C

   from [6]HSDB

   Spectral Properties

     * MAX ABSORPTION (ALCOHOL): 256 NM (LOG E= 4.32); 301 NM (LOG E=
       3.89); 373 NM (LOG E= 4.32); SADTLER REF NUMBER: 594 (IR, PRISM)
     * IR: 18403 (Sadtler Research Laboratories IR Grating Collection)
     * UV: 7-578 (Organic Electronic Spectral Data, Phillips et al, John
       Wiley & Sons, New York)
     * MASS: 14457 (NIST/EPA/MSDC Mass Spectral database, 1990 version)

   from [7]HSDB

   Vapor Pressure
        2.81X10-14 mm Hg at 25 deg C (est)
   from [8]HSDB

   Other Chemical/Physical Properties

     * Yellow needles from dil alcohol. Becomes anhydrous at 95-97 deg C.
       When anhydrous, decomposes at 314 deg C; uv max (alcohol) 258, 375
       nm (log epsilon 2.75, 2.75). One gram dissolves in 290 mL absolute
       alcohol, in 25 mL boiling alcohol. Soluble in glacial acetic acid;
       in aqueous alkaline solutions with yellow color. Practically
       insoluble in water. Alcoholic solutions taste very bitter.
       /Dihydrate/
     * Crystals; mp 123-125 deg C; UV max (chloroform): 249, 343 nm (log
       epsilon 4.43, 4.14) /Pentabenzyl ether/
     * Yellow needles from ethanol, dec 277-230 deg C. Specific optical
       rotation: -83 deg at 20 deg C/D (c = 0.2 in pyridine); UV max: 259,
       364 nm (log epsilon 4.31, 4.39) /3-beta-Galactoside
       hemipentahydrate/
     * Henry's Law constant = 6.60X10-21 atm-cu m/mol at 25 deg C (est)
     * Hydroxyl radical reaction rate constant = 2.39X10-10 cu
       cm/molec-sec at 25 deg C (est)
     * Ozone reaction rate constant = 1.05X10-16 cu cm/molec-sec at 25 deg
       C (est)

   from [9]HSDB

   Computed Properties
   Molecular Weight                  302.2357 [g/mol]
   Molecular Formula                 C[15]H[10]O[7]
   XLogP3                            1.5
   H-Bond Donor                      5
   H-Bond Acceptor                   7
   Rotatable Bond Count              1
   Tautomer Count                    435
   Exact Mass                        302.042653
   MonoIsotopic Mass                 302.042653
   Topological Polar Surface Area    127
   Heavy Atom Count                  22
   Formal Charge                     0
   Complexity                        488
   Isotope Atom Count                0
   Defined Atom Stereocenter Count   0
   Undefined Atom Stereocenter Count 0
   Defined Bond Stereocenter Count   0
   Undefined Bond Stereocenter Count 0
   Covalently-Bonded Unit Count      1
   Feature 3D Acceptor Count         2
   Feature 3D Donor Count            5
   Feature 3D Ring Count             3
   Effective Rotor Count             1
   Conformer Sampling RMSD           0.6
   CID Conformer Count               [10]4

References

   1. http://toxnet.nlm.nih.gov/cgi-bin/sis/search/r?dbs+hsdb:@term+@rn+@rel+117-39-5
   2. http://toxnet.nlm.nih.gov/cgi-bin/sis/search/r?dbs+hsdb:@term+@rn+@rel+117-39-5
   3. http://toxnet.nlm.nih.gov/cgi-bin/sis/search/r?dbs+hsdb:@term+@rn+@rel+117-39-5
   4. http://toxnet.nlm.nih.gov/cgi-bin/sis/search/r?dbs+hsdb:@term+@rn+@rel+117-39-5
   5. http://toxnet.nlm.nih.gov/cgi-bin/sis/search/r?dbs+hsdb:@term+@rn+@rel+117-39-5
   6. http://toxnet.nlm.nih.gov/cgi-bin/sis/search/r?dbs+hsdb:@term+@rn+@rel+117-39-5
   7. http://toxnet.nlm.nih.gov/cgi-bin/sis/search/r?dbs+hsdb:@term+@rn+@rel+117-39-5
   8. http://toxnet.nlm.nih.gov/cgi-bin/sis/search/r?dbs+hsdb:@term+@rn+@rel+117-39-5
   9. http://toxnet.nlm.nih.gov/cgi-bin/sis/search/r?dbs+hsdb:@term+@rn+@rel+117-39-5
  10. http://pubchem.ncbi.nlm.nih.gov/vw3d/vw3d.cgi?cid=5280343
