11465376
  -OEChem-07051213072D

 51 52  0     1  0  0  0  0  0999 V2000
    8.0622    3.5000    0.0000 Cl  0  0  0  0  0  0  0  0  0  0  0  0
    9.0622    2.5000    0.0000 Cl  0  0  0  0  0  0  0  0  0  0  0  0
    7.0622    2.5000    0.0000 Cl  0  0  0  0  0  0  0  0  0  0  0  0
    2.9230    1.5878    0.0000 S   0  0  0  0  0  0  0  0  0  0  0  0
    8.0622   -0.5000    0.0000 O   0  0  0  0  0  0  0  0  0  0  0  0
    5.4641    1.0000    0.0000 O   0  0  0  0  0  0  0  0  0  0  0  0
    4.5981   -0.5000    0.0000 N   0  0  0  0  0  0  0  0  0  0  0  0
    4.5411    1.5878    0.0000 N   0  0  0  0  0  0  0  0  0  0  0  0
    3.7320    0.0000    0.0000 C   0  0  1  0  0  0  0  0  0  0  0  0
    2.8660   -0.5000    0.0000 C   0  0  0  0  0  0  0  0  0  0  0  0
    8.0622    1.5000    0.0000 C   0  0  1  0  0  0  0  0  0  0  0  0
    7.1962    1.0000    0.0000 C   0  0  0  0  0  0  0  0  0  0  0  0
    3.7320    1.0000    0.0000 C   0  0  0  0  0  0  0  0  0  0  0  0
    2.8660   -1.5000    0.0000 C   0  0  0  0  0  0  0  0  0  0  0  0
    5.4641    0.0000    0.0000 C   0  0  0  0  0  0  0  0  0  0  0  0
    7.1962    0.0000    0.0000 C   0  0  0  0  0  0  0  0  0  0  0  0
    4.5981   -1.5000    0.0000 C   0  0  0  0  0  0  0  0  0  0  0  0
    8.0622    2.5000    0.0000 C   0  0  0  0  0  0  0  0  0  0  0  0
    8.9282    1.0000    0.0000 C   0  0  0  0  0  0  0  0  0  0  0  0
    6.3301   -0.5000    0.0000 C   0  0  0  0  0  0  0  0  0  0  0  0
    2.0000   -2.0000    0.0000 C   0  0  0  0  0  0  0  0  0  0  0  0
    3.7320   -2.0000    0.0000 C   0  0  0  0  0  0  0  0  0  0  0  0
    2.0000   -3.0000    0.0000 C   0  0  0  0  0  0  0  0  0  0  0  0
    3.7320   -3.0000    0.0000 C   0  0  0  0  0  0  0  0  0  0  0  0
    3.2320    2.5388    0.0000 C   0  0  0  0  0  0  0  0  0  0  0  0
    4.2320    2.5388    0.0000 C   0  0  0  0  0  0  0  0  0  0  0  0
    2.8660   -3.5000    0.0000 C   0  0  0  0  0  0  0  0  0  0  0  0
    8.9282    0.0000    0.0000 C   0  0  0  0  0  0  0  0  0  0  0  0
    3.7320   -0.6200    0.0000 H   0  0  0  0  0  0  0  0  0  0  0  0
    2.6540    0.0826    0.0000 H   0  0  0  0  0  0  0  0  0  0  0  0
    2.2554   -0.6077    0.0000 H   0  0  0  0  0  0  0  0  0  0  0  0
    8.0622    0.8800    0.0000 H   0  0  0  0  0  0  0  0  0  0  0  0
    6.9841    1.5826    0.0000 H   0  0  0  0  0  0  0  0  0  0  0  0
    6.5856    0.8923    0.0000 H   0  0  0  0  0  0  0  0  0  0  0  0
    3.9781   -1.5000    0.0000 H   0  0  0  0  0  0  0  0  0  0  0  0
    4.5981   -2.1200    0.0000 H   0  0  0  0  0  0  0  0  0  0  0  0
    5.2181   -1.5000    0.0000 H   0  0  0  0  0  0  0  0  0  0  0  0
    8.6182    0.4631    0.0000 H   0  0  0  0  0  0  0  0  0  0  0  0
    9.4651    0.6900    0.0000 H   0  0  0  0  0  0  0  0  0  0  0  0
    9.2382    1.5369    0.0000 H   0  0  0  0  0  0  0  0  0  0  0  0
    6.3301   -1.1200    0.0000 H   0  0  0  0  0  0  0  0  0  0  0  0
    1.4631   -1.6900    0.0000 H   0  0  0  0  0  0  0  0  0  0  0  0
    4.2690   -1.6900    0.0000 H   0  0  0  0  0  0  0  0  0  0  0  0
    1.4631   -3.3100    0.0000 H   0  0  0  0  0  0  0  0  0  0  0  0
    4.2690   -3.3100    0.0000 H   0  0  0  0  0  0  0  0  0  0  0  0
    2.8676    3.0404    0.0000 H   0  0  0  0  0  0  0  0  0  0  0  0
    4.5965    3.0404    0.0000 H   0  0  0  0  0  0  0  0  0  0  0  0
    2.8660   -4.1200    0.0000 H   0  0  0  0  0  0  0  0  0  0  0  0
    9.2382   -0.5369    0.0000 H   0  0  0  0  0  0  0  0  0  0  0  0
    9.4651    0.3100    0.0000 H   0  0  0  0  0  0  0  0  0  0  0  0
    8.6182    0.5369    0.0000 H   0  0  0  0  0  0  0  0  0  0  0  0
  1 18  1  0  0  0  0
  2 18  1  0  0  0  0
  3 18  1  0  0  0  0
  4 13  1  0  0  0  0
  4 25  1  0  0  0  0
  5 16  1  0  0  0  0
  5 28  1  0  0  0  0
  6 15  2  0  0  0  0
  9  7  1  1  0  0  0
  7 15  1  0  0  0  0
  7 17  1  0  0  0  0
  8 13  2  0  0  0  0
  8 26  1  0  0  0  0
  9 10  1  0  0  0  0
  9 13  1  0  0  0  0
  9 29  1  0  0  0  0
 10 14  1  0  0  0  0
 10 30  1  0  0  0  0
 10 31  1  0  0  0  0
 11 12  1  0  0  0  0
 11 18  1  0  0  0  0
 11 19  1  1  0  0  0
 11 32  1  0  0  0  0
 12 16  1  0  0  0  0
 12 33  1  0  0  0  0
 12 34  1  0  0  0  0
 14 21  2  0  0  0  0
 14 22  1  0  0  0  0
 15 20  1  0  0  0  0
 16 20  2  0  0  0  0
 17 35  1  0  0  0  0
 17 36  1  0  0  0  0
 17 37  1  0  0  0  0
 19 38  1  0  0  0  0
 19 39  1  0  0  0  0
 19 40  1  0  0  0  0
 20 41  1  0  0  0  0
 21 23  1  0  0  0  0
 21 42  1  0  0  0  0
 22 24  2  0  0  0  0
 22 43  1  0  0  0  0
 23 27  2  0  0  0  0
 23 44  1  0  0  0  0
 24 27  1  0  0  0  0
 24 45  1  0  0  0  0
 25 26  2  0  0  0  0
 25 46  1  0  0  0  0
 26 47  1  0  0  0  0
 27 48  1  0  0  0  0
 28 49  1  0  0  0  0
 28 50  1  0  0  0  0
 28 51  1  0  0  0  0
M  END
> <PUBCHEM_COMPOUND_CID>
11465376

> <PUBCHEM_COMPOUND_CANONICALIZED>
1

> <PUBCHEM_CACTVS_COMPLEXITY>
536

> <PUBCHEM_CACTVS_HBOND_ACCEPTOR>
4

> <PUBCHEM_CACTVS_HBOND_DONOR>
0

> <PUBCHEM_CACTVS_ROTATABLE_BOND>
8

> <PUBCHEM_CACTVS_SUBSKEYS>
AAADceB7MABGAAAAAAAAAAAAAAAAAWAAAAAwAAAAAAAAAAABwAAAHgYAAAAADS7F2oa+gZMIFAisAjF3VACC+KBxKjhIyAw4IsgIYCKhkRGUIAAkhgCoiQcQgIAOAAAAAAAAAAAAAAAAAAAAAAAAAAAAAA==

> <PUBCHEM_IUPAC_OPENEYE_NAME>
(E,5S)-6,6,6-trichloro-3-methoxy-N,5-dimethyl-N-[(1S)-2-phenyl-1-thiazol-2-yl-ethyl]hex-2-enamide

> <PUBCHEM_IUPAC_CAS_NAME>
(E,5S)-6,6,6-trichloro-3-methoxy-N,5-dimethyl-N-[(1S)-2-phenyl-1-(2-thiazolyl)ethyl]-2-hexenamide

> <PUBCHEM_IUPAC_NAME>
(E,5S)-6,6,6-trichloro-3-methoxy-N,5-dimethyl-N-[(1S)-2-phenyl-1-(1,3-thiazol-2-yl)ethyl]hex-2-enamide

> <PUBCHEM_IUPAC_SYSTEMATIC_NAME>
(E,5S)-6,6,6-tris(chloranyl)-3-methoxy-N,5-dimethyl-N-[(1S)-2-phenyl-1-(1,3-thiazol-2-yl)ethyl]hex-2-enamide

> <PUBCHEM_IUPAC_TRADITIONAL_NAME>
(E,5S)-6,6,6-trichloro-3-methoxy-N,5-dimethyl-N-[(1S)-2-phenyl-1-thiazol-2-yl-ethyl]hex-2-enamide

> <PUBCHEM_IUPAC_INCHI>
InChI=1S/C20H23Cl3N2O2S/c1-14(20(21,22)23)11-16(27-3)13-18(26)25(2)17(19-24-9-10-28-19)12-15-7-5-4-6-8-15/h4-10,13-14,17H,11-12H2,1-3H3/b16-13+/t14-,17-/m0/s1

> <PUBCHEM_IUPAC_INCHIKEY>
UGNRFJOMRFTXSQ-ITRHSTPOSA-N

> <PUBCHEM_XLOGP3_AA>
5.4

> <PUBCHEM_EXACT_MASS>
460.054582

> <PUBCHEM_MOLECULAR_FORMULA>
C20H23Cl3N2O2S

> <PUBCHEM_MOLECULAR_WEIGHT>
461.83282

> <PUBCHEM_OPENEYE_CAN_SMILES>
CC(CC(=CC(=O)N(C)C(CC1=CC=CC=C1)C2=NC=CS2)OC)C(Cl)(Cl)Cl

> <PUBCHEM_OPENEYE_ISO_SMILES>
C[C@@H](C/C(=C\C(=O)N(C)[C@@H](CC1=CC=CC=C1)C2=NC=CS2)/OC)C(Cl)(Cl)Cl

> <PUBCHEM_CACTVS_TPSA>
70.7

> <PUBCHEM_MONOISOTOPIC_WEIGHT>
460.054582

> <PUBCHEM_TOTAL_CHARGE>
0

> <PUBCHEM_HEAVY_ATOM_COUNT>
28

> <PUBCHEM_ATOM_DEF_STEREO_COUNT>
2

> <PUBCHEM_ATOM_UDEF_STEREO_COUNT>
0

> <PUBCHEM_BOND_DEF_STEREO_COUNT>
1

> <PUBCHEM_BOND_UDEF_STEREO_COUNT>
0

> <PUBCHEM_ISOTOPIC_ATOM_COUNT>
0

> <PUBCHEM_COMPONENT_COUNT>
1

> <PUBCHEM_CACTVS_TAUTO_COUNT>
1

> <PUBCHEM_COORDINATE_TYPE>
1
5
255

> <PUBCHEM_BONDANNOTATIONS>
11  19  5
14  21  8
14  22  8
21  23  8
22  24  8
23  27  8
24  27  8
25  26  8
4  13  8
4  25  8
9  7  5
8  13  8
8  26  8

$$$$

