25058164
  -OEChem-07051213112D

111112  0     1  0  0  0  0  0999 V2000
    6.0010    4.2500    0.0000 O   0  0  0  0  0  0  0  0  0  0  0  0
    6.8671    1.7500    0.0000 O   0  0  0  0  0  0  0  0  0  0  0  0
    7.7331    3.2500    0.0000 O   0  0  0  0  0  0  0  0  0  0  0  0
    4.2690    4.2500    0.0000 O   0  0  0  0  0  0  0  0  0  0  0  0
    4.2690    3.2500    0.0000 O   0  0  0  0  0  0  0  0  0  0  0  0
    4.2690    1.2500    0.0000 O   0  0  0  0  0  0  0  0  0  0  0  0
    6.0010    6.2500    0.0000 O   0  0  0  0  0  0  0  0  0  0  0  0
    4.2690    7.2500    0.0000 O   0  0  0  0  0  0  0  0  0  0  0  0
    2.5369    6.2500    0.0000 O   0  0  0  0  0  0  0  0  0  0  0  0
    6.8671   -0.2500    0.0000 O   0  0  0  0  0  0  0  0  0  0  0  0
    2.5369    3.2500    0.0000 O   0  0  0  0  0  0  0  0  0  0  0  0
   13.7953   -7.2500    0.0000 O   0  0  0  0  0  0  0  0  0  0  0  0
   14.6613   -5.7500    0.0000 O   0  0  0  0  0  0  0  0  0  0  0  0
    6.0010    3.2500    0.0000 C   0  0  2  0  0  0  0  0  0  0  0  0
    5.1350    2.7500    0.0000 C   0  0  2  0  0  0  0  0  0  0  0  0
    6.8671    2.7500    0.0000 C   0  0  1  0  0  0  0  0  0  0  0  0
    5.1350    1.7500    0.0000 C   0  0  1  0  0  0  0  0  0  0  0  0
    6.0010    1.2500    0.0000 C   0  0  1  0  0  0  0  0  0  0  0  0
    5.1350    4.7500    0.0000 C   0  0  2  0  0  0  0  0  0  0  0  0
    5.1350    5.7500    0.0000 C   0  0  1  0  0  0  0  0  0  0  0  0
    4.2690    6.2500    0.0000 C   0  0  2  0  0  0  0  0  0  0  0  0
    8.5991    2.7500    0.0000 C   0  0  3  0  0  0  0  0  0  0  0  0
    3.4030    5.7500    0.0000 C   0  0  1  0  0  0  0  0  0  0  0  0
    3.4030    4.7500    0.0000 C   0  0  1  0  0  0  0  0  0  0  0  0
    8.5991    1.7500    0.0000 C   0  0  0  0  0  0  0  0  0  0  0  0
    9.4651    3.2500    0.0000 C   0  0  0  0  0  0  0  0  0  0  0  0
    6.0010    0.2500    0.0000 C   0  0  0  0  0  0  0  0  0  0  0  0
    9.4651    1.2500    0.0000 C   0  0  0  0  0  0  0  0  0  0  0  0
   10.3312    2.7500    0.0000 C   0  0  0  0  0  0  0  0  0  0  0  0
    2.5369    4.2500    0.0000 C   0  0  0  0  0  0  0  0  0  0  0  0
    9.4651    0.2500    0.0000 C   0  0  0  0  0  0  0  0  0  0  0  0
   11.1972    3.2500    0.0000 C   0  0  0  0  0  0  0  0  0  0  0  0
   10.3312   -0.2500    0.0000 C   0  0  0  0  0  0  0  0  0  0  0  0
   12.0632    2.7500    0.0000 C   0  0  0  0  0  0  0  0  0  0  0  0
   10.3312   -1.2500    0.0000 C   0  0  0  0  0  0  0  0  0  0  0  0
   12.9292    3.2500    0.0000 C   0  0  0  0  0  0  0  0  0  0  0  0
   11.1972   -1.7500    0.0000 C   0  0  0  0  0  0  0  0  0  0  0  0
   13.7953    2.7500    0.0000 C   0  0  0  0  0  0  0  0  0  0  0  0
   11.1972   -2.7500    0.0000 C   0  0  0  0  0  0  0  0  0  0  0  0
   12.0632   -3.2500    0.0000 C   0  0  0  0  0  0  0  0  0  0  0  0
   14.6613    3.2500    0.0000 C   0  0  0  0  0  0  0  0  0  0  0  0
   12.0632   -4.2500    0.0000 C   0  0  0  0  0  0  0  0  0  0  0  0
   15.5273    2.7500    0.0000 C   0  0  0  0  0  0  0  0  0  0  0  0
   12.9292   -4.7500    0.0000 C   0  0  0  0  0  0  0  0  0  0  0  0
   16.3933    3.2500    0.0000 C   0  0  0  0  0  0  0  0  0  0  0  0
   12.9292   -5.7500    0.0000 C   0  0  0  0  0  0  0  0  0  0  0  0
   13.7953   -6.2500    0.0000 C   0  0  0  0  0  0  0  0  0  0  0  0
    6.5380    3.5600    0.0000 H   0  0  0  0  0  0  0  0  0  0  0  0
    5.1350    3.3700    0.0000 H   0  0  0  0  0  0  0  0  0  0  0  0
    6.8671    3.3700    0.0000 H   0  0  0  0  0  0  0  0  0  0  0  0
    5.1350    1.1300    0.0000 H   0  0  0  0  0  0  0  0  0  0  0  0
    6.5380    0.9400    0.0000 H   0  0  0  0  0  0  0  0  0  0  0  0
    5.1350    4.1300    0.0000 H   0  0  0  0  0  0  0  0  0  0  0  0
    5.1350    6.3700    0.0000 H   0  0  0  0  0  0  0  0  0  0  0  0
    4.8059    6.5600    0.0000 H   0  0  0  0  0  0  0  0  0  0  0  0
    8.5991    3.6000    0.0000 H   0  0  0  0  0  0  0  0  0  0  0  0
    3.4030    6.3700    0.0000 H   0  0  0  0  0  0  0  0  0  0  0  0
    3.4030    4.1300    0.0000 H   0  0  0  0  0  0  0  0  0  0  0  0
    7.9885    1.8577    0.0000 H   0  0  0  0  0  0  0  0  0  0  0  0
    8.3871    1.1674    0.0000 H   0  0  0  0  0  0  0  0  0  0  0  0
    9.8637    3.7250    0.0000 H   0  0  0  0  0  0  0  0  0  0  0  0
    9.0666    3.7250    0.0000 H   0  0  0  0  0  0  0  0  0  0  0  0
    5.3905    0.3577    0.0000 H   0  0  0  0  0  0  0  0  0  0  0  0
    5.7890   -0.3326    0.0000 H   0  0  0  0  0  0  0  0  0  0  0  0
   10.0757    1.1423    0.0000 H   0  0  0  0  0  0  0  0  0  0  0  0
    9.6772    1.8326    0.0000 H   0  0  0  0  0  0  0  0  0  0  0  0
    9.9326    2.2750    0.0000 H   0  0  0  0  0  0  0  0  0  0  0  0
   10.7297    2.2750    0.0000 H   0  0  0  0  0  0  0  0  0  0  0  0
    3.7320    2.9400    0.0000 H   0  0  0  0  0  0  0  0  0  0  0  0
    2.3249    4.8326    0.0000 H   0  0  0  0  0  0  0  0  0  0  0  0
    1.9264    4.1423    0.0000 H   0  0  0  0  0  0  0  0  0  0  0  0
    4.2690    0.6300    0.0000 H   0  0  0  0  0  0  0  0  0  0  0  0
    8.8546    0.3577    0.0000 H   0  0  0  0  0  0  0  0  0  0  0  0
    9.2531   -0.3326    0.0000 H   0  0  0  0  0  0  0  0  0  0  0  0
   11.5957    3.7250    0.0000 H   0  0  0  0  0  0  0  0  0  0  0  0
   10.7987    3.7250    0.0000 H   0  0  0  0  0  0  0  0  0  0  0  0
    6.0010    6.8700    0.0000 H   0  0  0  0  0  0  0  0  0  0  0  0
    3.7320    7.5600    0.0000 H   0  0  0  0  0  0  0  0  0  0  0  0
    2.0000    5.9400    0.0000 H   0  0  0  0  0  0  0  0  0  0  0  0
   10.9417   -0.3577    0.0000 H   0  0  0  0  0  0  0  0  0  0  0  0
   10.5432    0.3326    0.0000 H   0  0  0  0  0  0  0  0  0  0  0  0
   11.6647    2.2750    0.0000 H   0  0  0  0  0  0  0  0  0  0  0  0
   12.4617    2.2750    0.0000 H   0  0  0  0  0  0  0  0  0  0  0  0
    9.7206   -1.1423    0.0000 H   0  0  0  0  0  0  0  0  0  0  0  0
   10.1191   -1.8326    0.0000 H   0  0  0  0  0  0  0  0  0  0  0  0
    6.8671   -0.8700    0.0000 H   0  0  0  0  0  0  0  0  0  0  0  0
   13.3278    3.7250    0.0000 H   0  0  0  0  0  0  0  0  0  0  0  0
   12.5307    3.7250    0.0000 H   0  0  0  0  0  0  0  0  0  0  0  0
   11.8078   -1.8577    0.0000 H   0  0  0  0  0  0  0  0  0  0  0  0
   11.4092   -1.1674    0.0000 H   0  0  0  0  0  0  0  0  0  0  0  0
    2.0000    2.9400    0.0000 H   0  0  0  0  0  0  0  0  0  0  0  0
   13.3967    2.2750    0.0000 H   0  0  0  0  0  0  0  0  0  0  0  0
   14.1938    2.2750    0.0000 H   0  0  0  0  0  0  0  0  0  0  0  0
   10.5866   -2.6423    0.0000 H   0  0  0  0  0  0  0  0  0  0  0  0
   10.9851   -3.3326    0.0000 H   0  0  0  0  0  0  0  0  0  0  0  0
   12.6738   -3.3577    0.0000 H   0  0  0  0  0  0  0  0  0  0  0  0
   12.2753   -2.6674    0.0000 H   0  0  0  0  0  0  0  0  0  0  0  0
   15.0598    3.7250    0.0000 H   0  0  0  0  0  0  0  0  0  0  0  0
   14.2628    3.7250    0.0000 H   0  0  0  0  0  0  0  0  0  0  0  0
   11.4526   -4.1423    0.0000 H   0  0  0  0  0  0  0  0  0  0  0  0
   11.8512   -4.8326    0.0000 H   0  0  0  0  0  0  0  0  0  0  0  0
   15.1288    2.2750    0.0000 H   0  0  0  0  0  0  0  0  0  0  0  0
   15.9258    2.2750    0.0000 H   0  0  0  0  0  0  0  0  0  0  0  0
   13.5398   -4.8577    0.0000 H   0  0  0  0  0  0  0  0  0  0  0  0
   13.1413   -4.1674    0.0000 H   0  0  0  0  0  0  0  0  0  0  0  0
   16.7033    2.7131    0.0000 H   0  0  0  0  0  0  0  0  0  0  0  0
   16.9303    3.5600    0.0000 H   0  0  0  0  0  0  0  0  0  0  0  0
   16.0833    3.7869    0.0000 H   0  0  0  0  0  0  0  0  0  0  0  0
   12.3187   -5.6423    0.0000 H   0  0  0  0  0  0  0  0  0  0  0  0
   12.7172   -6.3326    0.0000 H   0  0  0  0  0  0  0  0  0  0  0  0
   14.3322   -7.5600    0.0000 H   0  0  0  0  0  0  0  0  0  0  0  0
 14  1  1  1  0  0  0
 19  1  1  6  0  0  0
  2 16  1  0  0  0  0
  2 18  1  0  0  0  0
 16  3  1  6  0  0  0
  3 22  1  0  0  0  0
  4 19  1  0  0  0  0
  4 24  1  0  0  0  0
 15  5  1  6  0  0  0
  5 69  1  0  0  0  0
 17  6  1  1  0  0  0
  6 72  1  0  0  0  0
 20  7  1  1  0  0  0
  7 77  1  0  0  0  0
 21  8  1  6  0  0  0
  8 78  1  0  0  0  0
 23  9  1  1  0  0  0
  9 79  1  0  0  0  0
 10 27  1  0  0  0  0
 10 86  1  0  0  0  0
 11 30  1  0  0  0  0
 11 91  1  0  0  0  0
 12 47  1  0  0  0  0
 12111  1  0  0  0  0
 13 47  2  0  0  0  0
 14 15  1  0  0  0  0
 14 16  1  0  0  0  0
 14 48  1  0  0  0  0
 15 17  1  0  0  0  0
 15 49  1  0  0  0  0
 16 50  1  0  0  0  0
 17 18  1  0  0  0  0
 17 51  1  0  0  0  0
 18 27  1  6  0  0  0
 18 52  1  0  0  0  0
 19 20  1  0  0  0  0
 19 53  1  0  0  0  0
 20 21  1  0  0  0  0
 20 54  1  0  0  0  0
 21 23  1  0  0  0  0
 21 55  1  0  0  0  0
 22 25  1  0  0  0  0
 22 26  1  0  0  0  0
 22 56  1  0  0  0  0
 23 24  1  0  0  0  0
 23 57  1  0  0  0  0
 24 30  1  6  0  0  0
 24 58  1  0  0  0  0
 25 28  1  0  0  0  0
 25 59  1  0  0  0  0
 25 60  1  0  0  0  0
 26 29  1  0  0  0  0
 26 61  1  0  0  0  0
 26 62  1  0  0  0  0
 27 63  1  0  0  0  0
 27 64  1  0  0  0  0
 28 31  1  0  0  0  0
 28 65  1  0  0  0  0
 28 66  1  0  0  0  0
 29 32  1  0  0  0  0
 29 67  1  0  0  0  0
 29 68  1  0  0  0  0
 30 70  1  0  0  0  0
 30 71  1  0  0  0  0
 31 33  1  0  0  0  0
 31 73  1  0  0  0  0
 31 74  1  0  0  0  0
 32 34  1  0  0  0  0
 32 75  1  0  0  0  0
 32 76  1  0  0  0  0
 33 35  1  0  0  0  0
 33 80  1  0  0  0  0
 33 81  1  0  0  0  0
 34 36  1  0  0  0  0
 34 82  1  0  0  0  0
 34 83  1  0  0  0  0
 35 37  1  0  0  0  0
 35 84  1  0  0  0  0
 35 85  1  0  0  0  0
 36 38  1  0  0  0  0
 36 87  1  0  0  0  0
 36 88  1  0  0  0  0
 37 39  1  0  0  0  0
 37 89  1  0  0  0  0
 37 90  1  0  0  0  0
 38 41  1  0  0  0  0
 38 92  1  0  0  0  0
 38 93  1  0  0  0  0
 39 40  1  0  0  0  0
 39 94  1  0  0  0  0
 39 95  1  0  0  0  0
 40 42  1  0  0  0  0
 40 96  1  0  0  0  0
 40 97  1  0  0  0  0
 41 43  1  0  0  0  0
 41 98  1  0  0  0  0
 41 99  1  0  0  0  0
 42 44  1  0  0  0  0
 42100  1  0  0  0  0
 42101  1  0  0  0  0
 43 45  1  0  0  0  0
 43102  1  0  0  0  0
 43103  1  0  0  0  0
 44 46  1  0  0  0  0
 44104  1  0  0  0  0
 44105  1  0  0  0  0
 45106  1  0  0  0  0
 45107  1  0  0  0  0
 45108  1  0  0  0  0
 46 47  1  0  0  0  0
 46109  1  0  0  0  0
 46110  1  0  0  0  0
M  END
> <PUBCHEM_COMPOUND_CID>
25058164

> <PUBCHEM_COMPOUND_CANONICALIZED>
1

> <PUBCHEM_CACTVS_COMPLEXITY>
804

> <PUBCHEM_CACTVS_HBOND_ACCEPTOR>
13

> <PUBCHEM_CACTVS_HBOND_DONOR>
8

> <PUBCHEM_CACTVS_ROTATABLE_BOND>
26

> <PUBCHEM_CACTVS_SUBSKEYS>
AAADcfB8PAAAAAAAAAAAAAAAAAAAAAAAAAAkSAAAAAAAAAAAAAAAGgAACAAACBSwgAMCCAAABgAIAACQCAAAAAAAAAAAAAEAAAAREBIAAAAiQAAFAAAHAAHI6KyAAAAAAAAAAAAAAAAAAAAAAAAAAAAAAA==

> <PUBCHEM_IUPAC_OPENEYE_NAME>
13-[(2R,3R,4S,5S,6R)-4,5-dihydroxy-6-(hydroxymethyl)-3-[(2S,3R,4S,5S,6R)-3,4,5-trihydroxy-6-(hydroxymethyl)tetrahydropyran-2-yl]oxy-tetrahydropyran-2-yl]oxydocosanoic acid

> <PUBCHEM_IUPAC_CAS_NAME>
13-[[(2R,3R,4S,5S,6R)-4,5-dihydroxy-6-(hydroxymethyl)-3-[[(2S,3R,4S,5S,6R)-3,4,5-trihydroxy-6-(hydroxymethyl)-2-oxanyl]oxy]-2-oxanyl]oxy]docosanoic acid

> <PUBCHEM_IUPAC_NAME>
13-[(2R,3R,4S,5S,6R)-4,5-dihydroxy-6-(hydroxymethyl)-3-[(2S,3R,4S,5S,6R)-3,4,5-trihydroxy-6-(hydroxymethyl)oxan-2-yl]oxyoxan-2-yl]oxydocosanoic acid

> <PUBCHEM_IUPAC_SYSTEMATIC_NAME>
13-[(2R,3R,4S,5S,6R)-6-(hydroxymethyl)-3-[(2S,3R,4S,5S,6R)-6-(hydroxymethyl)-3,4,5-tris(oxidanyl)oxan-2-yl]oxy-4,5-bis(oxidanyl)oxan-2-yl]oxydocosanoic acid

> <PUBCHEM_IUPAC_TRADITIONAL_NAME>
13-[(2R,3R,4S,5S,6R)-4,5-dihydroxy-6-methylol-3-[(2S,3R,4S,5S,6R)-3,4,5-trihydroxy-6-methylol-tetrahydropyran-2-yl]oxy-tetrahydropyran-2-yl]oxybehenic acid

> <PUBCHEM_IUPAC_INCHI>
InChI=1S/C34H64O13/c1-2-3-4-5-9-12-15-18-23(19-16-13-10-7-6-8-11-14-17-20-26(37)38)44-34-32(30(42)28(40)25(22-36)46-34)47-33-31(43)29(41)27(39)24(21-35)45-33/h23-25,27-36,39-43H,2-22H2,1H3,(H,37,38)/t23?,24-,25-,27-,28-,29+,30+,31-,32-,33+,34-/m1/s1

> <PUBCHEM_IUPAC_INCHIKEY>
OAKLJPBSRRDONB-FCILMWLFSA-N

> <PUBCHEM_XLOGP3_AA>
5.3

> <PUBCHEM_EXACT_MASS>
680.434692

> <PUBCHEM_MOLECULAR_FORMULA>
C34H64O13

> <PUBCHEM_MOLECULAR_WEIGHT>
680.86416

> <PUBCHEM_OPENEYE_CAN_SMILES>
CCCCCCCCCC(CCCCCCCCCCCC(=O)O)OC1C(C(C(C(O1)CO)O)O)OC2C(C(C(C(O2)CO)O)O)O

> <PUBCHEM_OPENEYE_ISO_SMILES>
CCCCCCCCCC(CCCCCCCCCCCC(=O)O)O[C@H]1[C@@H]([C@H]([C@@H]([C@H](O1)CO)O)O)O[C@H]2[C@@H]([C@H]([C@@H]([C@H](O2)CO)O)O)O

> <PUBCHEM_CACTVS_TPSA>
216

> <PUBCHEM_MONOISOTOPIC_WEIGHT>
680.434692

> <PUBCHEM_TOTAL_CHARGE>
0

> <PUBCHEM_HEAVY_ATOM_COUNT>
47

> <PUBCHEM_ATOM_DEF_STEREO_COUNT>
10

> <PUBCHEM_ATOM_UDEF_STEREO_COUNT>
1

> <PUBCHEM_BOND_DEF_STEREO_COUNT>
0

> <PUBCHEM_BOND_UDEF_STEREO_COUNT>
0

> <PUBCHEM_ISOTOPIC_ATOM_COUNT>
0

> <PUBCHEM_COMPONENT_COUNT>
1

> <PUBCHEM_CACTVS_TAUTO_COUNT>
1

> <PUBCHEM_COORDINATE_TYPE>
1
5
255

> <PUBCHEM_BONDANNOTATIONS>
14  1  5
19  1  6
18  27  6
22  56  3
24  30  6
16  3  6
15  5  6
17  6  5
20  7  5
21  8  6
23  9  5

$$$$

