   Color/Form
        White crystalline powder
   from [1]HSDB

   Odor
        Nearly odorless
   from [2]HSDB

   Melting Point
        196 deg C
   from [3]HSDB

   Solubilities

     * In water <1 mg/l (25 deg C)
     * In acetone 1.3 g/kg at 25 deg C; in chloroform 216 g/kg at 25 deg
       C; in methanol 37 g/kg at 25 deg C; in toluene 10 g/kg at 25 deg C;
       in dichloromethane 34 g/kg at 25 deg C; in carbon tetrachloride 28
       g/kg at 25 deg C; in benzene 16 g/kg at 25 deg C; in xylene 3.6
       g/kg at 25 deg C

   from [4]HSDB

   Vapor Pressure
        Negligible (25 deg C)
   from [5]HSDB

   Computed Properties
   Molecular Weight                  386.1799 [g/mol]
   Molecular Formula                 C[18]H[35]OSn
   H-Bond Donor                      1
   H-Bond Acceptor                   1
   Rotatable Bond Count              3
   Exact Mass                        387.170985
   MonoIsotopic Mass                 387.170985
   Topological Polar Surface Area    1
   Heavy Atom Count                  20
   Formal Charge                     0
   Complexity                        207
   Isotope Atom Count                0
   Defined Atom Stereocenter Count   0
   Undefined Atom Stereocenter Count 0
   Defined Bond Stereocenter Count   0
   Undefined Bond Stereocenter Count 0
   Covalently-Bonded Unit Count      2

References

   1. http://toxnet.nlm.nih.gov/cgi-bin/sis/search/r?dbs+hsdb:@term+@rn+@rel+13121-70-5
   2. http://toxnet.nlm.nih.gov/cgi-bin/sis/search/r?dbs+hsdb:@term+@rn+@rel+13121-70-5
   3. http://toxnet.nlm.nih.gov/cgi-bin/sis/search/r?dbs+hsdb:@term+@rn+@rel+13121-70-5
   4. http://toxnet.nlm.nih.gov/cgi-bin/sis/search/r?dbs+hsdb:@term+@rn+@rel+13121-70-5
   5. http://toxnet.nlm.nih.gov/cgi-bin/sis/search/r?dbs+hsdb:@term+@rn+@rel+13121-70-5
