   Color/Form
        Colorless liquid
   from [1]HSDB

   Odor
        Pleasant
   from [2]HSDB

   Boiling Point
        214-218 deg C
   from [3]HSDB

   Melting Point
        -90 deg C
   from [4]HSDB

   Density/Specific Gravity
        0.880 g/cu cm at 25 deg C
   from [5]HSDB

   Octanol/Water Partition Coefficient
        log Kow = 4.09 /Estimated/
   from [6]HSDB

   Solubilities
        100 mg/l @ 25 deg C
   from [7]HSDB

   Spectral Properties

     * Index of refraction: 1.4332 @ 25 deg C
     * MASS: 56002 (NIST/EPA/MCMD Mass Spectral Database 1990 version)
     * IR: 2248 (Coblentz Society Spectral Collection)
     * 1H NMR: 6309 (Sadtler Research Laboratories Spectral Collection)

   from [8]HSDB

   Vapor Density
        6.35 (Air= 1)
   from [9]HSDB

   Vapor Pressure
        0.178 mm Hg @ 25 deg C /Extrapolated/
   from [10]HSDB

   Other Chemical/Physical Properties

     * Boiling point: 130 deg C @ 50 mm Hg; conversion factor: 1 ppm =
       7.52 mg/cu cm
     * Polymerizes readily, unless inhibited
     * Sets to glass at -90 deg C
     * SHARP, MILD-ESTER TYPE, INOFFENSIVE ODOR; LIQUID SURFACE TENSION
       (ESTIMATED): 26 DYNES/CM; LATENT HEAT OF VAPORIZATION: 110 BTU/LB;
       LIQUID-WATER INTERFACIAL TENSION (ESTIMATED): 30 DYNES/CM; HEAT OF
       POLYMERIZATION: -142 BTU/LB; HEAT OF COMBUSTION: -15500 BTU/LB
       /INHIBITED/
     * Liquid heat capacity= 0.421 BTU/lb-F @ 70 deg F; Liquid thermal
       conductivity= 1.048 BTU-in/hr-sq ft-F at 70 deg F; Liquid
       viscosity: 1.761 cP at 70 deg C; Saturated vapor pressure= 0.011
       lb/sq in @ 100 deg F; Saturated vapor density= 0.00035 lb/cu ft @
       100 deg F; Solubility in water: 0.340 lb/100 lb at 68 deg C
       /Inhibited/
     * Heat of evaporation: 0.25 kJ/g; specific heat: 1.92 J/g deg C
     * React readily with electrophilic, free-radical, and nucleophilic
       agent /Acrylic acid and esters/
     * Henry's Law constant: 0.000432 atm-cu m/mol @ 25 deg C /Estimated/
     * Hydroxyl radical reaction rate constant: 2.0X10-11 cu
       cm/molecule-sec @ 25 deg C /Estimated/
     * Threshold concentration for taste... appears to be 0.03 mg/L... .

   from [11]HSDB

   Computed Properties
   Molecular Weight                  184.2753 [g/mol]
   Molecular Formula                 C[11]H[20]O[2]
   XLogP3-AA                         3.8
   H-Bond Donor                      0
   H-Bond Acceptor                   2
   Rotatable Bond Count              8
   Exact Mass                        184.14633
   MonoIsotopic Mass                 184.14633
   Topological Polar Surface Area    26.3
   Heavy Atom Count                  13
   Formal Charge                     0
   Complexity                        152
   Isotope Atom Count                0
   Defined Atom Stereocenter Count   0
   Undefined Atom Stereocenter Count 1
   Defined Bond Stereocenter Count   0
   Undefined Bond Stereocenter Count 0
   Covalently-Bonded Unit Count      1
   Feature 3D Acceptor Count         1
   Feature 3D Hydrophobe Count       4
   Effective Rotor Count             8
   Conformer Sampling RMSD           0.8
   CID Conformer Count               [12]264

References

   1. http://toxnet.nlm.nih.gov/cgi-bin/sis/search/r?dbs+hsdb:@term+@rn+@rel+103-11-7
   2. http://toxnet.nlm.nih.gov/cgi-bin/sis/search/r?dbs+hsdb:@term+@rn+@rel+103-11-7
   3. http://toxnet.nlm.nih.gov/cgi-bin/sis/search/r?dbs+hsdb:@term+@rn+@rel+103-11-7
   4. http://toxnet.nlm.nih.gov/cgi-bin/sis/search/r?dbs+hsdb:@term+@rn+@rel+103-11-7
   5. http://toxnet.nlm.nih.gov/cgi-bin/sis/search/r?dbs+hsdb:@term+@rn+@rel+103-11-7
   6. http://toxnet.nlm.nih.gov/cgi-bin/sis/search/r?dbs+hsdb:@term+@rn+@rel+103-11-7
   7. http://toxnet.nlm.nih.gov/cgi-bin/sis/search/r?dbs+hsdb:@term+@rn+@rel+103-11-7
   8. http://toxnet.nlm.nih.gov/cgi-bin/sis/search/r?dbs+hsdb:@term+@rn+@rel+103-11-7
   9. http://toxnet.nlm.nih.gov/cgi-bin/sis/search/r?dbs+hsdb:@term+@rn+@rel+103-11-7
  10. http://toxnet.nlm.nih.gov/cgi-bin/sis/search/r?dbs+hsdb:@term+@rn+@rel+103-11-7
  11. http://toxnet.nlm.nih.gov/cgi-bin/sis/search/r?dbs+hsdb:@term+@rn+@rel+103-11-7
  12. http://pubchem.ncbi.nlm.nih.gov/vw3d/vw3d.cgi?cid=7636
