586158
  -OEChem-06241222452D

 41 41  0     0  0  0  0  0  0999 V2000
   11.2800   -1.1535    0.0000 O   0  0  0  0  0  0  0  0  0  0  0  0
    2.7431    0.5657    0.0000 O   0  0  0  0  0  0  0  0  0  0  0  0
    3.9021    1.8529    0.0000 O   0  0  0  0  0  0  0  0  0  0  0  0
   13.2480   -1.8529    0.0000 O   0  0  0  0  0  0  0  0  0  0  0  0
    7.0826    0.1545    0.0000 C   0  0  0  0  0  0  0  0  0  0  0  0
    7.8258   -0.5146    0.0000 C   0  0  0  0  0  0  0  0  0  0  0  0
    6.1316   -0.1545    0.0000 C   0  0  0  0  0  0  0  0  0  0  0  0
    8.7768   -0.2056    0.0000 C   0  0  0  0  0  0  0  0  0  0  0  0
    5.3884    0.5146    0.0000 C   0  0  0  0  0  0  0  0  0  0  0  0
    9.5200   -0.8747    0.0000 C   0  0  0  0  0  0  0  0  0  0  0  0
    4.4374    0.2056    0.0000 C   0  0  0  0  0  0  0  0  0  0  0  0
   10.4710   -0.5657    0.0000 C   0  0  0  0  0  0  0  0  0  0  0  0
   10.7800    0.3853    0.0000 C   0  0  0  0  0  0  0  0  0  0  0  0
    3.6942    0.8747    0.0000 C   0  0  0  0  0  0  0  0  0  0  0  0
   12.0890   -0.5657    0.0000 C   0  0  0  0  0  0  0  0  0  0  0  0
   11.7800    0.3853    0.0000 C   0  0  0  0  0  0  0  0  0  0  0  0
   13.0401   -0.8747    0.0000 C   0  0  0  0  0  0  0  0  0  0  0  0
   13.7832   -0.2056    0.0000 C   0  0  0  0  0  0  0  0  0  0  0  0
    2.0000    1.2348    0.0000 C   0  0  0  0  0  0  0  0  0  0  0  0
    7.5712    0.5362    0.0000 H   0  0  0  0  0  0  0  0  0  0  0  0
    6.7915    0.7019    0.0000 H   0  0  0  0  0  0  0  0  0  0  0  0
    7.3372   -0.8963    0.0000 H   0  0  0  0  0  0  0  0  0  0  0  0
    8.1168   -1.0620    0.0000 H   0  0  0  0  0  0  0  0  0  0  0  0
    5.6430   -0.5362    0.0000 H   0  0  0  0  0  0  0  0  0  0  0  0
    6.4226   -0.7019    0.0000 H   0  0  0  0  0  0  0  0  0  0  0  0
    9.2654    0.1761    0.0000 H   0  0  0  0  0  0  0  0  0  0  0  0
    8.4857    0.3418    0.0000 H   0  0  0  0  0  0  0  0  0  0  0  0
    5.8770    0.8963    0.0000 H   0  0  0  0  0  0  0  0  0  0  0  0
    5.0973    1.0620    0.0000 H   0  0  0  0  0  0  0  0  0  0  0  0
    9.0314   -1.2564    0.0000 H   0  0  0  0  0  0  0  0  0  0  0  0
    9.8110   -1.4222    0.0000 H   0  0  0  0  0  0  0  0  0  0  0  0
    3.9488   -0.1761    0.0000 H   0  0  0  0  0  0  0  0  0  0  0  0
    4.7284   -0.3418    0.0000 H   0  0  0  0  0  0  0  0  0  0  0  0
   10.4156    0.8869    0.0000 H   0  0  0  0  0  0  0  0  0  0  0  0
   12.1445    0.8869    0.0000 H   0  0  0  0  0  0  0  0  0  0  0  0
   14.1981   -0.6664    0.0000 H   0  0  0  0  0  0  0  0  0  0  0  0
   14.2440    0.2093    0.0000 H   0  0  0  0  0  0  0  0  0  0  0  0
   13.3684    0.2551    0.0000 H   0  0  0  0  0  0  0  0  0  0  0  0
    2.4149    1.6956    0.0000 H   0  0  0  0  0  0  0  0  0  0  0  0
    1.5392    1.6497    0.0000 H   0  0  0  0  0  0  0  0  0  0  0  0
    1.5851    0.7741    0.0000 H   0  0  0  0  0  0  0  0  0  0  0  0
  1 12  1  0  0  0  0
  1 15  1  0  0  0  0
  2 14  1  0  0  0  0
  2 19  1  0  0  0  0
  3 14  2  0  0  0  0
  4 17  2  0  0  0  0
  5  6  1  0  0  0  0
  5  7  1  0  0  0  0
  5 20  1  0  0  0  0
  5 21  1  0  0  0  0
  6  8  1  0  0  0  0
  6 22  1  0  0  0  0
  6 23  1  0  0  0  0
  7  9  1  0  0  0  0
  7 24  1  0  0  0  0
  7 25  1  0  0  0  0
  8 10  1  0  0  0  0
  8 26  1  0  0  0  0
  8 27  1  0  0  0  0
  9 11  1  0  0  0  0
  9 28  1  0  0  0  0
  9 29  1  0  0  0  0
 10 12  1  0  0  0  0
 10 30  1  0  0  0  0
 10 31  1  0  0  0  0
 11 14  1  0  0  0  0
 11 32  1  0  0  0  0
 11 33  1  0  0  0  0
 12 13  2  0  0  0  0
 13 16  1  0  0  0  0
 13 34  1  0  0  0  0
 15 16  2  0  0  0  0
 15 17  1  0  0  0  0
 16 35  1  0  0  0  0
 17 18  1  0  0  0  0
 18 36  1  0  0  0  0
 18 37  1  0  0  0  0
 18 38  1  0  0  0  0
 19 39  1  0  0  0  0
 19 40  1  0  0  0  0
 19 41  1  0  0  0  0
M  END
> <PUBCHEM_COMPOUND_CID>
586158

> <PUBCHEM_COMPOUND_CANONICALIZED>
1

> <PUBCHEM_CACTVS_COMPLEXITY>
288

> <PUBCHEM_CACTVS_HBOND_ACCEPTOR>
4

> <PUBCHEM_CACTVS_HBOND_DONOR>
0

> <PUBCHEM_CACTVS_ROTATABLE_BOND>
10

> <PUBCHEM_CACTVS_SUBSKEYS>
AAADceBwOAAAAAAAAAAAAAAAAAAAASAAAAAAAAAAAAAAAAABgAAAGgAAAAAACASAkAIyDIAABECIAKDSCAICCAAkIAAIiAFGCMgMJjKENR6CGSCkwBEIqYeIzqDgAAAAAAAAAAAAAAAAAAAAAAAAAAAAAA==

> <PUBCHEM_IUPAC_OPENEYE_NAME>
methyl 8-(5-acetyl-2-furyl)octanoate

> <PUBCHEM_IUPAC_CAS_NAME>
8-(5-acetyl-2-furanyl)octanoic acid methyl ester

> <PUBCHEM_IUPAC_NAME>
methyl 8-(5-acetylfuran-2-yl)octanoate

> <PUBCHEM_IUPAC_SYSTEMATIC_NAME>
methyl 8-(5-ethanoylfuran-2-yl)octanoate

> <PUBCHEM_IUPAC_TRADITIONAL_NAME>
8-(5-acetyl-2-furyl)caprylic acid methyl ester

> <PUBCHEM_IUPAC_INCHI>
InChI=1S/C15H22O4/c1-12(16)14-11-10-13(19-14)8-6-4-3-5-7-9-15(17)18-2/h10-11H,3-9H2,1-2H3

> <PUBCHEM_IUPAC_INCHIKEY>
JZYLMLOIFHKJAD-UHFFFAOYSA-N

> <PUBCHEM_XLOGP3_AA>
3.5

> <PUBCHEM_EXACT_MASS>
266.151809

> <PUBCHEM_MOLECULAR_FORMULA>
C15H22O4

> <PUBCHEM_MOLECULAR_WEIGHT>
266.33278

> <PUBCHEM_OPENEYE_CAN_SMILES>
CC(=O)C1=CC=C(O1)CCCCCCCC(=O)OC

> <PUBCHEM_OPENEYE_ISO_SMILES>
CC(=O)C1=CC=C(O1)CCCCCCCC(=O)OC

> <PUBCHEM_CACTVS_TPSA>
56.5

> <PUBCHEM_MONOISOTOPIC_WEIGHT>
266.151809

> <PUBCHEM_TOTAL_CHARGE>
0

> <PUBCHEM_HEAVY_ATOM_COUNT>
19

> <PUBCHEM_ATOM_DEF_STEREO_COUNT>
0

> <PUBCHEM_ATOM_UDEF_STEREO_COUNT>
0

> <PUBCHEM_BOND_DEF_STEREO_COUNT>
0

> <PUBCHEM_BOND_UDEF_STEREO_COUNT>
0

> <PUBCHEM_ISOTOPIC_ATOM_COUNT>
0

> <PUBCHEM_COMPONENT_COUNT>
1

> <PUBCHEM_CACTVS_TAUTO_COUNT>
7

> <PUBCHEM_COORDINATE_TYPE>
1
5
255

> <PUBCHEM_BONDANNOTATIONS>
1  12  8
1  15  8
12  13  8
13  16  8
15  16  8

$$$$

