   Color/Form
        White or faintly yellow pearly granules or crystals
   from [1]HSDB

   Odor
        Almost odorless
   from [2]HSDB

   Boiling Point
        360 deg C (decomposes)
   from [3]HSDB

   Melting Point
        148.5 deg C
   from [4]HSDB

   Density/Specific Gravity
        1.067 @ 20 deg C/4 deg C
   from [5]HSDB

   Solubilities

     * Moderately soluble in hot alcohol; soluble in benzene, oils, fats
       and aq solns of bile salts
     * In water, 0.095 mg/l @ 30 deg C.

   from [6]HSDB

   Spectral Properties

     * Specific rotation: -34 to 38 deg @ 25 deg C
     * MASS: 77695 (NIST/EPA/MSDC Mass Spectral Database, 1990 version);
       2202 (Atlas of Mass Spectral Data, John Wiley and Sons, NY)
     * IR: 5106 (Coblentz Society spectral collection)
     * UV: 6-1148 (Phillip et al; Organic Electronic Spectral Data, John
       Wiley and Sons, NY)
     * 1HNMR: 363 (Varion Associates NMR spectral collection)
     * 13CNMR: 494 (Johnson and Jankowski: Carbon-13 NMR Spectra, John
       Wiley and Sons, NY)

   from [7]HSDB

   Other Chemical/Physical Properties

     * Pearly leaflets or plates from dilute alcohol; becomes anhydrous at
       70-80 deg C; density 1.03; practically insoluble in water (about
       0.2 mg/100 ml H2O); slightly soluble in alcohol (1.29% w/w at 20
       deg C); more soluble in hot alcohol (100 g of saturated 96%
       alcoholic solution contains 28 g at 80 deg C); one gram dissolves
       in 2.8 ml ether, in 4.5 ml chloroform, in 1.5 ml pyridine. Also
       soluble in benzene petroleum, oils, fats. Soluble in aqueous
       solution of bile salts; optical rotation (20 deg C/D) = -31.5 deg
       (c = 2 in ether); optical rotation (20 deg C/D) = -39.5 deg (c= 2
       in chloroform). /Monohydrate/
     * Crystal from acetone; MP 84 deg C; optical rotation (20 deg C/D) =
       -45.8 deg (c = 1.2 in chloroform). /Methyl ether/
     * Needles from acetone; MP 115-116 deg C; optical rotation (20 dec
       C/D) = -47.4 deg (c = 2 in chloroform). /Acetate/
     * MP: 145.5 deg C (the melt becomes clear at 180 deg C); optical
       rotation (25 deg C/D) = -13.7 deg (c = 0.9 in chloroform)
       /Benzoate/
     * VP: 0.171 mm Hg at 149 deg C

   from [8]HSDB

   Computed Properties
   Molecular Weight                  386.65354 [g/mol]
   Molecular Formula                 C[27]H[46]O
   XLogP3                            8.7
   H-Bond Donor                      1
   H-Bond Acceptor                   1
   Rotatable Bond Count              5
   Exact Mass                        386.354866
   MonoIsotopic Mass                 386.354866
   Topological Polar Surface Area    20.2
   Heavy Atom Count                  28
   Formal Charge                     0
   Complexity                        591
   Isotope Atom Count                0
   Defined Atom Stereocenter Count   8
   Undefined Atom Stereocenter Count 0
   Defined Bond Stereocenter Count   0
   Undefined Bond Stereocenter Count 0
   Covalently-Bonded Unit Count      1
   Feature 3D Acceptor Count         1
   Feature 3D Donor Count            1
   Feature 3D Hydrophobe Count       3
   Feature 3D Ring Count             4
   Effective Rotor Count             7
   Conformer Sampling RMSD           0.8
   CID Conformer Count               [9]8

References

   1. http://toxnet.nlm.nih.gov/cgi-bin/sis/search/r?dbs+hsdb:@term+@rn+@rel+57-88-5
   2. http://toxnet.nlm.nih.gov/cgi-bin/sis/search/r?dbs+hsdb:@term+@rn+@rel+57-88-5
   3. http://toxnet.nlm.nih.gov/cgi-bin/sis/search/r?dbs+hsdb:@term+@rn+@rel+57-88-5
   4. http://toxnet.nlm.nih.gov/cgi-bin/sis/search/r?dbs+hsdb:@term+@rn+@rel+57-88-5
   5. http://toxnet.nlm.nih.gov/cgi-bin/sis/search/r?dbs+hsdb:@term+@rn+@rel+57-88-5
   6. http://toxnet.nlm.nih.gov/cgi-bin/sis/search/r?dbs+hsdb:@term+@rn+@rel+57-88-5
   7. http://toxnet.nlm.nih.gov/cgi-bin/sis/search/r?dbs+hsdb:@term+@rn+@rel+57-88-5
   8. http://toxnet.nlm.nih.gov/cgi-bin/sis/search/r?dbs+hsdb:@term+@rn+@rel+57-88-5
   9. http://pubchem.ncbi.nlm.nih.gov/vw3d/vw3d.cgi?cid=5997
