443417
  -OEChem-07051213022D

 54 59  0     1  0  0  0  0  0999 V2000
    2.0078    3.1029    0.0000 O   0  0  0  0  0  0  0  0  0  0  0  0
    6.3981    3.5401    0.0000 O   0  0  0  0  0  0  0  0  0  0  0  0
    7.2641    2.0401    0.0000 O   0  0  0  0  0  0  0  0  0  0  0  0
    6.1101   -3.2283    0.0000 O   0  0  0  0  0  0  0  0  0  0  0  0
    2.9061    0.5054    0.0000 N   0  0  3  0  0  0  0  0  0  0  0  0
    6.2691    0.3730    0.0000 N   0  0  0  0  0  0  0  0  0  0  0  0
    3.8000    2.0401    0.0000 C   0  0  1  0  0  0  0  0  0  0  0  0
    3.8000    1.0401    0.0000 C   0  0  1  0  0  0  0  0  0  0  0  0
    4.6660    0.5401    0.0000 C   0  0  2  0  0  0  0  0  0  0  0  0
    2.9061    2.5747    0.0000 C   0  0  3  0  0  0  0  0  0  0  0  0
    2.0000    2.0609    0.0000 C   0  0  3  0  0  0  0  0  0  0  0  0
    2.0000    1.0192    0.0000 C   0  0  0  0  0  0  0  0  0  0  0  0
    4.6660    2.5401    0.0000 C   0  0  0  0  0  0  0  0  0  0  0  0
    4.3009   -0.3843    0.0000 C   0  0  0  0  0  0  0  0  0  0  0  0
    3.3073   -0.4038    0.0000 C   0  0  0  0  0  0  0  0  0  0  0  0
    5.5321    1.0401    0.0000 C   0  0  0  0  0  0  0  0  0  0  0  0
    3.8000    3.0401    0.0000 C   0  0  0  0  0  0  0  0  0  0  0  0
    4.8752   -0.4318    0.0000 C   0  0  0  0  0  0  0  0  0  0  0  0
    5.5321    2.0401    0.0000 C   0  0  0  0  0  0  0  0  0  0  0  0
    5.8640   -0.5348    0.0000 C   0  0  0  0  0  0  0  0  0  0  0  0
    4.6660    3.5401    0.0000 C   0  0  0  0  0  0  0  0  0  0  0  0
    4.2545   -1.2605    0.0000 C   0  0  0  0  0  0  0  0  0  0  0  0
    6.3981    2.5401    0.0000 C   0  0  0  0  0  0  0  0  0  0  0  0
    6.3005   -1.4738    0.0000 C   0  0  0  0  0  0  0  0  0  0  0  0
    4.6692   -2.2093    0.0000 C   0  0  0  0  0  0  0  0  0  0  0  0
    5.6990   -2.3167    0.0000 C   0  0  0  0  0  0  0  0  0  0  0  0
    7.2641    4.0401    0.0000 C   0  0  0  0  0  0  0  0  0  0  0  0
    5.5261   -4.0401    0.0000 C   0  0  0  0  0  0  0  0  0  0  0  0
    3.0639    1.4651    0.0000 H   0  0  0  0  0  0  0  0  0  0  0  0
    3.3396    3.3058    0.0000 H   0  0  0  0  0  0  0  0  0  0  0  0
    1.1500    2.0640    0.0000 H   0  0  0  0  0  0  0  0  0  0  0  0
    1.3891    1.1253    0.0000 H   0  0  0  0  0  0  0  0  0  0  0  0
    1.7909    0.4356    0.0000 H   0  0  0  0  0  0  0  0  0  0  0  0
    5.0646    3.0150    0.0000 H   0  0  0  0  0  0  0  0  0  0  0  0
    4.2675    3.0150    0.0000 H   0  0  0  0  0  0  0  0  0  0  0  0
    4.2315   -1.0004    0.0000 H   0  0  0  0  0  0  0  0  0  0  0  0
    4.9025   -0.5342    0.0000 H   0  0  0  0  0  0  0  0  0  0  0  0
    2.7121   -0.5773    0.0000 H   0  0  0  0  0  0  0  0  0  0  0  0
    3.4010   -1.0167    0.0000 H   0  0  0  0  0  0  0  0  0  0  0  0
    3.5880    3.6227    0.0000 H   0  0  0  0  0  0  0  0  0  0  0  0
    3.1894    2.9324    0.0000 H   0  0  0  0  0  0  0  0  0  0  0  0
    6.8758    0.5008    0.0000 H   0  0  0  0  0  0  0  0  0  0  0  0
    4.9760    3.0031    0.0000 H   0  0  0  0  0  0  0  0  0  0  0  0
    5.2030    3.8501    0.0000 H   0  0  0  0  0  0  0  0  0  0  0  0
    4.3560    4.0770    0.0000 H   0  0  0  0  0  0  0  0  0  0  0  0
    3.6386   -1.1891    0.0000 H   0  0  0  0  0  0  0  0  0  0  0  0
    6.9178   -1.5309    0.0000 H   0  0  0  0  0  0  0  0  0  0  0  0
    4.3032   -2.7098    0.0000 H   0  0  0  0  0  0  0  0  0  0  0  0
    7.5741    3.5031    0.0000 H   0  0  0  0  0  0  0  0  0  0  0  0
    7.8010    4.3501    0.0000 H   0  0  0  0  0  0  0  0  0  0  0  0
    6.9541    4.5770    0.0000 H   0  0  0  0  0  0  0  0  0  0  0  0
    5.0228   -3.6780    0.0000 H   0  0  0  0  0  0  0  0  0  0  0  0
    5.1641   -4.5434    0.0000 H   0  0  0  0  0  0  0  0  0  0  0  0
    6.0294   -4.4021    0.0000 H   0  0  0  0  0  0  0  0  0  0  0  0
  1 10  1  0  0  0  0
  1 11  1  0  0  0  0
  2 23  1  0  0  0  0
  2 27  1  0  0  0  0
  3 23  2  0  0  0  0
  4 26  1  0  0  0  0
  4 28  1  0  0  0  0
  5  8  1  0  0  0  0
  5 12  1  0  0  0  0
  5 15  1  0  0  0  0
  6 16  1  0  0  0  0
  6 20  1  0  0  0  0
  6 42  1  0  0  0  0
  7  8  1  0  0  0  0
  7 10  1  0  0  0  0
  7 13  1  0  0  0  0
  7 17  1  6  0  0  0
  8  9  1  0  0  0  0
  8 29  1  6  0  0  0
  9 14  1  1  0  0  0
  9 16  1  0  0  0  0
  9 18  1  0  0  0  0
 10 11  1  0  0  0  0
 10 30  1  0  0  0  0
 11 12  1  0  0  0  0
 11 31  1  0  0  0  0
 12 32  1  0  0  0  0
 12 33  1  0  0  0  0
 13 19  1  0  0  0  0
 13 34  1  0  0  0  0
 13 35  1  0  0  0  0
 14 15  1  0  0  0  0
 14 36  1  0  0  0  0
 14 37  1  0  0  0  0
 15 38  1  0  0  0  0
 15 39  1  0  0  0  0
 16 19  2  0  0  0  0
 17 21  1  0  0  0  0
 17 40  1  0  0  0  0
 17 41  1  0  0  0  0
 18 20  2  0  0  0  0
 18 22  1  0  0  0  0
 19 23  1  0  0  0  0
 20 24  1  0  0  0  0
 21 43  1  0  0  0  0
 21 44  1  0  0  0  0
 21 45  1  0  0  0  0
 22 25  2  0  0  0  0
 22 46  1  0  0  0  0
 24 26  2  0  0  0  0
 24 47  1  0  0  0  0
 25 26  1  0  0  0  0
 25 48  1  0  0  0  0
 27 49  1  0  0  0  0
 27 50  1  0  0  0  0
 27 51  1  0  0  0  0
 28 52  1  0  0  0  0
 28 53  1  0  0  0  0
 28 54  1  0  0  0  0
M  END
> <PUBCHEM_COMPOUND_CID>
443417

> <PUBCHEM_COMPOUND_CANONICALIZED>
1

> <PUBCHEM_CACTVS_COMPLEXITY>
753

> <PUBCHEM_CACTVS_HBOND_ACCEPTOR>
6

> <PUBCHEM_CACTVS_HBOND_DONOR>
1

> <PUBCHEM_CACTVS_ROTATABLE_BOND>
4

> <PUBCHEM_CACTVS_SUBSKEYS>
AAADceB7OAAAAAAAAAAAAAAAEgAAAWLAAAA8QIAABYAAAFiBAAAAHgAQAAAADjzhmAYyzoPABACIAiTSSACCCAAhIgAIiAEObMgOJjLE8ZuHMChm0BnY6Ue4/f/foAAAAgACAABAAAAEAAQAAAAAAAAAAA==

> <PUBCHEM_IUPAC_INCHI>
InChI=1S/C22H26N2O4/c1-4-21-10-13(19(25)27-3)17-22(14-6-5-12(26-2)9-15(14)23-17)7-8-24(20(21)22)11-16-18(21)28-16/h5-6,9,16,18,20,23H,4,7-8,10-11H2,1-3H3/t16?,18?,20-,21+,22-/m0/s1

> <PUBCHEM_IUPAC_INCHIKEY>
YKTXUUJZENEUGL-MKHRZCKRSA-N

> <PUBCHEM_XLOGP3_AA>
2.5

> <PUBCHEM_EXACT_MASS>
382.189257

> <PUBCHEM_MOLECULAR_FORMULA>
C22H26N2O4

> <PUBCHEM_MOLECULAR_WEIGHT>
382.45284

> <PUBCHEM_OPENEYE_CAN_SMILES>
CCC12CC(=C3C4(C1N(CC4)CC5C2O5)C6=C(N3)C=C(C=C6)OC)C(=O)OC

> <PUBCHEM_OPENEYE_ISO_SMILES>
CC[C@]12CC(=C3[C@@]4([C@H]1N(CC4)CC5C2O5)C6=C(N3)C=C(C=C6)OC)C(=O)OC

> <PUBCHEM_CACTVS_TPSA>
63.3

> <PUBCHEM_MONOISOTOPIC_WEIGHT>
382.189257

> <PUBCHEM_TOTAL_CHARGE>
0

> <PUBCHEM_HEAVY_ATOM_COUNT>
28

> <PUBCHEM_ATOM_DEF_STEREO_COUNT>
3

> <PUBCHEM_ATOM_UDEF_STEREO_COUNT>
2

> <PUBCHEM_BOND_DEF_STEREO_COUNT>
0

> <PUBCHEM_BOND_UDEF_STEREO_COUNT>
0

> <PUBCHEM_ISOTOPIC_ATOM_COUNT>
0

> <PUBCHEM_COMPONENT_COUNT>
1

> <PUBCHEM_CACTVS_TAUTO_COUNT>
3

> <PUBCHEM_COORDINATE_TYPE>
1
5
255

> <PUBCHEM_BONDANNOTATIONS>
10  30  3
11  31  3
18  20  8
18  22  8
20  24  8
22  25  8
24  26  8
25  26  8
7  17  6
8  29  6
9  14  5

$$$$

