14074
  -OEChem-07051213132D

 15 15  0     0  0  0  0  0  0999 V2000
    3.3660    1.5280    0.0000 O   0  0  0  0  0  0  0  0  0  0  0  0
    2.5000   -0.9720    0.0000 N   0  0  0  0  0  0  0  0  0  0  0  0
    2.0000   -1.8380    0.0000 C   0  0  0  0  0  0  0  0  0  0  0  0
    3.0000   -1.8380    0.0000 C   0  0  0  0  0  0  0  0  0  0  0  0
    2.5000    0.0280    0.0000 C   0  0  0  0  0  0  0  0  0  0  0  0
    3.3660    0.5280    0.0000 C   0  0  0  0  0  0  0  0  0  0  0  0
    1.4174   -1.6260    0.0000 H   0  0  0  0  0  0  0  0  0  0  0  0
    1.8923   -2.4486    0.0000 H   0  0  0  0  0  0  0  0  0  0  0  0
    3.1077   -2.4486    0.0000 H   0  0  0  0  0  0  0  0  0  0  0  0
    3.5826   -1.6260    0.0000 H   0  0  0  0  0  0  0  0  0  0  0  0
    2.2880    0.6106    0.0000 H   0  0  0  0  0  0  0  0  0  0  0  0
    1.8894   -0.0796    0.0000 H   0  0  0  0  0  0  0  0  0  0  0  0
    3.5781   -0.0546    0.0000 H   0  0  0  0  0  0  0  0  0  0  0  0
    3.9766    0.6357    0.0000 H   0  0  0  0  0  0  0  0  0  0  0  0
    3.9030    1.8380    0.0000 H   0  0  0  0  0  0  0  0  0  0  0  0
  1  6  1  0  0  0  0
  1 15  1  0  0  0  0
  2  3  1  0  0  0  0
  2  4  1  0  0  0  0
  2  5  1  0  0  0  0
  3  4  1  0  0  0  0
  3  7  1  0  0  0  0
  3  8  1  0  0  0  0
  4  9  1  0  0  0  0
  4 10  1  0  0  0  0
  5  6  1  0  0  0  0
  5 11  1  0  0  0  0
  5 12  1  0  0  0  0
  6 13  1  0  0  0  0
  6 14  1  0  0  0  0
M  END
> <PUBCHEM_COMPOUND_CID>
14074

> <PUBCHEM_COMPOUND_CANONICALIZED>
1

> <PUBCHEM_CACTVS_COMPLEXITY>
42.8

> <PUBCHEM_CACTVS_HBOND_ACCEPTOR>
2

> <PUBCHEM_CACTVS_HBOND_DONOR>
1

> <PUBCHEM_CACTVS_ROTATABLE_BOND>
2

> <PUBCHEM_CACTVS_SUBSKEYS>
AAADccBiIAAAAAAAAAAAAAAAFgAAAAAAAAAAAAAAAAAAAAAAAAAAHgAACAAAAADhgAYAAAMAAgAAAAAAAAAAAAAAAAAAAAAIAAACEAAAAAAAAAAAAACQAAAAAAAAAAAAAAAAAAAAAAAAAAAAAAAAAAAAAA==

> <PUBCHEM_IUPAC_OPENEYE_NAME>
2-(aziridin-1-yl)ethanol

> <PUBCHEM_IUPAC_CAS_NAME>
2-(1-aziridinyl)ethanol

> <PUBCHEM_IUPAC_NAME>
2-(aziridin-1-yl)ethanol

> <PUBCHEM_IUPAC_SYSTEMATIC_NAME>
2-(aziridin-1-yl)ethanol

> <PUBCHEM_IUPAC_TRADITIONAL_NAME>
2-ethyleniminoethanol

> <PUBCHEM_IUPAC_INCHI>
InChI=1S/C4H9NO/c6-4-3-5-1-2-5/h6H,1-4H2

> <PUBCHEM_IUPAC_INCHIKEY>
VYONOYYDEFODAJ-UHFFFAOYSA-N

> <PUBCHEM_XLOGP3_AA>
-0.6

> <PUBCHEM_EXACT_MASS>
87.068414

> <PUBCHEM_MOLECULAR_FORMULA>
C4H9NO

> <PUBCHEM_MOLECULAR_WEIGHT>
87.12036

> <PUBCHEM_OPENEYE_CAN_SMILES>
C1CN1CCO

> <PUBCHEM_OPENEYE_ISO_SMILES>
C1CN1CCO

> <PUBCHEM_CACTVS_TPSA>
23.2

> <PUBCHEM_MONOISOTOPIC_WEIGHT>
87.068414

> <PUBCHEM_TOTAL_CHARGE>
0

> <PUBCHEM_HEAVY_ATOM_COUNT>
6

> <PUBCHEM_ATOM_DEF_STEREO_COUNT>
0

> <PUBCHEM_ATOM_UDEF_STEREO_COUNT>
0

> <PUBCHEM_BOND_DEF_STEREO_COUNT>
0

> <PUBCHEM_BOND_UDEF_STEREO_COUNT>
0

> <PUBCHEM_ISOTOPIC_ATOM_COUNT>
0

> <PUBCHEM_COMPONENT_COUNT>
1

> <PUBCHEM_CACTVS_TAUTO_COUNT>
1

> <PUBCHEM_COORDINATE_TYPE>
1
5
255

$$$$

