   Color/Form
        CRYSTALS FROM ETHANOL & WATER
   from [1]HSDB

   Melting Point
        330 DEG C, DECOMP
   from [2]HSDB

   Solubilities
        SOL IN WATER APPROX 5 G/100 ML
   from [3]HSDB

   Spectral Properties

     * IR: 3:348F (Aldrich Library of Infrared Spectra, Aldrich Chemical
       Co, Milwaukee, WI)
     * NMR: 3:17A (Aldrich Library of Mass Spectra, Aldrich Chemical Co,
       Milwaukee, WI)
     * MASS: 257 (National Bureau of Standards EPA-NIH Mass Spectra Data
       Base, NSRDS-NBS-63)

   from [4]HSDB

   Other Chemical/Physical Properties
        MP 274 DEG C, DECOMP; PRISMIC CRYSTALS FROM WATER /HYDROCHLORIDE/
   from [5]HSDB

   Computed Properties
   Molecular Weight                  129.15704 [g/mol]
   Molecular Formula                 C[6]H[11]NO[2]
   XLogP3                            -2.6
   H-Bond Donor                      2
   H-Bond Acceptor                   3
   Rotatable Bond Count              1
   Exact Mass                        129.078979
   MonoIsotopic Mass                 129.078979
   Topological Polar Surface Area    63.3
   Heavy Atom Count                  9
   Formal Charge                     0
   Complexity                        127
   Isotope Atom Count                0
   Defined Atom Stereocenter Count   0
   Undefined Atom Stereocenter Count 0
   Defined Bond Stereocenter Count   0
   Undefined Bond Stereocenter Count 0
   Covalently-Bonded Unit Count      1
   Feature 3D Acceptor Count         2
   Feature 3D Donor Count            1
   Feature 3D Anion Count            1
   Feature 3D Cation Count           1
   Feature 3D Ring Count             1
   Effective Rotor Count             2
   Conformer Sampling RMSD           0.4
   CID Conformer Count               [6]5

References

   1. http://toxnet.nlm.nih.gov/cgi-bin/sis/search/r?dbs+hsdb:@term+@rn+@rel+52-52-8
   2. http://toxnet.nlm.nih.gov/cgi-bin/sis/search/r?dbs+hsdb:@term+@rn+@rel+52-52-8
   3. http://toxnet.nlm.nih.gov/cgi-bin/sis/search/r?dbs+hsdb:@term+@rn+@rel+52-52-8
   4. http://toxnet.nlm.nih.gov/cgi-bin/sis/search/r?dbs+hsdb:@term+@rn+@rel+52-52-8
   5. http://toxnet.nlm.nih.gov/cgi-bin/sis/search/r?dbs+hsdb:@term+@rn+@rel+52-52-8
   6. http://pubchem.ncbi.nlm.nih.gov/vw3d/vw3d.cgi?cid=2901
