101702
  -OEChem-07051213002D

 58 61  0     1  0  0  0  0  0999 V2000
    8.5179    2.8359    0.0000 O   0  0  0  0  0  0  0  0  0  0  0  0
    2.5357   -2.2160    0.0000 N   0  0  0  0  0  0  0  0  0  0  0  0
    6.1968   -0.1636    0.0000 C   0  0  1  0  0  0  0  0  0  0  0  0
    7.0628   -0.6636    0.0000 C   0  0  2  0  0  0  0  0  0  0  0  0
    7.9288   -0.1636    0.0000 C   0  0  1  0  0  0  0  0  0  0  0  0
    7.9288    0.8364    0.0000 C   0  0  2  0  0  0  0  0  0  0  0  0
    5.2868   -0.6705    0.0000 C   0  0  2  0  0  0  0  0  0  0  0  0
    5.2787   -1.7121    0.0000 C   0  0  1  0  0  0  0  0  0  0  0  0
    6.1968    0.8364    0.0000 C   0  0  0  0  0  0  0  0  0  0  0  0
    7.0628    1.3364    0.0000 C   0  0  0  0  0  0  0  0  0  0  0  0
    7.0789   -1.7051    0.0000 C   0  0  0  0  0  0  0  0  0  0  0  0
    8.8750    1.1411    0.0000 C   0  0  2  0  0  0  0  0  0  0  0  0
    8.8750   -0.4683    0.0000 C   0  0  0  0  0  0  0  0  0  0  0  0
    6.1808   -2.2329    0.0000 C   0  0  0  0  0  0  0  0  0  0  0  0
    4.3599   -0.1064    0.0000 C   0  0  0  0  0  0  0  0  0  0  0  0
    9.4586    0.3364    0.0000 C   0  0  0  0  0  0  0  0  0  0  0  0
    4.3433   -2.2618    0.0000 C   0  0  0  0  0  0  0  0  0  0  0  0
    7.9288    1.8364    0.0000 C   0  0  0  0  0  0  0  0  0  0  0  0
    5.2945    0.3295    0.0000 C   0  0  0  0  0  0  0  0  0  0  0  0
    3.4120   -0.6343    0.0000 C   0  0  0  0  0  0  0  0  0  0  0  0
    3.4037   -1.7193    0.0000 C   0  0  1  0  0  0  0  0  0  0  0  0
    9.1857    2.0916    0.0000 C   0  0  0  0  0  0  0  0  0  0  0  0
   10.1642    2.2979    0.0000 C   0  0  0  0  0  0  0  0  0  0  0  0
    6.9329    0.2614    0.0000 H   0  0  0  0  0  0  0  0  0  0  0  0
    7.8022   -1.0829    0.0000 H   0  0  0  0  0  0  0  0  0  0  0  0
    8.0188   -1.0088    0.0000 H   0  0  0  0  0  0  0  0  0  0  0  0
    5.2820   -2.5620    0.0000 H   0  0  0  0  0  0  0  0  0  0  0  0
    5.9847    1.4190    0.0000 H   0  0  0  0  0  0  0  0  0  0  0  0
    5.5862    0.7287    0.0000 H   0  0  0  0  0  0  0  0  0  0  0  0
    7.4613    1.8113    0.0000 H   0  0  0  0  0  0  0  0  0  0  0  0
    6.6643    1.8113    0.0000 H   0  0  0  0  0  0  0  0  0  0  0  0
    7.2969   -2.2855    0.0000 H   0  0  0  0  0  0  0  0  0  0  0  0
    7.6880   -1.5896    0.0000 H   0  0  0  0  0  0  0  0  0  0  0  0
    9.4875    1.2373    0.0000 H   0  0  0  0  0  0  0  0  0  0  0  0
    8.6240   -1.0352    0.0000 H   0  0  0  0  0  0  0  0  0  0  0  0
    9.4124   -0.7776    0.0000 H   0  0  0  0  0  0  0  0  0  0  0  0
    5.7835   -2.7088    0.0000 H   0  0  0  0  0  0  0  0  0  0  0  0
    6.5818   -2.7058    0.0000 H   0  0  0  0  0  0  0  0  0  0  0  0
    4.7681    0.3603    0.0000 H   0  0  0  0  0  0  0  0  0  0  0  0
    3.9700    0.3757    0.0000 H   0  0  0  0  0  0  0  0  0  0  0  0
    9.9195   -0.0783    0.0000 H   0  0  0  0  0  0  0  0  0  0  0  0
    9.9195    0.7511    0.0000 H   0  0  0  0  0  0  0  0  0  0  0  0
    3.9460   -2.7378    0.0000 H   0  0  0  0  0  0  0  0  0  0  0  0
    4.7443   -2.7347    0.0000 H   0  0  0  0  0  0  0  0  0  0  0  0
    8.5488    1.8364    0.0000 H   0  0  0  0  0  0  0  0  0  0  0  0
    7.9288    2.4564    0.0000 H   0  0  0  0  0  0  0  0  0  0  0  0
    7.3088    1.8364    0.0000 H   0  0  0  0  0  0  0  0  0  0  0  0
    5.9145    0.3247    0.0000 H   0  0  0  0  0  0  0  0  0  0  0  0
    5.2993    0.9495    0.0000 H   0  0  0  0  0  0  0  0  0  0  0  0
    4.6745    0.3343    0.0000 H   0  0  0  0  0  0  0  0  0  0  0  0
    3.2075   -0.0490    0.0000 H   0  0  0  0  0  0  0  0  0  0  0  0
    2.8004   -0.7357    0.0000 H   0  0  0  0  0  0  0  0  0  0  0  0
    3.4025   -2.3393    0.0000 H   0  0  0  0  0  0  0  0  0  0  0  0
    2.0000   -1.9039    0.0000 H   0  0  0  0  0  0  0  0  0  0  0  0
    2.5334   -2.8359    0.0000 H   0  0  0  0  0  0  0  0  0  0  0  0
   10.2921    1.6912    0.0000 H   0  0  0  0  0  0  0  0  0  0  0  0
   10.7709    2.4257    0.0000 H   0  0  0  0  0  0  0  0  0  0  0  0
   10.0364    2.9045    0.0000 H   0  0  0  0  0  0  0  0  0  0  0  0
  1 22  2  0  0  0  0
 21  2  1  6  0  0  0
  2 54  1  0  0  0  0
  2 55  1  0  0  0  0
  3  4  1  0  0  0  0
  3  7  1  0  0  0  0
  3  9  1  0  0  0  0
  3 24  1  6  0  0  0
  4  5  1  0  0  0  0
  4 11  1  0  0  0  0
  4 25  1  1  0  0  0
  5  6  1  0  0  0  0
  5 13  1  0  0  0  0
  5 26  1  6  0  0  0
  6 10  1  0  0  0  0
  6 12  1  0  0  0  0
  6 18  1  1  0  0  0
  7  8  1  0  0  0  0
  7 15  1  0  0  0  0
  7 19  1  1  0  0  0
  8 14  1  0  0  0  0
  8 17  1  0  0  0  0
  8 27  1  6  0  0  0
  9 10  1  0  0  0  0
  9 28  1  0  0  0  0
  9 29  1  0  0  0  0
 10 30  1  0  0  0  0
 10 31  1  0  0  0  0
 11 14  1  0  0  0  0
 11 32  1  0  0  0  0
 11 33  1  0  0  0  0
 12 16  1  0  0  0  0
 12 22  1  1  0  0  0
 12 34  1  0  0  0  0
 13 16  1  0  0  0  0
 13 35  1  0  0  0  0
 13 36  1  0  0  0  0
 14 37  1  0  0  0  0
 14 38  1  0  0  0  0
 15 20  1  0  0  0  0
 15 39  1  0  0  0  0
 15 40  1  0  0  0  0
 16 41  1  0  0  0  0
 16 42  1  0  0  0  0
 17 21  1  0  0  0  0
 17 43  1  0  0  0  0
 17 44  1  0  0  0  0
 18 45  1  0  0  0  0
 18 46  1  0  0  0  0
 18 47  1  0  0  0  0
 19 48  1  0  0  0  0
 19 49  1  0  0  0  0
 19 50  1  0  0  0  0
 20 21  1  0  0  0  0
 20 51  1  0  0  0  0
 20 52  1  0  0  0  0
 21 53  1  0  0  0  0
 22 23  1  0  0  0  0
 23 56  1  0  0  0  0
 23 57  1  0  0  0  0
 23 58  1  0  0  0  0
M  END
> <PUBCHEM_COMPOUND_CID>
101702

> <PUBCHEM_COMPOUND_CANONICALIZED>
1

> <PUBCHEM_CACTVS_COMPLEXITY>
502

> <PUBCHEM_CACTVS_HBOND_ACCEPTOR>
2

> <PUBCHEM_CACTVS_HBOND_DONOR>
1

> <PUBCHEM_CACTVS_ROTATABLE_BOND>
1

> <PUBCHEM_CACTVS_SUBSKEYS>
AAADcfB6IAAAAAAAAAAAAAAAAAAAAYAAAAAwYMAAAAAAAGDAAAAAHgAQAAAADyzBgAQCAABAAAAIAIAQAAAAAAAAAAAAAIEAAAAAABIAgAAAAAAAEAAAAAEYiMCPgAAAAAAAAACQAASAACAAAQAACAAAAA==

> <PUBCHEM_IUPAC_OPENEYE_NAME>
1-[(3R,5S,8R,9S,10S,13S,14S,17S)-3-amino-10,13-dimethyl-2,3,4,5,6,7,8,9,11,12,14,15,16,17-tetradecahydro-1H-cyclopenta[a]phenanthren-17-yl]ethanone

> <PUBCHEM_IUPAC_CAS_NAME>
1-[(3R,5S,8R,9S,10S,13S,14S,17S)-3-amino-10,13-dimethyl-2,3,4,5,6,7,8,9,11,12,14,15,16,17-tetradecahydro-1H-cyclopenta[a]phenanthren-17-yl]ethanone

> <PUBCHEM_IUPAC_NAME>
1-[(3R,5S,8R,9S,10S,13S,14S,17S)-3-amino-10,13-dimethyl-2,3,4,5,6,7,8,9,11,12,14,15,16,17-tetradecahydro-1H-cyclopenta[a]phenanthren-17-yl]ethanone

> <PUBCHEM_IUPAC_SYSTEMATIC_NAME>
1-[(3R,5S,8R,9S,10S,13S,14S,17S)-3-azanyl-10,13-dimethyl-2,3,4,5,6,7,8,9,11,12,14,15,16,17-tetradecahydro-1H-cyclopenta[a]phenanthren-17-yl]ethanone

> <PUBCHEM_IUPAC_TRADITIONAL_NAME>
1-[(3R,5S,8R,9S,10S,13S,14S,17S)-3-amino-10,13-dimethyl-2,3,4,5,6,7,8,9,11,12,14,15,16,17-tetradecahydro-1H-cyclopenta[a]phenanthren-17-yl]ethanone

> <PUBCHEM_IUPAC_INCHI>
InChI=1S/C21H35NO/c1-13(23)17-6-7-18-16-5-4-14-12-15(22)8-10-20(14,2)19(16)9-11-21(17,18)3/h14-19H,4-12,22H2,1-3H3/t14-,15+,16-,17+,18-,19-,20-,21+/m0/s1

> <PUBCHEM_IUPAC_INCHIKEY>
POWBIOMTXFDIOP-SYBPFIFISA-N

> <PUBCHEM_XLOGP3_AA>
4.6

> <PUBCHEM_EXACT_MASS>
317.271865

> <PUBCHEM_MOLECULAR_FORMULA>
C21H35NO

> <PUBCHEM_MOLECULAR_WEIGHT>
317.5087

> <PUBCHEM_OPENEYE_CAN_SMILES>
CC(=O)C1CCC2C1(CCC3C2CCC4C3(CCC(C4)N)C)C

> <PUBCHEM_OPENEYE_ISO_SMILES>
CC(=O)[C@H]1CC[C@@H]2[C@@]1(CC[C@H]3[C@H]2CC[C@@H]4[C@@]3(CC[C@H](C4)N)C)C

> <PUBCHEM_CACTVS_TPSA>
43.1

> <PUBCHEM_MONOISOTOPIC_WEIGHT>
317.271865

> <PUBCHEM_TOTAL_CHARGE>
0

> <PUBCHEM_HEAVY_ATOM_COUNT>
23

> <PUBCHEM_ATOM_DEF_STEREO_COUNT>
8

> <PUBCHEM_ATOM_UDEF_STEREO_COUNT>
0

> <PUBCHEM_BOND_DEF_STEREO_COUNT>
0

> <PUBCHEM_BOND_UDEF_STEREO_COUNT>
0

> <PUBCHEM_ISOTOPIC_ATOM_COUNT>
0

> <PUBCHEM_COMPONENT_COUNT>
1

> <PUBCHEM_CACTVS_TAUTO_COUNT>
3

> <PUBCHEM_COORDINATE_TYPE>
1
5
255

> <PUBCHEM_BONDANNOTATIONS>
12  22  5
21  2  6
3  24  6
4  25  5
5  26  6
6  18  5
7  19  5
8  27  6

$$$$

