13963
  -OEChem-06241222412D

 30 31  0     0  0  0  0  0  0999 V2000
    3.0000   -2.0000    0.0000 S   0  0  0  0  0  0  0  0  0  0  0  0
    3.0000    2.0000    0.0000 S   0  0  0  0  0  0  0  0  0  0  0  0
    6.4920    1.0347    0.0000 O   0  0  0  0  0  0  0  0  0  0  0  0
    3.0000   -1.0000    0.0000 O   0  0  0  0  0  0  0  0  0  0  0  0
    3.0000    1.0000    0.0000 O   0  0  0  0  0  0  0  0  0  0  0  0
    8.2622    1.0241    0.0000 O   0  0  0  0  0  0  0  0  0  0  0  0
    3.0000   -3.0000    0.0000 O   0  0  0  0  0  0  0  0  0  0  0  0
    3.0000    3.0000    0.0000 O   0  0  0  0  0  0  0  0  0  0  0  0
    2.0000   -2.0000    0.0000 O   0  0  0  0  0  0  0  0  0  0  0  0
    4.0000   -2.0000    0.0000 O   0  0  0  0  0  0  0  0  0  0  0  0
    2.0000    2.0000    0.0000 O   0  0  0  0  0  0  0  0  0  0  0  0
    4.0000    2.0000    0.0000 O   0  0  0  0  0  0  0  0  0  0  0  0
    5.5981   -0.5000    0.0000 C   0  0  0  0  0  0  0  0  0  0  0  0
    5.5981    0.5000    0.0000 C   0  0  0  0  0  0  0  0  0  0  0  0
    6.4920   -1.0347    0.0000 C   0  0  0  0  0  0  0  0  0  0  0  0
    4.7320   -1.0000    0.0000 C   0  0  0  0  0  0  0  0  0  0  0  0
    3.8660   -0.5000    0.0000 C   0  0  0  0  0  0  0  0  0  0  0  0
    3.8660    0.5000    0.0000 C   0  0  0  0  0  0  0  0  0  0  0  0
    4.7320    1.0000    0.0000 C   0  0  0  0  0  0  0  0  0  0  0  0
    7.3981   -0.5208    0.0000 C   0  0  0  0  0  0  0  0  0  0  0  0
    6.4804   -2.0346    0.0000 C   0  0  0  0  0  0  0  0  0  0  0  0
    7.3981    0.5208    0.0000 C   0  0  0  0  0  0  0  0  0  0  0  0
    4.7320   -1.6200    0.0000 H   0  0  0  0  0  0  0  0  0  0  0  0
    4.7320    1.6200    0.0000 H   0  0  0  0  0  0  0  0  0  0  0  0
    7.9338   -0.8329    0.0000 H   0  0  0  0  0  0  0  0  0  0  0  0
    5.8605   -2.0274    0.0000 H   0  0  0  0  0  0  0  0  0  0  0  0
    6.4733   -2.6546    0.0000 H   0  0  0  0  0  0  0  0  0  0  0  0
    7.1004   -2.0418    0.0000 H   0  0  0  0  0  0  0  0  0  0  0  0
    2.4631   -3.3100    0.0000 H   0  0  0  0  0  0  0  0  0  0  0  0
    2.4631    3.3100    0.0000 H   0  0  0  0  0  0  0  0  0  0  0  0
  1  4  1  0  0  0  0
  1  7  1  0  0  0  0
  1  9  2  0  0  0  0
  1 10  2  0  0  0  0
  2  5  1  0  0  0  0
  2  8  1  0  0  0  0
  2 11  2  0  0  0  0
  2 12  2  0  0  0  0
  3 14  1  0  0  0  0
  3 22  1  0  0  0  0
  4 17  1  0  0  0  0
  5 18  1  0  0  0  0
  6 22  2  0  0  0  0
  7 29  1  0  0  0  0
  8 30  1  0  0  0  0
 13 14  1  0  0  0  0
 13 15  1  0  0  0  0
 13 16  2  0  0  0  0
 14 19  2  0  0  0  0
 15 20  2  0  0  0  0
 15 21  1  0  0  0  0
 16 17  1  0  0  0  0
 16 23  1  0  0  0  0
 17 18  2  0  0  0  0
 18 19  1  0  0  0  0
 19 24  1  0  0  0  0
 20 22  1  0  0  0  0
 20 25  1  0  0  0  0
 21 26  1  0  0  0  0
 21 27  1  0  0  0  0
 21 28  1  0  0  0  0
M  END
> <PUBCHEM_COMPOUND_CID>
13963

> <PUBCHEM_COMPOUND_CANONICALIZED>
1

> <PUBCHEM_CACTVS_COMPLEXITY>
680

> <PUBCHEM_CACTVS_HBOND_ACCEPTOR>
10

> <PUBCHEM_CACTVS_HBOND_DONOR>
2

> <PUBCHEM_CACTVS_ROTATABLE_BOND>
4

> <PUBCHEM_CACTVS_SUBSKEYS>
AAADccBwPABgAAAAAAAAAAAAAAAAAAAAAAAwQAAAAAAAAACBAAAAGgAACAAADASAmAAyDoAABICIAiDSCDACCAAgIAAAiAAGiMgNJyKEMRqCOiClwBUIqQfA4LwOIQABCAAIQABCAAIQABCAAAAAAAAAAA==

> <PUBCHEM_IUPAC_OPENEYE_NAME>
(4-methyl-2-oxo-6-sulfooxy-chromen-7-yl) hydrogen sulfate

> <PUBCHEM_IUPAC_CAS_NAME>
sulfuric acid (4-methyl-2-oxo-6-sulfooxy-1-benzopyran-7-yl) ester

> <PUBCHEM_IUPAC_NAME>
(4-methyl-2-oxo-6-sulfooxychromen-7-yl) hydrogen sulfate

> <PUBCHEM_IUPAC_SYSTEMATIC_NAME>
(4-methyl-2-oxidanylidene-6-sulfooxy-chromen-7-yl) hydrogen sulfate

> <PUBCHEM_IUPAC_TRADITIONAL_NAME>
sulfuric acid (2-keto-4-methyl-6-sulfoxy-chromen-7-yl) ester

> <PUBCHEM_IUPAC_INCHI>
InChI=1S/C10H8O10S2/c1-5-2-10(11)18-7-4-9(20-22(15,16)17)8(3-6(5)7)19-21(12,13)14/h2-4H,1H3,(H,12,13,14)(H,15,16,17)

> <PUBCHEM_IUPAC_INCHIKEY>
SZNQDPUZKFSCNG-UHFFFAOYSA-N

> <PUBCHEM_XLOGP3_AA>
-0.1

> <PUBCHEM_EXACT_MASS>
351.955888

> <PUBCHEM_MOLECULAR_FORMULA>
C10H8O10S2

> <PUBCHEM_MOLECULAR_WEIGHT>
352.29452

> <PUBCHEM_OPENEYE_CAN_SMILES>
CC1=CC(=O)OC2=CC(=C(C=C12)OS(=O)(=O)O)OS(=O)(=O)O

> <PUBCHEM_OPENEYE_ISO_SMILES>
CC1=CC(=O)OC2=CC(=C(C=C12)OS(=O)(=O)O)OS(=O)(=O)O

> <PUBCHEM_CACTVS_TPSA>
170

> <PUBCHEM_MONOISOTOPIC_WEIGHT>
351.955888

> <PUBCHEM_TOTAL_CHARGE>
0

> <PUBCHEM_HEAVY_ATOM_COUNT>
22

> <PUBCHEM_ATOM_DEF_STEREO_COUNT>
0

> <PUBCHEM_ATOM_UDEF_STEREO_COUNT>
0

> <PUBCHEM_BOND_DEF_STEREO_COUNT>
0

> <PUBCHEM_BOND_UDEF_STEREO_COUNT>
0

> <PUBCHEM_ISOTOPIC_ATOM_COUNT>
0

> <PUBCHEM_COMPONENT_COUNT>
1

> <PUBCHEM_CACTVS_TAUTO_COUNT>
1

> <PUBCHEM_COORDINATE_TYPE>
1
5
255

> <PUBCHEM_BONDANNOTATIONS>
13  14  8
13  15  8
13  16  8
14  19  8
15  20  8
16  17  8
17  18  8
18  19  8
20  22  8
3  14  8
3  22  8

$$$$

