   Color/Form
        COLORLESS LIQUID
   from [1]HSDB

   Odor

     * MILD, OILY, SWEET, SLIGHTLY FLORAL ODOR REMINISCENT OF ROSE
     * Intense and unpleasant

   from [2]HSDB

   Taste

     * SWEET, FATTY-FLORAL TASTE WITH FRUITAL NOTE
     * Intense and unpleasant

   from [3]HSDB

   Boiling Point
        184.34 deg C
   from [4]HSDB

   Melting Point
        FP: -76 DEG C
   from [5]HSDB

   Critical Temperature and Pressure
        Critical temperature = 339.8 deg C; Critical pressure 2.76 MPa
   from [6]HSDB

   Density/Specific Gravity
        0.8344 @ 20 DEG C/20 DEG C
   from [7]HSDB

   Heat of Combustion
        -1263.81 kcal/mol @ 25 deg C
   from [8]HSDB

   Heat of Vaporization
        10.8 kcal/mol @ boiling point
   from [9]HSDB

   Solubilities

     * SOL IN ABOUT 720 PARTS WATER, IN MANY ORG SOLVENTS
     * 880 mg/l @ 25 deg C in water [Amidon GL et al; J Pharm Sci 63:
       1858-66 (1974)] [10]PubMed Abstract

   from [11]HSDB

   Spectral Properties

     * INDEX OF REFRACTION: 1.4300 @ 20 DEG C/D
     * Intense mass spectral peaks: 57 m/z (100%), 43 m/z (41%), 41 m/z
       (40%), 55 m/z (28%)
     * IR: 10974 (Sadtler Research Laboratories IR Grating Collection)
     * NMR: 98 (Sadtler Research Laboratories Spectral Collection)
     * MASS: 271 (National Bureau of Standards EPA-NIH Mass Spectra Data
       Base, NSRDS-NBS-63)

   from [12]HSDB

   Vapor Density
        4.5 (AIR= 1)
   from [13]HSDB

   Vapor Pressure
        0.36 MM HG @ 20 DEG C
   from [14]HSDB

   Viscosity
        9.8 centapoise @ 20 deg C
   from [15]HSDB

   Other Chemical/Physical Properties

     * WT/GAL: 6.9 LB @ 20 DEG
     * % IN SATURATED AIR: 0.0066 @ 20 DEG C; DENSITY OF "SATURATED" AIR:
       LESS THAN 1.001 (AIR= 1)
     * 1 MG/L APPROX= 187.8 PPM & 1 PPM APPROX= 5.32 MG/CU M @ 25 DEG C,
       760 MM HG
     * Vapor pressure = 0.1360 mm Hg @ 25 deg C /Calculated from
       experimentally-derived coefficients/
     * Dielectric constant = 7.7 @ 20 deg C
     * Standard heat of fusion = -103.46 kcal/mol @ 25 deg C
     * Heat capacity = 73.45 cal/deg K-mol @ 25 deg C

   from [16]HSDB

   Computed Properties
   Molecular Weight                  130.22792 [g/mol]
   Molecular Formula                 C[8]H[18]O
   XLogP3                            3.1
   H-Bond Donor                      1
   H-Bond Acceptor                   1
   Rotatable Bond Count              5
   Exact Mass                        130.135765
   MonoIsotopic Mass                 130.135765
   Topological Polar Surface Area    20.2
   Heavy Atom Count                  9
   Formal Charge                     0
   Complexity                        52.5
   Isotope Atom Count                0
   Defined Atom Stereocenter Count   0
   Undefined Atom Stereocenter Count 1
   Defined Bond Stereocenter Count   0
   Undefined Bond Stereocenter Count 0
   Covalently-Bonded Unit Count      1
   Feature 3D Acceptor Count         1
   Feature 3D Donor Count            1
   Feature 3D Hydrophobe Count       3
   Effective Rotor Count             5
   Conformer Sampling RMSD           0.6
   CID Conformer Count               [17]93

References

   1. http://toxnet.nlm.nih.gov/cgi-bin/sis/search/r?dbs+hsdb:@term+@rn+@rel+104-76-7
   2. http://toxnet.nlm.nih.gov/cgi-bin/sis/search/r?dbs+hsdb:@term+@rn+@rel+104-76-7
   3. http://toxnet.nlm.nih.gov/cgi-bin/sis/search/r?dbs+hsdb:@term+@rn+@rel+104-76-7
   4. http://toxnet.nlm.nih.gov/cgi-bin/sis/search/r?dbs+hsdb:@term+@rn+@rel+104-76-7
   5. http://toxnet.nlm.nih.gov/cgi-bin/sis/search/r?dbs+hsdb:@term+@rn+@rel+104-76-7
   6. http://toxnet.nlm.nih.gov/cgi-bin/sis/search/r?dbs+hsdb:@term+@rn+@rel+104-76-7
   7. http://toxnet.nlm.nih.gov/cgi-bin/sis/search/r?dbs+hsdb:@term+@rn+@rel+104-76-7
   8. http://toxnet.nlm.nih.gov/cgi-bin/sis/search/r?dbs+hsdb:@term+@rn+@rel+104-76-7
   9. http://toxnet.nlm.nih.gov/cgi-bin/sis/search/r?dbs+hsdb:@term+@rn+@rel+104-76-7
  10. http://www.ncbi.nlm.nih.gov/entrez/query.fcgi?cmd=Retrieve&db=pubmed&dopt=Abstract&list_uids=4449016
  11. http://toxnet.nlm.nih.gov/cgi-bin/sis/search/r?dbs+hsdb:@term+@rn+@rel+104-76-7
  12. http://toxnet.nlm.nih.gov/cgi-bin/sis/search/r?dbs+hsdb:@term+@rn+@rel+104-76-7
  13. http://toxnet.nlm.nih.gov/cgi-bin/sis/search/r?dbs+hsdb:@term+@rn+@rel+104-76-7
  14. http://toxnet.nlm.nih.gov/cgi-bin/sis/search/r?dbs+hsdb:@term+@rn+@rel+104-76-7
  15. http://toxnet.nlm.nih.gov/cgi-bin/sis/search/r?dbs+hsdb:@term+@rn+@rel+104-76-7
  16. http://toxnet.nlm.nih.gov/cgi-bin/sis/search/r?dbs+hsdb:@term+@rn+@rel+104-76-7
  17. http://pubchem.ncbi.nlm.nih.gov/vw3d/vw3d.cgi?cid=7720
