17395734
  -OEChem-06241222522D

 47 49  0     0  0  0  0  0  0999 V2000
    8.0622    1.2327    0.0000 O   0  0  0  0  0  0  0  0  0  0  0  0
    2.8660    0.2327    0.0000 O   0  0  0  0  0  0  0  0  0  0  0  0
   10.6603    1.7327    0.0000 N   0  0  0  0  0  0  0  0  0  0  0  0
    7.1962   -0.2673    0.0000 N   0  0  0  0  0  0  0  0  0  0  0  0
    9.7942    0.2327    0.0000 C   0  0  0  0  0  0  0  0  0  0  0  0
   10.6603   -0.2673    0.0000 C   0  0  0  0  0  0  0  0  0  0  0  0
   11.5263    0.2327    0.0000 C   0  0  0  0  0  0  0  0  0  0  0  0
    8.9282   -0.2673    0.0000 C   0  0  0  0  0  0  0  0  0  0  0  0
    9.7942    1.2327    0.0000 C   0  0  0  0  0  0  0  0  0  0  0  0
   11.5263    1.2327    0.0000 C   0  0  0  0  0  0  0  0  0  0  0  0
   10.6603   -1.2673    0.0000 C   0  0  0  0  0  0  0  0  0  0  0  0
    8.0622    0.2327    0.0000 C   0  0  0  0  0  0  0  0  0  0  0  0
   12.4202   -0.3020    0.0000 C   0  0  0  0  0  0  0  0  0  0  0  0
    8.9282    1.7327    0.0000 C   0  0  0  0  0  0  0  0  0  0  0  0
   12.4202    1.7673    0.0000 C   0  0  0  0  0  0  0  0  0  0  0  0
    6.3301    0.2327    0.0000 C   0  0  0  0  0  0  0  0  0  0  0  0
    5.4641   -0.2673    0.0000 C   0  0  0  0  0  0  0  0  0  0  0  0
   13.3263    0.2119    0.0000 C   0  0  0  0  0  0  0  0  0  0  0  0
   13.3263    1.2535    0.0000 C   0  0  0  0  0  0  0  0  0  0  0  0
    4.5981    0.2327    0.0000 C   0  0  0  0  0  0  0  0  0  0  0  0
    5.4641   -1.2673    0.0000 C   0  0  0  0  0  0  0  0  0  0  0  0
    3.7320   -0.2673    0.0000 C   0  0  0  0  0  0  0  0  0  0  0  0
    4.5981   -1.7673    0.0000 C   0  0  0  0  0  0  0  0  0  0  0  0
    3.7320   -1.2673    0.0000 C   0  0  0  0  0  0  0  0  0  0  0  0
    2.0000   -0.2673    0.0000 C   0  0  0  0  0  0  0  0  0  0  0  0
    8.5297   -0.7423    0.0000 H   0  0  0  0  0  0  0  0  0  0  0  0
    9.3267   -0.7423    0.0000 H   0  0  0  0  0  0  0  0  0  0  0  0
   10.0403   -1.2673    0.0000 H   0  0  0  0  0  0  0  0  0  0  0  0
   10.6603   -1.8873    0.0000 H   0  0  0  0  0  0  0  0  0  0  0  0
   11.2803   -1.2673    0.0000 H   0  0  0  0  0  0  0  0  0  0  0  0
   12.4131   -0.9220    0.0000 H   0  0  0  0  0  0  0  0  0  0  0  0
    9.2382    2.2696    0.0000 H   0  0  0  0  0  0  0  0  0  0  0  0
    8.3913    2.0427    0.0000 H   0  0  0  0  0  0  0  0  0  0  0  0
    8.6182    1.1957    0.0000 H   0  0  0  0  0  0  0  0  0  0  0  0
    6.7287    0.7076    0.0000 H   0  0  0  0  0  0  0  0  0  0  0  0
    5.9316    0.7076    0.0000 H   0  0  0  0  0  0  0  0  0  0  0  0
   12.4131    2.3873    0.0000 H   0  0  0  0  0  0  0  0  0  0  0  0
    7.1962   -0.8873    0.0000 H   0  0  0  0  0  0  0  0  0  0  0  0
   13.8620   -0.1002    0.0000 H   0  0  0  0  0  0  0  0  0  0  0  0
   13.8620    1.5656    0.0000 H   0  0  0  0  0  0  0  0  0  0  0  0
    4.5981    0.8527    0.0000 H   0  0  0  0  0  0  0  0  0  0  0  0
    6.0010   -1.5773    0.0000 H   0  0  0  0  0  0  0  0  0  0  0  0
    4.5981   -2.3873    0.0000 H   0  0  0  0  0  0  0  0  0  0  0  0
    3.1951   -1.5773    0.0000 H   0  0  0  0  0  0  0  0  0  0  0  0
    1.6900    0.2696    0.0000 H   0  0  0  0  0  0  0  0  0  0  0  0
    1.4631   -0.5773    0.0000 H   0  0  0  0  0  0  0  0  0  0  0  0
    2.3100   -0.8043    0.0000 H   0  0  0  0  0  0  0  0  0  0  0  0
  1 12  2  0  0  0  0
  2 22  1  0  0  0  0
  2 25  1  0  0  0  0
  3  9  2  0  0  0  0
  3 10  1  0  0  0  0
  4 12  1  0  0  0  0
  4 16  1  0  0  0  0
  4 38  1  0  0  0  0
  5  6  2  0  0  0  0
  5  8  1  0  0  0  0
  5  9  1  0  0  0  0
  6  7  1  0  0  0  0
  6 11  1  0  0  0  0
  7 10  1  0  0  0  0
  7 13  2  0  0  0  0
  8 12  1  0  0  0  0
  8 26  1  0  0  0  0
  8 27  1  0  0  0  0
  9 14  1  0  0  0  0
 10 15  2  0  0  0  0
 11 28  1  0  0  0  0
 11 29  1  0  0  0  0
 11 30  1  0  0  0  0
 13 18  1  0  0  0  0
 13 31  1  0  0  0  0
 14 32  1  0  0  0  0
 14 33  1  0  0  0  0
 14 34  1  0  0  0  0
 15 19  1  0  0  0  0
 15 37  1  0  0  0  0
 16 17  1  0  0  0  0
 16 35  1  0  0  0  0
 16 36  1  0  0  0  0
 17 20  2  0  0  0  0
 17 21  1  0  0  0  0
 18 19  2  0  0  0  0
 18 39  1  0  0  0  0
 19 40  1  0  0  0  0
 20 22  1  0  0  0  0
 20 41  1  0  0  0  0
 21 23  2  0  0  0  0
 21 42  1  0  0  0  0
 22 24  2  0  0  0  0
 23 24  1  0  0  0  0
 23 43  1  0  0  0  0
 24 44  1  0  0  0  0
 25 45  1  0  0  0  0
 25 46  1  0  0  0  0
 25 47  1  0  0  0  0
M  END
> <PUBCHEM_COMPOUND_CID>
17395734

> <PUBCHEM_COMPOUND_CANONICALIZED>
1

> <PUBCHEM_CACTVS_COMPLEXITY>
442

> <PUBCHEM_CACTVS_HBOND_ACCEPTOR>
3

> <PUBCHEM_CACTVS_HBOND_DONOR>
1

> <PUBCHEM_CACTVS_ROTATABLE_BOND>
5

> <PUBCHEM_CACTVS_SUBSKEYS>
AAADceB7MAAAAAAAAAAAAAAAAAAAAAAAAAA8YIAAAAAAAACx9AAAHgAQAAAADAzBngYyxvLIFACoAyVyVACCiCAhIiAImKE+bJgMJvLEtZuEMChk1hHI6Ae8yNCOgAABAAACAAAAAAIAAAQAAAAAAAAAAA==

> <PUBCHEM_IUPAC_OPENEYE_NAME>
2-(2,4-dimethyl-3-quinolyl)-N-[(3-methoxyphenyl)methyl]acetamide

> <PUBCHEM_IUPAC_CAS_NAME>
2-(2,4-dimethyl-3-quinolinyl)-N-[(3-methoxyphenyl)methyl]acetamide

> <PUBCHEM_IUPAC_NAME>
2-(2,4-dimethylquinolin-3-yl)-N-[(3-methoxyphenyl)methyl]acetamide

> <PUBCHEM_IUPAC_SYSTEMATIC_NAME>
2-(2,4-dimethylquinolin-3-yl)-N-[(3-methoxyphenyl)methyl]ethanamide

> <PUBCHEM_IUPAC_TRADITIONAL_NAME>
2-(2,4-dimethyl-3-quinolyl)-N-m-anisyl-acetamide

> <PUBCHEM_IUPAC_INCHI>
InChI=1S/C21H22N2O2/c1-14-18-9-4-5-10-20(18)23-15(2)19(14)12-21(24)22-13-16-7-6-8-17(11-16)25-3/h4-11H,12-13H2,1-3H3,(H,22,24)

> <PUBCHEM_IUPAC_INCHIKEY>
GFPVCTXUKYBXRR-UHFFFAOYSA-N

> <PUBCHEM_XLOGP3_AA>
3.6

> <PUBCHEM_EXACT_MASS>
334.168128

> <PUBCHEM_MOLECULAR_FORMULA>
C21H22N2O2

> <PUBCHEM_MOLECULAR_WEIGHT>
334.41158

> <PUBCHEM_OPENEYE_CAN_SMILES>
CC1=C(C(=NC2=CC=CC=C12)C)CC(=O)NCC3=CC(=CC=C3)OC

> <PUBCHEM_OPENEYE_ISO_SMILES>
CC1=C(C(=NC2=CC=CC=C12)C)CC(=O)NCC3=CC(=CC=C3)OC

> <PUBCHEM_CACTVS_TPSA>
51.2

> <PUBCHEM_MONOISOTOPIC_WEIGHT>
334.168128

> <PUBCHEM_TOTAL_CHARGE>
0

> <PUBCHEM_HEAVY_ATOM_COUNT>
25

> <PUBCHEM_ATOM_DEF_STEREO_COUNT>
0

> <PUBCHEM_ATOM_UDEF_STEREO_COUNT>
0

> <PUBCHEM_BOND_DEF_STEREO_COUNT>
0

> <PUBCHEM_BOND_UDEF_STEREO_COUNT>
0

> <PUBCHEM_ISOTOPIC_ATOM_COUNT>
0

> <PUBCHEM_COMPONENT_COUNT>
1

> <PUBCHEM_CACTVS_TAUTO_COUNT>
2

> <PUBCHEM_COORDINATE_TYPE>
1
5
255

> <PUBCHEM_BONDANNOTATIONS>
10  15  8
13  18  8
15  19  8
17  20  8
17  21  8
18  19  8
20  22  8
21  23  8
22  24  8
23  24  8
3  10  8
3  9  8
5  6  8
5  9  8
6  7  8
7  10  8
7  13  8

$$$$

