442923
  -OEChem-07051213002D

 60 62  0     1  0  0  0  0  0999 V2000
    8.5991   -0.3450    0.0000 O   0  0  0  0  0  0  0  0  0  0  0  0
    6.0010   -0.8450    0.0000 O   0  0  0  0  0  0  0  0  0  0  0  0
    4.2690   -0.8450    0.0000 O   0  0  0  0  0  0  0  0  0  0  0  0
    6.8671   -2.3450    0.0000 O   0  0  0  0  0  0  0  0  0  0  0  0
    8.5991   -3.3450    0.0000 O   0  0  0  0  0  0  0  0  0  0  0  0
   10.3312   -0.3450    0.0000 O   0  0  0  0  0  0  0  0  0  0  0  0
   10.3312   -2.3450    0.0000 O   0  0  0  0  0  0  0  0  0  0  0  0
    6.0010    1.1550    0.0000 O   0  0  0  0  0  0  0  0  0  0  0  0
    4.2690    2.1550    0.0000 O   0  0  0  0  0  0  0  0  0  0  0  0
    2.5369    1.1550    0.0000 O   0  0  0  0  0  0  0  0  0  0  0  0
    8.5991    2.6550    0.0000 O   0  0  0  0  0  0  0  0  0  0  0  0
   12.0632   -0.3450    0.0000 O   0  0  0  0  0  0  0  0  0  0  0  0
    7.7331   -0.8450    0.0000 C   0  0  1  0  0  0  0  0  0  0  0  0
    7.7331   -1.8450    0.0000 C   0  0  2  0  0  0  0  0  0  0  0  0
    8.5991   -2.3450    0.0000 C   0  0  1  0  0  0  0  0  0  0  0  0
    9.4651   -1.8450    0.0000 C   0  0  2  0  0  0  0  0  0  0  0  0
    9.4651   -0.8450    0.0000 C   0  0  1  0  0  0  0  0  0  0  0  0
    6.8671   -0.3450    0.0000 C   0  0  0  0  0  0  0  0  0  0  0  0
    5.1350   -0.3450    0.0000 C   0  0  2  0  0  0  0  0  0  0  0  0
    5.1350    0.6550    0.0000 C   0  0  1  0  0  0  0  0  0  0  0  0
    4.2690    1.1550    0.0000 C   0  0  2  0  0  0  0  0  0  0  0  0
    3.4030    0.6550    0.0000 C   0  0  2  0  0  0  0  0  0  0  0  0
    3.4030   -0.3450    0.0000 C   0  0  0  0  0  0  0  0  0  0  0  0
   10.3312    0.6550    0.0000 C   0  0  0  0  0  0  0  0  0  0  0  0
   11.1972    1.1550    0.0000 C   0  0  0  0  0  0  0  0  0  0  0  0
    9.4651    1.1550    0.0000 C   0  0  0  0  0  0  0  0  0  0  0  0
   11.1972    2.1550    0.0000 C   0  0  0  0  0  0  0  0  0  0  0  0
    9.4651    2.1550    0.0000 C   0  0  0  0  0  0  0  0  0  0  0  0
   12.0632    0.6550    0.0000 C   0  0  0  0  0  0  0  0  0  0  0  0
   10.3312    2.6550    0.0000 C   0  0  0  0  0  0  0  0  0  0  0  0
   12.9292    1.1550    0.0000 C   0  0  0  0  0  0  0  0  0  0  0  0
    8.5991    3.6550    0.0000 C   0  0  0  0  0  0  0  0  0  0  0  0
    7.7331   -0.2250    0.0000 H   0  0  0  0  0  0  0  0  0  0  0  0
    7.7331   -2.4650    0.0000 H   0  0  0  0  0  0  0  0  0  0  0  0
    8.0622   -2.6550    0.0000 H   0  0  0  0  0  0  0  0  0  0  0  0
   10.0021   -1.5350    0.0000 H   0  0  0  0  0  0  0  0  0  0  0  0
   10.0021   -1.1550    0.0000 H   0  0  0  0  0  0  0  0  0  0  0  0
    7.2656    0.1299    0.0000 H   0  0  0  0  0  0  0  0  0  0  0  0
    6.4685    0.1299    0.0000 H   0  0  0  0  0  0  0  0  0  0  0  0
    5.1350   -0.9650    0.0000 H   0  0  0  0  0  0  0  0  0  0  0  0
    5.1350    1.2750    0.0000 H   0  0  0  0  0  0  0  0  0  0  0  0
    4.8059    1.4650    0.0000 H   0  0  0  0  0  0  0  0  0  0  0  0
    3.4030    1.2750    0.0000 H   0  0  0  0  0  0  0  0  0  0  0  0
    2.7924   -0.2373    0.0000 H   0  0  0  0  0  0  0  0  0  0  0  0
    3.1909   -0.9276    0.0000 H   0  0  0  0  0  0  0  0  0  0  0  0
    6.8671   -2.9650    0.0000 H   0  0  0  0  0  0  0  0  0  0  0  0
    8.0622   -3.6550    0.0000 H   0  0  0  0  0  0  0  0  0  0  0  0
   10.3312   -2.9650    0.0000 H   0  0  0  0  0  0  0  0  0  0  0  0
    6.0010    1.7750    0.0000 H   0  0  0  0  0  0  0  0  0  0  0  0
    3.7320    2.4650    0.0000 H   0  0  0  0  0  0  0  0  0  0  0  0
    2.0000    0.8450    0.0000 H   0  0  0  0  0  0  0  0  0  0  0  0
    8.9282    0.8450    0.0000 H   0  0  0  0  0  0  0  0  0  0  0  0
   11.7341    2.4650    0.0000 H   0  0  0  0  0  0  0  0  0  0  0  0
   10.3312    3.2750    0.0000 H   0  0  0  0  0  0  0  0  0  0  0  0
   13.2392    0.6181    0.0000 H   0  0  0  0  0  0  0  0  0  0  0  0
   13.4662    1.4650    0.0000 H   0  0  0  0  0  0  0  0  0  0  0  0
   12.6192    1.6919    0.0000 H   0  0  0  0  0  0  0  0  0  0  0  0
    9.2191    3.6550    0.0000 H   0  0  0  0  0  0  0  0  0  0  0  0
    8.5991    4.2750    0.0000 H   0  0  0  0  0  0  0  0  0  0  0  0
    7.9791    3.6550    0.0000 H   0  0  0  0  0  0  0  0  0  0  0  0
  1 13  1  0  0  0  0
  1 17  1  0  0  0  0
  2 18  1  0  0  0  0
 19  2  1  6  0  0  0
  3 19  1  0  0  0  0
  3 23  1  0  0  0  0
 14  4  1  6  0  0  0
  4 46  1  0  0  0  0
 15  5  1  1  0  0  0
  5 47  1  0  0  0  0
 17  6  1  1  0  0  0
  6 24  1  0  0  0  0
 16  7  1  6  0  0  0
  7 48  1  0  0  0  0
 20  8  1  1  0  0  0
  8 49  1  0  0  0  0
 21  9  1  6  0  0  0
  9 50  1  0  0  0  0
 22 10  1  6  0  0  0
 10 51  1  0  0  0  0
 11 28  1  0  0  0  0
 11 32  1  0  0  0  0
 12 29  2  0  0  0  0
 13 14  1  0  0  0  0
 13 18  1  1  0  0  0
 13 33  1  0  0  0  0
 14 15  1  0  0  0  0
 14 34  1  0  0  0  0
 15 16  1  0  0  0  0
 15 35  1  0  0  0  0
 16 17  1  0  0  0  0
 16 36  1  0  0  0  0
 17 37  1  0  0  0  0
 18 38  1  0  0  0  0
 18 39  1  0  0  0  0
 19 20  1  0  0  0  0
 19 40  1  0  0  0  0
 20 21  1  0  0  0  0
 20 41  1  0  0  0  0
 21 22  1  0  0  0  0
 21 42  1  0  0  0  0
 22 23  1  0  0  0  0
 22 43  1  0  0  0  0
 23 44  1  0  0  0  0
 23 45  1  0  0  0  0
 24 25  2  0  0  0  0
 24 26  1  0  0  0  0
 25 27  1  0  0  0  0
 25 29  1  0  0  0  0
 26 28  2  0  0  0  0
 26 52  1  0  0  0  0
 27 30  2  0  0  0  0
 27 53  1  0  0  0  0
 28 30  1  0  0  0  0
 29 31  1  0  0  0  0
 30 54  1  0  0  0  0
 31 55  1  0  0  0  0
 31 56  1  0  0  0  0
 31 57  1  0  0  0  0
 32 58  1  0  0  0  0
 32 59  1  0  0  0  0
 32 60  1  0  0  0  0
M  END
> <PUBCHEM_COMPOUND_CID>
442923

> <PUBCHEM_COMPOUND_CANONICALIZED>
1

> <PUBCHEM_CACTVS_COMPLEXITY>
619

> <PUBCHEM_CACTVS_HBOND_ACCEPTOR>
12

> <PUBCHEM_CACTVS_HBOND_DONOR>
6

> <PUBCHEM_CACTVS_ROTATABLE_BOND>
7

> <PUBCHEM_CACTVS_SUBSKEYS>
AAADceB4PAAAAAAAAAAAAAAAAAAAAAAAAAA0SIAAAAAAAAABAAAAGgAACAAADBSwmAMyDoAABgCIAqBSAAACCAAkIAAIiAEGCMgdNzaENRqieWCl4BUPqYfI7KzOIAAACAAIAABAAAAQABAAAAAAAAAAAA==

> <PUBCHEM_IUPAC_OPENEYE_NAME>
1-[4-methoxy-2-[(2S,3R,4S,5S,6R)-3,4,5-trihydroxy-6-[[(2S,3R,4S,5S)-3,4,5-trihydroxytetrahydropyran-2-yl]oxymethyl]tetrahydropyran-2-yl]oxy-phenyl]ethanone

> <PUBCHEM_IUPAC_CAS_NAME>
1-[4-methoxy-2-[[(2S,3R,4S,5S,6R)-3,4,5-trihydroxy-6-[[(2S,3R,4S,5S)-3,4,5-trihydroxy-2-oxanyl]oxymethyl]-2-oxanyl]oxy]phenyl]ethanone

> <PUBCHEM_IUPAC_NAME>
1-[4-methoxy-2-[(2S,3R,4S,5S,6R)-3,4,5-trihydroxy-6-[[(2S,3R,4S,5S)-3,4,5-trihydroxyoxan-2-yl]oxymethyl]oxan-2-yl]oxyphenyl]ethanone

> <PUBCHEM_IUPAC_SYSTEMATIC_NAME>
1-[4-methoxy-2-[(2S,3R,4S,5S,6R)-3,4,5-tris(oxidanyl)-6-[[(2S,3R,4S,5S)-3,4,5-tris(oxidanyl)oxan-2-yl]oxymethyl]oxan-2-yl]oxy-phenyl]ethanone

> <PUBCHEM_IUPAC_TRADITIONAL_NAME>
1-[4-methoxy-2-[(2S,3R,4S,5S,6R)-3,4,5-trihydroxy-6-[[(2S,3R,4S,5S)-3,4,5-trihydroxytetrahydropyran-2-yl]oxymethyl]tetrahydropyran-2-yl]oxy-phenyl]ethanone

> <PUBCHEM_IUPAC_INCHI>
InChI=1S/C20H28O12/c1-8(21)10-4-3-9(28-2)5-12(10)31-20-18(27)16(25)15(24)13(32-20)7-30-19-17(26)14(23)11(22)6-29-19/h3-5,11,13-20,22-27H,6-7H2,1-2H3/t11-,13+,14-,15+,16-,17+,18+,19-,20+/m0/s1

> <PUBCHEM_IUPAC_INCHIKEY>
IDZZECHGWAZTIB-NYBIBFQCSA-N

> <PUBCHEM_XLOGP3_AA>
-2.7

> <PUBCHEM_EXACT_MASS>
460.158076

> <PUBCHEM_MOLECULAR_FORMULA>
C20H28O12

> <PUBCHEM_MOLECULAR_WEIGHT>
460.42912

> <PUBCHEM_OPENEYE_CAN_SMILES>
CC(=O)C1=C(C=C(C=C1)OC)OC2C(C(C(C(O2)COC3C(C(C(CO3)O)O)O)O)O)O

> <PUBCHEM_OPENEYE_ISO_SMILES>
CC(=O)C1=C(C=C(C=C1)OC)O[C@H]2[C@@H]([C@H]([C@@H]([C@H](O2)CO[C@H]3[C@@H]([C@H]([C@H](CO3)O)O)O)O)O)O

> <PUBCHEM_CACTVS_TPSA>
185

> <PUBCHEM_MONOISOTOPIC_WEIGHT>
460.158076

> <PUBCHEM_TOTAL_CHARGE>
0

> <PUBCHEM_HEAVY_ATOM_COUNT>
32

> <PUBCHEM_ATOM_DEF_STEREO_COUNT>
9

> <PUBCHEM_ATOM_UDEF_STEREO_COUNT>
0

> <PUBCHEM_BOND_DEF_STEREO_COUNT>
0

> <PUBCHEM_BOND_UDEF_STEREO_COUNT>
0

> <PUBCHEM_ISOTOPIC_ATOM_COUNT>
0

> <PUBCHEM_COMPONENT_COUNT>
1

> <PUBCHEM_CACTVS_TAUTO_COUNT>
2

> <PUBCHEM_COORDINATE_TYPE>
1
5
255

> <PUBCHEM_BONDANNOTATIONS>
22  10  6
13  18  5
19  2  6
24  25  8
24  26  8
25  27  8
26  28  8
27  30  8
28  30  8
14  4  6
15  5  5
17  6  5
16  7  6
20  8  5
21  9  6

$$$$

