46174067
  -OEChem-07051213112D

 55 54  0     1  0  0  0  0  0999 V2000
    6.8671    1.0000    0.0000 O   0  0  0  0  0  0  0  0  0  0  0  0
    7.7331    0.5000    0.0000 O   0  0  0  0  0  0  0  0  0  0  0  0
   11.1972    2.5000    0.0000 O   0  0  0  0  0  0  0  0  0  0  0  0
    7.7331   -2.5000    0.0000 O   0  0  0  0  0  0  0  0  0  0  0  0
   10.3312    1.0000    0.0000 O   0  0  0  0  0  0  0  0  0  0  0  0
    7.7331    2.5000    0.0000 C   0  0  0  0  0  0  0  0  0  0  0  0
    8.5991    2.0000    0.0000 C   0  0  0  0  0  0  0  0  0  0  0  0
    6.8671    2.0000    0.0000 C   0  0  1  0  0  0  0  0  0  0  0  0
    9.4651    2.5000    0.0000 C   0  0  0  0  0  0  0  0  0  0  0  0
    6.0010    2.5000    0.0000 C   0  0  0  0  0  0  0  0  0  0  0  0
   10.3312    2.0000    0.0000 C   0  0  0  0  0  0  0  0  0  0  0  0
    5.1350    2.0000    0.0000 C   0  0  0  0  0  0  0  0  0  0  0  0
    6.8671   -2.0000    0.0000 C   0  0  2  0  0  0  0  0  0  0  0  0
    6.8671   -1.0000    0.0000 C   0  0  0  0  0  0  0  0  0  0  0  0
    4.2690    2.5000    0.0000 C   0  0  0  0  0  0  0  0  0  0  0  0
    6.0010   -2.5000    0.0000 C   0  0  0  0  0  0  0  0  0  0  0  0
    6.0010   -0.5000    0.0000 C   0  0  0  0  0  0  0  0  0  0  0  0
    3.4030    1.0000    0.0000 C   0  0  0  0  0  0  0  0  0  0  0  0
    3.4030    2.0000    0.0000 C   0  0  0  0  0  0  0  0  0  0  0  0
    3.4030   -1.0000    0.0000 C   0  0  0  0  0  0  0  0  0  0  0  0
    5.1350   -2.0000    0.0000 C   0  0  0  0  0  0  0  0  0  0  0  0
    2.5369    0.5000    0.0000 C   0  0  0  0  0  0  0  0  0  0  0  0
    2.5369   -0.5000    0.0000 C   0  0  0  0  0  0  0  0  0  0  0  0
    3.4030   -2.0000    0.0000 C   0  0  0  0  0  0  0  0  0  0  0  0
    4.2690   -2.5000    0.0000 C   0  0  0  0  0  0  0  0  0  0  0  0
    8.1316    2.9750    0.0000 H   0  0  0  0  0  0  0  0  0  0  0  0
    7.3346    2.9750    0.0000 H   0  0  0  0  0  0  0  0  0  0  0  0
    8.2006    1.5250    0.0000 H   0  0  0  0  0  0  0  0  0  0  0  0
    8.9976    1.5250    0.0000 H   0  0  0  0  0  0  0  0  0  0  0  0
    6.3301    1.6900    0.0000 H   0  0  0  0  0  0  0  0  0  0  0  0
    9.8637    2.9750    0.0000 H   0  0  0  0  0  0  0  0  0  0  0  0
    9.0666    2.9750    0.0000 H   0  0  0  0  0  0  0  0  0  0  0  0
    6.0010    3.1200    0.0000 H   0  0  0  0  0  0  0  0  0  0  0  0
    5.1350    1.3800    0.0000 H   0  0  0  0  0  0  0  0  0  0  0  0
    7.4040   -1.6900    0.0000 H   0  0  0  0  0  0  0  0  0  0  0  0
    7.4776   -1.1077    0.0000 H   0  0  0  0  0  0  0  0  0  0  0  0
    7.0791   -0.4174    0.0000 H   0  0  0  0  0  0  0  0  0  0  0  0
    4.2690    3.1200    0.0000 H   0  0  0  0  0  0  0  0  0  0  0  0
    6.0010   -3.1200    0.0000 H   0  0  0  0  0  0  0  0  0  0  0  0
    6.3110    0.0369    0.0000 H   0  0  0  0  0  0  0  0  0  0  0  0
    5.4641   -0.1900    0.0000 H   0  0  0  0  0  0  0  0  0  0  0  0
    5.6910   -1.0369    0.0000 H   0  0  0  0  0  0  0  0  0  0  0  0
    3.6150    0.4174    0.0000 H   0  0  0  0  0  0  0  0  0  0  0  0
    4.0135    1.1077    0.0000 H   0  0  0  0  0  0  0  0  0  0  0  0
    2.8660    2.3100    0.0000 H   0  0  0  0  0  0  0  0  0  0  0  0
    4.0135   -1.1077    0.0000 H   0  0  0  0  0  0  0  0  0  0  0  0
    3.6150   -0.4174    0.0000 H   0  0  0  0  0  0  0  0  0  0  0  0
    5.1350   -1.3800    0.0000 H   0  0  0  0  0  0  0  0  0  0  0  0
    2.0000    0.8100    0.0000 H   0  0  0  0  0  0  0  0  0  0  0  0
    2.0000   -0.8100    0.0000 H   0  0  0  0  0  0  0  0  0  0  0  0
    7.7331   -0.1200    0.0000 H   0  0  0  0  0  0  0  0  0  0  0  0
   11.7341    2.1900    0.0000 H   0  0  0  0  0  0  0  0  0  0  0  0
    2.8660   -2.3100    0.0000 H   0  0  0  0  0  0  0  0  0  0  0  0
    4.2690   -3.1200    0.0000 H   0  0  0  0  0  0  0  0  0  0  0  0
    7.7331   -3.1200    0.0000 H   0  0  0  0  0  0  0  0  0  0  0  0
  1  2  1  0  0  0  0
  8  1  1  6  0  0  0
  2 51  1  0  0  0  0
  3 11  1  0  0  0  0
  3 52  1  0  0  0  0
 13  4  1  1  0  0  0
  4 55  1  0  0  0  0
  5 11  2  0  0  0  0
  6  7  1  0  0  0  0
  6  8  1  0  0  0  0
  6 26  1  0  0  0  0
  6 27  1  0  0  0  0
  7  9  1  0  0  0  0
  7 28  1  0  0  0  0
  7 29  1  0  0  0  0
  8 10  1  0  0  0  0
  8 30  1  0  0  0  0
  9 11  1  0  0  0  0
  9 31  1  0  0  0  0
  9 32  1  0  0  0  0
 10 12  2  0  0  0  0
 10 33  1  0  0  0  0
 12 15  1  0  0  0  0
 12 34  1  0  0  0  0
 13 14  1  0  0  0  0
 13 16  1  0  0  0  0
 13 35  1  0  0  0  0
 14 17  1  0  0  0  0
 14 36  1  0  0  0  0
 14 37  1  0  0  0  0
 15 19  2  0  0  0  0
 15 38  1  0  0  0  0
 16 21  2  0  0  0  0
 16 39  1  0  0  0  0
 17 40  1  0  0  0  0
 17 41  1  0  0  0  0
 17 42  1  0  0  0  0
 18 19  1  0  0  0  0
 18 22  1  0  0  0  0
 18 43  1  0  0  0  0
 18 44  1  0  0  0  0
 19 45  1  0  0  0  0
 20 23  1  0  0  0  0
 20 24  1  0  0  0  0
 20 46  1  0  0  0  0
 20 47  1  0  0  0  0
 21 25  1  0  0  0  0
 21 48  1  0  0  0  0
 22 23  2  0  0  0  0
 22 49  1  0  0  0  0
 23 50  1  0  0  0  0
 24 25  2  0  0  0  0
 24 53  1  0  0  0  0
 25 54  1  0  0  0  0
M  END
> <PUBCHEM_COMPOUND_CID>
46174067

> <PUBCHEM_COMPOUND_CANONICALIZED>
1

> <PUBCHEM_CACTVS_COMPLEXITY>
475

> <PUBCHEM_CACTVS_HBOND_ACCEPTOR>
5

> <PUBCHEM_CACTVS_HBOND_DONOR>
3

> <PUBCHEM_CACTVS_ROTATABLE_BOND>
14

> <PUBCHEM_CACTVS_SUBSKEYS>
AAADceB4OAAAAAAAAAAAAAAAAAAAAAAAAAAAAAAAAAAAAAAAAAAAGgAADAAACBSggAICCAAAAgCIACDSCAAAAAAgAAAICAEAAAgIFBIAAQAAUAAEgAAIkAOIbARAAAAAAAAAAAAAAAAAAAAAAAAAAAAAAA==

> <PUBCHEM_IUPAC_OPENEYE_NAME>
(5S,6E,8Z,11Z,14Z,16E,18R)-5-hydroperoxy-18-hydroxy-icosa-6,8,11,14,16-pentaenoic acid

> <PUBCHEM_IUPAC_CAS_NAME>
(5S,6E,8Z,11Z,14Z,16E,18R)-5-hydroperoxy-18-hydroxyeicosa-6,8,11,14,16-pentaenoic acid

> <PUBCHEM_IUPAC_NAME>
(5S,6E,8Z,11Z,14Z,16E,18R)-5-hydroperoxy-18-hydroxyicosa-6,8,11,14,16-pentaenoic acid

> <PUBCHEM_IUPAC_SYSTEMATIC_NAME>
(5S,6E,8Z,11Z,14Z,16E,18R)-5-(dioxidanyl)-18-oxidanyl-icosa-6,8,11,14,16-pentaenoic acid

> <PUBCHEM_IUPAC_TRADITIONAL_NAME>
(5S,6E,8Z,11Z,14Z,16E,18R)-5-hydroperoxy-18-hydroxy-eicosa-6,8,11,14,16-pentaenoic acid

> <PUBCHEM_IUPAC_INCHI>
InChI=1S/C20H30O5/c1-2-18(21)14-11-9-7-5-3-4-6-8-10-12-15-19(25-24)16-13-17-20(22)23/h3-4,7-12,14-15,18-19,21,24H,2,5-6,13,16-17H2,1H3,(H,22,23)/b4-3-,9-7-,10-8-,14-11+,15-12+/t18-,19-/m1/s1

> <PUBCHEM_IUPAC_INCHIKEY>
JIOJPWROWDJRKM-NNQKPOSRSA-N

> <PUBCHEM_XLOGP3_AA>
3.6

> <PUBCHEM_EXACT_MASS>
350.209324

> <PUBCHEM_MOLECULAR_FORMULA>
C20H30O5

> <PUBCHEM_MOLECULAR_WEIGHT>
350.4492

> <PUBCHEM_OPENEYE_CAN_SMILES>
CCC(C=CC=CCC=CCC=CC=CC(CCCC(=O)O)OO)O

> <PUBCHEM_OPENEYE_ISO_SMILES>
CC[C@H](/C=C/C=C\C/C=C\C/C=C\C=C\[C@H](CCCC(=O)O)OO)O

> <PUBCHEM_CACTVS_TPSA>
87

> <PUBCHEM_MONOISOTOPIC_WEIGHT>
350.209324

> <PUBCHEM_TOTAL_CHARGE>
0

> <PUBCHEM_HEAVY_ATOM_COUNT>
25

> <PUBCHEM_ATOM_DEF_STEREO_COUNT>
2

> <PUBCHEM_ATOM_UDEF_STEREO_COUNT>
0

> <PUBCHEM_BOND_DEF_STEREO_COUNT>
5

> <PUBCHEM_BOND_UDEF_STEREO_COUNT>
0

> <PUBCHEM_ISOTOPIC_ATOM_COUNT>
0

> <PUBCHEM_COMPONENT_COUNT>
1

> <PUBCHEM_CACTVS_TAUTO_COUNT>
1

> <PUBCHEM_COORDINATE_TYPE>
1
5
255

> <PUBCHEM_BONDANNOTATIONS>
8  1  6
13  4  5

$$$$

