442007
  -OEChem-07051212562D

 52 55  0     1  0  0  0  0  0999 V2000
    5.5025    2.1251    0.0000 O   0  0  0  0  0  0  0  0  0  0  0  0
    3.6362    3.3567    0.0000 O   0  0  0  0  0  0  0  0  0  0  0  0
    6.3683   -0.3753    0.0000 O   0  0  0  0  0  0  0  0  0  0  0  0
    2.0000    0.1278    0.0000 O   0  0  0  0  0  0  0  0  0  0  0  0
    4.6523   -1.4168    0.0000 C   0  0  1  0  0  0  0  0  0  0  0  0
    4.6362    1.6247    0.0000 C   0  0  2  0  0  0  0  0  0  0  0  0
    3.7542   -1.9446    0.0000 C   0  0  2  0  0  0  0  0  0  0  0  0
    5.5022    1.1247    0.0000 C   0  0  1  0  0  0  0  0  0  0  0  0
    3.7459   -3.0296    0.0000 C   0  0  0  0  0  0  0  0  0  0  0  0
    4.6362   -0.3753    0.0000 C   0  0  0  0  0  0  0  0  0  0  0  0
    3.7702    1.1247    0.0000 C   0  0  0  0  0  0  0  0  0  0  0  0
    5.6042   -1.9375    0.0000 C   0  0  0  0  0  0  0  0  0  0  0  0
    3.7702    0.1247    0.0000 C   0  0  0  0  0  0  0  0  0  0  0  0
    2.8522   -1.4238    0.0000 C   0  0  0  0  0  0  0  0  0  0  0  0
    4.1362    2.4907    0.0000 C   0  0  0  0  0  0  0  0  0  0  0  0
    5.5022    0.1247    0.0000 C   0  0  0  0  0  0  0  0  0  0  0  0
    4.6855   -3.5721    0.0000 C   0  0  0  0  0  0  0  0  0  0  0  0
    5.6209   -3.0223    0.0000 C   0  0  0  0  0  0  0  0  0  0  0  0
    5.5144   -0.9102    0.0000 C   0  0  0  0  0  0  0  0  0  0  0  0
    2.8602   -0.3822    0.0000 C   0  0  0  0  0  0  0  0  0  0  0  0
    3.2425   -3.8936    0.0000 C   0  0  0  0  0  0  0  0  0  0  0  0
    2.7459   -3.0257    0.0000 C   0  0  0  0  0  0  0  0  0  0  0  0
    5.0022    2.9907    0.0000 C   0  0  0  0  0  0  0  0  0  0  0  0
    3.2702    1.9908    0.0000 C   0  0  0  0  0  0  0  0  0  0  0  0
    3.0165   -2.3668    0.0000 H   0  0  0  0  0  0  0  0  0  0  0  0
    6.3522    1.1246    0.0000 H   0  0  0  0  0  0  0  0  0  0  0  0
    3.5581    1.7073    0.0000 H   0  0  0  0  0  0  0  0  0  0  0  0
    3.1596    1.0170    0.0000 H   0  0  0  0  0  0  0  0  0  0  0  0
    6.2166   -2.0341    0.0000 H   0  0  0  0  0  0  0  0  0  0  0  0
    5.8042   -1.3506    0.0000 H   0  0  0  0  0  0  0  0  0  0  0  0
    2.2421   -1.3130    0.0000 H   0  0  0  0  0  0  0  0  0  0  0  0
    2.6386   -2.0058    0.0000 H   0  0  0  0  0  0  0  0  0  0  0  0
    4.2882   -4.0480    0.0000 H   0  0  0  0  0  0  0  0  0  0  0  0
    5.0865   -4.0450    0.0000 H   0  0  0  0  0  0  0  0  0  0  0  0
    5.8390   -3.6027    0.0000 H   0  0  0  0  0  0  0  0  0  0  0  0
    6.2301   -2.9068    0.0000 H   0  0  0  0  0  0  0  0  0  0  0  0
    5.8286   -1.4447    0.0000 H   0  0  0  0  0  0  0  0  0  0  0  0
    6.0489   -0.5961    0.0000 H   0  0  0  0  0  0  0  0  0  0  0  0
    5.2003   -0.3757    0.0000 H   0  0  0  0  0  0  0  0  0  0  0  0
    2.7068   -3.5816    0.0000 H   0  0  0  0  0  0  0  0  0  0  0  0
    2.9305   -4.4294    0.0000 H   0  0  0  0  0  0  0  0  0  0  0  0
    3.7783   -4.2057    0.0000 H   0  0  0  0  0  0  0  0  0  0  0  0
    2.7483   -2.4057    0.0000 H   0  0  0  0  0  0  0  0  0  0  0  0
    2.1259   -3.0233    0.0000 H   0  0  0  0  0  0  0  0  0  0  0  0
    2.7435   -3.6457    0.0000 H   0  0  0  0  0  0  0  0  0  0  0  0
    5.3122    2.4538    0.0000 H   0  0  0  0  0  0  0  0  0  0  0  0
    5.5392    3.3007    0.0000 H   0  0  0  0  0  0  0  0  0  0  0  0
    4.6922    3.5276    0.0000 H   0  0  0  0  0  0  0  0  0  0  0  0
    2.9602    2.5277    0.0000 H   0  0  0  0  0  0  0  0  0  0  0  0
    2.7332    1.6808    0.0000 H   0  0  0  0  0  0  0  0  0  0  0  0
    3.5802    1.4538    0.0000 H   0  0  0  0  0  0  0  0  0  0  0  0
    3.9462    3.8936    0.0000 H   0  0  0  0  0  0  0  0  0  0  0  0
  6  1  1  6  0  0  0
  1  8  1  0  0  0  0
  2 15  1  0  0  0  0
  2 52  1  0  0  0  0
  3 16  2  0  0  0  0
  4 20  2  0  0  0  0
  5  7  1  0  0  0  0
  5 10  1  0  0  0  0
  5 12  1  0  0  0  0
  5 19  1  6  0  0  0
  6  8  1  0  0  0  0
  6 11  1  0  0  0  0
  6 15  1  0  0  0  0
  7  9  1  0  0  0  0
  7 14  1  0  0  0  0
  7 25  1  1  0  0  0
  8 16  1  0  0  0  0
  8 26  1  1  0  0  0
  9 17  1  0  0  0  0
  9 21  1  0  0  0  0
  9 22  1  0  0  0  0
 10 13  2  0  0  0  0
 10 16  1  0  0  0  0
 11 13  1  0  0  0  0
 11 27  1  0  0  0  0
 11 28  1  0  0  0  0
 12 18  1  0  0  0  0
 12 29  1  0  0  0  0
 12 30  1  0  0  0  0
 13 20  1  0  0  0  0
 14 20  1  0  0  0  0
 14 31  1  0  0  0  0
 14 32  1  0  0  0  0
 15 23  1  0  0  0  0
 15 24  1  0  0  0  0
 17 18  1  0  0  0  0
 17 33  1  0  0  0  0
 17 34  1  0  0  0  0
 18 35  1  0  0  0  0
 18 36  1  0  0  0  0
 19 37  1  0  0  0  0
 19 38  1  0  0  0  0
 19 39  1  0  0  0  0
 21 40  1  0  0  0  0
 21 41  1  0  0  0  0
 21 42  1  0  0  0  0
 22 43  1  0  0  0  0
 22 44  1  0  0  0  0
 22 45  1  0  0  0  0
 23 46  1  0  0  0  0
 23 47  1  0  0  0  0
 23 48  1  0  0  0  0
 24 49  1  0  0  0  0
 24 50  1  0  0  0  0
 24 51  1  0  0  0  0
M  END
> <PUBCHEM_COMPOUND_CID>
442007

> <PUBCHEM_COMPOUND_CANONICALIZED>
1

> <PUBCHEM_CACTVS_COMPLEXITY>
686

> <PUBCHEM_CACTVS_HBOND_ACCEPTOR>
4

> <PUBCHEM_CACTVS_HBOND_DONOR>
1

> <PUBCHEM_CACTVS_ROTATABLE_BOND>
1

> <PUBCHEM_CACTVS_SUBSKEYS>
AAADceB4OAAAAAAAAAAAAAAAEgAAAAAAAAAwQIAABAAAAADAAAAAGgAACAAAD1SggAICAAAABgCIAoBQAAIAAAAgAAAACAFAAEgBABYAAAQCQAAF4AALAQOKzPDPgAAAAAAAAAAAAAQAACAAAAAAAAAAAA==

> <PUBCHEM_IUPAC_INCHI>
InChI=1S/C20H28O4/c1-17(2)7-6-8-19(5)13(17)9-12(21)11-10-20(18(3,4)23)16(24-20)15(22)14(11)19/h13,16,23H,6-10H2,1-5H3/t13-,16+,19-,20-/m0/s1

> <PUBCHEM_IUPAC_INCHIKEY>
USEISAATSWUIGG-MVHCQYFOSA-N

> <PUBCHEM_XLOGP3_AA>
2.8

> <PUBCHEM_EXACT_MASS>
332.198759

> <PUBCHEM_MOLECULAR_FORMULA>
C20H28O4

> <PUBCHEM_MOLECULAR_WEIGHT>
332.43392

> <PUBCHEM_OPENEYE_CAN_SMILES>
CC1(CCCC2(C1CC(=O)C3=C2C(=O)C4C(C3)(O4)C(C)(C)O)C)C

> <PUBCHEM_OPENEYE_ISO_SMILES>
C[C@]12CCCC([C@@H]1CC(=O)C3=C2C(=O)[C@@H]4[C@](C3)(O4)C(C)(C)O)(C)C

> <PUBCHEM_CACTVS_TPSA>
66.9

> <PUBCHEM_MONOISOTOPIC_WEIGHT>
332.198759

> <PUBCHEM_TOTAL_CHARGE>
0

> <PUBCHEM_HEAVY_ATOM_COUNT>
24

> <PUBCHEM_ATOM_DEF_STEREO_COUNT>
4

> <PUBCHEM_ATOM_UDEF_STEREO_COUNT>
0

> <PUBCHEM_BOND_DEF_STEREO_COUNT>
0

> <PUBCHEM_BOND_UDEF_STEREO_COUNT>
0

> <PUBCHEM_ISOTOPIC_ATOM_COUNT>
0

> <PUBCHEM_COMPONENT_COUNT>
1

> <PUBCHEM_CACTVS_TAUTO_COUNT>
16

> <PUBCHEM_COORDINATE_TYPE>
1
5
255

> <PUBCHEM_BONDANNOTATIONS>
6  1  6
5  19  6
7  25  5
8  26  5

$$$$

