   Color/Form

     * White, solid
     * Colorless to pale yellow crystals
     * White, crystalline solid [Note: Available commercially as a
       wettable powder or in liquid form].

   from [1]HSDB

   Odor
        Slight, characteristic pungent odor.
   from [2]HSDB

   Melting Point
        160-161 deg C; decomposes slowly at melting point
   from [3]HSDB

   Octanol/Water Partition Coefficient
        log Kow = 3.8
   from [4]HSDB

   Solubilities

     * Slightly soluble in most organic solvents; solubility (g/kg):
       isopropanol 13; benzene 25; toluene 17; xylene 100; acetone 43;
       methyl ethyl ketone 44; dimethyl sulfoxide 170
     * In water, 1.4 mg/l @ 20 deg C

   from [5]HSDB

   Spectral Properties
        Intense mass spectral peaks: 79 m/z (100%), 80 m/z (29%), 77 m/z
   (21%), 78 m/z (18%)
   from [6]HSDB

   Vapor Pressure
        8.27X10-9 mm Hg @ 20 deg C
   from [7]HSDB

   Other Chemical/Physical Properties
        Light tan powder with a characteristic odor /Technical grade/
   from [8]HSDB

   Computed Properties
   Molecular Weight                  349.06096 [g/mol]
   Molecular Formula                 C[10]H[9]Cl[4]NO[2]S
   XLogP3                            3.8
   H-Bond Donor                      0
   H-Bond Acceptor                   3
   Rotatable Bond Count              3
   Tautomer Count                    3
   Exact Mass                        348.90786
   MonoIsotopic Mass                 346.91081
   Topological Polar Surface Area    62.7
   Heavy Atom Count                  18
   Formal Charge                     0
   Complexity                        387
   Isotope Atom Count                0
   Defined Atom Stereocenter Count   0
   Undefined Atom Stereocenter Count 2
   Defined Bond Stereocenter Count   0
   Undefined Bond Stereocenter Count 0
   Covalently-Bonded Unit Count      1
   Feature 3D Acceptor Count         2
   Feature 3D Ring Count             2
   Effective Rotor Count             3.6
   Conformer Sampling RMSD           0.6
   CID Conformer Count               [9]15

References

   1. http://toxnet.nlm.nih.gov/cgi-bin/sis/search/r?dbs+hsdb:@term+@rn+@rel+2425-06-1
   2. http://toxnet.nlm.nih.gov/cgi-bin/sis/search/r?dbs+hsdb:@term+@rn+@rel+2425-06-1
   3. http://toxnet.nlm.nih.gov/cgi-bin/sis/search/r?dbs+hsdb:@term+@rn+@rel+2425-06-1
   4. http://toxnet.nlm.nih.gov/cgi-bin/sis/search/r?dbs+hsdb:@term+@rn+@rel+2425-06-1
   5. http://toxnet.nlm.nih.gov/cgi-bin/sis/search/r?dbs+hsdb:@term+@rn+@rel+2425-06-1
   6. http://toxnet.nlm.nih.gov/cgi-bin/sis/search/r?dbs+hsdb:@term+@rn+@rel+2425-06-1
   7. http://toxnet.nlm.nih.gov/cgi-bin/sis/search/r?dbs+hsdb:@term+@rn+@rel+2425-06-1
   8. http://toxnet.nlm.nih.gov/cgi-bin/sis/search/r?dbs+hsdb:@term+@rn+@rel+2425-06-1
   9. http://pubchem.ncbi.nlm.nih.gov/vw3d/vw3d.cgi?cid=17038
