9910
  -OEChem-06261204102D

 49 50  0     1  0  0  0  0  0999 V2000
    6.3729    7.9626    0.0000 Cl  0  0  0  0  0  0  0  0  0  0  0  0
   11.2089    0.5369    0.0000 O   0  0  0  0  0  0  0  0  0  0  0  0
    0.0000    2.1914    0.0000 O   0  5  0  0  0  0  0  0  0  0  0  0
    0.8660    0.6914    0.0000 O   0  0  0  0  0  0  0  0  0  0  0  0
   11.2089    2.2690    0.0000 N   0  0  0  0  0  0  0  0  0  0  0  0
    6.9282    2.1914    0.0000 N   0  0  3  0  0  0  0  0  0  0  0  0
    0.8660    1.6914    0.0000 N   0  3  0  0  0  0  0  0  0  0  0  0
    9.6357    3.9937    0.0000 C   0  0  3  0  0  0  0  0  0  0  0  0
    9.3769    3.0278    0.0000 C   0  0  3  0  0  0  0  0  0  0  0  0
    8.8991    4.9763    0.0000 C   0  0  0  0  0  0  0  0  0  0  0  0
   11.4677    3.2349    0.0000 C   0  0  0  0  0  0  0  0  0  0  0  0
    7.0327    3.1859    0.0000 C   0  0  0  0  0  0  0  0  0  0  0  0
    7.8417    1.7847    0.0000 C   0  0  0  0  0  0  0  0  0  0  0  0
    6.0622    1.6914    0.0000 C   0  0  0  0  0  0  0  0  0  0  0  0
   11.7089    1.4030    0.0000 C   0  0  0  0  0  0  0  0  0  0  0  0
   12.7089    1.4030    0.0000 C   0  0  0  0  0  0  0  0  0  0  0  0
    5.1962    2.1914    0.0000 C   0  0  0  0  0  0  0  0  0  0  0  0
   13.2089    0.5369    0.0000 C   0  0  0  0  0  0  0  0  0  0  0  0
    4.3301    1.6914    0.0000 C   0  0  0  0  0  0  0  0  0  0  0  0
    3.4641    2.1914    0.0000 C   0  0  0  0  0  0  0  0  0  0  0  0
    2.5981    1.6914    0.0000 C   0  0  0  0  0  0  0  0  0  0  0  0
    3.4641    3.1914    0.0000 C   0  0  0  0  0  0  0  0  0  0  0  0
    1.7321    2.1914    0.0000 C   0  0  0  0  0  0  0  0  0  0  0  0
    2.5981    3.6914    0.0000 C   0  0  0  0  0  0  0  0  0  0  0  0
    1.7321    3.1914    0.0000 C   0  0  0  0  0  0  0  0  0  0  0  0
    9.6073    3.3744    0.0000 H   0  0  0  0  0  0  0  0  0  0  0  0
    9.4659    2.4142    0.0000 H   0  0  0  0  0  0  0  0  0  0  0  0
    9.2169    5.5087    0.0000 H   0  0  0  0  0  0  0  0  0  0  0  0
    8.2860    5.0683    0.0000 H   0  0  0  0  0  0  0  0  0  0  0  0
   12.0590    3.0485    0.0000 H   0  0  0  0  0  0  0  0  0  0  0  0
   11.6797    3.8175    0.0000 H   0  0  0  0  0  0  0  0  0  0  0  0
    6.9305    3.7974    0.0000 H   0  0  0  0  0  0  0  0  0  0  0  0
    6.4130    3.1670    0.0000 H   0  0  0  0  0  0  0  0  0  0  0  0
    7.5041    1.2647    0.0000 H   0  0  0  0  0  0  0  0  0  0  0  0
    8.3025    1.3698    0.0000 H   0  0  0  0  0  0  0  0  0  0  0  0
    6.4607    1.2164    0.0000 H   0  0  0  0  0  0  0  0  0  0  0  0
    5.6636    1.2164    0.0000 H   0  0  0  0  0  0  0  0  0  0  0  0
   12.6012    2.0135    0.0000 H   0  0  0  0  0  0  0  0  0  0  0  0
   13.2915    1.6150    0.0000 H   0  0  0  0  0  0  0  0  0  0  0  0
    5.1962    2.8114    0.0000 H   0  0  0  0  0  0  0  0  0  0  0  0
   12.6719    0.2269    0.0000 H   0  0  0  0  0  0  0  0  0  0  0  0
   13.5189    0.0000    0.0000 H   0  0  0  0  0  0  0  0  0  0  0  0
   13.7458    0.8469    0.0000 H   0  0  0  0  0  0  0  0  0  0  0  0
    4.3301    1.0714    0.0000 H   0  0  0  0  0  0  0  0  0  0  0  0
    2.5981    1.0714    0.0000 H   0  0  0  0  0  0  0  0  0  0  0  0
    4.0010    3.5014    0.0000 H   0  0  0  0  0  0  0  0  0  0  0  0
    2.5981    4.3114    0.0000 H   0  0  0  0  0  0  0  0  0  0  0  0
    1.1951    3.5014    0.0000 H   0  0  0  0  0  0  0  0  0  0  0  0
    7.3729    7.9626    0.0000 H   0  0  0  0  0  0  0  0  0  0  0  0
  1 49  1  0  0  0  0
  2 15  2  0  0  0  0
  3  7  1  0  0  0  0
  4  7  2  0  0  0  0
  5  9  1  0  0  0  0
  5 11  1  0  0  0  0
  5 15  1  0  0  0  0
  6 12  1  0  0  0  0
  6 13  1  0  0  0  0
  6 14  1  0  0  0  0
  7 23  1  0  0  0  0
  8 10  1  0  0  0  0
  8 11  1  0  0  0  0
  8 12  1  0  0  0  0
  8 26  1  0  0  0  0
  9 10  1  0  0  0  0
  9 13  1  0  0  0  0
  9 27  1  0  0  0  0
 10 28  1  0  0  0  0
 10 29  1  0  0  0  0
 11 30  1  0  0  0  0
 11 31  1  0  0  0  0
 12 32  1  0  0  0  0
 12 33  1  0  0  0  0
 13 34  1  0  0  0  0
 13 35  1  0  0  0  0
 14 17  1  0  0  0  0
 14 36  1  0  0  0  0
 14 37  1  0  0  0  0
 15 16  1  0  0  0  0
 16 18  1  0  0  0  0
 16 38  1  0  0  0  0
 16 39  1  0  0  0  0
 17 19  2  3  0  0  0
 17 40  1  0  0  0  0
 18 41  1  0  0  0  0
 18 42  1  0  0  0  0
 18 43  1  0  0  0  0
 19 20  1  0  0  0  0
 19 44  1  0  0  0  0
 20 21  2  0  0  0  0
 20 22  1  0  0  0  0
 21 23  1  0  0  0  0
 21 45  1  0  0  0  0
 22 24  2  0  0  0  0
 22 46  1  0  0  0  0
 23 25  2  0  0  0  0
 24 25  1  0  0  0  0
 24 47  1  0  0  0  0
 25 48  1  0  0  0  0
M  CHG  2   3  -1   7   1
M  END
> <PUBCHEM_COMPOUND_CID>
9910

> <PUBCHEM_COMPOUND_CANONICALIZED>
1

> <PUBCHEM_CACTVS_COMPLEXITY>
502

> <PUBCHEM_CACTVS_HBOND_ACCEPTOR>
4

> <PUBCHEM_CACTVS_HBOND_DONOR>
1

> <PUBCHEM_CACTVS_ROTATABLE_BOND>
4

> <PUBCHEM_CACTVS_SUBSKEYS>
AAADceB7MAAEAAAAAAAAAAAAAAAAAWAAAAA8QAAABYAAAAABAAAAHgAEAAAADSjBmAQywIMQQACJAiVSUwCCAAAgAgAoiAEIZIoIYCKA0ZGUIABghgCIyAcQgAAOAAAAQAAAAAAAAACAAAAAAAAAAAAAAA==

> <PUBCHEM_IUPAC_OPENEYE_NAME>
1-[3-[3-(3-nitrophenyl)allyl]-3,6-diazabicyclo[3.2.1]octan-6-yl]propan-1-one hydrochloride

> <PUBCHEM_IUPAC_CAS_NAME>
1-[3-[3-(3-nitrophenyl)prop-2-enyl]-3,6-diazabicyclo[3.2.1]octan-6-yl]-1-propanone hydrochloride

> <PUBCHEM_IUPAC_NAME>
1-[3-[3-(3-nitrophenyl)prop-2-enyl]-3,6-diazabicyclo[3.2.1]octan-6-yl]propan-1-one hydrochloride

> <PUBCHEM_IUPAC_SYSTEMATIC_NAME>
1-[3-[3-(3-nitrophenyl)prop-2-enyl]-3,6-diazabicyclo[3.2.1]octan-6-yl]propan-1-one hydrochloride

> <PUBCHEM_IUPAC_TRADITIONAL_NAME>
1-[3-[3-(3-nitrophenyl)allyl]-3,6-diazabicyclo[3.2.1]octan-6-yl]propan-1-one hydrochloride

> <PUBCHEM_IUPAC_INCHI>
InChI=1S/C18H23N3O3.ClH/c1-2-18(22)20-12-15-10-17(20)13-19(11-15)8-4-6-14-5-3-7-16(9-14)21(23)24;/h3-7,9,15,17H,2,8,10-13H2,1H3;1H

> <PUBCHEM_IUPAC_INCHIKEY>
LWLNVOJAVOZEFX-UHFFFAOYSA-N

> <PUBCHEM_XLOGP3_AA>
3.36

> <PUBCHEM_EXACT_MASS>
365.150619

> <PUBCHEM_MOLECULAR_FORMULA>
C18H24ClN3O3

> <PUBCHEM_MOLECULAR_WEIGHT>
365.85446

> <PUBCHEM_OPENEYE_CAN_SMILES>
CCC(=O)N1CC2CC1CN(C2)CC=CC3=CC(=CC=C3)[N+](=O)[O-].Cl

> <PUBCHEM_OPENEYE_ISO_SMILES>
CCC(=O)N1CC2CC1CN(C2)CC=CC3=CC(=CC=C3)[N+](=O)[O-].Cl

> <PUBCHEM_CACTVS_TPSA>
69.4

> <PUBCHEM_MONOISOTOPIC_WEIGHT>
365.150619

> <PUBCHEM_TOTAL_CHARGE>
0

> <PUBCHEM_HEAVY_ATOM_COUNT>
25

> <PUBCHEM_ATOM_DEF_STEREO_COUNT>
0

> <PUBCHEM_ATOM_UDEF_STEREO_COUNT>
0

> <PUBCHEM_BOND_DEF_STEREO_COUNT>
0

> <PUBCHEM_BOND_UDEF_STEREO_COUNT>
1

> <PUBCHEM_ISOTOPIC_ATOM_COUNT>
0

> <PUBCHEM_COMPONENT_COUNT>
2

> <PUBCHEM_CACTVS_TAUTO_COUNT>
1

> <PUBCHEM_COORDINATE_TYPE>
1
5
255

> <PUBCHEM_BONDANNOTATIONS>
17  19  1
20  21  8
20  22  8
21  23  8
22  24  8
23  25  8
24  25  8

$$$$

