   Color/Form
        Crystals from methanol-butanone
   from [1]HSDB

   Melting Point
        195-197 deg C
   from [2]HSDB

   Dissociation Constants
        pKa1 = 8.76 (tertiary nitrogen); pKa2 4.28 (carboxylic acid) (est)
   from [3]HSDB

   Octanol/Water Partition Coefficient
        log Kow = 2.81 (est)
   from [4]HSDB

   Solubilities
        In water, 2.4X10-2 mg/L at 25 deg C (est)
   from [5]HSDB

   Other Chemical/Physical Properties
        Molecular weight is 538.13. Fexofenadine hydrochloride is a white
   to off-white crystalline powder. It is freely soluble in methanol and
   ethanol, slightly soluble in chloroform and water, and insoluble in
   hexane. Fexofenadine hydrochloride is a racemate and exists as a
   zwitterion in aqueous media at physiological pH /Hydrochloride/
   from [6]HSDB

   Computed Properties
   Molecular Weight                  501.65636 [g/mol]
   Molecular Formula                 C[32]H[39]NO[4]
   XLogP3-AA                         3
   H-Bond Donor                      3
   H-Bond Acceptor                   5
   Rotatable Bond Count              10
   Exact Mass                        501.287909
   MonoIsotopic Mass                 501.287909
   Topological Polar Surface Area    81
   Heavy Atom Count                  37
   Formal Charge                     0
   Complexity                        678
   Isotope Atom Count                0
   Defined Atom Stereocenter Count   0
   Undefined Atom Stereocenter Count 1
   Defined Bond Stereocenter Count   0
   Undefined Bond Stereocenter Count 0
   Covalently-Bonded Unit Count      1
   Feature 3D Acceptor Count         4
   Feature 3D Donor Count            2
   Feature 3D Anion Count            1
   Feature 3D Cation Count           1
   Feature 3D Hydrophobe Count       1
   Feature 3D Ring Count             4
   Effective Rotor Count             11.2
   Conformer Sampling RMSD           1.2
   CID Conformer Count               [7]63

References

   1. http://toxnet.nlm.nih.gov/cgi-bin/sis/search/r?dbs+hsdb:@term+@rn+@rel+83799-24-0
   2. http://toxnet.nlm.nih.gov/cgi-bin/sis/search/r?dbs+hsdb:@term+@rn+@rel+83799-24-0
   3. http://toxnet.nlm.nih.gov/cgi-bin/sis/search/r?dbs+hsdb:@term+@rn+@rel+83799-24-0
   4. http://toxnet.nlm.nih.gov/cgi-bin/sis/search/r?dbs+hsdb:@term+@rn+@rel+83799-24-0
   5. http://toxnet.nlm.nih.gov/cgi-bin/sis/search/r?dbs+hsdb:@term+@rn+@rel+83799-24-0
   6. http://toxnet.nlm.nih.gov/cgi-bin/sis/search/r?dbs+hsdb:@term+@rn+@rel+83799-24-0
   7. http://pubchem.ncbi.nlm.nih.gov/vw3d/vw3d.cgi?cid=3348
