69217
  -OEChem-07051212472D

 14 14  0     0  0  0  0  0  0999 V2000
    2.0000   -0.5852    0.0000 O   0  0  0  0  0  0  0  0  0  0  0  0
    5.5202   -0.5852    0.0000 O   0  0  0  0  0  0  0  0  0  0  0  0
    4.2601    0.6749    0.0000 N   0  0  0  0  0  0  0  0  0  0  0  0
    3.7601   -0.8639    0.0000 N   0  0  0  0  0  0  0  0  0  0  0  0
    3.2601    0.6749    0.0000 C   0  0  0  0  0  0  0  0  0  0  0  0
    2.9511   -0.2761    0.0000 C   0  0  0  0  0  0  0  0  0  0  0  0
    4.5691   -0.2761    0.0000 C   0  0  0  0  0  0  0  0  0  0  0  0
    4.8479    1.4839    0.0000 C   0  0  0  0  0  0  0  0  0  0  0  0
    3.3249    1.2915    0.0000 H   0  0  0  0  0  0  0  0  0  0  0  0
    2.6536    0.8038    0.0000 H   0  0  0  0  0  0  0  0  0  0  0  0
    3.7601   -1.4839    0.0000 H   0  0  0  0  0  0  0  0  0  0  0  0
    5.3494    1.1195    0.0000 H   0  0  0  0  0  0  0  0  0  0  0  0
    5.2123    1.9855    0.0000 H   0  0  0  0  0  0  0  0  0  0  0  0
    4.3463    1.8484    0.0000 H   0  0  0  0  0  0  0  0  0  0  0  0
  1  6  2  0  0  0  0
  2  7  2  0  0  0  0
  3  5  1  0  0  0  0
  3  7  1  0  0  0  0
  3  8  1  0  0  0  0
  4  6  1  0  0  0  0
  4  7  1  0  0  0  0
  4 11  1  0  0  0  0
  5  6  1  0  0  0  0
  5  9  1  0  0  0  0
  5 10  1  0  0  0  0
  8 12  1  0  0  0  0
  8 13  1  0  0  0  0
  8 14  1  0  0  0  0
M  END
> <PUBCHEM_COMPOUND_CID>
69217

> <PUBCHEM_COMPOUND_CANONICALIZED>
1

> <PUBCHEM_CACTVS_COMPLEXITY>
143

> <PUBCHEM_CACTVS_HBOND_ACCEPTOR>
2

> <PUBCHEM_CACTVS_HBOND_DONOR>
1

> <PUBCHEM_CACTVS_ROTATABLE_BOND>
0

> <PUBCHEM_CACTVS_SUBSKEYS>
AAADcYBjMAAAAAAAAAAAAAAAAAAAAWAAAAAAAAAAAAAAAAAAAAAAHgAQAAAAAADBgAQDAAPAAAAIAAEQEAAAAAAAAAAAAACIAACAQAAAACAQAAAIFyIAAAAAAAAAAAAAAAAAAAAAAAAAAAAAAAAAAAAAAA==

> <PUBCHEM_IUPAC_OPENEYE_NAME>
1-methylimidazolidine-2,4-dione

> <PUBCHEM_IUPAC_CAS_NAME>
1-methylimidazolidine-2,4-dione

> <PUBCHEM_IUPAC_NAME>
1-methylimidazolidine-2,4-dione

> <PUBCHEM_IUPAC_SYSTEMATIC_NAME>
1-methylimidazolidine-2,4-dione

> <PUBCHEM_IUPAC_TRADITIONAL_NAME>
1-methylhydantoin

> <PUBCHEM_IUPAC_INCHI>
InChI=1S/C4H6N2O2/c1-6-2-3(7)5-4(6)8/h2H2,1H3,(H,5,7,8)

> <PUBCHEM_IUPAC_INCHIKEY>
RHYBFKMFHLPQPH-UHFFFAOYSA-N

> <PUBCHEM_XLOGP3_AA>
-0.9

> <PUBCHEM_EXACT_MASS>
114.042927

> <PUBCHEM_MOLECULAR_FORMULA>
C4H6N2O2

> <PUBCHEM_MOLECULAR_WEIGHT>
114.10264

> <PUBCHEM_OPENEYE_CAN_SMILES>
CN1CC(=O)NC1=O

> <PUBCHEM_OPENEYE_ISO_SMILES>
CN1CC(=O)NC1=O

> <PUBCHEM_CACTVS_TPSA>
49.4

> <PUBCHEM_MONOISOTOPIC_WEIGHT>
114.042927

> <PUBCHEM_TOTAL_CHARGE>
0

> <PUBCHEM_HEAVY_ATOM_COUNT>
8

> <PUBCHEM_ATOM_DEF_STEREO_COUNT>
0

> <PUBCHEM_ATOM_UDEF_STEREO_COUNT>
0

> <PUBCHEM_BOND_DEF_STEREO_COUNT>
0

> <PUBCHEM_BOND_UDEF_STEREO_COUNT>
0

> <PUBCHEM_ISOTOPIC_ATOM_COUNT>
0

> <PUBCHEM_COMPONENT_COUNT>
1

> <PUBCHEM_CACTVS_TAUTO_COUNT>
5

> <PUBCHEM_COORDINATE_TYPE>
1
5
255

$$$$

