6026
  -OEChem-06261201032D

149153  0     1  0  0  0  0  0999 V2000
   10.9597    2.7019    0.0000 O   0  0  0  0  0  0  0  0  0  0  0  0
   10.2786    3.8815    0.0000 O   0  0  0  0  0  0  0  0  0  0  0  0
   10.5388    1.4065    0.0000 O   0  0  0  0  0  0  0  0  0  0  0  0
    8.8755   -6.4187    0.0000 O   0  0  0  0  0  0  0  0  0  0  0  0
    9.5991   -9.2734    0.0000 O   0  0  0  0  0  0  0  0  0  0  0  0
   11.1934   -3.8444    0.0000 O   0  0  0  0  0  0  0  0  0  0  0  0
   10.6582   -2.1971    0.0000 O   0  0  0  0  0  0  0  0  0  0  0  0
   10.4503   -3.1752    0.0000 O   0  0  0  0  0  0  0  0  0  0  0  0
    7.0010   -6.7734    0.0000 O   0  0  0  0  0  0  0  0  0  0  0  0
    3.4030   -7.7734    0.0000 O   0  0  0  0  0  0  0  0  0  0  0  0
    4.2690   -9.2734    0.0000 O   0  0  0  0  0  0  0  0  0  0  0  0
   12.5420    1.9974    0.0000 N   0  0  0  0  0  0  0  0  0  0  0  0
   11.8609    4.5860    0.0000 N   0  0  0  0  0  0  0  0  0  0  0  0
   10.5697   -6.7788    0.0000 N   0  0  0  0  0  0  0  0  0  0  0  0
   11.0740   -0.2408    0.0000 N   0  0  0  0  0  0  0  0  0  0  0  0
    9.4652    5.7086    0.0000 N   0  0  0  0  0  0  0  0  0  0  0  0
    8.7331   -7.7734    0.0000 N   0  0  0  0  0  0  0  0  0  0  0  0
    9.2913   -4.4624    0.0000 N   0  0  0  0  0  0  0  0  0  0  0  0
    8.9640   -1.8370    0.0000 N   0  0  0  0  0  0  0  0  0  0  0  0
   10.8218    9.0492    0.0000 N   0  0  0  0  0  0  0  0  0  0  0  0
    6.0010   -8.2734    0.0000 N   0  0  0  0  0  0  0  0  0  0  0  0
   11.0028   10.7718    0.0000 N   0  0  0  0  0  0  0  0  0  0  0  0
   12.4041    9.7537    0.0000 N   0  0  0  0  0  0  0  0  0  0  0  0
    3.4030   -4.7734    0.0000 N   0  0  0  0  0  0  0  0  0  0  0  0
    2.5369   -3.2734    0.0000 N   0  0  0  0  0  0  0  0  0  0  0  0
    4.2690   -3.2734    0.0000 N   0  0  0  0  0  0  0  0  0  0  0  0
   12.3609    3.7200    0.0000 C   0  0  3  0  0  0  0  0  0  0  0  0
   13.3391    3.9279    0.0000 C   0  0  0  0  0  0  0  0  0  0  0  0
   12.2330    1.0463    0.0000 C   0  0  3  0  0  0  0  0  0  0  0  0
   13.4436    4.9224    0.0000 C   0  0  0  0  0  0  0  0  0  0  0  0
   12.5301    5.3291    0.0000 C   0  0  0  0  0  0  0  0  0  0  0  0
   13.0420    0.4586    0.0000 C   0  0  0  0  0  0  0  0  0  0  0  0
   13.5420    1.9974    0.0000 C   0  0  0  0  0  0  0  0  0  0  0  0
   11.9542    2.8064    0.0000 C   0  0  0  0  0  0  0  0  0  0  0  0
   13.8510    1.0463    0.0000 C   0  0  0  0  0  0  0  0  0  0  0  0
   10.8664    4.6905    0.0000 C   0  0  0  0  0  0  0  0  0  0  0  0
   11.2819    0.7373    0.0000 C   0  0  0  0  0  0  0  0  0  0  0  0
   10.4597    5.6041    0.0000 C   0  0  3  0  0  0  0  0  0  0  0  0
   10.4651   -7.7734    0.0000 C   0  0  3  0  0  0  0  0  0  0  0  0
   11.0475    6.4131    0.0000 C   0  0  0  0  0  0  0  0  0  0  0  0
   11.3787   -8.1801    0.0000 C   0  0  0  0  0  0  0  0  0  0  0  0
   12.0478   -7.4369    0.0000 C   0  0  0  0  0  0  0  0  0  0  0  0
   11.5478   -6.5709    0.0000 C   0  0  0  0  0  0  0  0  0  0  0  0
   10.6407    7.3266    0.0000 C   0  0  0  0  0  0  0  0  0  0  0  0
   10.1229   -0.5498    0.0000 C   0  0  0  0  0  0  0  0  0  0  0  0
    9.8265   -6.1097    0.0000 C   0  0  0  0  0  0  0  0  0  0  0  0
    9.5991   -8.2734    0.0000 C   0  0  0  0  0  0  0  0  0  0  0  0
   10.0344   -5.1316    0.0000 C   0  0  3  0  0  0  0  0  0  0  0  0
   11.2285    8.1356    0.0000 C   0  0  0  0  0  0  0  0  0  0  0  0
    9.9150   -1.5280    0.0000 C   0  0  0  0  0  0  0  0  0  0  0  0
    7.8671   -8.2734    0.0000 C   0  0  3  0  0  0  0  0  0  0  0  0
    8.7561   -2.8151    0.0000 C   0  0  3  0  0  0  0  0  0  0  0  0
   10.9855   -4.8225    0.0000 C   0  0  0  0  0  0  0  0  0  0  0  0
    9.4992   -3.4843    0.0000 C   0  0  0  0  0  0  0  0  0  0  0  0
    7.8671   -9.2734    0.0000 C   0  0  0  0  0  0  0  0  0  0  0  0
    7.8050   -3.1242    0.0000 C   0  0  0  0  0  0  0  0  0  0  0  0
    7.0010   -7.7734    0.0000 C   0  0  0  0  0  0  0  0  0  0  0  0
    7.0010   -9.7734    0.0000 C   0  0  0  0  0  0  0  0  0  0  0  0
    7.0618   -2.4550    0.0000 C   0  0  0  0  0  0  0  0  0  0  0  0
    5.1350   -7.7734    0.0000 C   0  0  3  0  0  0  0  0  0  0  0  0
   11.4096    9.8582    0.0000 C   0  0  0  0  0  0  0  0  0  0  0  0
    5.1350   -6.7734    0.0000 C   0  0  0  0  0  0  0  0  0  0  0  0
    6.1350   -9.2734    0.0000 C   0  0  0  0  0  0  0  0  0  0  0  0
    7.0010  -10.7733    0.0000 C   0  0  0  0  0  0  0  0  0  0  0  0
    7.2698   -1.4769    0.0000 C   0  0  0  0  0  0  0  0  0  0  0  0
    6.1108   -2.7640    0.0000 C   0  0  0  0  0  0  0  0  0  0  0  0
    4.2690   -6.2734    0.0000 C   0  0  0  0  0  0  0  0  0  0  0  0
    4.2690   -8.2734    0.0000 C   0  0  0  0  0  0  0  0  0  0  0  0
    5.2690   -9.7734    0.0000 C   0  0  0  0  0  0  0  0  0  0  0  0
    6.1350  -11.2733    0.0000 C   0  0  0  0  0  0  0  0  0  0  0  0
    5.2690  -10.7733    0.0000 C   0  0  0  0  0  0  0  0  0  0  0  0
    6.5266   -0.8077    0.0000 C   0  0  0  0  0  0  0  0  0  0  0  0
    5.3676   -2.0949    0.0000 C   0  0  0  0  0  0  0  0  0  0  0  0
    4.2690   -5.2734    0.0000 C   0  0  0  0  0  0  0  0  0  0  0  0
    5.5756   -1.1168    0.0000 C   0  0  0  0  0  0  0  0  0  0  0  0
    3.4030   -3.7734    0.0000 C   0  0  0  0  0  0  0  0  0  0  0  0
   11.7418    3.6875    0.0000 H   0  0  0  0  0  0  0  0  0  0  0  0
   13.4039    3.3113    0.0000 H   0  0  0  0  0  0  0  0  0  0  0  0
   13.9591    3.9279    0.0000 H   0  0  0  0  0  0  0  0  0  0  0  0
   11.7946    1.4848    0.0000 H   0  0  0  0  0  0  0  0  0  0  0  0
   14.0501    4.7935    0.0000 H   0  0  0  0  0  0  0  0  0  0  0  0
   13.6352    5.5121    0.0000 H   0  0  0  0  0  0  0  0  0  0  0  0
   12.8401    5.8661    0.0000 H   0  0  0  0  0  0  0  0  0  0  0  0
   12.0285    5.6936    0.0000 H   0  0  0  0  0  0  0  0  0  0  0  0
   12.6271   -0.0022    0.0000 H   0  0  0  0  0  0  0  0  0  0  0  0
   13.4568   -0.0022    0.0000 H   0  0  0  0  0  0  0  0  0  0  0  0
   14.1484    2.1263    0.0000 H   0  0  0  0  0  0  0  0  0  0  0  0
   13.4772    2.6140    0.0000 H   0  0  0  0  0  0  0  0  0  0  0  0
   14.1610    0.5094    0.0000 H   0  0  0  0  0  0  0  0  0  0  0  0
   14.4174    1.2985    0.0000 H   0  0  0  0  0  0  0  0  0  0  0  0
   10.0952    5.1025    0.0000 H   0  0  0  0  0  0  0  0  0  0  0  0
    9.9452   -7.4357    0.0000 H   0  0  0  0  0  0  0  0  0  0  0  0
   11.4781    5.9671    0.0000 H   0  0  0  0  0  0  0  0  0  0  0  0
   11.5615    6.7598    0.0000 H   0  0  0  0  0  0  0  0  0  0  0  0
   11.0687   -8.7170    0.0000 H   0  0  0  0  0  0  0  0  0  0  0  0
   11.8803   -8.5445    0.0000 H   0  0  0  0  0  0  0  0  0  0  0  0
   12.4627   -7.8977    0.0000 H   0  0  0  0  0  0  0  0  0  0  0  0
   12.5494   -7.0725    0.0000 H   0  0  0  0  0  0  0  0  0  0  0  0
   12.1142   -6.3187    0.0000 H   0  0  0  0  0  0  0  0  0  0  0  0
   11.3562   -5.9813    0.0000 H   0  0  0  0  0  0  0  0  0  0  0  0
   11.5347   -0.6557    0.0000 H   0  0  0  0  0  0  0  0  0  0  0  0
   10.2100    7.7726    0.0000 H   0  0  0  0  0  0  0  0  0  0  0  0
   10.1267    6.9799    0.0000 H   0  0  0  0  0  0  0  0  0  0  0  0
    9.2130    6.2750    0.0000 H   0  0  0  0  0  0  0  0  0  0  0  0
    9.1007    5.2070    0.0000 H   0  0  0  0  0  0  0  0  0  0  0  0
   10.0366    0.0641    0.0000 H   0  0  0  0  0  0  0  0  0  0  0  0
    9.5033   -0.5282    0.0000 H   0  0  0  0  0  0  0  0  0  0  0  0
    9.4448   -5.3231    0.0000 H   0  0  0  0  0  0  0  0  0  0  0  0
   11.6592    7.6897    0.0000 H   0  0  0  0  0  0  0  0  0  0  0  0
   11.7425    8.4824    0.0000 H   0  0  0  0  0  0  0  0  0  0  0  0
    8.7331   -7.1534    0.0000 H   0  0  0  0  0  0  0  0  0  0  0  0
    8.4040   -8.5834    0.0000 H   0  0  0  0  0  0  0  0  0  0  0  0
    8.7016   -4.6540    0.0000 H   0  0  0  0  0  0  0  0  0  0  0  0
    9.3457   -2.6236    0.0000 H   0  0  0  0  0  0  0  0  0  0  0  0
   11.0718   -5.4365    0.0000 H   0  0  0  0  0  0  0  0  0  0  0  0
   11.6051   -4.8442    0.0000 H   0  0  0  0  0  0  0  0  0  0  0  0
    8.5032   -1.4221    0.0000 H   0  0  0  0  0  0  0  0  0  0  0  0
    8.0791   -9.8560    0.0000 H   0  0  0  0  0  0  0  0  0  0  0  0
    8.4776   -9.1657    0.0000 H   0  0  0  0  0  0  0  0  0  0  0  0
    7.3164   -3.5059    0.0000 H   0  0  0  0  0  0  0  0  0  0  0  0
    8.0961   -3.6716    0.0000 H   0  0  0  0  0  0  0  0  0  0  0  0
    6.5380   -8.5834    0.0000 H   0  0  0  0  0  0  0  0  0  0  0  0
   11.7831   -3.6528    0.0000 H   0  0  0  0  0  0  0  0  0  0  0  0
    5.6720   -7.4634    0.0000 H   0  0  0  0  0  0  0  0  0  0  0  0
    5.7456   -6.8810    0.0000 H   0  0  0  0  0  0  0  0  0  0  0  0
    5.3471   -6.1907    0.0000 H   0  0  0  0  0  0  0  0  0  0  0  0
    6.1350   -8.6534    0.0000 H   0  0  0  0  0  0  0  0  0  0  0  0
    7.5380  -11.0834    0.0000 H   0  0  0  0  0  0  0  0  0  0  0  0
    7.8594   -1.2853    0.0000 H   0  0  0  0  0  0  0  0  0  0  0  0
    5.9819   -3.3705    0.0000 H   0  0  0  0  0  0  0  0  0  0  0  0
    3.6584   -6.1657    0.0000 H   0  0  0  0  0  0  0  0  0  0  0  0
    4.0569   -6.8560    0.0000 H   0  0  0  0  0  0  0  0  0  0  0  0
    4.7320   -9.4634    0.0000 H   0  0  0  0  0  0  0  0  0  0  0  0
    6.1350  -11.8933    0.0000 H   0  0  0  0  0  0  0  0  0  0  0  0
   11.3672   11.2733    0.0000 H   0  0  0  0  0  0  0  0  0  0  0  0
   10.3862   10.8366    0.0000 H   0  0  0  0  0  0  0  0  0  0  0  0
   12.7685   10.2553    0.0000 H   0  0  0  0  0  0  0  0  0  0  0  0
   12.6563    9.1873    0.0000 H   0  0  0  0  0  0  0  0  0  0  0  0
    4.7320  -11.0833    0.0000 H   0  0  0  0  0  0  0  0  0  0  0  0
    6.6555   -0.2013    0.0000 H   0  0  0  0  0  0  0  0  0  0  0  0
    4.7780   -2.2865    0.0000 H   0  0  0  0  0  0  0  0  0  0  0  0
    4.8796   -5.3810    0.0000 H   0  0  0  0  0  0  0  0  0  0  0  0
    4.4810   -4.6907    0.0000 H   0  0  0  0  0  0  0  0  0  0  0  0
    5.1148   -0.7019    0.0000 H   0  0  0  0  0  0  0  0  0  0  0  0
    2.8660   -8.0834    0.0000 H   0  0  0  0  0  0  0  0  0  0  0  0
    4.2690   -2.6534    0.0000 H   0  0  0  0  0  0  0  0  0  0  0  0
    4.8059   -3.5834    0.0000 H   0  0  0  0  0  0  0  0  0  0  0  0
    2.5369   -2.6534    0.0000 H   0  0  0  0  0  0  0  0  0  0  0  0
    2.0000   -3.5834    0.0000 H   0  0  0  0  0  0  0  0  0  0  0  0
  1 34  2  0  0  0  0
  2 36  2  0  0  0  0
  3 37  2  0  0  0  0
  4 46  2  0  0  0  0
  5 47  2  0  0  0  0
  6 53  1  0  0  0  0
  6123  1  0  0  0  0
  7 50  2  0  0  0  0
  8 54  2  0  0  0  0
  9 57  2  0  0  0  0
 10 68  1  0  0  0  0
 10145  1  0  0  0  0
 11 68  2  0  0  0  0
 12 29  1  0  0  0  0
 12 33  1  0  0  0  0
 12 34  1  0  0  0  0
 13 27  1  0  0  0  0
 13 31  1  0  0  0  0
 13 36  1  0  0  0  0
 14 39  1  0  0  0  0
 14 43  1  0  0  0  0
 14 46  1  0  0  0  0
 15 37  1  0  0  0  0
 15 45  1  0  0  0  0
 15101  1  0  0  0  0
 16 38  1  0  0  0  0
 16104  1  0  0  0  0
 16105  1  0  0  0  0
 17 47  1  0  0  0  0
 17 51  1  0  0  0  0
 17111  1  0  0  0  0
 18 48  1  0  0  0  0
 18 54  1  0  0  0  0
 18113  1  0  0  0  0
 19 50  1  0  0  0  0
 19 52  1  0  0  0  0
 19117  1  0  0  0  0
 20 49  1  0  0  0  0
 20 61  2  0  0  0  0
 21 57  1  0  0  0  0
 21 60  1  0  0  0  0
 21122  1  0  0  0  0
 22 61  1  0  0  0  0
 22135  1  0  0  0  0
 22136  1  0  0  0  0
 23 61  1  0  0  0  0
 23137  1  0  0  0  0
 23138  1  0  0  0  0
 24 74  1  0  0  0  0
 24 76  2  0  0  0  0
 25 76  1  0  0  0  0
 25148  1  0  0  0  0
 25149  1  0  0  0  0
 26 76  1  0  0  0  0
 26146  1  0  0  0  0
 26147  1  0  0  0  0
 27 28  1  0  0  0  0
 27 34  1  0  0  0  0
 27 77  1  0  0  0  0
 28 30  1  0  0  0  0
 28 78  1  0  0  0  0
 28 79  1  0  0  0  0
 29 32  1  0  0  0  0
 29 37  1  0  0  0  0
 29 80  1  0  0  0  0
 30 31  1  0  0  0  0
 30 81  1  0  0  0  0
 30 82  1  0  0  0  0
 31 83  1  0  0  0  0
 31 84  1  0  0  0  0
 32 35  1  0  0  0  0
 32 85  1  0  0  0  0
 32 86  1  0  0  0  0
 33 35  1  0  0  0  0
 33 87  1  0  0  0  0
 33 88  1  0  0  0  0
 35 89  1  0  0  0  0
 35 90  1  0  0  0  0
 36 38  1  0  0  0  0
 38 40  1  0  0  0  0
 38 91  1  0  0  0  0
 39 41  1  0  0  0  0
 39 47  1  0  0  0  0
 39 92  1  0  0  0  0
 40 44  1  0  0  0  0
 40 93  1  0  0  0  0
 40 94  1  0  0  0  0
 41 42  1  0  0  0  0
 41 95  1  0  0  0  0
 41 96  1  0  0  0  0
 42 43  1  0  0  0  0
 42 97  1  0  0  0  0
 42 98  1  0  0  0  0
 43 99  1  0  0  0  0
 43100  1  0  0  0  0
 44 49  1  0  0  0  0
 44102  1  0  0  0  0
 44103  1  0  0  0  0
 45 50  1  0  0  0  0
 45106  1  0  0  0  0
 45107  1  0  0  0  0
 46 48  1  0  0  0  0
 48 53  1  0  0  0  0
 48108  1  0  0  0  0
 49109  1  0  0  0  0
 49110  1  0  0  0  0
 51 55  1  0  0  0  0
 51 57  1  0  0  0  0
 51112  1  0  0  0  0
 52 54  1  0  0  0  0
 52 56  1  0  0  0  0
 52114  1  0  0  0  0
 53115  1  0  0  0  0
 53116  1  0  0  0  0
 55 58  1  0  0  0  0
 55118  1  0  0  0  0
 55119  1  0  0  0  0
 56 59  1  0  0  0  0
 56120  1  0  0  0  0
 56121  1  0  0  0  0
 58 63  2  0  0  0  0
 58 64  1  0  0  0  0
 59 65  2  0  0  0  0
 59 66  1  0  0  0  0
 60 62  1  0  0  0  0
 60 68  1  0  0  0  0
 60124  1  0  0  0  0
 62 67  1  0  0  0  0
 62125  1  0  0  0  0
 62126  1  0  0  0  0
 63 69  1  0  0  0  0
 63127  1  0  0  0  0
 64 70  2  0  0  0  0
 64128  1  0  0  0  0
 65 72  1  0  0  0  0
 65129  1  0  0  0  0
 66 73  2  0  0  0  0
 66130  1  0  0  0  0
 67 74  1  0  0  0  0
 67131  1  0  0  0  0
 67132  1  0  0  0  0
 69 71  2  0  0  0  0
 69133  1  0  0  0  0
 70 71  1  0  0  0  0
 70134  1  0  0  0  0
 71139  1  0  0  0  0
 72 75  2  0  0  0  0
 72140  1  0  0  0  0
 73 75  1  0  0  0  0
 73141  1  0  0  0  0
 74142  1  0  0  0  0
 74143  1  0  0  0  0
 75144  1  0  0  0  0
M  END
> <PUBCHEM_COMPOUND_CID>
6026

> <PUBCHEM_COMPOUND_CANONICALIZED>
1

> <PUBCHEM_CACTVS_COMPLEXITY>
2080

> <PUBCHEM_CACTVS_HBOND_ACCEPTOR>
14

> <PUBCHEM_CACTVS_HBOND_DONOR>
12

> <PUBCHEM_CACTVS_ROTATABLE_BOND>
27

> <PUBCHEM_CACTVS_SUBSKEYS>
AAADcfB//AAAAAAAAAAAAAAAAAAAAWLFgAAwYAAAAAAAAAABQAAAHgAQCAAADCjhmAYxCIPAAgCoAiHSPAACAAEgAAAIiIGIAIgKcDaAkTGUYAAmtgCYiAeYmYCOAAAAAAAAAAAAAAAAAAAAAAAAAAAAAA==

> <PUBCHEM_IUPAC_OPENEYE_NAME>
2-[[2-[[1-[2-[[2-[[2-[[1-[1-(2-amino-5-guanidino-pentanoyl)pyrrolidine-2-carbonyl]pyrrolidine-2-carbonyl]amino]acetyl]amino]-3-phenyl-propanoyl]amino]-3-hydroxy-propanoyl]pyrrolidine-2-carbonyl]amino]-3-phenyl-propanoyl]amino]-5-guanidino-pentanoic acid

> <PUBCHEM_IUPAC_CAS_NAME>
2-[[2-[[[1-[2-[[2-[[2-[[[1-[[1-[2-amino-5-(diaminomethylideneamino)-1-oxopentyl]-2-pyrrolidinyl]-oxomethyl]-2-pyrrolidinyl]-oxomethyl]amino]-1-oxoethyl]amino]-1-oxo-3-phenylpropyl]amino]-3-hydroxy-1-oxopropyl]-2-pyrrolidinyl]-oxomethyl]amino]-1-oxo-3-phenylpropyl]amino]-5-(diaminomethylideneamino)pentanoic acid

> <PUBCHEM_IUPAC_NAME>
2-[[2-[[1-[2-[[2-[[2-[[1-[1-[2-amino-5-(diaminomethylideneamino)pentanoyl]pyrrolidine-2-carbonyl]pyrrolidine-2-carbonyl]amino]acetyl]amino]-3-phenylpropanoyl]amino]-3-hydroxypropanoyl]pyrrolidine-2-carbonyl]amino]-3-phenylpropanoyl]amino]-5-(diaminomethylideneamino)pentanoic acid

> <PUBCHEM_IUPAC_SYSTEMATIC_NAME>
2-[[2-[[1-[2-[[2-[2-[[1-[1-[2-azanyl-5-[bis(azanyl)methylideneamino]pentanoyl]pyrrolidin-2-yl]carbonylpyrrolidin-2-yl]carbonylamino]ethanoylamino]-3-phenyl-propanoyl]amino]-3-oxidanyl-propanoyl]pyrrolidin-2-yl]carbonylamino]-3-phenyl-propanoyl]amino]-5-[bis(azanyl)methylideneamino]pentanoic acid

> <PUBCHEM_IUPAC_TRADITIONAL_NAME>
2-[[2-[[1-[2-[[2-[[2-[[1-[1-(2-amino-5-guanidino-pentanoyl)prolyl]prolyl]amino]acetyl]amino]-3-phenyl-propanoyl]amino]-3-hydroxy-propanoyl]prolyl]amino]-3-phenyl-propanoyl]amino]-5-guanidino-valeric acid

> <PUBCHEM_IUPAC_INCHI>
InChI=1S/C50H73N15O11/c51-32(16-7-21-56-49(52)53)45(72)65-25-11-20-39(65)47(74)64-24-9-18-37(64)43(70)58-28-40(67)59-34(26-30-12-3-1-4-13-30)41(68)62-36(29-66)46(73)63-23-10-19-38(63)44(71)61-35(27-31-14-5-2-6-15-31)42(69)60-33(48(75)76)17-8-22-57-50(54)55/h1-6,12-15,32-39,66H,7-11,16-29,51H2,(H,58,70)(H,59,67)(H,60,69)(H,61,71)(H,62,68)(H,75,76)(H4,52,53,56)(H4,54,55,57)

> <PUBCHEM_IUPAC_INCHIKEY>
QXZGBUJJYSLZLT-UHFFFAOYSA-N

> <PUBCHEM_XLOGP3_AA>
-4.8

> <PUBCHEM_EXACT_MASS>
1059.561398

> <PUBCHEM_MOLECULAR_FORMULA>
C50H73N15O11

> <PUBCHEM_MOLECULAR_WEIGHT>
1060.20852

> <PUBCHEM_OPENEYE_CAN_SMILES>
C1CC(N(C1)C(=O)C2CCCN2C(=O)C(CCCN=C(N)N)N)C(=O)NCC(=O)NC(CC3=CC=CC=C3)C(=O)NC(CO)C(=O)N4CCCC4C(=O)NC(CC5=CC=CC=C5)C(=O)NC(CCCN=C(N)N)C(=O)O

> <PUBCHEM_OPENEYE_ISO_SMILES>
C1CC(N(C1)C(=O)C2CCCN2C(=O)C(CCCN=C(N)N)N)C(=O)NCC(=O)NC(CC3=CC=CC=C3)C(=O)NC(CO)C(=O)N4CCCC4C(=O)NC(CC5=CC=CC=C5)C(=O)NC(CCCN=C(N)N)C(=O)O

> <PUBCHEM_CACTVS_TPSA>
419

> <PUBCHEM_MONOISOTOPIC_WEIGHT>
1059.561398

> <PUBCHEM_TOTAL_CHARGE>
0

> <PUBCHEM_HEAVY_ATOM_COUNT>
76

> <PUBCHEM_ATOM_DEF_STEREO_COUNT>
0

> <PUBCHEM_ATOM_UDEF_STEREO_COUNT>
8

> <PUBCHEM_BOND_DEF_STEREO_COUNT>
0

> <PUBCHEM_BOND_UDEF_STEREO_COUNT>
0

> <PUBCHEM_ISOTOPIC_ATOM_COUNT>
0

> <PUBCHEM_COMPONENT_COUNT>
1

> <PUBCHEM_CACTVS_TAUTO_COUNT>
128

> <PUBCHEM_COORDINATE_TYPE>
1
5
255

> <PUBCHEM_BONDANNOTATIONS>
38  16  3
27  34  3
29  37  3
39  47  3
48  53  3
51  55  3
52  56  3
58  63  8
58  64  8
59  65  8
59  66  8
60  62  3
63  69  8
64  70  8
65  72  8
66  73  8
69  71  8
70  71  8
72  75  8
73  75  8

$$$$

