   Color/Form
        NEEDLES
   from [1]HSDB

   Taste
        BITTER
   from [2]HSDB

   Melting Point
        142-143 DEG C
   from [3]HSDB

   Solubilities
        FREELY SOL IN WATER, COLD ALCOHOL, HOT ACETONE; SLIGHTLY SOL IN
   HOT ETHYL ACETATE, ETHER, BENZENE, CHLOROFORM; PRACTICALLY INSOL IN
   PETROLEUM ETHER
   from [4]HSDB

   Spectral Properties
        SPECIFIC OPTICAL ROTATION: -29 DEG @ 18 DEG C/D
   from [5]HSDB

   Computed Properties
   Molecular Weight                  247.24508 [g/mol]
   Molecular Formula                 C[10]H[17]NO[6]
   XLogP3                            -1.8
   H-Bond Donor                      4
   H-Bond Acceptor                   7
   Rotatable Bond Count              3
   Exact Mass                        247.105587
   MonoIsotopic Mass                 247.105587
   Topological Polar Surface Area    123
   Heavy Atom Count                  17
   Formal Charge                     0
   Complexity                        311
   Isotope Atom Count                0
   Defined Atom Stereocenter Count   5
   Undefined Atom Stereocenter Count 0
   Defined Bond Stereocenter Count   0
   Undefined Bond Stereocenter Count 0
   Covalently-Bonded Unit Count      1
   Feature 3D Acceptor Count         7
   Feature 3D Donor Count            4
   Feature 3D Hydrophobe Count       1
   Feature 3D Ring Count             1
   Effective Rotor Count             4.2
   Conformer Sampling RMSD           0.6
   CID Conformer Count               [6]9

References

   1. http://toxnet.nlm.nih.gov/cgi-bin/sis/search/r?dbs+hsdb:@term+@rn+@rel+554-35-8
   2. http://toxnet.nlm.nih.gov/cgi-bin/sis/search/r?dbs+hsdb:@term+@rn+@rel+554-35-8
   3. http://toxnet.nlm.nih.gov/cgi-bin/sis/search/r?dbs+hsdb:@term+@rn+@rel+554-35-8
   4. http://toxnet.nlm.nih.gov/cgi-bin/sis/search/r?dbs+hsdb:@term+@rn+@rel+554-35-8
   5. http://toxnet.nlm.nih.gov/cgi-bin/sis/search/r?dbs+hsdb:@term+@rn+@rel+554-35-8
   6. http://pubchem.ncbi.nlm.nih.gov/vw3d/vw3d.cgi?cid=11128
