9579050
  -OEChem-07051213132D

 39 41  0     1  0  0  0  0  0999 V2000
    5.2096    1.9272    0.0000 O   0  0  0  0  0  0  0  0  0  0  0  0
    6.9891    5.0205    0.0000 O   0  0  0  0  0  0  0  0  0  0  0  0
    3.5459    1.2886    0.0000 O   0  0  0  0  0  0  0  0  0  0  0  0
    3.8366   -2.5260    0.0000 O   0  0  0  0  0  0  0  0  0  0  0  0
    2.8660   -5.0205    0.0000 O   0  5  0  0  0  0  0  0  0  0  0  0
    2.0000   -3.5205    0.0000 O   0  0  0  0  0  0  0  0  0  0  0  0
    6.9891    3.0205    0.0000 N   0  0  0  0  0  0  0  0  0  0  0  0
    5.0404    0.3181    0.0000 N   0  0  0  0  0  0  0  0  0  0  0  0
    4.6337   -0.5955    0.0000 N   0  0  0  0  0  0  0  0  0  0  0  0
    2.8660   -4.0205    0.0000 N   0  3  0  0  0  0  0  0  0  0  0  0
    6.9891    2.0205    0.0000 C   0  0  0  0  0  0  0  0  0  0  0  0
    6.1231    1.5205    0.0000 C   0  0  1  0  0  0  0  0  0  0  0  0
    7.8551    3.5205    0.0000 C   0  0  0  0  0  0  0  0  0  0  0  0
    6.1231    3.5205    0.0000 C   0  0  0  0  0  0  0  0  0  0  0  0
    6.0186    0.5260    0.0000 C   0  0  0  0  0  0  0  0  0  0  0  0
    7.8551    4.5205    0.0000 C   0  0  0  0  0  0  0  0  0  0  0  0
    6.1231    4.5205    0.0000 C   0  0  0  0  0  0  0  0  0  0  0  0
    4.5404    1.1841    0.0000 C   0  0  0  0  0  0  0  0  0  0  0  0
    5.2215   -1.4045    0.0000 C   0  0  0  0  0  0  0  0  0  0  0  0
    4.8147   -2.3180    0.0000 C   0  0  0  0  0  0  0  0  0  0  0  0
    5.3147   -3.1841    0.0000 C   0  0  0  0  0  0  0  0  0  0  0  0
    4.6456   -3.9272    0.0000 C   0  0  0  0  0  0  0  0  0  0  0  0
    3.7320   -3.5205    0.0000 C   0  0  0  0  0  0  0  0  0  0  0  0
    6.0906    2.1396    0.0000 H   0  0  0  0  0  0  0  0  0  0  0  0
    7.2012    1.4379    0.0000 H   0  0  0  0  0  0  0  0  0  0  0  0
    7.5997    2.1282    0.0000 H   0  0  0  0  0  0  0  0  0  0  0  0
    5.5125    3.6282    0.0000 H   0  0  0  0  0  0  0  0  0  0  0  0
    8.0672    2.9379    0.0000 H   0  0  0  0  0  0  0  0  0  0  0  0
    8.4657    3.6282    0.0000 H   0  0  0  0  0  0  0  0  0  0  0  0
    5.9110    2.9379    0.0000 H   0  0  0  0  0  0  0  0  0  0  0  0
    6.0834   -0.0906    0.0000 H   0  0  0  0  0  0  0  0  0  0  0  0
    6.6386    0.5260    0.0000 H   0  0  0  0  0  0  0  0  0  0  0  0
    5.9110    5.1031    0.0000 H   0  0  0  0  0  0  0  0  0  0  0  0
    5.5125    4.4128    0.0000 H   0  0  0  0  0  0  0  0  0  0  0  0
    8.4657    4.4128    0.0000 H   0  0  0  0  0  0  0  0  0  0  0  0
    8.0672    5.1031    0.0000 H   0  0  0  0  0  0  0  0  0  0  0  0
    5.8381   -1.3397    0.0000 H   0  0  0  0  0  0  0  0  0  0  0  0
    5.9313   -3.2489    0.0000 H   0  0  0  0  0  0  0  0  0  0  0  0
    4.7745   -4.5337    0.0000 H   0  0  0  0  0  0  0  0  0  0  0  0
  1 12  1  0  0  0  0
  1 18  1  0  0  0  0
  2 16  1  0  0  0  0
  2 17  1  0  0  0  0
  3 18  2  0  0  0  0
  4 20  1  0  0  0  0
  4 23  1  0  0  0  0
  5 10  1  0  0  0  0
  6 10  2  0  0  0  0
  7 11  1  0  0  0  0
  7 13  1  0  0  0  0
  7 14  1  0  0  0  0
  8  9  1  0  0  0  0
  8 15  1  0  0  0  0
  8 18  1  0  0  0  0
  9 19  2  0  0  0  0
 10 23  1  0  0  0  0
 12 11  1  1  0  0  0
 11 25  1  0  0  0  0
 11 26  1  0  0  0  0
 12 15  1  0  0  0  0
 12 24  1  0  0  0  0
 13 16  1  0  0  0  0
 13 28  1  0  0  0  0
 13 29  1  0  0  0  0
 14 17  1  0  0  0  0
 14 27  1  0  0  0  0
 14 30  1  0  0  0  0
 15 31  1  0  0  0  0
 15 32  1  0  0  0  0
 16 35  1  0  0  0  0
 16 36  1  0  0  0  0
 17 33  1  0  0  0  0
 17 34  1  0  0  0  0
 19 20  1  0  0  0  0
 19 37  1  0  0  0  0
 20 21  2  0  0  0  0
 21 22  1  0  0  0  0
 21 38  1  0  0  0  0
 22 23  2  0  0  0  0
 22 39  1  0  0  0  0
M  CHG  2   5  -1  10   1
M  END
> <PUBCHEM_COMPOUND_CID>
9579050

> <PUBCHEM_COMPOUND_CANONICALIZED>
1

> <PUBCHEM_CACTVS_COMPLEXITY>
476

> <PUBCHEM_CACTVS_HBOND_ACCEPTOR>
8

> <PUBCHEM_CACTVS_HBOND_DONOR>
0

> <PUBCHEM_CACTVS_ROTATABLE_BOND>
4

> <PUBCHEM_CACTVS_SUBSKEYS>
AAADceBzuAAAAAAAAAAAAAAAAAAAAWJAAAAsAAAAAAAAAAABgAAAHgAMAAAACBThkAYwjIMQRECpALFzWwSSCAAsIgA6iAEubNoOJrKE9ZuPGSDkzhGY6Ya8AAAAAAAAAAAAAAAAAAAAAAAAAAAAAAAAAA==

> <PUBCHEM_IUPAC_OPENEYE_NAME>
(5S)-5-(morpholinomethyl)-3-[(E)-(5-nitro-2-furyl)methyleneamino]oxazolidin-2-one

> <PUBCHEM_IUPAC_CAS_NAME>
(5S)-5-(4-morpholinylmethyl)-3-[(E)-(5-nitro-2-furanyl)methylideneamino]-2-oxazolidinone

> <PUBCHEM_IUPAC_NAME>
(5S)-5-(morpholin-4-ylmethyl)-3-[(E)-(5-nitrofuran-2-yl)methylideneamino]-1,3-oxazolidin-2-one

> <PUBCHEM_IUPAC_SYSTEMATIC_NAME>
(5S)-5-(morpholin-4-ylmethyl)-3-[(E)-(5-nitrofuran-2-yl)methylideneamino]-1,3-oxazolidin-2-one

> <PUBCHEM_IUPAC_TRADITIONAL_NAME>
(5S)-5-(morpholinomethyl)-3-[(E)-(5-nitro-2-furyl)methyleneamino]oxazolidin-2-one

> <PUBCHEM_IUPAC_INCHI>
InChI=1S/C13H16N4O6/c18-13-16(14-7-10-1-2-12(22-10)17(19)20)9-11(23-13)8-15-3-5-21-6-4-15/h1-2,7,11H,3-6,8-9H2/b14-7+/t11-/m0/s1

> <PUBCHEM_IUPAC_INCHIKEY>
YVQVOQKFMFRVGR-NGPAHMQLSA-N

> <PUBCHEM_XLOGP3_AA>
0.8

> <PUBCHEM_EXACT_MASS>
324.106984

> <PUBCHEM_MOLECULAR_FORMULA>
C13H16N4O6

> <PUBCHEM_MOLECULAR_WEIGHT>
324.28934

> <PUBCHEM_OPENEYE_CAN_SMILES>
C1COCCN1CC2CN(C(=O)O2)N=CC3=CC=C(O3)[N+](=O)[O-]

> <PUBCHEM_OPENEYE_ISO_SMILES>
C1COCCN1C[C@H]2CN(C(=O)O2)/N=C/C3=CC=C(O3)[N+](=O)[O-]

> <PUBCHEM_CACTVS_TPSA>
113

> <PUBCHEM_MONOISOTOPIC_WEIGHT>
324.106984

> <PUBCHEM_TOTAL_CHARGE>
0

> <PUBCHEM_HEAVY_ATOM_COUNT>
23

> <PUBCHEM_ATOM_DEF_STEREO_COUNT>
1

> <PUBCHEM_ATOM_UDEF_STEREO_COUNT>
0

> <PUBCHEM_BOND_DEF_STEREO_COUNT>
1

> <PUBCHEM_BOND_UDEF_STEREO_COUNT>
0

> <PUBCHEM_ISOTOPIC_ATOM_COUNT>
0

> <PUBCHEM_COMPONENT_COUNT>
1

> <PUBCHEM_CACTVS_TAUTO_COUNT>
1

> <PUBCHEM_COORDINATE_TYPE>
1
5
255

> <PUBCHEM_BONDANNOTATIONS>
12  11  5
20  21  8
21  22  8
22  23  8
4  20  8
4  23  8

$$$$

