4018
  -OEChem-06251223492D

 72 74  0     1  0  0  0  0  0999 V2000
    7.6995    2.4479    0.0000 O   0  0  0  0  0  0  0  0  0  0  0  0
    9.6100    5.5057    0.0000 O   0  0  0  0  0  0  0  0  0  0  0  0
    5.4641   -5.0136    0.0000 O   0  0  0  0  0  0  0  0  0  0  0  0
    2.0000   -5.0136    0.0000 O   0  0  0  0  0  0  0  0  0  0  0  0
    5.4641    0.9864    0.0000 C   0  0  3  0  0  0  0  0  0  0  0  0
    5.4641   -0.0136    0.0000 C   0  0  3  0  0  0  0  0  0  0  0  0
    6.4103    1.2912    0.0000 C   0  0  3  0  0  0  0  0  0  0  0  0
    6.4103   -0.3183    0.0000 C   0  0  0  0  0  0  0  0  0  0  0  0
    6.9939    0.4864    0.0000 C   0  0  0  0  0  0  0  0  0  0  0  0
    4.5981    1.4864    0.0000 C   0  0  0  0  0  0  0  0  0  0  0  0
    4.5981   -0.5136    0.0000 C   0  0  0  0  0  0  0  0  0  0  0  0
    6.7210    2.2417    0.0000 C   0  0  3  0  0  0  0  0  0  0  0  0
    5.4641    1.9864    0.0000 C   0  0  0  0  0  0  0  0  0  0  0  0
    3.7320    0.9864    0.0000 C   0  0  0  0  0  0  0  0  0  0  0  0
    3.7320   -0.0136    0.0000 C   0  0  0  0  0  0  0  0  0  0  0  0
    6.0531    2.9860    0.0000 C   0  0  0  0  0  0  0  0  0  0  0  0
    4.5981   -1.5136    0.0000 C   0  0  0  0  0  0  0  0  0  0  0  0
    8.0102    3.3984    0.0000 C   0  0  0  0  0  0  0  0  0  0  0  0
    3.7320   -2.0136    0.0000 C   0  0  0  0  0  0  0  0  0  0  0  0
    8.9887    3.6047    0.0000 C   0  0  0  0  0  0  0  0  0  0  0  0
    3.7320   -3.0136    0.0000 C   0  0  0  0  0  0  0  0  0  0  0  0
    9.2993    4.5552    0.0000 C   0  0  0  0  0  0  0  0  0  0  0  0
    4.5981   -3.5136    0.0000 C   0  0  0  0  0  0  0  0  0  0  0  0
    2.8660   -3.5136    0.0000 C   0  0  0  0  0  0  0  0  0  0  0  0
    4.5981   -4.5136    0.0000 C   0  0  3  0  0  0  0  0  0  0  0  0
    2.8660   -4.5136    0.0000 C   0  0  3  0  0  0  0  0  0  0  0  0
    3.7320   -5.0136    0.0000 C   0  0  0  0  0  0  0  0  0  0  0  0
   10.2498    4.2445    0.0000 C   0  0  0  0  0  0  0  0  0  0  0  0
    8.3488    4.8658    0.0000 C   0  0  0  0  0  0  0  0  0  0  0  0
    2.0000   -3.0136    0.0000 C   0  0  0  0  0  0  0  0  0  0  0  0
    5.5540   -0.8588    0.0000 H   0  0  0  0  0  0  0  0  0  0  0  0
    7.2500    1.4231    0.0000 H   0  0  0  0  0  0  0  0  0  0  0  0
    6.1593   -0.8852    0.0000 H   0  0  0  0  0  0  0  0  0  0  0  0
    6.9477   -0.6275    0.0000 H   0  0  0  0  0  0  0  0  0  0  0  0
    7.4548    0.0717    0.0000 H   0  0  0  0  0  0  0  0  0  0  0  0
    7.4548    0.9012    0.0000 H   0  0  0  0  0  0  0  0  0  0  0  0
    4.9966    1.9614    0.0000 H   0  0  0  0  0  0  0  0  0  0  0  0
    4.1996    1.9614    0.0000 H   0  0  0  0  0  0  0  0  0  0  0  0
    7.2886    1.6090    0.0000 H   0  0  0  0  0  0  0  0  0  0  0  0
    6.0841    1.9864    0.0000 H   0  0  0  0  0  0  0  0  0  0  0  0
    5.4641    2.6064    0.0000 H   0  0  0  0  0  0  0  0  0  0  0  0
    4.8441    1.9864    0.0000 H   0  0  0  0  0  0  0  0  0  0  0  0
    3.5200    1.5691    0.0000 H   0  0  0  0  0  0  0  0  0  0  0  0
    3.1215    0.8788    0.0000 H   0  0  0  0  0  0  0  0  0  0  0  0
    3.1215    0.0941    0.0000 H   0  0  0  0  0  0  0  0  0  0  0  0
    3.5200   -0.5962    0.0000 H   0  0  0  0  0  0  0  0  0  0  0  0
    6.5146    3.4001    0.0000 H   0  0  0  0  0  0  0  0  0  0  0  0
    5.6391    3.4475    0.0000 H   0  0  0  0  0  0  0  0  0  0  0  0
    5.5917    2.5719    0.0000 H   0  0  0  0  0  0  0  0  0  0  0  0
    5.1350   -1.8236    0.0000 H   0  0  0  0  0  0  0  0  0  0  0  0
    7.9896    4.0181    0.0000 H   0  0  0  0  0  0  0  0  0  0  0  0
    7.3963    3.4858    0.0000 H   0  0  0  0  0  0  0  0  0  0  0  0
    3.1951   -1.7036    0.0000 H   0  0  0  0  0  0  0  0  0  0  0  0
    9.0092    2.9850    0.0000 H   0  0  0  0  0  0  0  0  0  0  0  0
    9.6025    3.5173    0.0000 H   0  0  0  0  0  0  0  0  0  0  0  0
    5.2087   -3.6212    0.0000 H   0  0  0  0  0  0  0  0  0  0  0  0
    4.8101   -2.9309    0.0000 H   0  0  0  0  0  0  0  0  0  0  0  0
    4.5981   -5.3636    0.0000 H   0  0  0  0  0  0  0  0  0  0  0  0
    2.8660   -5.3636    0.0000 H   0  0  0  0  0  0  0  0  0  0  0  0
    3.3335   -5.4885    0.0000 H   0  0  0  0  0  0  0  0  0  0  0  0
    4.1306   -5.4885    0.0000 H   0  0  0  0  0  0  0  0  0  0  0  0
   10.0572    3.6552    0.0000 H   0  0  0  0  0  0  0  0  0  0  0  0
   10.8392    4.0519    0.0000 H   0  0  0  0  0  0  0  0  0  0  0  0
   10.4425    4.8338    0.0000 H   0  0  0  0  0  0  0  0  0  0  0  0
    8.5414    5.4552    0.0000 H   0  0  0  0  0  0  0  0  0  0  0  0
    7.7595    5.0584    0.0000 H   0  0  0  0  0  0  0  0  0  0  0  0
    8.1562    4.2765    0.0000 H   0  0  0  0  0  0  0  0  0  0  0  0
   10.2167    5.6335    0.0000 H   0  0  0  0  0  0  0  0  0  0  0  0
    2.0000   -2.3936    0.0000 H   0  0  0  0  0  0  0  0  0  0  0  0
    1.4631   -3.3236    0.0000 H   0  0  0  0  0  0  0  0  0  0  0  0
    5.4641   -5.6335    0.0000 H   0  0  0  0  0  0  0  0  0  0  0  0
    2.0000   -5.6335    0.0000 H   0  0  0  0  0  0  0  0  0  0  0  0
  1 12  1  0  0  0  0
  1 18  1  0  0  0  0
  2 22  1  0  0  0  0
  2 68  1  0  0  0  0
  3 25  1  0  0  0  0
  3 71  1  0  0  0  0
  4 26  1  0  0  0  0
  4 72  1  0  0  0  0
  5  6  1  0  0  0  0
  5  7  1  0  0  0  0
  5 10  1  0  0  0  0
  5 13  1  0  0  0  0
  6  8  1  0  0  0  0
  6 11  1  0  0  0  0
  6 31  1  0  0  0  0
  7  9  1  0  0  0  0
  7 12  1  0  0  0  0
  7 32  1  0  0  0  0
  8  9  1  0  0  0  0
  8 33  1  0  0  0  0
  8 34  1  0  0  0  0
  9 35  1  0  0  0  0
  9 36  1  0  0  0  0
 10 14  1  0  0  0  0
 10 37  1  0  0  0  0
 10 38  1  0  0  0  0
 11 15  1  0  0  0  0
 11 17  2  3  0  0  0
 12 16  1  0  0  0  0
 12 39  1  0  0  0  0
 13 40  1  0  0  0  0
 13 41  1  0  0  0  0
 13 42  1  0  0  0  0
 14 15  1  0  0  0  0
 14 43  1  0  0  0  0
 14 44  1  0  0  0  0
 15 45  1  0  0  0  0
 15 46  1  0  0  0  0
 16 47  1  0  0  0  0
 16 48  1  0  0  0  0
 16 49  1  0  0  0  0
 17 19  1  0  0  0  0
 17 50  1  0  0  0  0
 18 20  1  0  0  0  0
 18 51  1  0  0  0  0
 18 52  1  0  0  0  0
 19 21  2  3  0  0  0
 19 53  1  0  0  0  0
 20 22  1  0  0  0  0
 20 54  1  0  0  0  0
 20 55  1  0  0  0  0
 21 23  1  0  0  0  0
 21 24  1  0  0  0  0
 22 28  1  0  0  0  0
 22 29  1  0  0  0  0
 23 25  1  0  0  0  0
 23 56  1  0  0  0  0
 23 57  1  0  0  0  0
 24 26  1  0  0  0  0
 24 30  2  0  0  0  0
 25 27  1  0  0  0  0
 25 58  1  0  0  0  0
 26 27  1  0  0  0  0
 26 59  1  0  0  0  0
 27 60  1  0  0  0  0
 27 61  1  0  0  0  0
 28 62  1  0  0  0  0
 28 63  1  0  0  0  0
 28 64  1  0  0  0  0
 29 65  1  0  0  0  0
 29 66  1  0  0  0  0
 29 67  1  0  0  0  0
 30 69  1  0  0  0  0
 30 70  1  0  0  0  0
M  END
> <PUBCHEM_COMPOUND_CID>
4018

> <PUBCHEM_COMPOUND_CANONICALIZED>
1

> <PUBCHEM_CACTVS_COMPLEXITY>
691

> <PUBCHEM_CACTVS_HBOND_ACCEPTOR>
4

> <PUBCHEM_CACTVS_HBOND_DONOR>
3

> <PUBCHEM_CACTVS_ROTATABLE_BOND>
6

> <PUBCHEM_CACTVS_SUBSKEYS>
AAADcfB4OAAAAAAAAAAAAAAAAAAAAYAAAAAwYAAAAAAAAGAAAAAAGgAACAAAD1SggAICAAAABgCAAiBCAAAAAAAgAAAACAAAAAgIFAIAAQACQAAFwAAIkAOA4PQPgAAAAAAAAAAAAAAQACAAAQAACAAAAA==

> <PUBCHEM_IUPAC_OPENEYE_NAME>
5-[2-[1-[1-(3-hydroxy-3-methyl-butoxy)ethyl]-7a-methyl-2,3,3a,5,6,7-hexahydro-1H-inden-4-ylidene]ethylidene]-4-methylene-cyclohexane-1,3-diol

> <PUBCHEM_IUPAC_CAS_NAME>
5-[2-[1-[1-(3-hydroxy-3-methylbutoxy)ethyl]-7a-methyl-2,3,3a,5,6,7-hexahydro-1H-inden-4-ylidene]ethylidene]-4-methylenecyclohexane-1,3-diol

> <PUBCHEM_IUPAC_NAME>
5-[2-[1-[1-(3-hydroxy-3-methylbutoxy)ethyl]-7a-methyl-2,3,3a,5,6,7-hexahydro-1H-inden-4-ylidene]ethylidene]-4-methylidenecyclohexane-1,3-diol

> <PUBCHEM_IUPAC_SYSTEMATIC_NAME>
5-[2-[7a-methyl-1-[1-(3-methyl-3-oxidanyl-butoxy)ethyl]-2,3,3a,5,6,7-hexahydro-1H-inden-4-ylidene]ethylidene]-4-methylidene-cyclohexane-1,3-diol

> <PUBCHEM_IUPAC_TRADITIONAL_NAME>
5-[2-[1-[1-(3-hydroxy-3-methyl-butoxy)ethyl]-7a-methyl-2,3,3a,5,6,7-hexahydro-1H-inden-4-ylidene]ethylidene]-4-methylene-cyclohexane-1,3-diol

> <PUBCHEM_IUPAC_INCHI>
InChI=1S/C26H42O4/c1-17-20(15-21(27)16-24(17)28)9-8-19-7-6-12-26(5)22(10-11-23(19)26)18(2)30-14-13-25(3,4)29/h8-9,18,21-24,27-29H,1,6-7,10-16H2,2-5H3

> <PUBCHEM_IUPAC_INCHIKEY>
DTXXSJZBSTYZKE-UHFFFAOYSA-N

> <PUBCHEM_XLOGP3_AA>
3.5

> <PUBCHEM_EXACT_MASS>
418.30831

> <PUBCHEM_MOLECULAR_FORMULA>
C26H42O4

> <PUBCHEM_MOLECULAR_WEIGHT>
418.60928

> <PUBCHEM_OPENEYE_CAN_SMILES>
CC(C1CCC2C1(CCCC2=CC=C3CC(CC(C3=C)O)O)C)OCCC(C)(C)O

> <PUBCHEM_OPENEYE_ISO_SMILES>
CC(C1CCC2C1(CCCC2=CC=C3CC(CC(C3=C)O)O)C)OCCC(C)(C)O

> <PUBCHEM_CACTVS_TPSA>
69.9

> <PUBCHEM_MONOISOTOPIC_WEIGHT>
418.30831

> <PUBCHEM_TOTAL_CHARGE>
0

> <PUBCHEM_HEAVY_ATOM_COUNT>
30

> <PUBCHEM_ATOM_DEF_STEREO_COUNT>
0

> <PUBCHEM_ATOM_UDEF_STEREO_COUNT>
6

> <PUBCHEM_BOND_DEF_STEREO_COUNT>
0

> <PUBCHEM_BOND_UDEF_STEREO_COUNT>
2

> <PUBCHEM_ISOTOPIC_ATOM_COUNT>
0

> <PUBCHEM_COMPONENT_COUNT>
1

> <PUBCHEM_CACTVS_TAUTO_COUNT>
1

> <PUBCHEM_COORDINATE_TYPE>
1
5
255

> <PUBCHEM_BONDANNOTATIONS>
11  17  1
12  39  3
19  21  1
25  58  3
26  59  3
5  13  3
6  31  3
7  32  3

$$$$

