5281924
  -OEChem-07051213012D

 26 25  0     0  0  0  0  0  0999 V2000
    4.5981   -1.0600    0.0000 O   0  0  0  0  0  0  0  0  0  0  0  0
    2.8660   -0.0600    0.0000 N   0  3  0  0  0  0  0  0  0  0  0  0
    3.7320    0.4400    0.0000 C   0  0  0  0  0  0  0  0  0  0  0  0
    2.0000   -0.5600    0.0000 C   0  0  0  0  0  0  0  0  0  0  0  0
    2.3660    0.8060    0.0000 C   0  0  0  0  0  0  0  0  0  0  0  0
    3.3660   -0.9260    0.0000 C   0  0  0  0  0  0  0  0  0  0  0  0
    4.5981   -0.0600    0.0000 C   0  0  0  0  0  0  0  0  0  0  0  0
    5.4641    0.4400    0.0000 C   0  0  0  0  0  0  0  0  0  0  0  0
    6.3301   -0.0600    0.0000 C   0  0  0  0  0  0  0  0  0  0  0  0
    7.1962    0.4400    0.0000 C   0  0  0  0  0  0  0  0  0  0  0  0
    4.1306    0.9149    0.0000 H   0  0  0  0  0  0  0  0  0  0  0  0
    3.3335    0.9149    0.0000 H   0  0  0  0  0  0  0  0  0  0  0  0
    2.8291   -1.2360    0.0000 H   0  0  0  0  0  0  0  0  0  0  0  0
    3.6760   -1.4630    0.0000 H   0  0  0  0  0  0  0  0  0  0  0  0
    3.9030   -0.6160    0.0000 H   0  0  0  0  0  0  0  0  0  0  0  0
    2.9030    1.1160    0.0000 H   0  0  0  0  0  0  0  0  0  0  0  0
    2.0560    1.3430    0.0000 H   0  0  0  0  0  0  0  0  0  0  0  0
    1.8291    0.4960    0.0000 H   0  0  0  0  0  0  0  0  0  0  0  0
    1.6900   -0.0231    0.0000 H   0  0  0  0  0  0  0  0  0  0  0  0
    1.4631   -0.8700    0.0000 H   0  0  0  0  0  0  0  0  0  0  0  0
    2.3100   -1.0969    0.0000 H   0  0  0  0  0  0  0  0  0  0  0  0
    5.4641    1.0600    0.0000 H   0  0  0  0  0  0  0  0  0  0  0  0
    6.3301   -0.6800    0.0000 H   0  0  0  0  0  0  0  0  0  0  0  0
    7.5062   -0.0969    0.0000 H   0  0  0  0  0  0  0  0  0  0  0  0
    7.7331    0.7500    0.0000 H   0  0  0  0  0  0  0  0  0  0  0  0
    6.8862    0.9769    0.0000 H   0  0  0  0  0  0  0  0  0  0  0  0
  1  7  2  0  0  0  0
  2  3  1  0  0  0  0
  2  4  1  0  0  0  0
  2  5  1  0  0  0  0
  2  6  1  0  0  0  0
  3  7  1  0  0  0  0
  3 11  1  0  0  0  0
  3 12  1  0  0  0  0
  4 19  1  0  0  0  0
  4 20  1  0  0  0  0
  4 21  1  0  0  0  0
  5 16  1  0  0  0  0
  5 17  1  0  0  0  0
  5 18  1  0  0  0  0
  6 13  1  0  0  0  0
  6 14  1  0  0  0  0
  6 15  1  0  0  0  0
  7  8  1  0  0  0  0
  8  9  2  0  0  0  0
  8 22  1  0  0  0  0
  9 10  1  0  0  0  0
  9 23  1  0  0  0  0
 10 24  1  0  0  0  0
 10 25  1  0  0  0  0
 10 26  1  0  0  0  0
M  CHG  1   2   1
M  END
> <PUBCHEM_COMPOUND_CID>
5281924

> <PUBCHEM_COMPOUND_CANONICALIZED>
1

> <PUBCHEM_CACTVS_COMPLEXITY>
142

> <PUBCHEM_CACTVS_HBOND_ACCEPTOR>
1

> <PUBCHEM_CACTVS_HBOND_DONOR>
0

> <PUBCHEM_CACTVS_ROTATABLE_BOND>
3

> <PUBCHEM_CACTVS_SUBSKEYS>
AAADceByIAAAAAAAAAAAAAAAAAAAAAAAAAAAAAAAAAAAAAAAAAAAHgAAAAAACATBgAQCAAMAAACIAKBSAAAAAAAgAAAICACIAEgAAAAAASAEAAAAAAAIAYIAAAAAAAAAAAAAAAAAAAAAAAAAAAAAAAAAAA==

> <PUBCHEM_IUPAC_OPENEYE_NAME>
trimethyl-[(E)-2-oxopent-3-enyl]ammonium

> <PUBCHEM_IUPAC_CAS_NAME>
trimethyl-[(E)-2-oxopent-3-enyl]ammonium

> <PUBCHEM_IUPAC_NAME>
trimethyl-[(E)-2-oxopent-3-enyl]azanium

> <PUBCHEM_IUPAC_SYSTEMATIC_NAME>
trimethyl-[(E)-2-oxidanylidenepent-3-enyl]azanium

> <PUBCHEM_IUPAC_TRADITIONAL_NAME>
[(E)-2-ketopent-3-enyl]-trimethyl-ammonium

> <PUBCHEM_IUPAC_INCHI>
InChI=1S/C8H16NO/c1-5-6-8(10)7-9(2,3)4/h5-6H,7H2,1-4H3/q+1/b6-5+

> <PUBCHEM_IUPAC_INCHIKEY>
LPHLEOXDGOXACA-AATRIKPKSA-N

> <PUBCHEM_XLOGP3_AA>
0.9

> <PUBCHEM_EXACT_MASS>
142.123189

> <PUBCHEM_MOLECULAR_FORMULA>
C8H16NO+

> <PUBCHEM_MOLECULAR_WEIGHT>
142.21874

> <PUBCHEM_OPENEYE_CAN_SMILES>
CC=CC(=O)C[N+](C)(C)C

> <PUBCHEM_OPENEYE_ISO_SMILES>
C/C=C/C(=O)C[N+](C)(C)C

> <PUBCHEM_CACTVS_TPSA>
17.1

> <PUBCHEM_MONOISOTOPIC_WEIGHT>
142.123189

> <PUBCHEM_TOTAL_CHARGE>
1

> <PUBCHEM_HEAVY_ATOM_COUNT>
10

> <PUBCHEM_ATOM_DEF_STEREO_COUNT>
0

> <PUBCHEM_ATOM_UDEF_STEREO_COUNT>
0

> <PUBCHEM_BOND_DEF_STEREO_COUNT>
1

> <PUBCHEM_BOND_UDEF_STEREO_COUNT>
0

> <PUBCHEM_ISOTOPIC_ATOM_COUNT>
0

> <PUBCHEM_COMPONENT_COUNT>
1

> <PUBCHEM_CACTVS_TAUTO_COUNT>
5

> <PUBCHEM_COORDINATE_TYPE>
1
5
255

$$$$

