   Color/Form
        Viscid yellow mass
   from [1]HSDB

   Boiling Point
        180 deg C (dec)
   from [2]HSDB

   Melting Point
        48-50 deg C
   from [3]HSDB

   Dissociation Constants
        pKa = 4.72 at 25 deg C
   from [4]HSDB

   Octanol/Water Partition Coefficient
        log Kow = -0.40 at 25 deg C (est)
   from [5]HSDB

   Solubilities
        Very soluble in water, alcohol and ether.
   from [6]HSDB

   Vapor Pressure
        0.13 mm Hg at 25 deg C (est)
   from [7]HSDB

   Other Chemical/Physical Properties

     * Henry's Law constant = 6.7X10-12 atm-cu m/mole at 25 deg C (est)
     * Hydroxyl radical reaction rate constant = 7.0X10-12 cu
       cm/molecule-sec at 25 deg C (est)

   from [8]HSDB

   Computed Properties
   Molecular Weight                  104.10452 [g/mol]
   Molecular Formula                 C[4]H[8]O[3]
   XLogP3                            -0.6
   H-Bond Donor                      2
   H-Bond Acceptor                   3
   Rotatable Bond Count              3
   Exact Mass                        104.047344
   MonoIsotopic Mass                 104.047344
   Topological Polar Surface Area    57.5
   Heavy Atom Count                  7
   Formal Charge                     0
   Complexity                        60
   Isotope Atom Count                0
   Defined Atom Stereocenter Count   0
   Undefined Atom Stereocenter Count 0
   Defined Bond Stereocenter Count   0
   Undefined Bond Stereocenter Count 0
   Covalently-Bonded Unit Count      1
   Feature 3D Acceptor Count         3
   Feature 3D Donor Count            1
   Feature 3D Anion Count            1
   Effective Rotor Count             3
   Conformer Sampling RMSD           0.4
   CID Conformer Count               [9]24

References

   1. http://toxnet.nlm.nih.gov/cgi-bin/sis/search/r?dbs+hsdb:@term+@rn+@rel+591-81-1
   2. http://toxnet.nlm.nih.gov/cgi-bin/sis/search/r?dbs+hsdb:@term+@rn+@rel+591-81-1
   3. http://toxnet.nlm.nih.gov/cgi-bin/sis/search/r?dbs+hsdb:@term+@rn+@rel+591-81-1
   4. http://toxnet.nlm.nih.gov/cgi-bin/sis/search/r?dbs+hsdb:@term+@rn+@rel+591-81-1
   5. http://toxnet.nlm.nih.gov/cgi-bin/sis/search/r?dbs+hsdb:@term+@rn+@rel+591-81-1
   6. http://toxnet.nlm.nih.gov/cgi-bin/sis/search/r?dbs+hsdb:@term+@rn+@rel+591-81-1
   7. http://toxnet.nlm.nih.gov/cgi-bin/sis/search/r?dbs+hsdb:@term+@rn+@rel+591-81-1
   8. http://toxnet.nlm.nih.gov/cgi-bin/sis/search/r?dbs+hsdb:@term+@rn+@rel+591-81-1
   9. http://pubchem.ncbi.nlm.nih.gov/vw3d/vw3d.cgi?cid=10413
