   Color/Form
        Needles (from water)
   from [1]HSDB

   Melting Point
        108.5 deg C
   from [2]HSDB

   Octanol/Water Partition Coefficient
        log Kow = 2.18
   from [3]HSDB

   Solubilities

     * Very soluble in ethanol, diethyl ether, benzene; soluble in
       trifluoroacetic acid
     * Soluble in aqueous hydrochloric acid
     * Slightly soluble in water
     * In water, 310 mg/L at 25 deg C (est)

   from [4]HSDB

   Spectral Properties

     * MAX ABSORPTION (ALCOHOL): 264 NM (LOG E= 4.39); SADTLER REFERENCE
       NUMBER: 18683 (IR, PRISM); 8866 (IR, GRATING); 6007 (UV); 2074
       (NMR)
     * MASS: 76016 (NIST/EPA/MSDC Mass Spectral Database 1990 version)
     * IR: 8866 (Sadtler Research Laboratories IR grating)
     * UV: 6007 (Sadtler Research Laboratories Spectral Collection)
     * 1H NMR: 2074 (Sadtler Research Laboratories Spectral Collection)

   from [5]HSDB

   Vapor Pressure
        1.1X10-5 mm Hg at 25 deg C (est)
   from [6]HSDB

   Other Chemical/Physical Properties

     * Henry's Law constant = 3.9X10-12 atm-cu m/mol at 25 deg C (est)
     * Hydroxyl radical reaction rate constant = 1.3X10-10 cu cm/molec-sec
       at 25 deg C (est)

   from [7]HSDB

   Computed Properties
   Molecular Weight                  216.30208 [g/mol]
   Molecular Formula                 C[12]H[12]N[2]S
   XLogP3                            2.2
   H-Bond Donor                      2
   H-Bond Acceptor                   3
   Rotatable Bond Count              2
   Exact Mass                        216.072119
   MonoIsotopic Mass                 216.072119
   Topological Polar Surface Area    77.3
   Heavy Atom Count                  15
   Formal Charge                     0
   Complexity                        162
   Isotope Atom Count                0
   Defined Atom Stereocenter Count   0
   Undefined Atom Stereocenter Count 0
   Defined Bond Stereocenter Count   0
   Undefined Bond Stereocenter Count 0
   Covalently-Bonded Unit Count      1
   Feature 3D Donor Count            2
   Feature 3D Cation Count           2
   Feature 3D Ring Count             2
   Effective Rotor Count             2
   Conformer Sampling RMSD           0.6
   CID Conformer Count               [8]3

References

   1. http://toxnet.nlm.nih.gov/cgi-bin/sis/search/r?dbs+hsdb:@term+@rn+@rel+139-65-1
   2. http://toxnet.nlm.nih.gov/cgi-bin/sis/search/r?dbs+hsdb:@term+@rn+@rel+139-65-1
   3. http://toxnet.nlm.nih.gov/cgi-bin/sis/search/r?dbs+hsdb:@term+@rn+@rel+139-65-1
   4. http://toxnet.nlm.nih.gov/cgi-bin/sis/search/r?dbs+hsdb:@term+@rn+@rel+139-65-1
   5. http://toxnet.nlm.nih.gov/cgi-bin/sis/search/r?dbs+hsdb:@term+@rn+@rel+139-65-1
   6. http://toxnet.nlm.nih.gov/cgi-bin/sis/search/r?dbs+hsdb:@term+@rn+@rel+139-65-1
   7. http://toxnet.nlm.nih.gov/cgi-bin/sis/search/r?dbs+hsdb:@term+@rn+@rel+139-65-1
   8. http://pubchem.ncbi.nlm.nih.gov/vw3d/vw3d.cgi?cid=8765
