   Color/Form

     * COLORLESS, MOBILE LIQUID
     * Colorless essential oil
     * Colorless liquid

   from [1]HSDB

   Odor
        Camphor-like odor
   from [2]HSDB

   Taste

     * EUCALYPTUS, BITTER-SWEET FLAVOR
     * Pungent, cooling, spicy taste

   from [3]HSDB

   Boiling Point
        176.4 deg C
   from [4]HSDB

   Melting Point
        1.5 deg C
   from [5]HSDB

   Density/Specific Gravity
        0.9267 g/cu cm @ 20 deg C
   from [6]HSDB

   Octanol/Water Partition Coefficient
        log Kow= 2.74
   from [7]HSDB

   Solubilities

     * Miscible with ether, alcohol, chloroform, glacial acetic acid, oils
     * SOLUBILITY: 1:2 IN 70% ALCOHOL; SOLUBLE IN MOST ORGANIC SOLVENTS
     * Soluble in ethanol, ethyl ether; slightly soluble in carbon
       tetrachloride
     * In water, 3.50X10+3 mg/l @ 21 deg C

   from [8]HSDB

   Spectral Properties

     * Index of refraction: 1.4586 @ 20 deg C/D
     * IR: 966 (Coblentz Society Spectral Collection)
     * NMR: 10005 (Sadtler Research Laboratories Spectral Collection)
     * MASS: 4178 (National Bureau of Standards EPA-NIH Mass Spectra Data
       Base, NSRDS-NBS-63)
     * IR: 6761 (Coblentz Society Spectral Collection)
     * MASS: 931 (Atlas of Mass Spectral Data, John Wiley & Sons, New
       York)

   from [9]HSDB

   Vapor Pressure
        1.90 mm Hg @ 25 deg C
   from [10]HSDB

   Other Chemical/Physical Properties

     * A terpene ether; congealing point not below 0 deg C
     * Hydroxyl radical rate constant= 1.11X10-11 cu cm/molecule-sec @ 25
       deg C

   from [11]HSDB

   Computed Properties
   Molecular Weight                  154.24932 [g/mol]
   Molecular Formula                 C[10]H[18]O
   XLogP3                            2.5
   H-Bond Donor                      0
   H-Bond Acceptor                   1
   Rotatable Bond Count              0
   Exact Mass                        154.135765
   MonoIsotopic Mass                 154.135765
   Topological Polar Surface Area    9.2
   Heavy Atom Count                  11
   Formal Charge                     0
   Complexity                        164
   Isotope Atom Count                0
   Defined Atom Stereocenter Count   0
   Undefined Atom Stereocenter Count 0
   Defined Bond Stereocenter Count   0
   Undefined Bond Stereocenter Count 0
   Covalently-Bonded Unit Count      1
   Feature 3D Acceptor Count         1
   Feature 3D Hydrophobe Count       1
   Feature 3D Ring Count             1
   Effective Rotor Count             1.2
   Conformer Sampling RMSD           0.4
   CID Conformer Count               [12]1

References

   1. http://toxnet.nlm.nih.gov/cgi-bin/sis/search/r?dbs+hsdb:@term+@rn+@rel+470-82-6
   2. http://toxnet.nlm.nih.gov/cgi-bin/sis/search/r?dbs+hsdb:@term+@rn+@rel+470-82-6
   3. http://toxnet.nlm.nih.gov/cgi-bin/sis/search/r?dbs+hsdb:@term+@rn+@rel+470-82-6
   4. http://toxnet.nlm.nih.gov/cgi-bin/sis/search/r?dbs+hsdb:@term+@rn+@rel+470-82-6
   5. http://toxnet.nlm.nih.gov/cgi-bin/sis/search/r?dbs+hsdb:@term+@rn+@rel+470-82-6
   6. http://toxnet.nlm.nih.gov/cgi-bin/sis/search/r?dbs+hsdb:@term+@rn+@rel+470-82-6
   7. http://toxnet.nlm.nih.gov/cgi-bin/sis/search/r?dbs+hsdb:@term+@rn+@rel+470-82-6
   8. http://toxnet.nlm.nih.gov/cgi-bin/sis/search/r?dbs+hsdb:@term+@rn+@rel+470-82-6
   9. http://toxnet.nlm.nih.gov/cgi-bin/sis/search/r?dbs+hsdb:@term+@rn+@rel+470-82-6
  10. http://toxnet.nlm.nih.gov/cgi-bin/sis/search/r?dbs+hsdb:@term+@rn+@rel+470-82-6
  11. http://toxnet.nlm.nih.gov/cgi-bin/sis/search/r?dbs+hsdb:@term+@rn+@rel+470-82-6
  12. http://pubchem.ncbi.nlm.nih.gov/vw3d/vw3d.cgi?cid=2758
