13496
  -OEChem-06261214482D

 38 39  0     0  0  0  0  0  0999 V2000
    5.6602   -0.8087    0.0000 O   0  0  0  0  0  0  0  0  0  0  0  0
    3.5823    2.6739    0.0000 N   0  0  0  0  0  0  0  0  0  0  0  0
    5.3511    0.1424    0.0000 N   0  0  0  0  0  0  0  0  0  0  0  0
    4.1701    1.8649    0.0000 C   0  0  0  0  0  0  0  0  0  0  0  0
    3.7634    0.9514    0.0000 C   0  0  0  0  0  0  0  0  0  0  0  0
    3.9890    3.5875    0.0000 C   0  0  0  0  0  0  0  0  0  0  0  0
    2.5878    2.5694    0.0000 C   0  0  0  0  0  0  0  0  0  0  0  0
    4.3511    0.1424    0.0000 C   0  0  0  0  0  0  0  0  0  0  0  0
    3.4013    4.3965    0.0000 C   0  0  0  0  0  0  0  0  0  0  0  0
    2.0000    3.3784    0.0000 C   0  0  0  0  0  0  0  0  0  0  0  0
    4.0421   -0.8087    0.0000 C   0  0  0  0  0  0  0  0  0  0  0  0
    4.8511   -1.3965    0.0000 C   0  0  0  0  0  0  0  0  0  0  0  0
    4.8511   -2.3965    0.0000 C   0  0  0  0  0  0  0  0  0  0  0  0
    3.9851   -2.8965    0.0000 C   0  0  0  0  0  0  0  0  0  0  0  0
    5.7172   -2.8965    0.0000 C   0  0  0  0  0  0  0  0  0  0  0  0
    3.9851   -3.8965    0.0000 C   0  0  0  0  0  0  0  0  0  0  0  0
    5.7172   -3.8965    0.0000 C   0  0  0  0  0  0  0  0  0  0  0  0
    4.8511   -4.3965    0.0000 C   0  0  0  0  0  0  0  0  0  0  0  0
    4.6841    1.5182    0.0000 H   0  0  0  0  0  0  0  0  0  0  0  0
    4.6008    2.3109    0.0000 H   0  0  0  0  0  0  0  0  0  0  0  0
    3.2494    1.2981    0.0000 H   0  0  0  0  0  0  0  0  0  0  0  0
    3.3327    0.5054    0.0000 H   0  0  0  0  0  0  0  0  0  0  0  0
    4.5030    3.2408    0.0000 H   0  0  0  0  0  0  0  0  0  0  0  0
    4.4197    4.0335    0.0000 H   0  0  0  0  0  0  0  0  0  0  0  0
    2.0305    2.2976    0.0000 H   0  0  0  0  0  0  0  0  0  0  0  0
    2.7587    1.9734    0.0000 H   0  0  0  0  0  0  0  0  0  0  0  0
    2.5016    3.7428    0.0000 H   0  0  0  0  0  0  0  0  0  0  0  0
    1.6356    3.8800    0.0000 H   0  0  0  0  0  0  0  0  0  0  0  0
    1.4984    3.0140    0.0000 H   0  0  0  0  0  0  0  0  0  0  0  0
    3.9028    4.7609    0.0000 H   0  0  0  0  0  0  0  0  0  0  0  0
    3.0368    4.8981    0.0000 H   0  0  0  0  0  0  0  0  0  0  0  0
    2.8997    4.0321    0.0000 H   0  0  0  0  0  0  0  0  0  0  0  0
    3.4525   -1.0003    0.0000 H   0  0  0  0  0  0  0  0  0  0  0  0
    3.4482   -2.5865    0.0000 H   0  0  0  0  0  0  0  0  0  0  0  0
    6.2541   -2.5865    0.0000 H   0  0  0  0  0  0  0  0  0  0  0  0
    3.4482   -4.2065    0.0000 H   0  0  0  0  0  0  0  0  0  0  0  0
    6.2541   -4.2065    0.0000 H   0  0  0  0  0  0  0  0  0  0  0  0
    4.8511   -5.0165    0.0000 H   0  0  0  0  0  0  0  0  0  0  0  0
  1  3  1  0  0  0  0
  1 12  1  0  0  0  0
  2  4  1  0  0  0  0
  2  6  1  0  0  0  0
  2  7  1  0  0  0  0
  3  8  2  0  0  0  0
  4  5  1  0  0  0  0
  4 19  1  0  0  0  0
  4 20  1  0  0  0  0
  5  8  1  0  0  0  0
  5 21  1  0  0  0  0
  5 22  1  0  0  0  0
  6  9  1  0  0  0  0
  6 23  1  0  0  0  0
  6 24  1  0  0  0  0
  7 10  1  0  0  0  0
  7 25  1  0  0  0  0
  7 26  1  0  0  0  0
  8 11  1  0  0  0  0
  9 30  1  0  0  0  0
  9 31  1  0  0  0  0
  9 32  1  0  0  0  0
 10 27  1  0  0  0  0
 10 28  1  0  0  0  0
 10 29  1  0  0  0  0
 11 12  2  0  0  0  0
 11 33  1  0  0  0  0
 12 13  1  0  0  0  0
 13 14  2  0  0  0  0
 13 15  1  0  0  0  0
 14 16  1  0  0  0  0
 14 34  1  0  0  0  0
 15 17  2  0  0  0  0
 15 35  1  0  0  0  0
 16 18  2  0  0  0  0
 16 36  1  0  0  0  0
 17 18  1  0  0  0  0
 17 37  1  0  0  0  0
 18 38  1  0  0  0  0
M  END
> <PUBCHEM_COMPOUND_CID>
13496

> <PUBCHEM_COMPOUND_CANONICALIZED>
1

> <PUBCHEM_CACTVS_COMPLEXITY>
225

> <PUBCHEM_CACTVS_HBOND_ACCEPTOR>
3

> <PUBCHEM_CACTVS_HBOND_DONOR>
0

> <PUBCHEM_CACTVS_ROTATABLE_BOND>
6

> <PUBCHEM_CACTVS_SUBSKEYS>
AAADceBzIAAAAAAAAAAAAAAAAAAAAWAAAAAwAAAAAAAAAAABwAAAHgAEAAAADAzBngQyhJMQAACpA6RyQgCCAAAkIgAomCE+bNoIJjqA1ZOEMYBmwBmIyceY2eKOAAAAAAAAAAAAAAAAAAAAAAAAAAAAAA==

> <PUBCHEM_IUPAC_OPENEYE_NAME>
N,N-diethyl-2-(5-phenylisoxazol-3-yl)ethanamine

> <PUBCHEM_IUPAC_CAS_NAME>
N,N-diethyl-2-(5-phenyl-3-isoxazolyl)ethanamine

> <PUBCHEM_IUPAC_NAME>
N,N-diethyl-2-(5-phenyl-1,2-oxazol-3-yl)ethanamine

> <PUBCHEM_IUPAC_SYSTEMATIC_NAME>
N,N-diethyl-2-(5-phenyl-1,2-oxazol-3-yl)ethanamine

> <PUBCHEM_IUPAC_TRADITIONAL_NAME>
diethyl-[2-(5-phenylisoxazol-3-yl)ethyl]amine

> <PUBCHEM_IUPAC_INCHI>
InChI=1S/C15H20N2O/c1-3-17(4-2)11-10-14-12-15(18-16-14)13-8-6-5-7-9-13/h5-9,12H,3-4,10-11H2,1-2H3

> <PUBCHEM_IUPAC_INCHIKEY>
FXWABYHVQXKERR-UHFFFAOYSA-N

> <PUBCHEM_XLOGP3_AA>
3.1

> <PUBCHEM_EXACT_MASS>
244.157563

> <PUBCHEM_MOLECULAR_FORMULA>
C15H20N2O

> <PUBCHEM_MOLECULAR_WEIGHT>
244.3321

> <PUBCHEM_OPENEYE_CAN_SMILES>
CCN(CC)CCC1=NOC(=C1)C2=CC=CC=C2

> <PUBCHEM_OPENEYE_ISO_SMILES>
CCN(CC)CCC1=NOC(=C1)C2=CC=CC=C2

> <PUBCHEM_CACTVS_TPSA>
29.3

> <PUBCHEM_MONOISOTOPIC_WEIGHT>
244.157563

> <PUBCHEM_TOTAL_CHARGE>
0

> <PUBCHEM_HEAVY_ATOM_COUNT>
18

> <PUBCHEM_ATOM_DEF_STEREO_COUNT>
0

> <PUBCHEM_ATOM_UDEF_STEREO_COUNT>
0

> <PUBCHEM_BOND_DEF_STEREO_COUNT>
0

> <PUBCHEM_BOND_UDEF_STEREO_COUNT>
0

> <PUBCHEM_ISOTOPIC_ATOM_COUNT>
0

> <PUBCHEM_COMPONENT_COUNT>
1

> <PUBCHEM_CACTVS_TAUTO_COUNT>
1

> <PUBCHEM_COORDINATE_TYPE>
1
5
255

> <PUBCHEM_BONDANNOTATIONS>
1  12  8
1  3  8
11  12  8
13  14  8
13  15  8
14  16  8
15  17  8
16  18  8
17  18  8
3  8  8
8  11  8

$$$$

