193898
  -OEChem-07051213022D

 62 62  0     1  0  0  0  0  0999 V2000
    5.0000   -2.7626    0.0000 O   0  0  0  0  0  0  0  0  0  0  0  0
    6.5000    1.5675    0.0000 O   0  0  0  0  0  0  0  0  0  0  0  0
    6.5000   -1.8966    0.0000 O   0  0  0  0  0  0  0  0  0  0  0  0
    5.4397    1.2255    0.0000 O   0  0  0  0  0  0  0  0  0  0  0  0
    2.0000    0.7015    0.0000 O   0  0  0  0  0  0  0  0  0  0  0  0
    5.0000    0.7015    0.0000 O   0  0  0  0  0  0  0  0  0  0  0  0
    3.5000   -1.8966    0.0000 C   0  0  2  0  0  0  0  0  0  0  0  0
    4.5000   -1.8966    0.0000 C   0  0  1  0  0  0  0  0  0  0  0  0
    5.0000   -1.0306    0.0000 C   0  0  2  0  0  0  0  0  0  0  0  0
    3.0000   -1.0306    0.0000 C   0  0  0  0  0  0  0  0  0  0  0  0
    3.5000   -0.1645    0.0000 C   0  0  2  0  0  0  0  0  0  0  0  0
    6.0000   -1.0306    0.0000 C   0  0  1  0  0  0  0  0  0  0  0  0
    3.5000    1.5675    0.0000 C   0  0  2  0  0  0  0  0  0  0  0  0
    4.5000    1.5675    0.0000 C   0  0  2  0  0  0  0  0  0  0  0  0
    5.0000    2.4335    0.0000 C   0  0  2  0  0  0  0  0  0  0  0  0
    6.5000   -0.1645    0.0000 C   0  0  2  0  0  0  0  0  0  0  0  0
    3.0000    0.7015    0.0000 C   0  0  0  0  0  0  0  0  0  0  0  0
    6.0000    2.4335    0.0000 C   0  0  1  0  0  0  0  0  0  0  0  0
    3.0000   -2.7626    0.0000 C   0  0  0  0  0  0  0  0  0  0  0  0
    4.5000   -0.1645    0.0000 C   0  0  0  0  0  0  0  0  0  0  0  0
    4.0000   -1.0306    0.0000 C   0  0  0  0  0  0  0  0  0  0  0  0
    3.0000    2.4335    0.0000 C   0  0  0  0  0  0  0  0  0  0  0  0
    6.0000    0.7015    0.0000 C   0  0  0  0  0  0  0  0  0  0  0  0
    4.5000    3.2996    0.0000 C   0  0  0  0  0  0  0  0  0  0  0  0
    7.5000   -0.1645    0.0000 C   0  0  0  0  0  0  0  0  0  0  0  0
    6.5000    3.2996    0.0000 C   0  0  0  0  0  0  0  0  0  0  0  0
    3.8100   -2.4335    0.0000 H   0  0  0  0  0  0  0  0  0  0  0  0
    4.1900   -2.4335    0.0000 H   0  0  0  0  0  0  0  0  0  0  0  0
    4.3800   -1.0306    0.0000 H   0  0  0  0  0  0  0  0  0  0  0  0
    2.5250   -0.6320    0.0000 H   0  0  0  0  0  0  0  0  0  0  0  0
    2.5250   -1.4291    0.0000 H   0  0  0  0  0  0  0  0  0  0  0  0
    4.0369    0.1455    0.0000 H   0  0  0  0  0  0  0  0  0  0  0  0
    5.6900   -1.5675    0.0000 H   0  0  0  0  0  0  0  0  0  0  0  0
    3.8100    2.1044    0.0000 H   0  0  0  0  0  0  0  0  0  0  0  0
    4.3923    0.9569    0.0000 H   0  0  0  0  0  0  0  0  0  0  0  0
    4.3800    2.4335    0.0000 H   0  0  0  0  0  0  0  0  0  0  0  0
    6.8100    0.3724    0.0000 H   0  0  0  0  0  0  0  0  0  0  0  0
    6.6200    2.4335    0.0000 H   0  0  0  0  0  0  0  0  0  0  0  0
    2.4631   -2.4526    0.0000 H   0  0  0  0  0  0  0  0  0  0  0  0
    2.6900   -3.2996    0.0000 H   0  0  0  0  0  0  0  0  0  0  0  0
    3.5369   -3.0726    0.0000 H   0  0  0  0  0  0  0  0  0  0  0  0
    5.0369    0.1455    0.0000 H   0  0  0  0  0  0  0  0  0  0  0  0
    4.1900    0.3724    0.0000 H   0  0  0  0  0  0  0  0  0  0  0  0
    3.9631   -0.4745    0.0000 H   0  0  0  0  0  0  0  0  0  0  0  0
    3.4631   -1.3406    0.0000 H   0  0  0  0  0  0  0  0  0  0  0  0
    4.3100   -1.5675    0.0000 H   0  0  0  0  0  0  0  0  0  0  0  0
    4.5369   -0.7206    0.0000 H   0  0  0  0  0  0  0  0  0  0  0  0
    3.5369    2.7435    0.0000 H   0  0  0  0  0  0  0  0  0  0  0  0
    2.6900    2.9705    0.0000 H   0  0  0  0  0  0  0  0  0  0  0  0
    2.4631    2.1235    0.0000 H   0  0  0  0  0  0  0  0  0  0  0  0
    5.0369    3.6096    0.0000 H   0  0  0  0  0  0  0  0  0  0  0  0
    4.1900    3.8365    0.0000 H   0  0  0  0  0  0  0  0  0  0  0  0
    3.9631    2.9896    0.0000 H   0  0  0  0  0  0  0  0  0  0  0  0
    4.6900   -3.2996    0.0000 H   0  0  0  0  0  0  0  0  0  0  0  0
    7.5000   -0.7845    0.0000 H   0  0  0  0  0  0  0  0  0  0  0  0
    8.1200   -0.1645    0.0000 H   0  0  0  0  0  0  0  0  0  0  0  0
    7.5000    0.4555    0.0000 H   0  0  0  0  0  0  0  0  0  0  0  0
    7.0369    2.9896    0.0000 H   0  0  0  0  0  0  0  0  0  0  0  0
    6.8100    3.8365    0.0000 H   0  0  0  0  0  0  0  0  0  0  0  0
    5.9631    3.6096    0.0000 H   0  0  0  0  0  0  0  0  0  0  0  0
    7.1200   -1.8966    0.0000 H   0  0  0  0  0  0  0  0  0  0  0  0
    5.6518    1.8081    0.0000 H   0  0  0  0  0  0  0  0  0  0  0  0
  8  1  1  1  0  0  0
  1 54  1  0  0  0  0
  2 18  1  0  0  0  0
  2 23  1  0  0  0  0
 12  3  1  1  0  0  0
  3 61  1  0  0  0  0
 14  4  1  6  0  0  0
  4 62  1  0  0  0  0
  5 17  2  0  0  0  0
  6 23  2  0  0  0  0
  7  8  1  0  0  0  0
  7 10  1  0  0  0  0
  7 19  1  1  0  0  0
  7 27  1  0  0  0  0
  8  9  1  0  0  0  0
  8 28  1  0  0  0  0
  9 12  1  0  0  0  0
  9 20  1  1  0  0  0
  9 29  1  0  0  0  0
 10 11  1  0  0  0  0
 10 30  1  0  0  0  0
 10 31  1  0  0  0  0
 11 17  1  0  0  0  0
 11 21  1  6  0  0  0
 11 32  1  0  0  0  0
 12 16  1  0  0  0  0
 12 33  1  0  0  0  0
 13 14  1  0  0  0  0
 13 17  1  0  0  0  0
 13 22  1  6  0  0  0
 13 34  1  0  0  0  0
 14 15  1  0  0  0  0
 14 35  1  0  0  0  0
 15 18  1  0  0  0  0
 15 24  1  1  0  0  0
 15 36  1  0  0  0  0
 16 23  1  0  0  0  0
 16 25  1  6  0  0  0
 16 37  1  0  0  0  0
 18 26  1  1  0  0  0
 18 38  1  0  0  0  0
 19 39  1  0  0  0  0
 19 40  1  0  0  0  0
 19 41  1  0  0  0  0
 20 42  1  0  0  0  0
 20 43  1  0  0  0  0
 20 44  1  0  0  0  0
 21 45  1  0  0  0  0
 21 46  1  0  0  0  0
 21 47  1  0  0  0  0
 22 48  1  0  0  0  0
 22 49  1  0  0  0  0
 22 50  1  0  0  0  0
 24 51  1  0  0  0  0
 24 52  1  0  0  0  0
 24 53  1  0  0  0  0
 25 55  1  0  0  0  0
 25 56  1  0  0  0  0
 25 57  1  0  0  0  0
 26 58  1  0  0  0  0
 26 59  1  0  0  0  0
 26 60  1  0  0  0  0
M  END
> <PUBCHEM_COMPOUND_CID>
193898

> <PUBCHEM_COMPOUND_CANONICALIZED>
1

> <PUBCHEM_CACTVS_COMPLEXITY>
493

> <PUBCHEM_CACTVS_HBOND_ACCEPTOR>
6

> <PUBCHEM_CACTVS_HBOND_DONOR>
3

> <PUBCHEM_CACTVS_ROTATABLE_BOND>
0

> <PUBCHEM_CACTVS_SUBSKEYS>
AAADcfB4OAAAAAAAAAAAAAAAAAAAAAAAAAAAAAAAAAAAAAAAAAAAGgAACAAADRSggAICCAAABgAIAICQCAAAAAAAAAAAAAEAAAAAEBYAAAACQAAFIAAAAAGI7OzOAAAAAAAAAAAAAAAAAAAAAAAAAAAAAA==

> <PUBCHEM_IUPAC_OPENEYE_NAME>
(3R,4S,5R,6S,7S,9R,11R,12S,13R,14R)-4,6,12-trihydroxy-3,5,7,9,11,13,14-heptamethyl-oxacyclotetradecane-2,10-dione

> <PUBCHEM_IUPAC_CAS_NAME>
(3R,4S,5R,6S,7S,9R,11R,12S,13R,14R)-4,6,12-trihydroxy-3,5,7,9,11,13,14-heptamethyl-oxacyclotetradecane-2,10-dione

> <PUBCHEM_IUPAC_NAME>
(3R,4S,5R,6S,7S,9R,11R,12S,13R,14R)-4,6,12-trihydroxy-3,5,7,9,11,13,14-heptamethyl-oxacyclotetradecane-2,10-dione

> <PUBCHEM_IUPAC_SYSTEMATIC_NAME>
(3R,4S,5R,6S,7S,9R,11R,12S,13R,14R)-3,5,7,9,11,13,14-heptamethyl-4,6,12-tris(oxidanyl)-1-oxacyclotetradecane-2,10-dione

> <PUBCHEM_IUPAC_TRADITIONAL_NAME>
(3R,4S,5R,6S,7S,9R,11R,12S,13R,14R)-4,6,12-trihydroxy-3,5,7,9,11,13,14-heptamethyl-oxacyclotetradecane-2,10-quinone

> <PUBCHEM_IUPAC_INCHI>
InChI=1S/C20H36O6/c1-9-8-10(2)17(22)13(5)19(24)14(6)20(25)26-15(7)11(3)18(23)12(4)16(9)21/h9-15,17-19,22-24H,8H2,1-7H3/t9-,10+,11+,12+,13-,14-,15-,17+,18+,19+/m1/s1

> <PUBCHEM_IUPAC_INCHIKEY>
OLPAVFVRSHWADO-KYEFFAPUSA-N

> <PUBCHEM_XLOGP3_AA>
2.5

> <PUBCHEM_EXACT_MASS>
372.251189

> <PUBCHEM_MOLECULAR_FORMULA>
C20H36O6

> <PUBCHEM_MOLECULAR_WEIGHT>
372.49624

> <PUBCHEM_OPENEYE_CAN_SMILES>
CC1CC(C(=O)C(C(C(C(OC(=O)C(C(C(C1O)C)O)C)C)C)O)C)C

> <PUBCHEM_OPENEYE_ISO_SMILES>
C[C@H]1C[C@H](C(=O)[C@@H]([C@H]([C@H]([C@H](OC(=O)[C@@H]([C@H]([C@@H]([C@H]1O)C)O)C)C)C)O)C)C

> <PUBCHEM_CACTVS_TPSA>
104

> <PUBCHEM_MONOISOTOPIC_WEIGHT>
372.251189

> <PUBCHEM_TOTAL_CHARGE>
0

> <PUBCHEM_HEAVY_ATOM_COUNT>
26

> <PUBCHEM_ATOM_DEF_STEREO_COUNT>
10

> <PUBCHEM_ATOM_UDEF_STEREO_COUNT>
0

> <PUBCHEM_BOND_DEF_STEREO_COUNT>
0

> <PUBCHEM_BOND_UDEF_STEREO_COUNT>
0

> <PUBCHEM_ISOTOPIC_ATOM_COUNT>
0

> <PUBCHEM_COMPONENT_COUNT>
1

> <PUBCHEM_CACTVS_TAUTO_COUNT>
6

> <PUBCHEM_COORDINATE_TYPE>
1
5
255

> <PUBCHEM_BONDANNOTATIONS>
8  1  5
11  21  6
13  22  6
15  24  5
16  25  6
18  26  5
12  3  5
14  4  6
7  19  5
9  20  5

$$$$

