   Color/Form
        White crystals or white crystalline powder
   from [1]HSDB

   Odor
        Phenolic odor
   from [2]HSDB

   Boiling Point
        Approx 267 deg C
   from [3]HSDB

   Melting Point
        73-75 deg C
   from [4]HSDB

   Density/Specific Gravity
        1.034 @ 20 deg C
   from [5]HSDB

   Dissociation Constants

     * pKa 5.017; Ka 1.21X10-6 at 20 deg C
     * pKa1= 5.017; pKa2= 9.812

   from [6]HSDB

   Octanol/Water Partition Coefficient
        log Kow = 2.02
   from [7]HSDB

   Solubilities

     * Soluble in alcohol, acetone, chloroform, benzene, and in formic,
       acetic, hydrochloric, and sulfuric acids and alkalies.
     * 1 part in 1500 parts water
     * In water, 556 mg/l @ 20 deg C

   from [8]HSDB

   Spectral Properties

     * SADTLER REF NUMBER: 187 (IR, PRISM); 63 (IR, GRATING); MAX
       ABSORPTION (ALCOHOL): 240 NM (LOG E= 4.60); 308 NM (LOG E= 3.47)
     * Intense mass spectral peaks: 145 m/z (100%), 117 m/z (78%), 90 m/z
       (30%), 89 m/z (29%)
     * IR: 5568 (Coblentz Society Spectral Collection)
     * UV: 76 (Sadtler Research Laboratories Spectral Collection)
     * 1H NMR: 24 (Sadtler Research Laboratories Spectral Collection)
     * MASS: 65043 (NIST/MSDC/EPA Mass Spectral Database, 1990 version)

   from [9]HSDB

   Vapor Pressure
        1.66X10-3 mm Hg @ 25 deg C
   from [10]HSDB

   Other Chemical/Physical Properties

     * Readily forms stable metal chelates
     * Usually tan /Technical grade/
     * Pale yellow, crystalline powder; slight saffron odor; burning
       taste; MP: 175-178 deg C; freely sol in water; insol in ether; sol
       in about 100 parts glycerol; slightly sol in alcohol
       /8-Hydroxyquinoline sulfate/
     * Darkens when exposed to light

   from [11]HSDB

   Computed Properties
   Molecular Weight                  145.15798 [g/mol]
   Molecular Formula                 C[9]H[7]NO
   XLogP3                            2
   H-Bond Donor                      1
   H-Bond Acceptor                   2
   Rotatable Bond Count              0
   Tautomer Count                    2
   Exact Mass                        145.052764
   MonoIsotopic Mass                 145.052764
   Topological Polar Surface Area    33.1
   Heavy Atom Count                  11
   Formal Charge                     0
   Complexity                        138
   Isotope Atom Count                0
   Defined Atom Stereocenter Count   0
   Undefined Atom Stereocenter Count 0
   Defined Bond Stereocenter Count   0
   Undefined Bond Stereocenter Count 0
   Covalently-Bonded Unit Count      1
   Feature 3D Acceptor Count         1
   Feature 3D Donor Count            1
   Feature 3D Ring Count             2
   Effective Rotor Count             0
   Conformer Sampling RMSD           0.4
   CID Conformer Count               [12]1

References

   1. http://toxnet.nlm.nih.gov/cgi-bin/sis/search/r?dbs+hsdb:@term+@rn+@rel+148-24-3
   2. http://toxnet.nlm.nih.gov/cgi-bin/sis/search/r?dbs+hsdb:@term+@rn+@rel+148-24-3
   3. http://toxnet.nlm.nih.gov/cgi-bin/sis/search/r?dbs+hsdb:@term+@rn+@rel+148-24-3
   4. http://toxnet.nlm.nih.gov/cgi-bin/sis/search/r?dbs+hsdb:@term+@rn+@rel+148-24-3
   5. http://toxnet.nlm.nih.gov/cgi-bin/sis/search/r?dbs+hsdb:@term+@rn+@rel+148-24-3
   6. http://toxnet.nlm.nih.gov/cgi-bin/sis/search/r?dbs+hsdb:@term+@rn+@rel+148-24-3
   7. http://toxnet.nlm.nih.gov/cgi-bin/sis/search/r?dbs+hsdb:@term+@rn+@rel+148-24-3
   8. http://toxnet.nlm.nih.gov/cgi-bin/sis/search/r?dbs+hsdb:@term+@rn+@rel+148-24-3
   9. http://toxnet.nlm.nih.gov/cgi-bin/sis/search/r?dbs+hsdb:@term+@rn+@rel+148-24-3
  10. http://toxnet.nlm.nih.gov/cgi-bin/sis/search/r?dbs+hsdb:@term+@rn+@rel+148-24-3
  11. http://toxnet.nlm.nih.gov/cgi-bin/sis/search/r?dbs+hsdb:@term+@rn+@rel+148-24-3
  12. http://pubchem.ncbi.nlm.nih.gov/vw3d/vw3d.cgi?cid=1923
