   Color/Form
        White to light brown crystals.
   from [1]HSDB

   Melting Point
        155 deg C (decomposes)
   from [2]HSDB

   Density/Specific Gravity
        1554 kg/cu m at 20 deg C
   from [3]HSDB

   Dissociation Constants
        pKa = 10.6
   from [4]HSDB

   Octanol/Water Partition Coefficient
        log Kow = 2.20
   from [5]HSDB

   Solubilities

     * Readily soluble in dimethylformamide (330 g/L), dimethyl sulfoxide
       and N-methylpyrrolidone (476 g/L). Soluble in tetrahydrofuran.
       Slightly soluble in acetone (11 g/L), dichloromethane (1 g/L),
       methanol (10 g/L), dioxane, and cyclohexanone. Insoluble in
       benzene, petroleum ether and cyclohexane.
     * Soluble in CMF, DMSO, N-methylpyrrolidine; moderately soluble in
       tetrahydrofuran; Insolubgle in acetone, benzene, carbon
       tetrachloride, chloroform, methylene chloride, and petroleum ether.
     * In water, 30 mg/L at 25 deg C.

   from [6]HSDB

   Vapor Pressure
        2.00X10-7 mm Hg at 25 deg C.
   from [7]HSDB

   Other Chemical/Physical Properties

     * Stable at less than or equal to 180 deg C. Decomposed in aqueous
       solution exposed to UV or daylight. Decomposed in strongly acidic
       media (to trichloroacetaldehyde and piperazine salts) and in
       strongly alkaline media (to chloroform and piperazine); half-life
       of 3.5 days at pH 5 to 7 , 25 deg C.
     * Henry's Law constant = 3.8X10-9 atm-cu m/mole @ 25 deg C
       /Estimated/
     * Hydroxyl radical reaction rate constant = 6.6X10-11 cu
       cm/molecule-sec @ 25 deg C /Estimated/

   from [8]HSDB

   Computed Properties
   Molecular Weight                  434.96176 [g/mol]
   Molecular Formula                 C[10]H[14]Cl[6]N[4]O[2]
   XLogP3-AA                         2.8
   H-Bond Donor                      2
   H-Bond Acceptor                   4
   Rotatable Bond Count              4
   Tautomer Count                    3
   Exact Mass                        433.921842
   MonoIsotopic Mass                 431.924792
   Topological Polar Surface Area    64.7
   Heavy Atom Count                  22
   Formal Charge                     0
   Complexity                        345
   Isotope Atom Count                0
   Defined Atom Stereocenter Count   0
   Undefined Atom Stereocenter Count 2
   Defined Bond Stereocenter Count   0
   Undefined Bond Stereocenter Count 0
   Covalently-Bonded Unit Count      1
   Feature 3D Acceptor Count         2
   Feature 3D Donor Count            2
   Feature 3D Cation Count           2
   Feature 3D Ring Count             1
   Effective Rotor Count             9.2
   Conformer Sampling RMSD           0.8
   CID Conformer Count               [9]12

References

   1. http://toxnet.nlm.nih.gov/cgi-bin/sis/search/r?dbs+hsdb:@term+@rn+@rel+26644-46-2
   2. http://toxnet.nlm.nih.gov/cgi-bin/sis/search/r?dbs+hsdb:@term+@rn+@rel+26644-46-2
   3. http://toxnet.nlm.nih.gov/cgi-bin/sis/search/r?dbs+hsdb:@term+@rn+@rel+26644-46-2
   4. http://toxnet.nlm.nih.gov/cgi-bin/sis/search/r?dbs+hsdb:@term+@rn+@rel+26644-46-2
   5. http://toxnet.nlm.nih.gov/cgi-bin/sis/search/r?dbs+hsdb:@term+@rn+@rel+26644-46-2
   6. http://toxnet.nlm.nih.gov/cgi-bin/sis/search/r?dbs+hsdb:@term+@rn+@rel+26644-46-2
   7. http://toxnet.nlm.nih.gov/cgi-bin/sis/search/r?dbs+hsdb:@term+@rn+@rel+26644-46-2
   8. http://toxnet.nlm.nih.gov/cgi-bin/sis/search/r?dbs+hsdb:@term+@rn+@rel+26644-46-2
   9. http://pubchem.ncbi.nlm.nih.gov/vw3d/vw3d.cgi?cid=33565
