   Color/Form
        Red-orange liquid
   from [1]HSDB

   Corrosivity
        Non-corrosive
   from [2]HSDB

   Solubilities

     * In water at 25 deg C, 0.1 mg/l. In acetone, hexane, benzene,
       chloroform, diethyl ether, acetonitrile, and methanol, all > 1 kg/l
       at 25 deg C.
     * Readily soluble in organic solvents

   from [3]HSDB

   Vapor Pressure
        1.9 mPa at 30 deg C
   from [4]HSDB

   Other Chemical/Physical Properties
        Decomposed by UV light.
   from [5]HSDB

   Computed Properties
   Molecular Weight                  309.36082 [g/mol]
   Molecular Formula                 C[15]H[23]N[3]O[4]
   XLogP3                            5.6
   H-Bond Donor                      0
   H-Bond Acceptor                   5
   Rotatable Bond Count              6
   Exact Mass                        309.168856
   MonoIsotopic Mass                 309.168856
   Topological Polar Surface Area    94.9
   Heavy Atom Count                  22
   Formal Charge                     0
   Complexity                        348
   Isotope Atom Count                0
   Defined Atom Stereocenter Count   0
   Undefined Atom Stereocenter Count 0
   Defined Bond Stereocenter Count   0
   Undefined Bond Stereocenter Count 0
   Covalently-Bonded Unit Count      1
   Feature 3D Acceptor Count         4
   Feature 3D Anion Count            2
   Feature 3D Cation Count           1
   Feature 3D Hydrophobe Count       3
   Feature 3D Ring Count             1
   Effective Rotor Count             8
   Conformer Sampling RMSD           0.8
   CID Conformer Count               [6]8

References

   1. http://toxnet.nlm.nih.gov/cgi-bin/sis/search/r?dbs+hsdb:@term+@rn+@rel+33820-53-0
   2. http://toxnet.nlm.nih.gov/cgi-bin/sis/search/r?dbs+hsdb:@term+@rn+@rel+33820-53-0
   3. http://toxnet.nlm.nih.gov/cgi-bin/sis/search/r?dbs+hsdb:@term+@rn+@rel+33820-53-0
   4. http://toxnet.nlm.nih.gov/cgi-bin/sis/search/r?dbs+hsdb:@term+@rn+@rel+33820-53-0
   5. http://toxnet.nlm.nih.gov/cgi-bin/sis/search/r?dbs+hsdb:@term+@rn+@rel+33820-53-0
   6. http://pubchem.ncbi.nlm.nih.gov/vw3d/vw3d.cgi?cid=36606
