14177
  -OEChem-06241222422D

 48 50  0     1  0  0  0  0  0999 V2000
    2.0000   -3.4641    0.0000 F   0  0  0  0  0  0  0  0  0  0  0  0
    3.5000    0.8660    0.0000 O   0  0  0  0  0  0  0  0  0  0  0  0
    7.0000    1.7320    0.0000 N   0  0  3  0  0  0  0  0  0  0  0  0
    8.5000    2.5981    0.0000 C   0  0  0  0  0  0  0  0  0  0  0  0
    9.0878    3.4071    0.0000 C   0  0  0  0  0  0  0  0  0  0  0  0
    9.0878    1.7891    0.0000 C   0  0  0  0  0  0  0  0  0  0  0  0
    8.0000    3.4641    0.0000 C   0  0  0  0  0  0  0  0  0  0  0  0
    8.0000    1.7320    0.0000 C   0  0  0  0  0  0  0  0  0  0  0  0
   10.0388    3.0981    0.0000 C   0  0  0  0  0  0  0  0  0  0  0  0
   10.0388    2.0981    0.0000 C   0  0  0  0  0  0  0  0  0  0  0  0
    7.0000    3.4641    0.0000 C   0  0  0  0  0  0  0  0  0  0  0  0
    6.5000    2.5981    0.0000 C   0  0  0  0  0  0  0  0  0  0  0  0
    6.5000    0.8660    0.0000 C   0  0  0  0  0  0  0  0  0  0  0  0
    5.5000    0.8660    0.0000 C   0  0  0  0  0  0  0  0  0  0  0  0
    5.0000    0.0000    0.0000 C   0  0  0  0  0  0  0  0  0  0  0  0
    4.0000    0.0000    0.0000 C   0  0  0  0  0  0  0  0  0  0  0  0
    3.5000   -0.8660    0.0000 C   0  0  0  0  0  0  0  0  0  0  0  0
    2.5000   -0.8660    0.0000 C   0  0  0  0  0  0  0  0  0  0  0  0
    4.0000   -1.7320    0.0000 C   0  0  0  0  0  0  0  0  0  0  0  0
    2.0000   -1.7320    0.0000 C   0  0  0  0  0  0  0  0  0  0  0  0
    3.5000   -2.5981    0.0000 C   0  0  0  0  0  0  0  0  0  0  0  0
    2.5000   -2.5981    0.0000 C   0  0  0  0  0  0  0  0  0  0  0  0
    8.5508    1.4791    0.0000 H   0  0  0  0  0  0  0  0  0  0  0  0
    9.3400    1.2227    0.0000 H   0  0  0  0  0  0  0  0  0  0  0  0
    9.3400    3.9735    0.0000 H   0  0  0  0  0  0  0  0  0  0  0  0
    8.5508    3.7171    0.0000 H   0  0  0  0  0  0  0  0  0  0  0  0
    8.5826    3.6762    0.0000 H   0  0  0  0  0  0  0  0  0  0  0  0
    7.8923    4.0747    0.0000 H   0  0  0  0  0  0  0  0  0  0  0  0
    7.8923    1.1215    0.0000 H   0  0  0  0  0  0  0  0  0  0  0  0
    8.5826    1.5200    0.0000 H   0  0  0  0  0  0  0  0  0  0  0  0
   10.1677    1.4916    0.0000 H   0  0  0  0  0  0  0  0  0  0  0  0
   10.6554    2.1629    0.0000 H   0  0  0  0  0  0  0  0  0  0  0  0
   10.6554    3.0333    0.0000 H   0  0  0  0  0  0  0  0  0  0  0  0
   10.1677    3.7045    0.0000 H   0  0  0  0  0  0  0  0  0  0  0  0
    7.1077    4.0747    0.0000 H   0  0  0  0  0  0  0  0  0  0  0  0
    6.4174    3.6762    0.0000 H   0  0  0  0  0  0  0  0  0  0  0  0
    6.0250    2.9966    0.0000 H   0  0  0  0  0  0  0  0  0  0  0  0
    6.0250    2.1996    0.0000 H   0  0  0  0  0  0  0  0  0  0  0  0
    6.3923    0.2554    0.0000 H   0  0  0  0  0  0  0  0  0  0  0  0
    7.0826    0.6540    0.0000 H   0  0  0  0  0  0  0  0  0  0  0  0
    5.6077    1.4766    0.0000 H   0  0  0  0  0  0  0  0  0  0  0  0
    4.9174    1.0781    0.0000 H   0  0  0  0  0  0  0  0  0  0  0  0
    4.8923   -0.6106    0.0000 H   0  0  0  0  0  0  0  0  0  0  0  0
    5.5826   -0.2121    0.0000 H   0  0  0  0  0  0  0  0  0  0  0  0
    2.1900   -0.3291    0.0000 H   0  0  0  0  0  0  0  0  0  0  0  0
    4.6200   -1.7320    0.0000 H   0  0  0  0  0  0  0  0  0  0  0  0
    1.3800   -1.7320    0.0000 H   0  0  0  0  0  0  0  0  0  0  0  0
    3.8100   -3.1350    0.0000 H   0  0  0  0  0  0  0  0  0  0  0  0
  1 22  1  0  0  0  0
  2 16  2  0  0  0  0
  3  8  1  0  0  0  0
  3 12  1  0  0  0  0
  3 13  1  0  0  0  0
  4  5  1  0  0  0  0
  4  6  1  0  0  0  0
  4  7  1  0  0  0  0
  4  8  1  0  0  0  0
  5  9  1  0  0  0  0
  5 25  1  0  0  0  0
  5 26  1  0  0  0  0
  6 10  1  0  0  0  0
  6 23  1  0  0  0  0
  6 24  1  0  0  0  0
  7 11  1  0  0  0  0
  7 27  1  0  0  0  0
  7 28  1  0  0  0  0
  8 29  1  0  0  0  0
  8 30  1  0  0  0  0
  9 10  1  0  0  0  0
  9 33  1  0  0  0  0
  9 34  1  0  0  0  0
 10 31  1  0  0  0  0
 10 32  1  0  0  0  0
 11 12  1  0  0  0  0
 11 35  1  0  0  0  0
 11 36  1  0  0  0  0
 12 37  1  0  0  0  0
 12 38  1  0  0  0  0
 13 14  1  0  0  0  0
 13 39  1  0  0  0  0
 13 40  1  0  0  0  0
 14 15  1  0  0  0  0
 14 41  1  0  0  0  0
 14 42  1  0  0  0  0
 15 16  1  0  0  0  0
 15 43  1  0  0  0  0
 15 44  1  0  0  0  0
 16 17  1  0  0  0  0
 17 18  2  0  0  0  0
 17 19  1  0  0  0  0
 18 20  1  0  0  0  0
 18 45  1  0  0  0  0
 19 21  2  0  0  0  0
 19 46  1  0  0  0  0
 20 22  2  0  0  0  0
 20 47  1  0  0  0  0
 21 22  1  0  0  0  0
 21 48  1  0  0  0  0
M  END
> <PUBCHEM_COMPOUND_CID>
14177

> <PUBCHEM_COMPOUND_CANONICALIZED>
1

> <PUBCHEM_CACTVS_COMPLEXITY>
370

> <PUBCHEM_CACTVS_HBOND_ACCEPTOR>
3

> <PUBCHEM_CACTVS_HBOND_DONOR>
0

> <PUBCHEM_CACTVS_ROTATABLE_BOND>
5

> <PUBCHEM_CACTVS_SUBSKEYS>
AAADceB6IQAAAAAAAAAAAAAAAAAAAYAAAAA8QAAAAAAAAAABAAAAHwAAAAAADgTBmAwwAIMAAACIAqBSAAACAAAkAAAIiAEIAMgIIDKAlRCEIQAggACIiYcciICPAAAAAAAAAAAAAAAAAAAAAAAAAAAAAA==

> <PUBCHEM_IUPAC_OPENEYE_NAME>
4-(7-azaspiro[4.5]decan-7-yl)-1-(4-fluorophenyl)butan-1-one

> <PUBCHEM_IUPAC_CAS_NAME>
4-(7-azaspiro[4.5]decan-7-yl)-1-(4-fluorophenyl)-1-butanone

> <PUBCHEM_IUPAC_NAME>
4-(7-azaspiro[4.5]decan-7-yl)-1-(4-fluorophenyl)butan-1-one

> <PUBCHEM_IUPAC_SYSTEMATIC_NAME>
4-(7-azaspiro[4.5]decan-7-yl)-1-(4-fluorophenyl)butan-1-one

> <PUBCHEM_IUPAC_TRADITIONAL_NAME>
4-(7-azaspiro[4.5]decan-7-yl)-1-(4-fluorophenyl)butan-1-one

> <PUBCHEM_IUPAC_INCHI>
InChI=1S/C19H26FNO/c20-17-8-6-16(7-9-17)18(22)5-3-13-21-14-4-12-19(15-21)10-1-2-11-19/h6-9H,1-5,10-15H2

> <PUBCHEM_IUPAC_INCHIKEY>
IKFCOQHPBSKXFY-UHFFFAOYSA-N

> <PUBCHEM_XLOGP3_AA>
4.2

> <PUBCHEM_EXACT_MASS>
303.199843

> <PUBCHEM_MOLECULAR_FORMULA>
C19H26FNO

> <PUBCHEM_MOLECULAR_WEIGHT>
303.414243

> <PUBCHEM_OPENEYE_CAN_SMILES>
C1CCC2(C1)CCCN(C2)CCCC(=O)C3=CC=C(C=C3)F

> <PUBCHEM_OPENEYE_ISO_SMILES>
C1CCC2(C1)CCCN(C2)CCCC(=O)C3=CC=C(C=C3)F

> <PUBCHEM_CACTVS_TPSA>
20.3

> <PUBCHEM_MONOISOTOPIC_WEIGHT>
303.199843

> <PUBCHEM_TOTAL_CHARGE>
0

> <PUBCHEM_HEAVY_ATOM_COUNT>
22

> <PUBCHEM_ATOM_DEF_STEREO_COUNT>
0

> <PUBCHEM_ATOM_UDEF_STEREO_COUNT>
0

> <PUBCHEM_BOND_DEF_STEREO_COUNT>
0

> <PUBCHEM_BOND_UDEF_STEREO_COUNT>
0

> <PUBCHEM_ISOTOPIC_ATOM_COUNT>
0

> <PUBCHEM_COMPONENT_COUNT>
1

> <PUBCHEM_CACTVS_TAUTO_COUNT>
2

> <PUBCHEM_COORDINATE_TYPE>
1
5
255

> <PUBCHEM_BONDANNOTATIONS>
17  18  8
17  19  8
18  20  8
19  21  8
20  22  8
21  22  8

$$$$

