   Color/Form

     * CLEAR, COLORLESS, OR BLUE MOBILE LIQUID
     * Colorless liquid (unless dyed blue).

   from [1]HSDB

   Odor

     * Ethereal odor
     * Sweet smelling
     * Characteristic odor resembling that of chloroform

   from [2]HSDB

   Boiling Point
        87.2 deg C
   from [3]HSDB

   Melting Point
        -84.7 deg C
   from [4]HSDB

   Corrosivity
        Non-corrosive
   from [5]HSDB

   Critical Temperature and Pressure
        Critical temperature: 300.2 deg C; Critical pressure: 4.986 MPa
   from [6]HSDB

   Density/Specific Gravity
        1.4642 @ 20 deg C/4 deg C
   from [7]HSDB

   Heat of Combustion
        -6.56 kJ/g
   from [8]HSDB

   Heat of Vaporization
        8,314.7 gcal/gmole
   from [9]HSDB

   Octanol/Water Partition Coefficient
        log Kow= 2.61
   from [10]HSDB

   Solubilities

     * Soluble in ethanol, diethyl ether, acetone, and chloroform
     * Miscible in oil.
     * In water, 1,280 mg/l @ 25 deg C

   from [11]HSDB

   Spectral Properties

     * SADTLER REF NUMBER: 185 (IR, PRISM); MAX ABSORPTION: LESS THAN 200
       NM (VAPOR)
     * Index of refraction: 1.4773 @ 20 deg C/D
     * IR: 62 (Sadtler Research Laboratories IR Grating Collection)
     * NMR: 9266 (Sadtler Research Laboratories Spectral Collection)
     * MASS: 583 (Atlas of Mass Spectral Data, John Wiley & Sons, New
       York)
     * Intense mass spectral peaks: 60 m/z, 95 m/z, 130 m/z

   from [12]HSDB

   Surface Tension
        29.3 dynes/cm = 0.0293 N/m at 20 deg C
   from [13]HSDB

   Vapor Density
        4.53 /Air=1/
   from [14]HSDB

   Vapor Pressure
        69 mm Hg @ 25 deg C
   from [15]HSDB

   Viscosity
        0.00550 poise at 25 deg C
   from [16]HSDB

   Other Chemical/Physical Properties

     * Percent in saturated air: 10.2 (25 DEG C); Equivalencies: 1 mg/l=
       185.8 ppm and 1 ppm= 5.38 mg/cu m @ 25 deg C, 760 mm Hg)
     * Ratio of Specific Heats of Vapor (gas) : 1.116
     * Olive oil/water partition coefficient 522:1 at 37 deg C.
     * Liquid heat capacity: 0.231 Btu/lb-F; saturated vapor pressure:
       1.166 lb/sq in; saturated vapor density: 0.02695 lb/cu ft (all at
       70 deg F)
     * Saturated liquid density: 90.770 lb/cu ft; ideal gas heat capacity:
       0.146 Btu/lb-F (All at 75 deg F)
     * Weight per gallon @ 20 deg C: 12.20 lb.
     * Partition coefficients at 37 deg C for trichloroethylene into blood
       = 9.5; into oil = 718. [Sato A, Nakajima T; Scand J Work Environ
       Health 13: 81-93 (1987)] [17]PubMed Abstract
     * Dielectric constant: @ 16 deg C 3.42; coefficient of cubic
       expansion: 0.00119 (at 0-40 deg C); heat of formation: -42.3 kJ/mol
       (liquid), -7.78 kJ/mol (vapor); latent heat of vaporization: 238
       kJ/kg (at boiling point)
     * Henry's Law Constant=9.85X10-3 atm-cu m/mol @ 25 deg C
     * Hydroxyl radical rate constant = 2.36X10-12 cu cm/molecule-sec at
       25 deg C
     * Slowly dec (with formation of HCl) by light in the presence of
       moisture
     * Will not attack the common metals even in the presence of moisture
     * Photo-oxidized in air by sunlight (half-time, five days) giving
       phosgene and dichloroacetyl chloride

   from [18]HSDB

   Computed Properties
   Molecular Weight                  131.38834 [g/mol]
   Molecular Formula                 C[2]HCl[3]
   XLogP3                            2.6
   H-Bond Donor                      0
   H-Bond Acceptor                   0
   Rotatable Bond Count              0
   Exact Mass                        129.914383
   MonoIsotopic Mass                 129.914383
   Topological Polar Surface Area    0
   Heavy Atom Count                  5
   Formal Charge                     0
   Complexity                        42.9
   Isotope Atom Count                0
   Defined Atom Stereocenter Count   0
   Undefined Atom Stereocenter Count 0
   Defined Bond Stereocenter Count   0
   Undefined Bond Stereocenter Count 0
   Covalently-Bonded Unit Count      1
   Effective Rotor Count             0
   Conformer Sampling RMSD           0.4
   CID Conformer Count               [19]1

References

   1. http://toxnet.nlm.nih.gov/cgi-bin/sis/search/r?dbs+hsdb:@term+@rn+@rel+79-01-6
   2. http://toxnet.nlm.nih.gov/cgi-bin/sis/search/r?dbs+hsdb:@term+@rn+@rel+79-01-6
   3. http://toxnet.nlm.nih.gov/cgi-bin/sis/search/r?dbs+hsdb:@term+@rn+@rel+79-01-6
   4. http://toxnet.nlm.nih.gov/cgi-bin/sis/search/r?dbs+hsdb:@term+@rn+@rel+79-01-6
   5. http://toxnet.nlm.nih.gov/cgi-bin/sis/search/r?dbs+hsdb:@term+@rn+@rel+79-01-6
   6. http://toxnet.nlm.nih.gov/cgi-bin/sis/search/r?dbs+hsdb:@term+@rn+@rel+79-01-6
   7. http://toxnet.nlm.nih.gov/cgi-bin/sis/search/r?dbs+hsdb:@term+@rn+@rel+79-01-6
   8. http://toxnet.nlm.nih.gov/cgi-bin/sis/search/r?dbs+hsdb:@term+@rn+@rel+79-01-6
   9. http://toxnet.nlm.nih.gov/cgi-bin/sis/search/r?dbs+hsdb:@term+@rn+@rel+79-01-6
  10. http://toxnet.nlm.nih.gov/cgi-bin/sis/search/r?dbs+hsdb:@term+@rn+@rel+79-01-6
  11. http://toxnet.nlm.nih.gov/cgi-bin/sis/search/r?dbs+hsdb:@term+@rn+@rel+79-01-6
  12. http://toxnet.nlm.nih.gov/cgi-bin/sis/search/r?dbs+hsdb:@term+@rn+@rel+79-01-6
  13. http://toxnet.nlm.nih.gov/cgi-bin/sis/search/r?dbs+hsdb:@term+@rn+@rel+79-01-6
  14. http://toxnet.nlm.nih.gov/cgi-bin/sis/search/r?dbs+hsdb:@term+@rn+@rel+79-01-6
  15. http://toxnet.nlm.nih.gov/cgi-bin/sis/search/r?dbs+hsdb:@term+@rn+@rel+79-01-6
  16. http://toxnet.nlm.nih.gov/cgi-bin/sis/search/r?dbs+hsdb:@term+@rn+@rel+79-01-6
  17. http://www.ncbi.nlm.nih.gov/entrez/query.fcgi?cmd=Retrieve&db=pubmed&dopt=Abstract&list_uids=3299685
  18. http://toxnet.nlm.nih.gov/cgi-bin/sis/search/r?dbs+hsdb:@term+@rn+@rel+79-01-6
  19. http://pubchem.ncbi.nlm.nih.gov/vw3d/vw3d.cgi?cid=6575
