   Color/Form

     * CLEAR, COLORLESS LIQUID
     * Liquid

   from [1]HSDB

   Odor
        FRUITY, ESTERLIKE ODOR
   from [2]HSDB

   Boiling Point
        101 to 102 deg C at 11.3 mm Hg
   from [3]HSDB

   Melting Point
        31-32 DEG C
   from [4]HSDB

   Density/Specific Gravity
        1.118-1.1240 @ 25 DEG C/4 DEG
   from [5]HSDB

   pH
        ABOUT 6 (1 IN 40 SOLN)
   from [6]HSDB

   Solubilities
        SLIGHTLY SOL IN WATER; FREELY SOL IN ALCOHOL, BENZENE, CHLOROFORM,
   ETHER
   from [7]HSDB

   Spectral Properties

     * INDEX OF REFRACTION: 1.449 @ 25 DEG C/D
     * MAX ABSORPTION (ETHANOL): 230 NM (A= 1.8, 1%, 1 CM)
     * IR: 418 (Coblentz Society Spectral Collection)
     * Intense mass spectral peaks: 57 m/z, 129 m/z, 157 m/z

   from [8]HSDB

   Computed Properties
   Molecular Weight                  157.16714 [g/mol]
   Molecular Formula                 C[7]H[11]NO[3]
   XLogP3-AA                         0.8
   H-Bond Donor                      0
   H-Bond Acceptor                   3
   Rotatable Bond Count              1
   Exact Mass                        157.073893
   MonoIsotopic Mass                 157.073893
   Topological Polar Surface Area    46.6
   Heavy Atom Count                  11
   Formal Charge                     0
   Complexity                        214
   Isotope Atom Count                0
   Defined Atom Stereocenter Count   0
   Undefined Atom Stereocenter Count 1
   Defined Bond Stereocenter Count   0
   Undefined Bond Stereocenter Count 0
   Covalently-Bonded Unit Count      1
   Feature 3D Acceptor Count         2
   Feature 3D Hydrophobe Count       1
   Feature 3D Ring Count             1
   Effective Rotor Count             1.6
   Conformer Sampling RMSD           0.4
   CID Conformer Count               [9]6

References

   1. http://toxnet.nlm.nih.gov/cgi-bin/sis/search/r?dbs+hsdb:@term+@rn+@rel+115-67-3
   2. http://toxnet.nlm.nih.gov/cgi-bin/sis/search/r?dbs+hsdb:@term+@rn+@rel+115-67-3
   3. http://toxnet.nlm.nih.gov/cgi-bin/sis/search/r?dbs+hsdb:@term+@rn+@rel+115-67-3
   4. http://toxnet.nlm.nih.gov/cgi-bin/sis/search/r?dbs+hsdb:@term+@rn+@rel+115-67-3
   5. http://toxnet.nlm.nih.gov/cgi-bin/sis/search/r?dbs+hsdb:@term+@rn+@rel+115-67-3
   6. http://toxnet.nlm.nih.gov/cgi-bin/sis/search/r?dbs+hsdb:@term+@rn+@rel+115-67-3
   7. http://toxnet.nlm.nih.gov/cgi-bin/sis/search/r?dbs+hsdb:@term+@rn+@rel+115-67-3
   8. http://toxnet.nlm.nih.gov/cgi-bin/sis/search/r?dbs+hsdb:@term+@rn+@rel+115-67-3
   9. http://pubchem.ncbi.nlm.nih.gov/vw3d/vw3d.cgi?cid=8280
