854104
  -OEChem-06241222472D

 38 40  0     0  0  0  0  0  0999 V2000
    5.2740    2.7846    0.0000 Cl  0  0  0  0  0  0  0  0  0  0  0  0
    5.2619   -1.2846    0.0000 O   0  0  0  0  0  0  0  0  0  0  0  0
    4.3958   -2.7846    0.0000 O   0  0  0  0  0  0  0  0  0  0  0  0
    7.0479    1.7605    0.0000 O   0  0  0  0  0  0  0  0  0  0  0  0
    2.5836    0.0201    0.0000 C   0  0  0  0  0  0  0  0  0  0  0  0
    2.0000   -0.7846    0.0000 C   0  0  0  0  0  0  0  0  0  0  0  0
    3.5298   -0.2846    0.0000 C   0  0  0  0  0  0  0  0  0  0  0  0
    2.5836   -1.5894    0.0000 C   0  0  0  0  0  0  0  0  0  0  0  0
    3.5298   -1.2846    0.0000 C   0  0  0  0  0  0  0  0  0  0  0  0
    4.3958    0.2154    0.0000 C   0  0  0  0  0  0  0  0  0  0  0  0
    5.2619   -0.2846    0.0000 C   0  0  0  0  0  0  0  0  0  0  0  0
    4.3958   -1.7846    0.0000 C   0  0  0  0  0  0  0  0  0  0  0  0
    4.3798    1.2569    0.0000 C   0  0  0  0  0  0  0  0  0  0  0  0
    6.1719    0.2222    0.0000 C   0  0  0  0  0  0  0  0  0  0  0  0
    6.1799    1.2638    0.0000 C   0  0  0  0  0  0  0  0  0  0  0  0
    5.2778    1.7846    0.0000 C   0  0  0  0  0  0  0  0  0  0  0  0
    7.9120    1.2571    0.0000 C   0  0  0  0  0  0  0  0  0  0  0  0
    8.7799    1.7538    0.0000 C   0  0  0  0  0  0  0  0  0  0  0  0
    9.6440    1.2505    0.0000 C   0  0  0  0  0  0  0  0  0  0  0  0
   10.5119    1.7471    0.0000 C   0  0  0  0  0  0  0  0  0  0  0  0
    9.6401    0.2505    0.0000 C   0  0  0  0  0  0  0  0  0  0  0  0
    2.8346    0.5870    0.0000 H   0  0  0  0  0  0  0  0  0  0  0  0
    2.0462    0.3293    0.0000 H   0  0  0  0  0  0  0  0  0  0  0  0
    1.5391   -0.3699    0.0000 H   0  0  0  0  0  0  0  0  0  0  0  0
    1.5391   -1.1994    0.0000 H   0  0  0  0  0  0  0  0  0  0  0  0
    2.0462   -1.8986    0.0000 H   0  0  0  0  0  0  0  0  0  0  0  0
    2.8346   -2.1563    0.0000 H   0  0  0  0  0  0  0  0  0  0  0  0
    3.8393    1.5607    0.0000 H   0  0  0  0  0  0  0  0  0  0  0  0
    6.7052   -0.0940    0.0000 H   0  0  0  0  0  0  0  0  0  0  0  0
    7.5116    0.7837    0.0000 H   0  0  0  0  0  0  0  0  0  0  0  0
    8.3086    0.7807    0.0000 H   0  0  0  0  0  0  0  0  0  0  0  0
    8.7823    2.3738    0.0000 H   0  0  0  0  0  0  0  0  0  0  0  0
    9.0201    0.2529    0.0000 H   0  0  0  0  0  0  0  0  0  0  0  0
    9.6377   -0.3695    0.0000 H   0  0  0  0  0  0  0  0  0  0  0  0
   10.2601    0.2481    0.0000 H   0  0  0  0  0  0  0  0  0  0  0  0
   10.8199    1.2090    0.0000 H   0  0  0  0  0  0  0  0  0  0  0  0
   11.0501    2.0550    0.0000 H   0  0  0  0  0  0  0  0  0  0  0  0
   10.2040    2.2852    0.0000 H   0  0  0  0  0  0  0  0  0  0  0  0
  1 16  1  0  0  0  0
  2 11  1  0  0  0  0
  2 12  1  0  0  0  0
  3 12  2  0  0  0  0
  4 15  1  0  0  0  0
  4 17  1  0  0  0  0
  5  6  1  0  0  0  0
  5  7  1  0  0  0  0
  5 22  1  0  0  0  0
  5 23  1  0  0  0  0
  6  8  1  0  0  0  0
  6 24  1  0  0  0  0
  6 25  1  0  0  0  0
  7  9  2  0  0  0  0
  7 10  1  0  0  0  0
  8  9  1  0  0  0  0
  8 26  1  0  0  0  0
  8 27  1  0  0  0  0
  9 12  1  0  0  0  0
 10 11  1  0  0  0  0
 10 13  2  0  0  0  0
 11 14  2  0  0  0  0
 13 16  1  0  0  0  0
 13 28  1  0  0  0  0
 14 15  1  0  0  0  0
 14 29  1  0  0  0  0
 15 16  2  0  0  0  0
 17 18  1  0  0  0  0
 17 30  1  0  0  0  0
 17 31  1  0  0  0  0
 18 19  2  0  0  0  0
 18 32  1  0  0  0  0
 19 20  1  0  0  0  0
 19 21  1  0  0  0  0
 20 36  1  0  0  0  0
 20 37  1  0  0  0  0
 20 38  1  0  0  0  0
 21 33  1  0  0  0  0
 21 34  1  0  0  0  0
 21 35  1  0  0  0  0
M  END
> <PUBCHEM_COMPOUND_CID>
854104

> <PUBCHEM_COMPOUND_CANONICALIZED>
1

> <PUBCHEM_CACTVS_COMPLEXITY>
490

> <PUBCHEM_CACTVS_HBOND_ACCEPTOR>
3

> <PUBCHEM_CACTVS_HBOND_DONOR>
0

> <PUBCHEM_CACTVS_ROTATABLE_BOND>
3

> <PUBCHEM_CACTVS_SUBSKEYS>
AAADceB4MAAEAAAAAAAAAAAAAAAAAQAAAAAwQAAAAAAAAEiBAAAAGgIAAAAADAagmCIyDoAABACIAiDSCAACCAAgJUAAiAEGC8gMJzOFMxqCOiClwBUIqQeI6OyOICAAKAAICABAQABQABAQAAAAAAAAAA==

> <PUBCHEM_IUPAC_OPENEYE_NAME>
8-chloro-7-(3-methylbut-2-enoxy)-2,3-dihydro-1H-cyclopenta[c]chromen-4-one

> <PUBCHEM_IUPAC_CAS_NAME>
8-chloro-7-(3-methylbut-2-enoxy)-2,3-dihydro-1H-cyclopenta[c][1]benzopyran-4-one

> <PUBCHEM_IUPAC_NAME>
8-chloro-7-(3-methylbut-2-enoxy)-2,3-dihydro-1H-cyclopenta[c]chromen-4-one

> <PUBCHEM_IUPAC_SYSTEMATIC_NAME>
8-chloranyl-7-(3-methylbut-2-enoxy)-2,3-dihydro-1H-cyclopenta[c]chromen-4-one

> <PUBCHEM_IUPAC_TRADITIONAL_NAME>
8-chloro-7-(3-methylbut-2-enoxy)-2,3-dihydro-1H-cyclopenta[c]chromen-4-one

> <PUBCHEM_IUPAC_INCHI>
InChI=1S/C17H17ClO3/c1-10(2)6-7-20-16-9-15-13(8-14(16)18)11-4-3-5-12(11)17(19)21-15/h6,8-9H,3-5,7H2,1-2H3

> <PUBCHEM_IUPAC_INCHIKEY>
AUULRFIBROMINP-UHFFFAOYSA-N

> <PUBCHEM_XLOGP3_AA>
4.4

> <PUBCHEM_EXACT_MASS>
304.086622

> <PUBCHEM_MOLECULAR_FORMULA>
C17H17ClO3

> <PUBCHEM_MOLECULAR_WEIGHT>
304.76808

> <PUBCHEM_OPENEYE_CAN_SMILES>
CC(=CCOC1=C(C=C2C3=C(CCC3)C(=O)OC2=C1)Cl)C

> <PUBCHEM_OPENEYE_ISO_SMILES>
CC(=CCOC1=C(C=C2C3=C(CCC3)C(=O)OC2=C1)Cl)C

> <PUBCHEM_CACTVS_TPSA>
35.5

> <PUBCHEM_MONOISOTOPIC_WEIGHT>
304.086622

> <PUBCHEM_TOTAL_CHARGE>
0

> <PUBCHEM_HEAVY_ATOM_COUNT>
21

> <PUBCHEM_ATOM_DEF_STEREO_COUNT>
0

> <PUBCHEM_ATOM_UDEF_STEREO_COUNT>
0

> <PUBCHEM_BOND_DEF_STEREO_COUNT>
0

> <PUBCHEM_BOND_UDEF_STEREO_COUNT>
0

> <PUBCHEM_ISOTOPIC_ATOM_COUNT>
0

> <PUBCHEM_COMPONENT_COUNT>
1

> <PUBCHEM_CACTVS_TAUTO_COUNT>
1

> <PUBCHEM_COORDINATE_TYPE>
1
5
255

> <PUBCHEM_BONDANNOTATIONS>
10  11  8
10  13  8
11  14  8
13  16  8
14  15  8
15  16  8
2  11  8
2  12  8
7  10  8
7  9  8
9  12  8

$$$$

