24892808
  -OEChem-07051213092D

 41 43  0     1  0  0  0  0  0999 V2000
    9.6504    1.7959    0.0000 F   0  0  0  0  0  0  0  0  0  0  0  0
    6.9939   -1.3543    0.0000 O   0  0  0  0  0  0  0  0  0  0  0  0
    3.5326    2.7244    0.0000 O   0  0  0  0  0  0  0  0  0  0  0  0
    2.0000   -2.8543    0.0000 N   0  0  0  0  0  0  0  0  0  0  0  0
    6.4103   -0.5496    0.0000 C   0  0  3  0  0  0  0  0  0  0  0  0
    6.1030    0.4020    0.0000 C   0  0  0  0  0  0  0  0  0  0  0  0
    5.4641   -0.8543    0.0000 C   0  0  0  0  0  0  0  0  0  0  0  0
    5.4641   -1.8543    0.0000 C   0  0  0  0  0  0  0  0  0  0  0  0
    7.2204    0.0368    0.0000 C   0  0  0  0  0  0  0  0  0  0  0  0
    5.1252    0.6116    0.0000 C   0  0  0  0  0  0  0  0  0  0  0  0
    6.4103   -2.1591    0.0000 C   0  0  0  0  0  0  0  0  0  0  0  0
    4.5981   -0.3543    0.0000 C   0  0  0  0  0  0  0  0  0  0  0  0
    4.8178    1.5632    0.0000 C   0  0  0  0  0  0  0  0  0  0  0  0
    4.5981   -2.3543    0.0000 C   0  0  0  0  0  0  0  0  0  0  0  0
    8.1332   -0.3715    0.0000 C   0  0  0  0  0  0  0  0  0  0  0  0
    7.1176    1.0315    0.0000 C   0  0  0  0  0  0  0  0  0  0  0  0
    3.7320   -0.8543    0.0000 C   0  0  0  0  0  0  0  0  0  0  0  0
    3.7320   -1.8543    0.0000 C   0  0  0  0  0  0  0  0  0  0  0  0
    3.8400    1.7728    0.0000 C   0  0  0  0  0  0  0  0  0  0  0  0
    8.9432    0.2149    0.0000 C   0  0  0  0  0  0  0  0  0  0  0  0
    7.9276    1.6179    0.0000 C   0  0  0  0  0  0  0  0  0  0  0  0
    8.8404    1.2095    0.0000 C   0  0  0  0  0  0  0  0  0  0  0  0
    2.8660   -2.3543    0.0000 C   0  0  0  0  0  0  0  0  0  0  0  0
    6.7171    0.4872    0.0000 H   0  0  0  0  0  0  0  0  0  0  0  0
    6.1257    1.0216    0.0000 H   0  0  0  0  0  0  0  0  0  0  0  0
    4.5110    0.5264    0.0000 H   0  0  0  0  0  0  0  0  0  0  0  0
    5.1024   -0.0080    0.0000 H   0  0  0  0  0  0  0  0  0  0  0  0
    6.1593   -2.7260    0.0000 H   0  0  0  0  0  0  0  0  0  0  0  0
    6.9477   -2.4683    0.0000 H   0  0  0  0  0  0  0  0  0  0  0  0
    4.5981    0.2657    0.0000 H   0  0  0  0  0  0  0  0  0  0  0  0
    5.4319    1.6484    0.0000 H   0  0  0  0  0  0  0  0  0  0  0  0
    4.8405    2.1828    0.0000 H   0  0  0  0  0  0  0  0  0  0  0  0
    4.5981   -2.9743    0.0000 H   0  0  0  0  0  0  0  0  0  0  0  0
    8.1969   -0.9882    0.0000 H   0  0  0  0  0  0  0  0  0  0  0  0
    6.5516    1.2846    0.0000 H   0  0  0  0  0  0  0  0  0  0  0  0
    3.1951   -0.5443    0.0000 H   0  0  0  0  0  0  0  0  0  0  0  0
    3.2259    1.6876    0.0000 H   0  0  0  0  0  0  0  0  0  0  0  0
    3.8173    1.1532    0.0000 H   0  0  0  0  0  0  0  0  0  0  0  0
    9.5092   -0.0383    0.0000 H   0  0  0  0  0  0  0  0  0  0  0  0
    7.8638    2.2346    0.0000 H   0  0  0  0  0  0  0  0  0  0  0  0
    2.9264    2.8543    0.0000 H   0  0  0  0  0  0  0  0  0  0  0  0
  1 22  1  0  0  0  0
  2  5  1  0  0  0  0
  2 11  1  0  0  0  0
  3 19  1  0  0  0  0
  3 41  1  0  0  0  0
  4 23  3  0  0  0  0
  5  6  1  0  0  0  0
  5  7  1  0  0  0  0
  5  9  1  0  0  0  0
  6 10  1  0  0  0  0
  6 24  1  0  0  0  0
  6 25  1  0  0  0  0
  7  8  2  0  0  0  0
  7 12  1  0  0  0  0
  8 11  1  0  0  0  0
  8 14  1  0  0  0  0
  9 15  2  0  0  0  0
  9 16  1  0  0  0  0
 10 13  1  0  0  0  0
 10 26  1  0  0  0  0
 10 27  1  0  0  0  0
 11 28  1  0  0  0  0
 11 29  1  0  0  0  0
 12 17  2  0  0  0  0
 12 30  1  0  0  0  0
 13 19  1  0  0  0  0
 13 31  1  0  0  0  0
 13 32  1  0  0  0  0
 14 18  2  0  0  0  0
 14 33  1  0  0  0  0
 15 20  1  0  0  0  0
 15 34  1  0  0  0  0
 16 21  2  0  0  0  0
 16 35  1  0  0  0  0
 17 18  1  0  0  0  0
 17 36  1  0  0  0  0
 18 23  1  0  0  0  0
 19 37  1  0  0  0  0
 19 38  1  0  0  0  0
 20 22  2  0  0  0  0
 20 39  1  0  0  0  0
 21 22  1  0  0  0  0
 21 40  1  0  0  0  0
M  END
> <PUBCHEM_COMPOUND_CID>
24892808

> <PUBCHEM_COMPOUND_CANONICALIZED>
1

> <PUBCHEM_CACTVS_COMPLEXITY>
440

> <PUBCHEM_CACTVS_HBOND_ACCEPTOR>
4

> <PUBCHEM_CACTVS_HBOND_DONOR>
1

> <PUBCHEM_CACTVS_ROTATABLE_BOND>
5

> <PUBCHEM_CACTVS_SUBSKEYS>
AAADceB6MQAAAAAAAAAAAAAAAAAAASAAAAAwYAAAAAAAAEgBQAAAHwAACAAADEShmAowAIAABgCQBiBCAAAiAAAgAAAIiAAACIgItiKAMRiCcAAkwAEIqA+A4PwOwAACAAAQAACAAAQAACAAAAAAAAAAAA==

> <PUBCHEM_IUPAC_OPENEYE_NAME>
1-(4-fluorophenyl)-1-(4-hydroxybutyl)-3H-isobenzofuran-5-carbonitrile

> <PUBCHEM_IUPAC_CAS_NAME>
1-(4-fluorophenyl)-1-(4-hydroxybutyl)-3H-isobenzofuran-5-carbonitrile

> <PUBCHEM_IUPAC_NAME>
1-(4-fluorophenyl)-1-(4-hydroxybutyl)-3H-2-benzofuran-5-carbonitrile

> <PUBCHEM_IUPAC_SYSTEMATIC_NAME>
1-(4-fluorophenyl)-1-(4-oxidanylbutyl)-3H-2-benzofuran-5-carbonitrile

> <PUBCHEM_IUPAC_TRADITIONAL_NAME>
1-(4-fluorophenyl)-1-(4-hydroxybutyl)phthalan-5-carbonitrile

> <PUBCHEM_IUPAC_INCHI>
InChI=1S/C19H18FNO2/c20-17-6-4-16(5-7-17)19(9-1-2-10-22)18-8-3-14(12-21)11-15(18)13-23-19/h3-8,11,22H,1-2,9-10,13H2

> <PUBCHEM_IUPAC_INCHIKEY>
PWOQCUKWOSNQHT-UHFFFAOYSA-N

> <PUBCHEM_XLOGP3_AA>
2.9

> <PUBCHEM_EXACT_MASS>
311.132157

> <PUBCHEM_MOLECULAR_FORMULA>
C19H18FNO2

> <PUBCHEM_MOLECULAR_WEIGHT>
311.350123

> <PUBCHEM_OPENEYE_CAN_SMILES>
C1C2=C(C=CC(=C2)C#N)C(O1)(CCCCO)C3=CC=C(C=C3)F

> <PUBCHEM_OPENEYE_ISO_SMILES>
C1C2=C(C=CC(=C2)C#N)C(O1)(CCCCO)C3=CC=C(C=C3)F

> <PUBCHEM_CACTVS_TPSA>
53.2

> <PUBCHEM_MONOISOTOPIC_WEIGHT>
311.132157

> <PUBCHEM_TOTAL_CHARGE>
0

> <PUBCHEM_HEAVY_ATOM_COUNT>
23

> <PUBCHEM_ATOM_DEF_STEREO_COUNT>
0

> <PUBCHEM_ATOM_UDEF_STEREO_COUNT>
1

> <PUBCHEM_BOND_DEF_STEREO_COUNT>
0

> <PUBCHEM_BOND_UDEF_STEREO_COUNT>
0

> <PUBCHEM_ISOTOPIC_ATOM_COUNT>
0

> <PUBCHEM_COMPONENT_COUNT>
1

> <PUBCHEM_CACTVS_TAUTO_COUNT>
1

> <PUBCHEM_COORDINATE_TYPE>
1
5
255

> <PUBCHEM_BONDANNOTATIONS>
12  17  8
14  18  8
15  20  8
16  21  8
17  18  8
20  22  8
21  22  8
5  6  3
7  12  8
7  8  8
8  14  8
9  15  8
9  16  8

$$$$

