   Color/Form

     * Viscous, amber-colored liquid
     * Colorless, viscous liquid
     * White crystals

   from [1]HSDB

   Odor

     * PENETRATING; AROMATIC; SLIGHTLY PUNGENT, LIKE CHLORINE
     * NEARLY ODORLESS
     * Pungent chlorine-like odor. [NIOSH. NIOSH Pocket Guide to Chemical
       Hazards & Other Databases. U.S. Department of Health & Human
       Services, Public Health Service, Center for Disease Control &
       Prevention. DHHS (NIOSH) Publication No. 2001-145 (CD-ROM) August
       2001.] [2]PubMed Abstract

   from [3]HSDB

   Boiling Point
        175 deg C @ 1 mm Hg
   from [4]HSDB

   Melting Point
        Melting point: 106-107 deg C cis-isomer; 104-105 deg C
   trans-isomer
   from [5]HSDB

   Density/Specific Gravity
        1.59-1.63 @ 25 DEG C
   from [6]HSDB

   Heat of Combustion
        -4,000 BTU/LB= -2,200 CAL/G= -93X10+5 JOULES/KG (EST)
   from [7]HSDB

   Octanol/Water Partition Coefficient
        log Kow= 6.16
   from [8]HSDB

   Solubilities

     * Miscible with aliphatic and aromatic hydrocarbon solvents,
       including deodorized kerosene
     * In water, 0.056 mg/L @ 25 deg C

   from [9]HSDB

   Spectral Properties

     * Index of refraction: 1.56-1.57 @ 25 deg C/D
     * Intense mass spectral peaks: 375 m/z (100%), 373 m/z (94%), 377 m/z
       (46%), 237 m/z (45%)

   from [10]HSDB

   Surface Tension
        LIQUID SURFACE TENSION: 25 DYNES/CM= 0.025 N/M @ 20 DEG C (EST)
   from [11]HSDB

   Vapor Density
        14: (air= 1 at boiling point of chlordane)
   from [12]HSDB

   Vapor Pressure
        9.75X10-6 mm Hg @ 25 deg C
   from [13]HSDB

   Viscosity
        69 poises at 25 deg C (about that of 95% glycerol); viscosity
   reduced by heating to 120-140 deg F
   from [14]HSDB

   Other Chemical/Physical Properties

     * Conversion factor 1 mg/cu m = 0.0597 ppm; 1 ppm= 16.76 mg/cu m at
       25 deg C at 760 mm Hg
     * ... Photolysis of cis- or trans-chlordane at 254 nm in
       dioxane-water solvent gave mainly photo reduction at the vinylic
       group of the chlordane structure.
     * ... Chlordane is completely dechlorinated by sodium in isopropyl
       alcohol.
     * The cis-isomer of chlordane is more susceptible to photolysis than
       the trans-isomer.
     * Decomposes in weak alkalies
     * Henry's Law constant = 4.86X10-5 atm cu-m/mole @ 25 deg C
     * Hydroxyl radical reaction rate constant = 5.0X10-12 cu cm/molec-sec
       @ 25 deg C /Estimated/
     * Brown liquid /Technical grade/

   from [15]HSDB

   Computed Properties
   Molecular Weight                  409.77864 [g/mol]
   Molecular Formula                 C[10]H[6]Cl[8]
   XLogP3-AA                         4.9
   H-Bond Donor                      0
   H-Bond Acceptor                   0
   Rotatable Bond Count              0
   Exact Mass                        409.791871
   MonoIsotopic Mass                 405.797772
   Topological Polar Surface Area    0
   Heavy Atom Count                  18
   Formal Charge                     0
   Complexity                        459
   Isotope Atom Count                0
   Defined Atom Stereocenter Count   0
   Undefined Atom Stereocenter Count 6
   Defined Bond Stereocenter Count   0
   Undefined Bond Stereocenter Count 0
   Covalently-Bonded Unit Count      1

References

   1. http://toxnet.nlm.nih.gov/cgi-bin/sis/search/r?dbs+hsdb:@term+@rn+@rel+57-74-9
   2. http://www.cdc.gov/niosh/npg/npgd0112.html
   3. http://toxnet.nlm.nih.gov/cgi-bin/sis/search/r?dbs+hsdb:@term+@rn+@rel+57-74-9
   4. http://toxnet.nlm.nih.gov/cgi-bin/sis/search/r?dbs+hsdb:@term+@rn+@rel+57-74-9
   5. http://toxnet.nlm.nih.gov/cgi-bin/sis/search/r?dbs+hsdb:@term+@rn+@rel+57-74-9
   6. http://toxnet.nlm.nih.gov/cgi-bin/sis/search/r?dbs+hsdb:@term+@rn+@rel+57-74-9
   7. http://toxnet.nlm.nih.gov/cgi-bin/sis/search/r?dbs+hsdb:@term+@rn+@rel+57-74-9
   8. http://toxnet.nlm.nih.gov/cgi-bin/sis/search/r?dbs+hsdb:@term+@rn+@rel+57-74-9
   9. http://toxnet.nlm.nih.gov/cgi-bin/sis/search/r?dbs+hsdb:@term+@rn+@rel+57-74-9
  10. http://toxnet.nlm.nih.gov/cgi-bin/sis/search/r?dbs+hsdb:@term+@rn+@rel+57-74-9
  11. http://toxnet.nlm.nih.gov/cgi-bin/sis/search/r?dbs+hsdb:@term+@rn+@rel+57-74-9
  12. http://toxnet.nlm.nih.gov/cgi-bin/sis/search/r?dbs+hsdb:@term+@rn+@rel+57-74-9
  13. http://toxnet.nlm.nih.gov/cgi-bin/sis/search/r?dbs+hsdb:@term+@rn+@rel+57-74-9
  14. http://toxnet.nlm.nih.gov/cgi-bin/sis/search/r?dbs+hsdb:@term+@rn+@rel+57-74-9
  15. http://toxnet.nlm.nih.gov/cgi-bin/sis/search/r?dbs+hsdb:@term+@rn+@rel+57-74-9
