   Color/Form
        Colorless to amber clear liquid
   from [1]HSDB

   Odor
        Faint fatty odor
   from [2]HSDB

   Boiling Point
        218.5 deg C @ 20 mm Hg
   from [3]HSDB

   Melting Point
        -19.9 deg C
   from [4]HSDB

   Density/Specific Gravity
        0.8739 @ 20 deg C
   from [5]HSDB

   Heat of Combustion
        At constant volume, delta Ec = -2837.3 kcal/mol at 25 deg C
   from [6]HSDB

   Heat of Vaporization
        20.17 kcal/mol at 1 torr
   from [7]HSDB

   Octanol/Water Partition Coefficient
        log Kow= 7.45
   from [8]HSDB

   Solubilities
        Insol in water; miscible with ethyl alcohol, ether; sol in
   chloroform
   from [9]HSDB

   Spectral Properties

     * MAX ABSORPTION (ALCOHOL): 230 NM (LOG E= 3.5); INDEX OF REFRACTION:
       1.4522 AT 20 DEG C; SADTLER REFERENCE NUMBER: 917 (IR, PRISM)
     * IR: 4792 (Coblentz Society Spectral Collection)
     * NMR: 71 (Sadtler Research Laboratories Spectral Collection)
     * MASS: 1894 (Atlas of Mass Spectral Data, John Wiley & Sons, New
       York)

   from [10]HSDB

   Surface Tension
        31.3 dyne/cm at 25 deg C; 25.4 dyne/cm at 100 deg C; 19.1 dyne/cm
   at 180 deg C
   from [11]HSDB

   Vapor Pressure
        6.29X10-6 at 25 deg C
   from [12]HSDB

   Viscosity
        Viscosity coefficients = 4.88, 2.62, and 1.64 cP at 30, 60, and 90
   deg C, respectively
   from [13]HSDB

   Other Chemical/Physical Properties

     * Boiling point - 217 deg C at 16 torr (decomposes)
     * Standard heat of formation = -173.91 kcal/mol at 25 deg C

   from [14]HSDB

   Computed Properties
   Molecular Weight                  296.48794 [g/mol]
   Molecular Formula                 C[19]H[36]O[2]
   XLogP3-AA                         7.6
   H-Bond Donor                      0
   H-Bond Acceptor                   2
   Rotatable Bond Count              16
   Exact Mass                        296.27153
   MonoIsotopic Mass                 296.27153
   Topological Polar Surface Area    26.3
   Heavy Atom Count                  21
   Formal Charge                     0
   Complexity                        246
   Isotope Atom Count                0
   Defined Atom Stereocenter Count   0
   Undefined Atom Stereocenter Count 0
   Defined Bond Stereocenter Count   1
   Undefined Bond Stereocenter Count 0
   Covalently-Bonded Unit Count      1

References

   1. http://toxnet.nlm.nih.gov/cgi-bin/sis/search/r?dbs+hsdb:@term+@rn+@rel+112-62-9
   2. http://toxnet.nlm.nih.gov/cgi-bin/sis/search/r?dbs+hsdb:@term+@rn+@rel+112-62-9
   3. http://toxnet.nlm.nih.gov/cgi-bin/sis/search/r?dbs+hsdb:@term+@rn+@rel+112-62-9
   4. http://toxnet.nlm.nih.gov/cgi-bin/sis/search/r?dbs+hsdb:@term+@rn+@rel+112-62-9
   5. http://toxnet.nlm.nih.gov/cgi-bin/sis/search/r?dbs+hsdb:@term+@rn+@rel+112-62-9
   6. http://toxnet.nlm.nih.gov/cgi-bin/sis/search/r?dbs+hsdb:@term+@rn+@rel+112-62-9
   7. http://toxnet.nlm.nih.gov/cgi-bin/sis/search/r?dbs+hsdb:@term+@rn+@rel+112-62-9
   8. http://toxnet.nlm.nih.gov/cgi-bin/sis/search/r?dbs+hsdb:@term+@rn+@rel+112-62-9
   9. http://toxnet.nlm.nih.gov/cgi-bin/sis/search/r?dbs+hsdb:@term+@rn+@rel+112-62-9
  10. http://toxnet.nlm.nih.gov/cgi-bin/sis/search/r?dbs+hsdb:@term+@rn+@rel+112-62-9
  11. http://toxnet.nlm.nih.gov/cgi-bin/sis/search/r?dbs+hsdb:@term+@rn+@rel+112-62-9
  12. http://toxnet.nlm.nih.gov/cgi-bin/sis/search/r?dbs+hsdb:@term+@rn+@rel+112-62-9
  13. http://toxnet.nlm.nih.gov/cgi-bin/sis/search/r?dbs+hsdb:@term+@rn+@rel+112-62-9
  14. http://toxnet.nlm.nih.gov/cgi-bin/sis/search/r?dbs+hsdb:@term+@rn+@rel+112-62-9
