1050
  -OEChem-07051212442D

 21 21  0     0  0  0  0  0  0999 V2000
    2.5369    0.2500    0.0000 O   0  0  0  0  0  0  0  0  0  0  0  0
    6.8671   -0.2500    0.0000 O   0  0  0  0  0  0  0  0  0  0  0  0
    5.1350    1.7500    0.0000 O   0  0  0  0  0  0  0  0  0  0  0  0
    4.2690   -1.7500    0.0000 N   0  0  0  0  0  0  0  0  0  0  0  0
    5.1350   -0.2500    0.0000 C   0  0  0  0  0  0  0  0  0  0  0  0
    4.2690    0.2500    0.0000 C   0  0  0  0  0  0  0  0  0  0  0  0
    3.4030   -0.2500    0.0000 C   0  0  0  0  0  0  0  0  0  0  0  0
    3.4030   -1.2500    0.0000 C   0  0  0  0  0  0  0  0  0  0  0  0
    6.0010    0.2500    0.0000 C   0  0  0  0  0  0  0  0  0  0  0  0
    5.1350   -1.2500    0.0000 C   0  0  0  0  0  0  0  0  0  0  0  0
    2.5369   -1.7500    0.0000 C   0  0  0  0  0  0  0  0  0  0  0  0
    4.2690    1.2500    0.0000 C   0  0  0  0  0  0  0  0  0  0  0  0
    6.3996    0.7249    0.0000 H   0  0  0  0  0  0  0  0  0  0  0  0
    5.6025    0.7249    0.0000 H   0  0  0  0  0  0  0  0  0  0  0  0
    5.6720   -1.5600    0.0000 H   0  0  0  0  0  0  0  0  0  0  0  0
    2.2269   -1.2131    0.0000 H   0  0  0  0  0  0  0  0  0  0  0  0
    2.0000   -2.0600    0.0000 H   0  0  0  0  0  0  0  0  0  0  0  0
    2.8469   -2.2869    0.0000 H   0  0  0  0  0  0  0  0  0  0  0  0
    3.7320    1.5600    0.0000 H   0  0  0  0  0  0  0  0  0  0  0  0
    2.0000   -0.0600    0.0000 H   0  0  0  0  0  0  0  0  0  0  0  0
    7.4040    0.0600    0.0000 H   0  0  0  0  0  0  0  0  0  0  0  0
  1  7  1  0  0  0  0
  1 20  1  0  0  0  0
  2  9  1  0  0  0  0
  2 21  1  0  0  0  0
  3 12  2  0  0  0  0
  4  8  2  0  0  0  0
  4 10  1  0  0  0  0
  5  6  1  0  0  0  0
  5  9  1  0  0  0  0
  5 10  2  0  0  0  0
  6  7  2  0  0  0  0
  6 12  1  0  0  0  0
  7  8  1  0  0  0  0
  8 11  1  0  0  0  0
  9 13  1  0  0  0  0
  9 14  1  0  0  0  0
 10 15  1  0  0  0  0
 11 16  1  0  0  0  0
 11 17  1  0  0  0  0
 11 18  1  0  0  0  0
 12 19  1  0  0  0  0
M  END
> <PUBCHEM_COMPOUND_CID>
1050

> <PUBCHEM_COMPOUND_CANONICALIZED>
1

> <PUBCHEM_CACTVS_COMPLEXITY>
162

> <PUBCHEM_CACTVS_HBOND_ACCEPTOR>
4

> <PUBCHEM_CACTVS_HBOND_DONOR>
2

> <PUBCHEM_CACTVS_ROTATABLE_BOND>
2

> <PUBCHEM_CACTVS_SUBSKEYS>
AAADccByMAAAAAAAAAAAAAAAAAAAAAAAAAAsAAAAAAAAAAABgAAAHgAACAAADAzhngYuhpIIEgCoAxx3xASCgCA1YCAA2CE9TNgKNnbSlZOEcUhm4BHY2Qf+UAMOgAAAAAAAAAAAAAAAAAAAAAAAAAAAAA==

> <PUBCHEM_IUPAC_OPENEYE_NAME>
3-hydroxy-5-(hydroxymethyl)-2-methyl-pyridine-4-carbaldehyde

> <PUBCHEM_IUPAC_CAS_NAME>
3-hydroxy-5-(hydroxymethyl)-2-methyl-4-pyridinecarboxaldehyde

> <PUBCHEM_IUPAC_NAME>
3-hydroxy-5-(hydroxymethyl)-2-methylpyridine-4-carbaldehyde

> <PUBCHEM_IUPAC_SYSTEMATIC_NAME>
5-(hydroxymethyl)-2-methyl-3-oxidanyl-pyridine-4-carbaldehyde

> <PUBCHEM_IUPAC_TRADITIONAL_NAME>
3-hydroxy-2-methyl-5-methylol-isonicotinaldehyde

> <PUBCHEM_IUPAC_INCHI>
InChI=1S/C8H9NO3/c1-5-8(12)7(4-11)6(3-10)2-9-5/h2,4,10,12H,3H2,1H3

> <PUBCHEM_IUPAC_INCHIKEY>
RADKZDMFGJYCBB-UHFFFAOYSA-N

> <PUBCHEM_XLOGP3_AA>
0

> <PUBCHEM_EXACT_MASS>
167.058243

> <PUBCHEM_MOLECULAR_FORMULA>
C8H9NO3

> <PUBCHEM_MOLECULAR_WEIGHT>
167.16196

> <PUBCHEM_OPENEYE_CAN_SMILES>
CC1=NC=C(C(=C1O)C=O)CO

> <PUBCHEM_OPENEYE_ISO_SMILES>
CC1=NC=C(C(=C1O)C=O)CO

> <PUBCHEM_CACTVS_TPSA>
70.4

> <PUBCHEM_MONOISOTOPIC_WEIGHT>
167.058243

> <PUBCHEM_TOTAL_CHARGE>
0

> <PUBCHEM_HEAVY_ATOM_COUNT>
12

> <PUBCHEM_ATOM_DEF_STEREO_COUNT>
0

> <PUBCHEM_ATOM_UDEF_STEREO_COUNT>
0

> <PUBCHEM_BOND_DEF_STEREO_COUNT>
0

> <PUBCHEM_BOND_UDEF_STEREO_COUNT>
0

> <PUBCHEM_ISOTOPIC_ATOM_COUNT>
0

> <PUBCHEM_COMPONENT_COUNT>
1

> <PUBCHEM_CACTVS_TAUTO_COUNT>
4

> <PUBCHEM_COORDINATE_TYPE>
1
5
255

> <PUBCHEM_BONDANNOTATIONS>
4  10  8
4  8  8
5  10  8
5  6  8
6  7  8
7  8  8

$$$$

