   Color/Form
        Colorless solid
   from [1]HSDB

   Boiling Point
        200 deg C @ 100 pa
   from [2]HSDB

   Melting Point
        84-85 deg C
   from [3]HSDB

   Solubilities
        Solubility @ 20 deg c: >0.5% in hexane; >1% in cyclohexane,
   ethanol, 1-octanol; >20%in ethyl acetate; >30% in toluene; >50% in
   acetone; solubility in water @ 25 deg C: 0.9 mg/l
   from [4]HSDB

   Vapor Pressure
        0.19 X 10-5 Pa @ 20 deg C
   from [5]HSDB

   Computed Properties
   Molecular Weight                  361.77634 [g/mol]
   Molecular Formula                 C[18]H[16]ClNO[5]
   XLogP3                            4.1
   H-Bond Donor                      0
   H-Bond Acceptor                   6
   Rotatable Bond Count              7
   Exact Mass                        361.0717
   MonoIsotopic Mass                 361.0717
   Topological Polar Surface Area    70.8
   Heavy Atom Count                  25
   Formal Charge                     0
   Complexity                        443
   Isotope Atom Count                0
   Defined Atom Stereocenter Count   0
   Undefined Atom Stereocenter Count 1
   Defined Bond Stereocenter Count   0
   Undefined Bond Stereocenter Count 0
   Covalently-Bonded Unit Count      1
   Feature 3D Acceptor Count         2
   Feature 3D Ring Count             3
   Effective Rotor Count             7
   Conformer Sampling RMSD           0.8
   CID Conformer Count               [6]241

References

   1. http://toxnet.nlm.nih.gov/cgi-bin/sis/search/r?dbs+hsdb:@term+@rn+@rel+66441-23-4
   2. http://toxnet.nlm.nih.gov/cgi-bin/sis/search/r?dbs+hsdb:@term+@rn+@rel+66441-23-4
   3. http://toxnet.nlm.nih.gov/cgi-bin/sis/search/r?dbs+hsdb:@term+@rn+@rel+66441-23-4
   4. http://toxnet.nlm.nih.gov/cgi-bin/sis/search/r?dbs+hsdb:@term+@rn+@rel+66441-23-4
   5. http://toxnet.nlm.nih.gov/cgi-bin/sis/search/r?dbs+hsdb:@term+@rn+@rel+66441-23-4
   6. http://pubchem.ncbi.nlm.nih.gov/vw3d/vw3d.cgi?cid=47938
