   Color/Form

     * PRISMS FROM ALCOHOL
     * COLORLESS CRYSTALS

   from [1]HSDB

   Melting Point
        111 DEG C
   from [2]HSDB

   Solubilities
        VERY SOL IN WATER; SOL IN METHANOL, ACETIC ACID; SOL IN HOT
   ALCOHOL; INSOL IN ETHER
   from [3]HSDB

   Spectral Properties
        IR: 2001 (Documentation of Molecular Spectroscopy Collection)
   from [4]HSDB

   Other Chemical/Physical Properties
        CAPABLE OF POLYMERIZATION TO SYNTHETIC RESIN
   from [5]HSDB

   Computed Properties
   Molecular Weight                  90.08124 [g/mol]
   Molecular Formula                 C[2]H[6]N[2]O[2]
   XLogP3                            -1.7
   H-Bond Donor                      3
   H-Bond Acceptor                   2
   Rotatable Bond Count              1
   Tautomer Count                    3
   Exact Mass                        90.042927
   MonoIsotopic Mass                 90.042927
   Topological Polar Surface Area    75.4
   Heavy Atom Count                  6
   Formal Charge                     0
   Complexity                        53.5
   Isotope Atom Count                0
   Defined Atom Stereocenter Count   0
   Undefined Atom Stereocenter Count 0
   Defined Bond Stereocenter Count   0
   Undefined Bond Stereocenter Count 0
   Covalently-Bonded Unit Count      1
   Feature 3D Acceptor Count         2
   Feature 3D Donor Count            3
   Effective Rotor Count             2
   Conformer Sampling RMSD           0.4
   CID Conformer Count               [6]4

References

   1. http://toxnet.nlm.nih.gov/cgi-bin/sis/search/r?dbs+hsdb:@term+@rn+@rel+1000-82-4
   2. http://toxnet.nlm.nih.gov/cgi-bin/sis/search/r?dbs+hsdb:@term+@rn+@rel+1000-82-4
   3. http://toxnet.nlm.nih.gov/cgi-bin/sis/search/r?dbs+hsdb:@term+@rn+@rel+1000-82-4
   4. http://toxnet.nlm.nih.gov/cgi-bin/sis/search/r?dbs+hsdb:@term+@rn+@rel+1000-82-4
   5. http://toxnet.nlm.nih.gov/cgi-bin/sis/search/r?dbs+hsdb:@term+@rn+@rel+1000-82-4
   6. http://pubchem.ncbi.nlm.nih.gov/vw3d/vw3d.cgi?cid=13842
