17395270
  -OEChem-06241222492D

 40 41  0     0  0  0  0  0  0999 V2000
    7.1906   -1.0233    0.0000 S   0  0  0  0  0  0  0  0  0  0  0  0
    5.1906   -1.0233    0.0000 O   0  0  0  0  0  0  0  0  0  0  0  0
    5.1906    0.7088    0.0000 N   0  0  0  0  0  0  0  0  0  0  0  0
    8.7784   -0.2142    0.0000 N   0  0  0  0  0  0  0  0  0  0  0  0
    8.7784   -1.8323    0.0000 N   0  0  0  0  0  0  0  0  0  0  0  0
    9.7295   -0.5233    0.0000 N   0  0  0  0  0  0  0  0  0  0  0  0
    9.7295   -1.5233    0.0000 N   0  0  0  0  0  0  0  0  0  0  0  0
    4.1906    0.7088    0.0000 C   0  0  0  0  0  0  0  0  0  0  0  0
    3.7568   -0.1922    0.0000 C   0  0  0  0  0  0  0  0  0  0  0  0
    3.7568    1.6098    0.0000 C   0  0  0  0  0  0  0  0  0  0  0  0
    2.7818   -0.4147    0.0000 C   0  0  0  0  0  0  0  0  0  0  0  0
    2.7818    1.8323    0.0000 C   0  0  0  0  0  0  0  0  0  0  0  0
    2.0000    0.2088    0.0000 C   0  0  0  0  0  0  0  0  0  0  0  0
    2.0000    1.2088    0.0000 C   0  0  0  0  0  0  0  0  0  0  0  0
    5.6906   -0.1572    0.0000 C   0  0  0  0  0  0  0  0  0  0  0  0
    6.6906   -0.1572    0.0000 C   0  0  0  0  0  0  0  0  0  0  0  0
    8.1906   -1.0233    0.0000 C   0  0  0  0  0  0  0  0  0  0  0  0
    8.4694    0.7368    0.0000 C   0  0  0  0  0  0  0  0  0  0  0  0
    9.1385    1.4800    0.0000 C   0  0  0  0  0  0  0  0  0  0  0  0
    4.5205    0.1838    0.0000 H   0  0  0  0  0  0  0  0  0  0  0  0
    4.3612    1.7477    0.0000 H   0  0  0  0  0  0  0  0  0  0  0  0
    3.7568    2.2298    0.0000 H   0  0  0  0  0  0  0  0  0  0  0  0
    3.7568   -0.8122    0.0000 H   0  0  0  0  0  0  0  0  0  0  0  0
    4.3612   -0.3301    0.0000 H   0  0  0  0  0  0  0  0  0  0  0  0
    3.0508    2.3909    0.0000 H   0  0  0  0  0  0  0  0  0  0  0  0
    2.2971    2.2188    0.0000 H   0  0  0  0  0  0  0  0  0  0  0  0
    2.2971   -0.8013    0.0000 H   0  0  0  0  0  0  0  0  0  0  0  0
    3.0508   -0.9733    0.0000 H   0  0  0  0  0  0  0  0  0  0  0  0
    1.3955    0.3468    0.0000 H   0  0  0  0  0  0  0  0  0  0  0  0
    1.7310   -0.3498    0.0000 H   0  0  0  0  0  0  0  0  0  0  0  0
    1.7310    1.7674    0.0000 H   0  0  0  0  0  0  0  0  0  0  0  0
    1.3955    1.0708    0.0000 H   0  0  0  0  0  0  0  0  0  0  0  0
    5.5006    1.2457    0.0000 H   0  0  0  0  0  0  0  0  0  0  0  0
    7.2732    0.0548    0.0000 H   0  0  0  0  0  0  0  0  0  0  0  0
    6.5830    0.4533    0.0000 H   0  0  0  0  0  0  0  0  0  0  0  0
    8.0877    1.2254    0.0000 H   0  0  0  0  0  0  0  0  0  0  0  0
    7.9220    0.4457    0.0000 H   0  0  0  0  0  0  0  0  0  0  0  0
    9.5993    1.0651    0.0000 H   0  0  0  0  0  0  0  0  0  0  0  0
    9.5534    1.9407    0.0000 H   0  0  0  0  0  0  0  0  0  0  0  0
    8.6778    1.8948    0.0000 H   0  0  0  0  0  0  0  0  0  0  0  0
  1 16  1  0  0  0  0
  1 17  1  0  0  0  0
  2 15  2  0  0  0  0
  3  8  1  0  0  0  0
  3 15  1  0  0  0  0
  3 33  1  0  0  0  0
  4  6  1  0  0  0  0
  4 17  1  0  0  0  0
  4 18  1  0  0  0  0
  5  7  1  0  0  0  0
  5 17  2  0  0  0  0
  6  7  2  0  0  0  0
  8  9  1  0  0  0  0
  8 10  1  0  0  0  0
  8 20  1  0  0  0  0
  9 11  1  0  0  0  0
  9 23  1  0  0  0  0
  9 24  1  0  0  0  0
 10 12  1  0  0  0  0
 10 21  1  0  0  0  0
 10 22  1  0  0  0  0
 11 13  1  0  0  0  0
 11 27  1  0  0  0  0
 11 28  1  0  0  0  0
 12 14  1  0  0  0  0
 12 25  1  0  0  0  0
 12 26  1  0  0  0  0
 13 14  1  0  0  0  0
 13 29  1  0  0  0  0
 13 30  1  0  0  0  0
 14 31  1  0  0  0  0
 14 32  1  0  0  0  0
 15 16  1  0  0  0  0
 16 34  1  0  0  0  0
 16 35  1  0  0  0  0
 18 19  1  0  0  0  0
 18 36  1  0  0  0  0
 18 37  1  0  0  0  0
 19 38  1  0  0  0  0
 19 39  1  0  0  0  0
 19 40  1  0  0  0  0
M  END
> <PUBCHEM_COMPOUND_CID>
17395270

> <PUBCHEM_COMPOUND_CANONICALIZED>
1

> <PUBCHEM_CACTVS_COMPLEXITY>
283

> <PUBCHEM_CACTVS_HBOND_ACCEPTOR>
5

> <PUBCHEM_CACTVS_HBOND_DONOR>
1

> <PUBCHEM_CACTVS_ROTATABLE_BOND>
5

> <PUBCHEM_CACTVS_SUBSKEYS>
AAADceBzoABAAAAAAAAAAAAAAAAAAWAAAAAAAAAABgAAAAABgAAAHgQYAAAACCjFwASDEAbIAAgqAAEQNAAAEANAgJAVQIAIAACAAAIAiAAEAAAAFgKAAAEQgAAAAAAAAAAAAAAAAAAAAAAAAAAAAAAAAA==

> <PUBCHEM_IUPAC_OPENEYE_NAME>
N-cycloheptyl-2-(1-ethyltetrazol-5-yl)sulfanyl-acetamide

> <PUBCHEM_IUPAC_CAS_NAME>
N-cycloheptyl-2-[(1-ethyl-5-tetrazolyl)thio]acetamide

> <PUBCHEM_IUPAC_NAME>
N-cycloheptyl-2-(1-ethyltetrazol-5-yl)sulfanylacetamide

> <PUBCHEM_IUPAC_SYSTEMATIC_NAME>
N-cycloheptyl-2-[(1-ethyl-1,2,3,4-tetrazol-5-yl)sulfanyl]ethanamide

> <PUBCHEM_IUPAC_TRADITIONAL_NAME>
N-cycloheptyl-2-[(1-ethyltetrazol-5-yl)thio]acetamide

> <PUBCHEM_IUPAC_INCHI>
InChI=1S/C12H21N5OS/c1-2-17-12(14-15-16-17)19-9-11(18)13-10-7-5-3-4-6-8-10/h10H,2-9H2,1H3,(H,13,18)

> <PUBCHEM_IUPAC_INCHIKEY>
HDIIMTLBZAJYSP-UHFFFAOYSA-N

> <PUBCHEM_XLOGP3_AA>
2.4

> <PUBCHEM_EXACT_MASS>
283.146681

> <PUBCHEM_MOLECULAR_FORMULA>
C12H21N5OS

> <PUBCHEM_MOLECULAR_WEIGHT>
283.39304

> <PUBCHEM_OPENEYE_CAN_SMILES>
CCN1C(=NN=N1)SCC(=O)NC2CCCCCC2

> <PUBCHEM_OPENEYE_ISO_SMILES>
CCN1C(=NN=N1)SCC(=O)NC2CCCCCC2

> <PUBCHEM_CACTVS_TPSA>
98

> <PUBCHEM_MONOISOTOPIC_WEIGHT>
283.146681

> <PUBCHEM_TOTAL_CHARGE>
0

> <PUBCHEM_HEAVY_ATOM_COUNT>
19

> <PUBCHEM_ATOM_DEF_STEREO_COUNT>
0

> <PUBCHEM_ATOM_UDEF_STEREO_COUNT>
0

> <PUBCHEM_BOND_DEF_STEREO_COUNT>
0

> <PUBCHEM_BOND_UDEF_STEREO_COUNT>
0

> <PUBCHEM_ISOTOPIC_ATOM_COUNT>
0

> <PUBCHEM_COMPONENT_COUNT>
1

> <PUBCHEM_CACTVS_TAUTO_COUNT>
2

> <PUBCHEM_COORDINATE_TYPE>
1
5
255

> <PUBCHEM_BONDANNOTATIONS>
4  17  8
4  6  8
5  17  8
5  7  8
6  7  8

$$$$

