6438232
  -OEChem-07051213102D

 41 42  0     1  0  0  0  0  0999 V2000
    9.6813    0.9981    0.0000 S   0  0  0  0  0  0  0  0  0  0  0  0
    7.0163   -1.0236    0.0000 O   0  0  0  0  0  0  0  0  0  0  0  0
    9.3212   -2.3141    0.0000 O   0  0  0  0  0  0  0  0  0  0  0  0
   10.9685   -1.7789    0.0000 O   0  0  0  0  0  0  0  0  0  0  0  0
    5.7891    0.1796    0.0000 O   0  0  0  0  0  0  0  0  0  0  0  0
    8.7303   -0.3109    0.0000 N   0  0  0  0  0  0  0  0  0  0  0  0
    7.0163    1.4018    0.0000 N   0  0  0  0  0  0  0  0  0  0  0  0
    8.7303    0.6891    0.0000 C   0  0  1  0  0  0  0  0  0  0  0  0
   10.2691    0.1891    0.0000 C   0  0  0  0  0  0  0  0  0  0  0  0
    9.6813   -0.6199    0.0000 C   0  0  2  0  0  0  0  0  0  0  0  0
    7.7220    0.6932    0.0000 C   0  0  1  0  0  0  0  0  0  0  0  0
    7.7220   -0.3151    0.0000 C   0  0  0  0  0  0  0  0  0  0  0  0
   11.0781    0.7769    0.0000 C   0  0  0  0  0  0  0  0  0  0  0  0
   11.0781   -0.3987    0.0000 C   0  0  0  0  0  0  0  0  0  0  0  0
    9.9903   -1.5710    0.0000 C   0  0  0  0  0  0  0  0  0  0  0  0
    6.0499    1.1450    0.0000 C   0  0  0  0  0  0  0  0  0  0  0  0
    5.3442    1.8535    0.0000 C   0  0  0  0  0  0  0  0  0  0  0  0
    4.3778    1.5967    0.0000 C   0  0  0  0  0  0  0  0  0  0  0  0
    3.6721    2.3052    0.0000 C   0  0  0  0  0  0  0  0  0  0  0  0
    2.7056    2.0484    0.0000 C   0  0  0  0  0  0  0  0  0  0  0  0
    2.0000    2.7570    0.0000 C   0  0  0  0  0  0  0  0  0  0  0  0
    8.5990    1.5289    0.0000 H   0  0  0  0  0  0  0  0  0  0  0  0
    9.2429   -1.0583    0.0000 H   0  0  0  0  0  0  0  0  0  0  0  0
    7.1489    0.4566    0.0000 H   0  0  0  0  0  0  0  0  0  0  0  0
   11.4425    0.2753    0.0000 H   0  0  0  0  0  0  0  0  0  0  0  0
   11.5797    1.1413    0.0000 H   0  0  0  0  0  0  0  0  0  0  0  0
   10.7137    1.2785    0.0000 H   0  0  0  0  0  0  0  0  0  0  0  0
   10.7137   -0.9003    0.0000 H   0  0  0  0  0  0  0  0  0  0  0  0
   11.5797   -0.7631    0.0000 H   0  0  0  0  0  0  0  0  0  0  0  0
   11.4425    0.1029    0.0000 H   0  0  0  0  0  0  0  0  0  0  0  0
    7.1780    2.0003    0.0000 H   0  0  0  0  0  0  0  0  0  0  0  0
    9.5128   -2.9038    0.0000 H   0  0  0  0  0  0  0  0  0  0  0  0
    5.8528    2.2081    0.0000 H   0  0  0  0  0  0  0  0  0  0  0  0
    5.0834    2.4160    0.0000 H   0  0  0  0  0  0  0  0  0  0  0  0
    4.2161    0.9981    0.0000 H   0  0  0  0  0  0  0  0  0  0  0  0
    3.8338    2.9038    0.0000 H   0  0  0  0  0  0  0  0  0  0  0  0
    2.1970    1.6938    0.0000 H   0  0  0  0  0  0  0  0  0  0  0  0
    2.9665    1.4860    0.0000 H   0  0  0  0  0  0  0  0  0  0  0  0
    2.4393    3.1945    0.0000 H   0  0  0  0  0  0  0  0  0  0  0  0
    1.5625    3.1963    0.0000 H   0  0  0  0  0  0  0  0  0  0  0  0
    1.5607    2.3195    0.0000 H   0  0  0  0  0  0  0  0  0  0  0  0
  1  8  1  0  0  0  0
  1  9  1  0  0  0  0
  2 12  2  0  0  0  0
  3 15  1  0  0  0  0
  3 32  1  0  0  0  0
  4 15  2  0  0  0  0
  5 16  2  0  0  0  0
  6  8  1  0  0  0  0
  6 10  1  0  0  0  0
  6 12  1  0  0  0  0
 11  7  1  1  0  0  0
  7 16  1  0  0  0  0
  7 31  1  0  0  0  0
  8 11  1  0  0  0  0
  8 22  1  6  0  0  0
  9 10  1  0  0  0  0
  9 13  1  0  0  0  0
  9 14  1  0  0  0  0
 10 15  1  6  0  0  0
 10 23  1  0  0  0  0
 11 12  1  0  0  0  0
 11 24  1  0  0  0  0
 13 25  1  0  0  0  0
 13 26  1  0  0  0  0
 13 27  1  0  0  0  0
 14 28  1  0  0  0  0
 14 29  1  0  0  0  0
 14 30  1  0  0  0  0
 16 17  1  0  0  0  0
 17 18  1  0  0  0  0
 17 33  1  0  0  0  0
 17 34  1  0  0  0  0
 18 19  2  0  0  0  0
 18 35  1  0  0  0  0
 19 20  1  0  0  0  0
 19 36  1  0  0  0  0
 20 21  1  0  0  0  0
 20 37  1  0  0  0  0
 20 38  1  0  0  0  0
 21 39  1  0  0  0  0
 21 40  1  0  0  0  0
 21 41  1  0  0  0  0
M  END
> <PUBCHEM_COMPOUND_CID>
6438232

> <PUBCHEM_COMPOUND_CANONICALIZED>
1

> <PUBCHEM_CACTVS_COMPLEXITY>
503

> <PUBCHEM_CACTVS_HBOND_ACCEPTOR>
5

> <PUBCHEM_CACTVS_HBOND_DONOR>
2

> <PUBCHEM_CACTVS_ROTATABLE_BOND>
5

> <PUBCHEM_CACTVS_SUBSKEYS>
AAADceBzOABAAAAAAAAAAAAAAABYAWAAAAAAAAAABYAAAAAAAAAAHgQQCAAADCjFwASCCAPAAgiIACHSGAAAAABgABAICIGIAAgCQBggASAUQAAEFgC4AAIAAAAIAAAAAAAAAAAAAAAAAAAAAAAAAAAAAA==

> <PUBCHEM_IUPAC_OPENEYE_NAME>
(2S,5R,6R)-6-[[(E)-hex-3-enoyl]amino]-3,3-dimethyl-7-oxo-4-thia-1-azabicyclo[3.2.0]heptane-2-carboxylic acid

> <PUBCHEM_IUPAC_CAS_NAME>
(2S,5R,6R)-3,3-dimethyl-7-oxo-6-[[(E)-1-oxohex-3-enyl]amino]-4-thia-1-azabicyclo[3.2.0]heptane-2-carboxylic acid

> <PUBCHEM_IUPAC_NAME>
(2S,5R,6R)-6-[[(E)-hex-3-enoyl]amino]-3,3-dimethyl-7-oxo-4-thia-1-azabicyclo[3.2.0]heptane-2-carboxylic acid

> <PUBCHEM_IUPAC_SYSTEMATIC_NAME>
(2S,5R,6R)-6-[[(E)-hex-3-enoyl]amino]-3,3-dimethyl-7-oxidanylidene-4-thia-1-azabicyclo[3.2.0]heptane-2-carboxylic acid

> <PUBCHEM_IUPAC_TRADITIONAL_NAME>
(2S,5R,6R)-6-[[(E)-hex-3-enoyl]amino]-7-keto-3,3-dimethyl-4-thia-1-azabicyclo[3.2.0]heptane-2-carboxylic acid

> <PUBCHEM_IUPAC_INCHI>
InChI=1S/C14H20N2O4S/c1-4-5-6-7-8(17)15-9-11(18)16-10(13(19)20)14(2,3)21-12(9)16/h5-6,9-10,12H,4,7H2,1-3H3,(H,15,17)(H,19,20)/b6-5+/t9-,10+,12-/m1/s1

> <PUBCHEM_IUPAC_INCHIKEY>
QRLCJUNAKLMRGP-ZTWGYATJSA-N

> <PUBCHEM_XLOGP3>
1.9

> <PUBCHEM_EXACT_MASS>
312.114378

> <PUBCHEM_MOLECULAR_FORMULA>
C14H20N2O4S

> <PUBCHEM_MOLECULAR_WEIGHT>
312.3846

> <PUBCHEM_OPENEYE_CAN_SMILES>
CCC=CCC(=O)NC1C2N(C1=O)C(C(S2)(C)C)C(=O)O

> <PUBCHEM_OPENEYE_ISO_SMILES>
CC/C=C/CC(=O)N[C@H]1[C@@H]2N(C1=O)[C@H](C(S2)(C)C)C(=O)O

> <PUBCHEM_CACTVS_TPSA>
112

> <PUBCHEM_MONOISOTOPIC_WEIGHT>
312.114378

> <PUBCHEM_TOTAL_CHARGE>
0

> <PUBCHEM_HEAVY_ATOM_COUNT>
21

> <PUBCHEM_ATOM_DEF_STEREO_COUNT>
3

> <PUBCHEM_ATOM_UDEF_STEREO_COUNT>
0

> <PUBCHEM_BOND_DEF_STEREO_COUNT>
1

> <PUBCHEM_BOND_UDEF_STEREO_COUNT>
0

> <PUBCHEM_ISOTOPIC_ATOM_COUNT>
0

> <PUBCHEM_COMPONENT_COUNT>
1

> <PUBCHEM_CACTVS_TAUTO_COUNT>
4

> <PUBCHEM_COORDINATE_TYPE>
1
5
255

> <PUBCHEM_BONDANNOTATIONS>
10  15  6
11  7  5
8  22  6

$$$$

