14099
  -OEChem-06241222422D

 18 18  0     0  0  0  0  0  0999 V2000
    2.8660   -1.4400    0.0000 O   0  0  0  0  0  0  0  0  0  0  0  0
    4.5981    1.5600    0.0000 O   0  0  0  0  0  0  0  0  0  0  0  0
    6.3301   -1.4400    0.0000 O   0  0  0  0  0  0  0  0  0  0  0  0
    4.5981   -1.4400    0.0000 N   0  0  0  0  0  0  0  0  0  0  0  0
    3.7320    0.0600    0.0000 N   0  0  0  0  0  0  0  0  0  0  0  0
    5.4641    0.0600    0.0000 N   0  0  0  0  0  0  0  0  0  0  0  0
    3.7320   -0.9400    0.0000 C   0  0  0  0  0  0  0  0  0  0  0  0
    4.5981    0.5600    0.0000 C   0  0  0  0  0  0  0  0  0  0  0  0
    5.4641   -0.9400    0.0000 C   0  0  0  0  0  0  0  0  0  0  0  0
    2.0000   -0.9400    0.0000 C   0  0  0  0  0  0  0  0  0  0  0  0
    5.4641    2.0600    0.0000 C   0  0  0  0  0  0  0  0  0  0  0  0
    4.5981   -2.0600    0.0000 H   0  0  0  0  0  0  0  0  0  0  0  0
    2.3100   -0.4031    0.0000 H   0  0  0  0  0  0  0  0  0  0  0  0
    1.4631   -0.6300    0.0000 H   0  0  0  0  0  0  0  0  0  0  0  0
    1.6900   -1.4769    0.0000 H   0  0  0  0  0  0  0  0  0  0  0  0
    5.7741    1.5231    0.0000 H   0  0  0  0  0  0  0  0  0  0  0  0
    6.0010    2.3700    0.0000 H   0  0  0  0  0  0  0  0  0  0  0  0
    5.1541    2.5969    0.0000 H   0  0  0  0  0  0  0  0  0  0  0  0
  1  7  1  0  0  0  0
  1 10  1  0  0  0  0
  2  8  1  0  0  0  0
  2 11  1  0  0  0  0
  3  9  2  0  0  0  0
  4  7  1  0  0  0  0
  4  9  1  0  0  0  0
  4 12  1  0  0  0  0
  5  7  2  0  0  0  0
  5  8  1  0  0  0  0
  6  8  2  0  0  0  0
  6  9  1  0  0  0  0
 10 13  1  0  0  0  0
 10 14  1  0  0  0  0
 10 15  1  0  0  0  0
 11 16  1  0  0  0  0
 11 17  1  0  0  0  0
 11 18  1  0  0  0  0
M  END
> <PUBCHEM_COMPOUND_CID>
14099

> <PUBCHEM_COMPOUND_CANONICALIZED>
1

> <PUBCHEM_CACTVS_COMPLEXITY>
233

> <PUBCHEM_CACTVS_HBOND_ACCEPTOR>
3

> <PUBCHEM_CACTVS_HBOND_DONOR>
1

> <PUBCHEM_CACTVS_ROTATABLE_BOND>
2

> <PUBCHEM_CACTVS_SUBSKEYS>
AAADcYBjMAAAAAAAAAAAAAAAAAAAAAAAAAAgAAAAAAAAAAAAAAAAFgAQAAAAAAAAAAIDAALABAAoAAAANAAAAAEAAAABAAAAAAGAAAAAAAAAAAAAAAAAAAAAAAAAAAAAAAAAAAAAAAAAAAAAAAAAAAAAAA==

> <PUBCHEM_IUPAC_OPENEYE_NAME>
4,6-dimethoxy-1H-1,3,5-triazin-2-one

> <PUBCHEM_IUPAC_CAS_NAME>
4,6-dimethoxy-1H-1,3,5-triazin-2-one

> <PUBCHEM_IUPAC_NAME>
4,6-dimethoxy-1H-1,3,5-triazin-2-one

> <PUBCHEM_IUPAC_SYSTEMATIC_NAME>
4,6-dimethoxy-1H-1,3,5-triazin-2-one

> <PUBCHEM_IUPAC_TRADITIONAL_NAME>
4,6-dimethoxy-1H-s-triazin-2-one

> <PUBCHEM_IUPAC_INCHI>
InChI=1S/C5H7N3O3/c1-10-4-6-3(9)7-5(8-4)11-2/h1-2H3,(H,6,7,8,9)

> <PUBCHEM_IUPAC_INCHIKEY>
ABWQLBWYPYHBHW-UHFFFAOYSA-N

> <PUBCHEM_XLOGP3_AA>
0.1

> <PUBCHEM_EXACT_MASS>
157.048741

> <PUBCHEM_MOLECULAR_FORMULA>
C5H7N3O3

> <PUBCHEM_MOLECULAR_WEIGHT>
157.12738

> <PUBCHEM_OPENEYE_CAN_SMILES>
COC1=NC(=NC(=O)N1)OC

> <PUBCHEM_OPENEYE_ISO_SMILES>
COC1=NC(=NC(=O)N1)OC

> <PUBCHEM_CACTVS_TPSA>
72.3

> <PUBCHEM_MONOISOTOPIC_WEIGHT>
157.048741

> <PUBCHEM_TOTAL_CHARGE>
0

> <PUBCHEM_HEAVY_ATOM_COUNT>
11

> <PUBCHEM_ATOM_DEF_STEREO_COUNT>
0

> <PUBCHEM_ATOM_UDEF_STEREO_COUNT>
0

> <PUBCHEM_BOND_DEF_STEREO_COUNT>
0

> <PUBCHEM_BOND_UDEF_STEREO_COUNT>
0

> <PUBCHEM_ISOTOPIC_ATOM_COUNT>
0

> <PUBCHEM_COMPONENT_COUNT>
1

> <PUBCHEM_CACTVS_TAUTO_COUNT>
3

> <PUBCHEM_COORDINATE_TYPE>
1
5
255

> <PUBCHEM_BONDANNOTATIONS>
4  7  8
4  9  8
5  7  8
5  8  8
6  8  8
6  9  8

$$$$

