   Color/Form

     * Light yellow liquid becoming reddish brown on exposure to air and
       light
     * Colorless to pale-yellow liquid.

   from [1]HSDB

   Odor
        Aromatic aniline-like odor.
   from [2]HSDB

   Boiling Point
        200.3 deg C
   from [3]HSDB

   Melting Point
        -16.3 deg C
   from [4]HSDB

   Critical Temperature and Pressure
        Critical temp= 790 deg F, 421 deg C, 694 deg K; Critical pressure=
   544 PSIA= 37.0 atm= 3.75 MN/cu m
   from [5]HSDB

   Density/Specific Gravity
        1.008 @ 20 deg C
   from [6]HSDB

   Dissociation Constants
        pKa= 4.44 @ 25 deg C
   from [7]HSDB

   Heat of Combustion
        -16,180 Btu/lb; -8,990 cal/g; -376x10+6 J/kg
   from [8]HSDB

   Heat of Vaporization
        179.1 Btu/lb; 99.5 cal/g; 4.16x10+5 J/kg
   from [9]HSDB

   Octanol/Water Partition Coefficient
        log Kow= 1.32
   from [10]HSDB

   Solubilities

     * Slightly sol in water; sol in alcohol, ether, dil acids
     * Miscible in ethanol, carbon tetrachloride, ethyl ether
     * In water, 1.66X10+4 mg/l @ 25 deg C

   from [11]HSDB

   Spectral Properties

     * MAX ABSORPTION (WATER, PH= 10): 232.5 NM (LOG E= 3.88) & 281.5 NM
       (LOG E= 3.16)
     * Index of refraction: 1.5688 @ 20 deg C/D
     * IR: 8160 (Sadtler Research Laboratories IR Grating Collection)
     * UV: 442 (Sadtler Research Laboratories Spectral Collection)
     * NMR: 107 (Sadtler Research Laboratories Spectral Collection)
     * MASS: 330 (Atlas of Mass Spectral Data, John Wiley & Sons, New
       York)

   from [12]HSDB

   Surface Tension
        43.55 dynes/cm; 0.04355 Newtons/meter @ 20 deg C
   from [13]HSDB

   Vapor Density
        3.69 (Air= 1)
   from [14]HSDB

   Vapor Pressure
        2.60X10-1 mm Hg @ 25 deg C
   from [15]HSDB

   Other Chemical/Physical Properties

     * Melting point: -23.7 deg C (alpha form); -14.7 deg C (beta form)
     * SADTLER REFERENCE NUMBER: 1543 & 7460 (IR, PRISM); 8160 (IR,
       GRATING); 442 (UV); 107 (NMR) /ALPHA & BETA FORMS/
     * In the photodegradation of the phenmedipham, the triplet state is
       the reactional state. The formation of the photoproducts is
       dependent on the radical mechanism, and the quantum yield is
       1.4x10-2 in aerated water. The main photoproducts are identified.
     * Vapor pressure: 0.32 torr
     * Volatile with steam

   from [16]HSDB

   Computed Properties
   Molecular Weight                  107.15306 [g/mol]
   Molecular Formula                 C[7]H[9]N
   XLogP3                            1.3
   H-Bond Donor                      1
   H-Bond Acceptor                   1
   Rotatable Bond Count              0
   Exact Mass                        107.073499
   MonoIsotopic Mass                 107.073499
   Topological Polar Surface Area    26
   Heavy Atom Count                  8
   Formal Charge                     0
   Complexity                        70.8
   Isotope Atom Count                0
   Defined Atom Stereocenter Count   0
   Undefined Atom Stereocenter Count 0
   Defined Bond Stereocenter Count   0
   Undefined Bond Stereocenter Count 0
   Covalently-Bonded Unit Count      1
   Feature 3D Donor Count            1
   Feature 3D Cation Count           1
   Feature 3D Ring Count             1
   Effective Rotor Count             0
   Conformer Sampling RMSD           0.4
   CID Conformer Count               [17]1

References

   1. http://toxnet.nlm.nih.gov/cgi-bin/sis/search/r?dbs+hsdb:@term+@rn+@rel+95-53-4
   2. http://toxnet.nlm.nih.gov/cgi-bin/sis/search/r?dbs+hsdb:@term+@rn+@rel+95-53-4
   3. http://toxnet.nlm.nih.gov/cgi-bin/sis/search/r?dbs+hsdb:@term+@rn+@rel+95-53-4
   4. http://toxnet.nlm.nih.gov/cgi-bin/sis/search/r?dbs+hsdb:@term+@rn+@rel+95-53-4
   5. http://toxnet.nlm.nih.gov/cgi-bin/sis/search/r?dbs+hsdb:@term+@rn+@rel+95-53-4
   6. http://toxnet.nlm.nih.gov/cgi-bin/sis/search/r?dbs+hsdb:@term+@rn+@rel+95-53-4
   7. http://toxnet.nlm.nih.gov/cgi-bin/sis/search/r?dbs+hsdb:@term+@rn+@rel+95-53-4
   8. http://toxnet.nlm.nih.gov/cgi-bin/sis/search/r?dbs+hsdb:@term+@rn+@rel+95-53-4
   9. http://toxnet.nlm.nih.gov/cgi-bin/sis/search/r?dbs+hsdb:@term+@rn+@rel+95-53-4
  10. http://toxnet.nlm.nih.gov/cgi-bin/sis/search/r?dbs+hsdb:@term+@rn+@rel+95-53-4
  11. http://toxnet.nlm.nih.gov/cgi-bin/sis/search/r?dbs+hsdb:@term+@rn+@rel+95-53-4
  12. http://toxnet.nlm.nih.gov/cgi-bin/sis/search/r?dbs+hsdb:@term+@rn+@rel+95-53-4
  13. http://toxnet.nlm.nih.gov/cgi-bin/sis/search/r?dbs+hsdb:@term+@rn+@rel+95-53-4
  14. http://toxnet.nlm.nih.gov/cgi-bin/sis/search/r?dbs+hsdb:@term+@rn+@rel+95-53-4
  15. http://toxnet.nlm.nih.gov/cgi-bin/sis/search/r?dbs+hsdb:@term+@rn+@rel+95-53-4
  16. http://toxnet.nlm.nih.gov/cgi-bin/sis/search/r?dbs+hsdb:@term+@rn+@rel+95-53-4
  17. http://pubchem.ncbi.nlm.nih.gov/vw3d/vw3d.cgi?cid=7242
