17395572
  -OEChem-06241222512D

 44 46  0     0  0  0  0  0  0999 V2000
    5.7567   -0.1238    0.0000 S   0  0  0  0  0  0  0  0  0  0  0  0
    7.4888    0.8762    0.0000 O   0  0  0  0  0  0  0  0  0  0  0  0
    6.6227    2.3762    0.0000 N   0  0  0  0  0  0  0  0  0  0  0  0
    4.7861   -1.6183    0.0000 N   0  0  0  0  0  0  0  0  0  0  0  0
    3.9771   -0.2170    0.0000 N   0  0  0  0  0  0  0  0  0  0  0  0
    3.3080   -0.9602    0.0000 N   0  0  0  0  0  0  0  0  0  0  0  0
    3.5823   -4.4623    0.0000 N   0  0  0  0  0  0  0  0  0  0  0  0
    6.1227    4.5669    0.0000 C   0  0  0  0  0  0  0  0  0  0  0  0
    7.1227    4.5669    0.0000 C   0  0  0  0  0  0  0  0  0  0  0  0
    7.7462    3.7850    0.0000 C   0  0  0  0  0  0  0  0  0  0  0  0
    5.4992    3.7850    0.0000 C   0  0  0  0  0  0  0  0  0  0  0  0
    5.7218    2.8101    0.0000 C   0  0  0  0  0  0  0  0  0  0  0  0
    7.5237    2.8101    0.0000 C   0  0  0  0  0  0  0  0  0  0  0  0
    6.6227    1.3762    0.0000 C   0  0  0  0  0  0  0  0  0  0  0  0
    5.7567    0.8762    0.0000 C   0  0  0  0  0  0  0  0  0  0  0  0
    4.8907   -0.6238    0.0000 C   0  0  0  0  0  0  0  0  0  0  0  0
    3.8080   -1.8262    0.0000 C   0  0  0  0  0  0  0  0  0  0  0  0
    3.4013   -2.7398    0.0000 C   0  0  0  0  0  0  0  0  0  0  0  0
    5.5293   -2.2874    0.0000 C   0  0  0  0  0  0  0  0  0  0  0  0
    2.4067   -2.8443    0.0000 C   0  0  0  0  0  0  0  0  0  0  0  0
    3.9890   -3.5488    0.0000 C   0  0  0  0  0  0  0  0  0  0  0  0
    2.0000   -3.7578    0.0000 C   0  0  0  0  0  0  0  0  0  0  0  0
    2.5878   -4.5669    0.0000 C   0  0  0  0  0  0  0  0  0  0  0  0
    7.6813    4.8359    0.0000 H   0  0  0  0  0  0  0  0  0  0  0  0
    6.9848    5.1713    0.0000 H   0  0  0  0  0  0  0  0  0  0  0  0
    6.2607    5.1713    0.0000 H   0  0  0  0  0  0  0  0  0  0  0  0
    5.5641    4.8359    0.0000 H   0  0  0  0  0  0  0  0  0  0  0  0
    8.3048    3.5160    0.0000 H   0  0  0  0  0  0  0  0  0  0  0  0
    8.1328    4.2698    0.0000 H   0  0  0  0  0  0  0  0  0  0  0  0
    5.1127    4.2698    0.0000 H   0  0  0  0  0  0  0  0  0  0  0  0
    4.9406    3.5160    0.0000 H   0  0  0  0  0  0  0  0  0  0  0  0
    7.6616    2.2056    0.0000 H   0  0  0  0  0  0  0  0  0  0  0  0
    8.1437    2.8101    0.0000 H   0  0  0  0  0  0  0  0  0  0  0  0
    5.1018    2.8101    0.0000 H   0  0  0  0  0  0  0  0  0  0  0  0
    5.5838    2.2056    0.0000 H   0  0  0  0  0  0  0  0  0  0  0  0
    5.5446    1.4588    0.0000 H   0  0  0  0  0  0  0  0  0  0  0  0
    5.1461    0.7686    0.0000 H   0  0  0  0  0  0  0  0  0  0  0  0
    5.1144   -2.7482    0.0000 H   0  0  0  0  0  0  0  0  0  0  0  0
    5.9900   -2.7023    0.0000 H   0  0  0  0  0  0  0  0  0  0  0  0
    5.9441   -1.8267    0.0000 H   0  0  0  0  0  0  0  0  0  0  0  0
    2.0423   -2.3427    0.0000 H   0  0  0  0  0  0  0  0  0  0  0  0
    4.6056   -3.4840    0.0000 H   0  0  0  0  0  0  0  0  0  0  0  0
    1.3834   -3.8226    0.0000 H   0  0  0  0  0  0  0  0  0  0  0  0
    2.3356   -5.1332    0.0000 H   0  0  0  0  0  0  0  0  0  0  0  0
  1 15  1  0  0  0  0
  1 16  1  0  0  0  0
  2 14  2  0  0  0  0
  3 12  1  0  0  0  0
  3 13  1  0  0  0  0
  3 14  1  0  0  0  0
  4 16  1  0  0  0  0
  4 17  1  0  0  0  0
  4 19  1  0  0  0  0
  5  6  1  0  0  0  0
  5 16  2  0  0  0  0
  6 17  2  0  0  0  0
  7 21  1  0  0  0  0
  7 23  2  0  0  0  0
  8  9  1  0  0  0  0
  8 11  1  0  0  0  0
  8 26  1  0  0  0  0
  8 27  1  0  0  0  0
  9 10  1  0  0  0  0
  9 24  1  0  0  0  0
  9 25  1  0  0  0  0
 10 13  1  0  0  0  0
 10 28  1  0  0  0  0
 10 29  1  0  0  0  0
 11 12  1  0  0  0  0
 11 30  1  0  0  0  0
 11 31  1  0  0  0  0
 12 34  1  0  0  0  0
 12 35  1  0  0  0  0
 13 32  1  0  0  0  0
 13 33  1  0  0  0  0
 14 15  1  0  0  0  0
 15 36  1  0  0  0  0
 15 37  1  0  0  0  0
 17 18  1  0  0  0  0
 18 20  1  0  0  0  0
 18 21  2  0  0  0  0
 19 38  1  0  0  0  0
 19 39  1  0  0  0  0
 19 40  1  0  0  0  0
 20 22  2  0  0  0  0
 20 41  1  0  0  0  0
 21 42  1  0  0  0  0
 22 23  1  0  0  0  0
 22 43  1  0  0  0  0
 23 44  1  0  0  0  0
M  END
> <PUBCHEM_COMPOUND_CID>
17395572

> <PUBCHEM_COMPOUND_CANONICALIZED>
1

> <PUBCHEM_CACTVS_COMPLEXITY>
389

> <PUBCHEM_CACTVS_HBOND_ACCEPTOR>
5

> <PUBCHEM_CACTVS_HBOND_DONOR>
0

> <PUBCHEM_CACTVS_ROTATABLE_BOND>
4

> <PUBCHEM_CACTVS_SUBSKEYS>
AAADceB7oABAAAAAAAAAAAAAAAAAAWAAAAAsAAAABYAAAAAB4AAAHgQIAAAADADF2wS/kJcMEAiqAjN3dACS0CtxArAd2CA4ZJiIKOLA2ZGEIAhgjgLIyAcQAAAMAAAAAAAAAAAAAAAAAAAAAAAAAAAAAA==

> <PUBCHEM_IUPAC_OPENEYE_NAME>
1-(azepan-1-yl)-2-[[4-methyl-5-(3-pyridyl)-1,2,4-triazol-3-yl]sulfanyl]ethanone

> <PUBCHEM_IUPAC_CAS_NAME>
1-(1-azepanyl)-2-[[4-methyl-5-(3-pyridinyl)-1,2,4-triazol-3-yl]thio]ethanone

> <PUBCHEM_IUPAC_NAME>
1-(azepan-1-yl)-2-[(4-methyl-5-pyridin-3-yl-1,2,4-triazol-3-yl)sulfanyl]ethanone

> <PUBCHEM_IUPAC_SYSTEMATIC_NAME>
1-(azepan-1-yl)-2-[(4-methyl-5-pyridin-3-yl-1,2,4-triazol-3-yl)sulfanyl]ethanone

> <PUBCHEM_IUPAC_TRADITIONAL_NAME>
1-(azepan-1-yl)-2-[[4-methyl-5-(3-pyridyl)-1,2,4-triazol-3-yl]thio]ethanone

> <PUBCHEM_IUPAC_INCHI>
InChI=1S/C16H21N5OS/c1-20-15(13-7-6-8-17-11-13)18-19-16(20)23-12-14(22)21-9-4-2-3-5-10-21/h6-8,11H,2-5,9-10,12H2,1H3

> <PUBCHEM_IUPAC_INCHIKEY>
OZDAQSTXDYTNMW-UHFFFAOYSA-N

> <PUBCHEM_XLOGP3_AA>
1.6

> <PUBCHEM_EXACT_MASS>
331.146681

> <PUBCHEM_MOLECULAR_FORMULA>
C16H21N5OS

> <PUBCHEM_MOLECULAR_WEIGHT>
331.43584

> <PUBCHEM_OPENEYE_CAN_SMILES>
CN1C(=NN=C1SCC(=O)N2CCCCCC2)C3=CN=CC=C3

> <PUBCHEM_OPENEYE_ISO_SMILES>
CN1C(=NN=C1SCC(=O)N2CCCCCC2)C3=CN=CC=C3

> <PUBCHEM_CACTVS_TPSA>
89.2

> <PUBCHEM_MONOISOTOPIC_WEIGHT>
331.146681

> <PUBCHEM_TOTAL_CHARGE>
0

> <PUBCHEM_HEAVY_ATOM_COUNT>
23

> <PUBCHEM_ATOM_DEF_STEREO_COUNT>
0

> <PUBCHEM_ATOM_UDEF_STEREO_COUNT>
0

> <PUBCHEM_BOND_DEF_STEREO_COUNT>
0

> <PUBCHEM_BOND_UDEF_STEREO_COUNT>
0

> <PUBCHEM_ISOTOPIC_ATOM_COUNT>
0

> <PUBCHEM_COMPONENT_COUNT>
1

> <PUBCHEM_CACTVS_TAUTO_COUNT>
1

> <PUBCHEM_COORDINATE_TYPE>
1
5
255

> <PUBCHEM_BONDANNOTATIONS>
18  20  8
18  21  8
20  22  8
22  23  8
4  16  8
4  17  8
5  16  8
5  6  8
6  17  8
7  21  8
7  23  8

$$$$

