   Color/Form
        Crystals from ligroin
   from [1]HSDB

   Boiling Point
        248.5 deg C
   from [2]HSDB

   Melting Point
        29.5 deg C
   from [3]HSDB

   Density/Specific Gravity
        1.065 @ 25 deg C
   from [4]HSDB

   Octanol/Water Partition Coefficient
        log Kow = 1.23 [Debnath AK et al; Environ Mol Mutagen 19: 37-52
   (1992)] [5]PubMed Abstract
   from [6]HSDB

   Solubilities
        Very soluble in ethanol
   from [7]HSDB

   Spectral Properties

     * Index of refraction = 1.5647 @ 20 deg C
     * MASS: 71124 (NIST/EPA/MSDC Mass Spectra Database, 1990 version);
       325 (National Bureau Standards)
     * IR: 18724 (Sadtler Research Laboratories IR Grating collection)
     * UV: 6909 (Sadtler Research Laboratories Spectral Collection)
     * 1H NMR: 6105 (Sadtler Research Laboratories Spectral Collection)

   from [8]HSDB

   Computed Properties
   Molecular Weight                  137.17904 [g/mol]
   Molecular Formula                 C[8]H[11]NO
   XLogP3                            1.2
   H-Bond Donor                      1
   H-Bond Acceptor                   2
   Rotatable Bond Count              1
   Exact Mass                        137.084064
   MonoIsotopic Mass                 137.084064
   Topological Polar Surface Area    35.2
   Heavy Atom Count                  10
   Formal Charge                     0
   Complexity                        105
   Isotope Atom Count                0
   Defined Atom Stereocenter Count   0
   Undefined Atom Stereocenter Count 0
   Defined Bond Stereocenter Count   0
   Undefined Bond Stereocenter Count 0
   Covalently-Bonded Unit Count      1
   Feature 3D Acceptor Count         1
   Feature 3D Donor Count            1
   Feature 3D Cation Count           1
   Feature 3D Ring Count             1
   Effective Rotor Count             1
   Conformer Sampling RMSD           0.4
   CID Conformer Count               [9]2

References

   1. http://toxnet.nlm.nih.gov/cgi-bin/sis/search/r?dbs+hsdb:@term+@rn+@rel+102-50-1
   2. http://toxnet.nlm.nih.gov/cgi-bin/sis/search/r?dbs+hsdb:@term+@rn+@rel+102-50-1
   3. http://toxnet.nlm.nih.gov/cgi-bin/sis/search/r?dbs+hsdb:@term+@rn+@rel+102-50-1
   4. http://toxnet.nlm.nih.gov/cgi-bin/sis/search/r?dbs+hsdb:@term+@rn+@rel+102-50-1
   5. http://www.ncbi.nlm.nih.gov/entrez/query.fcgi?cmd=Retrieve&db=pubmed&dopt=Abstract&list_uids=1732103
   6. http://toxnet.nlm.nih.gov/cgi-bin/sis/search/r?dbs+hsdb:@term+@rn+@rel+102-50-1
   7. http://toxnet.nlm.nih.gov/cgi-bin/sis/search/r?dbs+hsdb:@term+@rn+@rel+102-50-1
   8. http://toxnet.nlm.nih.gov/cgi-bin/sis/search/r?dbs+hsdb:@term+@rn+@rel+102-50-1
   9. http://pubchem.ncbi.nlm.nih.gov/vw3d/vw3d.cgi?cid=7610
