64989
  -OEChem-07051213012D

 31 32  0     0  0  0  0  0  0999 V2000
    8.9702    2.4952    0.0000 P   0  0  0  0  0  0  0  0  0  0  0  0
    7.6811    1.3384    0.0000 O   0  0  0  0  0  0  0  0  0  0  0  0
    9.2809    3.4457    0.0000 O   0  0  0  0  0  0  0  0  0  0  0  0
    9.9208    2.1845    0.0000 O   0  0  0  0  0  0  0  0  0  0  0  0
    4.2690   -3.5736    0.0000 O   0  0  0  0  0  0  0  0  0  0  0  0
    8.0197    2.8058    0.0000 O   0  0  0  0  0  0  0  0  0  0  0  0
    6.0812   -0.7688    0.0000 N   0  0  0  0  0  0  0  0  0  0  0  0
    4.2690   -0.5736    0.0000 N   0  0  0  0  0  0  0  0  0  0  0  0
    6.0812   -2.3783    0.0000 N   0  0  0  0  0  0  0  0  0  0  0  0
    3.4030   -2.0736    0.0000 N   0  0  0  0  0  0  0  0  0  0  0  0
    2.5369   -0.5736    0.0000 N   0  0  0  0  0  0  0  0  0  0  0  0
    6.3919    0.1817    0.0000 C   0  0  0  0  0  0  0  0  0  0  0  0
    5.1350   -1.0736    0.0000 C   0  0  0  0  0  0  0  0  0  0  0  0
    7.3704    0.3879    0.0000 C   0  0  0  0  0  0  0  0  0  0  0  0
    5.1350   -2.0736    0.0000 C   0  0  0  0  0  0  0  0  0  0  0  0
    6.6648   -1.5736    0.0000 C   0  0  0  0  0  0  0  0  0  0  0  0
    8.6596    1.5447    0.0000 C   0  0  0  0  0  0  0  0  0  0  0  0
    4.2690   -2.5736    0.0000 C   0  0  0  0  0  0  0  0  0  0  0  0
    3.4030   -1.0736    0.0000 C   0  0  0  0  0  0  0  0  0  0  0  0
    6.3713    0.8014    0.0000 H   0  0  0  0  0  0  0  0  0  0  0  0
    5.7781    0.2690    0.0000 H   0  0  0  0  0  0  0  0  0  0  0  0
    7.3910   -0.2317    0.0000 H   0  0  0  0  0  0  0  0  0  0  0  0
    7.9842    0.3006    0.0000 H   0  0  0  0  0  0  0  0  0  0  0  0
    7.2848   -1.5736    0.0000 H   0  0  0  0  0  0  0  0  0  0  0  0
    4.2690    0.0464    0.0000 H   0  0  0  0  0  0  0  0  0  0  0  0
    8.6801    0.9250    0.0000 H   0  0  0  0  0  0  0  0  0  0  0  0
    9.2734    1.4573    0.0000 H   0  0  0  0  0  0  0  0  0  0  0  0
    2.0000   -0.8836    0.0000 H   0  0  0  0  0  0  0  0  0  0  0  0
    2.5369    0.0464    0.0000 H   0  0  0  0  0  0  0  0  0  0  0  0
    9.8876    3.5736    0.0000 H   0  0  0  0  0  0  0  0  0  0  0  0
   10.0486    1.5778    0.0000 H   0  0  0  0  0  0  0  0  0  0  0  0
  1  3  1  0  0  0  0
  1  4  1  0  0  0  0
  1  6  2  0  0  0  0
  1 17  1  0  0  0  0
  2 14  1  0  0  0  0
  2 17  1  0  0  0  0
  3 30  1  0  0  0  0
  4 31  1  0  0  0  0
  5 18  2  0  0  0  0
  7 12  1  0  0  0  0
  7 13  1  0  0  0  0
  7 16  1  0  0  0  0
  8 13  1  0  0  0  0
  8 19  1  0  0  0  0
  8 25  1  0  0  0  0
  9 15  1  0  0  0  0
  9 16  2  0  0  0  0
 10 18  1  0  0  0  0
 10 19  2  0  0  0  0
 11 19  1  0  0  0  0
 11 28  1  0  0  0  0
 11 29  1  0  0  0  0
 12 14  1  0  0  0  0
 12 20  1  0  0  0  0
 12 21  1  0  0  0  0
 13 15  2  0  0  0  0
 14 22  1  0  0  0  0
 14 23  1  0  0  0  0
 15 18  1  0  0  0  0
 16 24  1  0  0  0  0
 17 26  1  0  0  0  0
 17 27  1  0  0  0  0
M  END
> <PUBCHEM_COMPOUND_CID>
64989

> <PUBCHEM_COMPOUND_CANONICALIZED>
1

> <PUBCHEM_CACTVS_COMPLEXITY>
437

> <PUBCHEM_CACTVS_HBOND_ACCEPTOR>
6

> <PUBCHEM_CACTVS_HBOND_DONOR>
4

> <PUBCHEM_CACTVS_ROTATABLE_BOND>
5

> <PUBCHEM_CACTVS_SUBSKEYS>
AAADccBzuAIAAAAAAAAAAAAAAAAAAWAAAAAgAAAAAAAAAEABgAAAHggQCCAACAjhlgYFsBfMFBCoQQdxdICAgC0XEKABUAGoVECCSAhASCAVAIAIAALQAGAAAAAAAAAAAAAAAAAAAAAAAAAAAAAAAAAAAA==

> <PUBCHEM_IUPAC_OPENEYE_NAME>
2-(2-amino-6-oxo-3H-purin-9-yl)ethoxymethylphosphonic acid

> <PUBCHEM_IUPAC_CAS_NAME>
2-(2-amino-6-oxo-3H-purin-9-yl)ethoxymethylphosphonic acid

> <PUBCHEM_IUPAC_NAME>
2-(2-amino-6-oxo-3H-purin-9-yl)ethoxymethylphosphonic acid

> <PUBCHEM_IUPAC_SYSTEMATIC_NAME>
2-(2-azanyl-6-oxidanylidene-3H-purin-9-yl)ethoxymethylphosphonic acid

> <PUBCHEM_IUPAC_TRADITIONAL_NAME>
2-(2-amino-6-keto-3H-purin-9-yl)ethoxymethylphosphonic acid

> <PUBCHEM_IUPAC_INCHI>
InChI=1S/C8H12N5O5P/c9-8-11-6-5(7(14)12-8)10-3-13(6)1-2-18-4-19(15,16)17/h3H,1-2,4H2,(H2,15,16,17)(H3,9,11,12,14)

> <PUBCHEM_IUPAC_INCHIKEY>
NZVORGQIEFTOQZ-UHFFFAOYSA-N

> <PUBCHEM_XLOGP3>
-2.7

> <PUBCHEM_EXACT_MASS>
289.057605

> <PUBCHEM_MOLECULAR_FORMULA>
C8H12N5O5P

> <PUBCHEM_MOLECULAR_WEIGHT>
289.185142

> <PUBCHEM_OPENEYE_CAN_SMILES>
C1=NC2=C(N1CCOCP(=O)(O)O)NC(=NC2=O)N

> <PUBCHEM_OPENEYE_ISO_SMILES>
C1=NC2=C(N1CCOCP(=O)(O)O)NC(=NC2=O)N

> <PUBCHEM_CACTVS_TPSA>
152

> <PUBCHEM_MONOISOTOPIC_WEIGHT>
289.057605

> <PUBCHEM_TOTAL_CHARGE>
0

> <PUBCHEM_HEAVY_ATOM_COUNT>
19

> <PUBCHEM_ATOM_DEF_STEREO_COUNT>
0

> <PUBCHEM_ATOM_UDEF_STEREO_COUNT>
0

> <PUBCHEM_BOND_DEF_STEREO_COUNT>
0

> <PUBCHEM_BOND_UDEF_STEREO_COUNT>
0

> <PUBCHEM_ISOTOPIC_ATOM_COUNT>
0

> <PUBCHEM_COMPONENT_COUNT>
1

> <PUBCHEM_CACTVS_TAUTO_COUNT>
9

> <PUBCHEM_COORDINATE_TYPE>
1
5
255

> <PUBCHEM_BONDANNOTATIONS>
10  18  8
10  19  8
13  15  8
15  18  8
7  13  8
7  16  8
8  13  8
8  19  8
9  15  8
9  16  8

$$$$

