54675783
  -OEChem-07051212532D

 60 63  0     1  0  0  0  0  0999 V2000
    6.0678    1.5969    0.0000 O   0  0  0  0  0  0  0  0  0  0  0  0
    6.9338    2.0969    0.0000 O   0  0  0  0  0  0  0  0  0  0  0  0
    4.8427    2.0751    0.0000 O   0  0  0  0  0  0  0  0  0  0  0  0
    8.6822    2.1315    0.0000 O   0  0  0  0  0  0  0  0  0  0  0  0
    3.4037   -0.9273    0.0000 O   0  0  0  0  0  0  0  0  0  0  0  0
   10.5194    2.1746    0.0000 O   0  0  0  0  0  0  0  0  0  0  0  0
    3.4075    2.1210    0.0000 O   0  0  0  0  0  0  0  0  0  0  0  0
    5.1854   -1.9377    0.0000 N   0  0  0  0  0  0  0  0  0  0  0  0
   10.5194   -1.9808    0.0000 N   0  0  0  0  0  0  0  0  0  0  0  0
    2.5357    0.6244    0.0000 N   0  0  0  0  0  0  0  0  0  0  0  0
    6.0678   -0.4031    0.0000 C   0  0  1  0  0  0  0  0  0  0  0  0
    6.0678    0.5969    0.0000 C   0  0  1  0  0  0  0  0  0  0  0  0
    6.9338   -0.9031    0.0000 C   0  0  0  0  0  0  0  0  0  0  0  0
    7.7998   -0.4031    0.0000 C   0  0  1  0  0  0  0  0  0  0  0  0
    5.1738   -0.9378    0.0000 C   0  0  1  0  0  0  0  0  0  0  0  0
    7.7998    0.5969    0.0000 C   0  0  0  0  0  0  0  0  0  0  0  0
    6.9338    1.0969    0.0000 C   0  0  0  0  0  0  0  0  0  0  0  0
    8.6938   -0.9378    0.0000 C   0  0  0  0  0  0  0  0  0  0  0  0
    5.1738    1.1316    0.0000 C   0  0  0  0  0  0  0  0  0  0  0  0
    4.2678   -0.4239    0.0000 C   0  0  0  0  0  0  0  0  0  0  0  0
    9.5998   -0.4239    0.0000 C   0  0  0  0  0  0  0  0  0  0  0  0
    4.2678    0.6177    0.0000 C   0  0  0  0  0  0  0  0  0  0  0  0
    8.6938    1.1316    0.0000 C   0  0  0  0  0  0  0  0  0  0  0  0
    9.5998    0.6177    0.0000 C   0  0  0  0  0  0  0  0  0  0  0  0
   10.5310   -0.9808    0.0000 C   0  0  0  0  0  0  0  0  0  0  0  0
    4.3252   -2.4477    0.0000 C   0  0  0  0  0  0  0  0  0  0  0  0
    6.0572   -2.4276    0.0000 C   0  0  0  0  0  0  0  0  0  0  0  0
   10.5310    1.1746    0.0000 C   0  0  0  0  0  0  0  0  0  0  0  0
    3.4037    1.1211    0.0000 C   0  0  0  0  0  0  0  0  0  0  0  0
   11.4748   -0.4456    0.0000 C   0  0  0  0  0  0  0  0  0  0  0  0
   11.4748    0.6394    0.0000 C   0  0  0  0  0  0  0  0  0  0  0  0
   11.3796   -2.4907    0.0000 C   0  0  0  0  0  0  0  0  0  0  0  0
    9.6477   -2.4707    0.0000 C   0  0  0  0  0  0  0  0  0  0  0  0
    6.0743   -1.2531    0.0000 H   0  0  0  0  0  0  0  0  0  0  0  0
    6.5353   -1.3780    0.0000 H   0  0  0  0  0  0  0  0  0  0  0  0
    7.3323   -1.3780    0.0000 H   0  0  0  0  0  0  0  0  0  0  0  0
    7.7933   -1.2531    0.0000 H   0  0  0  0  0  0  0  0  0  0  0  0
    5.7149   -1.2405    0.0000 H   0  0  0  0  0  0  0  0  0  0  0  0
    8.2892   -1.4076    0.0000 H   0  0  0  0  0  0  0  0  0  0  0  0
    9.0874   -1.4168    0.0000 H   0  0  0  0  0  0  0  0  0  0  0  0
    5.6693    2.0718    0.0000 H   0  0  0  0  0  0  0  0  0  0  0  0
    4.0090   -1.9144    0.0000 H   0  0  0  0  0  0  0  0  0  0  0  0
    3.7919   -2.7639    0.0000 H   0  0  0  0  0  0  0  0  0  0  0  0
    4.6414   -2.9810    0.0000 H   0  0  0  0  0  0  0  0  0  0  0  0
    5.7534   -2.9681    0.0000 H   0  0  0  0  0  0  0  0  0  0  0  0
    6.5976   -2.7314    0.0000 H   0  0  0  0  0  0  0  0  0  0  0  0
    6.3609   -1.8872    0.0000 H   0  0  0  0  0  0  0  0  0  0  0  0
    4.2334    2.1899    0.0000 H   0  0  0  0  0  0  0  0  0  0  0  0
    9.2155    2.4477    0.0000 H   0  0  0  0  0  0  0  0  0  0  0  0
   12.0105   -0.7577    0.0000 H   0  0  0  0  0  0  0  0  0  0  0  0
   12.0105    0.9515    0.0000 H   0  0  0  0  0  0  0  0  0  0  0  0
    2.0000    0.9365    0.0000 H   0  0  0  0  0  0  0  0  0  0  0  0
    2.5334    0.0044    0.0000 H   0  0  0  0  0  0  0  0  0  0  0  0
   11.0528    2.4907    0.0000 H   0  0  0  0  0  0  0  0  0  0  0  0
   11.0634   -3.0241    0.0000 H   0  0  0  0  0  0  0  0  0  0  0  0
   11.9129   -2.8069    0.0000 H   0  0  0  0  0  0  0  0  0  0  0  0
   11.6958   -1.9574    0.0000 H   0  0  0  0  0  0  0  0  0  0  0  0
    9.3439   -1.9302    0.0000 H   0  0  0  0  0  0  0  0  0  0  0  0
    9.1072   -2.7745    0.0000 H   0  0  0  0  0  0  0  0  0  0  0  0
    9.9515   -3.0112    0.0000 H   0  0  0  0  0  0  0  0  0  0  0  0
 12  1  1  6  0  0  0
  1 41  1  0  0  0  0
  2 17  2  0  0  0  0
  3 19  1  0  0  0  0
  3 48  1  0  0  0  0
  4 23  1  0  0  0  0
  4 49  1  0  0  0  0
  5 20  2  0  0  0  0
  6 28  1  0  0  0  0
  6 54  1  0  0  0  0
  7 29  2  0  0  0  0
 15  8  1  6  0  0  0
  8 26  1  0  0  0  0
  8 27  1  0  0  0  0
  9 25  1  0  0  0  0
  9 32  1  0  0  0  0
  9 33  1  0  0  0  0
 10 29  1  0  0  0  0
 10 52  1  0  0  0  0
 10 53  1  0  0  0  0
 11 12  1  0  0  0  0
 11 13  1  0  0  0  0
 11 15  1  0  0  0  0
 11 34  1  6  0  0  0
 12 17  1  0  0  0  0
 12 19  1  0  0  0  0
 13 14  1  0  0  0  0
 13 35  1  0  0  0  0
 13 36  1  0  0  0  0
 14 16  1  0  0  0  0
 14 18  1  0  0  0  0
 14 37  1  6  0  0  0
 15 20  1  0  0  0  0
 15 38  1  0  0  0  0
 16 17  1  0  0  0  0
 16 23  2  0  0  0  0
 18 21  1  0  0  0  0
 18 39  1  0  0  0  0
 18 40  1  0  0  0  0
 19 22  2  0  0  0  0
 20 22  1  0  0  0  0
 21 24  1  0  0  0  0
 21 25  2  0  0  0  0
 22 29  1  0  0  0  0
 23 24  1  0  0  0  0
 24 28  2  0  0  0  0
 25 30  1  0  0  0  0
 26 42  1  0  0  0  0
 26 43  1  0  0  0  0
 26 44  1  0  0  0  0
 27 45  1  0  0  0  0
 27 46  1  0  0  0  0
 27 47  1  0  0  0  0
 28 31  1  0  0  0  0
 30 31  2  0  0  0  0
 30 50  1  0  0  0  0
 31 51  1  0  0  0  0
 32 55  1  0  0  0  0
 32 56  1  0  0  0  0
 32 57  1  0  0  0  0
 33 58  1  0  0  0  0
 33 59  1  0  0  0  0
 33 60  1  0  0  0  0
M  END
> <PUBCHEM_COMPOUND_CID>
54675783

> <PUBCHEM_COMPOUND_CANONICALIZED>
1

> <PUBCHEM_CACTVS_COMPLEXITY>
971

> <PUBCHEM_CACTVS_HBOND_ACCEPTOR>
9

> <PUBCHEM_CACTVS_HBOND_DONOR>
5

> <PUBCHEM_CACTVS_ROTATABLE_BOND>
3

> <PUBCHEM_CACTVS_SUBSKEYS>
AAADceB7OAAAAAAAAAAAAAAAAAAAAAAAAAAwYIEAAAAAAACBAAAAHgAQCAAADWzBmAQyxoNAAgCIAqVSUAKCAAAhIgAIiAHObMgJJz7KkLOEcAhn4BFJ2Qe+zvCugEABQAAaAADAgAaAADQAAAAAAAAAAA==

> <PUBCHEM_IUPAC_OPENEYE_NAME>
(4S,4aS,5aR,12aR)-4,7-bis(dimethylamino)-1,10,11,12a-tetrahydroxy-3,12-dioxo-4a,5,5a,6-tetrahydro-4H-tetracene-2-carboxamide

> <PUBCHEM_IUPAC_CAS_NAME>
(4S,4aS,5aR,12aR)-4,7-bis(dimethylamino)-1,10,11,12a-tetrahydroxy-3,12-dioxo-4a,5,5a,6-tetrahydro-4H-tetracene-2-carboxamide

> <PUBCHEM_IUPAC_NAME>
(4S,4aS,5aR,12aR)-4,7-bis(dimethylamino)-1,10,11,12a-tetrahydroxy-3,12-dioxo-4a,5,5a,6-tetrahydro-4H-tetracene-2-carboxamide

> <PUBCHEM_IUPAC_SYSTEMATIC_NAME>
(4S,4aS,5aR,12aR)-4,7-bis(dimethylamino)-1,10,11,12a-tetrakis(oxidanyl)-3,12-bis(oxidanylidene)-4a,5,5a,6-tetrahydro-4H-tetracene-2-carboxamide

> <PUBCHEM_IUPAC_TRADITIONAL_NAME>
(4S,4aS,5aR,12aR)-4,7-bis(dimethylamino)-1,10,11,12a-tetrahydroxy-3,12-diketo-4a,5,5a,6-tetrahydro-4H-tetracene-2-carboxamide

> <PUBCHEM_IUPAC_INCHI>
InChI=1S/C23H27N3O7/c1-25(2)12-5-6-13(27)15-10(12)7-9-8-11-17(26(3)4)19(29)16(22(24)32)21(31)23(11,33)20(30)14(9)18(15)28/h5-6,9,11,17,27-28,31,33H,7-8H2,1-4H3,(H2,24,32)/t9-,11-,17-,23-/m0/s1

> <PUBCHEM_IUPAC_INCHIKEY>
FFTVPQUHLQBXQZ-KVUCHLLUSA-N

> <PUBCHEM_XLOGP3>
-0.6

> <PUBCHEM_EXACT_MASS>
457.1849

> <PUBCHEM_MOLECULAR_FORMULA>
C23H27N3O7

> <PUBCHEM_MOLECULAR_WEIGHT>
457.47638

> <PUBCHEM_OPENEYE_CAN_SMILES>
CN(C)C1C2CC3CC4=C(C=CC(=C4C(=C3C(=O)C2(C(=C(C1=O)C(=O)N)O)O)O)O)N(C)C

> <PUBCHEM_OPENEYE_ISO_SMILES>
CN(C)[C@H]1[C@@H]2C[C@@H]3CC4=C(C=CC(=C4C(=C3C(=O)[C@@]2(C(=C(C1=O)C(=O)N)O)O)O)O)N(C)C

> <PUBCHEM_CACTVS_TPSA>
165

> <PUBCHEM_MONOISOTOPIC_WEIGHT>
457.1849

> <PUBCHEM_TOTAL_CHARGE>
0

> <PUBCHEM_HEAVY_ATOM_COUNT>
33

> <PUBCHEM_ATOM_DEF_STEREO_COUNT>
4

> <PUBCHEM_ATOM_UDEF_STEREO_COUNT>
0

> <PUBCHEM_BOND_DEF_STEREO_COUNT>
0

> <PUBCHEM_BOND_UDEF_STEREO_COUNT>
0

> <PUBCHEM_ISOTOPIC_ATOM_COUNT>
0

> <PUBCHEM_COMPONENT_COUNT>
1

> <PUBCHEM_CACTVS_TAUTO_COUNT>
288

> <PUBCHEM_COORDINATE_TYPE>
1
5
255

> <PUBCHEM_BONDANNOTATIONS>
12  1  6
11  34  6
14  37  6
21  24  8
21  25  8
24  28  8
25  30  8
28  31  8
30  31  8
15  8  6

$$$$

