   Color/Form
        COLORLESS LIQUID
   from [1]HSDB

   Odor
        POWERFUL, FATTY, GREEN, CITRUS ODOR
   from [2]HSDB

   Taste
        FRUITY TASTE
   from [3]HSDB

   Boiling Point
        173 DEG C @ 760 MM HG
   from [4]HSDB

   Melting Point
        FP: -67.1 DEG C
   from [5]HSDB

   Density/Specific Gravity
        0.8546 @ 16 DEG C/4 DEG C
   from [6]HSDB

   Solubilities
        INSOL IN WATER; SOL IN ALL PROP WITH ALCOHOL, ETHER
   from [7]HSDB

   Spectral Properties
        INDEX OF REFRACTION: 1.4445 @ 20 DEG C/D; SADTLER REF NUMBER: 1645
   (IR, PRISM)
   from [8]HSDB

   Vapor Density
        4.35 (AIR= 1)
   from [9]HSDB

   Computed Properties
   Molecular Weight                  126.19616 [g/mol]
   Molecular Formula                 C[8]H[14]O
   XLogP3                            1.9
   H-Bond Donor                      0
   H-Bond Acceptor                   1
   Rotatable Bond Count              3
   Tautomer Count                    3
   Exact Mass                        126.104465
   MonoIsotopic Mass                 126.104465
   Topological Polar Surface Area    17.1
   Heavy Atom Count                  9
   Formal Charge                     0
   Complexity                        119
   Isotope Atom Count                0
   Defined Atom Stereocenter Count   0
   Undefined Atom Stereocenter Count 0
   Defined Bond Stereocenter Count   0
   Undefined Bond Stereocenter Count 0
   Covalently-Bonded Unit Count      1
   Feature 3D Acceptor Count         1
   Feature 3D Hydrophobe Count       1
   Effective Rotor Count             3
   Conformer Sampling RMSD           0.6
   CID Conformer Count               [10]33

References

   1. http://toxnet.nlm.nih.gov/cgi-bin/sis/search/r?dbs+hsdb:@term+@rn+@rel+409-02-9
   2. http://toxnet.nlm.nih.gov/cgi-bin/sis/search/r?dbs+hsdb:@term+@rn+@rel+409-02-9
   3. http://toxnet.nlm.nih.gov/cgi-bin/sis/search/r?dbs+hsdb:@term+@rn+@rel+409-02-9
   4. http://toxnet.nlm.nih.gov/cgi-bin/sis/search/r?dbs+hsdb:@term+@rn+@rel+409-02-9
   5. http://toxnet.nlm.nih.gov/cgi-bin/sis/search/r?dbs+hsdb:@term+@rn+@rel+409-02-9
   6. http://toxnet.nlm.nih.gov/cgi-bin/sis/search/r?dbs+hsdb:@term+@rn+@rel+409-02-9
   7. http://toxnet.nlm.nih.gov/cgi-bin/sis/search/r?dbs+hsdb:@term+@rn+@rel+409-02-9
   8. http://toxnet.nlm.nih.gov/cgi-bin/sis/search/r?dbs+hsdb:@term+@rn+@rel+409-02-9
   9. http://toxnet.nlm.nih.gov/cgi-bin/sis/search/r?dbs+hsdb:@term+@rn+@rel+409-02-9
  10. http://pubchem.ncbi.nlm.nih.gov/vw3d/vw3d.cgi?cid=9862
