5280781
  -OEChem-07051212502D

 54 57  0     1  0  0  0  0  0999 V2000
   12.4583    1.1060    0.0000 O   0  0  0  0  0  0  0  0  0  0  0  0
   10.7263    1.0994    0.0000 O   0  0  0  0  0  0  0  0  0  0  0  0
   12.4699   -1.8939    0.0000 O   0  0  0  0  0  0  0  0  0  0  0  0
   14.1981   -0.8873    0.0000 O   0  0  0  0  0  0  0  0  0  0  0  0
   10.7340   -0.9006    0.0000 O   0  0  0  0  0  0  0  0  0  0  0  0
   14.1865    2.1127    0.0000 O   0  0  0  0  0  0  0  0  0  0  0  0
    7.1962    1.0752    0.0000 O   0  0  0  0  0  0  0  0  0  0  0  0
    8.9446   -1.9594    0.0000 O   0  0  0  0  0  0  0  0  0  0  0  0
    7.1962   -1.9248    0.0000 O   0  0  0  0  0  0  0  0  0  0  0  0
    2.8660   -2.4248    0.0000 O   0  0  0  0  0  0  0  0  0  0  0  0
   12.4660   -0.8939    0.0000 C   0  0  1  0  0  0  0  0  0  0  0  0
   13.3301   -0.3906    0.0000 C   0  0  1  0  0  0  0  0  0  0  0  0
   11.5981   -0.3973    0.0000 C   0  0  2  0  0  0  0  0  0  0  0  0
   13.3263    0.6094    0.0000 C   0  0  1  0  0  0  0  0  0  0  0  0
   11.5942    0.6027    0.0000 C   0  0  1  0  0  0  0  0  0  0  0  0
   14.1904    1.1127    0.0000 C   0  0  0  0  0  0  0  0  0  0  0  0
    9.8622    0.5960    0.0000 C   0  0  0  0  0  0  0  0  0  0  0  0
    8.9561    1.1099    0.0000 C   0  0  0  0  0  0  0  0  0  0  0  0
    9.8622   -0.4456    0.0000 C   0  0  0  0  0  0  0  0  0  0  0  0
    8.0622    0.5752    0.0000 C   0  0  0  0  0  0  0  0  0  0  0  0
    8.0622   -0.4248    0.0000 C   0  0  0  0  0  0  0  0  0  0  0  0
    8.9561   -0.9594    0.0000 C   0  0  0  0  0  0  0  0  0  0  0  0
    7.1962   -0.9248    0.0000 C   0  0  0  0  0  0  0  0  0  0  0  0
    6.3301   -0.4248    0.0000 C   0  0  0  0  0  0  0  0  0  0  0  0
    6.3301    0.5752    0.0000 C   0  0  0  0  0  0  0  0  0  0  0  0
    5.4641   -0.9248    0.0000 C   0  0  0  0  0  0  0  0  0  0  0  0
    4.5981   -0.4248    0.0000 C   0  0  0  0  0  0  0  0  0  0  0  0
    5.4641   -1.9248    0.0000 C   0  0  0  0  0  0  0  0  0  0  0  0
    3.7320   -0.9248    0.0000 C   0  0  0  0  0  0  0  0  0  0  0  0
    4.5981   -2.4248    0.0000 C   0  0  0  0  0  0  0  0  0  0  0  0
    3.7320   -1.9248    0.0000 C   0  0  0  0  0  0  0  0  0  0  0  0
    2.0000   -1.9248    0.0000 C   0  0  0  0  0  0  0  0  0  0  0  0
   11.9303   -1.2060    0.0000 H   0  0  0  0  0  0  0  0  0  0  0  0
   13.8659   -0.0785    0.0000 H   0  0  0  0  0  0  0  0  0  0  0  0
   11.0600   -0.0894    0.0000 H   0  0  0  0  0  0  0  0  0  0  0  0
   13.3239    1.2294    0.0000 H   0  0  0  0  0  0  0  0  0  0  0  0
   11.5918    1.2227    0.0000 H   0  0  0  0  0  0  0  0  0  0  0  0
   14.4047    0.5309    0.0000 H   0  0  0  0  0  0  0  0  0  0  0  0
   14.8005    1.2227    0.0000 H   0  0  0  0  0  0  0  0  0  0  0  0
   13.0080   -2.2019    0.0000 H   0  0  0  0  0  0  0  0  0  0  0  0
   14.7338   -0.5752    0.0000 H   0  0  0  0  0  0  0  0  0  0  0  0
   10.7364   -1.5206    0.0000 H   0  0  0  0  0  0  0  0  0  0  0  0
   14.7222    2.4248    0.0000 H   0  0  0  0  0  0  0  0  0  0  0  0
    8.9490    1.7298    0.0000 H   0  0  0  0  0  0  0  0  0  0  0  0
   10.3979   -0.7577    0.0000 H   0  0  0  0  0  0  0  0  0  0  0  0
    5.7932    0.8852    0.0000 H   0  0  0  0  0  0  0  0  0  0  0  0
    9.4779   -2.2756    0.0000 H   0  0  0  0  0  0  0  0  0  0  0  0
    4.5981    0.1952    0.0000 H   0  0  0  0  0  0  0  0  0  0  0  0
    6.0010   -2.2348    0.0000 H   0  0  0  0  0  0  0  0  0  0  0  0
    3.1951   -0.6148    0.0000 H   0  0  0  0  0  0  0  0  0  0  0  0
    4.5981   -3.0448    0.0000 H   0  0  0  0  0  0  0  0  0  0  0  0
    2.3100   -1.3878    0.0000 H   0  0  0  0  0  0  0  0  0  0  0  0
    1.4631   -1.6148    0.0000 H   0  0  0  0  0  0  0  0  0  0  0  0
    1.6900   -2.4617    0.0000 H   0  0  0  0  0  0  0  0  0  0  0  0
  1 14  1  0  0  0  0
  1 15  1  0  0  0  0
 15  2  1  6  0  0  0
  2 17  1  0  0  0  0
 11  3  1  6  0  0  0
  3 40  1  0  0  0  0
 12  4  1  1  0  0  0
  4 41  1  0  0  0  0
 13  5  1  1  0  0  0
  5 42  1  0  0  0  0
  6 16  1  0  0  0  0
  6 43  1  0  0  0  0
  7 20  1  0  0  0  0
  7 25  1  0  0  0  0
  8 22  1  0  0  0  0
  8 47  1  0  0  0  0
  9 23  2  0  0  0  0
 10 31  1  0  0  0  0
 10 32  1  0  0  0  0
 11 12  1  0  0  0  0
 11 13  1  0  0  0  0
 11 33  1  0  0  0  0
 12 14  1  0  0  0  0
 12 34  1  0  0  0  0
 13 15  1  0  0  0  0
 13 35  1  0  0  0  0
 14 16  1  6  0  0  0
 14 36  1  0  0  0  0
 15 37  1  0  0  0  0
 16 38  1  0  0  0  0
 16 39  1  0  0  0  0
 17 18  1  0  0  0  0
 17 19  2  0  0  0  0
 18 20  2  0  0  0  0
 18 44  1  0  0  0  0
 19 22  1  0  0  0  0
 19 45  1  0  0  0  0
 20 21  1  0  0  0  0
 21 22  2  0  0  0  0
 21 23  1  0  0  0  0
 23 24  1  0  0  0  0
 24 25  2  0  0  0  0
 24 26  1  0  0  0  0
 25 46  1  0  0  0  0
 26 27  2  0  0  0  0
 26 28  1  0  0  0  0
 27 29  1  0  0  0  0
 27 48  1  0  0  0  0
 28 30  2  0  0  0  0
 28 49  1  0  0  0  0
 29 31  2  0  0  0  0
 29 50  1  0  0  0  0
 30 31  1  0  0  0  0
 30 51  1  0  0  0  0
 32 52  1  0  0  0  0
 32 53  1  0  0  0  0
 32 54  1  0  0  0  0
M  END
> <PUBCHEM_COMPOUND_CID>
5280781

> <PUBCHEM_COMPOUND_CANONICALIZED>
1

> <PUBCHEM_CACTVS_COMPLEXITY>
690

> <PUBCHEM_CACTVS_HBOND_ACCEPTOR>
10

> <PUBCHEM_CACTVS_HBOND_DONOR>
5

> <PUBCHEM_CACTVS_ROTATABLE_BOND>
5

> <PUBCHEM_CACTVS_SUBSKEYS>
AAADceB4PAAAAAAAAAAAAAAAAAAAAAAAAAA0YIEAAAAAAACBQAAAGgAACAAADBSwmAMyDoAABgCIAqBSAAACCAAkIAAIiAEGCMgdNzaGNRqieWCl4BUPuYfI7PzOIAAACAAIAABAAAAQABAAAAAAAAAAAA==

> <PUBCHEM_IUPAC_OPENEYE_NAME>
5-hydroxy-3-(4-methoxyphenyl)-7-[(2S,3R,4S,5S,6R)-3,4,5-trihydroxy-6-(hydroxymethyl)tetrahydropyran-2-yl]oxy-chromen-4-one

> <PUBCHEM_IUPAC_CAS_NAME>
5-hydroxy-3-(4-methoxyphenyl)-7-[[(2S,3R,4S,5S,6R)-3,4,5-trihydroxy-6-(hydroxymethyl)-2-oxanyl]oxy]-1-benzopyran-4-one

> <PUBCHEM_IUPAC_NAME>
5-hydroxy-3-(4-methoxyphenyl)-7-[(2S,3R,4S,5S,6R)-3,4,5-trihydroxy-6-(hydroxymethyl)oxan-2-yl]oxychromen-4-one

> <PUBCHEM_IUPAC_SYSTEMATIC_NAME>
7-[(2S,3R,4S,5S,6R)-6-(hydroxymethyl)-3,4,5-tris(oxidanyl)oxan-2-yl]oxy-3-(4-methoxyphenyl)-5-oxidanyl-chromen-4-one

> <PUBCHEM_IUPAC_TRADITIONAL_NAME>
5-hydroxy-3-(4-methoxyphenyl)-7-[(2S,3R,4S,5S,6R)-3,4,5-trihydroxy-6-methylol-tetrahydropyran-2-yl]oxy-chromone

> <PUBCHEM_IUPAC_INCHI>
InChI=1S/C22H22O10/c1-29-11-4-2-10(3-5-11)13-9-30-15-7-12(6-14(24)17(15)18(13)25)31-22-21(28)20(27)19(26)16(8-23)32-22/h2-7,9,16,19-24,26-28H,8H2,1H3/t16-,19-,20+,21-,22-/m1/s1

> <PUBCHEM_IUPAC_INCHIKEY>
LFEUICHQZGNOHD-RECXWPGBSA-N

> <PUBCHEM_XLOGP3_AA>
1.2

> <PUBCHEM_EXACT_MASS>
446.121297

> <PUBCHEM_MOLECULAR_FORMULA>
C22H22O10

> <PUBCHEM_MOLECULAR_WEIGHT>
446.40408

> <PUBCHEM_OPENEYE_CAN_SMILES>
COC1=CC=C(C=C1)C2=COC3=CC(=CC(=C3C2=O)O)OC4C(C(C(C(O4)CO)O)O)O

> <PUBCHEM_OPENEYE_ISO_SMILES>
COC1=CC=C(C=C1)C2=COC3=CC(=CC(=C3C2=O)O)O[C@H]4[C@@H]([C@H]([C@@H]([C@H](O4)CO)O)O)O

> <PUBCHEM_CACTVS_TPSA>
155

> <PUBCHEM_MONOISOTOPIC_WEIGHT>
446.121297

> <PUBCHEM_TOTAL_CHARGE>
0

> <PUBCHEM_HEAVY_ATOM_COUNT>
32

> <PUBCHEM_ATOM_DEF_STEREO_COUNT>
5

> <PUBCHEM_ATOM_UDEF_STEREO_COUNT>
0

> <PUBCHEM_BOND_DEF_STEREO_COUNT>
0

> <PUBCHEM_BOND_UDEF_STEREO_COUNT>
0

> <PUBCHEM_ISOTOPIC_ATOM_COUNT>
0

> <PUBCHEM_COMPONENT_COUNT>
1

> <PUBCHEM_CACTVS_TAUTO_COUNT>
5

> <PUBCHEM_COORDINATE_TYPE>
1
5
255

> <PUBCHEM_BONDANNOTATIONS>
14  16  6
17  18  8
17  19  8
18  20  8
19  22  8
15  2  6
20  21  8
21  22  8
21  23  8
23  24  8
24  25  8
26  27  8
26  28  8
27  29  8
28  30  8
29  31  8
11  3  6
30  31  8
12  4  5
13  5  5
7  20  8
7  25  8

$$$$

