443817
  -OEChem-07051213032D

 64 68  0     1  0  0  0  0  0999 V2000
    3.4326   -3.9842    0.0000 O   0  0  0  0  0  0  0  0  0  0  0  0
    6.0549   -2.4432    0.0000 O   0  0  0  0  0  0  0  0  0  0  0  0
    5.7293   -5.9691    0.0000 O   0  0  0  0  0  0  0  0  0  0  0  0
    2.5405   -1.4052    0.0000 O   0  0  0  0  0  0  0  0  0  0  0  0
    7.1445   -3.4512    0.0000 O   0  0  0  0  0  0  0  0  0  0  0  0
    6.9088   -1.9083    0.0000 O   0  0  0  0  0  0  0  0  0  0  0  0
    5.1869    3.1576    0.0000 O   0  0  0  0  0  0  0  0  0  0  0  0
    3.4446    0.0917    0.0000 O   0  0  0  0  0  0  0  0  0  0  0  0
    4.2889    1.6231    0.0000 O   0  0  0  0  0  0  0  0  0  0  0  0
    7.7792    4.6676    0.0000 O   0  0  0  0  0  0  0  0  0  0  0  0
    6.0433    5.6609    0.0000 O   0  0  0  0  0  0  0  0  0  0  0  0
    4.2947   -3.4776    0.0000 C   0  0  2  0  0  0  0  0  0  0  0  0
    5.1928   -2.9498    0.0000 C   0  0  2  0  0  0  0  0  0  0  0  0
    4.2864   -4.5625    0.0000 C   0  0  0  0  0  0  0  0  0  0  0  0
    3.3926   -2.9568    0.0000 C   0  0  0  0  0  0  0  0  0  0  0  0
    5.2260   -5.1050    0.0000 C   0  0  2  0  0  0  0  0  0  0  0  0
    5.1767   -1.9083    0.0000 C   0  0  0  0  0  0  0  0  0  0  0  0
    6.1614   -4.5553    0.0000 C   0  0  0  0  0  0  0  0  0  0  0  0
    3.4007   -1.9152    0.0000 C   0  0  2  0  0  0  0  0  0  0  0  0
    6.1447   -3.4704    0.0000 C   0  0  0  0  0  0  0  0  0  0  0  0
    4.3107   -1.4083    0.0000 C   0  0  0  0  0  0  0  0  0  0  0  0
    4.7293   -5.9730    0.0000 C   0  0  0  0  0  0  0  0  0  0  0  0
    6.0427   -1.4083    0.0000 C   0  0  0  0  0  0  0  0  0  0  0  0
    4.3107   -0.4083    0.0000 C   0  0  0  0  0  0  0  0  0  0  0  0
    6.0427   -0.4083    0.0000 C   0  0  0  0  0  0  0  0  0  0  0  0
    5.1767    0.0917    0.0000 C   0  0  0  0  0  0  0  0  0  0  0  0
    6.0548    2.6609    0.0000 C   0  0  1  0  0  0  0  0  0  0  0  0
    5.1606    1.1332    0.0000 C   0  0  0  0  0  0  0  0  0  0  0  0
    6.0587    1.6610    0.0000 C   0  0  0  0  0  0  0  0  0  0  0  0
    6.9527    0.0985    0.0000 C   0  0  0  0  0  0  0  0  0  0  0  0
    6.9189    3.1643    0.0000 C   0  0  0  0  0  0  0  0  0  0  0  0
    6.9151    4.1643    0.0000 C   0  0  2  0  0  0  0  0  0  0  0  0
    6.0471    4.6609    0.0000 C   0  0  1  0  0  0  0  0  0  0  0  0
    5.1830    4.1576    0.0000 C   0  0  1  0  0  0  0  0  0  0  0  0
    6.9608    1.1401    0.0000 C   0  0  0  0  0  0  0  0  0  0  0  0
    4.3151    4.6542    0.0000 C   0  0  0  0  0  0  0  0  0  0  0  0
    3.6763   -4.4517    0.0000 H   0  0  0  0  0  0  0  0  0  0  0  0
    4.0728   -5.1446    0.0000 H   0  0  0  0  0  0  0  0  0  0  0  0
    2.7826   -2.8460    0.0000 H   0  0  0  0  0  0  0  0  0  0  0  0
    3.1791   -3.5388    0.0000 H   0  0  0  0  0  0  0  0  0  0  0  0
    6.3794   -5.1357    0.0000 H   0  0  0  0  0  0  0  0  0  0  0  0
    6.7706   -4.4398    0.0000 H   0  0  0  0  0  0  0  0  0  0  0  0
    2.8608   -2.2200    0.0000 H   0  0  0  0  0  0  0  0  0  0  0  0
    4.1912   -5.6650    0.0000 H   0  0  0  0  0  0  0  0  0  0  0  0
    4.4214   -6.5111    0.0000 H   0  0  0  0  0  0  0  0  0  0  0  0
    5.2675   -6.2809    0.0000 H   0  0  0  0  0  0  0  0  0  0  0  0
    2.8933   -3.6784    0.0000 H   0  0  0  0  0  0  0  0  0  0  0  0
    6.5942   -2.7490    0.0000 H   0  0  0  0  0  0  0  0  0  0  0  0
    6.3493   -5.9667    0.0000 H   0  0  0  0  0  0  0  0  0  0  0  0
    2.0000   -1.7090    0.0000 H   0  0  0  0  0  0  0  0  0  0  0  0
    5.3203    2.2331    0.0000 H   0  0  0  0  0  0  0  0  0  0  0  0
    7.1332    2.5825    0.0000 H   0  0  0  0  0  0  0  0  0  0  0  0
    7.5291    3.2743    0.0000 H   0  0  0  0  0  0  0  0  0  0  0  0
    7.4860   -0.2177    0.0000 H   0  0  0  0  0  0  0  0  0  0  0  0
    6.9127    4.7843    0.0000 H   0  0  0  0  0  0  0  0  0  0  0  0
    5.5090    4.9688    0.0000 H   0  0  0  0  0  0  0  0  0  0  0  0
    4.6473    3.8455    0.0000 H   0  0  0  0  0  0  0  0  0  0  0  0
    7.4989    1.4481    0.0000 H   0  0  0  0  0  0  0  0  0  0  0  0
    4.6230    5.1924    0.0000 H   0  0  0  0  0  0  0  0  0  0  0  0
    3.7770    4.9622    0.0000 H   0  0  0  0  0  0  0  0  0  0  0  0
    4.0071    4.1161    0.0000 H   0  0  0  0  0  0  0  0  0  0  0  0
    3.7556    1.3070    0.0000 H   0  0  0  0  0  0  0  0  0  0  0  0
    8.3173    4.3597    0.0000 H   0  0  0  0  0  0  0  0  0  0  0  0
    6.5790    5.9730    0.0000 H   0  0  0  0  0  0  0  0  0  0  0  0
 12  1  1  6  0  0  0
  1 47  1  0  0  0  0
 13  2  1  6  0  0  0
  2 48  1  0  0  0  0
 16  3  1  6  0  0  0
  3 49  1  0  0  0  0
 19  4  1  1  0  0  0
  4 50  1  0  0  0  0
  5 20  2  0  0  0  0
  6 23  2  0  0  0  0
  7 27  1  0  0  0  0
  7 34  1  0  0  0  0
  8 24  2  0  0  0  0
  9 28  1  0  0  0  0
  9 62  1  0  0  0  0
 32 10  1  6  0  0  0
 10 63  1  0  0  0  0
 33 11  1  1  0  0  0
 11 64  1  0  0  0  0
 12 13  1  0  0  0  0
 12 14  1  0  0  0  0
 12 15  1  0  0  0  0
 13 17  1  0  0  0  0
 13 20  1  0  0  0  0
 14 16  1  0  0  0  0
 14 37  1  0  0  0  0
 14 38  1  0  0  0  0
 15 19  1  0  0  0  0
 15 39  1  0  0  0  0
 15 40  1  0  0  0  0
 16 18  1  0  0  0  0
 16 22  1  0  0  0  0
 17 21  2  0  0  0  0
 17 23  1  0  0  0  0
 18 20  1  0  0  0  0
 18 41  1  0  0  0  0
 18 42  1  0  0  0  0
 19 21  1  0  0  0  0
 19 43  1  0  0  0  0
 21 24  1  0  0  0  0
 22 44  1  0  0  0  0
 22 45  1  0  0  0  0
 22 46  1  0  0  0  0
 23 25  1  0  0  0  0
 24 26  1  0  0  0  0
 25 26  2  0  0  0  0
 25 30  1  0  0  0  0
 26 28  1  0  0  0  0
 27 29  1  0  0  0  0
 27 31  1  0  0  0  0
 27 51  1  1  0  0  0
 28 29  2  0  0  0  0
 29 35  1  0  0  0  0
 30 35  2  0  0  0  0
 30 54  1  0  0  0  0
 31 32  1  0  0  0  0
 31 52  1  0  0  0  0
 31 53  1  0  0  0  0
 32 33  1  0  0  0  0
 32 55  1  0  0  0  0
 33 34  1  0  0  0  0
 33 56  1  0  0  0  0
 34 36  1  6  0  0  0
 34 57  1  0  0  0  0
 35 58  1  0  0  0  0
 36 59  1  0  0  0  0
 36 60  1  0  0  0  0
 36 61  1  0  0  0  0
M  END
> <PUBCHEM_COMPOUND_CID>
443817

> <PUBCHEM_COMPOUND_CANONICALIZED>
1

> <PUBCHEM_CACTVS_COMPLEXITY>
1040

> <PUBCHEM_CACTVS_HBOND_ACCEPTOR>
11

> <PUBCHEM_CACTVS_HBOND_DONOR>
7

> <PUBCHEM_CACTVS_ROTATABLE_BOND>
1

> <PUBCHEM_CACTVS_SUBSKEYS>
AAADceB4PAAAAAAAAAAAAAAAAAAAAAAAAAA0YIECAAAAAADBAAAAGgAACAAADFSgmAIyBoAABgCIAqBSAAICAAAkIAAIiAFECMgJNzaCNRqCcUAl4BELuYfL7PTOwAADAAAYAADCAAYQADCAAAAAAAAAAA==

> <PUBCHEM_IUPAC_OPENEYE_NAME>
(3R,4aS,6R,12bS)-9-[(2R,4R,5S,6R)-4,5-dihydroxy-6-methyl-tetrahydropyran-2-yl]-3,4a,6,8,12b-pentahydroxy-3-methyl-2,4,5,6-tetrahydrobenzo[a]anthracene-1,7,12-trione

> <PUBCHEM_IUPAC_CAS_NAME>
(3R,4aS,6R,12bS)-9-[(2R,4R,5S,6R)-4,5-dihydroxy-6-methyl-2-oxanyl]-3,4a,6,8,12b-pentahydroxy-3-methyl-2,4,5,6-tetrahydrobenzo[a]anthracene-1,7,12-trione

> <PUBCHEM_IUPAC_NAME>
(3R,4aS,6R,12bS)-9-[(2R,4R,5S,6R)-4,5-dihydroxy-6-methyloxan-2-yl]-3,4a,6,8,12b-pentahydroxy-3-methyl-2,4,5,6-tetrahydrobenzo[a]anthracene-1,7,12-trione

> <PUBCHEM_IUPAC_SYSTEMATIC_NAME>
(3R,4aS,6R,12bS)-3-methyl-9-[(2R,4R,5S,6R)-6-methyl-4,5-bis(oxidanyl)oxan-2-yl]-3,4a,6,8,12b-pentakis(oxidanyl)-2,4,5,6-tetrahydrobenzo[a]anthracene-1,7,12-trione

> <PUBCHEM_IUPAC_TRADITIONAL_NAME>
(3R,4aS,6R,12bS)-9-[(2R,4R,5S,6R)-4,5-dihydroxy-6-methyl-tetrahydropyran-2-yl]-3,4a,6,8,12b-pentahydroxy-3-methyl-2,4,5,6-tetrahydrobenz[a]anthracene-1,7,12-trione

> <PUBCHEM_IUPAC_INCHI>
InChI=1S/C25H28O11/c1-9-19(29)12(26)5-14(36-9)10-3-4-11-16(20(10)30)22(32)17-13(27)6-24(34)8-23(2,33)7-15(28)25(24,35)18(17)21(11)31/h3-4,9,12-14,19,26-27,29-30,33-35H,5-8H2,1-2H3/t9-,12-,13-,14-,19-,23+,24+,25+/m1/s1

> <PUBCHEM_IUPAC_INCHIKEY>
AAMCJNYIOAHDFN-BCCCWXECSA-N

> <PUBCHEM_XLOGP3_AA>
-2.2

> <PUBCHEM_EXACT_MASS>
504.163162

> <PUBCHEM_MOLECULAR_FORMULA>
C25H28O11

> <PUBCHEM_MOLECULAR_WEIGHT>
504.48322

> <PUBCHEM_OPENEYE_CAN_SMILES>
CC1C(C(CC(O1)C2=C(C3=C(C=C2)C(=O)C4=C(C3=O)C(CC5(C4(C(=O)CC(C5)(C)O)O)O)O)O)O)O

> <PUBCHEM_OPENEYE_ISO_SMILES>
C[C@@H]1[C@H]([C@@H](C[C@@H](O1)C2=C(C3=C(C=C2)C(=O)C4=C(C3=O)[C@@H](C[C@]5([C@@]4(C(=O)C[C@](C5)(C)O)O)O)O)O)O)O

> <PUBCHEM_CACTVS_TPSA>
202

> <PUBCHEM_MONOISOTOPIC_WEIGHT>
504.163162

> <PUBCHEM_TOTAL_CHARGE>
0

> <PUBCHEM_HEAVY_ATOM_COUNT>
36

> <PUBCHEM_ATOM_DEF_STEREO_COUNT>
8

> <PUBCHEM_ATOM_UDEF_STEREO_COUNT>
0

> <PUBCHEM_BOND_DEF_STEREO_COUNT>
0

> <PUBCHEM_BOND_UDEF_STEREO_COUNT>
0

> <PUBCHEM_ISOTOPIC_ATOM_COUNT>
0

> <PUBCHEM_COMPONENT_COUNT>
1

> <PUBCHEM_CACTVS_TAUTO_COUNT>
10

> <PUBCHEM_COORDINATE_TYPE>
1
5
255

> <PUBCHEM_BONDANNOTATIONS>
12  1  6
32  10  6
33  11  5
13  2  6
25  26  8
25  30  8
26  28  8
27  51  5
28  29  8
29  35  8
16  3  6
30  35  8
34  36  6
19  4  5

$$$$

