12302171
  -OEChem-07051213102D

 79 81  0     1  0  0  0  0  0999 V2000
    6.3100    1.2700    0.0000 O   0  0  0  0  0  0  0  0  0  0  0  0
    8.0420    2.2700    0.0000 O   0  0  0  0  0  0  0  0  0  0  0  0
    9.7741    1.2700    0.0000 O   0  0  0  0  0  0  0  0  0  0  0  0
    4.8100    0.4039    0.0000 O   0  0  0  0  0  0  0  0  0  0  0  0
    9.8216    2.3632    0.0000 O   0  0  0  0  0  0  0  0  0  0  0  0
    8.2695    4.4336    0.0000 O   0  0  0  0  0  0  0  0  0  0  0  0
    3.3100    3.0021    0.0000 O   0  0  0  0  0  0  0  0  0  0  0  0
    2.3100    1.2700    0.0000 O   0  0  0  0  0  0  0  0  0  0  0  0
   10.3975    4.8859    0.0000 O   0  0  0  0  0  0  0  0  0  0  0  0
    8.9081   -2.2300    0.0000 O   0  0  0  0  0  0  0  0  0  0  0  0
   11.8920    2.0883    0.0000 O   0  0  0  0  0  0  0  0  0  0  0  0
   11.5062   -1.7300    0.0000 O   0  0  0  0  0  0  0  0  0  0  0  0
    9.7741   -0.7301    0.0000 N   0  0  0  0  0  0  0  0  0  0  0  0
    6.6760   -1.0961    0.0000 N   0  0  0  0  0  0  0  0  0  0  0  0
    5.3100    3.0020    0.0000 N   0  0  0  0  0  0  0  0  0  0  0  0
    3.8101   -1.3282    0.0000 N   0  0  0  0  0  0  0  0  0  0  0  0
   11.5062   -4.7300    0.0000 N   0  0  0  0  0  0  0  0  0  0  0  0
    7.1760    0.7699    0.0000 C   0  0  1  0  0  0  0  0  0  0  0  0
    8.0420    1.2700    0.0000 C   0  0  1  0  0  0  0  0  0  0  0  0
    7.1760   -0.2301    0.0000 C   0  0  2  0  0  0  0  0  0  0  0  0
    8.9081    0.7699    0.0000 C   0  0  2  0  0  0  0  0  0  0  0  0
    8.9081   -0.2301    0.0000 C   0  0  1  0  0  0  0  0  0  0  0  0
    8.0420   -0.7301    0.0000 C   0  0  0  0  0  0  0  0  0  0  0  0
    5.3100    1.2700    0.0000 C   0  0  1  0  0  0  0  0  0  0  0  0
    8.9081    2.7700    0.0000 C   0  0  2  0  0  0  0  0  0  0  0  0
    4.8101    2.1361    0.0000 C   0  0  1  0  0  0  0  0  0  0  0  0
    9.0126    3.7645    0.0000 C   0  0  1  0  0  0  0  0  0  0  0  0
    3.8100    2.1360    0.0000 C   0  0  2  0  0  0  0  0  0  0  0  0
    3.3100    1.2700    0.0000 C   0  0  1  0  0  0  0  0  0  0  0  0
    3.8100    0.4039    0.0000 C   0  0  1  0  0  0  0  0  0  0  0  0
    9.9908    3.9724    0.0000 C   0  0  2  0  0  0  0  0  0  0  0  0
   10.4908    3.1064    0.0000 C   0  0  1  0  0  0  0  0  0  0  0  0
    9.7741   -1.7300    0.0000 C   0  0  0  0  0  0  0  0  0  0  0  0
    3.3100   -0.4621    0.0000 C   0  0  0  0  0  0  0  0  0  0  0  0
   11.4853    3.0018    0.0000 C   0  0  0  0  0  0  0  0  0  0  0  0
   10.6401   -2.2300    0.0000 C   0  0  2  0  0  0  0  0  0  0  0  0
   10.6401   -3.2300    0.0000 C   0  0  0  0  0  0  0  0  0  0  0  0
   11.5062   -3.7300    0.0000 C   0  0  0  0  0  0  0  0  0  0  0  0
    7.1760    1.3900    0.0000 H   0  0  0  0  0  0  0  0  0  0  0  0
    8.5790    1.5800    0.0000 H   0  0  0  0  0  0  0  0  0  0  0  0
    6.5772   -0.0696    0.0000 H   0  0  0  0  0  0  0  0  0  0  0  0
    8.9081    1.3900    0.0000 H   0  0  0  0  0  0  0  0  0  0  0  0
    8.9081   -0.8501    0.0000 H   0  0  0  0  0  0  0  0  0  0  0  0
    7.6435   -1.2050    0.0000 H   0  0  0  0  0  0  0  0  0  0  0  0
    8.4406   -1.2050    0.0000 H   0  0  0  0  0  0  0  0  0  0  0  0
    5.6200    1.8069    0.0000 H   0  0  0  0  0  0  0  0  0  0  0  0
    8.3881    3.1076    0.0000 H   0  0  0  0  0  0  0  0  0  0  0  0
    5.4300    2.1360    0.0000 H   0  0  0  0  0  0  0  0  0  0  0  0
   10.3110   -0.4201    0.0000 H   0  0  0  0  0  0  0  0  0  0  0  0
    8.4338    3.5423    0.0000 H   0  0  0  0  0  0  0  0  0  0  0  0
    3.1900    2.1361    0.0000 H   0  0  0  0  0  0  0  0  0  0  0  0
    6.9860   -1.6330    0.0000 H   0  0  0  0  0  0  0  0  0  0  0  0
    6.0560   -1.0960    0.0000 H   0  0  0  0  0  0  0  0  0  0  0  0
    3.0000    1.8069    0.0000 H   0  0  0  0  0  0  0  0  0  0  0  0
    4.1200   -0.1330    0.0000 H   0  0  0  0  0  0  0  0  0  0  0  0
   10.6099    4.0048    0.0000 H   0  0  0  0  0  0  0  0  0  0  0  0
   10.7129    2.5275    0.0000 H   0  0  0  0  0  0  0  0  0  0  0  0
   10.3110    0.9599    0.0000 H   0  0  0  0  0  0  0  0  0  0  0  0
    2.8351   -0.0636    0.0000 H   0  0  0  0  0  0  0  0  0  0  0  0
    2.8351   -0.8607    0.0000 H   0  0  0  0  0  0  0  0  0  0  0  0
    5.0000    3.5389    0.0000 H   0  0  0  0  0  0  0  0  0  0  0  0
    5.9300    3.0020    0.0000 H   0  0  0  0  0  0  0  0  0  0  0  0
   12.0869    3.1518    0.0000 H   0  0  0  0  0  0  0  0  0  0  0  0
   11.4420    3.6203    0.0000 H   0  0  0  0  0  0  0  0  0  0  0  0
   10.6401   -1.6100    0.0000 H   0  0  0  0  0  0  0  0  0  0  0  0
    8.3984    5.0400    0.0000 H   0  0  0  0  0  0  0  0  0  0  0  0
    2.6900    3.0021    0.0000 H   0  0  0  0  0  0  0  0  0  0  0  0
    2.0000    0.7330    0.0000 H   0  0  0  0  0  0  0  0  0  0  0  0
   11.0141    4.9507    0.0000 H   0  0  0  0  0  0  0  0  0  0  0  0
   10.0295   -3.1224    0.0000 H   0  0  0  0  0  0  0  0  0  0  0  0
   10.4281   -3.8127    0.0000 H   0  0  0  0  0  0  0  0  0  0  0  0
    3.5001   -1.8651    0.0000 H   0  0  0  0  0  0  0  0  0  0  0  0
    4.4301   -1.3282    0.0000 H   0  0  0  0  0  0  0  0  0  0  0  0
   12.5086    2.0235    0.0000 H   0  0  0  0  0  0  0  0  0  0  0  0
   12.0431   -2.0400    0.0000 H   0  0  0  0  0  0  0  0  0  0  0  0
   12.1167   -3.8377    0.0000 H   0  0  0  0  0  0  0  0  0  0  0  0
   11.7182   -3.1474    0.0000 H   0  0  0  0  0  0  0  0  0  0  0  0
   12.0431   -5.0400    0.0000 H   0  0  0  0  0  0  0  0  0  0  0  0
   10.9692   -5.0400    0.0000 H   0  0  0  0  0  0  0  0  0  0  0  0
 18  1  1  1  0  0  0
 24  1  1  1  0  0  0
 19  2  1  6  0  0  0
 25  2  1  1  0  0  0
 21  3  1  1  0  0  0
  3 58  1  0  0  0  0
  4 24  1  0  0  0  0
  4 30  1  0  0  0  0
  5 25  1  0  0  0  0
  5 32  1  0  0  0  0
 27  6  1  6  0  0  0
  6 66  1  0  0  0  0
 28  7  1  6  0  0  0
  7 67  1  0  0  0  0
 29  8  1  1  0  0  0
  8 68  1  0  0  0  0
 31  9  1  1  0  0  0
  9 69  1  0  0  0  0
 10 33  2  0  0  0  0
 11 35  1  0  0  0  0
 11 74  1  0  0  0  0
 36 12  1  1  0  0  0
 12 75  1  0  0  0  0
 22 13  1  6  0  0  0
 13 33  1  0  0  0  0
 13 49  1  0  0  0  0
 20 14  1  6  0  0  0
 14 52  1  0  0  0  0
 14 53  1  0  0  0  0
 26 15  1  1  0  0  0
 15 61  1  0  0  0  0
 15 62  1  0  0  0  0
 16 34  1  0  0  0  0
 16 72  1  0  0  0  0
 16 73  1  0  0  0  0
 17 38  1  0  0  0  0
 17 78  1  0  0  0  0
 17 79  1  0  0  0  0
 18 19  1  0  0  0  0
 18 20  1  0  0  0  0
 18 39  1  0  0  0  0
 19 21  1  0  0  0  0
 19 40  1  0  0  0  0
 20 23  1  0  0  0  0
 20 41  1  0  0  0  0
 21 22  1  0  0  0  0
 21 42  1  0  0  0  0
 22 23  1  0  0  0  0
 22 43  1  0  0  0  0
 23 44  1  0  0  0  0
 23 45  1  0  0  0  0
 24 26  1  0  0  0  0
 24 46  1  0  0  0  0
 25 27  1  0  0  0  0
 25 47  1  0  0  0  0
 26 28  1  0  0  0  0
 26 48  1  0  0  0  0
 27 31  1  0  0  0  0
 27 50  1  0  0  0  0
 28 29  1  0  0  0  0
 28 51  1  0  0  0  0
 29 30  1  0  0  0  0
 29 54  1  0  0  0  0
 30 34  1  6  0  0  0
 30 55  1  0  0  0  0
 31 32  1  0  0  0  0
 31 56  1  0  0  0  0
 32 35  1  1  0  0  0
 32 57  1  0  0  0  0
 33 36  1  0  0  0  0
 34 59  1  0  0  0  0
 34 60  1  0  0  0  0
 35 63  1  0  0  0  0
 35 64  1  0  0  0  0
 36 37  1  0  0  0  0
 36 65  1  0  0  0  0
 37 38  1  0  0  0  0
 37 70  1  0  0  0  0
 37 71  1  0  0  0  0
 38 76  1  0  0  0  0
 38 77  1  0  0  0  0
M  END
> <PUBCHEM_COMPOUND_CID>
12302171

> <PUBCHEM_COMPOUND_CANONICALIZED>
1

> <PUBCHEM_CACTVS_COMPLEXITY>
772

> <PUBCHEM_CACTVS_HBOND_ACCEPTOR>
16

> <PUBCHEM_CACTVS_HBOND_DONOR>
12

> <PUBCHEM_CACTVS_ROTATABLE_BOND>
10

> <PUBCHEM_CACTVS_SUBSKEYS>
AAADcfB7vAAAAAAAAAAAAAAAAAAAASAAAAA0QAAAAAAAAAAAAAAAHgAQCAAACDzxgAcACALABgAIAAEQEAIAAAAAAAAAAIFIAAATEBIAwAAnQAAHFgCXAAH0cA8AAAAAAAAAAAAAgAAUCACgAAAAAAAAAA==

> <PUBCHEM_IUPAC_OPENEYE_NAME>
(2S)-4-amino-N-[(1R,2S,3R,4R,5S)-5-amino-4-[(2R,3R,4R,5S,6R)-3-amino-6-(aminomethyl)-4,5-dihydroxy-tetrahydropyran-2-yl]oxy-3-[(2S,3R,4R,5R)-3,4-dihydroxy-5-(hydroxymethyl)tetrahydrofuran-2-yl]oxy-2-hydroxy-cyclohexyl]-2-hydroxy-butanamide

> <PUBCHEM_IUPAC_CAS_NAME>
(2S)-4-amino-N-[(1R,2S,3R,4R,5S)-5-amino-4-[[(2R,3R,4R,5S,6R)-3-amino-6-(aminomethyl)-4,5-dihydroxy-2-oxanyl]oxy]-3-[[(2S,3R,4R,5R)-3,4-dihydroxy-5-(hydroxymethyl)-2-oxolanyl]oxy]-2-hydroxycyclohexyl]-2-hydroxybutanamide

> <PUBCHEM_IUPAC_NAME>
(2S)-4-amino-N-[(1R,2S,3R,4R,5S)-5-amino-4-[(2R,3R,4R,5S,6R)-3-amino-6-(aminomethyl)-4,5-dihydroxyoxan-2-yl]oxy-3-[(2S,3R,4R,5R)-3,4-dihydroxy-5-(hydroxymethyl)oxolan-2-yl]oxy-2-hydroxycyclohexyl]-2-hydroxybutanamide

> <PUBCHEM_IUPAC_SYSTEMATIC_NAME>
(2S)-N-[(1R,2S,3R,4R,5S)-4-[(2R,3R,4R,5S,6R)-6-(aminomethyl)-3-azanyl-4,5-bis(oxidanyl)oxan-2-yl]oxy-5-azanyl-3-[(2S,3R,4R,5R)-5-(hydroxymethyl)-3,4-bis(oxidanyl)oxolan-2-yl]oxy-2-oxidanyl-cyclohexyl]-4-azanyl-2-oxidanyl-butanamide

> <PUBCHEM_IUPAC_TRADITIONAL_NAME>
(2S)-4-amino-N-[(1R,2S,3R,4R,5S)-5-amino-4-[(2R,3R,4R,5S,6R)-3-amino-6-(aminomethyl)-4,5-dihydroxy-tetrahydropyran-2-yl]oxy-3-[(2S,3R,4R,5R)-3,4-dihydroxy-5-methylol-tetrahydrofuran-2-yl]oxy-2-hydroxy-cyclohexyl]-2-hydroxy-butyramide

> <PUBCHEM_IUPAC_INCHI>
InChI=1S/C21H41N5O12/c22-2-1-8(28)19(34)26-7-3-6(24)17(37-20-11(25)15(32)13(30)9(4-23)35-20)18(12(7)29)38-21-16(33)14(31)10(5-27)36-21/h6-18,20-21,27-33H,1-5,22-25H2,(H,26,34)/t6-,7+,8-,9+,10+,11+,12-,13+,14-,15+,16+,17+,18+,20+,21-/m0/s1

> <PUBCHEM_IUPAC_INCHIKEY>
XEQLFNPSYWZPOW-SVRMBHBBSA-N

> <PUBCHEM_XLOGP3_AA>
-7.3

> <PUBCHEM_EXACT_MASS>
555.275172

> <PUBCHEM_MOLECULAR_FORMULA>
C21H41N5O12

> <PUBCHEM_MOLECULAR_WEIGHT>
555.57654

> <PUBCHEM_OPENEYE_CAN_SMILES>
C1C(C(C(C(C1NC(=O)C(CCN)O)O)OC2C(C(C(O2)CO)O)O)OC3C(C(C(C(O3)CN)O)O)N)N

> <PUBCHEM_OPENEYE_ISO_SMILES>
C1[C@@H]([C@H]([C@@H]([C@H]([C@@H]1NC(=O)[C@H](CCN)O)O)O[C@H]2[C@@H]([C@H]([C@H](O2)CO)O)O)O[C@@H]3[C@@H]([C@H]([C@@H]([C@H](O3)CN)O)O)N)N

> <PUBCHEM_CACTVS_TPSA>
312

> <PUBCHEM_MONOISOTOPIC_WEIGHT>
555.275172

> <PUBCHEM_TOTAL_CHARGE>
0

> <PUBCHEM_HEAVY_ATOM_COUNT>
38

> <PUBCHEM_ATOM_DEF_STEREO_COUNT>
15

> <PUBCHEM_ATOM_UDEF_STEREO_COUNT>
0

> <PUBCHEM_BOND_DEF_STEREO_COUNT>
0

> <PUBCHEM_BOND_UDEF_STEREO_COUNT>
0

> <PUBCHEM_ISOTOPIC_ATOM_COUNT>
0

> <PUBCHEM_COMPONENT_COUNT>
1

> <PUBCHEM_CACTVS_TAUTO_COUNT>
2

> <PUBCHEM_COORDINATE_TYPE>
1
5
255

> <PUBCHEM_BONDANNOTATIONS>
18  1  5
24  1  5
36  12  5
22  13  6
20  14  6
26  15  5
19  2  6
25  2  5
21  3  5
30  34  6
32  35  5
27  6  6
28  7  6
29  8  5
31  9  5

$$$$

