5281351
  -OEChem-07051212562D

 51 55  0     1  0  0  0  0  0999 V2000
    3.7698    2.6951    0.0000 O   0  0  0  0  0  0  0  0  0  0  0  0
    5.0833    2.6154    0.0000 O   0  0  0  0  0  0  0  0  0  0  0  0
    3.3369   -1.8183    0.0000 N   0  0  3  0  0  0  0  0  0  0  0  0
    4.9022    0.8929    0.0000 N   0  0  0  0  0  0  0  0  0  0  0  0
    4.2620   -0.5450    0.0000 C   0  0  2  0  0  0  0  0  0  0  0  0
    4.2620   -1.5177    0.0000 C   0  0  1  0  0  0  0  0  0  0  0  0
    5.1045   -0.0586    0.0000 C   0  0  1  0  0  0  0  0  0  0  0  0
    3.3369   -0.2444    0.0000 C   0  0  0  0  0  0  0  0  0  0  0  0
    5.9469   -1.5177    0.0000 C   0  0  2  0  0  0  0  0  0  0  0  0
    5.9469   -0.5450    0.0000 C   0  0  0  0  0  0  0  0  0  0  0  0
    5.1045   -2.0041    0.0000 C   0  0  0  0  0  0  0  0  0  0  0  0
    2.7652   -1.0313    0.0000 C   0  0  0  0  0  0  0  0  0  0  0  0
    3.5392    0.1059    0.0000 C   0  0  0  0  0  0  0  0  0  0  0  0
    5.3422   -2.5661    0.0000 C   0  0  0  0  0  0  0  0  0  0  0  0
    4.1101   -2.5661    0.0000 C   0  0  0  0  0  0  0  0  0  0  0  0
    3.9348    0.9946    0.0000 C   0  0  0  0  0  0  0  0  0  0  0  0
    5.1045   -3.0041    0.0000 C   0  0  0  0  0  0  0  0  0  0  0  0
    2.5718    0.0042    0.0000 C   0  0  0  0  0  0  0  0  0  0  0  0
    5.4900    1.7019    0.0000 C   0  0  0  0  0  0  0  0  0  0  0  0
    3.3630    1.7815    0.0000 C   0  0  0  0  0  0  0  0  0  0  0  0
    2.0000    0.7912    0.0000 C   0  0  0  0  0  0  0  0  0  0  0  0
    2.3956    1.6798    0.0000 C   0  0  0  0  0  0  0  0  0  0  0  0
    5.9705   -3.5041    0.0000 C   0  0  0  0  0  0  0  0  0  0  0  0
    6.4845    1.5974    0.0000 C   0  0  0  0  0  0  0  0  0  0  0  0
    3.1820    3.5041    0.0000 C   0  0  0  0  0  0  0  0  0  0  0  0
    3.7928   -2.2264    0.0000 H   0  0  0  0  0  0  0  0  0  0  0  0
    5.7921    0.4410    0.0000 H   0  0  0  0  0  0  0  0  0  0  0  0
    3.5891    0.3220    0.0000 H   0  0  0  0  0  0  0  0  0  0  0  0
    2.8000    0.0656    0.0000 H   0  0  0  0  0  0  0  0  0  0  0  0
    6.7680   -1.7375    0.0000 H   0  0  0  0  0  0  0  0  0  0  0  0
    6.5575   -0.6526    0.0000 H   0  0  0  0  0  0  0  0  0  0  0  0
    6.1589    0.0376    0.0000 H   0  0  0  0  0  0  0  0  0  0  0  0
    2.3044   -0.6165    0.0000 H   0  0  0  0  0  0  0  0  0  0  0  0
    2.3044   -1.4462    0.0000 H   0  0  0  0  0  0  0  0  0  0  0  0
    5.2347   -3.1767    0.0000 H   0  0  0  0  0  0  0  0  0  0  0  0
    5.9249   -2.7780    0.0000 H   0  0  0  0  0  0  0  0  0  0  0  0
    3.5767   -2.8820    0.0000 H   0  0  0  0  0  0  0  0  0  0  0  0
    4.2739   -3.1641    0.0000 H   0  0  0  0  0  0  0  0  0  0  0  0
    4.5675   -3.3141    0.0000 H   0  0  0  0  0  0  0  0  0  0  0  0
    2.3196   -0.5622    0.0000 H   0  0  0  0  0  0  0  0  0  0  0  0
    1.3834    0.7264    0.0000 H   0  0  0  0  0  0  0  0  0  0  0  0
    2.0312    2.1814    0.0000 H   0  0  0  0  0  0  0  0  0  0  0  0
    5.6605   -4.0410    0.0000 H   0  0  0  0  0  0  0  0  0  0  0  0
    6.5074   -3.8141    0.0000 H   0  0  0  0  0  0  0  0  0  0  0  0
    6.2805   -2.9671    0.0000 H   0  0  0  0  0  0  0  0  0  0  0  0
    6.4197    0.9808    0.0000 H   0  0  0  0  0  0  0  0  0  0  0  0
    7.1011    1.5326    0.0000 H   0  0  0  0  0  0  0  0  0  0  0  0
    6.5493    2.2140    0.0000 H   0  0  0  0  0  0  0  0  0  0  0  0
    3.6836    3.8685    0.0000 H   0  0  0  0  0  0  0  0  0  0  0  0
    2.8176    4.0057    0.0000 H   0  0  0  0  0  0  0  0  0  0  0  0
    2.6804    3.1396    0.0000 H   0  0  0  0  0  0  0  0  0  0  0  0
  1 20  1  0  0  0  0
  1 25  1  0  0  0  0
  2 19  2  0  0  0  0
  3  6  1  0  0  0  0
  3 12  1  0  0  0  0
  3 15  1  0  0  0  0
  4  7  1  0  0  0  0
  4 16  1  0  0  0  0
  4 19  1  0  0  0  0
  5  6  1  0  0  0  0
  5  7  1  0  0  0  0
  5  8  1  0  0  0  0
  5 13  1  6  0  0  0
  6 11  1  0  0  0  0
  6 26  1  6  0  0  0
  7 10  1  0  0  0  0
  7 27  1  1  0  0  0
  8 12  1  0  0  0  0
  8 28  1  0  0  0  0
  8 29  1  0  0  0  0
  9 10  1  0  0  0  0
  9 11  1  0  0  0  0
  9 14  1  0  0  0  0
  9 30  1  6  0  0  0
 10 31  1  0  0  0  0
 10 32  1  0  0  0  0
 11 17  2  0  0  0  0
 12 33  1  0  0  0  0
 12 34  1  0  0  0  0
 13 16  2  0  0  0  0
 13 18  1  0  0  0  0
 14 15  1  0  0  0  0
 14 35  1  0  0  0  0
 14 36  1  0  0  0  0
 15 37  1  0  0  0  0
 15 38  1  0  0  0  0
 16 20  1  0  0  0  0
 17 23  1  0  0  0  0
 17 39  1  0  0  0  0
 18 21  2  0  0  0  0
 18 40  1  0  0  0  0
 19 24  1  0  0  0  0
 20 22  2  0  0  0  0
 21 22  1  0  0  0  0
 21 41  1  0  0  0  0
 22 42  1  0  0  0  0
 23 43  1  0  0  0  0
 23 44  1  0  0  0  0
 23 45  1  0  0  0  0
 24 46  1  0  0  0  0
 24 47  1  0  0  0  0
 24 48  1  0  0  0  0
 25 49  1  0  0  0  0
 25 50  1  0  0  0  0
 25 51  1  0  0  0  0
M  END
> <PUBCHEM_COMPOUND_CID>
5281351

> <PUBCHEM_COMPOUND_CANONICALIZED>
1

> <PUBCHEM_CACTVS_COMPLEXITY>
617

> <PUBCHEM_CACTVS_HBOND_ACCEPTOR>
3

> <PUBCHEM_CACTVS_HBOND_DONOR>
0

> <PUBCHEM_CACTVS_ROTATABLE_BOND>
1

> <PUBCHEM_CACTVS_SUBSKEYS>
AAADceB7MAAAAAAAAAAAAAAAAAAAAWLAAAA8YIAAAAAWAFgBAAAAHgAAAAAADyzBmAYyxoMABACIAiVSUACCCAAhIAAIiAAPTIgOJiLE8ZuFMChkxhHY6AeQ0PMPgAABAAACEACAAAKACAQgAAAAAAAAAA==

> <PUBCHEM_IUPAC_INCHI>
InChI=1S/C21H26N2O2/c1-4-15-14-8-10-22-11-9-21(20(15)22)16-6-5-7-17(25-3)19(16)23(13(2)24)18(21)12-14/h4-7,14,18,20H,8-12H2,1-3H3/b15-4+/t14-,18-,20-,21-/m1/s1

> <PUBCHEM_IUPAC_INCHIKEY>
CCNTUVFHVFQEJI-ULBRXFQASA-N

> <PUBCHEM_XLOGP3_AA>
2.2

> <PUBCHEM_EXACT_MASS>
338.199428

> <PUBCHEM_MOLECULAR_FORMULA>
C21H26N2O2

> <PUBCHEM_MOLECULAR_WEIGHT>
338.44334

> <PUBCHEM_OPENEYE_CAN_SMILES>
CC=C1C2CCN3C1C4(CC3)C(C2)N(C5=C4C=CC=C5OC)C(=O)C

> <PUBCHEM_OPENEYE_ISO_SMILES>
C/C=C/1\[C@@H]2CCN3[C@H]1[C@@]4(CC3)[C@@H](C2)N(C5=C4C=CC=C5OC)C(=O)C

> <PUBCHEM_CACTVS_TPSA>
32.8

> <PUBCHEM_MONOISOTOPIC_WEIGHT>
338.199428

> <PUBCHEM_TOTAL_CHARGE>
0

> <PUBCHEM_HEAVY_ATOM_COUNT>
25

> <PUBCHEM_ATOM_DEF_STEREO_COUNT>
4

> <PUBCHEM_ATOM_UDEF_STEREO_COUNT>
0

> <PUBCHEM_BOND_DEF_STEREO_COUNT>
1

> <PUBCHEM_BOND_UDEF_STEREO_COUNT>
0

> <PUBCHEM_ISOTOPIC_ATOM_COUNT>
0

> <PUBCHEM_COMPONENT_COUNT>
1

> <PUBCHEM_CACTVS_TAUTO_COUNT>
1

> <PUBCHEM_COORDINATE_TYPE>
1
5
255

> <PUBCHEM_BONDANNOTATIONS>
13  16  8
13  18  8
16  20  8
18  21  8
20  22  8
21  22  8
5  13  6
6  26  6
7  27  5
9  30  6

$$$$

