14400
  -OEChem-06241222432D

 42 42  0     0  0  0  0  0  0999 V2000
    9.1360    5.3100    0.0000 Cl  0  5  0  0  0  0  0  0  0  0  0  0
    4.8671    6.0000    0.0000 O   0  0  0  0  0  0  0  0  0  0  0  0
    0.5369    3.5000    0.0000 O   0  0  0  0  0  0  0  0  0  0  0  0
    4.0010    7.5000    0.0000 N   0  3  0  0  0  0  0  0  0  0  0  0
    2.2690    4.5000    0.0000 N   0  0  0  0  0  0  0  0  0  0  0  0
    2.2690    3.5000    0.0000 N   0  0  0  0  0  0  0  0  0  0  0  0
    1.4030    0.0000    0.0000 N   0  0  0  0  0  0  0  0  0  0  0  0
    4.0010    8.5000    0.0000 C   0  0  0  0  0  0  0  0  0  0  0  0
    3.1350    6.0000    0.0000 C   0  0  0  0  0  0  0  0  0  0  0  0
    4.0010    6.5000    0.0000 C   0  0  0  0  0  0  0  0  0  0  0  0
    4.8671    9.0000    0.0000 C   0  0  0  0  0  0  0  0  0  0  0  0
    3.1350    5.0000    0.0000 C   0  0  0  0  0  0  0  0  0  0  0  0
    5.7331    8.5000    0.0000 C   0  0  0  0  0  0  0  0  0  0  0  0
    4.8671   10.0000    0.0000 C   0  0  0  0  0  0  0  0  0  0  0  0
    6.5991    9.0000    0.0000 C   0  0  0  0  0  0  0  0  0  0  0  0
    5.7331   10.5000    0.0000 C   0  0  0  0  0  0  0  0  0  0  0  0
    6.5991   10.0000    0.0000 C   0  0  0  0  0  0  0  0  0  0  0  0
    1.4030    3.0000    0.0000 C   0  0  0  0  0  0  0  0  0  0  0  0
    1.4030    2.0000    0.0000 C   0  0  0  0  0  0  0  0  0  0  0  0
    2.2690    1.5000    0.0000 C   0  0  0  0  0  0  0  0  0  0  0  0
    0.5369    1.5000    0.0000 C   0  0  0  0  0  0  0  0  0  0  0  0
    2.2690    0.5000    0.0000 C   0  0  0  0  0  0  0  0  0  0  0  0
    0.5369    0.5000    0.0000 C   0  0  0  0  0  0  0  0  0  0  0  0
    4.6210    7.5000    0.0000 H   0  0  0  0  0  0  0  0  0  0  0  0
    3.3810    7.5000    0.0000 H   0  0  0  0  0  0  0  0  0  0  0  0
    3.7890    9.0826    0.0000 H   0  0  0  0  0  0  0  0  0  0  0  0
    3.3905    8.3923    0.0000 H   0  0  0  0  0  0  0  0  0  0  0  0
    2.9230    6.5826    0.0000 H   0  0  0  0  0  0  0  0  0  0  0  0
    2.5244    5.8923    0.0000 H   0  0  0  0  0  0  0  0  0  0  0  0
    3.3471    4.4174    0.0000 H   0  0  0  0  0  0  0  0  0  0  0  0
    3.7456    5.1077    0.0000 H   0  0  0  0  0  0  0  0  0  0  0  0
    5.7331    7.8800    0.0000 H   0  0  0  0  0  0  0  0  0  0  0  0
    4.3301   10.3100    0.0000 H   0  0  0  0  0  0  0  0  0  0  0  0
    1.7320    4.8100    0.0000 H   0  0  0  0  0  0  0  0  0  0  0  0
    7.1360    8.6900    0.0000 H   0  0  0  0  0  0  0  0  0  0  0  0
    5.7331   11.1200    0.0000 H   0  0  0  0  0  0  0  0  0  0  0  0
    2.8059    3.1900    0.0000 H   0  0  0  0  0  0  0  0  0  0  0  0
    7.1360   10.3100    0.0000 H   0  0  0  0  0  0  0  0  0  0  0  0
    2.8059    1.8100    0.0000 H   0  0  0  0  0  0  0  0  0  0  0  0
    0.0000    1.8100    0.0000 H   0  0  0  0  0  0  0  0  0  0  0  0
    2.8059    0.1900    0.0000 H   0  0  0  0  0  0  0  0  0  0  0  0
    0.0000    0.1900    0.0000 H   0  0  0  0  0  0  0  0  0  0  0  0
  2 10  2  0  0  0  0
  3 18  2  0  0  0  0
  4  8  1  0  0  0  0
  4 10  1  0  0  0  0
  4 24  1  0  0  0  0
  4 25  1  0  0  0  0
  5  6  1  0  0  0  0
  5 12  1  0  0  0  0
  5 34  1  0  0  0  0
  6 18  1  0  0  0  0
  6 37  1  0  0  0  0
  7 22  2  0  0  0  0
  7 23  1  0  0  0  0
  8 11  1  0  0  0  0
  8 26  1  0  0  0  0
  8 27  1  0  0  0  0
  9 10  1  0  0  0  0
  9 12  1  0  0  0  0
  9 28  1  0  0  0  0
  9 29  1  0  0  0  0
 11 13  2  0  0  0  0
 11 14  1  0  0  0  0
 12 30  1  0  0  0  0
 12 31  1  0  0  0  0
 13 15  1  0  0  0  0
 13 32  1  0  0  0  0
 14 16  2  0  0  0  0
 14 33  1  0  0  0  0
 15 17  2  0  0  0  0
 15 35  1  0  0  0  0
 16 17  1  0  0  0  0
 16 36  1  0  0  0  0
 17 38  1  0  0  0  0
 18 19  1  0  0  0  0
 19 20  2  0  0  0  0
 19 21  1  0  0  0  0
 20 22  1  0  0  0  0
 20 39  1  0  0  0  0
 21 23  2  0  0  0  0
 21 40  1  0  0  0  0
 22 41  1  0  0  0  0
 23 42  1  0  0  0  0
M  CHG  2   1  -1   4   1
M  END
> <PUBCHEM_COMPOUND_CID>
14400

> <PUBCHEM_COMPOUND_CANONICALIZED>
1

> <PUBCHEM_CACTVS_COMPLEXITY>
350

> <PUBCHEM_CACTVS_HBOND_ACCEPTOR>
5

> <PUBCHEM_CACTVS_HBOND_DONOR>
3

> <PUBCHEM_CACTVS_ROTATABLE_BOND>
7

> <PUBCHEM_CACTVS_SUBSKEYS>
AAADceB7sAAEAAAAAAAAAAAAAAAAAAAAAAA8QAAAAAAAAAABwAAAHgAYAAAADADBmgQ8gJLqEACoAjF3VACCgCA1AiIa+KE4ZNgIIHrA1ZGEIQhglgDIyYcUgAAOAAAAAAAAAAAAAAAAAAAAAAAAAAAAAA==

> <PUBCHEM_IUPAC_OPENEYE_NAME>
benzyl-[3-[2-(pyridine-4-carbonyl)hydrazino]propanoyl]ammonium chloride

> <PUBCHEM_IUPAC_CAS_NAME>
[1-oxo-3-[[oxo(pyridin-4-yl)methyl]hydrazo]propyl]-(phenylmethyl)ammonium chloride

> <PUBCHEM_IUPAC_NAME>
benzyl-[3-[2-(pyridine-4-carbonyl)hydrazinyl]propanoyl]azanium chloride

> <PUBCHEM_IUPAC_SYSTEMATIC_NAME>
(phenylmethyl)-[3-(2-pyridin-4-ylcarbonylhydrazinyl)propanoyl]azanium chloride

> <PUBCHEM_IUPAC_TRADITIONAL_NAME>
benzyl-[3-(N'-isonicotinoylhydrazino)propanoyl]ammonium chloride

> <PUBCHEM_IUPAC_INCHI>
InChI=1S/C16H18N4O2.ClH/c21-15(18-12-13-4-2-1-3-5-13)8-11-19-20-16(22)14-6-9-17-10-7-14;/h1-7,9-10,19H,8,11-12H2,(H,18,21)(H,20,22);1H

> <PUBCHEM_IUPAC_INCHIKEY>
XPLZAZCGEUUFJL-UHFFFAOYSA-N

> <PUBCHEM_EXACT_MASS>
334.119654

> <PUBCHEM_MOLECULAR_FORMULA>
C16H19ClN4O2

> <PUBCHEM_MOLECULAR_WEIGHT>
334.80066

> <PUBCHEM_OPENEYE_CAN_SMILES>
C1=CC=C(C=C1)C[NH2+]C(=O)CCNNC(=O)C2=CC=NC=C2.[Cl-]

> <PUBCHEM_OPENEYE_ISO_SMILES>
C1=CC=C(C=C1)C[NH2+]C(=O)CCNNC(=O)C2=CC=NC=C2.[Cl-]

> <PUBCHEM_CACTVS_TPSA>
87.7

> <PUBCHEM_MONOISOTOPIC_WEIGHT>
334.119654

> <PUBCHEM_TOTAL_CHARGE>
0

> <PUBCHEM_HEAVY_ATOM_COUNT>
23

> <PUBCHEM_ATOM_DEF_STEREO_COUNT>
0

> <PUBCHEM_ATOM_UDEF_STEREO_COUNT>
0

> <PUBCHEM_BOND_DEF_STEREO_COUNT>
0

> <PUBCHEM_BOND_UDEF_STEREO_COUNT>
0

> <PUBCHEM_ISOTOPIC_ATOM_COUNT>
0

> <PUBCHEM_COMPONENT_COUNT>
2

> <PUBCHEM_CACTVS_TAUTO_COUNT>
8

> <PUBCHEM_COORDINATE_TYPE>
1
5
255

> <PUBCHEM_BONDANNOTATIONS>
11  13  8
11  14  8
13  15  8
14  16  8
15  17  8
16  17  8
19  20  8
19  21  8
20  22  8
21  23  8
7  22  8
7  23  8

$$$$

