20055290
  -OEChem-07051213102D

 79 81  0     1  0  0  0  0  0999 V2000
    5.8520   -0.2289    0.0000 O   0  0  0  0  0  0  0  0  0  0  0  0
    7.6316   -0.1357    0.0000 O   0  0  0  0  0  0  0  0  0  0  0  0
    6.0794    1.9347    0.0000 O   0  0  0  0  0  0  0  0  0  0  0  0
    7.5928    2.4517    0.0000 O   0  0  0  0  0  0  0  0  0  0  0  0
    7.2384    3.2219    0.0000 O   0  0  0  0  0  0  0  0  0  0  0  0
    7.5841   -1.2289    0.0000 O   0  0  0  0  0  0  0  0  0  0  0  0
    5.8520   -4.2289    0.0000 O   0  0  0  0  0  0  0  0  0  0  0  0
    4.1200   -3.2289    0.0000 O   0  0  0  0  0  0  0  0  0  0  0  0
    7.5841   -3.2289    0.0000 O   0  0  0  0  0  0  0  0  0  0  0  0
    9.5328    1.4735    0.0000 O   0  0  0  0  0  0  0  0  0  0  0  0
    5.0090    5.2293    0.0000 O   0  0  0  0  0  0  0  0  0  0  0  0
    6.9111    5.8473    0.0000 O   0  0  0  0  0  0  0  0  0  0  0  0
    9.1405    3.8399    0.0000 O   0  0  0  0  0  0  0  0  0  0  0  0
    7.5841   -4.2289    0.0000 O   0  0  0  0  0  0  0  0  0  0  0  0
    4.1200   -1.2289    0.0000 N   0  0  0  0  0  0  0  0  0  0  0  0
    4.5932    3.2730    0.0000 N   0  0  0  0  0  0  0  0  0  0  0  0
    2.6200   -0.3628    0.0000 N   0  0  0  0  0  0  0  0  0  0  0  0
    2.6200   -2.0950    0.0000 N   0  0  0  0  0  0  0  0  0  0  0  0
    6.7181   -5.7289    0.0000 N   0  0  0  0  0  0  0  0  0  0  0  0
    6.8226    1.2656    0.0000 C   0  0  2  0  0  0  0  0  0  0  0  0
    7.8008    1.4735    0.0000 C   0  0  1  0  0  0  0  0  0  0  0  0
    6.7181    0.2711    0.0000 C   0  0  2  0  0  0  0  0  0  0  0  0
    5.8520   -1.2289    0.0000 C   0  0  2  0  0  0  0  0  0  0  0  0
    8.3008    0.6075    0.0000 C   0  0  2  0  0  0  0  0  0  0  0  0
    4.9860   -1.7289    0.0000 C   0  0  2  0  0  0  0  0  0  0  0  0
    6.7181   -1.7289    0.0000 C   0  0  1  0  0  0  0  0  0  0  0  0
    4.9860   -2.7289    0.0000 C   0  0  1  0  0  0  0  0  0  0  0  0
    6.7181   -2.7289    0.0000 C   0  0  2  0  0  0  0  0  0  0  0  0
    5.8520   -3.2289    0.0000 C   0  0  2  0  0  0  0  0  0  0  0  0
    6.2874    2.9129    0.0000 C   0  0  2  0  0  0  0  0  0  0  0  0
    8.6668    1.9735    0.0000 C   0  0  0  0  0  0  0  0  0  0  0  0
    5.5442    3.5820    0.0000 C   0  0  2  0  0  0  0  0  0  0  0  0
    5.7521    4.5602    0.0000 C   0  0  1  0  0  0  0  0  0  0  0  0
    9.2953    0.5030    0.0000 C   0  0  0  0  0  0  0  0  0  0  0  0
    6.7032    4.8692    0.0000 C   0  0  2  0  0  0  0  0  0  0  0  0
    7.4463    4.2000    0.0000 C   0  0  2  0  0  0  0  0  0  0  0  0
    8.3974    4.5091    0.0000 C   0  0  0  0  0  0  0  0  0  0  0  0
    3.1200   -1.2289    0.0000 C   0  0  0  0  0  0  0  0  0  0  0  0
    3.8500    3.9421    0.0000 C   0  0  0  0  0  0  0  0  0  0  0  0
    6.7181   -4.7289    0.0000 C   0  0  0  0  0  0  0  0  0  0  0  0
    6.9831    1.8645    0.0000 H   0  0  0  0  0  0  0  0  0  0  0  0
    6.7505   -0.3481    0.0000 H   0  0  0  0  0  0  0  0  0  0  0  0
    6.3890   -0.9189    0.0000 H   0  0  0  0  0  0  0  0  0  0  0  0
    8.5229    0.0287    0.0000 H   0  0  0  0  0  0  0  0  0  0  0  0
    4.9860   -1.1089    0.0000 H   0  0  0  0  0  0  0  0  0  0  0  0
    6.7181   -1.1089    0.0000 H   0  0  0  0  0  0  0  0  0  0  0  0
    4.9860   -3.3489    0.0000 H   0  0  0  0  0  0  0  0  0  0  0  0
    6.7181   -3.3489    0.0000 H   0  0  0  0  0  0  0  0  0  0  0  0
    6.3890   -3.5389    0.0000 H   0  0  0  0  0  0  0  0  0  0  0  0
    5.6977    2.7213    0.0000 H   0  0  0  0  0  0  0  0  0  0  0  0
    9.0653    2.4485    0.0000 H   0  0  0  0  0  0  0  0  0  0  0  0
    8.2682    2.4485    0.0000 H   0  0  0  0  0  0  0  0  0  0  0  0
    5.0835    3.9969    0.0000 H   0  0  0  0  0  0  0  0  0  0  0  0
    5.1625    4.3686    0.0000 H   0  0  0  0  0  0  0  0  0  0  0  0
    9.2305   -0.1136    0.0000 H   0  0  0  0  0  0  0  0  0  0  0  0
    9.9119    0.4382    0.0000 H   0  0  0  0  0  0  0  0  0  0  0  0
    9.3601    1.1196    0.0000 H   0  0  0  0  0  0  0  0  0  0  0  0
    7.2928    5.0608    0.0000 H   0  0  0  0  0  0  0  0  0  0  0  0
    7.9071    3.7852    0.0000 H   0  0  0  0  0  0  0  0  0  0  0  0
    7.0032    2.6432    0.0000 H   0  0  0  0  0  0  0  0  0  0  0  0
    8.1210   -1.5389    0.0000 H   0  0  0  0  0  0  0  0  0  0  0  0
    4.4643    2.6666    0.0000 H   0  0  0  0  0  0  0  0  0  0  0  0
    4.1200   -3.8489    0.0000 H   0  0  0  0  0  0  0  0  0  0  0  0
    8.1210   -2.9189    0.0000 H   0  0  0  0  0  0  0  0  0  0  0  0
    8.8860    4.8908    0.0000 H   0  0  0  0  0  0  0  0  0  0  0  0
    8.1063    5.0565    0.0000 H   0  0  0  0  0  0  0  0  0  0  0  0
   10.0697    1.7835    0.0000 H   0  0  0  0  0  0  0  0  0  0  0  0
    5.1379    5.8357    0.0000 H   0  0  0  0  0  0  0  0  0  0  0  0
    7.5008    6.0389    0.0000 H   0  0  0  0  0  0  0  0  0  0  0  0
    4.2649    4.4029    0.0000 H   0  0  0  0  0  0  0  0  0  0  0  0
    3.3893    4.3570    0.0000 H   0  0  0  0  0  0  0  0  0  0  0  0
    3.4352    3.4814    0.0000 H   0  0  0  0  0  0  0  0  0  0  0  0
    9.7302    4.0315    0.0000 H   0  0  0  0  0  0  0  0  0  0  0  0
    2.0000   -2.0950    0.0000 H   0  0  0  0  0  0  0  0  0  0  0  0
    2.9300   -2.6319    0.0000 H   0  0  0  0  0  0  0  0  0  0  0  0
    2.0000   -0.3628    0.0000 H   0  0  0  0  0  0  0  0  0  0  0  0
    2.9300    0.1740    0.0000 H   0  0  0  0  0  0  0  0  0  0  0  0
    6.1811   -6.0389    0.0000 H   0  0  0  0  0  0  0  0  0  0  0  0
    7.2550   -6.0389    0.0000 H   0  0  0  0  0  0  0  0  0  0  0  0
 22  1  1  1  0  0  0
 23  1  1  1  0  0  0
  2 22  1  0  0  0  0
  2 24  1  0  0  0  0
 20  3  1  6  0  0  0
 30  3  1  1  0  0  0
 21  4  1  6  0  0  0
  4 60  1  0  0  0  0
  5 30  1  0  0  0  0
  5 36  1  0  0  0  0
 26  6  1  6  0  0  0
  6 61  1  0  0  0  0
 29  7  1  6  0  0  0
  7 40  1  0  0  0  0
 27  8  1  1  0  0  0
  8 63  1  0  0  0  0
 28  9  1  1  0  0  0
  9 64  1  0  0  0  0
 10 31  1  0  0  0  0
 10 67  1  0  0  0  0
 33 11  1  6  0  0  0
 11 68  1  0  0  0  0
 35 12  1  1  0  0  0
 12 69  1  0  0  0  0
 13 37  1  0  0  0  0
 13 73  1  0  0  0  0
 14 40  2  0  0  0  0
 25 15  1  6  0  0  0
 15 38  2  0  0  0  0
 32 16  1  1  0  0  0
 16 39  1  0  0  0  0
 16 62  1  0  0  0  0
 17 38  1  0  0  0  0
 17 76  1  0  0  0  0
 17 77  1  0  0  0  0
 18 38  1  0  0  0  0
 18 74  1  0  0  0  0
 18 75  1  0  0  0  0
 19 40  1  0  0  0  0
 19 78  1  0  0  0  0
 19 79  1  0  0  0  0
 20 21  1  0  0  0  0
 20 22  1  0  0  0  0
 20 41  1  0  0  0  0
 21 24  1  0  0  0  0
 21 31  1  0  0  0  0
 22 42  1  0  0  0  0
 23 25  1  0  0  0  0
 23 26  1  0  0  0  0
 23 43  1  0  0  0  0
 24 34  1  6  0  0  0
 24 44  1  0  0  0  0
 25 27  1  0  0  0  0
 25 45  1  0  0  0  0
 26 28  1  0  0  0  0
 26 46  1  0  0  0  0
 27 29  1  0  0  0  0
 27 47  1  0  0  0  0
 28 29  1  0  0  0  0
 28 48  1  0  0  0  0
 29 49  1  0  0  0  0
 30 32  1  0  0  0  0
 30 50  1  0  0  0  0
 31 51  1  0  0  0  0
 31 52  1  0  0  0  0
 32 33  1  0  0  0  0
 32 53  1  0  0  0  0
 33 35  1  0  0  0  0
 33 54  1  0  0  0  0
 34 55  1  0  0  0  0
 34 56  1  0  0  0  0
 34 57  1  0  0  0  0
 35 36  1  0  0  0  0
 35 58  1  0  0  0  0
 36 37  1  6  0  0  0
 36 59  1  0  0  0  0
 37 65  1  0  0  0  0
 37 66  1  0  0  0  0
 39 70  1  0  0  0  0
 39 71  1  0  0  0  0
 39 72  1  0  0  0  0
M  END
> <PUBCHEM_COMPOUND_CID>
20055290

> <PUBCHEM_COMPOUND_CANONICALIZED>
1

> <PUBCHEM_CACTVS_COMPLEXITY>
900

> <PUBCHEM_CACTVS_HBOND_ACCEPTOR>
16

> <PUBCHEM_CACTVS_HBOND_DONOR>
12

> <PUBCHEM_CACTVS_ROTATABLE_BOND>
10

> <PUBCHEM_CACTVS_SUBSKEYS>
AAADcfB7vAAAAAAAAAAAAAAAAAAAASAAAAA0QAAAAAAAAAAAAAAAHgAQCAAADHzxgAcDCALABgAoAAAAPAAAAAEAAAAAAIAIAAETEAIAgAAvQAAHEAAXAAHwcA8KAAAAAAAAAAACgAAUAACgAAAAAAAAAA==

> <PUBCHEM_IUPAC_OPENEYE_NAME>
[(1R,2S,3S,4R,5R,6R)-4-[(2R,3R,4R,5S)-3-[(2S,3S,4S,5R,6S)-4,5-dihydroxy-6-(hydroxymethyl)-3-(methylamino)tetrahydropyran-2-yl]oxy-4-hydroxy-4-(hydroxymethyl)-5-methyl-tetrahydrofuran-2-yl]oxy-3-guanidino-2,5,6-trihydroxy-cyclohexyl] carbamate

> <PUBCHEM_IUPAC_CAS_NAME>
carbamic acid [(1R,2S,3S,4R,5R,6R)-3-(diaminomethylideneamino)-4-[[(2R,3R,4R,5S)-3-[[(2S,3S,4S,5R,6S)-4,5-dihydroxy-6-(hydroxymethyl)-3-(methylamino)-2-oxanyl]oxy]-4-hydroxy-4-(hydroxymethyl)-5-methyl-2-oxolanyl]oxy]-2,5,6-trihydroxycyclohexyl] ester

> <PUBCHEM_IUPAC_NAME>
[(1R,2S,3S,4R,5R,6R)-3-(diaminomethylideneamino)-4-[(2R,3R,4R,5S)-3-[(2S,3S,4S,5R,6S)-4,5-dihydroxy-6-(hydroxymethyl)-3-(methylamino)oxan-2-yl]oxy-4-hydroxy-4-(hydroxymethyl)-5-methyloxolan-2-yl]oxy-2,5,6-trihydroxycyclohexyl] carbamate

> <PUBCHEM_IUPAC_SYSTEMATIC_NAME>
[(1R,2S,3S,4R,5R,6R)-3-[bis(azanyl)methylideneamino]-4-[(2R,3R,4R,5S)-4-(hydroxymethyl)-3-[(2S,3S,4S,5R,6S)-6-(hydroxymethyl)-3-(methylamino)-4,5-bis(oxidanyl)oxan-2-yl]oxy-5-methyl-4-oxidanyl-oxolan-2-yl]oxy-2,5,6-tris(oxidanyl)cyclohexyl] carbamate

> <PUBCHEM_IUPAC_TRADITIONAL_NAME>
carbamic acid [(1R,2S,3S,4R,5R,6R)-4-[(2R,3R,4R,5S)-3-[(2S,3S,4S,5R,6S)-4,5-dihydroxy-3-(methylamino)-6-methylol-tetrahydropyran-2-yl]oxy-4-hydroxy-5-methyl-4-methylol-tetrahydrofuran-2-yl]oxy-3-guanidino-2,5,6-trihydroxy-cyclohexyl] ester

> <PUBCHEM_IUPAC_INCHI>
InChI=1S/C21H39N5O14/c1-5-21(35,4-28)16(40-17-8(25-2)10(30)9(29)6(3-27)37-17)18(36-5)38-14-7(26-19(22)23)11(31)15(39-20(24)34)13(33)12(14)32/h5-18,25,27-33,35H,3-4H2,1-2H3,(H2,24,34)(H4,22,23,26)/t5-,6-,7-,8-,9-,10-,11-,12+,13+,14+,15+,16-,17-,18-,21+/m0/s1

> <PUBCHEM_IUPAC_INCHIKEY>
RQLDKUSQKQMFCN-AEXVNIBOSA-N

> <PUBCHEM_XLOGP3_AA>
-7.3

> <PUBCHEM_EXACT_MASS>
585.249351

> <PUBCHEM_MOLECULAR_FORMULA>
C21H39N5O14

> <PUBCHEM_MOLECULAR_WEIGHT>
585.55946

> <PUBCHEM_OPENEYE_CAN_SMILES>
CC1C(C(C(O1)OC2C(C(C(C(C2O)O)OC(=O)N)O)N=C(N)N)OC3C(C(C(C(O3)CO)O)O)NC)(CO)O

> <PUBCHEM_OPENEYE_ISO_SMILES>
C[C@H]1[C@@]([C@H]([C@@H](O1)O[C@@H]2[C@H]([C@@H]([C@H]([C@@H]([C@H]2O)O)OC(=O)N)O)N=C(N)N)O[C@H]3[C@H]([C@@H]([C@H]([C@@H](O3)CO)O)O)NC)(CO)O

> <PUBCHEM_CACTVS_TPSA>
328

> <PUBCHEM_MONOISOTOPIC_WEIGHT>
585.249351

> <PUBCHEM_TOTAL_CHARGE>
0

> <PUBCHEM_HEAVY_ATOM_COUNT>
40

> <PUBCHEM_ATOM_DEF_STEREO_COUNT>
15

> <PUBCHEM_ATOM_UDEF_STEREO_COUNT>
0

> <PUBCHEM_BOND_DEF_STEREO_COUNT>
0

> <PUBCHEM_BOND_UDEF_STEREO_COUNT>
0

> <PUBCHEM_ISOTOPIC_ATOM_COUNT>
0

> <PUBCHEM_COMPONENT_COUNT>
1

> <PUBCHEM_CACTVS_TAUTO_COUNT>
4

> <PUBCHEM_COORDINATE_TYPE>
1
5
255

> <PUBCHEM_BONDANNOTATIONS>
22  1  5
23  1  5
33  11  6
35  12  5
25  15  6
32  16  5
24  34  6
20  3  6
30  3  5
36  37  6
21  4  6
26  6  6
29  7  6
27  8  5
28  9  5

$$$$

