   Color/Form

     * White, heavy powder
     * White monoclinic crystals

   from [1]HSDB

   Odor
        Odorless
   from [2]HSDB

   Melting Point
        280 deg C (decomposes)
   from [3]HSDB

   Density/Specific Gravity
        5.943
   from [4]HSDB

   Solubilities

     * Insoluble in water; soluble in nitric acid, alkalies
     * Slightly soluble in hot water
     * Soluble in ammonia water

   from [5]HSDB

   Spectral Properties
        INDEX OF REFRACTION: 1.90 (ALPHA), 1.97 (GAMMA)
   from [6]HSDB

   Other Chemical/Physical Properties

     * At about 280 deg C loses water and is converted into pyroarsenate
     * THE FORMATION OF ARSENITE HAS BEEN OBSERVED WHEN LEAD OR CALCIUM
       ARSENATE WERE MIXED WITH LIME, LIME SULFUR, SULFUR, OR CASEIN.
       [WOOLSON EA; J ENVIRON SCI HEALTH B 16 (2): 131-40 (1981)]
       [7]PubMed Abstract

   from [8]HSDB

   Computed Properties
   Molecular Weight                  347.12714 [g/mol]
   Molecular Formula                 AsHO[4]Pb
   H-Bond Donor                      1
   H-Bond Acceptor                   4
   Rotatable Bond Count              0
   Exact Mass                        347.885732
   MonoIsotopic Mass                 347.885732
   Topological Polar Surface Area    83.4
   Heavy Atom Count                  6
   Formal Charge                     0
   Complexity                        46.5
   Isotope Atom Count                0
   Defined Atom Stereocenter Count   0
   Undefined Atom Stereocenter Count 0
   Defined Bond Stereocenter Count   0
   Undefined Bond Stereocenter Count 0
   Covalently-Bonded Unit Count      2

References

   1. http://toxnet.nlm.nih.gov/cgi-bin/sis/search/r?dbs+hsdb:@term+@rn+@rel+7784-40-9
   2. http://toxnet.nlm.nih.gov/cgi-bin/sis/search/r?dbs+hsdb:@term+@rn+@rel+7784-40-9
   3. http://toxnet.nlm.nih.gov/cgi-bin/sis/search/r?dbs+hsdb:@term+@rn+@rel+7784-40-9
   4. http://toxnet.nlm.nih.gov/cgi-bin/sis/search/r?dbs+hsdb:@term+@rn+@rel+7784-40-9
   5. http://toxnet.nlm.nih.gov/cgi-bin/sis/search/r?dbs+hsdb:@term+@rn+@rel+7784-40-9
   6. http://toxnet.nlm.nih.gov/cgi-bin/sis/search/r?dbs+hsdb:@term+@rn+@rel+7784-40-9
   7. http://www.ncbi.nlm.nih.gov/entrez/query.fcgi?cmd=Retrieve&db=pubmed&dopt=Abstract&list_uids=7252060
   8. http://toxnet.nlm.nih.gov/cgi-bin/sis/search/r?dbs+hsdb:@term+@rn+@rel+7784-40-9
