4747
  -OEChem-06261200192D

 49 52  0     0  0  0  0  0  0999 V2000
    6.3301   -3.5427    0.0000 S   0  0  0  0  0  0  0  0  0  0  0  0
    2.0000    2.9573    0.0000 O   0  0  0  0  0  0  0  0  0  0  0  0
    4.5981    1.4573    0.0000 N   0  0  0  0  0  0  0  0  0  0  0  0
    6.3301   -1.5427    0.0000 N   0  0  0  0  0  0  0  0  0  0  0  0
   10.7243   -1.0152    0.0000 N   0  0  0  0  0  0  0  0  0  0  0  0
    4.5981    2.4573    0.0000 C   0  0  0  0  0  0  0  0  0  0  0  0
    3.7320    0.9573    0.0000 C   0  0  0  0  0  0  0  0  0  0  0  0
    2.8660    2.4573    0.0000 C   0  0  0  0  0  0  0  0  0  0  0  0
    3.7320    2.9573    0.0000 C   0  0  0  0  0  0  0  0  0  0  0  0
    2.8660    1.4573    0.0000 C   0  0  0  0  0  0  0  0  0  0  0  0
    5.4641    0.9573    0.0000 C   0  0  0  0  0  0  0  0  0  0  0  0
    5.4641   -0.0427    0.0000 C   0  0  0  0  0  0  0  0  0  0  0  0
    6.3301   -0.5427    0.0000 C   0  0  0  0  0  0  0  0  0  0  0  0
    7.1962   -2.0427    0.0000 C   0  0  0  0  0  0  0  0  0  0  0  0
    5.4641   -2.0427    0.0000 C   0  0  0  0  0  0  0  0  0  0  0  0
    7.1962   -3.0427    0.0000 C   0  0  0  0  0  0  0  0  0  0  0  0
    5.4641   -3.0427    0.0000 C   0  0  0  0  0  0  0  0  0  0  0  0
    8.0901   -1.5080    0.0000 C   0  0  0  0  0  0  0  0  0  0  0  0
    4.5702   -1.5080    0.0000 C   0  0  0  0  0  0  0  0  0  0  0  0
    8.0901   -3.5773    0.0000 C   0  0  0  0  0  0  0  0  0  0  0  0
    4.5702   -3.5773    0.0000 C   0  0  0  0  0  0  0  0  0  0  0  0
    8.9962   -2.0218    0.0000 C   0  0  0  0  0  0  0  0  0  0  0  0
    3.6641   -2.0218    0.0000 C   0  0  0  0  0  0  0  0  0  0  0  0
    8.9962   -3.0635    0.0000 C   0  0  0  0  0  0  0  0  0  0  0  0
    3.6641   -3.0635    0.0000 C   0  0  0  0  0  0  0  0  0  0  0  0
    9.8602   -1.5185    0.0000 C   0  0  0  0  0  0  0  0  0  0  0  0
    5.2087    2.3497    0.0000 H   0  0  0  0  0  0  0  0  0  0  0  0
    4.8101    3.0399    0.0000 H   0  0  0  0  0  0  0  0  0  0  0  0
    3.3335    0.4824    0.0000 H   0  0  0  0  0  0  0  0  0  0  0  0
    4.1306    0.4824    0.0000 H   0  0  0  0  0  0  0  0  0  0  0  0
    2.8660    3.0773    0.0000 H   0  0  0  0  0  0  0  0  0  0  0  0
    4.1306    3.4323    0.0000 H   0  0  0  0  0  0  0  0  0  0  0  0
    3.3335    3.4323    0.0000 H   0  0  0  0  0  0  0  0  0  0  0  0
    2.2554    1.5650    0.0000 H   0  0  0  0  0  0  0  0  0  0  0  0
    2.6540    0.8747    0.0000 H   0  0  0  0  0  0  0  0  0  0  0  0
    6.0747    0.8497    0.0000 H   0  0  0  0  0  0  0  0  0  0  0  0
    5.6762    1.5399    0.0000 H   0  0  0  0  0  0  0  0  0  0  0  0
    4.8535    0.0650    0.0000 H   0  0  0  0  0  0  0  0  0  0  0  0
    5.2520   -0.6253    0.0000 H   0  0  0  0  0  0  0  0  0  0  0  0
    6.9407   -0.6503    0.0000 H   0  0  0  0  0  0  0  0  0  0  0  0
    6.5422    0.0399    0.0000 H   0  0  0  0  0  0  0  0  0  0  0  0
    2.0000    3.5773    0.0000 H   0  0  0  0  0  0  0  0  0  0  0  0
    8.0829   -0.8880    0.0000 H   0  0  0  0  0  0  0  0  0  0  0  0
    4.5773   -0.8880    0.0000 H   0  0  0  0  0  0  0  0  0  0  0  0
    8.0829   -4.1973    0.0000 H   0  0  0  0  0  0  0  0  0  0  0  0
    4.5773   -4.1973    0.0000 H   0  0  0  0  0  0  0  0  0  0  0  0
    3.1284   -1.7098    0.0000 H   0  0  0  0  0  0  0  0  0  0  0  0
    9.5319   -3.3756    0.0000 H   0  0  0  0  0  0  0  0  0  0  0  0
    3.1284   -3.3756    0.0000 H   0  0  0  0  0  0  0  0  0  0  0  0
  1 16  1  0  0  0  0
  1 17  1  0  0  0  0
  2  8  1  0  0  0  0
  2 42  1  0  0  0  0
  3  6  1  0  0  0  0
  3  7  1  0  0  0  0
  3 11  1  0  0  0  0
  4 13  1  0  0  0  0
  4 14  1  0  0  0  0
  4 15  1  0  0  0  0
  5 26  3  0  0  0  0
  6  9  1  0  0  0  0
  6 27  1  0  0  0  0
  6 28  1  0  0  0  0
  7 10  1  0  0  0  0
  7 29  1  0  0  0  0
  7 30  1  0  0  0  0
  8  9  1  0  0  0  0
  8 10  1  0  0  0  0
  8 31  1  0  0  0  0
  9 32  1  0  0  0  0
  9 33  1  0  0  0  0
 10 34  1  0  0  0  0
 10 35  1  0  0  0  0
 11 12  1  0  0  0  0
 11 36  1  0  0  0  0
 11 37  1  0  0  0  0
 12 13  1  0  0  0  0
 12 38  1  0  0  0  0
 12 39  1  0  0  0  0
 13 40  1  0  0  0  0
 13 41  1  0  0  0  0
 14 16  2  0  0  0  0
 14 18  1  0  0  0  0
 15 17  1  0  0  0  0
 15 19  2  0  0  0  0
 16 20  1  0  0  0  0
 17 21  2  0  0  0  0
 18 22  2  0  0  0  0
 18 43  1  0  0  0  0
 19 23  1  0  0  0  0
 19 44  1  0  0  0  0
 20 24  2  0  0  0  0
 20 45  1  0  0  0  0
 21 25  1  0  0  0  0
 21 46  1  0  0  0  0
 22 24  1  0  0  0  0
 22 26  1  0  0  0  0
 23 25  2  0  0  0  0
 23 47  1  0  0  0  0
 24 48  1  0  0  0  0
 25 49  1  0  0  0  0
M  END
> <PUBCHEM_COMPOUND_CID>
4747

> <PUBCHEM_COMPOUND_CANONICALIZED>
1

> <PUBCHEM_CACTVS_COMPLEXITY>
513

> <PUBCHEM_CACTVS_HBOND_ACCEPTOR>
5

> <PUBCHEM_CACTVS_HBOND_DONOR>
1

> <PUBCHEM_CACTVS_ROTATABLE_BOND>
4

> <PUBCHEM_CACTVS_SUBSKEYS>
AAADceB7IABAAAAAAAAAAAAAAAAAAAAAAAA8eIEAAAAAAACxQAAAHgQACAAADBzh2AYwwYMAAgiQBiRCQACiAAAhChAIiBwIZIgIsGLg0ZGEYAhigADoyA8QgAAOEAAAQAAAAQAgAACAAAACAAAAAAAAAA==

> <PUBCHEM_IUPAC_OPENEYE_NAME>
10-[3-(4-hydroxy-1-piperidyl)propyl]phenothiazine-2-carbonitrile

> <PUBCHEM_IUPAC_CAS_NAME>
10-[3-(4-hydroxy-1-piperidinyl)propyl]-2-phenothiazinecarbonitrile

> <PUBCHEM_IUPAC_NAME>
10-[3-(4-hydroxypiperidin-1-yl)propyl]phenothiazine-2-carbonitrile

> <PUBCHEM_IUPAC_SYSTEMATIC_NAME>
10-[3-(4-oxidanylpiperidin-1-yl)propyl]phenothiazine-2-carbonitrile

> <PUBCHEM_IUPAC_TRADITIONAL_NAME>
10-[3-(4-hydroxypiperidino)propyl]phenothiazine-2-carbonitrile

> <PUBCHEM_IUPAC_INCHI>
InChI=1S/C21H23N3OS/c22-15-16-6-7-21-19(14-16)24(18-4-1-2-5-20(18)26-21)11-3-10-23-12-8-17(25)9-13-23/h1-2,4-7,14,17,25H,3,8-13H2

> <PUBCHEM_IUPAC_INCHIKEY>
LUALIOATIOESLM-UHFFFAOYSA-N

> <PUBCHEM_XLOGP3>
3.5

> <PUBCHEM_EXACT_MASS>
365.156183

> <PUBCHEM_MOLECULAR_FORMULA>
C21H23N3OS

> <PUBCHEM_MOLECULAR_WEIGHT>
365.49182

> <PUBCHEM_OPENEYE_CAN_SMILES>
C1CN(CCC1O)CCCN2C3=CC=CC=C3SC4=C2C=C(C=C4)C#N

> <PUBCHEM_OPENEYE_ISO_SMILES>
C1CN(CCC1O)CCCN2C3=CC=CC=C3SC4=C2C=C(C=C4)C#N

> <PUBCHEM_CACTVS_TPSA>
75.8

> <PUBCHEM_MONOISOTOPIC_WEIGHT>
365.156183

> <PUBCHEM_TOTAL_CHARGE>
0

> <PUBCHEM_HEAVY_ATOM_COUNT>
26

> <PUBCHEM_ATOM_DEF_STEREO_COUNT>
0

> <PUBCHEM_ATOM_UDEF_STEREO_COUNT>
0

> <PUBCHEM_BOND_DEF_STEREO_COUNT>
0

> <PUBCHEM_BOND_UDEF_STEREO_COUNT>
0

> <PUBCHEM_ISOTOPIC_ATOM_COUNT>
0

> <PUBCHEM_COMPONENT_COUNT>
1

> <PUBCHEM_CACTVS_TAUTO_COUNT>
1

> <PUBCHEM_COORDINATE_TYPE>
1
5
255

> <PUBCHEM_BONDANNOTATIONS>
14  16  8
14  18  8
15  17  8
15  19  8
16  20  8
17  21  8
18  22  8
19  23  8
20  24  8
21  25  8
22  24  8
23  25  8

$$$$

