5281797
  -OEChem-07051212592D

 44 46  0     0  0  0  0  0  0999 V2000
    8.0901    1.7951    0.0000 O   0  0  0  0  0  0  0  0  0  0  0  0
    6.3301   -1.2396    0.0000 O   0  0  0  0  0  0  0  0  0  0  0  0
    4.5981    1.7604    0.0000 O   0  0  0  0  0  0  0  0  0  0  0  0
    8.0785   -1.2742    0.0000 O   0  0  0  0  0  0  0  0  0  0  0  0
    8.9884   -1.7604    0.0000 O   0  0  0  0  0  0  0  0  0  0  0  0
   12.4525   -1.7738    0.0000 O   0  0  0  0  0  0  0  0  0  0  0  0
    7.1962    0.2604    0.0000 C   0  0  0  0  0  0  0  0  0  0  0  0
    5.4641    0.2604    0.0000 C   0  0  0  0  0  0  0  0  0  0  0  0
    6.3301   -0.2396    0.0000 C   0  0  0  0  0  0  0  0  0  0  0  0
    7.1962    1.2604    0.0000 C   0  0  0  0  0  0  0  0  0  0  0  0
    4.5981   -0.2396    0.0000 C   0  0  0  0  0  0  0  0  0  0  0  0
    8.0901   -0.2743    0.0000 C   0  0  0  0  0  0  0  0  0  0  0  0
    5.4641    1.2604    0.0000 C   0  0  0  0  0  0  0  0  0  0  0  0
    8.9962    0.2396    0.0000 C   0  0  0  0  0  0  0  0  0  0  0  0
    6.3301    1.7604    0.0000 C   0  0  0  0  0  0  0  0  0  0  0  0
    9.8602   -0.2638    0.0000 C   0  0  0  0  0  0  0  0  0  0  0  0
    8.9962    1.2812    0.0000 C   0  0  0  0  0  0  0  0  0  0  0  0
    3.7320    0.2604    0.0000 C   0  0  0  0  0  0  0  0  0  0  0  0
    2.8660   -0.2396    0.0000 C   0  0  0  0  0  0  0  0  0  0  0  0
    9.8564   -1.2637    0.0000 C   0  0  0  0  0  0  0  0  0  0  0  0
   10.7282    0.2329    0.0000 C   0  0  0  0  0  0  0  0  0  0  0  0
   10.7205   -1.7671    0.0000 C   0  0  0  0  0  0  0  0  0  0  0  0
   11.5923   -0.2704    0.0000 C   0  0  0  0  0  0  0  0  0  0  0  0
   11.5884   -1.2704    0.0000 C   0  0  0  0  0  0  0  0  0  0  0  0
    2.0000    0.2604    0.0000 C   0  0  0  0  0  0  0  0  0  0  0  0
    2.8660   -1.2396    0.0000 C   0  0  0  0  0  0  0  0  0  0  0  0
    4.1996   -0.7146    0.0000 H   0  0  0  0  0  0  0  0  0  0  0  0
    4.9966   -0.7146    0.0000 H   0  0  0  0  0  0  0  0  0  0  0  0
    6.3301    2.3804    0.0000 H   0  0  0  0  0  0  0  0  0  0  0  0
    9.5319    1.5933    0.0000 H   0  0  0  0  0  0  0  0  0  0  0  0
    3.7320    0.8804    0.0000 H   0  0  0  0  0  0  0  0  0  0  0  0
   10.7306    0.8529    0.0000 H   0  0  0  0  0  0  0  0  0  0  0  0
    5.7932   -1.5496    0.0000 H   0  0  0  0  0  0  0  0  0  0  0  0
   10.7181   -2.3871    0.0000 H   0  0  0  0  0  0  0  0  0  0  0  0
   12.1304    0.0375    0.0000 H   0  0  0  0  0  0  0  0  0  0  0  0
    4.5981    2.3804    0.0000 H   0  0  0  0  0  0  0  0  0  0  0  0
    2.3100    0.7973    0.0000 H   0  0  0  0  0  0  0  0  0  0  0  0
    2.2460   -1.2396    0.0000 H   0  0  0  0  0  0  0  0  0  0  0  0
    2.8660   -1.8596    0.0000 H   0  0  0  0  0  0  0  0  0  0  0  0
    3.4860   -1.2396    0.0000 H   0  0  0  0  0  0  0  0  0  0  0  0
    1.4631    0.5704    0.0000 H   0  0  0  0  0  0  0  0  0  0  0  0
    1.6900   -0.2765    0.0000 H   0  0  0  0  0  0  0  0  0  0  0  0
    8.9861   -2.3804    0.0000 H   0  0  0  0  0  0  0  0  0  0  0  0
   12.9907   -1.4658    0.0000 H   0  0  0  0  0  0  0  0  0  0  0  0
  1 10  1  0  0  0  0
  1 17  1  0  0  0  0
  2  9  1  0  0  0  0
  2 33  1  0  0  0  0
  3 13  1  0  0  0  0
  3 36  1  0  0  0  0
  4 12  2  0  0  0  0
  5 20  1  0  0  0  0
  5 43  1  0  0  0  0
  6 24  1  0  0  0  0
  6 44  1  0  0  0  0
  7  9  1  0  0  0  0
  7 10  2  0  0  0  0
  7 12  1  0  0  0  0
  8  9  2  0  0  0  0
  8 11  1  0  0  0  0
  8 13  1  0  0  0  0
 10 15  1  0  0  0  0
 11 18  1  0  0  0  0
 11 27  1  0  0  0  0
 11 28  1  0  0  0  0
 12 14  1  0  0  0  0
 13 15  2  0  0  0  0
 14 16  1  0  0  0  0
 14 17  2  0  0  0  0
 15 29  1  0  0  0  0
 16 20  2  0  0  0  0
 16 21  1  0  0  0  0
 17 30  1  0  0  0  0
 18 19  2  0  0  0  0
 18 31  1  0  0  0  0
 19 25  1  0  0  0  0
 19 26  1  0  0  0  0
 20 22  1  0  0  0  0
 21 23  2  0  0  0  0
 21 32  1  0  0  0  0
 22 24  2  0  0  0  0
 22 34  1  0  0  0  0
 23 24  1  0  0  0  0
 23 35  1  0  0  0  0
 25 37  1  0  0  0  0
 25 41  1  0  0  0  0
 25 42  1  0  0  0  0
 26 38  1  0  0  0  0
 26 39  1  0  0  0  0
 26 40  1  0  0  0  0
M  END
> <PUBCHEM_COMPOUND_CID>
5281797

> <PUBCHEM_COMPOUND_CANONICALIZED>
1

> <PUBCHEM_CACTVS_COMPLEXITY>
593

> <PUBCHEM_CACTVS_HBOND_ACCEPTOR>
6

> <PUBCHEM_CACTVS_HBOND_DONOR>
4

> <PUBCHEM_CACTVS_ROTATABLE_BOND>
3

> <PUBCHEM_CACTVS_SUBSKEYS>
AAADceB4OAAAAAAAAAAAAAAAAAAAAAAAAAAwYIAAAAAAAACBQAAAGgAACAAADASgmAIyBoAABgCIAqBSAAACCAAkIAAIiAEGCMgMJzaGNRqAcWAl4BUIuYeK7PzOIAACCAAIAABAAAQQABAAAAAAAAAAAA==

> <PUBCHEM_IUPAC_OPENEYE_NAME>
3-(2,4-dihydroxyphenyl)-5,7-dihydroxy-6-(3-methylbut-2-enyl)chromen-4-one

> <PUBCHEM_IUPAC_CAS_NAME>
3-(2,4-dihydroxyphenyl)-5,7-dihydroxy-6-(3-methylbut-2-enyl)-1-benzopyran-4-one

> <PUBCHEM_IUPAC_NAME>
3-(2,4-dihydroxyphenyl)-5,7-dihydroxy-6-(3-methylbut-2-enyl)chromen-4-one

> <PUBCHEM_IUPAC_SYSTEMATIC_NAME>
3-[2,4-bis(oxidanyl)phenyl]-6-(3-methylbut-2-enyl)-5,7-bis(oxidanyl)chromen-4-one

> <PUBCHEM_IUPAC_TRADITIONAL_NAME>
3-(2,4-dihydroxyphenyl)-5,7-dihydroxy-6-(3-methylbut-2-enyl)chromone

> <PUBCHEM_IUPAC_INCHI>
InChI=1S/C20H18O6/c1-10(2)3-5-13-16(23)8-17-18(19(13)24)20(25)14(9-26-17)12-6-4-11(21)7-15(12)22/h3-4,6-9,21-24H,5H2,1-2H3

> <PUBCHEM_IUPAC_INCHIKEY>
MMPVAPMCVABQPS-UHFFFAOYSA-N

> <PUBCHEM_XLOGP3_AA>
4.2

> <PUBCHEM_EXACT_MASS>
354.110338

> <PUBCHEM_MOLECULAR_FORMULA>
C20H18O6

> <PUBCHEM_MOLECULAR_WEIGHT>
354.35332

> <PUBCHEM_OPENEYE_CAN_SMILES>
CC(=CCC1=C(C=C2C(=C1O)C(=O)C(=CO2)C3=C(C=C(C=C3)O)O)O)C

> <PUBCHEM_OPENEYE_ISO_SMILES>
CC(=CCC1=C(C=C2C(=C1O)C(=O)C(=CO2)C3=C(C=C(C=C3)O)O)O)C

> <PUBCHEM_CACTVS_TPSA>
107

> <PUBCHEM_MONOISOTOPIC_WEIGHT>
354.110338

> <PUBCHEM_TOTAL_CHARGE>
0

> <PUBCHEM_HEAVY_ATOM_COUNT>
26

> <PUBCHEM_ATOM_DEF_STEREO_COUNT>
0

> <PUBCHEM_ATOM_UDEF_STEREO_COUNT>
0

> <PUBCHEM_BOND_DEF_STEREO_COUNT>
0

> <PUBCHEM_BOND_UDEF_STEREO_COUNT>
0

> <PUBCHEM_ISOTOPIC_ATOM_COUNT>
0

> <PUBCHEM_COMPONENT_COUNT>
1

> <PUBCHEM_CACTVS_TAUTO_COUNT>
108

> <PUBCHEM_COORDINATE_TYPE>
1
5
255

> <PUBCHEM_BONDANNOTATIONS>
1  10  8
1  17  8
10  15  8
12  14  8
13  15  8
14  17  8
16  20  8
16  21  8
20  22  8
21  23  8
22  24  8
23  24  8
7  10  8
7  12  8
7  9  8
8  13  8
8  9  8

$$$$

