   Color/Form
        IVORY MICROCRYSTALINE SUBSTANCE
   from [1]HSDB

   Melting Point
        205 DEG C
   from [2]HSDB

   Dissociation Constants
        pKa= 4.42
   from [3]HSDB

   Octanol/Water Partition Coefficient
        log P = -0.24
   from [4]HSDB

   Solubilities
        Water: (1 mg/ml at room temp)
   from [5]HSDB

   Spectral Properties
        MAX ABSORPTION (0.1 N HCL): 223 NM (7500), (PH 7): 237 NM (11,200)
   from [6]HSDB

   Other Chemical/Physical Properties

     * Melting point: 250-255 deg C (explosive decomposition)
     * Sensitive to oxidation; stable in neutral solutions in absence of
       light. Extremely light-sensitive: rapidly undergoes chemical
       decomposition to form 4-diazoimidazole-5-carboxamide ... .

   from [7]HSDB

   Computed Properties
   Molecular Weight                  182.1832 [g/mol]
   Molecular Formula                 C[6]H[10]N[6]O
   XLogP3-AA                         -0.3
   H-Bond Donor                      2
   H-Bond Acceptor                   4
   Rotatable Bond Count              3
   Tautomer Count                    9
   Exact Mass                        182.091609
   MonoIsotopic Mass                 182.091609
   Topological Polar Surface Area    95.4
   Heavy Atom Count                  13
   Formal Charge                     0
   Complexity                        302
   Isotope Atom Count                0
   Defined Atom Stereocenter Count   0
   Undefined Atom Stereocenter Count 0
   Defined Bond Stereocenter Count   1
   Undefined Bond Stereocenter Count 0
   Covalently-Bonded Unit Count      1
   Feature 3D Acceptor Count         2
   Feature 3D Donor Count            1
   Feature 3D Cation Count           2
   Feature 3D Ring Count             1
   Effective Rotor Count             3
   Conformer Sampling RMSD           0.6
   CID Conformer Count               [8]13

References

   1. http://toxnet.nlm.nih.gov/cgi-bin/sis/search/r?dbs+hsdb:@term+@rn+@rel+4342-03-4
   2. http://toxnet.nlm.nih.gov/cgi-bin/sis/search/r?dbs+hsdb:@term+@rn+@rel+4342-03-4
   3. http://toxnet.nlm.nih.gov/cgi-bin/sis/search/r?dbs+hsdb:@term+@rn+@rel+4342-03-4
   4. http://toxnet.nlm.nih.gov/cgi-bin/sis/search/r?dbs+hsdb:@term+@rn+@rel+4342-03-4
   5. http://toxnet.nlm.nih.gov/cgi-bin/sis/search/r?dbs+hsdb:@term+@rn+@rel+4342-03-4
   6. http://toxnet.nlm.nih.gov/cgi-bin/sis/search/r?dbs+hsdb:@term+@rn+@rel+4342-03-4
   7. http://toxnet.nlm.nih.gov/cgi-bin/sis/search/r?dbs+hsdb:@term+@rn+@rel+4342-03-4
   8. http://pubchem.ncbi.nlm.nih.gov/vw3d/vw3d.cgi?cid=5353562
