   Color/Form

     * Crystals; monoclinic holohedra; crystallizes from hot concentrated
       aqueous solution
     * Colorless, translucent crystals or powder
     * Rhombic crystals from water with 1 mol of water of crystallization

   from [1]HSDB

   Odor
        Odorless
   from [2]HSDB

   Taste

     * Strongly acid taste
     * Pleasant, sweet, tart taste

   from [3]HSDB

   Boiling Point
        Decomposes
   from [4]HSDB

   Melting Point
        153 deg C
   from [5]HSDB

   Corrosivity
        WILL CORRODE COPPER, ZINC, ALUMINUM AND THEIR ALLOYS
   from [6]HSDB

   Density/Specific Gravity
        1.665 g/cu cm at 20 deg C
   from [7]HSDB

   Dissociation Constants
        pKa = 2.79
   from [8]HSDB

   Heat of Combustion
        -474.5 KCAL/MOLE
   from [9]HSDB

   Octanol/Water Partition Coefficient
        log Kow = -1.64
   from [10]HSDB

   Solubilities

     * Solubility in water: 54.0% w/w at 10 deg C; 59.2% at 20 deg C;
       64.3% at 30 deg C; 68.6% at 40 deg C; 70.9% at 50 deg C; 73.5% at
       60 deg C; 76.2% at 70 deg C; 78.8% at 80 deg C; 81.4% at 90 deg C;
       84.0% at 100 deg C
     * Very soluble in ethanol; soluble in ether, ethyl acetate; insoluble
       in benzene, chloroform
     * In water solubility, 3.83X10+5 mg/L at 25 deg C

   from [11]HSDB

   Spectral Properties

     * SADTLER REFERENCE NUMBER: 765 (IR, PRISM)
     * IR: 5104 (Coblentz Society Spectral Collection)
     * 1H NMR: 7552 (Sadtler Research Laboratories Spectral Collection)
     * MASS: 8394 (NIST/EPA/MSDC Mass Spectral Database 1990 version)

   from [12]HSDB

   Vapor Pressure
        1.7X10-8 mm Hg at 25 deg C (est)
   from [13]HSDB

   Viscosity
        6.5 cP 50% aqueous solution at 25 deg C
   from [14]HSDB

   Other Chemical/Physical Properties

     * Orthorhombic crystals from cold aqueous solutions; pleasant, sour
       taste; density = 1.542; melting point at about 100 deg C; loses
       water of crystallization in dry air or when heated at about 40 to
       50 deg C; slightly deliquescent in moist air; softens at 75 deg C;
       pH of 0.1 N solution = 2.2; densities of aqueous solution (15 deg
       C/15 deg C): 10% = 1.0392, 20% = 1.0805, 30% = 1.1244, 40% =
       1.1709, 50% = 1.2204, 60% = 1.2738 /Citric Acid Monohydrate/
     * A:B:C= 0.674:1:1.662; CRYSTALS BRACHYDOMATIC WITH (011), (110),
       (101), (111) ETC, PERFECT 001 CLEAVAGE /CITRIC ACID MONOHYDRATE/
     * HEAT OF COMBUSTION: -471.4 KCAL/MOLE /CITRIC ACID MONOHYDRATE/
     * Heat of formation = -1548.8 kJ/mol at 25 deg C
     * Solubility in g/100 g saturated solution: ether 2.17; chloroform
       0.007; amyl alcohol 15.43; amyl acetate 5.98; ethyl acetate 5.28
       /Citric Acid Monohydrate
     * Solubility at 19 deg C in g/100 g solvent: methanol 197; propanol
       62.8 /Citric Acid Monohydrate/
     * INDEX OF REFRACTION: 1.493, 1.498, 1.509 @ 20 DEG C /CITRIC ACID
       HYDRATE/
     * DENSITY: 1.542 @ 18 DEG C/4 DEG C /CITRIC ACID HYDRATE/
     * BULK DENSITY: 56.2 LB/CU FT; HEAT OF SOLN: -3.9 KCAL/MOLE;
       BUFFERING INDEX: 2.46; STD FREE ENERGY OF ANION FORMATION: -278.8
       KCAL FOR AQ SOLN @ 25 DEG C
     * Hydrated form is efflorescent in dry air /Citric acid Hydrate/
     * Henry's Law constant = 4.3X10-14 atm-cu m/mol at 25 deg C (est)
     * Hydroxyl radical reaction rate constant = 7.0X10-12 cu cm/molec-sec
       at 25 deg C (est)

   from [15]HSDB

   Computed Properties
   Molecular Weight                  192.12352 [g/mol]
   Molecular Formula                 C[6]H[8]O[7]
   XLogP3                            -1.7
   H-Bond Donor                      4
   H-Bond Acceptor                   7
   Rotatable Bond Count              5
   Exact Mass                        192.027003
   MonoIsotopic Mass                 192.027003
   Topological Polar Surface Area    132
   Heavy Atom Count                  13
   Formal Charge                     0
   Complexity                        227
   Isotope Atom Count                0
   Defined Atom Stereocenter Count   0
   Undefined Atom Stereocenter Count 0
   Defined Bond Stereocenter Count   0
   Undefined Bond Stereocenter Count 0
   Covalently-Bonded Unit Count      1
   Feature 3D Acceptor Count         7
   Feature 3D Donor Count            1
   Feature 3D Anion Count            3
   Effective Rotor Count             5
   Conformer Sampling RMSD           0.6
   CID Conformer Count               [16]48

References

   1. http://toxnet.nlm.nih.gov/cgi-bin/sis/search/r?dbs+hsdb:@term+@rn+@rel+77-92-9
   2. http://toxnet.nlm.nih.gov/cgi-bin/sis/search/r?dbs+hsdb:@term+@rn+@rel+77-92-9
   3. http://toxnet.nlm.nih.gov/cgi-bin/sis/search/r?dbs+hsdb:@term+@rn+@rel+77-92-9
   4. http://toxnet.nlm.nih.gov/cgi-bin/sis/search/r?dbs+hsdb:@term+@rn+@rel+77-92-9
   5. http://toxnet.nlm.nih.gov/cgi-bin/sis/search/r?dbs+hsdb:@term+@rn+@rel+77-92-9
   6. http://toxnet.nlm.nih.gov/cgi-bin/sis/search/r?dbs+hsdb:@term+@rn+@rel+77-92-9
   7. http://toxnet.nlm.nih.gov/cgi-bin/sis/search/r?dbs+hsdb:@term+@rn+@rel+77-92-9
   8. http://toxnet.nlm.nih.gov/cgi-bin/sis/search/r?dbs+hsdb:@term+@rn+@rel+77-92-9
   9. http://toxnet.nlm.nih.gov/cgi-bin/sis/search/r?dbs+hsdb:@term+@rn+@rel+77-92-9
  10. http://toxnet.nlm.nih.gov/cgi-bin/sis/search/r?dbs+hsdb:@term+@rn+@rel+77-92-9
  11. http://toxnet.nlm.nih.gov/cgi-bin/sis/search/r?dbs+hsdb:@term+@rn+@rel+77-92-9
  12. http://toxnet.nlm.nih.gov/cgi-bin/sis/search/r?dbs+hsdb:@term+@rn+@rel+77-92-9
  13. http://toxnet.nlm.nih.gov/cgi-bin/sis/search/r?dbs+hsdb:@term+@rn+@rel+77-92-9
  14. http://toxnet.nlm.nih.gov/cgi-bin/sis/search/r?dbs+hsdb:@term+@rn+@rel+77-92-9
  15. http://toxnet.nlm.nih.gov/cgi-bin/sis/search/r?dbs+hsdb:@term+@rn+@rel+77-92-9
  16. http://pubchem.ncbi.nlm.nih.gov/vw3d/vw3d.cgi?cid=311
