46173972
  -OEChem-07051213102D

 58 63  0     1  0  0  0  0  0999 V2000
    3.5808   -0.2001    0.0000 O   0  0  0  0  0  0  0  0  0  0  0  0
    4.5295    1.0535    0.0000 O   0  0  0  0  0  0  0  0  0  0  0  0
    4.1377    0.2271    0.0000 O   0  0  0  0  0  0  0  0  0  0  0  0
    4.4797    1.8195    0.0000 O   0  0  0  0  0  0  0  0  0  0  0  0
    4.2292   -1.4601    0.0000 O   0  0  0  0  0  0  0  0  0  0  0  0
    6.8545   -0.9465    0.0000 O   0  0  0  0  0  0  0  0  0  0  0  0
    6.0851    2.5488    0.0000 O   0  0  0  0  0  0  0  0  0  0  0  0
    6.8545    2.0535    0.0000 O   0  0  0  0  0  0  0  0  0  0  0  0
    5.9885   -0.4465    0.0000 C   0  0  3  0  0  0  0  0  0  0  0  0
    5.1225    0.0535    0.0000 C   0  0  2  0  0  0  0  0  0  0  0  0
    5.1147   -0.9646    0.0000 C   0  0  3  0  0  0  0  0  0  0  0  0
    5.1225    1.0535    0.0000 C   0  0  1  0  0  0  0  0  0  0  0  0
    4.2369    0.5558    0.0000 C   0  0  1  0  0  0  0  0  0  0  0  0
    3.6210   -1.2002    0.0000 C   0  0  3  0  0  0  0  0  0  0  0  0
    4.2330   -0.4601    0.0000 C   0  0  3  0  0  0  0  0  0  0  0  0
    6.8545    0.0535    0.0000 C   0  0  1  0  0  0  0  0  0  0  0  0
    5.9885    1.5535    0.0000 C   0  0  1  0  0  0  0  0  0  0  0  0
    6.8545    1.0535    0.0000 C   0  0  1  0  0  0  0  0  0  0  0  0
    3.6325    0.3119    0.0000 C   0  0  0  0  0  0  0  0  0  0  0  0
    7.8007    1.3582    0.0000 C   0  0  1  0  0  0  0  0  0  0  0  0
    7.8007   -0.2513    0.0000 C   0  0  0  0  0  0  0  0  0  0  0  0
    5.9885   -1.4465    0.0000 C   0  0  0  0  0  0  0  0  0  0  0  0
    2.9867   -1.9733    0.0000 C   0  0  0  0  0  0  0  0  0  0  0  0
    3.6050    1.3308    0.0000 C   0  0  0  0  0  0  0  0  0  0  0  0
    8.3844    0.5535    0.0000 C   0  0  0  0  0  0  0  0  0  0  0  0
    8.1114    2.3087    0.0000 C   0  0  0  0  0  0  0  0  0  0  0  0
    2.0000   -1.8105    0.0000 C   0  0  0  0  0  0  0  0  0  0  0  0
    3.3390   -2.9092    0.0000 C   0  0  0  0  0  0  0  0  0  0  0  0
    5.3248   -1.5479    0.0000 H   0  0  0  0  0  0  0  0  0  0  0  0
    3.7049    0.9277    0.0000 H   0  0  0  0  0  0  0  0  0  0  0  0
    3.0137    0.3505    0.0000 H   0  0  0  0  0  0  0  0  0  0  0  0
    7.3633    1.7976    0.0000 H   0  0  0  0  0  0  0  0  0  0  0  0
    7.5497   -0.8182    0.0000 H   0  0  0  0  0  0  0  0  0  0  0  0
    8.3381   -0.5605    0.0000 H   0  0  0  0  0  0  0  0  0  0  0  0
    5.3685   -1.4465    0.0000 H   0  0  0  0  0  0  0  0  0  0  0  0
    5.9885   -2.0665    0.0000 H   0  0  0  0  0  0  0  0  0  0  0  0
    6.6085   -1.4465    0.0000 H   0  0  0  0  0  0  0  0  0  0  0  0
    2.5934   -2.4526    0.0000 H   0  0  0  0  0  0  0  0  0  0  0  0
    4.0855    1.7226    0.0000 H   0  0  0  0  0  0  0  0  0  0  0  0
    3.2132    1.8113    0.0000 H   0  0  0  0  0  0  0  0  0  0  0  0
    3.1245    0.9390    0.0000 H   0  0  0  0  0  0  0  0  0  0  0  0
    8.8452    0.1387    0.0000 H   0  0  0  0  0  0  0  0  0  0  0  0
    8.8452    0.9682    0.0000 H   0  0  0  0  0  0  0  0  0  0  0  0
    3.8277    0.7640    0.0000 H   0  0  0  0  0  0  0  0  0  0  0  0
    4.6917    2.4021    0.0000 H   0  0  0  0  0  0  0  0  0  0  0  0
    4.7649   -1.7721    0.0000 H   0  0  0  0  0  0  0  0  0  0  0  0
    7.3914   -1.2565    0.0000 H   0  0  0  0  0  0  0  0  0  0  0  0
    5.5806    2.9092    0.0000 H   0  0  0  0  0  0  0  0  0  0  0  0
    7.3914    2.3635    0.0000 H   0  0  0  0  0  0  0  0  0  0  0  0
    8.7007    2.1161    0.0000 H   0  0  0  0  0  0  0  0  0  0  0  0
    8.3040    2.8980    0.0000 H   0  0  0  0  0  0  0  0  0  0  0  0
    7.5221    2.5013    0.0000 H   0  0  0  0  0  0  0  0  0  0  0  0
    2.1009   -1.1988    0.0000 H   0  0  0  0  0  0  0  0  0  0  0  0
    1.3883   -1.7096    0.0000 H   0  0  0  0  0  0  0  0  0  0  0  0
    1.8991   -2.4223    0.0000 H   0  0  0  0  0  0  0  0  0  0  0  0
    2.7588   -3.1276    0.0000 H   0  0  0  0  0  0  0  0  0  0  0  0
    3.5575   -3.4894    0.0000 H   0  0  0  0  0  0  0  0  0  0  0  0
    3.9192   -2.6907    0.0000 H   0  0  0  0  0  0  0  0  0  0  0  0
  1 13  1  0  0  0  0
  1 14  1  0  0  0  0
  2 15  1  0  0  0  0
  2 17  1  0  0  0  0
 10  3  1  1  0  0  0
  3 44  1  0  0  0  0
 12  4  1  1  0  0  0
  4 45  1  0  0  0  0
  5 15  1  0  0  0  0
  5 46  1  0  0  0  0
 16  6  1  1  0  0  0
  6 47  1  0  0  0  0
 17  7  1  1  0  0  0
  7 48  1  0  0  0  0
 18  8  1  1  0  0  0
  8 49  1  0  0  0  0
  9 10  1  0  0  0  0
  9 11  1  0  0  0  0
  9 16  1  0  0  0  0
  9 22  1  0  0  0  0
 10 12  1  0  0  0  0
 10 19  1  0  0  0  0
 11 14  1  0  0  0  0
 11 15  1  0  0  0  0
 11 29  1  0  0  0  0
 12 13  1  0  0  0  0
 12 17  1  0  0  0  0
 13 15  1  0  0  0  0
 13 24  1  6  0  0  0
 14 19  1  0  0  0  0
 14 23  1  0  0  0  0
 16 18  1  0  0  0  0
 16 21  1  0  0  0  0
 17 18  1  0  0  0  0
 18 20  1  0  0  0  0
 19 30  1  0  0  0  0
 19 31  1  0  0  0  0
 20 25  1  0  0  0  0
 20 26  1  6  0  0  0
 20 32  1  0  0  0  0
 21 25  1  0  0  0  0
 21 33  1  0  0  0  0
 21 34  1  0  0  0  0
 22 35  1  0  0  0  0
 22 36  1  0  0  0  0
 22 37  1  0  0  0  0
 23 27  1  0  0  0  0
 23 28  1  0  0  0  0
 23 38  1  0  0  0  0
 24 39  1  0  0  0  0
 24 40  1  0  0  0  0
 24 41  1  0  0  0  0
 25 42  1  0  0  0  0
 25 43  1  0  0  0  0
 26 50  1  0  0  0  0
 26 51  1  0  0  0  0
 26 52  1  0  0  0  0
 27 53  1  0  0  0  0
 27 54  1  0  0  0  0
 27 55  1  0  0  0  0
 28 56  1  0  0  0  0
 28 57  1  0  0  0  0
 28 58  1  0  0  0  0
M  END
> <PUBCHEM_COMPOUND_CID>
46173972

> <PUBCHEM_COMPOUND_CANONICALIZED>
1

> <PUBCHEM_CACTVS_COMPLEXITY>
850

> <PUBCHEM_CACTVS_HBOND_ACCEPTOR>
8

> <PUBCHEM_CACTVS_HBOND_DONOR>
6

> <PUBCHEM_CACTVS_ROTATABLE_BOND>
1

> <PUBCHEM_CACTVS_SUBSKEYS>
AAADceB4PAAAAAAAAAAAAAAAAAAAAaNECAA0YIAABIAAAGAAAAAAGgAACAAAD0SAgAACCAAABgAAAAAAAAAAAAAAAAAAAAAAAAARAAIAAAACQAAFAAAHAAHA4PwPgAAAAAAAAADCAAYQADCAAYQADCAAAA==

> <PUBCHEM_IUPAC_INCHI>
InChI=1S/C20H30O8/c1-9(2)14-8-16(22)12(4)11(14)18(24)13(5,27-14)19(16,25)20(26,28-18)17(23)10(3)6-7-15(12,17)21/h9-11,21-26H,6-8H2,1-5H3/t10-,11?,12?,13-,14?,15+,16-,17+,18?,19-,20-/m1/s1

> <PUBCHEM_IUPAC_INCHIKEY>
KFWCNRCQYZWAFT-QLAQCCNWSA-N

> <PUBCHEM_XLOGP3_AA>
-1.8

> <PUBCHEM_EXACT_MASS>
398.194068

> <PUBCHEM_MOLECULAR_FORMULA>
C20H30O8

> <PUBCHEM_MOLECULAR_WEIGHT>
398.4474

> <PUBCHEM_OPENEYE_CAN_SMILES>
CC1CCC2(C1(C3(C4(C5(C(O3)(C6C2(C4(CC6(O5)C(C)C)O)C)O)C)O)O)O)O

> <PUBCHEM_OPENEYE_ISO_SMILES>
C[C@@H]1CC[C@]2([C@@]1([C@@]3([C@]4([C@]5(C(O3)(C6C2([C@@]4(CC6(O5)C(C)C)O)C)O)C)O)O)O)O

> <PUBCHEM_CACTVS_TPSA>
140

> <PUBCHEM_MONOISOTOPIC_WEIGHT>
398.194068

> <PUBCHEM_TOTAL_CHARGE>
0

> <PUBCHEM_HEAVY_ATOM_COUNT>
28

> <PUBCHEM_ATOM_DEF_STEREO_COUNT>
7

> <PUBCHEM_ATOM_UDEF_STEREO_COUNT>
4

> <PUBCHEM_BOND_DEF_STEREO_COUNT>
0

> <PUBCHEM_BOND_UDEF_STEREO_COUNT>
0

> <PUBCHEM_ISOTOPIC_ATOM_COUNT>
0

> <PUBCHEM_COMPONENT_COUNT>
1

> <PUBCHEM_CACTVS_TAUTO_COUNT>
1

> <PUBCHEM_COORDINATE_TYPE>
1
5
255

> <PUBCHEM_BONDANNOTATIONS>
13  24  6
14  23  3
20  26  6
10  3  5
12  4  5
15  5  3
16  6  5
17  7  5
18  8  5
11  9  3
9  22  3

$$$$

