   Color/Form

     * CRYSTALS FROM ACETONE
     * WHITE, GLISTENING POWDER OR PLATES

   from [1]HSDB

   Odor
        PROBABLY ODORLESS
   from [2]HSDB

   Taste
        BITTER TASTE
   from [3]HSDB

   Melting Point
        329 DEG C
   from [4]HSDB

   Solubilities

     * SOL IN WATER, CHLOROFORM; SPARINGLY SOL IN ALCOHOL; SLIGHTLY SOL IN
       ACETONE; INSOL IN ETHER
     * SOL IN ETHANOL; INSOL IN DIETHYL ETHER

   from [5]HSDB

   Computed Properties
   Molecular Weight                  362.34548 [g/mol]
   Molecular Formula                 C[17]H[32]BrNO[2]
   H-Bond Donor                      0
   H-Bond Acceptor                   3
   Rotatable Bond Count              7
   Exact Mass                        361.161641
   MonoIsotopic Mass                 361.161641
   Topological Polar Surface Area    26.3
   Heavy Atom Count                  21
   Formal Charge                     0
   Complexity                        318
   Isotope Atom Count                0
   Defined Atom Stereocenter Count   2
   Undefined Atom Stereocenter Count 0
   Defined Bond Stereocenter Count   0
   Undefined Bond Stereocenter Count 0
   Covalently-Bonded Unit Count      2

References

   1. http://toxnet.nlm.nih.gov/cgi-bin/sis/search/r?dbs+hsdb:@term+@rn+@rel+80-50-2
   2. http://toxnet.nlm.nih.gov/cgi-bin/sis/search/r?dbs+hsdb:@term+@rn+@rel+80-50-2
   3. http://toxnet.nlm.nih.gov/cgi-bin/sis/search/r?dbs+hsdb:@term+@rn+@rel+80-50-2
   4. http://toxnet.nlm.nih.gov/cgi-bin/sis/search/r?dbs+hsdb:@term+@rn+@rel+80-50-2
   5. http://toxnet.nlm.nih.gov/cgi-bin/sis/search/r?dbs+hsdb:@term+@rn+@rel+80-50-2
