   Color/Form
        White crystalline powder
   from [1]HSDB

   Melting Point
        104-106 deg C
   from [2]HSDB

   Octanol/Water Partition Coefficient
        log Kow= 3.69 (est)
   from [3]HSDB

   Solubilities

     * In water, 3.1 mg/L at 25 deg C (est)
     * Sol in chlorinated hydrocarbons (methylene chloride); slightly sol
       in alcohol, benzene, and ether

   from [4]HSDB

   Vapor Pressure
        7.4X10-8 mm Hg at 25 deg C (est)
   from [5]HSDB

   Other Chemical/Physical Properties

     * Henry's Law constant= 4.8X10-9 atm-cu m/mol at 25 deg C (est)
     * Hydroxyl radical reaction rate constant = 2.3X10-10 cu
       cm/molecule-sec at 25 deg C (est)

   from [6]HSDB

   Computed Properties
   Molecular Weight                  375.209982 [g/mol]
   Molecular Formula                 C[14]H[13]Cl[2]N[2]O[2]PS
   XLogP3-AA                         5.5
   H-Bond Donor                      1
   H-Bond Acceptor                   4
   Rotatable Bond Count              5
   Tautomer Count                    3
   Exact Mass                        373.981241
   MonoIsotopic Mass                 373.981241
   Topological Polar Surface Area    88.9
   Heavy Atom Count                  22
   Formal Charge                     0
   Complexity                        409
   Isotope Atom Count                0
   Defined Atom Stereocenter Count   0
   Undefined Atom Stereocenter Count 0
   Defined Bond Stereocenter Count   1
   Undefined Bond Stereocenter Count 0
   Covalently-Bonded Unit Count      1
   Feature 3D Donor Count            1
   Feature 3D Cation Count           1
   Feature 3D Ring Count             2
   Effective Rotor Count             5
   Conformer Sampling RMSD           0.8
   CID Conformer Count               [7]28

References

   1. http://toxnet.nlm.nih.gov/cgi-bin/sis/search/r?dbs+hsdb:@term+@rn+@rel+4104-14-7
   2. http://toxnet.nlm.nih.gov/cgi-bin/sis/search/r?dbs+hsdb:@term+@rn+@rel+4104-14-7
   3. http://toxnet.nlm.nih.gov/cgi-bin/sis/search/r?dbs+hsdb:@term+@rn+@rel+4104-14-7
   4. http://toxnet.nlm.nih.gov/cgi-bin/sis/search/r?dbs+hsdb:@term+@rn+@rel+4104-14-7
   5. http://toxnet.nlm.nih.gov/cgi-bin/sis/search/r?dbs+hsdb:@term+@rn+@rel+4104-14-7
   6. http://toxnet.nlm.nih.gov/cgi-bin/sis/search/r?dbs+hsdb:@term+@rn+@rel+4104-14-7
   7. http://pubchem.ncbi.nlm.nih.gov/vw3d/vw3d.cgi?cid=5359965
