   Color/Form

     * White crystals from petroleum ether
     * Needles from petroleum ether

   from [1]HSDB

   Taste
        Taste threshold in water 0.2 ug/l
   from [2]HSDB

   Boiling Point
        220 deg C; 92 deg C at 4 mm Hg
   from [3]HSDB

   Melting Point
        68.5 deg C
   from [4]HSDB

   Density/Specific Gravity
        1.653 g/cu cm at 20 deg C
   from [5]HSDB

   Dissociation Constants
        pKa = 6.79 at 25 deg C in water
   from [6]HSDB

   Heat of Vaporization
        13,472.0 g cal/g mole
   from [7]HSDB

   Octanol/Water Partition Coefficient
        log Kow = 2.75
   from [8]HSDB

   Solubilities

     * Very soluble in ethanol, ethyl ether; soluble in benzene, petroleum
       ether
     * In water, 2.65X10+3 mg/l at 25 deg C
     * In water, 1,900 mg/L at 25 deg C

   from [9]HSDB

   Spectral Properties

     * SADTLER REFERENCE NUMBER: 17465 (IR, PRISM); 681 (IR, GRATING); MAX
       ABSORPTION (0.1 N SODIUM HYDROXIDE): 238 NM (LOG E = 3.85), 301 NM
       (LOG E = 3.71).
     * 2,6-Dichlorophenol, 99%, exhibits its two strongest infra red
       absorption bands at wavelengths of 2.9 and 13.0 microns.
     * IR: 12 (Coblentz Society Spectral Collection)
     * UV: 9634 (Sadtler Research Laboratories Spectral Collection)
     * MASS: 43771 (NIST/EPA/MSDC Mass Spectral Database, 1990 version);
       628 (National Bureau of Standards)

   from [10]HSDB

   Vapor Pressure
        0.033 mm Hg at 25 deg C
   from [11]HSDB

   Other Chemical/Physical Properties

     * Heat of fusion: 32.47 cal/g= 135.85 J/g= 22,144 J/mol
     * Vapor pressure = 1 mm Hg @ 59.5 deg C; 10 mm Hg @ 101.0 deg C; 40
       mm Hg @ 131.6 deg C; 100 mm Hg @ 154.6 deg C; 400 mm Hg @ 197.7 deg
       C; 760 mm Hg @ 220.0 deg C
     * Henry's Law constant = 2.67X10-6 atm-cu m/mol at 25 deg C (est)
     * Hydroxyl radical reaction rate constant = 2.98X10-12 cu
       cm/molec-sec at 25 deg C (est)

   from [12]HSDB

   Computed Properties
   Molecular Weight                  163.00136 [g/mol]
   Molecular Formula                 C[6]H[4]Cl[2]O
   XLogP3                            2.7
   H-Bond Donor                      1
   H-Bond Acceptor                   1
   Rotatable Bond Count              0
   Tautomer Count                    2
   Exact Mass                        161.96392
   MonoIsotopic Mass                 161.96392
   Topological Polar Surface Area    20.2
   Heavy Atom Count                  9
   Formal Charge                     0
   Complexity                        87.1
   Isotope Atom Count                0
   Defined Atom Stereocenter Count   0
   Undefined Atom Stereocenter Count 0
   Defined Bond Stereocenter Count   0
   Undefined Bond Stereocenter Count 0
   Covalently-Bonded Unit Count      1
   Feature 3D Donor Count            1
   Feature 3D Ring Count             1
   Effective Rotor Count             0
   Conformer Sampling RMSD           0.4
   CID Conformer Count               [13]1

References

   1. http://toxnet.nlm.nih.gov/cgi-bin/sis/search/r?dbs+hsdb:@term+@rn+@rel+87-65-0
   2. http://toxnet.nlm.nih.gov/cgi-bin/sis/search/r?dbs+hsdb:@term+@rn+@rel+87-65-0
   3. http://toxnet.nlm.nih.gov/cgi-bin/sis/search/r?dbs+hsdb:@term+@rn+@rel+87-65-0
   4. http://toxnet.nlm.nih.gov/cgi-bin/sis/search/r?dbs+hsdb:@term+@rn+@rel+87-65-0
   5. http://toxnet.nlm.nih.gov/cgi-bin/sis/search/r?dbs+hsdb:@term+@rn+@rel+87-65-0
   6. http://toxnet.nlm.nih.gov/cgi-bin/sis/search/r?dbs+hsdb:@term+@rn+@rel+87-65-0
   7. http://toxnet.nlm.nih.gov/cgi-bin/sis/search/r?dbs+hsdb:@term+@rn+@rel+87-65-0
   8. http://toxnet.nlm.nih.gov/cgi-bin/sis/search/r?dbs+hsdb:@term+@rn+@rel+87-65-0
   9. http://toxnet.nlm.nih.gov/cgi-bin/sis/search/r?dbs+hsdb:@term+@rn+@rel+87-65-0
  10. http://toxnet.nlm.nih.gov/cgi-bin/sis/search/r?dbs+hsdb:@term+@rn+@rel+87-65-0
  11. http://toxnet.nlm.nih.gov/cgi-bin/sis/search/r?dbs+hsdb:@term+@rn+@rel+87-65-0
  12. http://toxnet.nlm.nih.gov/cgi-bin/sis/search/r?dbs+hsdb:@term+@rn+@rel+87-65-0
  13. http://pubchem.ncbi.nlm.nih.gov/vw3d/vw3d.cgi?cid=6899
