23670318
  -OEChem-07051212542D

 45 46  0     1  0  0  0  0  0999 V2000
    6.8671   -0.8240    0.0000 S   0  0  0  0  0  0  0  0  0  0  0  0
    6.0010    3.6760    0.0000 Na  0  3  0  0  0  0  0  0  0  0  0  0
    9.4470    1.3887    0.0000 O   0  0  0  0  0  0  0  0  0  0  0  0
    4.2690    0.6760    0.0000 O   0  0  0  0  0  0  0  0  0  0  0  0
    6.0010    2.6760    0.0000 O   0  5  0  0  0  0  0  0  0  0  0  0
    7.7331    2.6760    0.0000 O   0  0  0  0  0  0  0  0  0  0  0  0
   10.6743    0.1855    0.0000 O   0  0  0  0  0  0  0  0  0  0  0  0
   12.8614   -1.8625    0.0000 O   0  0  0  0  0  0  0  0  0  0  0  0
    9.8919   -2.7106    0.0000 O   0  0  0  0  0  0  0  0  0  0  0  0
    3.4030    2.1760    0.0000 O   0  0  0  0  0  0  0  0  0  0  0  0
    7.7331    0.6760    0.0000 N   0  0  0  0  0  0  0  0  0  0  0  0
    9.4470   -1.0367    0.0000 N   0  0  0  0  0  0  0  0  0  0  0  0
   10.8583   -2.4538    0.0000 N   0  0  0  0  0  0  0  0  0  0  0  0
    2.5369    0.6760    0.0000 N   0  0  0  0  0  0  0  0  0  0  0  0
    7.7331   -0.3240    0.0000 C   0  0  1  0  0  0  0  0  0  0  0  0
    8.7414   -0.3281    0.0000 C   0  0  1  0  0  0  0  0  0  0  0  0
    8.7414    0.6802    0.0000 C   0  0  0  0  0  0  0  0  0  0  0  0
    6.8671    1.1760    0.0000 C   0  0  0  0  0  0  0  0  0  0  0  0
    6.0010    0.6760    0.0000 C   0  0  0  0  0  0  0  0  0  0  0  0
    6.0010   -0.3240    0.0000 C   0  0  0  0  0  0  0  0  0  0  0  0
    5.1350    1.1760    0.0000 C   0  0  0  0  0  0  0  0  0  0  0  0
    6.8671    2.1760    0.0000 C   0  0  0  0  0  0  0  0  0  0  0  0
   10.4135   -0.7798    0.0000 C   0  0  0  0  0  0  0  0  0  0  0  0
   11.1191   -1.4884    0.0000 C   0  0  0  0  0  0  0  0  0  0  0  0
   12.0856   -1.2316    0.0000 C   0  0  0  0  0  0  0  0  0  0  0  0
    3.4030    1.1760    0.0000 C   0  0  0  0  0  0  0  0  0  0  0  0
   12.4459   -0.2987    0.0000 C   0  0  0  0  0  0  0  0  0  0  0  0
   13.4444   -0.3531    0.0000 C   0  0  0  0  0  0  0  0  0  0  0  0
   13.7012   -1.3196    0.0000 C   0  0  0  0  0  0  0  0  0  0  0  0
    9.6311   -3.6760    0.0000 C   0  0  0  0  0  0  0  0  0  0  0  0
    7.9514   -1.1455    0.0000 H   0  0  0  0  0  0  0  0  0  0  0  0
    8.5023   -0.9002    0.0000 H   0  0  0  0  0  0  0  0  0  0  0  0
    5.3905   -0.2163    0.0000 H   0  0  0  0  0  0  0  0  0  0  0  0
    5.7890   -0.9066    0.0000 H   0  0  0  0  0  0  0  0  0  0  0  0
    9.2853   -1.6352    0.0000 H   0  0  0  0  0  0  0  0  0  0  0  0
    5.5335    1.6510    0.0000 H   0  0  0  0  0  0  0  0  0  0  0  0
    4.7365    1.6510    0.0000 H   0  0  0  0  0  0  0  0  0  0  0  0
   12.1093    0.2219    0.0000 H   0  0  0  0  0  0  0  0  0  0  0  0
   13.8356    0.1279    0.0000 H   0  0  0  0  0  0  0  0  0  0  0  0
   14.2796   -1.5430    0.0000 H   0  0  0  0  0  0  0  0  0  0  0  0
    2.0000    0.9860    0.0000 H   0  0  0  0  0  0  0  0  0  0  0  0
    2.5369    0.0560    0.0000 H   0  0  0  0  0  0  0  0  0  0  0  0
    9.0325   -3.5143    0.0000 H   0  0  0  0  0  0  0  0  0  0  0  0
    9.4694   -4.2746    0.0000 H   0  0  0  0  0  0  0  0  0  0  0  0
   10.2296   -3.8377    0.0000 H   0  0  0  0  0  0  0  0  0  0  0  0
  1 15  1  0  0  0  0
  1 20  1  0  0  0  0
  3 17  2  0  0  0  0
  4 21  1  0  0  0  0
  4 26  1  0  0  0  0
  5 22  1  0  0  0  0
  6 22  2  0  0  0  0
  7 23  2  0  0  0  0
  8 25  1  0  0  0  0
  8 29  1  0  0  0  0
  9 13  1  0  0  0  0
  9 30  1  0  0  0  0
 10 26  2  0  0  0  0
 11 15  1  0  0  0  0
 11 17  1  0  0  0  0
 11 18  1  0  0  0  0
 16 12  1  1  0  0  0
 12 23  1  0  0  0  0
 12 35  1  0  0  0  0
 13 24  2  0  0  0  0
 14 26  1  0  0  0  0
 14 41  1  0  0  0  0
 14 42  1  0  0  0  0
 15 16  1  0  0  0  0
 15 31  1  6  0  0  0
 16 17  1  0  0  0  0
 16 32  1  0  0  0  0
 18 19  2  0  0  0  0
 18 22  1  0  0  0  0
 19 20  1  0  0  0  0
 19 21  1  0  0  0  0
 20 33  1  0  0  0  0
 20 34  1  0  0  0  0
 21 36  1  0  0  0  0
 21 37  1  0  0  0  0
 23 24  1  0  0  0  0
 24 25  1  0  0  0  0
 25 27  2  0  0  0  0
 27 28  1  0  0  0  0
 27 38  1  0  0  0  0
 28 29  2  0  0  0  0
 28 39  1  0  0  0  0
 29 40  1  0  0  0  0
 30 43  1  0  0  0  0
 30 44  1  0  0  0  0
 30 45  1  0  0  0  0
M  CHG  2   2   1   5  -1
M  END
> <PUBCHEM_COMPOUND_CID>
23670318

> <PUBCHEM_COMPOUND_CANONICALIZED>
1

> <PUBCHEM_CACTVS_COMPLEXITY>
804

> <PUBCHEM_CACTVS_HBOND_ACCEPTOR>
10

> <PUBCHEM_CACTVS_HBOND_DONOR>
2

> <PUBCHEM_CACTVS_ROTATABLE_BOND>
8

> <PUBCHEM_CACTVS_SUBSKEYS>
AAADccB7vCBAAAAAAAAAAAAAAABYASAAAAAgAAAAAAAQAAABgAAAHgQUAAAADCzl0AayDIPQBEioA63y2AQCCABkIBAIiIGuCNkOZr6stTueGSCm9hG4qYeYSAAAAAAAAAAAAAAAAAAAAAAAAAAAAAAAAA==

> <PUBCHEM_IUPAC_OPENEYE_NAME>
sodium (6R,7R)-3-(carbamoyloxymethyl)-7-[[(2Z)-2-(2-furyl)-2-methoxyimino-acetyl]amino]-8-oxo-5-thia-1-azabicyclo[4.2.0]oct-2-ene-2-carboxylate

> <PUBCHEM_IUPAC_CAS_NAME>
sodium (6R,7R)-3-(carbamoyloxymethyl)-7-[[(2Z)-2-(2-furanyl)-2-methoxyimino-1-oxoethyl]amino]-8-oxo-5-thia-1-azabicyclo[4.2.0]oct-2-ene-2-carboxylate

> <PUBCHEM_IUPAC_NAME>
sodium (6R,7R)-3-(carbamoyloxymethyl)-7-[[(2Z)-2-(furan-2-yl)-2-methoxyiminoacetyl]amino]-8-oxo-5-thia-1-azabicyclo[4.2.0]oct-2-ene-2-carboxylate

> <PUBCHEM_IUPAC_SYSTEMATIC_NAME>
sodium (6R,7R)-3-(aminocarbonyloxymethyl)-7-[[(2Z)-2-(furan-2-yl)-2-methoxyimino-ethanoyl]amino]-8-oxidanylidene-5-thia-1-azabicyclo[4.2.0]oct-2-ene-2-carboxylate

> <PUBCHEM_IUPAC_TRADITIONAL_NAME>
sodium (6R,7R)-3-(carbamoyloxymethyl)-7-[[(2Z)-2-(2-furyl)-2-methyloximino-acetyl]amino]-8-keto-5-thia-1-azabicyclo[4.2.0]oct-2-ene-2-carboxylate

> <PUBCHEM_IUPAC_INCHI>
InChI=1S/C16H16N4O8S.Na/c1-26-19-9(8-3-2-4-27-8)12(21)18-10-13(22)20-11(15(23)24)7(5-28-16(17)25)6-29-14(10)20;/h2-4,10,14H,5-6H2,1H3,(H2,17,25)(H,18,21)(H,23,24);/q;+1/p-1/b19-9-;/t10-,14-;/m1./s1

> <PUBCHEM_IUPAC_INCHIKEY>
URDOHUPGIOGTKV-JTBFTWTJSA-M

> <PUBCHEM_EXACT_MASS>
446.050829

> <PUBCHEM_MOLECULAR_FORMULA>
C16H15N4NaO8S

> <PUBCHEM_MOLECULAR_WEIGHT>
446.367069

> <PUBCHEM_OPENEYE_CAN_SMILES>
CON=C(C1=CC=CO1)C(=O)NC2C3N(C2=O)C(=C(CS3)COC(=O)N)C(=O)[O-].[Na+]

> <PUBCHEM_OPENEYE_ISO_SMILES>
CO/N=C(/C1=CC=CO1)\C(=O)N[C@H]2[C@@H]3N(C2=O)C(=C(CS3)COC(=O)N)C(=O)[O-].[Na+]

> <PUBCHEM_CACTVS_TPSA>
202

> <PUBCHEM_MONOISOTOPIC_WEIGHT>
446.050829

> <PUBCHEM_TOTAL_CHARGE>
0

> <PUBCHEM_HEAVY_ATOM_COUNT>
30

> <PUBCHEM_ATOM_DEF_STEREO_COUNT>
2

> <PUBCHEM_ATOM_UDEF_STEREO_COUNT>
0

> <PUBCHEM_BOND_DEF_STEREO_COUNT>
1

> <PUBCHEM_BOND_UDEF_STEREO_COUNT>
0

> <PUBCHEM_ISOTOPIC_ATOM_COUNT>
0

> <PUBCHEM_COMPONENT_COUNT>
2

> <PUBCHEM_CACTVS_TAUTO_COUNT>
14

> <PUBCHEM_NONSTANDARDBOND>
2  5  7

> <PUBCHEM_COORDINATE_TYPE>
1
5
255

> <PUBCHEM_BONDANNOTATIONS>
16  12  5
15  31  6
25  27  8
27  28  8
28  29  8
8  25  8
8  29  8

$$$$

