441859
  -OEChem-07051212562D

103109  0     1  0  0  0  0  0999 V2000
   14.8570   -1.4789    0.0000 O   0  0  0  0  0  0  0  0  0  0  0  0
   12.1992   -3.0274    0.0000 O   0  0  0  0  0  0  0  0  0  0  0  0
    9.4639   -2.5313    0.0000 O   0  0  0  0  0  0  0  0  0  0  0  0
   10.8967    0.1378    0.0000 O   0  0  0  0  0  0  0  0  0  0  0  0
   15.7567    3.4711    0.0000 O   0  0  0  0  0  0  0  0  0  0  0  0
    8.6036   -1.0279    0.0000 O   0  0  0  0  0  0  0  0  0  0  0  0
    7.7280   -3.5246    0.0000 O   0  0  0  0  0  0  0  0  0  0  0  0
   17.0458    4.6279    0.0000 O   0  0  0  0  0  0  0  0  0  0  0  0
    5.9998   -2.5179    0.0000 O   0  0  0  0  0  0  0  0  0  0  0  0
    6.0075   -0.5179    0.0000 O   0  0  0  0  0  0  0  0  0  0  0  0
    5.1357   -2.0146    0.0000 O   0  0  0  0  0  0  0  0  0  0  0  0
    4.2793    0.4887    0.0000 O   0  0  0  0  0  0  0  0  0  0  0  0
    2.5434   -0.5046    0.0000 O   0  0  0  0  0  0  0  0  0  0  0  0
    2.5357   -2.5046    0.0000 O   0  0  0  0  0  0  0  0  0  0  0  0
    3.3960   -4.0079    0.0000 O   0  0  0  0  0  0  0  0  0  0  0  0
   14.8570   -0.4789    0.0000 C   0  0  1  0  0  0  0  0  0  0  0  0
   13.9909   -0.9789    0.0000 C   0  0  1  0  0  0  0  0  0  0  0  0
   14.8570    0.5211    0.0000 C   0  0  2  0  0  0  0  0  0  0  0  0
   13.1249   -0.4789    0.0000 C   0  0  1  0  0  0  0  0  0  0  0  0
   12.2149   -0.9858    0.0000 C   0  0  2  0  0  0  0  0  0  0  0  0
   12.2069   -2.0274    0.0000 C   0  0  1  0  0  0  0  0  0  0  0  0
   13.9909    1.0211    0.0000 C   0  0  0  0  0  0  0  0  0  0  0  0
   13.1249    0.5211    0.0000 C   0  0  0  0  0  0  0  0  0  0  0  0
   15.8032    0.8258    0.0000 C   0  0  2  0  0  0  0  0  0  0  0  0
   14.0070   -2.0204    0.0000 C   0  0  0  0  0  0  0  0  0  0  0  0
   15.8032   -0.7837    0.0000 C   0  0  0  0  0  0  0  0  0  0  0  0
   13.1090   -2.5482    0.0000 C   0  0  0  0  0  0  0  0  0  0  0  0
   16.3868    0.0211    0.0000 C   0  0  0  0  0  0  0  0  0  0  0  0
   11.2881   -0.4217    0.0000 C   0  0  0  0  0  0  0  0  0  0  0  0
   11.2715   -2.5771    0.0000 C   0  0  0  0  0  0  0  0  0  0  0  0
   14.8570    1.5211    0.0000 C   0  0  0  0  0  0  0  0  0  0  0  0
   10.3402   -0.9496    0.0000 C   0  0  0  0  0  0  0  0  0  0  0  0
   10.3318   -2.0346    0.0000 C   0  0  2  0  0  0  0  0  0  0  0  0
   11.8802   -0.0435    0.0000 C   0  0  0  0  0  0  0  0  0  0  0  0
   16.1139    1.7763    0.0000 C   0  0  0  0  0  0  0  0  0  0  0  0
   17.0924    1.9825    0.0000 C   0  0  0  0  0  0  0  0  0  0  0  0
   15.4460    2.5206    0.0000 C   0  0  0  0  0  0  0  0  0  0  0  0
    8.5998   -2.0279    0.0000 C   0  0  2  0  0  0  0  0  0  0  0  0
   17.4030    2.9331    0.0000 C   0  0  0  0  0  0  0  0  0  0  0  0
    7.7318   -2.5246    0.0000 C   0  0  1  0  0  0  0  0  0  0  0  0
   16.7352    3.6774    0.0000 C   0  0  0  0  0  0  0  0  0  0  0  0
    6.8678   -2.0213    0.0000 C   0  0  1  0  0  0  0  0  0  0  0  0
    7.7396   -0.5246    0.0000 C   0  0  2  0  0  0  0  0  0  0  0  0
    6.8716   -1.0213    0.0000 C   0  0  2  0  0  0  0  0  0  0  0  0
    7.7434    0.4754    0.0000 C   0  0  0  0  0  0  0  0  0  0  0  0
    5.1396   -1.0146    0.0000 C   0  0  2  0  0  0  0  0  0  0  0  0
    4.2755   -0.5112    0.0000 C   0  0  1  0  0  0  0  0  0  0  0  0
    3.4075   -1.0079    0.0000 C   0  0  2  0  0  0  0  0  0  0  0  0
    4.2678   -2.5112    0.0000 C   0  0  1  0  0  0  0  0  0  0  0  0
    3.4037   -2.0079    0.0000 C   0  0  1  0  0  0  0  0  0  0  0  0
    4.2639   -3.5112    0.0000 C   0  0  0  0  0  0  0  0  0  0  0  0
   14.7303   -1.3982    0.0000 H   0  0  0  0  0  0  0  0  0  0  0  0
   13.8610   -0.0539    0.0000 H   0  0  0  0  0  0  0  0  0  0  0  0
   12.9129    1.1037    0.0000 H   0  0  0  0  0  0  0  0  0  0  0  0
   12.5143    0.4134    0.0000 H   0  0  0  0  0  0  0  0  0  0  0  0
   14.3895    1.4960    0.0000 H   0  0  0  0  0  0  0  0  0  0  0  0
   13.5924    1.4960    0.0000 H   0  0  0  0  0  0  0  0  0  0  0  0
   16.4157    0.9220    0.0000 H   0  0  0  0  0  0  0  0  0  0  0  0
   14.2250   -2.6008    0.0000 H   0  0  0  0  0  0  0  0  0  0  0  0
   14.6162   -1.9049    0.0000 H   0  0  0  0  0  0  0  0  0  0  0  0
   15.5522   -1.3506    0.0000 H   0  0  0  0  0  0  0  0  0  0  0  0
   16.3406   -1.0929    0.0000 H   0  0  0  0  0  0  0  0  0  0  0  0
   12.7117   -3.0242    0.0000 H   0  0  0  0  0  0  0  0  0  0  0  0
   13.5099   -3.0211    0.0000 H   0  0  0  0  0  0  0  0  0  0  0  0
   16.8477   -0.3937    0.0000 H   0  0  0  0  0  0  0  0  0  0  0  0
   16.8477    0.4358    0.0000 H   0  0  0  0  0  0  0  0  0  0  0  0
   11.6963    0.0450    0.0000 H   0  0  0  0  0  0  0  0  0  0  0  0
   10.8982    0.0603    0.0000 H   0  0  0  0  0  0  0  0  0  0  0  0
   10.8742   -3.0531    0.0000 H   0  0  0  0  0  0  0  0  0  0  0  0
   11.6724   -3.0500    0.0000 H   0  0  0  0  0  0  0  0  0  0  0  0
   15.4770    1.5211    0.0000 H   0  0  0  0  0  0  0  0  0  0  0  0
   14.8570    2.1411    0.0000 H   0  0  0  0  0  0  0  0  0  0  0  0
   14.2370    1.5211    0.0000 H   0  0  0  0  0  0  0  0  0  0  0  0
   10.1356   -0.3644    0.0000 H   0  0  0  0  0  0  0  0  0  0  0  0
    9.7285   -1.0510    0.0000 H   0  0  0  0  0  0  0  0  0  0  0  0
    9.7967   -1.7215    0.0000 H   0  0  0  0  0  0  0  0  0  0  0  0
   12.2823    0.4284    0.0000 H   0  0  0  0  0  0  0  0  0  0  0  0
   15.3939   -1.7889    0.0000 H   0  0  0  0  0  0  0  0  0  0  0  0
   12.7337   -3.3415    0.0000 H   0  0  0  0  0  0  0  0  0  0  0  0
   17.5064    1.5211    0.0000 H   0  0  0  0  0  0  0  0  0  0  0  0
   14.8393    2.3928    0.0000 H   0  0  0  0  0  0  0  0  0  0  0  0
    8.5974   -2.6479    0.0000 H   0  0  0  0  0  0  0  0  0  0  0  0
   18.0097    3.0609    0.0000 H   0  0  0  0  0  0  0  0  0  0  0  0
    7.1937   -2.8325    0.0000 H   0  0  0  0  0  0  0  0  0  0  0  0
    6.3320   -1.7092    0.0000 H   0  0  0  0  0  0  0  0  0  0  0  0
    8.2777   -0.2167    0.0000 H   0  0  0  0  0  0  0  0  0  0  0  0
    6.8740   -0.4013    0.0000 H   0  0  0  0  0  0  0  0  0  0  0  0
    8.2637   -3.8366    0.0000 H   0  0  0  0  0  0  0  0  0  0  0  0
    8.3634    0.4730    0.0000 H   0  0  0  0  0  0  0  0  0  0  0  0
    7.7458    1.0954    0.0000 H   0  0  0  0  0  0  0  0  0  0  0  0
    7.1234    0.4778    0.0000 H   0  0  0  0  0  0  0  0  0  0  0  0
    5.9974   -3.1379    0.0000 H   0  0  0  0  0  0  0  0  0  0  0  0
    5.1420   -0.3946    0.0000 H   0  0  0  0  0  0  0  0  0  0  0  0
    3.7398   -0.1992    0.0000 H   0  0  0  0  0  0  0  0  0  0  0  0
    3.4099   -0.3879    0.0000 H   0  0  0  0  0  0  0  0  0  0  0  0
    4.8035   -2.8233    0.0000 H   0  0  0  0  0  0  0  0  0  0  0  0
    3.4013   -2.6279    0.0000 H   0  0  0  0  0  0  0  0  0  0  0  0
    3.7436    0.8008    0.0000 H   0  0  0  0  0  0  0  0  0  0  0  0
    4.4737   -4.0946    0.0000 H   0  0  0  0  0  0  0  0  0  0  0  0
    4.8749   -3.4059    0.0000 H   0  0  0  0  0  0  0  0  0  0  0  0
    2.0053   -0.8125    0.0000 H   0  0  0  0  0  0  0  0  0  0  0  0
    2.0000   -2.1925    0.0000 H   0  0  0  0  0  0  0  0  0  0  0  0
    3.3936   -4.6279    0.0000 H   0  0  0  0  0  0  0  0  0  0  0  0
 16  1  1  1  0  0  0
  1 78  1  0  0  0  0
 21  2  1  1  0  0  0
  2 79  1  0  0  0  0
 33  3  1  1  0  0  0
 38  3  1  1  0  0  0
  4 34  2  0  0  0  0
  5 37  1  0  0  0  0
  5 41  1  0  0  0  0
  6 38  1  0  0  0  0
  6 43  1  0  0  0  0
 40  7  1  6  0  0  0
  7 88  1  0  0  0  0
  8 41  2  0  0  0  0
 42  9  1  6  0  0  0
  9 92  1  0  0  0  0
 44 10  1  1  0  0  0
 46 10  1  6  0  0  0
 11 46  1  0  0  0  0
 11 49  1  0  0  0  0
 47 12  1  1  0  0  0
 12 98  1  0  0  0  0
 48 13  1  6  0  0  0
 13101  1  0  0  0  0
 50 14  1  1  0  0  0
 14102  1  0  0  0  0
 15 51  1  0  0  0  0
 15103  1  0  0  0  0
 16 17  1  0  0  0  0
 16 18  1  0  0  0  0
 16 26  1  0  0  0  0
 17 19  1  0  0  0  0
 17 25  1  0  0  0  0
 17 52  1  1  0  0  0
 18 22  1  0  0  0  0
 18 24  1  0  0  0  0
 18 31  1  1  0  0  0
 19 20  1  0  0  0  0
 19 23  1  0  0  0  0
 19 53  1  6  0  0  0
 20 21  1  0  0  0  0
 20 29  1  0  0  0  0
 20 34  1  1  0  0  0
 21 27  1  0  0  0  0
 21 30  1  0  0  0  0
 22 23  1  0  0  0  0
 22 56  1  0  0  0  0
 22 57  1  0  0  0  0
 23 54  1  0  0  0  0
 23 55  1  0  0  0  0
 24 28  1  0  0  0  0
 24 35  1  1  0  0  0
 24 58  1  0  0  0  0
 25 27  1  0  0  0  0
 25 59  1  0  0  0  0
 25 60  1  0  0  0  0
 26 28  1  0  0  0  0
 26 61  1  0  0  0  0
 26 62  1  0  0  0  0
 27 63  1  0  0  0  0
 27 64  1  0  0  0  0
 28 65  1  0  0  0  0
 28 66  1  0  0  0  0
 29 32  1  0  0  0  0
 29 67  1  0  0  0  0
 29 68  1  0  0  0  0
 30 33  1  0  0  0  0
 30 69  1  0  0  0  0
 30 70  1  0  0  0  0
 31 71  1  0  0  0  0
 31 72  1  0  0  0  0
 31 73  1  0  0  0  0
 32 33  1  0  0  0  0
 32 74  1  0  0  0  0
 32 75  1  0  0  0  0
 33 76  1  0  0  0  0
 34 77  1  0  0  0  0
 35 36  1  0  0  0  0
 35 37  2  0  0  0  0
 36 39  2  0  0  0  0
 36 80  1  0  0  0  0
 37 81  1  0  0  0  0
 38 40  1  0  0  0  0
 38 82  1  0  0  0  0
 39 41  1  0  0  0  0
 39 83  1  0  0  0  0
 40 42  1  0  0  0  0
 40 84  1  0  0  0  0
 42 44  1  0  0  0  0
 42 85  1  0  0  0  0
 43 44  1  0  0  0  0
 43 45  1  6  0  0  0
 43 86  1  0  0  0  0
 44 87  1  0  0  0  0
 45 89  1  0  0  0  0
 45 90  1  0  0  0  0
 45 91  1  0  0  0  0
 46 47  1  0  0  0  0
 46 93  1  0  0  0  0
 47 48  1  0  0  0  0
 47 94  1  0  0  0  0
 48 50  1  0  0  0  0
 48 95  1  0  0  0  0
 49 50  1  0  0  0  0
 49 51  1  6  0  0  0
 49 96  1  0  0  0  0
 50 97  1  0  0  0  0
 51 99  1  0  0  0  0
 51100  1  0  0  0  0
M  END
> <PUBCHEM_COMPOUND_CID>
441859

> <PUBCHEM_COMPOUND_CANONICALIZED>
1

> <PUBCHEM_CACTVS_COMPLEXITY>
1410

> <PUBCHEM_CACTVS_HBOND_ACCEPTOR>
15

> <PUBCHEM_CACTVS_HBOND_DONOR>
8

> <PUBCHEM_CACTVS_ROTATABLE_BOND>
7

> <PUBCHEM_CACTVS_SUBSKEYS>
AAADcfB8PAAAAAAAAAAAAAAAAAAAAYAAAAA0aMECAAAAAGDAAAAAGgAACAAAD1SwgAMCCAAABgCIAijSiAAACAAgIAAICAEAAEgZFBYAIQAiUAAFoAAPoYPI7PzPgAAAAAAAAADAAAYQADAAAYAADAAAAA==

> <PUBCHEM_IUPAC_OPENEYE_NAME>
(3S,5S,8R,9S,10S,13R,14S,17R)-3-[(2R,3R,4S,5R,6S)-3,4-dihydroxy-6-methyl-5-[(2S,3R,4S,5S,6R)-3,4,5-trihydroxy-6-(hydroxymethyl)tetrahydropyran-2-yl]oxy-tetrahydropyran-2-yl]oxy-5,14-dihydroxy-13-methyl-17-(6-oxopyran-3-yl)-2,3,4,6,7,8,9,11,12,15,16,17-dodecahydro-1H-cyclopenta[a]phenanthrene-10-carbaldehyde

> <PUBCHEM_IUPAC_CAS_NAME>
(3S,5S,8R,9S,10S,13R,14S,17R)-3-[[(2R,3R,4S,5R,6S)-3,4-dihydroxy-6-methyl-5-[[(2S,3R,4S,5S,6R)-3,4,5-trihydroxy-6-(hydroxymethyl)-2-oxanyl]oxy]-2-oxanyl]oxy]-5,14-dihydroxy-13-methyl-17-(6-oxo-3-pyranyl)-2,3,4,6,7,8,9,11,12,15,16,17-dodecahydro-1H-cyclopenta[a]phenanthrene-10-carboxaldehyde

> <PUBCHEM_IUPAC_NAME>
(3S,5S,8R,9S,10S,13R,14S,17R)-3-[(2R,3R,4S,5R,6S)-3,4-dihydroxy-6-methyl-5-[(2S,3R,4S,5S,6R)-3,4,5-trihydroxy-6-(hydroxymethyl)oxan-2-yl]oxyoxan-2-yl]oxy-5,14-dihydroxy-13-methyl-17-(6-oxopyran-3-yl)-2,3,4,6,7,8,9,11,12,15,16,17-dodecahydro-1H-cyclopenta[a]phenanthrene-10-carbaldehyde

> <PUBCHEM_IUPAC_SYSTEMATIC_NAME>
(3S,5S,8R,9S,10S,13R,14S,17R)-3-[(2R,3R,4S,5R,6S)-5-[(2S,3R,4S,5S,6R)-6-(hydroxymethyl)-3,4,5-tris(oxidanyl)oxan-2-yl]oxy-6-methyl-3,4-bis(oxidanyl)oxan-2-yl]oxy-13-methyl-5,14-bis(oxidanyl)-17-(6-oxidanylidenepyran-3-yl)-2,3,4,6,7,8,9,11,12,15,16,17-dodecahydro-1H-cyclopenta[a]phenanthrene-10-carbaldehyde

> <PUBCHEM_IUPAC_TRADITIONAL_NAME>
(3S,5S,8R,9S,10S,13R,14S,17R)-3-[(2R,3R,4S,5R,6S)-3,4-dihydroxy-6-methyl-5-[(2S,3R,4S,5S,6R)-3,4,5-trihydroxy-6-methylol-tetrahydropyran-2-yl]oxy-tetrahydropyran-2-yl]oxy-5,14-dihydroxy-17-(6-ketopyran-3-yl)-13-methyl-2,3,4,6,7,8,9,11,12,15,16,17-dodecahydro-1H-cyclopenta[a]phenanthrene-10-carbaldehyde

> <PUBCHEM_IUPAC_INCHI>
InChI=1S/C36H52O15/c1-17-30(51-32-28(43)26(41)25(40)23(14-37)50-32)27(42)29(44)31(48-17)49-19-5-10-34(16-38)21-6-9-33(2)20(18-3-4-24(39)47-15-18)8-12-36(33,46)22(21)7-11-35(34,45)13-19/h3-4,15-17,19-23,25-32,37,40-46H,5-14H2,1-2H3/t17-,19-,20+,21-,22+,23+,25+,26-,27-,28+,29+,30-,31-,32-,33+,34-,35-,36-/m0/s1

> <PUBCHEM_IUPAC_INCHIKEY>
DCSLTSSPIJWEJN-YRFFWODSSA-N

> <PUBCHEM_XLOGP3>
-1.7

> <PUBCHEM_EXACT_MASS>
724.330621

> <PUBCHEM_MOLECULAR_FORMULA>
C36H52O15

> <PUBCHEM_MOLECULAR_WEIGHT>
724.78908

> <PUBCHEM_OPENEYE_CAN_SMILES>
CC1C(C(C(C(O1)OC2CCC3(C4CCC5(C(CCC5(C4CCC3(C2)O)O)C6=COC(=O)C=C6)C)C=O)O)O)OC7C(C(C(C(O7)CO)O)O)O

> <PUBCHEM_OPENEYE_ISO_SMILES>
C[C@H]1[C@@H]([C@H]([C@H]([C@@H](O1)O[C@H]2CC[C@@]3([C@H]4CC[C@@]5([C@H](CC[C@@]5([C@@H]4CC[C@@]3(C2)O)O)C6=COC(=O)C=C6)C)C=O)O)O)O[C@H]7[C@@H]([C@H]([C@@H]([C@H](O7)CO)O)O)O

> <PUBCHEM_CACTVS_TPSA>
242

> <PUBCHEM_MONOISOTOPIC_WEIGHT>
724.330621

> <PUBCHEM_TOTAL_CHARGE>
0

> <PUBCHEM_HEAVY_ATOM_COUNT>
51

> <PUBCHEM_ATOM_DEF_STEREO_COUNT>
18

> <PUBCHEM_ATOM_UDEF_STEREO_COUNT>
0

> <PUBCHEM_BOND_DEF_STEREO_COUNT>
0

> <PUBCHEM_BOND_UDEF_STEREO_COUNT>
0

> <PUBCHEM_ISOTOPIC_ATOM_COUNT>
0

> <PUBCHEM_COMPONENT_COUNT>
1

> <PUBCHEM_CACTVS_TAUTO_COUNT>
1

> <PUBCHEM_COORDINATE_TYPE>
1
5
255

> <PUBCHEM_BONDANNOTATIONS>
16  1  5
44  10  5
46  10  6
47  12  5
48  13  6
50  14  5
17  52  5
18  31  5
19  53  6
21  2  5
20  34  5
24  35  5
33  3  5
38  3  5
35  36  8
35  37  8
36  39  8
39  41  8
43  45  6
49  51  6
5  37  8
5  41  8
40  7  6
42  9  6

$$$$

