17395659
  -OEChem-06241222512D

 51 53  0     1  0  0  0  0  0999 V2000
    8.4495    3.0330    0.0000 O   0  0  0  0  0  0  0  0  0  0  0  0
   10.7448   -2.8931    0.0000 O   0  0  0  0  0  0  0  0  0  0  0  0
    6.7553    3.3931    0.0000 O   0  0  0  0  0  0  0  0  0  0  0  0
    2.7431    1.1789    0.0000 O   0  0  0  0  0  0  0  0  0  0  0  0
    9.9358    1.6947    0.0000 N   0  0  3  0  0  0  0  0  0  0  0  0
    7.2905    1.7458    0.0000 N   0  0  0  0  0  0  0  0  0  0  0  0
   10.7448    1.1069    0.0000 C   0  0  3  0  0  0  0  0  0  0  0  0
   11.5538    1.6947    0.0000 C   0  0  0  0  0  0  0  0  0  0  0  0
   11.2448    2.6458    0.0000 C   0  0  0  0  0  0  0  0  0  0  0  0
   10.2448    2.6458    0.0000 C   0  0  0  0  0  0  0  0  0  0  0  0
   10.7448    0.1069    0.0000 C   0  0  0  0  0  0  0  0  0  0  0  0
    8.9847    1.3857    0.0000 C   0  0  0  0  0  0  0  0  0  0  0  0
    9.8788   -0.3931    0.0000 C   0  0  0  0  0  0  0  0  0  0  0  0
   11.6108   -0.3931    0.0000 C   0  0  0  0  0  0  0  0  0  0  0  0
    8.2416    2.0548    0.0000 C   0  0  0  0  0  0  0  0  0  0  0  0
    9.8788   -1.3931    0.0000 C   0  0  0  0  0  0  0  0  0  0  0  0
   11.6108   -1.3931    0.0000 C   0  0  0  0  0  0  0  0  0  0  0  0
   10.7448   -1.8931    0.0000 C   0  0  0  0  0  0  0  0  0  0  0  0
    6.5474    2.4149    0.0000 C   0  0  0  0  0  0  0  0  0  0  0  0
    5.5963    2.1059    0.0000 C   0  0  0  0  0  0  0  0  0  0  0  0
   11.6108   -3.3931    0.0000 C   0  0  0  0  0  0  0  0  0  0  0  0
    4.8532    2.7750    0.0000 C   0  0  0  0  0  0  0  0  0  0  0  0
    5.3884    1.1278    0.0000 C   0  0  0  0  0  0  0  0  0  0  0  0
    3.9021    2.4660    0.0000 C   0  0  0  0  0  0  0  0  0  0  0  0
    4.4374    0.8188    0.0000 C   0  0  0  0  0  0  0  0  0  0  0  0
    3.6942    1.4879    0.0000 C   0  0  0  0  0  0  0  0  0  0  0  0
    2.0000    1.8480    0.0000 C   0  0  0  0  0  0  0  0  0  0  0  0
   11.2972    0.8254    0.0000 H   0  0  0  0  0  0  0  0  0  0  0  0
   11.8638    1.1578    0.0000 H   0  0  0  0  0  0  0  0  0  0  0  0
   12.1202    1.9469    0.0000 H   0  0  0  0  0  0  0  0  0  0  0  0
   11.8512    2.7747    0.0000 H   0  0  0  0  0  0  0  0  0  0  0  0
   11.1800    3.2624    0.0000 H   0  0  0  0  0  0  0  0  0  0  0  0
   10.3096    3.2624    0.0000 H   0  0  0  0  0  0  0  0  0  0  0  0
    9.6383    2.7747    0.0000 H   0  0  0  0  0  0  0  0  0  0  0  0
    8.4962    1.0040    0.0000 H   0  0  0  0  0  0  0  0  0  0  0  0
    9.2758    0.8383    0.0000 H   0  0  0  0  0  0  0  0  0  0  0  0
    9.3418   -0.0831    0.0000 H   0  0  0  0  0  0  0  0  0  0  0  0
   12.1478   -0.0831    0.0000 H   0  0  0  0  0  0  0  0  0  0  0  0
    9.3418   -1.7031    0.0000 H   0  0  0  0  0  0  0  0  0  0  0  0
   12.1478   -1.7031    0.0000 H   0  0  0  0  0  0  0  0  0  0  0  0
    7.1616    1.1394    0.0000 H   0  0  0  0  0  0  0  0  0  0  0  0
   11.3008   -3.9300    0.0000 H   0  0  0  0  0  0  0  0  0  0  0  0
   12.1478   -3.7031    0.0000 H   0  0  0  0  0  0  0  0  0  0  0  0
   11.9208   -2.8561    0.0000 H   0  0  0  0  0  0  0  0  0  0  0  0
    4.9821    3.3815    0.0000 H   0  0  0  0  0  0  0  0  0  0  0  0
    5.8492    0.7129    0.0000 H   0  0  0  0  0  0  0  0  0  0  0  0
    3.4414    2.8809    0.0000 H   0  0  0  0  0  0  0  0  0  0  0  0
    4.3084    0.2123    0.0000 H   0  0  0  0  0  0  0  0  0  0  0  0
    2.4149    2.3087    0.0000 H   0  0  0  0  0  0  0  0  0  0  0  0
    1.5392    2.2629    0.0000 H   0  0  0  0  0  0  0  0  0  0  0  0
    1.5851    1.3873    0.0000 H   0  0  0  0  0  0  0  0  0  0  0  0
  1 15  2  0  0  0  0
  2 18  1  0  0  0  0
  2 21  1  0  0  0  0
  3 19  2  0  0  0  0
  4 26  1  0  0  0  0
  4 27  1  0  0  0  0
  5  7  1  0  0  0  0
  5 10  1  0  0  0  0
  5 12  1  0  0  0  0
  6 15  1  0  0  0  0
  6 19  1  0  0  0  0
  6 41  1  0  0  0  0
  7  8  1  0  0  0  0
  7 11  1  0  0  0  0
  7 28  1  0  0  0  0
  8  9  1  0  0  0  0
  8 29  1  0  0  0  0
  8 30  1  0  0  0  0
  9 10  1  0  0  0  0
  9 31  1  0  0  0  0
  9 32  1  0  0  0  0
 10 33  1  0  0  0  0
 10 34  1  0  0  0  0
 11 13  2  0  0  0  0
 11 14  1  0  0  0  0
 12 15  1  0  0  0  0
 12 35  1  0  0  0  0
 12 36  1  0  0  0  0
 13 16  1  0  0  0  0
 13 37  1  0  0  0  0
 14 17  2  0  0  0  0
 14 38  1  0  0  0  0
 16 18  2  0  0  0  0
 16 39  1  0  0  0  0
 17 18  1  0  0  0  0
 17 40  1  0  0  0  0
 19 20  1  0  0  0  0
 20 22  2  0  0  0  0
 20 23  1  0  0  0  0
 21 42  1  0  0  0  0
 21 43  1  0  0  0  0
 21 44  1  0  0  0  0
 22 24  1  0  0  0  0
 22 45  1  0  0  0  0
 23 25  2  0  0  0  0
 23 46  1  0  0  0  0
 24 26  2  0  0  0  0
 24 47  1  0  0  0  0
 25 26  1  0  0  0  0
 25 48  1  0  0  0  0
 27 49  1  0  0  0  0
 27 50  1  0  0  0  0
 27 51  1  0  0  0  0
M  END
> <PUBCHEM_COMPOUND_CID>
17395659

> <PUBCHEM_COMPOUND_CANONICALIZED>
1

> <PUBCHEM_CACTVS_COMPLEXITY>
496

> <PUBCHEM_CACTVS_HBOND_ACCEPTOR>
5

> <PUBCHEM_CACTVS_HBOND_DONOR>
1

> <PUBCHEM_CACTVS_ROTATABLE_BOND>
6

> <PUBCHEM_CACTVS_SUBSKEYS>
AAADceB7OAAAAAAAAAAAAAAAAAAAAWAAAAAwYAAAAAAAAAABQAAAHgAQAAAADCzBmAYyBoPABACIAiFSEACCCAAkIAAIiAGODMgMZjKEtTuUMShk1DGIqYeY3KPOIAAAAAAAAABAAAAAAAAAAAAAAAAAAA==

> <PUBCHEM_IUPAC_OPENEYE_NAME>
4-methoxy-N-[2-[2-(4-methoxyphenyl)pyrrolidin-1-yl]acetyl]benzamide

> <PUBCHEM_IUPAC_CAS_NAME>
4-methoxy-N-[2-[2-(4-methoxyphenyl)-1-pyrrolidinyl]-1-oxoethyl]benzamide

> <PUBCHEM_IUPAC_NAME>
4-methoxy-N-[2-[2-(4-methoxyphenyl)pyrrolidin-1-yl]acetyl]benzamide

> <PUBCHEM_IUPAC_SYSTEMATIC_NAME>
4-methoxy-N-[2-[2-(4-methoxyphenyl)pyrrolidin-1-yl]ethanoyl]benzamide

> <PUBCHEM_IUPAC_TRADITIONAL_NAME>
4-methoxy-N-[2-[2-(4-methoxyphenyl)pyrrolidino]acetyl]benzamide

> <PUBCHEM_IUPAC_INCHI>
InChI=1S/C21H24N2O4/c1-26-17-9-5-15(6-10-17)19-4-3-13-23(19)14-20(24)22-21(25)16-7-11-18(27-2)12-8-16/h5-12,19H,3-4,13-14H2,1-2H3,(H,22,24,25)

> <PUBCHEM_IUPAC_INCHIKEY>
CZAYPOUQXLNATA-UHFFFAOYSA-N

> <PUBCHEM_XLOGP3_AA>
3

> <PUBCHEM_EXACT_MASS>
368.173607

> <PUBCHEM_MOLECULAR_FORMULA>
C21H24N2O4

> <PUBCHEM_MOLECULAR_WEIGHT>
368.42626

> <PUBCHEM_OPENEYE_CAN_SMILES>
COC1=CC=C(C=C1)C2CCCN2CC(=O)NC(=O)C3=CC=C(C=C3)OC

> <PUBCHEM_OPENEYE_ISO_SMILES>
COC1=CC=C(C=C1)C2CCCN2CC(=O)NC(=O)C3=CC=C(C=C3)OC

> <PUBCHEM_CACTVS_TPSA>
67.9

> <PUBCHEM_MONOISOTOPIC_WEIGHT>
368.173607

> <PUBCHEM_TOTAL_CHARGE>
0

> <PUBCHEM_HEAVY_ATOM_COUNT>
27

> <PUBCHEM_ATOM_DEF_STEREO_COUNT>
0

> <PUBCHEM_ATOM_UDEF_STEREO_COUNT>
1

> <PUBCHEM_BOND_DEF_STEREO_COUNT>
0

> <PUBCHEM_BOND_UDEF_STEREO_COUNT>
0

> <PUBCHEM_ISOTOPIC_ATOM_COUNT>
0

> <PUBCHEM_COMPONENT_COUNT>
1

> <PUBCHEM_CACTVS_TAUTO_COUNT>
3

> <PUBCHEM_COORDINATE_TYPE>
1
5
255

> <PUBCHEM_BONDANNOTATIONS>
11  13  8
11  14  8
13  16  8
14  17  8
16  18  8
17  18  8
20  22  8
20  23  8
22  24  8
23  25  8
24  26  8
25  26  8
7  11  3

$$$$

