161171
  -OEChem-07051213112D

 27 28  0     1  0  0  0  0  0999 V2000
    4.5691    0.9139    0.0000 O   0  0  0  0  0  0  0  0  0  0  0  0
    4.8479    2.6739    0.0000 O   0  0  0  0  0  0  0  0  0  0  0  0
    3.2601    1.8649    0.0000 N   0  0  0  0  0  0  0  0  0  0  0  0
    2.9511    0.9139    0.0000 C   0  0  2  0  0  0  0  0  0  0  0  0
    3.7601    0.3261    0.0000 C   0  0  1  0  0  0  0  0  0  0  0  0
    3.7601   -0.6739    0.0000 C   0  0  0  0  0  0  0  0  0  0  0  0
    2.0000    0.6048    0.0000 C   0  0  0  0  0  0  0  0  0  0  0  0
    4.2601    1.8649    0.0000 C   0  0  0  0  0  0  0  0  0  0  0  0
    2.6723    2.6739    0.0000 C   0  0  0  0  0  0  0  0  0  0  0  0
    2.8940   -1.1739    0.0000 C   0  0  0  0  0  0  0  0  0  0  0  0
    4.6261   -1.1739    0.0000 C   0  0  0  0  0  0  0  0  0  0  0  0
    2.8940   -2.1739    0.0000 C   0  0  0  0  0  0  0  0  0  0  0  0
    4.6261   -2.1739    0.0000 C   0  0  0  0  0  0  0  0  0  0  0  0
    3.7601   -2.6739    0.0000 C   0  0  0  0  0  0  0  0  0  0  0  0
    2.5126    1.3523    0.0000 H   0  0  0  0  0  0  0  0  0  0  0  0
    4.3125    0.0446    0.0000 H   0  0  0  0  0  0  0  0  0  0  0  0
    1.8084    1.1945    0.0000 H   0  0  0  0  0  0  0  0  0  0  0  0
    1.4103    0.4132    0.0000 H   0  0  0  0  0  0  0  0  0  0  0  0
    2.1916    0.0152    0.0000 H   0  0  0  0  0  0  0  0  0  0  0  0
    3.1739    3.0384    0.0000 H   0  0  0  0  0  0  0  0  0  0  0  0
    2.3079    3.1755    0.0000 H   0  0  0  0  0  0  0  0  0  0  0  0
    2.1707    2.3095    0.0000 H   0  0  0  0  0  0  0  0  0  0  0  0
    2.3571   -0.8639    0.0000 H   0  0  0  0  0  0  0  0  0  0  0  0
    5.1630   -0.8639    0.0000 H   0  0  0  0  0  0  0  0  0  0  0  0
    2.3571   -2.4839    0.0000 H   0  0  0  0  0  0  0  0  0  0  0  0
    5.1630   -2.4839    0.0000 H   0  0  0  0  0  0  0  0  0  0  0  0
    3.7601   -3.2939    0.0000 H   0  0  0  0  0  0  0  0  0  0  0  0
  1  5  1  0  0  0  0
  1  8  1  0  0  0  0
  2  8  2  0  0  0  0
  3  4  1  0  0  0  0
  3  8  1  0  0  0  0
  3  9  1  0  0  0  0
  4  5  1  0  0  0  0
  4  7  1  6  0  0  0
  4 15  1  0  0  0  0
  5  6  1  6  0  0  0
  5 16  1  0  0  0  0
  6 10  2  0  0  0  0
  6 11  1  0  0  0  0
  7 17  1  0  0  0  0
  7 18  1  0  0  0  0
  7 19  1  0  0  0  0
  9 20  1  0  0  0  0
  9 21  1  0  0  0  0
  9 22  1  0  0  0  0
 10 12  1  0  0  0  0
 10 23  1  0  0  0  0
 11 13  2  0  0  0  0
 11 24  1  0  0  0  0
 12 14  2  0  0  0  0
 12 25  1  0  0  0  0
 13 14  1  0  0  0  0
 13 26  1  0  0  0  0
 14 27  1  0  0  0  0
M  END
> <PUBCHEM_COMPOUND_CID>
161171

> <PUBCHEM_COMPOUND_CANONICALIZED>
1

> <PUBCHEM_CACTVS_COMPLEXITY>
223

> <PUBCHEM_CACTVS_HBOND_ACCEPTOR>
2

> <PUBCHEM_CACTVS_HBOND_DONOR>
0

> <PUBCHEM_CACTVS_ROTATABLE_BOND>
1

> <PUBCHEM_CACTVS_SUBSKEYS>
AAADccByMAAAAAAAAAAAAAAAAAAAAWAAAAAwAAAAAAAAAAABAAAAHgAAAAAADDzhmAYyCIMABACIAiBCGAACAAAgAAAIiAAICIgKJiKAsRmNMAAkxgEYqAeQwKAOAAAAAAAAAAAAAAAAAAAAAAAAAAAAAA==

> <PUBCHEM_IUPAC_OPENEYE_NAME>
(4S,5R)-3,4-dimethyl-5-phenyl-oxazolidin-2-one

> <PUBCHEM_IUPAC_CAS_NAME>
(4S,5R)-3,4-dimethyl-5-phenyl-2-oxazolidinone

> <PUBCHEM_IUPAC_NAME>
(4S,5R)-3,4-dimethyl-5-phenyl-1,3-oxazolidin-2-one

> <PUBCHEM_IUPAC_SYSTEMATIC_NAME>
(4S,5R)-3,4-dimethyl-5-phenyl-1,3-oxazolidin-2-one

> <PUBCHEM_IUPAC_TRADITIONAL_NAME>
(4S,5R)-3,4-dimethyl-5-phenyl-oxazolidin-2-one

> <PUBCHEM_IUPAC_INCHI>
InChI=1S/C11H13NO2/c1-8-10(14-11(13)12(8)2)9-6-4-3-5-7-9/h3-8,10H,1-2H3/t8-,10-/m0/s1

> <PUBCHEM_IUPAC_INCHIKEY>
MNYARIILPGRTQL-WPRPVWTQSA-N

> <PUBCHEM_XLOGP3_AA>
1.9

> <PUBCHEM_EXACT_MASS>
191.094629

> <PUBCHEM_MOLECULAR_FORMULA>
C11H13NO2

> <PUBCHEM_MOLECULAR_WEIGHT>
191.22642

> <PUBCHEM_OPENEYE_CAN_SMILES>
CC1C(OC(=O)N1C)C2=CC=CC=C2

> <PUBCHEM_OPENEYE_ISO_SMILES>
C[C@H]1[C@H](OC(=O)N1C)C2=CC=CC=C2

> <PUBCHEM_CACTVS_TPSA>
29.5

> <PUBCHEM_MONOISOTOPIC_WEIGHT>
191.094629

> <PUBCHEM_TOTAL_CHARGE>
0

> <PUBCHEM_HEAVY_ATOM_COUNT>
14

> <PUBCHEM_ATOM_DEF_STEREO_COUNT>
2

> <PUBCHEM_ATOM_UDEF_STEREO_COUNT>
0

> <PUBCHEM_BOND_DEF_STEREO_COUNT>
0

> <PUBCHEM_BOND_UDEF_STEREO_COUNT>
0

> <PUBCHEM_ISOTOPIC_ATOM_COUNT>
0

> <PUBCHEM_COMPONENT_COUNT>
1

> <PUBCHEM_CACTVS_TAUTO_COUNT>
1

> <PUBCHEM_COORDINATE_TYPE>
1
5
255

> <PUBCHEM_BONDANNOTATIONS>
10  12  8
11  13  8
12  14  8
13  14  8
4  7  6
5  6  6
6  10  8
6  11  8

$$$$

