9962
  -OEChem-06261204132D

 21 21  0     0  0  0  0  0  0999 V2000
    3.0000    1.0000    0.0000 Si  0  0  0  0  0  0  0  0  0  0  0  0
    3.0000    2.0000    0.0000 F   0  0  0  0  0  0  0  0  0  0  0  0
    3.0000    0.0000    0.0000 C   0  0  0  0  0  0  0  0  0  0  0  0
    4.0000    1.0000    0.0000 C   0  0  0  0  0  0  0  0  0  0  0  0
    2.0000    1.0000    0.0000 C   0  0  0  0  0  0  0  0  0  0  0  0
    2.1340   -0.5000    0.0000 C   0  0  0  0  0  0  0  0  0  0  0  0
    3.8660   -0.5000    0.0000 C   0  0  0  0  0  0  0  0  0  0  0  0
    2.1340   -1.5000    0.0000 C   0  0  0  0  0  0  0  0  0  0  0  0
    3.8660   -1.5000    0.0000 C   0  0  0  0  0  0  0  0  0  0  0  0
    3.0000   -2.0000    0.0000 C   0  0  0  0  0  0  0  0  0  0  0  0
    2.0000    1.6200    0.0000 H   0  0  0  0  0  0  0  0  0  0  0  0
    1.3800    1.0000    0.0000 H   0  0  0  0  0  0  0  0  0  0  0  0
    2.0000    0.3800    0.0000 H   0  0  0  0  0  0  0  0  0  0  0  0
    4.0000    0.3800    0.0000 H   0  0  0  0  0  0  0  0  0  0  0  0
    4.6200    1.0000    0.0000 H   0  0  0  0  0  0  0  0  0  0  0  0
    4.0000    1.6200    0.0000 H   0  0  0  0  0  0  0  0  0  0  0  0
    1.5970   -0.1900    0.0000 H   0  0  0  0  0  0  0  0  0  0  0  0
    4.4030   -0.1900    0.0000 H   0  0  0  0  0  0  0  0  0  0  0  0
    1.5970   -1.8100    0.0000 H   0  0  0  0  0  0  0  0  0  0  0  0
    4.4030   -1.8100    0.0000 H   0  0  0  0  0  0  0  0  0  0  0  0
    3.0000   -2.6200    0.0000 H   0  0  0  0  0  0  0  0  0  0  0  0
  1  2  1  0  0  0  0
  1  3  1  0  0  0  0
  1  4  1  0  0  0  0
  1  5  1  0  0  0  0
  3  6  2  0  0  0  0
  3  7  1  0  0  0  0
  4 14  1  0  0  0  0
  4 15  1  0  0  0  0
  4 16  1  0  0  0  0
  5 11  1  0  0  0  0
  5 12  1  0  0  0  0
  5 13  1  0  0  0  0
  6  8  1  0  0  0  0
  6 17  1  0  0  0  0
  7  9  2  0  0  0  0
  7 18  1  0  0  0  0
  8 10  2  0  0  0  0
  8 19  1  0  0  0  0
  9 10  1  0  0  0  0
  9 20  1  0  0  0  0
 10 21  1  0  0  0  0
M  END
> <PUBCHEM_COMPOUND_CID>
9962

> <PUBCHEM_COMPOUND_CANONICALIZED>
1

> <PUBCHEM_CACTVS_COMPLEXITY>
106

> <PUBCHEM_CACTVS_HBOND_ACCEPTOR>
1

> <PUBCHEM_CACTVS_HBOND_DONOR>
0

> <PUBCHEM_CACTVS_ROTATABLE_BOND>
1

> <PUBCHEM_CACTVS_SUBSKEYS>
AAADccBwAQgAAAAAAAAAAAAAAAAAAAAAAAAwAAAAAAAAAAABAAAAGBAAAAAACACAMAByAIAAAAGAACBCAAACAAAgAAAIiAAAAIgIICKAERCAIAAggAAIiAcAAAAAAAAAAAAAAAAAAAAAAAAAAAAAAAAAAA==

> <PUBCHEM_IUPAC_OPENEYE_NAME>
fluoro-dimethyl-phenyl-silane

> <PUBCHEM_IUPAC_CAS_NAME>
fluoro-dimethyl-phenylsilane

> <PUBCHEM_IUPAC_NAME>
fluoro-dimethyl-phenylsilane

> <PUBCHEM_IUPAC_SYSTEMATIC_NAME>
fluoranyl-dimethyl-phenyl-silane

> <PUBCHEM_IUPAC_TRADITIONAL_NAME>
fluoro-dimethyl-phenyl-silane

> <PUBCHEM_IUPAC_INCHI>
InChI=1S/C8H11FSi/c1-10(2,9)8-6-4-3-5-7-8/h3-7H,1-2H3

> <PUBCHEM_IUPAC_INCHIKEY>
OCKMVMKNCKNCMZ-UHFFFAOYSA-N

> <PUBCHEM_EXACT_MASS>
154.061405

> <PUBCHEM_MOLECULAR_FORMULA>
C8H11FSi

> <PUBCHEM_MOLECULAR_WEIGHT>
154.256843

> <PUBCHEM_OPENEYE_CAN_SMILES>
C[Si](C)(C1=CC=CC=C1)F

> <PUBCHEM_OPENEYE_ISO_SMILES>
C[Si](C)(C1=CC=CC=C1)F

> <PUBCHEM_CACTVS_TPSA>
0

> <PUBCHEM_MONOISOTOPIC_WEIGHT>
154.061405

> <PUBCHEM_TOTAL_CHARGE>
0

> <PUBCHEM_HEAVY_ATOM_COUNT>
10

> <PUBCHEM_ATOM_DEF_STEREO_COUNT>
0

> <PUBCHEM_ATOM_UDEF_STEREO_COUNT>
0

> <PUBCHEM_BOND_DEF_STEREO_COUNT>
0

> <PUBCHEM_BOND_UDEF_STEREO_COUNT>
0

> <PUBCHEM_ISOTOPIC_ATOM_COUNT>
0

> <PUBCHEM_COMPONENT_COUNT>
1

> <PUBCHEM_CACTVS_TAUTO_COUNT>
1

> <PUBCHEM_COORDINATE_TYPE>
1
5
255

> <PUBCHEM_BONDANNOTATIONS>
3  6  8
3  7  8
6  8  8
7  9  8
8  10  8
9  10  8

$$$$

