5281587
  -OEChem-07051212582D

 80 81  0     1  0  0  0  0  0999 V2000
    2.8660    1.0110    0.0000 O   0  0  0  0  0  0  0  0  0  0  0  0
    6.9641    0.6449    0.0000 O   0  0  0  0  0  0  0  0  0  0  0  0
    3.7226    0.4943    0.0000 O   0  0  0  0  0  0  0  0  0  0  0  0
    3.7118   -2.4522    0.0000 O   0  0  0  0  0  0  0  0  0  0  0  0
    5.4641    1.5110    0.0000 N   0  0  0  0  0  0  0  0  0  0  0  0
    6.4641    3.2430    0.0000 N   0  0  0  0  0  0  0  0  0  0  0  0
    5.4641   -0.4890    0.0000 N   0  0  0  0  0  0  0  0  0  0  0  0
    4.5981   -2.9890    0.0000 N   0  0  0  0  0  0  0  0  0  0  0  0
    4.5981    1.0110    0.0000 C   0  0  1  0  0  0  0  0  0  0  0  0
    3.7320    1.5110    0.0000 C   0  0  2  0  0  0  0  0  0  0  0  0
    6.9641    2.3770    0.0000 C   0  0  1  0  0  0  0  0  0  0  0  0
    7.9641    2.3770    0.0000 C   0  0  2  0  0  0  0  0  0  0  0  0
    3.7320    2.5110    0.0000 C   0  0  0  0  0  0  0  0  0  0  0  0
    6.4641    1.5110    0.0000 C   0  0  0  0  0  0  0  0  0  0  0  0
    8.4641    3.2430    0.0000 C   0  0  0  0  0  0  0  0  0  0  0  0
    4.5981    0.0110    0.0000 C   0  0  0  0  0  0  0  0  0  0  0  0
    5.4641   -1.4890    0.0000 C   0  0  1  0  0  0  0  0  0  0  0  0
    8.4641    1.5110    0.0000 C   0  0  0  0  0  0  0  0  0  0  0  0
    6.3301   -1.9890    0.0000 C   0  0  0  0  0  0  0  0  0  0  0  0
    2.8660    3.0110    0.0000 C   0  0  0  0  0  0  0  0  0  0  0  0
    4.5981    3.0110    0.0000 C   0  0  0  0  0  0  0  0  0  0  0  0
    7.1962   -1.4890    0.0000 C   0  0  0  0  0  0  0  0  0  0  0  0
    9.4641    3.2430    0.0000 C   0  0  0  0  0  0  0  0  0  0  0  0
    6.9641    4.1090    0.0000 C   0  0  0  0  0  0  0  0  0  0  0  0
    5.4641    3.2430    0.0000 C   0  0  0  0  0  0  0  0  0  0  0  0
    4.5981   -1.9890    0.0000 C   0  0  0  0  0  0  0  0  0  0  0  0
    2.8660    0.0110    0.0000 C   0  0  0  0  0  0  0  0  0  0  0  0
    8.0622   -1.9890    0.0000 C   0  0  0  0  0  0  0  0  0  0  0  0
    7.1962   -0.4890    0.0000 C   0  0  0  0  0  0  0  0  0  0  0  0
    3.7320   -0.4890    0.0000 C   0  0  0  0  0  0  0  0  0  0  0  0
    2.0000   -0.4890    0.0000 C   0  0  0  0  0  0  0  0  0  0  0  0
    2.8660   -1.9890    0.0000 C   0  0  0  0  0  0  0  0  0  0  0  0
    3.7320   -1.4890    0.0000 C   0  0  0  0  0  0  0  0  0  0  0  0
    2.0000   -1.4890    0.0000 C   0  0  0  0  0  0  0  0  0  0  0  0
    3.7320   -3.4890    0.0000 C   0  0  0  0  0  0  0  0  0  0  0  0
    2.8660   -2.9890    0.0000 C   0  0  0  0  0  0  0  0  0  0  0  0
    5.1350    0.7010    0.0000 H   0  0  0  0  0  0  0  0  0  0  0  0
    3.1951    1.8210    0.0000 H   0  0  0  0  0  0  0  0  0  0  0  0
    6.3441    2.3770    0.0000 H   0  0  0  0  0  0  0  0  0  0  0  0
    8.5841    2.3770    0.0000 H   0  0  0  0  0  0  0  0  0  0  0  0
    4.2690    2.2010    0.0000 H   0  0  0  0  0  0  0  0  0  0  0  0
    5.4641    2.1310    0.0000 H   0  0  0  0  0  0  0  0  0  0  0  0
    8.5718    3.8536    0.0000 H   0  0  0  0  0  0  0  0  0  0  0  0
    7.8815    3.4551    0.0000 H   0  0  0  0  0  0  0  0  0  0  0  0
    6.0010   -1.1790    0.0000 H   0  0  0  0  0  0  0  0  0  0  0  0
    7.9272    1.2010    0.0000 H   0  0  0  0  0  0  0  0  0  0  0  0
    8.7741    0.9740    0.0000 H   0  0  0  0  0  0  0  0  0  0  0  0
    9.0010    1.8210    0.0000 H   0  0  0  0  0  0  0  0  0  0  0  0
    5.9316   -2.4640    0.0000 H   0  0  0  0  0  0  0  0  0  0  0  0
    6.7287   -2.4640    0.0000 H   0  0  0  0  0  0  0  0  0  0  0  0
    3.1760    3.5479    0.0000 H   0  0  0  0  0  0  0  0  0  0  0  0
    2.3291    3.3210    0.0000 H   0  0  0  0  0  0  0  0  0  0  0  0
    2.5560    2.4740    0.0000 H   0  0  0  0  0  0  0  0  0  0  0  0
    4.9081    2.4740    0.0000 H   0  0  0  0  0  0  0  0  0  0  0  0
    5.1350    3.3210    0.0000 H   0  0  0  0  0  0  0  0  0  0  0  0
    4.2881    3.5479    0.0000 H   0  0  0  0  0  0  0  0  0  0  0  0
    6.0010   -0.1790    0.0000 H   0  0  0  0  0  0  0  0  0  0  0  0
    6.6592   -1.1790    0.0000 H   0  0  0  0  0  0  0  0  0  0  0  0
    9.4641    2.6230    0.0000 H   0  0  0  0  0  0  0  0  0  0  0  0
   10.0841    3.2430    0.0000 H   0  0  0  0  0  0  0  0  0  0  0  0
    9.4641    3.8630    0.0000 H   0  0  0  0  0  0  0  0  0  0  0  0
    7.5010    3.7990    0.0000 H   0  0  0  0  0  0  0  0  0  0  0  0
    7.2741    4.6460    0.0000 H   0  0  0  0  0  0  0  0  0  0  0  0
    6.4272    4.4190    0.0000 H   0  0  0  0  0  0  0  0  0  0  0  0
    5.4641    3.8630    0.0000 H   0  0  0  0  0  0  0  0  0  0  0  0
    4.8441    3.2430    0.0000 H   0  0  0  0  0  0  0  0  0  0  0  0
    5.4641    2.6230    0.0000 H   0  0  0  0  0  0  0  0  0  0  0  0
    7.7522   -2.5260    0.0000 H   0  0  0  0  0  0  0  0  0  0  0  0
    8.5991   -2.2990    0.0000 H   0  0  0  0  0  0  0  0  0  0  0  0
    8.3722   -1.4521    0.0000 H   0  0  0  0  0  0  0  0  0  0  0  0
    7.8162   -0.4890    0.0000 H   0  0  0  0  0  0  0  0  0  0  0  0
    7.1962    0.1310    0.0000 H   0  0  0  0  0  0  0  0  0  0  0  0
    6.5762   -0.4890    0.0000 H   0  0  0  0  0  0  0  0  0  0  0  0
    5.1350   -3.2990    0.0000 H   0  0  0  0  0  0  0  0  0  0  0  0
    4.2690   -0.1790    0.0000 H   0  0  0  0  0  0  0  0  0  0  0  0
    1.4631   -0.1790    0.0000 H   0  0  0  0  0  0  0  0  0  0  0  0
    4.2690   -1.7990    0.0000 H   0  0  0  0  0  0  0  0  0  0  0  0
    1.4631   -1.7990    0.0000 H   0  0  0  0  0  0  0  0  0  0  0  0
    3.7320   -4.1090    0.0000 H   0  0  0  0  0  0  0  0  0  0  0  0
    2.3291   -3.2990    0.0000 H   0  0  0  0  0  0  0  0  0  0  0  0
  1 10  1  0  0  0  0
  1 27  1  0  0  0  0
  2 14  2  0  0  0  0
  3 16  2  0  0  0  0
  4 26  2  0  0  0  0
  9  5  1  6  0  0  0
  5 14  1  0  0  0  0
  5 42  1  0  0  0  0
 11  6  1  1  0  0  0
  6 24  1  0  0  0  0
  6 25  1  0  0  0  0
  7 16  1  0  0  0  0
  7 17  1  0  0  0  0
  7 57  1  0  0  0  0
  8 26  1  0  0  0  0
  8 35  1  0  0  0  0
  8 74  1  0  0  0  0
  9 10  1  0  0  0  0
  9 16  1  0  0  0  0
  9 37  1  0  0  0  0
 10 13  1  1  0  0  0
 10 38  1  0  0  0  0
 11 12  1  0  0  0  0
 11 14  1  0  0  0  0
 11 39  1  0  0  0  0
 12 15  1  0  0  0  0
 12 18  1  6  0  0  0
 12 40  1  0  0  0  0
 13 20  1  0  0  0  0
 13 21  1  0  0  0  0
 13 41  1  0  0  0  0
 15 23  1  0  0  0  0
 15 43  1  0  0  0  0
 15 44  1  0  0  0  0
 17 19  1  1  0  0  0
 17 26  1  0  0  0  0
 17 45  1  0  0  0  0
 18 46  1  0  0  0  0
 18 47  1  0  0  0  0
 18 48  1  0  0  0  0
 19 22  1  0  0  0  0
 19 49  1  0  0  0  0
 19 50  1  0  0  0  0
 20 51  1  0  0  0  0
 20 52  1  0  0  0  0
 20 53  1  0  0  0  0
 21 54  1  0  0  0  0
 21 55  1  0  0  0  0
 21 56  1  0  0  0  0
 22 28  1  0  0  0  0
 22 29  1  0  0  0  0
 22 58  1  0  0  0  0
 23 59  1  0  0  0  0
 23 60  1  0  0  0  0
 23 61  1  0  0  0  0
 24 62  1  0  0  0  0
 24 63  1  0  0  0  0
 24 64  1  0  0  0  0
 25 65  1  0  0  0  0
 25 66  1  0  0  0  0
 25 67  1  0  0  0  0
 27 30  2  0  0  0  0
 27 31  1  0  0  0  0
 28 68  1  0  0  0  0
 28 69  1  0  0  0  0
 28 70  1  0  0  0  0
 29 71  1  0  0  0  0
 29 72  1  0  0  0  0
 29 73  1  0  0  0  0
 30 33  1  0  0  0  0
 30 75  1  0  0  0  0
 31 34  2  0  0  0  0
 31 76  1  0  0  0  0
 32 33  2  0  0  0  0
 32 34  1  0  0  0  0
 32 36  1  0  0  0  0
 33 77  1  0  0  0  0
 34 78  1  0  0  0  0
 35 36  2  0  0  0  0
 35 79  1  0  0  0  0
 36 80  1  0  0  0  0
M  END
> <PUBCHEM_COMPOUND_CID>
5281587

> <PUBCHEM_COMPOUND_CANONICALIZED>
1

> <PUBCHEM_CACTVS_COMPLEXITY>
759

> <PUBCHEM_CACTVS_HBOND_ACCEPTOR>
5

> <PUBCHEM_CACTVS_HBOND_DONOR>
3

> <PUBCHEM_CACTVS_ROTATABLE_BOND>
8

> <PUBCHEM_CACTVS_SUBSKEYS>
AAADcfB7uAAAAAAAAAAAAAAAAAAAAAAAAAAwAAAAAAAAAAABAAAAHgAQAAAADTzhmAYyBoPABACIAiFWUAACCAAgIgAIiIGOCIgOZjaEsTqXOCCm9hGYqAeYwAAOIAAAAAAAAABAAAAAAAAAAAAAAAAAAA==

> <PUBCHEM_IUPAC_OPENEYE_NAME>
(2S,3S)-2-(dimethylamino)-N-[(2Z,6S,9S,10S)-6-isobutyl-10-isopropyl-5,8-dioxo-11-oxa-4,7-diazabicyclo[10.2.2]hexadeca-1(14),2,12,15-tetraen-9-yl]-3-methyl-pentanamide

> <PUBCHEM_IUPAC_CAS_NAME>
(2S,3S)-2-(dimethylamino)-3-methyl-N-[(2Z,6S,9S,10S)-6-(2-methylpropyl)-5,8-dioxo-10-propan-2-yl-11-oxa-4,7-diazabicyclo[10.2.2]hexadeca-1(14),2,12,15-tetraen-9-yl]pentanamide

> <PUBCHEM_IUPAC_NAME>
(2S,3S)-2-(dimethylamino)-3-methyl-N-[(2Z,6S,9S,10S)-6-(2-methylpropyl)-5,8-dioxo-10-propan-2-yl-11-oxa-4,7-diazabicyclo[10.2.2]hexadeca-1(14),2,12,15-tetraen-9-yl]pentanamide

> <PUBCHEM_IUPAC_SYSTEMATIC_NAME>
(2S,3S)-2-(dimethylamino)-3-methyl-N-[(2Z,6S,9S,10S)-6-(2-methylpropyl)-5,8-bis(oxidanylidene)-10-propan-2-yl-11-oxa-4,7-diazabicyclo[10.2.2]hexadeca-1(14),2,12,15-tetraen-9-yl]pentanamide

> <PUBCHEM_IUPAC_TRADITIONAL_NAME>
(2S,3S)-2-(dimethylamino)-N-[(2Z,6S,9S,10S)-6-isobutyl-10-isopropyl-5,8-diketo-11-oxa-4,7-diazabicyclo[10.2.2]hexadeca-1(14),2,12,15-tetraen-9-yl]-3-methyl-valeramide

> <PUBCHEM_IUPAC_INCHI>
InChI=1S/C28H44N4O4/c1-9-19(6)24(32(7)8)28(35)31-23-25(18(4)5)36-21-12-10-20(11-13-21)14-15-29-26(33)22(16-17(2)3)30-27(23)34/h10-15,17-19,22-25H,9,16H2,1-8H3,(H,29,33)(H,30,34)(H,31,35)/b15-14-/t19-,22-,23-,24-,25-/m0/s1

> <PUBCHEM_IUPAC_INCHIKEY>
ULQXKOIGVXLOOC-RJJCKBEYSA-N

> <PUBCHEM_XLOGP3_AA>
5

> <PUBCHEM_EXACT_MASS>
500.336256

> <PUBCHEM_MOLECULAR_FORMULA>
C28H44N4O4

> <PUBCHEM_MOLECULAR_WEIGHT>
500.67336

> <PUBCHEM_OPENEYE_CAN_SMILES>
CCC(C)C(C(=O)NC1C(OC2=CC=C(C=C2)C=CNC(=O)C(NC1=O)CC(C)C)C(C)C)N(C)C

> <PUBCHEM_OPENEYE_ISO_SMILES>
CC[C@H](C)[C@@H](C(=O)N[C@H]1[C@@H](OC2=CC=C(C=C2)/C=C\NC(=O)[C@@H](NC1=O)CC(C)C)C(C)C)N(C)C

> <PUBCHEM_CACTVS_TPSA>
99.8

> <PUBCHEM_MONOISOTOPIC_WEIGHT>
500.336256

> <PUBCHEM_TOTAL_CHARGE>
0

> <PUBCHEM_HEAVY_ATOM_COUNT>
36

> <PUBCHEM_ATOM_DEF_STEREO_COUNT>
5

> <PUBCHEM_ATOM_UDEF_STEREO_COUNT>
0

> <PUBCHEM_BOND_DEF_STEREO_COUNT>
1

> <PUBCHEM_BOND_UDEF_STEREO_COUNT>
0

> <PUBCHEM_ISOTOPIC_ATOM_COUNT>
0

> <PUBCHEM_COMPONENT_COUNT>
1

> <PUBCHEM_CACTVS_TAUTO_COUNT>
18

> <PUBCHEM_COORDINATE_TYPE>
1
5
255

> <PUBCHEM_BONDANNOTATIONS>
10  13  5
12  18  6
17  19  5
27  30  8
27  31  8
30  33  8
31  34  8
32  33  8
32  34  8
9  5  6
11  6  5

$$$$

