10457051
  -OEChem-07051213092D

 66 68  0     1  0  0  0  0  0999 V2000
    7.7573    2.2961    0.0000 O   0  0  0  0  0  0  0  0  0  0  0  0
    4.2690    1.4050    0.0000 O   0  0  0  0  0  0  0  0  0  0  0  0
    8.5309    0.9050    0.0000 O   0  0  0  0  0  0  0  0  0  0  0  0
    5.1350    2.9050    0.0000 O   0  0  0  0  0  0  0  0  0  0  0  0
    4.2690   -1.5950    0.0000 O   0  0  0  0  0  0  0  0  0  0  0  0
    5.1350   -3.0950    0.0000 O   0  0  0  0  0  0  0  0  0  0  0  0
    2.5369   -2.5950    0.0000 O   0  0  0  0  0  0  0  0  0  0  0  0
    2.5369   -4.5950    0.0000 O   0  0  0  0  0  0  0  0  0  0  0  0
    4.2690   -5.5950    0.0000 O   0  0  0  0  0  0  0  0  0  0  0  0
    3.4030    2.9050    0.0000 O   0  0  0  0  0  0  0  0  0  0  0  0
    6.0010   -5.5950    0.0000 O   0  0  0  0  0  0  0  0  0  0  0  0
    6.0010    1.4050    0.0000 C   0  0  1  0  0  0  0  0  0  0  0  0
    6.0010    0.4050    0.0000 C   0  0  2  0  0  0  0  0  0  0  0  0
    6.9473    1.7097    0.0000 C   0  0  1  0  0  0  0  0  0  0  0  0
    7.5309    0.9050    0.0000 C   0  0  2  0  0  0  0  0  0  0  0  0
    6.9473    0.1003    0.0000 C   0  0  0  0  0  0  0  0  0  0  0  0
    5.1350    1.9050    0.0000 C   0  0  1  0  0  0  0  0  0  0  0  0
    5.1350   -0.0950    0.0000 C   0  0  0  0  0  0  0  0  0  0  0  0
    6.6399    2.6613    0.0000 C   0  0  0  0  0  0  0  0  0  0  0  0
    4.2690    0.4050    0.0000 C   0  0  0  0  0  0  0  0  0  0  0  0
    5.1350   -1.0950    0.0000 C   0  0  0  0  0  0  0  0  0  0  0  0
    4.2690   -2.5950    0.0000 C   0  0  2  0  0  0  0  0  0  0  0  0
    3.4030   -3.0950    0.0000 C   0  0  1  0  0  0  0  0  0  0  0  0
    3.4030   -4.0950    0.0000 C   0  0  2  0  0  0  0  0  0  0  0  0
    4.2690    3.4050    0.0000 C   0  0  0  0  0  0  0  0  0  0  0  0
    4.2690   -4.5950    0.0000 C   0  0  1  0  0  0  0  0  0  0  0  0
    5.1350   -4.0950    0.0000 C   0  0  1  0  0  0  0  0  0  0  0  0
    4.2690    4.4050    0.0000 C   0  0  0  0  0  0  0  0  0  0  0  0
    6.0010   -4.5950    0.0000 C   0  0  0  0  0  0  0  0  0  0  0  0
    3.4030    4.9050    0.0000 C   0  0  0  0  0  0  0  0  0  0  0  0
    3.4030    5.9050    0.0000 C   0  0  0  0  0  0  0  0  0  0  0  0
    2.5369    4.4050    0.0000 C   0  0  0  0  0  0  0  0  0  0  0  0
    6.0910    2.2502    0.0000 H   0  0  0  0  0  0  0  0  0  0  0  0
    6.0910   -0.4402    0.0000 H   0  0  0  0  0  0  0  0  0  0  0  0
    7.8126    0.3527    0.0000 H   0  0  0  0  0  0  0  0  0  0  0  0
    6.6962   -0.4666    0.0000 H   0  0  0  0  0  0  0  0  0  0  0  0
    7.4846   -0.2090    0.0000 H   0  0  0  0  0  0  0  0  0  0  0  0
    5.6720    2.2150    0.0000 H   0  0  0  0  0  0  0  0  0  0  0  0
    7.2299    2.8519    0.0000 H   0  0  0  0  0  0  0  0  0  0  0  0
    6.4493    3.2513    0.0000 H   0  0  0  0  0  0  0  0  0  0  0  0
    6.0499    2.4707    0.0000 H   0  0  0  0  0  0  0  0  0  0  0  0
    7.6936    2.9128    0.0000 H   0  0  0  0  0  0  0  0  0  0  0  0
    3.7320    0.0950    0.0000 H   0  0  0  0  0  0  0  0  0  0  0  0
    5.3471   -1.6776    0.0000 H   0  0  0  0  0  0  0  0  0  0  0  0
    5.7456   -0.9873    0.0000 H   0  0  0  0  0  0  0  0  0  0  0  0
    8.8409    0.3681    0.0000 H   0  0  0  0  0  0  0  0  0  0  0  0
    3.7320   -2.2850    0.0000 H   0  0  0  0  0  0  0  0  0  0  0  0
    3.4030   -2.4750    0.0000 H   0  0  0  0  0  0  0  0  0  0  0  0
    3.4030   -4.7150    0.0000 H   0  0  0  0  0  0  0  0  0  0  0  0
    4.8059   -4.9050    0.0000 H   0  0  0  0  0  0  0  0  0  0  0  0
    5.6720   -3.7850    0.0000 H   0  0  0  0  0  0  0  0  0  0  0  0
    4.8796    4.2973    0.0000 H   0  0  0  0  0  0  0  0  0  0  0  0
    4.4810    4.9876    0.0000 H   0  0  0  0  0  0  0  0  0  0  0  0
    6.6116   -4.7027    0.0000 H   0  0  0  0  0  0  0  0  0  0  0  0
    6.2131   -4.0124    0.0000 H   0  0  0  0  0  0  0  0  0  0  0  0
    3.4030    4.2850    0.0000 H   0  0  0  0  0  0  0  0  0  0  0  0
    2.0000   -2.9050    0.0000 H   0  0  0  0  0  0  0  0  0  0  0  0
    2.5369   -5.2150    0.0000 H   0  0  0  0  0  0  0  0  0  0  0  0
    3.7320   -5.9050    0.0000 H   0  0  0  0  0  0  0  0  0  0  0  0
    4.0230    5.9050    0.0000 H   0  0  0  0  0  0  0  0  0  0  0  0
    3.4030    6.5250    0.0000 H   0  0  0  0  0  0  0  0  0  0  0  0
    2.2269    4.9419    0.0000 H   0  0  0  0  0  0  0  0  0  0  0  0
    2.7830    5.9050    0.0000 H   0  0  0  0  0  0  0  0  0  0  0  0
    2.0000    4.0950    0.0000 H   0  0  0  0  0  0  0  0  0  0  0  0
    2.8469    3.8681    0.0000 H   0  0  0  0  0  0  0  0  0  0  0  0
    6.5380   -5.9050    0.0000 H   0  0  0  0  0  0  0  0  0  0  0  0
 14  1  1  6  0  0  0
  1 42  1  0  0  0  0
  2 17  1  0  0  0  0
  2 20  1  0  0  0  0
 15  3  1  1  0  0  0
  3 46  1  0  0  0  0
 17  4  1  1  0  0  0
  4 25  1  0  0  0  0
  5 21  1  0  0  0  0
 22  5  1  6  0  0  0
  6 22  1  0  0  0  0
  6 27  1  0  0  0  0
 23  7  1  1  0  0  0
  7 57  1  0  0  0  0
 24  8  1  6  0  0  0
  8 58  1  0  0  0  0
 26  9  1  1  0  0  0
  9 59  1  0  0  0  0
 10 25  2  0  0  0  0
 11 29  1  0  0  0  0
 11 66  1  0  0  0  0
 12 13  1  0  0  0  0
 12 14  1  0  0  0  0
 12 17  1  0  0  0  0
 12 33  1  1  0  0  0
 13 16  1  0  0  0  0
 13 18  1  0  0  0  0
 13 34  1  1  0  0  0
 14 15  1  0  0  0  0
 14 19  1  0  0  0  0
 15 16  1  0  0  0  0
 15 35  1  0  0  0  0
 16 36  1  0  0  0  0
 16 37  1  0  0  0  0
 17 38  1  0  0  0  0
 18 20  2  0  0  0  0
 18 21  1  0  0  0  0
 19 39  1  0  0  0  0
 19 40  1  0  0  0  0
 19 41  1  0  0  0  0
 20 43  1  0  0  0  0
 21 44  1  0  0  0  0
 21 45  1  0  0  0  0
 22 23  1  0  0  0  0
 22 47  1  0  0  0  0
 23 24  1  0  0  0  0
 23 48  1  0  0  0  0
 24 26  1  0  0  0  0
 24 49  1  0  0  0  0
 25 28  1  0  0  0  0
 26 27  1  0  0  0  0
 26 50  1  0  0  0  0
 27 29  1  6  0  0  0
 27 51  1  0  0  0  0
 28 30  1  0  0  0  0
 28 52  1  0  0  0  0
 28 53  1  0  0  0  0
 29 54  1  0  0  0  0
 29 55  1  0  0  0  0
 30 31  1  0  0  0  0
 30 32  1  0  0  0  0
 30 56  1  0  0  0  0
 31 60  1  0  0  0  0
 31 61  1  0  0  0  0
 31 63  1  0  0  0  0
 32 62  1  0  0  0  0
 32 64  1  0  0  0  0
 32 65  1  0  0  0  0
M  END
> <PUBCHEM_COMPOUND_CID>
10457051

> <PUBCHEM_COMPOUND_CANONICALIZED>
1

> <PUBCHEM_CACTVS_COMPLEXITY>
697

> <PUBCHEM_CACTVS_HBOND_ACCEPTOR>
11

> <PUBCHEM_CACTVS_HBOND_DONOR>
6

> <PUBCHEM_CACTVS_ROTATABLE_BOND>
8

> <PUBCHEM_CACTVS_SUBSKEYS>
AAADcfB4PAAAAAAAAAAAAAAAAAAAAYAAAAAkQAAAAAAAAEAAAAAAGgAACAAADVSwgAMCCAAABgCIAgDSCAAACAAgIAAAAAEAAAgRFBIAIQAiQAAFgAAHIAHA4PwOgAAAAAAAAAAAAAAAAAAAAYAADCAAAA==

> <PUBCHEM_IUPAC_OPENEYE_NAME>
[(1S,4aS,6S,7S,7aS)-6,7-dihydroxy-7-methyl-4-[[(2R,3R,4S,5S,6R)-3,4,5-trihydroxy-6-(hydroxymethyl)tetrahydropyran-2-yl]oxymethyl]-4a,5,6,7a-tetrahydro-1H-cyclopenta[c]pyran-1-yl] 3-methylbutanoate

> <PUBCHEM_IUPAC_CAS_NAME>
3-methylbutanoic acid [(1S,4aS,6S,7S,7aS)-6,7-dihydroxy-7-methyl-4-[[(2R,3R,4S,5S,6R)-3,4,5-trihydroxy-6-(hydroxymethyl)-2-oxanyl]oxymethyl]-4a,5,6,7a-tetrahydro-1H-cyclopenta[c]pyran-1-yl] ester

> <PUBCHEM_IUPAC_NAME>
[(1S,4aS,6S,7S,7aS)-6,7-dihydroxy-7-methyl-4-[[(2R,3R,4S,5S,6R)-3,4,5-trihydroxy-6-(hydroxymethyl)oxan-2-yl]oxymethyl]-4a,5,6,7a-tetrahydro-1H-cyclopenta[c]pyran-1-yl] 3-methylbutanoate

> <PUBCHEM_IUPAC_SYSTEMATIC_NAME>
[(1S,4aS,6S,7S,7aS)-4-[[(2R,3R,4S,5S,6R)-6-(hydroxymethyl)-3,4,5-tris(oxidanyl)oxan-2-yl]oxymethyl]-7-methyl-6,7-bis(oxidanyl)-4a,5,6,7a-tetrahydro-1H-cyclopenta[c]pyran-1-yl] 3-methylbutanoate

> <PUBCHEM_IUPAC_TRADITIONAL_NAME>
3-methylbutyric acid [(1S,4aS,6S,7S,7aS)-6,7-dihydroxy-7-methyl-4-[[(2R,3R,4S,5S,6R)-3,4,5-trihydroxy-6-methylol-tetrahydropyran-2-yl]oxymethyl]-4a,5,6,7a-tetrahydro-1H-cyclopenta[c]pyran-1-yl] ester

> <PUBCHEM_IUPAC_INCHI>
InChI=1S/C21H34O11/c1-9(2)4-14(24)32-19-15-11(5-13(23)21(15,3)28)10(7-29-19)8-30-20-18(27)17(26)16(25)12(6-22)31-20/h7,9,11-13,15-20,22-23,25-28H,4-6,8H2,1-3H3/t11-,12-,13+,15-,16-,17+,18-,19+,20-,21-/m1/s1

> <PUBCHEM_IUPAC_INCHIKEY>
LANCLZFYVLANQS-RHMPUOGUSA-N

> <PUBCHEM_XLOGP3_AA>
-1.7

> <PUBCHEM_EXACT_MASS>
462.210112

> <PUBCHEM_MOLECULAR_FORMULA>
C21H34O11

> <PUBCHEM_MOLECULAR_WEIGHT>
462.48806

> <PUBCHEM_OPENEYE_CAN_SMILES>
CC(C)CC(=O)OC1C2C(CC(C2(C)O)O)C(=CO1)COC3C(C(C(C(O3)CO)O)O)O

> <PUBCHEM_OPENEYE_ISO_SMILES>
CC(C)CC(=O)O[C@H]1[C@H]2[C@H](C[C@@H]([C@@]2(C)O)O)C(=CO1)CO[C@H]3[C@@H]([C@H]([C@@H]([C@H](O3)CO)O)O)O

> <PUBCHEM_CACTVS_TPSA>
175

> <PUBCHEM_MONOISOTOPIC_WEIGHT>
462.210112

> <PUBCHEM_TOTAL_CHARGE>
0

> <PUBCHEM_HEAVY_ATOM_COUNT>
32

> <PUBCHEM_ATOM_DEF_STEREO_COUNT>
10

> <PUBCHEM_ATOM_UDEF_STEREO_COUNT>
0

> <PUBCHEM_BOND_DEF_STEREO_COUNT>
0

> <PUBCHEM_BOND_UDEF_STEREO_COUNT>
0

> <PUBCHEM_ISOTOPIC_ATOM_COUNT>
0

> <PUBCHEM_COMPONENT_COUNT>
1

> <PUBCHEM_CACTVS_TAUTO_COUNT>
1

> <PUBCHEM_COORDINATE_TYPE>
1
5
255

> <PUBCHEM_BONDANNOTATIONS>
14  1  6
12  33  5
13  34  5
27  29  6
15  3  5
17  4  5
22  5  6
23  7  5
24  8  6
26  9  5

$$$$

