5265
  -OEChem-06261200362D

 55 58  0     1  0  0  0  0  0999 V2000
    2.0000   -2.2641    0.0000 F   0  0  0  0  0  0  0  0  0  0  0  0
   11.2788   -2.2921    0.0000 O   0  0  0  0  0  0  0  0  0  0  0  0
    6.5000   -3.1301    0.0000 O   0  0  0  0  0  0  0  0  0  0  0  0
   11.5878    0.2770    0.0000 N   0  0  3  0  0  0  0  0  0  0  0  0
    9.0000   -0.5321    0.0000 N   0  0  0  0  0  0  0  0  0  0  0  0
   12.5388   -1.0321    0.0000 N   0  0  0  0  0  0  0  0  0  0  0  0
   11.0000   -0.5321    0.0000 C   0  0  0  0  0  0  0  0  0  0  0  0
   10.5000    0.3340    0.0000 C   0  0  0  0  0  0  0  0  0  0  0  0
   10.5000   -1.3981    0.0000 C   0  0  0  0  0  0  0  0  0  0  0  0
    9.5000    0.3340    0.0000 C   0  0  0  0  0  0  0  0  0  0  0  0
    9.5000   -1.3981    0.0000 C   0  0  0  0  0  0  0  0  0  0  0  0
   11.5878   -1.3411    0.0000 C   0  0  0  0  0  0  0  0  0  0  0  0
   12.5388   -0.0321    0.0000 C   0  0  0  0  0  0  0  0  0  0  0  0
    8.0000   -0.5321    0.0000 C   0  0  0  0  0  0  0  0  0  0  0  0
   11.2788    1.2280    0.0000 C   0  0  0  0  0  0  0  0  0  0  0  0
    7.5000   -1.3981    0.0000 C   0  0  0  0  0  0  0  0  0  0  0  0
   11.9479    1.9712    0.0000 C   0  0  0  0  0  0  0  0  0  0  0  0
   10.3006    1.4359    0.0000 C   0  0  0  0  0  0  0  0  0  0  0  0
    6.5000   -1.3981    0.0000 C   0  0  0  0  0  0  0  0  0  0  0  0
   11.6389    2.9222    0.0000 C   0  0  0  0  0  0  0  0  0  0  0  0
    9.9916    2.3870    0.0000 C   0  0  0  0  0  0  0  0  0  0  0  0
    6.0000   -2.2641    0.0000 C   0  0  0  0  0  0  0  0  0  0  0  0
   10.6607    3.1301    0.0000 C   0  0  0  0  0  0  0  0  0  0  0  0
    5.0000   -2.2641    0.0000 C   0  0  0  0  0  0  0  0  0  0  0  0
    4.5000   -1.3981    0.0000 C   0  0  0  0  0  0  0  0  0  0  0  0
    4.5000   -3.1301    0.0000 C   0  0  0  0  0  0  0  0  0  0  0  0
    3.5000   -1.3981    0.0000 C   0  0  0  0  0  0  0  0  0  0  0  0
    3.5000   -3.1301    0.0000 C   0  0  0  0  0  0  0  0  0  0  0  0
    3.0000   -2.2641    0.0000 C   0  0  0  0  0  0  0  0  0  0  0  0
   11.0826    0.5460    0.0000 H   0  0  0  0  0  0  0  0  0  0  0  0
   10.3923    0.9446    0.0000 H   0  0  0  0  0  0  0  0  0  0  0  0
   10.3923   -2.0087    0.0000 H   0  0  0  0  0  0  0  0  0  0  0  0
   11.0826   -1.6101    0.0000 H   0  0  0  0  0  0  0  0  0  0  0  0
    9.6077    0.9446    0.0000 H   0  0  0  0  0  0  0  0  0  0  0  0
    8.9174    0.5460    0.0000 H   0  0  0  0  0  0  0  0  0  0  0  0
    8.9174   -1.6101    0.0000 H   0  0  0  0  0  0  0  0  0  0  0  0
    9.6077   -2.0087    0.0000 H   0  0  0  0  0  0  0  0  0  0  0  0
   13.1554   -0.0969    0.0000 H   0  0  0  0  0  0  0  0  0  0  0  0
   12.6677    0.5744    0.0000 H   0  0  0  0  0  0  0  0  0  0  0  0
   13.0404   -1.3965    0.0000 H   0  0  0  0  0  0  0  0  0  0  0  0
    8.1077    0.0785    0.0000 H   0  0  0  0  0  0  0  0  0  0  0  0
    7.4174   -0.3200    0.0000 H   0  0  0  0  0  0  0  0  0  0  0  0
    7.3923   -2.0087    0.0000 H   0  0  0  0  0  0  0  0  0  0  0  0
    8.0826   -1.6101    0.0000 H   0  0  0  0  0  0  0  0  0  0  0  0
   12.5544    1.8423    0.0000 H   0  0  0  0  0  0  0  0  0  0  0  0
    9.8858    0.9752    0.0000 H   0  0  0  0  0  0  0  0  0  0  0  0
    6.6077   -0.7875    0.0000 H   0  0  0  0  0  0  0  0  0  0  0  0
    5.9174   -1.1860    0.0000 H   0  0  0  0  0  0  0  0  0  0  0  0
   12.0537    3.3830    0.0000 H   0  0  0  0  0  0  0  0  0  0  0  0
    9.3852    2.5159    0.0000 H   0  0  0  0  0  0  0  0  0  0  0  0
   10.4691    3.7198    0.0000 H   0  0  0  0  0  0  0  0  0  0  0  0
    4.8100   -0.8611    0.0000 H   0  0  0  0  0  0  0  0  0  0  0  0
    4.8100   -3.6671    0.0000 H   0  0  0  0  0  0  0  0  0  0  0  0
    3.1900   -0.8611    0.0000 H   0  0  0  0  0  0  0  0  0  0  0  0
    3.1900   -3.6671    0.0000 H   0  0  0  0  0  0  0  0  0  0  0  0
  1 29  1  0  0  0  0
  2 12  2  0  0  0  0
  3 22  2  0  0  0  0
  4  7  1  0  0  0  0
  4 13  1  0  0  0  0
  4 15  1  0  0  0  0
  5 10  1  0  0  0  0
  5 11  1  0  0  0  0
  5 14  1  0  0  0  0
  6 12  1  0  0  0  0
  6 13  1  0  0  0  0
  6 40  1  0  0  0  0
  7  8  1  0  0  0  0
  7  9  1  0  0  0  0
  7 12  1  0  0  0  0
  8 10  1  0  0  0  0
  8 30  1  0  0  0  0
  8 31  1  0  0  0  0
  9 11  1  0  0  0  0
  9 32  1  0  0  0  0
  9 33  1  0  0  0  0
 10 34  1  0  0  0  0
 10 35  1  0  0  0  0
 11 36  1  0  0  0  0
 11 37  1  0  0  0  0
 13 38  1  0  0  0  0
 13 39  1  0  0  0  0
 14 16  1  0  0  0  0
 14 41  1  0  0  0  0
 14 42  1  0  0  0  0
 15 17  2  0  0  0  0
 15 18  1  0  0  0  0
 16 19  1  0  0  0  0
 16 43  1  0  0  0  0
 16 44  1  0  0  0  0
 17 20  1  0  0  0  0
 17 45  1  0  0  0  0
 18 21  2  0  0  0  0
 18 46  1  0  0  0  0
 19 22  1  0  0  0  0
 19 47  1  0  0  0  0
 19 48  1  0  0  0  0
 20 23  2  0  0  0  0
 20 49  1  0  0  0  0
 21 23  1  0  0  0  0
 21 50  1  0  0  0  0
 22 24  1  0  0  0  0
 23 51  1  0  0  0  0
 24 25  2  0  0  0  0
 24 26  1  0  0  0  0
 25 27  1  0  0  0  0
 25 52  1  0  0  0  0
 26 28  2  0  0  0  0
 26 53  1  0  0  0  0
 27 29  2  0  0  0  0
 27 54  1  0  0  0  0
 28 29  1  0  0  0  0
 28 55  1  0  0  0  0
M  END
> <PUBCHEM_COMPOUND_CID>
5265

> <PUBCHEM_COMPOUND_CANONICALIZED>
1

> <PUBCHEM_CACTVS_COMPLEXITY>
577

> <PUBCHEM_CACTVS_HBOND_ACCEPTOR>
5

> <PUBCHEM_CACTVS_HBOND_DONOR>
1

> <PUBCHEM_CACTVS_ROTATABLE_BOND>
6

> <PUBCHEM_CACTVS_SUBSKEYS>
AAADceB7MQAAAAAAAAAAAAAAAAAAAWAAAAA8YIAAAAAAAAABQAAAHwAQAAAADIzBmAwxwIPAAACIAqVSUACCAAAlAgAIiIGIZMiIYDLA1bGUIQhogwLIyacciICOAAAAAAAAAAAAAAAAAAAAAAAAAAAAAA==

> <PUBCHEM_IUPAC_OPENEYE_NAME>
8-[4-(4-fluorophenyl)-4-oxo-butyl]-1-phenyl-1,3,8-triazaspiro[4.5]decan-4-one

> <PUBCHEM_IUPAC_CAS_NAME>
8-[4-(4-fluorophenyl)-4-oxobutyl]-1-phenyl-1,3,8-triazaspiro[4.5]decan-4-one

> <PUBCHEM_IUPAC_NAME>
8-[4-(4-fluorophenyl)-4-oxobutyl]-1-phenyl-1,3,8-triazaspiro[4.5]decan-4-one

> <PUBCHEM_IUPAC_SYSTEMATIC_NAME>
8-[4-(4-fluorophenyl)-4-oxidanylidene-butyl]-1-phenyl-1,3,8-triazaspiro[4.5]decan-4-one

> <PUBCHEM_IUPAC_TRADITIONAL_NAME>
8-[4-(4-fluorophenyl)-4-keto-butyl]-1-phenyl-1,3,8-triazaspiro[4.5]decan-4-one

> <PUBCHEM_IUPAC_INCHI>
InChI=1S/C23H26FN3O2/c24-19-10-8-18(9-11-19)21(28)7-4-14-26-15-12-23(13-16-26)22(29)25-17-27(23)20-5-2-1-3-6-20/h1-3,5-6,8-11H,4,7,12-17H2,(H,25,29)

> <PUBCHEM_IUPAC_INCHIKEY>
DKGZKTPJOSAWFA-UHFFFAOYSA-N

> <PUBCHEM_XLOGP3>
3

> <PUBCHEM_EXACT_MASS>
395.200905

> <PUBCHEM_MOLECULAR_FORMULA>
C23H26FN3O2

> <PUBCHEM_MOLECULAR_WEIGHT>
395.469843

> <PUBCHEM_OPENEYE_CAN_SMILES>
C1CN(CCC12C(=O)NCN2C3=CC=CC=C3)CCCC(=O)C4=CC=C(C=C4)F

> <PUBCHEM_OPENEYE_ISO_SMILES>
C1CN(CCC12C(=O)NCN2C3=CC=CC=C3)CCCC(=O)C4=CC=C(C=C4)F

> <PUBCHEM_CACTVS_TPSA>
52.6

> <PUBCHEM_MONOISOTOPIC_WEIGHT>
395.200905

> <PUBCHEM_TOTAL_CHARGE>
0

> <PUBCHEM_HEAVY_ATOM_COUNT>
29

> <PUBCHEM_ATOM_DEF_STEREO_COUNT>
0

> <PUBCHEM_ATOM_UDEF_STEREO_COUNT>
0

> <PUBCHEM_BOND_DEF_STEREO_COUNT>
0

> <PUBCHEM_BOND_UDEF_STEREO_COUNT>
0

> <PUBCHEM_ISOTOPIC_ATOM_COUNT>
0

> <PUBCHEM_COMPONENT_COUNT>
1

> <PUBCHEM_CACTVS_TAUTO_COUNT>
4

> <PUBCHEM_COORDINATE_TYPE>
1
5
255

> <PUBCHEM_BONDANNOTATIONS>
15  17  8
15  18  8
17  20  8
18  21  8
20  23  8
21  23  8
24  25  8
24  26  8
25  27  8
26  28  8
27  29  8
28  29  8

$$$$

