15942880
  -OEChem-07051212492D

 35 34  0     1  0  0  0  0  0999 V2000
   11.1972    0.2500    0.0000 P   0  0  0  0  0  0  0  0  0  0  0  0
    6.8671   -1.2500    0.0000 O   0  0  0  0  0  0  0  0  0  0  0  0
    7.7331    1.2500    0.0000 O   0  0  0  0  0  0  0  0  0  0  0  0
    6.0010    1.2500    0.0000 O   0  0  0  0  0  0  0  0  0  0  0  0
    8.5991   -1.2500    0.0000 O   0  0  0  0  0  0  0  0  0  0  0  0
   10.3312   -0.2500    0.0000 O   0  0  0  0  0  0  0  0  0  0  0  0
    4.2690    1.2500    0.0000 O   0  0  0  0  0  0  0  0  0  0  0  0
   12.0632    0.7500    0.0000 O   0  0  0  0  0  0  0  0  0  0  0  0
   11.6972   -0.6160    0.0000 O   0  0  0  0  0  0  0  0  0  0  0  0
   10.6972    1.1160    0.0000 O   0  0  0  0  0  0  0  0  0  0  0  0
    2.5369    0.2500    0.0000 O   0  0  0  0  0  0  0  0  0  0  0  0
    3.4030   -1.2500    0.0000 O   0  0  0  0  0  0  0  0  0  0  0  0
    6.8671   -0.2500    0.0000 C   0  0  1  0  0  0  0  0  0  0  0  0
    7.7331    0.2500    0.0000 C   0  0  1  0  0  0  0  0  0  0  0  0
    6.0010    0.2500    0.0000 C   0  0  1  0  0  0  0  0  0  0  0  0
    8.5991   -0.2500    0.0000 C   0  0  1  0  0  0  0  0  0  0  0  0
    5.1350   -0.2500    0.0000 C   0  0  0  0  0  0  0  0  0  0  0  0
    9.4651    0.2500    0.0000 C   0  0  0  0  0  0  0  0  0  0  0  0
    4.2690    0.2500    0.0000 C   0  0  0  0  0  0  0  0  0  0  0  0
    3.4030   -0.2500    0.0000 C   0  0  0  0  0  0  0  0  0  0  0  0
    6.3301   -0.5600    0.0000 H   0  0  0  0  0  0  0  0  0  0  0  0
    8.2700    0.5600    0.0000 H   0  0  0  0  0  0  0  0  0  0  0  0
    6.5380    0.5600    0.0000 H   0  0  0  0  0  0  0  0  0  0  0  0
    8.0622   -0.5600    0.0000 H   0  0  0  0  0  0  0  0  0  0  0  0
    4.7365   -0.7249    0.0000 H   0  0  0  0  0  0  0  0  0  0  0  0
    5.5335   -0.7249    0.0000 H   0  0  0  0  0  0  0  0  0  0  0  0
    9.8637    0.7249    0.0000 H   0  0  0  0  0  0  0  0  0  0  0  0
    9.0666    0.7249    0.0000 H   0  0  0  0  0  0  0  0  0  0  0  0
    6.3301   -1.5600    0.0000 H   0  0  0  0  0  0  0  0  0  0  0  0
    8.2700    1.5600    0.0000 H   0  0  0  0  0  0  0  0  0  0  0  0
    5.4641    1.5600    0.0000 H   0  0  0  0  0  0  0  0  0  0  0  0
    9.1360   -1.5600    0.0000 H   0  0  0  0  0  0  0  0  0  0  0  0
   12.6002    0.4400    0.0000 H   0  0  0  0  0  0  0  0  0  0  0  0
   11.3872   -1.1530    0.0000 H   0  0  0  0  0  0  0  0  0  0  0  0
    2.0000   -0.0600    0.0000 H   0  0  0  0  0  0  0  0  0  0  0  0
  1  6  1  0  0  0  0
  1  8  1  0  0  0  0
  1  9  1  0  0  0  0
  1 10  2  0  0  0  0
 13  2  1  6  0  0  0
  2 29  1  0  0  0  0
 14  3  1  6  0  0  0
  3 30  1  0  0  0  0
 15  4  1  1  0  0  0
  4 31  1  0  0  0  0
 16  5  1  1  0  0  0
  5 32  1  0  0  0  0
  6 18  1  0  0  0  0
  7 19  2  0  0  0  0
  8 33  1  0  0  0  0
  9 34  1  0  0  0  0
 11 20  1  0  0  0  0
 11 35  1  0  0  0  0
 12 20  2  0  0  0  0
 13 14  1  0  0  0  0
 13 15  1  0  0  0  0
 13 21  1  0  0  0  0
 14 16  1  0  0  0  0
 14 22  1  0  0  0  0
 15 17  1  0  0  0  0
 15 23  1  0  0  0  0
 16 18  1  0  0  0  0
 16 24  1  0  0  0  0
 17 19  1  0  0  0  0
 17 25  1  0  0  0  0
 17 26  1  0  0  0  0
 18 27  1  0  0  0  0
 18 28  1  0  0  0  0
 19 20  1  0  0  0  0
M  END
> <PUBCHEM_COMPOUND_CID>
15942880

> <PUBCHEM_COMPOUND_CANONICALIZED>
1

> <PUBCHEM_CACTVS_COMPLEXITY>
390

> <PUBCHEM_CACTVS_HBOND_ACCEPTOR>
11

> <PUBCHEM_CACTVS_HBOND_DONOR>
7

> <PUBCHEM_CACTVS_ROTATABLE_BOND>
9

> <PUBCHEM_CACTVS_SUBSKEYS>
AAADccBwPAIAAAAAAAAAAAAAAAAAAAAAAAAAAAAAAAAAAAAAAAAAGgAACCAACBSggAIACAAAAxAIQICQCIIAAAAAAAAAAAFAAAABEBYAAAAAQAAFIAABAAHK7KTAAAAAAAAAAAAAAAAAAAAAAAAAAAAAAA==

> <PUBCHEM_IUPAC_OPENEYE_NAME>
(4R,5R,6R,7R)-4,5,6,7-tetrahydroxy-2-oxo-8-phosphonooxy-octanoic acid

> <PUBCHEM_IUPAC_CAS_NAME>
(4R,5R,6R,7R)-4,5,6,7-tetrahydroxy-2-oxo-8-phosphonooxyoctanoic acid

> <PUBCHEM_IUPAC_NAME>
(4R,5R,6R,7R)-4,5,6,7-tetrahydroxy-2-oxo-8-phosphonooxyoctanoic acid

> <PUBCHEM_IUPAC_SYSTEMATIC_NAME>
(4R,5R,6R,7R)-4,5,6,7-tetrakis(oxidanyl)-2-oxidanylidene-8-phosphonooxy-octanoic acid

> <PUBCHEM_IUPAC_TRADITIONAL_NAME>
(4R,5R,6R,7R)-4,5,6,7-tetrahydroxy-2-keto-8-phosphonooxy-caprylic acid

> <PUBCHEM_IUPAC_INCHI>
InChI=1S/C8H15O11P/c9-3(1-4(10)8(14)15)6(12)7(13)5(11)2-19-20(16,17)18/h3,5-7,9,11-13H,1-2H2,(H,14,15)(H2,16,17,18)/t3-,5-,6-,7-/m1/s1

> <PUBCHEM_IUPAC_INCHIKEY>
RTNBXJBOAIDPME-SHUUEZRQSA-N

> <PUBCHEM_XLOGP3_AA>
-4.6

> <PUBCHEM_EXACT_MASS>
318.035198

> <PUBCHEM_MOLECULAR_FORMULA>
C8H15O11P

> <PUBCHEM_MOLECULAR_WEIGHT>
318.171862

> <PUBCHEM_OPENEYE_CAN_SMILES>
C(C(C(C(C(COP(=O)(O)O)O)O)O)O)C(=O)C(=O)O

> <PUBCHEM_OPENEYE_ISO_SMILES>
C([C@H]([C@H]([C@@H]([C@@H](COP(=O)(O)O)O)O)O)O)C(=O)C(=O)O

> <PUBCHEM_CACTVS_TPSA>
202

> <PUBCHEM_MONOISOTOPIC_WEIGHT>
318.035198

> <PUBCHEM_TOTAL_CHARGE>
0

> <PUBCHEM_HEAVY_ATOM_COUNT>
20

> <PUBCHEM_ATOM_DEF_STEREO_COUNT>
4

> <PUBCHEM_ATOM_UDEF_STEREO_COUNT>
0

> <PUBCHEM_BOND_DEF_STEREO_COUNT>
0

> <PUBCHEM_BOND_UDEF_STEREO_COUNT>
0

> <PUBCHEM_ISOTOPIC_ATOM_COUNT>
0

> <PUBCHEM_COMPONENT_COUNT>
1

> <PUBCHEM_CACTVS_TAUTO_COUNT>
2

> <PUBCHEM_COORDINATE_TYPE>
1
5
255

> <PUBCHEM_BONDANNOTATIONS>
13  2  6
14  3  6
15  4  5
16  5  5

$$$$

