176630
  -OEChem-07051212572D

 36 38  0     1  0  0  0  0  0999 V2000
    2.0000   -0.7846    0.0000 O   0  0  0  0  0  0  0  0  0  0  0  0
    2.2729    0.9706    0.0000 O   0  0  0  0  0  0  0  0  0  0  0  0
    4.3958    0.2154    0.0000 C   0  0  2  0  0  0  0  0  0  0  0  0
    3.5298   -0.2846    0.0000 C   0  0  1  0  0  0  0  0  0  0  0  0
    5.2619   -0.2846    0.0000 C   0  0  2  0  0  0  0  0  0  0  0  0
    3.5298   -1.2846    0.0000 C   0  0  2  0  0  0  0  0  0  0  0  0
    4.3798    1.2569    0.0000 C   0  0  0  0  0  0  0  0  0  0  0  0
    6.1719    0.2222    0.0000 C   0  0  0  0  0  0  0  0  0  0  0  0
    6.1799    1.2638    0.0000 C   0  0  2  0  0  0  0  0  0  0  0  0
    5.2778    1.7846    0.0000 C   0  0  0  0  0  0  0  0  0  0  0  0
    5.2619   -1.2846    0.0000 C   0  0  0  0  0  0  0  0  0  0  0  0
    3.5298    0.7154    0.0000 C   0  0  0  0  0  0  0  0  0  0  0  0
    2.5836    0.0201    0.0000 C   0  0  0  0  0  0  0  0  0  0  0  0
    4.3958   -1.7846    0.0000 C   0  0  0  0  0  0  0  0  0  0  0  0
    2.5836   -1.5894    0.0000 C   0  0  0  0  0  0  0  0  0  0  0  0
    7.0479    1.7605    0.0000 C   0  0  0  0  0  0  0  0  0  0  0  0
    5.1287    0.6460    0.0000 H   0  0  0  0  0  0  0  0  0  0  0  0
    5.9947   -0.7153    0.0000 H   0  0  0  0  0  0  0  0  0  0  0  0
    3.4399   -2.1299    0.0000 H   0  0  0  0  0  0  0  0  0  0  0  0
    4.1618    1.8373    0.0000 H   0  0  0  0  0  0  0  0  0  0  0  0
    3.7706    1.1414    0.0000 H   0  0  0  0  0  0  0  0  0  0  0  0
    6.3764   -0.3631    0.0000 H   0  0  0  0  0  0  0  0  0  0  0  0
    6.7835    0.3236    0.0000 H   0  0  0  0  0  0  0  0  0  0  0  0
    6.1811    1.8838    0.0000 H   0  0  0  0  0  0  0  0  0  0  0  0
    5.6751    2.2606    0.0000 H   0  0  0  0  0  0  0  0  0  0  0  0
    4.8769    2.2575    0.0000 H   0  0  0  0  0  0  0  0  0  0  0  0
    5.7988   -1.5946    0.0000 H   0  0  0  0  0  0  0  0  0  0  0  0
    4.1498    0.7154    0.0000 H   0  0  0  0  0  0  0  0  0  0  0  0
    3.5298    1.3354    0.0000 H   0  0  0  0  0  0  0  0  0  0  0  0
    2.9098    0.7154    0.0000 H   0  0  0  0  0  0  0  0  0  0  0  0
    4.3958   -2.4046    0.0000 H   0  0  0  0  0  0  0  0  0  0  0  0
    2.0462   -1.8986    0.0000 H   0  0  0  0  0  0  0  0  0  0  0  0
    2.8346   -2.1563    0.0000 H   0  0  0  0  0  0  0  0  0  0  0  0
    7.3558    1.2224    0.0000 H   0  0  0  0  0  0  0  0  0  0  0  0
    7.5860    2.0684    0.0000 H   0  0  0  0  0  0  0  0  0  0  0  0
    6.7399    2.2986    0.0000 H   0  0  0  0  0  0  0  0  0  0  0  0
  1 13  1  0  0  0  0
  1 15  1  0  0  0  0
  2 13  2  0  0  0  0
  3  4  1  0  0  0  0
  3  5  1  0  0  0  0
  3  7  1  0  0  0  0
  3 17  1  6  0  0  0
  4  6  1  0  0  0  0
  4 12  1  1  0  0  0
  4 13  1  0  0  0  0
  5  8  1  0  0  0  0
  5 11  1  0  0  0  0
  5 18  1  1  0  0  0
  6 14  1  0  0  0  0
  6 15  1  0  0  0  0
  6 19  1  1  0  0  0
  7 10  1  0  0  0  0
  7 20  1  0  0  0  0
  7 21  1  0  0  0  0
  8  9  1  0  0  0  0
  8 22  1  0  0  0  0
  8 23  1  0  0  0  0
  9 10  1  0  0  0  0
  9 16  1  6  0  0  0
  9 24  1  0  0  0  0
 10 25  1  0  0  0  0
 10 26  1  0  0  0  0
 11 14  2  0  0  0  0
 11 27  1  0  0  0  0
 12 28  1  0  0  0  0
 12 29  1  0  0  0  0
 12 30  1  0  0  0  0
 14 31  1  0  0  0  0
 15 32  1  0  0  0  0
 15 33  1  0  0  0  0
 16 34  1  0  0  0  0
 16 35  1  0  0  0  0
 16 36  1  0  0  0  0
M  END
> <PUBCHEM_COMPOUND_CID>
176630

> <PUBCHEM_COMPOUND_CANONICALIZED>
1

> <PUBCHEM_CACTVS_COMPLEXITY>
347

> <PUBCHEM_CACTVS_HBOND_ACCEPTOR>
2

> <PUBCHEM_CACTVS_HBOND_DONOR>
0

> <PUBCHEM_CACTVS_ROTATABLE_BOND>
0

> <PUBCHEM_CACTVS_SUBSKEYS>
AAADceBwMAAAAAAAAAAAAAAAAAAAASAAAAAwQAAAAAAAAECAAAAAGgAAAAAADwCggAICCAAABACIACDSCAAAAAAgAAAICAEAAAgAABIAAQACAAAEwAAIAAOKyPCPgAAAAAAAAACAAAQAACAAAAAAAAAAAA==

> <PUBCHEM_IUPAC_OPENEYE_NAME>
(3aS,5aR,7S,9aS,9bR)-7,9b-dimethyl-3,3a,5a,6,7,8,9,9a-octahydrobenzo[g]isobenzofuran-1-one

> <PUBCHEM_IUPAC_CAS_NAME>
(3aS,5aR,7S,9aS,9bR)-7,9b-dimethyl-3,3a,5a,6,7,8,9,9a-octahydrobenzo[g]isobenzofuran-1-one

> <PUBCHEM_IUPAC_NAME>
(3aS,5aR,7S,9aS,9bR)-7,9b-dimethyl-3,3a,5a,6,7,8,9,9a-octahydrobenzo[g][2]benzofuran-1-one

> <PUBCHEM_IUPAC_SYSTEMATIC_NAME>
(3aS,5aR,7S,9aS,9bR)-7,9b-dimethyl-3,3a,5a,6,7,8,9,9a-octahydrobenzo[g][2]benzofuran-1-one

> <PUBCHEM_IUPAC_TRADITIONAL_NAME>
(3aS,5aR,7S,9aS,9bR)-7,9b-dimethyl-3,3a,5a,6,7,8,9,9a-octahydrobenz[g]isobenzofuran-1-one

> <PUBCHEM_IUPAC_INCHI>
InChI=1S/C14H20O2/c1-9-3-6-12-10(7-9)4-5-11-8-16-13(15)14(11,12)2/h4-5,9-12H,3,6-8H2,1-2H3/t9-,10-,11+,12-,14-/m0/s1

> <PUBCHEM_IUPAC_INCHIKEY>
ZSRQNNNSHRCNQE-HNRZYHPDSA-N

> <PUBCHEM_XLOGP3_AA>
3.4

> <PUBCHEM_EXACT_MASS>
220.14633

> <PUBCHEM_MOLECULAR_FORMULA>
C14H20O2

> <PUBCHEM_MOLECULAR_WEIGHT>
220.3074

> <PUBCHEM_OPENEYE_CAN_SMILES>
CC1CCC2C(C1)C=CC3C2(C(=O)OC3)C

> <PUBCHEM_OPENEYE_ISO_SMILES>
C[C@H]1CC[C@H]2[C@H](C1)C=C[C@H]3[C@@]2(C(=O)OC3)C

> <PUBCHEM_CACTVS_TPSA>
26.3

> <PUBCHEM_MONOISOTOPIC_WEIGHT>
220.14633

> <PUBCHEM_TOTAL_CHARGE>
0

> <PUBCHEM_HEAVY_ATOM_COUNT>
16

> <PUBCHEM_ATOM_DEF_STEREO_COUNT>
5

> <PUBCHEM_ATOM_UDEF_STEREO_COUNT>
0

> <PUBCHEM_BOND_DEF_STEREO_COUNT>
0

> <PUBCHEM_BOND_UDEF_STEREO_COUNT>
0

> <PUBCHEM_ISOTOPIC_ATOM_COUNT>
0

> <PUBCHEM_COMPONENT_COUNT>
1

> <PUBCHEM_CACTVS_TAUTO_COUNT>
1

> <PUBCHEM_COORDINATE_TYPE>
1
5
255

> <PUBCHEM_BONDANNOTATIONS>
3  17  6
4  12  5
5  18  5
6  19  5
9  16  6

$$$$

