3578
  -OEChem-06251223312D

117121  0     1  0  0  0  0  0999 V2000
   13.3576    3.1898    0.0000 O   0  0  0  0  0  0  0  0  0  0  0  0
   16.2014   -3.5398    0.0000 O   0  0  0  0  0  0  0  0  0  0  0  0
   23.5426    0.2017    0.0000 O   0  0  0  0  0  0  0  0  0  0  0  0
   17.9496   -5.2893    0.0000 O   0  0  0  0  0  0  0  0  0  0  0  0
   22.4999   -1.1813    0.0000 O   0  0  0  0  0  0  0  0  0  0  0  0
   19.3446   -4.2626    0.0000 O   0  0  0  0  0  0  0  0  0  0  0  0
   15.5623    1.0918    0.0000 N   0  0  0  0  0  0  0  0  0  0  0  0
   17.0323    2.4613    0.0000 N   0  0  0  0  0  0  0  0  0  0  0  0
   17.0658   -0.2777    0.0000 N   0  0  0  0  0  0  0  0  0  0  0  0
   18.5675    1.0918    0.0000 N   0  0  0  0  0  0  0  0  0  0  0  0
   14.0271    1.5924    0.0000 C   0  0  0  0  0  0  0  0  0  0  0  0
   13.2312    2.1979    0.0000 C   0  0  3  0  0  0  0  0  0  0  0  0
   12.3089    1.8114    0.0000 C   0  0  0  0  0  0  0  0  0  0  0  0
   14.0271    0.5912    0.0000 C   0  0  0  0  0  0  0  0  0  0  0  0
   14.9948    1.8603    0.0000 C   0  0  0  0  0  0  0  0  0  0  0  0
   14.9948    0.3233    0.0000 C   0  0  0  0  0  0  0  0  0  0  0  0
   11.5131    2.4168    0.0000 C   0  0  0  0  0  0  0  0  0  0  0  0
   16.2303    3.0958    0.0000 C   0  0  0  0  0  0  0  0  0  0  0  0
   15.2626    2.8279    0.0000 C   0  0  0  0  0  0  0  0  0  0  0  0
   16.5317    4.0635    0.0000 C   0  0  0  0  0  0  0  0  0  0  0  0
   17.8677    3.1293    0.0000 C   0  0  0  0  0  0  0  0  0  0  0  0
   20.1044    0.6247    0.0000 C   0  0  0  0  0  0  0  0  0  0  0  0
   17.5663   -1.8464    0.0000 C   0  0  0  0  0  0  0  0  0  0  0  0
   17.5329    4.0635    0.0000 C   0  0  0  0  0  0  0  0  0  0  0  0
   15.2961   -0.6109    0.0000 C   0  0  0  0  0  0  0  0  0  0  0  0
   16.2638   -0.9122    0.0000 C   0  0  0  0  0  0  0  0  0  0  0  0
   20.1044    1.6259    0.0000 C   0  0  0  0  0  0  0  0  0  0  0  0
   19.1685    0.3568    0.0000 C   0  0  0  0  0  0  0  0  0  0  0  0
   19.1351    1.8937    0.0000 C   0  0  0  0  0  0  0  0  0  0  0  0
   17.8677   -0.8787    0.0000 C   0  0  0  0  0  0  0  0  0  0  0  0
   13.1611    0.0912    0.0000 C   0  0  0  0  0  0  0  0  0  0  0  0
   16.5652   -1.8464    0.0000 C   0  0  0  0  0  0  0  0  0  0  0  0
   18.8354    2.8279    0.0000 C   0  0  0  0  0  0  0  0  0  0  0  0
   10.5908    2.0303    0.0000 C   0  0  0  0  0  0  0  0  0  0  0  0
   20.9029    0.0227    0.0000 C   0  0  0  0  0  0  0  0  0  0  0  0
   18.8689   -0.6109    0.0000 C   0  0  0  0  0  0  0  0  0  0  0  0
   18.1591   -2.6518    0.0000 C   0  0  0  0  0  0  0  0  0  0  0  0
    9.7949    2.6358    0.0000 C   0  0  0  0  0  0  0  0  0  0  0  0
    8.8726    2.2493    0.0000 C   0  0  0  0  0  0  0  0  0  0  0  0
   15.9389    4.8689    0.0000 C   0  0  0  0  0  0  0  0  0  0  0  0
   20.9001    2.2315    0.0000 C   0  0  0  0  0  0  0  0  0  0  0  0
   21.8235    0.4132    0.0000 C   0  0  0  0  0  0  0  0  0  0  0  0
   17.7580   -3.5678    0.0000 C   0  0  0  0  0  0  0  0  0  0  0  0
    8.0767    2.8548    0.0000 C   0  0  0  0  0  0  0  0  0  0  0  0
   18.1084    4.8813    0.0000 C   0  0  0  0  0  0  0  0  0  0  0  0
   15.8944   -2.5881    0.0000 C   0  0  0  0  0  0  0  0  0  0  0  0
    9.9213    3.6278    0.0000 C   0  0  0  0  0  0  0  0  0  0  0  0
    7.1545    2.4683    0.0000 C   0  0  0  0  0  0  0  0  0  0  0  0
    6.3586    3.0738    0.0000 C   0  0  0  0  0  0  0  0  0  0  0  0
   22.6220   -0.1888    0.0000 C   0  0  0  0  0  0  0  0  0  0  0  0
    5.4363    2.6873    0.0000 C   0  0  0  0  0  0  0  0  0  0  0  0
   18.3507   -4.3732    0.0000 C   0  0  0  0  0  0  0  0  0  0  0  0
   17.6880    5.7886    0.0000 C   0  0  0  0  0  0  0  0  0  0  0  0
    4.6404    3.2927    0.0000 C   0  0  0  0  0  0  0  0  0  0  0  0
    6.4850    4.0657    0.0000 C   0  0  0  0  0  0  0  0  0  0  0  0
    3.7182    2.9062    0.0000 C   0  0  0  0  0  0  0  0  0  0  0  0
    2.9223    3.5117    0.0000 C   0  0  0  0  0  0  0  0  0  0  0  0
    2.0000    3.1252    0.0000 C   0  0  0  0  0  0  0  0  0  0  0  0
    3.0487    4.5037    0.0000 C   0  0  0  0  0  0  0  0  0  0  0  0
   12.7378    2.5733    0.0000 H   0  0  0  0  0  0  0  0  0  0  0  0
   11.8535    1.3906    0.0000 H   0  0  0  0  0  0  0  0  0  0  0  0
   12.6442    1.2898    0.0000 H   0  0  0  0  0  0  0  0  0  0  0  0
   11.9684    2.8376    0.0000 H   0  0  0  0  0  0  0  0  0  0  0  0
   11.1778    2.9384    0.0000 H   0  0  0  0  0  0  0  0  0  0  0  0
   14.8242    3.2664    0.0000 H   0  0  0  0  0  0  0  0  0  0  0  0
   14.8599   -1.0515    0.0000 H   0  0  0  0  0  0  0  0  0  0  0  0
   17.0338    1.8413    0.0000 H   0  0  0  0  0  0  0  0  0  0  0  0
   12.8510    0.6281    0.0000 H   0  0  0  0  0  0  0  0  0  0  0  0
   12.6241   -0.2188    0.0000 H   0  0  0  0  0  0  0  0  0  0  0  0
   13.4711   -0.4457    0.0000 H   0  0  0  0  0  0  0  0  0  0  0  0
   19.2719    3.2682    0.0000 H   0  0  0  0  0  0  0  0  0  0  0  0
   10.5124    1.4153    0.0000 H   0  0  0  0  0  0  0  0  0  0  0  0
   20.4494   -0.4000    0.0000 H   0  0  0  0  0  0  0  0  0  0  0  0
   21.2405   -0.4974    0.0000 H   0  0  0  0  0  0  0  0  0  0  0  0
   19.2987   -1.0577    0.0000 H   0  0  0  0  0  0  0  0  0  0  0  0
   18.6752   -2.9953    0.0000 H   0  0  0  0  0  0  0  0  0  0  0  0
   18.5870   -2.2032    0.0000 H   0  0  0  0  0  0  0  0  0  0  0  0
   12.8642    3.5652    0.0000 H   0  0  0  0  0  0  0  0  0  0  0  0
    8.4172    1.8286    0.0000 H   0  0  0  0  0  0  0  0  0  0  0  0
    9.2079    1.7278    0.0000 H   0  0  0  0  0  0  0  0  0  0  0  0
   16.4383    5.2364    0.0000 H   0  0  0  0  0  0  0  0  0  0  0  0
   15.5714    5.3682    0.0000 H   0  0  0  0  0  0  0  0  0  0  0  0
   15.4396    4.5014    0.0000 H   0  0  0  0  0  0  0  0  0  0  0  0
   21.2757    1.7382    0.0000 H   0  0  0  0  0  0  0  0  0  0  0  0
   21.3935    2.6070    0.0000 H   0  0  0  0  0  0  0  0  0  0  0  0
   20.5246    2.7249    0.0000 H   0  0  0  0  0  0  0  0  0  0  0  0
   22.2771    0.8359    0.0000 H   0  0  0  0  0  0  0  0  0  0  0  0
   21.4860    0.9333    0.0000 H   0  0  0  0  0  0  0  0  0  0  0  0
   17.2418   -3.2243    0.0000 H   0  0  0  0  0  0  0  0  0  0  0  0
   17.3300   -4.0165    0.0000 H   0  0  0  0  0  0  0  0  0  0  0  0
    8.5321    3.2755    0.0000 H   0  0  0  0  0  0  0  0  0  0  0  0
    7.7415    3.3763    0.0000 H   0  0  0  0  0  0  0  0  0  0  0  0
   18.7259    4.8257    0.0000 H   0  0  0  0  0  0  0  0  0  0  0  0
   15.2883   -2.4579    0.0000 H   0  0  0  0  0  0  0  0  0  0  0  0
   10.5364    3.5494    0.0000 H   0  0  0  0  0  0  0  0  0  0  0  0
    9.9997    4.2428    0.0000 H   0  0  0  0  0  0  0  0  0  0  0  0
    9.3063    3.7062    0.0000 H   0  0  0  0  0  0  0  0  0  0  0  0
    7.0761    1.8533    0.0000 H   0  0  0  0  0  0  0  0  0  0  0  0
    4.9809    2.2665    0.0000 H   0  0  0  0  0  0  0  0  0  0  0  0
    5.7716    2.1657    0.0000 H   0  0  0  0  0  0  0  0  0  0  0  0
   18.0449    6.2956    0.0000 H   0  0  0  0  0  0  0  0  0  0  0  0
   17.0705    5.8441    0.0000 H   0  0  0  0  0  0  0  0  0  0  0  0
    5.0958    3.7135    0.0000 H   0  0  0  0  0  0  0  0  0  0  0  0
    4.3052    3.8143    0.0000 H   0  0  0  0  0  0  0  0  0  0  0  0
    7.1000    3.9874    0.0000 H   0  0  0  0  0  0  0  0  0  0  0  0
    6.5634    4.6808    0.0000 H   0  0  0  0  0  0  0  0  0  0  0  0
    5.8700    4.1441    0.0000 H   0  0  0  0  0  0  0  0  0  0  0  0
   15.7856   -3.9997    0.0000 H   0  0  0  0  0  0  0  0  0  0  0  0
    3.6398    2.2912    0.0000 H   0  0  0  0  0  0  0  0  0  0  0  0
   24.0377   -0.1715    0.0000 H   0  0  0  0  0  0  0  0  0  0  0  0
   18.3171   -5.7886    0.0000 H   0  0  0  0  0  0  0  0  0  0  0  0
    1.7604    3.6970    0.0000 H   0  0  0  0  0  0  0  0  0  0  0  0
    1.4282    2.8856    0.0000 H   0  0  0  0  0  0  0  0  0  0  0  0
    2.2396    2.5534    0.0000 H   0  0  0  0  0  0  0  0  0  0  0  0
    3.6637    4.4253    0.0000 H   0  0  0  0  0  0  0  0  0  0  0  0
    3.1271    5.1187    0.0000 H   0  0  0  0  0  0  0  0  0  0  0  0
    2.4337    4.5821    0.0000 H   0  0  0  0  0  0  0  0  0  0  0  0
  1 12  1  0  0  0  0
  1 78  1  0  0  0  0
  2 46  1  0  0  0  0
  2108  1  0  0  0  0
  3 50  1  0  0  0  0
  3110  1  0  0  0  0
  4 52  1  0  0  0  0
  4111  1  0  0  0  0
  5 50  2  0  0  0  0
  6 52  2  0  0  0  0
  7 15  2  0  0  0  0
  7 16  1  0  0  0  0
  8 18  1  0  0  0  0
  8 21  1  0  0  0  0
  8 67  1  0  0  0  0
  9 26  2  0  0  0  0
  9 30  1  0  0  0  0
 10 28  1  0  0  0  0
 10 29  2  0  0  0  0
 11 12  1  0  0  0  0
 11 14  2  0  0  0  0
 11 15  1  0  0  0  0
 12 13  1  0  0  0  0
 12 60  1  0  0  0  0
 13 17  1  0  0  0  0
 13 61  1  0  0  0  0
 13 62  1  0  0  0  0
 14 16  1  0  0  0  0
 14 31  1  0  0  0  0
 15 19  1  0  0  0  0
 16 25  2  0  0  0  0
 17 34  1  0  0  0  0
 17 63  1  0  0  0  0
 17 64  1  0  0  0  0
 18 19  2  0  0  0  0
 18 20  1  0  0  0  0
 19 65  1  0  0  0  0
 20 24  2  0  0  0  0
 20 40  1  0  0  0  0
 21 24  1  0  0  0  0
 21 33  2  0  0  0  0
 22 27  2  0  0  0  0
 22 28  1  0  0  0  0
 22 35  1  0  0  0  0
 23 30  2  0  0  0  0
 23 32  1  0  0  0  0
 23 37  1  0  0  0  0
 24 45  1  0  0  0  0
 25 26  1  0  0  0  0
 25 66  1  0  0  0  0
 26 32  1  0  0  0  0
 27 29  1  0  0  0  0
 27 41  1  0  0  0  0
 28 36  2  0  0  0  0
 29 33  1  0  0  0  0
 30 36  1  0  0  0  0
 31 68  1  0  0  0  0
 31 69  1  0  0  0  0
 31 70  1  0  0  0  0
 32 46  2  3  0  0  0
 33 71  1  0  0  0  0
 34 38  2  3  0  0  0
 34 72  1  0  0  0  0
 35 42  1  0  0  0  0
 35 73  1  0  0  0  0
 35 74  1  0  0  0  0
 36 75  1  0  0  0  0
 37 43  1  0  0  0  0
 37 76  1  0  0  0  0
 37 77  1  0  0  0  0
 38 39  1  0  0  0  0
 38 47  1  0  0  0  0
 39 44  1  0  0  0  0
 39 79  1  0  0  0  0
 39 80  1  0  0  0  0
 40 81  1  0  0  0  0
 40 82  1  0  0  0  0
 40 83  1  0  0  0  0
 41 84  1  0  0  0  0
 41 85  1  0  0  0  0
 41 86  1  0  0  0  0
 42 50  1  0  0  0  0
 42 87  1  0  0  0  0
 42 88  1  0  0  0  0
 43 52  1  0  0  0  0
 43 89  1  0  0  0  0
 43 90  1  0  0  0  0
 44 48  1  0  0  0  0
 44 91  1  0  0  0  0
 44 92  1  0  0  0  0
 45 53  2  0  0  0  0
 45 93  1  0  0  0  0
 46 94  1  0  0  0  0
 47 95  1  0  0  0  0
 47 96  1  0  0  0  0
 47 97  1  0  0  0  0
 48 49  2  3  0  0  0
 48 98  1  0  0  0  0
 49 51  1  0  0  0  0
 49 55  1  0  0  0  0
 51 54  1  0  0  0  0
 51 99  1  0  0  0  0
 51100  1  0  0  0  0
 53101  1  0  0  0  0
 53102  1  0  0  0  0
 54 56  1  0  0  0  0
 54103  1  0  0  0  0
 54104  1  0  0  0  0
 55105  1  0  0  0  0
 55106  1  0  0  0  0
 55107  1  0  0  0  0
 56 57  2  0  0  0  0
 56109  1  0  0  0  0
 57 58  1  0  0  0  0
 57 59  1  0  0  0  0
 58112  1  0  0  0  0
 58113  1  0  0  0  0
 58114  1  0  0  0  0
 59115  1  0  0  0  0
 59116  1  0  0  0  0
 59117  1  0  0  0  0
M  END
> <PUBCHEM_COMPOUND_CID>
3578

> <PUBCHEM_COMPOUND_CANONICALIZED>
1

> <PUBCHEM_CACTVS_COMPLEXITY>
2300

> <PUBCHEM_CACTVS_HBOND_ACCEPTOR>
10

> <PUBCHEM_CACTVS_HBOND_DONOR>
5

> <PUBCHEM_CACTVS_ROTATABLE_BOND>
17

> <PUBCHEM_CACTVS_SUBSKEYS>
AAADcfB/uAAAAAAAAAAAAAAAAAAAAQIECAAAAAAAAAAAAAAAAAAAHgAQCAAADByhgAICCALAAgCoAyTyTACAAAAgIgAICAEwABgIFBIAgQAEUAAEgACIkAOY2SCAAAAAAAAAAAAAAAAAAAAAAAAAAAAAAA==

> <PUBCHEM_IUPAC_OPENEYE_NAME>
3-[18-(2-carboxyethyl)-17-(hydroxymethylene)-12-(1-hydroxy-5,9,13-trimethyl-tetradeca-4,8,12-trienyl)-3,8,13-trimethyl-7-vinyl-22H-porphyrin-2-yl]propanoic acid

> <PUBCHEM_IUPAC_CAS_NAME>
3-[18-(2-carboxyethyl)-7-ethenyl-17-(hydroxymethylidene)-12-(1-hydroxy-5,9,13-trimethyltetradeca-4,8,12-trienyl)-3,8,13-trimethyl-22H-porphyrin-2-yl]propanoic acid

> <PUBCHEM_IUPAC_NAME>
3-[18-(2-carboxyethyl)-7-ethenyl-17-(hydroxymethylidene)-12-(1-hydroxy-5,9,13-trimethyltetradeca-4,8,12-trienyl)-3,8,13-trimethyl-22H-porphyrin-2-yl]propanoic acid

> <PUBCHEM_IUPAC_SYSTEMATIC_NAME>
3-[7-ethenyl-18-(3-hydroxy-3-oxopropyl)-3,8,13-trimethyl-17-(oxidanylmethylidene)-12-(5,9,13-trimethyl-1-oxidanyl-tetradeca-4,8,12-trienyl)-22H-porphyrin-2-yl]propanoic acid

> <PUBCHEM_IUPAC_TRADITIONAL_NAME>
3-[18-(2-carboxyethyl)-17-(hydroxymethylene)-12-(1-hydroxy-5,9,13-trimethyl-tetradeca-4,8,12-trienyl)-3,8,13-trimethyl-7-vinyl-22H-porphin-2-yl]propionic acid

> <PUBCHEM_IUPAC_INCHI>
InChI=1S/C49H58N4O6/c1-9-34-31(6)39-25-45-49(46(55)18-12-17-30(5)16-11-15-29(4)14-10-13-28(2)3)33(8)40(52-45)24-44-37(27-54)36(20-22-48(58)59)43(53-44)26-42-35(19-21-47(56)57)32(7)38(51-42)23-41(34)50-39/h9,13,15,17,23-27,46,50,54-55H,1,10-12,14,16,18-22H2,2-8H3,(H,56,57)(H,58,59)

> <PUBCHEM_IUPAC_INCHIKEY>
GXWMRLPEBCSCFJ-UHFFFAOYSA-N

> <PUBCHEM_XLOGP3_AA>
5.8

> <PUBCHEM_EXACT_MASS>
798.435636

> <PUBCHEM_MOLECULAR_FORMULA>
C49H58N4O6

> <PUBCHEM_MOLECULAR_WEIGHT>
799.00802

> <PUBCHEM_OPENEYE_CAN_SMILES>
CC1=C(C2=CC3=NC(=CC4=C(C(=CO)C(=N4)C=C5C(=C(C(=N5)C=C1N2)C(CCC=C(C)CCC=C(C)CCC=C(C)C)O)C)CCC(=O)O)C(=C3C)CCC(=O)O)C=C

> <PUBCHEM_OPENEYE_ISO_SMILES>
CC1=C(C2=CC3=NC(=CC4=C(C(=CO)C(=N4)C=C5C(=C(C(=N5)C=C1N2)C(CCC=C(C)CCC=C(C)CCC=C(C)C)O)C)CCC(=O)O)C(=C3C)CCC(=O)O)C=C

> <PUBCHEM_CACTVS_TPSA>
164

> <PUBCHEM_MONOISOTOPIC_WEIGHT>
798.435636

> <PUBCHEM_TOTAL_CHARGE>
0

> <PUBCHEM_HEAVY_ATOM_COUNT>
59

> <PUBCHEM_ATOM_DEF_STEREO_COUNT>
0

> <PUBCHEM_ATOM_UDEF_STEREO_COUNT>
1

> <PUBCHEM_BOND_DEF_STEREO_COUNT>
0

> <PUBCHEM_BOND_UDEF_STEREO_COUNT>
3

> <PUBCHEM_ISOTOPIC_ATOM_COUNT>
0

> <PUBCHEM_COMPONENT_COUNT>
1

> <PUBCHEM_CACTVS_TAUTO_COUNT>
20

> <PUBCHEM_COORDINATE_TYPE>
1
5
255

> <PUBCHEM_BONDANNOTATIONS>
12  1  3
10  28  8
10  29  8
11  14  8
11  15  8
14  16  8
15  19  8
16  25  8
18  19  8
18  20  8
20  24  8
21  24  8
21  33  8
22  27  8
22  28  8
23  30  8
23  32  8
25  26  8
26  32  8
27  29  8
28  36  8
29  33  8
30  36  8
32  46  1
34  38  1
48  49  1
7  15  8
7  16  8
8  18  8
8  21  8
9  26  8
9  30  8

$$$$

