11954064
  -OEChem-07051213062D

 14 15  0     1  0  0  0  0  0999 V2000
    2.8660   -2.1550    0.0000 Br  0  0  0  0  0  0  0  0  0  0  0  0
    4.5986   -0.1550    0.0000 O   0  0  0  0  0  0  0  0  0  0  0  0
    2.8660    1.8450    0.0000 O   0  0  0  0  0  0  0  0  0  0  0  0
    3.7320    0.3450    0.0000 C   0  0  3  0  0  0  0  0  0  0  0  0
    3.7320   -0.6550    0.0000 C   0  0  3  0  0  0  0  0  0  0  0  0
    2.8660    0.8450    0.0000 C   0  0  0  0  0  0  0  0  0  0  0  0
    2.8660   -1.1550    0.0000 C   0  0  0  0  0  0  0  0  0  0  0  0
    2.0000    0.3450    0.0000 C   0  0  0  0  0  0  0  0  0  0  0  0
    2.0000   -0.6550    0.0000 C   0  0  0  0  0  0  0  0  0  0  0  0
    4.1570    1.0812    0.0000 H   0  0  0  0  0  0  0  0  0  0  0  0
    4.1570   -1.3912    0.0000 H   0  0  0  0  0  0  0  0  0  0  0  0
    1.4631    0.6550    0.0000 H   0  0  0  0  0  0  0  0  0  0  0  0
    1.4631   -0.9650    0.0000 H   0  0  0  0  0  0  0  0  0  0  0  0
    2.3291    2.1550    0.0000 H   0  0  0  0  0  0  0  0  0  0  0  0
  1  7  1  0  0  0  0
  2  4  1  0  0  0  0
  2  5  1  0  0  0  0
  3  6  1  0  0  0  0
  3 14  1  0  0  0  0
  4  5  1  0  0  0  0
  4  6  1  0  0  0  0
  4 10  1  0  0  0  0
  5  7  1  0  0  0  0
  5 11  1  0  0  0  0
  6  8  2  0  0  0  0
  7  9  2  0  0  0  0
  8  9  1  0  0  0  0
  8 12  1  0  0  0  0
  9 13  1  0  0  0  0
M  END
> <PUBCHEM_COMPOUND_CID>
11954064

> <PUBCHEM_COMPOUND_CANONICALIZED>
1

> <PUBCHEM_CACTVS_COMPLEXITY>
207

> <PUBCHEM_CACTVS_HBOND_ACCEPTOR>
2

> <PUBCHEM_CACTVS_HBOND_DONOR>
1

> <PUBCHEM_CACTVS_ROTATABLE_BOND>
0

> <PUBCHEM_CACTVS_SUBSKEYS>
AAADcYBgMAAAEAAAAAAAAAAAEgAAAAAAAAAgAAAABAAAAAAAAAAAGgBACAABiBSggAIAAAAABgCAACBCAAAAAAAgIAAACAAAACgJBAAAIQACUAAFwAALoAIAAAAAAAAAAAAAAAAAAAAAAAAAAAAAAAAAAA==

> <PUBCHEM_IUPAC_OPENEYE_NAME>
5-bromo-7-oxabicyclo[4.1.0]hepta-2,4-dien-2-ol

> <PUBCHEM_IUPAC_CAS_NAME>
5-bromo-7-oxabicyclo[4.1.0]hepta-2,4-dien-2-ol

> <PUBCHEM_IUPAC_NAME>
5-bromo-7-oxabicyclo[4.1.0]hepta-2,4-dien-2-ol

> <PUBCHEM_IUPAC_SYSTEMATIC_NAME>
5-bromanyl-7-oxabicyclo[4.1.0]hepta-2,4-dien-2-ol

> <PUBCHEM_IUPAC_TRADITIONAL_NAME>
5-bromo-7-oxabicyclo[4.1.0]hepta-2,4-dien-2-ol

> <PUBCHEM_IUPAC_INCHI>
InChI=1S/C6H5BrO2/c7-3-1-2-4(8)6-5(3)9-6/h1-2,5-6,8H

> <PUBCHEM_IUPAC_INCHIKEY>
NIXDKVLCYSTGRG-UHFFFAOYSA-N

> <PUBCHEM_XLOGP3_AA>
0.7

> <PUBCHEM_EXACT_MASS>
187.947291

> <PUBCHEM_MOLECULAR_FORMULA>
C6H5BrO2

> <PUBCHEM_MOLECULAR_WEIGHT>
189.0067

> <PUBCHEM_OPENEYE_CAN_SMILES>
C1=C(C2C(O2)C(=C1)Br)O

> <PUBCHEM_OPENEYE_ISO_SMILES>
C1=C(C2C(O2)C(=C1)Br)O

> <PUBCHEM_CACTVS_TPSA>
32.8

> <PUBCHEM_MONOISOTOPIC_WEIGHT>
187.947291

> <PUBCHEM_TOTAL_CHARGE>
0

> <PUBCHEM_HEAVY_ATOM_COUNT>
9

> <PUBCHEM_ATOM_DEF_STEREO_COUNT>
0

> <PUBCHEM_ATOM_UDEF_STEREO_COUNT>
2

> <PUBCHEM_BOND_DEF_STEREO_COUNT>
0

> <PUBCHEM_BOND_UDEF_STEREO_COUNT>
0

> <PUBCHEM_ISOTOPIC_ATOM_COUNT>
0

> <PUBCHEM_COMPONENT_COUNT>
1

> <PUBCHEM_CACTVS_TAUTO_COUNT>
3

> <PUBCHEM_COORDINATE_TYPE>
1
5
255

> <PUBCHEM_BONDANNOTATIONS>
4  10  3
5  11  3

$$$$

