20226
  -OEChem-07051213132D

 43 47  0     1  0  0  0  0  0999 V2000
    8.7424   -0.6227    0.0000 Cl  0  0  0  0  0  0  0  0  0  0  0  0
    9.3952    2.4222    0.0000 Cl  0  0  0  0  0  0  0  0  0  0  0  0
   10.1340   -2.4222    0.0000 Cl  0  0  0  0  0  0  0  0  0  0  0  0
   10.7682   -0.3062    0.0000 Cl  0  0  0  0  0  0  0  0  0  0  0  0
    8.3641   -1.5636    0.0000 Cl  0  0  0  0  0  0  0  0  0  0  0  0
    8.5779    1.5079    0.0000 Cl  0  0  0  0  0  0  0  0  0  0  0  0
   11.3059   -1.1246    0.0000 Cl  0  0  0  0  0  0  0  0  0  0  0  0
   11.1680    1.5925    0.0000 Cl  0  0  0  0  0  0  0  0  0  0  0  0
   11.4983    0.6875    0.0000 Cl  0  0  0  0  0  0  0  0  0  0  0  0
   11.4943   -0.4880    0.0000 Cl  0  0  0  0  0  0  0  0  0  0  0  0
    8.2208    0.6936    0.0000 O   0  0  0  0  0  0  0  0  0  0  0  0
    7.2776    1.1383    0.0000 O   0  0  0  0  0  0  0  0  0  0  0  0
    3.7201    0.5521    0.0000 O   0  0  0  0  0  0  0  0  0  0  0  0
    4.4039   -1.0392    0.0000 O   0  0  0  0  0  0  0  0  0  0  0  0
    9.6472   -0.1970    0.0000 C   0  0  3  0  0  0  0  0  0  0  0  0
    9.6200    1.4478    0.0000 C   0  0  3  0  0  0  0  0  0  0  0  0
    9.9203   -1.4453    0.0000 C   0  0  3  0  0  0  0  0  0  0  0  0
    9.9073    0.2027    0.0000 C   0  0  3  0  0  0  0  0  0  0  0  0
    9.1596   -0.9577    0.0000 C   0  0  0  0  0  0  0  0  0  0  0  0
    9.1412    0.6816    0.0000 C   0  0  0  0  0  0  0  0  0  0  0  0
   10.4079   -0.6846    0.0000 C   0  0  0  0  0  0  0  0  0  0  0  0
   10.3862    0.9689    0.0000 C   0  0  0  0  0  0  0  0  0  0  0  0
    8.8802   -0.0582    0.0000 C   0  0  0  0  0  0  0  0  0  0  0  0
   10.6873    0.1024    0.0000 C   0  0  0  0  0  0  0  0  0  0  0  0
    7.9615   -0.4530    0.0000 C   0  0  0  0  0  0  0  0  0  0  0  0
    7.1602    0.1453    0.0000 C   0  0  0  0  0  0  0  0  0  0  0  0
    6.2414   -0.2496    0.0000 C   0  0  0  0  0  0  0  0  0  0  0  0
    5.4401    0.3487    0.0000 C   0  0  0  0  0  0  0  0  0  0  0  0
    4.5214   -0.0461    0.0000 C   0  0  0  0  0  0  0  0  0  0  0  0
    2.8013    0.1573    0.0000 C   0  0  0  0  0  0  0  0  0  0  0  0
    2.0000    0.7555    0.0000 C   0  0  0  0  0  0  0  0  0  0  0  0
    7.5099   -0.8779    0.0000 H   0  0  0  0  0  0  0  0  0  0  0  0
    8.3015   -0.9715    0.0000 H   0  0  0  0  0  0  0  0  0  0  0  0
    7.6128    0.5726    0.0000 H   0  0  0  0  0  0  0  0  0  0  0  0
    5.7899   -0.6744    0.0000 H   0  0  0  0  0  0  0  0  0  0  0  0
    6.5814   -0.7680    0.0000 H   0  0  0  0  0  0  0  0  0  0  0  0
    5.8917    0.7735    0.0000 H   0  0  0  0  0  0  0  0  0  0  0  0
    5.1001    0.8672    0.0000 H   0  0  0  0  0  0  0  0  0  0  0  0
    2.3497   -0.2676    0.0000 H   0  0  0  0  0  0  0  0  0  0  0  0
    3.1413   -0.3612    0.0000 H   0  0  0  0  0  0  0  0  0  0  0  0
    2.3709    1.2524    0.0000 H   0  0  0  0  0  0  0  0  0  0  0  0
    1.5032    1.1265    0.0000 H   0  0  0  0  0  0  0  0  0  0  0  0
    1.6291    0.2587    0.0000 H   0  0  0  0  0  0  0  0  0  0  0  0
  1 15  1  0  0  0  0
  2 16  1  0  0  0  0
  3 17  1  0  0  0  0
  4 18  1  0  0  0  0
  5 19  1  0  0  0  0
  6 20  1  0  0  0  0
  7 21  1  0  0  0  0
  8 22  1  0  0  0  0
  9 24  1  0  0  0  0
 10 24  1  0  0  0  0
 11 23  1  0  0  0  0
 11 34  1  0  0  0  0
 12 26  2  0  0  0  0
 13 29  1  0  0  0  0
 13 30  1  0  0  0  0
 14 29  2  0  0  0  0
 15 16  1  0  0  0  0
 15 19  1  0  0  0  0
 15 21  1  0  0  0  0
 16 20  1  0  0  0  0
 16 22  1  0  0  0  0
 17 18  1  0  0  0  0
 17 19  1  0  0  0  0
 17 21  1  0  0  0  0
 18 20  1  0  0  0  0
 18 22  1  0  0  0  0
 19 23  1  0  0  0  0
 20 23  1  0  0  0  0
 21 24  1  0  0  0  0
 22 24  1  0  0  0  0
 23 25  1  0  0  0  0
 25 26  1  0  0  0  0
 25 32  1  0  0  0  0
 25 33  1  0  0  0  0
 26 27  1  0  0  0  0
 27 28  1  0  0  0  0
 27 35  1  0  0  0  0
 27 36  1  0  0  0  0
 28 29  1  0  0  0  0
 28 37  1  0  0  0  0
 28 38  1  0  0  0  0
 30 31  1  0  0  0  0
 30 39  1  0  0  0  0
 30 40  1  0  0  0  0
 31 41  1  0  0  0  0
 31 42  1  0  0  0  0
 31 43  1  0  0  0  0
M  END
> <PUBCHEM_COMPOUND_CID>
20226

> <PUBCHEM_COMPOUND_CANONICALIZED>
1

> <PUBCHEM_CACTVS_COMPLEXITY>
900

> <PUBCHEM_CACTVS_HBOND_ACCEPTOR>
4

> <PUBCHEM_CACTVS_HBOND_DONOR>
1

> <PUBCHEM_CACTVS_ROTATABLE_BOND>
7

> <PUBCHEM_CACTVS_SUBSKEYS>
AAADccB4OAAHgAAAAAAAAAAAAABgwYMGDAAAAAAAAAAAAAAAAAAAGgIACAAADEaggIICCAAABgAIAICQCAAAAAAAAAAAAEEAAwAAABYBAAACQAAEIAAAAAGLyPCOgAAAAAAAAACIACRAASIACZCATIQCAA==

> <PUBCHEM_IUPAC_INCHI>
InChI=1S/C17H12Cl10O4/c1-2-31-7(29)4-3-6(28)5-8(30)9(18)11(20)13(22)10(8,19)14(23)12(9,21)15(11,24)17(26,27)16(13,14)25/h30H,2-5H2,1H3

> <PUBCHEM_IUPAC_INCHIKEY>
POSKOXIJDWDKPH-UHFFFAOYSA-N

> <PUBCHEM_XLOGP3_AA>
3.6

> <PUBCHEM_EXACT_MASS>
633.756185

> <PUBCHEM_MOLECULAR_FORMULA>
C17H12Cl10O4

> <PUBCHEM_MOLECULAR_WEIGHT>
634.80478

> <PUBCHEM_OPENEYE_CAN_SMILES>
CCOC(=O)CCC(=O)CC1(C2(C3(C4(C1(C5(C2(C3(C(C45Cl)(Cl)Cl)Cl)Cl)Cl)Cl)Cl)Cl)Cl)O

> <PUBCHEM_OPENEYE_ISO_SMILES>
CCOC(=O)CCC(=O)CC1(C2(C3(C4(C1(C5(C2(C3(C(C45Cl)(Cl)Cl)Cl)Cl)Cl)Cl)Cl)Cl)Cl)O

> <PUBCHEM_CACTVS_TPSA>
63.6

> <PUBCHEM_MONOISOTOPIC_WEIGHT>
629.762086

> <PUBCHEM_TOTAL_CHARGE>
0

> <PUBCHEM_HEAVY_ATOM_COUNT>
31

> <PUBCHEM_ATOM_DEF_STEREO_COUNT>
0

> <PUBCHEM_ATOM_UDEF_STEREO_COUNT>
4

> <PUBCHEM_BOND_DEF_STEREO_COUNT>
0

> <PUBCHEM_BOND_UDEF_STEREO_COUNT>
0

> <PUBCHEM_ISOTOPIC_ATOM_COUNT>
0

> <PUBCHEM_COMPONENT_COUNT>
1

> <PUBCHEM_CACTVS_TAUTO_COUNT>
3

> <PUBCHEM_COORDINATE_TYPE>
1
5
255

> <PUBCHEM_BONDANNOTATIONS>
15  1  3
16  2  3
17  3  3
18  4  3

$$$$

