21480
  -OEChem-07051213142D

 38 43  0     0  0  0  0  0  0999 V2000
    5.0605   -0.7632    0.0000 C   0  0  0  0  0  0  0  0  0  0  0  0
    4.1944   -0.2632    0.0000 C   0  0  0  0  0  0  0  0  0  0  0  0
    5.0444   -1.8047    0.0000 C   0  0  0  0  0  0  0  0  0  0  0  0
    5.9265   -0.2632    0.0000 C   0  0  0  0  0  0  0  0  0  0  0  0
    3.5765   -1.0415    0.0000 C   0  0  0  0  0  0  0  0  0  0  0  0
    4.0564   -1.9118    0.0000 C   0  0  0  0  0  0  0  0  0  0  0  0
    4.1944    0.7368    0.0000 C   0  0  0  0  0  0  0  0  0  0  0  0
    6.8365   -0.7700    0.0000 C   0  0  0  0  0  0  0  0  0  0  0  0
    5.0605    1.2368    0.0000 C   0  0  0  0  0  0  0  0  0  0  0  0
    5.9424   -2.3324    0.0000 C   0  0  0  0  0  0  0  0  0  0  0  0
    6.8445   -1.8116    0.0000 C   0  0  0  0  0  0  0  0  0  0  0  0
    5.9265    0.7368    0.0000 C   0  0  0  0  0  0  0  0  0  0  0  0
    2.5420   -1.0052    0.0000 C   0  0  0  0  0  0  0  0  0  0  0  0
    3.5350   -2.8061    0.0000 C   0  0  0  0  0  0  0  0  0  0  0  0
    3.2844    1.2437    0.0000 C   0  0  0  0  0  0  0  0  0  0  0  0
    7.7633   -0.2059    0.0000 C   0  0  0  0  0  0  0  0  0  0  0  0
    5.0765    2.2783    0.0000 C   0  0  0  0  0  0  0  0  0  0  0  0
    7.7800   -2.3613    0.0000 C   0  0  0  0  0  0  0  0  0  0  0  0
    2.0000   -1.8872    0.0000 C   0  0  0  0  0  0  0  0  0  0  0  0
    2.4998   -2.7937    0.0000 C   0  0  0  0  0  0  0  0  0  0  0  0
    3.2764    2.2853    0.0000 C   0  0  0  0  0  0  0  0  0  0  0  0
    4.1785    2.8061    0.0000 C   0  0  0  0  0  0  0  0  0  0  0  0
    8.7112   -0.7339    0.0000 C   0  0  0  0  0  0  0  0  0  0  0  0
    8.7196   -1.8188    0.0000 C   0  0  0  0  0  0  0  0  0  0  0  0
    5.9401   -2.9524    0.0000 H   0  0  0  0  0  0  0  0  0  0  0  0
    6.4634    1.0468    0.0000 H   0  0  0  0  0  0  0  0  0  0  0  0
    2.2489   -0.4588    0.0000 H   0  0  0  0  0  0  0  0  0  0  0  0
    3.8406   -3.3455    0.0000 H   0  0  0  0  0  0  0  0  0  0  0  0
    2.7511    0.9275    0.0000 H   0  0  0  0  0  0  0  0  0  0  0  0
    7.7514    0.4140    0.0000 H   0  0  0  0  0  0  0  0  0  0  0  0
    5.6170    2.5821    0.0000 H   0  0  0  0  0  0  0  0  0  0  0  0
    7.7776   -2.9813    0.0000 H   0  0  0  0  0  0  0  0  0  0  0  0
    1.3802   -1.8726    0.0000 H   0  0  0  0  0  0  0  0  0  0  0  0
    2.1814   -3.3256    0.0000 H   0  0  0  0  0  0  0  0  0  0  0  0
    2.7383    2.5932    0.0000 H   0  0  0  0  0  0  0  0  0  0  0  0
    4.1809    3.4261    0.0000 H   0  0  0  0  0  0  0  0  0  0  0  0
    9.2445   -0.4177    0.0000 H   0  0  0  0  0  0  0  0  0  0  0  0
    9.2577   -2.1268    0.0000 H   0  0  0  0  0  0  0  0  0  0  0  0
  1  2  2  0  0  0  0
  1  3  1  0  0  0  0
  1  4  1  0  0  0  0
  2  5  1  0  0  0  0
  2  7  1  0  0  0  0
  3  6  1  0  0  0  0
  3 10  2  0  0  0  0
  4  8  1  0  0  0  0
  4 12  2  0  0  0  0
  5  6  1  0  0  0  0
  5 13  2  0  0  0  0
  6 14  2  0  0  0  0
  7  9  1  0  0  0  0
  7 15  2  0  0  0  0
  8 11  1  0  0  0  0
  8 16  2  0  0  0  0
  9 12  1  0  0  0  0
  9 17  2  0  0  0  0
 10 11  1  0  0  0  0
 10 25  1  0  0  0  0
 11 18  2  0  0  0  0
 12 26  1  0  0  0  0
 13 19  1  0  0  0  0
 13 27  1  0  0  0  0
 14 20  1  0  0  0  0
 14 28  1  0  0  0  0
 15 21  1  0  0  0  0
 15 29  1  0  0  0  0
 16 23  1  0  0  0  0
 16 30  1  0  0  0  0
 17 22  1  0  0  0  0
 17 31  1  0  0  0  0
 18 24  1  0  0  0  0
 18 32  1  0  0  0  0
 19 20  2  0  0  0  0
 19 33  1  0  0  0  0
 20 34  1  0  0  0  0
 21 22  2  0  0  0  0
 21 35  1  0  0  0  0
 22 36  1  0  0  0  0
 23 24  2  0  0  0  0
 23 37  1  0  0  0  0
 24 38  1  0  0  0  0
M  END
> <PUBCHEM_COMPOUND_CID>
21480

> <PUBCHEM_COMPOUND_CANONICALIZED>
1

> <PUBCHEM_CACTVS_COMPLEXITY>
480

> <PUBCHEM_CACTVS_HBOND_ACCEPTOR>
0

> <PUBCHEM_CACTVS_HBOND_DONOR>
0

> <PUBCHEM_CACTVS_ROTATABLE_BOND>
0

> <PUBCHEM_CACTVS_SUBSKEYS>
AAADccB4AAAAAAAAAAAAAAAAAAAAAYAAAAAwYMGDAAAAAGDBVAAAGAAAAAAADACAGAAwAMAAAACAAiBCAAACAAAgAAAIiAAAAIgIICKAERCAIAAggAAIiAcAgMAOwAACAAAQAACAAAQAACAAAQAACAAAAA==

> <PUBCHEM_IUPAC_INCHI>
InChI=1S/C24H14/c1-3-9-17-15(7-1)13-22-19-11-5-6-12-20(19)23-18-10-4-2-8-16(18)14-21(17)24(22)23/h1-14H

> <PUBCHEM_IUPAC_INCHIKEY>
JHOWUOKQHJHGMU-UHFFFAOYSA-N

> <PUBCHEM_XLOGP3_AA>
6.7

> <PUBCHEM_EXACT_MASS>
302.10955

> <PUBCHEM_MOLECULAR_FORMULA>
C24H14

> <PUBCHEM_MOLECULAR_WEIGHT>
302.36796

> <PUBCHEM_OPENEYE_CAN_SMILES>
C1=CC=C2C(=C1)C=C3C4=CC=CC=C4C5=C3C2=CC6=CC=CC=C65

> <PUBCHEM_OPENEYE_ISO_SMILES>
C1=CC=C2C(=C1)C=C3C4=CC=CC=C4C5=C3C2=CC6=CC=CC=C65

> <PUBCHEM_CACTVS_TPSA>
0

> <PUBCHEM_MONOISOTOPIC_WEIGHT>
302.10955

> <PUBCHEM_TOTAL_CHARGE>
0

> <PUBCHEM_HEAVY_ATOM_COUNT>
24

> <PUBCHEM_ATOM_DEF_STEREO_COUNT>
0

> <PUBCHEM_ATOM_UDEF_STEREO_COUNT>
0

> <PUBCHEM_BOND_DEF_STEREO_COUNT>
0

> <PUBCHEM_BOND_UDEF_STEREO_COUNT>
0

> <PUBCHEM_ISOTOPIC_ATOM_COUNT>
0

> <PUBCHEM_COMPONENT_COUNT>
1

> <PUBCHEM_CACTVS_TAUTO_COUNT>
1

> <PUBCHEM_COORDINATE_TYPE>
1
5
255

> <PUBCHEM_BONDANNOTATIONS>
1  2  8
1  3  8
1  4  8
10  11  8
11  18  8
13  19  8
14  20  8
15  21  8
16  23  8
17  22  8
18  24  8
19  20  8
2  7  8
21  22  8
23  24  8
3  10  8
4  12  8
4  8  8
5  13  8
5  6  8
6  14  8
7  15  8
7  9  8
8  11  8
8  16  8
9  12  8
9  17  8

$$$$

