14430
  -OEChem-06241222432D

 43 45  0     0  0  0  0  0  0999 V2000
    2.0000   -0.8871    0.0000 F   0  0  0  0  0  0  0  0  0  0  0  0
    2.6560   -2.1399    0.0000 F   0  0  0  0  0  0  0  0  0  0  0  0
    3.2529   -0.2311    0.0000 F   0  0  0  0  0  0  0  0  0  0  0  0
    7.7258    0.5791    0.0000 O   0  0  0  0  0  0  0  0  0  0  0  0
    6.2919   -0.3219    0.0000 N   0  0  0  0  0  0  0  0  0  0  0  0
    6.7918   -2.5125    0.0000 N   0  0  0  0  0  0  0  0  0  0  0  0
    5.9874    2.3063    0.0000 N   0  0  0  0  0  0  0  0  0  0  0  0
    5.8580    0.5791    0.0000 C   0  0  0  0  0  0  0  0  0  0  0  0
    5.6684   -1.1037    0.0000 C   0  0  0  0  0  0  0  0  0  0  0  0
    6.4213    1.4053    0.0000 C   0  0  0  0  0  0  0  0  0  0  0  0
    5.8909   -2.0786    0.0000 C   0  0  0  0  0  0  0  0  0  0  0  0
    7.2919   -0.3219    0.0000 C   0  0  0  0  0  0  0  0  0  0  0  0
    7.9154   -1.1037    0.0000 C   0  0  0  0  0  0  0  0  0  0  0  0
    7.6928   -2.0786    0.0000 C   0  0  0  0  0  0  0  0  0  0  0  0
    4.6779   -0.7814    0.0000 C   0  0  0  0  0  0  0  0  0  0  0  0
    3.9088   -1.4839    0.0000 C   0  0  0  0  0  0  0  0  0  0  0  0
    5.1383   -2.7988    0.0000 C   0  0  0  0  0  0  0  0  0  0  0  0
    4.1406   -2.4995    0.0000 C   0  0  0  0  0  0  0  0  0  0  0  0
    8.9058   -0.7814    0.0000 C   0  0  0  0  0  0  0  0  0  0  0  0
    8.4454   -2.7988    0.0000 C   0  0  0  0  0  0  0  0  0  0  0  0
    6.5508    3.1325    0.0000 C   0  0  0  0  0  0  0  0  0  0  0  0
    4.9902    2.3810    0.0000 C   0  0  0  0  0  0  0  0  0  0  0  0
    2.9544   -1.1855    0.0000 C   0  0  0  0  0  0  0  0  0  0  0  0
    9.6749   -1.4840    0.0000 C   0  0  0  0  0  0  0  0  0  0  0  0
    9.4431   -2.4995    0.0000 C   0  0  0  0  0  0  0  0  0  0  0  0
    5.4142    1.0120    0.0000 H   0  0  0  0  0  0  0  0  0  0  0  0
    5.3546    0.2172    0.0000 H   0  0  0  0  0  0  0  0  0  0  0  0
    6.8652    0.9724    0.0000 H   0  0  0  0  0  0  0  0  0  0  0  0
    6.9247    1.7672    0.0000 H   0  0  0  0  0  0  0  0  0  0  0  0
    4.5469   -0.1754    0.0000 H   0  0  0  0  0  0  0  0  0  0  0  0
    6.7918   -3.1325    0.0000 H   0  0  0  0  0  0  0  0  0  0  0  0
    5.2833   -3.4016    0.0000 H   0  0  0  0  0  0  0  0  0  0  0  0
    3.6878   -2.9229    0.0000 H   0  0  0  0  0  0  0  0  0  0  0  0
    9.0368   -0.1754    0.0000 H   0  0  0  0  0  0  0  0  0  0  0  0
    8.3004   -3.4016    0.0000 H   0  0  0  0  0  0  0  0  0  0  0  0
    5.0366    2.9993    0.0000 H   0  0  0  0  0  0  0  0  0  0  0  0
    7.0630    2.7833    0.0000 H   0  0  0  0  0  0  0  0  0  0  0  0
    6.9000    3.6448    0.0000 H   0  0  0  0  0  0  0  0  0  0  0  0
    6.0385    3.4818    0.0000 H   0  0  0  0  0  0  0  0  0  0  0  0
    4.3720    2.4274    0.0000 H   0  0  0  0  0  0  0  0  0  0  0  0
    4.9439    1.7628    0.0000 H   0  0  0  0  0  0  0  0  0  0  0  0
   10.2666   -1.2990    0.0000 H   0  0  0  0  0  0  0  0  0  0  0  0
    9.8959   -2.9230    0.0000 H   0  0  0  0  0  0  0  0  0  0  0  0
  1 23  1  0  0  0  0
  2 23  1  0  0  0  0
  3 23  1  0  0  0  0
  4 12  2  0  0  0  0
  5  8  1  0  0  0  0
  5  9  1  0  0  0  0
  5 12  1  0  0  0  0
  6 11  1  0  0  0  0
  6 14  1  0  0  0  0
  6 31  1  0  0  0  0
  7 10  1  0  0  0  0
  7 21  1  0  0  0  0
  7 22  1  0  0  0  0
  8 10  1  0  0  0  0
  8 26  1  0  0  0  0
  8 27  1  0  0  0  0
  9 11  2  0  0  0  0
  9 15  1  0  0  0  0
 10 28  1  0  0  0  0
 10 29  1  0  0  0  0
 11 17  1  0  0  0  0
 12 13  1  0  0  0  0
 13 14  1  0  0  0  0
 13 19  2  0  0  0  0
 14 20  2  0  0  0  0
 15 16  2  0  0  0  0
 15 30  1  0  0  0  0
 16 18  1  0  0  0  0
 16 23  1  0  0  0  0
 17 18  2  0  0  0  0
 17 32  1  0  0  0  0
 18 33  1  0  0  0  0
 19 24  1  0  0  0  0
 19 34  1  0  0  0  0
 20 25  1  0  0  0  0
 20 35  1  0  0  0  0
 21 37  1  0  0  0  0
 21 38  1  0  0  0  0
 21 39  1  0  0  0  0
 22 36  1  0  0  0  0
 22 40  1  0  0  0  0
 22 41  1  0  0  0  0
 24 25  2  0  0  0  0
 24 42  1  0  0  0  0
 25 43  1  0  0  0  0
M  END
> <PUBCHEM_COMPOUND_CID>
14430

> <PUBCHEM_COMPOUND_CANONICALIZED>
1

> <PUBCHEM_CACTVS_COMPLEXITY>
483

> <PUBCHEM_CACTVS_HBOND_ACCEPTOR>
6

> <PUBCHEM_CACTVS_HBOND_DONOR>
1

> <PUBCHEM_CACTVS_ROTATABLE_BOND>
3

> <PUBCHEM_CACTVS_SUBSKEYS>
AAADceB7IYAAAAAAAAAAAAAAAAAAAAAAAAAwYAAABYAAAAABQAAAHwAQAAAADAjBmBQywIPAAACIAiVSUACCAAAlAgAIiAEIdMgIYHrA1ZGUIYhglgDIyccYiACOCAAAQAACACAQAACAAAQAQAAAAAAAAA==

> <PUBCHEM_IUPAC_OPENEYE_NAME>
5-[2-(dimethylamino)ethyl]-3-(trifluoromethyl)-11H-benzo[b][1,4]benzodiazepin-6-one

> <PUBCHEM_IUPAC_CAS_NAME>
5-[2-(dimethylamino)ethyl]-3-(trifluoromethyl)-11H-benzo[b][1,4]benzodiazepin-6-one

> <PUBCHEM_IUPAC_NAME>
5-[2-(dimethylamino)ethyl]-3-(trifluoromethyl)-11H-benzo[b][1,4]benzodiazepin-6-one

> <PUBCHEM_IUPAC_SYSTEMATIC_NAME>
5-[2-(dimethylamino)ethyl]-3-(trifluoromethyl)-11H-benzo[b][1,4]benzodiazepin-6-one

> <PUBCHEM_IUPAC_TRADITIONAL_NAME>
5-[2-(dimethylamino)ethyl]-3-(trifluoromethyl)-11H-benzo[b][1,4]benzodiazepin-6-one

> <PUBCHEM_IUPAC_INCHI>
InChI=1S/C18H18F3N3O/c1-23(2)9-10-24-16-11-12(18(19,20)21)7-8-15(16)22-14-6-4-3-5-13(14)17(24)25/h3-8,11,22H,9-10H2,1-2H3

> <PUBCHEM_IUPAC_INCHIKEY>
NUMLEZZJLDPKGR-UHFFFAOYSA-N

> <PUBCHEM_XLOGP3_AA>
3.5

> <PUBCHEM_EXACT_MASS>
349.140197

> <PUBCHEM_MOLECULAR_FORMULA>
C18H18F3N3O

> <PUBCHEM_MOLECULAR_WEIGHT>
349.35023

> <PUBCHEM_OPENEYE_CAN_SMILES>
CN(C)CCN1C2=C(C=CC(=C2)C(F)(F)F)NC3=CC=CC=C3C1=O

> <PUBCHEM_OPENEYE_ISO_SMILES>
CN(C)CCN1C2=C(C=CC(=C2)C(F)(F)F)NC3=CC=CC=C3C1=O

> <PUBCHEM_CACTVS_TPSA>
35.6

> <PUBCHEM_MONOISOTOPIC_WEIGHT>
349.140197

> <PUBCHEM_TOTAL_CHARGE>
0

> <PUBCHEM_HEAVY_ATOM_COUNT>
25

> <PUBCHEM_ATOM_DEF_STEREO_COUNT>
0

> <PUBCHEM_ATOM_UDEF_STEREO_COUNT>
0

> <PUBCHEM_BOND_DEF_STEREO_COUNT>
0

> <PUBCHEM_BOND_UDEF_STEREO_COUNT>
0

> <PUBCHEM_ISOTOPIC_ATOM_COUNT>
0

> <PUBCHEM_COMPONENT_COUNT>
1

> <PUBCHEM_CACTVS_TAUTO_COUNT>
4

> <PUBCHEM_COORDINATE_TYPE>
1
5
255

> <PUBCHEM_BONDANNOTATIONS>
11  17  8
13  14  8
13  19  8
14  20  8
15  16  8
16  18  8
17  18  8
19  24  8
20  25  8
24  25  8
9  11  8
9  15  8

$$$$

