17395484
  -OEChem-06241222502D

 48 51  0     0  0  0  0  0  0999 V2000
    9.7942   -1.5173    0.0000 O   0  0  0  0  0  0  0  0  0  0  0  0
    7.1962    0.9827    0.0000 N   0  0  0  0  0  0  0  0  0  0  0  0
    9.7942    1.4827    0.0000 N   0  0  0  0  0  0  0  0  0  0  0  0
   10.6603   -0.0173    0.0000 N   0  0  0  0  0  0  0  0  0  0  0  0
    5.4641   -0.0173    0.0000 C   0  0  0  0  0  0  0  0  0  0  0  0
    6.3301   -0.5173    0.0000 C   0  0  0  0  0  0  0  0  0  0  0  0
    5.4641    0.9827    0.0000 C   0  0  0  0  0  0  0  0  0  0  0  0
    6.3301    1.4827    0.0000 C   0  0  0  0  0  0  0  0  0  0  0  0
    7.1962   -0.0173    0.0000 C   0  0  0  0  0  0  0  0  0  0  0  0
    4.5981   -0.5173    0.0000 C   0  0  0  0  0  0  0  0  0  0  0  0
    8.0622    1.4827    0.0000 C   0  0  0  0  0  0  0  0  0  0  0  0
    3.7320   -0.0173    0.0000 C   0  0  0  0  0  0  0  0  0  0  0  0
    8.9282    0.9827    0.0000 C   0  0  0  0  0  0  0  0  0  0  0  0
    3.7320    0.9827    0.0000 C   0  0  0  0  0  0  0  0  0  0  0  0
    2.8660   -0.5173    0.0000 C   0  0  0  0  0  0  0  0  0  0  0  0
    8.9282   -0.0173    0.0000 C   0  0  0  0  0  0  0  0  0  0  0  0
    2.8660    1.4827    0.0000 C   0  0  0  0  0  0  0  0  0  0  0  0
    2.0000   -0.0173    0.0000 C   0  0  0  0  0  0  0  0  0  0  0  0
   10.6603    0.9827    0.0000 C   0  0  0  0  0  0  0  0  0  0  0  0
    9.7942   -0.5173    0.0000 C   0  0  0  0  0  0  0  0  0  0  0  0
    2.0000    0.9827    0.0000 C   0  0  0  0  0  0  0  0  0  0  0  0
   11.5542    1.5173    0.0000 C   0  0  0  0  0  0  0  0  0  0  0  0
   11.5542   -0.5520    0.0000 C   0  0  0  0  0  0  0  0  0  0  0  0
   12.4603    1.0035    0.0000 C   0  0  0  0  0  0  0  0  0  0  0  0
   12.4603   -0.0381    0.0000 C   0  0  0  0  0  0  0  0  0  0  0  0
    5.4641   -0.6373    0.0000 H   0  0  0  0  0  0  0  0  0  0  0  0
    5.9316   -0.9923    0.0000 H   0  0  0  0  0  0  0  0  0  0  0  0
    6.7287   -0.9923    0.0000 H   0  0  0  0  0  0  0  0  0  0  0  0
    5.2520    1.5653    0.0000 H   0  0  0  0  0  0  0  0  0  0  0  0
    4.8535    0.8750    0.0000 H   0  0  0  0  0  0  0  0  0  0  0  0
    6.7287    1.9576    0.0000 H   0  0  0  0  0  0  0  0  0  0  0  0
    5.9316    1.9576    0.0000 H   0  0  0  0  0  0  0  0  0  0  0  0
    7.4082   -0.5999    0.0000 H   0  0  0  0  0  0  0  0  0  0  0  0
    7.8067    0.0903    0.0000 H   0  0  0  0  0  0  0  0  0  0  0  0
    4.1996   -0.9923    0.0000 H   0  0  0  0  0  0  0  0  0  0  0  0
    4.9966   -0.9923    0.0000 H   0  0  0  0  0  0  0  0  0  0  0  0
    8.4607    1.9576    0.0000 H   0  0  0  0  0  0  0  0  0  0  0  0
    7.6636    1.9576    0.0000 H   0  0  0  0  0  0  0  0  0  0  0  0
    4.2690    1.2927    0.0000 H   0  0  0  0  0  0  0  0  0  0  0  0
    2.8660   -1.1373    0.0000 H   0  0  0  0  0  0  0  0  0  0  0  0
    8.3913   -0.3273    0.0000 H   0  0  0  0  0  0  0  0  0  0  0  0
    2.8660    2.1027    0.0000 H   0  0  0  0  0  0  0  0  0  0  0  0
    1.4631   -0.3273    0.0000 H   0  0  0  0  0  0  0  0  0  0  0  0
    1.4631    1.2927    0.0000 H   0  0  0  0  0  0  0  0  0  0  0  0
   11.5470    2.1373    0.0000 H   0  0  0  0  0  0  0  0  0  0  0  0
   11.5470   -1.1720    0.0000 H   0  0  0  0  0  0  0  0  0  0  0  0
   12.9960    1.3156    0.0000 H   0  0  0  0  0  0  0  0  0  0  0  0
   12.9960   -0.3502    0.0000 H   0  0  0  0  0  0  0  0  0  0  0  0
  1 20  2  0  0  0  0
  2  8  1  0  0  0  0
  2  9  1  0  0  0  0
  2 11  1  0  0  0  0
  3 13  1  0  0  0  0
  3 19  2  0  0  0  0
  4 19  1  0  0  0  0
  4 20  1  0  0  0  0
  4 23  1  0  0  0  0
  5  6  1  0  0  0  0
  5  7  1  0  0  0  0
  5 10  1  0  0  0  0
  5 26  1  0  0  0  0
  6  9  1  0  0  0  0
  6 27  1  0  0  0  0
  6 28  1  0  0  0  0
  7  8  1  0  0  0  0
  7 29  1  0  0  0  0
  7 30  1  0  0  0  0
  8 31  1  0  0  0  0
  8 32  1  0  0  0  0
  9 33  1  0  0  0  0
  9 34  1  0  0  0  0
 10 12  1  0  0  0  0
 10 35  1  0  0  0  0
 10 36  1  0  0  0  0
 11 13  1  0  0  0  0
 11 37  1  0  0  0  0
 11 38  1  0  0  0  0
 12 14  2  0  0  0  0
 12 15  1  0  0  0  0
 13 16  2  0  0  0  0
 14 17  1  0  0  0  0
 14 39  1  0  0  0  0
 15 18  2  0  0  0  0
 15 40  1  0  0  0  0
 16 20  1  0  0  0  0
 16 41  1  0  0  0  0
 17 21  2  0  0  0  0
 17 42  1  0  0  0  0
 18 21  1  0  0  0  0
 18 43  1  0  0  0  0
 19 22  1  0  0  0  0
 21 44  1  0  0  0  0
 22 24  2  0  0  0  0
 22 45  1  0  0  0  0
 23 25  2  0  0  0  0
 23 46  1  0  0  0  0
 24 25  1  0  0  0  0
 24 47  1  0  0  0  0
 25 48  1  0  0  0  0
M  END
> <PUBCHEM_COMPOUND_CID>
17395484

> <PUBCHEM_COMPOUND_CANONICALIZED>
1

> <PUBCHEM_CACTVS_COMPLEXITY>
617

> <PUBCHEM_CACTVS_HBOND_ACCEPTOR>
3

> <PUBCHEM_CACTVS_HBOND_DONOR>
0

> <PUBCHEM_CACTVS_ROTATABLE_BOND>
4

> <PUBCHEM_CACTVS_SUBSKEYS>
AAADceB7IAAAAAAAAAAAAAAAAAAAAAAAAAA8QIEAAAAAAACBAAAAHgAAAAAADQjBmAQxAIMAAACoAid2dACCAAEgAgAJiAAYANgIYCKAmRCUIAAghgCIiUcQgMAOAAAAAAAAAAAAAAAAAAAAAAAAAAAAAA==

> <PUBCHEM_IUPAC_OPENEYE_NAME>
2-[(4-benzyl-1-piperidyl)methyl]pyrido[1,2-a]pyrimidin-4-one

> <PUBCHEM_IUPAC_CAS_NAME>
2-[[4-(phenylmethyl)-1-piperidinyl]methyl]-4-pyrido[1,2-a]pyrimidinone

> <PUBCHEM_IUPAC_NAME>
2-[(4-benzylpiperidin-1-yl)methyl]pyrido[1,2-a]pyrimidin-4-one

> <PUBCHEM_IUPAC_SYSTEMATIC_NAME>
2-[[4-(phenylmethyl)piperidin-1-yl]methyl]pyrido[1,2-a]pyrimidin-4-one

> <PUBCHEM_IUPAC_TRADITIONAL_NAME>
2-[(4-benzylpiperidino)methyl]pyrido[1,2-a]pyrimidin-4-one

> <PUBCHEM_IUPAC_INCHI>
InChI=1S/C21H23N3O/c25-21-15-19(22-20-8-4-5-11-24(20)21)16-23-12-9-18(10-13-23)14-17-6-2-1-3-7-17/h1-8,11,15,18H,9-10,12-14,16H2

> <PUBCHEM_IUPAC_INCHIKEY>
MFUVXPVOHWWTDO-UHFFFAOYSA-N

> <PUBCHEM_XLOGP3>
2.7

> <PUBCHEM_EXACT_MASS>
333.184112

> <PUBCHEM_MOLECULAR_FORMULA>
C21H23N3O

> <PUBCHEM_MOLECULAR_WEIGHT>
333.42682

> <PUBCHEM_OPENEYE_CAN_SMILES>
C1CN(CCC1CC2=CC=CC=C2)CC3=CC(=O)N4C=CC=CC4=N3

> <PUBCHEM_OPENEYE_ISO_SMILES>
C1CN(CCC1CC2=CC=CC=C2)CC3=CC(=O)N4C=CC=CC4=N3

> <PUBCHEM_CACTVS_TPSA>
35.9

> <PUBCHEM_MONOISOTOPIC_WEIGHT>
333.184112

> <PUBCHEM_TOTAL_CHARGE>
0

> <PUBCHEM_HEAVY_ATOM_COUNT>
25

> <PUBCHEM_ATOM_DEF_STEREO_COUNT>
0

> <PUBCHEM_ATOM_UDEF_STEREO_COUNT>
0

> <PUBCHEM_BOND_DEF_STEREO_COUNT>
0

> <PUBCHEM_BOND_UDEF_STEREO_COUNT>
0

> <PUBCHEM_ISOTOPIC_ATOM_COUNT>
0

> <PUBCHEM_COMPONENT_COUNT>
1

> <PUBCHEM_CACTVS_TAUTO_COUNT>
1

> <PUBCHEM_COORDINATE_TYPE>
1
5
255

> <PUBCHEM_BONDANNOTATIONS>
12  14  8
12  15  8
13  16  8
14  17  8
15  18  8
16  20  8
17  21  8
18  21  8
19  22  8
22  24  8
23  25  8
24  25  8
3  13  8
3  19  8
4  19  8
4  20  8
4  23  8

$$$$

