47205739
  -OEChem-06241223002D

 33 34  0     0  0  0  0  0  0999 V2000
    4.7320   -3.3364    0.0000 O   0  0  0  0  0  0  0  0  0  0  0  0
    3.8660    0.1636    0.0000 O   0  0  0  0  0  0  0  0  0  0  0  0
    3.8660   -1.8364    0.0000 N   0  0  0  0  0  0  0  0  0  0  0  0
    5.5981    0.1636    0.0000 N   0  0  0  0  0  0  0  0  0  0  0  0
    6.4641    2.6636    0.0000 N   0  0  0  0  0  0  0  0  0  0  0  0
    5.9641    4.2024    0.0000 N   0  0  0  0  0  0  0  0  0  0  0  0
    3.0000   -3.3364    0.0000 C   0  0  0  0  0  0  0  0  0  0  0  0
    2.0000   -3.3364    0.0000 C   0  0  0  0  0  0  0  0  0  0  0  0
    2.5000   -4.2024    0.0000 C   0  0  0  0  0  0  0  0  0  0  0  0
    3.8660   -2.8364    0.0000 C   0  0  0  0  0  0  0  0  0  0  0  0
    4.7320   -1.3364    0.0000 C   0  0  0  0  0  0  0  0  0  0  0  0
    5.5981    1.1636    0.0000 C   0  0  0  0  0  0  0  0  0  0  0  0
    4.7320   -0.3364    0.0000 C   0  0  0  0  0  0  0  0  0  0  0  0
    6.4641    1.6636    0.0000 C   0  0  0  0  0  0  0  0  0  0  0  0
    7.2731    3.2514    0.0000 C   0  0  0  0  0  0  0  0  0  0  0  0
    5.6551    3.2514    0.0000 C   0  0  0  0  0  0  0  0  0  0  0  0
    6.9641    4.2024    0.0000 C   0  0  0  0  0  0  0  0  0  0  0  0
    2.8395   -2.7375    0.0000 H   0  0  0  0  0  0  0  0  0  0  0  0
    1.8923   -2.7258    0.0000 H   0  0  0  0  0  0  0  0  0  0  0  0
    1.4174   -3.5485    0.0000 H   0  0  0  0  0  0  0  0  0  0  0  0
    2.0250   -4.6010    0.0000 H   0  0  0  0  0  0  0  0  0  0  0  0
    2.9750   -4.6010    0.0000 H   0  0  0  0  0  0  0  0  0  0  0  0
    3.3291   -1.5264    0.0000 H   0  0  0  0  0  0  0  0  0  0  0  0
    4.9441   -1.9190    0.0000 H   0  0  0  0  0  0  0  0  0  0  0  0
    5.3426   -1.2288    0.0000 H   0  0  0  0  0  0  0  0  0  0  0  0
    5.3860    1.7462    0.0000 H   0  0  0  0  0  0  0  0  0  0  0  0
    4.9875    1.0559    0.0000 H   0  0  0  0  0  0  0  0  0  0  0  0
    6.6762    1.0810    0.0000 H   0  0  0  0  0  0  0  0  0  0  0  0
    7.0747    1.7712    0.0000 H   0  0  0  0  0  0  0  0  0  0  0  0
    6.1350   -0.1464    0.0000 H   0  0  0  0  0  0  0  0  0  0  0  0
    7.8628    3.0598    0.0000 H   0  0  0  0  0  0  0  0  0  0  0  0
    5.0654    3.0598    0.0000 H   0  0  0  0  0  0  0  0  0  0  0  0
    7.3285    4.7040    0.0000 H   0  0  0  0  0  0  0  0  0  0  0  0
  1 10  2  0  0  0  0
  2 13  2  0  0  0  0
  3 10  1  0  0  0  0
  3 11  1  0  0  0  0
  3 23  1  0  0  0  0
  4 12  1  0  0  0  0
  4 13  1  0  0  0  0
  4 30  1  0  0  0  0
  5 14  1  0  0  0  0
  5 15  1  0  0  0  0
  5 16  1  0  0  0  0
  6 16  2  0  0  0  0
  6 17  1  0  0  0  0
  7  8  1  0  0  0  0
  7  9  1  0  0  0  0
  7 10  1  0  0  0  0
  7 18  1  0  0  0  0
  8  9  1  0  0  0  0
  8 19  1  0  0  0  0
  8 20  1  0  0  0  0
  9 21  1  0  0  0  0
  9 22  1  0  0  0  0
 11 13  1  0  0  0  0
 11 24  1  0  0  0  0
 11 25  1  0  0  0  0
 12 14  1  0  0  0  0
 12 26  1  0  0  0  0
 12 27  1  0  0  0  0
 14 28  1  0  0  0  0
 14 29  1  0  0  0  0
 15 17  2  0  0  0  0
 15 31  1  0  0  0  0
 16 32  1  0  0  0  0
 17 33  1  0  0  0  0
M  END
> <PUBCHEM_COMPOUND_CID>
47205739

> <PUBCHEM_COMPOUND_CANONICALIZED>
1

> <PUBCHEM_CACTVS_COMPLEXITY>
291

> <PUBCHEM_CACTVS_HBOND_ACCEPTOR>
3

> <PUBCHEM_CACTVS_HBOND_DONOR>
2

> <PUBCHEM_CACTVS_ROTATABLE_BOND>
6

> <PUBCHEM_CACTVS_SUBSKEYS>
AAADceBzsAAAAAAAAAAAAAAAGAAAAWAAAAAAAAAAAAAAAAABgAAAHgAQAAAADQDBggQtkBfMEACoABE3dAAAgC0REqAJQIGYMACASBAAiCAUAAAIFgKAACAAAAAAAAAAAAAAAAAAAAAAAAAAAAAAAAAAAA==

> <PUBCHEM_IUPAC_OPENEYE_NAME>
N-[2-(2-imidazol-1-ylethylamino)-2-oxo-ethyl]cyclopropanecarboxamide

> <PUBCHEM_IUPAC_CAS_NAME>
N-[2-[2-(1-imidazolyl)ethylamino]-2-oxoethyl]cyclopropanecarboxamide

> <PUBCHEM_IUPAC_NAME>
N-[2-(2-imidazol-1-ylethylamino)-2-oxoethyl]cyclopropanecarboxamide

> <PUBCHEM_IUPAC_SYSTEMATIC_NAME>
N-[2-(2-imidazol-1-ylethylamino)-2-oxidanylidene-ethyl]cyclopropanecarboxamide

> <PUBCHEM_IUPAC_TRADITIONAL_NAME>
N-[2-(2-imidazol-1-ylethylamino)-2-keto-ethyl]cyclopropanecarboxamide

> <PUBCHEM_IUPAC_INCHI>
InChI=1S/C11H16N4O2/c16-10(7-14-11(17)9-1-2-9)13-4-6-15-5-3-12-8-15/h3,5,8-9H,1-2,4,6-7H2,(H,13,16)(H,14,17)

> <PUBCHEM_IUPAC_INCHIKEY>
XQTWLWNHATXJNG-UHFFFAOYSA-N

> <PUBCHEM_XLOGP3_AA>
-0.9

> <PUBCHEM_EXACT_MASS>
236.127326

> <PUBCHEM_MOLECULAR_FORMULA>
C11H16N4O2

> <PUBCHEM_MOLECULAR_WEIGHT>
236.27034

> <PUBCHEM_OPENEYE_CAN_SMILES>
C1CC1C(=O)NCC(=O)NCCN2C=CN=C2

> <PUBCHEM_OPENEYE_ISO_SMILES>
C1CC1C(=O)NCC(=O)NCCN2C=CN=C2

> <PUBCHEM_CACTVS_TPSA>
76

> <PUBCHEM_MONOISOTOPIC_WEIGHT>
236.127326

> <PUBCHEM_TOTAL_CHARGE>
0

> <PUBCHEM_HEAVY_ATOM_COUNT>
17

> <PUBCHEM_ATOM_DEF_STEREO_COUNT>
0

> <PUBCHEM_ATOM_UDEF_STEREO_COUNT>
0

> <PUBCHEM_BOND_DEF_STEREO_COUNT>
0

> <PUBCHEM_BOND_UDEF_STEREO_COUNT>
0

> <PUBCHEM_ISOTOPIC_ATOM_COUNT>
0

> <PUBCHEM_COMPONENT_COUNT>
1

> <PUBCHEM_CACTVS_TAUTO_COUNT>
4

> <PUBCHEM_COORDINATE_TYPE>
1
5
255

> <PUBCHEM_BONDANNOTATIONS>
15  17  8
5  15  8
5  16  8
6  16  8
6  17  8

$$$$

