583251
  -OEChem-06241222452D

 36 38  0     1  0  0  0  0  0999 V2000
    5.1350    0.2327    0.0000 N   0  0  3  0  0  0  0  0  0  0  0  0
    2.5369   -1.2673    0.0000 N   0  0  0  0  0  0  0  0  0  0  0  0
    4.2690   -0.2673    0.0000 C   0  0  0  0  0  0  0  0  0  0  0  0
    4.2690   -1.2673    0.0000 C   0  0  0  0  0  0  0  0  0  0  0  0
    3.4030    0.2327    0.0000 C   0  0  0  0  0  0  0  0  0  0  0  0
    5.1350    1.2327    0.0000 C   0  0  0  0  0  0  0  0  0  0  0  0
    6.0010   -0.2673    0.0000 C   0  0  0  0  0  0  0  0  0  0  0  0
    3.4030   -1.7673    0.0000 C   0  0  0  0  0  0  0  0  0  0  0  0
    2.5369   -0.2673    0.0000 C   0  0  0  0  0  0  0  0  0  0  0  0
    6.0010    1.7327    0.0000 C   0  0  0  0  0  0  0  0  0  0  0  0
    6.8671    0.2327    0.0000 C   0  0  0  0  0  0  0  0  0  0  0  0
    6.8671    1.2327    0.0000 C   0  0  0  0  0  0  0  0  0  0  0  0
    7.7610   -0.3020    0.0000 C   0  0  0  0  0  0  0  0  0  0  0  0
    7.7610    1.7673    0.0000 C   0  0  0  0  0  0  0  0  0  0  0  0
    8.6671    0.2119    0.0000 C   0  0  0  0  0  0  0  0  0  0  0  0
    8.6671    1.2535    0.0000 C   0  0  0  0  0  0  0  0  0  0  0  0
    4.2690    0.3527    0.0000 H   0  0  0  0  0  0  0  0  0  0  0  0
    3.8015    0.7076    0.0000 H   0  0  0  0  0  0  0  0  0  0  0  0
    3.0044    0.7076    0.0000 H   0  0  0  0  0  0  0  0  0  0  0  0
    4.4810   -1.8499    0.0000 H   0  0  0  0  0  0  0  0  0  0  0  0
    4.8796   -1.1597    0.0000 H   0  0  0  0  0  0  0  0  0  0  0  0
    4.9230    1.8153    0.0000 H   0  0  0  0  0  0  0  0  0  0  0  0
    4.5244    1.1250    0.0000 H   0  0  0  0  0  0  0  0  0  0  0  0
    5.6025   -0.7423    0.0000 H   0  0  0  0  0  0  0  0  0  0  0  0
    6.3996   -0.7423    0.0000 H   0  0  0  0  0  0  0  0  0  0  0  0
    2.3249    0.3153    0.0000 H   0  0  0  0  0  0  0  0  0  0  0  0
    1.9264   -0.3750    0.0000 H   0  0  0  0  0  0  0  0  0  0  0  0
    3.0044   -2.2423    0.0000 H   0  0  0  0  0  0  0  0  0  0  0  0
    3.8015   -2.2423    0.0000 H   0  0  0  0  0  0  0  0  0  0  0  0
    6.3996    2.2076    0.0000 H   0  0  0  0  0  0  0  0  0  0  0  0
    5.6025    2.2076    0.0000 H   0  0  0  0  0  0  0  0  0  0  0  0
    2.0000   -1.5773    0.0000 H   0  0  0  0  0  0  0  0  0  0  0  0
    7.7538   -0.9220    0.0000 H   0  0  0  0  0  0  0  0  0  0  0  0
    7.7538    2.3873    0.0000 H   0  0  0  0  0  0  0  0  0  0  0  0
    9.2028   -0.1002    0.0000 H   0  0  0  0  0  0  0  0  0  0  0  0
    9.2028    1.5656    0.0000 H   0  0  0  0  0  0  0  0  0  0  0  0
  1  3  1  0  0  0  0
  1  6  1  0  0  0  0
  1  7  1  0  0  0  0
  2  8  1  0  0  0  0
  2  9  1  0  0  0  0
  2 32  1  0  0  0  0
  3  4  1  0  0  0  0
  3  5  1  0  0  0  0
  3 17  1  0  0  0  0
  4  8  1  0  0  0  0
  4 20  1  0  0  0  0
  4 21  1  0  0  0  0
  5  9  1  0  0  0  0
  5 18  1  0  0  0  0
  5 19  1  0  0  0  0
  6 10  1  0  0  0  0
  6 22  1  0  0  0  0
  6 23  1  0  0  0  0
  7 11  1  0  0  0  0
  7 24  1  0  0  0  0
  7 25  1  0  0  0  0
  8 28  1  0  0  0  0
  8 29  1  0  0  0  0
  9 26  1  0  0  0  0
  9 27  1  0  0  0  0
 10 12  1  0  0  0  0
 10 30  1  0  0  0  0
 10 31  1  0  0  0  0
 11 12  1  0  0  0  0
 11 13  2  0  0  0  0
 12 14  2  0  0  0  0
 13 15  1  0  0  0  0
 13 33  1  0  0  0  0
 14 16  1  0  0  0  0
 14 34  1  0  0  0  0
 15 16  2  0  0  0  0
 15 35  1  0  0  0  0
 16 36  1  0  0  0  0
M  END
> <PUBCHEM_COMPOUND_CID>
583251

> <PUBCHEM_COMPOUND_CANONICALIZED>
1

> <PUBCHEM_CACTVS_COMPLEXITY>
223

> <PUBCHEM_CACTVS_HBOND_ACCEPTOR>
2

> <PUBCHEM_CACTVS_HBOND_DONOR>
1

> <PUBCHEM_CACTVS_ROTATABLE_BOND>
1

> <PUBCHEM_CACTVS_SUBSKEYS>
AAADceBzAAAAAAAAAAAAAAAAAAAAAAAAAAA8WIAAAAAAAACxAAAAHAAQAAAADCjBGAQwAIPAAACAAiBCAACCAAAgAAAIiIAIBIgIICKA0RGEIAhgkACIiAcQgIAOgAAAAAAQAAAAAAAAACAAAAAAAAAAAA==

> <PUBCHEM_IUPAC_OPENEYE_NAME>
2-(4-piperidyl)-3,4-dihydro-1H-isoquinoline

> <PUBCHEM_IUPAC_CAS_NAME>
2-(4-piperidinyl)-3,4-dihydro-1H-isoquinoline

> <PUBCHEM_IUPAC_NAME>
2-piperidin-4-yl-3,4-dihydro-1H-isoquinoline

> <PUBCHEM_IUPAC_SYSTEMATIC_NAME>
2-piperidin-4-yl-3,4-dihydro-1H-isoquinoline

> <PUBCHEM_IUPAC_TRADITIONAL_NAME>
2-(4-piperidyl)-3,4-dihydro-1H-isoquinoline

> <PUBCHEM_IUPAC_INCHI>
InChI=1S/C14H20N2/c1-2-4-13-11-16(10-7-12(13)3-1)14-5-8-15-9-6-14/h1-4,14-15H,5-11H2

> <PUBCHEM_IUPAC_INCHIKEY>
IKPZUTBWXLFVAL-UHFFFAOYSA-N

> <PUBCHEM_XLOGP3_AA>
1.9

> <PUBCHEM_EXACT_MASS>
216.162649

> <PUBCHEM_MOLECULAR_FORMULA>
C14H20N2

> <PUBCHEM_MOLECULAR_WEIGHT>
216.322

> <PUBCHEM_OPENEYE_CAN_SMILES>
C1CNCCC1N2CCC3=CC=CC=C3C2

> <PUBCHEM_OPENEYE_ISO_SMILES>
C1CNCCC1N2CCC3=CC=CC=C3C2

> <PUBCHEM_CACTVS_TPSA>
15.3

> <PUBCHEM_MONOISOTOPIC_WEIGHT>
216.162649

> <PUBCHEM_TOTAL_CHARGE>
0

> <PUBCHEM_HEAVY_ATOM_COUNT>
16

> <PUBCHEM_ATOM_DEF_STEREO_COUNT>
0

> <PUBCHEM_ATOM_UDEF_STEREO_COUNT>
0

> <PUBCHEM_BOND_DEF_STEREO_COUNT>
0

> <PUBCHEM_BOND_UDEF_STEREO_COUNT>
0

> <PUBCHEM_ISOTOPIC_ATOM_COUNT>
0

> <PUBCHEM_COMPONENT_COUNT>
1

> <PUBCHEM_CACTVS_TAUTO_COUNT>
1

> <PUBCHEM_COORDINATE_TYPE>
1
5
255

> <PUBCHEM_BONDANNOTATIONS>
11  12  8
11  13  8
12  14  8
13  15  8
14  16  8
15  16  8

$$$$

