5281749
  -OEChem-07051212592D

 65 66  0     1  0  0  0  0  0999 V2000
    4.6802   -0.9545    0.0000 O   0  0  0  0  0  0  0  0  0  0  0  0
    4.6802    2.5657    0.0000 O   0  0  0  0  0  0  0  0  0  0  0  0
    8.1756   -1.1559    0.0000 O   0  0  0  0  0  0  0  0  0  0  0  0
    3.0329   -0.4193    0.0000 O   0  0  0  0  0  0  0  0  0  0  0  0
    3.0329    2.0304    0.0000 O   0  0  0  0  0  0  0  0  0  0  0  0
    7.8184   -2.8507    0.0000 O   0  0  0  0  0  0  0  0  0  0  0  0
   11.1112   -1.7746    0.0000 O   0  0  0  0  0  0  0  0  0  0  0  0
   11.4683   -0.0797    0.0000 O   0  0  0  0  0  0  0  0  0  0  0  0
    5.9402    1.3056    0.0000 N   0  0  0  0  0  0  0  0  0  0  0  0
    4.9892   -0.0034    0.0000 C   0  0  2  0  0  0  0  0  0  0  0  0
    4.9892    1.6146    0.0000 C   0  0  2  0  0  0  0  0  0  0  0  0
    4.4014    0.8056    0.0000 C   0  0  0  0  0  0  0  0  0  0  0  0
    5.9402    0.3056    0.0000 C   0  0  0  0  0  0  0  0  0  0  0  0
    6.8865    0.0008    0.0000 C   0  0  0  0  0  0  0  0  0  0  0  0
    6.8865    1.6103    0.0000 C   0  0  0  0  0  0  0  0  0  0  0  0
    7.4701    0.8056    0.0000 C   0  0  0  0  0  0  0  0  0  0  0  0
    7.1971   -0.9497    0.0000 C   0  0  0  0  0  0  0  0  0  0  0  0
    3.7020   -1.1624    0.0000 C   0  0  0  0  0  0  0  0  0  0  0  0
    3.7020    2.7736    0.0000 C   0  0  0  0  0  0  0  0  0  0  0  0
    3.3930   -2.1135    0.0000 C   0  0  0  0  0  0  0  0  0  0  0  0
    3.3930    3.7246    0.0000 C   0  0  0  0  0  0  0  0  0  0  0  0
    8.4863   -2.1064    0.0000 C   0  0  0  0  0  0  0  0  0  0  0  0
    4.0621   -2.8566    0.0000 C   0  0  0  0  0  0  0  0  0  0  0  0
    2.4149   -2.3214    0.0000 C   0  0  0  0  0  0  0  0  0  0  0  0
    9.4648   -2.3126    0.0000 C   0  0  0  0  0  0  0  0  0  0  0  0
    2.1058   -3.2724    0.0000 C   0  0  0  0  0  0  0  0  0  0  0  0
   10.1326   -1.5683    0.0000 C   0  0  0  0  0  0  0  0  0  0  0  0
    9.7755   -3.2632    0.0000 C   0  0  0  0  0  0  0  0  0  0  0  0
   10.7540   -3.4694    0.0000 C   0  0  0  0  0  0  0  0  0  0  0  0
   11.7790   -1.0303    0.0000 C   0  0  0  0  0  0  0  0  0  0  0  0
   12.7575   -1.2365    0.0000 C   0  0  0  0  0  0  0  0  0  0  0  0
   13.4253   -0.4922    0.0000 C   0  0  0  0  0  0  0  0  0  0  0  0
   14.4039   -0.6984    0.0000 C   0  0  0  0  0  0  0  0  0  0  0  0
   13.1147    0.4584    0.0000 C   0  0  0  0  0  0  0  0  0  0  0  0
    4.3768   -0.1004    0.0000 H   0  0  0  0  0  0  0  0  0  0  0  0
    4.3768    1.7116    0.0000 H   0  0  0  0  0  0  0  0  0  0  0  0
    3.9406    1.2204    0.0000 H   0  0  0  0  0  0  0  0  0  0  0  0
    3.9406    0.3907    0.0000 H   0  0  0  0  0  0  0  0  0  0  0  0
    7.0791    2.1996    0.0000 H   0  0  0  0  0  0  0  0  0  0  0  0
    8.0901    0.8056    0.0000 H   0  0  0  0  0  0  0  0  0  0  0  0
    6.5833   -1.0370    0.0000 H   0  0  0  0  0  0  0  0  0  0  0  0
    7.1766   -1.5693    0.0000 H   0  0  0  0  0  0  0  0  0  0  0  0
    3.9827    3.9162    0.0000 H   0  0  0  0  0  0  0  0  0  0  0  0
    3.2014    4.3143    0.0000 H   0  0  0  0  0  0  0  0  0  0  0  0
    2.8034    3.5330    0.0000 H   0  0  0  0  0  0  0  0  0  0  0  0
    3.6014   -3.2715    0.0000 H   0  0  0  0  0  0  0  0  0  0  0  0
    4.4770   -3.3174    0.0000 H   0  0  0  0  0  0  0  0  0  0  0  0
    4.5229   -2.4418    0.0000 H   0  0  0  0  0  0  0  0  0  0  0  0
    2.0000   -1.8606    0.0000 H   0  0  0  0  0  0  0  0  0  0  0  0
    1.5162   -3.0808    0.0000 H   0  0  0  0  0  0  0  0  0  0  0  0
    1.9142   -3.8621    0.0000 H   0  0  0  0  0  0  0  0  0  0  0  0
    2.6955   -3.4640    0.0000 H   0  0  0  0  0  0  0  0  0  0  0  0
   10.3639   -0.9931    0.0000 H   0  0  0  0  0  0  0  0  0  0  0  0
    9.6063   -1.2407    0.0000 H   0  0  0  0  0  0  0  0  0  0  0  0
    9.3614   -3.7246    0.0000 H   0  0  0  0  0  0  0  0  0  0  0  0
   10.6261   -4.0761    0.0000 H   0  0  0  0  0  0  0  0  0  0  0  0
   11.3606   -3.5972    0.0000 H   0  0  0  0  0  0  0  0  0  0  0  0
   10.8818   -2.8627    0.0000 H   0  0  0  0  0  0  0  0  0  0  0  0
   12.9501   -1.8258    0.0000 H   0  0  0  0  0  0  0  0  0  0  0  0
   14.2760   -1.3051    0.0000 H   0  0  0  0  0  0  0  0  0  0  0  0
   15.0105   -0.8262    0.0000 H   0  0  0  0  0  0  0  0  0  0  0  0
   14.5317   -0.0917    0.0000 H   0  0  0  0  0  0  0  0  0  0  0  0
   13.7040    0.6510    0.0000 H   0  0  0  0  0  0  0  0  0  0  0  0
   12.9221    1.0477    0.0000 H   0  0  0  0  0  0  0  0  0  0  0  0
   12.5254    0.2657    0.0000 H   0  0  0  0  0  0  0  0  0  0  0  0
 10  1  1  6  0  0  0
  1 18  1  0  0  0  0
 11  2  1  6  0  0  0
  2 19  1  0  0  0  0
  3 17  1  0  0  0  0
  3 22  1  0  0  0  0
  4 18  2  0  0  0  0
  5 19  2  0  0  0  0
  6 22  2  0  0  0  0
  7 27  1  0  0  0  0
  7 30  1  0  0  0  0
  8 30  2  0  0  0  0
  9 11  1  0  0  0  0
  9 13  1  0  0  0  0
  9 15  1  0  0  0  0
 10 12  1  0  0  0  0
 10 13  1  0  0  0  0
 10 35  1  0  0  0  0
 11 12  1  0  0  0  0
 11 36  1  0  0  0  0
 12 37  1  0  0  0  0
 12 38  1  0  0  0  0
 13 14  2  0  0  0  0
 14 16  1  0  0  0  0
 14 17  1  0  0  0  0
 15 16  2  0  0  0  0
 15 39  1  0  0  0  0
 16 40  1  0  0  0  0
 17 41  1  0  0  0  0
 17 42  1  0  0  0  0
 18 20  1  0  0  0  0
 19 21  1  0  0  0  0
 20 23  1  0  0  0  0
 20 24  2  0  0  0  0
 21 43  1  0  0  0  0
 21 44  1  0  0  0  0
 21 45  1  0  0  0  0
 22 25  1  0  0  0  0
 23 46  1  0  0  0  0
 23 47  1  0  0  0  0
 23 48  1  0  0  0  0
 24 26  1  0  0  0  0
 24 49  1  0  0  0  0
 25 27  1  0  0  0  0
 25 28  2  0  0  0  0
 26 50  1  0  0  0  0
 26 51  1  0  0  0  0
 26 52  1  0  0  0  0
 27 53  1  0  0  0  0
 27 54  1  0  0  0  0
 28 29  1  0  0  0  0
 28 55  1  0  0  0  0
 29 56  1  0  0  0  0
 29 57  1  0  0  0  0
 29 58  1  0  0  0  0
 30 31  1  0  0  0  0
 31 32  2  0  0  0  0
 31 59  1  0  0  0  0
 32 33  1  0  0  0  0
 32 34  1  0  0  0  0
 33 60  1  0  0  0  0
 33 61  1  0  0  0  0
 33 62  1  0  0  0  0
 34 63  1  0  0  0  0
 34 64  1  0  0  0  0
 34 65  1  0  0  0  0
M  END
> <PUBCHEM_COMPOUND_CID>
5281749

> <PUBCHEM_COMPOUND_CANONICALIZED>
1

> <PUBCHEM_CACTVS_COMPLEXITY>
883

> <PUBCHEM_CACTVS_HBOND_ACCEPTOR>
8

> <PUBCHEM_CACTVS_HBOND_DONOR>
0

> <PUBCHEM_CACTVS_ROTATABLE_BOND>
13

> <PUBCHEM_CACTVS_SUBSKEYS>
AAADceB6PAAAAAAAAAAAAAAAAAAAAWLAAAAAAAAAAAAWAAABgAAAHgAAAAAADBzhngY+iJMMFACoAzT3TASCgCAxAiAI2CE4bNgKJubAsZmPEAhn4AHY6Yfw0DIOAAAAAAAAAAAAAAAAAAAAAAAAAAAAAA==

> <PUBCHEM_IUPAC_OPENEYE_NAME>
[(5S,7R)-5-acetoxy-7-[(E)-2-methylbut-2-enoyl]oxy-6,7-dihydro-5H-pyrrolizin-1-yl]methyl (E)-2-(3-methylbut-2-enoyloxymethyl)but-2-enoate

> <PUBCHEM_IUPAC_CAS_NAME>
(E)-2-[(3-methyl-1-oxobut-2-enoxy)methyl]-2-butenoic acid [(5S,7R)-5-acetyloxy-7-[(E)-2-methyl-1-oxobut-2-enoxy]-6,7-dihydro-5H-pyrrolizin-1-yl]methyl ester

> <PUBCHEM_IUPAC_NAME>
[(5S,7R)-5-acetyloxy-7-[(E)-2-methylbut-2-enoyl]oxy-6,7-dihydro-5H-pyrrolizin-1-yl]methyl (E)-2-(3-methylbut-2-enoyloxymethyl)but-2-enoate

> <PUBCHEM_IUPAC_SYSTEMATIC_NAME>
[(5S,7R)-5-acetyloxy-7-[(E)-2-methylbut-2-enoyl]oxy-6,7-dihydro-5H-pyrrolizin-1-yl]methyl (E)-2-(3-methylbut-2-enoyloxymethyl)but-2-enoate

> <PUBCHEM_IUPAC_TRADITIONAL_NAME>
(E)-2-(3-methylbut-2-enoyloxymethyl)but-2-enoic acid [(5S,7R)-5-acetoxy-7-[(E)-2-methylbut-2-enoyl]oxy-6,7-dihydro-5H-pyrrolizin-1-yl]methyl ester

> <PUBCHEM_IUPAC_INCHI>
InChI=1S/C25H31NO8/c1-7-16(5)24(29)34-20-12-21(33-17(6)27)26-10-9-19(23(20)26)14-32-25(30)18(8-2)13-31-22(28)11-15(3)4/h7-11,20-21H,12-14H2,1-6H3/b16-7+,18-8+/t20-,21+/m1/s1

> <PUBCHEM_IUPAC_INCHIKEY>
DZBWFFPQOFEYIE-LSKSLASESA-N

> <PUBCHEM_XLOGP3_AA>
3.4

> <PUBCHEM_EXACT_MASS>
473.204967

> <PUBCHEM_MOLECULAR_FORMULA>
C25H31NO8

> <PUBCHEM_MOLECULAR_WEIGHT>
473.51554

> <PUBCHEM_OPENEYE_CAN_SMILES>
CC=C(C)C(=O)OC1CC(N2C1=C(C=C2)COC(=O)C(=CC)COC(=O)C=C(C)C)OC(=O)C

> <PUBCHEM_OPENEYE_ISO_SMILES>
C/C=C(\C)/C(=O)O[C@@H]1C[C@@H](N2C1=C(C=C2)COC(=O)/C(=C/C)/COC(=O)C=C(C)C)OC(=O)C

> <PUBCHEM_CACTVS_TPSA>
110

> <PUBCHEM_MONOISOTOPIC_WEIGHT>
473.204967

> <PUBCHEM_TOTAL_CHARGE>
0

> <PUBCHEM_HEAVY_ATOM_COUNT>
34

> <PUBCHEM_ATOM_DEF_STEREO_COUNT>
2

> <PUBCHEM_ATOM_UDEF_STEREO_COUNT>
0

> <PUBCHEM_BOND_DEF_STEREO_COUNT>
2

> <PUBCHEM_BOND_UDEF_STEREO_COUNT>
0

> <PUBCHEM_ISOTOPIC_ATOM_COUNT>
0

> <PUBCHEM_COMPONENT_COUNT>
1

> <PUBCHEM_CACTVS_TAUTO_COUNT>
1

> <PUBCHEM_COORDINATE_TYPE>
1
5
255

> <PUBCHEM_BONDANNOTATIONS>
10  1  6
13  14  8
14  16  8
15  16  8
11  2  6
9  13  8
9  15  8

$$$$

