   Color/Form
        Colorless liquid
   from [1]HSDB

   Odor

     * Sweet
     * Chloroform-like odor.

   from [2]HSDB

   Boiling Point
        96.4 deg C; (-3.7 deg C at 10 mm Hg)
   from [3]HSDB

   Melting Point
        -100.4 deg C
   from [4]HSDB

   Corrosivity
        ... It will attack some forms of plastics, rubber, & coatings.
   from [5]HSDB

   Density/Specific Gravity
        1.159 @ 25 deg C/25 deg C
   from [6]HSDB

   Heat of Combustion
        -7300 Btu/lb= -4100 cal/g= -170x10+5 J/kg (est)
   from [7]HSDB

   Heat of Vaporization
        8,428.5 g cal/g mole (multiply by 4.184 for J/g mole)
   from [8]HSDB

   Octanol/Water Partition Coefficient
        log Kow = 1.98
   from [9]HSDB

   Solubilities

     * Sol in alcohol, ether, benzene and chloroform
     * Miscible with org solvents
     * In water, 2,800 mg/l @ 25 deg C

   from [10]HSDB

   Spectral Properties

     * Sadtler reference number: 3208 (IR, Prism); 10981 (IR, Grating); 30
       (NMR, VARIAN)
     * Index of refraction: 1.4388 at 20 deg C/D
     * IR: 5994 (Coblentz Society Spectral Collection)
     * NMR: 30 (Varian Associates NMR Spectra Catalogue)
     * MS: NIST 3459 (NIST/EPA/MCDC Mass Spectral Database 1990 version);
       WILEY 370 (Atlas of Mass Spectral Data)

   from [11]HSDB

   Surface Tension
        29 dynes/cm = 0.029 N/m at 20 deg C
   from [12]HSDB

   Vapor Density
        3.9 (AIR= 1)
   from [13]HSDB

   Vapor Pressure
        53.3 mm Hg @ 25 deg C
   from [14]HSDB

   Relative Evaporation Rate
        Greater than 1 (butyl acetate= 1)
   from [15]HSDB

   Other Chemical/Physical Properties

     * Wt/gal: 9.6 lb @ 20 deg C
     * Heat of Fusion: 13.53 cal/g (56.61 J/g; 6,396 J/mol)
     * Air pollution factors: 1 mg/cu m = 0.21 ppm, 1 ppm = 4.62 mg/cu m.
       Saturation concn: 258 g/cu m @ 20 deg C, 393 g/cu m @ 30 deg C
     * Henry's Law constant = 2.82X10-3 atm-cu m/mole @ 25 deg C

   from [16]HSDB

   Computed Properties
   Molecular Weight                  112.98574 [g/mol]
   Molecular Formula                 C[3]H[6]Cl[2]
   XLogP3-AA                         1.8
   H-Bond Donor                      0
   H-Bond Acceptor                   0
   Rotatable Bond Count              1
   Exact Mass                        111.984656
   MonoIsotopic Mass                 111.984656
   Topological Polar Surface Area    0
   Heavy Atom Count                  5
   Formal Charge                     0
   Complexity                        20.9
   Isotope Atom Count                0
   Defined Atom Stereocenter Count   0
   Undefined Atom Stereocenter Count 1
   Defined Bond Stereocenter Count   0
   Undefined Bond Stereocenter Count 0
   Covalently-Bonded Unit Count      1
   Effective Rotor Count             1
   Conformer Sampling RMSD           0.4
   CID Conformer Count               [17]6

References

   1. http://toxnet.nlm.nih.gov/cgi-bin/sis/search/r?dbs+hsdb:@term+@rn+@rel+78-87-5
   2. http://toxnet.nlm.nih.gov/cgi-bin/sis/search/r?dbs+hsdb:@term+@rn+@rel+78-87-5
   3. http://toxnet.nlm.nih.gov/cgi-bin/sis/search/r?dbs+hsdb:@term+@rn+@rel+78-87-5
   4. http://toxnet.nlm.nih.gov/cgi-bin/sis/search/r?dbs+hsdb:@term+@rn+@rel+78-87-5
   5. http://toxnet.nlm.nih.gov/cgi-bin/sis/search/r?dbs+hsdb:@term+@rn+@rel+78-87-5
   6. http://toxnet.nlm.nih.gov/cgi-bin/sis/search/r?dbs+hsdb:@term+@rn+@rel+78-87-5
   7. http://toxnet.nlm.nih.gov/cgi-bin/sis/search/r?dbs+hsdb:@term+@rn+@rel+78-87-5
   8. http://toxnet.nlm.nih.gov/cgi-bin/sis/search/r?dbs+hsdb:@term+@rn+@rel+78-87-5
   9. http://toxnet.nlm.nih.gov/cgi-bin/sis/search/r?dbs+hsdb:@term+@rn+@rel+78-87-5
  10. http://toxnet.nlm.nih.gov/cgi-bin/sis/search/r?dbs+hsdb:@term+@rn+@rel+78-87-5
  11. http://toxnet.nlm.nih.gov/cgi-bin/sis/search/r?dbs+hsdb:@term+@rn+@rel+78-87-5
  12. http://toxnet.nlm.nih.gov/cgi-bin/sis/search/r?dbs+hsdb:@term+@rn+@rel+78-87-5
  13. http://toxnet.nlm.nih.gov/cgi-bin/sis/search/r?dbs+hsdb:@term+@rn+@rel+78-87-5
  14. http://toxnet.nlm.nih.gov/cgi-bin/sis/search/r?dbs+hsdb:@term+@rn+@rel+78-87-5
  15. http://toxnet.nlm.nih.gov/cgi-bin/sis/search/r?dbs+hsdb:@term+@rn+@rel+78-87-5
  16. http://toxnet.nlm.nih.gov/cgi-bin/sis/search/r?dbs+hsdb:@term+@rn+@rel+78-87-5
  17. http://pubchem.ncbi.nlm.nih.gov/vw3d/vw3d.cgi?cid=6564
