11953921
  -OEChem-07051212562D

 42 43  0     1  0  0  0  0  0999 V2000
    6.4103   -2.6966    0.0000 O   0  0  0  0  0  0  0  0  0  0  0  0
    6.7210   -0.1366    0.0000 O   0  0  0  0  0  0  0  0  0  0  0  0
    5.0746    0.4015    0.0000 O   0  0  0  0  0  0  0  0  0  0  0  0
    2.8660    0.1082    0.0000 O   0  0  0  0  0  0  0  0  0  0  0  0
    6.4103   -1.0871    0.0000 C   0  0  1  0  0  0  0  0  0  0  0  0
    6.9939   -1.8918    0.0000 C   0  0  2  0  0  0  0  0  0  0  0  0
    5.4641   -1.3918    0.0000 C   0  0  0  0  0  0  0  0  0  0  0  0
    5.4641   -2.3918    0.0000 C   0  0  0  0  0  0  0  0  0  0  0  0
    7.9939   -1.8918    0.0000 C   0  0  0  0  0  0  0  0  0  0  0  0
    4.5981   -0.8918    0.0000 C   0  0  0  0  0  0  0  0  0  0  0  0
    4.5981   -2.8918    0.0000 C   0  0  0  0  0  0  0  0  0  0  0  0
    3.7320   -1.3918    0.0000 C   0  0  0  0  0  0  0  0  0  0  0  0
    3.7320   -2.3918    0.0000 C   0  0  0  0  0  0  0  0  0  0  0  0
    8.4939   -2.7579    0.0000 C   0  0  0  0  0  0  0  0  0  0  0  0
    8.4939   -1.0258    0.0000 C   0  0  0  0  0  0  0  0  0  0  0  0
    6.0531    0.6077    0.0000 C   0  0  0  0  0  0  0  0  0  0  0  0
    2.8660   -0.8918    0.0000 C   0  0  0  0  0  0  0  0  0  0  0  0
    6.3638    1.5582    0.0000 C   0  0  0  0  0  0  0  0  0  0  0  0
    2.0000   -1.3918    0.0000 C   0  0  0  0  0  0  0  0  0  0  0  0
    7.3423    1.7644    0.0000 C   0  0  0  0  0  0  0  0  0  0  0  0
    5.6960    2.3025    0.0000 C   0  0  0  0  0  0  0  0  0  0  0  0
    4.7175    2.0963    0.0000 C   0  0  0  0  0  0  0  0  0  0  0  0
    5.9729   -0.6478    0.0000 H   0  0  0  0  0  0  0  0  0  0  0  0
    7.2756   -2.4442    0.0000 H   0  0  0  0  0  0  0  0  0  0  0  0
    4.5981   -0.2718    0.0000 H   0  0  0  0  0  0  0  0  0  0  0  0
    4.5981   -3.5118    0.0000 H   0  0  0  0  0  0  0  0  0  0  0  0
    3.1951   -2.7018    0.0000 H   0  0  0  0  0  0  0  0  0  0  0  0
    7.9570   -3.0679    0.0000 H   0  0  0  0  0  0  0  0  0  0  0  0
    8.8039   -3.2948    0.0000 H   0  0  0  0  0  0  0  0  0  0  0  0
    9.0309   -2.4479    0.0000 H   0  0  0  0  0  0  0  0  0  0  0  0
    9.1139   -1.0258    0.0000 H   0  0  0  0  0  0  0  0  0  0  0  0
    8.1839   -0.4889    0.0000 H   0  0  0  0  0  0  0  0  0  0  0  0
    1.6900   -0.8549    0.0000 H   0  0  0  0  0  0  0  0  0  0  0  0
    1.4631   -1.7018    0.0000 H   0  0  0  0  0  0  0  0  0  0  0  0
    2.3100   -1.9288    0.0000 H   0  0  0  0  0  0  0  0  0  0  0  0
    7.4702    1.1578    0.0000 H   0  0  0  0  0  0  0  0  0  0  0  0
    7.9490    1.8923    0.0000 H   0  0  0  0  0  0  0  0  0  0  0  0
    7.2144    2.3711    0.0000 H   0  0  0  0  0  0  0  0  0  0  0  0
    5.8886    2.8918    0.0000 H   0  0  0  0  0  0  0  0  0  0  0  0
    4.5896    2.7030    0.0000 H   0  0  0  0  0  0  0  0  0  0  0  0
    4.1108    1.9684    0.0000 H   0  0  0  0  0  0  0  0  0  0  0  0
    4.8453    1.4896    0.0000 H   0  0  0  0  0  0  0  0  0  0  0  0
  1  6  1  0  0  0  0
  1  8  1  0  0  0  0
  5  2  1  1  0  0  0
  2 16  1  0  0  0  0
  3 16  2  0  0  0  0
  4 17  2  0  0  0  0
  5  6  1  0  0  0  0
  5  7  1  0  0  0  0
  5 23  1  0  0  0  0
  6  9  1  6  0  0  0
  6 24  1  0  0  0  0
  7  8  2  0  0  0  0
  7 10  1  0  0  0  0
  8 11  1  0  0  0  0
  9 14  1  0  0  0  0
  9 15  2  0  0  0  0
 10 12  2  0  0  0  0
 10 25  1  0  0  0  0
 11 13  2  0  0  0  0
 11 26  1  0  0  0  0
 12 13  1  0  0  0  0
 12 17  1  0  0  0  0
 13 27  1  0  0  0  0
 14 28  1  0  0  0  0
 14 29  1  0  0  0  0
 14 30  1  0  0  0  0
 15 31  1  0  0  0  0
 15 32  1  0  0  0  0
 16 18  1  0  0  0  0
 17 19  1  0  0  0  0
 18 20  1  0  0  0  0
 18 21  2  0  0  0  0
 19 33  1  0  0  0  0
 19 34  1  0  0  0  0
 19 35  1  0  0  0  0
 20 36  1  0  0  0  0
 20 37  1  0  0  0  0
 20 38  1  0  0  0  0
 21 22  1  0  0  0  0
 21 39  1  0  0  0  0
 22 40  1  0  0  0  0
 22 41  1  0  0  0  0
 22 42  1  0  0  0  0
M  END
> <PUBCHEM_COMPOUND_CID>
11953921

> <PUBCHEM_COMPOUND_CANONICALIZED>
1

> <PUBCHEM_CACTVS_COMPLEXITY>
505

> <PUBCHEM_CACTVS_HBOND_ACCEPTOR>
4

> <PUBCHEM_CACTVS_HBOND_DONOR>
0

> <PUBCHEM_CACTVS_ROTATABLE_BOND>
5

> <PUBCHEM_CACTVS_SUBSKEYS>
AAADceB4OAAAAAAAAAAAAAAAAAAAASAAAAAwAAAAAAAAAEgBAAAAGgAAAAAADBSgmAIyDoAABACIAqDSCAACCAAkIAAIiAEGCMgNJzKENRqCOSClwBEKqYeIzPDOIAACAAAIAABAAAQAABAAAAAAAAAAAA==

> <PUBCHEM_IUPAC_OPENEYE_NAME>
[(2S,3R)-5-acetyl-2-isopropenyl-2,3-dihydrobenzofuran-3-yl] (Z)-2-methylbut-2-enoate

> <PUBCHEM_IUPAC_CAS_NAME>
(Z)-2-methyl-2-butenoic acid [(2S,3R)-5-acetyl-2-(1-methylethenyl)-2,3-dihydrobenzofuran-3-yl] ester

> <PUBCHEM_IUPAC_NAME>
[(2S,3R)-5-acetyl-2-prop-1-en-2-yl-2,3-dihydro-1-benzofuran-3-yl] (Z)-2-methylbut-2-enoate

> <PUBCHEM_IUPAC_SYSTEMATIC_NAME>
[(2S,3R)-5-ethanoyl-2-prop-1-en-2-yl-2,3-dihydro-1-benzofuran-3-yl] (Z)-2-methylbut-2-enoate

> <PUBCHEM_IUPAC_TRADITIONAL_NAME>
(Z)-2-methylbut-2-enoic acid [(2S,3R)-5-acetyl-2-isopropenyl-coumaran-3-yl] ester

> <PUBCHEM_IUPAC_INCHI>
InChI=1S/C18H20O4/c1-6-11(4)18(20)22-17-14-9-13(12(5)19)7-8-15(14)21-16(17)10(2)3/h6-9,16-17H,2H2,1,3-5H3/b11-6-/t16-,17+/m0/s1

> <PUBCHEM_IUPAC_INCHIKEY>
LQUPQVIPBLTZNW-WGTSBNPKSA-N

> <PUBCHEM_XLOGP3_AA>
3.6

> <PUBCHEM_EXACT_MASS>
300.136159

> <PUBCHEM_MOLECULAR_FORMULA>
C18H20O4

> <PUBCHEM_MOLECULAR_WEIGHT>
300.349

> <PUBCHEM_OPENEYE_CAN_SMILES>
CC=C(C)C(=O)OC1C(OC2=C1C=C(C=C2)C(=O)C)C(=C)C

> <PUBCHEM_OPENEYE_ISO_SMILES>
C/C=C(/C)\C(=O)O[C@H]1[C@@H](OC2=C1C=C(C=C2)C(=O)C)C(=C)C

> <PUBCHEM_CACTVS_TPSA>
52.6

> <PUBCHEM_MONOISOTOPIC_WEIGHT>
300.136159

> <PUBCHEM_TOTAL_CHARGE>
0

> <PUBCHEM_HEAVY_ATOM_COUNT>
22

> <PUBCHEM_ATOM_DEF_STEREO_COUNT>
2

> <PUBCHEM_ATOM_UDEF_STEREO_COUNT>
0

> <PUBCHEM_BOND_DEF_STEREO_COUNT>
1

> <PUBCHEM_BOND_UDEF_STEREO_COUNT>
0

> <PUBCHEM_ISOTOPIC_ATOM_COUNT>
0

> <PUBCHEM_COMPONENT_COUNT>
1

> <PUBCHEM_CACTVS_TAUTO_COUNT>
2

> <PUBCHEM_COORDINATE_TYPE>
1
5
255

> <PUBCHEM_BONDANNOTATIONS>
10  12  8
11  13  8
12  13  8
5  2  5
6  9  6
7  10  8
7  8  8
8  11  8

$$$$

