6506548
  -OEChem-07051213092D

 35 36  0     0  0  0  0  0  0999 V2000
    4.3723    2.1844    0.0000 O   0  0  0  0  0  0  0  0  0  0  0  0
    2.8495   -0.7874    0.0000 O   0  0  0  0  0  0  0  0  0  0  0  0
    5.4476    0.7126    0.0000 C   0  0  0  0  0  0  0  0  0  0  0  0
    4.5816    1.2126    0.0000 C   0  0  0  0  0  0  0  0  0  0  0  0
    6.3136   -1.7874    0.0000 C   0  0  0  0  0  0  0  0  0  0  0  0
    5.4476   -2.2874    0.0000 C   0  0  0  0  0  0  0  0  0  0  0  0
    3.7155    0.7126    0.0000 C   0  0  0  0  0  0  0  0  0  0  0  0
    5.4476   -0.2874    0.0000 C   0  0  0  0  0  0  0  0  0  0  0  0
    6.3136   -0.7874    0.0000 C   0  0  0  0  0  0  0  0  0  0  0  0
    4.5816   -1.7874    0.0000 C   0  0  0  0  0  0  0  0  0  0  0  0
    2.9785    1.3796    0.0000 C   0  0  0  0  0  0  0  0  0  0  0  0
    3.7155   -0.2874    0.0000 C   0  0  0  0  0  0  0  0  0  0  0  0
    4.5816   -0.7874    0.0000 C   0  0  0  0  0  0  0  0  0  0  0  0
    3.9910   -0.8175    0.0000 C   0  0  0  0  0  0  0  0  0  0  0  0
    3.3836    2.2874    0.0000 C   0  0  0  0  0  0  0  0  0  0  0  0
    3.7155   -2.2874    0.0000 C   0  0  0  0  0  0  0  0  0  0  0  0
    2.0000    1.1734    0.0000 C   0  0  0  0  0  0  0  0  0  0  0  0
    6.0582    0.6049    0.0000 H   0  0  0  0  0  0  0  0  0  0  0  0
    5.6596    1.2952    0.0000 H   0  0  0  0  0  0  0  0  0  0  0  0
    6.5256   -2.3700    0.0000 H   0  0  0  0  0  0  0  0  0  0  0  0
    6.9242   -1.6798    0.0000 H   0  0  0  0  0  0  0  0  0  0  0  0
    5.0490   -2.7624    0.0000 H   0  0  0  0  0  0  0  0  0  0  0  0
    5.8461   -2.7624    0.0000 H   0  0  0  0  0  0  0  0  0  0  0  0
    6.8505   -0.4774    0.0000 H   0  0  0  0  0  0  0  0  0  0  0  0
    5.1921   -0.8951    0.0000 H   0  0  0  0  0  0  0  0  0  0  0  0
    3.7790   -0.2349    0.0000 H   0  0  0  0  0  0  0  0  0  0  0  0
    3.4084   -1.0296    0.0000 H   0  0  0  0  0  0  0  0  0  0  0  0
    4.2031   -1.4001    0.0000 H   0  0  0  0  0  0  0  0  0  0  0  0
    3.0736    2.8244    0.0000 H   0  0  0  0  0  0  0  0  0  0  0  0
    3.4055   -1.7505    0.0000 H   0  0  0  0  0  0  0  0  0  0  0  0
    3.1786   -2.5974    0.0000 H   0  0  0  0  0  0  0  0  0  0  0  0
    4.0255   -2.8244    0.0000 H   0  0  0  0  0  0  0  0  0  0  0  0
    1.8721    1.7801    0.0000 H   0  0  0  0  0  0  0  0  0  0  0  0
    1.3933    1.0456    0.0000 H   0  0  0  0  0  0  0  0  0  0  0  0
    2.1279    0.5668    0.0000 H   0  0  0  0  0  0  0  0  0  0  0  0
  1  4  1  0  0  0  0
  1 15  1  0  0  0  0
  2 12  2  0  0  0  0
  3  4  1  0  0  0  0
  3  8  1  0  0  0  0
  3 18  1  0  0  0  0
  3 19  1  0  0  0  0
  4  7  2  0  0  0  0
  5  6  1  0  0  0  0
  5  9  1  0  0  0  0
  5 20  1  0  0  0  0
  5 21  1  0  0  0  0
  6 10  1  0  0  0  0
  6 22  1  0  0  0  0
  6 23  1  0  0  0  0
  7 11  1  0  0  0  0
  7 12  1  0  0  0  0
  8  9  2  0  0  0  0
  8 14  1  0  0  0  0
  9 24  1  0  0  0  0
 10 13  2  0  0  0  0
 10 16  1  0  0  0  0
 11 15  2  0  0  0  0
 11 17  1  0  0  0  0
 12 13  1  0  0  0  0
 13 25  1  0  0  0  0
 14 26  1  0  0  0  0
 14 27  1  0  0  0  0
 14 28  1  0  0  0  0
 15 29  1  0  0  0  0
 16 30  1  0  0  0  0
 16 31  1  0  0  0  0
 16 32  1  0  0  0  0
 17 33  1  0  0  0  0
 17 34  1  0  0  0  0
 17 35  1  0  0  0  0
M  END
> <PUBCHEM_COMPOUND_CID>
6506548

> <PUBCHEM_COMPOUND_CANONICALIZED>
1

> <PUBCHEM_CACTVS_COMPLEXITY>
365

> <PUBCHEM_CACTVS_HBOND_ACCEPTOR>
2

> <PUBCHEM_CACTVS_HBOND_DONOR>
0

> <PUBCHEM_CACTVS_ROTATABLE_BOND>
0

> <PUBCHEM_CACTVS_SUBSKEYS>
AAADceBwMAAAAAAAAAAAAAAAAAAAASAAAAAAAAAAAAAAAACBgAAAGgAAAAAADASgmAIiBIAABECIAqhSgAACCAAkIAAAiAEECMgMJjaMNRqCGWCk4BEIqQeLyGCOgAAAAAAAAAAAAAAAAAAAAAAAAAAAAA==

> <PUBCHEM_IUPAC_OPENEYE_NAME>
(5E,9E)-3,6,10-trimethyl-8,11-dihydro-7H-cyclodeca[b]furan-4-one

> <PUBCHEM_IUPAC_CAS_NAME>
(5E,9E)-3,6,10-trimethyl-8,11-dihydro-7H-cyclodeca[b]furan-4-one

> <PUBCHEM_IUPAC_NAME>
(5E,9E)-3,6,10-trimethyl-8,11-dihydro-7H-cyclodeca[b]furan-4-one

> <PUBCHEM_IUPAC_SYSTEMATIC_NAME>
(5E,9E)-3,6,10-trimethyl-8,11-dihydro-7H-cyclodeca[b]furan-4-one

> <PUBCHEM_IUPAC_TRADITIONAL_NAME>
(5E,9E)-3,6,10-trimethyl-8,11-dihydro-7H-cyclodeca[b]furan-4-one

> <PUBCHEM_IUPAC_INCHI>
InChI=1S/C15H18O2/c1-10-5-4-6-11(2)8-14-15(13(16)7-10)12(3)9-17-14/h6-7,9H,4-5,8H2,1-3H3/b10-7+,11-6+

> <PUBCHEM_IUPAC_INCHIKEY>
XVOHELPNOXGRBQ-NXAIOARDSA-N

> <PUBCHEM_XLOGP3_AA>
2.9

> <PUBCHEM_EXACT_MASS>
230.13068

> <PUBCHEM_MOLECULAR_FORMULA>
C15H18O2

> <PUBCHEM_MOLECULAR_WEIGHT>
230.30222

> <PUBCHEM_OPENEYE_CAN_SMILES>
CC1=CC(=O)C2=C(CC(=CCC1)C)OC=C2C

> <PUBCHEM_OPENEYE_ISO_SMILES>
C/C/1=C\C(=O)C2=C(C/C(=C/CC1)/C)OC=C2C

> <PUBCHEM_CACTVS_TPSA>
30.2

> <PUBCHEM_MONOISOTOPIC_WEIGHT>
230.13068

> <PUBCHEM_TOTAL_CHARGE>
0

> <PUBCHEM_HEAVY_ATOM_COUNT>
17

> <PUBCHEM_ATOM_DEF_STEREO_COUNT>
0

> <PUBCHEM_ATOM_UDEF_STEREO_COUNT>
0

> <PUBCHEM_BOND_DEF_STEREO_COUNT>
2

> <PUBCHEM_BOND_UDEF_STEREO_COUNT>
0

> <PUBCHEM_ISOTOPIC_ATOM_COUNT>
0

> <PUBCHEM_COMPONENT_COUNT>
1

> <PUBCHEM_CACTVS_TAUTO_COUNT>
5

> <PUBCHEM_COORDINATE_TYPE>
1
5
255

> <PUBCHEM_BONDANNOTATIONS>
1  15  8
1  4  8
11  15  8
4  7  8
7  11  8

$$$$

