442439
  -OEChem-07051212582D

 77 81  0     1  0  0  0  0  0999 V2000
   12.4545    0.8990    0.0000 O   0  0  0  0  0  0  0  0  0  0  0  0
   11.5981   -1.6044    0.0000 O   0  0  0  0  0  0  0  0  0  0  0  0
   14.1865    0.9056    0.0000 O   0  0  0  0  0  0  0  0  0  0  0  0
   10.7263   -0.1077    0.0000 O   0  0  0  0  0  0  0  0  0  0  0  0
   14.1904   -0.0944    0.0000 O   0  0  0  0  0  0  0  0  0  0  0  0
   14.1981   -2.0944    0.0000 O   0  0  0  0  0  0  0  0  0  0  0  0
   12.4468    2.8989    0.0000 O   0  0  0  0  0  0  0  0  0  0  0  0
   14.1749    3.9056    0.0000 O   0  0  0  0  0  0  0  0  0  0  0  0
   15.9108    2.9123    0.0000 O   0  0  0  0  0  0  0  0  0  0  0  0
   13.3378   -3.5977    0.0000 O   0  0  0  0  0  0  0  0  0  0  0  0
    7.1962   -0.1319    0.0000 O   0  0  0  0  0  0  0  0  0  0  0  0
    8.9446   -3.1665    0.0000 O   0  0  0  0  0  0  0  0  0  0  0  0
    7.1962   -3.1319    0.0000 O   0  0  0  0  0  0  0  0  0  0  0  0
    4.5981    2.3681    0.0000 O   0  0  0  0  0  0  0  0  0  0  0  0
    2.8660    1.3681    0.0000 O   0  0  0  0  0  0  0  0  0  0  0  0
   12.4583   -0.1010    0.0000 C   0  0  2  0  0  0  0  0  0  0  0  0
   13.3263   -0.5977    0.0000 C   0  0  2  0  0  0  0  0  0  0  0  0
   13.3301   -1.5977    0.0000 C   0  0  1  0  0  0  0  0  0  0  0  0
   13.3186    1.4023    0.0000 C   0  0  2  0  0  0  0  0  0  0  0  0
   11.5942   -0.6044    0.0000 C   0  0  1  0  0  0  0  0  0  0  0  0
   13.3147    2.4023    0.0000 C   0  0  1  0  0  0  0  0  0  0  0  0
   12.4660   -2.1010    0.0000 C   0  0  1  0  0  0  0  0  0  0  0  0
   14.1788    2.9056    0.0000 C   0  0  1  0  0  0  0  0  0  0  0  0
   15.0467    2.4090    0.0000 C   0  0  2  0  0  0  0  0  0  0  0  0
   15.0506    1.4090    0.0000 C   0  0  2  0  0  0  0  0  0  0  0  0
   12.4699   -3.1010    0.0000 C   0  0  0  0  0  0  0  0  0  0  0  0
   15.9185    0.9123    0.0000 C   0  0  0  0  0  0  0  0  0  0  0  0
    9.8622   -0.6111    0.0000 C   0  0  0  0  0  0  0  0  0  0  0  0
    8.9561   -0.0972    0.0000 C   0  0  0  0  0  0  0  0  0  0  0  0
    9.8622   -1.6527    0.0000 C   0  0  0  0  0  0  0  0  0  0  0  0
    8.0622   -0.6319    0.0000 C   0  0  0  0  0  0  0  0  0  0  0  0
    8.0622   -1.6319    0.0000 C   0  0  0  0  0  0  0  0  0  0  0  0
    6.3301   -0.6319    0.0000 C   0  0  1  0  0  0  0  0  0  0  0  0
    8.9561   -2.1665    0.0000 C   0  0  0  0  0  0  0  0  0  0  0  0
    6.3301   -1.6319    0.0000 C   0  0  0  0  0  0  0  0  0  0  0  0
    7.1962   -2.1319    0.0000 C   0  0  0  0  0  0  0  0  0  0  0  0
    5.4641   -0.1319    0.0000 C   0  0  0  0  0  0  0  0  0  0  0  0
    5.4641    0.8681    0.0000 C   0  0  0  0  0  0  0  0  0  0  0  0
    4.5981   -0.6319    0.0000 C   0  0  0  0  0  0  0  0  0  0  0  0
    4.5981    1.3681    0.0000 C   0  0  0  0  0  0  0  0  0  0  0  0
    3.7320   -0.1319    0.0000 C   0  0  0  0  0  0  0  0  0  0  0  0
    3.7320    0.8681    0.0000 C   0  0  0  0  0  0  0  0  0  0  0  0
    2.0000    0.8681    0.0000 C   0  0  0  0  0  0  0  0  0  0  0  0
   11.9202    0.2069    0.0000 H   0  0  0  0  0  0  0  0  0  0  0  0
   13.3239    0.0223    0.0000 H   0  0  0  0  0  0  0  0  0  0  0  0
   13.8659   -1.2856    0.0000 H   0  0  0  0  0  0  0  0  0  0  0  0
   13.3209    0.7823    0.0000 H   0  0  0  0  0  0  0  0  0  0  0  0
   11.5918    0.0156    0.0000 H   0  0  0  0  0  0  0  0  0  0  0  0
   12.7790    2.0902    0.0000 H   0  0  0  0  0  0  0  0  0  0  0  0
   11.9303   -2.4131    0.0000 H   0  0  0  0  0  0  0  0  0  0  0  0
   14.7145    3.2177    0.0000 H   0  0  0  0  0  0  0  0  0  0  0  0
   15.5849    2.1010    0.0000 H   0  0  0  0  0  0  0  0  0  0  0  0
   15.0530    0.7890    0.0000 H   0  0  0  0  0  0  0  0  0  0  0  0
   11.8589   -2.9957    0.0000 H   0  0  0  0  0  0  0  0  0  0  0  0
   12.2601   -3.6844    0.0000 H   0  0  0  0  0  0  0  0  0  0  0  0
   15.6106    0.3742    0.0000 H   0  0  0  0  0  0  0  0  0  0  0  0
   16.4567    0.6044    0.0000 H   0  0  0  0  0  0  0  0  0  0  0  0
   16.2265    1.4504    0.0000 H   0  0  0  0  0  0  0  0  0  0  0  0
   14.7285   -0.4023    0.0000 H   0  0  0  0  0  0  0  0  0  0  0  0
   14.7338   -1.7823    0.0000 H   0  0  0  0  0  0  0  0  0  0  0  0
   12.4444    3.5189    0.0000 H   0  0  0  0  0  0  0  0  0  0  0  0
   14.7107    4.2177    0.0000 H   0  0  0  0  0  0  0  0  0  0  0  0
   16.4490    2.6044    0.0000 H   0  0  0  0  0  0  0  0  0  0  0  0
   13.3402   -4.2177    0.0000 H   0  0  0  0  0  0  0  0  0  0  0  0
    8.9490    0.5228    0.0000 H   0  0  0  0  0  0  0  0  0  0  0  0
   10.3979   -1.9648    0.0000 H   0  0  0  0  0  0  0  0  0  0  0  0
    5.7932   -0.9419    0.0000 H   0  0  0  0  0  0  0  0  0  0  0  0
    5.7196   -1.5242    0.0000 H   0  0  0  0  0  0  0  0  0  0  0  0
    6.1181   -2.2145    0.0000 H   0  0  0  0  0  0  0  0  0  0  0  0
    6.0010    1.1781    0.0000 H   0  0  0  0  0  0  0  0  0  0  0  0
    4.5981   -1.2519    0.0000 H   0  0  0  0  0  0  0  0  0  0  0  0
    9.4779   -3.4826    0.0000 H   0  0  0  0  0  0  0  0  0  0  0  0
    3.1951   -0.4419    0.0000 H   0  0  0  0  0  0  0  0  0  0  0  0
    4.0611    2.6781    0.0000 H   0  0  0  0  0  0  0  0  0  0  0  0
    1.6900    1.4051    0.0000 H   0  0  0  0  0  0  0  0  0  0  0  0
    1.4631    0.5581    0.0000 H   0  0  0  0  0  0  0  0  0  0  0  0
    2.3100    0.3312    0.0000 H   0  0  0  0  0  0  0  0  0  0  0  0
 16  1  1  6  0  0  0
 19  1  1  1  0  0  0
  2 20  1  0  0  0  0
  2 22  1  0  0  0  0
  3 19  1  0  0  0  0
  3 25  1  0  0  0  0
 20  4  1  1  0  0  0
  4 28  1  0  0  0  0
 17  5  1  1  0  0  0
  5 59  1  0  0  0  0
 18  6  1  6  0  0  0
  6 60  1  0  0  0  0
 21  7  1  6  0  0  0
  7 61  1  0  0  0  0
 23  8  1  6  0  0  0
  8 62  1  0  0  0  0
 24  9  1  1  0  0  0
  9 63  1  0  0  0  0
 10 26  1  0  0  0  0
 10 64  1  0  0  0  0
 11 31  1  0  0  0  0
 11 33  1  0  0  0  0
 12 34  1  0  0  0  0
 12 72  1  0  0  0  0
 13 36  2  0  0  0  0
 14 40  1  0  0  0  0
 14 74  1  0  0  0  0
 15 42  1  0  0  0  0
 15 43  1  0  0  0  0
 16 17  1  0  0  0  0
 16 20  1  0  0  0  0
 16 44  1  0  0  0  0
 17 18  1  0  0  0  0
 17 45  1  0  0  0  0
 18 22  1  0  0  0  0
 18 46  1  0  0  0  0
 19 21  1  0  0  0  0
 19 47  1  0  0  0  0
 20 48  1  0  0  0  0
 21 23  1  0  0  0  0
 21 49  1  0  0  0  0
 22 26  1  1  0  0  0
 22 50  1  0  0  0  0
 23 24  1  0  0  0  0
 23 51  1  0  0  0  0
 24 25  1  0  0  0  0
 24 52  1  0  0  0  0
 25 27  1  6  0  0  0
 25 53  1  0  0  0  0
 26 54  1  0  0  0  0
 26 55  1  0  0  0  0
 27 56  1  0  0  0  0
 27 57  1  0  0  0  0
 27 58  1  0  0  0  0
 28 29  1  0  0  0  0
 28 30  2  0  0  0  0
 29 31  2  0  0  0  0
 29 65  1  0  0  0  0
 30 34  1  0  0  0  0
 30 66  1  0  0  0  0
 31 32  1  0  0  0  0
 32 34  2  0  0  0  0
 32 36  1  0  0  0  0
 33 35  1  0  0  0  0
 33 37  1  1  0  0  0
 33 67  1  0  0  0  0
 35 36  1  0  0  0  0
 35 68  1  0  0  0  0
 35 69  1  0  0  0  0
 37 38  2  0  0  0  0
 37 39  1  0  0  0  0
 38 40  1  0  0  0  0
 38 70  1  0  0  0  0
 39 41  2  0  0  0  0
 39 71  1  0  0  0  0
 40 42  2  0  0  0  0
 41 42  1  0  0  0  0
 41 73  1  0  0  0  0
 43 75  1  0  0  0  0
 43 76  1  0  0  0  0
 43 77  1  0  0  0  0
M  END
> <PUBCHEM_COMPOUND_CID>
442439

> <PUBCHEM_COMPOUND_CANONICALIZED>
1

> <PUBCHEM_CACTVS_COMPLEXITY>
940

> <PUBCHEM_CACTVS_HBOND_ACCEPTOR>
15

> <PUBCHEM_CACTVS_HBOND_DONOR>
8

> <PUBCHEM_CACTVS_ROTATABLE_BOND>
7

> <PUBCHEM_CACTVS_SUBSKEYS>
AAADcfB4PAAAAAAAAAAAAAAAAAAAAAAAAAA0aJECAAAAAACRQAAAGgAACAAADBSwmAMyDoAABgCIAqBSAAACCAAkIAAIiAEGiMgdNzaGNRqieWOl4BUPuQfI7PzOIAABCAAIQABAAAIQABCAAAAAAAAAAA==

> <PUBCHEM_IUPAC_OPENEYE_NAME>
(2S)-7-[(2S,3R,4S,5S,6R)-4,5-dihydroxy-6-(hydroxymethyl)-3-[(2S,3R,4R,5R,6S)-3,4,5-trihydroxy-6-methyl-tetrahydropyran-2-yl]oxy-tetrahydropyran-2-yl]oxy-5-hydroxy-2-(3-hydroxy-4-methoxy-phenyl)chroman-4-one

> <PUBCHEM_IUPAC_CAS_NAME>
(2S)-7-[[(2S,3R,4S,5S,6R)-4,5-dihydroxy-6-(hydroxymethyl)-3-[[(2S,3R,4R,5R,6S)-3,4,5-trihydroxy-6-methyl-2-oxanyl]oxy]-2-oxanyl]oxy]-5-hydroxy-2-(3-hydroxy-4-methoxyphenyl)-3,4-dihydro-2H-1-benzopyran-4-one

> <PUBCHEM_IUPAC_NAME>
(2S)-7-[(2S,3R,4S,5S,6R)-4,5-dihydroxy-6-(hydroxymethyl)-3-[(2S,3R,4R,5R,6S)-3,4,5-trihydroxy-6-methyloxan-2-yl]oxyoxan-2-yl]oxy-5-hydroxy-2-(3-hydroxy-4-methoxyphenyl)-2,3-dihydrochromen-4-one

> <PUBCHEM_IUPAC_SYSTEMATIC_NAME>
(2S)-7-[(2S,3R,4S,5S,6R)-6-(hydroxymethyl)-3-[(2S,3R,4R,5R,6S)-6-methyl-3,4,5-tris(oxidanyl)oxan-2-yl]oxy-4,5-bis(oxidanyl)oxan-2-yl]oxy-2-(4-methoxy-3-oxidanyl-phenyl)-5-oxidanyl-2,3-dihydrochromen-4-one

> <PUBCHEM_IUPAC_TRADITIONAL_NAME>
(2S)-7-[(2S,3R,4S,5S,6R)-4,5-dihydroxy-6-methylol-3-[(2S,3R,4R,5R,6S)-3,4,5-trihydroxy-6-methyl-tetrahydropyran-2-yl]oxy-tetrahydropyran-2-yl]oxy-5-hydroxy-2-(3-hydroxy-4-methoxy-phenyl)chroman-4-one

> <PUBCHEM_IUPAC_INCHI>
InChI=1S/C28H34O15/c1-10-21(33)23(35)25(37)27(39-10)43-26-24(36)22(34)19(9-29)42-28(26)40-12-6-14(31)20-15(32)8-17(41-18(20)7-12)11-3-4-16(38-2)13(30)5-11/h3-7,10,17,19,21-31,33-37H,8-9H2,1-2H3/t10-,17-,19+,21-,22+,23+,24-,25+,26+,27-,28+/m0/s1

> <PUBCHEM_IUPAC_INCHIKEY>
ARGKVCXINMKCAZ-UZRWAPQLSA-N

> <PUBCHEM_XLOGP3_AA>
-0.5

> <PUBCHEM_EXACT_MASS>
610.18977

> <PUBCHEM_MOLECULAR_FORMULA>
C28H34O15

> <PUBCHEM_MOLECULAR_WEIGHT>
610.56056

> <PUBCHEM_OPENEYE_CAN_SMILES>
CC1C(C(C(C(O1)OC2C(C(C(OC2OC3=CC(=C4C(=O)CC(OC4=C3)C5=CC(=C(C=C5)OC)O)O)CO)O)O)O)O)O

> <PUBCHEM_OPENEYE_ISO_SMILES>
C[C@H]1[C@@H]([C@H]([C@H]([C@@H](O1)O[C@@H]2[C@H]([C@@H]([C@H](O[C@H]2OC3=CC(=C4C(=O)C[C@H](OC4=C3)C5=CC(=C(C=C5)OC)O)O)CO)O)O)O)O)O

> <PUBCHEM_CACTVS_TPSA>
234

> <PUBCHEM_MONOISOTOPIC_WEIGHT>
610.18977

> <PUBCHEM_TOTAL_CHARGE>
0

> <PUBCHEM_HEAVY_ATOM_COUNT>
43

> <PUBCHEM_ATOM_DEF_STEREO_COUNT>
11

> <PUBCHEM_ATOM_UDEF_STEREO_COUNT>
0

> <PUBCHEM_BOND_DEF_STEREO_COUNT>
0

> <PUBCHEM_BOND_UDEF_STEREO_COUNT>
0

> <PUBCHEM_ISOTOPIC_ATOM_COUNT>
0

> <PUBCHEM_COMPONENT_COUNT>
1

> <PUBCHEM_CACTVS_TAUTO_COUNT>
27

> <PUBCHEM_COORDINATE_TYPE>
1
5
255

> <PUBCHEM_BONDANNOTATIONS>
16  1  6
19  1  5
22  26  5
25  27  6
28  29  8
28  30  8
29  31  8
30  34  8
31  32  8
32  34  8
33  37  5
37  38  8
37  39  8
38  40  8
39  41  8
20  4  5
40  42  8
41  42  8
17  5  5
18  6  6
21  7  6
23  8  6
24  9  5

$$$$

