17396335
  -OEChem-06241222562D

 43 45  0     1  0  0  0  0  0999 V2000
    7.9930   -3.6560    0.0000 S   0  0  0  0  0  0  0  0  0  0  0  0
    6.1808   -0.8512    0.0000 S   0  0  0  0  0  0  0  0  0  0  0  0
    3.4782    3.6433    0.0000 O   0  0  0  0  0  0  0  0  0  0  0  0
    6.1808    1.1488    0.0000 O   0  0  0  0  0  0  0  0  0  0  0  0
    4.4487    1.1488    0.0000 N   0  0  0  0  0  0  0  0  0  0  0  0
    6.1808   -3.8512    0.0000 N   0  0  0  0  0  0  0  0  0  0  0  0
    5.3147   -2.3512    0.0000 N   0  0  0  0  0  0  0  0  0  0  0  0
    7.0468   -2.3512    0.0000 C   0  0  0  0  0  0  0  0  0  0  0  0
    7.9930   -2.0465    0.0000 C   0  0  0  0  0  0  0  0  0  0  0  0
    4.4487    2.1488    0.0000 C   0  0  3  0  0  0  0  0  0  0  0  0
    8.5766   -2.8512    0.0000 C   0  0  0  0  0  0  0  0  0  0  0  0
    7.0468   -3.3512    0.0000 C   0  0  0  0  0  0  0  0  0  0  0  0
    6.1808   -1.8512    0.0000 C   0  0  0  0  0  0  0  0  0  0  0  0
    3.5827    2.6488    0.0000 C   0  0  0  0  0  0  0  0  0  0  0  0
    5.3147    2.6488    0.0000 C   0  0  0  0  0  0  0  0  0  0  0  0
    8.3037   -1.0960    0.0000 C   0  0  0  0  0  0  0  0  0  0  0  0
    5.3147   -0.3512    0.0000 C   0  0  0  0  0  0  0  0  0  0  0  0
    5.3147    0.6488    0.0000 C   0  0  0  0  0  0  0  0  0  0  0  0
    9.5766   -2.8512    0.0000 C   0  0  0  0  0  0  0  0  0  0  0  0
    5.3147   -3.3512    0.0000 C   0  0  0  0  0  0  0  0  0  0  0  0
    2.6691    2.2420    0.0000 C   0  0  0  0  0  0  0  0  0  0  0  0
    2.0000    2.9852    0.0000 C   0  0  0  0  0  0  0  0  0  0  0  0
    4.4487   -3.8512    0.0000 C   0  0  0  0  0  0  0  0  0  0  0  0
    2.5000    3.8512    0.0000 C   0  0  0  0  0  0  0  0  0  0  0  0
    3.9118    1.8388    0.0000 H   0  0  0  0  0  0  0  0  0  0  0  0
    3.9118    0.8388    0.0000 H   0  0  0  0  0  0  0  0  0  0  0  0
    5.6247    2.1118    0.0000 H   0  0  0  0  0  0  0  0  0  0  0  0
    5.8517    2.9588    0.0000 H   0  0  0  0  0  0  0  0  0  0  0  0
    5.0047    3.1857    0.0000 H   0  0  0  0  0  0  0  0  0  0  0  0
    8.8930   -1.2886    0.0000 H   0  0  0  0  0  0  0  0  0  0  0  0
    8.4963   -0.5066    0.0000 H   0  0  0  0  0  0  0  0  0  0  0  0
    7.7143   -0.9034    0.0000 H   0  0  0  0  0  0  0  0  0  0  0  0
    4.7042   -0.2436    0.0000 H   0  0  0  0  0  0  0  0  0  0  0  0
    5.1027   -0.9338    0.0000 H   0  0  0  0  0  0  0  0  0  0  0  0
    9.5766   -3.4712    0.0000 H   0  0  0  0  0  0  0  0  0  0  0  0
   10.1966   -2.8512    0.0000 H   0  0  0  0  0  0  0  0  0  0  0  0
    9.5766   -2.2312    0.0000 H   0  0  0  0  0  0  0  0  0  0  0  0
    2.5402    1.6356    0.0000 H   0  0  0  0  0  0  0  0  0  0  0  0
    1.3834    2.9204    0.0000 H   0  0  0  0  0  0  0  0  0  0  0  0
    4.1387   -3.3143    0.0000 H   0  0  0  0  0  0  0  0  0  0  0  0
    3.9118   -4.1612    0.0000 H   0  0  0  0  0  0  0  0  0  0  0  0
    4.7587   -4.3882    0.0000 H   0  0  0  0  0  0  0  0  0  0  0  0
    2.2478    4.4176    0.0000 H   0  0  0  0  0  0  0  0  0  0  0  0
  1 11  1  0  0  0  0
  1 12  1  0  0  0  0
  2 13  1  0  0  0  0
  2 17  1  0  0  0  0
  3 14  1  0  0  0  0
  3 24  1  0  0  0  0
  4 18  2  0  0  0  0
  5 10  1  0  0  0  0
  5 18  1  0  0  0  0
  5 26  1  0  0  0  0
  6 12  1  0  0  0  0
  6 20  2  0  0  0  0
  7 13  2  0  0  0  0
  7 20  1  0  0  0  0
  8  9  1  0  0  0  0
  8 12  2  0  0  0  0
  8 13  1  0  0  0  0
  9 11  2  0  0  0  0
  9 16  1  0  0  0  0
 10 14  1  0  0  0  0
 10 15  1  0  0  0  0
 10 25  1  0  0  0  0
 11 19  1  0  0  0  0
 14 21  2  0  0  0  0
 15 27  1  0  0  0  0
 15 28  1  0  0  0  0
 15 29  1  0  0  0  0
 16 30  1  0  0  0  0
 16 31  1  0  0  0  0
 16 32  1  0  0  0  0
 17 18  1  0  0  0  0
 17 33  1  0  0  0  0
 17 34  1  0  0  0  0
 19 35  1  0  0  0  0
 19 36  1  0  0  0  0
 19 37  1  0  0  0  0
 20 23  1  0  0  0  0
 21 22  1  0  0  0  0
 21 38  1  0  0  0  0
 22 24  2  0  0  0  0
 22 39  1  0  0  0  0
 23 40  1  0  0  0  0
 23 41  1  0  0  0  0
 23 42  1  0  0  0  0
 24 43  1  0  0  0  0
M  END
> <PUBCHEM_COMPOUND_CID>
17396335

> <PUBCHEM_COMPOUND_CANONICALIZED>
1

> <PUBCHEM_CACTVS_COMPLEXITY>
454

> <PUBCHEM_CACTVS_HBOND_ACCEPTOR>
6

> <PUBCHEM_CACTVS_HBOND_DONOR>
1

> <PUBCHEM_CACTVS_ROTATABLE_BOND>
5

> <PUBCHEM_CACTVS_SUBSKEYS>
AAADceB7MABgAAAAAAAAAAAAAAAAASJAAAAsAAAAAAAAAFgB/gAAHgQQAAAADCzl2wazldbIFEisAqty9ACD2KllKLgJmLG+TNiOLjLk/fuHHSzs1hP46aeYWQMegAAAAAAAAAAAAAAAAAAAAAAAAAAAAA==

> <PUBCHEM_IUPAC_OPENEYE_NAME>
N-[1-(2-furyl)ethyl]-2-(2,5,6-trimethylthieno[2,3-d]pyrimidin-4-yl)sulfanyl-acetamide

> <PUBCHEM_IUPAC_CAS_NAME>
N-[1-(2-furanyl)ethyl]-2-[(2,5,6-trimethyl-4-thieno[2,3-d]pyrimidinyl)thio]acetamide

> <PUBCHEM_IUPAC_NAME>
N-[1-(furan-2-yl)ethyl]-2-(2,5,6-trimethylthieno[2,3-d]pyrimidin-4-yl)sulfanylacetamide

> <PUBCHEM_IUPAC_SYSTEMATIC_NAME>
N-[1-(furan-2-yl)ethyl]-2-(2,5,6-trimethylthieno[2,3-d]pyrimidin-4-yl)sulfanyl-ethanamide

> <PUBCHEM_IUPAC_TRADITIONAL_NAME>
N-[1-(2-furyl)ethyl]-2-[(2,5,6-trimethylthieno[2,3-d]pyrimidin-4-yl)thio]acetamide

> <PUBCHEM_IUPAC_INCHI>
InChI=1S/C17H19N3O2S2/c1-9-11(3)24-17-15(9)16(19-12(4)20-17)23-8-14(21)18-10(2)13-6-5-7-22-13/h5-7,10H,8H2,1-4H3,(H,18,21)

> <PUBCHEM_IUPAC_INCHIKEY>
LDPHJYBGXFUIRI-UHFFFAOYSA-N

> <PUBCHEM_XLOGP3_AA>
3.9

> <PUBCHEM_EXACT_MASS>
361.091869

> <PUBCHEM_MOLECULAR_FORMULA>
C17H19N3O2S2

> <PUBCHEM_MOLECULAR_WEIGHT>
361.48166

> <PUBCHEM_OPENEYE_CAN_SMILES>
CC1=C(SC2=C1C(=NC(=N2)C)SCC(=O)NC(C)C3=CC=CO3)C

> <PUBCHEM_OPENEYE_ISO_SMILES>
CC1=C(SC2=C1C(=NC(=N2)C)SCC(=O)NC(C)C3=CC=CO3)C

> <PUBCHEM_CACTVS_TPSA>
122

> <PUBCHEM_MONOISOTOPIC_WEIGHT>
361.091869

> <PUBCHEM_TOTAL_CHARGE>
0

> <PUBCHEM_HEAVY_ATOM_COUNT>
24

> <PUBCHEM_ATOM_DEF_STEREO_COUNT>
0

> <PUBCHEM_ATOM_UDEF_STEREO_COUNT>
1

> <PUBCHEM_BOND_DEF_STEREO_COUNT>
0

> <PUBCHEM_BOND_UDEF_STEREO_COUNT>
0

> <PUBCHEM_ISOTOPIC_ATOM_COUNT>
0

> <PUBCHEM_COMPONENT_COUNT>
1

> <PUBCHEM_CACTVS_TAUTO_COUNT>
2

> <PUBCHEM_COORDINATE_TYPE>
1
5
255

> <PUBCHEM_BONDANNOTATIONS>
1  11  8
1  12  8
10  15  3
14  21  8
21  22  8
22  24  8
3  14  8
3  24  8
6  12  8
6  20  8
7  13  8
7  20  8
8  12  8
8  13  8
8  9  8
9  11  8

$$$$

