   Color/Form

     * Water-white liquid
     * Colorless to white-liquid.
     * Clear liquid

   from [1]HSDB

   Odor

     * Peppermint-like odor
     * Camphor-like

   from [2]HSDB

   Boiling Point
        215.32 deg C
   from [3]HSDB

   Melting Point
        -8.1 deg C
   from [4]HSDB

   Density/Specific Gravity
        0.9255 @ 20 deg C
   from [5]HSDB

   Heat of Combustion
        -16,170 BTU/lb= -8,980 cal/g= -376x10+5 J/kg
   from [6]HSDB

   Heat of Vaporization
        43.4 kJ/mol
   from [7]HSDB

   Octanol/Water Partition Coefficient
        log Kow = 1.70
   from [8]HSDB

   Solubilities

     * Soluble in ether, acetone, alcohol
     * Has high solvent power for vinyl resins, cellulose esters, ether,
       and many substances soluble with difficulty in other solvents.
     * In water, 12,000 mg/l @ 25 deg C.

   from [9]HSDB

   Spectral Properties

     * UV max (MeOH): 235.5 nm (e 14300)
     * Index of refraction: 1.4766 @ 18 deg C/D
     * MAXIMUM ABSORPTION (ALCOHOL): 236 NM (LOG E= 4.09); SADTLER REF
       NUMBER: 122 (IR, PRISM)
     * Intense mass spectral peaks: 82 m/z (100%), 138 m/z (17%), 54 m/z
       (13%), 41 m/z (13%)
     * IR: 36 (Sadtler Research Laboratories IR Grating Collection)
     * UV: 6-247 (Phillip et al., Organic Electronic Spectral Data, John
       Wiley & Sons, New York)
     * NMR: 7311 (Sadtler Research Laboratories Spectral Collection)
     * MASS: 57756 (NIST/EPA/MSDC Mass Spectral Database, 1990 version)

   from [10]HSDB

   Surface Tension
        32 dyn/cm @ 20 deg C
   from [11]HSDB

   Vapor Density
        4.77 (Air= 1)
   from [12]HSDB

   Vapor Pressure
        0.438 mm Hg @ 25 deg C
   from [13]HSDB

   Viscosity
        2.62 cP @ 20 deg C
   from [14]HSDB

   Other Chemical/Physical Properties

     * PERCENT IN SATURATED AIR: 0.06
     * CONVERSION FACTORS: 1 PPM= 5.65 MG/CU M; 1 MG/L= 177 PPM
     * Bulk density: 7.7 lb/gal @ 20 deg C
     * 1 mg/cu m = 0.18 ppm; 1 ppm = 5.65 mg/cu m

   from [15]HSDB

   Computed Properties
   Molecular Weight                  138.20686 [g/mol]
   Molecular Formula                 C[9]H[14]O
   XLogP3-AA                         1.6
   H-Bond Donor                      0
   H-Bond Acceptor                   1
   Rotatable Bond Count              0
   Tautomer Count                    8
   Exact Mass                        138.104465
   MonoIsotopic Mass                 138.104465
   Topological Polar Surface Area    17.1
   Heavy Atom Count                  10
   Formal Charge                     0
   Complexity                        187
   Isotope Atom Count                0
   Defined Atom Stereocenter Count   0
   Undefined Atom Stereocenter Count 0
   Defined Bond Stereocenter Count   0
   Undefined Bond Stereocenter Count 0
   Covalently-Bonded Unit Count      1
   Feature 3D Acceptor Count         1
   Feature 3D Hydrophobe Count       1
   Feature 3D Ring Count             1
   Effective Rotor Count             0.6
   Conformer Sampling RMSD           0.4
   CID Conformer Count               [16]2

References

   1. http://toxnet.nlm.nih.gov/cgi-bin/sis/search/r?dbs+hsdb:@term+@rn+@rel+78-59-1
   2. http://toxnet.nlm.nih.gov/cgi-bin/sis/search/r?dbs+hsdb:@term+@rn+@rel+78-59-1
   3. http://toxnet.nlm.nih.gov/cgi-bin/sis/search/r?dbs+hsdb:@term+@rn+@rel+78-59-1
   4. http://toxnet.nlm.nih.gov/cgi-bin/sis/search/r?dbs+hsdb:@term+@rn+@rel+78-59-1
   5. http://toxnet.nlm.nih.gov/cgi-bin/sis/search/r?dbs+hsdb:@term+@rn+@rel+78-59-1
   6. http://toxnet.nlm.nih.gov/cgi-bin/sis/search/r?dbs+hsdb:@term+@rn+@rel+78-59-1
   7. http://toxnet.nlm.nih.gov/cgi-bin/sis/search/r?dbs+hsdb:@term+@rn+@rel+78-59-1
   8. http://toxnet.nlm.nih.gov/cgi-bin/sis/search/r?dbs+hsdb:@term+@rn+@rel+78-59-1
   9. http://toxnet.nlm.nih.gov/cgi-bin/sis/search/r?dbs+hsdb:@term+@rn+@rel+78-59-1
  10. http://toxnet.nlm.nih.gov/cgi-bin/sis/search/r?dbs+hsdb:@term+@rn+@rel+78-59-1
  11. http://toxnet.nlm.nih.gov/cgi-bin/sis/search/r?dbs+hsdb:@term+@rn+@rel+78-59-1
  12. http://toxnet.nlm.nih.gov/cgi-bin/sis/search/r?dbs+hsdb:@term+@rn+@rel+78-59-1
  13. http://toxnet.nlm.nih.gov/cgi-bin/sis/search/r?dbs+hsdb:@term+@rn+@rel+78-59-1
  14. http://toxnet.nlm.nih.gov/cgi-bin/sis/search/r?dbs+hsdb:@term+@rn+@rel+78-59-1
  15. http://toxnet.nlm.nih.gov/cgi-bin/sis/search/r?dbs+hsdb:@term+@rn+@rel+78-59-1
  16. http://pubchem.ncbi.nlm.nih.gov/vw3d/vw3d.cgi?cid=6544
