   Melting Point
        120-130 deg C (crystals from ethyl acetatetoluene) and 119-121.5
   deg C (crystals from acetonitrile)
   from [1]HSDB

   Other Chemical/Physical Properties

     * Crystals from ethyl acetate-toluene ... /with/ specific optical
       rotation at 23 deg C for D (sodium) line = +14.5 deg (c = 1.2 in
       ethanol). Also reported as white crystalline solid from
       acetonitrile ... /with/ specific optical rotation at 25 deg C for D
       (sodium) line = +15.4 deg (c = 2 in methanol).
     * White to off-white amorphous powder that is freely soluble in
       aqueous solvents

   from [2]HSDB

   Computed Properties
   Molecular Weight                  474.97704 [g/mol]
   Molecular Formula                 C[25]H[31]ClN[2]O[5]
   H-Bond Donor                      3
   H-Bond Acceptor                   6
   Rotatable Bond Count              10
   Exact Mass                        474.19215
   MonoIsotopic Mass                 474.19215
   Topological Polar Surface Area    95.9
   Heavy Atom Count                  33
   Formal Charge                     0
   Complexity                        648
   Isotope Atom Count                0
   Defined Atom Stereocenter Count   3
   Undefined Atom Stereocenter Count 0
   Defined Bond Stereocenter Count   0
   Undefined Bond Stereocenter Count 0
   Covalently-Bonded Unit Count      2

References

   1. http://toxnet.nlm.nih.gov/cgi-bin/sis/search/r?dbs+hsdb:@term+@rn+@rel+82586-55-8
   2. http://toxnet.nlm.nih.gov/cgi-bin/sis/search/r?dbs+hsdb:@term+@rn+@rel+82586-55-8
