   Color/Form

     * OFF-WHITE TO YELLOW CRYSTALLINE POWDER
     * Plates from acetone and petr ether

   from [1]HSDB

   Odor
        PRACTICALLY ODORLESS
   from [2]HSDB

   Melting Point
        132 deg C
   from [3]HSDB

   Dissociation Constants
        pKa= 3.4
   from [4]HSDB

   Octanol/Water Partition Coefficient
        log Kow= 2.99
   from [5]HSDB

   Solubilities

     * 1 G/2 ML CHLOROFORM
     * Sparingly soluble in propylene glycol
     * 1 g/39 ml ether
     * Approx 3 mg/ml water at 25 deg C
     * Approx 62.5 mg/ml alcohol at 25 deg C
     * Sol in chloroform, DMF benzene, acetone, alc; slightly sol in
       water.
     * One g of diazepam dissolves in about 350 ml of water, in
       approximately 15 ml of 95% ethanol, or in approximately 2 ml of
       chloroform.

   from [6]HSDB

   Spectral Properties

     * MAX ABSORPTION (ACIDIFIED ETHANOL): 242, 285, 368 NM
     * Intense mass spectral peaks: 221 m/z, 256 m/z, 284 m/z

   from [7]HSDB

   Other Chemical/Physical Properties

     * UNSTABLE IN OIL, ACID & CONCN ALKALI
     * PLATES FROM ACETONE + PETROLEUM ETHER

   from [8]HSDB

   Computed Properties
   Molecular Weight                  284.74022 [g/mol]
   Molecular Formula                 C[16]H[13]ClN[2]O
   XLogP3                            3
   H-Bond Donor                      0
   H-Bond Acceptor                   2
   Rotatable Bond Count              1
   Tautomer Count                    2
   Exact Mass                        284.071641
   MonoIsotopic Mass                 284.071641
   Topological Polar Surface Area    32.7
   Heavy Atom Count                  20
   Formal Charge                     0
   Complexity                        403
   Isotope Atom Count                0
   Defined Atom Stereocenter Count   0
   Undefined Atom Stereocenter Count 0
   Defined Bond Stereocenter Count   0
   Undefined Bond Stereocenter Count 0
   Covalently-Bonded Unit Count      1
   Feature 3D Acceptor Count         2
   Feature 3D Ring Count             3
   Effective Rotor Count             1.4
   Conformer Sampling RMSD           0.6
   CID Conformer Count               [9]2

References

   1. http://toxnet.nlm.nih.gov/cgi-bin/sis/search/r?dbs+hsdb:@term+@rn+@rel+439-14-5
   2. http://toxnet.nlm.nih.gov/cgi-bin/sis/search/r?dbs+hsdb:@term+@rn+@rel+439-14-5
   3. http://toxnet.nlm.nih.gov/cgi-bin/sis/search/r?dbs+hsdb:@term+@rn+@rel+439-14-5
   4. http://toxnet.nlm.nih.gov/cgi-bin/sis/search/r?dbs+hsdb:@term+@rn+@rel+439-14-5
   5. http://toxnet.nlm.nih.gov/cgi-bin/sis/search/r?dbs+hsdb:@term+@rn+@rel+439-14-5
   6. http://toxnet.nlm.nih.gov/cgi-bin/sis/search/r?dbs+hsdb:@term+@rn+@rel+439-14-5
   7. http://toxnet.nlm.nih.gov/cgi-bin/sis/search/r?dbs+hsdb:@term+@rn+@rel+439-14-5
   8. http://toxnet.nlm.nih.gov/cgi-bin/sis/search/r?dbs+hsdb:@term+@rn+@rel+439-14-5
   9. http://pubchem.ncbi.nlm.nih.gov/vw3d/vw3d.cgi?cid=3016
