43595
  -OEChem-07051213092D

 62 64  0     1  0  0  0  0  0999 V2000
    5.4506   -1.8672    0.0000 O   0  0  0  0  0  0  0  0  0  0  0  0
    4.8576   -1.6216    0.0000 O   0  0  0  0  0  0  0  0  0  0  0  0
    8.7752   -2.0478    0.0000 O   0  0  0  0  0  0  0  0  0  0  0  0
    2.3791    0.6016    0.0000 O   0  0  0  0  0  0  0  0  0  0  0  0
    6.8828   -2.8316    0.0000 O   0  0  0  0  0  0  0  0  0  0  0  0
    3.1630   -1.2908    0.0000 O   0  0  0  0  0  0  0  0  0  0  0  0
    6.3476    2.4434    0.0000 C   0  0  3  0  0  0  0  0  0  0  0  0
    7.2714    2.0607    0.0000 C   0  0  3  0  0  0  0  0  0  0  0  0
    5.4237    2.0607    0.0000 C   0  0  0  0  0  0  0  0  0  0  0  0
    7.6541    1.1368    0.0000 C   0  0  0  0  0  0  0  0  0  0  0  0
    7.2714    0.2130    0.0000 C   0  0  0  0  0  0  0  0  0  0  0  0
    5.0410    1.1368    0.0000 C   0  0  0  0  0  0  0  0  0  0  0  0
    6.3476    3.4434    0.0000 C   0  0  0  0  0  0  0  0  0  0  0  0
    7.9786    2.7678    0.0000 C   0  0  0  0  0  0  0  0  0  0  0  0
    6.3476   -0.1697    0.0000 C   0  0  0  0  0  0  0  0  0  0  0  0
    5.4237    0.2130    0.0000 C   0  0  0  0  0  0  0  0  0  0  0  0
    8.1075   -0.4083    0.0000 C   0  0  0  0  0  0  0  0  0  0  0  0
    4.0105    1.2887    0.0000 C   0  0  0  0  0  0  0  0  0  0  0  0
    4.8024   -0.6231    0.0000 C   0  0  0  0  0  0  0  0  0  0  0  0
    6.1957   -1.2002    0.0000 C   0  0  0  0  0  0  0  0  0  0  0  0
    3.3700    0.4673    0.0000 C   0  0  0  0  0  0  0  0  0  0  0  0
    7.9795   -1.4420    0.0000 C   0  0  0  0  0  0  0  0  0  0  0  0
    3.7687   -0.4951    0.0000 C   0  0  0  0  0  0  0  0  0  0  0  0
    7.0172   -1.8407    0.0000 C   0  0  0  0  0  0  0  0  0  0  0  0
    4.0205   -2.1686    0.0000 C   0  0  0  0  0  0  0  0  0  0  0  0
    5.6558   -2.8460    0.0000 C   0  0  0  0  0  0  0  0  0  0  0  0
    2.0000    1.5269    0.0000 C   0  0  0  0  0  0  0  0  0  0  0  0
    9.6976   -1.6615    0.0000 C   0  0  0  0  0  0  0  0  0  0  0  0
    2.1710   -1.1641    0.0000 C   0  0  0  0  0  0  0  0  0  0  0  0
    7.6738   -3.4434    0.0000 C   0  0  0  0  0  0  0  0  0  0  0  0
    6.8631    2.7879    0.0000 H   0  0  0  0  0  0  0  0  0  0  0  0
    7.8795    1.9398    0.0000 H   0  0  0  0  0  0  0  0  0  0  0  0
    5.3428    2.6754    0.0000 H   0  0  0  0  0  0  0  0  0  0  0  0
    4.8090    2.1417    0.0000 H   0  0  0  0  0  0  0  0  0  0  0  0
    8.1460    0.7594    0.0000 H   0  0  0  0  0  0  0  0  0  0  0  0
    8.1460    1.5143    0.0000 H   0  0  0  0  0  0  0  0  0  0  0  0
    8.4170    2.3294    0.0000 H   0  0  0  0  0  0  0  0  0  0  0  0
    8.4170    3.2062    0.0000 H   0  0  0  0  0  0  0  0  0  0  0  0
    7.5402    3.2062    0.0000 H   0  0  0  0  0  0  0  0  0  0  0  0
    6.9676    3.4434    0.0000 H   0  0  0  0  0  0  0  0  0  0  0  0
    6.3476    4.0634    0.0000 H   0  0  0  0  0  0  0  0  0  0  0  0
    5.7276    3.4434    0.0000 H   0  0  0  0  0  0  0  0  0  0  0  0
    3.7799    1.8642    0.0000 H   0  0  0  0  0  0  0  0  0  0  0  0
    8.6775   -0.1644    0.0000 H   0  0  0  0  0  0  0  0  0  0  0  0
    3.6813   -1.6496    0.0000 H   0  0  0  0  0  0  0  0  0  0  0  0
    3.5015   -2.5078    0.0000 H   0  0  0  0  0  0  0  0  0  0  0  0
    4.3597   -2.6876    0.0000 H   0  0  0  0  0  0  0  0  0  0  0  0
    5.0490   -2.9732    0.0000 H   0  0  0  0  0  0  0  0  0  0  0  0
    5.7830   -3.4528    0.0000 H   0  0  0  0  0  0  0  0  0  0  0  0
    6.2626   -2.7188    0.0000 H   0  0  0  0  0  0  0  0  0  0  0  0
    2.5737    1.7620    0.0000 H   0  0  0  0  0  0  0  0  0  0  0  0
    1.7650    2.1007    0.0000 H   0  0  0  0  0  0  0  0  0  0  0  0
    1.4263    1.2919    0.0000 H   0  0  0  0  0  0  0  0  0  0  0  0
    9.9371   -2.2334    0.0000 H   0  0  0  0  0  0  0  0  0  0  0  0
   10.2695   -1.4220    0.0000 H   0  0  0  0  0  0  0  0  0  0  0  0
    9.4581   -1.0896    0.0000 H   0  0  0  0  0  0  0  0  0  0  0  0
    7.2945   -3.9338    0.0000 H   0  0  0  0  0  0  0  0  0  0  0  0
    8.1642   -3.8227    0.0000 H   0  0  0  0  0  0  0  0  0  0  0  0
    8.0532   -2.9530    0.0000 H   0  0  0  0  0  0  0  0  0  0  0  0
    2.2496   -0.5491    0.0000 H   0  0  0  0  0  0  0  0  0  0  0  0
    1.5560   -1.0855    0.0000 H   0  0  0  0  0  0  0  0  0  0  0  0
    2.0925   -1.7791    0.0000 H   0  0  0  0  0  0  0  0  0  0  0  0
  1 20  1  0  0  0  0
  1 26  1  0  0  0  0
  2 19  1  0  0  0  0
  2 25  1  0  0  0  0
  3 22  1  0  0  0  0
  3 28  1  0  0  0  0
  4 21  1  0  0  0  0
  4 27  1  0  0  0  0
  5 24  1  0  0  0  0
  5 30  1  0  0  0  0
  6 23  1  0  0  0  0
  6 29  1  0  0  0  0
  7  8  1  0  0  0  0
  7  9  1  0  0  0  0
  7 13  1  0  0  0  0
  7 31  1  0  0  0  0
  8 10  1  0  0  0  0
  8 14  1  0  0  0  0
  8 32  1  0  0  0  0
  9 12  1  0  0  0  0
  9 33  1  0  0  0  0
  9 34  1  0  0  0  0
 10 11  1  0  0  0  0
 10 35  1  0  0  0  0
 10 36  1  0  0  0  0
 11 15  1  0  0  0  0
 11 17  2  0  0  0  0
 12 16  1  0  0  0  0
 12 18  2  0  0  0  0
 13 40  1  0  0  0  0
 13 41  1  0  0  0  0
 13 42  1  0  0  0  0
 14 37  1  0  0  0  0
 14 38  1  0  0  0  0
 14 39  1  0  0  0  0
 15 16  1  0  0  0  0
 15 20  2  0  0  0  0
 16 19  2  0  0  0  0
 17 22  1  0  0  0  0
 17 44  1  0  0  0  0
 18 21  1  0  0  0  0
 18 43  1  0  0  0  0
 19 23  1  0  0  0  0
 20 24  1  0  0  0  0
 21 23  2  0  0  0  0
 22 24  2  0  0  0  0
 25 45  1  0  0  0  0
 25 46  1  0  0  0  0
 25 47  1  0  0  0  0
 26 48  1  0  0  0  0
 26 49  1  0  0  0  0
 26 50  1  0  0  0  0
 27 51  1  0  0  0  0
 27 52  1  0  0  0  0
 27 53  1  0  0  0  0
 28 54  1  0  0  0  0
 28 55  1  0  0  0  0
 28 56  1  0  0  0  0
 29 60  1  0  0  0  0
 29 61  1  0  0  0  0
 29 62  1  0  0  0  0
 30 57  1  0  0  0  0
 30 58  1  0  0  0  0
 30 59  1  0  0  0  0
M  END
> <PUBCHEM_COMPOUND_CID>
43595

> <PUBCHEM_COMPOUND_CANONICALIZED>
1

> <PUBCHEM_CACTVS_COMPLEXITY>
484

> <PUBCHEM_CACTVS_HBOND_ACCEPTOR>
6

> <PUBCHEM_CACTVS_HBOND_DONOR>
0

> <PUBCHEM_CACTVS_ROTATABLE_BOND>
6

> <PUBCHEM_CACTVS_SUBSKEYS>
AAADcfB4OAAAAAAAAAAAAAAAAAAAAAAAAAAwYAAAAAAYAAABQAAAGgAAAAAADQSAmAIyBoAABACAAiBCAAACCAAgIAAAiAAGiIgNJyKEMRqAMCIlwBUKqAfA4PwOoAABCAAYQABAAAIQADCAAAAAAAAAAA==

> <PUBCHEM_IUPAC_INCHI>
InChI=1S/C24H32O6/c1-13-9-15-11-17(25-3)21(27-5)23(29-7)19(15)20-16(10-14(13)2)12-18(26-4)22(28-6)24(20)30-8/h11-14H,9-10H2,1-8H3

> <PUBCHEM_IUPAC_INCHIKEY>
JEJFTTRHGBKKEI-UHFFFAOYSA-N

> <PUBCHEM_XLOGP3_AA>
5.3

> <PUBCHEM_EXACT_MASS>
416.219889

> <PUBCHEM_MOLECULAR_FORMULA>
C24H32O6

> <PUBCHEM_MOLECULAR_WEIGHT>
416.50728

> <PUBCHEM_OPENEYE_CAN_SMILES>
CC1CC2=CC(=C(C(=C2C3=C(C(=C(C=C3CC1C)OC)OC)OC)OC)OC)OC

> <PUBCHEM_OPENEYE_ISO_SMILES>
CC1CC2=CC(=C(C(=C2C3=C(C(=C(C=C3CC1C)OC)OC)OC)OC)OC)OC

> <PUBCHEM_CACTVS_TPSA>
55.4

> <PUBCHEM_MONOISOTOPIC_WEIGHT>
416.219889

> <PUBCHEM_TOTAL_CHARGE>
0

> <PUBCHEM_HEAVY_ATOM_COUNT>
30

> <PUBCHEM_ATOM_DEF_STEREO_COUNT>
0

> <PUBCHEM_ATOM_UDEF_STEREO_COUNT>
2

> <PUBCHEM_BOND_DEF_STEREO_COUNT>
0

> <PUBCHEM_BOND_UDEF_STEREO_COUNT>
0

> <PUBCHEM_ISOTOPIC_ATOM_COUNT>
0

> <PUBCHEM_COMPONENT_COUNT>
1

> <PUBCHEM_CACTVS_TAUTO_COUNT>
1

> <PUBCHEM_COORDINATE_TYPE>
1
5
255

> <PUBCHEM_BONDANNOTATIONS>
11  15  8
11  17  8
12  16  8
12  18  8
15  20  8
16  19  8
17  22  8
18  21  8
19  23  8
20  24  8
21  23  8
22  24  8
7  13  3
8  14  3

$$$$

