16667369
  -OEChem-07051213032D

 61 63  0     1  0  0  0  0  0999 V2000
    8.1054    2.0233    0.0000 P   0  0  3  0  0  0  0  0  0  0  0  0
    7.2393    0.5233    0.0000 P   0  0  3  0  0  0  0  0  0  0  0  0
    5.4028   -2.4712    0.0000 O   0  0  0  0  0  0  0  0  0  0  0  0
    9.8374    3.0233    0.0000 O   0  0  0  0  0  0  0  0  0  0  0  0
    4.3858   -0.0918    0.0000 O   0  0  0  0  0  0  0  0  0  0  0  0
    2.9301   -1.7086    0.0000 O   0  0  0  0  0  0  0  0  0  0  0  0
    8.1054    3.0233    0.0000 O   0  0  0  0  0  0  0  0  0  0  0  0
   11.5695    5.0233    0.0000 O   0  0  0  0  0  0  0  0  0  0  0  0
    8.1054    5.0233    0.0000 O   0  0  0  0  0  0  0  0  0  0  0  0
    6.3733    0.0233    0.0000 O   0  0  0  0  0  0  0  0  0  0  0  0
   11.5695    2.0233    0.0000 O   0  0  0  0  0  0  0  0  0  0  0  0
    8.1054    1.0233    0.0000 O   0  0  0  0  0  0  0  0  0  0  0  0
    7.1054    2.0233    0.0000 O   0  0  0  0  0  0  0  0  0  0  0  0
    2.4356   -2.8882    0.0000 O   0  0  0  0  0  0  0  0  0  0  0  0
    7.7393   -0.3427    0.0000 O   0  0  0  0  0  0  0  0  0  0  0  0
    9.1054    2.0233    0.0000 O   0  0  0  0  0  0  0  0  0  0  0  0
    6.7393    1.3893    0.0000 O   0  0  0  0  0  0  0  0  0  0  0  0
    2.7976   -6.3333    0.0000 O   0  0  0  0  0  0  0  0  0  0  0  0
    4.0179   -3.5927    0.0000 N   0  0  0  0  0  0  0  0  0  0  0  0
    9.8374    6.0233    0.0000 N   0  0  0  0  0  0  0  0  0  0  0  0
    2.6166   -4.6108    0.0000 N   0  0  0  0  0  0  0  0  0  0  0  0
    4.5937   -1.0700    0.0000 C   0  0  1  0  0  0  0  0  0  0  0  0
    3.9246   -1.8131    0.0000 C   0  0  2  0  0  0  0  0  0  0  0  0
    5.5073   -1.4767    0.0000 C   0  0  1  0  0  0  0  0  0  0  0  0
    4.4246   -2.6791    0.0000 C   0  0  1  0  0  0  0  0  0  0  0  0
    9.8374    5.0233    0.0000 C   0  0  1  0  0  0  0  0  0  0  0  0
   10.7034    4.5233    0.0000 C   0  0  1  0  0  0  0  0  0  0  0  0
    8.9714    4.5233    0.0000 C   0  0  2  0  0  0  0  0  0  0  0  0
   10.7034    3.5233    0.0000 C   0  0  1  0  0  0  0  0  0  0  0  0
    8.9714    3.5233    0.0000 C   0  0  2  0  0  0  0  0  0  0  0  0
    6.3733   -0.9767    0.0000 C   0  0  0  0  0  0  0  0  0  0  0  0
   11.5695    3.0233    0.0000 C   0  0  0  0  0  0  0  0  0  0  0  0
    3.0233   -3.6972    0.0000 C   0  0  0  0  0  0  0  0  0  0  0  0
    4.6056   -4.4017    0.0000 C   0  0  0  0  0  0  0  0  0  0  0  0
    4.1989   -5.3152    0.0000 C   0  0  0  0  0  0  0  0  0  0  0  0
    3.2044   -5.4198    0.0000 C   0  0  0  0  0  0  0  0  0  0  0  0
    5.0756   -0.6798    0.0000 H   0  0  0  0  0  0  0  0  0  0  0  0
    3.7024   -1.2343    0.0000 H   0  0  0  0  0  0  0  0  0  0  0  0
    6.0273   -1.8144    0.0000 H   0  0  0  0  0  0  0  0  0  0  0  0
    3.8054   -2.7116    0.0000 H   0  0  0  0  0  0  0  0  0  0  0  0
    9.3005    5.3333    0.0000 H   0  0  0  0  0  0  0  0  0  0  0  0
   11.2404    4.2133    0.0000 H   0  0  0  0  0  0  0  0  0  0  0  0
    8.4344    4.2133    0.0000 H   0  0  0  0  0  0  0  0  0  0  0  0
   10.7034    2.9033    0.0000 H   0  0  0  0  0  0  0  0  0  0  0  0
    8.4344    3.8333    0.0000 H   0  0  0  0  0  0  0  0  0  0  0  0
    6.5854   -1.5593    0.0000 H   0  0  0  0  0  0  0  0  0  0  0  0
    6.9839   -0.8690    0.0000 H   0  0  0  0  0  0  0  0  0  0  0  0
   12.1800    2.9156    0.0000 H   0  0  0  0  0  0  0  0  0  0  0  0
   11.7815    3.6059    0.0000 H   0  0  0  0  0  0  0  0  0  0  0  0
   10.3743    6.3333    0.0000 H   0  0  0  0  0  0  0  0  0  0  0  0
    9.3005    6.3333    0.0000 H   0  0  0  0  0  0  0  0  0  0  0  0
    3.7962    0.0998    0.0000 H   0  0  0  0  0  0  0  0  0  0  0  0
    2.6779   -1.1422    0.0000 H   0  0  0  0  0  0  0  0  0  0  0  0
   12.1064    4.7133    0.0000 H   0  0  0  0  0  0  0  0  0  0  0  0
    7.5684    4.7133    0.0000 H   0  0  0  0  0  0  0  0  0  0  0  0
    5.2222   -4.3369    0.0000 H   0  0  0  0  0  0  0  0  0  0  0  0
   12.1064    1.7133    0.0000 H   0  0  0  0  0  0  0  0  0  0  0  0
    2.0000   -4.6756    0.0000 H   0  0  0  0  0  0  0  0  0  0  0  0
    4.5633   -5.8168    0.0000 H   0  0  0  0  0  0  0  0  0  0  0  0
    6.7954    2.5602    0.0000 H   0  0  0  0  0  0  0  0  0  0  0  0
    8.3593   -0.3427    0.0000 H   0  0  0  0  0  0  0  0  0  0  0  0
  1  7  1  0  0  0  0
  1 12  1  0  0  0  0
  1 13  1  0  0  0  0
  1 16  2  0  0  0  0
  2 10  1  0  0  0  0
  2 12  1  0  0  0  0
  2 15  1  0  0  0  0
  2 17  2  0  0  0  0
  3 24  1  0  0  0  0
  3 25  1  0  0  0  0
  4 29  1  0  0  0  0
  4 30  1  0  0  0  0
 22  5  1  6  0  0  0
  5 52  1  0  0  0  0
 23  6  1  6  0  0  0
  6 53  1  0  0  0  0
 30  7  1  6  0  0  0
 27  8  1  6  0  0  0
  8 54  1  0  0  0  0
 28  9  1  6  0  0  0
  9 55  1  0  0  0  0
 10 31  1  0  0  0  0
 11 32  1  0  0  0  0
 11 57  1  0  0  0  0
 13 60  1  0  0  0  0
 14 33  2  0  0  0  0
 15 61  1  0  0  0  0
 18 36  2  0  0  0  0
 25 19  1  1  0  0  0
 19 33  1  0  0  0  0
 19 34  1  0  0  0  0
 26 20  1  1  0  0  0
 20 50  1  0  0  0  0
 20 51  1  0  0  0  0
 21 33  1  0  0  0  0
 21 36  1  0  0  0  0
 21 58  1  0  0  0  0
 22 23  1  0  0  0  0
 22 24  1  0  0  0  0
 22 37  1  0  0  0  0
 23 25  1  0  0  0  0
 23 38  1  0  0  0  0
 24 31  1  1  0  0  0
 24 39  1  0  0  0  0
 25 40  1  0  0  0  0
 26 27  1  0  0  0  0
 26 28  1  0  0  0  0
 26 41  1  0  0  0  0
 27 29  1  0  0  0  0
 27 42  1  0  0  0  0
 28 30  1  0  0  0  0
 28 43  1  0  0  0  0
 29 32  1  1  0  0  0
 29 44  1  0  0  0  0
 30 45  1  0  0  0  0
 31 46  1  0  0  0  0
 31 47  1  0  0  0  0
 32 48  1  0  0  0  0
 32 49  1  0  0  0  0
 34 35  2  0  0  0  0
 34 56  1  0  0  0  0
 35 36  1  0  0  0  0
 35 59  1  0  0  0  0
M  END
> <PUBCHEM_COMPOUND_CID>
16667369

> <PUBCHEM_COMPOUND_CANONICALIZED>
1

> <PUBCHEM_CACTVS_COMPLEXITY>
967

> <PUBCHEM_CACTVS_HBOND_ACCEPTOR>
17

> <PUBCHEM_CACTVS_HBOND_DONOR>
9

> <PUBCHEM_CACTVS_ROTATABLE_BOND>
9

> <PUBCHEM_CACTVS_SUBSKEYS>
AAADceBzPgMAAAAAAAAAAAAAAAAAASAAAAAkQAAAAAAAAAAAAAAAHgAQCCAACDzxgAcBCAPABxCIQCFWUICAAAAAAgAIAIAIAECTEAIAgAAOQAAPFyIXAMHwcAYAAAAAAAAAAAAAAAAAAAAAAAAAAAAAAA==

> <PUBCHEM_IUPAC_OPENEYE_NAME>
[(2R,3R,4S,5S,6R)-4-amino-3,5-dihydroxy-6-(hydroxymethyl)tetrahydropyran-2-yl] [[(2R,3S,4R,5R)-5-(2,4-dioxopyrimidin-1-yl)-3,4-dihydroxy-tetrahydrofuran-2-yl]methoxy-hydroxy-phosphoryl] hydrogen phosphate

> <PUBCHEM_IUPAC_CAS_NAME>
[(2R,3R,4S,5S,6R)-4-amino-3,5-dihydroxy-6-(hydroxymethyl)-2-oxanyl] [[(2R,3S,4R,5R)-5-(2,4-dioxo-1-pyrimidinyl)-3,4-dihydroxy-2-oxolanyl]methoxy-hydroxyphosphoryl] hydrogen phosphate

> <PUBCHEM_IUPAC_NAME>
[(2R,3R,4S,5S,6R)-4-amino-3,5-dihydroxy-6-(hydroxymethyl)oxan-2-yl] [[(2R,3S,4R,5R)-5-(2,4-dioxopyrimidin-1-yl)-3,4-dihydroxyoxolan-2-yl]methoxy-hydroxyphosphoryl] hydrogen phosphate

> <PUBCHEM_IUPAC_SYSTEMATIC_NAME>
[(2R,3R,4S,5S,6R)-4-azanyl-6-(hydroxymethyl)-3,5-bis(oxidanyl)oxan-2-yl] [[(2R,3S,4R,5R)-5-[2,4-bis(oxidanylidene)pyrimidin-1-yl]-3,4-bis(oxidanyl)oxolan-2-yl]methoxy-oxidanyl-phosphoryl] hydrogen phosphate

> <PUBCHEM_IUPAC_TRADITIONAL_NAME>
[(2R,3R,4S,5S,6R)-4-amino-3,5-dihydroxy-6-methylol-tetrahydropyran-2-yl] [[(2R,3S,4R,5R)-5-(2,4-diketopyrimidin-1-yl)-3,4-dihydroxy-tetrahydrofuran-2-yl]methoxy-hydroxy-phosphoryl] hydrogen phosphate

> <PUBCHEM_IUPAC_INCHI>
InChI=1S/C15H25N3O16P2/c16-8-9(21)5(3-19)32-14(11(8)23)33-36(28,29)34-35(26,27)30-4-6-10(22)12(24)13(31-6)18-2-1-7(20)17-15(18)25/h1-2,5-6,8-14,19,21-24H,3-4,16H2,(H,26,27)(H,28,29)(H,17,20,25)/t5-,6-,8+,9-,10-,11-,12-,13-,14-/m1/s1

> <PUBCHEM_IUPAC_INCHIKEY>
KGGAKOCPPBMRSA-SAINOKEESA-N

> <PUBCHEM_XLOGP3>
-8.9

> <PUBCHEM_EXACT_MASS>
565.071005

> <PUBCHEM_MOLECULAR_FORMULA>
C15H25N3O16P2

> <PUBCHEM_MOLECULAR_WEIGHT>
565.317024

> <PUBCHEM_OPENEYE_CAN_SMILES>
C1=CN(C(=O)NC1=O)C2C(C(C(O2)COP(=O)(O)OP(=O)(O)OC3C(C(C(C(O3)CO)O)N)O)O)O

> <PUBCHEM_OPENEYE_ISO_SMILES>
C1=CN(C(=O)NC1=O)[C@H]2[C@@H]([C@@H]([C@H](O2)COP(=O)(O)OP(=O)(O)O[C@@H]3[C@@H]([C@H]([C@@H]([C@H](O3)CO)O)N)O)O)O

> <PUBCHEM_CACTVS_TPSA>
297

> <PUBCHEM_MONOISOTOPIC_WEIGHT>
565.071005

> <PUBCHEM_TOTAL_CHARGE>
0

> <PUBCHEM_HEAVY_ATOM_COUNT>
36

> <PUBCHEM_ATOM_DEF_STEREO_COUNT>
9

> <PUBCHEM_ATOM_UDEF_STEREO_COUNT>
0

> <PUBCHEM_BOND_DEF_STEREO_COUNT>
0

> <PUBCHEM_BOND_UDEF_STEREO_COUNT>
0

> <PUBCHEM_ISOTOPIC_ATOM_COUNT>
0

> <PUBCHEM_COMPONENT_COUNT>
1

> <PUBCHEM_CACTVS_TAUTO_COUNT>
3

> <PUBCHEM_COORDINATE_TYPE>
1
5
255

> <PUBCHEM_BONDANNOTATIONS>
25  19  5
19  33  8
19  34  8
26  20  5
21  33  8
21  36  8
24  31  5
29  32  5
34  35  8
35  36  8
22  5  6
23  6  6
30  7  6
27  8  6
28  9  6

$$$$

