   Color/Form

     * Monoclinic prisms
     * Yellow crystals
     * Yellow, crystalline solid

   from [1]HSDB

   Odor
        Sweet odor
   from [2]HSDB

   Boiling Point
        242 deg C at 760 mm Hg
   from [3]HSDB

   Melting Point
        82-84 deg C
   from [4]HSDB

   Critical Temperature and Pressure
        Critical temperature = 751 deg K; Critical pressure = 398X10+6 Pa.
   from [5]HSDB

   Density/Specific Gravity
        1.520
   from [6]HSDB

   Heat of Vaporization
        6.21X10+7 J/Kmol at 356.65 deg K
   from [7]HSDB

   Octanol/Water Partition Coefficient
        log Kow = 2.39
   from [8]HSDB

   Solubilities

     * Sparingly sol in cold alc and freely in boiling alcohol, ether,
       carbon disulfide.
     * Soluble in organic solvents
     * In water, 225 mg/L at 20 deg C

   from [9]HSDB

   Spectral Properties

     * MAX ABSORPTION (METHANOL): 270.5 NM (LOG E= 4.03); SADTLER REF
       NUMBER: 4683 (IR, PRISM); 435 (IR, GRATING); INDEX OF REFRACTION:
       1.5376 AT 100 DEG C/ALPHA
     * IR: 1409 (Coblentz Society Spectral Collection)
     * UV: 1290 (Sadtler Research Laboratories Spectral Collection)
     * NMR: 122 (Varian Associates NMR Spectra Catalogue)
     * Raman: 305 (Sadtler Research Laboratories Spectral Collection)
     * MASS: 70271 (NIST/EPA/MSDC Mass Spectral database, 1990 version)

   from [10]HSDB

   Surface Tension
        3.71X10-2 N/m at 356.65 deg K
   from [11]HSDB

   Vapor Density
        5.44 (AIR= 1)
   from [12]HSDB

   Vapor Pressure
        2.19X10-2 mm Hg at 25 deg C
   from [13]HSDB

   Viscosity
        1.07X10-3 Pa-s at 356.65 deg K
   from [14]HSDB

   Other Chemical/Physical Properties

     * The liquid molar volume is 0.121 cu m/kmol. The IG heat of
       formation is 3.72X10+7 J/kmol. The heat fusion at the melting point
       is 1.41X10+7 J/kmol.
     * Henry's Law constant = 4.89X10-6 atm-cu m/mol at 25 deg C
     * Hydroxyl radical reaction rate constant = 1.71X10-13 cu
       cm/molec-sec at 25 deg C (est)

   from [15]HSDB

   Computed Properties
   Molecular Weight                  157.55446 [g/mol]
   Molecular Formula                 C[6]H[4]ClNO[2]
   XLogP3                            2.4
   H-Bond Donor                      0
   H-Bond Acceptor                   2
   Rotatable Bond Count              0
   Exact Mass                        156.993056
   MonoIsotopic Mass                 156.993056
   Topological Polar Surface Area    45.8
   Heavy Atom Count                  10
   Formal Charge                     0
   Complexity                        126
   Isotope Atom Count                0
   Defined Atom Stereocenter Count   0
   Undefined Atom Stereocenter Count 0
   Defined Bond Stereocenter Count   0
   Undefined Bond Stereocenter Count 0
   Covalently-Bonded Unit Count      1
   Feature 3D Acceptor Count         2
   Feature 3D Anion Count            1
   Feature 3D Ring Count             1
   Effective Rotor Count             1
   Conformer Sampling RMSD           0.4
   CID Conformer Count               [16]1

References

   1. http://toxnet.nlm.nih.gov/cgi-bin/sis/search/r?dbs+hsdb:@term+@rn+@rel+100-00-5
   2. http://toxnet.nlm.nih.gov/cgi-bin/sis/search/r?dbs+hsdb:@term+@rn+@rel+100-00-5
   3. http://toxnet.nlm.nih.gov/cgi-bin/sis/search/r?dbs+hsdb:@term+@rn+@rel+100-00-5
   4. http://toxnet.nlm.nih.gov/cgi-bin/sis/search/r?dbs+hsdb:@term+@rn+@rel+100-00-5
   5. http://toxnet.nlm.nih.gov/cgi-bin/sis/search/r?dbs+hsdb:@term+@rn+@rel+100-00-5
   6. http://toxnet.nlm.nih.gov/cgi-bin/sis/search/r?dbs+hsdb:@term+@rn+@rel+100-00-5
   7. http://toxnet.nlm.nih.gov/cgi-bin/sis/search/r?dbs+hsdb:@term+@rn+@rel+100-00-5
   8. http://toxnet.nlm.nih.gov/cgi-bin/sis/search/r?dbs+hsdb:@term+@rn+@rel+100-00-5
   9. http://toxnet.nlm.nih.gov/cgi-bin/sis/search/r?dbs+hsdb:@term+@rn+@rel+100-00-5
  10. http://toxnet.nlm.nih.gov/cgi-bin/sis/search/r?dbs+hsdb:@term+@rn+@rel+100-00-5
  11. http://toxnet.nlm.nih.gov/cgi-bin/sis/search/r?dbs+hsdb:@term+@rn+@rel+100-00-5
  12. http://toxnet.nlm.nih.gov/cgi-bin/sis/search/r?dbs+hsdb:@term+@rn+@rel+100-00-5
  13. http://toxnet.nlm.nih.gov/cgi-bin/sis/search/r?dbs+hsdb:@term+@rn+@rel+100-00-5
  14. http://toxnet.nlm.nih.gov/cgi-bin/sis/search/r?dbs+hsdb:@term+@rn+@rel+100-00-5
  15. http://toxnet.nlm.nih.gov/cgi-bin/sis/search/r?dbs+hsdb:@term+@rn+@rel+100-00-5
  16. http://pubchem.ncbi.nlm.nih.gov/vw3d/vw3d.cgi?cid=7474
