6558
  -OEChem-07051212472D

 16 15  0     0  0  0  0  0  0999 V2000
    2.5369    0.2500    0.0000 N   0  0  0  0  0  0  0  0  0  0  0  0
    4.2690    0.2500    0.0000 C   0  0  0  0  0  0  0  0  0  0  0  0
    3.4030    0.7500    0.0000 C   0  0  0  0  0  0  0  0  0  0  0  0
    5.1350    0.7500    0.0000 C   0  0  0  0  0  0  0  0  0  0  0  0
    4.2690   -0.7500    0.0000 C   0  0  0  0  0  0  0  0  0  0  0  0
    4.2690    0.8700    0.0000 H   0  0  0  0  0  0  0  0  0  0  0  0
    3.8015    1.2250    0.0000 H   0  0  0  0  0  0  0  0  0  0  0  0
    3.0044    1.2250    0.0000 H   0  0  0  0  0  0  0  0  0  0  0  0
    5.4450    0.2131    0.0000 H   0  0  0  0  0  0  0  0  0  0  0  0
    5.6720    1.0600    0.0000 H   0  0  0  0  0  0  0  0  0  0  0  0
    4.8250    1.2869    0.0000 H   0  0  0  0  0  0  0  0  0  0  0  0
    3.6490   -0.7500    0.0000 H   0  0  0  0  0  0  0  0  0  0  0  0
    4.2690   -1.3700    0.0000 H   0  0  0  0  0  0  0  0  0  0  0  0
    4.8890   -0.7500    0.0000 H   0  0  0  0  0  0  0  0  0  0  0  0
    2.0000    0.5600    0.0000 H   0  0  0  0  0  0  0  0  0  0  0  0
    2.5369   -0.3700    0.0000 H   0  0  0  0  0  0  0  0  0  0  0  0
  1  3  1  0  0  0  0
  1 15  1  0  0  0  0
  1 16  1  0  0  0  0
  2  3  1  0  0  0  0
  2  4  1  0  0  0  0
  2  5  1  0  0  0  0
  2  6  1  0  0  0  0
  3  7  1  0  0  0  0
  3  8  1  0  0  0  0
  4  9  1  0  0  0  0
  4 10  1  0  0  0  0
  4 11  1  0  0  0  0
  5 12  1  0  0  0  0
  5 13  1  0  0  0  0
  5 14  1  0  0  0  0
M  END
> <PUBCHEM_COMPOUND_CID>
6558

> <PUBCHEM_COMPOUND_CANONICALIZED>
1

> <PUBCHEM_CACTVS_COMPLEXITY>
17.6

> <PUBCHEM_CACTVS_HBOND_ACCEPTOR>
1

> <PUBCHEM_CACTVS_HBOND_DONOR>
1

> <PUBCHEM_CACTVS_ROTATABLE_BOND>
1

> <PUBCHEM_CACTVS_SUBSKEYS>
AAADccBiAAAAAAAAAAAAAAAAAAAAAAAAAAAAAAAAAAAAAAAAAAAAHAAQAAAADQDBAAQCAABAAAAAAAAAAAAAAAAAAAAAAIAAAAAAAAAAAAAAAAAAEAAAAAAAAAAAAAAAAAAAAAAAAAAAAAAAAAAAAAAAAA==

> <PUBCHEM_IUPAC_OPENEYE_NAME>
2-methylpropan-1-amine

> <PUBCHEM_IUPAC_CAS_NAME>
2-methyl-1-propanamine

> <PUBCHEM_IUPAC_NAME>
2-methylpropan-1-amine

> <PUBCHEM_IUPAC_SYSTEMATIC_NAME>
2-methylpropan-1-amine

> <PUBCHEM_IUPAC_TRADITIONAL_NAME>
isobutylamine

> <PUBCHEM_IUPAC_INCHI>
InChI=1S/C4H11N/c1-4(2)3-5/h4H,3,5H2,1-2H3

> <PUBCHEM_IUPAC_INCHIKEY>
KDSNLYIMUZNERS-UHFFFAOYSA-N

> <PUBCHEM_XLOGP3>
0.7

> <PUBCHEM_EXACT_MASS>
73.089149

> <PUBCHEM_MOLECULAR_FORMULA>
C4H11N

> <PUBCHEM_MOLECULAR_WEIGHT>
73.13684

> <PUBCHEM_OPENEYE_CAN_SMILES>
CC(C)CN

> <PUBCHEM_OPENEYE_ISO_SMILES>
CC(C)CN

> <PUBCHEM_CACTVS_TPSA>
26

> <PUBCHEM_MONOISOTOPIC_WEIGHT>
73.089149

> <PUBCHEM_TOTAL_CHARGE>
0

> <PUBCHEM_HEAVY_ATOM_COUNT>
5

> <PUBCHEM_ATOM_DEF_STEREO_COUNT>
0

> <PUBCHEM_ATOM_UDEF_STEREO_COUNT>
0

> <PUBCHEM_BOND_DEF_STEREO_COUNT>
0

> <PUBCHEM_BOND_UDEF_STEREO_COUNT>
0

> <PUBCHEM_ISOTOPIC_ATOM_COUNT>
0

> <PUBCHEM_COMPONENT_COUNT>
1

> <PUBCHEM_CACTVS_TAUTO_COUNT>
1

> <PUBCHEM_COORDINATE_TYPE>
1
5
255

$$$$

