   Color/Form
        COLORLESS LIQ
   from [1]HSDB

   Boiling Point
        143 DEG C
   from [2]HSDB

   Melting Point
        19.5 DEG C (VACUUM)
   from [3]HSDB

   Density/Specific Gravity
        1.05 @ 20 DEG C
   from [4]HSDB

   Solubilities
        SOL IN ACETONE, BENZENE, CARBON TETRACHLORIDE, CHLOROFORM, DIETHYL
   ETHER, ETHANOL, ETHYL ACETATE, METHANOL, DICHLOROMETHANE AND WATER
   from [5]HSDB

   Other Chemical/Physical Properties
        Very sensitive to air oxidation (starts at -25 deg C); sensitive
   to hydrolysis by both acids and alkalis.
   from [6]HSDB

   Computed Properties
   Molecular Weight                  100.11912 [g/mol]
   Molecular Formula                 C[4]H[8]N[2]O
   XLogP3-AA                         -0.3
   H-Bond Donor                      0
   H-Bond Acceptor                   2
   Rotatable Bond Count              1
   Exact Mass                        100.063663
   MonoIsotopic Mass                 100.063663
   Topological Polar Surface Area    32.7
   Heavy Atom Count                  7
   Formal Charge                     0
   Complexity                        79.8
   Isotope Atom Count                0
   Defined Atom Stereocenter Count   0
   Undefined Atom Stereocenter Count 0
   Defined Bond Stereocenter Count   1
   Undefined Bond Stereocenter Count 0
   Covalently-Bonded Unit Count      1
   Feature 3D Acceptor Count         2
   Effective Rotor Count             2
   Conformer Sampling RMSD           0.4
   CID Conformer Count               [7]7

References

   1. http://toxnet.nlm.nih.gov/cgi-bin/sis/search/r?dbs+hsdb:@term+@rn+@rel+16568-02-8
   2. http://toxnet.nlm.nih.gov/cgi-bin/sis/search/r?dbs+hsdb:@term+@rn+@rel+16568-02-8
   3. http://toxnet.nlm.nih.gov/cgi-bin/sis/search/r?dbs+hsdb:@term+@rn+@rel+16568-02-8
   4. http://toxnet.nlm.nih.gov/cgi-bin/sis/search/r?dbs+hsdb:@term+@rn+@rel+16568-02-8
   5. http://toxnet.nlm.nih.gov/cgi-bin/sis/search/r?dbs+hsdb:@term+@rn+@rel+16568-02-8
   6. http://toxnet.nlm.nih.gov/cgi-bin/sis/search/r?dbs+hsdb:@term+@rn+@rel+16568-02-8
   7. http://pubchem.ncbi.nlm.nih.gov/vw3d/vw3d.cgi?cid=9548611
