24883452
  -OEChem-07051213152D

 55 56  0     1  0  0  0  0  0999 V2000
    3.7320   -3.7828    0.0000 O   0  0  0  0  0  0  0  0  0  0  0  0
    3.7320    1.4133    0.0000 C   0  0  1  0  0  0  0  0  0  0  0  0
    4.5981    1.9133    0.0000 C   0  0  1  0  0  0  0  0  0  0  0  0
    2.8660    1.9133    0.0000 C   0  0  2  0  0  0  0  0  0  0  0  0
    4.5981    2.9133    0.0000 C   0  0  0  0  0  0  0  0  0  0  0  0
    5.4920    3.4480    0.0000 C   0  0  0  0  0  0  0  0  0  0  0  0
    5.4920    1.3787    0.0000 C   0  0  0  0  0  0  0  0  0  0  0  0
    3.2320    0.5473    0.0000 C   0  0  0  0  0  0  0  0  0  0  0  0
    6.3981    2.9341    0.0000 C   0  0  0  0  0  0  0  0  0  0  0  0
    2.8660    2.9133    0.0000 C   0  0  0  0  0  0  0  0  0  0  0  0
    6.3981    1.8925    0.0000 C   0  0  0  0  0  0  0  0  0  0  0  0
    3.7320    3.4133    0.0000 C   0  0  0  0  0  0  0  0  0  0  0  0
    4.2320    0.5473    0.0000 C   0  0  0  0  0  0  0  0  0  0  0  0
    2.0000    1.4133    0.0000 C   0  0  0  0  0  0  0  0  0  0  0  0
    5.9820    4.3198    0.0000 C   0  0  0  0  0  0  0  0  0  0  0  0
    4.9820    4.3082    0.0000 C   0  0  0  0  0  0  0  0  0  0  0  0
    3.7320   -0.3187    0.0000 C   0  0  0  0  0  0  0  0  0  0  0  0
    3.2320   -1.1847    0.0000 C   0  0  0  0  0  0  0  0  0  0  0  0
    2.2320   -1.1847    0.0000 C   0  0  0  0  0  0  0  0  0  0  0  0
    3.7320   -2.0508    0.0000 C   0  0  0  0  0  0  0  0  0  0  0  0
    3.2320   -2.9168    0.0000 C   0  0  0  0  0  0  0  0  0  0  0  0
    4.5915    1.0634    0.0000 H   0  0  0  0  0  0  0  0  0  0  0  0
    2.8660    1.2933    0.0000 H   0  0  0  0  0  0  0  0  0  0  0  0
    5.0874    0.9089    0.0000 H   0  0  0  0  0  0  0  0  0  0  0  0
    5.8856    0.8997    0.0000 H   0  0  0  0  0  0  0  0  0  0  0  0
    2.7571    0.9458    0.0000 H   0  0  0  0  0  0  0  0  0  0  0  0
    2.7571    0.1488    0.0000 H   0  0  0  0  0  0  0  0  0  0  0  0
    7.0089    2.8281    0.0000 H   0  0  0  0  0  0  0  0  0  0  0  0
    6.6071    3.5178    0.0000 H   0  0  0  0  0  0  0  0  0  0  0  0
    2.6540    3.4960    0.0000 H   0  0  0  0  0  0  0  0  0  0  0  0
    2.2554    2.8057    0.0000 H   0  0  0  0  0  0  0  0  0  0  0  0
    6.6071    1.3088    0.0000 H   0  0  0  0  0  0  0  0  0  0  0  0
    7.0089    1.9986    0.0000 H   0  0  0  0  0  0  0  0  0  0  0  0
    3.7320    4.0333    0.0000 H   0  0  0  0  0  0  0  0  0  0  0  0
    3.6951    0.2373    0.0000 H   0  0  0  0  0  0  0  0  0  0  0  0
    4.5420    0.0104    0.0000 H   0  0  0  0  0  0  0  0  0  0  0  0
    4.7690    0.8573    0.0000 H   0  0  0  0  0  0  0  0  0  0  0  0
    1.6900    1.9503    0.0000 H   0  0  0  0  0  0  0  0  0  0  0  0
    1.4631    1.1033    0.0000 H   0  0  0  0  0  0  0  0  0  0  0  0
    2.3100    0.8764    0.0000 H   0  0  0  0  0  0  0  0  0  0  0  0
    5.5154    4.6244    0.0000 H   0  0  0  0  0  0  0  0  0  0  0  0
    4.6658    4.8415    0.0000 H   0  0  0  0  0  0  0  0  0  0  0  0
    4.4487    3.9920    0.0000 H   0  0  0  0  0  0  0  0  0  0  0  0
    6.5225    4.0160    0.0000 H   0  0  0  0  0  0  0  0  0  0  0  0
    6.2857    4.8602    0.0000 H   0  0  0  0  0  0  0  0  0  0  0  0
    5.4415    4.6235    0.0000 H   0  0  0  0  0  0  0  0  0  0  0  0
    4.2070   -0.7172    0.0000 H   0  0  0  0  0  0  0  0  0  0  0  0
    4.2070    0.0798    0.0000 H   0  0  0  0  0  0  0  0  0  0  0  0
    2.2320   -0.5647    0.0000 H   0  0  0  0  0  0  0  0  0  0  0  0
    1.6120   -1.1847    0.0000 H   0  0  0  0  0  0  0  0  0  0  0  0
    2.2320   -1.8047    0.0000 H   0  0  0  0  0  0  0  0  0  0  0  0
    4.3520   -2.0508    0.0000 H   0  0  0  0  0  0  0  0  0  0  0  0
    2.7571   -2.5183    0.0000 H   0  0  0  0  0  0  0  0  0  0  0  0
    2.7571   -3.3153    0.0000 H   0  0  0  0  0  0  0  0  0  0  0  0
    3.4220   -4.3198    0.0000 H   0  0  0  0  0  0  0  0  0  0  0  0
  1 21  1  0  0  0  0
  1 55  1  0  0  0  0
  2  3  1  0  0  0  0
  2  4  1  0  0  0  0
  2  8  1  0  0  0  0
  2 13  1  1  0  0  0
  3  5  1  0  0  0  0
  3  7  1  0  0  0  0
  3 22  1  6  0  0  0
  4 10  1  0  0  0  0
  4 14  1  1  0  0  0
  4 23  1  0  0  0  0
  5  6  1  0  0  0  0
  5 12  2  0  0  0  0
  6  9  1  0  0  0  0
  6 15  1  0  0  0  0
  6 16  1  0  0  0  0
  7 11  1  0  0  0  0
  7 24  1  0  0  0  0
  7 25  1  0  0  0  0
  8 17  1  0  0  0  0
  8 26  1  0  0  0  0
  8 27  1  0  0  0  0
  9 11  1  0  0  0  0
  9 28  1  0  0  0  0
  9 29  1  0  0  0  0
 10 12  1  0  0  0  0
 10 30  1  0  0  0  0
 10 31  1  0  0  0  0
 11 32  1  0  0  0  0
 11 33  1  0  0  0  0
 12 34  1  0  0  0  0
 13 35  1  0  0  0  0
 13 36  1  0  0  0  0
 13 37  1  0  0  0  0
 14 38  1  0  0  0  0
 14 39  1  0  0  0  0
 14 40  1  0  0  0  0
 15 44  1  0  0  0  0
 15 45  1  0  0  0  0
 15 46  1  0  0  0  0
 16 41  1  0  0  0  0
 16 42  1  0  0  0  0
 16 43  1  0  0  0  0
 17 18  1  0  0  0  0
 17 47  1  0  0  0  0
 17 48  1  0  0  0  0
 18 19  1  0  0  0  0
 18 20  2  0  0  0  0
 19 49  1  0  0  0  0
 19 50  1  0  0  0  0
 19 51  1  0  0  0  0
 20 21  1  0  0  0  0
 20 52  1  0  0  0  0
 21 53  1  0  0  0  0
 21 54  1  0  0  0  0
M  END
> <PUBCHEM_COMPOUND_CID>
24883452

> <PUBCHEM_COMPOUND_CANONICALIZED>
1

> <PUBCHEM_CACTVS_COMPLEXITY>
429

> <PUBCHEM_CACTVS_HBOND_ACCEPTOR>
1

> <PUBCHEM_CACTVS_HBOND_DONOR>
1

> <PUBCHEM_CACTVS_ROTATABLE_BOND>
4

> <PUBCHEM_CACTVS_SUBSKEYS>
AAADcfB4IAAAAAAAAAAAAAAAAAAAAAAAAAAwQAAAAAAAAACAAAAAGgAACAAADwCggAICAAAAAgCAAiBCAAAAAAAgAAAACAAAAAgAFAIAAQAAEAAAgAAIEAMAgMAPgAAAAAAAAAAAAAQAAAAAAAAAAAAAAA==

> <PUBCHEM_IUPAC_OPENEYE_NAME>
(E)-5-[(1R,2S,8aS)-1,2,5,5-tetramethyl-2,3,6,7,8,8a-hexahydronaphthalen-1-yl]-3-methyl-pent-2-en-1-ol

> <PUBCHEM_IUPAC_CAS_NAME>
(E)-5-[(1R,2S,8aS)-1,2,5,5-tetramethyl-2,3,6,7,8,8a-hexahydronaphthalen-1-yl]-3-methyl-2-penten-1-ol

> <PUBCHEM_IUPAC_NAME>
(E)-5-[(1R,2S,8aS)-1,2,5,5-tetramethyl-2,3,6,7,8,8a-hexahydronaphthalen-1-yl]-3-methylpent-2-en-1-ol

> <PUBCHEM_IUPAC_SYSTEMATIC_NAME>
(E)-5-[(1R,2S,8aS)-1,2,5,5-tetramethyl-2,3,6,7,8,8a-hexahydronaphthalen-1-yl]-3-methyl-pent-2-en-1-ol

> <PUBCHEM_IUPAC_TRADITIONAL_NAME>
(E)-5-[(1R,2S,8aS)-1,2,5,5-tetramethyl-2,3,6,7,8,8a-hexahydronaphthalen-1-yl]-3-methyl-pent-2-en-1-ol

> <PUBCHEM_IUPAC_INCHI>
InChI=1S/C20H34O/c1-15(11-14-21)10-13-20(5)16(2)8-9-17-18(20)7-6-12-19(17,3)4/h9,11,16,18,21H,6-8,10,12-14H2,1-5H3/b15-11+/t16-,18+,20+/m0/s1

> <PUBCHEM_IUPAC_INCHIKEY>
VHFDWNJLUATPID-AHKHSGQUSA-N

> <PUBCHEM_XLOGP3_AA>
6

> <PUBCHEM_EXACT_MASS>
290.260966

> <PUBCHEM_MOLECULAR_FORMULA>
C20H34O

> <PUBCHEM_MOLECULAR_WEIGHT>
290.48336

> <PUBCHEM_OPENEYE_CAN_SMILES>
CC1CC=C2C(C1(C)CCC(=CCO)C)CCCC2(C)C

> <PUBCHEM_OPENEYE_ISO_SMILES>
C[C@H]1CC=C2[C@H]([C@]1(C)CC/C(=C/CO)/C)CCCC2(C)C

> <PUBCHEM_CACTVS_TPSA>
20.2

> <PUBCHEM_MONOISOTOPIC_WEIGHT>
290.260966

> <PUBCHEM_TOTAL_CHARGE>
0

> <PUBCHEM_HEAVY_ATOM_COUNT>
21

> <PUBCHEM_ATOM_DEF_STEREO_COUNT>
3

> <PUBCHEM_ATOM_UDEF_STEREO_COUNT>
0

> <PUBCHEM_BOND_DEF_STEREO_COUNT>
1

> <PUBCHEM_BOND_UDEF_STEREO_COUNT>
0

> <PUBCHEM_ISOTOPIC_ATOM_COUNT>
0

> <PUBCHEM_COMPONENT_COUNT>
1

> <PUBCHEM_CACTVS_TAUTO_COUNT>
1

> <PUBCHEM_COORDINATE_TYPE>
1
5
255

> <PUBCHEM_BONDANNOTATIONS>
2  13  5
3  22  6
4  14  5

$$$$

