46173826
  -OEChem-07051213092D

 85 89  0     1  0  0  0  0  0999 V2000
    9.1885    2.6878    0.0000 O   0  0  0  0  0  0  0  0  0  0  0  0
    2.5357   -3.2379    0.0000 O   0  0  0  0  0  0  0  0  0  0  0  0
   10.9491    2.9635    0.0000 O   0  0  0  0  0  0  0  0  0  0  0  0
    7.0978    1.0163    0.0000 O   0  0  0  0  0  0  0  0  0  0  0  0
    6.6023    3.6153    0.0000 O   0  0  0  0  0  0  0  0  0  0  0  0
    7.9288   -0.1855    0.0000 C   0  0  2  0  0  0  0  0  0  0  0  0
    7.9288   -1.1855    0.0000 C   0  0  1  0  0  0  0  0  0  0  0  0
    8.8750    0.1192    0.0000 C   0  0  1  0  0  0  0  0  0  0  0  0
    6.1968   -1.1855    0.0000 C   0  0  2  0  0  0  0  0  0  0  0  0
    5.2868   -1.6924    0.0000 C   0  0  2  0  0  0  0  0  0  0  0  0
    7.0628   -1.6855    0.0000 C   0  0  0  0  0  0  0  0  0  0  0  0
    7.0628    0.3145    0.0000 C   0  0  0  0  0  0  0  0  0  0  0  0
    8.8750   -1.4903    0.0000 C   0  0  0  0  0  0  0  0  0  0  0  0
    5.2787   -2.7340    0.0000 C   0  0  2  0  0  0  0  0  0  0  0  0
    9.4586   -0.6855    0.0000 C   0  0  0  0  0  0  0  0  0  0  0  0
    6.1968   -0.1855    0.0000 C   0  0  0  0  0  0  0  0  0  0  0  0
    9.1857    1.0697    0.0000 C   0  0  2  0  0  0  0  0  0  0  0  0
    4.3433   -3.2837    0.0000 C   0  0  0  0  0  0  0  0  0  0  0  0
    4.3599   -1.1283    0.0000 C   0  0  0  0  0  0  0  0  0  0  0  0
    7.9288    0.8145    0.0000 C   0  0  0  0  0  0  0  0  0  0  0  0
    6.1808   -3.2548    0.0000 C   0  0  0  0  0  0  0  0  0  0  0  0
    7.9288   -2.1855    0.0000 C   0  0  0  0  0  0  0  0  0  0  0  0
    7.0789   -2.7271    0.0000 C   0  0  0  0  0  0  0  0  0  0  0  0
    3.4037   -2.7412    0.0000 C   0  0  2  0  0  0  0  0  0  0  0  0
    5.2945   -0.6924    0.0000 C   0  0  0  0  0  0  0  0  0  0  0  0
    3.4120   -1.6562    0.0000 C   0  0  0  0  0  0  0  0  0  0  0  0
    8.5993    1.8798    0.0000 C   0  0  2  0  0  0  0  0  0  0  0  0
   10.1373    1.3771    0.0000 C   0  0  0  0  0  0  0  0  0  0  0  0
    3.8467   -4.1517    0.0000 C   0  0  0  0  0  0  0  0  0  0  0  0
    4.8466   -4.1478    0.0000 C   0  0  0  0  0  0  0  0  0  0  0  0
   10.1390    2.3771    0.0000 C   0  0  1  0  0  0  0  0  0  0  0  0
    7.5993    1.8815    0.0000 C   0  0  1  0  0  0  0  0  0  0  0  0
    7.1008    2.7484    0.0000 C   0  0  0  0  0  0  0  0  0  0  0  0
    6.2339    2.2499    0.0000 C   0  0  0  0  0  0  0  0  0  0  0  0
    7.9677    3.2469    0.0000 C   0  0  0  0  0  0  0  0  0  0  0  0
    9.7148    0.2511    0.0000 H   0  0  0  0  0  0  0  0  0  0  0  0
    6.9329   -0.7605    0.0000 H   0  0  0  0  0  0  0  0  0  0  0  0
    7.4613    0.7894    0.0000 H   0  0  0  0  0  0  0  0  0  0  0  0
    6.6643    0.7894    0.0000 H   0  0  0  0  0  0  0  0  0  0  0  0
    8.6240   -2.0572    0.0000 H   0  0  0  0  0  0  0  0  0  0  0  0
    9.4124   -1.7995    0.0000 H   0  0  0  0  0  0  0  0  0  0  0  0
    5.2820   -3.5840    0.0000 H   0  0  0  0  0  0  0  0  0  0  0  0
    9.9195   -1.1003    0.0000 H   0  0  0  0  0  0  0  0  0  0  0  0
    9.9195   -0.2708    0.0000 H   0  0  0  0  0  0  0  0  0  0  0  0
    5.9847    0.3971    0.0000 H   0  0  0  0  0  0  0  0  0  0  0  0
    5.5862   -0.2932    0.0000 H   0  0  0  0  0  0  0  0  0  0  0  0
    9.7857    0.4676    0.0000 H   0  0  0  0  0  0  0  0  0  0  0  0
    4.7681   -0.6616    0.0000 H   0  0  0  0  0  0  0  0  0  0  0  0
    3.9700   -0.6463    0.0000 H   0  0  0  0  0  0  0  0  0  0  0  0
    8.5488    0.8145    0.0000 H   0  0  0  0  0  0  0  0  0  0  0  0
    7.9288    1.4345    0.0000 H   0  0  0  0  0  0  0  0  0  0  0  0
    7.3088    0.8145    0.0000 H   0  0  0  0  0  0  0  0  0  0  0  0
    5.7835   -3.7308    0.0000 H   0  0  0  0  0  0  0  0  0  0  0  0
    6.5818   -3.7277    0.0000 H   0  0  0  0  0  0  0  0  0  0  0  0
    7.3088   -2.1855    0.0000 H   0  0  0  0  0  0  0  0  0  0  0  0
    7.9288   -2.8055    0.0000 H   0  0  0  0  0  0  0  0  0  0  0  0
    8.5488   -2.1855    0.0000 H   0  0  0  0  0  0  0  0  0  0  0  0
    7.6193   -3.0308    0.0000 H   0  0  0  0  0  0  0  0  0  0  0  0
    3.4025   -3.3612    0.0000 H   0  0  0  0  0  0  0  0  0  0  0  0
    5.9145   -0.6972    0.0000 H   0  0  0  0  0  0  0  0  0  0  0  0
    5.2993   -0.0724    0.0000 H   0  0  0  0  0  0  0  0  0  0  0  0
    4.6745   -0.6876    0.0000 H   0  0  0  0  0  0  0  0  0  0  0  0
    3.2075   -1.0710    0.0000 H   0  0  0  0  0  0  0  0  0  0  0  0
    2.8004   -1.7576    0.0000 H   0  0  0  0  0  0  0  0  0  0  0  0
    8.2147    2.6378    0.0000 H   0  0  0  0  0  0  0  0  0  0  0  0
   10.2651    0.7704    0.0000 H   0  0  0  0  0  0  0  0  0  0  0  0
   10.7540    1.4408    0.0000 H   0  0  0  0  0  0  0  0  0  0  0  0
    4.3109   -4.4599    0.0000 H   0  0  0  0  0  0  0  0  0  0  0  0
    5.1587   -4.6835    0.0000 H   0  0  0  0  0  0  0  0  0  0  0  0
    5.3824   -3.8357    0.0000 H   0  0  0  0  0  0  0  0  0  0  0  0
    3.3085   -3.8437    0.0000 H   0  0  0  0  0  0  0  0  0  0  0  0
    3.5387   -4.6898    0.0000 H   0  0  0  0  0  0  0  0  0  0  0  0
    4.3848   -4.4596    0.0000 H   0  0  0  0  0  0  0  0  0  0  0  0
   10.6910    2.0946    0.0000 H   0  0  0  0  0  0  0  0  0  0  0  0
    6.9793    1.8826    0.0000 H   0  0  0  0  0  0  0  0  0  0  0  0
    2.0000   -2.9258    0.0000 H   0  0  0  0  0  0  0  0  0  0  0  0
   10.8853    3.5802    0.0000 H   0  0  0  0  0  0  0  0  0  0  0  0
    6.4778    1.0174    0.0000 H   0  0  0  0  0  0  0  0  0  0  0  0
    8.2768    2.7094    0.0000 H   0  0  0  0  0  0  0  0  0  0  0  0
    8.5052    3.5559    0.0000 H   0  0  0  0  0  0  0  0  0  0  0  0
    7.6586    3.7843    0.0000 H   0  0  0  0  0  0  0  0  0  0  0  0
    5.9249    2.7873    0.0000 H   0  0  0  0  0  0  0  0  0  0  0  0
    5.6965    1.9408    0.0000 H   0  0  0  0  0  0  0  0  0  0  0  0
    6.5430    1.7124    0.0000 H   0  0  0  0  0  0  0  0  0  0  0  0
    6.9132    4.1517    0.0000 H   0  0  0  0  0  0  0  0  0  0  0  0
  1 27  1  0  0  0  0
  1 31  1  0  0  0  0
 24  2  1  1  0  0  0
  2 76  1  0  0  0  0
 31  3  1  1  0  0  0
  3 77  1  0  0  0  0
 32  4  1  6  0  0  0
  4 78  1  0  0  0  0
  5 33  1  0  0  0  0
  5 85  1  0  0  0  0
  6  7  1  0  0  0  0
  6  8  1  0  0  0  0
  6 12  1  0  0  0  0
  6 20  1  6  0  0  0
  7 11  1  0  0  0  0
  7 13  1  0  0  0  0
  7 22  1  1  0  0  0
  8 15  1  0  0  0  0
  8 17  1  0  0  0  0
  8 36  1  1  0  0  0
  9 10  1  0  0  0  0
  9 11  1  0  0  0  0
  9 16  1  0  0  0  0
  9 37  1  6  0  0  0
 10 14  1  0  0  0  0
 10 19  1  0  0  0  0
 10 25  1  1  0  0  0
 11 23  2  0  0  0  0
 12 16  1  0  0  0  0
 12 38  1  0  0  0  0
 12 39  1  0  0  0  0
 13 15  1  0  0  0  0
 13 40  1  0  0  0  0
 13 41  1  0  0  0  0
 14 18  1  0  0  0  0
 14 21  1  0  0  0  0
 14 42  1  6  0  0  0
 15 43  1  0  0  0  0
 15 44  1  0  0  0  0
 16 45  1  0  0  0  0
 16 46  1  0  0  0  0
 17 27  1  0  0  0  0
 17 28  1  0  0  0  0
 17 47  1  1  0  0  0
 18 24  1  0  0  0  0
 18 29  1  0  0  0  0
 18 30  1  0  0  0  0
 19 26  1  0  0  0  0
 19 48  1  0  0  0  0
 19 49  1  0  0  0  0
 20 50  1  0  0  0  0
 20 51  1  0  0  0  0
 20 52  1  0  0  0  0
 21 23  1  0  0  0  0
 21 53  1  0  0  0  0
 21 54  1  0  0  0  0
 22 55  1  0  0  0  0
 22 56  1  0  0  0  0
 22 57  1  0  0  0  0
 23 58  1  0  0  0  0
 24 26  1  0  0  0  0
 24 59  1  0  0  0  0
 25 60  1  0  0  0  0
 25 61  1  0  0  0  0
 25 62  1  0  0  0  0
 26 63  1  0  0  0  0
 26 64  1  0  0  0  0
 27 32  1  0  0  0  0
 27 65  1  1  0  0  0
 28 31  1  0  0  0  0
 28 66  1  0  0  0  0
 28 67  1  0  0  0  0
 29 71  1  0  0  0  0
 29 72  1  0  0  0  0
 29 73  1  0  0  0  0
 30 68  1  0  0  0  0
 30 69  1  0  0  0  0
 30 70  1  0  0  0  0
 31 74  1  0  0  0  0
 32 33  1  0  0  0  0
 32 75  1  0  0  0  0
 33 34  1  0  0  0  0
 33 35  1  0  0  0  0
 34 82  1  0  0  0  0
 34 83  1  0  0  0  0
 34 84  1  0  0  0  0
 35 79  1  0  0  0  0
 35 80  1  0  0  0  0
 35 81  1  0  0  0  0
M  END
> <PUBCHEM_COMPOUND_CID>
46173826

> <PUBCHEM_COMPOUND_CANONICALIZED>
1

> <PUBCHEM_CACTVS_COMPLEXITY>
880

> <PUBCHEM_CACTVS_HBOND_ACCEPTOR>
5

> <PUBCHEM_CACTVS_HBOND_DONOR>
4

> <PUBCHEM_CACTVS_ROTATABLE_BOND>
3

> <PUBCHEM_CACTVS_SUBSKEYS>
AAADcfB4OAAAAAAAAAAAAAAAAAAAAaIAAAAwYIAAAAAAAGCAAAAAGgAACAAAD1SwgAMCCAAABgCAAiBCAAAAAAAgAAAACAAAAAgREAIAAQACQAAFgAAPAAPA4PQPgAAAAAAAAADAAAYAADAAAQAACAAAAA==

> <PUBCHEM_IUPAC_OPENEYE_NAME>
(1S)-1-[(2R,3R,5R)-5-hydroxy-3-[(3S,5R,9R,10R,13S,14S,17S)-3-hydroxy-4,4,10,13,14-pentamethyl-2,3,5,6,9,11,12,15,16,17-decahydro-1H-cyclopenta[a]phenanthren-17-yl]tetrahydrofuran-2-yl]-2-methyl-propane-1,2-diol

> <PUBCHEM_IUPAC_CAS_NAME>
(1S)-1-[(2R,3R,5R)-5-hydroxy-3-[(3S,5R,9R,10R,13S,14S,17S)-3-hydroxy-4,4,10,13,14-pentamethyl-2,3,5,6,9,11,12,15,16,17-decahydro-1H-cyclopenta[a]phenanthren-17-yl]-2-oxolanyl]-2-methylpropane-1,2-diol

> <PUBCHEM_IUPAC_NAME>
(1S)-1-[(2R,3R,5R)-5-hydroxy-3-[(3S,5R,9R,10R,13S,14S,17S)-3-hydroxy-4,4,10,13,14-pentamethyl-2,3,5,6,9,11,12,15,16,17-decahydro-1H-cyclopenta[a]phenanthren-17-yl]oxolan-2-yl]-2-methylpropane-1,2-diol

> <PUBCHEM_IUPAC_SYSTEMATIC_NAME>
(1S)-2-methyl-1-[(2R,3R,5R)-5-oxidanyl-3-[(3S,5R,9R,10R,13S,14S,17S)-4,4,10,13,14-pentamethyl-3-oxidanyl-2,3,5,6,9,11,12,15,16,17-decahydro-1H-cyclopenta[a]phenanthren-17-yl]oxolan-2-yl]propane-1,2-diol

> <PUBCHEM_IUPAC_TRADITIONAL_NAME>
(1S)-1-[(2R,3R,5R)-5-hydroxy-3-[(3S,5R,9R,10R,13S,14S,17S)-3-hydroxy-4,4,10,13,14-pentamethyl-2,3,5,6,9,11,12,15,16,17-decahydro-1H-cyclopenta[a]phenanthren-17-yl]tetrahydrofuran-2-yl]-2-methyl-propane-1,2-diol

> <PUBCHEM_IUPAC_INCHI>
InChI=1S/C30H50O5/c1-26(2)21-9-8-20-19(28(21,5)13-12-22(26)31)11-15-29(6)18(10-14-30(20,29)7)17-16-23(32)35-24(17)25(33)27(3,4)34/h8,17-19,21-25,31-34H,9-16H2,1-7H3/t17-,18+,19+,21+,22+,23-,24-,25+,28-,29+,30-/m1/s1

> <PUBCHEM_IUPAC_INCHIKEY>
NHYIETFMKIFXQL-VPEHNIDMSA-N

> <PUBCHEM_XLOGP3_AA>
5

> <PUBCHEM_EXACT_MASS>
490.365825

> <PUBCHEM_MOLECULAR_FORMULA>
C30H50O5

> <PUBCHEM_MOLECULAR_WEIGHT>
490.715

> <PUBCHEM_OPENEYE_CAN_SMILES>
CC1(C(CCC2(C1CC=C3C2CCC4(C3(CCC4C5CC(OC5C(C(C)(C)O)O)O)C)C)C)O)C

> <PUBCHEM_OPENEYE_ISO_SMILES>
C[C@@]12CC[C@H]3C(=CC[C@@H]4[C@@]3(CC[C@@H](C4(C)C)O)C)[C@]1(CC[C@H]2[C@H]5C[C@@H](O[C@H]5[C@@H](C(C)(C)O)O)O)C

> <PUBCHEM_CACTVS_TPSA>
90.2

> <PUBCHEM_MONOISOTOPIC_WEIGHT>
490.365825

> <PUBCHEM_TOTAL_CHARGE>
0

> <PUBCHEM_HEAVY_ATOM_COUNT>
35

> <PUBCHEM_ATOM_DEF_STEREO_COUNT>
11

> <PUBCHEM_ATOM_UDEF_STEREO_COUNT>
0

> <PUBCHEM_BOND_DEF_STEREO_COUNT>
0

> <PUBCHEM_BOND_UDEF_STEREO_COUNT>
0

> <PUBCHEM_ISOTOPIC_ATOM_COUNT>
0

> <PUBCHEM_COMPONENT_COUNT>
1

> <PUBCHEM_CACTVS_TAUTO_COUNT>
1

> <PUBCHEM_COORDINATE_TYPE>
1
5
255

> <PUBCHEM_BONDANNOTATIONS>
10  25  5
14  42  6
17  47  5
24  2  5
27  65  5
31  3  5
32  4  6
6  20  6
7  22  5
8  36  5
9  37  6

$$$$

