   Color/Form
        Colorless or yellow liquid.
   from [1]HSDB

   Odor
        Strong, fishy, amine odor.
   from [2]HSDB

   Boiling Point
        134.5 deg C @ 760 mm Hg
   from [3]HSDB

   Melting Point
        -17.7 deg C
   from [4]HSDB

   Density/Specific Gravity
        0.8647 @ 25 deg C/25 deg C
   from [5]HSDB

   Dissociation Constants
        pKa = 10.63
   from [6]HSDB

   Octanol/Water Partition Coefficient
        log Kow = 1.49
   from [7]HSDB

   pH
        STRONG BASE
   from [8]HSDB

   Solubilities

     * Very soluble in ethanol, miscible in ether and acetone.
     * Miscible with common organic solvents: alcohol, ethers, ketones,
       esters, aliphatic hydrocarbons; completely miscible with aromatic
       hydrocarbons.
     * SOL IN CHLORINATED HYDROCARBONS, MINERAL OIL, PEANUT OIL AND SOYA
       BEAN OIL
     * Miscible with water.

   from [9]HSDB

   Spectral Properties

     * Index of refraction: 1.4565 @ 25 deg C/D
     * IR: SAD 845 (Sadtler Research Laboratories Prism Collection)
     * NMR: SAD 6937 (Sadtler Research Laboratories Spectral Collection)
     * MASS: NIST 27855 (NIST/EPA/MSDC Mass Spectral Database, 1990
       version)

   from [10]HSDB

   Vapor Density
        3.42 (Air= 1)
   from [11]HSDB

   Vapor Pressure
        10.1 mm Hg @ 25 deg C
   from [12]HSDB

   Other Chemical/Physical Properties

     * On distillation with water, cyclohexylamine forms azeotropic mixt,
       boiling @ 96.4 deg C @ 760 mm Hg; reacts with excess ammonia and
       zinc chloride @ 350 deg C to produce alpha-picoline.
     * REACTS WITH ORGANIC COMPOUNDS CONTAINING AN ACTIVE HALOGEN ATOM,
       ACID ANHYDRIDES & ALKYLENE OXIDES, TO REPLACE ONE OR BOTH HYDROGEN
       ATOMS ON THE NITROGEN ATOM; REACTS WITH NITROUS ACID TO FORM
       CYCLOHEXANOL
     * Henry's Law constant= 4.16X10-6 atm-cu m/mole @ 25 deg C

   from [13]HSDB

   Computed Properties
   Molecular Weight                  99.17412 [g/mol]
   Molecular Formula                 C[6]H[13]N
   XLogP3                            1.5
   H-Bond Donor                      1
   H-Bond Acceptor                   1
   Rotatable Bond Count              0
   Exact Mass                        99.104799
   MonoIsotopic Mass                 99.104799
   Topological Polar Surface Area    26
   Heavy Atom Count                  7
   Formal Charge                     0
   Complexity                        46.1
   Isotope Atom Count                0
   Defined Atom Stereocenter Count   0
   Undefined Atom Stereocenter Count 0
   Defined Bond Stereocenter Count   0
   Undefined Bond Stereocenter Count 0
   Covalently-Bonded Unit Count      1
   Feature 3D Donor Count            1
   Feature 3D Cation Count           1
   Feature 3D Ring Count             1
   Effective Rotor Count             1.2
   Conformer Sampling RMSD           0.4
   CID Conformer Count               [14]4

References

   1. http://toxnet.nlm.nih.gov/cgi-bin/sis/search/r?dbs+hsdb:@term+@rn+@rel+108-91-8
   2. http://toxnet.nlm.nih.gov/cgi-bin/sis/search/r?dbs+hsdb:@term+@rn+@rel+108-91-8
   3. http://toxnet.nlm.nih.gov/cgi-bin/sis/search/r?dbs+hsdb:@term+@rn+@rel+108-91-8
   4. http://toxnet.nlm.nih.gov/cgi-bin/sis/search/r?dbs+hsdb:@term+@rn+@rel+108-91-8
   5. http://toxnet.nlm.nih.gov/cgi-bin/sis/search/r?dbs+hsdb:@term+@rn+@rel+108-91-8
   6. http://toxnet.nlm.nih.gov/cgi-bin/sis/search/r?dbs+hsdb:@term+@rn+@rel+108-91-8
   7. http://toxnet.nlm.nih.gov/cgi-bin/sis/search/r?dbs+hsdb:@term+@rn+@rel+108-91-8
   8. http://toxnet.nlm.nih.gov/cgi-bin/sis/search/r?dbs+hsdb:@term+@rn+@rel+108-91-8
   9. http://toxnet.nlm.nih.gov/cgi-bin/sis/search/r?dbs+hsdb:@term+@rn+@rel+108-91-8
  10. http://toxnet.nlm.nih.gov/cgi-bin/sis/search/r?dbs+hsdb:@term+@rn+@rel+108-91-8
  11. http://toxnet.nlm.nih.gov/cgi-bin/sis/search/r?dbs+hsdb:@term+@rn+@rel+108-91-8
  12. http://toxnet.nlm.nih.gov/cgi-bin/sis/search/r?dbs+hsdb:@term+@rn+@rel+108-91-8
  13. http://toxnet.nlm.nih.gov/cgi-bin/sis/search/r?dbs+hsdb:@term+@rn+@rel+108-91-8
  14. http://pubchem.ncbi.nlm.nih.gov/vw3d/vw3d.cgi?cid=7965
