442945
  -OEChem-07051213002D

 53 57  0     1  0  0  0  0  0999 V2000
    3.7218   -1.3348    0.0000 O   0  0  0  0  0  0  0  0  0  0  0  0
    9.7173    1.0235    0.0000 O   0  0  0  0  0  0  0  0  0  0  0  0
    2.0000   -1.5225    0.0000 O   0  0  0  0  0  0  0  0  0  0  0  0
    3.4131    1.7189    0.0000 N   0  0  3  0  0  0  0  0  0  0  0  0
    8.3436    2.1399    0.0000 N   0  0  0  0  0  0  0  0  0  0  0  0
    3.8914   -3.4165    0.0000 N   0  0  0  0  0  0  0  0  0  0  0  0
    5.8618    2.5553    0.0000 C   0  0  1  0  0  0  0  0  0  0  0  0
    6.1206    3.5212    0.0000 C   0  0  1  0  0  0  0  0  0  0  0  0
    4.3266    1.3121    0.0000 C   0  0  2  0  0  0  0  0  0  0  0  0
    5.3840    4.5038    0.0000 C   0  0  0  0  0  0  0  0  0  0  0  0
    7.9852    3.0735    0.0000 C   0  0  1  0  0  0  0  0  0  0  0  0
    3.5176    2.7134    0.0000 C   0  0  0  0  0  0  0  0  0  0  0  0
    7.5665    1.5106    0.0000 C   0  0  0  0  0  0  0  0  0  0  0  0
    4.4514    0.2780    0.0000 C   0  0  0  0  0  0  0  0  0  0  0  0
    8.6282    3.8930    0.0000 C   0  0  0  0  0  0  0  0  0  0  0  0
    2.5610    1.1197    0.0000 C   0  0  0  0  0  0  0  0  0  0  0  0
    3.6135   -0.3407    0.0000 C   0  0  2  0  0  0  0  0  0  0  0  0
    2.6619    0.0829    0.0000 C   0  0  0  0  0  0  0  0  0  0  0  0
    9.6582    3.7380    0.0000 C   0  0  0  0  0  0  0  0  0  0  0  0
    9.3698    1.9612    0.0000 C   0  0  0  0  0  0  0  0  0  0  0  0
   10.0315    2.7656    0.0000 C   0  0  0  0  0  0  0  0  0  0  0  0
    2.9151   -1.9257    0.0000 C   0  0  0  0  0  0  0  0  0  0  0  0
    3.0235   -2.9198    0.0000 C   0  0  0  0  0  0  0  0  0  0  0  0
    2.2829   -3.5918    0.0000 C   0  0  0  0  0  0  0  0  0  0  0  0
    3.6873   -4.3954    0.0000 C   0  0  0  0  0  0  0  0  0  0  0  0
    2.6932   -4.5038    0.0000 C   0  0  0  0  0  0  0  0  0  0  0  0
    5.6418    1.7342    0.0000 H   0  0  0  0  0  0  0  0  0  0  0  0
    6.3406    4.3422    0.0000 H   0  0  0  0  0  0  0  0  0  0  0  0
    5.1031    0.9664    0.0000 H   0  0  0  0  0  0  0  0  0  0  0  0
    5.7018    5.0362    0.0000 H   0  0  0  0  0  0  0  0  0  0  0  0
    4.7708    4.5958    0.0000 H   0  0  0  0  0  0  0  0  0  0  0  0
    7.6806    3.8671    0.0000 H   0  0  0  0  0  0  0  0  0  0  0  0
    3.4153    3.3249    0.0000 H   0  0  0  0  0  0  0  0  0  0  0  0
    2.8979    2.6945    0.0000 H   0  0  0  0  0  0  0  0  0  0  0  0
    7.1848    1.0221    0.0000 H   0  0  0  0  0  0  0  0  0  0  0  0
    8.0087    1.0761    0.0000 H   0  0  0  0  0  0  0  0  0  0  0  0
    4.7290   -0.2764    0.0000 H   0  0  0  0  0  0  0  0  0  0  0  0
    5.0452    0.4565    0.0000 H   0  0  0  0  0  0  0  0  0  0  0  0
    8.8240    4.4813    0.0000 H   0  0  0  0  0  0  0  0  0  0  0  0
    8.0821    4.1866    0.0000 H   0  0  0  0  0  0  0  0  0  0  0  0
    2.2964    1.6804    0.0000 H   0  0  0  0  0  0  0  0  0  0  0  0
    1.9633    0.9549    0.0000 H   0  0  0  0  0  0  0  0  0  0  0  0
    4.1813   -0.5896    0.0000 H   0  0  0  0  0  0  0  0  0  0  0  0
    2.0436    0.1294    0.0000 H   0  0  0  0  0  0  0  0  0  0  0  0
    2.5104   -0.5183    0.0000 H   0  0  0  0  0  0  0  0  0  0  0  0
   10.2665    3.8579    0.0000 H   0  0  0  0  0  0  0  0  0  0  0  0
    9.6442    4.3579    0.0000 H   0  0  0  0  0  0  0  0  0  0  0  0
   10.4359    2.2956    0.0000 H   0  0  0  0  0  0  0  0  0  0  0  0
   10.5638    3.0835    0.0000 H   0  0  0  0  0  0  0  0  0  0  0  0
    4.4568   -3.1622    0.0000 H   0  0  0  0  0  0  0  0  0  0  0  0
    1.6760   -3.4653    0.0000 H   0  0  0  0  0  0  0  0  0  0  0  0
    4.1039   -4.8546    0.0000 H   0  0  0  0  0  0  0  0  0  0  0  0
    2.3852   -5.0419    0.0000 H   0  0  0  0  0  0  0  0  0  0  0  0
 17  1  1  1  0  0  0
  1 22  1  0  0  0  0
  2 20  2  0  0  0  0
  3 22  2  0  0  0  0
  4  9  1  0  0  0  0
  4 12  1  0  0  0  0
  4 16  1  0  0  0  0
  5 11  1  0  0  0  0
  5 13  1  0  0  0  0
  5 20  1  0  0  0  0
  6 23  1  0  0  0  0
  6 25  1  0  0  0  0
  6 50  1  0  0  0  0
  7  9  1  0  0  0  0
  7 10  1  0  0  0  0
  7 13  1  0  0  0  0
  7 27  1  6  0  0  0
  8 10  1  0  0  0  0
  8 11  1  0  0  0  0
  8 12  1  0  0  0  0
  8 28  1  6  0  0  0
  9 14  1  0  0  0  0
  9 29  1  1  0  0  0
 10 30  1  0  0  0  0
 10 31  1  0  0  0  0
 11 15  1  0  0  0  0
 11 32  1  6  0  0  0
 12 33  1  0  0  0  0
 12 34  1  0  0  0  0
 13 35  1  0  0  0  0
 13 36  1  0  0  0  0
 14 17  1  0  0  0  0
 14 37  1  0  0  0  0
 14 38  1  0  0  0  0
 15 19  1  0  0  0  0
 15 39  1  0  0  0  0
 15 40  1  0  0  0  0
 16 18  1  0  0  0  0
 16 41  1  0  0  0  0
 16 42  1  0  0  0  0
 17 18  1  0  0  0  0
 17 43  1  0  0  0  0
 18 44  1  0  0  0  0
 18 45  1  0  0  0  0
 19 21  1  0  0  0  0
 19 46  1  0  0  0  0
 19 47  1  0  0  0  0
 20 21  1  0  0  0  0
 21 48  1  0  0  0  0
 21 49  1  0  0  0  0
 22 23  1  0  0  0  0
 23 24  2  0  0  0  0
 24 26  1  0  0  0  0
 24 51  1  0  0  0  0
 25 26  2  0  0  0  0
 25 52  1  0  0  0  0
 26 53  1  0  0  0  0
M  END
> <PUBCHEM_COMPOUND_CID>
442945

> <PUBCHEM_COMPOUND_CANONICALIZED>
1

> <PUBCHEM_CACTVS_COMPLEXITY>
583

> <PUBCHEM_CACTVS_HBOND_ACCEPTOR>
4

> <PUBCHEM_CACTVS_HBOND_DONOR>
1

> <PUBCHEM_CACTVS_ROTATABLE_BOND>
3

> <PUBCHEM_CACTVS_SUBSKEYS>
AAADceB7MAAAAAAAAAAAAAAAAAAAAWAAAAAsWLFgAAAWAACxgAAAHgAQAAAADTzhlgY8iJPJlACoATX3XASCgCA3AiAI2aG4bNgKJvLA9bmHEQhm1gHY6YeY2eKeAAAAAAAAAAAAAAAAAAAAAAAAAAAAAA==

> <PUBCHEM_IUPAC_INCHI>
InChI=1S/C20H27N3O3/c24-19-5-1-4-17-13-9-14(12-23(17)19)18-10-15(6-8-22(18)11-13)26-20(25)16-3-2-7-21-16/h2-3,7,13-15,17-18,21H,1,4-6,8-12H2/t13-,14+,15+,17-,18+/m1/s1

> <PUBCHEM_IUPAC_INCHIKEY>
YFRYJFMFQOBOSY-WBOSRHFRSA-N

> <PUBCHEM_XLOGP3_AA>
2

> <PUBCHEM_EXACT_MASS>
357.205242

> <PUBCHEM_MOLECULAR_FORMULA>
C20H27N3O3

> <PUBCHEM_MOLECULAR_WEIGHT>
357.44668

> <PUBCHEM_OPENEYE_CAN_SMILES>
C1CC2C3CC(CN2C(=O)C1)C4CC(CCN4C3)OC(=O)C5=CC=CN5

> <PUBCHEM_OPENEYE_ISO_SMILES>
C1C[C@@H]2[C@@H]3C[C@@H](CN2C(=O)C1)[C@@H]4C[C@H](CCN4C3)OC(=O)C5=CC=CN5

> <PUBCHEM_CACTVS_TPSA>
65.6

> <PUBCHEM_MONOISOTOPIC_WEIGHT>
357.205242

> <PUBCHEM_TOTAL_CHARGE>
0

> <PUBCHEM_HEAVY_ATOM_COUNT>
26

> <PUBCHEM_ATOM_DEF_STEREO_COUNT>
5

> <PUBCHEM_ATOM_UDEF_STEREO_COUNT>
0

> <PUBCHEM_BOND_DEF_STEREO_COUNT>
0

> <PUBCHEM_BOND_UDEF_STEREO_COUNT>
0

> <PUBCHEM_ISOTOPIC_ATOM_COUNT>
0

> <PUBCHEM_COMPONENT_COUNT>
1

> <PUBCHEM_CACTVS_TAUTO_COUNT>
8

> <PUBCHEM_COORDINATE_TYPE>
1
5
255

> <PUBCHEM_BONDANNOTATIONS>
17  1  5
11  32  6
23  24  8
24  26  8
25  26  8
6  23  8
6  25  8
7  27  6
8  28  6
9  29  5

$$$$

