4479247
  -OEChem-07051212552D

 18 18  0     1  0  0  0  0  0999 V2000
    5.8660    0.7015    0.0000 O   0  0  0  0  0  0  0  0  0  0  0  0
    4.3660    1.5675    0.0000 O   0  0  0  0  0  0  0  0  0  0  0  0
    4.8660   -1.0306    0.0000 N   0  0  0  0  0  0  0  0  0  0  0  0
    3.3660   -0.1645    0.0000 C   0  0  3  0  0  0  0  0  0  0  0  0
    2.5000    0.3355    0.0000 C   0  0  0  0  0  0  0  0  0  0  0  0
    2.5000   -0.6645    0.0000 C   0  0  0  0  0  0  0  0  0  0  0  0
    4.3660   -0.1645    0.0000 C   0  0  3  0  0  0  0  0  0  0  0  0
    2.0000   -1.5306    0.0000 C   0  0  0  0  0  0  0  0  0  0  0  0
    4.8660    0.7015    0.0000 C   0  0  0  0  0  0  0  0  0  0  0  0
    3.5860    0.6565    0.0000 H   0  0  0  0  0  0  0  0  0  0  0  0
    2.7120    0.9181    0.0000 H   0  0  0  0  0  0  0  0  0  0  0  0
    1.8894    0.4431    0.0000 H   0  0  0  0  0  0  0  0  0  0  0  0
    5.2160   -0.1645    0.0000 H   0  0  0  0  0  0  0  0  0  0  0  0
    1.3800   -1.5306    0.0000 H   0  0  0  0  0  0  0  0  0  0  0  0
    2.3100   -2.0675    0.0000 H   0  0  0  0  0  0  0  0  0  0  0  0
    5.4860   -1.0306    0.0000 H   0  0  0  0  0  0  0  0  0  0  0  0
    4.5560   -1.5675    0.0000 H   0  0  0  0  0  0  0  0  0  0  0  0
    6.1760    1.2384    0.0000 H   0  0  0  0  0  0  0  0  0  0  0  0
  1  9  1  0  0  0  0
  1 18  1  0  0  0  0
  2  9  2  0  0  0  0
  3  7  1  0  0  0  0
  3 16  1  0  0  0  0
  3 17  1  0  0  0  0
  4  5  1  0  0  0  0
  4  6  1  0  0  0  0
  4  7  1  0  0  0  0
  4 10  1  0  0  0  0
  5  6  1  0  0  0  0
  5 11  1  0  0  0  0
  5 12  1  0  0  0  0
  6  8  2  0  0  0  0
  7  9  1  0  0  0  0
  7 13  1  0  0  0  0
  8 14  1  0  0  0  0
  8 15  1  0  0  0  0
M  END
> <PUBCHEM_COMPOUND_CID>
4479247

> <PUBCHEM_COMPOUND_CANONICALIZED>
1

> <PUBCHEM_CACTVS_COMPLEXITY>
164

> <PUBCHEM_CACTVS_HBOND_ACCEPTOR>
3

> <PUBCHEM_CACTVS_HBOND_DONOR>
2

> <PUBCHEM_CACTVS_ROTATABLE_BOND>
2

> <PUBCHEM_CACTVS_SUBSKEYS>
AAADccBiMAAAAAAAAAAAAAAAGAAAAAAAAAAAAAAAAAAAAAAAAAAAHgAQCAAADSjBgAQACABAAgCIAgDSCAAAAAAgAAAAAIGAAAgCABIAgQAAQAAEkAAAAACIAAAIAAAAAAAAAAAAAAAAAAAAAAAAAAAAAA==

> <PUBCHEM_IUPAC_OPENEYE_NAME>
2-amino-2-(2-methylenecyclopropyl)acetic acid

> <PUBCHEM_IUPAC_CAS_NAME>
2-amino-2-(2-methylenecyclopropyl)acetic acid

> <PUBCHEM_IUPAC_NAME>
2-amino-2-(2-methylidenecyclopropyl)acetic acid

> <PUBCHEM_IUPAC_SYSTEMATIC_NAME>
2-azanyl-2-(2-methylidenecyclopropyl)ethanoic acid

> <PUBCHEM_IUPAC_TRADITIONAL_NAME>
2-amino-2-(2-methylenecyclopropyl)acetic acid

> <PUBCHEM_IUPAC_INCHI>
InChI=1S/C6H9NO2/c1-3-2-4(3)5(7)6(8)9/h4-5H,1-2,7H2,(H,8,9)

> <PUBCHEM_IUPAC_INCHIKEY>
MPIZVHPMGFWKMJ-UHFFFAOYSA-N

> <PUBCHEM_XLOGP3_AA>
-2.8

> <PUBCHEM_EXACT_MASS>
127.063329

> <PUBCHEM_MOLECULAR_FORMULA>
C6H9NO2

> <PUBCHEM_MOLECULAR_WEIGHT>
127.14116

> <PUBCHEM_OPENEYE_CAN_SMILES>
C=C1CC1C(C(=O)O)N

> <PUBCHEM_OPENEYE_ISO_SMILES>
C=C1CC1C(C(=O)O)N

> <PUBCHEM_CACTVS_TPSA>
63.3

> <PUBCHEM_MONOISOTOPIC_WEIGHT>
127.063329

> <PUBCHEM_TOTAL_CHARGE>
0

> <PUBCHEM_HEAVY_ATOM_COUNT>
9

> <PUBCHEM_ATOM_DEF_STEREO_COUNT>
0

> <PUBCHEM_ATOM_UDEF_STEREO_COUNT>
2

> <PUBCHEM_BOND_DEF_STEREO_COUNT>
0

> <PUBCHEM_BOND_UDEF_STEREO_COUNT>
0

> <PUBCHEM_ISOTOPIC_ATOM_COUNT>
0

> <PUBCHEM_COMPONENT_COUNT>
1

> <PUBCHEM_CACTVS_TAUTO_COUNT>
1

> <PUBCHEM_COORDINATE_TYPE>
1
5
255

> <PUBCHEM_BONDANNOTATIONS>
4  10  3
7  13  3

$$$$

