6918020
  -OEChem-07051213112D

 66 67  0     0  0  0  0  0  0999 V2000
    9.7466    7.4555    0.0000 S   0  0  0  0  0  0  0  0  0  0  0  0
    3.1350    2.6200    0.0000 F   0  0  0  0  0  0  0  0  0  0  0  0
    3.1350    8.6200    0.0000 O   0  0  0  0  0  0  0  0  0  0  0  0
    1.4030    9.6200    0.0000 O   0  0  0  0  0  0  0  0  0  0  0  0
    4.8671   12.6200    0.0000 O   0  0  0  0  0  0  0  0  0  0  0  0
   10.6127    7.9555    0.0000 O   0  0  0  0  0  0  0  0  0  0  0  0
    9.2466    8.3215    0.0000 O   0  0  0  0  0  0  0  0  0  0  0  0
   10.2466    6.5894    0.0000 O   0  0  0  0  0  0  0  0  0  0  0  0
    4.8671    5.6200    0.0000 N   0  0  0  0  0  0  0  0  0  0  0  0
    4.8671    3.6200    0.0000 N   0  0  0  0  0  0  0  0  0  0  0  0
    3.1350   12.6200    0.0000 N   0  0  0  0  0  0  0  0  0  0  0  0
    4.0010    5.1200    0.0000 C   0  0  0  0  0  0  0  0  0  0  0  0
    5.7331    5.1200    0.0000 C   0  0  0  0  0  0  0  0  0  0  0  0
    4.0010    4.1200    0.0000 C   0  0  0  0  0  0  0  0  0  0  0  0
    5.7331    4.1200    0.0000 C   0  0  0  0  0  0  0  0  0  0  0  0
    4.8671    6.6200    0.0000 C   0  0  0  0  0  0  0  0  0  0  0  0
    4.0010    7.1200    0.0000 C   0  0  0  0  0  0  0  0  0  0  0  0
    4.8671    2.6200    0.0000 C   0  0  0  0  0  0  0  0  0  0  0  0
    4.0010    8.1200    0.0000 C   0  0  0  0  0  0  0  0  0  0  0  0
    4.0010    2.1200    0.0000 C   0  0  0  0  0  0  0  0  0  0  0  0
    5.7331    2.1200    0.0000 C   0  0  0  0  0  0  0  0  0  0  0  0
    4.0010    1.1200    0.0000 C   0  0  0  0  0  0  0  0  0  0  0  0
    5.7331    1.1200    0.0000 C   0  0  0  0  0  0  0  0  0  0  0  0
    4.8671    0.6200    0.0000 C   0  0  0  0  0  0  0  0  0  0  0  0
    3.1350    9.6200    0.0000 C   0  0  0  0  0  0  0  0  0  0  0  0
    2.2690   10.1200    0.0000 C   0  0  0  0  0  0  0  0  0  0  0  0
    4.0010   10.1200    0.0000 C   0  0  0  0  0  0  0  0  0  0  0  0
    2.2690   11.1200    0.0000 C   0  0  0  0  0  0  0  0  0  0  0  0
    4.0010   11.1200    0.0000 C   0  0  0  0  0  0  0  0  0  0  0  0
    3.1350   11.6200    0.0000 C   0  0  0  0  0  0  0  0  0  0  0  0
    0.5369   10.1200    0.0000 C   0  0  0  0  0  0  0  0  0  0  0  0
    4.0010   13.1200    0.0000 C   0  0  0  0  0  0  0  0  0  0  0  0
    4.0010   14.1200    0.0000 C   0  0  0  0  0  0  0  0  0  0  0  0
    8.8806    6.9555    0.0000 C   0  0  0  0  0  0  0  0  0  0  0  0
    3.7890    5.7026    0.0000 H   0  0  0  0  0  0  0  0  0  0  0  0
    3.3905    5.0123    0.0000 H   0  0  0  0  0  0  0  0  0  0  0  0
    6.3437    5.0123    0.0000 H   0  0  0  0  0  0  0  0  0  0  0  0
    5.9451    5.7026    0.0000 H   0  0  0  0  0  0  0  0  0  0  0  0
    5.9451    3.5374    0.0000 H   0  0  0  0  0  0  0  0  0  0  0  0
    6.3437    4.2277    0.0000 H   0  0  0  0  0  0  0  0  0  0  0  0
    3.3905    4.2277    0.0000 H   0  0  0  0  0  0  0  0  0  0  0  0
    3.7890    3.5374    0.0000 H   0  0  0  0  0  0  0  0  0  0  0  0
    5.4776    6.5123    0.0000 H   0  0  0  0  0  0  0  0  0  0  0  0
    5.0791    7.2026    0.0000 H   0  0  0  0  0  0  0  0  0  0  0  0
    3.3905    7.2277    0.0000 H   0  0  0  0  0  0  0  0  0  0  0  0
    3.7890    6.5374    0.0000 H   0  0  0  0  0  0  0  0  0  0  0  0
    4.6116    8.0123    0.0000 H   0  0  0  0  0  0  0  0  0  0  0  0
    4.2131    8.7026    0.0000 H   0  0  0  0  0  0  0  0  0  0  0  0
    6.2700    2.4300    0.0000 H   0  0  0  0  0  0  0  0  0  0  0  0
    3.4641    0.8100    0.0000 H   0  0  0  0  0  0  0  0  0  0  0  0
    6.2700    0.8100    0.0000 H   0  0  0  0  0  0  0  0  0  0  0  0
    4.8671    0.0000    0.0000 H   0  0  0  0  0  0  0  0  0  0  0  0
    4.5380    9.8100    0.0000 H   0  0  0  0  0  0  0  0  0  0  0  0
    1.7320   11.4300    0.0000 H   0  0  0  0  0  0  0  0  0  0  0  0
    4.5380   11.4300    0.0000 H   0  0  0  0  0  0  0  0  0  0  0  0
    2.5981   12.9300    0.0000 H   0  0  0  0  0  0  0  0  0  0  0  0
    0.8469   10.6569    0.0000 H   0  0  0  0  0  0  0  0  0  0  0  0
    0.0000   10.4300    0.0000 H   0  0  0  0  0  0  0  0  0  0  0  0
    0.2269    9.5831    0.0000 H   0  0  0  0  0  0  0  0  0  0  0  0
    4.6210   14.1200    0.0000 H   0  0  0  0  0  0  0  0  0  0  0  0
    4.0010   14.7400    0.0000 H   0  0  0  0  0  0  0  0  0  0  0  0
    3.3810   14.1200    0.0000 H   0  0  0  0  0  0  0  0  0  0  0  0
    8.5706    7.4924    0.0000 H   0  0  0  0  0  0  0  0  0  0  0  0
    8.3437    6.6455    0.0000 H   0  0  0  0  0  0  0  0  0  0  0  0
    9.1906    6.4185    0.0000 H   0  0  0  0  0  0  0  0  0  0  0  0
   11.1496    7.6455    0.0000 H   0  0  0  0  0  0  0  0  0  0  0  0
  1  6  1  0  0  0  0
  1  7  2  0  0  0  0
  1  8  2  0  0  0  0
  1 34  1  0  0  0  0
  2 20  1  0  0  0  0
  3 19  1  0  0  0  0
  3 25  1  0  0  0  0
  4 26  1  0  0  0  0
  4 31  1  0  0  0  0
  5 32  2  0  0  0  0
  6 66  1  0  0  0  0
  9 12  1  0  0  0  0
  9 13  1  0  0  0  0
  9 16  1  0  0  0  0
 10 14  1  0  0  0  0
 10 15  1  0  0  0  0
 10 18  1  0  0  0  0
 11 30  1  0  0  0  0
 11 32  1  0  0  0  0
 11 56  1  0  0  0  0
 12 14  1  0  0  0  0
 12 35  1  0  0  0  0
 12 36  1  0  0  0  0
 13 15  1  0  0  0  0
 13 37  1  0  0  0  0
 13 38  1  0  0  0  0
 14 41  1  0  0  0  0
 14 42  1  0  0  0  0
 15 39  1  0  0  0  0
 15 40  1  0  0  0  0
 16 17  1  0  0  0  0
 16 43  1  0  0  0  0
 16 44  1  0  0  0  0
 17 19  1  0  0  0  0
 17 45  1  0  0  0  0
 17 46  1  0  0  0  0
 18 20  1  0  0  0  0
 18 21  2  0  0  0  0
 19 47  1  0  0  0  0
 19 48  1  0  0  0  0
 20 22  2  0  0  0  0
 21 23  1  0  0  0  0
 21 49  1  0  0  0  0
 22 24  1  0  0  0  0
 22 50  1  0  0  0  0
 23 24  2  0  0  0  0
 23 51  1  0  0  0  0
 24 52  1  0  0  0  0
 25 26  2  0  0  0  0
 25 27  1  0  0  0  0
 26 28  1  0  0  0  0
 27 29  2  0  0  0  0
 27 53  1  0  0  0  0
 28 30  2  0  0  0  0
 28 54  1  0  0  0  0
 29 30  1  0  0  0  0
 29 55  1  0  0  0  0
 31 57  1  0  0  0  0
 31 58  1  0  0  0  0
 31 59  1  0  0  0  0
 32 33  1  0  0  0  0
 33 60  1  0  0  0  0
 33 61  1  0  0  0  0
 33 62  1  0  0  0  0
 34 63  1  0  0  0  0
 34 64  1  0  0  0  0
 34 65  1  0  0  0  0
M  END
> <PUBCHEM_COMPOUND_CID>
6918020

> <PUBCHEM_COMPOUND_CANONICALIZED>
1

> <PUBCHEM_CACTVS_COMPLEXITY>
594

> <PUBCHEM_CACTVS_HBOND_ACCEPTOR>
9

> <PUBCHEM_CACTVS_HBOND_DONOR>
2

> <PUBCHEM_CACTVS_ROTATABLE_BOND>
8

> <PUBCHEM_CACTVS_SUBSKEYS>
AAADcfB7OQBAAAAAAAAAAAAAAAAAAAAAAAA8YIAAAAAAAAABQAAAHwQQCAAACAzhkA6yxoPABIKIACVSUHCCCAAhIgAIiAAO7IgNZiLEsZuWOCrm1BnK6AewUAMAAEAAAgAAQAAAgAAEAACAAAAAAAAAAA==

> <PUBCHEM_IUPAC_OPENEYE_NAME>
N-[4-[3-[4-(2-fluorophenyl)piperazin-1-yl]propoxy]-3-methoxy-phenyl]acetamide; methanesulfonic acid

> <PUBCHEM_IUPAC_CAS_NAME>
N-[4-[3-[4-(2-fluorophenyl)-1-piperazinyl]propoxy]-3-methoxyphenyl]acetamide; methanesulfonic acid

> <PUBCHEM_IUPAC_NAME>
N-[4-[3-[4-(2-fluorophenyl)piperazin-1-yl]propoxy]-3-methoxyphenyl]acetamide; methanesulfonic acid

> <PUBCHEM_IUPAC_SYSTEMATIC_NAME>
N-[4-[3-[4-(2-fluorophenyl)piperazin-1-yl]propoxy]-3-methoxy-phenyl]ethanamide; methanesulfonic acid

> <PUBCHEM_IUPAC_TRADITIONAL_NAME>
N-[4-[3-[4-(2-fluorophenyl)piperazino]propoxy]-3-methoxy-phenyl]acetamide; mesylic acid

> <PUBCHEM_IUPAC_INCHI>
InChI=1S/C22H28FN3O3.CH4O3S/c1-17(27)24-18-8-9-21(22(16-18)28-2)29-15-5-10-25-11-13-26(14-12-25)20-7-4-3-6-19(20)23;1-5(2,3)4/h3-4,6-9,16H,5,10-15H2,1-2H3,(H,24,27);1H3,(H,2,3,4)

> <PUBCHEM_IUPAC_INCHIKEY>
SEUMNMFHYBUUEX-UHFFFAOYSA-N

> <PUBCHEM_EXACT_MASS>
497.199585

> <PUBCHEM_MOLECULAR_FORMULA>
C23H32FN3O6S

> <PUBCHEM_MOLECULAR_WEIGHT>
497.580083

> <PUBCHEM_OPENEYE_CAN_SMILES>
CC(=O)NC1=CC(=C(C=C1)OCCCN2CCN(CC2)C3=CC=CC=C3F)OC.CS(=O)(=O)O

> <PUBCHEM_OPENEYE_ISO_SMILES>
CC(=O)NC1=CC(=C(C=C1)OCCCN2CCN(CC2)C3=CC=CC=C3F)OC.CS(=O)(=O)O

> <PUBCHEM_CACTVS_TPSA>
117

> <PUBCHEM_MONOISOTOPIC_WEIGHT>
497.199585

> <PUBCHEM_TOTAL_CHARGE>
0

> <PUBCHEM_HEAVY_ATOM_COUNT>
34

> <PUBCHEM_ATOM_DEF_STEREO_COUNT>
0

> <PUBCHEM_ATOM_UDEF_STEREO_COUNT>
0

> <PUBCHEM_BOND_DEF_STEREO_COUNT>
0

> <PUBCHEM_BOND_UDEF_STEREO_COUNT>
0

> <PUBCHEM_ISOTOPIC_ATOM_COUNT>
0

> <PUBCHEM_COMPONENT_COUNT>
2

> <PUBCHEM_CACTVS_TAUTO_COUNT>
3

> <PUBCHEM_COORDINATE_TYPE>
1
5
255

> <PUBCHEM_BONDANNOTATIONS>
18  20  8
18  21  8
20  22  8
21  23  8
22  24  8
23  24  8
25  26  8
25  27  8
26  28  8
27  29  8
28  30  8
29  30  8

$$$$

