227113
  -OEChem-07051213072D

 62 65  0     1  0  0  0  0  0999 V2000
    3.7320   -2.5030    0.0000 O   0  0  0  0  0  0  0  0  0  0  0  0
    9.7142    2.5489    0.0000 O   0  0  0  0  0  0  0  0  0  0  0  0
    2.8718   -0.9997    0.0000 O   0  0  0  0  0  0  0  0  0  0  0  0
    7.3931   -0.4507    0.0000 C   0  0  1  0  0  0  0  0  0  0  0  0
    8.2591   -0.9507    0.0000 C   0  0  2  0  0  0  0  0  0  0  0  0
    9.1251   -0.4507    0.0000 C   0  0  1  0  0  0  0  0  0  0  0  0
    9.1251    0.5493    0.0000 C   0  0  2  0  0  0  0  0  0  0  0  0
    6.4831   -0.9575    0.0000 C   0  0  2  0  0  0  0  0  0  0  0  0
    6.4750   -1.9991    0.0000 C   0  0  1  0  0  0  0  0  0  0  0  0
    7.3931    0.5493    0.0000 C   0  0  0  0  0  0  0  0  0  0  0  0
    8.2591    1.0493    0.0000 C   0  0  0  0  0  0  0  0  0  0  0  0
    8.2752   -1.9922    0.0000 C   0  0  0  0  0  0  0  0  0  0  0  0
   10.0713    0.8540    0.0000 C   0  0  2  0  0  0  0  0  0  0  0  0
   10.0713   -0.7554    0.0000 C   0  0  0  0  0  0  0  0  0  0  0  0
    7.3771   -2.5200    0.0000 C   0  0  0  0  0  0  0  0  0  0  0  0
    5.5562   -0.3935    0.0000 C   0  0  0  0  0  0  0  0  0  0  0  0
   10.6550    0.0493    0.0000 C   0  0  0  0  0  0  0  0  0  0  0  0
    5.5396   -2.5489    0.0000 C   0  0  0  0  0  0  0  0  0  0  0  0
    9.1251    1.5493    0.0000 C   0  0  0  0  0  0  0  0  0  0  0  0
    6.4908    0.0424    0.0000 C   0  0  0  0  0  0  0  0  0  0  0  0
    4.6084   -0.9214    0.0000 C   0  0  0  0  0  0  0  0  0  0  0  0
    4.6000   -2.0064    0.0000 C   0  0  2  0  0  0  0  0  0  0  0  0
   10.3820    1.8046    0.0000 C   0  0  0  0  0  0  0  0  0  0  0  0
   11.3605    2.0108    0.0000 C   0  0  0  0  0  0  0  0  0  0  0  0
    2.8680   -1.9997    0.0000 C   0  0  0  0  0  0  0  0  0  0  0  0
    2.0000   -2.4964    0.0000 C   0  0  0  0  0  0  0  0  0  0  0  0
    8.1292   -0.0257    0.0000 H   0  0  0  0  0  0  0  0  0  0  0  0
    8.9985   -1.3700    0.0000 H   0  0  0  0  0  0  0  0  0  0  0  0
    9.2151   -1.2959    0.0000 H   0  0  0  0  0  0  0  0  0  0  0  0
    6.4783   -2.8491    0.0000 H   0  0  0  0  0  0  0  0  0  0  0  0
    7.1810    1.1319    0.0000 H   0  0  0  0  0  0  0  0  0  0  0  0
    6.7825    0.4416    0.0000 H   0  0  0  0  0  0  0  0  0  0  0  0
    8.6576    1.5243    0.0000 H   0  0  0  0  0  0  0  0  0  0  0  0
    7.8606    1.5243    0.0000 H   0  0  0  0  0  0  0  0  0  0  0  0
    8.4932   -2.5726    0.0000 H   0  0  0  0  0  0  0  0  0  0  0  0
    8.8843   -1.8767    0.0000 H   0  0  0  0  0  0  0  0  0  0  0  0
    9.6339    1.2934    0.0000 H   0  0  0  0  0  0  0  0  0  0  0  0
    9.8203   -1.3223    0.0000 H   0  0  0  0  0  0  0  0  0  0  0  0
   10.6087   -1.0647    0.0000 H   0  0  0  0  0  0  0  0  0  0  0  0
    6.9798   -2.9959    0.0000 H   0  0  0  0  0  0  0  0  0  0  0  0
    7.7781   -2.9928    0.0000 H   0  0  0  0  0  0  0  0  0  0  0  0
    5.9644    0.0732    0.0000 H   0  0  0  0  0  0  0  0  0  0  0  0
    5.1663    0.0886    0.0000 H   0  0  0  0  0  0  0  0  0  0  0  0
   11.1158   -0.3654    0.0000 H   0  0  0  0  0  0  0  0  0  0  0  0
   11.1158    0.4640    0.0000 H   0  0  0  0  0  0  0  0  0  0  0  0
    5.1423   -3.0248    0.0000 H   0  0  0  0  0  0  0  0  0  0  0  0
    5.9406   -3.0218    0.0000 H   0  0  0  0  0  0  0  0  0  0  0  0
    9.7451    1.5493    0.0000 H   0  0  0  0  0  0  0  0  0  0  0  0
    9.1251    2.1693    0.0000 H   0  0  0  0  0  0  0  0  0  0  0  0
    8.5051    1.5493    0.0000 H   0  0  0  0  0  0  0  0  0  0  0  0
    7.1108    0.0377    0.0000 H   0  0  0  0  0  0  0  0  0  0  0  0
    6.4956    0.6624    0.0000 H   0  0  0  0  0  0  0  0  0  0  0  0
    5.8708    0.0472    0.0000 H   0  0  0  0  0  0  0  0  0  0  0  0
    4.4038   -0.3361    0.0000 H   0  0  0  0  0  0  0  0  0  0  0  0
    3.9967   -1.0228    0.0000 H   0  0  0  0  0  0  0  0  0  0  0  0
    4.0648   -1.6933    0.0000 H   0  0  0  0  0  0  0  0  0  0  0  0
   11.4884    1.4041    0.0000 H   0  0  0  0  0  0  0  0  0  0  0  0
   11.9672    2.1386    0.0000 H   0  0  0  0  0  0  0  0  0  0  0  0
   11.2327    2.6174    0.0000 H   0  0  0  0  0  0  0  0  0  0  0  0
    1.6921   -1.9582    0.0000 H   0  0  0  0  0  0  0  0  0  0  0  0
    1.4619   -2.8043    0.0000 H   0  0  0  0  0  0  0  0  0  0  0  0
    2.3079   -3.0345    0.0000 H   0  0  0  0  0  0  0  0  0  0  0  0
 22  1  1  1  0  0  0
  1 25  1  0  0  0  0
  2 23  2  0  0  0  0
  3 25  2  0  0  0  0
  4  5  1  0  0  0  0
  4  8  1  0  0  0  0
  4 10  1  0  0  0  0
  4 27  1  6  0  0  0
  5  6  1  0  0  0  0
  5 12  1  0  0  0  0
  5 28  1  1  0  0  0
  6  7  1  0  0  0  0
  6 14  1  0  0  0  0
  6 29  1  6  0  0  0
  7 11  1  0  0  0  0
  7 13  1  0  0  0  0
  7 19  1  1  0  0  0
  8  9  1  0  0  0  0
  8 16  1  0  0  0  0
  8 20  1  1  0  0  0
  9 15  1  0  0  0  0
  9 18  1  0  0  0  0
  9 30  1  6  0  0  0
 10 11  1  0  0  0  0
 10 31  1  0  0  0  0
 10 32  1  0  0  0  0
 11 33  1  0  0  0  0
 11 34  1  0  0  0  0
 12 15  1  0  0  0  0
 12 35  1  0  0  0  0
 12 36  1  0  0  0  0
 13 17  1  0  0  0  0
 13 23  1  1  0  0  0
 13 37  1  0  0  0  0
 14 17  1  0  0  0  0
 14 38  1  0  0  0  0
 14 39  1  0  0  0  0
 15 40  1  0  0  0  0
 15 41  1  0  0  0  0
 16 21  1  0  0  0  0
 16 42  1  0  0  0  0
 16 43  1  0  0  0  0
 17 44  1  0  0  0  0
 17 45  1  0  0  0  0
 18 22  1  0  0  0  0
 18 46  1  0  0  0  0
 18 47  1  0  0  0  0
 19 48  1  0  0  0  0
 19 49  1  0  0  0  0
 19 50  1  0  0  0  0
 20 51  1  0  0  0  0
 20 52  1  0  0  0  0
 20 53  1  0  0  0  0
 21 22  1  0  0  0  0
 21 54  1  0  0  0  0
 21 55  1  0  0  0  0
 22 56  1  0  0  0  0
 23 24  1  0  0  0  0
 24 57  1  0  0  0  0
 24 58  1  0  0  0  0
 24 59  1  0  0  0  0
 25 26  1  0  0  0  0
 26 60  1  0  0  0  0
 26 61  1  0  0  0  0
 26 62  1  0  0  0  0
M  END
> <PUBCHEM_COMPOUND_CID>
227113

> <PUBCHEM_COMPOUND_CANONICALIZED>
1

> <PUBCHEM_CACTVS_COMPLEXITY>
598

> <PUBCHEM_CACTVS_HBOND_ACCEPTOR>
3

> <PUBCHEM_CACTVS_HBOND_DONOR>
0

> <PUBCHEM_CACTVS_ROTATABLE_BOND>
3

> <PUBCHEM_CACTVS_SUBSKEYS>
AAADcfB4MAAAAAAAAAAAAAAAAAAAAYAAAAAwYMAAAAAAAGDAAAAAGgAAAAAADxSggAICCAAABAAIAICQCAAAAAAAAAAAAAEAAAAAABIAAAACAAAEAAAAAAGIyPCPgAAAAAAAAADAAAYAACAAAQAACAAAAA==

> <PUBCHEM_IUPAC_OPENEYE_NAME>
[(3S,5S,8R,9S,10S,13S,14S,17S)-17-acetyl-10,13-dimethyl-2,3,4,5,6,7,8,9,11,12,14,15,16,17-tetradecahydro-1H-cyclopenta[a]phenanthren-3-yl] acetate

> <PUBCHEM_IUPAC_CAS_NAME>
acetic acid [(3S,5S,8R,9S,10S,13S,14S,17S)-17-acetyl-10,13-dimethyl-2,3,4,5,6,7,8,9,11,12,14,15,16,17-tetradecahydro-1H-cyclopenta[a]phenanthren-3-yl] ester

> <PUBCHEM_IUPAC_NAME>
[(3S,5S,8R,9S,10S,13S,14S,17S)-17-acetyl-10,13-dimethyl-2,3,4,5,6,7,8,9,11,12,14,15,16,17-tetradecahydro-1H-cyclopenta[a]phenanthren-3-yl] acetate

> <PUBCHEM_IUPAC_SYSTEMATIC_NAME>
[(3S,5S,8R,9S,10S,13S,14S,17S)-17-ethanoyl-10,13-dimethyl-2,3,4,5,6,7,8,9,11,12,14,15,16,17-tetradecahydro-1H-cyclopenta[a]phenanthren-3-yl] ethanoate

> <PUBCHEM_IUPAC_TRADITIONAL_NAME>
acetic acid [(3S,5S,8R,9S,10S,13S,14S,17S)-17-acetyl-10,13-dimethyl-2,3,4,5,6,7,8,9,11,12,14,15,16,17-tetradecahydro-1H-cyclopenta[a]phenanthren-3-yl] ester

> <PUBCHEM_IUPAC_INCHI>
InChI=1S/C23H36O3/c1-14(24)19-7-8-20-18-6-5-16-13-17(26-15(2)25)9-11-22(16,3)21(18)10-12-23(19,20)4/h16-21H,5-13H2,1-4H3/t16-,17-,18-,19+,20-,21-,22-,23+/m0/s1

> <PUBCHEM_IUPAC_INCHIKEY>
GFHOQCXDABGYAL-POBGKJHXSA-N

> <PUBCHEM_XLOGP3_AA>
5.4

> <PUBCHEM_EXACT_MASS>
360.266445

> <PUBCHEM_MOLECULAR_FORMULA>
C23H36O3

> <PUBCHEM_MOLECULAR_WEIGHT>
360.53014

> <PUBCHEM_OPENEYE_CAN_SMILES>
CC(=O)C1CCC2C1(CCC3C2CCC4C3(CCC(C4)OC(=O)C)C)C

> <PUBCHEM_OPENEYE_ISO_SMILES>
CC(=O)[C@H]1CC[C@@H]2[C@@]1(CC[C@H]3[C@H]2CC[C@@H]4[C@@]3(CC[C@@H](C4)OC(=O)C)C)C

> <PUBCHEM_CACTVS_TPSA>
43.4

> <PUBCHEM_MONOISOTOPIC_WEIGHT>
360.266445

> <PUBCHEM_TOTAL_CHARGE>
0

> <PUBCHEM_HEAVY_ATOM_COUNT>
26

> <PUBCHEM_ATOM_DEF_STEREO_COUNT>
8

> <PUBCHEM_ATOM_UDEF_STEREO_COUNT>
0

> <PUBCHEM_BOND_DEF_STEREO_COUNT>
0

> <PUBCHEM_BOND_UDEF_STEREO_COUNT>
0

> <PUBCHEM_ISOTOPIC_ATOM_COUNT>
0

> <PUBCHEM_COMPONENT_COUNT>
1

> <PUBCHEM_CACTVS_TAUTO_COUNT>
3

> <PUBCHEM_COORDINATE_TYPE>
1
5
255

> <PUBCHEM_BONDANNOTATIONS>
22  1  5
13  23  5
4  27  6
5  28  5
6  29  6
7  19  5
8  20  5
9  30  6

$$$$

