23724664
  -OEChem-07051213082D

 55 59  0     1  0  0  0  0  0999 V2000
    6.1621    0.9728    0.0000 O   0  0  0  0  0  0  0  0  0  0  0  0
   12.2373   -0.4569    0.0000 O   0  0  0  0  0  0  0  0  0  0  0  0
    8.3061    3.0413    0.0000 O   0  0  0  0  0  0  0  0  0  0  0  0
   10.9457    0.6971    0.0000 O   0  0  0  0  0  0  0  0  0  0  0  0
   10.2385   -2.6940    0.0000 O   0  0  0  0  0  0  0  0  0  0  0  0
   12.1964   -3.1023    0.0000 O   0  0  0  0  0  0  0  0  0  0  0  0
    9.6132   -0.7943    0.0000 O   0  0  0  0  0  0  0  0  0  0  0  0
   14.1952   -0.8652    0.0000 O   0  0  0  0  0  0  0  0  0  0  0  0
    2.6726    1.8770    0.0000 O   0  0  0  0  0  0  0  0  0  0  0  0
    6.6589    2.5060    0.0000 C   0  0  2  0  0  0  0  0  0  0  0  0
    6.9679    1.5550    0.0000 C   0  0  2  0  0  0  0  0  0  0  0  0
   10.9048   -1.9483    0.0000 C   0  0  1  0  0  0  0  0  0  0  0  0
   11.8837   -2.1525    0.0000 C   0  0  1  0  0  0  0  0  0  0  0  0
   10.5921   -0.9985    0.0000 C   0  0  2  0  0  0  0  0  0  0  0  0
   12.5500   -1.4068    0.0000 C   0  0  1  0  0  0  0  0  0  0  0  0
    5.6648    2.5035    0.0000 C   0  0  0  0  0  0  0  0  0  0  0  0
    7.3280    3.2492    0.0000 C   0  0  0  0  0  0  0  0  0  0  0  0
    7.9460    1.3471    0.0000 C   0  0  0  0  0  0  0  0  0  0  0  0
   11.2584   -0.2528    0.0000 C   0  0  1  0  0  0  0  0  0  0  0  0
    5.3584    1.5578    0.0000 C   0  0  0  0  0  0  0  0  0  0  0  0
    8.6152    2.0902    0.0000 C   0  0  0  0  0  0  0  0  0  0  0  0
   13.5289   -1.6109    0.0000 C   0  0  0  0  0  0  0  0  0  0  0  0
    8.2526    0.3516    0.0000 C   0  0  0  0  0  0  0  0  0  0  0  0
    9.9668    0.9012    0.0000 C   0  0  0  0  0  0  0  0  0  0  0  0
    4.9832    3.2830    0.0000 C   0  0  0  0  0  0  0  0  0  0  0  0
    9.6372    1.8894    0.0000 C   0  0  0  0  0  0  0  0  0  0  0  0
    9.2698    0.1272    0.0000 C   0  0  0  0  0  0  0  0  0  0  0  0
    4.3492    1.3260    0.0000 C   0  0  0  0  0  0  0  0  0  0  0  0
    3.9689    3.0746    0.0000 C   0  0  0  0  0  0  0  0  0  0  0  0
    3.6498    2.0896    0.0000 C   0  0  0  0  0  0  0  0  0  0  0  0
    2.0000    2.6170    0.0000 C   0  0  0  0  0  0  0  0  0  0  0  0
    6.3121    3.2821    0.0000 H   0  0  0  0  0  0  0  0  0  0  0  0
    7.1435    0.7233    0.0000 H   0  0  0  0  0  0  0  0  0  0  0  0
   10.2978   -1.8218    0.0000 H   0  0  0  0  0  0  0  0  0  0  0  0
   12.4907   -2.2790    0.0000 H   0  0  0  0  0  0  0  0  0  0  0  0
   10.1790   -1.4608    0.0000 H   0  0  0  0  0  0  0  0  0  0  0  0
   12.9631   -0.9444    0.0000 H   0  0  0  0  0  0  0  0  0  0  0  0
    7.5602    3.8240    0.0000 H   0  0  0  0  0  0  0  0  0  0  0  0
    6.8022    3.5777    0.0000 H   0  0  0  0  0  0  0  0  0  0  0  0
   10.6514   -0.1262    0.0000 H   0  0  0  0  0  0  0  0  0  0  0  0
   13.2989   -2.1866    0.0000 H   0  0  0  0  0  0  0  0  0  0  0  0
   14.0560   -1.9374    0.0000 H   0  0  0  0  0  0  0  0  0  0  0  0
    7.8324   -0.1043    0.0000 H   0  0  0  0  0  0  0  0  0  0  0  0
    5.1811    3.8705    0.0000 H   0  0  0  0  0  0  0  0  0  0  0  0
   10.0467    2.3549    0.0000 H   0  0  0  0  0  0  0  0  0  0  0  0
    9.4591   -0.4632    0.0000 H   0  0  0  0  0  0  0  0  0  0  0  0
    4.1650    0.7340    0.0000 H   0  0  0  0  0  0  0  0  0  0  0  0
   10.4324   -3.2830    0.0000 H   0  0  0  0  0  0  0  0  0  0  0  0
   12.8034   -3.2289    0.0000 H   0  0  0  0  0  0  0  0  0  0  0  0
    9.2001   -1.2567    0.0000 H   0  0  0  0  0  0  0  0  0  0  0  0
    3.5554    3.5366    0.0000 H   0  0  0  0  0  0  0  0  0  0  0  0
   14.8021   -0.9917    0.0000 H   0  0  0  0  0  0  0  0  0  0  0  0
    2.4588    3.0340    0.0000 H   0  0  0  0  0  0  0  0  0  0  0  0
    1.5830    3.0758    0.0000 H   0  0  0  0  0  0  0  0  0  0  0  0
    1.5412    2.2000    0.0000 H   0  0  0  0  0  0  0  0  0  0  0  0
  1 11  1  0  0  0  0
  1 20  1  0  0  0  0
  2 15  1  0  0  0  0
  2 19  1  0  0  0  0
  3 17  1  0  0  0  0
  3 21  1  0  0  0  0
 19  4  1  6  0  0  0
  4 24  1  0  0  0  0
 12  5  1  6  0  0  0
  5 48  1  0  0  0  0
 13  6  1  1  0  0  0
  6 49  1  0  0  0  0
 14  7  1  1  0  0  0
  7 50  1  0  0  0  0
  8 22  1  0  0  0  0
  8 52  1  0  0  0  0
  9 30  1  0  0  0  0
  9 31  1  0  0  0  0
 10 11  1  0  0  0  0
 10 16  1  0  0  0  0
 10 17  1  0  0  0  0
 10 32  1  1  0  0  0
 11 18  1  0  0  0  0
 11 33  1  1  0  0  0
 12 13  1  0  0  0  0
 12 14  1  0  0  0  0
 12 34  1  0  0  0  0
 13 15  1  0  0  0  0
 13 35  1  0  0  0  0
 14 19  1  0  0  0  0
 14 36  1  0  0  0  0
 15 22  1  6  0  0  0
 15 37  1  0  0  0  0
 16 20  2  0  0  0  0
 16 25  1  0  0  0  0
 17 38  1  0  0  0  0
 17 39  1  0  0  0  0
 18 21  2  0  0  0  0
 18 23  1  0  0  0  0
 19 40  1  0  0  0  0
 20 28  1  0  0  0  0
 21 26  1  0  0  0  0
 22 41  1  0  0  0  0
 22 42  1  0  0  0  0
 23 27  2  0  0  0  0
 23 43  1  0  0  0  0
 24 26  2  0  0  0  0
 24 27  1  0  0  0  0
 25 29  2  0  0  0  0
 25 44  1  0  0  0  0
 26 45  1  0  0  0  0
 27 46  1  0  0  0  0
 28 30  2  0  0  0  0
 28 47  1  0  0  0  0
 29 30  1  0  0  0  0
 29 51  1  0  0  0  0
 31 53  1  0  0  0  0
 31 54  1  0  0  0  0
 31 55  1  0  0  0  0
M  END
> <PUBCHEM_COMPOUND_CID>
23724664

> <PUBCHEM_COMPOUND_CANONICALIZED>
1

> <PUBCHEM_CACTVS_COMPLEXITY>
620

> <PUBCHEM_CACTVS_HBOND_ACCEPTOR>
9

> <PUBCHEM_CACTVS_HBOND_DONOR>
4

> <PUBCHEM_CACTVS_ROTATABLE_BOND>
4

> <PUBCHEM_CACTVS_SUBSKEYS>
AAADceB4PAAAAAAAAAAAAAAAAAAAASAAAAA0aIEAAAAAAEiRQAAAGgAACAAADRSwmAMyDoAABgCAAiBCAAACCAAgIAAIiAAGCIgdNyKEMRqieCClwBUPqAfA4PwOoAAACAAIAABAAAAQABAAAAAAAAAAAA==

> <PUBCHEM_IUPAC_OPENEYE_NAME>
(2S,3R,4S,5S,6R)-2-[[(6aR,11aR)-9-methoxy-6a,11a-dihydro-6H-benzofuro[3,2-c]chromen-3-yl]oxy]-6-(hydroxymethyl)tetrahydropyran-3,4,5-triol

> <PUBCHEM_IUPAC_CAS_NAME>
(2S,3R,4S,5S,6R)-2-[[(6aR,11aR)-9-methoxy-6a,11a-dihydro-6H-benzofuro[3,2-c][1]benzopyran-3-yl]oxy]-6-(hydroxymethyl)oxane-3,4,5-triol

> <PUBCHEM_IUPAC_NAME>
(2S,3R,4S,5S,6R)-2-[[(6aR,11aR)-9-methoxy-6a,11a-dihydro-6H-[1]benzofuro[3,2-c]chromen-3-yl]oxy]-6-(hydroxymethyl)oxane-3,4,5-triol

> <PUBCHEM_IUPAC_SYSTEMATIC_NAME>
(2S,3R,4S,5S,6R)-2-[[(6aR,11aR)-9-methoxy-6a,11a-dihydro-6H-[1]benzofuro[3,2-c]chromen-3-yl]oxy]-6-(hydroxymethyl)oxane-3,4,5-triol

> <PUBCHEM_IUPAC_TRADITIONAL_NAME>
(2S,3R,4S,5S,6R)-2-[[(6aR,11aR)-9-methoxy-6a,11a-dihydro-6H-benzofuro[3,2-c]chromen-3-yl]oxy]-6-methylol-tetrahydropyran-3,4,5-triol

> <PUBCHEM_IUPAC_INCHI>
InChI=1S/C22H24O9/c1-27-10-2-4-12-14-9-28-15-7-11(3-5-13(15)21(14)30-16(12)6-10)29-22-20(26)19(25)18(24)17(8-23)31-22/h2-7,14,17-26H,8-9H2,1H3/t14-,17+,18+,19-,20+,21-,22+/m0/s1

> <PUBCHEM_IUPAC_INCHIKEY>
PVEMGMOWXQUWRD-NJAOXFEXSA-N

> <PUBCHEM_XLOGP3_AA>
0.8

> <PUBCHEM_EXACT_MASS>
432.142032

> <PUBCHEM_MOLECULAR_FORMULA>
C22H24O9

> <PUBCHEM_MOLECULAR_WEIGHT>
432.42056

> <PUBCHEM_OPENEYE_CAN_SMILES>
COC1=CC2=C(C=C1)C3COC4=C(C3O2)C=CC(=C4)OC5C(C(C(C(O5)CO)O)O)O

> <PUBCHEM_OPENEYE_ISO_SMILES>
COC1=CC2=C(C=C1)[C@@H]3COC4=C([C@@H]3O2)C=CC(=C4)O[C@H]5[C@@H]([C@H]([C@@H]([C@H](O5)CO)O)O)O

> <PUBCHEM_CACTVS_TPSA>
127

> <PUBCHEM_MONOISOTOPIC_WEIGHT>
432.142032

> <PUBCHEM_TOTAL_CHARGE>
0

> <PUBCHEM_HEAVY_ATOM_COUNT>
31

> <PUBCHEM_ATOM_DEF_STEREO_COUNT>
7

> <PUBCHEM_ATOM_UDEF_STEREO_COUNT>
0

> <PUBCHEM_BOND_DEF_STEREO_COUNT>
0

> <PUBCHEM_BOND_UDEF_STEREO_COUNT>
0

> <PUBCHEM_ISOTOPIC_ATOM_COUNT>
0

> <PUBCHEM_COMPONENT_COUNT>
1

> <PUBCHEM_CACTVS_TAUTO_COUNT>
1

> <PUBCHEM_COORDINATE_TYPE>
1
5
255

> <PUBCHEM_BONDANNOTATIONS>
10  32  5
11  33  5
15  22  6
16  20  8
16  25  8
18  21  8
18  23  8
20  28  8
21  26  8
23  27  8
24  26  8
24  27  8
25  29  8
28  30  8
29  30  8
19  4  6
12  5  6
13  6  5
14  7  5

$$$$

