   Color/Form

     * Fine needles from benzene
     * WHITE, OR PALE BUFF TO CREAM-COLORED CRYSTALLINE POWDER

   from [1]HSDB

   Odor
        ODORLESS
   from [2]HSDB

   Melting Point
        238-239 deg C (vacuum)
   from [3]HSDB

   Solubilities
        Practically insol in water; moderately sol in methanol, benzene,
   chloroform, and other organic solvents
   from [4]HSDB

   Spectral Properties

     * Specific optical rotation: -97 deg @ 24 deg C/D (c= 1 in
       chloroform); UV max absorption (methanol): 228, 302 nm (log e=
       4.79, 4.48)
     * UV: 2-551 (Organic Electronic Spectral Data, Phillips et al, John
       Wiley & Sons, New York)

   from [5]HSDB

   Computed Properties
   Molecular Weight                  634.71598 [g/mol]
   Molecular Formula                 C[35]H[42]N[2]O[9]
   XLogP3-AA                         4.5
   H-Bond Donor                      1
   H-Bond Acceptor                   10
   Rotatable Bond Count              11
   Exact Mass                        634.289031
   MonoIsotopic Mass                 634.289031
   Topological Polar Surface Area    118
   Heavy Atom Count                  46
   Formal Charge                     0
   Complexity                        1080
   Isotope Atom Count                0
   Defined Atom Stereocenter Count   6
   Undefined Atom Stereocenter Count 0
   Defined Bond Stereocenter Count   1
   Undefined Bond Stereocenter Count 0
   Covalently-Bonded Unit Count      1
   Feature 3D Acceptor Count         7
   Feature 3D Donor Count            1
   Feature 3D Cation Count           2
   Feature 3D Ring Count             6
   Effective Rotor Count             12.6
   Conformer Sampling RMSD           1.2
   CID Conformer Count               [6]39

References

   1. http://toxnet.nlm.nih.gov/cgi-bin/sis/search/r?dbs+hsdb:@term+@rn+@rel+24815-24-5
   2. http://toxnet.nlm.nih.gov/cgi-bin/sis/search/r?dbs+hsdb:@term+@rn+@rel+24815-24-5
   3. http://toxnet.nlm.nih.gov/cgi-bin/sis/search/r?dbs+hsdb:@term+@rn+@rel+24815-24-5
   4. http://toxnet.nlm.nih.gov/cgi-bin/sis/search/r?dbs+hsdb:@term+@rn+@rel+24815-24-5
   5. http://toxnet.nlm.nih.gov/cgi-bin/sis/search/r?dbs+hsdb:@term+@rn+@rel+24815-24-5
   6. http://pubchem.ncbi.nlm.nih.gov/vw3d/vw3d.cgi?cid=5280954
