9845243
  -OEChem-07051213112D

 24 25  0     0  0  0  0  0  0999 V2000
    6.7210    1.6521    0.0000 O   0  0  0  0  0  0  0  0  0  0  0  0
    2.8660    0.8969    0.0000 O   0  0  0  0  0  0  0  0  0  0  0  0
    6.7210   -1.8584    0.0000 O   0  0  0  0  0  0  0  0  0  0  0  0
    5.4641    0.3969    0.0000 C   0  0  0  0  0  0  0  0  0  0  0  0
    5.4641   -0.6031    0.0000 C   0  0  0  0  0  0  0  0  0  0  0  0
    6.4103    0.7016    0.0000 C   0  0  0  0  0  0  0  0  0  0  0  0
    4.5981    0.8969    0.0000 C   0  0  0  0  0  0  0  0  0  0  0  0
    6.4103   -0.9078    0.0000 C   0  0  0  0  0  0  0  0  0  0  0  0
    4.5981   -1.1031    0.0000 C   0  0  0  0  0  0  0  0  0  0  0  0
    6.9939   -0.1031    0.0000 C   0  0  0  0  0  0  0  0  0  0  0  0
    3.7320    0.3969    0.0000 C   0  0  0  0  0  0  0  0  0  0  0  0
    3.7320   -0.6031    0.0000 C   0  0  0  0  0  0  0  0  0  0  0  0
    7.6995    1.8584    0.0000 C   0  0  0  0  0  0  0  0  0  0  0  0
    2.0000    0.3969    0.0000 C   0  0  0  0  0  0  0  0  0  0  0  0
    4.5981    1.5169    0.0000 H   0  0  0  0  0  0  0  0  0  0  0  0
    4.5981   -1.7231    0.0000 H   0  0  0  0  0  0  0  0  0  0  0  0
    7.6139   -0.1031    0.0000 H   0  0  0  0  0  0  0  0  0  0  0  0
    3.1951   -0.9131    0.0000 H   0  0  0  0  0  0  0  0  0  0  0  0
    7.8274    1.2517    0.0000 H   0  0  0  0  0  0  0  0  0  0  0  0
    8.3062    1.9862    0.0000 H   0  0  0  0  0  0  0  0  0  0  0  0
    7.5716    2.4650    0.0000 H   0  0  0  0  0  0  0  0  0  0  0  0
    1.6900    0.9338    0.0000 H   0  0  0  0  0  0  0  0  0  0  0  0
    1.4631    0.0869    0.0000 H   0  0  0  0  0  0  0  0  0  0  0  0
    2.3100   -0.1400    0.0000 H   0  0  0  0  0  0  0  0  0  0  0  0
  1  6  1  0  0  0  0
  1 13  1  0  0  0  0
  2 11  1  0  0  0  0
  2 14  1  0  0  0  0
  3  8  2  0  0  0  0
  4  5  2  0  0  0  0
  4  6  1  0  0  0  0
  4  7  1  0  0  0  0
  5  8  1  0  0  0  0
  5  9  1  0  0  0  0
  6 10  2  0  0  0  0
  7 11  2  0  0  0  0
  7 15  1  0  0  0  0
  8 10  1  0  0  0  0
  9 12  2  0  0  0  0
  9 16  1  0  0  0  0
 10 17  1  0  0  0  0
 11 12  1  0  0  0  0
 12 18  1  0  0  0  0
 13 19  1  0  0  0  0
 13 20  1  0  0  0  0
 13 21  1  0  0  0  0
 14 22  1  0  0  0  0
 14 23  1  0  0  0  0
 14 24  1  0  0  0  0
M  END
> <PUBCHEM_COMPOUND_CID>
9845243

> <PUBCHEM_COMPOUND_CANONICALIZED>
1

> <PUBCHEM_CACTVS_COMPLEXITY>
270

> <PUBCHEM_CACTVS_HBOND_ACCEPTOR>
3

> <PUBCHEM_CACTVS_HBOND_DONOR>
0

> <PUBCHEM_CACTVS_ROTATABLE_BOND>
2

> <PUBCHEM_CACTVS_SUBSKEYS>
AAADccBwMAAAAAAAAAAAAAAAAAAAAQAAAAAwAAAAAAAAAEABAAAAGgAAAAAADASAmAIyBoAABACIAqBSAAACCAAkIAAIiAEGCMgMJjKENRqAMSAkwBEIqYfKzLDOoAABAAAQAABAAAIAACAAAAAAAAAAAA==

> <PUBCHEM_IUPAC_OPENEYE_NAME>
3,5-dimethoxyinden-1-one

> <PUBCHEM_IUPAC_CAS_NAME>
3,5-dimethoxy-1-indenone

> <PUBCHEM_IUPAC_NAME>
3,5-dimethoxyinden-1-one

> <PUBCHEM_IUPAC_SYSTEMATIC_NAME>
3,5-dimethoxyinden-1-one

> <PUBCHEM_IUPAC_TRADITIONAL_NAME>
3,5-dimethoxyinden-1-one

> <PUBCHEM_IUPAC_INCHI>
InChI=1S/C11H10O3/c1-13-7-3-4-8-9(5-7)11(14-2)6-10(8)12/h3-6H,1-2H3

> <PUBCHEM_IUPAC_INCHIKEY>
XYQHDIQOTJVFDF-UHFFFAOYSA-N

> <PUBCHEM_XLOGP3_AA>
1.6

> <PUBCHEM_EXACT_MASS>
190.062994

> <PUBCHEM_MOLECULAR_FORMULA>
C11H10O3

> <PUBCHEM_MOLECULAR_WEIGHT>
190.1953

> <PUBCHEM_OPENEYE_CAN_SMILES>
COC1=CC2=C(C=C1)C(=O)C=C2OC

> <PUBCHEM_OPENEYE_ISO_SMILES>
COC1=CC2=C(C=C1)C(=O)C=C2OC

> <PUBCHEM_CACTVS_TPSA>
35.5

> <PUBCHEM_MONOISOTOPIC_WEIGHT>
190.062994

> <PUBCHEM_TOTAL_CHARGE>
0

> <PUBCHEM_HEAVY_ATOM_COUNT>
14

> <PUBCHEM_ATOM_DEF_STEREO_COUNT>
0

> <PUBCHEM_ATOM_UDEF_STEREO_COUNT>
0

> <PUBCHEM_BOND_DEF_STEREO_COUNT>
0

> <PUBCHEM_BOND_UDEF_STEREO_COUNT>
0

> <PUBCHEM_ISOTOPIC_ATOM_COUNT>
0

> <PUBCHEM_COMPONENT_COUNT>
1

> <PUBCHEM_CACTVS_TAUTO_COUNT>
1

> <PUBCHEM_COORDINATE_TYPE>
1
5
255

> <PUBCHEM_BONDANNOTATIONS>
11  12  8
4  5  8
4  7  8
5  9  8
7  11  8
9  12  8

$$$$

