   Color/Form

     * White crystalline solid
     * Colorless crystals

   from [1]HSDB

   Odor
        Odorless
   from [2]HSDB

   Melting Point
        151-152 deg C
   from [3]HSDB

   Corrosivity
        Solutions are corrosive to aluminum, steel, and tin plate.
   /Clopyralid salts/
   from [4]HSDB

   Dissociation Constants
        pKa= 2.3
   from [5]HSDB

   Solubilities

     * Approximately 1000 ppm in water at 25 deg C; solubility at 25 deg
       C: > 25/5 w/w in methanol, acetone, xylene.
     * Solubility (20 deg C): 9 g/kg water; 250 g/kg acetone,
       cyclohexanone; < 11 g/kg xylene.
     * Solubility at 25 deg C: acetone > 25 g/100 ml; methanol > 15 g/100
       ml; xylene < 0.5 g/100 ml.

   from [6]HSDB

   Vapor Pressure
        1.2x10-5 mm Hg at 25 deg C
   from [7]HSDB

   Other Chemical/Physical Properties
        All formulations compatible with most types of hard water.
   from [8]HSDB

   Computed Properties
   Molecular Weight                  191.99952 [g/mol]
   Molecular Formula                 C[6]H[3]Cl[2]NO[2]
   XLogP3-AA                         2.3
   H-Bond Donor                      1
   H-Bond Acceptor                   3
   Rotatable Bond Count              1
   Exact Mass                        190.954084
   MonoIsotopic Mass                 190.954084
   Topological Polar Surface Area    50.2
   Heavy Atom Count                  11
   Formal Charge                     0
   Complexity                        165
   Isotope Atom Count                0
   Defined Atom Stereocenter Count   0
   Undefined Atom Stereocenter Count 0
   Defined Bond Stereocenter Count   0
   Undefined Bond Stereocenter Count 0
   Covalently-Bonded Unit Count      1
   Feature 3D Acceptor Count         3
   Feature 3D Anion Count            1
   Feature 3D Ring Count             1
   Effective Rotor Count             1
   Conformer Sampling RMSD           0.4
   CID Conformer Count               [9]2

References

   1. http://toxnet.nlm.nih.gov/cgi-bin/sis/search/r?dbs+hsdb:@term+@rn+@rel+1702-17-6
   2. http://toxnet.nlm.nih.gov/cgi-bin/sis/search/r?dbs+hsdb:@term+@rn+@rel+1702-17-6
   3. http://toxnet.nlm.nih.gov/cgi-bin/sis/search/r?dbs+hsdb:@term+@rn+@rel+1702-17-6
   4. http://toxnet.nlm.nih.gov/cgi-bin/sis/search/r?dbs+hsdb:@term+@rn+@rel+1702-17-6
   5. http://toxnet.nlm.nih.gov/cgi-bin/sis/search/r?dbs+hsdb:@term+@rn+@rel+1702-17-6
   6. http://toxnet.nlm.nih.gov/cgi-bin/sis/search/r?dbs+hsdb:@term+@rn+@rel+1702-17-6
   7. http://toxnet.nlm.nih.gov/cgi-bin/sis/search/r?dbs+hsdb:@term+@rn+@rel+1702-17-6
   8. http://toxnet.nlm.nih.gov/cgi-bin/sis/search/r?dbs+hsdb:@term+@rn+@rel+1702-17-6
   9. http://pubchem.ncbi.nlm.nih.gov/vw3d/vw3d.cgi?cid=15553
