440703
  -OEChem-07051212502D

 59 62  0     1  0  0  0  0  0999 V2000
    5.3307    0.7546    0.0000 O   0  0  0  0  0  0  0  0  0  0  0  0
    8.5179    2.2542    0.0000 O   0  0  0  0  0  0  0  0  0  0  0  0
    2.5357   -2.7977    0.0000 O   0  0  0  0  0  0  0  0  0  0  0  0
   10.4749    2.6666    0.0000 O   0  0  0  0  0  0  0  0  0  0  0  0
    7.9288   -0.7454    0.0000 C   0  0  3  0  0  0  0  0  0  0  0  0
    7.0628   -1.2454    0.0000 C   0  0  3  0  0  0  0  0  0  0  0  0
    7.9288    0.2546    0.0000 C   0  0  3  0  0  0  0  0  0  0  0  0
    6.1968   -0.7454    0.0000 C   0  0  3  0  0  0  0  0  0  0  0  0
    5.2868   -1.2522    0.0000 C   0  0  3  0  0  0  0  0  0  0  0  0
    5.2787   -2.2938    0.0000 C   0  0  3  0  0  0  0  0  0  0  0  0
    8.8750    0.5594    0.0000 C   0  0  3  0  0  0  0  0  0  0  0  0
    8.8750   -1.0501    0.0000 C   0  0  0  0  0  0  0  0  0  0  0  0
    7.0789   -2.2869    0.0000 C   0  0  0  0  0  0  0  0  0  0  0  0
    7.0628    0.7546    0.0000 C   0  0  0  0  0  0  0  0  0  0  0  0
    9.4586   -0.2454    0.0000 C   0  0  0  0  0  0  0  0  0  0  0  0
    6.1808   -2.8146    0.0000 C   0  0  0  0  0  0  0  0  0  0  0  0
    6.1968    0.2546    0.0000 C   0  0  0  0  0  0  0  0  0  0  0  0
    4.3599   -0.6881    0.0000 C   0  0  0  0  0  0  0  0  0  0  0  0
    4.3433   -2.8435    0.0000 C   0  0  0  0  0  0  0  0  0  0  0  0
    7.9288    1.2546    0.0000 C   0  0  0  0  0  0  0  0  0  0  0  0
    5.2945   -0.2522    0.0000 C   0  0  0  0  0  0  0  0  0  0  0  0
    9.1857    1.5099    0.0000 C   0  0  3  0  0  0  0  0  0  0  0  0
    3.4120   -1.2161    0.0000 C   0  0  0  0  0  0  0  0  0  0  0  0
    3.4037   -2.3010    0.0000 C   0  0  1  0  0  0  0  0  0  0  0  0
   10.1642    1.7161    0.0000 C   0  0  0  0  0  0  0  0  0  0  0  0
    8.0188   -1.5906    0.0000 H   0  0  0  0  0  0  0  0  0  0  0  0
    7.8022   -1.6647    0.0000 H   0  0  0  0  0  0  0  0  0  0  0  0
    6.9329   -0.3204    0.0000 H   0  0  0  0  0  0  0  0  0  0  0  0
    5.2820   -3.1438    0.0000 H   0  0  0  0  0  0  0  0  0  0  0  0
    9.7148    0.6913    0.0000 H   0  0  0  0  0  0  0  0  0  0  0  0
    8.6240   -1.6170    0.0000 H   0  0  0  0  0  0  0  0  0  0  0  0
    9.4124   -1.3593    0.0000 H   0  0  0  0  0  0  0  0  0  0  0  0
    7.2969   -2.8673    0.0000 H   0  0  0  0  0  0  0  0  0  0  0  0
    7.6880   -2.1714    0.0000 H   0  0  0  0  0  0  0  0  0  0  0  0
    7.4613    1.2296    0.0000 H   0  0  0  0  0  0  0  0  0  0  0  0
    6.6643    1.2296    0.0000 H   0  0  0  0  0  0  0  0  0  0  0  0
    9.9195   -0.6601    0.0000 H   0  0  0  0  0  0  0  0  0  0  0  0
    9.9195    0.1694    0.0000 H   0  0  0  0  0  0  0  0  0  0  0  0
    5.7835   -3.2906    0.0000 H   0  0  0  0  0  0  0  0  0  0  0  0
    6.5818   -3.2875    0.0000 H   0  0  0  0  0  0  0  0  0  0  0  0
    4.7681   -0.2215    0.0000 H   0  0  0  0  0  0  0  0  0  0  0  0
    3.9700   -0.2061    0.0000 H   0  0  0  0  0  0  0  0  0  0  0  0
    3.9460   -3.3195    0.0000 H   0  0  0  0  0  0  0  0  0  0  0  0
    4.7443   -3.3164    0.0000 H   0  0  0  0  0  0  0  0  0  0  0  0
    8.5488    1.2546    0.0000 H   0  0  0  0  0  0  0  0  0  0  0  0
    7.9288    1.8746    0.0000 H   0  0  0  0  0  0  0  0  0  0  0  0
    7.3088    1.2546    0.0000 H   0  0  0  0  0  0  0  0  0  0  0  0
    5.9145   -0.2570    0.0000 H   0  0  0  0  0  0  0  0  0  0  0  0
    5.2993    0.3678    0.0000 H   0  0  0  0  0  0  0  0  0  0  0  0
    4.6745   -0.2474    0.0000 H   0  0  0  0  0  0  0  0  0  0  0  0
    9.4498    2.3178    0.0000 H   0  0  0  0  0  0  0  0  0  0  0  0
    3.2075   -0.6308    0.0000 H   0  0  0  0  0  0  0  0  0  0  0  0
    2.8004   -1.3174    0.0000 H   0  0  0  0  0  0  0  0  0  0  0  0
    3.4025   -2.9210    0.0000 H   0  0  0  0  0  0  0  0  0  0  0  0
   10.1848    1.0965    0.0000 H   0  0  0  0  0  0  0  0  0  0  0  0
   10.7780    1.6288    0.0000 H   0  0  0  0  0  0  0  0  0  0  0  0
    8.7105    2.8435    0.0000 H   0  0  0  0  0  0  0  0  0  0  0  0
    2.0000   -2.4856    0.0000 H   0  0  0  0  0  0  0  0  0  0  0  0
   11.0815    2.7945    0.0000 H   0  0  0  0  0  0  0  0  0  0  0  0
  1 17  2  0  0  0  0
  2 22  1  0  0  0  0
  2 57  1  0  0  0  0
 24  3  1  6  0  0  0
  3 58  1  0  0  0  0
  4 25  1  0  0  0  0
  4 59  1  0  0  0  0
  5  6  1  0  0  0  0
  5  7  1  0  0  0  0
  5 12  1  0  0  0  0
  5 26  1  0  0  0  0
  6  8  1  0  0  0  0
  6 13  1  0  0  0  0
  6 27  1  0  0  0  0
  7 11  1  0  0  0  0
  7 14  1  0  0  0  0
  7 20  1  0  0  0  0
  8  9  1  0  0  0  0
  8 17  1  0  0  0  0
  8 28  1  0  0  0  0
  9 10  1  0  0  0  0
  9 18  1  0  0  0  0
  9 21  1  0  0  0  0
 10 16  1  0  0  0  0
 10 19  1  0  0  0  0
 10 29  1  0  0  0  0
 11 15  1  0  0  0  0
 11 22  1  0  0  0  0
 11 30  1  0  0  0  0
 12 15  1  0  0  0  0
 12 31  1  0  0  0  0
 12 32  1  0  0  0  0
 13 16  1  0  0  0  0
 13 33  1  0  0  0  0
 13 34  1  0  0  0  0
 14 17  1  0  0  0  0
 14 35  1  0  0  0  0
 14 36  1  0  0  0  0
 15 37  1  0  0  0  0
 15 38  1  0  0  0  0
 16 39  1  0  0  0  0
 16 40  1  0  0  0  0
 18 23  1  0  0  0  0
 18 41  1  0  0  0  0
 18 42  1  0  0  0  0
 19 24  1  0  0  0  0
 19 43  1  0  0  0  0
 19 44  1  0  0  0  0
 20 45  1  0  0  0  0
 20 46  1  0  0  0  0
 20 47  1  0  0  0  0
 21 48  1  0  0  0  0
 21 49  1  0  0  0  0
 21 50  1  0  0  0  0
 22 25  1  0  0  0  0
 22 51  1  0  0  0  0
 23 24  1  0  0  0  0
 23 52  1  0  0  0  0
 23 53  1  0  0  0  0
 24 54  1  0  0  0  0
 25 55  1  0  0  0  0
 25 56  1  0  0  0  0
M  END
> <PUBCHEM_COMPOUND_CID>
440703

> <PUBCHEM_COMPOUND_CANONICALIZED>
1

> <PUBCHEM_CACTVS_COMPLEXITY>
548

> <PUBCHEM_CACTVS_HBOND_ACCEPTOR>
4

> <PUBCHEM_CACTVS_HBOND_DONOR>
3

> <PUBCHEM_CACTVS_ROTATABLE_BOND>
2

> <PUBCHEM_CACTVS_SUBSKEYS>
AAADcfB4OAAAAAAAAAAAAAAAAAAAAYAAAAAwYMAAAAAAAGDAAAAAGgAACAAADxSggAICAAAAAgAIAIAQAAAAAAAAAAAAAAEAAAABEBIAAAAAQAAEAAABAAGIzPDPgAAAAAAAAADAAAYAACAAAQAACAAAAA==

> <PUBCHEM_IUPAC_OPENEYE_NAME>
(3R)-17-(1,2-dihydroxyethyl)-3-hydroxy-10,13-dimethyl-1,2,3,4,5,6,7,8,9,12,14,15,16,17-tetradecahydrocyclopenta[a]phenanthren-11-one

> <PUBCHEM_IUPAC_CAS_NAME>
(3R)-17-(1,2-dihydroxyethyl)-3-hydroxy-10,13-dimethyl-1,2,3,4,5,6,7,8,9,12,14,15,16,17-tetradecahydrocyclopenta[a]phenanthren-11-one

> <PUBCHEM_IUPAC_NAME>
(3R)-17-(1,2-dihydroxyethyl)-3-hydroxy-10,13-dimethyl-1,2,3,4,5,6,7,8,9,12,14,15,16,17-tetradecahydrocyclopenta[a]phenanthren-11-one

> <PUBCHEM_IUPAC_SYSTEMATIC_NAME>
(3R)-17-[1,2-bis(oxidanyl)ethyl]-10,13-dimethyl-3-oxidanyl-1,2,3,4,5,6,7,8,9,12,14,15,16,17-tetradecahydrocyclopenta[a]phenanthren-11-one

> <PUBCHEM_IUPAC_TRADITIONAL_NAME>
(3R)-17-(1,2-dihydroxyethyl)-3-hydroxy-10,13-dimethyl-1,2,3,4,5,6,7,8,9,12,14,15,16,17-tetradecahydrocyclopenta[a]phenanthren-11-one

> <PUBCHEM_IUPAC_INCHI>
InChI=1S/C21H34O4/c1-20-8-7-13(23)9-12(20)3-4-14-15-5-6-16(18(25)11-22)21(15,2)10-17(24)19(14)20/h12-16,18-19,22-23,25H,3-11H2,1-2H3/t12?,13-,14?,15?,16?,18?,19?,20?,21?/m1/s1

> <PUBCHEM_IUPAC_INCHIKEY>
NGYONPIMXAHRCT-GSAWHMRWSA-N

> <PUBCHEM_XLOGP3_AA>
2.5

> <PUBCHEM_EXACT_MASS>
350.24571

> <PUBCHEM_MOLECULAR_FORMULA>
C21H34O4

> <PUBCHEM_MOLECULAR_WEIGHT>
350.49226

> <PUBCHEM_OPENEYE_CAN_SMILES>
CC12CCC(CC1CCC3C2C(=O)CC4(C3CCC4C(CO)O)C)O

> <PUBCHEM_OPENEYE_ISO_SMILES>
CC12CC[C@H](CC1CCC3C2C(=O)CC4(C3CCC4C(CO)O)C)O

> <PUBCHEM_CACTVS_TPSA>
77.8

> <PUBCHEM_MONOISOTOPIC_WEIGHT>
350.24571

> <PUBCHEM_TOTAL_CHARGE>
0

> <PUBCHEM_HEAVY_ATOM_COUNT>
25

> <PUBCHEM_ATOM_DEF_STEREO_COUNT>
1

> <PUBCHEM_ATOM_UDEF_STEREO_COUNT>
8

> <PUBCHEM_BOND_DEF_STEREO_COUNT>
0

> <PUBCHEM_BOND_UDEF_STEREO_COUNT>
0

> <PUBCHEM_ISOTOPIC_ATOM_COUNT>
0

> <PUBCHEM_COMPONENT_COUNT>
1

> <PUBCHEM_CACTVS_TAUTO_COUNT>
3

> <PUBCHEM_COORDINATE_TYPE>
1
5
255

> <PUBCHEM_BONDANNOTATIONS>
10  29  3
11  30  3
22  51  3
24  3  6
5  26  3
6  27  3
7  20  3
8  28  3
9  21  3

$$$$

