   Color/Form
        ROSETTES OF SLENDER NEEDLES FROM ALC
   from [1]HSDB

   Melting Point
        178-180 DEG C
   from [2]HSDB

   pH
        WATER SOLN ARE SLIGHTLY ACID TO LITMUS
   from [3]HSDB

   Solubilities
        1 G DISSOLVES IN 40 ML WATER, 12 ML ALC; VERY SOL IN CHLOROFORM
   from [4]HSDB

   Spectral Properties
        SPECIFIC OPTICAL ROTATION: -43 DEG @ 20 DEG C/D (2%)
   from [5]HSDB

   Computed Properties
   Molecular Weight                  337.45528 [g/mol]
   Molecular Formula                 C[22]H[27]NO[2]
   XLogP3-AA                         3.8
   H-Bond Donor                      1
   H-Bond Acceptor                   3
   Rotatable Bond Count              6
   Tautomer Count                    2
   Exact Mass                        337.204179
   MonoIsotopic Mass                 337.204179
   Topological Polar Surface Area    40.5
   Heavy Atom Count                  25
   Formal Charge                     0
   Complexity                        412
   Isotope Atom Count                0
   Defined Atom Stereocenter Count   3
   Undefined Atom Stereocenter Count 0
   Defined Bond Stereocenter Count   0
   Undefined Bond Stereocenter Count 0
   Covalently-Bonded Unit Count      1
   Feature 3D Acceptor Count         2
   Feature 3D Donor Count            1
   Feature 3D Cation Count           1
   Feature 3D Ring Count             3
   Effective Rotor Count             7.2
   Conformer Sampling RMSD           0.8
   CID Conformer Count               [6]109

References

   1. http://toxnet.nlm.nih.gov/cgi-bin/sis/search/r?dbs+hsdb:@term+@rn+@rel+63990-84-1
   2. http://toxnet.nlm.nih.gov/cgi-bin/sis/search/r?dbs+hsdb:@term+@rn+@rel+63990-84-1
   3. http://toxnet.nlm.nih.gov/cgi-bin/sis/search/r?dbs+hsdb:@term+@rn+@rel+63990-84-1
   4. http://toxnet.nlm.nih.gov/cgi-bin/sis/search/r?dbs+hsdb:@term+@rn+@rel+63990-84-1
   5. http://toxnet.nlm.nih.gov/cgi-bin/sis/search/r?dbs+hsdb:@term+@rn+@rel+63990-84-1
   6. http://pubchem.ncbi.nlm.nih.gov/vw3d/vw3d.cgi?cid=101616
