23677976
  -OEChem-07051213032D

 23 21  0     1  0  0  0  0  0999 V2000
    2.0000   -0.2500    0.0000 Na  0  3  0  0  0  0  0  0  0  0  0  0
    5.4641   -1.2500    0.0000 O   0  0  0  0  0  0  0  0  0  0  0  0
    6.3301    1.2500    0.0000 O   0  0  0  0  0  0  0  0  0  0  0  0
    4.5981    1.2500    0.0000 O   0  0  0  0  0  0  0  0  0  0  0  0
    7.1962   -1.2500    0.0000 O   0  0  0  0  0  0  0  0  0  0  0  0
    2.8660    0.2500    0.0000 O   0  5  0  0  0  0  0  0  0  0  0  0
    3.7320   -1.2500    0.0000 O   0  0  0  0  0  0  0  0  0  0  0  0
    8.9282   -0.2500    0.0000 O   0  0  0  0  0  0  0  0  0  0  0  0
    5.4641   -0.2500    0.0000 C   0  0  1  0  0  0  0  0  0  0  0  0
    6.3301    0.2500    0.0000 C   0  0  1  0  0  0  0  0  0  0  0  0
    4.5981    0.2500    0.0000 C   0  0  1  0  0  0  0  0  0  0  0  0
    7.1962   -0.2500    0.0000 C   0  0  2  0  0  0  0  0  0  0  0  0
    3.7320   -0.2500    0.0000 C   0  0  0  0  0  0  0  0  0  0  0  0
    8.0622    0.2500    0.0000 C   0  0  0  0  0  0  0  0  0  0  0  0
    6.0010   -0.5600    0.0000 H   0  0  0  0  0  0  0  0  0  0  0  0
    6.8671    0.5600    0.0000 H   0  0  0  0  0  0  0  0  0  0  0  0
    5.1350    0.5600    0.0000 H   0  0  0  0  0  0  0  0  0  0  0  0
    6.6592   -0.5600    0.0000 H   0  0  0  0  0  0  0  0  0  0  0  0
    4.9272   -1.5600    0.0000 H   0  0  0  0  0  0  0  0  0  0  0  0
    6.8671    1.5600    0.0000 H   0  0  0  0  0  0  0  0  0  0  0  0
    8.0622    0.8700    0.0000 H   0  0  0  0  0  0  0  0  0  0  0  0
    4.0611    1.5600    0.0000 H   0  0  0  0  0  0  0  0  0  0  0  0
    7.7331   -1.5600    0.0000 H   0  0  0  0  0  0  0  0  0  0  0  0
  9  2  1  6  0  0  0
  2 19  1  0  0  0  0
 10  3  1  6  0  0  0
  3 20  1  0  0  0  0
 11  4  1  1  0  0  0
  4 22  1  0  0  0  0
 12  5  1  6  0  0  0
  5 23  1  0  0  0  0
  6 13  1  0  0  0  0
  7 13  2  0  0  0  0
  8 14  2  0  0  0  0
  9 10  1  0  0  0  0
  9 11  1  0  0  0  0
  9 15  1  0  0  0  0
 10 12  1  0  0  0  0
 10 16  1  0  0  0  0
 11 13  1  0  0  0  0
 11 17  1  0  0  0  0
 12 14  1  0  0  0  0
 12 18  1  0  0  0  0
 14 21  1  0  0  0  0
M  CHG  2   1   1   6  -1
M  END
> <PUBCHEM_COMPOUND_CID>
23677976

> <PUBCHEM_COMPOUND_CANONICALIZED>
1

> <PUBCHEM_CACTVS_COMPLEXITY>
197

> <PUBCHEM_CACTVS_HBOND_ACCEPTOR>
7

> <PUBCHEM_CACTVS_HBOND_DONOR>
4

> <PUBCHEM_CACTVS_ROTATABLE_BOND>
5

> <PUBCHEM_CACTVS_SUBSKEYS>
AAADccBgOCAAAAAAAAAAAAAAAAAAAAAAAAAAAAAAAAAAAAAAAAAAGgAACAAACBSggAIACAAAAgAIAAiQiAIAAAAAAAAAAAFAAAABEBYAAAAAQAAFIAABAAHKbARAAAAAAAAAAAAAAAAAAAAAAAAAAAAAAA==

> <PUBCHEM_IUPAC_OPENEYE_NAME>
sodium (2S,3S,4S,5R)-2,3,4,5-tetrahydroxy-6-oxo-hexanoate

> <PUBCHEM_IUPAC_CAS_NAME>
sodium (2S,3S,4S,5R)-2,3,4,5-tetrahydroxy-6-oxohexanoate

> <PUBCHEM_IUPAC_NAME>
sodium (2S,3S,4S,5R)-2,3,4,5-tetrahydroxy-6-oxohexanoate

> <PUBCHEM_IUPAC_SYSTEMATIC_NAME>
sodium (2S,3S,4S,5R)-2,3,4,5-tetrakis(oxidanyl)-6-oxidanylidene-hexanoate

> <PUBCHEM_IUPAC_TRADITIONAL_NAME>
sodium (2S,3S,4S,5R)-2,3,4,5-tetrahydroxy-6-keto-hexanoate

> <PUBCHEM_IUPAC_INCHI>
InChI=1S/C6H10O7.Na/c7-1-2(8)3(9)4(10)5(11)6(12)13;/h1-5,8-11H,(H,12,13);/q;+1/p-1/t2-,3+,4-,5-;/m0./s1

> <PUBCHEM_IUPAC_INCHIKEY>
WNFHGZLVUQBPMA-JSCKKFHOSA-M

> <PUBCHEM_EXACT_MASS>
216.024597

> <PUBCHEM_MOLECULAR_FORMULA>
C6H9NaO7

> <PUBCHEM_MOLECULAR_WEIGHT>
216.121229

> <PUBCHEM_OPENEYE_CAN_SMILES>
C(=O)C(C(C(C(C(=O)[O-])O)O)O)O.[Na+]

> <PUBCHEM_OPENEYE_ISO_SMILES>
C(=O)[C@@H]([C@H]([C@@H]([C@@H](C(=O)[O-])O)O)O)O.[Na+]

> <PUBCHEM_CACTVS_TPSA>
138

> <PUBCHEM_MONOISOTOPIC_WEIGHT>
216.024597

> <PUBCHEM_TOTAL_CHARGE>
0

> <PUBCHEM_HEAVY_ATOM_COUNT>
14

> <PUBCHEM_ATOM_DEF_STEREO_COUNT>
4

> <PUBCHEM_ATOM_UDEF_STEREO_COUNT>
0

> <PUBCHEM_BOND_DEF_STEREO_COUNT>
0

> <PUBCHEM_BOND_UDEF_STEREO_COUNT>
0

> <PUBCHEM_ISOTOPIC_ATOM_COUNT>
0

> <PUBCHEM_COMPONENT_COUNT>
2

> <PUBCHEM_CACTVS_TAUTO_COUNT>
41

> <PUBCHEM_NONSTANDARDBOND>
1  6  7

> <PUBCHEM_COORDINATE_TYPE>
1
5
255

> <PUBCHEM_BONDANNOTATIONS>
9  2  6
10  3  6
11  4  5
12  5  6

$$$$

