5281397
  -OEChem-07051212562D

 98104  0     1  0  0  0  0  0999 V2000
    7.8197    2.8768    0.0000 O   0  0  0  0  0  0  0  0  0  0  0  0
    7.2167    0.0736    0.0000 O   0  0  0  0  0  0  0  0  0  0  0  0
    8.1783   -0.5995    0.0000 O   0  0  0  0  0  0  0  0  0  0  0  0
    7.9399   -1.6463    0.0000 O   0  0  0  0  0  0  0  0  0  0  0  0
    4.9844    2.9205    0.0000 O   0  0  0  0  0  0  0  0  0  0  0  0
    5.3966    3.6284    0.0000 O   0  0  0  0  0  0  0  0  0  0  0  0
    3.7023    2.8897    0.0000 O   0  0  0  0  0  0  0  0  0  0  0  0
    6.5723    4.4402    0.0000 O   0  0  0  0  0  0  0  0  0  0  0  0
    6.3304    0.5368    0.0000 C   0  0  2  0  0  0  0  0  0  0  0  0
    7.2314    0.9707    0.0000 C   0  0  1  0  0  0  0  0  0  0  0  0
    5.4295    0.9707    0.0000 C   0  0  1  0  0  0  0  0  0  0  0  0
    7.4539    1.9456    0.0000 C   0  0  1  0  0  0  0  0  0  0  0  0
    6.8304    2.7274    0.0000 C   0  0  1  0  0  0  0  0  0  0  0  0
    8.1010    0.3973    0.0000 C   0  0  2  0  0  0  0  0  0  0  0  0
    5.2070    1.9456    0.0000 C   0  0  1  0  0  0  0  0  0  0  0  0
    6.2366   -0.5006    0.0000 C   0  0  1  0  0  0  0  0  0  0  0  0
    5.8304    2.7274    0.0000 C   0  0  2  0  0  0  0  0  0  0  0  0
    8.0312   -0.6420    0.0000 C   0  0  2  0  0  0  0  0  0  0  0  0
    4.5748    0.4630    0.0000 C   0  0  2  0  0  0  0  0  0  0  0  0
    7.0927   -1.0940    0.0000 C   0  0  0  0  0  0  0  0  0  0  0  0
    7.2336   -0.9266    0.0000 C   0  0  3  0  0  0  0  0  0  0  0  0
    3.8268    1.1177    0.0000 C   0  0  1  0  0  0  0  0  0  0  0  0
    4.2167    2.0322    0.0000 C   0  0  0  0  0  0  0  0  0  0  0  0
    6.2070    3.5093    0.0000 C   0  0  0  0  0  0  0  0  0  0  0  0
    5.3307   -0.9240    0.0000 C   0  0  0  0  0  0  0  0  0  0  0  0
    3.7305   -0.0729    0.0000 C   0  0  0  0  0  0  0  0  0  0  0  0
    9.0262   -0.5425    0.0000 C   0  0  0  0  0  0  0  0  0  0  0  0
    2.8712    1.4126    0.0000 C   0  0  0  0  0  0  0  0  0  0  0  0
    8.1198   -1.3898    0.0000 C   0  0  0  0  0  0  0  0  0  0  0  0
    2.8443    0.3903    0.0000 C   0  0  0  0  0  0  0  0  0  0  0  0
    9.6100   -1.3544    0.0000 C   0  0  0  0  0  0  0  0  0  0  0  0
    9.4375    0.3690    0.0000 C   0  0  0  0  0  0  0  0  0  0  0  0
    2.0000   -0.1456    0.0000 C   0  0  0  0  0  0  0  0  0  0  0  0
    8.1618   -2.3889    0.0000 C   0  0  0  0  0  0  0  0  0  0  0  0
    2.0420   -1.1447    0.0000 C   0  0  0  0  0  0  0  0  0  0  0  0
    7.3175   -2.9248    0.0000 C   0  0  0  0  0  0  0  0  0  0  0  0
    2.9282   -1.6079    0.0000 C   0  0  0  0  0  0  0  0  0  0  0  0
    7.3595   -3.9239    0.0000 C   0  0  0  0  0  0  0  0  0  0  0  0
    2.9702   -2.6070    0.0000 C   0  0  0  0  0  0  0  0  0  0  0  0
    6.5152   -4.4598    0.0000 C   0  0  0  0  0  0  0  0  0  0  0  0
    3.8564   -3.0702    0.0000 C   0  0  0  0  0  0  0  0  0  0  0  0
    5.6290   -3.9966    0.0000 C   0  0  0  0  0  0  0  0  0  0  0  0
    3.8984   -4.0694    0.0000 C   0  0  0  0  0  0  0  0  0  0  0  0
    4.7847   -4.5325    0.0000 C   0  0  0  0  0  0  0  0  0  0  0  0
    7.9972    1.3395    0.0000 H   0  0  0  0  0  0  0  0  0  0  0  0
    5.6186    0.1420    0.0000 H   0  0  0  0  0  0  0  0  0  0  0  0
    8.2662    1.6950    0.0000 H   0  0  0  0  0  0  0  0  0  0  0  0
    8.9278    0.2002    0.0000 H   0  0  0  0  0  0  0  0  0  0  0  0
    5.7291   -0.1445    0.0000 H   0  0  0  0  0  0  0  0  0  0  0  0
    5.2143    2.7969    0.0000 H   0  0  0  0  0  0  0  0  0  0  0  0
    5.2144   -0.0968    0.0000 H   0  0  0  0  0  0  0  0  0  0  0  0
    6.6575   -1.5356    0.0000 H   0  0  0  0  0  0  0  0  0  0  0  0
    7.4533   -1.5983    0.0000 H   0  0  0  0  0  0  0  0  0  0  0  0
    3.5246    0.5764    0.0000 H   0  0  0  0  0  0  0  0  0  0  0  0
    5.6779    3.8326    0.0000 H   0  0  0  0  0  0  0  0  0  0  0  0
    5.7967    3.0444    0.0000 H   0  0  0  0  0  0  0  0  0  0  0  0
    5.0682   -0.3624    0.0000 H   0  0  0  0  0  0  0  0  0  0  0  0
    4.7690   -1.1866    0.0000 H   0  0  0  0  0  0  0  0  0  0  0  0
    5.5932   -1.4857    0.0000 H   0  0  0  0  0  0  0  0  0  0  0  0
    3.3523   -0.5641    0.0000 H   0  0  0  0  0  0  0  0  0  0  0  0
    4.1486   -0.5307    0.0000 H   0  0  0  0  0  0  0  0  0  0  0  0
    4.3920    3.1033    0.0000 H   0  0  0  0  0  0  0  0  0  0  0  0
    5.7458    4.1407    0.0000 H   0  0  0  0  0  0  0  0  0  0  0  0
    3.0540    2.0050    0.0000 H   0  0  0  0  0  0  0  0  0  0  0  0
    2.2788    1.5954    0.0000 H   0  0  0  0  0  0  0  0  0  0  0  0
    2.6884    0.8201    0.0000 H   0  0  0  0  0  0  0  0  0  0  0  0
    8.6432   -1.0575    0.0000 H   0  0  0  0  0  0  0  0  0  0  0  0
    3.2225    0.8816    0.0000 H   0  0  0  0  0  0  0  0  0  0  0  0
    2.4262    0.8481    0.0000 H   0  0  0  0  0  0  0  0  0  0  0  0
    9.1065   -1.7163    0.0000 H   0  0  0  0  0  0  0  0  0  0  0  0
    9.9719   -1.8578    0.0000 H   0  0  0  0  0  0  0  0  0  0  0  0
   10.1133   -0.9925    0.0000 H   0  0  0  0  0  0  0  0  0  0  0  0
    7.1854    4.5325    0.0000 H   0  0  0  0  0  0  0  0  0  0  0  0
   10.0544    0.4308    0.0000 H   0  0  0  0  0  0  0  0  0  0  0  0
    9.0756    0.8724    0.0000 H   0  0  0  0  0  0  0  0  0  0  0  0
    1.7637    0.4276    0.0000 H   0  0  0  0  0  0  0  0  0  0  0  0
    1.3945   -0.2788    0.0000 H   0  0  0  0  0  0  0  0  0  0  0  0
    8.7112   -2.6761    0.0000 H   0  0  0  0  0  0  0  0  0  0  0  0
    1.4274   -1.0628    0.0000 H   0  0  0  0  0  0  0  0  0  0  0  0
    1.8546   -1.7357    0.0000 H   0  0  0  0  0  0  0  0  0  0  0  0
    7.0812   -2.3516    0.0000 H   0  0  0  0  0  0  0  0  0  0  0  0
    6.7120   -3.0580    0.0000 H   0  0  0  0  0  0  0  0  0  0  0  0
    3.5428   -1.6898    0.0000 H   0  0  0  0  0  0  0  0  0  0  0  0
    3.1156   -1.0169    0.0000 H   0  0  0  0  0  0  0  0  0  0  0  0
    7.5958   -4.4971    0.0000 H   0  0  0  0  0  0  0  0  0  0  0  0
    7.9650   -3.7907    0.0000 H   0  0  0  0  0  0  0  0  0  0  0  0
    2.3556   -2.5251    0.0000 H   0  0  0  0  0  0  0  0  0  0  0  0
    2.7828   -3.1980    0.0000 H   0  0  0  0  0  0  0  0  0  0  0  0
    6.1370   -4.9511    0.0000 H   0  0  0  0  0  0  0  0  0  0  0  0
    6.9333   -4.9176    0.0000 H   0  0  0  0  0  0  0  0  0  0  0  0
    4.4710   -3.1522    0.0000 H   0  0  0  0  0  0  0  0  0  0  0  0
    4.0439   -2.4792    0.0000 H   0  0  0  0  0  0  0  0  0  0  0  0
    6.0072   -3.5054    0.0000 H   0  0  0  0  0  0  0  0  0  0  0  0
    5.2108   -3.5388    0.0000 H   0  0  0  0  0  0  0  0  0  0  0  0
    3.2839   -3.9874    0.0000 H   0  0  0  0  0  0  0  0  0  0  0  0
    3.7110   -4.6604    0.0000 H   0  0  0  0  0  0  0  0  0  0  0  0
    4.4064   -5.0238    0.0000 H   0  0  0  0  0  0  0  0  0  0  0  0
    5.2028   -4.9904    0.0000 H   0  0  0  0  0  0  0  0  0  0  0  0
  1 12  1  0  0  0  0
  1 13  1  0  0  0  0
  9  2  1  1  0  0  0
  2 21  1  0  0  0  0
  3 14  1  0  0  0  0
  3 21  1  0  0  0  0
  4 18  1  0  0  0  0
  4 21  1  0  0  0  0
 15  5  1  6  0  0  0
  5 62  1  0  0  0  0
 17  6  1  6  0  0  0
  6 63  1  0  0  0  0
  7 23  2  0  0  0  0
  8 24  1  0  0  0  0
  8 73  1  0  0  0  0
  9 10  1  0  0  0  0
  9 11  1  0  0  0  0
  9 16  1  0  0  0  0
 10 12  1  0  0  0  0
 10 14  1  0  0  0  0
 10 45  1  6  0  0  0
 11 15  1  0  0  0  0
 11 19  1  0  0  0  0
 11 46  1  1  0  0  0
 12 13  1  0  0  0  0
 12 47  1  6  0  0  0
 13 17  1  0  0  0  0
 13 24  1  6  0  0  0
 14 18  1  0  0  0  0
 14 48  1  6  0  0  0
 15 17  1  0  0  0  0
 15 23  1  0  0  0  0
 16 20  1  0  0  0  0
 16 25  1  1  0  0  0
 16 49  1  0  0  0  0
 17 50  1  0  0  0  0
 18 20  1  0  0  0  0
 18 27  1  6  0  0  0
 19 22  1  0  0  0  0
 19 26  1  0  0  0  0
 19 51  1  6  0  0  0
 20 52  1  0  0  0  0
 20 53  1  0  0  0  0
 21 29  1  0  0  0  0
 22 23  1  0  0  0  0
 22 28  1  6  0  0  0
 22 54  1  0  0  0  0
 24 55  1  0  0  0  0
 24 56  1  0  0  0  0
 25 57  1  0  0  0  0
 25 58  1  0  0  0  0
 25 59  1  0  0  0  0
 26 30  1  0  0  0  0
 26 60  1  0  0  0  0
 26 61  1  0  0  0  0
 27 31  1  0  0  0  0
 27 32  2  0  0  0  0
 28 64  1  0  0  0  0
 28 65  1  0  0  0  0
 28 66  1  0  0  0  0
 29 34  2  0  0  0  0
 29 67  1  0  0  0  0
 30 33  1  0  0  0  0
 30 68  1  0  0  0  0
 30 69  1  0  0  0  0
 31 70  1  0  0  0  0
 31 71  1  0  0  0  0
 31 72  1  0  0  0  0
 32 74  1  0  0  0  0
 32 75  1  0  0  0  0
 33 35  1  0  0  0  0
 33 76  1  0  0  0  0
 33 77  1  0  0  0  0
 34 36  1  0  0  0  0
 34 78  1  0  0  0  0
 35 37  1  0  0  0  0
 35 79  1  0  0  0  0
 35 80  1  0  0  0  0
 36 38  1  0  0  0  0
 36 81  1  0  0  0  0
 36 82  1  0  0  0  0
 37 39  1  0  0  0  0
 37 83  1  0  0  0  0
 37 84  1  0  0  0  0
 38 40  1  0  0  0  0
 38 85  1  0  0  0  0
 38 86  1  0  0  0  0
 39 41  1  0  0  0  0
 39 87  1  0  0  0  0
 39 88  1  0  0  0  0
 40 42  1  0  0  0  0
 40 89  1  0  0  0  0
 40 90  1  0  0  0  0
 41 43  1  0  0  0  0
 41 91  1  0  0  0  0
 41 92  1  0  0  0  0
 42 44  1  0  0  0  0
 42 93  1  0  0  0  0
 42 94  1  0  0  0  0
 43 44  1  0  0  0  0
 43 95  1  0  0  0  0
 43 96  1  0  0  0  0
 44 97  1  0  0  0  0
 44 98  1  0  0  0  0
M  END
> <PUBCHEM_COMPOUND_CID>
5281397

> <PUBCHEM_COMPOUND_CANONICALIZED>
1

> <PUBCHEM_CACTVS_COMPLEXITY>
1190

> <PUBCHEM_CACTVS_HBOND_ACCEPTOR>
8

> <PUBCHEM_CACTVS_HBOND_DONOR>
3

> <PUBCHEM_CACTVS_ROTATABLE_BOND>
2

> <PUBCHEM_CACTVS_SUBSKEYS>
AAADcfB8PAAAAAAAAAAAAAAAEgAAAaIAAAA0QAAABogSAADAAAAAGgAACAAADVSggAICCAAABgCIAqBSAAIAAAAgAAAICAFAAAgRFBYAIQAiUAAF4AAPIAPK7PzOgAAAAAAAAADCAAYQADCAAYAADAAAAA==

> <PUBCHEM_IUPAC_INCHI>
InChI=1S/C36H54O8/c1-22(2)32-20-23(3)36-26-29(32)42-34(43-32,44-36)19-17-15-13-11-9-7-5-6-8-10-12-14-16-18-25-24(4)28(38)35(40,27(25)36)31(39)33(21-37)30(26)41-33/h17,19,23-27,29-31,37,39-40H,1,5-16,18,20-21H2,2-4H3/b19-17-/t23-,24+,25+,26-,27-,29-,30+,31-,32-,33+,34?,35-,36-/m1/s1

> <PUBCHEM_IUPAC_INCHIKEY>
WMCDWPXXDIUVBI-VUJIPGEVSA-N

> <PUBCHEM_XLOGP3_AA>
7.2

> <PUBCHEM_EXACT_MASS>
614.381869

> <PUBCHEM_MOLECULAR_FORMULA>
C36H54O8

> <PUBCHEM_MOLECULAR_WEIGHT>
614.80916

> <PUBCHEM_OPENEYE_CAN_SMILES>
CC1CC2(C3C4C15C6C(CCCCCCCCCCCCCC=CC(O3)(O2)O5)C(C(=O)C6(C(C7(C4O7)CO)O)O)C)C(=C)C

> <PUBCHEM_OPENEYE_ISO_SMILES>
C[C@@H]1C[C@]2([C@H]3[C@H]4[C@@]15[C@@H]6[C@@H](CCCCCCCCCCCCC/C=C\C(O3)(O2)O5)[C@@H](C(=O)[C@]6([C@@H]([C@@]7([C@H]4O7)CO)O)O)C)C(=C)C

> <PUBCHEM_CACTVS_TPSA>
118

> <PUBCHEM_MONOISOTOPIC_WEIGHT>
614.381869

> <PUBCHEM_TOTAL_CHARGE>
0

> <PUBCHEM_HEAVY_ATOM_COUNT>
44

> <PUBCHEM_ATOM_DEF_STEREO_COUNT>
12

> <PUBCHEM_ATOM_UDEF_STEREO_COUNT>
1

> <PUBCHEM_BOND_DEF_STEREO_COUNT>
1

> <PUBCHEM_BOND_UDEF_STEREO_COUNT>
0

> <PUBCHEM_ISOTOPIC_ATOM_COUNT>
0

> <PUBCHEM_COMPONENT_COUNT>
1

> <PUBCHEM_CACTVS_TAUTO_COUNT>
2

> <PUBCHEM_COORDINATE_TYPE>
1
5
255

> <PUBCHEM_BONDANNOTATIONS>
10  45  6
11  46  5
12  47  6
13  24  6
14  48  6
16  25  5
18  27  6
19  51  6
9  2  5
21  29  3
22  28  6
15  5  6
17  6  6

$$$$

