   Color/Form

     * White to off-white powder
     * Crystals from ether and ethanol

   from [1]HSDB

   Odor
        Slight, characteristic odor
   from [2]HSDB

   Melting Point
        213-215 deg C
   from [3]HSDB

   Solubilities

     * Sparingly sol in methanol; practically insol in most org solvents
     * Sol in ethanol, chloroform; practically insol in ether, acetone,
       benzene

   from [4]HSDB

   Spectral Properties
        UV max (methanol): 240 nm (Epsilon: 13,900)
   from [5]HSDB

   Other Chemical/Physical Properties

     * log Kow = 1.80 /Nortriptylene/
     * Intense mass spectral peaks: 44 m/z, 58 m/z, 202 m/z, 263 m/z
       /Nortriptyline/
     * MW: 263.38 /Nortryiptyline/

   from [6]HSDB

   Computed Properties
   Molecular Weight                  263.37674 [g/mol]
   Molecular Formula                 C[19]H[21]N
   XLogP3                            4.5
   H-Bond Donor                      1
   H-Bond Acceptor                   1
   Rotatable Bond Count              3
   Exact Mass                        263.1674
   MonoIsotopic Mass                 263.1674
   Topological Polar Surface Area    12
   Heavy Atom Count                  20
   Formal Charge                     0
   Complexity                        307
   Isotope Atom Count                0
   Defined Atom Stereocenter Count   0
   Undefined Atom Stereocenter Count 0
   Defined Bond Stereocenter Count   0
   Undefined Bond Stereocenter Count 0
   Covalently-Bonded Unit Count      1
   Feature 3D Donor Count            1
   Feature 3D Cation Count           1
   Feature 3D Ring Count             3
   Effective Rotor Count             3.4
   Conformer Sampling RMSD           0.6
   CID Conformer Count               [7]20

References

   1. http://toxnet.nlm.nih.gov/cgi-bin/sis/search/r?dbs+hsdb:@term+@rn+@rel+894-71-3
   2. http://toxnet.nlm.nih.gov/cgi-bin/sis/search/r?dbs+hsdb:@term+@rn+@rel+894-71-3
   3. http://toxnet.nlm.nih.gov/cgi-bin/sis/search/r?dbs+hsdb:@term+@rn+@rel+894-71-3
   4. http://toxnet.nlm.nih.gov/cgi-bin/sis/search/r?dbs+hsdb:@term+@rn+@rel+894-71-3
   5. http://toxnet.nlm.nih.gov/cgi-bin/sis/search/r?dbs+hsdb:@term+@rn+@rel+894-71-3
   6. http://toxnet.nlm.nih.gov/cgi-bin/sis/search/r?dbs+hsdb:@term+@rn+@rel+894-71-3
   7. http://pubchem.ncbi.nlm.nih.gov/vw3d/vw3d.cgi?cid=4543
