   Color/Form

     * WHITE SOLID
     * CRYSTALS

   from [1]HSDB

   Boiling Point
        161-164 DEG C
   from [2]HSDB

   Melting Point
        49-50 DEG C
   from [3]HSDB

   Corrosivity
        NONCORROSIVE TO SPRAY EQUIPMENT
   from [4]HSDB

   Density/Specific Gravity
        1.47 @ 20 DEG C/20 DEG C
   from [5]HSDB

   Solubilities
        SOL IN ACETONE, ALCOHOL, KEROSENE, XYLENE; INSOL IN WATER
   from [6]HSDB

   Spectral Properties
        Intense mass spectral peaks: 169 m/z (100%), 97 m/z (74%), 171 m/z
   (68%), 45 m/z (64%) [Hites, R.A. Handbook of Mass Spectra of
   Environmental Contaminants. Boca Raton, FL: CRC Press Inc., 1985., p.
   178] **UNREVIEWED**
   from [7]HSDB

   Vapor Pressure
        LOW
   from [8]HSDB

   Other Chemical/Physical Properties

     * DENSITY: 1.55 @ 50 DEG C/4 DEG C
     * DARK BROWN SOLID /TECHNICAL GRADE/

   from [9]HSDB

   Computed Properties
   Molecular Weight                  366.45236 [g/mol]
   Molecular Formula                 C[11]H[9]Cl[5]O[3]
   XLogP3-AA                         5.2
   H-Bond Donor                      0
   H-Bond Acceptor                   3
   Rotatable Bond Count              6
   Exact Mass                        365.896482
   MonoIsotopic Mass                 363.899433
   Topological Polar Surface Area    35.5
   Heavy Atom Count                  19
   Formal Charge                     0
   Complexity                        313
   Isotope Atom Count                0
   Defined Atom Stereocenter Count   0
   Undefined Atom Stereocenter Count 0
   Defined Bond Stereocenter Count   0
   Undefined Bond Stereocenter Count 0
   Covalently-Bonded Unit Count      1
   Feature 3D Acceptor Count         2
   Feature 3D Ring Count             1
   Effective Rotor Count             6
   Conformer Sampling RMSD           1
   CID Conformer Count               [10]148

References

   1. http://toxnet.nlm.nih.gov/cgi-bin/sis/search/r?dbs+hsdb:@term+@rn+@rel+136-25-4
   2. http://toxnet.nlm.nih.gov/cgi-bin/sis/search/r?dbs+hsdb:@term+@rn+@rel+136-25-4
   3. http://toxnet.nlm.nih.gov/cgi-bin/sis/search/r?dbs+hsdb:@term+@rn+@rel+136-25-4
   4. http://toxnet.nlm.nih.gov/cgi-bin/sis/search/r?dbs+hsdb:@term+@rn+@rel+136-25-4
   5. http://toxnet.nlm.nih.gov/cgi-bin/sis/search/r?dbs+hsdb:@term+@rn+@rel+136-25-4
   6. http://toxnet.nlm.nih.gov/cgi-bin/sis/search/r?dbs+hsdb:@term+@rn+@rel+136-25-4
   7. http://toxnet.nlm.nih.gov/cgi-bin/sis/search/r?dbs+hsdb:@term+@rn+@rel+136-25-4
   8. http://toxnet.nlm.nih.gov/cgi-bin/sis/search/r?dbs+hsdb:@term+@rn+@rel+136-25-4
   9. http://toxnet.nlm.nih.gov/cgi-bin/sis/search/r?dbs+hsdb:@term+@rn+@rel+136-25-4
  10. http://pubchem.ncbi.nlm.nih.gov/vw3d/vw3d.cgi?cid=8686
