5266
  -OEChem-06261200362D

133136  0     1  0  0  0  0  0999 V2000
    8.0622    2.2673    0.0000 O   0  0  0  0  0  0  0  0  0  0  0  0
    8.9282    0.7673    0.0000 O   0  0  0  0  0  0  0  0  0  0  0  0
    8.9282    4.7673    0.0000 O   0  0  0  0  0  0  0  0  0  0  0  0
    7.1962    4.7673    0.0000 O   0  0  0  0  0  0  0  0  0  0  0  0
   10.6603    1.7673    0.0000 O   0  0  0  0  0  0  0  0  0  0  0  0
    7.1962    1.7673    0.0000 O   0  0  0  0  0  0  0  0  0  0  0  0
    6.6962    7.6334    0.0000 O   0  0  0  0  0  0  0  0  0  0  0  0
    6.8549   -3.6814    0.0000 O   0  0  0  0  0  0  0  0  0  0  0  0
    5.4641    6.7673    0.0000 O   0  0  0  0  0  0  0  0  0  0  0  0
    7.0810   -5.3986    0.0000 O   0  0  0  0  0  0  0  0  0  0  0  0
    6.3301   -0.7327    0.0000 O   0  0  0  0  0  0  0  0  0  0  0  0
   10.6280   -1.3781    0.0000 O   0  0  0  0  0  0  0  0  0  0  0  0
    3.7320    0.7673    0.0000 O   0  0  0  0  0  0  0  0  0  0  0  0
    4.5981   -0.7327    0.0000 O   0  0  0  0  0  0  0  0  0  0  0  0
   10.6603    3.7673    0.0000 N   0  0  0  0  0  0  0  0  0  0  0  0
    5.3242   -7.3769    0.0000 N   0  0  0  0  0  0  0  0  0  0  0  0
    9.7942    3.2673    0.0000 C   0  0  3  0  0  0  0  0  0  0  0  0
    8.9282    3.7673    0.0000 C   0  0  3  0  0  0  0  0  0  0  0  0
    9.7942    2.2673    0.0000 C   0  0  3  0  0  0  0  0  0  0  0  0
    8.9282    1.7673    0.0000 C   0  0  3  0  0  0  0  0  0  0  0  0
    8.0622    3.2673    0.0000 C   0  0  3  0  0  0  0  0  0  0  0  0
    8.0622    0.2673    0.0000 C   0  0  3  0  0  0  0  0  0  0  0  0
    8.0622   -0.7327    0.0000 C   0  0  3  0  0  0  0  0  0  0  0  0
    8.0622    5.2673    0.0000 C   0  0  3  0  0  0  0  0  0  0  0  0
    7.7121   -1.7632    0.0000 C   0  0  0  0  0  0  0  0  0  0  0  0
    7.1962    6.7673    0.0000 C   0  0  3  0  0  0  0  0  0  0  0  0
    7.1962    0.7673    0.0000 C   0  0  3  0  0  0  0  0  0  0  0  0
    8.0622    6.2673    0.0000 C   0  0  0  0  0  0  0  0  0  0  0  0
    6.7462   -2.0220    0.0000 C   0  0  3  0  0  0  0  0  0  0  0  0
    6.3301    6.2673    0.0000 C   0  0  3  0  0  0  0  0  0  0  0  0
    6.3301    5.2673    0.0000 C   0  0  3  0  0  0  0  0  0  0  0  0
    9.0584   -0.6457    0.0000 C   0  0  0  0  0  0  0  0  0  0  0  0
    7.1962    3.7673    0.0000 C   0  0  0  0  0  0  0  0  0  0  0  0
    6.3301    0.2673    0.0000 C   0  0  3  0  0  0  0  0  0  0  0  0
    6.2462   -2.8881    0.0000 C   0  0  3  0  0  0  0  0  0  0  0  0
    7.6962    7.6334    0.0000 C   0  0  0  0  0  0  0  0  0  0  0  0
   10.6603    4.7673    0.0000 C   0  0  0  0  0  0  0  0  0  0  0  0
   11.5263    3.2673    0.0000 C   0  0  0  0  0  0  0  0  0  0  0  0
    5.8223   -1.6394    0.0000 C   0  0  0  0  0  0  0  0  0  0  0  0
    6.4722   -4.6053    0.0000 C   0  0  3  0  0  0  0  0  0  0  0  0
    5.4641    4.7673    0.0000 C   0  0  0  0  0  0  0  0  0  0  0  0
    5.7069   -6.4531    0.0000 C   0  0  3  0  0  0  0  0  0  0  0  0
    5.4641    0.7673    0.0000 C   0  0  0  0  0  0  0  0  0  0  0  0
    5.4808   -4.7358    0.0000 C   0  0  0  0  0  0  0  0  0  0  0  0
    5.0981   -5.6597    0.0000 C   0  0  0  0  0  0  0  0  0  0  0  0
    6.6983   -6.3225    0.0000 C   0  0  3  0  0  0  0  0  0  0  0  0
    9.6318   -1.4650    0.0000 C   0  0  0  0  0  0  0  0  0  0  0  0
    5.2802   -3.1469    0.0000 C   0  0  0  0  0  0  0  0  0  0  0  0
    6.3301    2.2673    0.0000 C   0  0  0  0  0  0  0  0  0  0  0  0
    7.3071   -7.1159    0.0000 C   0  0  0  0  0  0  0  0  0  0  0  0
    4.5981    0.2673    0.0000 C   0  0  0  0  0  0  0  0  0  0  0  0
    4.5731   -2.4398    0.0000 C   0  0  0  0  0  0  0  0  0  0  0  0
    4.3328   -7.5075    0.0000 C   0  0  0  0  0  0  0  0  0  0  0  0
    5.9330   -8.1703    0.0000 C   0  0  0  0  0  0  0  0  0  0  0  0
    2.8660    0.2673    0.0000 C   0  0  3  0  0  0  0  0  0  0  0  0
    3.5731   -2.4398    0.0000 C   0  0  0  0  0  0  0  0  0  0  0  0
    2.8660   -0.7327    0.0000 C   0  0  0  0  0  0  0  0  0  0  0  0
    3.5731   -1.4398    0.0000 C   0  0  0  0  0  0  0  0  0  0  0  0
    2.0000    0.7673    0.0000 C   0  0  0  0  0  0  0  0  0  0  0  0
    9.7942    3.8873    0.0000 H   0  0  0  0  0  0  0  0  0  0  0  0
    9.4651    4.0773    0.0000 H   0  0  0  0  0  0  0  0  0  0  0  0
    9.7942    1.6473    0.0000 H   0  0  0  0  0  0  0  0  0  0  0  0
    9.4651    1.4573    0.0000 H   0  0  0  0  0  0  0  0  0  0  0  0
    7.5252    2.9573    0.0000 H   0  0  0  0  0  0  0  0  0  0  0  0
    8.0622    0.8873    0.0000 H   0  0  0  0  0  0  0  0  0  0  0  0
    8.4448   -1.2205    0.0000 H   0  0  0  0  0  0  0  0  0  0  0  0
    8.0622    4.6473    0.0000 H   0  0  0  0  0  0  0  0  0  0  0  0
    7.7526   -2.3819    0.0000 H   0  0  0  0  0  0  0  0  0  0  0  0
    8.3268   -1.8442    0.0000 H   0  0  0  0  0  0  0  0  0  0  0  0
    6.6592    1.0773    0.0000 H   0  0  0  0  0  0  0  0  0  0  0  0
    8.6728    6.1597    0.0000 H   0  0  0  0  0  0  0  0  0  0  0  0
    8.2742    6.8499    0.0000 H   0  0  0  0  0  0  0  0  0  0  0  0
    6.7867   -1.4034    0.0000 H   0  0  0  0  0  0  0  0  0  0  0  0
    5.7932    5.9573    0.0000 H   0  0  0  0  0  0  0  0  0  0  0  0
    6.3301    4.6473    0.0000 H   0  0  0  0  0  0  0  0  0  0  0  0
    9.6204   -0.3838    0.0000 H   0  0  0  0  0  0  0  0  0  0  0  0
    8.8981   -0.0468    0.0000 H   0  0  0  0  0  0  0  0  0  0  0  0
    7.5062    4.3043    0.0000 H   0  0  0  0  0  0  0  0  0  0  0  0
    6.6592    4.0773    0.0000 H   0  0  0  0  0  0  0  0  0  0  0  0
    6.8862    3.2304    0.0000 H   0  0  0  0  0  0  0  0  0  0  0  0
    6.8671   -0.0427    0.0000 H   0  0  0  0  0  0  0  0  0  0  0  0
    6.8648   -2.8475    0.0000 H   0  0  0  0  0  0  0  0  0  0  0  0
   11.1972    2.0773    0.0000 H   0  0  0  0  0  0  0  0  0  0  0  0
    8.2331    7.3234    0.0000 H   0  0  0  0  0  0  0  0  0  0  0  0
    8.0062    8.1703    0.0000 H   0  0  0  0  0  0  0  0  0  0  0  0
    7.1592    7.9434    0.0000 H   0  0  0  0  0  0  0  0  0  0  0  0
   11.2163    2.7304    0.0000 H   0  0  0  0  0  0  0  0  0  0  0  0
   12.0632    2.9573    0.0000 H   0  0  0  0  0  0  0  0  0  0  0  0
   11.8363    3.8043    0.0000 H   0  0  0  0  0  0  0  0  0  0  0  0
   11.2803    4.7673    0.0000 H   0  0  0  0  0  0  0  0  0  0  0  0
   10.6603    5.3873    0.0000 H   0  0  0  0  0  0  0  0  0  0  0  0
   10.0403    4.7673    0.0000 H   0  0  0  0  0  0  0  0  0  0  0  0
    6.0596   -1.0666    0.0000 H   0  0  0  0  0  0  0  0  0  0  0  0
    5.2495   -1.4021    0.0000 H   0  0  0  0  0  0  0  0  0  0  0  0
    5.5850   -2.2122    0.0000 H   0  0  0  0  0  0  0  0  0  0  0  0
    6.0948   -4.1134    0.0000 H   0  0  0  0  0  0  0  0  0  0  0  0
    5.1541    5.3043    0.0000 H   0  0  0  0  0  0  0  0  0  0  0  0
    4.9272    4.4573    0.0000 H   0  0  0  0  0  0  0  0  0  0  0  0
    5.7741    4.2304    0.0000 H   0  0  0  0  0  0  0  0  0  0  0  0
    5.0922   -6.5340    0.0000 H   0  0  0  0  0  0  0  0  0  0  0  0
    5.8626    1.2423    0.0000 H   0  0  0  0  0  0  0  0  0  0  0  0
    5.0656    1.2423    0.0000 H   0  0  0  0  0  0  0  0  0  0  0  0
    5.5078   -4.1164    0.0000 H   0  0  0  0  0  0  0  0  0  0  0  0
    4.8755   -4.6016    0.0000 H   0  0  0  0  0  0  0  0  0  0  0  0
    4.5752   -5.3266    0.0000 H   0  0  0  0  0  0  0  0  0  0  0  0
    4.6792   -6.1168    0.0000 H   0  0  0  0  0  0  0  0  0  0  0  0
    7.3130   -6.2416    0.0000 H   0  0  0  0  0  0  0  0  0  0  0  0
    7.0062    8.1703    0.0000 H   0  0  0  0  0  0  0  0  0  0  0  0
    9.3696   -2.0269    0.0000 H   0  0  0  0  0  0  0  0  0  0  0  0
    4.9272    6.4573    0.0000 H   0  0  0  0  0  0  0  0  0  0  0  0
    5.1198   -3.7458    0.0000 H   0  0  0  0  0  0  0  0  0  0  0  0
    6.8671   -1.0427    0.0000 H   0  0  0  0  0  0  0  0  0  0  0  0
    6.6401    2.8043    0.0000 H   0  0  0  0  0  0  0  0  0  0  0  0
    5.7932    2.5773    0.0000 H   0  0  0  0  0  0  0  0  0  0  0  0
    6.0201    1.7304    0.0000 H   0  0  0  0  0  0  0  0  0  0  0  0
    6.8152   -7.4933    0.0000 H   0  0  0  0  0  0  0  0  0  0  0  0
    7.6845   -7.6078    0.0000 H   0  0  0  0  0  0  0  0  0  0  0  0
    7.7990   -6.7384    0.0000 H   0  0  0  0  0  0  0  0  0  0  0  0
    4.8104   -1.8670    0.0000 H   0  0  0  0  0  0  0  0  0  0  0  0
    5.4411   -8.5477    0.0000 H   0  0  0  0  0  0  0  0  0  0  0  0
    6.3104   -8.6622    0.0000 H   0  0  0  0  0  0  0  0  0  0  0  0
    4.2518   -6.8928    0.0000 H   0  0  0  0  0  0  0  0  0  0  0  0
    3.7180   -7.5884    0.0000 H   0  0  0  0  0  0  0  0  0  0  0  0
    4.4137   -8.1222    0.0000 H   0  0  0  0  0  0  0  0  0  0  0  0
    6.4248   -7.7929    0.0000 H   0  0  0  0  0  0  0  0  0  0  0  0
    2.8660    0.8873    0.0000 H   0  0  0  0  0  0  0  0  0  0  0  0
    3.1347   -2.8782    0.0000 H   0  0  0  0  0  0  0  0  0  0  0  0
    2.2672   -0.5722    0.0000 H   0  0  0  0  0  0  0  0  0  0  0  0
    2.5560   -1.2696    0.0000 H   0  0  0  0  0  0  0  0  0  0  0  0
    4.1459   -1.2025    0.0000 H   0  0  0  0  0  0  0  0  0  0  0  0
    2.3100    1.3043    0.0000 H   0  0  0  0  0  0  0  0  0  0  0  0
    1.4631    1.0773    0.0000 H   0  0  0  0  0  0  0  0  0  0  0  0
    1.6900    0.2304    0.0000 H   0  0  0  0  0  0  0  0  0  0  0  0
  1 20  1  0  0  0  0
  1 21  1  0  0  0  0
  2 20  1  0  0  0  0
  2 22  1  0  0  0  0
  3 18  1  0  0  0  0
  3 24  1  0  0  0  0
  4 24  1  0  0  0  0
  4 31  1  0  0  0  0
  5 19  1  0  0  0  0
  5 83  1  0  0  0  0
  6 27  1  0  0  0  0
  6 49  1  0  0  0  0
  7 26  1  0  0  0  0
  7108  1  0  0  0  0
  8 35  1  0  0  0  0
  8 40  1  0  0  0  0
  9 30  1  0  0  0  0
  9110  1  0  0  0  0
 10 40  1  0  0  0  0
 10 46  1  0  0  0  0
 11 34  1  0  0  0  0
 11112  1  0  0  0  0
 12 47  2  0  0  0  0
 13 51  1  0  0  0  0
 13 55  1  0  0  0  0
 14 51  2  0  0  0  0
 15 17  1  0  0  0  0
 15 37  1  0  0  0  0
 15 38  1  0  0  0  0
 16 42  1  0  0  0  0
 16 53  1  0  0  0  0
 16 54  1  0  0  0  0
 17 18  1  0  0  0  0
 17 19  1  0  0  0  0
 17 60  1  0  0  0  0
 18 21  1  0  0  0  0
 18 61  1  0  0  0  0
 19 20  1  0  0  0  0
 19 62  1  0  0  0  0
 20 63  1  0  0  0  0
 21 33  1  0  0  0  0
 21 64  1  0  0  0  0
 22 23  1  0  0  0  0
 22 27  1  0  0  0  0
 22 65  1  0  0  0  0
 23 25  1  0  0  0  0
 23 32  1  0  0  0  0
 23 66  1  0  0  0  0
 24 28  1  0  0  0  0
 24 67  1  0  0  0  0
 25 29  1  0  0  0  0
 25 68  1  0  0  0  0
 25 69  1  0  0  0  0
 26 28  1  0  0  0  0
 26 30  1  0  0  0  0
 26 36  1  0  0  0  0
 27 34  1  0  0  0  0
 27 70  1  0  0  0  0
 28 71  1  0  0  0  0
 28 72  1  0  0  0  0
 29 35  1  0  0  0  0
 29 39  1  0  0  0  0
 29 73  1  0  0  0  0
 30 31  1  0  0  0  0
 30 74  1  0  0  0  0
 31 41  1  0  0  0  0
 31 75  1  0  0  0  0
 32 47  1  0  0  0  0
 32 76  1  0  0  0  0
 32 77  1  0  0  0  0
 33 78  1  0  0  0  0
 33 79  1  0  0  0  0
 33 80  1  0  0  0  0
 34 43  1  0  0  0  0
 34 81  1  0  0  0  0
 35 48  1  0  0  0  0
 35 82  1  0  0  0  0
 36 84  1  0  0  0  0
 36 85  1  0  0  0  0
 36 86  1  0  0  0  0
 37 90  1  0  0  0  0
 37 91  1  0  0  0  0
 37 92  1  0  0  0  0
 38 87  1  0  0  0  0
 38 88  1  0  0  0  0
 38 89  1  0  0  0  0
 39 93  1  0  0  0  0
 39 94  1  0  0  0  0
 39 95  1  0  0  0  0
 40 44  1  0  0  0  0
 40 96  1  0  0  0  0
 41 97  1  0  0  0  0
 41 98  1  0  0  0  0
 41 99  1  0  0  0  0
 42 45  1  0  0  0  0
 42 46  1  0  0  0  0
 42100  1  0  0  0  0
 43 51  1  0  0  0  0
 43101  1  0  0  0  0
 43102  1  0  0  0  0
 44 45  1  0  0  0  0
 44103  1  0  0  0  0
 44104  1  0  0  0  0
 45105  1  0  0  0  0
 45106  1  0  0  0  0
 46 50  1  0  0  0  0
 46107  1  0  0  0  0
 47109  1  0  0  0  0
 48 52  2  3  0  0  0
 48111  1  0  0  0  0
 49113  1  0  0  0  0
 49114  1  0  0  0  0
 49115  1  0  0  0  0
 50116  1  0  0  0  0
 50117  1  0  0  0  0
 50118  1  0  0  0  0
 52 56  1  0  0  0  0
 52119  1  0  0  0  0
 53122  1  0  0  0  0
 53123  1  0  0  0  0
 53124  1  0  0  0  0
 54120  1  0  0  0  0
 54121  1  0  0  0  0
 54125  1  0  0  0  0
 55 57  1  0  0  0  0
 55 59  1  0  0  0  0
 55126  1  0  0  0  0
 56 58  2  3  0  0  0
 56127  1  0  0  0  0
 57 58  1  0  0  0  0
 57128  1  0  0  0  0
 57129  1  0  0  0  0
 58130  1  0  0  0  0
 59131  1  0  0  0  0
 59132  1  0  0  0  0
 59133  1  0  0  0  0
M  END
> <PUBCHEM_COMPOUND_CID>
5266

> <PUBCHEM_COMPOUND_CANONICALIZED>
1

> <PUBCHEM_CACTVS_COMPLEXITY>
1370

> <PUBCHEM_CACTVS_HBOND_ACCEPTOR>
16

> <PUBCHEM_CACTVS_HBOND_DONOR>
4

> <PUBCHEM_CACTVS_ROTATABLE_BOND>
11

> <PUBCHEM_CACTVS_SUBSKEYS>
AAADcfB/PAAAAAAAAAAAAAAAAAAAAAAAAAAkSJAAAAAAAAAAAAAAHgAACAAADXzxgAcCCAMABgCIACjSiAAAAAAgAAAICAEIAAgbFBYAoQAnUAAH4AAfoAPq7PzOAAAAAAAAAAAAAAAAAAAAAAAAAAAAAA==

> <PUBCHEM_IUPAC_OPENEYE_NAME>
2-[6-[5-(4,5-dihydroxy-4,6-dimethyl-tetrahydropyran-2-yl)oxy-4-(dimethylamino)-3-hydroxy-6-methyl-tetrahydropyran-2-yl]oxy-10-[5-(dimethylamino)-6-methyl-tetrahydropyran-2-yl]oxy-4-hydroxy-5-methoxy-9,16-dimethyl-2-oxo-1-oxacyclohexadeca-11,13-dien-7-yl]acetaldehyde

> <PUBCHEM_IUPAC_CAS_NAME>
2-[6-[[5-[(4,5-dihydroxy-4,6-dimethyl-2-oxanyl)oxy]-4-(dimethylamino)-3-hydroxy-6-methyl-2-oxanyl]oxy]-10-[[5-(dimethylamino)-6-methyl-2-oxanyl]oxy]-4-hydroxy-5-methoxy-9,16-dimethyl-2-oxo-1-oxacyclohexadeca-11,13-dien-7-yl]acetaldehyde

> <PUBCHEM_IUPAC_NAME>
2-[6-[5-(4,5-dihydroxy-4,6-dimethyloxan-2-yl)oxy-4-(dimethylamino)-3-hydroxy-6-methyloxan-2-yl]oxy-10-[5-(dimethylamino)-6-methyloxan-2-yl]oxy-4-hydroxy-5-methoxy-9,16-dimethyl-2-oxo-1-oxacyclohexadeca-11,13-dien-7-yl]acetaldehyde

> <PUBCHEM_IUPAC_SYSTEMATIC_NAME>
2-[6-[4-(dimethylamino)-5-[4,6-dimethyl-4,5-bis(oxidanyl)oxan-2-yl]oxy-6-methyl-3-oxidanyl-oxan-2-yl]oxy-10-[5-(dimethylamino)-6-methyl-oxan-2-yl]oxy-5-methoxy-9,16-dimethyl-4-oxidanyl-2-oxidanylidene-1-oxacyclohexadeca-11,13-dien-7-yl]ethanal

> <PUBCHEM_IUPAC_TRADITIONAL_NAME>
2-[6-[5-(4,5-dihydroxy-4,6-dimethyl-tetrahydropyran-2-yl)oxy-4-(dimethylamino)-3-hydroxy-6-methyl-tetrahydropyran-2-yl]oxy-10-[5-(dimethylamino)-6-methyl-tetrahydropyran-2-yl]oxy-4-hydroxy-2-keto-5-methoxy-9,16-dimethyl-1-oxacyclohexadeca-11,13-dien-7-yl]acetaldehyde

> <PUBCHEM_IUPAC_INCHI>
InChI=1S/C43H74N2O14/c1-24-21-29(19-20-46)39(59-42-37(49)36(45(9)10)38(27(4)56-42)58-35-23-43(6,51)41(50)28(5)55-35)40(52-11)31(47)22-33(48)53-25(2)15-13-12-14-16-32(24)57-34-18-17-30(44(7)8)26(3)54-34/h12-14,16,20,24-32,34-42,47,49-51H,15,17-19,21-23H2,1-11H3

> <PUBCHEM_IUPAC_INCHIKEY>
ACTOXUHEUCPTEW-UHFFFAOYSA-N

> <PUBCHEM_XLOGP3_AA>
2.1

> <PUBCHEM_EXACT_MASS>
842.514005

> <PUBCHEM_MOLECULAR_FORMULA>
C43H74N2O14

> <PUBCHEM_MOLECULAR_WEIGHT>
843.05266

> <PUBCHEM_OPENEYE_CAN_SMILES>
CC1CC=CC=CC(C(CC(C(C(C(CC(=O)O1)O)OC)OC2C(C(C(C(O2)C)OC3CC(C(C(O3)C)O)(C)O)N(C)C)O)CC=O)C)OC4CCC(C(O4)C)N(C)C

> <PUBCHEM_OPENEYE_ISO_SMILES>
CC1CC=CC=CC(C(CC(C(C(C(CC(=O)O1)O)OC)OC2C(C(C(C(O2)C)OC3CC(C(C(O3)C)O)(C)O)N(C)C)O)CC=O)C)OC4CCC(C(O4)C)N(C)C

> <PUBCHEM_CACTVS_TPSA>
195

> <PUBCHEM_MONOISOTOPIC_WEIGHT>
842.514005

> <PUBCHEM_TOTAL_CHARGE>
0

> <PUBCHEM_HEAVY_ATOM_COUNT>
59

> <PUBCHEM_ATOM_DEF_STEREO_COUNT>
0

> <PUBCHEM_ATOM_UDEF_STEREO_COUNT>
19

> <PUBCHEM_BOND_DEF_STEREO_COUNT>
0

> <PUBCHEM_BOND_UDEF_STEREO_COUNT>
2

> <PUBCHEM_ISOTOPIC_ATOM_COUNT>
0

> <PUBCHEM_COMPONENT_COUNT>
1

> <PUBCHEM_CACTVS_TAUTO_COUNT>
4

> <PUBCHEM_COORDINATE_TYPE>
1
5
255

> <PUBCHEM_BONDANNOTATIONS>
34  11  3
17  15  3
42  16  3
20  2  3
22  2  3
21  33  3
23  32  3
29  39  3
18  3  3
24  3  3
31  41  3
46  50  3
48  52  1
19  5  3
55  59  3
56  58  1
27  6  3
26  7  3
35  8  3
40  8  3
30  9  3

$$$$

