86369
  -OEChem-07051213012D

 33 34  0     0  0  0  0  0  0999 V2000
    7.1962   -0.6307    0.0000 Cl  0  0  0  0  0  0  0  0  0  0  0  0
    5.4641   -3.6307    0.0000 Cl  0  0  0  0  0  0  0  0  0  0  0  0
    2.8660   -2.1307    0.0000 S   0  0  0  0  0  0  0  0  0  0  0  0
    6.1452    3.6307    0.0000 F   0  0  0  0  0  0  0  0  0  0  0  0
    7.5464    2.6126    0.0000 F   0  0  0  0  0  0  0  0  0  0  0  0
    7.2242    0.6481    0.0000 O   0  0  0  0  0  0  0  0  0  0  0  0
    2.3660   -2.9967    0.0000 O   0  0  0  0  0  0  0  0  0  0  0  0
    3.3660   -1.2647    0.0000 O   0  0  0  0  0  0  0  0  0  0  0  0
    5.4641    0.3693    0.0000 N   0  0  0  0  0  0  0  0  0  0  0  0
    5.9641    1.9081    0.0000 N   0  0  0  0  0  0  0  0  0  0  0  0
    4.6551    0.9571    0.0000 N   0  0  0  0  0  0  0  0  0  0  0  0
    3.7320   -2.6307    0.0000 N   0  0  0  0  0  0  0  0  0  0  0  0
    5.4641   -0.6307    0.0000 C   0  0  0  0  0  0  0  0  0  0  0  0
    6.2731    0.9571    0.0000 C   0  0  0  0  0  0  0  0  0  0  0  0
    4.9641    1.9081    0.0000 C   0  0  0  0  0  0  0  0  0  0  0  0
    4.5981   -2.1307    0.0000 C   0  0  0  0  0  0  0  0  0  0  0  0
    4.5981   -1.1307    0.0000 C   0  0  0  0  0  0  0  0  0  0  0  0
    6.3301   -1.1307    0.0000 C   0  0  0  0  0  0  0  0  0  0  0  0
    5.4641   -2.6307    0.0000 C   0  0  0  0  0  0  0  0  0  0  0  0
    6.3301   -2.1307    0.0000 C   0  0  0  0  0  0  0  0  0  0  0  0
    6.5519    2.7172    0.0000 C   0  0  0  0  0  0  0  0  0  0  0  0
    4.3763    2.7172    0.0000 C   0  0  0  0  0  0  0  0  0  0  0  0
    2.0000   -1.6307    0.0000 C   0  0  0  0  0  0  0  0  0  0  0  0
    4.0611   -0.8207    0.0000 H   0  0  0  0  0  0  0  0  0  0  0  0
    3.7320   -3.2507    0.0000 H   0  0  0  0  0  0  0  0  0  0  0  0
    6.8671   -2.4407    0.0000 H   0  0  0  0  0  0  0  0  0  0  0  0
    6.9163    3.2188    0.0000 H   0  0  0  0  0  0  0  0  0  0  0  0
    4.8779    3.0816    0.0000 H   0  0  0  0  0  0  0  0  0  0  0  0
    4.0119    3.2188    0.0000 H   0  0  0  0  0  0  0  0  0  0  0  0
    3.8747    2.3527    0.0000 H   0  0  0  0  0  0  0  0  0  0  0  0
    2.3100   -1.0938    0.0000 H   0  0  0  0  0  0  0  0  0  0  0  0
    1.4631   -1.3207    0.0000 H   0  0  0  0  0  0  0  0  0  0  0  0
    1.6900   -2.1676    0.0000 H   0  0  0  0  0  0  0  0  0  0  0  0
  1 18  1  0  0  0  0
  2 19  1  0  0  0  0
  3  7  2  0  0  0  0
  3  8  2  0  0  0  0
  3 12  1  0  0  0  0
  3 23  1  0  0  0  0
  4 21  1  0  0  0  0
  5 21  1  0  0  0  0
  6 14  2  0  0  0  0
  9 11  1  0  0  0  0
  9 13  1  0  0  0  0
  9 14  1  0  0  0  0
 10 14  1  0  0  0  0
 10 15  1  0  0  0  0
 10 21  1  0  0  0  0
 11 15  2  0  0  0  0
 12 16  1  0  0  0  0
 12 25  1  0  0  0  0
 13 17  1  0  0  0  0
 13 18  2  0  0  0  0
 15 22  1  0  0  0  0
 16 17  2  0  0  0  0
 16 19  1  0  0  0  0
 17 24  1  0  0  0  0
 18 20  1  0  0  0  0
 19 20  2  0  0  0  0
 20 26  1  0  0  0  0
 21 27  1  0  0  0  0
 22 28  1  0  0  0  0
 22 29  1  0  0  0  0
 22 30  1  0  0  0  0
 23 31  1  0  0  0  0
 23 32  1  0  0  0  0
 23 33  1  0  0  0  0
M  END
> <PUBCHEM_COMPOUND_CID>
86369

> <PUBCHEM_COMPOUND_CANONICALIZED>
1

> <PUBCHEM_CACTVS_COMPLEXITY>
613

> <PUBCHEM_CACTVS_HBOND_ACCEPTOR>
7

> <PUBCHEM_CACTVS_HBOND_DONOR>
1

> <PUBCHEM_CACTVS_ROTATABLE_BOND>
4

> <PUBCHEM_CACTVS_SUBSKEYS>
AAADccBzsYBGAAAAAAAAAAAAAAAAAQAAAAAwAAAAAAAAAAABAAAAHwYYQAAACAqBEDSzwINAAAKoACZicHCSBAAhBwAXiAAYZoiIICLB0tHEIAhongJIyCcQAAAAAABAAASAABAAAIAACQAAIAAAAAAAAA==

> <PUBCHEM_IUPAC_OPENEYE_NAME>
N-[2,4-dichloro-5-[4-(difluoromethyl)-3-methyl-5-oxo-1,2,4-triazol-1-yl]phenyl]methanesulfonamide

> <PUBCHEM_IUPAC_CAS_NAME>
N-[2,4-dichloro-5-[4-(difluoromethyl)-3-methyl-5-oxo-1,2,4-triazol-1-yl]phenyl]methanesulfonamide

> <PUBCHEM_IUPAC_NAME>
N-[2,4-dichloro-5-[4-(difluoromethyl)-3-methyl-5-oxo-1,2,4-triazol-1-yl]phenyl]methanesulfonamide

> <PUBCHEM_IUPAC_SYSTEMATIC_NAME>
N-[5-[4-[bis(fluoranyl)methyl]-3-methyl-5-oxidanylidene-1,2,4-triazol-1-yl]-2,4-bis(chloranyl)phenyl]methanesulfonamide

> <PUBCHEM_IUPAC_TRADITIONAL_NAME>
N-[2,4-dichloro-5-[4-(difluoromethyl)-5-keto-3-methyl-1,2,4-triazol-1-yl]phenyl]methanesulfonamide

> <PUBCHEM_IUPAC_INCHI>
InChI=1S/C11H10Cl2F2N4O3S/c1-5-16-19(11(20)18(5)10(14)15)9-4-8(17-23(2,21)22)6(12)3-7(9)13/h3-4,10,17H,1-2H3

> <PUBCHEM_IUPAC_INCHIKEY>
OORLZFUTLGXMEF-UHFFFAOYSA-N

> <PUBCHEM_XLOGP3_AA>
2.3

> <PUBCHEM_EXACT_MASS>
385.981873

> <PUBCHEM_MOLECULAR_FORMULA>
C11H10Cl2F2N4O3S

> <PUBCHEM_MOLECULAR_WEIGHT>
387.189906

> <PUBCHEM_OPENEYE_CAN_SMILES>
CC1=NN(C(=O)N1C(F)F)C2=CC(=C(C=C2Cl)Cl)NS(=O)(=O)C

> <PUBCHEM_OPENEYE_ISO_SMILES>
CC1=NN(C(=O)N1C(F)F)C2=CC(=C(C=C2Cl)Cl)NS(=O)(=O)C

> <PUBCHEM_CACTVS_TPSA>
90.5

> <PUBCHEM_MONOISOTOPIC_WEIGHT>
385.981873

> <PUBCHEM_TOTAL_CHARGE>
0

> <PUBCHEM_HEAVY_ATOM_COUNT>
23

> <PUBCHEM_ATOM_DEF_STEREO_COUNT>
0

> <PUBCHEM_ATOM_UDEF_STEREO_COUNT>
0

> <PUBCHEM_BOND_DEF_STEREO_COUNT>
0

> <PUBCHEM_BOND_UDEF_STEREO_COUNT>
0

> <PUBCHEM_ISOTOPIC_ATOM_COUNT>
0

> <PUBCHEM_COMPONENT_COUNT>
1

> <PUBCHEM_CACTVS_TAUTO_COUNT>
1

> <PUBCHEM_COORDINATE_TYPE>
1
5
255

> <PUBCHEM_BONDANNOTATIONS>
10  14  8
10  15  8
11  15  8
13  17  8
13  18  8
16  17  8
16  19  8
18  20  8
19  20  8
9  11  8
9  14  8

$$$$

