36867
  -OEChem-07051213012D

 32 32  0     0  0  0  0  0  0999 V2000
    2.0000   -1.2500    0.0000 Cl  0  0  0  0  0  0  0  0  0  0  0  0
    4.5981    0.2500    0.0000 S   0  0  0  0  0  0  0  0  0  0  0  0
    3.7320    1.7500    0.0000 O   0  0  0  0  0  0  0  0  0  0  0  0
    5.4641    1.7500    0.0000 N   0  0  0  0  0  0  0  0  0  0  0  0
    5.4641    2.7500    0.0000 C   0  0  0  0  0  0  0  0  0  0  0  0
    6.3301    1.2500    0.0000 C   0  0  0  0  0  0  0  0  0  0  0  0
    4.5981    1.2500    0.0000 C   0  0  0  0  0  0  0  0  0  0  0  0
    6.3301    3.2500    0.0000 C   0  0  0  0  0  0  0  0  0  0  0  0
    7.1962    1.7500    0.0000 C   0  0  0  0  0  0  0  0  0  0  0  0
    3.7320   -0.2500    0.0000 C   0  0  0  0  0  0  0  0  0  0  0  0
    3.7320   -1.2500    0.0000 C   0  0  0  0  0  0  0  0  0  0  0  0
    2.8660   -1.7500    0.0000 C   0  0  0  0  0  0  0  0  0  0  0  0
    4.5981   -1.7500    0.0000 C   0  0  0  0  0  0  0  0  0  0  0  0
    2.8660   -2.7500    0.0000 C   0  0  0  0  0  0  0  0  0  0  0  0
    4.5981   -2.7500    0.0000 C   0  0  0  0  0  0  0  0  0  0  0  0
    3.7320   -3.2500    0.0000 C   0  0  0  0  0  0  0  0  0  0  0  0
    5.9316    0.7751    0.0000 H   0  0  0  0  0  0  0  0  0  0  0  0
    6.7287    0.7751    0.0000 H   0  0  0  0  0  0  0  0  0  0  0  0
    5.2520    3.3326    0.0000 H   0  0  0  0  0  0  0  0  0  0  0  0
    4.8535    2.6423    0.0000 H   0  0  0  0  0  0  0  0  0  0  0  0
    7.5062    1.2131    0.0000 H   0  0  0  0  0  0  0  0  0  0  0  0
    7.7331    2.0600    0.0000 H   0  0  0  0  0  0  0  0  0  0  0  0
    6.8862    2.2869    0.0000 H   0  0  0  0  0  0  0  0  0  0  0  0
    6.6401    2.7131    0.0000 H   0  0  0  0  0  0  0  0  0  0  0  0
    6.8671    3.5600    0.0000 H   0  0  0  0  0  0  0  0  0  0  0  0
    6.0201    3.7869    0.0000 H   0  0  0  0  0  0  0  0  0  0  0  0
    3.5200    0.3326    0.0000 H   0  0  0  0  0  0  0  0  0  0  0  0
    3.1215   -0.3577    0.0000 H   0  0  0  0  0  0  0  0  0  0  0  0
    5.1350   -1.4400    0.0000 H   0  0  0  0  0  0  0  0  0  0  0  0
    2.3291   -3.0600    0.0000 H   0  0  0  0  0  0  0  0  0  0  0  0
    5.1350   -3.0600    0.0000 H   0  0  0  0  0  0  0  0  0  0  0  0
    3.7320   -3.8700    0.0000 H   0  0  0  0  0  0  0  0  0  0  0  0
  1 12  1  0  0  0  0
  2  7  1  0  0  0  0
  2 10  1  0  0  0  0
  3  7  2  0  0  0  0
  4  5  1  0  0  0  0
  4  6  1  0  0  0  0
  4  7  1  0  0  0  0
  5  8  1  0  0  0  0
  5 19  1  0  0  0  0
  5 20  1  0  0  0  0
  6  9  1  0  0  0  0
  6 17  1  0  0  0  0
  6 18  1  0  0  0  0
  8 24  1  0  0  0  0
  8 25  1  0  0  0  0
  8 26  1  0  0  0  0
  9 21  1  0  0  0  0
  9 22  1  0  0  0  0
  9 23  1  0  0  0  0
 10 11  1  0  0  0  0
 10 27  1  0  0  0  0
 10 28  1  0  0  0  0
 11 12  1  0  0  0  0
 11 13  2  0  0  0  0
 12 14  2  0  0  0  0
 13 15  1  0  0  0  0
 13 29  1  0  0  0  0
 14 16  1  0  0  0  0
 14 30  1  0  0  0  0
 15 16  2  0  0  0  0
 15 31  1  0  0  0  0
 16 32  1  0  0  0  0
M  END
> <PUBCHEM_COMPOUND_CID>
36867

> <PUBCHEM_COMPOUND_CANONICALIZED>
1

> <PUBCHEM_CACTVS_COMPLEXITY>
221

> <PUBCHEM_CACTVS_HBOND_ACCEPTOR>
2

> <PUBCHEM_CACTVS_HBOND_DONOR>
0

> <PUBCHEM_CACTVS_ROTATABLE_BOND>
5

> <PUBCHEM_CACTVS_SUBSKEYS>
AAADceByIABEAAAAAAAAAAAAAAAAAAAAAAAwAAAAAAAAAAABAAAAHgYAAAAADALFWCSyAIMAAAiIAiBCEAACAABgBRAIiAAIAogIICKhExCAIAAghgCIiAcAgAAOAAAAAAABAAAAAAAAAAIAAAAAAAAAAA==

> <PUBCHEM_IUPAC_OPENEYE_NAME>
S-[(2-chlorophenyl)methyl] N,N-diethylcarbamothioate

> <PUBCHEM_IUPAC_CAS_NAME>
N,N-diethylcarbamothioic acid S-[(2-chlorophenyl)methyl] ester

> <PUBCHEM_IUPAC_NAME>
S-[(2-chlorophenyl)methyl] N,N-diethylcarbamothioate

> <PUBCHEM_IUPAC_SYSTEMATIC_NAME>
S-[(2-chlorophenyl)methyl] N,N-diethylcarbamothioate

> <PUBCHEM_IUPAC_TRADITIONAL_NAME>
N,N-diethylthiocarbamic acid S-(2-chlorobenzyl) ester

> <PUBCHEM_IUPAC_INCHI>
InChI=1S/C12H16ClNOS/c1-3-14(4-2)12(15)16-9-10-7-5-6-8-11(10)13/h5-8H,3-4,9H2,1-2H3

> <PUBCHEM_IUPAC_INCHIKEY>
LLLFASISUZUJEQ-UHFFFAOYSA-N

> <PUBCHEM_XLOGP3>
3.4

> <PUBCHEM_EXACT_MASS>
257.064113

> <PUBCHEM_MOLECULAR_FORMULA>
C12H16ClNOS

> <PUBCHEM_MOLECULAR_WEIGHT>
257.77954

> <PUBCHEM_OPENEYE_CAN_SMILES>
CCN(CC)C(=O)SCC1=CC=CC=C1Cl

> <PUBCHEM_OPENEYE_ISO_SMILES>
CCN(CC)C(=O)SCC1=CC=CC=C1Cl

> <PUBCHEM_CACTVS_TPSA>
45.6

> <PUBCHEM_MONOISOTOPIC_WEIGHT>
257.064113

> <PUBCHEM_TOTAL_CHARGE>
0

> <PUBCHEM_HEAVY_ATOM_COUNT>
16

> <PUBCHEM_ATOM_DEF_STEREO_COUNT>
0

> <PUBCHEM_ATOM_UDEF_STEREO_COUNT>
0

> <PUBCHEM_BOND_DEF_STEREO_COUNT>
0

> <PUBCHEM_BOND_UDEF_STEREO_COUNT>
0

> <PUBCHEM_ISOTOPIC_ATOM_COUNT>
0

> <PUBCHEM_COMPONENT_COUNT>
1

> <PUBCHEM_CACTVS_TAUTO_COUNT>
1

> <PUBCHEM_COORDINATE_TYPE>
1
5
255

> <PUBCHEM_BONDANNOTATIONS>
11  12  8
11  13  8
12  14  8
13  15  8
14  16  8
15  16  8

$$$$

