3856
  -OEChem-06251223432D

 48 48  0     1  0  0  0  0  0999 V2000
    7.7331   -2.6550    0.0000 P   0  0  0  0  0  0  0  0  0  0  0  0
    6.8671   -3.1550    0.0000 O   0  0  0  0  0  0  0  0  0  0  0  0
    2.5369   -2.6550    0.0000 O   0  0  0  0  0  0  0  0  0  0  0  0
    3.4030    1.8450    0.0000 O   0  0  0  0  0  0  0  0  0  0  0  0
    6.0010    1.3450    0.0000 O   0  0  0  0  0  0  0  0  0  0  0  0
    6.8671   -0.1550    0.0000 O   0  0  0  0  0  0  0  0  0  0  0  0
    8.5991   -2.1550    0.0000 O   0  0  0  0  0  0  0  0  0  0  0  0
    8.2331   -3.5210    0.0000 O   0  0  0  0  0  0  0  0  0  0  0  0
    7.2331   -1.7890    0.0000 O   0  0  0  0  0  0  0  0  0  0  0  0
    5.1350   -1.1550    0.0000 N   0  0  0  0  0  0  0  0  0  0  0  0
    4.2690   -4.6550    0.0000 N   0  0  0  0  0  0  0  0  0  0  0  0
    2.5369    4.3450    0.0000 N   0  0  0  0  0  0  0  0  0  0  0  0
    4.2690   -2.6550    0.0000 C   0  0  0  0  0  0  0  0  0  0  0  0
    4.2690   -1.6550    0.0000 C   0  0  0  0  0  0  0  0  0  0  0  0
    5.1350   -3.1550    0.0000 C   0  0  0  0  0  0  0  0  0  0  0  0
    5.1350   -0.1550    0.0000 C   0  0  3  0  0  0  0  0  0  0  0  0
    3.4030   -3.1550    0.0000 C   0  0  0  0  0  0  0  0  0  0  0  0
    6.0010   -2.6550    0.0000 C   0  0  0  0  0  0  0  0  0  0  0  0
    3.4030   -4.1550    0.0000 C   0  0  0  0  0  0  0  0  0  0  0  0
    5.1350   -4.1550    0.0000 C   0  0  0  0  0  0  0  0  0  0  0  0
    4.2690    0.3450    0.0000 C   0  0  0  0  0  0  0  0  0  0  0  0
    2.5369   -4.6550    0.0000 C   0  0  0  0  0  0  0  0  0  0  0  0
    6.0010    0.3450    0.0000 C   0  0  0  0  0  0  0  0  0  0  0  0
    4.2690    1.3450    0.0000 C   0  0  0  0  0  0  0  0  0  0  0  0
    3.4030    2.8450    0.0000 C   0  0  0  0  0  0  0  0  0  0  0  0
    2.5369    3.3450    0.0000 C   0  0  0  0  0  0  0  0  0  0  0  0
    4.0569   -1.0724    0.0000 H   0  0  0  0  0  0  0  0  0  0  0  0
    3.6584   -1.7627    0.0000 H   0  0  0  0  0  0  0  0  0  0  0  0
    5.6720   -1.4650    0.0000 H   0  0  0  0  0  0  0  0  0  0  0  0
    5.8711   -0.5800    0.0000 H   0  0  0  0  0  0  0  0  0  0  0  0
    6.3996   -2.1800    0.0000 H   0  0  0  0  0  0  0  0  0  0  0  0
    5.6025   -2.1800    0.0000 H   0  0  0  0  0  0  0  0  0  0  0  0
    5.6720   -4.4650    0.0000 H   0  0  0  0  0  0  0  0  0  0  0  0
    3.7320    0.0350    0.0000 H   0  0  0  0  0  0  0  0  0  0  0  0
    2.2269   -4.1181    0.0000 H   0  0  0  0  0  0  0  0  0  0  0  0
    2.0000   -4.9650    0.0000 H   0  0  0  0  0  0  0  0  0  0  0  0
    2.8469   -5.1919    0.0000 H   0  0  0  0  0  0  0  0  0  0  0  0
    2.0000   -2.9650    0.0000 H   0  0  0  0  0  0  0  0  0  0  0  0
    4.8059    1.6550    0.0000 H   0  0  0  0  0  0  0  0  0  0  0  0
    4.0135    2.7373    0.0000 H   0  0  0  0  0  0  0  0  0  0  0  0
    3.6150    3.4276    0.0000 H   0  0  0  0  0  0  0  0  0  0  0  0
    6.5380    1.6550    0.0000 H   0  0  0  0  0  0  0  0  0  0  0  0
    1.9264    3.4527    0.0000 H   0  0  0  0  0  0  0  0  0  0  0  0
    2.3249    2.7624    0.0000 H   0  0  0  0  0  0  0  0  0  0  0  0
    9.1360   -2.4650    0.0000 H   0  0  0  0  0  0  0  0  0  0  0  0
    7.9231   -4.0580    0.0000 H   0  0  0  0  0  0  0  0  0  0  0  0
    2.0000    4.6550    0.0000 H   0  0  0  0  0  0  0  0  0  0  0  0
    3.0739    4.6550    0.0000 H   0  0  0  0  0  0  0  0  0  0  0  0
  1  2  1  0  0  0  0
  1  7  1  0  0  0  0
  1  8  1  0  0  0  0
  1  9  2  0  0  0  0
  2 18  1  0  0  0  0
  3 17  1  0  0  0  0
  3 38  1  0  0  0  0
  4 24  1  0  0  0  0
  4 25  1  0  0  0  0
  5 23  1  0  0  0  0
  5 42  1  0  0  0  0
  6 23  2  0  0  0  0
  7 45  1  0  0  0  0
  8 46  1  0  0  0  0
 10 14  1  0  0  0  0
 10 16  1  0  0  0  0
 10 29  1  0  0  0  0
 11 19  2  0  0  0  0
 11 20  1  0  0  0  0
 12 26  1  0  0  0  0
 12 47  1  0  0  0  0
 12 48  1  0  0  0  0
 13 14  1  0  0  0  0
 13 15  1  0  0  0  0
 13 17  2  0  0  0  0
 14 27  1  0  0  0  0
 14 28  1  0  0  0  0
 15 18  1  0  0  0  0
 15 20  2  0  0  0  0
 16 21  1  0  0  0  0
 16 23  1  0  0  0  0
 16 30  1  0  0  0  0
 17 19  1  0  0  0  0
 18 31  1  0  0  0  0
 18 32  1  0  0  0  0
 19 22  1  0  0  0  0
 20 33  1  0  0  0  0
 21 24  2  3  0  0  0
 21 34  1  0  0  0  0
 22 35  1  0  0  0  0
 22 36  1  0  0  0  0
 22 37  1  0  0  0  0
 24 39  1  0  0  0  0
 25 26  1  0  0  0  0
 25 40  1  0  0  0  0
 25 41  1  0  0  0  0
 26 43  1  0  0  0  0
 26 44  1  0  0  0  0
M  END
> <PUBCHEM_COMPOUND_CID>
3856

> <PUBCHEM_COMPOUND_CANONICALIZED>
1

> <PUBCHEM_CACTVS_COMPLEXITY>
514

> <PUBCHEM_CACTVS_HBOND_ACCEPTOR>
11

> <PUBCHEM_CACTVS_HBOND_DONOR>
6

> <PUBCHEM_CACTVS_ROTATABLE_BOND>
11

> <PUBCHEM_CACTVS_SUBSKEYS>
AAADceBzPAIAAAAAAAAAAAAAAAAAAAAAAAAsAAAAAAAAAAABgAAAHgAQCCAADCzhngYujpLIFxCoQzT3TISCiCAxYCAI2KG9TJgKJmLSkbOFcAhm0BHY2AfwUAMOgAAAAAAAAAAAAAAAAAAAAAAAAAAAAA==

> <PUBCHEM_IUPAC_OPENEYE_NAME>
4-(2-aminoethoxy)-2-[[3-hydroxy-2-methyl-5-(phosphonooxymethyl)-4-pyridyl]methylamino]but-3-enoic acid

> <PUBCHEM_IUPAC_CAS_NAME>
4-(2-aminoethoxy)-2-[[3-hydroxy-2-methyl-5-(phosphonooxymethyl)-4-pyridinyl]methylamino]-3-butenoic acid

> <PUBCHEM_IUPAC_NAME>
4-(2-aminoethoxy)-2-[[3-hydroxy-2-methyl-5-(phosphonooxymethyl)pyridin-4-yl]methylamino]but-3-enoic acid

> <PUBCHEM_IUPAC_SYSTEMATIC_NAME>
4-(2-azanylethoxy)-2-[[2-methyl-3-oxidanyl-5-(phosphonooxymethyl)pyridin-4-yl]methylamino]but-3-enoic acid

> <PUBCHEM_IUPAC_TRADITIONAL_NAME>
4-(2-aminoethoxy)-2-[[3-hydroxy-2-methyl-5-(phosphonooxymethyl)-4-pyridyl]methylamino]but-3-enoic acid

> <PUBCHEM_IUPAC_INCHI>
InChI=1S/C14H22N3O8P/c1-9-13(18)11(10(6-16-9)8-25-26(21,22)23)7-17-12(14(19)20)2-4-24-5-3-15/h2,4,6,12,17-18H,3,5,7-8,15H2,1H3,(H,19,20)(H2,21,22,23)

> <PUBCHEM_IUPAC_INCHIKEY>
ZYLUFTNLRAGXLR-UHFFFAOYSA-N

> <PUBCHEM_XLOGP3_AA>
-6.6

> <PUBCHEM_EXACT_MASS>
391.114451

> <PUBCHEM_MOLECULAR_FORMULA>
C14H22N3O8P

> <PUBCHEM_MOLECULAR_WEIGHT>
391.313542

> <PUBCHEM_OPENEYE_CAN_SMILES>
CC1=NC=C(C(=C1O)CNC(C=COCCN)C(=O)O)COP(=O)(O)O

> <PUBCHEM_OPENEYE_ISO_SMILES>
CC1=NC=C(C(=C1O)CNC(C=COCCN)C(=O)O)COP(=O)(O)O

> <PUBCHEM_CACTVS_TPSA>
185

> <PUBCHEM_MONOISOTOPIC_WEIGHT>
391.114451

> <PUBCHEM_TOTAL_CHARGE>
0

> <PUBCHEM_HEAVY_ATOM_COUNT>
26

> <PUBCHEM_ATOM_DEF_STEREO_COUNT>
0

> <PUBCHEM_ATOM_UDEF_STEREO_COUNT>
1

> <PUBCHEM_BOND_DEF_STEREO_COUNT>
0

> <PUBCHEM_BOND_UDEF_STEREO_COUNT>
1

> <PUBCHEM_ISOTOPIC_ATOM_COUNT>
0

> <PUBCHEM_COMPONENT_COUNT>
1

> <PUBCHEM_CACTVS_TAUTO_COUNT>
3

> <PUBCHEM_COORDINATE_TYPE>
1
5
255

> <PUBCHEM_BONDANNOTATIONS>
11  19  8
11  20  8
13  15  8
13  17  8
15  20  8
16  30  3
17  19  8
21  24  1

$$$$

