161464
  -OEChem-07051213092D

 43 43  0     0  0  0  0  0  0999 V2000
    6.0010    0.5000    0.0000 O   0  0  0  0  0  0  0  0  0  0  0  0
    5.1350    4.0000    0.0000 O   0  0  0  0  0  0  0  0  0  0  0  0
    8.5991    4.0000    0.0000 O   0  0  0  0  0  0  0  0  0  0  0  0
    6.8671    5.0000    0.0000 O   0  0  0  0  0  0  0  0  0  0  0  0
    7.7331    0.5000    0.0000 O   0  0  0  0  0  0  0  0  0  0  0  0
    4.2690   -3.5000    0.0000 N   0  0  0  0  0  0  0  0  0  0  0  0
    3.4030   -5.0000    0.0000 N   0  0  0  0  0  0  0  0  0  0  0  0
    2.5369   -3.5000    0.0000 N   0  0  0  0  0  0  0  0  0  0  0  0
    5.1350   -1.0000    0.0000 C   0  0  0  0  0  0  0  0  0  0  0  0
    5.1350   -2.0000    0.0000 C   0  0  0  0  0  0  0  0  0  0  0  0
    6.0010   -0.5000    0.0000 C   0  0  0  0  0  0  0  0  0  0  0  0
    4.2690   -2.5000    0.0000 C   0  0  0  0  0  0  0  0  0  0  0  0
    6.8671    2.0000    0.0000 C   0  0  0  0  0  0  0  0  0  0  0  0
    6.8671    1.0000    0.0000 C   0  0  0  0  0  0  0  0  0  0  0  0
    7.7331    2.5000    0.0000 C   0  0  0  0  0  0  0  0  0  0  0  0
    6.0010    2.5000    0.0000 C   0  0  0  0  0  0  0  0  0  0  0  0
    6.0010    3.5000    0.0000 C   0  0  0  0  0  0  0  0  0  0  0  0
    7.7331    3.5000    0.0000 C   0  0  0  0  0  0  0  0  0  0  0  0
    6.8671    4.0000    0.0000 C   0  0  0  0  0  0  0  0  0  0  0  0
    3.4030   -4.0000    0.0000 C   0  0  0  0  0  0  0  0  0  0  0  0
    4.2690    3.5000    0.0000 C   0  0  0  0  0  0  0  0  0  0  0  0
    9.4651    3.5000    0.0000 C   0  0  0  0  0  0  0  0  0  0  0  0
    4.9230   -0.4174    0.0000 H   0  0  0  0  0  0  0  0  0  0  0  0
    4.5244   -1.1077    0.0000 H   0  0  0  0  0  0  0  0  0  0  0  0
    5.3471   -2.5826    0.0000 H   0  0  0  0  0  0  0  0  0  0  0  0
    5.7456   -1.8923    0.0000 H   0  0  0  0  0  0  0  0  0  0  0  0
    6.2131   -1.0826    0.0000 H   0  0  0  0  0  0  0  0  0  0  0  0
    6.6116   -0.3923    0.0000 H   0  0  0  0  0  0  0  0  0  0  0  0
    4.0569   -1.9174    0.0000 H   0  0  0  0  0  0  0  0  0  0  0  0
    3.6584   -2.6077    0.0000 H   0  0  0  0  0  0  0  0  0  0  0  0
    8.2700    2.1900    0.0000 H   0  0  0  0  0  0  0  0  0  0  0  0
    5.4641    2.1900    0.0000 H   0  0  0  0  0  0  0  0  0  0  0  0
    7.4040    5.3100    0.0000 H   0  0  0  0  0  0  0  0  0  0  0  0
    3.9590    4.0369    0.0000 H   0  0  0  0  0  0  0  0  0  0  0  0
    3.7320    3.1900    0.0000 H   0  0  0  0  0  0  0  0  0  0  0  0
    4.5790    2.9631    0.0000 H   0  0  0  0  0  0  0  0  0  0  0  0
    9.1551    2.9631    0.0000 H   0  0  0  0  0  0  0  0  0  0  0  0
   10.0021    3.1900    0.0000 H   0  0  0  0  0  0  0  0  0  0  0  0
    9.7751    4.0369    0.0000 H   0  0  0  0  0  0  0  0  0  0  0  0
    2.8660   -5.3100    0.0000 H   0  0  0  0  0  0  0  0  0  0  0  0
    3.9399   -5.3100    0.0000 H   0  0  0  0  0  0  0  0  0  0  0  0
    2.0000   -3.8100    0.0000 H   0  0  0  0  0  0  0  0  0  0  0  0
    2.5369   -2.8800    0.0000 H   0  0  0  0  0  0  0  0  0  0  0  0
  1 11  1  0  0  0  0
  1 14  1  0  0  0  0
  2 17  1  0  0  0  0
  2 21  1  0  0  0  0
  3 18  1  0  0  0  0
  3 22  1  0  0  0  0
  4 19  1  0  0  0  0
  4 33  1  0  0  0  0
  5 14  2  0  0  0  0
  6 12  1  0  0  0  0
  6 20  2  0  0  0  0
  7 20  1  0  0  0  0
  7 40  1  0  0  0  0
  7 41  1  0  0  0  0
  8 20  1  0  0  0  0
  8 42  1  0  0  0  0
  8 43  1  0  0  0  0
  9 10  1  0  0  0  0
  9 11  1  0  0  0  0
  9 23  1  0  0  0  0
  9 24  1  0  0  0  0
 10 12  1  0  0  0  0
 10 25  1  0  0  0  0
 10 26  1  0  0  0  0
 11 27  1  0  0  0  0
 11 28  1  0  0  0  0
 12 29  1  0  0  0  0
 12 30  1  0  0  0  0
 13 14  1  0  0  0  0
 13 15  2  0  0  0  0
 13 16  1  0  0  0  0
 15 18  1  0  0  0  0
 15 31  1  0  0  0  0
 16 17  2  0  0  0  0
 16 32  1  0  0  0  0
 17 19  1  0  0  0  0
 18 19  2  0  0  0  0
 21 34  1  0  0  0  0
 21 35  1  0  0  0  0
 21 36  1  0  0  0  0
 22 37  1  0  0  0  0
 22 38  1  0  0  0  0
 22 39  1  0  0  0  0
M  END
> <PUBCHEM_COMPOUND_CID>
161464

> <PUBCHEM_COMPOUND_CANONICALIZED>
1

> <PUBCHEM_CACTVS_COMPLEXITY>
360

> <PUBCHEM_CACTVS_HBOND_ACCEPTOR>
6

> <PUBCHEM_CACTVS_HBOND_DONOR>
3

> <PUBCHEM_CACTVS_ROTATABLE_BOND>
9

> <PUBCHEM_CACTVS_SUBSKEYS>
AAADceBzOAAAAAAAAAAAAAAAAAAAAAAAAAAwAAAAAAAAAAABAAAAHgAQCAAADAThmAYzDoJABgCoAiDSLAACCAEkIAAAiAEGiMgNJzKGtRqCcSMlwBULuYfq7DzOIAABCAAAQABAAAIQAACAAAAAAAAAAA==

> <PUBCHEM_IUPAC_OPENEYE_NAME>
4-guanidinobutyl 4-hydroxy-3,5-dimethoxy-benzoate

> <PUBCHEM_IUPAC_CAS_NAME>
4-hydroxy-3,5-dimethoxybenzoic acid 4-(diaminomethylideneamino)butyl ester

> <PUBCHEM_IUPAC_NAME>
4-(diaminomethylideneamino)butyl 4-hydroxy-3,5-dimethoxybenzoate

> <PUBCHEM_IUPAC_SYSTEMATIC_NAME>
4-[bis(azanyl)methylideneamino]butyl 3,5-dimethoxy-4-oxidanyl-benzoate

> <PUBCHEM_IUPAC_TRADITIONAL_NAME>
4-hydroxy-3,5-dimethoxy-benzoic acid 4-guanidinobutyl ester

> <PUBCHEM_IUPAC_INCHI>
InChI=1S/C14H21N3O5/c1-20-10-7-9(8-11(21-2)12(10)18)13(19)22-6-4-3-5-17-14(15)16/h7-8,18H,3-6H2,1-2H3,(H4,15,16,17)

> <PUBCHEM_IUPAC_INCHIKEY>
WNGSUWLDMZFYNZ-UHFFFAOYSA-N

> <PUBCHEM_XLOGP3>
0.5

> <PUBCHEM_EXACT_MASS>
311.148121

> <PUBCHEM_MOLECULAR_FORMULA>
C14H21N3O5

> <PUBCHEM_MOLECULAR_WEIGHT>
311.33364

> <PUBCHEM_OPENEYE_CAN_SMILES>
COC1=CC(=CC(=C1O)OC)C(=O)OCCCCN=C(N)N

> <PUBCHEM_OPENEYE_ISO_SMILES>
COC1=CC(=CC(=C1O)OC)C(=O)OCCCCN=C(N)N

> <PUBCHEM_CACTVS_TPSA>
129

> <PUBCHEM_MONOISOTOPIC_WEIGHT>
311.148121

> <PUBCHEM_TOTAL_CHARGE>
0

> <PUBCHEM_HEAVY_ATOM_COUNT>
22

> <PUBCHEM_ATOM_DEF_STEREO_COUNT>
0

> <PUBCHEM_ATOM_UDEF_STEREO_COUNT>
0

> <PUBCHEM_BOND_DEF_STEREO_COUNT>
0

> <PUBCHEM_BOND_UDEF_STEREO_COUNT>
0

> <PUBCHEM_ISOTOPIC_ATOM_COUNT>
0

> <PUBCHEM_COMPONENT_COUNT>
1

> <PUBCHEM_CACTVS_TAUTO_COUNT>
8

> <PUBCHEM_COORDINATE_TYPE>
1
5
255

> <PUBCHEM_BONDANNOTATIONS>
13  15  8
13  16  8
15  18  8
16  17  8
17  19  8
18  19  8

$$$$

