64740
  -OEChem-07051213022D

 51 51  0     1  0  0  0  0  0999 V2000
    4.0010    0.0000    0.0000 Cl  0  0  0  0  0  0  0  0  0  0  0  0
    4.0010    2.5416    0.0000 Cl  0  0  0  0  0  0  0  0  0  0  0  0
    4.9362    8.4216    0.0000 O   0  0  0  0  0  0  0  0  0  0  0  0
    4.9362    6.4216    0.0000 O   0  0  0  0  0  0  0  0  0  0  0  0
    6.6962    6.3870    0.0000 O   0  0  0  0  0  0  0  0  0  0  0  0
    3.1878    5.3870    0.0000 O   0  0  0  0  0  0  0  0  0  0  0  0
    1.4061    8.4458    0.0000 O   0  0  0  0  0  0  0  0  0  0  0  0
    5.8022    8.9216    0.0000 O   0  0  0  0  0  0  0  0  0  0  0  0
    6.6846    9.4562    0.0000 O   0  0  0  0  0  0  0  0  0  0  0  0
    3.1878    9.4562    0.0000 N   0  0  0  0  0  0  0  0  0  0  0  0
    1.4061    6.3975    0.0000 N   0  0  0  0  0  0  0  0  0  0  0  0
    4.0702    7.9216    0.0000 C   0  0  1  0  0  0  0  0  0  0  0  0
    4.0702    6.9216    0.0000 C   0  0  1  0  0  0  0  0  0  0  0  0
    3.1762    8.4563    0.0000 C   0  0  2  0  0  0  0  0  0  0  0  0
    3.1762    6.3870    0.0000 C   0  0  2  0  0  0  0  0  0  0  0  0
    2.2702    6.9008    0.0000 C   0  0  1  0  0  0  0  0  0  0  0  0
    2.2702    7.9424    0.0000 C   0  0  2  0  0  0  0  0  0  0  0  0
    5.8022    7.9216    0.0000 C   0  0  2  0  0  0  0  0  0  0  0  0
    5.8022    6.9216    0.0000 C   0  0  2  0  0  0  0  0  0  0  0  0
    6.6962    8.4563    0.0000 C   0  0  0  0  0  0  0  0  0  0  0  0
    7.6022    6.9008    0.0000 C   0  0  1  0  0  0  0  0  0  0  0  0
    7.6022    7.9424    0.0000 C   0  0  0  0  0  0  0  0  0  0  0  0
    2.3276    9.9662    0.0000 C   0  0  0  0  0  0  0  0  0  0  0  0
    0.5381    6.8941    0.0000 C   0  0  0  0  0  0  0  0  0  0  0  0
    8.4663    6.3975    0.0000 C   0  0  0  0  0  0  0  0  0  0  0  0
    4.0767    8.7716    0.0000 H   0  0  0  0  0  0  0  0  0  0  0  0
    4.0767    6.0716    0.0000 H   0  0  0  0  0  0  0  0  0  0  0  0
    2.6423    8.7714    0.0000 H   0  0  0  0  0  0  0  0  0  0  0  0
    3.7173    6.0842    0.0000 H   0  0  0  0  0  0  0  0  0  0  0  0
    1.7326    7.2098    0.0000 H   0  0  0  0  0  0  0  0  0  0  0  0
    1.7326    7.6335    0.0000 H   0  0  0  0  0  0  0  0  0  0  0  0
    5.7957    6.0716    0.0000 H   0  0  0  0  0  0  0  0  0  0  0  0
    3.7283    9.7600    0.0000 H   0  0  0  0  0  0  0  0  0  0  0  0
    1.4085    5.7775    0.0000 H   0  0  0  0  0  0  0  0  0  0  0  0
    7.5986    6.2808    0.0000 H   0  0  0  0  0  0  0  0  0  0  0  0
    8.2131    7.8364    0.0000 H   0  0  0  0  0  0  0  0  0  0  0  0
    7.8113    8.5261    0.0000 H   0  0  0  0  0  0  0  0  0  0  0  0
    3.7283    5.0833    0.0000 H   0  0  0  0  0  0  0  0  0  0  0  0
    0.8679    8.1378    0.0000 H   0  0  0  0  0  0  0  0  0  0  0  0
    5.2653    9.2316    0.0000 H   0  0  0  0  0  0  0  0  0  0  0  0
    2.6438   10.4995    0.0000 H   0  0  0  0  0  0  0  0  0  0  0  0
    1.7943   10.2824    0.0000 H   0  0  0  0  0  0  0  0  0  0  0  0
    2.0114    9.4329    0.0000 H   0  0  0  0  0  0  0  0  0  0  0  0
    0.8461    7.4323    0.0000 H   0  0  0  0  0  0  0  0  0  0  0  0
    0.0000    7.2021    0.0000 H   0  0  0  0  0  0  0  0  0  0  0  0
    0.2302    6.3560    0.0000 H   0  0  0  0  0  0  0  0  0  0  0  0
    8.1543    5.8617    0.0000 H   0  0  0  0  0  0  0  0  0  0  0  0
    9.0021    6.0854    0.0000 H   0  0  0  0  0  0  0  0  0  0  0  0
    8.7784    6.9332    0.0000 H   0  0  0  0  0  0  0  0  0  0  0  0
    5.0010    0.0000    0.0000 H   0  0  0  0  0  0  0  0  0  0  0  0
    5.0010    2.5416    0.0000 H   0  0  0  0  0  0  0  0  0  0  0  0
  1 50  1  0  0  0  0
  2 51  1  0  0  0  0
  3 12  1  0  0  0  0
  3 18  1  0  0  0  0
  4 13  1  0  0  0  0
  4 19  1  0  0  0  0
  5 19  1  0  0  0  0
  5 21  1  0  0  0  0
 15  6  1  1  0  0  0
  6 38  1  0  0  0  0
 17  7  1  6  0  0  0
  7 39  1  0  0  0  0
 18  8  1  6  0  0  0
  8 40  1  0  0  0  0
  9 20  2  0  0  0  0
 14 10  1  6  0  0  0
 10 23  1  0  0  0  0
 10 33  1  0  0  0  0
 16 11  1  6  0  0  0
 11 24  1  0  0  0  0
 11 34  1  0  0  0  0
 12 13  1  0  0  0  0
 12 14  1  0  0  0  0
 12 26  1  6  0  0  0
 13 15  1  0  0  0  0
 13 27  1  1  0  0  0
 14 17  1  0  0  0  0
 14 28  1  0  0  0  0
 15 16  1  0  0  0  0
 15 29  1  0  0  0  0
 16 17  1  0  0  0  0
 16 30  1  0  0  0  0
 17 31  1  0  0  0  0
 18 19  1  0  0  0  0
 18 20  1  0  0  0  0
 19 32  1  6  0  0  0
 20 22  1  0  0  0  0
 21 22  1  0  0  0  0
 21 25  1  1  0  0  0
 21 35  1  0  0  0  0
 22 36  1  0  0  0  0
 22 37  1  0  0  0  0
 23 41  1  0  0  0  0
 23 42  1  0  0  0  0
 23 43  1  0  0  0  0
 24 44  1  0  0  0  0
 24 45  1  0  0  0  0
 24 46  1  0  0  0  0
 25 47  1  0  0  0  0
 25 48  1  0  0  0  0
 25 49  1  0  0  0  0
M  END
> <PUBCHEM_COMPOUND_CID>
64740

> <PUBCHEM_COMPOUND_CANONICALIZED>
1

> <PUBCHEM_CACTVS_COMPLEXITY>
478

> <PUBCHEM_CACTVS_HBOND_ACCEPTOR>
9

> <PUBCHEM_CACTVS_HBOND_DONOR>
7

> <PUBCHEM_CACTVS_ROTATABLE_BOND>
2

> <PUBCHEM_CACTVS_SUBSKEYS>
AAADceBzOAAGAAAAAAAAAAAAAAAAAAAAAAA0SIAAAAAAAACQAAAAHgAQCAAACDzxgAcCCALABgAIAIAQAAIAAAAAAAAAAIFIAAATEBYAwAQnQAAHMAAXAAHwcA8AAAAAAAAAAAACgAAUCACgAAAAAAAAAA==

> <PUBCHEM_IUPAC_INCHI>
InChI=1S/C14H24N2O7.2ClH/c1-5-4-6(17)14(20)13(21-5)22-12-10(19)7(15-2)9(18)8(16-3)11(12)23-14;;/h5,7-13,15-16,18-20H,4H2,1-3H3;2*1H/t5-,7-,8+,9+,10+,11-,12-,13+,14+;;/m1../s1

> <PUBCHEM_IUPAC_INCHIKEY>
FOGDPGQSHLLYIK-XYQGXRRISA-N

> <PUBCHEM_EXACT_MASS>
404.111707

> <PUBCHEM_MOLECULAR_FORMULA>
C14H26Cl2N2O7

> <PUBCHEM_MOLECULAR_WEIGHT>
405.27144

> <PUBCHEM_OPENEYE_CAN_SMILES>
CC1CC(=O)C2(C(O1)OC3C(C(C(C(C3O2)NC)O)NC)O)O.Cl.Cl

> <PUBCHEM_OPENEYE_ISO_SMILES>
C[C@@H]1CC(=O)[C@]2([C@@H](O1)O[C@@H]3[C@H]([C@@H]([C@@H]([C@@H]([C@H]3O2)NC)O)NC)O)O.Cl.Cl

> <PUBCHEM_CACTVS_TPSA>
130

> <PUBCHEM_MONOISOTOPIC_WEIGHT>
404.111707

> <PUBCHEM_TOTAL_CHARGE>
0

> <PUBCHEM_HEAVY_ATOM_COUNT>
25

> <PUBCHEM_ATOM_DEF_STEREO_COUNT>
9

> <PUBCHEM_ATOM_UDEF_STEREO_COUNT>
0

> <PUBCHEM_BOND_DEF_STEREO_COUNT>
0

> <PUBCHEM_BOND_UDEF_STEREO_COUNT>
0

> <PUBCHEM_ISOTOPIC_ATOM_COUNT>
0

> <PUBCHEM_COMPONENT_COUNT>
3

> <PUBCHEM_CACTVS_TAUTO_COUNT>
2

> <PUBCHEM_COORDINATE_TYPE>
1
5
255

> <PUBCHEM_BONDANNOTATIONS>
14  10  6
16  11  6
12  26  6
13  27  5
19  32  6
21  25  5
15  6  5
17  7  6
18  8  6

$$$$

