440292
  -OEChem-07051212492D

 76 81  0     1  0  0  0  0  0999 V2000
    5.0474    0.2784    0.0000 P   0  0  3  0  0  0  0  0  0  0  0  0
    5.4104    1.9720    0.0000 P   0  0  3  0  0  0  0  0  0  0  0  0
    6.7410   -0.0846    0.0000 P   0  0  0  0  0  0  0  0  0  0  0  0
    4.4026   -3.1748    0.0000 O   0  0  0  0  0  0  0  0  0  0  0  0
    7.4382    4.3013    0.0000 O   0  0  0  0  0  0  0  0  0  0  0  0
    6.7523   -2.0910    0.0000 O   0  0  0  0  0  0  0  0  0  0  0  0
    6.7485   -4.2666    0.0000 O   0  0  0  0  0  0  0  0  0  0  0  0
    5.3248    5.7944    0.0000 O   0  0  0  0  0  0  0  0  0  0  0  0
    7.2108    6.8789    0.0000 O   0  0  0  0  0  0  0  0  0  0  0  0
    5.3548   -0.6732    0.0000 O   0  0  0  0  0  0  0  0  0  0  0  0
    6.0809    2.7140    0.0000 O   0  0  0  0  0  0  0  0  0  0  0  0
    4.7400    1.2300    0.0000 O   0  0  0  0  0  0  0  0  0  0  0  0
    5.9990    0.5858    0.0000 O   0  0  0  0  0  0  0  0  0  0  0  0
    4.6685    2.6424    0.0000 O   0  0  0  0  0  0  0  0  0  0  0  0
    4.0958   -0.0290    0.0000 O   0  0  0  0  0  0  0  0  0  0  0  0
    6.1524    1.3016    0.0000 O   0  0  0  0  0  0  0  0  0  0  0  0
    7.4114    0.6573    0.0000 O   0  0  0  0  0  0  0  0  0  0  0  0
    7.4830   -0.7551    0.0000 O   0  0  0  0  0  0  0  0  0  0  0  0
    6.0706   -0.8266    0.0000 O   0  0  0  0  0  0  0  0  0  0  0  0
    4.6783   -4.9353    0.0000 N   0  0  0  0  0  0  0  0  0  0  0  0
    8.8251    5.4203    0.0000 N   0  0  0  0  0  0  0  0  0  0  0  0
    4.6783   -6.5448    0.0000 N   0  0  0  0  0  0  0  0  0  0  0  0
   10.4251    5.2466    0.0000 N   0  0  0  0  0  0  0  0  0  0  0  0
    2.8660   -4.7400    0.0000 N   0  0  0  0  0  0  0  0  0  0  0  0
    8.8266    7.2431    0.0000 N   0  0  0  0  0  0  0  0  0  0  0  0
    2.0000   -6.2400    0.0000 N   0  0  0  0  0  0  0  0  0  0  0  0
   10.4114    7.9421    0.0000 N   0  0  0  0  0  0  0  0  0  0  0  0
    2.8660   -7.7400    0.0000 N   0  0  0  0  0  0  0  0  0  0  0  0
   11.8091    6.9192    0.0000 N   0  0  0  0  0  0  0  0  0  0  0  0
    5.9422   -2.6774    0.0000 C   0  0  1  0  0  0  0  0  0  0  0  0
    5.9405   -3.6774    0.0000 C   0  0  2  0  0  0  0  0  0  0  0  0
    4.9917   -2.3668    0.0000 C   0  0  1  0  0  0  0  0  0  0  0  0
    6.2377    5.3860    0.0000 C   0  0  1  0  0  0  0  0  0  0  0  0
    4.9889   -3.9848    0.0000 C   0  0  1  0  0  0  0  0  0  0  0  0
    7.1046    5.8845    0.0000 C   0  0  2  0  0  0  0  0  0  0  0  0
    6.4439    4.4075    0.0000 C   0  0  1  0  0  0  0  0  0  0  0  0
    7.8466    5.2141    0.0000 C   0  0  1  0  0  0  0  0  0  0  0  0
    4.6844   -1.4152    0.0000 C   0  0  0  0  0  0  0  0  0  0  0  0
    5.7735    3.6656    0.0000 C   0  0  0  0  0  0  0  0  0  0  0  0
    3.7320   -5.2400    0.0000 C   0  0  0  0  0  0  0  0  0  0  0  0
    9.2302    6.3281    0.0000 C   0  0  0  0  0  0  0  0  0  0  0  0
    5.2619   -5.7400    0.0000 C   0  0  0  0  0  0  0  0  0  0  0  0
    9.5621    4.7533    0.0000 C   0  0  0  0  0  0  0  0  0  0  0  0
    3.7320   -6.2400    0.0000 C   0  0  0  0  0  0  0  0  0  0  0  0
   10.2243    6.2202    0.0000 C   0  0  0  0  0  0  0  0  0  0  0  0
    2.8660   -6.7400    0.0000 C   0  0  0  0  0  0  0  0  0  0  0  0
   10.8149    7.0271    0.0000 C   0  0  0  0  0  0  0  0  0  0  0  0
    2.0000   -5.2400    0.0000 C   0  0  0  0  0  0  0  0  0  0  0  0
    9.4172    8.0500    0.0000 C   0  0  0  0  0  0  0  0  0  0  0  0
    5.8463   -2.0649    0.0000 H   0  0  0  0  0  0  0  0  0  0  0  0
    6.4934   -3.3969    0.0000 H   0  0  0  0  0  0  0  0  0  0  0  0
    4.3795   -2.2687    0.0000 H   0  0  0  0  0  0  0  0  0  0  0  0
    5.7552    4.9967    0.0000 H   0  0  0  0  0  0  0  0  0  0  0  0
    5.4266   -4.4240    0.0000 H   0  0  0  0  0  0  0  0  0  0  0  0
    6.5852    6.2231    0.0000 H   0  0  0  0  0  0  0  0  0  0  0  0
    6.6651    3.8283    0.0000 H   0  0  0  0  0  0  0  0  0  0  0  0
    8.0081    5.8127    0.0000 H   0  0  0  0  0  0  0  0  0  0  0  0
    4.3035   -0.9260    0.0000 H   0  0  0  0  0  0  0  0  0  0  0  0
    4.1364   -1.7053    0.0000 H   0  0  0  0  0  0  0  0  0  0  0  0
    5.3926    4.1548    0.0000 H   0  0  0  0  0  0  0  0  0  0  0  0
    5.2256    3.3754    0.0000 H   0  0  0  0  0  0  0  0  0  0  0  0
    7.3182   -2.3442    0.0000 H   0  0  0  0  0  0  0  0  0  0  0  0
    7.3154   -4.0154    0.0000 H   0  0  0  0  0  0  0  0  0  0  0  0
    5.2611    6.4111    0.0000 H   0  0  0  0  0  0  0  0  0  0  0  0
    6.7099    7.2442    0.0000 H   0  0  0  0  0  0  0  0  0  0  0  0
    5.8819   -5.7400    0.0000 H   0  0  0  0  0  0  0  0  0  0  0  0
    9.4952    4.1369    0.0000 H   0  0  0  0  0  0  0  0  0  0  0  0
    1.4631   -4.9300    0.0000 H   0  0  0  0  0  0  0  0  0  0  0  0
    9.1670    8.6173    0.0000 H   0  0  0  0  0  0  0  0  0  0  0  0
    4.0785    2.4518    0.0000 H   0  0  0  0  0  0  0  0  0  0  0  0
    2.3291   -8.0500    0.0000 H   0  0  0  0  0  0  0  0  0  0  0  0
    3.4030   -8.0500    0.0000 H   0  0  0  0  0  0  0  0  0  0  0  0
   12.1752    7.4195    0.0000 H   0  0  0  0  0  0  0  0  0  0  0  0
   12.0593    6.3519    0.0000 H   0  0  0  0  0  0  0  0  0  0  0  0
    8.0730   -0.5645    0.0000 H   0  0  0  0  0  0  0  0  0  0  0  0
    8.0176    0.5274    0.0000 H   0  0  0  0  0  0  0  0  0  0  0  0
  1 10  1  0  0  0  0
  1 12  1  0  0  0  0
  1 13  1  0  0  0  0
  1 15  2  0  0  0  0
  2 11  1  0  0  0  0
  2 12  1  0  0  0  0
  2 14  1  0  0  0  0
  2 16  2  0  0  0  0
  3 13  1  0  0  0  0
  3 17  1  0  0  0  0
  3 18  1  0  0  0  0
  3 19  2  0  0  0  0
  4 32  1  0  0  0  0
  4 34  1  0  0  0  0
  5 36  1  0  0  0  0
  5 37  1  0  0  0  0
 30  6  1  1  0  0  0
  6 62  1  0  0  0  0
 31  7  1  1  0  0  0
  7 63  1  0  0  0  0
 33  8  1  1  0  0  0
  8 64  1  0  0  0  0
 35  9  1  1  0  0  0
  9 65  1  0  0  0  0
 10 38  1  0  0  0  0
 11 39  1  0  0  0  0
 14 70  1  0  0  0  0
 17 76  1  0  0  0  0
 18 75  1  0  0  0  0
 34 20  1  6  0  0  0
 20 40  1  0  0  0  0
 20 42  1  0  0  0  0
 37 21  1  6  0  0  0
 21 41  1  0  0  0  0
 21 43  1  0  0  0  0
 22 42  2  0  0  0  0
 22 44  1  0  0  0  0
 23 43  2  0  0  0  0
 23 45  1  0  0  0  0
 24 40  1  0  0  0  0
 24 48  2  0  0  0  0
 25 41  1  0  0  0  0
 25 49  2  0  0  0  0
 26 46  2  0  0  0  0
 26 48  1  0  0  0  0
 27 47  2  0  0  0  0
 27 49  1  0  0  0  0
 28 46  1  0  0  0  0
 28 71  1  0  0  0  0
 28 72  1  0  0  0  0
 29 47  1  0  0  0  0
 29 73  1  0  0  0  0
 29 74  1  0  0  0  0
 30 31  1  0  0  0  0
 30 32  1  0  0  0  0
 30 50  1  0  0  0  0
 31 34  1  0  0  0  0
 31 51  1  0  0  0  0
 32 38  1  6  0  0  0
 32 52  1  0  0  0  0
 33 35  1  0  0  0  0
 33 36  1  0  0  0  0
 33 53  1  0  0  0  0
 34 54  1  0  0  0  0
 35 37  1  0  0  0  0
 35 55  1  0  0  0  0
 36 39  1  6  0  0  0
 36 56  1  0  0  0  0
 37 57  1  0  0  0  0
 38 58  1  0  0  0  0
 38 59  1  0  0  0  0
 39 60  1  0  0  0  0
 39 61  1  0  0  0  0
 40 44  2  0  0  0  0
 41 45  2  0  0  0  0
 42 66  1  0  0  0  0
 43 67  1  0  0  0  0
 44 46  1  0  0  0  0
 45 47  1  0  0  0  0
 48 68  1  0  0  0  0
 49 69  1  0  0  0  0
M  END
> <PUBCHEM_COMPOUND_CID>
440292

> <PUBCHEM_COMPOUND_CANONICALIZED>
1

> <PUBCHEM_CACTVS_COMPLEXITY>
1330

> <PUBCHEM_CACTVS_HBOND_ACCEPTOR>
24

> <PUBCHEM_CACTVS_HBOND_DONOR>
9

> <PUBCHEM_CACTVS_ROTATABLE_BOND>
12

> <PUBCHEM_CACTVS_SUBSKEYS>
AAADceB7/gMAAAAAAAAAAAAAAAAAAWLEiQAsWAAAAAAAAFgB/gAAHgAQCCAACBzhlwYF8L9MFxCgQQZhZICAgC0REKABUCAoVBCDWAJAyEAeRAgPAALTACDwMAIAAAAAAAAAAAAAAAAAAAAAAAAAAAAAAA==

> <PUBCHEM_IUPAC_OPENEYE_NAME>
[[(2R,3S,4R,5R)-5-(6-aminopurin-9-yl)-3,4-dihydroxy-tetrahydrofuran-2-yl]methoxy-hydroxy-phosphoryl] [(2R,3S,4R,5R)-5-(6-aminopurin-9-yl)-3,4-dihydroxy-tetrahydrofuran-2-yl]methyl phosphono phosphate

> <PUBCHEM_IUPAC_CAS_NAME>
phosphoric acid [[(2R,3S,4R,5R)-5-(6-aminopurin-9-yl)-3,4-dihydroxy-2-oxolanyl]methoxy-hydroxyphosphoryl] [(2R,3S,4R,5R)-5-(6-aminopurin-9-yl)-3,4-dihydroxy-2-oxolanyl]methyl phosphono ester

> <PUBCHEM_IUPAC_NAME>
[[(2R,3S,4R,5R)-5-(6-aminopurin-9-yl)-3,4-dihydroxyoxolan-2-yl]methoxy-hydroxyphosphoryl] [(2R,3S,4R,5R)-5-(6-aminopurin-9-yl)-3,4-dihydroxyoxolan-2-yl]methyl phosphono phosphate

> <PUBCHEM_IUPAC_SYSTEMATIC_NAME>
[[(2R,3S,4R,5R)-5-(6-aminopurin-9-yl)-3,4-bis(oxidanyl)oxolan-2-yl]methoxy-oxidanyl-phosphoryl] [(2R,3S,4R,5R)-5-(6-aminopurin-9-yl)-3,4-bis(oxidanyl)oxolan-2-yl]methyl phosphono phosphate

> <PUBCHEM_IUPAC_TRADITIONAL_NAME>
phosphoric acid [[(2R,3S,4R,5R)-5-adenin-9-yl-3,4-dihydroxy-tetrahydrofuran-2-yl]methoxy-hydroxy-phosphoryl] [(2R,3S,4R,5R)-5-adenin-9-yl-3,4-dihydroxy-tetrahydrofuran-2-yl]methyl phosphono ester

> <PUBCHEM_IUPAC_INCHI>
InChI=1S/C20H27N10O16P3/c21-15-9-17(25-3-23-15)29(5-27-9)19-13(33)11(31)7(43-19)1-41-48(38,39)46-49(40,45-47(35,36)37)42-2-8-12(32)14(34)20(44-8)30-6-28-10-16(22)24-4-26-18(10)30/h3-8,11-14,19-20,31-34H,1-2H2,(H,38,39)(H2,21,23,25)(H2,22,24,26)(H2,35,36,37)/t7-,8-,11-,12-,13-,14-,19-,20-,49?/m1/s1

> <PUBCHEM_IUPAC_INCHIKEY>
ARWCWVFBZSAGRB-UWWQKWQGSA-N

> <PUBCHEM_XLOGP3>
-7.2

> <PUBCHEM_EXACT_MASS>
756.081935

> <PUBCHEM_MOLECULAR_FORMULA>
C20H27N10O16P3

> <PUBCHEM_MOLECULAR_WEIGHT>
756.407066

> <PUBCHEM_OPENEYE_CAN_SMILES>
C1=NC2=C(C(=N1)N)N=CN2C3C(C(C(O3)COP(=O)(O)OP(=O)(OCC4C(C(C(O4)N5C=NC6=C5N=CN=C6N)O)O)OP(=O)(O)O)O)O

> <PUBCHEM_OPENEYE_ISO_SMILES>
C1=NC2=C(C(=N1)N)N=CN2[C@H]3[C@@H]([C@@H]([C@H](O3)COP(=O)(O)OP(=O)(OC[C@@H]4[C@H]([C@H]([C@@H](O4)N5C=NC6=C5N=CN=C6N)O)O)OP(=O)(O)O)O)O

> <PUBCHEM_CACTVS_TPSA>
387

> <PUBCHEM_MONOISOTOPIC_WEIGHT>
756.081935

> <PUBCHEM_TOTAL_CHARGE>
0

> <PUBCHEM_HEAVY_ATOM_COUNT>
49

> <PUBCHEM_ATOM_DEF_STEREO_COUNT>
8

> <PUBCHEM_ATOM_UDEF_STEREO_COUNT>
1

> <PUBCHEM_BOND_DEF_STEREO_COUNT>
0

> <PUBCHEM_BOND_UDEF_STEREO_COUNT>
0

> <PUBCHEM_ISOTOPIC_ATOM_COUNT>
0

> <PUBCHEM_COMPONENT_COUNT>
1

> <PUBCHEM_CACTVS_TAUTO_COUNT>
9

> <PUBCHEM_COORDINATE_TYPE>
1
5
255

> <PUBCHEM_BONDANNOTATIONS>
1  10  3
34  20  6
20  40  8
20  42  8
37  21  6
21  41  8
21  43  8
22  42  8
22  44  8
23  43  8
23  45  8
24  40  8
24  48  8
25  41  8
25  49  8
26  46  8
26  48  8
27  47  8
27  49  8
32  38  6
36  39  6
40  44  8
41  45  8
44  46  8
45  47  8
30  6  5
31  7  5
33  8  5
35  9  5

$$$$

