439663
  -OEChem-07051212462D

 44 44  0     1  0  0  0  0  0999 V2000
    6.8671    3.0000    0.0000 O   0  0  0  0  0  0  0  0  0  0  0  0
    4.2690   -0.5000    0.0000 O   0  0  0  0  0  0  0  0  0  0  0  0
    5.1350    3.0000    0.0000 O   0  0  0  0  0  0  0  0  0  0  0  0
    6.0010   -0.5000    0.0000 O   0  0  0  0  0  0  0  0  0  0  0  0
    3.4030    0.0000    0.0000 O   0  0  0  0  0  0  0  0  0  0  0  0
    3.4030   -5.0000    0.0000 O   0  5  0  0  0  0  0  0  0  0  0  0
    5.1350   -5.0000    0.0000 O   0  0  0  0  0  0  0  0  0  0  0  0
    6.0010    1.5000    0.0000 N   0  0  0  0  0  0  0  0  0  0  0  0
    2.5369    1.5000    0.0000 N   0  0  0  0  0  0  0  0  0  0  0  0
    4.2690   -4.5000    0.0000 N   0  3  0  0  0  0  0  0  0  0  0  0
    6.8671    4.0000    0.0000 C   0  0  0  0  0  0  0  0  0  0  0  0
    5.1350    1.0000    0.0000 C   0  0  1  0  0  0  0  0  0  0  0  0
    6.8671    5.0000    0.0000 C   0  0  0  0  0  0  0  0  0  0  0  0
    7.8671    4.0000    0.0000 C   0  0  0  0  0  0  0  0  0  0  0  0
    5.8671    4.0000    0.0000 C   0  0  0  0  0  0  0  0  0  0  0  0
    4.2690    1.5000    0.0000 C   0  0  0  0  0  0  0  0  0  0  0  0
    6.0010    2.5000    0.0000 C   0  0  0  0  0  0  0  0  0  0  0  0
    5.1350    0.0000    0.0000 C   0  0  0  0  0  0  0  0  0  0  0  0
    3.4030    1.0000    0.0000 C   0  0  0  0  0  0  0  0  0  0  0  0
    4.2690   -1.5000    0.0000 C   0  0  0  0  0  0  0  0  0  0  0  0
    3.4030   -2.0000    0.0000 C   0  0  0  0  0  0  0  0  0  0  0  0
    5.1350   -2.0000    0.0000 C   0  0  0  0  0  0  0  0  0  0  0  0
    4.2690   -3.5000    0.0000 C   0  0  0  0  0  0  0  0  0  0  0  0
    3.4030   -3.0000    0.0000 C   0  0  0  0  0  0  0  0  0  0  0  0
    5.1350   -3.0000    0.0000 C   0  0  0  0  0  0  0  0  0  0  0  0
    5.1350    1.6200    0.0000 H   0  0  0  0  0  0  0  0  0  0  0  0
    5.8671    4.6200    0.0000 H   0  0  0  0  0  0  0  0  0  0  0  0
    5.2471    4.0000    0.0000 H   0  0  0  0  0  0  0  0  0  0  0  0
    5.8671    3.3800    0.0000 H   0  0  0  0  0  0  0  0  0  0  0  0
    7.8671    3.3800    0.0000 H   0  0  0  0  0  0  0  0  0  0  0  0
    8.4871    4.0000    0.0000 H   0  0  0  0  0  0  0  0  0  0  0  0
    7.8671    4.6200    0.0000 H   0  0  0  0  0  0  0  0  0  0  0  0
    7.4871    5.0000    0.0000 H   0  0  0  0  0  0  0  0  0  0  0  0
    6.8671    5.6200    0.0000 H   0  0  0  0  0  0  0  0  0  0  0  0
    6.2471    5.0000    0.0000 H   0  0  0  0  0  0  0  0  0  0  0  0
    4.6675    1.9750    0.0000 H   0  0  0  0  0  0  0  0  0  0  0  0
    3.8705    1.9750    0.0000 H   0  0  0  0  0  0  0  0  0  0  0  0
    6.5380    1.1900    0.0000 H   0  0  0  0  0  0  0  0  0  0  0  0
    2.8660   -1.6900    0.0000 H   0  0  0  0  0  0  0  0  0  0  0  0
    5.6720   -1.6900    0.0000 H   0  0  0  0  0  0  0  0  0  0  0  0
    2.0000    1.1900    0.0000 H   0  0  0  0  0  0  0  0  0  0  0  0
    2.5369    2.1200    0.0000 H   0  0  0  0  0  0  0  0  0  0  0  0
    2.8660   -3.3100    0.0000 H   0  0  0  0  0  0  0  0  0  0  0  0
    5.6720   -3.3100    0.0000 H   0  0  0  0  0  0  0  0  0  0  0  0
  1 11  1  0  0  0  0
  1 17  1  0  0  0  0
  2 18  1  0  0  0  0
  2 20  1  0  0  0  0
  3 17  2  0  0  0  0
  4 18  2  0  0  0  0
  5 19  2  0  0  0  0
  6 10  1  0  0  0  0
  7 10  2  0  0  0  0
 12  8  1  6  0  0  0
  8 17  1  0  0  0  0
  8 38  1  0  0  0  0
  9 19  1  0  0  0  0
  9 41  1  0  0  0  0
  9 42  1  0  0  0  0
 10 23  1  0  0  0  0
 11 13  1  0  0  0  0
 11 14  1  0  0  0  0
 11 15  1  0  0  0  0
 12 16  1  0  0  0  0
 12 18  1  0  0  0  0
 12 26  1  0  0  0  0
 13 33  1  0  0  0  0
 13 34  1  0  0  0  0
 13 35  1  0  0  0  0
 14 30  1  0  0  0  0
 14 31  1  0  0  0  0
 14 32  1  0  0  0  0
 15 27  1  0  0  0  0
 15 28  1  0  0  0  0
 15 29  1  0  0  0  0
 16 19  1  0  0  0  0
 16 36  1  0  0  0  0
 16 37  1  0  0  0  0
 20 21  2  0  0  0  0
 20 22  1  0  0  0  0
 21 24  1  0  0  0  0
 21 39  1  0  0  0  0
 22 25  2  0  0  0  0
 22 40  1  0  0  0  0
 23 24  2  0  0  0  0
 23 25  1  0  0  0  0
 24 43  1  0  0  0  0
 25 44  1  0  0  0  0
M  CHG  2   6  -1  10   1
M  END
> <PUBCHEM_COMPOUND_CID>
439663

> <PUBCHEM_COMPOUND_CANONICALIZED>
1

> <PUBCHEM_CACTVS_COMPLEXITY>
516

> <PUBCHEM_CACTVS_HBOND_ACCEPTOR>
7

> <PUBCHEM_CACTVS_HBOND_DONOR>
2

> <PUBCHEM_CACTVS_ROTATABLE_BOND>
8

> <PUBCHEM_CACTVS_SUBSKEYS>
AAADceBzOAAAAAAAAAAAAAAAAAAAAAAAAAAwAAAAAAAAAAABAAAAHgAUAAAADGzBkAQyzoLQRACJACXSWwCCCAAgIgAoiIGObIsOJjqE8buPOiDk1hEY6Ae3QAAAAEAAAAAAAAAAgAAAAAAAAAAAAAAAAA==

> <PUBCHEM_IUPAC_OPENEYE_NAME>
(4-nitrophenyl) (2S)-4-amino-2-(tert-butoxycarbonylamino)-4-oxo-butanoate

> <PUBCHEM_IUPAC_CAS_NAME>
(2S)-4-amino-2-[[(2-methylpropan-2-yl)oxy-oxomethyl]amino]-4-oxobutanoic acid (4-nitrophenyl) ester

> <PUBCHEM_IUPAC_NAME>
(4-nitrophenyl) (2S)-4-amino-2-[(2-methylpropan-2-yl)oxycarbonylamino]-4-oxobutanoate

> <PUBCHEM_IUPAC_SYSTEMATIC_NAME>
(4-nitrophenyl) (2S)-4-azanyl-2-[(2-methylpropan-2-yl)oxycarbonylamino]-4-oxidanylidene-butanoate

> <PUBCHEM_IUPAC_TRADITIONAL_NAME>
(2S)-4-amino-2-(tert-butoxycarbonylamino)-4-keto-butyric acid (4-nitrophenyl) ester

> <PUBCHEM_IUPAC_INCHI>
InChI=1S/C15H19N3O7/c1-15(2,3)25-14(21)17-11(8-12(16)19)13(20)24-10-6-4-9(5-7-10)18(22)23/h4-7,11H,8H2,1-3H3,(H2,16,19)(H,17,21)/t11-/m0/s1

> <PUBCHEM_IUPAC_INCHIKEY>
IAPXDJMULQXGDD-NSHDSACASA-N

> <PUBCHEM_XLOGP3_AA>
1.1

> <PUBCHEM_EXACT_MASS>
353.1223

> <PUBCHEM_MOLECULAR_FORMULA>
C15H19N3O7

> <PUBCHEM_MOLECULAR_WEIGHT>
353.32726

> <PUBCHEM_OPENEYE_CAN_SMILES>
CC(C)(C)OC(=O)NC(CC(=O)N)C(=O)OC1=CC=C(C=C1)[N+](=O)[O-]

> <PUBCHEM_OPENEYE_ISO_SMILES>
CC(C)(C)OC(=O)N[C@@H](CC(=O)N)C(=O)OC1=CC=C(C=C1)[N+](=O)[O-]

> <PUBCHEM_CACTVS_TPSA>
154

> <PUBCHEM_MONOISOTOPIC_WEIGHT>
353.1223

> <PUBCHEM_TOTAL_CHARGE>
0

> <PUBCHEM_HEAVY_ATOM_COUNT>
25

> <PUBCHEM_ATOM_DEF_STEREO_COUNT>
1

> <PUBCHEM_ATOM_UDEF_STEREO_COUNT>
0

> <PUBCHEM_BOND_DEF_STEREO_COUNT>
0

> <PUBCHEM_BOND_UDEF_STEREO_COUNT>
0

> <PUBCHEM_ISOTOPIC_ATOM_COUNT>
0

> <PUBCHEM_COMPONENT_COUNT>
1

> <PUBCHEM_CACTVS_TAUTO_COUNT>
6

> <PUBCHEM_COORDINATE_TYPE>
1
5
255

> <PUBCHEM_BONDANNOTATIONS>
20  21  8
20  22  8
21  24  8
22  25  8
23  24  8
23  25  8
12  8  6

$$$$

