   Color/Form
        Crystals from benzene
   from [1]HSDB

   Melting Point
        126-127 deg C
   from [2]HSDB

   Dissociation Constants
        pKa = 7.97 (est)
   from [3]HSDB

   Solubilities
        Fairly soluble in hot water; freely soluble in alcohol, acetone,
   chloroform. Less sol in benzene, ether.
   from [4]HSDB

   Spectral Properties
        Specific optical rotation = -118.7 deg at 20 deg C/D ( c = 1.378
   g/100 ml in benzene)
   from [5]HSDB

   Other Chemical/Physical Properties

     * Monoacidic base
     * Crystals from water; decomposition 256-257 deg C. Sparingly sol in
       cold; more sol in hot water. Very sparingly sol in alcohol,
       acetone. /Hydrochloride/
     * Crystals from water; dec 246-247 deg C. Specific optical rotation =
       -93.1 deg at 20 deg C/D ( c = 0.1015 g/100 ml in 15 mL H2O)
       /Hydrobromide/
     * White to almost white powder ... sparingly soluble in water
       /Hydrobromide/

   from [6]HSDB

   Computed Properties
   Molecular Weight                  287.35354 [g/mol]
   Molecular Formula                 C[17]H[21]NO[3]
   XLogP3-AA                         1.8
   H-Bond Donor                      1
   H-Bond Acceptor                   4
   Rotatable Bond Count              1
   Exact Mass                        287.152144
   MonoIsotopic Mass                 287.152144
   Topological Polar Surface Area    41.9
   Heavy Atom Count                  21
   Formal Charge                     0
   Complexity                        440
   Isotope Atom Count                0
   Defined Atom Stereocenter Count   3
   Undefined Atom Stereocenter Count 0
   Defined Bond Stereocenter Count   0
   Undefined Bond Stereocenter Count 0
   Covalently-Bonded Unit Count      1
   Feature 3D Acceptor Count         3
   Feature 3D Donor Count            1
   Feature 3D Cation Count           1
   Feature 3D Ring Count             4
   Effective Rotor Count             2.4
   Conformer Sampling RMSD           0.6
   CID Conformer Count               [7]4

References

   1. http://toxnet.nlm.nih.gov/cgi-bin/sis/search/r?dbs+hsdb:@term+@rn+@rel+357-70-0
   2. http://toxnet.nlm.nih.gov/cgi-bin/sis/search/r?dbs+hsdb:@term+@rn+@rel+357-70-0
   3. http://toxnet.nlm.nih.gov/cgi-bin/sis/search/r?dbs+hsdb:@term+@rn+@rel+357-70-0
   4. http://toxnet.nlm.nih.gov/cgi-bin/sis/search/r?dbs+hsdb:@term+@rn+@rel+357-70-0
   5. http://toxnet.nlm.nih.gov/cgi-bin/sis/search/r?dbs+hsdb:@term+@rn+@rel+357-70-0
   6. http://toxnet.nlm.nih.gov/cgi-bin/sis/search/r?dbs+hsdb:@term+@rn+@rel+357-70-0
   7. http://pubchem.ncbi.nlm.nih.gov/vw3d/vw3d.cgi?cid=9651
