21117640
  -OEChem-07051213112D

 73 76  0     1  0  0  0  0  0999 V2000
   10.4586   -1.3776    0.0000 O   0  0  0  0  0  0  0  0  0  0  0  0
    2.5357   -3.9299    0.0000 O   0  0  0  0  0  0  0  0  0  0  0  0
   10.8321   -0.1604    0.0000 O   0  0  0  0  0  0  0  0  0  0  0  0
   13.0532    3.8479    0.0000 O   0  0  0  0  0  0  0  0  0  0  0  0
    7.9288   -0.8776    0.0000 C   0  0  1  0  0  0  0  0  0  0  0  0
    7.9288   -1.8776    0.0000 C   0  0  2  0  0  0  0  0  0  0  0  0
    7.0628   -2.3776    0.0000 C   0  0  1  0  0  0  0  0  0  0  0  0
    6.1968   -1.8776    0.0000 C   0  0  1  0  0  0  0  0  0  0  0  0
    5.2868   -2.3844    0.0000 C   0  0  2  0  0  0  0  0  0  0  0  0
    8.8750   -0.5728    0.0000 C   0  0  2  0  0  0  0  0  0  0  0  0
    7.0628   -0.3776    0.0000 C   0  0  0  0  0  0  0  0  0  0  0  0
    6.1968   -0.8776    0.0000 C   0  0  0  0  0  0  0  0  0  0  0  0
    8.8750   -2.1823    0.0000 C   0  0  0  0  0  0  0  0  0  0  0  0
    7.0789   -3.4191    0.0000 C   0  0  0  0  0  0  0  0  0  0  0  0
    9.4586   -1.3776    0.0000 C   0  0  0  0  0  0  0  0  0  0  0  0
    5.2787   -3.4260    0.0000 C   0  0  0  0  0  0  0  0  0  0  0  0
    7.9288    0.1224    0.0000 C   0  0  0  0  0  0  0  0  0  0  0  0
    4.3599   -1.8203    0.0000 C   0  0  0  0  0  0  0  0  0  0  0  0
    9.1857    0.3777    0.0000 C   0  0  2  0  0  0  0  0  0  0  0  0
    6.1808   -3.9468    0.0000 C   0  0  0  0  0  0  0  0  0  0  0  0
    5.2945   -1.3844    0.0000 C   0  0  0  0  0  0  0  0  0  0  0  0
    4.3433   -3.9758    0.0000 C   0  0  0  0  0  0  0  0  0  0  0  0
    3.4120   -2.3483    0.0000 C   0  0  0  0  0  0  0  0  0  0  0  0
    3.4037   -3.4332    0.0000 C   0  0  2  0  0  0  0  0  0  0  0  0
    8.5179    1.1220    0.0000 C   0  0  0  0  0  0  0  0  0  0  0  0
   10.1642    0.5839    0.0000 C   0  0  0  0  0  0  0  0  0  0  0  0
   10.4749    1.5344    0.0000 C   0  0  0  0  0  0  0  0  0  0  0  0
   11.4534    1.7406    0.0000 C   0  0  0  0  0  0  0  0  0  0  0  0
   11.7640    2.6912    0.0000 C   0  0  2  0  0  0  0  0  0  0  0  0
   12.7425    2.8974    0.0000 C   0  0  0  0  0  0  0  0  0  0  0  0
   11.0962    3.4354    0.0000 C   0  0  0  0  0  0  0  0  0  0  0  0
    8.0188   -2.7228    0.0000 H   0  0  0  0  0  0  0  0  0  0  0  0
    7.8022   -2.7969    0.0000 H   0  0  0  0  0  0  0  0  0  0  0  0
    6.9329   -1.4526    0.0000 H   0  0  0  0  0  0  0  0  0  0  0  0
    9.7148   -0.4410    0.0000 H   0  0  0  0  0  0  0  0  0  0  0  0
    7.4613    0.0974    0.0000 H   0  0  0  0  0  0  0  0  0  0  0  0
    6.6643    0.0974    0.0000 H   0  0  0  0  0  0  0  0  0  0  0  0
    5.9847   -0.2950    0.0000 H   0  0  0  0  0  0  0  0  0  0  0  0
    5.5862   -0.9852    0.0000 H   0  0  0  0  0  0  0  0  0  0  0  0
    8.6240   -2.7492    0.0000 H   0  0  0  0  0  0  0  0  0  0  0  0
    9.4124   -2.4915    0.0000 H   0  0  0  0  0  0  0  0  0  0  0  0
    7.2969   -3.9995    0.0000 H   0  0  0  0  0  0  0  0  0  0  0  0
    7.6880   -3.3036    0.0000 H   0  0  0  0  0  0  0  0  0  0  0  0
    8.5488    0.1224    0.0000 H   0  0  0  0  0  0  0  0  0  0  0  0
    7.9288    0.7424    0.0000 H   0  0  0  0  0  0  0  0  0  0  0  0
    7.3088    0.1224    0.0000 H   0  0  0  0  0  0  0  0  0  0  0  0
    4.7681   -1.3537    0.0000 H   0  0  0  0  0  0  0  0  0  0  0  0
    3.9700   -1.3383    0.0000 H   0  0  0  0  0  0  0  0  0  0  0  0
    9.3783    0.9670    0.0000 H   0  0  0  0  0  0  0  0  0  0  0  0
    6.1832   -4.5668    0.0000 H   0  0  0  0  0  0  0  0  0  0  0  0
    5.9145   -1.3892    0.0000 H   0  0  0  0  0  0  0  0  0  0  0  0
    5.2993   -0.7645    0.0000 H   0  0  0  0  0  0  0  0  0  0  0  0
    4.6745   -1.3797    0.0000 H   0  0  0  0  0  0  0  0  0  0  0  0
    3.9460   -4.4517    0.0000 H   0  0  0  0  0  0  0  0  0  0  0  0
    4.7443   -4.4486    0.0000 H   0  0  0  0  0  0  0  0  0  0  0  0
    3.2075   -1.7630    0.0000 H   0  0  0  0  0  0  0  0  0  0  0  0
    2.8004   -2.4497    0.0000 H   0  0  0  0  0  0  0  0  0  0  0  0
    3.4025   -4.0532    0.0000 H   0  0  0  0  0  0  0  0  0  0  0  0
    8.9793    1.5360    0.0000 H   0  0  0  0  0  0  0  0  0  0  0  0
    8.1038    1.5834    0.0000 H   0  0  0  0  0  0  0  0  0  0  0  0
    8.0564    0.7079    0.0000 H   0  0  0  0  0  0  0  0  0  0  0  0
   10.4543    2.1541    0.0000 H   0  0  0  0  0  0  0  0  0  0  0  0
    9.8611    1.6218    0.0000 H   0  0  0  0  0  0  0  0  0  0  0  0
    2.0000   -3.6178    0.0000 H   0  0  0  0  0  0  0  0  0  0  0  0
   11.4739    1.1210    0.0000 H   0  0  0  0  0  0  0  0  0  0  0  0
   12.0672    1.6533    0.0000 H   0  0  0  0  0  0  0  0  0  0  0  0
   11.9567    3.2805    0.0000 H   0  0  0  0  0  0  0  0  0  0  0  0
   12.7631    2.2777    0.0000 H   0  0  0  0  0  0  0  0  0  0  0  0
   13.3564    2.8100    0.0000 H   0  0  0  0  0  0  0  0  0  0  0  0
   11.5577    3.8495    0.0000 H   0  0  0  0  0  0  0  0  0  0  0  0
   10.6821    3.8969    0.0000 H   0  0  0  0  0  0  0  0  0  0  0  0
   10.6347    3.0214    0.0000 H   0  0  0  0  0  0  0  0  0  0  0  0
   13.6599    3.9758    0.0000 H   0  0  0  0  0  0  0  0  0  0  0  0
  1 15  2  0  0  0  0
 24  2  1  1  0  0  0
  2 64  1  0  0  0  0
  3 26  2  0  0  0  0
  4 30  1  0  0  0  0
  4 73  1  0  0  0  0
  5  6  1  0  0  0  0
  5 10  1  0  0  0  0
  5 11  1  0  0  0  0
  5 17  1  1  0  0  0
  6  7  1  0  0  0  0
  6 13  1  0  0  0  0
  6 32  1  6  0  0  0
  7  8  1  0  0  0  0
  7 14  1  0  0  0  0
  7 33  1  1  0  0  0
  8  9  1  0  0  0  0
  8 12  1  0  0  0  0
  8 34  1  6  0  0  0
  9 16  1  0  0  0  0
  9 18  1  0  0  0  0
  9 21  1  1  0  0  0
 10 15  1  0  0  0  0
 10 19  1  0  0  0  0
 10 35  1  6  0  0  0
 11 12  1  0  0  0  0
 11 36  1  0  0  0  0
 11 37  1  0  0  0  0
 12 38  1  0  0  0  0
 12 39  1  0  0  0  0
 13 15  1  0  0  0  0
 13 40  1  0  0  0  0
 13 41  1  0  0  0  0
 14 20  1  0  0  0  0
 14 42  1  0  0  0  0
 14 43  1  0  0  0  0
 16 20  2  0  0  0  0
 16 22  1  0  0  0  0
 17 44  1  0  0  0  0
 17 45  1  0  0  0  0
 17 46  1  0  0  0  0
 18 23  1  0  0  0  0
 18 47  1  0  0  0  0
 18 48  1  0  0  0  0
 19 25  1  6  0  0  0
 19 26  1  0  0  0  0
 19 49  1  0  0  0  0
 20 50  1  0  0  0  0
 21 51  1  0  0  0  0
 21 52  1  0  0  0  0
 21 53  1  0  0  0  0
 22 24  1  0  0  0  0
 22 54  1  0  0  0  0
 22 55  1  0  0  0  0
 23 24  1  0  0  0  0
 23 56  1  0  0  0  0
 23 57  1  0  0  0  0
 24 58  1  0  0  0  0
 25 59  1  0  0  0  0
 25 60  1  0  0  0  0
 25 61  1  0  0  0  0
 26 27  1  0  0  0  0
 27 28  1  0  0  0  0
 27 62  1  0  0  0  0
 27 63  1  0  0  0  0
 28 29  1  0  0  0  0
 28 65  1  0  0  0  0
 28 66  1  0  0  0  0
 29 30  1  0  0  0  0
 29 31  1  1  0  0  0
 29 67  1  0  0  0  0
 30 68  1  0  0  0  0
 30 69  1  0  0  0  0
 31 70  1  0  0  0  0
 31 71  1  0  0  0  0
 31 72  1  0  0  0  0
M  END
> <PUBCHEM_COMPOUND_CID>
21117640

> <PUBCHEM_COMPOUND_CANONICALIZED>
1

> <PUBCHEM_CACTVS_COMPLEXITY>
756

> <PUBCHEM_CACTVS_HBOND_ACCEPTOR>
4

> <PUBCHEM_CACTVS_HBOND_DONOR>
2

> <PUBCHEM_CACTVS_ROTATABLE_BOND>
6

> <PUBCHEM_CACTVS_SUBSKEYS>
AAADcfB4OAAAAAAAAAAAAAAAAAAAAYAAAAAwYIAAAAAAAGCAAAAAGgAACAAADxSggAICAAAAAgCIAqBSAAAAAAAgAAAACAEAAAgAEBIAAQAAQAAEwAAIAAOJzPCPgAAAAAAAAADAAAQAACAAAQAACAAAAA==

> <PUBCHEM_IUPAC_OPENEYE_NAME>
(3S,8S,9S,10R,13S,14S,17R)-3-hydroxy-17-[(1S,5R)-6-hydroxy-1,5-dimethyl-2-oxo-hexyl]-10,13-dimethyl-1,2,3,4,7,8,9,11,12,14,15,17-dodecahydrocyclopenta[a]phenanthren-16-one

> <PUBCHEM_IUPAC_CAS_NAME>
(3S,8S,9S,10R,13S,14S,17R)-3-hydroxy-17-[(2S,6R)-7-hydroxy-6-methyl-3-oxoheptan-2-yl]-10,13-dimethyl-1,2,3,4,7,8,9,11,12,14,15,17-dodecahydrocyclopenta[a]phenanthren-16-one

> <PUBCHEM_IUPAC_NAME>
(3S,8S,9S,10R,13S,14S,17R)-3-hydroxy-17-[(2S,6R)-7-hydroxy-6-methyl-3-oxoheptan-2-yl]-10,13-dimethyl-1,2,3,4,7,8,9,11,12,14,15,17-dodecahydrocyclopenta[a]phenanthren-16-one

> <PUBCHEM_IUPAC_SYSTEMATIC_NAME>
(3S,8S,9S,10R,13S,14S,17R)-10,13-dimethyl-17-[(2S,6R)-6-methyl-7-oxidanyl-3-oxidanylidene-heptan-2-yl]-3-oxidanyl-1,2,3,4,7,8,9,11,12,14,15,17-dodecahydrocyclopenta[a]phenanthren-16-one

> <PUBCHEM_IUPAC_TRADITIONAL_NAME>
(3S,8S,9S,10R,13S,14S,17R)-3-hydroxy-17-[(1S,5R)-6-hydroxy-2-keto-1,5-dimethyl-hexyl]-10,13-dimethyl-1,2,3,4,7,8,9,11,12,14,15,17-dodecahydrocyclopenta[a]phenanthren-16-one

> <PUBCHEM_IUPAC_INCHI>
InChI=1S/C27H42O4/c1-16(15-28)5-8-23(30)17(2)25-24(31)14-22-20-7-6-18-13-19(29)9-11-26(18,3)21(20)10-12-27(22,25)4/h6,16-17,19-22,25,28-29H,5,7-15H2,1-4H3/t16-,17-,19+,20-,21+,22+,25+,26+,27+/m1/s1

> <PUBCHEM_IUPAC_INCHIKEY>
GDKGOXUWEBGZBY-WQTURIIHSA-N

> <PUBCHEM_XLOGP3_AA>
3.8

> <PUBCHEM_EXACT_MASS>
430.30831

> <PUBCHEM_MOLECULAR_FORMULA>
C27H42O4

> <PUBCHEM_MOLECULAR_WEIGHT>
430.61998

> <PUBCHEM_OPENEYE_CAN_SMILES>
CC(CCC(=O)C(C)C1C(=O)CC2C1(CCC3C2CC=C4C3(CCC(C4)O)C)C)CO

> <PUBCHEM_OPENEYE_ISO_SMILES>
C[C@H](CCC(=O)[C@@H](C)[C@H]1C(=O)C[C@@H]2[C@@]1(CC[C@H]3[C@H]2CC=C4[C@@]3(CC[C@@H](C4)O)C)C)CO

> <PUBCHEM_CACTVS_TPSA>
74.6

> <PUBCHEM_MONOISOTOPIC_WEIGHT>
430.30831

> <PUBCHEM_TOTAL_CHARGE>
0

> <PUBCHEM_HEAVY_ATOM_COUNT>
31

> <PUBCHEM_ATOM_DEF_STEREO_COUNT>
9

> <PUBCHEM_ATOM_UDEF_STEREO_COUNT>
0

> <PUBCHEM_BOND_DEF_STEREO_COUNT>
0

> <PUBCHEM_BOND_UDEF_STEREO_COUNT>
0

> <PUBCHEM_ISOTOPIC_ATOM_COUNT>
0

> <PUBCHEM_COMPONENT_COUNT>
1

> <PUBCHEM_CACTVS_TAUTO_COUNT>
9

> <PUBCHEM_COORDINATE_TYPE>
1
5
255

> <PUBCHEM_BONDANNOTATIONS>
10  35  6
19  25  6
24  2  5
29  31  5
5  17  5
6  32  6
7  33  5
8  34  6
9  21  5

$$$$

