13019099
  -OEChem-07051213102D

 55 56  0     1  0  0  0  0  0999 V2000
    7.1962    0.9400    0.0000 O   0  0  0  0  0  0  0  0  0  0  0  0
    7.1962   -3.0600    0.0000 O   0  0  0  0  0  0  0  0  0  0  0  0
    5.4641    0.9400    0.0000 O   0  0  0  0  0  0  0  0  0  0  0  0
    5.4641   -0.0600    0.0000 O   0  0  0  0  0  0  0  0  0  0  0  0
    5.4641   -2.0600    0.0000 N   0  0  0  0  0  0  0  0  0  0  0  0
    8.9282   -0.0600    0.0000 N   0  0  0  0  0  0  0  0  0  0  0  0
    7.1962    2.9400    0.0000 N   0  0  0  0  0  0  0  0  0  0  0  0
    2.8660    1.4400    0.0000 N   0  0  0  0  0  0  0  0  0  0  0  0
    7.1962   -0.0600    0.0000 C   0  0  1  0  0  0  0  0  0  0  0  0
    6.3301   -1.5600    0.0000 C   0  0  1  0  0  0  0  0  0  0  0  0
    6.3301   -0.5600    0.0000 C   0  0  1  0  0  0  0  0  0  0  0  0
    8.0622   -0.5600    0.0000 C   0  0  2  0  0  0  0  0  0  0  0  0
    7.1962   -2.0600    0.0000 C   0  0  2  0  0  0  0  0  0  0  0  0
    8.0622   -1.5600    0.0000 C   0  0  0  0  0  0  0  0  0  0  0  0
    6.3301    1.4400    0.0000 C   0  0  1  0  0  0  0  0  0  0  0  0
    6.3301    2.4400    0.0000 C   0  0  1  0  0  0  0  0  0  0  0  0
    5.4641    2.9400    0.0000 C   0  0  0  0  0  0  0  0  0  0  0  0
    4.5981    1.4400    0.0000 C   0  0  1  0  0  0  0  0  0  0  0  0
    4.5981    2.4400    0.0000 C   0  0  0  0  0  0  0  0  0  0  0  0
    3.7320    0.9400    0.0000 C   0  0  0  0  0  0  0  0  0  0  0  0
    5.4641   -3.0600    0.0000 C   0  0  0  0  0  0  0  0  0  0  0  0
    8.0622   -3.5600    0.0000 C   0  0  0  0  0  0  0  0  0  0  0  0
    2.0000    0.9400    0.0000 C   0  0  0  0  0  0  0  0  0  0  0  0
    6.6592    0.2500    0.0000 H   0  0  0  0  0  0  0  0  0  0  0  0
    5.7932   -1.2500    0.0000 H   0  0  0  0  0  0  0  0  0  0  0  0
    5.7932   -0.8700    0.0000 H   0  0  0  0  0  0  0  0  0  0  0  0
    8.0622    0.0600    0.0000 H   0  0  0  0  0  0  0  0  0  0  0  0
    6.6592   -2.3700    0.0000 H   0  0  0  0  0  0  0  0  0  0  0  0
    8.2742   -2.1426    0.0000 H   0  0  0  0  0  0  0  0  0  0  0  0
    8.6728   -1.4523    0.0000 H   0  0  0  0  0  0  0  0  0  0  0  0
    6.8671    1.7500    0.0000 H   0  0  0  0  0  0  0  0  0  0  0  0
    6.8671    2.1300    0.0000 H   0  0  0  0  0  0  0  0  0  0  0  0
    5.8626    3.4150    0.0000 H   0  0  0  0  0  0  0  0  0  0  0  0
    5.0656    3.4150    0.0000 H   0  0  0  0  0  0  0  0  0  0  0  0
    4.9272   -1.7500    0.0000 H   0  0  0  0  0  0  0  0  0  0  0  0
    4.5981    0.8200    0.0000 H   0  0  0  0  0  0  0  0  0  0  0  0
    4.3860    3.0226    0.0000 H   0  0  0  0  0  0  0  0  0  0  0  0
    3.9875    2.3323    0.0000 H   0  0  0  0  0  0  0  0  0  0  0  0
    9.4651   -0.3700    0.0000 H   0  0  0  0  0  0  0  0  0  0  0  0
    8.9282    0.5600    0.0000 H   0  0  0  0  0  0  0  0  0  0  0  0
    4.9272   -0.3700    0.0000 H   0  0  0  0  0  0  0  0  0  0  0  0
    3.3335    0.4651    0.0000 H   0  0  0  0  0  0  0  0  0  0  0  0
    4.1306    0.4651    0.0000 H   0  0  0  0  0  0  0  0  0  0  0  0
    4.8441   -3.0600    0.0000 H   0  0  0  0  0  0  0  0  0  0  0  0
    5.4641   -3.6800    0.0000 H   0  0  0  0  0  0  0  0  0  0  0  0
    6.0841   -3.0600    0.0000 H   0  0  0  0  0  0  0  0  0  0  0  0
    7.1962    3.5600    0.0000 H   0  0  0  0  0  0  0  0  0  0  0  0
    7.7331    2.6300    0.0000 H   0  0  0  0  0  0  0  0  0  0  0  0
    7.7522   -4.0969    0.0000 H   0  0  0  0  0  0  0  0  0  0  0  0
    8.5991   -3.8700    0.0000 H   0  0  0  0  0  0  0  0  0  0  0  0
    8.3722   -3.0231    0.0000 H   0  0  0  0  0  0  0  0  0  0  0  0
    2.8660    2.0600    0.0000 H   0  0  0  0  0  0  0  0  0  0  0  0
    1.6900    1.4769    0.0000 H   0  0  0  0  0  0  0  0  0  0  0  0
    1.4631    0.6300    0.0000 H   0  0  0  0  0  0  0  0  0  0  0  0
    2.3100    0.4031    0.0000 H   0  0  0  0  0  0  0  0  0  0  0  0
  9  1  1  6  0  0  0
 15  1  1  1  0  0  0
 13  2  1  6  0  0  0
  2 22  1  0  0  0  0
  3 15  1  0  0  0  0
  3 18  1  0  0  0  0
 11  4  1  1  0  0  0
  4 41  1  0  0  0  0
 10  5  1  1  0  0  0
  5 21  1  0  0  0  0
  5 35  1  0  0  0  0
 12  6  1  1  0  0  0
  6 39  1  0  0  0  0
  6 40  1  0  0  0  0
 16  7  1  1  0  0  0
  7 47  1  0  0  0  0
  7 48  1  0  0  0  0
  8 20  1  0  0  0  0
  8 23  1  0  0  0  0
  8 52  1  0  0  0  0
  9 11  1  0  0  0  0
  9 12  1  0  0  0  0
  9 24  1  0  0  0  0
 10 11  1  0  0  0  0
 10 13  1  0  0  0  0
 10 25  1  0  0  0  0
 11 26  1  0  0  0  0
 12 14  1  0  0  0  0
 12 27  1  0  0  0  0
 13 14  1  0  0  0  0
 13 28  1  0  0  0  0
 14 29  1  0  0  0  0
 14 30  1  0  0  0  0
 15 16  1  0  0  0  0
 15 31  1  0  0  0  0
 16 17  1  0  0  0  0
 16 32  1  0  0  0  0
 17 19  1  0  0  0  0
 17 33  1  0  0  0  0
 17 34  1  0  0  0  0
 18 19  1  0  0  0  0
 18 20  1  6  0  0  0
 18 36  1  0  0  0  0
 19 37  1  0  0  0  0
 19 38  1  0  0  0  0
 20 42  1  0  0  0  0
 20 43  1  0  0  0  0
 21 44  1  0  0  0  0
 21 45  1  0  0  0  0
 21 46  1  0  0  0  0
 22 49  1  0  0  0  0
 22 50  1  0  0  0  0
 22 51  1  0  0  0  0
 23 53  1  0  0  0  0
 23 54  1  0  0  0  0
 23 55  1  0  0  0  0
M  END
> <PUBCHEM_COMPOUND_CID>
13019099

> <PUBCHEM_COMPOUND_CANONICALIZED>
1

> <PUBCHEM_CACTVS_COMPLEXITY>
362

> <PUBCHEM_CACTVS_HBOND_ACCEPTOR>
8

> <PUBCHEM_CACTVS_HBOND_DONOR>
5

> <PUBCHEM_CACTVS_ROTATABLE_BOND>
6

> <PUBCHEM_CACTVS_SUBSKEYS>
AAADcfBzuAAAAAAAAAAAAAAAAAAAAAAAAAA0QAAAAAAAAAAAAAAAHgAQCAAACDzxgAcCCALABgAAAAAAAAAAAAAAAAAAAIAIAAATEAIAgAAnQAAHEAAXAAHwcA8AAAAAAAAAAAACAQAUAACgAAAAAAAAAA==

> <PUBCHEM_IUPAC_OPENEYE_NAME>
(1R,2R,3S,5S,6S)-3-amino-2-[(2R,3R,6S)-3-amino-6-(methylaminomethyl)tetrahydropyran-2-yl]oxy-5-methoxy-6-(methylamino)cyclohexanol

> <PUBCHEM_IUPAC_CAS_NAME>
(1R,2R,3S,5S,6S)-3-amino-2-[[(2R,3R,6S)-3-amino-6-(methylaminomethyl)-2-oxanyl]oxy]-5-methoxy-6-(methylamino)-1-cyclohexanol

> <PUBCHEM_IUPAC_NAME>
(1R,2R,3S,5S,6S)-3-amino-2-[(2R,3R,6S)-3-amino-6-(methylaminomethyl)oxan-2-yl]oxy-5-methoxy-6-(methylamino)cyclohexan-1-ol

> <PUBCHEM_IUPAC_SYSTEMATIC_NAME>
(1R,2R,3S,5S,6S)-3-azanyl-2-[(2R,3R,6S)-3-azanyl-6-(methylaminomethyl)oxan-2-yl]oxy-5-methoxy-6-(methylamino)cyclohexan-1-ol

> <PUBCHEM_IUPAC_TRADITIONAL_NAME>
(1R,2R,3S,5S,6S)-3-amino-2-[(2R,3R,6S)-3-amino-6-(methylaminomethyl)tetrahydropyran-2-yl]oxy-5-methoxy-6-(methylamino)cyclohexanol

> <PUBCHEM_IUPAC_INCHI>
InChI=1S/C15H32N4O4/c1-18-7-8-4-5-9(16)15(22-8)23-14-10(17)6-11(21-3)12(19-2)13(14)20/h8-15,18-20H,4-7,16-17H2,1-3H3/t8-,9+,10-,11-,12+,13+,14+,15+/m0/s1

> <PUBCHEM_IUPAC_INCHIKEY>
GKYYNFPFPFRFFN-LHPGNBRISA-N

> <PUBCHEM_XLOGP3_AA>
-2.4

> <PUBCHEM_EXACT_MASS>
332.242356

> <PUBCHEM_MOLECULAR_FORMULA>
C15H32N4O4

> <PUBCHEM_MOLECULAR_WEIGHT>
332.43898

> <PUBCHEM_OPENEYE_CAN_SMILES>
CNCC1CCC(C(O1)OC2C(CC(C(C2O)NC)OC)N)N

> <PUBCHEM_OPENEYE_ISO_SMILES>
CNC[C@@H]1CC[C@H]([C@H](O1)O[C@@H]2[C@H](C[C@@H]([C@H]([C@H]2O)NC)OC)N)N

> <PUBCHEM_CACTVS_TPSA>
124

> <PUBCHEM_MONOISOTOPIC_WEIGHT>
332.242356

> <PUBCHEM_TOTAL_CHARGE>
0

> <PUBCHEM_HEAVY_ATOM_COUNT>
23

> <PUBCHEM_ATOM_DEF_STEREO_COUNT>
8

> <PUBCHEM_ATOM_UDEF_STEREO_COUNT>
0

> <PUBCHEM_BOND_DEF_STEREO_COUNT>
0

> <PUBCHEM_BOND_UDEF_STEREO_COUNT>
0

> <PUBCHEM_ISOTOPIC_ATOM_COUNT>
0

> <PUBCHEM_COMPONENT_COUNT>
1

> <PUBCHEM_CACTVS_TAUTO_COUNT>
1

> <PUBCHEM_COORDINATE_TYPE>
1
5
255

> <PUBCHEM_BONDANNOTATIONS>
15  1  5
9  1  6
18  20  6
13  2  6
11  4  5
10  5  5
12  6  5
16  7  5

$$$$

