643775
  -OEChem-07051212512D

 10  9  0     0  0  0  0  0  0999 V2000
    5.1350    1.0600    0.0000 Cl  0  0  0  0  0  0  0  0  0  0  0  0
    2.5369   -0.4400    0.0000 O   0  0  0  0  0  0  0  0  0  0  0  0
    3.4030    0.0600    0.0000 C   0  0  0  0  0  0  0  0  0  0  0  0
    4.2690   -0.4400    0.0000 C   0  0  0  0  0  0  0  0  0  0  0  0
    5.1350    0.0600    0.0000 C   0  0  0  0  0  0  0  0  0  0  0  0
    3.8015    0.5349    0.0000 H   0  0  0  0  0  0  0  0  0  0  0  0
    3.0044    0.5349    0.0000 H   0  0  0  0  0  0  0  0  0  0  0  0
    4.2690   -1.0600    0.0000 H   0  0  0  0  0  0  0  0  0  0  0  0
    5.6720   -0.2500    0.0000 H   0  0  0  0  0  0  0  0  0  0  0  0
    2.0000   -0.1300    0.0000 H   0  0  0  0  0  0  0  0  0  0  0  0
  1  5  1  0  0  0  0
  2  3  1  0  0  0  0
  2 10  1  0  0  0  0
  3  4  1  0  0  0  0
  3  6  1  0  0  0  0
  3  7  1  0  0  0  0
  4  5  2  0  0  0  0
  4  8  1  0  0  0  0
  5  9  1  0  0  0  0
M  END
> <PUBCHEM_COMPOUND_CID>
643775

> <PUBCHEM_COMPOUND_CANONICALIZED>
1

> <PUBCHEM_CACTVS_COMPLEXITY>
33.9

> <PUBCHEM_CACTVS_HBOND_ACCEPTOR>
1

> <PUBCHEM_CACTVS_HBOND_DONOR>
1

> <PUBCHEM_CACTVS_ROTATABLE_BOND>
1

> <PUBCHEM_CACTVS_SUBSKEYS>
AAADcYBAIAAEAAAAAAAAAAAAAAAAAAAAAAAAAAAAAAAAAAAAAAAAGgIACAAACAOggEIAAAAAAgCAACBCAAAAAAAAAAAIAAAAAAAAFAAAAQAAAAAAAAAAEAAAAAAAAAAAAAAAAAAAAAAAAAAAAAAAAAAAAA==

> <PUBCHEM_IUPAC_OPENEYE_NAME>
(Z)-3-chloroprop-2-en-1-ol

> <PUBCHEM_IUPAC_CAS_NAME>
(Z)-3-chloro-2-propen-1-ol

> <PUBCHEM_IUPAC_NAME>
(Z)-3-chloroprop-2-en-1-ol

> <PUBCHEM_IUPAC_SYSTEMATIC_NAME>
(Z)-3-chloranylprop-2-en-1-ol

> <PUBCHEM_IUPAC_TRADITIONAL_NAME>
(Z)-3-chloroprop-2-en-1-ol

> <PUBCHEM_IUPAC_INCHI>
InChI=1S/C3H5ClO/c4-2-1-3-5/h1-2,5H,3H2/b2-1-

> <PUBCHEM_IUPAC_INCHIKEY>
HJGHXDNIPAWLLE-UPHRSURJSA-N

> <PUBCHEM_XLOGP3_AA>
0.5

> <PUBCHEM_EXACT_MASS>
92.002892

> <PUBCHEM_MOLECULAR_FORMULA>
C3H5ClO

> <PUBCHEM_MOLECULAR_WEIGHT>
92.5242

> <PUBCHEM_OPENEYE_CAN_SMILES>
C(C=CCl)O

> <PUBCHEM_OPENEYE_ISO_SMILES>
C(/C=C\Cl)O

> <PUBCHEM_CACTVS_TPSA>
20.2

> <PUBCHEM_MONOISOTOPIC_WEIGHT>
92.002892

> <PUBCHEM_TOTAL_CHARGE>
0

> <PUBCHEM_HEAVY_ATOM_COUNT>
5

> <PUBCHEM_ATOM_DEF_STEREO_COUNT>
0

> <PUBCHEM_ATOM_UDEF_STEREO_COUNT>
0

> <PUBCHEM_BOND_DEF_STEREO_COUNT>
1

> <PUBCHEM_BOND_UDEF_STEREO_COUNT>
0

> <PUBCHEM_ISOTOPIC_ATOM_COUNT>
0

> <PUBCHEM_COMPONENT_COUNT>
1

> <PUBCHEM_CACTVS_TAUTO_COUNT>
1

> <PUBCHEM_COORDINATE_TYPE>
1
5
255

$$$$

