   Color/Form

     * Colorless to pale-yellow, liquid oil
     * Oily liquid

   from [1]HSDB

   Odor

     * Sweet rose odor
     * Pleasant geranium odor
     * SWEET, FLORAL ODOR

   from [2]HSDB

   Taste

     * Taste threshold values: Taste characteristics at 20 ppm; Floral,
       woody, citrus and spice-like with a waxy green nuance.
     * FRUITY APPLE TASTE

   from [3]HSDB

   Boiling Point
        230 deg C at 760 mm Hg
   from [4]HSDB

   Melting Point
        -15 deg C
   from [5]HSDB

   Density/Specific Gravity
        0.8894 at 20 deg C
   from [6]HSDB

   Octanol/Water Partition Coefficient
        log Kow = 3.56
   from [7]HSDB

   Solubilities

     * Miscible in ether, acetone
     * SOL IN 70% ETHANOL 1:2 AND IN MOST ORGANIC SOLVENTS
     * Soluble in alcohol, ether, mineral oil, fixed oils; insoluble in
       water and glycerol
     * Soluble in acetone, chloroform
     * Solubility in alcohol: 1 mL in 3 mL 70% alcohol; remains in soln to
       10 mL
     * In water, 100 mg/L at 25 deg C

   from [8]HSDB

   Spectral Properties

     * MAX ABSORPTION (ALC): 215 NM (LOG E= 3.25); 238 NM (LOG E= 2.30);
       325 NM SHOULDER
     * Index of refraction: 1.4710-1.4780 at 20 deg C, optical rotation -2
       to +2 degrees
     * Max absorption: 190-195 nm (epsilon = 18,000)
     * IR: 8087 (Sadtler Research Laboratories Prism Collection)
     * UV: 6-315 (Organic Electronic Spectral Data, Phillips et al, John
       Wiley & Sons, New York)
     * 1H NMR: 279 (Varian Associates NMR Spectra Catalogue)
     * MASS: 63533 (NIST/EPA/MSDC Mass Spectral Database, 1990 version);
       518 (National Bureau of Standards)
     * MASS: 63533 (NIST/EPA/MSDC Mass Spectral Database, 1990 version);
       518 (National Bureau of Standards)

   from [9]HSDB

   Vapor Pressure
        3.0X10-2 mm Hg at 25 deg C (est)
   from [10]HSDB

   Other Chemical/Physical Properties

     * Density: 0.870-0.890 at 15 deg C
     * Henry's Law constant = 5.89X10-5 atm-cu m/mol at 25 deg C (est)
     * Hydroxyl radical reaction rate constant = 1.8X10-10 cu cm/molec-sec
       at 25 deg C (est)

   from [11]HSDB

   Computed Properties
   Molecular Weight                  154.24932 [g/mol]
   Molecular Formula                 C[10]H[18]O
   XLogP3-AA                         2.9
   H-Bond Donor                      1
   H-Bond Acceptor                   1
   Rotatable Bond Count              4
   Exact Mass                        154.135765
   MonoIsotopic Mass                 154.135765
   Topological Polar Surface Area    20.2
   Heavy Atom Count                  11
   Formal Charge                     0
   Complexity                        150
   Isotope Atom Count                0
   Defined Atom Stereocenter Count   0
   Undefined Atom Stereocenter Count 0
   Defined Bond Stereocenter Count   1
   Undefined Bond Stereocenter Count 0
   Covalently-Bonded Unit Count      1
   Feature 3D Acceptor Count         1
   Feature 3D Donor Count            1
   Feature 3D Hydrophobe Count       3
   Effective Rotor Count             4
   Conformer Sampling RMSD           0.6
   CID Conformer Count               [12]76

References

   1. http://toxnet.nlm.nih.gov/cgi-bin/sis/search/r?dbs+hsdb:@term+@rn+@rel+106-24-1
   2. http://toxnet.nlm.nih.gov/cgi-bin/sis/search/r?dbs+hsdb:@term+@rn+@rel+106-24-1
   3. http://toxnet.nlm.nih.gov/cgi-bin/sis/search/r?dbs+hsdb:@term+@rn+@rel+106-24-1
   4. http://toxnet.nlm.nih.gov/cgi-bin/sis/search/r?dbs+hsdb:@term+@rn+@rel+106-24-1
   5. http://toxnet.nlm.nih.gov/cgi-bin/sis/search/r?dbs+hsdb:@term+@rn+@rel+106-24-1
   6. http://toxnet.nlm.nih.gov/cgi-bin/sis/search/r?dbs+hsdb:@term+@rn+@rel+106-24-1
   7. http://toxnet.nlm.nih.gov/cgi-bin/sis/search/r?dbs+hsdb:@term+@rn+@rel+106-24-1
   8. http://toxnet.nlm.nih.gov/cgi-bin/sis/search/r?dbs+hsdb:@term+@rn+@rel+106-24-1
   9. http://toxnet.nlm.nih.gov/cgi-bin/sis/search/r?dbs+hsdb:@term+@rn+@rel+106-24-1
  10. http://toxnet.nlm.nih.gov/cgi-bin/sis/search/r?dbs+hsdb:@term+@rn+@rel+106-24-1
  11. http://toxnet.nlm.nih.gov/cgi-bin/sis/search/r?dbs+hsdb:@term+@rn+@rel+106-24-1
  12. http://pubchem.ncbi.nlm.nih.gov/vw3d/vw3d.cgi?cid=637566
