5280900
  -OEChem-07051212512D

 52 51  0     1  0  0  0  0  0999 V2000
    5.1350   -0.1645    0.0000 P   0  0  3  0  0  0  0  0  0  0  0  0
    3.4030   -0.1645    0.0000 P   0  0  0  0  0  0  0  0  0  0  0  0
    6.0010    0.3355    0.0000 O   0  0  0  0  0  0  0  0  0  0  0  0
    4.2690   -0.6645    0.0000 O   0  0  0  0  0  0  0  0  0  0  0  0
    4.6350    0.7015    0.0000 O   0  0  0  0  0  0  0  0  0  0  0  0
    5.6350   -1.0306    0.0000 O   0  0  0  0  0  0  0  0  0  0  0  0
    2.5369    0.3355    0.0000 O   0  0  0  0  0  0  0  0  0  0  0  0
    2.9030   -1.0306    0.0000 O   0  0  0  0  0  0  0  0  0  0  0  0
    3.9030    0.7015    0.0000 O   0  0  0  0  0  0  0  0  0  0  0  0
    6.8671   -0.1645    0.0000 C   0  0  3  0  0  0  0  0  0  0  0  0
    7.7331   -0.6645    0.0000 C   0  0  0  0  0  0  0  0  0  0  0  0
    8.5991   -0.1645    0.0000 C   0  0  0  0  0  0  0  0  0  0  0  0
    6.3671   -1.0306    0.0000 C   0  0  0  0  0  0  0  0  0  0  0  0
    9.4651   -0.6645    0.0000 C   0  0  0  0  0  0  0  0  0  0  0  0
    7.3671    0.7015    0.0000 C   0  0  0  0  0  0  0  0  0  0  0  0
   10.3312   -0.1645    0.0000 C   0  0  0  0  0  0  0  0  0  0  0  0
   11.1972   -0.6645    0.0000 C   0  0  0  0  0  0  0  0  0  0  0  0
   12.0632   -0.1645    0.0000 C   0  0  0  0  0  0  0  0  0  0  0  0
   10.3312    0.8355    0.0000 C   0  0  0  0  0  0  0  0  0  0  0  0
    6.8671    1.5675    0.0000 C   0  0  0  0  0  0  0  0  0  0  0  0
   12.9292   -0.6645    0.0000 C   0  0  0  0  0  0  0  0  0  0  0  0
   13.7953   -0.1645    0.0000 C   0  0  0  0  0  0  0  0  0  0  0  0
   14.6613   -0.6645    0.0000 C   0  0  0  0  0  0  0  0  0  0  0  0
   13.7953    0.8355    0.0000 C   0  0  0  0  0  0  0  0  0  0  0  0
    7.3346   -1.1395    0.0000 H   0  0  0  0  0  0  0  0  0  0  0  0
    8.1316   -1.1395    0.0000 H   0  0  0  0  0  0  0  0  0  0  0  0
    8.9976    0.3104    0.0000 H   0  0  0  0  0  0  0  0  0  0  0  0
    8.2006    0.3104    0.0000 H   0  0  0  0  0  0  0  0  0  0  0  0
    5.8301   -0.7206    0.0000 H   0  0  0  0  0  0  0  0  0  0  0  0
    6.0571   -1.5675    0.0000 H   0  0  0  0  0  0  0  0  0  0  0  0
    6.9040   -1.3406    0.0000 H   0  0  0  0  0  0  0  0  0  0  0  0
    9.4651   -1.2845    0.0000 H   0  0  0  0  0  0  0  0  0  0  0  0
    7.9871    0.7015    0.0000 H   0  0  0  0  0  0  0  0  0  0  0  0
   10.7987   -1.1395    0.0000 H   0  0  0  0  0  0  0  0  0  0  0  0
   11.5957   -1.1395    0.0000 H   0  0  0  0  0  0  0  0  0  0  0  0
   12.4617    0.3104    0.0000 H   0  0  0  0  0  0  0  0  0  0  0  0
   11.6647    0.3104    0.0000 H   0  0  0  0  0  0  0  0  0  0  0  0
   10.9512    0.8355    0.0000 H   0  0  0  0  0  0  0  0  0  0  0  0
   10.3312    1.4555    0.0000 H   0  0  0  0  0  0  0  0  0  0  0  0
    9.7112    0.8355    0.0000 H   0  0  0  0  0  0  0  0  0  0  0  0
    7.1771    2.1044    0.0000 H   0  0  0  0  0  0  0  0  0  0  0  0
    6.2471    1.5675    0.0000 H   0  0  0  0  0  0  0  0  0  0  0  0
   12.9292   -1.2845    0.0000 H   0  0  0  0  0  0  0  0  0  0  0  0
    4.9450    1.2384    0.0000 H   0  0  0  0  0  0  0  0  0  0  0  0
   14.3513   -1.2015    0.0000 H   0  0  0  0  0  0  0  0  0  0  0  0
   15.1982   -0.9745    0.0000 H   0  0  0  0  0  0  0  0  0  0  0  0
   14.9713   -0.1276    0.0000 H   0  0  0  0  0  0  0  0  0  0  0  0
   14.4153    0.8355    0.0000 H   0  0  0  0  0  0  0  0  0  0  0  0
   13.7953    1.4555    0.0000 H   0  0  0  0  0  0  0  0  0  0  0  0
   13.1753    0.8355    0.0000 H   0  0  0  0  0  0  0  0  0  0  0  0
    3.2130   -1.5675    0.0000 H   0  0  0  0  0  0  0  0  0  0  0  0
    2.0000    0.0255    0.0000 H   0  0  0  0  0  0  0  0  0  0  0  0
  1  3  1  0  0  0  0
  1  4  1  0  0  0  0
  1  5  1  0  0  0  0
  1  6  2  0  0  0  0
  2  4  1  0  0  0  0
  2  7  1  0  0  0  0
  2  8  1  0  0  0  0
  2  9  2  0  0  0  0
  3 10  1  0  0  0  0
  5 44  1  0  0  0  0
  7 52  1  0  0  0  0
  8 51  1  0  0  0  0
 10 11  1  0  0  0  0
 10 13  1  0  0  0  0
 10 15  1  0  0  0  0
 11 12  1  0  0  0  0
 11 25  1  0  0  0  0
 11 26  1  0  0  0  0
 12 14  1  0  0  0  0
 12 27  1  0  0  0  0
 12 28  1  0  0  0  0
 13 29  1  0  0  0  0
 13 30  1  0  0  0  0
 13 31  1  0  0  0  0
 14 16  2  0  0  0  0
 14 32  1  0  0  0  0
 15 20  2  0  0  0  0
 15 33  1  0  0  0  0
 16 17  1  0  0  0  0
 16 19  1  0  0  0  0
 17 18  1  0  0  0  0
 17 34  1  0  0  0  0
 17 35  1  0  0  0  0
 18 21  1  0  0  0  0
 18 36  1  0  0  0  0
 18 37  1  0  0  0  0
 19 38  1  0  0  0  0
 19 39  1  0  0  0  0
 19 40  1  0  0  0  0
 20 41  1  0  0  0  0
 20 42  1  0  0  0  0
 21 22  2  0  0  0  0
 21 43  1  0  0  0  0
 22 23  1  0  0  0  0
 22 24  1  0  0  0  0
 23 45  1  0  0  0  0
 23 46  1  0  0  0  0
 23 47  1  0  0  0  0
 24 48  1  0  0  0  0
 24 49  1  0  0  0  0
 24 50  1  0  0  0  0
M  END
> <PUBCHEM_COMPOUND_CID>
5280900

> <PUBCHEM_COMPOUND_CANONICALIZED>
1

> <PUBCHEM_CACTVS_COMPLEXITY>
572

> <PUBCHEM_CACTVS_HBOND_ACCEPTOR>
7

> <PUBCHEM_CACTVS_HBOND_DONOR>
3

> <PUBCHEM_CACTVS_ROTATABLE_BOND>
11

> <PUBCHEM_CACTVS_SUBSKEYS>
AAADceBwOAMAAAAAAAAAAAAAAAAAAAAAAAAAAAAAAAAAAAAAAAAAGgAACCAADESAgAACAAAAARCAQiBCAIAAAAAgAAAICAAAAAgABAIAAQAAAAAEgAAIAAIAAAAMAAAAAAAAAAAAAAAAAAAAAAAAAAAAAA==

> <PUBCHEM_IUPAC_OPENEYE_NAME>
phosphono [(4E)-1,5,9-trimethyl-1-vinyl-deca-4,8-dienyl] hydrogen phosphate

> <PUBCHEM_IUPAC_CAS_NAME>
phosphono [(6E)-3,7,11-trimethyldodeca-1,6,10-trien-3-yl] hydrogen phosphate

> <PUBCHEM_IUPAC_NAME>
phosphono [(6E)-3,7,11-trimethyldodeca-1,6,10-trien-3-yl] hydrogen phosphate

> <PUBCHEM_IUPAC_SYSTEMATIC_NAME>
phosphono [(6E)-3,7,11-trimethyldodeca-1,6,10-trien-3-yl] hydrogen phosphate

> <PUBCHEM_IUPAC_TRADITIONAL_NAME>
phosphono [(4E)-1,5,9-trimethyl-1-vinyl-deca-4,8-dienyl] hydrogen phosphate

> <PUBCHEM_IUPAC_INCHI>
InChI=1S/C15H28O7P2/c1-6-15(5,21-24(19,20)22-23(16,17)18)12-8-11-14(4)10-7-9-13(2)3/h6,9,11H,1,7-8,10,12H2,2-5H3,(H,19,20)(H2,16,17,18)/b14-11+

> <PUBCHEM_IUPAC_INCHIKEY>
SDXCRASCLFBFND-SDNWHVSQSA-N

> <PUBCHEM_XLOGP3_AA>
2.4

> <PUBCHEM_EXACT_MASS>
382.131026

> <PUBCHEM_MOLECULAR_FORMULA>
C15H28O7P2

> <PUBCHEM_MOLECULAR_WEIGHT>
382.326144

> <PUBCHEM_OPENEYE_CAN_SMILES>
CC(=CCCC(=CCCC(C)(C=C)OP(=O)(O)OP(=O)(O)O)C)C

> <PUBCHEM_OPENEYE_ISO_SMILES>
CC(=CCC/C(=C/CCC(C)(C=C)OP(=O)(O)OP(=O)(O)O)/C)C

> <PUBCHEM_CACTVS_TPSA>
113

> <PUBCHEM_MONOISOTOPIC_WEIGHT>
382.131026

> <PUBCHEM_TOTAL_CHARGE>
0

> <PUBCHEM_HEAVY_ATOM_COUNT>
24

> <PUBCHEM_ATOM_DEF_STEREO_COUNT>
0

> <PUBCHEM_ATOM_UDEF_STEREO_COUNT>
1

> <PUBCHEM_BOND_DEF_STEREO_COUNT>
1

> <PUBCHEM_BOND_UDEF_STEREO_COUNT>
0

> <PUBCHEM_ISOTOPIC_ATOM_COUNT>
0

> <PUBCHEM_COMPONENT_COUNT>
1

> <PUBCHEM_CACTVS_TAUTO_COUNT>
1

> <PUBCHEM_COORDINATE_TYPE>
1
5
255

> <PUBCHEM_BONDANNOTATIONS>
10  13  3

$$$$

