   Color/Form

     * Crystals from benzene
     * WHITE TO LIGHT TAN, CRYSTALLINE POWDER
     * White, free-flowing powder

   from [1]HSDB

   Odor
        ODORLESS OR HAS ONLY SLIGHTLY PHENOLIC ODOR
   from [2]HSDB

   Taste
        Tasteless
   from [3]HSDB

   Melting Point
        164-165 deg C
   from [4]HSDB

   Dissociation Constants
        pKa = 4.95
   from [5]HSDB

   Octanol/Water Partition Coefficient
        log Kow = 7.54
   from [6]HSDB

   Solubilities

     * Soluble in chloroform, polyethylene glycols, propylene glycol,
       olive oil, cottonseed oil, dilute aqueous alkaline solutions.
     * Sol at 1 in 3.5 parts of alcohol, 1 in less than 1 part of acetone,
       & 1 in less than 1 part of ether
     * SOL IN DILUTE SOLUTIONS OF FIXED ALKALI HYDROXIDES
     * About 100 mg/ml in dimethyl sulfoxide at 20 deg C
     * Sol in vegetable oils & fatty acids with the aid of heat
     * In water, 140 mg/l @ 25 deg C

   from [7]HSDB

   Spectral Properties

     * Intense mass spectral peaks: 196 m/z (100%), 198 m/z (98%), 209 m/z
       (58%), 211 m/z (56%)
     * IR: 5138 (Coblentz Society Spectral Collection)
     * NMR: 604 (Varian Associates NMR Spectra Catalogue)
     * MS: NIST (NIST/EPA/MCDC Mass Spectral Database 1990 version) 52337

   from [8]HSDB

   Other Chemical/Physical Properties
        Forms salts with alkalies and alkaline earths
   from [9]HSDB

   Computed Properties
   Molecular Weight                  406.90354 [g/mol]
   Molecular Formula                 C[13]H[6]Cl[6]O[2]
   XLogP3                            7.5
   H-Bond Donor                      2
   H-Bond Acceptor                   2
   Rotatable Bond Count              2
   Tautomer Count                    5
   Exact Mass                        405.846945
   MonoIsotopic Mass                 403.849896
   Topological Polar Surface Area    40.5
   Heavy Atom Count                  21
   Formal Charge                     0
   Complexity                        328
   Isotope Atom Count                0
   Defined Atom Stereocenter Count   0
   Undefined Atom Stereocenter Count 0
   Defined Bond Stereocenter Count   0
   Undefined Bond Stereocenter Count 0
   Covalently-Bonded Unit Count      1
   Feature 3D Donor Count            2
   Feature 3D Ring Count             2
   Effective Rotor Count             2
   Conformer Sampling RMSD           0.6
   CID Conformer Count               [10]8

References

   1. http://toxnet.nlm.nih.gov/cgi-bin/sis/search/r?dbs+hsdb:@term+@rn+@rel+70-30-4
   2. http://toxnet.nlm.nih.gov/cgi-bin/sis/search/r?dbs+hsdb:@term+@rn+@rel+70-30-4
   3. http://toxnet.nlm.nih.gov/cgi-bin/sis/search/r?dbs+hsdb:@term+@rn+@rel+70-30-4
   4. http://toxnet.nlm.nih.gov/cgi-bin/sis/search/r?dbs+hsdb:@term+@rn+@rel+70-30-4
   5. http://toxnet.nlm.nih.gov/cgi-bin/sis/search/r?dbs+hsdb:@term+@rn+@rel+70-30-4
   6. http://toxnet.nlm.nih.gov/cgi-bin/sis/search/r?dbs+hsdb:@term+@rn+@rel+70-30-4
   7. http://toxnet.nlm.nih.gov/cgi-bin/sis/search/r?dbs+hsdb:@term+@rn+@rel+70-30-4
   8. http://toxnet.nlm.nih.gov/cgi-bin/sis/search/r?dbs+hsdb:@term+@rn+@rel+70-30-4
   9. http://toxnet.nlm.nih.gov/cgi-bin/sis/search/r?dbs+hsdb:@term+@rn+@rel+70-30-4
  10. http://pubchem.ncbi.nlm.nih.gov/vw3d/vw3d.cgi?cid=3598
