51090896
  -OEChem-06241223002D

 53 55  0     0  0  0  0  0  0999 V2000
    6.2711   -0.5699    0.0000 O   0  0  0  0  0  0  0  0  0  0  0  0
    5.4050    2.9301    0.0000 O   0  0  0  0  0  0  0  0  0  0  0  0
    8.8691    3.9301    0.0000 O   0  0  0  0  0  0  0  0  0  0  0  0
    4.5390   -0.5699    0.0000 N   0  0  0  0  0  0  0  0  0  0  0  0
    6.2711    1.4301    0.0000 N   0  0  0  0  0  0  0  0  0  0  0  0
    7.1371    3.9301    0.0000 N   0  0  0  0  0  0  0  0  0  0  0  0
    3.6730   -3.0699    0.0000 C   0  0  0  0  0  0  0  0  0  0  0  0
    4.5092   -4.5182    0.0000 C   0  0  0  0  0  0  0  0  0  0  0  0
    2.9819   -4.9533    0.0000 C   0  0  0  0  0  0  0  0  0  0  0  0
    2.8368   -4.5182    0.0000 C   0  0  0  0  0  0  0  0  0  0  0  0
    4.5092   -3.5527    0.0000 C   0  0  0  0  0  0  0  0  0  0  0  0
    2.8368   -3.5527    0.0000 C   0  0  0  0  0  0  0  0  0  0  0  0
    2.9819   -3.9080    0.0000 C   0  0  0  0  0  0  0  0  0  0  0  0
    3.6730   -4.8210    0.0000 C   0  0  0  0  0  0  0  0  0  0  0  0
    2.0000   -5.0010    0.0000 C   0  0  0  0  0  0  0  0  0  0  0  0
    3.8876   -5.4301    0.0000 C   0  0  0  0  0  0  0  0  0  0  0  0
    3.6730   -2.0699    0.0000 C   0  0  0  0  0  0  0  0  0  0  0  0
    4.5390   -1.5699    0.0000 C   0  0  0  0  0  0  0  0  0  0  0  0
    5.4050   -0.0699    0.0000 C   0  0  0  0  0  0  0  0  0  0  0  0
    5.4050    0.9301    0.0000 C   0  0  0  0  0  0  0  0  0  0  0  0
    6.2711    2.4301    0.0000 C   0  0  0  0  0  0  0  0  0  0  0  0
    7.1371    2.9301    0.0000 C   0  0  0  0  0  0  0  0  0  0  0  0
    8.0031    4.4301    0.0000 C   0  0  0  0  0  0  0  0  0  0  0  0
    8.0031    5.4301    0.0000 C   0  0  0  0  0  0  0  0  0  0  0  0
    2.8912   -5.1358    0.0000 H   0  0  0  0  0  0  0  0  0  0  0  0
    2.8478   -5.5586    0.0000 H   0  0  0  0  0  0  0  0  0  0  0  0
    5.1016   -4.7009    0.0000 H   0  0  0  0  0  0  0  0  0  0  0  0
    2.6383   -3.3920    0.0000 H   0  0  0  0  0  0  0  0  0  0  0  0
    2.3885   -4.0875    0.0000 H   0  0  0  0  0  0  0  0  0  0  0  0
    2.6247   -2.9701    0.0000 H   0  0  0  0  0  0  0  0  0  0  0  0
    2.2262   -3.6603    0.0000 H   0  0  0  0  0  0  0  0  0  0  0  0
    5.1198   -3.6603    0.0000 H   0  0  0  0  0  0  0  0  0  0  0  0
    4.7212   -2.9701    0.0000 H   0  0  0  0  0  0  0  0  0  0  0  0
    1.5188   -4.6101    0.0000 H   0  0  0  0  0  0  0  0  0  0  0  0
    1.8068   -5.5901    0.0000 H   0  0  0  0  0  0  0  0  0  0  0  0
    3.3030   -5.3185    0.0000 H   0  0  0  0  0  0  0  0  0  0  0  0
    4.0430   -5.3185    0.0000 H   0  0  0  0  0  0  0  0  0  0  0  0
    3.5782   -5.9674    0.0000 H   0  0  0  0  0  0  0  0  0  0  0  0
    4.4127   -5.7597    0.0000 H   0  0  0  0  0  0  0  0  0  0  0  0
    3.4609   -1.4873    0.0000 H   0  0  0  0  0  0  0  0  0  0  0  0
    3.0624   -2.1776    0.0000 H   0  0  0  0  0  0  0  0  0  0  0  0
    4.7511   -2.1525    0.0000 H   0  0  0  0  0  0  0  0  0  0  0  0
    5.1496   -1.4622    0.0000 H   0  0  0  0  0  0  0  0  0  0  0  0
    4.0021   -0.2599    0.0000 H   0  0  0  0  0  0  0  0  0  0  0  0
    5.1930    1.5127    0.0000 H   0  0  0  0  0  0  0  0  0  0  0  0
    4.7945    0.8224    0.0000 H   0  0  0  0  0  0  0  0  0  0  0  0
    6.8080    1.1201    0.0000 H   0  0  0  0  0  0  0  0  0  0  0  0
    7.3491    2.3475    0.0000 H   0  0  0  0  0  0  0  0  0  0  0  0
    7.7477    3.0378    0.0000 H   0  0  0  0  0  0  0  0  0  0  0  0
    6.6001    4.2401    0.0000 H   0  0  0  0  0  0  0  0  0  0  0  0
    8.6231    5.4301    0.0000 H   0  0  0  0  0  0  0  0  0  0  0  0
    8.0031    6.0501    0.0000 H   0  0  0  0  0  0  0  0  0  0  0  0
    7.3831    5.4301    0.0000 H   0  0  0  0  0  0  0  0  0  0  0  0
  1 19  2  0  0  0  0
  2 21  2  0  0  0  0
  3 23  2  0  0  0  0
  4 18  1  0  0  0  0
  4 19  1  0  0  0  0
  4 44  1  0  0  0  0
  5 20  1  0  0  0  0
  5 21  1  0  0  0  0
  5 47  1  0  0  0  0
  6 22  1  0  0  0  0
  6 23  1  0  0  0  0
  6 50  1  0  0  0  0
  7 11  1  0  0  0  0
  7 12  1  0  0  0  0
  7 13  1  0  0  0  0
  7 17  1  0  0  0  0
  8 11  1  0  0  0  0
  8 14  1  0  0  0  0
  8 16  1  0  0  0  0
  8 27  1  0  0  0  0
  9 13  1  0  0  0  0
  9 15  1  0  0  0  0
  9 16  1  0  0  0  0
  9 26  1  0  0  0  0
 10 12  1  0  0  0  0
 10 14  1  0  0  0  0
 10 15  1  0  0  0  0
 10 25  1  0  0  0  0
 11 32  1  0  0  0  0
 11 33  1  0  0  0  0
 12 30  1  0  0  0  0
 12 31  1  0  0  0  0
 13 28  1  0  0  0  0
 13 29  1  0  0  0  0
 14 36  1  0  0  0  0
 14 37  1  0  0  0  0
 15 34  1  0  0  0  0
 15 35  1  0  0  0  0
 16 38  1  0  0  0  0
 16 39  1  0  0  0  0
 17 18  1  0  0  0  0
 17 40  1  0  0  0  0
 17 41  1  0  0  0  0
 18 42  1  0  0  0  0
 18 43  1  0  0  0  0
 19 20  1  0  0  0  0
 20 45  1  0  0  0  0
 20 46  1  0  0  0  0
 21 22  1  0  0  0  0
 22 48  1  0  0  0  0
 22 49  1  0  0  0  0
 23 24  1  0  0  0  0
 24 51  1  0  0  0  0
 24 52  1  0  0  0  0
 24 53  1  0  0  0  0
M  END
> <PUBCHEM_COMPOUND_CID>
51090896

> <PUBCHEM_COMPOUND_CANONICALIZED>
1

> <PUBCHEM_CACTVS_COMPLEXITY>
476

> <PUBCHEM_CACTVS_HBOND_ACCEPTOR>
3

> <PUBCHEM_CACTVS_HBOND_DONOR>
3

> <PUBCHEM_CACTVS_ROTATABLE_BOND>
7

> <PUBCHEM_CACTVS_SUBSKEYS>
AAADceB7MAAAAAAAAAAAAAAAAAAAAAAAAAAwYMGAAAAAAAAAAAAAHgAQAAAADwDBgAQCAALAAAAIAAEQEAAAAAAAAAAAAICIAAAAQAIAgCAUAAAAFgCAAAEQgMAPAAAAAAAAAAAAAAQAAAAAAAAAAAAAAA==

> <PUBCHEM_IUPAC_OPENEYE_NAME>
2-acetamido-N-[2-[2-(1-adamantyl)ethylamino]-2-oxo-ethyl]acetamide

> <PUBCHEM_IUPAC_CAS_NAME>
2-acetamido-N-[2-[2-(1-adamantyl)ethylamino]-2-oxoethyl]acetamide

> <PUBCHEM_IUPAC_NAME>
2-acetamido-N-[2-[2-(1-adamantyl)ethylamino]-2-oxoethyl]acetamide

> <PUBCHEM_IUPAC_SYSTEMATIC_NAME>
2-acetamido-N-[2-[2-(1-adamantyl)ethylamino]-2-oxidanylidene-ethyl]ethanamide

> <PUBCHEM_IUPAC_TRADITIONAL_NAME>
2-acetamido-N-[2-[2-(1-adamantyl)ethylamino]-2-keto-ethyl]acetamide

> <PUBCHEM_IUPAC_INCHI>
InChI=1S/C18H29N3O3/c1-12(22)20-10-17(24)21-11-16(23)19-3-2-18-7-13-4-14(8-18)6-15(5-13)9-18/h13-15H,2-11H2,1H3,(H,19,23)(H,20,22)(H,21,24)

> <PUBCHEM_IUPAC_INCHIKEY>
ZOSATTPONCXUSF-UHFFFAOYSA-N

> <PUBCHEM_XLOGP3_AA>
2

> <PUBCHEM_EXACT_MASS>
335.220892

> <PUBCHEM_MOLECULAR_FORMULA>
C18H29N3O3

> <PUBCHEM_MOLECULAR_WEIGHT>
335.44116

> <PUBCHEM_OPENEYE_CAN_SMILES>
CC(=O)NCC(=O)NCC(=O)NCCC12CC3CC(C1)CC(C3)C2

> <PUBCHEM_OPENEYE_ISO_SMILES>
CC(=O)NCC(=O)NCC(=O)NCCC12CC3CC(C1)CC(C3)C2

> <PUBCHEM_CACTVS_TPSA>
87.3

> <PUBCHEM_MONOISOTOPIC_WEIGHT>
335.220892

> <PUBCHEM_TOTAL_CHARGE>
0

> <PUBCHEM_HEAVY_ATOM_COUNT>
24

> <PUBCHEM_ATOM_DEF_STEREO_COUNT>
0

> <PUBCHEM_ATOM_UDEF_STEREO_COUNT>
0

> <PUBCHEM_BOND_DEF_STEREO_COUNT>
0

> <PUBCHEM_BOND_UDEF_STEREO_COUNT>
0

> <PUBCHEM_ISOTOPIC_ATOM_COUNT>
0

> <PUBCHEM_COMPONENT_COUNT>
1

> <PUBCHEM_CACTVS_TAUTO_COUNT>
8

> <PUBCHEM_COORDINATE_TYPE>
1
5
255

$$$$

