10211
  -OEChem-07051212562D

 42 44  0     1  0  0  0  0  0999 V2000
    5.5301    0.6900    0.0000 O   0  0  0  0  0  0  0  0  0  0  0  0
    8.1282    3.1900    0.0000 O   0  0  0  0  0  0  0  0  0  0  0  0
    5.5301    2.6900    0.0000 O   0  0  0  0  0  0  0  0  0  0  0  0
    7.3424   -0.5053    0.0000 O   0  0  0  0  0  0  0  0  0  0  0  0
    3.7702   -0.2753    0.0000 O   0  0  0  0  0  0  0  0  0  0  0  0
    5.5301   -3.3100    0.0000 O   0  0  0  0  0  0  0  0  0  0  0  0
    2.0000   -0.2858    0.0000 O   0  0  0  0  0  0  0  0  0  0  0  0
    7.2622    2.6900    0.0000 C   0  0  0  0  0  0  0  0  0  0  0  0
    6.3961    2.1900    0.0000 C   0  0  1  0  0  0  0  0  0  0  0  0
    6.3961    1.1900    0.0000 C   0  0  0  0  0  0  0  0  0  0  0  0
    6.7622    3.5560    0.0000 C   0  0  0  0  0  0  0  0  0  0  0  0
    7.7622    1.8240    0.0000 C   0  0  0  0  0  0  0  0  0  0  0  0
    5.5301   -0.3100    0.0000 C   0  0  0  0  0  0  0  0  0  0  0  0
    6.3961   -0.8100    0.0000 C   0  0  0  0  0  0  0  0  0  0  0  0
    4.6641   -0.8100    0.0000 C   0  0  0  0  0  0  0  0  0  0  0  0
    6.3961   -1.8100    0.0000 C   0  0  0  0  0  0  0  0  0  0  0  0
    4.6641   -1.8100    0.0000 C   0  0  0  0  0  0  0  0  0  0  0  0
    5.5301   -2.3100    0.0000 C   0  0  0  0  0  0  0  0  0  0  0  0
    7.3424   -2.1147    0.0000 C   0  0  0  0  0  0  0  0  0  0  0  0
    3.7702   -2.3447    0.0000 C   0  0  0  0  0  0  0  0  0  0  0  0
    7.9260   -1.3100    0.0000 C   0  0  0  0  0  0  0  0  0  0  0  0
    2.8641   -1.8308    0.0000 C   0  0  0  0  0  0  0  0  0  0  0  0
    2.8641   -0.7892    0.0000 C   0  0  0  0  0  0  0  0  0  0  0  0
    6.3961   -3.8100    0.0000 C   0  0  0  0  0  0  0  0  0  0  0  0
    5.8592    1.8800    0.0000 H   0  0  0  0  0  0  0  0  0  0  0  0
    6.6082    0.6074    0.0000 H   0  0  0  0  0  0  0  0  0  0  0  0
    7.0067    1.2977    0.0000 H   0  0  0  0  0  0  0  0  0  0  0  0
    7.2991    3.8660    0.0000 H   0  0  0  0  0  0  0  0  0  0  0  0
    6.4522    4.0930    0.0000 H   0  0  0  0  0  0  0  0  0  0  0  0
    6.2252    3.2460    0.0000 H   0  0  0  0  0  0  0  0  0  0  0  0
    7.2252    1.5140    0.0000 H   0  0  0  0  0  0  0  0  0  0  0  0
    8.0722    1.2870    0.0000 H   0  0  0  0  0  0  0  0  0  0  0  0
    8.2991    2.1340    0.0000 H   0  0  0  0  0  0  0  0  0  0  0  0
    8.1282    3.8100    0.0000 H   0  0  0  0  0  0  0  0  0  0  0  0
    5.5301    3.3100    0.0000 H   0  0  0  0  0  0  0  0  0  0  0  0
    7.5350   -2.7040    0.0000 H   0  0  0  0  0  0  0  0  0  0  0  0
    3.7773   -2.9646    0.0000 H   0  0  0  0  0  0  0  0  0  0  0  0
    8.5460   -1.3100    0.0000 H   0  0  0  0  0  0  0  0  0  0  0  0
    2.3284   -2.1429    0.0000 H   0  0  0  0  0  0  0  0  0  0  0  0
    6.0862   -4.3469    0.0000 H   0  0  0  0  0  0  0  0  0  0  0  0
    6.9331   -4.1200    0.0000 H   0  0  0  0  0  0  0  0  0  0  0  0
    6.7062   -3.2731    0.0000 H   0  0  0  0  0  0  0  0  0  0  0  0
  1 10  1  0  0  0  0
  1 13  1  0  0  0  0
  2  8  1  0  0  0  0
  2 34  1  0  0  0  0
  9  3  1  1  0  0  0
  3 35  1  0  0  0  0
  4 14  1  0  0  0  0
  4 21  1  0  0  0  0
  5 15  1  0  0  0  0
  5 23  1  0  0  0  0
  6 18  1  0  0  0  0
  6 24  1  0  0  0  0
  7 23  2  0  0  0  0
  8  9  1  0  0  0  0
  8 11  1  0  0  0  0
  8 12  1  0  0  0  0
  9 10  1  0  0  0  0
  9 25  1  0  0  0  0
 10 26  1  0  0  0  0
 10 27  1  0  0  0  0
 11 28  1  0  0  0  0
 11 29  1  0  0  0  0
 11 30  1  0  0  0  0
 12 31  1  0  0  0  0
 12 32  1  0  0  0  0
 12 33  1  0  0  0  0
 13 14  2  0  0  0  0
 13 15  1  0  0  0  0
 14 16  1  0  0  0  0
 15 17  2  0  0  0  0
 16 18  2  0  0  0  0
 16 19  1  0  0  0  0
 17 18  1  0  0  0  0
 17 20  1  0  0  0  0
 19 21  2  0  0  0  0
 19 36  1  0  0  0  0
 20 22  2  0  0  0  0
 20 37  1  0  0  0  0
 21 38  1  0  0  0  0
 22 23  1  0  0  0  0
 22 39  1  0  0  0  0
 24 40  1  0  0  0  0
 24 41  1  0  0  0  0
 24 42  1  0  0  0  0
M  END
> <PUBCHEM_COMPOUND_CID>
10211

> <PUBCHEM_COMPOUND_CANONICALIZED>
1

> <PUBCHEM_CACTVS_COMPLEXITY>
503

> <PUBCHEM_CACTVS_HBOND_ACCEPTOR>
7

> <PUBCHEM_CACTVS_HBOND_DONOR>
2

> <PUBCHEM_CACTVS_ROTATABLE_BOND>
5

> <PUBCHEM_CACTVS_SUBSKEYS>
AAADceB4OAAAAAAAAAAAAAAAAAAAASAAAAAwQAAAAAAAAEiB8AAAGgAACAAADFSgmAIyDsAABkCIAqjSiAICCAAkIAAIiAFGiMgNNzaENB6Ce2Kl4BULqYfK7PzOIQADCAAIQABCAAYQABCAAAAAAAAAAA==

> <PUBCHEM_IUPAC_OPENEYE_NAME>
9-[(2R)-2,3-dihydroxy-3-methyl-butoxy]-4-methoxy-furo[3,2-g]chromen-7-one

> <PUBCHEM_IUPAC_CAS_NAME>
9-[(2R)-2,3-dihydroxy-3-methylbutoxy]-4-methoxy-7-furo[3,2-g][1]benzopyranone

> <PUBCHEM_IUPAC_NAME>
9-[(2R)-2,3-dihydroxy-3-methylbutoxy]-4-methoxyfuro[3,2-g]chromen-7-one

> <PUBCHEM_IUPAC_SYSTEMATIC_NAME>
4-methoxy-9-[(2R)-3-methyl-2,3-bis(oxidanyl)butoxy]furo[3,2-g]chromen-7-one

> <PUBCHEM_IUPAC_TRADITIONAL_NAME>
9-[(2R)-2,3-dihydroxy-3-methyl-butoxy]-4-methoxy-furo[3,2-g]chromen-7-one

> <PUBCHEM_IUPAC_INCHI>
InChI=1S/C17H18O7/c1-17(2,20)11(18)8-23-16-14-10(6-7-22-14)13(21-3)9-4-5-12(19)24-15(9)16/h4-7,11,18,20H,8H2,1-3H3/t11-/m1/s1

> <PUBCHEM_IUPAC_INCHIKEY>
PKRPFNXROFUNDE-LLVKDONJSA-N

> <PUBCHEM_XLOGP3_AA>
1.6

> <PUBCHEM_EXACT_MASS>
334.105253

> <PUBCHEM_MOLECULAR_FORMULA>
C17H18O7

> <PUBCHEM_MOLECULAR_WEIGHT>
334.32062

> <PUBCHEM_OPENEYE_CAN_SMILES>
CC(C)(C(COC1=C2C(=C(C3=C1OC(=O)C=C3)OC)C=CO2)O)O

> <PUBCHEM_OPENEYE_ISO_SMILES>
CC(C)([C@@H](COC1=C2C(=C(C3=C1OC(=O)C=C3)OC)C=CO2)O)O

> <PUBCHEM_CACTVS_TPSA>
98.4

> <PUBCHEM_MONOISOTOPIC_WEIGHT>
334.105253

> <PUBCHEM_TOTAL_CHARGE>
0

> <PUBCHEM_HEAVY_ATOM_COUNT>
24

> <PUBCHEM_ATOM_DEF_STEREO_COUNT>
1

> <PUBCHEM_ATOM_UDEF_STEREO_COUNT>
0

> <PUBCHEM_BOND_DEF_STEREO_COUNT>
0

> <PUBCHEM_BOND_UDEF_STEREO_COUNT>
0

> <PUBCHEM_ISOTOPIC_ATOM_COUNT>
0

> <PUBCHEM_COMPONENT_COUNT>
1

> <PUBCHEM_CACTVS_TAUTO_COUNT>
1

> <PUBCHEM_COORDINATE_TYPE>
1
5
255

> <PUBCHEM_BONDANNOTATIONS>
13  14  8
13  15  8
14  16  8
15  17  8
16  18  8
16  19  8
17  18  8
17  20  8
19  21  8
20  22  8
22  23  8
9  3  5
4  14  8
4  21  8
5  15  8
5  23  8

$$$$

