440843
  -OEChem-07051212512D

 96 99  0     1  0  0  0  0  0999 V2000
    5.7812    3.1875    0.0000 P   0  0  3  0  0  0  0  0  0  0  0  0
    9.0272    1.8444    0.0000 O   0  0  0  0  0  0  0  0  0  0  0  0
   10.8067    1.7511    0.0000 O   0  0  0  0  0  0  0  0  0  0  0  0
    8.4513    4.3671    0.0000 O   0  0  0  0  0  0  0  0  0  0  0  0
   10.5793    3.9148    0.0000 O   0  0  0  0  0  0  0  0  0  0  0  0
    6.7757    3.2920    0.0000 O   0  0  0  0  0  0  0  0  0  0  0  0
   12.5388    0.7511    0.0000 O   0  0  0  0  0  0  0  0  0  0  0  0
   10.8067   -1.2489    0.0000 O   0  0  0  0  0  0  0  0  0  0  0  0
   13.4048   -0.7489    0.0000 O   0  0  0  0  0  0  0  0  0  0  0  0
    4.7867    3.0830    0.0000 O   0  0  0  0  0  0  0  0  0  0  0  0
    5.6767    4.1820    0.0000 O   0  0  0  0  0  0  0  0  0  0  0  0
    5.8858    2.1930    0.0000 O   0  0  0  0  0  0  0  0  0  0  0  0
    2.6166    4.5965    0.0000 O   0  0  0  0  0  0  0  0  0  0  0  0
   19.4834   -4.2143    0.0000 O   0  0  0  0  0  0  0  0  0  0  0  0
    2.7976    2.8739    0.0000 O   0  0  0  0  0  0  0  0  0  0  0  0
    3.8368    7.3371    0.0000 O   0  0  0  0  0  0  0  0  0  0  0  0
    5.4191    6.6326    0.0000 O   0  0  0  0  0  0  0  0  0  0  0  0
   16.0029   -4.2489    0.0000 N   0  0  0  0  0  0  0  0  0  0  0  0
   17.7350   -7.2489    0.0000 N   0  0  0  0  0  0  0  0  0  0  0  0
   17.7350   -5.2489    0.0000 N   0  0  0  0  0  0  0  0  0  0  0  0
   19.4949   -7.2835    0.0000 N   0  0  0  0  0  0  0  0  0  0  0  0
   20.4010   -5.7281    0.0000 N   0  0  0  0  0  0  0  0  0  0  0  0
   21.2651   -7.2730    0.0000 N   0  0  0  0  0  0  0  0  0  0  0  0
    8.8580    3.4536    0.0000 C   0  0  2  0  0  0  0  0  0  0  0  0
    8.3580    2.5875    0.0000 C   0  0  1  0  0  0  0  0  0  0  0  0
    9.8362    3.2456    0.0000 C   0  0  2  0  0  0  0  0  0  0  0  0
    9.9407    2.2511    0.0000 C   0  0  2  0  0  0  0  0  0  0  0  0
    7.3635    2.4830    0.0000 C   0  0  0  0  0  0  0  0  0  0  0  0
   10.8067    0.7511    0.0000 C   0  0  0  0  0  0  0  0  0  0  0  0
   11.6728    0.2511    0.0000 C   0  0  2  0  0  0  0  0  0  0  0  0
   11.6728   -0.7489    0.0000 C   0  0  2  0  0  0  0  0  0  0  0  0
   12.5388   -1.2489    0.0000 C   0  0  2  0  0  0  0  0  0  0  0  0
   12.5388   -2.2489    0.0000 C   0  0  0  0  0  0  0  0  0  0  0  0
   13.4048   -2.7489    0.0000 C   0  0  0  0  0  0  0  0  0  0  0  0
   16.0029   -5.2489    0.0000 C   0  0  1  0  0  0  0  0  0  0  0  0
   16.8689   -6.7489    0.0000 C   0  0  2  0  0  0  0  0  0  0  0  0
   16.8689   -5.7489    0.0000 C   0  0  0  0  0  0  0  0  0  0  0  0
   13.4048   -3.7489    0.0000 C   0  0  0  0  0  0  0  0  0  0  0  0
   14.2709   -2.2489    0.0000 C   0  0  0  0  0  0  0  0  0  0  0  0
   15.1369   -3.7489    0.0000 C   0  0  0  0  0  0  0  0  0  0  0  0
   14.2709   -4.2489    0.0000 C   0  0  0  0  0  0  0  0  0  0  0  0
   15.1369   -2.7489    0.0000 C   0  0  0  0  0  0  0  0  0  0  0  0
    4.1989    3.8920    0.0000 C   0  0  1  0  0  0  0  0  0  0  0  0
   15.1369   -5.7489    0.0000 C   0  0  0  0  0  0  0  0  0  0  0  0
   16.0029   -7.2489    0.0000 C   0  0  0  0  0  0  0  0  0  0  0  0
   18.6010   -6.7489    0.0000 C   0  0  0  0  0  0  0  0  0  0  0  0
   18.6010   -5.7489    0.0000 C   0  0  0  0  0  0  0  0  0  0  0  0
    4.6056    4.8055    0.0000 C   0  0  0  0  0  0  0  0  0  0  0  0
   19.4949   -5.2142    0.0000 C   0  0  0  0  0  0  0  0  0  0  0  0
    4.0179    5.6145    0.0000 C   0  0  0  0  0  0  0  0  0  0  0  0
    3.2044    3.7874    0.0000 C   0  0  0  0  0  0  0  0  0  0  0  0
   20.4010   -6.7697    0.0000 C   0  0  0  0  0  0  0  0  0  0  0  0
    4.4246    6.5281    0.0000 C   0  0  0  0  0  0  0  0  0  0  0  0
    8.2389    3.4860    0.0000 H   0  0  0  0  0  0  0  0  0  0  0  0
    8.1359    2.0087    0.0000 H   0  0  0  0  0  0  0  0  0  0  0  0
    9.6757    3.8445    0.0000 H   0  0  0  0  0  0  0  0  0  0  0  0
   10.4607    2.5888    0.0000 H   0  0  0  0  0  0  0  0  0  0  0  0
    6.8063    2.2112    0.0000 H   0  0  0  0  0  0  0  0  0  0  0  0
    7.5344    1.8870    0.0000 H   0  0  0  0  0  0  0  0  0  0  0  0
   10.1962    0.8588    0.0000 H   0  0  0  0  0  0  0  0  0  0  0  0
   10.5947    0.1685    0.0000 H   0  0  0  0  0  0  0  0  0  0  0  0
   11.6728    0.8711    0.0000 H   0  0  0  0  0  0  0  0  0  0  0  0
   11.1358   -0.4389    0.0000 H   0  0  0  0  0  0  0  0  0  0  0  0
    8.8157    4.8687    0.0000 H   0  0  0  0  0  0  0  0  0  0  0  0
   10.4504    4.5212    0.0000 H   0  0  0  0  0  0  0  0  0  0  0  0
   13.0757   -1.5589    0.0000 H   0  0  0  0  0  0  0  0  0  0  0  0
   11.9282   -2.1412    0.0000 H   0  0  0  0  0  0  0  0  0  0  0  0
   12.3267   -2.8315    0.0000 H   0  0  0  0  0  0  0  0  0  0  0  0
   12.5388    1.3711    0.0000 H   0  0  0  0  0  0  0  0  0  0  0  0
   10.2698   -0.9389    0.0000 H   0  0  0  0  0  0  0  0  0  0  0  0
   16.5398   -4.9389    0.0000 H   0  0  0  0  0  0  0  0  0  0  0  0
   16.8689   -7.3689    0.0000 H   0  0  0  0  0  0  0  0  0  0  0  0
   13.4048   -0.1289    0.0000 H   0  0  0  0  0  0  0  0  0  0  0  0
   12.8679   -4.0589    0.0000 H   0  0  0  0  0  0  0  0  0  0  0  0
   14.2709   -1.6289    0.0000 H   0  0  0  0  0  0  0  0  0  0  0  0
   16.5398   -3.9389    0.0000 H   0  0  0  0  0  0  0  0  0  0  0  0
   14.2709   -4.8689    0.0000 H   0  0  0  0  0  0  0  0  0  0  0  0
   15.6738   -2.4389    0.0000 H   0  0  0  0  0  0  0  0  0  0  0  0
   17.7350   -7.8689    0.0000 H   0  0  0  0  0  0  0  0  0  0  0  0
    4.8155    3.9568    0.0000 H   0  0  0  0  0  0  0  0  0  0  0  0
   14.8269   -5.2119    0.0000 H   0  0  0  0  0  0  0  0  0  0  0  0
   14.5999   -6.0589    0.0000 H   0  0  0  0  0  0  0  0  0  0  0  0
   15.4469   -6.2858    0.0000 H   0  0  0  0  0  0  0  0  0  0  0  0
   15.6929   -6.7119    0.0000 H   0  0  0  0  0  0  0  0  0  0  0  0
   15.4660   -7.5589    0.0000 H   0  0  0  0  0  0  0  0  0  0  0  0
   16.3129   -7.7858    0.0000 H   0  0  0  0  0  0  0  0  0  0  0  0
    6.1783    4.5464    0.0000 H   0  0  0  0  0  0  0  0  0  0  0  0
    5.1196    4.4588    0.0000 H   0  0  0  0  0  0  0  0  0  0  0  0
    5.0363    5.2515    0.0000 H   0  0  0  0  0  0  0  0  0  0  0  0
   19.4877   -7.9035    0.0000 H   0  0  0  0  0  0  0  0  0  0  0  0
    3.5039    5.9612    0.0000 H   0  0  0  0  0  0  0  0  0  0  0  0
    3.5872    5.1686    0.0000 H   0  0  0  0  0  0  0  0  0  0  0  0
   21.8032   -6.9651    0.0000 H   0  0  0  0  0  0  0  0  0  0  0  0
   21.2627   -7.8930    0.0000 H   0  0  0  0  0  0  0  0  0  0  0  0
    2.0000    4.5317    0.0000 H   0  0  0  0  0  0  0  0  0  0  0  0
    4.0890    7.9035    0.0000 H   0  0  0  0  0  0  0  0  0  0  0  0
  1  6  1  0  0  0  0
  1 10  1  0  0  0  0
  1 11  1  0  0  0  0
  1 12  2  0  0  0  0
  2 25  1  0  0  0  0
  2 27  1  0  0  0  0
 27  3  1  1  0  0  0
  3 29  1  0  0  0  0
 24  4  1  1  0  0  0
  4 64  1  0  0  0  0
 26  5  1  1  0  0  0
  5 65  1  0  0  0  0
  6 28  1  0  0  0  0
 30  7  1  1  0  0  0
  7 69  1  0  0  0  0
 31  8  1  6  0  0  0
  8 70  1  0  0  0  0
 32  9  1  1  0  0  0
  9 73  1  0  0  0  0
 43 10  1  6  0  0  0
 11 87  1  0  0  0  0
 13 51  1  0  0  0  0
 13 95  1  0  0  0  0
 14 49  2  0  0  0  0
 15 51  2  0  0  0  0
 16 53  1  0  0  0  0
 16 96  1  0  0  0  0
 17 53  2  0  0  0  0
 35 18  1  1  0  0  0
 18 40  1  0  0  0  0
 18 76  1  0  0  0  0
 19 36  1  0  0  0  0
 19 46  1  0  0  0  0
 19 79  1  0  0  0  0
 20 37  2  0  0  0  0
 20 47  1  0  0  0  0
 21 46  1  0  0  0  0
 21 52  1  0  0  0  0
 21 90  1  0  0  0  0
 22 49  1  0  0  0  0
 22 52  2  0  0  0  0
 23 52  1  0  0  0  0
 23 93  1  0  0  0  0
 23 94  1  0  0  0  0
 24 25  1  0  0  0  0
 24 26  1  0  0  0  0
 24 54  1  0  0  0  0
 25 28  1  6  0  0  0
 25 55  1  0  0  0  0
 26 27  1  0  0  0  0
 26 56  1  0  0  0  0
 27 57  1  0  0  0  0
 28 58  1  0  0  0  0
 28 59  1  0  0  0  0
 29 30  1  0  0  0  0
 29 60  1  0  0  0  0
 29 61  1  0  0  0  0
 30 31  1  0  0  0  0
 30 62  1  0  0  0  0
 31 32  1  0  0  0  0
 31 63  1  0  0  0  0
 32 33  1  0  0  0  0
 32 66  1  0  0  0  0
 33 34  1  0  0  0  0
 33 67  1  0  0  0  0
 33 68  1  0  0  0  0
 34 38  2  0  0  0  0
 34 39  1  0  0  0  0
 35 37  1  0  0  0  0
 35 44  1  0  0  0  0
 35 71  1  0  0  0  0
 36 37  1  0  0  0  0
 36 45  1  1  0  0  0
 36 72  1  0  0  0  0
 38 41  1  0  0  0  0
 38 74  1  0  0  0  0
 39 42  2  0  0  0  0
 39 75  1  0  0  0  0
 40 41  2  0  0  0  0
 40 42  1  0  0  0  0
 41 77  1  0  0  0  0
 42 78  1  0  0  0  0
 43 48  1  0  0  0  0
 43 51  1  0  0  0  0
 43 80  1  0  0  0  0
 44 81  1  0  0  0  0
 44 82  1  0  0  0  0
 44 83  1  0  0  0  0
 45 84  1  0  0  0  0
 45 85  1  0  0  0  0
 45 86  1  0  0  0  0
 46 47  2  0  0  0  0
 47 49  1  0  0  0  0
 48 50  1  0  0  0  0
 48 88  1  0  0  0  0
 48 89  1  0  0  0  0
 50 53  1  0  0  0  0
 50 91  1  0  0  0  0
 50 92  1  0  0  0  0
M  END
> <PUBCHEM_COMPOUND_CID>
440843

> <PUBCHEM_COMPOUND_CANONICALIZED>
1

> <PUBCHEM_CACTVS_COMPLEXITY>
1470

> <PUBCHEM_CACTVS_HBOND_ACCEPTOR>
19

> <PUBCHEM_CACTVS_HBOND_DONOR>
12

> <PUBCHEM_CACTVS_ROTATABLE_BOND>
19

> <PUBCHEM_CACTVS_SUBSKEYS>
AAADcfB7vgIAAAAAAAAAAAAAAAAAASAAAAAwQIAAAAAAAACBAAAAHgAQCCAADDzxmAczyILABxCoQyXyfIKCAAEhAgAJiIH4ZMiZcDLA0ZGmYAht0APPyEfa5vgOCAAAAAAAAAAQAAAAAAAAAAAAAAAAAA==

> <PUBCHEM_IUPAC_OPENEYE_NAME>
(2S)-2-[[(2R,3S,4R,5S)-5-[(2R,3S,4S)-5-[4-[[(1R)-1-[(7S)-2-amino-7-methyl-4-oxo-7,8-dihydro-1H-pteridin-6-yl]ethyl]amino]phenyl]-2,3,4-trihydroxy-pentoxy]-3,4-dihydroxy-tetrahydrofuran-2-yl]methoxy-hydroxy-phosphoryl]oxypentanedioic acid

> <PUBCHEM_IUPAC_CAS_NAME>
(2S)-2-[[(2R,3S,4R,5S)-5-[(2R,3S,4S)-5-[4-[[(1R)-1-[(7S)-2-amino-7-methyl-4-oxo-7,8-dihydro-1H-pteridin-6-yl]ethyl]amino]phenyl]-2,3,4-trihydroxypentoxy]-3,4-dihydroxy-2-oxolanyl]methoxy-hydroxyphosphoryl]oxypentanedioic acid

> <PUBCHEM_IUPAC_NAME>
(2S)-2-[[(2R,3S,4R,5S)-5-[(2R,3S,4S)-5-[4-[[(1R)-1-[(7S)-2-amino-7-methyl-4-oxo-7,8-dihydro-1H-pteridin-6-yl]ethyl]amino]phenyl]-2,3,4-trihydroxypentoxy]-3,4-dihydroxyoxolan-2-yl]methoxy-hydroxyphosphoryl]oxypentanedioic acid

> <PUBCHEM_IUPAC_SYSTEMATIC_NAME>
(2S)-2-[[(2R,3S,4R,5S)-5-[(2R,3S,4S)-5-[4-[[(1R)-1-[(7S)-2-azanyl-7-methyl-4-oxidanylidene-7,8-dihydro-1H-pteridin-6-yl]ethyl]amino]phenyl]-2,3,4-tris(oxidanyl)pentoxy]-3,4-bis(oxidanyl)oxolan-2-yl]methoxy-oxidanyl-phosphoryl]oxypentanedioic acid

> <PUBCHEM_IUPAC_TRADITIONAL_NAME>
(2S)-2-[[(2R,3S,4R,5S)-5-[(2R,3S,4S)-5-[4-[[(1R)-1-[(7S)-2-amino-4-keto-7-methyl-7,8-dihydro-1H-pteridin-6-yl]ethyl]amino]phenyl]-2,3,4-trihydroxy-pentoxy]-3,4-dihydroxy-tetrahydrofuran-2-yl]methoxy-hydroxy-phosphoryl]oxyglutaric acid

> <PUBCHEM_IUPAC_INCHI>
InChI=1S/C30H43N6O16P/c1-12(21-13(2)33-26-22(34-21)27(44)36-30(31)35-26)32-15-5-3-14(4-6-15)9-16(37)23(41)17(38)10-49-29-25(43)24(42)19(51-29)11-50-53(47,48)52-18(28(45)46)7-8-20(39)40/h3-6,12-13,16-19,23-25,29,32,37-38,41-43H,7-11H2,1-2H3,(H,39,40)(H,45,46)(H,47,48)(H4,31,33,35,36,44)/t12-,13+,16+,17-,18+,19-,23+,24-,25-,29+/m1/s1

> <PUBCHEM_IUPAC_INCHIKEY>
WTMBWYHMZCVPRJ-WJBIZLLUSA-N

> <PUBCHEM_XLOGP3_AA>
-3.7

> <PUBCHEM_EXACT_MASS>
774.247316

> <PUBCHEM_MOLECULAR_FORMULA>
C30H43N6O16P

> <PUBCHEM_MOLECULAR_WEIGHT>
774.666782

> <PUBCHEM_OPENEYE_CAN_SMILES>
CC1C(=NC2=C(N1)NC(=NC2=O)N)C(C)NC3=CC=C(C=C3)CC(C(C(COC4C(C(C(O4)COP(=O)(O)OC(CCC(=O)O)C(=O)O)O)O)O)O)O

> <PUBCHEM_OPENEYE_ISO_SMILES>
C[C@H]1C(=NC2=C(N1)NC(=NC2=O)N)[C@@H](C)NC3=CC=C(C=C3)C[C@@H]([C@@H]([C@@H](CO[C@@H]4[C@@H]([C@@H]([C@H](O4)COP(=O)(O)O[C@@H](CCC(=O)O)C(=O)O)O)O)O)O)O

> <PUBCHEM_CACTVS_TPSA>
354

> <PUBCHEM_MONOISOTOPIC_WEIGHT>
774.247316

> <PUBCHEM_TOTAL_CHARGE>
0

> <PUBCHEM_HEAVY_ATOM_COUNT>
53

> <PUBCHEM_ATOM_DEF_STEREO_COUNT>
10

> <PUBCHEM_ATOM_UDEF_STEREO_COUNT>
0

> <PUBCHEM_BOND_DEF_STEREO_COUNT>
0

> <PUBCHEM_BOND_UDEF_STEREO_COUNT>
0

> <PUBCHEM_ISOTOPIC_ATOM_COUNT>
0

> <PUBCHEM_COMPONENT_COUNT>
1

> <PUBCHEM_CACTVS_TAUTO_COUNT>
111

> <PUBCHEM_COORDINATE_TYPE>
1
5
255

> <PUBCHEM_BONDANNOTATIONS>
43  10  6
35  18  5
21  46  8
21  52  8
22  49  8
22  52  8
25  28  6
27  3  5
34  38  8
34  39  8
36  45  5
38  41  8
39  42  8
24  4  5
40  41  8
40  42  8
46  47  8
47  49  8
26  5  5
30  7  5
31  8  6
32  9  5

$$$$

