   Color/Form

     * SEVERAL DESMOTROPIC FORMS; USUALLY AMORPHOUS
     * SMALL RHOMBIC CRYSTALS BY SLOW EVAPORATION OF AQ SOLN CONTAINING
       LARGE EXCESS OF AMMONIA
     * NEEDLES OR PLATES FROM AMMONIUM HYDROXIDE

   from [1]HSDB

   Melting Point
        360 DEG C (DECOMP)
   from [2]HSDB

   Dissociation Constants
        B: 6.09X10-4; A: 1.19X10-10 @ 40 DEG C
   from [3]HSDB

   Solubilities

     * FREELY SOL IN DIL ACIDS & AQ POTASSIUM HYDROXIDE SOLN; SPARINGLY
       SOL IN ALCOHOL; ALMOST INSOL IN WATER
     * SOL IN AMMONIUM HYDROXIDE & ALKALI; SLIGHTLY SOL IN ETHER; INSOL IN
       ACETIC ACID, SLIGHTLY SOL IN ETHER

   from [4]HSDB

   Spectral Properties

     * MAX ABSORPTION (WATER, PH 11): 245 NM (LOG E= 3.81); 273 NM (LOG E=
       3.85)
     * MOLAR ABSORBENCY: 11.4X10+3 @ 248 NM IN 0.1 N HYDROGEN CHLORIDE
     * IR: 17446 (Sadtler Research Laboratories Prism Collection)
     * UV: 2625 (Absorption Spectra in the UV and visible Regions,
       Academic Press, New York)
     * MASS: 465 (National Bureau of Standards EPA-NIH Mass Spectra Data
       Base, NSRDS-NBS-63)

   from [5]HSDB

   Other Chemical/Physical Properties

     * MANY COMPD WITH ACIDS, BASES & METALS HAVE BEEN PREPARED
     * CRYSTALLINE POWDER; LOSES WATER @ 100 DEG C & HYDROGEN CHLORIDE @
       200 DEG C; PRACTICALLY INSOL IN WATER, ALC, ETHER; SOL IN
       ACIDULATED WATER /HYDROCHLORIDE/
     * BOILING POINT: SUBLIMES

   from [6]HSDB

   Computed Properties
   Molecular Weight                  151.1261 [g/mol]
   Molecular Formula                 C[5]H[5]N[5]O
   XLogP3                            -1
   H-Bond Donor                      3
   H-Bond Acceptor                   2
   Rotatable Bond Count              0
   Tautomer Count                    26
   Exact Mass                        151.04941
   MonoIsotopic Mass                 151.04941
   Topological Polar Surface Area    96.2
   Heavy Atom Count                  11
   Formal Charge                     0
   Complexity                        225
   Isotope Atom Count                0
   Defined Atom Stereocenter Count   0
   Undefined Atom Stereocenter Count 0
   Defined Bond Stereocenter Count   0
   Undefined Bond Stereocenter Count 0
   Covalently-Bonded Unit Count      1
   Feature 3D Acceptor Count         1
   Feature 3D Donor Count            4
   Feature 3D Cation Count           1
   Feature 3D Ring Count             2
   Effective Rotor Count             0
   Conformer Sampling RMSD           0.4
   CID Conformer Count               [7]1

References

   1. http://toxnet.nlm.nih.gov/cgi-bin/sis/search/r?dbs+hsdb:@term+@rn+@rel+73-40-5
   2. http://toxnet.nlm.nih.gov/cgi-bin/sis/search/r?dbs+hsdb:@term+@rn+@rel+73-40-5
   3. http://toxnet.nlm.nih.gov/cgi-bin/sis/search/r?dbs+hsdb:@term+@rn+@rel+73-40-5
   4. http://toxnet.nlm.nih.gov/cgi-bin/sis/search/r?dbs+hsdb:@term+@rn+@rel+73-40-5
   5. http://toxnet.nlm.nih.gov/cgi-bin/sis/search/r?dbs+hsdb:@term+@rn+@rel+73-40-5
   6. http://toxnet.nlm.nih.gov/cgi-bin/sis/search/r?dbs+hsdb:@term+@rn+@rel+73-40-5
   7. http://pubchem.ncbi.nlm.nih.gov/vw3d/vw3d.cgi?cid=764
