36149
  -OEChem-07051213002D

 22 23  0     0  0  0  0  0  0999 V2000
    4.6783    1.2422    0.0000 N   0  0  0  0  0  0  0  0  0  0  0  0
    4.6783   -0.3673    0.0000 N   0  0  0  0  0  0  0  0  0  0  0  0
    6.2619    0.4375    0.0000 N   0  0  0  0  0  0  0  0  0  0  0  0
    7.7619   -0.4286    0.0000 N   0  0  0  0  0  0  0  0  0  0  0  0
    6.2619   -1.2946    0.0000 N   0  0  0  0  0  0  0  0  0  0  0  0
    3.7320    0.9375    0.0000 C   0  0  0  0  0  0  0  0  0  0  0  0
    3.7320   -0.0625    0.0000 C   0  0  0  0  0  0  0  0  0  0  0  0
    5.2619    0.4375    0.0000 C   0  0  0  0  0  0  0  0  0  0  0  0
    2.8660    1.4375    0.0000 C   0  0  0  0  0  0  0  0  0  0  0  0
    2.8660   -0.5625    0.0000 C   0  0  0  0  0  0  0  0  0  0  0  0
    2.0000    0.9375    0.0000 C   0  0  0  0  0  0  0  0  0  0  0  0
    2.0000   -0.0625    0.0000 C   0  0  0  0  0  0  0  0  0  0  0  0
    6.7619   -0.4286    0.0000 C   0  0  0  0  0  0  0  0  0  0  0  0
    4.8709    1.8315    0.0000 H   0  0  0  0  0  0  0  0  0  0  0  0
    2.8660    2.0575    0.0000 H   0  0  0  0  0  0  0  0  0  0  0  0
    2.8660   -1.1825    0.0000 H   0  0  0  0  0  0  0  0  0  0  0  0
    1.4631    1.2475    0.0000 H   0  0  0  0  0  0  0  0  0  0  0  0
    1.4631   -0.3725    0.0000 H   0  0  0  0  0  0  0  0  0  0  0  0
    8.0719   -0.9655    0.0000 H   0  0  0  0  0  0  0  0  0  0  0  0
    8.0719    0.1084    0.0000 H   0  0  0  0  0  0  0  0  0  0  0  0
    6.5719   -1.8315    0.0000 H   0  0  0  0  0  0  0  0  0  0  0  0
    5.6419   -1.2946    0.0000 H   0  0  0  0  0  0  0  0  0  0  0  0
  1  6  1  0  0  0  0
  1  8  1  0  0  0  0
  1 14  1  0  0  0  0
  2  7  1  0  0  0  0
  2  8  2  0  0  0  0
  3  8  1  0  0  0  0
  3 13  2  0  0  0  0
  4 13  1  0  0  0  0
  4 19  1  0  0  0  0
  4 20  1  0  0  0  0
  5 13  1  0  0  0  0
  5 21  1  0  0  0  0
  5 22  1  0  0  0  0
  6  7  1  0  0  0  0
  6  9  2  0  0  0  0
  7 10  2  0  0  0  0
  9 11  1  0  0  0  0
  9 15  1  0  0  0  0
 10 12  1  0  0  0  0
 10 16  1  0  0  0  0
 11 12  2  0  0  0  0
 11 17  1  0  0  0  0
 12 18  1  0  0  0  0
M  END
> <PUBCHEM_COMPOUND_CID>
36149

> <PUBCHEM_COMPOUND_CANONICALIZED>
1

> <PUBCHEM_CACTVS_COMPLEXITY>
211

> <PUBCHEM_CACTVS_HBOND_ACCEPTOR>
2

> <PUBCHEM_CACTVS_HBOND_DONOR>
3

> <PUBCHEM_CACTVS_ROTATABLE_BOND>
1

> <PUBCHEM_CACTVS_SUBSKEYS>
AAADccBzgAAAAAAAAAAAAAAAAAAAAWAAAAAwAAAAAAAAAFgB8AAAHAAQAAAACAiBFgAx0LbJkACgASRiZACCgC2hEqAJmSAwdJiIaKLAmZGUIAhokAJIyCcQAAAAAAAAAAAAACAAAAAAAAAAQAAAAAAAAA==

> <PUBCHEM_IUPAC_OPENEYE_NAME>
2-(1H-benzimidazol-2-yl)guanidine

> <PUBCHEM_IUPAC_CAS_NAME>
2-(1H-benzimidazol-2-yl)guanidine

> <PUBCHEM_IUPAC_NAME>
2-(1H-benzimidazol-2-yl)guanidine

> <PUBCHEM_IUPAC_SYSTEMATIC_NAME>
2-(1H-benzimidazol-2-yl)guanidine

> <PUBCHEM_IUPAC_TRADITIONAL_NAME>
2-(1H-benzimidazol-2-yl)guanidine

> <PUBCHEM_IUPAC_INCHI>
InChI=1S/C8H9N5/c9-7(10)13-8-11-5-3-1-2-4-6(5)12-8/h1-4H,(H5,9,10,11,12,13)

> <PUBCHEM_IUPAC_INCHIKEY>
JJWCTKUQWXYIIU-UHFFFAOYSA-N

> <PUBCHEM_XLOGP3>
0.1

> <PUBCHEM_EXACT_MASS>
175.085795

> <PUBCHEM_MOLECULAR_FORMULA>
C8H9N5

> <PUBCHEM_MOLECULAR_WEIGHT>
175.19056

> <PUBCHEM_OPENEYE_CAN_SMILES>
C1=CC=C2C(=C1)NC(=N2)N=C(N)N

> <PUBCHEM_OPENEYE_ISO_SMILES>
C1=CC=C2C(=C1)NC(=N2)N=C(N)N

> <PUBCHEM_CACTVS_TPSA>
93.1

> <PUBCHEM_MONOISOTOPIC_WEIGHT>
175.085795

> <PUBCHEM_TOTAL_CHARGE>
0

> <PUBCHEM_HEAVY_ATOM_COUNT>
13

> <PUBCHEM_ATOM_DEF_STEREO_COUNT>
0

> <PUBCHEM_ATOM_UDEF_STEREO_COUNT>
0

> <PUBCHEM_BOND_DEF_STEREO_COUNT>
0

> <PUBCHEM_BOND_UDEF_STEREO_COUNT>
0

> <PUBCHEM_ISOTOPIC_ATOM_COUNT>
0

> <PUBCHEM_COMPONENT_COUNT>
1

> <PUBCHEM_CACTVS_TAUTO_COUNT>
3

> <PUBCHEM_COORDINATE_TYPE>
1
5
255

> <PUBCHEM_BONDANNOTATIONS>
1  6  8
1  8  8
10  12  8
11  12  8
2  7  8
2  8  8
6  7  8
6  9  8
7  10  8
9  11  8

$$$$

