6086
  -OEChem-06261201062D

 45 47  0     1  0  0  0  0  0999 V2000
    2.3053    0.2360    0.0000 O   0  0  0  0  0  0  0  0  0  0  0  0
    2.9383    2.1840    0.0000 O   0  0  0  0  0  0  0  0  0  0  0  0
    7.1138   -1.6204    0.0000 N   0  0  3  0  0  0  0  0  0  0  0  0
    6.6191   -0.0888    0.0000 C   0  0  3  0  0  0  0  0  0  0  0  0
    5.8101   -0.6766    0.0000 C   0  0  3  0  0  0  0  0  0  0  0  0
    7.4218   -0.6752    0.0000 C   0  0  0  0  0  0  0  0  0  0  0  0
    6.1197   -1.6212    0.0000 C   0  0  0  0  0  0  0  0  0  0  0  0
    6.3101    0.8623    0.0000 C   0  0  0  0  0  0  0  0  0  0  0  0
    5.0010   -0.0888    0.0000 C   0  0  0  0  0  0  0  0  0  0  0  0
    5.3101    0.8623    0.0000 C   0  0  0  0  0  0  0  0  0  0  0  0
    7.7016   -2.4294    0.0000 C   0  0  0  0  0  0  0  0  0  0  0  0
    3.9856   -0.3211    0.0000 C   0  0  0  0  0  0  0  0  0  0  0  0
    4.6251    1.6470    0.0000 C   0  0  0  0  0  0  0  0  0  0  0  0
    8.6961   -2.3248    0.0000 C   0  0  0  0  0  0  0  0  0  0  0  0
    3.2827    0.4476    0.0000 C   0  0  0  0  0  0  0  0  0  0  0  0
    3.6046    1.4383    0.0000 C   0  0  0  0  0  0  0  0  0  0  0  0
    9.2839   -3.1339    0.0000 C   0  0  0  0  0  0  0  0  0  0  0  0
   10.2784   -3.0293    0.0000 C   0  0  0  0  0  0  0  0  0  0  0  0
    2.0000   -0.7163    0.0000 C   0  0  0  0  0  0  0  0  0  0  0  0
    3.2510    3.1339    0.0000 C   0  0  0  0  0  0  0  0  0  0  0  0
    7.1211    0.2750    0.0000 H   0  0  0  0  0  0  0  0  0  0  0  0
    5.3089   -1.0417    0.0000 H   0  0  0  0  0  0  0  0  0  0  0  0
    7.9878   -0.9282    0.0000 H   0  0  0  0  0  0  0  0  0  0  0  0
    7.7329   -0.1389    0.0000 H   0  0  0  0  0  0  0  0  0  0  0  0
    5.5135   -1.7513    0.0000 H   0  0  0  0  0  0  0  0  0  0  0  0
    6.1854   -2.2377    0.0000 H   0  0  0  0  0  0  0  0  0  0  0  0
    6.9165    0.9912    0.0000 H   0  0  0  0  0  0  0  0  0  0  0  0
    6.2452    1.4789    0.0000 H   0  0  0  0  0  0  0  0  0  0  0  0
    7.1443   -2.7012    0.0000 H   0  0  0  0  0  0  0  0  0  0  0  0
    7.8724   -3.0254    0.0000 H   0  0  0  0  0  0  0  0  0  0  0  0
    3.8009   -0.9129    0.0000 H   0  0  0  0  0  0  0  0  0  0  0  0
    4.8235    2.2344    0.0000 H   0  0  0  0  0  0  0  0  0  0  0  0
    9.2533   -2.0530    0.0000 H   0  0  0  0  0  0  0  0  0  0  0  0
    8.5252   -1.7289    0.0000 H   0  0  0  0  0  0  0  0  0  0  0  0
    8.7266   -3.4056    0.0000 H   0  0  0  0  0  0  0  0  0  0  0  0
    9.4548   -3.7298    0.0000 H   0  0  0  0  0  0  0  0  0  0  0  0
   10.3432   -3.6459    0.0000 H   0  0  0  0  0  0  0  0  0  0  0  0
   10.8950   -2.9645    0.0000 H   0  0  0  0  0  0  0  0  0  0  0  0
   10.2136   -2.4127    0.0000 H   0  0  0  0  0  0  0  0  0  0  0  0
    1.4096   -0.5270    0.0000 H   0  0  0  0  0  0  0  0  0  0  0  0
    1.8107   -1.3067    0.0000 H   0  0  0  0  0  0  0  0  0  0  0  0
    2.5904   -0.9056    0.0000 H   0  0  0  0  0  0  0  0  0  0  0  0
    3.8399    2.9400    0.0000 H   0  0  0  0  0  0  0  0  0  0  0  0
    3.4448    3.7228    0.0000 H   0  0  0  0  0  0  0  0  0  0  0  0
    2.6621    3.3277    0.0000 H   0  0  0  0  0  0  0  0  0  0  0  0
  1 15  1  0  0  0  0
  1 19  1  0  0  0  0
  2 16  1  0  0  0  0
  2 20  1  0  0  0  0
  3  6  1  0  0  0  0
  3  7  1  0  0  0  0
  3 11  1  0  0  0  0
  4  5  1  0  0  0  0
  4  6  1  0  0  0  0
  4  8  1  0  0  0  0
  4 21  1  0  0  0  0
  5  7  1  0  0  0  0
  5  9  1  0  0  0  0
  5 22  1  0  0  0  0
  6 23  1  0  0  0  0
  6 24  1  0  0  0  0
  7 25  1  0  0  0  0
  7 26  1  0  0  0  0
  8 10  1  0  0  0  0
  8 27  1  0  0  0  0
  8 28  1  0  0  0  0
  9 10  1  0  0  0  0
  9 12  2  0  0  0  0
 10 13  2  0  0  0  0
 11 14  1  0  0  0  0
 11 29  1  0  0  0  0
 11 30  1  0  0  0  0
 12 15  1  0  0  0  0
 12 31  1  0  0  0  0
 13 16  1  0  0  0  0
 13 32  1  0  0  0  0
 14 17  1  0  0  0  0
 14 33  1  0  0  0  0
 14 34  1  0  0  0  0
 15 16  2  0  0  0  0
 17 18  1  0  0  0  0
 17 35  1  0  0  0  0
 17 36  1  0  0  0  0
 18 37  1  0  0  0  0
 18 38  1  0  0  0  0
 18 39  1  0  0  0  0
 19 40  1  0  0  0  0
 19 41  1  0  0  0  0
 19 42  1  0  0  0  0
 20 43  1  0  0  0  0
 20 44  1  0  0  0  0
 20 45  1  0  0  0  0
M  END
> <PUBCHEM_COMPOUND_CID>
6086

> <PUBCHEM_COMPOUND_CANONICALIZED>
1

> <PUBCHEM_CACTVS_COMPLEXITY>
322

> <PUBCHEM_CACTVS_HBOND_ACCEPTOR>
3

> <PUBCHEM_CACTVS_HBOND_DONOR>
0

> <PUBCHEM_CACTVS_ROTATABLE_BOND>
5

> <PUBCHEM_CACTVS_SUBSKEYS>
AAADceB6MAAAAAAAAAAAAAAAAAAAAeIAAAAwAAAAAAAWAGABAAAAHgAAAAAADQTBmAYyBoMABACAAiBCAAACCAAgIAAAiAAOiIgNJiKEsRuEMCIkwBGKqAeQ0PIOoAABAAAQQABAAAIAACCAAQAACAAAAA==

> <PUBCHEM_IUPAC_OPENEYE_NAME>
2-butyl-6,7-dimethoxy-3,3a,4,8b-tetrahydro-1H-indeno[1,2-c]pyrrole

> <PUBCHEM_IUPAC_CAS_NAME>
2-butyl-6,7-dimethoxy-3,3a,4,8b-tetrahydro-1H-indeno[1,2-c]pyrrole

> <PUBCHEM_IUPAC_NAME>
2-butyl-6,7-dimethoxy-3,3a,4,8b-tetrahydro-1H-indeno[1,2-c]pyrrole

> <PUBCHEM_IUPAC_SYSTEMATIC_NAME>
2-butyl-6,7-dimethoxy-3,3a,4,8b-tetrahydro-1H-indeno[1,2-c]pyrrole

> <PUBCHEM_IUPAC_TRADITIONAL_NAME>
2-butyl-6,7-dimethoxy-3,3a,4,8b-tetrahydro-1H-indeno[1,2-c]pyrrole

> <PUBCHEM_IUPAC_INCHI>
InChI=1S/C17H25NO2/c1-4-5-6-18-10-13-7-12-8-16(19-2)17(20-3)9-14(12)15(13)11-18/h8-9,13,15H,4-7,10-11H2,1-3H3

> <PUBCHEM_IUPAC_INCHIKEY>
IILZNIQIFFBVOO-UHFFFAOYSA-N

> <PUBCHEM_XLOGP3_AA>
3.3

> <PUBCHEM_EXACT_MASS>
275.188529

> <PUBCHEM_MOLECULAR_FORMULA>
C17H25NO2

> <PUBCHEM_MOLECULAR_WEIGHT>
275.3859

> <PUBCHEM_OPENEYE_CAN_SMILES>
CCCCN1CC2CC3=CC(=C(C=C3C2C1)OC)OC

> <PUBCHEM_OPENEYE_ISO_SMILES>
CCCCN1CC2CC3=CC(=C(C=C3C2C1)OC)OC

> <PUBCHEM_CACTVS_TPSA>
21.7

> <PUBCHEM_MONOISOTOPIC_WEIGHT>
275.188529

> <PUBCHEM_TOTAL_CHARGE>
0

> <PUBCHEM_HEAVY_ATOM_COUNT>
20

> <PUBCHEM_ATOM_DEF_STEREO_COUNT>
0

> <PUBCHEM_ATOM_UDEF_STEREO_COUNT>
2

> <PUBCHEM_BOND_DEF_STEREO_COUNT>
0

> <PUBCHEM_BOND_UDEF_STEREO_COUNT>
0

> <PUBCHEM_ISOTOPIC_ATOM_COUNT>
0

> <PUBCHEM_COMPONENT_COUNT>
1

> <PUBCHEM_CACTVS_TAUTO_COUNT>
1

> <PUBCHEM_COORDINATE_TYPE>
1
5
255

> <PUBCHEM_BONDANNOTATIONS>
10  13  8
12  15  8
13  16  8
15  16  8
4  8  3
5  7  3
9  10  8
9  12  8

$$$$

