   Color/Form

     * Light-gray powder.
     * White solid /Technical Grade/

   from [1]HSDB

   Odor
        Odorless
   from [2]HSDB

   Melting Point
        Decomposes at 300 deg C
   from [3]HSDB

   Density/Specific Gravity
        1.45 g/cu cm at 20 deg C
   from [4]HSDB

   Dissociation Constants
        pKa = 4.2
   from [5]HSDB

   Octanol/Water Partition Coefficient
        log Kow = 1.52
   from [6]HSDB

   Solubilities

     * Xylene: <1 g/100 g at 20 deg C; Cylcohexanone: < 1 g/100 g
       /Technical grade/
     * Solubility at 20 deg C (mg/l): hexane 0.5; benzene 36;
       dichloromethane 68; ethanol 300; dimethylformamide 5000, chloroform
       100, acetone 300.
     * Solubility in water at 24 deg C: 29 mg/l at pH 4; 8 mg/l at pH 7;
       1.49 mg/l at pH 8.

   from [7]HSDB

   Vapor Pressure
        7.5X10-10 mm Hg at 20 deg C
   from [8]HSDB

   Other Chemical/Physical Properties

     * Systemic fungicide: Benzimidazole family
     * Vapor Pressure: less than 100 nPa at 20 deg C.

   from [9]HSDB

   Computed Properties
   Molecular Weight                  191.18666 [g/mol]
   Molecular Formula                 C[9]H[9]N[3]O[2]
   XLogP3                            1.5
   H-Bond Donor                      2
   H-Bond Acceptor                   3
   Rotatable Bond Count              2
   Tautomer Count                    3
   Exact Mass                        191.069477
   MonoIsotopic Mass                 191.069477
   Topological Polar Surface Area    67
   Heavy Atom Count                  14
   Formal Charge                     0
   Complexity                        222
   Isotope Atom Count                0
   Defined Atom Stereocenter Count   0
   Undefined Atom Stereocenter Count 0
   Defined Bond Stereocenter Count   0
   Undefined Bond Stereocenter Count 0
   Covalently-Bonded Unit Count      1
   Feature 3D Acceptor Count         1
   Feature 3D Donor Count            2
   Feature 3D Ring Count             2
   Effective Rotor Count             3
   Conformer Sampling RMSD           0.6
   CID Conformer Count               [10]2

References

   1. http://toxnet.nlm.nih.gov/cgi-bin/sis/search/r?dbs+hsdb:@term+@rn+@rel+10605-21-7
   2. http://toxnet.nlm.nih.gov/cgi-bin/sis/search/r?dbs+hsdb:@term+@rn+@rel+10605-21-7
   3. http://toxnet.nlm.nih.gov/cgi-bin/sis/search/r?dbs+hsdb:@term+@rn+@rel+10605-21-7
   4. http://toxnet.nlm.nih.gov/cgi-bin/sis/search/r?dbs+hsdb:@term+@rn+@rel+10605-21-7
   5. http://toxnet.nlm.nih.gov/cgi-bin/sis/search/r?dbs+hsdb:@term+@rn+@rel+10605-21-7
   6. http://toxnet.nlm.nih.gov/cgi-bin/sis/search/r?dbs+hsdb:@term+@rn+@rel+10605-21-7
   7. http://toxnet.nlm.nih.gov/cgi-bin/sis/search/r?dbs+hsdb:@term+@rn+@rel+10605-21-7
   8. http://toxnet.nlm.nih.gov/cgi-bin/sis/search/r?dbs+hsdb:@term+@rn+@rel+10605-21-7
   9. http://toxnet.nlm.nih.gov/cgi-bin/sis/search/r?dbs+hsdb:@term+@rn+@rel+10605-21-7
  10. http://pubchem.ncbi.nlm.nih.gov/vw3d/vw3d.cgi?cid=25429
