   Color/Form
        Colorless liquid (Note: A solid below 38 degrees F)
   from [1]HSDB

   Boiling Point
        245 deg C
   from [2]HSDB

   Melting Point
        3.5 deg C
   from [3]HSDB

   Density/Specific Gravity
        1.1109 at 21 deg C
   from [4]HSDB

   Octanol/Water Partition Coefficient
        log Kow = 1.61 (est)
   from [5]HSDB

   Solubilities

     * 12.9% in octane; completely sol in acetone and toluene
     * In water, 2,400 mg/L at 25 deg C

   from [6]HSDB

   Spectral Properties

     * Index of refraction = 1.5307 at 21 deg C
     * IR: 1776 (Coblentz Society Spectral Collection)
     * UV: 9785 (Sadtler Research Laboratories Spectral Collection)
     * MASS: 27119 (NIST/EPA/MSDC Mass Spectral Database, 1990 version);
       475 (Wiley)

   from [7]HSDB

   Vapor Density
        4.37 (Air = 1)
   from [8]HSDB

   Vapor Pressure
        1.0X10-2 mm Hg at 25 deg C
   from [9]HSDB

   Other Chemical/Physical Properties

     * Henry's Law constant = 8.2X10-7 atm-cu m/mol at 25 deg C (est)
     * Hydroxyl radical reaction rate constant = 2.9X10-11 cu cm/molec-sec
       at 25 deg C (est)

   from [10]HSDB

   Computed Properties
   Molecular Weight                  150.1745 [g/mol]
   Molecular Formula                 C[9]H[10]O[2]
   XLogP3-AA                         1.6
   H-Bond Donor                      0
   H-Bond Acceptor                   2
   Rotatable Bond Count              3
   Exact Mass                        150.06808
   MonoIsotopic Mass                 150.06808
   Topological Polar Surface Area    21.8
   Heavy Atom Count                  11
   Formal Charge                     0
   Complexity                        119
   Isotope Atom Count                0
   Defined Atom Stereocenter Count   0
   Undefined Atom Stereocenter Count 1
   Defined Bond Stereocenter Count   0
   Undefined Bond Stereocenter Count 0
   Covalently-Bonded Unit Count      1
   Feature 3D Acceptor Count         2
   Feature 3D Ring Count             1
   Effective Rotor Count             3.6
   Conformer Sampling RMSD           0.6
   CID Conformer Count               [11]17

References

   1. http://toxnet.nlm.nih.gov/cgi-bin/sis/search/r?dbs+hsdb:@term+@rn+@rel+122-60-1
   2. http://toxnet.nlm.nih.gov/cgi-bin/sis/search/r?dbs+hsdb:@term+@rn+@rel+122-60-1
   3. http://toxnet.nlm.nih.gov/cgi-bin/sis/search/r?dbs+hsdb:@term+@rn+@rel+122-60-1
   4. http://toxnet.nlm.nih.gov/cgi-bin/sis/search/r?dbs+hsdb:@term+@rn+@rel+122-60-1
   5. http://toxnet.nlm.nih.gov/cgi-bin/sis/search/r?dbs+hsdb:@term+@rn+@rel+122-60-1
   6. http://toxnet.nlm.nih.gov/cgi-bin/sis/search/r?dbs+hsdb:@term+@rn+@rel+122-60-1
   7. http://toxnet.nlm.nih.gov/cgi-bin/sis/search/r?dbs+hsdb:@term+@rn+@rel+122-60-1
   8. http://toxnet.nlm.nih.gov/cgi-bin/sis/search/r?dbs+hsdb:@term+@rn+@rel+122-60-1
   9. http://toxnet.nlm.nih.gov/cgi-bin/sis/search/r?dbs+hsdb:@term+@rn+@rel+122-60-1
  10. http://toxnet.nlm.nih.gov/cgi-bin/sis/search/r?dbs+hsdb:@term+@rn+@rel+122-60-1
  11. http://pubchem.ncbi.nlm.nih.gov/vw3d/vw3d.cgi?cid=31217
