5281722
  -OEChem-07051212592D

 50 52  0     1  0  0  0  0  0999 V2000
    4.5787    0.1857    0.0000 O   0  0  0  0  0  0  0  0  0  0  0  0
    7.9692    2.0942    0.0000 O   0  0  0  0  0  0  0  0  0  0  0  0
    7.1188   -0.3031    0.0000 O   0  0  0  0  0  0  0  0  0  0  0  0
    2.8660    0.1969    0.0000 O   0  0  0  0  0  0  0  0  0  0  0  0
    6.5309   -2.7355    0.0000 O   0  0  0  0  0  0  0  0  0  0  0  0
    7.9848   -1.7808    0.0000 O   0  0  0  0  0  0  0  0  0  0  0  0
    5.4255    2.6299    0.0000 N   0  0  3  0  0  0  0  0  0  0  0  0
    5.4255    1.6522    0.0000 C   0  0  2  0  0  0  0  0  0  0  0  0
    6.2721    1.1634    0.0000 C   0  0  2  0  0  0  0  0  0  0  0  0
    4.5787    1.1634    0.0000 C   0  0  1  0  0  0  0  0  0  0  0  0
    6.9692    2.0922    0.0000 C   0  0  1  0  0  0  0  0  0  0  0  0
    6.3609    2.8960    0.0000 C   0  0  0  0  0  0  0  0  0  0  0  0
    4.4056    2.8743    0.0000 C   0  0  0  0  0  0  0  0  0  0  0  0
    3.8842    2.0922    0.0000 C   0  0  0  0  0  0  0  0  0  0  0  0
    6.2721    0.1857    0.0000 C   0  0  0  0  0  0  0  0  0  0  0  0
    3.7320   -0.3031    0.0000 C   0  0  0  0  0  0  0  0  0  0  0  0
    7.1188   -1.2808    0.0000 C   0  0  0  0  0  0  0  0  0  0  0  0
    6.2721   -1.7696    0.0000 C   0  0  1  0  0  0  0  0  0  0  0  0
    3.7320   -1.2808    0.0000 C   0  0  0  0  0  0  0  0  0  0  0  0
    4.5787   -1.7696    0.0000 C   0  0  0  0  0  0  0  0  0  0  0  0
    5.4255   -1.2808    0.0000 C   0  0  0  0  0  0  0  0  0  0  0  0
    5.5651   -2.4768    0.0000 C   0  0  0  0  0  0  0  0  0  0  0  0
    2.8660   -1.7808    0.0000 C   0  0  0  0  0  0  0  0  0  0  0  0
    5.4255   -0.2808    0.0000 C   0  0  0  0  0  0  0  0  0  0  0  0
    2.0000   -1.2808    0.0000 C   0  0  0  0  0  0  0  0  0  0  0  0
    5.4255    0.8022    0.0000 H   0  0  0  0  0  0  0  0  0  0  0  0
    7.0785    0.8945    0.0000 H   0  0  0  0  0  0  0  0  0  0  0  0
    3.7721    0.8952    0.0000 H   0  0  0  0  0  0  0  0  0  0  0  0
    7.2469    1.5378    0.0000 H   0  0  0  0  0  0  0  0  0  0  0  0
    6.8976    3.2064    0.0000 H   0  0  0  0  0  0  0  0  0  0  0  0
    6.1190    3.4669    0.0000 H   0  0  0  0  0  0  0  0  0  0  0  0
    4.6198    3.4561    0.0000 H   0  0  0  0  0  0  0  0  0  0  0  0
    3.8529    3.1553    0.0000 H   0  0  0  0  0  0  0  0  0  0  0  0
    3.4106    2.4923    0.0000 H   0  0  0  0  0  0  0  0  0  0  0  0
    3.4329    1.6670    0.0000 H   0  0  0  0  0  0  0  0  0  0  0  0
    5.6615    0.2934    0.0000 H   0  0  0  0  0  0  0  0  0  0  0  0
    6.0601   -0.3969    0.0000 H   0  0  0  0  0  0  0  0  0  0  0  0
    8.2781    2.6317    0.0000 H   0  0  0  0  0  0  0  0  0  0  0  0
    4.1802   -2.2445    0.0000 H   0  0  0  0  0  0  0  0  0  0  0  0
    4.9772   -2.2446    0.0000 H   0  0  0  0  0  0  0  0  0  0  0  0
    5.1266   -2.0384    0.0000 H   0  0  0  0  0  0  0  0  0  0  0  0
    5.1267   -2.9152    0.0000 H   0  0  0  0  0  0  0  0  0  0  0  0
    6.0035   -2.9151    0.0000 H   0  0  0  0  0  0  0  0  0  0  0  0
    2.8660   -2.4008    0.0000 H   0  0  0  0  0  0  0  0  0  0  0  0
    7.1298   -2.8960    0.0000 H   0  0  0  0  0  0  0  0  0  0  0  0
    5.9624    0.0292    0.0000 H   0  0  0  0  0  0  0  0  0  0  0  0
    4.8885    0.0292    0.0000 H   0  0  0  0  0  0  0  0  0  0  0  0
    2.3100   -0.7438    0.0000 H   0  0  0  0  0  0  0  0  0  0  0  0
    1.4631   -0.9708    0.0000 H   0  0  0  0  0  0  0  0  0  0  0  0
    1.6900   -1.8177    0.0000 H   0  0  0  0  0  0  0  0  0  0  0  0
  1 10  1  0  0  0  0
  1 16  1  0  0  0  0
 11  2  1  1  0  0  0
  2 38  1  0  0  0  0
  3 15  1  0  0  0  0
  3 17  1  0  0  0  0
  4 16  2  0  0  0  0
 18  5  1  6  0  0  0
  5 45  1  0  0  0  0
  6 17  2  0  0  0  0
  7  8  1  0  0  0  0
  7 12  1  0  0  0  0
  7 13  1  0  0  0  0
  8  9  1  0  0  0  0
  8 10  1  0  0  0  0
  8 26  1  1  0  0  0
  9 11  1  0  0  0  0
  9 15  1  0  0  0  0
  9 27  1  1  0  0  0
 10 14  1  0  0  0  0
 10 28  1  1  0  0  0
 11 12  1  0  0  0  0
 11 29  1  0  0  0  0
 12 30  1  0  0  0  0
 12 31  1  0  0  0  0
 13 14  1  0  0  0  0
 13 32  1  0  0  0  0
 13 33  1  0  0  0  0
 14 34  1  0  0  0  0
 14 35  1  0  0  0  0
 15 36  1  0  0  0  0
 15 37  1  0  0  0  0
 16 19  1  0  0  0  0
 17 18  1  0  0  0  0
 18 21  1  0  0  0  0
 18 22  1  0  0  0  0
 19 20  1  0  0  0  0
 19 23  2  0  0  0  0
 20 21  1  0  0  0  0
 20 39  1  0  0  0  0
 20 40  1  0  0  0  0
 21 24  2  0  0  0  0
 22 41  1  0  0  0  0
 22 42  1  0  0  0  0
 22 43  1  0  0  0  0
 23 25  1  0  0  0  0
 23 44  1  0  0  0  0
 24 46  1  0  0  0  0
 24 47  1  0  0  0  0
 25 48  1  0  0  0  0
 25 49  1  0  0  0  0
 25 50  1  0  0  0  0
M  END
> <PUBCHEM_COMPOUND_CID>
5281722

> <PUBCHEM_COMPOUND_CANONICALIZED>
1

> <PUBCHEM_CACTVS_COMPLEXITY>
629

> <PUBCHEM_CACTVS_HBOND_ACCEPTOR>
7

> <PUBCHEM_CACTVS_HBOND_DONOR>
2

> <PUBCHEM_CACTVS_ROTATABLE_BOND>
0

> <PUBCHEM_CACTVS_SUBSKEYS>
AAADceB6OAAAAAAAAAAAAAAAAAAAAWLAAAAAAAAAAAAWAAAAAAAAHgAACAAADXzhgAYCCAMABgCIAiDSCAIAAAAgAAAACAFIAEgDFBIAoQAHUAAHwACbMYP4/B5OAAAAAAAAAAAAAAAAAAAAAAAAAAAAAA==

> <PUBCHEM_IUPAC_INCHI>
InChI=1S/C18H25NO6/c1-4-11-7-10(2)18(3,23)17(22)24-9-12-13(20)8-19-6-5-14(15(12)19)25-16(11)21/h4,12-15,20,23H,2,5-9H2,1,3H3/b11-4-/t12-,13+,14+,15+,18+/m0/s1

> <PUBCHEM_IUPAC_INCHIKEY>
MCWACAVORNFEFS-HMNNQIDUSA-N

> <PUBCHEM_XLOGP3_AA>
0.6

> <PUBCHEM_EXACT_MASS>
351.168188

> <PUBCHEM_MOLECULAR_FORMULA>
C18H25NO6

> <PUBCHEM_MOLECULAR_WEIGHT>
351.3942

> <PUBCHEM_OPENEYE_CAN_SMILES>
CC=C1CC(=C)C(C(=O)OCC2C(CN3C2C(CC3)OC1=O)O)(C)O

> <PUBCHEM_OPENEYE_ISO_SMILES>
C/C=C\1/CC(=C)[C@@](C(=O)OC[C@H]2[C@@H](CN3[C@H]2[C@@H](CC3)OC1=O)O)(C)O

> <PUBCHEM_CACTVS_TPSA>
96.3

> <PUBCHEM_MONOISOTOPIC_WEIGHT>
351.168188

> <PUBCHEM_TOTAL_CHARGE>
0

> <PUBCHEM_HEAVY_ATOM_COUNT>
25

> <PUBCHEM_ATOM_DEF_STEREO_COUNT>
5

> <PUBCHEM_ATOM_UDEF_STEREO_COUNT>
0

> <PUBCHEM_BOND_DEF_STEREO_COUNT>
1

> <PUBCHEM_BOND_UDEF_STEREO_COUNT>
0

> <PUBCHEM_ISOTOPIC_ATOM_COUNT>
0

> <PUBCHEM_COMPONENT_COUNT>
1

> <PUBCHEM_CACTVS_TAUTO_COUNT>
1

> <PUBCHEM_COORDINATE_TYPE>
1
5
255

> <PUBCHEM_BONDANNOTATIONS>
10  28  5
11  2  5
18  5  6
8  26  5
9  27  5

$$$$

