   Color/Form
        Light yellow crystals
   from [1]HSDB

   Odor
        Pungent at 23 deg C
   from [2]HSDB

   Melting Point
        115-117 deg C
   from [3]HSDB

   Corrosivity
        No visible changes in commercial packaging (polyethylene jugs)
   following storage at 50 deg C for 91 days. No physical changes in
   plastic containers after 12 months at 25 deg C.
   from [4]HSDB

   Density/Specific Gravity
        1.259 g/mL at 25 deg C
   from [5]HSDB

   Dissociation Constants
        pKa = 7.34 at 20 deg C
   from [6]HSDB

   Octanol/Water Partition Coefficient
        log Kow = 4.1
   from [7]HSDB

   pH
        pH = 5.8 at 25 deg C (1% aqueous solution)
   from [8]HSDB

   Solubilities

     * Solubility in n-hexane 12, acetone 470, toluene 410, diethyl ether
       320, dichloromethane 330, ethanol 150 (all in g/L, 20 deg C)
     * Solubility in methanol 162 g/L, dichloroethane 485 g/L, ethyl
       acetate 624 g/L
     * In water, 1.35X10-1 mg/L at 20 deg C

   from [9]HSDB

   Vapor Pressure
        5.6X10-5 mm Hg at 25 deg C
   from [10]HSDB

   Viscosity
        1040 cP at 20 rpm, 572 cP at 50 rpm, 375 cP at 100 rpm (Brookfield
   viscometer at 25 deg C)
   from [11]HSDB

   Other Chemical/Physical Properties

     * Henry's Law constant = 2.5X10-4 atm-cu m/mol at 25 deg C
       /Estimated/
     * Hydroxyl radical reaction rate constant = 6.6X10-14 cu
       cm/molecule-sec at 25 deg C /Estimated/

   from [12]HSDB

   Computed Properties
   Molecular Weight                  465.091679 [g/mol]
   Molecular Formula                 C[13]H[4]Cl[2]F[6]N[4]O[4]
   XLogP3-AA                         6
   H-Bond Donor                      1
   H-Bond Acceptor                   12
   Rotatable Bond Count              2
   Tautomer Count                    2
   Exact Mass                        463.951379
   MonoIsotopic Mass                 463.951379
   Topological Polar Surface Area    117
   Heavy Atom Count                  29
   Formal Charge                     0
   Complexity                        628
   Isotope Atom Count                0
   Defined Atom Stereocenter Count   0
   Undefined Atom Stereocenter Count 0
   Defined Bond Stereocenter Count   0
   Undefined Bond Stereocenter Count 0
   Covalently-Bonded Unit Count      1
   Feature 3D Acceptor Count         5
   Feature 3D Donor Count            1
   Feature 3D Anion Count            2
   Feature 3D Cation Count           1
   Feature 3D Ring Count             2
   Effective Rotor Count             6
   Conformer Sampling RMSD           0.8
   CID Conformer Count               [13]4

References

   1. http://toxnet.nlm.nih.gov/cgi-bin/sis/search/r?dbs+hsdb:@term+@rn+@rel+79622-59-6
   2. http://toxnet.nlm.nih.gov/cgi-bin/sis/search/r?dbs+hsdb:@term+@rn+@rel+79622-59-6
   3. http://toxnet.nlm.nih.gov/cgi-bin/sis/search/r?dbs+hsdb:@term+@rn+@rel+79622-59-6
   4. http://toxnet.nlm.nih.gov/cgi-bin/sis/search/r?dbs+hsdb:@term+@rn+@rel+79622-59-6
   5. http://toxnet.nlm.nih.gov/cgi-bin/sis/search/r?dbs+hsdb:@term+@rn+@rel+79622-59-6
   6. http://toxnet.nlm.nih.gov/cgi-bin/sis/search/r?dbs+hsdb:@term+@rn+@rel+79622-59-6
   7. http://toxnet.nlm.nih.gov/cgi-bin/sis/search/r?dbs+hsdb:@term+@rn+@rel+79622-59-6
   8. http://toxnet.nlm.nih.gov/cgi-bin/sis/search/r?dbs+hsdb:@term+@rn+@rel+79622-59-6
   9. http://toxnet.nlm.nih.gov/cgi-bin/sis/search/r?dbs+hsdb:@term+@rn+@rel+79622-59-6
  10. http://toxnet.nlm.nih.gov/cgi-bin/sis/search/r?dbs+hsdb:@term+@rn+@rel+79622-59-6
  11. http://toxnet.nlm.nih.gov/cgi-bin/sis/search/r?dbs+hsdb:@term+@rn+@rel+79622-59-6
  12. http://toxnet.nlm.nih.gov/cgi-bin/sis/search/r?dbs+hsdb:@term+@rn+@rel+79622-59-6
  13. http://pubchem.ncbi.nlm.nih.gov/vw3d/vw3d.cgi?cid=91731
