   Color/Form

     * COLORLESS LIQ
     * Light amber liquid

   from [1]HSDB

   Odor
        MERCAPTAN-LIKE ODOR
   from [2]HSDB

   Boiling Point
        82 deg C @ 0.01 mm Hg
   from [3]HSDB

   Corrosivity
        NON-CORROSIVE
   from [4]HSDB

   Density/Specific Gravity
        1.271 @ 25 deg C/4 deg C
   from [5]HSDB

   Octanol/Water Partition Coefficient
        log Kow = 5.33
   from [6]HSDB

   Solubilities

     * Miscible with vegetable oils and most org solvents
     * SOL IN KEROSENE, XYLENE, ALCOHOLS, KETONES, & ESTERS
     * In water, 0.63 mg/l @ 20 deg C [Bowman BT, Sans WW; J Environ Sci
       Health B18: 221-7 (1983)] [7]PubMed Abstract

   from [8]HSDB

   Spectral Properties

     * Intense mass spectral peaks: 157 m/z (100%), 45 m/z (57%), 97 m/z
       (55%), 121 m/z (48%)
     * Index of refraction: 1.597 at 25 deg C

   from [9]HSDB

   Vapor Pressure
        3.0X10-7 mm Hg @ 20 deg C
   from [10]HSDB

   Other Chemical/Physical Properties

     * DENSITY: 1.285 @ 20 DEG C/20 DEG C /TECHNICAL/
     * Pale amber liquid /technical 95%/

   from [11]HSDB

   Computed Properties
   Molecular Weight                  342.865302 [g/mol]
   Molecular Formula                 C[11]H[16]ClO[2]PS[3]
   XLogP3                            5.3
   H-Bond Donor                      0
   H-Bond Acceptor                   5
   Rotatable Bond Count              8
   Exact Mass                        341.973857
   MonoIsotopic Mass                 341.973857
   Topological Polar Surface Area    101
   Heavy Atom Count                  18
   Formal Charge                     0
   Complexity                        263
   Isotope Atom Count                0
   Defined Atom Stereocenter Count   0
   Undefined Atom Stereocenter Count 0
   Defined Bond Stereocenter Count   0
   Undefined Bond Stereocenter Count 0
   Covalently-Bonded Unit Count      1
   Feature 3D Ring Count             1
   Effective Rotor Count             8
   Conformer Sampling RMSD           0.8
   CID Conformer Count               [12]62

References

   1. http://toxnet.nlm.nih.gov/cgi-bin/sis/search/r?dbs+hsdb:@term+@rn+@rel+786-19-6
   2. http://toxnet.nlm.nih.gov/cgi-bin/sis/search/r?dbs+hsdb:@term+@rn+@rel+786-19-6
   3. http://toxnet.nlm.nih.gov/cgi-bin/sis/search/r?dbs+hsdb:@term+@rn+@rel+786-19-6
   4. http://toxnet.nlm.nih.gov/cgi-bin/sis/search/r?dbs+hsdb:@term+@rn+@rel+786-19-6
   5. http://toxnet.nlm.nih.gov/cgi-bin/sis/search/r?dbs+hsdb:@term+@rn+@rel+786-19-6
   6. http://toxnet.nlm.nih.gov/cgi-bin/sis/search/r?dbs+hsdb:@term+@rn+@rel+786-19-6
   7. http://www.ncbi.nlm.nih.gov/entrez/query.fcgi?cmd=Retrieve&db=pubmed&dopt=Abstract&list_uids=6853964
   8. http://toxnet.nlm.nih.gov/cgi-bin/sis/search/r?dbs+hsdb:@term+@rn+@rel+786-19-6
   9. http://toxnet.nlm.nih.gov/cgi-bin/sis/search/r?dbs+hsdb:@term+@rn+@rel+786-19-6
  10. http://toxnet.nlm.nih.gov/cgi-bin/sis/search/r?dbs+hsdb:@term+@rn+@rel+786-19-6
  11. http://toxnet.nlm.nih.gov/cgi-bin/sis/search/r?dbs+hsdb:@term+@rn+@rel+786-19-6
  12. http://pubchem.ncbi.nlm.nih.gov/vw3d/vw3d.cgi?cid=13081
