442487
  -OEChem-07051212582D

 46 48  0     1  0  0  0  0  0999 V2000
    2.0069    2.7788    0.0000 O   0  0  0  0  0  0  0  0  0  0  0  0
    4.3405   -2.6327    0.0000 O   0  0  0  0  0  0  0  0  0  0  0  0
    5.6673   -1.5194    0.0000 O   0  0  0  0  0  0  0  0  0  0  0  0
    3.7229   -0.2627    0.0000 N   0  0  3  0  0  0  0  0  0  0  0  0
    3.7389    0.7788    0.0000 C   0  0  2  0  0  0  0  0  0  0  0  0
    2.8729    1.2788    0.0000 C   0  0  2  0  0  0  0  0  0  0  0  0
    2.0134    0.7840    0.0000 C   0  0  0  0  0  0  0  0  0  0  0  0
    2.8729    2.2788    0.0000 C   0  0  1  0  0  0  0  0  0  0  0  0
    4.3817    0.0127    0.0000 C   0  0  0  0  0  0  0  0  0  0  0  0
    4.6050    1.2788    0.0000 C   0  0  0  0  0  0  0  0  0  0  0  0
    2.8457   -0.7255    0.0000 C   0  0  0  0  0  0  0  0  0  0  0  0
    2.0000   -0.2076    0.0000 C   0  0  0  0  0  0  0  0  0  0  0  0
    3.7389    2.7788    0.0000 C   0  0  0  0  0  0  0  0  0  0  0  0
    4.6209   -0.7905    0.0000 C   0  0  0  0  0  0  0  0  0  0  0  0
    4.6050    2.2788    0.0000 C   0  0  0  0  0  0  0  0  0  0  0  0
    4.0397   -0.9270    0.0000 C   0  0  3  0  0  0  0  0  0  0  0  0
    5.5150    0.7719    0.0000 C   0  0  0  0  0  0  0  0  0  0  0  0
    5.5230   -0.2697    0.0000 C   0  0  0  0  0  0  0  0  0  0  0  0
    3.2737   -1.5697    0.0000 C   0  0  0  0  0  0  0  0  0  0  0  0
    4.6825   -1.6930    0.0000 C   0  0  0  0  0  0  0  0  0  0  0  0
    4.9832   -3.3988    0.0000 C   0  0  0  0  0  0  0  0  0  0  0  0
    2.1370    1.7042    0.0000 H   0  0  0  0  0  0  0  0  0  0  0  0
    1.8045    1.3677    0.0000 H   0  0  0  0  0  0  0  0  0  0  0  0
    1.4019    0.6821    0.0000 H   0  0  0  0  0  0  0  0  0  0  0  0
    2.8729    2.8988    0.0000 H   0  0  0  0  0  0  0  0  0  0  0  0
    4.9186   -0.2973    0.0000 H   0  0  0  0  0  0  0  0  0  0  0  0
    4.7802    0.4877    0.0000 H   0  0  0  0  0  0  0  0  0  0  0  0
    2.4332   -1.1883    0.0000 H   0  0  0  0  0  0  0  0  0  0  0  0
    3.2279   -1.2137    0.0000 H   0  0  0  0  0  0  0  0  0  0  0  0
    1.3914   -0.0892    0.0000 H   0  0  0  0  0  0  0  0  0  0  0  0
    1.7753   -0.7855    0.0000 H   0  0  0  0  0  0  0  0  0  0  0  0
    4.1374    3.2537    0.0000 H   0  0  0  0  0  0  0  0  0  0  0  0
    3.3404    3.2537    0.0000 H   0  0  0  0  0  0  0  0  0  0  0  0
    4.2199   -1.2634    0.0000 H   0  0  0  0  0  0  0  0  0  0  0  0
    5.0182   -1.2665    0.0000 H   0  0  0  0  0  0  0  0  0  0  0  0
    5.1419    2.5888    0.0000 H   0  0  0  0  0  0  0  0  0  0  0  0
    3.3434   -0.4394    0.0000 H   0  0  0  0  0  0  0  0  0  0  0  0
    6.0483    1.0881    0.0000 H   0  0  0  0  0  0  0  0  0  0  0  0
    6.0611   -0.5776    0.0000 H   0  0  0  0  0  0  0  0  0  0  0  0
    2.0069    3.3988    0.0000 H   0  0  0  0  0  0  0  0  0  0  0  0
    2.8752   -1.0947    0.0000 H   0  0  0  0  0  0  0  0  0  0  0  0
    2.7987   -1.9682    0.0000 H   0  0  0  0  0  0  0  0  0  0  0  0
    3.6722   -2.0446    0.0000 H   0  0  0  0  0  0  0  0  0  0  0  0
    4.5083   -3.7973    0.0000 H   0  0  0  0  0  0  0  0  0  0  0  0
    5.3818   -3.8737    0.0000 H   0  0  0  0  0  0  0  0  0  0  0  0
    5.4582   -3.0002    0.0000 H   0  0  0  0  0  0  0  0  0  0  0  0
  8  1  1  6  0  0  0
  1 40  1  0  0  0  0
  2 20  1  0  0  0  0
  2 21  1  0  0  0  0
  3 20  2  0  0  0  0
  4  5  1  0  0  0  0
  4 11  1  0  0  0  0
  4 14  1  0  0  0  0
  5  6  1  0  0  0  0
  5  9  1  6  0  0  0
  5 10  1  0  0  0  0
  6  7  1  0  0  0  0
  6  8  1  0  0  0  0
  6 22  1  1  0  0  0
  7 12  1  0  0  0  0
  7 23  1  0  0  0  0
  7 24  1  0  0  0  0
  8 13  1  0  0  0  0
  8 25  1  0  0  0  0
  9 16  1  0  0  0  0
  9 26  1  0  0  0  0
  9 27  1  0  0  0  0
 10 15  2  0  0  0  0
 10 17  1  0  0  0  0
 11 12  1  0  0  0  0
 11 28  1  0  0  0  0
 11 29  1  0  0  0  0
 12 30  1  0  0  0  0
 12 31  1  0  0  0  0
 13 15  1  0  0  0  0
 13 32  1  0  0  0  0
 13 33  1  0  0  0  0
 14 18  1  0  0  0  0
 14 34  1  0  0  0  0
 14 35  1  0  0  0  0
 15 36  1  0  0  0  0
 16 19  1  0  0  0  0
 16 20  1  0  0  0  0
 16 37  1  0  0  0  0
 17 18  2  0  0  0  0
 17 38  1  0  0  0  0
 18 39  1  0  0  0  0
 19 41  1  0  0  0  0
 19 42  1  0  0  0  0
 19 43  1  0  0  0  0
 21 44  1  0  0  0  0
 21 45  1  0  0  0  0
 21 46  1  0  0  0  0
M  END
> <PUBCHEM_COMPOUND_CID>
442487

> <PUBCHEM_COMPOUND_CANONICALIZED>
1

> <PUBCHEM_CACTVS_COMPLEXITY>
484

> <PUBCHEM_CACTVS_HBOND_ACCEPTOR>
4

> <PUBCHEM_CACTVS_HBOND_DONOR>
1

> <PUBCHEM_CACTVS_ROTATABLE_BOND>
4

> <PUBCHEM_CACTVS_SUBSKEYS>
AAADceB6MAAAAAAAAAAAAAAAAAAAAAAAAAAsQIAAAAAAAACAAAAAHgAACAAADZzhgAYCCAMABgCIAiDSCACAAAAgAAAICAEIAAgIEBIAgQAEQAAGwACIgAO82PKOgAAAAAAAAAAAAAAAAAAAAAAAAAAAAA==

> <PUBCHEM_IUPAC_INCHI>
InChI=1S/C17H25NO3/c1-12(16(20)21-2)11-17-13-5-3-9-18(17)10-4-6-14(17)15(19)8-7-13/h3,5,7,12,14-15,19H,4,6,8-11H2,1-2H3/t12?,14-,15-,17-/m1/s1

> <PUBCHEM_IUPAC_INCHIKEY>
YHPKLMGYAYSJRU-UYPCIZBGSA-N

> <PUBCHEM_XLOGP3_AA>
1.6

> <PUBCHEM_EXACT_MASS>
291.183444

> <PUBCHEM_MOLECULAR_FORMULA>
C17H25NO3

> <PUBCHEM_MOLECULAR_WEIGHT>
291.3853

> <PUBCHEM_OPENEYE_CAN_SMILES>
CC(CC12C3CCCN1CC=CC2=CCC3O)C(=O)OC

> <PUBCHEM_OPENEYE_ISO_SMILES>
CC(C[C@@]12[C@@H]3CCCN1CC=CC2=CC[C@H]3O)C(=O)OC

> <PUBCHEM_CACTVS_TPSA>
49.8

> <PUBCHEM_MONOISOTOPIC_WEIGHT>
291.183444

> <PUBCHEM_TOTAL_CHARGE>
0

> <PUBCHEM_HEAVY_ATOM_COUNT>
21

> <PUBCHEM_ATOM_DEF_STEREO_COUNT>
3

> <PUBCHEM_ATOM_UDEF_STEREO_COUNT>
1

> <PUBCHEM_BOND_DEF_STEREO_COUNT>
0

> <PUBCHEM_BOND_UDEF_STEREO_COUNT>
0

> <PUBCHEM_ISOTOPIC_ATOM_COUNT>
0

> <PUBCHEM_COMPONENT_COUNT>
1

> <PUBCHEM_CACTVS_TAUTO_COUNT>
1

> <PUBCHEM_COORDINATE_TYPE>
1
5
255

> <PUBCHEM_BONDANNOTATIONS>
8  1  6
16  37  3
5  9  6
6  22  5

$$$$

