   Dissociation Constants
        pKa1 = 3.11 (phenyl carboxylic acid); pKa2 = 3.76
   (alpha,beta-unsaturatedcarboxylic acid); pKa3 = 7.08 (N-heterocyclic
   ring) (est)
   from [1]HSDB

   Octanol/Water Partition Coefficient
        log Kow = 6.37 (est)
   from [2]HSDB

   Solubilities
        In water, 1.9X10-2 mg/L at 25 deg C (est)
   from [3]HSDB

   Vapor Pressure
        3.3X10-15 mm Hg at 25 deg C (est)
   from [4]HSDB

   Other Chemical/Physical Properties

     * Henry's Law constant = 5.5X10-17 atm-cu m/mol at 25 deg C (est)
     * Hydroxyl radical reaction rate constant = 1.03X10-10 cu
       cm/molec-sec at 25 deg C (est)
     * Ozone radical reaction rate constant = 1.3X10-11 cu cm/molec-sec at
       25 deg C (est)
     * White to off-white free-flowing crystalline powder. Insoluble in
       water, freely soluble in ethanol and melts between 248 and 250 deg
       C. /Mesylate/
     * White or practically white, crystalline powder, MW 297.74. Slightly
       soluble in water, freely soluble in sodium hydroxide solution.
       /Mesylate-hydrochlorothiazide/

   from [5]HSDB

   Computed Properties
   Molecular Weight                  424.51266 [g/mol]
   Molecular Formula                 C[23]H[24]N[2]O[4]S
   XLogP3-AA                         4.5
   H-Bond Donor                      2
   H-Bond Acceptor                   6
   Rotatable Bond Count              10
   Tautomer Count                    4
   Exact Mass                        424.145678
   MonoIsotopic Mass                 424.145678
   Topological Polar Surface Area    121
   Heavy Atom Count                  30
   Formal Charge                     0
   Complexity                        618
   Isotope Atom Count                0
   Defined Atom Stereocenter Count   0
   Undefined Atom Stereocenter Count 0
   Defined Bond Stereocenter Count   1
   Undefined Bond Stereocenter Count 0
   Covalently-Bonded Unit Count      1
   Feature 3D Acceptor Count         4
   Feature 3D Anion Count            2
   Feature 3D Cation Count           1
   Feature 3D Hydrophobe Count       1
   Feature 3D Ring Count             3
   Effective Rotor Count             10
   Conformer Sampling RMSD           1
   CID Conformer Count               [6]88

References

   1. http://toxnet.nlm.nih.gov/cgi-bin/sis/search/r?dbs+hsdb:@term+@rn+@rel+133040-01-4
   2. http://toxnet.nlm.nih.gov/cgi-bin/sis/search/r?dbs+hsdb:@term+@rn+@rel+133040-01-4
   3. http://toxnet.nlm.nih.gov/cgi-bin/sis/search/r?dbs+hsdb:@term+@rn+@rel+133040-01-4
   4. http://toxnet.nlm.nih.gov/cgi-bin/sis/search/r?dbs+hsdb:@term+@rn+@rel+133040-01-4
   5. http://toxnet.nlm.nih.gov/cgi-bin/sis/search/r?dbs+hsdb:@term+@rn+@rel+133040-01-4
   6. http://pubchem.ncbi.nlm.nih.gov/vw3d/vw3d.cgi?cid=5281037
