161671
  -OEChem-07051212562D

 72 77  0     1  0  0  0  0  0999 V2000
    3.7998   -3.8744    0.0000 O   0  0  0  0  0  0  0  0  0  0  0  0
    2.9176   -4.4086    0.0000 O   0  0  0  0  0  0  0  0  0  0  0  0
    8.7042    0.6144    0.0000 O   0  0  0  0  0  0  0  0  0  0  0  0
    2.9176   -0.3394    0.0000 O   0  0  0  0  0  0  0  0  0  0  0  0
    7.4120    2.6299    0.0000 O   0  0  0  0  0  0  0  0  0  0  0  0
    7.0679    4.3274    0.0000 O   0  0  0  0  0  0  0  0  0  0  0  0
    5.5321   -1.8740    0.0000 C   0  0  2  0  0  0  0  0  0  0  0  0
    3.8000   -2.8740    0.0000 C   0  0  1  0  0  0  0  0  0  0  0  0
    4.6660   -1.3740    0.0000 C   0  0  1  0  0  0  0  0  0  0  0  0
    3.8000   -1.8740    0.0000 C   0  0  2  0  0  0  0  0  0  0  0  0
    6.4421   -1.3671    0.0000 C   0  0  1  0  0  0  0  0  0  0  0  0
    6.4501   -0.3255    0.0000 C   0  0  1  0  0  0  0  0  0  0  0  0
    4.6660   -3.3740    0.0000 C   0  0  1  0  0  0  0  0  0  0  0  0
    5.5321   -2.8740    0.0000 C   0  0  0  0  0  0  0  0  0  0  0  0
    7.4381   -0.0157    0.0000 C   0  0  2  0  0  0  0  0  0  0  0  0
    4.6500   -0.3325    0.0000 C   0  0  0  0  0  0  0  0  0  0  0  0
    5.5480    0.1953    0.0000 C   0  0  0  0  0  0  0  0  0  0  0  0
    7.4252   -1.6921    0.0000 C   0  0  0  0  0  0  0  0  0  0  0  0
    8.0396   -0.8586    0.0000 C   0  0  0  0  0  0  0  0  0  0  0  0
    2.9061   -3.4086    0.0000 C   0  0  2  0  0  0  0  0  0  0  0  0
    3.8000   -0.8740    0.0000 C   0  0  0  0  0  0  0  0  0  0  0  0
    2.9061   -1.3393    0.0000 C   0  0  0  0  0  0  0  0  0  0  0  0
    6.4578    0.6744    0.0000 C   0  0  0  0  0  0  0  0  0  0  0  0
    7.7561    0.9324    0.0000 C   0  0  2  0  0  0  0  0  0  0  0  0
    2.0000   -2.8948    0.0000 C   0  0  0  0  0  0  0  0  0  0  0  0
    2.0000   -1.8532    0.0000 C   0  0  0  0  0  0  0  0  0  0  0  0
    8.0741    1.8805    0.0000 C   0  0  1  0  0  0  0  0  0  0  0  0
    6.8080    1.2504    0.0000 C   0  0  0  0  0  0  0  0  0  0  0  0
    9.0542    2.0791    0.0000 C   0  0  0  0  0  0  0  0  0  0  0  0
    9.3721    3.0272    0.0000 C   0  0  0  0  0  0  0  0  0  0  0  0
    7.7300    3.5780    0.0000 C   0  0  0  0  0  0  0  0  0  0  0  0
    8.7100    3.7767    0.0000 C   0  0  0  0  0  0  0  0  0  0  0  0
   10.3522    3.2259    0.0000 C   0  0  0  0  0  0  0  0  0  0  0  0
    9.0280    4.7248    0.0000 C   0  0  0  0  0  0  0  0  0  0  0  0
    6.2649   -2.3046    0.0000 H   0  0  0  0  0  0  0  0  0  0  0  0
    5.3989   -0.9433    0.0000 H   0  0  0  0  0  0  0  0  0  0  0  0
    6.5222   -2.2134    0.0000 H   0  0  0  0  0  0  0  0  0  0  0  0
    5.0911   -4.1100    0.0000 H   0  0  0  0  0  0  0  0  0  0  0  0
    5.7441   -3.4566    0.0000 H   0  0  0  0  0  0  0  0  0  0  0  0
    6.1426   -2.7663    0.0000 H   0  0  0  0  0  0  0  0  0  0  0  0
    8.2788    0.1097    0.0000 H   0  0  0  0  0  0  0  0  0  0  0  0
    4.4319    0.2479    0.0000 H   0  0  0  0  0  0  0  0  0  0  0  0
    4.0408   -0.4480    0.0000 H   0  0  0  0  0  0  0  0  0  0  0  0
    5.9453    0.6713    0.0000 H   0  0  0  0  0  0  0  0  0  0  0  0
    5.1470    0.6682    0.0000 H   0  0  0  0  0  0  0  0  0  0  0  0
    7.1698   -2.2571    0.0000 H   0  0  0  0  0  0  0  0  0  0  0  0
    7.9602   -2.0055    0.0000 H   0  0  0  0  0  0  0  0  0  0  0  0
    8.4972   -1.2769    0.0000 H   0  0  0  0  0  0  0  0  0  0  0  0
    8.5036   -0.4475    0.0000 H   0  0  0  0  0  0  0  0  0  0  0  0
    2.3721   -3.7238    0.0000 H   0  0  0  0  0  0  0  0  0  0  0  0
    4.4200   -0.8740    0.0000 H   0  0  0  0  0  0  0  0  0  0  0  0
    3.8000   -0.2540    0.0000 H   0  0  0  0  0  0  0  0  0  0  0  0
    3.1800   -0.8740    0.0000 H   0  0  0  0  0  0  0  0  0  0  0  0
    7.0778    0.6697    0.0000 H   0  0  0  0  0  0  0  0  0  0  0  0
    6.4626    1.2944    0.0000 H   0  0  0  0  0  0  0  0  0  0  0  0
    5.8378    0.6792    0.0000 H   0  0  0  0  0  0  0  0  0  0  0  0
    1.4643   -3.2069    0.0000 H   0  0  0  0  0  0  0  0  0  0  0  0
    1.4643   -1.5411    0.0000 H   0  0  0  0  0  0  0  0  0  0  0  0
    7.2410    1.7116    0.0000 H   0  0  0  0  0  0  0  0  0  0  0  0
    7.0052    1.8382    0.0000 H   0  0  0  0  0  0  0  0  0  0  0  0
    6.2202    1.4475    0.0000 H   0  0  0  0  0  0  0  0  0  0  0  0
    6.6109    0.6625    0.0000 H   0  0  0  0  0  0  0  0  0  0  0  0
    2.3843   -4.7248    0.0000 H   0  0  0  0  0  0  0  0  0  0  0  0
    8.8274    0.0068    0.0000 H   0  0  0  0  0  0  0  0  0  0  0  0
    9.0699    1.4593    0.0000 H   0  0  0  0  0  0  0  0  0  0  0  0
    9.6673    1.9871    0.0000 H   0  0  0  0  0  0  0  0  0  0  0  0
   10.4754    2.6183    0.0000 H   0  0  0  0  0  0  0  0  0  0  0  0
   10.9598    3.3491    0.0000 H   0  0  0  0  0  0  0  0  0  0  0  0
   10.2290    3.8336    0.0000 H   0  0  0  0  0  0  0  0  0  0  0  0
    9.6158    4.5276    0.0000 H   0  0  0  0  0  0  0  0  0  0  0  0
    9.2252    5.3126    0.0000 H   0  0  0  0  0  0  0  0  0  0  0  0
    8.4402    4.9219    0.0000 H   0  0  0  0  0  0  0  0  0  0  0  0
  8  1  1  1  0  0  0
  1 13  1  0  0  0  0
 20  2  1  1  0  0  0
  2 63  1  0  0  0  0
 24  3  1  1  0  0  0
  3 64  1  0  0  0  0
  4 22  2  0  0  0  0
  5 27  1  0  0  0  0
  5 31  1  0  0  0  0
  6 31  2  0  0  0  0
  7  9  1  0  0  0  0
  7 11  1  0  0  0  0
  7 14  1  0  0  0  0
  7 35  1  1  0  0  0
  8 10  1  0  0  0  0
  8 13  1  0  0  0  0
  8 20  1  0  0  0  0
  9 10  1  0  0  0  0
  9 16  1  0  0  0  0
  9 36  1  6  0  0  0
 10 21  1  1  0  0  0
 10 22  1  0  0  0  0
 11 12  1  0  0  0  0
 11 18  1  0  0  0  0
 11 37  1  6  0  0  0
 12 15  1  0  0  0  0
 12 17  1  0  0  0  0
 12 23  1  1  0  0  0
 13 14  1  0  0  0  0
 13 38  1  6  0  0  0
 14 39  1  0  0  0  0
 14 40  1  0  0  0  0
 15 19  1  0  0  0  0
 15 24  1  0  0  0  0
 15 41  1  6  0  0  0
 16 17  1  0  0  0  0
 16 42  1  0  0  0  0
 16 43  1  0  0  0  0
 17 44  1  0  0  0  0
 17 45  1  0  0  0  0
 18 19  1  0  0  0  0
 18 46  1  0  0  0  0
 18 47  1  0  0  0  0
 19 48  1  0  0  0  0
 19 49  1  0  0  0  0
 20 25  1  0  0  0  0
 20 50  1  0  0  0  0
 21 51  1  0  0  0  0
 21 52  1  0  0  0  0
 21 53  1  0  0  0  0
 22 26  1  0  0  0  0
 23 54  1  0  0  0  0
 23 55  1  0  0  0  0
 23 56  1  0  0  0  0
 24 27  1  0  0  0  0
 24 28  1  0  0  0  0
 25 26  2  0  0  0  0
 25 57  1  0  0  0  0
 26 58  1  0  0  0  0
 27 29  1  0  0  0  0
 27 59  1  1  0  0  0
 28 60  1  0  0  0  0
 28 61  1  0  0  0  0
 28 62  1  0  0  0  0
 29 30  1  0  0  0  0
 29 65  1  0  0  0  0
 29 66  1  0  0  0  0
 30 32  2  0  0  0  0
 30 33  1  0  0  0  0
 31 32  1  0  0  0  0
 32 34  1  0  0  0  0
 33 67  1  0  0  0  0
 33 68  1  0  0  0  0
 33 69  1  0  0  0  0
 34 70  1  0  0  0  0
 34 71  1  0  0  0  0
 34 72  1  0  0  0  0
M  END
> <PUBCHEM_COMPOUND_CID>
161671

> <PUBCHEM_COMPOUND_CANONICALIZED>
1

> <PUBCHEM_CACTVS_COMPLEXITY>
1030

> <PUBCHEM_CACTVS_HBOND_ACCEPTOR>
6

> <PUBCHEM_CACTVS_HBOND_DONOR>
2

> <PUBCHEM_CACTVS_ROTATABLE_BOND>
2

> <PUBCHEM_CACTVS_SUBSKEYS>
AAADcfB4OAAAAAAAAAAAAAAAEgAAAYAAAAAwYIEABIAAAGDAAAAAGgAACAAAD1SggAICCAAABgCIAqDSCAAAAAAgAAAICAEAAEgBFBYAIQACUAAF4AALMYOKyPCPgAAAAAAAAADAAAYAADAAAQAACAAAAA==

> <PUBCHEM_IUPAC_INCHI>
InChI=1S/C28H38O6/c1-14-12-22(33-24(31)15(14)2)27(5,32)19-7-6-17-16-13-23-28(34-23)21(30)9-8-20(29)26(28,4)18(16)10-11-25(17,19)3/h8-9,16-19,21-23,30,32H,6-7,10-13H2,1-5H3/t16-,17-,18-,19-,21-,22+,23+,25-,26-,27+,28+/m0/s1

> <PUBCHEM_IUPAC_INCHIKEY>
SASUFNRGCZMRFD-JCUIILOWSA-N

> <PUBCHEM_XLOGP3_AA>
3.1

> <PUBCHEM_EXACT_MASS>
470.266839

> <PUBCHEM_MOLECULAR_FORMULA>
C28H38O6

> <PUBCHEM_MOLECULAR_WEIGHT>
470.59772

> <PUBCHEM_OPENEYE_CAN_SMILES>
CC1=C(C(=O)OC(C1)C(C)(C2CCC3C2(CCC4C3CC5C6(C4(C(=O)C=CC6O)C)O5)C)O)C

> <PUBCHEM_OPENEYE_ISO_SMILES>
CC1=C(C(=O)O[C@H](C1)[C@@](C)([C@H]2CC[C@@H]3[C@@]2(CC[C@H]4[C@H]3C[C@@H]5[C@]6([C@@]4(C(=O)C=C[C@@H]6O)C)O5)C)O)C

> <PUBCHEM_CACTVS_TPSA>
96.4

> <PUBCHEM_MONOISOTOPIC_WEIGHT>
470.266839

> <PUBCHEM_TOTAL_CHARGE>
0

> <PUBCHEM_HEAVY_ATOM_COUNT>
34

> <PUBCHEM_ATOM_DEF_STEREO_COUNT>
11

> <PUBCHEM_ATOM_UDEF_STEREO_COUNT>
0

> <PUBCHEM_BOND_DEF_STEREO_COUNT>
0

> <PUBCHEM_BOND_UDEF_STEREO_COUNT>
0

> <PUBCHEM_ISOTOPIC_ATOM_COUNT>
0

> <PUBCHEM_COMPONENT_COUNT>
1

> <PUBCHEM_CACTVS_TAUTO_COUNT>
1

> <PUBCHEM_COORDINATE_TYPE>
1
5
255

> <PUBCHEM_BONDANNOTATIONS>
8  1  5
10  21  5
11  37  6
12  23  5
13  38  6
15  41  6
20  2  5
27  59  5
24  3  5
7  35  5
9  36  6

$$$$

