441976
  -OEChem-07051212562D

 46 50  0     1  0  0  0  0  0999 V2000
    7.6789    0.7134    0.0000 O   0  0  0  0  0  0  0  0  0  0  0  0
    6.8129    2.2134    0.0000 O   0  0  0  0  0  0  0  0  0  0  0  0
    3.3369   -0.5600    0.0000 N   0  0  3  0  0  0  0  0  0  0  0  0
    4.9022    2.1512    0.0000 N   0  0  0  0  0  0  0  0  0  0  0  0
    4.2620    0.7134    0.0000 C   0  0  2  0  0  0  0  0  0  0  0  0
    4.2620   -0.2594    0.0000 C   0  0  2  0  0  0  0  0  0  0  0  0
    3.3369    1.0139    0.0000 C   0  0  0  0  0  0  0  0  0  0  0  0
    5.1045   -0.7458    0.0000 C   0  0  0  0  0  0  0  0  0  0  0  0
    5.9469   -0.2594    0.0000 C   0  0  2  0  0  0  0  0  0  0  0  0
    5.1045    1.1997    0.0000 C   0  0  0  0  0  0  0  0  0  0  0  0
    2.7652    0.2270    0.0000 C   0  0  0  0  0  0  0  0  0  0  0  0
    3.5392    1.3642    0.0000 C   0  0  0  0  0  0  0  0  0  0  0  0
    4.1101   -1.3078    0.0000 C   0  0  0  0  0  0  0  0  0  0  0  0
    5.9469    0.7134    0.0000 C   0  0  0  0  0  0  0  0  0  0  0  0
    5.3422   -1.3078    0.0000 C   0  0  0  0  0  0  0  0  0  0  0  0
    3.9348    2.2529    0.0000 C   0  0  0  0  0  0  0  0  0  0  0  0
    2.5718    1.2626    0.0000 C   0  0  0  0  0  0  0  0  0  0  0  0
    6.8129    1.2134    0.0000 C   0  0  0  0  0  0  0  0  0  0  0  0
    5.8422   -2.1738    0.0000 C   0  0  0  0  0  0  0  0  0  0  0  0
    3.3630    3.0398    0.0000 C   0  0  0  0  0  0  0  0  0  0  0  0
    2.0000    2.0495    0.0000 C   0  0  0  0  0  0  0  0  0  0  0  0
    2.3956    2.9382    0.0000 C   0  0  0  0  0  0  0  0  0  0  0  0
    5.3422   -3.0398    0.0000 C   0  0  0  0  0  0  0  0  0  0  0  0
    8.5450    1.2134    0.0000 C   0  0  0  0  0  0  0  0  0  0  0  0
    3.7928   -0.9681    0.0000 H   0  0  0  0  0  0  0  0  0  0  0  0
    3.5891    1.5803    0.0000 H   0  0  0  0  0  0  0  0  0  0  0  0
    2.8000    1.3239    0.0000 H   0  0  0  0  0  0  0  0  0  0  0  0
    4.7059   -1.2207    0.0000 H   0  0  0  0  0  0  0  0  0  0  0  0
    5.5030   -1.2207    0.0000 H   0  0  0  0  0  0  0  0  0  0  0  0
    6.7680   -0.4792    0.0000 H   0  0  0  0  0  0  0  0  0  0  0  0
    2.3044    0.6418    0.0000 H   0  0  0  0  0  0  0  0  0  0  0  0
    2.3044   -0.1879    0.0000 H   0  0  0  0  0  0  0  0  0  0  0  0
    3.5767   -1.6237    0.0000 H   0  0  0  0  0  0  0  0  0  0  0  0
    4.2739   -1.9058    0.0000 H   0  0  0  0  0  0  0  0  0  0  0  0
    5.2666    2.6528    0.0000 H   0  0  0  0  0  0  0  0  0  0  0  0
    2.3196    0.6962    0.0000 H   0  0  0  0  0  0  0  0  0  0  0  0
    6.4622   -2.1738    0.0000 H   0  0  0  0  0  0  0  0  0  0  0  0
    3.6152    3.6062    0.0000 H   0  0  0  0  0  0  0  0  0  0  0  0
    1.3834    1.9847    0.0000 H   0  0  0  0  0  0  0  0  0  0  0  0
    2.0312    3.4398    0.0000 H   0  0  0  0  0  0  0  0  0  0  0  0
    4.8053   -2.7298    0.0000 H   0  0  0  0  0  0  0  0  0  0  0  0
    5.0322   -3.5768    0.0000 H   0  0  0  0  0  0  0  0  0  0  0  0
    5.8792   -3.3498    0.0000 H   0  0  0  0  0  0  0  0  0  0  0  0
    8.8550    0.6764    0.0000 H   0  0  0  0  0  0  0  0  0  0  0  0
    9.0819    1.5234    0.0000 H   0  0  0  0  0  0  0  0  0  0  0  0
    8.2350    1.7503    0.0000 H   0  0  0  0  0  0  0  0  0  0  0  0
  1 18  1  0  0  0  0
  1 24  1  0  0  0  0
  2 18  2  0  0  0  0
  3  6  1  0  0  0  0
  3 11  1  0  0  0  0
  3 13  1  0  0  0  0
  4 10  1  0  0  0  0
  4 16  1  0  0  0  0
  4 35  1  0  0  0  0
  5  6  1  0  0  0  0
  5  7  1  0  0  0  0
  5 10  1  0  0  0  0
  5 12  1  1  0  0  0
  6  8  1  0  0  0  0
  6 25  1  1  0  0  0
  7 11  1  0  0  0  0
  7 26  1  0  0  0  0
  7 27  1  0  0  0  0
  8  9  1  0  0  0  0
  8 28  1  0  0  0  0
  8 29  1  0  0  0  0
  9 14  1  0  0  0  0
  9 15  1  0  0  0  0
  9 30  1  1  0  0  0
 10 14  2  0  0  0  0
 11 31  1  0  0  0  0
 11 32  1  0  0  0  0
 12 16  1  0  0  0  0
 12 17  2  0  0  0  0
 13 15  1  0  0  0  0
 13 33  1  0  0  0  0
 13 34  1  0  0  0  0
 14 18  1  0  0  0  0
 15 19  2  3  0  0  0
 16 20  2  0  0  0  0
 17 21  1  0  0  0  0
 17 36  1  0  0  0  0
 19 23  1  0  0  0  0
 19 37  1  0  0  0  0
 20 22  1  0  0  0  0
 20 38  1  0  0  0  0
 21 22  2  0  0  0  0
 21 39  1  0  0  0  0
 22 40  1  0  0  0  0
 23 41  1  0  0  0  0
 23 42  1  0  0  0  0
 23 43  1  0  0  0  0
 24 44  1  0  0  0  0
 24 45  1  0  0  0  0
 24 46  1  0  0  0  0
M  END
> <PUBCHEM_COMPOUND_CID>
441976

> <PUBCHEM_COMPOUND_CANONICALIZED>
1

> <PUBCHEM_CACTVS_COMPLEXITY>
652

> <PUBCHEM_CACTVS_HBOND_ACCEPTOR>
4

> <PUBCHEM_CACTVS_HBOND_DONOR>
1

> <PUBCHEM_CACTVS_ROTATABLE_BOND>
2

> <PUBCHEM_CACTVS_SUBSKEYS>
AAADceB7MAAAAAAAAAAAAAAAAAAAAWLAAAA8QIAAAAAQAFgBAAAAHgAQAAAADyjBmAYyyIPABACIAiTSSACCAAAhAgAIiAEIZMgIJDLA8ZGEMAhkkADI6UeY2eOfgAAAAAACAAAAAAAAAAQAAAAAAAAAAA==

> <PUBCHEM_IUPAC_INCHI>
InChI=1S/C20H22N2O2/c1-3-12-11-22-9-8-20-14-6-4-5-7-15(14)21-18(20)17(19(23)24-2)13(12)10-16(20)22/h3-7,13,16,21H,8-11H2,1-2H3/t13-,16-,20+/m0/s1

> <PUBCHEM_IUPAC_INCHIKEY>
AGZMFTKKLPHOMT-ZSOFBXJNSA-N

> <PUBCHEM_XLOGP3_AA>
2.4

> <PUBCHEM_EXACT_MASS>
322.168128

> <PUBCHEM_MOLECULAR_FORMULA>
C20H22N2O2

> <PUBCHEM_MOLECULAR_WEIGHT>
322.40088

> <PUBCHEM_OPENEYE_CAN_SMILES>
CC=C1CN2CCC34C2CC1C(=C3NC5=CC=CC=C45)C(=O)OC

> <PUBCHEM_OPENEYE_ISO_SMILES>
CC=C1CN2CC[C@@]34[C@@H]2C[C@@H]1C(=C3NC5=CC=CC=C45)C(=O)OC

> <PUBCHEM_CACTVS_TPSA>
41.6

> <PUBCHEM_MONOISOTOPIC_WEIGHT>
322.168128

> <PUBCHEM_TOTAL_CHARGE>
0

> <PUBCHEM_HEAVY_ATOM_COUNT>
24

> <PUBCHEM_ATOM_DEF_STEREO_COUNT>
3

> <PUBCHEM_ATOM_UDEF_STEREO_COUNT>
0

> <PUBCHEM_BOND_DEF_STEREO_COUNT>
0

> <PUBCHEM_BOND_UDEF_STEREO_COUNT>
1

> <PUBCHEM_ISOTOPIC_ATOM_COUNT>
0

> <PUBCHEM_COMPONENT_COUNT>
1

> <PUBCHEM_CACTVS_TAUTO_COUNT>
3

> <PUBCHEM_COORDINATE_TYPE>
1
5
255

> <PUBCHEM_BONDANNOTATIONS>
12  16  8
12  17  8
15  19  1
16  20  8
17  21  8
20  22  8
21  22  8
5  12  5
6  25  5
9  30  5

$$$$

