54706138
  -OEChem-07051213022D

 86 90  0     1  0  0  0  0  0999 V2000
   11.5426    3.9220    0.0000 Cl  0  0  0  0  0  0  0  0  0  0  0  0
   15.0564    2.9182    0.0000 O   0  0  0  0  0  0  0  0  0  0  0  0
   16.7961    0.9249    0.0000 O   0  0  0  0  0  0  0  0  0  0  0  0
   15.0680   -0.0817    0.0000 O   0  0  0  0  0  0  0  0  0  0  0  0
   13.3244    2.9116    0.0000 O   0  0  0  0  0  0  0  0  0  0  0  0
   13.3321    0.9116    0.0000 O   0  0  0  0  0  0  0  0  0  0  0  0
   16.8000   -0.0750    0.0000 O   0  0  0  0  0  0  0  0  0  0  0  0
    9.7942    2.8874    0.0000 O   0  0  0  0  0  0  0  0  0  0  0  0
    9.7942   -0.1126    0.0000 O   0  0  0  0  0  0  0  0  0  0  0  0
    8.0622    2.8874    0.0000 O   0  0  0  0  0  0  0  0  0  0  0  0
    7.1962    2.3874    0.0000 O   0  0  0  0  0  0  0  0  0  0  0  0
    3.7320   -0.6126    0.0000 O   0  0  0  0  0  0  0  0  0  0  0  0
   16.7510   -2.1630    0.0000 N   0  0  0  0  0  0  0  0  0  0  0  0
    8.0622    0.8874    0.0000 N   0  0  0  0  0  0  0  0  0  0  0  0
   15.9243    2.4216    0.0000 C   0  0  0  0  0  0  0  0  0  0  0  0
   15.9282    1.4216    0.0000 C   0  0  1  0  0  0  0  0  0  0  0  0
   15.0641    0.9183    0.0000 C   0  0  2  0  0  0  0  0  0  0  0  0
   14.1962    1.4149    0.0000 C   0  0  2  0  0  0  0  0  0  0  0  0
   14.1923    2.4149    0.0000 C   0  0  1  0  0  0  0  0  0  0  0  0
   16.9243    2.4254    0.0000 C   0  0  0  0  0  0  0  0  0  0  0  0
   16.4210    3.2895    0.0000 C   0  0  0  0  0  0  0  0  0  0  0  0
   17.6602    1.4283    0.0000 C   0  0  0  0  0  0  0  0  0  0  0  0
   15.9359   -0.5784    0.0000 C   0  0  0  0  0  0  0  0  0  0  0  0
   12.4603    2.4082    0.0000 C   0  0  0  0  0  0  0  0  0  0  0  0
   15.9398   -1.5784    0.0000 C   0  0  0  0  0  0  0  0  0  0  0  0
   11.5542    2.9221    0.0000 C   0  0  0  0  0  0  0  0  0  0  0  0
   12.4603    1.3666    0.0000 C   0  0  0  0  0  0  0  0  0  0  0  0
   10.6603    2.3874    0.0000 C   0  0  0  0  0  0  0  0  0  0  0  0
   15.1330   -2.1693    0.0000 C   0  0  0  0  0  0  0  0  0  0  0  0
   11.5542    0.8528    0.0000 C   0  0  0  0  0  0  0  0  0  0  0  0
   10.6603    1.3874    0.0000 C   0  0  0  0  0  0  0  0  0  0  0  0
   16.4457   -3.1153    0.0000 C   0  0  0  0  0  0  0  0  0  0  0  0
   15.4457   -3.1191    0.0000 C   0  0  0  0  0  0  0  0  0  0  0  0
    9.7942    0.8874    0.0000 C   0  0  0  0  0  0  0  0  0  0  0  0
   17.0366   -3.9220    0.0000 C   0  0  0  0  0  0  0  0  0  0  0  0
    8.9282    1.3874    0.0000 C   0  0  0  0  0  0  0  0  0  0  0  0
    8.9282    2.3874    0.0000 C   0  0  0  0  0  0  0  0  0  0  0  0
    7.1962    1.3874    0.0000 C   0  0  0  0  0  0  0  0  0  0  0  0
    6.3301    0.8874    0.0000 C   0  0  0  0  0  0  0  0  0  0  0  0
    5.4641    1.3874    0.0000 C   0  0  0  0  0  0  0  0  0  0  0  0
    4.5981    0.8874    0.0000 C   0  0  0  0  0  0  0  0  0  0  0  0
    6.3301   -0.1126    0.0000 C   0  0  0  0  0  0  0  0  0  0  0  0
    3.7320    1.3874    0.0000 C   0  0  0  0  0  0  0  0  0  0  0  0
    4.5981   -0.1126    0.0000 C   0  0  0  0  0  0  0  0  0  0  0  0
    5.4641   -0.6126    0.0000 C   0  0  0  0  0  0  0  0  0  0  0  0
    3.7320    2.3874    0.0000 C   0  0  0  0  0  0  0  0  0  0  0  0
    2.8660    2.8874    0.0000 C   0  0  0  0  0  0  0  0  0  0  0  0
    2.8660    3.8874    0.0000 C   0  0  0  0  0  0  0  0  0  0  0  0
    2.0000    2.3874    0.0000 C   0  0  0  0  0  0  0  0  0  0  0  0
   16.4639    1.7337    0.0000 H   0  0  0  0  0  0  0  0  0  0  0  0
   14.5284    0.6062    0.0000 H   0  0  0  0  0  0  0  0  0  0  0  0
   14.1985    0.7949    0.0000 H   0  0  0  0  0  0  0  0  0  0  0  0
   14.1899    3.0349    0.0000 H   0  0  0  0  0  0  0  0  0  0  0  0
   16.9267    1.8055    0.0000 H   0  0  0  0  0  0  0  0  0  0  0  0
   17.5443    2.4278    0.0000 H   0  0  0  0  0  0  0  0  0  0  0  0
   16.9219    3.0455    0.0000 H   0  0  0  0  0  0  0  0  0  0  0  0
   16.9591    2.9816    0.0000 H   0  0  0  0  0  0  0  0  0  0  0  0
   16.7289    3.8277    0.0000 H   0  0  0  0  0  0  0  0  0  0  0  0
   15.8829    3.5975    0.0000 H   0  0  0  0  0  0  0  0  0  0  0  0
   13.3345    0.2916    0.0000 H   0  0  0  0  0  0  0  0  0  0  0  0
   17.9723    0.8925    0.0000 H   0  0  0  0  0  0  0  0  0  0  0  0
   18.1960    1.7404    0.0000 H   0  0  0  0  0  0  0  0  0  0  0  0
   17.3482    1.9640    0.0000 H   0  0  0  0  0  0  0  0  0  0  0  0
   12.9960    1.0546    0.0000 H   0  0  0  0  0  0  0  0  0  0  0  0
   17.3399   -1.9692    0.0000 H   0  0  0  0  0  0  0  0  0  0  0  0
   14.5426   -1.9800    0.0000 H   0  0  0  0  0  0  0  0  0  0  0  0
   11.5470    0.2328    0.0000 H   0  0  0  0  0  0  0  0  0  0  0  0
   15.0832   -3.6221    0.0000 H   0  0  0  0  0  0  0  0  0  0  0  0
   16.5364   -4.2884    0.0000 H   0  0  0  0  0  0  0  0  0  0  0  0
   17.4029   -4.4222    0.0000 H   0  0  0  0  0  0  0  0  0  0  0  0
   17.5368   -3.5557    0.0000 H   0  0  0  0  0  0  0  0  0  0  0  0
    8.0622    0.2674    0.0000 H   0  0  0  0  0  0  0  0  0  0  0  0
   10.3312   -0.4226    0.0000 H   0  0  0  0  0  0  0  0  0  0  0  0
    5.4641    2.0074    0.0000 H   0  0  0  0  0  0  0  0  0  0  0  0
    6.8671   -0.4226    0.0000 H   0  0  0  0  0  0  0  0  0  0  0  0
    3.1215    1.4951    0.0000 H   0  0  0  0  0  0  0  0  0  0  0  0
    3.5200    0.8048    0.0000 H   0  0  0  0  0  0  0  0  0  0  0  0
    5.4641   -1.2326    0.0000 H   0  0  0  0  0  0  0  0  0  0  0  0
    4.2690    2.6974    0.0000 H   0  0  0  0  0  0  0  0  0  0  0  0
    3.7320   -1.2326    0.0000 H   0  0  0  0  0  0  0  0  0  0  0  0
    3.4860    3.8874    0.0000 H   0  0  0  0  0  0  0  0  0  0  0  0
    2.8660    4.5074    0.0000 H   0  0  0  0  0  0  0  0  0  0  0  0
    2.2460    3.8874    0.0000 H   0  0  0  0  0  0  0  0  0  0  0  0
    1.6900    2.9244    0.0000 H   0  0  0  0  0  0  0  0  0  0  0  0
    1.4631    2.0774    0.0000 H   0  0  0  0  0  0  0  0  0  0  0  0
    2.3100    1.8505    0.0000 H   0  0  0  0  0  0  0  0  0  0  0  0
  1 26  1  0  0  0  0
  2 15  1  0  0  0  0
  2 19  1  0  0  0  0
 16  3  1  6  0  0  0
  3 22  1  0  0  0  0
 17  4  1  1  0  0  0
  4 23  1  0  0  0  0
 19  5  1  6  0  0  0
  5 24  1  0  0  0  0
 18  6  1  1  0  0  0
  6 60  1  0  0  0  0
  7 23  2  0  0  0  0
  8 28  1  0  0  0  0
  8 37  1  0  0  0  0
  9 34  1  0  0  0  0
  9 73  1  0  0  0  0
 10 37  2  0  0  0  0
 11 38  2  0  0  0  0
 12 44  1  0  0  0  0
 12 80  1  0  0  0  0
 13 25  1  0  0  0  0
 13 32  1  0  0  0  0
 13 65  1  0  0  0  0
 14 36  1  0  0  0  0
 14 38  1  0  0  0  0
 14 72  1  0  0  0  0
 15 16  1  0  0  0  0
 15 20  1  0  0  0  0
 15 21  1  0  0  0  0
 16 17  1  0  0  0  0
 16 50  1  0  0  0  0
 17 18  1  0  0  0  0
 17 51  1  0  0  0  0
 18 19  1  0  0  0  0
 18 52  1  0  0  0  0
 19 53  1  0  0  0  0
 20 54  1  0  0  0  0
 20 55  1  0  0  0  0
 20 56  1  0  0  0  0
 21 57  1  0  0  0  0
 21 58  1  0  0  0  0
 21 59  1  0  0  0  0
 22 61  1  0  0  0  0
 22 62  1  0  0  0  0
 22 63  1  0  0  0  0
 23 25  1  0  0  0  0
 24 26  2  0  0  0  0
 24 27  1  0  0  0  0
 25 29  2  0  0  0  0
 26 28  1  0  0  0  0
 27 30  2  0  0  0  0
 27 64  1  0  0  0  0
 28 31  2  0  0  0  0
 29 33  1  0  0  0  0
 29 66  1  0  0  0  0
 30 31  1  0  0  0  0
 30 67  1  0  0  0  0
 31 34  1  0  0  0  0
 32 33  2  0  0  0  0
 32 35  1  0  0  0  0
 33 68  1  0  0  0  0
 34 36  2  0  0  0  0
 35 69  1  0  0  0  0
 35 70  1  0  0  0  0
 35 71  1  0  0  0  0
 36 37  1  0  0  0  0
 38 39  1  0  0  0  0
 39 40  2  0  0  0  0
 39 42  1  0  0  0  0
 40 41  1  0  0  0  0
 40 74  1  0  0  0  0
 41 43  1  0  0  0  0
 41 44  2  0  0  0  0
 42 45  2  0  0  0  0
 42 75  1  0  0  0  0
 43 46  1  0  0  0  0
 43 76  1  0  0  0  0
 43 77  1  0  0  0  0
 44 45  1  0  0  0  0
 45 78  1  0  0  0  0
 46 47  2  0  0  0  0
 46 79  1  0  0  0  0
 47 48  1  0  0  0  0
 47 49  1  0  0  0  0
 48 81  1  0  0  0  0
 48 82  1  0  0  0  0
 48 83  1  0  0  0  0
 49 84  1  0  0  0  0
 49 85  1  0  0  0  0
 49 86  1  0  0  0  0
M  END
> <PUBCHEM_COMPOUND_CID>
54706138

> <PUBCHEM_COMPOUND_CANONICALIZED>
1

> <PUBCHEM_CACTVS_COMPLEXITY>
1300

> <PUBCHEM_CACTVS_HBOND_ACCEPTOR>
11

> <PUBCHEM_CACTVS_HBOND_DONOR>
5

> <PUBCHEM_CACTVS_ROTATABLE_BOND>
10

> <PUBCHEM_CACTVS_SUBSKEYS>
AAADcfB/PAAEAAAAAAAAAAAAAAAAAWAAAAA0YIEAAAAAAACB0AAAHgIQCAAADF6xniMyjpLJlgCoAyXyXASCiCAnJmAImSG2b9gfN/PHt7uneyjl1BXf+YfY/f/eIAACKAAICABAAARQABAQAAAAAAAAAA==

> <PUBCHEM_IUPAC_OPENEYE_NAME>
[(3R,4S,5R,6S)-6-[8-chloro-4-hydroxy-3-[[4-hydroxy-3-(3-methylbut-2-enyl)benzoyl]amino]-2-oxo-chromen-7-yl]oxy-5-hydroxy-3-methoxy-2,2-dimethyl-tetrahydropyran-4-yl] 5-methyl-1H-pyrrole-2-carboxylate

> <PUBCHEM_IUPAC_CAS_NAME>
5-methyl-1H-pyrrole-2-carboxylic acid [(3R,4S,5R,6S)-6-[[8-chloro-4-hydroxy-3-[[[4-hydroxy-3-(3-methylbut-2-enyl)phenyl]-oxomethyl]amino]-2-oxo-1-benzopyran-7-yl]oxy]-5-hydroxy-3-methoxy-2,2-dimethyl-4-oxanyl] ester

> <PUBCHEM_IUPAC_NAME>
[(3R,4S,5R,6S)-6-[8-chloro-4-hydroxy-3-[[4-hydroxy-3-(3-methylbut-2-enyl)benzoyl]amino]-2-oxochromen-7-yl]oxy-5-hydroxy-3-methoxy-2,2-dimethyloxan-4-yl] 5-methyl-1H-pyrrole-2-carboxylate

> <PUBCHEM_IUPAC_SYSTEMATIC_NAME>
[(3R,4S,5R,6S)-6-[8-chloranyl-3-[[3-(3-methylbut-2-enyl)-4-oxidanyl-phenyl]carbonylamino]-4-oxidanyl-2-oxidanylidene-chromen-7-yl]oxy-3-methoxy-2,2-dimethyl-5-oxidanyl-oxan-4-yl] 5-methyl-1H-pyrrole-2-carboxylate

> <PUBCHEM_IUPAC_TRADITIONAL_NAME>
5-methyl-1H-pyrrole-2-carboxylic acid [(3R,4S,5R,6S)-6-[8-chloro-4-hydroxy-3-[[4-hydroxy-3-(3-methylbut-2-enyl)benzoyl]amino]-2-keto-chromen-7-yl]oxy-5-hydroxy-3-methoxy-2,2-dimethyl-tetrahydropyran-4-yl] ester

> <PUBCHEM_IUPAC_INCHI>
InChI=1S/C35H37ClN2O11/c1-16(2)7-9-18-15-19(10-13-22(18)39)31(42)38-25-26(40)20-11-14-23(24(36)28(20)47-33(25)44)46-34-27(41)29(30(45-6)35(4,5)49-34)48-32(43)21-12-8-17(3)37-21/h7-8,10-15,27,29-30,34,37,39-41H,9H2,1-6H3,(H,38,42)/t27-,29+,30-,34-/m1/s1

> <PUBCHEM_IUPAC_INCHIKEY>
FJAQNRBDVKIIKK-LFLQOBSNSA-N

> <PUBCHEM_XLOGP3_AA>
5.3

> <PUBCHEM_EXACT_MASS>
696.208588

> <PUBCHEM_MOLECULAR_FORMULA>
C35H37ClN2O11

> <PUBCHEM_MOLECULAR_WEIGHT>
697.12808

> <PUBCHEM_OPENEYE_CAN_SMILES>
CC1=CC=C(N1)C(=O)OC2C(C(OC(C2OC)(C)C)OC3=C(C4=C(C=C3)C(=C(C(=O)O4)NC(=O)C5=CC(=C(C=C5)O)CC=C(C)C)O)Cl)O

> <PUBCHEM_OPENEYE_ISO_SMILES>
CC1=CC=C(N1)C(=O)O[C@H]2[C@H]([C@@H](OC([C@@H]2OC)(C)C)OC3=C(C4=C(C=C3)C(=C(C(=O)O4)NC(=O)C5=CC(=C(C=C5)O)CC=C(C)C)O)Cl)O

> <PUBCHEM_CACTVS_TPSA>
186

> <PUBCHEM_MONOISOTOPIC_WEIGHT>
696.208588

> <PUBCHEM_TOTAL_CHARGE>
0

> <PUBCHEM_HEAVY_ATOM_COUNT>
49

> <PUBCHEM_ATOM_DEF_STEREO_COUNT>
4

> <PUBCHEM_ATOM_UDEF_STEREO_COUNT>
0

> <PUBCHEM_BOND_DEF_STEREO_COUNT>
0

> <PUBCHEM_BOND_UDEF_STEREO_COUNT>
0

> <PUBCHEM_ISOTOPIC_ATOM_COUNT>
0

> <PUBCHEM_COMPONENT_COUNT>
1

> <PUBCHEM_CACTVS_TAUTO_COUNT>
246

> <PUBCHEM_COORDINATE_TYPE>
1
5
255

> <PUBCHEM_BONDANNOTATIONS>
13  25  8
13  32  8
24  26  8
24  27  8
25  29  8
26  28  8
27  30  8
28  31  8
29  33  8
16  3  6
30  31  8
31  34  8
32  33  8
34  36  8
36  37  8
39  40  8
39  42  8
17  4  5
40  41  8
41  44  8
42  45  8
44  45  8
19  5  6
18  6  5
8  28  8
8  37  8

$$$$

