11029
  -OEChem-06261205142D

  5  3  0     0  0  0  0  0  0999 V2000
    2.0000    0.8536    0.0000 Mg  0  2  0  0  0  0  0  0  0  0  0  0
    3.0000    0.8536    0.0000 O   0  5  0  0  0  0  0  0  0  0  0  0
    2.0000   -0.1464    0.0000 O   0  5  0  0  0  0  0  0  0  0  0  0
    3.7071   -0.8536    0.0000 O   0  0  0  0  0  0  0  0  0  0  0  0
    3.0000   -0.1464    0.0000 C   0  0  0  0  0  0  0  0  0  0  0  0
  2  5  1  0  0  0  0
  3  5  1  0  0  0  0
  4  5  2  0  0  0  0
M  CHG  3   1   2   2  -1   3  -1
M  END
> <PUBCHEM_COMPOUND_CID>
11029

> <PUBCHEM_COMPOUND_CANONICALIZED>
1

> <PUBCHEM_CACTVS_COMPLEXITY>
18.8

> <PUBCHEM_CACTVS_HBOND_ACCEPTOR>
3

> <PUBCHEM_CACTVS_HBOND_DONOR>
0

> <PUBCHEM_CACTVS_ROTATABLE_BOND>
0

> <PUBCHEM_CACTVS_SUBSKEYS>
AAADcQAAMAAAACAAAAAAAAAAAAAAAAAAAAAAAAAAAAAAAAAAAAAAAgAAAAAAAAAAAAAACAAAAAAIAAAACAAAAAAAAAAAAAAAAAAAAAAAAAAAAAAAAAAAAAAAAAAAAAAAAAAAAAAAAAAAAAAAAAAAAAAAAA==

> <PUBCHEM_IUPAC_OPENEYE_NAME>
magnesium carbonate

> <PUBCHEM_IUPAC_CAS_NAME>
magnesium carbonate

> <PUBCHEM_IUPAC_NAME>
magnesium carbonate

> <PUBCHEM_IUPAC_SYSTEMATIC_NAME>
magnesium carbonate

> <PUBCHEM_IUPAC_TRADITIONAL_NAME>
magnesium carbonate

> <PUBCHEM_IUPAC_INCHI>
InChI=1S/CH2O3.Mg/c2-1(3)4;/h(H2,2,3,4);/q;+2/p-2

> <PUBCHEM_IUPAC_INCHIKEY>
ZLNQQNXFFQJAID-UHFFFAOYSA-L

> <PUBCHEM_EXACT_MASS>
83.969786

> <PUBCHEM_MOLECULAR_FORMULA>
CMgO3

> <PUBCHEM_MOLECULAR_WEIGHT>
84.3139

> <PUBCHEM_OPENEYE_CAN_SMILES>
C(=O)([O-])[O-].[Mg+2]

> <PUBCHEM_OPENEYE_ISO_SMILES>
C(=O)([O-])[O-].[Mg+2]

> <PUBCHEM_CACTVS_TPSA>
63.2

> <PUBCHEM_MONOISOTOPIC_WEIGHT>
83.969786

> <PUBCHEM_TOTAL_CHARGE>
0

> <PUBCHEM_HEAVY_ATOM_COUNT>
5

> <PUBCHEM_ATOM_DEF_STEREO_COUNT>
0

> <PUBCHEM_ATOM_UDEF_STEREO_COUNT>
0

> <PUBCHEM_BOND_DEF_STEREO_COUNT>
0

> <PUBCHEM_BOND_UDEF_STEREO_COUNT>
0

> <PUBCHEM_ISOTOPIC_ATOM_COUNT>
0

> <PUBCHEM_COMPONENT_COUNT>
2

> <PUBCHEM_CACTVS_TAUTO_COUNT>
1

> <PUBCHEM_COORDINATE_TYPE>
1
5
255

$$$$

