   Color/Form
        Crystallizes as colorless plates from water
   from [1]HSDB

   Melting Point
        Decomposes at 186 deg C
   from [2]HSDB

   Octanol/Water Partition Coefficient
        log Kow = 2.79 (est)
   from [3]HSDB

   Solubilities
        In water, 29.2 mg/L at 25 deg C (est)
   from [4]HSDB

   Vapor Pressure
        1.66X10-10 mm Hg at 25 deg C (est)
   from [5]HSDB

   Other Chemical/Physical Properties

     * Henry's Law constant = 4.97X10-17 atm-cu m/mol at 25 deg C (est)
     * Hydroxyl radical reaction rate constant = 1.17X10-10 cu
       cm/molec-sec at 25 deg C (est)
     * Fine needles from dil hydrochloric acid, mp 232-234 deg C
       /Dihydrochloride/
     * Mol wt 532.64. White powder /Dimethanesulfonate/
     * Mol wt: 592.69. Hygroscopic, very bitter crystals, mp approx 180
       deg C. Slight butyric odor. Sol in water (approx 1 in 10 at 25 deg
       C, approx 1 in 4 at 100 deg C); sol in glycerol, more readily on
       warming; slightly sol in alcohol. Insol in ether, acetone,
       chloroform, liq petr. pH of a 5% w/v soln in water: 4.5 to 6.5.
       /Isethioante/

   from [6]HSDB

   Computed Properties
   Molecular Weight                  340.41946 [g/mol]
   Molecular Formula                 C[19]H[24]N[4]O[2]
   XLogP3-AA                         2.6
   H-Bond Donor                      4
   H-Bond Acceptor                   4
   Rotatable Bond Count              10
   Exact Mass                        340.189926
   MonoIsotopic Mass                 340.189926
   Topological Polar Surface Area    118
   Heavy Atom Count                  25
   Formal Charge                     0
   Complexity                        376
   Isotope Atom Count                0
   Defined Atom Stereocenter Count   0
   Undefined Atom Stereocenter Count 0
   Defined Bond Stereocenter Count   0
   Undefined Bond Stereocenter Count 0
   Covalently-Bonded Unit Count      1
   Feature 3D Acceptor Count         2
   Feature 3D Donor Count            4
   Feature 3D Cation Count           2
   Feature 3D Ring Count             2
   Effective Rotor Count             10
   Conformer Sampling RMSD           1
   CID Conformer Count               [7]80

References

   1. http://toxnet.nlm.nih.gov/cgi-bin/sis/search/r?dbs+hsdb:@term+@rn+@rel+100-33-4
   2. http://toxnet.nlm.nih.gov/cgi-bin/sis/search/r?dbs+hsdb:@term+@rn+@rel+100-33-4
   3. http://toxnet.nlm.nih.gov/cgi-bin/sis/search/r?dbs+hsdb:@term+@rn+@rel+100-33-4
   4. http://toxnet.nlm.nih.gov/cgi-bin/sis/search/r?dbs+hsdb:@term+@rn+@rel+100-33-4
   5. http://toxnet.nlm.nih.gov/cgi-bin/sis/search/r?dbs+hsdb:@term+@rn+@rel+100-33-4
   6. http://toxnet.nlm.nih.gov/cgi-bin/sis/search/r?dbs+hsdb:@term+@rn+@rel+100-33-4
   7. http://pubchem.ncbi.nlm.nih.gov/vw3d/vw3d.cgi?cid=4735
