   Color/Form

     * Light tan powdered solid
     * Yellow-brown powder
     * Yellow brown solid (technical); Light brown solid (end-use)

   from [1]HSDB

   Odor
        Slight (end-use)
   from [2]HSDB

   Melting Point
        201-204 deg C
   from [3]HSDB

   Corrosivity
        Formulated products are non-corrosive to containers
   from [4]HSDB

   Density/Specific Gravity
        1.5136 g/ml @ 20 deg C
   from [5]HSDB

   Dissociation Constants
        Does not dissociate
   from [6]HSDB

   Octanol/Water Partition Coefficient
        log Kow = 2.55 @ 20 deg C
   from [7]HSDB

   pH
        pH= 6.2-6.4 @ 20 deg C (end-use)
   from [8]HSDB

   Solubilities

     * Soluble in common organic solvents
     * In water, 1.79 mg/l @ 25 deg C

   from [9]HSDB

   Vapor Pressure
        2.41X10-6 mm Hg @ 25 deg C
   from [10]HSDB

   Other Chemical/Physical Properties
        Odorless; pH= 7.29 @ 25 deg C /Technical/
   from [11]HSDB

   Computed Properties
   Molecular Weight                  354.331803 [g/mol]
   Molecular Formula                 C[19]H[15]FN[2]O[4]
   XLogP3-AA                         1.8
   H-Bond Donor                      0
   H-Bond Acceptor                   5
   Rotatable Bond Count              2
   Tautomer Count                    2
   Exact Mass                        354.101585
   MonoIsotopic Mass                 354.101585
   Topological Polar Surface Area    66.9
   Heavy Atom Count                  26
   Formal Charge                     0
   Complexity                        724
   Isotope Atom Count                0
   Defined Atom Stereocenter Count   0
   Undefined Atom Stereocenter Count 0
   Defined Bond Stereocenter Count   0
   Undefined Bond Stereocenter Count 0
   Covalently-Bonded Unit Count      1
   Feature 3D Acceptor Count         4
   Feature 3D Hydrophobe Count       1
   Feature 3D Ring Count             4
   Effective Rotor Count             3.6
   Conformer Sampling RMSD           0.8
   CID Conformer Count               [12]6

References

   1. http://toxnet.nlm.nih.gov/cgi-bin/sis/search/r?dbs+hsdb:@term+@rn+@rel+103361-09-7
   2. http://toxnet.nlm.nih.gov/cgi-bin/sis/search/r?dbs+hsdb:@term+@rn+@rel+103361-09-7
   3. http://toxnet.nlm.nih.gov/cgi-bin/sis/search/r?dbs+hsdb:@term+@rn+@rel+103361-09-7
   4. http://toxnet.nlm.nih.gov/cgi-bin/sis/search/r?dbs+hsdb:@term+@rn+@rel+103361-09-7
   5. http://toxnet.nlm.nih.gov/cgi-bin/sis/search/r?dbs+hsdb:@term+@rn+@rel+103361-09-7
   6. http://toxnet.nlm.nih.gov/cgi-bin/sis/search/r?dbs+hsdb:@term+@rn+@rel+103361-09-7
   7. http://toxnet.nlm.nih.gov/cgi-bin/sis/search/r?dbs+hsdb:@term+@rn+@rel+103361-09-7
   8. http://toxnet.nlm.nih.gov/cgi-bin/sis/search/r?dbs+hsdb:@term+@rn+@rel+103361-09-7
   9. http://toxnet.nlm.nih.gov/cgi-bin/sis/search/r?dbs+hsdb:@term+@rn+@rel+103361-09-7
  10. http://toxnet.nlm.nih.gov/cgi-bin/sis/search/r?dbs+hsdb:@term+@rn+@rel+103361-09-7
  11. http://toxnet.nlm.nih.gov/cgi-bin/sis/search/r?dbs+hsdb:@term+@rn+@rel+103361-09-7
  12. http://pubchem.ncbi.nlm.nih.gov/vw3d/vw3d.cgi?cid=92425
