   Color/Form

     * MOBILE LIQUID, CLEAR STRAW COLOR
     * Colorless liquid

   from [1]HSDB

   Odor

     * SWEET ANISE-LIKE ODOR
     * Agreeable aromatic odor
     * Spicy-sweet

   from [2]HSDB

   Taste
        SWEET
   from [3]HSDB

   Boiling Point
        155.5 DEG C AT 760 MM HG
   from [4]HSDB

   Melting Point
        -37.3 DEG C
   from [5]HSDB

   Critical Temperature and Pressure
        Critical temperature: 372.4 deg C; Critical pressure: 41.9 atm
   from [6]HSDB

   Density/Specific Gravity
        0.9956 AT 18 DEG C/4 DEG C
   from [7]HSDB

   Heat of Combustion
        -3783.12 kJ/mol @ 25 deg C /liquid/
   from [8]HSDB

   Heat of Vaporization
        46.84 kJ/mol @ 25 deg C
   from [9]HSDB

   Octanol/Water Partition Coefficient
        Log Kow = 2.11
   from [10]HSDB

   Solubilities

     * SOLUBLE IN ALCOHOL AND ETHER
     * VERY SOLUBLE IN ACETONE
     * Water solubility = 1520 mg/L
     * Water solubility = 10,400 mg/L
     * Water solubility = 143 mg/L

   from [11]HSDB

   Spectral Properties

     * INDEX OF REFRACTION: 1.51791 AT 20 DEG C/D
     * IR: 362 (Sadtler Research Laboratories IR Grating Collection)
     * UV: 861 (Sadtler Research Laboratories Spectral Collection)
     * NMR: 162 (Varian Associates NMR Spectra Catalogue)
     * MASS: 337 (Atlas of Mass Spectral Data, John Wiley & Sons, New
       York)

   from [12]HSDB

   Surface Tension
        36.18 dyne/cm @ 15 deg C; 35.00 dyne/cm @ 20 deg C; 34.15 dyne/cm
   @ 30 deg C
   from [13]HSDB

   Vapor Density
        3.72 (AIR= 1)
   from [14]HSDB

   Vapor Pressure
        0.472 kPa (3.54 mm Hg) @ 25 deg C
   from [15]HSDB

   Viscosity
        1.52 centipoise at 15 deg C; 0.778 centipoise at 30 deg C
   from [16]HSDB

   Other Chemical/Physical Properties

     * FORMS OILS OR RESINS BY CONDENSATION WITH FORMALDEHYDE
     * PER CENT IN SATURATED AIR: 0.41; DENSITY OF SATURATED AIR: 1.1
       (AIR= 1)
     * CONVERSION FACTORS: EQUIVALENCES: 1 PPM= 4.46 MG/CU M AT 25 DEG C,
       760 MM HG; 1 MG/L= 226.2 PPM AT 25 DEG C, 760 MM HG
     * VAPOR PRESSURE = 10 MM HG @ 42.2 DEG C
     * Standard Enthalpy of Fusion: -114.77 kJ/mol @ 25 deg C /liquid/

   from [17]HSDB

   Computed Properties
   Molecular Weight                  108.13782 [g/mol]
   Molecular Formula                 C[7]H[8]O
   XLogP3                            2.1
   H-Bond Donor                      0
   H-Bond Acceptor                   1
   Rotatable Bond Count              1
   Exact Mass                        108.057515
   MonoIsotopic Mass                 108.057515
   Topological Polar Surface Area    9.2
   Heavy Atom Count                  8
   Formal Charge                     0
   Complexity                        55.4
   Isotope Atom Count                0
   Defined Atom Stereocenter Count   0
   Undefined Atom Stereocenter Count 0
   Defined Bond Stereocenter Count   0
   Undefined Bond Stereocenter Count 0
   Covalently-Bonded Unit Count      1
   Feature 3D Acceptor Count         1
   Feature 3D Ring Count             1
   Effective Rotor Count             1
   Conformer Sampling RMSD           0.4
   CID Conformer Count               [18]1

References

   1. http://toxnet.nlm.nih.gov/cgi-bin/sis/search/r?dbs+hsdb:@term+@rn+@rel+100-66-3
   2. http://toxnet.nlm.nih.gov/cgi-bin/sis/search/r?dbs+hsdb:@term+@rn+@rel+100-66-3
   3. http://toxnet.nlm.nih.gov/cgi-bin/sis/search/r?dbs+hsdb:@term+@rn+@rel+100-66-3
   4. http://toxnet.nlm.nih.gov/cgi-bin/sis/search/r?dbs+hsdb:@term+@rn+@rel+100-66-3
   5. http://toxnet.nlm.nih.gov/cgi-bin/sis/search/r?dbs+hsdb:@term+@rn+@rel+100-66-3
   6. http://toxnet.nlm.nih.gov/cgi-bin/sis/search/r?dbs+hsdb:@term+@rn+@rel+100-66-3
   7. http://toxnet.nlm.nih.gov/cgi-bin/sis/search/r?dbs+hsdb:@term+@rn+@rel+100-66-3
   8. http://toxnet.nlm.nih.gov/cgi-bin/sis/search/r?dbs+hsdb:@term+@rn+@rel+100-66-3
   9. http://toxnet.nlm.nih.gov/cgi-bin/sis/search/r?dbs+hsdb:@term+@rn+@rel+100-66-3
  10. http://toxnet.nlm.nih.gov/cgi-bin/sis/search/r?dbs+hsdb:@term+@rn+@rel+100-66-3
  11. http://toxnet.nlm.nih.gov/cgi-bin/sis/search/r?dbs+hsdb:@term+@rn+@rel+100-66-3
  12. http://toxnet.nlm.nih.gov/cgi-bin/sis/search/r?dbs+hsdb:@term+@rn+@rel+100-66-3
  13. http://toxnet.nlm.nih.gov/cgi-bin/sis/search/r?dbs+hsdb:@term+@rn+@rel+100-66-3
  14. http://toxnet.nlm.nih.gov/cgi-bin/sis/search/r?dbs+hsdb:@term+@rn+@rel+100-66-3
  15. http://toxnet.nlm.nih.gov/cgi-bin/sis/search/r?dbs+hsdb:@term+@rn+@rel+100-66-3
  16. http://toxnet.nlm.nih.gov/cgi-bin/sis/search/r?dbs+hsdb:@term+@rn+@rel+100-66-3
  17. http://toxnet.nlm.nih.gov/cgi-bin/sis/search/r?dbs+hsdb:@term+@rn+@rel+100-66-3
  18. http://pubchem.ncbi.nlm.nih.gov/vw3d/vw3d.cgi?cid=7519
