440737
  -OEChem-07051212502D

 19 20  0     0  0  0  0  0  0999 V2000
    4.6144   -1.8592    0.0000 O   0  0  0  0  0  0  0  0  0  0  0  0
    2.8660    2.1754    0.0000 O   0  0  0  0  0  0  0  0  0  0  0  0
    2.8660   -0.8246    0.0000 N   0  0  0  0  0  0  0  0  0  0  0  0
    3.7320   -0.3246    0.0000 C   0  0  0  0  0  0  0  0  0  0  0  0
    3.7320    0.6754    0.0000 C   0  0  0  0  0  0  0  0  0  0  0  0
    4.6260   -0.8593    0.0000 C   0  0  0  0  0  0  0  0  0  0  0  0
    4.6260    1.2100    0.0000 C   0  0  0  0  0  0  0  0  0  0  0  0
    2.8660    1.1754    0.0000 C   0  0  0  0  0  0  0  0  0  0  0  0
    5.5321   -0.3454    0.0000 C   0  0  0  0  0  0  0  0  0  0  0  0
    5.5321    0.6962    0.0000 C   0  0  0  0  0  0  0  0  0  0  0  0
    2.0000   -0.3246    0.0000 C   0  0  0  0  0  0  0  0  0  0  0  0
    2.0000    0.6754    0.0000 C   0  0  0  0  0  0  0  0  0  0  0  0
    2.8660   -1.4446    0.0000 H   0  0  0  0  0  0  0  0  0  0  0  0
    4.6188    1.8300    0.0000 H   0  0  0  0  0  0  0  0  0  0  0  0
    6.0678   -0.6575    0.0000 H   0  0  0  0  0  0  0  0  0  0  0  0
    6.0678    1.0083    0.0000 H   0  0  0  0  0  0  0  0  0  0  0  0
    1.4631   -0.6346    0.0000 H   0  0  0  0  0  0  0  0  0  0  0  0
    1.4631    0.9854    0.0000 H   0  0  0  0  0  0  0  0  0  0  0  0
    5.1477   -2.1754    0.0000 H   0  0  0  0  0  0  0  0  0  0  0  0
  1  6  1  0  0  0  0
  1 19  1  0  0  0  0
  2  8  2  0  0  0  0
  3  4  1  0  0  0  0
  3 11  1  0  0  0  0
  3 13  1  0  0  0  0
  4  5  2  0  0  0  0
  4  6  1  0  0  0  0
  5  7  1  0  0  0  0
  5  8  1  0  0  0  0
  6  9  2  0  0  0  0
  7 10  2  0  0  0  0
  7 14  1  0  0  0  0
  8 12  1  0  0  0  0
  9 10  1  0  0  0  0
  9 15  1  0  0  0  0
 10 16  1  0  0  0  0
 11 12  2  0  0  0  0
 11 17  1  0  0  0  0
 12 18  1  0  0  0  0
M  END
> <PUBCHEM_COMPOUND_CID>
440737

> <PUBCHEM_COMPOUND_CANONICALIZED>
1

> <PUBCHEM_CACTVS_COMPLEXITY>
225

> <PUBCHEM_CACTVS_HBOND_ACCEPTOR>
3

> <PUBCHEM_CACTVS_HBOND_DONOR>
2

> <PUBCHEM_CACTVS_ROTATABLE_BOND>
0

> <PUBCHEM_CACTVS_SUBSKEYS>
AAADcYByMAAAAAAAAAAAAAAAAAAAAAAAAAAwQAAAAAAAAACBAAAAHgAQCAAADAzBmAQwxoLAAgCIAqRWQACCAAAlIgAIiIEPTMgKJjrSlZOEcYhkwBFY2ceayLCOAAABAAACEAAAAAIAAAQgAAAAAAAAAA==

> <PUBCHEM_IUPAC_OPENEYE_NAME>
8-hydroxy-1H-quinolin-4-one

> <PUBCHEM_IUPAC_CAS_NAME>
8-hydroxy-1H-quinolin-4-one

> <PUBCHEM_IUPAC_NAME>
8-hydroxy-1H-quinolin-4-one

> <PUBCHEM_IUPAC_SYSTEMATIC_NAME>
8-oxidanyl-1H-quinolin-4-one

> <PUBCHEM_IUPAC_TRADITIONAL_NAME>
8-hydroxy-4-quinolone

> <PUBCHEM_IUPAC_INCHI>
InChI=1S/C9H7NO2/c11-7-4-5-10-9-6(7)2-1-3-8(9)12/h1-5,12H,(H,10,11)

> <PUBCHEM_IUPAC_INCHIKEY>
PYELIMVFIITPER-UHFFFAOYSA-N

> <PUBCHEM_XLOGP3_AA>
1.2

> <PUBCHEM_EXACT_MASS>
161.047678

> <PUBCHEM_MOLECULAR_FORMULA>
C9H7NO2

> <PUBCHEM_MOLECULAR_WEIGHT>
161.15738

> <PUBCHEM_OPENEYE_CAN_SMILES>
C1=CC2=C(C(=C1)O)NC=CC2=O

> <PUBCHEM_OPENEYE_ISO_SMILES>
C1=CC2=C(C(=C1)O)NC=CC2=O

> <PUBCHEM_CACTVS_TPSA>
49.3

> <PUBCHEM_MONOISOTOPIC_WEIGHT>
161.047678

> <PUBCHEM_TOTAL_CHARGE>
0

> <PUBCHEM_HEAVY_ATOM_COUNT>
12

> <PUBCHEM_ATOM_DEF_STEREO_COUNT>
0

> <PUBCHEM_ATOM_UDEF_STEREO_COUNT>
0

> <PUBCHEM_BOND_DEF_STEREO_COUNT>
0

> <PUBCHEM_BOND_UDEF_STEREO_COUNT>
0

> <PUBCHEM_ISOTOPIC_ATOM_COUNT>
0

> <PUBCHEM_COMPONENT_COUNT>
1

> <PUBCHEM_CACTVS_TAUTO_COUNT>
6

> <PUBCHEM_COORDINATE_TYPE>
1
5
255

> <PUBCHEM_BONDANNOTATIONS>
11  12  8
3  11  8
3  4  8
4  5  8
4  6  8
5  7  8
5  8  8
6  9  8
7  10  8
8  12  8
9  10  8

$$$$

