442200
  -OEChem-07051212572D

 37 41  0     1  0  0  0  0  0999 V2000
    2.0000   -0.6052    0.0000 O   0  0  0  0  0  0  0  0  0  0  0  0
    4.5988   -2.1057    0.0000 O   0  0  0  0  0  0  0  0  0  0  0  0
    4.2939    0.8410    0.0000 O   0  0  0  0  0  0  0  0  0  0  0  0
    6.9519   -0.8873    0.0000 O   0  0  0  0  0  0  0  0  0  0  0  0
    4.8237    2.6528    0.0000 O   0  0  0  0  0  0  0  0  0  0  0  0
    6.8872   -2.6528    0.0000 O   0  0  0  0  0  0  0  0  0  0  0  0
    2.8665   -0.1052    0.0000 C   0  0  2  0  0  0  0  0  0  0  0  0
    2.8665   -1.1052    0.0000 C   0  0  2  0  0  0  0  0  0  0  0  0
    3.7326   -1.6052    0.0000 C   0  0  1  0  0  0  0  0  0  0  0  0
    4.5986   -1.1052    0.0000 C   0  0  1  0  0  0  0  0  0  0  0  0
    3.7326    0.3948    0.0000 C   0  0  0  0  0  0  0  0  0  0  0  0
    4.5986   -0.1052    0.0000 C   0  0  1  0  0  0  0  0  0  0  0  0
    5.4646    0.3948    0.0000 C   0  0  2  0  0  0  0  0  0  0  0  0
    2.8665    0.8948    0.0000 C   0  0  0  0  0  0  0  0  0  0  0  0
    6.3306   -0.1052    0.0000 C   0  0  1  0  0  0  0  0  0  0  0  0
    5.4646   -1.6052    0.0000 C   0  0  0  0  0  0  0  0  0  0  0  0
    5.7694    1.3410    0.0000 C   0  0  2  0  0  0  0  0  0  0  0  0
    6.3306   -1.1052    0.0000 C   0  0  0  0  0  0  0  0  0  0  0  0
    5.0316    1.6746    0.0000 C   0  0  0  0  0  0  0  0  0  0  0  0
    6.4525   -1.7522    0.0000 C   0  0  0  0  0  0  0  0  0  0  0  0
    6.6345    1.8425    0.0000 C   0  0  0  0  0  0  0  0  0  0  0  0
    2.4417   -1.8414    0.0000 H   0  0  0  0  0  0  0  0  0  0  0  0
    3.4225   -2.1421    0.0000 H   0  0  0  0  0  0  0  0  0  0  0  0
    5.1355   -0.7952    0.0000 H   0  0  0  0  0  0  0  0  0  0  0  0
    4.1311    0.8697    0.0000 H   0  0  0  0  0  0  0  0  0  0  0  0
    3.3340    0.8697    0.0000 H   0  0  0  0  0  0  0  0  0  0  0  0
    3.8625   -0.5302    0.0000 H   0  0  0  0  0  0  0  0  0  0  0  0
    6.2007    0.8198    0.0000 H   0  0  0  0  0  0  0  0  0  0  0  0
    3.4865    0.8948    0.0000 H   0  0  0  0  0  0  0  0  0  0  0  0
    2.8665    1.5148    0.0000 H   0  0  0  0  0  0  0  0  0  0  0  0
    2.2465    0.8948    0.0000 H   0  0  0  0  0  0  0  0  0  0  0  0
    6.7556    0.6309    0.0000 H   0  0  0  0  0  0  0  0  0  0  0  0
    6.2520    0.9519    0.0000 H   0  0  0  0  0  0  0  0  0  0  0  0
    6.8676   -1.4152    0.0000 H   0  0  0  0  0  0  0  0  0  0  0  0
    6.9454    1.3061    0.0000 H   0  0  0  0  0  0  0  0  0  0  0  0
    7.1709    2.1534    0.0000 H   0  0  0  0  0  0  0  0  0  0  0  0
    6.3236    2.3789    0.0000 H   0  0  0  0  0  0  0  0  0  0  0  0
  1  7  1  0  0  0  0
  1  8  1  0  0  0  0
  9  2  1  1  0  0  0
 10  2  1  6  0  0  0
  3 12  1  0  0  0  0
  3 19  1  0  0  0  0
  4 15  1  0  0  0  0
  4 20  1  0  0  0  0
  5 19  2  0  0  0  0
  6 20  2  0  0  0  0
  7  8  1  0  0  0  0
  7 11  1  0  0  0  0
  7 14  1  6  0  0  0
  8  9  1  0  0  0  0
  8 22  1  1  0  0  0
  9 10  1  0  0  0  0
  9 23  1  0  0  0  0
 10 16  1  0  0  0  0
 10 24  1  0  0  0  0
 11 12  1  0  0  0  0
 11 25  1  0  0  0  0
 11 26  1  0  0  0  0
 12 13  1  0  0  0  0
 12 27  1  1  0  0  0
 13 15  1  0  0  0  0
 13 17  1  0  0  0  0
 13 28  1  6  0  0  0
 14 29  1  0  0  0  0
 14 30  1  0  0  0  0
 14 31  1  0  0  0  0
 15 18  1  0  0  0  0
 15 32  1  1  0  0  0
 16 18  2  0  0  0  0
 16 20  1  0  0  0  0
 17 19  1  0  0  0  0
 17 21  1  6  0  0  0
 17 33  1  0  0  0  0
 18 34  1  0  0  0  0
 21 35  1  0  0  0  0
 21 36  1  0  0  0  0
 21 37  1  0  0  0  0
M  END
> <PUBCHEM_COMPOUND_CID>
442200

> <PUBCHEM_COMPOUND_CANONICALIZED>
1

> <PUBCHEM_CACTVS_COMPLEXITY>
597

> <PUBCHEM_CACTVS_HBOND_ACCEPTOR>
6

> <PUBCHEM_CACTVS_HBOND_DONOR>
0

> <PUBCHEM_CACTVS_ROTATABLE_BOND>
0

> <PUBCHEM_CACTVS_SUBSKEYS>
AAADceBwOAAAAAAAAAAAAAAAEiQAASIAAAAAAAAAAAAAAACAAAAAGgAAAAAADVSggAICCAAABACIAiDSCAAAAAAgAAAACAEAAEgBBBYAIQACEAAF4AAKIYPK7PzOgAAAAAAAAAAAAAAAAAAAAAAAAAAAAA==

> <PUBCHEM_IUPAC_INCHI>
InChI=1S/C15H16O6/c1-5-9-7-3-6(14(17)18-7)10-11(20-10)12-15(2,21-12)4-8(9)19-13(5)16/h3,5,7-12H,4H2,1-2H3/t5-,7-,8+,9+,10-,11-,12+,15+/m1/s1

> <PUBCHEM_IUPAC_INCHIKEY>
UOQXZMNXWXQCJU-XMOWUHPBSA-N

> <PUBCHEM_XLOGP3_AA>
0.4

> <PUBCHEM_EXACT_MASS>
292.094688

> <PUBCHEM_MOLECULAR_FORMULA>
C15H16O6

> <PUBCHEM_MOLECULAR_WEIGHT>
292.28394

> <PUBCHEM_OPENEYE_CAN_SMILES>
CC1C2C(CC3(C(O3)C4C(O4)C5=CC2OC5=O)C)OC1=O

> <PUBCHEM_OPENEYE_ISO_SMILES>
C[C@@H]1[C@@H]2[C@H](C[C@]3([C@@H](O3)[C@H]4[C@H](O4)C5=C[C@H]2OC5=O)C)OC1=O

> <PUBCHEM_CACTVS_TPSA>
77.7

> <PUBCHEM_MONOISOTOPIC_WEIGHT>
292.094688

> <PUBCHEM_TOTAL_CHARGE>
0

> <PUBCHEM_HEAVY_ATOM_COUNT>
21

> <PUBCHEM_ATOM_DEF_STEREO_COUNT>
8

> <PUBCHEM_ATOM_UDEF_STEREO_COUNT>
0

> <PUBCHEM_BOND_DEF_STEREO_COUNT>
0

> <PUBCHEM_BOND_UDEF_STEREO_COUNT>
0

> <PUBCHEM_ISOTOPIC_ATOM_COUNT>
0

> <PUBCHEM_COMPONENT_COUNT>
1

> <PUBCHEM_CACTVS_TAUTO_COUNT>
2

> <PUBCHEM_COORDINATE_TYPE>
1
5
255

> <PUBCHEM_BONDANNOTATIONS>
12  27  5
13  28  6
15  32  5
17  21  6
10  2  6
9  2  5
7  14  6
8  22  5

$$$$

