14353
  -OEChem-06241222432D

 28 30  0     0  0  0  0  0  0999 V2000
    5.3934    2.4118    0.0000 Cl  0  0  0  0  0  0  0  0  0  0  0  0
    4.5274   -0.0882    0.0000 N   0  0  0  0  0  0  0  0  0  0  0  0
    5.3364   -0.6760    0.0000 C   0  0  0  0  0  0  0  0  0  0  0  0
    3.7183   -0.6760    0.0000 C   0  0  0  0  0  0  0  0  0  0  0  0
    5.0274   -1.6271    0.0000 C   0  0  0  0  0  0  0  0  0  0  0  0
    4.0274   -1.6271    0.0000 C   0  0  0  0  0  0  0  0  0  0  0  0
    4.5274    0.9118    0.0000 C   0  0  0  0  0  0  0  0  0  0  0  0
    6.3518   -0.4437    0.0000 C   0  0  0  0  0  0  0  0  0  0  0  0
    2.7029   -0.4437    0.0000 C   0  0  0  0  0  0  0  0  0  0  0  0
    5.7123   -2.4118    0.0000 C   0  0  0  0  0  0  0  0  0  0  0  0
    3.3424   -2.4118    0.0000 C   0  0  0  0  0  0  0  0  0  0  0  0
    5.3934    1.4118    0.0000 C   0  0  0  0  0  0  0  0  0  0  0  0
    7.0547   -1.2124    0.0000 C   0  0  0  0  0  0  0  0  0  0  0  0
    2.0000   -1.2124    0.0000 C   0  0  0  0  0  0  0  0  0  0  0  0
    2.3219   -2.2031    0.0000 C   0  0  0  0  0  0  0  0  0  0  0  0
    6.7328   -2.2031    0.0000 C   0  0  0  0  0  0  0  0  0  0  0  0
    4.3153    1.4944    0.0000 H   0  0  0  0  0  0  0  0  0  0  0  0
    3.9168    0.8041    0.0000 H   0  0  0  0  0  0  0  0  0  0  0  0
    6.5365    0.1481    0.0000 H   0  0  0  0  0  0  0  0  0  0  0  0
    2.5182    0.1481    0.0000 H   0  0  0  0  0  0  0  0  0  0  0  0
    5.5139   -2.9992    0.0000 H   0  0  0  0  0  0  0  0  0  0  0  0
    3.5408   -2.9992    0.0000 H   0  0  0  0  0  0  0  0  0  0  0  0
    5.6054    0.8292    0.0000 H   0  0  0  0  0  0  0  0  0  0  0  0
    6.0040    1.5194    0.0000 H   0  0  0  0  0  0  0  0  0  0  0  0
    7.6607   -1.0812    0.0000 H   0  0  0  0  0  0  0  0  0  0  0  0
    1.3940   -1.0812    0.0000 H   0  0  0  0  0  0  0  0  0  0  0  0
    7.1459   -2.6654    0.0000 H   0  0  0  0  0  0  0  0  0  0  0  0
    1.9088   -2.6654    0.0000 H   0  0  0  0  0  0  0  0  0  0  0  0
  1 12  1  0  0  0  0
  2  3  1  0  0  0  0
  2  4  1  0  0  0  0
  2  7  1  0  0  0  0
  3  5  1  0  0  0  0
  3  8  2  0  0  0  0
  4  6  1  0  0  0  0
  4  9  2  0  0  0  0
  5  6  1  0  0  0  0
  5 10  2  0  0  0  0
  6 11  2  0  0  0  0
  7 12  1  0  0  0  0
  7 17  1  0  0  0  0
  7 18  1  0  0  0  0
  8 13  1  0  0  0  0
  8 19  1  0  0  0  0
  9 14  1  0  0  0  0
  9 20  1  0  0  0  0
 10 16  1  0  0  0  0
 10 21  1  0  0  0  0
 11 15  1  0  0  0  0
 11 22  1  0  0  0  0
 12 23  1  0  0  0  0
 12 24  1  0  0  0  0
 13 16  2  0  0  0  0
 13 25  1  0  0  0  0
 14 15  2  0  0  0  0
 14 26  1  0  0  0  0
 15 28  1  0  0  0  0
 16 27  1  0  0  0  0
M  END
> <PUBCHEM_COMPOUND_CID>
14353

> <PUBCHEM_COMPOUND_CANONICALIZED>
1

> <PUBCHEM_CACTVS_COMPLEXITY>
221

> <PUBCHEM_CACTVS_HBOND_ACCEPTOR>
0

> <PUBCHEM_CACTVS_HBOND_DONOR>
0

> <PUBCHEM_CACTVS_ROTATABLE_BOND>
2

> <PUBCHEM_CACTVS_SUBSKEYS>
AAADccByAAAEAAAAAAAAAAAAAAAAAWAAAAAwYAAAAAAAAFgB/AAAHAIAAAAADAvBHkQwwPMMEACgAyRiRACCgCAhAiAI2CA4ZJgIIOLAkZHEIAhggADIyAcQgMAOgAAAAAACAAAAAAAAAAQAAAAAAAAAAA==

> <PUBCHEM_IUPAC_OPENEYE_NAME>
9-(2-chloroethyl)carbazole

> <PUBCHEM_IUPAC_CAS_NAME>
9-(2-chloroethyl)carbazole

> <PUBCHEM_IUPAC_NAME>
9-(2-chloroethyl)carbazole

> <PUBCHEM_IUPAC_SYSTEMATIC_NAME>
9-(2-chloroethyl)carbazole

> <PUBCHEM_IUPAC_TRADITIONAL_NAME>
9-(2-chloroethyl)carbazole

> <PUBCHEM_IUPAC_INCHI>
InChI=1S/C14H12ClN/c15-9-10-16-13-7-3-1-5-11(13)12-6-2-4-8-14(12)16/h1-8H,9-10H2

> <PUBCHEM_IUPAC_INCHIKEY>
CVSBRGRSQUGIKO-UHFFFAOYSA-N

> <PUBCHEM_XLOGP3_AA>
3.9

> <PUBCHEM_EXACT_MASS>
229.065827

> <PUBCHEM_MOLECULAR_FORMULA>
C14H12ClN

> <PUBCHEM_MOLECULAR_WEIGHT>
229.70478

> <PUBCHEM_OPENEYE_CAN_SMILES>
C1=CC=C2C(=C1)C3=CC=CC=C3N2CCCl

> <PUBCHEM_OPENEYE_ISO_SMILES>
C1=CC=C2C(=C1)C3=CC=CC=C3N2CCCl

> <PUBCHEM_CACTVS_TPSA>
4.9

> <PUBCHEM_MONOISOTOPIC_WEIGHT>
229.065827

> <PUBCHEM_TOTAL_CHARGE>
0

> <PUBCHEM_HEAVY_ATOM_COUNT>
16

> <PUBCHEM_ATOM_DEF_STEREO_COUNT>
0

> <PUBCHEM_ATOM_UDEF_STEREO_COUNT>
0

> <PUBCHEM_BOND_DEF_STEREO_COUNT>
0

> <PUBCHEM_BOND_UDEF_STEREO_COUNT>
0

> <PUBCHEM_ISOTOPIC_ATOM_COUNT>
0

> <PUBCHEM_COMPONENT_COUNT>
1

> <PUBCHEM_CACTVS_TAUTO_COUNT>
1

> <PUBCHEM_COORDINATE_TYPE>
1
5
255

> <PUBCHEM_BONDANNOTATIONS>
10  16  8
11  15  8
13  16  8
14  15  8
2  3  8
2  4  8
3  5  8
3  8  8
4  6  8
4  9  8
5  10  8
5  6  8
6  11  8
8  13  8
9  14  8

$$$$

