13017882
  -OEChem-07051213112D

 56 57  0     1  0  0  0  0  0999 V2000
    4.2690    0.9400    0.0000 O   0  0  0  0  0  0  0  0  0  0  0  0
    6.0010    0.9400    0.0000 O   0  0  0  0  0  0  0  0  0  0  0  0
    4.2690   -3.0600    0.0000 O   0  0  0  0  0  0  0  0  0  0  0  0
    6.0010   -0.0600    0.0000 O   0  0  0  0  0  0  0  0  0  0  0  0
    2.5369   -2.0600    0.0000 O   0  0  0  0  0  0  0  0  0  0  0  0
    6.0010   -2.0600    0.0000 N   0  0  0  0  0  0  0  0  0  0  0  0
    2.5369   -0.0600    0.0000 N   0  0  0  0  0  0  0  0  0  0  0  0
    4.2690    2.9400    0.0000 N   0  0  0  0  0  0  0  0  0  0  0  0
    8.5991    1.4400    0.0000 N   0  0  0  0  0  0  0  0  0  0  0  0
    4.2690   -0.0600    0.0000 C   0  0  2  0  0  0  0  0  0  0  0  0
    5.1350   -1.5600    0.0000 C   0  0  2  0  0  0  0  0  0  0  0  0
    3.4030   -0.5600    0.0000 C   0  0  2  0  0  0  0  0  0  0  0  0
    5.1350   -0.5600    0.0000 C   0  0  1  0  0  0  0  0  0  0  0  0
    4.2690   -2.0600    0.0000 C   0  0  2  0  0  0  0  0  0  0  0  0
    3.4030   -1.5600    0.0000 C   0  0  1  0  0  0  0  0  0  0  0  0
    5.1350    1.4400    0.0000 C   0  0  1  0  0  0  0  0  0  0  0  0
    5.1350    2.4400    0.0000 C   0  0  1  0  0  0  0  0  0  0  0  0
    6.8671    1.4400    0.0000 C   0  0  1  0  0  0  0  0  0  0  0  0
    6.0010    2.9400    0.0000 C   0  0  0  0  0  0  0  0  0  0  0  0
    6.8671    2.4400    0.0000 C   0  0  0  0  0  0  0  0  0  0  0  0
    7.7331    0.9400    0.0000 C   0  0  2  0  0  0  0  0  0  0  0  0
    6.0010   -3.0600    0.0000 C   0  0  0  0  0  0  0  0  0  0  0  0
    3.4030   -3.5600    0.0000 C   0  0  0  0  0  0  0  0  0  0  0  0
    7.7331   -0.0600    0.0000 C   0  0  0  0  0  0  0  0  0  0  0  0
    4.8059    0.2500    0.0000 H   0  0  0  0  0  0  0  0  0  0  0  0
    5.1350   -2.1800    0.0000 H   0  0  0  0  0  0  0  0  0  0  0  0
    3.4030    0.0600    0.0000 H   0  0  0  0  0  0  0  0  0  0  0  0
    5.1350    0.0600    0.0000 H   0  0  0  0  0  0  0  0  0  0  0  0
    4.8059   -2.3700    0.0000 H   0  0  0  0  0  0  0  0  0  0  0  0
    3.4030   -2.1800    0.0000 H   0  0  0  0  0  0  0  0  0  0  0  0
    4.5981    1.7500    0.0000 H   0  0  0  0  0  0  0  0  0  0  0  0
    5.1350    3.0600    0.0000 H   0  0  0  0  0  0  0  0  0  0  0  0
    6.8671    0.5900    0.0000 H   0  0  0  0  0  0  0  0  0  0  0  0
    6.3996    3.4150    0.0000 H   0  0  0  0  0  0  0  0  0  0  0  0
    5.6025    3.4150    0.0000 H   0  0  0  0  0  0  0  0  0  0  0  0
    6.5380   -1.7500    0.0000 H   0  0  0  0  0  0  0  0  0  0  0  0
    7.4776    2.3323    0.0000 H   0  0  0  0  0  0  0  0  0  0  0  0
    7.0791    3.0226    0.0000 H   0  0  0  0  0  0  0  0  0  0  0  0
    2.0000   -0.3700    0.0000 H   0  0  0  0  0  0  0  0  0  0  0  0
    2.5369    0.5600    0.0000 H   0  0  0  0  0  0  0  0  0  0  0  0
    6.5380   -0.3700    0.0000 H   0  0  0  0  0  0  0  0  0  0  0  0
    8.2700    0.6300    0.0000 H   0  0  0  0  0  0  0  0  0  0  0  0
    2.5369   -2.6800    0.0000 H   0  0  0  0  0  0  0  0  0  0  0  0
    5.3810   -3.0600    0.0000 H   0  0  0  0  0  0  0  0  0  0  0  0
    6.0010   -3.6800    0.0000 H   0  0  0  0  0  0  0  0  0  0  0  0
    6.6210   -3.0600    0.0000 H   0  0  0  0  0  0  0  0  0  0  0  0
    4.2690    3.5600    0.0000 H   0  0  0  0  0  0  0  0  0  0  0  0
    3.7320    2.6300    0.0000 H   0  0  0  0  0  0  0  0  0  0  0  0
    3.0930   -3.0231    0.0000 H   0  0  0  0  0  0  0  0  0  0  0  0
    2.8660   -3.8700    0.0000 H   0  0  0  0  0  0  0  0  0  0  0  0
    3.7130   -4.0969    0.0000 H   0  0  0  0  0  0  0  0  0  0  0  0
    7.1131   -0.0600    0.0000 H   0  0  0  0  0  0  0  0  0  0  0  0
    7.7331   -0.6800    0.0000 H   0  0  0  0  0  0  0  0  0  0  0  0
    8.3531   -0.0600    0.0000 H   0  0  0  0  0  0  0  0  0  0  0  0
    9.1360    1.1300    0.0000 H   0  0  0  0  0  0  0  0  0  0  0  0
    8.5991    2.0600    0.0000 H   0  0  0  0  0  0  0  0  0  0  0  0
 10  1  1  1  0  0  0
 16  1  1  6  0  0  0
  2 16  1  0  0  0  0
  2 18  1  0  0  0  0
 14  3  1  1  0  0  0
  3 23  1  0  0  0  0
 13  4  1  6  0  0  0
  4 41  1  0  0  0  0
 15  5  1  1  0  0  0
  5 43  1  0  0  0  0
 11  6  1  1  0  0  0
  6 22  1  0  0  0  0
  6 36  1  0  0  0  0
 12  7  1  6  0  0  0
  7 39  1  0  0  0  0
  7 40  1  0  0  0  0
 17  8  1  6  0  0  0
  8 47  1  0  0  0  0
  8 48  1  0  0  0  0
 21  9  1  1  0  0  0
  9 55  1  0  0  0  0
  9 56  1  0  0  0  0
 10 12  1  0  0  0  0
 10 13  1  0  0  0  0
 10 25  1  0  0  0  0
 11 13  1  0  0  0  0
 11 14  1  0  0  0  0
 11 26  1  0  0  0  0
 12 15  1  0  0  0  0
 12 27  1  0  0  0  0
 13 28  1  0  0  0  0
 14 15  1  0  0  0  0
 14 29  1  0  0  0  0
 15 30  1  0  0  0  0
 16 17  1  0  0  0  0
 16 31  1  0  0  0  0
 17 19  1  0  0  0  0
 17 32  1  0  0  0  0
 18 20  1  0  0  0  0
 18 21  1  0  0  0  0
 18 33  1  6  0  0  0
 19 20  1  0  0  0  0
 19 34  1  0  0  0  0
 19 35  1  0  0  0  0
 20 37  1  0  0  0  0
 20 38  1  0  0  0  0
 21 24  1  0  0  0  0
 21 42  1  0  0  0  0
 22 44  1  0  0  0  0
 22 45  1  0  0  0  0
 22 46  1  0  0  0  0
 23 49  1  0  0  0  0
 23 50  1  0  0  0  0
 23 51  1  0  0  0  0
 24 52  1  0  0  0  0
 24 53  1  0  0  0  0
 24 54  1  0  0  0  0
M  END
> <PUBCHEM_COMPOUND_CID>
13017882

> <PUBCHEM_COMPOUND_CANONICALIZED>
1

> <PUBCHEM_CACTVS_COMPLEXITY>
404

> <PUBCHEM_CACTVS_HBOND_ACCEPTOR>
9

> <PUBCHEM_CACTVS_HBOND_DONOR>
6

> <PUBCHEM_CACTVS_ROTATABLE_BOND>
5

> <PUBCHEM_CACTVS_SUBSKEYS>
AAADcfBzuAAAAAAAAAAAAAAAAAAAAAAAAAA0QAAAAAAAAAAAAAAAHgAQCAAACDzxgAcCCALABgAAAAAAAAAAAAAAAAAAAIAIAAATEAIAgAAnQAAHEAAXAAHw8C8AAAAAAAAAAAACAQAUAACgAAAAAAAAAA==

> <PUBCHEM_IUPAC_OPENEYE_NAME>
(1S,2S,3R,4R,5R,6R)-2-amino-3-[(2R,3R,6S)-3-amino-6-[(1S)-1-aminoethyl]tetrahydropyran-2-yl]oxy-6-methoxy-5-(methylamino)cyclohexane-1,4-diol

> <PUBCHEM_IUPAC_CAS_NAME>
(1S,2S,3R,4R,5R,6R)-2-amino-3-[[(2R,3R,6S)-3-amino-6-[(1S)-1-aminoethyl]-2-oxanyl]oxy]-6-methoxy-5-(methylamino)cyclohexane-1,4-diol

> <PUBCHEM_IUPAC_NAME>
(1S,2S,3R,4R,5R,6R)-2-amino-3-[(2R,3R,6S)-3-amino-6-[(1S)-1-aminoethyl]oxan-2-yl]oxy-6-methoxy-5-(methylamino)cyclohexane-1,4-diol

> <PUBCHEM_IUPAC_SYSTEMATIC_NAME>
(1S,2S,3R,4R,5R,6R)-2-azanyl-3-[(2R,3R,6S)-3-azanyl-6-[(1S)-1-azanylethyl]oxan-2-yl]oxy-6-methoxy-5-(methylamino)cyclohexane-1,4-diol

> <PUBCHEM_IUPAC_TRADITIONAL_NAME>
(1S,2S,3R,4R,5R,6R)-2-amino-3-[(2R,3R,6S)-3-amino-6-[(1S)-1-aminoethyl]tetrahydropyran-2-yl]oxy-6-methoxy-5-(methylamino)cyclohexane-1,4-diol

> <PUBCHEM_IUPAC_INCHI>
InChI=1S/C15H32N4O5/c1-6(16)8-5-4-7(17)15(23-8)24-13-9(18)11(20)14(22-3)10(19-2)12(13)21/h6-15,19-21H,4-5,16-18H2,1-3H3/t6-,7+,8-,9-,10+,11-,12+,13+,14+,15+/m0/s1

> <PUBCHEM_IUPAC_INCHIKEY>
WFMQYKIRAVMXSU-GBKVUIFDSA-N

> <PUBCHEM_XLOGP3_AA>
-3.4

> <PUBCHEM_EXACT_MASS>
348.23727

> <PUBCHEM_MOLECULAR_FORMULA>
C15H32N4O5

> <PUBCHEM_MOLECULAR_WEIGHT>
348.43838

> <PUBCHEM_OPENEYE_CAN_SMILES>
CC(C1CCC(C(O1)OC2C(C(C(C(C2O)NC)OC)O)N)N)N

> <PUBCHEM_OPENEYE_ISO_SMILES>
C[C@@H]([C@@H]1CC[C@H]([C@H](O1)O[C@@H]2[C@H]([C@@H]([C@@H]([C@@H]([C@H]2O)NC)OC)O)N)N)N

> <PUBCHEM_CACTVS_TPSA>
158

> <PUBCHEM_MONOISOTOPIC_WEIGHT>
348.23727

> <PUBCHEM_TOTAL_CHARGE>
0

> <PUBCHEM_HEAVY_ATOM_COUNT>
24

> <PUBCHEM_ATOM_DEF_STEREO_COUNT>
10

> <PUBCHEM_ATOM_UDEF_STEREO_COUNT>
0

> <PUBCHEM_BOND_DEF_STEREO_COUNT>
0

> <PUBCHEM_BOND_UDEF_STEREO_COUNT>
0

> <PUBCHEM_ISOTOPIC_ATOM_COUNT>
0

> <PUBCHEM_COMPONENT_COUNT>
1

> <PUBCHEM_CACTVS_TAUTO_COUNT>
1

> <PUBCHEM_COORDINATE_TYPE>
1
5
255

> <PUBCHEM_BONDANNOTATIONS>
10  1  5
16  1  6
18  33  6
14  3  5
13  4  6
15  5  5
11  6  5
12  7  6
17  8  6
21  9  5

$$$$

