11953928
  -OEChem-07051212562D

101109  0     1  0  0  0  0  0999 V2000
   11.7444   -0.6327    0.0000 O   0  0  0  0  0  0  0  0  0  0  0  0
   10.0126    0.0974    0.0000 O   0  0  0  0  0  0  0  0  0  0  0  0
    7.1319   -2.2935    0.0000 O   0  0  0  0  0  0  0  0  0  0  0  0
    2.4522   -2.2922    0.0000 O   0  0  0  0  0  0  0  0  0  0  0  0
    3.5052   -3.2365    0.0000 O   0  0  0  0  0  0  0  0  0  0  0  0
   10.8329    2.7792    0.0000 N   0  0  3  0  0  0  0  0  0  0  0  0
   10.1969   -0.3962    0.0000 N   0  0  0  0  0  0  0  0  0  0  0  0
    2.8537   -1.1292    0.0000 N   0  0  0  0  0  0  0  0  0  0  0  0
    6.4788    1.1759    0.0000 N   0  0  0  0  0  0  0  0  0  0  0  0
   11.4564    1.9974    0.0000 C   0  0  2  0  0  0  0  0  0  0  0  0
   11.2339    1.0224    0.0000 C   0  0  1  0  0  0  0  0  0  0  0  0
   12.9841    0.6016    0.0000 C   0  0  2  0  0  0  0  0  0  0  0  0
   12.4469    2.3197    0.0000 C   0  0  2  0  0  0  0  0  0  0  0  0
   11.9864    0.3022    0.0000 C   0  0  0  0  0  0  0  0  0  0  0  0
   13.2159    1.6171    0.0000 C   0  0  0  0  0  0  0  0  0  0  0  0
   12.5371    2.3114    0.0000 C   0  0  0  0  0  0  0  0  0  0  0  0
   10.3329    0.5885    0.0000 C   0  0  0  0  0  0  0  0  0  0  0  0
    9.8329    2.7792    0.0000 C   0  0  0  0  0  0  0  0  0  0  0  0
   12.6581    3.2971    0.0000 C   0  0  0  0  0  0  0  0  0  0  0  0
    9.4320    1.0224    0.0000 C   0  0  0  0  0  0  0  0  0  0  0  0
   11.0114    0.0475    0.0000 C   0  0  0  0  0  0  0  0  0  0  0  0
    9.2094    1.9974    0.0000 C   0  0  0  0  0  0  0  0  0  0  0  0
    8.7468    0.3021    0.0000 C   0  0  0  0  0  0  0  0  0  0  0  0
    9.2187   -0.5728    0.0000 C   0  0  0  0  0  0  0  0  0  0  0  0
   13.6102    3.6029    0.0000 C   0  0  0  0  0  0  0  0  0  0  0  0
    7.7124    0.3482    0.0000 C   0  0  0  0  0  0  0  0  0  0  0  0
    8.6888   -1.4624    0.0000 C   0  0  0  0  0  0  0  0  0  0  0  0
    7.1621   -0.5289    0.0000 C   0  0  0  0  0  0  0  0  0  0  0  0
    6.1626   -0.4960    0.0000 C   0  0  1  0  0  0  0  0  0  0  0  0
    7.6535   -1.4403    0.0000 C   0  0  0  0  0  0  0  0  0  0  0  0
    5.7497   -1.4068    0.0000 C   0  0  0  0  0  0  0  0  0  0  0  0
    4.8138   -1.7589    0.0000 C   0  0  2  0  0  0  0  0  0  0  0  0
    3.9030   -1.3460    0.0000 C   0  0  3  0  0  0  0  0  0  0  0  0
   11.5219   -1.6076    0.0000 C   0  0  0  0  0  0  0  0  0  0  0  0
    3.5509   -0.4101    0.0000 C   0  0  1  0  0  0  0  0  0  0  0  0
    5.8105    0.4399    0.0000 C   0  0  0  0  0  0  0  0  0  0  0  0
    3.9638    0.5007    0.0000 C   0  0  0  0  0  0  0  0  0  0  0  0
    4.8998    0.8528    0.0000 C   0  0  0  0  0  0  0  0  0  0  0  0
    4.0503   -2.4072    0.0000 C   0  0  0  0  0  0  0  0  0  0  0  0
    3.0967   -2.1009    0.0000 C   0  0  0  0  0  0  0  0  0  0  0  0
    5.0129    1.8404    0.0000 C   0  0  0  0  0  0  0  0  0  0  0  0
    3.4508   -2.2379    0.0000 C   0  0  0  0  0  0  0  0  0  0  0  0
    5.9868    2.0397    0.0000 C   0  0  0  0  0  0  0  0  0  0  0  0
    4.2457   -3.3880    0.0000 C   0  0  0  0  0  0  0  0  0  0  0  0
    4.3140    2.6045    0.0000 C   0  0  0  0  0  0  0  0  0  0  0  0
    7.6099   -3.1718    0.0000 C   0  0  0  0  0  0  0  0  0  0  0  0
    6.3293    3.0169    0.0000 C   0  0  0  0  0  0  0  0  0  0  0  0
    5.1927   -3.7092    0.0000 C   0  0  0  0  0  0  0  0  0  0  0  0
    4.6339    3.5893    0.0000 C   0  0  0  0  0  0  0  0  0  0  0  0
    5.6483    3.7969    0.0000 C   0  0  0  0  0  0  0  0  0  0  0  0
    2.0000   -3.1841    0.0000 C   0  0  0  0  0  0  0  0  0  0  0  0
   11.6456    2.8260    0.0000 H   0  0  0  0  0  0  0  0  0  0  0  0
   13.1991   -0.2208    0.0000 H   0  0  0  0  0  0  0  0  0  0  0  0
   13.0376    2.5081    0.0000 H   0  0  0  0  0  0  0  0  0  0  0  0
   11.4875   -0.0657    0.0000 H   0  0  0  0  0  0  0  0  0  0  0  0
   12.2636   -0.2524    0.0000 H   0  0  0  0  0  0  0  0  0  0  0  0
   13.7879    1.3778    0.0000 H   0  0  0  0  0  0  0  0  0  0  0  0
   13.5496    2.1396    0.0000 H   0  0  0  0  0  0  0  0  0  0  0  0
   13.1551    2.3617    0.0000 H   0  0  0  0  0  0  0  0  0  0  0  0
   12.5949    2.9287    0.0000 H   0  0  0  0  0  0  0  0  0  0  0  0
    9.9709    3.3836    0.0000 H   0  0  0  0  0  0  0  0  0  0  0  0
    9.2743    3.0482    0.0000 H   0  0  0  0  0  0  0  0  0  0  0  0
   12.5739    3.9114    0.0000 H   0  0  0  0  0  0  0  0  0  0  0  0
   12.0386    3.3209    0.0000 H   0  0  0  0  0  0  0  0  0  0  0  0
    8.8229    2.4821    0.0000 H   0  0  0  0  0  0  0  0  0  0  0  0
    8.6508    1.7284    0.0000 H   0  0  0  0  0  0  0  0  0  0  0  0
   10.6443   -0.8254    0.0000 H   0  0  0  0  0  0  0  0  0  0  0  0
   13.7998    3.0126    0.0000 H   0  0  0  0  0  0  0  0  0  0  0  0
   14.2006    3.7925    0.0000 H   0  0  0  0  0  0  0  0  0  0  0  0
   13.4207    4.1932    0.0000 H   0  0  0  0  0  0  0  0  0  0  0  0
    7.4245    0.8972    0.0000 H   0  0  0  0  0  0  0  0  0  0  0  0
    8.9893   -2.0047    0.0000 H   0  0  0  0  0  0  0  0  0  0  0  0
    6.6578    0.1948    0.0000 H   0  0  0  0  0  0  0  0  0  0  0  0
    5.8104   -2.0238    0.0000 H   0  0  0  0  0  0  0  0  0  0  0  0
    6.3614   -1.5079    0.0000 H   0  0  0  0  0  0  0  0  0  0  0  0
    5.2449   -2.4915    0.0000 H   0  0  0  0  0  0  0  0  0  0  0  0
    3.2839   -1.3121    0.0000 H   0  0  0  0  0  0  0  0  0  0  0  0
   10.9174   -1.4696    0.0000 H   0  0  0  0  0  0  0  0  0  0  0  0
   11.3839   -2.2121    0.0000 H   0  0  0  0  0  0  0  0  0  0  0  0
   12.1264   -1.7456    0.0000 H   0  0  0  0  0  0  0  0  0  0  0  0
    3.2516    0.3855    0.0000 H   0  0  0  0  0  0  0  0  0  0  0  0
    3.9031    1.1178    0.0000 H   0  0  0  0  0  0  0  0  0  0  0  0
    3.3521    0.6018    0.0000 H   0  0  0  0  0  0  0  0  0  0  0  0
    2.2550   -0.9684    0.0000 H   0  0  0  0  0  0  0  0  0  0  0  0
    2.4778   -2.1379    0.0000 H   0  0  0  0  0  0  0  0  0  0  0  0
    3.0191   -2.7160    0.0000 H   0  0  0  0  0  0  0  0  0  0  0  0
    7.0950    1.1080    0.0000 H   0  0  0  0  0  0  0  0  0  0  0  0
    3.7796   -3.7969    0.0000 H   0  0  0  0  0  0  0  0  0  0  0  0
    3.7081    2.4732    0.0000 H   0  0  0  0  0  0  0  0  0  0  0  0
    7.0653   -3.4682    0.0000 H   0  0  0  0  0  0  0  0  0  0  0  0
    7.9063   -3.7164    0.0000 H   0  0  0  0  0  0  0  0  0  0  0  0
    8.1545   -2.8755    0.0000 H   0  0  0  0  0  0  0  0  0  0  0  0
    6.9381    3.1342    0.0000 H   0  0  0  0  0  0  0  0  0  0  0  0
    4.9935   -4.2963    0.0000 H   0  0  0  0  0  0  0  0  0  0  0  0
    5.7798   -3.9083    0.0000 H   0  0  0  0  0  0  0  0  0  0  0  0
    5.3918   -3.1220    0.0000 H   0  0  0  0  0  0  0  0  0  0  0  0
    4.2207    4.0516    0.0000 H   0  0  0  0  0  0  0  0  0  0  0  0
    5.8466    4.3843    0.0000 H   0  0  0  0  0  0  0  0  0  0  0  0
    1.4470   -2.9038    0.0000 H   0  0  0  0  0  0  0  0  0  0  0  0
    1.7196   -3.7371    0.0000 H   0  0  0  0  0  0  0  0  0  0  0  0
    2.5530   -3.4645    0.0000 H   0  0  0  0  0  0  0  0  0  0  0  0
  1 21  1  0  0  0  0
  1 34  1  0  0  0  0
  2 21  2  0  0  0  0
  3 30  1  0  0  0  0
  3 46  1  0  0  0  0
  4 42  1  0  0  0  0
  4 51  1  0  0  0  0
  5 42  2  0  0  0  0
  6 10  1  0  0  0  0
  6 16  1  0  0  0  0
  6 18  1  0  0  0  0
  7 17  1  0  0  0  0
  7 24  1  0  0  0  0
  7 67  1  0  0  0  0
  8 35  1  0  0  0  0
  8 40  1  0  0  0  0
  8 84  1  0  0  0  0
  9 36  1  0  0  0  0
  9 43  1  0  0  0  0
  9 87  1  0  0  0  0
 10 11  1  0  0  0  0
 10 13  1  0  0  0  0
 10 52  1  6  0  0  0
 11 14  1  0  0  0  0
 11 17  1  0  0  0  0
 11 21  1  6  0  0  0
 12 14  1  0  0  0  0
 12 15  1  0  0  0  0
 12 16  1  0  0  0  0
 12 53  1  6  0  0  0
 13 15  1  0  0  0  0
 13 19  1  1  0  0  0
 13 54  1  0  0  0  0
 14 55  1  0  0  0  0
 14 56  1  0  0  0  0
 15 57  1  0  0  0  0
 15 58  1  0  0  0  0
 16 59  1  0  0  0  0
 16 60  1  0  0  0  0
 17 20  2  0  0  0  0
 18 22  1  0  0  0  0
 18 61  1  0  0  0  0
 18 62  1  0  0  0  0
 19 25  1  0  0  0  0
 19 63  1  0  0  0  0
 19 64  1  0  0  0  0
 20 22  1  0  0  0  0
 20 23  1  0  0  0  0
 22 65  1  0  0  0  0
 22 66  1  0  0  0  0
 23 24  1  0  0  0  0
 23 26  2  0  0  0  0
 24 27  2  0  0  0  0
 25 68  1  0  0  0  0
 25 69  1  0  0  0  0
 25 70  1  0  0  0  0
 26 28  1  0  0  0  0
 26 71  1  0  0  0  0
 27 30  1  0  0  0  0
 27 72  1  0  0  0  0
 28 29  1  0  0  0  0
 28 30  2  0  0  0  0
 29 31  1  0  0  0  0
 29 36  1  0  0  0  0
 29 73  1  6  0  0  0
 31 32  1  0  0  0  0
 31 74  1  0  0  0  0
 31 75  1  0  0  0  0
 32 33  1  0  0  0  0
 32 39  1  0  0  0  0
 32 76  1  6  0  0  0
 33 35  1  0  0  0  0
 33 42  1  0  0  0  0
 33 77  1  0  0  0  0
 34 78  1  0  0  0  0
 34 79  1  0  0  0  0
 34 80  1  0  0  0  0
 35 37  1  0  0  0  0
 35 81  1  1  0  0  0
 36 38  2  0  0  0  0
 37 38  1  0  0  0  0
 37 82  1  0  0  0  0
 37 83  1  0  0  0  0
 38 41  1  0  0  0  0
 39 40  1  0  0  0  0
 39 44  2  0  0  0  0
 40 85  1  0  0  0  0
 40 86  1  0  0  0  0
 41 43  1  0  0  0  0
 41 45  2  0  0  0  0
 43 47  2  0  0  0  0
 44 48  1  0  0  0  0
 44 88  1  0  0  0  0
 45 49  1  0  0  0  0
 45 89  1  0  0  0  0
 46 90  1  0  0  0  0
 46 91  1  0  0  0  0
 46 92  1  0  0  0  0
 47 50  1  0  0  0  0
 47 93  1  0  0  0  0
 48 94  1  0  0  0  0
 48 95  1  0  0  0  0
 48 96  1  0  0  0  0
 49 50  2  0  0  0  0
 49 97  1  0  0  0  0
 50 98  1  0  0  0  0
 51 99  1  0  0  0  0
 51100  1  0  0  0  0
 51101  1  0  0  0  0
M  END
> <PUBCHEM_COMPOUND_CID>
11953928

> <PUBCHEM_COMPOUND_CANONICALIZED>
1

> <PUBCHEM_CACTVS_COMPLEXITY>
1370

> <PUBCHEM_CACTVS_HBOND_ACCEPTOR>
7

> <PUBCHEM_CACTVS_HBOND_DONOR>
3

> <PUBCHEM_CACTVS_ROTATABLE_BOND>
7

> <PUBCHEM_CACTVS_SUBSKEYS>
AAADcfB/uAAAAAAAAAAAAAAAAAAAAWLAAAA8ePECBYAYAFix/gAAHgAQAAAADyzBngYyzvPJlACoAyTyTACCiCAhIiAImaE+bJgMJvrE9ZuEMChm0BnI6Ae42fOPqAACAgAKAABQAAQEABQAAAAAAAAAAA==

> <PUBCHEM_IUPAC_INCHI>
InChI=1S/C42H50N4O5/c1-6-23-14-22-19-42(41(48)51-5)38-26(12-13-46(21-22)39(23)42)28-16-29(35(49-3)18-33(28)45-38)30-15-27-24(7-2)20-43-34(36(27)40(47)50-4)17-31-25-10-8-9-11-32(25)44-37(30)31/h7-11,16,18,22-23,27,30,34,36,39,43-45H,6,12-15,17,19-21H2,1-5H3/b24-7-/t22-,23-,27-,30+,34+,36?,39-,42+/m0/s1

> <PUBCHEM_IUPAC_INCHIKEY>
PIUQMWWFBLVDEE-WNZMBYOVSA-N

> <PUBCHEM_XLOGP3_AA>
5.6

> <PUBCHEM_EXACT_MASS>
690.378121

> <PUBCHEM_MOLECULAR_FORMULA>
C42H50N4O5

> <PUBCHEM_MOLECULAR_WEIGHT>
690.8702

> <PUBCHEM_OPENEYE_CAN_SMILES>
CCC1CC2CC3(C1N(C2)CCC4=C3NC5=CC(=C(C=C45)C6CC7C(C(CC8=C6NC9=CC=CC=C89)NCC7=CC)C(=O)OC)OC)C(=O)OC

> <PUBCHEM_OPENEYE_ISO_SMILES>
CC[C@H]1C[C@H]2C[C@@]3([C@H]1N(C2)CCC4=C3NC5=CC(=C(C=C45)[C@H]6C[C@@H]\7C([C@@H](CC8=C6NC9=CC=CC=C89)NC/C7=C/C)C(=O)OC)OC)C(=O)OC

> <PUBCHEM_CACTVS_TPSA>
109

> <PUBCHEM_MONOISOTOPIC_WEIGHT>
690.378121

> <PUBCHEM_TOTAL_CHARGE>
0

> <PUBCHEM_HEAVY_ATOM_COUNT>
51

> <PUBCHEM_ATOM_DEF_STEREO_COUNT>
7

> <PUBCHEM_ATOM_UDEF_STEREO_COUNT>
1

> <PUBCHEM_BOND_DEF_STEREO_COUNT>
1

> <PUBCHEM_BOND_UDEF_STEREO_COUNT>
0

> <PUBCHEM_ISOTOPIC_ATOM_COUNT>
0

> <PUBCHEM_COMPONENT_COUNT>
1

> <PUBCHEM_CACTVS_TAUTO_COUNT>
1

> <PUBCHEM_COORDINATE_TYPE>
1
5
255

> <PUBCHEM_BONDANNOTATIONS>
10  52  6
11  21  6
12  53  6
13  19  5
17  20  8
20  23  8
23  24  8
23  26  8
24  27  8
26  28  8
27  30  8
28  30  8
29  73  6
32  76  6
33  42  3
35  81  5
36  38  8
38  41  8
41  43  8
41  45  8
43  47  8
45  49  8
47  50  8
49  50  8
7  17  8
7  24  8
9  36  8
9  43  8

$$$$

