73337
  -OEChem-07051212572D

 49 52  0     1  0  0  0  0  0999 V2000
    5.5103    1.4285    0.0000 O   0  0  0  0  0  0  0  0  0  0  0  0
    7.2762    2.4663    0.0000 O   0  0  0  0  0  0  0  0  0  0  0  0
    4.6497    0.9316    0.0000 O   0  0  0  0  0  0  0  0  0  0  0  0
    2.8680   -0.0788    0.0000 O   0  0  0  0  0  0  0  0  0  0  0  0
    8.1223   -2.0999    0.0000 N   0  3  0  0  0  0  0  0  0  0  0  0
    7.2641   -1.6030    0.0000 C   0  0  2  0  0  0  0  0  0  0  0  0
    8.9878   -1.6157    0.0000 C   0  0  0  0  0  0  0  0  0  0  0  0
    7.2641   -0.6030    0.0000 C   0  0  0  0  0  0  0  0  0  0  0  0
    6.3981   -2.1030    0.0000 C   0  0  0  0  0  0  0  0  0  0  0  0
    9.0134   -0.6244    0.0000 C   0  0  0  0  0  0  0  0  0  0  0  0
    8.1741   -0.0961    0.0000 C   0  0  0  0  0  0  0  0  0  0  0  0
    8.6159   -2.9696    0.0000 C   0  0  0  0  0  0  0  0  0  0  0  0
    7.6159   -2.9622    0.0000 C   0  0  0  0  0  0  0  0  0  0  0  0
    6.3981   -0.1030    0.0000 C   0  0  0  0  0  0  0  0  0  0  0  0
    5.5320   -1.6030    0.0000 C   0  0  0  0  0  0  0  0  0  0  0  0
    5.5320   -0.6030    0.0000 C   0  0  0  0  0  0  0  0  0  0  0  0
    8.1821    0.9455    0.0000 C   0  0  0  0  0  0  0  0  0  0  0  0
    6.3820    0.9385    0.0000 C   0  0  0  0  0  0  0  0  0  0  0  0
    7.2800    1.4663    0.0000 C   0  0  0  0  0  0  0  0  0  0  0  0
    4.6381   -2.1376    0.0000 C   0  0  0  0  0  0  0  0  0  0  0  0
    4.6381   -0.0683    0.0000 C   0  0  0  0  0  0  0  0  0  0  0  0
    3.7320   -0.5822    0.0000 C   0  0  0  0  0  0  0  0  0  0  0  0
    3.7320   -1.6238    0.0000 C   0  0  0  0  0  0  0  0  0  0  0  0
    8.1403    2.9696    0.0000 C   0  0  0  0  0  0  0  0  0  0  0  0
    2.0000   -0.5755    0.0000 C   0  0  0  0  0  0  0  0  0  0  0  0
    7.2636   -2.4530    0.0000 H   0  0  0  0  0  0  0  0  0  0  0  0
    9.1895   -2.2020    0.0000 H   0  0  0  0  0  0  0  0  0  0  0  0
    9.6006   -1.5214    0.0000 H   0  0  0  0  0  0  0  0  0  0  0  0
    5.9995   -2.5779    0.0000 H   0  0  0  0  0  0  0  0  0  0  0  0
    6.7966   -2.5779    0.0000 H   0  0  0  0  0  0  0  0  0  0  0  0
    9.6205   -0.7502    0.0000 H   0  0  0  0  0  0  0  0  0  0  0  0
    9.2452   -0.0493    0.0000 H   0  0  0  0  0  0  0  0  0  0  0  0
    8.0767   -3.2756    0.0000 H   0  0  0  0  0  0  0  0  0  0  0  0
    7.0813   -2.6482    0.0000 H   0  0  0  0  0  0  0  0  0  0  0  0
    7.3020   -3.4968    0.0000 H   0  0  0  0  0  0  0  0  0  0  0  0
    8.1506   -3.2762    0.0000 H   0  0  0  0  0  0  0  0  0  0  0  0
    8.9219   -3.5088    0.0000 H   0  0  0  0  0  0  0  0  0  0  0  0
    9.1551   -2.6636    0.0000 H   0  0  0  0  0  0  0  0  0  0  0  0
    8.7203    1.2534    0.0000 H   0  0  0  0  0  0  0  0  0  0  0  0
    4.6453   -2.7576    0.0000 H   0  0  0  0  0  0  0  0  0  0  0  0
    3.1963   -1.9359    0.0000 H   0  0  0  0  0  0  0  0  0  0  0  0
    5.5031    2.0484    0.0000 H   0  0  0  0  0  0  0  0  0  0  0  0
    4.1164    1.2478    0.0000 H   0  0  0  0  0  0  0  0  0  0  0  0
    8.4523    2.4339    0.0000 H   0  0  0  0  0  0  0  0  0  0  0  0
    8.6760    3.2817    0.0000 H   0  0  0  0  0  0  0  0  0  0  0  0
    7.8282    3.5054    0.0000 H   0  0  0  0  0  0  0  0  0  0  0  0
    1.6921   -0.0374    0.0000 H   0  0  0  0  0  0  0  0  0  0  0  0
    1.4619   -0.8834    0.0000 H   0  0  0  0  0  0  0  0  0  0  0  0
    2.3079   -1.1136    0.0000 H   0  0  0  0  0  0  0  0  0  0  0  0
  1 18  1  0  0  0  0
  1 42  1  0  0  0  0
  2 19  1  0  0  0  0
  2 24  1  0  0  0  0
  3 21  1  0  0  0  0
  3 43  1  0  0  0  0
  4 22  1  0  0  0  0
  4 25  1  0  0  0  0
  5  6  1  0  0  0  0
  5  7  1  0  0  0  0
  5 12  1  0  0  0  0
  5 13  1  0  0  0  0
  6  8  1  0  0  0  0
  6  9  1  0  0  0  0
  6 26  1  6  0  0  0
  7 10  1  0  0  0  0
  7 27  1  0  0  0  0
  7 28  1  0  0  0  0
  8 11  1  0  0  0  0
  8 14  2  0  0  0  0
  9 15  1  0  0  0  0
  9 29  1  0  0  0  0
  9 30  1  0  0  0  0
 10 11  1  0  0  0  0
 10 31  1  0  0  0  0
 10 32  1  0  0  0  0
 11 17  2  0  0  0  0
 12 33  1  0  0  0  0
 12 37  1  0  0  0  0
 12 38  1  0  0  0  0
 13 34  1  0  0  0  0
 13 35  1  0  0  0  0
 13 36  1  0  0  0  0
 14 16  1  0  0  0  0
 14 18  1  0  0  0  0
 15 16  2  0  0  0  0
 15 20  1  0  0  0  0
 16 21  1  0  0  0  0
 17 19  1  0  0  0  0
 17 39  1  0  0  0  0
 18 19  2  0  0  0  0
 20 23  2  0  0  0  0
 20 40  1  0  0  0  0
 21 22  2  0  0  0  0
 22 23  1  0  0  0  0
 23 41  1  0  0  0  0
 24 44  1  0  0  0  0
 24 45  1  0  0  0  0
 24 46  1  0  0  0  0
 25 47  1  0  0  0  0
 25 48  1  0  0  0  0
 25 49  1  0  0  0  0
M  CHG  1   5   1
M  END
> <PUBCHEM_COMPOUND_CID>
73337

> <PUBCHEM_COMPOUND_CANONICALIZED>
1

> <PUBCHEM_CACTVS_COMPLEXITY>
498

> <PUBCHEM_CACTVS_HBOND_ACCEPTOR>
4

> <PUBCHEM_CACTVS_HBOND_DONOR>
2

> <PUBCHEM_CACTVS_ROTATABLE_BOND>
2

> <PUBCHEM_CACTVS_SUBSKEYS>
AAADceB6OAAAAAAAAAAAAAAAAAAAAAAAAAA8YMEAAAAAAADxQAAAHgAACAAADCzBmAYyBoMABgCAAiBCAACCCAAgIAAIiAAOjIgNJiKGsRuEcCtkwBGLuAfw8P8OoAADAAAYQADQAAaAADSAAAAAAAAAAA==

> <PUBCHEM_IUPAC_OPENEYE_NAME>
(8S)-2,13-dimethoxy-7,7-dimethyl-5,6,6a,7-tetrahydro-4H-dibenzo[de,g]quinoline-7-ium-1,14-diol

> <PUBCHEM_IUPAC_CAS_NAME>
(8S)-2,13-dimethoxy-7,7-dimethyl-5,6,6a,7-tetrahydro-4H-dibenzo[de,g]quinoline-7-ium-1,14-diol

> <PUBCHEM_IUPAC_NAME>
(8S)-2,13-dimethoxy-7,7-dimethyl-5,6,6a,7-tetrahydro-4H-dibenzo[de,g]quinoline-7-ium-1,14-diol

> <PUBCHEM_IUPAC_SYSTEMATIC_NAME>
(8S)-2,13-dimethoxy-7,7-dimethyl-5,6,6a,7-tetrahydro-4H-dibenzo[de,g]quinoline-7-ium-1,14-diol

> <PUBCHEM_IUPAC_TRADITIONAL_NAME>
(8S)-2,13-dimethoxy-7,7-dimethyl-5,6,6a,7-tetrahydro-4H-dibenzo[de,g]quinoline-7-ium-1,14-diol

> <PUBCHEM_IUPAC_INCHI>
InChI=1S/C20H23NO4/c1-21(2)8-7-12-10-15(25-4)20(23)18-16(12)13(21)9-11-5-6-14(24-3)19(22)17(11)18/h5-6,10,13H,7-9H2,1-4H3,(H-,22,23)/p+1/t13-/m0/s1

> <PUBCHEM_IUPAC_INCHIKEY>
YLRXAIKMLINXQY-ZDUSSCGKSA-O

> <PUBCHEM_XLOGP3_AA>
2.7

> <PUBCHEM_EXACT_MASS>
342.170533

> <PUBCHEM_MOLECULAR_FORMULA>
C20H24NO4+

> <PUBCHEM_MOLECULAR_WEIGHT>
342.40886

> <PUBCHEM_OPENEYE_CAN_SMILES>
C[N+]1(CCC2=CC(=C(C3=C2C1CC4=C3C(=C(C=C4)OC)O)O)OC)C

> <PUBCHEM_OPENEYE_ISO_SMILES>
C[N+]1(CCC2=CC(=C(C3=C2[C@@H]1CC4=C3C(=C(C=C4)OC)O)O)OC)C

> <PUBCHEM_CACTVS_TPSA>
58.9

> <PUBCHEM_MONOISOTOPIC_WEIGHT>
342.170533

> <PUBCHEM_TOTAL_CHARGE>
1

> <PUBCHEM_HEAVY_ATOM_COUNT>
25

> <PUBCHEM_ATOM_DEF_STEREO_COUNT>
1

> <PUBCHEM_ATOM_UDEF_STEREO_COUNT>
0

> <PUBCHEM_BOND_DEF_STEREO_COUNT>
0

> <PUBCHEM_BOND_UDEF_STEREO_COUNT>
0

> <PUBCHEM_ISOTOPIC_ATOM_COUNT>
0

> <PUBCHEM_COMPONENT_COUNT>
1

> <PUBCHEM_CACTVS_TAUTO_COUNT>
118

> <PUBCHEM_COORDINATE_TYPE>
1
5
255

> <PUBCHEM_BONDANNOTATIONS>
11  17  8
14  18  8
15  16  8
15  20  8
16  21  8
17  19  8
18  19  8
20  23  8
21  22  8
22  23  8
6  26  6
8  11  8
8  14  8

$$$$

