68844
  -OEChem-07051212542D

 44 45  0     1  0  0  0  0  0999 V2000
    7.1962    1.8170    0.0000 S   0  0  0  0  0  0  0  0  0  0  0  0
    9.0084    1.6217    0.0000 S   0  0  0  0  0  0  0  0  0  0  0  0
   10.5920    0.8170    0.0000 S   0  0  0  0  0  0  0  0  0  0  0  0
    6.6962    2.6830    0.0000 O   0  0  0  0  0  0  0  0  0  0  0  0
    7.6962    2.6830    0.0000 O   0  0  0  0  0  0  0  0  0  0  0  0
    2.8660    1.3170    0.0000 O   0  0  0  0  0  0  0  0  0  0  0  0
   10.5920   -0.1830    0.0000 O   0  0  0  0  0  0  0  0  0  0  0  0
   10.5920    1.8170    0.0000 O   0  0  0  0  0  0  0  0  0  0  0  0
    6.3301    1.3170    0.0000 N   0  0  3  0  0  0  0  0  0  0  0  0
    7.1962   -1.1830    0.0000 N   0  0  0  0  0  0  0  0  0  0  0  0
   11.5920    0.8170    0.0000 N   0  0  0  0  0  0  0  0  0  0  0  0
    7.1962   -0.1830    0.0000 C   0  0  1  0  0  0  0  0  0  0  0  0
    6.3301    0.3170    0.0000 C   0  0  0  0  0  0  0  0  0  0  0  0
    8.0622    0.3170    0.0000 C   0  0  0  0  0  0  0  0  0  0  0  0
    8.0622    1.3170    0.0000 C   0  0  0  0  0  0  0  0  0  0  0  0
    5.4641    1.8170    0.0000 C   0  0  0  0  0  0  0  0  0  0  0  0
    9.0084    0.0123    0.0000 C   0  0  0  0  0  0  0  0  0  0  0  0
    4.5981    1.3170    0.0000 C   0  0  0  0  0  0  0  0  0  0  0  0
    9.5920    0.8170    0.0000 C   0  0  0  0  0  0  0  0  0  0  0  0
    6.3301   -1.6830    0.0000 C   0  0  0  0  0  0  0  0  0  0  0  0
    3.7320    1.8170    0.0000 C   0  0  0  0  0  0  0  0  0  0  0  0
    6.3301   -2.6830    0.0000 C   0  0  0  0  0  0  0  0  0  0  0  0
    2.0000    1.8170    0.0000 C   0  0  0  0  0  0  0  0  0  0  0  0
    6.6592   -0.4930    0.0000 H   0  0  0  0  0  0  0  0  0  0  0  0
    5.7196    0.4246    0.0000 H   0  0  0  0  0  0  0  0  0  0  0  0
    6.1181   -0.2656    0.0000 H   0  0  0  0  0  0  0  0  0  0  0  0
    5.8626    2.2919    0.0000 H   0  0  0  0  0  0  0  0  0  0  0  0
    5.0656    2.2919    0.0000 H   0  0  0  0  0  0  0  0  0  0  0  0
    7.7331   -1.4930    0.0000 H   0  0  0  0  0  0  0  0  0  0  0  0
    9.2010   -0.5771    0.0000 H   0  0  0  0  0  0  0  0  0  0  0  0
    4.1996    0.8420    0.0000 H   0  0  0  0  0  0  0  0  0  0  0  0
    4.9966    0.8420    0.0000 H   0  0  0  0  0  0  0  0  0  0  0  0
    6.1181   -1.1004    0.0000 H   0  0  0  0  0  0  0  0  0  0  0  0
    5.7196   -1.7907    0.0000 H   0  0  0  0  0  0  0  0  0  0  0  0
    4.1306    2.2919    0.0000 H   0  0  0  0  0  0  0  0  0  0  0  0
    3.3335    2.2919    0.0000 H   0  0  0  0  0  0  0  0  0  0  0  0
    5.7101   -2.6830    0.0000 H   0  0  0  0  0  0  0  0  0  0  0  0
    6.3301   -3.3030    0.0000 H   0  0  0  0  0  0  0  0  0  0  0  0
    6.9501   -2.6830    0.0000 H   0  0  0  0  0  0  0  0  0  0  0  0
   11.9020    0.2801    0.0000 H   0  0  0  0  0  0  0  0  0  0  0  0
   11.9020    1.3539    0.0000 H   0  0  0  0  0  0  0  0  0  0  0  0
    2.3100    2.3539    0.0000 H   0  0  0  0  0  0  0  0  0  0  0  0
    1.4631    2.1270    0.0000 H   0  0  0  0  0  0  0  0  0  0  0  0
    1.6900    1.2800    0.0000 H   0  0  0  0  0  0  0  0  0  0  0  0
  1  4  2  0  0  0  0
  1  5  2  0  0  0  0
  1  9  1  0  0  0  0
  1 15  1  0  0  0  0
  2 15  1  0  0  0  0
  2 19  1  0  0  0  0
  3  7  2  0  0  0  0
  3  8  2  0  0  0  0
  3 11  1  0  0  0  0
  3 19  1  0  0  0  0
  6 21  1  0  0  0  0
  6 23  1  0  0  0  0
  9 13  1  0  0  0  0
  9 16  1  0  0  0  0
 12 10  1  1  0  0  0
 10 20  1  0  0  0  0
 10 29  1  0  0  0  0
 11 40  1  0  0  0  0
 11 41  1  0  0  0  0
 12 13  1  0  0  0  0
 12 14  1  0  0  0  0
 12 24  1  0  0  0  0
 13 25  1  0  0  0  0
 13 26  1  0  0  0  0
 14 15  2  0  0  0  0
 14 17  1  0  0  0  0
 16 18  1  0  0  0  0
 16 27  1  0  0  0  0
 16 28  1  0  0  0  0
 17 19  2  0  0  0  0
 17 30  1  0  0  0  0
 18 21  1  0  0  0  0
 18 31  1  0  0  0  0
 18 32  1  0  0  0  0
 20 22  1  0  0  0  0
 20 33  1  0  0  0  0
 20 34  1  0  0  0  0
 21 35  1  0  0  0  0
 21 36  1  0  0  0  0
 22 37  1  0  0  0  0
 22 38  1  0  0  0  0
 22 39  1  0  0  0  0
 23 42  1  0  0  0  0
 23 43  1  0  0  0  0
 23 44  1  0  0  0  0
M  END
> <PUBCHEM_COMPOUND_CID>
68844

> <PUBCHEM_COMPOUND_CANONICALIZED>
1

> <PUBCHEM_CACTVS_COMPLEXITY>
598

> <PUBCHEM_CACTVS_HBOND_ACCEPTOR>
9

> <PUBCHEM_CACTVS_HBOND_DONOR>
2

> <PUBCHEM_CACTVS_ROTATABLE_BOND>
7

> <PUBCHEM_CACTVS_SUBSKEYS>
AAADceBzOABgAAAAAAAAAAAAAAAAASAAAAAsAAAAAAAAAFgBgAAAHgQQQAAADCjh2AYyAYLABAqEAiBCAHDDAZAgCBBAiJgIBIgIYAIgkQGUAAhikACoCAIQAAAKAAAAAAAAAAAAAAAAAAAAAAAAAAAAAA==

> <PUBCHEM_IUPAC_OPENEYE_NAME>
(4R)-4-(ethylamino)-2-(3-methoxypropyl)-1,1-dioxo-3,4-dihydrothieno[3,2-e]thiazine-6-sulfonamide

> <PUBCHEM_IUPAC_CAS_NAME>
(4R)-4-(ethylamino)-2-(3-methoxypropyl)-1,1-dioxo-3,4-dihydrothieno[3,2-e]thiazine-6-sulfonamide

> <PUBCHEM_IUPAC_NAME>
(4R)-4-(ethylamino)-2-(3-methoxypropyl)-1,1-dioxo-3,4-dihydrothieno[3,2-e]thiazine-6-sulfonamide

> <PUBCHEM_IUPAC_SYSTEMATIC_NAME>
(4R)-4-(ethylamino)-2-(3-methoxypropyl)-1,1-bis(oxidanylidene)-3,4-dihydrothieno[3,2-e][1,2]thiazine-6-sulfonamide

> <PUBCHEM_IUPAC_TRADITIONAL_NAME>
(4R)-4-(ethylamino)-1,1-diketo-2-(3-methoxypropyl)-3,4-dihydrothieno[3,2-e]thiazine-6-sulfonamide

> <PUBCHEM_IUPAC_INCHI>
InChI=1S/C12H21N3O5S3/c1-3-14-10-8-15(5-4-6-20-2)23(18,19)12-9(10)7-11(21-12)22(13,16)17/h7,10,14H,3-6,8H2,1-2H3,(H2,13,16,17)/t10-/m0/s1

> <PUBCHEM_IUPAC_INCHIKEY>
HCRKCZRJWPKOAR-JTQLQIEISA-N

> <PUBCHEM_XLOGP3_AA>
-0.3

> <PUBCHEM_EXACT_MASS>
383.064334

> <PUBCHEM_MOLECULAR_FORMULA>
C12H21N3O5S3

> <PUBCHEM_MOLECULAR_WEIGHT>
383.50724

> <PUBCHEM_OPENEYE_CAN_SMILES>
CCNC1CN(S(=O)(=O)C2=C1C=C(S2)S(=O)(=O)N)CCCOC

> <PUBCHEM_OPENEYE_ISO_SMILES>
CCN[C@H]1CN(S(=O)(=O)C2=C1C=C(S2)S(=O)(=O)N)CCCOC

> <PUBCHEM_CACTVS_TPSA>
164

> <PUBCHEM_MONOISOTOPIC_WEIGHT>
383.064334

> <PUBCHEM_TOTAL_CHARGE>
0

> <PUBCHEM_HEAVY_ATOM_COUNT>
23

> <PUBCHEM_ATOM_DEF_STEREO_COUNT>
1

> <PUBCHEM_ATOM_UDEF_STEREO_COUNT>
0

> <PUBCHEM_BOND_DEF_STEREO_COUNT>
0

> <PUBCHEM_BOND_UDEF_STEREO_COUNT>
0

> <PUBCHEM_ISOTOPIC_ATOM_COUNT>
0

> <PUBCHEM_COMPONENT_COUNT>
1

> <PUBCHEM_CACTVS_TAUTO_COUNT>
1

> <PUBCHEM_COORDINATE_TYPE>
1
5
255

> <PUBCHEM_BONDANNOTATIONS>
12  10  5
14  15  8
14  17  8
17  19  8
2  15  8
2  19  8

$$$$

