   Color/Form

     * Crystals, rapidly becoming brown
     * White orthorhombic bipyramidal needles from benzene or water
     * COLORLESS RHOMBIC NEEDLES OR PLATES

   from [1]HSDB

   Melting Point
        170-174 deg C
   from [2]HSDB

   Density/Specific Gravity
        1.328 g/cu cm @ 25 deg C
   from [3]HSDB

   Dissociation Constants

     * pKa= 4.84
     * pK1= 4.66 at 25 deg C; pK2= 9.71 at 22 deg C

   from [4]HSDB

   Octanol/Water Partition Coefficient
        log Kow= 0.62
   from [5]HSDB

   Solubilities

     * 1 g dissolves in 50 ml cold water, 23 ml alc
     * Slightly soluble in benzene, toluene, chloroform, and cold water;
       soluble in diethyl ether, ethanol, and hot water, very soluble in
       acetonitrile, ethyl acetate, acetone, dimethyl sulfoxide
     * In water, 20,000 mg/l at 20 deg C

   from [6]HSDB

   Spectral Properties

     * MAX ABSORPTION (WATER): 229 NM (LOG E= 3.79); 281 NM (LOG E= 3.43);
       SUBLIMES @ 153 DEG C @ 11 MM HG
     * IR: 21112 (Sadtler Research Laboratories IR Grating Collection)
     * UV: 1894 (Sadtler Research Laboratories Spectral Collection)
     * NMR: 1174 (Sadtler Research Laboratories Prism Collection)
     * MASS: 46 (Aldermaston, Eight Peak Index of Mass Spectra, UK)

   from [7]HSDB

   Other Chemical/Physical Properties

     * At reduced pressure (1.47 kPa), 2-aminophenol sublimes rapidly at
       153 deg C without decomposition
     * Heat of formation= -191 kJ/mol
     * LOW VOLATILITY

   from [8]HSDB

   Computed Properties
   Molecular Weight                  109.12588 [g/mol]
   Molecular Formula                 C[6]H[7]NO
   XLogP3                            0.6
   H-Bond Donor                      2
   H-Bond Acceptor                   2
   Rotatable Bond Count              0
   Tautomer Count                    7
   Exact Mass                        109.052764
   MonoIsotopic Mass                 109.052764
   Topological Polar Surface Area    46.2
   Heavy Atom Count                  8
   Formal Charge                     0
   Complexity                        74.9
   Isotope Atom Count                0
   Defined Atom Stereocenter Count   0
   Undefined Atom Stereocenter Count 0
   Defined Bond Stereocenter Count   0
   Undefined Bond Stereocenter Count 0
   Covalently-Bonded Unit Count      1
   Feature 3D Donor Count            2
   Feature 3D Cation Count           1
   Feature 3D Ring Count             1
   Effective Rotor Count             0
   Conformer Sampling RMSD           0.4
   CID Conformer Count               [9]1

References

   1. http://toxnet.nlm.nih.gov/cgi-bin/sis/search/r?dbs+hsdb:@term+@rn+@rel+95-55-6
   2. http://toxnet.nlm.nih.gov/cgi-bin/sis/search/r?dbs+hsdb:@term+@rn+@rel+95-55-6
   3. http://toxnet.nlm.nih.gov/cgi-bin/sis/search/r?dbs+hsdb:@term+@rn+@rel+95-55-6
   4. http://toxnet.nlm.nih.gov/cgi-bin/sis/search/r?dbs+hsdb:@term+@rn+@rel+95-55-6
   5. http://toxnet.nlm.nih.gov/cgi-bin/sis/search/r?dbs+hsdb:@term+@rn+@rel+95-55-6
   6. http://toxnet.nlm.nih.gov/cgi-bin/sis/search/r?dbs+hsdb:@term+@rn+@rel+95-55-6
   7. http://toxnet.nlm.nih.gov/cgi-bin/sis/search/r?dbs+hsdb:@term+@rn+@rel+95-55-6
   8. http://toxnet.nlm.nih.gov/cgi-bin/sis/search/r?dbs+hsdb:@term+@rn+@rel+95-55-6
   9. http://pubchem.ncbi.nlm.nih.gov/vw3d/vw3d.cgi?cid=5801
