3114
  -OEChem-07051212522D

 54 55  0     1  0  0  0  0  0999 V2000
    7.5000    0.8660    0.0000 O   0  0  0  0  0  0  0  0  0  0  0  0
    3.5000    0.8660    0.0000 N   0  0  0  0  0  0  0  0  0  0  0  0
    6.8660   -1.5000    0.0000 N   0  0  0  0  0  0  0  0  0  0  0  0
    7.8660   -0.5000    0.0000 N   0  0  0  0  0  0  0  0  0  0  0  0
    6.0000    0.0000    0.0000 C   0  0  3  0  0  0  0  0  0  0  0  0
    5.0000    0.0000    0.0000 C   0  0  0  0  0  0  0  0  0  0  0  0
    4.5000    0.8660    0.0000 C   0  0  0  0  0  0  0  0  0  0  0  0
    3.0000    1.7320    0.0000 C   0  0  0  0  0  0  0  0  0  0  0  0
    3.0000    0.0000    0.0000 C   0  0  0  0  0  0  0  0  0  0  0  0
    6.0000    1.0000    0.0000 C   0  0  0  0  0  0  0  0  0  0  0  0
    6.0000   -1.0000    0.0000 C   0  0  0  0  0  0  0  0  0  0  0  0
    7.0000    0.0000    0.0000 C   0  0  0  0  0  0  0  0  0  0  0  0
    2.0000    0.0000    0.0000 C   0  0  0  0  0  0  0  0  0  0  0  0
    3.5000   -0.8660    0.0000 C   0  0  0  0  0  0  0  0  0  0  0  0
    2.0000    1.7320    0.0000 C   0  0  0  0  0  0  0  0  0  0  0  0
    3.5000    2.5981    0.0000 C   0  0  0  0  0  0  0  0  0  0  0  0
    6.8660    1.5000    0.0000 C   0  0  0  0  0  0  0  0  0  0  0  0
    5.1340    1.5000    0.0000 C   0  0  0  0  0  0  0  0  0  0  0  0
    5.1340   -1.5000    0.0000 C   0  0  0  0  0  0  0  0  0  0  0  0
    6.8660    2.5000    0.0000 C   0  0  0  0  0  0  0  0  0  0  0  0
    5.1340    2.5000    0.0000 C   0  0  0  0  0  0  0  0  0  0  0  0
    5.1340   -2.5000    0.0000 C   0  0  0  0  0  0  0  0  0  0  0  0
    6.0000    3.0000    0.0000 C   0  0  0  0  0  0  0  0  0  0  0  0
    6.8660   -2.5000    0.0000 C   0  0  0  0  0  0  0  0  0  0  0  0
    6.0000   -3.0000    0.0000 C   0  0  0  0  0  0  0  0  0  0  0  0
    4.4174   -0.2121    0.0000 H   0  0  0  0  0  0  0  0  0  0  0  0
    5.1077   -0.6106    0.0000 H   0  0  0  0  0  0  0  0  0  0  0  0
    5.0826    1.0781    0.0000 H   0  0  0  0  0  0  0  0  0  0  0  0
    4.3923    1.4766    0.0000 H   0  0  0  0  0  0  0  0  0  0  0  0
    2.6900    1.1951    0.0000 H   0  0  0  0  0  0  0  0  0  0  0  0
    2.6900    0.5369    0.0000 H   0  0  0  0  0  0  0  0  0  0  0  0
    2.0000    0.6200    0.0000 H   0  0  0  0  0  0  0  0  0  0  0  0
    1.3800    0.0000    0.0000 H   0  0  0  0  0  0  0  0  0  0  0  0
    4.0369    2.2881    0.0000 H   0  0  0  0  0  0  0  0  0  0  0  0
    2.0000   -0.6200    0.0000 H   0  0  0  0  0  0  0  0  0  0  0  0
    2.9631   -1.1760    0.0000 H   0  0  0  0  0  0  0  0  0  0  0  0
    3.8100   -1.4030    0.0000 H   0  0  0  0  0  0  0  0  0  0  0  0
    4.0369   -0.5560    0.0000 H   0  0  0  0  0  0  0  0  0  0  0  0
    2.0000    2.3521    0.0000 H   0  0  0  0  0  0  0  0  0  0  0  0
    1.3800    1.7320    0.0000 H   0  0  0  0  0  0  0  0  0  0  0  0
    2.0000    1.1120    0.0000 H   0  0  0  0  0  0  0  0  0  0  0  0
    3.8100    3.1350    0.0000 H   0  0  0  0  0  0  0  0  0  0  0  0
    2.9631    2.9081    0.0000 H   0  0  0  0  0  0  0  0  0  0  0  0
    7.4030    1.1900    0.0000 H   0  0  0  0  0  0  0  0  0  0  0  0
    4.5970    1.1900    0.0000 H   0  0  0  0  0  0  0  0  0  0  0  0
    4.5970   -1.1900    0.0000 H   0  0  0  0  0  0  0  0  0  0  0  0
    8.4030   -0.1900    0.0000 H   0  0  0  0  0  0  0  0  0  0  0  0
    7.8660   -1.1200    0.0000 H   0  0  0  0  0  0  0  0  0  0  0  0
    7.4030    2.8100    0.0000 H   0  0  0  0  0  0  0  0  0  0  0  0
    4.5970    2.8100    0.0000 H   0  0  0  0  0  0  0  0  0  0  0  0
    4.5970   -2.8100    0.0000 H   0  0  0  0  0  0  0  0  0  0  0  0
    6.0000    3.6200    0.0000 H   0  0  0  0  0  0  0  0  0  0  0  0
    7.4030   -2.8100    0.0000 H   0  0  0  0  0  0  0  0  0  0  0  0
    6.0000   -3.6200    0.0000 H   0  0  0  0  0  0  0  0  0  0  0  0
  1 12  2  0  0  0  0
  2  7  1  0  0  0  0
  2  8  1  0  0  0  0
  2  9  1  0  0  0  0
  3 11  1  0  0  0  0
  3 24  2  0  0  0  0
  4 12  1  0  0  0  0
  4 47  1  0  0  0  0
  4 48  1  0  0  0  0
  5  6  1  0  0  0  0
  5 10  1  0  0  0  0
  5 11  1  0  0  0  0
  5 12  1  0  0  0  0
  6  7  1  0  0  0  0
  6 26  1  0  0  0  0
  6 27  1  0  0  0  0
  7 28  1  0  0  0  0
  7 29  1  0  0  0  0
  8 15  1  0  0  0  0
  8 16  1  0  0  0  0
  8 30  1  0  0  0  0
  9 13  1  0  0  0  0
  9 14  1  0  0  0  0
  9 31  1  0  0  0  0
 10 17  2  0  0  0  0
 10 18  1  0  0  0  0
 11 19  2  0  0  0  0
 13 32  1  0  0  0  0
 13 33  1  0  0  0  0
 13 35  1  0  0  0  0
 14 36  1  0  0  0  0
 14 37  1  0  0  0  0
 14 38  1  0  0  0  0
 15 39  1  0  0  0  0
 15 40  1  0  0  0  0
 15 41  1  0  0  0  0
 16 34  1  0  0  0  0
 16 42  1  0  0  0  0
 16 43  1  0  0  0  0
 17 20  1  0  0  0  0
 17 44  1  0  0  0  0
 18 21  2  0  0  0  0
 18 45  1  0  0  0  0
 19 22  1  0  0  0  0
 19 46  1  0  0  0  0
 20 23  2  0  0  0  0
 20 49  1  0  0  0  0
 21 23  1  0  0  0  0
 21 50  1  0  0  0  0
 22 25  2  0  0  0  0
 22 51  1  0  0  0  0
 23 52  1  0  0  0  0
 24 25  1  0  0  0  0
 24 53  1  0  0  0  0
 25 54  1  0  0  0  0
M  END
> <PUBCHEM_COMPOUND_CID>
3114

> <PUBCHEM_COMPOUND_CANONICALIZED>
1

> <PUBCHEM_CACTVS_COMPLEXITY>
409

> <PUBCHEM_CACTVS_HBOND_ACCEPTOR>
3

> <PUBCHEM_CACTVS_HBOND_DONOR>
1

> <PUBCHEM_CACTVS_ROTATABLE_BOND>
8

> <PUBCHEM_CACTVS_SUBSKEYS>
AAADceB7IAAAAAAAAAAAAAAAAAAAAAAAAAA8QAAAAAAAAAABwAAAHgAQAAAADijBngQ+gJNIEACoAzV3VACCgCAxAiAI2CE4ZJgIIPrA1ZGEIAhggADIyAcciMCPgAAAAAAAAAAAAAAAAAAAAAAAAAAAAA==

> <PUBCHEM_IUPAC_OPENEYE_NAME>
4-(diisopropylamino)-2-phenyl-2-(2-pyridyl)butanamide

> <PUBCHEM_IUPAC_CAS_NAME>
4-[di(propan-2-yl)amino]-2-phenyl-2-(2-pyridinyl)butanamide

> <PUBCHEM_IUPAC_NAME>
4-[di(propan-2-yl)amino]-2-phenyl-2-pyridin-2-ylbutanamide

> <PUBCHEM_IUPAC_SYSTEMATIC_NAME>
4-[di(propan-2-yl)amino]-2-phenyl-2-pyridin-2-yl-butanamide

> <PUBCHEM_IUPAC_TRADITIONAL_NAME>
4-(diisopropylamino)-2-phenyl-2-(2-pyridyl)butyramide

> <PUBCHEM_IUPAC_INCHI>
InChI=1S/C21H29N3O/c1-16(2)24(17(3)4)15-13-21(20(22)25,18-10-6-5-7-11-18)19-12-8-9-14-23-19/h5-12,14,16-17H,13,15H2,1-4H3,(H2,22,25)

> <PUBCHEM_IUPAC_INCHIKEY>
UVTNFZQICZKOEM-UHFFFAOYSA-N

> <PUBCHEM_XLOGP3_AA>
3.2

> <PUBCHEM_EXACT_MASS>
339.231063

> <PUBCHEM_MOLECULAR_FORMULA>
C21H29N3O

> <PUBCHEM_MOLECULAR_WEIGHT>
339.47446

> <PUBCHEM_OPENEYE_CAN_SMILES>
CC(C)N(CCC(C1=CC=CC=C1)(C2=CC=CC=N2)C(=O)N)C(C)C

> <PUBCHEM_OPENEYE_ISO_SMILES>
CC(C)N(CCC(C1=CC=CC=C1)(C2=CC=CC=N2)C(=O)N)C(C)C

> <PUBCHEM_CACTVS_TPSA>
59.2

> <PUBCHEM_MONOISOTOPIC_WEIGHT>
339.231063

> <PUBCHEM_TOTAL_CHARGE>
0

> <PUBCHEM_HEAVY_ATOM_COUNT>
25

> <PUBCHEM_ATOM_DEF_STEREO_COUNT>
0

> <PUBCHEM_ATOM_UDEF_STEREO_COUNT>
1

> <PUBCHEM_BOND_DEF_STEREO_COUNT>
0

> <PUBCHEM_BOND_UDEF_STEREO_COUNT>
0

> <PUBCHEM_ISOTOPIC_ATOM_COUNT>
0

> <PUBCHEM_COMPONENT_COUNT>
1

> <PUBCHEM_CACTVS_TAUTO_COUNT>
2

> <PUBCHEM_COORDINATE_TYPE>
1
5
255

> <PUBCHEM_BONDANNOTATIONS>
10  17  8
10  18  8
11  19  8
17  20  8
18  21  8
19  22  8
20  23  8
21  23  8
22  25  8
24  25  8
3  11  8
3  24  8
5  6  3

$$$$

