   Color/Form
        RHOMBIC PLATES OR MONOCLINIC CRYSTALS FROM WATER
   from [1]HSDB

   Melting Point
        288 DEG C
   from [2]HSDB

   Density/Specific Gravity
        1.485 AT 25 DEG C/4 DEG C
   from [3]HSDB

   Solubilities

     * INSOL IN ALCOHOL, ETHER
     * SLOWLY SOL IN WATER: ABOUT 1% @ 20 DEG C, ABOUT 1.45% @ 30 DEG C,
       ABOUT 1.94% @ 40 DEG C

   from [4]HSDB

   Spectral Properties

     * SADTLER REF NUMBER: 2435 (IR, PRISM)
     * IR: 11647 (Sadtler Research Laboratories Prism Collection)
     * UV: 3235 (Sadtler Research Laboratories Spectral Collection)
     * MASS: 4291 (National Bureau of Standards EPA-NIH Mass Spectra Data
       Base, NSRDS-NBS-63)

   from [5]HSDB

   Other Chemical/Physical Properties

     * ORTHORHOMBIC PLATES FROM WATER; DECOMPOSES WITHOUT MELTING AT ABOUT
       288 DEG C (ALSO REPORTED AS GREATER THAN 360 DEG C); ALMOST INSOL
       IN ETHANOL, ETHER, BENZENE; SLIGHTLY SOL IN HOT METHANOL; K2 AT 25
       DEG C: 5.93X10-4 /MONOHYDRATE/
     * GRAYISH WHITE, FLAT CRYSTALS; SOL IN FUMING HYDROCHLORIC ACID
       /MONOHYDRATE/
     * IR: 2:1006E (Aldrich Library of Infrared Spectra, Aldrich Chemical
       Co, Milwaukee, WI) /Benzenesulfonic acid, 2-amino/
     * NMR: 10:27C (Aldrich Library of Mass Spectra, Aldrich Chemical Co,
       Milwaukee, WI) /Benzenesulfonic acid, 2-amino/
     * IR: 11647 (Sadtler Research Laboratories Prism Collection)
       /Benzenesulfonic acid, 3-amino/
     * UV: 3235 (Sadtler Research Laboratories Spectral Collection)
       /Benzenesulfonic acid, 3-amino/

   from [6]HSDB

   Computed Properties
   Molecular Weight                  173.18968 [g/mol]
   Molecular Formula                 C[6]H[7]NO[3]S
   XLogP3                            -0.6
   H-Bond Donor                      2
   H-Bond Acceptor                   4
   Rotatable Bond Count              1
   Exact Mass                        173.014664
   MonoIsotopic Mass                 173.014664
   Topological Polar Surface Area    88.8
   Heavy Atom Count                  11
   Formal Charge                     0
   Complexity                        211
   Isotope Atom Count                0
   Defined Atom Stereocenter Count   0
   Undefined Atom Stereocenter Count 0
   Defined Bond Stereocenter Count   0
   Undefined Bond Stereocenter Count 0
   Covalently-Bonded Unit Count      1
   Feature 3D Acceptor Count         3
   Feature 3D Donor Count            1
   Feature 3D Anion Count            1
   Feature 3D Cation Count           1
   Feature 3D Ring Count             1
   Effective Rotor Count             1
   Conformer Sampling RMSD           0.4
   CID Conformer Count               [7]1

References

   1. http://toxnet.nlm.nih.gov/cgi-bin/sis/search/r?dbs+hsdb:@term+@rn+@rel+121-57-3
   2. http://toxnet.nlm.nih.gov/cgi-bin/sis/search/r?dbs+hsdb:@term+@rn+@rel+121-57-3
   3. http://toxnet.nlm.nih.gov/cgi-bin/sis/search/r?dbs+hsdb:@term+@rn+@rel+121-57-3
   4. http://toxnet.nlm.nih.gov/cgi-bin/sis/search/r?dbs+hsdb:@term+@rn+@rel+121-57-3
   5. http://toxnet.nlm.nih.gov/cgi-bin/sis/search/r?dbs+hsdb:@term+@rn+@rel+121-57-3
   6. http://toxnet.nlm.nih.gov/cgi-bin/sis/search/r?dbs+hsdb:@term+@rn+@rel+121-57-3
   7. http://pubchem.ncbi.nlm.nih.gov/vw3d/vw3d.cgi?cid=8479
