   Color/Form
        COLORLESS TO PALE YELLOW, OILY LIQUID
   from [1]HSDB

   Odor

     * VERY PUNGENT
     * Mustard odor

   from [2]HSDB

   Taste
        ACRID TASTE
   from [3]HSDB

   Boiling Point
        148-154 DEG C
   from [4]HSDB

   Melting Point
        -80 DEG C
   from [5]HSDB

   Density/Specific Gravity
        1.013-1.020
   from [6]HSDB

   Solubilities

     * SLIGHTLY SOL IN WATER; MISCIBLE WITH ALCOHOL AND MOST ORGANIC
       SOLVENTS; SOLUBILITY IN 70% ALCOHOL: 1 ML DISSOLVES IN 10 ML
     * SOLUBILITY IN ALCOHOL: 1:8 IN 80% ETHANOL; COMPLETELY MISCIBLE WITH
       ETHER, CHLOROFORM, AND BENZENE
     * SOL IN CARBON DISULFIDE
     * water solubility = 2,000 mg/l @ 20 deg C

   from [7]HSDB

   Spectral Properties

     * INDEX OF REFRACTION: 1.5268-1.5280 @ 20 DEG C/D; OPTICALLY INACTIVE
     * MAX ABSORPTION (CYCLOHEXANE): 250 NM (LOG E= 3.00); 275 NM (LOG E=
       1.65) SHOULDER; SADTLER REFERENCE NUMBER: 1603 (IR, PRISM); 8182
       (IR, GRATING); 459 (UV); 3155 (NMR)
     * IR: 2:464D (Aldrich Library of Infrared Spectra, Aldrich Chemical
       Co, Milwaukee, WI)
     * NMR: 3:177C (Aldrich Library of Mass Spectra, Aldrich Chemical Co,
       Milwaukee, WI)

   from [8]HSDB

   Vapor Density
        3.41 (AIR= 1)
   from [9]HSDB

   Vapor Pressure
        0.493 kPa at 20 deg C (3.7 mm Hg @ 30 deg C)
   from [10]HSDB

   Other Chemical/Physical Properties
        1 MM HG @ -2 DEG C
   from [11]HSDB

   Computed Properties
   Molecular Weight                  99.1542 [g/mol]
   Molecular Formula                 C[4]H[5]NS
   XLogP3-AA                         2.4
   H-Bond Donor                      0
   H-Bond Acceptor                   2
   Rotatable Bond Count              2
   Exact Mass                        99.01427
   MonoIsotopic Mass                 99.01427
   Topological Polar Surface Area    44.4
   Heavy Atom Count                  6
   Formal Charge                     0
   Complexity                        81.5
   Isotope Atom Count                0
   Defined Atom Stereocenter Count   0
   Undefined Atom Stereocenter Count 0
   Defined Bond Stereocenter Count   0
   Undefined Bond Stereocenter Count 0
   Covalently-Bonded Unit Count      1
   Feature 3D Acceptor Count         2
   Feature 3D Hydrophobe Count       1
   Effective Rotor Count             2
   Conformer Sampling RMSD           0.4
   CID Conformer Count               [12]15

References

   1. http://toxnet.nlm.nih.gov/cgi-bin/sis/search/r?dbs+hsdb:@term+@rn+@rel+57-06-7
   2. http://toxnet.nlm.nih.gov/cgi-bin/sis/search/r?dbs+hsdb:@term+@rn+@rel+57-06-7
   3. http://toxnet.nlm.nih.gov/cgi-bin/sis/search/r?dbs+hsdb:@term+@rn+@rel+57-06-7
   4. http://toxnet.nlm.nih.gov/cgi-bin/sis/search/r?dbs+hsdb:@term+@rn+@rel+57-06-7
   5. http://toxnet.nlm.nih.gov/cgi-bin/sis/search/r?dbs+hsdb:@term+@rn+@rel+57-06-7
   6. http://toxnet.nlm.nih.gov/cgi-bin/sis/search/r?dbs+hsdb:@term+@rn+@rel+57-06-7
   7. http://toxnet.nlm.nih.gov/cgi-bin/sis/search/r?dbs+hsdb:@term+@rn+@rel+57-06-7
   8. http://toxnet.nlm.nih.gov/cgi-bin/sis/search/r?dbs+hsdb:@term+@rn+@rel+57-06-7
   9. http://toxnet.nlm.nih.gov/cgi-bin/sis/search/r?dbs+hsdb:@term+@rn+@rel+57-06-7
  10. http://toxnet.nlm.nih.gov/cgi-bin/sis/search/r?dbs+hsdb:@term+@rn+@rel+57-06-7
  11. http://toxnet.nlm.nih.gov/cgi-bin/sis/search/r?dbs+hsdb:@term+@rn+@rel+57-06-7
  12. http://pubchem.ncbi.nlm.nih.gov/vw3d/vw3d.cgi?cid=5971
