8642
  -OEChem-07051212492D

 33 34  0     1  0  0  0  0  0999 V2000
    6.4021   -3.1217    0.0000 P   0  0  0  0  0  0  0  0  0  0  0  0
    5.4641    2.9307    0.0000 F   0  0  0  0  0  0  0  0  0  0  0  0
    4.5411   -0.6571    0.0000 O   0  0  0  0  0  0  0  0  0  0  0  0
    2.6443   -2.4172    0.0000 O   0  0  0  0  0  0  0  0  0  0  0  0
    5.8144   -2.3126    0.0000 O   0  0  0  0  0  0  0  0  0  0  0  0
    2.0000    0.9307    0.0000 O   0  0  0  0  0  0  0  0  0  0  0  0
    6.9899   -3.9307    0.0000 O   0  0  0  0  0  0  0  0  0  0  0  0
    7.2112   -2.5339    0.0000 O   0  0  0  0  0  0  0  0  0  0  0  0
    5.5931   -3.7094    0.0000 O   0  0  0  0  0  0  0  0  0  0  0  0
    3.7320    3.9307    0.0000 O   0  0  0  0  0  0  0  0  0  0  0  0
    3.7320    0.9307    0.0000 N   0  0  0  0  0  0  0  0  0  0  0  0
    2.8660    2.4307    0.0000 N   0  0  0  0  0  0  0  0  0  0  0  0
    3.2320   -1.6082    0.0000 C   0  0  2  0  0  0  0  0  0  0  0  0
    4.2320   -1.6082    0.0000 C   0  0  1  0  0  0  0  0  0  0  0  0
    2.9230   -0.6571    0.0000 C   0  0  0  0  0  0  0  0  0  0  0  0
    3.7320   -0.0693    0.0000 C   0  0  1  0  0  0  0  0  0  0  0  0
    4.8198   -2.4172    0.0000 C   0  0  0  0  0  0  0  0  0  0  0  0
    2.8660    1.4307    0.0000 C   0  0  0  0  0  0  0  0  0  0  0  0
    4.5981    1.4307    0.0000 C   0  0  0  0  0  0  0  0  0  0  0  0
    4.5981    2.4307    0.0000 C   0  0  0  0  0  0  0  0  0  0  0  0
    3.7320    2.9307    0.0000 C   0  0  0  0  0  0  0  0  0  0  0  0
    3.5135   -2.1606    0.0000 H   0  0  0  0  0  0  0  0  0  0  0  0
    4.8444   -1.5112    0.0000 H   0  0  0  0  0  0  0  0  0  0  0  0
    2.6130   -0.1202    0.0000 H   0  0  0  0  0  0  0  0  0  0  0  0
    2.3566   -0.9093    0.0000 H   0  0  0  0  0  0  0  0  0  0  0  0
    4.2845    0.2122    0.0000 H   0  0  0  0  0  0  0  0  0  0  0  0
    4.2626   -2.6890    0.0000 H   0  0  0  0  0  0  0  0  0  0  0  0
    4.9907   -3.0132    0.0000 H   0  0  0  0  0  0  0  0  0  0  0  0
    2.0277   -2.3524    0.0000 H   0  0  0  0  0  0  0  0  0  0  0  0
    5.1350    1.1207    0.0000 H   0  0  0  0  0  0  0  0  0  0  0  0
    2.3291    2.7407    0.0000 H   0  0  0  0  0  0  0  0  0  0  0  0
    7.1464   -1.9173    0.0000 H   0  0  0  0  0  0  0  0  0  0  0  0
    7.6065   -3.8659    0.0000 H   0  0  0  0  0  0  0  0  0  0  0  0
  1  5  1  0  0  0  0
  1  7  1  0  0  0  0
  1  8  1  0  0  0  0
  1  9  2  0  0  0  0
  2 20  1  0  0  0  0
  3 14  1  0  0  0  0
  3 16  1  0  0  0  0
 13  4  1  1  0  0  0
  4 29  1  0  0  0  0
  5 17  1  0  0  0  0
  6 18  2  0  0  0  0
  7 33  1  0  0  0  0
  8 32  1  0  0  0  0
 10 21  2  0  0  0  0
 16 11  1  6  0  0  0
 11 18  1  0  0  0  0
 11 19  1  0  0  0  0
 12 18  1  0  0  0  0
 12 21  1  0  0  0  0
 12 31  1  0  0  0  0
 13 14  1  0  0  0  0
 13 15  1  0  0  0  0
 13 22  1  0  0  0  0
 14 17  1  6  0  0  0
 14 23  1  0  0  0  0
 15 16  1  0  0  0  0
 15 24  1  0  0  0  0
 15 25  1  0  0  0  0
 16 26  1  0  0  0  0
 17 27  1  0  0  0  0
 17 28  1  0  0  0  0
 19 20  2  0  0  0  0
 19 30  1  0  0  0  0
 20 21  1  0  0  0  0
M  END
> <PUBCHEM_COMPOUND_CID>
8642

> <PUBCHEM_COMPOUND_CANONICALIZED>
1

> <PUBCHEM_CACTVS_COMPLEXITY>
534

> <PUBCHEM_CACTVS_HBOND_ACCEPTOR>
9

> <PUBCHEM_CACTVS_HBOND_DONOR>
4

> <PUBCHEM_CACTVS_ROTATABLE_BOND>
4

> <PUBCHEM_CACTVS_SUBSKEYS>
AAADccBzPQIAAAAAAAAAAAAAAAAAASAAAAAgAAAAAAAAAAAAAAAAHwAQCCAACBThgAYBAAPABxCIQAFWUICAAAAAAAAAAAAIAECBEAIAgAAOQAAPByIDAMCwMAIAAAAAAAAAAAAAAAAAAAAAAAAAAAAAAA==

> <PUBCHEM_IUPAC_OPENEYE_NAME>
[(2R,3S,5R)-5-(5-fluoro-2,4-dioxo-pyrimidin-1-yl)-3-hydroxy-tetrahydrofuran-2-yl]methyl dihydrogen phosphate

> <PUBCHEM_IUPAC_CAS_NAME>
[(2R,3S,5R)-5-(5-fluoro-2,4-dioxo-1-pyrimidinyl)-3-hydroxy-2-oxolanyl]methyl dihydrogen phosphate

> <PUBCHEM_IUPAC_NAME>
[(2R,3S,5R)-5-(5-fluoro-2,4-dioxopyrimidin-1-yl)-3-hydroxyoxolan-2-yl]methyl dihydrogen phosphate

> <PUBCHEM_IUPAC_SYSTEMATIC_NAME>
[(2R,3S,5R)-5-[5-fluoranyl-2,4-bis(oxidanylidene)pyrimidin-1-yl]-3-oxidanyl-oxolan-2-yl]methyl dihydrogen phosphate

> <PUBCHEM_IUPAC_TRADITIONAL_NAME>
[(2R,3S,5R)-5-(5-fluoro-2,4-diketo-pyrimidin-1-yl)-3-hydroxy-tetrahydrofuran-2-yl]methyl dihydrogen phosphate

> <PUBCHEM_IUPAC_INCHI>
InChI=1S/C9H12FN2O8P/c10-4-2-12(9(15)11-8(4)14)7-1-5(13)6(20-7)3-19-21(16,17)18/h2,5-7,13H,1,3H2,(H,11,14,15)(H2,16,17,18)/t5-,6+,7+/m0/s1

> <PUBCHEM_IUPAC_INCHIKEY>
HFEKDTCAMMOLQP-RRKCRQDMSA-N

> <PUBCHEM_XLOGP3>
-2.8

> <PUBCHEM_EXACT_MASS>
326.03153

> <PUBCHEM_MOLECULAR_FORMULA>
C9H12FN2O8P

> <PUBCHEM_MOLECULAR_WEIGHT>
326.172345

> <PUBCHEM_OPENEYE_CAN_SMILES>
C1C(C(OC1N2C=C(C(=O)NC2=O)F)COP(=O)(O)O)O

> <PUBCHEM_OPENEYE_ISO_SMILES>
C1[C@@H]([C@H](O[C@H]1N2C=C(C(=O)NC2=O)F)COP(=O)(O)O)O

> <PUBCHEM_CACTVS_TPSA>
146

> <PUBCHEM_MONOISOTOPIC_WEIGHT>
326.03153

> <PUBCHEM_TOTAL_CHARGE>
0

> <PUBCHEM_HEAVY_ATOM_COUNT>
21

> <PUBCHEM_ATOM_DEF_STEREO_COUNT>
3

> <PUBCHEM_ATOM_UDEF_STEREO_COUNT>
0

> <PUBCHEM_BOND_DEF_STEREO_COUNT>
0

> <PUBCHEM_BOND_UDEF_STEREO_COUNT>
0

> <PUBCHEM_ISOTOPIC_ATOM_COUNT>
0

> <PUBCHEM_COMPONENT_COUNT>
1

> <PUBCHEM_CACTVS_TAUTO_COUNT>
3

> <PUBCHEM_COORDINATE_TYPE>
1
5
255

> <PUBCHEM_BONDANNOTATIONS>
16  11  6
11  18  8
11  19  8
12  18  8
12  21  8
14  17  6
19  20  8
20  21  8
13  4  5

$$$$

