46173942
  -OEChem-07051213102D

 79 82  0     1  0  0  0  0  0999 V2000
    7.7331    1.3450    0.0000 O   0  0  0  0  0  0  0  0  0  0  0  0
    6.0010    0.3450    0.0000 O   0  0  0  0  0  0  0  0  0  0  0  0
    7.7331   -1.6550    0.0000 O   0  0  0  0  0  0  0  0  0  0  0  0
    9.4651    1.3450    0.0000 O   0  0  0  0  0  0  0  0  0  0  0  0
    5.1350   -1.1550    0.0000 O   0  0  0  0  0  0  0  0  0  0  0  0
    6.0010   -1.6550    0.0000 O   0  0  0  0  0  0  0  0  0  0  0  0
    9.4651    0.3450    0.0000 O   0  0  0  0  0  0  0  0  0  0  0  0
    7.7331    3.3450    0.0000 O   0  0  0  0  0  0  0  0  0  0  0  0
    4.2690    1.3450    0.0000 O   0  0  0  0  0  0  0  0  0  0  0  0
    9.4651    4.3450    0.0000 O   0  0  0  0  0  0  0  0  0  0  0  0
    2.5369    0.3450    0.0000 O   0  0  0  0  0  0  0  0  0  0  0  0
   11.1972    3.3450    0.0000 O   0  0  0  0  0  0  0  0  0  0  0  0
    2.5369   -1.6550    0.0000 O   0  0  0  0  0  0  0  0  0  0  0  0
    9.4651   -2.6550    0.0000 O   0  0  0  0  0  0  0  0  0  0  0  0
   11.1972    0.3450    0.0000 O   0  0  0  0  0  0  0  0  0  0  0  0
    5.1350   -3.1550    0.0000 O   0  0  0  0  0  0  0  0  0  0  0  0
    7.7331    0.3450    0.0000 C   0  0  2  0  0  0  0  0  0  0  0  0
    6.8671   -0.1550    0.0000 C   0  0  2  0  0  0  0  0  0  0  0  0
    8.5991   -0.1550    0.0000 C   0  0  1  0  0  0  0  0  0  0  0  0
    8.5991   -1.1550    0.0000 C   0  0  1  0  0  0  0  0  0  0  0  0
    6.8671   -1.1550    0.0000 C   0  0  1  0  0  0  0  0  0  0  0  0
    8.5991    1.8450    0.0000 C   0  0  2  0  0  0  0  0  0  0  0  0
    5.1350   -0.1550    0.0000 C   0  0  2  0  0  0  0  0  0  0  0  0
    8.5991    2.8450    0.0000 C   0  0  1  0  0  0  0  0  0  0  0  0
    4.2690    0.3450    0.0000 C   0  0  2  0  0  0  0  0  0  0  0  0
    9.4651    3.3450    0.0000 C   0  0  2  0  0  0  0  0  0  0  0  0
    3.4030   -0.1550    0.0000 C   0  0  1  0  0  0  0  0  0  0  0  0
   10.3312    2.8450    0.0000 C   0  0  1  0  0  0  0  0  0  0  0  0
    3.4030   -1.1550    0.0000 C   0  0  2  0  0  0  0  0  0  0  0  0
   10.3312    1.8450    0.0000 C   0  0  1  0  0  0  0  0  0  0  0  0
    4.2690   -1.6550    0.0000 C   0  0  2  0  0  0  0  0  0  0  0  0
    9.4651   -1.6550    0.0000 C   0  0  0  0  0  0  0  0  0  0  0  0
   11.1972    1.3450    0.0000 C   0  0  0  0  0  0  0  0  0  0  0  0
    4.2690   -2.6550    0.0000 C   0  0  0  0  0  0  0  0  0  0  0  0
    6.0010   -2.6550    0.0000 C   0  0  0  0  0  0  0  0  0  0  0  0
    6.8671   -3.1550    0.0000 C   0  0  0  0  0  0  0  0  0  0  0  0
    7.7331   -2.6550    0.0000 C   0  0  0  0  0  0  0  0  0  0  0  0
    6.8671   -4.1550    0.0000 C   0  0  0  0  0  0  0  0  0  0  0  0
    8.5991   -3.1550    0.0000 C   0  0  0  0  0  0  0  0  0  0  0  0
    7.7331   -4.6550    0.0000 C   0  0  0  0  0  0  0  0  0  0  0  0
    8.5991   -4.1550    0.0000 C   0  0  0  0  0  0  0  0  0  0  0  0
    8.2700    0.6550    0.0000 H   0  0  0  0  0  0  0  0  0  0  0  0
    6.3301   -0.4650    0.0000 H   0  0  0  0  0  0  0  0  0  0  0  0
    8.5991    0.4650    0.0000 H   0  0  0  0  0  0  0  0  0  0  0  0
    8.5991   -1.7750    0.0000 H   0  0  0  0  0  0  0  0  0  0  0  0
    6.3301   -0.8450    0.0000 H   0  0  0  0  0  0  0  0  0  0  0  0
    8.5991    1.2250    0.0000 H   0  0  0  0  0  0  0  0  0  0  0  0
    5.1350    0.4650    0.0000 H   0  0  0  0  0  0  0  0  0  0  0  0
    8.5991    3.4650    0.0000 H   0  0  0  0  0  0  0  0  0  0  0  0
    4.8059    0.6550    0.0000 H   0  0  0  0  0  0  0  0  0  0  0  0
   10.0021    3.6550    0.0000 H   0  0  0  0  0  0  0  0  0  0  0  0
    3.4030    0.4650    0.0000 H   0  0  0  0  0  0  0  0  0  0  0  0
   10.8681    2.5350    0.0000 H   0  0  0  0  0  0  0  0  0  0  0  0
    3.4030   -1.7750    0.0000 H   0  0  0  0  0  0  0  0  0  0  0  0
   10.3312    1.2250    0.0000 H   0  0  0  0  0  0  0  0  0  0  0  0
    4.8059   -1.9650    0.0000 H   0  0  0  0  0  0  0  0  0  0  0  0
   10.0757   -1.7627    0.0000 H   0  0  0  0  0  0  0  0  0  0  0  0
    9.6772   -1.0724    0.0000 H   0  0  0  0  0  0  0  0  0  0  0  0
   10.0021    0.0350    0.0000 H   0  0  0  0  0  0  0  0  0  0  0  0
   11.8078    1.2373    0.0000 H   0  0  0  0  0  0  0  0  0  0  0  0
   11.4092    1.9276    0.0000 H   0  0  0  0  0  0  0  0  0  0  0  0
    3.6584   -2.5473    0.0000 H   0  0  0  0  0  0  0  0  0  0  0  0
    4.0569   -3.2376    0.0000 H   0  0  0  0  0  0  0  0  0  0  0  0
    7.7331    3.9650    0.0000 H   0  0  0  0  0  0  0  0  0  0  0  0
    3.7320    1.6550    0.0000 H   0  0  0  0  0  0  0  0  0  0  0  0
    5.3905   -2.5473    0.0000 H   0  0  0  0  0  0  0  0  0  0  0  0
    5.7890   -3.2376    0.0000 H   0  0  0  0  0  0  0  0  0  0  0  0
   10.0021    4.6550    0.0000 H   0  0  0  0  0  0  0  0  0  0  0  0
    2.0000    0.0350    0.0000 H   0  0  0  0  0  0  0  0  0  0  0  0
   11.7341    3.0350    0.0000 H   0  0  0  0  0  0  0  0  0  0  0  0
    2.5369   -2.2750    0.0000 H   0  0  0  0  0  0  0  0  0  0  0  0
   10.0021   -2.9650    0.0000 H   0  0  0  0  0  0  0  0  0  0  0  0
   11.7341    0.0350    0.0000 H   0  0  0  0  0  0  0  0  0  0  0  0
    5.1350   -3.7750    0.0000 H   0  0  0  0  0  0  0  0  0  0  0  0
    7.7331   -2.0350    0.0000 H   0  0  0  0  0  0  0  0  0  0  0  0
    6.3301   -4.4650    0.0000 H   0  0  0  0  0  0  0  0  0  0  0  0
    9.1360   -2.8450    0.0000 H   0  0  0  0  0  0  0  0  0  0  0  0
    7.7331   -5.2750    0.0000 H   0  0  0  0  0  0  0  0  0  0  0  0
    9.1360   -4.4650    0.0000 H   0  0  0  0  0  0  0  0  0  0  0  0
 17  1  1  1  0  0  0
 22  1  1  1  0  0  0
 18  2  1  6  0  0  0
 23  2  1  6  0  0  0
  3 20  1  0  0  0  0
  3 21  1  0  0  0  0
  4 22  1  0  0  0  0
  4 30  1  0  0  0  0
  5 23  1  0  0  0  0
  5 31  1  0  0  0  0
 21  6  1  1  0  0  0
  6 35  1  0  0  0  0
 19  7  1  6  0  0  0
  7 59  1  0  0  0  0
 24  8  1  6  0  0  0
  8 64  1  0  0  0  0
 25  9  1  6  0  0  0
  9 65  1  0  0  0  0
 26 10  1  1  0  0  0
 10 68  1  0  0  0  0
 27 11  1  1  0  0  0
 11 69  1  0  0  0  0
 28 12  1  6  0  0  0
 12 70  1  0  0  0  0
 29 13  1  6  0  0  0
 13 71  1  0  0  0  0
 14 32  1  0  0  0  0
 14 72  1  0  0  0  0
 15 33  1  0  0  0  0
 15 73  1  0  0  0  0
 16 34  1  0  0  0  0
 16 74  1  0  0  0  0
 17 18  1  0  0  0  0
 17 19  1  0  0  0  0
 17 42  1  0  0  0  0
 18 21  1  0  0  0  0
 18 43  1  0  0  0  0
 19 20  1  0  0  0  0
 19 44  1  0  0  0  0
 20 32  1  1  0  0  0
 20 45  1  0  0  0  0
 21 46  1  0  0  0  0
 22 24  1  0  0  0  0
 22 47  1  0  0  0  0
 23 25  1  0  0  0  0
 23 48  1  0  0  0  0
 24 26  1  0  0  0  0
 24 49  1  0  0  0  0
 25 27  1  0  0  0  0
 25 50  1  0  0  0  0
 26 28  1  0  0  0  0
 26 51  1  0  0  0  0
 27 29  1  0  0  0  0
 27 52  1  0  0  0  0
 28 30  1  0  0  0  0
 28 53  1  0  0  0  0
 29 31  1  0  0  0  0
 29 54  1  0  0  0  0
 30 33  1  1  0  0  0
 30 55  1  0  0  0  0
 31 34  1  1  0  0  0
 31 56  1  0  0  0  0
 32 57  1  0  0  0  0
 32 58  1  0  0  0  0
 33 60  1  0  0  0  0
 33 61  1  0  0  0  0
 34 62  1  0  0  0  0
 34 63  1  0  0  0  0
 35 36  1  0  0  0  0
 35 66  1  0  0  0  0
 35 67  1  0  0  0  0
 36 37  2  0  0  0  0
 36 38  1  0  0  0  0
 37 39  1  0  0  0  0
 37 75  1  0  0  0  0
 38 40  2  0  0  0  0
 38 76  1  0  0  0  0
 39 41  2  0  0  0  0
 39 77  1  0  0  0  0
 40 41  1  0  0  0  0
 40 78  1  0  0  0  0
 41 79  1  0  0  0  0
M  END
> <PUBCHEM_COMPOUND_CID>
46173942

> <PUBCHEM_COMPOUND_CANONICALIZED>
1

> <PUBCHEM_CACTVS_COMPLEXITY>
787

> <PUBCHEM_CACTVS_HBOND_ACCEPTOR>
16

> <PUBCHEM_CACTVS_HBOND_DONOR>
10

> <PUBCHEM_CACTVS_ROTATABLE_BOND>
10

> <PUBCHEM_CACTVS_SUBSKEYS>
AAADcfB4PgAAAAAAAAAAAAAAAAAAAAAAAAA0SJEAAAAAAAABAAAAGgAACAAADBSwmAMwCIAABgCAAiBCAAACAAAgAAAIiAAACIgZNiKAMRiicAAlwAEPqAfA4CwOAAAAAAAAAAAAAAAAAAAAAAAAAAAAAA==

> <PUBCHEM_IUPAC_OPENEYE_NAME>
(2S,3R,4S,5S,6R)-2-[(2R,3R,4S,5R,6R)-2-benzyloxy-5-hydroxy-6-(hydroxymethyl)-3-[(2S,3S,4R,5R,6S)-3,4,5-trihydroxy-6-(hydroxymethyl)tetrahydropyran-2-yl]oxy-tetrahydropyran-4-yl]oxy-6-(hydroxymethyl)tetrahydropyran-3,4,5-triol

> <PUBCHEM_IUPAC_CAS_NAME>
(2S,3R,4S,5S,6R)-2-[[(2R,3R,4S,5R,6R)-3-hydroxy-2-(hydroxymethyl)-6-phenylmethoxy-5-[[(2S,3S,4R,5R,6S)-3,4,5-trihydroxy-6-(hydroxymethyl)-2-oxanyl]oxy]-4-oxanyl]oxy]-6-(hydroxymethyl)oxane-3,4,5-triol

> <PUBCHEM_IUPAC_NAME>
(2S,3R,4S,5S,6R)-2-[(2R,3R,4S,5R,6R)-3-hydroxy-2-(hydroxymethyl)-6-phenylmethoxy-5-[(2S,3S,4R,5R,6S)-3,4,5-trihydroxy-6-(hydroxymethyl)oxan-2-yl]oxyoxan-4-yl]oxy-6-(hydroxymethyl)oxane-3,4,5-triol

> <PUBCHEM_IUPAC_SYSTEMATIC_NAME>
(2R,3S,4S,5R,6S)-2-(hydroxymethyl)-6-[(2R,3R,4S,5R,6R)-2-(hydroxymethyl)-5-[(2S,3S,4R,5R,6S)-6-(hydroxymethyl)-3,4,5-tris(oxidanyl)oxan-2-yl]oxy-3-oxidanyl-6-phenylmethoxy-oxan-4-yl]oxy-oxane-3,4,5-triol

> <PUBCHEM_IUPAC_TRADITIONAL_NAME>
(2S,3R,4S,5S,6R)-2-[(2R,3R,4S,5R,6R)-2-benzoxy-5-hydroxy-6-methylol-3-[(2S,3S,4R,5R,6S)-3,4,5-trihydroxy-6-methylol-tetrahydropyran-2-yl]oxy-tetrahydropyran-4-yl]oxy-6-methylol-tetrahydropyran-3,4,5-triol

> <PUBCHEM_IUPAC_INCHI>
InChI=1S/C25H38O16/c26-6-11-14(29)17(32)19(34)23(37-11)40-21-16(31)13(8-28)39-25(36-9-10-4-2-1-3-5-10)22(21)41-24-20(35)18(33)15(30)12(7-27)38-24/h1-5,11-35H,6-9H2/t11-,12+,13-,14-,15+,16-,17+,18-,19-,20+,21+,22-,23+,24+,25-/m1/s1

> <PUBCHEM_IUPAC_INCHIKEY>
BEDWWZCYHCGAKV-NERULQDISA-N

> <PUBCHEM_XLOGP3>
-3.9

> <PUBCHEM_EXACT_MASS>
594.215985

> <PUBCHEM_MOLECULAR_FORMULA>
C25H38O16

> <PUBCHEM_MOLECULAR_WEIGHT>
594.55962

> <PUBCHEM_OPENEYE_CAN_SMILES>
C1=CC=C(C=C1)COC2C(C(C(C(O2)CO)O)OC3C(C(C(C(O3)CO)O)O)O)OC4C(C(C(C(O4)CO)O)O)O

> <PUBCHEM_OPENEYE_ISO_SMILES>
C1=CC=C(C=C1)CO[C@H]2[C@@H]([C@H]([C@@H]([C@H](O2)CO)O)O[C@H]3[C@@H]([C@H]([C@@H]([C@H](O3)CO)O)O)O)O[C@H]4[C@H]([C@@H]([C@H]([C@@H](O4)CO)O)O)O

> <PUBCHEM_CACTVS_TPSA>
258

> <PUBCHEM_MONOISOTOPIC_WEIGHT>
594.215985

> <PUBCHEM_TOTAL_CHARGE>
0

> <PUBCHEM_HEAVY_ATOM_COUNT>
41

> <PUBCHEM_ATOM_DEF_STEREO_COUNT>
15

> <PUBCHEM_ATOM_UDEF_STEREO_COUNT>
0

> <PUBCHEM_BOND_DEF_STEREO_COUNT>
0

> <PUBCHEM_BOND_UDEF_STEREO_COUNT>
0

> <PUBCHEM_ISOTOPIC_ATOM_COUNT>
0

> <PUBCHEM_COMPONENT_COUNT>
1

> <PUBCHEM_CACTVS_TAUTO_COUNT>
1

> <PUBCHEM_COORDINATE_TYPE>
1
5
255

> <PUBCHEM_BONDANNOTATIONS>
17  1  5
22  1  5
26  10  5
27  11  5
28  12  6
29  13  6
18  2  6
23  2  6
20  32  5
30  33  5
31  34  5
36  37  8
36  38  8
37  39  8
38  40  8
39  41  8
40  41  8
21  6  5
19  7  6
24  8  6
25  9  6

$$$$

