4409
  -OEChem-06261200062D

 33 34  0     0  0  0  0  0  0999 V2000
    9.8602    1.5068    0.0000 O   0  0  0  0  0  0  0  0  0  0  0  0
    2.8660   -1.5173    0.0000 O   0  0  0  0  0  0  0  0  0  0  0  0
    5.4641   -0.0173    0.0000 C   0  0  0  0  0  0  0  0  0  0  0  0
    4.5981   -0.5173    0.0000 C   0  0  0  0  0  0  0  0  0  0  0  0
    7.1962   -0.0173    0.0000 C   0  0  0  0  0  0  0  0  0  0  0  0
    7.1962    0.9827    0.0000 C   0  0  0  0  0  0  0  0  0  0  0  0
    6.3301   -0.5173    0.0000 C   0  0  0  0  0  0  0  0  0  0  0  0
    3.7320   -0.0173    0.0000 C   0  0  0  0  0  0  0  0  0  0  0  0
    5.4641    0.9827    0.0000 C   0  0  0  0  0  0  0  0  0  0  0  0
    6.3301    1.4827    0.0000 C   0  0  0  0  0  0  0  0  0  0  0  0
    8.0901   -0.5520    0.0000 C   0  0  0  0  0  0  0  0  0  0  0  0
    8.0901    1.5173    0.0000 C   0  0  0  0  0  0  0  0  0  0  0  0
    8.9962    1.0035    0.0000 C   0  0  0  0  0  0  0  0  0  0  0  0
    8.9962   -0.0381    0.0000 C   0  0  0  0  0  0  0  0  0  0  0  0
    2.8660   -0.5173    0.0000 C   0  0  0  0  0  0  0  0  0  0  0  0
    2.0000   -0.0173    0.0000 C   0  0  0  0  0  0  0  0  0  0  0  0
   10.7282    1.0102    0.0000 C   0  0  0  0  0  0  0  0  0  0  0  0
    4.1996   -0.9923    0.0000 H   0  0  0  0  0  0  0  0  0  0  0  0
    4.9966   -0.9923    0.0000 H   0  0  0  0  0  0  0  0  0  0  0  0
    6.3301   -1.1373    0.0000 H   0  0  0  0  0  0  0  0  0  0  0  0
    4.1306    0.4576    0.0000 H   0  0  0  0  0  0  0  0  0  0  0  0
    3.3335    0.4576    0.0000 H   0  0  0  0  0  0  0  0  0  0  0  0
    4.9272    1.2927    0.0000 H   0  0  0  0  0  0  0  0  0  0  0  0
    6.3301    2.1027    0.0000 H   0  0  0  0  0  0  0  0  0  0  0  0
    8.0829   -1.1720    0.0000 H   0  0  0  0  0  0  0  0  0  0  0  0
    8.0829    2.1373    0.0000 H   0  0  0  0  0  0  0  0  0  0  0  0
    9.5319   -0.3502    0.0000 H   0  0  0  0  0  0  0  0  0  0  0  0
    2.3100    0.5196    0.0000 H   0  0  0  0  0  0  0  0  0  0  0  0
    1.4631    0.2927    0.0000 H   0  0  0  0  0  0  0  0  0  0  0  0
    1.6900   -0.5543    0.0000 H   0  0  0  0  0  0  0  0  0  0  0  0
   10.4203    0.4720    0.0000 H   0  0  0  0  0  0  0  0  0  0  0  0
   11.2663    0.7022    0.0000 H   0  0  0  0  0  0  0  0  0  0  0  0
   11.0361    1.5483    0.0000 H   0  0  0  0  0  0  0  0  0  0  0  0
  1 13  1  0  0  0  0
  1 17  1  0  0  0  0
  2 15  2  0  0  0  0
  3  4  1  0  0  0  0
  3  7  2  0  0  0  0
  3  9  1  0  0  0  0
  4  8  1  0  0  0  0
  4 18  1  0  0  0  0
  4 19  1  0  0  0  0
  5  6  2  0  0  0  0
  5  7  1  0  0  0  0
  5 11  1  0  0  0  0
  6 10  1  0  0  0  0
  6 12  1  0  0  0  0
  7 20  1  0  0  0  0
  8 15  1  0  0  0  0
  8 21  1  0  0  0  0
  8 22  1  0  0  0  0
  9 10  2  0  0  0  0
  9 23  1  0  0  0  0
 10 24  1  0  0  0  0
 11 14  2  0  0  0  0
 11 25  1  0  0  0  0
 12 13  2  0  0  0  0
 12 26  1  0  0  0  0
 13 14  1  0  0  0  0
 14 27  1  0  0  0  0
 15 16  1  0  0  0  0
 16 28  1  0  0  0  0
 16 29  1  0  0  0  0
 16 30  1  0  0  0  0
 17 31  1  0  0  0  0
 17 32  1  0  0  0  0
 17 33  1  0  0  0  0
M  END
> <PUBCHEM_COMPOUND_CID>
4409

> <PUBCHEM_COMPOUND_CANONICALIZED>
1

> <PUBCHEM_CACTVS_COMPLEXITY>
262

> <PUBCHEM_CACTVS_HBOND_ACCEPTOR>
2

> <PUBCHEM_CACTVS_HBOND_DONOR>
0

> <PUBCHEM_CACTVS_ROTATABLE_BOND>
4

> <PUBCHEM_CACTVS_SUBSKEYS>
AAADceBwMAAAAAAAAAAAAAAAAAAAAAAAAAAwYAAAAAAAAADBUAAAGgAAAAAADASAmAIyBsAABACIAqBSAAACCAAgIAAIiAEGCIgMJjKEMRqAMCAkwBEIqAeIyPCO4AADAAAQAADAAAYAACAAAAAAAAAAAA==

> <PUBCHEM_IUPAC_OPENEYE_NAME>
4-(6-methoxy-2-naphthyl)butan-2-one

> <PUBCHEM_IUPAC_CAS_NAME>
4-(6-methoxy-2-naphthalenyl)-2-butanone

> <PUBCHEM_IUPAC_NAME>
4-(6-methoxynaphthalen-2-yl)butan-2-one

> <PUBCHEM_IUPAC_SYSTEMATIC_NAME>
4-(6-methoxynaphthalen-2-yl)butan-2-one

> <PUBCHEM_IUPAC_TRADITIONAL_NAME>
4-(6-methoxy-2-naphthyl)butan-2-one

> <PUBCHEM_IUPAC_INCHI>
InChI=1S/C15H16O2/c1-11(16)3-4-12-5-6-14-10-15(17-2)8-7-13(14)9-12/h5-10H,3-4H2,1-2H3

> <PUBCHEM_IUPAC_INCHIKEY>
BLXXJMDCKKHMKV-UHFFFAOYSA-N

> <PUBCHEM_XLOGP3>
3.1

> <PUBCHEM_EXACT_MASS>
228.11503

> <PUBCHEM_MOLECULAR_FORMULA>
C15H16O2

> <PUBCHEM_MOLECULAR_WEIGHT>
228.28634

> <PUBCHEM_OPENEYE_CAN_SMILES>
CC(=O)CCC1=CC2=C(C=C1)C=C(C=C2)OC

> <PUBCHEM_OPENEYE_ISO_SMILES>
CC(=O)CCC1=CC2=C(C=C1)C=C(C=C2)OC

> <PUBCHEM_CACTVS_TPSA>
26.3

> <PUBCHEM_MONOISOTOPIC_WEIGHT>
228.11503

> <PUBCHEM_TOTAL_CHARGE>
0

> <PUBCHEM_HEAVY_ATOM_COUNT>
17

> <PUBCHEM_ATOM_DEF_STEREO_COUNT>
0

> <PUBCHEM_ATOM_UDEF_STEREO_COUNT>
0

> <PUBCHEM_BOND_DEF_STEREO_COUNT>
0

> <PUBCHEM_BOND_UDEF_STEREO_COUNT>
0

> <PUBCHEM_ISOTOPIC_ATOM_COUNT>
0

> <PUBCHEM_COMPONENT_COUNT>
1

> <PUBCHEM_CACTVS_TAUTO_COUNT>
3

> <PUBCHEM_COORDINATE_TYPE>
1
5
255

> <PUBCHEM_BONDANNOTATIONS>
11  14  8
12  13  8
13  14  8
3  7  8
3  9  8
5  11  8
5  6  8
5  7  8
6  10  8
6  12  8
9  10  8

$$$$

