   Color/Form

     * White crystalline powder
     * Crystals from ethyl acetate

   from [1]HSDB

   Odor
        ODORLESS
   from [2]HSDB

   Taste
        Slightly bitter taste
   from [3]HSDB

   Melting Point
        203-204 deg C
   from [4]HSDB

   Octanol/Water Partition Coefficient
        log P = 2.97
   from [5]HSDB

   Solubilities

     * SLIGHTLY SOL IN VEGETABLE OIL; SOL @ 25 DEG C: 1 IN 150 PARTS 95%
       ETHANOL, 1 IN 5 PARTS PYRIDINE, 1 IN 80 PARTS ACETONE, 1 IN 30
       PARTS CHLOROFORM
     * Sparingly soluble in alcohol; soluble in chloroform and dioxane;
       slightly soluble in ether.
     * 7.04 mg/l in water at 25 deg C

   from [6]HSDB

   Spectral Properties
        Specific optical rotation: -31.7 @ 20 deg C/D (chloroform); first
   reported as -25 @ 20 deg C/D (chloroform); max absorption (ethanol):
   240 nm (log e= 4.24)
   from [7]HSDB

   Other Chemical/Physical Properties

     * Crystals from methylene chloride and hexane; max absorption: 240 nm
       (e= 18,690); MP = 161-162 deg C /Acetate/
     * PRACTICALLY INSOL IN WATER; SOL IN CHLOROFORM, ETHER, DIOXANE; SOL
       @ 25 DEG C: 1 IN 12.5 PARTS 95% ETHANOL, 1 IN 4 PARTS ACETONE
       /ACETATE/
     * WHITE TO CREAMY WHITE CRYSTALS OR CRYSTALLINE POWDER /ACETATE/
     * Stable in air

   from [8]HSDB

   Computed Properties
   Molecular Weight                  298.41924 [g/mol]
   Molecular Formula                 C[20]H[26]O[2]
   XLogP3                            3
   H-Bond Donor                      1
   H-Bond Acceptor                   2
   Rotatable Bond Count              1
   Tautomer Count                    8
   Exact Mass                        298.19328
   MonoIsotopic Mass                 298.19328
   Topological Polar Surface Area    37.3
   Heavy Atom Count                  22
   Formal Charge                     0
   Complexity                        594
   Isotope Atom Count                0
   Defined Atom Stereocenter Count   6
   Undefined Atom Stereocenter Count 0
   Defined Bond Stereocenter Count   0
   Undefined Bond Stereocenter Count 0
   Covalently-Bonded Unit Count      1
   Feature 3D Acceptor Count         2
   Feature 3D Donor Count            1
   Feature 3D Hydrophobe Count       1
   Feature 3D Ring Count             4
   Effective Rotor Count             1.8
   Conformer Sampling RMSD           0.6
   CID Conformer Count               [9]2

References

   1. http://toxnet.nlm.nih.gov/cgi-bin/sis/search/r?dbs+hsdb:@term+@rn+@rel+68-22-4
   2. http://toxnet.nlm.nih.gov/cgi-bin/sis/search/r?dbs+hsdb:@term+@rn+@rel+68-22-4
   3. http://toxnet.nlm.nih.gov/cgi-bin/sis/search/r?dbs+hsdb:@term+@rn+@rel+68-22-4
   4. http://toxnet.nlm.nih.gov/cgi-bin/sis/search/r?dbs+hsdb:@term+@rn+@rel+68-22-4
   5. http://toxnet.nlm.nih.gov/cgi-bin/sis/search/r?dbs+hsdb:@term+@rn+@rel+68-22-4
   6. http://toxnet.nlm.nih.gov/cgi-bin/sis/search/r?dbs+hsdb:@term+@rn+@rel+68-22-4
   7. http://toxnet.nlm.nih.gov/cgi-bin/sis/search/r?dbs+hsdb:@term+@rn+@rel+68-22-4
   8. http://toxnet.nlm.nih.gov/cgi-bin/sis/search/r?dbs+hsdb:@term+@rn+@rel+68-22-4
   9. http://pubchem.ncbi.nlm.nih.gov/vw3d/vw3d.cgi?cid=6230
