   Color/Form

     * VISCOUS LIQUID
     * Pale-yellow, oily liquid
     * Colorless to pale-yellow, viscous liquid or solid (below 56 degrees
       F) Note: An explosive ingredient in dynamite (20-40%) with ethylene
       glycol dinitrate (80-60%).

   from [1]HSDB

   Taste
        Sweet, burning taste
   from [2]HSDB

   Boiling Point
        Explodes at 218 deg C
   from [3]HSDB

   Melting Point
        Crystalizes in 2 forms: labile form, 2.8 deg C; stable form, 13.5
   deg C
   from [4]HSDB

   Density/Specific Gravity
        1.5918 @ 25 deg C/4 deg C; 1.6009 @ 15 deg C/4 deg C
   from [5]HSDB

   Heat of Combustion
        1580 cal/g
   from [6]HSDB

   Heat of Vaporization
        13,753.1 gcal/gmole
   from [7]HSDB

   Octanol/Water Partition Coefficient
        log Kow = 1.62
   from [8]HSDB

   Solubilities

     * Sparingly sol in petroleum ether, liq petrolatum, glycerol.
     * One gram dissolves in 4 grams ethanol, 18 g methanol, 120 g carbon
       disulfide.
     * Miscible with glacial acetic acid, nitrobenzene, pyridine, ethylene
       bromide, dichloroethylene, ethyl acetate.
     * 1 g in 800 ml water.
     * Soluble in water (1800 mg/l at 25 deg C)
     * In water, 1,380 mg/l @ 20 deg C

   from [9]HSDB

   Spectral Properties

     * Index of refraction: 1.474 @ 15 deg C/D
     * IR: 2100 (Documentation of Molecular Spectroscopy Collection)
     * MASS: 10850 (NIST/EPA/MSDC Mass Spectral Database, 1990 Version)

   from [10]HSDB

   Vapor Density
        7.8 (Air= 1)
   from [11]HSDB

   Vapor Pressure
        2.0X10-4 mm Hg @ 20 deg C
   from [12]HSDB

   Viscosity
        36.0 centipoise @ 20 deg C
   from [13]HSDB

   Other Chemical/Physical Properties

     * 1 MG/L= 108 PPM & 1 PPM= 9.29 MG/CU M @ 25 DEG C, 760 MM HG
     * On explosion harmless gases are produced; Carbon dioxide, water
       vapor, nitrogen and oxygen.
     * Heat of formation 1.63 kJ/g; heat of detonation 6.29 kJ/g; gas
       volume at STP 715 cm/g; activation energy 169 kJ/mol; collision
       constant, 17.1 log 10/s; applicable temp range 75-105 deg C;
       detonation velocity 7.60 km/s and at density 1.59 g/cu m; vacuum
       stability at 100 deg C ml gas per g per 40 hr at STP: explodes;
       weight loss at 100 deg C 3-5%; explosion temp at 5 s, 220 deg C
       (decomposes); effect of prolonged storage dec 3-4 days at 75 deg C;
       relative impact test value 15% trinitrotoluene (TNT); friction
       pendulum: explode.
     * Begins to decompose @ 50-60 deg C, appreciably volatile @ 100 deg
       C; evolves nitric oxide yellow vapors @ 135 deg C.
     * BOILING POINT: 125 DEG C @ 2 MM HG
     * Vapor Pressure: 1 mm Hg @ 127 deg C
     * The osmolality of nitroglycerin 1 mg/ml was determined to be 281
       mOsm/kg.

   from [14]HSDB

   Computed Properties
   Molecular Weight                  227.0865 [g/mol]
   Molecular Formula                 C[3]H[5]N[3]O[9]
   XLogP3                            1.6
   H-Bond Donor                      0
   H-Bond Acceptor                   9
   Rotatable Bond Count              5
   Exact Mass                        227.002579
   MonoIsotopic Mass                 227.002579
   Topological Polar Surface Area    165
   Heavy Atom Count                  15
   Formal Charge                     0
   Complexity                        219
   Isotope Atom Count                0
   Defined Atom Stereocenter Count   0
   Undefined Atom Stereocenter Count 0
   Defined Bond Stereocenter Count   0
   Undefined Bond Stereocenter Count 0
   Covalently-Bonded Unit Count      1
   Feature 3D Acceptor Count         6
   Effective Rotor Count             8
   Conformer Sampling RMSD           0.8
   CID Conformer Count               [15]56

References

   1. http://toxnet.nlm.nih.gov/cgi-bin/sis/search/r?dbs+hsdb:@term+@rn+@rel+55-63-0
   2. http://toxnet.nlm.nih.gov/cgi-bin/sis/search/r?dbs+hsdb:@term+@rn+@rel+55-63-0
   3. http://toxnet.nlm.nih.gov/cgi-bin/sis/search/r?dbs+hsdb:@term+@rn+@rel+55-63-0
   4. http://toxnet.nlm.nih.gov/cgi-bin/sis/search/r?dbs+hsdb:@term+@rn+@rel+55-63-0
   5. http://toxnet.nlm.nih.gov/cgi-bin/sis/search/r?dbs+hsdb:@term+@rn+@rel+55-63-0
   6. http://toxnet.nlm.nih.gov/cgi-bin/sis/search/r?dbs+hsdb:@term+@rn+@rel+55-63-0
   7. http://toxnet.nlm.nih.gov/cgi-bin/sis/search/r?dbs+hsdb:@term+@rn+@rel+55-63-0
   8. http://toxnet.nlm.nih.gov/cgi-bin/sis/search/r?dbs+hsdb:@term+@rn+@rel+55-63-0
   9. http://toxnet.nlm.nih.gov/cgi-bin/sis/search/r?dbs+hsdb:@term+@rn+@rel+55-63-0
  10. http://toxnet.nlm.nih.gov/cgi-bin/sis/search/r?dbs+hsdb:@term+@rn+@rel+55-63-0
  11. http://toxnet.nlm.nih.gov/cgi-bin/sis/search/r?dbs+hsdb:@term+@rn+@rel+55-63-0
  12. http://toxnet.nlm.nih.gov/cgi-bin/sis/search/r?dbs+hsdb:@term+@rn+@rel+55-63-0
  13. http://toxnet.nlm.nih.gov/cgi-bin/sis/search/r?dbs+hsdb:@term+@rn+@rel+55-63-0
  14. http://toxnet.nlm.nih.gov/cgi-bin/sis/search/r?dbs+hsdb:@term+@rn+@rel+55-63-0
  15. http://pubchem.ncbi.nlm.nih.gov/vw3d/vw3d.cgi?cid=4510
