114833
  -OEChem-07051213012D

 71 75  0     1  0  0  0  0  0999 V2000
    5.9945   -1.5011    0.0000 O   0  0  0  0  0  0  0  0  0  0  0  0
   12.6445    2.8065    0.0000 O   0  0  0  0  0  0  0  0  0  0  0  0
    5.1343    0.0022    0.0000 O   0  0  0  0  0  0  0  0  0  0  0  0
    4.2586   -2.4944    0.0000 O   0  0  0  0  0  0  0  0  0  0  0  0
    2.5304   -1.4877    0.0000 O   0  0  0  0  0  0  0  0  0  0  0  0
    2.5381    0.5122    0.0000 O   0  0  0  0  0  0  0  0  0  0  0  0
    3.4099    2.0089    0.0000 O   0  0  0  0  0  0  0  0  0  0  0  0
    5.1420    2.0022    0.0000 O   0  0  0  0  0  0  0  0  0  0  0  0
    9.6555    0.5512    0.0000 C   0  0  2  0  0  0  0  0  0  0  0  0
    8.7455    0.0444    0.0000 C   0  0  2  0  0  0  0  0  0  0  0  0
   10.5216    0.0512    0.0000 C   0  0  2  0  0  0  0  0  0  0  0  0
   11.3876    0.5512    0.0000 C   0  0  1  0  0  0  0  0  0  0  0  0
    8.7375   -0.9972    0.0000 C   0  0  1  0  0  0  0  0  0  0  0  0
   11.3876    1.5512    0.0000 C   0  0  2  0  0  0  0  0  0  0  0  0
    9.6555    1.5512    0.0000 C   0  0  0  0  0  0  0  0  0  0  0  0
   10.5376   -0.9903    0.0000 C   0  0  0  0  0  0  0  0  0  0  0  0
    9.6396   -1.5180    0.0000 C   0  0  0  0  0  0  0  0  0  0  0  0
   10.5216    2.0512    0.0000 C   0  0  0  0  0  0  0  0  0  0  0  0
    7.8187    0.6085    0.0000 C   0  0  0  0  0  0  0  0  0  0  0  0
   12.3338    0.2465    0.0000 C   0  0  0  0  0  0  0  0  0  0  0  0
    7.8021   -1.5469    0.0000 C   0  0  0  0  0  0  0  0  0  0  0  0
    8.7532    1.0444    0.0000 C   0  0  0  0  0  0  0  0  0  0  0  0
   12.3338    1.8560    0.0000 C   0  0  0  0  0  0  0  0  0  0  0  0
    6.8708    0.0805    0.0000 C   0  0  0  0  0  0  0  0  0  0  0  0
    6.8624   -1.0044    0.0000 C   0  0  1  0  0  0  0  0  0  0  0  0
   12.9174    1.0512    0.0000 C   0  0  0  0  0  0  0  0  0  0  0  0
   11.3876    2.5512    0.0000 C   0  0  0  0  0  0  0  0  0  0  0  0
    5.1304   -0.9978    0.0000 C   0  0  2  0  0  0  0  0  0  0  0  0
    4.2625   -1.4944    0.0000 C   0  0  1  0  0  0  0  0  0  0  0  0
    3.3984   -0.9911    0.0000 C   0  0  2  0  0  0  0  0  0  0  0  0
    4.2702    0.5056    0.0000 C   0  0  1  0  0  0  0  0  0  0  0  0
    3.4022    0.0089    0.0000 C   0  0  1  0  0  0  0  0  0  0  0  0
    4.2740    1.5056    0.0000 C   0  0  0  0  0  0  0  0  0  0  0  0
   10.3916    0.9762    0.0000 H   0  0  0  0  0  0  0  0  0  0  0  0
   11.2609   -0.3681    0.0000 H   0  0  0  0  0  0  0  0  0  0  0  0
   11.4775   -0.2940    0.0000 H   0  0  0  0  0  0  0  0  0  0  0  0
    8.7408   -1.8472    0.0000 H   0  0  0  0  0  0  0  0  0  0  0  0
    9.4435    2.1338    0.0000 H   0  0  0  0  0  0  0  0  0  0  0  0
    9.0450    1.4436    0.0000 H   0  0  0  0  0  0  0  0  0  0  0  0
   10.7556   -1.5707    0.0000 H   0  0  0  0  0  0  0  0  0  0  0  0
   11.1468   -0.8748    0.0000 H   0  0  0  0  0  0  0  0  0  0  0  0
    9.2423   -1.9940    0.0000 H   0  0  0  0  0  0  0  0  0  0  0  0
   10.0405   -1.9909    0.0000 H   0  0  0  0  0  0  0  0  0  0  0  0
   10.9201    2.5262    0.0000 H   0  0  0  0  0  0  0  0  0  0  0  0
   10.1230    2.5262    0.0000 H   0  0  0  0  0  0  0  0  0  0  0  0
    8.2269    1.0751    0.0000 H   0  0  0  0  0  0  0  0  0  0  0  0
    7.4288    1.0905    0.0000 H   0  0  0  0  0  0  0  0  0  0  0  0
   12.0828   -0.3204    0.0000 H   0  0  0  0  0  0  0  0  0  0  0  0
   12.8712   -0.0627    0.0000 H   0  0  0  0  0  0  0  0  0  0  0  0
    7.4048   -2.0229    0.0000 H   0  0  0  0  0  0  0  0  0  0  0  0
    8.2030   -2.0198    0.0000 H   0  0  0  0  0  0  0  0  0  0  0  0
    9.3732    1.0396    0.0000 H   0  0  0  0  0  0  0  0  0  0  0  0
    8.7580    1.6643    0.0000 H   0  0  0  0  0  0  0  0  0  0  0  0
    8.1332    1.0491    0.0000 H   0  0  0  0  0  0  0  0  0  0  0  0
    6.6662    0.6658    0.0000 H   0  0  0  0  0  0  0  0  0  0  0  0
    6.2592   -0.0209    0.0000 H   0  0  0  0  0  0  0  0  0  0  0  0
    6.8612   -1.6244    0.0000 H   0  0  0  0  0  0  0  0  0  0  0  0
   13.3783    0.6365    0.0000 H   0  0  0  0  0  0  0  0  0  0  0  0
   13.3783    1.4660    0.0000 H   0  0  0  0  0  0  0  0  0  0  0  0
   12.0076    2.5512    0.0000 H   0  0  0  0  0  0  0  0  0  0  0  0
   11.3876    3.1712    0.0000 H   0  0  0  0  0  0  0  0  0  0  0  0
   10.7676    2.5512    0.0000 H   0  0  0  0  0  0  0  0  0  0  0  0
    5.1280   -1.6178    0.0000 H   0  0  0  0  0  0  0  0  0  0  0  0
    3.7243   -1.8024    0.0000 H   0  0  0  0  0  0  0  0  0  0  0  0
    2.8626   -0.6790    0.0000 H   0  0  0  0  0  0  0  0  0  0  0  0
    4.8083    0.8135    0.0000 H   0  0  0  0  0  0  0  0  0  0  0  0
    2.8641   -0.2990    0.0000 H   0  0  0  0  0  0  0  0  0  0  0  0
    4.7943   -2.8065    0.0000 H   0  0  0  0  0  0  0  0  0  0  0  0
    2.5280   -2.1077    0.0000 H   0  0  0  0  0  0  0  0  0  0  0  0
    2.0000    0.2043    0.0000 H   0  0  0  0  0  0  0  0  0  0  0  0
    3.4123    2.6289    0.0000 H   0  0  0  0  0  0  0  0  0  0  0  0
 25  1  1  6  0  0  0
 28  1  1  1  0  0  0
  2 23  2  0  0  0  0
  3 28  1  0  0  0  0
  3 31  1  0  0  0  0
 29  4  1  6  0  0  0
  4 68  1  0  0  0  0
 30  5  1  1  0  0  0
  5 69  1  0  0  0  0
 32  6  1  6  0  0  0
  6 70  1  0  0  0  0
  7 33  1  0  0  0  0
  7 71  1  0  0  0  0
  8 33  2  0  0  0  0
  9 10  1  0  0  0  0
  9 11  1  0  0  0  0
  9 15  1  0  0  0  0
  9 34  1  6  0  0  0
 10 13  1  0  0  0  0
 10 19  1  0  0  0  0
 10 22  1  1  0  0  0
 11 12  1  0  0  0  0
 11 16  1  0  0  0  0
 11 35  1  1  0  0  0
 12 14  1  0  0  0  0
 12 20  1  0  0  0  0
 12 36  1  6  0  0  0
 13 17  1  0  0  0  0
 13 21  1  0  0  0  0
 13 37  1  6  0  0  0
 14 18  1  0  0  0  0
 14 23  1  0  0  0  0
 14 27  1  1  0  0  0
 15 18  1  0  0  0  0
 15 38  1  0  0  0  0
 15 39  1  0  0  0  0
 16 17  1  0  0  0  0
 16 40  1  0  0  0  0
 16 41  1  0  0  0  0
 17 42  1  0  0  0  0
 17 43  1  0  0  0  0
 18 44  1  0  0  0  0
 18 45  1  0  0  0  0
 19 24  1  0  0  0  0
 19 46  1  0  0  0  0
 19 47  1  0  0  0  0
 20 26  1  0  0  0  0
 20 48  1  0  0  0  0
 20 49  1  0  0  0  0
 21 25  1  0  0  0  0
 21 50  1  0  0  0  0
 21 51  1  0  0  0  0
 22 52  1  0  0  0  0
 22 53  1  0  0  0  0
 22 54  1  0  0  0  0
 23 26  1  0  0  0  0
 24 25  1  0  0  0  0
 24 55  1  0  0  0  0
 24 56  1  0  0  0  0
 25 57  1  0  0  0  0
 26 58  1  0  0  0  0
 26 59  1  0  0  0  0
 27 60  1  0  0  0  0
 27 61  1  0  0  0  0
 27 62  1  0  0  0  0
 28 29  1  0  0  0  0
 28 63  1  0  0  0  0
 29 30  1  0  0  0  0
 29 64  1  0  0  0  0
 30 32  1  0  0  0  0
 30 65  1  0  0  0  0
 31 32  1  0  0  0  0
 31 33  1  1  0  0  0
 31 66  1  0  0  0  0
 32 67  1  0  0  0  0
M  END
> <PUBCHEM_COMPOUND_CID>
114833

> <PUBCHEM_COMPOUND_CANONICALIZED>
1

> <PUBCHEM_CACTVS_COMPLEXITY>
801

> <PUBCHEM_CACTVS_HBOND_ACCEPTOR>
8

> <PUBCHEM_CACTVS_HBOND_DONOR>
4

> <PUBCHEM_CACTVS_ROTATABLE_BOND>
3

> <PUBCHEM_CACTVS_SUBSKEYS>
AAADcfB4PAAAAAAAAAAAAAAAAAAAAYAAAAA0YMEAAAAAAGDAAAAAGgAACAAADxSwgAMCCAAABgAIAICQCAIAAAAAAAAAAAFAAAAREBYAAAQiQAAFIAAHAAHK7PzPgAAAAAAAAADAAAYAACAAAAAACAAAAA==

> <PUBCHEM_IUPAC_OPENEYE_NAME>
(2S,3S,4S,5R,6R)-6-[[(3R,5S,8R,9S,10S,13S,14S)-10,13-dimethyl-17-oxo-1,2,3,4,5,6,7,8,9,11,12,14,15,16-tetradecahydrocyclopenta[a]phenanthren-3-yl]oxy]-3,4,5-trihydroxy-tetrahydropyran-2-carboxylic acid

> <PUBCHEM_IUPAC_CAS_NAME>
(2S,3S,4S,5R,6R)-6-[[(3R,5S,8R,9S,10S,13S,14S)-10,13-dimethyl-17-oxo-1,2,3,4,5,6,7,8,9,11,12,14,15,16-tetradecahydrocyclopenta[a]phenanthren-3-yl]oxy]-3,4,5-trihydroxy-2-oxanecarboxylic acid

> <PUBCHEM_IUPAC_NAME>
(2S,3S,4S,5R,6R)-6-[[(3R,5S,8R,9S,10S,13S,14S)-10,13-dimethyl-17-oxo-1,2,3,4,5,6,7,8,9,11,12,14,15,16-tetradecahydrocyclopenta[a]phenanthren-3-yl]oxy]-3,4,5-trihydroxyoxane-2-carboxylic acid

> <PUBCHEM_IUPAC_SYSTEMATIC_NAME>
(2S,3S,4S,5R,6R)-6-[[(3R,5S,8R,9S,10S,13S,14S)-10,13-dimethyl-17-oxidanylidene-1,2,3,4,5,6,7,8,9,11,12,14,15,16-tetradecahydrocyclopenta[a]phenanthren-3-yl]oxy]-3,4,5-tris(oxidanyl)oxane-2-carboxylic acid

> <PUBCHEM_IUPAC_TRADITIONAL_NAME>
(2S,3S,4S,5R,6R)-3,4,5-trihydroxy-6-[[(3R,5S,8R,9S,10S,13S,14S)-17-keto-10,13-dimethyl-1,2,3,4,5,6,7,8,9,11,12,14,15,16-tetradecahydrocyclopenta[a]phenanthren-3-yl]oxy]tetrahydropyran-2-carboxylic acid

> <PUBCHEM_IUPAC_INCHI>
InChI=1S/C25H38O8/c1-24-9-7-13(32-23-20(29)18(27)19(28)21(33-23)22(30)31)11-12(24)3-4-14-15-5-6-17(26)25(15,2)10-8-16(14)24/h12-16,18-21,23,27-29H,3-11H2,1-2H3,(H,30,31)/t12-,13+,14-,15-,16-,18-,19-,20+,21-,23+,24-,25-/m0/s1

> <PUBCHEM_IUPAC_INCHIKEY>
VFUIRAVTUVCQTF-BSOWLZGZSA-N

> <PUBCHEM_XLOGP3>
2.3

> <PUBCHEM_EXACT_MASS>
466.256668

> <PUBCHEM_MOLECULAR_FORMULA>
C25H38O8

> <PUBCHEM_MOLECULAR_WEIGHT>
466.56442

> <PUBCHEM_OPENEYE_CAN_SMILES>
CC12CCC(CC1CCC3C2CCC4(C3CCC4=O)C)OC5C(C(C(C(O5)C(=O)O)O)O)O

> <PUBCHEM_OPENEYE_ISO_SMILES>
C[C@]12CC[C@H](C[C@@H]1CC[C@@H]3[C@@H]2CC[C@]4([C@H]3CCC4=O)C)O[C@H]5[C@@H]([C@H]([C@@H]([C@H](O5)C(=O)O)O)O)O

> <PUBCHEM_CACTVS_TPSA>
134

> <PUBCHEM_MONOISOTOPIC_WEIGHT>
466.256668

> <PUBCHEM_TOTAL_CHARGE>
0

> <PUBCHEM_HEAVY_ATOM_COUNT>
33

> <PUBCHEM_ATOM_DEF_STEREO_COUNT>
12

> <PUBCHEM_ATOM_UDEF_STEREO_COUNT>
0

> <PUBCHEM_BOND_DEF_STEREO_COUNT>
0

> <PUBCHEM_BOND_UDEF_STEREO_COUNT>
0

> <PUBCHEM_ISOTOPIC_ATOM_COUNT>
0

> <PUBCHEM_COMPONENT_COUNT>
1

> <PUBCHEM_CACTVS_TAUTO_COUNT>
2

> <PUBCHEM_COORDINATE_TYPE>
1
5
255

> <PUBCHEM_BONDANNOTATIONS>
25  1  6
28  1  5
10  22  5
11  35  5
12  36  6
13  37  6
14  27  5
31  33  5
29  4  6
30  5  5
32  6  6
9  34  6

$$$$

