182116
  -OEChem-07051213092D

 59 63  0     1  0  0  0  0  0999 V2000
    2.8304    1.0898    0.0000 O   0  0  0  0  0  0  0  0  0  0  0  0
    7.2580    0.7637    0.0000 O   0  0  0  0  0  0  0  0  0  0  0  0
    4.5797    3.0684    0.0000 O   0  0  0  0  0  0  0  0  0  0  0  0
    7.2580    2.3732    0.0000 O   0  0  0  0  0  0  0  0  0  0  0  0
    7.2700   -0.4771    0.0000 O   0  0  0  0  0  0  0  0  0  0  0  0
    2.0000    2.5982    0.0000 O   0  0  0  0  0  0  0  0  0  0  0  0
    7.3022   -2.5685    0.0000 O   0  0  0  0  0  0  0  0  0  0  0  0
    4.5797    1.0684    0.0000 C   0  0  2  0  0  0  0  0  0  0  0  0
    5.4457    0.5684    0.0000 C   0  0  1  0  0  0  0  0  0  0  0  0
    5.4618   -0.4731    0.0000 C   0  0  1  0  0  0  0  0  0  0  0  0
    4.5797    2.0684    0.0000 C   0  0  1  0  0  0  0  0  0  0  0  0
    3.6697    0.5616    0.0000 C   0  0  1  0  0  0  0  0  0  0  0  0
    6.3118    1.0684    0.0000 C   0  0  1  0  0  0  0  0  0  0  0  0
    4.5638   -1.0008    0.0000 C   0  0  1  0  0  0  0  0  0  0  0  0
    5.4457    2.5684    0.0000 C   0  0  2  0  0  0  0  0  0  0  0  0
    6.3118    2.0684    0.0000 C   0  0  2  0  0  0  0  0  0  0  0  0
    3.6617   -0.4800    0.0000 C   0  0  0  0  0  0  0  0  0  0  0  0
    4.5797    0.0684    0.0000 C   0  0  0  0  0  0  0  0  0  0  0  0
    3.7215    2.5654    0.0000 C   0  0  0  0  0  0  0  0  0  0  0  0
    4.5554   -2.0858    0.0000 C   0  0  1  0  0  0  0  0  0  0  0  0
    6.3239    0.0336    0.0000 C   0  0  0  0  0  0  0  0  0  0  0  0
    6.4137   -0.9937    0.0000 C   0  0  0  0  0  0  0  0  0  0  0  0
    5.4457    3.5684    0.0000 C   0  0  0  0  0  0  0  0  0  0  0  0
    2.8560    2.0812    0.0000 C   0  0  0  0  0  0  0  0  0  0  0  0
    7.8416    1.5684    0.0000 C   0  0  0  0  0  0  0  0  0  0  0  0
    5.4950   -2.6283    0.0000 C   0  0  0  0  0  0  0  0  0  0  0  0
    6.4305   -2.0786    0.0000 C   0  0  0  0  0  0  0  0  0  0  0  0
    3.6874   -2.5824    0.0000 C   0  0  0  0  0  0  0  0  0  0  0  0
    7.3138   -3.5684    0.0000 C   0  0  0  0  0  0  0  0  0  0  0  0
    6.1851    0.1491    0.0000 H   0  0  0  0  0  0  0  0  0  0  0  0
    2.9240    0.1536    0.0000 H   0  0  0  0  0  0  0  0  0  0  0  0
    6.4017    0.2232    0.0000 H   0  0  0  0  0  0  0  0  0  0  0  0
    3.8260   -1.4230    0.0000 H   0  0  0  0  0  0  0  0  0  0  0  0
    5.9827    2.8784    0.0000 H   0  0  0  0  0  0  0  0  0  0  0  0
    6.4017    2.9137    0.0000 H   0  0  0  0  0  0  0  0  0  0  0  0
    3.0517   -0.3692    0.0000 H   0  0  0  0  0  0  0  0  0  0  0  0
    3.4481   -1.0621    0.0000 H   0  0  0  0  0  0  0  0  0  0  0  0
    3.9597    0.0684    0.0000 H   0  0  0  0  0  0  0  0  0  0  0  0
    4.5797   -0.5516    0.0000 H   0  0  0  0  0  0  0  0  0  0  0  0
    5.1997    0.0684    0.0000 H   0  0  0  0  0  0  0  0  0  0  0  0
    4.1226    3.0382    0.0000 H   0  0  0  0  0  0  0  0  0  0  0  0
    3.3275    3.0441    0.0000 H   0  0  0  0  0  0  0  0  0  0  0  0
    4.0203   -1.7727    0.0000 H   0  0  0  0  0  0  0  0  0  0  0  0
    6.6381   -0.5009    0.0000 H   0  0  0  0  0  0  0  0  0  0  0  0
    6.8585    0.3477    0.0000 H   0  0  0  0  0  0  0  0  0  0  0  0
    6.0098    0.5681    0.0000 H   0  0  0  0  0  0  0  0  0  0  0  0
    6.0657    3.5684    0.0000 H   0  0  0  0  0  0  0  0  0  0  0  0
    5.4457    4.1884    0.0000 H   0  0  0  0  0  0  0  0  0  0  0  0
    4.8257    3.5684    0.0000 H   0  0  0  0  0  0  0  0  0  0  0  0
    4.0428    3.3784    0.0000 H   0  0  0  0  0  0  0  0  0  0  0  0
    8.3025    1.1537    0.0000 H   0  0  0  0  0  0  0  0  0  0  0  0
    8.3025    1.9832    0.0000 H   0  0  0  0  0  0  0  0  0  0  0  0
    5.4974   -3.2483    0.0000 H   0  0  0  0  0  0  0  0  0  0  0  0
    3.3795   -2.0443    0.0000 H   0  0  0  0  0  0  0  0  0  0  0  0
    3.1493   -2.8904    0.0000 H   0  0  0  0  0  0  0  0  0  0  0  0
    3.9954   -3.1206    0.0000 H   0  0  0  0  0  0  0  0  0  0  0  0
    6.6938   -3.5756    0.0000 H   0  0  0  0  0  0  0  0  0  0  0  0
    7.3209   -4.1884    0.0000 H   0  0  0  0  0  0  0  0  0  0  0  0
    7.9337   -3.5613    0.0000 H   0  0  0  0  0  0  0  0  0  0  0  0
  1 12  1  0  0  0  0
  1 24  1  0  0  0  0
  2 13  1  0  0  0  0
  2 25  1  0  0  0  0
 11  3  1  6  0  0  0
  3 50  1  0  0  0  0
  4 16  1  0  0  0  0
  4 25  1  0  0  0  0
  5 22  2  0  0  0  0
  6 24  2  0  0  0  0
  7 27  1  0  0  0  0
  7 29  1  0  0  0  0
  8  9  1  0  0  0  0
  8 11  1  0  0  0  0
  8 12  1  0  0  0  0
  8 18  1  6  0  0  0
  9 10  1  0  0  0  0
  9 13  1  0  0  0  0
  9 30  1  1  0  0  0
 10 14  1  0  0  0  0
 10 21  1  6  0  0  0
 10 22  1  0  0  0  0
 11 15  1  0  0  0  0
 11 19  1  0  0  0  0
 12 17  1  0  0  0  0
 12 31  1  6  0  0  0
 13 16  1  0  0  0  0
 13 32  1  6  0  0  0
 14 17  1  0  0  0  0
 14 20  1  0  0  0  0
 14 33  1  1  0  0  0
 15 16  1  0  0  0  0
 15 23  1  1  0  0  0
 15 34  1  0  0  0  0
 16 35  1  1  0  0  0
 17 36  1  0  0  0  0
 17 37  1  0  0  0  0
 18 38  1  0  0  0  0
 18 39  1  0  0  0  0
 18 40  1  0  0  0  0
 19 24  1  0  0  0  0
 19 41  1  0  0  0  0
 19 42  1  0  0  0  0
 20 26  1  0  0  0  0
 20 28  1  1  0  0  0
 20 43  1  0  0  0  0
 21 44  1  0  0  0  0
 21 45  1  0  0  0  0
 21 46  1  0  0  0  0
 22 27  1  0  0  0  0
 23 47  1  0  0  0  0
 23 48  1  0  0  0  0
 23 49  1  0  0  0  0
 25 51  1  0  0  0  0
 25 52  1  0  0  0  0
 26 27  2  0  0  0  0
 26 53  1  0  0  0  0
 28 54  1  0  0  0  0
 28 55  1  0  0  0  0
 28 56  1  0  0  0  0
 29 57  1  0  0  0  0
 29 58  1  0  0  0  0
 29 59  1  0  0  0  0
M  END
> <PUBCHEM_COMPOUND_CID>
182116

> <PUBCHEM_COMPOUND_CANONICALIZED>
1

> <PUBCHEM_CACTVS_COMPLEXITY>
807

> <PUBCHEM_CACTVS_HBOND_ACCEPTOR>
7

> <PUBCHEM_CACTVS_HBOND_DONOR>
1

> <PUBCHEM_CACTVS_ROTATABLE_BOND>
1

> <PUBCHEM_CACTVS_SUBSKEYS>
AAADceB4OAAAAAAAAAAAAAAAAAAAASAAAAA0YIEAAAAAAEjQAAAAGgAACAAAD1SggAMCCAAABgCIAKDSCAIACAAgIAAACAFAAEgRABYAAAQiQAAFoAAOAYPK7PzPgAAAAAAAAADCAAYQADCAAAAAAAAAAA==

> <PUBCHEM_IUPAC_INCHI>
InChI=1S/C22H30O7/c1-10-6-13(26-5)19(24)20(3)12(10)7-14-21(4)18(20)17-16(27-9-28-17)11(2)22(21,25)8-15(23)29-14/h6,10-12,14,16-18,25H,7-9H2,1-5H3/t10-,11+,12+,14-,16+,17-,18-,20+,21-,22-/m1/s1

> <PUBCHEM_IUPAC_INCHIKEY>
MPKJVOULXZBGDT-ATNJLCLCSA-N

> <PUBCHEM_XLOGP3_AA>
1.9

> <PUBCHEM_EXACT_MASS>
406.199153

> <PUBCHEM_MOLECULAR_FORMULA>
C22H30O7

> <PUBCHEM_MOLECULAR_WEIGHT>
406.4694

> <PUBCHEM_OPENEYE_CAN_SMILES>
CC1C=C(C(=O)C2(C1CC3C4(C2C5C(C(C4(CC(=O)O3)O)C)OCO5)C)C)OC

> <PUBCHEM_OPENEYE_ISO_SMILES>
C[C@@H]1C=C(C(=O)[C@]2([C@H]1C[C@@H]3[C@@]4([C@@H]2[C@H]5[C@H]([C@@H]([C@@]4(CC(=O)O3)O)C)OCO5)C)C)OC

> <PUBCHEM_CACTVS_TPSA>
91.3

> <PUBCHEM_MONOISOTOPIC_WEIGHT>
406.199153

> <PUBCHEM_TOTAL_CHARGE>
0

> <PUBCHEM_HEAVY_ATOM_COUNT>
29

> <PUBCHEM_ATOM_DEF_STEREO_COUNT>
10

> <PUBCHEM_ATOM_UDEF_STEREO_COUNT>
0

> <PUBCHEM_BOND_DEF_STEREO_COUNT>
0

> <PUBCHEM_BOND_UDEF_STEREO_COUNT>
0

> <PUBCHEM_ISOTOPIC_ATOM_COUNT>
0

> <PUBCHEM_COMPONENT_COUNT>
1

> <PUBCHEM_CACTVS_TAUTO_COUNT>
6

> <PUBCHEM_COORDINATE_TYPE>
1
5
255

> <PUBCHEM_BONDANNOTATIONS>
10  21  6
12  31  6
13  32  6
14  33  5
15  23  5
16  35  5
20  28  5
11  3  6
8  18  6
9  30  5

$$$$

