8119
  -OEChem-06261202362D

 20 20  0     0  0  0  0  0  0999 V2000
    3.1235   -0.7853    0.0000 N   0  0  0  0  0  0  0  0  0  0  0  0
    2.6235    1.4053    0.0000 C   0  0  0  0  0  0  0  0  0  0  0  0
    3.6235    1.4053    0.0000 C   0  0  0  0  0  0  0  0  0  0  0  0
    2.0000    0.6235    0.0000 C   0  0  0  0  0  0  0  0  0  0  0  0
    4.2470    0.6235    0.0000 C   0  0  0  0  0  0  0  0  0  0  0  0
    2.2225   -0.3514    0.0000 C   0  0  0  0  0  0  0  0  0  0  0  0
    4.0245   -0.3514    0.0000 C   0  0  0  0  0  0  0  0  0  0  0  0
    2.7614    2.0098    0.0000 H   0  0  0  0  0  0  0  0  0  0  0  0
    2.0649    1.6743    0.0000 H   0  0  0  0  0  0  0  0  0  0  0  0
    4.1821    1.6743    0.0000 H   0  0  0  0  0  0  0  0  0  0  0  0
    3.4855    2.0098    0.0000 H   0  0  0  0  0  0  0  0  0  0  0  0
    1.6134    1.1082    0.0000 H   0  0  0  0  0  0  0  0  0  0  0  0
    1.4414    0.3545    0.0000 H   0  0  0  0  0  0  0  0  0  0  0  0
    4.8056    0.3545    0.0000 H   0  0  0  0  0  0  0  0  0  0  0  0
    4.6335    1.1082    0.0000 H   0  0  0  0  0  0  0  0  0  0  0  0
    4.1624   -0.9559    0.0000 H   0  0  0  0  0  0  0  0  0  0  0  0
    4.6445   -0.3514    0.0000 H   0  0  0  0  0  0  0  0  0  0  0  0
    1.6025   -0.3514    0.0000 H   0  0  0  0  0  0  0  0  0  0  0  0
    2.0846   -0.9559    0.0000 H   0  0  0  0  0  0  0  0  0  0  0  0
    3.1235   -1.4053    0.0000 H   0  0  0  0  0  0  0  0  0  0  0  0
  1  6  1  0  0  0  0
  1  7  1  0  0  0  0
  1 20  1  0  0  0  0
  2  3  1  0  0  0  0
  2  4  1  0  0  0  0
  2  8  1  0  0  0  0
  2  9  1  0  0  0  0
  3  5  1  0  0  0  0
  3 10  1  0  0  0  0
  3 11  1  0  0  0  0
  4  6  1  0  0  0  0
  4 12  1  0  0  0  0
  4 13  1  0  0  0  0
  5  7  1  0  0  0  0
  5 14  1  0  0  0  0
  5 15  1  0  0  0  0
  6 18  1  0  0  0  0
  6 19  1  0  0  0  0
  7 16  1  0  0  0  0
  7 17  1  0  0  0  0
M  END
> <PUBCHEM_COMPOUND_CID>
8119

> <PUBCHEM_COMPOUND_CANONICALIZED>
1

> <PUBCHEM_CACTVS_COMPLEXITY>
37.4

> <PUBCHEM_CACTVS_HBOND_ACCEPTOR>
1

> <PUBCHEM_CACTVS_HBOND_DONOR>
1

> <PUBCHEM_CACTVS_ROTATABLE_BOND>
0

> <PUBCHEM_CACTVS_SUBSKEYS>
AAADccBiAAAAAAAAAAAAAAAAAAAAAAAAAAAAAAAABYAAAAAAAAAAHAAQAAAACADBAAQAAALAAAAAAAAAAAAAAAAAAAAAAIAIAAAAAAIAgAAEAAAAEACAAAEQAAAAAAAAAAAAAAAAAAAAAAAAAAAAAAAAAA==

> <PUBCHEM_IUPAC_OPENEYE_NAME>
azepane

> <PUBCHEM_IUPAC_CAS_NAME>
azepane

> <PUBCHEM_IUPAC_NAME>
azepane

> <PUBCHEM_IUPAC_SYSTEMATIC_NAME>
azepane

> <PUBCHEM_IUPAC_TRADITIONAL_NAME>
azepane

> <PUBCHEM_IUPAC_INCHI>
InChI=1S/C6H13N/c1-2-4-6-7-5-3-1/h7H,1-6H2

> <PUBCHEM_IUPAC_INCHIKEY>
ZSIQJIWKELUFRJ-UHFFFAOYSA-N

> <PUBCHEM_XLOGP3>
1.2

> <PUBCHEM_EXACT_MASS>
99.104799

> <PUBCHEM_MOLECULAR_FORMULA>
C6H13N

> <PUBCHEM_MOLECULAR_WEIGHT>
99.17412

> <PUBCHEM_OPENEYE_CAN_SMILES>
C1CCCNCC1

> <PUBCHEM_OPENEYE_ISO_SMILES>
C1CCCNCC1

> <PUBCHEM_CACTVS_TPSA>
12

> <PUBCHEM_MONOISOTOPIC_WEIGHT>
99.104799

> <PUBCHEM_TOTAL_CHARGE>
0

> <PUBCHEM_HEAVY_ATOM_COUNT>
7

> <PUBCHEM_ATOM_DEF_STEREO_COUNT>
0

> <PUBCHEM_ATOM_UDEF_STEREO_COUNT>
0

> <PUBCHEM_BOND_DEF_STEREO_COUNT>
0

> <PUBCHEM_BOND_UDEF_STEREO_COUNT>
0

> <PUBCHEM_ISOTOPIC_ATOM_COUNT>
0

> <PUBCHEM_COMPONENT_COUNT>
1

> <PUBCHEM_CACTVS_TAUTO_COUNT>
1

> <PUBCHEM_COORDINATE_TYPE>
1
5
255

$$$$

