   Color/Form

     * Crystals from alcohol
     * White powder
     * Colorless crystals

   from [1]HSDB

   Odor
        Odorless
   from [2]HSDB

   Taste
        Tasteless
   from [3]HSDB

   Melting Point
        161 deg C
   from [4]HSDB

   Corrosivity
        Non-corrosive
   from [5]HSDB

   Octanol/Water Partition Coefficient
        log Kow = 2.70
   from [6]HSDB

   Solubilities

     * Soluble in acetone, dioxane; moderately soluble in methanol,
       ethanol, isopropanol, some oils; freely soluble in alkaline aqueous
       soln (forms a water-sol sodium salt); practically insol in water,
       benzene, cyclohexane, Skellysolves A and B.
     * 0.3% in benzene; 6.5 in acetone, 5.6 in chloroform, 10.0 in dioxane
       (each in g/100 ml at 20 deg C). Very slightly soluble in ether and
       cyclohexane.
     * In water, 17 mg/l @ 20 deg C

   from [7]HSDB

   Spectral Properties

     * MAX ABSORPTION (ALCOHOL): 271 NM (LOG E= 3.04); 287 NM (LOG E=
       3.05); 306 NM (LOG E= 3.04)
     * Max UV absorption (water, pH 10): 308 nm (epsilon 13610)
     * Intense mass spectral peaks: 265 m/z (100%), 43 m/z (46%), 121 m/z
       (38%), 187 m/z (27%)
     * IR: 19548 (Sadtler Research Laboratories Prism Collection)
     * UV: 6416 (Sadtler Research Laboratories Spectral Collection)
     * MASS: 107153 (NIST/EPA/MSDC Mass Spectral Database, 1990 version)
     * Intense mass spectral peaks: 103 m/z, 131 m/z, 146 m/z, 181 m/z,
       308 m/z

   from [8]HSDB

   Vapor Pressure
        1.16X10-7 mm Hg @ 21.5 deg C
   from [9]HSDB

   Other Chemical/Physical Properties

     * Warfarin has an acidic enol which forms metallic salts and an
       acetate, mp 117-118 deg C, and a ketone which forms an oxime, mp
       182-183 deg C and a 2,4-dinitrophenylhydrazone, mp 215-216 deg C
     * Following reconstitution of amorphous warfarin sodium powder for
       injection with sterile water soln containing 25 mg of warfarin
       sodium per ml have a pH of 7.2-8.3 /Warfarin Sodium/
     * pH (1 in 100 soln) between 7.2 & 8.3 /Warfarin potassium, warfarin
       sodium/
     * Decomposes
     * Sol up to 40% in water /Warfarin sodium/
     * SOL: 1 g in 1.5 ml water, 1.9 ml alcohol, >10,000 ml chloroform,
       >10,000 ml ether /Warfarin potassium/

   from [10]HSDB

   Computed Properties
   Molecular Weight                  308.32794 [g/mol]
   Molecular Formula                 C[19]H[16]O[4]
   XLogP3                            2.7
   H-Bond Donor                      1
   H-Bond Acceptor                   4
   Rotatable Bond Count              4
   Tautomer Count                    9
   Exact Mass                        308.104859
   MonoIsotopic Mass                 308.104859
   Topological Polar Surface Area    63.6
   Heavy Atom Count                  23
   Formal Charge                     0
   Complexity                        502
   Isotope Atom Count                0
   Defined Atom Stereocenter Count   0
   Undefined Atom Stereocenter Count 1
   Defined Bond Stereocenter Count   0
   Undefined Bond Stereocenter Count 0
   Covalently-Bonded Unit Count      1
   Feature 3D Acceptor Count         2
   Feature 3D Donor Count            1
   Feature 3D Ring Count             3
   Effective Rotor Count             4
   Conformer Sampling RMSD           0.6
   CID Conformer Count               [11]46

References

   1. http://toxnet.nlm.nih.gov/cgi-bin/sis/search/r?dbs+hsdb:@term+@rn+@rel+81-81-2
   2. http://toxnet.nlm.nih.gov/cgi-bin/sis/search/r?dbs+hsdb:@term+@rn+@rel+81-81-2
   3. http://toxnet.nlm.nih.gov/cgi-bin/sis/search/r?dbs+hsdb:@term+@rn+@rel+81-81-2
   4. http://toxnet.nlm.nih.gov/cgi-bin/sis/search/r?dbs+hsdb:@term+@rn+@rel+81-81-2
   5. http://toxnet.nlm.nih.gov/cgi-bin/sis/search/r?dbs+hsdb:@term+@rn+@rel+81-81-2
   6. http://toxnet.nlm.nih.gov/cgi-bin/sis/search/r?dbs+hsdb:@term+@rn+@rel+81-81-2
   7. http://toxnet.nlm.nih.gov/cgi-bin/sis/search/r?dbs+hsdb:@term+@rn+@rel+81-81-2
   8. http://toxnet.nlm.nih.gov/cgi-bin/sis/search/r?dbs+hsdb:@term+@rn+@rel+81-81-2
   9. http://toxnet.nlm.nih.gov/cgi-bin/sis/search/r?dbs+hsdb:@term+@rn+@rel+81-81-2
  10. http://toxnet.nlm.nih.gov/cgi-bin/sis/search/r?dbs+hsdb:@term+@rn+@rel+81-81-2
  11. http://pubchem.ncbi.nlm.nih.gov/vw3d/vw3d.cgi?cid=54678486
