854055
  -OEChem-06241222472D

 30 30  0     1  0  0  0  0  0999 V2000
    3.9538    1.2071    0.0000 O   0  0  0  0  0  0  0  0  0  0  0  0
    2.0000   -2.6407    0.0000 O   0  0  0  0  0  0  0  0  0  0  0  0
    2.2218    1.2071    0.0000 O   0  0  0  0  0  0  0  0  0  0  0  0
    3.0878   -0.2929    0.0000 N   0  0  0  0  0  0  0  0  0  0  0  0
    2.5878   -1.8317    0.0000 C   0  0  1  0  0  0  0  0  0  0  0  0
    3.5878   -1.8317    0.0000 C   0  0  0  0  0  0  0  0  0  0  0  0
    2.2788   -0.8807    0.0000 C   0  0  0  0  0  0  0  0  0  0  0  0
    3.8968   -0.8807    0.0000 C   0  0  0  0  0  0  0  0  0  0  0  0
    3.9538    2.2071    0.0000 C   0  0  0  0  0  0  0  0  0  0  0  0
    3.0878    0.7071    0.0000 C   0  0  0  0  0  0  0  0  0  0  0  0
    3.9538    3.2071    0.0000 C   0  0  0  0  0  0  0  0  0  0  0  0
    4.9538    2.2071    0.0000 C   0  0  0  0  0  0  0  0  0  0  0  0
    2.9538    2.2071    0.0000 C   0  0  0  0  0  0  0  0  0  0  0  0
    1.9754   -1.7347    0.0000 H   0  0  0  0  0  0  0  0  0  0  0  0
    3.5230   -2.4483    0.0000 H   0  0  0  0  0  0  0  0  0  0  0  0
    4.1942   -1.9606    0.0000 H   0  0  0  0  0  0  0  0  0  0  0  0
    1.9688   -0.3437    0.0000 H   0  0  0  0  0  0  0  0  0  0  0  0
    1.7124   -1.1328    0.0000 H   0  0  0  0  0  0  0  0  0  0  0  0
    4.4632   -1.1328    0.0000 H   0  0  0  0  0  0  0  0  0  0  0  0
    4.2068   -0.3437    0.0000 H   0  0  0  0  0  0  0  0  0  0  0  0
    2.2522   -3.2071    0.0000 H   0  0  0  0  0  0  0  0  0  0  0  0
    4.5738    3.2071    0.0000 H   0  0  0  0  0  0  0  0  0  0  0  0
    3.9538    3.8271    0.0000 H   0  0  0  0  0  0  0  0  0  0  0  0
    3.3338    3.2071    0.0000 H   0  0  0  0  0  0  0  0  0  0  0  0
    4.9538    1.5871    0.0000 H   0  0  0  0  0  0  0  0  0  0  0  0
    5.5738    2.2071    0.0000 H   0  0  0  0  0  0  0  0  0  0  0  0
    4.9538    2.8271    0.0000 H   0  0  0  0  0  0  0  0  0  0  0  0
    2.9538    2.8271    0.0000 H   0  0  0  0  0  0  0  0  0  0  0  0
    2.3338    2.2071    0.0000 H   0  0  0  0  0  0  0  0  0  0  0  0
    2.9538    1.5871    0.0000 H   0  0  0  0  0  0  0  0  0  0  0  0
  1  9  1  0  0  0  0
  1 10  1  0  0  0  0
  5  2  1  6  0  0  0
  2 21  1  0  0  0  0
  3 10  2  0  0  0  0
  4  7  1  0  0  0  0
  4  8  1  0  0  0  0
  4 10  1  0  0  0  0
  5  6  1  0  0  0  0
  5  7  1  0  0  0  0
  5 14  1  0  0  0  0
  6  8  1  0  0  0  0
  6 15  1  0  0  0  0
  6 16  1  0  0  0  0
  7 17  1  0  0  0  0
  7 18  1  0  0  0  0
  8 19  1  0  0  0  0
  8 20  1  0  0  0  0
  9 11  1  0  0  0  0
  9 12  1  0  0  0  0
  9 13  1  0  0  0  0
 11 22  1  0  0  0  0
 11 23  1  0  0  0  0
 11 24  1  0  0  0  0
 12 25  1  0  0  0  0
 12 26  1  0  0  0  0
 12 27  1  0  0  0  0
 13 28  1  0  0  0  0
 13 29  1  0  0  0  0
 13 30  1  0  0  0  0
M  END
> <PUBCHEM_COMPOUND_CID>
854055

> <PUBCHEM_COMPOUND_CANONICALIZED>
1

> <PUBCHEM_CACTVS_COMPLEXITY>
198

> <PUBCHEM_CACTVS_HBOND_ACCEPTOR>
3

> <PUBCHEM_CACTVS_HBOND_DONOR>
1

> <PUBCHEM_CACTVS_ROTATABLE_BOND>
2

> <PUBCHEM_CACTVS_SUBSKEYS>
AAADceByMAAAAAAAAAAAAAAAAAAAAWAAAAAAAAAAAAAAAAAAAAAAHgAACAAADFThgAYCCAMABgAIAAAAGAAAAAAAAAAAAAAIAAACEAAAgAAMQAACBgCQAAAAAAAAAAAAAAAAAAAAAAAAAAAAAAAAAAAAAA==

> <PUBCHEM_IUPAC_OPENEYE_NAME>
tert-butyl (3S)-3-hydroxypyrrolidine-1-carboxylate

> <PUBCHEM_IUPAC_CAS_NAME>
(3S)-3-hydroxy-1-pyrrolidinecarboxylic acid tert-butyl ester

> <PUBCHEM_IUPAC_NAME>
tert-butyl (3S)-3-hydroxypyrrolidine-1-carboxylate

> <PUBCHEM_IUPAC_SYSTEMATIC_NAME>
tert-butyl (3S)-3-oxidanylpyrrolidine-1-carboxylate

> <PUBCHEM_IUPAC_TRADITIONAL_NAME>
(3S)-3-hydroxypyrrolidine-1-carboxylic acid tert-butyl ester

> <PUBCHEM_IUPAC_INCHI>
InChI=1S/C9H17NO3/c1-9(2,3)13-8(12)10-5-4-7(11)6-10/h7,11H,4-6H2,1-3H3/t7-/m0/s1

> <PUBCHEM_IUPAC_INCHIKEY>
APCBTRDHCDOPNY-ZETCQYMHSA-N

> <PUBCHEM_XLOGP3_AA>
0.6

> <PUBCHEM_EXACT_MASS>
187.120843

> <PUBCHEM_MOLECULAR_FORMULA>
C9H17NO3

> <PUBCHEM_MOLECULAR_WEIGHT>
187.23618

> <PUBCHEM_OPENEYE_CAN_SMILES>
CC(C)(C)OC(=O)N1CCC(C1)O

> <PUBCHEM_OPENEYE_ISO_SMILES>
CC(C)(C)OC(=O)N1CC[C@@H](C1)O

> <PUBCHEM_CACTVS_TPSA>
49.8

> <PUBCHEM_MONOISOTOPIC_WEIGHT>
187.120843

> <PUBCHEM_TOTAL_CHARGE>
0

> <PUBCHEM_HEAVY_ATOM_COUNT>
13

> <PUBCHEM_ATOM_DEF_STEREO_COUNT>
1

> <PUBCHEM_ATOM_UDEF_STEREO_COUNT>
0

> <PUBCHEM_BOND_DEF_STEREO_COUNT>
0

> <PUBCHEM_BOND_UDEF_STEREO_COUNT>
0

> <PUBCHEM_ISOTOPIC_ATOM_COUNT>
0

> <PUBCHEM_COMPONENT_COUNT>
1

> <PUBCHEM_CACTVS_TAUTO_COUNT>
1

> <PUBCHEM_COORDINATE_TYPE>
1
5
255

> <PUBCHEM_BONDANNOTATIONS>
5  2  6

$$$$

