   Color/Form
        OILY LIQUID
   from [1]HSDB

   Boiling Point
        142 deg C @ 1.0 mm Hg /Racemate/
   from [2]HSDB

   Spectral Properties
        SPECIFIC OPTICAL ROTATION (DIMETHYLFORMAMIDE): +49.8 DEG @ 25 DEG
   C/D
   from [3]HSDB

   Other Chemical/Physical Properties

     * CRYSTALS FROM ETHYL ACETATE; MP: 113-115 DEG C; SPECIFIC OPTICAL
       ROTATION (DIMETHYLFORMAMIDE): +44.3 DEG @ 25 DEG C/D, PH OF 1% SOLN
       4-5 /D-FORM, MALEATE/
     * WHITE CRYSTALLINE POWDER; ODORLESS; 1 G SOL IN 4 ML WATER; SOL IN
       ALC, CHLOROFORM; SLIGHTLY SOL IN BENZENE, ETHER /MALEATE/
     * INDEX OF REFRACTION: 1.509 (ALPHA); 1.564 (BETA); 1.683 (GAMMA);
       OPTIC SIGN: + /MALEATE/

   from [4]HSDB

   Computed Properties
   Molecular Weight                  274.78846 [g/mol]
   Molecular Formula                 C[16]H[19]ClN[2]
   XLogP3                            3.4
   H-Bond Donor                      0
   H-Bond Acceptor                   2
   Rotatable Bond Count              5
   Tautomer Count                    2
   Exact Mass                        274.123676
   MonoIsotopic Mass                 274.123676
   Topological Polar Surface Area    16.1
   Heavy Atom Count                  19
   Formal Charge                     0
   Complexity                        249
   Isotope Atom Count                0
   Defined Atom Stereocenter Count   1
   Undefined Atom Stereocenter Count 0
   Defined Bond Stereocenter Count   0
   Undefined Bond Stereocenter Count 0
   Covalently-Bonded Unit Count      1
   Feature 3D Acceptor Count         1
   Feature 3D Cation Count           1
   Feature 3D Ring Count             2
   Effective Rotor Count             5
   Conformer Sampling RMSD           0.6
   CID Conformer Count               [5]40

References

   1. http://toxnet.nlm.nih.gov/cgi-bin/sis/search/r?dbs+hsdb:@term+@rn+@rel+25523-97-1
   2. http://toxnet.nlm.nih.gov/cgi-bin/sis/search/r?dbs+hsdb:@term+@rn+@rel+25523-97-1
   3. http://toxnet.nlm.nih.gov/cgi-bin/sis/search/r?dbs+hsdb:@term+@rn+@rel+25523-97-1
   4. http://toxnet.nlm.nih.gov/cgi-bin/sis/search/r?dbs+hsdb:@term+@rn+@rel+25523-97-1
   5. http://pubchem.ncbi.nlm.nih.gov/vw3d/vw3d.cgi?cid=33036
