   Color/Form
        Liquid
   from [1]HSDB

   Boiling Point
        200 deg C
   from [2]HSDB

   Density/Specific Gravity
        1.0328 g/cu cm at 20 deg C
   from [3]HSDB

   Octanol/Water Partition Coefficient
        log kow = 2.26
   from [4]HSDB

   Solubilities

     * Slightly soluble in water; soluble in carbon tetrachloride,
       ethanol, ethyl ether, benzene; very soluble in acetone
     * In water, 1.18X10+3 mg/L at 25 deg C (est)

   from [5]HSDB

   Spectral Properties

     * Index of refraction: 1.5462 at 20 deg C/D
     * Index of refraction: 1.5430 at 25 deg C/D; 1.549 at 19 deg C/D
     * MASS: 20485 (NIST/EPA/MSDC Mass Spectral Database, 1990 version);
       226 (Aldermaston, Eight Peak Index of Mass Spectra, U.K.)
     * IR: 9147 (Sadtler Research Laboratories IR grating collection)
     * UV: 13722 (Sadtler Research Laboratories spectral collection)
     * 1H NMR: 3936 (Sadtler Research Laboratories spectral collection)

   from [6]HSDB

   Vapor Pressure
        0.335 mm Hg at 25 deg C (est)
   from [7]HSDB

   Other Chemical/Physical Properties

     * BP: 94 deg C at 10 mm Hg
     * Index of refraction: 1.5423 at 19 deg C/alpha; 1.5650 at 19 deg
       C/beta; 1.5798 at 19 deg C/gamma
     * Specific gravity: 1.0386 at 19 deg C/4 deg C
     * Henry's Law constant = 1.48X10-5 atm-cu m/mol at 25 deg C (est)
     * Hydroxyl radical reaction rate constant = 1.87X10-11 cu
       cm/molec-sec at 25 deg C (est)

   from [8]HSDB

   Computed Properties
   Molecular Weight                  120.14852 [g/mol]
   Molecular Formula                 C[8]H[8]O
   XLogP3                            2.1
   H-Bond Donor                      0
   H-Bond Acceptor                   1
   Rotatable Bond Count              1
   Exact Mass                        120.057515
   MonoIsotopic Mass                 120.057515
   Topological Polar Surface Area    17.1
   Heavy Atom Count                  9
   Formal Charge                     0
   Complexity                        98.7
   Isotope Atom Count                0
   Defined Atom Stereocenter Count   0
   Undefined Atom Stereocenter Count 0
   Defined Bond Stereocenter Count   0
   Undefined Bond Stereocenter Count 0
   Covalently-Bonded Unit Count      1
   Feature 3D Acceptor Count         1
   Feature 3D Ring Count             1
   Effective Rotor Count             1
   Conformer Sampling RMSD           0.4
   CID Conformer Count               [9]2

References

   1. http://toxnet.nlm.nih.gov/cgi-bin/sis/search/r?dbs+hsdb:@term+@rn+@rel+529-20-4
   2. http://toxnet.nlm.nih.gov/cgi-bin/sis/search/r?dbs+hsdb:@term+@rn+@rel+529-20-4
   3. http://toxnet.nlm.nih.gov/cgi-bin/sis/search/r?dbs+hsdb:@term+@rn+@rel+529-20-4
   4. http://toxnet.nlm.nih.gov/cgi-bin/sis/search/r?dbs+hsdb:@term+@rn+@rel+529-20-4
   5. http://toxnet.nlm.nih.gov/cgi-bin/sis/search/r?dbs+hsdb:@term+@rn+@rel+529-20-4
   6. http://toxnet.nlm.nih.gov/cgi-bin/sis/search/r?dbs+hsdb:@term+@rn+@rel+529-20-4
   7. http://toxnet.nlm.nih.gov/cgi-bin/sis/search/r?dbs+hsdb:@term+@rn+@rel+529-20-4
   8. http://toxnet.nlm.nih.gov/cgi-bin/sis/search/r?dbs+hsdb:@term+@rn+@rel+529-20-4
   9. http://pubchem.ncbi.nlm.nih.gov/vw3d/vw3d.cgi?cid=10722
