227111
  -OEChem-07051213052D

 58 62  0     1  0  0  0  0  0999 V2000
    5.6709   -2.2727    0.0000 O   0  0  0  0  0  0  0  0  0  0  0  0
    5.5491    0.1139    0.0000 O   0  0  0  0  0  0  0  0  0  0  0  0
    3.7227   -0.7011    0.0000 O   0  0  0  0  0  0  0  0  0  0  0  0
   12.3319    2.3437    0.0000 O   0  0  0  0  0  0  0  0  0  0  0  0
    2.7059   -2.1033    0.0000 O   0  0  0  0  0  0  0  0  0  0  0  0
    6.9920   -0.8007    0.0000 C   0  0  2  0  0  0  0  0  0  0  0  0
    6.2550   -1.4678    0.0000 C   0  0  1  0  0  0  0  0  0  0  0  0
    7.8580   -1.3007    0.0000 C   0  0  2  0  0  0  0  0  0  0  0  0
    6.6601   -2.3756    0.0000 C   0  0  1  0  0  0  0  0  0  0  0  0
    8.7240   -0.8007    0.0000 C   0  0  1  0  0  0  0  0  0  0  0  0
    7.6488   -2.2725    0.0000 C   0  0  0  0  0  0  0  0  0  0  0  0
    8.7240    0.1993    0.0000 C   0  0  2  0  0  0  0  0  0  0  0  0
    6.9920    0.1993    0.0000 C   0  0  0  0  0  0  0  0  0  0  0  0
    7.8580    0.6993    0.0000 C   0  0  0  0  0  0  0  0  0  0  0  0
    9.6180    0.7340    0.0000 C   0  0  2  0  0  0  0  0  0  0  0  0
    6.1259   -0.3007    0.0000 C   0  0  0  0  0  0  0  0  0  0  0  0
    9.6180   -1.3354    0.0000 C   0  0  0  0  0  0  0  0  0  0  0  0
    5.4454   -0.8807    0.0000 C   0  0  0  0  0  0  0  0  0  0  0  0
   10.5240    0.2201    0.0000 C   0  0  0  0  0  0  0  0  0  0  0  0
   10.5240   -0.8215    0.0000 C   0  0  0  0  0  0  0  0  0  0  0  0
    9.5929    1.8187    0.0000 C   0  0  0  0  0  0  0  0  0  0  0  0
    8.7481    1.2273    0.0000 C   0  0  0  0  0  0  0  0  0  0  0  0
    4.5322   -1.2882    0.0000 C   0  0  0  0  0  0  0  0  0  0  0  0
   10.5240    2.3756    0.0000 C   0  0  0  0  0  0  0  0  0  0  0  0
   11.4678    0.7553    0.0000 C   0  0  0  0  0  0  0  0  0  0  0  0
   11.4678    1.8403    0.0000 C   0  0  0  0  0  0  0  0  0  0  0  0
    2.8095   -1.1087    0.0000 C   0  0  0  0  0  0  0  0  0  0  0  0
    2.0000   -0.5216    0.0000 C   0  0  0  0  0  0  0  0  0  0  0  0
    8.5450   -1.8012    0.0000 H   0  0  0  0  0  0  0  0  0  0  0  0
    6.6602   -3.2256    0.0000 H   0  0  0  0  0  0  0  0  0  0  0  0
    8.7175   -1.6507    0.0000 H   0  0  0  0  0  0  0  0  0  0  0  0
    7.6479   -2.8925    0.0000 H   0  0  0  0  0  0  0  0  0  0  0  0
    8.2653   -2.3386    0.0000 H   0  0  0  0  0  0  0  0  0  0  0  0
    8.7175    1.0493    0.0000 H   0  0  0  0  0  0  0  0  0  0  0  0
    6.7799    0.7819    0.0000 H   0  0  0  0  0  0  0  0  0  0  0  0
    6.3814    0.0916    0.0000 H   0  0  0  0  0  0  0  0  0  0  0  0
    8.2565    1.1742    0.0000 H   0  0  0  0  0  0  0  0  0  0  0  0
    7.4595    1.1742    0.0000 H   0  0  0  0  0  0  0  0  0  0  0  0
    6.4360    0.2362    0.0000 H   0  0  0  0  0  0  0  0  0  0  0  0
    5.5890    0.0093    0.0000 H   0  0  0  0  0  0  0  0  0  0  0  0
    5.8160   -0.8376    0.0000 H   0  0  0  0  0  0  0  0  0  0  0  0
    9.2134   -1.8052    0.0000 H   0  0  0  0  0  0  0  0  0  0  0  0
   10.0116   -1.8144    0.0000 H   0  0  0  0  0  0  0  0  0  0  0  0
   10.7331   -1.4052    0.0000 H   0  0  0  0  0  0  0  0  0  0  0  0
   11.1349   -0.7154    0.0000 H   0  0  0  0  0  0  0  0  0  0  0  0
    9.3704    2.3974    0.0000 H   0  0  0  0  0  0  0  0  0  0  0  0
    8.9846    1.6985    0.0000 H   0  0  0  0  0  0  0  0  0  0  0  0
    9.0540    1.7666    0.0000 H   0  0  0  0  0  0  0  0  0  0  0  0
    8.2088    1.5331    0.0000 H   0  0  0  0  0  0  0  0  0  0  0  0
    8.4423    0.6880    0.0000 H   0  0  0  0  0  0  0  0  0  0  0  0
    4.0866   -1.7193    0.0000 H   0  0  0  0  0  0  0  0  0  0  0  0
    4.8794   -1.8019    0.0000 H   0  0  0  0  0  0  0  0  0  0  0  0
   10.9177    2.8546    0.0000 H   0  0  0  0  0  0  0  0  0  0  0  0
   10.1194    2.8454    0.0000 H   0  0  0  0  0  0  0  0  0  0  0  0
   12.0036    0.4433    0.0000 H   0  0  0  0  0  0  0  0  0  0  0  0
    2.3640   -0.0197    0.0000 H   0  0  0  0  0  0  0  0  0  0  0  0
    1.4981   -0.1576    0.0000 H   0  0  0  0  0  0  0  0  0  0  0  0
    1.6360   -1.0235    0.0000 H   0  0  0  0  0  0  0  0  0  0  0  0
  1  7  1  0  0  0  0
  1  9  1  0  0  0  0
  2 18  2  0  0  0  0
  3 23  1  0  0  0  0
  3 27  1  0  0  0  0
  4 26  2  0  0  0  0
  5 27  2  0  0  0  0
  6  7  1  0  0  0  0
  6  8  1  0  0  0  0
  6 13  1  0  0  0  0
  6 16  1  6  0  0  0
  7  9  1  0  0  0  0
  7 18  1  6  0  0  0
  8 10  1  0  0  0  0
  8 11  1  0  0  0  0
  8 29  1  1  0  0  0
  9 11  1  0  0  0  0
  9 30  1  6  0  0  0
 10 12  1  0  0  0  0
 10 17  1  0  0  0  0
 10 31  1  6  0  0  0
 11 32  1  0  0  0  0
 11 33  1  0  0  0  0
 12 14  1  0  0  0  0
 12 15  1  0  0  0  0
 12 34  1  1  0  0  0
 13 14  1  0  0  0  0
 13 35  1  0  0  0  0
 13 36  1  0  0  0  0
 14 37  1  0  0  0  0
 14 38  1  0  0  0  0
 15 19  1  0  0  0  0
 15 21  1  0  0  0  0
 15 22  1  6  0  0  0
 16 39  1  0  0  0  0
 16 40  1  0  0  0  0
 16 41  1  0  0  0  0
 17 20  1  0  0  0  0
 17 42  1  0  0  0  0
 17 43  1  0  0  0  0
 18 23  1  0  0  0  0
 19 20  1  0  0  0  0
 19 25  2  0  0  0  0
 20 44  1  0  0  0  0
 20 45  1  0  0  0  0
 21 24  1  0  0  0  0
 21 46  1  0  0  0  0
 21 47  1  0  0  0  0
 22 48  1  0  0  0  0
 22 49  1  0  0  0  0
 22 50  1  0  0  0  0
 23 51  1  0  0  0  0
 23 52  1  0  0  0  0
 24 26  1  0  0  0  0
 24 53  1  0  0  0  0
 24 54  1  0  0  0  0
 25 26  1  0  0  0  0
 25 55  1  0  0  0  0
 27 28  1  0  0  0  0
 28 56  1  0  0  0  0
 28 57  1  0  0  0  0
 28 58  1  0  0  0  0
M  END
> <PUBCHEM_COMPOUND_CID>
227111

> <PUBCHEM_COMPOUND_CANONICALIZED>
1

> <PUBCHEM_CACTVS_COMPLEXITY>
799

> <PUBCHEM_CACTVS_HBOND_ACCEPTOR>
5

> <PUBCHEM_CACTVS_HBOND_DONOR>
0

> <PUBCHEM_CACTVS_ROTATABLE_BOND>
4

> <PUBCHEM_CACTVS_SUBSKEYS>
AAADceB4OAAAAAAAAAAAAAAAEgAAAYAAAAA0YIEAAAAAAGDAAAAAGgAAAAAAD1SggAICCAAABACIAqDSCAIAAAAgAAAACAFAAEgAABYAAQQCAAAFoAAIAQPIyPCPgAAAAAAAAACAAAQAACAAAYAADAAAAA==

> <PUBCHEM_IUPAC_INCHI>
InChI=1S/C23H30O5/c1-13(24)27-12-19(26)23-20(28-23)11-18-16-5-4-14-10-15(25)6-8-21(14,2)17(16)7-9-22(18,23)3/h10,16-18,20H,4-9,11-12H2,1-3H3/t16-,17+,18+,20-,21+,22+,23-/m1/s1

> <PUBCHEM_IUPAC_INCHIKEY>
QZHWBQCNOKNTPO-UIHBBMEUSA-N

> <PUBCHEM_XLOGP3_AA>
2.8

> <PUBCHEM_EXACT_MASS>
386.209324

> <PUBCHEM_MOLECULAR_FORMULA>
C23H30O5

> <PUBCHEM_MOLECULAR_WEIGHT>
386.4813

> <PUBCHEM_OPENEYE_CAN_SMILES>
CC(=O)OCC(=O)C12C(O1)CC3C2(CCC4C3CCC5=CC(=O)CCC45C)C

> <PUBCHEM_OPENEYE_ISO_SMILES>
CC(=O)OCC(=O)[C@]12[C@H](O1)C[C@@H]3[C@@]2(CC[C@H]4[C@H]3CCC5=CC(=O)CC[C@]45C)C

> <PUBCHEM_CACTVS_TPSA>
73

> <PUBCHEM_MONOISOTOPIC_WEIGHT>
386.209324

> <PUBCHEM_TOTAL_CHARGE>
0

> <PUBCHEM_HEAVY_ATOM_COUNT>
28

> <PUBCHEM_ATOM_DEF_STEREO_COUNT>
7

> <PUBCHEM_ATOM_UDEF_STEREO_COUNT>
0

> <PUBCHEM_BOND_DEF_STEREO_COUNT>
0

> <PUBCHEM_BOND_UDEF_STEREO_COUNT>
0

> <PUBCHEM_ISOTOPIC_ATOM_COUNT>
0

> <PUBCHEM_COMPONENT_COUNT>
1

> <PUBCHEM_CACTVS_TAUTO_COUNT>
10

> <PUBCHEM_COORDINATE_TYPE>
1
5
255

> <PUBCHEM_BONDANNOTATIONS>
10  31  6
12  34  5
15  22  6
6  16  6
7  18  6
8  29  5
9  30  6

$$$$

