254630
  -OEChem-07051213062D

 45 47  0     0  0  0  0  0  0999 V2000
    6.3301    2.0670    0.0000 O   0  0  0  0  0  0  0  0  0  0  0  0
    9.8602    2.0911    0.0000 O   0  0  0  0  0  0  0  0  0  0  0  0
    2.0000   -1.4330    0.0000 O   0  0  0  0  0  0  0  0  0  0  0  0
    5.4641    1.5670    0.0000 C   0  0  0  0  0  0  0  0  0  0  0  0
    5.4641    0.5670    0.0000 C   0  0  0  0  0  0  0  0  0  0  0  0
    6.3301    0.0670    0.0000 C   0  0  0  0  0  0  0  0  0  0  0  0
    7.1962    0.5670    0.0000 C   0  0  0  0  0  0  0  0  0  0  0  0
    4.9641    2.4330    0.0000 C   0  0  0  0  0  0  0  0  0  0  0  0
    4.4641    1.5670    0.0000 C   0  0  0  0  0  0  0  0  0  0  0  0
    7.1962    1.5670    0.0000 C   0  0  0  0  0  0  0  0  0  0  0  0
    4.5981    0.0670    0.0000 C   0  0  0  0  0  0  0  0  0  0  0  0
    6.3301   -0.9330    0.0000 C   0  0  0  0  0  0  0  0  0  0  0  0
    8.0901    0.0323    0.0000 C   0  0  0  0  0  0  0  0  0  0  0  0
    8.0901    2.1016    0.0000 C   0  0  0  0  0  0  0  0  0  0  0  0
    4.5981   -0.9330    0.0000 C   0  0  0  0  0  0  0  0  0  0  0  0
    3.7320    0.5670    0.0000 C   0  0  0  0  0  0  0  0  0  0  0  0
    8.9962    1.5878    0.0000 C   0  0  0  0  0  0  0  0  0  0  0  0
    8.9962    0.5462    0.0000 C   0  0  0  0  0  0  0  0  0  0  0  0
    3.7320   -1.4330    0.0000 C   0  0  0  0  0  0  0  0  0  0  0  0
    2.8660    0.0670    0.0000 C   0  0  0  0  0  0  0  0  0  0  0  0
    2.8660   -0.9330    0.0000 C   0  0  0  0  0  0  0  0  0  0  0  0
   10.7282    1.5945    0.0000 C   0  0  0  0  0  0  0  0  0  0  0  0
    2.0000   -2.4330    0.0000 C   0  0  0  0  0  0  0  0  0  0  0  0
    4.4641    2.1870    0.0000 H   0  0  0  0  0  0  0  0  0  0  0  0
    3.8441    1.5670    0.0000 H   0  0  0  0  0  0  0  0  0  0  0  0
    4.4641    0.9470    0.0000 H   0  0  0  0  0  0  0  0  0  0  0  0
    5.5010    2.7430    0.0000 H   0  0  0  0  0  0  0  0  0  0  0  0
    4.6541    2.9700    0.0000 H   0  0  0  0  0  0  0  0  0  0  0  0
    4.4272    2.1230    0.0000 H   0  0  0  0  0  0  0  0  0  0  0  0
    5.7101   -0.9330    0.0000 H   0  0  0  0  0  0  0  0  0  0  0  0
    6.3301   -1.5530    0.0000 H   0  0  0  0  0  0  0  0  0  0  0  0
    6.9501   -0.9330    0.0000 H   0  0  0  0  0  0  0  0  0  0  0  0
    8.0829   -0.5876    0.0000 H   0  0  0  0  0  0  0  0  0  0  0  0
    8.0829    2.7216    0.0000 H   0  0  0  0  0  0  0  0  0  0  0  0
    5.1350   -1.2430    0.0000 H   0  0  0  0  0  0  0  0  0  0  0  0
    3.7320    1.1870    0.0000 H   0  0  0  0  0  0  0  0  0  0  0  0
    9.5319    0.2341    0.0000 H   0  0  0  0  0  0  0  0  0  0  0  0
    3.7320   -2.0530    0.0000 H   0  0  0  0  0  0  0  0  0  0  0  0
    2.3291    0.3770    0.0000 H   0  0  0  0  0  0  0  0  0  0  0  0
   10.4203    1.0563    0.0000 H   0  0  0  0  0  0  0  0  0  0  0  0
   11.2663    1.2866    0.0000 H   0  0  0  0  0  0  0  0  0  0  0  0
   11.0361    2.1326    0.0000 H   0  0  0  0  0  0  0  0  0  0  0  0
    1.3800   -2.4330    0.0000 H   0  0  0  0  0  0  0  0  0  0  0  0
    2.0000   -3.0530    0.0000 H   0  0  0  0  0  0  0  0  0  0  0  0
    2.6200   -2.4330    0.0000 H   0  0  0  0  0  0  0  0  0  0  0  0
  1  4  1  0  0  0  0
  1 10  1  0  0  0  0
  2 17  1  0  0  0  0
  2 22  1  0  0  0  0
  3 21  1  0  0  0  0
  3 23  1  0  0  0  0
  4  5  1  0  0  0  0
  4  8  1  0  0  0  0
  4  9  1  0  0  0  0
  5  6  2  0  0  0  0
  5 11  1  0  0  0  0
  6  7  1  0  0  0  0
  6 12  1  0  0  0  0
  7 10  2  0  0  0  0
  7 13  1  0  0  0  0
  8 27  1  0  0  0  0
  8 28  1  0  0  0  0
  8 29  1  0  0  0  0
  9 24  1  0  0  0  0
  9 25  1  0  0  0  0
  9 26  1  0  0  0  0
 10 14  1  0  0  0  0
 11 15  2  0  0  0  0
 11 16  1  0  0  0  0
 12 30  1  0  0  0  0
 12 31  1  0  0  0  0
 12 32  1  0  0  0  0
 13 18  2  0  0  0  0
 13 33  1  0  0  0  0
 14 17  2  0  0  0  0
 14 34  1  0  0  0  0
 15 19  1  0  0  0  0
 15 35  1  0  0  0  0
 16 20  2  0  0  0  0
 16 36  1  0  0  0  0
 17 18  1  0  0  0  0
 18 37  1  0  0  0  0
 19 21  2  0  0  0  0
 19 38  1  0  0  0  0
 20 21  1  0  0  0  0
 20 39  1  0  0  0  0
 22 40  1  0  0  0  0
 22 41  1  0  0  0  0
 22 42  1  0  0  0  0
 23 43  1  0  0  0  0
 23 44  1  0  0  0  0
 23 45  1  0  0  0  0
M  END
> <PUBCHEM_COMPOUND_CID>
254630

> <PUBCHEM_COMPOUND_CANONICALIZED>
1

> <PUBCHEM_CACTVS_COMPLEXITY>
446

> <PUBCHEM_CACTVS_HBOND_ACCEPTOR>
3

> <PUBCHEM_CACTVS_HBOND_DONOR>
0

> <PUBCHEM_CACTVS_ROTATABLE_BOND>
3

> <PUBCHEM_CACTVS_SUBSKEYS>
AAADceB4MAAAAAAAAAAAAAAAAAAAAAAAAAAwYIAAAAAAAACBQAAAGgAAAAAADESAmAIyBoAABACAAiBCAAACCAAgIAAIiAAGCIgMJyKEMRqCOCClwBUIqAeA4OwOIAAACAAIAABAAAAQABAAAAAAAAAAAA==

> <PUBCHEM_IUPAC_OPENEYE_NAME>
7-methoxy-3-(4-methoxyphenyl)-2,2,4-trimethyl-chromene

> <PUBCHEM_IUPAC_CAS_NAME>
7-methoxy-3-(4-methoxyphenyl)-2,2,4-trimethyl-1-benzopyran

> <PUBCHEM_IUPAC_NAME>
7-methoxy-3-(4-methoxyphenyl)-2,2,4-trimethylchromene

> <PUBCHEM_IUPAC_SYSTEMATIC_NAME>
7-methoxy-3-(4-methoxyphenyl)-2,2,4-trimethyl-chromene

> <PUBCHEM_IUPAC_TRADITIONAL_NAME>
7-methoxy-3-(4-methoxyphenyl)-2,2,4-trimethyl-chromene

> <PUBCHEM_IUPAC_INCHI>
InChI=1S/C20H22O3/c1-13-17-11-10-16(22-5)12-18(17)23-20(2,3)19(13)14-6-8-15(21-4)9-7-14/h6-12H,1-5H3

> <PUBCHEM_IUPAC_INCHIKEY>
PNVONQDZKVXBHJ-UHFFFAOYSA-N

> <PUBCHEM_XLOGP3_AA>
3.9

> <PUBCHEM_EXACT_MASS>
310.156895

> <PUBCHEM_MOLECULAR_FORMULA>
C20H22O3

> <PUBCHEM_MOLECULAR_WEIGHT>
310.38688

> <PUBCHEM_OPENEYE_CAN_SMILES>
CC1=C(C(OC2=C1C=CC(=C2)OC)(C)C)C3=CC=C(C=C3)OC

> <PUBCHEM_OPENEYE_ISO_SMILES>
CC1=C(C(OC2=C1C=CC(=C2)OC)(C)C)C3=CC=C(C=C3)OC

> <PUBCHEM_CACTVS_TPSA>
27.7

> <PUBCHEM_MONOISOTOPIC_WEIGHT>
310.156895

> <PUBCHEM_TOTAL_CHARGE>
0

> <PUBCHEM_HEAVY_ATOM_COUNT>
23

> <PUBCHEM_ATOM_DEF_STEREO_COUNT>
0

> <PUBCHEM_ATOM_UDEF_STEREO_COUNT>
0

> <PUBCHEM_BOND_DEF_STEREO_COUNT>
0

> <PUBCHEM_BOND_UDEF_STEREO_COUNT>
0

> <PUBCHEM_ISOTOPIC_ATOM_COUNT>
0

> <PUBCHEM_COMPONENT_COUNT>
1

> <PUBCHEM_CACTVS_TAUTO_COUNT>
1

> <PUBCHEM_COORDINATE_TYPE>
1
5
255

> <PUBCHEM_BONDANNOTATIONS>
10  14  8
11  15  8
11  16  8
13  18  8
14  17  8
15  19  8
16  20  8
17  18  8
19  21  8
20  21  8
7  10  8
7  13  8

$$$$

