17395937
  -OEChem-06241222532D

 45 46  0     1  0  0  0  0  0999 V2000
    2.0000   -3.2125    0.0000 F   0  0  0  0  0  0  0  0  0  0  0  0
    3.7320    1.7875    0.0000 O   0  0  0  0  0  0  0  0  0  0  0  0
    6.3657    4.7125    0.0000 O   0  0  0  0  0  0  0  0  0  0  0  0
    3.7320   -4.2125    0.0000 O   0  0  0  0  0  0  0  0  0  0  0  0
    6.3776    1.3808    0.0000 N   0  0  0  0  0  0  0  0  0  0  0  0
    4.5981    0.2875    0.0000 N   0  0  0  0  0  0  0  0  0  0  0  0
    3.7320   -0.2125    0.0000 C   0  0  3  0  0  0  0  0  0  0  0  0
    5.4641    1.7875    0.0000 C   0  0  0  0  0  0  0  0  0  0  0  0
    5.5686    2.7820    0.0000 C   0  0  0  0  0  0  0  0  0  0  0  0
    6.5468    2.9899    0.0000 C   0  0  0  0  0  0  0  0  0  0  0  0
    7.0468    2.1239    0.0000 C   0  0  0  0  0  0  0  0  0  0  0  0
    3.7320   -1.2125    0.0000 C   0  0  0  0  0  0  0  0  0  0  0  0
    4.5981    1.2875    0.0000 C   0  0  0  0  0  0  0  0  0  0  0  0
    2.8660    0.2875    0.0000 C   0  0  0  0  0  0  0  0  0  0  0  0
    4.8255    3.4512    0.0000 C   0  0  0  0  0  0  0  0  0  0  0  0
    8.0413    2.0194    0.0000 C   0  0  0  0  0  0  0  0  0  0  0  0
    6.9535    3.9035    0.0000 C   0  0  0  0  0  0  0  0  0  0  0  0
    2.8660   -1.7125    0.0000 C   0  0  0  0  0  0  0  0  0  0  0  0
    4.5981   -1.7125    0.0000 C   0  0  0  0  0  0  0  0  0  0  0  0
    2.8660   -2.7125    0.0000 C   0  0  0  0  0  0  0  0  0  0  0  0
    4.5981   -2.7125    0.0000 C   0  0  0  0  0  0  0  0  0  0  0  0
    3.7320   -3.2125    0.0000 C   0  0  0  0  0  0  0  0  0  0  0  0
    7.9480    4.0080    0.0000 C   0  0  0  0  0  0  0  0  0  0  0  0
    4.5981   -4.7125    0.0000 C   0  0  0  0  0  0  0  0  0  0  0  0
    3.7320    0.4075    0.0000 H   0  0  0  0  0  0  0  0  0  0  0  0
    6.5066    0.7743    0.0000 H   0  0  0  0  0  0  0  0  0  0  0  0
    5.1350   -0.0225    0.0000 H   0  0  0  0  0  0  0  0  0  0  0  0
    3.1760    0.8244    0.0000 H   0  0  0  0  0  0  0  0  0  0  0  0
    2.3291    0.5975    0.0000 H   0  0  0  0  0  0  0  0  0  0  0  0
    2.5560   -0.2494    0.0000 H   0  0  0  0  0  0  0  0  0  0  0  0
    5.2404    3.9119    0.0000 H   0  0  0  0  0  0  0  0  0  0  0  0
    4.3647    3.8660    0.0000 H   0  0  0  0  0  0  0  0  0  0  0  0
    4.4106    2.9904    0.0000 H   0  0  0  0  0  0  0  0  0  0  0  0
    7.9765    1.4028    0.0000 H   0  0  0  0  0  0  0  0  0  0  0  0
    8.6579    1.9546    0.0000 H   0  0  0  0  0  0  0  0  0  0  0  0
    8.1061    2.6360    0.0000 H   0  0  0  0  0  0  0  0  0  0  0  0
    2.3291   -1.4025    0.0000 H   0  0  0  0  0  0  0  0  0  0  0  0
    5.1350   -1.4025    0.0000 H   0  0  0  0  0  0  0  0  0  0  0  0
    5.1350   -3.0225    0.0000 H   0  0  0  0  0  0  0  0  0  0  0  0
    8.0128    3.3914    0.0000 H   0  0  0  0  0  0  0  0  0  0  0  0
    8.5646    4.0728    0.0000 H   0  0  0  0  0  0  0  0  0  0  0  0
    7.8832    4.6246    0.0000 H   0  0  0  0  0  0  0  0  0  0  0  0
    4.2881   -5.2494    0.0000 H   0  0  0  0  0  0  0  0  0  0  0  0
    5.1350   -5.0225    0.0000 H   0  0  0  0  0  0  0  0  0  0  0  0
    4.9081   -4.1756    0.0000 H   0  0  0  0  0  0  0  0  0  0  0  0
  1 20  1  0  0  0  0
  2 13  2  0  0  0  0
  3 17  2  0  0  0  0
  4 22  1  0  0  0  0
  4 24  1  0  0  0  0
  5  8  1  0  0  0  0
  5 11  1  0  0  0  0
  5 26  1  0  0  0  0
  6  7  1  0  0  0  0
  6 13  1  0  0  0  0
  6 27  1  0  0  0  0
  7 12  1  0  0  0  0
  7 14  1  0  0  0  0
  7 25  1  0  0  0  0
  8  9  2  0  0  0  0
  8 13  1  0  0  0  0
  9 10  1  0  0  0  0
  9 15  1  0  0  0  0
 10 11  2  0  0  0  0
 10 17  1  0  0  0  0
 11 16  1  0  0  0  0
 12 18  2  0  0  0  0
 12 19  1  0  0  0  0
 14 28  1  0  0  0  0
 14 29  1  0  0  0  0
 14 30  1  0  0  0  0
 15 31  1  0  0  0  0
 15 32  1  0  0  0  0
 15 33  1  0  0  0  0
 16 34  1  0  0  0  0
 16 35  1  0  0  0  0
 16 36  1  0  0  0  0
 17 23  1  0  0  0  0
 18 20  1  0  0  0  0
 18 37  1  0  0  0  0
 19 21  2  0  0  0  0
 19 38  1  0  0  0  0
 20 22  2  0  0  0  0
 21 22  1  0  0  0  0
 21 39  1  0  0  0  0
 23 40  1  0  0  0  0
 23 41  1  0  0  0  0
 23 42  1  0  0  0  0
 24 43  1  0  0  0  0
 24 44  1  0  0  0  0
 24 45  1  0  0  0  0
M  END
> <PUBCHEM_COMPOUND_CID>
17395937

> <PUBCHEM_COMPOUND_CANONICALIZED>
1

> <PUBCHEM_CACTVS_COMPLEXITY>
473

> <PUBCHEM_CACTVS_HBOND_ACCEPTOR>
4

> <PUBCHEM_CACTVS_HBOND_DONOR>
2

> <PUBCHEM_CACTVS_ROTATABLE_BOND>
5

> <PUBCHEM_CACTVS_SUBSKEYS>
AAADceB7MQAAAAAAAAAAAAAAAAAAAWAAAAAwAAAAAAAAAAABwAAAHwAQAAAADCzBng4yhpLJlACoA6VyVACCiCAnICAImaG+TNgMZnrEtbuUMahk1hHI6Uec24M+oAAAAAAAAABAAAAAAAAAAAAAAAAAAA==

> <PUBCHEM_IUPAC_OPENEYE_NAME>
4-acetyl-N-[1-(3-fluoro-4-methoxy-phenyl)ethyl]-3,5-dimethyl-1H-pyrrole-2-carboxamide

> <PUBCHEM_IUPAC_CAS_NAME>
4-acetyl-N-[1-(3-fluoro-4-methoxyphenyl)ethyl]-3,5-dimethyl-1H-pyrrole-2-carboxamide

> <PUBCHEM_IUPAC_NAME>
4-acetyl-N-[1-(3-fluoro-4-methoxyphenyl)ethyl]-3,5-dimethyl-1H-pyrrole-2-carboxamide

> <PUBCHEM_IUPAC_SYSTEMATIC_NAME>
4-ethanoyl-N-[1-(3-fluoranyl-4-methoxy-phenyl)ethyl]-3,5-dimethyl-1H-pyrrole-2-carboxamide

> <PUBCHEM_IUPAC_TRADITIONAL_NAME>
4-acetyl-N-[1-(3-fluoro-4-methoxy-phenyl)ethyl]-3,5-dimethyl-1H-pyrrole-2-carboxamide

> <PUBCHEM_IUPAC_INCHI>
InChI=1S/C18H21FN2O3/c1-9-16(12(4)22)11(3)20-17(9)18(23)21-10(2)13-6-7-15(24-5)14(19)8-13/h6-8,10,20H,1-5H3,(H,21,23)

> <PUBCHEM_IUPAC_INCHIKEY>
OHGBUKUTMVHAQA-UHFFFAOYSA-N

> <PUBCHEM_XLOGP3_AA>
2.7

> <PUBCHEM_EXACT_MASS>
332.153621

> <PUBCHEM_MOLECULAR_FORMULA>
C18H21FN2O3

> <PUBCHEM_MOLECULAR_WEIGHT>
332.369343

> <PUBCHEM_OPENEYE_CAN_SMILES>
CC1=C(NC(=C1C(=O)C)C)C(=O)NC(C)C2=CC(=C(C=C2)OC)F

> <PUBCHEM_OPENEYE_ISO_SMILES>
CC1=C(NC(=C1C(=O)C)C)C(=O)NC(C)C2=CC(=C(C=C2)OC)F

> <PUBCHEM_CACTVS_TPSA>
71.2

> <PUBCHEM_MONOISOTOPIC_WEIGHT>
332.153621

> <PUBCHEM_TOTAL_CHARGE>
0

> <PUBCHEM_HEAVY_ATOM_COUNT>
24

> <PUBCHEM_ATOM_DEF_STEREO_COUNT>
0

> <PUBCHEM_ATOM_UDEF_STEREO_COUNT>
1

> <PUBCHEM_BOND_DEF_STEREO_COUNT>
0

> <PUBCHEM_BOND_UDEF_STEREO_COUNT>
0

> <PUBCHEM_ISOTOPIC_ATOM_COUNT>
0

> <PUBCHEM_COMPONENT_COUNT>
1

> <PUBCHEM_CACTVS_TAUTO_COUNT>
62

> <PUBCHEM_COORDINATE_TYPE>
1
5
255

> <PUBCHEM_BONDANNOTATIONS>
10  11  8
12  18  8
12  19  8
18  20  8
19  21  8
20  22  8
21  22  8
5  11  8
5  8  8
7  14  3
8  9  8
9  10  8

$$$$

