5281463
  -OEChem-07051212572D

 52 56  0     1  0  0  0  0  0999 V2000
    2.0000   -0.3196    0.0000 O   0  0  0  0  0  0  0  0  0  0  0  0
    4.6011   -2.5617    0.0000 O   0  0  0  0  0  0  0  0  0  0  0  0
    3.1805    0.3170    0.0000 O   0  0  0  0  0  0  0  0  0  0  0  0
    3.2541   -2.7652    0.0000 O   0  0  0  0  0  0  0  0  0  0  0  0
    4.2964    1.4412    0.0000 O   0  0  0  0  0  0  0  0  0  0  0  0
    7.1996   -0.0643    0.0000 O   0  0  0  0  0  0  0  0  0  0  0  0
    5.1011    3.0248    0.0000 O   0  0  0  0  0  0  0  0  0  0  0  0
    7.5850   -1.7529    0.0000 O   0  0  0  0  0  0  0  0  0  0  0  0
    3.9776   -0.2868    0.0000 C   0  0  2  0  0  0  0  0  0  0  0  0
    2.9873   -0.2003    0.0000 C   0  0  1  0  0  0  0  0  0  0  0  0
    4.2002   -1.2617    0.0000 C   0  0  2  0  0  0  0  0  0  0  0  0
    2.5974   -1.1147    0.0000 C   0  0  1  0  0  0  0  0  0  0  0  0
    5.1011   -1.6956    0.0000 C   0  0  2  0  0  0  0  0  0  0  0  0
    3.3455   -1.7694    0.0000 C   0  0  1  0  0  0  0  0  0  0  0  0
    4.6011    0.4950    0.0000 C   0  0  2  0  0  0  0  0  0  0  0  0
    6.0021   -1.2617    0.0000 C   0  0  0  0  0  0  0  0  0  0  0  0
    5.6011   -2.5617    0.0000 C   0  0  0  0  0  0  0  0  0  0  0  0
    5.6011    0.4950    0.0000 C   0  0  1  0  0  0  0  0  0  0  0  0
    3.7870    0.4002    0.0000 C   0  0  0  0  0  0  0  0  0  0  0  0
    6.2246   -0.2868    0.0000 C   0  0  2  0  0  0  0  0  0  0  0  0
    5.9059    1.4412    0.0000 C   0  0  0  0  0  0  0  0  0  0  0  0
    5.1011    2.0248    0.0000 C   0  0  0  0  0  0  0  0  0  0  0  0
    6.8564    1.7519    0.0000 C   0  0  0  0  0  0  0  0  0  0  0  0
    7.8797   -0.7973    0.0000 C   0  0  0  0  0  0  0  0  0  0  0  0
    8.8546   -0.5748    0.0000 C   0  0  0  0  0  0  0  0  0  0  0  0
    9.1494    0.3808    0.0000 C   0  0  0  0  0  0  0  0  0  0  0  0
    9.5348   -1.3079    0.0000 C   0  0  0  0  0  0  0  0  0  0  0  0
    9.2401   -2.2635    0.0000 C   0  0  0  0  0  0  0  0  0  0  0  0
    4.2372   -2.1109    0.0000 H   0  0  0  0  0  0  0  0  0  0  0  0
    1.9744   -1.6929    0.0000 H   0  0  0  0  0  0  0  0  0  0  0  0
    3.8697   -2.1004    0.0000 H   0  0  0  0  0  0  0  0  0  0  0  0
    3.7650    0.6479    0.0000 H   0  0  0  0  0  0  0  0  0  0  0  0
    6.1401   -1.8662    0.0000 H   0  0  0  0  0  0  0  0  0  0  0  0
    6.6221   -1.2617    0.0000 H   0  0  0  0  0  0  0  0  0  0  0  0
    5.7088   -3.1722    0.0000 H   0  0  0  0  0  0  0  0  0  0  0  0
    6.1837   -2.3496    0.0000 H   0  0  0  0  0  0  0  0  0  0  0  0
    6.4373    0.6479    0.0000 H   0  0  0  0  0  0  0  0  0  0  0  0
    4.1593   -0.0955    0.0000 H   0  0  0  0  0  0  0  0  0  0  0  0
    4.2827    0.7726    0.0000 H   0  0  0  0  0  0  0  0  0  0  0  0
    3.4146    0.8960    0.0000 H   0  0  0  0  0  0  0  0  0  0  0  0
    6.4294    0.2984    0.0000 H   0  0  0  0  0  0  0  0  0  0  0  0
    3.2576    0.9322    0.0000 H   0  0  0  0  0  0  0  0  0  0  0  0
    2.6911   -3.0248    0.0000 H   0  0  0  0  0  0  0  0  0  0  0  0
    7.3178    1.3378    0.0000 H   0  0  0  0  0  0  0  0  0  0  0  0
    6.9842    2.3586    0.0000 H   0  0  0  0  0  0  0  0  0  0  0  0
    9.7419    0.1980    0.0000 H   0  0  0  0  0  0  0  0  0  0  0  0
    9.3322    0.9732    0.0000 H   0  0  0  0  0  0  0  0  0  0  0  0
    8.5570    0.5635    0.0000 H   0  0  0  0  0  0  0  0  0  0  0  0
   10.1393   -1.1699    0.0000 H   0  0  0  0  0  0  0  0  0  0  0  0
    8.6476   -2.0807    0.0000 H   0  0  0  0  0  0  0  0  0  0  0  0
    9.0573   -2.8559    0.0000 H   0  0  0  0  0  0  0  0  0  0  0  0
    9.8325   -2.4462    0.0000 H   0  0  0  0  0  0  0  0  0  0  0  0
  1 10  1  0  0  0  0
  1 12  1  0  0  0  0
 13  2  1  6  0  0  0
  2 17  1  0  0  0  0
  9  3  1  1  0  0  0
  3 42  1  0  0  0  0
 14  4  1  6  0  0  0
  4 43  1  0  0  0  0
  5 15  1  0  0  0  0
  5 22  1  0  0  0  0
 20  6  1  6  0  0  0
  6 24  1  0  0  0  0
  7 22  2  0  0  0  0
  8 24  2  0  0  0  0
  9 10  1  0  0  0  0
  9 11  1  0  0  0  0
  9 15  1  0  0  0  0
 10 12  1  0  0  0  0
 10 19  1  6  0  0  0
 11 13  1  0  0  0  0
 11 14  1  0  0  0  0
 11 29  1  1  0  0  0
 12 14  1  0  0  0  0
 12 30  1  6  0  0  0
 13 16  1  0  0  0  0
 13 17  1  0  0  0  0
 14 31  1  0  0  0  0
 15 18  1  0  0  0  0
 15 32  1  6  0  0  0
 16 20  1  0  0  0  0
 16 33  1  0  0  0  0
 16 34  1  0  0  0  0
 17 35  1  0  0  0  0
 17 36  1  0  0  0  0
 18 20  1  0  0  0  0
 18 21  1  0  0  0  0
 18 37  1  1  0  0  0
 19 38  1  0  0  0  0
 19 39  1  0  0  0  0
 19 40  1  0  0  0  0
 20 41  1  0  0  0  0
 21 22  1  0  0  0  0
 21 23  2  0  0  0  0
 23 44  1  0  0  0  0
 23 45  1  0  0  0  0
 24 25  1  0  0  0  0
 25 26  1  0  0  0  0
 25 27  2  0  0  0  0
 26 46  1  0  0  0  0
 26 47  1  0  0  0  0
 26 48  1  0  0  0  0
 27 28  1  0  0  0  0
 27 49  1  0  0  0  0
 28 50  1  0  0  0  0
 28 51  1  0  0  0  0
 28 52  1  0  0  0  0
M  END
> <PUBCHEM_COMPOUND_CID>
5281463

> <PUBCHEM_COMPOUND_CANONICALIZED>
1

> <PUBCHEM_CACTVS_COMPLEXITY>
834

> <PUBCHEM_CACTVS_HBOND_ACCEPTOR>
8

> <PUBCHEM_CACTVS_HBOND_DONOR>
2

> <PUBCHEM_CACTVS_ROTATABLE_BOND>
3

> <PUBCHEM_CACTVS_SUBSKEYS>
AAADceB4PAAAAAAAAAAAAAAAEiQAAaIAAAAkAAAABgAAAADQAAAAGgAACAAADVSggAICCAAABgCIAiDSCAAAAAAgAAAACAEAAEgBFBIAIQACUAAFwAADIYHK7PzOgAAAAAAAAAAAAAAAAAAAAYQADCAAAA==

> <PUBCHEM_IUPAC_INCHI>
InChI=1S/C20H24O8/c1-5-8(2)16(22)26-10-6-19(7-25-19)13-12(21)15-18(4,28-15)20(13,24)14-11(10)9(3)17(23)27-14/h5,10-15,21,24H,3,6-7H2,1-2,4H3/b8-5-/t10-,11-,12+,13+,14+,15-,18-,19-,20-/m1/s1

> <PUBCHEM_IUPAC_INCHIKEY>
QUSNLLJZMPVTTC-MGJUGYCASA-N

> <PUBCHEM_XLOGP3_AA>
0

> <PUBCHEM_EXACT_MASS>
392.147118

> <PUBCHEM_MOLECULAR_FORMULA>
C20H24O8

> <PUBCHEM_MOLECULAR_WEIGHT>
392.39976

> <PUBCHEM_OPENEYE_CAN_SMILES>
CC=C(C)C(=O)OC1CC2(CO2)C3C(C4C(C3(C5C1C(=C)C(=O)O5)O)(O4)C)O

> <PUBCHEM_OPENEYE_ISO_SMILES>
C/C=C(/C)\C(=O)O[C@@H]1C[C@@]2(CO2)[C@@H]3[C@@H]([C@@H]4[C@]([C@@]3([C@@H]5[C@@H]1C(=C)C(=O)O5)O)(O4)C)O

> <PUBCHEM_CACTVS_TPSA>
118

> <PUBCHEM_MONOISOTOPIC_WEIGHT>
392.147118

> <PUBCHEM_TOTAL_CHARGE>
0

> <PUBCHEM_HEAVY_ATOM_COUNT>
28

> <PUBCHEM_ATOM_DEF_STEREO_COUNT>
9

> <PUBCHEM_ATOM_UDEF_STEREO_COUNT>
0

> <PUBCHEM_BOND_DEF_STEREO_COUNT>
1

> <PUBCHEM_BOND_UDEF_STEREO_COUNT>
0

> <PUBCHEM_ISOTOPIC_ATOM_COUNT>
0

> <PUBCHEM_COMPONENT_COUNT>
1

> <PUBCHEM_CACTVS_TAUTO_COUNT>
1

> <PUBCHEM_COORDINATE_TYPE>
1
5
255

> <PUBCHEM_BONDANNOTATIONS>
10  19  6
11  29  5
12  30  6
15  32  6
18  37  5
13  2  6
9  3  5
14  4  6
20  6  6

$$$$

