   Chemical and Physical Properties References

   [1]USDA ARS - USDA chemical properties
   from [2]ChemIDplus

   Color/Form
        Colorless solid
   from [3]HSDB

   Melting Point
        114-116 DEG C
   from [4]HSDB

   Density/Specific Gravity
        1.57 at 25 deg C
   from [5]HSDB

   Dissociation Constants
        pKa= 1.87
   from [6]HSDB

   Octanol/Water Partition Coefficient
        log Kow= 2.21
   from [7]HSDB

   Solubilities

     * SOLUBILITY IN XYLENE 78 G/L
     * Solubility in 100 ml solvent at 25 deg C: ethanol 92.2 g; heavy
       aromatic naphthanes 6.0 g; water 0.45 g; xylene 9.0 g; diacetone
       alcohol 91.0 g; acetone 81.0 g; methylene chloride 26.0 g;
       cyclohexanone 91.6 g. Insoluble in pentane.
     * water solubility = 6500 mg/l @ 25 deg C

   from [8]HSDB

   Spectral Properties

     * Intense mass spectral peaks: 173 m/z (100%), 220 m/z (92%), 175 m/z
       (70%), 191 m/z (65%)
     * MASS: 4512 (National Bureau of Standards EPA-NIH Mass Spectra Data
       Base, NSRDS-NBS-63)

   from [9]HSDB

   Vapor Density
        4.5 mPa at 25 deg C
   from [10]HSDB

   Vapor Pressure
        Vapor pressure: 3.4X10-5 mm Hg at 25 deg C.
   from [11]HSDB

   Other Chemical/Physical Properties

     * AT 200 DEG C DICAMBA IS DECARBOXYLATED TO GIVE 2,5-DICHLOROANISOLE
     * PALE BUFF CRYSTALLINE SOLID /TECHNICAL PRODUCT/
     * Brown crystalline solid; Resistant to acids and strong alkali
       /Technical acid/
     * Mixing with soluble heavy-metal salts causes precipitation. Acidic
       media causes the salts of the free acid to be precipitated out of
       aqueous solution.
     * WHITE CRYSTALLINE SOLID /REFERENCE GRADE/
     * Brown crystalline solid /Technical acid/
     * Odorless /Reference grade/
     * The dimethylamine salt (Velsicol) formulation displays typical low
       order of corrosion. /Velsicol/
     * 3.75X10-3 MM HG @ 100 DEG C
     * Henry's Law constant= 2X10-9 atm-cu m/mole (est)

   from [12]HSDB

   Computed Properties
   Molecular Weight                  221.03744 [g/mol]
   Molecular Formula                 C[8]H[6]Cl[2]O[3]
   XLogP3                            2.2
   H-Bond Donor                      1
   H-Bond Acceptor                   3
   Rotatable Bond Count              2
   Exact Mass                        219.969399
   MonoIsotopic Mass                 219.969399
   Topological Polar Surface Area    46.5
   Heavy Atom Count                  13
   Formal Charge                     0
   Complexity                        198
   Isotope Atom Count                0
   Defined Atom Stereocenter Count   0
   Undefined Atom Stereocenter Count 0
   Defined Bond Stereocenter Count   0
   Undefined Bond Stereocenter Count 0
   Covalently-Bonded Unit Count      1
   Feature 3D Acceptor Count         3
   Feature 3D Anion Count            1
   Feature 3D Ring Count             1
   Effective Rotor Count             2
   Conformer Sampling RMSD           0.6
   CID Conformer Count               [13]2

References

   1. http://www.ars.usda.gov/SP2UserFiles/ad_hoc/12755100DatabaseFiles/PesticidePropertiesDatabase/IndividualPesticideFiles/DICAMBA.TXT
   2. http://chem.sis.nlm.nih.gov/chemidplus/
   3. http://toxnet.nlm.nih.gov/cgi-bin/sis/search/r?dbs+hsdb:@term+@rn+@rel+1918-00-9
   4. http://toxnet.nlm.nih.gov/cgi-bin/sis/search/r?dbs+hsdb:@term+@rn+@rel+1918-00-9
   5. http://toxnet.nlm.nih.gov/cgi-bin/sis/search/r?dbs+hsdb:@term+@rn+@rel+1918-00-9
   6. http://toxnet.nlm.nih.gov/cgi-bin/sis/search/r?dbs+hsdb:@term+@rn+@rel+1918-00-9
   7. http://toxnet.nlm.nih.gov/cgi-bin/sis/search/r?dbs+hsdb:@term+@rn+@rel+1918-00-9
   8. http://toxnet.nlm.nih.gov/cgi-bin/sis/search/r?dbs+hsdb:@term+@rn+@rel+1918-00-9
   9. http://toxnet.nlm.nih.gov/cgi-bin/sis/search/r?dbs+hsdb:@term+@rn+@rel+1918-00-9
  10. http://toxnet.nlm.nih.gov/cgi-bin/sis/search/r?dbs+hsdb:@term+@rn+@rel+1918-00-9
  11. http://toxnet.nlm.nih.gov/cgi-bin/sis/search/r?dbs+hsdb:@term+@rn+@rel+1918-00-9
  12. http://toxnet.nlm.nih.gov/cgi-bin/sis/search/r?dbs+hsdb:@term+@rn+@rel+1918-00-9
  13. http://pubchem.ncbi.nlm.nih.gov/vw3d/vw3d.cgi?cid=3030
