   Dissociation Constants
        pKa = 6.6
   from [1]HSDB

   Octanol/Water Partition Coefficient
        log Kow = 0.06
   from [2]HSDB

   Solubilities
        In water, 1,400 mg/L @ 25 deg C /Estimated/
   from [3]HSDB

   Vapor Pressure
        8.4X10-7 mm Hg @ 25 deg C /Estimated/
   from [4]HSDB

   Other Chemical/Physical Properties

     * MW: 257.77. Crystals from methanol, mp 223-226 deg C.
       /Hydrochloride/
     * White to pale yellow crystalline powder ... soluble but unstable in
       water or aqueous solutions, mw = 257.76 /Hydrochloride/
     * Crystals from methanol and ether, decomposes at 216-217 deg C
       /Hydrobromide/
     * White to pale yellow, crystalline powder; slight odor and bitter
       taste; 1 g sol in about 7 mL water, 100 mL alcohol, 10 mL methanol,
       1000 mL acetone, ether, 1000 mL benzene, 1000 mL chloroform;
       solution are acid to litmus; pKa at room temp 6.8 /hydrochloride/
     * Henry's Law constant = 8.9X10-15 atm-cu m/mole @ 25 deg C
       /Estimated/
     * Hydroxyl radical reaction rate constant = 1.5X10-10 cu
       cm/molecule-sec @ 25 deg C /Estimated/

   from [5]HSDB

   Computed Properties
   Molecular Weight                  221.29876 [g/mol]
   Molecular Formula                 C[12]H[19]N[3]O
   XLogP3                            0.1
   H-Bond Donor                      3
   H-Bond Acceptor                   3
   Rotatable Bond Count              5
   Tautomer Count                    2
   Exact Mass                        221.152812
   MonoIsotopic Mass                 221.152812
   Topological Polar Surface Area    53.2
   Heavy Atom Count                  16
   Formal Charge                     0
   Complexity                        210
   Isotope Atom Count                0
   Defined Atom Stereocenter Count   0
   Undefined Atom Stereocenter Count 0
   Defined Bond Stereocenter Count   0
   Undefined Bond Stereocenter Count 0
   Covalently-Bonded Unit Count      1
   Feature 3D Acceptor Count         1
   Feature 3D Donor Count            3
   Feature 3D Hydrophobe Count       1
   Feature 3D Ring Count             1
   Effective Rotor Count             6
   Conformer Sampling RMSD           0.8
   CID Conformer Count               [6]12

References

   1. http://toxnet.nlm.nih.gov/cgi-bin/sis/search/r?dbs+hsdb:@term+@rn+@rel+671-16-9
   2. http://toxnet.nlm.nih.gov/cgi-bin/sis/search/r?dbs+hsdb:@term+@rn+@rel+671-16-9
   3. http://toxnet.nlm.nih.gov/cgi-bin/sis/search/r?dbs+hsdb:@term+@rn+@rel+671-16-9
   4. http://toxnet.nlm.nih.gov/cgi-bin/sis/search/r?dbs+hsdb:@term+@rn+@rel+671-16-9
   5. http://toxnet.nlm.nih.gov/cgi-bin/sis/search/r?dbs+hsdb:@term+@rn+@rel+671-16-9
   6. http://pubchem.ncbi.nlm.nih.gov/vw3d/vw3d.cgi?cid=4915
