   Color/Form
        Prisms containing 2 mol H2O from water; anhydrous monoclinic
   plates from 66% alcohol
   from [1]HSDB

   Melting Point
        244 deg C
   from [2]HSDB

   Dissociation Constants

     * pK1= 2.18; pK2= 9.09; pK3= 13.2
     * pKa = 2.24

   from [3]HSDB

   Octanol/Water Partition Coefficient
        log Kow = -4.20
   from [4]HSDB

   pH
        Strongly alkaline
   from [5]HSDB

   Solubilities

     * Insoluble in ethyl ether; slightly soluble in ethanol
     * In water, 1.82X10+5 mg/l @ 25 deg C

   from [6]HSDB

   Spectral Properties

     * Specific optical rotation: +26.9 deg @ 20 deg C/C (c= 1.65 in 6.0 N
       hydrochloric acid)
     * SADTLER REFERENCE NUMBER: 13418 (IR, PRISM)
     * MS: NIST 76360 (NIST/EPA/MCDC Mass Spectral Database 1990 version)
     * UV: HBCP 205

   from [7]HSDB

   Other Chemical/Physical Properties

     * Contains 2 mol water; anhydrous from 66% alcohol; aq soln absorb
       carbon dioxide from air. The saturated aq soln contains 15% (w/w)
       at 21 deg C.
     * Becomes anhydrous @ 105 deg C; browns @ 230 deg C; decomp @ 244 deg
       C /Dihydrate/
     * 13C NMR: STOT 479 (Stothers, Carbon-13 NMR Spectroscopy, Academic
       Press, NY) /dl-Arginine/
     * IR: 1565 (Sadtler Research Laboratories IR Grating Collection)
       /dl-Arginine/

   from [8]HSDB

   Computed Properties
   Molecular Weight                  174.20096 [g/mol]
   Molecular Formula                 C[6]H[14]N[4]O[2]
   XLogP3                            -4.2
   H-Bond Donor                      4
   H-Bond Acceptor                   4
   Rotatable Bond Count              5
   Tautomer Count                    2
   Exact Mass                        174.111676
   MonoIsotopic Mass                 174.111676
   Topological Polar Surface Area    128
   Heavy Atom Count                  12
   Formal Charge                     0
   Complexity                        176
   Isotope Atom Count                0
   Defined Atom Stereocenter Count   1
   Undefined Atom Stereocenter Count 0
   Defined Bond Stereocenter Count   0
   Undefined Bond Stereocenter Count 0
   Covalently-Bonded Unit Count      1
   Feature 3D Acceptor Count         2
   Feature 3D Donor Count            3
   Feature 3D Anion Count            1
   Feature 3D Cation Count           2
   Effective Rotor Count             5
   Conformer Sampling RMSD           0.6
   CID Conformer Count               [9]96

References

   1. http://toxnet.nlm.nih.gov/cgi-bin/sis/search/r?dbs+hsdb:@term+@rn+@rel+74-79-3
   2. http://toxnet.nlm.nih.gov/cgi-bin/sis/search/r?dbs+hsdb:@term+@rn+@rel+74-79-3
   3. http://toxnet.nlm.nih.gov/cgi-bin/sis/search/r?dbs+hsdb:@term+@rn+@rel+74-79-3
   4. http://toxnet.nlm.nih.gov/cgi-bin/sis/search/r?dbs+hsdb:@term+@rn+@rel+74-79-3
   5. http://toxnet.nlm.nih.gov/cgi-bin/sis/search/r?dbs+hsdb:@term+@rn+@rel+74-79-3
   6. http://toxnet.nlm.nih.gov/cgi-bin/sis/search/r?dbs+hsdb:@term+@rn+@rel+74-79-3
   7. http://toxnet.nlm.nih.gov/cgi-bin/sis/search/r?dbs+hsdb:@term+@rn+@rel+74-79-3
   8. http://toxnet.nlm.nih.gov/cgi-bin/sis/search/r?dbs+hsdb:@term+@rn+@rel+74-79-3
   9. http://pubchem.ncbi.nlm.nih.gov/vw3d/vw3d.cgi?cid=6322
