13337
  -OEChem-06261209062D

 59 60  0     1  0  0  0  0  0999 V2000
    3.9609    1.9609    0.0000 O   0  0  0  0  0  0  0  0  0  0  0  0
    2.1858   10.7107    0.0000 O   0  0  0  0  0  0  0  0  0  0  0  0
    3.0518    9.2107    0.0000 O   0  0  0  0  0  0  0  0  0  0  0  0
    6.5159   10.2107    0.0000 O   0  5  0  0  0  0  0  0  0  0  0  0
    5.6499   11.7107    0.0000 O   0  0  0  0  0  0  0  0  0  0  0  0
    6.5999    1.7714    0.0000 N   0  3  0  0  0  0  0  0  0  0  0  0
    3.2538    2.6680    0.0000 C   0  0  3  0  0  0  0  0  0  0  0  0
    3.6365    3.5919    0.0000 C   0  0  0  0  0  0  0  0  0  0  0  0
    2.3300    2.2853    0.0000 C   0  0  0  0  0  0  0  0  0  0  0  0
    1.0234    3.5919    0.0000 C   0  0  0  0  0  0  0  0  0  0  0  0
    3.2538    4.5158    0.0000 C   0  0  0  0  0  0  0  0  0  0  0  0
    1.4061    2.6680    0.0000 C   0  0  0  0  0  0  0  0  0  0  0  0
    1.4061    4.5158    0.0000 C   0  0  0  0  0  0  0  0  0  0  0  0
    2.3300    4.8985    0.0000 C   0  0  0  0  0  0  0  0  0  0  0  0
    4.9269    2.2197    0.0000 C   0  0  0  0  0  0  0  0  0  0  0  0
    5.6340    1.5126    0.0000 C   0  0  0  0  0  0  0  0  0  0  0  0
    2.4818    1.2548    0.0000 C   0  0  0  0  0  0  0  0  0  0  0  0
    0.5700    2.0467    0.0000 C   0  0  0  0  0  0  0  0  0  0  0  0
    4.0899    5.1371    0.0000 C   0  0  0  0  0  0  0  0  0  0  0  0
    2.1781    5.9290    0.0000 C   0  0  0  0  0  0  0  0  0  0  0  0
    1.6604    0.6144    0.0000 C   0  0  0  0  0  0  0  0  0  0  0  0
    0.6980    1.0130    0.0000 C   0  0  0  0  0  0  0  0  0  0  0  0
    3.9619    6.1708    0.0000 C   0  0  0  0  0  0  0  0  0  0  0  0
    7.5658    2.0303    0.0000 C   0  0  0  0  0  0  0  0  0  0  0  0
    6.8587    0.8055    0.0000 C   0  0  0  0  0  0  0  0  0  0  0  0
    2.9996    6.5694    0.0000 C   0  0  0  0  0  0  0  0  0  0  0  0
    3.9178   10.7107    0.0000 C   0  0  0  0  0  0  0  0  0  0  0  0
    4.7838   10.2107    0.0000 C   0  0  0  0  0  0  0  0  0  0  0  0
    3.0518   10.2107    0.0000 C   0  0  0  0  0  0  0  0  0  0  0  0
    5.6499   10.7107    0.0000 C   0  0  0  0  0  0  0  0  0  0  0  0
    3.1329    2.0599    0.0000 H   0  0  0  0  0  0  0  0  0  0  0  0
    4.1284    3.9693    0.0000 H   0  0  0  0  0  0  0  0  0  0  0  0
    4.1284    3.2145    0.0000 H   0  0  0  0  0  0  0  0  0  0  0  0
    0.5315    3.9693    0.0000 H   0  0  0  0  0  0  0  0  0  0  0  0
    0.5315    3.2145    0.0000 H   0  0  0  0  0  0  0  0  0  0  0  0
    0.7914    4.5967    0.0000 H   0  0  0  0  0  0  0  0  0  0  0  0
    1.3252    5.1305    0.0000 H   0  0  0  0  0  0  0  0  0  0  0  0
    4.6649    2.7816    0.0000 H   0  0  0  0  0  0  0  0  0  0  0  0
    5.4347    2.5753    0.0000 H   0  0  0  0  0  0  0  0  0  0  0  0
    5.8960    0.9507    0.0000 H   0  0  0  0  0  0  0  0  0  0  0  0
    5.1261    1.1570    0.0000 H   0  0  0  0  0  0  0  0  0  0  0  0
    6.4394    2.3703    0.0000 H   0  0  0  0  0  0  0  0  0  0  0  0
    3.0573    1.0242    0.0000 H   0  0  0  0  0  0  0  0  0  0  0  0
    0.0000    2.2906    0.0000 H   0  0  0  0  0  0  0  0  0  0  0  0
    4.6599    4.8932    0.0000 H   0  0  0  0  0  0  0  0  0  0  0  0
    1.6026    6.1596    0.0000 H   0  0  0  0  0  0  0  0  0  0  0  0
    1.7437    0.0000    0.0000 H   0  0  0  0  0  0  0  0  0  0  0  0
    0.2047    0.6375    0.0000 H   0  0  0  0  0  0  0  0  0  0  0  0
    4.4552    6.5463    0.0000 H   0  0  0  0  0  0  0  0  0  0  0  0
    7.7263    1.4314    0.0000 H   0  0  0  0  0  0  0  0  0  0  0  0
    8.1647    2.1907    0.0000 H   0  0  0  0  0  0  0  0  0  0  0  0
    7.4054    2.6291    0.0000 H   0  0  0  0  0  0  0  0  0  0  0  0
    6.2599    0.6451    0.0000 H   0  0  0  0  0  0  0  0  0  0  0  0
    7.0192    0.2066    0.0000 H   0  0  0  0  0  0  0  0  0  0  0  0
    7.4576    0.9660    0.0000 H   0  0  0  0  0  0  0  0  0  0  0  0
    2.9163    7.1838    0.0000 H   0  0  0  0  0  0  0  0  0  0  0  0
    3.9178   11.3307    0.0000 H   0  0  0  0  0  0  0  0  0  0  0  0
    4.7838    9.5907    0.0000 H   0  0  0  0  0  0  0  0  0  0  0  0
    1.6488   10.4007    0.0000 H   0  0  0  0  0  0  0  0  0  0  0  0
  1  7  1  0  0  0  0
  1 15  1  0  0  0  0
  2 29  1  0  0  0  0
  2 59  1  0  0  0  0
  3 29  2  0  0  0  0
  4 30  1  0  0  0  0
  5 30  2  0  0  0  0
  6 16  1  0  0  0  0
  6 24  1  0  0  0  0
  6 25  1  0  0  0  0
  6 42  1  0  0  0  0
  7  8  1  0  0  0  0
  7  9  1  0  0  0  0
  7 31  1  0  0  0  0
  8 11  1  0  0  0  0
  8 32  1  0  0  0  0
  8 33  1  0  0  0  0
  9 12  1  0  0  0  0
  9 17  2  0  0  0  0
 10 12  1  0  0  0  0
 10 13  1  0  0  0  0
 10 34  1  0  0  0  0
 10 35  1  0  0  0  0
 11 14  1  0  0  0  0
 11 19  2  0  0  0  0
 12 18  2  0  0  0  0
 13 14  1  0  0  0  0
 13 36  1  0  0  0  0
 13 37  1  0  0  0  0
 14 20  2  0  0  0  0
 15 16  1  0  0  0  0
 15 38  1  0  0  0  0
 15 39  1  0  0  0  0
 16 40  1  0  0  0  0
 16 41  1  0  0  0  0
 17 21  1  0  0  0  0
 17 43  1  0  0  0  0
 18 22  1  0  0  0  0
 18 44  1  0  0  0  0
 19 23  1  0  0  0  0
 19 45  1  0  0  0  0
 20 26  1  0  0  0  0
 20 46  1  0  0  0  0
 21 22  2  0  0  0  0
 21 47  1  0  0  0  0
 22 48  1  0  0  0  0
 23 26  2  0  0  0  0
 23 49  1  0  0  0  0
 24 50  1  0  0  0  0
 24 51  1  0  0  0  0
 24 52  1  0  0  0  0
 25 53  1  0  0  0  0
 25 54  1  0  0  0  0
 25 55  1  0  0  0  0
 26 56  1  0  0  0  0
 27 28  2  3  0  0  0
 27 29  1  0  0  0  0
 27 57  1  0  0  0  0
 28 30  1  0  0  0  0
 28 58  1  0  0  0  0
M  CHG  2   4  -1   6   1
M  END
> <PUBCHEM_COMPOUND_CID>
13337

> <PUBCHEM_COMPOUND_CANONICALIZED>
1

> <PUBCHEM_CACTVS_COMPLEXITY>
459

> <PUBCHEM_CACTVS_HBOND_ACCEPTOR>
5

> <PUBCHEM_CACTVS_HBOND_DONOR>
2

> <PUBCHEM_CACTVS_ROTATABLE_BOND>
5

> <PUBCHEM_CACTVS_SUBSKEYS>
AAADceB6OAAAAAAAAAAAAAAAAAAAAAAAAAAwYAAAAAAYAAABQAAAHgAQCAAADBThmAYyCIPABgCIAiDSCAACAAAgAAAIiIAICMgKJiKAMRiDMAAk0AEYuYeAwOAOgAAAAAAQAAAAAAAAACAAAAAAAAAAAA==

> <PUBCHEM_IUPAC_OPENEYE_NAME>
dimethyl-[2-(5,6,11,12-tetrahydrodibenzo[1,2-b:1',2'-g][8]annulen-5-yloxy)ethyl]ammonium; 4-hydroxy-4-oxo-but-2-enoate

> <PUBCHEM_IUPAC_CAS_NAME>
dimethyl-[2-(5,6,11,12-tetrahydrodibenzo[1,2-b:1',2'-g][8]annulen-5-yloxy)ethyl]ammonium; 4-hydroxy-4-oxo-2-butenoate

> <PUBCHEM_IUPAC_NAME>
dimethyl-[2-(5,6,11,12-tetrahydrodibenzo[1,2-b:1',2'-g][8]annulen-5-yloxy)ethyl]azanium; 4-hydroxy-4-oxobut-2-enoate

> <PUBCHEM_IUPAC_SYSTEMATIC_NAME>
dimethyl-[2-(5,6,11,12-tetrahydrodibenzo[1,2-b:1',2'-g][8]annulen-5-yloxy)ethyl]azanium; 4-oxidanyl-4-oxidanylidene-but-2-enoate

> <PUBCHEM_IUPAC_TRADITIONAL_NAME>
dimethyl-[2-(5,6,11,12-tetrahydrodibenzo[1,2-b:1',2'-g]cycloocten-5-yloxy)ethyl]ammonium; 4-hydroxy-4-keto-but-2-enoate

> <PUBCHEM_IUPAC_INCHI>
InChI=1S/C20H25NO.C4H4O4/c1-21(2)13-14-22-20-15-18-9-4-3-7-16(18)11-12-17-8-5-6-10-19(17)20;5-3(6)1-2-4(7)8/h3-10,20H,11-15H2,1-2H3;1-2H,(H,5,6)(H,7,8)

> <PUBCHEM_IUPAC_INCHIKEY>
SRSTZQOHIXMQTJ-UHFFFAOYSA-N

> <PUBCHEM_EXACT_MASS>
411.204573

> <PUBCHEM_MOLECULAR_FORMULA>
C24H29NO5

> <PUBCHEM_MOLECULAR_WEIGHT>
411.49076

> <PUBCHEM_OPENEYE_CAN_SMILES>
C[NH+](C)CCOC1CC2=CC=CC=C2CCC3=CC=CC=C13.C(=CC(=O)[O-])C(=O)O

> <PUBCHEM_OPENEYE_ISO_SMILES>
C[NH+](C)CCOC1CC2=CC=CC=C2CCC3=CC=CC=C13.C(=CC(=O)[O-])C(=O)O

> <PUBCHEM_CACTVS_TPSA>
91.1

> <PUBCHEM_MONOISOTOPIC_WEIGHT>
411.204573

> <PUBCHEM_TOTAL_CHARGE>
0

> <PUBCHEM_HEAVY_ATOM_COUNT>
30

> <PUBCHEM_ATOM_DEF_STEREO_COUNT>
0

> <PUBCHEM_ATOM_UDEF_STEREO_COUNT>
0

> <PUBCHEM_BOND_DEF_STEREO_COUNT>
0

> <PUBCHEM_BOND_UDEF_STEREO_COUNT>
1

> <PUBCHEM_ISOTOPIC_ATOM_COUNT>
0

> <PUBCHEM_COMPONENT_COUNT>
2

> <PUBCHEM_CACTVS_TAUTO_COUNT>
1

> <PUBCHEM_COORDINATE_TYPE>
1
5
255

> <PUBCHEM_BONDANNOTATIONS>
11  14  8
11  19  8
12  18  8
14  20  8
17  21  8
18  22  8
19  23  8
20  26  8
21  22  8
23  26  8
27  28  1
9  12  8
9  17  8

$$$$

