   Color/Form

     * Oily colorless to pale yellow liquid
     * Colorless oil

   from [1]HSDB

   Odor

     * Unpleasant odor
     * Garlic like odor

   from [2]HSDB

   Boiling Point
        74 deg C at 0.15 mm Hg; 92 deg C at 0.2 mm Hg; 102 deg C at 0.40
   mm Hg
   from [3]HSDB

   Density/Specific Gravity
        1.21 at 20 deg C
   from [4]HSDB

   Octanol/Water Partition Coefficient
        log Kow = 1.02
   from [5]HSDB

   Solubilities

     * Sol in organic solvents
     * 600 g/kg dichloromethane at 20 deg C; 600 g/kg propan-2-ol at 20
       deg C
     * Limited solubility in petroleum solvents. Readily soluble in most
       organic solvents (e.g. dischloromethane, propanol, toluene)
     * Readily sol in common polar organic solvents (eg, alcohols,
       ketones, chlorinated hydrocarbons), ca. 200 g/L in dichloromethane,
       isopropanol, toluene
     * Readily soluble in dichloromethane, 2-propanol, toluene. Soluble in
       n-hexane.
     * In water, 3,300 mg/L at 20 deg C

   from [6]HSDB

   Spectral Properties
        Index of refraction: 1.5063 at 20 deg C/D
   from [7]HSDB

   Vapor Pressure
        3X10-4 mm Hg at 20 deg C
   from [8]HSDB

   Other Chemical/Physical Properties

     * A light yellow liquid; hydrolyzed by alkali /Commercial product -
       methyl demeton/
     * Colorless oil; BP: 74 deg C at 0.15 mm Hg; density: 1.190 at 20 deg
       C/4 deg C; index of refraction: 1.5063 at 20 deg C/D; Sol in water
       at room temp: 330 ppm; sol in organic solvents /Demeton-O-methyl/
     * A pale yellow oil /Technical grade/
     * Hydrolyzed rapidly in alkaline media, and more slowly in acidic and
       neutral aq media.
     * Air/water partition coefficient -5.86 (log)
     * Less volatile than the O-isomer
     * Henry's Law constant = 2.75X10-8 atm-cu m/mole at 25 deg C (est)
     * Hydroxyl radical reaction rate constant = 4.7X10-11 cu cm/molec-sec
       at 25 deg C (est)

   from [9]HSDB

   Computed Properties
   Molecular Weight                  230.285262 [g/mol]
   Molecular Formula                 C[6]H[15]O[3]PS[2]
   XLogP3                            1
   H-Bond Donor                      0
   H-Bond Acceptor                   5
   Rotatable Bond Count              7
   Exact Mass                        230.020023
   MonoIsotopic Mass                 230.020023
   Topological Polar Surface Area    86.1
   Heavy Atom Count                  12
   Formal Charge                     0
   Complexity                        146
   Isotope Atom Count                0
   Defined Atom Stereocenter Count   0
   Undefined Atom Stereocenter Count 0
   Defined Bond Stereocenter Count   0
   Undefined Bond Stereocenter Count 0
   Covalently-Bonded Unit Count      1
   Feature 3D Acceptor Count         1
   Feature 3D Hydrophobe Count       2
   Effective Rotor Count             7
   Conformer Sampling RMSD           0.8
   CID Conformer Count               [10]114

References

   1. http://toxnet.nlm.nih.gov/cgi-bin/sis/search/r?dbs+hsdb:@term+@rn+@rel+919-86-8
   2. http://toxnet.nlm.nih.gov/cgi-bin/sis/search/r?dbs+hsdb:@term+@rn+@rel+919-86-8
   3. http://toxnet.nlm.nih.gov/cgi-bin/sis/search/r?dbs+hsdb:@term+@rn+@rel+919-86-8
   4. http://toxnet.nlm.nih.gov/cgi-bin/sis/search/r?dbs+hsdb:@term+@rn+@rel+919-86-8
   5. http://toxnet.nlm.nih.gov/cgi-bin/sis/search/r?dbs+hsdb:@term+@rn+@rel+919-86-8
   6. http://toxnet.nlm.nih.gov/cgi-bin/sis/search/r?dbs+hsdb:@term+@rn+@rel+919-86-8
   7. http://toxnet.nlm.nih.gov/cgi-bin/sis/search/r?dbs+hsdb:@term+@rn+@rel+919-86-8
   8. http://toxnet.nlm.nih.gov/cgi-bin/sis/search/r?dbs+hsdb:@term+@rn+@rel+919-86-8
   9. http://toxnet.nlm.nih.gov/cgi-bin/sis/search/r?dbs+hsdb:@term+@rn+@rel+919-86-8
  10. http://pubchem.ncbi.nlm.nih.gov/vw3d/vw3d.cgi?cid=13526
