155011
  -OEChem-07051213102D

 38 40  0     0  0  0  0  0  0999 V2000
    4.3198    1.7623    0.0000 O   0  0  0  0  0  0  0  0  0  0  0  0
    6.0682    1.7277    0.0000 O   0  0  0  0  0  0  0  0  0  0  0  0
    6.0682   -2.2723    0.0000 O   0  0  0  0  0  0  0  0  0  0  0  0
    7.8167    1.7623    0.0000 O   0  0  0  0  0  0  0  0  0  0  0  0
    9.5984    0.7519    0.0000 O   0  0  0  0  0  0  0  0  0  0  0  0
    2.5381    0.7519    0.0000 O   0  0  0  0  0  0  0  0  0  0  0  0
    9.5984   -1.2964    0.0000 O   0  0  0  0  0  0  0  0  0  0  0  0
    5.2022    0.2277    0.0000 C   0  0  0  0  0  0  0  0  0  0  0  0
    5.2022   -0.7723    0.0000 C   0  0  0  0  0  0  0  0  0  0  0  0
    6.9343    0.2277    0.0000 C   0  0  0  0  0  0  0  0  0  0  0  0
    6.9343   -0.7723    0.0000 C   0  0  0  0  0  0  0  0  0  0  0  0
    6.0682    0.7277    0.0000 C   0  0  0  0  0  0  0  0  0  0  0  0
    6.0682   -1.2723    0.0000 C   0  0  0  0  0  0  0  0  0  0  0  0
    4.3083    0.7624    0.0000 C   0  0  0  0  0  0  0  0  0  0  0  0
    4.3083   -1.3070    0.0000 C   0  0  0  0  0  0  0  0  0  0  0  0
    3.4022   -0.7931    0.0000 C   0  0  0  0  0  0  0  0  0  0  0  0
    7.8282    0.7624    0.0000 C   0  0  0  0  0  0  0  0  0  0  0  0
    3.4022    0.2485    0.0000 C   0  0  0  0  0  0  0  0  0  0  0  0
    7.8282   -1.3070    0.0000 C   0  0  0  0  0  0  0  0  0  0  0  0
    8.7343    0.2485    0.0000 C   0  0  0  0  0  0  0  0  0  0  0  0
    8.7343   -0.7931    0.0000 C   0  0  0  0  0  0  0  0  0  0  0  0
    2.5381   -1.2964    0.0000 C   0  0  0  0  0  0  0  0  0  0  0  0
    3.4597    2.2723    0.0000 C   0  0  0  0  0  0  0  0  0  0  0  0
   10.4663    0.2552    0.0000 C   0  0  0  0  0  0  0  0  0  0  0  0
    4.3154   -1.9269    0.0000 H   0  0  0  0  0  0  0  0  0  0  0  0
    7.8210   -1.9269    0.0000 H   0  0  0  0  0  0  0  0  0  0  0  0
    2.2261   -0.7607    0.0000 H   0  0  0  0  0  0  0  0  0  0  0  0
    2.0024   -1.6085    0.0000 H   0  0  0  0  0  0  0  0  0  0  0  0
    2.8502   -1.8322    0.0000 H   0  0  0  0  0  0  0  0  0  0  0  0
    8.3500    2.0785    0.0000 H   0  0  0  0  0  0  0  0  0  0  0  0
    2.0000    0.4439    0.0000 H   0  0  0  0  0  0  0  0  0  0  0  0
    3.7758    2.8056    0.0000 H   0  0  0  0  0  0  0  0  0  0  0  0
    2.9263    2.5885    0.0000 H   0  0  0  0  0  0  0  0  0  0  0  0
    3.1435    1.7390    0.0000 H   0  0  0  0  0  0  0  0  0  0  0  0
    9.5960   -1.9164    0.0000 H   0  0  0  0  0  0  0  0  0  0  0  0
   10.1584   -0.2829    0.0000 H   0  0  0  0  0  0  0  0  0  0  0  0
   11.0045   -0.0527    0.0000 H   0  0  0  0  0  0  0  0  0  0  0  0
   10.7743    0.7933    0.0000 H   0  0  0  0  0  0  0  0  0  0  0  0
  1 14  1  0  0  0  0
  1 23  1  0  0  0  0
  2 12  2  0  0  0  0
  3 13  2  0  0  0  0
  4 17  1  0  0  0  0
  4 30  1  0  0  0  0
  5 20  1  0  0  0  0
  5 24  1  0  0  0  0
  6 18  1  0  0  0  0
  6 31  1  0  0  0  0
  7 21  1  0  0  0  0
  7 35  1  0  0  0  0
  8  9  2  0  0  0  0
  8 12  1  0  0  0  0
  8 14  1  0  0  0  0
  9 13  1  0  0  0  0
  9 15  1  0  0  0  0
 10 11  1  0  0  0  0
 10 12  1  0  0  0  0
 10 17  2  0  0  0  0
 11 13  1  0  0  0  0
 11 19  2  0  0  0  0
 14 18  2  0  0  0  0
 15 16  2  0  0  0  0
 15 25  1  0  0  0  0
 16 18  1  0  0  0  0
 16 22  1  0  0  0  0
 17 20  1  0  0  0  0
 19 21  1  0  0  0  0
 19 26  1  0  0  0  0
 20 21  2  0  0  0  0
 22 27  1  0  0  0  0
 22 28  1  0  0  0  0
 22 29  1  0  0  0  0
 23 32  1  0  0  0  0
 23 33  1  0  0  0  0
 23 34  1  0  0  0  0
 24 36  1  0  0  0  0
 24 37  1  0  0  0  0
 24 38  1  0  0  0  0
M  END
> <PUBCHEM_COMPOUND_CID>
155011

> <PUBCHEM_COMPOUND_CANONICALIZED>
1

> <PUBCHEM_CACTVS_COMPLEXITY>
521

> <PUBCHEM_CACTVS_HBOND_ACCEPTOR>
7

> <PUBCHEM_CACTVS_HBOND_DONOR>
3

> <PUBCHEM_CACTVS_ROTATABLE_BOND>
2

> <PUBCHEM_CACTVS_SUBSKEYS>
AAADccB4OAAAAAAAAAAAAAAAAAAAAAAAAAAwYMAAAAAAAADBQAAAGgAACAAADASAmAIyBoAABgCIAqBSAAACCAAkIAAAiAEGiMgNJzaGNRqAcWMl4BULuYeL7PzO4AADCAAYQADAAAYQADCAAAAAAAAAAA==

> <PUBCHEM_IUPAC_OPENEYE_NAME>
1,3,7-trihydroxy-2,8-dimethoxy-6-methyl-anthracene-9,10-dione

> <PUBCHEM_IUPAC_CAS_NAME>
1,3,7-trihydroxy-2,8-dimethoxy-6-methylanthracene-9,10-dione

> <PUBCHEM_IUPAC_NAME>
1,3,7-trihydroxy-2,8-dimethoxy-6-methylanthracene-9,10-dione

> <PUBCHEM_IUPAC_SYSTEMATIC_NAME>
1,7-dimethoxy-3-methyl-2,6,8-tris(oxidanyl)anthracene-9,10-dione

> <PUBCHEM_IUPAC_TRADITIONAL_NAME>
1,3,7-trihydroxy-2,8-dimethoxy-6-methyl-9,10-anthraquinone

> <PUBCHEM_IUPAC_INCHI>
InChI=1S/C17H14O7/c1-6-4-7-11(17(24-3)12(6)19)14(21)10-8(13(7)20)5-9(18)16(23-2)15(10)22/h4-5,18-19,22H,1-3H3

> <PUBCHEM_IUPAC_INCHIKEY>
RNXZPKOEJUFJON-UHFFFAOYSA-N

> <PUBCHEM_XLOGP3_AA>
2.7

> <PUBCHEM_EXACT_MASS>
330.073953

> <PUBCHEM_MOLECULAR_FORMULA>
C17H14O7

> <PUBCHEM_MOLECULAR_WEIGHT>
330.28886

> <PUBCHEM_OPENEYE_CAN_SMILES>
CC1=C(C(=C2C(=C1)C(=O)C3=CC(=C(C(=C3C2=O)O)OC)O)OC)O

> <PUBCHEM_OPENEYE_ISO_SMILES>
CC1=C(C(=C2C(=C1)C(=O)C3=CC(=C(C(=C3C2=O)O)OC)O)OC)O

> <PUBCHEM_CACTVS_TPSA>
113

> <PUBCHEM_MONOISOTOPIC_WEIGHT>
330.073953

> <PUBCHEM_TOTAL_CHARGE>
0

> <PUBCHEM_HEAVY_ATOM_COUNT>
24

> <PUBCHEM_ATOM_DEF_STEREO_COUNT>
0

> <PUBCHEM_ATOM_UDEF_STEREO_COUNT>
0

> <PUBCHEM_BOND_DEF_STEREO_COUNT>
0

> <PUBCHEM_BOND_UDEF_STEREO_COUNT>
0

> <PUBCHEM_ISOTOPIC_ATOM_COUNT>
0

> <PUBCHEM_COMPONENT_COUNT>
1

> <PUBCHEM_CACTVS_TAUTO_COUNT>
176

> <PUBCHEM_COORDINATE_TYPE>
1
5
255

> <PUBCHEM_BONDANNOTATIONS>
10  11  8
10  17  8
11  19  8
14  18  8
15  16  8
16  18  8
17  20  8
19  21  8
20  21  8
8  14  8
8  9  8
9  15  8

$$$$

