17395355
  -OEChem-06241222492D

 34 35  0     0  0  0  0  0  0999 V2000
    6.9535    5.0580    0.0000 Br  0  0  0  0  0  0  0  0  0  0  0  0
    5.5686    3.9365    0.0000 O   0  0  0  0  0  0  0  0  0  0  0  0
    2.8660   -4.5580    0.0000 O   0  0  0  0  0  0  0  0  0  0  0  0
    4.5981   -0.5580    0.0000 O   0  0  0  0  0  0  0  0  0  0  0  0
    3.7320    2.9420    0.0000 O   0  0  0  0  0  0  0  0  0  0  0  0
    2.8660   -0.5580    0.0000 N   0  0  0  0  0  0  0  0  0  0  0  0
    4.5981    1.4420    0.0000 N   0  0  0  0  0  0  0  0  0  0  0  0
    2.8660   -1.5580    0.0000 C   0  0  0  0  0  0  0  0  0  0  0  0
    3.7320    0.9420    0.0000 C   0  0  0  0  0  0  0  0  0  0  0  0
    3.7320   -0.0580    0.0000 C   0  0  0  0  0  0  0  0  0  0  0  0
    2.0000   -2.0580    0.0000 C   0  0  0  0  0  0  0  0  0  0  0  0
    3.7320   -2.0580    0.0000 C   0  0  0  0  0  0  0  0  0  0  0  0
    2.8660   -3.5580    0.0000 C   0  0  0  0  0  0  0  0  0  0  0  0
    2.0000   -3.0580    0.0000 C   0  0  0  0  0  0  0  0  0  0  0  0
    3.7320   -3.0580    0.0000 C   0  0  0  0  0  0  0  0  0  0  0  0
    4.5981    2.4420    0.0000 C   0  0  0  0  0  0  0  0  0  0  0  0
    5.4641    2.9420    0.0000 C   0  0  0  0  0  0  0  0  0  0  0  0
    6.3776    2.5353    0.0000 C   0  0  0  0  0  0  0  0  0  0  0  0
    7.0468    3.2784    0.0000 C   0  0  0  0  0  0  0  0  0  0  0  0
    6.5468    4.1444    0.0000 C   0  0  0  0  0  0  0  0  0  0  0  0
    2.0000   -5.0580    0.0000 C   0  0  0  0  0  0  0  0  0  0  0  0
    3.5200    1.5246    0.0000 H   0  0  0  0  0  0  0  0  0  0  0  0
    3.1215    0.8343    0.0000 H   0  0  0  0  0  0  0  0  0  0  0  0
    2.3291   -0.2480    0.0000 H   0  0  0  0  0  0  0  0  0  0  0  0
    1.4631   -1.7480    0.0000 H   0  0  0  0  0  0  0  0  0  0  0  0
    4.2690   -1.7480    0.0000 H   0  0  0  0  0  0  0  0  0  0  0  0
    5.1350    1.1320    0.0000 H   0  0  0  0  0  0  0  0  0  0  0  0
    1.4631   -3.3680    0.0000 H   0  0  0  0  0  0  0  0  0  0  0  0
    4.2690   -3.3680    0.0000 H   0  0  0  0  0  0  0  0  0  0  0  0
    6.5066    1.9288    0.0000 H   0  0  0  0  0  0  0  0  0  0  0  0
    7.6634    3.2136    0.0000 H   0  0  0  0  0  0  0  0  0  0  0  0
    1.6900   -4.5210    0.0000 H   0  0  0  0  0  0  0  0  0  0  0  0
    1.4631   -5.3680    0.0000 H   0  0  0  0  0  0  0  0  0  0  0  0
    2.3100   -5.5949    0.0000 H   0  0  0  0  0  0  0  0  0  0  0  0
  1 20  1  0  0  0  0
  2 17  1  0  0  0  0
  2 20  1  0  0  0  0
  3 13  1  0  0  0  0
  3 21  1  0  0  0  0
  4 10  2  0  0  0  0
  5 16  2  0  0  0  0
  6  8  1  0  0  0  0
  6 10  1  0  0  0  0
  6 24  1  0  0  0  0
  7  9  1  0  0  0  0
  7 16  1  0  0  0  0
  7 27  1  0  0  0  0
  8 11  2  0  0  0  0
  8 12  1  0  0  0  0
  9 10  1  0  0  0  0
  9 22  1  0  0  0  0
  9 23  1  0  0  0  0
 11 14  1  0  0  0  0
 11 25  1  0  0  0  0
 12 15  2  0  0  0  0
 12 26  1  0  0  0  0
 13 14  2  0  0  0  0
 13 15  1  0  0  0  0
 14 28  1  0  0  0  0
 15 29  1  0  0  0  0
 16 17  1  0  0  0  0
 17 18  2  0  0  0  0
 18 19  1  0  0  0  0
 18 30  1  0  0  0  0
 19 20  2  0  0  0  0
 19 31  1  0  0  0  0
 21 32  1  0  0  0  0
 21 33  1  0  0  0  0
 21 34  1  0  0  0  0
M  END
> <PUBCHEM_COMPOUND_CID>
17395355

> <PUBCHEM_COMPOUND_CANONICALIZED>
1

> <PUBCHEM_CACTVS_COMPLEXITY>
372

> <PUBCHEM_CACTVS_HBOND_ACCEPTOR>
4

> <PUBCHEM_CACTVS_HBOND_DONOR>
2

> <PUBCHEM_CACTVS_ROTATABLE_BOND>
5

> <PUBCHEM_CACTVS_SUBSKEYS>
AAADccBzOAAAEAAAAAAAAAAAAAAAASAAAAAwAAAAAAAAAAABwAAAHgBQAAABKAzBkAYyxoLABECIAKVSUAKCCAAlIgQIiIHObOgOZjLEtb+XOSjk1hHY65e4VwIAAEAAAAAAAAAAgAAAAAAAAAAAAAAAAA==

> <PUBCHEM_IUPAC_OPENEYE_NAME>
5-bromo-N-[2-(4-methoxyanilino)-2-oxo-ethyl]furan-2-carboxamide

> <PUBCHEM_IUPAC_CAS_NAME>
5-bromo-N-[2-(4-methoxyanilino)-2-oxoethyl]-2-furancarboxamide

> <PUBCHEM_IUPAC_NAME>
5-bromo-N-[2-(4-methoxyanilino)-2-oxoethyl]furan-2-carboxamide

> <PUBCHEM_IUPAC_SYSTEMATIC_NAME>
5-bromanyl-N-[2-[(4-methoxyphenyl)amino]-2-oxidanylidene-ethyl]furan-2-carboxamide

> <PUBCHEM_IUPAC_TRADITIONAL_NAME>
5-bromo-N-[2-keto-2-(p-anisidino)ethyl]-2-furamide

> <PUBCHEM_IUPAC_INCHI>
InChI=1S/C14H13BrN2O4/c1-20-10-4-2-9(3-5-10)17-13(18)8-16-14(19)11-6-7-12(15)21-11/h2-7H,8H2,1H3,(H,16,19)(H,17,18)

> <PUBCHEM_IUPAC_INCHIKEY>
FHDLORKYMUMGOT-UHFFFAOYSA-N

> <PUBCHEM_XLOGP3_AA>
2.5

> <PUBCHEM_EXACT_MASS>
352.005869

> <PUBCHEM_MOLECULAR_FORMULA>
C14H13BrN2O4

> <PUBCHEM_MOLECULAR_WEIGHT>
353.16802

> <PUBCHEM_OPENEYE_CAN_SMILES>
COC1=CC=C(C=C1)NC(=O)CNC(=O)C2=CC=C(O2)Br

> <PUBCHEM_OPENEYE_ISO_SMILES>
COC1=CC=C(C=C1)NC(=O)CNC(=O)C2=CC=C(O2)Br

> <PUBCHEM_CACTVS_TPSA>
80.6

> <PUBCHEM_MONOISOTOPIC_WEIGHT>
352.005869

> <PUBCHEM_TOTAL_CHARGE>
0

> <PUBCHEM_HEAVY_ATOM_COUNT>
21

> <PUBCHEM_ATOM_DEF_STEREO_COUNT>
0

> <PUBCHEM_ATOM_UDEF_STEREO_COUNT>
0

> <PUBCHEM_BOND_DEF_STEREO_COUNT>
0

> <PUBCHEM_BOND_UDEF_STEREO_COUNT>
0

> <PUBCHEM_ISOTOPIC_ATOM_COUNT>
0

> <PUBCHEM_COMPONENT_COUNT>
1

> <PUBCHEM_CACTVS_TAUTO_COUNT>
6

> <PUBCHEM_COORDINATE_TYPE>
1
5
255

> <PUBCHEM_BONDANNOTATIONS>
11  14  8
12  15  8
13  14  8
13  15  8
17  18  8
18  19  8
19  20  8
2  17  8
2  20  8
8  11  8
8  12  8

$$$$

