6611
  -OEChem-06261201252D

 34 34  0     1  0  0  0  0  0999 V2000
    2.8660    1.5000    0.0000 O   0  0  0  0  0  0  0  0  0  0  0  0
    6.3301    0.5000    0.0000 C   0  0  0  0  0  0  0  0  0  0  0  0
    7.1962   -0.0000    0.0000 C   0  0  1  0  0  0  0  0  0  0  0  0
    7.1962   -1.0000    0.0000 C   0  0  0  0  0  0  0  0  0  0  0  0
    5.4641   -0.0000    0.0000 C   0  0  0  0  0  0  0  0  0  0  0  0
    6.3301   -1.5000    0.0000 C   0  0  0  0  0  0  0  0  0  0  0  0
    6.8301    1.3660    0.0000 C   0  0  0  0  0  0  0  0  0  0  0  0
    5.8301    1.3660    0.0000 C   0  0  0  0  0  0  0  0  0  0  0  0
    8.0622    0.5000    0.0000 C   0  0  0  0  0  0  0  0  0  0  0  0
    5.4641   -1.0000    0.0000 C   0  0  0  0  0  0  0  0  0  0  0  0
    4.5981    0.5000    0.0000 C   0  0  0  0  0  0  0  0  0  0  0  0
    3.7321    0.0000    0.0000 C   0  0  0  0  0  0  0  0  0  0  0  0
    2.8660    0.5000    0.0000 C   0  0  0  0  0  0  0  0  0  0  0  0
    2.0000    0.0000    0.0000 C   0  0  0  0  0  0  0  0  0  0  0  0
    7.7331   -0.3100    0.0000 H   0  0  0  0  0  0  0  0  0  0  0  0
    7.4082   -1.5826    0.0000 H   0  0  0  0  0  0  0  0  0  0  0  0
    7.8067   -0.8923    0.0000 H   0  0  0  0  0  0  0  0  0  0  0  0
    5.9316   -1.9749    0.0000 H   0  0  0  0  0  0  0  0  0  0  0  0
    6.7287   -1.9749    0.0000 H   0  0  0  0  0  0  0  0  0  0  0  0
    6.2932    1.6760    0.0000 H   0  0  0  0  0  0  0  0  0  0  0  0
    7.1401    1.9030    0.0000 H   0  0  0  0  0  0  0  0  0  0  0  0
    7.3671    1.0560    0.0000 H   0  0  0  0  0  0  0  0  0  0  0  0
    5.2932    1.0560    0.0000 H   0  0  0  0  0  0  0  0  0  0  0  0
    5.5201    1.9030    0.0000 H   0  0  0  0  0  0  0  0  0  0  0  0
    6.3671    1.6760    0.0000 H   0  0  0  0  0  0  0  0  0  0  0  0
    8.3722   -0.0369    0.0000 H   0  0  0  0  0  0  0  0  0  0  0  0
    8.5991    0.8100    0.0000 H   0  0  0  0  0  0  0  0  0  0  0  0
    7.7522    1.0369    0.0000 H   0  0  0  0  0  0  0  0  0  0  0  0
    4.9272   -1.3100    0.0000 H   0  0  0  0  0  0  0  0  0  0  0  0
    4.5981    1.1200    0.0000 H   0  0  0  0  0  0  0  0  0  0  0  0
    3.7321   -0.6200    0.0000 H   0  0  0  0  0  0  0  0  0  0  0  0
    1.6900    0.5369    0.0000 H   0  0  0  0  0  0  0  0  0  0  0  0
    1.4631   -0.3100    0.0000 H   0  0  0  0  0  0  0  0  0  0  0  0
    2.3100   -0.5369    0.0000 H   0  0  0  0  0  0  0  0  0  0  0  0
  1 13  2  0  0  0  0
  2  3  1  0  0  0  0
  2  5  1  0  0  0  0
  2  7  1  0  0  0  0
  2  8  1  0  0  0  0
  3  4  1  0  0  0  0
  3  9  1  6  0  0  0
  3 15  1  0  0  0  0
  4  6  1  0  0  0  0
  4 16  1  0  0  0  0
  4 17  1  0  0  0  0
  5 10  2  0  0  0  0
  5 11  1  0  0  0  0
  6 10  1  0  0  0  0
  6 18  1  0  0  0  0
  6 19  1  0  0  0  0
  7 20  1  0  0  0  0
  7 21  1  0  0  0  0
  7 22  1  0  0  0  0
  8 23  1  0  0  0  0
  8 24  1  0  0  0  0
  8 25  1  0  0  0  0
  9 26  1  0  0  0  0
  9 27  1  0  0  0  0
  9 28  1  0  0  0  0
 10 29  1  0  0  0  0
 11 12  2  3  0  0  0
 11 30  1  0  0  0  0
 12 13  1  0  0  0  0
 12 31  1  0  0  0  0
 13 14  1  0  0  0  0
 14 32  1  0  0  0  0
 14 33  1  0  0  0  0
 14 34  1  0  0  0  0
M  END
> <PUBCHEM_COMPOUND_CID>
6611

> <PUBCHEM_COMPOUND_CANONICALIZED>
1

> <PUBCHEM_CACTVS_COMPLEXITY>
282

> <PUBCHEM_CACTVS_HBOND_ACCEPTOR>
1

> <PUBCHEM_CACTVS_HBOND_DONOR>
0

> <PUBCHEM_CACTVS_ROTATABLE_BOND>
2

> <PUBCHEM_CACTVS_SUBSKEYS>
AAADceBwIAAAAAAAAAAAAAAAAAAAAAAAAAAgAAAAAAAAAAAAAAAAGgAAAAAADwSAgAACAAAAAACIAqBSAAAAAAAgAAAICAAAAEgIAAIAAQAAAAAAgAAIgYMAgAAPgAAAAAAAAAAAAAAAAAAAAAAAAAAAAA==

> <PUBCHEM_IUPAC_OPENEYE_NAME>
4-[(5R)-5,6,6-trimethylcyclohexen-1-yl]but-3-en-2-one

> <PUBCHEM_IUPAC_CAS_NAME>
4-[(5R)-5,6,6-trimethyl-1-cyclohexenyl]-3-buten-2-one

> <PUBCHEM_IUPAC_NAME>
4-[(5R)-5,6,6-trimethylcyclohexen-1-yl]but-3-en-2-one

> <PUBCHEM_IUPAC_SYSTEMATIC_NAME>
4-[(5R)-5,6,6-trimethylcyclohexen-1-yl]but-3-en-2-one

> <PUBCHEM_IUPAC_TRADITIONAL_NAME>
4-[(5R)-5,6,6-trimethylcyclohexen-1-yl]but-3-en-2-one

> <PUBCHEM_IUPAC_INCHI>
InChI=1S/C13H20O/c1-10-6-5-7-12(13(10,3)4)9-8-11(2)14/h7-10H,5-6H2,1-4H3/t10-/m1/s1

> <PUBCHEM_IUPAC_INCHIKEY>
LGNGQZVFJGUASS-SNVBAGLBSA-N

> <PUBCHEM_XLOGP3_AA>
3.3

> <PUBCHEM_EXACT_MASS>
192.151415

> <PUBCHEM_MOLECULAR_FORMULA>
C13H20O

> <PUBCHEM_MOLECULAR_WEIGHT>
192.2973

> <PUBCHEM_OPENEYE_CAN_SMILES>
CC1CCC=C(C1(C)C)C=CC(=O)C

> <PUBCHEM_OPENEYE_ISO_SMILES>
C[C@@H]1CCC=C(C1(C)C)C=CC(=O)C

> <PUBCHEM_CACTVS_TPSA>
17.1

> <PUBCHEM_MONOISOTOPIC_WEIGHT>
192.151415

> <PUBCHEM_TOTAL_CHARGE>
0

> <PUBCHEM_HEAVY_ATOM_COUNT>
14

> <PUBCHEM_ATOM_DEF_STEREO_COUNT>
1

> <PUBCHEM_ATOM_UDEF_STEREO_COUNT>
0

> <PUBCHEM_BOND_DEF_STEREO_COUNT>
0

> <PUBCHEM_BOND_UDEF_STEREO_COUNT>
1

> <PUBCHEM_ISOTOPIC_ATOM_COUNT>
0

> <PUBCHEM_COMPONENT_COUNT>
1

> <PUBCHEM_CACTVS_TAUTO_COUNT>
2

> <PUBCHEM_COORDINATE_TYPE>
1
5
255

> <PUBCHEM_BONDANNOTATIONS>
11  12  1
3  9  6

$$$$

