442463
  -OEChem-07051212582D

 25 26  0     1  0  0  0  0  0999 V2000
    3.4709    2.5179    0.0000 O   0  0  0  0  0  0  0  0  0  0  0  0
    6.2806   -0.5378    0.0000 C   0  0  0  0  0  0  0  0  0  0  0  0
    4.7075    0.6693    0.0000 C   0  0  3  0  0  0  0  0  0  0  0  0
    4.4487   -0.2966    0.0000 C   0  0  3  0  0  0  0  0  0  0  0  0
    3.9709    1.6519    0.0000 C   0  0  0  0  0  0  0  0  0  0  0  0
    2.1045   -0.1385    0.0000 C   0  0  0  0  0  0  0  0  0  0  0  0
    2.9136   -1.5398    0.0000 C   0  0  0  0  0  0  0  0  0  0  0  0
    6.7806   -1.4038    0.0000 C   0  0  0  0  0  0  0  0  0  0  0  0
    7.1467   -0.0378    0.0000 C   0  0  0  0  0  0  0  0  0  0  0  0
    2.0000   -1.1330    0.0000 C   0  0  0  0  0  0  0  0  0  0  0  0
    3.1215   -2.5179    0.0000 C   0  0  0  0  0  0  0  0  0  0  0  0
    5.3119    1.2670    0.0000 H   0  0  0  0  0  0  0  0  0  0  0  0
    4.6794   -1.1147    0.0000 H   0  0  0  0  0  0  0  0  0  0  0  0
    2.0023    0.4730    0.0000 H   0  0  0  0  0  0  0  0  0  0  0  0
    1.4848   -0.1574    0.0000 H   0  0  0  0  0  0  0  0  0  0  0  0
    6.2437   -1.7138    0.0000 H   0  0  0  0  0  0  0  0  0  0  0  0
    7.4567   -0.5748    0.0000 H   0  0  0  0  0  0  0  0  0  0  0  0
    7.6836    0.2722    0.0000 H   0  0  0  0  0  0  0  0  0  0  0  0
    6.8367    0.4991    0.0000 H   0  0  0  0  0  0  0  0  0  0  0  0
    7.0906   -1.9408    0.0000 H   0  0  0  0  0  0  0  0  0  0  0  0
    7.3176   -1.0938    0.0000 H   0  0  0  0  0  0  0  0  0  0  0  0
    1.4631   -1.4430    0.0000 H   0  0  0  0  0  0  0  0  0  0  0  0
    2.5150   -2.6468    0.0000 H   0  0  0  0  0  0  0  0  0  0  0  0
    3.2504   -3.1244    0.0000 H   0  0  0  0  0  0  0  0  0  0  0  0
    3.7279   -2.3890    0.0000 H   0  0  0  0  0  0  0  0  0  0  0  0
  1  5  2  0  0  0  0
  2  3  1  0  0  0  0
  2  4  1  0  0  0  0
  2  8  1  0  0  0  0
  2  9  1  0  0  0  0
  3  5  1  0  0  0  0
  3  6  1  0  0  0  0
  3 12  1  0  0  0  0
  4  5  1  0  0  0  0
  4  7  1  0  0  0  0
  4 13  1  0  0  0  0
  6 10  1  0  0  0  0
  6 14  1  0  0  0  0
  6 15  1  0  0  0  0
  7 10  2  0  0  0  0
  7 11  1  0  0  0  0
  8 16  1  0  0  0  0
  8 20  1  0  0  0  0
  8 21  1  0  0  0  0
  9 17  1  0  0  0  0
  9 18  1  0  0  0  0
  9 19  1  0  0  0  0
 10 22  1  0  0  0  0
 11 23  1  0  0  0  0
 11 24  1  0  0  0  0
 11 25  1  0  0  0  0
M  END
> <PUBCHEM_COMPOUND_CID>
442463

> <PUBCHEM_COMPOUND_CANONICALIZED>
1

> <PUBCHEM_CACTVS_COMPLEXITY>
248

> <PUBCHEM_CACTVS_HBOND_ACCEPTOR>
1

> <PUBCHEM_CACTVS_HBOND_DONOR>
0

> <PUBCHEM_CACTVS_ROTATABLE_BOND>
0

> <PUBCHEM_CACTVS_SUBSKEYS>
AAADccBwIAAAAAAAAAAAAAAAAABgAAAAAAAgQAAAAAAAAAAAAAAAGgAAAAAADwSAgAACAAAAAACIAqBSAAAAAAAgAAAACAEAAAgAABIAAQAAAAAAgAAIAAMIiEAPgAAAAAAAAAAAAAAAAAAAAAAAAAAAAA==

> <PUBCHEM_IUPAC_OPENEYE_NAME>
4,6,6-trimethylbicyclo[3.1.1]hept-3-en-7-one

> <PUBCHEM_IUPAC_CAS_NAME>
4,6,6-trimethyl-7-bicyclo[3.1.1]hept-3-enone

> <PUBCHEM_IUPAC_NAME>
4,6,6-trimethylbicyclo[3.1.1]hept-3-en-7-one

> <PUBCHEM_IUPAC_SYSTEMATIC_NAME>
4,6,6-trimethylbicyclo[3.1.1]hept-3-en-7-one

> <PUBCHEM_IUPAC_TRADITIONAL_NAME>
4,6,6-trimethylbicyclo[3.1.1]hept-3-en-7-one

> <PUBCHEM_IUPAC_INCHI>
InChI=1S/C10H14O/c1-6-4-5-7-9(11)8(6)10(7,2)3/h4,7-8H,5H2,1-3H3

> <PUBCHEM_IUPAC_INCHIKEY>
IECBDTGWSQNQID-UHFFFAOYSA-N

> <PUBCHEM_XLOGP3_AA>
1.7

> <PUBCHEM_EXACT_MASS>
150.104465

> <PUBCHEM_MOLECULAR_FORMULA>
C10H14O

> <PUBCHEM_MOLECULAR_WEIGHT>
150.21756

> <PUBCHEM_OPENEYE_CAN_SMILES>
CC1=CCC2C(=O)C1C2(C)C

> <PUBCHEM_OPENEYE_ISO_SMILES>
CC1=CCC2C(=O)C1C2(C)C

> <PUBCHEM_CACTVS_TPSA>
17.1

> <PUBCHEM_MONOISOTOPIC_WEIGHT>
150.104465

> <PUBCHEM_TOTAL_CHARGE>
0

> <PUBCHEM_HEAVY_ATOM_COUNT>
11

> <PUBCHEM_ATOM_DEF_STEREO_COUNT>
0

> <PUBCHEM_ATOM_UDEF_STEREO_COUNT>
2

> <PUBCHEM_BOND_DEF_STEREO_COUNT>
0

> <PUBCHEM_BOND_UDEF_STEREO_COUNT>
0

> <PUBCHEM_ISOTOPIC_ATOM_COUNT>
0

> <PUBCHEM_COMPONENT_COUNT>
1

> <PUBCHEM_CACTVS_TAUTO_COUNT>
1

> <PUBCHEM_COORDINATE_TYPE>
1
5
255

> <PUBCHEM_BONDANNOTATIONS>
3  12  3
4  13  3

$$$$

