   Melting Point
        188-190 deg C
   from [1]HSDB

   Solubilities
        Sol in water, ethanol, methanol.
   from [2]HSDB

   Spectral Properties
        Specific optical rotation for D (sodium) line = -141.0 deg (c=0.9
   in ethanol).
   from [3]HSDB

   Other Chemical/Physical Properties

     * Crystals from 3-pentanone + methanol (10:1)
     * Mol wt 396.44. mp 270-272 deg C. Specific optical rotation for D
       (sodium) line = -200.5 deg C (c=1 in 3 percent aqueous NH4OH)
       /Diacid/
     * Molecular weight: 424.49 /Benazepril/
     * Melting point: 148-149 deg C /Benazepril/
     * Specific optical rotation for D (sodium) line = -159 deg (c=1.2 in
       ethanol). /Benazepril/

   from [4]HSDB

   Computed Properties
   Molecular Weight                  460.95046 [g/mol]
   Molecular Formula                 C[24]H[29]ClN[2]O[5]
   H-Bond Donor                      3
   H-Bond Acceptor                   6
   Rotatable Bond Count              10
   Tautomer Count                    2
   Exact Mass                        460.1765
   MonoIsotopic Mass                 460.1765
   Topological Polar Surface Area    95.9
   Heavy Atom Count                  32
   Formal Charge                     0
   Complexity                        619
   Isotope Atom Count                0
   Defined Atom Stereocenter Count   2
   Undefined Atom Stereocenter Count 0
   Defined Bond Stereocenter Count   0
   Undefined Bond Stereocenter Count 0
   Covalently-Bonded Unit Count      2

References

   1. http://toxnet.nlm.nih.gov/cgi-bin/sis/search/r?dbs+hsdb:@term+@rn+@rel+86541-74-4
   2. http://toxnet.nlm.nih.gov/cgi-bin/sis/search/r?dbs+hsdb:@term+@rn+@rel+86541-74-4
   3. http://toxnet.nlm.nih.gov/cgi-bin/sis/search/r?dbs+hsdb:@term+@rn+@rel+86541-74-4
   4. http://toxnet.nlm.nih.gov/cgi-bin/sis/search/r?dbs+hsdb:@term+@rn+@rel+86541-74-4
