5281507
  -OEChem-07051212572D

 57 59  0     1  0  0  0  0  0999 V2000
    2.3660    2.3956    0.0000 O   0  0  0  0  0  0  0  0  0  0  0  0
    4.5981    1.5296    0.0000 O   0  0  0  0  0  0  0  0  0  0  0  0
    7.9332    1.6966    0.0000 O   0  0  0  0  0  0  0  0  0  0  0  0
    3.7320    0.0296    0.0000 O   0  0  0  0  0  0  0  0  0  0  0  0
    8.9282   -1.9704    0.0000 O   0  0  0  0  0  0  0  0  0  0  0  0
    8.0280    3.4704    0.0000 O   0  0  0  0  0  0  0  0  0  0  0  0
    8.0622   -3.4704    0.0000 O   0  0  0  0  0  0  0  0  0  0  0  0
    2.8660    1.5296    0.0000 C   0  0  2  0  0  0  0  0  0  0  0  0
    3.3660    2.3956    0.0000 C   0  0  1  0  0  0  0  0  0  0  0  0
    6.3301    1.5296    0.0000 C   0  0  2  0  0  0  0  0  0  0  0  0
    5.4641    1.0296    0.0000 C   0  0  1  0  0  0  0  0  0  0  0  0
    7.1962    1.0296    0.0000 C   0  0  2  0  0  0  0  0  0  0  0  0
    3.7320    1.0296    0.0000 C   0  0  0  0  0  0  0  0  0  0  0  0
    2.0000    1.0296    0.0000 C   0  0  0  0  0  0  0  0  0  0  0  0
    5.4641    0.0296    0.0000 C   0  0  0  0  0  0  0  0  0  0  0  0
    4.2320    2.8956    0.0000 C   0  0  0  0  0  0  0  0  0  0  0  0
    6.5393    2.5014    0.0000 C   0  0  0  0  0  0  0  0  0  0  0  0
    7.1962    0.0296    0.0000 C   0  0  0  0  0  0  0  0  0  0  0  0
    6.3301   -0.4704    0.0000 C   0  0  0  0  0  0  0  0  0  0  0  0
    7.5280    2.6044    0.0000 C   0  0  0  0  0  0  0  0  0  0  0  0
    8.0622   -0.4704    0.0000 C   0  0  0  0  0  0  0  0  0  0  0  0
    8.0622   -1.4704    0.0000 C   0  0  2  0  0  0  0  0  0  0  0  0
    7.1962   -1.9704    0.0000 C   0  0  0  0  0  0  0  0  0  0  0  0
    6.3301   -1.4704    0.0000 C   0  0  0  0  0  0  0  0  0  0  0  0
    5.8715    3.2457    0.0000 C   0  0  0  0  0  0  0  0  0  0  0  0
    7.5175    0.5259    0.0000 C   0  0  0  0  0  0  0  0  0  0  0  0
    8.9282    0.0296    0.0000 C   0  0  0  0  0  0  0  0  0  0  0  0
    8.9282   -2.9704    0.0000 C   0  0  0  0  0  0  0  0  0  0  0  0
    9.7942   -3.4704    0.0000 C   0  0  0  0  0  0  0  0  0  0  0  0
    3.2056    2.9944    0.0000 H   0  0  0  0  0  0  0  0  0  0  0  0
    5.6431    2.0301    0.0000 H   0  0  0  0  0  0  0  0  0  0  0  0
    5.4641    1.6496    0.0000 H   0  0  0  0  0  0  0  0  0  0  0  0
    7.9731    0.6848    0.0000 H   0  0  0  0  0  0  0  0  0  0  0  0
    1.6900    1.5665    0.0000 H   0  0  0  0  0  0  0  0  0  0  0  0
    1.4631    0.7196    0.0000 H   0  0  0  0  0  0  0  0  0  0  0  0
    2.3100    0.4926    0.0000 H   0  0  0  0  0  0  0  0  0  0  0  0
    4.8535    0.1372    0.0000 H   0  0  0  0  0  0  0  0  0  0  0  0
    5.2520   -0.5531    0.0000 H   0  0  0  0  0  0  0  0  0  0  0  0
    4.5420    2.3586    0.0000 H   0  0  0  0  0  0  0  0  0  0  0  0
    4.7690    3.2056    0.0000 H   0  0  0  0  0  0  0  0  0  0  0  0
    3.9220    3.4325    0.0000 H   0  0  0  0  0  0  0  0  0  0  0  0
    6.9841   -0.5531    0.0000 H   0  0  0  0  0  0  0  0  0  0  0  0
    8.0622   -2.0904    0.0000 H   0  0  0  0  0  0  0  0  0  0  0  0
    6.7976   -2.4454    0.0000 H   0  0  0  0  0  0  0  0  0  0  0  0
    7.5947   -2.4454    0.0000 H   0  0  0  0  0  0  0  0  0  0  0  0
    5.7932   -1.7804    0.0000 H   0  0  0  0  0  0  0  0  0  0  0  0
    6.0641    3.8350    0.0000 H   0  0  0  0  0  0  0  0  0  0  0  0
    5.2648    3.1178    0.0000 H   0  0  0  0  0  0  0  0  0  0  0  0
    7.9160    0.0509    0.0000 H   0  0  0  0  0  0  0  0  0  0  0  0
    7.9924    0.9244    0.0000 H   0  0  0  0  0  0  0  0  0  0  0  0
    7.1190    1.0008    0.0000 H   0  0  0  0  0  0  0  0  0  0  0  0
    9.2382   -0.5074    0.0000 H   0  0  0  0  0  0  0  0  0  0  0  0
    9.4651    0.3396    0.0000 H   0  0  0  0  0  0  0  0  0  0  0  0
    8.6182    0.5665    0.0000 H   0  0  0  0  0  0  0  0  0  0  0  0
    9.4842   -4.0074    0.0000 H   0  0  0  0  0  0  0  0  0  0  0  0
   10.3312   -3.7804    0.0000 H   0  0  0  0  0  0  0  0  0  0  0  0
   10.1042   -2.9335    0.0000 H   0  0  0  0  0  0  0  0  0  0  0  0
  1  8  1  0  0  0  0
  1  9  1  0  0  0  0
 11  2  1  1  0  0  0
  2 13  1  0  0  0  0
  3 12  1  0  0  0  0
  3 20  1  0  0  0  0
  4 13  2  0  0  0  0
 22  5  1  1  0  0  0
  5 28  1  0  0  0  0
  6 20  2  0  0  0  0
  7 28  2  0  0  0  0
  8  9  1  0  0  0  0
  8 13  1  0  0  0  0
  8 14  1  1  0  0  0
  9 16  1  6  0  0  0
  9 30  1  0  0  0  0
 10 11  1  0  0  0  0
 10 12  1  0  0  0  0
 10 17  1  0  0  0  0
 10 31  1  6  0  0  0
 11 15  1  0  0  0  0
 11 32  1  0  0  0  0
 12 18  1  0  0  0  0
 12 33  1  6  0  0  0
 14 34  1  0  0  0  0
 14 35  1  0  0  0  0
 14 36  1  0  0  0  0
 15 19  1  0  0  0  0
 15 37  1  0  0  0  0
 15 38  1  0  0  0  0
 16 39  1  0  0  0  0
 16 40  1  0  0  0  0
 16 41  1  0  0  0  0
 17 20  1  0  0  0  0
 17 25  2  0  0  0  0
 18 21  2  0  0  0  0
 18 42  1  0  0  0  0
 19 24  2  0  0  0  0
 19 26  1  0  0  0  0
 21 22  1  0  0  0  0
 21 27  1  0  0  0  0
 22 23  1  0  0  0  0
 22 43  1  0  0  0  0
 23 24  1  0  0  0  0
 23 44  1  0  0  0  0
 23 45  1  0  0  0  0
 24 46  1  0  0  0  0
 25 47  1  0  0  0  0
 25 48  1  0  0  0  0
 26 49  1  0  0  0  0
 26 50  1  0  0  0  0
 26 51  1  0  0  0  0
 27 52  1  0  0  0  0
 27 53  1  0  0  0  0
 27 54  1  0  0  0  0
 28 29  1  0  0  0  0
 29 55  1  0  0  0  0
 29 56  1  0  0  0  0
 29 57  1  0  0  0  0
M  END
> <PUBCHEM_COMPOUND_CID>
5281507

> <PUBCHEM_COMPOUND_CANONICALIZED>
1

> <PUBCHEM_CACTVS_COMPLEXITY>
808

> <PUBCHEM_CACTVS_HBOND_ACCEPTOR>
7

> <PUBCHEM_CACTVS_HBOND_DONOR>
0

> <PUBCHEM_CACTVS_ROTATABLE_BOND>
5

> <PUBCHEM_CACTVS_SUBSKEYS>
AAADceB4OAAAAAAAAAAAAAAAEgAAASAAAAAAAAAAAAAAAACAAAAAGgAAAAAADVSggAICCAAABACIAiDSCAIAAAAgAAAACAFAAEgBBBYAIQQCEAAF4AAKIIPKyCCOAAAAAAAAAAAAAAAAAAAAAAAAAAAAAA==

> <PUBCHEM_IUPAC_OPENEYE_NAME>
[(3aR,4R,6E,9S,10E,11aS)-9-acetoxy-6,10-dimethyl-3-methylene-2-oxo-3a,4,5,8,9,11a-hexahydrocyclodeca[b]furan-4-yl] (2R,3R)-2,3-dimethyloxirane-2-carboxylate

> <PUBCHEM_IUPAC_CAS_NAME>
(2R,3R)-2,3-dimethyl-2-oxiranecarboxylic acid [(3aR,4R,6E,9S,10E,11aS)-9-acetyloxy-6,10-dimethyl-3-methylene-2-oxo-3a,4,5,8,9,11a-hexahydrocyclodeca[b]furan-4-yl] ester

> <PUBCHEM_IUPAC_NAME>
[(3aR,4R,6E,9S,10E,11aS)-9-acetyloxy-6,10-dimethyl-3-methylidene-2-oxo-3a,4,5,8,9,11a-hexahydrocyclodeca[b]furan-4-yl] (2R,3R)-2,3-dimethyloxirane-2-carboxylate

> <PUBCHEM_IUPAC_SYSTEMATIC_NAME>
[(3aR,4R,6E,9S,10E,11aS)-9-acetyloxy-6,10-dimethyl-3-methylidene-2-oxidanylidene-3a,4,5,8,9,11a-hexahydrocyclodeca[b]furan-4-yl] (2R,3R)-2,3-dimethyloxirane-2-carboxylate

> <PUBCHEM_IUPAC_TRADITIONAL_NAME>
(2R,3R)-2,3-dimethyloxirane-2-carboxylic acid [(3aR,4R,6E,9S,10E,11aS)-9-acetoxy-2-keto-6,10-dimethyl-3-methylene-3a,4,5,8,9,11a-hexahydrocyclodeca[b]furan-4-yl] ester

> <PUBCHEM_IUPAC_INCHI>
InChI=1S/C22H28O7/c1-11-7-8-16(26-15(5)23)12(2)10-18-19(13(3)20(24)27-18)17(9-11)28-21(25)22(6)14(4)29-22/h7,10,14,16-19H,3,8-9H2,1-2,4-6H3/b11-7+,12-10+/t14-,16+,17-,18+,19-,22-/m1/s1

> <PUBCHEM_IUPAC_INCHIKEY>
XBYFQUZGOAYUQG-RNDOSCADSA-N

> <PUBCHEM_XLOGP3_AA>
2.2

> <PUBCHEM_EXACT_MASS>
404.183503

> <PUBCHEM_MOLECULAR_FORMULA>
C22H28O7

> <PUBCHEM_MOLECULAR_WEIGHT>
404.45352

> <PUBCHEM_OPENEYE_CAN_SMILES>
CC1C(O1)(C)C(=O)OC2CC(=CCC(C(=CC3C2C(=C)C(=O)O3)C)OC(=O)C)C

> <PUBCHEM_OPENEYE_ISO_SMILES>
C[C@@H]1[C@](O1)(C)C(=O)O[C@@H]2C/C(=C/C[C@@H](/C(=C/[C@H]3[C@@H]2C(=C)C(=O)O3)/C)OC(=O)C)/C

> <PUBCHEM_CACTVS_TPSA>
91.4

> <PUBCHEM_MONOISOTOPIC_WEIGHT>
404.183503

> <PUBCHEM_TOTAL_CHARGE>
0

> <PUBCHEM_HEAVY_ATOM_COUNT>
29

> <PUBCHEM_ATOM_DEF_STEREO_COUNT>
6

> <PUBCHEM_ATOM_UDEF_STEREO_COUNT>
0

> <PUBCHEM_BOND_DEF_STEREO_COUNT>
2

> <PUBCHEM_BOND_UDEF_STEREO_COUNT>
0

> <PUBCHEM_ISOTOPIC_ATOM_COUNT>
0

> <PUBCHEM_COMPONENT_COUNT>
1

> <PUBCHEM_CACTVS_TAUTO_COUNT>
1

> <PUBCHEM_COORDINATE_TYPE>
1
5
255

> <PUBCHEM_BONDANNOTATIONS>
10  31  6
12  33  6
11  2  5
22  5  5
8  14  5
9  16  6

$$$$

