5968
  -OEChem-06261201012D

 41 40  0     0  0  0  0  0  0999 V2000
    0.0000    5.7150    0.0000 Br  0  5  0  0  0  0  0  0  0  0  0  0
   10.5991    5.7150    0.0000 Br  0  5  0  0  0  0  0  0  0  0  0  0
    2.0000    0.6200    0.0000 O   0  0  0  0  0  0  0  0  0  0  0  0
    8.0622   11.1200    0.0000 O   0  0  0  0  0  0  0  0  0  0  0  0
    5.4641    3.6200    0.0000 N   0  3  0  0  0  0  0  0  0  0  0  0
    7.1962    6.6200    0.0000 N   0  3  0  0  0  0  0  0  0  0  0  0
    2.8660    1.1200    0.0000 N   0  0  0  0  0  0  0  0  0  0  0  0
    8.0622   10.1200    0.0000 N   0  0  0  0  0  0  0  0  0  0  0  0
    6.3301    5.1200    0.0000 C   0  0  0  0  0  0  0  0  0  0  0  0
    6.3301    4.1200    0.0000 C   0  0  0  0  0  0  0  0  0  0  0  0
    7.1962    5.6200    0.0000 C   0  0  0  0  0  0  0  0  0  0  0  0
    4.5981    4.1200    0.0000 C   0  0  0  0  0  0  0  0  0  0  0  0
    6.3301    7.1200    0.0000 C   0  0  0  0  0  0  0  0  0  0  0  0
    5.4641    2.6200    0.0000 C   0  0  0  0  0  0  0  0  0  0  0  0
    8.0622    7.1200    0.0000 C   0  0  0  0  0  0  0  0  0  0  0  0
    3.7321    3.6200    0.0000 C   0  0  0  0  0  0  0  0  0  0  0  0
    6.3301    8.1200    0.0000 C   0  0  0  0  0  0  0  0  0  0  0  0
    4.5981    2.1200    0.0000 C   0  0  0  0  0  0  0  0  0  0  0  0
    8.0622    8.1200    0.0000 C   0  0  0  0  0  0  0  0  0  0  0  0
    3.7321    2.6200    0.0000 C   0  0  0  0  0  0  0  0  0  0  0  0
    7.1962    8.6200    0.0000 C   0  0  0  0  0  0  0  0  0  0  0  0
    2.8660    2.1200    0.0000 C   0  0  0  0  0  0  0  0  0  0  0  0
    7.1962    9.6200    0.0000 C   0  0  0  0  0  0  0  0  0  0  0  0
    6.1181    5.7026    0.0000 H   0  0  0  0  0  0  0  0  0  0  0  0
    5.7195    5.0123    0.0000 H   0  0  0  0  0  0  0  0  0  0  0  0
    6.5422    3.5374    0.0000 H   0  0  0  0  0  0  0  0  0  0  0  0
    6.9407    4.2277    0.0000 H   0  0  0  0  0  0  0  0  0  0  0  0
    7.4082    5.0374    0.0000 H   0  0  0  0  0  0  0  0  0  0  0  0
    7.8067    5.7277    0.0000 H   0  0  0  0  0  0  0  0  0  0  0  0
    4.5981    4.7400    0.0000 H   0  0  0  0  0  0  0  0  0  0  0  0
    5.7932    6.8100    0.0000 H   0  0  0  0  0  0  0  0  0  0  0  0
    6.0010    2.3100    0.0000 H   0  0  0  0  0  0  0  0  0  0  0  0
    8.5991    6.8100    0.0000 H   0  0  0  0  0  0  0  0  0  0  0  0
    3.1951    3.9300    0.0000 H   0  0  0  0  0  0  0  0  0  0  0  0
    5.7932    8.4300    0.0000 H   0  0  0  0  0  0  0  0  0  0  0  0
    4.5981    1.5000    0.0000 H   0  0  0  0  0  0  0  0  0  0  0  0
    8.5991    8.4300    0.0000 H   0  0  0  0  0  0  0  0  0  0  0  0
    2.3291    2.4300    0.0000 H   0  0  0  0  0  0  0  0  0  0  0  0
    6.6592    9.9300    0.0000 H   0  0  0  0  0  0  0  0  0  0  0  0
    2.0000    0.0000    0.0000 H   0  0  0  0  0  0  0  0  0  0  0  0
    8.5991   11.4300    0.0000 H   0  0  0  0  0  0  0  0  0  0  0  0
  3  7  1  0  0  0  0
  3 40  1  0  0  0  0
  4  8  1  0  0  0  0
  4 41  1  0  0  0  0
  5 10  1  0  0  0  0
  5 12  2  0  0  0  0
  5 14  1  0  0  0  0
  6 11  1  0  0  0  0
  6 13  2  0  0  0  0
  6 15  1  0  0  0  0
  7 22  2  3  0  0  0
  8 23  2  3  0  0  0
  9 10  1  0  0  0  0
  9 11  1  0  0  0  0
  9 24  1  0  0  0  0
  9 25  1  0  0  0  0
 10 26  1  0  0  0  0
 10 27  1  0  0  0  0
 11 28  1  0  0  0  0
 11 29  1  0  0  0  0
 12 16  1  0  0  0  0
 12 30  1  0  0  0  0
 13 17  1  0  0  0  0
 13 31  1  0  0  0  0
 14 18  2  0  0  0  0
 14 32  1  0  0  0  0
 15 19  2  0  0  0  0
 15 33  1  0  0  0  0
 16 20  2  0  0  0  0
 16 34  1  0  0  0  0
 17 21  2  0  0  0  0
 17 35  1  0  0  0  0
 18 20  1  0  0  0  0
 18 36  1  0  0  0  0
 19 21  1  0  0  0  0
 19 37  1  0  0  0  0
 20 22  1  0  0  0  0
 21 23  1  0  0  0  0
 22 38  1  0  0  0  0
 23 39  1  0  0  0  0
M  CHG  4   1  -1   2  -1   5   1   6   1
M  END
> <PUBCHEM_COMPOUND_CID>
5968

> <PUBCHEM_COMPOUND_CANONICALIZED>
1

> <PUBCHEM_CACTVS_COMPLEXITY>
301

> <PUBCHEM_CACTVS_HBOND_ACCEPTOR>
6

> <PUBCHEM_CACTVS_HBOND_DONOR>
2

> <PUBCHEM_CACTVS_ROTATABLE_BOND>
6

> <PUBCHEM_CACTVS_SUBSKEYS>
AAADceBzsAAAGAAAAAAAAAAAAAAAAAAAAAAsWAAAAAAAAAAB4AAAHAAECAAADADBGgQ8gJMcEACgAjBnRACCgCAxAiAI2CA4ZJgIIOLA0ZGEIAhggADIyAYQAAAKAAAAAAAAAAAAAAAAAAAAAAAAAAAAAA==

> <PUBCHEM_IUPAC_OPENEYE_NAME>
1-[3-[4-(hydroxyiminomethyl)pyridin-1-ium-1-yl]propyl]pyridin-1-ium-4-carbaldehyde oxime dibromide

> <PUBCHEM_IUPAC_CAS_NAME>
1-[3-[4-(hydroxyiminomethyl)-1-pyridin-1-iumyl]propyl]-4-pyridin-1-iumcarboxaldehyde oxime dibromide

> <PUBCHEM_IUPAC_NAME>
N-[[1-[3-[4-(hydroxyiminomethyl)pyridin-1-ium-1-yl]propyl]pyridin-1-ium-4-yl]methylidene]hydroxylamine dibromide

> <PUBCHEM_IUPAC_SYSTEMATIC_NAME>
N-[[1-[3-[4-(hydroxyiminomethyl)pyridin-1-ium-1-yl]propyl]pyridin-1-ium-4-yl]methylidene]hydroxylamine dibromide

> <PUBCHEM_IUPAC_TRADITIONAL_NAME>
1-[3-[4-(hydroximinomethyl)pyridin-1-ium-1-yl]propyl]pyridin-1-ium-4-carbaldehyde oxime dibromide

> <PUBCHEM_IUPAC_INCHI>
InChI=1S/C15H16N4O2.2BrH/c20-16-12-14-2-8-18(9-3-14)6-1-7-19-10-4-15(5-11-19)13-17-21;;/h2-5,8-13H,1,6-7H2;2*1H

> <PUBCHEM_IUPAC_INCHIKEY>
JHZHWVQTOXIXIV-UHFFFAOYSA-N

> <PUBCHEM_XLOGP3_AA>
5.702

> <PUBCHEM_EXACT_MASS>
445.977604

> <PUBCHEM_MOLECULAR_FORMULA>
C15H18Br2N4O2

> <PUBCHEM_MOLECULAR_WEIGHT>
446.13702

> <PUBCHEM_OPENEYE_CAN_SMILES>
C1=C[N+](=CC=C1C=NO)CCC[N+]2=CC=C(C=C2)C=NO.[Br-].[Br-]

> <PUBCHEM_OPENEYE_ISO_SMILES>
C1=C[N+](=CC=C1C=NO)CCC[N+]2=CC=C(C=C2)C=NO.[Br-].[Br-]

> <PUBCHEM_CACTVS_TPSA>
72.9

> <PUBCHEM_MONOISOTOPIC_WEIGHT>
443.97965

> <PUBCHEM_TOTAL_CHARGE>
0

> <PUBCHEM_HEAVY_ATOM_COUNT>
23

> <PUBCHEM_ATOM_DEF_STEREO_COUNT>
0

> <PUBCHEM_ATOM_UDEF_STEREO_COUNT>
0

> <PUBCHEM_BOND_DEF_STEREO_COUNT>
0

> <PUBCHEM_BOND_UDEF_STEREO_COUNT>
2

> <PUBCHEM_ISOTOPIC_ATOM_COUNT>
0

> <PUBCHEM_COMPONENT_COUNT>
3

> <PUBCHEM_CACTVS_TAUTO_COUNT>
3

> <PUBCHEM_COORDINATE_TYPE>
1
5
255

> <PUBCHEM_BONDANNOTATIONS>
12  16  8
13  17  8
14  18  8
15  19  8
16  20  8
17  21  8
18  20  8
19  21  8
5  12  8
5  14  8
6  13  8
6  15  8

$$$$

