440536
  -OEChem-07051212502D

 81 85  0     1  0  0  0  0  0999 V2000
   15.7787   -2.6263    0.0000 P   0  0  0  0  0  0  0  0  0  0  0  0
   10.2300    2.1423    0.0000 P   0  0  3  0  0  0  0  0  0  0  0  0
   11.5152    0.9811    0.0000 P   0  0  3  0  0  0  0  0  0  0  0  0
    7.5619    4.4274    0.0000 O   0  0  0  0  0  0  0  0  0  0  0  0
   12.5185   -1.9396    0.0000 O   0  0  0  0  0  0  0  0  0  0  0  0
    5.4434    2.9416    0.0000 O   0  0  0  0  0  0  0  0  0  0  0  0
   14.8645   -3.0315    0.0000 O   0  0  0  0  0  0  0  0  0  0  0  0
    7.3256    1.8506    0.0000 O   0  0  0  0  0  0  0  0  0  0  0  0
   14.8683   -0.8559    0.0000 O   0  0  0  0  0  0  0  0  0  0  0  0
    9.2522    2.3519    0.0000 O   0  0  0  0  0  0  0  0  0  0  0  0
    7.1885    6.2256    0.0000 O   0  0  0  0  0  0  0  0  0  0  0  0
   11.8225    0.0295    0.0000 O   0  0  0  0  0  0  0  0  0  0  0  0
   11.2078    1.9327    0.0000 O   0  0  0  0  0  0  0  0  0  0  0  0
   16.6930   -2.2212    0.0000 O   0  0  0  0  0  0  0  0  0  0  0  0
   16.1839   -3.5406    0.0000 O   0  0  0  0  0  0  0  0  0  0  0  0
   10.4396    3.1201    0.0000 O   0  0  0  0  0  0  0  0  0  0  0  0
   15.3736   -1.7121    0.0000 O   0  0  0  0  0  0  0  0  0  0  0  0
   10.5636    0.6738    0.0000 O   0  0  0  0  0  0  0  0  0  0  0  0
    2.9639    4.4502    0.0000 O   0  0  0  0  0  0  0  0  0  0  0  0
   10.0204    1.1645    0.0000 O   0  0  0  0  0  0  0  0  0  0  0  0
   12.4668    1.2885    0.0000 O   0  0  0  0  0  0  0  0  0  0  0  0
    5.8994    5.0689    0.0000 N   0  0  3  0  0  0  0  0  0  0  0  0
   12.7942   -3.7002    0.0000 N   0  0  0  0  0  0  0  0  0  0  0  0
   12.7942   -5.3097    0.0000 N   0  0  0  0  0  0  0  0  0  0  0  0
   10.9820   -3.5049    0.0000 N   0  0  0  0  0  0  0  0  0  0  0  0
    2.6067    6.1450    0.0000 N   0  0  0  0  0  0  0  0  0  0  0  0
   10.1160   -5.0049    0.0000 N   0  0  0  0  0  0  0  0  0  0  0  0
   10.9820   -6.5049    0.0000 N   0  0  0  0  0  0  0  0  0  0  0  0
    6.5672    4.3246    0.0000 C   0  0  1  0  0  0  0  0  0  0  0  0
    6.3576    3.3468    0.0000 C   0  0  1  0  0  0  0  0  0  0  0  0
    7.2228    2.8453    0.0000 C   0  0  1  0  0  0  0  0  0  0  0  0
    7.9671    3.5131    0.0000 C   0  0  1  0  0  0  0  0  0  0  0  0
   14.0565   -2.4423    0.0000 C   0  0  2  0  0  0  0  0  0  0  0  0
   14.0582   -1.4423    0.0000 C   0  0  1  0  0  0  0  0  0  0  0  0
   13.1049   -2.7497    0.0000 C   0  0  1  0  0  0  0  0  0  0  0  0
   13.1077   -1.1316    0.0000 C   0  0  1  0  0  0  0  0  0  0  0  0
    6.2100    6.0194    0.0000 C   0  0  2  0  0  0  0  0  0  0  0  0
    8.9449    3.3035    0.0000 C   0  0  0  0  0  0  0  0  0  0  0  0
    5.5422    6.7637    0.0000 C   0  0  0  0  0  0  0  0  0  0  0  0
   12.8003   -0.1801    0.0000 C   0  0  0  0  0  0  0  0  0  0  0  0
    4.9209    4.8626    0.0000 C   0  0  0  0  0  0  0  0  0  0  0  0
    4.5637    6.5575    0.0000 C   0  0  0  0  0  0  0  0  0  0  0  0
    4.2530    5.6070    0.0000 C   0  0  0  0  0  0  0  0  0  0  0  0
   11.8480   -4.0049    0.0000 C   0  0  0  0  0  0  0  0  0  0  0  0
   13.3778   -4.5049    0.0000 C   0  0  0  0  0  0  0  0  0  0  0  0
   11.8480   -5.0049    0.0000 C   0  0  0  0  0  0  0  0  0  0  0  0
    3.2745    5.4007    0.0000 C   0  0  0  0  0  0  0  0  0  0  0  0
   10.9820   -5.5049    0.0000 C   0  0  0  0  0  0  0  0  0  0  0  0
   10.1160   -4.0049    0.0000 C   0  0  0  0  0  0  0  0  0  0  0  0
    6.7904    4.9030    0.0000 H   0  0  0  0  0  0  0  0  0  0  0  0
    5.8765    3.7378    0.0000 H   0  0  0  0  0  0  0  0  0  0  0  0
    6.7022    2.5085    0.0000 H   0  0  0  0  0  0  0  0  0  0  0  0
    8.3581    3.9943    0.0000 H   0  0  0  0  0  0  0  0  0  0  0  0
   13.9584   -3.0545    0.0000 H   0  0  0  0  0  0  0  0  0  0  0  0
   14.6102   -1.7247    0.0000 H   0  0  0  0  0  0  0  0  0  0  0  0
   13.5425   -3.1888    0.0000 H   0  0  0  0  0  0  0  0  0  0  0  0
   12.4955   -1.0336    0.0000 H   0  0  0  0  0  0  0  0  0  0  0  0
    6.4027    6.6087    0.0000 H   0  0  0  0  0  0  0  0  0  0  0  0
    9.5590    3.3888    0.0000 H   0  0  0  0  0  0  0  0  0  0  0  0
    8.9676    3.9231    0.0000 H   0  0  0  0  0  0  0  0  0  0  0  0
    6.0686    7.0913    0.0000 H   0  0  0  0  0  0  0  0  0  0  0  0
    5.3109    7.3390    0.0000 H   0  0  0  0  0  0  0  0  0  0  0  0
   13.4144   -0.0948    0.0000 H   0  0  0  0  0  0  0  0  0  0  0  0
   12.8230    0.4395    0.0000 H   0  0  0  0  0  0  0  0  0  0  0  0
    4.7283    4.2733    0.0000 H   0  0  0  0  0  0  0  0  0  0  0  0
    4.5431    7.1771    0.0000 H   0  0  0  0  0  0  0  0  0  0  0  0
    3.9499    6.6448    0.0000 H   0  0  0  0  0  0  0  0  0  0  0  0
    5.3775    2.3251    0.0000 H   0  0  0  0  0  0  0  0  0  0  0  0
    6.8234    1.4870    0.0000 H   0  0  0  0  0  0  0  0  0  0  0  0
   14.8045   -0.2392    0.0000 H   0  0  0  0  0  0  0  0  0  0  0  0
   13.9978   -4.5049    0.0000 H   0  0  0  0  0  0  0  0  0  0  0  0
    7.3812    6.8149    0.0000 H   0  0  0  0  0  0  0  0  0  0  0  0
    2.0000    6.0172    0.0000 H   0  0  0  0  0  0  0  0  0  0  0  0
    2.7993    6.7344    0.0000 H   0  0  0  0  0  0  0  0  0  0  0  0
   17.1939   -2.5865    0.0000 H   0  0  0  0  0  0  0  0  0  0  0  0
   16.8004   -3.6065    0.0000 H   0  0  0  0  0  0  0  0  0  0  0  0
    9.5790   -3.6949    0.0000 H   0  0  0  0  0  0  0  0  0  0  0  0
   11.0296    3.3107    0.0000 H   0  0  0  0  0  0  0  0  0  0  0  0
   10.4336    0.0675    0.0000 H   0  0  0  0  0  0  0  0  0  0  0  0
   10.4451   -6.8149    0.0000 H   0  0  0  0  0  0  0  0  0  0  0  0
   11.5189   -6.8149    0.0000 H   0  0  0  0  0  0  0  0  0  0  0  0
  1  7  1  0  0  0  0
  1 14  1  0  0  0  0
  1 15  1  0  0  0  0
  1 17  2  0  0  0  0
  2 10  1  0  0  0  0
  2 13  1  0  0  0  0
  2 16  1  0  0  0  0
  2 20  2  0  0  0  0
  3 12  1  0  0  0  0
  3 13  1  0  0  0  0
  3 18  1  0  0  0  0
  3 21  2  0  0  0  0
  4 29  1  0  0  0  0
  4 32  1  0  0  0  0
  5 35  1  0  0  0  0
  5 36  1  0  0  0  0
 30  6  1  1  0  0  0
  6 68  1  0  0  0  0
 33  7  1  1  0  0  0
 31  8  1  1  0  0  0
  8 69  1  0  0  0  0
 34  9  1  1  0  0  0
  9 70  1  0  0  0  0
 10 38  1  0  0  0  0
 37 11  1  6  0  0  0
 11 72  1  0  0  0  0
 12 40  1  0  0  0  0
 14 75  1  0  0  0  0
 15 76  1  0  0  0  0
 16 78  1  0  0  0  0
 18 79  1  0  0  0  0
 19 47  2  0  0  0  0
 29 22  1  6  0  0  0
 22 37  1  0  0  0  0
 22 41  1  0  0  0  0
 35 23  1  6  0  0  0
 23 44  1  0  0  0  0
 23 45  1  0  0  0  0
 24 45  2  0  0  0  0
 24 46  1  0  0  0  0
 25 44  2  0  0  0  0
 25 49  1  0  0  0  0
 26 47  1  0  0  0  0
 26 73  1  0  0  0  0
 26 74  1  0  0  0  0
 27 48  1  0  0  0  0
 27 49  2  0  0  0  0
 28 48  1  0  0  0  0
 28 80  1  0  0  0  0
 28 81  1  0  0  0  0
 29 30  1  0  0  0  0
 29 50  1  0  0  0  0
 30 31  1  0  0  0  0
 30 51  1  0  0  0  0
 31 32  1  0  0  0  0
 31 52  1  0  0  0  0
 32 38  1  6  0  0  0
 32 53  1  0  0  0  0
 33 34  1  0  0  0  0
 33 35  1  0  0  0  0
 33 54  1  0  0  0  0
 34 36  1  0  0  0  0
 34 55  1  0  0  0  0
 35 56  1  0  0  0  0
 36 40  1  6  0  0  0
 36 57  1  0  0  0  0
 37 39  1  0  0  0  0
 37 58  1  0  0  0  0
 38 59  1  0  0  0  0
 38 60  1  0  0  0  0
 39 42  1  0  0  0  0
 39 61  1  0  0  0  0
 39 62  1  0  0  0  0
 40 63  1  0  0  0  0
 40 64  1  0  0  0  0
 41 43  2  0  0  0  0
 41 65  1  0  0  0  0
 42 43  1  0  0  0  0
 42 66  1  0  0  0  0
 42 67  1  0  0  0  0
 43 47  1  0  0  0  0
 44 46  1  0  0  0  0
 45 71  1  0  0  0  0
 46 48  2  0  0  0  0
 49 77  1  0  0  0  0
M  END
> <PUBCHEM_COMPOUND_CID>
440536

> <PUBCHEM_COMPOUND_CANONICALIZED>
1

> <PUBCHEM_CACTVS_COMPLEXITY>
1390

> <PUBCHEM_CACTVS_HBOND_ACCEPTOR>
23

> <PUBCHEM_CACTVS_HBOND_DONOR>
10

> <PUBCHEM_CACTVS_ROTATABLE_BOND>
13

> <PUBCHEM_CACTVS_SUBSKEYS>
AAADcfB7vgMAAAAAAAAAAAAAAAAAAWJEgAAsQAAAAAAAAFgB+AAAHgAQCCAADBzhlwYF8L9MFxCoQwd3dICAgC0xEKABUCEoVFiDWBJAyUAeRAgPgALTAOD4NQIAAAAAAAAAAAAAAAAAAAAAAAAAAAAAAA==

> <PUBCHEM_IUPAC_OPENEYE_NAME>
[[(2R,3R,4R,5R)-5-(6-aminopurin-9-yl)-3-hydroxy-4-phosphonooxy-tetrahydrofuran-2-yl]methoxy-hydroxy-phosphoryl] [(2R,3S,4R,5R)-5-[(2S)-5-carbamoyl-2-hydroxy-3,4-dihydro-2H-pyridin-1-yl]-3,4-dihydroxy-tetrahydrofuran-2-yl]methyl hydrogen phosphate

> <PUBCHEM_IUPAC_CAS_NAME>
[[(2R,3R,4R,5R)-5-(6-aminopurin-9-yl)-3-hydroxy-4-phosphonooxy-2-oxolanyl]methoxy-hydroxyphosphoryl] [(2R,3S,4R,5R)-5-[(2S)-5-carbamoyl-2-hydroxy-3,4-dihydro-2H-pyridin-1-yl]-3,4-dihydroxy-2-oxolanyl]methyl hydrogen phosphate

> <PUBCHEM_IUPAC_NAME>
[[(2R,3R,4R,5R)-5-(6-aminopurin-9-yl)-3-hydroxy-4-phosphonooxyoxolan-2-yl]methoxy-hydroxyphosphoryl] [(2R,3S,4R,5R)-5-[(2S)-5-carbamoyl-2-hydroxy-3,4-dihydro-2H-pyridin-1-yl]-3,4-dihydroxyoxolan-2-yl]methyl hydrogen phosphate

> <PUBCHEM_IUPAC_SYSTEMATIC_NAME>
[[(2R,3S,4R,5R)-5-[(2S)-5-aminocarbonyl-2-oxidanyl-3,4-dihydro-2H-pyridin-1-yl]-3,4-bis(oxidanyl)oxolan-2-yl]methoxy-oxidanyl-phosphoryl] [(2R,3R,4R,5R)-5-(6-aminopurin-9-yl)-3-oxidanyl-4-phosphonooxy-oxolan-2-yl]methyl hydrogen phosphate

> <PUBCHEM_IUPAC_TRADITIONAL_NAME>
[[(2R,3R,4R,5R)-5-adenin-9-yl-3-hydroxy-4-phosphonooxy-tetrahydrofuran-2-yl]methoxy-hydroxy-phosphoryl] [(2R,3S,4R,5R)-5-[(2S)-5-carbamoyl-2-hydroxy-3,4-dihydro-2H-pyridin-1-yl]-3,4-dihydroxy-tetrahydrofuran-2-yl]methyl hydrogen phosphate

> <PUBCHEM_IUPAC_INCHI>
InChI=1S/C21H32N7O18P3/c22-17-12-19(25-6-24-17)28(7-26-12)21-16(45-47(34,35)36)14(31)10(44-21)5-42-49(39,40)46-48(37,38)41-4-9-13(30)15(32)20(43-9)27-3-8(18(23)33)1-2-11(27)29/h3,6-7,9-11,13-16,20-21,29-32H,1-2,4-5H2,(H2,23,33)(H,37,38)(H,39,40)(H2,22,24,25)(H2,34,35,36)/t9-,10-,11+,13-,14-,15-,16-,20-,21-/m1/s1

> <PUBCHEM_IUPAC_INCHIKEY>
SZKXTJUOKARGIY-VPHRTNKSSA-N

> <PUBCHEM_XLOGP3_AA>
-7.4

> <PUBCHEM_EXACT_MASS>
763.101667

> <PUBCHEM_MOLECULAR_FORMULA>
C21H32N7O18P3

> <PUBCHEM_MOLECULAR_WEIGHT>
763.436166

> <PUBCHEM_OPENEYE_CAN_SMILES>
C1CC(=CN(C1O)C2C(C(C(O2)COP(=O)(O)OP(=O)(O)OCC3C(C(C(O3)N4C=NC5=C4N=CN=C5N)OP(=O)(O)O)O)O)O)C(=O)N

> <PUBCHEM_OPENEYE_ISO_SMILES>
C1CC(=CN([C@H]1O)[C@H]2[C@@H]([C@@H]([C@H](O2)COP(=O)(O)OP(=O)(O)OC[C@@H]3[C@H]([C@H]([C@@H](O3)N4C=NC5=C4N=CN=C5N)OP(=O)(O)O)O)O)O)C(=O)N

> <PUBCHEM_CACTVS_TPSA>
384

> <PUBCHEM_MONOISOTOPIC_WEIGHT>
763.101667

> <PUBCHEM_TOTAL_CHARGE>
0

> <PUBCHEM_HEAVY_ATOM_COUNT>
49

> <PUBCHEM_ATOM_DEF_STEREO_COUNT>
9

> <PUBCHEM_ATOM_UDEF_STEREO_COUNT>
0

> <PUBCHEM_BOND_DEF_STEREO_COUNT>
0

> <PUBCHEM_BOND_UDEF_STEREO_COUNT>
0

> <PUBCHEM_ISOTOPIC_ATOM_COUNT>
0

> <PUBCHEM_COMPONENT_COUNT>
1

> <PUBCHEM_CACTVS_TAUTO_COUNT>
6

> <PUBCHEM_COORDINATE_TYPE>
1
5
255

> <PUBCHEM_BONDANNOTATIONS>
37  11  6
29  22  6
35  23  6
23  44  8
23  45  8
24  45  8
24  46  8
25  44  8
25  49  8
27  48  8
27  49  8
32  38  6
36  40  6
44  46  8
46  48  8
30  6  5
33  7  5
31  8  5
34  9  5

$$$$

