149086
  -OEChem-07051213082D

102107  0     1  0  0  0  0  0999 V2000
    7.3063   -2.2605    0.0000 S   0  0  0  0  0  0  0  0  0  0  0  0
    6.5644    0.2302    0.0000 S   0  0  0  0  0  0  0  0  0  0  0  0
    9.4787    1.4448    0.0000 O   0  0  0  0  0  0  0  0  0  0  0  0
    4.0845   -1.2987    0.0000 O   0  0  0  0  0  0  0  0  0  0  0  0
   10.7112   -0.5009    0.0000 O   0  0  0  0  0  0  0  0  0  0  0  0
    2.2402    1.2996    0.0000 O   0  0  0  0  0  0  0  0  0  0  0  0
    5.4207   -0.3988    0.0000 O   0  0  0  0  0  0  0  0  0  0  0  0
    6.2524    3.5138    0.0000 O   0  0  0  0  0  0  0  0  0  0  0  0
    9.2250    0.8373    0.0000 N   0  0  0  0  0  0  0  0  0  0  0  0
    7.9466    3.1537    0.0000 N   0  0  0  0  0  0  0  0  0  0  0  0
    5.0049   -2.3550    0.0000 N   0  0  0  0  0  0  0  0  0  0  0  0
    2.4664   -1.2987    0.0000 N   0  0  0  0  0  0  0  0  0  0  0  0
    9.5523   -1.7881    0.0000 N   0  0  0  0  0  0  0  0  0  0  0  0
    3.9344    0.9395    0.0000 N   0  0  0  0  0  0  0  0  0  0  0  0
    6.9070   -1.7370    0.0000 N   0  0  0  0  0  0  0  0  0  0  0  0
    5.8365    1.5575    0.0000 N   0  0  0  0  0  0  0  0  0  0  0  0
    8.6897    2.4846    0.0000 C   0  0  1  0  0  0  0  0  0  0  0  0
    9.2915    3.2832    0.0000 C   0  0  2  0  0  0  0  0  0  0  0  0
    4.0186   -2.5556    0.0000 C   0  0  1  0  0  0  0  0  0  0  0  0
    3.5093   -3.4162    0.0000 C   0  0  2  0  0  0  0  0  0  0  0  0
    9.0170   -0.1408    0.0000 C   0  0  1  0  0  0  0  0  0  0  0  0
    9.7873    0.4950    0.0000 C   0  0  1  0  0  0  0  0  0  0  0  0
    8.4818    1.5064    0.0000 C   0  0  0  0  0  0  0  0  0  0  0  0
    3.2755   -1.8865    0.0000 C   0  0  0  0  0  0  0  0  0  0  0  0
    2.7755   -0.3477    0.0000 C   0  0  1  0  0  0  0  0  0  0  0  0
    3.7755   -0.3477    0.0000 C   0  0  1  0  0  0  0  0  0  0  0  0
    8.9008    4.2037    0.0000 C   0  0  0  0  0  0  0  0  0  0  0  0
    2.5093   -3.4054    0.0000 C   0  0  0  0  0  0  0  0  0  0  0  0
   10.2841    3.1614    0.0000 C   0  0  0  0  0  0  0  0  0  0  0  0
    3.9999   -4.2876    0.0000 C   0  0  0  0  0  0  0  0  0  0  0  0
    9.7602   -0.8100    0.0000 C   0  0  0  0  0  0  0  0  0  0  0  0
   10.7474    0.2154    0.0000 C   0  0  0  0  0  0  0  0  0  0  0  0
    8.6012   -2.0971    0.0000 C   0  0  2  0  0  0  0  0  0  0  0  0
    2.9834    0.6305    0.0000 C   0  0  0  0  0  0  0  0  0  0  0  0
    4.2796    0.6860    0.0000 C   0  0  0  0  0  0  0  0  0  0  0  0
    9.5026    5.0024    0.0000 C   0  0  0  0  0  0  0  0  0  0  0  0
    2.0000   -4.2660    0.0000 C   0  0  0  0  0  0  0  0  0  0  0  0
    5.2128   -1.3769    0.0000 C   0  0  0  0  0  0  0  0  0  0  0  0
    6.9955    2.8447    0.0000 C   0  0  0  0  0  0  0  0  0  0  0  0
    8.6535   -3.0958    0.0000 C   0  0  0  0  0  0  0  0  0  0  0  0
    4.6776    0.2704    0.0000 C   0  0  1  0  0  0  0  0  0  0  0  0
    7.8581   -1.4280    0.0000 C   0  0  0  0  0  0  0  0  0  0  0  0
    6.1639   -1.0679    0.0000 C   0  0  0  0  0  0  0  0  0  0  0  0
    6.7876    1.8666    0.0000 C   0  0  0  0  0  0  0  0  0  0  0  0
    5.6286    0.5794    0.0000 C   0  0  0  0  0  0  0  0  0  0  0  0
    9.5445   -3.5498    0.0000 C   0  0  0  0  0  0  0  0  0  0  0  0
    4.7299   -0.7283    0.0000 C   0  0  0  0  0  0  0  0  0  0  0  0
    6.3293   -2.0528    0.0000 C   0  0  0  0  0  0  0  0  0  0  0  0
    7.2327    0.9724    0.0000 C   0  0  0  0  0  0  0  0  0  0  0  0
    9.5969   -4.5484    0.0000 C   0  0  0  0  0  0  0  0  0  0  0  0
   10.3832   -3.0051    0.0000 C   0  0  0  0  0  0  0  0  0  0  0  0
   10.4879   -5.0024    0.0000 C   0  0  0  0  0  0  0  0  0  0  0  0
   11.2742   -3.4591    0.0000 C   0  0  0  0  0  0  0  0  0  0  0  0
   11.3266   -4.4577    0.0000 C   0  0  0  0  0  0  0  0  0  0  0  0
    9.5386    2.5291    0.0000 H   0  0  0  0  0  0  0  0  0  0  0  0
    9.5338    2.7125    0.0000 H   0  0  0  0  0  0  0  0  0  0  0  0
    4.4357   -3.2962    0.0000 H   0  0  0  0  0  0  0  0  0  0  0  0
    3.1935   -3.9498    0.0000 H   0  0  0  0  0  0  0  0  0  0  0  0
    8.2086   -0.4035    0.0000 H   0  0  0  0  0  0  0  0  0  0  0  0
   10.2189    0.9401    0.0000 H   0  0  0  0  0  0  0  0  0  0  0  0
    1.9544   -0.1277    0.0000 H   0  0  0  0  0  0  0  0  0  0  0  0
    4.3940   -0.3909    0.0000 H   0  0  0  0  0  0  0  0  0  0  0  0
    8.4780    4.6572    0.0000 H   0  0  0  0  0  0  0  0  0  0  0  0
    8.3808    3.8661    0.0000 H   0  0  0  0  0  0  0  0  0  0  0  0
    2.6236   -2.7960    0.0000 H   0  0  0  0  0  0  0  0  0  0  0  0
    1.9290   -3.1870    0.0000 H   0  0  0  0  0  0  0  0  0  0  0  0
   10.2085    2.5460    0.0000 H   0  0  0  0  0  0  0  0  0  0  0  0
   10.8995    3.0858    0.0000 H   0  0  0  0  0  0  0  0  0  0  0  0
   10.3596    3.7767    0.0000 H   0  0  0  0  0  0  0  0  0  0  0  0
    3.4596   -4.5918    0.0000 H   0  0  0  0  0  0  0  0  0  0  0  0
    4.3041   -4.8278    0.0000 H   0  0  0  0  0  0  0  0  0  0  0  0
    4.5401   -3.9834    0.0000 H   0  0  0  0  0  0  0  0  0  0  0  0
    8.0755    3.7602    0.0000 H   0  0  0  0  0  0  0  0  0  0  0  0
    5.4435   -2.7932    0.0000 H   0  0  0  0  0  0  0  0  0  0  0  0
   10.5741   -0.3799    0.0000 H   0  0  0  0  0  0  0  0  0  0  0  0
   11.3427    0.0421    0.0000 H   0  0  0  0  0  0  0  0  0  0  0  0
   10.9207    0.8107    0.0000 H   0  0  0  0  0  0  0  0  0  0  0  0
    8.1478   -2.5200    0.0000 H   0  0  0  0  0  0  0  0  0  0  0  0
    4.8368    0.4142    0.0000 H   0  0  0  0  0  0  0  0  0  0  0  0
    4.5514    1.2432    0.0000 H   0  0  0  0  0  0  0  0  0  0  0  0
    3.7223    0.9577    0.0000 H   0  0  0  0  0  0  0  0  0  0  0  0
    9.9978    4.6292    0.0000 H   0  0  0  0  0  0  0  0  0  0  0  0
    9.8757    5.4975    0.0000 H   0  0  0  0  0  0  0  0  0  0  0  0
    9.0075    5.3755    0.0000 H   0  0  0  0  0  0  0  0  0  0  0  0
    1.4664   -3.9502    0.0000 H   0  0  0  0  0  0  0  0  0  0  0  0
    1.6842   -4.7995    0.0000 H   0  0  0  0  0  0  0  0  0  0  0  0
    2.5336   -4.5818    0.0000 H   0  0  0  0  0  0  0  0  0  0  0  0
   10.0130   -2.2030    0.0000 H   0  0  0  0  0  0  0  0  0  0  0  0
    8.0382   -3.0202    0.0000 H   0  0  0  0  0  0  0  0  0  0  0  0
    8.4723   -3.6887    0.0000 H   0  0  0  0  0  0  0  0  0  0  0  0
    4.3045   -0.2248    0.0000 H   0  0  0  0  0  0  0  0  0  0  0  0
    4.0633    1.5460    0.0000 H   0  0  0  0  0  0  0  0  0  0  0  0
    4.1108   -0.7607    0.0000 H   0  0  0  0  0  0  0  0  0  0  0  0
    4.7624   -1.3474    0.0000 H   0  0  0  0  0  0  0  0  0  0  0  0
    5.3491   -0.6958    0.0000 H   0  0  0  0  0  0  0  0  0  0  0  0
    5.8816   -2.4817    0.0000 H   0  0  0  0  0  0  0  0  0  0  0  0
    7.8470    0.8886    0.0000 H   0  0  0  0  0  0  0  0  0  0  0  0
    9.0769   -4.8860    0.0000 H   0  0  0  0  0  0  0  0  0  0  0  0
   10.3508   -2.3860    0.0000 H   0  0  0  0  0  0  0  0  0  0  0  0
   10.5203   -5.6215    0.0000 H   0  0  0  0  0  0  0  0  0  0  0  0
   11.7942   -3.1214    0.0000 H   0  0  0  0  0  0  0  0  0  0  0  0
   11.8790   -4.7392    0.0000 H   0  0  0  0  0  0  0  0  0  0  0  0
  1 42  1  0  0  0  0
  1 48  1  0  0  0  0
  2 45  1  0  0  0  0
  2 49  1  0  0  0  0
  3 22  1  0  0  0  0
  3 23  1  0  0  0  0
  4 24  1  0  0  0  0
  4 26  1  0  0  0  0
  5 31  2  0  0  0  0
  6 34  2  0  0  0  0
  7 38  2  0  0  0  0
  8 39  2  0  0  0  0
  9 21  1  0  0  0  0
  9 23  2  0  0  0  0
 10 17  1  0  0  0  0
 10 39  1  0  0  0  0
 10 73  1  0  0  0  0
 11 19  1  0  0  0  0
 11 38  1  0  0  0  0
 11 74  1  0  0  0  0
 12 24  2  0  0  0  0
 12 25  1  0  0  0  0
 13 31  1  0  0  0  0
 13 33  1  0  0  0  0
 13 88  1  0  0  0  0
 14 34  1  0  0  0  0
 14 41  1  0  0  0  0
 14 92  1  0  0  0  0
 15 42  2  0  0  0  0
 15 43  1  0  0  0  0
 16 44  1  0  0  0  0
 16 45  2  0  0  0  0
 17 18  1  0  0  0  0
 17 23  1  0  0  0  0
 17 55  1  6  0  0  0
 18 27  1  0  0  0  0
 18 29  1  6  0  0  0
 18 56  1  0  0  0  0
 19 20  1  0  0  0  0
 19 24  1  0  0  0  0
 19 57  1  6  0  0  0
 20 28  1  0  0  0  0
 20 30  1  1  0  0  0
 20 58  1  0  0  0  0
 21 22  1  0  0  0  0
 21 31  1  0  0  0  0
 21 59  1  6  0  0  0
 22 32  1  6  0  0  0
 22 60  1  0  0  0  0
 25 26  1  0  0  0  0
 25 34  1  0  0  0  0
 25 61  1  1  0  0  0
 26 35  1  1  0  0  0
 26 62  1  0  0  0  0
 27 36  1  0  0  0  0
 27 63  1  0  0  0  0
 27 64  1  0  0  0  0
 28 37  1  0  0  0  0
 28 65  1  0  0  0  0
 28 66  1  0  0  0  0
 29 67  1  0  0  0  0
 29 68  1  0  0  0  0
 29 69  1  0  0  0  0
 30 70  1  0  0  0  0
 30 71  1  0  0  0  0
 30 72  1  0  0  0  0
 32 75  1  0  0  0  0
 32 76  1  0  0  0  0
 32 77  1  0  0  0  0
 33 40  1  6  0  0  0
 33 42  1  0  0  0  0
 33 78  1  0  0  0  0
 35 79  1  0  0  0  0
 35 80  1  0  0  0  0
 35 81  1  0  0  0  0
 36 82  1  0  0  0  0
 36 83  1  0  0  0  0
 36 84  1  0  0  0  0
 37 85  1  0  0  0  0
 37 86  1  0  0  0  0
 37 87  1  0  0  0  0
 38 43  1  0  0  0  0
 39 44  1  0  0  0  0
 40 46  1  0  0  0  0
 40 89  1  0  0  0  0
 40 90  1  0  0  0  0
 41 45  1  0  0  0  0
 41 47  1  1  0  0  0
 41 91  1  0  0  0  0
 43 48  2  0  0  0  0
 44 49  2  0  0  0  0
 46 50  2  0  0  0  0
 46 51  1  0  0  0  0
 47 93  1  0  0  0  0
 47 94  1  0  0  0  0
 47 95  1  0  0  0  0
 48 96  1  0  0  0  0
 49 97  1  0  0  0  0
 50 52  1  0  0  0  0
 50 98  1  0  0  0  0
 51 53  2  0  0  0  0
 51 99  1  0  0  0  0
 52 54  2  0  0  0  0
 52100  1  0  0  0  0
 53 54  1  0  0  0  0
 53101  1  0  0  0  0
 54102  1  0  0  0  0
M  END
> <PUBCHEM_COMPOUND_CID>
149086

> <PUBCHEM_COMPOUND_CANONICALIZED>
1

> <PUBCHEM_CACTVS_COMPLEXITY>
1450

> <PUBCHEM_CACTVS_HBOND_ACCEPTOR>
12

> <PUBCHEM_CACTVS_HBOND_DONOR>
4

> <PUBCHEM_CACTVS_ROTATABLE_BOND>
6

> <PUBCHEM_CACTVS_SUBSKEYS>
AAADcfB/+ABgAAAAAAAAAAAAAAAAAWLECAAwAAAAAAAAAAAB8AAAHgQQAAAADTzl3gaygZLIFAisAyVyVACC8KBnCjgIiJW4JMgKYDagkTGXIAgmtgC4iIeQgIAOAAAAAAAAAAAAAAAAAAAAAAAAAAAAAA==

> <PUBCHEM_IUPAC_INCHI>
InChI=1S/C38H48N8O6S2/c1-8-18(3)27-35-45-29(21(6)51-35)33(49)39-20(5)37-41-25(16-53-37)31(47)43-28(19(4)9-2)36-46-30(22(7)52-36)34(50)40-24(15-23-13-11-10-12-14-23)38-42-26(17-54-38)32(48)44-27/h10-14,16-22,24,27-30H,8-9,15H2,1-7H3,(H,39,49)(H,40,50)(H,43,47)(H,44,48)/t18-,19-,20+,21+,22+,24+,27-,28-,29-,30-/m0/s1

> <PUBCHEM_IUPAC_INCHIKEY>
HZUISCIYFHWTKA-WLCQTKGUSA-N

> <PUBCHEM_XLOGP3_AA>
5.3

> <PUBCHEM_EXACT_MASS>
776.313823

> <PUBCHEM_MOLECULAR_FORMULA>
C38H48N8O6S2

> <PUBCHEM_MOLECULAR_WEIGHT>
776.96772

> <PUBCHEM_OPENEYE_CAN_SMILES>
CCC(C)C1C2=NC(C(O2)C)C(=O)NC(C3=NC(=CS3)C(=O)NC(C4=NC(C(O4)C)C(=O)NC(C5=NC(=CS5)C(=O)N1)C)C(C)CC)CC6=CC=CC=C6

> <PUBCHEM_OPENEYE_ISO_SMILES>
CC[C@H](C)[C@H]1C2=N[C@@H]([C@H](O2)C)C(=O)N[C@@H](C3=NC(=CS3)C(=O)N[C@H](C4=N[C@@H]([C@H](O4)C)C(=O)N[C@@H](C5=NC(=CS5)C(=O)N1)C)[C@@H](C)CC)CC6=CC=CC=C6

> <PUBCHEM_CACTVS_TPSA>
242

> <PUBCHEM_MONOISOTOPIC_WEIGHT>
776.313823

> <PUBCHEM_TOTAL_CHARGE>
0

> <PUBCHEM_HEAVY_ATOM_COUNT>
54

> <PUBCHEM_ATOM_DEF_STEREO_COUNT>
10

> <PUBCHEM_ATOM_UDEF_STEREO_COUNT>
0

> <PUBCHEM_BOND_DEF_STEREO_COUNT>
0

> <PUBCHEM_BOND_UDEF_STEREO_COUNT>
0

> <PUBCHEM_ISOTOPIC_ATOM_COUNT>
0

> <PUBCHEM_COMPONENT_COUNT>
1

> <PUBCHEM_CACTVS_TAUTO_COUNT>
16

> <PUBCHEM_COORDINATE_TYPE>
1
5
255

> <PUBCHEM_BONDANNOTATIONS>
1  42  8
1  48  8
15  42  8
15  43  8
16  44  8
16  45  8
17  55  6
18  29  6
19  57  6
2  45  8
2  49  8
20  30  5
21  59  6
22  32  6
25  61  5
26  35  5
33  40  6
41  47  5
43  48  8
44  49  8
46  50  8
46  51  8
50  52  8
51  53  8
52  54  8
53  54  8

$$$$

