442180
  -OEChem-07051212572D

 44 48  0     1  0  0  0  0  0999 V2000
   10.0051    1.5506    0.0000 O   0  0  0  0  0  0  0  0  0  0  0  0
   10.8248   -2.1927    0.0000 O   0  0  0  0  0  0  0  0  0  0  0  0
    9.3729   -3.0309    0.0000 O   0  0  0  0  0  0  0  0  0  0  0  0
    4.6874    2.6283    0.0000 O   0  0  0  0  0  0  0  0  0  0  0  0
    2.8680    1.5964    0.0000 O   0  0  0  0  0  0  0  0  0  0  0  0
    7.4070    1.0506    0.0000 N   0  3  0  0  0  0  0  0  0  0  0  0
    9.1390    1.0506    0.0000 C   0  0  3  0  0  0  0  0  0  0  0  0
    8.2730    1.5506    0.0000 C   0  0  0  0  0  0  0  0  0  0  0  0
    9.1390    0.0506    0.0000 C   0  0  0  0  0  0  0  0  0  0  0  0
    7.4070    0.0506    0.0000 C   0  0  0  0  0  0  0  0  0  0  0  0
    8.2730   -0.4494    0.0000 C   0  0  0  0  0  0  0  0  0  0  0  0
    6.5130    1.5853    0.0000 C   0  0  0  0  0  0  0  0  0  0  0  0
    6.5130   -0.4840    0.0000 C   0  0  0  0  0  0  0  0  0  0  0  0
    5.6070    1.0714    0.0000 C   0  0  0  0  0  0  0  0  0  0  0  0
    5.6070    0.0298    0.0000 C   0  0  0  0  0  0  0  0  0  0  0  0
   10.0490   -0.4562    0.0000 C   0  0  0  0  0  0  0  0  0  0  0  0
    8.2570   -1.4909    0.0000 C   0  0  0  0  0  0  0  0  0  0  0  0
   10.0571   -1.4978    0.0000 C   0  0  0  0  0  0  0  0  0  0  0  0
    9.1550   -2.0186    0.0000 C   0  0  0  0  0  0  0  0  0  0  0  0
    4.6758    1.6284    0.0000 C   0  0  0  0  0  0  0  0  0  0  0  0
    4.6758   -0.5271    0.0000 C   0  0  0  0  0  0  0  0  0  0  0  0
    3.7320    1.0931    0.0000 C   0  0  0  0  0  0  0  0  0  0  0  0
   10.4028   -3.1383    0.0000 C   0  0  0  0  0  0  0  0  0  0  0  0
    3.7320    0.0081    0.0000 C   0  0  0  0  0  0  0  0  0  0  0  0
    3.8272    3.1383    0.0000 C   0  0  0  0  0  0  0  0  0  0  0  0
    2.0000    1.0998    0.0000 C   0  0  0  0  0  0  0  0  0  0  0  0
    9.1390    1.6706    0.0000 H   0  0  0  0  0  0  0  0  0  0  0  0
    8.6716    2.0256    0.0000 H   0  0  0  0  0  0  0  0  0  0  0  0
    7.8745    2.0256    0.0000 H   0  0  0  0  0  0  0  0  0  0  0  0
    6.5202    2.2052    0.0000 H   0  0  0  0  0  0  0  0  0  0  0  0
    6.5202   -1.1040    0.0000 H   0  0  0  0  0  0  0  0  0  0  0  0
   10.5824   -0.1400    0.0000 H   0  0  0  0  0  0  0  0  0  0  0  0
    7.7165   -1.7947    0.0000 H   0  0  0  0  0  0  0  0  0  0  0  0
   10.0051    2.1706    0.0000 H   0  0  0  0  0  0  0  0  0  0  0  0
    4.6830   -1.1471    0.0000 H   0  0  0  0  0  0  0  0  0  0  0  0
   10.2741   -3.7448    0.0000 H   0  0  0  0  0  0  0  0  0  0  0  0
   10.9924   -3.3300    0.0000 H   0  0  0  0  0  0  0  0  0  0  0  0
    3.1963   -0.3039    0.0000 H   0  0  0  0  0  0  0  0  0  0  0  0
    4.1434    3.6716    0.0000 H   0  0  0  0  0  0  0  0  0  0  0  0
    3.2939    3.4544    0.0000 H   0  0  0  0  0  0  0  0  0  0  0  0
    3.5110    2.6050    0.0000 H   0  0  0  0  0  0  0  0  0  0  0  0
    1.6921    1.6379    0.0000 H   0  0  0  0  0  0  0  0  0  0  0  0
    1.4619    0.7919    0.0000 H   0  0  0  0  0  0  0  0  0  0  0  0
    2.3079    0.5617    0.0000 H   0  0  0  0  0  0  0  0  0  0  0  0
  1  7  1  0  0  0  0
  1 34  1  0  0  0  0
  2 18  1  0  0  0  0
  2 23  1  0  0  0  0
  3 19  1  0  0  0  0
  3 23  1  0  0  0  0
  4 20  1  0  0  0  0
  4 25  1  0  0  0  0
  5 22  1  0  0  0  0
  5 26  1  0  0  0  0
  6  8  1  0  0  0  0
  6 10  2  0  0  0  0
  6 12  1  0  0  0  0
  7  8  1  0  0  0  0
  7  9  1  0  0  0  0
  7 27  1  0  0  0  0
  8 28  1  0  0  0  0
  8 29  1  0  0  0  0
  9 11  1  0  0  0  0
  9 16  2  0  0  0  0
 10 11  1  0  0  0  0
 10 13  1  0  0  0  0
 11 17  2  0  0  0  0
 12 14  2  0  0  0  0
 12 30  1  0  0  0  0
 13 15  2  0  0  0  0
 13 31  1  0  0  0  0
 14 15  1  0  0  0  0
 14 20  1  0  0  0  0
 15 21  1  0  0  0  0
 16 18  1  0  0  0  0
 16 32  1  0  0  0  0
 17 19  1  0  0  0  0
 17 33  1  0  0  0  0
 18 19  2  0  0  0  0
 20 22  2  0  0  0  0
 21 24  2  0  0  0  0
 21 35  1  0  0  0  0
 22 24  1  0  0  0  0
 23 36  1  0  0  0  0
 23 37  1  0  0  0  0
 24 38  1  0  0  0  0
 25 39  1  0  0  0  0
 25 40  1  0  0  0  0
 25 41  1  0  0  0  0
 26 42  1  0  0  0  0
 26 43  1  0  0  0  0
 26 44  1  0  0  0  0
M  CHG  1   6   1
M  END
> <PUBCHEM_COMPOUND_CID>
442180

> <PUBCHEM_COMPOUND_CANONICALIZED>
1

> <PUBCHEM_CACTVS_COMPLEXITY>
518

> <PUBCHEM_CACTVS_HBOND_ACCEPTOR>
5

> <PUBCHEM_CACTVS_HBOND_DONOR>
1

> <PUBCHEM_CACTVS_ROTATABLE_BOND>
2

> <PUBCHEM_CACTVS_SUBSKEYS>
AAADceB6OAAAAAAAAAAAAAAAAAAAASAAAAA8eIEAAAAAAEix9AAAHgAACAAADBzhngc+jtMMFgCgAzRnRACCiCAxIiAI2CA+7JgfNuLEsZukcCpmwBne+Afw8P8OoAABAAAYQABAAAIAADCAAAAAAAAAAA==

> <PUBCHEM_IUPAC_INCHI>
InChI=1S/C20H18NO5/c1-23-17-4-3-11-5-15-12-6-18-19(26-10-25-18)7-13(12)16(22)9-21(15)8-14(11)20(17)24-2/h3-8,16,22H,9-10H2,1-2H3/q+1

> <PUBCHEM_IUPAC_INCHIKEY>
VFCGRXCCUHLLIP-UHFFFAOYSA-N

> <PUBCHEM_XLOGP3_AA>
2.5

> <PUBCHEM_EXACT_MASS>
352.118498

> <PUBCHEM_MOLECULAR_FORMULA>
C20H18NO5+

> <PUBCHEM_MOLECULAR_WEIGHT>
352.36062

> <PUBCHEM_OPENEYE_CAN_SMILES>
COC1=C(C2=C[N+]3=C(C=C2C=C1)C4=CC5=C(C=C4C(C3)O)OCO5)OC

> <PUBCHEM_OPENEYE_ISO_SMILES>
COC1=C(C2=C[N+]3=C(C=C2C=C1)C4=CC5=C(C=C4C(C3)O)OCO5)OC

> <PUBCHEM_CACTVS_TPSA>
61

> <PUBCHEM_MONOISOTOPIC_WEIGHT>
352.118498

> <PUBCHEM_TOTAL_CHARGE>
1

> <PUBCHEM_HEAVY_ATOM_COUNT>
26

> <PUBCHEM_ATOM_DEF_STEREO_COUNT>
0

> <PUBCHEM_ATOM_UDEF_STEREO_COUNT>
1

> <PUBCHEM_BOND_DEF_STEREO_COUNT>
0

> <PUBCHEM_BOND_UDEF_STEREO_COUNT>
0

> <PUBCHEM_ISOTOPIC_ATOM_COUNT>
0

> <PUBCHEM_COMPONENT_COUNT>
1

> <PUBCHEM_CACTVS_TAUTO_COUNT>
1

> <PUBCHEM_COORDINATE_TYPE>
1
5
255

> <PUBCHEM_BONDANNOTATIONS>
7  1  3
10  13  8
11  17  8
12  14  8
13  15  8
14  15  8
14  20  8
15  21  8
16  18  8
17  19  8
18  19  8
20  22  8
21  24  8
22  24  8
6  10  8
6  12  8
9  11  8
9  16  8

$$$$

