   Color/Form
        Colorless liquid
   from [1]HSDB

   Odor
        Aromatic odor
   from [2]HSDB

   Boiling Point
        137.5-138 deg C @ 21 mm Hg
   from [3]HSDB

   Corrosivity
        Non-corrosive
   from [4]HSDB

   Density/Specific Gravity
        0.9402 @ 25 deg C/25 deg C
   from [5]HSDB

   Octanol/Water Partition Coefficient
        log Kow= 4.15
   from [6]HSDB

   Solubilities

     * Miscible with common organic solvents, e.g. acetone, ethanol,
       xylene, methyl isobutyl ketone, kerosene.
     * Miscible with 4-methylpentan-2-one
     * In water, 45 mg/l @ 22 deg C

   from [7]HSDB

   Spectral Properties
        INDEX OF REFRACTION: 1.4702 @ 30 DEG C/D
   from [8]HSDB

   Vapor Pressure
        1.3X10-2 mm Hg @ 25 deg C
   from [9]HSDB

   Other Chemical/Physical Properties

     * Amber liquid, technical
     * Thermally stable up to 200 deg C; hydrolyzed by strong acids and
       alkalis, in aqueous solution in sunlight; Fp(flash point) 115 deg
       C.

   from [10]HSDB

   Computed Properties
   Molecular Weight                  217.37142 [g/mol]
   Molecular Formula                 C[11]H[23]NOS
   XLogP3                            4.2
   H-Bond Donor                      0
   H-Bond Acceptor                   2
   Rotatable Bond Count              6
   Exact Mass                        217.150035
   MonoIsotopic Mass                 217.150035
   Topological Polar Surface Area    45.6
   Heavy Atom Count                  14
   Formal Charge                     0
   Complexity                        159
   Isotope Atom Count                0
   Defined Atom Stereocenter Count   0
   Undefined Atom Stereocenter Count 0
   Defined Bond Stereocenter Count   0
   Undefined Bond Stereocenter Count 0
   Covalently-Bonded Unit Count      1
   Feature 3D Hydrophobe Count       3
   Effective Rotor Count             7
   Conformer Sampling RMSD           0.8
   CID Conformer Count               [11]16

References

   1. http://toxnet.nlm.nih.gov/cgi-bin/sis/search/r?dbs+hsdb:@term+@rn+@rel+2008-41-5
   2. http://toxnet.nlm.nih.gov/cgi-bin/sis/search/r?dbs+hsdb:@term+@rn+@rel+2008-41-5
   3. http://toxnet.nlm.nih.gov/cgi-bin/sis/search/r?dbs+hsdb:@term+@rn+@rel+2008-41-5
   4. http://toxnet.nlm.nih.gov/cgi-bin/sis/search/r?dbs+hsdb:@term+@rn+@rel+2008-41-5
   5. http://toxnet.nlm.nih.gov/cgi-bin/sis/search/r?dbs+hsdb:@term+@rn+@rel+2008-41-5
   6. http://toxnet.nlm.nih.gov/cgi-bin/sis/search/r?dbs+hsdb:@term+@rn+@rel+2008-41-5
   7. http://toxnet.nlm.nih.gov/cgi-bin/sis/search/r?dbs+hsdb:@term+@rn+@rel+2008-41-5
   8. http://toxnet.nlm.nih.gov/cgi-bin/sis/search/r?dbs+hsdb:@term+@rn+@rel+2008-41-5
   9. http://toxnet.nlm.nih.gov/cgi-bin/sis/search/r?dbs+hsdb:@term+@rn+@rel+2008-41-5
  10. http://toxnet.nlm.nih.gov/cgi-bin/sis/search/r?dbs+hsdb:@term+@rn+@rel+2008-41-5
  11. http://pubchem.ncbi.nlm.nih.gov/vw3d/vw3d.cgi?cid=16181
