   Boiling Point
        199 deg C
   from [1]HSDB

   Density/Specific Gravity
        1.0189 g/cu cm at 21 deg C
   from [2]HSDB

   Octanol/Water Partition Coefficient
        log Kow = 2.26 (est)
   from [3]HSDB

   Solubilities

     * Miscible with ethanol, ethyl ether; very soluble in acetone;
       soluble in benzene, chloroform
     * In water, 1.69X10+3 mg/L at 25 deg C (est)

   from [4]HSDB

   Spectral Properties

     * Index of refraction: 1.5413 at 21 deg C/D
     * MASS: 2146 (NIST/EPA/MSDC Mass Spectral Database, 1990 version);
       226 (Aldermaston, Eight Peak Index of Mass Spectra, U.K.)
     * IR: 16692 (Sadtler Research Laboratories IR grating collection)
     * UV: 5-136 (Phillip et al., Organic Electronic Spectral Data, John
       Wiley & Sons, New York)
     * 1H NMR: 9244 (Sadtler Research Laboratories spectral collection)

   from [5]HSDB

   Vapor Pressure
        0.379 mm Hg at 25 deg C (est)
   from [6]HSDB

   Other Chemical/Physical Properties

     * Henry's Law constant = 1.48X10-5 atm-cu m/mol at 25 deg C (est)
     * Hydroxyl radical reaction rate constant = 1.96X10-11 cu
       cm/molec-sec at 25 deg C (est)

   from [7]HSDB

   Computed Properties
   Molecular Weight                  120.14852 [g/mol]
   Molecular Formula                 C[8]H[8]O
   XLogP3                            2
   H-Bond Donor                      0
   H-Bond Acceptor                   1
   Rotatable Bond Count              1
   Exact Mass                        120.057515
   MonoIsotopic Mass                 120.057515
   Topological Polar Surface Area    17.1
   Heavy Atom Count                  9
   Formal Charge                     0
   Complexity                        98.7
   Isotope Atom Count                0
   Defined Atom Stereocenter Count   0
   Undefined Atom Stereocenter Count 0
   Defined Bond Stereocenter Count   0
   Undefined Bond Stereocenter Count 0
   Covalently-Bonded Unit Count      1
   Feature 3D Acceptor Count         1
   Feature 3D Ring Count             1
   Effective Rotor Count             1
   Conformer Sampling RMSD           0.4
   CID Conformer Count               [8]2

References

   1. http://toxnet.nlm.nih.gov/cgi-bin/sis/search/r?dbs+hsdb:@term+@rn+@rel+620-23-5
   2. http://toxnet.nlm.nih.gov/cgi-bin/sis/search/r?dbs+hsdb:@term+@rn+@rel+620-23-5
   3. http://toxnet.nlm.nih.gov/cgi-bin/sis/search/r?dbs+hsdb:@term+@rn+@rel+620-23-5
   4. http://toxnet.nlm.nih.gov/cgi-bin/sis/search/r?dbs+hsdb:@term+@rn+@rel+620-23-5
   5. http://toxnet.nlm.nih.gov/cgi-bin/sis/search/r?dbs+hsdb:@term+@rn+@rel+620-23-5
   6. http://toxnet.nlm.nih.gov/cgi-bin/sis/search/r?dbs+hsdb:@term+@rn+@rel+620-23-5
   7. http://toxnet.nlm.nih.gov/cgi-bin/sis/search/r?dbs+hsdb:@term+@rn+@rel+620-23-5
   8. http://pubchem.ncbi.nlm.nih.gov/vw3d/vw3d.cgi?cid=12105
