   Color/Form

     * NEEDLES FROM WATER
     * YELLOW, CRYSTALLINE POWDER

   from [1]HSDB

   Odor
        ODORLESS OR PRACTICALLY ODORLESS
   from [2]HSDB

   Melting Point
        GREATER THAN 360 DEG C
   from [3]HSDB

   Octanol/Water Partition Coefficient
        Log Kow = -0.07
   from [4]HSDB

   Solubilities
        INSOL IN WATER, ALCOHOL, CHLOROFORM; FREELY SOL IN DIL SOLUTIONS
   OF ALKALI HYDROXIDES
   from [5]HSDB

   Spectral Properties

     * IR: 3:1292H (Aldrich Library of Infrared Spectra, Aldrich Chemical
       Co, Milwaukee, WI)
     * NMR: 8:110D (Aldrich Library of Mass Spectra, Aldrich Chemical Co,
       Milwaukee, WI)

   from [6]HSDB

   Computed Properties
   Molecular Weight                  167.1917 [g/mol]
   Molecular Formula                 C[5]H[5]N[5]S
   XLogP3                            -0.1
   H-Bond Donor                      3
   H-Bond Acceptor                   2
   Rotatable Bond Count              0
   Tautomer Count                    26
   Exact Mass                        167.026566
   MonoIsotopic Mass                 167.026566
   Topological Polar Surface Area    111
   Heavy Atom Count                  11
   Formal Charge                     0
   Complexity                        225
   Isotope Atom Count                0
   Defined Atom Stereocenter Count   0
   Undefined Atom Stereocenter Count 0
   Defined Bond Stereocenter Count   0
   Undefined Bond Stereocenter Count 0
   Covalently-Bonded Unit Count      1
   Feature 3D Acceptor Count         1
   Feature 3D Donor Count            3
   Feature 3D Cation Count           2
   Feature 3D Ring Count             2
   Effective Rotor Count             0
   Conformer Sampling RMSD           0.4
   CID Conformer Count               [7]1

References

   1. http://toxnet.nlm.nih.gov/cgi-bin/sis/search/r?dbs+hsdb:@term+@rn+@rel+154-42-7
   2. http://toxnet.nlm.nih.gov/cgi-bin/sis/search/r?dbs+hsdb:@term+@rn+@rel+154-42-7
   3. http://toxnet.nlm.nih.gov/cgi-bin/sis/search/r?dbs+hsdb:@term+@rn+@rel+154-42-7
   4. http://toxnet.nlm.nih.gov/cgi-bin/sis/search/r?dbs+hsdb:@term+@rn+@rel+154-42-7
   5. http://toxnet.nlm.nih.gov/cgi-bin/sis/search/r?dbs+hsdb:@term+@rn+@rel+154-42-7
   6. http://toxnet.nlm.nih.gov/cgi-bin/sis/search/r?dbs+hsdb:@term+@rn+@rel+154-42-7
   7. http://pubchem.ncbi.nlm.nih.gov/vw3d/vw3d.cgi?cid=2723601
