2723920
  -OEChem-07051213082D

 14 13  0     0  0  0  0  0  0999 V2000
    2.0000   -1.0000    0.0000 K   0  3  0  0  0  0  0  0  0  0  0  0
    7.1962   -1.0000    0.0000 O   0  0  0  0  0  0  0  0  0  0  0  0
    2.8660   -0.5000    0.0000 O   0  5  0  0  0  0  0  0  0  0  0  0
    5.4641    2.0000    0.0000 O   0  0  0  0  0  0  0  0  0  0  0  0
    3.7320   -2.0000    0.0000 O   0  0  0  0  0  0  0  0  0  0  0  0
    5.4641   -1.0000    0.0000 N   0  0  0  0  0  0  0  0  0  0  0  0
    6.3301    0.5000    0.0000 N   0  0  0  0  0  0  0  0  0  0  0  0
    4.5981    0.5000    0.0000 N   0  0  0  0  0  0  0  0  0  0  0  0
    4.5981   -0.5000    0.0000 C   0  0  0  0  0  0  0  0  0  0  0  0
    6.3301   -0.5000    0.0000 C   0  0  0  0  0  0  0  0  0  0  0  0
    5.4641    1.0000    0.0000 C   0  0  0  0  0  0  0  0  0  0  0  0
    3.7320   -1.0000    0.0000 C   0  0  0  0  0  0  0  0  0  0  0  0
    5.4641   -1.6200    0.0000 H   0  0  0  0  0  0  0  0  0  0  0  0
    6.8671    0.8100    0.0000 H   0  0  0  0  0  0  0  0  0  0  0  0
  2 10  2  0  0  0  0
  3 12  1  0  0  0  0
  4 11  2  0  0  0  0
  5 12  2  0  0  0  0
  6  9  1  0  0  0  0
  6 10  1  0  0  0  0
  6 13  1  0  0  0  0
  7 10  1  0  0  0  0
  7 11  1  0  0  0  0
  7 14  1  0  0  0  0
  8  9  2  0  0  0  0
  8 11  1  0  0  0  0
  9 12  1  0  0  0  0
M  CHG  2   1   1   3  -1
M  END
> <PUBCHEM_COMPOUND_CID>
2723920

> <PUBCHEM_COMPOUND_CANONICALIZED>
1

> <PUBCHEM_CACTVS_COMPLEXITY>
274

> <PUBCHEM_CACTVS_HBOND_ACCEPTOR>
4

> <PUBCHEM_CACTVS_HBOND_DONOR>
2

> <PUBCHEM_CACTVS_ROTATABLE_BOND>
1

> <PUBCHEM_CACTVS_SUBSKEYS>
AAADcQBjOAAAQAAAAAAAAAAAAAAAAAAAAAAgAAAAAAAAAAAAAAAADgAQAAAAAAABgAABCALAAAAoAAKwPAQAAAEAAAABAACAAACCAAAAACAAAAAIBSIQAAAAAAAAAAAAAAAAAAAAAAAAAAAAAAAAAAAAAA==

> <PUBCHEM_IUPAC_OPENEYE_NAME>
potassium 4,6-dioxo-1H-1,3,5-triazine-2-carboxylate

> <PUBCHEM_IUPAC_CAS_NAME>
potassium 4,6-dioxo-1H-1,3,5-triazine-2-carboxylate

> <PUBCHEM_IUPAC_NAME>
potassium 4,6-dioxo-1H-1,3,5-triazine-2-carboxylate

> <PUBCHEM_IUPAC_SYSTEMATIC_NAME>
potassium 4,6-bis(oxidanylidene)-1H-1,3,5-triazine-2-carboxylate

> <PUBCHEM_IUPAC_TRADITIONAL_NAME>
potassium 4,6-diketo-1H-s-triazine-2-carboxylate

> <PUBCHEM_IUPAC_INCHI>
InChI=1S/C4H3N3O4.K/c8-2(9)1-5-3(10)7-4(11)6-1;/h(H,8,9)(H2,5,6,7,10,11);/q;+1/p-1

> <PUBCHEM_IUPAC_INCHIKEY>
IAPCTXZQXAVYNG-UHFFFAOYSA-M

> <PUBCHEM_EXACT_MASS>
194.968237

> <PUBCHEM_MOLECULAR_FORMULA>
C4H2KN3O4

> <PUBCHEM_MOLECULAR_WEIGHT>
195.17468

> <PUBCHEM_OPENEYE_CAN_SMILES>
C1(=NC(=O)NC(=O)N1)C(=O)[O-].[K+]

> <PUBCHEM_OPENEYE_ISO_SMILES>
C1(=NC(=O)NC(=O)N1)C(=O)[O-].[K+]

> <PUBCHEM_CACTVS_TPSA>
111

> <PUBCHEM_MONOISOTOPIC_WEIGHT>
194.968237

> <PUBCHEM_TOTAL_CHARGE>
0

> <PUBCHEM_HEAVY_ATOM_COUNT>
12

> <PUBCHEM_ATOM_DEF_STEREO_COUNT>
0

> <PUBCHEM_ATOM_UDEF_STEREO_COUNT>
0

> <PUBCHEM_BOND_DEF_STEREO_COUNT>
0

> <PUBCHEM_BOND_UDEF_STEREO_COUNT>
0

> <PUBCHEM_ISOTOPIC_ATOM_COUNT>
0

> <PUBCHEM_COMPONENT_COUNT>
2

> <PUBCHEM_CACTVS_TAUTO_COUNT>
5

> <PUBCHEM_NONSTANDARDBOND>
1  3  7

> <PUBCHEM_COORDINATE_TYPE>
1
5
255

> <PUBCHEM_BONDANNOTATIONS>
6  10  8
6  9  8
7  10  8
7  11  8
8  11  8
8  9  8

$$$$

