442043
  -OEChem-07051212562D

 77 82  0     1  0  0  0  0  0999 V2000
    7.6967   -1.2796    0.0000 O   0  0  0  0  0  0  0  0  0  0  0  0
    5.0109   -2.5012    0.0000 O   0  0  0  0  0  0  0  0  0  0  0  0
    8.5462   -2.2404    0.0000 O   0  0  0  0  0  0  0  0  0  0  0  0
    7.6967   -0.2796    0.0000 O   0  0  0  0  0  0  0  0  0  0  0  0
    6.8306    1.2204    0.0000 O   0  0  0  0  0  0  0  0  0  0  0  0
    8.9033   -3.9352    0.0000 O   0  0  0  0  0  0  0  0  0  0  0  0
    5.9646    2.7204    0.0000 O   0  0  0  0  0  0  0  0  0  0  0  0
    3.3665   -0.7796    0.0000 C   0  0  1  0  0  0  0  0  0  0  0  0
    3.3665   -1.7796    0.0000 C   0  0  2  0  0  0  0  0  0  0  0  0
    2.5000   -1.2796    0.0000 C   0  0  0  0  0  0  0  0  0  0  0  0
    4.2326   -0.2796    0.0000 C   0  0  1  0  0  0  0  0  0  0  0  0
    4.2326   -2.2796    0.0000 C   0  0  0  0  0  0  0  0  0  0  0  0
    5.9646   -2.2796    0.0000 C   0  0  2  0  0  0  0  0  0  0  0  0
    5.0986   -1.7796    0.0000 C   0  0  2  0  0  0  0  0  0  0  0  0
    6.8306   -1.7796    0.0000 C   0  0  1  0  0  0  0  0  0  0  0  0
    4.8219   -1.5192    0.0000 C   0  0  0  0  0  0  0  0  0  0  0  0
    2.0000   -2.1456    0.0000 C   0  0  0  0  0  0  0  0  0  0  0  0
    2.0000   -0.4135    0.0000 C   0  0  0  0  0  0  0  0  0  0  0  0
    5.0986   -0.7796    0.0000 C   0  0  0  0  0  0  0  0  0  0  0  0
    6.1738   -3.2514    0.0000 C   0  0  0  0  0  0  0  0  0  0  0  0
    6.8306   -0.7796    0.0000 C   0  0  1  0  0  0  0  0  0  0  0  0
    7.5676   -2.4466    0.0000 C   0  0  2  0  0  0  0  0  0  0  0  0
    5.9646   -1.2796    0.0000 C   0  0  0  0  0  0  0  0  0  0  0  0
    5.9646   -0.2796    0.0000 C   0  0  0  0  0  0  0  0  0  0  0  0
    7.1625   -3.3544    0.0000 C   0  0  0  0  0  0  0  0  0  0  0  0
    5.9646    0.7204    0.0000 C   0  0  0  0  0  0  0  0  0  0  0  0
    7.6625   -4.2204    0.0000 C   0  0  0  0  0  0  0  0  0  0  0  0
    9.2140   -2.9847    0.0000 C   0  0  0  0  0  0  0  0  0  0  0  0
   10.1925   -2.7785    0.0000 C   0  0  0  0  0  0  0  0  0  0  0  0
    6.8306    2.2204    0.0000 C   0  0  0  0  0  0  0  0  0  0  0  0
   10.8604   -3.5228    0.0000 C   0  0  0  0  0  0  0  0  0  0  0  0
   10.5032   -1.8280    0.0000 C   0  0  0  0  0  0  0  0  0  0  0  0
    7.6967    2.7204    0.0000 C   0  0  0  0  0  0  0  0  0  0  0  0
   11.8389   -3.3166    0.0000 C   0  0  0  0  0  0  0  0  0  0  0  0
   11.4817   -1.6218    0.0000 C   0  0  0  0  0  0  0  0  0  0  0  0
    8.5627    2.2204    0.0000 C   0  0  0  0  0  0  0  0  0  0  0  0
    7.6967    3.7204    0.0000 C   0  0  0  0  0  0  0  0  0  0  0  0
   12.1495   -2.3661    0.0000 C   0  0  0  0  0  0  0  0  0  0  0  0
    9.4287    2.7204    0.0000 C   0  0  0  0  0  0  0  0  0  0  0  0
    8.5627    4.2204    0.0000 C   0  0  0  0  0  0  0  0  0  0  0  0
    9.4287    3.7204    0.0000 C   0  0  0  0  0  0  0  0  0  0  0  0
    2.9415   -0.0434    0.0000 H   0  0  0  0  0  0  0  0  0  0  0  0
    3.3665   -2.6296    0.0000 H   0  0  0  0  0  0  0  0  0  0  0  0
    4.0719    0.5551    0.0000 H   0  0  0  0  0  0  0  0  0  0  0  0
    3.8340   -2.7545    0.0000 H   0  0  0  0  0  0  0  0  0  0  0  0
    4.6311   -2.7545    0.0000 H   0  0  0  0  0  0  0  0  0  0  0  0
    4.7886   -1.2426    0.0000 H   0  0  0  0  0  0  0  0  0  0  0  0
    1.4631   -1.8356    0.0000 H   0  0  0  0  0  0  0  0  0  0  0  0
    1.6900   -2.6825    0.0000 H   0  0  0  0  0  0  0  0  0  0  0  0
    2.5369   -2.4556    0.0000 H   0  0  0  0  0  0  0  0  0  0  0  0
    2.5369   -0.1035    0.0000 H   0  0  0  0  0  0  0  0  0  0  0  0
    1.6900    0.1234    0.0000 H   0  0  0  0  0  0  0  0  0  0  0  0
    1.4631   -0.7235    0.0000 H   0  0  0  0  0  0  0  0  0  0  0  0
    5.0986   -1.3996    0.0000 H   0  0  0  0  0  0  0  0  0  0  0  0
    5.7598   -3.7128    0.0000 H   0  0  0  0  0  0  0  0  0  0  0  0
    6.8306   -0.1596    0.0000 H   0  0  0  0  0  0  0  0  0  0  0  0
    7.9572   -2.9290    0.0000 H   0  0  0  0  0  0  0  0  0  0  0  0
    6.2746   -1.8165    0.0000 H   0  0  0  0  0  0  0  0  0  0  0  0
    6.5016   -0.9696    0.0000 H   0  0  0  0  0  0  0  0  0  0  0  0
    5.6546   -0.7426    0.0000 H   0  0  0  0  0  0  0  0  0  0  0  0
    8.2336   -1.5896    0.0000 H   0  0  0  0  0  0  0  0  0  0  0  0
    5.7526    1.3031    0.0000 H   0  0  0  0  0  0  0  0  0  0  0  0
    5.3540    0.6128    0.0000 H   0  0  0  0  0  0  0  0  0  0  0  0
    7.1256   -4.5304    0.0000 H   0  0  0  0  0  0  0  0  0  0  0  0
    7.9725   -4.7574    0.0000 H   0  0  0  0  0  0  0  0  0  0  0  0
    8.1995   -3.9104    0.0000 H   0  0  0  0  0  0  0  0  0  0  0  0
    7.6967    0.3404    0.0000 H   0  0  0  0  0  0  0  0  0  0  0  0
   10.6677   -4.1121    0.0000 H   0  0  0  0  0  0  0  0  0  0  0  0
   10.0891   -1.3665    0.0000 H   0  0  0  0  0  0  0  0  0  0  0  0
   12.2529   -3.7780    0.0000 H   0  0  0  0  0  0  0  0  0  0  0  0
   11.6743   -1.0324    0.0000 H   0  0  0  0  0  0  0  0  0  0  0  0
    8.5627    1.6004    0.0000 H   0  0  0  0  0  0  0  0  0  0  0  0
    7.1597    4.0304    0.0000 H   0  0  0  0  0  0  0  0  0  0  0  0
   12.7562   -2.2382    0.0000 H   0  0  0  0  0  0  0  0  0  0  0  0
    9.9656    2.4104    0.0000 H   0  0  0  0  0  0  0  0  0  0  0  0
    8.5627    4.8404    0.0000 H   0  0  0  0  0  0  0  0  0  0  0  0
    9.9656    4.0304    0.0000 H   0  0  0  0  0  0  0  0  0  0  0  0
 15  1  1  1  0  0  0
  1 61  1  0  0  0  0
  2 16  2  0  0  0  0
 22  3  1  1  0  0  0
  3 28  1  0  0  0  0
 21  4  1  1  0  0  0
  4 67  1  0  0  0  0
  5 26  1  0  0  0  0
  5 30  1  0  0  0  0
  6 28  2  0  0  0  0
  7 30  2  0  0  0  0
  8  9  1  0  0  0  0
  8 10  1  0  0  0  0
  8 11  1  0  0  0  0
  8 42  1  6  0  0  0
  9 10  1  0  0  0  0
  9 12  1  0  0  0  0
  9 43  1  6  0  0  0
 10 17  1  0  0  0  0
 10 18  1  0  0  0  0
 11 16  1  0  0  0  0
 11 19  1  0  0  0  0
 11 44  1  1  0  0  0
 12 14  1  0  0  0  0
 12 45  1  0  0  0  0
 12 46  1  0  0  0  0
 13 14  1  0  0  0  0
 13 15  1  0  0  0  0
 13 16  1  0  0  0  0
 13 20  1  6  0  0  0
 14 23  1  1  0  0  0
 14 47  1  0  0  0  0
 15 21  1  0  0  0  0
 15 22  1  0  0  0  0
 17 48  1  0  0  0  0
 17 49  1  0  0  0  0
 17 50  1  0  0  0  0
 18 51  1  0  0  0  0
 18 52  1  0  0  0  0
 18 53  1  0  0  0  0
 19 24  2  0  0  0  0
 19 54  1  0  0  0  0
 20 25  2  0  0  0  0
 20 55  1  0  0  0  0
 21 24  1  0  0  0  0
 21 56  1  0  0  0  0
 22 25  1  0  0  0  0
 22 57  1  0  0  0  0
 23 58  1  0  0  0  0
 23 59  1  0  0  0  0
 23 60  1  0  0  0  0
 24 26  1  0  0  0  0
 25 27  1  0  0  0  0
 26 62  1  0  0  0  0
 26 63  1  0  0  0  0
 27 64  1  0  0  0  0
 27 65  1  0  0  0  0
 27 66  1  0  0  0  0
 28 29  1  0  0  0  0
 29 31  2  0  0  0  0
 29 32  1  0  0  0  0
 30 33  1  0  0  0  0
 31 34  1  0  0  0  0
 31 68  1  0  0  0  0
 32 35  2  0  0  0  0
 32 69  1  0  0  0  0
 33 36  2  0  0  0  0
 33 37  1  0  0  0  0
 34 38  2  0  0  0  0
 34 70  1  0  0  0  0
 35 38  1  0  0  0  0
 35 71  1  0  0  0  0
 36 39  1  0  0  0  0
 36 72  1  0  0  0  0
 37 40  2  0  0  0  0
 37 73  1  0  0  0  0
 38 74  1  0  0  0  0
 39 41  2  0  0  0  0
 39 75  1  0  0  0  0
 40 41  1  0  0  0  0
 40 76  1  0  0  0  0
 41 77  1  0  0  0  0
M  END
> <PUBCHEM_COMPOUND_CID>
442043

> <PUBCHEM_COMPOUND_CANONICALIZED>
1

> <PUBCHEM_CACTVS_COMPLEXITY>
1160

> <PUBCHEM_CACTVS_HBOND_ACCEPTOR>
7

> <PUBCHEM_CACTVS_HBOND_DONOR>
2

> <PUBCHEM_CACTVS_ROTATABLE_BOND>
7

> <PUBCHEM_CACTVS_SUBSKEYS>
AAADcfB8OAAAAAAAAAAAAAAAGAAAAQAAAAAwYAAABggYAACBQAAAGgAACAAAD1SgmAIyCIAABgCIAqDSCAACAAAkAAAIiAEACMgJNjaANRiCcQAl4AELuYfK6PyPgAAAAAAAAAAAAAAAAAAAAAAAAAAAAA==

> <PUBCHEM_IUPAC_INCHI>
InChI=1S/C34H36O7/c1-19-17-33-20(2)15-25-26(32(25,3)4)24(28(33)36)16-23(18-40-30(37)21-11-7-5-8-12-21)27(35)34(33,39)29(19)41-31(38)22-13-9-6-10-14-22/h5-14,16-17,20,24-27,29,35,39H,15,18H2,1-4H3/t20-,24+,25-,26+,27-,29+,33+,34+/m1/s1

> <PUBCHEM_IUPAC_INCHIKEY>
GIMKEHNOTHXONN-NXBFFCPZSA-N

> <PUBCHEM_XLOGP3_AA>
4.1

> <PUBCHEM_EXACT_MASS>
556.246103

> <PUBCHEM_MOLECULAR_FORMULA>
C34H36O7

> <PUBCHEM_MOLECULAR_WEIGHT>
556.64544

> <PUBCHEM_OPENEYE_CAN_SMILES>
CC1CC2C(C2(C)C)C3C=C(C(C4(C1(C3=O)C=C(C4OC(=O)C5=CC=CC=C5)C)O)O)COC(=O)C6=CC=CC=C6

> <PUBCHEM_OPENEYE_ISO_SMILES>
C[C@@H]1C[C@@H]2[C@@H](C2(C)C)[C@@H]3C=C([C@H]([C@]4([C@@]1(C3=O)C=C([C@@H]4OC(=O)C5=CC=CC=C5)C)O)O)COC(=O)C6=CC=CC=C6

> <PUBCHEM_CACTVS_TPSA>
110

> <PUBCHEM_MONOISOTOPIC_WEIGHT>
556.246103

> <PUBCHEM_TOTAL_CHARGE>
0

> <PUBCHEM_HEAVY_ATOM_COUNT>
41

> <PUBCHEM_ATOM_DEF_STEREO_COUNT>
8

> <PUBCHEM_ATOM_UDEF_STEREO_COUNT>
0

> <PUBCHEM_BOND_DEF_STEREO_COUNT>
0

> <PUBCHEM_BOND_UDEF_STEREO_COUNT>
0

> <PUBCHEM_ISOTOPIC_ATOM_COUNT>
0

> <PUBCHEM_COMPONENT_COUNT>
1

> <PUBCHEM_CACTVS_TAUTO_COUNT>
1

> <PUBCHEM_COORDINATE_TYPE>
1
5
255

> <PUBCHEM_BONDANNOTATIONS>
15  1  5
11  44  5
13  20  6
14  23  5
29  31  8
29  32  8
22  3  5
31  34  8
32  35  8
33  36  8
33  37  8
34  38  8
35  38  8
36  39  8
37  40  8
39  41  8
21  4  5
40  41  8
8  42  6
9  43  6

$$$$

