   Color/Form
        Light blue crystalline powder
   from [1]HSDB

   Odor
        Odorless
   from [2]HSDB

   Melting Point
        155-157 deg C /D-form/
   from [3]HSDB

   Solubilities
        Sol in water; insol in acetone, alcohol, ether
   from [4]HSDB

   Spectral Properties
        Specific optical rotation: +15 deg at 26 deg C (concn = 1 g/100 ml
   water) /D-form/
   from [5]HSDB

   Other Chemical/Physical Properties
        Light blue to bluish-green, odorless crystals and crystalline
   powder. Astringent taste. 30 g soluble in 100 ml water at 25 deg C;
   slightly sol in alcohol; practically insol in most org solvents.
   /Hydrate/
   from [6]HSDB

   Computed Properties
   Molecular Weight                  453.84068 [g/mol]
   Molecular Formula                 C[12]H[22]CuO[14]
   H-Bond Donor                      10
   H-Bond Acceptor                   14
   Rotatable Bond Count              8
   Exact Mass                        453.030553
   MonoIsotopic Mass                 453.030553
   Topological Polar Surface Area    283
   Heavy Atom Count                  27
   Formal Charge                     0
   Complexity                        165
   Isotope Atom Count                0
   Defined Atom Stereocenter Count   8
   Undefined Atom Stereocenter Count 0
   Defined Bond Stereocenter Count   0
   Undefined Bond Stereocenter Count 0
   Covalently-Bonded Unit Count      3

References

   1. http://toxnet.nlm.nih.gov/cgi-bin/sis/search/r?dbs+hsdb:@term+@rn+@rel+527-09-3
   2. http://toxnet.nlm.nih.gov/cgi-bin/sis/search/r?dbs+hsdb:@term+@rn+@rel+527-09-3
   3. http://toxnet.nlm.nih.gov/cgi-bin/sis/search/r?dbs+hsdb:@term+@rn+@rel+527-09-3
   4. http://toxnet.nlm.nih.gov/cgi-bin/sis/search/r?dbs+hsdb:@term+@rn+@rel+527-09-3
   5. http://toxnet.nlm.nih.gov/cgi-bin/sis/search/r?dbs+hsdb:@term+@rn+@rel+527-09-3
   6. http://toxnet.nlm.nih.gov/cgi-bin/sis/search/r?dbs+hsdb:@term+@rn+@rel+527-09-3
