11377671
  -OEChem-07051213082D

101106  0     1  0  0  0  0  0999 V2000
    5.1483   -5.4041    0.0000 O   0  0  0  0  0  0  0  0  0  0  0  0
    6.3053   -4.1416    0.0000 O   0  0  0  0  0  0  0  0  0  0  0  0
    7.0654   -2.7783    0.0000 O   0  0  0  0  0  0  0  0  0  0  0  0
    7.4821   -1.5956    0.0000 O   0  0  0  0  0  0  0  0  0  0  0  0
    2.4962   -2.7475    0.0000 O   0  0  0  0  0  0  0  0  0  0  0  0
    3.5446    0.0354    0.0000 O   0  0  0  0  0  0  0  0  0  0  0  0
    2.8690   -1.5956    0.0000 O   0  0  0  0  0  0  0  0  0  0  0  0
    7.5875    0.8163    0.0000 O   0  0  0  0  0  0  0  0  0  0  0  0
    7.5913   -5.3019    0.0000 O   0  0  0  0  0  0  0  0  0  0  0  0
    7.5138   -4.4513    0.0000 O   0  0  0  0  0  0  0  0  0  0  0  0
    4.7693    1.2601    0.0000 O   0  0  0  0  0  0  0  0  0  0  0  0
    6.3628    2.0411    0.0000 O   0  0  0  0  0  0  0  0  0  0  0  0
    9.0017    2.2306    0.0000 O   0  0  0  0  0  0  0  0  0  0  0  0
    6.8110    3.7141    0.0000 N   0  0  0  0  0  0  0  0  0  0  0  0
    5.1755   -2.9022    0.0000 C   0  0  3  0  0  0  0  0  0  0  0  0
    5.3274   -3.9327    0.0000 C   0  0  2  0  0  0  0  0  0  0  0  0
    4.2517   -2.5195    0.0000 C   0  0  1  0  0  0  0  0  0  0  0  0
    6.0994   -2.5195    0.0000 C   0  0  1  0  0  0  0  0  0  0  0  0
    4.5059   -4.5732    0.0000 C   0  0  1  0  0  0  0  0  0  0  0  0
    6.4821   -1.5956    0.0000 C   0  0  2  0  0  0  0  0  0  0  0  0
    3.4156   -3.1408    0.0000 C   0  0  2  0  0  0  0  0  0  0  0  0
    3.5436   -4.1745    0.0000 C   0  0  0  0  0  0  0  0  0  0  0  0
    6.0994   -0.6718    0.0000 C   0  0  0  0  0  0  0  0  0  0  0  0
    5.9766   -4.7583    0.0000 C   0  0  0  0  0  0  0  0  0  0  0  0
    3.8690   -1.5956    0.0000 C   0  0  0  0  0  0  0  0  0  0  0  0
    7.1552   -0.8539    0.0000 C   0  0  0  0  0  0  0  0  0  0  0  0
    5.1755   -0.2891    0.0000 C   0  0  0  0  0  0  0  0  0  0  0  0
    3.3278   -2.1368    0.0000 C   0  0  0  0  0  0  0  0  0  0  0  0
    4.2517   -0.6718    0.0000 C   0  0  1  0  0  0  0  0  0  0  0  0
    6.8804    0.1092    0.0000 C   0  0  1  0  0  0  0  0  0  0  0  0
    5.9172    0.3840    0.0000 C   0  0  0  0  0  0  0  0  0  0  0  0
    6.3971    0.4391    0.0000 C   0  0  0  0  0  0  0  0  0  0  0  0
    7.2102   -0.3741    0.0000 C   0  0  0  0  0  0  0  0  0  0  0  0
    5.6897    1.3578    0.0000 C   0  0  0  0  0  0  0  0  0  0  0  0
    6.6134   -5.0930    0.0000 C   0  0  0  0  0  0  0  0  0  0  0  0
    7.7724   -3.4854    0.0000 C   0  0  0  0  0  0  0  0  0  0  0  0
    5.9435   -5.8354    0.0000 C   0  0  0  0  0  0  0  0  0  0  0  0
    3.8034    1.0013    0.0000 C   0  0  0  0  0  0  0  0  0  0  0  0
    7.3287    1.7823    0.0000 C   0  0  0  0  0  0  0  0  0  0  0  0
    8.7384   -3.2266    0.0000 C   0  0  0  0  0  0  0  0  0  0  0  0
    8.0358    2.4894    0.0000 C   0  0  1  0  0  0  0  0  0  0  0  0
    3.0963    1.7084    0.0000 C   0  0  0  0  0  0  0  0  0  0  0  0
    8.9972   -2.2607    0.0000 C   0  0  0  0  0  0  0  0  0  0  0  0
    9.4455   -3.9337    0.0000 C   0  0  0  0  0  0  0  0  0  0  0  0
    7.7770    3.4553    0.0000 C   0  0  2  0  0  0  0  0  0  0  0  0
    9.9631   -2.0019    0.0000 C   0  0  0  0  0  0  0  0  0  0  0  0
   10.4114   -3.6749    0.0000 C   0  0  0  0  0  0  0  0  0  0  0  0
   10.6702   -2.7090    0.0000 C   0  0  0  0  0  0  0  0  0  0  0  0
    8.4841    4.1624    0.0000 C   0  0  0  0  0  0  0  0  0  0  0  0
    9.4500    3.9036    0.0000 C   0  0  0  0  0  0  0  0  0  0  0  0
    8.2253    5.1283    0.0000 C   0  0  0  0  0  0  0  0  0  0  0  0
   10.1571    4.6107    0.0000 C   0  0  0  0  0  0  0  0  0  0  0  0
    8.9324    5.8354    0.0000 C   0  0  0  0  0  0  0  0  0  0  0  0
    9.8983    5.5766    0.0000 C   0  0  0  0  0  0  0  0  0  0  0  0
    5.9149   -3.3215    0.0000 H   0  0  0  0  0  0  0  0  0  0  0  0
    6.1400   -3.1382    0.0000 H   0  0  0  0  0  0  0  0  0  0  0  0
    3.9897   -5.2484    0.0000 H   0  0  0  0  0  0  0  0  0  0  0  0
    3.3430   -2.5251    0.0000 H   0  0  0  0  0  0  0  0  0  0  0  0
    2.9243   -4.1443    0.0000 H   0  0  0  0  0  0  0  0  0  0  0  0
    3.4078   -4.7795    0.0000 H   0  0  0  0  0  0  0  0  0  0  0  0
    6.3585   -5.2467    0.0000 H   0  0  0  0  0  0  0  0  0  0  0  0
    6.4645   -4.3758    0.0000 H   0  0  0  0  0  0  0  0  0  0  0  0
    7.5297   -1.3480    0.0000 H   0  0  0  0  0  0  0  0  0  0  0  0
    7.7099   -0.5769    0.0000 H   0  0  0  0  0  0  0  0  0  0  0  0
    3.5650   -1.5640    0.0000 H   0  0  0  0  0  0  0  0  0  0  0  0
    2.7550   -1.8996    0.0000 H   0  0  0  0  0  0  0  0  0  0  0  0
    3.0905   -2.7096    0.0000 H   0  0  0  0  0  0  0  0  0  0  0  0
    4.3726   -0.0637    0.0000 H   0  0  0  0  0  0  0  0  0  0  0  0
    7.4806   -0.0464    0.0000 H   0  0  0  0  0  0  0  0  0  0  0  0
    6.9959    0.2786    0.0000 H   0  0  0  0  0  0  0  0  0  0  0  0
    6.5575    1.0379    0.0000 H   0  0  0  0  0  0  0  0  0  0  0  0
    5.7982    0.5995    0.0000 H   0  0  0  0  0  0  0  0  0  0  0  0
    7.3707   -0.9730    0.0000 H   0  0  0  0  0  0  0  0  0  0  0  0
    7.8091   -0.2136    0.0000 H   0  0  0  0  0  0  0  0  0  0  0  0
    7.0498    0.2248    0.0000 H   0  0  0  0  0  0  0  0  0  0  0  0
    7.7921   -1.0587    0.0000 H   0  0  0  0  0  0  0  0  0  0  0  0
    2.0000   -3.1192    0.0000 H   0  0  0  0  0  0  0  0  0  0  0  0
    6.2935    1.4989    0.0000 H   0  0  0  0  0  0  0  0  0  0  0  0
    5.5487    1.9616    0.0000 H   0  0  0  0  0  0  0  0  0  0  0  0
    5.0860    1.2168    0.0000 H   0  0  0  0  0  0  0  0  0  0  0  0
    5.4832   -5.4201    0.0000 H   0  0  0  0  0  0  0  0  0  0  0  0
    5.5282   -6.2958    0.0000 H   0  0  0  0  0  0  0  0  0  0  0  0
    6.4038   -6.2508    0.0000 H   0  0  0  0  0  0  0  0  0  0  0  0
    8.4742    2.9278    0.0000 H   0  0  0  0  0  0  0  0  0  0  0  0
    3.5347    2.1468    0.0000 H   0  0  0  0  0  0  0  0  0  0  0  0
    2.6579    2.1468    0.0000 H   0  0  0  0  0  0  0  0  0  0  0  0
    2.6579    1.2700    0.0000 H   0  0  0  0  0  0  0  0  0  0  0  0
    8.5588   -1.8223    0.0000 H   0  0  0  0  0  0  0  0  0  0  0  0
    9.2850   -4.5326    0.0000 H   0  0  0  0  0  0  0  0  0  0  0  0
    7.3386    3.0169    0.0000 H   0  0  0  0  0  0  0  0  0  0  0  0
   10.1236   -1.4030    0.0000 H   0  0  0  0  0  0  0  0  0  0  0  0
   10.8498   -4.1133    0.0000 H   0  0  0  0  0  0  0  0  0  0  0  0
    9.1622    1.6317    0.0000 H   0  0  0  0  0  0  0  0  0  0  0  0
   11.2691   -2.5485    0.0000 H   0  0  0  0  0  0  0  0  0  0  0  0
    6.6506    4.3130    0.0000 H   0  0  0  0  0  0  0  0  0  0  0  0
    6.3726    3.2757    0.0000 H   0  0  0  0  0  0  0  0  0  0  0  0
    9.6105    3.3047    0.0000 H   0  0  0  0  0  0  0  0  0  0  0  0
    7.6264    5.2888    0.0000 H   0  0  0  0  0  0  0  0  0  0  0  0
   10.7560    4.4502    0.0000 H   0  0  0  0  0  0  0  0  0  0  0  0
    8.7719    6.4343    0.0000 H   0  0  0  0  0  0  0  0  0  0  0  0
   10.3367    6.0150    0.0000 H   0  0  0  0  0  0  0  0  0  0  0  0
  1 19  1  0  0  0  0
  1 24  1  0  0  0  0
 16  2  1  1  0  0  0
  2 35  1  0  0  0  0
 18  3  1  1  0  0  0
  3 36  1  0  0  0  0
 20  4  1  6  0  0  0
  4 76  1  0  0  0  0
 21  5  1  6  0  0  0
  5 77  1  0  0  0  0
 29  6  1  6  0  0  0
  6 38  1  0  0  0  0
  7 25  2  0  0  0  0
 30  8  1  1  0  0  0
  8 39  1  0  0  0  0
  9 35  2  0  0  0  0
 10 36  2  0  0  0  0
 11 38  2  0  0  0  0
 12 39  2  0  0  0  0
 41 13  1  1  0  0  0
 13 93  1  0  0  0  0
 45 14  1  1  0  0  0
 14 95  1  0  0  0  0
 14 96  1  0  0  0  0
 15 16  1  0  0  0  0
 15 17  1  0  0  0  0
 15 18  1  0  0  0  0
 15 55  1  0  0  0  0
 16 19  1  0  0  0  0
 16 24  1  0  0  0  0
 17 21  1  0  0  0  0
 17 25  1  0  0  0  0
 17 28  1  6  0  0  0
 18 20  1  0  0  0  0
 18 56  1  0  0  0  0
 19 22  1  0  0  0  0
 19 57  1  1  0  0  0
 20 23  1  0  0  0  0
 20 26  1  0  0  0  0
 21 22  1  0  0  0  0
 21 58  1  0  0  0  0
 22 59  1  0  0  0  0
 22 60  1  0  0  0  0
 23 27  1  0  0  0  0
 23 32  1  0  0  0  0
 23 33  1  0  0  0  0
 24 61  1  0  0  0  0
 24 62  1  0  0  0  0
 25 29  1  0  0  0  0
 26 30  1  0  0  0  0
 26 63  1  0  0  0  0
 26 64  1  0  0  0  0
 27 29  1  0  0  0  0
 27 31  2  0  0  0  0
 28 65  1  0  0  0  0
 28 66  1  0  0  0  0
 28 67  1  0  0  0  0
 29 68  1  0  0  0  0
 30 31  1  0  0  0  0
 30 69  1  0  0  0  0
 31 34  1  0  0  0  0
 32 70  1  0  0  0  0
 32 71  1  0  0  0  0
 32 72  1  0  0  0  0
 33 73  1  0  0  0  0
 33 74  1  0  0  0  0
 33 75  1  0  0  0  0
 34 78  1  0  0  0  0
 34 79  1  0  0  0  0
 34 80  1  0  0  0  0
 35 37  1  0  0  0  0
 36 40  1  0  0  0  0
 37 81  1  0  0  0  0
 37 82  1  0  0  0  0
 37 83  1  0  0  0  0
 38 42  1  0  0  0  0
 39 41  1  0  0  0  0
 40 43  2  0  0  0  0
 40 44  1  0  0  0  0
 41 45  1  0  0  0  0
 41 84  1  0  0  0  0
 42 85  1  0  0  0  0
 42 86  1  0  0  0  0
 42 87  1  0  0  0  0
 43 46  1  0  0  0  0
 43 88  1  0  0  0  0
 44 47  2  0  0  0  0
 44 89  1  0  0  0  0
 45 49  1  0  0  0  0
 45 90  1  0  0  0  0
 46 48  2  0  0  0  0
 46 91  1  0  0  0  0
 47 48  1  0  0  0  0
 47 92  1  0  0  0  0
 48 94  1  0  0  0  0
 49 50  2  0  0  0  0
 49 51  1  0  0  0  0
 50 52  1  0  0  0  0
 50 97  1  0  0  0  0
 51 53  2  0  0  0  0
 51 98  1  0  0  0  0
 52 54  2  0  0  0  0
 52 99  1  0  0  0  0
 53 54  1  0  0  0  0
 53100  1  0  0  0  0
 54101  1  0  0  0  0
M  END
> <PUBCHEM_COMPOUND_CID>
11377671

> <PUBCHEM_COMPOUND_CANONICALIZED>
1

> <PUBCHEM_CACTVS_COMPLEXITY>
1550

> <PUBCHEM_CACTVS_HBOND_ACCEPTOR>
14

> <PUBCHEM_CACTVS_HBOND_DONOR>
4

> <PUBCHEM_CACTVS_ROTATABLE_BOND>
12

> <PUBCHEM_CACTVS_SUBSKEYS>
AAADcfB+PAAAAAAAAAAAAAAAAABIAAAAAAAwYMEAAAAaIACBQAAAHgAQCAAAD3zhmAYyCIBABgCIAqDSCAKCAAAkAAAIiIFADMgLNj6AtR2CcQBn8AELqYfa7PzPgAAAAAAAAABCAAYQADCAAAAAAAAAAA==

> <PUBCHEM_IUPAC_INCHI>
InChI=1S/C40H47NO13/c1-20-25(52-36(48)30(45)29(41)23-13-9-7-10-14-23)18-40(49)34(53-35(47)24-15-11-8-12-16-24)32-38(6,26(44)17-27-39(32,19-50-27)54-22(3)43)33(46)31(51-21(2)42)28(20)37(40,4)5/h7-16,25-27,29-32,34,44-45,49H,17-19,41H2,1-6H3/t25-,26-,27+,29-,30+,31+,32?,34-,38+,39-,40+/m0/s1

> <PUBCHEM_IUPAC_INCHIKEY>
DLACRDONFBNRSP-UHTFTNQHSA-N

> <PUBCHEM_XLOGP3>
1.7

> <PUBCHEM_EXACT_MASS>
749.304741

> <PUBCHEM_MOLECULAR_FORMULA>
C40H47NO13

> <PUBCHEM_MOLECULAR_WEIGHT>
749.80008

> <PUBCHEM_OPENEYE_CAN_SMILES>
CC1=C2C(C(=O)C3(C(CC4C(C3C(C(C2(C)C)(CC1OC(=O)C(C(C5=CC=CC=C5)N)O)O)OC(=O)C6=CC=CC=C6)(CO4)OC(=O)C)O)C)OC(=O)C

> <PUBCHEM_OPENEYE_ISO_SMILES>
CC1=C2[C@H](C(=O)[C@@]3([C@H](C[C@@H]4[C@](C3[C@@H]([C@@](C2(C)C)(C[C@@H]1OC(=O)[C@@H]([C@H](C5=CC=CC=C5)N)O)O)OC(=O)C6=CC=CC=C6)(CO4)OC(=O)C)O)C)OC(=O)C

> <PUBCHEM_CACTVS_TPSA>
218

> <PUBCHEM_MONOISOTOPIC_WEIGHT>
749.304741

> <PUBCHEM_TOTAL_CHARGE>
0

> <PUBCHEM_HEAVY_ATOM_COUNT>
54

> <PUBCHEM_ATOM_DEF_STEREO_COUNT>
10

> <PUBCHEM_ATOM_UDEF_STEREO_COUNT>
1

> <PUBCHEM_BOND_DEF_STEREO_COUNT>
0

> <PUBCHEM_BOND_UDEF_STEREO_COUNT>
0

> <PUBCHEM_ISOTOPIC_ATOM_COUNT>
0

> <PUBCHEM_COMPONENT_COUNT>
1

> <PUBCHEM_CACTVS_TAUTO_COUNT>
3

> <PUBCHEM_COORDINATE_TYPE>
1
5
255

> <PUBCHEM_BONDANNOTATIONS>
41  13  5
45  14  5
15  55  3
17  28  6
19  57  5
16  2  5
18  3  5
20  4  6
40  43  8
40  44  8
43  46  8
44  47  8
46  48  8
47  48  8
49  50  8
49  51  8
21  5  6
50  52  8
51  53  8
52  54  8
53  54  8
29  6  6
30  8  5

$$$$

