   Color/Form

     * Amber oil
     * Amber liquid

   from [1]HSDB

   Boiling Point
        128-130 deg C
   from [2]HSDB

   Density/Specific Gravity
        1.088 @ 25 deg C
   from [3]HSDB

   Solubilities

     * In water, 100 mg/l @ 25 deg C
     * SOL IN ACETONE, BENZENE, CHLOROFORM, ETHYL ACETATE, ETHYL ALCOHOL,
       KEROSENE AT 25 DEG C
     * Soluble in most organic solvents.

   from [4]HSDB

   Spectral Properties

     * Index of Refraction: 1.5822 @ 25 deg C/D
     * Intense mass spectral peaks: 188 m/z (100%), 72 m/z (33%), 44 m/z
       (30%), 88 m/z (28%)
     * UV & IR spectrum

   from [5]HSDB

   Vapor Pressure
        2.2X10-3 MM HG @ 20 DEG C
   from [6]HSDB

   Other Chemical/Physical Properties

     * DECOMP TEMP: 150 DEC C; NONCORROSIVE TO METALS
     * HYDROLYZED IN AQ SOLN, HALF-LIFE @ PH 5, 47 DAYS, @ PH 8, 30 DAYS

   from [7]HSDB

   Computed Properties
   Molecular Weight                  223.78646 [g/mol]
   Molecular Formula                 C[8]H[14]ClNS[2]
   XLogP3-AA                         3.1
   H-Bond Donor                      0
   H-Bond Acceptor                   2
   Rotatable Bond Count              5
   Exact Mass                        223.025619
   MonoIsotopic Mass                 223.025619
   Topological Polar Surface Area    60.6
   Heavy Atom Count                  12
   Formal Charge                     0
   Complexity                        166
   Isotope Atom Count                0
   Defined Atom Stereocenter Count   0
   Undefined Atom Stereocenter Count 0
   Defined Bond Stereocenter Count   0
   Undefined Bond Stereocenter Count 0
   Covalently-Bonded Unit Count      1
   Feature 3D Acceptor Count         1
   Effective Rotor Count             6
   Conformer Sampling RMSD           0.6
   CID Conformer Count               [8]275

References

   1. http://toxnet.nlm.nih.gov/cgi-bin/sis/search/r?dbs+hsdb:@term+@rn+@rel+95-06-7
   2. http://toxnet.nlm.nih.gov/cgi-bin/sis/search/r?dbs+hsdb:@term+@rn+@rel+95-06-7
   3. http://toxnet.nlm.nih.gov/cgi-bin/sis/search/r?dbs+hsdb:@term+@rn+@rel+95-06-7
   4. http://toxnet.nlm.nih.gov/cgi-bin/sis/search/r?dbs+hsdb:@term+@rn+@rel+95-06-7
   5. http://toxnet.nlm.nih.gov/cgi-bin/sis/search/r?dbs+hsdb:@term+@rn+@rel+95-06-7
   6. http://toxnet.nlm.nih.gov/cgi-bin/sis/search/r?dbs+hsdb:@term+@rn+@rel+95-06-7
   7. http://toxnet.nlm.nih.gov/cgi-bin/sis/search/r?dbs+hsdb:@term+@rn+@rel+95-06-7
   8. http://pubchem.ncbi.nlm.nih.gov/vw3d/vw3d.cgi?cid=7216
