104729
  -OEChem-07051212442D

  1  0  0     0  0  0  0  0  0999 V2000
    2.0000    0.0000    0.0000 Co  0  2  0  0  0  0  0  0  0  0  0  0
M  CHG  1   1   2
M  END
> <PUBCHEM_COMPOUND_CID>
104729

> <PUBCHEM_COMPOUND_CANONICALIZED>
1

> <PUBCHEM_CACTVS_COMPLEXITY>
0

> <PUBCHEM_CACTVS_HBOND_ACCEPTOR>
0

> <PUBCHEM_CACTVS_HBOND_DONOR>
0

> <PUBCHEM_CACTVS_ROTATABLE_BOND>
0

> <PUBCHEM_CACTVS_SUBSKEYS>
AAADcQAAAAAAAAAQAAAAAAAAAAAAAAAAAAAAAAAAAAAAAAAAAAAAAAAAAAAAAAAAAAAAAAAAAAAAAAAAAAAAAAAAAAAAAAAAAAAAAAAAAAAAAAAAAAAAAAAAAAAAAAAAAAAAAAAAAAAAAAAAAAAAAAAAAA==

> <PUBCHEM_IUPAC_OPENEYE_NAME>
cobalt(2+)

> <PUBCHEM_IUPAC_CAS_NAME>
cobalt(2+)

> <PUBCHEM_IUPAC_NAME>
cobalt(2+)

> <PUBCHEM_IUPAC_SYSTEMATIC_NAME>
cobalt(2+)

> <PUBCHEM_IUPAC_TRADITIONAL_NAME>
cobalt(2+)

> <PUBCHEM_IUPAC_INCHI>
InChI=1S/Co/q+2

> <PUBCHEM_IUPAC_INCHIKEY>
XLJKHNWPARRRJB-UHFFFAOYSA-N

> <PUBCHEM_EXACT_MASS>
58.933195

> <PUBCHEM_MOLECULAR_FORMULA>
Co+2

> <PUBCHEM_MOLECULAR_WEIGHT>
58.933195

> <PUBCHEM_OPENEYE_CAN_SMILES>
[Co+2]

> <PUBCHEM_OPENEYE_ISO_SMILES>
[Co+2]

> <PUBCHEM_CACTVS_TPSA>
0

> <PUBCHEM_MONOISOTOPIC_WEIGHT>
58.933195

> <PUBCHEM_TOTAL_CHARGE>
2

> <PUBCHEM_HEAVY_ATOM_COUNT>
1

> <PUBCHEM_ATOM_DEF_STEREO_COUNT>
0

> <PUBCHEM_ATOM_UDEF_STEREO_COUNT>
0

> <PUBCHEM_BOND_DEF_STEREO_COUNT>
0

> <PUBCHEM_BOND_UDEF_STEREO_COUNT>
0

> <PUBCHEM_ISOTOPIC_ATOM_COUNT>
0

> <PUBCHEM_COMPONENT_COUNT>
1

> <PUBCHEM_CACTVS_TAUTO_COUNT>
1

> <PUBCHEM_COORDINATE_TYPE>
1
5
255

$$$$

