439793
  -OEChem-07051212472D

 28 27  0     0  0  0  0  0  0999 V2000
    3.4030   -0.4720    0.0000 P   0  0  0  0  0  0  0  0  0  0  0  0
    2.5369   -0.9720    0.0000 O   0  0  0  0  0  0  0  0  0  0  0  0
    2.9030    0.3940    0.0000 O   0  0  0  0  0  0  0  0  0  0  0  0
    3.9030   -1.3380    0.0000 O   0  0  0  0  0  0  0  0  0  0  0  0
    4.2690    0.0280    0.0000 N   0  0  0  0  0  0  0  0  0  0  0  0
    8.5991   -0.4720    0.0000 N   0  0  0  0  0  0  0  0  0  0  0  0
   10.3312   -0.4720    0.0000 N   0  0  0  0  0  0  0  0  0  0  0  0
    9.4651    1.0280    0.0000 N   0  0  0  0  0  0  0  0  0  0  0  0
    6.0010    0.0280    0.0000 C   0  0  0  0  0  0  0  0  0  0  0  0
    6.8671   -0.4720    0.0000 C   0  0  0  0  0  0  0  0  0  0  0  0
    5.1350   -0.4720    0.0000 C   0  0  0  0  0  0  0  0  0  0  0  0
    7.7331    0.0280    0.0000 C   0  0  0  0  0  0  0  0  0  0  0  0
    9.4651    0.0280    0.0000 C   0  0  0  0  0  0  0  0  0  0  0  0
    6.3996    0.5030    0.0000 H   0  0  0  0  0  0  0  0  0  0  0  0
    5.6025    0.5030    0.0000 H   0  0  0  0  0  0  0  0  0  0  0  0
    6.4685   -0.9469    0.0000 H   0  0  0  0  0  0  0  0  0  0  0  0
    7.2656   -0.9469    0.0000 H   0  0  0  0  0  0  0  0  0  0  0  0
    4.7365   -0.9469    0.0000 H   0  0  0  0  0  0  0  0  0  0  0  0
    5.5335   -0.9469    0.0000 H   0  0  0  0  0  0  0  0  0  0  0  0
    8.1316    0.5030    0.0000 H   0  0  0  0  0  0  0  0  0  0  0  0
    7.3346    0.5030    0.0000 H   0  0  0  0  0  0  0  0  0  0  0  0
    4.2690    0.6480    0.0000 H   0  0  0  0  0  0  0  0  0  0  0  0
    2.2830    0.3940    0.0000 H   0  0  0  0  0  0  0  0  0  0  0  0
    2.0000   -0.6620    0.0000 H   0  0  0  0  0  0  0  0  0  0  0  0
   10.8681   -0.1620    0.0000 H   0  0  0  0  0  0  0  0  0  0  0  0
   10.3312   -1.0920    0.0000 H   0  0  0  0  0  0  0  0  0  0  0  0
   10.0021    1.3380    0.0000 H   0  0  0  0  0  0  0  0  0  0  0  0
    8.9282    1.3380    0.0000 H   0  0  0  0  0  0  0  0  0  0  0  0
  1  2  1  0  0  0  0
  1  3  1  0  0  0  0
  1  4  2  0  0  0  0
  1  5  1  0  0  0  0
  2 24  1  0  0  0  0
  3 23  1  0  0  0  0
  5 11  1  0  0  0  0
  5 22  1  0  0  0  0
  6 12  1  0  0  0  0
  6 13  2  0  0  0  0
  7 13  1  0  0  0  0
  7 25  1  0  0  0  0
  7 26  1  0  0  0  0
  8 13  1  0  0  0  0
  8 27  1  0  0  0  0
  8 28  1  0  0  0  0
  9 10  1  0  0  0  0
  9 11  1  0  0  0  0
  9 14  1  0  0  0  0
  9 15  1  0  0  0  0
 10 12  1  0  0  0  0
 10 16  1  0  0  0  0
 10 17  1  0  0  0  0
 11 18  1  0  0  0  0
 11 19  1  0  0  0  0
 12 20  1  0  0  0  0
 12 21  1  0  0  0  0
M  END
> <PUBCHEM_COMPOUND_CID>
439793

> <PUBCHEM_COMPOUND_CANONICALIZED>
1

> <PUBCHEM_CACTVS_COMPLEXITY>
210

> <PUBCHEM_CACTVS_HBOND_ACCEPTOR>
5

> <PUBCHEM_CACTVS_HBOND_DONOR>
5

> <PUBCHEM_CACTVS_ROTATABLE_BOND>
6

> <PUBCHEM_CACTVS_SUBSKEYS>
AAADccBjsAIAAAAAAAAAAAAAAAAAAAAAAAAAAAAAAAAAAAAAAAAAHAAQiCAACADBAAQBAAJAABAgQAAAJIAAAAEAAAAAAIAAAAAAAAAAgAAAAAAAEAAAAAAAAAAAAAAAAAAAAAAAAAAAAAAAAAAAAAAAAA==

> <PUBCHEM_IUPAC_OPENEYE_NAME>
(4-guanidinobutylamino)phosphonic acid

> <PUBCHEM_IUPAC_CAS_NAME>
[4-(diaminomethylideneamino)butylamino]phosphonic acid

> <PUBCHEM_IUPAC_NAME>
[4-(diaminomethylideneamino)butylamino]phosphonic acid

> <PUBCHEM_IUPAC_SYSTEMATIC_NAME>
[4-[bis(azanyl)methylideneamino]butylamino]phosphonic acid

> <PUBCHEM_IUPAC_TRADITIONAL_NAME>
(4-guanidinobutylamino)phosphonic acid

> <PUBCHEM_IUPAC_INCHI>
InChI=1S/C5H15N4O3P/c6-5(7)8-3-1-2-4-9-13(10,11)12/h1-4H2,(H4,6,7,8)(H3,9,10,11,12)

> <PUBCHEM_IUPAC_INCHIKEY>
UYYDRBKHPQBWOH-UHFFFAOYSA-N

> <PUBCHEM_XLOGP3_AA>
-2.7

> <PUBCHEM_EXACT_MASS>
210.088177

> <PUBCHEM_MOLECULAR_FORMULA>
C5H15N4O3P

> <PUBCHEM_MOLECULAR_WEIGHT>
210.171362

> <PUBCHEM_OPENEYE_CAN_SMILES>
C(CCN=C(N)N)CNP(=O)(O)O

> <PUBCHEM_OPENEYE_ISO_SMILES>
C(CCN=C(N)N)CNP(=O)(O)O

> <PUBCHEM_CACTVS_TPSA>
134

> <PUBCHEM_MONOISOTOPIC_WEIGHT>
210.088177

> <PUBCHEM_TOTAL_CHARGE>
0

> <PUBCHEM_HEAVY_ATOM_COUNT>
13

> <PUBCHEM_ATOM_DEF_STEREO_COUNT>
0

> <PUBCHEM_ATOM_UDEF_STEREO_COUNT>
0

> <PUBCHEM_BOND_DEF_STEREO_COUNT>
0

> <PUBCHEM_BOND_UDEF_STEREO_COUNT>
0

> <PUBCHEM_ISOTOPIC_ATOM_COUNT>
0

> <PUBCHEM_COMPONENT_COUNT>
1

> <PUBCHEM_CACTVS_TAUTO_COUNT>
4

> <PUBCHEM_COORDINATE_TYPE>
1
5
255

$$$$

