582733
  -OEChem-06241222432D

 38 39  0     1  0  0  0  0  0999 V2000
    7.6138   -0.2861    0.0000 O   0  0  0  0  0  0  0  0  0  0  0  0
    7.9244    0.6644    0.0000 O   0  0  0  0  0  0  0  0  0  0  0  0
    6.3246   -1.4428    0.0000 O   0  0  0  0  0  0  0  0  0  0  0  0
    6.2781    1.2025    0.0000 N   0  0  0  0  0  0  0  0  0  0  0  0
    4.6783   -2.5142    0.0000 N   0  0  0  0  0  0  0  0  0  0  0  0
    4.9889    0.0458    0.0000 C   0  0  0  0  0  0  0  0  0  0  0  0
    5.9674    0.2520    0.0000 C   0  0  3  0  0  0  0  0  0  0  0  0
    4.6783   -0.9048    0.0000 C   0  0  0  0  0  0  0  0  0  0  0  0
    3.7320   -1.2095    0.0000 C   0  0  0  0  0  0  0  0  0  0  0  0
    3.7320   -2.2095    0.0000 C   0  0  0  0  0  0  0  0  0  0  0  0
    5.2619   -1.7095    0.0000 C   0  0  0  0  0  0  0  0  0  0  0  0
    7.5673    2.3592    0.0000 C   0  0  0  0  0  0  0  0  0  0  0  0
    7.2566    1.4087    0.0000 C   0  0  0  0  0  0  0  0  0  0  0  0
    2.8660   -0.7095    0.0000 C   0  0  0  0  0  0  0  0  0  0  0  0
    6.6353   -0.4923    0.0000 C   0  0  0  0  0  0  0  0  0  0  0  0
    2.8660   -2.7095    0.0000 C   0  0  0  0  0  0  0  0  0  0  0  0
    8.5458    2.5655    0.0000 C   0  0  0  0  0  0  0  0  0  0  0  0
    6.8994    3.1035    0.0000 C   0  0  0  0  0  0  0  0  0  0  0  0
    2.0000   -1.2095    0.0000 C   0  0  0  0  0  0  0  0  0  0  0  0
    2.0000   -2.2095    0.0000 C   0  0  0  0  0  0  0  0  0  0  0  0
    4.9684    0.6654    0.0000 H   0  0  0  0  0  0  0  0  0  0  0  0
    4.3751    0.1331    0.0000 H   0  0  0  0  0  0  0  0  0  0  0  0
    5.5534    0.7134    0.0000 H   0  0  0  0  0  0  0  0  0  0  0  0
    5.8640    1.6640    0.0000 H   0  0  0  0  0  0  0  0  0  0  0  0
    5.8819   -1.7095    0.0000 H   0  0  0  0  0  0  0  0  0  0  0  0
    6.9606    2.2314    0.0000 H   0  0  0  0  0  0  0  0  0  0  0  0
    4.8709   -3.1035    0.0000 H   0  0  0  0  0  0  0  0  0  0  0  0
    2.8660   -0.0895    0.0000 H   0  0  0  0  0  0  0  0  0  0  0  0
    2.8660   -3.3295    0.0000 H   0  0  0  0  0  0  0  0  0  0  0  0
    7.3609    3.5176    0.0000 H   0  0  0  0  0  0  0  0  0  0  0  0
    8.6736    1.9588    0.0000 H   0  0  0  0  0  0  0  0  0  0  0  0
    9.1524    2.6933    0.0000 H   0  0  0  0  0  0  0  0  0  0  0  0
    8.4179    3.1721    0.0000 H   0  0  0  0  0  0  0  0  0  0  0  0
    6.4854    3.5650    0.0000 H   0  0  0  0  0  0  0  0  0  0  0  0
    6.4380    2.6895    0.0000 H   0  0  0  0  0  0  0  0  0  0  0  0
    1.4631   -0.8995    0.0000 H   0  0  0  0  0  0  0  0  0  0  0  0
    1.4631   -2.5195    0.0000 H   0  0  0  0  0  0  0  0  0  0  0  0
    8.0279   -0.7476    0.0000 H   0  0  0  0  0  0  0  0  0  0  0  0
  1 15  1  0  0  0  0
  1 38  1  0  0  0  0
  2 13  2  0  0  0  0
  3 15  2  0  0  0  0
  4  7  1  0  0  0  0
  4 13  1  0  0  0  0
  4 24  1  0  0  0  0
  5 10  1  0  0  0  0
  5 11  1  0  0  0  0
  5 27  1  0  0  0  0
  6  7  1  0  0  0  0
  6  8  1  0  0  0  0
  6 21  1  0  0  0  0
  6 22  1  0  0  0  0
  7 15  1  0  0  0  0
  7 23  1  0  0  0  0
  8  9  1  0  0  0  0
  8 11  2  0  0  0  0
  9 10  1  0  0  0  0
  9 14  2  0  0  0  0
 10 16  2  0  0  0  0
 11 25  1  0  0  0  0
 12 13  1  0  0  0  0
 12 17  1  0  0  0  0
 12 18  1  0  0  0  0
 12 26  1  0  0  0  0
 14 19  1  0  0  0  0
 14 28  1  0  0  0  0
 16 20  1  0  0  0  0
 16 29  1  0  0  0  0
 17 31  1  0  0  0  0
 17 32  1  0  0  0  0
 17 33  1  0  0  0  0
 18 30  1  0  0  0  0
 18 34  1  0  0  0  0
 18 35  1  0  0  0  0
 19 20  2  0  0  0  0
 19 36  1  0  0  0  0
 20 37  1  0  0  0  0
M  END
> <PUBCHEM_COMPOUND_CID>
582733

> <PUBCHEM_COMPOUND_CANONICALIZED>
1

> <PUBCHEM_CACTVS_COMPLEXITY>
370

> <PUBCHEM_CACTVS_HBOND_ACCEPTOR>
3

> <PUBCHEM_CACTVS_HBOND_DONOR>
3

> <PUBCHEM_CACTVS_ROTATABLE_BOND>
5

> <PUBCHEM_CACTVS_SUBSKEYS>
AAADceBzMAAAAAAAAAAAAAAAAAAAAWAAAAAwAAAAAAAAAFgB8AAAHgAQCAAADSjBngQ+yPLJkgCoAzX3XACCgCAxAiAI2aG4ZJgKIPLAkbGEYAhklgDYyAeY2fKOgAAAAAACAAAAAAAAAAQAAAAAAAAAAA==

> <PUBCHEM_IUPAC_OPENEYE_NAME>
3-(1H-indol-3-yl)-2-(2-methylpropanoylamino)propanoic acid

> <PUBCHEM_IUPAC_CAS_NAME>
3-(1H-indol-3-yl)-2-[(2-methyl-1-oxopropyl)amino]propanoic acid

> <PUBCHEM_IUPAC_NAME>
3-(1H-indol-3-yl)-2-(2-methylpropanoylamino)propanoic acid

> <PUBCHEM_IUPAC_SYSTEMATIC_NAME>
3-(1H-indol-3-yl)-2-(2-methylpropanoylamino)propanoic acid

> <PUBCHEM_IUPAC_TRADITIONAL_NAME>
3-(1H-indol-3-yl)-2-(isobutyrylamino)propionic acid

> <PUBCHEM_IUPAC_INCHI>
InChI=1S/C15H18N2O3/c1-9(2)14(18)17-13(15(19)20)7-10-8-16-12-6-4-3-5-11(10)12/h3-6,8-9,13,16H,7H2,1-2H3,(H,17,18)(H,19,20)

> <PUBCHEM_IUPAC_INCHIKEY>
GETUXIPWHYHOME-UHFFFAOYSA-N

> <PUBCHEM_XLOGP3>
1.6

> <PUBCHEM_EXACT_MASS>
274.131742

> <PUBCHEM_MOLECULAR_FORMULA>
C15H18N2O3

> <PUBCHEM_MOLECULAR_WEIGHT>
274.31502

> <PUBCHEM_OPENEYE_CAN_SMILES>
CC(C)C(=O)NC(CC1=CNC2=CC=CC=C21)C(=O)O

> <PUBCHEM_OPENEYE_ISO_SMILES>
CC(C)C(=O)NC(CC1=CNC2=CC=CC=C21)C(=O)O

> <PUBCHEM_CACTVS_TPSA>
82.2

> <PUBCHEM_MONOISOTOPIC_WEIGHT>
274.131742

> <PUBCHEM_TOTAL_CHARGE>
0

> <PUBCHEM_HEAVY_ATOM_COUNT>
20

> <PUBCHEM_ATOM_DEF_STEREO_COUNT>
0

> <PUBCHEM_ATOM_UDEF_STEREO_COUNT>
1

> <PUBCHEM_BOND_DEF_STEREO_COUNT>
0

> <PUBCHEM_BOND_UDEF_STEREO_COUNT>
0

> <PUBCHEM_ISOTOPIC_ATOM_COUNT>
0

> <PUBCHEM_COMPONENT_COUNT>
1

> <PUBCHEM_CACTVS_TAUTO_COUNT>
2

> <PUBCHEM_COORDINATE_TYPE>
1
5
255

> <PUBCHEM_BONDANNOTATIONS>
10  16  8
14  19  8
16  20  8
19  20  8
5  10  8
5  11  8
7  6  3
8  11  8
8  9  8
9  10  8
9  14  8

$$$$

