   Color/Form

     * Grayish-white to greenish-white rhombic crystals or amorphous
       powder /SRP: somewhat wet/
     * White when dehydrated
     * Gray to white and has rhombic crystals

   from [1]HSDB

   Odor
        Pleasant odor
   from [2]HSDB

   Boiling Point
        650 deg C (decomp to cupric oxide)
   from [3]HSDB

   Melting Point
        590 deg C decomp
   from [4]HSDB

   Density/Specific Gravity
        3.6
   from [5]HSDB

   Solubilities

     * Soluble in methanol (1.1 g/100 ml), but insoluble in ethanol; it
       readily dissolves in aqueous ammonia and excess alkali metal
       cyanides, with the formation of complexes
     * In water, 243 g/l @ 0 deg C.
     * 75.4 g/100 cc water @ 100 deg C
     * 1.04 g/100 cc methanol @ 18 deg C

   from [6]HSDB

   Spectral Properties
        INDICES OF REFRACTION: 1.733, 1.724, 1.739
   from [7]HSDB

   Other Chemical/Physical Properties

     * On heating dec above 560 degree
     * Hydroscopic, with conversion to the pentahydrate in moist air below
       30 deg C
     * Dielectric constant: 10.3 @ 17 to 22 deg C
     * SOLN ARE STRONGLY CORROSIVE TO IRON & GALVANIZED IRON. /CUPRIC
       SULFATE SOLN/

   from [8]HSDB

   Computed Properties
   Molecular Weight                  159.6086 [g/mol]
   Molecular Formula                 CuO[4]S
   H-Bond Donor                      0
   H-Bond Acceptor                   4
   Rotatable Bond Count              0
   Exact Mass                        158.881327
   MonoIsotopic Mass                 158.881327
   Topological Polar Surface Area    88.6
   Heavy Atom Count                  6
   Formal Charge                     0
   Complexity                        62.2
   Isotope Atom Count                0
   Defined Atom Stereocenter Count   0
   Undefined Atom Stereocenter Count 0
   Defined Bond Stereocenter Count   0
   Undefined Bond Stereocenter Count 0
   Covalently-Bonded Unit Count      2

References

   1. http://toxnet.nlm.nih.gov/cgi-bin/sis/search/r?dbs+hsdb:@term+@rn+@rel+7758-98-7
   2. http://toxnet.nlm.nih.gov/cgi-bin/sis/search/r?dbs+hsdb:@term+@rn+@rel+7758-98-7
   3. http://toxnet.nlm.nih.gov/cgi-bin/sis/search/r?dbs+hsdb:@term+@rn+@rel+7758-98-7
   4. http://toxnet.nlm.nih.gov/cgi-bin/sis/search/r?dbs+hsdb:@term+@rn+@rel+7758-98-7
   5. http://toxnet.nlm.nih.gov/cgi-bin/sis/search/r?dbs+hsdb:@term+@rn+@rel+7758-98-7
   6. http://toxnet.nlm.nih.gov/cgi-bin/sis/search/r?dbs+hsdb:@term+@rn+@rel+7758-98-7
   7. http://toxnet.nlm.nih.gov/cgi-bin/sis/search/r?dbs+hsdb:@term+@rn+@rel+7758-98-7
   8. http://toxnet.nlm.nih.gov/cgi-bin/sis/search/r?dbs+hsdb:@term+@rn+@rel+7758-98-7
