5280845
  -OEChem-07051212502D

 80 82  0     1  0  0  0  0  0999 V2000
    2.8658    3.7149    0.0000 O   0  0  0  0  0  0  0  0  0  0  0  0
    5.4641    4.2154    0.0000 O   0  0  0  0  0  0  0  0  0  0  0  0
    2.0000    6.2154    0.0000 O   0  0  0  0  0  0  0  0  0  0  0  0
    3.7320    4.2154    0.0000 C   0  0  3  0  0  0  0  0  0  0  0  0
    2.8660    4.7154    0.0000 C   0  0  3  0  0  0  0  0  0  0  0  0
    4.5981    3.7154    0.0000 C   0  0  0  0  0  0  0  0  0  0  0  0
    4.5981    4.7154    0.0000 C   0  0  0  0  0  0  0  0  0  0  0  0
    2.8660    5.7154    0.0000 C   0  0  0  0  0  0  0  0  0  0  0  0
    2.0000    5.2154    0.0000 C   0  0  0  0  0  0  0  0  0  0  0  0
    4.5981    5.7154    0.0000 C   0  0  0  0  0  0  0  0  0  0  0  0
    3.7320    6.2154    0.0000 C   0  0  0  0  0  0  0  0  0  0  0  0
    4.5981    2.7154    0.0000 C   0  0  0  0  0  0  0  0  0  0  0  0
    5.5081    6.2222    0.0000 C   0  0  0  0  0  0  0  0  0  0  0  0
    3.7160    7.2569    0.0000 C   0  0  0  0  0  0  0  0  0  0  0  0
    5.4641    2.2154    0.0000 C   0  0  0  0  0  0  0  0  0  0  0  0
    5.4641    1.2154    0.0000 C   0  0  0  0  0  0  0  0  0  0  0  0
    5.5161    7.2638    0.0000 C   0  0  0  0  0  0  0  0  0  0  0  0
    4.6140    7.7846    0.0000 C   0  0  0  0  0  0  0  0  0  0  0  0
    6.3301    0.7154    0.0000 C   0  0  0  0  0  0  0  0  0  0  0  0
    7.1962   -0.7846    0.0000 C   0  0  3  0  0  0  0  0  0  0  0  0
    6.3301   -0.2846    0.0000 C   0  0  0  0  0  0  0  0  0  0  0  0
    6.3301    2.7154    0.0000 C   0  0  0  0  0  0  0  0  0  0  0  0
    7.1962   -1.7846    0.0000 C   0  0  0  0  0  0  0  0  0  0  0  0
    8.0622   -2.2846    0.0000 C   0  0  0  0  0  0  0  0  0  0  0  0
    8.9282   -3.7846    0.0000 C   0  0  3  0  0  0  0  0  0  0  0  0
    8.0622   -3.2846    0.0000 C   0  0  0  0  0  0  0  0  0  0  0  0
    8.9282   -4.7846    0.0000 C   0  0  0  0  0  0  0  0  0  0  0  0
    8.0622   -0.2846    0.0000 C   0  0  0  0  0  0  0  0  0  0  0  0
    9.7942   -5.2846    0.0000 C   0  0  0  0  0  0  0  0  0  0  0  0
    9.7942   -3.2846    0.0000 C   0  0  0  0  0  0  0  0  0  0  0  0
    9.7942   -6.2846    0.0000 C   0  0  0  0  0  0  0  0  0  0  0  0
   10.6603   -6.7846    0.0000 C   0  0  0  0  0  0  0  0  0  0  0  0
   10.6603   -7.7846    0.0000 C   0  0  0  0  0  0  0  0  0  0  0  0
   11.5263   -6.2846    0.0000 C   0  0  0  0  0  0  0  0  0  0  0  0
    5.2087    3.6077    0.0000 H   0  0  0  0  0  0  0  0  0  0  0  0
    4.8101    4.2980    0.0000 H   0  0  0  0  0  0  0  0  0  0  0  0
    2.3100    5.7523    0.0000 H   0  0  0  0  0  0  0  0  0  0  0  0
    1.4631    5.5254    0.0000 H   0  0  0  0  0  0  0  0  0  0  0  0
    1.6900    4.6784    0.0000 H   0  0  0  0  0  0  0  0  0  0  0  0
    4.0611    2.4054    0.0000 H   0  0  0  0  0  0  0  0  0  0  0  0
    6.0414    5.9060    0.0000 H   0  0  0  0  0  0  0  0  0  0  0  0
    3.1755    7.5606    0.0000 H   0  0  0  0  0  0  0  0  0  0  0  0
    4.8535    1.3230    0.0000 H   0  0  0  0  0  0  0  0  0  0  0  0
    5.2520    0.6328    0.0000 H   0  0  0  0  0  0  0  0  0  0  0  0
    6.0542    7.5717    0.0000 H   0  0  0  0  0  0  0  0  0  0  0  0
    4.6116    8.4046    0.0000 H   0  0  0  0  0  0  0  0  0  0  0  0
    6.9407    0.6077    0.0000 H   0  0  0  0  0  0  0  0  0  0  0  0
    6.5422    1.2980    0.0000 H   0  0  0  0  0  0  0  0  0  0  0  0
    7.7331   -1.0946    0.0000 H   0  0  0  0  0  0  0  0  0  0  0  0
    5.7196   -0.1770    0.0000 H   0  0  0  0  0  0  0  0  0  0  0  0
    6.1181   -0.8672    0.0000 H   0  0  0  0  0  0  0  0  0  0  0  0
    6.6401    2.1784    0.0000 H   0  0  0  0  0  0  0  0  0  0  0  0
    6.8671    3.0254    0.0000 H   0  0  0  0  0  0  0  0  0  0  0  0
    6.0201    3.2523    0.0000 H   0  0  0  0  0  0  0  0  0  0  0  0
    6.5856   -1.6770    0.0000 H   0  0  0  0  0  0  0  0  0  0  0  0
    6.9841   -2.3672    0.0000 H   0  0  0  0  0  0  0  0  0  0  0  0
    8.6728   -2.3923    0.0000 H   0  0  0  0  0  0  0  0  0  0  0  0
    8.2742   -1.7020    0.0000 H   0  0  0  0  0  0  0  0  0  0  0  0
    9.4651   -4.0946    0.0000 H   0  0  0  0  0  0  0  0  0  0  0  0
    7.4516   -3.1770    0.0000 H   0  0  0  0  0  0  0  0  0  0  0  0
    7.8501   -3.8672    0.0000 H   0  0  0  0  0  0  0  0  0  0  0  0
    8.3176   -4.6770    0.0000 H   0  0  0  0  0  0  0  0  0  0  0  0
    8.7162   -5.3672    0.0000 H   0  0  0  0  0  0  0  0  0  0  0  0
    8.3722   -0.8216    0.0000 H   0  0  0  0  0  0  0  0  0  0  0  0
    8.5991    0.0254    0.0000 H   0  0  0  0  0  0  0  0  0  0  0  0
    7.7522    0.2523    0.0000 H   0  0  0  0  0  0  0  0  0  0  0  0
   10.4048   -5.3923    0.0000 H   0  0  0  0  0  0  0  0  0  0  0  0
   10.0063   -4.7020    0.0000 H   0  0  0  0  0  0  0  0  0  0  0  0
   10.1042   -3.8216    0.0000 H   0  0  0  0  0  0  0  0  0  0  0  0
   10.3312   -2.9746    0.0000 H   0  0  0  0  0  0  0  0  0  0  0  0
    9.4842   -2.7477    0.0000 H   0  0  0  0  0  0  0  0  0  0  0  0
    9.1836   -6.1770    0.0000 H   0  0  0  0  0  0  0  0  0  0  0  0
    9.5822   -6.8672    0.0000 H   0  0  0  0  0  0  0  0  0  0  0  0
   11.1972   -7.0946    0.0000 H   0  0  0  0  0  0  0  0  0  0  0  0
   10.0403   -7.7846    0.0000 H   0  0  0  0  0  0  0  0  0  0  0  0
   10.6603   -8.4046    0.0000 H   0  0  0  0  0  0  0  0  0  0  0  0
   11.8363   -6.8216    0.0000 H   0  0  0  0  0  0  0  0  0  0  0  0
   12.0632   -5.9746    0.0000 H   0  0  0  0  0  0  0  0  0  0  0  0
   11.2163   -5.7477    0.0000 H   0  0  0  0  0  0  0  0  0  0  0  0
   11.2803   -7.7846    0.0000 H   0  0  0  0  0  0  0  0  0  0  0  0
  1  4  1  0  0  0  0
  1  5  1  0  0  0  0
  2  7  2  0  0  0  0
  3  8  2  0  0  0  0
  4  5  1  0  0  0  0
  4  6  1  0  0  0  0
  4  7  1  0  0  0  0
  5  8  1  0  0  0  0
  5  9  1  0  0  0  0
  6 12  1  0  0  0  0
  6 35  1  0  0  0  0
  6 36  1  0  0  0  0
  7 10  1  0  0  0  0
  8 11  1  0  0  0  0
  9 37  1  0  0  0  0
  9 38  1  0  0  0  0
  9 39  1  0  0  0  0
 10 11  1  0  0  0  0
 10 13  2  0  0  0  0
 11 14  2  0  0  0  0
 12 15  2  0  0  0  0
 12 40  1  0  0  0  0
 13 17  1  0  0  0  0
 13 41  1  0  0  0  0
 14 18  1  0  0  0  0
 14 42  1  0  0  0  0
 15 16  1  0  0  0  0
 15 22  1  0  0  0  0
 16 19  1  0  0  0  0
 16 43  1  0  0  0  0
 16 44  1  0  0  0  0
 17 18  2  0  0  0  0
 17 45  1  0  0  0  0
 18 46  1  0  0  0  0
 19 21  1  0  0  0  0
 19 47  1  0  0  0  0
 19 48  1  0  0  0  0
 20 21  1  0  0  0  0
 20 23  1  0  0  0  0
 20 28  1  0  0  0  0
 20 49  1  0  0  0  0
 21 50  1  0  0  0  0
 21 51  1  0  0  0  0
 22 52  1  0  0  0  0
 22 53  1  0  0  0  0
 22 54  1  0  0  0  0
 23 24  1  0  0  0  0
 23 55  1  0  0  0  0
 23 56  1  0  0  0  0
 24 26  1  0  0  0  0
 24 57  1  0  0  0  0
 24 58  1  0  0  0  0
 25 26  1  0  0  0  0
 25 27  1  0  0  0  0
 25 30  1  0  0  0  0
 25 59  1  0  0  0  0
 26 60  1  0  0  0  0
 26 61  1  0  0  0  0
 27 29  1  0  0  0  0
 27 62  1  0  0  0  0
 27 63  1  0  0  0  0
 28 64  1  0  0  0  0
 28 65  1  0  0  0  0
 28 66  1  0  0  0  0
 29 31  1  0  0  0  0
 29 67  1  0  0  0  0
 29 68  1  0  0  0  0
 30 69  1  0  0  0  0
 30 70  1  0  0  0  0
 30 71  1  0  0  0  0
 31 32  1  0  0  0  0
 31 72  1  0  0  0  0
 31 73  1  0  0  0  0
 32 33  1  0  0  0  0
 32 34  1  0  0  0  0
 32 74  1  0  0  0  0
 33 75  1  0  0  0  0
 33 76  1  0  0  0  0
 33 80  1  0  0  0  0
 34 77  1  0  0  0  0
 34 78  1  0  0  0  0
 34 79  1  0  0  0  0
M  END
> <PUBCHEM_COMPOUND_CID>
5280845

> <PUBCHEM_COMPOUND_CANONICALIZED>
1

> <PUBCHEM_CACTVS_COMPLEXITY>
737

> <PUBCHEM_CACTVS_HBOND_ACCEPTOR>
3

> <PUBCHEM_CACTVS_HBOND_DONOR>
0

> <PUBCHEM_CACTVS_ROTATABLE_BOND>
14

> <PUBCHEM_CACTVS_SUBSKEYS>
AAADcfB4MAAAAAAAAAAAAAAAEgAAAAAAAAAwYAAABIAAAADBAAAAGgAAAAAADUSAmAAyAIAABACIAqBSAAICAAAkAAAIiAFAAMgIIDaAFRSCIQAk4AEIiYeJzPDOgAAAAAAQAADAAAYAADAAAAAAAAAAAA==

> <PUBCHEM_IUPAC_OPENEYE_NAME>
7a-methyl-1a-[(E)-3,7,11,15-tetramethylhexadec-2-enyl]naphtho[2,3-b]oxirene-2,7-dione

> <PUBCHEM_IUPAC_CAS_NAME>
7a-methyl-1a-[(E)-3,7,11,15-tetramethylhexadec-2-enyl]naphtho[2,3-b]oxirene-2,7-dione

> <PUBCHEM_IUPAC_NAME>
7a-methyl-1a-[(E)-3,7,11,15-tetramethylhexadec-2-enyl]naphtho[2,3-b]oxirene-2,7-dione

> <PUBCHEM_IUPAC_SYSTEMATIC_NAME>
7a-methyl-1a-[(E)-3,7,11,15-tetramethylhexadec-2-enyl]naphtho[2,3-b]oxirene-2,7-dione

> <PUBCHEM_IUPAC_TRADITIONAL_NAME>
7a-methyl-1a-[(E)-3,7,11,15-tetramethylhexadec-2-enyl]naphtho[2,3-b]oxirene-2,7-quinone

> <PUBCHEM_IUPAC_INCHI>
InChI=1S/C31H46O3/c1-22(2)12-9-13-23(3)14-10-15-24(4)16-11-17-25(5)20-21-31-29(33)27-19-8-7-18-26(27)28(32)30(31,6)34-31/h7-8,18-20,22-24H,9-17,21H2,1-6H3/b25-20+

> <PUBCHEM_IUPAC_INCHIKEY>
KUTXFBIHPWIDJQ-LKUDQCMESA-N

> <PUBCHEM_XLOGP3_AA>
10.1

> <PUBCHEM_EXACT_MASS>
466.344695

> <PUBCHEM_MOLECULAR_FORMULA>
C31H46O3

> <PUBCHEM_MOLECULAR_WEIGHT>
466.69514

> <PUBCHEM_OPENEYE_CAN_SMILES>
CC(C)CCCC(C)CCCC(C)CCCC(=CCC12C(=O)C3=CC=CC=C3C(=O)C1(O2)C)C

> <PUBCHEM_OPENEYE_ISO_SMILES>
CC(C)CCCC(C)CCCC(C)CCC/C(=C/CC12C(=O)C3=CC=CC=C3C(=O)C1(O2)C)/C

> <PUBCHEM_CACTVS_TPSA>
46.7

> <PUBCHEM_MONOISOTOPIC_WEIGHT>
466.344695

> <PUBCHEM_TOTAL_CHARGE>
0

> <PUBCHEM_HEAVY_ATOM_COUNT>
34

> <PUBCHEM_ATOM_DEF_STEREO_COUNT>
0

> <PUBCHEM_ATOM_UDEF_STEREO_COUNT>
4

> <PUBCHEM_BOND_DEF_STEREO_COUNT>
1

> <PUBCHEM_BOND_UDEF_STEREO_COUNT>
0

> <PUBCHEM_ISOTOPIC_ATOM_COUNT>
0

> <PUBCHEM_COMPONENT_COUNT>
1

> <PUBCHEM_CACTVS_TAUTO_COUNT>
1

> <PUBCHEM_COORDINATE_TYPE>
1
5
255

> <PUBCHEM_BONDANNOTATIONS>
10  11  8
10  13  8
11  14  8
13  17  8
14  18  8
17  18  8
20  28  3
25  30  3
4  6  3
5  9  3

$$$$

