442535
  -OEChem-07051212582D

 26 27  0     1  0  0  0  0  0999 V2000
    2.0000    1.0600    0.0000 O   0  0  0  0  0  0  0  0  0  0  0  0
    2.0000   -1.9400    0.0000 O   0  0  0  0  0  0  0  0  0  0  0  0
    2.8660    2.5600    0.0000 O   0  0  0  0  0  0  0  0  0  0  0  0
    5.5321    1.0808    0.0000 N   0  0  0  0  0  0  0  0  0  0  0  0
    2.8660   -0.4400    0.0000 C   0  0  3  0  0  0  0  0  0  0  0  0
    3.7320    0.0600    0.0000 C   0  0  0  0  0  0  0  0  0  0  0  0
    2.0000    0.0600    0.0000 C   0  0  0  0  0  0  0  0  0  0  0  0
    2.8660   -1.4400    0.0000 C   0  0  0  0  0  0  0  0  0  0  0  0
    3.7320    1.0600    0.0000 C   0  0  0  0  0  0  0  0  0  0  0  0
    4.6260   -0.4747    0.0000 C   0  0  0  0  0  0  0  0  0  0  0  0
    2.8660    1.5600    0.0000 C   0  0  0  0  0  0  0  0  0  0  0  0
    4.6260    1.5947    0.0000 C   0  0  0  0  0  0  0  0  0  0  0  0
    5.5321    0.0392    0.0000 C   0  0  0  0  0  0  0  0  0  0  0  0
    4.6144   -1.4746    0.0000 C   0  0  0  0  0  0  0  0  0  0  0  0
    5.4746   -1.9846    0.0000 C   0  0  0  0  0  0  0  0  0  0  0  0
    3.4030   -0.7500    0.0000 H   0  0  0  0  0  0  0  0  0  0  0  0
    1.3894    0.1677    0.0000 H   0  0  0  0  0  0  0  0  0  0  0  0
    1.7880   -0.5226    0.0000 H   0  0  0  0  0  0  0  0  0  0  0  0
    3.0781   -2.0226    0.0000 H   0  0  0  0  0  0  0  0  0  0  0  0
    3.4766   -1.3323    0.0000 H   0  0  0  0  0  0  0  0  0  0  0  0
    4.6188    2.2146    0.0000 H   0  0  0  0  0  0  0  0  0  0  0  0
    6.0678   -0.2729    0.0000 H   0  0  0  0  0  0  0  0  0  0  0  0
    4.0740   -1.7784    0.0000 H   0  0  0  0  0  0  0  0  0  0  0  0
    2.0000   -2.5600    0.0000 H   0  0  0  0  0  0  0  0  0  0  0  0
    5.4675   -2.6045    0.0000 H   0  0  0  0  0  0  0  0  0  0  0  0
    6.0151   -1.6808    0.0000 H   0  0  0  0  0  0  0  0  0  0  0  0
  1  7  1  0  0  0  0
  1 11  1  0  0  0  0
  2  8  1  0  0  0  0
  2 24  1  0  0  0  0
  3 11  2  0  0  0  0
  4 12  2  0  0  0  0
  4 13  1  0  0  0  0
  5  6  1  0  0  0  0
  5  7  1  0  0  0  0
  5  8  1  0  0  0  0
  5 16  1  0  0  0  0
  6  9  2  0  0  0  0
  6 10  1  0  0  0  0
  7 17  1  0  0  0  0
  7 18  1  0  0  0  0
  8 19  1  0  0  0  0
  8 20  1  0  0  0  0
  9 11  1  0  0  0  0
  9 12  1  0  0  0  0
 10 13  2  0  0  0  0
 10 14  1  0  0  0  0
 12 21  1  0  0  0  0
 13 22  1  0  0  0  0
 14 15  2  0  0  0  0
 14 23  1  0  0  0  0
 15 25  1  0  0  0  0
 15 26  1  0  0  0  0
M  END
> <PUBCHEM_COMPOUND_CID>
442535

> <PUBCHEM_COMPOUND_CANONICALIZED>
1

> <PUBCHEM_CACTVS_COMPLEXITY>
267

> <PUBCHEM_CACTVS_HBOND_ACCEPTOR>
4

> <PUBCHEM_CACTVS_HBOND_DONOR>
1

> <PUBCHEM_CACTVS_ROTATABLE_BOND>
2

> <PUBCHEM_CACTVS_SUBSKEYS>
AAADccByMAAAAAAAAAAAAAAAAAAAAAAAAAAsSAAAAAAAAACxgAAAHgAACAAADQDhmgYsiJIIFgCoAjD3TACCgCA1ACAI2CEoTNgINnrAtZmGcYhnwAHI6caYNQoOgAAAAAAAAAAAAAAAAAAAAAAAAAAAAA==

> <PUBCHEM_IUPAC_OPENEYE_NAME>
4-(hydroxymethyl)-5-vinyl-3,4-dihydropyrano[3,4-c]pyridin-1-one

> <PUBCHEM_IUPAC_CAS_NAME>
5-ethenyl-4-(hydroxymethyl)-3,4-dihydropyrano[3,4-c]pyridin-1-one

> <PUBCHEM_IUPAC_NAME>
5-ethenyl-4-(hydroxymethyl)-3,4-dihydropyrano[3,4-c]pyridin-1-one

> <PUBCHEM_IUPAC_SYSTEMATIC_NAME>
5-ethenyl-4-(hydroxymethyl)-3,4-dihydropyrano[3,4-c]pyridin-1-one

> <PUBCHEM_IUPAC_TRADITIONAL_NAME>
4-methylol-5-vinyl-3,4-dihydropyrano[3,4-c]pyridin-1-one

> <PUBCHEM_IUPAC_INCHI>
InChI=1S/C11H11NO3/c1-2-7-3-12-4-9-10(7)8(5-13)6-15-11(9)14/h2-4,8,13H,1,5-6H2

> <PUBCHEM_IUPAC_INCHIKEY>
PGWRAJMYNMYBFM-UHFFFAOYSA-N

> <PUBCHEM_XLOGP3_AA>
0.6

> <PUBCHEM_EXACT_MASS>
205.073893

> <PUBCHEM_MOLECULAR_FORMULA>
C11H11NO3

> <PUBCHEM_MOLECULAR_WEIGHT>
205.20994

> <PUBCHEM_OPENEYE_CAN_SMILES>
C=CC1=C2C(COC(=O)C2=CN=C1)CO

> <PUBCHEM_OPENEYE_ISO_SMILES>
C=CC1=C2C(COC(=O)C2=CN=C1)CO

> <PUBCHEM_CACTVS_TPSA>
59.4

> <PUBCHEM_MONOISOTOPIC_WEIGHT>
205.073893

> <PUBCHEM_TOTAL_CHARGE>
0

> <PUBCHEM_HEAVY_ATOM_COUNT>
15

> <PUBCHEM_ATOM_DEF_STEREO_COUNT>
0

> <PUBCHEM_ATOM_UDEF_STEREO_COUNT>
1

> <PUBCHEM_BOND_DEF_STEREO_COUNT>
0

> <PUBCHEM_BOND_UDEF_STEREO_COUNT>
0

> <PUBCHEM_ISOTOPIC_ATOM_COUNT>
0

> <PUBCHEM_COMPONENT_COUNT>
1

> <PUBCHEM_CACTVS_TAUTO_COUNT>
1

> <PUBCHEM_COORDINATE_TYPE>
1
5
255

> <PUBCHEM_BONDANNOTATIONS>
10  13  8
4  12  8
4  13  8
5  8  3
6  10  8
6  9  8
9  12  8

$$$$

