   Color/Form

     * COLORLESS, MOBILE LIQUID
     * WATER WHITE LIQUID

   from [1]HSDB

   Odor
        PHENOLIC ODOR
   from [2]HSDB

   Boiling Point
        196 DEG C
   from [3]HSDB

   Density/Specific Gravity
        1.073 @ 20 DEG C/4 DEG C
   from [4]HSDB

   Octanol/Water Partition Coefficient
        1.49
   from [5]HSDB

   Solubilities

     * PRACTICALLY INSOL IN WATER; SOL IN GLACIAL ACETIC ACID; MISCIBLE
       WITH ALCOHOL, CHLOROFORM, ETHER
     * Miscible with oxygenated and chlorinated solvents.

   from [6]HSDB

   Spectral Properties

     * INDEX OF REFRACTION: 1.5030 @ 20 DEG C/D (ALMOST THE SAME AS
       GLASS); HIGHLY REFRACTIVE
     * MAX ABSORPTION (ALCOHOL): 265 NM (LOG E= 2.7); SADTLER REFERENCE
       NUMBER: 5152 (IR, PRISM); 1400 (UV)
     * IR: 5703 (Coblentz Society Spectral Collection)
     * UV: 8-90 (Organic Electronic Spectral Data, Phillips et al, John
       Wiley & Sons, New York)
     * NMR: 6777 (Sadtler Research Laboratories Spectral Collection)
     * MASS: 312 (National Bureau of Standards EPA-NIH Mass Spectra Data
       Base, NSRDS-NBS-63)

   from [7]HSDB

   Vapor Density
        4.7
   from [8]HSDB

   Computed Properties
   Molecular Weight                  136.14792 [g/mol]
   Molecular Formula                 C[8]H[8]O[2]
   XLogP3                            1.5
   H-Bond Donor                      0
   H-Bond Acceptor                   2
   Rotatable Bond Count              2
   Exact Mass                        136.052429
   MonoIsotopic Mass                 136.052429
   Topological Polar Surface Area    26.3
   Heavy Atom Count                  10
   Formal Charge                     0
   Complexity                        114
   Isotope Atom Count                0
   Defined Atom Stereocenter Count   0
   Undefined Atom Stereocenter Count 0
   Defined Bond Stereocenter Count   0
   Undefined Bond Stereocenter Count 0
   Covalently-Bonded Unit Count      1
   Feature 3D Acceptor Count         1
   Feature 3D Ring Count             1
   Effective Rotor Count             2
   Conformer Sampling RMSD           0.4
   CID Conformer Count               [9]16

References

   1. http://toxnet.nlm.nih.gov/cgi-bin/sis/search/r?dbs+hsdb:@term+@rn+@rel+122-79-2
   2. http://toxnet.nlm.nih.gov/cgi-bin/sis/search/r?dbs+hsdb:@term+@rn+@rel+122-79-2
   3. http://toxnet.nlm.nih.gov/cgi-bin/sis/search/r?dbs+hsdb:@term+@rn+@rel+122-79-2
   4. http://toxnet.nlm.nih.gov/cgi-bin/sis/search/r?dbs+hsdb:@term+@rn+@rel+122-79-2
   5. http://toxnet.nlm.nih.gov/cgi-bin/sis/search/r?dbs+hsdb:@term+@rn+@rel+122-79-2
   6. http://toxnet.nlm.nih.gov/cgi-bin/sis/search/r?dbs+hsdb:@term+@rn+@rel+122-79-2
   7. http://toxnet.nlm.nih.gov/cgi-bin/sis/search/r?dbs+hsdb:@term+@rn+@rel+122-79-2
   8. http://toxnet.nlm.nih.gov/cgi-bin/sis/search/r?dbs+hsdb:@term+@rn+@rel+122-79-2
   9. http://pubchem.ncbi.nlm.nih.gov/vw3d/vw3d.cgi?cid=31229
