13002
  -OEChem-07051213132D

  9  9  0     1  0  0  0  0  0999 V2000
    4.2320    0.9930    0.0000 O   0  0  0  0  0  0  0  0  0  0  0  0
    2.0000    0.1270    0.0000 O   0  0  0  0  0  0  0  0  0  0  0  0
    3.7320    0.1270    0.0000 C   0  0  3  0  0  0  0  0  0  0  0  0
    4.7320    0.1270    0.0000 C   0  0  0  0  0  0  0  0  0  0  0  0
    2.8660   -0.3730    0.0000 C   0  0  0  0  0  0  0  0  0  0  0  0
    3.1310    0.7280    0.0000 H   0  0  0  0  0  0  0  0  0  0  0  0
    4.8397   -0.4836    0.0000 H   0  0  0  0  0  0  0  0  0  0  0  0
    5.3147    0.3390    0.0000 H   0  0  0  0  0  0  0  0  0  0  0  0
    2.8660   -0.9930    0.0000 H   0  0  0  0  0  0  0  0  0  0  0  0
  1  3  1  0  0  0  0
  1  4  1  0  0  0  0
  2  5  2  0  0  0  0
  3  4  1  0  0  0  0
  3  5  1  0  0  0  0
  3  6  1  0  0  0  0
  4  7  1  0  0  0  0
  4  8  1  0  0  0  0
  5  9  1  0  0  0  0
M  END
> <PUBCHEM_COMPOUND_CID>
13002

> <PUBCHEM_COMPOUND_CANONICALIZED>
1

> <PUBCHEM_CACTVS_COMPLEXITY>
50.9

> <PUBCHEM_CACTVS_HBOND_ACCEPTOR>
2

> <PUBCHEM_CACTVS_HBOND_DONOR>
0

> <PUBCHEM_CACTVS_ROTATABLE_BOND>
1

> <PUBCHEM_CACTVS_SUBSKEYS>
AAADcYBAMAAAAAAAAAAAAAAAEgAAAAAAAAAAAAAAAAAAAAAAAAAAGgAAAAAACBSggAIAAAAABAAIAAgQgAIAAAAAAAAAAAFAAAAAAAQAAAQAAAAAIAAAAAAAAAAAAAAAAAAAAAAAAAAAAAAAAAAAAAAAAA==

> <PUBCHEM_IUPAC_OPENEYE_NAME>
oxirane-2-carbaldehyde

> <PUBCHEM_IUPAC_CAS_NAME>
2-oxiranecarboxaldehyde

> <PUBCHEM_IUPAC_NAME>
oxirane-2-carbaldehyde

> <PUBCHEM_IUPAC_SYSTEMATIC_NAME>
oxirane-2-carbaldehyde

> <PUBCHEM_IUPAC_TRADITIONAL_NAME>
oxirane-2-carbaldehyde

> <PUBCHEM_IUPAC_INCHI>
InChI=1S/C3H4O2/c4-1-3-2-5-3/h1,3H,2H2

> <PUBCHEM_IUPAC_INCHIKEY>
IWYRWIUNAVNFPE-UHFFFAOYSA-N

> <PUBCHEM_XLOGP3_AA>
-0.6

> <PUBCHEM_EXACT_MASS>
72.021129

> <PUBCHEM_MOLECULAR_FORMULA>
C3H4O2

> <PUBCHEM_MOLECULAR_WEIGHT>
72.06266

> <PUBCHEM_OPENEYE_CAN_SMILES>
C1C(O1)C=O

> <PUBCHEM_OPENEYE_ISO_SMILES>
C1C(O1)C=O

> <PUBCHEM_CACTVS_TPSA>
29.6

> <PUBCHEM_MONOISOTOPIC_WEIGHT>
72.021129

> <PUBCHEM_TOTAL_CHARGE>
0

> <PUBCHEM_HEAVY_ATOM_COUNT>
5

> <PUBCHEM_ATOM_DEF_STEREO_COUNT>
0

> <PUBCHEM_ATOM_UDEF_STEREO_COUNT>
1

> <PUBCHEM_BOND_DEF_STEREO_COUNT>
0

> <PUBCHEM_BOND_UDEF_STEREO_COUNT>
0

> <PUBCHEM_ISOTOPIC_ATOM_COUNT>
0

> <PUBCHEM_COMPONENT_COUNT>
1

> <PUBCHEM_CACTVS_TAUTO_COUNT>
2

> <PUBCHEM_COORDINATE_TYPE>
1
5
255

> <PUBCHEM_BONDANNOTATIONS>
3  6  3

$$$$

