17396472
  -OEChem-06241222562D

 46 48  0     1  0  0  0  0  0999 V2000
    2.0000    0.4907    0.0000 O   0  0  0  0  0  0  0  0  0  0  0  0
    5.5202    0.4907    0.0000 O   0  0  0  0  0  0  0  0  0  0  0  0
    3.7601    3.7694    0.0000 O   0  0  0  0  0  0  0  0  0  0  0  0
    2.3940   -5.2694    0.0000 O   0  5  0  0  0  0  0  0  0  0  0  0
    4.1261   -5.2694    0.0000 O   0  0  0  0  0  0  0  0  0  0  0  0
    3.7601    0.7694    0.0000 N   0  0  0  0  0  0  0  0  0  0  0  0
    4.2601   -0.7694    0.0000 N   0  0  0  0  0  0  0  0  0  0  0  0
    3.2601   -4.7694    0.0000 N   0  3  0  0  0  0  0  0  0  0  0  0
    3.2601   -0.7694    0.0000 C   0  0  3  0  0  0  0  0  0  0  0  0
    2.9511    0.1816    0.0000 C   0  0  0  0  0  0  0  0  0  0  0  0
    3.2601   -1.7694    0.0000 C   0  0  0  0  0  0  0  0  0  0  0  0
    2.3090   -1.0784    0.0000 C   0  0  0  0  0  0  0  0  0  0  0  0
    4.5691    0.1816    0.0000 C   0  0  0  0  0  0  0  0  0  0  0  0
    3.7601    1.7694    0.0000 C   0  0  0  0  0  0  0  0  0  0  0  0
    2.3940   -2.2694    0.0000 C   0  0  0  0  0  0  0  0  0  0  0  0
    4.1261   -2.2694    0.0000 C   0  0  0  0  0  0  0  0  0  0  0  0
    4.6261    2.2694    0.0000 C   0  0  0  0  0  0  0  0  0  0  0  0
    2.3940   -3.2694    0.0000 C   0  0  0  0  0  0  0  0  0  0  0  0
    4.1261   -3.2694    0.0000 C   0  0  0  0  0  0  0  0  0  0  0  0
    4.6261    3.2694    0.0000 C   0  0  0  0  0  0  0  0  0  0  0  0
    3.2601   -3.7694    0.0000 C   0  0  0  0  0  0  0  0  0  0  0  0
    5.4921    1.7694    0.0000 C   0  0  0  0  0  0  0  0  0  0  0  0
    5.4921    3.7694    0.0000 C   0  0  0  0  0  0  0  0  0  0  0  0
    6.3582    2.2694    0.0000 C   0  0  0  0  0  0  0  0  0  0  0  0
    6.3582    3.2694    0.0000 C   0  0  0  0  0  0  0  0  0  0  0  0
    3.7601    4.7694    0.0000 C   0  0  0  0  0  0  0  0  0  0  0  0
    2.8940    5.2694    0.0000 C   0  0  0  0  0  0  0  0  0  0  0  0
    4.6245   -1.2710    0.0000 H   0  0  0  0  0  0  0  0  0  0  0  0
    2.1174   -0.4888    0.0000 H   0  0  0  0  0  0  0  0  0  0  0  0
    1.7194   -1.2700    0.0000 H   0  0  0  0  0  0  0  0  0  0  0  0
    2.5006   -1.6681    0.0000 H   0  0  0  0  0  0  0  0  0  0  0  0
    3.5480    2.3520    0.0000 H   0  0  0  0  0  0  0  0  0  0  0  0
    3.1495    1.6618    0.0000 H   0  0  0  0  0  0  0  0  0  0  0  0
    1.8571   -1.9594    0.0000 H   0  0  0  0  0  0  0  0  0  0  0  0
    4.6630   -1.9594    0.0000 H   0  0  0  0  0  0  0  0  0  0  0  0
    1.8571   -3.5794    0.0000 H   0  0  0  0  0  0  0  0  0  0  0  0
    4.6630   -3.5794    0.0000 H   0  0  0  0  0  0  0  0  0  0  0  0
    5.4921    1.1494    0.0000 H   0  0  0  0  0  0  0  0  0  0  0  0
    5.4921    4.3894    0.0000 H   0  0  0  0  0  0  0  0  0  0  0  0
    6.8951    1.9594    0.0000 H   0  0  0  0  0  0  0  0  0  0  0  0
    6.8951    3.5794    0.0000 H   0  0  0  0  0  0  0  0  0  0  0  0
    4.3707    4.6618    0.0000 H   0  0  0  0  0  0  0  0  0  0  0  0
    3.9721    5.3520    0.0000 H   0  0  0  0  0  0  0  0  0  0  0  0
    3.2040    5.8064    0.0000 H   0  0  0  0  0  0  0  0  0  0  0  0
    2.3571    5.5794    0.0000 H   0  0  0  0  0  0  0  0  0  0  0  0
    2.5840    4.7325    0.0000 H   0  0  0  0  0  0  0  0  0  0  0  0
  1 10  2  0  0  0  0
  2 13  2  0  0  0  0
  3 20  1  0  0  0  0
  3 26  1  0  0  0  0
  4  8  1  0  0  0  0
  5  8  2  0  0  0  0
  6 10  1  0  0  0  0
  6 13  1  0  0  0  0
  6 14  1  0  0  0  0
  7  9  1  0  0  0  0
  7 13  1  0  0  0  0
  7 28  1  0  0  0  0
  8 21  1  0  0  0  0
  9 10  1  0  0  0  0
  9 11  1  0  0  0  0
  9 12  1  0  0  0  0
 11 15  2  0  0  0  0
 11 16  1  0  0  0  0
 12 29  1  0  0  0  0
 12 30  1  0  0  0  0
 12 31  1  0  0  0  0
 14 17  1  0  0  0  0
 14 32  1  0  0  0  0
 14 33  1  0  0  0  0
 15 18  1  0  0  0  0
 15 34  1  0  0  0  0
 16 19  2  0  0  0  0
 16 35  1  0  0  0  0
 17 20  1  0  0  0  0
 17 22  2  0  0  0  0
 18 21  2  0  0  0  0
 18 36  1  0  0  0  0
 19 21  1  0  0  0  0
 19 37  1  0  0  0  0
 20 23  2  0  0  0  0
 22 24  1  0  0  0  0
 22 38  1  0  0  0  0
 23 25  1  0  0  0  0
 23 39  1  0  0  0  0
 24 25  2  0  0  0  0
 24 40  1  0  0  0  0
 25 41  1  0  0  0  0
 26 27  1  0  0  0  0
 26 42  1  0  0  0  0
 26 43  1  0  0  0  0
 27 44  1  0  0  0  0
 27 45  1  0  0  0  0
 27 46  1  0  0  0  0
M  CHG  2   4  -1   8   1
M  END
> <PUBCHEM_COMPOUND_CID>
17396472

> <PUBCHEM_COMPOUND_CANONICALIZED>
1

> <PUBCHEM_CACTVS_COMPLEXITY>
584

> <PUBCHEM_CACTVS_HBOND_ACCEPTOR>
5

> <PUBCHEM_CACTVS_HBOND_DONOR>
1

> <PUBCHEM_CACTVS_ROTATABLE_BOND>
5

> <PUBCHEM_CACTVS_SUBSKEYS>
AAADceB7OAAAAAAAAAAAAAAAAAAAAWAAAAAwYAAAAAAAAAABQAAAHgAUAAAADIzhmAYzxoPQRACJAiVSUwCCCAAgIgAoiAGObIqMZjKEtbuWOCju1zOI6AeYyOCOiAAAAAAIAAAQAAAAABAAAAAAAAAAAA==

> <PUBCHEM_IUPAC_OPENEYE_NAME>
3-[(2-ethoxyphenyl)methyl]-5-methyl-5-(4-nitrophenyl)imidazolidine-2,4-dione

> <PUBCHEM_IUPAC_CAS_NAME>
3-[(2-ethoxyphenyl)methyl]-5-methyl-5-(4-nitrophenyl)imidazolidine-2,4-dione

> <PUBCHEM_IUPAC_NAME>
3-[(2-ethoxyphenyl)methyl]-5-methyl-5-(4-nitrophenyl)imidazolidine-2,4-dione

> <PUBCHEM_IUPAC_SYSTEMATIC_NAME>
3-[(2-ethoxyphenyl)methyl]-5-methyl-5-(4-nitrophenyl)imidazolidine-2,4-dione

> <PUBCHEM_IUPAC_TRADITIONAL_NAME>
3-(2-ethoxybenzyl)-5-methyl-5-(4-nitrophenyl)hydantoin

> <PUBCHEM_IUPAC_INCHI>
InChI=1S/C19H19N3O5/c1-3-27-16-7-5-4-6-13(16)12-21-17(23)19(2,20-18(21)24)14-8-10-15(11-9-14)22(25)26/h4-11H,3,12H2,1-2H3,(H,20,24)

> <PUBCHEM_IUPAC_INCHIKEY>
URNKMGNTWLAPGN-UHFFFAOYSA-N

> <PUBCHEM_XLOGP3_AA>
2.7

> <PUBCHEM_EXACT_MASS>
369.132471

> <PUBCHEM_MOLECULAR_FORMULA>
C19H19N3O5

> <PUBCHEM_MOLECULAR_WEIGHT>
369.37126

> <PUBCHEM_OPENEYE_CAN_SMILES>
CCOC1=CC=CC=C1CN2C(=O)C(NC2=O)(C)C3=CC=C(C=C3)[N+](=O)[O-]

> <PUBCHEM_OPENEYE_ISO_SMILES>
CCOC1=CC=CC=C1CN2C(=O)C(NC2=O)(C)C3=CC=C(C=C3)[N+](=O)[O-]

> <PUBCHEM_CACTVS_TPSA>
105

> <PUBCHEM_MONOISOTOPIC_WEIGHT>
369.132471

> <PUBCHEM_TOTAL_CHARGE>
0

> <PUBCHEM_HEAVY_ATOM_COUNT>
27

> <PUBCHEM_ATOM_DEF_STEREO_COUNT>
0

> <PUBCHEM_ATOM_UDEF_STEREO_COUNT>
1

> <PUBCHEM_BOND_DEF_STEREO_COUNT>
0

> <PUBCHEM_BOND_UDEF_STEREO_COUNT>
0

> <PUBCHEM_ISOTOPIC_ATOM_COUNT>
0

> <PUBCHEM_COMPONENT_COUNT>
1

> <PUBCHEM_CACTVS_TAUTO_COUNT>
2

> <PUBCHEM_COORDINATE_TYPE>
1
5
255

> <PUBCHEM_BONDANNOTATIONS>
11  15  8
11  16  8
15  18  8
16  19  8
17  20  8
17  22  8
18  21  8
19  21  8
20  23  8
22  24  8
23  25  8
24  25  8
9  12  3

$$$$

