54691350
  -OEChem-07051213032D

 76 79  0     1  0  0  0  0  0999 V2000
   14.1962   -0.0819    0.0000 O   0  0  0  0  0  0  0  0  0  0  0  0
   16.7961   -0.5719    0.0000 O   0  0  0  0  0  0  0  0  0  0  0  0
   16.7884    1.4281    0.0000 O   0  0  0  0  0  0  0  0  0  0  0  0
   13.3244    1.4148    0.0000 O   0  0  0  0  0  0  0  0  0  0  0  0
   15.0525    2.4214    0.0000 O   0  0  0  0  0  0  0  0  0  0  0  0
    9.7942    1.3906    0.0000 O   0  0  0  0  0  0  0  0  0  0  0  0
    9.7942   -1.6094    0.0000 O   0  0  0  0  0  0  0  0  0  0  0  0
    8.0622    1.3906    0.0000 O   0  0  0  0  0  0  0  0  0  0  0  0
    7.1962    0.8906    0.0000 O   0  0  0  0  0  0  0  0  0  0  0  0
    3.7320   -2.1094    0.0000 O   0  0  0  0  0  0  0  0  0  0  0  0
    8.0622   -0.6094    0.0000 N   0  0  0  0  0  0  0  0  0  0  0  0
   15.0641   -0.5785    0.0000 C   0  0  0  0  0  0  0  0  0  0  0  0
   15.9282   -0.0752    0.0000 C   0  0  1  0  0  0  0  0  0  0  0  0
   15.9243    0.9248    0.0000 C   0  0  2  0  0  0  0  0  0  0  0  0
   15.0564    1.4215    0.0000 C   0  0  2  0  0  0  0  0  0  0  0  0
   14.1923    0.9181    0.0000 C   0  0  1  0  0  0  0  0  0  0  0  0
   15.5674   -1.4426    0.0000 C   0  0  0  0  0  0  0  0  0  0  0  0
   14.5674   -1.4465    0.0000 C   0  0  0  0  0  0  0  0  0  0  0  0
   17.6602   -0.0685    0.0000 C   0  0  0  0  0  0  0  0  0  0  0  0
   12.4603    0.9114    0.0000 C   0  0  0  0  0  0  0  0  0  0  0  0
   11.5542    1.4253    0.0000 C   0  0  0  0  0  0  0  0  0  0  0  0
   12.4603   -0.1302    0.0000 C   0  0  0  0  0  0  0  0  0  0  0  0
   10.6603    0.8906    0.0000 C   0  0  0  0  0  0  0  0  0  0  0  0
   10.6603   -0.1094    0.0000 C   0  0  0  0  0  0  0  0  0  0  0  0
   11.5542   -0.6440    0.0000 C   0  0  0  0  0  0  0  0  0  0  0  0
   11.5426    2.4252    0.0000 C   0  0  0  0  0  0  0  0  0  0  0  0
    9.7942   -0.6094    0.0000 C   0  0  0  0  0  0  0  0  0  0  0  0
    8.9282   -0.1094    0.0000 C   0  0  0  0  0  0  0  0  0  0  0  0
    8.9282    0.8906    0.0000 C   0  0  0  0  0  0  0  0  0  0  0  0
    7.1962   -0.1094    0.0000 C   0  0  0  0  0  0  0  0  0  0  0  0
    6.3301   -0.6094    0.0000 C   0  0  0  0  0  0  0  0  0  0  0  0
    4.5981   -0.6094    0.0000 C   0  0  0  0  0  0  0  0  0  0  0  0
    5.4641   -0.1094    0.0000 C   0  0  0  0  0  0  0  0  0  0  0  0
    3.7320   -0.1094    0.0000 C   0  0  0  0  0  0  0  0  0  0  0  0
    6.3301   -1.6094    0.0000 C   0  0  0  0  0  0  0  0  0  0  0  0
    4.5981   -1.6094    0.0000 C   0  0  0  0  0  0  0  0  0  0  0  0
    5.4641   -2.1094    0.0000 C   0  0  0  0  0  0  0  0  0  0  0  0
    3.7320    0.8906    0.0000 C   0  0  0  0  0  0  0  0  0  0  0  0
    2.8660    1.3906    0.0000 C   0  0  0  0  0  0  0  0  0  0  0  0
    2.8660    2.3906    0.0000 C   0  0  0  0  0  0  0  0  0  0  0  0
    2.0000    0.8906    0.0000 C   0  0  0  0  0  0  0  0  0  0  0  0
   16.4639    0.2369    0.0000 H   0  0  0  0  0  0  0  0  0  0  0  0
   15.9219    1.5448    0.0000 H   0  0  0  0  0  0  0  0  0  0  0  0
   15.5921    1.7335    0.0000 H   0  0  0  0  0  0  0  0  0  0  0  0
   14.1899    1.5381    0.0000 H   0  0  0  0  0  0  0  0  0  0  0  0
   15.0317   -1.7547    0.0000 H   0  0  0  0  0  0  0  0  0  0  0  0
   15.8795   -1.9784    0.0000 H   0  0  0  0  0  0  0  0  0  0  0  0
   16.1032   -1.1306    0.0000 H   0  0  0  0  0  0  0  0  0  0  0  0
   14.0293   -1.1386    0.0000 H   0  0  0  0  0  0  0  0  0  0  0  0
   14.2595   -1.9846    0.0000 H   0  0  0  0  0  0  0  0  0  0  0  0
   15.1056   -1.7544    0.0000 H   0  0  0  0  0  0  0  0  0  0  0  0
   16.7860    2.0481    0.0000 H   0  0  0  0  0  0  0  0  0  0  0  0
   14.5144    2.7294    0.0000 H   0  0  0  0  0  0  0  0  0  0  0  0
   17.9723   -0.6043    0.0000 H   0  0  0  0  0  0  0  0  0  0  0  0
   18.1960    0.2435    0.0000 H   0  0  0  0  0  0  0  0  0  0  0  0
   17.3482    0.4672    0.0000 H   0  0  0  0  0  0  0  0  0  0  0  0
   12.9960   -0.4423    0.0000 H   0  0  0  0  0  0  0  0  0  0  0  0
   11.5470   -1.2640    0.0000 H   0  0  0  0  0  0  0  0  0  0  0  0
   12.1626    2.4324    0.0000 H   0  0  0  0  0  0  0  0  0  0  0  0
   11.5355    3.0452    0.0000 H   0  0  0  0  0  0  0  0  0  0  0  0
   10.9227    2.4180    0.0000 H   0  0  0  0  0  0  0  0  0  0  0  0
    8.0622   -1.2294    0.0000 H   0  0  0  0  0  0  0  0  0  0  0  0
   10.3312   -1.9194    0.0000 H   0  0  0  0  0  0  0  0  0  0  0  0
    5.4641    0.5106    0.0000 H   0  0  0  0  0  0  0  0  0  0  0  0
    3.1215   -0.0017    0.0000 H   0  0  0  0  0  0  0  0  0  0  0  0
    3.5200   -0.6920    0.0000 H   0  0  0  0  0  0  0  0  0  0  0  0
    6.8671   -1.9194    0.0000 H   0  0  0  0  0  0  0  0  0  0  0  0
    5.4641   -2.7294    0.0000 H   0  0  0  0  0  0  0  0  0  0  0  0
    4.2690    1.2006    0.0000 H   0  0  0  0  0  0  0  0  0  0  0  0
    3.4860    2.3906    0.0000 H   0  0  0  0  0  0  0  0  0  0  0  0
    2.8660    3.0106    0.0000 H   0  0  0  0  0  0  0  0  0  0  0  0
    2.2460    2.3906    0.0000 H   0  0  0  0  0  0  0  0  0  0  0  0
    1.6900    1.4276    0.0000 H   0  0  0  0  0  0  0  0  0  0  0  0
    1.4631    0.5806    0.0000 H   0  0  0  0  0  0  0  0  0  0  0  0
    2.3100    0.3537    0.0000 H   0  0  0  0  0  0  0  0  0  0  0  0
    3.7320   -2.7294    0.0000 H   0  0  0  0  0  0  0  0  0  0  0  0
  1 12  1  0  0  0  0
  1 16  1  0  0  0  0
 13  2  1  1  0  0  0
  2 19  1  0  0  0  0
 14  3  1  6  0  0  0
  3 52  1  0  0  0  0
 16  4  1  1  0  0  0
  4 20  1  0  0  0  0
 15  5  1  6  0  0  0
  5 53  1  0  0  0  0
  6 23  1  0  0  0  0
  6 29  1  0  0  0  0
  7 27  1  0  0  0  0
  7 63  1  0  0  0  0
  8 29  2  0  0  0  0
  9 30  2  0  0  0  0
 10 36  1  0  0  0  0
 10 76  1  0  0  0  0
 11 28  1  0  0  0  0
 11 30  1  0  0  0  0
 11 62  1  0  0  0  0
 12 13  1  0  0  0  0
 12 17  1  0  0  0  0
 12 18  1  0  0  0  0
 13 14  1  0  0  0  0
 13 42  1  0  0  0  0
 14 15  1  0  0  0  0
 14 43  1  0  0  0  0
 15 16  1  0  0  0  0
 15 44  1  0  0  0  0
 16 45  1  0  0  0  0
 17 46  1  0  0  0  0
 17 47  1  0  0  0  0
 17 48  1  0  0  0  0
 18 49  1  0  0  0  0
 18 50  1  0  0  0  0
 18 51  1  0  0  0  0
 19 54  1  0  0  0  0
 19 55  1  0  0  0  0
 19 56  1  0  0  0  0
 20 21  2  0  0  0  0
 20 22  1  0  0  0  0
 21 23  1  0  0  0  0
 21 26  1  0  0  0  0
 22 25  2  0  0  0  0
 22 57  1  0  0  0  0
 23 24  2  0  0  0  0
 24 25  1  0  0  0  0
 24 27  1  0  0  0  0
 25 58  1  0  0  0  0
 26 59  1  0  0  0  0
 26 60  1  0  0  0  0
 26 61  1  0  0  0  0
 27 28  2  0  0  0  0
 28 29  1  0  0  0  0
 30 31  1  0  0  0  0
 31 33  2  0  0  0  0
 31 35  1  0  0  0  0
 32 33  1  0  0  0  0
 32 34  1  0  0  0  0
 32 36  2  0  0  0  0
 33 64  1  0  0  0  0
 34 38  1  0  0  0  0
 34 65  1  0  0  0  0
 34 66  1  0  0  0  0
 35 37  2  0  0  0  0
 35 67  1  0  0  0  0
 36 37  1  0  0  0  0
 37 68  1  0  0  0  0
 38 39  2  0  0  0  0
 38 69  1  0  0  0  0
 39 40  1  0  0  0  0
 39 41  1  0  0  0  0
 40 70  1  0  0  0  0
 40 71  1  0  0  0  0
 40 72  1  0  0  0  0
 41 73  1  0  0  0  0
 41 74  1  0  0  0  0
 41 75  1  0  0  0  0
M  END
> <PUBCHEM_COMPOUND_CID>
54691350

> <PUBCHEM_COMPOUND_CANONICALIZED>
1

> <PUBCHEM_CACTVS_COMPLEXITY>
1040

> <PUBCHEM_CACTVS_HBOND_ACCEPTOR>
10

> <PUBCHEM_CACTVS_HBOND_DONOR>
5

> <PUBCHEM_CACTVS_ROTATABLE_BOND>
7

> <PUBCHEM_CACTVS_SUBSKEYS>
AAADcfB6PAAAAAAAAAAAAAAAAAAAAAAAAAA0YIEAAAAAAACBQAAAHgAQCAAADFyxmAMyDoLABgCIAiXSWACCCAAkIAAIiAGGDMgfNzKGtTuneyjlxBWfuYfY/P7OIAACCAAIAABAAAQQABAAAAAAAAAAAA==

> <PUBCHEM_IUPAC_OPENEYE_NAME>
N-[7-[(2R,3R,4S,5R)-3,4-dihydroxy-5-methoxy-6,6-dimethyl-tetrahydropyran-2-yl]oxy-4-hydroxy-8-methyl-2-oxo-chromen-3-yl]-4-hydroxy-3-(3-methylbut-2-enyl)benzamide

> <PUBCHEM_IUPAC_CAS_NAME>
N-[7-[[(2R,3R,4S,5R)-3,4-dihydroxy-5-methoxy-6,6-dimethyl-2-oxanyl]oxy]-4-hydroxy-8-methyl-2-oxo-1-benzopyran-3-yl]-4-hydroxy-3-(3-methylbut-2-enyl)benzamide

> <PUBCHEM_IUPAC_NAME>
N-[7-[(2R,3R,4S,5R)-3,4-dihydroxy-5-methoxy-6,6-dimethyloxan-2-yl]oxy-4-hydroxy-8-methyl-2-oxochromen-3-yl]-4-hydroxy-3-(3-methylbut-2-enyl)benzamide

> <PUBCHEM_IUPAC_SYSTEMATIC_NAME>
N-[7-[(2R,3R,4S,5R)-5-methoxy-6,6-dimethyl-3,4-bis(oxidanyl)oxan-2-yl]oxy-8-methyl-4-oxidanyl-2-oxidanylidene-chromen-3-yl]-3-(3-methylbut-2-enyl)-4-oxidanyl-benzamide

> <PUBCHEM_IUPAC_TRADITIONAL_NAME>
N-[7-[(2R,3R,4S,5R)-3,4-dihydroxy-5-methoxy-6,6-dimethyl-tetrahydropyran-2-yl]oxy-4-hydroxy-2-keto-8-methyl-chromen-3-yl]-4-hydroxy-3-(3-methylbut-2-enyl)benzamide

> <PUBCHEM_IUPAC_INCHI>
InChI=1S/C30H35NO10/c1-14(2)7-8-16-13-17(9-11-19(16)32)27(36)31-21-22(33)18-10-12-20(15(3)25(18)40-28(21)37)39-29-24(35)23(34)26(38-6)30(4,5)41-29/h7,9-13,23-24,26,29,32-35H,8H2,1-6H3,(H,31,36)/t23-,24+,26+,29+/m0/s1

> <PUBCHEM_IUPAC_INCHIKEY>
UZHGFJZFJRMSOS-NANZAVOOSA-N

> <PUBCHEM_XLOGP3_AA>
3.3

> <PUBCHEM_EXACT_MASS>
569.226096

> <PUBCHEM_MOLECULAR_FORMULA>
C30H35NO10

> <PUBCHEM_MOLECULAR_WEIGHT>
569.5996

> <PUBCHEM_OPENEYE_CAN_SMILES>
CC1=C(C=CC2=C1OC(=O)C(=C2O)NC(=O)C3=CC(=C(C=C3)O)CC=C(C)C)OC4C(C(C(C(O4)(C)C)OC)O)O

> <PUBCHEM_OPENEYE_ISO_SMILES>
CC1=C(C=CC2=C1OC(=O)C(=C2O)NC(=O)C3=CC(=C(C=C3)O)CC=C(C)C)O[C@H]4[C@@H]([C@@H]([C@H](C(O4)(C)C)OC)O)O

> <PUBCHEM_CACTVS_TPSA>
164

> <PUBCHEM_MONOISOTOPIC_WEIGHT>
569.226096

> <PUBCHEM_TOTAL_CHARGE>
0

> <PUBCHEM_HEAVY_ATOM_COUNT>
41

> <PUBCHEM_ATOM_DEF_STEREO_COUNT>
4

> <PUBCHEM_ATOM_UDEF_STEREO_COUNT>
0

> <PUBCHEM_BOND_DEF_STEREO_COUNT>
0

> <PUBCHEM_BOND_UDEF_STEREO_COUNT>
0

> <PUBCHEM_ISOTOPIC_ATOM_COUNT>
0

> <PUBCHEM_COMPONENT_COUNT>
1

> <PUBCHEM_CACTVS_TAUTO_COUNT>
41

> <PUBCHEM_COORDINATE_TYPE>
1
5
255

> <PUBCHEM_BONDANNOTATIONS>
13  2  5
20  21  8
20  22  8
21  23  8
22  25  8
23  24  8
24  25  8
24  27  8
27  28  8
28  29  8
14  3  6
31  33  8
31  35  8
32  33  8
32  36  8
35  37  8
36  37  8
16  4  5
15  5  6
6  23  8
6  29  8

$$$$

