56928086
  -OEChem-07051213092D

 46 49  0     1  0  0  0  0  0999 V2000
    6.2800   -0.1609    0.0000 O   0  0  0  0  0  0  0  0  0  0  0  0
    8.9441    1.3150    0.0000 O   0  0  0  0  0  0  0  0  0  0  0  0
    4.0731   -2.1667    0.0000 N   0  0  3  0  0  0  0  0  0  0  0  0
    5.4140    3.3391    0.0000 N   0  0  0  0  0  0  0  0  0  0  0  0
    3.5731   -1.3007    0.0000 C   0  0  3  0  0  0  0  0  0  0  0  0
    6.2638   -1.7184    0.0000 C   0  0  2  0  0  0  0  0  0  0  0  0
    3.5820    0.0979    0.0000 C   0  0  0  0  0  0  0  0  0  0  0  0
    4.5480   -0.1609    0.0000 C   0  0  2  0  0  0  0  0  0  0  0  0
    2.0000   -2.5078    0.0000 C   0  0  0  0  0  0  0  0  0  0  0  0
    6.0050   -2.6843    0.0000 C   0  0  0  0  0  0  0  0  0  0  0  0
    2.5000   -3.3738    0.0000 C   0  0  0  0  0  0  0  0  0  0  0  0
    5.4140    0.3391    0.0000 C   0  0  0  0  0  0  0  0  0  0  0  0
    7.1298   -1.2184    0.0000 C   0  0  0  0  0  0  0  0  0  0  0  0
    5.4140    1.3391    0.0000 C   0  0  0  0  0  0  0  0  0  0  0  0
    7.9958   -1.7184    0.0000 C   0  0  0  0  0  0  0  0  0  0  0  0
    6.2800    1.8391    0.0000 C   0  0  0  0  0  0  0  0  0  0  0  0
    4.5480    1.8391    0.0000 C   0  0  0  0  0  0  0  0  0  0  0  0
    6.2800    2.8391    0.0000 C   0  0  0  0  0  0  0  0  0  0  0  0
    7.1740    1.3045    0.0000 C   0  0  0  0  0  0  0  0  0  0  0  0
    4.5480    2.8391    0.0000 C   0  0  0  0  0  0  0  0  0  0  0  0
    7.1740    3.3738    0.0000 C   0  0  0  0  0  0  0  0  0  0  0  0
    8.0800    1.8183    0.0000 C   0  0  0  0  0  0  0  0  0  0  0  0
    8.0800    2.8599    0.0000 C   0  0  0  0  0  0  0  0  0  0  0  0
    9.8121    1.8116    0.0000 C   0  0  0  0  0  0  0  0  0  0  0  0
    3.7267   -1.9014    0.0000 H   0  0  0  0  0  0  0  0  0  0  0  0
    6.1499   -1.1090    0.0000 H   0  0  0  0  0  0  0  0  0  0  0  0
    3.6910    0.7083    0.0000 H   0  0  0  0  0  0  0  0  0  0  0  0
    2.9646    0.1546    0.0000 H   0  0  0  0  0  0  0  0  0  0  0  0
    5.0453   -0.5310    0.0000 H   0  0  0  0  0  0  0  0  0  0  0  0
    1.6444   -1.9999    0.0000 H   0  0  0  0  0  0  0  0  0  0  0  0
    1.4771   -2.8409    0.0000 H   0  0  0  0  0  0  0  0  0  0  0  0
    5.8445   -3.2832    0.0000 H   0  0  0  0  0  0  0  0  0  0  0  0
    6.6039   -2.8448    0.0000 H   0  0  0  0  0  0  0  0  0  0  0  0
    1.9771   -3.7069    0.0000 H   0  0  0  0  0  0  0  0  0  0  0  0
    2.8556   -3.8817    0.0000 H   0  0  0  0  0  0  0  0  0  0  0  0
    7.1298   -0.5984    0.0000 H   0  0  0  0  0  0  0  0  0  0  0  0
    7.9958   -2.3384    0.0000 H   0  0  0  0  0  0  0  0  0  0  0  0
    8.5328   -1.4084    0.0000 H   0  0  0  0  0  0  0  0  0  0  0  0
    4.0110    1.5291    0.0000 H   0  0  0  0  0  0  0  0  0  0  0  0
    7.1668    0.6845    0.0000 H   0  0  0  0  0  0  0  0  0  0  0  0
    4.0110    3.1491    0.0000 H   0  0  0  0  0  0  0  0  0  0  0  0
    7.1668    3.9938    0.0000 H   0  0  0  0  0  0  0  0  0  0  0  0
    8.6158    3.1720    0.0000 H   0  0  0  0  0  0  0  0  0  0  0  0
   10.1200    1.2735    0.0000 H   0  0  0  0  0  0  0  0  0  0  0  0
   10.3502    2.1196    0.0000 H   0  0  0  0  0  0  0  0  0  0  0  0
    9.5041    2.3498    0.0000 H   0  0  0  0  0  0  0  0  0  0  0  0
  1 12  2  0  0  0  0
  2 22  1  0  0  0  0
  2 24  1  0  0  0  0
  3  8  1  0  0  0  0
  3 10  1  0  0  0  0
  3 11  1  0  0  0  0
  4 18  2  0  0  0  0
  4 20  1  0  0  0  0
  5  6  1  0  0  0  0
  5  7  1  0  0  0  0
  5  9  1  0  0  0  0
  5 25  1  0  0  0  0
  6 10  1  0  0  0  0
  6 13  1  1  0  0  0
  6 26  1  0  0  0  0
  7  8  1  0  0  0  0
  7 27  1  0  0  0  0
  7 28  1  0  0  0  0
  8 12  1  6  0  0  0
  8 29  1  0  0  0  0
  9 11  1  0  0  0  0
  9 30  1  0  0  0  0
  9 31  1  0  0  0  0
 10 32  1  0  0  0  0
 10 33  1  0  0  0  0
 11 34  1  0  0  0  0
 11 35  1  0  0  0  0
 12 14  1  0  0  0  0
 13 15  2  0  0  0  0
 13 36  1  0  0  0  0
 14 16  2  0  0  0  0
 14 17  1  0  0  0  0
 15 37  1  0  0  0  0
 15 38  1  0  0  0  0
 16 18  1  0  0  0  0
 16 19  1  0  0  0  0
 17 20  2  0  0  0  0
 17 39  1  0  0  0  0
 18 21  1  0  0  0  0
 19 22  2  0  0  0  0
 19 40  1  0  0  0  0
 20 41  1  0  0  0  0
 21 23  2  0  0  0  0
 21 42  1  0  0  0  0
 22 23  1  0  0  0  0
 23 43  1  0  0  0  0
 24 44  1  0  0  0  0
 24 45  1  0  0  0  0
 24 46  1  0  0  0  0
M  END
> <PUBCHEM_COMPOUND_CID>
56928086

> <PUBCHEM_COMPOUND_CANONICALIZED>
1

> <PUBCHEM_CACTVS_COMPLEXITY>
494

> <PUBCHEM_CACTVS_HBOND_ACCEPTOR>
4

> <PUBCHEM_CACTVS_HBOND_DONOR>
0

> <PUBCHEM_CACTVS_ROTATABLE_BOND>
4

> <PUBCHEM_CACTVS_SUBSKEYS>
AAADceB7MAAAAAAAAAAAAAAAAAAAAAAAAAA8WLFiAAAAAACx8AAAHgAAAAAADSzBngY+xvMIFACoA7R3RACCiCA1IiAI2CG+bNgMJvLEtbuEMShkwBHI6Ye8zPDOgEABAAACAAAAgAIAAAQAAAAAAAAAAA==

> <PUBCHEM_IUPAC_OPENEYE_NAME>
(6-methoxy-4-quinolyl)-[(2R,5R)-5-vinylquinuclidin-2-yl]methanone

> <PUBCHEM_IUPAC_CAS_NAME>
[(2R,5R)-5-ethenyl-1-azabicyclo[2.2.2]octan-2-yl]-(6-methoxy-4-quinolinyl)methanone

> <PUBCHEM_IUPAC_NAME>
[(2R,5R)-5-ethenyl-1-azabicyclo[2.2.2]octan-2-yl]-(6-methoxyquinolin-4-yl)methanone

> <PUBCHEM_IUPAC_SYSTEMATIC_NAME>
[(2R,5R)-5-ethenyl-1-azabicyclo[2.2.2]octan-2-yl]-(6-methoxyquinolin-4-yl)methanone

> <PUBCHEM_IUPAC_TRADITIONAL_NAME>
(6-methoxy-4-quinolyl)-[(2R,5R)-5-vinylquinuclidin-2-yl]methanone

> <PUBCHEM_IUPAC_INCHI>
InChI=1S/C20H22N2O2/c1-3-13-12-22-9-7-14(13)10-19(22)20(23)16-6-8-21-18-5-4-15(24-2)11-17(16)18/h3-6,8,11,13-14,19H,1,7,9-10,12H2,2H3/t13-,14?,19+/m0/s1

> <PUBCHEM_IUPAC_INCHIKEY>
SRFCUPVBYYAMIL-FCKRREBMSA-N

> <PUBCHEM_XLOGP3_AA>
3.4

> <PUBCHEM_EXACT_MASS>
322.168128

> <PUBCHEM_MOLECULAR_FORMULA>
C20H22N2O2

> <PUBCHEM_MOLECULAR_WEIGHT>
322.40088

> <PUBCHEM_OPENEYE_CAN_SMILES>
COC1=CC2=C(C=CN=C2C=C1)C(=O)C3CC4CCN3CC4C=C

> <PUBCHEM_OPENEYE_ISO_SMILES>
COC1=CC2=C(C=CN=C2C=C1)C(=O)[C@H]3CC4CCN3C[C@@H]4C=C

> <PUBCHEM_CACTVS_TPSA>
42.4

> <PUBCHEM_MONOISOTOPIC_WEIGHT>
322.168128

> <PUBCHEM_TOTAL_CHARGE>
0

> <PUBCHEM_HEAVY_ATOM_COUNT>
24

> <PUBCHEM_ATOM_DEF_STEREO_COUNT>
2

> <PUBCHEM_ATOM_UDEF_STEREO_COUNT>
1

> <PUBCHEM_BOND_DEF_STEREO_COUNT>
0

> <PUBCHEM_BOND_UDEF_STEREO_COUNT>
0

> <PUBCHEM_ISOTOPIC_ATOM_COUNT>
0

> <PUBCHEM_COMPONENT_COUNT>
1

> <PUBCHEM_CACTVS_TAUTO_COUNT>
2

> <PUBCHEM_COORDINATE_TYPE>
1
5
255

> <PUBCHEM_BONDANNOTATIONS>
14  16  8
14  17  8
16  18  8
16  19  8
17  20  8
18  21  8
19  22  8
21  23  8
22  23  8
4  18  8
4  20  8
5  9  3
6  13  5
8  12  6

$$$$

