56928067
  -OEChem-07051212502D

 32 33  0     1  0  0  0  0  0999 V2000
    5.0298   -0.5937    0.0000 O   0  0  0  0  0  0  0  0  0  0  0  0
    2.4608   -0.2847    0.0000 O   0  0  0  0  0  0  0  0  0  0  0  0
    3.1330   -2.3537    0.0000 O   0  0  0  0  0  0  0  0  0  0  0  0
    6.3031   -2.2492    0.0000 O   0  0  0  0  0  0  0  0  0  0  0  0
    7.6751    1.6330    0.0000 O   0  0  0  0  0  0  0  0  0  0  0  0
    6.5161    2.9202    0.0000 O   0  0  0  0  0  0  0  0  0  0  0  0
    4.2208    0.9941    0.0000 N   0  0  0  0  0  0  0  0  0  0  0  0
    3.7208    2.5330    0.0000 N   0  0  0  0  0  0  0  0  0  0  0  0
    3.4118   -0.5937    0.0000 C   0  0  1  0  0  0  0  0  0  0  0  0
    4.2208   -0.0059    0.0000 C   0  0  1  0  0  0  0  0  0  0  0  0
    3.7208   -1.5447    0.0000 C   0  0  1  0  0  0  0  0  0  0  0  0
    4.7208   -1.5447    0.0000 C   0  0  1  0  0  0  0  0  0  0  0  0
    5.3086   -2.3537    0.0000 C   0  0  0  0  0  0  0  0  0  0  0  0
    5.0298    1.5819    0.0000 C   0  0  0  0  0  0  0  0  0  0  0  0
    3.4118    1.5819    0.0000 C   0  0  0  0  0  0  0  0  0  0  0  0
    5.9809    1.2729    0.0000 C   0  0  0  0  0  0  0  0  0  0  0  0
    4.7208    2.5330    0.0000 C   0  0  0  0  0  0  0  0  0  0  0  0
    6.7240    1.9420    0.0000 C   0  0  0  0  0  0  0  0  0  0  0  0
    2.9734   -1.0321    0.0000 H   0  0  0  0  0  0  0  0  0  0  0  0
    3.6684    0.2756    0.0000 H   0  0  0  0  0  0  0  0  0  0  0  0
    3.1085   -1.4478    0.0000 H   0  0  0  0  0  0  0  0  0  0  0  0
    5.3332   -1.4478    0.0000 H   0  0  0  0  0  0  0  0  0  0  0  0
    4.7514   -2.6255    0.0000 H   0  0  0  0  0  0  0  0  0  0  0  0
    5.4795   -2.9497    0.0000 H   0  0  0  0  0  0  0  0  0  0  0  0
    2.0000   -0.6995    0.0000 H   0  0  0  0  0  0  0  0  0  0  0  0
    3.3852   -2.9202    0.0000 H   0  0  0  0  0  0  0  0  0  0  0  0
    2.8222    1.3903    0.0000 H   0  0  0  0  0  0  0  0  0  0  0  0
    5.6898    0.7254    0.0000 H   0  0  0  0  0  0  0  0  0  0  0  0
    6.4695    0.8912    0.0000 H   0  0  0  0  0  0  0  0  0  0  0  0
    5.0852    3.0345    0.0000 H   0  0  0  0  0  0  0  0  0  0  0  0
    6.6676   -2.7508    0.0000 H   0  0  0  0  0  0  0  0  0  0  0  0
    8.1358    2.0478    0.0000 H   0  0  0  0  0  0  0  0  0  0  0  0
  1 10  1  0  0  0  0
  1 12  1  0  0  0  0
  9  2  1  1  0  0  0
  2 25  1  0  0  0  0
 11  3  1  1  0  0  0
  3 26  1  0  0  0  0
  4 13  1  0  0  0  0
  4 31  1  0  0  0  0
  5 18  1  0  0  0  0
  5 32  1  0  0  0  0
  6 18  2  0  0  0  0
 10  7  1  6  0  0  0
  7 14  1  0  0  0  0
  7 15  1  0  0  0  0
  8 15  2  0  0  0  0
  8 17  1  0  0  0  0
  9 10  1  0  0  0  0
  9 11  1  0  0  0  0
  9 19  1  0  0  0  0
 10 20  1  0  0  0  0
 11 12  1  0  0  0  0
 11 21  1  0  0  0  0
 12 13  1  6  0  0  0
 12 22  1  0  0  0  0
 13 23  1  0  0  0  0
 13 24  1  0  0  0  0
 14 16  1  0  0  0  0
 14 17  2  0  0  0  0
 15 27  1  0  0  0  0
 16 18  1  0  0  0  0
 16 28  1  0  0  0  0
 16 29  1  0  0  0  0
 17 30  1  0  0  0  0
M  END
> <PUBCHEM_COMPOUND_CID>
56928067

> <PUBCHEM_COMPOUND_CANONICALIZED>
1

> <PUBCHEM_CACTVS_COMPLEXITY>
315

> <PUBCHEM_CACTVS_HBOND_ACCEPTOR>
7

> <PUBCHEM_CACTVS_HBOND_DONOR>
4

> <PUBCHEM_CACTVS_ROTATABLE_BOND>
4

> <PUBCHEM_CACTVS_SUBSKEYS>
AAADccBzOAAAAAAAAAAAAAAAAAAAAWJAAAAAAAAAAAAAAAABgAAAHgAACAAACBzhlgYtmBcMFgCoART3bAAAgC0xEqABUAE4cAiDeBpAjQAeQAAPQAPTQCD0MAIAAAAAAAAAAAAAAAAAAAAAAAAAAAAAAA==

> <PUBCHEM_IUPAC_OPENEYE_NAME>
2-[3-[(2R,3R,4S,5R)-3,4-dihydroxy-5-(hydroxymethyl)tetrahydrofuran-2-yl]imidazol-4-yl]acetic acid

> <PUBCHEM_IUPAC_CAS_NAME>
2-[3-[(2R,3R,4S,5R)-3,4-dihydroxy-5-(hydroxymethyl)-2-oxolanyl]-4-imidazolyl]acetic acid

> <PUBCHEM_IUPAC_NAME>
2-[3-[(2R,3R,4S,5R)-3,4-dihydroxy-5-(hydroxymethyl)oxolan-2-yl]imidazol-4-yl]acetic acid

> <PUBCHEM_IUPAC_SYSTEMATIC_NAME>
2-[3-[(2R,3R,4S,5R)-5-(hydroxymethyl)-3,4-bis(oxidanyl)oxolan-2-yl]imidazol-4-yl]ethanoic acid

> <PUBCHEM_IUPAC_TRADITIONAL_NAME>
2-[3-[(2R,3R,4S,5R)-3,4-dihydroxy-5-methylol-tetrahydrofuran-2-yl]imidazol-4-yl]acetic acid

> <PUBCHEM_IUPAC_INCHI>
InChI=1S/C10H14N2O6/c13-3-6-8(16)9(17)10(18-6)12-4-11-2-5(12)1-7(14)15/h2,4,6,8-10,13,16-17H,1,3H2,(H,14,15)/t6-,8-,9-,10-/m1/s1

> <PUBCHEM_IUPAC_INCHIKEY>
XSDXFPMKRSXISO-PEBGCTIMSA-N

> <PUBCHEM_XLOGP3_AA>
-2.1

> <PUBCHEM_EXACT_MASS>
258.085186

> <PUBCHEM_MOLECULAR_FORMULA>
C10H14N2O6

> <PUBCHEM_MOLECULAR_WEIGHT>
258.22796

> <PUBCHEM_OPENEYE_CAN_SMILES>
C1=C(N(C=N1)C2C(C(C(O2)CO)O)O)CC(=O)O

> <PUBCHEM_OPENEYE_ISO_SMILES>
C1=C(N(C=N1)[C@H]2[C@@H]([C@@H]([C@H](O2)CO)O)O)CC(=O)O

> <PUBCHEM_CACTVS_TPSA>
125

> <PUBCHEM_MONOISOTOPIC_WEIGHT>
258.085186

> <PUBCHEM_TOTAL_CHARGE>
0

> <PUBCHEM_HEAVY_ATOM_COUNT>
18

> <PUBCHEM_ATOM_DEF_STEREO_COUNT>
4

> <PUBCHEM_ATOM_UDEF_STEREO_COUNT>
0

> <PUBCHEM_BOND_DEF_STEREO_COUNT>
0

> <PUBCHEM_BOND_UDEF_STEREO_COUNT>
0

> <PUBCHEM_ISOTOPIC_ATOM_COUNT>
0

> <PUBCHEM_COMPONENT_COUNT>
1

> <PUBCHEM_CACTVS_TAUTO_COUNT>
1

> <PUBCHEM_COORDINATE_TYPE>
1
5
255

> <PUBCHEM_BONDANNOTATIONS>
12  13  6
14  17  8
9  2  5
11  3  5
10  7  6
7  14  8
7  15  8
8  15  8
8  17  8

$$$$

