3034378
  -OEChem-07051213122D

 33 34  0     0  0  0  0  0  0999 V2000
    3.7320    0.1218    0.0000 S   0  0  0  0  0  0  0  0  0  0  0  0
    8.1424   -1.1829    0.0000 O   0  0  0  0  0  0  0  0  0  0  0  0
    4.5981    0.6218    0.0000 O   0  0  0  0  0  0  0  0  0  0  0  0
    3.2320    0.9879    0.0000 O   0  0  0  0  0  0  0  0  0  0  0  0
    4.2320   -0.7442    0.0000 O   0  0  0  0  0  0  0  0  0  0  0  0
    8.1424    0.4266    0.0000 C   0  0  0  0  0  0  0  0  0  0  0  0
    7.1962    0.1218    0.0000 C   0  0  0  0  0  0  0  0  0  0  0  0
    8.7260   -0.3782    0.0000 C   0  0  0  0  0  0  0  0  0  0  0  0
    7.1962   -0.8782    0.0000 C   0  0  0  0  0  0  0  0  0  0  0  0
    8.9524    1.0130    0.0000 C   0  0  0  0  0  0  0  0  0  0  0  0
    7.8350    1.3782    0.0000 C   0  0  0  0  0  0  0  0  0  0  0  0
    6.3301    0.6218    0.0000 C   0  0  0  0  0  0  0  0  0  0  0  0
    6.3301   -1.3782    0.0000 C   0  0  0  0  0  0  0  0  0  0  0  0
    5.4641    0.1218    0.0000 C   0  0  0  0  0  0  0  0  0  0  0  0
    5.4641   -0.8782    0.0000 C   0  0  0  0  0  0  0  0  0  0  0  0
    2.8660   -0.3782    0.0000 C   0  0  0  0  0  0  0  0  0  0  0  0
    2.0000    0.1218    0.0000 C   0  0  0  0  0  0  0  0  0  0  0  0
    9.1868   -0.7929    0.0000 H   0  0  0  0  0  0  0  0  0  0  0  0
    9.1868    0.0366    0.0000 H   0  0  0  0  0  0  0  0  0  0  0  0
    8.4250    1.5687    0.0000 H   0  0  0  0  0  0  0  0  0  0  0  0
    7.6444    1.9682    0.0000 H   0  0  0  0  0  0  0  0  0  0  0  0
    7.2450    1.1876    0.0000 H   0  0  0  0  0  0  0  0  0  0  0  0
    9.3160    0.5107    0.0000 H   0  0  0  0  0  0  0  0  0  0  0  0
    9.4546    1.3765    0.0000 H   0  0  0  0  0  0  0  0  0  0  0  0
    8.5889    1.5152    0.0000 H   0  0  0  0  0  0  0  0  0  0  0  0
    6.3301    1.2418    0.0000 H   0  0  0  0  0  0  0  0  0  0  0  0
    6.3301   -1.9982    0.0000 H   0  0  0  0  0  0  0  0  0  0  0  0
    4.9272   -1.1882    0.0000 H   0  0  0  0  0  0  0  0  0  0  0  0
    2.4675   -0.8531    0.0000 H   0  0  0  0  0  0  0  0  0  0  0  0
    3.2646   -0.8531    0.0000 H   0  0  0  0  0  0  0  0  0  0  0  0
    2.3100    0.6588    0.0000 H   0  0  0  0  0  0  0  0  0  0  0  0
    1.4631    0.4318    0.0000 H   0  0  0  0  0  0  0  0  0  0  0  0
    1.6900   -0.4151    0.0000 H   0  0  0  0  0  0  0  0  0  0  0  0
  1  3  1  0  0  0  0
  1  4  2  0  0  0  0
  1  5  2  0  0  0  0
  1 16  1  0  0  0  0
  2  8  1  0  0  0  0
  2  9  1  0  0  0  0
  3 14  1  0  0  0  0
  6  7  1  0  0  0  0
  6  8  1  0  0  0  0
  6 10  1  0  0  0  0
  6 11  1  0  0  0  0
  7  9  2  0  0  0  0
  7 12  1  0  0  0  0
  8 18  1  0  0  0  0
  8 19  1  0  0  0  0
  9 13  1  0  0  0  0
 10 23  1  0  0  0  0
 10 24  1  0  0  0  0
 10 25  1  0  0  0  0
 11 20  1  0  0  0  0
 11 21  1  0  0  0  0
 11 22  1  0  0  0  0
 12 14  2  0  0  0  0
 12 26  1  0  0  0  0
 13 15  2  0  0  0  0
 13 27  1  0  0  0  0
 14 15  1  0  0  0  0
 15 28  1  0  0  0  0
 16 17  1  0  0  0  0
 16 29  1  0  0  0  0
 16 30  1  0  0  0  0
 17 31  1  0  0  0  0
 17 32  1  0  0  0  0
 17 33  1  0  0  0  0
M  END
> <PUBCHEM_COMPOUND_CID>
3034378

> <PUBCHEM_COMPOUND_CANONICALIZED>
1

> <PUBCHEM_CACTVS_COMPLEXITY>
369

> <PUBCHEM_CACTVS_HBOND_ACCEPTOR>
4

> <PUBCHEM_CACTVS_HBOND_DONOR>
0

> <PUBCHEM_CACTVS_ROTATABLE_BOND>
3

> <PUBCHEM_CACTVS_SUBSKEYS>
AAADceBwOABAAAAAAAAAAAAAAAAAASAAAAAwAAAAAAAAAEgBAAAAGgQAAAAADgSk2AKyBoAABAKAAiBCAHBCCAAgIAAIiAAGCIgMJiKEMRqCOCCkwBEIqAfA4PwPgQABAAAIAAACAAIAABAAAAAAAAAAAA==

> <PUBCHEM_IUPAC_OPENEYE_NAME>
(3,3-dimethyl-2H-benzofuran-5-yl) ethanesulfonate

> <PUBCHEM_IUPAC_CAS_NAME>
ethanesulfonic acid (3,3-dimethyl-2H-benzofuran-5-yl) ester

> <PUBCHEM_IUPAC_NAME>
(3,3-dimethyl-2H-1-benzofuran-5-yl) ethanesulfonate

> <PUBCHEM_IUPAC_SYSTEMATIC_NAME>
(3,3-dimethyl-2H-1-benzofuran-5-yl) ethanesulfonate

> <PUBCHEM_IUPAC_TRADITIONAL_NAME>
ethanesulfonic acid (3,3-dimethylcoumaran-5-yl) ester

> <PUBCHEM_IUPAC_INCHI>
InChI=1S/C12H16O4S/c1-4-17(13,14)16-9-5-6-11-10(7-9)12(2,3)8-15-11/h5-7H,4,8H2,1-3H3

> <PUBCHEM_IUPAC_INCHIKEY>
QGQSRQPXXMTJCM-UHFFFAOYSA-N

> <PUBCHEM_XLOGP3_AA>
2.7

> <PUBCHEM_EXACT_MASS>
256.07693

> <PUBCHEM_MOLECULAR_FORMULA>
C12H16O4S

> <PUBCHEM_MOLECULAR_WEIGHT>
256.31804

> <PUBCHEM_OPENEYE_CAN_SMILES>
CCS(=O)(=O)OC1=CC2=C(C=C1)OCC2(C)C

> <PUBCHEM_OPENEYE_ISO_SMILES>
CCS(=O)(=O)OC1=CC2=C(C=C1)OCC2(C)C

> <PUBCHEM_CACTVS_TPSA>
61

> <PUBCHEM_MONOISOTOPIC_WEIGHT>
256.07693

> <PUBCHEM_TOTAL_CHARGE>
0

> <PUBCHEM_HEAVY_ATOM_COUNT>
17

> <PUBCHEM_ATOM_DEF_STEREO_COUNT>
0

> <PUBCHEM_ATOM_UDEF_STEREO_COUNT>
0

> <PUBCHEM_BOND_DEF_STEREO_COUNT>
0

> <PUBCHEM_BOND_UDEF_STEREO_COUNT>
0

> <PUBCHEM_ISOTOPIC_ATOM_COUNT>
0

> <PUBCHEM_COMPONENT_COUNT>
1

> <PUBCHEM_CACTVS_TAUTO_COUNT>
1

> <PUBCHEM_COORDINATE_TYPE>
1
5
255

> <PUBCHEM_BONDANNOTATIONS>
12  14  8
13  15  8
14  15  8
7  12  8
7  9  8
9  13  8

$$$$

