   Color/Form

     * Prisms or needles from alcohol; leaflets from ligroin.
     * Tan to purple crushed solid or crystals.
     * White to yellowish crystals
     * In its pure form crystallizes into lemon yellow prisms or needles
       ... marketed in the form of brown to dark violet crystals or light
       brown to light violet granules

   from [1]HSDB

   Odor
        Amine-like
   from [2]HSDB

   Boiling Point
        335 deg C @ 558 mm Hg
   from [3]HSDB

   Melting Point
        61 deg C
   from [4]HSDB

   Dissociation Constants
        pKa = 4.93 @ 25 deg C
   from [5]HSDB

   Octanol/Water Partition Coefficient
        log Kow = 4.20
   from [6]HSDB

   Solubilities

     * Soluble in ethanol, ethyl ether, benzene, carbon tetrachloride,
       chloroform, acetic acid.
     * In water, 60 mg/L @ 25 deg C

   from [7]HSDB

   Spectral Properties

     * 1H NMR: 21 (Sadtler Research Laboratories spectral collection)
     * UV: 72 (Sadtler Research Laboratories spectral collection)
     * IR: 6321 (Coblentz Society spectral collection)
     * MASS: 55760 (NIST/EPA/MSDC Mass Spectral Database, 1990 version)
     * UV: 20181

   from [8]HSDB

   Vapor Pressure
        1.13X10-5 mm Hg @ 25 deg C /Extrapolated/
   from [9]HSDB

   Other Chemical/Physical Properties

     * Decomposes on heating or burning, producing irritating or toxic
       fumes or gases. Conversion factor: 1 ppm = 9.114 mg/cu m @ 101.3
       kPa and 20 deg C.
     * Henry's Law constant = 1.4X10-7 atm-cu m/mole @ 25 deg C
       /Estimated/
     * Hydroxyl radical reaction rate constant = 3.5X10-10 cu cm/molec-sec
       @ 25 deg C /Estimated/

   from [10]HSDB

   Computed Properties
   Molecular Weight                  219.28112 [g/mol]
   Molecular Formula                 C[16]H[13]N
   XLogP3                            4.4
   H-Bond Donor                      1
   H-Bond Acceptor                   1
   Rotatable Bond Count              2
   Exact Mass                        219.104799
   MonoIsotopic Mass                 219.104799
   Topological Polar Surface Area    12
   Heavy Atom Count                  17
   Formal Charge                     0
   Complexity                        232
   Isotope Atom Count                0
   Defined Atom Stereocenter Count   0
   Undefined Atom Stereocenter Count 0
   Defined Bond Stereocenter Count   0
   Undefined Bond Stereocenter Count 0
   Covalently-Bonded Unit Count      1
   Feature 3D Donor Count            1
   Feature 3D Cation Count           1
   Feature 3D Ring Count             3
   Effective Rotor Count             2
   Conformer Sampling RMSD           0.6
   CID Conformer Count               [11]8

References

   1. http://toxnet.nlm.nih.gov/cgi-bin/sis/search/r?dbs+hsdb:@term+@rn+@rel+90-30-2
   2. http://toxnet.nlm.nih.gov/cgi-bin/sis/search/r?dbs+hsdb:@term+@rn+@rel+90-30-2
   3. http://toxnet.nlm.nih.gov/cgi-bin/sis/search/r?dbs+hsdb:@term+@rn+@rel+90-30-2
   4. http://toxnet.nlm.nih.gov/cgi-bin/sis/search/r?dbs+hsdb:@term+@rn+@rel+90-30-2
   5. http://toxnet.nlm.nih.gov/cgi-bin/sis/search/r?dbs+hsdb:@term+@rn+@rel+90-30-2
   6. http://toxnet.nlm.nih.gov/cgi-bin/sis/search/r?dbs+hsdb:@term+@rn+@rel+90-30-2
   7. http://toxnet.nlm.nih.gov/cgi-bin/sis/search/r?dbs+hsdb:@term+@rn+@rel+90-30-2
   8. http://toxnet.nlm.nih.gov/cgi-bin/sis/search/r?dbs+hsdb:@term+@rn+@rel+90-30-2
   9. http://toxnet.nlm.nih.gov/cgi-bin/sis/search/r?dbs+hsdb:@term+@rn+@rel+90-30-2
  10. http://toxnet.nlm.nih.gov/cgi-bin/sis/search/r?dbs+hsdb:@term+@rn+@rel+90-30-2
  11. http://pubchem.ncbi.nlm.nih.gov/vw3d/vw3d.cgi?cid=7013
