   Color/Form
        White crystalline solid
   from [1]HSDB

   Odor
        Aromatic odor
   from [2]HSDB

   Boiling Point
        270 deg C
   from [3]HSDB

   Melting Point
        144-145 deg C
   from [4]HSDB

   Corrosivity
        NON-CORROSIVE
   from [5]HSDB

   Octanol/Water Partition Coefficient
        log Kow = 2.74
   from [6]HSDB

   Solubilities

     * In water, 14.6 mg/L at 20 deg C
     * Solubility in solvents (w/v) (approx): acetone 5% at 8 deg C;
       benzene 5% at 8 deg C; cyclohexanone 7% at 15-20 deg C; ethanol 5%
       at 8 deg C; furfural 7% at 8 deg C; methylene chloride 10% at 20
       deg C; methylethylketone 7% at 15-20 deg C; tetrahydrofuran 9% at 8
       deg C; toluene 4% at 20 deg C; xylene 5% at 8 deg C.

   from [7]HSDB

   Spectral Properties

     * Dichlobenil exhibits an absorption maximum at 298 nm (E= 2, 100) in
       methanol.
     * Intense mass spectral peaks: 171 m/z (100%), 100 m/z (71%), 173 m/z
       (69%), 75 m/z (56%)
     * MASS: 4282 (National Bureau of Standards EPA-NIH Mass Spectra Data
       Base, NSRDS-NBS-63)
     * Intense mass spectral peaks: 136 m/z, 171 m/z

   from [8]HSDB

   Vapor Pressure
        6.6X10-4 mm Hg at 20 deg C
   from [9]HSDB

   Other Chemical/Physical Properties

     * Henry's Law constant= 1.0X10-5 atm-cu m/mole at 25 deg C (est)
     * Hydroxyl radical reaction rate constant = 1.7X10-13 cu cm/molec-sec
       at 25 deg C (est)

   from [10]HSDB

   Computed Properties
   Molecular Weight                  172.01142 [g/mol]
   Molecular Formula                 C[7]H[3]Cl[2]N
   XLogP3                            2.7
   H-Bond Donor                      0
   H-Bond Acceptor                   1
   Rotatable Bond Count              0
   Exact Mass                        170.964254
   MonoIsotopic Mass                 170.964254
   Topological Polar Surface Area    23.8
   Heavy Atom Count                  10
   Formal Charge                     0
   Complexity                        150
   Isotope Atom Count                0
   Defined Atom Stereocenter Count   0
   Undefined Atom Stereocenter Count 0
   Defined Bond Stereocenter Count   0
   Undefined Bond Stereocenter Count 0
   Covalently-Bonded Unit Count      1
   Feature 3D Acceptor Count         1
   Feature 3D Ring Count             1
   Effective Rotor Count             0
   Conformer Sampling RMSD           0.4
   CID Conformer Count               [11]1

References

   1. http://toxnet.nlm.nih.gov/cgi-bin/sis/search/r?dbs+hsdb:@term+@rn+@rel+1194-65-6
   2. http://toxnet.nlm.nih.gov/cgi-bin/sis/search/r?dbs+hsdb:@term+@rn+@rel+1194-65-6
   3. http://toxnet.nlm.nih.gov/cgi-bin/sis/search/r?dbs+hsdb:@term+@rn+@rel+1194-65-6
   4. http://toxnet.nlm.nih.gov/cgi-bin/sis/search/r?dbs+hsdb:@term+@rn+@rel+1194-65-6
   5. http://toxnet.nlm.nih.gov/cgi-bin/sis/search/r?dbs+hsdb:@term+@rn+@rel+1194-65-6
   6. http://toxnet.nlm.nih.gov/cgi-bin/sis/search/r?dbs+hsdb:@term+@rn+@rel+1194-65-6
   7. http://toxnet.nlm.nih.gov/cgi-bin/sis/search/r?dbs+hsdb:@term+@rn+@rel+1194-65-6
   8. http://toxnet.nlm.nih.gov/cgi-bin/sis/search/r?dbs+hsdb:@term+@rn+@rel+1194-65-6
   9. http://toxnet.nlm.nih.gov/cgi-bin/sis/search/r?dbs+hsdb:@term+@rn+@rel+1194-65-6
  10. http://toxnet.nlm.nih.gov/cgi-bin/sis/search/r?dbs+hsdb:@term+@rn+@rel+1194-65-6
  11. http://pubchem.ncbi.nlm.nih.gov/vw3d/vw3d.cgi?cid=3031
