94147
  -OEChem-07051212462D

 27 28  0     1  0  0  0  0  0999 V2000
    2.3100   -0.1200    0.0000 O   0  0  0  0  0  0  0  0  0  0  0  0
    4.8488    0.3800    0.0000 C   0  0  1  0  0  0  0  0  0  0  0  0
    4.8488   -0.6200    0.0000 C   0  0  2  0  0  0  0  0  0  0  0  0
    5.7154   -0.1200    0.0000 C   0  0  0  0  0  0  0  0  0  0  0  0
    3.8978    0.6891    0.0000 C   0  0  0  0  0  0  0  0  0  0  0  0
    4.8488    1.3800    0.0000 C   0  0  0  0  0  0  0  0  0  0  0  0
    3.8978   -0.9290    0.0000 C   0  0  0  0  0  0  0  0  0  0  0  0
    3.3100   -0.1200    0.0000 C   0  0  2  0  0  0  0  0  0  0  0  0
    5.7149    1.8800    0.0000 C   0  0  0  0  0  0  0  0  0  0  0  0
    3.9828    1.8800    0.0000 C   0  0  0  0  0  0  0  0  0  0  0  0
    3.5888   -1.8800    0.0000 C   0  0  0  0  0  0  0  0  0  0  0  0
    5.1945   -1.3965    0.0000 H   0  0  0  0  0  0  0  0  0  0  0  0
    6.1139   -0.5949    0.0000 H   0  0  0  0  0  0  0  0  0  0  0  0
    6.1139    0.3550    0.0000 H   0  0  0  0  0  0  0  0  0  0  0  0
    4.1500    1.2554    0.0000 H   0  0  0  0  0  0  0  0  0  0  0  0
    3.3608    0.9991    0.0000 H   0  0  0  0  0  0  0  0  0  0  0  0
    4.3119    1.0700    0.0000 H   0  0  0  0  0  0  0  0  0  0  0  0
    3.0285    0.4325    0.0000 H   0  0  0  0  0  0  0  0  0  0  0  0
    6.0249    1.3431    0.0000 H   0  0  0  0  0  0  0  0  0  0  0  0
    6.2518    2.1900    0.0000 H   0  0  0  0  0  0  0  0  0  0  0  0
    5.4049    2.4170    0.0000 H   0  0  0  0  0  0  0  0  0  0  0  0
    4.2928    2.4170    0.0000 H   0  0  0  0  0  0  0  0  0  0  0  0
    3.4459    2.1900    0.0000 H   0  0  0  0  0  0  0  0  0  0  0  0
    3.6728    1.3431    0.0000 H   0  0  0  0  0  0  0  0  0  0  0  0
    2.9823   -2.0089    0.0000 H   0  0  0  0  0  0  0  0  0  0  0  0
    4.0036   -2.3408    0.0000 H   0  0  0  0  0  0  0  0  0  0  0  0
    2.0000   -0.6569    0.0000 H   0  0  0  0  0  0  0  0  0  0  0  0
  8  1  1  6  0  0  0
  1 27  1  0  0  0  0
  2  3  1  0  0  0  0
  2  4  1  0  0  0  0
  2  5  1  0  0  0  0
  2  6  1  1  0  0  0
  3  4  1  0  0  0  0
  3  7  1  0  0  0  0
  3 12  1  1  0  0  0
  4 13  1  0  0  0  0
  4 14  1  0  0  0  0
  5  8  1  0  0  0  0
  5 15  1  0  0  0  0
  5 16  1  0  0  0  0
  6  9  1  0  0  0  0
  6 10  1  0  0  0  0
  6 17  1  0  0  0  0
  7  8  1  0  0  0  0
  7 11  2  0  0  0  0
  8 18  1  0  0  0  0
  9 19  1  0  0  0  0
  9 20  1  0  0  0  0
  9 21  1  0  0  0  0
 10 22  1  0  0  0  0
 10 23  1  0  0  0  0
 10 24  1  0  0  0  0
 11 25  1  0  0  0  0
 11 26  1  0  0  0  0
M  END
> <PUBCHEM_COMPOUND_CID>
94147

> <PUBCHEM_COMPOUND_CANONICALIZED>
1

> <PUBCHEM_CACTVS_COMPLEXITY>
207

> <PUBCHEM_CACTVS_HBOND_ACCEPTOR>
1

> <PUBCHEM_CACTVS_HBOND_DONOR>
1

> <PUBCHEM_CACTVS_ROTATABLE_BOND>
1

> <PUBCHEM_CACTVS_SUBSKEYS>
AAADceBwIAAAAAAAAAAAAAAAGAAAAYAAAAAwAAAAAAAAAAAAAAAAGgAACAAADxSggAICAAAAAgCAAgBCAAAAAAAgAAAAAAAAAAgAFAIAAQAAQAAEgAAAEAGAwPAPgAAAAAAAAAAAAAIAAAAAAIAACAAAAA==

> <PUBCHEM_IUPAC_OPENEYE_NAME>
(1S,3R,5S)-5-isopropyl-2-methylene-bicyclo[3.1.0]hexan-3-ol

> <PUBCHEM_IUPAC_CAS_NAME>
(1S,3R,5S)-2-methylene-5-propan-2-yl-3-bicyclo[3.1.0]hexanol

> <PUBCHEM_IUPAC_NAME>
(1S,3R,5S)-2-methylidene-5-propan-2-ylbicyclo[3.1.0]hexan-3-ol

> <PUBCHEM_IUPAC_SYSTEMATIC_NAME>
(1S,3R,5S)-2-methylidene-5-propan-2-yl-bicyclo[3.1.0]hexan-3-ol

> <PUBCHEM_IUPAC_TRADITIONAL_NAME>
(1S,3R,5S)-5-isopropyl-2-methylene-bicyclo[3.1.0]hexan-3-ol

> <PUBCHEM_IUPAC_INCHI>
InChI=1S/C10H16O/c1-6(2)10-4-8(10)7(3)9(11)5-10/h6,8-9,11H,3-5H2,1-2H3/t8-,9-,10+/m1/s1

> <PUBCHEM_IUPAC_INCHIKEY>
MDFQXBNVOAKNAY-BBBLOLIVSA-N

> <PUBCHEM_XLOGP3_AA>
1.8

> <PUBCHEM_EXACT_MASS>
152.120115

> <PUBCHEM_MOLECULAR_FORMULA>
C10H16O

> <PUBCHEM_MOLECULAR_WEIGHT>
152.23344

> <PUBCHEM_OPENEYE_CAN_SMILES>
CC(C)C12CC1C(=C)C(C2)O

> <PUBCHEM_OPENEYE_ISO_SMILES>
CC(C)[C@@]12C[C@@H]1C(=C)[C@@H](C2)O

> <PUBCHEM_CACTVS_TPSA>
20.2

> <PUBCHEM_MONOISOTOPIC_WEIGHT>
152.120115

> <PUBCHEM_TOTAL_CHARGE>
0

> <PUBCHEM_HEAVY_ATOM_COUNT>
11

> <PUBCHEM_ATOM_DEF_STEREO_COUNT>
3

> <PUBCHEM_ATOM_UDEF_STEREO_COUNT>
0

> <PUBCHEM_BOND_DEF_STEREO_COUNT>
0

> <PUBCHEM_BOND_UDEF_STEREO_COUNT>
0

> <PUBCHEM_ISOTOPIC_ATOM_COUNT>
0

> <PUBCHEM_COMPONENT_COUNT>
1

> <PUBCHEM_CACTVS_TAUTO_COUNT>
1

> <PUBCHEM_COORDINATE_TYPE>
1
5
255

> <PUBCHEM_BONDANNOTATIONS>
8  1  6
2  6  5
3  12  5

$$$$

