   Color/Form
        Colorless, volatile liquid
   from [1]HSDB

   Odor
        UNPLEASANT ODOR OF WILD RADISH, CABBAGE-LIKE
   from [2]HSDB

   Taste
        Characteristic flavor
   from [3]HSDB

   Boiling Point
        37.3 deg C
   from [4]HSDB

   Melting Point
        -98.24 deg C
   from [5]HSDB

   Critical Temperature and Pressure
        Critical temperature: 444 deg F = 229 deg C = 502 deg K; Critical
   pressure: 826 psia = 56.1 atm = 5.69 MN/sq m
   from [6]HSDB

   Density/Specific Gravity
        0.8483 g/cu cm at 20 deg C
   from [7]HSDB

   Heat of Combustion
        -13200 Btu/lb = -7340 cal/g = -307X10+5 J/kg
   from [8]HSDB

   Heat of Vaporization
        194 Btu/lb = 108 cal/g = 4.52X10+5 J/kg
   from [9]HSDB

   Octanol/Water Partition Coefficient
        log Kow = 0.92 (est)
   from [10]HSDB

   Solubilities

     * Soluble in alcohol, ether; soluble in water at concentrations below
       300 mM
     * Slightly soluble in water; soluble in ethanol, ethyl ether
     * In water, 2.2X10+4 mg/L at 25 deg C

   from [11]HSDB

   Spectral Properties

     * MAX ABSORPTION (ALCOHOL): 215 NM (LOG E= 3.0)
     * Index of refraction: 1.4438 at 20 deg C/D
     * Index of refraction: 1.4353 at 20 deg C/D
     * IR: 6300 (Sadtler Research Laboratories Prism Collection)
     * MASS: 19013 (NIST/EPA/MSDC Mass Spectral Database, 1990 version);
       1117 (Atlas of Mass Spectral Data, John Wiley & Sons, New York)

   from [12]HSDB

   Surface Tension
        26.5 dynes/cm = 0.0265 N/m at 11 deg C
   from [13]HSDB

   Vapor Density
        2.14 (Air = 1)
   from [14]HSDB

   Vapor Pressure
        502 mm Hg at 25 deg C
   from [15]HSDB

   Viscosity
        Less than 32.6 Saybolt unit sec
   from [16]HSDB

   Other Chemical/Physical Properties

     * Wt/vol conversion: 2.54 mg/cu m = 1 ppm
     * Liquid-Water Interfacial Tension: (est) 30 dynes/cm= 0.030 N/m @ 20
       deg C; Ratio of Specific Heats of Vapor (Gas): 1.1277 @ 16 deg C
     * Evolves sulfur dioxide when heated
     * Henry's Law constant = 1.61X10-3 atm cu-m\mol at 25 deg C [Gaffney
       JS et al; Environ Sci Technol 21: 519-23 (1987)] [17]PubMed
       Abstract
     * Hydroxyl radical reaction rate constant = 4.82X10-12 cu
       cm/molec-sec at 25 deg C

   from [18]HSDB

   Computed Properties
   Molecular Weight                  62.13404 [g/mol]
   Molecular Formula                 C[2]H[6]S
   XLogP3-AA                         0.9
   H-Bond Donor                      0
   H-Bond Acceptor                   1
   Rotatable Bond Count              0
   Exact Mass                        62.019021
   MonoIsotopic Mass                 62.019021
   Topological Polar Surface Area    25.3
   Heavy Atom Count                  3
   Formal Charge                     0
   Complexity                        2.8
   Isotope Atom Count                0
   Defined Atom Stereocenter Count   0
   Undefined Atom Stereocenter Count 0
   Defined Bond Stereocenter Count   0
   Undefined Bond Stereocenter Count 0
   Covalently-Bonded Unit Count      1
   Feature 3D Hydrophobe Count       1
   Effective Rotor Count             0
   Conformer Sampling RMSD           0.4
   CID Conformer Count               [19]1

References

   1. http://toxnet.nlm.nih.gov/cgi-bin/sis/search/r?dbs+hsdb:@term+@rn+@rel+75-18-3
   2. http://toxnet.nlm.nih.gov/cgi-bin/sis/search/r?dbs+hsdb:@term+@rn+@rel+75-18-3
   3. http://toxnet.nlm.nih.gov/cgi-bin/sis/search/r?dbs+hsdb:@term+@rn+@rel+75-18-3
   4. http://toxnet.nlm.nih.gov/cgi-bin/sis/search/r?dbs+hsdb:@term+@rn+@rel+75-18-3
   5. http://toxnet.nlm.nih.gov/cgi-bin/sis/search/r?dbs+hsdb:@term+@rn+@rel+75-18-3
   6. http://toxnet.nlm.nih.gov/cgi-bin/sis/search/r?dbs+hsdb:@term+@rn+@rel+75-18-3
   7. http://toxnet.nlm.nih.gov/cgi-bin/sis/search/r?dbs+hsdb:@term+@rn+@rel+75-18-3
   8. http://toxnet.nlm.nih.gov/cgi-bin/sis/search/r?dbs+hsdb:@term+@rn+@rel+75-18-3
   9. http://toxnet.nlm.nih.gov/cgi-bin/sis/search/r?dbs+hsdb:@term+@rn+@rel+75-18-3
  10. http://toxnet.nlm.nih.gov/cgi-bin/sis/search/r?dbs+hsdb:@term+@rn+@rel+75-18-3
  11. http://toxnet.nlm.nih.gov/cgi-bin/sis/search/r?dbs+hsdb:@term+@rn+@rel+75-18-3
  12. http://toxnet.nlm.nih.gov/cgi-bin/sis/search/r?dbs+hsdb:@term+@rn+@rel+75-18-3
  13. http://toxnet.nlm.nih.gov/cgi-bin/sis/search/r?dbs+hsdb:@term+@rn+@rel+75-18-3
  14. http://toxnet.nlm.nih.gov/cgi-bin/sis/search/r?dbs+hsdb:@term+@rn+@rel+75-18-3
  15. http://toxnet.nlm.nih.gov/cgi-bin/sis/search/r?dbs+hsdb:@term+@rn+@rel+75-18-3
  16. http://toxnet.nlm.nih.gov/cgi-bin/sis/search/r?dbs+hsdb:@term+@rn+@rel+75-18-3
  17. http://www.ncbi.nlm.nih.gov/entrez/query.fcgi?cmd=Retrieve&db=pubmed&dopt=Abstract&list_uids=19994967
  18. http://toxnet.nlm.nih.gov/cgi-bin/sis/search/r?dbs+hsdb:@term+@rn+@rel+75-18-3
  19. http://pubchem.ncbi.nlm.nih.gov/vw3d/vw3d.cgi?cid=1068
