   Color/Form

     * Brownish-yellow needles with bluish cast
     * Orange monoclinic needles from alcohol
     * Yellow to tan crystals

   from [1]HSDB

   Boiling Point
        Above 360 deg C
   from [2]HSDB

   Melting Point
        128 deg C
   from [3]HSDB

   Dissociation Constants
        pKa = 2.82
   from [4]HSDB

   Octanol/Water Partition Coefficient
        log Kow = 3.41
   from [5]HSDB

   Solubilities

     * Freely sol in alcohol, benzene, chloroform, ether
     * In water, 32 mg/L at 25 deg C

   from [6]HSDB

   Spectral Properties

     * MAX ABSORPTION (ALCOHOL): 251 NM (LOG E= 4.0); 384 NM (LOG E= 4.4)
     * Intense mass spectral peaks: 92 m/z (100%), 197 m/z (53%), 65 m/z
       (50%), 77 m/z (34%)
     * IR: 8032 (Sadtler Research Laboratories IR Grating Collection)
     * UV: 142 (Sadtler Research Laboratories Spectral Collection)
     * 1H NMR: 17244 (Sadtler Research Laboratories Spectral Collection)
     * MASS: 8756 (NIST/EPA/MSDC Mass Spectral database, 1990 version)

   from [7]HSDB

   Vapor Pressure
        1.40X10-6 mm Hg at 25 deg C
   from [8]HSDB

   Other Chemical/Physical Properties

     * It reduces alcoholic ammoniacal silver nitrate
     * UV: 3-342 (Organic Electronic Spectral Data, Phillips et al, John
       Wiley & Sons, New York) /2-Aminoazobenzene/
     * IR: 7698 (Sadtler Research Laboratories Prism Collection)
       /3-Aminoazobenzene/
     * UV: 3-342 (Organic Electronic Spectral Data, Phillips et al, John
       Wiley & Sons, New York) /3-Aminoazobenzene/
     * Henry's Law constant = 8.70X10-11 atm-cu m/mol at 25 deg C (est)
     * Hydroxyl radical reaction rate constant = 4.34X10-11 cu
       cm/molec-sec at 25 deg C (est)

   from [9]HSDB

   Computed Properties
   Molecular Weight                  197.23584 [g/mol]
   Molecular Formula                 C[12]H[11]N[3]
   XLogP3                            3.4
   H-Bond Donor                      1
   H-Bond Acceptor                   3
   Rotatable Bond Count              2
   Tautomer Count                    2
   Exact Mass                        197.095297
   MonoIsotopic Mass                 197.095297
   Topological Polar Surface Area    50.7
   Heavy Atom Count                  15
   Formal Charge                     0
   Complexity                        201
   Isotope Atom Count                0
   Defined Atom Stereocenter Count   0
   Undefined Atom Stereocenter Count 0
   Defined Bond Stereocenter Count   0
   Undefined Bond Stereocenter Count 0
   Covalently-Bonded Unit Count      1
   Feature 3D Donor Count            1
   Feature 3D Cation Count           1
   Feature 3D Ring Count             2
   Effective Rotor Count             2
   Conformer Sampling RMSD           0.6
   CID Conformer Count               [10]2

References

   1. http://toxnet.nlm.nih.gov/cgi-bin/sis/search/r?dbs+hsdb:@term+@rn+@rel+60-09-3
   2. http://toxnet.nlm.nih.gov/cgi-bin/sis/search/r?dbs+hsdb:@term+@rn+@rel+60-09-3
   3. http://toxnet.nlm.nih.gov/cgi-bin/sis/search/r?dbs+hsdb:@term+@rn+@rel+60-09-3
   4. http://toxnet.nlm.nih.gov/cgi-bin/sis/search/r?dbs+hsdb:@term+@rn+@rel+60-09-3
   5. http://toxnet.nlm.nih.gov/cgi-bin/sis/search/r?dbs+hsdb:@term+@rn+@rel+60-09-3
   6. http://toxnet.nlm.nih.gov/cgi-bin/sis/search/r?dbs+hsdb:@term+@rn+@rel+60-09-3
   7. http://toxnet.nlm.nih.gov/cgi-bin/sis/search/r?dbs+hsdb:@term+@rn+@rel+60-09-3
   8. http://toxnet.nlm.nih.gov/cgi-bin/sis/search/r?dbs+hsdb:@term+@rn+@rel+60-09-3
   9. http://toxnet.nlm.nih.gov/cgi-bin/sis/search/r?dbs+hsdb:@term+@rn+@rel+60-09-3
  10. http://pubchem.ncbi.nlm.nih.gov/vw3d/vw3d.cgi?cid=6051
