62102
  -OEChem-07051213142D

 19 19  0     0  0  0  0  0  0999 V2000
    2.8660    2.0950    0.0000 O   0  0  0  0  0  0  0  0  0  0  0  0
    2.0000    0.5950    0.0000 O   0  0  0  0  0  0  0  0  0  0  0  0
    5.4641   -2.4050    0.0000 O   0  0  0  0  0  0  0  0  0  0  0  0
    4.5981   -0.9050    0.0000 N   0  0  0  0  0  0  0  0  0  0  0  0
    4.5981   -1.9050    0.0000 N   0  0  0  0  0  0  0  0  0  0  0  0
    5.4641   -0.4050    0.0000 C   0  0  0  0  0  0  0  0  0  0  0  0
    5.4641    0.5950    0.0000 C   0  0  0  0  0  0  0  0  0  0  0  0
    3.7320   -0.4050    0.0000 C   0  0  0  0  0  0  0  0  0  0  0  0
    3.7320    0.5950    0.0000 C   0  0  0  0  0  0  0  0  0  0  0  0
    4.5981    1.0950    0.0000 C   0  0  0  0  0  0  0  0  0  0  0  0
    2.8660    1.0950    0.0000 C   0  0  0  0  0  0  0  0  0  0  0  0
    5.6762   -0.9876    0.0000 H   0  0  0  0  0  0  0  0  0  0  0  0
    6.0747   -0.2973    0.0000 H   0  0  0  0  0  0  0  0  0  0  0  0
    6.0747    0.4873    0.0000 H   0  0  0  0  0  0  0  0  0  0  0  0
    5.6762    1.1776    0.0000 H   0  0  0  0  0  0  0  0  0  0  0  0
    3.1215   -0.2973    0.0000 H   0  0  0  0  0  0  0  0  0  0  0  0
    3.5200   -0.9876    0.0000 H   0  0  0  0  0  0  0  0  0  0  0  0
    4.5981    1.7150    0.0000 H   0  0  0  0  0  0  0  0  0  0  0  0
    2.3291    2.4050    0.0000 H   0  0  0  0  0  0  0  0  0  0  0  0
  1 11  1  0  0  0  0
  1 19  1  0  0  0  0
  2 11  2  0  0  0  0
  3  5  2  0  0  0  0
  4  5  1  0  0  0  0
  4  6  1  0  0  0  0
  4  8  1  0  0  0  0
  6  7  1  0  0  0  0
  6 12  1  0  0  0  0
  6 13  1  0  0  0  0
  7 10  1  0  0  0  0
  7 14  1  0  0  0  0
  7 15  1  0  0  0  0
  8  9  1  0  0  0  0
  8 16  1  0  0  0  0
  8 17  1  0  0  0  0
  9 10  2  0  0  0  0
  9 11  1  0  0  0  0
 10 18  1  0  0  0  0
M  END
> <PUBCHEM_COMPOUND_CID>
62102

> <PUBCHEM_COMPOUND_CANONICALIZED>
1

> <PUBCHEM_CACTVS_COMPLEXITY>
212

> <PUBCHEM_CACTVS_HBOND_ACCEPTOR>
5

> <PUBCHEM_CACTVS_HBOND_DONOR>
1

> <PUBCHEM_CACTVS_ROTATABLE_BOND>
1

> <PUBCHEM_CACTVS_SUBSKEYS>
AAADccBjMAAAAAAAAAAAAAAAAAAAAAAAAAAgAAAAAAAAAAAAAAAAHgAMCAAADADBgAQACAIAAgCJAiDSCACAAAAgAAAQCAEIAEgABAgAAQAEUAACAACIEYIAAAAAAAAAAAAAAAAAAAAAAAAAAAAAAAAAAA==

> <PUBCHEM_IUPAC_OPENEYE_NAME>
1-nitroso-3,6-dihydro-2H-pyridine-5-carboxylic acid

> <PUBCHEM_IUPAC_CAS_NAME>
1-nitroso-3,6-dihydro-2H-pyridine-5-carboxylic acid

> <PUBCHEM_IUPAC_NAME>
1-nitroso-3,6-dihydro-2H-pyridine-5-carboxylic acid

> <PUBCHEM_IUPAC_SYSTEMATIC_NAME>
1-nitroso-3,6-dihydro-2H-pyridine-5-carboxylic acid

> <PUBCHEM_IUPAC_TRADITIONAL_NAME>
1-nitroso-3,6-dihydro-2H-pyridine-5-carboxylic acid

> <PUBCHEM_IUPAC_INCHI>
InChI=1S/C6H8N2O3/c9-6(10)5-2-1-3-8(4-5)7-11/h2H,1,3-4H2,(H,9,10)

> <PUBCHEM_IUPAC_INCHIKEY>
XAZBVEFQMFZFEZ-UHFFFAOYSA-N

> <PUBCHEM_XLOGP3_AA>
0.1

> <PUBCHEM_EXACT_MASS>
156.053492

> <PUBCHEM_MOLECULAR_FORMULA>
C6H8N2O3

> <PUBCHEM_MOLECULAR_WEIGHT>
156.13932

> <PUBCHEM_OPENEYE_CAN_SMILES>
C1CN(CC(=C1)C(=O)O)N=O

> <PUBCHEM_OPENEYE_ISO_SMILES>
C1CN(CC(=C1)C(=O)O)N=O

> <PUBCHEM_CACTVS_TPSA>
70

> <PUBCHEM_MONOISOTOPIC_WEIGHT>
156.053492

> <PUBCHEM_TOTAL_CHARGE>
0

> <PUBCHEM_HEAVY_ATOM_COUNT>
11

> <PUBCHEM_ATOM_DEF_STEREO_COUNT>
0

> <PUBCHEM_ATOM_UDEF_STEREO_COUNT>
0

> <PUBCHEM_BOND_DEF_STEREO_COUNT>
0

> <PUBCHEM_BOND_UDEF_STEREO_COUNT>
0

> <PUBCHEM_ISOTOPIC_ATOM_COUNT>
0

> <PUBCHEM_COMPONENT_COUNT>
1

> <PUBCHEM_CACTVS_TAUTO_COUNT>
1

> <PUBCHEM_COORDINATE_TYPE>
1
5
255

$$$$

