243968
  -OEChem-07051213062D

 53 56  0     1  0  0  0  0  0999 V2000
    2.9686   -2.8552    0.0000 O   0  0  0  0  0  0  0  0  0  0  0  0
    2.9316    4.3830    0.0000 O   0  0  0  0  0  0  0  0  0  0  0  0
    3.8628   -4.3830    0.0000 O   0  0  0  0  0  0  0  0  0  0  0  0
    2.9847    0.1863    0.0000 C   0  0  2  0  0  0  0  0  0  0  0  0
    2.9686    1.2278    0.0000 C   0  0  2  0  0  0  0  0  0  0  0  0
    3.8507   -0.3137    0.0000 C   0  0  2  0  0  0  0  0  0  0  0  0
    3.8507   -1.3137    0.0000 C   0  0  1  0  0  0  0  0  0  0  0  0
    3.8667    1.7555    0.0000 C   0  0  1  0  0  0  0  0  0  0  0  0
    2.9847   -1.8137    0.0000 C   0  0  2  0  0  0  0  0  0  0  0  0
    2.1187   -0.3137    0.0000 C   0  0  0  0  0  0  0  0  0  0  0  0
    4.7607    0.1931    0.0000 C   0  0  0  0  0  0  0  0  0  0  0  0
    4.7688    1.2347    0.0000 C   0  0  0  0  0  0  0  0  0  0  0  0
    2.1187   -1.3137    0.0000 C   0  0  0  0  0  0  0  0  0  0  0  0
    2.0167    1.7484    0.0000 C   0  0  0  0  0  0  0  0  0  0  0  0
    4.7607   -1.8206    0.0000 C   0  0  0  0  0  0  0  0  0  0  0  0
    3.8751    2.8405    0.0000 C   0  0  0  0  0  0  0  0  0  0  0  0
    2.1065    0.7211    0.0000 C   0  0  0  0  0  0  0  0  0  0  0  0
    2.0000    2.8333    0.0000 C   0  0  0  0  0  0  0  0  0  0  0  0
    4.7688   -2.8622    0.0000 C   0  0  1  0  0  0  0  0  0  0  0  0
    2.1187   -2.3137    0.0000 C   0  0  0  0  0  0  0  0  0  0  0  0
    2.9354    3.3830    0.0000 C   0  0  0  0  0  0  0  0  0  0  0  0
    3.8667   -3.3830    0.0000 C   0  0  0  0  0  0  0  0  0  0  0  0
    5.6367   -3.3588    0.0000 C   0  0  0  0  0  0  0  0  0  0  0  0
    2.2453    0.6056    0.0000 H   0  0  0  0  0  0  0  0  0  0  0  0
    4.5836   -0.7444    0.0000 H   0  0  0  0  0  0  0  0  0  0  0  0
    4.5836   -0.8831    0.0000 H   0  0  0  0  0  0  0  0  0  0  0  0
    4.6044    2.1777    0.0000 H   0  0  0  0  0  0  0  0  0  0  0  0
    1.9066    0.2689    0.0000 H   0  0  0  0  0  0  0  0  0  0  0  0
    1.5081   -0.4214    0.0000 H   0  0  0  0  0  0  0  0  0  0  0  0
    4.9653   -0.3922    0.0000 H   0  0  0  0  0  0  0  0  0  0  0  0
    5.3724    0.2945    0.0000 H   0  0  0  0  0  0  0  0  0  0  0  0
    5.3788    1.1239    0.0000 H   0  0  0  0  0  0  0  0  0  0  0  0
    4.9823    1.8168    0.0000 H   0  0  0  0  0  0  0  0  0  0  0  0
    1.5081   -1.2061    0.0000 H   0  0  0  0  0  0  0  0  0  0  0  0
    1.9066   -1.8963    0.0000 H   0  0  0  0  0  0  0  0  0  0  0  0
    1.4043    1.8451    0.0000 H   0  0  0  0  0  0  0  0  0  0  0  0
    1.8167    1.1616    0.0000 H   0  0  0  0  0  0  0  0  0  0  0  0
    5.3724   -1.9220    0.0000 H   0  0  0  0  0  0  0  0  0  0  0  0
    4.9653   -1.2353    0.0000 H   0  0  0  0  0  0  0  0  0  0  0  0
    4.4851    2.7297    0.0000 H   0  0  0  0  0  0  0  0  0  0  0  0
    4.0886    3.4226    0.0000 H   0  0  0  0  0  0  0  0  0  0  0  0
    1.7924    1.2556    0.0000 H   0  0  0  0  0  0  0  0  0  0  0  0
    1.5720    0.4070    0.0000 H   0  0  0  0  0  0  0  0  0  0  0  0
    2.4206    0.1866    0.0000 H   0  0  0  0  0  0  0  0  0  0  0  0
    1.7820    3.4137    0.0000 H   0  0  0  0  0  0  0  0  0  0  0  0
    1.3908    2.7178    0.0000 H   0  0  0  0  0  0  0  0  0  0  0  0
    4.7700   -3.4822    0.0000 H   0  0  0  0  0  0  0  0  0  0  0  0
    1.8087   -1.7768    0.0000 H   0  0  0  0  0  0  0  0  0  0  0  0
    1.5818   -2.6237    0.0000 H   0  0  0  0  0  0  0  0  0  0  0  0
    2.4287   -2.8507    0.0000 H   0  0  0  0  0  0  0  0  0  0  0  0
    5.3288   -3.8970    0.0000 H   0  0  0  0  0  0  0  0  0  0  0  0
    6.1748   -3.6668    0.0000 H   0  0  0  0  0  0  0  0  0  0  0  0
    5.9446   -2.8207    0.0000 H   0  0  0  0  0  0  0  0  0  0  0  0
  1  9  1  0  0  0  0
  1 22  1  0  0  0  0
  2 21  2  0  0  0  0
  3 22  2  0  0  0  0
  4  5  1  0  0  0  0
  4  6  1  0  0  0  0
  4 10  1  0  0  0  0
  4 24  1  1  0  0  0
  5  8  1  0  0  0  0
  5 14  1  0  0  0  0
  5 17  1  6  0  0  0
  6  7  1  0  0  0  0
  6 11  1  0  0  0  0
  6 25  1  6  0  0  0
  7  9  1  0  0  0  0
  7 15  1  0  0  0  0
  7 26  1  1  0  0  0
  8 12  1  0  0  0  0
  8 16  1  0  0  0  0
  8 27  1  1  0  0  0
  9 13  1  0  0  0  0
  9 20  1  6  0  0  0
 10 13  1  0  0  0  0
 10 28  1  0  0  0  0
 10 29  1  0  0  0  0
 11 12  1  0  0  0  0
 11 30  1  0  0  0  0
 11 31  1  0  0  0  0
 12 32  1  0  0  0  0
 12 33  1  0  0  0  0
 13 34  1  0  0  0  0
 13 35  1  0  0  0  0
 14 18  1  0  0  0  0
 14 36  1  0  0  0  0
 14 37  1  0  0  0  0
 15 19  1  0  0  0  0
 15 38  1  0  0  0  0
 15 39  1  0  0  0  0
 16 21  1  0  0  0  0
 16 40  1  0  0  0  0
 16 41  1  0  0  0  0
 17 42  1  0  0  0  0
 17 43  1  0  0  0  0
 17 44  1  0  0  0  0
 18 21  1  0  0  0  0
 18 45  1  0  0  0  0
 18 46  1  0  0  0  0
 19 22  1  0  0  0  0
 19 23  1  6  0  0  0
 19 47  1  0  0  0  0
 20 48  1  0  0  0  0
 20 49  1  0  0  0  0
 20 50  1  0  0  0  0
 23 51  1  0  0  0  0
 23 52  1  0  0  0  0
 23 53  1  0  0  0  0
M  END
> <PUBCHEM_COMPOUND_CID>
243968

> <PUBCHEM_COMPOUND_CANONICALIZED>
1

> <PUBCHEM_CACTVS_COMPLEXITY>
541

> <PUBCHEM_CACTVS_HBOND_ACCEPTOR>
3

> <PUBCHEM_CACTVS_HBOND_DONOR>
0

> <PUBCHEM_CACTVS_ROTATABLE_BOND>
0

> <PUBCHEM_CACTVS_SUBSKEYS>
AAADceB4MAAAAAAAAAAAAAAAAAAAAAAAAAA0YMEAAAAAAADQAAAAGgAAAAAAD0SAgAACCAAABAAIAICQCAAAAAAAAAAAAAEAAAAAABIAAAACAAAEAAAAAAGIzPDPgAAAAAAAAADAAAYAADAAAAAAAAAAAA==

> <PUBCHEM_IUPAC_OPENEYE_NAME>
(3S,4aS,4bR,6aS,10aS,10bS,12aS)-3,10a,12a-trimethyl-4,4a,4b,5,6,6a,7,9,10,10b,11,12-dodecahydro-3H-naphtho[2,1-f]chromene-2,8-dione

> <PUBCHEM_IUPAC_CAS_NAME>
(3S,4aS,4bR,6aS,10aS,10bS,12aS)-3,10a,12a-trimethyl-4,4a,4b,5,6,6a,7,9,10,10b,11,12-dodecahydro-3H-naphtho[2,1-f][1]benzopyran-2,8-dione

> <PUBCHEM_IUPAC_NAME>
(3S,4aS,4bR,6aS,10aS,10bS,12aS)-3,10a,12a-trimethyl-4,4a,4b,5,6,6a,7,9,10,10b,11,12-dodecahydro-3H-naphtho[2,1-f]chromene-2,8-dione

> <PUBCHEM_IUPAC_SYSTEMATIC_NAME>
(3S,4aS,4bR,6aS,10aS,10bS,12aS)-3,10a,12a-trimethyl-4,4a,4b,5,6,6a,7,9,10,10b,11,12-dodecahydro-3H-naphtho[2,1-f]chromene-2,8-dione

> <PUBCHEM_IUPAC_TRADITIONAL_NAME>
(3S,4aS,4bR,6aS,10aS,10bS,12aS)-3,10a,12a-trimethyl-4,4a,4b,5,6,6a,7,9,10,10b,11,12-dodecahydro-3H-naphtho[2,1-f]chromene-2,8-quinone

> <PUBCHEM_IUPAC_INCHI>
InChI=1S/C20H30O3/c1-12-10-17-15-5-4-13-11-14(21)6-8-19(13,2)16(15)7-9-20(17,3)23-18(12)22/h12-13,15-17H,4-11H2,1-3H3/t12-,13-,15+,16-,17-,19-,20-/m0/s1

> <PUBCHEM_IUPAC_INCHIKEY>
AXSURGHMUQGRLH-WTRLJETISA-N

> <PUBCHEM_XLOGP3_AA>
3.8

> <PUBCHEM_EXACT_MASS>
318.219495

> <PUBCHEM_MOLECULAR_FORMULA>
C20H30O3

> <PUBCHEM_MOLECULAR_WEIGHT>
318.4504

> <PUBCHEM_OPENEYE_CAN_SMILES>
CC1CC2C3CCC4CC(=O)CCC4(C3CCC2(OC1=O)C)C

> <PUBCHEM_OPENEYE_ISO_SMILES>
C[C@H]1C[C@H]2[C@@H]3CC[C@H]4CC(=O)CC[C@@]4([C@H]3CC[C@@]2(OC1=O)C)C

> <PUBCHEM_CACTVS_TPSA>
43.4

> <PUBCHEM_MONOISOTOPIC_WEIGHT>
318.219495

> <PUBCHEM_TOTAL_CHARGE>
0

> <PUBCHEM_HEAVY_ATOM_COUNT>
23

> <PUBCHEM_ATOM_DEF_STEREO_COUNT>
7

> <PUBCHEM_ATOM_UDEF_STEREO_COUNT>
0

> <PUBCHEM_BOND_DEF_STEREO_COUNT>
0

> <PUBCHEM_BOND_UDEF_STEREO_COUNT>
0

> <PUBCHEM_ISOTOPIC_ATOM_COUNT>
0

> <PUBCHEM_COMPONENT_COUNT>
1

> <PUBCHEM_CACTVS_TAUTO_COUNT>
6

> <PUBCHEM_COORDINATE_TYPE>
1
5
255

> <PUBCHEM_BONDANNOTATIONS>
19  23  6
4  24  5
5  17  6
6  25  6
7  26  5
8  27  5
9  20  6

$$$$

