157245
  -OEChem-07051213112D

 27 30  0     0  0  0  0  0  0999 V2000
    3.6971    2.8388    0.0000 O   0  0  0  0  0  0  0  0  0  0  0  0
    3.7320   -0.1602    0.0000 C   0  0  0  0  0  0  0  0  0  0  0  0
    3.7320   -1.1602    0.0000 C   0  0  0  0  0  0  0  0  0  0  0  0
    2.8660    0.3398    0.0000 C   0  0  0  0  0  0  0  0  0  0  0  0
    4.6260    0.3745    0.0000 C   0  0  0  0  0  0  0  0  0  0  0  0
    4.6260   -1.6948    0.0000 C   0  0  0  0  0  0  0  0  0  0  0  0
    2.8660   -1.6602    0.0000 C   0  0  0  0  0  0  0  0  0  0  0  0
    2.0000   -0.1602    0.0000 C   0  0  0  0  0  0  0  0  0  0  0  0
    5.5321   -0.1393    0.0000 C   0  0  0  0  0  0  0  0  0  0  0  0
    5.5321   -1.1810    0.0000 C   0  0  0  0  0  0  0  0  0  0  0  0
    2.0000   -1.1602    0.0000 C   0  0  0  0  0  0  0  0  0  0  0  0
    2.8648    1.3315    0.0000 C   0  0  0  0  0  0  0  0  0  0  0  0
    4.5882    1.3655    0.0000 C   0  0  0  0  0  0  0  0  0  0  0  0
    4.5882   -2.6858    0.0000 C   0  0  0  0  0  0  0  0  0  0  0  0
    2.8648   -2.6519    0.0000 C   0  0  0  0  0  0  0  0  0  0  0  0
    3.7168    1.8390    0.0000 C   0  0  0  0  0  0  0  0  0  0  0  0
    3.7168   -3.1593    0.0000 C   0  0  0  0  0  0  0  0  0  0  0  0
    1.4631    0.1498    0.0000 H   0  0  0  0  0  0  0  0  0  0  0  0
    6.0678    0.1727    0.0000 H   0  0  0  0  0  0  0  0  0  0  0  0
    6.0678   -1.4930    0.0000 H   0  0  0  0  0  0  0  0  0  0  0  0
    1.4631   -1.4702    0.0000 H   0  0  0  0  0  0  0  0  0  0  0  0
    2.3256    1.6376    0.0000 H   0  0  0  0  0  0  0  0  0  0  0  0
    5.1149    1.6925    0.0000 H   0  0  0  0  0  0  0  0  0  0  0  0
    5.1149   -3.0128    0.0000 H   0  0  0  0  0  0  0  0  0  0  0  0
    2.3256   -2.9579    0.0000 H   0  0  0  0  0  0  0  0  0  0  0  0
    3.7046   -3.7792    0.0000 H   0  0  0  0  0  0  0  0  0  0  0  0
    4.2279    3.1593    0.0000 H   0  0  0  0  0  0  0  0  0  0  0  0
  1 16  1  0  0  0  0
  1 27  1  0  0  0  0
  2  3  1  0  0  0  0
  2  4  2  0  0  0  0
  2  5  1  0  0  0  0
  3  6  2  0  0  0  0
  3  7  1  0  0  0  0
  4  8  1  0  0  0  0
  4 12  1  0  0  0  0
  5  9  1  0  0  0  0
  5 13  2  0  0  0  0
  6 10  1  0  0  0  0
  6 14  1  0  0  0  0
  7 11  1  0  0  0  0
  7 15  2  0  0  0  0
  8 11  2  0  0  0  0
  8 18  1  0  0  0  0
  9 10  2  0  0  0  0
  9 19  1  0  0  0  0
 10 20  1  0  0  0  0
 11 21  1  0  0  0  0
 12 16  2  0  0  0  0
 12 22  1  0  0  0  0
 13 16  1  0  0  0  0
 13 23  1  0  0  0  0
 14 17  2  0  0  0  0
 14 24  1  0  0  0  0
 15 17  1  0  0  0  0
 15 25  1  0  0  0  0
 17 26  1  0  0  0  0
M  END
> <PUBCHEM_COMPOUND_CID>
157245

> <PUBCHEM_COMPOUND_CANONICALIZED>
1

> <PUBCHEM_CACTVS_COMPLEXITY>
274

> <PUBCHEM_CACTVS_HBOND_ACCEPTOR>
1

> <PUBCHEM_CACTVS_HBOND_DONOR>
1

> <PUBCHEM_CACTVS_ROTATABLE_BOND>
0

> <PUBCHEM_CACTVS_SUBSKEYS>
AAADccB4IAAAAAAAAAAAAAAAAAAAAAAAAAAwYMGAAAAAAADBVAAAGgAACAAADASAmAAwBsAAAgCAAiBCAAACAAAgIAAIiAAGCIgIJiKCERKAcAAkwBEImAeAwPAO4AADAAAQAADAAAYAACAAAAAAAAAAAA==

> <PUBCHEM_IUPAC_OPENEYE_NAME>
pyren-2-ol

> <PUBCHEM_IUPAC_CAS_NAME>
2-pyrenol

> <PUBCHEM_IUPAC_NAME>
pyren-2-ol

> <PUBCHEM_IUPAC_SYSTEMATIC_NAME>
pyren-2-ol

> <PUBCHEM_IUPAC_TRADITIONAL_NAME>
pyren-2-ol

> <PUBCHEM_IUPAC_INCHI>
InChI=1S/C16H10O/c17-14-8-12-6-4-10-2-1-3-11-5-7-13(9-14)16(12)15(10)11/h1-9,17H

> <PUBCHEM_IUPAC_INCHIKEY>
NKFFJDXMGAZKEQ-UHFFFAOYSA-N

> <PUBCHEM_XLOGP3>
4.5

> <PUBCHEM_EXACT_MASS>
218.073165

> <PUBCHEM_MOLECULAR_FORMULA>
C16H10O

> <PUBCHEM_MOLECULAR_WEIGHT>
218.25

> <PUBCHEM_OPENEYE_CAN_SMILES>
C1=CC2=C3C(=C1)C=CC4=C3C(=CC(=C4)O)C=C2

> <PUBCHEM_OPENEYE_ISO_SMILES>
C1=CC2=C3C(=C1)C=CC4=C3C(=CC(=C4)O)C=C2

> <PUBCHEM_CACTVS_TPSA>
20.2

> <PUBCHEM_MONOISOTOPIC_WEIGHT>
218.073165

> <PUBCHEM_TOTAL_CHARGE>
0

> <PUBCHEM_HEAVY_ATOM_COUNT>
17

> <PUBCHEM_ATOM_DEF_STEREO_COUNT>
0

> <PUBCHEM_ATOM_UDEF_STEREO_COUNT>
0

> <PUBCHEM_BOND_DEF_STEREO_COUNT>
0

> <PUBCHEM_BOND_UDEF_STEREO_COUNT>
0

> <PUBCHEM_ISOTOPIC_ATOM_COUNT>
0

> <PUBCHEM_COMPONENT_COUNT>
1

> <PUBCHEM_CACTVS_TAUTO_COUNT>
2

> <PUBCHEM_COORDINATE_TYPE>
1
5
255

> <PUBCHEM_BONDANNOTATIONS>
12  16  8
13  16  8
14  17  8
15  17  8
2  3  8
2  4  8
2  5  8
3  6  8
3  7  8
4  12  8
4  8  8
5  13  8
5  9  8
6  10  8
6  14  8
7  11  8
7  15  8
8  11  8
9  10  8

$$$$

