   Color/Form
        Colorless liquid [Note: A gas above 104 degrees F].
   from [1]HSDB

   Odor

     * Sweet, pleasant odor, like chloroform
     * Chloroform like odor.

   from [2]HSDB

   Boiling Point
        39.75 deg C @ 760 mm Hg
   from [3]HSDB

   Melting Point
        -95 deg C
   from [4]HSDB

   Corrosivity
        Liquid methylene chloride will attack some forms of plastics,
   rubber and coatings.
   from [5]HSDB

   Critical Temperature and Pressure
        Critical temperature: 510 K; critical pressure: 6.10 MPa
   from [6]HSDB

   Density/Specific Gravity
        1.3255 20 deg C/4 deg C
   from [7]HSDB

   Heat of Vaporization
        28.82 kJ/mol at 25 deg C ; 28.06 kJ/mol at boiling point
   from [8]HSDB

   Octanol/Water Partition Coefficient
        log Kow= 1.25
   from [9]HSDB

   Solubilities

     * Miscible with alcohol, ether, dimethylformamide
     * Miscible in ethanol and ethyl ether; soluble in carbon
       tetrachloride
     * 13,000 mg/l at 25 deg C in water

   from [10]HSDB

   Spectral Properties

     * Index of refraction: 1.4244 @ 20 deg C/D
     * IR: 4354 (Coblentz Society Spectral Collection)
     * NMR: 6401 (Sadtler Research Laboratories Spectral Collection)
     * MASS: 117 (Atlas of Mass Spectral Data, John Wiley & Sons, New
       York)
     * IR PRISM: 6620 (gas), 1011, IR GRATING: 28523
     * Intense mass spectral peaks: 49 m/z, 84 m/z

   from [11]HSDB

   Surface Tension
        28.12 dyne/cm at 20 deg C.
   from [12]HSDB

   Vapor Density
        2.93 (Air=1.02)
   from [13]HSDB

   Vapor Pressure
        435 mm Hg at 25 deg C
   from [14]HSDB

   Relative Evaporation Rate
        71 (Ether= 100)
   from [15]HSDB

   Viscosity
        0.43 mPa.s @ 20 deg C
   from [16]HSDB

   Other Chemical/Physical Properties

     * 1 PPM IN AIR= 3.48 MG/CU M @ 25 DEG C, 760 TORR
     * Conversion factor: 720 mg/cu m= 200 ppm
     * RATIO OF SPECIFIC HEATS OF VAPOR (GAS): 1.199 /SRP: SPECIFICS NOT
       GIVEN/
     * Heat of fusion: 6.00 kJ/mol
     * Heat of melting: 1.1 kcal/mole (@ bp); Heat of sublimation: 6.94
       kcal/mole @ 298 K; Specific heat: 14.24 cal/K/mole @ 400 K, 17.30
       cal/K/mole @ 600 K, 19.32 cal/K/mole @ 800 K, 20.76 cal/K/mole @
       1000 K
     * Enthalpy of formation: -29.80 kcal/mole (liq), -22.80 kcal/mole
       (gas); Gibbs free energy of formation: -16.83 kcal/mole (liq),
       -16.46 kcal/mole (gas); heat capacity: 12.16 cal/deg/mole (gas)
     * READILY CHLORINATED TO CHLOROFORM & CARBON TETRACHLORIDE IN
       PRESENCE OF CHLORINATION CATALYSTS
     * Ionization potential: 11.35 eV
     * Thermal capacity: 1.171 kJ/kg.K @ 15-45 deg C; heat capacity: 54.09
       J/mole @ 25 deg C; critical density: 472 kg/cu m; water solubility
       in methylene chloride @ 20 deg C 1.4 g/kg; kauri-butanol value 136
     * Dielectric strength: 94.488 (24.000) V/cm @ 24 deg C; specific
       resistivity 1.81X10+8 ohm/cm
     * Henry's Law constant= 3.25X10-3 atm-cu m/mol @ 25 deg C
     * Hydroxyl radical rate constant= 1.42X10-13 cu cm/molecule-sec @ 25
       deg C

   from [17]HSDB

   Computed Properties
   Molecular Weight                  84.93258 [g/mol]
   Molecular Formula                 CH[2]Cl[2]
   XLogP3-AA                         1.5
   H-Bond Donor                      0
   H-Bond Acceptor                   0
   Rotatable Bond Count              0
   Exact Mass                        83.953355
   MonoIsotopic Mass                 83.953355
   Topological Polar Surface Area    0
   Heavy Atom Count                  3
   Formal Charge                     0
   Complexity                        2.8
   Isotope Atom Count                0
   Defined Atom Stereocenter Count   0
   Undefined Atom Stereocenter Count 0
   Defined Bond Stereocenter Count   0
   Undefined Bond Stereocenter Count 0
   Covalently-Bonded Unit Count      1
   Effective Rotor Count             0
   Conformer Sampling RMSD           0.4
   CID Conformer Count               [18]1

References

   1. http://toxnet.nlm.nih.gov/cgi-bin/sis/search/r?dbs+hsdb:@term+@rn+@rel+75-09-2
   2. http://toxnet.nlm.nih.gov/cgi-bin/sis/search/r?dbs+hsdb:@term+@rn+@rel+75-09-2
   3. http://toxnet.nlm.nih.gov/cgi-bin/sis/search/r?dbs+hsdb:@term+@rn+@rel+75-09-2
   4. http://toxnet.nlm.nih.gov/cgi-bin/sis/search/r?dbs+hsdb:@term+@rn+@rel+75-09-2
   5. http://toxnet.nlm.nih.gov/cgi-bin/sis/search/r?dbs+hsdb:@term+@rn+@rel+75-09-2
   6. http://toxnet.nlm.nih.gov/cgi-bin/sis/search/r?dbs+hsdb:@term+@rn+@rel+75-09-2
   7. http://toxnet.nlm.nih.gov/cgi-bin/sis/search/r?dbs+hsdb:@term+@rn+@rel+75-09-2
   8. http://toxnet.nlm.nih.gov/cgi-bin/sis/search/r?dbs+hsdb:@term+@rn+@rel+75-09-2
   9. http://toxnet.nlm.nih.gov/cgi-bin/sis/search/r?dbs+hsdb:@term+@rn+@rel+75-09-2
  10. http://toxnet.nlm.nih.gov/cgi-bin/sis/search/r?dbs+hsdb:@term+@rn+@rel+75-09-2
  11. http://toxnet.nlm.nih.gov/cgi-bin/sis/search/r?dbs+hsdb:@term+@rn+@rel+75-09-2
  12. http://toxnet.nlm.nih.gov/cgi-bin/sis/search/r?dbs+hsdb:@term+@rn+@rel+75-09-2
  13. http://toxnet.nlm.nih.gov/cgi-bin/sis/search/r?dbs+hsdb:@term+@rn+@rel+75-09-2
  14. http://toxnet.nlm.nih.gov/cgi-bin/sis/search/r?dbs+hsdb:@term+@rn+@rel+75-09-2
  15. http://toxnet.nlm.nih.gov/cgi-bin/sis/search/r?dbs+hsdb:@term+@rn+@rel+75-09-2
  16. http://toxnet.nlm.nih.gov/cgi-bin/sis/search/r?dbs+hsdb:@term+@rn+@rel+75-09-2
  17. http://toxnet.nlm.nih.gov/cgi-bin/sis/search/r?dbs+hsdb:@term+@rn+@rel+75-09-2
  18. http://pubchem.ncbi.nlm.nih.gov/vw3d/vw3d.cgi?cid=6344
