56927740
  -OEChem-07051213152D

 45 45  0     1  0  0  0  0  0999 V2000
    5.1350    0.8840    0.0000 O   0  0  0  0  0  0  0  0  0  0  0  0
    7.7331   -0.6160    0.0000 O   0  0  0  0  0  0  0  0  0  0  0  0
    5.5010    2.2500    0.0000 O   0  0  0  0  0  0  0  0  0  0  0  0
    2.5369   -0.6160    0.0000 O   0  0  0  0  0  0  0  0  0  0  0  0
    7.5010    2.2500    0.0000 O   0  0  0  0  0  0  0  0  0  0  0  0
    6.0010    3.1160    0.0000 O   0  0  0  0  0  0  0  0  0  0  0  0
    7.7331   -1.6160    0.0000 O   0  0  0  0  0  0  0  0  0  0  0  0
    2.5369   -1.6160    0.0000 O   0  0  0  0  0  0  0  0  0  0  0  0
    6.0010   -1.6160    0.0000 N   0  0  0  0  0  0  0  0  0  0  0  0
    4.2690   -1.6160    0.0000 N   0  0  0  0  0  0  0  0  0  0  0  0
    5.1350   -0.1160    0.0000 C   0  0  2  0  0  0  0  0  0  0  0  0
    6.0010   -0.6160    0.0000 C   0  0  2  0  0  0  0  0  0  0  0  0
    6.8671   -0.1160    0.0000 C   0  0  2  0  0  0  0  0  0  0  0  0
    4.2690   -0.6160    0.0000 C   0  0  2  0  0  0  0  0  0  0  0  0
    6.8671    0.8840    0.0000 C   0  0  0  0  0  0  0  0  0  0  0  0
    6.0010    1.3840    0.0000 C   0  0  1  0  0  0  0  0  0  0  0  0
    3.4030   -0.1160    0.0000 C   0  0  2  0  0  0  0  0  0  0  0  0
    6.5010    2.2500    0.0000 C   0  0  0  0  0  0  0  0  0  0  0  0
    3.4030    0.8840    0.0000 C   0  0  0  0  0  0  0  0  0  0  0  0
    6.8671   -2.1160    0.0000 C   0  0  0  0  0  0  0  0  0  0  0  0
    3.4030   -2.1160    0.0000 C   0  0  0  0  0  0  0  0  0  0  0  0
    6.8671   -3.1160    0.0000 C   0  0  0  0  0  0  0  0  0  0  0  0
    3.4030   -3.1160    0.0000 C   0  0  0  0  0  0  0  0  0  0  0  0
    4.3989    0.3090    0.0000 H   0  0  0  0  0  0  0  0  0  0  0  0
    6.5380   -0.9260    0.0000 H   0  0  0  0  0  0  0  0  0  0  0  0
    7.4040    0.1940    0.0000 H   0  0  0  0  0  0  0  0  0  0  0  0
    4.8059   -0.9260    0.0000 H   0  0  0  0  0  0  0  0  0  0  0  0
    7.4776    0.7763    0.0000 H   0  0  0  0  0  0  0  0  0  0  0  0
    7.0791    1.4666    0.0000 H   0  0  0  0  0  0  0  0  0  0  0  0
    3.4030   -0.7360    0.0000 H   0  0  0  0  0  0  0  0  0  0  0  0
    5.4641   -1.9260    0.0000 H   0  0  0  0  0  0  0  0  0  0  0  0
    4.8059   -1.9260    0.0000 H   0  0  0  0  0  0  0  0  0  0  0  0
    8.2700   -0.3060    0.0000 H   0  0  0  0  0  0  0  0  0  0  0  0
    4.0230    0.8840    0.0000 H   0  0  0  0  0  0  0  0  0  0  0  0
    3.4030    1.5040    0.0000 H   0  0  0  0  0  0  0  0  0  0  0  0
    2.7830    0.8840    0.0000 H   0  0  0  0  0  0  0  0  0  0  0  0
    4.8810    2.2500    0.0000 H   0  0  0  0  0  0  0  0  0  0  0  0
    2.0000   -0.3060    0.0000 H   0  0  0  0  0  0  0  0  0  0  0  0
    6.2471   -3.1160    0.0000 H   0  0  0  0  0  0  0  0  0  0  0  0
    6.8671   -3.7360    0.0000 H   0  0  0  0  0  0  0  0  0  0  0  0
    7.4871   -3.1160    0.0000 H   0  0  0  0  0  0  0  0  0  0  0  0
    7.8110    2.7869    0.0000 H   0  0  0  0  0  0  0  0  0  0  0  0
    2.7830   -3.1160    0.0000 H   0  0  0  0  0  0  0  0  0  0  0  0
    3.4030   -3.7360    0.0000 H   0  0  0  0  0  0  0  0  0  0  0  0
    4.0230   -3.1160    0.0000 H   0  0  0  0  0  0  0  0  0  0  0  0
  1 11  1  0  0  0  0
  1 16  1  0  0  0  0
 13  2  1  6  0  0  0
  2 33  1  0  0  0  0
 16  3  1  1  0  0  0
  3 37  1  0  0  0  0
 17  4  1  1  0  0  0
  4 38  1  0  0  0  0
  5 18  1  0  0  0  0
  5 42  1  0  0  0  0
  6 18  2  0  0  0  0
  7 20  2  0  0  0  0
  8 21  2  0  0  0  0
 12  9  1  6  0  0  0
  9 20  1  0  0  0  0
  9 31  1  0  0  0  0
 14 10  1  1  0  0  0
 10 21  1  0  0  0  0
 10 32  1  0  0  0  0
 11 12  1  0  0  0  0
 11 14  1  0  0  0  0
 11 24  1  1  0  0  0
 12 13  1  0  0  0  0
 12 25  1  0  0  0  0
 13 15  1  0  0  0  0
 13 26  1  0  0  0  0
 14 17  1  0  0  0  0
 14 27  1  0  0  0  0
 15 16  1  0  0  0  0
 15 28  1  0  0  0  0
 15 29  1  0  0  0  0
 16 18  1  0  0  0  0
 17 19  1  0  0  0  0
 17 30  1  0  0  0  0
 19 34  1  0  0  0  0
 19 35  1  0  0  0  0
 19 36  1  0  0  0  0
 20 22  1  0  0  0  0
 21 23  1  0  0  0  0
 22 39  1  0  0  0  0
 22 40  1  0  0  0  0
 22 41  1  0  0  0  0
 23 43  1  0  0  0  0
 23 44  1  0  0  0  0
 23 45  1  0  0  0  0
M  END
> <PUBCHEM_COMPOUND_CID>
56927740

> <PUBCHEM_COMPOUND_CANONICALIZED>
1

> <PUBCHEM_CACTVS_COMPLEXITY>
485

> <PUBCHEM_CACTVS_HBOND_ACCEPTOR>
8

> <PUBCHEM_CACTVS_HBOND_DONOR>
6

> <PUBCHEM_CACTVS_ROTATABLE_BOND>
5

> <PUBCHEM_CACTVS_SUBSKEYS>
AAADceBzPAAAAAAAAAAAAAAAAAAAAAAAAAAkAAAAAAAAAAAAAAAAHgAQCAAACDzhgAYCCALABgAIAAGQGAIAAAAAAAAAAIFIAAATEBIAwAQHQAAFFgCXAAH6+aeQAAAAAAAAAAAAAAAAAAAAAAAAAAAAAA==

> <PUBCHEM_IUPAC_OPENEYE_NAME>
(2S,4S,5S,6S)-5-acetamido-6-[(1S,2S)-1-acetamido-2-hydroxy-propyl]-2,4-dihydroxy-tetrahydropyran-2-carboxylic acid

> <PUBCHEM_IUPAC_CAS_NAME>
(2S,4S,5S,6S)-5-acetamido-6-[(1S,2S)-1-acetamido-2-hydroxypropyl]-2,4-dihydroxy-2-oxanecarboxylic acid

> <PUBCHEM_IUPAC_NAME>
(2S,4S,5S,6S)-5-acetamido-6-[(1S,2S)-1-acetamido-2-hydroxypropyl]-2,4-dihydroxyoxane-2-carboxylic acid

> <PUBCHEM_IUPAC_SYSTEMATIC_NAME>
(2S,4S,5S,6S)-5-acetamido-6-[(1S,2S)-1-acetamido-2-oxidanyl-propyl]-2,4-bis(oxidanyl)oxane-2-carboxylic acid

> <PUBCHEM_IUPAC_TRADITIONAL_NAME>
(2S,4S,5S,6S)-5-acetamido-6-[(1S,2S)-1-acetamido-2-hydroxy-propyl]-2,4-dihydroxy-tetrahydropyran-2-carboxylic acid

> <PUBCHEM_IUPAC_INCHI>
InChI=1S/C13H22N2O8/c1-5(16)9(14-6(2)17)11-10(15-7(3)18)8(19)4-13(22,23-11)12(20)21/h5,8-11,16,19,22H,4H2,1-3H3,(H,14,17)(H,15,18)(H,20,21)/t5-,8-,9-,10-,11-,13-/m0/s1

> <PUBCHEM_IUPAC_INCHIKEY>
ZJOSXOOPEBJBMC-LJRWBPDUSA-N

> <PUBCHEM_XLOGP3_AA>
-3

> <PUBCHEM_EXACT_MASS>
334.137616

> <PUBCHEM_MOLECULAR_FORMULA>
C13H22N2O8

> <PUBCHEM_MOLECULAR_WEIGHT>
334.32238

> <PUBCHEM_OPENEYE_CAN_SMILES>
CC(C(C1C(C(CC(O1)(C(=O)O)O)O)NC(=O)C)NC(=O)C)O

> <PUBCHEM_OPENEYE_ISO_SMILES>
C[C@@H]([C@@H]([C@H]1[C@H]([C@H](C[C@](O1)(C(=O)O)O)O)NC(=O)C)NC(=O)C)O

> <PUBCHEM_CACTVS_TPSA>
165

> <PUBCHEM_MONOISOTOPIC_WEIGHT>
334.137616

> <PUBCHEM_TOTAL_CHARGE>
0

> <PUBCHEM_HEAVY_ATOM_COUNT>
23

> <PUBCHEM_ATOM_DEF_STEREO_COUNT>
6

> <PUBCHEM_ATOM_UDEF_STEREO_COUNT>
0

> <PUBCHEM_BOND_DEF_STEREO_COUNT>
0

> <PUBCHEM_BOND_UDEF_STEREO_COUNT>
0

> <PUBCHEM_ISOTOPIC_ATOM_COUNT>
0

> <PUBCHEM_COMPONENT_COUNT>
1

> <PUBCHEM_CACTVS_TAUTO_COUNT>
4

> <PUBCHEM_COORDINATE_TYPE>
1
5
255

> <PUBCHEM_BONDANNOTATIONS>
14  10  5
11  24  5
13  2  6
16  3  5
17  4  5
12  9  6

$$$$

