   Color/Form

     * METASTABLE & STABLE CRYSTAL FORM
     * COLORLESS LIQUID

   from [1]HSDB

   Odor
        Phenol odor
   from [2]HSDB

   Boiling Point
        204.5 deg C
   from [3]HSDB

   Melting Point
        18 deg C
   from [4]HSDB

   Density/Specific Gravity
        1.0146 @ 25 DEG C
   from [5]HSDB

   Dissociation Constants
        pK = 10.2
   from [6]HSDB

   Octanol/Water Partition Coefficient
        Log Kow = 2.47
   from [7]HSDB

   Solubilities

     * PRACTICALLY INSOL IN WATER; FREELY SOL IN ALCOHOL
     * FREELY SOL IN BENZENE, GLACIAL ACETIC ACID
     * SOL IN ALL PROP IN ETHER, SOL IN ACETONE
     * Water solubility = 5340 mg/l

   from [8]HSDB

   Spectral Properties

     * MAX ABSORPTION (CYCLOHEXANE): 270 NM (LOG E= 3.30), 276 NM (LOG E=
       3.28); INDEX OF REFRACTION: 1.5367 @ 20 DEG C/D
     * Intense mass spectral peaks: 107 m/z (100%), 122 m/z (36%), 77 m/z
       (27%), 79 m/z (12%)
     * MASS: 200 (National Bureau of Standards EPA-NIH Mass Spectra Data
       Base, NSRDS-NBS-63)

   from [9]HSDB

   Vapor Pressure
        0.153 mm Hg at 25 deg C.
   from [10]HSDB

   Other Chemical/Physical Properties
        Cooling the liquid to -30 deg C gives a metastable cryst form, mp
   about -28 deg C; when kept for 24-48 hrs, this changes to the stable
   cryst form, mp -3.4 deg C.
   from [11]HSDB

   Computed Properties
   Molecular Weight                  122.1644 [g/mol]
   Molecular Formula                 C[8]H[10]O
   XLogP3                            2.5
   H-Bond Donor                      1
   H-Bond Acceptor                   1
   Rotatable Bond Count              1
   Tautomer Count                    3
   Exact Mass                        122.073165
   MonoIsotopic Mass                 122.073165
   Topological Polar Surface Area    20.2
   Heavy Atom Count                  9
   Formal Charge                     0
   Complexity                        80.6
   Isotope Atom Count                0
   Defined Atom Stereocenter Count   0
   Undefined Atom Stereocenter Count 0
   Defined Bond Stereocenter Count   0
   Undefined Bond Stereocenter Count 0
   Covalently-Bonded Unit Count      1
   Feature 3D Donor Count            1
   Feature 3D Hydrophobe Count       1
   Feature 3D Ring Count             1
   Effective Rotor Count             1
   Conformer Sampling RMSD           0.4
   CID Conformer Count               [12]4

References

   1. http://toxnet.nlm.nih.gov/cgi-bin/sis/search/r?dbs+hsdb:@term+@rn+@rel+90-00-6
   2. http://toxnet.nlm.nih.gov/cgi-bin/sis/search/r?dbs+hsdb:@term+@rn+@rel+90-00-6
   3. http://toxnet.nlm.nih.gov/cgi-bin/sis/search/r?dbs+hsdb:@term+@rn+@rel+90-00-6
   4. http://toxnet.nlm.nih.gov/cgi-bin/sis/search/r?dbs+hsdb:@term+@rn+@rel+90-00-6
   5. http://toxnet.nlm.nih.gov/cgi-bin/sis/search/r?dbs+hsdb:@term+@rn+@rel+90-00-6
   6. http://toxnet.nlm.nih.gov/cgi-bin/sis/search/r?dbs+hsdb:@term+@rn+@rel+90-00-6
   7. http://toxnet.nlm.nih.gov/cgi-bin/sis/search/r?dbs+hsdb:@term+@rn+@rel+90-00-6
   8. http://toxnet.nlm.nih.gov/cgi-bin/sis/search/r?dbs+hsdb:@term+@rn+@rel+90-00-6
   9. http://toxnet.nlm.nih.gov/cgi-bin/sis/search/r?dbs+hsdb:@term+@rn+@rel+90-00-6
  10. http://toxnet.nlm.nih.gov/cgi-bin/sis/search/r?dbs+hsdb:@term+@rn+@rel+90-00-6
  11. http://toxnet.nlm.nih.gov/cgi-bin/sis/search/r?dbs+hsdb:@term+@rn+@rel+90-00-6
  12. http://pubchem.ncbi.nlm.nih.gov/vw3d/vw3d.cgi?cid=6997
