2110
  -OEChem-07051213022D

 27 27  0     1  0  0  0  0  0999 V2000
    5.4641    2.6550    0.0000 O   0  0  0  0  0  0  0  0  0  0  0  0
    6.3301    1.1550    0.0000 O   0  0  0  0  0  0  0  0  0  0  0  0
    2.0000   -2.3450    0.0000 O   0  0  0  0  0  0  0  0  0  0  0  0
    4.0981    2.0210    0.0000 N   0  0  0  0  0  0  0  0  0  0  0  0
    4.5981    1.1550    0.0000 C   0  0  3  0  0  0  0  0  0  0  0  0
    3.7320    0.6550    0.0000 C   0  0  0  0  0  0  0  0  0  0  0  0
    3.7320   -0.3450    0.0000 C   0  0  0  0  0  0  0  0  0  0  0  0
    5.0981    0.2890    0.0000 C   0  0  0  0  0  0  0  0  0  0  0  0
    5.4641    1.6550    0.0000 C   0  0  0  0  0  0  0  0  0  0  0  0
    2.8660   -0.8450    0.0000 C   0  0  0  0  0  0  0  0  0  0  0  0
    4.5981   -0.8450    0.0000 C   0  0  0  0  0  0  0  0  0  0  0  0
    2.8660   -1.8450    0.0000 C   0  0  0  0  0  0  0  0  0  0  0  0
    4.5981   -1.8450    0.0000 C   0  0  0  0  0  0  0  0  0  0  0  0
    3.7320   -2.3450    0.0000 C   0  0  0  0  0  0  0  0  0  0  0  0
    3.5200    1.2376    0.0000 H   0  0  0  0  0  0  0  0  0  0  0  0
    3.1215    0.5473    0.0000 H   0  0  0  0  0  0  0  0  0  0  0  0
    4.5611   -0.0210    0.0000 H   0  0  0  0  0  0  0  0  0  0  0  0
    5.4081   -0.2480    0.0000 H   0  0  0  0  0  0  0  0  0  0  0  0
    5.6350    0.5990    0.0000 H   0  0  0  0  0  0  0  0  0  0  0  0
    3.4781    2.0210    0.0000 H   0  0  0  0  0  0  0  0  0  0  0  0
    4.4081    2.5580    0.0000 H   0  0  0  0  0  0  0  0  0  0  0  0
    2.3291   -0.5350    0.0000 H   0  0  0  0  0  0  0  0  0  0  0  0
    5.1350   -0.5350    0.0000 H   0  0  0  0  0  0  0  0  0  0  0  0
    5.1350   -2.1550    0.0000 H   0  0  0  0  0  0  0  0  0  0  0  0
    3.7320   -2.9650    0.0000 H   0  0  0  0  0  0  0  0  0  0  0  0
    6.0010    2.9650    0.0000 H   0  0  0  0  0  0  0  0  0  0  0  0
    2.0000   -2.9650    0.0000 H   0  0  0  0  0  0  0  0  0  0  0  0
  1  9  1  0  0  0  0
  1 26  1  0  0  0  0
  2  9  2  0  0  0  0
  3 12  1  0  0  0  0
  3 27  1  0  0  0  0
  4  5  1  0  0  0  0
  4 20  1  0  0  0  0
  4 21  1  0  0  0  0
  5  6  1  0  0  0  0
  5  8  1  0  0  0  0
  5  9  1  0  0  0  0
  6  7  1  0  0  0  0
  6 15  1  0  0  0  0
  6 16  1  0  0  0  0
  7 10  2  0  0  0  0
  7 11  1  0  0  0  0
  8 17  1  0  0  0  0
  8 18  1  0  0  0  0
  8 19  1  0  0  0  0
 10 12  1  0  0  0  0
 10 22  1  0  0  0  0
 11 13  2  0  0  0  0
 11 23  1  0  0  0  0
 12 14  2  0  0  0  0
 13 14  1  0  0  0  0
 13 24  1  0  0  0  0
 14 25  1  0  0  0  0
M  END
> <PUBCHEM_COMPOUND_CID>
2110

> <PUBCHEM_COMPOUND_CANONICALIZED>
1

> <PUBCHEM_CACTVS_COMPLEXITY>
219

> <PUBCHEM_CACTVS_HBOND_ACCEPTOR>
4

> <PUBCHEM_CACTVS_HBOND_DONOR>
3

> <PUBCHEM_CACTVS_ROTATABLE_BOND>
3

> <PUBCHEM_CACTVS_SUBSKEYS>
AAADccByMAAAAAAAAAAAAAAAAAAAAAAAAAAwAAAAAAAAAAABAAAAHgAQCAAADIyBmAAyDoBAAgCIAiDSCAACAAAgIAAIiAGGCIgKJjKCkROAcAAk0BEImAeY2PGOAAABAAAAAAAAAAIAAAAAAAAAAAAAAA==

> <PUBCHEM_IUPAC_OPENEYE_NAME>
2-amino-3-(3-hydroxyphenyl)-2-methyl-propanoic acid

> <PUBCHEM_IUPAC_CAS_NAME>
2-amino-3-(3-hydroxyphenyl)-2-methylpropanoic acid

> <PUBCHEM_IUPAC_NAME>
2-amino-3-(3-hydroxyphenyl)-2-methylpropanoic acid

> <PUBCHEM_IUPAC_SYSTEMATIC_NAME>
2-azanyl-3-(3-hydroxyphenyl)-2-methyl-propanoic acid

> <PUBCHEM_IUPAC_TRADITIONAL_NAME>
2-amino-3-(3-hydroxyphenyl)-2-methyl-propionic acid

> <PUBCHEM_IUPAC_INCHI>
InChI=1S/C10H13NO3/c1-10(11,9(13)14)6-7-3-2-4-8(12)5-7/h2-5,12H,6,11H2,1H3,(H,13,14)

> <PUBCHEM_IUPAC_INCHIKEY>
CAHPJJJZLQXPKS-UHFFFAOYSA-N

> <PUBCHEM_XLOGP3_AA>
-1.6

> <PUBCHEM_EXACT_MASS>
195.089543

> <PUBCHEM_MOLECULAR_FORMULA>
C10H13NO3

> <PUBCHEM_MOLECULAR_WEIGHT>
195.21512

> <PUBCHEM_OPENEYE_CAN_SMILES>
CC(CC1=CC(=CC=C1)O)(C(=O)O)N

> <PUBCHEM_OPENEYE_ISO_SMILES>
CC(CC1=CC(=CC=C1)O)(C(=O)O)N

> <PUBCHEM_CACTVS_TPSA>
83.6

> <PUBCHEM_MONOISOTOPIC_WEIGHT>
195.089543

> <PUBCHEM_TOTAL_CHARGE>
0

> <PUBCHEM_HEAVY_ATOM_COUNT>
14

> <PUBCHEM_ATOM_DEF_STEREO_COUNT>
0

> <PUBCHEM_ATOM_UDEF_STEREO_COUNT>
1

> <PUBCHEM_BOND_DEF_STEREO_COUNT>
0

> <PUBCHEM_BOND_UDEF_STEREO_COUNT>
0

> <PUBCHEM_ISOTOPIC_ATOM_COUNT>
0

> <PUBCHEM_COMPONENT_COUNT>
1

> <PUBCHEM_CACTVS_TAUTO_COUNT>
9

> <PUBCHEM_COORDINATE_TYPE>
1
5
255

> <PUBCHEM_BONDANNOTATIONS>
10  12  8
11  13  8
12  14  8
13  14  8
5  9  3
7  10  8
7  11  8

$$$$

