60648
  -OEChem-07051212532D

 50 52  0     1  0  0  0  0  0999 V2000
    7.1391   -3.4734    0.0000 S   0  0  0  0  0  0  0  0  0  0  0  0
    7.3007   -0.3911    0.0000 S   0  0  0  0  0  0  0  0  0  0  0  0
    2.8660    4.1144    0.0000 O   0  0  0  0  0  0  0  0  0  0  0  0
    2.0000    2.6144    0.0000 O   0  0  0  0  0  0  0  0  0  0  0  0
    4.5981    1.1144    0.0000 N   0  0  3  0  0  0  0  0  0  0  0  0
    3.7320    2.6144    0.0000 C   0  0  1  0  0  0  0  0  0  0  0  0
    3.7320    1.6144    0.0000 C   0  0  0  0  0  0  0  0  0  0  0  0
    4.5981    3.1144    0.0000 C   0  0  0  0  0  0  0  0  0  0  0  0
    5.4641    2.6144    0.0000 C   0  0  0  0  0  0  0  0  0  0  0  0
    5.4641    1.6144    0.0000 C   0  0  0  0  0  0  0  0  0  0  0  0
    4.5981    0.1144    0.0000 C   0  0  0  0  0  0  0  0  0  0  0  0
    5.4641   -0.3856    0.0000 C   0  0  0  0  0  0  0  0  0  0  0  0
    2.8660    3.1144    0.0000 C   0  0  0  0  0  0  0  0  0  0  0  0
    5.4641   -1.3856    0.0000 C   0  0  0  0  0  0  0  0  0  0  0  0
    6.3301   -1.8856    0.0000 C   0  0  0  0  0  0  0  0  0  0  0  0
    6.3301   -2.8856    0.0000 C   0  0  0  0  0  0  0  0  0  0  0  0
    7.1962   -1.3856    0.0000 C   0  0  0  0  0  0  0  0  0  0  0  0
    5.5211   -3.4734    0.0000 C   0  0  0  0  0  0  0  0  0  0  0  0
    8.1097   -1.7923    0.0000 C   0  0  0  0  0  0  0  0  0  0  0  0
    5.8301   -4.4244    0.0000 C   0  0  0  0  0  0  0  0  0  0  0  0
    8.7788   -1.0492    0.0000 C   0  0  0  0  0  0  0  0  0  0  0  0
    4.5700   -3.1644    0.0000 C   0  0  0  0  0  0  0  0  0  0  0  0
    8.3176   -2.7705    0.0000 C   0  0  0  0  0  0  0  0  0  0  0  0
    6.8301   -4.4244    0.0000 C   0  0  0  0  0  0  0  0  0  0  0  0
    8.2788   -0.1831    0.0000 C   0  0  0  0  0  0  0  0  0  0  0  0
    3.7320    3.2344    0.0000 H   0  0  0  0  0  0  0  0  0  0  0  0
    3.1215    1.7221    0.0000 H   0  0  0  0  0  0  0  0  0  0  0  0
    3.5200    1.0318    0.0000 H   0  0  0  0  0  0  0  0  0  0  0  0
    4.9966    3.5894    0.0000 H   0  0  0  0  0  0  0  0  0  0  0  0
    4.1996    3.5894    0.0000 H   0  0  0  0  0  0  0  0  0  0  0  0
    6.0747    2.5068    0.0000 H   0  0  0  0  0  0  0  0  0  0  0  0
    5.6762    3.1970    0.0000 H   0  0  0  0  0  0  0  0  0  0  0  0
    5.6762    1.0318    0.0000 H   0  0  0  0  0  0  0  0  0  0  0  0
    6.0747    1.7221    0.0000 H   0  0  0  0  0  0  0  0  0  0  0  0
    3.9875    0.2221    0.0000 H   0  0  0  0  0  0  0  0  0  0  0  0
    4.3860   -0.4682    0.0000 H   0  0  0  0  0  0  0  0  0  0  0  0
    6.0747   -0.4932    0.0000 H   0  0  0  0  0  0  0  0  0  0  0  0
    5.6762    0.1970    0.0000 H   0  0  0  0  0  0  0  0  0  0  0  0
    4.9272   -1.6956    0.0000 H   0  0  0  0  0  0  0  0  0  0  0  0
    2.3291    4.4244    0.0000 H   0  0  0  0  0  0  0  0  0  0  0  0
    5.4657   -4.9260    0.0000 H   0  0  0  0  0  0  0  0  0  0  0  0
    9.3954   -1.1140    0.0000 H   0  0  0  0  0  0  0  0  0  0  0  0
    4.7616   -2.5747    0.0000 H   0  0  0  0  0  0  0  0  0  0  0  0
    3.9804   -2.9728    0.0000 H   0  0  0  0  0  0  0  0  0  0  0  0
    4.3785   -3.7540    0.0000 H   0  0  0  0  0  0  0  0  0  0  0  0
    7.7112   -2.8994    0.0000 H   0  0  0  0  0  0  0  0  0  0  0  0
    8.4465   -3.3769    0.0000 H   0  0  0  0  0  0  0  0  0  0  0  0
    8.9241   -2.6416    0.0000 H   0  0  0  0  0  0  0  0  0  0  0  0
    7.1946   -4.9260    0.0000 H   0  0  0  0  0  0  0  0  0  0  0  0
    8.5310    0.3833    0.0000 H   0  0  0  0  0  0  0  0  0  0  0  0
  1 16  1  0  0  0  0
  1 24  1  0  0  0  0
  2 17  1  0  0  0  0
  2 25  1  0  0  0  0
  3 13  1  0  0  0  0
  3 40  1  0  0  0  0
  4 13  2  0  0  0  0
  5  7  1  0  0  0  0
  5 10  1  0  0  0  0
  5 11  1  0  0  0  0
  6  7  1  0  0  0  0
  6  8  1  0  0  0  0
  6 13  1  6  0  0  0
  6 26  1  0  0  0  0
  7 27  1  0  0  0  0
  7 28  1  0  0  0  0
  8  9  1  0  0  0  0
  8 29  1  0  0  0  0
  8 30  1  0  0  0  0
  9 10  1  0  0  0  0
  9 31  1  0  0  0  0
  9 32  1  0  0  0  0
 10 33  1  0  0  0  0
 10 34  1  0  0  0  0
 11 12  1  0  0  0  0
 11 35  1  0  0  0  0
 11 36  1  0  0  0  0
 12 14  1  0  0  0  0
 12 37  1  0  0  0  0
 12 38  1  0  0  0  0
 14 15  2  0  0  0  0
 14 39  1  0  0  0  0
 15 16  1  0  0  0  0
 15 17  1  0  0  0  0
 16 18  2  0  0  0  0
 17 19  2  0  0  0  0
 18 20  1  0  0  0  0
 18 22  1  0  0  0  0
 19 21  1  0  0  0  0
 19 23  1  0  0  0  0
 20 24  2  0  0  0  0
 20 41  1  0  0  0  0
 21 25  2  0  0  0  0
 21 42  1  0  0  0  0
 22 43  1  0  0  0  0
 22 44  1  0  0  0  0
 22 45  1  0  0  0  0
 23 46  1  0  0  0  0
 23 47  1  0  0  0  0
 23 48  1  0  0  0  0
 24 49  1  0  0  0  0
 25 50  1  0  0  0  0
M  END
> <PUBCHEM_COMPOUND_CID>
60648

> <PUBCHEM_COMPOUND_CANONICALIZED>
1

> <PUBCHEM_CACTVS_COMPLEXITY>
474

> <PUBCHEM_CACTVS_HBOND_ACCEPTOR>
5

> <PUBCHEM_CACTVS_HBOND_DONOR>
1

> <PUBCHEM_CACTVS_ROTATABLE_BOND>
6

> <PUBCHEM_CACTVS_SUBSKEYS>
AAADceB6MABgAAAAAAAAAAAAAAAAASJAAAAsAAAAAAAAAAAB4AAAHgQACAAADQDF2ASyCYMAAgiMAiDSCAADAIAgCBBIiBkIAIgIIDqgkRCEYAAmgACoiAeYkcIOAAAAAAAAAAAAAAAAAAAAAAAAAAAAAA==

> <PUBCHEM_IUPAC_OPENEYE_NAME>
(3R)-1-[4,4-bis(3-methyl-2-thienyl)but-3-enyl]piperidine-3-carboxylic acid

> <PUBCHEM_IUPAC_CAS_NAME>
(3R)-1-[4,4-bis(3-methyl-2-thiophenyl)but-3-enyl]-3-piperidinecarboxylic acid

> <PUBCHEM_IUPAC_NAME>
(3R)-1-[4,4-bis(3-methylthiophen-2-yl)but-3-enyl]piperidine-3-carboxylic acid

> <PUBCHEM_IUPAC_SYSTEMATIC_NAME>
(3R)-1-[4,4-bis(3-methylthiophen-2-yl)but-3-enyl]piperidine-3-carboxylic acid

> <PUBCHEM_IUPAC_TRADITIONAL_NAME>
(3R)-1-[4,4-bis(3-methyl-2-thienyl)but-3-enyl]nipecotic acid

> <PUBCHEM_IUPAC_INCHI>
InChI=1S/C20H25NO2S2/c1-14-7-11-24-18(14)17(19-15(2)8-12-25-19)6-4-10-21-9-3-5-16(13-21)20(22)23/h6-8,11-12,16H,3-5,9-10,13H2,1-2H3,(H,22,23)/t16-/m1/s1

> <PUBCHEM_IUPAC_INCHIKEY>
PBJUNZJWGZTSKL-MRXNPFEDSA-N

> <PUBCHEM_XLOGP3_AA>
2.7

> <PUBCHEM_EXACT_MASS>
375.132671

> <PUBCHEM_MOLECULAR_FORMULA>
C20H25NO2S2

> <PUBCHEM_MOLECULAR_WEIGHT>
375.548

> <PUBCHEM_OPENEYE_CAN_SMILES>
CC1=C(SC=C1)C(=CCCN2CCCC(C2)C(=O)O)C3=C(C=CS3)C

> <PUBCHEM_OPENEYE_ISO_SMILES>
CC1=C(SC=C1)C(=CCCN2CCC[C@H](C2)C(=O)O)C3=C(C=CS3)C

> <PUBCHEM_CACTVS_TPSA>
97

> <PUBCHEM_MONOISOTOPIC_WEIGHT>
375.132671

> <PUBCHEM_TOTAL_CHARGE>
0

> <PUBCHEM_HEAVY_ATOM_COUNT>
25

> <PUBCHEM_ATOM_DEF_STEREO_COUNT>
1

> <PUBCHEM_ATOM_UDEF_STEREO_COUNT>
0

> <PUBCHEM_BOND_DEF_STEREO_COUNT>
0

> <PUBCHEM_BOND_UDEF_STEREO_COUNT>
0

> <PUBCHEM_ISOTOPIC_ATOM_COUNT>
0

> <PUBCHEM_COMPONENT_COUNT>
1

> <PUBCHEM_CACTVS_TAUTO_COUNT>
1

> <PUBCHEM_COORDINATE_TYPE>
1
5
255

> <PUBCHEM_BONDANNOTATIONS>
1  16  8
1  24  8
16  18  8
17  19  8
18  20  8
19  21  8
2  17  8
2  25  8
20  24  8
21  25  8
6  13  6

$$$$

