4828
  -OEChem-07051212532D

 38 39  0     1  0  0  0  0  0999 V2000
    5.4641   -0.5530    0.0000 O   0  0  0  0  0  0  0  0  0  0  0  0
    5.4641    1.4470    0.0000 O   0  0  0  0  0  0  0  0  0  0  0  0
    3.7320    2.4470    0.0000 N   0  0  0  0  0  0  0  0  0  0  0  0
    7.2764   -3.3577    0.0000 N   0  0  0  0  0  0  0  0  0  0  0  0
    4.5981    0.9470    0.0000 C   0  0  3  0  0  0  0  0  0  0  0  0
    3.7320    1.4470    0.0000 C   0  0  0  0  0  0  0  0  0  0  0  0
    2.8660    2.9470    0.0000 C   0  0  0  0  0  0  0  0  0  0  0  0
    4.5981   -0.0530    0.0000 C   0  0  0  0  0  0  0  0  0  0  0  0
    6.3301   -2.0530    0.0000 C   0  0  0  0  0  0  0  0  0  0  0  0
    5.4641   -1.5530    0.0000 C   0  0  0  0  0  0  0  0  0  0  0  0
    2.8660    3.9470    0.0000 C   0  0  0  0  0  0  0  0  0  0  0  0
    2.0000    2.4470    0.0000 C   0  0  0  0  0  0  0  0  0  0  0  0
    6.3301   -3.0530    0.0000 C   0  0  0  0  0  0  0  0  0  0  0  0
    7.2764   -1.7482    0.0000 C   0  0  0  0  0  0  0  0  0  0  0  0
    4.5981   -2.0530    0.0000 C   0  0  0  0  0  0  0  0  0  0  0  0
    5.4641   -3.5530    0.0000 C   0  0  0  0  0  0  0  0  0  0  0  0
    7.8600   -2.5530    0.0000 C   0  0  0  0  0  0  0  0  0  0  0  0
    4.5981   -3.0530    0.0000 C   0  0  0  0  0  0  0  0  0  0  0  0
    4.5981    1.5670    0.0000 H   0  0  0  0  0  0  0  0  0  0  0  0
    3.1215    1.5547    0.0000 H   0  0  0  0  0  0  0  0  0  0  0  0
    3.5200    0.8644    0.0000 H   0  0  0  0  0  0  0  0  0  0  0  0
    2.8660    2.3270    0.0000 H   0  0  0  0  0  0  0  0  0  0  0  0
    4.2690    2.7570    0.0000 H   0  0  0  0  0  0  0  0  0  0  0  0
    3.9875    0.0547    0.0000 H   0  0  0  0  0  0  0  0  0  0  0  0
    4.3860   -0.6356    0.0000 H   0  0  0  0  0  0  0  0  0  0  0  0
    3.4860    3.9470    0.0000 H   0  0  0  0  0  0  0  0  0  0  0  0
    1.6900    2.9840    0.0000 H   0  0  0  0  0  0  0  0  0  0  0  0
    1.4631    2.1370    0.0000 H   0  0  0  0  0  0  0  0  0  0  0  0
    2.3100    1.9101    0.0000 H   0  0  0  0  0  0  0  0  0  0  0  0
    2.8660    4.5670    0.0000 H   0  0  0  0  0  0  0  0  0  0  0  0
    2.2460    3.9470    0.0000 H   0  0  0  0  0  0  0  0  0  0  0  0
    7.4690   -1.1589    0.0000 H   0  0  0  0  0  0  0  0  0  0  0  0
    4.0611   -1.7430    0.0000 H   0  0  0  0  0  0  0  0  0  0  0  0
    5.4641    2.0670    0.0000 H   0  0  0  0  0  0  0  0  0  0  0  0
    7.4690   -3.9470    0.0000 H   0  0  0  0  0  0  0  0  0  0  0  0
    5.4641   -4.1730    0.0000 H   0  0  0  0  0  0  0  0  0  0  0  0
    8.4800   -2.5530    0.0000 H   0  0  0  0  0  0  0  0  0  0  0  0
    4.0611   -3.3630    0.0000 H   0  0  0  0  0  0  0  0  0  0  0  0
  1  8  1  0  0  0  0
  1 10  1  0  0  0  0
  2  5  1  0  0  0  0
  2 34  1  0  0  0  0
  3  6  1  0  0  0  0
  3  7  1  0  0  0  0
  3 23  1  0  0  0  0
  4 13  1  0  0  0  0
  4 17  1  0  0  0  0
  4 35  1  0  0  0  0
  5  6  1  0  0  0  0
  5  8  1  0  0  0  0
  5 19  1  0  0  0  0
  6 20  1  0  0  0  0
  6 21  1  0  0  0  0
  7 11  1  0  0  0  0
  7 12  1  0  0  0  0
  7 22  1  0  0  0  0
  8 24  1  0  0  0  0
  8 25  1  0  0  0  0
  9 10  1  0  0  0  0
  9 13  2  0  0  0  0
  9 14  1  0  0  0  0
 10 15  2  0  0  0  0
 11 26  1  0  0  0  0
 11 30  1  0  0  0  0
 11 31  1  0  0  0  0
 12 27  1  0  0  0  0
 12 28  1  0  0  0  0
 12 29  1  0  0  0  0
 13 16  1  0  0  0  0
 14 17  2  0  0  0  0
 14 32  1  0  0  0  0
 15 18  1  0  0  0  0
 15 33  1  0  0  0  0
 16 18  2  0  0  0  0
 16 36  1  0  0  0  0
 17 37  1  0  0  0  0
 18 38  1  0  0  0  0
M  END
> <PUBCHEM_COMPOUND_CID>
4828

> <PUBCHEM_COMPOUND_CANONICALIZED>
1

> <PUBCHEM_CACTVS_COMPLEXITY>
248

> <PUBCHEM_CACTVS_HBOND_ACCEPTOR>
3

> <PUBCHEM_CACTVS_HBOND_DONOR>
3

> <PUBCHEM_CACTVS_ROTATABLE_BOND>
6

> <PUBCHEM_CACTVS_SUBSKEYS>
AAADceBzMAAAAAAAAAAAAAAAAAAAAWAAAAAwAAAAAAAAAFgB8AAAHgAQCAAADDzhngY+xvLJlgCgAzRnRACCiCAxIiAI2aA+bJgPNuLEsZuGOCjm0Bnb6Aew0KMOAAAAAgAKAAAAAAAEABQAAAAAAAAAAA==

> <PUBCHEM_IUPAC_OPENEYE_NAME>
1-(1H-indol-4-yloxy)-3-(isopropylamino)propan-2-ol

> <PUBCHEM_IUPAC_CAS_NAME>
1-(1H-indol-4-yloxy)-3-(propan-2-ylamino)-2-propanol

> <PUBCHEM_IUPAC_NAME>
1-(1H-indol-4-yloxy)-3-(propan-2-ylamino)propan-2-ol

> <PUBCHEM_IUPAC_SYSTEMATIC_NAME>
1-(1H-indol-4-yloxy)-3-(propan-2-ylamino)propan-2-ol

> <PUBCHEM_IUPAC_TRADITIONAL_NAME>
1-(1H-indol-4-yloxy)-3-(isopropylamino)propan-2-ol

> <PUBCHEM_IUPAC_INCHI>
InChI=1S/C14H20N2O2/c1-10(2)16-8-11(17)9-18-14-5-3-4-13-12(14)6-7-15-13/h3-7,10-11,15-17H,8-9H2,1-2H3

> <PUBCHEM_IUPAC_INCHIKEY>
JZQKKSLKJUAGIC-UHFFFAOYSA-N

> <PUBCHEM_XLOGP3>
1.8

> <PUBCHEM_EXACT_MASS>
248.152478

> <PUBCHEM_MOLECULAR_FORMULA>
C14H20N2O2

> <PUBCHEM_MOLECULAR_WEIGHT>
248.3208

> <PUBCHEM_OPENEYE_CAN_SMILES>
CC(C)NCC(COC1=CC=CC2=C1C=CN2)O

> <PUBCHEM_OPENEYE_ISO_SMILES>
CC(C)NCC(COC1=CC=CC2=C1C=CN2)O

> <PUBCHEM_CACTVS_TPSA>
57.3

> <PUBCHEM_MONOISOTOPIC_WEIGHT>
248.152478

> <PUBCHEM_TOTAL_CHARGE>
0

> <PUBCHEM_HEAVY_ATOM_COUNT>
18

> <PUBCHEM_ATOM_DEF_STEREO_COUNT>
0

> <PUBCHEM_ATOM_UDEF_STEREO_COUNT>
1

> <PUBCHEM_BOND_DEF_STEREO_COUNT>
0

> <PUBCHEM_BOND_UDEF_STEREO_COUNT>
0

> <PUBCHEM_ISOTOPIC_ATOM_COUNT>
0

> <PUBCHEM_COMPONENT_COUNT>
1

> <PUBCHEM_CACTVS_TAUTO_COUNT>
1

> <PUBCHEM_COORDINATE_TYPE>
1
5
255

> <PUBCHEM_BONDANNOTATIONS>
10  15  8
13  16  8
14  17  8
15  18  8
16  18  8
5  2  3
4  13  8
4  17  8
9  10  8
9  13  8
9  14  8

$$$$

