11954002
  -OEChem-07051213022D

 62 61  0     1  0  0  0  0  0999 V2000
    4.5981   -4.2500    0.0000 O   0  0  0  0  0  0  0  0  0  0  0  0
   14.1244    4.2500    0.0000 O   0  0  0  0  0  0  0  0  0  0  0  0
   11.5263    1.7500    0.0000 O   0  0  0  0  0  0  0  0  0  0  0  0
   13.2583    1.7500    0.0000 N   0  0  0  0  0  0  0  0  0  0  0  0
    5.4641   -2.7500    0.0000 C   0  0  2  0  0  0  0  0  0  0  0  0
    4.5981   -3.2500    0.0000 C   0  0  2  0  0  0  0  0  0  0  0  0
    3.7320   -2.7500    0.0000 C   0  0  0  0  0  0  0  0  0  0  0  0
    5.4641   -1.7500    0.0000 C   0  0  0  0  0  0  0  0  0  0  0  0
    6.3301   -3.2500    0.0000 C   0  0  0  0  0  0  0  0  0  0  0  0
    7.1962   -2.7500    0.0000 C   0  0  0  0  0  0  0  0  0  0  0  0
    3.7320   -1.7500    0.0000 C   0  0  0  0  0  0  0  0  0  0  0  0
    2.8660   -3.2500    0.0000 C   0  0  0  0  0  0  0  0  0  0  0  0
    7.1962   -1.7500    0.0000 C   0  0  0  0  0  0  0  0  0  0  0  0
   13.2583    2.7500    0.0000 C   0  0  2  0  0  0  0  0  0  0  0  0
    8.0622   -3.2500    0.0000 C   0  0  0  0  0  0  0  0  0  0  0  0
    2.0000   -2.7500    0.0000 C   0  0  0  0  0  0  0  0  0  0  0  0
   14.1244    3.2500    0.0000 C   0  0  0  0  0  0  0  0  0  0  0  0
   12.3923    3.2500    0.0000 C   0  0  0  0  0  0  0  0  0  0  0  0
    8.9282   -2.7500    0.0000 C   0  0  0  0  0  0  0  0  0  0  0  0
   12.3923    1.2500    0.0000 C   0  0  0  0  0  0  0  0  0  0  0  0
   12.3923    0.2500    0.0000 C   0  0  0  0  0  0  0  0  0  0  0  0
    9.7942   -3.2500    0.0000 C   0  0  0  0  0  0  0  0  0  0  0  0
   11.5263   -0.2500    0.0000 C   0  0  0  0  0  0  0  0  0  0  0  0
   13.2583   -0.2500    0.0000 C   0  0  0  0  0  0  0  0  0  0  0  0
   10.6603   -2.7500    0.0000 C   0  0  0  0  0  0  0  0  0  0  0  0
   11.5263   -1.2500    0.0000 C   0  0  0  0  0  0  0  0  0  0  0  0
   10.6603   -1.7500    0.0000 C   0  0  0  0  0  0  0  0  0  0  0  0
    6.0010   -2.4400    0.0000 H   0  0  0  0  0  0  0  0  0  0  0  0
    5.1350   -3.5600    0.0000 H   0  0  0  0  0  0  0  0  0  0  0  0
    6.0841   -1.7500    0.0000 H   0  0  0  0  0  0  0  0  0  0  0  0
    5.4641   -1.1300    0.0000 H   0  0  0  0  0  0  0  0  0  0  0  0
    4.8441   -1.7500    0.0000 H   0  0  0  0  0  0  0  0  0  0  0  0
    6.3301   -3.8700    0.0000 H   0  0  0  0  0  0  0  0  0  0  0  0
    4.3520   -1.7500    0.0000 H   0  0  0  0  0  0  0  0  0  0  0  0
    3.7320   -1.1300    0.0000 H   0  0  0  0  0  0  0  0  0  0  0  0
    3.1120   -1.7500    0.0000 H   0  0  0  0  0  0  0  0  0  0  0  0
    2.8660   -3.8700    0.0000 H   0  0  0  0  0  0  0  0  0  0  0  0
    4.0611   -4.5600    0.0000 H   0  0  0  0  0  0  0  0  0  0  0  0
    7.8162   -1.7500    0.0000 H   0  0  0  0  0  0  0  0  0  0  0  0
    7.1962   -1.1300    0.0000 H   0  0  0  0  0  0  0  0  0  0  0  0
    6.5762   -1.7500    0.0000 H   0  0  0  0  0  0  0  0  0  0  0  0
   13.7953    2.4400    0.0000 H   0  0  0  0  0  0  0  0  0  0  0  0
    8.0622   -3.8700    0.0000 H   0  0  0  0  0  0  0  0  0  0  0  0
    2.3100   -2.2131    0.0000 H   0  0  0  0  0  0  0  0  0  0  0  0
    1.4631   -2.4400    0.0000 H   0  0  0  0  0  0  0  0  0  0  0  0
    1.6900   -3.2869    0.0000 H   0  0  0  0  0  0  0  0  0  0  0  0
   14.3364    2.6674    0.0000 H   0  0  0  0  0  0  0  0  0  0  0  0
   14.7349    3.3577    0.0000 H   0  0  0  0  0  0  0  0  0  0  0  0
   12.7023    3.7869    0.0000 H   0  0  0  0  0  0  0  0  0  0  0  0
   11.8554    3.5600    0.0000 H   0  0  0  0  0  0  0  0  0  0  0  0
   12.0823    2.7131    0.0000 H   0  0  0  0  0  0  0  0  0  0  0  0
   13.7953    1.4400    0.0000 H   0  0  0  0  0  0  0  0  0  0  0  0
    8.9282   -2.1300    0.0000 H   0  0  0  0  0  0  0  0  0  0  0  0
    9.7942   -3.8700    0.0000 H   0  0  0  0  0  0  0  0  0  0  0  0
   10.9893    0.0600    0.0000 H   0  0  0  0  0  0  0  0  0  0  0  0
   12.9483   -0.7869    0.0000 H   0  0  0  0  0  0  0  0  0  0  0  0
   13.7953   -0.5600    0.0000 H   0  0  0  0  0  0  0  0  0  0  0  0
   13.5683    0.2869    0.0000 H   0  0  0  0  0  0  0  0  0  0  0  0
   14.6613    4.5600    0.0000 H   0  0  0  0  0  0  0  0  0  0  0  0
   11.1972   -3.0600    0.0000 H   0  0  0  0  0  0  0  0  0  0  0  0
   12.0632   -1.5600    0.0000 H   0  0  0  0  0  0  0  0  0  0  0  0
   10.1233   -1.4400    0.0000 H   0  0  0  0  0  0  0  0  0  0  0  0
  6  1  1  1  0  0  0
  1 38  1  0  0  0  0
  2 17  1  0  0  0  0
  2 59  1  0  0  0  0
  3 20  2  0  0  0  0
 14  4  1  1  0  0  0
  4 20  1  0  0  0  0
  4 52  1  0  0  0  0
  5  6  1  0  0  0  0
  5  8  1  6  0  0  0
  5  9  1  0  0  0  0
  5 28  1  0  0  0  0
  6  7  1  0  0  0  0
  6 29  1  0  0  0  0
  7 11  1  0  0  0  0
  7 12  2  0  0  0  0
  8 30  1  0  0  0  0
  8 31  1  0  0  0  0
  8 32  1  0  0  0  0
  9 10  2  0  0  0  0
  9 33  1  0  0  0  0
 10 13  1  0  0  0  0
 10 15  1  0  0  0  0
 11 34  1  0  0  0  0
 11 35  1  0  0  0  0
 11 36  1  0  0  0  0
 12 16  1  0  0  0  0
 12 37  1  0  0  0  0
 13 39  1  0  0  0  0
 13 40  1  0  0  0  0
 13 41  1  0  0  0  0
 14 17  1  0  0  0  0
 14 18  1  0  0  0  0
 14 42  1  0  0  0  0
 15 19  2  0  0  0  0
 15 43  1  0  0  0  0
 16 44  1  0  0  0  0
 16 45  1  0  0  0  0
 16 46  1  0  0  0  0
 17 47  1  0  0  0  0
 17 48  1  0  0  0  0
 18 49  1  0  0  0  0
 18 50  1  0  0  0  0
 18 51  1  0  0  0  0
 19 22  1  0  0  0  0
 19 53  1  0  0  0  0
 20 21  1  0  0  0  0
 21 23  2  0  0  0  0
 21 24  1  0  0  0  0
 22 25  2  0  0  0  0
 22 54  1  0  0  0  0
 23 26  1  0  0  0  0
 23 55  1  0  0  0  0
 24 56  1  0  0  0  0
 24 57  1  0  0  0  0
 24 58  1  0  0  0  0
 25 27  1  0  0  0  0
 25 60  1  0  0  0  0
 26 27  2  0  0  0  0
 26 61  1  0  0  0  0
 27 62  1  0  0  0  0
M  END
> <PUBCHEM_COMPOUND_CID>
11954002

> <PUBCHEM_COMPOUND_CANONICALIZED>
1

> <PUBCHEM_CACTVS_COMPLEXITY>
636

> <PUBCHEM_CACTVS_HBOND_ACCEPTOR>
3

> <PUBCHEM_CACTVS_HBOND_DONOR>
3

> <PUBCHEM_CACTVS_ROTATABLE_BOND>
10

> <PUBCHEM_CACTVS_SUBSKEYS>
AAADcfB6MAAAAAAAAAAAAAAAAAAAAAAAAAAAAAAAAAAAAAAAAAAAHgAQCAAADTzhgAYCAALAAgCIAiFSEACAAAAgAAAICIEIAEgKFAIAAQAEUAAA1gCYkYIAAAAMAAAAAAAAAAAAAAAAAAAAAAAAAAAAAA==

> <PUBCHEM_IUPAC_OPENEYE_NAME>
(2E,4E,6Z,8E,10E,12R,13R,14E)-13-hydroxy-N-[(1S)-2-hydroxy-1-methyl-ethyl]-2,10,12,14-tetramethyl-hexadeca-2,4,6,8,10,14-hexaenamide

> <PUBCHEM_IUPAC_CAS_NAME>
(2E,4E,6Z,8E,10E,12R,13R,14E)-13-hydroxy-N-[(2S)-1-hydroxypropan-2-yl]-2,10,12,14-tetramethylhexadeca-2,4,6,8,10,14-hexaenamide

> <PUBCHEM_IUPAC_NAME>
(2E,4E,6Z,8E,10E,12R,13R,14E)-13-hydroxy-N-[(2S)-1-hydroxypropan-2-yl]-2,10,12,14-tetramethylhexadeca-2,4,6,8,10,14-hexaenamide

> <PUBCHEM_IUPAC_SYSTEMATIC_NAME>
(2E,4E,6Z,8E,10E,12R,13R,14E)-2,10,12,14-tetramethyl-13-oxidanyl-N-[(2S)-1-oxidanylpropan-2-yl]hexadeca-2,4,6,8,10,14-hexaenamide

> <PUBCHEM_IUPAC_TRADITIONAL_NAME>
(2E,4E,6Z,8E,10E,12R,13R,14E)-13-hydroxy-N-[(1S)-2-hydroxy-1-methyl-ethyl]-2,10,12,14-tetramethyl-hexadeca-2,4,6,8,10,14-hexaenamide

> <PUBCHEM_IUPAC_INCHI>
InChI=1S/C23H35NO3/c1-7-18(3)22(26)20(5)15-17(2)13-11-9-8-10-12-14-19(4)23(27)24-21(6)16-25/h7-15,20-22,25-26H,16H2,1-6H3,(H,24,27)/b9-8-,12-10+,13-11+,17-15+,18-7+,19-14+/t20-,21+,22+/m1/s1

> <PUBCHEM_IUPAC_INCHIKEY>
SJFXXCHPVOUCOT-GWBIGIMOSA-N

> <PUBCHEM_XLOGP3_AA>
4.8

> <PUBCHEM_EXACT_MASS>
373.261694

> <PUBCHEM_MOLECULAR_FORMULA>
C23H35NO3

> <PUBCHEM_MOLECULAR_WEIGHT>
373.5289

> <PUBCHEM_OPENEYE_CAN_SMILES>
CC=C(C)C(C(C)C=C(C)C=CC=CC=CC=C(C)C(=O)NC(C)CO)O

> <PUBCHEM_OPENEYE_ISO_SMILES>
C/C=C(\C)/[C@@H]([C@H](C)/C=C(\C)/C=C/C=C\C=C\C=C(/C)\C(=O)N[C@@H](C)CO)O

> <PUBCHEM_CACTVS_TPSA>
69.6

> <PUBCHEM_MONOISOTOPIC_WEIGHT>
373.261694

> <PUBCHEM_TOTAL_CHARGE>
0

> <PUBCHEM_HEAVY_ATOM_COUNT>
27

> <PUBCHEM_ATOM_DEF_STEREO_COUNT>
3

> <PUBCHEM_ATOM_UDEF_STEREO_COUNT>
0

> <PUBCHEM_BOND_DEF_STEREO_COUNT>
6

> <PUBCHEM_BOND_UDEF_STEREO_COUNT>
0

> <PUBCHEM_ISOTOPIC_ATOM_COUNT>
0

> <PUBCHEM_COMPONENT_COUNT>
1

> <PUBCHEM_CACTVS_TAUTO_COUNT>
2

> <PUBCHEM_COORDINATE_TYPE>
1
5
255

> <PUBCHEM_BONDANNOTATIONS>
6  1  5
14  4  5
5  8  6

$$$$

