31186
  -OEChem-07051213132D

 30 33  0     0  0  0  0  0  0999 V2000
    2.2746   -3.9621    0.0000 O   0  5  0  0  0  0  0  0  0  0  0  0
    4.0045   -4.0474    0.0000 O   0  0  0  0  0  0  0  0  0  0  0  0
    3.4966    4.0474    0.0000 O   0  5  0  0  0  0  0  0  0  0  0  0
    2.0000    3.1756    0.0000 O   0  0  0  0  0  0  0  0  0  0  0  0
    3.1642   -3.5054    0.0000 N   0  3  0  0  0  0  0  0  0  0  0  0
    3.0000    3.1795    0.0000 N   0  3  0  0  0  0  0  0  0  0  0  0
    4.0241   -1.0235    0.0000 C   0  0  0  0  0  0  0  0  0  0  0  0
    3.2151   -0.4357    0.0000 C   0  0  0  0  0  0  0  0  0  0  0  0
    4.8332   -0.4357    0.0000 C   0  0  0  0  0  0  0  0  0  0  0  0
    3.5241    0.5154    0.0000 C   0  0  0  0  0  0  0  0  0  0  0  0
    4.5241    0.5154    0.0000 C   0  0  0  0  0  0  0  0  0  0  0  0
    4.1170   -2.0609    0.0000 C   0  0  0  0  0  0  0  0  0  0  0  0
    2.3588   -0.9666    0.0000 C   0  0  0  0  0  0  0  0  0  0  0  0
    5.7912   -0.8446    0.0000 C   0  0  0  0  0  0  0  0  0  0  0  0
    3.2134   -2.5066    0.0000 C   0  0  0  0  0  0  0  0  0  0  0  0
    2.9895    1.4093    0.0000 C   0  0  0  0  0  0  0  0  0  0  0  0
    5.0588    1.4093    0.0000 C   0  0  0  0  0  0  0  0  0  0  0  0
    5.0653   -2.4919    0.0000 C   0  0  0  0  0  0  0  0  0  0  0  0
    2.3580   -1.9742    0.0000 C   0  0  0  0  0  0  0  0  0  0  0  0
    5.9080   -1.8797    0.0000 C   0  0  0  0  0  0  0  0  0  0  0  0
    3.5033    2.3154    0.0000 C   0  0  0  0  0  0  0  0  0  0  0  0
    4.5450    2.3154    0.0000 C   0  0  0  0  0  0  0  0  0  0  0  0
    1.8172   -0.6649    0.0000 H   0  0  0  0  0  0  0  0  0  0  0  0
    6.2885   -0.4744    0.0000 H   0  0  0  0  0  0  0  0  0  0  0  0
    2.3695    1.4022    0.0000 H   0  0  0  0  0  0  0  0  0  0  0  0
    5.6788    1.4022    0.0000 H   0  0  0  0  0  0  0  0  0  0  0  0
    5.1278   -3.1088    0.0000 H   0  0  0  0  0  0  0  0  0  0  0  0
    1.8159   -2.2750    0.0000 H   0  0  0  0  0  0  0  0  0  0  0  0
    6.4754   -2.1297    0.0000 H   0  0  0  0  0  0  0  0  0  0  0  0
    4.8570    2.8511    0.0000 H   0  0  0  0  0  0  0  0  0  0  0  0
  1  5  1  0  0  0  0
  2  5  2  0  0  0  0
  3  6  1  0  0  0  0
  4  6  2  0  0  0  0
  5 15  1  0  0  0  0
  6 21  1  0  0  0  0
  7  8  2  0  0  0  0
  7  9  1  0  0  0  0
  7 12  1  0  0  0  0
  8 10  1  0  0  0  0
  8 13  1  0  0  0  0
  9 11  1  0  0  0  0
  9 14  2  0  0  0  0
 10 11  2  0  0  0  0
 10 16  1  0  0  0  0
 11 17  1  0  0  0  0
 12 15  2  0  0  0  0
 12 18  1  0  0  0  0
 13 19  2  0  0  0  0
 13 23  1  0  0  0  0
 14 20  1  0  0  0  0
 14 24  1  0  0  0  0
 15 19  1  0  0  0  0
 16 21  2  0  0  0  0
 16 25  1  0  0  0  0
 17 22  2  0  0  0  0
 17 26  1  0  0  0  0
 18 20  2  0  0  0  0
 18 27  1  0  0  0  0
 19 28  1  0  0  0  0
 20 29  1  0  0  0  0
 21 22  1  0  0  0  0
 22 30  1  0  0  0  0
M  CHG  4   1  -1   3  -1   5   1   6   1
M  END
> <PUBCHEM_COMPOUND_CID>
31186

> <PUBCHEM_COMPOUND_CANONICALIZED>
1

> <PUBCHEM_CACTVS_COMPLEXITY>
486

> <PUBCHEM_CACTVS_HBOND_ACCEPTOR>
4

> <PUBCHEM_CACTVS_HBOND_DONOR>
0

> <PUBCHEM_CACTVS_ROTATABLE_BOND>
0

> <PUBCHEM_CACTVS_SUBSKEYS>
AAADccB7OAAAAAAAAAAAAAAAAAAAAYAAAAAwYMAAAAAAAGDBVAAAHAAEAAAADAiBGAAwwMAQQACBAiRCQwCCAAAgAgAoiAAAZIoIICKAkZGAIABggAAIyAcQgMAOiAACQAASAAAQAASAACQAAQAACAAAAA==

> <PUBCHEM_IUPAC_OPENEYE_NAME>
3,9-dinitrofluoranthene

> <PUBCHEM_IUPAC_CAS_NAME>
3,9-dinitrofluoranthene

> <PUBCHEM_IUPAC_NAME>
3,9-dinitrofluoranthene

> <PUBCHEM_IUPAC_SYSTEMATIC_NAME>
3,9-dinitrofluoranthene

> <PUBCHEM_IUPAC_TRADITIONAL_NAME>
3,9-dinitrofluoranthene

> <PUBCHEM_IUPAC_INCHI>
InChI=1S/C16H8N2O4/c19-17(20)9-4-5-10-11-2-1-3-13-15(18(21)22)7-6-12(16(11)13)14(10)8-9/h1-8H

> <PUBCHEM_IUPAC_INCHIKEY>
FGDKXSJXYFAHHH-UHFFFAOYSA-N

> <PUBCHEM_XLOGP3>
4.5

> <PUBCHEM_EXACT_MASS>
292.048407

> <PUBCHEM_MOLECULAR_FORMULA>
C16H8N2O4

> <PUBCHEM_MOLECULAR_WEIGHT>
292.24572

> <PUBCHEM_OPENEYE_CAN_SMILES>
C1=CC2=C(C=CC3=C2C(=C1)C4=C3C=C(C=C4)[N+](=O)[O-])[N+](=O)[O-]

> <PUBCHEM_OPENEYE_ISO_SMILES>
C1=CC2=C(C=CC3=C2C(=C1)C4=C3C=C(C=C4)[N+](=O)[O-])[N+](=O)[O-]

> <PUBCHEM_CACTVS_TPSA>
91.6

> <PUBCHEM_MONOISOTOPIC_WEIGHT>
292.048407

> <PUBCHEM_TOTAL_CHARGE>
0

> <PUBCHEM_HEAVY_ATOM_COUNT>
22

> <PUBCHEM_ATOM_DEF_STEREO_COUNT>
0

> <PUBCHEM_ATOM_UDEF_STEREO_COUNT>
0

> <PUBCHEM_BOND_DEF_STEREO_COUNT>
0

> <PUBCHEM_BOND_UDEF_STEREO_COUNT>
0

> <PUBCHEM_ISOTOPIC_ATOM_COUNT>
0

> <PUBCHEM_COMPONENT_COUNT>
1

> <PUBCHEM_CACTVS_TAUTO_COUNT>
1

> <PUBCHEM_COORDINATE_TYPE>
1
5
255

> <PUBCHEM_BONDANNOTATIONS>
10  11  8
10  16  8
11  17  8
12  15  8
12  18  8
13  19  8
14  20  8
15  19  8
16  21  8
17  22  8
18  20  8
21  22  8
7  12  8
7  8  8
7  9  8
8  13  8
9  14  8

$$$$

