   Color/Form

     * WHITE TO VERY PALE TAN CRYSTALLINE POWDER
     * Crystals from methanol and water

   from [1]HSDB

   Odor
        ODORLESS OR ALMOST ODORLESS
   from [2]HSDB

   Taste
        SLIGHTLY BITTER TASTE
   from [3]HSDB

   Melting Point
        145.4-147.2 deg C
   from [4]HSDB

   Dissociation Constants
        pKa = 8.95
   from [5]HSDB

   Octanol/Water Partition Coefficient
        log Kow= 3.31
   from [6]HSDB

   Solubilities

     * 1 G IN GREATER THAN 1000 ML WATER, 11 ML ALCOHOL, 2 ML CHLOROFORM,
       42 ML ETHER
     * SOL IN ACETONE; SPARINGLY SOL IN ETHYL ACETATE

   from [7]HSDB

   Spectral Properties
        Intense mass spectral peaks: 70 m/z, 110 m/z, 217 m/z, 285 m/z
   from [8]HSDB

   Other Chemical/Physical Properties

     * White to pale cream colored, odorless crystalline powder; there are
       two forms melting at about 218 deg & 254 deg C, respectively; Sol 1
       part in 30 parts of water, 1 part in 16 parts alcohol, 1 part in 4
       parts chloroform; very slightly sol in acetone; practically insol
       in ether; 1% soln in water has a pH of 4 to 6 /Pentazocine
       hydrochloride/
     * White to cream colored, odorless or almost odorless powder; sol 1
       part in 25 chloroform, 1 part in 1500 of ether & sol 1 part in 25
       of water, 1 part in 12 alcohol. /Pentazocine lactate/

   from [9]HSDB

   Computed Properties
   Molecular Weight                  285.42378 [g/mol]
   Molecular Formula                 C[19]H[27]NO
   XLogP3                            3.3
   H-Bond Donor                      1
   H-Bond Acceptor                   2
   Rotatable Bond Count              2
   Tautomer Count                    3
   Exact Mass                        285.209264
   MonoIsotopic Mass                 285.209264
   Topological Polar Surface Area    23.5
   Heavy Atom Count                  21
   Formal Charge                     0
   Complexity                        414
   Isotope Atom Count                0
   Defined Atom Stereocenter Count   3
   Undefined Atom Stereocenter Count 0
   Defined Bond Stereocenter Count   0
   Undefined Bond Stereocenter Count 0
   Covalently-Bonded Unit Count      1
   Feature 3D Donor Count            1
   Feature 3D Cation Count           1
   Feature 3D Hydrophobe Count       1
   Feature 3D Ring Count             3
   Effective Rotor Count             3
   Conformer Sampling RMSD           0.6
   CID Conformer Count               [10]14

References

   1. http://toxnet.nlm.nih.gov/cgi-bin/sis/search/r?dbs+hsdb:@term+@rn+@rel+359-83-1
   2. http://toxnet.nlm.nih.gov/cgi-bin/sis/search/r?dbs+hsdb:@term+@rn+@rel+359-83-1
   3. http://toxnet.nlm.nih.gov/cgi-bin/sis/search/r?dbs+hsdb:@term+@rn+@rel+359-83-1
   4. http://toxnet.nlm.nih.gov/cgi-bin/sis/search/r?dbs+hsdb:@term+@rn+@rel+359-83-1
   5. http://toxnet.nlm.nih.gov/cgi-bin/sis/search/r?dbs+hsdb:@term+@rn+@rel+359-83-1
   6. http://toxnet.nlm.nih.gov/cgi-bin/sis/search/r?dbs+hsdb:@term+@rn+@rel+359-83-1
   7. http://toxnet.nlm.nih.gov/cgi-bin/sis/search/r?dbs+hsdb:@term+@rn+@rel+359-83-1
   8. http://toxnet.nlm.nih.gov/cgi-bin/sis/search/r?dbs+hsdb:@term+@rn+@rel+359-83-1
   9. http://toxnet.nlm.nih.gov/cgi-bin/sis/search/r?dbs+hsdb:@term+@rn+@rel+359-83-1
  10. http://pubchem.ncbi.nlm.nih.gov/vw3d/vw3d.cgi?cid=441278
