5281806
  -OEChem-07051212592D

 41 44  0     0  0  0  0  0  0999 V2000
    5.9065    0.5019    0.0000 O   0  0  0  0  0  0  0  0  0  0  0  0
    8.0505    2.5704    0.0000 O   0  0  0  0  0  0  0  0  0  0  0  0
   10.6901    0.2262    0.0000 O   0  0  0  0  0  0  0  0  0  0  0  0
    6.7634    3.7293    0.0000 O   0  0  0  0  0  0  0  0  0  0  0  0
    2.4170    1.4061    0.0000 O   0  0  0  0  0  0  0  0  0  0  0  0
    6.7123    1.0841    0.0000 C   0  0  0  0  0  0  0  0  0  0  0  0
    7.6904    0.8762    0.0000 C   0  0  0  0  0  0  0  0  0  0  0  0
    6.4033    2.0351    0.0000 C   0  0  0  0  0  0  0  0  0  0  0  0
    5.4092    2.0326    0.0000 C   0  0  0  0  0  0  0  0  0  0  0  0
    8.3596    1.6193    0.0000 C   0  0  0  0  0  0  0  0  0  0  0  0
    9.0142   -0.3437    0.0000 C   0  0  0  0  0  0  0  0  0  0  0  0
    5.1028    1.0869    0.0000 C   0  0  0  0  0  0  0  0  0  0  0  0
    7.9970   -0.1193    0.0000 C   0  0  0  0  0  0  0  0  0  0  0  0
    9.3195   -1.2960    0.0000 C   0  0  0  0  0  0  0  0  0  0  0  0
    7.0724    2.7783    0.0000 C   0  0  0  0  0  0  0  0  0  0  0  0
    9.7112    0.4303    0.0000 C   0  0  0  0  0  0  0  0  0  0  0  0
    9.3816    1.4185    0.0000 C   0  0  0  0  0  0  0  0  0  0  0  0
    4.7276    2.8121    0.0000 C   0  0  0  0  0  0  0  0  0  0  0  0
    4.0936    0.8551    0.0000 C   0  0  0  0  0  0  0  0  0  0  0  0
    8.6475   -2.0365    0.0000 C   0  0  0  0  0  0  0  0  0  0  0  0
    3.7133    2.6037    0.0000 C   0  0  0  0  0  0  0  0  0  0  0  0
    3.3942    1.6186    0.0000 C   0  0  0  0  0  0  0  0  0  0  0  0
    8.9529   -2.9888    0.0000 C   0  0  0  0  0  0  0  0  0  0  0  0
    8.2809   -3.7293    0.0000 C   0  0  0  0  0  0  0  0  0  0  0  0
    9.9302   -3.2005    0.0000 C   0  0  0  0  0  0  0  0  0  0  0  0
    7.5768   -0.5752    0.0000 H   0  0  0  0  0  0  0  0  0  0  0  0
    9.6993   -1.7860    0.0000 H   0  0  0  0  0  0  0  0  0  0  0  0
    9.8681   -1.0070    0.0000 H   0  0  0  0  0  0  0  0  0  0  0  0
    9.7912    1.8840    0.0000 H   0  0  0  0  0  0  0  0  0  0  0  0
    4.9255    3.3996    0.0000 H   0  0  0  0  0  0  0  0  0  0  0  0
    3.9094    0.2631    0.0000 H   0  0  0  0  0  0  0  0  0  0  0  0
    8.0416   -1.9053    0.0000 H   0  0  0  0  0  0  0  0  0  0  0  0
    3.2998    3.0657    0.0000 H   0  0  0  0  0  0  0  0  0  0  0  0
   11.1032    0.6885    0.0000 H   0  0  0  0  0  0  0  0  0  0  0  0
    7.8217   -3.3127    0.0000 H   0  0  0  0  0  0  0  0  0  0  0  0
    7.8642   -4.1885    0.0000 H   0  0  0  0  0  0  0  0  0  0  0  0
    9.7990   -3.8064    0.0000 H   0  0  0  0  0  0  0  0  0  0  0  0
   10.5362   -3.3317    0.0000 H   0  0  0  0  0  0  0  0  0  0  0  0
   10.0615   -2.5945    0.0000 H   0  0  0  0  0  0  0  0  0  0  0  0
    8.7400   -4.1460    0.0000 H   0  0  0  0  0  0  0  0  0  0  0  0
    2.0000    1.8649    0.0000 H   0  0  0  0  0  0  0  0  0  0  0  0
  1  6  1  0  0  0  0
  1 12  1  0  0  0  0
  2 10  1  0  0  0  0
  2 15  1  0  0  0  0
  3 16  1  0  0  0  0
  3 34  1  0  0  0  0
  4 15  2  0  0  0  0
  5 22  1  0  0  0  0
  5 41  1  0  0  0  0
  6  7  1  0  0  0  0
  6  8  2  0  0  0  0
  7 10  2  0  0  0  0
  7 13  1  0  0  0  0
  8  9  1  0  0  0  0
  8 15  1  0  0  0  0
  9 12  2  0  0  0  0
  9 18  1  0  0  0  0
 10 17  1  0  0  0  0
 11 13  2  0  0  0  0
 11 14  1  0  0  0  0
 11 16  1  0  0  0  0
 12 19  1  0  0  0  0
 13 26  1  0  0  0  0
 14 20  1  0  0  0  0
 14 27  1  0  0  0  0
 14 28  1  0  0  0  0
 16 17  2  0  0  0  0
 17 29  1  0  0  0  0
 18 21  2  0  0  0  0
 18 30  1  0  0  0  0
 19 22  2  0  0  0  0
 19 31  1  0  0  0  0
 20 23  2  0  0  0  0
 20 32  1  0  0  0  0
 21 22  1  0  0  0  0
 21 33  1  0  0  0  0
 23 24  1  0  0  0  0
 23 25  1  0  0  0  0
 24 35  1  0  0  0  0
 24 36  1  0  0  0  0
 24 40  1  0  0  0  0
 25 37  1  0  0  0  0
 25 38  1  0  0  0  0
 25 39  1  0  0  0  0
M  END
> <PUBCHEM_COMPOUND_CID>
5281806

> <PUBCHEM_COMPOUND_CANONICALIZED>
1

> <PUBCHEM_CACTVS_COMPLEXITY>
554

> <PUBCHEM_CACTVS_HBOND_ACCEPTOR>
5

> <PUBCHEM_CACTVS_HBOND_DONOR>
2

> <PUBCHEM_CACTVS_ROTATABLE_BOND>
2

> <PUBCHEM_CACTVS_SUBSKEYS>
AAADceB4OAAAAAAAAAAAAAAAAAAAASAAAAA0YIAAAAAAAEiR9AAAGgAACAAADASAmAAyDsAABkCIAqDSCAACCAAkIAAIiAEGCMgMJzaONRqCe2Cl4BUIuYfL7PzOoAACCAAIAABAAAQQABAAAAAAAAAAAA==

> <PUBCHEM_IUPAC_OPENEYE_NAME>
3,9-dihydroxy-2-(3-methylbut-2-enyl)benzofuro[3,2-c]chromen-6-one

> <PUBCHEM_IUPAC_CAS_NAME>
3,9-dihydroxy-2-(3-methylbut-2-enyl)-6-benzofuro[3,2-c][1]benzopyranone

> <PUBCHEM_IUPAC_NAME>
3,9-dihydroxy-2-(3-methylbut-2-enyl)-[1]benzofuro[3,2-c]chromen-6-one

> <PUBCHEM_IUPAC_SYSTEMATIC_NAME>
2-(3-methylbut-2-enyl)-3,9-bis(oxidanyl)-[1]benzofuro[3,2-c]chromen-6-one

> <PUBCHEM_IUPAC_TRADITIONAL_NAME>
3,9-dihydroxy-2-(3-methylbut-2-enyl)benzofuro[3,2-c]chromen-6-one

> <PUBCHEM_IUPAC_INCHI>
InChI=1S/C20H16O5/c1-10(2)3-4-11-7-14-17(9-15(11)22)25-20(23)18-13-6-5-12(21)8-16(13)24-19(14)18/h3,5-9,21-22H,4H2,1-2H3

> <PUBCHEM_IUPAC_INCHIKEY>
YABIJLLNNFURIJ-UHFFFAOYSA-N

> <PUBCHEM_XLOGP3_AA>
4.7

> <PUBCHEM_EXACT_MASS>
336.099774

> <PUBCHEM_MOLECULAR_FORMULA>
C20H16O5

> <PUBCHEM_MOLECULAR_WEIGHT>
336.33804

> <PUBCHEM_OPENEYE_CAN_SMILES>
CC(=CCC1=C(C=C2C(=C1)C3=C(C4=C(O3)C=C(C=C4)O)C(=O)O2)O)C

> <PUBCHEM_OPENEYE_ISO_SMILES>
CC(=CCC1=C(C=C2C(=C1)C3=C(C4=C(O3)C=C(C=C4)O)C(=O)O2)O)C

> <PUBCHEM_CACTVS_TPSA>
79.9

> <PUBCHEM_MONOISOTOPIC_WEIGHT>
336.099774

> <PUBCHEM_TOTAL_CHARGE>
0

> <PUBCHEM_HEAVY_ATOM_COUNT>
25

> <PUBCHEM_ATOM_DEF_STEREO_COUNT>
0

> <PUBCHEM_ATOM_UDEF_STEREO_COUNT>
0

> <PUBCHEM_BOND_DEF_STEREO_COUNT>
0

> <PUBCHEM_BOND_UDEF_STEREO_COUNT>
0

> <PUBCHEM_ISOTOPIC_ATOM_COUNT>
0

> <PUBCHEM_COMPONENT_COUNT>
1

> <PUBCHEM_CACTVS_TAUTO_COUNT>
15

> <PUBCHEM_COORDINATE_TYPE>
1
5
255

> <PUBCHEM_BONDANNOTATIONS>
1  12  8
1  6  8
10  17  8
11  13  8
11  16  8
12  19  8
16  17  8
18  21  8
19  22  8
2  10  8
2  15  8
21  22  8
6  7  8
6  8  8
7  10  8
7  13  8
8  15  8
8  9  8
9  12  8
9  18  8

$$$$

