9043
  -OEChem-06261203212D

 84 85  0     0  0  0  0  0  0999 V2000
   12.3923    5.5000    0.0000 Cl  0  0  0  0  0  0  0  0  0  0  0  0
    2.0000   -5.5000    0.0000 Cl  0  0  0  0  0  0  0  0  0  0  0  0
    6.3301    1.0000    0.0000 O   0  0  0  0  0  0  0  0  0  0  0  0
    8.0622   -1.0000    0.0000 O   0  0  0  0  0  0  0  0  0  0  0  0
    9.7942    4.0000    0.0000 N   0  3  0  0  0  0  0  0  0  0  0  0
    4.5981   -4.0000    0.0000 N   0  3  0  0  0  0  0  0  0  0  0  0
    8.0622    1.0000    0.0000 N   0  0  0  0  0  0  0  0  0  0  0  0
    6.3301   -1.0000    0.0000 N   0  0  0  0  0  0  0  0  0  0  0  0
    5.4641   -3.5000    0.0000 C   0  0  0  0  0  0  0  0  0  0  0  0
    8.9282    3.5000    0.0000 C   0  0  0  0  0  0  0  0  0  0  0  0
    3.7320   -4.5000    0.0000 C   0  0  0  0  0  0  0  0  0  0  0  0
   10.6603    4.5000    0.0000 C   0  0  0  0  0  0  0  0  0  0  0  0
    4.0981   -3.1340    0.0000 C   0  0  0  0  0  0  0  0  0  0  0  0
    5.0981   -4.8660    0.0000 C   0  0  0  0  0  0  0  0  0  0  0  0
    9.2942    4.8660    0.0000 C   0  0  0  0  0  0  0  0  0  0  0  0
   10.2942    3.1340    0.0000 C   0  0  0  0  0  0  0  0  0  0  0  0
    5.4641   -2.5000    0.0000 C   0  0  0  0  0  0  0  0  0  0  0  0
    8.9282    2.5000    0.0000 C   0  0  0  0  0  0  0  0  0  0  0  0
    3.7320   -5.5000    0.0000 C   0  0  0  0  0  0  0  0  0  0  0  0
   10.6603    5.5000    0.0000 C   0  0  0  0  0  0  0  0  0  0  0  0
    3.0981   -3.1340    0.0000 C   0  0  0  0  0  0  0  0  0  0  0  0
    6.0981   -4.8660    0.0000 C   0  0  0  0  0  0  0  0  0  0  0  0
    8.2942    4.8660    0.0000 C   0  0  0  0  0  0  0  0  0  0  0  0
   11.2942    3.1340    0.0000 C   0  0  0  0  0  0  0  0  0  0  0  0
    6.3301   -2.0000    0.0000 C   0  0  0  0  0  0  0  0  0  0  0  0
    8.0622    2.0000    0.0000 C   0  0  0  0  0  0  0  0  0  0  0  0
    2.8660   -6.0000    0.0000 C   0  0  0  0  0  0  0  0  0  0  0  0
   11.5263    6.0000    0.0000 C   0  0  0  0  0  0  0  0  0  0  0  0
    9.7942    6.0000    0.0000 C   0  0  0  0  0  0  0  0  0  0  0  0
    4.5981   -6.0000    0.0000 C   0  0  0  0  0  0  0  0  0  0  0  0
    7.1962   -0.5000    0.0000 C   0  0  0  0  0  0  0  0  0  0  0  0
    7.1962    0.5000    0.0000 C   0  0  0  0  0  0  0  0  0  0  0  0
   11.5263    7.0000    0.0000 C   0  0  0  0  0  0  0  0  0  0  0  0
    2.8660   -7.0000    0.0000 C   0  0  0  0  0  0  0  0  0  0  0  0
    4.5981   -7.0000    0.0000 C   0  0  0  0  0  0  0  0  0  0  0  0
    9.7942    7.0000    0.0000 C   0  0  0  0  0  0  0  0  0  0  0  0
    3.7320   -7.5000    0.0000 C   0  0  0  0  0  0  0  0  0  0  0  0
   10.6603    7.5000    0.0000 C   0  0  0  0  0  0  0  0  0  0  0  0
    8.7162    4.0826    0.0000 H   0  0  0  0  0  0  0  0  0  0  0  0
    8.3176    3.3923    0.0000 H   0  0  0  0  0  0  0  0  0  0  0  0
    5.6762   -4.0826    0.0000 H   0  0  0  0  0  0  0  0  0  0  0  0
    6.0747   -3.3923    0.0000 H   0  0  0  0  0  0  0  0  0  0  0  0
    3.5200   -3.9174    0.0000 H   0  0  0  0  0  0  0  0  0  0  0  0
    3.1215   -4.6077    0.0000 H   0  0  0  0  0  0  0  0  0  0  0  0
   10.8723    3.9174    0.0000 H   0  0  0  0  0  0  0  0  0  0  0  0
   11.2708    4.6077    0.0000 H   0  0  0  0  0  0  0  0  0  0  0  0
    9.7116    2.9219    0.0000 H   0  0  0  0  0  0  0  0  0  0  0  0
   10.4019    2.5234    0.0000 H   0  0  0  0  0  0  0  0  0  0  0  0
    9.8768    5.0781    0.0000 H   0  0  0  0  0  0  0  0  0  0  0  0
    9.1866    5.4766    0.0000 H   0  0  0  0  0  0  0  0  0  0  0  0
    4.5155   -5.0781    0.0000 H   0  0  0  0  0  0  0  0  0  0  0  0
    5.2057   -5.4766    0.0000 H   0  0  0  0  0  0  0  0  0  0  0  0
    4.6807   -2.9219    0.0000 H   0  0  0  0  0  0  0  0  0  0  0  0
    3.9904   -2.5234    0.0000 H   0  0  0  0  0  0  0  0  0  0  0  0
    9.1403    1.9174    0.0000 H   0  0  0  0  0  0  0  0  0  0  0  0
    9.5388    2.6077    0.0000 H   0  0  0  0  0  0  0  0  0  0  0  0
    5.2520   -1.9174    0.0000 H   0  0  0  0  0  0  0  0  0  0  0  0
    4.8535   -2.6077    0.0000 H   0  0  0  0  0  0  0  0  0  0  0  0
    3.0981   -2.5140    0.0000 H   0  0  0  0  0  0  0  0  0  0  0  0
    2.4781   -3.1340    0.0000 H   0  0  0  0  0  0  0  0  0  0  0  0
    3.0981   -3.7540    0.0000 H   0  0  0  0  0  0  0  0  0  0  0  0
    6.0981   -5.4860    0.0000 H   0  0  0  0  0  0  0  0  0  0  0  0
    6.7181   -4.8660    0.0000 H   0  0  0  0  0  0  0  0  0  0  0  0
    6.0981   -4.2460    0.0000 H   0  0  0  0  0  0  0  0  0  0  0  0
    8.2942    5.4860    0.0000 H   0  0  0  0  0  0  0  0  0  0  0  0
    7.6742    4.8660    0.0000 H   0  0  0  0  0  0  0  0  0  0  0  0
    8.2942    4.2460    0.0000 H   0  0  0  0  0  0  0  0  0  0  0  0
   11.2942    2.5140    0.0000 H   0  0  0  0  0  0  0  0  0  0  0  0
   11.9142    3.1340    0.0000 H   0  0  0  0  0  0  0  0  0  0  0  0
   11.2942    3.7540    0.0000 H   0  0  0  0  0  0  0  0  0  0  0  0
    6.5422   -2.5826    0.0000 H   0  0  0  0  0  0  0  0  0  0  0  0
    6.9407   -1.8923    0.0000 H   0  0  0  0  0  0  0  0  0  0  0  0
    7.8501    2.5826    0.0000 H   0  0  0  0  0  0  0  0  0  0  0  0
    7.4516    1.8923    0.0000 H   0  0  0  0  0  0  0  0  0  0  0  0
    5.1350   -5.6900    0.0000 H   0  0  0  0  0  0  0  0  0  0  0  0
    9.2573    5.6900    0.0000 H   0  0  0  0  0  0  0  0  0  0  0  0
    8.5991    0.6900    0.0000 H   0  0  0  0  0  0  0  0  0  0  0  0
    5.7932   -0.6900    0.0000 H   0  0  0  0  0  0  0  0  0  0  0  0
    2.3291   -7.3100    0.0000 H   0  0  0  0  0  0  0  0  0  0  0  0
   12.0632    7.3100    0.0000 H   0  0  0  0  0  0  0  0  0  0  0  0
    5.1350   -7.3100    0.0000 H   0  0  0  0  0  0  0  0  0  0  0  0
    9.2573    7.3100    0.0000 H   0  0  0  0  0  0  0  0  0  0  0  0
    3.7320   -8.1200    0.0000 H   0  0  0  0  0  0  0  0  0  0  0  0
   10.6603    8.1200    0.0000 H   0  0  0  0  0  0  0  0  0  0  0  0
  1 28  1  0  0  0  0
  2 27  1  0  0  0  0
  3 32  2  0  0  0  0
  4 31  2  0  0  0  0
  5 10  1  0  0  0  0
  5 12  1  0  0  0  0
  5 15  1  0  0  0  0
  5 16  1  0  0  0  0
  6  9  1  0  0  0  0
  6 11  1  0  0  0  0
  6 13  1  0  0  0  0
  6 14  1  0  0  0  0
  7 26  1  0  0  0  0
  7 32  1  0  0  0  0
  7 77  1  0  0  0  0
  8 25  1  0  0  0  0
  8 31  1  0  0  0  0
  8 78  1  0  0  0  0
  9 17  1  0  0  0  0
  9 41  1  0  0  0  0
  9 42  1  0  0  0  0
 10 18  1  0  0  0  0
 10 39  1  0  0  0  0
 10 40  1  0  0  0  0
 11 19  1  0  0  0  0
 11 43  1  0  0  0  0
 11 44  1  0  0  0  0
 12 20  1  0  0  0  0
 12 45  1  0  0  0  0
 12 46  1  0  0  0  0
 13 21  1  0  0  0  0
 13 53  1  0  0  0  0
 13 54  1  0  0  0  0
 14 22  1  0  0  0  0
 14 51  1  0  0  0  0
 14 52  1  0  0  0  0
 15 23  1  0  0  0  0
 15 49  1  0  0  0  0
 15 50  1  0  0  0  0
 16 24  1  0  0  0  0
 16 47  1  0  0  0  0
 16 48  1  0  0  0  0
 17 25  1  0  0  0  0
 17 57  1  0  0  0  0
 17 58  1  0  0  0  0
 18 26  1  0  0  0  0
 18 55  1  0  0  0  0
 18 56  1  0  0  0  0
 19 27  1  0  0  0  0
 19 30  2  0  0  0  0
 20 28  1  0  0  0  0
 20 29  2  0  0  0  0
 21 59  1  0  0  0  0
 21 60  1  0  0  0  0
 21 61  1  0  0  0  0
 22 62  1  0  0  0  0
 22 63  1  0  0  0  0
 22 64  1  0  0  0  0
 23 65  1  0  0  0  0
 23 66  1  0  0  0  0
 23 67  1  0  0  0  0
 24 68  1  0  0  0  0
 24 69  1  0  0  0  0
 24 70  1  0  0  0  0
 25 71  1  0  0  0  0
 25 72  1  0  0  0  0
 26 73  1  0  0  0  0
 26 74  1  0  0  0  0
 27 34  2  0  0  0  0
 28 33  2  0  0  0  0
 29 36  1  0  0  0  0
 29 76  1  0  0  0  0
 30 35  1  0  0  0  0
 30 75  1  0  0  0  0
 31 32  1  0  0  0  0
 33 38  1  0  0  0  0
 33 80  1  0  0  0  0
 34 37  1  0  0  0  0
 34 79  1  0  0  0  0
 35 37  2  0  0  0  0
 35 81  1  0  0  0  0
 36 38  2  0  0  0  0
 36 82  1  0  0  0  0
 37 83  1  0  0  0  0
 38 84  1  0  0  0  0
M  CHG  2   5   1   6   1
M  END
> <PUBCHEM_COMPOUND_CID>
9043

> <PUBCHEM_COMPOUND_CANONICALIZED>
1

> <PUBCHEM_CACTVS_COMPLEXITY>
642

> <PUBCHEM_CACTVS_HBOND_ACCEPTOR>
2

> <PUBCHEM_CACTVS_HBOND_DONOR>
2

> <PUBCHEM_CACTVS_ROTATABLE_BOND>
16

> <PUBCHEM_CACTVS_SUBSKEYS>
AAADcfB7sAAGAAAAAAAAAAAAAAAAAAAAAAAwYAAAAAAAAAABQAAAHgIQAAAADALBmCQyAIPAAACIAiFSEACCAAAgBQAIiICIBogIYCKB0zGUIAhglgCIiAcQgAAOAAAAAAABAAAAAAAAAAIAAAAAAAAAAA==

> <PUBCHEM_IUPAC_OPENEYE_NAME>
(2-chlorophenyl)methyl-[3-[[2-[3-[(2-chlorophenyl)methyl-diethyl-ammonio]propylamino]-2-oxo-acetyl]amino]propyl]-diethyl-ammonium

> <PUBCHEM_IUPAC_CAS_NAME>
(2-chlorophenyl)methyl-[3-[[2-[3-[(2-chlorophenyl)methyl-diethylammonio]propylamino]-1,2-dioxoethyl]amino]propyl]-diethylammonium

> <PUBCHEM_IUPAC_NAME>
(2-chlorophenyl)methyl-[3-[[2-[3-[(2-chlorophenyl)methyl-diethylazaniumyl]propylamino]-2-oxoacetyl]amino]propyl]-diethylazanium

> <PUBCHEM_IUPAC_SYSTEMATIC_NAME>
(2-chlorophenyl)methyl-[3-[[2-[3-[(2-chlorophenyl)methyl-diethyl-azaniumyl]propylamino]-2-oxidanylidene-ethanoyl]amino]propyl]-diethyl-azanium

> <PUBCHEM_IUPAC_TRADITIONAL_NAME>
(2-chlorobenzyl)-[3-[[2-[3-[(2-chlorobenzyl)-diethyl-ammonio]propylamino]-2-keto-acetyl]amino]propyl]-diethyl-ammonium

> <PUBCHEM_IUPAC_INCHI>
InChI=1S/C30H44Cl2N4O2/c1-5-35(6-2,23-25-15-9-11-17-27(25)31)21-13-19-33-29(37)30(38)34-20-14-22-36(7-3,8-4)24-26-16-10-12-18-28(26)32/h9-12,15-18H,5-8,13-14,19-24H2,1-4H3/p+2

> <PUBCHEM_IUPAC_INCHIKEY>
PILWTEPAUNDRNJ-UHFFFAOYSA-P

> <PUBCHEM_XLOGP3_AA>
5.8

> <PUBCHEM_EXACT_MASS>
564.299782

> <PUBCHEM_MOLECULAR_FORMULA>
C30H46Cl2N4O2+2

> <PUBCHEM_MOLECULAR_WEIGHT>
565.61784

> <PUBCHEM_OPENEYE_CAN_SMILES>
CC[N+](CC)(CCCNC(=O)C(=O)NCCC[N+](CC)(CC)CC1=CC=CC=C1Cl)CC2=CC=CC=C2Cl

> <PUBCHEM_OPENEYE_ISO_SMILES>
CC[N+](CC)(CCCNC(=O)C(=O)NCCC[N+](CC)(CC)CC1=CC=CC=C1Cl)CC2=CC=CC=C2Cl

> <PUBCHEM_CACTVS_TPSA>
58.2

> <PUBCHEM_MONOISOTOPIC_WEIGHT>
564.299782

> <PUBCHEM_TOTAL_CHARGE>
2

> <PUBCHEM_HEAVY_ATOM_COUNT>
38

> <PUBCHEM_ATOM_DEF_STEREO_COUNT>
0

> <PUBCHEM_ATOM_UDEF_STEREO_COUNT>
0

> <PUBCHEM_BOND_DEF_STEREO_COUNT>
0

> <PUBCHEM_BOND_UDEF_STEREO_COUNT>
0

> <PUBCHEM_ISOTOPIC_ATOM_COUNT>
0

> <PUBCHEM_COMPONENT_COUNT>
1

> <PUBCHEM_CACTVS_TAUTO_COUNT>
3

> <PUBCHEM_COORDINATE_TYPE>
1
5
255

> <PUBCHEM_BONDANNOTATIONS>
19  27  8
19  30  8
20  28  8
20  29  8
27  34  8
28  33  8
29  36  8
30  35  8
33  38  8
34  37  8
35  37  8
36  38  8

$$$$

