47205560
  -OEChem-06241222592D

 39 40  0     0  0  0  0  0  0999 V2000
    8.5327   -2.3353    0.0000 O   0  0  0  0  0  0  0  0  0  0  0  0
    6.7500    1.8864    0.0000 O   0  0  0  0  0  0  0  0  0  0  0  0
    2.2788    2.8134    0.0000 O   0  0  0  0  0  0  0  0  0  0  0  0
    4.3126    0.8571    0.0000 O   0  0  0  0  0  0  0  0  0  0  0  0
    6.2147    0.2391    0.0000 N   0  0  0  0  0  0  0  0  0  0  0  0
    4.8479    2.5044    0.0000 N   0  0  0  0  0  0  0  0  0  0  0  0
    3.0878    2.2256    0.0000 N   0  0  0  0  0  0  0  0  0  0  0  0
    9.6916   -3.6224    0.0000 C   0  0  0  0  0  0  0  0  0  0  0  0
    9.3826   -4.5735    0.0000 C   0  0  0  0  0  0  0  0  0  0  0  0
   10.3608   -4.3656    0.0000 C   0  0  0  0  0  0  0  0  0  0  0  0
    9.4837   -2.6443    0.0000 C   0  0  0  0  0  0  0  0  0  0  0  0
    8.3248   -1.3571    0.0000 C   0  0  0  0  0  0  0  0  0  0  0  0
    7.3737   -1.0481    0.0000 C   0  0  0  0  0  0  0  0  0  0  0  0
    7.1658   -0.0699    0.0000 C   0  0  0  0  0  0  0  0  0  0  0  0
    6.0068    1.2172    0.0000 C   0  0  0  0  0  0  0  0  0  0  0  0
    5.0558    1.5262    0.0000 C   0  0  0  0  0  0  0  0  0  0  0  0
    3.8968    2.8134    0.0000 C   0  0  0  0  0  0  0  0  0  0  0  0
    3.5878    3.7645    0.0000 C   0  0  0  0  0  0  0  0  0  0  0  0
    2.5878    3.7645    0.0000 C   0  0  0  0  0  0  0  0  0  0  0  0
    2.0000    4.5735    0.0000 C   0  0  0  0  0  0  0  0  0  0  0  0
   10.2441   -3.3410    0.0000 H   0  0  0  0  0  0  0  0  0  0  0  0
    8.7687   -4.4872    0.0000 H   0  0  0  0  0  0  0  0  0  0  0  0
    9.4043   -5.1931    0.0000 H   0  0  0  0  0  0  0  0  0  0  0  0
   10.5930   -4.9404    0.0000 H   0  0  0  0  0  0  0  0  0  0  0  0
   10.8866   -4.0370    0.0000 H   0  0  0  0  0  0  0  0  0  0  0  0
   10.1034   -2.6226    0.0000 H   0  0  0  0  0  0  0  0  0  0  0  0
    9.5700   -2.0303    0.0000 H   0  0  0  0  0  0  0  0  0  0  0  0
    8.9444   -1.3355    0.0000 H   0  0  0  0  0  0  0  0  0  0  0  0
    8.4110   -0.7431    0.0000 H   0  0  0  0  0  0  0  0  0  0  0  0
    6.7541   -1.0697    0.0000 H   0  0  0  0  0  0  0  0  0  0  0  0
    7.2874   -1.6621    0.0000 H   0  0  0  0  0  0  0  0  0  0  0  0
    7.7854   -0.0483    0.0000 H   0  0  0  0  0  0  0  0  0  0  0  0
    7.2521    0.5440    0.0000 H   0  0  0  0  0  0  0  0  0  0  0  0
    5.7540   -0.1758    0.0000 H   0  0  0  0  0  0  0  0  0  0  0  0
    5.3086    2.9192    0.0000 H   0  0  0  0  0  0  0  0  0  0  0  0
    3.9522    4.2660    0.0000 H   0  0  0  0  0  0  0  0  0  0  0  0
    2.5016    4.9379    0.0000 H   0  0  0  0  0  0  0  0  0  0  0  0
    1.6356    5.0751    0.0000 H   0  0  0  0  0  0  0  0  0  0  0  0
    1.4984    4.2091    0.0000 H   0  0  0  0  0  0  0  0  0  0  0  0
  1 11  1  0  0  0  0
  1 12  1  0  0  0  0
  2 15  2  0  0  0  0
  3  7  1  0  0  0  0
  3 19  1  0  0  0  0
  4 16  2  0  0  0  0
  5 14  1  0  0  0  0
  5 15  1  0  0  0  0
  5 34  1  0  0  0  0
  6 16  1  0  0  0  0
  6 17  1  0  0  0  0
  6 35  1  0  0  0  0
  7 17  2  0  0  0  0
  8  9  1  0  0  0  0
  8 10  1  0  0  0  0
  8 11  1  0  0  0  0
  8 21  1  0  0  0  0
  9 10  1  0  0  0  0
  9 22  1  0  0  0  0
  9 23  1  0  0  0  0
 10 24  1  0  0  0  0
 10 25  1  0  0  0  0
 11 26  1  0  0  0  0
 11 27  1  0  0  0  0
 12 13  1  0  0  0  0
 12 28  1  0  0  0  0
 12 29  1  0  0  0  0
 13 14  1  0  0  0  0
 13 30  1  0  0  0  0
 13 31  1  0  0  0  0
 14 32  1  0  0  0  0
 14 33  1  0  0  0  0
 15 16  1  0  0  0  0
 17 18  1  0  0  0  0
 18 19  2  0  0  0  0
 18 36  1  0  0  0  0
 19 20  1  0  0  0  0
 20 37  1  0  0  0  0
 20 38  1  0  0  0  0
 20 39  1  0  0  0  0
M  END
> <PUBCHEM_COMPOUND_CID>
47205560

> <PUBCHEM_COMPOUND_CANONICALIZED>
1

> <PUBCHEM_CACTVS_COMPLEXITY>
347

> <PUBCHEM_CACTVS_HBOND_ACCEPTOR>
5

> <PUBCHEM_CACTVS_HBOND_DONOR>
2

> <PUBCHEM_CACTVS_ROTATABLE_BOND>
7

> <PUBCHEM_CACTVS_SUBSKEYS>
AAADceBzOAAAAAAAAAAAAAAAGAAAAWAAAAAAAAAAAAAAAAABgAAAHgAUAAAADQThkgYztJLQBACpAKNycgCAAAAlIgAhGKG+bFqAZAhAiaAWAIhGFwrAQEAAAAAAAAAAAAAAAAAAAAAAAAAAAAAAAAAAAA==

> <PUBCHEM_IUPAC_OPENEYE_NAME>
N-[3-(cyclopropylmethoxy)propyl]-N'-(5-methylisoxazol-3-yl)oxamide

> <PUBCHEM_IUPAC_CAS_NAME>
N-[3-(cyclopropylmethoxy)propyl]-N'-(5-methyl-3-isoxazolyl)oxamide

> <PUBCHEM_IUPAC_NAME>
N-[3-(cyclopropylmethoxy)propyl]-N'-(5-methyl-1,2-oxazol-3-yl)oxamide

> <PUBCHEM_IUPAC_SYSTEMATIC_NAME>
N-[3-(cyclopropylmethoxy)propyl]-N'-(5-methyl-1,2-oxazol-3-yl)ethanediamide

> <PUBCHEM_IUPAC_TRADITIONAL_NAME>
N-[3-(cyclopropylmethoxy)propyl]-N'-(5-methylisoxazol-3-yl)oxamide

> <PUBCHEM_IUPAC_INCHI>
InChI=1S/C13H19N3O4/c1-9-7-11(16-20-9)15-13(18)12(17)14-5-2-6-19-8-10-3-4-10/h7,10H,2-6,8H2,1H3,(H,14,17)(H,15,16,18)

> <PUBCHEM_IUPAC_INCHIKEY>
QDEARQDXBCSXMA-UHFFFAOYSA-N

> <PUBCHEM_XLOGP3_AA>
0.9

> <PUBCHEM_EXACT_MASS>
281.137556

> <PUBCHEM_MOLECULAR_FORMULA>
C13H19N3O4

> <PUBCHEM_MOLECULAR_WEIGHT>
281.30766

> <PUBCHEM_OPENEYE_CAN_SMILES>
CC1=CC(=NO1)NC(=O)C(=O)NCCCOCC2CC2

> <PUBCHEM_OPENEYE_ISO_SMILES>
CC1=CC(=NO1)NC(=O)C(=O)NCCCOCC2CC2

> <PUBCHEM_CACTVS_TPSA>
93.5

> <PUBCHEM_MONOISOTOPIC_WEIGHT>
281.137556

> <PUBCHEM_TOTAL_CHARGE>
0

> <PUBCHEM_HEAVY_ATOM_COUNT>
20

> <PUBCHEM_ATOM_DEF_STEREO_COUNT>
0

> <PUBCHEM_ATOM_UDEF_STEREO_COUNT>
0

> <PUBCHEM_BOND_DEF_STEREO_COUNT>
0

> <PUBCHEM_BOND_UDEF_STEREO_COUNT>
0

> <PUBCHEM_ISOTOPIC_ATOM_COUNT>
0

> <PUBCHEM_COMPONENT_COUNT>
1

> <PUBCHEM_CACTVS_TAUTO_COUNT>
16

> <PUBCHEM_COORDINATE_TYPE>
1
5
255

> <PUBCHEM_BONDANNOTATIONS>
17  18  8
18  19  8
3  19  8
3  7  8
7  17  8

$$$$

