   Color/Form
        Colorless, transparent liquid (turns brown on exposure to light)
   from [1]HSDB

   Odor
        Pungent, ether-like odor.
   from [2]HSDB

   Boiling Point
        42.5 deg C
   from [3]HSDB

   Melting Point
        -66.5 deg C
   from [4]HSDB

   Critical Temperature and Pressure
        Critical temperature: 254.8 deg C; Critical pressure: 72.7 atm
   from [5]HSDB

   Density/Specific Gravity
        2.28 @ 20 deg C/4 deg C
   from [6]HSDB

   Heat of Combustion
        194.7 kg cal/g mole
   from [7]HSDB

   Heat of Vaporization
        27.97 kJ/mol @ 25 deg C
   from [8]HSDB

   Octanol/Water Partition Coefficient
        log Kow= 1.51
   from [9]HSDB

   Solubilities

     * Miscible with alcohol, ether.
     * Sol in acetone
     * SOL IN CARBON TETRACHLORIDE
     * 1.39X10+4 mg/l at 20 deg C in water

   from [10]HSDB

   Spectral Properties

     * Index of refraction: 1.5293 @ 21 deg C/D
     * Index of refraction: 1.5380 @ 20 deg C.
     * SADTLER REFERENCE NUMBER: 59 (IR, PRISM)
     * IR: 1310 (Coblentz Society Spectral Collection)
     * NMR: 7872 (Sadtler Research Laboratories Spectral Collection)
     * MASS: 755 (Atlas of Mass Spectral Data, John Wiley & Sons, New
       York)

   from [11]HSDB

   Surface Tension
        25.8 dynes/cm at 43.5 deg C in contact with air
   from [12]HSDB

   Vapor Density
        4.9 (AIR= 1)
   from [13]HSDB

   Vapor Pressure
        4.05X10+2 mm Hg @ 25 deg C
   from [14]HSDB

   Viscosity
        0.606 cP at 0 deg C, 0.424 cP at 40 deg C.
   from [15]HSDB

   Other Chemical/Physical Properties

     * % IN SATURATED AIR: 53 @ 25 DEG C; CONVERSION FACTORS: 1 MG/L IS
       EQUIVALENT (EQUIV) TO 172 PPM & 1 PPM IS EQUIV TO 5.8 MG/CU M @ 25
       DEG C, 760 TORR
     * Decomp @ 270 deg C
     * DENSITY OF SATURATED AIR: 3.04 (AIR= 1)
     * Henry's constant of 0.00526 atm-cu m/mole at 25 deg C
     * Hydroxyl radical rate constant = 7.20X10-14 cu cm/molecule-sec at
       25 deg C

   from [16]HSDB

   Computed Properties
   Molecular Weight                  141.93899 [g/mol]
   Molecular Formula                 CH[3]I
   XLogP3-AA                         1.5
   H-Bond Donor                      0
   H-Bond Acceptor                   0
   Rotatable Bond Count              0
   Exact Mass                        141.927948
   MonoIsotopic Mass                 141.927948
   Topological Polar Surface Area    0
   Heavy Atom Count                  2
   Formal Charge                     0
   Complexity                        2
   Isotope Atom Count                0
   Defined Atom Stereocenter Count   0
   Undefined Atom Stereocenter Count 0
   Defined Bond Stereocenter Count   0
   Undefined Bond Stereocenter Count 0
   Covalently-Bonded Unit Count      1
   Feature 3D Hydrophobe Count       1
   Effective Rotor Count             0
   Conformer Sampling RMSD           0.4
   CID Conformer Count               [17]1

References

   1. http://toxnet.nlm.nih.gov/cgi-bin/sis/search/r?dbs+hsdb:@term+@rn+@rel+74-88-4
   2. http://toxnet.nlm.nih.gov/cgi-bin/sis/search/r?dbs+hsdb:@term+@rn+@rel+74-88-4
   3. http://toxnet.nlm.nih.gov/cgi-bin/sis/search/r?dbs+hsdb:@term+@rn+@rel+74-88-4
   4. http://toxnet.nlm.nih.gov/cgi-bin/sis/search/r?dbs+hsdb:@term+@rn+@rel+74-88-4
   5. http://toxnet.nlm.nih.gov/cgi-bin/sis/search/r?dbs+hsdb:@term+@rn+@rel+74-88-4
   6. http://toxnet.nlm.nih.gov/cgi-bin/sis/search/r?dbs+hsdb:@term+@rn+@rel+74-88-4
   7. http://toxnet.nlm.nih.gov/cgi-bin/sis/search/r?dbs+hsdb:@term+@rn+@rel+74-88-4
   8. http://toxnet.nlm.nih.gov/cgi-bin/sis/search/r?dbs+hsdb:@term+@rn+@rel+74-88-4
   9. http://toxnet.nlm.nih.gov/cgi-bin/sis/search/r?dbs+hsdb:@term+@rn+@rel+74-88-4
  10. http://toxnet.nlm.nih.gov/cgi-bin/sis/search/r?dbs+hsdb:@term+@rn+@rel+74-88-4
  11. http://toxnet.nlm.nih.gov/cgi-bin/sis/search/r?dbs+hsdb:@term+@rn+@rel+74-88-4
  12. http://toxnet.nlm.nih.gov/cgi-bin/sis/search/r?dbs+hsdb:@term+@rn+@rel+74-88-4
  13. http://toxnet.nlm.nih.gov/cgi-bin/sis/search/r?dbs+hsdb:@term+@rn+@rel+74-88-4
  14. http://toxnet.nlm.nih.gov/cgi-bin/sis/search/r?dbs+hsdb:@term+@rn+@rel+74-88-4
  15. http://toxnet.nlm.nih.gov/cgi-bin/sis/search/r?dbs+hsdb:@term+@rn+@rel+74-88-4
  16. http://toxnet.nlm.nih.gov/cgi-bin/sis/search/r?dbs+hsdb:@term+@rn+@rel+74-88-4
  17. http://pubchem.ncbi.nlm.nih.gov/vw3d/vw3d.cgi?cid=6328
