7847010
  -OEChem-06241222482D

 52 54  0     0  0  0  0  0  0999 V2000
    4.6783    3.7688    0.0000 S   0  0  0  0  0  0  0  0  0  0  0  0
    8.2619    1.2320    0.0000 O   0  0  0  0  0  0  0  0  0  0  0  0
    9.2619   -0.5000    0.0000 O   0  0  0  0  0  0  0  0  0  0  0  0
    8.2619    2.9641    0.0000 O   0  0  0  0  0  0  0  0  0  0  0  0
   10.7619    0.3660    0.0000 N   0  0  0  0  0  0  0  0  0  0  0  0
    4.6783    2.1594    0.0000 N   0  0  0  0  0  0  0  0  0  0  0  0
   12.7619   -3.0981    0.0000 C   0  0  0  0  0  0  0  0  0  0  0  0
   12.2619   -2.2320    0.0000 C   0  0  0  0  0  0  0  0  0  0  0  0
   13.2619   -3.9641    0.0000 C   0  0  0  0  0  0  0  0  0  0  0  0
   13.6279   -2.5981    0.0000 C   0  0  0  0  0  0  0  0  0  0  0  0
   11.8959   -3.5981    0.0000 C   0  0  0  0  0  0  0  0  0  0  0  0
   12.7619   -1.3660    0.0000 C   0  0  0  0  0  0  0  0  0  0  0  0
   11.2619   -2.2320    0.0000 C   0  0  0  0  0  0  0  0  0  0  0  0
   12.2619   -0.5000    0.0000 C   0  0  0  0  0  0  0  0  0  0  0  0
   10.7619   -1.3660    0.0000 C   0  0  0  0  0  0  0  0  0  0  0  0
   11.2619   -0.5000    0.0000 C   0  0  0  0  0  0  0  0  0  0  0  0
    6.2619    2.9641    0.0000 C   0  0  0  0  0  0  0  0  0  0  0  0
    6.7619    2.0981    0.0000 C   0  0  0  0  0  0  0  0  0  0  0  0
    5.2619    2.9641    0.0000 C   0  0  0  0  0  0  0  0  0  0  0  0
    9.7619    0.3660    0.0000 C   0  0  0  0  0  0  0  0  0  0  0  0
    3.7320    3.4641    0.0000 C   0  0  0  0  0  0  0  0  0  0  0  0
    3.7320    2.4641    0.0000 C   0  0  0  0  0  0  0  0  0  0  0  0
    9.2619    1.2320    0.0000 C   0  0  0  0  0  0  0  0  0  0  0  0
    7.7619    2.0981    0.0000 C   0  0  0  0  0  0  0  0  0  0  0  0
    2.8660    3.9641    0.0000 C   0  0  0  0  0  0  0  0  0  0  0  0
    2.8660    1.9641    0.0000 C   0  0  0  0  0  0  0  0  0  0  0  0
    2.0000    3.4641    0.0000 C   0  0  0  0  0  0  0  0  0  0  0  0
    2.0000    2.4641    0.0000 C   0  0  0  0  0  0  0  0  0  0  0  0
   12.7249   -4.2741    0.0000 H   0  0  0  0  0  0  0  0  0  0  0  0
   11.5859   -3.0611    0.0000 H   0  0  0  0  0  0  0  0  0  0  0  0
   11.3589   -3.9081    0.0000 H   0  0  0  0  0  0  0  0  0  0  0  0
   12.2059   -4.1350    0.0000 H   0  0  0  0  0  0  0  0  0  0  0  0
   13.9379   -3.1350    0.0000 H   0  0  0  0  0  0  0  0  0  0  0  0
   14.1648   -2.2881    0.0000 H   0  0  0  0  0  0  0  0  0  0  0  0
   13.3179   -2.0611    0.0000 H   0  0  0  0  0  0  0  0  0  0  0  0
   13.5719   -4.5010    0.0000 H   0  0  0  0  0  0  0  0  0  0  0  0
   13.7988   -3.6541    0.0000 H   0  0  0  0  0  0  0  0  0  0  0  0
   13.3819   -1.3660    0.0000 H   0  0  0  0  0  0  0  0  0  0  0  0
   10.9519   -2.7690    0.0000 H   0  0  0  0  0  0  0  0  0  0  0  0
   12.5719    0.0369    0.0000 H   0  0  0  0  0  0  0  0  0  0  0  0
   10.1419   -1.3660    0.0000 H   0  0  0  0  0  0  0  0  0  0  0  0
   11.0719    0.9030    0.0000 H   0  0  0  0  0  0  0  0  0  0  0  0
    6.8445    3.1761    0.0000 H   0  0  0  0  0  0  0  0  0  0  0  0
    6.1542    3.5747    0.0000 H   0  0  0  0  0  0  0  0  0  0  0  0
    6.1793    1.8860    0.0000 H   0  0  0  0  0  0  0  0  0  0  0  0
    6.8695    1.4875    0.0000 H   0  0  0  0  0  0  0  0  0  0  0  0
    9.8445    1.4441    0.0000 H   0  0  0  0  0  0  0  0  0  0  0  0
    9.1542    1.8426    0.0000 H   0  0  0  0  0  0  0  0  0  0  0  0
    2.8660    4.5841    0.0000 H   0  0  0  0  0  0  0  0  0  0  0  0
    2.8660    1.3441    0.0000 H   0  0  0  0  0  0  0  0  0  0  0  0
    1.4631    3.7741    0.0000 H   0  0  0  0  0  0  0  0  0  0  0  0
    1.4631    2.1541    0.0000 H   0  0  0  0  0  0  0  0  0  0  0  0
  1 19  1  0  0  0  0
  1 21  1  0  0  0  0
  2 23  1  0  0  0  0
  2 24  1  0  0  0  0
  3 20  2  0  0  0  0
  4 24  2  0  0  0  0
  5 16  1  0  0  0  0
  5 20  1  0  0  0  0
  5 42  1  0  0  0  0
  6 19  2  0  0  0  0
  6 22  1  0  0  0  0
  7  8  1  0  0  0  0
  7  9  1  0  0  0  0
  7 10  1  0  0  0  0
  7 11  1  0  0  0  0
  8 12  2  0  0  0  0
  8 13  1  0  0  0  0
  9 29  1  0  0  0  0
  9 36  1  0  0  0  0
  9 37  1  0  0  0  0
 10 33  1  0  0  0  0
 10 34  1  0  0  0  0
 10 35  1  0  0  0  0
 11 30  1  0  0  0  0
 11 31  1  0  0  0  0
 11 32  1  0  0  0  0
 12 14  1  0  0  0  0
 12 38  1  0  0  0  0
 13 15  2  0  0  0  0
 13 39  1  0  0  0  0
 14 16  2  0  0  0  0
 14 40  1  0  0  0  0
 15 16  1  0  0  0  0
 15 41  1  0  0  0  0
 17 18  1  0  0  0  0
 17 19  1  0  0  0  0
 17 43  1  0  0  0  0
 17 44  1  0  0  0  0
 18 24  1  0  0  0  0
 18 45  1  0  0  0  0
 18 46  1  0  0  0  0
 20 23  1  0  0  0  0
 21 22  1  0  0  0  0
 21 25  2  0  0  0  0
 22 26  2  0  0  0  0
 23 47  1  0  0  0  0
 23 48  1  0  0  0  0
 25 27  1  0  0  0  0
 25 49  1  0  0  0  0
 26 28  1  0  0  0  0
 26 50  1  0  0  0  0
 27 28  2  0  0  0  0
 27 51  1  0  0  0  0
 28 52  1  0  0  0  0
M  END
> <PUBCHEM_COMPOUND_CID>
7847010

> <PUBCHEM_COMPOUND_CANONICALIZED>
1

> <PUBCHEM_CACTVS_COMPLEXITY>
540

> <PUBCHEM_CACTVS_HBOND_ACCEPTOR>
5

> <PUBCHEM_CACTVS_HBOND_DONOR>
1

> <PUBCHEM_CACTVS_ROTATABLE_BOND>
8

> <PUBCHEM_CACTVS_SUBSKEYS>
AAADceB7MABAAAAAAAAAAAAAAAAAAWAAAAAwYAAAAAAAAFgB9AAAHgQQAAAADgih3gIyybLIFAisAyXyXAKD8KBhCjhImD1wZJgKILLgkZWHIAhklAD4yAc0gMAPiAAAAAAAAQAQAAAAAAACAAAAAAAAAA==

> <PUBCHEM_IUPAC_OPENEYE_NAME>
[2-(4-tert-butylanilino)-2-oxo-ethyl] 3-(1,3-benzothiazol-2-yl)propanoate

> <PUBCHEM_IUPAC_CAS_NAME>
3-(1,3-benzothiazol-2-yl)propanoic acid [2-(4-tert-butylanilino)-2-oxoethyl] ester

> <PUBCHEM_IUPAC_NAME>
[2-(4-tert-butylanilino)-2-oxoethyl] 3-(1,3-benzothiazol-2-yl)propanoate

> <PUBCHEM_IUPAC_SYSTEMATIC_NAME>
[2-[(4-tert-butylphenyl)amino]-2-oxidanylidene-ethyl] 3-(1,3-benzothiazol-2-yl)propanoate

> <PUBCHEM_IUPAC_TRADITIONAL_NAME>
3-(1,3-benzothiazol-2-yl)propionic acid [2-(4-tert-butylanilino)-2-keto-ethyl] ester

> <PUBCHEM_IUPAC_INCHI>
InChI=1S/C22H24N2O3S/c1-22(2,3)15-8-10-16(11-9-15)23-19(25)14-27-21(26)13-12-20-24-17-6-4-5-7-18(17)28-20/h4-11H,12-14H2,1-3H3,(H,23,25)

> <PUBCHEM_IUPAC_INCHIKEY>
YMAPNTVMLDYBOQ-UHFFFAOYSA-N

> <PUBCHEM_XLOGP3_AA>
5.1

> <PUBCHEM_EXACT_MASS>
396.150764

> <PUBCHEM_MOLECULAR_FORMULA>
C22H24N2O3S

> <PUBCHEM_MOLECULAR_WEIGHT>
396.50256

> <PUBCHEM_OPENEYE_CAN_SMILES>
CC(C)(C)C1=CC=C(C=C1)NC(=O)COC(=O)CCC2=NC3=CC=CC=C3S2

> <PUBCHEM_OPENEYE_ISO_SMILES>
CC(C)(C)C1=CC=C(C=C1)NC(=O)COC(=O)CCC2=NC3=CC=CC=C3S2

> <PUBCHEM_CACTVS_TPSA>
96.5

> <PUBCHEM_MONOISOTOPIC_WEIGHT>
396.150764

> <PUBCHEM_TOTAL_CHARGE>
0

> <PUBCHEM_HEAVY_ATOM_COUNT>
28

> <PUBCHEM_ATOM_DEF_STEREO_COUNT>
0

> <PUBCHEM_ATOM_UDEF_STEREO_COUNT>
0

> <PUBCHEM_BOND_DEF_STEREO_COUNT>
0

> <PUBCHEM_BOND_UDEF_STEREO_COUNT>
0

> <PUBCHEM_ISOTOPIC_ATOM_COUNT>
0

> <PUBCHEM_COMPONENT_COUNT>
1

> <PUBCHEM_CACTVS_TAUTO_COUNT>
6

> <PUBCHEM_COORDINATE_TYPE>
1
5
255

> <PUBCHEM_BONDANNOTATIONS>
1  19  8
1  21  8
12  14  8
13  15  8
14  16  8
15  16  8
21  22  8
21  25  8
22  26  8
25  27  8
26  28  8
27  28  8
6  19  8
6  22  8
8  12  8
8  13  8

$$$$

