443154
  -OEChem-07051213012D

 69 74  0     1  0  0  0  0  0999 V2000
    4.1085   -4.1909    0.0000 O   0  0  0  0  0  0  0  0  0  0  0  0
    3.9356   -2.4675    0.0000 O   0  0  0  0  0  0  0  0  0  0  0  0
    6.0898    6.7261    0.0000 O   0  0  0  0  0  0  0  0  0  0  0  0
    7.9838    5.1521    0.0000 O   0  0  0  0  0  0  0  0  0  0  0  0
    7.0935   -3.8914    0.0000 O   0  0  0  0  0  0  0  0  0  0  0  0
    5.9256   -2.2679    0.0000 O   0  0  0  0  0  0  0  0  0  0  0  0
    6.2714   -5.7147    0.0000 O   0  0  0  0  0  0  0  0  0  0  0  0
    3.4758    5.1569    0.0000 O   0  0  0  0  0  0  0  0  0  0  0  0
    7.8599    6.7020    0.0000 O   0  0  0  0  0  0  0  0  0  0  0  0
    3.2864   -6.0142    0.0000 O   0  0  0  0  0  0  0  0  0  0  0  0
    4.8654   -6.7261    0.0000 O   0  0  0  0  0  0  0  0  0  0  0  0
    4.3418    3.6568    0.0000 N   0  0  0  0  0  0  0  0  0  0  0  0
    5.6194    1.3563    0.0000 N   0  0  0  0  0  0  0  0  0  0  0  0
    5.2079    3.1568    0.0000 C   0  0  0  0  0  0  0  0  0  0  0  0
    4.0099    2.0820    0.0000 C   0  0  0  0  0  0  0  0  0  0  0  0
    3.6048    2.9898    0.0000 C   0  0  0  0  0  0  0  0  0  0  0  0
    6.0739    4.6569    0.0000 C   0  0  0  0  0  0  0  0  0  0  0  0
    6.9839    5.1637    0.0000 C   0  0  2  0  0  0  0  0  0  0  0  0
    4.9987    2.1850    0.0000 C   0  0  0  0  0  0  0  0  0  0  0  0
    6.0985   -3.9913    0.0000 C   0  0  2  0  0  0  0  0  0  0  0  0
    5.5146   -3.1795    0.0000 C   0  0  2  0  0  0  0  0  0  0  0  0
    5.2079    5.1569    0.0000 C   0  0  0  0  0  0  0  0  0  0  0  0
    5.6875   -4.9029    0.0000 C   0  0  1  0  0  0  0  0  0  0  0  0
    3.5734    1.1430    0.0000 C   0  0  0  0  0  0  0  0  0  0  0  0
    6.0739    3.6568    0.0000 C   0  0  0  0  0  0  0  0  0  0  0  0
    4.5196   -3.2793    0.0000 C   0  0  1  0  0  0  0  0  0  0  0  0
    4.3418    4.6569    0.0000 C   0  0  0  0  0  0  0  0  0  0  0  0
    4.6925   -5.0027    0.0000 C   0  0  1  0  0  0  0  0  0  0  0  0
    4.1748    0.3001    0.0000 C   0  0  0  0  0  0  0  0  0  0  0  0
    7.4738    4.2919    0.0000 C   0  0  0  0  0  0  0  0  0  0  0  0
    5.1918    6.1983    0.0000 C   0  0  0  0  0  0  0  0  0  0  0  0
    5.2047    0.4075    0.0000 C   0  0  0  0  0  0  0  0  0  0  0  0
    2.5777    1.0509    0.0000 C   0  0  0  0  0  0  0  0  0  0  0  0
    6.9919    6.2053    0.0000 C   0  0  0  0  0  0  0  0  0  0  0  0
    3.7202   -0.6779    0.0000 C   0  0  0  0  0  0  0  0  0  0  0  0
    4.3466   -1.5559    0.0000 C   0  0  0  0  0  0  0  0  0  0  0  0
    5.8513   -0.4558    0.0000 C   0  0  0  0  0  0  0  0  0  0  0  0
    6.9639    3.4318    0.0000 C   0  0  0  0  0  0  0  0  0  0  0  0
    4.2814   -5.9143    0.0000 C   0  0  0  0  0  0  0  0  0  0  0  0
    5.4194   -1.4441    0.0000 C   0  0  0  0  0  0  0  0  0  0  0  0
    2.0000    1.8671    0.0000 C   0  0  0  0  0  0  0  0  0  0  0  0
    3.2394    3.4906    0.0000 H   0  0  0  0  0  0  0  0  0  0  0  0
    3.0683    2.6790    0.0000 H   0  0  0  0  0  0  0  0  0  0  0  0
    6.3534   -3.4261    0.0000 H   0  0  0  0  0  0  0  0  0  0  0  0
    5.1525   -2.6762    0.0000 H   0  0  0  0  0  0  0  0  0  0  0  0
    6.3044   -4.8410    0.0000 H   0  0  0  0  0  0  0  0  0  0  0  0
    6.6108    3.3468    0.0000 H   0  0  0  0  0  0  0  0  0  0  0  0
    3.9026   -3.3412    0.0000 H   0  0  0  0  0  0  0  0  0  0  0  0
    4.0756   -5.0646    0.0000 H   0  0  0  0  0  0  0  0  0  0  0  0
    7.9442    3.8880    0.0000 H   0  0  0  0  0  0  0  0  0  0  0  0
    7.9534    4.6850    0.0000 H   0  0  0  0  0  0  0  0  0  0  0  0
    4.9738    6.7788    0.0000 H   0  0  0  0  0  0  0  0  0  0  0  0
    4.5827    6.0829    0.0000 H   0  0  0  0  0  0  0  0  0  0  0  0
    2.0171    0.7860    0.0000 H   0  0  0  0  0  0  0  0  0  0  0  0
    2.7412    0.4528    0.0000 H   0  0  0  0  0  0  0  0  0  0  0  0
    3.1028   -0.7351    0.0000 H   0  0  0  0  0  0  0  0  0  0  0  0
    6.4672   -0.3844    0.0000 H   0  0  0  0  0  0  0  0  0  0  0  0
    6.4306    3.7480    0.0000 H   0  0  0  0  0  0  0  0  0  0  0  0
    6.6477    2.8984    0.0000 H   0  0  0  0  0  0  0  0  0  0  0  0
    7.4972    3.1156    0.0000 H   0  0  0  0  0  0  0  0  0  0  0  0
    8.2876    4.6116    0.0000 H   0  0  0  0  0  0  0  0  0  0  0  0
    5.7853   -1.9446    0.0000 H   0  0  0  0  0  0  0  0  0  0  0  0
    7.3484   -3.3262    0.0000 H   0  0  0  0  0  0  0  0  0  0  0  0
    6.5425   -2.2060    0.0000 H   0  0  0  0  0  0  0  0  0  0  0  0
    6.8883   -5.6528    0.0000 H   0  0  0  0  0  0  0  0  0  0  0  0
    2.5061    2.2253    0.0000 H   0  0  0  0  0  0  0  0  0  0  0  0
    1.6418    2.3732    0.0000 H   0  0  0  0  0  0  0  0  0  0  0  0
    1.4939    1.5090    0.0000 H   0  0  0  0  0  0  0  0  0  0  0  0
    3.0316   -6.5794    0.0000 H   0  0  0  0  0  0  0  0  0  0  0  0
  1 26  1  0  0  0  0
  1 28  1  0  0  0  0
 26  2  1  1  0  0  0
  2 36  1  0  0  0  0
  3 31  1  0  0  0  0
  3 34  1  0  0  0  0
 18  4  1  1  0  0  0
  4 61  1  0  0  0  0
 20  5  1  1  0  0  0
  5 63  1  0  0  0  0
 21  6  1  6  0  0  0
  6 64  1  0  0  0  0
 23  7  1  6  0  0  0
  7 65  1  0  0  0  0
  8 27  2  0  0  0  0
  9 34  2  0  0  0  0
 10 39  1  0  0  0  0
 10 69  1  0  0  0  0
 11 39  2  0  0  0  0
 12 14  1  0  0  0  0
 12 16  1  0  0  0  0
 12 27  1  0  0  0  0
 13 19  1  0  0  0  0
 13 32  2  0  0  0  0
 14 19  1  0  0  0  0
 14 25  2  0  0  0  0
 15 16  1  0  0  0  0
 15 19  2  0  0  0  0
 15 24  1  0  0  0  0
 16 42  1  0  0  0  0
 16 43  1  0  0  0  0
 17 18  1  0  0  0  0
 17 22  2  0  0  0  0
 17 25  1  0  0  0  0
 18 30  1  0  0  0  0
 18 34  1  0  0  0  0
 20 21  1  0  0  0  0
 20 23  1  0  0  0  0
 20 44  1  0  0  0  0
 21 26  1  0  0  0  0
 21 45  1  0  0  0  0
 22 27  1  0  0  0  0
 22 31  1  0  0  0  0
 23 28  1  0  0  0  0
 23 46  1  0  0  0  0
 24 29  2  0  0  0  0
 24 33  1  0  0  0  0
 25 47  1  0  0  0  0
 26 48  1  0  0  0  0
 28 39  1  1  0  0  0
 28 49  1  0  0  0  0
 29 32  1  0  0  0  0
 29 35  1  0  0  0  0
 30 38  1  0  0  0  0
 30 50  1  0  0  0  0
 30 51  1  0  0  0  0
 31 52  1  0  0  0  0
 31 53  1  0  0  0  0
 32 37  1  0  0  0  0
 33 41  1  0  0  0  0
 33 54  1  0  0  0  0
 33 55  1  0  0  0  0
 35 36  2  0  0  0  0
 35 56  1  0  0  0  0
 36 40  1  0  0  0  0
 37 40  2  0  0  0  0
 37 57  1  0  0  0  0
 38 58  1  0  0  0  0
 38 59  1  0  0  0  0
 38 60  1  0  0  0  0
 40 62  1  0  0  0  0
 41 66  1  0  0  0  0
 41 67  1  0  0  0  0
 41 68  1  0  0  0  0
M  END
> <PUBCHEM_COMPOUND_CID>
443154

> <PUBCHEM_COMPOUND_CANONICALIZED>
1

> <PUBCHEM_CACTVS_COMPLEXITY>
1190

> <PUBCHEM_CACTVS_HBOND_ACCEPTOR>
12

> <PUBCHEM_CACTVS_HBOND_DONOR>
5

> <PUBCHEM_CACTVS_ROTATABLE_BOND>
5

> <PUBCHEM_CACTVS_SUBSKEYS>
AAADceB7PAAAAAAAAAAAAAAAAAAAAWAAAAA8SIECAAAAAFix8AAAHgAACAAADFzxngcyzvMIFgCoAyXyXAKCiCAhIiAImCF+bNgddvbE8Z+2eCjn5hHP+Qf67PxOgEABAAACAAAAgAIAAAQAAAAAAAAAAA==

> <PUBCHEM_IUPAC_INCHI>
InChI=1S/C28H28N2O11/c1-3-12-13-7-11(40-26-22(33)20(31)21(32)23(41-26)25(35)36)5-6-17(13)29-19-14(12)9-30-18(19)8-16-15(24(30)34)10-39-27(37)28(16,38)4-2/h5-8,20-23,26,31-33,38H,3-4,9-10H2,1-2H3,(H,35,36)/t20-,21-,22+,23-,26+,28-/m0/s1

> <PUBCHEM_IUPAC_INCHIKEY>
SSJQVDUAKDRWTA-CAYKMONMSA-N

> <PUBCHEM_XLOGP3_AA>
-0.1

> <PUBCHEM_EXACT_MASS>
568.16931

> <PUBCHEM_MOLECULAR_FORMULA>
C28H28N2O11

> <PUBCHEM_MOLECULAR_WEIGHT>
568.52872

> <PUBCHEM_OPENEYE_CAN_SMILES>
CCC1=C2C=C(C=CC2=NC3=C1CN4C3=CC5=C(C4=O)COC(=O)C5(CC)O)OC6C(C(C(C(O6)C(=O)O)O)O)O

> <PUBCHEM_OPENEYE_ISO_SMILES>
CCC1=C2C=C(C=CC2=NC3=C1CN4C3=CC5=C(C4=O)COC(=O)[C@@]5(CC)O)O[C@H]6[C@@H]([C@H]([C@@H]([C@H](O6)C(=O)O)O)O)O

> <PUBCHEM_CACTVS_TPSA>
196

> <PUBCHEM_MONOISOTOPIC_WEIGHT>
568.16931

> <PUBCHEM_TOTAL_CHARGE>
0

> <PUBCHEM_HEAVY_ATOM_COUNT>
41

> <PUBCHEM_ATOM_DEF_STEREO_COUNT>
6

> <PUBCHEM_ATOM_UDEF_STEREO_COUNT>
0

> <PUBCHEM_BOND_DEF_STEREO_COUNT>
0

> <PUBCHEM_BOND_UDEF_STEREO_COUNT>
0

> <PUBCHEM_ISOTOPIC_ATOM_COUNT>
0

> <PUBCHEM_COMPONENT_COUNT>
1

> <PUBCHEM_CACTVS_TAUTO_COUNT>
1

> <PUBCHEM_COORDINATE_TYPE>
1
5
255

> <PUBCHEM_BONDANNOTATIONS>
12  14  8
12  27  8
13  19  8
13  32  8
14  25  8
15  19  8
15  24  8
17  22  8
17  25  8
26  2  5
22  27  8
24  29  8
28  39  5
29  32  8
29  35  8
32  37  8
35  36  8
36  40  8
37  40  8
18  4  5
20  5  5
21  6  6
23  7  6

$$$$

