   Chemical and Physical Properties References

   [1]USDA ARS - USDA chemical properties
   from [2]ChemIDplus

   Color/Form

     * Crystals from hot chloroform + alcohol
     * White when pure
     * Colorless powder
     * Crystalline white solid

   from [3]HSDB

   Odor
        Odorless when pure
   from [4]HSDB

   Melting Point
        246 deg C
   from [5]HSDB

   Corrosivity
        NONCORROSIVE EXCEPT TO IRON & COPPER
   from [6]HSDB

   Density/Specific Gravity
        1.66 @ 25 deg C referred to water at 4 deg C
   from [7]HSDB

   Octanol/Water Partition Coefficient
        log Kow = 1.23 @ 20 deg C
   from [8]HSDB

   Solubilities

     * Soluble in carbon disulfide, chloroform, dilute alkalies, and
       concentrated HCl.
     * In alcohol: less than 0.2 g/100 ml @ 25 deg C; in acetone: less
       than 0.5 g/100 ml @ 25 deg C; in benzene: less than 0.5 g/100 ml @
       25 deg C; in carbon tetrachloride: less than 0.2 g/100 ml @ 25 deg
       C; in ether: less than 0.2 g/100 ml @ 25 deg C; in naphtha: 0.5
       g/100 ml @ 25 deg C. sol in diluted caustic soln.
     * Soluble in alkali.
     * In water, 65 mg/l @ 25 deg C

   from [9]HSDB

   Spectral Properties
        Intense mass spectral peaks: 88 m/z (100%), 44 m/z (28%), 58 m/z
   (25%), 43 m/z (22%)
   from [10]HSDB

   Vapor Pressure
        7.5X10-9 mm Hg @ 0 deg C
   from [11]HSDB

   Other Chemical/Physical Properties

     * MP: 250 deg C (crystals); 148 deg C (dust).
     * THRESHOLD CONCN OF TASTE FOR ZINC SALTS /IN WATER/ APPROX 15 PPM
       ... 40 PPM ... /IMPARTS/ A METALLIC TASTE. /ZINC SALTS/
     * Ionization Potential: 7.72 electron volts
     * MP: 240-244 deg C /Technical/

   from [12]HSDB

   Computed Properties
   Molecular Weight                  305.81288 [g/mol]
   Molecular Formula                 C[6]H[12]N[2]S[4]Zn
   H-Bond Donor                      0
   H-Bond Acceptor                   4
   Rotatable Bond Count              0
   Exact Mass                        303.917475
   MonoIsotopic Mass                 303.917475
   Topological Polar Surface Area    72.7
   Heavy Atom Count                  13
   Formal Charge                     0
   Complexity                        54.3
   Isotope Atom Count                0
   Defined Atom Stereocenter Count   0
   Undefined Atom Stereocenter Count 0
   Defined Bond Stereocenter Count   0
   Undefined Bond Stereocenter Count 0
   Covalently-Bonded Unit Count      3

References

   1. http://www.ars.usda.gov/SP2UserFiles/ad_hoc/12755100DatabaseFiles/PesticidePropertiesDatabase/IndividualPesticideFiles/ZIRAM.TXT
   2. http://chem.sis.nlm.nih.gov/chemidplus/
   3. http://toxnet.nlm.nih.gov/cgi-bin/sis/search/r?dbs+hsdb:@term+@rn+@rel+137-30-4
   4. http://toxnet.nlm.nih.gov/cgi-bin/sis/search/r?dbs+hsdb:@term+@rn+@rel+137-30-4
   5. http://toxnet.nlm.nih.gov/cgi-bin/sis/search/r?dbs+hsdb:@term+@rn+@rel+137-30-4
   6. http://toxnet.nlm.nih.gov/cgi-bin/sis/search/r?dbs+hsdb:@term+@rn+@rel+137-30-4
   7. http://toxnet.nlm.nih.gov/cgi-bin/sis/search/r?dbs+hsdb:@term+@rn+@rel+137-30-4
   8. http://toxnet.nlm.nih.gov/cgi-bin/sis/search/r?dbs+hsdb:@term+@rn+@rel+137-30-4
   9. http://toxnet.nlm.nih.gov/cgi-bin/sis/search/r?dbs+hsdb:@term+@rn+@rel+137-30-4
  10. http://toxnet.nlm.nih.gov/cgi-bin/sis/search/r?dbs+hsdb:@term+@rn+@rel+137-30-4
  11. http://toxnet.nlm.nih.gov/cgi-bin/sis/search/r?dbs+hsdb:@term+@rn+@rel+137-30-4
  12. http://toxnet.nlm.nih.gov/cgi-bin/sis/search/r?dbs+hsdb:@term+@rn+@rel+137-30-4
