11224
  -OEChem-07051213142D

 56 56  0     1  0  0  0  0  0999 V2000
    2.6200    3.6200    0.0000 O   0  0  0  0  0  0  0  0  0  0  0  0
    5.2851   10.2400    0.0000 O   0  0  0  0  0  0  0  0  0  0  0  0
    0.9549   10.7400    0.0000 O   0  0  0  0  0  0  0  0  0  0  0  0
    4.4190   11.7400    0.0000 O   0  0  0  0  0  0  0  0  0  0  0  0
    1.8210    9.2400    0.0000 O   0  0  0  0  0  0  0  0  0  0  0  0
    4.6200    1.8880    0.0000 N   0  0  0  0  0  0  0  0  0  0  0  0
    2.4860    2.1200    0.0000 N   0  0  0  0  0  0  0  0  0  0  0  0
    1.6200    3.6200    0.0000 C   0  0  3  0  0  0  0  0  0  0  0  0
    1.6200    4.6200    0.0000 C   0  0  0  0  0  0  0  0  0  0  0  0
    1.6200    2.6200    0.0000 C   0  0  0  0  0  0  0  0  0  0  0  0
    0.6200    3.6200    0.0000 C   0  0  0  0  0  0  0  0  0  0  0  0
    3.1200    2.7540    0.0000 C   0  0  0  0  0  0  0  0  0  0  0  0
    4.1200    2.7540    0.0000 C   0  0  0  0  0  0  0  0  0  0  0  0
    0.7540    5.1200    0.0000 C   0  0  0  0  0  0  0  0  0  0  0  0
    2.4860    5.1200    0.0000 C   0  0  0  0  0  0  0  0  0  0  0  0
    0.7540    2.1200    0.0000 C   0  0  0  0  0  0  0  0  0  0  0  0
    0.7540    6.1200    0.0000 C   0  0  0  0  0  0  0  0  0  0  0  0
    2.4860    6.1200    0.0000 C   0  0  0  0  0  0  0  0  0  0  0  0
    1.6200    6.6200    0.0000 C   0  0  0  0  0  0  0  0  0  0  0  0
    0.7540    1.1200    0.0000 C   0  0  0  0  0  0  0  0  0  0  0  0
    5.6200    1.8880    0.0000 C   0  0  0  0  0  0  0  0  0  0  0  0
    4.1200    1.0219    0.0000 C   0  0  0  0  0  0  0  0  0  0  0  0
    2.4860    1.1200    0.0000 C   0  0  0  0  0  0  0  0  0  0  0  0
    1.6200    0.6200    0.0000 C   0  0  0  0  0  0  0  0  0  0  0  0
    2.6870   10.7400    0.0000 C   0  0  0  0  0  0  0  0  0  0  0  0
    3.5530   10.2400    0.0000 C   0  0  0  0  0  0  0  0  0  0  0  0
    1.8210   10.2400    0.0000 C   0  0  0  0  0  0  0  0  0  0  0  0
    4.4190   10.7400    0.0000 C   0  0  0  0  0  0  0  0  0  0  0  0
    0.6200    4.2400    0.0000 H   0  0  0  0  0  0  0  0  0  0  0  0
    0.0000    3.6200    0.0000 H   0  0  0  0  0  0  0  0  0  0  0  0
    0.6200    3.0000    0.0000 H   0  0  0  0  0  0  0  0  0  0  0  0
    2.5374    2.5419    0.0000 H   0  0  0  0  0  0  0  0  0  0  0  0
    3.2277    2.1434    0.0000 H   0  0  0  0  0  0  0  0  0  0  0  0
    4.7026    2.9660    0.0000 H   0  0  0  0  0  0  0  0  0  0  0  0
    4.0123    3.3646    0.0000 H   0  0  0  0  0  0  0  0  0  0  0  0
    0.2170    4.8100    0.0000 H   0  0  0  0  0  0  0  0  0  0  0  0
    3.0230    4.8100    0.0000 H   0  0  0  0  0  0  0  0  0  0  0  0
    0.2170    2.4300    0.0000 H   0  0  0  0  0  0  0  0  0  0  0  0
    0.2170    6.4300    0.0000 H   0  0  0  0  0  0  0  0  0  0  0  0
    3.0230    6.4300    0.0000 H   0  0  0  0  0  0  0  0  0  0  0  0
    1.6200    7.2400    0.0000 H   0  0  0  0  0  0  0  0  0  0  0  0
    0.2170    0.8100    0.0000 H   0  0  0  0  0  0  0  0  0  0  0  0
    5.6200    1.2680    0.0000 H   0  0  0  0  0  0  0  0  0  0  0  0
    6.2400    1.8880    0.0000 H   0  0  0  0  0  0  0  0  0  0  0  0
    5.6200    2.5080    0.0000 H   0  0  0  0  0  0  0  0  0  0  0  0
    3.5831    1.3319    0.0000 H   0  0  0  0  0  0  0  0  0  0  0  0
    3.8100    0.4850    0.0000 H   0  0  0  0  0  0  0  0  0  0  0  0
    4.6569    0.7119    0.0000 H   0  0  0  0  0  0  0  0  0  0  0  0
    3.0230    0.8100    0.0000 H   0  0  0  0  0  0  0  0  0  0  0  0
    1.6200    0.0000    0.0000 H   0  0  0  0  0  0  0  0  0  0  0  0
    3.1545    9.7650    0.0000 H   0  0  0  0  0  0  0  0  0  0  0  0
    3.9515    9.7650    0.0000 H   0  0  0  0  0  0  0  0  0  0  0  0
    3.0855   11.2149    0.0000 H   0  0  0  0  0  0  0  0  0  0  0  0
    2.2885   11.2149    0.0000 H   0  0  0  0  0  0  0  0  0  0  0  0
    5.8220   10.5500    0.0000 H   0  0  0  0  0  0  0  0  0  0  0  0
    0.4180   10.4300    0.0000 H   0  0  0  0  0  0  0  0  0  0  0  0
  1  8  1  0  0  0  0
  1 12  1  0  0  0  0
  2 28  1  0  0  0  0
  2 55  1  0  0  0  0
  3 27  1  0  0  0  0
  3 56  1  0  0  0  0
  4 28  2  0  0  0  0
  5 27  2  0  0  0  0
  6 13  1  0  0  0  0
  6 21  1  0  0  0  0
  6 22  1  0  0  0  0
  7 10  1  0  0  0  0
  7 23  2  0  0  0  0
  8  9  1  0  0  0  0
  8 10  1  0  0  0  0
  8 11  1  0  0  0  0
  9 14  2  0  0  0  0
  9 15  1  0  0  0  0
 10 16  2  0  0  0  0
 11 29  1  0  0  0  0
 11 30  1  0  0  0  0
 11 31  1  0  0  0  0
 12 13  1  0  0  0  0
 12 32  1  0  0  0  0
 12 33  1  0  0  0  0
 13 34  1  0  0  0  0
 13 35  1  0  0  0  0
 14 17  1  0  0  0  0
 14 36  1  0  0  0  0
 15 18  2  0  0  0  0
 15 37  1  0  0  0  0
 16 20  1  0  0  0  0
 16 38  1  0  0  0  0
 17 19  2  0  0  0  0
 17 39  1  0  0  0  0
 18 19  1  0  0  0  0
 18 40  1  0  0  0  0
 19 41  1  0  0  0  0
 20 24  2  0  0  0  0
 20 42  1  0  0  0  0
 21 43  1  0  0  0  0
 21 44  1  0  0  0  0
 21 45  1  0  0  0  0
 22 46  1  0  0  0  0
 22 47  1  0  0  0  0
 22 48  1  0  0  0  0
 23 24  1  0  0  0  0
 23 49  1  0  0  0  0
 24 50  1  0  0  0  0
 25 26  1  0  0  0  0
 25 27  1  0  0  0  0
 25 53  1  0  0  0  0
 25 54  1  0  0  0  0
 26 28  1  0  0  0  0
 26 51  1  0  0  0  0
 26 52  1  0  0  0  0
M  END
> <PUBCHEM_COMPOUND_CID>
11224

> <PUBCHEM_COMPOUND_CANONICALIZED>
1

> <PUBCHEM_CACTVS_COMPLEXITY>
369

> <PUBCHEM_CACTVS_HBOND_ACCEPTOR>
7

> <PUBCHEM_CACTVS_HBOND_DONOR>
2

> <PUBCHEM_CACTVS_ROTATABLE_BOND>
9

> <PUBCHEM_CACTVS_SUBSKEYS>
AAADceB7OAAAAAAAAAAAAAAAAAAAAAAAAAA8QAAAAAAAAAABwAAAHgAACAAADEzhngY+iJMIFgCoAzT3TASCgCAxAiAI2CE4bJgKJvLAsZmHcAhkwAHY6AfTwOAOgAAAAAAAAAAAAAAAAAAAAAAAAAAAAA==

> <PUBCHEM_IUPAC_OPENEYE_NAME>
N,N-dimethyl-2-[1-phenyl-1-(2-pyridyl)ethoxy]ethanamine; succinic acid

> <PUBCHEM_IUPAC_CAS_NAME>
butanedioic acid; N,N-dimethyl-2-[1-phenyl-1-(2-pyridinyl)ethoxy]ethanamine

> <PUBCHEM_IUPAC_NAME>
butanedioic acid; N,N-dimethyl-2-(1-phenyl-1-pyridin-2-ylethoxy)ethanamine

> <PUBCHEM_IUPAC_SYSTEMATIC_NAME>
butanedioic acid; N,N-dimethyl-2-(1-phenyl-1-pyridin-2-yl-ethoxy)ethanamine

> <PUBCHEM_IUPAC_TRADITIONAL_NAME>
dimethyl-[2-[1-phenyl-1-(2-pyridyl)ethoxy]ethyl]amine; succinic acid

> <PUBCHEM_IUPAC_INCHI>
InChI=1S/C17H22N2O.C4H6O4/c1-17(20-14-13-19(2)3,15-9-5-4-6-10-15)16-11-7-8-12-18-16;5-3(6)1-2-4(7)8/h4-12H,13-14H2,1-3H3;1-2H2,(H,5,6)(H,7,8)

> <PUBCHEM_IUPAC_INCHIKEY>
KBAUFVUYFNWQFM-UHFFFAOYSA-N

> <PUBCHEM_EXACT_MASS>
388.199822

> <PUBCHEM_MOLECULAR_FORMULA>
C21H28N2O5

> <PUBCHEM_MOLECULAR_WEIGHT>
388.45742

> <PUBCHEM_OPENEYE_CAN_SMILES>
CC(C1=CC=CC=C1)(C2=CC=CC=N2)OCCN(C)C.C(CC(=O)O)C(=O)O

> <PUBCHEM_OPENEYE_ISO_SMILES>
CC(C1=CC=CC=C1)(C2=CC=CC=N2)OCCN(C)C.C(CC(=O)O)C(=O)O

> <PUBCHEM_CACTVS_TPSA>
100

> <PUBCHEM_MONOISOTOPIC_WEIGHT>
388.199822

> <PUBCHEM_TOTAL_CHARGE>
0

> <PUBCHEM_HEAVY_ATOM_COUNT>
28

> <PUBCHEM_ATOM_DEF_STEREO_COUNT>
0

> <PUBCHEM_ATOM_UDEF_STEREO_COUNT>
1

> <PUBCHEM_BOND_DEF_STEREO_COUNT>
0

> <PUBCHEM_BOND_UDEF_STEREO_COUNT>
0

> <PUBCHEM_ISOTOPIC_ATOM_COUNT>
0

> <PUBCHEM_COMPONENT_COUNT>
2

> <PUBCHEM_CACTVS_TAUTO_COUNT>
1

> <PUBCHEM_COORDINATE_TYPE>
1
5
255

> <PUBCHEM_BONDANNOTATIONS>
10  16  8
14  17  8
15  18  8
16  20  8
17  19  8
18  19  8
20  24  8
23  24  8
7  10  8
7  23  8
8  11  3
9  14  8
9  15  8

$$$$

