17396004
  -OEChem-06241222532D

 43 44  0     1  0  0  0  0  0999 V2000
    4.5981   -0.8080    0.0000 O   0  0  0  0  0  0  0  0  0  0  0  0
    6.3301    0.1920    0.0000 O   0  0  0  0  0  0  0  0  0  0  0  0
    2.8660   -0.8080    0.0000 O   0  0  0  0  0  0  0  0  0  0  0  0
    7.9128    2.5284    0.0000 O   0  0  0  0  0  0  0  0  0  0  0  0
    5.4641    1.6920    0.0000 N   0  0  0  0  0  0  0  0  0  0  0  0
    7.2437    1.7853    0.0000 N   0  0  0  0  0  0  0  0  0  0  0  0
    4.5981    0.1920    0.0000 C   0  0  3  0  0  0  0  0  0  0  0  0
    3.7320    0.6920    0.0000 C   0  0  0  0  0  0  0  0  0  0  0  0
    3.7320   -2.3080    0.0000 C   0  0  0  0  0  0  0  0  0  0  0  0
    2.8660   -2.8080    0.0000 C   0  0  0  0  0  0  0  0  0  0  0  0
    5.4641    0.6920    0.0000 C   0  0  0  0  0  0  0  0  0  0  0  0
    2.8660   -3.8080    0.0000 C   0  0  0  0  0  0  0  0  0  0  0  0
    3.7320    1.6920    0.0000 C   0  0  0  0  0  0  0  0  0  0  0  0
    3.7320   -1.3080    0.0000 C   0  0  0  0  0  0  0  0  0  0  0  0
    4.5981   -2.8080    0.0000 C   0  0  0  0  0  0  0  0  0  0  0  0
    3.7320   -4.3080    0.0000 C   0  0  0  0  0  0  0  0  0  0  0  0
    2.0000   -2.3080    0.0000 C   0  0  0  0  0  0  0  0  0  0  0  0
    4.5981   -3.8080    0.0000 C   0  0  0  0  0  0  0  0  0  0  0  0
    2.0000   -4.3080    0.0000 C   0  0  0  0  0  0  0  0  0  0  0  0
    6.3301    2.1920    0.0000 C   0  0  0  0  0  0  0  0  0  0  0  0
    6.4347    3.1865    0.0000 C   0  0  0  0  0  0  0  0  0  0  0  0
    7.4128    3.3944    0.0000 C   0  0  0  0  0  0  0  0  0  0  0  0
    7.8195    4.3080    0.0000 C   0  0  0  0  0  0  0  0  0  0  0  0
    5.1350   -0.1180    0.0000 H   0  0  0  0  0  0  0  0  0  0  0  0
    3.1215    0.7997    0.0000 H   0  0  0  0  0  0  0  0  0  0  0  0
    3.5200    0.1094    0.0000 H   0  0  0  0  0  0  0  0  0  0  0  0
    4.3520    1.6920    0.0000 H   0  0  0  0  0  0  0  0  0  0  0  0
    3.7320    2.3120    0.0000 H   0  0  0  0  0  0  0  0  0  0  0  0
    3.1120    1.6920    0.0000 H   0  0  0  0  0  0  0  0  0  0  0  0
    5.1350   -2.4980    0.0000 H   0  0  0  0  0  0  0  0  0  0  0  0
    3.7320   -4.9280    0.0000 H   0  0  0  0  0  0  0  0  0  0  0  0
    4.9272    2.0020    0.0000 H   0  0  0  0  0  0  0  0  0  0  0  0
    2.3100   -1.7710    0.0000 H   0  0  0  0  0  0  0  0  0  0  0  0
    1.4631   -1.9980    0.0000 H   0  0  0  0  0  0  0  0  0  0  0  0
    1.6900   -2.8449    0.0000 H   0  0  0  0  0  0  0  0  0  0  0  0
    5.1350   -4.1180    0.0000 H   0  0  0  0  0  0  0  0  0  0  0  0
    1.6900   -3.7710    0.0000 H   0  0  0  0  0  0  0  0  0  0  0  0
    1.4631   -4.6180    0.0000 H   0  0  0  0  0  0  0  0  0  0  0  0
    2.3100   -4.8449    0.0000 H   0  0  0  0  0  0  0  0  0  0  0  0
    5.9739    3.6014    0.0000 H   0  0  0  0  0  0  0  0  0  0  0  0
    8.3859    4.0558    0.0000 H   0  0  0  0  0  0  0  0  0  0  0  0
    8.0717    4.8744    0.0000 H   0  0  0  0  0  0  0  0  0  0  0  0
    7.2531    4.5602    0.0000 H   0  0  0  0  0  0  0  0  0  0  0  0
  1  7  1  0  0  0  0
  1 14  1  0  0  0  0
  2 11  2  0  0  0  0
  3 14  2  0  0  0  0
  4  6  1  0  0  0  0
  4 22  1  0  0  0  0
  5 11  1  0  0  0  0
  5 20  1  0  0  0  0
  5 32  1  0  0  0  0
  6 20  2  0  0  0  0
  7  8  1  0  0  0  0
  7 11  1  0  0  0  0
  7 24  1  0  0  0  0
  8 13  1  0  0  0  0
  8 25  1  0  0  0  0
  8 26  1  0  0  0  0
  9 10  1  0  0  0  0
  9 14  1  0  0  0  0
  9 15  2  0  0  0  0
 10 12  2  0  0  0  0
 10 17  1  0  0  0  0
 12 16  1  0  0  0  0
 12 19  1  0  0  0  0
 13 27  1  0  0  0  0
 13 28  1  0  0  0  0
 13 29  1  0  0  0  0
 15 18  1  0  0  0  0
 15 30  1  0  0  0  0
 16 18  2  0  0  0  0
 16 31  1  0  0  0  0
 17 33  1  0  0  0  0
 17 34  1  0  0  0  0
 17 35  1  0  0  0  0
 18 36  1  0  0  0  0
 19 37  1  0  0  0  0
 19 38  1  0  0  0  0
 19 39  1  0  0  0  0
 20 21  1  0  0  0  0
 21 22  2  0  0  0  0
 21 40  1  0  0  0  0
 22 23  1  0  0  0  0
 23 41  1  0  0  0  0
 23 42  1  0  0  0  0
 23 43  1  0  0  0  0
M  END
> <PUBCHEM_COMPOUND_CID>
17396004

> <PUBCHEM_COMPOUND_CANONICALIZED>
1

> <PUBCHEM_CACTVS_COMPLEXITY>
429

> <PUBCHEM_CACTVS_HBOND_ACCEPTOR>
5

> <PUBCHEM_CACTVS_HBOND_DONOR>
1

> <PUBCHEM_CACTVS_ROTATABLE_BOND>
6

> <PUBCHEM_CACTVS_SUBSKEYS>
AAADceB7OAAAAAAAAAAAAAAAAAAAAWAAAAAwAAAAAAAAAAABwAAAHgAUAAAADBShmgIzvJLQBACpAqPyegKCAAAlIgApmCF2bNqKJjrAvZyHMYhm1QvY6ceIyOCOgAACAAAQAAAAAAQAACAAAAAAAAAAAA==

> <PUBCHEM_IUPAC_OPENEYE_NAME>
1-[(5-methylisoxazol-3-yl)carbamoyl]propyl 2,3-dimethylbenzoate

> <PUBCHEM_IUPAC_CAS_NAME>
2,3-dimethylbenzoic acid [1-[(5-methyl-3-isoxazolyl)amino]-1-oxobutan-2-yl] ester

> <PUBCHEM_IUPAC_NAME>
[1-[(5-methyl-1,2-oxazol-3-yl)amino]-1-oxobutan-2-yl] 2,3-dimethylbenzoate

> <PUBCHEM_IUPAC_SYSTEMATIC_NAME>
[1-[(5-methyl-1,2-oxazol-3-yl)amino]-1-oxidanylidene-butan-2-yl] 2,3-dimethylbenzoate

> <PUBCHEM_IUPAC_TRADITIONAL_NAME>
2,3-dimethylbenzoic acid 1-[(5-methylisoxazol-3-yl)carbamoyl]propyl ester

> <PUBCHEM_IUPAC_INCHI>
InChI=1S/C17H20N2O4/c1-5-14(16(20)18-15-9-11(3)23-19-15)22-17(21)13-8-6-7-10(2)12(13)4/h6-9,14H,5H2,1-4H3,(H,18,19,20)

> <PUBCHEM_IUPAC_INCHIKEY>
ZLBIFQJXAJPZON-UHFFFAOYSA-N

> <PUBCHEM_XLOGP3_AA>
3.5

> <PUBCHEM_EXACT_MASS>
316.142307

> <PUBCHEM_MOLECULAR_FORMULA>
C17H20N2O4

> <PUBCHEM_MOLECULAR_WEIGHT>
316.3517

> <PUBCHEM_OPENEYE_CAN_SMILES>
CCC(C(=O)NC1=NOC(=C1)C)OC(=O)C2=C(C(=CC=C2)C)C

> <PUBCHEM_OPENEYE_ISO_SMILES>
CCC(C(=O)NC1=NOC(=C1)C)OC(=O)C2=C(C(=CC=C2)C)C

> <PUBCHEM_CACTVS_TPSA>
81.4

> <PUBCHEM_MONOISOTOPIC_WEIGHT>
316.142307

> <PUBCHEM_TOTAL_CHARGE>
0

> <PUBCHEM_HEAVY_ATOM_COUNT>
23

> <PUBCHEM_ATOM_DEF_STEREO_COUNT>
0

> <PUBCHEM_ATOM_UDEF_STEREO_COUNT>
1

> <PUBCHEM_BOND_DEF_STEREO_COUNT>
0

> <PUBCHEM_BOND_UDEF_STEREO_COUNT>
0

> <PUBCHEM_ISOTOPIC_ATOM_COUNT>
0

> <PUBCHEM_COMPONENT_COUNT>
1

> <PUBCHEM_CACTVS_TAUTO_COUNT>
10

> <PUBCHEM_COORDINATE_TYPE>
1
5
255

> <PUBCHEM_BONDANNOTATIONS>
10  12  8
12  16  8
15  18  8
16  18  8
20  21  8
21  22  8
4  22  8
4  6  8
6  20  8
7  8  3
9  10  8
9  15  8

$$$$

