439959
  -OEChem-07051212482D

 58 60  0     0  0  0  0  0  0999 V2000
    4.2690   -1.6900    0.0000 O   0  0  0  0  0  0  0  0  0  0  0  0
    2.5369   -1.6900    0.0000 O   0  0  0  0  0  0  0  0  0  0  0  0
    6.0010    4.3100    0.0000 O   0  0  0  0  0  0  0  0  0  0  0  0
    4.2690    4.3100    0.0000 O   0  0  0  0  0  0  0  0  0  0  0  0
    2.5369   -6.6900    0.0000 N   0  0  0  0  0  0  0  0  0  0  0  0
    3.4030   -5.1900    0.0000 C   0  0  0  0  0  0  0  0  0  0  0  0
    3.4030   -3.1900    0.0000 C   0  0  0  0  0  0  0  0  0  0  0  0
    4.2690   -4.6900    0.0000 C   0  0  0  0  0  0  0  0  0  0  0  0
    2.5369   -4.6900    0.0000 C   0  0  0  0  0  0  0  0  0  0  0  0
    4.2690   -3.6900    0.0000 C   0  0  0  0  0  0  0  0  0  0  0  0
    2.5369   -3.6900    0.0000 C   0  0  0  0  0  0  0  0  0  0  0  0
    3.4030   -6.1900    0.0000 C   0  0  0  0  0  0  0  0  0  0  0  0
    3.4030   -2.1900    0.0000 C   0  0  0  0  0  0  0  0  0  0  0  0
    4.2690   -0.6900    0.0000 C   0  0  0  0  0  0  0  0  0  0  0  0
    5.1350   -0.1900    0.0000 C   0  0  0  0  0  0  0  0  0  0  0  0
    3.4030   -0.1900    0.0000 C   0  0  0  0  0  0  0  0  0  0  0  0
    4.2690    1.3100    0.0000 C   0  0  0  0  0  0  0  0  0  0  0  0
    5.1350    0.8100    0.0000 C   0  0  0  0  0  0  0  0  0  0  0  0
    3.4030    0.8100    0.0000 C   0  0  0  0  0  0  0  0  0  0  0  0
    4.2690    2.3100    0.0000 C   0  0  0  0  0  0  0  0  0  0  0  0
    5.1350    2.8100    0.0000 C   0  0  0  0  0  0  0  0  0  0  0  0
    5.1350    3.8100    0.0000 C   0  0  0  0  0  0  0  0  0  0  0  0
    6.0010    5.3100    0.0000 C   0  0  0  0  0  0  0  0  0  0  0  0
    6.8671    5.8100    0.0000 C   0  0  0  0  0  0  0  0  0  0  0  0
    7.7331    5.3100    0.0000 C   0  0  0  0  0  0  0  0  0  0  0  0
    6.8671    6.8100    0.0000 C   0  0  0  0  0  0  0  0  0  0  0  0
    8.5991    5.8100    0.0000 C   0  0  0  0  0  0  0  0  0  0  0  0
    7.7331    7.3100    0.0000 C   0  0  0  0  0  0  0  0  0  0  0  0
    8.5991    6.8100    0.0000 C   0  0  0  0  0  0  0  0  0  0  0  0
    3.9399   -5.5000    0.0000 H   0  0  0  0  0  0  0  0  0  0  0  0
    3.9399   -2.8800    0.0000 H   0  0  0  0  0  0  0  0  0  0  0  0
    4.4810   -5.2726    0.0000 H   0  0  0  0  0  0  0  0  0  0  0  0
    4.8796   -4.5823    0.0000 H   0  0  0  0  0  0  0  0  0  0  0  0
    1.9264   -4.5823    0.0000 H   0  0  0  0  0  0  0  0  0  0  0  0
    2.3249   -5.2726    0.0000 H   0  0  0  0  0  0  0  0  0  0  0  0
    2.3249   -3.1074    0.0000 H   0  0  0  0  0  0  0  0  0  0  0  0
    1.9264   -3.7977    0.0000 H   0  0  0  0  0  0  0  0  0  0  0  0
    4.8796   -3.7977    0.0000 H   0  0  0  0  0  0  0  0  0  0  0  0
    4.4810   -3.1074    0.0000 H   0  0  0  0  0  0  0  0  0  0  0  0
    3.6150   -6.7726    0.0000 H   0  0  0  0  0  0  0  0  0  0  0  0
    4.0135   -6.0823    0.0000 H   0  0  0  0  0  0  0  0  0  0  0  0
    2.5369   -7.3100    0.0000 H   0  0  0  0  0  0  0  0  0  0  0  0
    2.0000   -6.3800    0.0000 H   0  0  0  0  0  0  0  0  0  0  0  0
    5.6720   -0.5000    0.0000 H   0  0  0  0  0  0  0  0  0  0  0  0
    2.8660   -0.5000    0.0000 H   0  0  0  0  0  0  0  0  0  0  0  0
    5.6720    1.1200    0.0000 H   0  0  0  0  0  0  0  0  0  0  0  0
    2.8660    1.1200    0.0000 H   0  0  0  0  0  0  0  0  0  0  0  0
    4.0569    2.8926    0.0000 H   0  0  0  0  0  0  0  0  0  0  0  0
    3.6584    2.2023    0.0000 H   0  0  0  0  0  0  0  0  0  0  0  0
    5.3471    2.2274    0.0000 H   0  0  0  0  0  0  0  0  0  0  0  0
    5.7456    2.9177    0.0000 H   0  0  0  0  0  0  0  0  0  0  0  0
    5.7890    5.8926    0.0000 H   0  0  0  0  0  0  0  0  0  0  0  0
    5.3905    5.2023    0.0000 H   0  0  0  0  0  0  0  0  0  0  0  0
    7.7331    4.6900    0.0000 H   0  0  0  0  0  0  0  0  0  0  0  0
    6.3301    7.1200    0.0000 H   0  0  0  0  0  0  0  0  0  0  0  0
    9.1360    5.5000    0.0000 H   0  0  0  0  0  0  0  0  0  0  0  0
    7.7331    7.9300    0.0000 H   0  0  0  0  0  0  0  0  0  0  0  0
    9.1360    7.1200    0.0000 H   0  0  0  0  0  0  0  0  0  0  0  0
  1 13  1  0  0  0  0
  1 14  1  0  0  0  0
  2 13  2  0  0  0  0
  3 22  1  0  0  0  0
  3 23  1  0  0  0  0
  4 22  2  0  0  0  0
  5 12  1  0  0  0  0
  5 42  1  0  0  0  0
  5 43  1  0  0  0  0
  6  8  1  0  0  0  0
  6  9  1  0  0  0  0
  6 12  1  0  0  0  0
  6 30  1  0  0  0  0
  7 10  1  0  0  0  0
  7 11  1  0  0  0  0
  7 13  1  0  0  0  0
  7 31  1  0  0  0  0
  8 10  1  0  0  0  0
  8 32  1  0  0  0  0
  8 33  1  0  0  0  0
  9 11  1  0  0  0  0
  9 34  1  0  0  0  0
  9 35  1  0  0  0  0
 10 38  1  0  0  0  0
 10 39  1  0  0  0  0
 11 36  1  0  0  0  0
 11 37  1  0  0  0  0
 12 40  1  0  0  0  0
 12 41  1  0  0  0  0
 14 15  2  0  0  0  0
 14 16  1  0  0  0  0
 15 18  1  0  0  0  0
 15 44  1  0  0  0  0
 16 19  2  0  0  0  0
 16 45  1  0  0  0  0
 17 18  2  0  0  0  0
 17 19  1  0  0  0  0
 17 20  1  0  0  0  0
 18 46  1  0  0  0  0
 19 47  1  0  0  0  0
 20 21  1  0  0  0  0
 20 48  1  0  0  0  0
 20 49  1  0  0  0  0
 21 22  1  0  0  0  0
 21 50  1  0  0  0  0
 21 51  1  0  0  0  0
 23 24  1  0  0  0  0
 23 52  1  0  0  0  0
 23 53  1  0  0  0  0
 24 25  2  0  0  0  0
 24 26  1  0  0  0  0
 25 27  1  0  0  0  0
 25 54  1  0  0  0  0
 26 28  2  0  0  0  0
 26 55  1  0  0  0  0
 27 29  2  0  0  0  0
 27 56  1  0  0  0  0
 28 29  1  0  0  0  0
 28 57  1  0  0  0  0
 29 58  1  0  0  0  0
M  END
> <PUBCHEM_COMPOUND_CID>
439959

> <PUBCHEM_COMPOUND_CANONICALIZED>
1

> <PUBCHEM_CACTVS_COMPLEXITY>
501

> <PUBCHEM_CACTVS_HBOND_ACCEPTOR>
5

> <PUBCHEM_CACTVS_HBOND_DONOR>
1

> <PUBCHEM_CACTVS_ROTATABLE_BOND>
10

> <PUBCHEM_CACTVS_SUBSKEYS>
AAADceB6OAAAAAAAAAAAAAAAAAAAAAAAAAAwYMAAAAAAAAABQAAAHgAQAAAADQThmAYwDoBABACIAiDSCAACCAAgIAAIiIEGCIgMJjKEsRqCOiCk0BEIqAeYyLCOIAAAAAAAAADAAAAAAAAAAAAAAAAAAA==

> <PUBCHEM_IUPAC_OPENEYE_NAME>
[4-(3-benzyloxy-3-oxo-propyl)phenyl] 4-(aminomethyl)cyclohexanecarboxylate

> <PUBCHEM_IUPAC_CAS_NAME>
4-(aminomethyl)-1-cyclohexanecarboxylic acid [4-(3-oxo-3-phenylmethoxypropyl)phenyl] ester

> <PUBCHEM_IUPAC_NAME>
[4-(3-oxo-3-phenylmethoxypropyl)phenyl] 4-(aminomethyl)cyclohexane-1-carboxylate

> <PUBCHEM_IUPAC_SYSTEMATIC_NAME>
[4-(3-oxidanylidene-3-phenylmethoxy-propyl)phenyl] 4-(aminomethyl)cyclohexane-1-carboxylate

> <PUBCHEM_IUPAC_TRADITIONAL_NAME>
4-(aminomethyl)cyclohexanecarboxylic acid [4-(3-benzoxy-3-keto-propyl)phenyl] ester

> <PUBCHEM_IUPAC_INCHI>
InChI=1S/C24H29NO4/c25-16-19-6-11-21(12-7-19)24(27)29-22-13-8-18(9-14-22)10-15-23(26)28-17-20-4-2-1-3-5-20/h1-5,8-9,13-14,19,21H,6-7,10-12,15-17,25H2

> <PUBCHEM_IUPAC_INCHIKEY>
LPWHBGUXJFSETQ-UHFFFAOYSA-N

> <PUBCHEM_XLOGP3_AA>
3.7

> <PUBCHEM_EXACT_MASS>
395.209658

> <PUBCHEM_MOLECULAR_FORMULA>
C24H29NO4

> <PUBCHEM_MOLECULAR_WEIGHT>
395.49136

> <PUBCHEM_OPENEYE_CAN_SMILES>
C1CC(CCC1CN)C(=O)OC2=CC=C(C=C2)CCC(=O)OCC3=CC=CC=C3

> <PUBCHEM_OPENEYE_ISO_SMILES>
C1CC(CCC1CN)C(=O)OC2=CC=C(C=C2)CCC(=O)OCC3=CC=CC=C3

> <PUBCHEM_CACTVS_TPSA>
78.6

> <PUBCHEM_MONOISOTOPIC_WEIGHT>
395.209658

> <PUBCHEM_TOTAL_CHARGE>
0

> <PUBCHEM_HEAVY_ATOM_COUNT>
29

> <PUBCHEM_ATOM_DEF_STEREO_COUNT>
0

> <PUBCHEM_ATOM_UDEF_STEREO_COUNT>
0

> <PUBCHEM_BOND_DEF_STEREO_COUNT>
0

> <PUBCHEM_BOND_UDEF_STEREO_COUNT>
0

> <PUBCHEM_ISOTOPIC_ATOM_COUNT>
0

> <PUBCHEM_COMPONENT_COUNT>
1

> <PUBCHEM_CACTVS_TAUTO_COUNT>
1

> <PUBCHEM_COORDINATE_TYPE>
1
5
255

> <PUBCHEM_BONDANNOTATIONS>
14  15  8
14  16  8
15  18  8
16  19  8
17  18  8
17  19  8
24  25  8
24  26  8
25  27  8
26  28  8
27  29  8
28  29  8

$$$$

