54698175
  -OEChem-07051213122D

 65 70  0     1  0  0  0  0  0999 V2000
    3.0000   -6.5346    0.0000 F   0  0  0  0  0  0  0  0  0  0  0  0
    2.0000   -5.5346    0.0000 F   0  0  0  0  0  0  0  0  0  0  0  0
    4.0000   -5.5346    0.0000 F   0  0  0  0  0  0  0  0  0  0  0  0
    6.4641    6.4654    0.0000 O   0  0  0  0  0  0  0  0  0  0  0  0
    6.4641    3.4654    0.0000 O   0  0  0  0  0  0  0  0  0  0  0  0
    4.7320    6.4654    0.0000 O   0  0  0  0  0  0  0  0  0  0  0  0
    3.8660   -1.0346    0.0000 O   0  0  0  0  0  0  0  0  0  0  0  0
    3.8660    2.9654    0.0000 C   0  0  3  0  0  0  0  0  0  0  0  0
    4.7320    4.4654    0.0000 C   0  0  3  0  0  0  0  0  0  0  0  0
    4.7320    3.4654    0.0000 C   0  0  0  0  0  0  0  0  0  0  0  0
    3.0000    3.4654    0.0000 C   0  0  0  0  0  0  0  0  0  0  0  0
    3.8660    4.9654    0.0000 C   0  0  0  0  0  0  0  0  0  0  0  0
    3.0000    4.4654    0.0000 C   0  0  0  0  0  0  0  0  0  0  0  0
    3.8660    1.9654    0.0000 C   0  0  0  0  0  0  0  0  0  0  0  0
    5.5981    4.9654    0.0000 C   0  0  0  0  0  0  0  0  0  0  0  0
    3.8821    6.0069    0.0000 C   0  0  0  0  0  0  0  0  0  0  0  0
    2.0900    4.9722    0.0000 C   0  0  0  0  0  0  0  0  0  0  0  0
    6.4641    4.4654    0.0000 C   0  0  0  0  0  0  0  0  0  0  0  0
    4.7320    1.4654    0.0000 C   0  0  0  0  0  0  0  0  0  0  0  0
    3.0000    1.4654    0.0000 C   0  0  0  0  0  0  0  0  0  0  0  0
    5.5981    5.9654    0.0000 C   0  0  0  0  0  0  0  0  0  0  0  0
    2.9840    6.5346    0.0000 C   0  0  0  0  0  0  0  0  0  0  0  0
    2.0820    6.0138    0.0000 C   0  0  0  0  0  0  0  0  0  0  0  0
    7.3301    4.9654    0.0000 C   0  0  0  0  0  0  0  0  0  0  0  0
    4.7320    0.4654    0.0000 C   0  0  0  0  0  0  0  0  0  0  0  0
    3.0000    0.4654    0.0000 C   0  0  0  0  0  0  0  0  0  0  0  0
    7.3301    5.9654    0.0000 C   0  0  0  0  0  0  0  0  0  0  0  0
    3.8660   -0.0346    0.0000 C   0  0  0  0  0  0  0  0  0  0  0  0
    8.2241    4.4307    0.0000 C   0  0  0  0  0  0  0  0  0  0  0  0
    8.2241    6.5000    0.0000 C   0  0  0  0  0  0  0  0  0  0  0  0
    9.1301    4.9445    0.0000 C   0  0  0  0  0  0  0  0  0  0  0  0
    9.1301    5.9862    0.0000 C   0  0  0  0  0  0  0  0  0  0  0  0
    3.0000   -1.5346    0.0000 C   0  0  0  0  0  0  0  0  0  0  0  0
    3.0000   -2.5346    0.0000 C   0  0  0  0  0  0  0  0  0  0  0  0
    3.8660   -3.0346    0.0000 C   0  0  0  0  0  0  0  0  0  0  0  0
    2.1340   -3.0346    0.0000 C   0  0  0  0  0  0  0  0  0  0  0  0
    3.8660   -4.0346    0.0000 C   0  0  0  0  0  0  0  0  0  0  0  0
    2.1340   -4.0346    0.0000 C   0  0  0  0  0  0  0  0  0  0  0  0
    3.0000   -4.5346    0.0000 C   0  0  0  0  0  0  0  0  0  0  0  0
    3.0000   -5.5346    0.0000 C   0  0  0  0  0  0  0  0  0  0  0  0
    4.4030    2.6554    0.0000 H   0  0  0  0  0  0  0  0  0  0  0  0
    5.2690    4.1554    0.0000 H   0  0  0  0  0  0  0  0  0  0  0  0
    4.9441    2.8828    0.0000 H   0  0  0  0  0  0  0  0  0  0  0  0
    5.3426    3.5730    0.0000 H   0  0  0  0  0  0  0  0  0  0  0  0
    2.3894    3.5730    0.0000 H   0  0  0  0  0  0  0  0  0  0  0  0
    2.7880    2.8828    0.0000 H   0  0  0  0  0  0  0  0  0  0  0  0
    4.4226    6.3106    0.0000 H   0  0  0  0  0  0  0  0  0  0  0  0
    1.5567    4.6560    0.0000 H   0  0  0  0  0  0  0  0  0  0  0  0
    5.2690    1.7754    0.0000 H   0  0  0  0  0  0  0  0  0  0  0  0
    2.4631    1.7754    0.0000 H   0  0  0  0  0  0  0  0  0  0  0  0
    2.9864    7.1546    0.0000 H   0  0  0  0  0  0  0  0  0  0  0  0
    1.5438    6.3217    0.0000 H   0  0  0  0  0  0  0  0  0  0  0  0
    5.2690    0.1554    0.0000 H   0  0  0  0  0  0  0  0  0  0  0  0
    2.4631    0.1554    0.0000 H   0  0  0  0  0  0  0  0  0  0  0  0
    8.2169    3.8108    0.0000 H   0  0  0  0  0  0  0  0  0  0  0  0
    7.0010    3.1554    0.0000 H   0  0  0  0  0  0  0  0  0  0  0  0
    8.2169    7.1200    0.0000 H   0  0  0  0  0  0  0  0  0  0  0  0
    9.6659    4.6325    0.0000 H   0  0  0  0  0  0  0  0  0  0  0  0
    9.6659    6.2982    0.0000 H   0  0  0  0  0  0  0  0  0  0  0  0
    2.7880   -0.9520    0.0000 H   0  0  0  0  0  0  0  0  0  0  0  0
    2.3894   -1.6423    0.0000 H   0  0  0  0  0  0  0  0  0  0  0  0
    4.4030   -2.7246    0.0000 H   0  0  0  0  0  0  0  0  0  0  0  0
    1.5970   -2.7246    0.0000 H   0  0  0  0  0  0  0  0  0  0  0  0
    4.4030   -4.3446    0.0000 H   0  0  0  0  0  0  0  0  0  0  0  0
    1.5970   -4.3446    0.0000 H   0  0  0  0  0  0  0  0  0  0  0  0
  1 40  1  0  0  0  0
  2 40  1  0  0  0  0
  3 40  1  0  0  0  0
  4 21  1  0  0  0  0
  4 27  1  0  0  0  0
  5 18  1  0  0  0  0
  5 56  1  0  0  0  0
  6 21  2  0  0  0  0
  7 28  1  0  0  0  0
  7 33  1  0  0  0  0
  8 10  1  0  0  0  0
  8 11  1  0  0  0  0
  8 14  1  0  0  0  0
  8 41  1  0  0  0  0
  9 10  1  0  0  0  0
  9 12  1  0  0  0  0
  9 15  1  0  0  0  0
  9 42  1  0  0  0  0
 10 43  1  0  0  0  0
 10 44  1  0  0  0  0
 11 13  1  0  0  0  0
 11 45  1  0  0  0  0
 11 46  1  0  0  0  0
 12 13  1  0  0  0  0
 12 16  2  0  0  0  0
 13 17  2  0  0  0  0
 14 19  2  0  0  0  0
 14 20  1  0  0  0  0
 15 18  2  0  0  0  0
 15 21  1  0  0  0  0
 16 22  1  0  0  0  0
 16 47  1  0  0  0  0
 17 23  1  0  0  0  0
 17 48  1  0  0  0  0
 18 24  1  0  0  0  0
 19 25  1  0  0  0  0
 19 49  1  0  0  0  0
 20 26  2  0  0  0  0
 20 50  1  0  0  0  0
 22 23  2  0  0  0  0
 22 51  1  0  0  0  0
 23 52  1  0  0  0  0
 24 27  1  0  0  0  0
 24 29  2  0  0  0  0
 25 28  2  0  0  0  0
 25 53  1  0  0  0  0
 26 28  1  0  0  0  0
 26 54  1  0  0  0  0
 27 30  2  0  0  0  0
 29 31  1  0  0  0  0
 29 55  1  0  0  0  0
 30 32  1  0  0  0  0
 30 57  1  0  0  0  0
 31 32  2  0  0  0  0
 31 58  1  0  0  0  0
 32 59  1  0  0  0  0
 33 34  1  0  0  0  0
 33 60  1  0  0  0  0
 33 61  1  0  0  0  0
 34 35  2  0  0  0  0
 34 36  1  0  0  0  0
 35 37  1  0  0  0  0
 35 62  1  0  0  0  0
 36 38  2  0  0  0  0
 36 63  1  0  0  0  0
 37 39  2  0  0  0  0
 37 64  1  0  0  0  0
 38 39  1  0  0  0  0
 38 65  1  0  0  0  0
 39 40  1  0  0  0  0
M  END
> <PUBCHEM_COMPOUND_CID>
54698175

> <PUBCHEM_COMPOUND_CANONICALIZED>
1

> <PUBCHEM_CACTVS_COMPLEXITY>
915

> <PUBCHEM_CACTVS_HBOND_ACCEPTOR>
7

> <PUBCHEM_CACTVS_HBOND_DONOR>
1

> <PUBCHEM_CACTVS_ROTATABLE_BOND>
5

> <PUBCHEM_CACTVS_SUBSKEYS>
AAADceB8OYAAAAAAAAAAAAAAAAAAAAAAAAAwYMGDAAAAAADBVAAAGwAACAAADQSgmBIwDoAABgCIAiDSCAACCAAgIAAIiAEGCMgMJzKEMRqCeiClwBEIuQeIyPCO4AAAAAAYAADAAAQAADAAAAAAAAAAAA==

> <PUBCHEM_IUPAC_OPENEYE_NAME>
4-hydroxy-3-[3-[4-[[4-(trifluoromethyl)phenyl]methoxy]phenyl]tetralin-1-yl]chromen-2-one

> <PUBCHEM_IUPAC_CAS_NAME>
4-hydroxy-3-[3-[4-[[4-(trifluoromethyl)phenyl]methoxy]phenyl]-1,2,3,4-tetrahydronaphthalen-1-yl]-1-benzopyran-2-one

> <PUBCHEM_IUPAC_NAME>
4-hydroxy-3-[3-[4-[[4-(trifluoromethyl)phenyl]methoxy]phenyl]-1,2,3,4-tetrahydronaphthalen-1-yl]chromen-2-one

> <PUBCHEM_IUPAC_SYSTEMATIC_NAME>
4-oxidanyl-3-[3-[4-[[4-(trifluoromethyl)phenyl]methoxy]phenyl]-1,2,3,4-tetrahydronaphthalen-1-yl]chromen-2-one

> <PUBCHEM_IUPAC_TRADITIONAL_NAME>
4-hydroxy-3-[3-[4-[4-(trifluoromethyl)benzyl]oxyphenyl]tetralin-1-yl]coumarin

> <PUBCHEM_IUPAC_INCHI>
InChI=1S/C33H25F3O4/c34-33(35,36)24-13-9-20(10-14-24)19-39-25-15-11-21(12-16-25)23-17-22-5-1-2-6-26(22)28(18-23)30-31(37)27-7-3-4-8-29(27)40-32(30)38/h1-16,23,28,37H,17-19H2

> <PUBCHEM_IUPAC_INCHIKEY>
KKBGNYHHEIAGOH-UHFFFAOYSA-N

> <PUBCHEM_XLOGP3_AA>
7.7

> <PUBCHEM_EXACT_MASS>
542.170494

> <PUBCHEM_MOLECULAR_FORMULA>
C33H25F3O4

> <PUBCHEM_MOLECULAR_WEIGHT>
542.54441

> <PUBCHEM_OPENEYE_CAN_SMILES>
C1C(CC2=CC=CC=C2C1C3=C(C4=CC=CC=C4OC3=O)O)C5=CC=C(C=C5)OCC6=CC=C(C=C6)C(F)(F)F

> <PUBCHEM_OPENEYE_ISO_SMILES>
C1C(CC2=CC=CC=C2C1C3=C(C4=CC=CC=C4OC3=O)O)C5=CC=C(C=C5)OCC6=CC=C(C=C6)C(F)(F)F

> <PUBCHEM_CACTVS_TPSA>
55.8

> <PUBCHEM_MONOISOTOPIC_WEIGHT>
542.170494

> <PUBCHEM_TOTAL_CHARGE>
0

> <PUBCHEM_HEAVY_ATOM_COUNT>
40

> <PUBCHEM_ATOM_DEF_STEREO_COUNT>
0

> <PUBCHEM_ATOM_UDEF_STEREO_COUNT>
2

> <PUBCHEM_BOND_DEF_STEREO_COUNT>
0

> <PUBCHEM_BOND_UDEF_STEREO_COUNT>
0

> <PUBCHEM_ISOTOPIC_ATOM_COUNT>
0

> <PUBCHEM_COMPONENT_COUNT>
1

> <PUBCHEM_CACTVS_TAUTO_COUNT>
3

> <PUBCHEM_COORDINATE_TYPE>
1
5
255

> <PUBCHEM_BONDANNOTATIONS>
12  13  8
12  16  8
13  17  8
14  19  8
14  20  8
15  18  8
15  21  8
16  22  8
17  23  8
18  24  8
19  25  8
20  26  8
22  23  8
24  27  8
24  29  8
25  28  8
26  28  8
27  30  8
29  31  8
30  32  8
31  32  8
34  35  8
34  36  8
35  37  8
36  38  8
37  39  8
38  39  8
4  21  8
4  27  8
8  14  3
9  15  3

$$$$

