9831636
  -OEChem-07051213092D

 92 95  0     1  0  0  0  0  0999 V2000
    7.2138    3.0114    0.0000 Br  0  0  0  0  0  0  0  0  0  0  0  0
    8.9282   -2.8828    0.0000 O   0  0  0  0  0  0  0  0  0  0  0  0
    7.1962   -1.4686    0.0000 O   0  0  0  0  0  0  0  0  0  0  0  0
    6.3301   -1.9686    0.0000 O   0  0  0  0  0  0  0  0  0  0  0  0
    2.0000   -1.4686    0.0000 O   0  0  0  0  0  0  0  0  0  0  0  0
   10.6353   -2.1757    0.0000 O   0  0  0  0  0  0  0  0  0  0  0  0
   12.3923    1.5314    0.0000 O   0  0  0  0  0  0  0  0  0  0  0  0
    5.4641   -0.4686    0.0000 N   0  0  0  0  0  0  0  0  0  0  0  0
    8.0622    0.0314    0.0000 N   0  0  0  0  0  0  0  0  0  0  0  0
    3.7320   -1.4686    0.0000 N   0  0  0  0  0  0  0  0  0  0  0  0
    5.4982    3.4723    0.0000 N   0  0  0  0  0  0  0  0  0  0  0  0
    6.3301    0.0314    0.0000 C   0  0  2  0  0  0  0  0  0  0  0  0
    6.3301    1.0314    0.0000 C   0  0  0  0  0  0  0  0  0  0  0  0
    6.3301   -2.9686    0.0000 C   0  0  2  0  0  0  0  0  0  0  0  0
    7.2552   -3.3311    0.0000 C   0  0  0  0  0  0  0  0  0  0  0  0
    5.8301    1.8974    0.0000 C   0  0  0  0  0  0  0  0  0  0  0  0
    8.9282   -0.4686    0.0000 C   0  0  2  0  0  0  0  0  0  0  0  0
    7.1962   -0.4686    0.0000 C   0  0  0  0  0  0  0  0  0  0  0  0
    7.9623   -2.6240    0.0000 C   0  0  2  0  0  0  0  0  0  0  0  0
    2.8660   -2.9686    0.0000 C   0  0  1  0  0  0  0  0  0  0  0  0
    3.7320   -3.4686    0.0000 C   0  0  0  0  0  0  0  0  0  0  0  0
    4.5981   -1.9686    0.0000 C   0  0  2  0  0  0  0  0  0  0  0  0
    5.4641   -1.4686    0.0000 C   0  0  0  0  0  0  0  0  0  0  0  0
    4.5981   -2.9686    0.0000 C   0  0  0  0  0  0  0  0  0  0  0  0
    5.4641   -3.4686    0.0000 C   0  0  0  0  0  0  0  0  0  0  0  0
    8.9282   -1.4686    0.0000 C   0  0  0  0  0  0  0  0  0  0  0  0
    4.8414    2.0004    0.0000 C   0  0  0  0  0  0  0  0  0  0  0  0
    2.8660   -1.9686    0.0000 C   0  0  0  0  0  0  0  0  0  0  0  0
    7.1600   -2.4107    0.0000 C   0  0  0  0  0  0  0  0  0  0  0  0
    4.5981    0.0314    0.0000 C   0  0  0  0  0  0  0  0  0  0  0  0
    6.2352    2.8052    0.0000 C   0  0  0  0  0  0  0  0  0  0  0  0
    9.7942    0.0314    0.0000 C   0  0  0  0  0  0  0  0  0  0  0  0
    4.6352    2.9790    0.0000 C   0  0  0  0  0  0  0  0  0  0  0  0
    8.0494   -1.6278    0.0000 C   0  0  0  0  0  0  0  0  0  0  0  0
    2.0000   -3.4686    0.0000 C   0  0  0  0  0  0  0  0  0  0  0  0
    9.6353   -2.1757    0.0000 C   0  0  0  0  0  0  0  0  0  0  0  0
    3.7321   -2.4687    0.0000 C   0  0  0  0  0  0  0  0  0  0  0  0
    4.9838   -2.5090    0.0000 C   0  0  0  0  0  0  0  0  0  0  0  0
    4.0971    1.3326    0.0000 C   0  0  0  0  0  0  0  0  0  0  0  0
    3.6847    3.2896    0.0000 C   0  0  0  0  0  0  0  0  0  0  0  0
   10.6603   -0.4686    0.0000 C   0  0  0  0  0  0  0  0  0  0  0  0
    9.7942    1.0314    0.0000 C   0  0  0  0  0  0  0  0  0  0  0  0
    3.1466    1.6433    0.0000 C   0  0  0  0  0  0  0  0  0  0  0  0
    2.9404    2.6218    0.0000 C   0  0  0  0  0  0  0  0  0  0  0  0
   11.5263    0.0314    0.0000 C   0  0  0  0  0  0  0  0  0  0  0  0
   10.6603    1.5314    0.0000 C   0  0  0  0  0  0  0  0  0  0  0  0
   11.5263    1.0314    0.0000 C   0  0  0  0  0  0  0  0  0  0  0  0
    5.7932    0.3414    0.0000 H   0  0  0  0  0  0  0  0  0  0  0  0
    6.9127    0.8193    0.0000 H   0  0  0  0  0  0  0  0  0  0  0  0
    5.7312    0.8709    0.0000 H   0  0  0  0  0  0  0  0  0  0  0  0
    6.0020   -2.4426    0.0000 H   0  0  0  0  0  0  0  0  0  0  0  0
    6.9521   -3.8720    0.0000 H   0  0  0  0  0  0  0  0  0  0  0  0
    7.7495   -3.7054    0.0000 H   0  0  0  0  0  0  0  0  0  0  0  0
    9.4651   -0.7786    0.0000 H   0  0  0  0  0  0  0  0  0  0  0  0
    8.4702   -2.2684    0.0000 H   0  0  0  0  0  0  0  0  0  0  0  0
    2.8660   -3.5886    0.0000 H   0  0  0  0  0  0  0  0  0  0  0  0
    3.3335   -3.9436    0.0000 H   0  0  0  0  0  0  0  0  0  0  0  0
    4.1306   -3.9436    0.0000 H   0  0  0  0  0  0  0  0  0  0  0  0
    3.9781   -1.9687    0.0000 H   0  0  0  0  0  0  0  0  0  0  0  0
    5.4641   -4.0886    0.0000 H   0  0  0  0  0  0  0  0  0  0  0  0
    8.0622    0.6514    0.0000 H   0  0  0  0  0  0  0  0  0  0  0  0
    8.3293   -1.3082    0.0000 H   0  0  0  0  0  0  0  0  0  0  0  0
    8.6182   -2.0056    0.0000 H   0  0  0  0  0  0  0  0  0  0  0  0
    7.5059   -2.9252    0.0000 H   0  0  0  0  0  0  0  0  0  0  0  0
    7.6745   -2.0648    0.0000 H   0  0  0  0  0  0  0  0  0  0  0  0
    6.8141   -1.8962    0.0000 H   0  0  0  0  0  0  0  0  0  0  0  0
    3.7320   -0.8486    0.0000 H   0  0  0  0  0  0  0  0  0  0  0  0
    4.9081    0.5683    0.0000 H   0  0  0  0  0  0  0  0  0  0  0  0
    4.0611    0.3414    0.0000 H   0  0  0  0  0  0  0  0  0  0  0  0
    4.2881   -0.5056    0.0000 H   0  0  0  0  0  0  0  0  0  0  0  0
    8.6671   -1.6819    0.0000 H   0  0  0  0  0  0  0  0  0  0  0  0
    8.1035   -1.0102    0.0000 H   0  0  0  0  0  0  0  0  0  0  0  0
    7.4318   -1.5738    0.0000 H   0  0  0  0  0  0  0  0  0  0  0  0
    1.6900   -2.9317    0.0000 H   0  0  0  0  0  0  0  0  0  0  0  0
    1.4631   -3.7786    0.0000 H   0  0  0  0  0  0  0  0  0  0  0  0
    2.3100   -4.0056    0.0000 H   0  0  0  0  0  0  0  0  0  0  0  0
    5.5652    4.0886    0.0000 H   0  0  0  0  0  0  0  0  0  0  0  0
    3.4220   -1.9318    0.0000 H   0  0  0  0  0  0  0  0  0  0  0  0
    3.1952   -2.7788    0.0000 H   0  0  0  0  0  0  0  0  0  0  0  0
    4.0422   -3.0056    0.0000 H   0  0  0  0  0  0  0  0  0  0  0  0
    5.4587   -2.9075    0.0000 H   0  0  0  0  0  0  0  0  0  0  0  0
    5.3823   -2.0341    0.0000 H   0  0  0  0  0  0  0  0  0  0  0  0
    4.5088   -2.1105    0.0000 H   0  0  0  0  0  0  0  0  0  0  0  0
    4.2250    0.7260    0.0000 H   0  0  0  0  0  0  0  0  0  0  0  0
    3.5568    3.8963    0.0000 H   0  0  0  0  0  0  0  0  0  0  0  0
   10.6603   -1.0886    0.0000 H   0  0  0  0  0  0  0  0  0  0  0  0
    9.2573    1.3414    0.0000 H   0  0  0  0  0  0  0  0  0  0  0  0
    2.6851    1.2293    0.0000 H   0  0  0  0  0  0  0  0  0  0  0  0
    2.3511    2.8145    0.0000 H   0  0  0  0  0  0  0  0  0  0  0  0
   12.0632   -0.2786    0.0000 H   0  0  0  0  0  0  0  0  0  0  0  0
   10.6603    2.1514    0.0000 H   0  0  0  0  0  0  0  0  0  0  0  0
   12.9292    1.2214    0.0000 H   0  0  0  0  0  0  0  0  0  0  0  0
  1 31  1  0  0  0  0
  2 19  1  0  0  0  0
  2 36  1  0  0  0  0
  3 18  2  0  0  0  0
  4 23  2  0  0  0  0
  5 28  2  0  0  0  0
  6 36  2  0  0  0  0
  7 47  1  0  0  0  0
  7 92  1  0  0  0  0
  8 12  1  0  0  0  0
  8 23  1  0  0  0  0
  8 30  1  0  0  0  0
  9 17  1  0  0  0  0
  9 18  1  0  0  0  0
  9 61  1  0  0  0  0
 10 22  1  0  0  0  0
 10 28  1  0  0  0  0
 10 67  1  0  0  0  0
 11 31  1  0  0  0  0
 11 33  1  0  0  0  0
 11 77  1  0  0  0  0
 12 13  1  6  0  0  0
 12 18  1  0  0  0  0
 12 48  1  0  0  0  0
 13 16  1  0  0  0  0
 13 49  1  0  0  0  0
 13 50  1  0  0  0  0
 14 15  1  0  0  0  0
 14 25  1  0  0  0  0
 14 29  1  6  0  0  0
 14 51  1  0  0  0  0
 15 19  1  0  0  0  0
 15 52  1  0  0  0  0
 15 53  1  0  0  0  0
 16 27  1  0  0  0  0
 16 31  2  0  0  0  0
 17 26  1  0  0  0  0
 17 32  1  1  0  0  0
 17 54  1  0  0  0  0
 19 34  1  6  0  0  0
 19 55  1  0  0  0  0
 20 21  1  0  0  0  0
 20 28  1  0  0  0  0
 20 35  1  6  0  0  0
 20 56  1  0  0  0  0
 21 24  1  0  0  0  0
 21 57  1  0  0  0  0
 21 58  1  0  0  0  0
 22 23  1  0  0  0  0
 22 37  1  6  0  0  0
 22 59  1  0  0  0  0
 24 25  2  0  0  0  0
 24 38  1  0  0  0  0
 25 60  1  0  0  0  0
 26 36  1  0  0  0  0
 26 62  1  0  0  0  0
 26 63  1  0  0  0  0
 27 33  1  0  0  0  0
 27 39  2  0  0  0  0
 29 64  1  0  0  0  0
 29 65  1  0  0  0  0
 29 66  1  0  0  0  0
 30 68  1  0  0  0  0
 30 69  1  0  0  0  0
 30 70  1  0  0  0  0
 32 41  2  0  0  0  0
 32 42  1  0  0  0  0
 33 40  2  0  0  0  0
 34 71  1  0  0  0  0
 34 72  1  0  0  0  0
 34 73  1  0  0  0  0
 35 74  1  0  0  0  0
 35 75  1  0  0  0  0
 35 76  1  0  0  0  0
 37 78  1  0  0  0  0
 37 79  1  0  0  0  0
 37 80  1  0  0  0  0
 38 81  1  0  0  0  0
 38 82  1  0  0  0  0
 38 83  1  0  0  0  0
 39 43  1  0  0  0  0
 39 84  1  0  0  0  0
 40 44  1  0  0  0  0
 40 85  1  0  0  0  0
 41 45  1  0  0  0  0
 41 86  1  0  0  0  0
 42 46  2  0  0  0  0
 42 87  1  0  0  0  0
 43 44  2  0  0  0  0
 43 88  1  0  0  0  0
 44 89  1  0  0  0  0
 45 47  2  0  0  0  0
 45 90  1  0  0  0  0
 46 47  1  0  0  0  0
 46 91  1  0  0  0  0
M  END
> <PUBCHEM_COMPOUND_CID>
9831636

> <PUBCHEM_COMPOUND_CANONICALIZED>
1

> <PUBCHEM_CACTVS_COMPLEXITY>
1140

> <PUBCHEM_CACTVS_HBOND_ACCEPTOR>
6

> <PUBCHEM_CACTVS_HBOND_DONOR>
4

> <PUBCHEM_CACTVS_ROTATABLE_BOND>
3

> <PUBCHEM_CACTVS_SUBSKEYS>
AAADcfB/uAAAEAAAAAAAAAAAAAAAAWAAAAAwYAAAAAAAAFgB9AAAHgBQCAABPTzhngYyzvPJlgCoAyXyXACCgCAhIiQImaG+bLgIZvrCkbOWcAhm1hHI2heY2eOOoAAAAAACAABAAAAAAAQAAAAAAAAAAA==

> <PUBCHEM_IUPAC_OPENEYE_NAME>
(4R,7R,10S,13S,15E,17R,19S)-7-[(2-bromo-1H-indol-3-yl)methyl]-4-(4-hydroxyphenyl)-8,10,13,15,17,19-hexamethyl-1-oxa-5,8,11-triazacyclononadec-15-ene-2,6,9,12-tetrone

> <PUBCHEM_IUPAC_CAS_NAME>
(4R,7R,10S,13S,15E,17R,19S)-7-[(2-bromo-1H-indol-3-yl)methyl]-4-(4-hydroxyphenyl)-8,10,13,15,17,19-hexamethyl-1-oxa-5,8,11-triazacyclononadec-15-ene-2,6,9,12-tetrone

> <PUBCHEM_IUPAC_NAME>
(4R,7R,10S,13S,15E,17R,19S)-7-[(2-bromo-1H-indol-3-yl)methyl]-4-(4-hydroxyphenyl)-8,10,13,15,17,19-hexamethyl-1-oxa-5,8,11-triazacyclononadec-15-ene-2,6,9,12-tetrone

> <PUBCHEM_IUPAC_SYSTEMATIC_NAME>
(4R,7R,10S,13S,15E,17R,19S)-7-[(2-bromanyl-1H-indol-3-yl)methyl]-4-(4-hydroxyphenyl)-8,10,13,15,17,19-hexamethyl-1-oxa-5,8,11-triazacyclononadec-15-ene-2,6,9,12-tetrone

> <PUBCHEM_IUPAC_TRADITIONAL_NAME>
(4R,7R,10S,13S,15E,17R,19S)-7-[(2-bromo-1H-indol-3-yl)methyl]-4-(4-hydroxyphenyl)-8,10,13,15,17,19-hexamethyl-1-oxa-5,8,11-triazacyclononadec-15-ene-2,6,9,12-diquinone

> <PUBCHEM_IUPAC_INCHI>
InChI=1S/C36H45BrN4O6/c1-20-15-21(2)17-23(4)47-32(43)19-30(25-11-13-26(42)14-12-25)40-35(45)31(18-28-27-9-7-8-10-29(27)39-33(28)37)41(6)36(46)24(5)38-34(44)22(3)16-20/h7-15,21-24,30-31,39,42H,16-19H2,1-6H3,(H,38,44)(H,40,45)/b20-15+/t21-,22-,23-,24-,30+,31+/m0/s1

> <PUBCHEM_IUPAC_INCHIKEY>
GQWYWHOHRVVHAP-DHKPLNAMSA-N

> <PUBCHEM_XLOGP3_AA>
5.6

> <PUBCHEM_EXACT_MASS>
708.252247

> <PUBCHEM_MOLECULAR_FORMULA>
C36H45BrN4O6

> <PUBCHEM_MOLECULAR_WEIGHT>
709.6697

> <PUBCHEM_OPENEYE_CAN_SMILES>
CC1CC(OC(=O)CC(NC(=O)C(N(C(=O)C(NC(=O)C(CC(=C1)C)C)C)C)CC2=C(NC3=CC=CC=C32)Br)C4=CC=C(C=C4)O)C

> <PUBCHEM_OPENEYE_ISO_SMILES>
C[C@@H]\1C[C@@H](OC(=O)C[C@@H](NC(=O)[C@H](N(C(=O)[C@@H](NC(=O)[C@H](C/C(=C1)/C)C)C)C)CC2=C(NC3=CC=CC=C32)Br)C4=CC=C(C=C4)O)C

> <PUBCHEM_CACTVS_TPSA>
141

> <PUBCHEM_MONOISOTOPIC_WEIGHT>
708.252247

> <PUBCHEM_TOTAL_CHARGE>
0

> <PUBCHEM_HEAVY_ATOM_COUNT>
47

> <PUBCHEM_ATOM_DEF_STEREO_COUNT>
6

> <PUBCHEM_ATOM_UDEF_STEREO_COUNT>
0

> <PUBCHEM_BOND_DEF_STEREO_COUNT>
1

> <PUBCHEM_BOND_UDEF_STEREO_COUNT>
0

> <PUBCHEM_ISOTOPIC_ATOM_COUNT>
0

> <PUBCHEM_COMPONENT_COUNT>
1

> <PUBCHEM_CACTVS_TAUTO_COUNT>
72

> <PUBCHEM_COORDINATE_TYPE>
1
5
255

> <PUBCHEM_BONDANNOTATIONS>
11  31  8
11  33  8
12  13  6
14  29  6
16  27  8
16  31  8
17  32  5
19  34  6
20  35  6
22  37  6
27  33  8
27  39  8
32  41  8
32  42  8
33  40  8
39  43  8
40  44  8
41  45  8
42  46  8
43  44  8
45  47  8
46  47  8

$$$$

