443291
  -OEChem-07051213012D

 84 88  0     1  0  0  0  0  0999 V2000
    6.1560    4.1388    0.0000 S   0  0  0  0  0  0  0  0  0  0  0  0
    9.9078    0.2206    0.0000 O   0  0  0  0  0  0  0  0  0  0  0  0
    8.1053    0.3701    0.0000 O   0  0  0  0  0  0  0  0  0  0  0  0
    7.9872   -0.5265    0.0000 O   0  0  0  0  0  0  0  0  0  0  0  0
    5.5071    3.8700    0.0000 O   0  0  0  0  0  0  0  0  0  0  0  0
    6.3397    0.5324    0.0000 O   0  0  0  0  0  0  0  0  0  0  0  0
   10.9454   -2.6238    0.0000 O   0  0  0  0  0  0  0  0  0  0  0  0
   10.6686   -0.9140    0.0000 O   0  0  0  0  0  0  0  0  0  0  0  0
    8.9712    0.8700    0.0000 N   0  0  0  0  0  0  0  0  0  0  0  0
    6.3732    1.3700    0.0000 N   0  0  0  0  0  0  0  0  0  0  0  0
    7.7284   -1.4924    0.0000 N   0  0  0  0  0  0  0  0  0  0  0  0
    4.6411    2.3700    0.0000 N   0  0  0  0  0  0  0  0  0  0  0  0
    5.3482   -0.3371    0.0000 N   0  0  0  0  0  0  0  0  0  0  0  0
    3.2235   -2.1819    0.0000 N   0  0  0  0  0  0  0  0  0  0  0  0
    8.1052    1.3700    0.0000 C   0  0  1  0  0  0  0  0  0  0  0  0
    8.3144    2.3419    0.0000 C   0  0  0  0  0  0  0  0  0  0  0  0
    9.3031    2.4449    0.0000 C   0  0  0  0  0  0  0  0  0  0  0  0
    9.7082    1.5371    0.0000 C   0  0  0  0  0  0  0  0  0  0  0  0
    8.9712   -0.1300    0.0000 C   0  0  0  0  0  0  0  0  0  0  0  0
    7.2392    0.8700    0.0000 C   0  0  0  0  0  0  0  0  0  0  0  0
    8.6943   -1.2336    0.0000 C   0  0  1  0  0  0  0  0  0  0  0  0
    6.3732    2.3700    0.0000 C   0  0  1  0  0  0  0  0  0  0  0  0
    9.3263   -2.0086    0.0000 C   0  0  0  0  0  0  0  0  0  0  0  0
    6.0553   -1.0442    0.0000 C   0  0  1  0  0  0  0  0  0  0  0  0
    4.6411    1.3700    0.0000 C   0  0  1  0  0  0  0  0  0  0  0  0
    3.7172    0.9874    0.0000 C   0  0  0  0  0  0  0  0  0  0  0  0
    7.0212   -0.7853    0.0000 C   0  0  0  0  0  0  0  0  0  0  0  0
    5.7965   -2.0101    0.0000 C   0  0  0  0  0  0  0  0  0  0  0  0
    2.9239    1.5961    0.0000 C   0  0  0  0  0  0  0  0  0  0  0  0
    5.5071    2.8700    0.0000 C   0  0  0  0  0  0  0  0  0  0  0  0
    5.3482    0.6629    0.0000 C   0  0  0  0  0  0  0  0  0  0  0  0
    6.7152    3.3097    0.0000 C   0  0  0  0  0  0  0  0  0  0  0  0
    4.8306   -2.2689    0.0000 C   0  0  0  0  0  0  0  0  0  0  0  0
   10.3134   -1.8488    0.0000 C   0  0  0  0  0  0  0  0  0  0  0  0
    2.0000    1.2134    0.0000 C   0  0  0  0  0  0  0  0  0  0  0  0
    3.0544    2.5876    0.0000 C   0  0  0  0  0  0  0  0  0  0  0  0
    4.4751   -3.1973    0.0000 C   0  0  0  0  0  0  0  0  0  0  0  0
    4.0586   -1.6426    0.0000 C   0  0  0  0  0  0  0  0  0  0  0  0
    3.4766   -3.1432    0.0000 C   0  0  0  0  0  0  0  0  0  0  0  0
    7.6764    3.5854    0.0000 C   0  0  0  0  0  0  0  0  0  0  0  0
    4.9276   -4.0891    0.0000 C   0  0  0  0  0  0  0  0  0  0  0  0
    7.7113    4.5848    0.0000 C   0  0  0  0  0  0  0  0  0  0  0  0
    2.9305   -3.9809    0.0000 C   0  0  0  0  0  0  0  0  0  0  0  0
    6.7716    4.9268    0.0000 C   0  0  0  0  0  0  0  0  0  0  0  0
    4.3815   -4.9268    0.0000 C   0  0  0  0  0  0  0  0  0  0  0  0
    3.3830   -4.8727    0.0000 C   0  0  0  0  0  0  0  0  0  0  0  0
    7.4182    1.8706    0.0000 H   0  0  0  0  0  0  0  0  0  0  0  0
    8.3153    2.9619    0.0000 H   0  0  0  0  0  0  0  0  0  0  0  0
    7.6980    2.4079    0.0000 H   0  0  0  0  0  0  0  0  0  0  0  0
    9.8927    2.6367    0.0000 H   0  0  0  0  0  0  0  0  0  0  0  0
    9.1744    3.0514    0.0000 H   0  0  0  0  0  0  0  0  0  0  0  0
   10.0737    1.0363    0.0000 H   0  0  0  0  0  0  0  0  0  0  0  0
   10.2447    1.8479    0.0000 H   0  0  0  0  0  0  0  0  0  0  0  0
    8.5037   -1.8236    0.0000 H   0  0  0  0  0  0  0  0  0  0  0  0
    5.8362    1.0600    0.0000 H   0  0  0  0  0  0  0  0  0  0  0  0
    7.2102    2.2224    0.0000 H   0  0  0  0  0  0  0  0  0  0  0  0
    8.7850   -2.3111    0.0000 H   0  0  0  0  0  0  0  0  0  0  0  0
    9.5301   -2.5941    0.0000 H   0  0  0  0  0  0  0  0  0  0  0  0
    5.4564   -1.2046    0.0000 H   0  0  0  0  0  0  0  0  0  0  0  0
    7.5679   -2.0913    0.0000 H   0  0  0  0  0  0  0  0  0  0  0  0
    4.1256    1.7145    0.0000 H   0  0  0  0  0  0  0  0  0  0  0  0
    3.2601    0.5685    0.0000 H   0  0  0  0  0  0  0  0  0  0  0  0
    4.0504    0.4645    0.0000 H   0  0  0  0  0  0  0  0  0  0  0  0
    5.8505   -2.6277    0.0000 H   0  0  0  0  0  0  0  0  0  0  0  0
    6.4142   -2.0641    0.0000 H   0  0  0  0  0  0  0  0  0  0  0  0
    3.4967    1.8334    0.0000 H   0  0  0  0  0  0  0  0  0  0  0  0
    4.1042    2.6800    0.0000 H   0  0  0  0  0  0  0  0  0  0  0  0
    4.7754   -0.5743    0.0000 H   0  0  0  0  0  0  0  0  0  0  0  0
    1.7627    1.7862    0.0000 H   0  0  0  0  0  0  0  0  0  0  0  0
    1.4272    0.9762    0.0000 H   0  0  0  0  0  0  0  0  0  0  0  0
    2.2373    0.6406    0.0000 H   0  0  0  0  0  0  0  0  0  0  0  0
    3.6691    2.5066    0.0000 H   0  0  0  0  0  0  0  0  0  0  0  0
    3.1353    3.2023    0.0000 H   0  0  0  0  0  0  0  0  0  0  0  0
    2.4397    2.6685    0.0000 H   0  0  0  0  0  0  0  0  0  0  0  0
    4.0921   -1.0236    0.0000 H   0  0  0  0  0  0  0  0  0  0  0  0
    8.1650    3.2037    0.0000 H   0  0  0  0  0  0  0  0  0  0  0  0
    2.6454   -1.9577    0.0000 H   0  0  0  0  0  0  0  0  0  0  0  0
    5.5467   -4.1226    0.0000 H   0  0  0  0  0  0  0  0  0  0  0  0
    8.2254    4.9315    0.0000 H   0  0  0  0  0  0  0  0  0  0  0  0
    2.3114   -3.9474    0.0000 H   0  0  0  0  0  0  0  0  0  0  0  0
    6.6008    5.5228    0.0000 H   0  0  0  0  0  0  0  0  0  0  0  0
   11.5574   -2.5247    0.0000 H   0  0  0  0  0  0  0  0  0  0  0  0
    4.6620   -5.4797    0.0000 H   0  0  0  0  0  0  0  0  0  0  0  0
    3.0444   -5.3921    0.0000 H   0  0  0  0  0  0  0  0  0  0  0  0
  1 32  1  0  0  0  0
  1 44  1  0  0  0  0
  2 19  2  0  0  0  0
  3 20  2  0  0  0  0
  4 27  2  0  0  0  0
  5 30  2  0  0  0  0
  6 31  2  0  0  0  0
  7 34  1  0  0  0  0
  7 82  1  0  0  0  0
  8 34  2  0  0  0  0
  9 15  1  0  0  0  0
  9 18  1  0  0  0  0
  9 19  1  0  0  0  0
 10 20  1  0  0  0  0
 10 22  1  0  0  0  0
 10 55  1  0  0  0  0
 11 21  1  0  0  0  0
 11 27  1  0  0  0  0
 11 60  1  0  0  0  0
 12 25  1  0  0  0  0
 12 30  1  0  0  0  0
 12 67  1  0  0  0  0
 13 24  1  0  0  0  0
 13 31  1  0  0  0  0
 13 68  1  0  0  0  0
 14 38  1  0  0  0  0
 14 39  1  0  0  0  0
 14 77  1  0  0  0  0
 15 16  1  0  0  0  0
 15 20  1  0  0  0  0
 15 47  1  1  0  0  0
 16 17  1  0  0  0  0
 16 48  1  0  0  0  0
 16 49  1  0  0  0  0
 17 18  1  0  0  0  0
 17 50  1  0  0  0  0
 17 51  1  0  0  0  0
 18 52  1  0  0  0  0
 18 53  1  0  0  0  0
 19 21  1  0  0  0  0
 21 23  1  1  0  0  0
 21 54  1  0  0  0  0
 22 30  1  0  0  0  0
 22 32  1  0  0  0  0
 22 56  1  6  0  0  0
 23 34  1  0  0  0  0
 23 57  1  0  0  0  0
 23 58  1  0  0  0  0
 24 27  1  0  0  0  0
 24 28  1  1  0  0  0
 24 59  1  0  0  0  0
 25 26  1  6  0  0  0
 25 31  1  0  0  0  0
 25 61  1  0  0  0  0
 26 29  1  0  0  0  0
 26 62  1  0  0  0  0
 26 63  1  0  0  0  0
 28 33  1  0  0  0  0
 28 64  1  0  0  0  0
 28 65  1  0  0  0  0
 29 35  1  0  0  0  0
 29 36  1  0  0  0  0
 29 66  1  0  0  0  0
 32 40  2  0  0  0  0
 33 37  1  0  0  0  0
 33 38  2  0  0  0  0
 35 69  1  0  0  0  0
 35 70  1  0  0  0  0
 35 71  1  0  0  0  0
 36 72  1  0  0  0  0
 36 73  1  0  0  0  0
 36 74  1  0  0  0  0
 37 39  1  0  0  0  0
 37 41  2  0  0  0  0
 38 75  1  0  0  0  0
 39 43  2  0  0  0  0
 40 42  1  0  0  0  0
 40 76  1  0  0  0  0
 41 45  1  0  0  0  0
 41 78  1  0  0  0  0
 42 44  2  0  0  0  0
 42 79  1  0  0  0  0
 43 46  1  0  0  0  0
 43 80  1  0  0  0  0
 44 81  1  0  0  0  0
 45 46  2  0  0  0  0
 45 83  1  0  0  0  0
 46 84  1  0  0  0  0
M  END
> <PUBCHEM_COMPOUND_CID>
443291

> <PUBCHEM_COMPOUND_CANONICALIZED>
1

> <PUBCHEM_CACTVS_COMPLEXITY>
1190

> <PUBCHEM_CACTVS_HBOND_ACCEPTOR>
8

> <PUBCHEM_CACTVS_HBOND_DONOR>
6

> <PUBCHEM_CACTVS_ROTATABLE_BOND>
7

> <PUBCHEM_CACTVS_SUBSKEYS>
AAADcfB/uABAAAAAAAAAAAAAAAAAAWLEgAAwAAAAAAAAAFgB/AAAHgQQCAAADSjF3gS+yfPJkgisAzX3XACDgKAxCjBI2bm4ZJgIYPrglbGUYAhmlgDoyAc/icCOgAAAAAACAAAAAAAAAAQAAAAAAAAAAA==

> <PUBCHEM_IUPAC_OPENEYE_NAME>
2-[(3R,6R,9S,12S,15S)-6-(1H-indol-3-ylmethyl)-9-isobutyl-2,5,8,11,14-pentaoxo-12-(2-thienyl)-1,4,7,10,13-pentazabicyclo[13.3.0]octadecan-3-yl]acetic acid

> <PUBCHEM_IUPAC_CAS_NAME>
2-[(3R,6R,9S,12S,15S)-6-(1H-indol-3-ylmethyl)-9-(2-methylpropyl)-2,5,8,11,14-pentaoxo-12-thiophen-2-yl-1,4,7,10,13-pentazabicyclo[13.3.0]octadecan-3-yl]acetic acid

> <PUBCHEM_IUPAC_NAME>
2-[(3R,6R,9S,12S,15S)-6-(1H-indol-3-ylmethyl)-9-(2-methylpropyl)-2,5,8,11,14-pentaoxo-12-thiophen-2-yl-1,4,7,10,13-pentazabicyclo[13.3.0]octadecan-3-yl]acetic acid

> <PUBCHEM_IUPAC_SYSTEMATIC_NAME>
2-[(3R,6R,9S,12S,15S)-6-(1H-indol-3-ylmethyl)-9-(2-methylpropyl)-2,5,8,11,14-pentakis(oxidanylidene)-12-thiophen-2-yl-1,4,7,10,13-pentazabicyclo[13.3.0]octadecan-3-yl]ethanoic acid

> <PUBCHEM_IUPAC_TRADITIONAL_NAME>
2-[(3R,6R,9S,12S,15S)-6-(1H-indol-3-ylmethyl)-9-isobutyl-2,5,8,11,14-pentaketo-12-(2-thienyl)-1,4,7,10,13-pentazabicyclo[13.3.0]octadecan-3-yl]acetic acid

> <PUBCHEM_IUPAC_INCHI>
InChI=1S/C32H38N6O7S/c1-17(2)13-21-28(41)34-22(14-18-16-33-20-8-4-3-7-19(18)20)29(42)36-23(15-26(39)40)32(45)38-11-5-9-24(38)30(43)37-27(31(44)35-21)25-10-6-12-46-25/h3-4,6-8,10,12,16-17,21-24,27,33H,5,9,11,13-15H2,1-2H3,(H,34,41)(H,35,44)(H,36,42)(H,37,43)(H,39,40)/t21-,22+,23+,24-,27+/m0/s1

> <PUBCHEM_IUPAC_INCHIKEY>
KXUDUVUGZWJNHV-QEXRHJMMSA-N

> <PUBCHEM_XLOGP3_AA>
2.2

> <PUBCHEM_EXACT_MASS>
650.252269

> <PUBCHEM_MOLECULAR_FORMULA>
C32H38N6O7S

> <PUBCHEM_MOLECULAR_WEIGHT>
650.74512

> <PUBCHEM_OPENEYE_CAN_SMILES>
CC(C)CC1C(=O)NC(C(=O)NC(C(=O)N2CCCC2C(=O)NC(C(=O)N1)C3=CC=CS3)CC(=O)O)CC4=CNC5=CC=CC=C54

> <PUBCHEM_OPENEYE_ISO_SMILES>
CC(C)C[C@H]1C(=O)N[C@@H](C(=O)N[C@@H](C(=O)N2CCC[C@H]2C(=O)N[C@@H](C(=O)N1)C3=CC=CS3)CC(=O)O)CC4=CNC5=CC=CC=C54

> <PUBCHEM_CACTVS_TPSA>
218

> <PUBCHEM_MONOISOTOPIC_WEIGHT>
650.252269

> <PUBCHEM_TOTAL_CHARGE>
0

> <PUBCHEM_HEAVY_ATOM_COUNT>
46

> <PUBCHEM_ATOM_DEF_STEREO_COUNT>
5

> <PUBCHEM_ATOM_UDEF_STEREO_COUNT>
0

> <PUBCHEM_BOND_DEF_STEREO_COUNT>
0

> <PUBCHEM_BOND_UDEF_STEREO_COUNT>
0

> <PUBCHEM_ISOTOPIC_ATOM_COUNT>
0

> <PUBCHEM_COMPONENT_COUNT>
1

> <PUBCHEM_CACTVS_TAUTO_COUNT>
162

> <PUBCHEM_COORDINATE_TYPE>
1
5
255

> <PUBCHEM_BONDANNOTATIONS>
1  32  8
1  44  8
14  38  8
14  39  8
15  47  5
21  23  5
22  56  6
24  28  5
25  26  6
32  40  8
33  37  8
33  38  8
37  39  8
37  41  8
39  43  8
40  42  8
41  45  8
42  44  8
43  46  8
45  46  8

$$$$

