   Color/Form
        COLORLESS LIQUID
   from [1]HSDB

   Odor

     * FAINT FISHY ODOR
     * Amine odor.

   from [2]HSDB

   Boiling Point
        255.8 DEG C @ 760 MM HG
   from [3]HSDB

   Melting Point
        -0.1 Deg C
   from [4]HSDB

   Density/Specific Gravity
        0.9104 at 25 deg C/25 deg C
   from [5]HSDB

   Dissociation Constants
        pKa = 10.4
   from [6]HSDB

   pH
        STRONG BASE
   from [7]HSDB

   Solubilities

     * SPARINGLY SOL IN WATER; SOL IN USUAL ORGANIC SOLVENTS; MISCIBLE
       WITH CYCLOHEXYLAMINE
     * Soluble in ethanol, ether, benzene.
     * Soluble in oxygenated solvents.

   from [8]HSDB

   Spectral Properties

     * INDEX OF REFRACTION: 1.4823 @ 25 DEG C/D
     * IR: 208 (Sadtler Research Laboratories IR Grating Collection)
     * NMR: 10404 (Sadtler Research Laboratories Spectral Collection)
     * MASS: 143 (Aldermaston, Eight Peak Index of Mass Spectra, UK)

   from [9]HSDB

   Vapor Density
        6.25 (AIR= 1)
   from [10]HSDB

   Vapor Pressure
        3.38X10-2 at 25 deg C
   from [11]HSDB

   Other Chemical/Physical Properties
        READILY FORMS ADDUCTS WITH SOLVENTS
   from [12]HSDB

   Computed Properties
   Molecular Weight                  181.31772 [g/mol]
   Molecular Formula                 C[12]H[23]N
   XLogP3-AA                         3.4
   H-Bond Donor                      1
   H-Bond Acceptor                   1
   Rotatable Bond Count              2
   Exact Mass                        181.18305
   MonoIsotopic Mass                 181.18305
   Topological Polar Surface Area    12
   Heavy Atom Count                  13
   Formal Charge                     0
   Complexity                        116
   Isotope Atom Count                0
   Defined Atom Stereocenter Count   0
   Undefined Atom Stereocenter Count 0
   Defined Bond Stereocenter Count   0
   Undefined Bond Stereocenter Count 0
   Covalently-Bonded Unit Count      1
   Feature 3D Donor Count            1
   Feature 3D Cation Count           1
   Feature 3D Ring Count             2
   Effective Rotor Count             4.4
   Conformer Sampling RMSD           0.6
   CID Conformer Count               [13]9

References

   1. http://toxnet.nlm.nih.gov/cgi-bin/sis/search/r?dbs+hsdb:@term+@rn+@rel+101-83-7
   2. http://toxnet.nlm.nih.gov/cgi-bin/sis/search/r?dbs+hsdb:@term+@rn+@rel+101-83-7
   3. http://toxnet.nlm.nih.gov/cgi-bin/sis/search/r?dbs+hsdb:@term+@rn+@rel+101-83-7
   4. http://toxnet.nlm.nih.gov/cgi-bin/sis/search/r?dbs+hsdb:@term+@rn+@rel+101-83-7
   5. http://toxnet.nlm.nih.gov/cgi-bin/sis/search/r?dbs+hsdb:@term+@rn+@rel+101-83-7
   6. http://toxnet.nlm.nih.gov/cgi-bin/sis/search/r?dbs+hsdb:@term+@rn+@rel+101-83-7
   7. http://toxnet.nlm.nih.gov/cgi-bin/sis/search/r?dbs+hsdb:@term+@rn+@rel+101-83-7
   8. http://toxnet.nlm.nih.gov/cgi-bin/sis/search/r?dbs+hsdb:@term+@rn+@rel+101-83-7
   9. http://toxnet.nlm.nih.gov/cgi-bin/sis/search/r?dbs+hsdb:@term+@rn+@rel+101-83-7
  10. http://toxnet.nlm.nih.gov/cgi-bin/sis/search/r?dbs+hsdb:@term+@rn+@rel+101-83-7
  11. http://toxnet.nlm.nih.gov/cgi-bin/sis/search/r?dbs+hsdb:@term+@rn+@rel+101-83-7
  12. http://toxnet.nlm.nih.gov/cgi-bin/sis/search/r?dbs+hsdb:@term+@rn+@rel+101-83-7
  13. http://pubchem.ncbi.nlm.nih.gov/vw3d/vw3d.cgi?cid=7582
