   Color/Form

     * Colorless, transparent crystals or white, crystalline powder
     * Colorless and transparent or translucent when in large crystals.

   from [1]HSDB

   Taste
        SRP: SALTY
   from [2]HSDB

   Boiling Point
        1465 deg C
   from [3]HSDB

   Melting Point
        801 deg C
   from [4]HSDB

   Corrosivity
        Sodium chloride solutions are corrosive to base metals
   from [5]HSDB

   Density/Specific Gravity
        2.17 at 25 deg C/4 deg C
   from [6]HSDB

   pH
        pH = 6.7 to 7.3; its aqueous solution is neutral
   from [7]HSDB

   Solubilities

     * Very slightly soluble in alcohol
     * 0.065 g/100 g ethanol at 25 deg C, 7.15 g/100 g ethylene glycol at
       25 deg C, 5.21 g/100 g formic acid at 25 deg C, 10 g/100 g glycerol
       at 25 deg C, 2.15 g /100 g liquid ammonia at -40 deg C, 1.40 g/100g
       methanol at 25 deg C, 1.86 g/100 g monoethanolamine at 25 deg C
       /Table/
     * 35.7 g/100 ml of water at 0 deg C; 39.12 g/100 ml of water at 100
       deg C
     * Soluble in ammonia. Insoluble in hydrochloric acid
     * One gram dissolves in ... 2.6 mL boiling water, in 10 mL glycerol
     * One gram dissolves in 2.8 mL water /3.57X10+5 mg/L/ at 25 deg C

   from [8]HSDB

   Spectral Properties
        Index of refraction: 1.5442 /Table/
   from [9]HSDB

   Surface Tension
        110 mN/m of molten sodium chloride at 850 deg C
   from [10]HSDB

   Vapor Pressure
        1 mm Hg at 865 deg C
   from [11]HSDB

   Viscosity
        Viscosity of saturated aqueous solution = 1.93 mPa-s
   from [12]HSDB

   Other Chemical/Physical Properties

     * A 23% aqueous solution of sodium chloride freezes at -20.5 deg C.
       ... Density of saturated aqueous solution at 25 deg C is 1.202 ...
       Begins to volatilize at a little above its melting point. ... Its
       solubility is decreased by hydrogen chloride.
     * Somewhat hygroscopic
     * Specific heat = 0.853 J/g-k /Table/
     * Enthalpy of formation = -410.9 kJ/mol at 25 deg C ... Density of
       molten sodium chloride at 805 deg C = 1.549 g/cu cm

   from [13]HSDB

   Computed Properties
   Molecular Weight                  58.442769 [g/mol]
   Molecular Formula                 ClNa
   H-Bond Donor                      0
   H-Bond Acceptor                   1
   Rotatable Bond Count              0
   Exact Mass                        57.958622
   MonoIsotopic Mass                 57.958622
   Topological Polar Surface Area    0
   Heavy Atom Count                  2
   Formal Charge                     0
   Complexity                        2
   Isotope Atom Count                0
   Defined Atom Stereocenter Count   0
   Undefined Atom Stereocenter Count 0
   Defined Bond Stereocenter Count   0
   Undefined Bond Stereocenter Count 0
   Covalently-Bonded Unit Count      2

References

   1. http://toxnet.nlm.nih.gov/cgi-bin/sis/search/r?dbs+hsdb:@term+@rn+@rel+7647-14-5
   2. http://toxnet.nlm.nih.gov/cgi-bin/sis/search/r?dbs+hsdb:@term+@rn+@rel+7647-14-5
   3. http://toxnet.nlm.nih.gov/cgi-bin/sis/search/r?dbs+hsdb:@term+@rn+@rel+7647-14-5
   4. http://toxnet.nlm.nih.gov/cgi-bin/sis/search/r?dbs+hsdb:@term+@rn+@rel+7647-14-5
   5. http://toxnet.nlm.nih.gov/cgi-bin/sis/search/r?dbs+hsdb:@term+@rn+@rel+7647-14-5
   6. http://toxnet.nlm.nih.gov/cgi-bin/sis/search/r?dbs+hsdb:@term+@rn+@rel+7647-14-5
   7. http://toxnet.nlm.nih.gov/cgi-bin/sis/search/r?dbs+hsdb:@term+@rn+@rel+7647-14-5
   8. http://toxnet.nlm.nih.gov/cgi-bin/sis/search/r?dbs+hsdb:@term+@rn+@rel+7647-14-5
   9. http://toxnet.nlm.nih.gov/cgi-bin/sis/search/r?dbs+hsdb:@term+@rn+@rel+7647-14-5
  10. http://toxnet.nlm.nih.gov/cgi-bin/sis/search/r?dbs+hsdb:@term+@rn+@rel+7647-14-5
  11. http://toxnet.nlm.nih.gov/cgi-bin/sis/search/r?dbs+hsdb:@term+@rn+@rel+7647-14-5
  12. http://toxnet.nlm.nih.gov/cgi-bin/sis/search/r?dbs+hsdb:@term+@rn+@rel+7647-14-5
  13. http://toxnet.nlm.nih.gov/cgi-bin/sis/search/r?dbs+hsdb:@term+@rn+@rel+7647-14-5
