   Color/Form
        Colorless liquid
   from [1]HSDB

   Boiling Point
        219.5 deg C
   from [2]HSDB

   Density/Specific Gravity
        0.904 at 25 deg C/4 deg C
   from [3]HSDB

   Dissociation Constants
        pKa = 4.6
   from [4]HSDB

   Octanol/Water Partition Coefficient
        log Kow = 2.75
   from [5]HSDB

   Solubilities

     * Very soluble in organic solvents
     * Soluble in most organic solvents including methanol, chloroform,
       and ether.
     * In water, 2.0X10+3 mg/L at 20 deg C

   from [6]HSDB

   Spectral Properties
        Index of refraction = 1.425 at 24.5 deg C/D
   from [7]HSDB

   Vapor Pressure
        4.58X10-2 mm Hg at 25 deg C (est)
   from [8]HSDB

   Other Chemical/Physical Properties

     * BP: 221 to 222 deg C at 101.3 kPa
     * Henry's Law constant = 3.0X10-6 atm-cu m/mol at 25 deg C (est)
     * Hydroxyl radical reaction rate constant = 8.18X10-12 cu
       cm/molec-sec at 25 deg C (est)

   from [9]HSDB

   Computed Properties
   Molecular Weight                  144.21144 [g/mol]
   Molecular Formula                 C[8]H[16]O[2]
   XLogP3                            2.8
   H-Bond Donor                      1
   H-Bond Acceptor                   2
   Rotatable Bond Count              5
   Exact Mass                        144.11503
   MonoIsotopic Mass                 144.11503
   Topological Polar Surface Area    37.3
   Heavy Atom Count                  10
   Formal Charge                     0
   Complexity                        93.4
   Isotope Atom Count                0
   Defined Atom Stereocenter Count   0
   Undefined Atom Stereocenter Count 0
   Defined Bond Stereocenter Count   0
   Undefined Bond Stereocenter Count 0
   Covalently-Bonded Unit Count      1
   Feature 3D Acceptor Count         2
   Feature 3D Anion Count            1
   Feature 3D Hydrophobe Count       3
   Effective Rotor Count             5
   Conformer Sampling RMSD           0.6
   CID Conformer Count               [10]43

References

   1. http://toxnet.nlm.nih.gov/cgi-bin/sis/search/r?dbs+hsdb:@term+@rn+@rel+99-66-1
   2. http://toxnet.nlm.nih.gov/cgi-bin/sis/search/r?dbs+hsdb:@term+@rn+@rel+99-66-1
   3. http://toxnet.nlm.nih.gov/cgi-bin/sis/search/r?dbs+hsdb:@term+@rn+@rel+99-66-1
   4. http://toxnet.nlm.nih.gov/cgi-bin/sis/search/r?dbs+hsdb:@term+@rn+@rel+99-66-1
   5. http://toxnet.nlm.nih.gov/cgi-bin/sis/search/r?dbs+hsdb:@term+@rn+@rel+99-66-1
   6. http://toxnet.nlm.nih.gov/cgi-bin/sis/search/r?dbs+hsdb:@term+@rn+@rel+99-66-1
   7. http://toxnet.nlm.nih.gov/cgi-bin/sis/search/r?dbs+hsdb:@term+@rn+@rel+99-66-1
   8. http://toxnet.nlm.nih.gov/cgi-bin/sis/search/r?dbs+hsdb:@term+@rn+@rel+99-66-1
   9. http://toxnet.nlm.nih.gov/cgi-bin/sis/search/r?dbs+hsdb:@term+@rn+@rel+99-66-1
  10. http://pubchem.ncbi.nlm.nih.gov/vw3d/vw3d.cgi?cid=3121
