3213
  -OEChem-07051212562D

 33 36  0     0  0  0  0  0  0999 V2000
    4.5124    1.3037    0.0000 N   0  0  0  0  0  0  0  0  0  0  0  0
    8.3618   -1.3408    0.0000 N   0  0  0  0  0  0  0  0  0  0  0  0
    5.0091   -0.2295    0.0000 C   0  0  0  0  0  0  0  0  0  0  0  0
    5.3181    0.7215    0.0000 C   0  0  0  0  0  0  0  0  0  0  0  0
    5.6782   -0.9727    0.0000 C   0  0  0  0  0  0  0  0  0  0  0  0
    4.0150   -0.2270    0.0000 C   0  0  0  0  0  0  0  0  0  0  0  0
    6.2962    0.9294    0.0000 C   0  0  0  0  0  0  0  0  0  0  0  0
    6.9654    0.1863    0.0000 C   0  0  0  0  0  0  0  0  0  0  0  0
    6.6564   -0.7648    0.0000 C   0  0  0  0  0  0  0  0  0  0  0  0
    3.7086    0.7187    0.0000 C   0  0  0  0  0  0  0  0  0  0  0  0
    5.3692   -1.9237    0.0000 C   0  0  0  0  0  0  0  0  0  0  0  0
    3.3334   -1.0065    0.0000 C   0  0  0  0  0  0  0  0  0  0  0  0
    6.6053    1.8805    0.0000 C   0  0  0  0  0  0  0  0  0  0  0  0
    2.6994    0.9505    0.0000 C   0  0  0  0  0  0  0  0  0  0  0  0
    7.9808    0.4185    0.0000 C   0  0  0  0  0  0  0  0  0  0  0  0
    7.3413   -1.5495    0.0000 C   0  0  0  0  0  0  0  0  0  0  0  0
    2.3191   -0.7981    0.0000 C   0  0  0  0  0  0  0  0  0  0  0  0
    2.0000    0.1870    0.0000 C   0  0  0  0  0  0  0  0  0  0  0  0
    8.6837   -0.3501    0.0000 C   0  0  0  0  0  0  0  0  0  0  0  0
    4.5113    1.9237    0.0000 H   0  0  0  0  0  0  0  0  0  0  0  0
    4.7795   -1.7322    0.0000 H   0  0  0  0  0  0  0  0  0  0  0  0
    5.1776   -2.5134    0.0000 H   0  0  0  0  0  0  0  0  0  0  0  0
    5.9588   -2.1153    0.0000 H   0  0  0  0  0  0  0  0  0  0  0  0
    3.5313   -1.5940    0.0000 H   0  0  0  0  0  0  0  0  0  0  0  0
    7.1949    1.6889    0.0000 H   0  0  0  0  0  0  0  0  0  0  0  0
    6.7968    2.4701    0.0000 H   0  0  0  0  0  0  0  0  0  0  0  0
    6.0156    2.0721    0.0000 H   0  0  0  0  0  0  0  0  0  0  0  0
    2.5152    1.5425    0.0000 H   0  0  0  0  0  0  0  0  0  0  0  0
    8.1655    1.0104    0.0000 H   0  0  0  0  0  0  0  0  0  0  0  0
    7.1429   -2.1369    0.0000 H   0  0  0  0  0  0  0  0  0  0  0  0
    1.9056   -1.2601    0.0000 H   0  0  0  0  0  0  0  0  0  0  0  0
    1.3942    0.3187    0.0000 H   0  0  0  0  0  0  0  0  0  0  0  0
    9.2897   -0.2189    0.0000 H   0  0  0  0  0  0  0  0  0  0  0  0
  1  4  1  0  0  0  0
  1 10  1  0  0  0  0
  1 20  1  0  0  0  0
  2 16  2  0  0  0  0
  2 19  1  0  0  0  0
  3  4  2  0  0  0  0
  3  5  1  0  0  0  0
  3  6  1  0  0  0  0
  4  7  1  0  0  0  0
  5  9  2  0  0  0  0
  5 11  1  0  0  0  0
  6 10  1  0  0  0  0
  6 12  2  0  0  0  0
  7  8  2  0  0  0  0
  7 13  1  0  0  0  0
  8  9  1  0  0  0  0
  8 15  1  0  0  0  0
  9 16  1  0  0  0  0
 10 14  2  0  0  0  0
 11 21  1  0  0  0  0
 11 22  1  0  0  0  0
 11 23  1  0  0  0  0
 12 17  1  0  0  0  0
 12 24  1  0  0  0  0
 13 25  1  0  0  0  0
 13 26  1  0  0  0  0
 13 27  1  0  0  0  0
 14 18  1  0  0  0  0
 14 28  1  0  0  0  0
 15 19  2  0  0  0  0
 15 29  1  0  0  0  0
 16 30  1  0  0  0  0
 17 18  2  0  0  0  0
 17 31  1  0  0  0  0
 18 32  1  0  0  0  0
 19 33  1  0  0  0  0
M  END
> <PUBCHEM_COMPOUND_CID>
3213

> <PUBCHEM_COMPOUND_CANONICALIZED>
1

> <PUBCHEM_MOLECULAR_WEIGHT>
246.30646

> <PUBCHEM_MONOISOTOPIC_WEIGHT>
246.115698

> <PUBCHEM_EXACT_MASS>
246.115698

> <PUBCHEM_MOLECULAR_FORMULA>
C17H14N2

> <PUBCHEM_IUPAC_INCHI>
InChI=1S/C17H14N2/c1-10-14-9-18-8-7-12(14)11(2)17-16(10)13-5-3-4-6-15(13)19-17/h3-9,19H,1-2H3

> <PUBCHEM_IUPAC_INCHIKEY>
CTSPAMFJBXKSOY-UHFFFAOYSA-N

> <PUBCHEM_XLOGP3>
4.8

> <PUBCHEM_OPENEYE_CAN_SMILES>
CC1=C2C(=C(C3=C1C=CN=C3)C)C4=CC=CC=C4N2

> <PUBCHEM_OPENEYE_ISO_SMILES>
CC1=C2C(=C(C3=C1C=CN=C3)C)C4=CC=CC=C4N2

> <PUBCHEM_IUPAC_NAME>
5,11-dimethyl-6H-pyrido[4,3-b]carbazole

> <PUBCHEM_IUPAC_OPENEYE_NAME>
5,11-dimethyl-6H-pyrido[4,3-b]carbazole

> <PUBCHEM_IUPAC_CAS_NAME>
5,11-dimethyl-6H-pyrido[4,3-b]carbazole

> <PUBCHEM_IUPAC_TRADITIONAL_NAME>
5,11-dimethyl-6H-pyrido[4,3-b]carbazole

> <PUBCHEM_IUPAC_SYSTEMATIC_NAME>
5,11-dimethyl-6H-pyrido[4,3-b]carbazole

> <PUBCHEM_CACTVS_HBOND_DONOR>
1

> <PUBCHEM_CACTVS_HBOND_ACCEPTOR>
1

> <PUBCHEM_CACTVS_ROTATABLE_BOND>
0

> <PUBCHEM_CACTVS_COMPLEXITY>
342

> <PUBCHEM_CACTVS_TPSA>
28.7

> <PUBCHEM_CACTVS_SUBSKEYS>
AAADccB7AAAAAAAAAAAAAAAAAAAAAWAAAAA8YIAAAAAAAFix/gAAHAAQAAAADAjBHgQ+wPLJkACgAzRnRACCgCAxAiAI2SA4ZJgIIOLAkZGEIAhgkADIyAcQgMAOyAACQAASAACQAASAACQAAAAAAAAAAA==

> <PUBCHEM_TOTAL_CHARGE>
0

> <PUBCHEM_HEAVY_ATOM_COUNT>
19

> <PUBCHEM_ATOM_DEF_STEREO_COUNT>
0

> <PUBCHEM_ATOM_UDEF_STEREO_COUNT>
0

> <PUBCHEM_BOND_DEF_STEREO_COUNT>
0

> <PUBCHEM_BOND_UDEF_STEREO_COUNT>
0

> <PUBCHEM_ISOTOPIC_ATOM_COUNT>
0

> <PUBCHEM_COMPONENT_COUNT>
1

> <PUBCHEM_CACTVS_TAUTO_COUNT>
2

> <PUBCHEM_COORDINATE_TYPE>
1
3

> <PUBCHEM_BONDANNOTATIONS>
1  10  8
1  4  8
10  14  8
12  17  8
14  18  8
15  19  8
17  18  8
2  16  8
2  19  8
3  4  8
3  5  8
3  6  8
4  7  8
5  9  8
6  10  8
6  12  8
7  8  8
8  15  8
8  9  8
9  16  8

$$$$

