   Melting Point
        220-223.5 DEG C
   from [1]HSDB

   Spectral Properties

     * SPECIFIC OPTICAL ROTATION: +75 DEG @ 25 DEG C/D (IN CHLOROFORM);
       MAX ABSORPTION (ETHANOL): 241 NM (E= 16000)
     * SPECIFIC OPTICAL ROTATION: +51 DEG (IN DIOXANE)

   from [2]HSDB

   Other Chemical/Physical Properties

     * MP: 207-209 DEG C; SPECIFIC OPTICAL ROTATION: +61 (IN CHLOROFORM);
       MAX ABSORPTION (ETHANOL): 240 NM (E= 15900) /ACETATE/
     * ODORLESS /ACETATE/
     * INSOL IN WATER; FREELY SOL IN CHLOROFORM; SPARINGLY SOL IN ALC
       /ACETATE/
     * SOL @ 25 DEG C: IN ACETONE 1 IN 50; SLIGHTLY SOL IN ETHER &
       METHANOL; SOL @ 25 DEG C IN DIOXANE: 1 IN 60 /ACETATE/
     * CRYSTALS FROM CHLOROFORM; CRYSTALS FROM METHANOL /ACETATE/
     * WHITE TO OFF-WHITE CRYSTALLINE POWDER /ACETATE/

   from [3]HSDB

   Computed Properties
   Molecular Weight                  344.48768 [g/mol]
   Molecular Formula                 C[22]H[32]O[3]
   XLogP3                            3.5
   H-Bond Donor                      1
   H-Bond Acceptor                   3
   Rotatable Bond Count              1
   Tautomer Count                    10
   Exact Mass                        344.235145
   MonoIsotopic Mass                 344.235145
   Topological Polar Surface Area    54.4
   Heavy Atom Count                  25
   Formal Charge                     0
   Complexity                        664
   Isotope Atom Count                0
   Defined Atom Stereocenter Count   7
   Undefined Atom Stereocenter Count 0
   Defined Bond Stereocenter Count   0
   Undefined Bond Stereocenter Count 0
   Covalently-Bonded Unit Count      1
   Feature 3D Acceptor Count         3
   Feature 3D Donor Count            1
   Feature 3D Ring Count             4
   Effective Rotor Count             2.8
   Conformer Sampling RMSD           0.6
   CID Conformer Count               [4]2

References

   1. http://toxnet.nlm.nih.gov/cgi-bin/sis/search/r?dbs+hsdb:@term+@rn+@rel+520-85-4
   2. http://toxnet.nlm.nih.gov/cgi-bin/sis/search/r?dbs+hsdb:@term+@rn+@rel+520-85-4
   3. http://toxnet.nlm.nih.gov/cgi-bin/sis/search/r?dbs+hsdb:@term+@rn+@rel+520-85-4
   4. http://pubchem.ncbi.nlm.nih.gov/vw3d/vw3d.cgi?cid=10631
