440369
  -OEChem-07051212492D

 37 38  0     1  0  0  0  0  0999 V2000
    5.3739    2.4880    0.0000 O   0  0  0  0  0  0  0  0  0  0  0  0
    7.9424    0.7466    0.0000 O   0  0  0  0  0  0  0  0  0  0  0  0
    2.5369   -0.7969    0.0000 O   0  0  0  0  0  0  0  0  0  0  0  0
    7.6836   -1.9514    0.0000 O   0  0  0  0  0  0  0  0  0  0  0  0
    7.3352    2.7302    0.0000 O   0  0  0  0  0  0  0  0  0  0  0  0
    5.6622    3.1785    0.0000 O   0  0  0  0  0  0  0  0  0  0  0  0
    9.6836   -1.9514    0.0000 O   0  0  0  0  0  0  0  0  0  0  0  0
    2.8302   -2.0419    0.0000 O   0  0  0  0  0  0  0  0  0  0  0  0
    4.5244   -1.6818    0.0000 N   0  0  0  0  0  0  0  0  0  0  0  0
    5.8517    0.5395    0.0000 C   0  0  2  0  0  0  0  0  0  0  0  0
    4.3165   -0.7036    0.0000 C   0  0  1  0  0  0  0  0  0  0  0  0
    7.6836   -0.2193    0.0000 C   0  0  3  0  0  0  0  0  0  0  0  0
    6.1105    1.5054    0.0000 C   0  0  1  0  0  0  0  0  0  0  0  0
    3.4030   -0.2969    0.0000 C   0  0  2  0  0  0  0  0  0  0  0  0
    3.5075    0.6976    0.0000 C   0  0  0  0  0  0  0  0  0  0  0  0
    8.1836   -1.0853    0.0000 C   0  0  3  0  0  0  0  0  0  0  0  0
    6.3693    2.4714    0.0000 C   0  0  0  0  0  0  0  0  0  0  0  0
    9.1836   -1.0853    0.0000 C   0  0  0  0  0  0  0  0  0  0  0  0
    3.7813   -2.3509    0.0000 C   0  0  0  0  0  0  0  0  0  0  0  0
    3.9892   -3.3291    0.0000 C   0  0  0  0  0  0  0  0  0  0  0  0
    5.6317   -0.2815    0.0000 H   0  0  0  0  0  0  0  0  0  0  0  0
    3.8347   -1.0938    0.0000 H   0  0  0  0  0  0  0  0  0  0  0  0
    8.5263   -0.1084    0.0000 H   0  0  0  0  0  0  0  0  0  0  0  0
    2.8830    0.0408    0.0000 H   0  0  0  0  0  0  0  0  0  0  0  0
    3.4052    1.3091    0.0000 H   0  0  0  0  0  0  0  0  0  0  0  0
    2.8878    0.6787    0.0000 H   0  0  0  0  0  0  0  0  0  0  0  0
    7.3336   -1.0853    0.0000 H   0  0  0  0  0  0  0  0  0  0  0  0
    5.1141   -1.8734    0.0000 H   0  0  0  0  0  0  0  0  0  0  0  0
    9.7662   -0.8733    0.0000 H   0  0  0  0  0  0  0  0  0  0  0  0
    9.0760   -0.4748    0.0000 H   0  0  0  0  0  0  0  0  0  0  0  0
    2.0000   -0.4869    0.0000 H   0  0  0  0  0  0  0  0  0  0  0  0
    7.9936   -2.4883    0.0000 H   0  0  0  0  0  0  0  0  0  0  0  0
    7.4957    3.3291    0.0000 H   0  0  0  0  0  0  0  0  0  0  0  0
   10.3036   -1.9514    0.0000 H   0  0  0  0  0  0  0  0  0  0  0  0
    3.3827   -3.4580    0.0000 H   0  0  0  0  0  0  0  0  0  0  0  0
    4.1181   -3.9355    0.0000 H   0  0  0  0  0  0  0  0  0  0  0  0
    4.5956   -3.2002    0.0000 H   0  0  0  0  0  0  0  0  0  0  0  0
  1 10  1  0  0  0  0
  1 13  1  0  0  0  0
  2 12  1  0  0  0  0
  2 13  1  0  0  0  0
 14  3  1  1  0  0  0
  3 31  1  0  0  0  0
  4 16  1  0  0  0  0
  4 32  1  0  0  0  0
  5 17  1  0  0  0  0
  5 33  1  0  0  0  0
  6 17  2  0  0  0  0
  7 18  1  0  0  0  0
  7 34  1  0  0  0  0
  8 19  2  0  0  0  0
 11  9  1  6  0  0  0
  9 19  1  0  0  0  0
  9 28  1  0  0  0  0
 10 11  1  0  0  0  0
 10 12  1  0  0  0  0
 10 21  1  6  0  0  0
 11 14  1  0  0  0  0
 11 22  1  0  0  0  0
 12 16  1  0  0  0  0
 12 23  1  0  0  0  0
 13 15  1  0  0  0  0
 13 17  1  6  0  0  0
 14 15  1  0  0  0  0
 14 24  1  0  0  0  0
 15 25  1  0  0  0  0
 15 26  1  0  0  0  0
 16 18  1  0  0  0  0
 16 27  1  0  0  0  0
 18 29  1  0  0  0  0
 18 30  1  0  0  0  0
 19 20  1  0  0  0  0
 20 35  1  0  0  0  0
 20 36  1  0  0  0  0
 20 37  1  0  0  0  0
M  END
> <PUBCHEM_COMPOUND_CID>
440369

> <PUBCHEM_COMPOUND_CANONICALIZED>
1

> <PUBCHEM_CACTVS_COMPLEXITY>
415

> <PUBCHEM_CACTVS_HBOND_ACCEPTOR>
8

> <PUBCHEM_CACTVS_HBOND_DONOR>
5

> <PUBCHEM_CACTVS_ROTATABLE_BOND>
4

> <PUBCHEM_CACTVS_SUBSKEYS>
AAADceByPAAAAAAAAAAAAAAAAAAAASAAAAAkAAAABIAAAAAAAAAAHgAQCAAACDzhgAYCCALABgAIAAGQGAIAAAAAAAAAAIFIAAATEBIAgAQnQAAHFgCXAAH6+a+QAAAAAAAAAAAAAAAAAAAAAAAAAAAAAA==

> <PUBCHEM_IUPAC_OPENEYE_NAME>
(1R,2R,3S,5R)-2-acetamido-7-(1,2-dihydroxyethyl)-3-hydroxy-6,8-dioxabicyclo[3.2.1]octane-5-carboxylic acid

> <PUBCHEM_IUPAC_CAS_NAME>
(1R,2R,3S,5R)-2-acetamido-7-(1,2-dihydroxyethyl)-3-hydroxy-6,8-dioxabicyclo[3.2.1]octane-5-carboxylic acid

> <PUBCHEM_IUPAC_NAME>
(1R,2R,3S,5R)-2-acetamido-7-(1,2-dihydroxyethyl)-3-hydroxy-6,8-dioxabicyclo[3.2.1]octane-5-carboxylic acid

> <PUBCHEM_IUPAC_SYSTEMATIC_NAME>
(1R,2R,3S,5R)-2-acetamido-7-[1,2-bis(oxidanyl)ethyl]-3-oxidanyl-6,8-dioxabicyclo[3.2.1]octane-5-carboxylic acid

> <PUBCHEM_IUPAC_TRADITIONAL_NAME>
(1R,2R,3S,5R)-2-acetamido-7-(1,2-dihydroxyethyl)-3-hydroxy-6,8-dioxabicyclo[3.2.1]octane-5-carboxylic acid

> <PUBCHEM_IUPAC_INCHI>
InChI=1S/C11H17NO8/c1-4(14)12-7-5(15)2-11(10(17)18)19-8(6(16)3-13)9(7)20-11/h5-9,13,15-16H,2-3H2,1H3,(H,12,14)(H,17,18)/t5-,6?,7+,8?,9+,11-/m0/s1

> <PUBCHEM_IUPAC_INCHIKEY>
NCMJSVDTRDLWJE-GSQQXRCOSA-N

> <PUBCHEM_XLOGP3_AA>
-3

> <PUBCHEM_EXACT_MASS>
291.095417

> <PUBCHEM_MOLECULAR_FORMULA>
C11H17NO8

> <PUBCHEM_MOLECULAR_WEIGHT>
291.25458

> <PUBCHEM_OPENEYE_CAN_SMILES>
CC(=O)NC1C(CC2(OC1C(O2)C(CO)O)C(=O)O)O

> <PUBCHEM_OPENEYE_ISO_SMILES>
CC(=O)N[C@@H]1[C@H](C[C@]2(O[C@H]1C(O2)C(CO)O)C(=O)O)O

> <PUBCHEM_CACTVS_TPSA>
146

> <PUBCHEM_MONOISOTOPIC_WEIGHT>
291.095417

> <PUBCHEM_TOTAL_CHARGE>
0

> <PUBCHEM_HEAVY_ATOM_COUNT>
20

> <PUBCHEM_ATOM_DEF_STEREO_COUNT>
4

> <PUBCHEM_ATOM_UDEF_STEREO_COUNT>
2

> <PUBCHEM_BOND_DEF_STEREO_COUNT>
0

> <PUBCHEM_BOND_UDEF_STEREO_COUNT>
0

> <PUBCHEM_ISOTOPIC_ATOM_COUNT>
0

> <PUBCHEM_COMPONENT_COUNT>
1

> <PUBCHEM_CACTVS_TAUTO_COUNT>
2

> <PUBCHEM_COORDINATE_TYPE>
1
5
255

> <PUBCHEM_BONDANNOTATIONS>
10  21  6
12  23  3
13  17  6
16  27  3
14  3  5
11  9  6

$$$$

