9150
  -OEChem-06261203272D

 29 32  0     0  0  0  0  0  0999 V2000
    4.6660    0.4110    0.0000 C   0  0  0  0  0  0  0  0  0  0  0  0
    5.5321    0.9110    0.0000 C   0  0  0  0  0  0  0  0  0  0  0  0
    6.2691    0.2439    0.0000 C   0  0  0  0  0  0  0  0  0  0  0  0
    4.8752   -0.5608    0.0000 C   0  0  0  0  0  0  0  0  0  0  0  0
    5.8640   -0.6638    0.0000 C   0  0  0  0  0  0  0  0  0  0  0  0
    3.8000    0.9110    0.0000 C   0  0  0  0  0  0  0  0  0  0  0  0
    3.8000    1.9110    0.0000 C   0  0  0  0  0  0  0  0  0  0  0  0
    5.5321    1.9110    0.0000 C   0  0  0  0  0  0  0  0  0  0  0  0
    4.2545   -1.3896    0.0000 C   0  0  0  0  0  0  0  0  0  0  0  0
    4.6660    2.4110    0.0000 C   0  0  0  0  0  0  0  0  0  0  0  0
    6.3005   -1.6028    0.0000 C   0  0  0  0  0  0  0  0  0  0  0  0
    2.9061    0.3764    0.0000 C   0  0  0  0  0  0  0  0  0  0  0  0
    2.9061    2.4457    0.0000 C   0  0  0  0  0  0  0  0  0  0  0  0
    4.6692   -2.3384    0.0000 C   0  0  0  0  0  0  0  0  0  0  0  0
    5.6990   -2.4457    0.0000 C   0  0  0  0  0  0  0  0  0  0  0  0
    2.0000    0.8902    0.0000 C   0  0  0  0  0  0  0  0  0  0  0  0
    2.0000    1.9318    0.0000 C   0  0  0  0  0  0  0  0  0  0  0  0
    6.8056   -0.0668    0.0000 H   0  0  0  0  0  0  0  0  0  0  0  0
    6.6345    0.7448    0.0000 H   0  0  0  0  0  0  0  0  0  0  0  0
    6.0690    2.2210    0.0000 H   0  0  0  0  0  0  0  0  0  0  0  0
    3.6386   -1.3182    0.0000 H   0  0  0  0  0  0  0  0  0  0  0  0
    4.6660    3.0310    0.0000 H   0  0  0  0  0  0  0  0  0  0  0  0
    6.9178   -1.6599    0.0000 H   0  0  0  0  0  0  0  0  0  0  0  0
    2.9132   -0.2436    0.0000 H   0  0  0  0  0  0  0  0  0  0  0  0
    2.9132    3.0657    0.0000 H   0  0  0  0  0  0  0  0  0  0  0  0
    4.3032   -2.8388    0.0000 H   0  0  0  0  0  0  0  0  0  0  0  0
    5.9539   -3.0109    0.0000 H   0  0  0  0  0  0  0  0  0  0  0  0
    1.4643    0.5782    0.0000 H   0  0  0  0  0  0  0  0  0  0  0  0
    1.4643    2.2439    0.0000 H   0  0  0  0  0  0  0  0  0  0  0  0
  1  2  2  0  0  0  0
  1  4  1  0  0  0  0
  1  6  1  0  0  0  0
  2  3  1  0  0  0  0
  2  8  1  0  0  0  0
  3  5  1  0  0  0  0
  3 18  1  0  0  0  0
  3 19  1  0  0  0  0
  4  5  1  0  0  0  0
  4  9  2  0  0  0  0
  5 11  2  0  0  0  0
  6  7  1  0  0  0  0
  6 12  2  0  0  0  0
  7 10  1  0  0  0  0
  7 13  2  0  0  0  0
  8 10  2  0  0  0  0
  8 20  1  0  0  0  0
  9 14  1  0  0  0  0
  9 21  1  0  0  0  0
 10 22  1  0  0  0  0
 11 15  1  0  0  0  0
 11 23  1  0  0  0  0
 12 16  1  0  0  0  0
 12 24  1  0  0  0  0
 13 17  1  0  0  0  0
 13 25  1  0  0  0  0
 14 15  2  0  0  0  0
 14 26  1  0  0  0  0
 15 27  1  0  0  0  0
 16 17  2  0  0  0  0
 16 28  1  0  0  0  0
 17 29  1  0  0  0  0
M  END
> <PUBCHEM_COMPOUND_CID>
9150

> <PUBCHEM_COMPOUND_CANONICALIZED>
1

> <PUBCHEM_CACTVS_COMPLEXITY>
282

> <PUBCHEM_CACTVS_HBOND_ACCEPTOR>
0

> <PUBCHEM_CACTVS_HBOND_DONOR>
0

> <PUBCHEM_CACTVS_ROTATABLE_BOND>
0

> <PUBCHEM_CACTVS_SUBSKEYS>
AAADccB4AAAAAAAAAAAAAAAAAAAAAYAAAAAwYMAAAAAAAGDBVAAAGAAAAAAADACAGAAwAMAAAACAAiBCAAACAAAgAAAIiAAAAIgIICKAERCAIAAggAAIiAcAgMAOwAACAAAQAACAAAQAACAAAQAACAAAAA==

> <PUBCHEM_IUPAC_OPENEYE_NAME>
7H-benzo[c]fluorene

> <PUBCHEM_IUPAC_CAS_NAME>
7H-benzo[c]fluorene

> <PUBCHEM_IUPAC_NAME>
7H-benzo[c]fluorene

> <PUBCHEM_IUPAC_SYSTEMATIC_NAME>
7H-benzo[c]fluorene

> <PUBCHEM_IUPAC_TRADITIONAL_NAME>
7H-benzo[c]fluorene

> <PUBCHEM_IUPAC_INCHI>
InChI=1S/C17H12/c1-3-7-15-12(5-1)9-10-14-11-13-6-2-4-8-16(13)17(14)15/h1-10H,11H2

> <PUBCHEM_IUPAC_INCHIKEY>
FRIJWEQBTIZQMD-UHFFFAOYSA-N

> <PUBCHEM_XLOGP3>
5.7

> <PUBCHEM_EXACT_MASS>
216.0939

> <PUBCHEM_MOLECULAR_FORMULA>
C17H12

> <PUBCHEM_MOLECULAR_WEIGHT>
216.27718

> <PUBCHEM_OPENEYE_CAN_SMILES>
C1C2=C(C3=CC=CC=C31)C4=CC=CC=C4C=C2

> <PUBCHEM_OPENEYE_ISO_SMILES>
C1C2=C(C3=CC=CC=C31)C4=CC=CC=C4C=C2

> <PUBCHEM_CACTVS_TPSA>
0

> <PUBCHEM_MONOISOTOPIC_WEIGHT>
216.0939

> <PUBCHEM_TOTAL_CHARGE>
0

> <PUBCHEM_HEAVY_ATOM_COUNT>
17

> <PUBCHEM_ATOM_DEF_STEREO_COUNT>
0

> <PUBCHEM_ATOM_UDEF_STEREO_COUNT>
0

> <PUBCHEM_BOND_DEF_STEREO_COUNT>
0

> <PUBCHEM_BOND_UDEF_STEREO_COUNT>
0

> <PUBCHEM_ISOTOPIC_ATOM_COUNT>
0

> <PUBCHEM_COMPONENT_COUNT>
1

> <PUBCHEM_CACTVS_TAUTO_COUNT>
1

> <PUBCHEM_COORDINATE_TYPE>
1
5
255

> <PUBCHEM_BONDANNOTATIONS>
1  2  8
1  6  8
11  15  8
12  16  8
13  17  8
14  15  8
16  17  8
2  8  8
4  5  8
4  9  8
5  11  8
6  12  8
6  7  8
7  10  8
7  13  8
8  10  8
9  14  8

$$$$

