12878
  -OEChem-06261207292D

 31 30  0     0  0  0  0  0  0999 V2000
    6.5380    5.1200    0.0000 O   0  0  0  0  0  0  0  0  0  0  0  0
    1.7320    4.7150    0.0000 O   0  0  0  0  0  0  0  0  0  0  0  0
    0.0000    4.7150    0.0000 O   0  5  0  0  0  0  0  0  0  0  0  0
    0.8660    3.2150    0.0000 O   0  0  0  0  0  0  0  0  0  0  0  0
    6.5380    6.1200    0.0000 N   0  0  0  0  0  0  0  0  0  0  0  0
    7.4040    7.6200    0.0000 N   0  0  0  0  0  0  0  0  0  0  0  0
    8.2700    6.1200    0.0000 N   0  0  0  0  0  0  0  0  0  0  0  0
    0.8660    4.2150    0.0000 N   0  3  0  0  0  0  0  0  0  0  0  0
    5.6720    3.6200    0.0000 C   0  0  0  0  0  0  0  0  0  0  0  0
    5.6720    1.6200    0.0000 C   0  0  0  0  0  0  0  0  0  0  0  0
    4.8059    3.1200    0.0000 C   0  0  0  0  0  0  0  0  0  0  0  0
    6.5380    3.1200    0.0000 C   0  0  0  0  0  0  0  0  0  0  0  0
    5.6720    4.6200    0.0000 C   0  0  0  0  0  0  0  0  0  0  0  0
    4.8059    2.1200    0.0000 C   0  0  0  0  0  0  0  0  0  0  0  0
    6.5380    2.1200    0.0000 C   0  0  0  0  0  0  0  0  0  0  0  0
    5.6720    0.6200    0.0000 C   0  0  0  0  0  0  0  0  0  0  0  0
    7.4040    6.6200    0.0000 C   0  0  0  0  0  0  0  0  0  0  0  0
    4.2690    3.4300    0.0000 H   0  0  0  0  0  0  0  0  0  0  0  0
    7.0749    3.4300    0.0000 H   0  0  0  0  0  0  0  0  0  0  0  0
    5.4599    5.2026    0.0000 H   0  0  0  0  0  0  0  0  0  0  0  0
    5.0614    4.5123    0.0000 H   0  0  0  0  0  0  0  0  0  0  0  0
    4.2690    1.8100    0.0000 H   0  0  0  0  0  0  0  0  0  0  0  0
    7.0749    1.8100    0.0000 H   0  0  0  0  0  0  0  0  0  0  0  0
    5.0520    0.6200    0.0000 H   0  0  0  0  0  0  0  0  0  0  0  0
    5.6720    0.0000    0.0000 H   0  0  0  0  0  0  0  0  0  0  0  0
    6.2920    0.6200    0.0000 H   0  0  0  0  0  0  0  0  0  0  0  0
    7.9409    7.9300    0.0000 H   0  0  0  0  0  0  0  0  0  0  0  0
    6.8671    7.9300    0.0000 H   0  0  0  0  0  0  0  0  0  0  0  0
    8.8070    6.4300    0.0000 H   0  0  0  0  0  0  0  0  0  0  0  0
    8.2700    5.5000    0.0000 H   0  0  0  0  0  0  0  0  0  0  0  0
    2.2690    4.4050    0.0000 H   0  0  0  0  0  0  0  0  0  0  0  0
  1  5  1  0  0  0  0
  1 13  1  0  0  0  0
  2  8  1  0  0  0  0
  2 31  1  0  0  0  0
  3  8  1  0  0  0  0
  4  8  2  0  0  0  0
  5 17  2  0  0  0  0
  6 17  1  0  0  0  0
  6 27  1  0  0  0  0
  6 28  1  0  0  0  0
  7 17  1  0  0  0  0
  7 29  1  0  0  0  0
  7 30  1  0  0  0  0
  9 11  2  0  0  0  0
  9 12  1  0  0  0  0
  9 13  1  0  0  0  0
 10 14  2  0  0  0  0
 10 15  1  0  0  0  0
 10 16  1  0  0  0  0
 11 14  1  0  0  0  0
 11 18  1  0  0  0  0
 12 15  2  0  0  0  0
 12 19  1  0  0  0  0
 13 20  1  0  0  0  0
 13 21  1  0  0  0  0
 14 22  1  0  0  0  0
 15 23  1  0  0  0  0
 16 24  1  0  0  0  0
 16 25  1  0  0  0  0
 16 26  1  0  0  0  0
M  CHG  2   3  -1   8   1
M  END
> <PUBCHEM_COMPOUND_CID>
12878

> <PUBCHEM_COMPOUND_CANONICALIZED>
1

> <PUBCHEM_CACTVS_COMPLEXITY>
195

> <PUBCHEM_CACTVS_HBOND_ACCEPTOR>
5

> <PUBCHEM_CACTVS_HBOND_DONOR>
3

> <PUBCHEM_CACTVS_ROTATABLE_BOND>
3

> <PUBCHEM_CACTVS_SUBSKEYS>
AAADccBzuAAAAAAAAAAAAAAAAAAAAAAAAAAwAAAAAAAAAAABAAAAHgAUCAAADACgmAIzAIBQQAChAiBCIQACAAAgAAAIiAAACIgIJiKAERCAMAAkwAEIiAeAwDAOQAAAAAAAAACAAAAAAAAAAAAAAAAAAA==

> <PUBCHEM_IUPAC_OPENEYE_NAME>
nitric acid; 2-(p-tolylmethoxy)guanidine

> <PUBCHEM_IUPAC_CAS_NAME>
2-[(4-methylphenyl)methoxy]guanidine; nitric acid

> <PUBCHEM_IUPAC_NAME>
2-[(4-methylphenyl)methoxy]guanidine; nitric acid

> <PUBCHEM_IUPAC_SYSTEMATIC_NAME>
2-[(4-methylphenyl)methoxy]guanidine; nitric acid

> <PUBCHEM_IUPAC_TRADITIONAL_NAME>
2-(4-methylbenzyl)oxyguanidine; nitric acid

> <PUBCHEM_IUPAC_INCHI>
InChI=1S/C9H13N3O.HNO3/c1-7-2-4-8(5-3-7)6-13-12-9(10)11;2-1(3)4/h2-5H,6H2,1H3,(H4,10,11,12);(H,2,3,4)

> <PUBCHEM_IUPAC_INCHIKEY>
LTIKXPRWJKNWKY-UHFFFAOYSA-N

> <PUBCHEM_EXACT_MASS>
242.101505

> <PUBCHEM_MOLECULAR_FORMULA>
C9H14N4O4

> <PUBCHEM_MOLECULAR_WEIGHT>
242.23186

> <PUBCHEM_OPENEYE_CAN_SMILES>
CC1=CC=C(C=C1)CON=C(N)N.[N+](=O)(O)[O-]

> <PUBCHEM_OPENEYE_ISO_SMILES>
CC1=CC=C(C=C1)CON=C(N)N.[N+](=O)(O)[O-]

> <PUBCHEM_CACTVS_TPSA>
140

> <PUBCHEM_MONOISOTOPIC_WEIGHT>
242.101505

> <PUBCHEM_TOTAL_CHARGE>
0

> <PUBCHEM_HEAVY_ATOM_COUNT>
17

> <PUBCHEM_ATOM_DEF_STEREO_COUNT>
0

> <PUBCHEM_ATOM_UDEF_STEREO_COUNT>
0

> <PUBCHEM_BOND_DEF_STEREO_COUNT>
0

> <PUBCHEM_BOND_UDEF_STEREO_COUNT>
0

> <PUBCHEM_ISOTOPIC_ATOM_COUNT>
0

> <PUBCHEM_COMPONENT_COUNT>
2

> <PUBCHEM_CACTVS_TAUTO_COUNT>
2

> <PUBCHEM_COORDINATE_TYPE>
1
5
255

> <PUBCHEM_BONDANNOTATIONS>
10  14  8
10  15  8
11  14  8
12  15  8
9  11  8
9  12  8

$$$$

