5282068
  -OEChem-07051213022D

 91 96  0     1  0  0  0  0  0999 V2000
    6.0010    1.2500    0.0000 O   0  0  0  0  0  0  0  0  0  0  0  0
    9.4641    0.2055    0.0000 O   0  0  0  0  0  0  0  0  0  0  0  0
    5.1350    2.7500    0.0000 O   0  0  0  0  0  0  0  0  0  0  0  0
    8.6155    1.7154    0.0000 O   0  0  0  0  0  0  0  0  0  0  0  0
    5.1350   -1.2500    0.0000 O   0  0  0  0  0  0  0  0  0  0  0  0
    3.4030   -0.2500    0.0000 O   0  0  0  0  0  0  0  0  0  0  0  0
    3.4030    1.7500    0.0000 O   0  0  0  0  0  0  0  0  0  0  0  0
   12.0793    1.6754    0.0000 O   0  0  0  0  0  0  0  0  0  0  0  0
   12.0562   -0.3245    0.0000 O   0  0  0  0  0  0  0  0  0  0  0  0
   10.3590    2.6953    0.0000 O   0  0  0  0  0  0  0  0  0  0  0  0
    6.8671   -1.2500    0.0000 O   0  0  0  0  0  0  0  0  0  0  0  0
   11.1729   -1.8144    0.0000 O   0  0  0  0  0  0  0  0  0  0  0  0
    6.8671    4.7500    0.0000 O   0  3  0  0  0  0  0  0  0  0  0  0
   10.3972    4.7742    0.0000 O   0  0  0  0  0  0  0  0  0  0  0  0
    8.5991   -1.2500    0.0000 O   0  0  0  0  0  0  0  0  0  0  0  0
    4.2690    7.2500    0.0000 O   0  0  0  0  0  0  0  0  0  0  0  0
    2.5369    6.2500    0.0000 O   0  0  0  0  0  0  0  0  0  0  0  0
    6.8671   -7.2500    0.0000 O   0  0  0  0  0  0  0  0  0  0  0  0
    5.1350   -0.2500    0.0000 C   0  0  1  0  0  0  0  0  0  0  0  0
    4.2690    0.2500    0.0000 C   0  0  1  0  0  0  0  0  0  0  0  0
    6.0010    0.2500    0.0000 C   0  0  1  0  0  0  0  0  0  0  0  0
    4.2690    1.2500    0.0000 C   0  0  2  0  0  0  0  0  0  0  0  0
   11.2076    1.1854    0.0000 C   0  0  1  0  0  0  0  0  0  0  0  0
   11.1960    0.1855    0.0000 C   0  0  1  0  0  0  0  0  0  0  0  0
   10.3474    1.6954    0.0000 C   0  0  2  0  0  0  0  0  0  0  0  0
   10.3243   -0.3045    0.0000 C   0  0  1  0  0  0  0  0  0  0  0  0
    5.1350    1.7500    0.0000 C   0  0  1  0  0  0  0  0  0  0  0  0
    9.4756    1.2054    0.0000 C   0  0  1  0  0  0  0  0  0  0  0  0
    6.8671   -0.2500    0.0000 C   0  0  0  0  0  0  0  0  0  0  0  0
   10.3127   -1.3044    0.0000 C   0  0  0  0  0  0  0  0  0  0  0  0
    6.0010    3.2500    0.0000 C   0  0  0  0  0  0  0  0  0  0  0  0
    8.6270    2.7153    0.0000 C   0  0  0  0  0  0  0  0  0  0  0  0
    7.7331    3.2500    0.0000 C   0  0  0  0  0  0  0  0  0  0  0  0
    6.8671    2.7500    0.0000 C   0  0  0  0  0  0  0  0  0  0  0  0
    6.0010    4.2500    0.0000 C   0  0  0  0  0  0  0  0  0  0  0  0
    7.7331    4.2500    0.0000 C   0  0  0  0  0  0  0  0  0  0  0  0
    9.5331    3.2292    0.0000 C   0  0  0  0  0  0  0  0  0  0  0  0
    8.6270    4.7847    0.0000 C   0  0  0  0  0  0  0  0  0  0  0  0
    9.5331    4.2708    0.0000 C   0  0  0  0  0  0  0  0  0  0  0  0
    5.1350    4.7500    0.0000 C   0  0  0  0  0  0  0  0  0  0  0  0
    7.7331   -1.7500    0.0000 C   0  0  0  0  0  0  0  0  0  0  0  0
    5.1350    5.7500    0.0000 C   0  0  0  0  0  0  0  0  0  0  0  0
    4.2690    4.2500    0.0000 C   0  0  0  0  0  0  0  0  0  0  0  0
    7.7331   -2.7500    0.0000 C   0  0  0  0  0  0  0  0  0  0  0  0
    4.2690    6.2500    0.0000 C   0  0  0  0  0  0  0  0  0  0  0  0
    3.4030    4.7500    0.0000 C   0  0  0  0  0  0  0  0  0  0  0  0
    3.4030    5.7500    0.0000 C   0  0  0  0  0  0  0  0  0  0  0  0
    6.8671   -3.2500    0.0000 C   0  0  0  0  0  0  0  0  0  0  0  0
    6.8671   -4.2500    0.0000 C   0  0  0  0  0  0  0  0  0  0  0  0
    6.0010   -4.7500    0.0000 C   0  0  0  0  0  0  0  0  0  0  0  0
    7.7331   -4.7500    0.0000 C   0  0  0  0  0  0  0  0  0  0  0  0
    6.0010   -5.7500    0.0000 C   0  0  0  0  0  0  0  0  0  0  0  0
    7.7331   -5.7500    0.0000 C   0  0  0  0  0  0  0  0  0  0  0  0
    6.8671   -6.2500    0.0000 C   0  0  0  0  0  0  0  0  0  0  0  0
    5.6720   -0.5600    0.0000 H   0  0  0  0  0  0  0  0  0  0  0  0
    4.2690   -0.3700    0.0000 H   0  0  0  0  0  0  0  0  0  0  0  0
    6.5380    0.5600    0.0000 H   0  0  0  0  0  0  0  0  0  0  0  0
    4.2690    1.8700    0.0000 H   0  0  0  0  0  0  0  0  0  0  0  0
   11.2148    1.8054    0.0000 H   0  0  0  0  0  0  0  0  0  0  0  0
   11.1889   -0.4345    0.0000 H   0  0  0  0  0  0  0  0  0  0  0  0
   10.8879    1.9992    0.0000 H   0  0  0  0  0  0  0  0  0  0  0  0
    9.7838   -0.6083    0.0000 H   0  0  0  0  0  0  0  0  0  0  0  0
    4.5981    2.0600    0.0000 H   0  0  0  0  0  0  0  0  0  0  0  0
    8.9352    0.9017    0.0000 H   0  0  0  0  0  0  0  0  0  0  0  0
    7.4776   -0.3577    0.0000 H   0  0  0  0  0  0  0  0  0  0  0  0
    7.0791    0.3326    0.0000 H   0  0  0  0  0  0  0  0  0  0  0  0
    9.7034   -1.1897    0.0000 H   0  0  0  0  0  0  0  0  0  0  0  0
   10.0939   -1.8845    0.0000 H   0  0  0  0  0  0  0  0  0  0  0  0
    4.5981   -1.5600    0.0000 H   0  0  0  0  0  0  0  0  0  0  0  0
    3.4030   -0.8700    0.0000 H   0  0  0  0  0  0  0  0  0  0  0  0
    2.8660    1.4400    0.0000 H   0  0  0  0  0  0  0  0  0  0  0  0
   12.6127    1.3592    0.0000 H   0  0  0  0  0  0  0  0  0  0  0  0
   12.5967   -0.0207    0.0000 H   0  0  0  0  0  0  0  0  0  0  0  0
   10.8994    2.9991    0.0000 H   0  0  0  0  0  0  0  0  0  0  0  0
    6.8671    2.1300    0.0000 H   0  0  0  0  0  0  0  0  0  0  0  0
   11.1657   -2.4344    0.0000 H   0  0  0  0  0  0  0  0  0  0  0  0
   10.0688    2.9171    0.0000 H   0  0  0  0  0  0  0  0  0  0  0  0
    8.6199    5.4046    0.0000 H   0  0  0  0  0  0  0  0  0  0  0  0
    5.6720    6.0600    0.0000 H   0  0  0  0  0  0  0  0  0  0  0  0
    4.2690    3.6300    0.0000 H   0  0  0  0  0  0  0  0  0  0  0  0
    8.2700   -3.0600    0.0000 H   0  0  0  0  0  0  0  0  0  0  0  0
   10.3948    5.3942    0.0000 H   0  0  0  0  0  0  0  0  0  0  0  0
    2.8660    4.4400    0.0000 H   0  0  0  0  0  0  0  0  0  0  0  0
    6.3301   -2.9400    0.0000 H   0  0  0  0  0  0  0  0  0  0  0  0
    3.7320    7.5600    0.0000 H   0  0  0  0  0  0  0  0  0  0  0  0
    2.0000    5.9400    0.0000 H   0  0  0  0  0  0  0  0  0  0  0  0
    5.4641   -4.4400    0.0000 H   0  0  0  0  0  0  0  0  0  0  0  0
    8.2700   -4.4400    0.0000 H   0  0  0  0  0  0  0  0  0  0  0  0
    5.4641   -6.0600    0.0000 H   0  0  0  0  0  0  0  0  0  0  0  0
    8.2700   -6.0600    0.0000 H   0  0  0  0  0  0  0  0  0  0  0  0
    6.3301   -7.5600    0.0000 H   0  0  0  0  0  0  0  0  0  0  0  0
  1 21  1  0  0  0  0
  1 27  1  0  0  0  0
  2 26  1  0  0  0  0
  2 28  1  0  0  0  0
 27  3  1  6  0  0  0
  3 31  1  0  0  0  0
 28  4  1  1  0  0  0
  4 32  1  0  0  0  0
 19  5  1  1  0  0  0
  5 69  1  0  0  0  0
 20  6  1  6  0  0  0
  6 70  1  0  0  0  0
 22  7  1  1  0  0  0
  7 71  1  0  0  0  0
 23  8  1  1  0  0  0
  8 72  1  0  0  0  0
 24  9  1  6  0  0  0
  9 73  1  0  0  0  0
 25 10  1  6  0  0  0
 10 74  1  0  0  0  0
 11 29  1  0  0  0  0
 11 41  1  0  0  0  0
 12 30  1  0  0  0  0
 12 76  1  0  0  0  0
 13 35  1  0  0  0  0
 13 36  2  0  0  0  0
 14 39  1  0  0  0  0
 14 82  1  0  0  0  0
 15 41  2  0  0  0  0
 16 45  1  0  0  0  0
 16 85  1  0  0  0  0
 17 47  1  0  0  0  0
 17 86  1  0  0  0  0
 18 54  1  0  0  0  0
 18 91  1  0  0  0  0
 19 20  1  0  0  0  0
 19 21  1  0  0  0  0
 19 55  1  0  0  0  0
 20 22  1  0  0  0  0
 20 56  1  0  0  0  0
 21 29  1  6  0  0  0
 21 57  1  0  0  0  0
 22 27  1  0  0  0  0
 22 58  1  0  0  0  0
 23 24  1  0  0  0  0
 23 25  1  0  0  0  0
 23 59  1  0  0  0  0
 24 26  1  0  0  0  0
 24 60  1  0  0  0  0
 25 28  1  0  0  0  0
 25 61  1  0  0  0  0
 26 30  1  1  0  0  0
 26 62  1  0  0  0  0
 27 63  1  0  0  0  0
 28 64  1  0  0  0  0
 29 65  1  0  0  0  0
 29 66  1  0  0  0  0
 30 67  1  0  0  0  0
 30 68  1  0  0  0  0
 31 34  1  0  0  0  0
 31 35  2  0  0  0  0
 32 33  1  0  0  0  0
 32 37  2  0  0  0  0
 33 34  2  0  0  0  0
 33 36  1  0  0  0  0
 34 75  1  0  0  0  0
 35 40  1  0  0  0  0
 36 38  1  0  0  0  0
 37 39  1  0  0  0  0
 37 77  1  0  0  0  0
 38 39  2  0  0  0  0
 38 78  1  0  0  0  0
 40 42  2  0  0  0  0
 40 43  1  0  0  0  0
 41 44  1  0  0  0  0
 42 45  1  0  0  0  0
 42 79  1  0  0  0  0
 43 46  2  0  0  0  0
 43 80  1  0  0  0  0
 44 48  2  0  0  0  0
 44 81  1  0  0  0  0
 45 47  2  0  0  0  0
 46 47  1  0  0  0  0
 46 83  1  0  0  0  0
 48 49  1  0  0  0  0
 48 84  1  0  0  0  0
 49 50  2  0  0  0  0
 49 51  1  0  0  0  0
 50 52  1  0  0  0  0
 50 87  1  0  0  0  0
 51 53  2  0  0  0  0
 51 88  1  0  0  0  0
 52 54  2  0  0  0  0
 52 89  1  0  0  0  0
 53 54  1  0  0  0  0
 53 90  1  0  0  0  0
M  CHG  1  13   1
M  END
> <PUBCHEM_COMPOUND_CID>
5282068

> <PUBCHEM_COMPOUND_CANONICALIZED>
1

> <PUBCHEM_CACTVS_COMPLEXITY>
1230

> <PUBCHEM_CACTVS_HBOND_ACCEPTOR>
17

> <PUBCHEM_CACTVS_HBOND_DONOR>
11

> <PUBCHEM_CACTVS_ROTATABLE_BOND>
11

> <PUBCHEM_CACTVS_SUBSKEYS>
AAADcfB8PgAAAAAAAAAAAAAAAAAAAAAAAAA0aNECAAAAAACR9AAAGgAACAAADBSwmAMwDsAABkCIAqDSCAICCAAkIAAIiAFGiMgdNzaGNR6ieWOl4BUPuYfK7PzOIAABCAAIQABAAAIQABCAAAAAAAAAAA==

> <PUBCHEM_IUPAC_OPENEYE_NAME>
[(2R,3S,4S,5R,6S)-6-[2-(3,4-dihydroxyphenyl)-7-hydroxy-5-[(2S,3R,4S,5S,6R)-3,4,5-trihydroxy-6-(hydroxymethyl)tetrahydropyran-2-yl]oxy-chromenylium-3-yl]oxy-3,4,5-trihydroxy-tetrahydropyran-2-yl]methyl (E)-3-(4-hydroxyphenyl)prop-2-enoate

> <PUBCHEM_IUPAC_CAS_NAME>
(E)-3-(4-hydroxyphenyl)-2-propenoic acid [(2R,3S,4S,5R,6S)-6-[[2-(3,4-dihydroxyphenyl)-7-hydroxy-5-[[(2S,3R,4S,5S,6R)-3,4,5-trihydroxy-6-(hydroxymethyl)-2-oxanyl]oxy]-1-benzopyrylium-3-yl]oxy]-3,4,5-trihydroxy-2-oxanyl]methyl ester

> <PUBCHEM_IUPAC_NAME>
[(2R,3S,4S,5R,6S)-6-[2-(3,4-dihydroxyphenyl)-7-hydroxy-5-[(2S,3R,4S,5S,6R)-3,4,5-trihydroxy-6-(hydroxymethyl)oxan-2-yl]oxychromenylium-3-yl]oxy-3,4,5-trihydroxyoxan-2-yl]methyl (E)-3-(4-hydroxyphenyl)prop-2-enoate

> <PUBCHEM_IUPAC_SYSTEMATIC_NAME>
[(2R,3S,4S,5R,6S)-6-[2-[3,4-bis(oxidanyl)phenyl]-5-[(2S,3R,4S,5S,6R)-6-(hydroxymethyl)-3,4,5-tris(oxidanyl)oxan-2-yl]oxy-7-oxidanyl-chromenylium-3-yl]oxy-3,4,5-tris(oxidanyl)oxan-2-yl]methyl (E)-3-(4-hydroxyphenyl)prop-2-enoate

> <PUBCHEM_IUPAC_TRADITIONAL_NAME>
(E)-3-(4-hydroxyphenyl)acrylic acid [(2R,3S,4S,5R,6S)-6-[[2-(3,4-dihydroxyphenyl)-7-hydroxy-5-[(2S,3R,4S,5S,6R)-3,4,5-trihydroxy-6-methylol-tetrahydropyran-2-yl]oxy-1-benzopyrylium-3-yl]oxy]-3,4,5-trihydroxy-tetrahydropyran-2-yl]methyl ester

> <PUBCHEM_IUPAC_INCHI>
InChI=1S/C36H36O18/c37-13-25-28(43)30(45)32(47)35(53-25)51-23-11-18(39)10-22-19(23)12-24(34(50-22)16-4-7-20(40)21(41)9-16)52-36-33(48)31(46)29(44)26(54-36)14-49-27(42)8-3-15-1-5-17(38)6-2-15/h1-12,25-26,28-33,35-37,43-48H,13-14H2,(H3-,38,39,40,41,42)/p+1/t25-,26-,28-,29-,30+,31+,32-,33-,35-,36-/m1/s1

> <PUBCHEM_IUPAC_INCHIKEY>
YPXWWSJGANMFFQ-AQAMAIGXSA-O

> <PUBCHEM_EXACT_MASS>
757.197989

> <PUBCHEM_MOLECULAR_FORMULA>
C36H37O18+

> <PUBCHEM_MOLECULAR_WEIGHT>
757.66818

> <PUBCHEM_OPENEYE_CAN_SMILES>
C1=CC(=CC=C1C=CC(=O)OCC2C(C(C(C(O2)OC3=C([O+]=C4C=C(C=C(C4=C3)OC5C(C(C(C(O5)CO)O)O)O)O)C6=CC(=C(C=C6)O)O)O)O)O)O

> <PUBCHEM_OPENEYE_ISO_SMILES>
C1=CC(=CC=C1/C=C/C(=O)OC[C@@H]2[C@H]([C@@H]([C@H]([C@@H](O2)OC3=C([O+]=C4C=C(C=C(C4=C3)O[C@H]5[C@@H]([C@H]([C@@H]([C@H](O5)CO)O)O)O)O)C6=CC(=C(C=C6)O)O)O)O)O)O

> <PUBCHEM_CACTVS_TPSA>
287

> <PUBCHEM_MONOISOTOPIC_WEIGHT>
757.197989

> <PUBCHEM_TOTAL_CHARGE>
1

> <PUBCHEM_HEAVY_ATOM_COUNT>
54

> <PUBCHEM_ATOM_DEF_STEREO_COUNT>
10

> <PUBCHEM_ATOM_UDEF_STEREO_COUNT>
0

> <PUBCHEM_BOND_DEF_STEREO_COUNT>
1

> <PUBCHEM_BOND_UDEF_STEREO_COUNT>
0

> <PUBCHEM_ISOTOPIC_ATOM_COUNT>
0

> <PUBCHEM_COMPONENT_COUNT>
1

> <PUBCHEM_CACTVS_TAUTO_COUNT>
308

> <PUBCHEM_COORDINATE_TYPE>
1
5
255

> <PUBCHEM_BONDANNOTATIONS>
25  10  6
13  35  8
13  36  8
21  29  6
26  30  5
27  3  6
31  34  8
31  35  8
32  33  8
32  37  8
33  34  8
33  36  8
36  38  8
37  39  8
38  39  8
28  4  5
40  42  8
40  43  8
42  45  8
43  46  8
45  47  8
46  47  8
49  50  8
49  51  8
19  5  5
50  52  8
51  53  8
52  54  8
53  54  8
20  6  6
22  7  5
23  8  5
24  9  6

$$$$

