   Color/Form
        Colorless, liquified gas.
   from [1]HSDB

   Odor

     * SLIGHTLY SWEETISH
     * Weak, pleasant odor

   from [2]HSDB

   Taste
        SLIGHTLY SWEETISH
   from [3]HSDB

   Boiling Point
        -88.48 DEG C
   from [4]HSDB

   Melting Point
        -90.8 DEG C
   from [5]HSDB

   Critical Temperature and Pressure
        CRITICAL TEMP: 36.5 DEG C; CRITICAL PRESSURE: 71.7 ATM
   from [6]HSDB

   Density/Specific Gravity
        1.226 AT -89 DEG C (LIQUID); 1.967 AT 760 MM HG & 25 DEG C
   from [7]HSDB

   Heat of Vaporization
        3.956 KCAL/MOLE AT BP
   from [8]HSDB

   Octanol/Water Partition Coefficient
        log Kow = 0.36
   from [9]HSDB

   Solubilities

     * 1 L OF GAS DISSOLVES IN 1.5 L H2O AT 20 DEG C AT 2 ATM
     * 130 ML/100 ML WATER AT 0 DEG C, 56.7 ML/100 ML WATER AT 25 DEG C
     * SOL IN ALCOHOL, ETHER, OILS; FREELY SOL IN SULFURIC ACID

   from [10]HSDB

   Spectral Properties
        INDEX OF REFRACTION: 1.005 AT 20 DEG C AT 760 MM HG
   from [11]HSDB

   Surface Tension
        1.75 DYNES/CM AT 20 DEG C IN CONTACT WITH VAPOR
   from [12]HSDB

   Vapor Density
        1.53 (AIR= 1)
   from [13]HSDB

   Vapor Pressure
        4.29X10+4 mm Hg @ 25 deg C
   from [14]HSDB

   Viscosity
        0.0145 cP at 25 deg C at 101.325 KPa (gas)
   from [15]HSDB

   Other Chemical/Physical Properties

     * TROUTON CONSTANT: 21.4; DIPOLE MOMENT 0.166; DISSOCIATION BEGINS
       ABOVE 300 DEG C WHEN GAS BECOMES STRONG OXIDIZING AGENT; WHILE IN
       STEEL CYLINDER NITROUS OXIDE IS COMPRESSED TO THE FORM OF GAS OVER
       LIQ & HAS PRESSURE OF ABOUT 800 LB/SQ INCH AT ROOM TEMP
     * Heat of Fusion: 6.54 kJ/mol
     * Critical volume: 97 cu cm /mol

   from [16]HSDB

   Computed Properties
   Molecular Weight                  44.0128 [g/mol]
   Molecular Formula                 N[2]O
   XLogP3-AA                         0.5
   H-Bond Donor                      0
   H-Bond Acceptor                   2
   Rotatable Bond Count              0
   Exact Mass                        44.001063
   MonoIsotopic Mass                 44.001063
   Topological Polar Surface Area    54.5
   Heavy Atom Count                  3
   Formal Charge                     0
   Complexity                        29.3
   Isotope Atom Count                0
   Defined Atom Stereocenter Count   0
   Undefined Atom Stereocenter Count 0
   Defined Bond Stereocenter Count   0
   Undefined Bond Stereocenter Count 0
   Covalently-Bonded Unit Count      1
   Effective Rotor Count             0
   Conformer Sampling RMSD           0.4
   CID Conformer Count               [17]1

References

   1. http://toxnet.nlm.nih.gov/cgi-bin/sis/search/r?dbs+hsdb:@term+@rn+@rel+10024-97-2
   2. http://toxnet.nlm.nih.gov/cgi-bin/sis/search/r?dbs+hsdb:@term+@rn+@rel+10024-97-2
   3. http://toxnet.nlm.nih.gov/cgi-bin/sis/search/r?dbs+hsdb:@term+@rn+@rel+10024-97-2
   4. http://toxnet.nlm.nih.gov/cgi-bin/sis/search/r?dbs+hsdb:@term+@rn+@rel+10024-97-2
   5. http://toxnet.nlm.nih.gov/cgi-bin/sis/search/r?dbs+hsdb:@term+@rn+@rel+10024-97-2
   6. http://toxnet.nlm.nih.gov/cgi-bin/sis/search/r?dbs+hsdb:@term+@rn+@rel+10024-97-2
   7. http://toxnet.nlm.nih.gov/cgi-bin/sis/search/r?dbs+hsdb:@term+@rn+@rel+10024-97-2
   8. http://toxnet.nlm.nih.gov/cgi-bin/sis/search/r?dbs+hsdb:@term+@rn+@rel+10024-97-2
   9. http://toxnet.nlm.nih.gov/cgi-bin/sis/search/r?dbs+hsdb:@term+@rn+@rel+10024-97-2
  10. http://toxnet.nlm.nih.gov/cgi-bin/sis/search/r?dbs+hsdb:@term+@rn+@rel+10024-97-2
  11. http://toxnet.nlm.nih.gov/cgi-bin/sis/search/r?dbs+hsdb:@term+@rn+@rel+10024-97-2
  12. http://toxnet.nlm.nih.gov/cgi-bin/sis/search/r?dbs+hsdb:@term+@rn+@rel+10024-97-2
  13. http://toxnet.nlm.nih.gov/cgi-bin/sis/search/r?dbs+hsdb:@term+@rn+@rel+10024-97-2
  14. http://toxnet.nlm.nih.gov/cgi-bin/sis/search/r?dbs+hsdb:@term+@rn+@rel+10024-97-2
  15. http://toxnet.nlm.nih.gov/cgi-bin/sis/search/r?dbs+hsdb:@term+@rn+@rel+10024-97-2
  16. http://toxnet.nlm.nih.gov/cgi-bin/sis/search/r?dbs+hsdb:@term+@rn+@rel+10024-97-2
  17. http://pubchem.ncbi.nlm.nih.gov/vw3d/vw3d.cgi?cid=948
