   Color/Form

     * Crystals
     * White to practically white crystalline powder

   from [1]HSDB

   Odor
        Odorless
   from [2]HSDB

   Melting Point
        235 deg C with some decomposition
   from [3]HSDB

   Octanol/Water Partition Coefficient
        log Kow = 1.62
   from [4]HSDB

   Solubilities

     * 1 g dissolves in about 30 mL of alc, in about 180 mL of chloroform,
       in about 50 mL of acetone; sol in methanol, dioxane.
     * In water, 2.23X10+2 mg/L at 25 deg C

   from [5]HSDB

   Spectral Properties

     * Specific optical rotation: +102 deg at 25 deg C/D (dioxane); max
       absorption (methanol): 242 nm (e= 15,000, a= 414, 1%, 1 cm)
     * Intense mass spectral peaks: 91 m/z, 122 m/z, 300 m/z
     * UV: 1180 (Absorption Spectra in the UV and visible Regions,
       Academic Press, New York)

   from [6]HSDB

   Vapor Pressure
        1.18X10-13 mm Hg at 25 deg C (est)
   from [7]HSDB

   Other Chemical/Physical Properties

     * MAX ABSORPTION (METHANOL): 243 NM (A= 308, 1%, 1 CM), SLIGHTLY
       HYGROSCOPIC /PHOSPHATE SODIUM/
     * CRYSTALS FROM ETHANOL; MP: 266-273 DEG C /TEBUTATE/
     * Crystals; decomp at 237-239 deg C; specific optical rotation: +116
       deg at 25 deg C/D (dioxane) /prednisolone 21-acetate/
     * WHITE POWDER /PHOSPHATE SODIUM/
     * SPECIFIC OPTICAL ROTATION: +102.5 DEG @ 25 DEG C/D; PH OF 1% SOLN
       7.5 TO 8.5; SOL IN WATER, METHANOL, ETHANOL. /PHOSPHATE SODIUM/
     * Decomposes at 240-241 deg C
     * White to practically white, odorless, crystalline powders; ...
       practically insoluble in water and slightly soluble in alcohol.
       /Prednisolone acetate/
     * Prednisolone ... may be anhydrous or contain 1.5 molecules of water
       of hydration.
     * White or slightly yellow, friable granules or powder; odorless or
       has a slight odor; freely soluble in water and slightly soluble in
       alcohol. /Sodium phosphate ester of prednisolone/
     * White to slightly yellow, free-flowing powder which may have some
       soft lumps; odorless or may have not more than a moderate
       characteristic odor; hygroscopic; very slightly soluble in water
       and sparingly soluble in alcohol. /Prednisolone tebutate/
     * Henry's Law constant = 2.71X10-8 at 25 deg C (est)
     * Hydroxyl radical reaction rate constant = 7.25X10-11 at 25 deg C
       (est)
     * Ozone radical reaction rate constant = 1.31X10-17 cu cm/molec-sec
       at 25 deg C (est)

   from [8]HSDB

   Computed Properties
   Molecular Weight                  360.44402 [g/mol]
   Molecular Formula                 C[21]H[28]O[5]
   XLogP3                            1.6
   H-Bond Donor                      3
   H-Bond Acceptor                   5
   Rotatable Bond Count              2
   Tautomer Count                    9
   Exact Mass                        360.193674
   MonoIsotopic Mass                 360.193674
   Topological Polar Surface Area    94.8
   Heavy Atom Count                  26
   Formal Charge                     0
   Complexity                        724
   Isotope Atom Count                0
   Defined Atom Stereocenter Count   7
   Undefined Atom Stereocenter Count 0
   Defined Bond Stereocenter Count   0
   Undefined Bond Stereocenter Count 0
   Covalently-Bonded Unit Count      1
   Feature 3D Acceptor Count         5
   Feature 3D Donor Count            3
   Feature 3D Ring Count             4
   Effective Rotor Count             3.4
   Conformer Sampling RMSD           0.8
   CID Conformer Count               [9]2

References

   1. http://toxnet.nlm.nih.gov/cgi-bin/sis/search/r?dbs+hsdb:@term+@rn+@rel+50-24-8
   2. http://toxnet.nlm.nih.gov/cgi-bin/sis/search/r?dbs+hsdb:@term+@rn+@rel+50-24-8
   3. http://toxnet.nlm.nih.gov/cgi-bin/sis/search/r?dbs+hsdb:@term+@rn+@rel+50-24-8
   4. http://toxnet.nlm.nih.gov/cgi-bin/sis/search/r?dbs+hsdb:@term+@rn+@rel+50-24-8
   5. http://toxnet.nlm.nih.gov/cgi-bin/sis/search/r?dbs+hsdb:@term+@rn+@rel+50-24-8
   6. http://toxnet.nlm.nih.gov/cgi-bin/sis/search/r?dbs+hsdb:@term+@rn+@rel+50-24-8
   7. http://toxnet.nlm.nih.gov/cgi-bin/sis/search/r?dbs+hsdb:@term+@rn+@rel+50-24-8
   8. http://toxnet.nlm.nih.gov/cgi-bin/sis/search/r?dbs+hsdb:@term+@rn+@rel+50-24-8
   9. http://pubchem.ncbi.nlm.nih.gov/vw3d/vw3d.cgi?cid=5755
