442160
  -OEChem-07051212572D

 40 43  0     0  0  0  0  0  0999 V2000
    2.0520    2.5654    0.0000 O   0  0  0  0  0  0  0  0  0  0  0  0
    3.8372   -3.6313    0.0000 O   0  0  0  0  0  0  0  0  0  0  0  0
    5.6405   -2.5716    0.0000 O   0  0  0  0  0  0  0  0  0  0  0  0
    2.9180    1.0654    0.0000 N   0  0  0  0  0  0  0  0  0  0  0  0
    4.6660    4.1346    0.0000 N   0  0  0  0  0  0  0  0  0  0  0  0
    2.0080    0.5585    0.0000 C   0  0  0  0  0  0  0  0  0  0  0  0
    2.0000   -0.4831    0.0000 C   0  0  0  0  0  0  0  0  0  0  0  0
    3.7841    0.5654    0.0000 C   0  0  0  0  0  0  0  0  0  0  0  0
    2.9021   -1.0039    0.0000 C   0  0  0  0  0  0  0  0  0  0  0  0
    3.8001   -0.4761    0.0000 C   0  0  0  0  0  0  0  0  0  0  0  0
    2.9180    2.0654    0.0000 C   0  0  0  0  0  0  0  0  0  0  0  0
    4.6501    1.0654    0.0000 C   0  0  0  0  0  0  0  0  0  0  0  0
    4.6501    2.0654    0.0000 C   0  0  0  0  0  0  0  0  0  0  0  0
    3.7841    2.5654    0.0000 C   0  0  0  0  0  0  0  0  0  0  0  0
    2.8937   -2.0888    0.0000 C   0  0  0  0  0  0  0  0  0  0  0  0
    4.7520   -0.9967    0.0000 C   0  0  0  0  0  0  0  0  0  0  0  0
    3.8334   -2.6313    0.0000 C   0  0  0  0  0  0  0  0  0  0  0  0
    4.7688   -2.0816    0.0000 C   0  0  0  0  0  0  0  0  0  0  0  0
    5.5601    2.5722    0.0000 C   0  0  0  0  0  0  0  0  0  0  0  0
    3.7680    3.6069    0.0000 C   0  0  0  0  0  0  0  0  0  0  0  0
    5.5681    3.6138    0.0000 C   0  0  0  0  0  0  0  0  0  0  0  0
    6.4203    2.0623    0.0000 C   0  0  0  0  0  0  0  0  0  0  0  0
    2.9731   -4.1346    0.0000 C   0  0  0  0  0  0  0  0  0  0  0  0
    7.2920    2.5522    0.0000 C   0  0  0  0  0  0  0  0  0  0  0  0
    1.8035    1.1438    0.0000 H   0  0  0  0  0  0  0  0  0  0  0  0
    1.3964    0.4572    0.0000 H   0  0  0  0  0  0  0  0  0  0  0  0
    1.3900   -0.3723    0.0000 H   0  0  0  0  0  0  0  0  0  0  0  0
    1.7864   -1.0651    0.0000 H   0  0  0  0  0  0  0  0  0  0  0  0
    5.1870    0.7554    0.0000 H   0  0  0  0  0  0  0  0  0  0  0  0
    2.3556   -2.3968    0.0000 H   0  0  0  0  0  0  0  0  0  0  0  0
    5.2829   -0.6764    0.0000 H   0  0  0  0  0  0  0  0  0  0  0  0
    3.2275    3.9107    0.0000 H   0  0  0  0  0  0  0  0  0  0  0  0
    6.1062    3.9218    0.0000 H   0  0  0  0  0  0  0  0  0  0  0  0
    6.4131    1.4423    0.0000 H   0  0  0  0  0  0  0  0  0  0  0  0
    5.6477   -3.1915    0.0000 H   0  0  0  0  0  0  0  0  0  0  0  0
    2.6610   -3.5989    0.0000 H   0  0  0  0  0  0  0  0  0  0  0  0
    2.4374   -4.4467    0.0000 H   0  0  0  0  0  0  0  0  0  0  0  0
    3.2852   -4.6704    0.0000 H   0  0  0  0  0  0  0  0  0  0  0  0
    7.8253    2.2360    0.0000 H   0  0  0  0  0  0  0  0  0  0  0  0
    7.2992    3.1722    0.0000 H   0  0  0  0  0  0  0  0  0  0  0  0
  1 11  2  0  0  0  0
  2 17  1  0  0  0  0
  2 23  1  0  0  0  0
  3 18  1  0  0  0  0
  3 35  1  0  0  0  0
  4  6  1  0  0  0  0
  4  8  1  0  0  0  0
  4 11  1  0  0  0  0
  5 20  2  0  0  0  0
  5 21  1  0  0  0  0
  6  7  1  0  0  0  0
  6 25  1  0  0  0  0
  6 26  1  0  0  0  0
  7  9  1  0  0  0  0
  7 27  1  0  0  0  0
  7 28  1  0  0  0  0
  8 10  1  0  0  0  0
  8 12  2  0  0  0  0
  9 10  1  0  0  0  0
  9 15  2  0  0  0  0
 10 16  2  0  0  0  0
 11 14  1  0  0  0  0
 12 13  1  0  0  0  0
 12 29  1  0  0  0  0
 13 14  2  0  0  0  0
 13 19  1  0  0  0  0
 14 20  1  0  0  0  0
 15 17  1  0  0  0  0
 15 30  1  0  0  0  0
 16 18  1  0  0  0  0
 16 31  1  0  0  0  0
 17 18  2  0  0  0  0
 19 21  2  0  0  0  0
 19 22  1  0  0  0  0
 20 32  1  0  0  0  0
 21 33  1  0  0  0  0
 22 24  2  0  0  0  0
 22 34  1  0  0  0  0
 23 36  1  0  0  0  0
 23 37  1  0  0  0  0
 23 38  1  0  0  0  0
 24 39  1  0  0  0  0
 24 40  1  0  0  0  0
M  END
> <PUBCHEM_COMPOUND_CID>
442160

> <PUBCHEM_COMPOUND_CANONICALIZED>
1

> <PUBCHEM_CACTVS_COMPLEXITY>
561

> <PUBCHEM_CACTVS_HBOND_ACCEPTOR>
4

> <PUBCHEM_CACTVS_HBOND_DONOR>
1

> <PUBCHEM_CACTVS_ROTATABLE_BOND>
2

> <PUBCHEM_CACTVS_SUBSKEYS>
AAADceB7MAAAAAAAAAAAAAAAAAAAAAAAAAA8WIEAAAAAAACxwAAAHgAACAAADAzBmgY+hpMIFgCoAjV3VACCiCA1IiAI2CEuzNgNJnrG9ZuEcatkxhHL+ce40bIOoAABAAAQQABAAAIAACCAAAAAAAAAAA==

> <PUBCHEM_IUPAC_OPENEYE_NAME>
2-hydroxy-3-methoxy-12-vinyl-5,6-dihydroisoquinolino[2,1-b][2,7]naphthyridin-8-one

> <PUBCHEM_IUPAC_CAS_NAME>
12-ethenyl-2-hydroxy-3-methoxy-5,6-dihydroisoquinolino[2,1-b][2,7]naphthyridin-8-one

> <PUBCHEM_IUPAC_NAME>
12-ethenyl-2-hydroxy-3-methoxy-5,6-dihydroisoquinolino[2,1-b][2,7]naphthyridin-8-one

> <PUBCHEM_IUPAC_SYSTEMATIC_NAME>
12-ethenyl-3-methoxy-2-oxidanyl-5,6-dihydroisoquinolino[2,1-b][2,7]naphthyridin-8-one

> <PUBCHEM_IUPAC_TRADITIONAL_NAME>
2-hydroxy-3-methoxy-12-vinyl-5,6-dihydroisoquinolino[2,1-b][2,7]naphthyridin-8-one

> <PUBCHEM_IUPAC_INCHI>
InChI=1S/C19H16N2O3/c1-3-11-9-20-10-15-13(11)7-16-14-8-17(22)18(24-2)6-12(14)4-5-21(16)19(15)23/h3,6-10,22H,1,4-5H2,2H3

> <PUBCHEM_IUPAC_INCHIKEY>
JWOCTFIJQXTYOK-UHFFFAOYSA-N

> <PUBCHEM_XLOGP3_AA>
2.5

> <PUBCHEM_EXACT_MASS>
320.116092

> <PUBCHEM_MOLECULAR_FORMULA>
C19H16N2O3

> <PUBCHEM_MOLECULAR_WEIGHT>
320.34194

> <PUBCHEM_OPENEYE_CAN_SMILES>
COC1=C(C=C2C(=C1)CCN3C2=CC4=C(C=NC=C4C3=O)C=C)O

> <PUBCHEM_OPENEYE_ISO_SMILES>
COC1=C(C=C2C(=C1)CCN3C2=CC4=C(C=NC=C4C3=O)C=C)O

> <PUBCHEM_CACTVS_TPSA>
62.7

> <PUBCHEM_MONOISOTOPIC_WEIGHT>
320.116092

> <PUBCHEM_TOTAL_CHARGE>
0

> <PUBCHEM_HEAVY_ATOM_COUNT>
24

> <PUBCHEM_ATOM_DEF_STEREO_COUNT>
0

> <PUBCHEM_ATOM_UDEF_STEREO_COUNT>
0

> <PUBCHEM_BOND_DEF_STEREO_COUNT>
0

> <PUBCHEM_BOND_UDEF_STEREO_COUNT>
0

> <PUBCHEM_ISOTOPIC_ATOM_COUNT>
0

> <PUBCHEM_COMPONENT_COUNT>
1

> <PUBCHEM_CACTVS_TAUTO_COUNT>
3

> <PUBCHEM_COORDINATE_TYPE>
1
5
255

> <PUBCHEM_BONDANNOTATIONS>
10  16  8
11  14  8
12  13  8
13  14  8
13  19  8
14  20  8
15  17  8
16  18  8
17  18  8
19  21  8
4  11  8
4  8  8
5  20  8
5  21  8
8  12  8
9  10  8
9  15  8

$$$$

