   Chemical and Physical Properties References

   [1]USDA ARS - USDA chemical properties
   from [2]ChemIDplus

   Color/Form

     * White to light tan waxy solid
     * White to light tan crystals.

   from [3]HSDB

   Odor
        Camphor-like odor
   from [4]HSDB

   Boiling Point
        145 DEG C @ 1.5 MM HG
   from [5]HSDB

   Melting Point
        95-96 deg C
   from [6]HSDB

   Corrosivity
        Corrosive to metals.
   from [7]HSDB

   Density/Specific Gravity
        1.57 @ 9 deg C
   from [8]HSDB

   Octanol/Water Partition Coefficient
        log Kow = 6.10 [Simpson CD et al; Bull Environ Contam Toxicol 55:
   149-53 (1995)] [9]PubMed Abstract
   from [10]HSDB

   Solubilities

     * g/100 ml solvent @ 27 deg C: acetone 75, benzene 106, carbon
       tetrachloride 112, cyclohexanone 119, alcohol 4.5, xylene 102
     * Soluble in hexane.
     * Soluble in ethyl ether, ethanol, ligroin
     * In water, 0.18 mg/l @ 25 deg C

   from [11]HSDB

   Spectral Properties

     * MAX ABSORPTION (ALCOHOL): 236 NM (LOG E= 4.78); 309 NM (LOG E=
       3.96); 328 NM (LOG E= 3.88)
     * Intense mass spectral peaks: 100 m/z (100%), 65 m/z (44%), 272 m/z
       (40%), 274 m/z (32%)
     * MS: NIST (NIST/EPA/MCDC Mass Spectral Database 1990 version) 74587
     * MASS: 5018 (National Bureau of Standards EPA-NIH Mass Spectra Data
       Base, NSRDS-NBS-63)

   from [12]HSDB

   Vapor Pressure
        4.0X10-4 mm Hg @ 25 deg C
   from [13]HSDB

   Other Chemical/Physical Properties

     * NOT READILY DEHYDROCHLORINATED; SUSCEPTIBLE TO EPOXIDATION
     * HAS HIGH LIPID-WATER PARTITION COEFFICIENTS; FORMS PHOTOPRODUCT,
       PHOTOHEPTACHLOR.
     * 50-75 CENTIPOISES @ 90 DEG C /TECHNICAL/
     * Soft, waxy solid /Technical/
     * Henry's Law constant = 2.94X10-4 atm-cu m/mol @ 25 deg C

   from [14]HSDB

   Computed Properties
   Molecular Weight                  373.3177 [g/mol]
   Molecular Formula                 C[10]H[5]Cl[7]
   XLogP3-AA                         4.3
   H-Bond Donor                      0
   H-Bond Acceptor                   0
   Rotatable Bond Count              0
   Exact Mass                        371.818144
   MonoIsotopic Mass                 369.821094
   Topological Polar Surface Area    0
   Heavy Atom Count                  17
   Formal Charge                     0
   Complexity                        467
   Isotope Atom Count                0
   Defined Atom Stereocenter Count   0
   Undefined Atom Stereocenter Count 5
   Defined Bond Stereocenter Count   0
   Undefined Bond Stereocenter Count 0
   Covalently-Bonded Unit Count      1
   Feature 3D Ring Count             2
   Effective Rotor Count             0.4
   Conformer Sampling RMSD           0.4
   CID Conformer Count               [15]14

References

   1. http://www.ars.usda.gov/SP2UserFiles/ad_hoc/12755100DatabaseFiles/PesticidePropertiesDatabase/IndividualPesticideFiles/HEPTACHLOR.TXT
   2. http://chem.sis.nlm.nih.gov/chemidplus/
   3. http://toxnet.nlm.nih.gov/cgi-bin/sis/search/r?dbs+hsdb:@term+@rn+@rel+76-44-8
   4. http://toxnet.nlm.nih.gov/cgi-bin/sis/search/r?dbs+hsdb:@term+@rn+@rel+76-44-8
   5. http://toxnet.nlm.nih.gov/cgi-bin/sis/search/r?dbs+hsdb:@term+@rn+@rel+76-44-8
   6. http://toxnet.nlm.nih.gov/cgi-bin/sis/search/r?dbs+hsdb:@term+@rn+@rel+76-44-8
   7. http://toxnet.nlm.nih.gov/cgi-bin/sis/search/r?dbs+hsdb:@term+@rn+@rel+76-44-8
   8. http://toxnet.nlm.nih.gov/cgi-bin/sis/search/r?dbs+hsdb:@term+@rn+@rel+76-44-8
   9. http://www.ncbi.nlm.nih.gov/entrez/query.fcgi?cmd=Retrieve&db=pubmed&dopt=Abstract&list_uids=7663085
  10. http://toxnet.nlm.nih.gov/cgi-bin/sis/search/r?dbs+hsdb:@term+@rn+@rel+76-44-8
  11. http://toxnet.nlm.nih.gov/cgi-bin/sis/search/r?dbs+hsdb:@term+@rn+@rel+76-44-8
  12. http://toxnet.nlm.nih.gov/cgi-bin/sis/search/r?dbs+hsdb:@term+@rn+@rel+76-44-8
  13. http://toxnet.nlm.nih.gov/cgi-bin/sis/search/r?dbs+hsdb:@term+@rn+@rel+76-44-8
  14. http://toxnet.nlm.nih.gov/cgi-bin/sis/search/r?dbs+hsdb:@term+@rn+@rel+76-44-8
  15. http://pubchem.ncbi.nlm.nih.gov/vw3d/vw3d.cgi?cid=3589
