   Color/Form
        Reddish-orange needles
   from [1]HSDB

   Melting Point
        151-152 deg C
   from [2]HSDB

   Octanol/Water Partition Coefficient
        Log Kow = 0.15
   from [3]HSDB

   Solubilities
        Slightly soluble in water; soluble in dimethyl formamide, ethanol
   and methanol
   from [4]HSDB

   Spectral Properties
        Max absorption (ethanol): 303 and 385 nm
   from [5]HSDB

   Other Chemical/Physical Properties
        Isomerization of cis to trans form of furylfuramide has been shown
   to occur in the presence of a variety of biological reducing agents.
   from [6]HSDB

   Computed Properties
   Molecular Weight                  248.19162 [g/mol]
   Molecular Formula                 C[11]H[8]N[2]O[5]
   XLogP3                            0.1
   H-Bond Donor                      1
   H-Bond Acceptor                   5
   Rotatable Bond Count              3
   Tautomer Count                    2
   Exact Mass                        248.043321
   MonoIsotopic Mass                 248.043321
   Topological Polar Surface Area    115
   Heavy Atom Count                  18
   Formal Charge                     0
   Complexity                        376
   Isotope Atom Count                0
   Defined Atom Stereocenter Count   0
   Undefined Atom Stereocenter Count 0
   Defined Bond Stereocenter Count   1
   Undefined Bond Stereocenter Count 0
   Covalently-Bonded Unit Count      1
   Feature 3D Acceptor Count         5
   Feature 3D Donor Count            1
   Feature 3D Anion Count            1
   Feature 3D Ring Count             2
   Effective Rotor Count             4
   Conformer Sampling RMSD           0.6
   CID Conformer Count               [7]46

References

   1. http://toxnet.nlm.nih.gov/cgi-bin/sis/search/r?dbs+hsdb:@term+@rn+@rel+3688-53-7
   2. http://toxnet.nlm.nih.gov/cgi-bin/sis/search/r?dbs+hsdb:@term+@rn+@rel+3688-53-7
   3. http://toxnet.nlm.nih.gov/cgi-bin/sis/search/r?dbs+hsdb:@term+@rn+@rel+3688-53-7
   4. http://toxnet.nlm.nih.gov/cgi-bin/sis/search/r?dbs+hsdb:@term+@rn+@rel+3688-53-7
   5. http://toxnet.nlm.nih.gov/cgi-bin/sis/search/r?dbs+hsdb:@term+@rn+@rel+3688-53-7
   6. http://toxnet.nlm.nih.gov/cgi-bin/sis/search/r?dbs+hsdb:@term+@rn+@rel+3688-53-7
   7. http://pubchem.ncbi.nlm.nih.gov/vw3d/vw3d.cgi?cid=5280707
