   Color/Form
        Colorless or white crystals or powder
   from [1]HSDB

   Boiling Point
        250 deg C @ 22 mm Hg
   from [2]HSDB

   Melting Point
        157.5 deg C
   from [3]HSDB

   Dissociation Constants
        pKa= 10.60
   from [4]HSDB

   Heat of Combustion
        2327.6 kg cal/g mole at 20 deg C, 760 mm Hg (solid)
   from [5]HSDB

   Octanol/Water Partition Coefficient
        log Kow= 1.14
   from [6]HSDB

   Solubilities

     * Soluble in water, ethyl ether, and benzene. Very soluble in
       ethanol.
     * Slightly soluble in water, soluble in alcohol and chloroform.

   from [7]HSDB

   Spectral Properties

     * MAX ABSORPTION (ALCOHOL): 212 NM (LOG E= 4.4); 236 NM (LOG E= 3.7)
       SHOULDER; 286 NM (LOG E= 3.2)
     * IR: 1603 (Documentation of Molecular Spectroscopy Collection)
     * UV: 5-603 (Organic Electronic Spectral Data, Phillips et al, John
       Wiley & Sons, New York)
     * MASS: 226 (Aldermaston, Eight Peak Index of Mass Spectra, UK)
     * Intense mass spectral peaks: 124 m/z, 162 m/z, 229 m/z, 299 m/z

   from [8]HSDB

   Other Chemical/Physical Properties

     * Levorotatory in acid & alcohol solutions
     * Effloresces slowly in dry air, affected by light.
     * MAX ABSORPTION (WATER): 212 NM (LOG E= 4.41); 284 NM (LOG E= 3.22)
       /CODEINE PHOSPHATE/
     * Codeine is methylmorphine, the methyl substitution being on the
       phenolic OH.
     * MASS: 4813 (National Bureau of Standards EPA-NIH Mass Spectra Data
       Base, NSRDS-NBS-63) /Codeine, hydrate/
     * IR: 5009 (Coblentz Society Spectral Collection) /Codeine,
       hydrochloride/
     * UV: 5-603 (Organic Electronic Spectral Data, Phillips et al, John
       Wiley & Sons, New York) /Codeine, phosphate/
     * NMR: 479 (Johnson and Jankowski, Carbon-13 NMR Spectra, John Wiley
       & Sons, New York) /Codeine, phosphate/
     * IR: 5014 (Coblentz Society Spectral Collection) /Codeine, sulfate/
     * Orthorhombic sphenoidal rods or tablets (octahedra) from water or
       dilute alcohol; specific optical rotation: -136 deg at 15 deg C/D
       (alc 2%), -112 deg at 15 deg C/D (chloroform 2%); pK at 15 deg C,
       6.05; MP, 154-156 deg C (after drying at 80 deg C); sublimes at
       140-145 deg C when anhyd at 1.5 mm Hg; pH of saturated aq soln,
       9.8; Melts to oily drops when heated in amt of water insufficient
       for complete soln /Codeine monohydrate/
     * Density: 1.32 @ 20 deg C/4 deg C /Monohydrate/
     * 1 g dissolves in 120 ml water, & in 60 ml @ 80 deg C; 1 g dissolves
       in 2 ml alc, 1.2 ml hot alc; 1 g in 13 ml benzene, 18 ml ether, 0.5
       ml chloroform. Freely sol in amyl alcohol, methanol, dil acids;
       almost insol in petroleum ether, soln of alkali hydroxide.
       /Monohydrate/
     * Dihydrate, crystals; acetic acid odor. Sol in water, alc. Loses
       acetic acid on keeping, then becomes incompletely sol in water.
       /Acetate/
     * Dihydrate, crystals. Anhydr, mp 190-192 deg C. Specific rotation @
       22 deg C: -96.6 deg. 1 g dissolves in 60 ml water, 110 ml alcohol.
       pH about 5. /Hydrobromide/
     * Dihydrate, small needles, mp ~280 deg C with some decomposition.
       Specific rotation @ 22 deg C -108 deg. 1 g dissolves in 20 ml
       water, 1 ml boiling water, 180 ml alcohol. pH about 5.
       /Hydrochloride/
     * White, crystalline powder. Slightly sol in water; freely sol in
       alcohol or ether. /Salicylate/

   from [9]HSDB

   Computed Properties
   Molecular Weight                  299.36424 [g/mol]
   Molecular Formula                 C[18]H[21]NO[3]
   XLogP3                            1.1
   H-Bond Donor                      1
   H-Bond Acceptor                   4
   Rotatable Bond Count              1
   Exact Mass                        299.152144
   MonoIsotopic Mass                 299.152144
   Topological Polar Surface Area    41.9
   Heavy Atom Count                  22
   Formal Charge                     0
   Complexity                        509
   Isotope Atom Count                0
   Defined Atom Stereocenter Count   5
   Undefined Atom Stereocenter Count 0
   Defined Bond Stereocenter Count   0
   Undefined Bond Stereocenter Count 0
   Covalently-Bonded Unit Count      1
   Feature 3D Acceptor Count         3
   Feature 3D Donor Count            1
   Feature 3D Cation Count           1
   Feature 3D Ring Count             5
   Effective Rotor Count             2.2
   Conformer Sampling RMSD           0.6
   CID Conformer Count               [10]1

References

   1. http://toxnet.nlm.nih.gov/cgi-bin/sis/search/r?dbs+hsdb:@term+@rn+@rel+76-57-3
   2. http://toxnet.nlm.nih.gov/cgi-bin/sis/search/r?dbs+hsdb:@term+@rn+@rel+76-57-3
   3. http://toxnet.nlm.nih.gov/cgi-bin/sis/search/r?dbs+hsdb:@term+@rn+@rel+76-57-3
   4. http://toxnet.nlm.nih.gov/cgi-bin/sis/search/r?dbs+hsdb:@term+@rn+@rel+76-57-3
   5. http://toxnet.nlm.nih.gov/cgi-bin/sis/search/r?dbs+hsdb:@term+@rn+@rel+76-57-3
   6. http://toxnet.nlm.nih.gov/cgi-bin/sis/search/r?dbs+hsdb:@term+@rn+@rel+76-57-3
   7. http://toxnet.nlm.nih.gov/cgi-bin/sis/search/r?dbs+hsdb:@term+@rn+@rel+76-57-3
   8. http://toxnet.nlm.nih.gov/cgi-bin/sis/search/r?dbs+hsdb:@term+@rn+@rel+76-57-3
   9. http://toxnet.nlm.nih.gov/cgi-bin/sis/search/r?dbs+hsdb:@term+@rn+@rel+76-57-3
  10. http://pubchem.ncbi.nlm.nih.gov/vw3d/vw3d.cgi?cid=5284371
