442091
  -OEChem-07051212562D

 51 53  0     1  0  0  0  0  0999 V2000
   10.5493    0.4985    0.0000 O   0  0  0  0  0  0  0  0  0  0  0  0
    6.2781    1.3684    0.0000 N   0  0  0  0  0  0  0  0  0  0  0  0
    4.6783   -2.3483    0.0000 N   0  0  0  0  0  0  0  0  0  0  0  0
    8.2351    1.7809    0.0000 C   0  0  2  0  0  0  0  0  0  0  0  0
    7.2566    1.5747    0.0000 C   0  0  0  0  0  0  0  0  0  0  0  0
    8.5458    2.7314    0.0000 C   0  0  0  0  0  0  0  0  0  0  0  0
    8.9030    1.0366    0.0000 C   0  0  0  0  0  0  0  0  0  0  0  0
    9.5243    2.9376    0.0000 C   0  0  0  0  0  0  0  0  0  0  0  0
   10.1921    2.1933    0.0000 C   0  0  2  0  0  0  0  0  0  0  0  0
    9.8815    1.2428    0.0000 C   0  0  0  0  0  0  0  0  0  0  0  0
    7.0504    2.5532    0.0000 C   0  0  0  0  0  0  0  0  0  0  0  0
    7.4628    0.5961    0.0000 C   0  0  0  0  0  0  0  0  0  0  0  0
    5.9674    0.4179    0.0000 C   0  0  0  0  0  0  0  0  0  0  0  0
   11.1706    2.3995    0.0000 C   0  0  0  0  0  0  0  0  0  0  0  0
    4.9889    0.2117    0.0000 C   0  0  0  0  0  0  0  0  0  0  0  0
    4.6783   -0.7388    0.0000 C   0  0  0  0  0  0  0  0  0  0  0  0
    3.7320   -1.0436    0.0000 C   0  0  0  0  0  0  0  0  0  0  0  0
    5.2619   -1.5436    0.0000 C   0  0  0  0  0  0  0  0  0  0  0  0
    3.7320   -2.0436    0.0000 C   0  0  0  0  0  0  0  0  0  0  0  0
    2.8660   -0.5436    0.0000 C   0  0  0  0  0  0  0  0  0  0  0  0
    2.8660   -2.5436    0.0000 C   0  0  0  0  0  0  0  0  0  0  0  0
    2.0000   -1.0436    0.0000 C   0  0  0  0  0  0  0  0  0  0  0  0
    2.0000   -2.0436    0.0000 C   0  0  0  0  0  0  0  0  0  0  0  0
    7.9710    0.9729    0.0000 H   0  0  0  0  0  0  0  0  0  0  0  0
    8.5252    3.3510    0.0000 H   0  0  0  0  0  0  0  0  0  0  0  0
    7.9320    2.8187    0.0000 H   0  0  0  0  0  0  0  0  0  0  0  0
    8.3766    0.7089    0.0000 H   0  0  0  0  0  0  0  0  0  0  0  0
    9.1342    0.4613    0.0000 H   0  0  0  0  0  0  0  0  0  0  0  0
   10.0506    3.2652    0.0000 H   0  0  0  0  0  0  0  0  0  0  0  0
    9.2930    3.5129    0.0000 H   0  0  0  0  0  0  0  0  0  0  0  0
   10.6062    1.7318    0.0000 H   0  0  0  0  0  0  0  0  0  0  0  0
    5.8640    1.8299    0.0000 H   0  0  0  0  0  0  0  0  0  0  0  0
    7.6571    2.6810    0.0000 H   0  0  0  0  0  0  0  0  0  0  0  0
    6.9225    3.1598    0.0000 H   0  0  0  0  0  0  0  0  0  0  0  0
    6.4437    2.4253    0.0000 H   0  0  0  0  0  0  0  0  0  0  0  0
    6.8562    0.4683    0.0000 H   0  0  0  0  0  0  0  0  0  0  0  0
    7.5907   -0.0105    0.0000 H   0  0  0  0  0  0  0  0  0  0  0  0
    8.0695    0.7240    0.0000 H   0  0  0  0  0  0  0  0  0  0  0  0
    5.9880   -0.2017    0.0000 H   0  0  0  0  0  0  0  0  0  0  0  0
    6.5812    0.3306    0.0000 H   0  0  0  0  0  0  0  0  0  0  0  0
   11.2985    1.7929    0.0000 H   0  0  0  0  0  0  0  0  0  0  0  0
   11.7773    2.5274    0.0000 H   0  0  0  0  0  0  0  0  0  0  0  0
   11.0428    3.0062    0.0000 H   0  0  0  0  0  0  0  0  0  0  0  0
    4.9684    0.8314    0.0000 H   0  0  0  0  0  0  0  0  0  0  0  0
    4.3751    0.2990    0.0000 H   0  0  0  0  0  0  0  0  0  0  0  0
    5.8819   -1.5436    0.0000 H   0  0  0  0  0  0  0  0  0  0  0  0
    4.8709   -2.9376    0.0000 H   0  0  0  0  0  0  0  0  0  0  0  0
    2.8660    0.0764    0.0000 H   0  0  0  0  0  0  0  0  0  0  0  0
    2.8660   -3.1636    0.0000 H   0  0  0  0  0  0  0  0  0  0  0  0
    1.4631   -0.7336    0.0000 H   0  0  0  0  0  0  0  0  0  0  0  0
    1.4631   -2.3536    0.0000 H   0  0  0  0  0  0  0  0  0  0  0  0
  1 10  2  0  0  0  0
  2  5  1  0  0  0  0
  2 13  1  0  0  0  0
  2 32  1  0  0  0  0
  3 18  1  0  0  0  0
  3 19  1  0  0  0  0
  3 47  1  0  0  0  0
  4  5  1  0  0  0  0
  4  6  1  0  0  0  0
  4  7  1  0  0  0  0
  4 24  1  1  0  0  0
  5 11  1  0  0  0  0
  5 12  1  0  0  0  0
  6  8  1  0  0  0  0
  6 25  1  0  0  0  0
  6 26  1  0  0  0  0
  7 10  1  0  0  0  0
  7 27  1  0  0  0  0
  7 28  1  0  0  0  0
  8  9  1  0  0  0  0
  8 29  1  0  0  0  0
  8 30  1  0  0  0  0
  9 10  1  0  0  0  0
  9 14  1  1  0  0  0
  9 31  1  0  0  0  0
 11 33  1  0  0  0  0
 11 34  1  0  0  0  0
 11 35  1  0  0  0  0
 12 36  1  0  0  0  0
 12 37  1  0  0  0  0
 12 38  1  0  0  0  0
 13 15  1  0  0  0  0
 13 39  1  0  0  0  0
 13 40  1  0  0  0  0
 14 41  1  0  0  0  0
 14 42  1  0  0  0  0
 14 43  1  0  0  0  0
 15 16  1  0  0  0  0
 15 44  1  0  0  0  0
 15 45  1  0  0  0  0
 16 17  1  0  0  0  0
 16 18  2  0  0  0  0
 17 19  1  0  0  0  0
 17 20  2  0  0  0  0
 18 46  1  0  0  0  0
 19 21  2  0  0  0  0
 20 22  1  0  0  0  0
 20 48  1  0  0  0  0
 21 23  1  0  0  0  0
 21 49  1  0  0  0  0
 22 23  2  0  0  0  0
 22 50  1  0  0  0  0
 23 51  1  0  0  0  0
M  END
> <PUBCHEM_COMPOUND_CID>
442091

> <PUBCHEM_COMPOUND_CANONICALIZED>
1

> <PUBCHEM_CACTVS_COMPLEXITY>
420

> <PUBCHEM_CACTVS_HBOND_ACCEPTOR>
2

> <PUBCHEM_CACTVS_HBOND_DONOR>
2

> <PUBCHEM_CACTVS_ROTATABLE_BOND>
5

> <PUBCHEM_CACTVS_SUBSKEYS>
AAADceB7IAAAAAAAAAAAAAAAAAAAAWAAAAAwYAAAAAAAAFgB8AAAHgAQAAAADYzBngQ+wPLJkACoA7R3RACCgCAxAiAI2aE4ZJgIIPLAkZGEIAhgkADIyAcciMCOgAAAAAACAACAAAAAAAQAAAAAAAAAAA==

> <PUBCHEM_IUPAC_OPENEYE_NAME>
(2R,5R)-5-[1-[2-(1H-indol-3-yl)ethylamino]-1-methyl-ethyl]-2-methyl-cyclohexanone

> <PUBCHEM_IUPAC_CAS_NAME>
(2R,5R)-5-[2-[2-(1H-indol-3-yl)ethylamino]propan-2-yl]-2-methyl-1-cyclohexanone

> <PUBCHEM_IUPAC_NAME>
(2R,5R)-5-[2-[2-(1H-indol-3-yl)ethylamino]propan-2-yl]-2-methylcyclohexan-1-one

> <PUBCHEM_IUPAC_SYSTEMATIC_NAME>
(2R,5R)-5-[2-[2-(1H-indol-3-yl)ethylamino]propan-2-yl]-2-methyl-cyclohexan-1-one

> <PUBCHEM_IUPAC_TRADITIONAL_NAME>
(2R,5R)-5-[1-[2-(1H-indol-3-yl)ethylamino]-1-methyl-ethyl]-2-methyl-cyclohexanone

> <PUBCHEM_IUPAC_INCHI>
InChI=1S/C20H28N2O/c1-14-8-9-16(12-19(14)23)20(2,3)22-11-10-15-13-21-18-7-5-4-6-17(15)18/h4-7,13-14,16,21-22H,8-12H2,1-3H3/t14-,16-/m1/s1

> <PUBCHEM_IUPAC_INCHIKEY>
YKGQTGZOJCRHNO-GDBMZVCRSA-N

> <PUBCHEM_XLOGP3_AA>
3.5

> <PUBCHEM_EXACT_MASS>
312.220164

> <PUBCHEM_MOLECULAR_FORMULA>
C20H28N2O

> <PUBCHEM_MOLECULAR_WEIGHT>
312.44912

> <PUBCHEM_OPENEYE_CAN_SMILES>
CC1CCC(CC1=O)C(C)(C)NCCC2=CNC3=CC=CC=C32

> <PUBCHEM_OPENEYE_ISO_SMILES>
C[C@@H]1CC[C@H](CC1=O)C(C)(C)NCCC2=CNC3=CC=CC=C32

> <PUBCHEM_CACTVS_TPSA>
44.9

> <PUBCHEM_MONOISOTOPIC_WEIGHT>
312.220164

> <PUBCHEM_TOTAL_CHARGE>
0

> <PUBCHEM_HEAVY_ATOM_COUNT>
23

> <PUBCHEM_ATOM_DEF_STEREO_COUNT>
2

> <PUBCHEM_ATOM_UDEF_STEREO_COUNT>
0

> <PUBCHEM_BOND_DEF_STEREO_COUNT>
0

> <PUBCHEM_BOND_UDEF_STEREO_COUNT>
0

> <PUBCHEM_ISOTOPIC_ATOM_COUNT>
0

> <PUBCHEM_COMPONENT_COUNT>
1

> <PUBCHEM_CACTVS_TAUTO_COUNT>
3

> <PUBCHEM_COORDINATE_TYPE>
1
5
255

> <PUBCHEM_BONDANNOTATIONS>
16  17  8
16  18  8
17  19  8
17  20  8
19  21  8
20  22  8
21  23  8
22  23  8
3  18  8
3  19  8
4  24  5
9  14  5

$$$$

