   Color/Form

     * COLORLESS, CLEAR LIQ
     * Colorless liquid ...

   from [1]HSDB

   Odor

     * PUNGENT
     * NAUSEATING ODOR RESEMBLING ETHYLENE DICHLORIDE
     * SWEET, LIKE CHLOROFORM
     * ... Chlorinated solvent-like odor.

   from [2]HSDB

   Boiling Point
        178.5 DEG C
   from [3]HSDB

   Melting Point
        -51.9 DEG C
   from [4]HSDB

   Corrosivity
        NOT VERY CORROSIVE TO IRON, MILD STEEL, OR ALUMINUM.
   from [5]HSDB

   Density/Specific Gravity
        1.22 @ 20 DEG C/20 DEG C
   from [6]HSDB

   Heat of Combustion
        (EST) -4180 CAL/G
   from [7]HSDB

   Heat of Vaporization
        79.5 CAL/G
   from [8]HSDB

   Octanol/Water Partition Coefficient
        log Kow= 1.29
   from [9]HSDB

   Solubilities

     * MISCIBLE WITH AROMATIC BUT NOT PARAFFIN HYDROCARBONS
     * SOL IN ALC, ETHER, ACETONE, BENZENE
     * 1.1 wt% water @ 20 deg C
     * Soluble in oxygenated solvents and aromatic solvents
     * In water, 10,200 mg/l at 20 deg C

   from [10]HSDB

   Spectral Properties

     * INDEX OF REFRACTION: 1.451 @ 20 DEG C/D
     * 2-Chloroethyl ether, 97%, exhibits its two strongest infra red
       absorption bands at wavelengths of 8.9 and 15.0 microns.

   from [11]HSDB

   Surface Tension
        37.9 DYNES/CM @ 19 DEG C
   from [12]HSDB

   Vapor Density
        4.93 (AIR= 1)
   from [13]HSDB

   Vapor Pressure
        1.55 mm Hg @ 25 deg C
   from [14]HSDB

   Viscosity
        2.0653 cP @ 25 deg C
   from [15]HSDB

   Other Chemical/Physical Properties

     * EQUIVALENCIES: 1 PPM= 5.85 MG/CU M @ 25 DEG C @ 760 MM HG; 1 MG/L=
       171 PPM @ 25 DEG C @ 760 MM HG
     * DISSOLVES OILS, FATS, GREASES.
     * % IN "SATURATED" AIR @ 25 DEG C, 760 MM HG: 0.18; DENSITY OF
       "SATURATED" AIR @ 25 DEG C, 760 MM HG: 1.007
     * LIQUID-WATER INTERFACIAL TENSION: (EST) 40 DYNES/CM @ 20 DEG C;
       RATIO OF SPECIFIC HEATS OF VAPOR (GAS): 1.0743
     * Coefficient of expansion @ 20 deg C, 0.00097 per deg C; specific
       heat @ 20-30 deg C, 0.369 cal; wt per gal @ 20 deg C, 10.17 lb
     * Sinks and mixes slowly with water.
     * FREEZES @ -50 DEG C

   from [16]HSDB

   Computed Properties
   Molecular Weight                  143.01172 [g/mol]
   Molecular Formula                 C[4]H[8]Cl[2]O
   XLogP3                            1.3
   H-Bond Donor                      0
   H-Bond Acceptor                   1
   Rotatable Bond Count              4
   Exact Mass                        141.99522
   MonoIsotopic Mass                 141.99522
   Topological Polar Surface Area    9.2
   Heavy Atom Count                  7
   Formal Charge                     0
   Complexity                        28.9
   Isotope Atom Count                0
   Defined Atom Stereocenter Count   0
   Undefined Atom Stereocenter Count 0
   Defined Bond Stereocenter Count   0
   Undefined Bond Stereocenter Count 0
   Covalently-Bonded Unit Count      1
   Feature 3D Acceptor Count         1
   Effective Rotor Count             4
   Conformer Sampling RMSD           0.6
   CID Conformer Count               [17]19

References

   1. http://toxnet.nlm.nih.gov/cgi-bin/sis/search/r?dbs+hsdb:@term+@rn+@rel+111-44-4
   2. http://toxnet.nlm.nih.gov/cgi-bin/sis/search/r?dbs+hsdb:@term+@rn+@rel+111-44-4
   3. http://toxnet.nlm.nih.gov/cgi-bin/sis/search/r?dbs+hsdb:@term+@rn+@rel+111-44-4
   4. http://toxnet.nlm.nih.gov/cgi-bin/sis/search/r?dbs+hsdb:@term+@rn+@rel+111-44-4
   5. http://toxnet.nlm.nih.gov/cgi-bin/sis/search/r?dbs+hsdb:@term+@rn+@rel+111-44-4
   6. http://toxnet.nlm.nih.gov/cgi-bin/sis/search/r?dbs+hsdb:@term+@rn+@rel+111-44-4
   7. http://toxnet.nlm.nih.gov/cgi-bin/sis/search/r?dbs+hsdb:@term+@rn+@rel+111-44-4
   8. http://toxnet.nlm.nih.gov/cgi-bin/sis/search/r?dbs+hsdb:@term+@rn+@rel+111-44-4
   9. http://toxnet.nlm.nih.gov/cgi-bin/sis/search/r?dbs+hsdb:@term+@rn+@rel+111-44-4
  10. http://toxnet.nlm.nih.gov/cgi-bin/sis/search/r?dbs+hsdb:@term+@rn+@rel+111-44-4
  11. http://toxnet.nlm.nih.gov/cgi-bin/sis/search/r?dbs+hsdb:@term+@rn+@rel+111-44-4
  12. http://toxnet.nlm.nih.gov/cgi-bin/sis/search/r?dbs+hsdb:@term+@rn+@rel+111-44-4
  13. http://toxnet.nlm.nih.gov/cgi-bin/sis/search/r?dbs+hsdb:@term+@rn+@rel+111-44-4
  14. http://toxnet.nlm.nih.gov/cgi-bin/sis/search/r?dbs+hsdb:@term+@rn+@rel+111-44-4
  15. http://toxnet.nlm.nih.gov/cgi-bin/sis/search/r?dbs+hsdb:@term+@rn+@rel+111-44-4
  16. http://toxnet.nlm.nih.gov/cgi-bin/sis/search/r?dbs+hsdb:@term+@rn+@rel+111-44-4
  17. http://pubchem.ncbi.nlm.nih.gov/vw3d/vw3d.cgi?cid=8115
