443109
  -OEChem-07051213012D

 68 68  0     1  0  0  0  0  0999 V2000
    4.5981    1.1550    0.0000 O   0  0  0  0  0  0  0  0  0  0  0  0
    5.4641    0.6550    0.0000 O   0  0  0  0  0  0  0  0  0  0  0  0
    8.0622   -1.8450    0.0000 O   0  0  0  0  0  0  0  0  0  0  0  0
    3.7320    0.6550    0.0000 O   0  0  0  0  0  0  0  0  0  0  0  0
    6.3301   -4.8450    0.0000 O   0  0  0  0  0  0  0  0  0  0  0  0
    5.4641    2.6550    0.0000 N   0  0  0  0  0  0  0  0  0  0  0  0
    7.1962    0.6550    0.0000 N   0  0  0  0  0  0  0  0  0  0  0  0
    2.8660    2.1550    0.0000 N   0  0  0  0  0  0  0  0  0  0  0  0
    8.9282   -0.3450    0.0000 N   0  0  0  0  0  0  0  0  0  0  0  0
    6.3301    2.1550    0.0000 C   0  0  3  0  0  0  0  0  0  0  0  0
    7.1962    2.6550    0.0000 C   0  0  0  0  0  0  0  0  0  0  0  0
    7.1962    3.6550    0.0000 C   0  0  0  0  0  0  0  0  0  0  0  0
    3.7320    2.6550    0.0000 C   0  0  3  0  0  0  0  0  0  0  0  0
    3.7320    3.6550    0.0000 C   0  0  0  0  0  0  0  0  0  0  0  0
    2.8660    4.1550    0.0000 C   0  0  0  0  0  0  0  0  0  0  0  0
    4.5981    2.1550    0.0000 C   0  0  0  0  0  0  0  0  0  0  0  0
    6.3301    1.1550    0.0000 C   0  0  0  0  0  0  0  0  0  0  0  0
    8.0622    4.1550    0.0000 C   0  0  0  0  0  0  0  0  0  0  0  0
    6.3301    4.1550    0.0000 C   0  0  0  0  0  0  0  0  0  0  0  0
    7.1962   -0.3450    0.0000 C   0  0  3  0  0  0  0  0  0  0  0  0
    2.8660    5.1550    0.0000 C   0  0  0  0  0  0  0  0  0  0  0  0
    2.0000    3.6550    0.0000 C   0  0  0  0  0  0  0  0  0  0  0  0
    6.3301   -0.8450    0.0000 C   0  0  0  0  0  0  0  0  0  0  0  0
    6.3301   -1.8450    0.0000 C   0  0  0  0  0  0  0  0  0  0  0  0
    2.8660    1.1550    0.0000 C   0  0  0  0  0  0  0  0  0  0  0  0
    8.0622   -0.8450    0.0000 C   0  0  0  0  0  0  0  0  0  0  0  0
    5.4641   -2.3450    0.0000 C   0  0  0  0  0  0  0  0  0  0  0  0
    7.1962   -2.3450    0.0000 C   0  0  0  0  0  0  0  0  0  0  0  0
    2.0000    0.6550    0.0000 C   0  0  0  0  0  0  0  0  0  0  0  0
    5.4641   -3.3450    0.0000 C   0  0  0  0  0  0  0  0  0  0  0  0
    7.1962   -3.3450    0.0000 C   0  0  0  0  0  0  0  0  0  0  0  0
    6.3301   -3.8450    0.0000 C   0  0  0  0  0  0  0  0  0  0  0  0
    5.7932    1.8450    0.0000 H   0  0  0  0  0  0  0  0  0  0  0  0
    7.4082    2.0724    0.0000 H   0  0  0  0  0  0  0  0  0  0  0  0
    7.8067    2.7627    0.0000 H   0  0  0  0  0  0  0  0  0  0  0  0
    6.6592    3.3450    0.0000 H   0  0  0  0  0  0  0  0  0  0  0  0
    3.7320    2.0350    0.0000 H   0  0  0  0  0  0  0  0  0  0  0  0
    4.3426    3.5473    0.0000 H   0  0  0  0  0  0  0  0  0  0  0  0
    3.9441    4.2376    0.0000 H   0  0  0  0  0  0  0  0  0  0  0  0
    3.4030    4.4650    0.0000 H   0  0  0  0  0  0  0  0  0  0  0  0
    5.4641    3.2750    0.0000 H   0  0  0  0  0  0  0  0  0  0  0  0
    6.6401    4.6919    0.0000 H   0  0  0  0  0  0  0  0  0  0  0  0
    5.7932    4.4650    0.0000 H   0  0  0  0  0  0  0  0  0  0  0  0
    6.0201    3.6181    0.0000 H   0  0  0  0  0  0  0  0  0  0  0  0
    8.3722    3.6181    0.0000 H   0  0  0  0  0  0  0  0  0  0  0  0
    8.5991    4.4650    0.0000 H   0  0  0  0  0  0  0  0  0  0  0  0
    7.7522    4.6919    0.0000 H   0  0  0  0  0  0  0  0  0  0  0  0
    6.6592   -0.0350    0.0000 H   0  0  0  0  0  0  0  0  0  0  0  0
    7.7331    0.9650    0.0000 H   0  0  0  0  0  0  0  0  0  0  0  0
    2.3291    2.4650    0.0000 H   0  0  0  0  0  0  0  0  0  0  0  0
    1.6900    4.1919    0.0000 H   0  0  0  0  0  0  0  0  0  0  0  0
    1.4631    3.3450    0.0000 H   0  0  0  0  0  0  0  0  0  0  0  0
    2.3100    3.1181    0.0000 H   0  0  0  0  0  0  0  0  0  0  0  0
    3.4860    5.1550    0.0000 H   0  0  0  0  0  0  0  0  0  0  0  0
    2.8660    5.7750    0.0000 H   0  0  0  0  0  0  0  0  0  0  0  0
    2.2460    5.1550    0.0000 H   0  0  0  0  0  0  0  0  0  0  0  0
    6.1181   -0.2624    0.0000 H   0  0  0  0  0  0  0  0  0  0  0  0
    5.7196   -0.9527    0.0000 H   0  0  0  0  0  0  0  0  0  0  0  0
    4.9272   -2.0350    0.0000 H   0  0  0  0  0  0  0  0  0  0  0  0
    7.7331   -2.0350    0.0000 H   0  0  0  0  0  0  0  0  0  0  0  0
    1.6900    1.1919    0.0000 H   0  0  0  0  0  0  0  0  0  0  0  0
    1.4631    0.3450    0.0000 H   0  0  0  0  0  0  0  0  0  0  0  0
    2.3100    0.1181    0.0000 H   0  0  0  0  0  0  0  0  0  0  0  0
    9.4651   -0.6550    0.0000 H   0  0  0  0  0  0  0  0  0  0  0  0
    8.9282    0.2750    0.0000 H   0  0  0  0  0  0  0  0  0  0  0  0
    4.9272   -3.6550    0.0000 H   0  0  0  0  0  0  0  0  0  0  0  0
    7.7331   -3.6550    0.0000 H   0  0  0  0  0  0  0  0  0  0  0  0
    5.7932   -5.1550    0.0000 H   0  0  0  0  0  0  0  0  0  0  0  0
  1 16  2  0  0  0  0
  2 17  2  0  0  0  0
  3 26  2  0  0  0  0
  4 25  2  0  0  0  0
  5 32  1  0  0  0  0
  5 68  1  0  0  0  0
  6 10  1  0  0  0  0
  6 16  1  0  0  0  0
  6 41  1  0  0  0  0
  7 17  1  0  0  0  0
  7 20  1  0  0  0  0
  7 49  1  0  0  0  0
  8 13  1  0  0  0  0
  8 25  1  0  0  0  0
  8 50  1  0  0  0  0
  9 26  1  0  0  0  0
  9 64  1  0  0  0  0
  9 65  1  0  0  0  0
 10 11  1  0  0  0  0
 10 17  1  0  0  0  0
 10 33  1  0  0  0  0
 11 12  1  0  0  0  0
 11 34  1  0  0  0  0
 11 35  1  0  0  0  0
 12 18  1  0  0  0  0
 12 19  1  0  0  0  0
 12 36  1  0  0  0  0
 13 14  1  0  0  0  0
 13 16  1  0  0  0  0
 13 37  1  0  0  0  0
 14 15  1  0  0  0  0
 14 38  1  0  0  0  0
 14 39  1  0  0  0  0
 15 21  1  0  0  0  0
 15 22  1  0  0  0  0
 15 40  1  0  0  0  0
 18 45  1  0  0  0  0
 18 46  1  0  0  0  0
 18 47  1  0  0  0  0
 19 42  1  0  0  0  0
 19 43  1  0  0  0  0
 19 44  1  0  0  0  0
 20 23  1  0  0  0  0
 20 26  1  0  0  0  0
 20 48  1  0  0  0  0
 21 54  1  0  0  0  0
 21 55  1  0  0  0  0
 21 56  1  0  0  0  0
 22 51  1  0  0  0  0
 22 52  1  0  0  0  0
 22 53  1  0  0  0  0
 23 24  1  0  0  0  0
 23 57  1  0  0  0  0
 23 58  1  0  0  0  0
 24 27  2  0  0  0  0
 24 28  1  0  0  0  0
 25 29  1  0  0  0  0
 27 30  1  0  0  0  0
 27 59  1  0  0  0  0
 28 31  2  0  0  0  0
 28 60  1  0  0  0  0
 29 61  1  0  0  0  0
 29 62  1  0  0  0  0
 29 63  1  0  0  0  0
 30 32  2  0  0  0  0
 30 66  1  0  0  0  0
 31 32  1  0  0  0  0
 31 67  1  0  0  0  0
M  END
> <PUBCHEM_COMPOUND_CID>
443109

> <PUBCHEM_COMPOUND_CANONICALIZED>
1

> <PUBCHEM_CACTVS_COMPLEXITY>
644

> <PUBCHEM_CACTVS_HBOND_ACCEPTOR>
5

> <PUBCHEM_CACTVS_HBOND_DONOR>
5

> <PUBCHEM_CACTVS_ROTATABLE_BOND>
12

> <PUBCHEM_CACTVS_SUBSKEYS>
AAADcfB7uAAAAAAAAAAAAAAAAAAAAAAAAAAwAAAAAAAAAAABAAAAHgAQCAAADSzBmAQyBoLAAgCIAiFSEAACAAAgIAAIiIGOCIgIZjKCkTOUcAAk1hGImAeYyKCOIAAAAAAAAABAAAAAAAAAAAAAAAAAAA==

> <PUBCHEM_IUPAC_OPENEYE_NAME>
2-acetamido-N-[1-[[2-amino-1-[(4-hydroxyphenyl)methyl]-2-oxo-ethyl]carbamoyl]-3-methyl-butyl]-4-methyl-pentanamide

> <PUBCHEM_IUPAC_CAS_NAME>
2-acetamido-N-[1-[[1-amino-3-(4-hydroxyphenyl)-1-oxopropan-2-yl]amino]-4-methyl-1-oxopentan-2-yl]-4-methylpentanamide

> <PUBCHEM_IUPAC_NAME>
2-acetamido-N-[1-[[1-amino-3-(4-hydroxyphenyl)-1-oxopropan-2-yl]amino]-4-methyl-1-oxopentan-2-yl]-4-methylpentanamide

> <PUBCHEM_IUPAC_SYSTEMATIC_NAME>
2-acetamido-N-[1-[[1-azanyl-3-(4-hydroxyphenyl)-1-oxidanylidene-propan-2-yl]amino]-4-methyl-1-oxidanylidene-pentan-2-yl]-4-methyl-pentanamide

> <PUBCHEM_IUPAC_TRADITIONAL_NAME>
2-acetamido-N-[1-[[2-amino-1-(4-hydroxybenzyl)-2-keto-ethyl]carbamoyl]-3-methyl-butyl]-4-methyl-valeramide

> <PUBCHEM_IUPAC_INCHI>
InChI=1S/C23H36N4O5/c1-13(2)10-19(25-15(5)28)22(31)27-20(11-14(3)4)23(32)26-18(21(24)30)12-16-6-8-17(29)9-7-16/h6-9,13-14,18-20,29H,10-12H2,1-5H3,(H2,24,30)(H,25,28)(H,26,32)(H,27,31)

> <PUBCHEM_IUPAC_INCHIKEY>
XKHMCCFBVQTJKS-UHFFFAOYSA-N

> <PUBCHEM_XLOGP3>
1.4

> <PUBCHEM_EXACT_MASS>
448.26857

> <PUBCHEM_MOLECULAR_FORMULA>
C23H36N4O5

> <PUBCHEM_MOLECULAR_WEIGHT>
448.55574

> <PUBCHEM_OPENEYE_CAN_SMILES>
CC(C)CC(C(=O)NC(CC(C)C)C(=O)NC(CC1=CC=C(C=C1)O)C(=O)N)NC(=O)C

> <PUBCHEM_OPENEYE_ISO_SMILES>
CC(C)CC(C(=O)NC(CC(C)C)C(=O)NC(CC1=CC=C(C=C1)O)C(=O)N)NC(=O)C

> <PUBCHEM_CACTVS_TPSA>
151

> <PUBCHEM_MONOISOTOPIC_WEIGHT>
448.26857

> <PUBCHEM_TOTAL_CHARGE>
0

> <PUBCHEM_HEAVY_ATOM_COUNT>
32

> <PUBCHEM_ATOM_DEF_STEREO_COUNT>
0

> <PUBCHEM_ATOM_UDEF_STEREO_COUNT>
3

> <PUBCHEM_BOND_DEF_STEREO_COUNT>
0

> <PUBCHEM_BOND_UDEF_STEREO_COUNT>
0

> <PUBCHEM_ISOTOPIC_ATOM_COUNT>
0

> <PUBCHEM_COMPONENT_COUNT>
1

> <PUBCHEM_CACTVS_TAUTO_COUNT>
48

> <PUBCHEM_COORDINATE_TYPE>
1
5
255

> <PUBCHEM_BONDANNOTATIONS>
10  11  3
13  14  3
20  23  3
24  27  8
24  28  8
27  30  8
28  31  8
30  32  8
31  32  8

$$$$

