   Color/Form

     * Monoclinic needles or prisms
     * White crystalline powder

   from [1]HSDB

   Taste
        Very sweet
   from [2]HSDB

   Melting Point
        153-154 deg C
   from [3]HSDB

   Density/Specific Gravity
        1.525 @ 20 deg C/4 deg C
   from [4]HSDB

   Dissociation Constants
        pKa = 12.14 @ 18 deg C
   from [5]HSDB

   Solubilities
        1 g dissolves in 0.8 ml water; sol in pyridine & hot alc
   from [6]HSDB

   Spectral Properties

     * SADTLER REFERENCE NUMBER: 1068 (IR, PRISM)
     * Specific optical rotation: +92 deg & +18.6 deg (16 hr, 10%) @ 20
       deg C/D
     * IR: 15302 (Sadtler Research Laboratories IR Grating Collection)
     * UV: 6-55 (Organic Electronic Spectral Data, Phillips et al, John
       Wiley & Sons, New York)
     * NMR: 7074 (Sadtler Research Laboratories Spectral Collection)

   from [7]HSDB

   Other Chemical/Physical Properties
        Shows mutarotation; reduces warm Fehling's soln
   from [8]HSDB

   Computed Properties
   Molecular Weight                  150.1299 [g/mol]
   Molecular Formula                 C[5]H[10]O[5]
   XLogP3-AA                         -2.5
   H-Bond Donor                      4
   H-Bond Acceptor                   5
   Rotatable Bond Count              0
   Exact Mass                        150.052823
   MonoIsotopic Mass                 150.052823
   Topological Polar Surface Area    90.2
   Heavy Atom Count                  10
   Formal Charge                     0
   Complexity                        117
   Isotope Atom Count                0
   Defined Atom Stereocenter Count   3
   Undefined Atom Stereocenter Count 1
   Defined Bond Stereocenter Count   0
   Undefined Bond Stereocenter Count 0
   Covalently-Bonded Unit Count      1
   Feature 3D Acceptor Count         5
   Feature 3D Donor Count            4
   Feature 3D Ring Count             1
   Effective Rotor Count             1.2
   Conformer Sampling RMSD           0.4
   CID Conformer Count               [9]7

References

   1. http://toxnet.nlm.nih.gov/cgi-bin/sis/search/r?dbs+hsdb:@term+@rn+@rel+58-86-6
   2. http://toxnet.nlm.nih.gov/cgi-bin/sis/search/r?dbs+hsdb:@term+@rn+@rel+58-86-6
   3. http://toxnet.nlm.nih.gov/cgi-bin/sis/search/r?dbs+hsdb:@term+@rn+@rel+58-86-6
   4. http://toxnet.nlm.nih.gov/cgi-bin/sis/search/r?dbs+hsdb:@term+@rn+@rel+58-86-6
   5. http://toxnet.nlm.nih.gov/cgi-bin/sis/search/r?dbs+hsdb:@term+@rn+@rel+58-86-6
   6. http://toxnet.nlm.nih.gov/cgi-bin/sis/search/r?dbs+hsdb:@term+@rn+@rel+58-86-6
   7. http://toxnet.nlm.nih.gov/cgi-bin/sis/search/r?dbs+hsdb:@term+@rn+@rel+58-86-6
   8. http://toxnet.nlm.nih.gov/cgi-bin/sis/search/r?dbs+hsdb:@term+@rn+@rel+58-86-6
   9. http://pubchem.ncbi.nlm.nih.gov/vw3d/vw3d.cgi?cid=135191
