583011
  -OEChem-06241222442D

 29 30  0     0  0  0  0  0  0999 V2000
    2.1810    2.6739    0.0000 O   0  0  0  0  0  0  0  0  0  0  0  0
    3.7634    1.9694    0.0000 O   0  0  0  0  0  0  0  0  0  0  0  0
    2.9499    0.1424    0.0000 N   0  0  0  0  0  0  0  0  0  0  0  0
    2.6409   -0.8087    0.0000 N   0  0  0  0  0  0  0  0  0  0  0  0
    3.9499    0.1424    0.0000 N   0  0  0  0  0  0  0  0  0  0  0  0
    4.2589   -0.8087    0.0000 N   0  0  0  0  0  0  0  0  0  0  0  0
    2.3621    0.9514    0.0000 C   0  0  0  0  0  0  0  0  0  0  0  0
    3.4499   -2.3965    0.0000 C   0  0  0  0  0  0  0  0  0  0  0  0
    3.4499   -1.3965    0.0000 C   0  0  0  0  0  0  0  0  0  0  0  0
    2.7688    1.8649    0.0000 C   0  0  0  0  0  0  0  0  0  0  0  0
    2.5839   -2.8965    0.0000 C   0  0  0  0  0  0  0  0  0  0  0  0
    4.3159   -2.8965    0.0000 C   0  0  0  0  0  0  0  0  0  0  0  0
    2.5878    3.5875    0.0000 C   0  0  0  0  0  0  0  0  0  0  0  0
    2.5839   -3.8965    0.0000 C   0  0  0  0  0  0  0  0  0  0  0  0
    4.3159   -3.8965    0.0000 C   0  0  0  0  0  0  0  0  0  0  0  0
    3.4499   -4.3965    0.0000 C   0  0  0  0  0  0  0  0  0  0  0  0
    2.0000    4.3965    0.0000 C   0  0  0  0  0  0  0  0  0  0  0  0
    1.8481    1.2981    0.0000 H   0  0  0  0  0  0  0  0  0  0  0  0
    1.9314    0.5054    0.0000 H   0  0  0  0  0  0  0  0  0  0  0  0
    2.0469   -2.5865    0.0000 H   0  0  0  0  0  0  0  0  0  0  0  0
    4.8528   -2.5865    0.0000 H   0  0  0  0  0  0  0  0  0  0  0  0
    3.1018    3.2408    0.0000 H   0  0  0  0  0  0  0  0  0  0  0  0
    3.0185    4.0335    0.0000 H   0  0  0  0  0  0  0  0  0  0  0  0
    2.0469   -4.2065    0.0000 H   0  0  0  0  0  0  0  0  0  0  0  0
    4.8528   -4.2065    0.0000 H   0  0  0  0  0  0  0  0  0  0  0  0
    3.4499   -5.0165    0.0000 H   0  0  0  0  0  0  0  0  0  0  0  0
    2.5016    4.7609    0.0000 H   0  0  0  0  0  0  0  0  0  0  0  0
    1.6356    4.8981    0.0000 H   0  0  0  0  0  0  0  0  0  0  0  0
    1.4984    4.0321    0.0000 H   0  0  0  0  0  0  0  0  0  0  0  0
  1 10  1  0  0  0  0
  1 13  1  0  0  0  0
  2 10  2  0  0  0  0
  3  4  1  0  0  0  0
  3  5  1  0  0  0  0
  3  7  1  0  0  0  0
  4  9  2  0  0  0  0
  5  6  2  0  0  0  0
  6  9  1  0  0  0  0
  7 10  1  0  0  0  0
  7 18  1  0  0  0  0
  7 19  1  0  0  0  0
  8  9  1  0  0  0  0
  8 11  2  0  0  0  0
  8 12  1  0  0  0  0
 11 14  1  0  0  0  0
 11 20  1  0  0  0  0
 12 15  2  0  0  0  0
 12 21  1  0  0  0  0
 13 17  1  0  0  0  0
 13 22  1  0  0  0  0
 13 23  1  0  0  0  0
 14 16  2  0  0  0  0
 14 24  1  0  0  0  0
 15 16  1  0  0  0  0
 15 25  1  0  0  0  0
 16 26  1  0  0  0  0
 17 27  1  0  0  0  0
 17 28  1  0  0  0  0
 17 29  1  0  0  0  0
M  END
> <PUBCHEM_COMPOUND_CID>
583011

> <PUBCHEM_COMPOUND_CANONICALIZED>
1

> <PUBCHEM_CACTVS_COMPLEXITY>
256

> <PUBCHEM_CACTVS_HBOND_ACCEPTOR>
5

> <PUBCHEM_CACTVS_HBOND_DONOR>
0

> <PUBCHEM_CACTVS_ROTATABLE_BOND>
5

> <PUBCHEM_CACTVS_SUBSKEYS>
AAADccBzsAAAAAAAAAAAAAAAAAAAAWAAAAAwAAAAAAAAAAABwAAAHgAIAAAADADhmwYzGIQABACqAiLyKACSAAIggAAciCCgBJgKIKKAkRGDIABgiAAIiAcQgAAOAAAAAAAAAAAAAAAAAAAAAAAAAAAAAA==

> <PUBCHEM_IUPAC_OPENEYE_NAME>
ethyl 2-(5-phenyltetrazol-2-yl)acetate

> <PUBCHEM_IUPAC_CAS_NAME>
2-(5-phenyl-2-tetrazolyl)acetic acid ethyl ester

> <PUBCHEM_IUPAC_NAME>
ethyl 2-(5-phenyltetrazol-2-yl)acetate

> <PUBCHEM_IUPAC_SYSTEMATIC_NAME>
ethyl 2-(5-phenyl-1,2,3,4-tetrazol-2-yl)ethanoate

> <PUBCHEM_IUPAC_TRADITIONAL_NAME>
2-(5-phenyltetrazol-2-yl)acetic acid ethyl ester

> <PUBCHEM_IUPAC_INCHI>
InChI=1S/C11H12N4O2/c1-2-17-10(16)8-15-13-11(12-14-15)9-6-4-3-5-7-9/h3-7H,2,8H2,1H3

> <PUBCHEM_IUPAC_INCHIKEY>
BHAJMSNEZPPNKN-UHFFFAOYSA-N

> <PUBCHEM_XLOGP3_AA>
2.2

> <PUBCHEM_EXACT_MASS>
232.096026

> <PUBCHEM_MOLECULAR_FORMULA>
C11H12N4O2

> <PUBCHEM_MOLECULAR_WEIGHT>
232.23858

> <PUBCHEM_OPENEYE_CAN_SMILES>
CCOC(=O)CN1N=C(N=N1)C2=CC=CC=C2

> <PUBCHEM_OPENEYE_ISO_SMILES>
CCOC(=O)CN1N=C(N=N1)C2=CC=CC=C2

> <PUBCHEM_CACTVS_TPSA>
69.9

> <PUBCHEM_MONOISOTOPIC_WEIGHT>
232.096026

> <PUBCHEM_TOTAL_CHARGE>
0

> <PUBCHEM_HEAVY_ATOM_COUNT>
17

> <PUBCHEM_ATOM_DEF_STEREO_COUNT>
0

> <PUBCHEM_ATOM_UDEF_STEREO_COUNT>
0

> <PUBCHEM_BOND_DEF_STEREO_COUNT>
0

> <PUBCHEM_BOND_UDEF_STEREO_COUNT>
0

> <PUBCHEM_ISOTOPIC_ATOM_COUNT>
0

> <PUBCHEM_COMPONENT_COUNT>
1

> <PUBCHEM_CACTVS_TAUTO_COUNT>
1

> <PUBCHEM_COORDINATE_TYPE>
1
5
255

> <PUBCHEM_BONDANNOTATIONS>
11  14  8
12  15  8
14  16  8
15  16  8
3  4  8
3  5  8
4  9  8
5  6  8
6  9  8
8  11  8
8  12  8

$$$$

