   Color/Form

     * COLORLESS OILY LIQ WHEN PURE
     * Light brown to pale yellow oil (tech., pale yellow to brown oil)

   from [1]HSDB

   Boiling Point
        144 deg C @ 0.02 mm Hg
   from [2]HSDB

   Density/Specific Gravity
        1.222 @ 20 DEG C/20 DEG C
   from [3]HSDB

   Solubilities
        AT ROOM TEMP LESS THAN 1 G/L WATER; LESS THAN 50 G/KG IN ALIPHATIC
   HYDROCARBONS; MISCIBLE WITH ALCOHOLS, AROMATIC AND CHLORINATED
   HYDROCARBONS, KETONES, ESTERS AT ROOM TEMPERATURE
   from [4]HSDB

   Spectral Properties

     * INDEX OF REFRACTION: 1.5138 @ 20 DEG C/D
     * INFRARED SPECTRA OF 61 PESTICIDES ONE OF WHICH WAS MECARBAM.

   from [5]HSDB

   Vapor Pressure
        Negligible at room temp
   from [6]HSDB

   Other Chemical/Physical Properties
        Technical grade is greater than or equal to 85% pure; the
   technical product slowly attacks metals /technical product/
   from [7]HSDB

   Computed Properties
   Molecular Weight                  329.373262 [g/mol]
   Molecular Formula                 C[10]H[20]NO[5]PS[2]
   XLogP3-AA                         2.4
   H-Bond Donor                      0
   H-Bond Acceptor                   7
   Rotatable Bond Count              9
   Exact Mass                        329.052051
   MonoIsotopic Mass                 329.052051
   Topological Polar Surface Area    123
   Heavy Atom Count                  19
   Formal Charge                     0
   Complexity                        343
   Isotope Atom Count                0
   Defined Atom Stereocenter Count   0
   Undefined Atom Stereocenter Count 0
   Defined Bond Stereocenter Count   0
   Undefined Bond Stereocenter Count 0
   Covalently-Bonded Unit Count      1
   Feature 3D Acceptor Count         2
   Effective Rotor Count             11
   Conformer Sampling RMSD           1
   CID Conformer Count               [8]142

References

   1. http://toxnet.nlm.nih.gov/cgi-bin/sis/search/r?dbs+hsdb:@term+@rn+@rel+2595-54-2
   2. http://toxnet.nlm.nih.gov/cgi-bin/sis/search/r?dbs+hsdb:@term+@rn+@rel+2595-54-2
   3. http://toxnet.nlm.nih.gov/cgi-bin/sis/search/r?dbs+hsdb:@term+@rn+@rel+2595-54-2
   4. http://toxnet.nlm.nih.gov/cgi-bin/sis/search/r?dbs+hsdb:@term+@rn+@rel+2595-54-2
   5. http://toxnet.nlm.nih.gov/cgi-bin/sis/search/r?dbs+hsdb:@term+@rn+@rel+2595-54-2
   6. http://toxnet.nlm.nih.gov/cgi-bin/sis/search/r?dbs+hsdb:@term+@rn+@rel+2595-54-2
   7. http://toxnet.nlm.nih.gov/cgi-bin/sis/search/r?dbs+hsdb:@term+@rn+@rel+2595-54-2
   8. http://pubchem.ncbi.nlm.nih.gov/vw3d/vw3d.cgi?cid=17434
