5280882
  -OEChem-07051212512D

 54 54  0     1  0  0  0  0  0999 V2000
    7.4820   -4.1739    0.0000 O   0  0  0  0  0  0  0  0  0  0  0  0
    8.5698    1.1739    0.0000 O   0  0  0  0  0  0  0  0  0  0  0  0
    2.5896    1.0875    0.0000 O   0  0  0  0  0  0  0  0  0  0  0  0
    2.0544   -0.5598    0.0000 O   0  0  0  0  0  0  0  0  0  0  0  0
    7.7608   -2.4139    0.0000 C   0  0  1  0  0  0  0  0  0  0  0  0
    8.5698   -1.8261    0.0000 C   0  0  0  0  0  0  0  0  0  0  0  0
    6.8097   -2.1048    0.0000 C   0  0  0  0  0  0  0  0  0  0  0  0
    8.0698   -3.3649    0.0000 C   0  0  0  0  0  0  0  0  0  0  0  0
    9.0698   -3.3649    0.0000 C   0  0  0  0  0  0  0  0  0  0  0  0
    9.3788   -2.4139    0.0000 C   0  0  0  0  0  0  0  0  0  0  0  0
   10.3018    1.1739    0.0000 C   0  0  0  0  0  0  0  0  0  0  0  0
    9.4358    0.6739    0.0000 C   0  0  1  0  0  0  0  0  0  0  0  0
   10.3018    2.1739    0.0000 C   0  0  0  0  0  0  0  0  0  0  0  0
    8.5698   -0.8261    0.0000 C   0  0  0  0  0  0  0  0  0  0  0  0
   11.1679    2.6739    0.0000 C   0  0  0  0  0  0  0  0  0  0  0  0
    9.4358   -0.3261    0.0000 C   0  0  0  0  0  0  0  0  0  0  0  0
    6.0666   -2.7740    0.0000 C   0  0  0  0  0  0  0  0  0  0  0  0
   11.1679    3.6739    0.0000 C   0  0  0  0  0  0  0  0  0  0  0  0
    5.1155   -2.4650    0.0000 C   0  0  0  0  0  0  0  0  0  0  0  0
    4.9076   -1.4868    0.0000 C   0  0  0  0  0  0  0  0  0  0  0  0
    3.9565   -1.1778    0.0000 C   0  0  0  0  0  0  0  0  0  0  0  0
   12.0339    4.1739    0.0000 C   0  0  0  0  0  0  0  0  0  0  0  0
    3.7486   -0.1996    0.0000 C   0  0  0  0  0  0  0  0  0  0  0  0
    2.7976    0.1094    0.0000 C   0  0  0  0  0  0  0  0  0  0  0  0
    7.3224   -2.8523    0.0000 H   0  0  0  0  0  0  0  0  0  0  0  0
    7.1008   -1.5574    0.0000 H   0  0  0  0  0  0  0  0  0  0  0  0
    6.3211   -1.7231    0.0000 H   0  0  0  0  0  0  0  0  0  0  0  0
    9.0050   -3.9815    0.0000 H   0  0  0  0  0  0  0  0  0  0  0  0
    9.6762   -3.4938    0.0000 H   0  0  0  0  0  0  0  0  0  0  0  0
    9.9684   -2.2223    0.0000 H   0  0  0  0  0  0  0  0  0  0  0  0
   10.5139    0.5913    0.0000 H   0  0  0  0  0  0  0  0  0  0  0  0
   10.9124    1.2816    0.0000 H   0  0  0  0  0  0  0  0  0  0  0  0
    8.8989    0.3639    0.0000 H   0  0  0  0  0  0  0  0  0  0  0  0
   10.0898    2.7565    0.0000 H   0  0  0  0  0  0  0  0  0  0  0  0
    9.6912    2.0663    0.0000 H   0  0  0  0  0  0  0  0  0  0  0  0
    8.0328   -0.5161    0.0000 H   0  0  0  0  0  0  0  0  0  0  0  0
   11.3799    2.0913    0.0000 H   0  0  0  0  0  0  0  0  0  0  0  0
   11.7784    2.7816    0.0000 H   0  0  0  0  0  0  0  0  0  0  0  0
    9.9727   -0.6361    0.0000 H   0  0  0  0  0  0  0  0  0  0  0  0
    6.1955   -3.3804    0.0000 H   0  0  0  0  0  0  0  0  0  0  0  0
   10.9558    4.2565    0.0000 H   0  0  0  0  0  0  0  0  0  0  0  0
   10.5573    3.5663    0.0000 H   0  0  0  0  0  0  0  0  0  0  0  0
    4.6548   -2.8798    0.0000 H   0  0  0  0  0  0  0  0  0  0  0  0
    5.5272   -1.4652    0.0000 H   0  0  0  0  0  0  0  0  0  0  0  0
    4.9939   -0.8728    0.0000 H   0  0  0  0  0  0  0  0  0  0  0  0
    3.3369   -1.1994    0.0000 H   0  0  0  0  0  0  0  0  0  0  0  0
    3.8702   -1.7918    0.0000 H   0  0  0  0  0  0  0  0  0  0  0  0
   12.3439    3.6370    0.0000 H   0  0  0  0  0  0  0  0  0  0  0  0
   12.5708    4.4839    0.0000 H   0  0  0  0  0  0  0  0  0  0  0  0
   11.7239    4.7109    0.0000 H   0  0  0  0  0  0  0  0  0  0  0  0
    8.5698    1.7939    0.0000 H   0  0  0  0  0  0  0  0  0  0  0  0
    4.3682   -0.1780    0.0000 H   0  0  0  0  0  0  0  0  0  0  0  0
    3.8349    0.4143    0.0000 H   0  0  0  0  0  0  0  0  0  0  0  0
    2.0000    1.2791    0.0000 H   0  0  0  0  0  0  0  0  0  0  0  0
  1  8  2  0  0  0  0
 12  2  1  1  0  0  0
  2 51  1  0  0  0  0
  3 24  1  0  0  0  0
  3 54  1  0  0  0  0
  4 24  2  0  0  0  0
  5  6  1  0  0  0  0
  5  7  1  6  0  0  0
  5  8  1  0  0  0  0
  5 25  1  0  0  0  0
  6 10  2  0  0  0  0
  6 14  1  0  0  0  0
  7 17  1  0  0  0  0
  7 26  1  0  0  0  0
  7 27  1  0  0  0  0
  8  9  1  0  0  0  0
  9 10  1  0  0  0  0
  9 28  1  0  0  0  0
  9 29  1  0  0  0  0
 10 30  1  0  0  0  0
 11 12  1  0  0  0  0
 11 13  1  0  0  0  0
 11 31  1  0  0  0  0
 11 32  1  0  0  0  0
 12 16  1  0  0  0  0
 12 33  1  0  0  0  0
 13 15  1  0  0  0  0
 13 34  1  0  0  0  0
 13 35  1  0  0  0  0
 14 16  2  0  0  0  0
 14 36  1  0  0  0  0
 15 18  1  0  0  0  0
 15 37  1  0  0  0  0
 15 38  1  0  0  0  0
 16 39  1  0  0  0  0
 17 19  2  0  0  0  0
 17 40  1  0  0  0  0
 18 22  1  0  0  0  0
 18 41  1  0  0  0  0
 18 42  1  0  0  0  0
 19 20  1  0  0  0  0
 19 43  1  0  0  0  0
 20 21  1  0  0  0  0
 20 44  1  0  0  0  0
 20 45  1  0  0  0  0
 21 23  1  0  0  0  0
 21 46  1  0  0  0  0
 21 47  1  0  0  0  0
 22 48  1  0  0  0  0
 22 49  1  0  0  0  0
 22 50  1  0  0  0  0
 23 24  1  0  0  0  0
 23 52  1  0  0  0  0
 23 53  1  0  0  0  0
M  END
> <PUBCHEM_COMPOUND_CID>
5280882

> <PUBCHEM_COMPOUND_CANONICALIZED>
1

> <PUBCHEM_CACTVS_COMPLEXITY>
488

> <PUBCHEM_CACTVS_HBOND_ACCEPTOR>
4

> <PUBCHEM_CACTVS_HBOND_DONOR>
2

> <PUBCHEM_CACTVS_ROTATABLE_BOND>
12

> <PUBCHEM_CACTVS_SUBSKEYS>
AAADceB4OAAAAAAAAAAAAAAAAAAAAQAAAAAAAAAAAAAAAAAAAAAAGgAACAAADRSggAICCAAAAgCIAqDSCAAAAAAgAAAICAEAAAgIFBIAAQAAUAAEgAAIkAOIwAAOAAAAAAAAAAAAAAAAAAAAAAAAAAAAAA==

> <PUBCHEM_IUPAC_OPENEYE_NAME>
(Z)-7-[(1R)-2-[(E,3S)-3-hydroxyoct-1-enyl]-5-oxo-cyclopent-2-en-1-yl]hept-5-enoic acid

> <PUBCHEM_IUPAC_CAS_NAME>
(Z)-7-[(1R)-2-[(E,3S)-3-hydroxyoct-1-enyl]-5-oxo-1-cyclopent-2-enyl]-5-heptenoic acid

> <PUBCHEM_IUPAC_NAME>
(Z)-7-[(1R)-2-[(E,3S)-3-hydroxyoct-1-enyl]-5-oxocyclopent-2-en-1-yl]hept-5-enoic acid

> <PUBCHEM_IUPAC_SYSTEMATIC_NAME>
(Z)-7-[(1R)-5-oxidanylidene-2-[(E,3S)-3-oxidanyloct-1-enyl]cyclopent-2-en-1-yl]hept-5-enoic acid

> <PUBCHEM_IUPAC_TRADITIONAL_NAME>
(Z)-7-[(1R)-2-[(E,3S)-3-hydroxyoct-1-enyl]-5-keto-cyclopent-2-en-1-yl]hept-5-enoic acid

> <PUBCHEM_IUPAC_INCHI>
InChI=1S/C20H30O4/c1-2-3-6-9-17(21)14-12-16-13-15-19(22)18(16)10-7-4-5-8-11-20(23)24/h4,7,12-14,17-18,21H,2-3,5-6,8-11,15H2,1H3,(H,23,24)/b7-4-,14-12+/t17-,18+/m0/s1

> <PUBCHEM_IUPAC_INCHIKEY>
CMBOTAQMTNMTBD-KLASNZEFSA-N

> <PUBCHEM_XLOGP3_AA>
3.3

> <PUBCHEM_EXACT_MASS>
334.214409

> <PUBCHEM_MOLECULAR_FORMULA>
C20H30O4

> <PUBCHEM_MOLECULAR_WEIGHT>
334.4498

> <PUBCHEM_OPENEYE_CAN_SMILES>
CCCCCC(C=CC1=CCC(=O)C1CC=CCCCC(=O)O)O

> <PUBCHEM_OPENEYE_ISO_SMILES>
CCCCC[C@@H](/C=C/C1=CCC(=O)[C@@H]1C/C=C\CCCC(=O)O)O

> <PUBCHEM_CACTVS_TPSA>
74.6

> <PUBCHEM_MONOISOTOPIC_WEIGHT>
334.214409

> <PUBCHEM_TOTAL_CHARGE>
0

> <PUBCHEM_HEAVY_ATOM_COUNT>
24

> <PUBCHEM_ATOM_DEF_STEREO_COUNT>
2

> <PUBCHEM_ATOM_UDEF_STEREO_COUNT>
0

> <PUBCHEM_BOND_DEF_STEREO_COUNT>
2

> <PUBCHEM_BOND_UDEF_STEREO_COUNT>
0

> <PUBCHEM_ISOTOPIC_ATOM_COUNT>
0

> <PUBCHEM_COMPONENT_COUNT>
1

> <PUBCHEM_CACTVS_TAUTO_COUNT>
40

> <PUBCHEM_COORDINATE_TYPE>
1
5
255

> <PUBCHEM_BONDANNOTATIONS>
12  2  5
5  7  6

$$$$

