   Color/Form
        Plates
   from [1]HSDB

   Taste
        Bitter
   from [2]HSDB

   Melting Point
        236 deg C
   from [3]HSDB

   Dissociation Constants
        pKa = 5.92 /Estimated/
   from [4]HSDB

   Octanol/Water Partition Coefficient
        log Kow = -0.88 @ 25 deg C /Estimated/
   from [5]HSDB

   Solubilities

     * Practically insol in water; freely sol in chloroform; slightly sol
       in alc, ether
     * In water, 8.5X10+4 mg/L @ 25 deg C /Estimated/

   from [6]HSDB

   Spectral Properties
        Specific optical rotation: -55.1 deg @ 25 deg C/D (C= 0.034 in
   chloroform)
   from [7]HSDB

   Vapor Pressure
        1.8X10-12 mm Hg @ 25 deg C /Estimated/
   from [8]HSDB

   Other Chemical/Physical Properties

     * Henry's Law constant = 1.8X10-10 atm-cu m/mol @ 25 deg C
       /Estimated/
     * Hydroxyl radical reaction rate constant = 1.6X10-10 cu cm/molec-sec
       (Estimated)

   from [9]HSDB

   Computed Properties
   Molecular Weight                  335.3948 [g/mol]
   Molecular Formula                 C[18]H[25]NO[5]
   XLogP3-AA                         1.1
   H-Bond Donor                      1
   H-Bond Acceptor                   6
   Rotatable Bond Count              0
   Exact Mass                        335.173273
   MonoIsotopic Mass                 335.173273
   Topological Polar Surface Area    76.1
   Heavy Atom Count                  24
   Formal Charge                     0
   Complexity                        611
   Isotope Atom Count                0
   Defined Atom Stereocenter Count   4
   Undefined Atom Stereocenter Count 0
   Defined Bond Stereocenter Count   1
   Undefined Bond Stereocenter Count 0
   Covalently-Bonded Unit Count      1
   Feature 3D Acceptor Count         3
   Feature 3D Donor Count            1
   Feature 3D Cation Count           1
   Feature 3D Hydrophobe Count       1
   Feature 3D Ring Count             2
   Effective Rotor Count             1.8
   Conformer Sampling RMSD           0.6
   CID Conformer Count               [10]13

References

   1. http://toxnet.nlm.nih.gov/cgi-bin/sis/search/r?dbs+hsdb:@term+@rn+@rel+130-01-8
   2. http://toxnet.nlm.nih.gov/cgi-bin/sis/search/r?dbs+hsdb:@term+@rn+@rel+130-01-8
   3. http://toxnet.nlm.nih.gov/cgi-bin/sis/search/r?dbs+hsdb:@term+@rn+@rel+130-01-8
   4. http://toxnet.nlm.nih.gov/cgi-bin/sis/search/r?dbs+hsdb:@term+@rn+@rel+130-01-8
   5. http://toxnet.nlm.nih.gov/cgi-bin/sis/search/r?dbs+hsdb:@term+@rn+@rel+130-01-8
   6. http://toxnet.nlm.nih.gov/cgi-bin/sis/search/r?dbs+hsdb:@term+@rn+@rel+130-01-8
   7. http://toxnet.nlm.nih.gov/cgi-bin/sis/search/r?dbs+hsdb:@term+@rn+@rel+130-01-8
   8. http://toxnet.nlm.nih.gov/cgi-bin/sis/search/r?dbs+hsdb:@term+@rn+@rel+130-01-8
   9. http://toxnet.nlm.nih.gov/cgi-bin/sis/search/r?dbs+hsdb:@term+@rn+@rel+130-01-8
  10. http://pubchem.ncbi.nlm.nih.gov/vw3d/vw3d.cgi?cid=5280906
