   Color/Form

     * Yellow triclinic needles from alcohol or petroleum ether
     * YELLOW POWDER
     * Yellow crystals

   from [1]HSDB

   Odor
        Odor like that of benzoquinone
   from [2]HSDB

   Boiling Point
        Sublimes
   from [3]HSDB

   Melting Point
        128.5 deg C
   from [4]HSDB

   Density/Specific Gravity
        1.422
   from [5]HSDB

   Heat of Combustion
        1100.8 kcal (solid)
   from [6]HSDB

   Octanol/Water Partition Coefficient
        log Kow = 1.71
   from [7]HSDB

   Solubilities

     * Sol in alkali hydroxide soln; sparingly sol in cold water; slightly
       sol in petroleum ether; freely sol in carbon disulfide, acetic
       acid, hot alcohol, ether, benzene, and chloroform
     * Very soluble in alkali hydroxide solutions.
     * Volatile with steam.
     * In water, 0.35 g/100 ml at 25 deg C

   from [8]HSDB

   Spectral Properties

     * MAX ABSORPTION (ALCOHOL): 255 NM (LOG E= 4.2), 330 NM (LOG E= 3.4);
       SADTLER REFERENCE NUMBER: 5879 (IR, PRISM), 1651 (UV)
     * IR: 1293 (Coblentz Society Spectral Collection)
     * UV: 7-251 (Organic Electronic Spectral Data, Phillips et al, John
       Wiley & Sons, New York)
     * NMR: 550 (Varian Associates NMR Spectra Catalogue)
     * MASS: 978 (Atlas of Mass Spectral Data, John Wiley & Sons, New
       York)

   from [9]HSDB

   Vapor Pressure
        2.6 Pa at 50 deg C (= 0.0195 mm Hg at 50 deg C)
   from [10]HSDB

   Other Chemical/Physical Properties

     * Begins to sublime below 100 deg C
     * Easily volatile with steam; produces reddish-brown color in alkali
       hydroxide soln
     * Vapor pressure = 1.69X10-4 mm Hg at 25 deg C (est)
     * Henry's Law constant = 1.97X10-9 atm-cu m/mole at 25 deg C (est)
     * Hydroxyl radical reaction rate constant = 3.10X10-12 cu
       cm/molecule-sec at 25 deg C (est)

   from [11]HSDB

   Computed Properties
   Molecular Weight                  158.15344 [g/mol]
   Molecular Formula                 C[10]H[6]O[2]
   XLogP3                            1.7
   H-Bond Donor                      0
   H-Bond Acceptor                   2
   Rotatable Bond Count              0
   Exact Mass                        158.036779
   MonoIsotopic Mass                 158.036779
   Topological Polar Surface Area    34.1
   Heavy Atom Count                  12
   Formal Charge                     0
   Complexity                        227
   Isotope Atom Count                0
   Defined Atom Stereocenter Count   0
   Undefined Atom Stereocenter Count 0
   Defined Bond Stereocenter Count   0
   Undefined Bond Stereocenter Count 0
   Covalently-Bonded Unit Count      1
   Feature 3D Acceptor Count         2
   Feature 3D Ring Count             2
   Effective Rotor Count             0
   Conformer Sampling RMSD           0.4
   CID Conformer Count               [12]1

References

   1. http://toxnet.nlm.nih.gov/cgi-bin/sis/search/r?dbs+hsdb:@term+@rn+@rel+130-15-4
   2. http://toxnet.nlm.nih.gov/cgi-bin/sis/search/r?dbs+hsdb:@term+@rn+@rel+130-15-4
   3. http://toxnet.nlm.nih.gov/cgi-bin/sis/search/r?dbs+hsdb:@term+@rn+@rel+130-15-4
   4. http://toxnet.nlm.nih.gov/cgi-bin/sis/search/r?dbs+hsdb:@term+@rn+@rel+130-15-4
   5. http://toxnet.nlm.nih.gov/cgi-bin/sis/search/r?dbs+hsdb:@term+@rn+@rel+130-15-4
   6. http://toxnet.nlm.nih.gov/cgi-bin/sis/search/r?dbs+hsdb:@term+@rn+@rel+130-15-4
   7. http://toxnet.nlm.nih.gov/cgi-bin/sis/search/r?dbs+hsdb:@term+@rn+@rel+130-15-4
   8. http://toxnet.nlm.nih.gov/cgi-bin/sis/search/r?dbs+hsdb:@term+@rn+@rel+130-15-4
   9. http://toxnet.nlm.nih.gov/cgi-bin/sis/search/r?dbs+hsdb:@term+@rn+@rel+130-15-4
  10. http://toxnet.nlm.nih.gov/cgi-bin/sis/search/r?dbs+hsdb:@term+@rn+@rel+130-15-4
  11. http://toxnet.nlm.nih.gov/cgi-bin/sis/search/r?dbs+hsdb:@term+@rn+@rel+130-15-4
  12. http://pubchem.ncbi.nlm.nih.gov/vw3d/vw3d.cgi?cid=8530
