20056682
  -OEChem-07051212542D

 46 46  0     1  0  0  0  0  0999 V2000
    6.8671   -0.1900    0.0000 O   0  0  0  0  0  0  0  0  0  0  0  0
    6.0010    1.3100    0.0000 O   0  0  0  0  0  0  0  0  0  0  0  0
    9.4651    1.3100    0.0000 O   0  0  0  0  0  0  0  0  0  0  0  0
    9.4651   -0.6900    0.0000 O   0  0  0  0  0  0  0  0  0  0  0  0
    6.8671   -2.1900    0.0000 O   0  0  0  0  0  0  0  0  0  0  0  0
    4.7690    2.1760    0.0000 O   0  0  0  0  0  0  0  0  0  0  0  0
    2.5369    1.3100    0.0000 O   0  0  0  0  0  0  0  0  0  0  0  0
    4.2690   -0.6900    0.0000 O   0  0  0  0  0  0  0  0  0  0  0  0
    2.7690    0.4440    0.0000 O   0  0  0  0  0  0  0  0  0  0  0  0
    7.7331    2.3100    0.0000 N   0  0  0  0  0  0  0  0  0  0  0  0
    7.7331    1.3100    0.0000 C   0  0  1  0  0  0  0  0  0  0  0  0
    8.5991    0.8100    0.0000 C   0  0  1  0  0  0  0  0  0  0  0  0
    8.5991   -0.1900    0.0000 C   0  0  2  0  0  0  0  0  0  0  0  0
    6.8671    0.8100    0.0000 C   0  0  1  0  0  0  0  0  0  0  0  0
    7.7331   -0.6900    0.0000 C   0  0  2  0  0  0  0  0  0  0  0  0
    5.1350    0.8100    0.0000 C   0  0  2  0  0  0  0  0  0  0  0  0
    7.7331   -1.6900    0.0000 C   0  0  0  0  0  0  0  0  0  0  0  0
    4.2690    1.3100    0.0000 C   0  0  1  0  0  0  0  0  0  0  0  0
    3.4030    1.8100    0.0000 C   0  0  2  0  0  0  0  0  0  0  0  0
    8.5991    2.8100    0.0000 C   0  0  0  0  0  0  0  0  0  0  0  0
    5.1350   -0.1900    0.0000 C   0  0  0  0  0  0  0  0  0  0  0  0
    3.7690    0.4440    0.0000 C   0  0  0  0  0  0  0  0  0  0  0  0
    3.4030    2.8100    0.0000 C   0  0  0  0  0  0  0  0  0  0  0  0
    8.2700    1.6200    0.0000 H   0  0  0  0  0  0  0  0  0  0  0  0
    8.5991    1.4300    0.0000 H   0  0  0  0  0  0  0  0  0  0  0  0
    8.5991   -0.8100    0.0000 H   0  0  0  0  0  0  0  0  0  0  0  0
    6.3301    0.5000    0.0000 H   0  0  0  0  0  0  0  0  0  0  0  0
    7.1962   -1.0000    0.0000 H   0  0  0  0  0  0  0  0  0  0  0  0
    7.1962    2.6200    0.0000 H   0  0  0  0  0  0  0  0  0  0  0  0
    5.1350    1.4300    0.0000 H   0  0  0  0  0  0  0  0  0  0  0  0
    7.9451   -2.2726    0.0000 H   0  0  0  0  0  0  0  0  0  0  0  0
    8.3437   -1.5823    0.0000 H   0  0  0  0  0  0  0  0  0  0  0  0
   10.0021    1.0000    0.0000 H   0  0  0  0  0  0  0  0  0  0  0  0
    3.4030    1.1900    0.0000 H   0  0  0  0  0  0  0  0  0  0  0  0
    9.4651   -1.3100    0.0000 H   0  0  0  0  0  0  0  0  0  0  0  0
    8.9091    2.2731    0.0000 H   0  0  0  0  0  0  0  0  0  0  0  0
    9.1360    3.1200    0.0000 H   0  0  0  0  0  0  0  0  0  0  0  0
    8.2891    3.3469    0.0000 H   0  0  0  0  0  0  0  0  0  0  0  0
    5.6720   -0.5000    0.0000 H   0  0  0  0  0  0  0  0  0  0  0  0
    4.0790   -0.0930    0.0000 H   0  0  0  0  0  0  0  0  0  0  0  0
    4.0230    2.8100    0.0000 H   0  0  0  0  0  0  0  0  0  0  0  0
    3.4030    3.4300    0.0000 H   0  0  0  0  0  0  0  0  0  0  0  0
    2.7830    2.8100    0.0000 H   0  0  0  0  0  0  0  0  0  0  0  0
    6.8671   -2.8100    0.0000 H   0  0  0  0  0  0  0  0  0  0  0  0
    4.4590    2.7130    0.0000 H   0  0  0  0  0  0  0  0  0  0  0  0
    2.0000    1.6200    0.0000 H   0  0  0  0  0  0  0  0  0  0  0  0
  1 14  1  0  0  0  0
  1 15  1  0  0  0  0
 14  2  1  1  0  0  0
 16  2  1  1  0  0  0
 12  3  1  6  0  0  0
  3 33  1  0  0  0  0
 13  4  1  1  0  0  0
  4 35  1  0  0  0  0
  5 17  1  0  0  0  0
  5 44  1  0  0  0  0
 18  6  1  6  0  0  0
  6 45  1  0  0  0  0
 19  7  1  1  0  0  0
  7 46  1  0  0  0  0
  8 21  2  0  0  0  0
  9 22  2  0  0  0  0
 11 10  1  1  0  0  0
 10 20  1  0  0  0  0
 10 29  1  0  0  0  0
 11 12  1  0  0  0  0
 11 14  1  0  0  0  0
 11 24  1  0  0  0  0
 12 13  1  0  0  0  0
 12 25  1  0  0  0  0
 13 15  1  0  0  0  0
 13 26  1  0  0  0  0
 14 27  1  0  0  0  0
 15 17  1  6  0  0  0
 15 28  1  0  0  0  0
 16 18  1  0  0  0  0
 16 21  1  0  0  0  0
 16 30  1  0  0  0  0
 17 31  1  0  0  0  0
 17 32  1  0  0  0  0
 18 19  1  0  0  0  0
 18 22  1  0  0  0  0
 19 23  1  0  0  0  0
 19 34  1  0  0  0  0
 20 36  1  0  0  0  0
 20 37  1  0  0  0  0
 20 38  1  0  0  0  0
 21 39  1  0  0  0  0
 22 40  1  0  0  0  0
 23 41  1  0  0  0  0
 23 42  1  0  0  0  0
 23 43  1  0  0  0  0
M  END
> <PUBCHEM_COMPOUND_CID>
20056682

> <PUBCHEM_COMPOUND_CANONICALIZED>
1

> <PUBCHEM_CACTVS_COMPLEXITY>
409

> <PUBCHEM_CACTVS_HBOND_ACCEPTOR>
10

> <PUBCHEM_CACTVS_HBOND_DONOR>
6

> <PUBCHEM_CACTVS_ROTATABLE_BOND>
8

> <PUBCHEM_CACTVS_SUBSKEYS>
AAADceByPAAAAAAAAAAAAAAAAAAAAAAAAAAkAAAAAAAAAAAAAAAAHgAQCAAADHzxgAcCCALABgAIAAgQgAIAAAAAAAAAAIFIAAATEBYAgAQnQAAHMAAXAAH7cA8KAAAAAAAAAAAAAAAAAAAAAAAAAAAAAA==

> <PUBCHEM_IUPAC_OPENEYE_NAME>
(2R,3R)-3-[(2S,3S,4S,5R,6S)-4,5-dihydroxy-6-(hydroxymethyl)-3-(methylamino)tetrahydropyran-2-yl]oxy-2-hydroxy-2-[(1S)-1-hydroxyethyl]butanedial

> <PUBCHEM_IUPAC_CAS_NAME>
(2R,3R)-3-[[(2S,3S,4S,5R,6S)-4,5-dihydroxy-6-(hydroxymethyl)-3-(methylamino)-2-oxanyl]oxy]-2-hydroxy-2-[(1S)-1-hydroxyethyl]butanedial

> <PUBCHEM_IUPAC_NAME>
(2R,3R)-3-[(2S,3S,4S,5R,6S)-4,5-dihydroxy-6-(hydroxymethyl)-3-(methylamino)oxan-2-yl]oxy-2-hydroxy-2-[(1S)-1-hydroxyethyl]butanedial

> <PUBCHEM_IUPAC_SYSTEMATIC_NAME>
(2R,3R)-3-[(2S,3S,4S,5R,6S)-6-(hydroxymethyl)-3-(methylamino)-4,5-bis(oxidanyl)oxan-2-yl]oxy-2-oxidanyl-2-[(1S)-1-oxidanylethyl]butanedial

> <PUBCHEM_IUPAC_TRADITIONAL_NAME>
(2R,3R)-3-[(2S,3S,4S,5R,6S)-4,5-dihydroxy-3-(methylamino)-6-methylol-tetrahydropyran-2-yl]oxy-2-hydroxy-2-[(1S)-1-hydroxyethyl]succinaldehyde

> <PUBCHEM_IUPAC_INCHI>
InChI=1S/C13H23NO9/c1-6(18)13(21,5-17)8(4-16)23-12-9(14-2)11(20)10(19)7(3-15)22-12/h4-12,14-15,18-21H,3H2,1-2H3/t6-,7-,8-,9-,10-,11-,12-,13+/m0/s1

> <PUBCHEM_IUPAC_INCHIKEY>
UNTJYOFZBHSHIU-HXYRURAXSA-N

> <PUBCHEM_XLOGP3_AA>
-3.8

> <PUBCHEM_EXACT_MASS>
337.137281

> <PUBCHEM_MOLECULAR_FORMULA>
C13H23NO9

> <PUBCHEM_MOLECULAR_WEIGHT>
337.32302

> <PUBCHEM_OPENEYE_CAN_SMILES>
CC(C(C=O)(C(C=O)OC1C(C(C(C(O1)CO)O)O)NC)O)O

> <PUBCHEM_OPENEYE_ISO_SMILES>
C[C@@H]([C@](C=O)([C@H](C=O)O[C@H]1[C@H]([C@@H]([C@H]([C@@H](O1)CO)O)O)NC)O)O

> <PUBCHEM_CACTVS_TPSA>
166

> <PUBCHEM_MONOISOTOPIC_WEIGHT>
337.137281

> <PUBCHEM_TOTAL_CHARGE>
0

> <PUBCHEM_HEAVY_ATOM_COUNT>
23

> <PUBCHEM_ATOM_DEF_STEREO_COUNT>
8

> <PUBCHEM_ATOM_UDEF_STEREO_COUNT>
0

> <PUBCHEM_BOND_DEF_STEREO_COUNT>
0

> <PUBCHEM_BOND_UDEF_STEREO_COUNT>
0

> <PUBCHEM_ISOTOPIC_ATOM_COUNT>
0

> <PUBCHEM_COMPONENT_COUNT>
1

> <PUBCHEM_CACTVS_TAUTO_COUNT>
2

> <PUBCHEM_COORDINATE_TYPE>
1
5
255

> <PUBCHEM_BONDANNOTATIONS>
11  10  5
15  17  6
14  2  5
16  2  5
12  3  6
13  4  5
18  6  6
19  7  5

$$$$

