441124
  -OEChem-07051212522D

 33 33  0     1  0  0  0  0  0999 V2000
    2.4824   -0.3771    0.0000 O   0  0  0  0  0  0  0  0  0  0  0  0
    3.7071   -4.0161    0.0000 O   0  0  0  0  0  0  0  0  0  0  0  0
    5.3801   -1.1536    0.0000 O   0  0  0  0  0  0  0  0  0  0  0  0
    4.9318   -2.8266    0.0000 O   0  0  0  0  0  0  0  0  0  0  0  0
    3.0000   -2.3090    0.0000 N   0  0  0  0  0  0  0  0  0  0  0  0
    4.6037    1.7442    0.0000 N   0  0  0  0  0  0  0  0  0  0  0  0
    5.0520    3.4172    0.0000 N   0  0  0  0  0  0  0  0  0  0  0  0
    3.3789    2.9689    0.0000 N   0  0  0  0  0  0  0  0  0  0  0  0
    3.7071   -1.6019    0.0000 C   0  0  1  0  0  0  0  0  0  0  0  0
    2.0000   -2.3090    0.0000 C   0  0  0  0  0  0  0  0  0  0  0  0
    3.4483   -0.6360    0.0000 C   0  0  1  0  0  0  0  0  0  0  0  0
    2.0000   -3.3090    0.0000 C   0  0  0  0  0  0  0  0  0  0  0  0
    3.0000   -3.3090    0.0000 C   0  0  0  0  0  0  0  0  0  0  0  0
    4.1554    0.0712    0.0000 C   0  0  0  0  0  0  0  0  0  0  0  0
    4.6730   -1.8607    0.0000 C   0  0  0  0  0  0  0  0  0  0  0  0
    3.8966    1.0371    0.0000 C   0  0  0  0  0  0  0  0  0  0  0  0
    4.3449    2.7101    0.0000 C   0  0  0  0  0  0  0  0  0  0  0  0
    3.8676   -2.2008    0.0000 H   0  0  0  0  0  0  0  0  0  0  0  0
    2.0000   -1.6890    0.0000 H   0  0  0  0  0  0  0  0  0  0  0  0
    1.3800   -2.3090    0.0000 H   0  0  0  0  0  0  0  0  0  0  0  0
    3.2878   -0.0371    0.0000 H   0  0  0  0  0  0  0  0  0  0  0  0
    1.3800   -3.3090    0.0000 H   0  0  0  0  0  0  0  0  0  0  0  0
    2.0000   -3.9290    0.0000 H   0  0  0  0  0  0  0  0  0  0  0  0
    4.5110   -0.4367    0.0000 H   0  0  0  0  0  0  0  0  0  0  0  0
    4.7173    0.3332    0.0000 H   0  0  0  0  0  0  0  0  0  0  0  0
    3.5410    1.5450    0.0000 H   0  0  0  0  0  0  0  0  0  0  0  0
    3.3347    0.7751    0.0000 H   0  0  0  0  0  0  0  0  0  0  0  0
    2.3219    0.2217    0.0000 H   0  0  0  0  0  0  0  0  0  0  0  0
    5.9790   -1.3141    0.0000 H   0  0  0  0  0  0  0  0  0  0  0  0
    4.8915    4.0161    0.0000 H   0  0  0  0  0  0  0  0  0  0  0  0
    5.6508    3.2567    0.0000 H   0  0  0  0  0  0  0  0  0  0  0  0
    3.2185    3.5678    0.0000 H   0  0  0  0  0  0  0  0  0  0  0  0
    2.9405    2.5305    0.0000 H   0  0  0  0  0  0  0  0  0  0  0  0
 11  1  1  6  0  0  0
  1 28  1  0  0  0  0
  2 13  2  0  0  0  0
  3 15  1  0  0  0  0
  3 29  1  0  0  0  0
  4 15  2  0  0  0  0
  5  9  1  0  0  0  0
  5 10  1  0  0  0  0
  5 13  1  0  0  0  0
  6 16  1  0  0  0  0
  6 17  2  0  0  0  0
  7 17  1  0  0  0  0
  7 30  1  0  0  0  0
  7 31  1  0  0  0  0
  8 17  1  0  0  0  0
  8 32  1  0  0  0  0
  8 33  1  0  0  0  0
  9 11  1  0  0  0  0
  9 15  1  1  0  0  0
  9 18  1  0  0  0  0
 10 12  1  0  0  0  0
 10 19  1  0  0  0  0
 10 20  1  0  0  0  0
 11 14  1  0  0  0  0
 11 21  1  0  0  0  0
 12 13  1  0  0  0  0
 12 22  1  0  0  0  0
 12 23  1  0  0  0  0
 14 16  1  0  0  0  0
 14 24  1  0  0  0  0
 14 25  1  0  0  0  0
 16 26  1  0  0  0  0
 16 27  1  0  0  0  0
M  END
> <PUBCHEM_COMPOUND_CID>
441124

> <PUBCHEM_COMPOUND_CANONICALIZED>
1

> <PUBCHEM_CACTVS_COMPLEXITY>
340

> <PUBCHEM_CACTVS_HBOND_ACCEPTOR>
5

> <PUBCHEM_CACTVS_HBOND_DONOR>
4

> <PUBCHEM_CACTVS_ROTATABLE_BOND>
6

> <PUBCHEM_CACTVS_SUBSKEYS>
AAADceBzuAAAAAAAAAAAAAAAAABYAAAAAAAAAAAAAAAAAAAAAAAAHgAQCAAACDzhgAYBCANAAgAoAAGQPAAAAAEAAAAAAAGIAAACEB4AgCAEQAAHJgCQAACYEQAAAAAAAAAAAAAAAAAAAAAAAAAAAAAAAA==

> <PUBCHEM_IUPAC_OPENEYE_NAME>
(2S,3R)-5-guanidino-3-hydroxy-2-(2-oxoazetidin-1-yl)pentanoic acid

> <PUBCHEM_IUPAC_CAS_NAME>
(2S,3R)-5-(diaminomethylideneamino)-3-hydroxy-2-(2-oxo-1-azetidinyl)pentanoic acid

> <PUBCHEM_IUPAC_NAME>
(2S,3R)-5-(diaminomethylideneamino)-3-hydroxy-2-(2-oxoazetidin-1-yl)pentanoic acid

> <PUBCHEM_IUPAC_SYSTEMATIC_NAME>
(2S,3R)-5-[bis(azanyl)methylideneamino]-3-oxidanyl-2-(2-oxidanylideneazetidin-1-yl)pentanoic acid

> <PUBCHEM_IUPAC_TRADITIONAL_NAME>
(2S,3R)-5-guanidino-3-hydroxy-2-(2-ketoazetidin-1-yl)valeric acid

> <PUBCHEM_IUPAC_INCHI>
InChI=1S/C9H16N4O4/c10-9(11)12-3-1-5(14)7(8(16)17)13-4-2-6(13)15/h5,7,14H,1-4H2,(H,16,17)(H4,10,11,12)/t5-,7+/m1/s1

> <PUBCHEM_IUPAC_INCHIKEY>
MPNWPLYZGCKKFY-VDTYLAMSSA-N

> <PUBCHEM_XLOGP3_AA>
-2.7

> <PUBCHEM_EXACT_MASS>
244.117155

> <PUBCHEM_MOLECULAR_FORMULA>
C9H16N4O4

> <PUBCHEM_MOLECULAR_WEIGHT>
244.24774

> <PUBCHEM_OPENEYE_CAN_SMILES>
C1CN(C1=O)C(C(CCN=C(N)N)O)C(=O)O

> <PUBCHEM_OPENEYE_ISO_SMILES>
C1CN(C1=O)[C@@H]([C@@H](CCN=C(N)N)O)C(=O)O

> <PUBCHEM_CACTVS_TPSA>
142

> <PUBCHEM_MONOISOTOPIC_WEIGHT>
244.117155

> <PUBCHEM_TOTAL_CHARGE>
0

> <PUBCHEM_HEAVY_ATOM_COUNT>
17

> <PUBCHEM_ATOM_DEF_STEREO_COUNT>
2

> <PUBCHEM_ATOM_UDEF_STEREO_COUNT>
0

> <PUBCHEM_BOND_DEF_STEREO_COUNT>
0

> <PUBCHEM_BOND_UDEF_STEREO_COUNT>
0

> <PUBCHEM_ISOTOPIC_ATOM_COUNT>
0

> <PUBCHEM_COMPONENT_COUNT>
1

> <PUBCHEM_CACTVS_TAUTO_COUNT>
4

> <PUBCHEM_COORDINATE_TYPE>
1
5
255

> <PUBCHEM_BONDANNOTATIONS>
11  1  6
9  15  5

$$$$

