441107
  -OEChem-07051212522D

 42 45  0     0  0  0  0  0  0999 V2000
    6.4144    1.8377    0.0000 O   0  0  0  0  0  0  0  0  0  0  0  0
    4.6660    1.8031    0.0000 O   0  0  0  0  0  0  0  0  0  0  0  0
    8.2517    1.8807    0.0000 O   0  0  0  0  0  0  0  0  0  0  0  0
    2.9176    1.8377    0.0000 O   0  0  0  0  0  0  0  0  0  0  0  0
   10.0711   -1.2428    0.0000 O   0  0  0  0  0  0  0  0  0  0  0  0
   10.0673    1.8489    0.0000 O   0  0  0  0  0  0  0  0  0  0  0  0
   10.9391    0.3522    0.0000 N   0  0  0  0  0  0  0  0  0  0  0  0
    5.5321   -0.6969    0.0000 C   0  0  0  0  0  0  0  0  0  0  0  0
    5.5321    0.3031    0.0000 C   0  0  0  0  0  0  0  0  0  0  0  0
    4.6660   -1.1969    0.0000 C   0  0  0  0  0  0  0  0  0  0  0  0
    3.8000   -0.6969    0.0000 C   0  0  0  0  0  0  0  0  0  0  0  0
    7.3321    0.3239    0.0000 C   0  0  0  0  0  0  0  0  0  0  0  0
    3.8000    0.3031    0.0000 C   0  0  0  0  0  0  0  0  0  0  0  0
    7.3321   -0.7177    0.0000 C   0  0  0  0  0  0  0  0  0  0  0  0
    6.4260    0.8377    0.0000 C   0  0  0  0  0  0  0  0  0  0  0  0
    4.6660    0.8031    0.0000 C   0  0  0  0  0  0  0  0  0  0  0  0
    6.4260   -1.2316    0.0000 C   0  0  0  0  0  0  0  0  0  0  0  0
    8.2632    0.8808    0.0000 C   0  0  0  0  0  0  0  0  0  0  0  0
    4.6660   -2.1969    0.0000 C   0  0  0  0  0  0  0  0  0  0  0  0
    8.2632   -1.2747    0.0000 C   0  0  0  0  0  0  0  0  0  0  0  0
    2.9061    0.8377    0.0000 C   0  0  0  0  0  0  0  0  0  0  0  0
    2.9061   -1.2316    0.0000 C   0  0  0  0  0  0  0  0  0  0  0  0
    9.2070    0.3456    0.0000 C   0  0  0  0  0  0  0  0  0  0  0  0
    9.2070   -0.7394    0.0000 C   0  0  0  0  0  0  0  0  0  0  0  0
    2.0000    0.3239    0.0000 C   0  0  0  0  0  0  0  0  0  0  0  0
    2.0000   -0.7177    0.0000 C   0  0  0  0  0  0  0  0  0  0  0  0
   10.0711    0.8489    0.0000 C   0  0  0  0  0  0  0  0  0  0  0  0
    6.4188   -1.8516    0.0000 H   0  0  0  0  0  0  0  0  0  0  0  0
    4.0460   -2.1969    0.0000 H   0  0  0  0  0  0  0  0  0  0  0  0
    4.6660   -2.8169    0.0000 H   0  0  0  0  0  0  0  0  0  0  0  0
    5.2860   -2.1969    0.0000 H   0  0  0  0  0  0  0  0  0  0  0  0
    8.2561   -1.8946    0.0000 H   0  0  0  0  0  0  0  0  0  0  0  0
    2.9132   -1.8516    0.0000 H   0  0  0  0  0  0  0  0  0  0  0  0
    1.4643    0.6360    0.0000 H   0  0  0  0  0  0  0  0  0  0  0  0
    1.4643   -1.0298    0.0000 H   0  0  0  0  0  0  0  0  0  0  0  0
    6.9478    2.1538    0.0000 H   0  0  0  0  0  0  0  0  0  0  0  0
    4.1291    2.1131    0.0000 H   0  0  0  0  0  0  0  0  0  0  0  0
    8.7850    2.1969    0.0000 H   0  0  0  0  0  0  0  0  0  0  0  0
    2.3843    2.1538    0.0000 H   0  0  0  0  0  0  0  0  0  0  0  0
   10.0687   -1.8628    0.0000 H   0  0  0  0  0  0  0  0  0  0  0  0
   11.4748    0.6643    0.0000 H   0  0  0  0  0  0  0  0  0  0  0  0
   10.9414   -0.2678    0.0000 H   0  0  0  0  0  0  0  0  0  0  0  0
  1 15  1  0  0  0  0
  1 36  1  0  0  0  0
  2 16  1  0  0  0  0
  2 37  1  0  0  0  0
  3 18  1  0  0  0  0
  3 38  1  0  0  0  0
  4 21  1  0  0  0  0
  4 39  1  0  0  0  0
  5 24  1  0  0  0  0
  5 40  1  0  0  0  0
  6 27  2  0  0  0  0
  7 27  1  0  0  0  0
  7 41  1  0  0  0  0
  7 42  1  0  0  0  0
  8  9  2  0  0  0  0
  8 10  1  0  0  0  0
  8 17  1  0  0  0  0
  9 15  1  0  0  0  0
  9 16  1  0  0  0  0
 10 11  2  0  0  0  0
 10 19  1  0  0  0  0
 11 13  1  0  0  0  0
 11 22  1  0  0  0  0
 12 14  1  0  0  0  0
 12 15  2  0  0  0  0
 12 18  1  0  0  0  0
 13 16  2  0  0  0  0
 13 21  1  0  0  0  0
 14 17  2  0  0  0  0
 14 20  1  0  0  0  0
 17 28  1  0  0  0  0
 18 23  2  0  0  0  0
 19 29  1  0  0  0  0
 19 30  1  0  0  0  0
 19 31  1  0  0  0  0
 20 24  2  0  0  0  0
 20 32  1  0  0  0  0
 21 25  2  0  0  0  0
 22 26  2  0  0  0  0
 22 33  1  0  0  0  0
 23 24  1  0  0  0  0
 23 27  1  0  0  0  0
 25 26  1  0  0  0  0
 25 34  1  0  0  0  0
 26 35  1  0  0  0  0
M  END
> <PUBCHEM_COMPOUND_CID>
441107

> <PUBCHEM_COMPOUND_CANONICALIZED>
1

> <PUBCHEM_CACTVS_COMPLEXITY>
587

> <PUBCHEM_CACTVS_HBOND_ACCEPTOR>
6

> <PUBCHEM_CACTVS_HBOND_DONOR>
6

> <PUBCHEM_CACTVS_ROTATABLE_BOND>
1

> <PUBCHEM_CACTVS_SUBSKEYS>
AAADccB6OAAAAAAAAAAAAAAAAAAAAAAAAAAwYMGAAAAAAADBVAAAHgAQCAAADASBmAAyBsBAAgCIAiFSEACCAAAkIAAIiAEGDMgIJzaClROAcUBn4BUImQeY/PTO4AADCAAYAADAAAYQADAAAAAAAAAAAA==

> <PUBCHEM_IUPAC_OPENEYE_NAME>
1,3,10,11,12-pentahydroxy-6-methyl-tetracene-2-carboxamide

> <PUBCHEM_IUPAC_CAS_NAME>
1,3,10,11,12-pentahydroxy-6-methyl-2-tetracenecarboxamide

> <PUBCHEM_IUPAC_NAME>
1,3,10,11,12-pentahydroxy-6-methyltetracene-2-carboxamide

> <PUBCHEM_IUPAC_SYSTEMATIC_NAME>
6-methyl-1,3,10,11,12-pentakis(oxidanyl)tetracene-2-carboxamide

> <PUBCHEM_IUPAC_TRADITIONAL_NAME>
1,3,10,11,12-pentahydroxy-6-methyl-tetracene-2-carboxamide

> <PUBCHEM_IUPAC_INCHI>
InChI=1S/C20H15NO6/c1-7-9-3-2-4-11(22)14(9)19(26)15-10(7)5-8-6-12(23)16(20(21)27)18(25)13(8)17(15)24/h2-6,22-26H,1H3,(H2,21,27)

> <PUBCHEM_IUPAC_INCHIKEY>
WBDQDVXPSGTJAV-UHFFFAOYSA-N

> <PUBCHEM_XLOGP3_AA>
4.8

> <PUBCHEM_EXACT_MASS>
365.089937

> <PUBCHEM_MOLECULAR_FORMULA>
C20H15NO6

> <PUBCHEM_MOLECULAR_WEIGHT>
365.3362

> <PUBCHEM_OPENEYE_CAN_SMILES>
CC1=C2C=C3C=C(C(=C(C3=C(C2=C(C4=C1C=CC=C4O)O)O)O)C(=O)N)O

> <PUBCHEM_OPENEYE_ISO_SMILES>
CC1=C2C=C3C=C(C(=C(C3=C(C2=C(C4=C1C=CC=C4O)O)O)O)C(=O)N)O

> <PUBCHEM_CACTVS_TPSA>
144

> <PUBCHEM_MONOISOTOPIC_WEIGHT>
365.089937

> <PUBCHEM_TOTAL_CHARGE>
0

> <PUBCHEM_HEAVY_ATOM_COUNT>
27

> <PUBCHEM_ATOM_DEF_STEREO_COUNT>
0

> <PUBCHEM_ATOM_UDEF_STEREO_COUNT>
0

> <PUBCHEM_BOND_DEF_STEREO_COUNT>
0

> <PUBCHEM_BOND_UDEF_STEREO_COUNT>
0

> <PUBCHEM_ISOTOPIC_ATOM_COUNT>
0

> <PUBCHEM_COMPONENT_COUNT>
1

> <PUBCHEM_CACTVS_TAUTO_COUNT>
997

> <PUBCHEM_COORDINATE_TYPE>
1
5
255

> <PUBCHEM_BONDANNOTATIONS>
10  11  8
11  13  8
11  22  8
12  14  8
12  15  8
12  18  8
13  16  8
13  21  8
14  17  8
14  20  8
18  23  8
20  24  8
21  25  8
22  26  8
23  24  8
25  26  8
8  10  8
8  17  8
8  9  8
9  15  8
9  16  8

$$$$

