443463
  -OEChem-07051213022D

 48 51  0     1  0  0  0  0  0999 V2000
    6.8928    3.5843    0.0000 O   0  0  0  0  0  0  0  0  0  0  0  0
    2.9693   -2.4633    0.0000 O   0  0  0  0  0  0  0  0  0  0  0  0
    7.7163   -0.9795    0.0000 O   0  0  0  0  0  0  0  0  0  0  0  0
    6.5172   -2.2294    0.0000 O   0  0  0  0  0  0  0  0  0  0  0  0
    5.3658   -3.1472    0.0000 O   0  0  0  0  0  0  0  0  0  0  0  0
    2.0000   -0.6658    0.0000 O   0  0  0  0  0  0  0  0  0  0  0  0
    3.6340   -3.1169    0.0000 O   0  0  0  0  0  0  0  0  0  0  0  0
    6.1703    0.4187    0.0000 C   0  0  1  0  0  0  0  0  0  0  0  0
    5.2693    0.8526    0.0000 C   0  0  2  0  0  0  0  0  0  0  0  0
    6.0343   -0.5660    0.0000 C   0  0  2  0  0  0  0  0  0  0  0  0
    5.0561   -0.7426    0.0000 C   0  0  1  0  0  0  0  0  0  0  0  0
    6.0635    1.5955    0.0000 C   0  0  0  0  0  0  0  0  0  0  0  0
    6.6703    2.6094    0.0000 C   0  0  2  0  0  0  0  0  0  0  0  0
    7.0713    0.8526    0.0000 C   0  0  0  0  0  0  0  0  0  0  0  0
    4.5842    0.1323    0.0000 C   0  0  0  0  0  0  0  0  0  0  0  0
    5.0468    1.8276    0.0000 C   0  0  0  0  0  0  0  0  0  0  0  0
    5.6703    2.6094    0.0000 C   0  0  0  0  0  0  0  0  0  0  0  0
    7.2938    1.8276    0.0000 C   0  0  0  0  0  0  0  0  0  0  0  0
    4.5262   -1.6322    0.0000 C   0  0  2  0  0  0  0  0  0  0  0  0
    3.4909   -1.6101    0.0000 C   0  0  2  0  0  0  0  0  0  0  0  0
    6.7559   -1.2583    0.0000 C   0  0  0  0  0  0  0  0  0  0  0  0
    3.5498    0.1784    0.0000 C   0  0  0  0  0  0  0  0  0  0  0  0
    5.3833   -2.1473    0.0000 C   0  0  0  0  0  0  0  0  0  0  0  0
    2.9995   -0.6987    0.0000 C   0  0  0  0  0  0  0  0  0  0  0  0
    4.5087   -2.6321    0.0000 C   0  0  0  0  0  0  0  0  0  0  0  0
    8.2687    2.0501    0.0000 C   0  0  0  0  0  0  0  0  0  0  0  0
    4.5035    1.2214    0.0000 H   0  0  0  0  0  0  0  0  0  0  0  0
    6.6200   -0.3625    0.0000 H   0  0  0  0  0  0  0  0  0  0  0  0
    5.5403   -1.4412    0.0000 H   0  0  0  0  0  0  0  0  0  0  0  0
    5.6557    2.0625    0.0000 H   0  0  0  0  0  0  0  0  0  0  0  0
    5.4934    1.3517    0.0000 H   0  0  0  0  0  0  0  0  0  0  0  0
    7.2092    0.2482    0.0000 H   0  0  0  0  0  0  0  0  0  0  0  0
    7.6913    0.8526    0.0000 H   0  0  0  0  0  0  0  0  0  0  0  0
    4.6603    2.3123    0.0000 H   0  0  0  0  0  0  0  0  0  0  0  0
    4.4882    1.5586    0.0000 H   0  0  0  0  0  0  0  0  0  0  0  0
    5.8083    3.2138    0.0000 H   0  0  0  0  0  0  0  0  0  0  0  0
    5.1117    2.8784    0.0000 H   0  0  0  0  0  0  0  0  0  0  0  0
    2.8712   -1.5933    0.0000 H   0  0  0  0  0  0  0  0  0  0  0  0
    3.2619    0.7274    0.0000 H   0  0  0  0  0  0  0  0  0  0  0  0
    5.0640   -2.6787    0.0000 H   0  0  0  0  0  0  0  0  0  0  0  0
    5.9147   -2.4666    0.0000 H   0  0  0  0  0  0  0  0  0  0  0  0
    5.7026   -1.6159    0.0000 H   0  0  0  0  0  0  0  0  0  0  0  0
    7.4853    3.7671    0.0000 H   0  0  0  0  0  0  0  0  0  0  0  0
    8.6904    1.5956    0.0000 H   0  0  0  0  0  0  0  0  0  0  0  0
    8.4515    2.6425    0.0000 H   0  0  0  0  0  0  0  0  0  0  0  0
    2.3495   -2.4477    0.0000 H   0  0  0  0  0  0  0  0  0  0  0  0
    8.1637   -1.4088    0.0000 H   0  0  0  0  0  0  0  0  0  0  0  0
    5.3550   -3.7671    0.0000 H   0  0  0  0  0  0  0  0  0  0  0  0
 13  1  1  6  0  0  0
  1 43  1  0  0  0  0
 20  2  1  1  0  0  0
  2 46  1  0  0  0  0
  3 21  1  0  0  0  0
  3 47  1  0  0  0  0
  4 21  2  0  0  0  0
  5 25  1  0  0  0  0
  5 48  1  0  0  0  0
  6 24  2  0  0  0  0
  7 25  2  0  0  0  0
  8  9  1  0  0  0  0
  8 10  1  0  0  0  0
  8 12  1  6  0  0  0
  8 14  1  0  0  0  0
  9 15  1  0  0  0  0
  9 16  1  0  0  0  0
  9 27  1  1  0  0  0
 10 11  1  0  0  0  0
 10 21  1  1  0  0  0
 10 28  1  0  0  0  0
 11 15  1  0  0  0  0
 11 19  1  0  0  0  0
 11 29  1  1  0  0  0
 12 13  1  0  0  0  0
 12 30  1  0  0  0  0
 12 31  1  0  0  0  0
 13 17  1  0  0  0  0
 13 18  1  0  0  0  0
 14 18  1  0  0  0  0
 14 32  1  0  0  0  0
 14 33  1  0  0  0  0
 15 22  2  0  0  0  0
 16 17  1  0  0  0  0
 16 34  1  0  0  0  0
 16 35  1  0  0  0  0
 17 36  1  0  0  0  0
 17 37  1  0  0  0  0
 18 26  2  0  0  0  0
 19 20  1  0  0  0  0
 19 23  1  1  0  0  0
 19 25  1  0  0  0  0
 20 24  1  0  0  0  0
 20 38  1  0  0  0  0
 22 24  1  0  0  0  0
 22 39  1  0  0  0  0
 23 40  1  0  0  0  0
 23 41  1  0  0  0  0
 23 42  1  0  0  0  0
 26 44  1  0  0  0  0
 26 45  1  0  0  0  0
M  END
> <PUBCHEM_COMPOUND_CID>
443463

> <PUBCHEM_COMPOUND_CANONICALIZED>
1

> <PUBCHEM_CACTVS_COMPLEXITY>
798

> <PUBCHEM_CACTVS_HBOND_ACCEPTOR>
7

> <PUBCHEM_CACTVS_HBOND_DONOR>
4

> <PUBCHEM_CACTVS_ROTATABLE_BOND>
2

> <PUBCHEM_CACTVS_SUBSKEYS>
AAADceB4OAAAAAAAAAAAAAAAAAAAAYMAAAAwQAAABgAAAGDAAAAAGgAACAAAD1SggAICCAAAAgCIAqDSCAIAAAAgAAAACAFAAEgAFBYAAQAAQAAF4AAIEQOL7vTPgAAAAAAAAADAAAYAACAAAYAACAAAAA==

> <PUBCHEM_IUPAC_INCHI>
InChI=1S/C19H22O7/c1-8-6-18-7-19(8,26)4-3-10(18)9-5-11(20)14(21)17(2,16(24)25)12(9)13(18)15(22)23/h5,10,12-14,21,26H,1,3-4,6-7H2,2H3,(H,22,23)(H,24,25)/t10-,12+,13+,14-,17-,18-,19-/m0/s1

> <PUBCHEM_IUPAC_INCHIKEY>
NAOFYNMJUGRAFS-UWSJOQIXSA-N

> <PUBCHEM_XLOGP3_AA>
-0.4

> <PUBCHEM_EXACT_MASS>
362.136553

> <PUBCHEM_MOLECULAR_FORMULA>
C19H22O7

> <PUBCHEM_MOLECULAR_WEIGHT>
362.37378

> <PUBCHEM_OPENEYE_CAN_SMILES>
CC1(C2C(C34CC(=C)C(C3)(CCC4C2=CC(=O)C1O)O)C(=O)O)C(=O)O

> <PUBCHEM_OPENEYE_ISO_SMILES>
C[C@@]1([C@H]2[C@@H]([C@@]34CC(=C)[C@@](C3)(CC[C@H]4C2=CC(=O)[C@@H]1O)O)C(=O)O)C(=O)O

> <PUBCHEM_CACTVS_TPSA>
132

> <PUBCHEM_MONOISOTOPIC_WEIGHT>
362.136553

> <PUBCHEM_TOTAL_CHARGE>
0

> <PUBCHEM_HEAVY_ATOM_COUNT>
26

> <PUBCHEM_ATOM_DEF_STEREO_COUNT>
7

> <PUBCHEM_ATOM_UDEF_STEREO_COUNT>
0

> <PUBCHEM_BOND_DEF_STEREO_COUNT>
0

> <PUBCHEM_BOND_UDEF_STEREO_COUNT>
0

> <PUBCHEM_ISOTOPIC_ATOM_COUNT>
0

> <PUBCHEM_COMPONENT_COUNT>
1

> <PUBCHEM_CACTVS_TAUTO_COUNT>
13

> <PUBCHEM_COORDINATE_TYPE>
1
5
255

> <PUBCHEM_BONDANNOTATIONS>
13  1  6
10  21  5
11  29  5
19  23  5
20  2  5
8  12  6
9  27  5

$$$$

