17395432
  -OEChem-06241222502D

 40 42  0     1  0  0  0  0  0999 V2000
    4.8198    1.1566    0.0000 O   0  0  0  0  0  0  0  0  0  0  0  0
    4.8198   -0.8434    0.0000 O   0  0  0  0  0  0  0  0  0  0  0  0
    3.5878   -3.3822    0.0000 O   0  0  0  0  0  0  0  0  0  0  0  0
    3.0878   -0.8434    0.0000 N   0  0  0  0  0  0  0  0  0  0  0  0
    6.5798    2.1219    0.0000 N   0  0  0  0  0  0  0  0  0  0  0  0
    3.8968   -2.4312    0.0000 N   0  0  0  0  0  0  0  0  0  0  0  0
    3.9538    0.6566    0.0000 C   0  0  3  0  0  0  0  0  0  0  0  0
    3.0878    1.1566    0.0000 C   0  0  0  0  0  0  0  0  0  0  0  0
    4.8198    2.1566    0.0000 C   0  0  0  0  0  0  0  0  0  0  0  0
    3.9538   -0.3434    0.0000 C   0  0  0  0  0  0  0  0  0  0  0  0
    5.6859    2.6566    0.0000 C   0  0  0  0  0  0  0  0  0  0  0  0
    2.2218    0.6566    0.0000 C   0  0  0  0  0  0  0  0  0  0  0  0
    5.6859    3.6566    0.0000 C   0  0  0  0  0  0  0  0  0  0  0  0
    3.9538    2.6566    0.0000 C   0  0  0  0  0  0  0  0  0  0  0  0
    4.8198    4.1566    0.0000 C   0  0  0  0  0  0  0  0  0  0  0  0
    3.9538    3.6566    0.0000 C   0  0  0  0  0  0  0  0  0  0  0  0
    3.0878   -1.8434    0.0000 C   0  0  0  0  0  0  0  0  0  0  0  0
    6.5798    4.1913    0.0000 C   0  0  0  0  0  0  0  0  0  0  0  0
    2.2788   -2.4312    0.0000 C   0  0  0  0  0  0  0  0  0  0  0  0
    7.4859    3.6774    0.0000 C   0  0  0  0  0  0  0  0  0  0  0  0
    7.4859    2.6358    0.0000 C   0  0  0  0  0  0  0  0  0  0  0  0
    2.5878   -3.3822    0.0000 C   0  0  0  0  0  0  0  0  0  0  0  0
    2.0000   -4.1913    0.0000 C   0  0  0  0  0  0  0  0  0  0  0  0
    3.9538    1.2766    0.0000 H   0  0  0  0  0  0  0  0  0  0  0  0
    3.4863    1.6316    0.0000 H   0  0  0  0  0  0  0  0  0  0  0  0
    2.6893    1.6316    0.0000 H   0  0  0  0  0  0  0  0  0  0  0  0
    1.9118    1.1935    0.0000 H   0  0  0  0  0  0  0  0  0  0  0  0
    1.6848    0.3466    0.0000 H   0  0  0  0  0  0  0  0  0  0  0  0
    2.5318    0.1197    0.0000 H   0  0  0  0  0  0  0  0  0  0  0  0
    3.4169    2.3466    0.0000 H   0  0  0  0  0  0  0  0  0  0  0  0
    2.5508   -0.5334    0.0000 H   0  0  0  0  0  0  0  0  0  0  0  0
    4.8198    4.7766    0.0000 H   0  0  0  0  0  0  0  0  0  0  0  0
    3.4169    3.9666    0.0000 H   0  0  0  0  0  0  0  0  0  0  0  0
    6.5726    4.8112    0.0000 H   0  0  0  0  0  0  0  0  0  0  0  0
    1.6891   -2.2396    0.0000 H   0  0  0  0  0  0  0  0  0  0  0  0
    8.0216    3.9895    0.0000 H   0  0  0  0  0  0  0  0  0  0  0  0
    8.0216    2.3237    0.0000 H   0  0  0  0  0  0  0  0  0  0  0  0
    1.4984   -3.8268    0.0000 H   0  0  0  0  0  0  0  0  0  0  0  0
    1.6356   -4.6928    0.0000 H   0  0  0  0  0  0  0  0  0  0  0  0
    2.5016   -4.5557    0.0000 H   0  0  0  0  0  0  0  0  0  0  0  0
  1  7  1  0  0  0  0
  1  9  1  0  0  0  0
  2 10  2  0  0  0  0
  3  6  1  0  0  0  0
  3 22  1  0  0  0  0
  4 10  1  0  0  0  0
  4 17  1  0  0  0  0
  4 31  1  0  0  0  0
  5 11  1  0  0  0  0
  5 21  2  0  0  0  0
  6 17  2  0  0  0  0
  7  8  1  0  0  0  0
  7 10  1  0  0  0  0
  7 24  1  0  0  0  0
  8 12  1  0  0  0  0
  8 25  1  0  0  0  0
  8 26  1  0  0  0  0
  9 11  1  0  0  0  0
  9 14  2  0  0  0  0
 11 13  2  0  0  0  0
 12 27  1  0  0  0  0
 12 28  1  0  0  0  0
 12 29  1  0  0  0  0
 13 15  1  0  0  0  0
 13 18  1  0  0  0  0
 14 16  1  0  0  0  0
 14 30  1  0  0  0  0
 15 16  2  0  0  0  0
 15 32  1  0  0  0  0
 16 33  1  0  0  0  0
 17 19  1  0  0  0  0
 18 20  2  0  0  0  0
 18 34  1  0  0  0  0
 19 22  2  0  0  0  0
 19 35  1  0  0  0  0
 20 21  1  0  0  0  0
 20 36  1  0  0  0  0
 21 37  1  0  0  0  0
 22 23  1  0  0  0  0
 23 38  1  0  0  0  0
 23 39  1  0  0  0  0
 23 40  1  0  0  0  0
M  END
> <PUBCHEM_COMPOUND_CID>
17395432

> <PUBCHEM_COMPOUND_CANONICALIZED>
1

> <PUBCHEM_CACTVS_COMPLEXITY>
407

> <PUBCHEM_CACTVS_HBOND_ACCEPTOR>
5

> <PUBCHEM_CACTVS_HBOND_DONOR>
1

> <PUBCHEM_CACTVS_ROTATABLE_BOND>
5

> <PUBCHEM_CACTVS_SUBSKEYS>
AAADceB7MAAAAAAAAAAAAAAAAAAAAWAAAAA8QAAAAAAAAACx/AAAHgAUAAAADBzhngY/9vLYFACpA7d3dgaCiCA1YiAp2CF/bNqOJvrEuZ+HOKjm1RvY6EeQwLAOAAABAAACEAAAAAIAAAQgAAAAAAAAAA==

> <PUBCHEM_IUPAC_OPENEYE_NAME>
N-(5-methylisoxazol-3-yl)-2-(8-quinolyloxy)butanamide

> <PUBCHEM_IUPAC_CAS_NAME>
N-(5-methyl-3-isoxazolyl)-2-(8-quinolinyloxy)butanamide

> <PUBCHEM_IUPAC_NAME>
N-(5-methyl-1,2-oxazol-3-yl)-2-quinolin-8-yloxybutanamide

> <PUBCHEM_IUPAC_SYSTEMATIC_NAME>
N-(5-methyl-1,2-oxazol-3-yl)-2-quinolin-8-yloxy-butanamide

> <PUBCHEM_IUPAC_TRADITIONAL_NAME>
N-(5-methylisoxazol-3-yl)-2-(8-quinolyloxy)butyramide

> <PUBCHEM_IUPAC_INCHI>
InChI=1S/C17H17N3O3/c1-3-13(17(21)19-15-10-11(2)23-20-15)22-14-8-4-6-12-7-5-9-18-16(12)14/h4-10,13H,3H2,1-2H3,(H,19,20,21)

> <PUBCHEM_IUPAC_INCHIKEY>
ZEENEEKKCZHUEA-UHFFFAOYSA-N

> <PUBCHEM_XLOGP3_AA>
3.2

> <PUBCHEM_EXACT_MASS>
311.126991

> <PUBCHEM_MOLECULAR_FORMULA>
C17H17N3O3

> <PUBCHEM_MOLECULAR_WEIGHT>
311.33518

> <PUBCHEM_OPENEYE_CAN_SMILES>
CCC(C(=O)NC1=NOC(=C1)C)OC2=CC=CC3=C2N=CC=C3

> <PUBCHEM_OPENEYE_ISO_SMILES>
CCC(C(=O)NC1=NOC(=C1)C)OC2=CC=CC3=C2N=CC=C3

> <PUBCHEM_CACTVS_TPSA>
77.2

> <PUBCHEM_MONOISOTOPIC_WEIGHT>
311.126991

> <PUBCHEM_TOTAL_CHARGE>
0

> <PUBCHEM_HEAVY_ATOM_COUNT>
23

> <PUBCHEM_ATOM_DEF_STEREO_COUNT>
0

> <PUBCHEM_ATOM_UDEF_STEREO_COUNT>
1

> <PUBCHEM_BOND_DEF_STEREO_COUNT>
0

> <PUBCHEM_BOND_UDEF_STEREO_COUNT>
0

> <PUBCHEM_ISOTOPIC_ATOM_COUNT>
0

> <PUBCHEM_COMPONENT_COUNT>
1

> <PUBCHEM_CACTVS_TAUTO_COUNT>
10

> <PUBCHEM_COORDINATE_TYPE>
1
5
255

> <PUBCHEM_BONDANNOTATIONS>
11  13  8
13  15  8
13  18  8
14  16  8
15  16  8
17  19  8
18  20  8
19  22  8
20  21  8
3  22  8
3  6  8
5  11  8
5  21  8
6  17  8
7  8  3
9  11  8
9  14  8

$$$$

