439792
  -OEChem-07051212472D

 93 96  0     1  0  0  0  0  0999 V2000
    8.9723    0.2757    0.0000 O   0  0  0  0  0  0  0  0  0  0  0  0
   10.7043    1.2757    0.0000 O   0  0  0  0  0  0  0  0  0  0  0  0
    8.0017   -1.2188    0.0000 O   0  0  0  0  0  0  0  0  0  0  0  0
    8.9723   -1.7243    0.0000 O   0  0  0  0  0  0  0  0  0  0  0  0
    5.5290   -0.4562    0.0000 O   0  0  0  0  0  0  0  0  0  0  0  0
   12.2043    2.1417    0.0000 O   0  0  0  0  0  0  0  0  0  0  0  0
    6.9848    1.1606    0.0000 O   0  0  0  0  0  0  0  0  0  0  0  0
    5.3480   -2.1788    0.0000 O   0  0  0  0  0  0  0  0  0  0  0  0
   10.7043    4.7398    0.0000 O   0  0  0  0  0  0  0  0  0  0  0  0
   12.7043    4.7398    0.0000 O   0  0  0  0  0  0  0  0  0  0  0  0
    2.3644   -1.8652    0.0000 O   0  0  0  0  0  0  0  0  0  0  0  0
    7.2046   -3.1493    0.0000 O   0  0  0  0  0  0  0  0  0  0  0  0
    3.1779   -3.6923    0.0000 O   0  0  0  0  0  0  0  0  0  0  0  0
   14.0703   -1.0903    0.0000 O   0  0  0  0  0  0  0  0  0  0  0  0
   12.5703   -0.2243    0.0000 N   0  0  0  0  0  0  0  0  0  0  0  0
   10.7043   -2.7243    0.0000 N   0  0  0  0  0  0  0  0  0  0  0  0
    9.7043    3.0077    0.0000 N   0  0  0  0  0  0  0  0  0  0  0  0
    3.5400   -0.2471    0.0000 N   0  0  0  0  0  0  0  0  0  0  0  0
   14.2043    3.8738    0.0000 N   0  0  0  0  0  0  0  0  0  0  0  0
    4.5792   -4.7103    0.0000 N   0  0  0  0  0  0  0  0  0  0  0  0
   10.7043    0.2757    0.0000 C   0  0  3  0  0  0  0  0  0  0  0  0
    9.8383   -0.2243    0.0000 C   0  0  3  0  0  0  0  0  0  0  0  0
   11.5703   -0.2243    0.0000 C   0  0  3  0  0  0  0  0  0  0  0  0
    9.8383   -1.2243    0.0000 C   0  0  3  0  0  0  0  0  0  0  0  0
   10.7043   -1.7243    0.0000 C   0  0  3  0  0  0  0  0  0  0  0  0
   11.5703   -1.2243    0.0000 C   0  0  0  0  0  0  0  0  0  0  0  0
    8.1062   -0.2243    0.0000 C   0  0  2  0  0  0  0  0  0  0  0  0
    6.5236   -0.5607    0.0000 C   0  0  1  0  0  0  0  0  0  0  0  0
    7.1927    0.1824    0.0000 C   0  0  1  0  0  0  0  0  0  0  0  0
    7.0236   -1.4267    0.0000 C   0  0  1  0  0  0  0  0  0  0  0  0
   11.2043    2.1417    0.0000 C   0  0  3  0  0  0  0  0  0  0  0  0
   10.7043    3.0077    0.0000 C   0  0  3  0  0  0  0  0  0  0  0  0
   11.2043    3.8738    0.0000 C   0  0  3  0  0  0  0  0  0  0  0  0
   12.2043    3.8738    0.0000 C   0  0  3  0  0  0  0  0  0  0  0  0
    4.9413   -1.2652    0.0000 C   0  0  3  0  0  0  0  0  0  0  0  0
   12.7043    3.0077    0.0000 C   0  0  3  0  0  0  0  0  0  0  0  0
    3.9467   -1.1607    0.0000 C   0  0  3  0  0  0  0  0  0  0  0  0
    3.3590   -1.9697    0.0000 C   0  0  3  0  0  0  0  0  0  0  0  0
    6.6168   -2.3403    0.0000 C   0  0  0  0  0  0  0  0  0  0  0  0
    3.7657   -2.8832    0.0000 C   0  0  3  0  0  0  0  0  0  0  0  0
    4.7602   -2.9878    0.0000 C   0  0  3  0  0  0  0  0  0  0  0  0
   13.0703   -1.0903    0.0000 C   0  0  0  0  0  0  0  0  0  0  0  0
   13.7043    3.0077    0.0000 C   0  0  0  0  0  0  0  0  0  0  0  0
    5.1669   -3.9013    0.0000 C   0  0  0  0  0  0  0  0  0  0  0  0
   12.5703   -1.9564    0.0000 C   0  0  0  0  0  0  0  0  0  0  0  0
    9.9682    0.7007    0.0000 H   0  0  0  0  0  0  0  0  0  0  0  0
    9.8383    0.6257    0.0000 H   0  0  0  0  0  0  0  0  0  0  0  0
   11.7903    0.5967    0.0000 H   0  0  0  0  0  0  0  0  0  0  0  0
    9.8383   -2.0743    0.0000 H   0  0  0  0  0  0  0  0  0  0  0  0
    9.9682   -2.1493    0.0000 H   0  0  0  0  0  0  0  0  0  0  0  0
   11.7824   -1.8069    0.0000 H   0  0  0  0  0  0  0  0  0  0  0  0
   12.1809   -1.1166    0.0000 H   0  0  0  0  0  0  0  0  0  0  0  0
    8.0738    0.3948    0.0000 H   0  0  0  0  0  0  0  0  0  0  0  0
    6.1859   -1.0807    0.0000 H   0  0  0  0  0  0  0  0  0  0  0  0
    7.6745    0.5726    0.0000 H   0  0  0  0  0  0  0  0  0  0  0  0
    7.4137   -1.9086    0.0000 H   0  0  0  0  0  0  0  0  0  0  0  0
   10.3543    2.1417    0.0000 H   0  0  0  0  0  0  0  0  0  0  0  0
   10.2793    2.2716    0.0000 H   0  0  0  0  0  0  0  0  0  0  0  0
   12.8803    0.3126    0.0000 H   0  0  0  0  0  0  0  0  0  0  0  0
   10.3543    3.8738    0.0000 H   0  0  0  0  0  0  0  0  0  0  0  0
   11.2413   -3.0343    0.0000 H   0  0  0  0  0  0  0  0  0  0  0  0
   10.1674   -3.0343    0.0000 H   0  0  0  0  0  0  0  0  0  0  0  0
   13.0543    3.8738    0.0000 H   0  0  0  0  0  0  0  0  0  0  0  0
    4.5955   -0.4887    0.0000 H   0  0  0  0  0  0  0  0  0  0  0  0
   13.1293    2.2716    0.0000 H   0  0  0  0  0  0  0  0  0  0  0  0
    3.1014   -1.0718    0.0000 H   0  0  0  0  0  0  0  0  0  0  0  0
    8.9723   -2.3443    0.0000 H   0  0  0  0  0  0  0  0  0  0  0  0
    3.0132   -1.1932    0.0000 H   0  0  0  0  0  0  0  0  0  0  0  0
    6.1028   -1.9936    0.0000 H   0  0  0  0  0  0  0  0  0  0  0  0
    6.1861   -2.7863    0.0000 H   0  0  0  0  0  0  0  0  0  0  0  0
    4.1114   -3.6598    0.0000 H   0  0  0  0  0  0  0  0  0  0  0  0
    5.6056   -3.0766    0.0000 H   0  0  0  0  0  0  0  0  0  0  0  0
    6.3951    1.3522    0.0000 H   0  0  0  0  0  0  0  0  0  0  0  0
   13.5967    2.3972    0.0000 H   0  0  0  0  0  0  0  0  0  0  0  0
   14.2869    2.7957    0.0000 H   0  0  0  0  0  0  0  0  0  0  0  0
    9.3943    3.5447    0.0000 H   0  0  0  0  0  0  0  0  0  0  0  0
    9.3943    2.4708    0.0000 H   0  0  0  0  0  0  0  0  0  0  0  0
    5.5976   -4.3473    0.0000 H   0  0  0  0  0  0  0  0  0  0  0  0
    5.6810   -3.5546    0.0000 H   0  0  0  0  0  0  0  0  0  0  0  0
    2.9234   -0.1823    0.0000 H   0  0  0  0  0  0  0  0  0  0  0  0
    3.9044    0.2545    0.0000 H   0  0  0  0  0  0  0  0  0  0  0  0
   11.0143    5.2767    0.0000 H   0  0  0  0  0  0  0  0  0  0  0  0
   12.3943    5.2767    0.0000 H   0  0  0  0  0  0  0  0  0  0  0  0
   12.0334   -1.6464    0.0000 H   0  0  0  0  0  0  0  0  0  0  0  0
   12.2603   -2.4933    0.0000 H   0  0  0  0  0  0  0  0  0  0  0  0
   13.1073   -2.2664    0.0000 H   0  0  0  0  0  0  0  0  0  0  0  0
    2.0000   -2.3668    0.0000 H   0  0  0  0  0  0  0  0  0  0  0  0
    6.9524   -3.7157    0.0000 H   0  0  0  0  0  0  0  0  0  0  0  0
    2.5613   -3.6274    0.0000 H   0  0  0  0  0  0  0  0  0  0  0  0
   14.8243    3.8738    0.0000 H   0  0  0  0  0  0  0  0  0  0  0  0
   13.8943    4.4107    0.0000 H   0  0  0  0  0  0  0  0  0  0  0  0
    4.8313   -5.2767    0.0000 H   0  0  0  0  0  0  0  0  0  0  0  0
    3.9626   -4.6455    0.0000 H   0  0  0  0  0  0  0  0  0  0  0  0
  1 22  1  0  0  0  0
 27  1  1  6  0  0  0
  2 21  1  0  0  0  0
  2 31  1  0  0  0  0
  3 27  1  0  0  0  0
  3 30  1  0  0  0  0
  4 24  1  0  0  0  0
  4 67  1  0  0  0  0
 28  5  1  1  0  0  0
  5 35  1  0  0  0  0
  6 31  1  0  0  0  0
  6 36  1  0  0  0  0
 29  7  1  1  0  0  0
  7 73  1  0  0  0  0
  8 35  1  0  0  0  0
  8 41  1  0  0  0  0
  9 33  1  0  0  0  0
  9 82  1  0  0  0  0
 10 34  1  0  0  0  0
 10 83  1  0  0  0  0
 11 38  1  0  0  0  0
 11 87  1  0  0  0  0
 12 39  1  0  0  0  0
 12 88  1  0  0  0  0
 13 40  1  0  0  0  0
 13 89  1  0  0  0  0
 14 42  2  0  0  0  0
 15 23  1  0  0  0  0
 15 42  1  0  0  0  0
 15 59  1  0  0  0  0
 16 25  1  0  0  0  0
 16 61  1  0  0  0  0
 16 62  1  0  0  0  0
 17 32  1  0  0  0  0
 17 76  1  0  0  0  0
 17 77  1  0  0  0  0
 18 37  1  0  0  0  0
 18 80  1  0  0  0  0
 18 81  1  0  0  0  0
 19 43  1  0  0  0  0
 19 90  1  0  0  0  0
 19 91  1  0  0  0  0
 20 44  1  0  0  0  0
 20 92  1  0  0  0  0
 20 93  1  0  0  0  0
 21 22  1  0  0  0  0
 21 23  1  0  0  0  0
 21 46  1  0  0  0  0
 22 24  1  0  0  0  0
 22 47  1  0  0  0  0
 23 26  1  0  0  0  0
 23 48  1  0  0  0  0
 24 25  1  0  0  0  0
 24 49  1  0  0  0  0
 25 26  1  0  0  0  0
 25 50  1  0  0  0  0
 26 51  1  0  0  0  0
 26 52  1  0  0  0  0
 27 29  1  0  0  0  0
 27 53  1  0  0  0  0
 28 29  1  0  0  0  0
 28 30  1  0  0  0  0
 28 54  1  0  0  0  0
 29 55  1  0  0  0  0
 30 39  1  6  0  0  0
 30 56  1  0  0  0  0
 31 32  1  0  0  0  0
 31 57  1  0  0  0  0
 32 33  1  0  0  0  0
 32 58  1  0  0  0  0
 33 34  1  0  0  0  0
 33 60  1  0  0  0  0
 34 36  1  0  0  0  0
 34 63  1  0  0  0  0
 35 37  1  0  0  0  0
 35 64  1  0  0  0  0
 36 43  1  0  0  0  0
 36 65  1  0  0  0  0
 37 38  1  0  0  0  0
 37 66  1  0  0  0  0
 38 40  1  0  0  0  0
 38 68  1  0  0  0  0
 39 69  1  0  0  0  0
 39 70  1  0  0  0  0
 40 41  1  0  0  0  0
 40 71  1  0  0  0  0
 41 44  1  0  0  0  0
 41 72  1  0  0  0  0
 42 45  1  0  0  0  0
 43 74  1  0  0  0  0
 43 75  1  0  0  0  0
 44 78  1  0  0  0  0
 44 79  1  0  0  0  0
 45 84  1  0  0  0  0
 45 85  1  0  0  0  0
 45 86  1  0  0  0  0
M  END
> <PUBCHEM_COMPOUND_CID>
439792

> <PUBCHEM_COMPOUND_CANONICALIZED>
1

> <PUBCHEM_CACTVS_COMPLEXITY>
977

> <PUBCHEM_CACTVS_HBOND_ACCEPTOR>
19

> <PUBCHEM_CACTVS_HBOND_DONOR>
13

> <PUBCHEM_CACTVS_ROTATABLE_BOND>
10

> <PUBCHEM_CACTVS_SUBSKEYS>
AAADcfB7vAAAAAAAAAAAAAAAAAAAASAAAAA0SIAAAAAAAAAAAAAAHgAQCAAACDzxgAcCCALABgAIAAEQEAAAAAAAAAAAAIAIAAATEAIAwAAnQAAHFgCXAAHwcA8AAAAAAAAAAAAAgAAUCACgAAAAAAAAAA==

> <PUBCHEM_IUPAC_OPENEYE_NAME>
N-[5-amino-2-[3-amino-6-(aminomethyl)-4,5-dihydroxy-tetrahydropyran-2-yl]oxy-3-[(2S,3R,4S,5R)-4-[3-amino-6-(aminomethyl)-4,5-dihydroxy-tetrahydropyran-2-yl]oxy-3-hydroxy-5-(hydroxymethyl)tetrahydrofuran-2-yl]oxy-4-hydroxy-cyclohexyl]acetamide

> <PUBCHEM_IUPAC_CAS_NAME>
N-[5-amino-2-[[3-amino-6-(aminomethyl)-4,5-dihydroxy-2-oxanyl]oxy]-3-[[(2S,3R,4S,5R)-4-[[3-amino-6-(aminomethyl)-4,5-dihydroxy-2-oxanyl]oxy]-3-hydroxy-5-(hydroxymethyl)-2-oxolanyl]oxy]-4-hydroxycyclohexyl]acetamide

> <PUBCHEM_IUPAC_NAME>
N-[5-amino-2-[3-amino-6-(aminomethyl)-4,5-dihydroxyoxan-2-yl]oxy-3-[(2S,3R,4S,5R)-4-[3-amino-6-(aminomethyl)-4,5-dihydroxyoxan-2-yl]oxy-3-hydroxy-5-(hydroxymethyl)oxolan-2-yl]oxy-4-hydroxycyclohexyl]acetamide

> <PUBCHEM_IUPAC_SYSTEMATIC_NAME>
N-[2-[6-(aminomethyl)-3-azanyl-4,5-bis(oxidanyl)oxan-2-yl]oxy-3-[(2S,3R,4S,5R)-4-[6-(aminomethyl)-3-azanyl-4,5-bis(oxidanyl)oxan-2-yl]oxy-5-(hydroxymethyl)-3-oxidanyl-oxolan-2-yl]oxy-5-azanyl-4-oxidanyl-cyclohexyl]ethanamide

> <PUBCHEM_IUPAC_TRADITIONAL_NAME>
N-[5-amino-2-[3-amino-6-(aminomethyl)-4,5-dihydroxy-tetrahydropyran-2-yl]oxy-3-[(2S,3R,4S,5R)-4-[3-amino-6-(aminomethyl)-4,5-dihydroxy-tetrahydropyran-2-yl]oxy-3-hydroxy-5-methylol-tetrahydrofuran-2-yl]oxy-4-hydroxy-cyclohexyl]acetamide

> <PUBCHEM_IUPAC_INCHI>
InChI=1S/C25H48N6O14/c1-6(33)31-8-2-7(28)14(34)22(20(8)43-23-12(29)17(37)15(35)9(3-26)40-23)45-25-19(39)21(11(5-32)42-25)44-24-13(30)18(38)16(36)10(4-27)41-24/h7-25,32,34-39H,2-5,26-30H2,1H3,(H,31,33)/t7?,8?,9?,10?,11-,12?,13?,14?,15?,16?,17?,18?,19-,20?,21-,22?,23?,24?,25+/m1/s1

> <PUBCHEM_IUPAC_INCHIKEY>
GDIGCFFRSPUIEB-ASFNGMDNSA-N

> <PUBCHEM_XLOGP3_AA>
-8.7

> <PUBCHEM_EXACT_MASS>
656.32285

> <PUBCHEM_MOLECULAR_FORMULA>
C25H48N6O14

> <PUBCHEM_MOLECULAR_WEIGHT>
656.68042

> <PUBCHEM_OPENEYE_CAN_SMILES>
CC(=O)NC1CC(C(C(C1OC2C(C(C(C(O2)CN)O)O)N)OC3C(C(C(O3)CO)OC4C(C(C(C(O4)CN)O)O)N)O)O)N

> <PUBCHEM_OPENEYE_ISO_SMILES>
CC(=O)NC1CC(C(C(C1OC2C(C(C(C(O2)CN)O)O)N)O[C@H]3[C@@H]([C@@H]([C@H](O3)CO)OC4C(C(C(C(O4)CN)O)O)N)O)O)N

> <PUBCHEM_CACTVS_TPSA>
356

> <PUBCHEM_MONOISOTOPIC_WEIGHT>
656.32285

> <PUBCHEM_TOTAL_CHARGE>
0

> <PUBCHEM_HEAVY_ATOM_COUNT>
45

> <PUBCHEM_ATOM_DEF_STEREO_COUNT>
4

> <PUBCHEM_ATOM_UDEF_STEREO_COUNT>
15

> <PUBCHEM_BOND_DEF_STEREO_COUNT>
0

> <PUBCHEM_BOND_UDEF_STEREO_COUNT>
0

> <PUBCHEM_ISOTOPIC_ATOM_COUNT>
0

> <PUBCHEM_COMPONENT_COUNT>
1

> <PUBCHEM_CACTVS_TAUTO_COUNT>
2

> <PUBCHEM_COORDINATE_TYPE>
1
5
255

> <PUBCHEM_BONDANNOTATIONS>
27  1  6
21  46  3
22  47  3
23  48  3
24  49  3
25  50  3
30  39  6
31  57  3
32  58  3
33  60  3
34  63  3
35  64  3
36  65  3
37  66  3
38  68  3
40  71  3
41  72  3
28  5  5
29  7  5

$$$$

