439926
  -OEChem-07051212482D

 75 77  0     1  0  0  0  0  0999 V2000
    8.0622    1.8455    0.0000 O   0  0  0  0  0  0  0  0  0  0  0  0
    6.3301   -1.1545    0.0000 O   0  0  0  0  0  0  0  0  0  0  0  0
    6.3301    0.8455    0.0000 O   0  0  0  0  0  0  0  0  0  0  0  0
    6.3301    1.8455    0.0000 O   0  0  0  0  0  0  0  0  0  0  0  0
    6.3301   -2.8865    0.0000 O   0  0  0  0  0  0  0  0  0  0  0  0
    4.3301   -1.1544    0.0000 O   0  0  0  0  0  0  0  0  0  0  0  0
    6.3301    4.8455    0.0000 O   0  0  0  0  0  0  0  0  0  0  0  0
    4.5981    3.8455    0.0000 O   0  0  0  0  0  0  0  0  0  0  0  0
    4.3302   -4.6186    0.0000 O   0  0  0  0  0  0  0  0  0  0  0  0
    7.3301   -4.6186    0.0000 O   0  0  0  0  0  0  0  0  0  0  0  0
    2.8660    0.8455    0.0000 O   0  0  0  0  0  0  0  0  0  0  0  0
    9.7942    0.8455    0.0000 N   0  0  0  0  0  0  0  0  0  0  0  0
    8.5623   -2.0205    0.0000 N   0  0  0  0  0  0  0  0  0  0  0  0
    8.0622    3.8455    0.0000 N   0  0  0  0  0  0  0  0  0  0  0  0
    3.3302   -2.8866    0.0000 N   0  0  0  0  0  0  0  0  0  0  0  0
    3.7320    2.3455    0.0000 N   0  0  0  0  0  0  0  0  0  0  0  0
    8.0622    0.8455    0.0000 C   0  0  1  0  0  0  0  0  0  0  0  0
    7.1962   -0.6545    0.0000 C   0  0  2  0  0  0  0  0  0  0  0  0
    7.1962    0.3455    0.0000 C   0  0  1  0  0  0  0  0  0  0  0  0
    8.9282    0.3455    0.0000 C   0  0  2  0  0  0  0  0  0  0  0  0
    8.0622   -1.1545    0.0000 C   0  0  1  0  0  0  0  0  0  0  0  0
    8.9282   -0.6545    0.0000 C   0  0  0  0  0  0  0  0  0  0  0  0
    7.1962    2.3455    0.0000 C   0  0  1  0  0  0  0  0  0  0  0  0
    5.8302   -2.0206    0.0000 C   0  0  1  0  0  0  0  0  0  0  0  0
    7.1962    3.3455    0.0000 C   0  0  1  0  0  0  0  0  0  0  0  0
    4.8302   -2.0205    0.0000 C   0  0  1  0  0  0  0  0  0  0  0  0
    6.3301    3.8455    0.0000 C   0  0  2  0  0  0  0  0  0  0  0  0
    4.3302   -2.8866    0.0000 C   0  0  2  0  0  0  0  0  0  0  0  0
    5.4641    3.3455    0.0000 C   0  0  1  0  0  0  0  0  0  0  0  0
    5.4641    2.3455    0.0000 C   0  0  1  0  0  0  0  0  0  0  0  0
    4.8302   -3.7526    0.0000 C   0  0  1  0  0  0  0  0  0  0  0  0
    5.8301   -3.7526    0.0000 C   0  0  1  0  0  0  0  0  0  0  0  0
    4.5981    1.8455    0.0000 C   0  0  0  0  0  0  0  0  0  0  0  0
    6.3301   -4.6186    0.0000 C   0  0  0  0  0  0  0  0  0  0  0  0
    2.8660    1.8455    0.0000 C   0  0  0  0  0  0  0  0  0  0  0  0
    2.0000    2.3455    0.0000 C   0  0  0  0  0  0  0  0  0  0  0  0
    7.5252    1.1555    0.0000 H   0  0  0  0  0  0  0  0  0  0  0  0
    6.6592   -0.3445    0.0000 H   0  0  0  0  0  0  0  0  0  0  0  0
    6.6592    0.0355    0.0000 H   0  0  0  0  0  0  0  0  0  0  0  0
    9.4651    0.0355    0.0000 H   0  0  0  0  0  0  0  0  0  0  0  0
    7.6238   -1.5929    0.0000 H   0  0  0  0  0  0  0  0  0  0  0  0
    9.1403   -1.2371    0.0000 H   0  0  0  0  0  0  0  0  0  0  0  0
    9.5388   -0.5468    0.0000 H   0  0  0  0  0  0  0  0  0  0  0  0
    7.1962    1.7255    0.0000 H   0  0  0  0  0  0  0  0  0  0  0  0
    5.5202   -1.4836    0.0000 H   0  0  0  0  0  0  0  0  0  0  0  0
    7.7331    3.0355    0.0000 H   0  0  0  0  0  0  0  0  0  0  0  0
    4.2101   -2.0205    0.0000 H   0  0  0  0  0  0  0  0  0  0  0  0
    6.8671    4.1555    0.0000 H   0  0  0  0  0  0  0  0  0  0  0  0
    4.0202   -3.4235    0.0000 H   0  0  0  0  0  0  0  0  0  0  0  0
    5.4641    3.9655    0.0000 H   0  0  0  0  0  0  0  0  0  0  0  0
    5.4641    1.7255    0.0000 H   0  0  0  0  0  0  0  0  0  0  0  0
    5.1402   -4.2895    0.0000 H   0  0  0  0  0  0  0  0  0  0  0  0
   10.3312    0.5355    0.0000 H   0  0  0  0  0  0  0  0  0  0  0  0
    9.7942    1.4655    0.0000 H   0  0  0  0  0  0  0  0  0  0  0  0
    9.1822   -2.0205    0.0000 H   0  0  0  0  0  0  0  0  0  0  0  0
    8.2522   -2.5574    0.0000 H   0  0  0  0  0  0  0  0  0  0  0  0
    6.4501   -3.7526    0.0000 H   0  0  0  0  0  0  0  0  0  0  0  0
    5.7932    0.5355    0.0000 H   0  0  0  0  0  0  0  0  0  0  0  0
    4.1996    1.3706    0.0000 H   0  0  0  0  0  0  0  0  0  0  0  0
    4.9966    1.3706    0.0000 H   0  0  0  0  0  0  0  0  0  0  0  0
    8.0622    4.4655    0.0000 H   0  0  0  0  0  0  0  0  0  0  0  0
    8.5991    3.5355    0.0000 H   0  0  0  0  0  0  0  0  0  0  0  0
    5.7475   -4.8306    0.0000 H   0  0  0  0  0  0  0  0  0  0  0  0
    6.4378   -5.2292    0.0000 H   0  0  0  0  0  0  0  0  0  0  0  0
    3.0202   -3.4235    0.0000 H   0  0  0  0  0  0  0  0  0  0  0  0
    3.0201   -2.3496    0.0000 H   0  0  0  0  0  0  0  0  0  0  0  0
    3.7101   -1.1544    0.0000 H   0  0  0  0  0  0  0  0  0  0  0  0
    5.7932    5.1555    0.0000 H   0  0  0  0  0  0  0  0  0  0  0  0
    4.5981    4.4655    0.0000 H   0  0  0  0  0  0  0  0  0  0  0  0
    4.6401   -5.1555    0.0000 H   0  0  0  0  0  0  0  0  0  0  0  0
    3.7320    2.9655    0.0000 H   0  0  0  0  0  0  0  0  0  0  0  0
    7.6401   -5.1555    0.0000 H   0  0  0  0  0  0  0  0  0  0  0  0
    2.3100    2.8824    0.0000 H   0  0  0  0  0  0  0  0  0  0  0  0
    1.4631    2.6555    0.0000 H   0  0  0  0  0  0  0  0  0  0  0  0
    1.6900    1.8086    0.0000 H   0  0  0  0  0  0  0  0  0  0  0  0
 17  1  1  6  0  0  0
 23  1  1  1  0  0  0
 18  2  1  6  0  0  0
 24  2  1  1  0  0  0
 19  3  1  1  0  0  0
  3 58  1  0  0  0  0
  4 23  1  0  0  0  0
  4 30  1  0  0  0  0
  5 24  1  0  0  0  0
  5 32  1  0  0  0  0
 26  6  1  1  0  0  0
  6 67  1  0  0  0  0
 27  7  1  6  0  0  0
  7 68  1  0  0  0  0
 29  8  1  1  0  0  0
  8 69  1  0  0  0  0
 31  9  1  1  0  0  0
  9 70  1  0  0  0  0
 10 34  1  0  0  0  0
 10 72  1  0  0  0  0
 11 35  2  0  0  0  0
 20 12  1  1  0  0  0
 12 53  1  0  0  0  0
 12 54  1  0  0  0  0
 21 13  1  1  0  0  0
 13 55  1  0  0  0  0
 13 56  1  0  0  0  0
 25 14  1  1  0  0  0
 14 61  1  0  0  0  0
 14 62  1  0  0  0  0
 28 15  1  6  0  0  0
 15 65  1  0  0  0  0
 15 66  1  0  0  0  0
 16 33  1  0  0  0  0
 16 35  1  0  0  0  0
 16 71  1  0  0  0  0
 17 19  1  0  0  0  0
 17 20  1  0  0  0  0
 17 37  1  0  0  0  0
 18 19  1  0  0  0  0
 18 21  1  0  0  0  0
 18 38  1  0  0  0  0
 19 39  1  0  0  0  0
 20 22  1  0  0  0  0
 20 40  1  0  0  0  0
 21 22  1  0  0  0  0
 21 41  1  0  0  0  0
 22 42  1  0  0  0  0
 22 43  1  0  0  0  0
 23 25  1  0  0  0  0
 23 44  1  0  0  0  0
 24 26  1  0  0  0  0
 24 45  1  0  0  0  0
 25 27  1  0  0  0  0
 25 46  1  0  0  0  0
 26 28  1  0  0  0  0
 26 47  1  0  0  0  0
 27 29  1  0  0  0  0
 27 48  1  0  0  0  0
 28 31  1  0  0  0  0
 28 49  1  0  0  0  0
 29 30  1  0  0  0  0
 29 50  1  0  0  0  0
 30 33  1  6  0  0  0
 30 51  1  0  0  0  0
 31 32  1  0  0  0  0
 31 52  1  0  0  0  0
 32 34  1  6  0  0  0
 32 57  1  0  0  0  0
 33 59  1  0  0  0  0
 33 60  1  0  0  0  0
 34 63  1  0  0  0  0
 34 64  1  0  0  0  0
 35 36  1  0  0  0  0
 36 73  1  0  0  0  0
 36 74  1  0  0  0  0
 36 75  1  0  0  0  0
M  END
> <PUBCHEM_COMPOUND_CID>
439926

> <PUBCHEM_COMPOUND_CANONICALIZED>
1

> <PUBCHEM_CACTVS_COMPLEXITY>
740

> <PUBCHEM_CACTVS_HBOND_ACCEPTOR>
15

> <PUBCHEM_CACTVS_HBOND_DONOR>
11

> <PUBCHEM_CACTVS_ROTATABLE_BOND>
7

> <PUBCHEM_CACTVS_SUBSKEYS>
AAADcfB7vAAAAAAAAAAAAAAAAAAAAAAAAAA0SIAAAAAAAAAAAAAAHgAQCAAACDzxgAcCCALABgAIAAEQEAAAAAAAAAAAAIAIAAATEAIAwAAnQAAHFgCXAAHwcA0AAAAAAAAAAAAAgAAUCACgAAAAAAAAAA==

> <PUBCHEM_IUPAC_OPENEYE_NAME>
N-[[(2R,3S,4R,5R,6R)-5-amino-6-[(1R,2S,3S,4R,6S)-4,6-diamino-3-[(2S,3R,4S,5S,6R)-4-amino-3,5-dihydroxy-6-(hydroxymethyl)tetrahydropyran-2-yl]oxy-2-hydroxy-cyclohexoxy]-3,4-dihydroxy-tetrahydropyran-2-yl]methyl]acetamide

> <PUBCHEM_IUPAC_CAS_NAME>
N-[[(2R,3S,4R,5R,6R)-5-amino-6-[(1R,2S,3S,4R,6S)-4,6-diamino-3-[[(2S,3R,4S,5S,6R)-4-amino-3,5-dihydroxy-6-(hydroxymethyl)-2-oxanyl]oxy]-2-hydroxycyclohexyl]oxy-3,4-dihydroxy-2-oxanyl]methyl]acetamide

> <PUBCHEM_IUPAC_NAME>
N-[[(2R,3S,4R,5R,6R)-5-amino-6-[(1R,2S,3S,4R,6S)-4,6-diamino-3-[(2S,3R,4S,5S,6R)-4-amino-3,5-dihydroxy-6-(hydroxymethyl)oxan-2-yl]oxy-2-hydroxycyclohexyl]oxy-3,4-dihydroxyoxan-2-yl]methyl]acetamide

> <PUBCHEM_IUPAC_SYSTEMATIC_NAME>
N-[[(2R,3S,4R,5R,6R)-5-azanyl-6-[(1R,2S,3S,4R,6S)-4,6-bis(azanyl)-3-[(2S,3R,4S,5S,6R)-4-azanyl-6-(hydroxymethyl)-3,5-bis(oxidanyl)oxan-2-yl]oxy-2-oxidanyl-cyclohexyl]oxy-3,4-bis(oxidanyl)oxan-2-yl]methyl]ethanamide

> <PUBCHEM_IUPAC_TRADITIONAL_NAME>
N-[[(2R,3S,4R,5R,6R)-5-amino-6-[(1R,2S,3S,4R,6S)-4,6-diamino-3-[(2S,3R,4S,5S,6R)-4-amino-3,5-dihydroxy-6-methylol-tetrahydropyran-2-yl]oxy-2-hydroxy-cyclohexoxy]-3,4-dihydroxy-tetrahydropyran-2-yl]methyl]acetamide

> <PUBCHEM_IUPAC_INCHI>
InChI=1S/C20H39N5O11/c1-5(27)25-3-8-13(29)14(30)11(24)19(33-8)35-17-6(21)2-7(22)18(16(17)32)36-20-15(31)10(23)12(28)9(4-26)34-20/h6-20,26,28-32H,2-4,21-24H2,1H3,(H,25,27)/t6-,7+,8+,9+,10-,11+,12+,13+,14+,15+,16-,17+,18-,19+,20+/m0/s1

> <PUBCHEM_IUPAC_INCHIKEY>
JVNRAWAXQAGKBK-HLIGCJFYSA-N

> <PUBCHEM_XLOGP3_AA>
-6.9

> <PUBCHEM_EXACT_MASS>
525.264607

> <PUBCHEM_MOLECULAR_FORMULA>
C20H39N5O11

> <PUBCHEM_MOLECULAR_WEIGHT>
525.55056

> <PUBCHEM_OPENEYE_CAN_SMILES>
CC(=O)NCC1C(C(C(C(O1)OC2C(CC(C(C2O)OC3C(C(C(C(O3)CO)O)N)O)N)N)N)O)O

> <PUBCHEM_OPENEYE_ISO_SMILES>
CC(=O)NC[C@@H]1[C@H]([C@@H]([C@H]([C@H](O1)O[C@@H]2[C@H](C[C@H]([C@@H]([C@H]2O)O[C@@H]3[C@@H]([C@H]([C@@H]([C@H](O3)CO)O)N)O)N)N)N)O)O

> <PUBCHEM_CACTVS_TPSA>
292

> <PUBCHEM_MONOISOTOPIC_WEIGHT>
525.264607

> <PUBCHEM_TOTAL_CHARGE>
0

> <PUBCHEM_HEAVY_ATOM_COUNT>
36

> <PUBCHEM_ATOM_DEF_STEREO_COUNT>
15

> <PUBCHEM_ATOM_UDEF_STEREO_COUNT>
0

> <PUBCHEM_BOND_DEF_STEREO_COUNT>
0

> <PUBCHEM_BOND_UDEF_STEREO_COUNT>
0

> <PUBCHEM_ISOTOPIC_ATOM_COUNT>
0

> <PUBCHEM_COMPONENT_COUNT>
1

> <PUBCHEM_CACTVS_TAUTO_COUNT>
2

> <PUBCHEM_COORDINATE_TYPE>
1
5
255

> <PUBCHEM_BONDANNOTATIONS>
17  1  6
23  1  5
20  12  5
21  13  5
25  14  5
28  15  6
18  2  6
24  2  5
19  3  5
30  33  6
32  34  6
26  6  5
27  7  6
29  8  5
31  9  5

$$$$

