9422
  -OEChem-06261203412D

 33 36  0     0  0  0  0  0  0999 V2000
    4.6362   -0.1863    0.0000 C   0  0  0  0  0  0  0  0  0  0  0  0
    3.7702    0.3137    0.0000 C   0  0  0  0  0  0  0  0  0  0  0  0
    4.6523   -1.2278    0.0000 C   0  0  0  0  0  0  0  0  0  0  0  0
    2.8602   -0.1931    0.0000 C   0  0  0  0  0  0  0  0  0  0  0  0
    3.7542   -1.7555    0.0000 C   0  0  0  0  0  0  0  0  0  0  0  0
    5.5022    0.3137    0.0000 C   0  0  0  0  0  0  0  0  0  0  0  0
    5.5022    1.3137    0.0000 C   0  0  0  0  0  0  0  0  0  0  0  0
    4.6362    1.8137    0.0000 C   0  0  0  0  0  0  0  0  0  0  0  0
    3.7702    1.3137    0.0000 C   0  0  0  0  0  0  0  0  0  0  0  0
    2.8522   -1.2347    0.0000 C   0  0  0  0  0  0  0  0  0  0  0  0
    5.6042   -1.7484    0.0000 C   0  0  0  0  0  0  0  0  0  0  0  0
    2.0000    0.3169    0.0000 C   0  0  0  0  0  0  0  0  0  0  0  0
    3.7459   -2.8405    0.0000 C   0  0  0  0  0  0  0  0  0  0  0  0
    6.4122    1.8206    0.0000 C   0  0  0  0  0  0  0  0  0  0  0  0
    4.6202    2.8552    0.0000 C   0  0  0  0  0  0  0  0  0  0  0  0
    5.6209   -2.8333    0.0000 C   0  0  0  0  0  0  0  0  0  0  0  0
    4.6855   -3.3830    0.0000 C   0  0  0  0  0  0  0  0  0  0  0  0
    6.4203    2.8622    0.0000 C   0  0  0  0  0  0  0  0  0  0  0  0
    5.5182    3.3830    0.0000 C   0  0  0  0  0  0  0  0  0  0  0  0
    6.0392    0.0037    0.0000 H   0  0  0  0  0  0  0  0  0  0  0  0
    3.2332    1.6237    0.0000 H   0  0  0  0  0  0  0  0  0  0  0  0
    2.3140   -1.5426    0.0000 H   0  0  0  0  0  0  0  0  0  0  0  0
    6.1351   -1.4281    0.0000 H   0  0  0  0  0  0  0  0  0  0  0  0
    2.3162    0.8502    0.0000 H   0  0  0  0  0  0  0  0  0  0  0  0
    1.4667    0.6331    0.0000 H   0  0  0  0  0  0  0  0  0  0  0  0
    1.6838   -0.2164    0.0000 H   0  0  0  0  0  0  0  0  0  0  0  0
    3.2077   -3.1484    0.0000 H   0  0  0  0  0  0  0  0  0  0  0  0
    6.9456    1.5044    0.0000 H   0  0  0  0  0  0  0  0  0  0  0  0
    4.0797    3.1590    0.0000 H   0  0  0  0  0  0  0  0  0  0  0  0
    6.1614   -3.1370    0.0000 H   0  0  0  0  0  0  0  0  0  0  0  0
    4.6879   -4.0030    0.0000 H   0  0  0  0  0  0  0  0  0  0  0  0
    6.9584    3.1701    0.0000 H   0  0  0  0  0  0  0  0  0  0  0  0
    5.5158    4.0030    0.0000 H   0  0  0  0  0  0  0  0  0  0  0  0
  1  2  1  0  0  0  0
  1  3  1  0  0  0  0
  1  6  2  0  0  0  0
  2  4  1  0  0  0  0
  2  9  2  0  0  0  0
  3  5  1  0  0  0  0
  3 11  2  0  0  0  0
  4 10  2  0  0  0  0
  4 12  1  0  0  0  0
  5 10  1  0  0  0  0
  5 13  2  0  0  0  0
  6  7  1  0  0  0  0
  6 20  1  0  0  0  0
  7  8  1  0  0  0  0
  7 14  2  0  0  0  0
  8  9  1  0  0  0  0
  8 15  2  0  0  0  0
  9 21  1  0  0  0  0
 10 22  1  0  0  0  0
 11 16  1  0  0  0  0
 11 23  1  0  0  0  0
 12 24  1  0  0  0  0
 12 25  1  0  0  0  0
 12 26  1  0  0  0  0
 13 17  1  0  0  0  0
 13 27  1  0  0  0  0
 14 18  1  0  0  0  0
 14 28  1  0  0  0  0
 15 19  1  0  0  0  0
 15 29  1  0  0  0  0
 16 17  2  0  0  0  0
 16 30  1  0  0  0  0
 17 31  1  0  0  0  0
 18 19  2  0  0  0  0
 18 32  1  0  0  0  0
 19 33  1  0  0  0  0
M  END
> <PUBCHEM_COMPOUND_CID>
9422

> <PUBCHEM_COMPOUND_CANONICALIZED>
1

> <PUBCHEM_CACTVS_COMPLEXITY>
320

> <PUBCHEM_CACTVS_HBOND_ACCEPTOR>
0

> <PUBCHEM_CACTVS_HBOND_DONOR>
0

> <PUBCHEM_CACTVS_ROTATABLE_BOND>
0

> <PUBCHEM_CACTVS_SUBSKEYS>
AAADccB4AAAAAAAAAAAAAAAAAAAAAAAAAAAwYMGAAAAAAADBVAAAGAAAAAAADACAGAAyAMAAAACAAiBCAAACAAAgAAAIiAAAAIgIICKAERCAIAAggAAIiAcAgMAOwAACAAAQAACAAAQAACAAAAAAAAAAAA==

> <PUBCHEM_IUPAC_OPENEYE_NAME>
6-methylbenzo[a]anthracene

> <PUBCHEM_IUPAC_CAS_NAME>
6-methylbenzo[a]anthracene

> <PUBCHEM_IUPAC_NAME>
6-methylbenzo[a]anthracene

> <PUBCHEM_IUPAC_SYSTEMATIC_NAME>
6-methylbenzo[a]anthracene

> <PUBCHEM_IUPAC_TRADITIONAL_NAME>
6-methylbenz[a]anthracene

> <PUBCHEM_IUPAC_INCHI>
InChI=1S/C19H14/c1-13-10-16-8-4-5-9-17(16)19-12-15-7-3-2-6-14(15)11-18(13)19/h2-12H,1H3

> <PUBCHEM_IUPAC_INCHIKEY>
WOIBRJNTTODOPT-UHFFFAOYSA-N

> <PUBCHEM_XLOGP3_AA>
5.8

> <PUBCHEM_EXACT_MASS>
242.10955

> <PUBCHEM_MOLECULAR_FORMULA>
C19H14

> <PUBCHEM_MOLECULAR_WEIGHT>
242.31446

> <PUBCHEM_OPENEYE_CAN_SMILES>
CC1=CC2=CC=CC=C2C3=CC4=CC=CC=C4C=C13

> <PUBCHEM_OPENEYE_ISO_SMILES>
CC1=CC2=CC=CC=C2C3=CC4=CC=CC=C4C=C13

> <PUBCHEM_CACTVS_TPSA>
0

> <PUBCHEM_MONOISOTOPIC_WEIGHT>
242.10955

> <PUBCHEM_TOTAL_CHARGE>
0

> <PUBCHEM_HEAVY_ATOM_COUNT>
19

> <PUBCHEM_ATOM_DEF_STEREO_COUNT>
0

> <PUBCHEM_ATOM_UDEF_STEREO_COUNT>
0

> <PUBCHEM_BOND_DEF_STEREO_COUNT>
0

> <PUBCHEM_BOND_UDEF_STEREO_COUNT>
0

> <PUBCHEM_ISOTOPIC_ATOM_COUNT>
0

> <PUBCHEM_COMPONENT_COUNT>
1

> <PUBCHEM_CACTVS_TAUTO_COUNT>
1

> <PUBCHEM_COORDINATE_TYPE>
1
5
255

> <PUBCHEM_BONDANNOTATIONS>
1  2  8
1  3  8
1  6  8
11  16  8
13  17  8
14  18  8
15  19  8
16  17  8
18  19  8
2  4  8
2  9  8
3  11  8
3  5  8
4  10  8
5  10  8
5  13  8
6  7  8
7  14  8
7  8  8
8  15  8
8  9  8

$$$$

