11038
  -OEChem-06261205152D

 27 28  0     1  0  0  0  0  0999 V2000
    2.0000   -1.2000    0.0000 O   0  0  0  0  0  0  0  0  0  0  0  0
    7.1467   -0.1048    0.0000 C   0  0  0  0  0  0  0  0  0  0  0  0
    5.3147    0.1364    0.0000 C   0  0  3  0  0  0  0  0  0  0  0  0
    5.5736    1.1023    0.0000 C   0  0  3  0  0  0  0  0  0  0  0  0
    4.8369    2.0849    0.0000 C   0  0  0  0  0  0  0  0  0  0  0  0
    3.7796   -1.1068    0.0000 C   0  0  3  0  0  0  0  0  0  0  0  0
    2.9705    0.2945    0.0000 C   0  0  0  0  0  0  0  0  0  0  0  0
    2.8660   -0.7000    0.0000 C   0  0  0  0  0  0  0  0  0  0  0  0
    7.6467   -0.9708    0.0000 C   0  0  0  0  0  0  0  0  0  0  0  0
    8.0127    0.3952    0.0000 C   0  0  0  0  0  0  0  0  0  0  0  0
    3.9875   -2.0849    0.0000 C   0  0  0  0  0  0  0  0  0  0  0  0
    5.5454   -0.6817    0.0000 H   0  0  0  0  0  0  0  0  0  0  0  0
    6.1780    1.7000    0.0000 H   0  0  0  0  0  0  0  0  0  0  0  0
    5.1547    2.6173    0.0000 H   0  0  0  0  0  0  0  0  0  0  0  0
    4.2238    2.1769    0.0000 H   0  0  0  0  0  0  0  0  0  0  0  0
    3.1190   -1.6417    0.0000 H   0  0  0  0  0  0  0  0  0  0  0  0
    2.8683    0.9060    0.0000 H   0  0  0  0  0  0  0  0  0  0  0  0
    2.3508    0.2756    0.0000 H   0  0  0  0  0  0  0  0  0  0  0  0
    7.1097   -1.2808    0.0000 H   0  0  0  0  0  0  0  0  0  0  0  0
    7.9567   -1.5078    0.0000 H   0  0  0  0  0  0  0  0  0  0  0  0
    8.1836   -0.6608    0.0000 H   0  0  0  0  0  0  0  0  0  0  0  0
    8.3227   -0.1417    0.0000 H   0  0  0  0  0  0  0  0  0  0  0  0
    8.5496    0.7052    0.0000 H   0  0  0  0  0  0  0  0  0  0  0  0
    7.7027    0.9321    0.0000 H   0  0  0  0  0  0  0  0  0  0  0  0
    3.3810   -2.2138    0.0000 H   0  0  0  0  0  0  0  0  0  0  0  0
    4.1164   -2.6914    0.0000 H   0  0  0  0  0  0  0  0  0  0  0  0
    4.5939   -1.9560    0.0000 H   0  0  0  0  0  0  0  0  0  0  0  0
  1  8  2  0  0  0  0
  2  3  1  0  0  0  0
  2  4  1  0  0  0  0
  2  9  1  0  0  0  0
  2 10  1  0  0  0  0
  3  5  1  0  0  0  0
  3  6  1  0  0  0  0
  3 12  1  0  0  0  0
  4  5  1  0  0  0  0
  4  7  1  0  0  0  0
  4 13  1  0  0  0  0
  5 14  1  0  0  0  0
  5 15  1  0  0  0  0
  6  8  1  0  0  0  0
  6 11  1  0  0  0  0
  6 16  1  0  0  0  0
  7  8  1  0  0  0  0
  7 17  1  0  0  0  0
  7 18  1  0  0  0  0
  9 19  1  0  0  0  0
  9 20  1  0  0  0  0
  9 21  1  0  0  0  0
 10 22  1  0  0  0  0
 10 23  1  0  0  0  0
 10 24  1  0  0  0  0
 11 25  1  0  0  0  0
 11 26  1  0  0  0  0
 11 27  1  0  0  0  0
M  END
> <PUBCHEM_COMPOUND_CID>
11038

> <PUBCHEM_COMPOUND_CANONICALIZED>
1

> <PUBCHEM_CACTVS_COMPLEXITY>
205

> <PUBCHEM_CACTVS_HBOND_ACCEPTOR>
1

> <PUBCHEM_CACTVS_HBOND_DONOR>
0

> <PUBCHEM_CACTVS_ROTATABLE_BOND>
0

> <PUBCHEM_CACTVS_SUBSKEYS>
AAADceBwIAAAAAAAAAAAAAAAAABgAAAAAAAwYAAAAAAAAAAAAAAAGgAAAAAADwSAgAACAAAAAAAIAIAQAAAAAAAAAAAAAAEAAAAAABIAAAAAAAAAAAAAAAEIiMCPgAAAAAAAAACAAAQAACAAAAAAAAAAAA==

> <PUBCHEM_IUPAC_OPENEYE_NAME>
2,6,6-trimethylnorpinan-3-one

> <PUBCHEM_IUPAC_CAS_NAME>
4,6,6-trimethyl-3-bicyclo[3.1.1]heptanone

> <PUBCHEM_IUPAC_NAME>
4,6,6-trimethylbicyclo[3.1.1]heptan-3-one

> <PUBCHEM_IUPAC_SYSTEMATIC_NAME>
4,6,6-trimethylbicyclo[3.1.1]heptan-3-one

> <PUBCHEM_IUPAC_TRADITIONAL_NAME>
2,6,6-trimethylnorpinan-3-one

> <PUBCHEM_IUPAC_INCHI>
InChI=1S/C10H16O/c1-6-8-4-7(5-9(6)11)10(8,2)3/h6-8H,4-5H2,1-3H3

> <PUBCHEM_IUPAC_INCHIKEY>
MQPHVIPKLRXGDJ-UHFFFAOYSA-N

> <PUBCHEM_XLOGP3_AA>
2.3

> <PUBCHEM_EXACT_MASS>
152.120115

> <PUBCHEM_MOLECULAR_FORMULA>
C10H16O

> <PUBCHEM_MOLECULAR_WEIGHT>
152.23344

> <PUBCHEM_OPENEYE_CAN_SMILES>
CC1C2CC(C2(C)C)CC1=O

> <PUBCHEM_OPENEYE_ISO_SMILES>
CC1C2CC(C2(C)C)CC1=O

> <PUBCHEM_CACTVS_TPSA>
17.1

> <PUBCHEM_MONOISOTOPIC_WEIGHT>
152.120115

> <PUBCHEM_TOTAL_CHARGE>
0

> <PUBCHEM_HEAVY_ATOM_COUNT>
11

> <PUBCHEM_ATOM_DEF_STEREO_COUNT>
0

> <PUBCHEM_ATOM_UDEF_STEREO_COUNT>
3

> <PUBCHEM_BOND_DEF_STEREO_COUNT>
0

> <PUBCHEM_BOND_UDEF_STEREO_COUNT>
0

> <PUBCHEM_ISOTOPIC_ATOM_COUNT>
0

> <PUBCHEM_COMPONENT_COUNT>
1

> <PUBCHEM_CACTVS_TAUTO_COUNT>
3

> <PUBCHEM_COORDINATE_TYPE>
1
5
255

> <PUBCHEM_BONDANNOTATIONS>
3  12  3
4  13  3
6  16  3

$$$$

