5281206
  -OEChem-07051212552D

 46 47  0     1  0  0  0  0  0999 V2000
    8.9282    3.0950    0.0000 O   0  0  0  0  0  0  0  0  0  0  0  0
    7.1962   -0.9050    0.0000 O   0  0  0  0  0  0  0  0  0  0  0  0
    2.8660   -5.4050    0.0000 O   0  0  0  0  0  0  0  0  0  0  0  0
    8.0622    0.5950    0.0000 O   0  0  0  0  0  0  0  0  0  0  0  0
    2.0000   -3.9050    0.0000 O   0  0  0  0  0  0  0  0  0  0  0  0
    6.3301   -5.4050    0.0000 O   0  0  0  0  0  0  0  0  0  0  0  0
    9.7942    1.5950    0.0000 O   0  0  0  0  0  0  0  0  0  0  0  0
    7.1962   -3.9050    0.0000 O   0  0  0  0  0  0  0  0  0  0  0  0
    8.9282    5.0950    0.0000 O   0  0  0  0  0  0  0  0  0  0  0  0
    7.1962    5.0950    0.0000 O   0  0  0  0  0  0  0  0  0  0  0  0
    5.4641    0.0950    0.0000 N   0  0  0  0  0  0  0  0  0  0  0  0
    4.5981   -4.4050    0.0000 N   0  0  0  0  0  0  0  0  0  0  0  0
    6.3301    0.5950    0.0000 C   0  0  1  0  0  0  0  0  0  0  0  0
    3.7320   -2.9050    0.0000 C   0  0  0  0  0  0  0  0  0  0  0  0
    6.3301    1.5950    0.0000 C   0  0  0  0  0  0  0  0  0  0  0  0
    3.7320   -3.9050    0.0000 C   0  0  1  0  0  0  0  0  0  0  0  0
    4.5981   -2.4050    0.0000 C   0  0  0  0  0  0  0  0  0  0  0  0
    7.1962    2.0950    0.0000 C   0  0  0  0  0  0  0  0  0  0  0  0
    4.5981   -1.4050    0.0000 C   0  0  0  0  0  0  0  0  0  0  0  0
    5.4641   -2.9050    0.0000 C   0  0  0  0  0  0  0  0  0  0  0  0
    5.4641   -0.9050    0.0000 C   0  0  0  0  0  0  0  0  0  0  0  0
    5.4641   -3.9050    0.0000 C   0  0  0  0  0  0  0  0  0  0  0  0
    7.1962    0.0950    0.0000 C   0  0  0  0  0  0  0  0  0  0  0  0
    2.8660   -4.4050    0.0000 C   0  0  0  0  0  0  0  0  0  0  0  0
    7.1962    3.0950    0.0000 C   0  0  0  0  0  0  0  0  0  0  0  0
    8.0622    1.5950    0.0000 C   0  0  0  0  0  0  0  0  0  0  0  0
    8.0622    3.5950    0.0000 C   0  0  0  0  0  0  0  0  0  0  0  0
    8.9282    2.0950    0.0000 C   0  0  0  0  0  0  0  0  0  0  0  0
    6.3301   -4.4050    0.0000 C   0  0  0  0  0  0  0  0  0  0  0  0
    8.0622    4.5950    0.0000 C   0  0  0  0  0  0  0  0  0  0  0  0
    5.7932    0.9050    0.0000 H   0  0  0  0  0  0  0  0  0  0  0  0
    3.5200   -2.3224    0.0000 H   0  0  0  0  0  0  0  0  0  0  0  0
    3.1215   -3.0127    0.0000 H   0  0  0  0  0  0  0  0  0  0  0  0
    6.1181    2.1776    0.0000 H   0  0  0  0  0  0  0  0  0  0  0  0
    5.7196    1.4873    0.0000 H   0  0  0  0  0  0  0  0  0  0  0  0
    3.7320   -4.5250    0.0000 H   0  0  0  0  0  0  0  0  0  0  0  0
    4.9272    0.4050    0.0000 H   0  0  0  0  0  0  0  0  0  0  0  0
    4.0611   -1.0950    0.0000 H   0  0  0  0  0  0  0  0  0  0  0  0
    6.0010   -2.5950    0.0000 H   0  0  0  0  0  0  0  0  0  0  0  0
    6.0010   -1.2150    0.0000 H   0  0  0  0  0  0  0  0  0  0  0  0
    6.6592    3.4050    0.0000 H   0  0  0  0  0  0  0  0  0  0  0  0
    8.0622    0.9750    0.0000 H   0  0  0  0  0  0  0  0  0  0  0  0
    7.7331   -1.2150    0.0000 H   0  0  0  0  0  0  0  0  0  0  0  0
    2.3291   -5.7150    0.0000 H   0  0  0  0  0  0  0  0  0  0  0  0
    6.8671   -5.7150    0.0000 H   0  0  0  0  0  0  0  0  0  0  0  0
    8.9282    5.7150    0.0000 H   0  0  0  0  0  0  0  0  0  0  0  0
  1 27  1  0  0  0  0
  1 28  1  0  0  0  0
  2 23  1  0  0  0  0
  2 43  1  0  0  0  0
  3 24  1  0  0  0  0
  3 44  1  0  0  0  0
  4 23  2  0  0  0  0
  5 24  2  0  0  0  0
  6 29  1  0  0  0  0
  6 45  1  0  0  0  0
  7 28  2  0  0  0  0
  8 29  2  0  0  0  0
  9 30  1  0  0  0  0
  9 46  1  0  0  0  0
 10 30  2  0  0  0  0
 13 11  1  1  0  0  0
 11 21  1  0  0  0  0
 11 37  1  0  0  0  0
 12 16  1  0  0  0  0
 12 22  2  0  0  0  0
 13 15  1  0  0  0  0
 13 23  1  0  0  0  0
 13 31  1  0  0  0  0
 14 16  1  0  0  0  0
 14 17  1  0  0  0  0
 14 32  1  0  0  0  0
 14 33  1  0  0  0  0
 15 18  1  0  0  0  0
 15 34  1  0  0  0  0
 15 35  1  0  0  0  0
 16 24  1  6  0  0  0
 16 36  1  0  0  0  0
 17 19  1  0  0  0  0
 17 20  2  0  0  0  0
 18 25  1  0  0  0  0
 18 26  2  0  0  0  0
 19 21  2  0  0  0  0
 19 38  1  0  0  0  0
 20 22  1  0  0  0  0
 20 39  1  0  0  0  0
 21 40  1  0  0  0  0
 22 29  1  0  0  0  0
 25 27  2  0  0  0  0
 25 41  1  0  0  0  0
 26 28  1  0  0  0  0
 26 42  1  0  0  0  0
 27 30  1  0  0  0  0
M  END
> <PUBCHEM_COMPOUND_CID>
5281206

> <PUBCHEM_COMPOUND_CANONICALIZED>
1

> <PUBCHEM_CACTVS_COMPLEXITY>
954

> <PUBCHEM_CACTVS_HBOND_ACCEPTOR>
12

> <PUBCHEM_CACTVS_HBOND_DONOR>
5

> <PUBCHEM_CACTVS_ROTATABLE_BOND>
9

> <PUBCHEM_CACTVS_SUBSKEYS>
AAADceB7PAAAAAAAAAAAAAAAAAAAAAAAAAAgQAAAAAAAAAAAAAAAHgAQCAAADCzBgAQACALABgCoAyD2TAYACAAgIgAICIHYAFgLBBIAoSQGUAAE0AAbsYKIAAAAAAAAAAAAAAAAAAAAAAAAAAAAAAAAAA==

> <PUBCHEM_IUPAC_OPENEYE_NAME>
(2S)-4-[(E)-2-[[(1S)-1-carboxy-2-(2-carboxy-6-oxo-pyran-4-yl)ethyl]amino]vinyl]-2,3-dihydropyridine-2,6-dicarboxylic acid

> <PUBCHEM_IUPAC_CAS_NAME>
(2S)-4-[(E)-2-[[(1S)-1-carboxy-2-(2-carboxy-6-oxo-4-pyranyl)ethyl]amino]ethenyl]-2,3-dihydropyridine-2,6-dicarboxylic acid

> <PUBCHEM_IUPAC_NAME>
(2S)-4-[(E)-2-[[(1S)-1-carboxy-2-(2-carboxy-6-oxopyran-4-yl)ethyl]amino]ethenyl]-2,3-dihydropyridine-2,6-dicarboxylic acid

> <PUBCHEM_IUPAC_SYSTEMATIC_NAME>
(2S)-4-[(E)-2-[[(2S)-3-(2-carboxy-6-oxidanylidene-pyran-4-yl)-1-oxidanyl-1-oxidanylidene-propan-2-yl]amino]ethenyl]-2,3-dihydropyridine-2,6-dicarboxylic acid

> <PUBCHEM_IUPAC_TRADITIONAL_NAME>
(2S)-4-[(E)-2-[[(1S)-1-carboxy-2-(2-carboxy-6-keto-pyran-4-yl)ethyl]amino]vinyl]-2,3-dihydropyridine-2,6-dicarboxylic acid

> <PUBCHEM_IUPAC_INCHI>
InChI=1S/C18H16N2O10/c21-14-7-9(6-13(30-14)18(28)29)5-10(15(22)23)19-2-1-8-3-11(16(24)25)20-12(4-8)17(26)27/h1-3,6-7,10,12,19H,4-5H2,(H,22,23)(H,24,25)(H,26,27)(H,28,29)/b2-1+/t10-,12-/m0/s1

> <PUBCHEM_IUPAC_INCHIKEY>
KZMUIISHHQUEPN-INISDOFMSA-N

> <PUBCHEM_XLOGP3_AA>
-0.4

> <PUBCHEM_EXACT_MASS>
420.080495

> <PUBCHEM_MOLECULAR_FORMULA>
C18H16N2O10

> <PUBCHEM_MOLECULAR_WEIGHT>
420.32704

> <PUBCHEM_OPENEYE_CAN_SMILES>
C1C(N=C(C=C1C=CNC(CC2=CC(=O)OC(=C2)C(=O)O)C(=O)O)C(=O)O)C(=O)O

> <PUBCHEM_OPENEYE_ISO_SMILES>
C1[C@H](N=C(C=C1/C=C/N[C@@H](CC2=CC(=O)OC(=C2)C(=O)O)C(=O)O)C(=O)O)C(=O)O

> <PUBCHEM_CACTVS_TPSA>
200

> <PUBCHEM_MONOISOTOPIC_WEIGHT>
420.080495

> <PUBCHEM_TOTAL_CHARGE>
0

> <PUBCHEM_HEAVY_ATOM_COUNT>
30

> <PUBCHEM_ATOM_DEF_STEREO_COUNT>
2

> <PUBCHEM_ATOM_UDEF_STEREO_COUNT>
0

> <PUBCHEM_BOND_DEF_STEREO_COUNT>
1

> <PUBCHEM_BOND_UDEF_STEREO_COUNT>
0

> <PUBCHEM_ISOTOPIC_ATOM_COUNT>
0

> <PUBCHEM_COMPONENT_COUNT>
1

> <PUBCHEM_CACTVS_TAUTO_COUNT>
3

> <PUBCHEM_COORDINATE_TYPE>
1
5
255

> <PUBCHEM_BONDANNOTATIONS>
1  27  8
1  28  8
13  11  5
16  24  6
18  25  8
18  26  8
25  27  8
26  28  8

$$$$

