146222
  -OEChem-07051213042D

 43 47  0     0  0  0  0  0  0999 V2000
    5.1294   -1.5962    0.0000 N   0  0  0  0  0  0  0  0  0  0  0  0
    4.5438    0.0808    0.0000 N   0  0  0  0  0  0  0  0  0  0  0  0
    6.5726   -2.9808    0.0000 N   0  0  0  0  0  0  0  0  0  0  0  0
    3.4295   -1.0805    0.0000 N   0  0  0  0  0  0  0  0  0  0  0  0
    2.9577   -0.2056    0.0000 N   0  0  0  0  0  0  0  0  0  0  0  0
    6.0897   -1.3174    0.0000 C   0  0  0  0  0  0  0  0  0  0  0  0
    4.8906   -2.5673    0.0000 C   0  0  0  0  0  0  0  0  0  0  0  0
    4.4078   -0.9039    0.0000 C   0  0  0  0  0  0  0  0  0  0  0  0
    5.6122   -3.2596    0.0000 C   0  0  0  0  0  0  0  0  0  0  0  0
    6.8113   -2.0097    0.0000 C   0  0  0  0  0  0  0  0  0  0  0  0
    5.4447    0.5147    0.0000 C   0  0  0  0  0  0  0  0  0  0  0  0
    3.6428    0.5147    0.0000 C   0  0  0  0  0  0  0  0  0  0  0  0
    5.6673    1.4897    0.0000 C   0  0  0  0  0  0  0  0  0  0  0  0
    5.0438    2.2715    0.0000 C   0  0  0  0  0  0  0  0  0  0  0  0
    3.4203    1.4897    0.0000 C   0  0  0  0  0  0  0  0  0  0  0  0
    4.0438    2.2715    0.0000 C   0  0  0  0  0  0  0  0  0  0  0  0
    6.1973   -0.2054    0.0000 C   0  0  0  0  0  0  0  0  0  0  0  0
    6.6578    1.8120    0.0000 C   0  0  0  0  0  0  0  0  0  0  0  0
    2.3880    1.6290    0.0000 C   0  0  0  0  0  0  0  0  0  0  0  0
    3.6782    3.2469    0.0000 C   0  0  0  0  0  0  0  0  0  0  0  0
    7.1950    0.0939    0.0000 C   0  0  0  0  0  0  0  0  0  0  0  0
    7.4268    1.1094    0.0000 C   0  0  0  0  0  0  0  0  0  0  0  0
    2.0000    2.5957    0.0000 C   0  0  0  0  0  0  0  0  0  0  0  0
    2.6494    3.4100    0.0000 C   0  0  0  0  0  0  0  0  0  0  0  0
    4.3234   -2.3169    0.0000 H   0  0  0  0  0  0  0  0  0  0  0  0
    4.5456   -3.0824    0.0000 H   0  0  0  0  0  0  0  0  0  0  0  0
    6.5901   -0.9514    0.0000 H   0  0  0  0  0  0  0  0  0  0  0  0
    5.8161   -0.7611    0.0000 H   0  0  0  0  0  0  0  0  0  0  0  0
    5.1118   -3.6256    0.0000 H   0  0  0  0  0  0  0  0  0  0  0  0
    5.8858   -3.8160    0.0000 H   0  0  0  0  0  0  0  0  0  0  0  0
    7.3786   -2.2601    0.0000 H   0  0  0  0  0  0  0  0  0  0  0  0
    7.1564   -1.4946    0.0000 H   0  0  0  0  0  0  0  0  0  0  0  0
    7.0200   -3.4100    0.0000 H   0  0  0  0  0  0  0  0  0  0  0  0
    5.6024    2.5405    0.0000 H   0  0  0  0  0  0  0  0  0  0  0  0
    4.9058    2.8760    0.0000 H   0  0  0  0  0  0  0  0  0  0  0  0
    6.0524   -0.8083    0.0000 H   0  0  0  0  0  0  0  0  0  0  0  0
    6.7887    2.4180    0.0000 H   0  0  0  0  0  0  0  0  0  0  0  0
    2.0071    1.1398    0.0000 H   0  0  0  0  0  0  0  0  0  0  0  0
    4.0704    3.7271    0.0000 H   0  0  0  0  0  0  0  0  0  0  0  0
    7.6478   -0.3296    0.0000 H   0  0  0  0  0  0  0  0  0  0  0  0
    8.0185    1.2945    0.0000 H   0  0  0  0  0  0  0  0  0  0  0  0
    1.3866    2.6857    0.0000 H   0  0  0  0  0  0  0  0  0  0  0  0
    2.4252    3.9881    0.0000 H   0  0  0  0  0  0  0  0  0  0  0  0
  1  6  1  0  0  0  0
  1  7  1  0  0  0  0
  1  8  1  0  0  0  0
  2  8  1  0  0  0  0
  2 11  1  0  0  0  0
  2 12  1  0  0  0  0
  3  9  1  0  0  0  0
  3 10  1  0  0  0  0
  3 33  1  0  0  0  0
  4  5  1  0  0  0  0
  4  8  2  0  0  0  0
  5 12  2  0  0  0  0
  6 10  1  0  0  0  0
  6 27  1  0  0  0  0
  6 28  1  0  0  0  0
  7  9  1  0  0  0  0
  7 25  1  0  0  0  0
  7 26  1  0  0  0  0
  9 29  1  0  0  0  0
  9 30  1  0  0  0  0
 10 31  1  0  0  0  0
 10 32  1  0  0  0  0
 11 13  1  0  0  0  0
 11 17  2  0  0  0  0
 12 15  1  0  0  0  0
 13 14  1  0  0  0  0
 13 18  2  0  0  0  0
 14 16  1  0  0  0  0
 14 34  1  0  0  0  0
 14 35  1  0  0  0  0
 15 16  1  0  0  0  0
 15 19  2  0  0  0  0
 16 20  2  0  0  0  0
 17 21  1  0  0  0  0
 17 36  1  0  0  0  0
 18 22  1  0  0  0  0
 18 37  1  0  0  0  0
 19 23  1  0  0  0  0
 19 38  1  0  0  0  0
 20 24  1  0  0  0  0
 20 39  1  0  0  0  0
 21 22  2  0  0  0  0
 21 40  1  0  0  0  0
 22 41  1  0  0  0  0
 23 24  2  0  0  0  0
 23 42  1  0  0  0  0
 24 43  1  0  0  0  0
M  END
> <PUBCHEM_COMPOUND_CID>
146222

> <PUBCHEM_COMPOUND_CANONICALIZED>
1

> <PUBCHEM_CACTVS_COMPLEXITY>
438

> <PUBCHEM_CACTVS_HBOND_ACCEPTOR>
4

> <PUBCHEM_CACTVS_HBOND_DONOR>
1

> <PUBCHEM_CACTVS_ROTATABLE_BOND>
1

> <PUBCHEM_CACTVS_SUBSKEYS>
AAADceB7gAAAAAAAAAAAAAAAAAAAAWAAAAA8YIAABYAAAACx0AAAHAAYAAAADAjBGwQx0IfMEACiAiZiZACSgCshAqAdiKAoZJiIaKLAmZGUIAhomALIyCcQgMAOgAAAAAASAAAAAAAAACQAAAAAAAAAAA==

> <PUBCHEM_IUPAC_INCHI>
InChI=1S/C19H19N5/c1-3-7-16-14(5-1)13-15-6-2-4-8-17(15)24-18(16)21-22-19(24)23-11-9-20-10-12-23/h1-8,20H,9-13H2

> <PUBCHEM_IUPAC_INCHIKEY>
GXFWOMYQHNODFA-UHFFFAOYSA-N

> <PUBCHEM_XLOGP3_AA>
2.5

> <PUBCHEM_EXACT_MASS>
317.164046

> <PUBCHEM_MOLECULAR_FORMULA>
C19H19N5

> <PUBCHEM_MOLECULAR_WEIGHT>
317.38766

> <PUBCHEM_OPENEYE_CAN_SMILES>
C1CN(CCN1)C2=NN=C3N2C4=CC=CC=C4CC5=CC=CC=C53

> <PUBCHEM_OPENEYE_ISO_SMILES>
C1CN(CCN1)C2=NN=C3N2C4=CC=CC=C4CC5=CC=CC=C53

> <PUBCHEM_CACTVS_TPSA>
46

> <PUBCHEM_MONOISOTOPIC_WEIGHT>
317.164046

> <PUBCHEM_TOTAL_CHARGE>
0

> <PUBCHEM_HEAVY_ATOM_COUNT>
24

> <PUBCHEM_ATOM_DEF_STEREO_COUNT>
0

> <PUBCHEM_ATOM_UDEF_STEREO_COUNT>
0

> <PUBCHEM_BOND_DEF_STEREO_COUNT>
0

> <PUBCHEM_BOND_UDEF_STEREO_COUNT>
0

> <PUBCHEM_ISOTOPIC_ATOM_COUNT>
0

> <PUBCHEM_COMPONENT_COUNT>
1

> <PUBCHEM_CACTVS_TAUTO_COUNT>
1

> <PUBCHEM_COORDINATE_TYPE>
1
5
255

> <PUBCHEM_BONDANNOTATIONS>
11  13  8
11  17  8
13  18  8
15  16  8
15  19  8
16  20  8
17  21  8
18  22  8
19  23  8
2  12  8
2  8  8
20  24  8
21  22  8
23  24  8
4  5  8
4  8  8
5  12  8

$$$$

