   Color/Form

     * Needles, monoclinic prisms or leaflets from water
     * Colorless crystals
     * WHITE CRYSTALLINE POWDER

   from [1]HSDB

   Odor
        Odorless
   from [2]HSDB

   Taste
        Fruit acid
   from [3]HSDB

   Boiling Point
        Sublimes at 200 deg C
   from [4]HSDB

   Melting Point
        287 deg C decomposes
   from [5]HSDB

   Density/Specific Gravity
        1.635 g/cu cm at 20 deg C
   from [6]HSDB

   Dissociation Constants

     * pKa1 = 3.03; pKa2 = 4.44 at 18 deg C
     * pKa1 = 3.03; pKa2 = 4.54 at 25 deg C

   from [7]HSDB

   Heat of Combustion
        -4,970 Btu/lb = 2,760 cal/g = -116X10+5 J/kg
   from [8]HSDB

   Octanol/Water Partition Coefficient
        log Kow = 0.46
   from [9]HSDB

   Solubilities

     * Soluble in ethanol, concentrated sulfuric acid; slightly soluble in
       ethyl ether, acetone
     * Soluble in alcohol 5.76 g/100 g at 30 deg C. Insoluble in
       chloroform and benzene
     * in 100 g 95% alcohol at 30 deg C: 5.76g; in 100 g acetone at 30 deg
       C: 1.72 g; in 100 g ether at 25 deg C: 0.72 g
     * Almost insoluble in olive oil, ... carbon tetrachloride, xylene,
       ... molten camphor, liquid ammonia.
     * In water, 7X10-3 mg/L at 25 deg C

   from [10]HSDB

   Spectral Properties

     * MAX ABSORPTION (WATER): 208 NM (LOG E= 4.20); SADTLER REFERENCE
       NUMBER: 472 (IR, PRISM); 127 (IR, GRATING)
     * IR: 1278 (Coblentz Society Spectral Collection)
     * UV: 165 (Sadtler Research Laboratories Spectral Collection)
     * 1H NMR: 4407 (Sadtler Research Laboratories Spectral Collection)
     * Raman: 12 (Sadtler Research Laboratories Spectral Collection)
     * MASS: 1989 (NIST/EPA/MSDC Mass Spectral Database, 1990 version)

   from [11]HSDB

   Vapor Pressure
        1.54X10-4 mm Hg at 25 deg C
   from [12]HSDB

   Other Chemical/Physical Properties

     * Sublimes at 200 deg C; sublimes at 165 deg C at 1.7 mm Hg
     * IT HAS AN EXTREMELY LOW RATE OF MOISTURE ABSORPTION; BULK DENSITY:
       32.6 LB/CU FT; STANDARD FREE ENERGY OF ANION FORMATION: -144.41 @
       25 DEG C; BUFFERING INDEX 3.46
     * Partial carbonization & formation of maleic anhydride occur at 230
       deg C (open vessel)
     * Trans isomer of 1,2-ethylenedicarboxylic acid
     * Prisms from alcohol, mp 144.5 deg C /Fumaric acid, monomethyl
       ester/
     * Crystals, mp 102 deg C, bp 192 deg C /Fumaric acid, dimethyl ester/
     * Henry's Law constant = 8.5X10-14 atm-cu m/mol at 25 deg C (est)
     * Hydroxyl radical reaction rate constant = 5.3X10-11 cu cm/molec-sec
       at 25 deg C (est)

   from [13]HSDB

   Computed Properties
   Molecular Weight                  116.07216 [g/mol]
   Molecular Formula                 C[4]H[4]O[4]
   XLogP3                            -0.3
   H-Bond Donor                      2
   H-Bond Acceptor                   4
   Rotatable Bond Count              2
   Exact Mass                        116.010959
   MonoIsotopic Mass                 116.010959
   Topological Polar Surface Area    74.6
   Heavy Atom Count                  8
   Formal Charge                     0
   Complexity                        119
   Isotope Atom Count                0
   Defined Atom Stereocenter Count   0
   Undefined Atom Stereocenter Count 0
   Defined Bond Stereocenter Count   1
   Undefined Bond Stereocenter Count 0
   Covalently-Bonded Unit Count      1
   Feature 3D Acceptor Count         4
   Feature 3D Anion Count            2
   Effective Rotor Count             2
   Conformer Sampling RMSD           0.4
   CID Conformer Count               [14]5

References

   1. http://toxnet.nlm.nih.gov/cgi-bin/sis/search/r?dbs+hsdb:@term+@rn+@rel+110-17-8
   2. http://toxnet.nlm.nih.gov/cgi-bin/sis/search/r?dbs+hsdb:@term+@rn+@rel+110-17-8
   3. http://toxnet.nlm.nih.gov/cgi-bin/sis/search/r?dbs+hsdb:@term+@rn+@rel+110-17-8
   4. http://toxnet.nlm.nih.gov/cgi-bin/sis/search/r?dbs+hsdb:@term+@rn+@rel+110-17-8
   5. http://toxnet.nlm.nih.gov/cgi-bin/sis/search/r?dbs+hsdb:@term+@rn+@rel+110-17-8
   6. http://toxnet.nlm.nih.gov/cgi-bin/sis/search/r?dbs+hsdb:@term+@rn+@rel+110-17-8
   7. http://toxnet.nlm.nih.gov/cgi-bin/sis/search/r?dbs+hsdb:@term+@rn+@rel+110-17-8
   8. http://toxnet.nlm.nih.gov/cgi-bin/sis/search/r?dbs+hsdb:@term+@rn+@rel+110-17-8
   9. http://toxnet.nlm.nih.gov/cgi-bin/sis/search/r?dbs+hsdb:@term+@rn+@rel+110-17-8
  10. http://toxnet.nlm.nih.gov/cgi-bin/sis/search/r?dbs+hsdb:@term+@rn+@rel+110-17-8
  11. http://toxnet.nlm.nih.gov/cgi-bin/sis/search/r?dbs+hsdb:@term+@rn+@rel+110-17-8
  12. http://toxnet.nlm.nih.gov/cgi-bin/sis/search/r?dbs+hsdb:@term+@rn+@rel+110-17-8
  13. http://toxnet.nlm.nih.gov/cgi-bin/sis/search/r?dbs+hsdb:@term+@rn+@rel+110-17-8
  14. http://pubchem.ncbi.nlm.nih.gov/vw3d/vw3d.cgi?cid=444972
