   Color/Form
        CRYSTALS FROM WATER
   from [1]HSDB

   Melting Point
        213-214 DEG C
   from [2]HSDB

   Dissociation Constants
        pKa = 7.30
   from [3]HSDB

   Octanol/Water Partition Coefficient
        log Kow = 0.13
   from [4]HSDB

   Spectral Properties

     * MAXIMUM ABSORPTION (95% ETHANOL): 254 NM (LOG E= 3.66); (0.1 N
       NAOH): 247 NM (LOG E= 3.61)
     * MAX ABSORPTION (ETHANOL): 289 NM (A= 555, 1%, 1 CM); MAX ABSORPTION
       (ETHANOL): 286 NM (A= 557, 1%, 1 CM)

   from [5]HSDB

   Computed Properties
   Molecular Weight                  236.27202 [g/mol]
   Molecular Formula                 C[5]H[8]N[4]O[3]S[2]
   XLogP3                            0.1
   H-Bond Donor                      1
   H-Bond Acceptor                   6
   Rotatable Bond Count              1
   Exact Mass                        236.003782
   MonoIsotopic Mass                 236.003782
   Topological Polar Surface Area    139
   Heavy Atom Count                  14
   Formal Charge                     0
   Complexity                        419
   Isotope Atom Count                0
   Defined Atom Stereocenter Count   0
   Undefined Atom Stereocenter Count 0
   Defined Bond Stereocenter Count   0
   Undefined Bond Stereocenter Count 0
   Covalently-Bonded Unit Count      1
   Feature 3D Acceptor Count         4
   Feature 3D Donor Count            2
   Feature 3D Ring Count             1
   Effective Rotor Count             2
   Conformer Sampling RMSD           0.6
   CID Conformer Count               [6]6

References

   1. http://toxnet.nlm.nih.gov/cgi-bin/sis/search/r?dbs+hsdb:@term+@rn+@rel+554-57-4
   2. http://toxnet.nlm.nih.gov/cgi-bin/sis/search/r?dbs+hsdb:@term+@rn+@rel+554-57-4
   3. http://toxnet.nlm.nih.gov/cgi-bin/sis/search/r?dbs+hsdb:@term+@rn+@rel+554-57-4
   4. http://toxnet.nlm.nih.gov/cgi-bin/sis/search/r?dbs+hsdb:@term+@rn+@rel+554-57-4
   5. http://toxnet.nlm.nih.gov/cgi-bin/sis/search/r?dbs+hsdb:@term+@rn+@rel+554-57-4
   6. http://pubchem.ncbi.nlm.nih.gov/vw3d/vw3d.cgi?cid=4100
