10004946
  -OEChem-07051213052D

 84 87  0     1  0  0  0  0  0999 V2000
    2.5357   -3.7639    0.0000 O   0  0  0  0  0  0  0  0  0  0  0  0
   10.4749    1.7004    0.0000 O   0  0  0  0  0  0  0  0  0  0  0  0
   10.8321    0.0056    0.0000 O   0  0  0  0  0  0  0  0  0  0  0  0
    7.9288   -0.7115    0.0000 C   0  0  1  0  0  0  0  0  0  0  0  0
    7.9288   -1.7115    0.0000 C   0  0  2  0  0  0  0  0  0  0  0  0
    8.8750   -0.4068    0.0000 C   0  0  2  0  0  0  0  0  0  0  0  0
    5.2868   -2.2184    0.0000 C   0  0  1  0  0  0  0  0  0  0  0  0
    7.0628   -2.2115    0.0000 C   0  0  0  0  0  0  0  0  0  0  0  0
    5.2787   -3.2600    0.0000 C   0  0  2  0  0  0  0  0  0  0  0  0
    6.1968   -1.7115    0.0000 C   0  0  0  0  0  0  0  0  0  0  0  0
    8.8750   -2.0163    0.0000 C   0  0  0  0  0  0  0  0  0  0  0  0
    7.0628   -0.2115    0.0000 C   0  0  0  0  0  0  0  0  0  0  0  0
    9.4586   -1.2115    0.0000 C   0  0  0  0  0  0  0  0  0  0  0  0
    6.1968   -0.7115    0.0000 C   0  0  0  0  0  0  0  0  0  0  0  0
    4.3433   -3.8097    0.0000 C   0  0  0  0  0  0  0  0  0  0  0  0
    7.0789   -3.2530    0.0000 C   0  0  0  0  0  0  0  0  0  0  0  0
    6.1808   -3.7808    0.0000 C   0  0  0  0  0  0  0  0  0  0  0  0
    4.3599   -1.6543    0.0000 C   0  0  0  0  0  0  0  0  0  0  0  0
    7.9288    0.2885    0.0000 C   0  0  0  0  0  0  0  0  0  0  0  0
    7.9288   -2.7115    0.0000 C   0  0  0  0  0  0  0  0  0  0  0  0
    9.1857    0.5437    0.0000 C   0  0  3  0  0  0  0  0  0  0  0  0
    3.4037   -3.2672    0.0000 C   0  0  2  0  0  0  0  0  0  0  0  0
    3.4120   -2.1822    0.0000 C   0  0  0  0  0  0  0  0  0  0  0  0
    5.2945   -1.2184    0.0000 C   0  0  0  0  0  0  0  0  0  0  0  0
    3.8467   -4.6777    0.0000 C   0  0  0  0  0  0  0  0  0  0  0  0
    4.8466   -4.6738    0.0000 C   0  0  0  0  0  0  0  0  0  0  0  0
    8.5179    1.2880    0.0000 C   0  0  0  0  0  0  0  0  0  0  0  0
   10.1642    0.7499    0.0000 C   0  0  0  0  0  0  0  0  0  0  0  0
    8.8285    2.2385    0.0000 C   0  0  0  0  0  0  0  0  0  0  0  0
    8.1607    2.9828    0.0000 C   0  0  0  0  0  0  0  0  0  0  0  0
    8.4713    3.9334    0.0000 C   0  0  0  0  0  0  0  0  0  0  0  0
    7.1822    2.7766    0.0000 C   0  0  0  0  0  0  0  0  0  0  0  0
    7.8035    4.6777    0.0000 C   0  0  0  0  0  0  0  0  0  0  0  0
    9.4498    4.1396    0.0000 C   0  0  0  0  0  0  0  0  0  0  0  0
    9.4875   -0.3106    0.0000 H   0  0  0  0  0  0  0  0  0  0  0  0
    5.2820   -4.1100    0.0000 H   0  0  0  0  0  0  0  0  0  0  0  0
    8.6240   -2.5832    0.0000 H   0  0  0  0  0  0  0  0  0  0  0  0
    9.4124   -2.3255    0.0000 H   0  0  0  0  0  0  0  0  0  0  0  0
    7.4613    0.2634    0.0000 H   0  0  0  0  0  0  0  0  0  0  0  0
    6.6643    0.2634    0.0000 H   0  0  0  0  0  0  0  0  0  0  0  0
    9.9195   -1.6263    0.0000 H   0  0  0  0  0  0  0  0  0  0  0  0
    9.9195   -0.7968    0.0000 H   0  0  0  0  0  0  0  0  0  0  0  0
    5.9847   -0.1289    0.0000 H   0  0  0  0  0  0  0  0  0  0  0  0
    5.5862   -0.8192    0.0000 H   0  0  0  0  0  0  0  0  0  0  0  0
    7.2969   -3.8334    0.0000 H   0  0  0  0  0  0  0  0  0  0  0  0
    7.6880   -3.1376    0.0000 H   0  0  0  0  0  0  0  0  0  0  0  0
    5.7835   -4.2568    0.0000 H   0  0  0  0  0  0  0  0  0  0  0  0
    6.5818   -4.2537    0.0000 H   0  0  0  0  0  0  0  0  0  0  0  0
    4.7681   -1.1877    0.0000 H   0  0  0  0  0  0  0  0  0  0  0  0
    3.9700   -1.1723    0.0000 H   0  0  0  0  0  0  0  0  0  0  0  0
    8.5488    0.2885    0.0000 H   0  0  0  0  0  0  0  0  0  0  0  0
    7.9288    0.9085    0.0000 H   0  0  0  0  0  0  0  0  0  0  0  0
    7.3088    0.2885    0.0000 H   0  0  0  0  0  0  0  0  0  0  0  0
    7.3088   -2.7115    0.0000 H   0  0  0  0  0  0  0  0  0  0  0  0
    7.9288   -3.3315    0.0000 H   0  0  0  0  0  0  0  0  0  0  0  0
    8.5488   -2.7115    0.0000 H   0  0  0  0  0  0  0  0  0  0  0  0
    9.3783    1.1330    0.0000 H   0  0  0  0  0  0  0  0  0  0  0  0
    2.8686   -2.9541    0.0000 H   0  0  0  0  0  0  0  0  0  0  0  0
    3.2075   -1.5970    0.0000 H   0  0  0  0  0  0  0  0  0  0  0  0
    2.8004   -2.2836    0.0000 H   0  0  0  0  0  0  0  0  0  0  0  0
    5.9145   -1.2232    0.0000 H   0  0  0  0  0  0  0  0  0  0  0  0
    5.2993   -0.5984    0.0000 H   0  0  0  0  0  0  0  0  0  0  0  0
    4.6745   -1.2136    0.0000 H   0  0  0  0  0  0  0  0  0  0  0  0
    4.3109   -4.9859    0.0000 H   0  0  0  0  0  0  0  0  0  0  0  0
    3.3085   -4.3697    0.0000 H   0  0  0  0  0  0  0  0  0  0  0  0
    3.5387   -5.2158    0.0000 H   0  0  0  0  0  0  0  0  0  0  0  0
    5.1587   -5.2095    0.0000 H   0  0  0  0  0  0  0  0  0  0  0  0
    5.3824   -4.3617    0.0000 H   0  0  0  0  0  0  0  0  0  0  0  0
    4.3848   -4.9856    0.0000 H   0  0  0  0  0  0  0  0  0  0  0  0
    7.9709    1.5800    0.0000 H   0  0  0  0  0  0  0  0  0  0  0  0
    8.1353    0.8001    0.0000 H   0  0  0  0  0  0  0  0  0  0  0  0
    2.0000   -3.4518    0.0000 H   0  0  0  0  0  0  0  0  0  0  0  0
    9.3754    1.9465    0.0000 H   0  0  0  0  0  0  0  0  0  0  0  0
    9.2111    2.7264    0.0000 H   0  0  0  0  0  0  0  0  0  0  0  0
   11.0815    1.8283    0.0000 H   0  0  0  0  0  0  0  0  0  0  0  0
    7.8647    3.8055    0.0000 H   0  0  0  0  0  0  0  0  0  0  0  0
    6.7681    3.2381    0.0000 H   0  0  0  0  0  0  0  0  0  0  0  0
    6.9896    2.1873    0.0000 H   0  0  0  0  0  0  0  0  0  0  0  0
    8.2650    5.0917    0.0000 H   0  0  0  0  0  0  0  0  0  0  0  0
    7.3894    5.1391    0.0000 H   0  0  0  0  0  0  0  0  0  0  0  0
    9.5777    3.5329    0.0000 H   0  0  0  0  0  0  0  0  0  0  0  0
   10.0565    4.2674    0.0000 H   0  0  0  0  0  0  0  0  0  0  0  0
    9.3220    4.7462    0.0000 H   0  0  0  0  0  0  0  0  0  0  0  0
    7.3420    4.2636    0.0000 H   0  0  0  0  0  0  0  0  0  0  0  0
 22  1  1  1  0  0  0
  1 72  1  0  0  0  0
  2 28  1  0  0  0  0
  2 75  1  0  0  0  0
  3 28  2  0  0  0  0
  4  5  1  0  0  0  0
  4  6  1  0  0  0  0
  4 12  1  0  0  0  0
  4 19  1  1  0  0  0
  5  8  1  0  0  0  0
  5 11  1  0  0  0  0
  5 20  1  6  0  0  0
  6 13  1  0  0  0  0
  6 21  1  1  0  0  0
  6 35  1  0  0  0  0
  7  9  1  0  0  0  0
  7 10  1  0  0  0  0
  7 18  1  0  0  0  0
  7 24  1  1  0  0  0
  8 10  2  0  0  0  0
  8 16  1  0  0  0  0
  9 15  1  0  0  0  0
  9 17  1  0  0  0  0
  9 36  1  6  0  0  0
 10 14  1  0  0  0  0
 11 13  1  0  0  0  0
 11 37  1  0  0  0  0
 11 38  1  0  0  0  0
 12 14  1  0  0  0  0
 12 39  1  0  0  0  0
 12 40  1  0  0  0  0
 13 41  1  0  0  0  0
 13 42  1  0  0  0  0
 14 43  1  0  0  0  0
 14 44  1  0  0  0  0
 15 22  1  0  0  0  0
 15 25  1  0  0  0  0
 15 26  1  0  0  0  0
 16 17  1  0  0  0  0
 16 45  1  0  0  0  0
 16 46  1  0  0  0  0
 17 47  1  0  0  0  0
 17 48  1  0  0  0  0
 18 23  1  0  0  0  0
 18 49  1  0  0  0  0
 18 50  1  0  0  0  0
 19 51  1  0  0  0  0
 19 52  1  0  0  0  0
 19 53  1  0  0  0  0
 20 54  1  0  0  0  0
 20 55  1  0  0  0  0
 20 56  1  0  0  0  0
 21 27  1  0  0  0  0
 21 28  1  0  0  0  0
 21 57  1  0  0  0  0
 22 23  1  0  0  0  0
 22 58  1  0  0  0  0
 23 59  1  0  0  0  0
 23 60  1  0  0  0  0
 24 61  1  0  0  0  0
 24 62  1  0  0  0  0
 24 63  1  0  0  0  0
 25 65  1  0  0  0  0
 25 66  1  0  0  0  0
 25 69  1  0  0  0  0
 26 64  1  0  0  0  0
 26 67  1  0  0  0  0
 26 68  1  0  0  0  0
 27 29  1  0  0  0  0
 27 70  1  0  0  0  0
 27 71  1  0  0  0  0
 29 30  1  0  0  0  0
 29 73  1  0  0  0  0
 29 74  1  0  0  0  0
 30 31  1  0  0  0  0
 30 32  2  0  0  0  0
 31 33  1  0  0  0  0
 31 34  1  0  0  0  0
 31 76  1  0  0  0  0
 32 77  1  0  0  0  0
 32 78  1  0  0  0  0
 33 79  1  0  0  0  0
 33 80  1  0  0  0  0
 33 84  1  0  0  0  0
 34 81  1  0  0  0  0
 34 82  1  0  0  0  0
 34 83  1  0  0  0  0
M  END
> <PUBCHEM_COMPOUND_CID>
10004946

> <PUBCHEM_COMPOUND_CANONICALIZED>
1

> <PUBCHEM_CACTVS_COMPLEXITY>
881

> <PUBCHEM_CACTVS_HBOND_ACCEPTOR>
3

> <PUBCHEM_CACTVS_HBOND_DONOR>
2

> <PUBCHEM_CACTVS_ROTATABLE_BOND>
6

> <PUBCHEM_CACTVS_SUBSKEYS>
AAADcfB4MAAAAAAAAAAAAAAAAAAAAYAAAAAwQIAAAAAAAEDAAAAAGgAACAAADxSggAICCAAAAgCIAgDSCAAAAAAgAAAACAEAAAgAEBIAAQAAQAAEgAAIAAOIyPCPgAAAAAAAAABAAAYAADAAAQAACAAAAA==

> <PUBCHEM_IUPAC_OPENEYE_NAME>
2-[(3S,5R,10S,13R,14R,17R)-3-hydroxy-4,4,10,13,14-pentamethyl-2,3,5,6,7,11,12,15,16,17-decahydro-1H-cyclopenta[a]phenanthren-17-yl]-6-methyl-5-methylene-heptanoic acid

> <PUBCHEM_IUPAC_CAS_NAME>
2-[(3S,5R,10S,13R,14R,17R)-3-hydroxy-4,4,10,13,14-pentamethyl-2,3,5,6,7,11,12,15,16,17-decahydro-1H-cyclopenta[a]phenanthren-17-yl]-6-methyl-5-methyleneheptanoic acid

> <PUBCHEM_IUPAC_NAME>
2-[(3S,5R,10S,13R,14R,17R)-3-hydroxy-4,4,10,13,14-pentamethyl-2,3,5,6,7,11,12,15,16,17-decahydro-1H-cyclopenta[a]phenanthren-17-yl]-6-methyl-5-methylideneheptanoic acid

> <PUBCHEM_IUPAC_SYSTEMATIC_NAME>
6-methyl-5-methylidene-2-[(3S,5R,10S,13R,14R,17R)-4,4,10,13,14-pentamethyl-3-oxidanyl-2,3,5,6,7,11,12,15,16,17-decahydro-1H-cyclopenta[a]phenanthren-17-yl]heptanoic acid

> <PUBCHEM_IUPAC_TRADITIONAL_NAME>
2-[(3S,5R,10S,13R,14R,17R)-3-hydroxy-4,4,10,13,14-pentamethyl-2,3,5,6,7,11,12,15,16,17-decahydro-1H-cyclopenta[a]phenanthren-17-yl]-5-isopropyl-hex-5-enoic acid

> <PUBCHEM_IUPAC_INCHI>
InChI=1S/C31H50O3/c1-19(2)20(3)9-10-21(27(33)34)22-13-17-31(8)24-11-12-25-28(4,5)26(32)15-16-29(25,6)23(24)14-18-30(22,31)7/h19,21-22,25-26,32H,3,9-18H2,1-2,4-8H3,(H,33,34)/t21?,22-,25+,26+,29-,30-,31+/m1/s1

> <PUBCHEM_IUPAC_INCHIKEY>
UGMQOYZVOPASJF-VVYMVFNCSA-N

> <PUBCHEM_XLOGP3_AA>
8

> <PUBCHEM_EXACT_MASS>
470.375995

> <PUBCHEM_MOLECULAR_FORMULA>
C31H50O3

> <PUBCHEM_MOLECULAR_WEIGHT>
470.7269

> <PUBCHEM_OPENEYE_CAN_SMILES>
CC(C)C(=C)CCC(C1CCC2(C1(CCC3=C2CCC4C3(CCC(C4(C)C)O)C)C)C)C(=O)O

> <PUBCHEM_OPENEYE_ISO_SMILES>
CC(C)C(=C)CCC([C@H]1CC[C@@]2([C@@]1(CCC3=C2CC[C@@H]4[C@@]3(CC[C@@H](C4(C)C)O)C)C)C)C(=O)O

> <PUBCHEM_CACTVS_TPSA>
57.5

> <PUBCHEM_MONOISOTOPIC_WEIGHT>
470.375995

> <PUBCHEM_TOTAL_CHARGE>
0

> <PUBCHEM_HEAVY_ATOM_COUNT>
34

> <PUBCHEM_ATOM_DEF_STEREO_COUNT>
6

> <PUBCHEM_ATOM_UDEF_STEREO_COUNT>
1

> <PUBCHEM_BOND_DEF_STEREO_COUNT>
0

> <PUBCHEM_BOND_UDEF_STEREO_COUNT>
0

> <PUBCHEM_ISOTOPIC_ATOM_COUNT>
0

> <PUBCHEM_COMPONENT_COUNT>
1

> <PUBCHEM_CACTVS_TAUTO_COUNT>
1

> <PUBCHEM_COORDINATE_TYPE>
1
5
255

> <PUBCHEM_BONDANNOTATIONS>
22  1  5
21  28  3
4  19  5
5  20  6
6  21  5
7  24  5
9  36  6

$$$$

