5281887
  -OEChem-07051213012D

 64 68  0     1  0  0  0  0  0999 V2000
    9.1857    0.3532    0.0000 O   0  0  0  0  0  0  0  0  0  0  0  0
   10.4749    1.5099    0.0000 O   0  0  0  0  0  0  0  0  0  0  0  0
   10.5214   -1.1354    0.0000 O   0  0  0  0  0  0  0  0  0  0  0  0
   12.4784   -0.7230    0.0000 O   0  0  0  0  0  0  0  0  0  0  0  0
    2.5357   -3.9544    0.0000 O   0  0  0  0  0  0  0  0  0  0  0  0
   13.0997    1.1780    0.0000 O   0  0  0  0  0  0  0  0  0  0  0  0
   11.0962    3.4109    0.0000 O   0  0  0  0  0  0  0  0  0  0  0  0
   12.7425    2.8729    0.0000 O   0  0  0  0  0  0  0  0  0  0  0  0
    7.9288   -0.9021    0.0000 C   0  0  1  0  0  0  0  0  0  0  0  0
    7.9288   -1.9021    0.0000 C   0  0  2  0  0  0  0  0  0  0  0  0
    7.0628   -2.4021    0.0000 C   0  0  1  0  0  0  0  0  0  0  0  0
    8.8750   -0.5974    0.0000 C   0  0  2  0  0  0  0  0  0  0  0  0
    6.1968   -1.9021    0.0000 C   0  0  2  0  0  0  0  0  0  0  0  0
    7.0628   -0.4021    0.0000 C   0  0  0  0  0  0  0  0  0  0  0  0
    8.8750   -2.2068    0.0000 C   0  0  0  0  0  0  0  0  0  0  0  0
    9.4586   -1.4021    0.0000 C   0  0  0  0  0  0  0  0  0  0  0  0
    6.1968   -0.9021    0.0000 C   0  0  0  0  0  0  0  0  0  0  0  0
    7.0789   -3.4436    0.0000 C   0  0  0  0  0  0  0  0  0  0  0  0
    7.9288    0.0979    0.0000 C   0  0  0  0  0  0  0  0  0  0  0  0
    5.2868   -2.4089    0.0000 C   0  0  0  0  0  0  0  0  0  0  0  0
    6.1808   -3.9714    0.0000 C   0  0  0  0  0  0  0  0  0  0  0  0
    5.2787   -3.4505    0.0000 C   0  0  0  0  0  0  0  0  0  0  0  0
   10.1642    0.5594    0.0000 C   0  0  2  0  0  0  0  0  0  0  0  0
    4.3599   -1.8449    0.0000 C   0  0  0  0  0  0  0  0  0  0  0  0
    4.3433   -4.0003    0.0000 C   0  0  0  0  0  0  0  0  0  0  0  0
   10.8321   -0.1849    0.0000 C   0  0  1  0  0  0  0  0  0  0  0  0
    3.4120   -2.3728    0.0000 C   0  0  0  0  0  0  0  0  0  0  0  0
   11.8106    0.0213    0.0000 C   0  0  2  0  0  0  0  0  0  0  0  0
    3.4037   -3.4578    0.0000 C   0  0  0  0  0  0  0  0  0  0  0  0
   11.4534    1.7161    0.0000 C   0  0  1  0  0  0  0  0  0  0  0  0
   12.1212    0.9718    0.0000 C   0  0  1  0  0  0  0  0  0  0  0  0
   11.7640    2.6666    0.0000 C   0  0  0  0  0  0  0  0  0  0  0  0
    8.0188   -2.7473    0.0000 H   0  0  0  0  0  0  0  0  0  0  0  0
    7.8022   -2.8214    0.0000 H   0  0  0  0  0  0  0  0  0  0  0  0
    9.4875   -0.5012    0.0000 H   0  0  0  0  0  0  0  0  0  0  0  0
    6.9329   -1.4771    0.0000 H   0  0  0  0  0  0  0  0  0  0  0  0
    7.4613    0.0729    0.0000 H   0  0  0  0  0  0  0  0  0  0  0  0
    6.6643    0.0729    0.0000 H   0  0  0  0  0  0  0  0  0  0  0  0
    8.6240   -2.7737    0.0000 H   0  0  0  0  0  0  0  0  0  0  0  0
    9.4124   -2.5160    0.0000 H   0  0  0  0  0  0  0  0  0  0  0  0
    9.9195   -1.8168    0.0000 H   0  0  0  0  0  0  0  0  0  0  0  0
    9.9195   -0.9874    0.0000 H   0  0  0  0  0  0  0  0  0  0  0  0
    5.9847   -0.3195    0.0000 H   0  0  0  0  0  0  0  0  0  0  0  0
    5.5862   -1.0098    0.0000 H   0  0  0  0  0  0  0  0  0  0  0  0
    7.2969   -4.0240    0.0000 H   0  0  0  0  0  0  0  0  0  0  0  0
    7.6880   -3.3281    0.0000 H   0  0  0  0  0  0  0  0  0  0  0  0
    8.5488    0.0979    0.0000 H   0  0  0  0  0  0  0  0  0  0  0  0
    7.9288    0.7179    0.0000 H   0  0  0  0  0  0  0  0  0  0  0  0
    7.3088    0.0979    0.0000 H   0  0  0  0  0  0  0  0  0  0  0  0
    5.7835   -4.4473    0.0000 H   0  0  0  0  0  0  0  0  0  0  0  0
    6.5818   -4.4442    0.0000 H   0  0  0  0  0  0  0  0  0  0  0  0
    9.9716   -0.0299    0.0000 H   0  0  0  0  0  0  0  0  0  0  0  0
    4.3719   -1.2250    0.0000 H   0  0  0  0  0  0  0  0  0  0  0  0
    4.3457   -4.6203    0.0000 H   0  0  0  0  0  0  0  0  0  0  0  0
   11.2461   -0.6464    0.0000 H   0  0  0  0  0  0  0  0  0  0  0  0
    2.8787   -2.0566    0.0000 H   0  0  0  0  0  0  0  0  0  0  0  0
   11.6179   -0.5680    0.0000 H   0  0  0  0  0  0  0  0  0  0  0  0
   11.0393    2.1776    0.0000 H   0  0  0  0  0  0  0  0  0  0  0  0
   12.5353    0.5104    0.0000 H   0  0  0  0  0  0  0  0  0  0  0  0
   10.9355   -1.5969    0.0000 H   0  0  0  0  0  0  0  0  0  0  0  0
   12.2858   -1.3123    0.0000 H   0  0  0  0  0  0  0  0  0  0  0  0
    2.0000   -3.6424    0.0000 H   0  0  0  0  0  0  0  0  0  0  0  0
   13.5138    0.7166    0.0000 H   0  0  0  0  0  0  0  0  0  0  0  0
   11.2888    4.0003    0.0000 H   0  0  0  0  0  0  0  0  0  0  0  0
 12  1  1  1  0  0  0
 23  1  1  6  0  0  0
  2 23  1  0  0  0  0
  2 30  1  0  0  0  0
 26  3  1  1  0  0  0
  3 60  1  0  0  0  0
 28  4  1  6  0  0  0
  4 61  1  0  0  0  0
  5 29  1  0  0  0  0
  5 62  1  0  0  0  0
 31  6  1  1  0  0  0
  6 63  1  0  0  0  0
  7 32  1  0  0  0  0
  7 64  1  0  0  0  0
  8 32  2  0  0  0  0
  9 10  1  0  0  0  0
  9 12  1  0  0  0  0
  9 14  1  0  0  0  0
  9 19  1  1  0  0  0
 10 11  1  0  0  0  0
 10 15  1  0  0  0  0
 10 33  1  6  0  0  0
 11 13  1  0  0  0  0
 11 18  1  0  0  0  0
 11 34  1  1  0  0  0
 12 16  1  0  0  0  0
 12 35  1  0  0  0  0
 13 17  1  0  0  0  0
 13 20  1  0  0  0  0
 13 36  1  6  0  0  0
 14 17  1  0  0  0  0
 14 37  1  0  0  0  0
 14 38  1  0  0  0  0
 15 16  1  0  0  0  0
 15 39  1  0  0  0  0
 15 40  1  0  0  0  0
 16 41  1  0  0  0  0
 16 42  1  0  0  0  0
 17 43  1  0  0  0  0
 17 44  1  0  0  0  0
 18 21  1  0  0  0  0
 18 45  1  0  0  0  0
 18 46  1  0  0  0  0
 19 47  1  0  0  0  0
 19 48  1  0  0  0  0
 19 49  1  0  0  0  0
 20 22  2  0  0  0  0
 20 24  1  0  0  0  0
 21 22  1  0  0  0  0
 21 50  1  0  0  0  0
 21 51  1  0  0  0  0
 22 25  1  0  0  0  0
 23 26  1  0  0  0  0
 23 52  1  0  0  0  0
 24 27  2  0  0  0  0
 24 53  1  0  0  0  0
 25 29  2  0  0  0  0
 25 54  1  0  0  0  0
 26 28  1  0  0  0  0
 26 55  1  0  0  0  0
 27 29  1  0  0  0  0
 27 56  1  0  0  0  0
 28 31  1  0  0  0  0
 28 57  1  0  0  0  0
 30 31  1  0  0  0  0
 30 32  1  6  0  0  0
 30 58  1  0  0  0  0
 31 59  1  0  0  0  0
M  END
> <PUBCHEM_COMPOUND_CID>
5281887

> <PUBCHEM_COMPOUND_CANONICALIZED>
1

> <PUBCHEM_CACTVS_COMPLEXITY>
716

> <PUBCHEM_CACTVS_HBOND_ACCEPTOR>
8

> <PUBCHEM_CACTVS_HBOND_DONOR>
5

> <PUBCHEM_CACTVS_ROTATABLE_BOND>
3

> <PUBCHEM_CACTVS_SUBSKEYS>
AAADcfB4PAAAAAAAAAAAAAAAAAAAAYAAAAA0YMEAAAAAAGDBAAAAGgAACAAADxSwmAMyDoAABgCIAiDSCAICAAAgIAAIiAFGCIgZNjaCERaicAAl4BEPmAfK7PxPoAABAAAQAADAAAYAACAAAIAADAAAAA==

> <PUBCHEM_IUPAC_OPENEYE_NAME>
(2S,3S,4S,5R,6R)-3,4,5-trihydroxy-6-[[(8R,9S,13S,14S,17S)-3-hydroxy-13-methyl-6,7,8,9,11,12,14,15,16,17-decahydrocyclopenta[a]phenanthren-17-yl]oxy]tetrahydropyran-2-carboxylic acid

> <PUBCHEM_IUPAC_CAS_NAME>
(2S,3S,4S,5R,6R)-3,4,5-trihydroxy-6-[[(8R,9S,13S,14S,17S)-3-hydroxy-13-methyl-6,7,8,9,11,12,14,15,16,17-decahydrocyclopenta[a]phenanthren-17-yl]oxy]-2-oxanecarboxylic acid

> <PUBCHEM_IUPAC_NAME>
(2S,3S,4S,5R,6R)-3,4,5-trihydroxy-6-[[(8R,9S,13S,14S,17S)-3-hydroxy-13-methyl-6,7,8,9,11,12,14,15,16,17-decahydrocyclopenta[a]phenanthren-17-yl]oxy]oxane-2-carboxylic acid

> <PUBCHEM_IUPAC_SYSTEMATIC_NAME>
(2S,3S,4S,5R,6R)-6-[[(8R,9S,13S,14S,17S)-13-methyl-3-oxidanyl-6,7,8,9,11,12,14,15,16,17-decahydrocyclopenta[a]phenanthren-17-yl]oxy]-3,4,5-tris(oxidanyl)oxane-2-carboxylic acid

> <PUBCHEM_IUPAC_TRADITIONAL_NAME>
(2S,3S,4S,5R,6R)-3,4,5-trihydroxy-6-[[(8R,9S,13S,14S,17S)-3-hydroxy-13-methyl-6,7,8,9,11,12,14,15,16,17-decahydrocyclopenta[a]phenanthren-17-yl]oxy]tetrahydropyran-2-carboxylic acid

> <PUBCHEM_IUPAC_INCHI>
InChI=1S/C24H32O8/c1-24-9-8-14-13-5-3-12(25)10-11(13)2-4-15(14)16(24)6-7-17(24)31-23-20(28)18(26)19(27)21(32-23)22(29)30/h3,5,10,14-21,23,25-28H,2,4,6-9H2,1H3,(H,29,30)/t14-,15-,16+,17+,18+,19+,20-,21+,23-,24+/m1/s1

> <PUBCHEM_IUPAC_INCHIKEY>
MTKNDAQYHASLID-QXYWQCSFSA-N

> <PUBCHEM_XLOGP3>
2.7

> <PUBCHEM_EXACT_MASS>
448.209718

> <PUBCHEM_MOLECULAR_FORMULA>
C24H32O8

> <PUBCHEM_MOLECULAR_WEIGHT>
448.50608

> <PUBCHEM_OPENEYE_CAN_SMILES>
CC12CCC3C(C1CCC2OC4C(C(C(C(O4)C(=O)O)O)O)O)CCC5=C3C=CC(=C5)O

> <PUBCHEM_OPENEYE_ISO_SMILES>
C[C@]12CC[C@H]3[C@H]([C@@H]1CC[C@@H]2O[C@H]4[C@@H]([C@H]([C@@H]([C@H](O4)C(=O)O)O)O)O)CCC5=C3C=CC(=C5)O

> <PUBCHEM_CACTVS_TPSA>
137

> <PUBCHEM_MONOISOTOPIC_WEIGHT>
448.209718

> <PUBCHEM_TOTAL_CHARGE>
0

> <PUBCHEM_HEAVY_ATOM_COUNT>
32

> <PUBCHEM_ATOM_DEF_STEREO_COUNT>
10

> <PUBCHEM_ATOM_UDEF_STEREO_COUNT>
0

> <PUBCHEM_BOND_DEF_STEREO_COUNT>
0

> <PUBCHEM_BOND_UDEF_STEREO_COUNT>
0

> <PUBCHEM_ISOTOPIC_ATOM_COUNT>
0

> <PUBCHEM_COMPONENT_COUNT>
1

> <PUBCHEM_CACTVS_TAUTO_COUNT>
9

> <PUBCHEM_COORDINATE_TYPE>
1
5
255

> <PUBCHEM_BONDANNOTATIONS>
12  1  5
23  1  6
10  33  6
11  34  5
13  36  6
20  22  8
20  24  8
22  25  8
24  27  8
25  29  8
27  29  8
26  3  5
30  32  6
28  4  6
31  6  5
9  19  5

$$$$

