13305
  -OEChem-06261208462D

 43 43  0     0  0  0  0  0  0999 V2000
    8.0622    1.5600    0.0000 S   0  0  0  0  0  0  0  0  0  0  0  0
    2.8660   -1.4400    0.0000 O   0  0  0  0  0  0  0  0  0  0  0  0
   13.2583   -1.4400    0.0000 O   0  0  0  0  0  0  0  0  0  0  0  0
    6.3301   -1.4400    0.0000 N   0  0  0  0  0  0  0  0  0  0  0  0
    9.7942   -1.4400    0.0000 N   0  0  0  0  0  0  0  0  0  0  0  0
    8.0622   -1.4400    0.0000 N   0  0  0  0  0  0  0  0  0  0  0  0
    8.9282    0.0600    0.0000 N   0  0  0  0  0  0  0  0  0  0  0  0
    7.1962    0.0600    0.0000 N   0  0  0  0  0  0  0  0  0  0  0  0
    4.5981   -1.4400    0.0000 C   0  0  0  0  0  0  0  0  0  0  0  0
   11.5263   -1.4400    0.0000 C   0  0  0  0  0  0  0  0  0  0  0  0
    5.4641   -0.9400    0.0000 C   0  0  0  0  0  0  0  0  0  0  0  0
   10.6603   -0.9400    0.0000 C   0  0  0  0  0  0  0  0  0  0  0  0
    3.7320   -0.9400    0.0000 C   0  0  0  0  0  0  0  0  0  0  0  0
   12.3923   -0.9400    0.0000 C   0  0  0  0  0  0  0  0  0  0  0  0
    7.1962   -0.9400    0.0000 C   0  0  0  0  0  0  0  0  0  0  0  0
    8.9282   -0.9400    0.0000 C   0  0  0  0  0  0  0  0  0  0  0  0
    8.0622    0.5600    0.0000 C   0  0  0  0  0  0  0  0  0  0  0  0
    2.0000   -0.9400    0.0000 C   0  0  0  0  0  0  0  0  0  0  0  0
   14.1244   -0.9400    0.0000 C   0  0  0  0  0  0  0  0  0  0  0  0
    8.9282    2.0600    0.0000 C   0  0  0  0  0  0  0  0  0  0  0  0
    4.1996   -1.9150    0.0000 H   0  0  0  0  0  0  0  0  0  0  0  0
    4.9966   -1.9150    0.0000 H   0  0  0  0  0  0  0  0  0  0  0  0
   11.1278   -1.9150    0.0000 H   0  0  0  0  0  0  0  0  0  0  0  0
   11.9248   -1.9150    0.0000 H   0  0  0  0  0  0  0  0  0  0  0  0
    5.8626   -0.4651    0.0000 H   0  0  0  0  0  0  0  0  0  0  0  0
    5.0656   -0.4651    0.0000 H   0  0  0  0  0  0  0  0  0  0  0  0
   11.0588   -0.4651    0.0000 H   0  0  0  0  0  0  0  0  0  0  0  0
   10.2617   -0.4651    0.0000 H   0  0  0  0  0  0  0  0  0  0  0  0
    4.1306   -0.4651    0.0000 H   0  0  0  0  0  0  0  0  0  0  0  0
    3.3335   -0.4651    0.0000 H   0  0  0  0  0  0  0  0  0  0  0  0
   12.7908   -0.4651    0.0000 H   0  0  0  0  0  0  0  0  0  0  0  0
   11.9938   -0.4651    0.0000 H   0  0  0  0  0  0  0  0  0  0  0  0
    6.3301   -2.0600    0.0000 H   0  0  0  0  0  0  0  0  0  0  0  0
    9.7942   -2.0600    0.0000 H   0  0  0  0  0  0  0  0  0  0  0  0
    2.3100   -0.4031    0.0000 H   0  0  0  0  0  0  0  0  0  0  0  0
    1.4631   -0.6300    0.0000 H   0  0  0  0  0  0  0  0  0  0  0  0
    1.6900   -1.4769    0.0000 H   0  0  0  0  0  0  0  0  0  0  0  0
   14.4344   -1.4769    0.0000 H   0  0  0  0  0  0  0  0  0  0  0  0
   14.6613   -0.6300    0.0000 H   0  0  0  0  0  0  0  0  0  0  0  0
   13.8144   -0.4031    0.0000 H   0  0  0  0  0  0  0  0  0  0  0  0
    9.2382    1.5231    0.0000 H   0  0  0  0  0  0  0  0  0  0  0  0
    9.4651    2.3700    0.0000 H   0  0  0  0  0  0  0  0  0  0  0  0
    8.6182    2.5969    0.0000 H   0  0  0  0  0  0  0  0  0  0  0  0
  1 17  1  0  0  0  0
  1 20  1  0  0  0  0
  2 13  1  0  0  0  0
  2 18  1  0  0  0  0
  3 14  1  0  0  0  0
  3 19  1  0  0  0  0
  4 11  1  0  0  0  0
  4 15  1  0  0  0  0
  4 33  1  0  0  0  0
  5 12  1  0  0  0  0
  5 16  1  0  0  0  0
  5 34  1  0  0  0  0
  6 15  2  0  0  0  0
  6 16  1  0  0  0  0
  7 16  2  0  0  0  0
  7 17  1  0  0  0  0
  8 15  1  0  0  0  0
  8 17  2  0  0  0  0
  9 11  1  0  0  0  0
  9 13  1  0  0  0  0
  9 21  1  0  0  0  0
  9 22  1  0  0  0  0
 10 12  1  0  0  0  0
 10 14  1  0  0  0  0
 10 23  1  0  0  0  0
 10 24  1  0  0  0  0
 11 25  1  0  0  0  0
 11 26  1  0  0  0  0
 12 27  1  0  0  0  0
 12 28  1  0  0  0  0
 13 29  1  0  0  0  0
 13 30  1  0  0  0  0
 14 31  1  0  0  0  0
 14 32  1  0  0  0  0
 18 35  1  0  0  0  0
 18 36  1  0  0  0  0
 18 37  1  0  0  0  0
 19 38  1  0  0  0  0
 19 39  1  0  0  0  0
 19 40  1  0  0  0  0
 20 41  1  0  0  0  0
 20 42  1  0  0  0  0
 20 43  1  0  0  0  0
M  END
> <PUBCHEM_COMPOUND_CID>
13305

> <PUBCHEM_COMPOUND_CANONICALIZED>
1

> <PUBCHEM_CACTVS_COMPLEXITY>
218

> <PUBCHEM_CACTVS_HBOND_ACCEPTOR>
8

> <PUBCHEM_CACTVS_HBOND_DONOR>
2

> <PUBCHEM_CACTVS_ROTATABLE_BOND>
11

> <PUBCHEM_CACTVS_SUBSKEYS>
AAADceBzsABAAAAAAAAAAAAAAAAAAAAAAAAsAAAAAAAAAAABgAAAHgQQAAAACADhgAaDEAbIFAggAAAAJAAAUAlAAIABAIAIAACACAAACAAEAAAKEAIAAAAAAAAAAAAAAAAAAAAAAAAAAAAAAAAAAAAAAA==

> <PUBCHEM_IUPAC_OPENEYE_NAME>
N2,N4-bis(3-methoxypropyl)-6-methylsulfanyl-1,3,5-triazine-2,4-diamine

> <PUBCHEM_IUPAC_CAS_NAME>
N2,N4-bis(3-methoxypropyl)-6-(methylthio)-1,3,5-triazine-2,4-diamine

> <PUBCHEM_IUPAC_NAME>
2-N,4-N-bis(3-methoxypropyl)-6-methylsulfanyl-1,3,5-triazine-2,4-diamine

> <PUBCHEM_IUPAC_SYSTEMATIC_NAME>
N2,N4-bis(3-methoxypropyl)-6-methylsulfanyl-1,3,5-triazine-2,4-diamine

> <PUBCHEM_IUPAC_TRADITIONAL_NAME>
3-methoxypropyl-[4-(3-methoxypropylamino)-6-(methylthio)-s-triazin-2-yl]amine

> <PUBCHEM_IUPAC_INCHI>
InChI=1S/C12H23N5O2S/c1-18-8-4-6-13-10-15-11(14-7-5-9-19-2)17-12(16-10)20-3/h4-9H2,1-3H3,(H2,13,14,15,16,17)

> <PUBCHEM_IUPAC_INCHIKEY>
FBMDQVBGIYSDTI-UHFFFAOYSA-N

> <PUBCHEM_XLOGP3>
2.2

> <PUBCHEM_EXACT_MASS>
301.157246

> <PUBCHEM_MOLECULAR_FORMULA>
C12H23N5O2S

> <PUBCHEM_MOLECULAR_WEIGHT>
301.40832

> <PUBCHEM_OPENEYE_CAN_SMILES>
COCCCNC1=NC(=NC(=N1)SC)NCCCOC

> <PUBCHEM_OPENEYE_ISO_SMILES>
COCCCNC1=NC(=NC(=N1)SC)NCCCOC

> <PUBCHEM_CACTVS_TPSA>
107

> <PUBCHEM_MONOISOTOPIC_WEIGHT>
301.157246

> <PUBCHEM_TOTAL_CHARGE>
0

> <PUBCHEM_HEAVY_ATOM_COUNT>
20

> <PUBCHEM_ATOM_DEF_STEREO_COUNT>
0

> <PUBCHEM_ATOM_UDEF_STEREO_COUNT>
0

> <PUBCHEM_BOND_DEF_STEREO_COUNT>
0

> <PUBCHEM_BOND_UDEF_STEREO_COUNT>
0

> <PUBCHEM_ISOTOPIC_ATOM_COUNT>
0

> <PUBCHEM_COMPONENT_COUNT>
1

> <PUBCHEM_CACTVS_TAUTO_COUNT>
5

> <PUBCHEM_COORDINATE_TYPE>
1
5
255

> <PUBCHEM_BONDANNOTATIONS>
6  15  8
6  16  8
7  16  8
7  17  8
8  15  8
8  17  8

$$$$

