   Color/Form
        PALE YELLOW PLATES FROM ETHANOL, OR PALE YELLOW PLATES FROM
   ETHANOL/BENZENE
   from [1]HSDB

   Melting Point
        162.4 DEG C
   from [2]HSDB

   Octanol/Water Partition Coefficient
        log Kow = 7.71
   from [3]HSDB

   Solubilities

     * SOL IN CONCN SULFURIC ACID
     * Soluble in olive oil

   from [4]HSDB

   Other Chemical/Physical Properties
        CRIMSON NEEDLES /1,3,5-TRINITROBENZENE COMPLEX/; TRANSIENT BLUE
   COLOR CHANGING TO CRIMSON /CONCN SULFURIC ACID SOLN/
   from [5]HSDB

   Computed Properties
   Molecular Weight                  302.36796 [g/mol]
   Molecular Formula                 C[24]H[14]
   XLogP3                            7.2
   H-Bond Donor                      0
   H-Bond Acceptor                   0
   Rotatable Bond Count              0
   Exact Mass                        302.10955
   MonoIsotopic Mass                 302.10955
   Topological Polar Surface Area    0
   Heavy Atom Count                  24
   Formal Charge                     0
   Complexity                        480
   Isotope Atom Count                0
   Defined Atom Stereocenter Count   0
   Undefined Atom Stereocenter Count 0
   Defined Bond Stereocenter Count   0
   Undefined Bond Stereocenter Count 0
   Covalently-Bonded Unit Count      1
   Feature 3D Ring Count             6
   Effective Rotor Count             0
   Conformer Sampling RMSD           0.6
   CID Conformer Count               [6]1

References

   1. http://toxnet.nlm.nih.gov/cgi-bin/sis/search/r?dbs+hsdb:@term+@rn+@rel+191-30-0
   2. http://toxnet.nlm.nih.gov/cgi-bin/sis/search/r?dbs+hsdb:@term+@rn+@rel+191-30-0
   3. http://toxnet.nlm.nih.gov/cgi-bin/sis/search/r?dbs+hsdb:@term+@rn+@rel+191-30-0
   4. http://toxnet.nlm.nih.gov/cgi-bin/sis/search/r?dbs+hsdb:@term+@rn+@rel+191-30-0
   5. http://toxnet.nlm.nih.gov/cgi-bin/sis/search/r?dbs+hsdb:@term+@rn+@rel+191-30-0
   6. http://pubchem.ncbi.nlm.nih.gov/vw3d/vw3d.cgi?cid=9119
