443422
  -OEChem-07051213022D

 46 50  0     1  0  0  0  0  0999 V2000
    9.3729   -3.0309    0.0000 O   0  0  0  0  0  0  0  0  0  0  0  0
   10.8248   -2.1927    0.0000 O   0  0  0  0  0  0  0  0  0  0  0  0
    4.6874    2.6283    0.0000 O   0  0  0  0  0  0  0  0  0  0  0  0
    2.8680    1.5964    0.0000 O   0  0  0  0  0  0  0  0  0  0  0  0
    7.4070    1.0506    0.0000 N   0  0  3  0  0  0  0  0  0  0  0  0
    7.4070    0.0506    0.0000 C   0  0  2  0  0  0  0  0  0  0  0  0
    6.5130   -0.4840    0.0000 C   0  0  0  0  0  0  0  0  0  0  0  0
    8.2730   -0.4494    0.0000 C   0  0  0  0  0  0  0  0  0  0  0  0
    8.2730    1.5506    0.0000 C   0  0  0  0  0  0  0  0  0  0  0  0
    6.5130    1.5853    0.0000 C   0  0  0  0  0  0  0  0  0  0  0  0
    9.1390    1.0506    0.0000 C   0  0  0  0  0  0  0  0  0  0  0  0
    9.1390    0.0506    0.0000 C   0  0  0  0  0  0  0  0  0  0  0  0
    5.6070    0.0298    0.0000 C   0  0  0  0  0  0  0  0  0  0  0  0
    5.6070    1.0714    0.0000 C   0  0  0  0  0  0  0  0  0  0  0  0
    8.2570   -1.4909    0.0000 C   0  0  0  0  0  0  0  0  0  0  0  0
   10.0490   -0.4562    0.0000 C   0  0  0  0  0  0  0  0  0  0  0  0
    4.6758    1.6284    0.0000 C   0  0  0  0  0  0  0  0  0  0  0  0
    4.6758   -0.5271    0.0000 C   0  0  0  0  0  0  0  0  0  0  0  0
    9.1550   -2.0186    0.0000 C   0  0  0  0  0  0  0  0  0  0  0  0
   10.0571   -1.4978    0.0000 C   0  0  0  0  0  0  0  0  0  0  0  0
    3.7320    1.0931    0.0000 C   0  0  0  0  0  0  0  0  0  0  0  0
    3.7320    0.0081    0.0000 C   0  0  0  0  0  0  0  0  0  0  0  0
   10.4028   -3.1383    0.0000 C   0  0  0  0  0  0  0  0  0  0  0  0
    3.8272    3.1383    0.0000 C   0  0  0  0  0  0  0  0  0  0  0  0
    2.0000    1.0998    0.0000 C   0  0  0  0  0  0  0  0  0  0  0  0
    7.4135   -0.7994    0.0000 H   0  0  0  0  0  0  0  0  0  0  0  0
    6.1194   -0.9631    0.0000 H   0  0  0  0  0  0  0  0  0  0  0  0
    6.9176   -0.9538    0.0000 H   0  0  0  0  0  0  0  0  0  0  0  0
    8.6716    2.0256    0.0000 H   0  0  0  0  0  0  0  0  0  0  0  0
    7.8745    2.0256    0.0000 H   0  0  0  0  0  0  0  0  0  0  0  0
    6.9176    2.0551    0.0000 H   0  0  0  0  0  0  0  0  0  0  0  0
    6.1194    2.0643    0.0000 H   0  0  0  0  0  0  0  0  0  0  0  0
    9.7496    0.9430    0.0000 H   0  0  0  0  0  0  0  0  0  0  0  0
    9.3511    1.6332    0.0000 H   0  0  0  0  0  0  0  0  0  0  0  0
    7.7165   -1.7947    0.0000 H   0  0  0  0  0  0  0  0  0  0  0  0
   10.5824   -0.1400    0.0000 H   0  0  0  0  0  0  0  0  0  0  0  0
    4.6830   -1.1471    0.0000 H   0  0  0  0  0  0  0  0  0  0  0  0
    3.1963   -0.3039    0.0000 H   0  0  0  0  0  0  0  0  0  0  0  0
   10.2741   -3.7448    0.0000 H   0  0  0  0  0  0  0  0  0  0  0  0
   10.9924   -3.3300    0.0000 H   0  0  0  0  0  0  0  0  0  0  0  0
    4.1434    3.6716    0.0000 H   0  0  0  0  0  0  0  0  0  0  0  0
    3.2939    3.4544    0.0000 H   0  0  0  0  0  0  0  0  0  0  0  0
    3.5110    2.6050    0.0000 H   0  0  0  0  0  0  0  0  0  0  0  0
    1.6921    1.6379    0.0000 H   0  0  0  0  0  0  0  0  0  0  0  0
    1.4619    0.7919    0.0000 H   0  0  0  0  0  0  0  0  0  0  0  0
    2.3079    0.5617    0.0000 H   0  0  0  0  0  0  0  0  0  0  0  0
  1 19  1  0  0  0  0
  1 23  1  0  0  0  0
  2 20  1  0  0  0  0
  2 23  1  0  0  0  0
  3 17  1  0  0  0  0
  3 24  1  0  0  0  0
  4 21  1  0  0  0  0
  4 25  1  0  0  0  0
  5  6  1  0  0  0  0
  5  9  1  0  0  0  0
  5 10  1  0  0  0  0
  6  7  1  0  0  0  0
  6  8  1  0  0  0  0
  6 26  1  6  0  0  0
  7 13  1  0  0  0  0
  7 27  1  0  0  0  0
  7 28  1  0  0  0  0
  8 12  1  0  0  0  0
  8 15  2  0  0  0  0
  9 11  1  0  0  0  0
  9 29  1  0  0  0  0
  9 30  1  0  0  0  0
 10 14  1  0  0  0  0
 10 31  1  0  0  0  0
 10 32  1  0  0  0  0
 11 12  1  0  0  0  0
 11 33  1  0  0  0  0
 11 34  1  0  0  0  0
 12 16  2  0  0  0  0
 13 14  2  0  0  0  0
 13 18  1  0  0  0  0
 14 17  1  0  0  0  0
 15 19  1  0  0  0  0
 15 35  1  0  0  0  0
 16 20  1  0  0  0  0
 16 36  1  0  0  0  0
 17 21  2  0  0  0  0
 18 22  2  0  0  0  0
 18 37  1  0  0  0  0
 19 20  2  0  0  0  0
 21 22  1  0  0  0  0
 22 38  1  0  0  0  0
 23 39  1  0  0  0  0
 23 40  1  0  0  0  0
 24 41  1  0  0  0  0
 24 42  1  0  0  0  0
 24 43  1  0  0  0  0
 25 44  1  0  0  0  0
 25 45  1  0  0  0  0
 25 46  1  0  0  0  0
M  END
> <PUBCHEM_COMPOUND_CID>
443422

> <PUBCHEM_COMPOUND_CANONICALIZED>
1

> <PUBCHEM_CACTVS_COMPLEXITY>
488

> <PUBCHEM_CACTVS_HBOND_ACCEPTOR>
5

> <PUBCHEM_CACTVS_HBOND_DONOR>
0

> <PUBCHEM_CACTVS_ROTATABLE_BOND>
2

> <PUBCHEM_CACTVS_SUBSKEYS>
AAADceB6OAAAAAAAAAAAAAAAAAAAASAAAAA8eIEAAAAAAEixQAAAHgAAAAAADCzBmAcyDoMABACAAiBCAACCCAAgIAAIiAAOjIgdJiKEsRukMCpmwBGOqAew0PMOoAABAAAYQABAAAIAADCAAAAAAAAAAA==

> <PUBCHEM_IUPAC_INCHI>
InChI=1S/C20H21NO4/c1-22-17-4-3-12-7-16-14-9-19-18(24-11-25-19)8-13(14)5-6-21(16)10-15(12)20(17)23-2/h3-4,8-9,16H,5-7,10-11H2,1-2H3/t16-/m1/s1

> <PUBCHEM_IUPAC_INCHIKEY>
VZTUIEROBZXUFA-MRXNPFEDSA-N

> <PUBCHEM_XLOGP3_AA>
3.1

> <PUBCHEM_EXACT_MASS>
339.147058

> <PUBCHEM_MOLECULAR_FORMULA>
C20H21NO4

> <PUBCHEM_MOLECULAR_WEIGHT>
339.38504

> <PUBCHEM_OPENEYE_CAN_SMILES>
COC1=C(C2=C(CC3C4=CC5=C(C=C4CCN3C2)OCO5)C=C1)OC

> <PUBCHEM_OPENEYE_ISO_SMILES>
COC1=C(C2=C(C[C@@H]3C4=CC5=C(C=C4CCN3C2)OCO5)C=C1)OC

> <PUBCHEM_CACTVS_TPSA>
40.2

> <PUBCHEM_MONOISOTOPIC_WEIGHT>
339.147058

> <PUBCHEM_TOTAL_CHARGE>
0

> <PUBCHEM_HEAVY_ATOM_COUNT>
25

> <PUBCHEM_ATOM_DEF_STEREO_COUNT>
1

> <PUBCHEM_ATOM_UDEF_STEREO_COUNT>
0

> <PUBCHEM_BOND_DEF_STEREO_COUNT>
0

> <PUBCHEM_BOND_UDEF_STEREO_COUNT>
0

> <PUBCHEM_ISOTOPIC_ATOM_COUNT>
0

> <PUBCHEM_COMPONENT_COUNT>
1

> <PUBCHEM_CACTVS_TAUTO_COUNT>
1

> <PUBCHEM_COORDINATE_TYPE>
1
5
255

> <PUBCHEM_BONDANNOTATIONS>
12  16  8
13  14  8
13  18  8
14  17  8
15  19  8
16  20  8
17  21  8
18  22  8
19  20  8
21  22  8
6  26  6
8  12  8
8  15  8

$$$$

