156680
  -OEChem-07051212592D

 67 72  0     1  0  0  0  0  0999 V2000
    6.7942   -2.1586    0.0000 O   0  0  0  0  0  0  0  0  0  0  0  0
    9.5801    0.6258    0.0000 O   0  0  0  0  0  0  0  0  0  0  0  0
    5.8505    0.3132    0.0000 O   0  0  0  0  0  0  0  0  0  0  0  0
   11.3503    2.6846    0.0000 O   0  0  0  0  0  0  0  0  0  0  0  0
    5.9693    1.3342    0.0000 O   0  0  0  0  0  0  0  0  0  0  0  0
    7.8201    3.6605    0.0000 O   0  0  0  0  0  0  0  0  0  0  0  0
    9.9024   -0.1970    0.0000 O   0  0  0  0  0  0  0  0  0  0  0  0
   10.1030   -3.3887    0.0000 O   0  0  0  0  0  0  0  0  0  0  0  0
   12.2066   -1.8670    0.0000 O   0  0  0  0  0  0  0  0  0  0  0  0
    2.2120   -2.0872    0.0000 O   0  0  0  0  0  0  0  0  0  0  0  0
   13.9425   -0.8737    0.0000 O   0  0  0  0  0  0  0  0  0  0  0  0
    7.4782   -0.2793    0.0000 C   0  0  1  0  0  0  0  0  0  0  0  0
    6.4933   -0.4529    0.0000 C   0  0  2  0  0  0  0  0  0  0  0  0
    7.8201    0.6605    0.0000 C   0  0  0  0  0  0  0  0  0  0  0  0
    6.1513   -1.3926    0.0000 C   0  0  1  0  0  0  0  0  0  0  0  0
    8.1209   -1.0453    0.0000 C   0  0  0  0  0  0  0  0  0  0  0  0
    8.6862    1.1605    0.0000 C   0  0  0  0  0  0  0  0  0  0  0  0
    8.6862    2.1605    0.0000 C   0  0  0  0  0  0  0  0  0  0  0  0
   10.4862    2.1813    0.0000 C   0  0  2  0  0  0  0  0  0  0  0  0
   10.4862    1.1396    0.0000 C   0  0  1  0  0  0  0  0  0  0  0  0
    9.5801    2.6951    0.0000 C   0  0  0  0  0  0  0  0  0  0  0  0
    7.7789   -1.9850    0.0000 C   0  0  0  0  0  0  0  0  0  0  0  0
    6.9541    1.1605    0.0000 C   0  0  0  0  0  0  0  0  0  0  0  0
    5.1665   -1.5662    0.0000 C   0  0  0  0  0  0  0  0  0  0  0  0
    7.8201    2.6605    0.0000 C   0  0  0  0  0  0  0  0  0  0  0  0
    9.1438   -0.8486    0.0000 C   0  0  0  0  0  0  0  0  0  0  0  0
    6.9541    2.1605    0.0000 C   0  0  0  0  0  0  0  0  0  0  0  0
   11.3503    0.6363    0.0000 C   0  0  0  0  0  0  0  0  0  0  0  0
    8.4360   -2.7931    0.0000 C   0  0  0  0  0  0  0  0  0  0  0  0
    9.8195   -1.6414    0.0000 C   0  0  0  0  0  0  0  0  0  0  0  0
    9.4632   -2.6202    0.0000 C   0  0  0  0  0  0  0  0  0  0  0  0
    4.8245   -2.5059    0.0000 C   0  0  0  0  0  0  0  0  0  0  0  0
    4.5237   -0.8002    0.0000 C   0  0  0  0  0  0  0  0  0  0  0  0
   11.3464   -0.3637    0.0000 C   0  0  0  0  0  0  0  0  0  0  0  0
   12.2182    1.1330    0.0000 C   0  0  0  0  0  0  0  0  0  0  0  0
    3.8397   -2.6796    0.0000 C   0  0  0  0  0  0  0  0  0  0  0  0
    3.5389   -0.9738    0.0000 C   0  0  0  0  0  0  0  0  0  0  0  0
   12.2105   -0.8670    0.0000 C   0  0  0  0  0  0  0  0  0  0  0  0
    3.1969   -1.9135    0.0000 C   0  0  0  0  0  0  0  0  0  0  0  0
   13.0823    0.6296    0.0000 C   0  0  0  0  0  0  0  0  0  0  0  0
   13.0784   -0.3704    0.0000 C   0  0  0  0  0  0  0  0  0  0  0  0
    6.9318    0.3719    0.0000 H   0  0  0  0  0  0  0  0  0  0  0  0
    5.8827   -0.5606    0.0000 H   0  0  0  0  0  0  0  0  0  0  0  0
    5.9393   -1.9752    0.0000 H   0  0  0  0  0  0  0  0  0  0  0  0
   11.0237    1.8723    0.0000 H   0  0  0  0  0  0  0  0  0  0  0  0
   11.0237    1.4486    0.0000 H   0  0  0  0  0  0  0  0  0  0  0  0
    9.9737    3.1742    0.0000 H   0  0  0  0  0  0  0  0  0  0  0  0
    9.1755    3.1649    0.0000 H   0  0  0  0  0  0  0  0  0  0  0  0
    6.4172    2.4705    0.0000 H   0  0  0  0  0  0  0  0  0  0  0  0
    5.2399    0.2055    0.0000 H   0  0  0  0  0  0  0  0  0  0  0  0
    8.2173   -3.3732    0.0000 H   0  0  0  0  0  0  0  0  0  0  0  0
   10.4296   -1.5313    0.0000 H   0  0  0  0  0  0  0  0  0  0  0  0
    5.2230   -2.9809    0.0000 H   0  0  0  0  0  0  0  0  0  0  0  0
    4.7357   -0.2176    0.0000 H   0  0  0  0  0  0  0  0  0  0  0  0
   11.3479    3.3046    0.0000 H   0  0  0  0  0  0  0  0  0  0  0  0
   10.8083   -0.6716    0.0000 H   0  0  0  0  0  0  0  0  0  0  0  0
   12.2206    1.7530    0.0000 H   0  0  0  0  0  0  0  0  0  0  0  0
    5.7573    1.9168    0.0000 H   0  0  0  0  0  0  0  0  0  0  0  0
    7.2832    3.9705    0.0000 H   0  0  0  0  0  0  0  0  0  0  0  0
   10.4874   -0.4023    0.0000 H   0  0  0  0  0  0  0  0  0  0  0  0
    3.6276   -3.2622    0.0000 H   0  0  0  0  0  0  0  0  0  0  0  0
    3.1403   -0.4989    0.0000 H   0  0  0  0  0  0  0  0  0  0  0  0
   13.6204    0.9376    0.0000 H   0  0  0  0  0  0  0  0  0  0  0  0
    9.8887   -3.9705    0.0000 H   0  0  0  0  0  0  0  0  0  0  0  0
   12.7424   -2.1791    0.0000 H   0  0  0  0  0  0  0  0  0  0  0  0
    2.0000   -2.6698    0.0000 H   0  0  0  0  0  0  0  0  0  0  0  0
   14.4807   -0.5658    0.0000 H   0  0  0  0  0  0  0  0  0  0  0  0
  1 15  1  0  0  0  0
  1 22  1  0  0  0  0
  2 17  1  0  0  0  0
  2 20  1  0  0  0  0
 13  3  1  6  0  0  0
  3 50  1  0  0  0  0
 19  4  1  6  0  0  0
  4 55  1  0  0  0  0
  5 23  1  0  0  0  0
  5 58  1  0  0  0  0
  6 25  1  0  0  0  0
  6 59  1  0  0  0  0
  7 26  1  0  0  0  0
  7 60  1  0  0  0  0
  8 31  1  0  0  0  0
  8 64  1  0  0  0  0
  9 38  1  0  0  0  0
  9 65  1  0  0  0  0
 10 39  1  0  0  0  0
 10 66  1  0  0  0  0
 11 41  1  0  0  0  0
 11 67  1  0  0  0  0
 12 13  1  0  0  0  0
 12 14  1  0  0  0  0
 12 16  1  0  0  0  0
 12 42  1  6  0  0  0
 13 15  1  0  0  0  0
 13 43  1  0  0  0  0
 14 17  1  0  0  0  0
 14 23  2  0  0  0  0
 15 24  1  6  0  0  0
 15 44  1  0  0  0  0
 16 22  1  0  0  0  0
 16 26  2  0  0  0  0
 17 18  2  0  0  0  0
 18 21  1  0  0  0  0
 18 25  1  0  0  0  0
 19 20  1  0  0  0  0
 19 21  1  0  0  0  0
 19 45  1  0  0  0  0
 20 28  1  1  0  0  0
 20 46  1  0  0  0  0
 21 47  1  0  0  0  0
 21 48  1  0  0  0  0
 22 29  2  0  0  0  0
 23 27  1  0  0  0  0
 24 32  2  0  0  0  0
 24 33  1  0  0  0  0
 25 27  2  0  0  0  0
 26 30  1  0  0  0  0
 27 49  1  0  0  0  0
 28 34  2  0  0  0  0
 28 35  1  0  0  0  0
 29 31  1  0  0  0  0
 29 51  1  0  0  0  0
 30 31  2  0  0  0  0
 30 52  1  0  0  0  0
 32 36  1  0  0  0  0
 32 53  1  0  0  0  0
 33 37  2  0  0  0  0
 33 54  1  0  0  0  0
 34 38  1  0  0  0  0
 34 56  1  0  0  0  0
 35 40  2  0  0  0  0
 35 57  1  0  0  0  0
 36 39  2  0  0  0  0
 36 61  1  0  0  0  0
 37 39  1  0  0  0  0
 37 62  1  0  0  0  0
 38 41  2  0  0  0  0
 40 41  1  0  0  0  0
 40 63  1  0  0  0  0
M  END
> <PUBCHEM_COMPOUND_CID>
156680

> <PUBCHEM_COMPOUND_CANONICALIZED>
1

> <PUBCHEM_CACTVS_COMPLEXITY>
885

> <PUBCHEM_CACTVS_HBOND_ACCEPTOR>
11

> <PUBCHEM_CACTVS_HBOND_DONOR>
9

> <PUBCHEM_CACTVS_ROTATABLE_BOND>
3

> <PUBCHEM_CACTVS_SUBSKEYS>
AAADceB4PAAAAAAAAAAAAAAAAAAAAAAAAAA0aMGCAAAAAACRVAAAGgAACAAADRSgmAIwBoAABgCAAiBCAAACCAAgIAAIiAAGiIgNNyKGMRqCeCGlwBULuAfA4PwOoAADCAAIQABAAAYQABCAAAAAAAAAAA==

> <PUBCHEM_IUPAC_OPENEYE_NAME>
(2R,3S)-2-(3,4-dihydroxyphenyl)-8-[(2R,3R,4R)-3,5,7-trihydroxy-2-(4-hydroxyphenyl)chroman-4-yl]chromane-3,5,7-triol

> <PUBCHEM_IUPAC_CAS_NAME>
(2R,3S)-2-(3,4-dihydroxyphenyl)-8-[(2R,3R,4R)-3,5,7-trihydroxy-2-(4-hydroxyphenyl)-3,4-dihydro-2H-1-benzopyran-4-yl]-3,4-dihydro-2H-1-benzopyran-3,5,7-triol

> <PUBCHEM_IUPAC_NAME>
(2R,3S)-2-(3,4-dihydroxyphenyl)-8-[(2R,3R,4R)-3,5,7-trihydroxy-2-(4-hydroxyphenyl)-3,4-dihydro-2H-chromen-4-yl]-3,4-dihydro-2H-chromene-3,5,7-triol

> <PUBCHEM_IUPAC_SYSTEMATIC_NAME>
(2R,3S)-2-[3,4-bis(oxidanyl)phenyl]-8-[(2R,3R,4R)-2-(4-hydroxyphenyl)-3,5,7-tris(oxidanyl)-3,4-dihydro-2H-chromen-4-yl]-3,4-dihydro-2H-chromene-3,5,7-triol

> <PUBCHEM_IUPAC_TRADITIONAL_NAME>
(2R,3S)-2-(3,4-dihydroxyphenyl)-8-[(2R,3R,4R)-3,5,7-trihydroxy-2-(4-hydroxyphenyl)chroman-4-yl]chroman-3,5,7-triol

> <PUBCHEM_IUPAC_INCHI>
InChI=1S/C30H26O11/c31-14-4-1-12(2-5-14)29-27(39)26(24-20(36)8-15(32)9-23(24)40-29)25-21(37)11-18(34)16-10-22(38)28(41-30(16)25)13-3-6-17(33)19(35)7-13/h1-9,11,22,26-29,31-39H,10H2/t22-,26+,27+,28+,29+/m0/s1

> <PUBCHEM_IUPAC_INCHIKEY>
KUODBSWFMJMVJV-UKWJTHFESA-N

> <PUBCHEM_XLOGP3_AA>
2.7

> <PUBCHEM_EXACT_MASS>
562.147512

> <PUBCHEM_MOLECULAR_FORMULA>
C30H26O11

> <PUBCHEM_MOLECULAR_WEIGHT>
562.52084

> <PUBCHEM_OPENEYE_CAN_SMILES>
C1C(C(OC2=C1C(=CC(=C2C3C(C(OC4=CC(=CC(=C34)O)O)C5=CC=C(C=C5)O)O)O)O)C6=CC(=C(C=C6)O)O)O

> <PUBCHEM_OPENEYE_ISO_SMILES>
C1[C@@H]([C@H](OC2=C1C(=CC(=C2[C@@H]3[C@H]([C@H](OC4=CC(=CC(=C34)O)O)C5=CC=C(C=C5)O)O)O)O)C6=CC(=C(C=C6)O)O)O

> <PUBCHEM_CACTVS_TPSA>
201

> <PUBCHEM_MONOISOTOPIC_WEIGHT>
562.147512

> <PUBCHEM_TOTAL_CHARGE>
0

> <PUBCHEM_HEAVY_ATOM_COUNT>
41

> <PUBCHEM_ATOM_DEF_STEREO_COUNT>
5

> <PUBCHEM_ATOM_UDEF_STEREO_COUNT>
0

> <PUBCHEM_BOND_DEF_STEREO_COUNT>
0

> <PUBCHEM_BOND_UDEF_STEREO_COUNT>
0

> <PUBCHEM_ISOTOPIC_ATOM_COUNT>
0

> <PUBCHEM_COMPONENT_COUNT>
1

> <PUBCHEM_CACTVS_TAUTO_COUNT>
994

> <PUBCHEM_COORDINATE_TYPE>
1
5
255

> <PUBCHEM_BONDANNOTATIONS>
12  42  6
14  17  8
14  23  8
15  24  6
16  22  8
16  26  8
17  18  8
18  25  8
20  28  5
22  29  8
23  27  8
24  32  8
24  33  8
25  27  8
26  30  8
28  34  8
28  35  8
29  31  8
13  3  6
30  31  8
32  36  8
33  37  8
34  38  8
35  40  8
36  39  8
37  39  8
38  41  8
19  4  6
40  41  8

$$$$

