   Color/Form

     * Greenish-yellow liquid
     * Yellow liquid

   from [1]HSDB

   Odor

     * Quinone odor; vapors have a chlorine-like odor
     * RANCID BUTTER ODOR
     * Strong odor

   from [2]HSDB

   Taste

     * WITH BUTTER TASTE AT 1 PPM
     * Threshold taste detection in milk (gas chromatically pure):
       1.40X10-2 ppm and 2.90X10-2 ppm; in skim milk: 1.00X10-1 ppm
     * Threshold taste detection in water (gas chromatically pure):
       5.40X10-3 ppm; in water: 1.00X10-8% (volume/volume or wg/wg).

   from [3]HSDB

   Boiling Point
        88 deg C
   from [4]HSDB

   Melting Point
        -1.2 deg C
   from [5]HSDB

   Density/Specific Gravity
        0.990 at 15 deg C/15 deg C
   from [6]HSDB

   Octanol/Water Partition Coefficient
        log Kow = -1.34
   from [7]HSDB

   Solubilities

     * Readily soluble in all important organic solvents
     * Sol in about 4 parts water; miscible with ether
     * Miscible in fixed oils, propylene glycol; soluble in glycerin,
       alcohol
     * Soluble in benzene, carbon tetrachloride
     * Very soluble in acetone
     * SOL IN CARBITOLS
     * In water, 200 g/L at 15 deg C

   from [8]HSDB

   Spectral Properties

     * Index of refraction: 1.3951 at 20 deg C.
     * MAX ABSORPTION (HEPTANE): 510 NM (LOG E= -3.22)
     * SADTLER REF NUMBER: 2977 (IR, PRISM)
     * IR: 3571 (Coblentz Society Spectral Collection)
     * UV: 857 (Sadtler Research Laboratories Spectral Collection)
     * 1H NMR: 9368 (Sadtler Research Laboratories Spectral Collection)
     * MASS: 52603 (NIST/EPA/MSDC Mass Spectral database, 1990 version);
       4229 (National Bureau of Standards)

   from [9]HSDB

   Vapor Density
        3.00 /Air = 1/
   from [10]HSDB

   Vapor Pressure
        56.8 mm Hg at 25 deg C
   from [11]HSDB

   Other Chemical/Physical Properties

     * Enthalpy of formation (liq) = -87.44 kcal/mol
     * Enthalpy of sublimation (298 K) = 9.25 kcal/mol
     * Hydroxyl radical reaction rate constant = 2.38X10-13 cu cm/molc-sec
       at 25 deg C
     * Henry's Law constant = 1.33X10-5 atm-cu m/mol at 25 deg C

   from [12]HSDB

   Computed Properties
   Molecular Weight                  86.08924 [g/mol]
   Molecular Formula                 C[4]H[6]O[2]
   XLogP3                            -1.3
   H-Bond Donor                      0
   H-Bond Acceptor                   2
   Rotatable Bond Count              1
   Tautomer Count                    3
   Exact Mass                        86.036779
   MonoIsotopic Mass                 86.036779
   Topological Polar Surface Area    34.1
   Heavy Atom Count                  6
   Formal Charge                     0
   Complexity                        71.5
   Isotope Atom Count                0
   Defined Atom Stereocenter Count   0
   Undefined Atom Stereocenter Count 0
   Defined Bond Stereocenter Count   0
   Undefined Bond Stereocenter Count 0
   Covalently-Bonded Unit Count      1
   Feature 3D Acceptor Count         2
   Effective Rotor Count             1
   Conformer Sampling RMSD           0.4
   CID Conformer Count               [13]6

References

   1. http://toxnet.nlm.nih.gov/cgi-bin/sis/search/r?dbs+hsdb:@term+@rn+@rel+431-03-8
   2. http://toxnet.nlm.nih.gov/cgi-bin/sis/search/r?dbs+hsdb:@term+@rn+@rel+431-03-8
   3. http://toxnet.nlm.nih.gov/cgi-bin/sis/search/r?dbs+hsdb:@term+@rn+@rel+431-03-8
   4. http://toxnet.nlm.nih.gov/cgi-bin/sis/search/r?dbs+hsdb:@term+@rn+@rel+431-03-8
   5. http://toxnet.nlm.nih.gov/cgi-bin/sis/search/r?dbs+hsdb:@term+@rn+@rel+431-03-8
   6. http://toxnet.nlm.nih.gov/cgi-bin/sis/search/r?dbs+hsdb:@term+@rn+@rel+431-03-8
   7. http://toxnet.nlm.nih.gov/cgi-bin/sis/search/r?dbs+hsdb:@term+@rn+@rel+431-03-8
   8. http://toxnet.nlm.nih.gov/cgi-bin/sis/search/r?dbs+hsdb:@term+@rn+@rel+431-03-8
   9. http://toxnet.nlm.nih.gov/cgi-bin/sis/search/r?dbs+hsdb:@term+@rn+@rel+431-03-8
  10. http://toxnet.nlm.nih.gov/cgi-bin/sis/search/r?dbs+hsdb:@term+@rn+@rel+431-03-8
  11. http://toxnet.nlm.nih.gov/cgi-bin/sis/search/r?dbs+hsdb:@term+@rn+@rel+431-03-8
  12. http://toxnet.nlm.nih.gov/cgi-bin/sis/search/r?dbs+hsdb:@term+@rn+@rel+431-03-8
  13. http://pubchem.ncbi.nlm.nih.gov/vw3d/vw3d.cgi?cid=650
