11954142
  -OEChem-07051213072D

 68 71  0     1  0  0  0  0  0999 V2000
    8.2591    1.5491    0.0000 O   0  0  0  0  0  0  0  0  0  0  0  0
    3.7320   -3.0032    0.0000 O   0  0  0  0  0  0  0  0  0  0  0  0
    9.7142    2.0486    0.0000 O   0  0  0  0  0  0  0  0  0  0  0  0
    6.5270    1.5491    0.0000 O   0  0  0  0  0  0  0  0  0  0  0  0
    2.8718   -1.4999    0.0000 O   0  0  0  0  0  0  0  0  0  0  0  0
    7.3931   -0.9509    0.0000 C   0  0  1  0  0  0  0  0  0  0  0  0
    8.2591   -1.4509    0.0000 C   0  0  2  0  0  0  0  0  0  0  0  0
    9.1251   -0.9509    0.0000 C   0  0  1  0  0  0  0  0  0  0  0  0
    9.1251    0.0491    0.0000 C   0  0  2  0  0  0  0  0  0  0  0  0
    6.4831   -1.4578    0.0000 C   0  0  2  0  0  0  0  0  0  0  0  0
    6.4750   -2.4994    0.0000 C   0  0  2  0  0  0  0  0  0  0  0  0
    8.2591    0.5491    0.0000 C   0  0  2  0  0  0  0  0  0  0  0  0
    7.3931    0.0491    0.0000 C   0  0  0  0  0  0  0  0  0  0  0  0
   10.0713    0.3538    0.0000 C   0  0  2  0  0  0  0  0  0  0  0  0
    8.2752   -2.4924    0.0000 C   0  0  0  0  0  0  0  0  0  0  0  0
   10.0713   -1.2556    0.0000 C   0  0  0  0  0  0  0  0  0  0  0  0
    7.3771   -3.0202    0.0000 C   0  0  0  0  0  0  0  0  0  0  0  0
   10.6550   -0.4509    0.0000 C   0  0  0  0  0  0  0  0  0  0  0  0
    5.5562   -0.8937    0.0000 C   0  0  0  0  0  0  0  0  0  0  0  0
    5.5396   -3.0491    0.0000 C   0  0  0  0  0  0  0  0  0  0  0  0
    9.1251    1.0491    0.0000 C   0  0  0  0  0  0  0  0  0  0  0  0
    6.4908   -0.4578    0.0000 C   0  0  0  0  0  0  0  0  0  0  0  0
    4.6084   -1.4216    0.0000 C   0  0  0  0  0  0  0  0  0  0  0  0
    4.6000   -2.5066    0.0000 C   0  0  1  0  0  0  0  0  0  0  0  0
   10.3820    1.3043    0.0000 C   0  0  0  0  0  0  0  0  0  0  0  0
   11.3605    1.5106    0.0000 C   0  0  0  0  0  0  0  0  0  0  0  0
    7.3931    2.0491    0.0000 C   0  0  0  0  0  0  0  0  0  0  0  0
    2.8680   -2.4999    0.0000 C   0  0  0  0  0  0  0  0  0  0  0  0
    7.3931    3.0491    0.0000 C   0  0  0  0  0  0  0  0  0  0  0  0
    2.0000   -2.9966    0.0000 C   0  0  0  0  0  0  0  0  0  0  0  0
    8.1292   -0.5259    0.0000 H   0  0  0  0  0  0  0  0  0  0  0  0
    8.9985   -1.8702    0.0000 H   0  0  0  0  0  0  0  0  0  0  0  0
    9.2151   -1.7961    0.0000 H   0  0  0  0  0  0  0  0  0  0  0  0
    6.4783   -3.3494    0.0000 H   0  0  0  0  0  0  0  0  0  0  0  0
    8.7960    0.8591    0.0000 H   0  0  0  0  0  0  0  0  0  0  0  0
    7.1810    0.6317    0.0000 H   0  0  0  0  0  0  0  0  0  0  0  0
    6.7825   -0.0586    0.0000 H   0  0  0  0  0  0  0  0  0  0  0  0
    9.6339    0.7932    0.0000 H   0  0  0  0  0  0  0  0  0  0  0  0
    8.4932   -3.0728    0.0000 H   0  0  0  0  0  0  0  0  0  0  0  0
    8.8843   -2.3769    0.0000 H   0  0  0  0  0  0  0  0  0  0  0  0
    9.8203   -1.8226    0.0000 H   0  0  0  0  0  0  0  0  0  0  0  0
   10.6087   -1.5649    0.0000 H   0  0  0  0  0  0  0  0  0  0  0  0
    6.9798   -3.4962    0.0000 H   0  0  0  0  0  0  0  0  0  0  0  0
    7.7781   -3.4931    0.0000 H   0  0  0  0  0  0  0  0  0  0  0  0
   11.1158   -0.8656    0.0000 H   0  0  0  0  0  0  0  0  0  0  0  0
   11.1158   -0.0362    0.0000 H   0  0  0  0  0  0  0  0  0  0  0  0
    5.9644   -0.4270    0.0000 H   0  0  0  0  0  0  0  0  0  0  0  0
    5.1663   -0.4116    0.0000 H   0  0  0  0  0  0  0  0  0  0  0  0
    5.1423   -3.5251    0.0000 H   0  0  0  0  0  0  0  0  0  0  0  0
    5.9406   -3.5220    0.0000 H   0  0  0  0  0  0  0  0  0  0  0  0
    9.7451    1.0491    0.0000 H   0  0  0  0  0  0  0  0  0  0  0  0
    9.1251    1.6691    0.0000 H   0  0  0  0  0  0  0  0  0  0  0  0
    8.5051    1.0491    0.0000 H   0  0  0  0  0  0  0  0  0  0  0  0
    7.1108   -0.4626    0.0000 H   0  0  0  0  0  0  0  0  0  0  0  0
    6.4956    0.1622    0.0000 H   0  0  0  0  0  0  0  0  0  0  0  0
    5.8708   -0.4530    0.0000 H   0  0  0  0  0  0  0  0  0  0  0  0
    4.4038   -0.8363    0.0000 H   0  0  0  0  0  0  0  0  0  0  0  0
    3.9967   -1.5230    0.0000 H   0  0  0  0  0  0  0  0  0  0  0  0
    4.0648   -2.1935    0.0000 H   0  0  0  0  0  0  0  0  0  0  0  0
   11.4884    0.9039    0.0000 H   0  0  0  0  0  0  0  0  0  0  0  0
   11.9672    1.6384    0.0000 H   0  0  0  0  0  0  0  0  0  0  0  0
   11.2327    2.1172    0.0000 H   0  0  0  0  0  0  0  0  0  0  0  0
    8.0131    3.0491    0.0000 H   0  0  0  0  0  0  0  0  0  0  0  0
    7.3931    3.6691    0.0000 H   0  0  0  0  0  0  0  0  0  0  0  0
    6.7731    3.0491    0.0000 H   0  0  0  0  0  0  0  0  0  0  0  0
    1.6921   -2.4584    0.0000 H   0  0  0  0  0  0  0  0  0  0  0  0
    1.4619   -3.3045    0.0000 H   0  0  0  0  0  0  0  0  0  0  0  0
    2.3079   -3.5347    0.0000 H   0  0  0  0  0  0  0  0  0  0  0  0
 12  1  1  6  0  0  0
  1 27  1  0  0  0  0
 24  2  1  6  0  0  0
  2 28  1  0  0  0  0
  3 25  2  0  0  0  0
  4 27  2  0  0  0  0
  5 28  2  0  0  0  0
  6  7  1  0  0  0  0
  6 10  1  0  0  0  0
  6 13  1  0  0  0  0
  6 31  1  6  0  0  0
  7  8  1  0  0  0  0
  7 15  1  0  0  0  0
  7 32  1  1  0  0  0
  8  9  1  0  0  0  0
  8 16  1  0  0  0  0
  8 33  1  6  0  0  0
  9 12  1  0  0  0  0
  9 14  1  0  0  0  0
  9 21  1  1  0  0  0
 10 11  1  0  0  0  0
 10 19  1  0  0  0  0
 10 22  1  1  0  0  0
 11 17  1  0  0  0  0
 11 20  1  0  0  0  0
 11 34  1  1  0  0  0
 12 13  1  0  0  0  0
 12 35  1  0  0  0  0
 13 36  1  0  0  0  0
 13 37  1  0  0  0  0
 14 18  1  0  0  0  0
 14 25  1  1  0  0  0
 14 38  1  0  0  0  0
 15 17  1  0  0  0  0
 15 39  1  0  0  0  0
 15 40  1  0  0  0  0
 16 18  1  0  0  0  0
 16 41  1  0  0  0  0
 16 42  1  0  0  0  0
 17 43  1  0  0  0  0
 17 44  1  0  0  0  0
 18 45  1  0  0  0  0
 18 46  1  0  0  0  0
 19 23  1  0  0  0  0
 19 47  1  0  0  0  0
 19 48  1  0  0  0  0
 20 24  1  0  0  0  0
 20 49  1  0  0  0  0
 20 50  1  0  0  0  0
 21 51  1  0  0  0  0
 21 52  1  0  0  0  0
 21 53  1  0  0  0  0
 22 54  1  0  0  0  0
 22 55  1  0  0  0  0
 22 56  1  0  0  0  0
 23 24  1  0  0  0  0
 23 57  1  0  0  0  0
 23 58  1  0  0  0  0
 24 59  1  0  0  0  0
 25 26  1  0  0  0  0
 26 60  1  0  0  0  0
 26 61  1  0  0  0  0
 26 62  1  0  0  0  0
 27 29  1  0  0  0  0
 28 30  1  0  0  0  0
 29 63  1  0  0  0  0
 29 64  1  0  0  0  0
 29 65  1  0  0  0  0
 30 66  1  0  0  0  0
 30 67  1  0  0  0  0
 30 68  1  0  0  0  0
M  END
> <PUBCHEM_COMPOUND_CID>
11954142

> <PUBCHEM_COMPOUND_CANONICALIZED>
1

> <PUBCHEM_CACTVS_COMPLEXITY>
731

> <PUBCHEM_CACTVS_HBOND_ACCEPTOR>
5

> <PUBCHEM_CACTVS_HBOND_DONOR>
0

> <PUBCHEM_CACTVS_ROTATABLE_BOND>
5

> <PUBCHEM_CACTVS_SUBSKEYS>
AAADcfB4OAAAAAAAAAAAAAAAAAAAAYAAAAAwYMAAAAAAAGDAAAAAGgAAAAAADxSggAICCAAABAAIAICQCAAAAAAAAAAAAAEAAAAAABIAAAACAAAEAAAAAAGKyPCPgAAAAAAAAADAAAYAADAAAQAACAAAAA==

> <PUBCHEM_IUPAC_OPENEYE_NAME>
[(3R,5R,8R,9S,10S,12S,13S,14S,17S)-12-acetoxy-17-acetyl-10,13-dimethyl-2,3,4,5,6,7,8,9,11,12,14,15,16,17-tetradecahydro-1H-cyclopenta[a]phenanthren-3-yl] acetate

> <PUBCHEM_IUPAC_CAS_NAME>
acetic acid [(3R,5R,8R,9S,10S,12S,13S,14S,17S)-17-acetyl-12-acetyloxy-10,13-dimethyl-2,3,4,5,6,7,8,9,11,12,14,15,16,17-tetradecahydro-1H-cyclopenta[a]phenanthren-3-yl] ester

> <PUBCHEM_IUPAC_NAME>
[(3R,5R,8R,9S,10S,12S,13S,14S,17S)-17-acetyl-12-acetyloxy-10,13-dimethyl-2,3,4,5,6,7,8,9,11,12,14,15,16,17-tetradecahydro-1H-cyclopenta[a]phenanthren-3-yl] acetate

> <PUBCHEM_IUPAC_SYSTEMATIC_NAME>
[(3R,5R,8R,9S,10S,12S,13S,14S,17S)-12-acetyloxy-17-ethanoyl-10,13-dimethyl-2,3,4,5,6,7,8,9,11,12,14,15,16,17-tetradecahydro-1H-cyclopenta[a]phenanthren-3-yl] ethanoate

> <PUBCHEM_IUPAC_TRADITIONAL_NAME>
acetic acid [(3R,5R,8R,9S,10S,12S,13S,14S,17S)-12-acetoxy-17-acetyl-10,13-dimethyl-2,3,4,5,6,7,8,9,11,12,14,15,16,17-tetradecahydro-1H-cyclopenta[a]phenanthren-3-yl] ester

> <PUBCHEM_IUPAC_INCHI>
InChI=1S/C25H38O5/c1-14(26)20-8-9-21-19-7-6-17-12-18(29-15(2)27)10-11-24(17,4)22(19)13-23(25(20,21)5)30-16(3)28/h17-23H,6-13H2,1-5H3/t17-,18-,19+,20-,21+,22+,23+,24+,25-/m1/s1

> <PUBCHEM_IUPAC_INCHIKEY>
VYZPGMGWYUEREY-LCLDLZHKSA-N

> <PUBCHEM_XLOGP3_AA>
4.7

> <PUBCHEM_EXACT_MASS>
418.271924

> <PUBCHEM_MOLECULAR_FORMULA>
C25H38O5

> <PUBCHEM_MOLECULAR_WEIGHT>
418.56622

> <PUBCHEM_OPENEYE_CAN_SMILES>
CC(=O)C1CCC2C1(C(CC3C2CCC4C3(CCC(C4)OC(=O)C)C)OC(=O)C)C

> <PUBCHEM_OPENEYE_ISO_SMILES>
CC(=O)[C@H]1CC[C@@H]2[C@@]1([C@H](C[C@H]3[C@H]2CC[C@H]4[C@@]3(CC[C@H](C4)OC(=O)C)C)OC(=O)C)C

> <PUBCHEM_CACTVS_TPSA>
69.7

> <PUBCHEM_MONOISOTOPIC_WEIGHT>
418.271924

> <PUBCHEM_TOTAL_CHARGE>
0

> <PUBCHEM_HEAVY_ATOM_COUNT>
30

> <PUBCHEM_ATOM_DEF_STEREO_COUNT>
9

> <PUBCHEM_ATOM_UDEF_STEREO_COUNT>
0

> <PUBCHEM_BOND_DEF_STEREO_COUNT>
0

> <PUBCHEM_BOND_UDEF_STEREO_COUNT>
0

> <PUBCHEM_ISOTOPIC_ATOM_COUNT>
0

> <PUBCHEM_COMPONENT_COUNT>
1

> <PUBCHEM_CACTVS_TAUTO_COUNT>
3

> <PUBCHEM_COORDINATE_TYPE>
1
5
255

> <PUBCHEM_BONDANNOTATIONS>
12  1  6
10  22  5
11  34  5
14  25  5
24  2  6
6  31  6
7  32  5
8  33  6
9  21  5

$$$$

