46173950
  -OEChem-07051213102D

 92 95  0     1  0  0  0  0  0999 V2000
    8.0420   -1.0153    0.0000 O   0  0  0  0  0  0  0  0  0  0  0  0
    6.3100   -2.0153    0.0000 O   0  0  0  0  0  0  0  0  0  0  0  0
    9.8216   -0.9220    0.0000 O   0  0  0  0  0  0  0  0  0  0  0  0
   10.3975    1.6007    0.0000 O   0  0  0  0  0  0  0  0  0  0  0  0
    9.7741   -2.0153    0.0000 O   0  0  0  0  0  0  0  0  0  0  0  0
    4.8100   -2.8813    0.0000 O   0  0  0  0  0  0  0  0  0  0  0  0
   11.9798    0.8962    0.0000 O   0  0  0  0  0  0  0  0  0  0  0  0
    8.2695    1.1484    0.0000 O   0  0  0  0  0  0  0  0  0  0  0  0
    3.3100   -0.2831    0.0000 O   0  0  0  0  0  0  0  0  0  0  0  0
    2.3100   -2.0152    0.0000 O   0  0  0  0  0  0  0  0  0  0  0  0
   13.2000    3.6368    0.0000 O   0  0  0  0  0  0  0  0  0  0  0  0
   14.3756    2.0188    0.0000 O   0  0  0  0  0  0  0  0  0  0  0  0
   11.8920   -1.1970    0.0000 O   0  0  0  0  0  0  0  0  0  0  0  0
   14.5566    0.2962    0.0000 O   0  0  0  0  0  0  0  0  0  0  0  0
   12.6122    4.4459    0.0000 O   0  0  0  0  0  0  0  0  0  0  0  0
    6.6760   -4.3813    0.0000 N   0  0  0  0  0  0  0  0  0  0  0  0
    9.7741   -4.0153    0.0000 N   0  0  0  0  0  0  0  0  0  0  0  0
    5.3100   -0.2832    0.0000 N   0  0  0  0  0  0  0  0  0  0  0  0
   11.2110    3.4278    0.0000 N   0  0  0  0  0  0  0  0  0  0  0  0
    3.8101   -4.6134    0.0000 N   0  0  0  0  0  0  0  0  0  0  0  0
    8.0420   -2.0153    0.0000 C   0  0  1  0  0  0  0  0  0  0  0  0
    7.1760   -2.5153    0.0000 C   0  0  1  0  0  0  0  0  0  0  0  0
    7.1760   -3.5153    0.0000 C   0  0  2  0  0  0  0  0  0  0  0  0
    8.9081   -2.5153    0.0000 C   0  0  2  0  0  0  0  0  0  0  0  0
    8.9081   -3.5153    0.0000 C   0  0  1  0  0  0  0  0  0  0  0  0
    8.0420   -4.0153    0.0000 C   0  0  0  0  0  0  0  0  0  0  0  0
    8.9081   -0.5153    0.0000 C   0  0  2  0  0  0  0  0  0  0  0  0
    9.9908    0.6871    0.0000 C   0  0  1  0  0  0  0  0  0  0  0  0
    9.0126    0.4792    0.0000 C   0  0  1  0  0  0  0  0  0  0  0  0
   10.4908   -0.1789    0.0000 C   0  0  1  0  0  0  0  0  0  0  0  0
    5.3100   -2.0152    0.0000 C   0  0  1  0  0  0  0  0  0  0  0  0
    4.8101   -1.1492    0.0000 C   0  0  1  0  0  0  0  0  0  0  0  0
   11.3920    1.7052    0.0000 C   0  0  1  0  0  0  0  0  0  0  0  0
    3.8100   -1.1492    0.0000 C   0  0  2  0  0  0  0  0  0  0  0  0
   11.7987    2.6188    0.0000 C   0  0  1  0  0  0  0  0  0  0  0  0
    3.3100   -2.0152    0.0000 C   0  0  1  0  0  0  0  0  0  0  0  0
    3.8100   -2.8813    0.0000 C   0  0  1  0  0  0  0  0  0  0  0  0
   12.7933    2.7233    0.0000 C   0  0  2  0  0  0  0  0  0  0  0  0
   11.4853   -0.2834    0.0000 C   0  0  0  0  0  0  0  0  0  0  0  0
   13.3811    1.9143    0.0000 C   0  0  1  0  0  0  0  0  0  0  0  0
   12.9743    1.0007    0.0000 C   0  0  1  0  0  0  0  0  0  0  0  0
    3.3100   -3.7474    0.0000 C   0  0  0  0  0  0  0  0  0  0  0  0
   13.5621    0.1917    0.0000 C   0  0  0  0  0  0  0  0  0  0  0  0
   11.6177    4.3413    0.0000 C   0  0  0  0  0  0  0  0  0  0  0  0
   11.0299    5.1504    0.0000 C   0  0  0  0  0  0  0  0  0  0  0  0
    8.5790   -1.7053    0.0000 H   0  0  0  0  0  0  0  0  0  0  0  0
    7.1760   -1.8953    0.0000 H   0  0  0  0  0  0  0  0  0  0  0  0
    6.5772   -3.3548    0.0000 H   0  0  0  0  0  0  0  0  0  0  0  0
    8.9081   -1.8953    0.0000 H   0  0  0  0  0  0  0  0  0  0  0  0
    8.9081   -4.1353    0.0000 H   0  0  0  0  0  0  0  0  0  0  0  0
    7.6435   -4.4902    0.0000 H   0  0  0  0  0  0  0  0  0  0  0  0
    8.4406   -4.4902    0.0000 H   0  0  0  0  0  0  0  0  0  0  0  0
    8.3881   -0.1776    0.0000 H   0  0  0  0  0  0  0  0  0  0  0  0
   10.6099    0.7196    0.0000 H   0  0  0  0  0  0  0  0  0  0  0  0
    8.4338    0.2570    0.0000 H   0  0  0  0  0  0  0  0  0  0  0  0
   10.7129   -0.7577    0.0000 H   0  0  0  0  0  0  0  0  0  0  0  0
    5.6200   -1.4783    0.0000 H   0  0  0  0  0  0  0  0  0  0  0  0
    5.4300   -1.1492    0.0000 H   0  0  0  0  0  0  0  0  0  0  0  0
   11.0276    2.2068    0.0000 H   0  0  0  0  0  0  0  0  0  0  0  0
    3.1900   -1.1492    0.0000 H   0  0  0  0  0  0  0  0  0  0  0  0
    6.9860   -4.9182    0.0000 H   0  0  0  0  0  0  0  0  0  0  0  0
    6.0560   -4.3812    0.0000 H   0  0  0  0  0  0  0  0  0  0  0  0
   12.0509    3.1852    0.0000 H   0  0  0  0  0  0  0  0  0  0  0  0
    3.0000   -1.4783    0.0000 H   0  0  0  0  0  0  0  0  0  0  0  0
    4.1200   -3.4182    0.0000 H   0  0  0  0  0  0  0  0  0  0  0  0
    9.7741   -4.6353    0.0000 H   0  0  0  0  0  0  0  0  0  0  0  0
   10.3110   -3.7053    0.0000 H   0  0  0  0  0  0  0  0  0  0  0  0
   13.4099    2.7881    0.0000 H   0  0  0  0  0  0  0  0  0  0  0  0
   10.3110   -2.3253    0.0000 H   0  0  0  0  0  0  0  0  0  0  0  0
   12.0869   -0.1334    0.0000 H   0  0  0  0  0  0  0  0  0  0  0  0
   11.4420    0.3351    0.0000 H   0  0  0  0  0  0  0  0  0  0  0  0
   13.6332    2.4807    0.0000 H   0  0  0  0  0  0  0  0  0  0  0  0
   12.7221    0.4343    0.0000 H   0  0  0  0  0  0  0  0  0  0  0  0
    8.3984    1.7548    0.0000 H   0  0  0  0  0  0  0  0  0  0  0  0
    2.8351   -3.3488    0.0000 H   0  0  0  0  0  0  0  0  0  0  0  0
    2.8351   -4.1459    0.0000 H   0  0  0  0  0  0  0  0  0  0  0  0
    5.0000    0.2537    0.0000 H   0  0  0  0  0  0  0  0  0  0  0  0
    5.9300   -0.2832    0.0000 H   0  0  0  0  0  0  0  0  0  0  0  0
   10.5944    3.3630    0.0000 H   0  0  0  0  0  0  0  0  0  0  0  0
   13.0049   -0.0801    0.0000 H   0  0  0  0  0  0  0  0  0  0  0  0
   13.7330   -0.4043    0.0000 H   0  0  0  0  0  0  0  0  0  0  0  0
    2.6900   -0.2832    0.0000 H   0  0  0  0  0  0  0  0  0  0  0  0
    2.0000   -2.5522    0.0000 H   0  0  0  0  0  0  0  0  0  0  0  0
   13.8166    3.7016    0.0000 H   0  0  0  0  0  0  0  0  0  0  0  0
   14.6278    2.5852    0.0000 H   0  0  0  0  0  0  0  0  0  0  0  0
   12.5086   -1.2618    0.0000 H   0  0  0  0  0  0  0  0  0  0  0  0
    3.5001   -5.1504    0.0000 H   0  0  0  0  0  0  0  0  0  0  0  0
    4.4301   -4.6134    0.0000 H   0  0  0  0  0  0  0  0  0  0  0  0
   14.9211   -0.2053    0.0000 H   0  0  0  0  0  0  0  0  0  0  0  0
   11.5315    5.5148    0.0000 H   0  0  0  0  0  0  0  0  0  0  0  0
   10.6655    5.6519    0.0000 H   0  0  0  0  0  0  0  0  0  0  0  0
   10.5283    4.7859    0.0000 H   0  0  0  0  0  0  0  0  0  0  0  0
 21  1  1  6  0  0  0
 27  1  1  1  0  0  0
 22  2  1  1  0  0  0
 31  2  1  1  0  0  0
  3 27  1  0  0  0  0
  3 30  1  0  0  0  0
 28  4  1  6  0  0  0
 33  4  1  6  0  0  0
 24  5  1  1  0  0  0
  5 69  1  0  0  0  0
  6 31  1  0  0  0  0
  6 37  1  0  0  0  0
  7 33  1  0  0  0  0
  7 41  1  0  0  0  0
 29  8  1  6  0  0  0
  8 74  1  0  0  0  0
 34  9  1  6  0  0  0
  9 82  1  0  0  0  0
 36 10  1  1  0  0  0
 10 83  1  0  0  0  0
 38 11  1  1  0  0  0
 11 84  1  0  0  0  0
 40 12  1  6  0  0  0
 12 85  1  0  0  0  0
 13 39  1  0  0  0  0
 13 86  1  0  0  0  0
 14 43  1  0  0  0  0
 14 89  1  0  0  0  0
 15 44  2  0  0  0  0
 23 16  1  6  0  0  0
 16 61  1  0  0  0  0
 16 62  1  0  0  0  0
 25 17  1  6  0  0  0
 17 66  1  0  0  0  0
 17 67  1  0  0  0  0
 32 18  1  1  0  0  0
 18 77  1  0  0  0  0
 18 78  1  0  0  0  0
 35 19  1  6  0  0  0
 19 44  1  0  0  0  0
 19 79  1  0  0  0  0
 20 42  1  0  0  0  0
 20 87  1  0  0  0  0
 20 88  1  0  0  0  0
 21 22  1  0  0  0  0
 21 24  1  0  0  0  0
 21 46  1  0  0  0  0
 22 23  1  0  0  0  0
 22 47  1  0  0  0  0
 23 26  1  0  0  0  0
 23 48  1  0  0  0  0
 24 25  1  0  0  0  0
 24 49  1  0  0  0  0
 25 26  1  0  0  0  0
 25 50  1  0  0  0  0
 26 51  1  0  0  0  0
 26 52  1  0  0  0  0
 27 29  1  0  0  0  0
 27 53  1  0  0  0  0
 28 29  1  0  0  0  0
 28 30  1  0  0  0  0
 28 54  1  0  0  0  0
 29 55  1  0  0  0  0
 30 39  1  1  0  0  0
 30 56  1  0  0  0  0
 31 32  1  0  0  0  0
 31 57  1  0  0  0  0
 32 34  1  0  0  0  0
 32 58  1  0  0  0  0
 33 35  1  0  0  0  0
 33 59  1  0  0  0  0
 34 36  1  0  0  0  0
 34 60  1  0  0  0  0
 35 38  1  0  0  0  0
 35 63  1  0  0  0  0
 36 37  1  0  0  0  0
 36 64  1  0  0  0  0
 37 42  1  6  0  0  0
 37 65  1  0  0  0  0
 38 40  1  0  0  0  0
 38 68  1  0  0  0  0
 39 70  1  0  0  0  0
 39 71  1  0  0  0  0
 40 41  1  0  0  0  0
 40 72  1  0  0  0  0
 41 43  1  1  0  0  0
 41 73  1  0  0  0  0
 42 75  1  0  0  0  0
 42 76  1  0  0  0  0
 43 80  1  0  0  0  0
 43 81  1  0  0  0  0
 44 45  1  0  0  0  0
 45 90  1  0  0  0  0
 45 91  1  0  0  0  0
 45 92  1  0  0  0  0
M  END
> <PUBCHEM_COMPOUND_CID>
46173950

> <PUBCHEM_COMPOUND_CANONICALIZED>
1

> <PUBCHEM_CACTVS_COMPLEXITY>
976

> <PUBCHEM_CACTVS_HBOND_ACCEPTOR>
19

> <PUBCHEM_CACTVS_HBOND_DONOR>
13

> <PUBCHEM_CACTVS_ROTATABLE_BOND>
10

> <PUBCHEM_CACTVS_SUBSKEYS>
AAADcfB7vAAAAAAAAAAAAAAAAAAAASAAAAA0SIAAAAAAAAAAAAAAHgAQCAAACDzxgAcCCALABgAIAAEQEAAAAAAAAAAAAIAIAAATEAIAwAAnQAAHFgCXAAHwcA8AAAAAAAAAAAAAgAAUCACgAAAAAAAAAA==

> <PUBCHEM_IUPAC_OPENEYE_NAME>
N-[(2R,3R,4R,5S,6R)-2-[(2R,3S,4R,5S)-5-[(1R,2R,3S,5R,6S)-3,5-diamino-2-[(2R,3R,4R,5S,6R)-3-amino-6-(aminomethyl)-4,5-dihydroxy-tetrahydropyran-2-yl]oxy-6-hydroxy-cyclohexoxy]-4-hydroxy-2-(hydroxymethyl)tetrahydrofuran-3-yl]oxy-4,5-dihydroxy-6-(hydroxymethyl)tetrahydropyran-3-yl]acetamide

> <PUBCHEM_IUPAC_CAS_NAME>
N-[(2R,3R,4R,5S,6R)-2-[[(2R,3S,4R,5S)-5-[(1R,2R,3S,5R,6S)-3,5-diamino-2-[[(2R,3R,4R,5S,6R)-3-amino-6-(aminomethyl)-4,5-dihydroxy-2-oxanyl]oxy]-6-hydroxycyclohexyl]oxy-4-hydroxy-2-(hydroxymethyl)-3-oxolanyl]oxy]-4,5-dihydroxy-6-(hydroxymethyl)-3-oxanyl]acetamide

> <PUBCHEM_IUPAC_NAME>
N-[(2R,3R,4R,5S,6R)-2-[(2R,3S,4R,5S)-5-[(1R,2R,3S,5R,6S)-3,5-diamino-2-[(2R,3R,4R,5S,6R)-3-amino-6-(aminomethyl)-4,5-dihydroxyoxan-2-yl]oxy-6-hydroxycyclohexyl]oxy-4-hydroxy-2-(hydroxymethyl)oxolan-3-yl]oxy-4,5-dihydroxy-6-(hydroxymethyl)oxan-3-yl]acetamide

> <PUBCHEM_IUPAC_SYSTEMATIC_NAME>
N-[(2R,3R,4R,5S,6R)-2-[(2R,3S,4R,5S)-5-[(1R,2R,3S,5R,6S)-2-[(2R,3R,4R,5S,6R)-6-(aminomethyl)-3-azanyl-4,5-bis(oxidanyl)oxan-2-yl]oxy-3,5-bis(azanyl)-6-oxidanyl-cyclohexyl]oxy-2-(hydroxymethyl)-4-oxidanyl-oxolan-3-yl]oxy-6-(hydroxymethyl)-4,5-bis(oxidanyl)oxan-3-yl]ethanamide

> <PUBCHEM_IUPAC_TRADITIONAL_NAME>
N-[(2R,3R,4R,5S,6R)-2-[(2R,3S,4R,5S)-5-[(1R,2R,3S,5R,6S)-3,5-diamino-2-[(2R,3R,4R,5S,6R)-3-amino-6-(aminomethyl)-4,5-dihydroxy-tetrahydropyran-2-yl]oxy-6-hydroxy-cyclohexoxy]-4-hydroxy-2-methylol-tetrahydrofuran-3-yl]oxy-4,5-dihydroxy-6-methylol-tetrahydropyran-3-yl]acetamide

> <PUBCHEM_IUPAC_INCHI>
InChI=1S/C25H47N5O15/c1-6(33)30-13-18(38)16(36)10(4-31)41-24(13)44-21-11(5-32)42-25(19(21)39)45-22-14(34)7(27)2-8(28)20(22)43-23-12(29)17(37)15(35)9(3-26)40-23/h7-25,31-32,34-39H,2-5,26-29H2,1H3,(H,30,33)/t7-,8+,9-,10-,11-,12-,13-,14+,15-,16-,17-,18-,19-,20-,21-,22-,23-,24-,25+/m1/s1

> <PUBCHEM_IUPAC_INCHIKEY>
UGNMCGGITJEYFO-KVQCZYKRSA-N

> <PUBCHEM_XLOGP3_AA>
-8.5

> <PUBCHEM_EXACT_MASS>
657.306866

> <PUBCHEM_MOLECULAR_FORMULA>
C25H47N5O15

> <PUBCHEM_MOLECULAR_WEIGHT>
657.66518

> <PUBCHEM_OPENEYE_CAN_SMILES>
CC(=O)NC1C(C(C(OC1OC2C(OC(C2O)OC3C(C(CC(C3OC4C(C(C(C(O4)CN)O)O)N)N)N)O)CO)CO)O)O

> <PUBCHEM_OPENEYE_ISO_SMILES>
CC(=O)N[C@@H]1[C@H]([C@@H]([C@H](O[C@@H]1O[C@@H]2[C@H](O[C@H]([C@@H]2O)O[C@@H]3[C@H]([C@@H](C[C@@H]([C@H]3O[C@@H]4[C@@H]([C@H]([C@@H]([C@H](O4)CN)O)O)N)N)N)O)CO)CO)O)O

> <PUBCHEM_CACTVS_TPSA>
350

> <PUBCHEM_MONOISOTOPIC_WEIGHT>
657.306866

> <PUBCHEM_TOTAL_CHARGE>
0

> <PUBCHEM_HEAVY_ATOM_COUNT>
45

> <PUBCHEM_ATOM_DEF_STEREO_COUNT>
19

> <PUBCHEM_ATOM_UDEF_STEREO_COUNT>
0

> <PUBCHEM_BOND_DEF_STEREO_COUNT>
0

> <PUBCHEM_BOND_UDEF_STEREO_COUNT>
0

> <PUBCHEM_ISOTOPIC_ATOM_COUNT>
0

> <PUBCHEM_COMPONENT_COUNT>
1

> <PUBCHEM_CACTVS_TAUTO_COUNT>
2

> <PUBCHEM_COORDINATE_TYPE>
1
5
255

> <PUBCHEM_BONDANNOTATIONS>
21  1  6
27  1  5
36  10  5
38  11  5
40  12  6
23  16  6
25  17  6
32  18  5
35  19  6
22  2  5
31  2  5
30  39  5
37  42  6
28  4  6
33  4  6
41  43  5
24  5  5
29  8  6
34  9  6

$$$$

