156006
  -OEChem-07051213092D

 51 52  0     1  0  0  0  0  0999 V2000
    3.6473    0.2177    0.0000 O   0  0  0  0  0  0  0  0  0  0  0  0
    7.1427    0.0163    0.0000 O   0  0  0  0  0  0  0  0  0  0  0  0
    8.6381   -0.1619    0.0000 O   0  0  0  0  0  0  0  0  0  0  0  0
    9.7211   -2.2972    0.0000 O   0  0  0  0  0  0  0  0  0  0  0  0
    6.7856   -1.6785    0.0000 O   0  0  0  0  0  0  0  0  0  0  0  0
    2.0000    0.7529    0.0000 O   0  0  0  0  0  0  0  0  0  0  0  0
    4.9074    2.4778    0.0000 N   0  0  3  0  0  0  0  0  0  0  0  0
    4.9074    1.4778    0.0000 C   0  0  1  0  0  0  0  0  0  0  0  0
    3.9563    1.1688    0.0000 C   0  0  1  0  0  0  0  0  0  0  0  0
    3.3685    1.9778    0.0000 C   0  0  0  0  0  0  0  0  0  0  0  0
    3.9563    2.7868    0.0000 C   0  0  0  0  0  0  0  0  0  0  0  0
    5.8536    1.1730    0.0000 C   0  0  0  0  0  0  0  0  0  0  0  0
    5.8536    2.7825    0.0000 C   0  0  0  0  0  0  0  0  0  0  0  0
    6.4372    1.9778    0.0000 C   0  0  0  0  0  0  0  0  0  0  0  0
    6.1642    0.2225    0.0000 C   0  0  0  0  0  0  0  0  0  0  0  0
    8.4319   -1.1404    0.0000 C   0  0  2  0  0  0  0  0  0  0  0  0
    8.2257   -2.1189    0.0000 C   0  0  0  0  0  0  0  0  0  0  0  0
    7.4534   -0.9342    0.0000 C   0  0  0  0  0  0  0  0  0  0  0  0
    9.4104   -1.3467    0.0000 C   0  0  2  0  0  0  0  0  0  0  0  0
    2.6691    0.0098    0.0000 C   0  0  0  0  0  0  0  0  0  0  0  0
    8.9700   -2.7868    0.0000 C   0  0  0  0  0  0  0  0  0  0  0  0
    7.2752   -2.4296    0.0000 C   0  0  0  0  0  0  0  0  0  0  0  0
   10.0783   -0.6024    0.0000 C   0  0  0  0  0  0  0  0  0  0  0  0
    2.3601   -0.9413    0.0000 C   0  0  0  0  0  0  0  0  0  0  0  0
    4.9084    0.6278    0.0000 H   0  0  0  0  0  0  0  0  0  0  0  0
    4.3947    0.7303    0.0000 H   0  0  0  0  0  0  0  0  0  0  0  0
    2.9078    2.3926    0.0000 H   0  0  0  0  0  0  0  0  0  0  0  0
    2.9078    1.5629    0.0000 H   0  0  0  0  0  0  0  0  0  0  0  0
    4.2085    3.3532    0.0000 H   0  0  0  0  0  0  0  0  0  0  0  0
    3.4194    3.0968    0.0000 H   0  0  0  0  0  0  0  0  0  0  0  0
    6.3910    3.0917    0.0000 H   0  0  0  0  0  0  0  0  0  0  0  0
    5.6025    3.3494    0.0000 H   0  0  0  0  0  0  0  0  0  0  0  0
    7.0572    1.9778    0.0000 H   0  0  0  0  0  0  0  0  0  0  0  0
    5.5504    0.1352    0.0000 H   0  0  0  0  0  0  0  0  0  0  0  0
    6.1437   -0.3971    0.0000 H   0  0  0  0  0  0  0  0  0  0  0  0
    8.0978   -2.7256    0.0000 H   0  0  0  0  0  0  0  0  0  0  0  0
    8.9964   -1.8081    0.0000 H   0  0  0  0  0  0  0  0  0  0  0  0
    8.5559   -3.2483    0.0000 H   0  0  0  0  0  0  0  0  0  0  0  0
    9.4315   -3.2008    0.0000 H   0  0  0  0  0  0  0  0  0  0  0  0
    9.3840   -2.3253    0.0000 H   0  0  0  0  0  0  0  0  0  0  0  0
    7.0826   -1.8403    0.0000 H   0  0  0  0  0  0  0  0  0  0  0  0
    6.6858   -2.6222    0.0000 H   0  0  0  0  0  0  0  0  0  0  0  0
    7.4678   -3.0189    0.0000 H   0  0  0  0  0  0  0  0  0  0  0  0
   10.5397   -1.0164    0.0000 H   0  0  0  0  0  0  0  0  0  0  0  0
   10.4923   -0.1409    0.0000 H   0  0  0  0  0  0  0  0  0  0  0  0
    9.6168   -0.1883    0.0000 H   0  0  0  0  0  0  0  0  0  0  0  0
    9.2274    0.0307    0.0000 H   0  0  0  0  0  0  0  0  0  0  0  0
    1.7705   -0.7497    0.0000 H   0  0  0  0  0  0  0  0  0  0  0  0
    2.1685   -1.5309    0.0000 H   0  0  0  0  0  0  0  0  0  0  0  0
    2.9498   -1.1329    0.0000 H   0  0  0  0  0  0  0  0  0  0  0  0
   10.3278   -2.4250    0.0000 H   0  0  0  0  0  0  0  0  0  0  0  0
  9  1  1  6  0  0  0
  1 20  1  0  0  0  0
  2 15  1  0  0  0  0
  2 18  1  0  0  0  0
 16  3  1  6  0  0  0
  3 47  1  0  0  0  0
 19  4  1  6  0  0  0
  4 51  1  0  0  0  0
  5 18  2  0  0  0  0
  6 20  2  0  0  0  0
  7  8  1  0  0  0  0
  7 11  1  0  0  0  0
  7 13  1  0  0  0  0
  8  9  1  0  0  0  0
  8 12  1  0  0  0  0
  8 25  1  1  0  0  0
  9 10  1  0  0  0  0
  9 26  1  0  0  0  0
 10 11  1  0  0  0  0
 10 27  1  0  0  0  0
 10 28  1  0  0  0  0
 11 29  1  0  0  0  0
 11 30  1  0  0  0  0
 12 14  2  0  0  0  0
 12 15  1  0  0  0  0
 13 14  1  0  0  0  0
 13 31  1  0  0  0  0
 13 32  1  0  0  0  0
 14 33  1  0  0  0  0
 15 34  1  0  0  0  0
 15 35  1  0  0  0  0
 16 17  1  0  0  0  0
 16 18  1  0  0  0  0
 16 19  1  0  0  0  0
 17 21  1  0  0  0  0
 17 22  1  0  0  0  0
 17 36  1  0  0  0  0
 19 23  1  0  0  0  0
 19 37  1  0  0  0  0
 20 24  1  0  0  0  0
 21 38  1  0  0  0  0
 21 39  1  0  0  0  0
 21 40  1  0  0  0  0
 22 41  1  0  0  0  0
 22 42  1  0  0  0  0
 22 43  1  0  0  0  0
 23 44  1  0  0  0  0
 23 45  1  0  0  0  0
 23 46  1  0  0  0  0
 24 48  1  0  0  0  0
 24 49  1  0  0  0  0
 24 50  1  0  0  0  0
M  END
> <PUBCHEM_COMPOUND_CID>
156006

> <PUBCHEM_COMPOUND_CANONICALIZED>
1

> <PUBCHEM_CACTVS_COMPLEXITY>
531

> <PUBCHEM_CACTVS_HBOND_ACCEPTOR>
7

> <PUBCHEM_CACTVS_HBOND_DONOR>
2

> <PUBCHEM_CACTVS_ROTATABLE_BOND>
8

> <PUBCHEM_CACTVS_SUBSKEYS>
AAADceB6OAAAAAAAAAAAAAAAAAAAAWIAAAAAAAAAAAAQAAAAAAAAHgAACAAADXzhgAYCCAMABgCIAiDSCAKAAAAgAAAACAFIAAgDFBYAoQAHUAAH4ACbIAPQQAAOgAAAAAAAAAAAAAAAAAAAAAAAAAAAAA==

> <PUBCHEM_IUPAC_OPENEYE_NAME>
[(7R,8R)-7-acetoxy-5,6,7,8-tetrahydro-3H-pyrrolizin-1-yl]methyl (2S)-2-hydroxy-2-[(1S)-1-hydroxyethyl]-3-methyl-butanoate

> <PUBCHEM_IUPAC_CAS_NAME>
(2S)-2-hydroxy-2-[(1S)-1-hydroxyethyl]-3-methylbutanoic acid [(7R,8R)-7-acetyloxy-5,6,7,8-tetrahydro-3H-pyrrolizin-1-yl]methyl ester

> <PUBCHEM_IUPAC_NAME>
[(7R,8R)-7-acetyloxy-5,6,7,8-tetrahydro-3H-pyrrolizin-1-yl]methyl (2S)-2-hydroxy-2-[(1S)-1-hydroxyethyl]-3-methylbutanoate

> <PUBCHEM_IUPAC_SYSTEMATIC_NAME>
[(7R,8R)-7-acetyloxy-5,6,7,8-tetrahydro-3H-pyrrolizin-1-yl]methyl (2S)-3-methyl-2-oxidanyl-2-[(1S)-1-oxidanylethyl]butanoate

> <PUBCHEM_IUPAC_TRADITIONAL_NAME>
(2S)-2-hydroxy-2-[(1S)-1-hydroxyethyl]-3-methyl-butyric acid [(7R,8R)-7-acetoxy-5,6,7,8-tetrahydro-3H-pyrrolizin-1-yl]methyl ester

> <PUBCHEM_IUPAC_INCHI>
InChI=1S/C17H27NO6/c1-10(2)17(22,11(3)19)16(21)23-9-13-5-7-18-8-6-14(15(13)18)24-12(4)20/h5,10-11,14-15,19,22H,6-9H2,1-4H3/t11-,14+,15+,17-/m0/s1

> <PUBCHEM_IUPAC_INCHIKEY>
RKDOFSJTBIDAHX-OFSOMGBPSA-N

> <PUBCHEM_XLOGP3_AA>
0.1

> <PUBCHEM_EXACT_MASS>
341.183838

> <PUBCHEM_MOLECULAR_FORMULA>
C17H27NO6

> <PUBCHEM_MOLECULAR_WEIGHT>
341.39938

> <PUBCHEM_OPENEYE_CAN_SMILES>
CC(C)C(C(C)O)(C(=O)OCC1=CCN2C1C(CC2)OC(=O)C)O

> <PUBCHEM_OPENEYE_ISO_SMILES>
C[C@@H]([C@@](C(C)C)(C(=O)OCC1=CCN2[C@H]1[C@@H](CC2)OC(=O)C)O)O

> <PUBCHEM_CACTVS_TPSA>
96.3

> <PUBCHEM_MONOISOTOPIC_WEIGHT>
341.183838

> <PUBCHEM_TOTAL_CHARGE>
0

> <PUBCHEM_HEAVY_ATOM_COUNT>
24

> <PUBCHEM_ATOM_DEF_STEREO_COUNT>
4

> <PUBCHEM_ATOM_UDEF_STEREO_COUNT>
0

> <PUBCHEM_BOND_DEF_STEREO_COUNT>
0

> <PUBCHEM_BOND_UDEF_STEREO_COUNT>
0

> <PUBCHEM_ISOTOPIC_ATOM_COUNT>
0

> <PUBCHEM_COMPONENT_COUNT>
1

> <PUBCHEM_CACTVS_TAUTO_COUNT>
1

> <PUBCHEM_COORDINATE_TYPE>
1
5
255

> <PUBCHEM_BONDANNOTATIONS>
9  1  6
16  3  6
19  4  6
8  25  5

$$$$

