   Boiling Point
        136-138 deg C @ 0.008 mm Hg
   from [1]HSDB

   Corrosivity
        Non-corrosive
   from [2]HSDB

   Solubilities
        Practically insol in water; sol in alcohol, petroleum ether,
   kerosene, carbon tetrachloride, ethylene dichloride, nitromethane.
   from [3]HSDB

   Spectral Properties

     * Index of refraction: 1.5064 @ 20 deg C/D
     * Specific optical rotation: -22 deg at 20 deg C/D (hexane)
     * Max absorption: 222 nm (molar extinction coefficient= 21,400
       g-moles/l)

   from [4]HSDB

   Other Chemical/Physical Properties
        Refined extract is a pale yellow mobile oils ... unrefined extract
   is a dark greenish brown viscous liquid. Powder (ground flowers) is tan
   color. /Pyrethrins/
   from [5]HSDB

   Computed Properties
   Molecular Weight                  316.43452 [g/mol]
   Molecular Formula                 C[20]H[28]O[3]
   XLogP3                            5
   H-Bond Donor                      0
   H-Bond Acceptor                   3
   Rotatable Bond Count              6
   Tautomer Count                    5
   Exact Mass                        316.203845
   MonoIsotopic Mass                 316.203845
   Topological Polar Surface Area    43.4
   Heavy Atom Count                  23
   Formal Charge                     0
   Complexity                        600
   Isotope Atom Count                0
   Defined Atom Stereocenter Count   3
   Undefined Atom Stereocenter Count 0
   Defined Bond Stereocenter Count   1
   Undefined Bond Stereocenter Count 0
   Covalently-Bonded Unit Count      1
   Feature 3D Acceptor Count         2
   Feature 3D Hydrophobe Count       3
   Feature 3D Ring Count             1
   Effective Rotor Count             7
   Conformer Sampling RMSD           0.8
   CID Conformer Count               [6]280

References

   1. http://toxnet.nlm.nih.gov/cgi-bin/sis/search/r?dbs+hsdb:@term+@rn+@rel+25402-06-6
   2. http://toxnet.nlm.nih.gov/cgi-bin/sis/search/r?dbs+hsdb:@term+@rn+@rel+25402-06-6
   3. http://toxnet.nlm.nih.gov/cgi-bin/sis/search/r?dbs+hsdb:@term+@rn+@rel+25402-06-6
   4. http://toxnet.nlm.nih.gov/cgi-bin/sis/search/r?dbs+hsdb:@term+@rn+@rel+25402-06-6
   5. http://toxnet.nlm.nih.gov/cgi-bin/sis/search/r?dbs+hsdb:@term+@rn+@rel+25402-06-6
   6. http://pubchem.ncbi.nlm.nih.gov/vw3d/vw3d.cgi?cid=5281547
