16061239
  -OEChem-07051213082D

100101  0     1  0  0  0  0  0999 V2000
   24.1876    0.2500    0.0000 O   0  0  0  0  0  0  0  0  0  0  0  0
    2.5369   -0.2500    0.0000 O   0  0  0  0  0  0  0  0  0  0  0  0
    2.5369    1.7500    0.0000 O   0  0  0  0  0  0  0  0  0  0  0  0
   24.1876   -1.7500    0.0000 O   0  0  0  0  0  0  0  0  0  0  0  0
   22.4555    0.2500    0.0000 C   0  0  0  0  0  0  0  0  0  0  0  0
    4.2690   -0.2500    0.0000 C   0  0  0  0  0  0  0  0  0  0  0  0
    3.4030    0.2500    0.0000 C   0  0  2  0  0  0  0  0  0  0  0  0
   23.3215   -0.2500    0.0000 C   0  0  2  0  0  0  0  0  0  0  0  0
    3.4030    1.2500    0.0000 C   0  0  1  0  0  0  0  0  0  0  0  0
   23.3215   -1.2500    0.0000 C   0  0  1  0  0  0  0  0  0  0  0  0
   21.5895   -0.2500    0.0000 C   0  0  0  0  0  0  0  0  0  0  0  0
    5.1350    0.2500    0.0000 C   0  0  0  0  0  0  0  0  0  0  0  0
    4.2690    1.7500    0.0000 C   0  0  0  0  0  0  0  0  0  0  0  0
   22.4555   -1.7500    0.0000 C   0  0  0  0  0  0  0  0  0  0  0  0
   21.5895   -1.2500    0.0000 C   0  0  0  0  0  0  0  0  0  0  0  0
    5.1350    1.2500    0.0000 C   0  0  0  0  0  0  0  0  0  0  0  0
    3.7690   -1.1160    0.0000 C   0  0  0  0  0  0  0  0  0  0  0  0
    4.7690   -1.1160    0.0000 C   0  0  0  0  0  0  0  0  0  0  0  0
   22.9555    1.1160    0.0000 C   0  0  0  0  0  0  0  0  0  0  0  0
   21.9555    1.1160    0.0000 C   0  0  0  0  0  0  0  0  0  0  0  0
   20.7235    0.2500    0.0000 C   0  0  0  0  0  0  0  0  0  0  0  0
    6.0010   -0.2500    0.0000 C   0  0  0  0  0  0  0  0  0  0  0  0
   20.7235   -1.7500    0.0000 C   0  0  0  0  0  0  0  0  0  0  0  0
    6.0010    1.7500    0.0000 C   0  0  0  0  0  0  0  0  0  0  0  0
   19.8574   -0.2500    0.0000 C   0  0  0  0  0  0  0  0  0  0  0  0
    6.8671    0.2500    0.0000 C   0  0  0  0  0  0  0  0  0  0  0  0
    7.7331   -0.2500    0.0000 C   0  0  0  0  0  0  0  0  0  0  0  0
   18.9914    0.2500    0.0000 C   0  0  0  0  0  0  0  0  0  0  0  0
   18.9914    1.2500    0.0000 C   0  0  0  0  0  0  0  0  0  0  0  0
    7.7331   -1.2500    0.0000 C   0  0  0  0  0  0  0  0  0  0  0  0
    8.5991    0.2500    0.0000 C   0  0  0  0  0  0  0  0  0  0  0  0
   18.1254   -0.2500    0.0000 C   0  0  0  0  0  0  0  0  0  0  0  0
   17.2594    0.2500    0.0000 C   0  0  0  0  0  0  0  0  0  0  0  0
    9.4651   -0.2500    0.0000 C   0  0  0  0  0  0  0  0  0  0  0  0
   16.3933   -0.2500    0.0000 C   0  0  0  0  0  0  0  0  0  0  0  0
   10.3312    0.2500    0.0000 C   0  0  0  0  0  0  0  0  0  0  0  0
   11.1972   -0.2500    0.0000 C   0  0  0  0  0  0  0  0  0  0  0  0
   15.5273    0.2500    0.0000 C   0  0  0  0  0  0  0  0  0  0  0  0
   11.1972   -1.2500    0.0000 C   0  0  0  0  0  0  0  0  0  0  0  0
   15.5273    1.2500    0.0000 C   0  0  0  0  0  0  0  0  0  0  0  0
   12.0632    0.2500    0.0000 C   0  0  0  0  0  0  0  0  0  0  0  0
   14.6613   -0.2500    0.0000 C   0  0  0  0  0  0  0  0  0  0  0  0
   12.9292   -0.2500    0.0000 C   0  0  0  0  0  0  0  0  0  0  0  0
   13.7953    0.2500    0.0000 C   0  0  0  0  0  0  0  0  0  0  0  0
    3.4030   -0.3700    0.0000 H   0  0  0  0  0  0  0  0  0  0  0  0
   23.8585   -0.5600    0.0000 H   0  0  0  0  0  0  0  0  0  0  0  0
    3.4030    1.8700    0.0000 H   0  0  0  0  0  0  0  0  0  0  0  0
   23.8585   -0.9400    0.0000 H   0  0  0  0  0  0  0  0  0  0  0  0
   22.0570   -2.2250    0.0000 H   0  0  0  0  0  0  0  0  0  0  0  0
   22.8540   -2.2250    0.0000 H   0  0  0  0  0  0  0  0  0  0  0  0
    4.6675    2.2250    0.0000 H   0  0  0  0  0  0  0  0  0  0  0  0
    3.8705    2.2250    0.0000 H   0  0  0  0  0  0  0  0  0  0  0  0
    4.2320   -1.4260    0.0000 H   0  0  0  0  0  0  0  0  0  0  0  0
    5.0790   -1.6530    0.0000 H   0  0  0  0  0  0  0  0  0  0  0  0
   23.4925    0.8060    0.0000 H   0  0  0  0  0  0  0  0  0  0  0  0
   23.2655    1.6530    0.0000 H   0  0  0  0  0  0  0  0  0  0  0  0
   22.4186    1.4260    0.0000 H   0  0  0  0  0  0  0  0  0  0  0  0
   22.4925    1.4260    0.0000 H   0  0  0  0  0  0  0  0  0  0  0  0
   21.6455    1.6530    0.0000 H   0  0  0  0  0  0  0  0  0  0  0  0
   21.4186    0.8060    0.0000 H   0  0  0  0  0  0  0  0  0  0  0  0
    5.3059   -0.8060    0.0000 H   0  0  0  0  0  0  0  0  0  0  0  0
    3.2320   -0.8060    0.0000 H   0  0  0  0  0  0  0  0  0  0  0  0
    3.4590   -1.6530    0.0000 H   0  0  0  0  0  0  0  0  0  0  0  0
    4.3059   -1.4260    0.0000 H   0  0  0  0  0  0  0  0  0  0  0  0
    6.0010   -0.8700    0.0000 H   0  0  0  0  0  0  0  0  0  0  0  0
   20.7235    0.8700    0.0000 H   0  0  0  0  0  0  0  0  0  0  0  0
    6.3110    1.2131    0.0000 H   0  0  0  0  0  0  0  0  0  0  0  0
    6.5380    2.0600    0.0000 H   0  0  0  0  0  0  0  0  0  0  0  0
    5.6910    2.2869    0.0000 H   0  0  0  0  0  0  0  0  0  0  0  0
   20.4135   -1.2131    0.0000 H   0  0  0  0  0  0  0  0  0  0  0  0
   20.1865   -2.0600    0.0000 H   0  0  0  0  0  0  0  0  0  0  0  0
   21.0335   -2.2869    0.0000 H   0  0  0  0  0  0  0  0  0  0  0  0
    2.0000    0.0600    0.0000 H   0  0  0  0  0  0  0  0  0  0  0  0
   24.7245   -0.0600    0.0000 H   0  0  0  0  0  0  0  0  0  0  0  0
    2.5369    2.3700    0.0000 H   0  0  0  0  0  0  0  0  0  0  0  0
   24.1876   -2.3700    0.0000 H   0  0  0  0  0  0  0  0  0  0  0  0
    6.8671    0.8700    0.0000 H   0  0  0  0  0  0  0  0  0  0  0  0
   19.8574   -0.8700    0.0000 H   0  0  0  0  0  0  0  0  0  0  0  0
   19.6114    1.2500    0.0000 H   0  0  0  0  0  0  0  0  0  0  0  0
   18.9914    1.8700    0.0000 H   0  0  0  0  0  0  0  0  0  0  0  0
   18.3714    1.2500    0.0000 H   0  0  0  0  0  0  0  0  0  0  0  0
    7.1131   -1.2500    0.0000 H   0  0  0  0  0  0  0  0  0  0  0  0
    7.7331   -1.8700    0.0000 H   0  0  0  0  0  0  0  0  0  0  0  0
    8.3531   -1.2500    0.0000 H   0  0  0  0  0  0  0  0  0  0  0  0
   18.1254   -0.8700    0.0000 H   0  0  0  0  0  0  0  0  0  0  0  0
    8.5991    0.8700    0.0000 H   0  0  0  0  0  0  0  0  0  0  0  0
   17.2594    0.8700    0.0000 H   0  0  0  0  0  0  0  0  0  0  0  0
    9.4651   -0.8700    0.0000 H   0  0  0  0  0  0  0  0  0  0  0  0
   16.3933   -0.8700    0.0000 H   0  0  0  0  0  0  0  0  0  0  0  0
   10.3312    0.8700    0.0000 H   0  0  0  0  0  0  0  0  0  0  0  0
   10.5772   -1.2500    0.0000 H   0  0  0  0  0  0  0  0  0  0  0  0
   11.1972   -1.8700    0.0000 H   0  0  0  0  0  0  0  0  0  0  0  0
   11.8172   -1.2500    0.0000 H   0  0  0  0  0  0  0  0  0  0  0  0
   16.1473    1.2500    0.0000 H   0  0  0  0  0  0  0  0  0  0  0  0
   15.5273    1.8700    0.0000 H   0  0  0  0  0  0  0  0  0  0  0  0
   14.9073    1.2500    0.0000 H   0  0  0  0  0  0  0  0  0  0  0  0
   14.6613   -0.8700    0.0000 H   0  0  0  0  0  0  0  0  0  0  0  0
   12.0632    0.8700    0.0000 H   0  0  0  0  0  0  0  0  0  0  0  0
   12.9292   -0.8700    0.0000 H   0  0  0  0  0  0  0  0  0  0  0  0
   13.7953    0.8700    0.0000 H   0  0  0  0  0  0  0  0  0  0  0  0
  8  1  1  1  0  0  0
  1 74  1  0  0  0  0
  7  2  1  1  0  0  0
  2 73  1  0  0  0  0
  9  3  1  6  0  0  0
  3 75  1  0  0  0  0
 10  4  1  6  0  0  0
  4 76  1  0  0  0  0
  5  8  1  0  0  0  0
  5 11  1  0  0  0  0
  5 19  1  0  0  0  0
  5 20  1  0  0  0  0
  6  7  1  0  0  0  0
  6 12  1  0  0  0  0
  6 17  1  0  0  0  0
  6 18  1  0  0  0  0
  7  9  1  0  0  0  0
  7 45  1  0  0  0  0
  8 10  1  0  0  0  0
  8 46  1  0  0  0  0
  9 13  1  0  0  0  0
  9 47  1  0  0  0  0
 10 14  1  0  0  0  0
 10 48  1  0  0  0  0
 11 15  2  0  0  0  0
 11 21  1  0  0  0  0
 12 16  2  0  0  0  0
 12 22  1  0  0  0  0
 13 16  1  0  0  0  0
 13 51  1  0  0  0  0
 13 52  1  0  0  0  0
 14 15  1  0  0  0  0
 14 49  1  0  0  0  0
 14 50  1  0  0  0  0
 15 23  1  0  0  0  0
 16 24  1  0  0  0  0
 17 62  1  0  0  0  0
 17 63  1  0  0  0  0
 17 64  1  0  0  0  0
 18 53  1  0  0  0  0
 18 54  1  0  0  0  0
 18 61  1  0  0  0  0
 19 55  1  0  0  0  0
 19 56  1  0  0  0  0
 19 57  1  0  0  0  0
 20 58  1  0  0  0  0
 20 59  1  0  0  0  0
 20 60  1  0  0  0  0
 21 25  2  0  0  0  0
 21 66  1  0  0  0  0
 22 26  2  0  0  0  0
 22 65  1  0  0  0  0
 23 70  1  0  0  0  0
 23 71  1  0  0  0  0
 23 72  1  0  0  0  0
 24 67  1  0  0  0  0
 24 68  1  0  0  0  0
 24 69  1  0  0  0  0
 25 28  1  0  0  0  0
 25 78  1  0  0  0  0
 26 27  1  0  0  0  0
 26 77  1  0  0  0  0
 27 30  1  0  0  0  0
 27 31  2  0  0  0  0
 28 29  1  0  0  0  0
 28 32  2  0  0  0  0
 29 79  1  0  0  0  0
 29 80  1  0  0  0  0
 29 81  1  0  0  0  0
 30 82  1  0  0  0  0
 30 83  1  0  0  0  0
 30 84  1  0  0  0  0
 31 34  1  0  0  0  0
 31 86  1  0  0  0  0
 32 33  1  0  0  0  0
 32 85  1  0  0  0  0
 33 35  2  0  0  0  0
 33 87  1  0  0  0  0
 34 36  2  0  0  0  0
 34 88  1  0  0  0  0
 35 38  1  0  0  0  0
 35 89  1  0  0  0  0
 36 37  1  0  0  0  0
 36 90  1  0  0  0  0
 37 39  1  0  0  0  0
 37 41  2  0  0  0  0
 38 40  1  0  0  0  0
 38 42  2  0  0  0  0
 39 91  1  0  0  0  0
 39 92  1  0  0  0  0
 39 93  1  0  0  0  0
 40 94  1  0  0  0  0
 40 95  1  0  0  0  0
 40 96  1  0  0  0  0
 41 43  1  0  0  0  0
 41 98  1  0  0  0  0
 42 44  1  0  0  0  0
 42 97  1  0  0  0  0
 43 44  2  0  0  0  0
 43 99  1  0  0  0  0
 44100  1  0  0  0  0
M  END
> <PUBCHEM_COMPOUND_CID>
16061239

> <PUBCHEM_COMPOUND_CANONICALIZED>
1

> <PUBCHEM_CACTVS_COMPLEXITY>
1260

> <PUBCHEM_CACTVS_HBOND_ACCEPTOR>
4

> <PUBCHEM_CACTVS_HBOND_DONOR>
4

> <PUBCHEM_CACTVS_ROTATABLE_BOND>
10

> <PUBCHEM_CACTVS_SUBSKEYS>
AAADcfB8OAAAAAAAAAAAAAAAAAAAAAAAAAAgQAAAAAAAAAAAAAAAGgAACAAADhSggAICAAAAAgCAAiBCAAAAAAAgAAAICAAAAAgJEAIAAQAAQAAEwAAJgAOAgMAPAAAAAAAAAAAAAAAAAAAAAAAAAAAAAA==

> <PUBCHEM_IUPAC_OPENEYE_NAME>
(1R,2R)-4-[(1E,3E,5E,7E,9E,11E,13E,15E,17E)-18-[(4R,5R)-4,5-dihydroxy-2,6,6-trimethyl-cyclohexen-1-yl]-3,7,12,16-tetramethyl-octadeca-1,3,5,7,9,11,13,15,17-nonaenyl]-3,3,5-trimethyl-cyclohex-4-ene-1,2-diol

> <PUBCHEM_IUPAC_CAS_NAME>
(1R,2R)-4-[(1E,3E,5E,7E,9E,11E,13E,15E,17E)-18-[(4R,5R)-4,5-dihydroxy-2,6,6-trimethyl-1-cyclohexenyl]-3,7,12,16-tetramethyloctadeca-1,3,5,7,9,11,13,15,17-nonaenyl]-3,3,5-trimethylcyclohex-4-ene-1,2-diol

> <PUBCHEM_IUPAC_NAME>
(1R,2R)-4-[(1E,3E,5E,7E,9E,11E,13E,15E,17E)-18-[(4R,5R)-4,5-dihydroxy-2,6,6-trimethylcyclohexen-1-yl]-3,7,12,16-tetramethyloctadeca-1,3,5,7,9,11,13,15,17-nonaenyl]-3,3,5-trimethylcyclohex-4-ene-1,2-diol

> <PUBCHEM_IUPAC_SYSTEMATIC_NAME>
(1R,2R)-3,3,5-trimethyl-4-[(1E,3E,5E,7E,9E,11E,13E,15E,17E)-3,7,12,16-tetramethyl-18-[(4R,5R)-2,6,6-trimethyl-4,5-bis(oxidanyl)cyclohexen-1-yl]octadeca-1,3,5,7,9,11,13,15,17-nonaenyl]cyclohex-4-ene-1,2-diol

> <PUBCHEM_IUPAC_TRADITIONAL_NAME>
(1R,2R)-4-[(1E,3E,5E,7E,9E,11E,13E,15E,17E)-18-[(4R,5R)-4,5-dihydroxy-2,6,6-trimethyl-cyclohexen-1-yl]-3,7,12,16-tetramethyl-octadeca-1,3,5,7,9,11,13,15,17-nonaenyl]-3,3,5-trimethyl-cyclohex-4-ene-1,2-diol

> <PUBCHEM_IUPAC_INCHI>
InChI=1S/C40H56O4/c1-27(17-13-19-29(3)21-23-33-31(5)25-35(41)37(43)39(33,7)8)15-11-12-16-28(2)18-14-20-30(4)22-24-34-32(6)26-36(42)38(44)40(34,9)10/h11-24,35-38,41-44H,25-26H2,1-10H3/b12-11+,17-13+,18-14+,23-21+,24-22+,27-15+,28-16+,29-19+,30-20+/t35-,36-,37+,38+/m1/s1

> <PUBCHEM_IUPAC_INCHIKEY>
JVPASJUYZJKFHY-HWFHZMFDSA-N

> <PUBCHEM_XLOGP3_AA>
9

> <PUBCHEM_EXACT_MASS>
600.41786

> <PUBCHEM_MOLECULAR_FORMULA>
C40H56O4

> <PUBCHEM_MOLECULAR_WEIGHT>
600.87024

> <PUBCHEM_OPENEYE_CAN_SMILES>
CC1=C(C(C(C(C1)O)O)(C)C)C=CC(=CC=CC(=CC=CC=C(C)C=CC=C(C)C=CC2=C(CC(C(C2(C)C)O)O)C)C)C

> <PUBCHEM_OPENEYE_ISO_SMILES>
CC1=C(C([C@H]([C@@H](C1)O)O)(C)C)/C=C/C(=C/C=C/C(=C/C=C/C=C(/C=C/C=C(/C=C/C2=C(C[C@H]([C@@H](C2(C)C)O)O)C)\C)\C)/C)/C

> <PUBCHEM_CACTVS_TPSA>
80.9

> <PUBCHEM_MONOISOTOPIC_WEIGHT>
600.41786

> <PUBCHEM_TOTAL_CHARGE>
0

> <PUBCHEM_HEAVY_ATOM_COUNT>
44

> <PUBCHEM_ATOM_DEF_STEREO_COUNT>
4

> <PUBCHEM_ATOM_UDEF_STEREO_COUNT>
0

> <PUBCHEM_BOND_DEF_STEREO_COUNT>
9

> <PUBCHEM_BOND_UDEF_STEREO_COUNT>
0

> <PUBCHEM_ISOTOPIC_ATOM_COUNT>
0

> <PUBCHEM_COMPONENT_COUNT>
1

> <PUBCHEM_CACTVS_TAUTO_COUNT>
1

> <PUBCHEM_COORDINATE_TYPE>
1
5
255

> <PUBCHEM_BONDANNOTATIONS>
8  1  5
7  2  5
9  3  6
10  4  6

$$$$

