9890450
  -OEChem-07051213022D

 52 55  0     1  0  0  0  0  0999 V2000
    7.6567   -1.5179    0.0000 S   0  0  0  0  0  0  0  0  0  0  0  0
    7.7500    0.2616    0.0000 S   0  0  0  0  0  0  0  0  0  0  0  0
    3.4040   -2.7306    0.0000 O   0  0  0  0  0  0  0  0  0  0  0  0
    2.4375   -0.5621    0.0000 O   0  0  0  0  0  0  0  0  0  0  0  0
    7.3561   -3.4859    0.0000 O   0  0  0  0  0  0  0  0  0  0  0  0
    5.7088   -4.0211    0.0000 O   0  0  0  0  0  0  0  0  0  0  0  0
   12.3089    3.6400    0.0000 O   0  0  0  0  0  0  0  0  0  0  0  0
    5.1179   -2.0179    0.0000 N   0  0  0  0  0  0  0  0  0  0  0  0
    9.1513   -0.5474    0.0000 N   0  0  0  0  0  0  0  0  0  0  0  0
   12.0998    1.6510    0.0000 N   0  3  0  0  0  0  0  0  0  0  0  0
   14.0314    3.4590    0.0000 N   0  0  0  0  0  0  0  0  0  0  0  0
    5.1179   -1.0179    0.0000 C   0  0  1  0  0  0  0  0  0  0  0  0
    4.1096   -1.0138    0.0000 C   0  0  2  0  0  0  0  0  0  0  0  0
    6.0690   -0.7089    0.0000 C   0  0  2  0  0  0  0  0  0  0  0  0
    4.1096   -2.0221    0.0000 C   0  0  0  0  0  0  0  0  0  0  0  0
    3.4040   -0.3052    0.0000 C   0  0  1  0  0  0  0  0  0  0  0  0
    6.0690   -2.3270    0.0000 C   0  0  0  0  0  0  0  0  0  0  0  0
    6.6567   -1.5179    0.0000 C   0  0  0  0  0  0  0  0  0  0  0  0
    6.3780    0.2421    0.0000 C   0  0  0  0  0  0  0  0  0  0  0  0
    3.6648    0.6602    0.0000 C   0  0  0  0  0  0  0  0  0  0  0  0
    6.3780   -3.2780    0.0000 C   0  0  0  0  0  0  0  0  0  0  0  0
    8.1567   -0.6519    0.0000 C   0  0  0  0  0  0  0  0  0  0  0  0
    9.3592    0.4308    0.0000 C   0  0  0  0  0  0  0  0  0  0  0  0
    8.4931    0.9308    0.0000 C   0  0  0  0  0  0  0  0  0  0  0  0
   10.2727    0.8375    0.0000 C   0  0  0  0  0  0  0  0  0  0  0  0
   10.3772    1.8320    0.0000 C   0  0  0  0  0  0  0  0  0  0  0  0
   11.0817    0.2497    0.0000 C   0  0  0  0  0  0  0  0  0  0  0  0
   11.2908    2.2388    0.0000 C   0  0  0  0  0  0  0  0  0  0  0  0
   11.9953    0.6565    0.0000 C   0  0  0  0  0  0  0  0  0  0  0  0
   13.0133    2.0577    0.0000 C   0  0  0  0  0  0  0  0  0  0  0  0
   13.1179    3.0522    0.0000 C   0  0  0  0  0  0  0  0  0  0  0  0
    4.9866   -0.1781    0.0000 H   0  0  0  0  0  0  0  0  0  0  0  0
    3.3240   -1.3383    0.0000 H   0  0  0  0  0  0  0  0  0  0  0  0
    5.6305   -0.2705    0.0000 H   0  0  0  0  0  0  0  0  0  0  0  0
    2.9665    0.1341    0.0000 H   0  0  0  0  0  0  0  0  0  0  0  0
    6.9676    0.0505    0.0000 H   0  0  0  0  0  0  0  0  0  0  0  0
    6.5696    0.8318    0.0000 H   0  0  0  0  0  0  0  0  0  0  0  0
    5.7883    0.4337    0.0000 H   0  0  0  0  0  0  0  0  0  0  0  0
    4.2633    0.4985    0.0000 H   0  0  0  0  0  0  0  0  0  0  0  0
    3.8265    1.2587    0.0000 H   0  0  0  0  0  0  0  0  0  0  0  0
    3.0662    0.8219    0.0000 H   0  0  0  0  0  0  0  0  0  0  0  0
    2.0000   -0.1228    0.0000 H   0  0  0  0  0  0  0  0  0  0  0  0
    7.5477   -4.0756    0.0000 H   0  0  0  0  0  0  0  0  0  0  0  0
    8.4283    1.5474    0.0000 H   0  0  0  0  0  0  0  0  0  0  0  0
    9.8756    2.1964    0.0000 H   0  0  0  0  0  0  0  0  0  0  0  0
   11.0169   -0.3669    0.0000 H   0  0  0  0  0  0  0  0  0  0  0  0
   11.3556    2.8554    0.0000 H   0  0  0  0  0  0  0  0  0  0  0  0
   12.4969    0.2920    0.0000 H   0  0  0  0  0  0  0  0  0  0  0  0
   13.1633    1.4561    0.0000 H   0  0  0  0  0  0  0  0  0  0  0  0
   13.6318    2.1010    0.0000 H   0  0  0  0  0  0  0  0  0  0  0  0
   14.0962    4.0756    0.0000 H   0  0  0  0  0  0  0  0  0  0  0  0
   14.5330    3.0945    0.0000 H   0  0  0  0  0  0  0  0  0  0  0  0
  1 18  1  0  0  0  0
  1 22  1  0  0  0  0
  2 22  1  0  0  0  0
  2 24  1  0  0  0  0
  3 15  2  0  0  0  0
 16  4  1  6  0  0  0
  4 42  1  0  0  0  0
  5 21  1  0  0  0  0
  5 43  1  0  0  0  0
  6 21  2  0  0  0  0
  7 31  2  0  0  0  0
  8 12  1  0  0  0  0
  8 15  1  0  0  0  0
  8 17  1  0  0  0  0
  9 22  2  0  0  0  0
  9 23  1  0  0  0  0
 10 28  2  0  0  0  0
 10 29  1  0  0  0  0
 10 30  1  0  0  0  0
 11 31  1  0  0  0  0
 11 51  1  0  0  0  0
 11 52  1  0  0  0  0
 12 13  1  0  0  0  0
 12 14  1  0  0  0  0
 12 32  1  6  0  0  0
 13 15  1  0  0  0  0
 13 16  1  0  0  0  0
 13 33  1  1  0  0  0
 14 18  1  0  0  0  0
 14 19  1  1  0  0  0
 14 34  1  0  0  0  0
 16 20  1  0  0  0  0
 16 35  1  0  0  0  0
 17 18  2  0  0  0  0
 17 21  1  0  0  0  0
 19 36  1  0  0  0  0
 19 37  1  0  0  0  0
 19 38  1  0  0  0  0
 20 39  1  0  0  0  0
 20 40  1  0  0  0  0
 20 41  1  0  0  0  0
 23 24  2  0  0  0  0
 23 25  1  0  0  0  0
 24 44  1  0  0  0  0
 25 26  2  0  0  0  0
 25 27  1  0  0  0  0
 26 28  1  0  0  0  0
 26 45  1  0  0  0  0
 27 29  2  0  0  0  0
 27 46  1  0  0  0  0
 28 47  1  0  0  0  0
 29 48  1  0  0  0  0
 30 31  1  0  0  0  0
 30 49  1  0  0  0  0
 30 50  1  0  0  0  0
M  CHG  1  10   1
M  END
> <PUBCHEM_COMPOUND_CID>
9890450

> <PUBCHEM_COMPOUND_CANONICALIZED>
1

> <PUBCHEM_CACTVS_COMPLEXITY>
800

> <PUBCHEM_CACTVS_HBOND_ACCEPTOR>
8

> <PUBCHEM_CACTVS_HBOND_DONOR>
3

> <PUBCHEM_CACTVS_ROTATABLE_BOND>
7

> <PUBCHEM_CACTVS_SUBSKEYS>
AAADceB7uABgAAAAAAAAAAAAAABYAWIAAAAsAAAABAAAAAAB4AAAHgQQCAAADTzl3ga+iZNMEgisAzX3XACC8aBxCjgI2DW4ZNgKdP7gkbGUcAhmtgDY2QeYAAAOAAAAAAAAAAAAAAAAAAAAAAAAAAAAAA==

> <PUBCHEM_IUPAC_OPENEYE_NAME>
(4R,5S,6S)-3-[4-[1-(2-amino-2-oxo-ethyl)pyridin-1-ium-4-yl]thiazol-2-yl]sulfanyl-6-[(1R)-1-hydroxyethyl]-4-methyl-7-oxo-1-azabicyclo[3.2.0]hept-2-ene-2-carboxylic acid

> <PUBCHEM_IUPAC_CAS_NAME>
(4R,5S,6S)-3-[[4-[1-(2-amino-2-oxoethyl)-4-pyridin-1-iumyl]-2-thiazolyl]thio]-6-[(1R)-1-hydroxyethyl]-4-methyl-7-oxo-1-azabicyclo[3.2.0]hept-2-ene-2-carboxylic acid

> <PUBCHEM_IUPAC_NAME>
(4R,5S,6S)-3-[[4-[1-(2-amino-2-oxoethyl)pyridin-1-ium-4-yl]-1,3-thiazol-2-yl]sulfanyl]-6-[(1R)-1-hydroxyethyl]-4-methyl-7-oxo-1-azabicyclo[3.2.0]hept-2-ene-2-carboxylic acid

> <PUBCHEM_IUPAC_SYSTEMATIC_NAME>
(4R,5S,6S)-3-[[4-[1-(2-azanyl-2-oxidanylidene-ethyl)pyridin-1-ium-4-yl]-1,3-thiazol-2-yl]sulfanyl]-4-methyl-6-[(1R)-1-oxidanylethyl]-7-oxidanylidene-1-azabicyclo[3.2.0]hept-2-ene-2-carboxylic acid

> <PUBCHEM_IUPAC_TRADITIONAL_NAME>
(4R,5S,6S)-3-[[4-[1-(2-amino-2-keto-ethyl)pyridin-1-ium-4-yl]thiazol-2-yl]thio]-6-[(1R)-1-hydroxyethyl]-7-keto-4-methyl-1-azabicyclo[3.2.0]hept-2-ene-2-carboxylic acid

> <PUBCHEM_IUPAC_INCHI>
InChI=1S/C20H20N4O5S2/c1-9-15-14(10(2)25)18(27)24(15)16(19(28)29)17(9)31-20-22-12(8-30-20)11-3-5-23(6-4-11)7-13(21)26/h3-6,8-10,14-15,25H,7H2,1-2H3,(H2-,21,26,28,29)/p+1/t9-,10-,14-,15-/m1/s1

> <PUBCHEM_IUPAC_INCHIKEY>
RRTBMNWYYYTAEH-XEQNPHJVSA-O

> <PUBCHEM_XLOGP3_AA>
1.3

> <PUBCHEM_EXACT_MASS>
461.095337

> <PUBCHEM_MOLECULAR_FORMULA>
C20H21N4O5S2+

> <PUBCHEM_MOLECULAR_WEIGHT>
461.53454

> <PUBCHEM_OPENEYE_CAN_SMILES>
CC1C2C(C(=O)N2C(=C1SC3=NC(=CS3)C4=CC=[N+](C=C4)CC(=O)N)C(=O)O)C(C)O

> <PUBCHEM_OPENEYE_ISO_SMILES>
C[C@@H]1[C@@H]2[C@H](C(=O)N2C(=C1SC3=NC(=CS3)C4=CC=[N+](C=C4)CC(=O)N)C(=O)O)[C@@H](C)O

> <PUBCHEM_CACTVS_TPSA>
191

> <PUBCHEM_MONOISOTOPIC_WEIGHT>
461.095337

> <PUBCHEM_TOTAL_CHARGE>
1

> <PUBCHEM_HEAVY_ATOM_COUNT>
31

> <PUBCHEM_ATOM_DEF_STEREO_COUNT>
4

> <PUBCHEM_ATOM_UDEF_STEREO_COUNT>
0

> <PUBCHEM_BOND_DEF_STEREO_COUNT>
0

> <PUBCHEM_BOND_UDEF_STEREO_COUNT>
0

> <PUBCHEM_ISOTOPIC_ATOM_COUNT>
0

> <PUBCHEM_COMPONENT_COUNT>
1

> <PUBCHEM_CACTVS_TAUTO_COUNT>
6

> <PUBCHEM_COORDINATE_TYPE>
1
5
255

> <PUBCHEM_BONDANNOTATIONS>
10  28  8
10  29  8
12  32  6
13  33  5
14  19  5
2  22  8
2  24  8
23  24  8
25  26  8
25  27  8
26  28  8
27  29  8
16  4  6
9  22  8
9  23  8

$$$$

