   Melting Point
        99-100 deg C
   from [1]HSDB

   Dissociation Constants
        pka= 8.94
   from [2]HSDB

   Octanol/Water Partition Coefficient
        log Kow= 3.93
   from [3]HSDB

   Spectral Properties

     * MAX ABSORPTION (ALCOHOL): 295 NM (LOG E= 2.66)
     * IR: 896 (Coblentz Society Spectral Collection)
     * MASS: 2-626 (Archives of Mass Spectral Data, John Wiley & Sons, New
       York)
     * Specific optical rotation (alcohol) -32 deg at 20 deg C
     * Intense mass spectral peaks: 72 m/z, 165 m/z, 294 m/z, 309 m/z

   from [4]HSDB

   Other Chemical/Physical Properties

     * MAX ABSORPTION (0.2 MOLAR H3BO3): 290 NM (A= 170, 1%, 1 CM); (0.5 N
       NAOH): 290 NM (A= 65, 1%, 1 CM) /DL-METHADONE/
     * Platelets from alcohol + ether; mp, 235 deg C; bitter taste; UV
       maximum, 292 nm; solubility (g/100 ml) water, 12; alcohol, 8;
       isopropanol, 2.4; Practically insol in ether, glycerol; pH of a 1%
       aq soln is 4.5-5.6; Aq soln can be autoclaved at 120 deg C for 1 hr
       without loss of potency /dl-Methadone hydrochloride/
     * 1 G IN 13 ML WATER; 8 ML ALCOHOL, 3 ML CHLOROFORM; PRACTICALLY
       INSOL IN ETHER & GLYCERIN; COLORLESS CRYSTALS OR A WHITE,
       CRYSTALLINE POWDER /METHADONE HYDROCHLORIDE/
     * Methadone is a synthetic diphenylpropylamine similar in structure
       to acetylmethadol and propoxyphene.
     * Methadone hydrochloride injection has a pH of 3 to 6.5. Methadone
       hydrochloride oral concentrate has a pH of 1-6. /Methadone
       hydrochloride/
     * IR: 5121 (Coblentz Society Spectral Collection) /Methadone
       hydrochloride/
     * MASS: 2-626 (Archives of Mass Spectral Data, John Wiley & Sons, New
       York) /Methadone hydrochloride/
     * Crystals, mp 241 deg C; Specific rotation @ 20 deg C: -145 deg (c=
       2.5), -169 deg (c= 2.1 in alc) /l-Methadone hydrochloride/
     * Methadone hydrochloride injection has been reported to be
       physically or chemically incompatible with solutions containing
       aminophylline, ammonium chloride, amobarbital sodium,
       chlorothiazide sodium, phenytoin sodium, heparin sodium,
       methicillin sodium, nitrofurantoin sodium, pentobarbital sodium,
       phenobarbital sodium, sodium bicarbonate, and thiopental sodium.
       Specialized references should be consulted for more specific
       compatibility information. /Methadone hydrochloride/

   from [5]HSDB

   Computed Properties
   Molecular Weight                  309.44518 [g/mol]
   Molecular Formula                 C[21]H[27]NO
   XLogP3                            3.9
   H-Bond Donor                      0
   H-Bond Acceptor                   2
   Rotatable Bond Count              7
   Tautomer Count                    2
   Exact Mass                        309.209264
   MonoIsotopic Mass                 309.209264
   Topological Polar Surface Area    20.3
   Heavy Atom Count                  23
   Formal Charge                     0
   Complexity                        346
   Isotope Atom Count                0
   Defined Atom Stereocenter Count   0
   Undefined Atom Stereocenter Count 1
   Defined Bond Stereocenter Count   0
   Undefined Bond Stereocenter Count 0
   Covalently-Bonded Unit Count      1
   Feature 3D Acceptor Count         1
   Feature 3D Cation Count           1
   Feature 3D Hydrophobe Count       1
   Feature 3D Ring Count             2
   Effective Rotor Count             7
   Conformer Sampling RMSD           0.8
   CID Conformer Count               [6]40

References

   1. http://toxnet.nlm.nih.gov/cgi-bin/sis/search/r?dbs+hsdb:@term+@rn+@rel+76-99-3
   2. http://toxnet.nlm.nih.gov/cgi-bin/sis/search/r?dbs+hsdb:@term+@rn+@rel+76-99-3
   3. http://toxnet.nlm.nih.gov/cgi-bin/sis/search/r?dbs+hsdb:@term+@rn+@rel+76-99-3
   4. http://toxnet.nlm.nih.gov/cgi-bin/sis/search/r?dbs+hsdb:@term+@rn+@rel+76-99-3
   5. http://toxnet.nlm.nih.gov/cgi-bin/sis/search/r?dbs+hsdb:@term+@rn+@rel+76-99-3
   6. http://pubchem.ncbi.nlm.nih.gov/vw3d/vw3d.cgi?cid=4095
