14464332
  -OEChem-07051213102D

 54 57  0     1  0  0  0  0  0999 V2000
    6.3820    0.8636    0.0000 O   0  0  0  0  0  0  0  0  0  0  0  0
    7.2641   -1.6779    0.0000 O   0  0  0  0  0  0  0  0  0  0  0  0
    9.0343   -0.6810    0.0000 O   0  0  0  0  0  0  0  0  0  0  0  0
    9.0501    1.3672    0.0000 O   0  0  0  0  0  0  0  0  0  0  0  0
    8.1403    2.8947    0.0000 O   0  0  0  0  0  0  0  0  0  0  0  0
    4.6497    0.8567    0.0000 O   0  0  0  0  0  0  0  0  0  0  0  0
    6.3981   -3.1779    0.0000 O   0  0  0  0  0  0  0  0  0  0  0  0
    2.8680   -0.1538    0.0000 O   0  0  0  0  0  0  0  0  0  0  0  0
    2.8680   -2.2020    0.0000 O   0  0  0  0  0  0  0  0  0  0  0  0
    9.9176    0.8088    0.0000 O   0  0  0  0  0  0  0  0  0  0  0  0
   13.3699   -0.2311    0.0000 O   0  0  0  0  0  0  0  0  0  0  0  0
   11.6033   -3.2109    0.0000 O   0  0  0  0  0  0  0  0  0  0  0  0
   13.3468   -2.2310    0.0000 O   0  0  0  0  0  0  0  0  0  0  0  0
    7.2641   -0.6779    0.0000 C   0  0  3  0  0  0  0  0  0  0  0  0
    8.1741   -0.1711    0.0000 C   0  0  3  0  0  0  0  0  0  0  0  0
    6.3981   -0.1779    0.0000 C   0  0  3  0  0  0  0  0  0  0  0  0
    8.1821    0.8705    0.0000 C   0  0  3  0  0  0  0  0  0  0  0  0
    7.2800    1.3914    0.0000 C   0  0  3  0  0  0  0  0  0  0  0  0
    5.5320   -0.6779    0.0000 C   0  0  0  0  0  0  0  0  0  0  0  0
    7.2762    2.3914    0.0000 C   0  0  0  0  0  0  0  0  0  0  0  0
    5.5320   -1.6779    0.0000 C   0  0  0  0  0  0  0  0  0  0  0  0
    6.3981   -2.1779    0.0000 C   0  0  0  0  0  0  0  0  0  0  0  0
    4.6381   -0.1432    0.0000 C   0  0  0  0  0  0  0  0  0  0  0  0
    4.6381   -2.2126    0.0000 C   0  0  0  0  0  0  0  0  0  0  0  0
    3.7320   -0.6571    0.0000 C   0  0  0  0  0  0  0  0  0  0  0  0
    3.7320   -1.6987    0.0000 C   0  0  0  0  0  0  0  0  0  0  0  0
    9.9060   -0.1911    0.0000 C   0  0  0  0  0  0  0  0  0  0  0  0
   10.7662   -0.7011    0.0000 C   0  0  0  0  0  0  0  0  0  0  0  0
   10.7547   -1.7010    0.0000 C   0  0  0  0  0  0  0  0  0  0  0  0
   11.6380   -0.2111    0.0000 C   0  0  0  0  0  0  0  0  0  0  0  0
    2.0000   -0.6504    0.0000 C   0  0  0  0  0  0  0  0  0  0  0  0
   12.4982   -0.7211    0.0000 C   0  0  0  0  0  0  0  0  0  0  0  0
   11.6148   -2.2110    0.0000 C   0  0  0  0  0  0  0  0  0  0  0  0
   12.4866   -1.7210    0.0000 C   0  0  0  0  0  0  0  0  0  0  0  0
    7.7986   -0.9920    0.0000 H   0  0  0  0  0  0  0  0  0  0  0  0
    8.7140    0.1338    0.0000 H   0  0  0  0  0  0  0  0  0  0  0  0
    6.9326    0.1362    0.0000 H   0  0  0  0  0  0  0  0  0  0  0  0
    8.7173    0.5574    0.0000 H   0  0  0  0  0  0  0  0  0  0  0  0
    6.7413    1.6982    0.0000 H   0  0  0  0  0  0  0  0  0  0  0  0
    7.0619    2.9731    0.0000 H   0  0  0  0  0  0  0  0  0  0  0  0
    6.6660    2.2813    0.0000 H   0  0  0  0  0  0  0  0  0  0  0  0
    9.0525    1.9872    0.0000 H   0  0  0  0  0  0  0  0  0  0  0  0
    4.6453   -2.8325    0.0000 H   0  0  0  0  0  0  0  0  0  0  0  0
    8.1379    3.5147    0.0000 H   0  0  0  0  0  0  0  0  0  0  0  0
    4.1164    1.1729    0.0000 H   0  0  0  0  0  0  0  0  0  0  0  0
    2.8703   -2.8220    0.0000 H   0  0  0  0  0  0  0  0  0  0  0  0
   10.2142   -2.0048    0.0000 H   0  0  0  0  0  0  0  0  0  0  0  0
   11.6451    0.4088    0.0000 H   0  0  0  0  0  0  0  0  0  0  0  0
    1.6921   -0.1123    0.0000 H   0  0  0  0  0  0  0  0  0  0  0  0
    1.4619   -0.9583    0.0000 H   0  0  0  0  0  0  0  0  0  0  0  0
    2.3079   -1.1885    0.0000 H   0  0  0  0  0  0  0  0  0  0  0  0
   13.3771    0.3888    0.0000 H   0  0  0  0  0  0  0  0  0  0  0  0
   11.0628   -3.5147    0.0000 H   0  0  0  0  0  0  0  0  0  0  0  0
   13.8873   -1.9272    0.0000 H   0  0  0  0  0  0  0  0  0  0  0  0
  1 16  1  0  0  0  0
  1 18  1  0  0  0  0
  2 14  1  0  0  0  0
  2 22  1  0  0  0  0
  3 15  1  0  0  0  0
  3 27  1  0  0  0  0
  4 17  1  0  0  0  0
  4 42  1  0  0  0  0
  5 20  1  0  0  0  0
  5 44  1  0  0  0  0
  6 23  1  0  0  0  0
  6 45  1  0  0  0  0
  7 22  2  0  0  0  0
  8 25  1  0  0  0  0
  8 31  1  0  0  0  0
  9 26  1  0  0  0  0
  9 46  1  0  0  0  0
 10 27  2  0  0  0  0
 11 32  1  0  0  0  0
 11 52  1  0  0  0  0
 12 33  1  0  0  0  0
 12 53  1  0  0  0  0
 13 34  1  0  0  0  0
 13 54  1  0  0  0  0
 14 15  1  0  0  0  0
 14 16  1  0  0  0  0
 14 35  1  0  0  0  0
 15 17  1  0  0  0  0
 15 36  1  0  0  0  0
 16 19  1  0  0  0  0
 16 37  1  0  0  0  0
 17 18  1  0  0  0  0
 17 38  1  0  0  0  0
 18 20  1  0  0  0  0
 18 39  1  0  0  0  0
 19 21  1  0  0  0  0
 19 23  2  0  0  0  0
 20 40  1  0  0  0  0
 20 41  1  0  0  0  0
 21 22  1  0  0  0  0
 21 24  2  0  0  0  0
 23 25  1  0  0  0  0
 24 26  1  0  0  0  0
 24 43  1  0  0  0  0
 25 26  2  0  0  0  0
 27 28  1  0  0  0  0
 28 29  2  0  0  0  0
 28 30  1  0  0  0  0
 29 33  1  0  0  0  0
 29 47  1  0  0  0  0
 30 32  2  0  0  0  0
 30 48  1  0  0  0  0
 31 49  1  0  0  0  0
 31 50  1  0  0  0  0
 31 51  1  0  0  0  0
 32 34  1  0  0  0  0
 33 34  2  0  0  0  0
M  END
> <PUBCHEM_COMPOUND_CID>
14464332

> <PUBCHEM_COMPOUND_CANONICALIZED>
1

> <PUBCHEM_CACTVS_COMPLEXITY>
751

> <PUBCHEM_CACTVS_HBOND_ACCEPTOR>
13

> <PUBCHEM_CACTVS_HBOND_DONOR>
7

> <PUBCHEM_CACTVS_ROTATABLE_BOND>
5

> <PUBCHEM_CACTVS_SUBSKEYS>
AAADceB4PAAAAAAAAAAAAAAAAAAAAAAAAAA0aIEAAAAAAACRQAAAGgAACAAADBSgmAIyDoAABgCIAiDSCAACCAAkIAAAiAEGiMgNNzKGNRqCcSMlwBULuYfK7PzOoAABCAAYQABAAAIQADCAAAAAAAAAAA==

> <PUBCHEM_IUPAC_OPENEYE_NAME>
[3,8,10-trihydroxy-2-(hydroxymethyl)-9-methoxy-6-oxo-3,4,4a,10b-tetrahydro-2H-pyrano[3,2-c]isochromen-4-yl] 3,4,5-trihydroxybenzoate

> <PUBCHEM_IUPAC_CAS_NAME>
3,4,5-trihydroxybenzoic acid [3,8,10-trihydroxy-2-(hydroxymethyl)-9-methoxy-6-oxo-3,4,4a,10b-tetrahydro-2H-pyrano[3,2-c][2]benzopyran-4-yl] ester

> <PUBCHEM_IUPAC_NAME>
[3,8,10-trihydroxy-2-(hydroxymethyl)-9-methoxy-6-oxo-3,4,4a,10b-tetrahydro-2H-pyrano[3,2-c]isochromen-4-yl] 3,4,5-trihydroxybenzoate

> <PUBCHEM_IUPAC_SYSTEMATIC_NAME>
[2-(hydroxymethyl)-9-methoxy-3,8,10-tris(oxidanyl)-6-oxidanylidene-3,4,4a,10b-tetrahydro-2H-pyrano[3,2-c]isochromen-4-yl] 3,4,5-tris(oxidanyl)benzoate

> <PUBCHEM_IUPAC_TRADITIONAL_NAME>
3,4,5-trihydroxybenzoic acid (3,8,10-trihydroxy-6-keto-9-methoxy-2-methylol-3,4,4a,10b-tetrahydro-2H-pyran[3,2-c]isochromen-4-yl) ester

> <PUBCHEM_IUPAC_INCHI>
InChI=1S/C21H20O13/c1-31-16-10(25)4-7-12(15(16)28)17-19(34-21(7)30)18(14(27)11(5-22)32-17)33-20(29)6-2-8(23)13(26)9(24)3-6/h2-4,11,14,17-19,22-28H,5H2,1H3

> <PUBCHEM_IUPAC_INCHIKEY>
QKSHSFQTWCKTFV-UHFFFAOYSA-N

> <PUBCHEM_XLOGP3_AA>
0.2

> <PUBCHEM_EXACT_MASS>
480.090391

> <PUBCHEM_MOLECULAR_FORMULA>
C21H20O13

> <PUBCHEM_MOLECULAR_WEIGHT>
480.3757

> <PUBCHEM_OPENEYE_CAN_SMILES>
COC1=C(C=C2C(=C1O)C3C(C(C(C(O3)CO)O)OC(=O)C4=CC(=C(C(=C4)O)O)O)OC2=O)O

> <PUBCHEM_OPENEYE_ISO_SMILES>
COC1=C(C=C2C(=C1O)C3C(C(C(C(O3)CO)O)OC(=O)C4=CC(=C(C(=C4)O)O)O)OC2=O)O

> <PUBCHEM_CACTVS_TPSA>
213

> <PUBCHEM_MONOISOTOPIC_WEIGHT>
480.090391

> <PUBCHEM_TOTAL_CHARGE>
0

> <PUBCHEM_HEAVY_ATOM_COUNT>
34

> <PUBCHEM_ATOM_DEF_STEREO_COUNT>
0

> <PUBCHEM_ATOM_UDEF_STEREO_COUNT>
5

> <PUBCHEM_BOND_DEF_STEREO_COUNT>
0

> <PUBCHEM_BOND_UDEF_STEREO_COUNT>
0

> <PUBCHEM_ISOTOPIC_ATOM_COUNT>
0

> <PUBCHEM_COMPONENT_COUNT>
1

> <PUBCHEM_CACTVS_TAUTO_COUNT>
126

> <PUBCHEM_COORDINATE_TYPE>
1
5
255

> <PUBCHEM_BONDANNOTATIONS>
16  1  3
18  20  3
19  21  8
19  23  8
14  2  3
21  24  8
23  25  8
24  26  8
25  26  8
28  29  8
28  30  8
29  33  8
15  3  3
30  32  8
32  34  8
33  34  8
17  4  3

$$$$

