51090863
  -OEChem-06241223002D

 47 49  0     1  0  0  0  0  0999 V2000
    7.1962   -0.8512    0.0000 O   0  0  0  0  0  0  0  0  0  0  0  0
    6.3301    2.6488    0.0000 O   0  0  0  0  0  0  0  0  0  0  0  0
    9.6448    2.9852    0.0000 O   0  0  0  0  0  0  0  0  0  0  0  0
    3.7320   -1.8512    0.0000 N   0  0  0  0  0  0  0  0  0  0  0  0
    4.5981   -3.3512    0.0000 N   0  0  0  0  0  0  0  0  0  0  0  0
    5.4641   -0.8512    0.0000 N   0  0  0  0  0  0  0  0  0  0  0  0
    7.1962    1.1488    0.0000 N   0  0  0  0  0  0  0  0  0  0  0  0
    2.0000   -0.8512    0.0000 C   0  0  0  0  0  0  0  0  0  0  0  0
    2.8660   -0.3512    0.0000 C   0  0  0  0  0  0  0  0  0  0  0  0
    2.0000   -1.8512    0.0000 C   0  0  0  0  0  0  0  0  0  0  0  0
    3.7320   -0.8512    0.0000 C   0  0  0  0  0  0  0  0  0  0  0  0
    2.8660   -2.3512    0.0000 C   0  0  0  0  0  0  0  0  0  0  0  0
    4.5981   -2.3512    0.0000 C   0  0  0  0  0  0  0  0  0  0  0  0
    5.4641   -1.8512    0.0000 C   0  0  0  0  0  0  0  0  0  0  0  0
    6.3301   -2.3512    0.0000 C   0  0  0  0  0  0  0  0  0  0  0  0
    6.3301    0.6488    0.0000 C   0  0  3  0  0  0  0  0  0  0  0  0
    6.3301   -0.3512    0.0000 C   0  0  0  0  0  0  0  0  0  0  0  0
    5.4641   -3.8512    0.0000 C   0  0  0  0  0  0  0  0  0  0  0  0
    6.3301   -3.3512    0.0000 C   0  0  0  0  0  0  0  0  0  0  0  0
    5.4641    1.1488    0.0000 C   0  0  0  0  0  0  0  0  0  0  0  0
    7.1962    2.1488    0.0000 C   0  0  0  0  0  0  0  0  0  0  0  0
    8.0622    2.6488    0.0000 C   0  0  0  0  0  0  0  0  0  0  0  0
    8.1667    3.6433    0.0000 C   0  0  0  0  0  0  0  0  0  0  0  0
    8.9757    2.2420    0.0000 C   0  0  0  0  0  0  0  0  0  0  0  0
    9.1448    3.8512    0.0000 C   0  0  0  0  0  0  0  0  0  0  0  0
    1.7880   -0.2686    0.0000 H   0  0  0  0  0  0  0  0  0  0  0  0
    1.3894   -0.9589    0.0000 H   0  0  0  0  0  0  0  0  0  0  0  0
    1.3894   -1.7436    0.0000 H   0  0  0  0  0  0  0  0  0  0  0  0
    1.7880   -2.4338    0.0000 H   0  0  0  0  0  0  0  0  0  0  0  0
    3.2646    0.1237    0.0000 H   0  0  0  0  0  0  0  0  0  0  0  0
    2.4675    0.1237    0.0000 H   0  0  0  0  0  0  0  0  0  0  0  0
    2.4675   -2.8262    0.0000 H   0  0  0  0  0  0  0  0  0  0  0  0
    3.2646   -2.8262    0.0000 H   0  0  0  0  0  0  0  0  0  0  0  0
    4.3426   -0.9589    0.0000 H   0  0  0  0  0  0  0  0  0  0  0  0
    3.9441   -0.2686    0.0000 H   0  0  0  0  0  0  0  0  0  0  0  0
    4.9272   -0.5412    0.0000 H   0  0  0  0  0  0  0  0  0  0  0  0
    6.8671   -2.0412    0.0000 H   0  0  0  0  0  0  0  0  0  0  0  0
    6.8671    0.3388    0.0000 H   0  0  0  0  0  0  0  0  0  0  0  0
    5.4641   -4.4712    0.0000 H   0  0  0  0  0  0  0  0  0  0  0  0
    6.8671   -3.6612    0.0000 H   0  0  0  0  0  0  0  0  0  0  0  0
    5.7741    1.6857    0.0000 H   0  0  0  0  0  0  0  0  0  0  0  0
    4.9272    1.4588    0.0000 H   0  0  0  0  0  0  0  0  0  0  0  0
    5.1541    0.6118    0.0000 H   0  0  0  0  0  0  0  0  0  0  0  0
    7.7331    0.8388    0.0000 H   0  0  0  0  0  0  0  0  0  0  0  0
    7.7060    4.0582    0.0000 H   0  0  0  0  0  0  0  0  0  0  0  0
    9.1046    1.6356    0.0000 H   0  0  0  0  0  0  0  0  0  0  0  0
    9.3970    4.4176    0.0000 H   0  0  0  0  0  0  0  0  0  0  0  0
  1 17  2  0  0  0  0
  2 21  2  0  0  0  0
  3 24  1  0  0  0  0
  3 25  1  0  0  0  0
  4 11  1  0  0  0  0
  4 12  1  0  0  0  0
  4 13  1  0  0  0  0
  5 13  1  0  0  0  0
  5 18  2  0  0  0  0
  6 14  1  0  0  0  0
  6 17  1  0  0  0  0
  6 36  1  0  0  0  0
  7 16  1  0  0  0  0
  7 21  1  0  0  0  0
  7 44  1  0  0  0  0
  8  9  1  0  0  0  0
  8 10  1  0  0  0  0
  8 26  1  0  0  0  0
  8 27  1  0  0  0  0
  9 11  1  0  0  0  0
  9 30  1  0  0  0  0
  9 31  1  0  0  0  0
 10 12  1  0  0  0  0
 10 28  1  0  0  0  0
 10 29  1  0  0  0  0
 11 34  1  0  0  0  0
 11 35  1  0  0  0  0
 12 32  1  0  0  0  0
 12 33  1  0  0  0  0
 13 14  2  0  0  0  0
 14 15  1  0  0  0  0
 15 19  2  0  0  0  0
 15 37  1  0  0  0  0
 16 17  1  0  0  0  0
 16 20  1  0  0  0  0
 16 38  1  0  0  0  0
 18 19  1  0  0  0  0
 18 39  1  0  0  0  0
 19 40  1  0  0  0  0
 20 41  1  0  0  0  0
 20 42  1  0  0  0  0
 20 43  1  0  0  0  0
 21 22  1  0  0  0  0
 22 23  1  0  0  0  0
 22 24  2  0  0  0  0
 23 25  2  0  0  0  0
 23 45  1  0  0  0  0
 24 46  1  0  0  0  0
 25 47  1  0  0  0  0
M  END
> <PUBCHEM_COMPOUND_CID>
51090863

> <PUBCHEM_COMPOUND_CANONICALIZED>
1

> <PUBCHEM_CACTVS_COMPLEXITY>
467

> <PUBCHEM_CACTVS_HBOND_ACCEPTOR>
5

> <PUBCHEM_CACTVS_HBOND_DONOR>
2

> <PUBCHEM_CACTVS_ROTATABLE_BOND>
5

> <PUBCHEM_CACTVS_SUBSKEYS>
AAADceB7sAAAAAAAAAAAAAAAAAAAASAAAAAsWAAAAAAAAAAB4AAAHgAQAAAADCjhmgY/9JPIFECoAj939ACCiCk1MiAJ2KG+fNiMZv7MvbuWOWju9hPI6aY3AAAIAAAAAAAAAAAAAAAAAAAAAAAAAAAAAA==

> <PUBCHEM_IUPAC_OPENEYE_NAME>
N-[1-methyl-2-oxo-2-[[2-(1-piperidyl)-3-pyridyl]amino]ethyl]furan-3-carboxamide

> <PUBCHEM_IUPAC_CAS_NAME>
N-[1-oxo-1-[[2-(1-piperidinyl)-3-pyridinyl]amino]propan-2-yl]-3-furancarboxamide

> <PUBCHEM_IUPAC_NAME>
N-[1-oxo-1-[(2-piperidin-1-ylpyridin-3-yl)amino]propan-2-yl]furan-3-carboxamide

> <PUBCHEM_IUPAC_SYSTEMATIC_NAME>
N-[1-oxidanylidene-1-[(2-piperidin-1-ylpyridin-3-yl)amino]propan-2-yl]furan-3-carboxamide

> <PUBCHEM_IUPAC_TRADITIONAL_NAME>
N-[2-keto-1-methyl-2-[(2-piperidino-3-pyridyl)amino]ethyl]-3-furamide

> <PUBCHEM_IUPAC_INCHI>
InChI=1S/C18H22N4O3/c1-13(20-18(24)14-7-11-25-12-14)17(23)21-15-6-5-8-19-16(15)22-9-3-2-4-10-22/h5-8,11-13H,2-4,9-10H2,1H3,(H,20,24)(H,21,23)

> <PUBCHEM_IUPAC_INCHIKEY>
HFGAFMZIRUERJX-UHFFFAOYSA-N

> <PUBCHEM_XLOGP3_AA>
1.8

> <PUBCHEM_EXACT_MASS>
342.169191

> <PUBCHEM_MOLECULAR_FORMULA>
C18H22N4O3

> <PUBCHEM_MOLECULAR_WEIGHT>
342.39228

> <PUBCHEM_OPENEYE_CAN_SMILES>
CC(C(=O)NC1=C(N=CC=C1)N2CCCCC2)NC(=O)C3=COC=C3

> <PUBCHEM_OPENEYE_ISO_SMILES>
CC(C(=O)NC1=C(N=CC=C1)N2CCCCC2)NC(=O)C3=COC=C3

> <PUBCHEM_CACTVS_TPSA>
87.5

> <PUBCHEM_MONOISOTOPIC_WEIGHT>
342.169191

> <PUBCHEM_TOTAL_CHARGE>
0

> <PUBCHEM_HEAVY_ATOM_COUNT>
25

> <PUBCHEM_ATOM_DEF_STEREO_COUNT>
0

> <PUBCHEM_ATOM_UDEF_STEREO_COUNT>
1

> <PUBCHEM_BOND_DEF_STEREO_COUNT>
0

> <PUBCHEM_BOND_UDEF_STEREO_COUNT>
0

> <PUBCHEM_ISOTOPIC_ATOM_COUNT>
0

> <PUBCHEM_COMPONENT_COUNT>
1

> <PUBCHEM_CACTVS_TAUTO_COUNT>
6

> <PUBCHEM_COORDINATE_TYPE>
1
5
255

> <PUBCHEM_BONDANNOTATIONS>
13  14  8
14  15  8
15  19  8
16  20  3
18  19  8
22  23  8
22  24  8
23  25  8
3  24  8
3  25  8
5  13  8
5  18  8

$$$$

