17395525
  -OEChem-06241222502D

 45 46  0     0  0  0  0  0  0999 V2000
    4.5981   -0.5670    0.0000 O   0  0  0  0  0  0  0  0  0  0  0  0
    8.8141    3.6535    0.0000 O   0  0  0  0  0  0  0  0  0  0  0  0
    4.5981    1.4330    0.0000 O   0  0  0  0  0  0  0  0  0  0  0  0
    7.2318    4.3580    0.0000 O   0  0  0  0  0  0  0  0  0  0  0  0
    2.8660   -1.5670    0.0000 O   0  0  0  0  0  0  0  0  0  0  0  0
    7.2437    1.0262    0.0000 N   0  0  0  0  0  0  0  0  0  0  0  0
    6.4347    2.4275    0.0000 C   0  0  0  0  0  0  0  0  0  0  0  0
    6.3301    1.4330    0.0000 C   0  0  0  0  0  0  0  0  0  0  0  0
    7.4128    2.6354    0.0000 C   0  0  0  0  0  0  0  0  0  0  0  0
    7.9128    1.7694    0.0000 C   0  0  0  0  0  0  0  0  0  0  0  0
    5.4641    0.9330    0.0000 C   0  0  0  0  0  0  0  0  0  0  0  0
    5.6915    3.0966    0.0000 C   0  0  0  0  0  0  0  0  0  0  0  0
    8.9073    1.6648    0.0000 C   0  0  0  0  0  0  0  0  0  0  0  0
    5.4641   -0.0670    0.0000 C   0  0  0  0  0  0  0  0  0  0  0  0
    7.8195    3.5490    0.0000 C   0  0  0  0  0  0  0  0  0  0  0  0
    4.5981   -1.5670    0.0000 C   0  0  0  0  0  0  0  0  0  0  0  0
    3.7320   -2.0670    0.0000 C   0  0  0  0  0  0  0  0  0  0  0  0
    4.5981   -3.5670    0.0000 C   0  0  0  0  0  0  0  0  0  0  0  0
    5.4641   -2.0670    0.0000 C   0  0  0  0  0  0  0  0  0  0  0  0
    3.7320   -3.0670    0.0000 C   0  0  0  0  0  0  0  0  0  0  0  0
    5.4641   -3.0670    0.0000 C   0  0  0  0  0  0  0  0  0  0  0  0
    4.5981   -4.5670    0.0000 C   0  0  0  0  0  0  0  0  0  0  0  0
    9.2208    4.5670    0.0000 C   0  0  0  0  0  0  0  0  0  0  0  0
    2.0000   -2.0670    0.0000 C   0  0  0  0  0  0  0  0  0  0  0  0
    7.3726    0.4198    0.0000 H   0  0  0  0  0  0  0  0  0  0  0  0
    6.1064    3.5574    0.0000 H   0  0  0  0  0  0  0  0  0  0  0  0
    5.2308    3.5115    0.0000 H   0  0  0  0  0  0  0  0  0  0  0  0
    5.2766    2.6359    0.0000 H   0  0  0  0  0  0  0  0  0  0  0  0
    8.8425    1.0482    0.0000 H   0  0  0  0  0  0  0  0  0  0  0  0
    9.5239    1.6000    0.0000 H   0  0  0  0  0  0  0  0  0  0  0  0
    8.9721    2.2815    0.0000 H   0  0  0  0  0  0  0  0  0  0  0  0
    5.6762   -0.6496    0.0000 H   0  0  0  0  0  0  0  0  0  0  0  0
    6.0747    0.0406    0.0000 H   0  0  0  0  0  0  0  0  0  0  0  0
    6.0010   -1.7570    0.0000 H   0  0  0  0  0  0  0  0  0  0  0  0
    3.1951   -3.3770    0.0000 H   0  0  0  0  0  0  0  0  0  0  0  0
    6.0010   -3.3770    0.0000 H   0  0  0  0  0  0  0  0  0  0  0  0
    3.9781   -4.5670    0.0000 H   0  0  0  0  0  0  0  0  0  0  0  0
    4.5981   -5.1870    0.0000 H   0  0  0  0  0  0  0  0  0  0  0  0
    5.2181   -4.5670    0.0000 H   0  0  0  0  0  0  0  0  0  0  0  0
    9.7872    4.3148    0.0000 H   0  0  0  0  0  0  0  0  0  0  0  0
    9.4730    5.1334    0.0000 H   0  0  0  0  0  0  0  0  0  0  0  0
    8.6544    4.8192    0.0000 H   0  0  0  0  0  0  0  0  0  0  0  0
    1.6900   -1.5301    0.0000 H   0  0  0  0  0  0  0  0  0  0  0  0
    1.4631   -2.3770    0.0000 H   0  0  0  0  0  0  0  0  0  0  0  0
    2.3100   -2.6040    0.0000 H   0  0  0  0  0  0  0  0  0  0  0  0
  1 14  1  0  0  0  0
  1 16  1  0  0  0  0
  2 15  1  0  0  0  0
  2 23  1  0  0  0  0
  3 11  2  0  0  0  0
  4 15  2  0  0  0  0
  5 17  1  0  0  0  0
  5 24  1  0  0  0  0
  6  8  1  0  0  0  0
  6 10  1  0  0  0  0
  6 25  1  0  0  0  0
  7  8  2  0  0  0  0
  7  9  1  0  0  0  0
  7 12  1  0  0  0  0
  8 11  1  0  0  0  0
  9 10  2  0  0  0  0
  9 15  1  0  0  0  0
 10 13  1  0  0  0  0
 11 14  1  0  0  0  0
 12 26  1  0  0  0  0
 12 27  1  0  0  0  0
 12 28  1  0  0  0  0
 13 29  1  0  0  0  0
 13 30  1  0  0  0  0
 13 31  1  0  0  0  0
 14 32  1  0  0  0  0
 14 33  1  0  0  0  0
 16 17  2  0  0  0  0
 16 19  1  0  0  0  0
 17 20  1  0  0  0  0
 18 20  2  0  0  0  0
 18 21  1  0  0  0  0
 18 22  1  0  0  0  0
 19 21  2  0  0  0  0
 19 34  1  0  0  0  0
 20 35  1  0  0  0  0
 21 36  1  0  0  0  0
 22 37  1  0  0  0  0
 22 38  1  0  0  0  0
 22 39  1  0  0  0  0
 23 40  1  0  0  0  0
 23 41  1  0  0  0  0
 23 42  1  0  0  0  0
 24 43  1  0  0  0  0
 24 44  1  0  0  0  0
 24 45  1  0  0  0  0
M  END
> <PUBCHEM_COMPOUND_CID>
17395525

> <PUBCHEM_COMPOUND_CANONICALIZED>
1

> <PUBCHEM_CACTVS_COMPLEXITY>
455

> <PUBCHEM_CACTVS_HBOND_ACCEPTOR>
5

> <PUBCHEM_CACTVS_HBOND_DONOR>
1

> <PUBCHEM_CACTVS_ROTATABLE_BOND>
7

> <PUBCHEM_CACTVS_SUBSKEYS>
AAADceB6OAAAAAAAAAAAAAAAAAAAAWAAAAAwAAAAAAAAAAABwAAAHgAQAAAADAyhngIyjpLJlACoA6TyTAKCiCAnICAImSH2zNgNJnrEtb+GOarm0BHK6Ue8zzA+oAABAAAAQABAAAIAAACAAAAAAAAAAA==

> <PUBCHEM_IUPAC_OPENEYE_NAME>
methyl 5-[2-(2-methoxy-4-methyl-phenoxy)acetyl]-2,4-dimethyl-1H-pyrrole-3-carboxylate

> <PUBCHEM_IUPAC_CAS_NAME>
5-[2-(2-methoxy-4-methylphenoxy)-1-oxoethyl]-2,4-dimethyl-1H-pyrrole-3-carboxylic acid methyl ester

> <PUBCHEM_IUPAC_NAME>
methyl 5-[2-(2-methoxy-4-methylphenoxy)acetyl]-2,4-dimethyl-1H-pyrrole-3-carboxylate

> <PUBCHEM_IUPAC_SYSTEMATIC_NAME>
methyl 5-[2-(2-methoxy-4-methyl-phenoxy)ethanoyl]-2,4-dimethyl-1H-pyrrole-3-carboxylate

> <PUBCHEM_IUPAC_TRADITIONAL_NAME>
5-[2-(2-methoxy-4-methyl-phenoxy)acetyl]-2,4-dimethyl-1H-pyrrole-3-carboxylic acid methyl ester

> <PUBCHEM_IUPAC_INCHI>
InChI=1S/C18H21NO5/c1-10-6-7-14(15(8-10)22-4)24-9-13(20)17-11(2)16(12(3)19-17)18(21)23-5/h6-8,19H,9H2,1-5H3

> <PUBCHEM_IUPAC_INCHIKEY>
QQQINXPSHPUTGR-UHFFFAOYSA-N

> <PUBCHEM_XLOGP3_AA>
3.4

> <PUBCHEM_EXACT_MASS>
331.141973

> <PUBCHEM_MOLECULAR_FORMULA>
C18H21NO5

> <PUBCHEM_MOLECULAR_WEIGHT>
331.36304

> <PUBCHEM_OPENEYE_CAN_SMILES>
CC1=CC(=C(C=C1)OCC(=O)C2=C(C(=C(N2)C)C(=O)OC)C)OC

> <PUBCHEM_OPENEYE_ISO_SMILES>
CC1=CC(=C(C=C1)OCC(=O)C2=C(C(=C(N2)C)C(=O)OC)C)OC

> <PUBCHEM_CACTVS_TPSA>
77.6

> <PUBCHEM_MONOISOTOPIC_WEIGHT>
331.141973

> <PUBCHEM_TOTAL_CHARGE>
0

> <PUBCHEM_HEAVY_ATOM_COUNT>
24

> <PUBCHEM_ATOM_DEF_STEREO_COUNT>
0

> <PUBCHEM_ATOM_UDEF_STEREO_COUNT>
0

> <PUBCHEM_BOND_DEF_STEREO_COUNT>
0

> <PUBCHEM_BOND_UDEF_STEREO_COUNT>
0

> <PUBCHEM_ISOTOPIC_ATOM_COUNT>
0

> <PUBCHEM_COMPONENT_COUNT>
1

> <PUBCHEM_CACTVS_TAUTO_COUNT>
33

> <PUBCHEM_COORDINATE_TYPE>
1
5
255

> <PUBCHEM_BONDANNOTATIONS>
16  17  8
16  19  8
17  20  8
18  20  8
18  21  8
19  21  8
6  10  8
6  8  8
7  8  8
7  9  8
9  10  8

$$$$

