   Color/Form
        COLORLESS, CRYSTALLINE SOLID
   from [1]HSDB

   Odor
        AROMATIC
   from [2]HSDB

   Boiling Point
        70-80 deg C at 2-5X10-5 mm Hg
   from [3]HSDB

   Melting Point
        17 TO 18 DEG C
   from [4]HSDB

   Density/Specific Gravity
        1.226 @ 20 DEG C/4 DEG C
   from [5]HSDB

   Octanol/Water Partition Coefficient
        Kow = 4900
   from [6]HSDB

   Solubilities

     * 11 MG/L WATER @ 24 DEG C
     * Miscible in all proportions with methanol, ethanol, benzene,
       xylene, acetone, cyclohexanone, methylcellosolve, carbon
       tetrachloride and carbon disulfide, ethyl ether, dioxane, and
       cyclohexane
     * Soluble in aromatic hydrocarbons, ketones, alcohols, chloroform,
       and carbon tetrachloride. Barely soluble in ... petroleum ether.

   from [7]HSDB

   Spectral Properties
        INDEX OF REFRACTION: 1.5550 @ 20 DEG C/D
   from [8]HSDB

   Vapor Pressure
        2.6X10-6 mm Hg at 25 deg C
   from [9]HSDB

   Other Chemical/Physical Properties

     * REDDISH-YELLOW OIL; SOLUBILITY: IN WATER @ 20 DEG C= 200 MG/L
       (TECHNICAL GRADE); IN HEXANE @ 20 DEG C= 120 G/L; GREATER THAN 200
       G/L IN 1,2-DIMETHOXYETHANE, 20 DEG C (PURE); IN PETROLEUM SPIRIT @
       20 DEG C= 100-170 G/L /TECHNICAL/
     * Decomposes when heated to 120 deg C.
     * 5X10-5 mbar @ 40 deg C

   from [10]HSDB

   Computed Properties
   Molecular Weight                  320.364742 [g/mol]
   Molecular Formula                 C[12]H[17]O[4]PS[2]
   XLogP3                            3.7
   H-Bond Donor                      0
   H-Bond Acceptor                   6
   Rotatable Bond Count              8
   Exact Mass                        320.030588
   MonoIsotopic Mass                 320.030588
   Topological Polar Surface Area    102
   Heavy Atom Count                  19
   Formal Charge                     0
   Complexity                        324
   Isotope Atom Count                0
   Defined Atom Stereocenter Count   0
   Undefined Atom Stereocenter Count 1
   Defined Bond Stereocenter Count   0
   Undefined Bond Stereocenter Count 0
   Covalently-Bonded Unit Count      1
   Feature 3D Acceptor Count         1
   Feature 3D Ring Count             1
   Effective Rotor Count             8
   Conformer Sampling RMSD           0.8
   CID Conformer Count               [11]130

References

   1. http://toxnet.nlm.nih.gov/cgi-bin/sis/search/r?dbs+hsdb:@term+@rn+@rel+2597-03-7
   2. http://toxnet.nlm.nih.gov/cgi-bin/sis/search/r?dbs+hsdb:@term+@rn+@rel+2597-03-7
   3. http://toxnet.nlm.nih.gov/cgi-bin/sis/search/r?dbs+hsdb:@term+@rn+@rel+2597-03-7
   4. http://toxnet.nlm.nih.gov/cgi-bin/sis/search/r?dbs+hsdb:@term+@rn+@rel+2597-03-7
   5. http://toxnet.nlm.nih.gov/cgi-bin/sis/search/r?dbs+hsdb:@term+@rn+@rel+2597-03-7
   6. http://toxnet.nlm.nih.gov/cgi-bin/sis/search/r?dbs+hsdb:@term+@rn+@rel+2597-03-7
   7. http://toxnet.nlm.nih.gov/cgi-bin/sis/search/r?dbs+hsdb:@term+@rn+@rel+2597-03-7
   8. http://toxnet.nlm.nih.gov/cgi-bin/sis/search/r?dbs+hsdb:@term+@rn+@rel+2597-03-7
   9. http://toxnet.nlm.nih.gov/cgi-bin/sis/search/r?dbs+hsdb:@term+@rn+@rel+2597-03-7
  10. http://toxnet.nlm.nih.gov/cgi-bin/sis/search/r?dbs+hsdb:@term+@rn+@rel+2597-03-7
  11. http://pubchem.ncbi.nlm.nih.gov/vw3d/vw3d.cgi?cid=17435
