5283202
  -OEChem-07051213062D

 55 55  0     1  0  0  0  0  0999 V2000
    6.5010    3.3660    0.0000 O   0  0  0  0  0  0  0  0  0  0  0  0
   11.3312    2.0000    0.0000 O   0  0  0  0  0  0  0  0  0  0  0  0
   10.4651    3.5000    0.0000 O   0  0  0  0  0  0  0  0  0  0  0  0
    7.0010    2.5000    0.0000 C   0  0  3  0  0  0  0  0  0  0  0  0
    6.0010    2.5000    0.0000 C   0  0  3  0  0  0  0  0  0  0  0  0
    7.8671    2.0000    0.0000 C   0  0  0  0  0  0  0  0  0  0  0  0
    5.1350    2.0000    0.0000 C   0  0  0  0  0  0  0  0  0  0  0  0
    8.7331    2.5000    0.0000 C   0  0  0  0  0  0  0  0  0  0  0  0
    4.2690    2.5000    0.0000 C   0  0  0  0  0  0  0  0  0  0  0  0
    9.5991    2.0000    0.0000 C   0  0  0  0  0  0  0  0  0  0  0  0
    3.4030    2.0000    0.0000 C   0  0  0  0  0  0  0  0  0  0  0  0
   10.4651    2.5000    0.0000 C   0  0  0  0  0  0  0  0  0  0  0  0
    3.4030    1.0000    0.0000 C   0  0  0  0  0  0  0  0  0  0  0  0
    2.5369    0.5000    0.0000 C   0  0  0  0  0  0  0  0  0  0  0  0
    6.0010   -2.5000    0.0000 C   0  0  0  0  0  0  0  0  0  0  0  0
    6.8671   -2.0000    0.0000 C   0  0  0  0  0  0  0  0  0  0  0  0
    5.1350   -2.0000    0.0000 C   0  0  0  0  0  0  0  0  0  0  0  0
    7.7331   -2.5000    0.0000 C   0  0  0  0  0  0  0  0  0  0  0  0
    2.5369   -0.5000    0.0000 C   0  0  0  0  0  0  0  0  0  0  0  0
    3.4030   -1.0000    0.0000 C   0  0  0  0  0  0  0  0  0  0  0  0
    4.2690   -2.5000    0.0000 C   0  0  0  0  0  0  0  0  0  0  0  0
    3.4030   -2.0000    0.0000 C   0  0  0  0  0  0  0  0  0  0  0  0
    7.7331   -3.5000    0.0000 C   0  0  0  0  0  0  0  0  0  0  0  0
    7.6021    3.1010    0.0000 H   0  0  0  0  0  0  0  0  0  0  0  0
    5.4000    3.1010    0.0000 H   0  0  0  0  0  0  0  0  0  0  0  0
    7.4685    1.5250    0.0000 H   0  0  0  0  0  0  0  0  0  0  0  0
    8.2656    1.5250    0.0000 H   0  0  0  0  0  0  0  0  0  0  0  0
    4.7365    1.5250    0.0000 H   0  0  0  0  0  0  0  0  0  0  0  0
    5.5335    1.5250    0.0000 H   0  0  0  0  0  0  0  0  0  0  0  0
    9.1316    2.9750    0.0000 H   0  0  0  0  0  0  0  0  0  0  0  0
    8.3346    2.9750    0.0000 H   0  0  0  0  0  0  0  0  0  0  0  0
    4.2690    3.1200    0.0000 H   0  0  0  0  0  0  0  0  0  0  0  0
    9.2006    1.5250    0.0000 H   0  0  0  0  0  0  0  0  0  0  0  0
    9.9976    1.5250    0.0000 H   0  0  0  0  0  0  0  0  0  0  0  0
    2.8660    2.3100    0.0000 H   0  0  0  0  0  0  0  0  0  0  0  0
    3.6150    0.4174    0.0000 H   0  0  0  0  0  0  0  0  0  0  0  0
    4.0135    1.1077    0.0000 H   0  0  0  0  0  0  0  0  0  0  0  0
    2.0000    0.8100    0.0000 H   0  0  0  0  0  0  0  0  0  0  0  0
    5.6025   -2.9750    0.0000 H   0  0  0  0  0  0  0  0  0  0  0  0
    6.3996   -2.9750    0.0000 H   0  0  0  0  0  0  0  0  0  0  0  0
    7.2656   -1.5250    0.0000 H   0  0  0  0  0  0  0  0  0  0  0  0
    6.4685   -1.5250    0.0000 H   0  0  0  0  0  0  0  0  0  0  0  0
    5.5335   -1.5250    0.0000 H   0  0  0  0  0  0  0  0  0  0  0  0
    4.7365   -1.5250    0.0000 H   0  0  0  0  0  0  0  0  0  0  0  0
    8.3437   -2.6077    0.0000 H   0  0  0  0  0  0  0  0  0  0  0  0
    7.9451   -1.9174    0.0000 H   0  0  0  0  0  0  0  0  0  0  0  0
   11.8681    2.3100    0.0000 H   0  0  0  0  0  0  0  0  0  0  0  0
    2.0000   -0.8100    0.0000 H   0  0  0  0  0  0  0  0  0  0  0  0
    4.0135   -1.1077    0.0000 H   0  0  0  0  0  0  0  0  0  0  0  0
    3.6150   -0.4174    0.0000 H   0  0  0  0  0  0  0  0  0  0  0  0
    4.2690   -3.1200    0.0000 H   0  0  0  0  0  0  0  0  0  0  0  0
    7.1131   -3.5000    0.0000 H   0  0  0  0  0  0  0  0  0  0  0  0
    7.7331   -4.1200    0.0000 H   0  0  0  0  0  0  0  0  0  0  0  0
    8.3531   -3.5000    0.0000 H   0  0  0  0  0  0  0  0  0  0  0  0
    2.8660   -2.3100    0.0000 H   0  0  0  0  0  0  0  0  0  0  0  0
  1  4  1  0  0  0  0
  1  5  1  0  0  0  0
  2 12  1  0  0  0  0
  2 47  1  0  0  0  0
  3 12  2  0  0  0  0
  4  5  1  0  0  0  0
  4  6  1  0  0  0  0
  4 24  1  0  0  0  0
  5  7  1  0  0  0  0
  5 25  1  0  0  0  0
  6  8  1  0  0  0  0
  6 26  1  0  0  0  0
  6 27  1  0  0  0  0
  7  9  1  0  0  0  0
  7 28  1  0  0  0  0
  7 29  1  0  0  0  0
  8 10  1  0  0  0  0
  8 30  1  0  0  0  0
  8 31  1  0  0  0  0
  9 11  2  0  0  0  0
  9 32  1  0  0  0  0
 10 12  1  0  0  0  0
 10 33  1  0  0  0  0
 10 34  1  0  0  0  0
 11 13  1  0  0  0  0
 11 35  1  0  0  0  0
 13 14  1  0  0  0  0
 13 36  1  0  0  0  0
 13 37  1  0  0  0  0
 14 19  2  0  0  0  0
 14 38  1  0  0  0  0
 15 16  1  0  0  0  0
 15 17  1  0  0  0  0
 15 39  1  0  0  0  0
 15 40  1  0  0  0  0
 16 18  1  0  0  0  0
 16 41  1  0  0  0  0
 16 42  1  0  0  0  0
 17 21  1  0  0  0  0
 17 43  1  0  0  0  0
 17 44  1  0  0  0  0
 18 23  1  0  0  0  0
 18 45  1  0  0  0  0
 18 46  1  0  0  0  0
 19 20  1  0  0  0  0
 19 48  1  0  0  0  0
 20 22  1  0  0  0  0
 20 49  1  0  0  0  0
 20 50  1  0  0  0  0
 21 22  2  0  0  0  0
 21 51  1  0  0  0  0
 22 55  1  0  0  0  0
 23 52  1  0  0  0  0
 23 53  1  0  0  0  0
 23 54  1  0  0  0  0
M  END
> <PUBCHEM_COMPOUND_CID>
5283202

> <PUBCHEM_COMPOUND_CANONICALIZED>
1

> <PUBCHEM_CACTVS_COMPLEXITY>
396

> <PUBCHEM_CACTVS_HBOND_ACCEPTOR>
3

> <PUBCHEM_CACTVS_HBOND_DONOR>
1

> <PUBCHEM_CACTVS_ROTATABLE_BOND>
14

> <PUBCHEM_CACTVS_SUBSKEYS>
AAADcfB4MAAAAAAAAAAAAAAAEgAAAAAAAAAAAAAAAAAAAAAAAAAAGgAACAAACBSggAICCAAABgCIACDSCAAAAAAgAAAICAEAAAgAABIAAQACQAAEwAAIAAOI7KzAAAAAAAAAAAAAAAAAAAAAAAAAAAAAAA==

> <PUBCHEM_IUPAC_OPENEYE_NAME>
4-[3-[(2Z,5Z,8Z)-tetradeca-2,5,8-trienyl]oxiran-2-yl]butanoic acid

> <PUBCHEM_IUPAC_CAS_NAME>
4-[3-[(2Z,5Z,8Z)-tetradeca-2,5,8-trienyl]-2-oxiranyl]butanoic acid

> <PUBCHEM_IUPAC_NAME>
4-[3-[(2Z,5Z,8Z)-tetradeca-2,5,8-trienyl]oxiran-2-yl]butanoic acid

> <PUBCHEM_IUPAC_SYSTEMATIC_NAME>
4-[3-[(2Z,5Z,8Z)-tetradeca-2,5,8-trienyl]oxiran-2-yl]butanoic acid

> <PUBCHEM_IUPAC_TRADITIONAL_NAME>
4-[3-[(2Z,5Z,8Z)-tetradeca-2,5,8-trienyl]oxiran-2-yl]butyric acid

> <PUBCHEM_IUPAC_INCHI>
InChI=1S/C20H32O3/c1-2-3-4-5-6-7-8-9-10-11-12-13-15-18-19(23-18)16-14-17-20(21)22/h6-7,9-10,12-13,18-19H,2-5,8,11,14-17H2,1H3,(H,21,22)/b7-6-,10-9-,13-12-

> <PUBCHEM_IUPAC_INCHIKEY>
VBQNSZQZRAGRIX-QNEBEIHSSA-N

> <PUBCHEM_XLOGP3_AA>
5.5

> <PUBCHEM_EXACT_MASS>
320.235145

> <PUBCHEM_MOLECULAR_FORMULA>
C20H32O3

> <PUBCHEM_MOLECULAR_WEIGHT>
320.46628

> <PUBCHEM_OPENEYE_CAN_SMILES>
CCCCCC=CCC=CCC=CCC1C(O1)CCCC(=O)O

> <PUBCHEM_OPENEYE_ISO_SMILES>
CCCCC/C=C\C/C=C\C/C=C\CC1C(O1)CCCC(=O)O

> <PUBCHEM_CACTVS_TPSA>
49.8

> <PUBCHEM_MONOISOTOPIC_WEIGHT>
320.235145

> <PUBCHEM_TOTAL_CHARGE>
0

> <PUBCHEM_HEAVY_ATOM_COUNT>
23

> <PUBCHEM_ATOM_DEF_STEREO_COUNT>
0

> <PUBCHEM_ATOM_UDEF_STEREO_COUNT>
2

> <PUBCHEM_BOND_DEF_STEREO_COUNT>
3

> <PUBCHEM_BOND_UDEF_STEREO_COUNT>
0

> <PUBCHEM_ISOTOPIC_ATOM_COUNT>
0

> <PUBCHEM_COMPONENT_COUNT>
1

> <PUBCHEM_CACTVS_TAUTO_COUNT>
1

> <PUBCHEM_COORDINATE_TYPE>
1
5
255

> <PUBCHEM_BONDANNOTATIONS>
4  24  3
5  25  3

$$$$

