6533629
  -OEChem-07051212522D

 38 40  0     1  0  0  0  0  0999 V2000
    2.8660   -0.6340    0.0000 S   0  0  0  0  0  0  0  0  0  0  0  0
    9.7002   -1.1296    0.0000 S   0  0  0  0  0  0  0  0  0  0  0  0
    5.4460    1.5787    0.0000 O   0  0  0  0  0  0  0  0  0  0  0  0
    2.0000    2.8660    0.0000 O   0  0  0  0  0  0  0  0  0  0  0  0
    6.6732    0.3755    0.0000 O   0  0  0  0  0  0  0  0  0  0  0  0
    3.7320    2.8660    0.0000 O   0  0  0  0  0  0  0  0  0  0  0  0
    5.8908   -2.5206    0.0000 O   0  0  0  0  0  0  0  0  0  0  0  0
    3.7320    0.8660    0.0000 N   0  0  0  0  0  0  0  0  0  0  0  0
    5.4460   -0.8467    0.0000 N   0  0  0  0  0  0  0  0  0  0  0  0
    6.8573   -2.2638    0.0000 N   0  0  0  0  0  0  0  0  0  0  0  0
    8.4448   -0.1087    0.0000 N   0  0  0  0  0  0  0  0  0  0  0  0
   10.0743    0.6127    0.0000 N   0  0  0  0  0  0  0  0  0  0  0  0
    3.7320   -0.1340    0.0000 C   0  0  1  0  0  0  0  0  0  0  0  0
    4.7403   -0.1381    0.0000 C   0  0  1  0  0  0  0  0  0  0  0  0
    4.7403    0.8702    0.0000 C   0  0  0  0  0  0  0  0  0  0  0  0
    2.8660    1.3660    0.0000 C   0  0  0  0  0  0  0  0  0  0  0  0
    2.0000   -0.1340    0.0000 C   0  0  0  0  0  0  0  0  0  0  0  0
    2.0000    0.8660    0.0000 C   0  0  0  0  0  0  0  0  0  0  0  0
    6.4124   -0.5898    0.0000 C   0  0  0  0  0  0  0  0  0  0  0  0
    2.8660    2.3660    0.0000 C   0  0  0  0  0  0  0  0  0  0  0  0
    7.1181   -1.2984    0.0000 C   0  0  0  0  0  0  0  0  0  0  0  0
    8.0846   -1.0416    0.0000 C   0  0  0  0  0  0  0  0  0  0  0  0
    8.8604   -1.6725    0.0000 C   0  0  0  0  0  0  0  0  0  0  0  0
    9.4434   -0.1631    0.0000 C   0  0  0  0  0  0  0  0  0  0  0  0
    5.6300   -3.4860    0.0000 C   0  0  0  0  0  0  0  0  0  0  0  0
    3.9504   -0.9555    0.0000 H   0  0  0  0  0  0  0  0  0  0  0  0
    4.5013   -0.7102    0.0000 H   0  0  0  0  0  0  0  0  0  0  0  0
    5.2843   -1.4452    0.0000 H   0  0  0  0  0  0  0  0  0  0  0  0
    1.3894   -0.0263    0.0000 H   0  0  0  0  0  0  0  0  0  0  0  0
    1.7880   -0.7166    0.0000 H   0  0  0  0  0  0  0  0  0  0  0  0
    1.4631    1.1760    0.0000 H   0  0  0  0  0  0  0  0  0  0  0  0
    2.0000    3.4860    0.0000 H   0  0  0  0  0  0  0  0  0  0  0  0
    8.8267   -2.2916    0.0000 H   0  0  0  0  0  0  0  0  0  0  0  0
   10.6864    0.5145    0.0000 H   0  0  0  0  0  0  0  0  0  0  0  0
    9.8533    1.1920    0.0000 H   0  0  0  0  0  0  0  0  0  0  0  0
    5.0315   -3.3243    0.0000 H   0  0  0  0  0  0  0  0  0  0  0  0
    5.4683   -4.0846    0.0000 H   0  0  0  0  0  0  0  0  0  0  0  0
    6.2286   -3.6477    0.0000 H   0  0  0  0  0  0  0  0  0  0  0  0
  1 13  1  0  0  0  0
  1 17  1  0  0  0  0
  2 23  1  0  0  0  0
  2 24  1  0  0  0  0
  3 15  2  0  0  0  0
  4 20  1  0  0  0  0
  4 32  1  0  0  0  0
  5 19  2  0  0  0  0
  6 20  2  0  0  0  0
  7 10  1  0  0  0  0
  7 25  1  0  0  0  0
  8 13  1  0  0  0  0
  8 15  1  0  0  0  0
  8 16  1  0  0  0  0
 14  9  1  1  0  0  0
  9 19  1  0  0  0  0
  9 28  1  0  0  0  0
 10 21  2  0  0  0  0
 11 22  1  0  0  0  0
 11 24  2  0  0  0  0
 12 24  1  0  0  0  0
 12 34  1  0  0  0  0
 12 35  1  0  0  0  0
 13 14  1  0  0  0  0
 13 26  1  6  0  0  0
 14 15  1  0  0  0  0
 14 27  1  0  0  0  0
 16 18  2  0  0  0  0
 16 20  1  0  0  0  0
 17 18  1  0  0  0  0
 17 29  1  0  0  0  0
 17 30  1  0  0  0  0
 18 31  1  0  0  0  0
 19 21  1  0  0  0  0
 21 22  1  0  0  0  0
 22 23  2  0  0  0  0
 23 33  1  0  0  0  0
 25 36  1  0  0  0  0
 25 37  1  0  0  0  0
 25 38  1  0  0  0  0
M  END
> <PUBCHEM_COMPOUND_CID>
6533629

> <PUBCHEM_COMPOUND_CANONICALIZED>
1

> <PUBCHEM_CACTVS_COMPLEXITY>
669

> <PUBCHEM_CACTVS_HBOND_ACCEPTOR>
10

> <PUBCHEM_CACTVS_HBOND_DONOR>
3

> <PUBCHEM_CACTVS_ROTATABLE_BOND>
5

> <PUBCHEM_CACTVS_SUBSKEYS>
AAADccBzuABgAAAAAAAAAAAAAABYAWAAAAAgAAAAAAAQAAABgAAAHgQUCAAACCjF1gajmRPYEgisASXyfAAA8KlhCjkACJW4IFiCZJggxCEUEAAAFgKwEaAAAAAAAAAAAAAAAAAAAAAAAAAAAAAAAAAAAA==

> <PUBCHEM_IUPAC_OPENEYE_NAME>
(6R,7R)-7-[[(2Z)-2-(2-aminothiazol-4-yl)-2-methoxyimino-acetyl]amino]-8-oxo-5-thia-1-azabicyclo[4.2.0]oct-2-ene-2-carboxylic acid

> <PUBCHEM_IUPAC_CAS_NAME>
(6R,7R)-7-[[(2Z)-2-(2-amino-4-thiazolyl)-2-methoxyimino-1-oxoethyl]amino]-8-oxo-5-thia-1-azabicyclo[4.2.0]oct-2-ene-2-carboxylic acid

> <PUBCHEM_IUPAC_NAME>
(6R,7R)-7-[[(2Z)-2-(2-amino-1,3-thiazol-4-yl)-2-methoxyiminoacetyl]amino]-8-oxo-5-thia-1-azabicyclo[4.2.0]oct-2-ene-2-carboxylic acid

> <PUBCHEM_IUPAC_SYSTEMATIC_NAME>
(6R,7R)-7-[[(2Z)-2-(2-azanyl-1,3-thiazol-4-yl)-2-methoxyimino-ethanoyl]amino]-8-oxidanylidene-5-thia-1-azabicyclo[4.2.0]oct-2-ene-2-carboxylic acid

> <PUBCHEM_IUPAC_TRADITIONAL_NAME>
(6R,7R)-7-[[(2Z)-2-(2-aminothiazol-4-yl)-2-methyloximino-acetyl]amino]-8-keto-5-thia-1-azabicyclo[4.2.0]oct-2-ene-2-carboxylic acid

> <PUBCHEM_IUPAC_INCHI>
InChI=1S/C13H13N5O5S2/c1-23-17-7(5-4-25-13(14)15-5)9(19)16-8-10(20)18-6(12(21)22)2-3-24-11(8)18/h2,4,8,11H,3H2,1H3,(H2,14,15)(H,16,19)(H,21,22)/b17-7-/t8-,11-/m1/s1

> <PUBCHEM_IUPAC_INCHIKEY>
NNULBSISHYWZJU-LLKWHZGFSA-N

> <PUBCHEM_XLOGP3>
0

> <PUBCHEM_EXACT_MASS>
383.035811

> <PUBCHEM_MOLECULAR_FORMULA>
C13H13N5O5S2

> <PUBCHEM_MOLECULAR_WEIGHT>
383.40282

> <PUBCHEM_OPENEYE_CAN_SMILES>
CON=C(C1=CSC(=N1)N)C(=O)NC2C3N(C2=O)C(=CCS3)C(=O)O

> <PUBCHEM_OPENEYE_ISO_SMILES>
CO/N=C(/C1=CSC(=N1)N)\C(=O)N[C@H]2[C@@H]3N(C2=O)C(=CCS3)C(=O)O

> <PUBCHEM_CACTVS_TPSA>
201

> <PUBCHEM_MONOISOTOPIC_WEIGHT>
383.035811

> <PUBCHEM_TOTAL_CHARGE>
0

> <PUBCHEM_HEAVY_ATOM_COUNT>
25

> <PUBCHEM_ATOM_DEF_STEREO_COUNT>
2

> <PUBCHEM_ATOM_UDEF_STEREO_COUNT>
0

> <PUBCHEM_BOND_DEF_STEREO_COUNT>
1

> <PUBCHEM_BOND_UDEF_STEREO_COUNT>
0

> <PUBCHEM_ISOTOPIC_ATOM_COUNT>
0

> <PUBCHEM_COMPONENT_COUNT>
1

> <PUBCHEM_CACTVS_TAUTO_COUNT>
14

> <PUBCHEM_COORDINATE_TYPE>
1
5
255

> <PUBCHEM_BONDANNOTATIONS>
11  22  8
11  24  8
13  26  6
2  23  8
2  24  8
22  23  8
14  9  5

$$$$

