5281366
  -OEChem-07051212562D

 82 89  0     1  0  0  0  0  0999 V2000
    6.7281    4.0802    0.0000 O   0  0  0  0  0  0  0  0  0  0  0  0
    6.3861    2.2913    0.0000 O   0  0  0  0  0  0  0  0  0  0  0  0
    5.5000    1.8069    0.0000 O   0  0  0  0  0  0  0  0  0  0  0  0
    5.6060    0.2303    0.0000 O   0  0  0  0  0  0  0  0  0  0  0  0
    7.5337   -0.8875    0.0000 O   0  0  0  0  0  0  0  0  0  0  0  0
    9.5633    4.1239    0.0000 O   0  0  0  0  0  0  0  0  0  0  0  0
    9.1512    4.8318    0.0000 O   0  0  0  0  0  0  0  0  0  0  0  0
    7.9755    5.6435    0.0000 O   0  0  0  0  0  0  0  0  0  0  0  0
   10.8455    4.0931    0.0000 O   0  0  0  0  0  0  0  0  0  0  0  0
    9.2604   -0.7514    0.0000 O   0  0  0  0  0  0  0  0  0  0  0  0
    7.3164    2.1741    0.0000 C   0  0  1  0  0  0  0  0  0  0  0  0
    8.2173    1.7402    0.0000 C   0  0  2  0  0  0  0  0  0  0  0  0
    7.0938    3.1490    0.0000 C   0  0  1  0  0  0  0  0  0  0  0  0
    7.7173    3.9308    0.0000 C   0  0  1  0  0  0  0  0  0  0  0  0
    6.4468    1.6006    0.0000 C   0  0  2  0  0  0  0  0  0  0  0  0
    9.1183    2.1741    0.0000 C   0  0  1  0  0  0  0  0  0  0  0  0
    8.3112    0.7028    0.0000 C   0  0  1  0  0  0  0  0  0  0  0  0
    6.5166    0.5614    0.0000 C   0  0  2  0  0  0  0  0  0  0  0  0
    9.3408    3.1490    0.0000 C   0  0  1  0  0  0  0  0  0  0  0  0
    8.7173    3.9308    0.0000 C   0  0  2  0  0  0  0  0  0  0  0  0
    7.4551    0.1094    0.0000 C   0  0  2  0  0  0  0  0  0  0  0  0
    4.9932    0.9810    0.0000 C   0  0  3  0  0  0  0  0  0  0  0  0
    8.3408    4.7127    0.0000 C   0  0  0  0  0  0  0  0  0  0  0  0
    9.9730    1.6664    0.0000 C   0  0  0  0  0  0  0  0  0  0  0  0
    9.2171    0.2794    0.0000 C   0  0  0  0  0  0  0  0  0  0  0  0
   10.3311    3.2355    0.0000 C   0  0  0  0  0  0  0  0  0  0  0  0
    6.5836   -0.4364    0.0000 C   0  0  0  0  0  0  0  0  0  0  0  0
   10.7210    2.3211    0.0000 C   0  0  0  0  0  0  0  0  0  0  0  0
    3.9955    0.9139    0.0000 C   0  0  0  0  0  0  0  0  0  0  0  0
    5.7531   -0.9933    0.0000 C   0  0  0  0  0  0  0  0  0  0  0  0
    6.6507   -1.4341    0.0000 C   0  0  0  0  0  0  0  0  0  0  0  0
   11.6960    2.0986    0.0000 C   0  0  0  0  0  0  0  0  0  0  0  0
    3.4386    1.7445    0.0000 C   0  0  0  0  0  0  0  0  0  0  0  0
    3.5547    0.0164    0.0000 C   0  0  0  0  0  0  0  0  0  0  0  0
    8.4363   -1.3179    0.0000 C   0  0  0  0  0  0  0  0  0  0  0  0
    2.4408    1.6775    0.0000 C   0  0  0  0  0  0  0  0  0  0  0  0
    2.5569   -0.0507    0.0000 C   0  0  0  0  0  0  0  0  0  0  0  0
    8.5149   -2.3148    0.0000 C   0  0  0  0  0  0  0  0  0  0  0  0
    2.0000    0.7799    0.0000 C   0  0  0  0  0  0  0  0  0  0  0  0
    9.4175   -2.7452    0.0000 C   0  0  0  0  0  0  0  0  0  0  0  0
    9.4961   -3.7421    0.0000 C   0  0  0  0  0  0  0  0  0  0  0  0
    8.6720   -4.3086    0.0000 C   0  0  0  0  0  0  0  0  0  0  0  0
   10.3987   -4.1725    0.0000 C   0  0  0  0  0  0  0  0  0  0  0  0
    8.7506   -5.3055    0.0000 C   0  0  0  0  0  0  0  0  0  0  0  0
   10.4773   -5.1694    0.0000 C   0  0  0  0  0  0  0  0  0  0  0  0
    9.6532   -5.7360    0.0000 C   0  0  0  0  0  0  0  0  0  0  0  0
    6.7915    2.8427    0.0000 H   0  0  0  0  0  0  0  0  0  0  0  0
    6.2816    2.8984    0.0000 H   0  0  0  0  0  0  0  0  0  0  0  0
    5.7904    2.1407    0.0000 H   0  0  0  0  0  0  0  0  0  0  0  0
    9.0813    1.3249    0.0000 H   0  0  0  0  0  0  0  0  0  0  0  0
    8.3635    0.0850    0.0000 H   0  0  0  0  0  0  0  0  0  0  0  0
    9.3334    4.0002    0.0000 H   0  0  0  0  0  0  0  0  0  0  0  0
    6.9435   -0.2408    0.0000 H   0  0  0  0  0  0  0  0  0  0  0  0
    8.7511    4.2478    0.0000 H   0  0  0  0  0  0  0  0  0  0  0  0
    8.8699    5.0360    0.0000 H   0  0  0  0  0  0  0  0  0  0  0  0
   10.0296    1.0490    0.0000 H   0  0  0  0  0  0  0  0  0  0  0  0
    8.9546   -0.2823    0.0000 H   0  0  0  0  0  0  0  0  0  0  0  0
    9.7788    0.0168    0.0000 H   0  0  0  0  0  0  0  0  0  0  0  0
    9.4796    0.8410    0.0000 H   0  0  0  0  0  0  0  0  0  0  0  0
   10.1558    4.3067    0.0000 H   0  0  0  0  0  0  0  0  0  0  0  0
    8.8020    5.3441    0.0000 H   0  0  0  0  0  0  0  0  0  0  0  0
    5.4078   -0.4784    0.0000 H   0  0  0  0  0  0  0  0  0  0  0  0
    5.2382   -1.3386    0.0000 H   0  0  0  0  0  0  0  0  0  0  0  0
    6.0984   -1.5083    0.0000 H   0  0  0  0  0  0  0  0  0  0  0  0
    7.3624    5.7360    0.0000 H   0  0  0  0  0  0  0  0  0  0  0  0
    6.1358   -1.7794    0.0000 H   0  0  0  0  0  0  0  0  0  0  0  0
    7.2072   -1.7074    0.0000 H   0  0  0  0  0  0  0  0  0  0  0  0
   11.5580    1.4942    0.0000 H   0  0  0  0  0  0  0  0  0  0  0  0
   12.3004    1.9606    0.0000 H   0  0  0  0  0  0  0  0  0  0  0  0
   11.8339    2.7031    0.0000 H   0  0  0  0  0  0  0  0  0  0  0  0
    3.7119    2.3010    0.0000 H   0  0  0  0  0  0  0  0  0  0  0  0
    3.9000   -0.4986    0.0000 H   0  0  0  0  0  0  0  0  0  0  0  0
    2.0955    2.1924    0.0000 H   0  0  0  0  0  0  0  0  0  0  0  0
    2.2836   -0.6072    0.0000 H   0  0  0  0  0  0  0  0  0  0  0  0
    8.0040   -2.6660    0.0000 H   0  0  0  0  0  0  0  0  0  0  0  0
    1.3814    0.7383    0.0000 H   0  0  0  0  0  0  0  0  0  0  0  0
    9.9284   -2.3940    0.0000 H   0  0  0  0  0  0  0  0  0  0  0  0
    8.1124   -4.0418    0.0000 H   0  0  0  0  0  0  0  0  0  0  0  0
   10.9096   -3.8213    0.0000 H   0  0  0  0  0  0  0  0  0  0  0  0
    8.2397   -5.6568    0.0000 H   0  0  0  0  0  0  0  0  0  0  0  0
   11.0369   -5.4363    0.0000 H   0  0  0  0  0  0  0  0  0  0  0  0
    9.7019   -6.3540    0.0000 H   0  0  0  0  0  0  0  0  0  0  0  0
  1 13  1  0  0  0  0
  1 14  1  0  0  0  0
 12  2  1  6  0  0  0
  2 22  1  0  0  0  0
  3 15  1  0  0  0  0
  3 22  1  0  0  0  0
  4 18  1  0  0  0  0
  4 22  1  0  0  0  0
 21  5  1  1  0  0  0
  5 35  1  0  0  0  0
 19  6  1  1  0  0  0
  6 60  1  0  0  0  0
 20  7  1  1  0  0  0
  7 61  1  0  0  0  0
  8 23  1  0  0  0  0
  8 65  1  0  0  0  0
  9 26  2  0  0  0  0
 10 35  2  0  0  0  0
 11 12  1  0  0  0  0
 11 13  1  0  0  0  0
 11 15  1  0  0  0  0
 11 47  1  1  0  0  0
 12 16  1  0  0  0  0
 12 17  1  0  0  0  0
 13 14  1  0  0  0  0
 13 48  1  1  0  0  0
 14 20  1  0  0  0  0
 14 23  1  1  0  0  0
 15 18  1  0  0  0  0
 15 49  1  1  0  0  0
 16 19  1  0  0  0  0
 16 24  1  0  0  0  0
 16 50  1  6  0  0  0
 17 21  1  0  0  0  0
 17 25  1  6  0  0  0
 17 51  1  0  0  0  0
 18 21  1  0  0  0  0
 18 27  1  1  0  0  0
 19 20  1  0  0  0  0
 19 26  1  0  0  0  0
 20 52  1  0  0  0  0
 21 53  1  0  0  0  0
 22 29  1  0  0  0  0
 23 54  1  0  0  0  0
 23 55  1  0  0  0  0
 24 28  2  0  0  0  0
 24 56  1  0  0  0  0
 25 57  1  0  0  0  0
 25 58  1  0  0  0  0
 25 59  1  0  0  0  0
 26 28  1  0  0  0  0
 27 30  1  0  0  0  0
 27 31  2  0  0  0  0
 28 32  1  0  0  0  0
 29 33  2  0  0  0  0
 29 34  1  0  0  0  0
 30 62  1  0  0  0  0
 30 63  1  0  0  0  0
 30 64  1  0  0  0  0
 31 66  1  0  0  0  0
 31 67  1  0  0  0  0
 32 68  1  0  0  0  0
 32 69  1  0  0  0  0
 32 70  1  0  0  0  0
 33 36  1  0  0  0  0
 33 71  1  0  0  0  0
 34 37  2  0  0  0  0
 34 72  1  0  0  0  0
 35 38  1  0  0  0  0
 36 39  2  0  0  0  0
 36 73  1  0  0  0  0
 37 39  1  0  0  0  0
 37 74  1  0  0  0  0
 38 40  2  0  0  0  0
 38 75  1  0  0  0  0
 39 76  1  0  0  0  0
 40 41  1  0  0  0  0
 40 77  1  0  0  0  0
 41 42  2  0  0  0  0
 41 43  1  0  0  0  0
 42 44  1  0  0  0  0
 42 78  1  0  0  0  0
 43 45  2  0  0  0  0
 43 79  1  0  0  0  0
 44 46  2  0  0  0  0
 44 80  1  0  0  0  0
 45 46  1  0  0  0  0
 45 81  1  0  0  0  0
 46 82  1  0  0  0  0
M  END
> <PUBCHEM_COMPOUND_CID>
5281366

> <PUBCHEM_COMPOUND_CANONICALIZED>
1

> <PUBCHEM_CACTVS_COMPLEXITY>
1390

> <PUBCHEM_CACTVS_HBOND_ACCEPTOR>
10

> <PUBCHEM_CACTVS_HBOND_DONOR>
3

> <PUBCHEM_CACTVS_ROTATABLE_BOND>
7

> <PUBCHEM_CACTVS_SUBSKEYS>
AAADcfB8PAAAAAAAAAAAAAAAEgAAASIAAAA0YMEABogSAACBQAAAGgAACAAADVSgmAIyCIAABgCIAqDSCAICAAAgAAAIiAFACMgZNjaAMRiicAAl4AEPqYfK7PzOgAAAAAAAAADCAAYQADCAAAAAAAAAAA==

> <PUBCHEM_IUPAC_INCHI>
InChI=1S/C36H36O10/c1-19(2)34-28(42-25(38)16-15-22-11-7-5-8-12-22)21(4)35-24-17-20(3)27(39)33(24,41)31(40)32(18-37)29(43-32)26(35)30(34)44-36(45-34,46-35)23-13-9-6-10-14-23/h5-17,21,24,26,28-31,37,40-41H,1,18H2,2-4H3/b16-15+/t21-,24-,26+,28-,29+,30-,31-,32+,33-,34+,35+,36?/m1/s1

> <PUBCHEM_IUPAC_INCHIKEY>
OTTFLYUONKAFGT-OYSGWTEZSA-N

> <PUBCHEM_XLOGP3_AA>
3.2

> <PUBCHEM_EXACT_MASS>
628.230847

> <PUBCHEM_MOLECULAR_FORMULA>
C36H36O10

> <PUBCHEM_MOLECULAR_WEIGHT>
628.66504

> <PUBCHEM_OPENEYE_CAN_SMILES>
CC1C(C2(C3C4C1(C5C=C(C(=O)C5(C(C6(C4O6)CO)O)O)C)OC(O3)(O2)C7=CC=CC=C7)C(=C)C)OC(=O)C=CC8=CC=CC=C8

> <PUBCHEM_OPENEYE_ISO_SMILES>
C[C@@H]1[C@H]([C@]2([C@H]3[C@H]4[C@]1([C@@H]5C=C(C(=O)[C@]5([C@@H]([C@@]6([C@H]4O6)CO)O)O)C)OC(O3)(O2)C7=CC=CC=C7)C(=C)C)OC(=O)/C=C/C8=CC=CC=C8

> <PUBCHEM_CACTVS_TPSA>
144

> <PUBCHEM_MONOISOTOPIC_WEIGHT>
628.230847

> <PUBCHEM_TOTAL_CHARGE>
0

> <PUBCHEM_HEAVY_ATOM_COUNT>
46

> <PUBCHEM_ATOM_DEF_STEREO_COUNT>
11

> <PUBCHEM_ATOM_UDEF_STEREO_COUNT>
1

> <PUBCHEM_BOND_DEF_STEREO_COUNT>
1

> <PUBCHEM_BOND_UDEF_STEREO_COUNT>
0

> <PUBCHEM_ISOTOPIC_ATOM_COUNT>
0

> <PUBCHEM_COMPONENT_COUNT>
1

> <PUBCHEM_CACTVS_TAUTO_COUNT>
3

> <PUBCHEM_COORDINATE_TYPE>
1
5
255

> <PUBCHEM_BONDANNOTATIONS>
11  47  5
13  48  5
14  23  5
15  49  5
16  50  6
17  25  6
18  27  5
12  2  6
22  29  3
29  33  8
29  34  8
33  36  8
34  37  8
36  39  8
37  39  8
41  42  8
41  43  8
42  44  8
43  45  8
44  46  8
45  46  8
21  5  5
19  6  5
20  7  5

$$$$

