47205655
  -OEChem-06241222592D

 37 38  0     0  0  0  0  0  0999 V2000
    2.8660   -3.3364    0.0000 S   0  0  0  0  0  0  0  0  0  0  0  0
    5.4071    3.2514    0.0000 S   0  0  0  0  0  0  0  0  0  0  0  0
    2.3660   -4.2024    0.0000 O   0  0  0  0  0  0  0  0  0  0  0  0
    3.3660   -4.2024    0.0000 O   0  0  0  0  0  0  0  0  0  0  0  0
    4.5981   -0.3364    0.0000 O   0  0  0  0  0  0  0  0  0  0  0  0
    2.8660   -1.3364    0.0000 N   0  0  0  0  0  0  0  0  0  0  0  0
    3.7320    1.1636    0.0000 N   0  0  0  0  0  0  0  0  0  0  0  0
    2.0000   -1.8364    0.0000 C   0  0  0  0  0  0  0  0  0  0  0  0
    3.7320   -1.8364    0.0000 C   0  0  0  0  0  0  0  0  0  0  0  0
    2.0000   -2.8364    0.0000 C   0  0  0  0  0  0  0  0  0  0  0  0
    3.7320   -2.8364    0.0000 C   0  0  0  0  0  0  0  0  0  0  0  0
    2.8660   -0.3364    0.0000 C   0  0  0  0  0  0  0  0  0  0  0  0
    3.7320    0.1636    0.0000 C   0  0  0  0  0  0  0  0  0  0  0  0
    4.5981    1.6636    0.0000 C   0  0  0  0  0  0  0  0  0  0  0  0
    4.5981    2.6636    0.0000 C   0  0  0  0  0  0  0  0  0  0  0  0
    3.7891    3.2514    0.0000 C   0  0  0  0  0  0  0  0  0  0  0  0
    4.0981    4.2024    0.0000 C   0  0  0  0  0  0  0  0  0  0  0  0
    2.8380    2.9424    0.0000 C   0  0  0  0  0  0  0  0  0  0  0  0
    5.0981    4.2024    0.0000 C   0  0  0  0  0  0  0  0  0  0  0  0
    4.3426   -1.9441    0.0000 H   0  0  0  0  0  0  0  0  0  0  0  0
    1.7880   -1.2538    0.0000 H   0  0  0  0  0  0  0  0  0  0  0  0
    1.3894   -1.9441    0.0000 H   0  0  0  0  0  0  0  0  0  0  0  0
    3.9441   -1.2538    0.0000 H   0  0  0  0  0  0  0  0  0  0  0  0
    3.9441   -3.4190    0.0000 H   0  0  0  0  0  0  0  0  0  0  0  0
    4.3426   -2.7287    0.0000 H   0  0  0  0  0  0  0  0  0  0  0  0
    1.3894   -2.7287    0.0000 H   0  0  0  0  0  0  0  0  0  0  0  0
    1.7880   -3.4190    0.0000 H   0  0  0  0  0  0  0  0  0  0  0  0
    2.6540    0.2462    0.0000 H   0  0  0  0  0  0  0  0  0  0  0  0
    2.2554   -0.4441    0.0000 H   0  0  0  0  0  0  0  0  0  0  0  0
    3.1951    1.4736    0.0000 H   0  0  0  0  0  0  0  0  0  0  0  0
    4.8101    1.0810    0.0000 H   0  0  0  0  0  0  0  0  0  0  0  0
    5.2087    1.7712    0.0000 H   0  0  0  0  0  0  0  0  0  0  0  0
    3.7336    4.7040    0.0000 H   0  0  0  0  0  0  0  0  0  0  0  0
    2.6464    3.5320    0.0000 H   0  0  0  0  0  0  0  0  0  0  0  0
    2.2484    2.7508    0.0000 H   0  0  0  0  0  0  0  0  0  0  0  0
    3.0296    2.3527    0.0000 H   0  0  0  0  0  0  0  0  0  0  0  0
    5.4625    4.7040    0.0000 H   0  0  0  0  0  0  0  0  0  0  0  0
  1  3  2  0  0  0  0
  1  4  2  0  0  0  0
  1 10  1  0  0  0  0
  1 11  1  0  0  0  0
  2 15  1  0  0  0  0
  2 19  1  0  0  0  0
  5 13  2  0  0  0  0
  6  8  1  0  0  0  0
  6  9  1  0  0  0  0
  6 12  1  0  0  0  0
  7 13  1  0  0  0  0
  7 14  1  0  0  0  0
  7 30  1  0  0  0  0
  8 10  1  0  0  0  0
  8 21  1  0  0  0  0
  8 22  1  0  0  0  0
  9 11  1  0  0  0  0
  9 20  1  0  0  0  0
  9 23  1  0  0  0  0
 10 26  1  0  0  0  0
 10 27  1  0  0  0  0
 11 24  1  0  0  0  0
 11 25  1  0  0  0  0
 12 13  1  0  0  0  0
 12 28  1  0  0  0  0
 12 29  1  0  0  0  0
 14 15  1  0  0  0  0
 14 31  1  0  0  0  0
 14 32  1  0  0  0  0
 15 16  2  0  0  0  0
 16 17  1  0  0  0  0
 16 18  1  0  0  0  0
 17 19  2  0  0  0  0
 17 33  1  0  0  0  0
 18 34  1  0  0  0  0
 18 35  1  0  0  0  0
 18 36  1  0  0  0  0
 19 37  1  0  0  0  0
M  END
> <PUBCHEM_COMPOUND_CID>
47205655

> <PUBCHEM_COMPOUND_CANONICALIZED>
1

> <PUBCHEM_CACTVS_COMPLEXITY>
405

> <PUBCHEM_CACTVS_HBOND_ACCEPTOR>
5

> <PUBCHEM_CACTVS_HBOND_DONOR>
1

> <PUBCHEM_CACTVS_ROTATABLE_BOND>
4

> <PUBCHEM_CACTVS_SUBSKEYS>
AAADceBzMABgAAAAAAAAAAAAAAAAASAAAAAsAAAAAAAAAAABgAAAHgQQAAAADADF2ASyAYPAAAqMAiFSEHDDAIAgCBBIiJiIBIgIYCKgkTGUAAhglgCoiAYQAAAKAAAAAAAAAAAAAAAAAAAAAAAAAAAAAA==

> <PUBCHEM_IUPAC_OPENEYE_NAME>
2-(1,1-dioxo-1,4-thiazinan-4-yl)-N-[(3-methyl-2-thienyl)methyl]acetamide

> <PUBCHEM_IUPAC_CAS_NAME>
2-(1,1-dioxo-1,4-thiazinan-4-yl)-N-[(3-methyl-2-thiophenyl)methyl]acetamide

> <PUBCHEM_IUPAC_NAME>
2-(1,1-dioxo-1,4-thiazinan-4-yl)-N-[(3-methylthiophen-2-yl)methyl]acetamide

> <PUBCHEM_IUPAC_SYSTEMATIC_NAME>
2-[1,1-bis(oxidanylidene)-1,4-thiazinan-4-yl]-N-[(3-methylthiophen-2-yl)methyl]ethanamide

> <PUBCHEM_IUPAC_TRADITIONAL_NAME>
2-(1,1-diketo-1,4-thiazinan-4-yl)-N-[(3-methyl-2-thienyl)methyl]acetamide

> <PUBCHEM_IUPAC_INCHI>
InChI=1S/C12H18N2O3S2/c1-10-2-5-18-11(10)8-13-12(15)9-14-3-6-19(16,17)7-4-14/h2,5H,3-4,6-9H2,1H3,(H,13,15)

> <PUBCHEM_IUPAC_INCHIKEY>
IKAVZSCNLDSUOH-UHFFFAOYSA-N

> <PUBCHEM_XLOGP3_AA>
0.3

> <PUBCHEM_EXACT_MASS>
302.075884

> <PUBCHEM_MOLECULAR_FORMULA>
C12H18N2O3S2

> <PUBCHEM_MOLECULAR_WEIGHT>
302.41292

> <PUBCHEM_OPENEYE_CAN_SMILES>
CC1=C(SC=C1)CNC(=O)CN2CCS(=O)(=O)CC2

> <PUBCHEM_OPENEYE_ISO_SMILES>
CC1=C(SC=C1)CNC(=O)CN2CCS(=O)(=O)CC2

> <PUBCHEM_CACTVS_TPSA>
103

> <PUBCHEM_MONOISOTOPIC_WEIGHT>
302.075884

> <PUBCHEM_TOTAL_CHARGE>
0

> <PUBCHEM_HEAVY_ATOM_COUNT>
19

> <PUBCHEM_ATOM_DEF_STEREO_COUNT>
0

> <PUBCHEM_ATOM_UDEF_STEREO_COUNT>
0

> <PUBCHEM_BOND_DEF_STEREO_COUNT>
0

> <PUBCHEM_BOND_UDEF_STEREO_COUNT>
0

> <PUBCHEM_ISOTOPIC_ATOM_COUNT>
0

> <PUBCHEM_COMPONENT_COUNT>
1

> <PUBCHEM_CACTVS_TAUTO_COUNT>
2

> <PUBCHEM_COORDINATE_TYPE>
1
5
255

> <PUBCHEM_BONDANNOTATIONS>
15  16  8
16  17  8
17  19  8
2  15  8
2  19  8

$$$$

