3642
  -OEChem-06251223332D

 67 70  0     1  0  0  0  0  0999 V2000
    8.0319    1.1716    0.0000 O   0  0  0  0  0  0  0  0  0  0  0  0
    4.7950    0.4153    0.0000 O   0  0  0  0  0  0  0  0  0  0  0  0
    9.7423    1.2357    0.0000 O   0  0  0  0  0  0  0  0  0  0  0  0
   10.9151   -0.3844    0.0000 O   0  0  0  0  0  0  0  0  0  0  0  0
    2.0000   -3.1370    0.0000 O   0  0  0  0  0  0  0  0  0  0  0  0
    9.1931    2.4568    0.0000 O   0  0  0  0  0  0  0  0  0  0  0  0
    7.3931   -0.0847    0.0000 C   0  0  3  0  0  0  0  0  0  0  0  0
    7.3931   -1.0847    0.0000 C   0  0  3  0  0  0  0  0  0  0  0  0
    6.5271   -1.5847    0.0000 C   0  0  3  0  0  0  0  0  0  0  0  0
    5.6610   -1.0847    0.0000 C   0  0  3  0  0  0  0  0  0  0  0  0
    8.3393    0.2200    0.0000 C   0  0  3  0  0  0  0  0  0  0  0  0
    6.5271    0.4153    0.0000 C   0  0  0  0  0  0  0  0  0  0  0  0
    4.7510   -1.5915    0.0000 C   0  0  3  0  0  0  0  0  0  0  0  0
    5.6610   -0.0847    0.0000 C   0  0  3  0  0  0  0  0  0  0  0  0
    8.3393   -1.3894    0.0000 C   0  0  0  0  0  0  0  0  0  0  0  0
    8.9229   -0.5847    0.0000 C   0  0  0  0  0  0  0  0  0  0  0  0
    6.5431   -2.6262    0.0000 C   0  0  0  0  0  0  0  0  0  0  0  0
    7.3931    0.9153    0.0000 C   0  0  0  0  0  0  0  0  0  0  0  0
    4.7430   -2.6331    0.0000 C   0  0  0  0  0  0  0  0  0  0  0  0
    5.6451   -3.1540    0.0000 C   0  0  0  0  0  0  0  0  0  0  0  0
    3.8242   -1.0275    0.0000 C   0  0  0  0  0  0  0  0  0  0  0  0
    4.7587   -0.5916    0.0000 C   0  0  0  0  0  0  0  0  0  0  0  0
    9.3340    0.3228    0.0000 C   0  0  0  0  0  0  0  0  0  0  0  0
    2.8763   -1.5554    0.0000 C   0  0  0  0  0  0  0  0  0  0  0  0
    3.8076   -3.1829    0.0000 C   0  0  0  0  0  0  0  0  0  0  0  0
    2.8680   -2.6404    0.0000 C   0  0  0  0  0  0  0  0  0  0  0  0
    9.9204   -0.4872    0.0000 C   0  0  0  0  0  0  0  0  0  0  0  0
    8.2415    2.1494    0.0000 C   0  0  0  0  0  0  0  0  0  0  0  0
    7.4996    2.8198    0.0000 C   0  0  0  0  0  0  0  0  0  0  0  0
    6.5480    2.5124    0.0000 C   0  0  0  0  0  0  0  0  0  0  0  0
    5.8060    3.1829    0.0000 C   0  0  0  0  0  0  0  0  0  0  0  0
    7.4587   -1.7012    0.0000 H   0  0  0  0  0  0  0  0  0  0  0  0
    7.0664   -1.8906    0.0000 H   0  0  0  0  0  0  0  0  0  0  0  0
    6.1980   -0.7747    0.0000 H   0  0  0  0  0  0  0  0  0  0  0  0
    6.9256    0.8902    0.0000 H   0  0  0  0  0  0  0  0  0  0  0  0
    6.1285    0.8902    0.0000 H   0  0  0  0  0  0  0  0  0  0  0  0
    5.6610    0.5353    0.0000 H   0  0  0  0  0  0  0  0  0  0  0  0
    8.0883   -1.9563    0.0000 H   0  0  0  0  0  0  0  0  0  0  0  0
    8.8767   -1.6987    0.0000 H   0  0  0  0  0  0  0  0  0  0  0  0
    9.3838   -0.9994    0.0000 H   0  0  0  0  0  0  0  0  0  0  0  0
    9.3838   -0.1700    0.0000 H   0  0  0  0  0  0  0  0  0  0  0  0
    6.7612   -3.2066    0.0000 H   0  0  0  0  0  0  0  0  0  0  0  0
    7.1523   -2.5107    0.0000 H   0  0  0  0  0  0  0  0  0  0  0  0
    8.0131    0.9153    0.0000 H   0  0  0  0  0  0  0  0  0  0  0  0
    7.3931    1.5353    0.0000 H   0  0  0  0  0  0  0  0  0  0  0  0
    6.7731    0.9153    0.0000 H   0  0  0  0  0  0  0  0  0  0  0  0
    5.2478   -3.6299    0.0000 H   0  0  0  0  0  0  0  0  0  0  0  0
    6.0460   -3.6268    0.0000 H   0  0  0  0  0  0  0  0  0  0  0  0
    4.2324   -0.5608    0.0000 H   0  0  0  0  0  0  0  0  0  0  0  0
    3.4343   -0.5454    0.0000 H   0  0  0  0  0  0  0  0  0  0  0  0
    5.3787   -0.5964    0.0000 H   0  0  0  0  0  0  0  0  0  0  0  0
    4.7635    0.0284    0.0000 H   0  0  0  0  0  0  0  0  0  0  0  0
    4.1388   -0.5868    0.0000 H   0  0  0  0  0  0  0  0  0  0  0  0
    2.6718   -0.9701    0.0000 H   0  0  0  0  0  0  0  0  0  0  0  0
    2.2647   -1.6568    0.0000 H   0  0  0  0  0  0  0  0  0  0  0  0
    4.7950    1.0353    0.0000 H   0  0  0  0  0  0  0  0  0  0  0  0
    3.8100   -3.8029    0.0000 H   0  0  0  0  0  0  0  0  0  0  0  0
    9.3627   -0.7580    0.0000 H   0  0  0  0  0  0  0  0  0  0  0  0
   10.0903   -1.0835    0.0000 H   0  0  0  0  0  0  0  0  0  0  0  0
    7.9888    3.2007    0.0000 H   0  0  0  0  0  0  0  0  0  0  0  0
    7.2094    3.3678    0.0000 H   0  0  0  0  0  0  0  0  0  0  0  0
   11.2786   -0.8866    0.0000 H   0  0  0  0  0  0  0  0  0  0  0  0
    6.0587    2.1316    0.0000 H   0  0  0  0  0  0  0  0  0  0  0  0
    6.8381    1.9645    0.0000 H   0  0  0  0  0  0  0  0  0  0  0  0
    6.2216    3.6429    0.0000 H   0  0  0  0  0  0  0  0  0  0  0  0
    5.3459    3.5985    0.0000 H   0  0  0  0  0  0  0  0  0  0  0  0
    5.3903    2.7228    0.0000 H   0  0  0  0  0  0  0  0  0  0  0  0
  1 11  1  0  0  0  0
  1 28  1  0  0  0  0
  2 14  1  0  0  0  0
  2 56  1  0  0  0  0
  3 23  2  0  0  0  0
  4 27  1  0  0  0  0
  4 62  1  0  0  0  0
  5 26  2  0  0  0  0
  6 28  2  0  0  0  0
  7  8  1  0  0  0  0
  7 11  1  0  0  0  0
  7 12  1  0  0  0  0
  7 18  1  0  0  0  0
  8  9  1  0  0  0  0
  8 15  1  0  0  0  0
  8 32  1  0  0  0  0
  9 10  1  0  0  0  0
  9 17  1  0  0  0  0
  9 33  1  0  0  0  0
 10 13  1  0  0  0  0
 10 14  1  0  0  0  0
 10 34  1  0  0  0  0
 11 16  1  0  0  0  0
 11 23  1  0  0  0  0
 12 14  1  0  0  0  0
 12 35  1  0  0  0  0
 12 36  1  0  0  0  0
 13 19  1  0  0  0  0
 13 21  1  0  0  0  0
 13 22  1  0  0  0  0
 14 37  1  0  0  0  0
 15 16  1  0  0  0  0
 15 38  1  0  0  0  0
 15 39  1  0  0  0  0
 16 40  1  0  0  0  0
 16 41  1  0  0  0  0
 17 20  1  0  0  0  0
 17 42  1  0  0  0  0
 17 43  1  0  0  0  0
 18 44  1  0  0  0  0
 18 45  1  0  0  0  0
 18 46  1  0  0  0  0
 19 20  1  0  0  0  0
 19 25  2  0  0  0  0
 20 47  1  0  0  0  0
 20 48  1  0  0  0  0
 21 24  1  0  0  0  0
 21 49  1  0  0  0  0
 21 50  1  0  0  0  0
 22 51  1  0  0  0  0
 22 52  1  0  0  0  0
 22 53  1  0  0  0  0
 23 27  1  0  0  0  0
 24 26  1  0  0  0  0
 24 54  1  0  0  0  0
 24 55  1  0  0  0  0
 25 26  1  0  0  0  0
 25 57  1  0  0  0  0
 27 58  1  0  0  0  0
 27 59  1  0  0  0  0
 28 29  1  0  0  0  0
 29 30  1  0  0  0  0
 29 60  1  0  0  0  0
 29 61  1  0  0  0  0
 30 31  1  0  0  0  0
 30 63  1  0  0  0  0
 30 64  1  0  0  0  0
 31 65  1  0  0  0  0
 31 66  1  0  0  0  0
 31 67  1  0  0  0  0
M  END
> <PUBCHEM_COMPOUND_CID>
3642

> <PUBCHEM_COMPOUND_CANONICALIZED>
1

> <PUBCHEM_CACTVS_COMPLEXITY>
817

> <PUBCHEM_CACTVS_HBOND_ACCEPTOR>
6

> <PUBCHEM_CACTVS_HBOND_DONOR>
2

> <PUBCHEM_CACTVS_ROTATABLE_BOND>
6

> <PUBCHEM_CACTVS_SUBSKEYS>
AAADcfB4OAAAAAAAAAAAAAAAAAAAAYAAAAAwYIAAAAAAAGDAAAAAGgAACAAAD1SggAICCAAABgCIAqDSCAIAAAAgAAAACAFAAEgAEBIAAQQCQAAFgAAIAQPIzPDPgAAAAAAAAADAAAYAADAAAYAADAAAAA==

> <PUBCHEM_IUPAC_OPENEYE_NAME>
[11-hydroxy-17-(2-hydroxyacetyl)-10,13-dimethyl-3-oxo-2,6,7,8,9,11,12,14,15,16-decahydro-1H-cyclopenta[a]phenanthren-17-yl] butanoate

> <PUBCHEM_IUPAC_CAS_NAME>
butanoic acid [11-hydroxy-17-(2-hydroxy-1-oxoethyl)-10,13-dimethyl-3-oxo-2,6,7,8,9,11,12,14,15,16-decahydro-1H-cyclopenta[a]phenanthren-17-yl] ester

> <PUBCHEM_IUPAC_NAME>
[11-hydroxy-17-(2-hydroxyacetyl)-10,13-dimethyl-3-oxo-2,6,7,8,9,11,12,14,15,16-decahydro-1H-cyclopenta[a]phenanthren-17-yl] butanoate

> <PUBCHEM_IUPAC_SYSTEMATIC_NAME>
[10,13-dimethyl-11-oxidanyl-17-(2-oxidanylethanoyl)-3-oxidanylidene-2,6,7,8,9,11,12,14,15,16-decahydro-1H-cyclopenta[a]phenanthren-17-yl] butanoate

> <PUBCHEM_IUPAC_TRADITIONAL_NAME>
butyric acid (17-glycoloyl-11-hydroxy-3-keto-10,13-dimethyl-2,6,7,8,9,11,12,14,15,16-decahydro-1H-cyclopenta[a]phenanthren-17-yl) ester

> <PUBCHEM_IUPAC_INCHI>
InChI=1S/C25H36O6/c1-4-5-21(30)31-25(20(29)14-26)11-9-18-17-7-6-15-12-16(27)8-10-23(15,2)22(17)19(28)13-24(18,25)3/h12,17-19,22,26,28H,4-11,13-14H2,1-3H3

> <PUBCHEM_IUPAC_INCHIKEY>
BMCQMVFGOVHVNG-UHFFFAOYSA-N

> <PUBCHEM_XLOGP3>
3.2

> <PUBCHEM_EXACT_MASS>
432.251189

> <PUBCHEM_MOLECULAR_FORMULA>
C25H36O6

> <PUBCHEM_MOLECULAR_WEIGHT>
432.54974

> <PUBCHEM_OPENEYE_CAN_SMILES>
CCCC(=O)OC1(CCC2C1(CC(C3C2CCC4=CC(=O)CCC34C)O)C)C(=O)CO

> <PUBCHEM_OPENEYE_ISO_SMILES>
CCCC(=O)OC1(CCC2C1(CC(C3C2CCC4=CC(=O)CCC34C)O)C)C(=O)CO

> <PUBCHEM_CACTVS_TPSA>
101

> <PUBCHEM_MONOISOTOPIC_WEIGHT>
432.251189

> <PUBCHEM_TOTAL_CHARGE>
0

> <PUBCHEM_HEAVY_ATOM_COUNT>
31

> <PUBCHEM_ATOM_DEF_STEREO_COUNT>
0

> <PUBCHEM_ATOM_UDEF_STEREO_COUNT>
7

> <PUBCHEM_BOND_DEF_STEREO_COUNT>
0

> <PUBCHEM_BOND_UDEF_STEREO_COUNT>
0

> <PUBCHEM_ISOTOPIC_ATOM_COUNT>
0

> <PUBCHEM_COMPONENT_COUNT>
1

> <PUBCHEM_CACTVS_TAUTO_COUNT>
15

> <PUBCHEM_COORDINATE_TYPE>
1
5
255

> <PUBCHEM_BONDANNOTATIONS>
10  14  3
11  23  3
13  22  3
14  2  3
7  18  3
8  15  3
9  17  3

$$$$

