22324
  -OEChem-07051213012D

 64 62  0     0  0  0  0  0  0999 V2000
    3.0739    7.3285    0.0000 Cl  0  5  0  0  0  0  0  0  0  0  0  0
    0.5369    7.3285    0.0000 O   0  0  0  0  0  0  0  0  0  0  0  0
   13.0390   12.5369    0.0000 N   0  3  0  0  0  0  0  0  0  0  0  0
    9.5749    6.5369    0.0000 C   0  0  0  0  0  0  0  0  0  0  0  0
   10.4409    7.0369    0.0000 C   0  0  0  0  0  0  0  0  0  0  0  0
    9.5749    5.5369    0.0000 C   0  0  0  0  0  0  0  0  0  0  0  0
   10.4409    8.0369    0.0000 C   0  0  0  0  0  0  0  0  0  0  0  0
    8.7089    5.0369    0.0000 C   0  0  0  0  0  0  0  0  0  0  0  0
   11.3070    8.5369    0.0000 C   0  0  0  0  0  0  0  0  0  0  0  0
    8.7089    4.0369    0.0000 C   0  0  0  0  0  0  0  0  0  0  0  0
   11.3070    9.5369    0.0000 C   0  0  0  0  0  0  0  0  0  0  0  0
    7.8429    3.5369    0.0000 C   0  0  0  0  0  0  0  0  0  0  0  0
   12.1730   10.0369    0.0000 C   0  0  0  0  0  0  0  0  0  0  0  0
    7.8429    2.5369    0.0000 C   0  0  0  0  0  0  0  0  0  0  0  0
   12.1730   11.0369    0.0000 C   0  0  0  0  0  0  0  0  0  0  0  0
    6.9768    2.0369    0.0000 C   0  0  0  0  0  0  0  0  0  0  0  0
   13.0390   11.5369    0.0000 C   0  0  0  0  0  0  0  0  0  0  0  0
    6.9768    1.0369    0.0000 C   0  0  0  0  0  0  0  0  0  0  0  0
    6.1108    0.5369    0.0000 C   0  0  0  0  0  0  0  0  0  0  0  0
   12.1730   13.0369    0.0000 C   0  0  0  0  0  0  0  0  0  0  0  0
   13.9050   13.0369    0.0000 C   0  0  0  0  0  0  0  0  0  0  0  0
   12.1730   14.0369    0.0000 C   0  0  0  0  0  0  0  0  0  0  0  0
   13.9050   14.0369    0.0000 C   0  0  0  0  0  0  0  0  0  0  0  0
   13.0390   14.5369    0.0000 C   0  0  0  0  0  0  0  0  0  0  0  0
    9.3629    7.1195    0.0000 H   0  0  0  0  0  0  0  0  0  0  0  0
    8.9643    6.4293    0.0000 H   0  0  0  0  0  0  0  0  0  0  0  0
   10.6530    6.4543    0.0000 H   0  0  0  0  0  0  0  0  0  0  0  0
   11.0515    7.1446    0.0000 H   0  0  0  0  0  0  0  0  0  0  0  0
    9.7870    4.9543    0.0000 H   0  0  0  0  0  0  0  0  0  0  0  0
   10.1855    5.6446    0.0000 H   0  0  0  0  0  0  0  0  0  0  0  0
   10.2289    8.6195    0.0000 H   0  0  0  0  0  0  0  0  0  0  0  0
    9.8303    7.9293    0.0000 H   0  0  0  0  0  0  0  0  0  0  0  0
    8.4968    5.6195    0.0000 H   0  0  0  0  0  0  0  0  0  0  0  0
    8.0983    4.9293    0.0000 H   0  0  0  0  0  0  0  0  0  0  0  0
   11.5190    7.9543    0.0000 H   0  0  0  0  0  0  0  0  0  0  0  0
   11.9175    8.6446    0.0000 H   0  0  0  0  0  0  0  0  0  0  0  0
    8.9209    3.4543    0.0000 H   0  0  0  0  0  0  0  0  0  0  0  0
    9.3195    4.1446    0.0000 H   0  0  0  0  0  0  0  0  0  0  0  0
   11.0949   10.1195    0.0000 H   0  0  0  0  0  0  0  0  0  0  0  0
   10.6964    9.4293    0.0000 H   0  0  0  0  0  0  0  0  0  0  0  0
    7.6308    4.1195    0.0000 H   0  0  0  0  0  0  0  0  0  0  0  0
    7.2323    3.4293    0.0000 H   0  0  0  0  0  0  0  0  0  0  0  0
   12.3850    9.4543    0.0000 H   0  0  0  0  0  0  0  0  0  0  0  0
   12.7836   10.1446    0.0000 H   0  0  0  0  0  0  0  0  0  0  0  0
    8.0549    1.9543    0.0000 H   0  0  0  0  0  0  0  0  0  0  0  0
    8.4534    2.6446    0.0000 H   0  0  0  0  0  0  0  0  0  0  0  0
   11.9609   11.6195    0.0000 H   0  0  0  0  0  0  0  0  0  0  0  0
   11.5624   10.9293    0.0000 H   0  0  0  0  0  0  0  0  0  0  0  0
    6.7648    2.6196    0.0000 H   0  0  0  0  0  0  0  0  0  0  0  0
    6.3662    1.9293    0.0000 H   0  0  0  0  0  0  0  0  0  0  0  0
   13.2511   10.9543    0.0000 H   0  0  0  0  0  0  0  0  0  0  0  0
   13.6496   11.6446    0.0000 H   0  0  0  0  0  0  0  0  0  0  0  0
    7.1889    0.4543    0.0000 H   0  0  0  0  0  0  0  0  0  0  0  0
    7.5874    1.1446    0.0000 H   0  0  0  0  0  0  0  0  0  0  0  0
    5.8008    1.0739    0.0000 H   0  0  0  0  0  0  0  0  0  0  0  0
    5.5739    0.2269    0.0000 H   0  0  0  0  0  0  0  0  0  0  0  0
    6.4208    0.0000    0.0000 H   0  0  0  0  0  0  0  0  0  0  0  0
   11.6360   12.7269    0.0000 H   0  0  0  0  0  0  0  0  0  0  0  0
   14.4420   12.7269    0.0000 H   0  0  0  0  0  0  0  0  0  0  0  0
   11.6360   14.3469    0.0000 H   0  0  0  0  0  0  0  0  0  0  0  0
   14.4420   14.3469    0.0000 H   0  0  0  0  0  0  0  0  0  0  0  0
   13.0390   15.1569    0.0000 H   0  0  0  0  0  0  0  0  0  0  0  0
    1.0739    7.6385    0.0000 H   0  0  0  0  0  0  0  0  0  0  0  0
    0.0000    7.6385    0.0000 H   0  0  0  0  0  0  0  0  0  0  0  0
  2 63  1  0  0  0  0
  2 64  1  0  0  0  0
  3 17  1  0  0  0  0
  3 20  2  0  0  0  0
  3 21  1  0  0  0  0
  4  5  1  0  0  0  0
  4  6  1  0  0  0  0
  4 25  1  0  0  0  0
  4 26  1  0  0  0  0
  5  7  1  0  0  0  0
  5 27  1  0  0  0  0
  5 28  1  0  0  0  0
  6  8  1  0  0  0  0
  6 29  1  0  0  0  0
  6 30  1  0  0  0  0
  7  9  1  0  0  0  0
  7 31  1  0  0  0  0
  7 32  1  0  0  0  0
  8 10  1  0  0  0  0
  8 33  1  0  0  0  0
  8 34  1  0  0  0  0
  9 11  1  0  0  0  0
  9 35  1  0  0  0  0
  9 36  1  0  0  0  0
 10 12  1  0  0  0  0
 10 37  1  0  0  0  0
 10 38  1  0  0  0  0
 11 13  1  0  0  0  0
 11 39  1  0  0  0  0
 11 40  1  0  0  0  0
 12 14  1  0  0  0  0
 12 41  1  0  0  0  0
 12 42  1  0  0  0  0
 13 15  1  0  0  0  0
 13 43  1  0  0  0  0
 13 44  1  0  0  0  0
 14 16  1  0  0  0  0
 14 45  1  0  0  0  0
 14 46  1  0  0  0  0
 15 17  1  0  0  0  0
 15 47  1  0  0  0  0
 15 48  1  0  0  0  0
 16 18  1  0  0  0  0
 16 49  1  0  0  0  0
 16 50  1  0  0  0  0
 17 51  1  0  0  0  0
 17 52  1  0  0  0  0
 18 19  1  0  0  0  0
 18 53  1  0  0  0  0
 18 54  1  0  0  0  0
 19 55  1  0  0  0  0
 19 56  1  0  0  0  0
 19 57  1  0  0  0  0
 20 22  1  0  0  0  0
 20 58  1  0  0  0  0
 21 23  2  0  0  0  0
 21 59  1  0  0  0  0
 22 24  2  0  0  0  0
 22 60  1  0  0  0  0
 23 24  1  0  0  0  0
 23 61  1  0  0  0  0
 24 62  1  0  0  0  0
M  CHG  2   1  -1   3   1
M  END
> <PUBCHEM_COMPOUND_CID>
22324

> <PUBCHEM_COMPOUND_CANONICALIZED>
1

> <PUBCHEM_CACTVS_COMPLEXITY>
208

> <PUBCHEM_CACTVS_HBOND_ACCEPTOR>
2

> <PUBCHEM_CACTVS_HBOND_DONOR>
1

> <PUBCHEM_CACTVS_ROTATABLE_BOND>
15

> <PUBCHEM_CACTVS_SUBSKEYS>
AAADcfB6IAAEAAAAAAAAAAAAAAAAAAAAAAAsAAAAAAAAAAABgAAAHAAACAAACADBEgQ+gJMMEACgADBnRACCgCAxAiAI2CA4ZJgIIOLAkZGEIAhggADIyAcQgIAAAAAAAAAAAAAAAAAAAAAAAAAAAAAAAA==

> <PUBCHEM_IUPAC_OPENEYE_NAME>
1-hexadecylpyridin-1-ium chloride hydrate

> <PUBCHEM_IUPAC_CAS_NAME>
1-hexadecylpyridin-1-ium chloride hydrate

> <PUBCHEM_IUPAC_NAME>
1-hexadecylpyridin-1-ium chloride hydrate

> <PUBCHEM_IUPAC_SYSTEMATIC_NAME>
1-hexadecylpyridin-1-ium chloride hydrate

> <PUBCHEM_IUPAC_TRADITIONAL_NAME>
1-cetylpyridin-1-ium chloride hydrate

> <PUBCHEM_IUPAC_INCHI>
InChI=1S/C21H38N.ClH.H2O/c1-2-3-4-5-6-7-8-9-10-11-12-13-14-16-19-22-20-17-15-18-21-22;;/h15,17-18,20-21H,2-14,16,19H2,1H3;1H;1H2/q+1;;/p-1

> <PUBCHEM_IUPAC_INCHIKEY>
NFCRBQADEGXVDL-UHFFFAOYSA-M

> <PUBCHEM_EXACT_MASS>
357.279843

> <PUBCHEM_MOLECULAR_FORMULA>
C21H40ClNO

> <PUBCHEM_MOLECULAR_WEIGHT>
358.0014

> <PUBCHEM_OPENEYE_CAN_SMILES>
CCCCCCCCCCCCCCCC[N+]1=CC=CC=C1.O.[Cl-]

> <PUBCHEM_OPENEYE_ISO_SMILES>
CCCCCCCCCCCCCCCC[N+]1=CC=CC=C1.O.[Cl-]

> <PUBCHEM_CACTVS_TPSA>
4.9

> <PUBCHEM_MONOISOTOPIC_WEIGHT>
357.279843

> <PUBCHEM_TOTAL_CHARGE>
0

> <PUBCHEM_HEAVY_ATOM_COUNT>
24

> <PUBCHEM_ATOM_DEF_STEREO_COUNT>
0

> <PUBCHEM_ATOM_UDEF_STEREO_COUNT>
0

> <PUBCHEM_BOND_DEF_STEREO_COUNT>
0

> <PUBCHEM_BOND_UDEF_STEREO_COUNT>
0

> <PUBCHEM_ISOTOPIC_ATOM_COUNT>
0

> <PUBCHEM_COMPONENT_COUNT>
3

> <PUBCHEM_CACTVS_TAUTO_COUNT>
1

> <PUBCHEM_COORDINATE_TYPE>
1
5
255

> <PUBCHEM_BONDANNOTATIONS>
20  22  8
21  23  8
22  24  8
23  24  8
3  20  8
3  21  8

$$$$

