4329
  -OEChem-06261200022D

 79 79  0     1  0  0  0  0  0999 V2000
    6.0010    0.3450    0.0000 O   0  0  0  0  0  0  0  0  0  0  0  0
    8.5991    2.8450    0.0000 O   0  0  0  0  0  0  0  0  0  0  0  0
   11.1972    0.3450    0.0000 O   0  0  0  0  0  0  0  0  0  0  0  0
    5.1350   -0.1550    0.0000 O   0  0  0  0  0  0  0  0  0  0  0  0
   11.1972   -1.6550    0.0000 O   0  0  0  0  0  0  0  0  0  0  0  0
    9.4651   -1.6550    0.0000 O   0  0  0  0  0  0  0  0  0  0  0  0
    2.5369    3.3450    0.0000 O   0  0  0  0  0  0  0  0  0  0  0  0
    4.2690    3.3450    0.0000 O   0  0  0  0  0  0  0  0  0  0  0  0
   12.9292    4.3450    0.0000 O   0  0  0  0  0  0  0  0  0  0  0  0
   13.7953    2.8450    0.0000 O   0  0  0  0  0  0  0  0  0  0  0  0
   12.0632   -0.1550    0.0000 O   0  0  0  0  0  0  0  0  0  0  0  0
    2.5369   -4.6550    0.0000 O   0  5  0  0  0  0  0  0  0  0  0  0
    4.2690   -4.6550    0.0000 O   0  0  0  0  0  0  0  0  0  0  0  0
    7.7331    1.3450    0.0000 N   0  0  0  0  0  0  0  0  0  0  0  0
   10.3312    1.8450    0.0000 N   0  0  0  0  0  0  0  0  0  0  0  0
    5.1350    1.8450    0.0000 N   0  0  0  0  0  0  0  0  0  0  0  0
   12.9292    1.3450    0.0000 N   0  0  0  0  0  0  0  0  0  0  0  0
    3.4030   -0.1550    0.0000 N   0  0  0  0  0  0  0  0  0  0  0  0
    3.4030   -4.1550    0.0000 N   0  3  0  0  0  0  0  0  0  0  0  0
    6.8671    1.8450    0.0000 C   0  0  3  0  0  0  0  0  0  0  0  0
    6.8671    2.8450    0.0000 C   0  0  0  0  0  0  0  0  0  0  0  0
    9.4651    1.3450    0.0000 C   0  0  3  0  0  0  0  0  0  0  0  0
    6.0010    1.3450    0.0000 C   0  0  0  0  0  0  0  0  0  0  0  0
    8.5991    1.8450    0.0000 C   0  0  0  0  0  0  0  0  0  0  0  0
    9.4651    0.3450    0.0000 C   0  0  0  0  0  0  0  0  0  0  0  0
    7.7331    3.3450    0.0000 C   0  0  0  0  0  0  0  0  0  0  0  0
    6.0010    3.3450    0.0000 C   0  0  0  0  0  0  0  0  0  0  0  0
    4.2690    1.3450    0.0000 C   0  0  3  0  0  0  0  0  0  0  0  0
   10.3312   -0.1550    0.0000 C   0  0  0  0  0  0  0  0  0  0  0  0
   12.0632    1.8450    0.0000 C   0  0  3  0  0  0  0  0  0  0  0  0
   11.1972    1.3450    0.0000 C   0  0  0  0  0  0  0  0  0  0  0  0
    3.4030    1.8450    0.0000 C   0  0  0  0  0  0  0  0  0  0  0  0
    4.2690    0.3450    0.0000 C   0  0  0  0  0  0  0  0  0  0  0  0
   12.0632    2.8450    0.0000 C   0  0  0  0  0  0  0  0  0  0  0  0
   10.3312   -1.1550    0.0000 C   0  0  0  0  0  0  0  0  0  0  0  0
    3.4030    2.8450    0.0000 C   0  0  0  0  0  0  0  0  0  0  0  0
   12.9292    3.3450    0.0000 C   0  0  0  0  0  0  0  0  0  0  0  0
   12.9292    0.3450    0.0000 C   0  0  0  0  0  0  0  0  0  0  0  0
    3.4030   -1.1550    0.0000 C   0  0  0  0  0  0  0  0  0  0  0  0
   13.7953   -0.1550    0.0000 C   0  0  0  0  0  0  0  0  0  0  0  0
    2.5369   -1.6550    0.0000 C   0  0  0  0  0  0  0  0  0  0  0  0
    4.2690   -1.6550    0.0000 C   0  0  0  0  0  0  0  0  0  0  0  0
    2.5369   -2.6550    0.0000 C   0  0  0  0  0  0  0  0  0  0  0  0
    4.2690   -2.6550    0.0000 C   0  0  0  0  0  0  0  0  0  0  0  0
    3.4030   -3.1550    0.0000 C   0  0  0  0  0  0  0  0  0  0  0  0
    7.4040    2.1550    0.0000 H   0  0  0  0  0  0  0  0  0  0  0  0
    6.3301    2.5350    0.0000 H   0  0  0  0  0  0  0  0  0  0  0  0
   10.0021    1.0350    0.0000 H   0  0  0  0  0  0  0  0  0  0  0  0
    7.7331    0.7250    0.0000 H   0  0  0  0  0  0  0  0  0  0  0  0
    8.8546    0.4527    0.0000 H   0  0  0  0  0  0  0  0  0  0  0  0
    9.2531   -0.2376    0.0000 H   0  0  0  0  0  0  0  0  0  0  0  0
    8.0431    2.8081    0.0000 H   0  0  0  0  0  0  0  0  0  0  0  0
    8.2700    3.6550    0.0000 H   0  0  0  0  0  0  0  0  0  0  0  0
    6.3110    3.8819    0.0000 H   0  0  0  0  0  0  0  0  0  0  0  0
    5.4641    3.6550    0.0000 H   0  0  0  0  0  0  0  0  0  0  0  0
    5.6910    2.8081    0.0000 H   0  0  0  0  0  0  0  0  0  0  0  0
    7.4231    3.8819    0.0000 H   0  0  0  0  0  0  0  0  0  0  0  0
    4.2690    1.9650    0.0000 H   0  0  0  0  0  0  0  0  0  0  0  0
   10.3312    2.4650    0.0000 H   0  0  0  0  0  0  0  0  0  0  0  0
    5.1350    2.4650    0.0000 H   0  0  0  0  0  0  0  0  0  0  0  0
   10.9417   -0.2627    0.0000 H   0  0  0  0  0  0  0  0  0  0  0  0
   10.5432    0.4276    0.0000 H   0  0  0  0  0  0  0  0  0  0  0  0
   12.6002    2.1550    0.0000 H   0  0  0  0  0  0  0  0  0  0  0  0
    2.7924    1.9527    0.0000 H   0  0  0  0  0  0  0  0  0  0  0  0
    3.1909    1.2624    0.0000 H   0  0  0  0  0  0  0  0  0  0  0  0
   11.8512    3.4276    0.0000 H   0  0  0  0  0  0  0  0  0  0  0  0
   11.4526    2.7373    0.0000 H   0  0  0  0  0  0  0  0  0  0  0  0
   13.4662    1.6550    0.0000 H   0  0  0  0  0  0  0  0  0  0  0  0
    2.8660    0.1550    0.0000 H   0  0  0  0  0  0  0  0  0  0  0  0
   11.1972   -2.2750    0.0000 H   0  0  0  0  0  0  0  0  0  0  0  0
   13.4853   -0.6919    0.0000 H   0  0  0  0  0  0  0  0  0  0  0  0
   14.3322   -0.4650    0.0000 H   0  0  0  0  0  0  0  0  0  0  0  0
   14.1053    0.3819    0.0000 H   0  0  0  0  0  0  0  0  0  0  0  0
    2.0000   -1.3450    0.0000 H   0  0  0  0  0  0  0  0  0  0  0  0
    4.8059   -1.3450    0.0000 H   0  0  0  0  0  0  0  0  0  0  0  0
    2.0000    3.0350    0.0000 H   0  0  0  0  0  0  0  0  0  0  0  0
   13.4662    4.6550    0.0000 H   0  0  0  0  0  0  0  0  0  0  0  0
    2.0000   -2.9650    0.0000 H   0  0  0  0  0  0  0  0  0  0  0  0
    4.8059   -2.9650    0.0000 H   0  0  0  0  0  0  0  0  0  0  0  0
  1 23  2  0  0  0  0
  2 24  2  0  0  0  0
  3 31  2  0  0  0  0
  4 33  2  0  0  0  0
  5 35  1  0  0  0  0
  5 70  1  0  0  0  0
  6 35  2  0  0  0  0
  7 36  1  0  0  0  0
  7 76  1  0  0  0  0
  8 36  2  0  0  0  0
  9 37  1  0  0  0  0
  9 77  1  0  0  0  0
 10 37  2  0  0  0  0
 11 38  2  0  0  0  0
 12 19  1  0  0  0  0
 13 19  2  0  0  0  0
 14 20  1  0  0  0  0
 14 24  1  0  0  0  0
 14 49  1  0  0  0  0
 15 22  1  0  0  0  0
 15 31  1  0  0  0  0
 15 59  1  0  0  0  0
 16 23  1  0  0  0  0
 16 28  1  0  0  0  0
 16 60  1  0  0  0  0
 17 30  1  0  0  0  0
 17 38  1  0  0  0  0
 17 68  1  0  0  0  0
 18 33  1  0  0  0  0
 18 39  1  0  0  0  0
 18 69  1  0  0  0  0
 19 45  1  0  0  0  0
 20 21  1  0  0  0  0
 20 23  1  0  0  0  0
 20 46  1  0  0  0  0
 21 26  1  0  0  0  0
 21 27  1  0  0  0  0
 21 47  1  0  0  0  0
 22 24  1  0  0  0  0
 22 25  1  0  0  0  0
 22 48  1  0  0  0  0
 25 29  1  0  0  0  0
 25 50  1  0  0  0  0
 25 51  1  0  0  0  0
 26 52  1  0  0  0  0
 26 53  1  0  0  0  0
 26 57  1  0  0  0  0
 27 54  1  0  0  0  0
 27 55  1  0  0  0  0
 27 56  1  0  0  0  0
 28 32  1  0  0  0  0
 28 33  1  0  0  0  0
 28 58  1  0  0  0  0
 29 35  1  0  0  0  0
 29 61  1  0  0  0  0
 29 62  1  0  0  0  0
 30 31  1  0  0  0  0
 30 34  1  0  0  0  0
 30 63  1  0  0  0  0
 32 36  1  0  0  0  0
 32 64  1  0  0  0  0
 32 65  1  0  0  0  0
 34 37  1  0  0  0  0
 34 66  1  0  0  0  0
 34 67  1  0  0  0  0
 38 40  1  0  0  0  0
 39 41  2  0  0  0  0
 39 42  1  0  0  0  0
 40 71  1  0  0  0  0
 40 72  1  0  0  0  0
 40 73  1  0  0  0  0
 41 43  1  0  0  0  0
 41 74  1  0  0  0  0
 42 44  2  0  0  0  0
 42 75  1  0  0  0  0
 43 45  2  0  0  0  0
 43 78  1  0  0  0  0
 44 45  1  0  0  0  0
 44 79  1  0  0  0  0
M  CHG  2  12  -1  19   1
M  END
> <PUBCHEM_COMPOUND_CID>
4329

> <PUBCHEM_COMPOUND_CANONICALIZED>
1

> <PUBCHEM_CACTVS_COMPLEXITY>
1150

> <PUBCHEM_CACTVS_HBOND_ACCEPTOR>
13

> <PUBCHEM_CACTVS_HBOND_DONOR>
8

> <PUBCHEM_CACTVS_ROTATABLE_BOND>
17

> <PUBCHEM_CACTVS_SUBSKEYS>
AAADcfB7vAAAAAAAAAAAAAAAAAAAAAAAAAAwAAAAAAAAAAABAAAAHgAUCAAADSjBkAQyyILQQgCJACXSWwCCAAAhAgAoiIGIZIoIYDrAkbGUYAhmlgDIyAe/FwIIAACAAAAAAAAAAQAAAAAAAAAAAAAAAA==

> <PUBCHEM_IUPAC_OPENEYE_NAME>
4-[(2-acetamido-3-carboxy-propanoyl)amino]-5-[[1-[[1-(carboxymethyl)-2-(4-nitroanilino)-2-oxo-ethyl]carbamoyl]-2-methyl-propyl]amino]-5-oxo-pentanoic acid

> <PUBCHEM_IUPAC_CAS_NAME>
4-[(2-acetamido-3-carboxy-1-oxopropyl)amino]-5-[[1-[[3-carboxy-1-(4-nitroanilino)-1-oxopropan-2-yl]amino]-3-methyl-1-oxobutan-2-yl]amino]-5-oxopentanoic acid

> <PUBCHEM_IUPAC_NAME>
4-[(2-acetamido-3-carboxypropanoyl)amino]-5-[[1-[[3-carboxy-1-(4-nitroanilino)-1-oxopropan-2-yl]amino]-3-methyl-1-oxobutan-2-yl]amino]-5-oxopentanoic acid

> <PUBCHEM_IUPAC_SYSTEMATIC_NAME>
4-[(2-acetamido-4-oxidanyl-4-oxidanylidene-butanoyl)amino]-5-[[3-methyl-1-[[1-[(4-nitrophenyl)amino]-4-oxidanyl-1,4-bis(oxidanylidene)butan-2-yl]amino]-1-oxidanylidene-butan-2-yl]amino]-5-oxidanylidene-pentanoic acid

> <PUBCHEM_IUPAC_TRADITIONAL_NAME>
4-[(2-acetamido-3-carboxy-propanoyl)amino]-5-[[1-[[1-(carboxymethyl)-2-keto-2-(4-nitroanilino)ethyl]carbamoyl]-2-methyl-propyl]amino]-5-keto-valeric acid

> <PUBCHEM_IUPAC_INCHI>
InChI=1S/C26H34N6O13/c1-12(2)22(26(43)30-18(11-21(38)39)24(41)28-14-4-6-15(7-5-14)32(44)45)31-23(40)16(8-9-19(34)35)29-25(42)17(10-20(36)37)27-13(3)33/h4-7,12,16-18,22H,8-11H2,1-3H3,(H,27,33)(H,28,41)(H,29,42)(H,30,43)(H,31,40)(H,34,35)(H,36,37)(H,38,39)

> <PUBCHEM_IUPAC_INCHIKEY>
GGXRLUDNGFFUKI-UHFFFAOYSA-N

> <PUBCHEM_XLOGP3_AA>
-1.4

> <PUBCHEM_EXACT_MASS>
638.218385

> <PUBCHEM_MOLECULAR_FORMULA>
C26H34N6O13

> <PUBCHEM_MOLECULAR_WEIGHT>
638.58056

> <PUBCHEM_OPENEYE_CAN_SMILES>
CC(C)C(C(=O)NC(CC(=O)O)C(=O)NC1=CC=C(C=C1)[N+](=O)[O-])NC(=O)C(CCC(=O)O)NC(=O)C(CC(=O)O)NC(=O)C

> <PUBCHEM_OPENEYE_ISO_SMILES>
CC(C)C(C(=O)NC(CC(=O)O)C(=O)NC1=CC=C(C=C1)[N+](=O)[O-])NC(=O)C(CCC(=O)O)NC(=O)C(CC(=O)O)NC(=O)C

> <PUBCHEM_CACTVS_TPSA>
303

> <PUBCHEM_MONOISOTOPIC_WEIGHT>
638.218385

> <PUBCHEM_TOTAL_CHARGE>
0

> <PUBCHEM_HEAVY_ATOM_COUNT>
45

> <PUBCHEM_ATOM_DEF_STEREO_COUNT>
0

> <PUBCHEM_ATOM_UDEF_STEREO_COUNT>
4

> <PUBCHEM_BOND_DEF_STEREO_COUNT>
0

> <PUBCHEM_BOND_UDEF_STEREO_COUNT>
0

> <PUBCHEM_ISOTOPIC_ATOM_COUNT>
0

> <PUBCHEM_COMPONENT_COUNT>
1

> <PUBCHEM_CACTVS_TAUTO_COUNT>
48

> <PUBCHEM_COORDINATE_TYPE>
1
5
255

> <PUBCHEM_BONDANNOTATIONS>
20  21  3
22  25  3
28  32  3
30  34  3
39  41  8
39  42  8
41  43  8
42  44  8
43  45  8
44  45  8

$$$$

