   Color/Form

     * Needles from petroleum ether
     * Pale yellow solid

   from [1]HSDB

   Odor
        Mild, phenolic odor
   from [2]HSDB

   Boiling Point
        223 deg C
   from [3]HSDB

   Melting Point
        51 deg C
   from [4]HSDB

   Density/Specific Gravity
        1.2 g/cu cm
   from [5]HSDB

   Dissociation Constants
        pKa = 9.71
   from [6]HSDB

   Octanol/Water Partition Coefficient
        log Kow = 2.78
   from [7]HSDB

   Solubilities

     * Sol in petroleum ether
     * In water, 4.00X10+3 mg/l @ 25 deg C

   from [8]HSDB

   Spectral Properties

     * MAX ABSORPTION (PETROLEUM ETHER): 286 NM, 292 NM
     * IR: 1162 (Coblentz Society Spectral Collection)
     * NMR: 12400 (Sadtler Research Laboratories Spectral Collection)
     * MASS: 760 (Atlas of Mass Spectral Data, John Wiley and Sons, New
       York); 3930 (NIST/EPA/MSDC Mass Spectral Database, 1990 Version)

   from [9]HSDB

   Vapor Pressure
        2.40X10-2 mm Hg @ 25 deg C
   from [10]HSDB

   Other Chemical/Physical Properties
        Henry's Law constant = 1.1X10-6 atm-cu m/mol @ 25 deg C
   from [11]HSDB

   Computed Properties
   Molecular Weight                  142.58288 [g/mol]
   Molecular Formula                 C[7]H[7]ClO
   XLogP3                            2.8
   H-Bond Donor                      1
   H-Bond Acceptor                   1
   Rotatable Bond Count              0
   Tautomer Count                    3
   Exact Mass                        142.018543
   MonoIsotopic Mass                 142.018543
   Topological Polar Surface Area    20.2
   Heavy Atom Count                  9
   Formal Charge                     0
   Complexity                        94.9
   Isotope Atom Count                0
   Defined Atom Stereocenter Count   0
   Undefined Atom Stereocenter Count 0
   Defined Bond Stereocenter Count   0
   Undefined Bond Stereocenter Count 0
   Covalently-Bonded Unit Count      1
   Feature 3D Donor Count            1
   Feature 3D Ring Count             1
   Effective Rotor Count             0
   Conformer Sampling RMSD           0.4
   CID Conformer Count               [12]1

References

   1. http://toxnet.nlm.nih.gov/cgi-bin/sis/search/r?dbs+hsdb:@term+@rn+@rel+1570-64-5
   2. http://toxnet.nlm.nih.gov/cgi-bin/sis/search/r?dbs+hsdb:@term+@rn+@rel+1570-64-5
   3. http://toxnet.nlm.nih.gov/cgi-bin/sis/search/r?dbs+hsdb:@term+@rn+@rel+1570-64-5
   4. http://toxnet.nlm.nih.gov/cgi-bin/sis/search/r?dbs+hsdb:@term+@rn+@rel+1570-64-5
   5. http://toxnet.nlm.nih.gov/cgi-bin/sis/search/r?dbs+hsdb:@term+@rn+@rel+1570-64-5
   6. http://toxnet.nlm.nih.gov/cgi-bin/sis/search/r?dbs+hsdb:@term+@rn+@rel+1570-64-5
   7. http://toxnet.nlm.nih.gov/cgi-bin/sis/search/r?dbs+hsdb:@term+@rn+@rel+1570-64-5
   8. http://toxnet.nlm.nih.gov/cgi-bin/sis/search/r?dbs+hsdb:@term+@rn+@rel+1570-64-5
   9. http://toxnet.nlm.nih.gov/cgi-bin/sis/search/r?dbs+hsdb:@term+@rn+@rel+1570-64-5
  10. http://toxnet.nlm.nih.gov/cgi-bin/sis/search/r?dbs+hsdb:@term+@rn+@rel+1570-64-5
  11. http://toxnet.nlm.nih.gov/cgi-bin/sis/search/r?dbs+hsdb:@term+@rn+@rel+1570-64-5
  12. http://pubchem.ncbi.nlm.nih.gov/vw3d/vw3d.cgi?cid=14855
