123695
  -OEChem-07051213042D

 68 71  0     1  0  0  0  0  0999 V2000
    7.6628   -1.6920    0.0000 P   0  0  0  0  0  0  0  0  0  0  0  0
    8.0639    4.2353    0.0000 P   0  0  0  0  0  0  0  0  0  0  0  0
    5.4282    4.4655    0.0000 P   0  0  0  0  0  0  0  0  0  0  0  0
    6.7523    0.0784    0.0000 O   0  0  0  0  0  0  0  0  0  0  0  0
    4.4026   -1.0053    0.0000 O   0  0  0  0  0  0  0  0  0  0  0  0
    5.7366    1.4814    0.0000 O   0  0  0  0  0  0  0  0  0  0  0  0
    6.7485   -2.0972    0.0000 O   0  0  0  0  0  0  0  0  0  0  0  0
    8.1667    3.2406    0.0000 O   0  0  0  0  0  0  0  0  0  0  0  0
    6.3411    4.0572    0.0000 O   0  0  0  0  0  0  0  0  0  0  0  0
    8.3724    1.2512    0.0000 O   0  0  0  0  0  0  0  0  0  0  0  0
    3.7066    0.9639    0.0000 O   0  0  0  0  0  0  0  0  0  0  0  0
    3.9110    2.2981    0.0000 O   0  0  0  0  0  0  0  0  0  0  0  0
    8.5770   -1.2868    0.0000 O   0  0  0  0  0  0  0  0  0  0  0  0
    8.0679   -2.6062    0.0000 O   0  0  0  0  0  0  0  0  0  0  0  0
    7.2576   -0.7778    0.0000 O   0  0  0  0  0  0  0  0  0  0  0  0
    7.9611    5.2300    0.0000 O   0  0  0  0  0  0  0  0  0  0  0  0
    9.0586    4.3381    0.0000 O   0  0  0  0  0  0  0  0  0  0  0  0
    5.8365    5.3784    0.0000 O   0  0  0  0  0  0  0  0  0  0  0  0
    4.5154    4.8738    0.0000 O   0  0  0  0  0  0  0  0  0  0  0  0
    7.0692    4.1325    0.0000 O   0  0  0  0  0  0  0  0  0  0  0  0
    5.0199    3.5527    0.0000 O   0  0  0  0  0  0  0  0  0  0  0  0
    4.6783   -2.7659    0.0000 N   0  0  0  0  0  0  0  0  0  0  0  0
    4.6783   -4.3753    0.0000 N   0  0  0  0  0  0  0  0  0  0  0  0
    2.8660   -2.5706    0.0000 N   0  0  0  0  0  0  0  0  0  0  0  0
    2.0000   -4.0706    0.0000 N   0  0  0  0  0  0  0  0  0  0  0  0
    2.8660   -5.5706    0.0000 N   0  0  0  0  0  0  0  0  0  0  0  0
    5.9422   -0.5080    0.0000 C   0  0  1  0  0  0  0  0  0  0  0  0
    5.9405   -1.5080    0.0000 C   0  0  2  0  0  0  0  0  0  0  0  0
    4.9917   -0.1973    0.0000 C   0  0  1  0  0  0  0  0  0  0  0  0
    4.9889   -1.8153    0.0000 C   0  0  1  0  0  0  0  0  0  0  0  0
    6.6495    1.0731    0.0000 C   0  0  1  0  0  0  0  0  0  0  0  0
    7.4595    1.6595    0.0000 C   0  0  1  0  0  0  0  0  0  0  0  0
    7.3567    2.6542    0.0000 C   0  0  2  0  0  0  0  0  0  0  0  0
    6.4439    3.0625    0.0000 C   0  0  1  0  0  0  0  0  0  0  0  0
    5.6338    2.4761    0.0000 C   0  0  1  0  0  0  0  0  0  0  0  0
    4.6844    0.7543    0.0000 C   0  0  0  0  0  0  0  0  0  0  0  0
    4.7210    2.8844    0.0000 C   0  0  0  0  0  0  0  0  0  0  0  0
    3.7320   -3.0706    0.0000 C   0  0  0  0  0  0  0  0  0  0  0  0
    5.2619   -3.5706    0.0000 C   0  0  0  0  0  0  0  0  0  0  0  0
    3.7320   -4.0706    0.0000 C   0  0  0  0  0  0  0  0  0  0  0  0
    2.8660   -4.5706    0.0000 C   0  0  0  0  0  0  0  0  0  0  0  0
    2.0000   -3.0706    0.0000 C   0  0  0  0  0  0  0  0  0  0  0  0
    6.4942   -0.7904    0.0000 H   0  0  0  0  0  0  0  0  0  0  0  0
    6.4934   -1.2274    0.0000 H   0  0  0  0  0  0  0  0  0  0  0  0
    4.3795   -0.0993    0.0000 H   0  0  0  0  0  0  0  0  0  0  0  0
    5.4266   -2.2545    0.0000 H   0  0  0  0  0  0  0  0  0  0  0  0
    7.2154    0.8200    0.0000 H   0  0  0  0  0  0  0  0  0  0  0  0
    7.9617    2.0231    0.0000 H   0  0  0  0  0  0  0  0  0  0  0  0
    7.2930    3.2709    0.0000 H   0  0  0  0  0  0  0  0  0  0  0  0
    6.9461    3.4261    0.0000 H   0  0  0  0  0  0  0  0  0  0  0  0
    5.1316    2.1126    0.0000 H   0  0  0  0  0  0  0  0  0  0  0  0
    5.2985    0.8395    0.0000 H   0  0  0  0  0  0  0  0  0  0  0  0
    4.7071    1.3739    0.0000 H   0  0  0  0  0  0  0  0  0  0  0  0
    5.0686    3.3978    0.0000 H   0  0  0  0  0  0  0  0  0  0  0  0
    4.2758    3.3159    0.0000 H   0  0  0  0  0  0  0  0  0  0  0  0
    8.8746    1.6147    0.0000 H   0  0  0  0  0  0  0  0  0  0  0  0
    5.8819   -3.5706    0.0000 H   0  0  0  0  0  0  0  0  0  0  0  0
    3.5160    1.5539    0.0000 H   0  0  0  0  0  0  0  0  0  0  0  0
    3.3450    2.5512    0.0000 H   0  0  0  0  0  0  0  0  0  0  0  0
    8.6844   -2.6721    0.0000 H   0  0  0  0  0  0  0  0  0  0  0  0
    9.0780   -1.6521    0.0000 H   0  0  0  0  0  0  0  0  0  0  0  0
    1.4631   -2.7606    0.0000 H   0  0  0  0  0  0  0  0  0  0  0  0
    8.4633    5.5935    0.0000 H   0  0  0  0  0  0  0  0  0  0  0  0
    9.4222    3.8359    0.0000 H   0  0  0  0  0  0  0  0  0  0  0  0
    5.4730    5.8806    0.0000 H   0  0  0  0  0  0  0  0  0  0  0  0
    4.4516    5.4906    0.0000 H   0  0  0  0  0  0  0  0  0  0  0  0
    2.3291   -5.8806    0.0000 H   0  0  0  0  0  0  0  0  0  0  0  0
    3.4030   -5.8806    0.0000 H   0  0  0  0  0  0  0  0  0  0  0  0
  1  7  1  0  0  0  0
  1 13  1  0  0  0  0
  1 14  1  0  0  0  0
  1 15  2  0  0  0  0
  2  8  1  0  0  0  0
  2 16  1  0  0  0  0
  2 17  1  0  0  0  0
  2 20  2  0  0  0  0
  3  9  1  0  0  0  0
  3 18  1  0  0  0  0
  3 19  1  0  0  0  0
  3 21  2  0  0  0  0
 27  4  1  1  0  0  0
 31  4  1  1  0  0  0
  5 29  1  0  0  0  0
  5 30  1  0  0  0  0
  6 31  1  0  0  0  0
  6 35  1  0  0  0  0
 28  7  1  1  0  0  0
 33  8  1  6  0  0  0
 34  9  1  1  0  0  0
 32 10  1  1  0  0  0
 10 56  1  0  0  0  0
 11 36  1  0  0  0  0
 11 58  1  0  0  0  0
 12 37  1  0  0  0  0
 12 59  1  0  0  0  0
 13 61  1  0  0  0  0
 14 60  1  0  0  0  0
 16 63  1  0  0  0  0
 17 64  1  0  0  0  0
 18 65  1  0  0  0  0
 19 66  1  0  0  0  0
 30 22  1  6  0  0  0
 22 38  1  0  0  0  0
 22 39  1  0  0  0  0
 23 39  2  0  0  0  0
 23 40  1  0  0  0  0
 24 38  2  0  0  0  0
 24 42  1  0  0  0  0
 25 41  1  0  0  0  0
 25 42  2  0  0  0  0
 26 41  1  0  0  0  0
 26 67  1  0  0  0  0
 26 68  1  0  0  0  0
 27 28  1  0  0  0  0
 27 29  1  0  0  0  0
 27 43  1  0  0  0  0
 28 30  1  0  0  0  0
 28 44  1  0  0  0  0
 29 36  1  6  0  0  0
 29 45  1  0  0  0  0
 30 46  1  0  0  0  0
 31 32  1  0  0  0  0
 31 47  1  0  0  0  0
 32 33  1  0  0  0  0
 32 48  1  0  0  0  0
 33 34  1  0  0  0  0
 33 49  1  0  0  0  0
 34 35  1  0  0  0  0
 34 50  1  0  0  0  0
 35 37  1  6  0  0  0
 35 51  1  0  0  0  0
 36 52  1  0  0  0  0
 36 53  1  0  0  0  0
 37 54  1  0  0  0  0
 37 55  1  0  0  0  0
 38 40  1  0  0  0  0
 39 57  1  0  0  0  0
 40 41  2  0  0  0  0
 42 62  1  0  0  0  0
M  END
> <PUBCHEM_COMPOUND_CID>
123695

> <PUBCHEM_COMPOUND_CANONICALIZED>
1

> <PUBCHEM_CACTVS_COMPLEXITY>
1080

> <PUBCHEM_CACTVS_HBOND_ACCEPTOR>
22

> <PUBCHEM_CACTVS_HBOND_DONOR>
10

> <PUBCHEM_CACTVS_ROTATABLE_BOND>
11

> <PUBCHEM_CACTVS_SUBSKEYS>
AAADceB7vgMAAAAAAAAAAAAAAAAAAWJAAAAsSAAAAAAAAFgB+AAAHgAQCCAACBzxlwcF+L9MFxCgQQZhZICAgC0REKABUCAoVBCTWAJAyEA+RAgPAALXACHwcA4AAAAAAAAAAAAAAAAAAAAAAAAAAAAAAA==

> <PUBCHEM_IUPAC_OPENEYE_NAME>
[(2R,3R,4R,5R)-2-(6-aminopurin-9-yl)-4-[(2R,3R,4R,5R,6R)-3-hydroxy-6-(hydroxymethyl)-4,5-diphosphonooxy-tetrahydropyran-2-yl]oxy-5-(hydroxymethyl)tetrahydrofuran-3-yl] dihydrogen phosphate

> <PUBCHEM_IUPAC_CAS_NAME>
[(2R,3R,4R,5R)-2-(6-aminopurin-9-yl)-4-[[(2R,3R,4R,5R,6R)-3-hydroxy-6-(hydroxymethyl)-4,5-diphosphonooxy-2-oxanyl]oxy]-5-(hydroxymethyl)-3-oxolanyl] dihydrogen phosphate

> <PUBCHEM_IUPAC_NAME>
[(2R,3R,4R,5R)-2-(6-aminopurin-9-yl)-4-[(2R,3R,4R,5R,6R)-3-hydroxy-6-(hydroxymethyl)-4,5-diphosphonooxyoxan-2-yl]oxy-5-(hydroxymethyl)oxolan-3-yl] dihydrogen phosphate

> <PUBCHEM_IUPAC_SYSTEMATIC_NAME>
[(2R,3R,4R,5R)-2-(6-aminopurin-9-yl)-5-(hydroxymethyl)-4-[(2R,3R,4R,5R,6R)-6-(hydroxymethyl)-3-oxidanyl-4,5-diphosphonooxy-oxan-2-yl]oxy-oxolan-3-yl] dihydrogen phosphate

> <PUBCHEM_IUPAC_TRADITIONAL_NAME>
[(2R,3R,4R,5R)-2-adenin-9-yl-4-[(2R,3R,4R,5R,6R)-3-hydroxy-6-methylol-4,5-diphosphonooxy-tetrahydropyran-2-yl]oxy-5-methylol-tetrahydrofuran-3-yl] dihydrogen phosphate

> <PUBCHEM_IUPAC_INCHI>
InChI=1S/C16H26N5O18P3/c17-13-7-14(19-3-18-13)21(4-20-7)15-12(39-42(31,32)33)9(5(1-22)34-15)36-16-8(24)11(38-41(28,29)30)10(6(2-23)35-16)37-40(25,26)27/h3-6,8-12,15-16,22-24H,1-2H2,(H2,17,18,19)(H2,25,26,27)(H2,28,29,30)(H2,31,32,33)/t5-,6-,8-,9-,10-,11-,12-,15-,16-/m1/s1

> <PUBCHEM_IUPAC_INCHIKEY>
RENVITLQVBEFDT-MZQFDOALSA-N

> <PUBCHEM_XLOGP3>
-7

> <PUBCHEM_EXACT_MASS>
669.048569

> <PUBCHEM_MOLECULAR_FORMULA>
C16H26N5O18P3

> <PUBCHEM_MOLECULAR_WEIGHT>
669.321626

> <PUBCHEM_OPENEYE_CAN_SMILES>
C1=NC2=C(C(=N1)N)N=CN2C3C(C(C(O3)CO)OC4C(C(C(C(O4)CO)OP(=O)(O)O)OP(=O)(O)O)O)OP(=O)(O)O

> <PUBCHEM_OPENEYE_ISO_SMILES>
C1=NC2=C(C(=N1)N)N=CN2[C@H]3[C@@H]([C@@H]([C@H](O3)CO)O[C@@H]4[C@@H]([C@H]([C@@H]([C@H](O4)CO)OP(=O)(O)O)OP(=O)(O)O)O)OP(=O)(O)O

> <PUBCHEM_CACTVS_TPSA>
358

> <PUBCHEM_MONOISOTOPIC_WEIGHT>
669.048569

> <PUBCHEM_TOTAL_CHARGE>
0

> <PUBCHEM_HEAVY_ATOM_COUNT>
42

> <PUBCHEM_ATOM_DEF_STEREO_COUNT>
9

> <PUBCHEM_ATOM_UDEF_STEREO_COUNT>
0

> <PUBCHEM_BOND_DEF_STEREO_COUNT>
0

> <PUBCHEM_BOND_UDEF_STEREO_COUNT>
0

> <PUBCHEM_ISOTOPIC_ATOM_COUNT>
0

> <PUBCHEM_COMPONENT_COUNT>
1

> <PUBCHEM_CACTVS_TAUTO_COUNT>
3

> <PUBCHEM_COORDINATE_TYPE>
1
5
255

> <PUBCHEM_BONDANNOTATIONS>
32  10  5
30  22  6
22  38  8
22  39  8
23  39  8
23  40  8
24  38  8
24  42  8
25  41  8
25  42  8
29  36  6
35  37  6
38  40  8
27  4  5
31  4  5
40  41  8
28  7  5
33  8  6
34  9  5

$$$$

