   Color/Form

     * PALE YELLOW CRYSTALS
     * COLORLESS OR YELLOWISH PLATES FROM ETHANOL

   from [1]HSDB

   Melting Point
        124 DEG C (DECOMP)
   from [2]HSDB

   Octanol/Water Partition Coefficient
        log Kow = -0.03
   from [3]HSDB

   Solubilities

     * SOL IN WATER (APPROX 1.4%) & POLAR ORGANIC SOLVENTS; INSOL IN
       NON-POLAR ORGANIC SOLVENTS
     * SOL IN ALCOHOL, ETHER, ACETONE, BENZENE, & CHLOROFORM
     * In water, 1.44X10+4 mg/l at 24 deg C.

   from [4]HSDB

   Spectral Properties

     * MAX ABSORPTION (WATER): 231 NM (E= 571, 1%, 1 CM)
     * IR: 6832 (Coblentz Society Spectral Collection)
     * MASS: 101 (National Bureau of Standards EPA-NIH Mass Spectra Data
       Base, NSRDS-NBS-63)

   from [5]HSDB

   Other Chemical/Physical Properties
        Decomposes to diazomethane in alkaline solutions; stability in
   aqueous solutions is pH dependent: pH 4.0, half-life 125 hours; pH 6.0,
   half-life 24 hours; pH 7.0, half-life 1.2 hours; pH 8.0, half-life 0.1
   hours; and pH 9, half-life 0.03 hours (at 20 deg C).
   from [6]HSDB

   Computed Properties
   Molecular Weight                  103.08 [g/mol]
   Molecular Formula                 C[2]H[5]N[3]O[2]
   XLogP3                            0
   H-Bond Donor                      1
   H-Bond Acceptor                   3
   Rotatable Bond Count              0
   Tautomer Count                    2
   Exact Mass                        103.038176
   MonoIsotopic Mass                 103.038176
   Topological Polar Surface Area    75.8
   Heavy Atom Count                  7
   Formal Charge                     0
   Complexity                        90.9
   Isotope Atom Count                0
   Defined Atom Stereocenter Count   0
   Undefined Atom Stereocenter Count 0
   Defined Bond Stereocenter Count   0
   Undefined Bond Stereocenter Count 0
   Covalently-Bonded Unit Count      1
   Feature 3D Acceptor Count         1
   Feature 3D Donor Count            1
   Effective Rotor Count             2
   Conformer Sampling RMSD           0.4
   CID Conformer Count               [7]9

References

   1. http://toxnet.nlm.nih.gov/cgi-bin/sis/search/r?dbs+hsdb:@term+@rn+@rel+684-93-5
   2. http://toxnet.nlm.nih.gov/cgi-bin/sis/search/r?dbs+hsdb:@term+@rn+@rel+684-93-5
   3. http://toxnet.nlm.nih.gov/cgi-bin/sis/search/r?dbs+hsdb:@term+@rn+@rel+684-93-5
   4. http://toxnet.nlm.nih.gov/cgi-bin/sis/search/r?dbs+hsdb:@term+@rn+@rel+684-93-5
   5. http://toxnet.nlm.nih.gov/cgi-bin/sis/search/r?dbs+hsdb:@term+@rn+@rel+684-93-5
   6. http://toxnet.nlm.nih.gov/cgi-bin/sis/search/r?dbs+hsdb:@term+@rn+@rel+684-93-5
   7. http://pubchem.ncbi.nlm.nih.gov/vw3d/vw3d.cgi?cid=12699
