10180
  -OEChem-07051213022D

 48 50  0     0  0  0  0  0  0999 V2000
    4.6660   -2.7649    0.0000 S   0  0  0  0  0  0  0  0  0  0  0  0
    4.6660    0.2351    0.0000 O   0  0  0  0  0  0  0  0  0  0  0  0
    8.1232    2.2896    0.0000 N   0  0  0  0  0  0  0  0  0  0  0  0
    6.4144    0.2697    0.0000 N   0  0  0  0  0  0  0  0  0  0  0  0
    7.2631    1.7796    0.0000 C   0  0  0  0  0  0  0  0  0  0  0  0
    7.2746    0.7797    0.0000 C   0  0  0  0  0  0  0  0  0  0  0  0
    6.4260   -0.7302    0.0000 C   0  0  0  0  0  0  0  0  0  0  0  0
    5.5321   -1.2649    0.0000 C   0  0  0  0  0  0  0  0  0  0  0  0
    8.1117    3.2895    0.0000 C   0  0  0  0  0  0  0  0  0  0  0  0
    8.9950    1.7996    0.0000 C   0  0  0  0  0  0  0  0  0  0  0  0
    5.5321   -2.2649    0.0000 C   0  0  0  0  0  0  0  0  0  0  0  0
    6.4260   -2.7996    0.0000 C   0  0  0  0  0  0  0  0  0  0  0  0
    4.6660   -0.7649    0.0000 C   0  0  0  0  0  0  0  0  0  0  0  0
    7.3321   -1.2441    0.0000 C   0  0  0  0  0  0  0  0  0  0  0  0
    3.8000   -1.2649    0.0000 C   0  0  0  0  0  0  0  0  0  0  0  0
    7.3321   -2.2857    0.0000 C   0  0  0  0  0  0  0  0  0  0  0  0
    3.8000   -2.2649    0.0000 C   0  0  0  0  0  0  0  0  0  0  0  0
    9.8552    2.3096    0.0000 C   0  0  0  0  0  0  0  0  0  0  0  0
    8.9719    3.7995    0.0000 C   0  0  0  0  0  0  0  0  0  0  0  0
    6.4144   -3.7995    0.0000 C   0  0  0  0  0  0  0  0  0  0  0  0
    2.9061   -0.7302    0.0000 C   0  0  0  0  0  0  0  0  0  0  0  0
    2.9061   -2.7996    0.0000 C   0  0  0  0  0  0  0  0  0  0  0  0
    2.0000   -1.2441    0.0000 C   0  0  0  0  0  0  0  0  0  0  0  0
    2.0000   -2.2857    0.0000 C   0  0  0  0  0  0  0  0  0  0  0  0
    7.0443    2.3597    0.0000 H   0  0  0  0  0  0  0  0  0  0  0  0
    6.6538    1.6649    0.0000 H   0  0  0  0  0  0  0  0  0  0  0  0
    7.4934    0.1996    0.0000 H   0  0  0  0  0  0  0  0  0  0  0  0
    7.8839    0.8944    0.0000 H   0  0  0  0  0  0  0  0  0  0  0  0
    5.8740    0.5735    0.0000 H   0  0  0  0  0  0  0  0  0  0  0  0
    7.8929    3.8696    0.0000 H   0  0  0  0  0  0  0  0  0  0  0  0
    7.5024    3.1748    0.0000 H   0  0  0  0  0  0  0  0  0  0  0  0
    8.6020    1.3201    0.0000 H   0  0  0  0  0  0  0  0  0  0  0  0
    9.3990    1.3293    0.0000 H   0  0  0  0  0  0  0  0  0  0  0  0
    7.8678   -0.9320    0.0000 H   0  0  0  0  0  0  0  0  0  0  0  0
    7.8678   -2.5978    0.0000 H   0  0  0  0  0  0  0  0  0  0  0  0
   10.1714    1.7763    0.0000 H   0  0  0  0  0  0  0  0  0  0  0  0
    9.2881    3.2662    0.0000 H   0  0  0  0  0  0  0  0  0  0  0  0
    9.5052    4.1157    0.0000 H   0  0  0  0  0  0  0  0  0  0  0  0
    8.6557    4.3328    0.0000 H   0  0  0  0  0  0  0  0  0  0  0  0
   10.3885    2.6258    0.0000 H   0  0  0  0  0  0  0  0  0  0  0  0
    9.5390    2.8429    0.0000 H   0  0  0  0  0  0  0  0  0  0  0  0
    5.7945   -3.7923    0.0000 H   0  0  0  0  0  0  0  0  0  0  0  0
    6.4073   -4.4195    0.0000 H   0  0  0  0  0  0  0  0  0  0  0  0
    7.0344   -3.8067    0.0000 H   0  0  0  0  0  0  0  0  0  0  0  0
    2.9132   -0.1103    0.0000 H   0  0  0  0  0  0  0  0  0  0  0  0
    2.9132   -3.4195    0.0000 H   0  0  0  0  0  0  0  0  0  0  0  0
    1.4643   -0.9320    0.0000 H   0  0  0  0  0  0  0  0  0  0  0  0
    1.4643   -2.5978    0.0000 H   0  0  0  0  0  0  0  0  0  0  0  0
  1 11  1  0  0  0  0
  1 17  1  0  0  0  0
  2 13  2  0  0  0  0
  3  5  1  0  0  0  0
  3  9  1  0  0  0  0
  3 10  1  0  0  0  0
  4  6  1  0  0  0  0
  4  7  1  0  0  0  0
  4 29  1  0  0  0  0
  5  6  1  0  0  0  0
  5 25  1  0  0  0  0
  5 26  1  0  0  0  0
  6 27  1  0  0  0  0
  6 28  1  0  0  0  0
  7  8  2  0  0  0  0
  7 14  1  0  0  0  0
  8 11  1  0  0  0  0
  8 13  1  0  0  0  0
  9 19  1  0  0  0  0
  9 30  1  0  0  0  0
  9 31  1  0  0  0  0
 10 18  1  0  0  0  0
 10 32  1  0  0  0  0
 10 33  1  0  0  0  0
 11 12  2  0  0  0  0
 12 16  1  0  0  0  0
 12 20  1  0  0  0  0
 13 15  1  0  0  0  0
 14 16  2  0  0  0  0
 14 34  1  0  0  0  0
 15 17  1  0  0  0  0
 15 21  2  0  0  0  0
 16 35  1  0  0  0  0
 17 22  2  0  0  0  0
 18 36  1  0  0  0  0
 18 40  1  0  0  0  0
 18 41  1  0  0  0  0
 19 37  1  0  0  0  0
 19 38  1  0  0  0  0
 19 39  1  0  0  0  0
 20 42  1  0  0  0  0
 20 43  1  0  0  0  0
 20 44  1  0  0  0  0
 21 23  1  0  0  0  0
 21 45  1  0  0  0  0
 22 24  1  0  0  0  0
 22 46  1  0  0  0  0
 23 24  2  0  0  0  0
 23 47  1  0  0  0  0
 24 48  1  0  0  0  0
M  END
> <PUBCHEM_COMPOUND_CID>
10180

> <PUBCHEM_COMPOUND_CANONICALIZED>
1

> <PUBCHEM_CACTVS_COMPLEXITY>
426

> <PUBCHEM_CACTVS_HBOND_ACCEPTOR>
4

> <PUBCHEM_CACTVS_HBOND_DONOR>
1

> <PUBCHEM_CACTVS_ROTATABLE_BOND>
6

> <PUBCHEM_CACTVS_SUBSKEYS>
AAADceB7IABAAAAAAAAAAAAAAAAAAAAAAAA0YIAAAAAAAACRQAAAHgQQAAAADAzB2AQywYPAAAiIAqRSQACCAAAlChAIiJkIZMgIYDrglZGUIYxgkADoyccYiMCOCAACACAGAAAQAAQAQAwAAAAAAAAAAA==

> <PUBCHEM_IUPAC_OPENEYE_NAME>
1-[2-(diethylamino)ethylamino]-4-methyl-thioxanthen-9-one

> <PUBCHEM_IUPAC_CAS_NAME>
1-[2-(diethylamino)ethylamino]-4-methyl-9-thioxanthenone

> <PUBCHEM_IUPAC_NAME>
1-[2-(diethylamino)ethylamino]-4-methylthioxanthen-9-one

> <PUBCHEM_IUPAC_SYSTEMATIC_NAME>
1-[2-(diethylamino)ethylamino]-4-methyl-thioxanthen-9-one

> <PUBCHEM_IUPAC_TRADITIONAL_NAME>
1-[2-(diethylamino)ethylamino]-4-methyl-thioxanthen-9-one

> <PUBCHEM_IUPAC_INCHI>
InChI=1S/C20H24N2OS/c1-4-22(5-2)13-12-21-16-11-10-14(3)20-18(16)19(23)15-8-6-7-9-17(15)24-20/h6-11,21H,4-5,12-13H2,1-3H3

> <PUBCHEM_IUPAC_INCHIKEY>
FBQPGGIHOFZRGH-UHFFFAOYSA-N

> <PUBCHEM_XLOGP3>
4

> <PUBCHEM_EXACT_MASS>
340.160934

> <PUBCHEM_MOLECULAR_FORMULA>
C20H24N2OS

> <PUBCHEM_MOLECULAR_WEIGHT>
340.48236

> <PUBCHEM_OPENEYE_CAN_SMILES>
CCN(CC)CCNC1=C2C(=C(C=C1)C)SC3=CC=CC=C3C2=O

> <PUBCHEM_OPENEYE_ISO_SMILES>
CCN(CC)CCNC1=C2C(=C(C=C1)C)SC3=CC=CC=C3C2=O

> <PUBCHEM_CACTVS_TPSA>
57.6

> <PUBCHEM_MONOISOTOPIC_WEIGHT>
340.160934

> <PUBCHEM_TOTAL_CHARGE>
0

> <PUBCHEM_HEAVY_ATOM_COUNT>
24

> <PUBCHEM_ATOM_DEF_STEREO_COUNT>
0

> <PUBCHEM_ATOM_UDEF_STEREO_COUNT>
0

> <PUBCHEM_BOND_DEF_STEREO_COUNT>
0

> <PUBCHEM_BOND_UDEF_STEREO_COUNT>
0

> <PUBCHEM_ISOTOPIC_ATOM_COUNT>
0

> <PUBCHEM_COMPONENT_COUNT>
1

> <PUBCHEM_CACTVS_TAUTO_COUNT>
5

> <PUBCHEM_COORDINATE_TYPE>
1
5
255

> <PUBCHEM_BONDANNOTATIONS>
1  11  8
1  17  8
11  12  8
12  16  8
13  15  8
14  16  8
15  17  8
15  21  8
17  22  8
21  23  8
22  24  8
23  24  8
7  14  8
7  8  8
8  11  8
8  13  8

$$$$

