   Color/Form

     * Pale yellow solid.
     * Light yellow crystals

   from [1]HSDB

   Boiling Point
        202 to 208 deg C at 1 mm Hg
   from [2]HSDB

   Melting Point
        63 to 68 deg C
   from [3]HSDB

   Octanol/Water Partition Coefficient
        log Kow = 2.94
   from [4]HSDB

   Solubilities

     * Soluble in common organic solvents, e.g. ketones, esters, alcohols
       and aromatic hydrocarbons, all 50 to 100 g/L. Insoluble in
       aliphatic hydrocarbons.
     * Soluble in ethanol, benzene, ethyl acetate, and acetone.
     * In water, 142 mg/L at 25 deg C

   from [5]HSDB

   Vapor Pressure
        1.6X10-6 mm Hg at 25 deg C
   from [6]HSDB

   Other Chemical/Physical Properties

     * Stable under normal storage conditions. Aqueous solutions decompose
       on exposure to light, with a half-life of about 222 days (sterile
       water), 0.8 days (sensitized sterile water), 25 days (pond water);
       no hydrolysis in 28 days at 28 deg C, pHs 5,7, and 9.
     * Henry's Law constant = 4.28X10-9 atm-cu m/mole at 25 deg C (est)
     * Hydroxyl radical reaction rate constant = 7.04X10-13 cu
       cm/molec-sec at 25 deg C (est)

   from [7]HSDB

   Computed Properties
   Molecular Weight                  288.77528 [g/mol]
   Molecular Formula                 C[15]H[17]ClN[4]
   XLogP3                            2.9
   H-Bond Donor                      0
   H-Bond Acceptor                   3
   Rotatable Bond Count              6
   Exact Mass                        288.114174
   MonoIsotopic Mass                 288.114174
   Topological Polar Surface Area    54.5
   Heavy Atom Count                  20
   Formal Charge                     0
   Complexity                        345
   Isotope Atom Count                0
   Defined Atom Stereocenter Count   0
   Undefined Atom Stereocenter Count 1
   Defined Bond Stereocenter Count   0
   Undefined Bond Stereocenter Count 0
   Covalently-Bonded Unit Count      1
   Feature 3D Acceptor Count         1
   Feature 3D Cation Count           2
   Feature 3D Hydrophobe Count       2
   Feature 3D Ring Count             2
   Effective Rotor Count             6
   Conformer Sampling RMSD           0.8
   CID Conformer Count               [8]47

References

   1. http://toxnet.nlm.nih.gov/cgi-bin/sis/search/r?dbs+hsdb:@term+@rn+@rel+88671-89-0
   2. http://toxnet.nlm.nih.gov/cgi-bin/sis/search/r?dbs+hsdb:@term+@rn+@rel+88671-89-0
   3. http://toxnet.nlm.nih.gov/cgi-bin/sis/search/r?dbs+hsdb:@term+@rn+@rel+88671-89-0
   4. http://toxnet.nlm.nih.gov/cgi-bin/sis/search/r?dbs+hsdb:@term+@rn+@rel+88671-89-0
   5. http://toxnet.nlm.nih.gov/cgi-bin/sis/search/r?dbs+hsdb:@term+@rn+@rel+88671-89-0
   6. http://toxnet.nlm.nih.gov/cgi-bin/sis/search/r?dbs+hsdb:@term+@rn+@rel+88671-89-0
   7. http://toxnet.nlm.nih.gov/cgi-bin/sis/search/r?dbs+hsdb:@term+@rn+@rel+88671-89-0
   8. http://pubchem.ncbi.nlm.nih.gov/vw3d/vw3d.cgi?cid=6336
