443773
  -OEChem-07051213032D

 55 58  0     1  0  0  0  0  0999 V2000
    8.1060   -0.7846    0.0000 O   0  0  0  0  0  0  0  0  0  0  0  0
    3.7759   -1.2846    0.0000 O   0  0  0  0  0  0  0  0  0  0  0  0
    2.8718    0.2122    0.0000 O   0  0  0  0  0  0  0  0  0  0  0  0
   10.7721    0.6946    0.0000 N   0  0  0  0  0  0  0  0  0  0  0  0
   10.7721    1.7362    0.0000 C   0  0  1  0  0  0  0  0  0  0  0  0
    9.8660    0.1807    0.0000 C   0  0  1  0  0  0  0  0  0  0  0  0
    9.8660    2.2500    0.0000 C   0  0  0  0  0  0  0  0  0  0  0  0
    8.9721    0.7154    0.0000 C   0  0  0  0  0  0  0  0  0  0  0  0
    8.9721    1.7154    0.0000 C   0  0  0  0  0  0  0  0  0  0  0  0
    8.1060    0.2154    0.0000 C   0  0  0  0  0  0  0  0  0  0  0  0
    7.2400    0.7154    0.0000 C   0  0  0  0  0  0  0  0  0  0  0  0
   11.6362    2.2395    0.0000 C   0  0  0  0  0  0  0  0  0  0  0  0
    9.8544   -0.8192    0.0000 C   0  0  0  0  0  0  0  0  0  0  0  0
    8.1060    2.2154    0.0000 C   0  0  0  0  0  0  0  0  0  0  0  0
    7.2400    1.7154    0.0000 C   0  0  0  0  0  0  0  0  0  0  0  0
    6.3740    0.2154    0.0000 C   0  0  0  0  0  0  0  0  0  0  0  0
    5.5080    0.7154    0.0000 C   0  0  0  0  0  0  0  0  0  0  0  0
    6.3740   -0.7846    0.0000 C   0  0  0  0  0  0  0  0  0  0  0  0
    4.6419    0.2154    0.0000 C   0  0  0  0  0  0  0  0  0  0  0  0
    5.5080   -1.2846    0.0000 C   0  0  0  0  0  0  0  0  0  0  0  0
    4.6419   -0.7846    0.0000 C   0  0  0  0  0  0  0  0  0  0  0  0
    5.5240    1.7569    0.0000 C   0  0  0  0  0  0  0  0  0  0  0  0
    7.2400   -1.2846    0.0000 C   0  0  0  0  0  0  0  0  0  0  0  0
    3.7319    0.7222    0.0000 C   0  0  0  0  0  0  0  0  0  0  0  0
    4.6260    2.2846    0.0000 C   0  0  0  0  0  0  0  0  0  0  0  0
    3.7239    1.7638    0.0000 C   0  0  0  0  0  0  0  0  0  0  0  0
    3.7759   -2.2846    0.0000 C   0  0  0  0  0  0  0  0  0  0  0  0
    2.0000    0.7022    0.0000 C   0  0  0  0  0  0  0  0  0  0  0  0
   11.3096    1.4272    0.0000 H   0  0  0  0  0  0  0  0  0  0  0  0
   10.3999   -0.1345    0.0000 H   0  0  0  0  0  0  0  0  0  0  0  0
   10.2596    2.7290    0.0000 H   0  0  0  0  0  0  0  0  0  0  0  0
    9.4614    2.7198    0.0000 H   0  0  0  0  0  0  0  0  0  0  0  0
   11.3078    0.3825    0.0000 H   0  0  0  0  0  0  0  0  0  0  0  0
   11.9482    1.7038    0.0000 H   0  0  0  0  0  0  0  0  0  0  0  0
   12.1719    2.5516    0.0000 H   0  0  0  0  0  0  0  0  0  0  0  0
   11.3241    2.7753    0.0000 H   0  0  0  0  0  0  0  0  0  0  0  0
    9.2345   -0.8121    0.0000 H   0  0  0  0  0  0  0  0  0  0  0  0
    9.8473   -1.4392    0.0000 H   0  0  0  0  0  0  0  0  0  0  0  0
   10.4744   -0.8264    0.0000 H   0  0  0  0  0  0  0  0  0  0  0  0
    8.1060    2.8354    0.0000 H   0  0  0  0  0  0  0  0  0  0  0  0
    6.7031    2.0254    0.0000 H   0  0  0  0  0  0  0  0  0  0  0  0
    8.6430   -1.0946    0.0000 H   0  0  0  0  0  0  0  0  0  0  0  0
    5.5080   -1.9046    0.0000 H   0  0  0  0  0  0  0  0  0  0  0  0
    6.0645    2.0606    0.0000 H   0  0  0  0  0  0  0  0  0  0  0  0
    6.9300   -1.8216    0.0000 H   0  0  0  0  0  0  0  0  0  0  0  0
    7.7770   -1.5946    0.0000 H   0  0  0  0  0  0  0  0  0  0  0  0
    7.5500   -0.7477    0.0000 H   0  0  0  0  0  0  0  0  0  0  0  0
    4.6284    2.9046    0.0000 H   0  0  0  0  0  0  0  0  0  0  0  0
    3.1858    2.0717    0.0000 H   0  0  0  0  0  0  0  0  0  0  0  0
    3.1559   -2.2846    0.0000 H   0  0  0  0  0  0  0  0  0  0  0  0
    3.7759   -2.9046    0.0000 H   0  0  0  0  0  0  0  0  0  0  0  0
    4.3959   -2.2846    0.0000 H   0  0  0  0  0  0  0  0  0  0  0  0
    2.3038    1.2427    0.0000 H   0  0  0  0  0  0  0  0  0  0  0  0
    1.4595    1.0060    0.0000 H   0  0  0  0  0  0  0  0  0  0  0  0
    1.6962    0.1617    0.0000 H   0  0  0  0  0  0  0  0  0  0  0  0
  1 10  1  0  0  0  0
  1 42  1  0  0  0  0
  2 21  1  0  0  0  0
  2 27  1  0  0  0  0
  3 24  1  0  0  0  0
  3 28  1  0  0  0  0
  4  5  1  0  0  0  0
  4  6  1  0  0  0  0
  4 33  1  0  0  0  0
  5  7  1  0  0  0  0
  5 12  1  1  0  0  0
  5 29  1  0  0  0  0
  6  8  1  0  0  0  0
  6 13  1  6  0  0  0
  6 30  1  0  0  0  0
  7  9  1  0  0  0  0
  7 31  1  0  0  0  0
  7 32  1  0  0  0  0
  8  9  2  0  0  0  0
  8 10  1  0  0  0  0
  9 14  1  0  0  0  0
 10 11  2  0  0  0  0
 11 15  1  0  0  0  0
 11 16  1  0  0  0  0
 12 34  1  0  0  0  0
 12 35  1  0  0  0  0
 12 36  1  0  0  0  0
 13 37  1  0  0  0  0
 13 38  1  0  0  0  0
 13 39  1  0  0  0  0
 14 15  2  0  0  0  0
 14 40  1  0  0  0  0
 15 41  1  0  0  0  0
 16 17  2  0  0  0  0
 16 18  1  0  0  0  0
 17 19  1  0  0  0  0
 17 22  1  0  0  0  0
 18 20  2  0  0  0  0
 18 23  1  0  0  0  0
 19 21  2  0  0  0  0
 19 24  1  0  0  0  0
 20 21  1  0  0  0  0
 20 43  1  0  0  0  0
 22 25  2  0  0  0  0
 22 44  1  0  0  0  0
 23 45  1  0  0  0  0
 23 46  1  0  0  0  0
 23 47  1  0  0  0  0
 24 26  2  0  0  0  0
 25 26  1  0  0  0  0
 25 48  1  0  0  0  0
 26 49  1  0  0  0  0
 27 50  1  0  0  0  0
 27 51  1  0  0  0  0
 27 52  1  0  0  0  0
 28 53  1  0  0  0  0
 28 54  1  0  0  0  0
 28 55  1  0  0  0  0
M  END
> <PUBCHEM_COMPOUND_CID>
443773

> <PUBCHEM_COMPOUND_CANONICALIZED>
1

> <PUBCHEM_CACTVS_COMPLEXITY>
528

> <PUBCHEM_CACTVS_HBOND_ACCEPTOR>
4

> <PUBCHEM_CACTVS_HBOND_DONOR>
2

> <PUBCHEM_CACTVS_ROTATABLE_BOND>
3

> <PUBCHEM_CACTVS_SUBSKEYS>
AAADceB6MAAAAAAAAAAAAAAAAAAAAAAAAAA8YMEAAAAAAADxVAAAHgAQCAAADCzBmAYyBsLABgCAAiBCAACCCAAgIAAIiIAODIgMJyKGsRuEcChn0BWIuAeQ0PMO4AADAAAYAADAAAYAADAAAAAAAAAAAA==

> <PUBCHEM_IUPAC_OPENEYE_NAME>
(1R,3R)-7-(4,5-dimethoxy-2-methyl-1-naphthyl)-1,3-dimethyl-1,2,3,4-tetrahydroisoquinolin-8-ol

> <PUBCHEM_IUPAC_CAS_NAME>
(1R,3R)-7-(4,5-dimethoxy-2-methyl-1-naphthalenyl)-1,3-dimethyl-1,2,3,4-tetrahydroisoquinolin-8-ol

> <PUBCHEM_IUPAC_NAME>
(1R,3R)-7-(4,5-dimethoxy-2-methylnaphthalen-1-yl)-1,3-dimethyl-1,2,3,4-tetrahydroisoquinolin-8-ol

> <PUBCHEM_IUPAC_SYSTEMATIC_NAME>
(1R,3R)-7-(4,5-dimethoxy-2-methyl-naphthalen-1-yl)-1,3-dimethyl-1,2,3,4-tetrahydroisoquinolin-8-ol

> <PUBCHEM_IUPAC_TRADITIONAL_NAME>
(1R,3R)-7-(4,5-dimethoxy-2-methyl-1-naphthyl)-1,3-dimethyl-1,2,3,4-tetrahydroisoquinolin-8-ol

> <PUBCHEM_IUPAC_INCHI>
InChI=1S/C24H27NO3/c1-13-11-20(28-5)23-17(7-6-8-19(23)27-4)21(13)18-10-9-16-12-14(2)25-15(3)22(16)24(18)26/h6-11,14-15,25-26H,12H2,1-5H3/t14-,15-/m1/s1

> <PUBCHEM_IUPAC_INCHIKEY>
MXIZZLBQRBAZEX-HUUCEWRRSA-N

> <PUBCHEM_XLOGP3_AA>
5

> <PUBCHEM_EXACT_MASS>
377.199094

> <PUBCHEM_MOLECULAR_FORMULA>
C24H27NO3

> <PUBCHEM_MOLECULAR_WEIGHT>
377.47608

> <PUBCHEM_OPENEYE_CAN_SMILES>
CC1CC2=C(C(N1)C)C(=C(C=C2)C3=C4C=CC=C(C4=C(C=C3C)OC)OC)O

> <PUBCHEM_OPENEYE_ISO_SMILES>
C[C@@H]1CC2=C([C@H](N1)C)C(=C(C=C2)C3=C4C=CC=C(C4=C(C=C3C)OC)OC)O

> <PUBCHEM_CACTVS_TPSA>
50.7

> <PUBCHEM_MONOISOTOPIC_WEIGHT>
377.199094

> <PUBCHEM_TOTAL_CHARGE>
0

> <PUBCHEM_HEAVY_ATOM_COUNT>
28

> <PUBCHEM_ATOM_DEF_STEREO_COUNT>
2

> <PUBCHEM_ATOM_UDEF_STEREO_COUNT>
0

> <PUBCHEM_BOND_DEF_STEREO_COUNT>
0

> <PUBCHEM_BOND_UDEF_STEREO_COUNT>
0

> <PUBCHEM_ISOTOPIC_ATOM_COUNT>
0

> <PUBCHEM_COMPONENT_COUNT>
1

> <PUBCHEM_CACTVS_TAUTO_COUNT>
9

> <PUBCHEM_COORDINATE_TYPE>
1
5
255

> <PUBCHEM_BONDANNOTATIONS>
10  11  8
11  15  8
14  15  8
16  17  8
16  18  8
17  19  8
17  22  8
18  20  8
19  21  8
19  24  8
20  21  8
22  25  8
24  26  8
25  26  8
5  12  5
6  13  6
8  10  8
8  9  8
9  14  8

$$$$

