5282105
  -OEChem-07051213032D

 73 73  0     0  0  0  0  0  0999 V2000
    6.0010   -1.3450    0.0000 O   0  0  0  0  0  0  0  0  0  0  0  0
    4.2690    4.6550    0.0000 O   0  0  0  0  0  0  0  0  0  0  0  0
    2.5369    3.6550    0.0000 O   0  0  0  0  0  0  0  0  0  0  0  0
    6.8671    0.1550    0.0000 N   0  0  0  0  0  0  0  0  0  0  0  0
    9.4651    0.6550    0.0000 C   0  0  0  0  0  0  0  0  0  0  0  0
    9.4651    1.6550    0.0000 C   0  0  0  0  0  0  0  0  0  0  0  0
   10.3312    0.1550    0.0000 C   0  0  0  0  0  0  0  0  0  0  0  0
    8.5991    2.1550    0.0000 C   0  0  0  0  0  0  0  0  0  0  0  0
    7.7331   -2.3450    0.0000 C   0  0  0  0  0  0  0  0  0  0  0  0
    7.7331   -1.3450    0.0000 C   0  0  0  0  0  0  0  0  0  0  0  0
    6.0010    0.6550    0.0000 C   0  0  0  0  0  0  0  0  0  0  0  0
    6.0010    1.6550    0.0000 C   0  0  0  0  0  0  0  0  0  0  0  0
    8.5991   -2.8450    0.0000 C   0  0  0  0  0  0  0  0  0  0  0  0
    6.8671   -0.8450    0.0000 C   0  0  0  0  0  0  0  0  0  0  0  0
    5.1350    2.1550    0.0000 C   0  0  0  0  0  0  0  0  0  0  0  0
    8.5991    3.1550    0.0000 C   0  0  0  0  0  0  0  0  0  0  0  0
   11.1972    0.6550    0.0000 C   0  0  0  0  0  0  0  0  0  0  0  0
    8.5991   -3.8450    0.0000 C   0  0  0  0  0  0  0  0  0  0  0  0
   12.0632    0.1550    0.0000 C   0  0  0  0  0  0  0  0  0  0  0  0
    5.1350    3.1550    0.0000 C   0  0  0  0  0  0  0  0  0  0  0  0
    4.2690    1.6550    0.0000 C   0  0  0  0  0  0  0  0  0  0  0  0
   12.0632   -0.8450    0.0000 C   0  0  0  0  0  0  0  0  0  0  0  0
    9.4651   -4.3450    0.0000 C   0  0  0  0  0  0  0  0  0  0  0  0
   10.3312   -3.8450    0.0000 C   0  0  0  0  0  0  0  0  0  0  0  0
    4.2690    3.6550    0.0000 C   0  0  0  0  0  0  0  0  0  0  0  0
    3.4030    2.1550    0.0000 C   0  0  0  0  0  0  0  0  0  0  0  0
    3.4030    3.1550    0.0000 C   0  0  0  0  0  0  0  0  0  0  0  0
   12.9292   -1.3450    0.0000 C   0  0  0  0  0  0  0  0  0  0  0  0
   12.0632   -2.8450    0.0000 C   0  0  0  0  0  0  0  0  0  0  0  0
   11.1972   -4.3450    0.0000 C   0  0  0  0  0  0  0  0  0  0  0  0
   12.9292   -2.3450    0.0000 C   0  0  0  0  0  0  0  0  0  0  0  0
   12.0632   -3.8450    0.0000 C   0  0  0  0  0  0  0  0  0  0  0  0
    8.8546    0.7627    0.0000 H   0  0  0  0  0  0  0  0  0  0  0  0
    9.2531    0.0724    0.0000 H   0  0  0  0  0  0  0  0  0  0  0  0
   10.0757    1.5473    0.0000 H   0  0  0  0  0  0  0  0  0  0  0  0
    9.6772    2.2376    0.0000 H   0  0  0  0  0  0  0  0  0  0  0  0
    9.9326   -0.3199    0.0000 H   0  0  0  0  0  0  0  0  0  0  0  0
   10.7297   -0.3199    0.0000 H   0  0  0  0  0  0  0  0  0  0  0  0
    7.9885    2.2627    0.0000 H   0  0  0  0  0  0  0  0  0  0  0  0
    8.3871    1.5724    0.0000 H   0  0  0  0  0  0  0  0  0  0  0  0
    7.1225   -2.2373    0.0000 H   0  0  0  0  0  0  0  0  0  0  0  0
    7.5210   -2.9276    0.0000 H   0  0  0  0  0  0  0  0  0  0  0  0
    8.3437   -1.4527    0.0000 H   0  0  0  0  0  0  0  0  0  0  0  0
    7.9451   -0.7624    0.0000 H   0  0  0  0  0  0  0  0  0  0  0  0
    5.3905    0.7627    0.0000 H   0  0  0  0  0  0  0  0  0  0  0  0
    5.7890    0.0724    0.0000 H   0  0  0  0  0  0  0  0  0  0  0  0
    6.6116    1.5473    0.0000 H   0  0  0  0  0  0  0  0  0  0  0  0
    6.2131    2.2376    0.0000 H   0  0  0  0  0  0  0  0  0  0  0  0
    9.2097   -2.9527    0.0000 H   0  0  0  0  0  0  0  0  0  0  0  0
    8.8112   -2.2624    0.0000 H   0  0  0  0  0  0  0  0  0  0  0  0
    7.4040    0.4650    0.0000 H   0  0  0  0  0  0  0  0  0  0  0  0
    9.2191    3.1550    0.0000 H   0  0  0  0  0  0  0  0  0  0  0  0
    8.5991    3.7750    0.0000 H   0  0  0  0  0  0  0  0  0  0  0  0
    7.9791    3.1550    0.0000 H   0  0  0  0  0  0  0  0  0  0  0  0
   11.1972    1.2750    0.0000 H   0  0  0  0  0  0  0  0  0  0  0  0
    8.0622   -4.1550    0.0000 H   0  0  0  0  0  0  0  0  0  0  0  0
   12.6002    0.4650    0.0000 H   0  0  0  0  0  0  0  0  0  0  0  0
    5.6720    3.4650    0.0000 H   0  0  0  0  0  0  0  0  0  0  0  0
    4.2690    1.0350    0.0000 H   0  0  0  0  0  0  0  0  0  0  0  0
   11.4526   -0.7373    0.0000 H   0  0  0  0  0  0  0  0  0  0  0  0
   11.8512   -1.4276    0.0000 H   0  0  0  0  0  0  0  0  0  0  0  0
    9.4651   -4.9650    0.0000 H   0  0  0  0  0  0  0  0  0  0  0  0
   10.7297   -3.3700    0.0000 H   0  0  0  0  0  0  0  0  0  0  0  0
    9.9326   -3.3700    0.0000 H   0  0  0  0  0  0  0  0  0  0  0  0
    2.8660    1.8450    0.0000 H   0  0  0  0  0  0  0  0  0  0  0  0
   13.4662   -1.0350    0.0000 H   0  0  0  0  0  0  0  0  0  0  0  0
   11.8512   -2.2624    0.0000 H   0  0  0  0  0  0  0  0  0  0  0  0
   11.4526   -2.9527    0.0000 H   0  0  0  0  0  0  0  0  0  0  0  0
   11.1972   -4.9650    0.0000 H   0  0  0  0  0  0  0  0  0  0  0  0
   13.4662   -2.6550    0.0000 H   0  0  0  0  0  0  0  0  0  0  0  0
   12.6002   -4.1550    0.0000 H   0  0  0  0  0  0  0  0  0  0  0  0
    4.8059    4.9650    0.0000 H   0  0  0  0  0  0  0  0  0  0  0  0
    2.0000    3.3450    0.0000 H   0  0  0  0  0  0  0  0  0  0  0  0
  1 14  2  0  0  0  0
  2 25  1  0  0  0  0
  2 72  1  0  0  0  0
  3 27  1  0  0  0  0
  3 73  1  0  0  0  0
  4 11  1  0  0  0  0
  4 14  1  0  0  0  0
  4 51  1  0  0  0  0
  5  6  1  0  0  0  0
  5  7  1  0  0  0  0
  5 33  1  0  0  0  0
  5 34  1  0  0  0  0
  6  8  1  0  0  0  0
  6 35  1  0  0  0  0
  6 36  1  0  0  0  0
  7 17  1  0  0  0  0
  7 37  1  0  0  0  0
  7 38  1  0  0  0  0
  8 16  1  0  0  0  0
  8 39  1  0  0  0  0
  8 40  1  0  0  0  0
  9 10  1  0  0  0  0
  9 13  1  0  0  0  0
  9 41  1  0  0  0  0
  9 42  1  0  0  0  0
 10 14  1  0  0  0  0
 10 43  1  0  0  0  0
 10 44  1  0  0  0  0
 11 12  1  0  0  0  0
 11 45  1  0  0  0  0
 11 46  1  0  0  0  0
 12 15  1  0  0  0  0
 12 47  1  0  0  0  0
 12 48  1  0  0  0  0
 13 18  1  0  0  0  0
 13 49  1  0  0  0  0
 13 50  1  0  0  0  0
 15 20  2  0  0  0  0
 15 21  1  0  0  0  0
 16 52  1  0  0  0  0
 16 53  1  0  0  0  0
 16 54  1  0  0  0  0
 17 19  2  0  0  0  0
 17 55  1  0  0  0  0
 18 23  2  0  0  0  0
 18 56  1  0  0  0  0
 19 22  1  0  0  0  0
 19 57  1  0  0  0  0
 20 25  1  0  0  0  0
 20 58  1  0  0  0  0
 21 26  2  0  0  0  0
 21 59  1  0  0  0  0
 22 28  1  0  0  0  0
 22 60  1  0  0  0  0
 22 61  1  0  0  0  0
 23 24  1  0  0  0  0
 23 62  1  0  0  0  0
 24 30  1  0  0  0  0
 24 63  1  0  0  0  0
 24 64  1  0  0  0  0
 25 27  2  0  0  0  0
 26 27  1  0  0  0  0
 26 65  1  0  0  0  0
 28 31  2  0  0  0  0
 28 66  1  0  0  0  0
 29 31  1  0  0  0  0
 29 32  1  0  0  0  0
 29 67  1  0  0  0  0
 29 68  1  0  0  0  0
 30 32  2  0  0  0  0
 30 69  1  0  0  0  0
 31 70  1  0  0  0  0
 32 71  1  0  0  0  0
M  END
> <PUBCHEM_COMPOUND_CID>
5282105

> <PUBCHEM_COMPOUND_CANONICALIZED>
1

> <PUBCHEM_CACTVS_COMPLEXITY>
579

> <PUBCHEM_CACTVS_HBOND_ACCEPTOR>
3

> <PUBCHEM_CACTVS_HBOND_DONOR>
3

> <PUBCHEM_CACTVS_ROTATABLE_BOND>
17

> <PUBCHEM_CACTVS_SUBSKEYS>
AAADcfB6MAAAAAAAAAAAAAAAAAAAAAAAAAAwAAAAAAAAAAABAAAAHgAQCAAADATBmAQyBoLAAgCIAiFSEAACAAAgIAAIiIEOiIgJJjKCkROEcAEk1hGJmAeY0LIOIAABAAAAQABAAAIAAACAAAAAAAAAAA==

> <PUBCHEM_IUPAC_OPENEYE_NAME>
(5Z,8Z,11Z,14Z)-N-[2-(3,4-dihydroxyphenyl)ethyl]icosa-5,8,11,14-tetraenamide

> <PUBCHEM_IUPAC_CAS_NAME>
(5Z,8Z,11Z,14Z)-N-[2-(3,4-dihydroxyphenyl)ethyl]eicosa-5,8,11,14-tetraenamide

> <PUBCHEM_IUPAC_NAME>
(5Z,8Z,11Z,14Z)-N-[2-(3,4-dihydroxyphenyl)ethyl]icosa-5,8,11,14-tetraenamide

> <PUBCHEM_IUPAC_SYSTEMATIC_NAME>
(5Z,8Z,11Z,14Z)-N-[2-[3,4-bis(oxidanyl)phenyl]ethyl]icosa-5,8,11,14-tetraenamide

> <PUBCHEM_IUPAC_TRADITIONAL_NAME>
(5Z,8Z,11Z,14Z)-N-[2-(3,4-dihydroxyphenyl)ethyl]eicosa-5,8,11,14-tetraenamide

> <PUBCHEM_IUPAC_INCHI>
InChI=1S/C28H41NO3/c1-2-3-4-5-6-7-8-9-10-11-12-13-14-15-16-17-18-19-28(32)29-23-22-25-20-21-26(30)27(31)24-25/h6-7,9-10,12-13,15-16,20-21,24,30-31H,2-5,8,11,14,17-19,22-23H2,1H3,(H,29,32)/b7-6-,10-9-,13-12-,16-15-

> <PUBCHEM_IUPAC_INCHIKEY>
MVVPIAAVGAWJNQ-DOFZRALJSA-N

> <PUBCHEM_XLOGP3_AA>
7.3

> <PUBCHEM_EXACT_MASS>
439.308644

> <PUBCHEM_MOLECULAR_FORMULA>
C28H41NO3

> <PUBCHEM_MOLECULAR_WEIGHT>
439.63004

> <PUBCHEM_OPENEYE_CAN_SMILES>
CCCCCC=CCC=CCC=CCC=CCCCC(=O)NCCC1=CC(=C(C=C1)O)O

> <PUBCHEM_OPENEYE_ISO_SMILES>
CCCCC/C=C\C/C=C\C/C=C\C/C=C\CCCC(=O)NCCC1=CC(=C(C=C1)O)O

> <PUBCHEM_CACTVS_TPSA>
69.6

> <PUBCHEM_MONOISOTOPIC_WEIGHT>
439.308644

> <PUBCHEM_TOTAL_CHARGE>
0

> <PUBCHEM_HEAVY_ATOM_COUNT>
32

> <PUBCHEM_ATOM_DEF_STEREO_COUNT>
0

> <PUBCHEM_ATOM_UDEF_STEREO_COUNT>
0

> <PUBCHEM_BOND_DEF_STEREO_COUNT>
4

> <PUBCHEM_BOND_UDEF_STEREO_COUNT>
0

> <PUBCHEM_ISOTOPIC_ATOM_COUNT>
0

> <PUBCHEM_COMPONENT_COUNT>
1

> <PUBCHEM_CACTVS_TAUTO_COUNT>
36

> <PUBCHEM_COORDINATE_TYPE>
1
5
255

> <PUBCHEM_BONDANNOTATIONS>
15  20  8
15  21  8
20  25  8
21  26  8
25  27  8
26  27  8

$$$$

