456255
  -OEChem-07051212522D

 49 52  0     1  0  0  0  0  0999 V2000
    7.0468   -1.0254    0.0000 S   0  0  0  0  0  0  0  0  0  0  0  0
    4.4487    0.4746    0.0000 S   0  0  0  0  0  0  0  0  0  0  0  0
    9.6267    1.1873    0.0000 O   0  0  0  0  0  0  0  0  0  0  0  0
    6.1808    2.4746    0.0000 O   0  0  0  0  0  0  0  0  0  0  0  0
   10.8540   -0.0159    0.0000 O   0  0  0  0  0  0  0  0  0  0  0  0
    7.9128    2.4746    0.0000 O   0  0  0  0  0  0  0  0  0  0  0  0
   11.0380   -2.6553    0.0000 O   0  0  0  0  0  0  0  0  0  0  0  0
    7.9128    0.4746    0.0000 N   0  0  0  0  0  0  0  0  0  0  0  0
    9.6267   -1.2381    0.0000 N   0  0  0  0  0  0  0  0  0  0  0  0
    2.6691    0.5678    0.0000 N   0  0  0  0  0  0  0  0  0  0  0  0
    3.4782    1.9691    0.0000 N   0  0  0  0  0  0  0  0  0  0  0  0
    2.0000    1.3110    0.0000 N   0  0  0  0  0  0  0  0  0  0  0  0
    2.5000    2.1770    0.0000 N   0  0  0  0  0  0  0  0  0  0  0  0
    7.9128   -0.5254    0.0000 C   0  0  1  0  0  0  0  0  0  0  0  0
    8.9211   -0.5296    0.0000 C   0  0  1  0  0  0  0  0  0  0  0  0
    8.9211    0.4787    0.0000 C   0  0  0  0  0  0  0  0  0  0  0  0
    7.0468    0.9746    0.0000 C   0  0  0  0  0  0  0  0  0  0  0  0
    6.1808    0.4746    0.0000 C   0  0  0  0  0  0  0  0  0  0  0  0
    6.1808   -0.5254    0.0000 C   0  0  0  0  0  0  0  0  0  0  0  0
    5.3147    0.9746    0.0000 C   0  0  0  0  0  0  0  0  0  0  0  0
   10.5932   -0.9813    0.0000 C   0  0  0  0  0  0  0  0  0  0  0  0
    7.0468    1.9746    0.0000 C   0  0  0  0  0  0  0  0  0  0  0  0
   11.2988   -1.6899    0.0000 C   0  0  1  0  0  0  0  0  0  0  0  0
   12.2653   -1.4330    0.0000 C   0  0  0  0  0  0  0  0  0  0  0  0
    3.5827    0.9746    0.0000 C   0  0  0  0  0  0  0  0  0  0  0  0
   12.9710   -2.1416    0.0000 C   0  0  0  0  0  0  0  0  0  0  0  0
   12.5261   -0.4676    0.0000 C   0  0  0  0  0  0  0  0  0  0  0  0
   13.9374   -1.8848    0.0000 C   0  0  0  0  0  0  0  0  0  0  0  0
   13.4926   -0.2108    0.0000 C   0  0  0  0  0  0  0  0  0  0  0  0
   14.1982   -0.9194    0.0000 C   0  0  0  0  0  0  0  0  0  0  0  0
    2.4612   -0.4103    0.0000 C   0  0  0  0  0  0  0  0  0  0  0  0
    8.1311   -1.3469    0.0000 H   0  0  0  0  0  0  0  0  0  0  0  0
    8.6821   -1.1016    0.0000 H   0  0  0  0  0  0  0  0  0  0  0  0
    5.5702   -0.4178    0.0000 H   0  0  0  0  0  0  0  0  0  0  0  0
    5.9687   -1.1080    0.0000 H   0  0  0  0  0  0  0  0  0  0  0  0
    9.4650   -1.8367    0.0000 H   0  0  0  0  0  0  0  0  0  0  0  0
    5.7133    1.4495    0.0000 H   0  0  0  0  0  0  0  0  0  0  0  0
    4.9162    1.4495    0.0000 H   0  0  0  0  0  0  0  0  0  0  0  0
   11.7363   -2.1292    0.0000 H   0  0  0  0  0  0  0  0  0  0  0  0
    6.1808    3.0946    0.0000 H   0  0  0  0  0  0  0  0  0  0  0  0
   11.4755   -3.0946    0.0000 H   0  0  0  0  0  0  0  0  0  0  0  0
   12.8093   -2.7401    0.0000 H   0  0  0  0  0  0  0  0  0  0  0  0
   12.0886   -0.0283    0.0000 H   0  0  0  0  0  0  0  0  0  0  0  0
   14.3749   -2.3241    0.0000 H   0  0  0  0  0  0  0  0  0  0  0  0
   13.6543    0.3877    0.0000 H   0  0  0  0  0  0  0  0  0  0  0  0
   14.7974   -0.7601    0.0000 H   0  0  0  0  0  0  0  0  0  0  0  0
    1.8548   -0.2814    0.0000 H   0  0  0  0  0  0  0  0  0  0  0  0
    2.3323   -1.0168    0.0000 H   0  0  0  0  0  0  0  0  0  0  0  0
    3.0677   -0.5392    0.0000 H   0  0  0  0  0  0  0  0  0  0  0  0
  1 14  1  0  0  0  0
  1 19  1  0  0  0  0
  2 20  1  0  0  0  0
  2 25  1  0  0  0  0
  3 16  2  0  0  0  0
  4 22  1  0  0  0  0
  4 40  1  0  0  0  0
  5 21  2  0  0  0  0
  6 22  2  0  0  0  0
 23  7  1  1  0  0  0
  7 41  1  0  0  0  0
  8 14  1  0  0  0  0
  8 16  1  0  0  0  0
  8 17  1  0  0  0  0
 15  9  1  1  0  0  0
  9 21  1  0  0  0  0
  9 36  1  0  0  0  0
 10 12  1  0  0  0  0
 10 25  1  0  0  0  0
 10 31  1  0  0  0  0
 11 13  1  0  0  0  0
 11 25  2  0  0  0  0
 12 13  2  0  0  0  0
 14 15  1  0  0  0  0
 14 32  1  6  0  0  0
 15 16  1  0  0  0  0
 15 33  1  0  0  0  0
 17 18  2  0  0  0  0
 17 22  1  0  0  0  0
 18 19  1  0  0  0  0
 18 20  1  0  0  0  0
 19 34  1  0  0  0  0
 19 35  1  0  0  0  0
 20 37  1  0  0  0  0
 20 38  1  0  0  0  0
 21 23  1  0  0  0  0
 23 24  1  0  0  0  0
 23 39  1  0  0  0  0
 24 26  2  0  0  0  0
 24 27  1  0  0  0  0
 26 28  1  0  0  0  0
 26 42  1  0  0  0  0
 27 29  2  0  0  0  0
 27 43  1  0  0  0  0
 28 30  2  0  0  0  0
 28 44  1  0  0  0  0
 29 30  1  0  0  0  0
 29 45  1  0  0  0  0
 30 46  1  0  0  0  0
 31 47  1  0  0  0  0
 31 48  1  0  0  0  0
 31 49  1  0  0  0  0
M  END
> <PUBCHEM_COMPOUND_CID>
456255

> <PUBCHEM_COMPOUND_CANONICALIZED>
1

> <PUBCHEM_CACTVS_COMPLEXITY>
777

> <PUBCHEM_CACTVS_HBOND_ACCEPTOR>
10

> <PUBCHEM_CACTVS_HBOND_DONOR>
3

> <PUBCHEM_CACTVS_ROTATABLE_BOND>
7

> <PUBCHEM_CACTVS_SUBSKEYS>
AAADceB7uABgAAAAAAAAAAAAAABYAWAAAAAwQAAAAAAQAAABwAAAHgQYCAAADDzl2AazGIfIAgiqAiXSfAICEANggJANyIHICMiKdjqglTGUcAAk1gG4mQeYyKCOAAAAAAAAAAAAAAAAAAAAAAAAAAAAAA==

> <PUBCHEM_IUPAC_OPENEYE_NAME>
(6R,7R)-7-[[(2R)-2-hydroxy-2-phenyl-acetyl]amino]-3-[(1-methyltetrazol-5-yl)sulfanylmethyl]-8-oxo-5-thia-1-azabicyclo[4.2.0]oct-2-ene-2-carboxylic acid

> <PUBCHEM_IUPAC_CAS_NAME>
(6R,7R)-7-[[(2R)-2-hydroxy-1-oxo-2-phenylethyl]amino]-3-[[(1-methyl-5-tetrazolyl)thio]methyl]-8-oxo-5-thia-1-azabicyclo[4.2.0]oct-2-ene-2-carboxylic acid

> <PUBCHEM_IUPAC_NAME>
(6R,7R)-7-[[(2R)-2-hydroxy-2-phenylacetyl]amino]-3-[(1-methyltetrazol-5-yl)sulfanylmethyl]-8-oxo-5-thia-1-azabicyclo[4.2.0]oct-2-ene-2-carboxylic acid

> <PUBCHEM_IUPAC_SYSTEMATIC_NAME>
(6R,7R)-3-[(1-methyl-1,2,3,4-tetrazol-5-yl)sulfanylmethyl]-8-oxidanylidene-7-[[(2R)-2-oxidanyl-2-phenyl-ethanoyl]amino]-5-thia-1-azabicyclo[4.2.0]oct-2-ene-2-carboxylic acid

> <PUBCHEM_IUPAC_TRADITIONAL_NAME>
(6R,7R)-7-[[(2R)-2-hydroxy-2-phenyl-acetyl]amino]-8-keto-3-[[(1-methyltetrazol-5-yl)thio]methyl]-5-thia-1-azabicyclo[4.2.0]oct-2-ene-2-carboxylic acid

> <PUBCHEM_IUPAC_INCHI>
InChI=1S/C18H18N6O5S2/c1-23-18(20-21-22-23)31-8-10-7-30-16-11(15(27)24(16)12(10)17(28)29)19-14(26)13(25)9-5-3-2-4-6-9/h2-6,11,13,16,25H,7-8H2,1H3,(H,19,26)(H,28,29)/t11-,13-,16-/m1/s1

> <PUBCHEM_IUPAC_INCHIKEY>
OLVCFLKTBJRLHI-AXAPSJFSSA-N

> <PUBCHEM_XLOGP3>
-0.9

> <PUBCHEM_EXACT_MASS>
462.07801

> <PUBCHEM_MOLECULAR_FORMULA>
C18H18N6O5S2

> <PUBCHEM_MOLECULAR_WEIGHT>
462.50272

> <PUBCHEM_OPENEYE_CAN_SMILES>
CN1C(=NN=N1)SCC2=C(N3C(C(C3=O)NC(=O)C(C4=CC=CC=C4)O)SC2)C(=O)O

> <PUBCHEM_OPENEYE_ISO_SMILES>
CN1C(=NN=N1)SCC2=C(N3[C@@H]([C@@H](C3=O)NC(=O)[C@@H](C4=CC=CC=C4)O)SC2)C(=O)O

> <PUBCHEM_CACTVS_TPSA>
201

> <PUBCHEM_MONOISOTOPIC_WEIGHT>
462.07801

> <PUBCHEM_TOTAL_CHARGE>
0

> <PUBCHEM_HEAVY_ATOM_COUNT>
31

> <PUBCHEM_ATOM_DEF_STEREO_COUNT>
3

> <PUBCHEM_ATOM_UDEF_STEREO_COUNT>
0

> <PUBCHEM_BOND_DEF_STEREO_COUNT>
0

> <PUBCHEM_BOND_UDEF_STEREO_COUNT>
0

> <PUBCHEM_ISOTOPIC_ATOM_COUNT>
0

> <PUBCHEM_COMPONENT_COUNT>
1

> <PUBCHEM_CACTVS_TAUTO_COUNT>
4

> <PUBCHEM_COORDINATE_TYPE>
1
5
255

> <PUBCHEM_BONDANNOTATIONS>
10  12  8
10  25  8
11  13  8
11  25  8
12  13  8
14  32  6
24  26  8
24  27  8
26  28  8
27  29  8
28  30  8
29  30  8
23  7  5
15  9  5

$$$$

