   Color/Form

     * Prisms form water
     * Monoclinic plates, leaflets from warm concentrated aqueous
       solution; hydrated needles from dilute solutions

   from [1]HSDB

   Odor
        Slight
   from [2]HSDB

   Taste
        Bitter
   from [3]HSDB

   Melting Point
        283 deg C decomposes
   from [4]HSDB

   Dissociation Constants

     * pK1 = 1.83; pK2 = 9.13
     * pKa = 1.24

   from [5]HSDB

   Octanol/Water Partition Coefficient
        log Kow = -1.38
   from [6]HSDB

   Solubilities

     * Insoluble in ethanol, ethyl ether, benzene, acid
     * Very slightly sol in methanol, ethanol
     * Solubility in water (g/L): 19.8 at 0 deg C; ... 44.3 at 50 deg C;
       66.2 at 75 deg C; 99.0 at 100 deg C
     * In water, 2.64X10+4 mg/L at 25 deg C

   from [7]HSDB

   Spectral Properties

     * Specific optical rotation: -35.1 deg at 20 deg C/D (c = 1.94)
     * Specific optical rotation: +70 deg at 18 deg C/D (water)
     * IR: 5556 (Sadtler Research Laboratories Prism Collection)
     * NMR: 16028 (Sadtler Research Laboratories Spectral Collection)
     * MASS: 107173 (NIST/EPA/MCDC Mass Spectral Database 1990 version)

   from [8]HSDB

   Vapor Pressure
        1.76X10-8 mm Hg at 25 deg C (est)
   from [9]HSDB

   Other Chemical/Physical Properties

     * Sublimes in vacuo
     * Leaflets from water, decomposes at 285 deg C. Specfic optical
       rotation: +35.0 deg at 20 deg C/D (c = 2.04); +7.1 deg at 20 deg
       C/D (c = 3.8 in 18% HCl). One gram dissolves in 35.5 mL water at 16
       deg C. Sparingly soluble in methanol /Phenylalanine D-form/
     * Monoclinic leaflets or prisms from water or alchol, sweetish taste.
       Decomposes at 271-273 deg C. Sublimes in vacuo. pK1 = 2.58; pK2 =
       9.24. Solubility in water (g/L): 9.97 at 0 deg C; 14.11 at 25 deg
       C; 21.87 at 50 deg C; 37.08 at 75 deg C; 68.9 at 100 deg C
       /Phenylalanine DL-form/
     * OCCURS IN ISOMERIC FORMS /PHENYLALANINE/
     * IR: 18456 (Sadtler Research Laboratories IR Grating Collection)
       /Phenylalanine (D-)/
     * NMR: 19838 (Sadtler Research Laboratories Spectral Collection)
       /Phenylalanine (D-)/
     * MASS: 75940 (NIST/EPA/MSDC Mass Spectral Database, 1990 version);
       678 (National Bureau of Standards) /Phenylalanine (D-)/
     * IR: 11496 (Sadtler Research Laboratories Prism Collection)
       /Phenylalanine (DL-)/
     * UV: 20765 (Sadtler Research Laboratories Prism Collection)
       /Phenylalanine (DL-)/
     * NMR: 17174 (Sadtler Research Laboratories Spectral Collection)
       /Phenylalanine (DL-)/
     * MASS: 678 (National Bureau of Standards EPA-NIH Mass Spectra Data
       Base, NSRDS-NBS-63) /Phenylalanine (DL-)/
     * Sweet tasting /DL-phenylalanine/
     * Henry's Law constant = 1.2X10-10 atm-cu m/mol at 25 deg C (est)
     * Hydroxyl radical reaction rate constant = 4.42X10-11 cu
       cm/molec-sec at 25 deg C (est)

   from [10]HSDB

   Computed Properties
   Molecular Weight                  165.18914 [g/mol]
   Molecular Formula                 C[9]H[11]NO[2]
   XLogP3                            -1.5
   H-Bond Donor                      2
   H-Bond Acceptor                   3
   Rotatable Bond Count              3
   Exact Mass                        165.078979
   MonoIsotopic Mass                 165.078979
   Topological Polar Surface Area    63.3
   Heavy Atom Count                  12
   Formal Charge                     0
   Complexity                        153
   Isotope Atom Count                0
   Defined Atom Stereocenter Count   1
   Undefined Atom Stereocenter Count 0
   Defined Bond Stereocenter Count   0
   Undefined Bond Stereocenter Count 0
   Covalently-Bonded Unit Count      1
   Feature 3D Acceptor Count         2
   Feature 3D Donor Count            1
   Feature 3D Anion Count            1
   Feature 3D Cation Count           1
   Feature 3D Ring Count             1
   Effective Rotor Count             3
   Conformer Sampling RMSD           0.6
   CID Conformer Count               [11]11

References

   1. http://toxnet.nlm.nih.gov/cgi-bin/sis/search/r?dbs+hsdb:@term+@rn+@rel+63-91-2
   2. http://toxnet.nlm.nih.gov/cgi-bin/sis/search/r?dbs+hsdb:@term+@rn+@rel+63-91-2
   3. http://toxnet.nlm.nih.gov/cgi-bin/sis/search/r?dbs+hsdb:@term+@rn+@rel+63-91-2
   4. http://toxnet.nlm.nih.gov/cgi-bin/sis/search/r?dbs+hsdb:@term+@rn+@rel+63-91-2
   5. http://toxnet.nlm.nih.gov/cgi-bin/sis/search/r?dbs+hsdb:@term+@rn+@rel+63-91-2
   6. http://toxnet.nlm.nih.gov/cgi-bin/sis/search/r?dbs+hsdb:@term+@rn+@rel+63-91-2
   7. http://toxnet.nlm.nih.gov/cgi-bin/sis/search/r?dbs+hsdb:@term+@rn+@rel+63-91-2
   8. http://toxnet.nlm.nih.gov/cgi-bin/sis/search/r?dbs+hsdb:@term+@rn+@rel+63-91-2
   9. http://toxnet.nlm.nih.gov/cgi-bin/sis/search/r?dbs+hsdb:@term+@rn+@rel+63-91-2
  10. http://toxnet.nlm.nih.gov/cgi-bin/sis/search/r?dbs+hsdb:@term+@rn+@rel+63-91-2
  11. http://pubchem.ncbi.nlm.nih.gov/vw3d/vw3d.cgi?cid=6140
