10003607
  -OEChem-07051213152D

 84 88  0     1  0  0  0  0  0999 V2000
    2.5357   -2.8781    0.0000 O   0  0  0  0  0  0  0  0  0  0  0  0
    7.6857    3.2011    0.0000 O   0  0  0  0  0  0  0  0  0  0  0  0
    7.9288   -0.8258    0.0000 C   0  0  1  0  0  0  0  0  0  0  0  0
    7.0628   -1.3258    0.0000 C   0  0  1  0  0  0  0  0  0  0  0  0
    7.9288    0.1742    0.0000 C   0  0  1  0  0  0  0  0  0  0  0  0
    6.1968   -0.8258    0.0000 C   0  0  1  0  0  0  0  0  0  0  0  0
    8.8228    0.7089    0.0000 C   0  0  2  0  0  0  0  0  0  0  0  0
    5.2868   -1.3326    0.0000 C   0  0  2  0  0  0  0  0  0  0  0  0
    9.7288    0.1951    0.0000 C   0  0  1  0  0  0  0  0  0  0  0  0
    5.2787   -2.3742    0.0000 C   0  0  1  0  0  0  0  0  0  0  0  0
    8.8228   -1.3604    0.0000 C   0  0  0  0  0  0  0  0  0  0  0  0
    7.0628    0.6742    0.0000 C   0  0  0  0  0  0  0  0  0  0  0  0
    6.1968    0.1742    0.0000 C   0  0  0  0  0  0  0  0  0  0  0  0
    7.0789   -2.3673    0.0000 C   0  0  0  0  0  0  0  0  0  0  0  0
    9.0329    1.7228    0.0000 C   0  0  1  0  0  0  0  0  0  0  0  0
    9.7288   -0.8466    0.0000 C   0  0  0  0  0  0  0  0  0  0  0  0
    6.1808   -2.8950    0.0000 C   0  0  0  0  0  0  0  0  0  0  0  0
   10.4911    0.8958    0.0000 C   0  0  0  0  0  0  0  0  0  0  0  0
    4.3433   -2.9239    0.0000 C   0  0  0  0  0  0  0  0  0  0  0  0
    8.2709   -1.7654    0.0000 C   0  0  0  0  0  0  0  0  0  0  0  0
    4.3599   -0.7685    0.0000 C   0  0  0  0  0  0  0  0  0  0  0  0
    7.7056   -2.0918    0.0000 C   0  0  0  0  0  0  0  0  0  0  0  0
   10.0619    1.8381    0.0000 C   0  0  0  0  0  0  0  0  0  0  0  0
    5.2945   -0.3326    0.0000 C   0  0  0  0  0  0  0  0  0  0  0  0
   10.5987   -0.2983    0.0000 C   0  0  0  0  0  0  0  0  0  0  0  0
    3.4037   -2.3814    0.0000 C   0  0  2  0  0  0  0  0  0  0  0  0
    8.3593    2.4620    0.0000 C   0  0  0  0  0  0  0  0  0  0  0  0
    3.4120   -1.2965    0.0000 C   0  0  0  0  0  0  0  0  0  0  0  0
    3.8467   -3.7919    0.0000 C   0  0  0  0  0  0  0  0  0  0  0  0
    4.8466   -3.7880    0.0000 C   0  0  0  0  0  0  0  0  0  0  0  0
    9.0984    3.1355    0.0000 C   0  0  0  0  0  0  0  0  0  0  0  0
    7.6202    1.7884    0.0000 C   0  0  0  0  0  0  0  0  0  0  0  0
    7.9223    1.0242    0.0000 H   0  0  0  0  0  0  0  0  0  0  0  0
    6.9329   -0.4008    0.0000 H   0  0  0  0  0  0  0  0  0  0  0  0
    8.1300    1.2014    0.0000 H   0  0  0  0  0  0  0  0  0  0  0  0
    5.2820   -3.2242    0.0000 H   0  0  0  0  0  0  0  0  0  0  0  0
    8.4182   -1.8302    0.0000 H   0  0  0  0  0  0  0  0  0  0  0  0
    9.2164   -1.8394    0.0000 H   0  0  0  0  0  0  0  0  0  0  0  0
    7.4613    1.1492    0.0000 H   0  0  0  0  0  0  0  0  0  0  0  0
    6.6643    1.1492    0.0000 H   0  0  0  0  0  0  0  0  0  0  0  0
    5.9847    0.7568    0.0000 H   0  0  0  0  0  0  0  0  0  0  0  0
    5.5862    0.0666    0.0000 H   0  0  0  0  0  0  0  0  0  0  0  0
    7.2969   -2.9477    0.0000 H   0  0  0  0  0  0  0  0  0  0  0  0
    7.6880   -2.2518    0.0000 H   0  0  0  0  0  0  0  0  0  0  0  0
    9.3324    2.5183    0.0000 H   0  0  0  0  0  0  0  0  0  0  0  0
    9.9379   -1.4303    0.0000 H   0  0  0  0  0  0  0  0  0  0  0  0
   10.3397   -0.7405    0.0000 H   0  0  0  0  0  0  0  0  0  0  0  0
    5.7835   -3.3710    0.0000 H   0  0  0  0  0  0  0  0  0  0  0  0
    6.5818   -3.3679    0.0000 H   0  0  0  0  0  0  0  0  0  0  0  0
   10.8604    0.3978    0.0000 H   0  0  0  0  0  0  0  0  0  0  0  0
   11.0252    1.2107    0.0000 H   0  0  0  0  0  0  0  0  0  0  0  0
    7.6884   -1.9775    0.0000 H   0  0  0  0  0  0  0  0  0  0  0  0
    8.4830   -2.3480    0.0000 H   0  0  0  0  0  0  0  0  0  0  0  0
    8.8535   -1.5533    0.0000 H   0  0  0  0  0  0  0  0  0  0  0  0
    4.7681   -0.3019    0.0000 H   0  0  0  0  0  0  0  0  0  0  0  0
    3.9700   -0.2865    0.0000 H   0  0  0  0  0  0  0  0  0  0  0  0
    7.2306   -2.4903    0.0000 H   0  0  0  0  0  0  0  0  0  0  0  0
    8.1041   -2.5668    0.0000 H   0  0  0  0  0  0  0  0  0  0  0  0
    8.1805   -1.6933    0.0000 H   0  0  0  0  0  0  0  0  0  0  0  0
   10.6500    2.0344    0.0000 H   0  0  0  0  0  0  0  0  0  0  0  0
    9.9285    2.4436    0.0000 H   0  0  0  0  0  0  0  0  0  0  0  0
    5.9145   -0.3374    0.0000 H   0  0  0  0  0  0  0  0  0  0  0  0
    5.2993    0.2873    0.0000 H   0  0  0  0  0  0  0  0  0  0  0  0
    4.6745   -0.3279    0.0000 H   0  0  0  0  0  0  0  0  0  0  0  0
   10.2928   -0.8376    0.0000 H   0  0  0  0  0  0  0  0  0  0  0  0
   11.1380   -0.6041    0.0000 H   0  0  0  0  0  0  0  0  0  0  0  0
   10.9045    0.2411    0.0000 H   0  0  0  0  0  0  0  0  0  0  0  0
    3.4025   -3.0014    0.0000 H   0  0  0  0  0  0  0  0  0  0  0  0
    3.2075   -0.7112    0.0000 H   0  0  0  0  0  0  0  0  0  0  0  0
    2.8004   -1.3978    0.0000 H   0  0  0  0  0  0  0  0  0  0  0  0
    3.3085   -3.4840    0.0000 H   0  0  0  0  0  0  0  0  0  0  0  0
    3.5387   -4.3300    0.0000 H   0  0  0  0  0  0  0  0  0  0  0  0
    4.3848   -4.0998    0.0000 H   0  0  0  0  0  0  0  0  0  0  0  0
    4.3109   -4.1001    0.0000 H   0  0  0  0  0  0  0  0  0  0  0  0
    5.1587   -4.3238    0.0000 H   0  0  0  0  0  0  0  0  0  0  0  0
    5.3824   -3.4760    0.0000 H   0  0  0  0  0  0  0  0  0  0  0  0
    9.5160    2.6773    0.0000 H   0  0  0  0  0  0  0  0  0  0  0  0
    9.5567    3.5531    0.0000 H   0  0  0  0  0  0  0  0  0  0  0  0
    8.6808    3.5938    0.0000 H   0  0  0  0  0  0  0  0  0  0  0  0
    7.2026    2.2467    0.0000 H   0  0  0  0  0  0  0  0  0  0  0  0
    7.1619    1.3708    0.0000 H   0  0  0  0  0  0  0  0  0  0  0  0
    8.0378    1.3301    0.0000 H   0  0  0  0  0  0  0  0  0  0  0  0
    2.0000   -2.5660    0.0000 H   0  0  0  0  0  0  0  0  0  0  0  0
    7.8738    3.7919    0.0000 H   0  0  0  0  0  0  0  0  0  0  0  0
 26  1  1  1  0  0  0
  1 83  1  0  0  0  0
  2 27  1  0  0  0  0
  2 84  1  0  0  0  0
  3  4  1  0  0  0  0
  3  5  1  0  0  0  0
  3 11  1  0  0  0  0
  3 20  1  6  0  0  0
  4  6  1  0  0  0  0
  4 14  1  0  0  0  0
  4 22  1  1  0  0  0
  5  7  1  0  0  0  0
  5 12  1  0  0  0  0
  5 33  1  1  0  0  0
  6  8  1  0  0  0  0
  6 13  1  0  0  0  0
  6 34  1  6  0  0  0
  7  9  1  0  0  0  0
  7 15  1  0  0  0  0
  7 35  1  6  0  0  0
  8 10  1  0  0  0  0
  8 21  1  0  0  0  0
  8 24  1  1  0  0  0
  9 16  1  0  0  0  0
  9 18  1  0  0  0  0
  9 25  1  1  0  0  0
 10 17  1  0  0  0  0
 10 19  1  0  0  0  0
 10 36  1  6  0  0  0
 11 16  1  0  0  0  0
 11 37  1  0  0  0  0
 11 38  1  0  0  0  0
 12 13  1  0  0  0  0
 12 39  1  0  0  0  0
 12 40  1  0  0  0  0
 13 41  1  0  0  0  0
 13 42  1  0  0  0  0
 14 17  1  0  0  0  0
 14 43  1  0  0  0  0
 14 44  1  0  0  0  0
 15 23  1  0  0  0  0
 15 27  1  0  0  0  0
 15 45  1  1  0  0  0
 16 46  1  0  0  0  0
 16 47  1  0  0  0  0
 17 48  1  0  0  0  0
 17 49  1  0  0  0  0
 18 23  1  0  0  0  0
 18 50  1  0  0  0  0
 18 51  1  0  0  0  0
 19 26  1  0  0  0  0
 19 29  1  0  0  0  0
 19 30  1  0  0  0  0
 20 52  1  0  0  0  0
 20 53  1  0  0  0  0
 20 54  1  0  0  0  0
 21 28  1  0  0  0  0
 21 55  1  0  0  0  0
 21 56  1  0  0  0  0
 22 57  1  0  0  0  0
 22 58  1  0  0  0  0
 22 59  1  0  0  0  0
 23 60  1  0  0  0  0
 23 61  1  0  0  0  0
 24 62  1  0  0  0  0
 24 63  1  0  0  0  0
 24 64  1  0  0  0  0
 25 65  1  0  0  0  0
 25 66  1  0  0  0  0
 25 67  1  0  0  0  0
 26 28  1  0  0  0  0
 26 68  1  0  0  0  0
 27 31  1  0  0  0  0
 27 32  1  0  0  0  0
 28 69  1  0  0  0  0
 28 70  1  0  0  0  0
 29 71  1  0  0  0  0
 29 72  1  0  0  0  0
 29 73  1  0  0  0  0
 30 74  1  0  0  0  0
 30 75  1  0  0  0  0
 30 76  1  0  0  0  0
 31 77  1  0  0  0  0
 31 78  1  0  0  0  0
 31 79  1  0  0  0  0
 32 80  1  0  0  0  0
 32 81  1  0  0  0  0
 32 82  1  0  0  0  0
M  END
> <PUBCHEM_COMPOUND_CID>
10003607

> <PUBCHEM_COMPOUND_CANONICALIZED>
1

> <PUBCHEM_CACTVS_COMPLEXITY>
771

> <PUBCHEM_CACTVS_HBOND_ACCEPTOR>
2

> <PUBCHEM_CACTVS_HBOND_DONOR>
2

> <PUBCHEM_CACTVS_ROTATABLE_BOND>
1

> <PUBCHEM_CACTVS_SUBSKEYS>
AAADcfB4MAAAAAAAAAAAAAAAAAAAAYAAAAAwYMGAAAAAAGDAAAAAGgAACAAAD1SggAICAAAAAgAAAAAAAAAAAAAAAAAAAAAAAAAAEAIAAAAAQAAEAAAAAAGAwPAPgAAAAAAAAADAAAYAADAAAQAACAAAAA==

> <PUBCHEM_IUPAC_OPENEYE_NAME>
(1R,3aR,5aR,5bR,7aR,9S,11aR,11bR,13aR,13bS)-1-(1-hydroxy-1-methyl-ethyl)-3a,5a,5b,8,8,11a-hexamethyl-1,2,3,4,5,6,7,7a,9,10,11,11b,12,13,13a,13b-hexadecahydrocyclopenta[a]chrysen-9-ol

> <PUBCHEM_IUPAC_CAS_NAME>
(1R,3aR,5aR,5bR,7aR,9S,11aR,11bR,13aR,13bS)-1-(2-hydroxypropan-2-yl)-3a,5a,5b,8,8,11a-hexamethyl-1,2,3,4,5,6,7,7a,9,10,11,11b,12,13,13a,13b-hexadecahydrocyclopenta[a]chrysen-9-ol

> <PUBCHEM_IUPAC_NAME>
(1R,3aR,5aR,5bR,7aR,9S,11aR,11bR,13aR,13bS)-1-(2-hydroxypropan-2-yl)-3a,5a,5b,8,8,11a-hexamethyl-1,2,3,4,5,6,7,7a,9,10,11,11b,12,13,13a,13b-hexadecahydrocyclopenta[a]chrysen-9-ol

> <PUBCHEM_IUPAC_SYSTEMATIC_NAME>
(1R,3aR,5aR,5bR,7aR,9S,11aR,11bR,13aR,13bS)-3a,5a,5b,8,8,11a-hexamethyl-1-(2-oxidanylpropan-2-yl)-1,2,3,4,5,6,7,7a,9,10,11,11b,12,13,13a,13b-hexadecahydrocyclopenta[a]chrysen-9-ol

> <PUBCHEM_IUPAC_TRADITIONAL_NAME>
(1R,3aR,5aR,5bR,7aR,9S,11aR,11bR,13aR,13bS)-1-(1-hydroxy-1-methyl-ethyl)-3a,5a,5b,8,8,11a-hexamethyl-1,2,3,4,5,6,7,7a,9,10,11,11b,12,13,13a,13b-hexadecahydrocyclopenta[a]chrysen-9-ol

> <PUBCHEM_IUPAC_INCHI>
InChI=1S/C30H52O2/c1-25(2)21-12-16-30(8)22(28(21,6)15-13-23(25)31)10-9-20-24-19(26(3,4)32)11-14-27(24,5)17-18-29(20,30)7/h19-24,31-32H,9-18H2,1-8H3/t19-,20-,21+,22-,23+,24-,27-,28+,29-,30-/m1/s1

> <PUBCHEM_IUPAC_INCHIKEY>
YDNYDUBBAZTLTQ-LIVJDELJSA-N

> <PUBCHEM_XLOGP3_AA>
8.4

> <PUBCHEM_EXACT_MASS>
444.396731

> <PUBCHEM_MOLECULAR_FORMULA>
C30H52O2

> <PUBCHEM_MOLECULAR_WEIGHT>
444.73268

> <PUBCHEM_OPENEYE_CAN_SMILES>
CC1(C2CCC3(C(C2(CCC1O)C)CCC4C3(CCC5(C4C(CC5)C(C)(C)O)C)C)C)C

> <PUBCHEM_OPENEYE_ISO_SMILES>
C[C@]12CC[C@H]([C@@H]1[C@H]3CC[C@@H]4[C@]5(CC[C@@H](C([C@@H]5CC[C@]4([C@@]3(CC2)C)C)(C)C)O)C)C(C)(C)O

> <PUBCHEM_CACTVS_TPSA>
40.5

> <PUBCHEM_MONOISOTOPIC_WEIGHT>
444.396731

> <PUBCHEM_TOTAL_CHARGE>
0

> <PUBCHEM_HEAVY_ATOM_COUNT>
32

> <PUBCHEM_ATOM_DEF_STEREO_COUNT>
10

> <PUBCHEM_ATOM_UDEF_STEREO_COUNT>
0

> <PUBCHEM_BOND_DEF_STEREO_COUNT>
0

> <PUBCHEM_BOND_UDEF_STEREO_COUNT>
0

> <PUBCHEM_ISOTOPIC_ATOM_COUNT>
0

> <PUBCHEM_COMPONENT_COUNT>
1

> <PUBCHEM_CACTVS_TAUTO_COUNT>
1

> <PUBCHEM_COORDINATE_TYPE>
1
5
255

> <PUBCHEM_BONDANNOTATIONS>
26  1  5
10  36  6
15  45  5
3  20  6
4  22  5
5  33  5
6  34  6
7  35  6
8  24  5
9  25  5

$$$$

