   Color/Form
        RED OR ORANGE-BROWN NEEDLES
   from [1]HSDB

   Melting Point
        302 DEG C
   from [2]HSDB

   Octanol/Water Partition Coefficient
        log Kow = 3.3
   from [3]HSDB

   Solubilities

     * SOL IN ALCOHOL, CHLOROFORM, BENZENE & ACETONE
     * INSOL IN ETHER
     * In water, 0.16 mg/l at 25 deg C

   from [4]HSDB

   Spectral Properties

     * MAX ABSORPTION (METHANOL): 242 NM (LOG E= 4.49); 298 NM (LOG E=
       4.37); 327 NM (LOG E= 3.95); 440 NM (LOG E= 3.65)
     * IR: 8630 (Sadtler Research Laboratories IR Grating Collection)
     * UV: 3788 (Sadtler Research Laboratories Spectral Collection)
     * MASS: 182 (Aldermaston, Eight Peak Index of Mass Spectra, UK)

   from [5]HSDB

   Vapor Pressure
        5.0X10-11 mm Hg at 25 deg C
   from [6]HSDB

   Other Chemical/Physical Properties

     * SUBLIMES
     * Heat of sublimation = 32.7 kcal/mol

   from [7]HSDB

   Computed Properties
   Molecular Weight                  223.22676 [g/mol]
   Molecular Formula                 C[14]H[9]NO[2]
   XLogP3                            2.7
   H-Bond Donor                      1
   H-Bond Acceptor                   3
   Rotatable Bond Count              0
   Tautomer Count                    5
   Exact Mass                        223.063329
   MonoIsotopic Mass                 223.063329
   Topological Polar Surface Area    60.2
   Heavy Atom Count                  17
   Formal Charge                     0
   Complexity                        352
   Isotope Atom Count                0
   Defined Atom Stereocenter Count   0
   Undefined Atom Stereocenter Count 0
   Defined Bond Stereocenter Count   0
   Undefined Bond Stereocenter Count 0
   Covalently-Bonded Unit Count      1
   Feature 3D Acceptor Count         2
   Feature 3D Donor Count            1
   Feature 3D Cation Count           1
   Feature 3D Ring Count             3
   Effective Rotor Count             0
   Conformer Sampling RMSD           0.4
   CID Conformer Count               [8]1

References

   1. http://toxnet.nlm.nih.gov/cgi-bin/sis/search/r?dbs+hsdb:@term+@rn+@rel+117-79-3
   2. http://toxnet.nlm.nih.gov/cgi-bin/sis/search/r?dbs+hsdb:@term+@rn+@rel+117-79-3
   3. http://toxnet.nlm.nih.gov/cgi-bin/sis/search/r?dbs+hsdb:@term+@rn+@rel+117-79-3
   4. http://toxnet.nlm.nih.gov/cgi-bin/sis/search/r?dbs+hsdb:@term+@rn+@rel+117-79-3
   5. http://toxnet.nlm.nih.gov/cgi-bin/sis/search/r?dbs+hsdb:@term+@rn+@rel+117-79-3
   6. http://toxnet.nlm.nih.gov/cgi-bin/sis/search/r?dbs+hsdb:@term+@rn+@rel+117-79-3
   7. http://toxnet.nlm.nih.gov/cgi-bin/sis/search/r?dbs+hsdb:@term+@rn+@rel+117-79-3
   8. http://pubchem.ncbi.nlm.nih.gov/vw3d/vw3d.cgi?cid=8341
