   Color/Form
        Crystals from ethyl acetate
   from [1]HSDB

   Melting Point
        178 deg C
   from [2]HSDB

   Dissociation Constants
        pKa1 = 7.45 (amine); pKa2 = 9.88 (phenol) (est)
   from [3]HSDB

   Octanol/Water Partition Coefficient
        log Kow = 2.09
   from [4]HSDB

   Solubilities

     * Sol in chloroform; insol in petroleum ether
     * In water, 1,400 mg/L at 25 deg C (est)

   from [5]HSDB

   Spectral Properties

     * Intense mass spectral peaks: 242 m/z, 286 m/z, 327 m/z
     * Specific optical rotation at 25 deg C for D (sodium) line: -194.5
       deg

   from [6]HSDB

   Other Chemical/Physical Properties

     * At 20 deg C: pKa1 (for the proton on the nitrogen) = 7.94; pKa2
       (for the phenolic hydrogen) = 9.44 /Naloxone HCl/
     * Sol in water, dilute acids and in strong alkali /Naloxone
       hydrochloride/
     * Crystals from ethanol and ether; sol in water, alcohol; practically
       insol in ether; MP = 200-205 deg C /Hydrochloride/
     * FORM: SLIGHTLY OFF-WHITE /HYDROCHLORIDE/
     * Henry's Law constant = 5.4X10-19 atm-cu m/mol at 25 deg C (est)
     * Hydroxyl radical reaction rate constant = 2.4X10-10 cu cm/molec-sec
       at 25 deg C (est)

   from [7]HSDB

   Computed Properties
   Molecular Weight                  327.37434 [g/mol]
   Molecular Formula                 C[19]H[21]NO[4]
   XLogP3                            2.1
   H-Bond Donor                      2
   H-Bond Acceptor                   5
   Rotatable Bond Count              2
   Tautomer Count                    6
   Exact Mass                        327.147058
   MonoIsotopic Mass                 327.147058
   Topological Polar Surface Area    70
   Heavy Atom Count                  24
   Formal Charge                     0
   Complexity                        594
   Isotope Atom Count                0
   Defined Atom Stereocenter Count   4
   Undefined Atom Stereocenter Count 0
   Defined Bond Stereocenter Count   0
   Undefined Bond Stereocenter Count 0
   Covalently-Bonded Unit Count      1
   Feature 3D Acceptor Count         3
   Feature 3D Donor Count            2
   Feature 3D Cation Count           1
   Feature 3D Hydrophobe Count       1
   Feature 3D Ring Count             5
   Effective Rotor Count             3.4
   Conformer Sampling RMSD           0.6
   CID Conformer Count               [8]4

References

   1. http://toxnet.nlm.nih.gov/cgi-bin/sis/search/r?dbs+hsdb:@term+@rn+@rel+465-65-6
   2. http://toxnet.nlm.nih.gov/cgi-bin/sis/search/r?dbs+hsdb:@term+@rn+@rel+465-65-6
   3. http://toxnet.nlm.nih.gov/cgi-bin/sis/search/r?dbs+hsdb:@term+@rn+@rel+465-65-6
   4. http://toxnet.nlm.nih.gov/cgi-bin/sis/search/r?dbs+hsdb:@term+@rn+@rel+465-65-6
   5. http://toxnet.nlm.nih.gov/cgi-bin/sis/search/r?dbs+hsdb:@term+@rn+@rel+465-65-6
   6. http://toxnet.nlm.nih.gov/cgi-bin/sis/search/r?dbs+hsdb:@term+@rn+@rel+465-65-6
   7. http://toxnet.nlm.nih.gov/cgi-bin/sis/search/r?dbs+hsdb:@term+@rn+@rel+465-65-6
   8. http://pubchem.ncbi.nlm.nih.gov/vw3d/vw3d.cgi?cid=5284596
