5462333
  -OEChem-07051212522D

 90 94  0     1  0  0  0  0  0999 V2000
    8.8158    5.9680    0.0000 O   0  0  0  0  0  0  0  0  0  0  0  0
    8.9651   -2.7733    0.0000 O   0  0  0  0  0  0  0  0  0  0  0  0
    6.0010    4.7656    0.0000 O   0  0  0  0  0  0  0  0  0  0  0  0
   10.3312    0.2656    0.0000 O   0  0  0  0  0  0  0  0  0  0  0  0
   10.4913    6.7200    0.0000 O   0  0  0  0  0  0  0  0  0  0  0  0
   12.4804    6.5109    0.0000 O   0  0  0  0  0  0  0  0  0  0  0  0
    9.1517   -4.6004    0.0000 O   0  0  0  0  0  0  0  0  0  0  0  0
   10.3272   -6.2184    0.0000 O   0  0  0  0  0  0  0  0  0  0  0  0
    3.4030    0.2656    0.0000 O   0  0  0  0  0  0  0  0  0  0  0  0
    2.5369   -1.2344    0.0000 O   0  0  0  0  0  0  0  0  0  0  0  0
    2.5369   -3.2344    0.0000 O   0  0  0  0  0  0  0  0  0  0  0  0
    6.8671    3.2656    0.0000 N   0  0  0  0  0  0  0  0  0  0  0  0
    8.6466    4.3588    0.0000 N   0  0  0  0  0  0  0  0  0  0  0  0
   10.2742   -1.8222    0.0000 N   0  0  0  0  0  0  0  0  0  0  0  0
    8.5991    0.2656    0.0000 N   0  0  0  0  0  0  0  0  0  0  0  0
    5.1350    0.2656    0.0000 N   0  0  0  0  0  0  0  0  0  0  0  0
    7.7331    4.7656    0.0000 C   0  0  1  0  0  0  0  0  0  0  0  0
    7.8376    5.7601    0.0000 C   0  0  1  0  0  0  0  0  0  0  0  0
    6.8671    4.2656    0.0000 C   0  0  0  0  0  0  0  0  0  0  0  0
    7.7331    2.7656    0.0000 C   0  0  0  0  0  0  0  0  0  0  0  0
    6.0010    2.7656    0.0000 C   0  0  0  0  0  0  0  0  0  0  0  0
    7.7331    1.7656    0.0000 C   0  0  0  0  0  0  0  0  0  0  0  0
    9.4651   -1.2344    0.0000 C   0  0  2  0  0  0  0  0  0  0  0  0
    9.3158    5.1020    0.0000 C   0  0  0  0  0  0  0  0  0  0  0  0
    8.6561   -1.8222    0.0000 C   0  0  2  0  0  0  0  0  0  0  0  0
    7.0945    6.4292    0.0000 C   0  0  0  0  0  0  0  0  0  0  0  0
    8.5991    1.2656    0.0000 C   0  0  0  0  0  0  0  0  0  0  0  0
    6.0010    1.7656    0.0000 C   0  0  0  0  0  0  0  0  0  0  0  0
    9.4651   -0.2344    0.0000 C   0  0  0  0  0  0  0  0  0  0  0  0
    9.9651   -2.7733    0.0000 C   0  0  0  0  0  0  0  0  0  0  0  0
   10.3103    4.9974    0.0000 C   0  0  0  0  0  0  0  0  0  0  0  0
    5.1350    1.2656    0.0000 C   0  0  0  0  0  0  0  0  0  0  0  0
    7.7051   -1.5132    0.0000 C   0  0  0  0  0  0  0  0  0  0  0  0
   10.5529   -3.5823    0.0000 C   0  0  0  0  0  0  0  0  0  0  0  0
   10.8981    5.8064    0.0000 C   0  0  0  0  0  0  0  0  0  0  0  0
   10.7170    4.0839    0.0000 C   0  0  0  0  0  0  0  0  0  0  0  0
   10.1462   -4.4958    0.0000 C   0  0  0  0  0  0  0  0  0  0  0  0
   11.8926    5.7019    0.0000 C   0  0  0  0  0  0  0  0  0  0  0  0
   11.5474   -3.4778    0.0000 C   0  0  0  0  0  0  0  0  0  0  0  0
   11.7115    3.9794    0.0000 C   0  0  0  0  0  0  0  0  0  0  0  0
   12.2993    4.7884    0.0000 C   0  0  0  0  0  0  0  0  0  0  0  0
    4.2690   -0.2344    0.0000 C   0  0  0  0  0  0  0  0  0  0  0  0
   10.7340   -5.3049    0.0000 C   0  0  0  0  0  0  0  0  0  0  0  0
   12.1352   -4.2868    0.0000 C   0  0  0  0  0  0  0  0  0  0  0  0
   11.7285   -5.2003    0.0000 C   0  0  0  0  0  0  0  0  0  0  0  0
    4.2690   -1.2344    0.0000 C   0  0  0  0  0  0  0  0  0  0  0  0
    3.4030   -1.7344    0.0000 C   0  0  0  0  0  0  0  0  0  0  0  0
    5.1350   -1.7344    0.0000 C   0  0  0  0  0  0  0  0  0  0  0  0
    3.4030   -2.7344    0.0000 C   0  0  0  0  0  0  0  0  0  0  0  0
    5.1350   -2.7344    0.0000 C   0  0  0  0  0  0  0  0  0  0  0  0
    4.2690   -3.2344    0.0000 C   0  0  0  0  0  0  0  0  0  0  0  0
    7.7655    4.1464    0.0000 H   0  0  0  0  0  0  0  0  0  0  0  0
    7.9981    6.3590    0.0000 H   0  0  0  0  0  0  0  0  0  0  0  0
    8.3437    2.6579    0.0000 H   0  0  0  0  0  0  0  0  0  0  0  0
    7.9451    3.3482    0.0000 H   0  0  0  0  0  0  0  0  0  0  0  0
    8.7755    3.7524    0.0000 H   0  0  0  0  0  0  0  0  0  0  0  0
    5.7890    3.3482    0.0000 H   0  0  0  0  0  0  0  0  0  0  0  0
    5.3905    2.6579    0.0000 H   0  0  0  0  0  0  0  0  0  0  0  0
    7.1225    1.8732    0.0000 H   0  0  0  0  0  0  0  0  0  0  0  0
    7.5210    1.1830    0.0000 H   0  0  0  0  0  0  0  0  0  0  0  0
   10.0176   -0.9530    0.0000 H   0  0  0  0  0  0  0  0  0  0  0  0
    8.2177   -2.2606    0.0000 H   0  0  0  0  0  0  0  0  0  0  0  0
    7.5093    6.8900    0.0000 H   0  0  0  0  0  0  0  0  0  0  0  0
    6.6337    6.8441    0.0000 H   0  0  0  0  0  0  0  0  0  0  0  0
    6.6796    5.9685    0.0000 H   0  0  0  0  0  0  0  0  0  0  0  0
    9.2097    1.1579    0.0000 H   0  0  0  0  0  0  0  0  0  0  0  0
    8.8112    1.8482    0.0000 H   0  0  0  0  0  0  0  0  0  0  0  0
    6.2131    1.1830    0.0000 H   0  0  0  0  0  0  0  0  0  0  0  0
    6.6116    1.8732    0.0000 H   0  0  0  0  0  0  0  0  0  0  0  0
   10.8638   -1.6306    0.0000 H   0  0  0  0  0  0  0  0  0  0  0  0
    8.0622   -0.0444    0.0000 H   0  0  0  0  0  0  0  0  0  0  0  0
    4.9230    1.8482    0.0000 H   0  0  0  0  0  0  0  0  0  0  0  0
    4.5244    1.1579    0.0000 H   0  0  0  0  0  0  0  0  0  0  0  0
    7.8967   -0.9236    0.0000 H   0  0  0  0  0  0  0  0  0  0  0  0
    7.1154   -1.3216    0.0000 H   0  0  0  0  0  0  0  0  0  0  0  0
    7.5135   -2.1029    0.0000 H   0  0  0  0  0  0  0  0  0  0  0  0
   10.3526    3.5823    0.0000 H   0  0  0  0  0  0  0  0  0  0  0  0
    5.6720   -0.0444    0.0000 H   0  0  0  0  0  0  0  0  0  0  0  0
   11.7996   -2.9114    0.0000 H   0  0  0  0  0  0  0  0  0  0  0  0
   11.9637    3.4130    0.0000 H   0  0  0  0  0  0  0  0  0  0  0  0
   12.9159    4.7236    0.0000 H   0  0  0  0  0  0  0  0  0  0  0  0
   12.7518   -4.2220    0.0000 H   0  0  0  0  0  0  0  0  0  0  0  0
   12.0929   -5.7019    0.0000 H   0  0  0  0  0  0  0  0  0  0  0  0
   13.0970    6.4461    0.0000 H   0  0  0  0  0  0  0  0  0  0  0  0
    5.6720   -1.4244    0.0000 H   0  0  0  0  0  0  0  0  0  0  0  0
   10.6917   -6.7200    0.0000 H   0  0  0  0  0  0  0  0  0  0  0  0
    5.6720   -3.0444    0.0000 H   0  0  0  0  0  0  0  0  0  0  0  0
    4.2690   -3.8544    0.0000 H   0  0  0  0  0  0  0  0  0  0  0  0
    2.0000   -1.5444    0.0000 H   0  0  0  0  0  0  0  0  0  0  0  0
    2.5369   -3.8544    0.0000 H   0  0  0  0  0  0  0  0  0  0  0  0
  1 18  1  0  0  0  0
  1 24  1  0  0  0  0
  2 25  1  0  0  0  0
  2 30  1  0  0  0  0
  3 19  2  0  0  0  0
  4 29  2  0  0  0  0
  5 35  2  0  0  0  0
  6 38  1  0  0  0  0
  6 84  1  0  0  0  0
  7 37  2  0  0  0  0
  8 43  1  0  0  0  0
  8 86  1  0  0  0  0
  9 42  2  0  0  0  0
 10 47  1  0  0  0  0
 10 89  1  0  0  0  0
 11 49  1  0  0  0  0
 11 90  1  0  0  0  0
 12 19  1  0  0  0  0
 12 20  1  0  0  0  0
 12 21  1  0  0  0  0
 13 17  1  0  0  0  0
 13 24  1  0  0  0  0
 13 56  1  0  0  0  0
 14 23  1  0  0  0  0
 14 30  1  0  0  0  0
 14 70  1  0  0  0  0
 15 27  1  0  0  0  0
 15 29  1  0  0  0  0
 15 71  1  0  0  0  0
 16 32  1  0  0  0  0
 16 42  1  0  0  0  0
 16 78  1  0  0  0  0
 17 18  1  0  0  0  0
 17 19  1  6  0  0  0
 17 52  1  0  0  0  0
 18 26  1  1  0  0  0
 18 53  1  0  0  0  0
 20 22  1  0  0  0  0
 20 54  1  0  0  0  0
 20 55  1  0  0  0  0
 21 28  1  0  0  0  0
 21 57  1  0  0  0  0
 21 58  1  0  0  0  0
 22 27  1  0  0  0  0
 22 59  1  0  0  0  0
 22 60  1  0  0  0  0
 23 25  1  0  0  0  0
 23 29  1  6  0  0  0
 23 61  1  0  0  0  0
 24 31  2  0  0  0  0
 25 33  1  1  0  0  0
 25 62  1  0  0  0  0
 26 63  1  0  0  0  0
 26 64  1  0  0  0  0
 26 65  1  0  0  0  0
 27 66  1  0  0  0  0
 27 67  1  0  0  0  0
 28 32  1  0  0  0  0
 28 68  1  0  0  0  0
 28 69  1  0  0  0  0
 30 34  2  0  0  0  0
 31 35  1  0  0  0  0
 31 36  1  0  0  0  0
 32 72  1  0  0  0  0
 32 73  1  0  0  0  0
 33 74  1  0  0  0  0
 33 75  1  0  0  0  0
 33 76  1  0  0  0  0
 34 37  1  0  0  0  0
 34 39  1  0  0  0  0
 35 38  1  0  0  0  0
 36 40  2  0  0  0  0
 36 77  1  0  0  0  0
 37 43  1  0  0  0  0
 38 41  2  0  0  0  0
 39 44  2  0  0  0  0
 39 79  1  0  0  0  0
 40 41  1  0  0  0  0
 40 80  1  0  0  0  0
 41 81  1  0  0  0  0
 42 46  1  0  0  0  0
 43 45  2  0  0  0  0
 44 45  1  0  0  0  0
 44 82  1  0  0  0  0
 45 83  1  0  0  0  0
 46 47  2  0  0  0  0
 46 48  1  0  0  0  0
 47 49  1  0  0  0  0
 48 50  2  0  0  0  0
 48 85  1  0  0  0  0
 49 51  2  0  0  0  0
 50 51  1  0  0  0  0
 50 87  1  0  0  0  0
 51 88  1  0  0  0  0
M  END
> <PUBCHEM_COMPOUND_CID>
5462333

> <PUBCHEM_COMPOUND_CANONICALIZED>
1

> <PUBCHEM_CACTVS_COMPLEXITY>
1610

> <PUBCHEM_CACTVS_HBOND_ACCEPTOR>
13

> <PUBCHEM_CACTVS_HBOND_DONOR>
8

> <PUBCHEM_CACTVS_ROTATABLE_BOND>
11

> <PUBCHEM_CACTVS_SUBSKEYS>
AAADcfB/vAAAAAAAAAAAAAAAAAAAAWLAAAAwQIAAAAAAAAABAAAAHgAQCAAADDzhmAYyBoPABgCIAqFSUAKCCAAkIAAIiIHOjMkLZjaC1TOdcUlm9hGZmce6yDCOAAABAAAIQAAAAAIAABCAAAAAAAAAAA==

> <PUBCHEM_IUPAC_OPENEYE_NAME>
(2Z,4R,5S)-N-[3-[3-[(2,3-dihydroxybenzoyl)amino]propyl-[(2Z,4S,5R)-2-(5-hydroxy-6-oxo-cyclohexa-2,4-dien-1-ylidene)-5-methyl-oxazolidine-4-carbonyl]amino]propyl]-2-(5-hydroxy-6-oxo-cyclohexa-2,4-dien-1-ylidene)-5-methyl-oxazolidine-4-carboxamide

> <PUBCHEM_IUPAC_CAS_NAME>
(2Z,4R,5S)-N-[3-[3-[[(2,3-dihydroxyphenyl)-oxomethyl]amino]propyl-[[(2Z,4S,5R)-2-(5-hydroxy-6-oxo-1-cyclohexa-2,4-dienylidene)-5-methyl-4-oxazolidinyl]-oxomethyl]amino]propyl]-2-(5-hydroxy-6-oxo-1-cyclohexa-2,4-dienylidene)-5-methyl-4-oxazolidinecarboxamide

> <PUBCHEM_IUPAC_NAME>
(2Z,4R,5S)-N-[3-[3-[(2,3-dihydroxybenzoyl)amino]propyl-[(2Z,4S,5R)-2-(5-hydroxy-6-oxocyclohexa-2,4-dien-1-ylidene)-5-methyl-1,3-oxazolidine-4-carbonyl]amino]propyl]-2-(5-hydroxy-6-oxocyclohexa-2,4-dien-1-ylidene)-5-methyl-1,3-oxazolidine-4-carboxamide

> <PUBCHEM_IUPAC_SYSTEMATIC_NAME>
(2Z,4R,5S)-N-[3-[3-[[2,3-bis(oxidanyl)phenyl]carbonylamino]propyl-[[(2Z,4S,5R)-5-methyl-2-(5-oxidanyl-6-oxidanylidene-cyclohexa-2,4-dien-1-ylidene)-1,3-oxazolidin-4-yl]carbonyl]amino]propyl]-5-methyl-2-(5-oxidanyl-6-oxidanylidene-cyclohexa-2,4-dien-1-ylidene)-1,3-oxazolidine-4-carboxamide

> <PUBCHEM_IUPAC_TRADITIONAL_NAME>
(2Z,4R,5S)-N-[3-[3-[(2,3-dihydroxybenzoyl)amino]propyl-[(2Z,4S,5R)-2-(5-hydroxy-6-keto-cyclohexa-2,4-dien-1-ylidene)-5-methyl-oxazolidine-4-carbonyl]amino]propyl]-2-(5-hydroxy-6-keto-cyclohexa-2,4-dien-1-ylidene)-5-methyl-oxazolidine-4-carboxamide

> <PUBCHEM_IUPAC_INCHI>
InChI=1S/C35H39N5O11/c1-18-26(38-33(50-18)21-9-4-12-24(42)29(21)45)32(48)37-15-7-17-40(16-6-14-36-31(47)20-8-3-11-23(41)28(20)44)35(49)27-19(2)51-34(39-27)22-10-5-13-25(43)30(22)46/h3-5,8-13,18-19,26-27,38-39,41-44H,6-7,14-17H2,1-2H3,(H,36,47)(H,37,48)/b33-21-,34-22-/t18-,19+,26+,27-/m0/s1

> <PUBCHEM_IUPAC_INCHIKEY>
SNUNDXZQRUCXRW-DBIMOCAASA-N

> <PUBCHEM_XLOGP3_AA>
3.3

> <PUBCHEM_EXACT_MASS>
705.264607

> <PUBCHEM_MOLECULAR_FORMULA>
C35H39N5O11

> <PUBCHEM_MOLECULAR_WEIGHT>
705.71106

> <PUBCHEM_OPENEYE_CAN_SMILES>
CC1C(NC(=C2C=CC=C(C2=O)O)O1)C(=O)NCCCN(CCCNC(=O)C3=C(C(=CC=C3)O)O)C(=O)C4C(OC(=C5C=CC=C(C5=O)O)N4)C

> <PUBCHEM_OPENEYE_ISO_SMILES>
C[C@H]1[C@@H](N/C(=C/2\C=CC=C(C2=O)O)/O1)C(=O)NCCCN(CCCNC(=O)C3=C(C(=CC=C3)O)O)C(=O)[C@@H]4[C@H](O/C(=C\5/C=CC=C(C5=O)O)/N4)C

> <PUBCHEM_CACTVS_TPSA>
236

> <PUBCHEM_MONOISOTOPIC_WEIGHT>
705.264607

> <PUBCHEM_TOTAL_CHARGE>
0

> <PUBCHEM_HEAVY_ATOM_COUNT>
51

> <PUBCHEM_ATOM_DEF_STEREO_COUNT>
4

> <PUBCHEM_ATOM_UDEF_STEREO_COUNT>
0

> <PUBCHEM_BOND_DEF_STEREO_COUNT>
2

> <PUBCHEM_BOND_UDEF_STEREO_COUNT>
0

> <PUBCHEM_ISOTOPIC_ATOM_COUNT>
0

> <PUBCHEM_COMPONENT_COUNT>
1

> <PUBCHEM_CACTVS_TAUTO_COUNT>
1000

> <PUBCHEM_COORDINATE_TYPE>
1
5
255

> <PUBCHEM_BONDANNOTATIONS>
17  19  6
18  26  5
23  29  6
25  33  5
46  47  8
46  48  8
47  49  8
48  50  8
49  51  8
50  51  8

$$$$

