5618
  -OEChem-06261200462D

 59 60  0     1  0  0  0  0  0999 V2000
   11.5619    0.6245    0.0000 O   0  0  0  0  0  0  0  0  0  0  0  0
    7.2214   -2.5144    0.0000 O   0  0  0  0  0  0  0  0  0  0  0  0
    2.5989    6.1483    0.0000 O   0  0  0  0  0  0  0  0  0  0  0  0
    2.1506    4.4753    0.0000 O   0  0  0  0  0  0  0  0  0  0  0  0
    9.9887    2.3492    0.0000 C   0  0  3  0  0  0  0  0  0  0  0  0
    7.4978    1.2494    0.0000 C   0  0  3  0  0  0  0  0  0  0  0  0
    7.9978    0.3833    0.0000 C   0  0  3  0  0  0  0  0  0  0  0  0
    9.7299    1.3833    0.0000 C   0  0  3  0  0  0  0  0  0  0  0  0
    9.2521    3.3319    0.0000 C   0  0  0  0  0  0  0  0  0  0  0  0
   11.8207    1.5904    0.0000 C   0  0  0  0  0  0  0  0  0  0  0  0
    6.5319    1.5082    0.0000 C   0  0  0  0  0  0  0  0  0  0  0  0
    7.7390   -0.5826    0.0000 C   0  0  0  0  0  0  0  0  0  0  0  0
    6.2731    2.4741    0.0000 C   0  0  0  0  0  0  0  0  0  0  0  0
    8.4461   -1.2897    0.0000 C   0  0  0  0  0  0  0  0  0  0  0  0
    8.1873   -2.2556    0.0000 C   0  0  3  0  0  0  0  0  0  0  0  0
    5.3072    2.7329    0.0000 C   0  0  0  0  0  0  0  0  0  0  0  0
    8.8944   -2.9627    0.0000 C   0  0  0  0  0  0  0  0  0  0  0  0
    5.0484    3.6988    0.0000 C   0  0  0  0  0  0  0  0  0  0  0  0
    8.6356   -3.9287    0.0000 C   0  0  0  0  0  0  0  0  0  0  0  0
    4.0824    3.9577    0.0000 C   0  0  0  0  0  0  0  0  0  0  0  0
    9.3427   -4.6358    0.0000 C   0  0  0  0  0  0  0  0  0  0  0  0
    3.8236    4.9236    0.0000 C   0  0  0  0  0  0  0  0  0  0  0  0
    9.0839   -5.6017    0.0000 C   0  0  0  0  0  0  0  0  0  0  0  0
    9.7910   -6.3088    0.0000 C   0  0  0  0  0  0  0  0  0  0  0  0
    2.8577    5.1824    0.0000 C   0  0  0  0  0  0  0  0  0  0  0  0
    9.9986    1.4993    0.0000 H   0  0  0  0  0  0  0  0  0  0  0  0
    7.4325    2.0968    0.0000 H   0  0  0  0  0  0  0  0  0  0  0  0
    7.1551    0.2724    0.0000 H   0  0  0  0  0  0  0  0  0  0  0  0
    9.7855    0.5351    0.0000 H   0  0  0  0  0  0  0  0  0  0  0  0
    9.5699    3.8642    0.0000 H   0  0  0  0  0  0  0  0  0  0  0  0
    8.6390    3.4238    0.0000 H   0  0  0  0  0  0  0  0  0  0  0  0
   12.4120    1.4040    0.0000 H   0  0  0  0  0  0  0  0  0  0  0  0
   12.0327    2.1730    0.0000 H   0  0  0  0  0  0  0  0  0  0  0  0
    5.9143    1.4541    0.0000 H   0  0  0  0  0  0  0  0  0  0  0  0
    6.4779    0.8905    0.0000 H   0  0  0  0  0  0  0  0  0  0  0  0
    7.1402   -0.7431    0.0000 H   0  0  0  0  0  0  0  0  0  0  0  0
    6.7115    2.9125    0.0000 H   0  0  0  0  0  0  0  0  0  0  0  0
    9.0450   -1.1292    0.0000 H   0  0  0  0  0  0  0  0  0  0  0  0
    7.9673   -3.0767    0.0000 H   0  0  0  0  0  0  0  0  0  0  0  0
    4.8688    2.2945    0.0000 H   0  0  0  0  0  0  0  0  0  0  0  0
    9.4563   -3.2248    0.0000 H   0  0  0  0  0  0  0  0  0  0  0  0
    9.2500   -2.4549    0.0000 H   0  0  0  0  0  0  0  0  0  0  0  0
    5.6660    3.7529    0.0000 H   0  0  0  0  0  0  0  0  0  0  0  0
    5.1024    4.3165    0.0000 H   0  0  0  0  0  0  0  0  0  0  0  0
    8.0737   -3.6666    0.0000 H   0  0  0  0  0  0  0  0  0  0  0  0
    8.2800   -4.4365    0.0000 H   0  0  0  0  0  0  0  0  0  0  0  0
    7.0609   -3.1133    0.0000 H   0  0  0  0  0  0  0  0  0  0  0  0
    3.4648    3.9036    0.0000 H   0  0  0  0  0  0  0  0  0  0  0  0
    4.0284    3.3400    0.0000 H   0  0  0  0  0  0  0  0  0  0  0  0
    9.9046   -4.8978    0.0000 H   0  0  0  0  0  0  0  0  0  0  0  0
    9.6983   -4.1279    0.0000 H   0  0  0  0  0  0  0  0  0  0  0  0
    8.5220   -5.3397    0.0000 H   0  0  0  0  0  0  0  0  0  0  0  0
    8.7283   -6.1096    0.0000 H   0  0  0  0  0  0  0  0  0  0  0  0
    4.4413    4.9776    0.0000 H   0  0  0  0  0  0  0  0  0  0  0  0
    3.8777    5.5412    0.0000 H   0  0  0  0  0  0  0  0  0  0  0  0
    9.3526   -6.7472    0.0000 H   0  0  0  0  0  0  0  0  0  0  0  0
   10.2294   -6.7472    0.0000 H   0  0  0  0  0  0  0  0  0  0  0  0
   10.2294   -5.8704    0.0000 H   0  0  0  0  0  0  0  0  0  0  0  0
    2.0000    6.3088    0.0000 H   0  0  0  0  0  0  0  0  0  0  0  0
  1  8  1  0  0  0  0
  1 10  1  0  0  0  0
  2 15  1  0  0  0  0
  2 47  1  0  0  0  0
  3 25  1  0  0  0  0
  3 59  1  0  0  0  0
  4 25  2  0  0  0  0
  5  6  1  0  0  0  0
  5  9  1  0  0  0  0
  5 10  1  0  0  0  0
  5 26  1  0  0  0  0
  6  7  1  0  0  0  0
  6 11  1  0  0  0  0
  6 27  1  0  0  0  0
  7  8  1  0  0  0  0
  7 12  1  0  0  0  0
  7 28  1  0  0  0  0
  8  9  1  0  0  0  0
  8 29  1  0  0  0  0
  9 30  1  0  0  0  0
  9 31  1  0  0  0  0
 10 32  1  0  0  0  0
 10 33  1  0  0  0  0
 11 13  1  0  0  0  0
 11 34  1  0  0  0  0
 11 35  1  0  0  0  0
 12 14  2  3  0  0  0
 12 36  1  0  0  0  0
 13 16  2  3  0  0  0
 13 37  1  0  0  0  0
 14 15  1  0  0  0  0
 14 38  1  0  0  0  0
 15 17  1  0  0  0  0
 15 39  1  0  0  0  0
 16 18  1  0  0  0  0
 16 40  1  0  0  0  0
 17 19  1  0  0  0  0
 17 41  1  0  0  0  0
 17 42  1  0  0  0  0
 18 20  1  0  0  0  0
 18 43  1  0  0  0  0
 18 44  1  0  0  0  0
 19 21  1  0  0  0  0
 19 45  1  0  0  0  0
 19 46  1  0  0  0  0
 20 22  1  0  0  0  0
 20 48  1  0  0  0  0
 20 49  1  0  0  0  0
 21 23  1  0  0  0  0
 21 50  1  0  0  0  0
 21 51  1  0  0  0  0
 22 25  1  0  0  0  0
 22 54  1  0  0  0  0
 22 55  1  0  0  0  0
 23 24  1  0  0  0  0
 23 52  1  0  0  0  0
 23 53  1  0  0  0  0
 24 56  1  0  0  0  0
 24 57  1  0  0  0  0
 24 58  1  0  0  0  0
M  END
> <PUBCHEM_COMPOUND_CID>
5618

> <PUBCHEM_COMPOUND_CANONICALIZED>
1

> <PUBCHEM_CACTVS_COMPLEXITY>
457

> <PUBCHEM_CACTVS_HBOND_ACCEPTOR>
4

> <PUBCHEM_CACTVS_HBOND_DONOR>
2

> <PUBCHEM_CACTVS_ROTATABLE_BOND>
12

> <PUBCHEM_CACTVS_SUBSKEYS>
AAADcfB4OAAAAAAAAAAAAAAAAAAAAaIAAAAkAAAAAAAAAAAAAAAAGgAACAAADRSggAICCAAABgCIACDSCAAAAAAgAAAICAEAAAgAFBIAAQACUAAEwAAIEAOIwLAOgAAAAAAAAAAAAAAAAAAAAYAADAAAAA==

> <PUBCHEM_IUPAC_OPENEYE_NAME>
7-[3-(3-hydroxyoct-1-enyl)-5-oxabicyclo[2.2.1]heptan-2-yl]hept-5-enoic acid

> <PUBCHEM_IUPAC_CAS_NAME>
7-[3-(3-hydroxyoct-1-enyl)-5-oxabicyclo[2.2.1]heptan-2-yl]-5-heptenoic acid

> <PUBCHEM_IUPAC_NAME>
7-[3-(3-hydroxyoct-1-enyl)-5-oxabicyclo[2.2.1]heptan-2-yl]hept-5-enoic acid

> <PUBCHEM_IUPAC_SYSTEMATIC_NAME>
7-[3-(3-oxidanyloct-1-enyl)-5-oxabicyclo[2.2.1]heptan-2-yl]hept-5-enoic acid

> <PUBCHEM_IUPAC_TRADITIONAL_NAME>
7-[3-(3-hydroxyoct-1-enyl)-5-oxabicyclo[2.2.1]heptan-2-yl]hept-5-enoic acid

> <PUBCHEM_IUPAC_INCHI>
InChI=1S/C21H34O4/c1-2-3-6-9-17(22)12-13-19-18(16-14-20(19)25-15-16)10-7-4-5-8-11-21(23)24/h4,7,12-13,16-20,22H,2-3,5-6,8-11,14-15H2,1H3,(H,23,24)

> <PUBCHEM_IUPAC_INCHIKEY>
LQANGKSBLPMBTJ-UHFFFAOYSA-N

> <PUBCHEM_XLOGP3_AA>
3.9

> <PUBCHEM_EXACT_MASS>
350.24571

> <PUBCHEM_MOLECULAR_FORMULA>
C21H34O4

> <PUBCHEM_MOLECULAR_WEIGHT>
350.49226

> <PUBCHEM_OPENEYE_CAN_SMILES>
CCCCCC(C=CC1C2CC(C1CC=CCCCC(=O)O)CO2)O

> <PUBCHEM_OPENEYE_ISO_SMILES>
CCCCCC(C=CC1C2CC(C1CC=CCCCC(=O)O)CO2)O

> <PUBCHEM_CACTVS_TPSA>
66.8

> <PUBCHEM_MONOISOTOPIC_WEIGHT>
350.24571

> <PUBCHEM_TOTAL_CHARGE>
0

> <PUBCHEM_HEAVY_ATOM_COUNT>
25

> <PUBCHEM_ATOM_DEF_STEREO_COUNT>
0

> <PUBCHEM_ATOM_UDEF_STEREO_COUNT>
5

> <PUBCHEM_BOND_DEF_STEREO_COUNT>
0

> <PUBCHEM_BOND_UDEF_STEREO_COUNT>
2

> <PUBCHEM_ISOTOPIC_ATOM_COUNT>
0

> <PUBCHEM_COMPONENT_COUNT>
1

> <PUBCHEM_CACTVS_TAUTO_COUNT>
1

> <PUBCHEM_COORDINATE_TYPE>
1
5
255

> <PUBCHEM_BONDANNOTATIONS>
12  14  1
13  16  1
15  39  3
5  26  3
6  27  3
7  28  3
8  29  3

$$$$

