   Color/Form

     * Deep purple, hexagonal prisms from benzene and methanol
     * Red, rhombic, almost square leaflets from petroleum ether; dil soln
       are yellow
     * CRYSTALLINE FORM APPEARS DEEP ORANGE OR COPPER-COLORED
     * Red-brown hexagonal prisms from benzene and methanol

   from [1]HSDB

   Melting Point
        183 deg C (evacuated tube)
   from [2]HSDB

   Density/Specific Gravity
        1.00 at 20 deg C/20 deg C
   from [3]HSDB

   Octanol/Water Partition Coefficient
        log Kow = 17.62 (est)
   from [4]HSDB

   Solubilities

     * Sol in benzene, chloroform, carbon disulfide; moderately sol in
       ether, petroleum ether, oils; 100 ml hexane dissolve 109 mg at 0
       deg C; very sparingly sol in methanol and ethanol; practically
       insol in water, acids, alkalies
     * SOL IN FAT SOLVENTS
     * Soluble in acetone
     * Soluble in vegetable oils
     * Insoluble in ethanol, glycerol, propylene glycol; slightly soluble
       in boiling organic solvents such as ether (0.05%), benzene (0.2%),
       carbon disulfide (1%), methylene chloride (0.5%); solubility in
       edible oils 0.08% at room temperature, 0.2% at 60 deg C and 0.8% at
       100 deg C.
     * Solubility: 3 mg/L in methyl Cellosolve; 2 mg/L in ethanol
     * In water, 0.6 mg/L, temp not specified

   from [5]HSDB

   Spectral Properties

     * Max absorption (chloroform): 497, 466 nm
     * MAX ABSORPTION (BENZENE): 278 NM (LOG E= 4.30), 364 NM (LOG E=
       4.62), 463 NM (LOG E= 5.10), 494 NM (LOG E= 4.77)
     * Max Absorption: 456, 484 nm (E=2500, 2200)(in ethanol)
     * IR: 11591 (Sadtler Research Laboratories Prism Collection)
     * UV: 7-1258 (Organic Electronic Spectral Data, Phillips et al, John
       Wiley & Sons, New York)
     * MASS: 280 (Aldermaston, Eight Peak Index of Mass Spectra, UK);
       68285 (NIST/EPA/MSDC Mass Spectral database, 1990 version

   from [6]HSDB

   Vapor Pressure
        1.8X10-11 mm Hg at 25 deg C (est)
   from [7]HSDB

   Other Chemical/Physical Properties

     * Sensitive to alkali and very sensitive to air and light,
       particularly at high temperatures.
     * IR: 21933 (Sadtler Research Laboratories Prism Collection)
       /Alpha-carotene/
     * UV: 7-1258 (Organic Electronic Spectral Data, Phillips et al, John
       Wiley & Sons, New York) /Alpha-carotene/
     * MASS: 280 (Aldermaston, Eight Peak Index of Mass Spectra, UK)
       /Alpha-carotene/
     * UV: 7-1258 (Organic Electronic Spectral Data, Phillips et al, John
       Wiley & Sons, New York) /Gamma-carotene/
     * MASS: 280 (Aldermaston, Eight Peak Index of Mass Spectra, UK)
       /Gamma-carotene/
     * Henry's Law constant = 1.1X10+2 atm-cu m/mol at 25 deg C (est)
     * Hydroxyl radical reaction rate constant = 7.4X10-10 cu cm/molec-sec
       at 25 deg C (est)

   from [8]HSDB

   Computed Properties
   Molecular Weight                  536.87264 [g/mol]
   Molecular Formula                 C[40]H[56]
   XLogP3                            13.5
   H-Bond Donor                      0
   H-Bond Acceptor                   0
   Rotatable Bond Count              10
   Exact Mass                        536.438202
   MonoIsotopic Mass                 536.438202
   Topological Polar Surface Area    0
   Heavy Atom Count                  40
   Formal Charge                     0
   Complexity                        1120
   Isotope Atom Count                0
   Defined Atom Stereocenter Count   0
   Undefined Atom Stereocenter Count 0
   Defined Bond Stereocenter Count   9
   Undefined Bond Stereocenter Count 0
   Covalently-Bonded Unit Count      1
   Feature 3D Hydrophobe Count       6
   Feature 3D Ring Count             2
   Effective Rotor Count             11.6
   Conformer Sampling RMSD           1.2
   CID Conformer Count               [9]48

References

   1. http://toxnet.nlm.nih.gov/cgi-bin/sis/search/r?dbs+hsdb:@term+@rn+@rel+7235-40-7
   2. http://toxnet.nlm.nih.gov/cgi-bin/sis/search/r?dbs+hsdb:@term+@rn+@rel+7235-40-7
   3. http://toxnet.nlm.nih.gov/cgi-bin/sis/search/r?dbs+hsdb:@term+@rn+@rel+7235-40-7
   4. http://toxnet.nlm.nih.gov/cgi-bin/sis/search/r?dbs+hsdb:@term+@rn+@rel+7235-40-7
   5. http://toxnet.nlm.nih.gov/cgi-bin/sis/search/r?dbs+hsdb:@term+@rn+@rel+7235-40-7
   6. http://toxnet.nlm.nih.gov/cgi-bin/sis/search/r?dbs+hsdb:@term+@rn+@rel+7235-40-7
   7. http://toxnet.nlm.nih.gov/cgi-bin/sis/search/r?dbs+hsdb:@term+@rn+@rel+7235-40-7
   8. http://toxnet.nlm.nih.gov/cgi-bin/sis/search/r?dbs+hsdb:@term+@rn+@rel+7235-40-7
   9. http://pubchem.ncbi.nlm.nih.gov/vw3d/vw3d.cgi?cid=5280489
