12305182
  -OEChem-07051213092D

 81 85  0     1  0  0  0  0  0999 V2000
    2.5357   -1.9012    0.0000 O   0  0  0  0  0  0  0  0  0  0  0  0
    7.9288    1.1511    0.0000 C   0  0  1  0  0  0  0  0  0  0  0  0
    7.9288    0.1511    0.0000 C   0  0  2  0  0  0  0  0  0  0  0  0
    8.8228    1.6858    0.0000 C   0  0  2  0  0  0  0  0  0  0  0  0
    9.7288    1.1719    0.0000 C   0  0  2  0  0  0  0  0  0  0  0  0
    7.0628   -0.3489    0.0000 C   0  0  1  0  0  0  0  0  0  0  0  0
    8.8228   -0.3835    0.0000 C   0  0  0  0  0  0  0  0  0  0  0  0
   10.4911    1.8727    0.0000 C   0  0  1  0  0  0  0  0  0  0  0  0
    9.7288    0.1303    0.0000 C   0  0  0  0  0  0  0  0  0  0  0  0
    9.0329    2.6997    0.0000 C   0  0  0  0  0  0  0  0  0  0  0  0
    7.0628    1.6511    0.0000 C   0  0  0  0  0  0  0  0  0  0  0  0
    6.1968    0.1511    0.0000 C   0  0  0  0  0  0  0  0  0  0  0  0
    5.2868   -0.3557    0.0000 C   0  0  2  0  0  0  0  0  0  0  0  0
   10.0619    2.8150    0.0000 C   0  0  0  0  0  0  0  0  0  0  0  0
    5.2787   -1.3973    0.0000 C   0  0  1  0  0  0  0  0  0  0  0  0
    7.0789   -1.3904    0.0000 C   0  0  0  0  0  0  0  0  0  0  0  0
    7.9288    2.1511    0.0000 C   0  0  0  0  0  0  0  0  0  0  0  0
    7.9288   -0.8489    0.0000 C   0  0  0  0  0  0  0  0  0  0  0  0
    6.1808   -1.9181    0.0000 C   0  0  0  0  0  0  0  0  0  0  0  0
    6.1968    1.1511    0.0000 C   0  0  0  0  0  0  0  0  0  0  0  0
   10.5987    0.6786    0.0000 C   0  0  0  0  0  0  0  0  0  0  0  0
    4.3433   -1.9470    0.0000 C   0  0  0  0  0  0  0  0  0  0  0  0
   11.4712    1.6740    0.0000 C   0  0  0  0  0  0  0  0  0  0  0  0
    4.3599    0.2084    0.0000 C   0  0  0  0  0  0  0  0  0  0  0  0
    3.4037   -1.4046    0.0000 C   0  0  2  0  0  0  0  0  0  0  0  0
    5.2945    0.6442    0.0000 C   0  0  0  0  0  0  0  0  0  0  0  0
    3.4120   -0.3196    0.0000 C   0  0  0  0  0  0  0  0  0  0  0  0
    3.8467   -2.8150    0.0000 C   0  0  0  0  0  0  0  0  0  0  0  0
    4.8466   -2.8111    0.0000 C   0  0  0  0  0  0  0  0  0  0  0  0
   12.1333    2.4234    0.0000 C   0  0  0  0  0  0  0  0  0  0  0  0
   11.7892    0.7259    0.0000 C   0  0  0  0  0  0  0  0  0  0  0  0
    8.1300    2.1783    0.0000 H   0  0  0  0  0  0  0  0  0  0  0  0
    7.8022   -0.7682    0.0000 H   0  0  0  0  0  0  0  0  0  0  0  0
    8.4182   -0.8533    0.0000 H   0  0  0  0  0  0  0  0  0  0  0  0
    9.2164   -0.8626    0.0000 H   0  0  0  0  0  0  0  0  0  0  0  0
   10.8770    2.3580    0.0000 H   0  0  0  0  0  0  0  0  0  0  0  0
    9.9379   -0.4534    0.0000 H   0  0  0  0  0  0  0  0  0  0  0  0
   10.3397    0.2364    0.0000 H   0  0  0  0  0  0  0  0  0  0  0  0
    9.0290    3.3197    0.0000 H   0  0  0  0  0  0  0  0  0  0  0  0
    8.4159    2.7610    0.0000 H   0  0  0  0  0  0  0  0  0  0  0  0
    7.4613    2.1261    0.0000 H   0  0  0  0  0  0  0  0  0  0  0  0
    6.6643    2.1261    0.0000 H   0  0  0  0  0  0  0  0  0  0  0  0
   10.6500    3.0113    0.0000 H   0  0  0  0  0  0  0  0  0  0  0  0
    9.9285    3.4205    0.0000 H   0  0  0  0  0  0  0  0  0  0  0  0
    5.2820   -2.2473    0.0000 H   0  0  0  0  0  0  0  0  0  0  0  0
    7.2969   -1.9708    0.0000 H   0  0  0  0  0  0  0  0  0  0  0  0
    7.6880   -1.2749    0.0000 H   0  0  0  0  0  0  0  0  0  0  0  0
    8.5488    2.1511    0.0000 H   0  0  0  0  0  0  0  0  0  0  0  0
    7.9288    2.7711    0.0000 H   0  0  0  0  0  0  0  0  0  0  0  0
    7.3088    2.1511    0.0000 H   0  0  0  0  0  0  0  0  0  0  0  0
    7.3088   -0.8489    0.0000 H   0  0  0  0  0  0  0  0  0  0  0  0
    7.9288   -1.4689    0.0000 H   0  0  0  0  0  0  0  0  0  0  0  0
    8.5488   -0.8489    0.0000 H   0  0  0  0  0  0  0  0  0  0  0  0
    5.7835   -2.3941    0.0000 H   0  0  0  0  0  0  0  0  0  0  0  0
    6.5818   -2.3910    0.0000 H   0  0  0  0  0  0  0  0  0  0  0  0
    5.6598    1.4611    0.0000 H   0  0  0  0  0  0  0  0  0  0  0  0
   10.2928    0.1393    0.0000 H   0  0  0  0  0  0  0  0  0  0  0  0
   11.1380    0.3728    0.0000 H   0  0  0  0  0  0  0  0  0  0  0  0
   10.9045    1.2179    0.0000 H   0  0  0  0  0  0  0  0  0  0  0  0
   11.0607    1.2094    0.0000 H   0  0  0  0  0  0  0  0  0  0  0  0
    4.7681    0.6750    0.0000 H   0  0  0  0  0  0  0  0  0  0  0  0
    3.9700    0.6904    0.0000 H   0  0  0  0  0  0  0  0  0  0  0  0
    3.4025   -2.0246    0.0000 H   0  0  0  0  0  0  0  0  0  0  0  0
    5.9145    0.6395    0.0000 H   0  0  0  0  0  0  0  0  0  0  0  0
    5.2993    1.2642    0.0000 H   0  0  0  0  0  0  0  0  0  0  0  0
    4.6745    0.6490    0.0000 H   0  0  0  0  0  0  0  0  0  0  0  0
    3.2075    0.2657    0.0000 H   0  0  0  0  0  0  0  0  0  0  0  0
    2.8004   -0.4210    0.0000 H   0  0  0  0  0  0  0  0  0  0  0  0
    3.3085   -2.5071    0.0000 H   0  0  0  0  0  0  0  0  0  0  0  0
    3.5387   -3.3531    0.0000 H   0  0  0  0  0  0  0  0  0  0  0  0
    4.3848   -3.1229    0.0000 H   0  0  0  0  0  0  0  0  0  0  0  0
    4.3109   -3.1232    0.0000 H   0  0  0  0  0  0  0  0  0  0  0  0
    5.1587   -3.3469    0.0000 H   0  0  0  0  0  0  0  0  0  0  0  0
    5.3824   -2.4991    0.0000 H   0  0  0  0  0  0  0  0  0  0  0  0
   12.5979    2.0130    0.0000 H   0  0  0  0  0  0  0  0  0  0  0  0
   12.5438    2.8881    0.0000 H   0  0  0  0  0  0  0  0  0  0  0  0
   11.6687    2.8340    0.0000 H   0  0  0  0  0  0  0  0  0  0  0  0
   11.2014    0.5288    0.0000 H   0  0  0  0  0  0  0  0  0  0  0  0
   11.9863    0.1381    0.0000 H   0  0  0  0  0  0  0  0  0  0  0  0
   12.3770    0.9231    0.0000 H   0  0  0  0  0  0  0  0  0  0  0  0
    2.0000   -1.5891    0.0000 H   0  0  0  0  0  0  0  0  0  0  0  0
 25  1  1  1  0  0  0
  1 81  1  0  0  0  0
  2  3  1  0  0  0  0
  2  4  1  0  0  0  0
  2 11  1  0  0  0  0
  2 17  1  1  0  0  0
  3  6  1  0  0  0  0
  3  7  1  0  0  0  0
  3 18  1  6  0  0  0
  4  5  1  0  0  0  0
  4 10  1  0  0  0  0
  4 32  1  6  0  0  0
  5  8  1  0  0  0  0
  5  9  1  0  0  0  0
  5 21  1  1  0  0  0
  6 12  1  0  0  0  0
  6 16  1  0  0  0  0
  6 33  1  1  0  0  0
  7  9  1  0  0  0  0
  7 34  1  0  0  0  0
  7 35  1  0  0  0  0
  8 14  1  0  0  0  0
  8 23  1  1  0  0  0
  8 36  1  0  0  0  0
  9 37  1  0  0  0  0
  9 38  1  0  0  0  0
 10 14  1  0  0  0  0
 10 39  1  0  0  0  0
 10 40  1  0  0  0  0
 11 20  1  0  0  0  0
 11 41  1  0  0  0  0
 11 42  1  0  0  0  0
 12 13  1  0  0  0  0
 12 20  2  0  0  0  0
 13 15  1  0  0  0  0
 13 24  1  0  0  0  0
 13 26  1  1  0  0  0
 14 43  1  0  0  0  0
 14 44  1  0  0  0  0
 15 19  1  0  0  0  0
 15 22  1  0  0  0  0
 15 45  1  6  0  0  0
 16 19  1  0  0  0  0
 16 46  1  0  0  0  0
 16 47  1  0  0  0  0
 17 48  1  0  0  0  0
 17 49  1  0  0  0  0
 17 50  1  0  0  0  0
 18 51  1  0  0  0  0
 18 52  1  0  0  0  0
 18 53  1  0  0  0  0
 19 54  1  0  0  0  0
 19 55  1  0  0  0  0
 20 56  1  0  0  0  0
 21 57  1  0  0  0  0
 21 58  1  0  0  0  0
 21 59  1  0  0  0  0
 22 25  1  0  0  0  0
 22 28  1  0  0  0  0
 22 29  1  0  0  0  0
 23 30  1  0  0  0  0
 23 31  1  0  0  0  0
 23 60  1  0  0  0  0
 24 27  1  0  0  0  0
 24 61  1  0  0  0  0
 24 62  1  0  0  0  0
 25 27  1  0  0  0  0
 25 63  1  0  0  0  0
 26 64  1  0  0  0  0
 26 65  1  0  0  0  0
 26 66  1  0  0  0  0
 27 67  1  0  0  0  0
 27 68  1  0  0  0  0
 28 69  1  0  0  0  0
 28 70  1  0  0  0  0
 28 71  1  0  0  0  0
 29 72  1  0  0  0  0
 29 73  1  0  0  0  0
 29 74  1  0  0  0  0
 30 75  1  0  0  0  0
 30 76  1  0  0  0  0
 30 77  1  0  0  0  0
 31 78  1  0  0  0  0
 31 79  1  0  0  0  0
 31 80  1  0  0  0  0
M  END
> <PUBCHEM_COMPOUND_CID>
12305182

> <PUBCHEM_COMPOUND_CANONICALIZED>
1

> <PUBCHEM_CACTVS_COMPLEXITY>
777

> <PUBCHEM_CACTVS_HBOND_ACCEPTOR>
1

> <PUBCHEM_CACTVS_HBOND_DONOR>
1

> <PUBCHEM_CACTVS_ROTATABLE_BOND>
1

> <PUBCHEM_CACTVS_SUBSKEYS>
AAADcfB4IAAAAAAAAAAAAAAAAAAAAYAAAAAwYMEAAAAAAGDAAAAAGgAACAAADxSggAICAAAAAgCAAiBCAAAAAAAgAAAACAAAAAgAEAIAAQAAQAAEgAAIAAOAwPAPgAAAAAAAAADAAAYAADAAAQAACAAAAA==

> <PUBCHEM_IUPAC_OPENEYE_NAME>
(3S,3aS,5aS,5bS,7aR,9S,11aS,13aR,13bS)-3-isopropyl-3a,5a,8,8,11a,13a-hexamethyl-1,2,3,4,5,5b,6,7,7a,9,10,11,13,13b-tetradecahydrocyclopenta[a]chrysen-9-ol

> <PUBCHEM_IUPAC_CAS_NAME>
(3S,3aS,5aS,5bS,7aR,9S,11aS,13aR,13bS)-3a,5a,8,8,11a,13a-hexamethyl-3-propan-2-yl-1,2,3,4,5,5b,6,7,7a,9,10,11,13,13b-tetradecahydrocyclopenta[a]chrysen-9-ol

> <PUBCHEM_IUPAC_NAME>
(3S,3aS,5aS,5bS,7aR,9S,11aS,13aR,13bS)-3a,5a,8,8,11a,13a-hexamethyl-3-propan-2-yl-1,2,3,4,5,5b,6,7,7a,9,10,11,13,13b-tetradecahydrocyclopenta[a]chrysen-9-ol

> <PUBCHEM_IUPAC_SYSTEMATIC_NAME>
(3S,3aS,5aS,5bS,7aR,9S,11aS,13aR,13bS)-3a,5a,8,8,11a,13a-hexamethyl-3-propan-2-yl-1,2,3,4,5,5b,6,7,7a,9,10,11,13,13b-tetradecahydrocyclopenta[a]chrysen-9-ol

> <PUBCHEM_IUPAC_TRADITIONAL_NAME>
(3S,3aS,5aS,5bS,7aR,9S,11aS,13aR,13bS)-3-isopropyl-3a,5a,8,8,11a,13a-hexamethyl-1,2,3,4,5,5b,6,7,7a,9,10,11,13,13b-tetradecahydrocyclopenta[a]chrysen-9-ol

> <PUBCHEM_IUPAC_INCHI>
InChI=1S/C30H50O/c1-19(2)20-9-12-24-28(20,6)17-18-29(7)22-10-11-23-26(3,4)25(31)14-15-27(23,5)21(22)13-16-30(24,29)8/h13,19-20,22-25,31H,9-12,14-18H2,1-8H3/t20-,22+,23-,24-,25-,27+,28-,29-,30+/m0/s1

> <PUBCHEM_IUPAC_INCHIKEY>
VWYANPOOORUCFJ-MBVQSDBHSA-N

> <PUBCHEM_XLOGP3_AA>
9

> <PUBCHEM_EXACT_MASS>
426.386166

> <PUBCHEM_MOLECULAR_FORMULA>
C30H50O

> <PUBCHEM_MOLECULAR_WEIGHT>
426.7174

> <PUBCHEM_OPENEYE_CAN_SMILES>
CC(C)C1CCC2C1(CCC3(C2(CC=C4C3CCC5C4(CCC(C5(C)C)O)C)C)C)C

> <PUBCHEM_OPENEYE_ISO_SMILES>
CC(C)[C@@H]1CC[C@H]2[C@]1(CC[C@@]3([C@@]2(CC=C4[C@H]3CC[C@@H]5[C@@]4(CC[C@@H](C5(C)C)O)C)C)C)C

> <PUBCHEM_CACTVS_TPSA>
20.2

> <PUBCHEM_MONOISOTOPIC_WEIGHT>
426.386166

> <PUBCHEM_TOTAL_CHARGE>
0

> <PUBCHEM_HEAVY_ATOM_COUNT>
31

> <PUBCHEM_ATOM_DEF_STEREO_COUNT>
9

> <PUBCHEM_ATOM_UDEF_STEREO_COUNT>
0

> <PUBCHEM_BOND_DEF_STEREO_COUNT>
0

> <PUBCHEM_BOND_UDEF_STEREO_COUNT>
0

> <PUBCHEM_ISOTOPIC_ATOM_COUNT>
0

> <PUBCHEM_COMPONENT_COUNT>
1

> <PUBCHEM_CACTVS_TAUTO_COUNT>
1

> <PUBCHEM_COORDINATE_TYPE>
1
5
255

> <PUBCHEM_BONDANNOTATIONS>
25  1  5
13  26  5
15  45  6
2  17  5
3  18  6
4  32  6
5  21  5
6  33  5
8  23  5

$$$$

