441725
  -OEChem-07051212552D

 71 76  0     1  0  0  0  0  0999 V2000
    4.1887   -1.5407    0.0000 O   0  0  0  0  0  0  0  0  0  0  0  0
    3.7474   -0.7026    0.0000 O   0  0  0  0  0  0  0  0  0  0  0  0
    5.2650   -1.8714    0.0000 O   0  0  0  0  0  0  0  0  0  0  0  0
    7.0876    1.8904    0.0000 O   0  0  0  0  0  0  0  0  0  0  0  0
    3.3708    1.4645    0.0000 O   0  0  0  0  0  0  0  0  0  0  0  0
    2.9700    2.3483    0.0000 O   0  0  0  0  0  0  0  0  0  0  0  0
    7.9536   -2.3448    0.0000 O   0  0  0  0  0  0  0  0  0  0  0  0
    8.2830    0.0613    0.0000 N   0  0  3  0  0  0  0  0  0  0  0  0
    6.3363    0.4566    0.0000 C   0  0  2  0  0  0  0  0  0  0  0  0
    6.3363   -0.4110    0.0000 C   0  0  2  0  0  0  0  0  0  0  0  0
    7.3382    0.3505    0.0000 C   0  0  3  0  0  0  0  0  0  0  0  0
    4.8122   -0.7589    0.0000 C   0  0  2  0  0  0  0  0  0  0  0  0
    5.6580    0.9975    0.0000 C   0  0  1  0  0  0  0  0  0  0  0  0
    4.8122    0.8044    0.0000 C   0  0  1  0  0  0  0  0  0  0  0  0
    4.4357    0.0228    0.0000 C   0  0  1  0  0  0  0  0  0  0  0  0
    5.6580   -0.9519    0.0000 C   0  0  1  0  0  0  0  0  0  0  0  0
    7.0876   -0.8448    0.0000 C   0  0  2  0  0  0  0  0  0  0  0  0
    7.0876    0.8904    0.0000 C   0  0  2  0  0  0  0  0  0  0  0  0
    5.7358    1.8616    0.0000 C   0  0  0  0  0  0  0  0  0  0  0  0
    4.9380    2.2026    0.0000 C   0  0  1  0  0  0  0  0  0  0  0  0
    4.3672    1.5492    0.0000 C   0  0  2  0  0  0  0  0  0  0  0  0
    3.7908    0.2927    0.0000 C   0  0  0  0  0  0  0  0  0  0  0  0
    8.2830   -0.6906    0.0000 C   0  0  0  0  0  0  0  0  0  0  0  0
    7.8390   -0.4110    0.0000 C   0  0  0  0  0  0  0  0  0  0  0  0
    3.7908    1.7772    0.0000 C   0  0  2  0  0  0  0  0  0  0  0  0
    7.8390    0.4566    0.0000 C   0  0  0  0  0  0  0  0  0  0  0  0
    7.0876   -1.8448    0.0000 C   0  0  0  0  0  0  0  0  0  0  0  0
    9.0869    0.6560    0.0000 C   0  0  0  0  0  0  0  0  0  0  0  0
    5.8648   -2.6716    0.0000 C   0  0  0  0  0  0  0  0  0  0  0  0
   10.0039    0.2571    0.0000 C   0  0  0  0  0  0  0  0  0  0  0  0
    3.0541    3.3448    0.0000 C   0  0  0  0  0  0  0  0  0  0  0  0
    7.9536   -3.3448    0.0000 C   0  0  0  0  0  0  0  0  0  0  0  0
    6.3998   -1.2586    0.0000 H   0  0  0  0  0  0  0  0  0  0  0  0
    7.4622    0.9580    0.0000 H   0  0  0  0  0  0  0  0  0  0  0  0
    6.4396    1.3316    0.0000 H   0  0  0  0  0  0  0  0  0  0  0  0
    3.9630    0.7663    0.0000 H   0  0  0  0  0  0  0  0  0  0  0  0
    5.8584   -1.5386    0.0000 H   0  0  0  0  0  0  0  0  0  0  0  0
    6.5507    1.2004    0.0000 H   0  0  0  0  0  0  0  0  0  0  0  0
    5.9185    2.4540    0.0000 H   0  0  0  0  0  0  0  0  0  0  0  0
    6.3441    1.7418    0.0000 H   0  0  0  0  0  0  0  0  0  0  0  0
    4.9588    3.0523    0.0000 H   0  0  0  0  0  0  0  0  0  0  0  0
    4.0871    2.1023    0.0000 H   0  0  0  0  0  0  0  0  0  0  0  0
    3.6289   -0.3058    0.0000 H   0  0  0  0  0  0  0  0  0  0  0  0
    3.1762    0.3744    0.0000 H   0  0  0  0  0  0  0  0  0  0  0  0
    8.9024   -0.6640    0.0000 H   0  0  0  0  0  0  0  0  0  0  0  0
    8.3359   -1.3083    0.0000 H   0  0  0  0  0  0  0  0  0  0  0  0
    8.4495   -0.3033    0.0000 H   0  0  0  0  0  0  0  0  0  0  0  0
    8.0510   -0.9936    0.0000 H   0  0  0  0  0  0  0  0  0  0  0  0
    3.8690    2.3923    0.0000 H   0  0  0  0  0  0  0  0  0  0  0  0
    8.0510    1.0392    0.0000 H   0  0  0  0  0  0  0  0  0  0  0  0
    8.4495    0.3489    0.0000 H   0  0  0  0  0  0  0  0  0  0  0  0
    6.8756   -2.4274    0.0000 H   0  0  0  0  0  0  0  0  0  0  0  0
    6.4770   -1.7371    0.0000 H   0  0  0  0  0  0  0  0  0  0  0  0
    4.4152   -2.1178    0.0000 H   0  0  0  0  0  0  0  0  0  0  0  0
    3.1445   -0.5579    0.0000 H   0  0  0  0  0  0  0  0  0  0  0  0
    8.6373    1.0829    0.0000 H   0  0  0  0  0  0  0  0  0  0  0  0
    9.4292    1.1730    0.0000 H   0  0  0  0  0  0  0  0  0  0  0  0
    7.6246    2.2004    0.0000 H   0  0  0  0  0  0  0  0  0  0  0  0
    3.1073    0.9033    0.0000 H   0  0  0  0  0  0  0  0  0  0  0  0
    6.3609   -2.2997    0.0000 H   0  0  0  0  0  0  0  0  0  0  0  0
    6.2367   -3.1677    0.0000 H   0  0  0  0  0  0  0  0  0  0  0  0
    5.3687   -3.0435    0.0000 H   0  0  0  0  0  0  0  0  0  0  0  0
   10.2512    0.8256    0.0000 H   0  0  0  0  0  0  0  0  0  0  0  0
   10.5724    0.0098    0.0000 H   0  0  0  0  0  0  0  0  0  0  0  0
    9.7566   -0.3114    0.0000 H   0  0  0  0  0  0  0  0  0  0  0  0
    2.4363    3.3970    0.0000 H   0  0  0  0  0  0  0  0  0  0  0  0
    3.1063    3.9626    0.0000 H   0  0  0  0  0  0  0  0  0  0  0  0
    3.6719    3.2926    0.0000 H   0  0  0  0  0  0  0  0  0  0  0  0
    8.5736   -3.3448    0.0000 H   0  0  0  0  0  0  0  0  0  0  0  0
    7.9536   -3.9648    0.0000 H   0  0  0  0  0  0  0  0  0  0  0  0
    7.3336   -3.3448    0.0000 H   0  0  0  0  0  0  0  0  0  0  0  0
 12  1  1  1  0  0  0
  1 54  1  0  0  0  0
 15  2  1  6  0  0  0
  2 55  1  0  0  0  0
 16  3  1  6  0  0  0
  3 29  1  0  0  0  0
 18  4  1  1  0  0  0
  4 58  1  0  0  0  0
 21  5  1  1  0  0  0
  5 59  1  0  0  0  0
 25  6  1  6  0  0  0
  6 31  1  0  0  0  0
  7 27  1  0  0  0  0
  7 32  1  0  0  0  0
  8 11  1  0  0  0  0
  8 23  1  0  0  0  0
  8 28  1  0  0  0  0
  9 10  1  0  0  0  0
  9 11  1  0  0  0  0
  9 13  1  0  0  0  0
  9 18  1  6  0  0  0
 10 16  1  0  0  0  0
 10 17  1  0  0  0  0
 10 33  1  6  0  0  0
 11 12  1  0  0  0  0
 11 34  1  0  0  0  0
 12 15  1  0  0  0  0
 12 16  1  0  0  0  0
 13 14  1  0  0  0  0
 13 19  1  0  0  0  0
 13 35  1  6  0  0  0
 14 15  1  0  0  0  0
 14 21  1  0  0  0  0
 14 36  1  6  0  0  0
 15 22  1  0  0  0  0
 16 37  1  0  0  0  0
 17 23  1  0  0  0  0
 17 24  1  0  0  0  0
 17 27  1  6  0  0  0
 18 26  1  0  0  0  0
 18 38  1  0  0  0  0
 19 20  1  0  0  0  0
 19 39  1  0  0  0  0
 19 40  1  0  0  0  0
 20 21  1  0  0  0  0
 20 25  1  0  0  0  0
 20 41  1  6  0  0  0
 21 42  1  0  0  0  0
 22 25  1  0  0  0  0
 22 43  1  0  0  0  0
 22 44  1  0  0  0  0
 23 45  1  0  0  0  0
 23 46  1  0  0  0  0
 24 26  1  0  0  0  0
 24 47  1  0  0  0  0
 24 48  1  0  0  0  0
 25 49  1  0  0  0  0
 26 50  1  0  0  0  0
 26 51  1  0  0  0  0
 27 52  1  0  0  0  0
 27 53  1  0  0  0  0
 28 30  1  0  0  0  0
 28 56  1  0  0  0  0
 28 57  1  0  0  0  0
 29 60  1  0  0  0  0
 29 61  1  0  0  0  0
 29 62  1  0  0  0  0
 30 63  1  0  0  0  0
 30 64  1  0  0  0  0
 30 65  1  0  0  0  0
 31 66  1  0  0  0  0
 31 67  1  0  0  0  0
 31 68  1  0  0  0  0
 32 69  1  0  0  0  0
 32 70  1  0  0  0  0
 32 71  1  0  0  0  0
M  END
> <PUBCHEM_COMPOUND_CID>
441725

> <PUBCHEM_COMPOUND_CANONICALIZED>
1

> <PUBCHEM_CACTVS_COMPLEXITY>
798

> <PUBCHEM_CACTVS_HBOND_ACCEPTOR>
8

> <PUBCHEM_CACTVS_HBOND_DONOR>
4

> <PUBCHEM_CACTVS_ROTATABLE_BOND>
5

> <PUBCHEM_CACTVS_SUBSKEYS>
AAADcfB6OAAAAAAAAAAAAAAAAAAAAYMAAAA8YMEAB4gWAGAAAAAAHgAACAAAD3zhgAYCAAMABgAAAAAAAAAAAAAAAAAAAAAIAAADEAIAgAAEQAAHAACTAAHw8P8PgAAAAAAAAADQAAaUADSgAaEADSgAAA==

> <PUBCHEM_IUPAC_INCHI>
InChI=1S/C24H39NO7/c1-5-25-10-21(11-30-2)7-6-15(26)23-13-8-12-14(31-3)9-22(28,16(13)17(12)27)24(29,20(23)25)19(32-4)18(21)23/h12-20,26-29H,5-11H2,1-4H3/t12-,13-,14+,15+,16-,17+,18-,19+,20?,21+,22-,23+,24-/m1/s1

> <PUBCHEM_IUPAC_INCHIKEY>
BMZNJVXOLCBDPZ-AXCJZLSHSA-N

> <PUBCHEM_XLOGP3_AA>
-1.1

> <PUBCHEM_EXACT_MASS>
453.272653

> <PUBCHEM_MOLECULAR_FORMULA>
C24H39NO7

> <PUBCHEM_MOLECULAR_WEIGHT>
453.56896

> <PUBCHEM_OPENEYE_CAN_SMILES>
CCN1CC2(CCC(C34C2C(C(C31)(C5(CC(C6CC4C5C6O)OC)O)O)OC)O)COC

> <PUBCHEM_OPENEYE_ISO_SMILES>
CCN1C[C@@]2(CC[C@@H]([C@@]34[C@@H]2[C@@H]([C@@](C31)([C@]5(C[C@@H]([C@H]6C[C@@H]4[C@@H]5[C@H]6O)OC)O)O)OC)O)COC

> <PUBCHEM_CACTVS_TPSA>
112

> <PUBCHEM_MONOISOTOPIC_WEIGHT>
453.272653

> <PUBCHEM_TOTAL_CHARGE>
0

> <PUBCHEM_HEAVY_ATOM_COUNT>
32

> <PUBCHEM_ATOM_DEF_STEREO_COUNT>
12

> <PUBCHEM_ATOM_UDEF_STEREO_COUNT>
1

> <PUBCHEM_BOND_DEF_STEREO_COUNT>
0

> <PUBCHEM_BOND_UDEF_STEREO_COUNT>
0

> <PUBCHEM_ISOTOPIC_ATOM_COUNT>
0

> <PUBCHEM_COMPONENT_COUNT>
1

> <PUBCHEM_CACTVS_TAUTO_COUNT>
1

> <PUBCHEM_COORDINATE_TYPE>
1
5
255

> <PUBCHEM_BONDANNOTATIONS>
12  1  5
10  33  6
13  35  6
14  36  6
17  27  6
15  2  6
20  41  6
16  3  6
18  4  5
21  5  5
25  6  6
11  8  3
9  18  6

$$$$

