94253
  -OEChem-07051212572D

 39 41  0     1  0  0  0  0  0999 V2000
    3.5836   -0.0387    0.0000 O   0  0  0  0  0  0  0  0  0  0  0  0
    4.8698    2.0582    0.0000 O   0  0  0  0  0  0  0  0  0  0  0  0
    8.0321   -0.3466    0.0000 O   0  0  0  0  0  0  0  0  0  0  0  0
    2.0000   -0.8435    0.0000 O   0  0  0  0  0  0  0  0  0  0  0  0
    5.3958    0.1565    0.0000 C   0  0  1  0  0  0  0  0  0  0  0  0
    6.2619   -0.3435    0.0000 C   0  0  1  0  0  0  0  0  0  0  0  0
    4.5298   -0.3435    0.0000 C   0  0  2  0  0  0  0  0  0  0  0  0
    4.5298   -1.3435    0.0000 C   0  0  1  0  0  0  0  0  0  0  0  0
    6.2619   -1.3435    0.0000 C   0  0  0  0  0  0  0  0  0  0  0  0
    5.3958   -1.8435    0.0000 C   0  0  0  0  0  0  0  0  0  0  0  0
    5.3798    1.1980    0.0000 C   0  0  1  0  0  0  0  0  0  0  0  0
    3.5836   -1.6482    0.0000 C   0  0  1  0  0  0  0  0  0  0  0  0
    7.1719    0.1634    0.0000 C   0  0  0  0  0  0  0  0  0  0  0  0
    7.1279   -0.8435    0.0000 C   0  0  0  0  0  0  0  0  0  0  0  0
    3.0000   -0.8435    0.0000 C   0  0  0  0  0  0  0  0  0  0  0  0
    6.2778    1.7258    0.0000 C   0  0  0  0  0  0  0  0  0  0  0  0
    4.3799    1.1865    0.0000 C   0  0  0  0  0  0  0  0  0  0  0  0
    7.1799    1.2050    0.0000 C   0  0  0  0  0  0  0  0  0  0  0  0
    3.2729   -2.5987    0.0000 C   0  0  0  0  0  0  0  0  0  0  0  0
    6.1287    0.5872    0.0000 H   0  0  0  0  0  0  0  0  0  0  0  0
    4.4399    0.5018    0.0000 H   0  0  0  0  0  0  0  0  0  0  0  0
    4.4399   -2.1887    0.0000 H   0  0  0  0  0  0  0  0  0  0  0  0
    6.4739   -1.9261    0.0000 H   0  0  0  0  0  0  0  0  0  0  0  0
    6.8725   -1.2358    0.0000 H   0  0  0  0  0  0  0  0  0  0  0  0
    4.9973   -2.3184    0.0000 H   0  0  0  0  0  0  0  0  0  0  0  0
    5.7944   -2.3184    0.0000 H   0  0  0  0  0  0  0  0  0  0  0  0
    2.9711   -1.7444    0.0000 H   0  0  0  0  0  0  0  0  0  0  0  0
    6.8179   -1.3804    0.0000 H   0  0  0  0  0  0  0  0  0  0  0  0
    7.6648   -1.1535    0.0000 H   0  0  0  0  0  0  0  0  0  0  0  0
    7.4379   -0.3065    0.0000 H   0  0  0  0  0  0  0  0  0  0  0  0
    6.2754    2.3458    0.0000 H   0  0  0  0  0  0  0  0  0  0  0  0
    4.3727    1.8064    0.0000 H   0  0  0  0  0  0  0  0  0  0  0  0
    3.7599    1.1793    0.0000 H   0  0  0  0  0  0  0  0  0  0  0  0
    4.3870    0.5665    0.0000 H   0  0  0  0  0  0  0  0  0  0  0  0
    7.7180    1.5129    0.0000 H   0  0  0  0  0  0  0  0  0  0  0  0
    2.6836   -2.4061    0.0000 H   0  0  0  0  0  0  0  0  0  0  0  0
    3.0803   -3.1880    0.0000 H   0  0  0  0  0  0  0  0  0  0  0  0
    3.8623   -2.7913    0.0000 H   0  0  0  0  0  0  0  0  0  0  0  0
    5.1736    2.5987    0.0000 H   0  0  0  0  0  0  0  0  0  0  0  0
  1  7  1  0  0  0  0
  1 15  1  0  0  0  0
 11  2  1  6  0  0  0
  2 39  1  0  0  0  0
  3 13  2  0  0  0  0
  4 15  2  0  0  0  0
  5  6  1  0  0  0  0
  5  7  1  0  0  0  0
  5 11  1  0  0  0  0
  5 20  1  6  0  0  0
  6  9  1  0  0  0  0
  6 13  1  0  0  0  0
  6 14  1  1  0  0  0
  7  8  1  0  0  0  0
  7 21  1  1  0  0  0
  8 10  1  0  0  0  0
  8 12  1  0  0  0  0
  8 22  1  6  0  0  0
  9 10  1  0  0  0  0
  9 23  1  0  0  0  0
  9 24  1  0  0  0  0
 10 25  1  0  0  0  0
 10 26  1  0  0  0  0
 11 16  1  0  0  0  0
 11 17  1  0  0  0  0
 12 15  1  0  0  0  0
 12 19  1  6  0  0  0
 12 27  1  0  0  0  0
 13 18  1  0  0  0  0
 14 28  1  0  0  0  0
 14 29  1  0  0  0  0
 14 30  1  0  0  0  0
 16 18  2  0  0  0  0
 16 31  1  0  0  0  0
 17 32  1  0  0  0  0
 17 33  1  0  0  0  0
 17 34  1  0  0  0  0
 18 35  1  0  0  0  0
 19 36  1  0  0  0  0
 19 37  1  0  0  0  0
 19 38  1  0  0  0  0
M  END
> <PUBCHEM_COMPOUND_CID>
94253

> <PUBCHEM_COMPOUND_CANONICALIZED>
1

> <PUBCHEM_CACTVS_COMPLEXITY>
483

> <PUBCHEM_CACTVS_HBOND_ACCEPTOR>
4

> <PUBCHEM_CACTVS_HBOND_DONOR>
1

> <PUBCHEM_CACTVS_ROTATABLE_BOND>
0

> <PUBCHEM_CACTVS_SUBSKEYS>
AAADceBwOAAAAAAAAAAAAAAAAAAAASAAAAAwQAAAAAAAAEiAAAAAGgAACAAAD1SggAICCAAABgCIAKDSCAAAAAAgAAAICAEAAEgABBIAAAACUAAFgAAIEYOKyPCPgAAAAAAAAACAAAYAADAAAAAAAAAAAA==

> <PUBCHEM_IUPAC_OPENEYE_NAME>
(3S,3aS,5aR,9R,9aS,9bS)-9-hydroxy-3,5a,9-trimethyl-3,3a,4,5,9a,9b-hexahydrobenzo[g]benzofuran-2,6-dione

> <PUBCHEM_IUPAC_CAS_NAME>
(3S,3aS,5aR,9R,9aS,9bS)-9-hydroxy-3,5a,9-trimethyl-3,3a,4,5,9a,9b-hexahydrobenzo[g]benzofuran-2,6-dione

> <PUBCHEM_IUPAC_NAME>
(3S,3aS,5aR,9R,9aS,9bS)-9-hydroxy-3,5a,9-trimethyl-3,3a,4,5,9a,9b-hexahydrobenzo[g][1]benzofuran-2,6-dione

> <PUBCHEM_IUPAC_SYSTEMATIC_NAME>
(3S,3aS,5aR,9R,9aS,9bS)-3,5a,9-trimethyl-9-oxidanyl-3,3a,4,5,9a,9b-hexahydrobenzo[g][1]benzofuran-2,6-dione

> <PUBCHEM_IUPAC_TRADITIONAL_NAME>
(3S,3aS,5aR,9R,9aS,9bS)-9-hydroxy-3,5a,9-trimethyl-3,3a,4,5,9a,9b-hexahydrobenzo[g]benzofuran-2,6-quinone

> <PUBCHEM_IUPAC_INCHI>
InChI=1S/C15H20O4/c1-8-9-4-6-14(2)10(16)5-7-15(3,18)12(14)11(9)19-13(8)17/h5,7-9,11-12,18H,4,6H2,1-3H3/t8-,9-,11-,12+,14-,15+/m0/s1

> <PUBCHEM_IUPAC_INCHIKEY>
NGPDZEACIWDCKX-WUDKWMPASA-N

> <PUBCHEM_XLOGP3_AA>
1.2

> <PUBCHEM_EXACT_MASS>
264.136159

> <PUBCHEM_MOLECULAR_FORMULA>
C15H20O4

> <PUBCHEM_MOLECULAR_WEIGHT>
264.3169

> <PUBCHEM_OPENEYE_CAN_SMILES>
CC1C2CCC3(C(C2OC1=O)C(C=CC3=O)(C)O)C

> <PUBCHEM_OPENEYE_ISO_SMILES>
C[C@H]1[C@@H]2CC[C@@]3([C@@H]([C@H]2OC1=O)[C@](C=CC3=O)(C)O)C

> <PUBCHEM_CACTVS_TPSA>
63.6

> <PUBCHEM_MONOISOTOPIC_WEIGHT>
264.136159

> <PUBCHEM_TOTAL_CHARGE>
0

> <PUBCHEM_HEAVY_ATOM_COUNT>
19

> <PUBCHEM_ATOM_DEF_STEREO_COUNT>
6

> <PUBCHEM_ATOM_UDEF_STEREO_COUNT>
0

> <PUBCHEM_BOND_DEF_STEREO_COUNT>
0

> <PUBCHEM_BOND_UDEF_STEREO_COUNT>
0

> <PUBCHEM_ISOTOPIC_ATOM_COUNT>
0

> <PUBCHEM_COMPONENT_COUNT>
1

> <PUBCHEM_CACTVS_TAUTO_COUNT>
2

> <PUBCHEM_COORDINATE_TYPE>
1
5
255

> <PUBCHEM_BONDANNOTATIONS>
12  19  6
11  2  6
5  20  6
6  14  5
7  21  5
8  22  6

$$$$

