   Color/Form

     * White, rhomboid prisms
     * Colorless ... solid

   from [1]HSDB

   Odor
        Odorless
   from [2]HSDB

   Boiling Point
        Decomposes
   from [3]HSDB

   Melting Point
        632 deg C
   from [4]HSDB

   Corrosivity
        Slightly corrosive to iron
   from [5]HSDB

   Density/Specific Gravity
        6.77
   from [6]HSDB

   Solubilities
        Solubility in 100 ml water at 0 deg C: 2.70 g, at 20 deg C: 4.87
   g, at 100 deg C: 18.45 g
   from [7]HSDB

   Spectral Properties
        Index of refraction: 1.860, 1.867, 1.885
   from [8]HSDB

   Vapor Pressure
        Zero
   from [9]HSDB

   Other Chemical/Physical Properties

     * Heat of fusion 5500 cal/g mole; 10.9 cal/g
     * Heat of solution: (absorbs heat) 29.5 Btu/lb= 16.4 cal/g= 6.86X10+5
       J/kg
     * Thallium(III) forms some organo-metallic compounds ... .
       /Thallium(III) ion/
     * Exists in two oxidation states, /thallous/ (Tl(I)) and /thallic/
       (Tl(III)). /Thallium/

   from [10]HSDB

   Computed Properties
   Molecular Weight                  504.8292 [g/mol]
   Molecular Formula                 O[4]STl[2]
   H-Bond Donor                      0
   H-Bond Acceptor                   4
   Rotatable Bond Count              0
   Exact Mass                        505.900584
   MonoIsotopic Mass                 505.900584
   Topological Polar Surface Area    88.6
   Heavy Atom Count                  7
   Formal Charge                     0
   Complexity                        62.2
   Isotope Atom Count                0
   Defined Atom Stereocenter Count   0
   Undefined Atom Stereocenter Count 0
   Defined Bond Stereocenter Count   0
   Undefined Bond Stereocenter Count 0
   Covalently-Bonded Unit Count      3

References

   1. http://toxnet.nlm.nih.gov/cgi-bin/sis/search/r?dbs+hsdb:@term+@rn+@rel+10031-59-1
   2. http://toxnet.nlm.nih.gov/cgi-bin/sis/search/r?dbs+hsdb:@term+@rn+@rel+10031-59-1
   3. http://toxnet.nlm.nih.gov/cgi-bin/sis/search/r?dbs+hsdb:@term+@rn+@rel+10031-59-1
   4. http://toxnet.nlm.nih.gov/cgi-bin/sis/search/r?dbs+hsdb:@term+@rn+@rel+10031-59-1
   5. http://toxnet.nlm.nih.gov/cgi-bin/sis/search/r?dbs+hsdb:@term+@rn+@rel+10031-59-1
   6. http://toxnet.nlm.nih.gov/cgi-bin/sis/search/r?dbs+hsdb:@term+@rn+@rel+10031-59-1
   7. http://toxnet.nlm.nih.gov/cgi-bin/sis/search/r?dbs+hsdb:@term+@rn+@rel+10031-59-1
   8. http://toxnet.nlm.nih.gov/cgi-bin/sis/search/r?dbs+hsdb:@term+@rn+@rel+10031-59-1
   9. http://toxnet.nlm.nih.gov/cgi-bin/sis/search/r?dbs+hsdb:@term+@rn+@rel+10031-59-1
  10. http://toxnet.nlm.nih.gov/cgi-bin/sis/search/r?dbs+hsdb:@term+@rn+@rel+10031-59-1
