46173861
  -OEChem-07051213092D

 60 64  0     1  0  0  0  0  0999 V2000
    2.8304    1.0974    0.0000 O   0  0  0  0  0  0  0  0  0  0  0  0
    7.2580    0.7713    0.0000 O   0  0  0  0  0  0  0  0  0  0  0  0
    4.5797    3.0760    0.0000 O   0  0  0  0  0  0  0  0  0  0  0  0
    7.2580    2.3808    0.0000 O   0  0  0  0  0  0  0  0  0  0  0  0
    5.9457    3.4421    0.0000 O   0  0  0  0  0  0  0  0  0  0  0  0
    7.2700   -0.4695    0.0000 O   0  0  0  0  0  0  0  0  0  0  0  0
    2.0000    2.6058    0.0000 O   0  0  0  0  0  0  0  0  0  0  0  0
    7.3022   -2.5609    0.0000 O   0  0  0  0  0  0  0  0  0  0  0  0
    4.5797    1.0760    0.0000 C   0  0  2  0  0  0  0  0  0  0  0  0
    5.4457    0.5760    0.0000 C   0  0  1  0  0  0  0  0  0  0  0  0
    4.5797    2.0760    0.0000 C   0  0  1  0  0  0  0  0  0  0  0  0
    5.4618   -0.4655    0.0000 C   0  0  1  0  0  0  0  0  0  0  0  0
    3.6697    0.5692    0.0000 C   0  0  1  0  0  0  0  0  0  0  0  0
    6.3118    1.0760    0.0000 C   0  0  1  0  0  0  0  0  0  0  0  0
    4.5638   -0.9932    0.0000 C   0  0  1  0  0  0  0  0  0  0  0  0
    5.4457    2.5760    0.0000 C   0  0  1  0  0  0  0  0  0  0  0  0
    6.3118    2.0760    0.0000 C   0  0  2  0  0  0  0  0  0  0  0  0
    3.6617   -0.4724    0.0000 C   0  0  0  0  0  0  0  0  0  0  0  0
    4.5797    0.0760    0.0000 C   0  0  0  0  0  0  0  0  0  0  0  0
    3.7215    2.5730    0.0000 C   0  0  0  0  0  0  0  0  0  0  0  0
    4.5554   -2.0782    0.0000 C   0  0  1  0  0  0  0  0  0  0  0  0
    6.3239    0.0412    0.0000 C   0  0  0  0  0  0  0  0  0  0  0  0
    6.4137   -0.9861    0.0000 C   0  0  0  0  0  0  0  0  0  0  0  0
    5.2721    3.5608    0.0000 C   0  0  0  0  0  0  0  0  0  0  0  0
    2.8560    2.0888    0.0000 C   0  0  0  0  0  0  0  0  0  0  0  0
    7.8416    1.5760    0.0000 C   0  0  0  0  0  0  0  0  0  0  0  0
    5.4950   -2.6207    0.0000 C   0  0  0  0  0  0  0  0  0  0  0  0
    6.4305   -2.0710    0.0000 C   0  0  0  0  0  0  0  0  0  0  0  0
    3.6874   -2.5748    0.0000 C   0  0  0  0  0  0  0  0  0  0  0  0
    7.3138   -3.5608    0.0000 C   0  0  0  0  0  0  0  0  0  0  0  0
    6.1851    0.1567    0.0000 H   0  0  0  0  0  0  0  0  0  0  0  0
    2.9240    0.1612    0.0000 H   0  0  0  0  0  0  0  0  0  0  0  0
    6.4017    0.2308    0.0000 H   0  0  0  0  0  0  0  0  0  0  0  0
    3.8260   -1.4154    0.0000 H   0  0  0  0  0  0  0  0  0  0  0  0
    6.4017    2.9213    0.0000 H   0  0  0  0  0  0  0  0  0  0  0  0
    3.0517   -0.3616    0.0000 H   0  0  0  0  0  0  0  0  0  0  0  0
    3.4481   -1.0545    0.0000 H   0  0  0  0  0  0  0  0  0  0  0  0
    3.9597    0.0760    0.0000 H   0  0  0  0  0  0  0  0  0  0  0  0
    4.5797   -0.5440    0.0000 H   0  0  0  0  0  0  0  0  0  0  0  0
    5.1997    0.0760    0.0000 H   0  0  0  0  0  0  0  0  0  0  0  0
    4.1226    3.0458    0.0000 H   0  0  0  0  0  0  0  0  0  0  0  0
    3.3275    3.0517    0.0000 H   0  0  0  0  0  0  0  0  0  0  0  0
    4.0203   -1.7651    0.0000 H   0  0  0  0  0  0  0  0  0  0  0  0
    6.6381   -0.4933    0.0000 H   0  0  0  0  0  0  0  0  0  0  0  0
    6.8585    0.3553    0.0000 H   0  0  0  0  0  0  0  0  0  0  0  0
    6.0098    0.5757    0.0000 H   0  0  0  0  0  0  0  0  0  0  0  0
    5.8827    3.6685    0.0000 H   0  0  0  0  0  0  0  0  0  0  0  0
    5.1644    4.1714    0.0000 H   0  0  0  0  0  0  0  0  0  0  0  0
    4.6615    3.4532    0.0000 H   0  0  0  0  0  0  0  0  0  0  0  0
    4.0428    3.3860    0.0000 H   0  0  0  0  0  0  0  0  0  0  0  0
    8.3025    1.1613    0.0000 H   0  0  0  0  0  0  0  0  0  0  0  0
    8.3025    1.9908    0.0000 H   0  0  0  0  0  0  0  0  0  0  0  0
    5.4974   -3.2407    0.0000 H   0  0  0  0  0  0  0  0  0  0  0  0
    6.5657    3.4421    0.0000 H   0  0  0  0  0  0  0  0  0  0  0  0
    3.3795   -2.0367    0.0000 H   0  0  0  0  0  0  0  0  0  0  0  0
    3.1493   -2.8828    0.0000 H   0  0  0  0  0  0  0  0  0  0  0  0
    3.9954   -3.1130    0.0000 H   0  0  0  0  0  0  0  0  0  0  0  0
    6.6938   -3.5680    0.0000 H   0  0  0  0  0  0  0  0  0  0  0  0
    7.3209   -4.1808    0.0000 H   0  0  0  0  0  0  0  0  0  0  0  0
    7.9337   -3.5537    0.0000 H   0  0  0  0  0  0  0  0  0  0  0  0
  1 13  1  0  0  0  0
  1 25  1  0  0  0  0
  2 14  1  0  0  0  0
  2 26  1  0  0  0  0
 11  3  1  6  0  0  0
  3 50  1  0  0  0  0
  4 17  1  0  0  0  0
  4 26  1  0  0  0  0
 16  5  1  6  0  0  0
  5 54  1  0  0  0  0
  6 23  2  0  0  0  0
  7 25  2  0  0  0  0
  8 28  1  0  0  0  0
  8 30  1  0  0  0  0
  9 10  1  0  0  0  0
  9 11  1  0  0  0  0
  9 13  1  0  0  0  0
  9 19  1  6  0  0  0
 10 12  1  0  0  0  0
 10 14  1  0  0  0  0
 10 31  1  1  0  0  0
 11 16  1  0  0  0  0
 11 20  1  0  0  0  0
 12 15  1  0  0  0  0
 12 22  1  6  0  0  0
 12 23  1  0  0  0  0
 13 18  1  0  0  0  0
 13 32  1  6  0  0  0
 14 17  1  0  0  0  0
 14 33  1  6  0  0  0
 15 18  1  0  0  0  0
 15 21  1  0  0  0  0
 15 34  1  1  0  0  0
 16 17  1  0  0  0  0
 16 24  1  0  0  0  0
 17 35  1  1  0  0  0
 18 36  1  0  0  0  0
 18 37  1  0  0  0  0
 19 38  1  0  0  0  0
 19 39  1  0  0  0  0
 19 40  1  0  0  0  0
 20 25  1  0  0  0  0
 20 41  1  0  0  0  0
 20 42  1  0  0  0  0
 21 27  1  0  0  0  0
 21 29  1  1  0  0  0
 21 43  1  0  0  0  0
 22 44  1  0  0  0  0
 22 45  1  0  0  0  0
 22 46  1  0  0  0  0
 23 28  1  0  0  0  0
 24 47  1  0  0  0  0
 24 48  1  0  0  0  0
 24 49  1  0  0  0  0
 26 51  1  0  0  0  0
 26 52  1  0  0  0  0
 27 28  2  0  0  0  0
 27 53  1  0  0  0  0
 29 55  1  0  0  0  0
 29 56  1  0  0  0  0
 29 57  1  0  0  0  0
 30 58  1  0  0  0  0
 30 59  1  0  0  0  0
 30 60  1  0  0  0  0
M  END
> <PUBCHEM_COMPOUND_CID>
46173861

> <PUBCHEM_COMPOUND_CANONICALIZED>
1

> <PUBCHEM_CACTVS_COMPLEXITY>
854

> <PUBCHEM_CACTVS_HBOND_ACCEPTOR>
8

> <PUBCHEM_CACTVS_HBOND_DONOR>
2

> <PUBCHEM_CACTVS_ROTATABLE_BOND>
1

> <PUBCHEM_CACTVS_SUBSKEYS>
AAADceB4PAAAAAAAAAAAAAAAAAAAASAAAAA0YIEAAAAAAEjQAAAAGgAACAAAD1SggAMCCAAABgCIAKDSCAIACAAgIAAACAFAAEgRABYAAAQiQAAFoAAPAYPK7PzPgAAAAAAAAADCAAYQADCAAAAAAAAAAA==

> <PUBCHEM_IUPAC_INCHI>
InChI=1S/C22H30O8/c1-10-6-12(27-5)17(24)19(2)11(10)7-13-20(3)16(19)15-18(29-9-28-15)21(4,25)22(20,26)8-14(23)30-13/h6,10-11,13,15-16,18,25-26H,7-9H2,1-5H3/t10-,11+,13-,15+,16-,18-,19+,20-,21-,22+/m1/s1

> <PUBCHEM_IUPAC_INCHIKEY>
PTNGNIZYEVURDF-FCESQLEQSA-N

> <PUBCHEM_XLOGP3_AA>
0.7

> <PUBCHEM_EXACT_MASS>
422.194068

> <PUBCHEM_MOLECULAR_FORMULA>
C22H30O8

> <PUBCHEM_MOLECULAR_WEIGHT>
422.4688

> <PUBCHEM_OPENEYE_CAN_SMILES>
CC1C=C(C(=O)C2(C1CC3C4(C2C5C(C(C4(CC(=O)O3)O)(C)O)OCO5)C)C)OC

> <PUBCHEM_OPENEYE_ISO_SMILES>
C[C@@H]1C=C(C(=O)[C@]2([C@H]1C[C@@H]3[C@@]4([C@@H]2[C@H]5[C@H]([C@@]([C@@]4(CC(=O)O3)O)(C)O)OCO5)C)C)OC

> <PUBCHEM_CACTVS_TPSA>
112

> <PUBCHEM_MONOISOTOPIC_WEIGHT>
422.194068

> <PUBCHEM_TOTAL_CHARGE>
0

> <PUBCHEM_HEAVY_ATOM_COUNT>
30

> <PUBCHEM_ATOM_DEF_STEREO_COUNT>
10

> <PUBCHEM_ATOM_UDEF_STEREO_COUNT>
0

> <PUBCHEM_BOND_DEF_STEREO_COUNT>
0

> <PUBCHEM_BOND_UDEF_STEREO_COUNT>
0

> <PUBCHEM_ISOTOPIC_ATOM_COUNT>
0

> <PUBCHEM_COMPONENT_COUNT>
1

> <PUBCHEM_CACTVS_TAUTO_COUNT>
6

> <PUBCHEM_COORDINATE_TYPE>
1
5
255

> <PUBCHEM_BONDANNOTATIONS>
10  31  5
12  22  6
13  32  6
14  33  6
15  34  5
17  35  5
21  29  5
11  3  6
16  5  6
9  19  6

$$$$

