   Color/Form
        Colorless crystals from ethyl acetate + methanol
   from [1]HSDB

   Melting Point
        183-185 deg C
   from [2]HSDB

   Dissociation Constants
        pKa1 = 2.45 (carboxylic acid); pKa2 = 6.70 (N-heterocyclic) (est)
   from [3]HSDB

   Octanol/Water Partition Coefficient
        log Kow = 4.79 (est)
   from [4]HSDB

   Solubilities
        In water, 1.4X10-1 mg/L at 25 deg C (est)
   from [5]HSDB

   Vapor Pressure
        1.8X10-18 mm Hg at 25 deg C (est)
   from [6]HSDB

   Other Chemical/Physical Properties

     * White to off-white powder, mw - 610.67. Practically insoluble in
       water and sparingly soluble in methanol. ... a racemic mixture
       containing one chiral center at the cyclohexyloxycarbonyloxy ethyl
       ester group. Following oral administration ... undergoes hydrolysis
       at the ester link to form the active drug, candesartan, which is
       achiral. /Cilexetil/
     * White, or practically white, crystalline powder, mw - 297.72 ..
       Slightly soluble in water, but freely soluble in hydroxide solution
       /Cilexetil hydrochlorothiazide/
     * Henry's Law constant = 8.7X10-19 atm-cu m/mol at 25 deg C (est)
     * Hydroxyl radical reaction rate constant = 4.96X10-11 cu
       cm/molec-sec at 25 deg C (est)

   from [7]HSDB

   Computed Properties
   Molecular Weight                  440.454 [g/mol]
   Molecular Formula                 C[24]H[20]N[6]O[3]
   XLogP3-AA                         4.1
   H-Bond Donor                      2
   H-Bond Acceptor                   7
   Rotatable Bond Count              7
   Tautomer Count                    2
   Exact Mass                        440.159689
   MonoIsotopic Mass                 440.159689
   Topological Polar Surface Area    119
   Heavy Atom Count                  33
   Formal Charge                     0
   Complexity                        660
   Isotope Atom Count                0
   Defined Atom Stereocenter Count   0
   Undefined Atom Stereocenter Count 0
   Defined Bond Stereocenter Count   0
   Undefined Bond Stereocenter Count 0
   Covalently-Bonded Unit Count      1
   Feature 3D Acceptor Count         2
   Feature 3D Anion Count            1
   Feature 3D Cation Count           2
   Feature 3D Ring Count             5
   Effective Rotor Count             7
   Conformer Sampling RMSD           1
   CID Conformer Count               [8]15

References

   1. http://toxnet.nlm.nih.gov/cgi-bin/sis/search/r?dbs+hsdb:@term+@rn+@rel+139481-59-7
   2. http://toxnet.nlm.nih.gov/cgi-bin/sis/search/r?dbs+hsdb:@term+@rn+@rel+139481-59-7
   3. http://toxnet.nlm.nih.gov/cgi-bin/sis/search/r?dbs+hsdb:@term+@rn+@rel+139481-59-7
   4. http://toxnet.nlm.nih.gov/cgi-bin/sis/search/r?dbs+hsdb:@term+@rn+@rel+139481-59-7
   5. http://toxnet.nlm.nih.gov/cgi-bin/sis/search/r?dbs+hsdb:@term+@rn+@rel+139481-59-7
   6. http://toxnet.nlm.nih.gov/cgi-bin/sis/search/r?dbs+hsdb:@term+@rn+@rel+139481-59-7
   7. http://toxnet.nlm.nih.gov/cgi-bin/sis/search/r?dbs+hsdb:@term+@rn+@rel+139481-59-7
   8. http://pubchem.ncbi.nlm.nih.gov/vw3d/vw3d.cgi?cid=2541
