17395576
  -OEChem-06241222512D

 47 49  0     1  0  0  0  0  0999 V2000
    5.7567   -0.0285    0.0000 S   0  0  0  0  0  0  0  0  0  0  0  0
    7.4888    0.9715    0.0000 O   0  0  0  0  0  0  0  0  0  0  0  0
    6.6227    2.4715    0.0000 N   0  0  0  0  0  0  0  0  0  0  0  0
    4.7861   -1.5230    0.0000 N   0  0  0  0  0  0  0  0  0  0  0  0
    3.9771   -0.1217    0.0000 N   0  0  0  0  0  0  0  0  0  0  0  0
    3.3080   -0.8649    0.0000 N   0  0  0  0  0  0  0  0  0  0  0  0
    3.5823   -4.3670    0.0000 N   0  0  0  0  0  0  0  0  0  0  0  0
    5.7567    2.9715    0.0000 C   0  0  3  0  0  0  0  0  0  0  0  0
    7.4888    2.9715    0.0000 C   0  0  3  0  0  0  0  0  0  0  0  0
    7.4888    3.9715    0.0000 C   0  0  0  0  0  0  0  0  0  0  0  0
    5.7567    3.9715    0.0000 C   0  0  0  0  0  0  0  0  0  0  0  0
    6.6227    4.4715    0.0000 C   0  0  0  0  0  0  0  0  0  0  0  0
    4.8907    2.4715    0.0000 C   0  0  0  0  0  0  0  0  0  0  0  0
    8.3548    2.4715    0.0000 C   0  0  0  0  0  0  0  0  0  0  0  0
    6.6227    1.4715    0.0000 C   0  0  0  0  0  0  0  0  0  0  0  0
    5.7567    0.9715    0.0000 C   0  0  0  0  0  0  0  0  0  0  0  0
    4.8907   -0.5285    0.0000 C   0  0  0  0  0  0  0  0  0  0  0  0
    3.8080   -1.7309    0.0000 C   0  0  0  0  0  0  0  0  0  0  0  0
    5.5293   -2.1921    0.0000 C   0  0  0  0  0  0  0  0  0  0  0  0
    3.4013   -2.6444    0.0000 C   0  0  0  0  0  0  0  0  0  0  0  0
    2.4067   -2.7490    0.0000 C   0  0  0  0  0  0  0  0  0  0  0  0
    3.9890   -3.4535    0.0000 C   0  0  0  0  0  0  0  0  0  0  0  0
    2.0000   -3.6625    0.0000 C   0  0  0  0  0  0  0  0  0  0  0  0
    2.5878   -4.4715    0.0000 C   0  0  0  0  0  0  0  0  0  0  0  0
    7.4888    2.3515    0.0000 H   0  0  0  0  0  0  0  0  0  0  0  0
    5.7567    2.3515    0.0000 H   0  0  0  0  0  0  0  0  0  0  0  0
    5.5446    4.5541    0.0000 H   0  0  0  0  0  0  0  0  0  0  0  0
    5.1461    3.8639    0.0000 H   0  0  0  0  0  0  0  0  0  0  0  0
    8.0993    3.8639    0.0000 H   0  0  0  0  0  0  0  0  0  0  0  0
    7.7008    4.5541    0.0000 H   0  0  0  0  0  0  0  0  0  0  0  0
    7.0212    4.9465    0.0000 H   0  0  0  0  0  0  0  0  0  0  0  0
    6.2242    4.9465    0.0000 H   0  0  0  0  0  0  0  0  0  0  0  0
    8.0448    1.9346    0.0000 H   0  0  0  0  0  0  0  0  0  0  0  0
    8.8917    2.1615    0.0000 H   0  0  0  0  0  0  0  0  0  0  0  0
    8.6648    3.0085    0.0000 H   0  0  0  0  0  0  0  0  0  0  0  0
    4.5807    3.0085    0.0000 H   0  0  0  0  0  0  0  0  0  0  0  0
    4.3537    2.1615    0.0000 H   0  0  0  0  0  0  0  0  0  0  0  0
    5.2007    1.9346    0.0000 H   0  0  0  0  0  0  0  0  0  0  0  0
    5.5446    1.5541    0.0000 H   0  0  0  0  0  0  0  0  0  0  0  0
    5.1461    0.8639    0.0000 H   0  0  0  0  0  0  0  0  0  0  0  0
    5.1144   -2.6529    0.0000 H   0  0  0  0  0  0  0  0  0  0  0  0
    5.9900   -2.6070    0.0000 H   0  0  0  0  0  0  0  0  0  0  0  0
    5.9441   -1.7314    0.0000 H   0  0  0  0  0  0  0  0  0  0  0  0
    2.0423   -2.2474    0.0000 H   0  0  0  0  0  0  0  0  0  0  0  0
    4.6056   -3.3886    0.0000 H   0  0  0  0  0  0  0  0  0  0  0  0
    1.3834   -3.7273    0.0000 H   0  0  0  0  0  0  0  0  0  0  0  0
    2.3356   -5.0379    0.0000 H   0  0  0  0  0  0  0  0  0  0  0  0
  1 16  1  0  0  0  0
  1 17  1  0  0  0  0
  2 15  2  0  0  0  0
  3  8  1  0  0  0  0
  3  9  1  0  0  0  0
  3 15  1  0  0  0  0
  4 17  1  0  0  0  0
  4 18  1  0  0  0  0
  4 19  1  0  0  0  0
  5  6  1  0  0  0  0
  5 17  2  0  0  0  0
  6 18  2  0  0  0  0
  7 22  1  0  0  0  0
  7 24  2  0  0  0  0
  8 11  1  0  0  0  0
  8 13  1  0  0  0  0
  8 26  1  0  0  0  0
  9 10  1  0  0  0  0
  9 14  1  0  0  0  0
  9 25  1  0  0  0  0
 10 12  1  0  0  0  0
 10 29  1  0  0  0  0
 10 30  1  0  0  0  0
 11 12  1  0  0  0  0
 11 27  1  0  0  0  0
 11 28  1  0  0  0  0
 12 31  1  0  0  0  0
 12 32  1  0  0  0  0
 13 36  1  0  0  0  0
 13 37  1  0  0  0  0
 13 38  1  0  0  0  0
 14 33  1  0  0  0  0
 14 34  1  0  0  0  0
 14 35  1  0  0  0  0
 15 16  1  0  0  0  0
 16 39  1  0  0  0  0
 16 40  1  0  0  0  0
 18 20  1  0  0  0  0
 19 41  1  0  0  0  0
 19 42  1  0  0  0  0
 19 43  1  0  0  0  0
 20 21  1  0  0  0  0
 20 22  2  0  0  0  0
 21 23  2  0  0  0  0
 21 44  1  0  0  0  0
 22 45  1  0  0  0  0
 23 24  1  0  0  0  0
 23 46  1  0  0  0  0
 24 47  1  0  0  0  0
M  END
> <PUBCHEM_COMPOUND_CID>
17395576

> <PUBCHEM_COMPOUND_CANONICALIZED>
1

> <PUBCHEM_CACTVS_COMPLEXITY>
427

> <PUBCHEM_CACTVS_HBOND_ACCEPTOR>
5

> <PUBCHEM_CACTVS_HBOND_DONOR>
0

> <PUBCHEM_CACTVS_ROTATABLE_BOND>
4

> <PUBCHEM_CACTVS_SUBSKEYS>
AAADceB7oABAAAAAAAAAAAAAAAAAAWAAAAAsWAAAAAAAAAAB4AAAHgQIAAAADCjF2wS/kJcMEAiqAjN3dACS0CtxArAd2CA4ZJiIKOLA2ZGEIAhgjgLIyAcQgAAMAAAAAAAAAAAAAAAAAAAAAAAAAAAAAA==

> <PUBCHEM_IUPAC_OPENEYE_NAME>
1-(2,6-dimethyl-1-piperidyl)-2-[[4-methyl-5-(3-pyridyl)-1,2,4-triazol-3-yl]sulfanyl]ethanone

> <PUBCHEM_IUPAC_CAS_NAME>
1-(2,6-dimethyl-1-piperidinyl)-2-[[4-methyl-5-(3-pyridinyl)-1,2,4-triazol-3-yl]thio]ethanone

> <PUBCHEM_IUPAC_NAME>
1-(2,6-dimethylpiperidin-1-yl)-2-[(4-methyl-5-pyridin-3-yl-1,2,4-triazol-3-yl)sulfanyl]ethanone

> <PUBCHEM_IUPAC_SYSTEMATIC_NAME>
1-(2,6-dimethylpiperidin-1-yl)-2-[(4-methyl-5-pyridin-3-yl-1,2,4-triazol-3-yl)sulfanyl]ethanone

> <PUBCHEM_IUPAC_TRADITIONAL_NAME>
1-(2,6-dimethylpiperidino)-2-[[4-methyl-5-(3-pyridyl)-1,2,4-triazol-3-yl]thio]ethanone

> <PUBCHEM_IUPAC_INCHI>
InChI=1S/C17H23N5OS/c1-12-6-4-7-13(2)22(12)15(23)11-24-17-20-19-16(21(17)3)14-8-5-9-18-10-14/h5,8-10,12-13H,4,6-7,11H2,1-3H3

> <PUBCHEM_IUPAC_INCHIKEY>
QZOWNSNHEXKHTR-UHFFFAOYSA-N

> <PUBCHEM_XLOGP3_AA>
2.1

> <PUBCHEM_EXACT_MASS>
345.162331

> <PUBCHEM_MOLECULAR_FORMULA>
C17H23N5OS

> <PUBCHEM_MOLECULAR_WEIGHT>
345.46242

> <PUBCHEM_OPENEYE_CAN_SMILES>
CC1CCCC(N1C(=O)CSC2=NN=C(N2C)C3=CN=CC=C3)C

> <PUBCHEM_OPENEYE_ISO_SMILES>
CC1CCCC(N1C(=O)CSC2=NN=C(N2C)C3=CN=CC=C3)C

> <PUBCHEM_CACTVS_TPSA>
89.2

> <PUBCHEM_MONOISOTOPIC_WEIGHT>
345.162331

> <PUBCHEM_TOTAL_CHARGE>
0

> <PUBCHEM_HEAVY_ATOM_COUNT>
24

> <PUBCHEM_ATOM_DEF_STEREO_COUNT>
0

> <PUBCHEM_ATOM_UDEF_STEREO_COUNT>
2

> <PUBCHEM_BOND_DEF_STEREO_COUNT>
0

> <PUBCHEM_BOND_UDEF_STEREO_COUNT>
0

> <PUBCHEM_ISOTOPIC_ATOM_COUNT>
0

> <PUBCHEM_COMPONENT_COUNT>
1

> <PUBCHEM_CACTVS_TAUTO_COUNT>
1

> <PUBCHEM_COORDINATE_TYPE>
1
5
255

> <PUBCHEM_BONDANNOTATIONS>
20  21  8
20  22  8
21  23  8
23  24  8
4  17  8
4  18  8
5  17  8
5  6  8
6  18  8
7  22  8
7  24  8
8  13  3
9  14  3

$$$$

