51090876
  -OEChem-06241223002D

 51 53  0     0  0  0  0  0  0999 V2000
    6.0339   -3.2704    0.0000 O   0  0  0  0  0  0  0  0  0  0  0  0
    4.3401    0.5400    0.0000 O   0  0  0  0  0  0  0  0  0  0  0  0
    5.0916   -1.0205    0.0000 N   0  0  0  0  0  0  0  0  0  0  0  0
    4.4166   -3.2220    0.0000 N   0  0  0  0  0  0  0  0  0  0  0  0
    5.7535   -2.3105    0.0000 N   0  0  0  0  0  0  0  0  0  0  0  0
    7.0430    1.8417    0.0000 N   0  0  0  0  0  0  0  0  0  0  0  0
    4.1906   -1.4544    0.0000 C   0  0  0  0  0  0  0  0  0  0  0  0
    3.7568   -2.3554    0.0000 C   0  0  0  0  0  0  0  0  0  0  0  0
    3.7568   -0.5534    0.0000 C   0  0  0  0  0  0  0  0  0  0  0  0
    2.7818   -2.5779    0.0000 C   0  0  0  0  0  0  0  0  0  0  0  0
    2.7818   -0.3309    0.0000 C   0  0  0  0  0  0  0  0  0  0  0  0
    2.0000   -0.9544    0.0000 C   0  0  0  0  0  0  0  0  0  0  0  0
    2.0000   -1.9544    0.0000 C   0  0  0  0  0  0  0  0  0  0  0  0
    4.7540   -2.2806    0.0000 C   0  0  0  0  0  0  0  0  0  0  0  0
    5.1663   -0.0233    0.0000 C   0  0  0  0  0  0  0  0  0  0  0  0
    6.0673    0.4106    0.0000 C   0  0  0  0  0  0  0  0  0  0  0  0
    5.2077   -3.8337    0.0000 C   0  0  0  0  0  0  0  0  0  0  0  0
    6.1420    1.4078    0.0000 C   0  0  0  0  0  0  0  0  0  0  0  0
    5.1778   -4.8333    0.0000 C   0  0  0  0  0  0  0  0  0  0  0  0
    7.1177    2.8389    0.0000 C   0  0  0  0  0  0  0  0  0  0  0  0
    8.0187    3.2728    0.0000 C   0  0  0  0  0  0  0  0  0  0  0  0
    6.2915    3.4022    0.0000 C   0  0  0  0  0  0  0  0  0  0  0  0
    8.0934    4.2700    0.0000 C   0  0  0  0  0  0  0  0  0  0  0  0
    6.3662    4.3994    0.0000 C   0  0  0  0  0  0  0  0  0  0  0  0
    7.2672    4.8333    0.0000 C   0  0  0  0  0  0  0  0  0  0  0  0
    4.3612   -0.4155    0.0000 H   0  0  0  0  0  0  0  0  0  0  0  0
    3.7568    0.0666    0.0000 H   0  0  0  0  0  0  0  0  0  0  0  0
    3.7568   -2.9754    0.0000 H   0  0  0  0  0  0  0  0  0  0  0  0
    4.3612   -2.4933    0.0000 H   0  0  0  0  0  0  0  0  0  0  0  0
    2.2971   -2.9644    0.0000 H   0  0  0  0  0  0  0  0  0  0  0  0
    3.0508    0.2277    0.0000 H   0  0  0  0  0  0  0  0  0  0  0  0
    2.2971    0.0557    0.0000 H   0  0  0  0  0  0  0  0  0  0  0  0
    3.0508   -3.1365    0.0000 H   0  0  0  0  0  0  0  0  0  0  0  0
    1.7310   -0.3958    0.0000 H   0  0  0  0  0  0  0  0  0  0  0  0
    1.3955   -1.0924    0.0000 H   0  0  0  0  0  0  0  0  0  0  0  0
    1.3955   -1.8164    0.0000 H   0  0  0  0  0  0  0  0  0  0  0  0
    1.7310   -2.5130    0.0000 H   0  0  0  0  0  0  0  0  0  0  0  0
    5.7099   -1.0668    0.0000 H   0  0  0  0  0  0  0  0  0  0  0  0
    6.2352   -0.1862    0.0000 H   0  0  0  0  0  0  0  0  0  0  0  0
    6.6842    0.4723    0.0000 H   0  0  0  0  0  0  0  0  0  0  0  0
    5.9741    2.0046    0.0000 H   0  0  0  0  0  0  0  0  0  0  0  0
    5.5251    1.3461    0.0000 H   0  0  0  0  0  0  0  0  0  0  0  0
    4.5581   -4.8147    0.0000 H   0  0  0  0  0  0  0  0  0  0  0  0
    5.1592   -5.4530    0.0000 H   0  0  0  0  0  0  0  0  0  0  0  0
    5.7975   -4.8518    0.0000 H   0  0  0  0  0  0  0  0  0  0  0  0
    7.5553    1.4924    0.0000 H   0  0  0  0  0  0  0  0  0  0  0  0
    8.5310    2.9235    0.0000 H   0  0  0  0  0  0  0  0  0  0  0  0
    5.7329    3.1332    0.0000 H   0  0  0  0  0  0  0  0  0  0  0  0
    8.6520    4.5390    0.0000 H   0  0  0  0  0  0  0  0  0  0  0  0
    5.8540    4.7487    0.0000 H   0  0  0  0  0  0  0  0  0  0  0  0
    7.3135    5.4516    0.0000 H   0  0  0  0  0  0  0  0  0  0  0  0
  1  5  1  0  0  0  0
  1 17  1  0  0  0  0
  2 15  2  0  0  0  0
  3  7  1  0  0  0  0
  3 15  1  0  0  0  0
  3 38  1  0  0  0  0
  4 14  1  0  0  0  0
  4 17  2  0  0  0  0
  5 14  2  0  0  0  0
  6 18  1  0  0  0  0
  6 20  1  0  0  0  0
  6 46  1  0  0  0  0
  7  8  1  0  0  0  0
  7  9  1  0  0  0  0
  7 14  1  0  0  0  0
  8 10  1  0  0  0  0
  8 28  1  0  0  0  0
  8 29  1  0  0  0  0
  9 11  1  0  0  0  0
  9 26  1  0  0  0  0
  9 27  1  0  0  0  0
 10 13  1  0  0  0  0
 10 30  1  0  0  0  0
 10 33  1  0  0  0  0
 11 12  1  0  0  0  0
 11 31  1  0  0  0  0
 11 32  1  0  0  0  0
 12 13  1  0  0  0  0
 12 34  1  0  0  0  0
 12 35  1  0  0  0  0
 13 36  1  0  0  0  0
 13 37  1  0  0  0  0
 15 16  1  0  0  0  0
 16 18  1  0  0  0  0
 16 39  1  0  0  0  0
 16 40  1  0  0  0  0
 17 19  1  0  0  0  0
 18 41  1  0  0  0  0
 18 42  1  0  0  0  0
 19 43  1  0  0  0  0
 19 44  1  0  0  0  0
 19 45  1  0  0  0  0
 20 21  2  0  0  0  0
 20 22  1  0  0  0  0
 21 23  1  0  0  0  0
 21 47  1  0  0  0  0
 22 24  2  0  0  0  0
 22 48  1  0  0  0  0
 23 25  2  0  0  0  0
 23 49  1  0  0  0  0
 24 25  1  0  0  0  0
 24 50  1  0  0  0  0
 25 51  1  0  0  0  0
M  END
> <PUBCHEM_COMPOUND_CID>
51090876

> <PUBCHEM_COMPOUND_CANONICALIZED>
1

> <PUBCHEM_CACTVS_COMPLEXITY>
418

> <PUBCHEM_CACTVS_HBOND_ACCEPTOR>
5

> <PUBCHEM_CACTVS_HBOND_DONOR>
2

> <PUBCHEM_CACTVS_ROTATABLE_BOND>
6

> <PUBCHEM_CACTVS_SUBSKEYS>
AAADceB7sAAAAAAAAAAAAAAAAAAAAWAAAAAwAAAABgAAAAABwAAAHgAUAAAADIjBkwQz0IbYEACpACdydgCCgAkhAqApiIE4ZIiIaCrA2ZGUIAhglQLIyAcQgMAOAAAAAAAAAAAAAAAAAAAAAAAAAAAAAA==

> <PUBCHEM_IUPAC_OPENEYE_NAME>
3-anilino-N-[1-(5-methyl-1,2,4-oxadiazol-3-yl)cycloheptyl]propanamide

> <PUBCHEM_IUPAC_CAS_NAME>
3-anilino-N-[1-(5-methyl-1,2,4-oxadiazol-3-yl)cycloheptyl]propanamide

> <PUBCHEM_IUPAC_NAME>
3-anilino-N-[1-(5-methyl-1,2,4-oxadiazol-3-yl)cycloheptyl]propanamide

> <PUBCHEM_IUPAC_SYSTEMATIC_NAME>
N-[1-(5-methyl-1,2,4-oxadiazol-3-yl)cycloheptyl]-3-phenylazanyl-propanamide

> <PUBCHEM_IUPAC_TRADITIONAL_NAME>
3-anilino-N-[1-(5-methyl-1,2,4-oxadiazol-3-yl)cycloheptyl]propionamide

> <PUBCHEM_IUPAC_INCHI>
InChI=1S/C19H26N4O2/c1-15-21-18(23-25-15)19(12-7-2-3-8-13-19)22-17(24)11-14-20-16-9-5-4-6-10-16/h4-6,9-10,20H,2-3,7-8,11-14H2,1H3,(H,22,24)

> <PUBCHEM_IUPAC_INCHIKEY>
PLKIZBFCDQWEEC-UHFFFAOYSA-N

> <PUBCHEM_XLOGP3_AA>
4

> <PUBCHEM_EXACT_MASS>
342.205576

> <PUBCHEM_MOLECULAR_FORMULA>
C19H26N4O2

> <PUBCHEM_MOLECULAR_WEIGHT>
342.43534

> <PUBCHEM_OPENEYE_CAN_SMILES>
CC1=NC(=NO1)C2(CCCCCC2)NC(=O)CCNC3=CC=CC=C3

> <PUBCHEM_OPENEYE_ISO_SMILES>
CC1=NC(=NO1)C2(CCCCCC2)NC(=O)CCNC3=CC=CC=C3

> <PUBCHEM_CACTVS_TPSA>
80

> <PUBCHEM_MONOISOTOPIC_WEIGHT>
342.205576

> <PUBCHEM_TOTAL_CHARGE>
0

> <PUBCHEM_HEAVY_ATOM_COUNT>
25

> <PUBCHEM_ATOM_DEF_STEREO_COUNT>
0

> <PUBCHEM_ATOM_UDEF_STEREO_COUNT>
0

> <PUBCHEM_BOND_DEF_STEREO_COUNT>
0

> <PUBCHEM_BOND_UDEF_STEREO_COUNT>
0

> <PUBCHEM_ISOTOPIC_ATOM_COUNT>
0

> <PUBCHEM_COMPONENT_COUNT>
1

> <PUBCHEM_CACTVS_TAUTO_COUNT>
2

> <PUBCHEM_COORDINATE_TYPE>
1
5
255

> <PUBCHEM_BONDANNOTATIONS>
1  17  8
1  5  8
20  21  8
20  22  8
21  23  8
22  24  8
23  25  8
24  25  8
4  14  8
4  17  8
5  14  8

$$$$

