49787022
  -OEChem-07051213072D

112115  0     1  0  0  0  0  0999 V2000
   12.3928   -0.9050    0.0000 O   0  0  0  0  0  0  0  0  0  0  0  0
   13.0994   -0.6121    0.0000 O   0  0  0  0  0  0  0  0  0  0  0  0
   13.9621    0.8270    0.0000 O   0  0  0  0  0  0  0  0  0  0  0  0
   11.5263    1.5950    0.0000 O   0  0  0  0  0  0  0  0  0  0  0  0
   15.5318    1.5590    0.0000 O   0  0  0  0  0  0  0  0  0  0  0  0
    6.3301    1.5950    0.0000 O   0  0  0  0  0  0  0  0  0  0  0  0
    5.4641    0.0950    0.0000 O   0  0  0  0  0  0  0  0  0  0  0  0
   14.8073   -0.9856    0.0000 O   0  0  0  0  0  0  0  0  0  0  0  0
   16.7997   -1.1599    0.0000 O   0  0  0  0  0  0  0  0  0  0  0  0
    4.5981    2.5950    0.0000 O   0  0  0  0  0  0  0  0  0  0  0  0
   17.9469    0.4784    0.0000 O   0  0  0  0  0  0  0  0  0  0  0  0
    8.9282   -2.9050    0.0000 O   0  0  0  0  0  0  0  0  0  0  0  0
   10.6603    0.0950    0.0000 O   0  0  0  0  0  0  0  0  0  0  0  0
    2.8660    1.5950    0.0000 N   0  0  0  0  0  0  0  0  0  0  0  0
   11.5263   -0.4050    0.0000 C   0  0  2  0  0  0  0  0  0  0  0  0
   12.3923    0.0950    0.0000 C   0  0  2  0  0  0  0  0  0  0  0  0
   11.5263   -1.4050    0.0000 C   0  0  1  0  0  0  0  0  0  0  0  0
   12.3923    1.0950    0.0000 C   0  0  1  0  0  0  0  0  0  0  0  0
   13.3885    0.0078    0.0000 C   0  0  0  0  0  0  0  0  0  0  0  0
   10.6603   -1.9050    0.0000 C   0  0  0  0  0  0  0  0  0  0  0  0
   13.2583    1.5950    0.0000 C   0  0  0  0  0  0  0  0  0  0  0  0
   14.9583    0.7398    0.0000 C   0  0  2  0  0  0  0  0  0  0  0  0
    7.1962    1.0950    0.0000 C   0  0  1  0  0  0  0  0  0  0  0  0
   15.3809   -0.1665    0.0000 C   0  0  1  0  0  0  0  0  0  0  0  0
    7.1962    0.0950    0.0000 C   0  0  2  0  0  0  0  0  0  0  0  0
   16.3771   -0.2536    0.0000 C   0  0  1  0  0  0  0  0  0  0  0  0
    3.7320    1.0950    0.0000 C   0  0  2  0  0  0  0  0  0  0  0  0
    4.5981    1.5950    0.0000 C   0  0  2  0  0  0  0  0  0  0  0  0
    8.0622   -0.4050    0.0000 C   0  0  0  0  0  0  0  0  0  0  0  0
    5.4641    1.0950    0.0000 C   0  0  2  0  0  0  0  0  0  0  0  0
   16.9507    0.5655    0.0000 C   0  0  1  0  0  0  0  0  0  0  0  0
    9.7942   -1.4050    0.0000 C   0  0  0  0  0  0  0  0  0  0  0  0
    8.0622   -1.4050    0.0000 C   0  0  2  0  0  0  0  0  0  0  0  0
   16.5280    1.4718    0.0000 C   0  0  1  0  0  0  0  0  0  0  0  0
    8.0622    1.5950    0.0000 C   0  0  2  0  0  0  0  0  0  0  0  0
    3.7320    0.0950    0.0000 C   0  0  0  0  0  0  0  0  0  0  0  0
   13.2583    2.5950    0.0000 C   0  0  0  0  0  0  0  0  0  0  0  0
    4.5981   -0.4050    0.0000 C   0  0  1  0  0  0  0  0  0  0  0  0
    8.9282   -1.9050    0.0000 C   0  0  0  0  0  0  0  0  0  0  0  0
    6.3301   -0.4050    0.0000 C   0  0  0  0  0  0  0  0  0  0  0  0
   10.6603    1.0950    0.0000 C   0  0  0  0  0  0  0  0  0  0  0  0
    8.9282    1.0950    0.0000 C   0  0  0  0  0  0  0  0  0  0  0  0
    8.0622    2.5950    0.0000 C   0  0  0  0  0  0  0  0  0  0  0  0
    7.1962   -1.9050    0.0000 C   0  0  0  0  0  0  0  0  0  0  0  0
   17.1016    2.2910    0.0000 C   0  0  0  0  0  0  0  0  0  0  0  0
    9.7942    1.5950    0.0000 C   0  0  0  0  0  0  0  0  0  0  0  0
    4.5981   -1.4050    0.0000 C   0  0  0  0  0  0  0  0  0  0  0  0
    2.0000    1.0950    0.0000 C   0  0  0  0  0  0  0  0  0  0  0  0
    2.8660    2.5950    0.0000 C   0  0  0  0  0  0  0  0  0  0  0  0
   15.2299   -1.8919    0.0000 C   0  0  0  0  0  0  0  0  0  0  0  0
   17.7959   -1.2471    0.0000 C   0  0  0  0  0  0  0  0  0  0  0  0
   10.9893   -0.0950    0.0000 H   0  0  0  0  0  0  0  0  0  0  0  0
   11.8362   -1.9420    0.0000 H   0  0  0  0  0  0  0  0  0  0  0  0
   12.3923    1.7150    0.0000 H   0  0  0  0  0  0  0  0  0  0  0  0
   13.2280   -0.5910    0.0000 H   0  0  0  0  0  0  0  0  0  0  0  0
   13.9504   -0.2542    0.0000 H   0  0  0  0  0  0  0  0  0  0  0  0
   10.6603   -2.5250    0.0000 H   0  0  0  0  0  0  0  0  0  0  0  0
   13.4704    1.0124    0.0000 H   0  0  0  0  0  0  0  0  0  0  0  0
   13.8689    1.7027    0.0000 H   0  0  0  0  0  0  0  0  0  0  0  0
   12.9389   -1.2110    0.0000 H   0  0  0  0  0  0  0  0  0  0  0  0
   14.6027    0.2320    0.0000 H   0  0  0  0  0  0  0  0  0  0  0  0
    6.6592    0.7850    0.0000 H   0  0  0  0  0  0  0  0  0  0  0  0
   14.7632   -0.1124    0.0000 H   0  0  0  0  0  0  0  0  0  0  0  0
    6.6592    0.4050    0.0000 H   0  0  0  0  0  0  0  0  0  0  0  0
   16.0215   -0.7615    0.0000 H   0  0  0  0  0  0  0  0  0  0  0  0
    3.7320    1.7150    0.0000 H   0  0  0  0  0  0  0  0  0  0  0  0
    5.1350    1.9050    0.0000 H   0  0  0  0  0  0  0  0  0  0  0  0
    8.6728   -0.5127    0.0000 H   0  0  0  0  0  0  0  0  0  0  0  0
    8.2742    0.1776    0.0000 H   0  0  0  0  0  0  0  0  0  0  0  0
    5.4641    1.7150    0.0000 H   0  0  0  0  0  0  0  0  0  0  0  0
   17.2127    0.0036    0.0000 H   0  0  0  0  0  0  0  0  0  0  0  0
    9.7942   -0.7850    0.0000 H   0  0  0  0  0  0  0  0  0  0  0  0
    8.0622   -2.0250    0.0000 H   0  0  0  0  0  0  0  0  0  0  0  0
    7.5252    1.9050    0.0000 H   0  0  0  0  0  0  0  0  0  0  0  0
   16.2660    2.0338    0.0000 H   0  0  0  0  0  0  0  0  0  0  0  0
    3.1215    0.2027    0.0000 H   0  0  0  0  0  0  0  0  0  0  0  0
    3.5200   -0.4876    0.0000 H   0  0  0  0  0  0  0  0  0  0  0  0
   13.8783    2.5950    0.0000 H   0  0  0  0  0  0  0  0  0  0  0  0
   13.2583    3.2150    0.0000 H   0  0  0  0  0  0  0  0  0  0  0  0
   12.6383    2.5950    0.0000 H   0  0  0  0  0  0  0  0  0  0  0  0
    5.1350   -0.7150    0.0000 H   0  0  0  0  0  0  0  0  0  0  0  0
    6.0201    0.1319    0.0000 H   0  0  0  0  0  0  0  0  0  0  0  0
    5.7932   -0.7150    0.0000 H   0  0  0  0  0  0  0  0  0  0  0  0
    6.6401   -0.9419    0.0000 H   0  0  0  0  0  0  0  0  0  0  0  0
    8.9282    0.4750    0.0000 H   0  0  0  0  0  0  0  0  0  0  0  0
    8.6822    2.5950    0.0000 H   0  0  0  0  0  0  0  0  0  0  0  0
    8.0622    3.2150    0.0000 H   0  0  0  0  0  0  0  0  0  0  0  0
    7.4422    2.5950    0.0000 H   0  0  0  0  0  0  0  0  0  0  0  0
    6.8862   -1.3681    0.0000 H   0  0  0  0  0  0  0  0  0  0  0  0
    6.6592   -2.2150    0.0000 H   0  0  0  0  0  0  0  0  0  0  0  0
    7.5062   -2.4419    0.0000 H   0  0  0  0  0  0  0  0  0  0  0  0
   17.6095    1.9354    0.0000 H   0  0  0  0  0  0  0  0  0  0  0  0
   17.4572    2.7989    0.0000 H   0  0  0  0  0  0  0  0  0  0  0  0
   16.5937    2.6466    0.0000 H   0  0  0  0  0  0  0  0  0  0  0  0
    9.7942    2.2150    0.0000 H   0  0  0  0  0  0  0  0  0  0  0  0
    3.9781   -1.4050    0.0000 H   0  0  0  0  0  0  0  0  0  0  0  0
    4.5981   -2.0250    0.0000 H   0  0  0  0  0  0  0  0  0  0  0  0
    5.2181   -1.4050    0.0000 H   0  0  0  0  0  0  0  0  0  0  0  0
    5.1350    2.9050    0.0000 H   0  0  0  0  0  0  0  0  0  0  0  0
   18.3025    0.9862    0.0000 H   0  0  0  0  0  0  0  0  0  0  0  0
    3.4860    2.5950    0.0000 H   0  0  0  0  0  0  0  0  0  0  0  0
    2.8660    3.2150    0.0000 H   0  0  0  0  0  0  0  0  0  0  0  0
    2.2460    2.5950    0.0000 H   0  0  0  0  0  0  0  0  0  0  0  0
    1.6900    1.6319    0.0000 H   0  0  0  0  0  0  0  0  0  0  0  0
    1.4631    0.7850    0.0000 H   0  0  0  0  0  0  0  0  0  0  0  0
    2.3100    0.5581    0.0000 H   0  0  0  0  0  0  0  0  0  0  0  0
   14.6680   -2.1540    0.0000 H   0  0  0  0  0  0  0  0  0  0  0  0
   15.4920   -2.4538    0.0000 H   0  0  0  0  0  0  0  0  0  0  0  0
   15.7918   -1.6299    0.0000 H   0  0  0  0  0  0  0  0  0  0  0  0
   17.7419   -1.8647    0.0000 H   0  0  0  0  0  0  0  0  0  0  0  0
   18.4135   -1.3011    0.0000 H   0  0  0  0  0  0  0  0  0  0  0  0
   17.8499   -0.6294    0.0000 H   0  0  0  0  0  0  0  0  0  0  0  0
 15  1  1  6  0  0  0
 17  1  1  6  0  0  0
 16  2  1  6  0  0  0
  2 60  1  0  0  0  0
  3 19  1  0  0  0  0
 22  3  1  6  0  0  0
  4 18  1  0  0  0  0
  4 41  1  0  0  0  0
  5 22  1  0  0  0  0
  5 34  1  0  0  0  0
 23  6  1  6  0  0  0
 30  6  1  6  0  0  0
  7 30  1  0  0  0  0
  7 38  1  0  0  0  0
 24  8  1  1  0  0  0
  8 50  1  0  0  0  0
 26  9  1  1  0  0  0
  9 51  1  0  0  0  0
 28 10  1  1  0  0  0
 10 99  1  0  0  0  0
 31 11  1  1  0  0  0
 11100  1  0  0  0  0
 12 39  2  0  0  0  0
 13 41  2  0  0  0  0
 27 14  1  6  0  0  0
 14 48  1  0  0  0  0
 14 49  1  0  0  0  0
 15 16  1  0  0  0  0
 15 17  1  0  0  0  0
 15 52  1  0  0  0  0
 16 18  1  0  0  0  0
 16 19  1  0  0  0  0
 17 20  1  0  0  0  0
 17 53  1  0  0  0  0
 18 21  1  6  0  0  0
 18 54  1  0  0  0  0
 19 55  1  0  0  0  0
 19 56  1  0  0  0  0
 20 32  2  0  0  0  0
 20 57  1  0  0  0  0
 21 37  1  0  0  0  0
 21 58  1  0  0  0  0
 21 59  1  0  0  0  0
 22 24  1  0  0  0  0
 22 61  1  0  0  0  0
 23 25  1  0  0  0  0
 23 35  1  0  0  0  0
 23 62  1  0  0  0  0
 24 26  1  0  0  0  0
 24 63  1  0  0  0  0
 25 29  1  0  0  0  0
 25 40  1  6  0  0  0
 25 64  1  0  0  0  0
 26 31  1  0  0  0  0
 26 65  1  0  0  0  0
 27 28  1  0  0  0  0
 27 36  1  0  0  0  0
 27 66  1  0  0  0  0
 28 30  1  0  0  0  0
 28 67  1  0  0  0  0
 29 33  1  0  0  0  0
 29 68  1  0  0  0  0
 29 69  1  0  0  0  0
 30 70  1  0  0  0  0
 31 34  1  0  0  0  0
 31 71  1  0  0  0  0
 32 39  1  0  0  0  0
 32 72  1  0  0  0  0
 33 39  1  0  0  0  0
 33 44  1  6  0  0  0
 33 73  1  0  0  0  0
 34 45  1  6  0  0  0
 34 75  1  0  0  0  0
 35 42  1  0  0  0  0
 35 43  1  1  0  0  0
 35 74  1  0  0  0  0
 36 38  1  0  0  0  0
 36 76  1  0  0  0  0
 36 77  1  0  0  0  0
 37 78  1  0  0  0  0
 37 79  1  0  0  0  0
 37 80  1  0  0  0  0
 38 47  1  6  0  0  0
 38 81  1  0  0  0  0
 40 82  1  0  0  0  0
 40 83  1  0  0  0  0
 40 84  1  0  0  0  0
 41 46  1  0  0  0  0
 42 46  2  0  0  0  0
 42 85  1  0  0  0  0
 43 86  1  0  0  0  0
 43 87  1  0  0  0  0
 43 88  1  0  0  0  0
 44 89  1  0  0  0  0
 44 90  1  0  0  0  0
 44 91  1  0  0  0  0
 45 92  1  0  0  0  0
 45 93  1  0  0  0  0
 45 94  1  0  0  0  0
 46 95  1  0  0  0  0
 47 96  1  0  0  0  0
 47 97  1  0  0  0  0
 47 98  1  0  0  0  0
 48104  1  0  0  0  0
 48105  1  0  0  0  0
 48106  1  0  0  0  0
 49101  1  0  0  0  0
 49102  1  0  0  0  0
 49103  1  0  0  0  0
 50107  1  0  0  0  0
 50108  1  0  0  0  0
 50109  1  0  0  0  0
 51110  1  0  0  0  0
 51111  1  0  0  0  0
 51112  1  0  0  0  0
M  END
> <PUBCHEM_COMPOUND_CID>
49787022

> <PUBCHEM_COMPOUND_CANONICALIZED>
1

> <PUBCHEM_CACTVS_COMPLEXITY>
1210

> <PUBCHEM_CACTVS_HBOND_ACCEPTOR>
14

> <PUBCHEM_CACTVS_HBOND_DONOR>
3

> <PUBCHEM_CACTVS_ROTATABLE_BOND>
9

> <PUBCHEM_CACTVS_SUBSKEYS>
AAADcfB+PAAAAAAAAAAAAAAAEgAAAAAAAAAkSAAAAAAAAAAAAAAAHgAACAAADXzxgAcCCAMABgCIAKDSCAAAAAAgAAAICAEIAEgTFBIAoQAmUAAHwAAfIYPI7MzOAAAAAAAAAAAAAAAAAAAAAAAAAAAAAA==

> <PUBCHEM_IUPAC_OPENEYE_NAME>
(1R,2E,5R,7S,8S,9S,10E,14R,15S,16S)-8-[(2S,3R,4S,6R)-4-(dimethylamino)-3-hydroxy-6-methyl-tetrahydropyran-2-yl]oxy-14-ethyl-15-hydroxy-15-[[(2R,3R,4R,5R,6R)-5-hydroxy-3,4-dimethoxy-6-methyl-tetrahydropyran-2-yl]oxymethyl]-5,7,9-trimethyl-13,17-dioxabicyclo[14.1.0]heptadeca-2,10-diene-4,12-dione

> <PUBCHEM_IUPAC_CAS_NAME>
(1R,2E,5R,7S,8S,9S,10E,14R,15S,16S)-8-[[(2S,3R,4S,6R)-4-(dimethylamino)-3-hydroxy-6-methyl-2-oxanyl]oxy]-14-ethyl-15-hydroxy-15-[[(2R,3R,4R,5R,6R)-5-hydroxy-3,4-dimethoxy-6-methyl-2-oxanyl]oxymethyl]-5,7,9-trimethyl-13,17-dioxabicyclo[14.1.0]heptadeca-2,10-diene-4,12-dione

> <PUBCHEM_IUPAC_NAME>
(1R,2E,5R,7S,8S,9S,10E,14R,15S,16S)-8-[(2S,3R,4S,6R)-4-(dimethylamino)-3-hydroxy-6-methyloxan-2-yl]oxy-14-ethyl-15-hydroxy-15-[[(2R,3R,4R,5R,6R)-5-hydroxy-3,4-dimethoxy-6-methyloxan-2-yl]oxymethyl]-5,7,9-trimethyl-13,17-dioxabicyclo[14.1.0]heptadeca-2,10-diene-4,12-dione

> <PUBCHEM_IUPAC_SYSTEMATIC_NAME>
(1R,2E,5R,7S,8S,9S,10E,14R,15S,16S)-15-[[(2R,3R,4R,5R,6R)-3,4-dimethoxy-6-methyl-5-oxidanyl-oxan-2-yl]oxymethyl]-8-[(2S,3R,4S,6R)-4-(dimethylamino)-6-methyl-3-oxidanyl-oxan-2-yl]oxy-14-ethyl-5,7,9-trimethyl-15-oxidanyl-13,17-dioxabicyclo[14.1.0]heptadeca-2,10-diene-4,12-dione

> <PUBCHEM_IUPAC_TRADITIONAL_NAME>
(1R,2E,5R,7S,8S,9S,10E,14R,15S,16S)-8-[(2S,3R,4S,6R)-4-(dimethylamino)-3-hydroxy-6-methyl-tetrahydropyran-2-yl]oxy-14-ethyl-15-hydroxy-15-[[(2R,3R,4R,5R,6R)-5-hydroxy-3,4-dimethoxy-6-methyl-tetrahydropyran-2-yl]oxymethyl]-5,7,9-trimethyl-13,17-dioxabicyclo[14.1.0]heptadeca-2,10-diene-4,12-quinone

> <PUBCHEM_IUPAC_INCHI>
InChI=1S/C37H61NO13/c1-11-27-37(43,18-46-36-33(45-10)32(44-9)29(41)23(6)48-36)34-26(49-34)14-13-25(39)20(3)16-21(4)31(19(2)12-15-28(40)50-27)51-35-30(42)24(38(7)8)17-22(5)47-35/h12-15,19-24,26-27,29-36,41-43H,11,16-18H2,1-10H3/b14-13+,15-12+/t19-,20+,21-,22+,23+,24-,26+,27+,29+,30+,31+,32+,33+,34-,35-,36+,37-/m0/s1

> <PUBCHEM_IUPAC_INCHIKEY>
WWIDEZOUVSJVHS-LWQULZAOSA-N

> <PUBCHEM_XLOGP3_AA>
2

> <PUBCHEM_EXACT_MASS>
727.414291

> <PUBCHEM_MOLECULAR_FORMULA>
C37H61NO13

> <PUBCHEM_MOLECULAR_WEIGHT>
727.87914

> <PUBCHEM_OPENEYE_CAN_SMILES>
CCC1C(C2C(O2)C=CC(=O)C(CC(C(C(C=CC(=O)O1)C)OC3C(C(CC(O3)C)N(C)C)O)C)C)(COC4C(C(C(C(O4)C)O)OC)OC)O

> <PUBCHEM_OPENEYE_ISO_SMILES>
CC[C@@H]1[C@]([C@@H]2[C@H](O2)/C=C/C(=O)[C@@H](C[C@@H]([C@@H]([C@H](/C=C/C(=O)O1)C)O[C@H]3[C@@H]([C@H](C[C@H](O3)C)N(C)C)O)C)C)(CO[C@H]4[C@@H]([C@@H]([C@@H]([C@H](O4)C)O)OC)OC)O

> <PUBCHEM_CACTVS_TPSA>
175

> <PUBCHEM_MONOISOTOPIC_WEIGHT>
727.414291

> <PUBCHEM_TOTAL_CHARGE>
0

> <PUBCHEM_HEAVY_ATOM_COUNT>
51

> <PUBCHEM_ATOM_DEF_STEREO_COUNT>
17

> <PUBCHEM_ATOM_UDEF_STEREO_COUNT>
0

> <PUBCHEM_BOND_DEF_STEREO_COUNT>
2

> <PUBCHEM_BOND_UDEF_STEREO_COUNT>
0

> <PUBCHEM_ISOTOPIC_ATOM_COUNT>
0

> <PUBCHEM_COMPONENT_COUNT>
1

> <PUBCHEM_CACTVS_TAUTO_COUNT>
2

> <PUBCHEM_COORDINATE_TYPE>
1
5
255

> <PUBCHEM_BONDANNOTATIONS>
15  1  6
17  1  6
28  10  5
31  11  5
27  14  6
18  21  6
16  2  6
25  40  6
22  3  6
33  44  6
34  45  6
35  43  5
38  47  6
23  6  6
30  6  6
24  8  5
26  9  5

$$$$

