8595
  -OEChem-06261202562D

 35 36  0     0  0  0  0  0  0999 V2000
    0.0000    2.6200    0.0000 Na  0  3  0  0  0  0  0  0  0  0  0  0
    2.5981    4.1200    0.0000 O   0  0  0  0  0  0  0  0  0  0  0  0
    0.8660    2.1200    0.0000 O   0  5  0  0  0  0  0  0  0  0  0  0
    1.7321    3.6200    0.0000 O   0  0  0  0  0  0  0  0  0  0  0  0
    4.3301    4.1200    0.0000 N   0  0  0  0  0  0  0  0  0  0  0  0
    5.1962    5.6200    0.0000 C   0  0  0  0  0  0  0  0  0  0  0  0
    4.3301    5.1200    0.0000 C   0  0  0  0  0  0  0  0  0  0  0  0
    5.1962    6.6200    0.0000 C   0  0  0  0  0  0  0  0  0  0  0  0
    3.4641    5.6200    0.0000 C   0  0  0  0  0  0  0  0  0  0  0  0
    6.0901    5.0853    0.0000 C   0  0  0  0  0  0  0  0  0  0  0  0
    4.3301    7.1200    0.0000 C   0  0  0  0  0  0  0  0  0  0  0  0
    6.0901    7.1547    0.0000 C   0  0  0  0  0  0  0  0  0  0  0  0
    3.4641    2.6200    0.0000 C   0  0  0  0  0  0  0  0  0  0  0  0
    3.4641    6.6200    0.0000 C   0  0  0  0  0  0  0  0  0  0  0  0
    3.4641    3.6200    0.0000 C   0  0  0  0  0  0  0  0  0  0  0  0
    6.9962    5.5992    0.0000 C   0  0  0  0  0  0  0  0  0  0  0  0
    6.9962    6.6408    0.0000 C   0  0  0  0  0  0  0  0  0  0  0  0
    2.5981    2.1200    0.0000 C   0  0  0  0  0  0  0  0  0  0  0  0
    4.3301    2.1200    0.0000 C   0  0  0  0  0  0  0  0  0  0  0  0
    2.5981    1.1200    0.0000 C   0  0  0  0  0  0  0  0  0  0  0  0
    4.3301    1.1200    0.0000 C   0  0  0  0  0  0  0  0  0  0  0  0
    3.4641    0.6200    0.0000 C   0  0  0  0  0  0  0  0  0  0  0  0
    1.7321    2.6200    0.0000 C   0  0  0  0  0  0  0  0  0  0  0  0
    2.9272    5.3100    0.0000 H   0  0  0  0  0  0  0  0  0  0  0  0
    4.8671    3.8100    0.0000 H   0  0  0  0  0  0  0  0  0  0  0  0
    6.0829    4.4654    0.0000 H   0  0  0  0  0  0  0  0  0  0  0  0
    4.3301    7.7400    0.0000 H   0  0  0  0  0  0  0  0  0  0  0  0
    6.0829    7.7746    0.0000 H   0  0  0  0  0  0  0  0  0  0  0  0
    2.9272    6.9300    0.0000 H   0  0  0  0  0  0  0  0  0  0  0  0
    7.5319    5.2871    0.0000 H   0  0  0  0  0  0  0  0  0  0  0  0
    7.5319    6.9529    0.0000 H   0  0  0  0  0  0  0  0  0  0  0  0
    4.8671    2.4300    0.0000 H   0  0  0  0  0  0  0  0  0  0  0  0
    2.0611    0.8100    0.0000 H   0  0  0  0  0  0  0  0  0  0  0  0
    4.8671    0.8100    0.0000 H   0  0  0  0  0  0  0  0  0  0  0  0
    3.4641    0.0000    0.0000 H   0  0  0  0  0  0  0  0  0  0  0  0
  2 15  2  0  0  0  0
  3 23  1  0  0  0  0
  4 23  2  0  0  0  0
  5  7  1  0  0  0  0
  5 15  1  0  0  0  0
  5 25  1  0  0  0  0
  6  7  1  0  0  0  0
  6  8  1  0  0  0  0
  6 10  2  0  0  0  0
  7  9  2  0  0  0  0
  8 11  1  0  0  0  0
  8 12  2  0  0  0  0
  9 14  1  0  0  0  0
  9 24  1  0  0  0  0
 10 16  1  0  0  0  0
 10 26  1  0  0  0  0
 11 14  2  0  0  0  0
 11 27  1  0  0  0  0
 12 17  1  0  0  0  0
 12 28  1  0  0  0  0
 13 15  1  0  0  0  0
 13 18  1  0  0  0  0
 13 19  2  0  0  0  0
 14 29  1  0  0  0  0
 16 17  2  0  0  0  0
 16 30  1  0  0  0  0
 17 31  1  0  0  0  0
 18 20  2  0  0  0  0
 18 23  1  0  0  0  0
 19 21  1  0  0  0  0
 19 32  1  0  0  0  0
 20 22  1  0  0  0  0
 20 33  1  0  0  0  0
 21 22  2  0  0  0  0
 21 34  1  0  0  0  0
 22 35  1  0  0  0  0
M  CHG  2   1   1   3  -1
M  END
> <PUBCHEM_COMPOUND_CID>
8595

> <PUBCHEM_COMPOUND_CANONICALIZED>
1

> <PUBCHEM_CACTVS_COMPLEXITY>
417

> <PUBCHEM_CACTVS_HBOND_ACCEPTOR>
3

> <PUBCHEM_CACTVS_HBOND_DONOR>
1

> <PUBCHEM_CACTVS_ROTATABLE_BOND>
2

> <PUBCHEM_CACTVS_SUBSKEYS>
AAADccB6MCAAAAAAAAAAAAAAAAAAAAAAAAAwYMAAAAAAAADBVAAAHgAQAAAADAiBmAAwyMLAAACIAiXSWACCAAAlAgAIiAEAbMgIJjLAlZGEMQhk1AHIyYe/yKCOgAAAQAASAAAAAACAACQAAAAAAAAAAA==

> <PUBCHEM_IUPAC_OPENEYE_NAME>
sodium 2-(1-naphthylcarbamoyl)benzoate

> <PUBCHEM_IUPAC_CAS_NAME>
sodium 2-[(1-naphthalenylamino)-oxomethyl]benzoate

> <PUBCHEM_IUPAC_NAME>
sodium 2-(naphthalen-1-ylcarbamoyl)benzoate

> <PUBCHEM_IUPAC_SYSTEMATIC_NAME>
sodium 2-(naphthalen-1-ylcarbamoyl)benzoate

> <PUBCHEM_IUPAC_TRADITIONAL_NAME>
sodium 2-(1-naphthylcarbamoyl)benzoate

> <PUBCHEM_IUPAC_INCHI>
InChI=1S/C18H13NO3.Na/c20-17(14-9-3-4-10-15(14)18(21)22)19-16-11-5-7-12-6-1-2-8-13(12)16;/h1-11H,(H,19,20)(H,21,22);/q;+1/p-1

> <PUBCHEM_IUPAC_INCHIKEY>
CLHHSSXFXYAXDB-UHFFFAOYSA-M

> <PUBCHEM_EXACT_MASS>
313.071488

> <PUBCHEM_MOLECULAR_FORMULA>
C18H12NNaO3

> <PUBCHEM_MOLECULAR_WEIGHT>
313.282549

> <PUBCHEM_OPENEYE_CAN_SMILES>
C1=CC=C2C(=C1)C=CC=C2NC(=O)C3=CC=CC=C3C(=O)[O-].[Na+]

> <PUBCHEM_OPENEYE_ISO_SMILES>
C1=CC=C2C(=C1)C=CC=C2NC(=O)C3=CC=CC=C3C(=O)[O-].[Na+]

> <PUBCHEM_CACTVS_TPSA>
69.2

> <PUBCHEM_MONOISOTOPIC_WEIGHT>
313.071488

> <PUBCHEM_TOTAL_CHARGE>
0

> <PUBCHEM_HEAVY_ATOM_COUNT>
23

> <PUBCHEM_ATOM_DEF_STEREO_COUNT>
0

> <PUBCHEM_ATOM_UDEF_STEREO_COUNT>
0

> <PUBCHEM_BOND_DEF_STEREO_COUNT>
0

> <PUBCHEM_BOND_UDEF_STEREO_COUNT>
0

> <PUBCHEM_ISOTOPIC_ATOM_COUNT>
0

> <PUBCHEM_COMPONENT_COUNT>
2

> <PUBCHEM_CACTVS_TAUTO_COUNT>
2

> <PUBCHEM_COORDINATE_TYPE>
1
5
255

> <PUBCHEM_BONDANNOTATIONS>
10  16  8
11  14  8
12  17  8
13  18  8
13  19  8
16  17  8
18  20  8
19  21  8
20  22  8
21  22  8
6  10  8
6  7  8
6  8  8
7  9  8
8  11  8
8  12  8
9  14  8

$$$$

