13170
  -OEChem-06261207512D

 44 38  0     1  0  0  0  0  0999 V2000
    1.7320    2.8100    0.0000 P   0  0  0  0  0  0  0  0  0  0  0  0
    1.7320    7.4081    0.0000 P   0  0  0  0  0  0  0  0  0  0  0  0
    0.0000    2.8100    0.0000 Na  0  3  0  0  0  0  0  0  0  0  0  0
    1.7320    4.5420    0.0000 Na  0  3  0  0  0  0  0  0  0  0  0  0
    0.0000    7.4081    0.0000 Na  0  3  0  0  0  0  0  0  0  0  0  0
    1.7320    9.1401    0.0000 Na  0  3  0  0  0  0  0  0  0  0  0  0
    2.5981    3.3100    0.0000 O   0  0  0  0  0  0  0  0  0  0  0  0
    6.0622    3.3100    0.0000 O   0  0  0  0  0  0  0  0  0  0  0  0
    4.3301    0.3100    0.0000 O   0  0  0  0  0  0  0  0  0  0  0  0
    2.5981    7.9081    0.0000 O   0  0  0  0  0  0  0  0  0  0  0  0
    4.3301    8.9081    0.0000 O   0  0  0  0  0  0  0  0  0  0  0  0
    0.8660    2.3100    0.0000 O   0  5  0  0  0  0  0  0  0  0  0  0
    1.2320    3.6760    0.0000 O   0  5  0  0  0  0  0  0  0  0  0  0
    2.2320    1.9440    0.0000 O   0  0  0  0  0  0  0  0  0  0  0  0
    6.0622    7.9081    0.0000 O   0  0  0  0  0  0  0  0  0  0  0  0
    0.8660    6.9081    0.0000 O   0  5  0  0  0  0  0  0  0  0  0  0
    1.2320    8.2741    0.0000 O   0  5  0  0  0  0  0  0  0  0  0  0
    2.2320    6.5420    0.0000 O   0  0  0  0  0  0  0  0  0  0  0  0
    3.4641    2.8100    0.0000 C   0  0  0  0  0  0  0  0  0  0  0  0
    4.3301    3.3100    0.0000 C   0  0  0  0  0  0  0  0  0  0  0  0
    3.4641    1.8100    0.0000 C   0  0  0  0  0  0  0  0  0  0  0  0
    5.1962    2.8100    0.0000 C   0  0  0  0  0  0  0  0  0  0  0  0
    4.3301    1.3100    0.0000 C   0  0  0  0  0  0  0  0  0  0  0  0
    4.3301    7.9081    0.0000 C   0  0  3  0  0  0  0  0  0  0  0  0
    3.4641    7.4081    0.0000 C   0  0  0  0  0  0  0  0  0  0  0  0
    5.1962    7.4081    0.0000 C   0  0  0  0  0  0  0  0  0  0  0  0
    2.9272    2.5000    0.0000 H   0  0  0  0  0  0  0  0  0  0  0  0
    4.7287    3.7850    0.0000 H   0  0  0  0  0  0  0  0  0  0  0  0
    3.9316    3.7850    0.0000 H   0  0  0  0  0  0  0  0  0  0  0  0
    2.8535    1.9177    0.0000 H   0  0  0  0  0  0  0  0  0  0  0  0
    3.2520    1.2274    0.0000 H   0  0  0  0  0  0  0  0  0  0  0  0
    4.9407    1.2023    0.0000 H   0  0  0  0  0  0  0  0  0  0  0  0
    4.7976    2.3350    0.0000 H   0  0  0  0  0  0  0  0  0  0  0  0
    5.5947    2.3350    0.0000 H   0  0  0  0  0  0  0  0  0  0  0  0
    4.5422    1.8926    0.0000 H   0  0  0  0  0  0  0  0  0  0  0  0
    3.7932    8.2181    0.0000 H   0  0  0  0  0  0  0  0  0  0  0  0
    3.0656    6.9331    0.0000 H   0  0  0  0  0  0  0  0  0  0  0  0
    3.8626    6.9331    0.0000 H   0  0  0  0  0  0  0  0  0  0  0  0
    6.5991    3.0000    0.0000 H   0  0  0  0  0  0  0  0  0  0  0  0
    4.8671    0.0000    0.0000 H   0  0  0  0  0  0  0  0  0  0  0  0
    4.7976    6.9331    0.0000 H   0  0  0  0  0  0  0  0  0  0  0  0
    5.5947    6.9331    0.0000 H   0  0  0  0  0  0  0  0  0  0  0  0
    4.8671    9.2181    0.0000 H   0  0  0  0  0  0  0  0  0  0  0  0
    6.5991    7.5981    0.0000 H   0  0  0  0  0  0  0  0  0  0  0  0
  1  7  1  0  0  0  0
  1 12  1  0  0  0  0
  1 13  1  0  0  0  0
  1 14  2  0  0  0  0
  2 10  1  0  0  0  0
  2 16  1  0  0  0  0
  2 17  1  0  0  0  0
  2 18  2  0  0  0  0
  7 19  1  0  0  0  0
  8 22  1  0  0  0  0
  8 39  1  0  0  0  0
  9 23  1  0  0  0  0
  9 40  1  0  0  0  0
 10 25  1  0  0  0  0
 11 24  1  0  0  0  0
 11 43  1  0  0  0  0
 15 26  1  0  0  0  0
 15 44  1  0  0  0  0
 19 20  1  0  0  0  0
 19 21  1  0  0  0  0
 19 27  1  0  0  0  0
 20 22  1  0  0  0  0
 20 28  1  0  0  0  0
 20 29  1  0  0  0  0
 21 23  1  0  0  0  0
 21 30  1  0  0  0  0
 21 31  1  0  0  0  0
 22 33  1  0  0  0  0
 22 34  1  0  0  0  0
 23 32  1  0  0  0  0
 23 35  1  0  0  0  0
 24 25  1  0  0  0  0
 24 26  1  0  0  0  0
 24 36  1  0  0  0  0
 25 37  1  0  0  0  0
 25 38  1  0  0  0  0
 26 41  1  0  0  0  0
 26 42  1  0  0  0  0
M  CHG  8   3   1   4   1   5   1   6   1  12  -1  13  -1  16  -1  17  -1
M  END
> <PUBCHEM_COMPOUND_CID>
13170

> <PUBCHEM_COMPOUND_CANONICALIZED>
1

> <PUBCHEM_CACTVS_COMPLEXITY>
254

> <PUBCHEM_CACTVS_HBOND_ACCEPTOR>
12

> <PUBCHEM_CACTVS_HBOND_DONOR>
4

> <PUBCHEM_CACTVS_ROTATABLE_BOND>
8

> <PUBCHEM_CACTVS_SUBSKEYS>
AAADceBwPDMAAAAAAAAAAAAAAAAAAAAAAAAAAAAAAAAAAAAAAAAAGgAACCAACBSggAIAAAAAAxAAQAAAAIAAAAAAAAAAAAAAAAABEAIAAAAAQAAFAAABAACAIAAAAAAAAAAAAAAAAAAAAAAAAAAAAAAAAA==

> <PUBCHEM_IUPAC_OPENEYE_NAME>
tetrasodium; 2,3-dihydroxypropyl phosphate; [3-hydroxy-1-(2-hydroxyethyl)propyl] phosphate

> <PUBCHEM_IUPAC_CAS_NAME>
tetrasodium; 1,5-dihydroxypentan-3-yl phosphate; 2,3-dihydroxypropyl phosphate

> <PUBCHEM_IUPAC_NAME>
tetrasodium; 1,5-dihydroxypentan-3-yl phosphate; 2,3-dihydroxypropyl phosphate

> <PUBCHEM_IUPAC_SYSTEMATIC_NAME>
tetrasodium; 1,5-bis(oxidanyl)pentan-3-yl phosphate; 2,3-bis(oxidanyl)propyl phosphate

> <PUBCHEM_IUPAC_TRADITIONAL_NAME>
tetrasodium; glyceryl phosphate; [3-hydroxy-1-(2-hydroxyethyl)propyl] phosphate

> <PUBCHEM_IUPAC_INCHI>
InChI=1S/C5H13O6P.C3H9O6P.4Na/c6-3-1-5(2-4-7)11-12(8,9)10;4-1-3(5)2-9-10(6,7)8;;;;/h5-7H,1-4H2,(H2,8,9,10);3-5H,1-2H2,(H2,6,7,8);;;;/q;;4*+1/p-4

> <PUBCHEM_IUPAC_INCHIKEY>
WENPEHSLKZUZKX-UHFFFAOYSA-J

> <PUBCHEM_EXACT_MASS>
459.986426

> <PUBCHEM_MOLECULAR_FORMULA>
C8H18Na4O12P2

> <PUBCHEM_MOLECULAR_WEIGHT>
460.127921

> <PUBCHEM_OPENEYE_CAN_SMILES>
C(CO)C(CCO)OP(=O)([O-])[O-].C(C(COP(=O)([O-])[O-])O)O.[Na+].[Na+].[Na+].[Na+]

> <PUBCHEM_OPENEYE_ISO_SMILES>
C(CO)C(CCO)OP(=O)([O-])[O-].C(C(COP(=O)([O-])[O-])O)O.[Na+].[Na+].[Na+].[Na+]

> <PUBCHEM_CACTVS_TPSA>
226

> <PUBCHEM_MONOISOTOPIC_WEIGHT>
459.986426

> <PUBCHEM_TOTAL_CHARGE>
0

> <PUBCHEM_HEAVY_ATOM_COUNT>
26

> <PUBCHEM_ATOM_DEF_STEREO_COUNT>
0

> <PUBCHEM_ATOM_UDEF_STEREO_COUNT>
1

> <PUBCHEM_BOND_DEF_STEREO_COUNT>
0

> <PUBCHEM_BOND_UDEF_STEREO_COUNT>
0

> <PUBCHEM_ISOTOPIC_ATOM_COUNT>
0

> <PUBCHEM_COMPONENT_COUNT>
6

> <PUBCHEM_CACTVS_TAUTO_COUNT>
1

> <PUBCHEM_COORDINATE_TYPE>
1
5
255

> <PUBCHEM_BONDANNOTATIONS>
24  11  3

$$$$

