   Color/Form
        NATURAL FORM, CRYSTALS
   from [1]HSDB

   Melting Point
        25-35 DEG C
   from [2]HSDB

   Solubilities
        FREELY SOL IN METHANOL, ABSOLUTE ETHANOL; FREELY SOL IN ETHYL
   ACETATE, CHLOROFORM; SLIGHTLY SOL IN WATER
   from [3]HSDB

   Spectral Properties
        SPECIFIC OPTICAL ROTATION: +23.5 DEG @ 25 DEG C/D (1 G IN 100 ML
   TETRAHYDROFURAN)
   from [4]HSDB

   Other Chemical/Physical Properties

     * ODORLESS, BITTER-TASTING /DINOPROST TROMETHAMINE/
     * MP APPROX 100 DEG C /DINOPROST TROMETHAMINE/
     * WHITE OR OFF-WHITE CRYSTALLINE POWDER /DINOPROST TROMETHAMINE/
     * SOL IN WATER 200 MG/ML /DINOPROST TROMETHAMINE/

   from [5]HSDB

   Computed Properties
   Molecular Weight                  354.48096 [g/mol]
   Molecular Formula                 C[20]H[34]O[5]
   XLogP3                            2.7
   H-Bond Donor                      4
   H-Bond Acceptor                   5
   Rotatable Bond Count              12
   Exact Mass                        354.240624
   MonoIsotopic Mass                 354.240624
   Topological Polar Surface Area    98
   Heavy Atom Count                  25
   Formal Charge                     0
   Complexity                        432
   Isotope Atom Count                0
   Defined Atom Stereocenter Count   5
   Undefined Atom Stereocenter Count 0
   Defined Bond Stereocenter Count   2
   Undefined Bond Stereocenter Count 0
   Covalently-Bonded Unit Count      1
   Feature 3D Acceptor Count         5
   Feature 3D Donor Count            3
   Feature 3D Anion Count            1
   Feature 3D Hydrophobe Count       3
   Feature 3D Ring Count             1
   Effective Rotor Count             13
   Conformer Sampling RMSD           1.2
   CID Conformer Count               [6]127

References

   1. http://toxnet.nlm.nih.gov/cgi-bin/sis/search/r?dbs+hsdb:@term+@rn+@rel+551-11-1
   2. http://toxnet.nlm.nih.gov/cgi-bin/sis/search/r?dbs+hsdb:@term+@rn+@rel+551-11-1
   3. http://toxnet.nlm.nih.gov/cgi-bin/sis/search/r?dbs+hsdb:@term+@rn+@rel+551-11-1
   4. http://toxnet.nlm.nih.gov/cgi-bin/sis/search/r?dbs+hsdb:@term+@rn+@rel+551-11-1
   5. http://toxnet.nlm.nih.gov/cgi-bin/sis/search/r?dbs+hsdb:@term+@rn+@rel+551-11-1
   6. http://pubchem.ncbi.nlm.nih.gov/vw3d/vw3d.cgi?cid=5280363
