   Color/Form

     * Tan colored pellets
     * Light-brown flakes
     * Flakes from alcohol

   from [1]HSDB

   Odor
        Faint, amine-like odor.
   from [2]HSDB

   Melting Point
        110 deg C
   from [3]HSDB

   Density/Specific Gravity
        1.44
   from [4]HSDB

   Octanol/Water Partition Coefficient
        log Kow= 3.91
   from [5]HSDB

   pH
        Weak base
   from [6]HSDB

   Solubilities

     * Sol in hot methyl ethyl ketone, acetone, esters, and aromatic
       hydrocarbons
     * Sol in dimethyl sulfoxide, dimethyl formamide
     * Sol in dil acids, ether, alcohol
     * Soluble in carbon tetrachloride
     * Slightly soluble in water; sol in oxygenated solvents

   from [7]HSDB

   Spectral Properties

     * MASS: 27796 (NIST/EPA/MSDC Mass Spectral Database 1990 version);
       203 (Aldermaston Eight Peak Index of Mass Spectra, UK)
     * IR: 6719 (Coblentz Society Spectral Collection)
     * UV: 2914 (Sadtler Research Laboratories Spectral Collection)
     * 1H-NMR: 6404 (Sadtler Research Laboratories Spectral Collection)

   from [8]HSDB

   Vapor Pressure
        2.86X10-7 mm Hg @ 25 deg C /Estimated/
   from [9]HSDB

   Other Chemical/Physical Properties

     * VP: 1.3X10-3 torr @ 60 deg C
     * Has general characteristics of primary aromatic amines.
     * When heated to decomp, it emits very toxic fumes of chlorine, NO(x)
       and hydrochloric acid.
     * Henry's Law constant: 4.1X10-11 atm-cu m/mole @ 25 deg C
       /Estimated/
     * Hydroxyl radical reaction rate constant: 7.75X10-11 cu
       cm/molecule-sec @ 25 deg C /Estimated/

   from [10]HSDB

   Computed Properties
   Molecular Weight                  267.15378 [g/mol]
   Molecular Formula                 C[13]H[12]Cl[2]N[2]
   XLogP3                            3.8
   H-Bond Donor                      2
   H-Bond Acceptor                   2
   Rotatable Bond Count              2
   Exact Mass                        266.037754
   MonoIsotopic Mass                 266.037754
   Topological Polar Surface Area    52
   Heavy Atom Count                  17
   Formal Charge                     0
   Complexity                        226
   Isotope Atom Count                0
   Defined Atom Stereocenter Count   0
   Undefined Atom Stereocenter Count 0
   Defined Bond Stereocenter Count   0
   Undefined Bond Stereocenter Count 0
   Covalently-Bonded Unit Count      1
   Feature 3D Donor Count            2
   Feature 3D Cation Count           2
   Feature 3D Ring Count             2
   Effective Rotor Count             2
   Conformer Sampling RMSD           0.6
   CID Conformer Count               [11]11

References

   1. http://toxnet.nlm.nih.gov/cgi-bin/sis/search/r?dbs+hsdb:@term+@rn+@rel+101-14-4
   2. http://toxnet.nlm.nih.gov/cgi-bin/sis/search/r?dbs+hsdb:@term+@rn+@rel+101-14-4
   3. http://toxnet.nlm.nih.gov/cgi-bin/sis/search/r?dbs+hsdb:@term+@rn+@rel+101-14-4
   4. http://toxnet.nlm.nih.gov/cgi-bin/sis/search/r?dbs+hsdb:@term+@rn+@rel+101-14-4
   5. http://toxnet.nlm.nih.gov/cgi-bin/sis/search/r?dbs+hsdb:@term+@rn+@rel+101-14-4
   6. http://toxnet.nlm.nih.gov/cgi-bin/sis/search/r?dbs+hsdb:@term+@rn+@rel+101-14-4
   7. http://toxnet.nlm.nih.gov/cgi-bin/sis/search/r?dbs+hsdb:@term+@rn+@rel+101-14-4
   8. http://toxnet.nlm.nih.gov/cgi-bin/sis/search/r?dbs+hsdb:@term+@rn+@rel+101-14-4
   9. http://toxnet.nlm.nih.gov/cgi-bin/sis/search/r?dbs+hsdb:@term+@rn+@rel+101-14-4
  10. http://toxnet.nlm.nih.gov/cgi-bin/sis/search/r?dbs+hsdb:@term+@rn+@rel+101-14-4
  11. http://pubchem.ncbi.nlm.nih.gov/vw3d/vw3d.cgi?cid=7543
