115149
  -OEChem-07051212582D

 72 76  0     1  0  0  0  0  0999 V2000
    8.0622    0.8450    0.0000 O   0  0  0  0  0  0  0  0  0  0  0  0
    7.1962    2.3450    0.0000 O   0  0  0  0  0  0  0  0  0  0  0  0
    8.9282    2.3450    0.0000 O   0  0  0  0  0  0  0  0  0  0  0  0
    6.3301   -0.1550    0.0000 O   0  0  0  0  0  0  0  0  0  0  0  0
    4.5981    0.8450    0.0000 O   0  0  0  0  0  0  0  0  0  0  0  0
    4.5981    2.8450    0.0000 O   0  0  0  0  0  0  0  0  0  0  0  0
   12.4603    2.3658    0.0000 O   0  0  0  0  0  0  0  0  0  0  0  0
    7.1962    4.3450    0.0000 O   0  0  0  0  0  0  0  0  0  0  0  0
   11.5426    3.8796    0.0000 O   0  0  0  0  0  0  0  0  0  0  0  0
    4.5981   -0.1550    0.0000 O   0  0  0  0  0  0  0  0  0  0  0  0
    7.1962   -1.6550    0.0000 O   0  0  0  0  0  0  0  0  0  0  0  0
    5.4641   -4.6550    0.0000 O   0  0  0  0  0  0  0  0  0  0  0  0
    2.8660    0.8450    0.0000 O   0  0  0  0  0  0  0  0  0  0  0  0
   10.6603    1.3450    0.0000 C   0  0  2  0  0  0  0  0  0  0  0  0
    9.7942    0.8450    0.0000 C   0  0  2  0  0  0  0  0  0  0  0  0
    6.3301    0.8450    0.0000 C   0  0  1  0  0  0  0  0  0  0  0  0
    7.1962    1.3450    0.0000 C   0  0  2  0  0  0  0  0  0  0  0  0
    5.4641    1.3450    0.0000 C   0  0  2  0  0  0  0  0  0  0  0  0
    8.9282    1.3450    0.0000 C   0  0  2  0  0  0  0  0  0  0  0  0
    5.4641    2.3450    0.0000 C   0  0  1  0  0  0  0  0  0  0  0  0
    6.3301    2.8450    0.0000 C   0  0  1  0  0  0  0  0  0  0  0  0
   11.5542    0.8103    0.0000 C   0  0  0  0  0  0  0  0  0  0  0  0
   10.6603    2.3450    0.0000 C   0  0  0  0  0  0  0  0  0  0  0  0
   12.4603    1.3242    0.0000 C   0  0  0  0  0  0  0  0  0  0  0  0
    9.7942   -0.1550    0.0000 C   0  0  0  0  0  0  0  0  0  0  0  0
    6.3301    3.8450    0.0000 C   0  0  0  0  0  0  0  0  0  0  0  0
    9.7942    2.8450    0.0000 C   0  0  0  0  0  0  0  0  0  0  0  0
   11.5542    2.8797    0.0000 C   0  0  0  0  0  0  0  0  0  0  0  0
   10.6603   -0.6550    0.0000 C   0  0  0  0  0  0  0  0  0  0  0  0
    5.4641   -0.6550    0.0000 C   0  0  0  0  0  0  0  0  0  0  0  0
    5.4641   -1.6550    0.0000 C   0  0  0  0  0  0  0  0  0  0  0  0
    4.5981   -2.1550    0.0000 C   0  0  0  0  0  0  0  0  0  0  0  0
    6.3301   -2.1550    0.0000 C   0  0  0  0  0  0  0  0  0  0  0  0
    4.5981   -3.1550    0.0000 C   0  0  0  0  0  0  0  0  0  0  0  0
    3.7320   -1.6550    0.0000 C   0  0  0  0  0  0  0  0  0  0  0  0
    6.3301   -3.1550    0.0000 C   0  0  0  0  0  0  0  0  0  0  0  0
    5.4641   -3.6550    0.0000 C   0  0  0  0  0  0  0  0  0  0  0  0
    3.7320   -0.6550    0.0000 C   0  0  0  0  0  0  0  0  0  0  0  0
    2.8660   -2.1550    0.0000 C   0  0  0  0  0  0  0  0  0  0  0  0
    2.8660   -0.1550    0.0000 C   0  0  0  0  0  0  0  0  0  0  0  0
    2.0000   -1.6550    0.0000 C   0  0  0  0  0  0  0  0  0  0  0  0
    2.0000   -0.6550    0.0000 C   0  0  0  0  0  0  0  0  0  0  0  0
   10.6537    0.4950    0.0000 H   0  0  0  0  0  0  0  0  0  0  0  0
    9.2573    0.5350    0.0000 H   0  0  0  0  0  0  0  0  0  0  0  0
    6.8671    0.5350    0.0000 H   0  0  0  0  0  0  0  0  0  0  0  0
    7.1962    0.7250    0.0000 H   0  0  0  0  0  0  0  0  0  0  0  0
    5.4641    0.7250    0.0000 H   0  0  0  0  0  0  0  0  0  0  0  0
    8.9282    0.7250    0.0000 H   0  0  0  0  0  0  0  0  0  0  0  0
    5.4641    2.9650    0.0000 H   0  0  0  0  0  0  0  0  0  0  0  0
    6.8671    3.1550    0.0000 H   0  0  0  0  0  0  0  0  0  0  0  0
   11.1496    0.3406    0.0000 H   0  0  0  0  0  0  0  0  0  0  0  0
   11.9478    0.3313    0.0000 H   0  0  0  0  0  0  0  0  0  0  0  0
   12.6693    0.7405    0.0000 H   0  0  0  0  0  0  0  0  0  0  0  0
   13.0711    1.4303    0.0000 H   0  0  0  0  0  0  0  0  0  0  0  0
    9.2573   -0.4650    0.0000 H   0  0  0  0  0  0  0  0  0  0  0  0
    6.1181    4.4276    0.0000 H   0  0  0  0  0  0  0  0  0  0  0  0
    5.7196    3.7373    0.0000 H   0  0  0  0  0  0  0  0  0  0  0  0
    9.7942    3.4650    0.0000 H   0  0  0  0  0  0  0  0  0  0  0  0
    4.0611    1.1550    0.0000 H   0  0  0  0  0  0  0  0  0  0  0  0
    4.5981    3.4650    0.0000 H   0  0  0  0  0  0  0  0  0  0  0  0
   10.6603   -1.2750    0.0000 H   0  0  0  0  0  0  0  0  0  0  0  0
   11.1972   -0.3450    0.0000 H   0  0  0  0  0  0  0  0  0  0  0  0
    7.1962    4.9650    0.0000 H   0  0  0  0  0  0  0  0  0  0  0  0
    4.0611   -3.4650    0.0000 H   0  0  0  0  0  0  0  0  0  0  0  0
    6.8671   -3.4650    0.0000 H   0  0  0  0  0  0  0  0  0  0  0  0
    4.2690   -0.3450    0.0000 H   0  0  0  0  0  0  0  0  0  0  0  0
    2.8660   -2.7750    0.0000 H   0  0  0  0  0  0  0  0  0  0  0  0
    7.7331   -1.9650    0.0000 H   0  0  0  0  0  0  0  0  0  0  0  0
    1.4631   -1.9650    0.0000 H   0  0  0  0  0  0  0  0  0  0  0  0
    6.0010   -4.9650    0.0000 H   0  0  0  0  0  0  0  0  0  0  0  0
    1.4631   -0.3450    0.0000 H   0  0  0  0  0  0  0  0  0  0  0  0
    2.3291    1.1550    0.0000 H   0  0  0  0  0  0  0  0  0  0  0  0
 17  1  1  1  0  0  0
 19  1  1  6  0  0  0
  2 17  1  0  0  0  0
  2 21  1  0  0  0  0
  3 19  1  0  0  0  0
  3 27  1  0  0  0  0
 16  4  1  6  0  0  0
  4 30  1  0  0  0  0
 18  5  1  1  0  0  0
  5 59  1  0  0  0  0
 20  6  1  6  0  0  0
  6 60  1  0  0  0  0
  7 24  1  0  0  0  0
  7 28  1  0  0  0  0
  8 26  1  0  0  0  0
  8 63  1  0  0  0  0
  9 28  2  0  0  0  0
 10 30  2  0  0  0  0
 11 33  1  0  0  0  0
 11 68  1  0  0  0  0
 12 37  1  0  0  0  0
 12 70  1  0  0  0  0
 13 40  1  0  0  0  0
 13 72  1  0  0  0  0
 14 15  1  0  0  0  0
 14 22  1  0  0  0  0
 14 23  1  0  0  0  0
 14 43  1  6  0  0  0
 15 19  1  0  0  0  0
 15 25  1  1  0  0  0
 15 44  1  0  0  0  0
 16 17  1  0  0  0  0
 16 18  1  0  0  0  0
 16 45  1  0  0  0  0
 17 46  1  0  0  0  0
 18 20  1  0  0  0  0
 18 47  1  0  0  0  0
 19 48  1  0  0  0  0
 20 21  1  0  0  0  0
 20 49  1  0  0  0  0
 21 26  1  1  0  0  0
 21 50  1  0  0  0  0
 22 24  1  0  0  0  0
 22 51  1  0  0  0  0
 22 52  1  0  0  0  0
 23 27  2  0  0  0  0
 23 28  1  0  0  0  0
 24 53  1  0  0  0  0
 24 54  1  0  0  0  0
 25 29  2  0  0  0  0
 25 55  1  0  0  0  0
 26 56  1  0  0  0  0
 26 57  1  0  0  0  0
 27 58  1  0  0  0  0
 29 61  1  0  0  0  0
 29 62  1  0  0  0  0
 30 31  1  0  0  0  0
 31 32  1  0  0  0  0
 31 33  2  0  0  0  0
 32 34  2  0  0  0  0
 32 35  1  0  0  0  0
 33 36  1  0  0  0  0
 34 37  1  0  0  0  0
 34 64  1  0  0  0  0
 35 38  2  0  0  0  0
 35 39  1  0  0  0  0
 36 37  2  0  0  0  0
 36 65  1  0  0  0  0
 38 40  1  0  0  0  0
 38 66  1  0  0  0  0
 39 41  2  0  0  0  0
 39 67  1  0  0  0  0
 40 42  2  0  0  0  0
 41 42  1  0  0  0  0
 41 69  1  0  0  0  0
 42 71  1  0  0  0  0
M  END
> <PUBCHEM_COMPOUND_CID>
115149

> <PUBCHEM_COMPOUND_CANONICALIZED>
1

> <PUBCHEM_CACTVS_COMPLEXITY>
1020

> <PUBCHEM_CACTVS_HBOND_ACCEPTOR>
13

> <PUBCHEM_CACTVS_HBOND_DONOR>
6

> <PUBCHEM_CACTVS_ROTATABLE_BOND>
8

> <PUBCHEM_CACTVS_SUBSKEYS>
AAADceB4PAAAAAAAAAAAAAAAAAAAAAAAAAA0aIECAAAAAACBQAAAGgAACAAADRSwmAMwDoAABgCIAiDSCAACCAAkIAAIiAEGCMgZNzaCNRqicUAl4BUPuYfI7PzOoAABCAAYAABAAAIQADAAAAAAAAAAAA==

> <PUBCHEM_IUPAC_OPENEYE_NAME>
[(2S,3R,4S,5S,6R)-2-[[(3S,4R,4aS)-8-oxo-4-vinyl-4,4a,5,6-tetrahydro-3H-pyrano[3,4-c]pyran-3-yl]oxy]-4,5-dihydroxy-6-(hydroxymethyl)tetrahydropyran-3-yl] 2,4-dihydroxy-6-(3-hydroxyphenyl)benzoate

> <PUBCHEM_IUPAC_CAS_NAME>
2,4-dihydroxy-6-(3-hydroxyphenyl)benzoic acid [(2S,3R,4S,5S,6R)-2-[[(3S,4R,4aS)-4-ethenyl-8-oxo-4,4a,5,6-tetrahydro-3H-pyrano[3,4-c]pyran-3-yl]oxy]-4,5-dihydroxy-6-(hydroxymethyl)-3-oxanyl] ester

> <PUBCHEM_IUPAC_NAME>
[(2S,3R,4S,5S,6R)-2-[[(3S,4R,4aS)-4-ethenyl-8-oxo-4,4a,5,6-tetrahydro-3H-pyrano[3,4-c]pyran-3-yl]oxy]-4,5-dihydroxy-6-(hydroxymethyl)oxan-3-yl] 2,4-dihydroxy-6-(3-hydroxyphenyl)benzoate

> <PUBCHEM_IUPAC_SYSTEMATIC_NAME>
[(2S,3R,4S,5S,6R)-2-[[(3S,4R,4aS)-4-ethenyl-8-oxidanylidene-4,4a,5,6-tetrahydro-3H-pyrano[3,4-c]pyran-3-yl]oxy]-6-(hydroxymethyl)-4,5-bis(oxidanyl)oxan-3-yl] 2-(3-hydroxyphenyl)-4,6-bis(oxidanyl)benzoate

> <PUBCHEM_IUPAC_TRADITIONAL_NAME>
2,4-dihydroxy-6-(3-hydroxyphenyl)benzoic acid [(2S,3R,4S,5S,6R)-2-[[(3S,4R,4aS)-8-keto-4-vinyl-4,4a,5,6-tetrahydro-3H-pyrano[3,4-c]pyran-3-yl]oxy]-4,5-dihydroxy-6-methylol-tetrahydropyran-3-yl] ester

> <PUBCHEM_IUPAC_INCHI>
InChI=1S/C29H30O13/c1-2-16-17-6-7-38-26(36)19(17)12-39-28(16)42-29-25(24(35)23(34)21(11-30)40-29)41-27(37)22-18(9-15(32)10-20(22)33)13-4-3-5-14(31)8-13/h2-5,8-10,12,16-17,21,23-25,28-35H,1,6-7,11H2/t16-,17+,21-,23-,24+,25-,28+,29+/m1/s1

> <PUBCHEM_IUPAC_INCHIKEY>
DBOVHQOUSDWAPQ-WTONXPSSSA-N

> <PUBCHEM_XLOGP3_AA>
2.4

> <PUBCHEM_EXACT_MASS>
586.168641

> <PUBCHEM_MOLECULAR_FORMULA>
C29H30O13

> <PUBCHEM_MOLECULAR_WEIGHT>
586.5407

> <PUBCHEM_OPENEYE_CAN_SMILES>
C=CC1C2CCOC(=O)C2=COC1OC3C(C(C(C(O3)CO)O)O)OC(=O)C4=C(C=C(C=C4C5=CC(=CC=C5)O)O)O

> <PUBCHEM_OPENEYE_ISO_SMILES>
C=C[C@@H]1[C@@H]2CCOC(=O)C2=CO[C@H]1O[C@H]3[C@@H]([C@H]([C@@H]([C@H](O3)CO)O)O)OC(=O)C4=C(C=C(C=C4C5=CC(=CC=C5)O)O)O

> <PUBCHEM_CACTVS_TPSA>
202

> <PUBCHEM_MONOISOTOPIC_WEIGHT>
586.168641

> <PUBCHEM_TOTAL_CHARGE>
0

> <PUBCHEM_HEAVY_ATOM_COUNT>
42

> <PUBCHEM_ATOM_DEF_STEREO_COUNT>
8

> <PUBCHEM_ATOM_UDEF_STEREO_COUNT>
0

> <PUBCHEM_BOND_DEF_STEREO_COUNT>
0

> <PUBCHEM_BOND_UDEF_STEREO_COUNT>
0

> <PUBCHEM_ISOTOPIC_ATOM_COUNT>
0

> <PUBCHEM_COMPONENT_COUNT>
1

> <PUBCHEM_CACTVS_TAUTO_COUNT>
36

> <PUBCHEM_COORDINATE_TYPE>
1
5
255

> <PUBCHEM_BONDANNOTATIONS>
17  1  5
19  1  6
14  43  6
15  25  5
21  26  5
31  32  8
31  33  8
32  34  8
33  36  8
34  37  8
35  38  8
35  39  8
36  37  8
38  40  8
39  41  8
16  4  6
40  42  8
41  42  8
18  5  5
20  6  6

$$$$

