5462499
  -OEChem-07051213012D

108107  0     1  0  0  0  0  0999 V2000
   12.0632   -1.7500    0.0000 O   0  0  0  0  0  0  0  0  0  0  0  0
    5.1350   -1.7500    0.0000 O   0  0  0  0  0  0  0  0  0  0  0  0
   14.6613    0.7500    0.0000 O   0  0  0  0  0  0  0  0  0  0  0  0
   10.3312   -1.7500    0.0000 O   0  0  0  0  0  0  0  0  0  0  0  0
   17.2594   -1.7500    0.0000 O   0  0  0  0  0  0  0  0  0  0  0  0
    7.7331    0.7500    0.0000 O   0  0  0  0  0  0  0  0  0  0  0  0
    2.5369   -0.2500    0.0000 O   0  0  0  0  0  0  0  0  0  0  0  0
   19.8574    0.7500    0.0000 O   0  0  0  0  0  0  0  0  0  0  0  0
    3.4030   -1.7500    0.0000 O   0  0  0  0  0  0  0  0  0  0  0  0
   13.7953   -0.7500    0.0000 N   0  0  0  0  0  0  0  0  0  0  0  0
   16.3933   -0.2500    0.0000 N   0  0  0  0  0  0  0  0  0  0  0  0
    6.8671   -0.7500    0.0000 N   0  0  0  0  0  0  0  0  0  0  0  0
    9.4651   -0.2500    0.0000 N   0  0  0  0  0  0  0  0  0  0  0  0
   18.9914   -0.7500    0.0000 N   0  0  0  0  0  0  0  0  0  0  0  0
   12.9292   -0.2500    0.0000 C   0  0  1  0  0  0  0  0  0  0  0  0
   12.9292    0.7500    0.0000 C   0  0  0  0  0  0  0  0  0  0  0  0
   12.0632   -0.7500    0.0000 C   0  0  2  0  0  0  0  0  0  0  0  0
   12.0632    1.2500    0.0000 C   0  0  0  0  0  0  0  0  0  0  0  0
   15.5273   -0.7500    0.0000 C   0  0  1  0  0  0  0  0  0  0  0  0
    6.0010   -0.2500    0.0000 C   0  0  1  0  0  0  0  0  0  0  0  0
   11.1972   -0.2500    0.0000 C   0  0  0  0  0  0  0  0  0  0  0  0
   15.5273   -1.7500    0.0000 C   0  0  0  0  0  0  0  0  0  0  0  0
    6.0010    0.7500    0.0000 C   0  0  0  0  0  0  0  0  0  0  0  0
   14.6613   -0.2500    0.0000 C   0  0  0  0  0  0  0  0  0  0  0  0
    5.1350    1.2500    0.0000 C   0  0  0  0  0  0  0  0  0  0  0  0
    5.1350   -0.7500    0.0000 C   0  0  2  0  0  0  0  0  0  0  0  0
   12.0632    2.2500    0.0000 C   0  0  0  0  0  0  0  0  0  0  0  0
   11.1972    0.7500    0.0000 C   0  0  0  0  0  0  0  0  0  0  0  0
   18.1254   -0.2500    0.0000 C   0  0  1  0  0  0  0  0  0  0  0  0
   10.3312   -0.7500    0.0000 C   0  0  0  0  0  0  0  0  0  0  0  0
   18.1254    0.7500    0.0000 C   0  0  0  0  0  0  0  0  0  0  0  0
    8.5991   -0.7500    0.0000 C   0  0  2  0  0  0  0  0  0  0  0  0
   17.2594   -0.7500    0.0000 C   0  0  0  0  0  0  0  0  0  0  0  0
   14.6613   -2.2500    0.0000 C   0  0  0  0  0  0  0  0  0  0  0  0
   16.3933   -2.2500    0.0000 C   0  0  0  0  0  0  0  0  0  0  0  0
    4.2690   -0.2500    0.0000 C   0  0  0  0  0  0  0  0  0  0  0  0
    7.7331   -0.2500    0.0000 C   0  0  0  0  0  0  0  0  0  0  0  0
    5.1350    2.2500    0.0000 C   0  0  0  0  0  0  0  0  0  0  0  0
    4.2690    0.7500    0.0000 C   0  0  0  0  0  0  0  0  0  0  0  0
   18.9914    1.2500    0.0000 C   0  0  0  0  0  0  0  0  0  0  0  0
   17.2594    1.2500    0.0000 C   0  0  0  0  0  0  0  0  0  0  0  0
    8.5991   -1.7500    0.0000 C   0  0  0  0  0  0  0  0  0  0  0  0
   19.8574   -0.2500    0.0000 C   0  0  0  0  0  0  0  0  0  0  0  0
    3.4030   -0.7500    0.0000 C   0  0  0  0  0  0  0  0  0  0  0  0
   20.7235   -0.7500    0.0000 C   0  0  0  0  0  0  0  0  0  0  0  0
   21.5895   -0.2500    0.0000 C   0  0  0  0  0  0  0  0  0  0  0  0
   20.7235   -1.7500    0.0000 C   0  0  0  0  0  0  0  0  0  0  0  0
   12.9292   -0.8700    0.0000 H   0  0  0  0  0  0  0  0  0  0  0  0
   13.5398    0.6423    0.0000 H   0  0  0  0  0  0  0  0  0  0  0  0
   13.1413    1.3326    0.0000 H   0  0  0  0  0  0  0  0  0  0  0  0
   12.6002   -1.0600    0.0000 H   0  0  0  0  0  0  0  0  0  0  0  0
   12.6002    1.5600    0.0000 H   0  0  0  0  0  0  0  0  0  0  0  0
   15.5273   -0.1300    0.0000 H   0  0  0  0  0  0  0  0  0  0  0  0
   13.7953   -1.3700    0.0000 H   0  0  0  0  0  0  0  0  0  0  0  0
    6.5380    0.0600    0.0000 H   0  0  0  0  0  0  0  0  0  0  0  0
   11.5957    0.2249    0.0000 H   0  0  0  0  0  0  0  0  0  0  0  0
   10.7987    0.2249    0.0000 H   0  0  0  0  0  0  0  0  0  0  0  0
   15.5273   -2.3700    0.0000 H   0  0  0  0  0  0  0  0  0  0  0  0
    6.6116    0.6423    0.0000 H   0  0  0  0  0  0  0  0  0  0  0  0
    6.2131    1.3326    0.0000 H   0  0  0  0  0  0  0  0  0  0  0  0
    5.1350    0.6300    0.0000 H   0  0  0  0  0  0  0  0  0  0  0  0
    5.6720   -1.0600    0.0000 H   0  0  0  0  0  0  0  0  0  0  0  0
   12.6832    2.2500    0.0000 H   0  0  0  0  0  0  0  0  0  0  0  0
   12.0632    2.8700    0.0000 H   0  0  0  0  0  0  0  0  0  0  0  0
   11.4432    2.2500    0.0000 H   0  0  0  0  0  0  0  0  0  0  0  0
   10.8872    1.2869    0.0000 H   0  0  0  0  0  0  0  0  0  0  0  0
   10.6603    0.4400    0.0000 H   0  0  0  0  0  0  0  0  0  0  0  0
   11.5072    0.2131    0.0000 H   0  0  0  0  0  0  0  0  0  0  0  0
   16.3933    0.3700    0.0000 H   0  0  0  0  0  0  0  0  0  0  0  0
   18.1254   -0.8700    0.0000 H   0  0  0  0  0  0  0  0  0  0  0  0
    6.8671   -1.3700    0.0000 H   0  0  0  0  0  0  0  0  0  0  0  0
   18.1254    1.3700    0.0000 H   0  0  0  0  0  0  0  0  0  0  0  0
    8.5991   -0.1300    0.0000 H   0  0  0  0  0  0  0  0  0  0  0  0
   14.3513   -1.7131    0.0000 H   0  0  0  0  0  0  0  0  0  0  0  0
   14.1244   -2.5600    0.0000 H   0  0  0  0  0  0  0  0  0  0  0  0
   14.9713   -2.7869    0.0000 H   0  0  0  0  0  0  0  0  0  0  0  0
   16.0833   -2.7869    0.0000 H   0  0  0  0  0  0  0  0  0  0  0  0
   16.9303   -2.5600    0.0000 H   0  0  0  0  0  0  0  0  0  0  0  0
   16.7033   -1.7131    0.0000 H   0  0  0  0  0  0  0  0  0  0  0  0
   11.5263   -2.0600    0.0000 H   0  0  0  0  0  0  0  0  0  0  0  0
    4.6675    0.2249    0.0000 H   0  0  0  0  0  0  0  0  0  0  0  0
    3.8705    0.2249    0.0000 H   0  0  0  0  0  0  0  0  0  0  0  0
    9.4651    0.3700    0.0000 H   0  0  0  0  0  0  0  0  0  0  0  0
    5.7550    2.2500    0.0000 H   0  0  0  0  0  0  0  0  0  0  0  0
    5.1350    2.8700    0.0000 H   0  0  0  0  0  0  0  0  0  0  0  0
    4.5150    2.2500    0.0000 H   0  0  0  0  0  0  0  0  0  0  0  0
    3.9590    1.2869    0.0000 H   0  0  0  0  0  0  0  0  0  0  0  0
    3.7320    0.4400    0.0000 H   0  0  0  0  0  0  0  0  0  0  0  0
    4.5790    0.2131    0.0000 H   0  0  0  0  0  0  0  0  0  0  0  0
   18.9914   -1.3700    0.0000 H   0  0  0  0  0  0  0  0  0  0  0  0
   19.3014    0.7131    0.0000 H   0  0  0  0  0  0  0  0  0  0  0  0
   19.5284    1.5600    0.0000 H   0  0  0  0  0  0  0  0  0  0  0  0
   18.6814    1.7869    0.0000 H   0  0  0  0  0  0  0  0  0  0  0  0
   17.5694    1.7869    0.0000 H   0  0  0  0  0  0  0  0  0  0  0  0
   16.7224    1.5600    0.0000 H   0  0  0  0  0  0  0  0  0  0  0  0
   16.9494    0.7131    0.0000 H   0  0  0  0  0  0  0  0  0  0  0  0
    7.9791   -1.7500    0.0000 H   0  0  0  0  0  0  0  0  0  0  0  0
    8.5991   -2.3700    0.0000 H   0  0  0  0  0  0  0  0  0  0  0  0
    9.2191   -1.7500    0.0000 H   0  0  0  0  0  0  0  0  0  0  0  0
    4.5981   -2.0600    0.0000 H   0  0  0  0  0  0  0  0  0  0  0  0
   20.1865   -1.0600    0.0000 H   0  0  0  0  0  0  0  0  0  0  0  0
   21.8995   -0.7869    0.0000 H   0  0  0  0  0  0  0  0  0  0  0  0
   22.1264    0.0600    0.0000 H   0  0  0  0  0  0  0  0  0  0  0  0
   21.2795    0.2869    0.0000 H   0  0  0  0  0  0  0  0  0  0  0  0
   20.1035   -1.7500    0.0000 H   0  0  0  0  0  0  0  0  0  0  0  0
   20.7235   -2.3700    0.0000 H   0  0  0  0  0  0  0  0  0  0  0  0
   21.3435   -1.7500    0.0000 H   0  0  0  0  0  0  0  0  0  0  0  0
    2.0000   -0.5600    0.0000 H   0  0  0  0  0  0  0  0  0  0  0  0
 17  1  1  1  0  0  0
  1 80  1  0  0  0  0
 26  2  1  1  0  0  0
  2100  1  0  0  0  0
  3 24  2  0  0  0  0
  4 30  2  0  0  0  0
  5 33  2  0  0  0  0
  6 37  2  0  0  0  0
  7 44  1  0  0  0  0
  7108  1  0  0  0  0
  8 43  2  0  0  0  0
  9 44  2  0  0  0  0
 15 10  1  6  0  0  0
 10 24  1  0  0  0  0
 10 54  1  0  0  0  0
 19 11  1  1  0  0  0
 11 33  1  0  0  0  0
 11 69  1  0  0  0  0
 20 12  1  6  0  0  0
 12 37  1  0  0  0  0
 12 71  1  0  0  0  0
 13 30  1  0  0  0  0
 32 13  1  1  0  0  0
 13 83  1  0  0  0  0
 29 14  1  6  0  0  0
 14 43  1  0  0  0  0
 14 90  1  0  0  0  0
 15 16  1  0  0  0  0
 15 17  1  0  0  0  0
 15 48  1  0  0  0  0
 16 18  1  0  0  0  0
 16 49  1  0  0  0  0
 16 50  1  0  0  0  0
 17 21  1  0  0  0  0
 17 51  1  0  0  0  0
 18 27  1  0  0  0  0
 18 28  1  0  0  0  0
 18 52  1  0  0  0  0
 19 22  1  0  0  0  0
 19 24  1  0  0  0  0
 19 53  1  0  0  0  0
 20 23  1  0  0  0  0
 20 26  1  0  0  0  0
 20 55  1  0  0  0  0
 21 30  1  0  0  0  0
 21 56  1  0  0  0  0
 21 57  1  0  0  0  0
 22 34  1  0  0  0  0
 22 35  1  0  0  0  0
 22 58  1  0  0  0  0
 23 25  1  0  0  0  0
 23 59  1  0  0  0  0
 23 60  1  0  0  0  0
 25 38  1  0  0  0  0
 25 39  1  0  0  0  0
 25 61  1  0  0  0  0
 26 36  1  0  0  0  0
 26 62  1  0  0  0  0
 27 63  1  0  0  0  0
 27 64  1  0  0  0  0
 27 65  1  0  0  0  0
 28 66  1  0  0  0  0
 28 67  1  0  0  0  0
 28 68  1  0  0  0  0
 29 31  1  0  0  0  0
 29 33  1  0  0  0  0
 29 70  1  0  0  0  0
 31 40  1  0  0  0  0
 31 41  1  0  0  0  0
 31 72  1  0  0  0  0
 32 37  1  0  0  0  0
 32 42  1  0  0  0  0
 32 73  1  0  0  0  0
 34 74  1  0  0  0  0
 34 75  1  0  0  0  0
 34 76  1  0  0  0  0
 35 77  1  0  0  0  0
 35 78  1  0  0  0  0
 35 79  1  0  0  0  0
 36 44  1  0  0  0  0
 36 81  1  0  0  0  0
 36 82  1  0  0  0  0
 38 84  1  0  0  0  0
 38 85  1  0  0  0  0
 38 86  1  0  0  0  0
 39 87  1  0  0  0  0
 39 88  1  0  0  0  0
 39 89  1  0  0  0  0
 40 91  1  0  0  0  0
 40 92  1  0  0  0  0
 40 93  1  0  0  0  0
 41 94  1  0  0  0  0
 41 95  1  0  0  0  0
 41 96  1  0  0  0  0
 42 97  1  0  0  0  0
 42 98  1  0  0  0  0
 42 99  1  0  0  0  0
 43 45  1  0  0  0  0
 45 46  1  0  0  0  0
 45 47  1  0  0  0  0
 45101  1  0  0  0  0
 46102  1  0  0  0  0
 46103  1  0  0  0  0
 46104  1  0  0  0  0
 47105  1  0  0  0  0
 47106  1  0  0  0  0
 47107  1  0  0  0  0
M  END
> <PUBCHEM_COMPOUND_CID>
5462499

> <PUBCHEM_COMPOUND_CANONICALIZED>
1

> <PUBCHEM_CACTVS_COMPLEXITY>
1050

> <PUBCHEM_CACTVS_HBOND_ACCEPTOR>
9

> <PUBCHEM_CACTVS_HBOND_DONOR>
8

> <PUBCHEM_CACTVS_ROTATABLE_BOND>
21

> <PUBCHEM_CACTVS_SUBSKEYS>
AAADcfB/vAAAAAAAAAAAAAAAAAAAAAAAAAAAAAAAAAAAAAAAAAAAHgAQCAAADTzhgAYCCALAAgAIAAGQGAAAAAAAAAAAAIGIAAACUBYAgCAUQAAHNgCQAAG8yGCMAAAAAAAAAAAAAAAAAAAAAAAAAAAAAA==

> <PUBCHEM_IUPAC_OPENEYE_NAME>
(3S,4S)-3-hydroxy-4-[[(2S)-2-[[(3S,4S)-3-hydroxy-6-methyl-4-[[(2S)-3-methyl-2-[[(2S)-3-methyl-2-(2-methylpropanoylamino)butanoyl]amino]butanoyl]amino]heptanoyl]amino]propanoyl]amino]-6-methyl-heptanoic acid

> <PUBCHEM_IUPAC_CAS_NAME>
(3S,4S)-3-hydroxy-4-[[(2S)-2-[[(3S,4S)-3-hydroxy-6-methyl-4-[[(2S)-3-methyl-2-[[(2S)-3-methyl-2-[(2-methyl-1-oxopropyl)amino]-1-oxobutyl]amino]-1-oxobutyl]amino]-1-oxoheptyl]amino]-1-oxopropyl]amino]-6-methylheptanoic acid

> <PUBCHEM_IUPAC_NAME>
(3S,4S)-3-hydroxy-4-[[(2S)-2-[[(3S,4S)-3-hydroxy-6-methyl-4-[[(2S)-3-methyl-2-[[(2S)-3-methyl-2-(2-methylpropanoylamino)butanoyl]amino]butanoyl]amino]heptanoyl]amino]propanoyl]amino]-6-methylheptanoic acid

> <PUBCHEM_IUPAC_SYSTEMATIC_NAME>
(3S,4S)-6-methyl-4-[[(2S)-2-[[(3S,4S)-6-methyl-4-[[(2S)-3-methyl-2-[[(2S)-3-methyl-2-(2-methylpropanoylamino)butanoyl]amino]butanoyl]amino]-3-oxidanyl-heptanoyl]amino]propanoyl]amino]-3-oxidanyl-heptanoic acid

> <PUBCHEM_IUPAC_TRADITIONAL_NAME>
(3S,4S)-3-hydroxy-4-[[(2S)-2-[[(3S,4S)-3-hydroxy-4-[[(2S)-2-[[(2S)-2-(isobutyrylamino)-3-methyl-butanoyl]amino]-3-methyl-butanoyl]amino]-6-methyl-heptanoyl]amino]propanoyl]amino]-6-methyl-enanthic acid

> <PUBCHEM_IUPAC_INCHI>
InChI=1S/C33H61N5O9/c1-16(2)12-22(36-32(46)28(18(5)6)38-33(47)29(19(7)8)37-30(44)20(9)10)24(39)14-26(41)34-21(11)31(45)35-23(13-17(3)4)25(40)15-27(42)43/h16-25,28-29,39-40H,12-15H2,1-11H3,(H,34,41)(H,35,45)(H,36,46)(H,37,44)(H,38,47)(H,42,43)/t21-,22-,23-,24-,25-,28-,29-/m0/s1

> <PUBCHEM_IUPAC_INCHIKEY>
QNPQJKICJQEMBY-DAOOESDTSA-N

> <PUBCHEM_XLOGP3_AA>
2.8

> <PUBCHEM_EXACT_MASS>
671.446929

> <PUBCHEM_MOLECULAR_FORMULA>
C33H61N5O9

> <PUBCHEM_MOLECULAR_WEIGHT>
671.86554

> <PUBCHEM_OPENEYE_CAN_SMILES>
CC(C)CC(C(CC(=O)O)O)NC(=O)C(C)NC(=O)CC(C(CC(C)C)NC(=O)C(C(C)C)NC(=O)C(C(C)C)NC(=O)C(C)C)O

> <PUBCHEM_OPENEYE_ISO_SMILES>
C[C@@H](C(=O)N[C@@H](CC(C)C)[C@H](CC(=O)O)O)NC(=O)C[C@@H]([C@H](CC(C)C)NC(=O)[C@H](C(C)C)NC(=O)[C@H](C(C)C)NC(=O)C(C)C)O

> <PUBCHEM_CACTVS_TPSA>
223

> <PUBCHEM_MONOISOTOPIC_WEIGHT>
671.446929

> <PUBCHEM_TOTAL_CHARGE>
0

> <PUBCHEM_HEAVY_ATOM_COUNT>
47

> <PUBCHEM_ATOM_DEF_STEREO_COUNT>
7

> <PUBCHEM_ATOM_UDEF_STEREO_COUNT>
0

> <PUBCHEM_BOND_DEF_STEREO_COUNT>
0

> <PUBCHEM_BOND_UDEF_STEREO_COUNT>
0

> <PUBCHEM_ISOTOPIC_ATOM_COUNT>
0

> <PUBCHEM_COMPONENT_COUNT>
1

> <PUBCHEM_CACTVS_TAUTO_COUNT>
32

> <PUBCHEM_COORDINATE_TYPE>
1
5
255

> <PUBCHEM_BONDANNOTATIONS>
17  1  5
15  10  6
19  11  5
20  12  6
32  13  5
29  14  6
26  2  5

$$$$

