   Color/Form

     * Liquid
     * Colorless liquid [Note: A white to tan powder below 46 degrees F.
       The sodium salt, a white powder, is often used].

   from [1]HSDB

   Odor
        Acrid odor.
   from [2]HSDB

   Boiling Point
        190 deg C
   from [3]HSDB

   Melting Point
        20 deg C
   from [4]HSDB

   Corrosivity

     * Corrosive to iron
     * Formulations are ... corrosive to equipment.

   from [5]HSDB

   Density/Specific Gravity
        1.4014 at 20 deg C
   from [6]HSDB

   Dissociation Constants
        pKa average = 1.74 at 0.001 to 0.1 molarity of the acid and 1.84
   at 0.05 ionic strength
   from [7]HSDB

   Octanol/Water Partition Coefficient
        log Kow= 0.78
   from [8]HSDB

   pH
        (Aq): 1.32 (0.099 N, 23 deg C)
   from [9]HSDB

   Solubilities

     * Very soluble in alcohol. Soluble in ether
     * Very soluble in alkali solvents.
     * In water, 502,000 mg/L at 25 deg C

   from [10]HSDB

   Spectral Properties

     * Index of refraction: 1.4551 @ 20 deg C
     * IR: 1152 (Coblentz Society Spectral Collection)
     * NMR: 8139 (Sadtler Research Laboratories Spectral Collection)
     * MASS: 3960 (NIST/EPA/MSDC Mass Spectral Data base, 1990 version);
       1388 (Atlas of Mass Spectral Data, John Wiley & Sons, New York)

   from [11]HSDB

   Vapor Pressure
        0.19 mm Hg at 25 deg C /Estimated/
   from [12]HSDB

   Other Chemical/Physical Properties

     * Salty taste /Sodium salt/
     * Crystals; decomp at 174-176 deg C; aq soln hydrolyze above 70 deg
       C; corrosive to iron
     * HYGROSCOPIC /SODIUM SALT/
     * Henry's Law constant= 6.4X10-8 atm-cu m/mole at 25 deg C
       /Estimated/
     * Hydroxyl radical reaction rate constant= 5.5X10-13 cu cm/molec-sec
       at 25 deg C /Estimated/

   from [13]HSDB

   Computed Properties
   Molecular Weight                  142.96866 [g/mol]
   Molecular Formula                 C[3]H[4]Cl[2]O[2]
   XLogP3-AA                         1.3
   H-Bond Donor                      1
   H-Bond Acceptor                   2
   Rotatable Bond Count              1
   Exact Mass                        141.958835
   MonoIsotopic Mass                 141.958835
   Topological Polar Surface Area    37.3
   Heavy Atom Count                  7
   Formal Charge                     0
   Complexity                        88.9
   Isotope Atom Count                0
   Defined Atom Stereocenter Count   0
   Undefined Atom Stereocenter Count 0
   Defined Bond Stereocenter Count   0
   Undefined Bond Stereocenter Count 0
   Covalently-Bonded Unit Count      1
   Feature 3D Acceptor Count         2
   Feature 3D Anion Count            1
   Effective Rotor Count             1
   Conformer Sampling RMSD           0.4
   CID Conformer Count               [14]3

References

   1. http://toxnet.nlm.nih.gov/cgi-bin/sis/search/r?dbs+hsdb:@term+@rn+@rel+75-99-0
   2. http://toxnet.nlm.nih.gov/cgi-bin/sis/search/r?dbs+hsdb:@term+@rn+@rel+75-99-0
   3. http://toxnet.nlm.nih.gov/cgi-bin/sis/search/r?dbs+hsdb:@term+@rn+@rel+75-99-0
   4. http://toxnet.nlm.nih.gov/cgi-bin/sis/search/r?dbs+hsdb:@term+@rn+@rel+75-99-0
   5. http://toxnet.nlm.nih.gov/cgi-bin/sis/search/r?dbs+hsdb:@term+@rn+@rel+75-99-0
   6. http://toxnet.nlm.nih.gov/cgi-bin/sis/search/r?dbs+hsdb:@term+@rn+@rel+75-99-0
   7. http://toxnet.nlm.nih.gov/cgi-bin/sis/search/r?dbs+hsdb:@term+@rn+@rel+75-99-0
   8. http://toxnet.nlm.nih.gov/cgi-bin/sis/search/r?dbs+hsdb:@term+@rn+@rel+75-99-0
   9. http://toxnet.nlm.nih.gov/cgi-bin/sis/search/r?dbs+hsdb:@term+@rn+@rel+75-99-0
  10. http://toxnet.nlm.nih.gov/cgi-bin/sis/search/r?dbs+hsdb:@term+@rn+@rel+75-99-0
  11. http://toxnet.nlm.nih.gov/cgi-bin/sis/search/r?dbs+hsdb:@term+@rn+@rel+75-99-0
  12. http://toxnet.nlm.nih.gov/cgi-bin/sis/search/r?dbs+hsdb:@term+@rn+@rel+75-99-0
  13. http://toxnet.nlm.nih.gov/cgi-bin/sis/search/r?dbs+hsdb:@term+@rn+@rel+75-99-0
  14. http://pubchem.ncbi.nlm.nih.gov/vw3d/vw3d.cgi?cid=6418
