   Color/Form

     * Colorless crystals
     * Liquid
     * Clear yellow liquid

   from [1]HSDB

   Odor
        Ethanolic odor
   from [2]HSDB

   Melting Point
        228.81 deg C
   from [3]HSDB

   Corrosivity
        Anion is corrosive ... treated wood has the disadvantage of being
   incompatible with many paints and coatings
   from [4]HSDB

   Density/Specific Gravity
        0.9216 g/cu cm at 25 deg C
   from [5]HSDB

   Octanol/Water Partition Coefficient
        log Kow = 4.66 (est)
   from [6]HSDB

   Solubilities

     * Soluble in acetone, extremely soluble in benzene. Insoluble in
       hexane.
     * In water, 0.55 mg/L at 25 deg C (est)

   from [7]HSDB

   Vapor Pressure
        2.3X10-11 mm Hg at 25 deg C (est)
   from [8]HSDB

   Other Chemical/Physical Properties

     * Extremely hygroscopic
     * Colorless liquid. Density: 0.870 g/mL; pH 7.81 /Bardac 2280/
     * Henry's Law constant = 6.85X10-10 atm-cu m/mol at 25 deg C (est)
     * Hydroxyl radical reaction rate constant = 4.63X10-11 cu
       cm/molec-sec at 25 deg C (est)

   from [9]HSDB

   Computed Properties
   Molecular Weight                  362.07622 [g/mol]
   Molecular Formula                 C[22]H[48]ClN
   H-Bond Donor                      0
   H-Bond Acceptor                   1
   Rotatable Bond Count              18
   Exact Mass                        361.347528
   MonoIsotopic Mass                 361.347528
   Topological Polar Surface Area    0
   Heavy Atom Count                  24
   Formal Charge                     0
   Complexity                        200
   Isotope Atom Count                0
   Defined Atom Stereocenter Count   0
   Undefined Atom Stereocenter Count 0
   Defined Bond Stereocenter Count   0
   Undefined Bond Stereocenter Count 0
   Covalently-Bonded Unit Count      2

References

   1. http://toxnet.nlm.nih.gov/cgi-bin/sis/search/r?dbs+hsdb:@term+@rn+@rel+7173-51-5
   2. http://toxnet.nlm.nih.gov/cgi-bin/sis/search/r?dbs+hsdb:@term+@rn+@rel+7173-51-5
   3. http://toxnet.nlm.nih.gov/cgi-bin/sis/search/r?dbs+hsdb:@term+@rn+@rel+7173-51-5
   4. http://toxnet.nlm.nih.gov/cgi-bin/sis/search/r?dbs+hsdb:@term+@rn+@rel+7173-51-5
   5. http://toxnet.nlm.nih.gov/cgi-bin/sis/search/r?dbs+hsdb:@term+@rn+@rel+7173-51-5
   6. http://toxnet.nlm.nih.gov/cgi-bin/sis/search/r?dbs+hsdb:@term+@rn+@rel+7173-51-5
   7. http://toxnet.nlm.nih.gov/cgi-bin/sis/search/r?dbs+hsdb:@term+@rn+@rel+7173-51-5
   8. http://toxnet.nlm.nih.gov/cgi-bin/sis/search/r?dbs+hsdb:@term+@rn+@rel+7173-51-5
   9. http://toxnet.nlm.nih.gov/cgi-bin/sis/search/r?dbs+hsdb:@term+@rn+@rel+7173-51-5
