   Color/Form
        Colorless solid
   from [1]HSDB

   Odor
        Odorless
   from [2]HSDB

   Melting Point
        206 deg C
   from [3]HSDB

   Corrosivity
        NONCORROSIVE
   from [4]HSDB

   Density/Specific Gravity
        1.54 g/cu cm at 20 deg C
   from [5]HSDB

   Dissociation Constants
        pKa = 3.38 at 25 deg C (UV method); pKa = 3.30 at 25 deg C
   (polarography)
   from [6]HSDB

   Octanol/Water Partition Coefficient
        log Kow = 1.14
   from [7]HSDB

   Solubilities

     * IN WATER 400 MG/L AT 20 DEG C; IN METHANOL 34 G/KG AT 20 DEG C; IN
       ACETONE 28 G/KG AT 20 DEG C; IN BENZENE 0.7 G/KG AT 20 DEG C
     * IN CYCLOHEXANE GREATER THAN 0.01 G/100 G @ 20 DEG C; IN CHLOROFORM
       0.21 G/100 G @ 20 DEG C; IN ETHER 0.07 G/100 G @ 20 DEG C
     * In distilled water, 340 mg/L at 20 deg C
     * In methanol 15.1, ethyl acetate 3.7, dichloromethane 1.9, toluene
       0.1 (all in g/l at 20 deg C); Practically insoluble in n-hexane.
     * In water, 400 mg/L at 20 deg C

   from [8]HSDB

   Spectral Properties
        Intense mass spectral peaks: 76 m/z, 96 m/z, 188 m/z
   from [9]HSDB

   Vapor Pressure
        4.50X10-7 mm Hg at 20 deg C
   from [10]HSDB

   Other Chemical/Physical Properties

     * MELTING POINT: 185-195 DEG C /TECHNICAL PRODUCT/
     * DECOMP AT 207 DEG C
     * VAPOR PRESSURE = LESS THAN 10 MICROPASCALS AT 20 DEG C
     * Brown, almost odorless. MP: 198-202 deg C /technical/
     * Henry's Law constant = 3.33X10-10 atm-cu m/mol at 25 deg C (est)
     * Hydroxyl radical reaction rate constant = 4.02X10-11 cu
       cm/molec-sec at 25 deg C (est)

   from [11]HSDB

   Computed Properties
   Molecular Weight                  221.64302 [g/mol]
   Molecular Formula                 C[10]H[8]ClN[3]O
   XLogP3                            0.8
   H-Bond Donor                      1
   H-Bond Acceptor                   3
   Rotatable Bond Count              1
   Tautomer Count                    3
   Exact Mass                        221.03559
   MonoIsotopic Mass                 221.03559
   Topological Polar Surface Area    58.7
   Heavy Atom Count                  15
   Formal Charge                     0
   Complexity                        332
   Isotope Atom Count                0
   Defined Atom Stereocenter Count   0
   Undefined Atom Stereocenter Count 0
   Defined Bond Stereocenter Count   0
   Undefined Bond Stereocenter Count 0
   Covalently-Bonded Unit Count      1
   Feature 3D Acceptor Count         2
   Feature 3D Donor Count            1
   Feature 3D Cation Count           1
   Feature 3D Ring Count             2
   Effective Rotor Count             1
   Conformer Sampling RMSD           0.4
   CID Conformer Count               [12]3

References

   1. http://toxnet.nlm.nih.gov/cgi-bin/sis/search/r?dbs+hsdb:@term+@rn+@rel+1698-60-8
   2. http://toxnet.nlm.nih.gov/cgi-bin/sis/search/r?dbs+hsdb:@term+@rn+@rel+1698-60-8
   3. http://toxnet.nlm.nih.gov/cgi-bin/sis/search/r?dbs+hsdb:@term+@rn+@rel+1698-60-8
   4. http://toxnet.nlm.nih.gov/cgi-bin/sis/search/r?dbs+hsdb:@term+@rn+@rel+1698-60-8
   5. http://toxnet.nlm.nih.gov/cgi-bin/sis/search/r?dbs+hsdb:@term+@rn+@rel+1698-60-8
   6. http://toxnet.nlm.nih.gov/cgi-bin/sis/search/r?dbs+hsdb:@term+@rn+@rel+1698-60-8
   7. http://toxnet.nlm.nih.gov/cgi-bin/sis/search/r?dbs+hsdb:@term+@rn+@rel+1698-60-8
   8. http://toxnet.nlm.nih.gov/cgi-bin/sis/search/r?dbs+hsdb:@term+@rn+@rel+1698-60-8
   9. http://toxnet.nlm.nih.gov/cgi-bin/sis/search/r?dbs+hsdb:@term+@rn+@rel+1698-60-8
  10. http://toxnet.nlm.nih.gov/cgi-bin/sis/search/r?dbs+hsdb:@term+@rn+@rel+1698-60-8
  11. http://toxnet.nlm.nih.gov/cgi-bin/sis/search/r?dbs+hsdb:@term+@rn+@rel+1698-60-8
  12. http://pubchem.ncbi.nlm.nih.gov/vw3d/vw3d.cgi?cid=15546
