   Color/Form

     * Gas under normal atmospheric conditions, colorless liquid under
       pressure
     * Colorless gas or liquid (below 60 degrees F) [Note: Shipped as a
       liquefied compressed gas with 0.1% phenol added to prevent
       polymerization].

   from [1]HSDB

   Odor

     * Characteristic pungent odor
     * Pleasant odor.

   from [2]HSDB

   Boiling Point
        15.8 deg C @ 760 mm Hg
   from [3]HSDB

   Melting Point
        -137.8 deg C
   from [4]HSDB

   Critical Temperature and Pressure
        Critical temperature 463.51 K; critical pressure: 6860 kPa
   from [5]HSDB

   Density/Specific Gravity
        1.4933 @ 20 deg C
   from [6]HSDB

   Heat of Combustion
        -1294.1 kJ/mol @ 25 deg C (gas)
   from [7]HSDB

   Heat of Vaporization
        22.60 kJ/mol @ 25 deg C
   from [8]HSDB

   Octanol/Water Partition Coefficient
        log Kow= 1.57
   from [9]HSDB

   Solubilities

     * Soluble in chloroform, ethanol, ether, acetone, and benzene
     * Insol in water @ 20 deg C

   from [10]HSDB

   Spectral Properties

     * Index of refraction: 1.4380 @ 20 deg C
     * IR: 6435 (Documentation of Molecular Spectroscopy Collection)
     * MASS: 20069 (NIST/EPA/MSDC Mass Spectral Database 1990 Version);
       734 (Atlas of Mass Spectral Data, J Wiley and Sons, NY)

   from [11]HSDB

   Surface Tension
        18.97 dyne/cm @ 25 deg C
   from [12]HSDB

   Vapor Density
        3.7 (Air = 1)
   from [13]HSDB

   Vapor Pressure
        1,033 mm Hg at 25 deg C
   from [14]HSDB

   Viscosity
        0.2393 cSt
   from [15]HSDB

   Other Chemical/Physical Properties

     * Liquid molar volume = 0.0702 cu meter/kmol
     * Heat of fusion = 78.2 kJ/mol @ 25 deg C (gas)
     * Hydroxyl radical reaction rate constant = 6.8X10-12 cu
       cm/molecule-sec at 25 deg C

   from [16]HSDB

   Computed Properties
   Molecular Weight                  106.94922 [g/mol]
   Molecular Formula                 C[2]H[3]Br
   XLogP3-AA                         1.5
   H-Bond Donor                      0
   H-Bond Acceptor                   0
   Rotatable Bond Count              0
   Exact Mass                        105.941812
   MonoIsotopic Mass                 105.941812
   Topological Polar Surface Area    0
   Heavy Atom Count                  3
   Formal Charge                     0
   Complexity                        10.3
   Isotope Atom Count                0
   Defined Atom Stereocenter Count   0
   Undefined Atom Stereocenter Count 0
   Defined Bond Stereocenter Count   0
   Undefined Bond Stereocenter Count 0
   Covalently-Bonded Unit Count      1
   Feature 3D Hydrophobe Count       1
   Effective Rotor Count             0
   Conformer Sampling RMSD           0.4
   CID Conformer Count               [17]1

References

   1. http://toxnet.nlm.nih.gov/cgi-bin/sis/search/r?dbs+hsdb:@term+@rn+@rel+593-60-2
   2. http://toxnet.nlm.nih.gov/cgi-bin/sis/search/r?dbs+hsdb:@term+@rn+@rel+593-60-2
   3. http://toxnet.nlm.nih.gov/cgi-bin/sis/search/r?dbs+hsdb:@term+@rn+@rel+593-60-2
   4. http://toxnet.nlm.nih.gov/cgi-bin/sis/search/r?dbs+hsdb:@term+@rn+@rel+593-60-2
   5. http://toxnet.nlm.nih.gov/cgi-bin/sis/search/r?dbs+hsdb:@term+@rn+@rel+593-60-2
   6. http://toxnet.nlm.nih.gov/cgi-bin/sis/search/r?dbs+hsdb:@term+@rn+@rel+593-60-2
   7. http://toxnet.nlm.nih.gov/cgi-bin/sis/search/r?dbs+hsdb:@term+@rn+@rel+593-60-2
   8. http://toxnet.nlm.nih.gov/cgi-bin/sis/search/r?dbs+hsdb:@term+@rn+@rel+593-60-2
   9. http://toxnet.nlm.nih.gov/cgi-bin/sis/search/r?dbs+hsdb:@term+@rn+@rel+593-60-2
  10. http://toxnet.nlm.nih.gov/cgi-bin/sis/search/r?dbs+hsdb:@term+@rn+@rel+593-60-2
  11. http://toxnet.nlm.nih.gov/cgi-bin/sis/search/r?dbs+hsdb:@term+@rn+@rel+593-60-2
  12. http://toxnet.nlm.nih.gov/cgi-bin/sis/search/r?dbs+hsdb:@term+@rn+@rel+593-60-2
  13. http://toxnet.nlm.nih.gov/cgi-bin/sis/search/r?dbs+hsdb:@term+@rn+@rel+593-60-2
  14. http://toxnet.nlm.nih.gov/cgi-bin/sis/search/r?dbs+hsdb:@term+@rn+@rel+593-60-2
  15. http://toxnet.nlm.nih.gov/cgi-bin/sis/search/r?dbs+hsdb:@term+@rn+@rel+593-60-2
  16. http://toxnet.nlm.nih.gov/cgi-bin/sis/search/r?dbs+hsdb:@term+@rn+@rel+593-60-2
  17. http://pubchem.ncbi.nlm.nih.gov/vw3d/vw3d.cgi?cid=11641
