20105
  -OEChem-07051213132D

 38 38  0     0  0  0  0  0  0999 V2000
    5.4641    1.0600    0.0000 S   0  0  0  0  0  0  0  0  0  0  0  0
    3.7320   -1.9400    0.0000 N   0  0  0  0  0  0  0  0  0  0  0  0
    7.1962   -1.9400    0.0000 N   0  0  0  0  0  0  0  0  0  0  0  0
    5.4641   -1.9400    0.0000 N   0  0  0  0  0  0  0  0  0  0  0  0
    6.3301   -0.4400    0.0000 N   0  0  0  0  0  0  0  0  0  0  0  0
    4.5981   -0.4400    0.0000 N   0  0  0  0  0  0  0  0  0  0  0  0
    2.8660   -1.4400    0.0000 C   0  0  0  0  0  0  0  0  0  0  0  0
    8.0622   -1.4400    0.0000 C   0  0  0  0  0  0  0  0  0  0  0  0
    2.0000   -1.9400    0.0000 C   0  0  0  0  0  0  0  0  0  0  0  0
    2.8660   -0.4400    0.0000 C   0  0  0  0  0  0  0  0  0  0  0  0
    8.9282   -1.9400    0.0000 C   0  0  0  0  0  0  0  0  0  0  0  0
    8.0622   -0.4400    0.0000 C   0  0  0  0  0  0  0  0  0  0  0  0
    4.5981   -1.4400    0.0000 C   0  0  0  0  0  0  0  0  0  0  0  0
    6.3301   -1.4400    0.0000 C   0  0  0  0  0  0  0  0  0  0  0  0
    5.4641    0.0600    0.0000 C   0  0  0  0  0  0  0  0  0  0  0  0
    6.3301    1.5600    0.0000 C   0  0  0  0  0  0  0  0  0  0  0  0
    6.3301    2.5600    0.0000 C   0  0  0  0  0  0  0  0  0  0  0  0
    2.8660   -2.0600    0.0000 H   0  0  0  0  0  0  0  0  0  0  0  0
    8.0622   -2.0600    0.0000 H   0  0  0  0  0  0  0  0  0  0  0  0
    3.7320   -2.5600    0.0000 H   0  0  0  0  0  0  0  0  0  0  0  0
    7.1962   -2.5600    0.0000 H   0  0  0  0  0  0  0  0  0  0  0  0
    1.6900   -1.4031    0.0000 H   0  0  0  0  0  0  0  0  0  0  0  0
    1.4631   -2.2500    0.0000 H   0  0  0  0  0  0  0  0  0  0  0  0
    2.3100   -2.4769    0.0000 H   0  0  0  0  0  0  0  0  0  0  0  0
    3.4860   -0.4400    0.0000 H   0  0  0  0  0  0  0  0  0  0  0  0
    2.8660    0.1800    0.0000 H   0  0  0  0  0  0  0  0  0  0  0  0
    2.2460   -0.4400    0.0000 H   0  0  0  0  0  0  0  0  0  0  0  0
    8.6182   -2.4769    0.0000 H   0  0  0  0  0  0  0  0  0  0  0  0
    9.4651   -2.2500    0.0000 H   0  0  0  0  0  0  0  0  0  0  0  0
    9.2382   -1.4031    0.0000 H   0  0  0  0  0  0  0  0  0  0  0  0
    8.6822   -0.4400    0.0000 H   0  0  0  0  0  0  0  0  0  0  0  0
    8.0622    0.1800    0.0000 H   0  0  0  0  0  0  0  0  0  0  0  0
    7.4422   -0.4400    0.0000 H   0  0  0  0  0  0  0  0  0  0  0  0
    6.5422    0.9774    0.0000 H   0  0  0  0  0  0  0  0  0  0  0  0
    6.9407    1.6677    0.0000 H   0  0  0  0  0  0  0  0  0  0  0  0
    6.9501    2.5600    0.0000 H   0  0  0  0  0  0  0  0  0  0  0  0
    6.3301    3.1800    0.0000 H   0  0  0  0  0  0  0  0  0  0  0  0
    5.7101    2.5600    0.0000 H   0  0  0  0  0  0  0  0  0  0  0  0
  1 15  1  0  0  0  0
  1 16  1  0  0  0  0
  2  7  1  0  0  0  0
  2 13  1  0  0  0  0
  2 20  1  0  0  0  0
  3  8  1  0  0  0  0
  3 14  1  0  0  0  0
  3 21  1  0  0  0  0
  4 13  2  0  0  0  0
  4 14  1  0  0  0  0
  5 14  2  0  0  0  0
  5 15  1  0  0  0  0
  6 13  1  0  0  0  0
  6 15  2  0  0  0  0
  7  9  1  0  0  0  0
  7 10  1  0  0  0  0
  7 18  1  0  0  0  0
  8 11  1  0  0  0  0
  8 12  1  0  0  0  0
  8 19  1  0  0  0  0
  9 22  1  0  0  0  0
  9 23  1  0  0  0  0
  9 24  1  0  0  0  0
 10 25  1  0  0  0  0
 10 26  1  0  0  0  0
 10 27  1  0  0  0  0
 11 28  1  0  0  0  0
 11 29  1  0  0  0  0
 11 30  1  0  0  0  0
 12 31  1  0  0  0  0
 12 32  1  0  0  0  0
 12 33  1  0  0  0  0
 16 17  1  0  0  0  0
 16 34  1  0  0  0  0
 16 35  1  0  0  0  0
 17 36  1  0  0  0  0
 17 37  1  0  0  0  0
 17 38  1  0  0  0  0
M  END
> <PUBCHEM_COMPOUND_CID>
20105

> <PUBCHEM_COMPOUND_CANONICALIZED>
1

> <PUBCHEM_CACTVS_COMPLEXITY>
194

> <PUBCHEM_CACTVS_HBOND_ACCEPTOR>
6

> <PUBCHEM_CACTVS_HBOND_DONOR>
2

> <PUBCHEM_CACTVS_ROTATABLE_BOND>
6

> <PUBCHEM_CACTVS_SUBSKEYS>
AAADceBzgABAAAAAAAAAAAAAAAAAAAAAAAAsAAAAAAAAAAABgAAAHAQQAAAACCjFQASDEAbIEAggAAAAJAAAUAlAAJABAIAIAACACAAACAAAAAAIEAIAAAAAAAAAAAAAAAAAAAAAAAAAAAAAAAAAAAAAAA==

> <PUBCHEM_IUPAC_OPENEYE_NAME>
6-ethylsulfanyl-N2,N4-diisopropyl-1,3,5-triazine-2,4-diamine

> <PUBCHEM_IUPAC_CAS_NAME>
6-(ethylthio)-N2,N4-di(propan-2-yl)-1,3,5-triazine-2,4-diamine

> <PUBCHEM_IUPAC_NAME>
6-ethylsulfanyl-2-N,4-N-di(propan-2-yl)-1,3,5-triazine-2,4-diamine

> <PUBCHEM_IUPAC_SYSTEMATIC_NAME>
6-ethylsulfanyl-N2,N4-di(propan-2-yl)-1,3,5-triazine-2,4-diamine

> <PUBCHEM_IUPAC_TRADITIONAL_NAME>
[4-(ethylthio)-6-(isopropylamino)-s-triazin-2-yl]-isopropyl-amine

> <PUBCHEM_IUPAC_INCHI>
InChI=1S/C11H21N5S/c1-6-17-11-15-9(12-7(2)3)14-10(16-11)13-8(4)5/h7-8H,6H2,1-5H3,(H2,12,13,14,15,16)

> <PUBCHEM_IUPAC_INCHIKEY>
NPWMZOGDXOFZIN-UHFFFAOYSA-N

> <PUBCHEM_XLOGP3>
3.9

> <PUBCHEM_EXACT_MASS>
255.151767

> <PUBCHEM_MOLECULAR_FORMULA>
C11H21N5S

> <PUBCHEM_MOLECULAR_WEIGHT>
255.38294

> <PUBCHEM_OPENEYE_CAN_SMILES>
CCSC1=NC(=NC(=N1)NC(C)C)NC(C)C

> <PUBCHEM_OPENEYE_ISO_SMILES>
CCSC1=NC(=NC(=N1)NC(C)C)NC(C)C

> <PUBCHEM_CACTVS_TPSA>
88

> <PUBCHEM_MONOISOTOPIC_WEIGHT>
255.151767

> <PUBCHEM_TOTAL_CHARGE>
0

> <PUBCHEM_HEAVY_ATOM_COUNT>
17

> <PUBCHEM_ATOM_DEF_STEREO_COUNT>
0

> <PUBCHEM_ATOM_UDEF_STEREO_COUNT>
0

> <PUBCHEM_BOND_DEF_STEREO_COUNT>
0

> <PUBCHEM_BOND_UDEF_STEREO_COUNT>
0

> <PUBCHEM_ISOTOPIC_ATOM_COUNT>
0

> <PUBCHEM_COMPONENT_COUNT>
1

> <PUBCHEM_CACTVS_TAUTO_COUNT>
5

> <PUBCHEM_COORDINATE_TYPE>
1
5
255

> <PUBCHEM_BONDANNOTATIONS>
4  13  8
4  14  8
5  14  8
5  15  8
6  13  8
6  15  8

$$$$

