441996
  -OEChem-07051212562D

 38 40  0     1  0  0  0  0  0999 V2000
    4.3211    1.0597    0.0000 O   0  0  0  0  0  0  0  0  0  0  0  0
    6.7094   -0.1488    0.0000 N   0  0  0  0  0  0  0  0  0  0  0  0
    4.6783   -2.2446    0.0000 N   0  0  0  0  0  0  0  0  0  0  0  0
    6.3758    1.4344    0.0000 C   0  0  1  0  0  0  0  0  0  0  0  0
    5.9674    0.5216    0.0000 C   0  0  1  0  0  0  0  0  0  0  0  0
    7.3701    1.3282    0.0000 C   0  0  0  0  0  0  0  0  0  0  0  0
    7.5763    0.3497    0.0000 C   0  0  0  0  0  0  0  0  0  0  0  0
    5.4629    1.8428    0.0000 C   0  0  0  0  0  0  0  0  0  0  0  0
    4.9889    0.3154    0.0000 C   0  0  0  0  0  0  0  0  0  0  0  0
    6.4820    2.4288    0.0000 C   0  0  0  0  0  0  0  0  0  0  0  0
    4.6783   -0.6351    0.0000 C   0  0  0  0  0  0  0  0  0  0  0  0
    8.4892   -0.0586    0.0000 C   0  0  0  0  0  0  0  0  0  0  0  0
    3.7320   -0.9399    0.0000 C   0  0  0  0  0  0  0  0  0  0  0  0
    5.2619   -1.4399    0.0000 C   0  0  0  0  0  0  0  0  0  0  0  0
    7.3962    2.8339    0.0000 C   0  0  0  0  0  0  0  0  0  0  0  0
    3.7320   -1.9399    0.0000 C   0  0  0  0  0  0  0  0  0  0  0  0
    2.8660   -0.4399    0.0000 C   0  0  0  0  0  0  0  0  0  0  0  0
    2.8660   -2.4399    0.0000 C   0  0  0  0  0  0  0  0  0  0  0  0
    2.0000   -0.9399    0.0000 C   0  0  0  0  0  0  0  0  0  0  0  0
    2.0000   -1.9399    0.0000 C   0  0  0  0  0  0  0  0  0  0  0  0
    5.8059   -0.0770    0.0000 H   0  0  0  0  0  0  0  0  0  0  0  0
    7.9868    1.3919    0.0000 H   0  0  0  0  0  0  0  0  0  0  0  0
    7.3712    1.9482    0.0000 H   0  0  0  0  0  0  0  0  0  0  0  0
    5.7161    2.4087    0.0000 H   0  0  0  0  0  0  0  0  0  0  0  0
    4.8970    2.0959    0.0000 H   0  0  0  0  0  0  0  0  0  0  0  0
    5.2098    1.2768    0.0000 H   0  0  0  0  0  0  0  0  0  0  0  0
    5.9810    2.7941    0.0000 H   0  0  0  0  0  0  0  0  0  0  0  0
    8.2360   -0.6246    0.0000 H   0  0  0  0  0  0  0  0  0  0  0  0
    9.0551   -0.3118    0.0000 H   0  0  0  0  0  0  0  0  0  0  0  0
    8.7423    0.5073    0.0000 H   0  0  0  0  0  0  0  0  0  0  0  0
    5.8819   -1.4399    0.0000 H   0  0  0  0  0  0  0  0  0  0  0  0
    7.8972    2.4686    0.0000 H   0  0  0  0  0  0  0  0  0  0  0  0
    7.4621    3.4504    0.0000 H   0  0  0  0  0  0  0  0  0  0  0  0
    4.8709   -2.8339    0.0000 H   0  0  0  0  0  0  0  0  0  0  0  0
    2.8660    0.1801    0.0000 H   0  0  0  0  0  0  0  0  0  0  0  0
    2.8660   -3.0599    0.0000 H   0  0  0  0  0  0  0  0  0  0  0  0
    1.4631   -0.6299    0.0000 H   0  0  0  0  0  0  0  0  0  0  0  0
    1.4631   -2.2499    0.0000 H   0  0  0  0  0  0  0  0  0  0  0  0
  1  9  2  0  0  0  0
  2  5  1  0  0  0  0
  2  7  2  0  0  0  0
  3 14  1  0  0  0  0
  3 16  1  0  0  0  0
  3 34  1  0  0  0  0
  4  5  1  0  0  0  0
  4  6  1  0  0  0  0
  4  8  1  6  0  0  0
  4 10  1  0  0  0  0
  5  9  1  6  0  0  0
  5 21  1  0  0  0  0
  6  7  1  0  0  0  0
  6 22  1  0  0  0  0
  6 23  1  0  0  0  0
  7 12  1  0  0  0  0
  8 24  1  0  0  0  0
  8 25  1  0  0  0  0
  8 26  1  0  0  0  0
  9 11  1  0  0  0  0
 10 15  2  0  0  0  0
 10 27  1  0  0  0  0
 11 13  1  0  0  0  0
 11 14  2  0  0  0  0
 12 28  1  0  0  0  0
 12 29  1  0  0  0  0
 12 30  1  0  0  0  0
 13 16  1  0  0  0  0
 13 17  2  0  0  0  0
 14 31  1  0  0  0  0
 15 32  1  0  0  0  0
 15 33  1  0  0  0  0
 16 18  2  0  0  0  0
 17 19  1  0  0  0  0
 17 35  1  0  0  0  0
 18 20  1  0  0  0  0
 18 36  1  0  0  0  0
 19 20  2  0  0  0  0
 19 37  1  0  0  0  0
 20 38  1  0  0  0  0
M  END
> <PUBCHEM_COMPOUND_CID>
441996

> <PUBCHEM_COMPOUND_CANONICALIZED>
1

> <PUBCHEM_CACTVS_COMPLEXITY>
456

> <PUBCHEM_CACTVS_HBOND_ACCEPTOR>
2

> <PUBCHEM_CACTVS_HBOND_DONOR>
1

> <PUBCHEM_CACTVS_ROTATABLE_BOND>
3

> <PUBCHEM_CACTVS_SUBSKEYS>
AAADceB7IAAAAAAAAAAAAAAAAAAAAWIAAAAwAAAAAAAAAFgB8AAAHgAQAAAADizBngQ+wPLJkACoA7R3RACCgCA1AiAI2aG4ZNgIIPrAlZGEIYhgkADIyccciMCPgAAAAAACAAAAAAAAAAQAAAAAAAAAAA==

> <PUBCHEM_IUPAC_OPENEYE_NAME>
[(2S,3R)-3,5-dimethyl-3-vinyl-2,4-dihydropyrrol-2-yl]-(1H-indol-3-yl)methanone

> <PUBCHEM_IUPAC_CAS_NAME>
[(2S,3R)-3-ethenyl-3,5-dimethyl-2,4-dihydropyrrol-2-yl]-(1H-indol-3-yl)methanone

> <PUBCHEM_IUPAC_NAME>
[(2S,3R)-3-ethenyl-3,5-dimethyl-2,4-dihydropyrrol-2-yl]-(1H-indol-3-yl)methanone

> <PUBCHEM_IUPAC_SYSTEMATIC_NAME>
[(2S,3R)-3-ethenyl-3,5-dimethyl-2,4-dihydropyrrol-2-yl]-(1H-indol-3-yl)methanone

> <PUBCHEM_IUPAC_TRADITIONAL_NAME>
[(2S,3R)-3,5-dimethyl-3-vinyl-1-pyrrolin-2-yl]-(1H-indol-3-yl)methanone

> <PUBCHEM_IUPAC_INCHI>
InChI=1S/C17H18N2O/c1-4-17(3)9-11(2)19-16(17)15(20)13-10-18-14-8-6-5-7-12(13)14/h4-8,10,16,18H,1,9H2,2-3H3/t16-,17+/m1/s1

> <PUBCHEM_IUPAC_INCHIKEY>
WQTYIKZACFUZJB-SJORKVTESA-N

> <PUBCHEM_XLOGP3_AA>
2.8

> <PUBCHEM_EXACT_MASS>
266.141913

> <PUBCHEM_MOLECULAR_FORMULA>
C17H18N2O

> <PUBCHEM_MOLECULAR_WEIGHT>
266.33762

> <PUBCHEM_OPENEYE_CAN_SMILES>
CC1=NC(C(C1)(C)C=C)C(=O)C2=CNC3=CC=CC=C32

> <PUBCHEM_OPENEYE_ISO_SMILES>
CC1=N[C@@H]([C@@](C1)(C)C=C)C(=O)C2=CNC3=CC=CC=C32

> <PUBCHEM_CACTVS_TPSA>
45.2

> <PUBCHEM_MONOISOTOPIC_WEIGHT>
266.141913

> <PUBCHEM_TOTAL_CHARGE>
0

> <PUBCHEM_HEAVY_ATOM_COUNT>
20

> <PUBCHEM_ATOM_DEF_STEREO_COUNT>
2

> <PUBCHEM_ATOM_UDEF_STEREO_COUNT>
0

> <PUBCHEM_BOND_DEF_STEREO_COUNT>
0

> <PUBCHEM_BOND_UDEF_STEREO_COUNT>
0

> <PUBCHEM_ISOTOPIC_ATOM_COUNT>
0

> <PUBCHEM_COMPONENT_COUNT>
1

> <PUBCHEM_CACTVS_TAUTO_COUNT>
5

> <PUBCHEM_COORDINATE_TYPE>
1
5
255

> <PUBCHEM_BONDANNOTATIONS>
11  13  8
11  14  8
13  16  8
13  17  8
16  18  8
17  19  8
18  20  8
19  20  8
3  14  8
3  16  8
4  8  6
5  9  6

$$$$

