   Color/Form

     * OILY AMBER LIQUID OR GRANULES
     * Liquid

   from [1]HSDB

   Boiling Point
        92 deg C @ 2 mm Hg
   from [2]HSDB

   Melting Point
        145 deg C
   from [3]HSDB

   Corrosivity
        CORROSIVE TO ORDINARY STEEL
   from [4]HSDB

   Density/Specific Gravity
        1.088 @ 25 DEG C/15.6 DEG C
   from [5]HSDB

   Solubilities

     * Soluble in alcohol, hexane and xylene
     * Soluble in ethanol
     * FAIRLY SOL IN PETROLEUM ETHER, TRICHLOROMETHANE
     * GREATER THAN 1.97% IN CARBON DISULFIDE @ 25 DEG C; GREATER THAN 50%
       IN CHLOROBENZENE, CHLOROFORM, CYCLOHEXANONE @ -50 DEG C; 50% IN
       ISOPROPYL ALCOHOL @ -18 DEG C; GREATER THAN 20% IN KEROSENE OR
       DIESEL OIL @ 49 DEG C
     * In water, 1.97X10+4 mg/l @ 25 deg C

   from [6]HSDB

   Spectral Properties

     * Index of refraction: 1.4932 @ 25 deg C/D
     * Intense mass spectral peaks: 41 m/z (100%), 56 m/z (85%), 42 m/z
       (53%), 70 m/z (52%)

   from [7]HSDB

   Vapor Pressure
        9.40X10-3 mm Hg @ 20 deg C
   from [8]HSDB

   Other Chemical/Physical Properties

     * CHLORINE ATOM IS LABILE
     * DECOMP TEMP: 125 DEG C

   from [9]HSDB

   Computed Properties
   Molecular Weight                  173.63998 [g/mol]
   Molecular Formula                 C[8]H[12]ClNO
   XLogP3-AA                         1.6
   H-Bond Donor                      0
   H-Bond Acceptor                   1
   Rotatable Bond Count              5
   Exact Mass                        173.060742
   MonoIsotopic Mass                 173.060742
   Topological Polar Surface Area    20.3
   Heavy Atom Count                  11
   Formal Charge                     0
   Complexity                        146
   Isotope Atom Count                0
   Defined Atom Stereocenter Count   0
   Undefined Atom Stereocenter Count 0
   Defined Bond Stereocenter Count   0
   Undefined Bond Stereocenter Count 0
   Covalently-Bonded Unit Count      1
   Feature 3D Acceptor Count         1
   Feature 3D Hydrophobe Count       2
   Effective Rotor Count             6
   Conformer Sampling RMSD           0.6
   CID Conformer Count               [10]135

References

   1. http://toxnet.nlm.nih.gov/cgi-bin/sis/search/r?dbs+hsdb:@term+@rn+@rel+93-71-0
   2. http://toxnet.nlm.nih.gov/cgi-bin/sis/search/r?dbs+hsdb:@term+@rn+@rel+93-71-0
   3. http://toxnet.nlm.nih.gov/cgi-bin/sis/search/r?dbs+hsdb:@term+@rn+@rel+93-71-0
   4. http://toxnet.nlm.nih.gov/cgi-bin/sis/search/r?dbs+hsdb:@term+@rn+@rel+93-71-0
   5. http://toxnet.nlm.nih.gov/cgi-bin/sis/search/r?dbs+hsdb:@term+@rn+@rel+93-71-0
   6. http://toxnet.nlm.nih.gov/cgi-bin/sis/search/r?dbs+hsdb:@term+@rn+@rel+93-71-0
   7. http://toxnet.nlm.nih.gov/cgi-bin/sis/search/r?dbs+hsdb:@term+@rn+@rel+93-71-0
   8. http://toxnet.nlm.nih.gov/cgi-bin/sis/search/r?dbs+hsdb:@term+@rn+@rel+93-71-0
   9. http://toxnet.nlm.nih.gov/cgi-bin/sis/search/r?dbs+hsdb:@term+@rn+@rel+93-71-0
  10. http://pubchem.ncbi.nlm.nih.gov/vw3d/vw3d.cgi?cid=7157
