443216
  -OEChem-07051213012D

 65 67  0     1  0  0  0  0  0999 V2000
    5.9529    1.9824    0.0000 P   0  0  3  0  0  0  0  0  0  0  0  0
    5.0868    0.4825    0.0000 P   0  0  3  0  0  0  0  0  0  0  0  0
    5.9529    3.9824    0.0000 O   0  0  0  0  0  0  0  0  0  0  0  0
    5.0298   -2.6053    0.0000 O   0  0  0  0  0  0  0  0  0  0  0  0
    8.5510    5.4824    0.0000 O   0  0  0  0  0  0  0  0  0  0  0  0
    6.8189    2.4824    0.0000 O   0  0  0  0  0  0  0  0  0  0  0  0
    8.5510    3.4824    0.0000 O   0  0  0  0  0  0  0  0  0  0  0  0
    2.4608   -2.2963    0.0000 O   0  0  0  0  0  0  0  0  0  0  0  0
    5.0868   -0.5175    0.0000 O   0  0  0  0  0  0  0  0  0  0  0  0
    5.0868    1.4824    0.0000 O   0  0  0  0  0  0  0  0  0  0  0  0
    6.4529    1.1164    0.0000 O   0  0  0  0  0  0  0  0  0  0  0  0
    5.4529    2.8485    0.0000 O   0  0  0  0  0  0  0  0  0  0  0  0
    4.0868    0.4825    0.0000 O   0  0  0  0  0  0  0  0  0  0  0  0
    3.9074   -5.3835    0.0000 O   0  0  0  0  0  0  0  0  0  0  0  0
    6.0868    0.4825    0.0000 O   0  0  0  0  0  0  0  0  0  0  0  0
    7.0720   -6.7924    0.0000 O   0  0  0  0  0  0  0  0  0  0  0  0
    6.8189    6.4824    0.0000 N   0  0  0  0  0  0  0  0  0  0  0  0
    5.3086   -4.3654    0.0000 N   0  0  0  0  0  0  0  0  0  0  0  0
    5.4897   -6.0880    0.0000 N   0  0  0  0  0  0  0  0  0  0  0  0
    5.9529    4.9824    0.0000 C   0  0  0  0  0  0  0  0  0  0  0  0
    6.8189    5.4824    0.0000 C   0  0  2  0  0  0  0  0  0  0  0  0
    7.6849    4.9824    0.0000 C   0  0  2  0  0  0  0  0  0  0  0  0
    7.6849    3.9824    0.0000 C   0  0  2  0  0  0  0  0  0  0  0  0
    6.8189    3.4824    0.0000 C   0  0  2  0  0  0  0  0  0  0  0  0
    4.9529    4.9824    0.0000 C   0  0  0  0  0  0  0  0  0  0  0  0
    5.4529    5.8485    0.0000 C   0  0  0  0  0  0  0  0  0  0  0  0
    3.4118   -2.6053    0.0000 C   0  0  2  0  0  0  0  0  0  0  0  0
    4.2208   -2.0176    0.0000 C   0  0  1  0  0  0  0  0  0  0  0  0
    3.7208   -3.5564    0.0000 C   0  0  0  0  0  0  0  0  0  0  0  0
    4.7208   -3.5564    0.0000 C   0  0  1  0  0  0  0  0  0  0  0  0
    4.2208   -1.0176    0.0000 C   0  0  0  0  0  0  0  0  0  0  0  0
    6.3031   -4.2609    0.0000 C   0  0  0  0  0  0  0  0  0  0  0  0
    4.9019   -5.2790    0.0000 C   0  0  0  0  0  0  0  0  0  0  0  0
    6.8909   -5.0699    0.0000 C   0  0  0  0  0  0  0  0  0  0  0  0
    6.4842   -5.9834    0.0000 C   0  0  0  0  0  0  0  0  0  0  0  0
    7.8854   -4.9654    0.0000 C   0  0  0  0  0  0  0  0  0  0  0  0
    7.3558    5.7924    0.0000 H   0  0  0  0  0  0  0  0  0  0  0  0
    8.2219    4.6725    0.0000 H   0  0  0  0  0  0  0  0  0  0  0  0
    8.2219    4.2924    0.0000 H   0  0  0  0  0  0  0  0  0  0  0  0
    7.3558    3.1724    0.0000 H   0  0  0  0  0  0  0  0  0  0  0  0
    5.9898    6.1585    0.0000 H   0  0  0  0  0  0  0  0  0  0  0  0
    5.1429    6.3854    0.0000 H   0  0  0  0  0  0  0  0  0  0  0  0
    4.9159    5.5385    0.0000 H   0  0  0  0  0  0  0  0  0  0  0  0
    4.9529    5.6024    0.0000 H   0  0  0  0  0  0  0  0  0  0  0  0
    4.3329    4.9824    0.0000 H   0  0  0  0  0  0  0  0  0  0  0  0
    4.9529    4.3624    0.0000 H   0  0  0  0  0  0  0  0  0  0  0  0
    2.9734   -3.0437    0.0000 H   0  0  0  0  0  0  0  0  0  0  0  0
    4.7732   -1.7361    0.0000 H   0  0  0  0  0  0  0  0  0  0  0  0
    3.1144   -3.6853    0.0000 H   0  0  0  0  0  0  0  0  0  0  0  0
    3.7856   -4.1730    0.0000 H   0  0  0  0  0  0  0  0  0  0  0  0
    4.4394   -4.1088    0.0000 H   0  0  0  0  0  0  0  0  0  0  0  0
    7.3558    6.7924    0.0000 H   0  0  0  0  0  0  0  0  0  0  0  0
    6.2820    6.7924    0.0000 H   0  0  0  0  0  0  0  0  0  0  0  0
    4.0088   -0.4349    0.0000 H   0  0  0  0  0  0  0  0  0  0  0  0
    3.6102   -1.1252    0.0000 H   0  0  0  0  0  0  0  0  0  0  0  0
    9.0879    5.1725    0.0000 H   0  0  0  0  0  0  0  0  0  0  0  0
    8.5510    2.8624    0.0000 H   0  0  0  0  0  0  0  0  0  0  0  0
    2.0000   -2.7112    0.0000 H   0  0  0  0  0  0  0  0  0  0  0  0
    6.5553   -3.6945    0.0000 H   0  0  0  0  0  0  0  0  0  0  0  0
    5.2375   -6.6544    0.0000 H   0  0  0  0  0  0  0  0  0  0  0  0
    7.0729    1.1164    0.0000 H   0  0  0  0  0  0  0  0  0  0  0  0
    7.9502   -5.5820    0.0000 H   0  0  0  0  0  0  0  0  0  0  0  0
    8.5020   -4.9006    0.0000 H   0  0  0  0  0  0  0  0  0  0  0  0
    7.8206   -4.3488    0.0000 H   0  0  0  0  0  0  0  0  0  0  0  0
    3.7768    1.0194    0.0000 H   0  0  0  0  0  0  0  0  0  0  0  0
  1  6  1  0  0  0  0
  1 10  1  0  0  0  0
  1 11  1  0  0  0  0
  1 12  2  0  0  0  0
  2  9  1  0  0  0  0
  2 10  1  0  0  0  0
  2 13  1  0  0  0  0
  2 15  2  0  0  0  0
  3 20  1  0  0  0  0
  3 24  1  0  0  0  0
  4 28  1  0  0  0  0
  4 30  1  0  0  0  0
 22  5  1  1  0  0  0
  5 56  1  0  0  0  0
 24  6  1  1  0  0  0
 23  7  1  1  0  0  0
  7 57  1  0  0  0  0
 27  8  1  6  0  0  0
  8 58  1  0  0  0  0
  9 31  1  0  0  0  0
 11 61  1  0  0  0  0
 13 65  1  0  0  0  0
 14 33  2  0  0  0  0
 16 35  2  0  0  0  0
 21 17  1  1  0  0  0
 17 52  1  0  0  0  0
 17 53  1  0  0  0  0
 30 18  1  1  0  0  0
 18 32  1  0  0  0  0
 18 33  1  0  0  0  0
 19 33  1  0  0  0  0
 19 35  1  0  0  0  0
 19 60  1  0  0  0  0
 20 21  1  0  0  0  0
 20 25  1  0  0  0  0
 20 26  1  0  0  0  0
 21 22  1  0  0  0  0
 21 37  1  0  0  0  0
 22 23  1  0  0  0  0
 22 38  1  0  0  0  0
 23 24  1  0  0  0  0
 23 39  1  0  0  0  0
 24 40  1  0  0  0  0
 25 44  1  0  0  0  0
 25 45  1  0  0  0  0
 25 46  1  0  0  0  0
 26 41  1  0  0  0  0
 26 42  1  0  0  0  0
 26 43  1  0  0  0  0
 27 28  1  0  0  0  0
 27 29  1  0  0  0  0
 27 47  1  0  0  0  0
 28 31  1  1  0  0  0
 28 48  1  0  0  0  0
 29 30  1  0  0  0  0
 29 49  1  0  0  0  0
 29 50  1  0  0  0  0
 30 51  1  0  0  0  0
 31 54  1  0  0  0  0
 31 55  1  0  0  0  0
 32 34  2  0  0  0  0
 32 59  1  0  0  0  0
 34 35  1  0  0  0  0
 34 36  1  0  0  0  0
 36 62  1  0  0  0  0
 36 63  1  0  0  0  0
 36 64  1  0  0  0  0
M  END
> <PUBCHEM_COMPOUND_CID>
443216

> <PUBCHEM_COMPOUND_CANONICALIZED>
1

> <PUBCHEM_CACTVS_COMPLEXITY>
1010

> <PUBCHEM_CACTVS_HBOND_ACCEPTOR>
15

> <PUBCHEM_CACTVS_HBOND_DONOR>
7

> <PUBCHEM_CACTVS_ROTATABLE_BOND>
8

> <PUBCHEM_CACTVS_SUBSKEYS>
AAADceB7PAMAAAAAAAAAAAAAAAAAASAAAAAkQAAAAAAAAAAAAAAAHgAQCCAADHzxgAcDCAPABxCIQgFWUICAAAAAAAAAAIEIAECTEAIAgQAPQAAPFyIHAMHwcBYMAAAAAAAAAAAAAAAAAAAAAAAAAAAAAA==

> <PUBCHEM_IUPAC_OPENEYE_NAME>
[(2R,3R,4R,5S)-5-amino-3,4-dihydroxy-6,6-dimethyl-tetrahydropyran-2-yl] [hydroxy-[[(2R,3S,5R)-3-hydroxy-5-(5-methyl-2,4-dioxo-pyrimidin-1-yl)tetrahydrofuran-2-yl]methoxy]phosphoryl] hydrogen phosphate

> <PUBCHEM_IUPAC_CAS_NAME>
[(2R,3R,4R,5S)-5-amino-3,4-dihydroxy-6,6-dimethyl-2-oxanyl] [hydroxy-[[(2R,3S,5R)-3-hydroxy-5-(5-methyl-2,4-dioxo-1-pyrimidinyl)-2-oxolanyl]methoxy]phosphoryl] hydrogen phosphate

> <PUBCHEM_IUPAC_NAME>
[(2R,3R,4R,5S)-5-amino-3,4-dihydroxy-6,6-dimethyloxan-2-yl] [hydroxy-[[(2R,3S,5R)-3-hydroxy-5-(5-methyl-2,4-dioxopyrimidin-1-yl)oxolan-2-yl]methoxy]phosphoryl] hydrogen phosphate

> <PUBCHEM_IUPAC_SYSTEMATIC_NAME>
[(2R,3R,4R,5S)-5-azanyl-6,6-dimethyl-3,4-bis(oxidanyl)oxan-2-yl] [[(2R,3S,5R)-5-[5-methyl-2,4-bis(oxidanylidene)pyrimidin-1-yl]-3-oxidanyl-oxolan-2-yl]methoxy-oxidanyl-phosphoryl] hydrogen phosphate

> <PUBCHEM_IUPAC_TRADITIONAL_NAME>
[(2R,3R,4R,5S)-5-amino-3,4-dihydroxy-6,6-dimethyl-tetrahydropyran-2-yl] [[(2R,3S,5R)-5-(2,4-diketo-5-methyl-pyrimidin-1-yl)-3-hydroxy-tetrahydrofuran-2-yl]methoxy-hydroxy-phosphoryl] hydrogen phosphate

> <PUBCHEM_IUPAC_INCHI>
InChI=1S/C17H29N3O14P2/c1-7-5-20(16(25)19-14(7)24)10-4-8(21)9(31-10)6-30-35(26,27)34-36(28,29)33-15-12(23)11(22)13(18)17(2,3)32-15/h5,8-13,15,21-23H,4,6,18H2,1-3H3,(H,26,27)(H,28,29)(H,19,24,25)/t8-,9+,10+,11-,12+,13-,15+/m0/s1

> <PUBCHEM_IUPAC_INCHIKEY>
AWPOZYVMSZJRAL-JPIQNSJLSA-N

> <PUBCHEM_XLOGP3_AA>
-7.1

> <PUBCHEM_EXACT_MASS>
561.112476

> <PUBCHEM_MOLECULAR_FORMULA>
C17H29N3O14P2

> <PUBCHEM_MOLECULAR_WEIGHT>
561.371384

> <PUBCHEM_OPENEYE_CAN_SMILES>
CC1=CN(C(=O)NC1=O)C2CC(C(O2)COP(=O)(O)OP(=O)(O)OC3C(C(C(C(O3)(C)C)N)O)O)O

> <PUBCHEM_OPENEYE_ISO_SMILES>
CC1=CN(C(=O)NC1=O)[C@H]2C[C@@H]([C@H](O2)COP(=O)(O)OP(=O)(O)O[C@@H]3[C@@H]([C@@H]([C@@H](C(O3)(C)C)N)O)O)O

> <PUBCHEM_CACTVS_TPSA>
257

> <PUBCHEM_MONOISOTOPIC_WEIGHT>
561.112476

> <PUBCHEM_TOTAL_CHARGE>
0

> <PUBCHEM_HEAVY_ATOM_COUNT>
36

> <PUBCHEM_ATOM_DEF_STEREO_COUNT>
7

> <PUBCHEM_ATOM_UDEF_STEREO_COUNT>
0

> <PUBCHEM_BOND_DEF_STEREO_COUNT>
0

> <PUBCHEM_BOND_UDEF_STEREO_COUNT>
0

> <PUBCHEM_ISOTOPIC_ATOM_COUNT>
0

> <PUBCHEM_COMPONENT_COUNT>
1

> <PUBCHEM_CACTVS_TAUTO_COUNT>
3

> <PUBCHEM_COORDINATE_TYPE>
1
5
255

> <PUBCHEM_BONDANNOTATIONS>
21  17  5
30  18  5
18  32  8
18  33  8
19  33  8
19  35  8
28  31  5
32  34  8
34  35  8
22  5  5
24  6  5
23  7  5
27  8  6

$$$$

