4862
  -OEChem-06261200232D

100102  0     1  0  0  0  0  0999 V2000
   13.5385   -1.7594    0.0000 Cl  0  0  0  0  0  0  0  0  0  0  0  0
   10.0744   -1.7594    0.0000 O   0  0  0  0  0  0  0  0  0  0  0  0
    8.2084   -0.5274    0.0000 O   0  0  0  0  0  0  0  0  0  0  0  0
    7.1739   -4.7002    0.0000 O   0  0  0  0  0  0  0  0  0  0  0  0
   12.6547   -5.2892    0.0000 O   0  0  0  0  0  0  0  0  0  0  0  0
    7.4078    0.5746    0.0000 O   0  0  0  0  0  0  0  0  0  0  0  0
   11.8065   -0.7594    0.0000 O   0  0  0  0  0  0  0  0  0  0  0  0
   10.3168   -6.7821    0.0000 O   0  0  0  0  0  0  0  0  0  0  0  0
    4.4222    2.5961    0.0000 O   0  0  0  0  0  0  0  0  0  0  0  0
    4.6802    6.1924    0.0000 O   0  0  0  0  0  0  0  0  0  0  0  0
    6.3274    5.6572    0.0000 O   0  0  0  0  0  0  0  0  0  0  0  0
    2.4149    4.8255    0.0000 O   0  0  0  0  0  0  0  0  0  0  0  0
    3.7020    5.9845    0.0000 O   0  0  0  0  0  0  0  0  0  0  0  0
    6.7084   -1.3934    0.0000 N   0  0  0  0  0  0  0  0  0  0  0  0
    7.7084   -3.1255    0.0000 N   0  0  0  0  0  0  0  0  0  0  0  0
    9.0921   -5.5573    0.0000 N   0  0  0  0  0  0  0  0  0  0  0  0
    5.7605    1.1098    0.0000 N   0  0  0  0  0  0  0  0  0  0  0  0
    9.9657   -4.5083    0.0000 N   0  0  0  0  0  0  0  0  0  0  0  0
    5.7094    3.7551    0.0000 N   0  0  0  0  0  0  0  0  0  0  0  0
    9.2084   -2.2594    0.0000 C   0  0  3  0  0  0  0  0  0  0  0  0
    8.2084   -2.2594    0.0000 C   0  0  3  0  0  0  0  0  0  0  0  0
    9.7084   -3.1255    0.0000 C   0  0  0  0  0  0  0  0  0  0  0  0
    7.7084   -1.3934    0.0000 C   0  0  0  0  0  0  0  0  0  0  0  0
    8.4425   -2.9023    0.0000 C   0  0  0  0  0  0  0  0  0  0  0  0
    6.1206   -0.5844    0.0000 C   0  0  3  0  0  0  0  0  0  0  0  0
    6.1206   -2.2024    0.0000 C   0  0  0  0  0  0  0  0  0  0  0  0
   10.3512   -2.3594    0.0000 C   0  0  0  0  0  0  0  0  0  0  0  0
    5.1696   -0.8934    0.0000 C   0  0  0  0  0  0  0  0  0  0  0  0
    7.9672   -4.0914    0.0000 C   0  0  0  0  0  0  0  0  0  0  0  0
    5.1696   -1.8934    0.0000 C   0  0  0  0  0  0  0  0  0  0  0  0
   10.9405   -2.2594    0.0000 C   0  0  0  0  0  0  0  0  0  0  0  0
    8.8333   -4.5914    0.0000 C   0  0  3  0  0  0  0  0  0  0  0  0
    6.4296    0.3667    0.0000 C   0  0  0  0  0  0  0  0  0  0  0  0
   11.8065   -4.7594    0.0000 C   0  0  3  0  0  0  0  0  0  0  0  0
   10.7651   -5.1090    0.0000 C   0  0  3  0  0  0  0  0  0  0  0  0
   11.8065   -3.7594    0.0000 C   0  0  0  0  0  0  0  0  0  0  0  0
   10.9405   -3.2594    0.0000 C   0  0  0  0  0  0  0  0  0  0  0  0
   11.8065   -1.7594    0.0000 C   0  0  0  0  0  0  0  0  0  0  0  0
   10.0580   -5.8161    0.0000 C   0  0  0  0  0  0  0  0  0  0  0  0
    9.6266   -3.9826    0.0000 C   0  0  0  0  0  0  0  0  0  0  0  0
   12.6725   -3.2594    0.0000 C   0  0  0  0  0  0  0  0  0  0  0  0
   12.6725   -2.2594    0.0000 C   0  0  0  0  0  0  0  0  0  0  0  0
   10.6029   -4.1991    0.0000 C   0  0  0  0  0  0  0  0  0  0  0  0
    6.0695    2.0609    0.0000 C   0  0  0  0  0  0  0  0  0  0  0  0
    9.0178   -3.1893    0.0000 C   0  0  0  0  0  0  0  0  0  0  0  0
   10.2568   -3.5516    0.0000 C   0  0  0  0  0  0  0  0  0  0  0  0
    7.0477    2.2688    0.0000 C   0  0  0  0  0  0  0  0  0  0  0  0
    5.4004    2.8040    0.0000 C   0  0  0  0  0  0  0  0  0  0  0  0
    7.3567    3.2198    0.0000 C   0  0  0  0  0  0  0  0  0  0  0  0
    7.7168    1.5256    0.0000 C   0  0  0  0  0  0  0  0  0  0  0  0
    8.3348    3.4277    0.0000 C   0  0  0  0  0  0  0  0  0  0  0  0
    5.0403    4.4982    0.0000 C   0  0  0  0  0  0  0  0  0  0  0  0
    4.0621    4.2903    0.0000 C   0  0  0  0  0  0  0  0  0  0  0  0
    5.3493    5.4493    0.0000 C   0  0  0  0  0  0  0  0  0  0  0  0
    3.3930    5.0334    0.0000 C   0  0  0  0  0  0  0  0  0  0  0  0
    7.5884   -2.2594    0.0000 H   0  0  0  0  0  0  0  0  0  0  0  0
    9.2111   -3.4957    0.0000 H   0  0  0  0  0  0  0  0  0  0  0  0
   10.1339   -3.5764    0.0000 H   0  0  0  0  0  0  0  0  0  0  0  0
    8.0439   -2.4274    0.0000 H   0  0  0  0  0  0  0  0  0  0  0  0
    7.9676   -3.3009    0.0000 H   0  0  0  0  0  0  0  0  0  0  0  0
    8.8410   -3.3772    0.0000 H   0  0  0  0  0  0  0  0  0  0  0  0
    6.7330   -0.4874    0.0000 H   0  0  0  0  0  0  0  0  0  0  0  0
    7.0937   -3.0445    0.0000 H   0  0  0  0  0  0  0  0  0  0  0  0
    5.8684   -2.7688    0.0000 H   0  0  0  0  0  0  0  0  0  0  0  0
    6.6576   -2.5124    0.0000 H   0  0  0  0  0  0  0  0  0  0  0  0
   10.8262   -2.7580    0.0000 H   0  0  0  0  0  0  0  0  0  0  0  0
   10.7498   -1.8845    0.0000 H   0  0  0  0  0  0  0  0  0  0  0  0
    9.8763   -1.9609    0.0000 H   0  0  0  0  0  0  0  0  0  0  0  0
    4.6680   -0.5290    0.0000 H   0  0  0  0  0  0  0  0  0  0  0  0
    4.6680   -2.2578    0.0000 H   0  0  0  0  0  0  0  0  0  0  0  0
    9.4203   -4.7907    0.0000 H   0  0  0  0  0  0  0  0  0  0  0  0
   11.7340   -5.3752    0.0000 H   0  0  0  0  0  0  0  0  0  0  0  0
   10.8641   -4.4970    0.0000 H   0  0  0  0  0  0  0  0  0  0  0  0
   10.4035   -3.5694    0.0000 H   0  0  0  0  0  0  0  0  0  0  0  0
    8.6537   -5.9957    0.0000 H   0  0  0  0  0  0  0  0  0  0  0  0
   13.2095   -3.5694    0.0000 H   0  0  0  0  0  0  0  0  0  0  0  0
    5.1541    0.9809    0.0000 H   0  0  0  0  0  0  0  0  0  0  0  0
    9.5932   -5.0039    0.0000 H   0  0  0  0  0  0  0  0  0  0  0  0
   10.4687   -4.8044    0.0000 H   0  0  0  0  0  0  0  0  0  0  0  0
   11.2082   -4.3333    0.0000 H   0  0  0  0  0  0  0  0  0  0  0  0
   10.7371   -3.5938    0.0000 H   0  0  0  0  0  0  0  0  0  0  0  0
   12.6332   -5.9088    0.0000 H   0  0  0  0  0  0  0  0  0  0  0  0
    9.2551   -2.6165    0.0000 H   0  0  0  0  0  0  0  0  0  0  0  0
    8.4032   -3.2702    0.0000 H   0  0  0  0  0  0  0  0  0  0  0  0
   12.3434   -0.4494    0.0000 H   0  0  0  0  0  0  0  0  0  0  0  0
   10.8499   -3.7321    0.0000 H   0  0  0  0  0  0  0  0  0  0  0  0
   10.4373   -2.9584    0.0000 H   0  0  0  0  0  0  0  0  0  0  0  0
    9.6636   -3.3711    0.0000 H   0  0  0  0  0  0  0  0  0  0  0  0
    7.3351    3.8394    0.0000 H   0  0  0  0  0  0  0  0  0  0  0  0
    6.7427    3.3061    0.0000 H   0  0  0  0  0  0  0  0  0  0  0  0
    7.2561    1.1108    0.0000 H   0  0  0  0  0  0  0  0  0  0  0  0
    8.1317    1.0649    0.0000 H   0  0  0  0  0  0  0  0  0  0  0  0
    8.1776    1.9405    0.0000 H   0  0  0  0  0  0  0  0  0  0  0  0
    8.4637    2.8213    0.0000 H   0  0  0  0  0  0  0  0  0  0  0  0
    8.9413    3.5566    0.0000 H   0  0  0  0  0  0  0  0  0  0  0  0
    8.2059    4.0342    0.0000 H   0  0  0  0  0  0  0  0  0  0  0  0
    6.3159    3.8840    0.0000 H   0  0  0  0  0  0  0  0  0  0  0  0
    3.8706    3.7006    0.0000 H   0  0  0  0  0  0  0  0  0  0  0  0
    4.8718    6.7821    0.0000 H   0  0  0  0  0  0  0  0  0  0  0  0
    2.0000    5.2863    0.0000 H   0  0  0  0  0  0  0  0  0  0  0  0
  1 42  1  0  0  0  0
  2 20  1  0  0  0  0
  2 31  1  0  0  0  0
  3 23  2  0  0  0  0
  4 29  2  0  0  0  0
  5 34  1  0  0  0  0
  5 82  1  0  0  0  0
  6 33  2  0  0  0  0
  7 38  1  0  0  0  0
  7 85  1  0  0  0  0
  8 39  2  0  0  0  0
  9 48  2  0  0  0  0
 10 54  1  0  0  0  0
 10 99  1  0  0  0  0
 11 54  2  0  0  0  0
 12 55  1  0  0  0  0
 12100  1  0  0  0  0
 13 55  2  0  0  0  0
 14 23  1  0  0  0  0
 14 25  1  0  0  0  0
 14 26  1  0  0  0  0
 15 21  1  0  0  0  0
 15 29  1  0  0  0  0
 15 63  1  0  0  0  0
 16 32  1  0  0  0  0
 16 39  1  0  0  0  0
 16 75  1  0  0  0  0
 17 33  1  0  0  0  0
 17 44  1  0  0  0  0
 17 77  1  0  0  0  0
 18 35  1  0  0  0  0
 18 46  1  0  0  0  0
 18 78  1  0  0  0  0
 19 48  1  0  0  0  0
 19 52  1  0  0  0  0
 19 97  1  0  0  0  0
 20 21  1  0  0  0  0
 20 22  1  0  0  0  0
 20 24  1  0  0  0  0
 21 23  1  0  0  0  0
 21 56  1  0  0  0  0
 22 27  1  0  0  0  0
 22 57  1  0  0  0  0
 22 58  1  0  0  0  0
 24 59  1  0  0  0  0
 24 60  1  0  0  0  0
 24 61  1  0  0  0  0
 25 28  1  0  0  0  0
 25 33  1  0  0  0  0
 25 62  1  0  0  0  0
 26 30  1  0  0  0  0
 26 64  1  0  0  0  0
 26 65  1  0  0  0  0
 27 66  1  0  0  0  0
 27 67  1  0  0  0  0
 27 68  1  0  0  0  0
 28 30  2  0  0  0  0
 28 69  1  0  0  0  0
 29 32  1  0  0  0  0
 30 70  1  0  0  0  0
 31 37  1  0  0  0  0
 31 38  2  0  0  0  0
 32 40  1  0  0  0  0
 32 71  1  0  0  0  0
 34 35  1  0  0  0  0
 34 36  1  0  0  0  0
 34 72  1  0  0  0  0
 35 39  1  0  0  0  0
 35 73  1  0  0  0  0
 36 37  2  0  0  0  0
 36 41  1  0  0  0  0
 37 74  1  0  0  0  0
 38 42  1  0  0  0  0
 40 43  1  0  0  0  0
 40 45  2  0  0  0  0
 41 42  2  0  0  0  0
 41 76  1  0  0  0  0
 43 79  1  0  0  0  0
 43 80  1  0  0  0  0
 43 81  1  0  0  0  0
 44 47  2  3  0  0  0
 44 48  1  0  0  0  0
 45 83  1  0  0  0  0
 45 84  1  0  0  0  0
 46 86  1  0  0  0  0
 46 87  1  0  0  0  0
 46 88  1  0  0  0  0
 47 49  1  0  0  0  0
 47 50  1  0  0  0  0
 49 51  1  0  0  0  0
 49 89  1  0  0  0  0
 49 90  1  0  0  0  0
 50 91  1  0  0  0  0
 50 92  1  0  0  0  0
 50 93  1  0  0  0  0
 51 94  1  0  0  0  0
 51 95  1  0  0  0  0
 51 96  1  0  0  0  0
 52 53  2  3  0  0  0
 52 54  1  0  0  0  0
 53 55  1  0  0  0  0
 53 98  1  0  0  0  0
M  END
> <PUBCHEM_COMPOUND_CID>
4862

> <PUBCHEM_COMPOUND_CANONICALIZED>
1

> <PUBCHEM_CACTVS_COMPLEXITY>
1660

> <PUBCHEM_CACTVS_HBOND_ACCEPTOR>
13

> <PUBCHEM_CACTVS_HBOND_DONOR>
9

> <PUBCHEM_CACTVS_ROTATABLE_BOND>
11

> <PUBCHEM_CACTVS_SUBSKEYS>
AAADcfB/vAAEAAAAAAAAAAAAAAAAAQAAAAAwAAAAAAAAAAABAAAAHgIQCAAADH7hmCYyDoPABgCIAiXSWACCCAAgJ0AIiIGOi8gPdjaHszuXeCOm9hGbucfY+LeOIAABIQAASABAAAJCAACQAAAAAAAAAA==

> <PUBCHEM_IUPAC_OPENEYE_NAME>
2-[[2-[[1-[14-chloro-10-ethyl-2,13-dihydroxy-6-isopropenyl-10-methyl-3-(methylamino)-4,7-dioxo-11-oxa-5,8-diazabicyclo[10.3.1]hexadeca-1(16),12,14-triene-9-carbonyl]-2,5-dihydropyrrole-2-carbonyl]amino]-3-methyl-pent-2-enoyl]amino]but-2-enedioic acid

> <PUBCHEM_IUPAC_CAS_NAME>
2-[[2-[[[1-[[14-chloro-10-ethyl-2,13-dihydroxy-10-methyl-3-(methylamino)-6-(1-methylethenyl)-4,7-dioxo-11-oxa-5,8-diazabicyclo[10.3.1]hexadeca-1(16),12,14-trien-9-yl]-oxomethyl]-2,5-dihydropyrrol-2-yl]-oxomethyl]amino]-3-methyl-1-oxopent-2-enyl]amino]-2-butenedioic acid

> <PUBCHEM_IUPAC_NAME>
2-[[2-[[1-[14-chloro-10-ethyl-2,13-dihydroxy-10-methyl-3-(methylamino)-4,7-dioxo-6-prop-1-en-2-yl-11-oxa-5,8-diazabicyclo[10.3.1]hexadeca-1(16),12,14-triene-9-carbonyl]-2,5-dihydropyrrole-2-carbonyl]amino]-3-methylpent-2-enoyl]amino]but-2-enedioic acid

> <PUBCHEM_IUPAC_SYSTEMATIC_NAME>
2-[[2-[[1-[[14-chloranyl-10-ethyl-10-methyl-3-(methylamino)-2,13-bis(oxidanyl)-4,7-bis(oxidanylidene)-6-prop-1-en-2-yl-11-oxa-5,8-diazabicyclo[10.3.1]hexadeca-1(16),12,14-trien-9-yl]carbonyl]-2,5-dihydropyrrol-2-yl]carbonylamino]-3-methyl-pent-2-enoyl]amino]but-2-enedioic acid

> <PUBCHEM_IUPAC_TRADITIONAL_NAME>
2-[[2-[[1-[14-chloro-10-ethyl-2,13-dihydroxy-6-isopropenyl-4,7-diketo-10-methyl-3-(methylamino)-11-oxa-5,8-diazabicyclo[10.3.1]hexadeca-1(16),12,14-triene-9-carbonyl]-3-pyrroline-2-carbonyl]amino]-3-methyl-pent-2-enoyl]amino]but-2-enedioic acid

> <PUBCHEM_IUPAC_INCHI>
InChI=1S/C36H45ClN6O12/c1-8-17(5)25(32(50)39-20(35(53)54)15-23(44)45)41-30(48)21-11-10-12-43(21)34(52)29-36(6,9-2)55-22-14-18(13-19(37)28(22)47)27(46)26(38-7)33(51)40-24(16(3)4)31(49)42-29/h10-11,13-15,21,24,26-27,29,38,46-47H,3,8-9,12H2,1-2,4-7H3,(H,39,50)(H,40,51)(H,41,48)(H,42,49)(H,44,45)(H,53,54)

> <PUBCHEM_IUPAC_INCHIKEY>
FAFRRYBYQKPKSY-UHFFFAOYSA-N

> <PUBCHEM_XLOGP3_AA>
0.3

> <PUBCHEM_EXACT_MASS>
788.278399

> <PUBCHEM_MOLECULAR_FORMULA>
C36H45ClN6O12

> <PUBCHEM_MOLECULAR_WEIGHT>
789.2285

> <PUBCHEM_OPENEYE_CAN_SMILES>
CCC(=C(C(=O)NC(=CC(=O)O)C(=O)O)NC(=O)C1C=CCN1C(=O)C2C(OC3=C(C(=CC(=C3)C(C(C(=O)NC(C(=O)N2)C(=C)C)NC)O)Cl)O)(C)CC)C

> <PUBCHEM_OPENEYE_ISO_SMILES>
CCC(=C(C(=O)NC(=CC(=O)O)C(=O)O)NC(=O)C1C=CCN1C(=O)C2C(OC3=C(C(=CC(=C3)C(C(C(=O)NC(C(=O)N2)C(=C)C)NC)O)Cl)O)(C)CC)C

> <PUBCHEM_CACTVS_TPSA>
273

> <PUBCHEM_MONOISOTOPIC_WEIGHT>
788.278399

> <PUBCHEM_TOTAL_CHARGE>
0

> <PUBCHEM_HEAVY_ATOM_COUNT>
55

> <PUBCHEM_ATOM_DEF_STEREO_COUNT>
0

> <PUBCHEM_ATOM_UDEF_STEREO_COUNT>
6

> <PUBCHEM_BOND_DEF_STEREO_COUNT>
0

> <PUBCHEM_BOND_UDEF_STEREO_COUNT>
2

> <PUBCHEM_ISOTOPIC_ATOM_COUNT>
0

> <PUBCHEM_COMPONENT_COUNT>
1

> <PUBCHEM_CACTVS_TAUTO_COUNT>
108

> <PUBCHEM_COORDINATE_TYPE>
1
5
255

> <PUBCHEM_BONDANNOTATIONS>
35  18  3
20  24  3
21  23  3
25  33  3
31  37  8
31  38  8
32  40  3
36  37  8
36  41  8
38  42  8
41  42  8
44  47  1
34  5  3
52  53  1

$$$$

