   Color/Form

     * Colorless, oily liquid when pure
     * YELLOW PRISMS
     * Oily liquid ... forms prisms on cooling

   from [1]HSDB

   Odor

     * Weak, sweet, agreeable odor
     * Garlic-like odor

   from [2]HSDB

   Boiling Point
        215-217 at 760 mm Hg
   from [3]HSDB

   Melting Point
        13-14 deg C
   from [4]HSDB

   Density/Specific Gravity
        1.2741 at 20 deg C/4 deg C (liq); 1.338 at 13 deg C (solid)
   from [5]HSDB

   Octanol/Water Partition Coefficient
        log Kow = 2.41 (est)
   from [6]HSDB

   Solubilities

     * Soluble in fat solvents and other common organic solvents. High
       lipid solubility.
     * In water, 0.684 mg/L at 25 deg C
     * Sol in fat, fat solvents, common org solvents
     * MISCIBLE WITH PETROLEUM ETHER
     * > 10% acetone; > 10% benzene; >10% ether; > 10% ethanol

   from [7]HSDB

   Spectral Properties

     * Index of refraction: 1.5313 at 20 deg C
     * MASS: 103785 (NIST/EPA/MSDC Mass Spectral Database 1990 version);
       1237 (Atlas of Mass Spectral Data, John Wiley & Sons, New York)

   from [8]HSDB

   Vapor Density
        5.4 (Air= 1)
   from [9]HSDB

   Vapor Pressure
        0.11 mm Hg at 25 deg C [Monro NB et al; Environ Health Perspect
   107: 933-74 (1999)] [10]PubMed Abstract
   from [11]HSDB

   Viscosity
        3.95 at 20 deg C [Opresko DM et al; Rev Environ Contam Toxicol
   156: 1-183 (1998)] [12]PubMed Abstract
   from [13]HSDB

   Other Chemical/Physical Properties

     * Reacts with sulfhydryl & imidazole groups; products of hydrolysis
       are thiodiglycol and hydrochloric acid
     * MUSTARD GAS IN AN AQ MEDIUM REARRANGES INTO A CYCLIC SULFONIUM FORM
       WHICH IS HIGHLY REACTIVE
     * FIRST ORDER RATE CONSTANT FOR REACTION WITH WATER @ 37 DEG C K'0
       (H-1)= 33
     * HALF-LIFE OF HYDROLYSIS (HR)= 0.02
     * SUBSTRATE CONSTANT S= 0.95; VALUE OF S= 1.00 FOR METHYL BROMIDE IS
       THE REFERENCE STD /MUSTARD GAS CATION/
     * Hydrolyzed by alkalies; volatile with steam
     * Volatile enough to be effective as a vapor in warm weather
     * Air/water partition coefficient -2.87 (log)
     * Bleaching powder and sodium hypochlorite are recommended as
       neutralizing agents and inactivators.
     * Freezes at about 10 deg C
     * Volatility: 925 mg/cu m at 25 deg C
     * Henry's Law constant= 2.45X10-5 atm-cu m/mole at 25 deg C [Opresko
       DM et al; Rev Environ Contam Toxicol 156: 1-83 (1998)] [14]PubMed
       Abstract
     * Hydroxyl radical reaction rate constant = 7.82X10-12 cu
       cm/molec-sec at 25 deg C (est)

   from [15]HSDB

   Computed Properties
   Molecular Weight                  159.07732 [g/mol]
   Molecular Formula                 C[4]H[8]Cl[2]S
   XLogP3-AA                         2.1
   H-Bond Donor                      0
   H-Bond Acceptor                   1
   Rotatable Bond Count              4
   Exact Mass                        157.972377
   MonoIsotopic Mass                 157.972377
   Topological Polar Surface Area    25.3
   Heavy Atom Count                  7
   Formal Charge                     0
   Complexity                        28.9
   Isotope Atom Count                0
   Defined Atom Stereocenter Count   0
   Undefined Atom Stereocenter Count 0
   Defined Bond Stereocenter Count   0
   Undefined Bond Stereocenter Count 0
   Covalently-Bonded Unit Count      1
   Effective Rotor Count             4
   Conformer Sampling RMSD           0.6
   CID Conformer Count               [16]23

References

   1. http://toxnet.nlm.nih.gov/cgi-bin/sis/search/r?dbs+hsdb:@term+@rn+@rel+505-60-2
   2. http://toxnet.nlm.nih.gov/cgi-bin/sis/search/r?dbs+hsdb:@term+@rn+@rel+505-60-2
   3. http://toxnet.nlm.nih.gov/cgi-bin/sis/search/r?dbs+hsdb:@term+@rn+@rel+505-60-2
   4. http://toxnet.nlm.nih.gov/cgi-bin/sis/search/r?dbs+hsdb:@term+@rn+@rel+505-60-2
   5. http://toxnet.nlm.nih.gov/cgi-bin/sis/search/r?dbs+hsdb:@term+@rn+@rel+505-60-2
   6. http://toxnet.nlm.nih.gov/cgi-bin/sis/search/r?dbs+hsdb:@term+@rn+@rel+505-60-2
   7. http://toxnet.nlm.nih.gov/cgi-bin/sis/search/r?dbs+hsdb:@term+@rn+@rel+505-60-2
   8. http://toxnet.nlm.nih.gov/cgi-bin/sis/search/r?dbs+hsdb:@term+@rn+@rel+505-60-2
   9. http://toxnet.nlm.nih.gov/cgi-bin/sis/search/r?dbs+hsdb:@term+@rn+@rel+505-60-2
  10. http://www.ncbi.nlm.nih.gov/entrez/query.fcgi?cmd=Retrieve&db=pubmed&dopt=Abstract&list_uids=10585900
  11. http://toxnet.nlm.nih.gov/cgi-bin/sis/search/r?dbs+hsdb:@term+@rn+@rel+505-60-2
  12. http://www.ncbi.nlm.nih.gov/entrez/query.fcgi?cmd=Retrieve&db=pubmed&dopt=Abstract&list_uids=9597943
  13. http://toxnet.nlm.nih.gov/cgi-bin/sis/search/r?dbs+hsdb:@term+@rn+@rel+505-60-2
  14. http://www.ncbi.nlm.nih.gov/entrez/query.fcgi?cmd=Retrieve&db=pubmed&dopt=Abstract&list_uids=9597943
  15. http://toxnet.nlm.nih.gov/cgi-bin/sis/search/r?dbs+hsdb:@term+@rn+@rel+505-60-2
  16. http://pubchem.ncbi.nlm.nih.gov/vw3d/vw3d.cgi?cid=10461
