   Color/Form

     * Colorless liquid
     * Oil

   from [1]HSDB

   Odor
        Pungent odor
   from [2]HSDB

   Boiling Point
        188 deg C (decomp)
   from [3]HSDB

   Melting Point
        FP: -14 deg C
   from [4]HSDB

   Density/Specific Gravity
        0.72
   from [5]HSDB

   Solubilities

     * Miscible in ethanol and water; sol in benzene
     * SOL IN ETHER

   from [6]HSDB

   Spectral Properties

     * Index of refraction: 1.4338 @ 25 deg C
     * MASS: NIST 1116 (NIST/EPA/MCDC Mass Spectral Database 1990 Version)

   from [7]HSDB

   Vapor Density
        3.4 (AIR= 1)
   from [8]HSDB

   Vapor Pressure
        0.6 mm Hg at 30 deg C
   from [9]HSDB

   Other Chemical/Physical Properties

     * CONVERSION FACTORS: 1 MG/L= 245 PPM; 1 PPM= 4.1 MG/CU M
     * Hydroxyl radical reaction rate constant = 2.38X10-11 cu
       cm/molecule-sec @ 25 deg C
     * Polymerizes in water to a glassy form which regenerates the
       dialdehyde on vacuum distillation.
     * VP = 17 mm Hg @ 20 deg C; FP = -7 deg C /25% aqueous solution/; FP
       = -14 deg C /50% aqueous solution/
     * VP = 17 mm Hg @ 20 deg C; FP = -7 deg C /25% aqueous solution/

   from [10]HSDB

   Computed Properties
   Molecular Weight                  100.11582 [g/mol]
   Molecular Formula                 C[5]H[8]O[2]
   XLogP3-AA                         -0.5
   H-Bond Donor                      0
   H-Bond Acceptor                   2
   Rotatable Bond Count              4
   Tautomer Count                    3
   Exact Mass                        100.052429
   MonoIsotopic Mass                 100.052429
   Topological Polar Surface Area    34.1
   Heavy Atom Count                  7
   Formal Charge                     0
   Complexity                        51.1
   Isotope Atom Count                0
   Defined Atom Stereocenter Count   0
   Undefined Atom Stereocenter Count 0
   Defined Bond Stereocenter Count   0
   Undefined Bond Stereocenter Count 0
   Covalently-Bonded Unit Count      1
   Feature 3D Acceptor Count         2
   Effective Rotor Count             4
   Conformer Sampling RMSD           0.6
   CID Conformer Count               [11]13

References

   1. http://toxnet.nlm.nih.gov/cgi-bin/sis/search/r?dbs+hsdb:@term+@rn+@rel+111-30-8
   2. http://toxnet.nlm.nih.gov/cgi-bin/sis/search/r?dbs+hsdb:@term+@rn+@rel+111-30-8
   3. http://toxnet.nlm.nih.gov/cgi-bin/sis/search/r?dbs+hsdb:@term+@rn+@rel+111-30-8
   4. http://toxnet.nlm.nih.gov/cgi-bin/sis/search/r?dbs+hsdb:@term+@rn+@rel+111-30-8
   5. http://toxnet.nlm.nih.gov/cgi-bin/sis/search/r?dbs+hsdb:@term+@rn+@rel+111-30-8
   6. http://toxnet.nlm.nih.gov/cgi-bin/sis/search/r?dbs+hsdb:@term+@rn+@rel+111-30-8
   7. http://toxnet.nlm.nih.gov/cgi-bin/sis/search/r?dbs+hsdb:@term+@rn+@rel+111-30-8
   8. http://toxnet.nlm.nih.gov/cgi-bin/sis/search/r?dbs+hsdb:@term+@rn+@rel+111-30-8
   9. http://toxnet.nlm.nih.gov/cgi-bin/sis/search/r?dbs+hsdb:@term+@rn+@rel+111-30-8
  10. http://toxnet.nlm.nih.gov/cgi-bin/sis/search/r?dbs+hsdb:@term+@rn+@rel+111-30-8
  11. http://pubchem.ncbi.nlm.nih.gov/vw3d/vw3d.cgi?cid=3485
