   Color/Form

     * LEAFLETS FROM AQ ALCOHOL
     * CRYSTALS

   from [1]HSDB

   Melting Point
        165.5 DEG C
   from [2]HSDB

   Density/Specific Gravity
        1.08 @ 25 DEG C
   from [3]HSDB

   Dissociation Constants

     * pKa = 10.43, pKb = 11.63
     * pKa = 10.58

   from [4]HSDB

   Octanol/Water Partition Coefficient
        log Kow = -0.62
   from [5]HSDB

   pH
        NEUTRAL TO LITMUS; PH OF 0.5% AQ SOLN: 5.8-6.1
   from [6]HSDB

   Solubilities

     * IN WATER: 7.5 G/L AT 25 DEG C & 477 G/L AT 100 DEG C
     * 1 G DISSOLVES IN ABOUT 37 ML OF ALC & ABOUT 5 ML ACETONE
     * INSOL IN CHLOROFORM, ETHER, BENZENE & PETROLEUM ETHER; SOL IN
       GLYCEROL, PROPYLENE GLYCOL, HYDROCHLORIC ACID, SOLN OF POTASSIUM
       AND SODIUM HYDROXIDE
     * SOL IN ETHANOL
     * Water solubility = 8.36X10+3 mg/l at 25 deg C

   from [7]HSDB

   Spectral Properties

     * SADTLER REFERENCE NUMBER: 301 (IR, PRISM); MAX ABSORPTION (ALC):
       258.5 NM (LOG E= 4.28)
     * MAX ABSORPTION: 257 NM, 313 NM
     * IR: 102 (Sadtler Research Laboratories IR Grating Collection)
     * UV: 117 (Sadtler Research Laboratories Spectral Collection)
     * NMR: 9685 (Sadtler Research Laboratories Spectral Collection)
     * MASS: 4284 (National Bureau of Standards EPA-NIH Mass Spectra Data
       Base, NSRDS-NBS-63)

   from [8]HSDB

   Other Chemical/Physical Properties
        WHITE CRYSTALS, GRANULES OR POWDER /NF X1/
   from [9]HSDB

   Computed Properties
   Molecular Weight                  172.20492 [g/mol]
   Molecular Formula                 C[6]H[8]N[2]O[2]S
   XLogP3                            -0.6
   H-Bond Donor                      2
   H-Bond Acceptor                   4
   Rotatable Bond Count              1
   Exact Mass                        172.030649
   MonoIsotopic Mass                 172.030649
   Topological Polar Surface Area    94.6
   Heavy Atom Count                  11
   Formal Charge                     0
   Complexity                        211
   Isotope Atom Count                0
   Defined Atom Stereocenter Count   0
   Undefined Atom Stereocenter Count 0
   Defined Bond Stereocenter Count   0
   Undefined Bond Stereocenter Count 0
   Covalently-Bonded Unit Count      1
   Feature 3D Acceptor Count         2
   Feature 3D Donor Count            2
   Feature 3D Cation Count           1
   Feature 3D Ring Count             1
   Effective Rotor Count             1
   Conformer Sampling RMSD           0.4
   CID Conformer Count               [10]1

References

   1. http://toxnet.nlm.nih.gov/cgi-bin/sis/search/r?dbs+hsdb:@term+@rn+@rel+63-74-1
   2. http://toxnet.nlm.nih.gov/cgi-bin/sis/search/r?dbs+hsdb:@term+@rn+@rel+63-74-1
   3. http://toxnet.nlm.nih.gov/cgi-bin/sis/search/r?dbs+hsdb:@term+@rn+@rel+63-74-1
   4. http://toxnet.nlm.nih.gov/cgi-bin/sis/search/r?dbs+hsdb:@term+@rn+@rel+63-74-1
   5. http://toxnet.nlm.nih.gov/cgi-bin/sis/search/r?dbs+hsdb:@term+@rn+@rel+63-74-1
   6. http://toxnet.nlm.nih.gov/cgi-bin/sis/search/r?dbs+hsdb:@term+@rn+@rel+63-74-1
   7. http://toxnet.nlm.nih.gov/cgi-bin/sis/search/r?dbs+hsdb:@term+@rn+@rel+63-74-1
   8. http://toxnet.nlm.nih.gov/cgi-bin/sis/search/r?dbs+hsdb:@term+@rn+@rel+63-74-1
   9. http://toxnet.nlm.nih.gov/cgi-bin/sis/search/r?dbs+hsdb:@term+@rn+@rel+63-74-1
  10. http://pubchem.ncbi.nlm.nih.gov/vw3d/vw3d.cgi?cid=5333
