   Color/Form

     * Waxy solid, crystals or granules
     * White to colorless granules, pieces, or crystals
     * Plates from water

   from [1]HSDB

   Boiling Point
        255 deg C (decomposes)
   from [2]HSDB

   Melting Point
        38.1 deg C
   from [3]HSDB

   Density/Specific Gravity
        1.0085 g/cu cm at 22 deg C
   from [4]HSDB

   Dissociation Constants
        pKa = 10.25
   from [5]HSDB

   Octanol/Water Partition Coefficient
        log Kow = 1.13
   from [6]HSDB

   pH
        10.8 AQ SOLN (1 IN 200)
   from [7]HSDB

   Solubilities

     * 1 G DISSOLVES IN ABOUT 20 ML WATER, 0.2 ML ALC; SOL IN CHLOROFORM,
       ETHER, OILS
     * Soluble in alcohol, ether, chloroform, and oils.
     * Soluble in ethanol, benzene
     * In water= 63,600 mg/L at 30 deg C

   from [8]HSDB

   Spectral Properties

     * MAX ABSORPTION (ALC): 252 NM (LOG E= 2.2), 258 NM (LOG E= 2.3), 266
       NM (LOG E= 2.2)
     * Specific optical rotation: -6.3 at 20 deg C/D (alcohol)
     * MASS: 107176 (NIST/EPA/MSDC Mass Spectral database, 1990 version);
       2-762 (Archives of Mass Spectral Data, John Wiley & Sons, New York)
     * Intense mass spectral peaks: 58 m/z, 77 m/z, 105 m/z, 146 m/z

   from [9]HSDB

   Vapor Pressure
        8.30X10-4 mm Hg at 25 deg C (est)
   from [10]HSDB

   Other Chemical/Physical Properties

     * Unctuous to touch ... hygroscopic, gradually decomposes on exposure
       to light
     * Mol wt: 201.70. Fine, white, colorless crystals or powder, affected
       by light, mp 217-220 deg C. Specific optical rotation: -33 to -35.5
       deg ( c = 5). Freely soluble in water, soluble in alcohol.
       Practically insoluble in ether.
     * Mol wt: 428.55. Fine, white, odorless crystals or powder. Darkens
       on exposure to light, mp 245 deg C (decomposes). Specific optical
       rotation: -30 to -32.5 deg ( c = 5). Freely soluble in water;
       sparingly soluble in alcohol. /Sulfate/
     * Crystals from chloroform-petroleum ether, mp 75 deg C. Soluble in
       water, alcohol, ether, chloroform, oils. /dl-Form/
     * 1 G DISSOLVES IN 1.2 ML WATER, 95 ML ALC; FREELY SOL IN HOT ALC
       /L-FORM SULFATE/
     * Crystals from alcohol-acetone, mp 189 deg C. One gram dissolves in
       4 mL water, in about 40 mL of 95% alcohol at 20 deg C. Practically
       insoluble in ether. pH about 6. /dl-Form, hydrochloride/
     * MAY CONTAIN UP TO 1/2 MOLE H2O (5.2%)
     * Absorption of water raises the mp to 40 deg C.
     * (+)-threo-Form, ... pseudoephedrine
     * Henry's Law constant = 8.65X10-11 atm-cu m/mol at 25 deg C (est)
     * Hydroxyl radical reaction rate constant = 9.97X10-11 cu
       cm/molec-sec at 25 deg C (est)

   from [11]HSDB

   Computed Properties
   Molecular Weight                  165.2322 [g/mol]
   Molecular Formula                 C[10]H[15]NO
   XLogP3                            0.9
   H-Bond Donor                      2
   H-Bond Acceptor                   2
   Rotatable Bond Count              3
   Exact Mass                        165.115364
   MonoIsotopic Mass                 165.115364
   Topological Polar Surface Area    32.3
   Heavy Atom Count                  12
   Formal Charge                     0
   Complexity                        121
   Isotope Atom Count                0
   Defined Atom Stereocenter Count   2
   Undefined Atom Stereocenter Count 0
   Defined Bond Stereocenter Count   0
   Undefined Bond Stereocenter Count 0
   Covalently-Bonded Unit Count      1
   Feature 3D Acceptor Count         1
   Feature 3D Donor Count            2
   Feature 3D Cation Count           1
   Feature 3D Ring Count             1
   Effective Rotor Count             3
   Conformer Sampling RMSD           0.6
   CID Conformer Count               [12]7

References

   1. http://toxnet.nlm.nih.gov/cgi-bin/sis/search/r?dbs+hsdb:@term+@rn+@rel+299-42-3
   2. http://toxnet.nlm.nih.gov/cgi-bin/sis/search/r?dbs+hsdb:@term+@rn+@rel+299-42-3
   3. http://toxnet.nlm.nih.gov/cgi-bin/sis/search/r?dbs+hsdb:@term+@rn+@rel+299-42-3
   4. http://toxnet.nlm.nih.gov/cgi-bin/sis/search/r?dbs+hsdb:@term+@rn+@rel+299-42-3
   5. http://toxnet.nlm.nih.gov/cgi-bin/sis/search/r?dbs+hsdb:@term+@rn+@rel+299-42-3
   6. http://toxnet.nlm.nih.gov/cgi-bin/sis/search/r?dbs+hsdb:@term+@rn+@rel+299-42-3
   7. http://toxnet.nlm.nih.gov/cgi-bin/sis/search/r?dbs+hsdb:@term+@rn+@rel+299-42-3
   8. http://toxnet.nlm.nih.gov/cgi-bin/sis/search/r?dbs+hsdb:@term+@rn+@rel+299-42-3
   9. http://toxnet.nlm.nih.gov/cgi-bin/sis/search/r?dbs+hsdb:@term+@rn+@rel+299-42-3
  10. http://toxnet.nlm.nih.gov/cgi-bin/sis/search/r?dbs+hsdb:@term+@rn+@rel+299-42-3
  11. http://toxnet.nlm.nih.gov/cgi-bin/sis/search/r?dbs+hsdb:@term+@rn+@rel+299-42-3
  12. http://pubchem.ncbi.nlm.nih.gov/vw3d/vw3d.cgi?cid=9294
