5281558
  -OEChem-07051212582D

 38 39  0     0  0  0  0  0  0999 V2000
    4.2690    2.0600    0.0000 O   0  0  0  0  0  0  0  0  0  0  0  0
    7.7331    0.0600    0.0000 O   0  0  0  0  0  0  0  0  0  0  0  0
    3.4030   -1.4400    0.0000 C   0  0  0  0  0  0  0  0  0  0  0  0
    2.5369   -0.9400    0.0000 C   0  0  0  0  0  0  0  0  0  0  0  0
    4.2690   -0.9400    0.0000 C   0  0  0  0  0  0  0  0  0  0  0  0
    6.0010   -0.9400    0.0000 C   0  0  0  0  0  0  0  0  0  0  0  0
    5.1350   -1.4400    0.0000 C   0  0  0  0  0  0  0  0  0  0  0  0
    6.0010    0.0600    0.0000 C   0  0  0  0  0  0  0  0  0  0  0  0
    2.5369    0.0600    0.0000 C   0  0  0  0  0  0  0  0  0  0  0  0
    3.4030    0.5600    0.0000 C   0  0  0  0  0  0  0  0  0  0  0  0
    3.4030    1.5600    0.0000 C   0  0  0  0  0  0  0  0  0  0  0  0
    5.1350    0.5600    0.0000 C   0  0  0  0  0  0  0  0  0  0  0  0
    4.9118   -0.1740    0.0000 C   0  0  0  0  0  0  0  0  0  0  0  0
    5.1350    1.5600    0.0000 C   0  0  0  0  0  0  0  0  0  0  0  0
    6.8671    0.5600    0.0000 C   0  0  0  0  0  0  0  0  0  0  0  0
    4.3878    0.7336    0.0000 C   0  0  0  0  0  0  0  0  0  0  0  0
    6.0010    2.0600    0.0000 C   0  0  0  0  0  0  0  0  0  0  0  0
    6.8671    1.5600    0.0000 C   0  0  0  0  0  0  0  0  0  0  0  0
    3.0044   -1.9150    0.0000 H   0  0  0  0  0  0  0  0  0  0  0  0
    3.8015   -1.9150    0.0000 H   0  0  0  0  0  0  0  0  0  0  0  0
    1.9264   -0.8323    0.0000 H   0  0  0  0  0  0  0  0  0  0  0  0
    2.3249   -1.5226    0.0000 H   0  0  0  0  0  0  0  0  0  0  0  0
    6.2131   -1.5226    0.0000 H   0  0  0  0  0  0  0  0  0  0  0  0
    6.6116   -0.8323    0.0000 H   0  0  0  0  0  0  0  0  0  0  0  0
    5.1350   -2.0600    0.0000 H   0  0  0  0  0  0  0  0  0  0  0  0
    2.0000    0.3700    0.0000 H   0  0  0  0  0  0  0  0  0  0  0  0
    3.1909    2.1426    0.0000 H   0  0  0  0  0  0  0  0  0  0  0  0
    2.7924    1.4523    0.0000 H   0  0  0  0  0  0  0  0  0  0  0  0
    4.5981    0.2500    0.0000 H   0  0  0  0  0  0  0  0  0  0  0  0
    5.3867   -0.5725    0.0000 H   0  0  0  0  0  0  0  0  0  0  0  0
    5.3103    0.3010    0.0000 H   0  0  0  0  0  0  0  0  0  0  0  0
    4.4368    0.2246    0.0000 H   0  0  0  0  0  0  0  0  0  0  0  0
    4.4954    0.1231    0.0000 H   0  0  0  0  0  0  0  0  0  0  0  0
    4.9984    0.8413    0.0000 H   0  0  0  0  0  0  0  0  0  0  0  0
    4.2801    1.3442    0.0000 H   0  0  0  0  0  0  0  0  0  0  0  0
    6.0010    2.6800    0.0000 H   0  0  0  0  0  0  0  0  0  0  0  0
    7.4040    1.8700    0.0000 H   0  0  0  0  0  0  0  0  0  0  0  0
    8.2700    0.3700    0.0000 H   0  0  0  0  0  0  0  0  0  0  0  0
  1 11  1  0  0  0  0
  1 14  1  0  0  0  0
  2 15  1  0  0  0  0
  2 38  1  0  0  0  0
  3  4  1  0  0  0  0
  3  5  1  0  0  0  0
  3 19  1  0  0  0  0
  3 20  1  0  0  0  0
  4  9  1  0  0  0  0
  4 21  1  0  0  0  0
  4 22  1  0  0  0  0
  5  7  2  0  0  0  0
  5 13  1  0  0  0  0
  6  7  1  0  0  0  0
  6  8  1  0  0  0  0
  6 23  1  0  0  0  0
  6 24  1  0  0  0  0
  7 25  1  0  0  0  0
  8 12  1  0  0  0  0
  8 15  2  0  0  0  0
  9 10  2  0  0  0  0
  9 26  1  0  0  0  0
 10 11  1  0  0  0  0
 10 16  1  0  0  0  0
 11 27  1  0  0  0  0
 11 28  1  0  0  0  0
 12 14  2  0  0  0  0
 12 29  1  0  0  0  0
 13 30  1  0  0  0  0
 13 31  1  0  0  0  0
 13 32  1  0  0  0  0
 14 17  1  0  0  0  0
 15 18  1  0  0  0  0
 16 33  1  0  0  0  0
 16 34  1  0  0  0  0
 16 35  1  0  0  0  0
 17 18  2  0  0  0  0
 17 36  1  0  0  0  0
 18 37  1  0  0  0  0
M  END
> <PUBCHEM_COMPOUND_CID>
5281558

> <PUBCHEM_COMPOUND_CANONICALIZED>
1

> <PUBCHEM_CACTVS_COMPLEXITY>
330

> <PUBCHEM_CACTVS_HBOND_ACCEPTOR>
2

> <PUBCHEM_CACTVS_HBOND_DONOR>
1

> <PUBCHEM_CACTVS_ROTATABLE_BOND>
0

> <PUBCHEM_CACTVS_SUBSKEYS>
AAADceB4MAAAAAAAAAAAAAAAAAAAAAAAAAAwAAAAAAAAAAABAAAAGgAACAAADASgmAIyBoAABgCAAiBCAAACCAAgIAAIiAAGCIgMJiKGMRqCeCCkwBEIuAfAwLAOAQABAAAIAAACAAIAABAAAAAAAAAAAA==

> <PUBCHEM_IUPAC_OPENEYE_NAME>
(3E,7E)-4,8-dimethyl-10-oxabicyclo[9.3.1]pentadeca-1(14),3,7,11(15),12-pentaen-14-ol

> <PUBCHEM_IUPAC_CAS_NAME>
(3E,7E)-4,8-dimethyl-10-oxabicyclo[9.3.1]pentadeca-1(14),3,7,11(15),12-pentaen-14-ol

> <PUBCHEM_IUPAC_NAME>
(3E,7E)-4,8-dimethyl-10-oxabicyclo[9.3.1]pentadeca-1(14),3,7,11(15),12-pentaen-14-ol

> <PUBCHEM_IUPAC_SYSTEMATIC_NAME>
(3E,7E)-4,8-dimethyl-10-oxabicyclo[9.3.1]pentadeca-1(14),3,7,11(15),12-pentaen-14-ol

> <PUBCHEM_IUPAC_TRADITIONAL_NAME>
(3E,7E)-4,8-dimethyl-10-oxabicyclo[9.3.1]pentadeca-1(14),3,7,11(15),12-pentaen-14-ol

> <PUBCHEM_IUPAC_INCHI>
InChI=1S/C16H20O2/c1-12-4-3-5-13(2)11-18-15-8-9-16(17)14(10-15)7-6-12/h5-6,8-10,17H,3-4,7,11H2,1-2H3/b12-6+,13-5+

> <PUBCHEM_IUPAC_INCHIKEY>
BSXTWYDVYNXVHH-YKNDAMCPSA-N

> <PUBCHEM_XLOGP3_AA>
3.4

> <PUBCHEM_EXACT_MASS>
244.14633

> <PUBCHEM_MOLECULAR_FORMULA>
C16H20O2

> <PUBCHEM_MOLECULAR_WEIGHT>
244.3288

> <PUBCHEM_OPENEYE_CAN_SMILES>
CC1=CCC2=C(C=CC(=C2)OCC(=CCC1)C)O

> <PUBCHEM_OPENEYE_ISO_SMILES>
C/C/1=C\CC2=C(C=CC(=C2)OC/C(=C/CC1)/C)O

> <PUBCHEM_CACTVS_TPSA>
29.5

> <PUBCHEM_MONOISOTOPIC_WEIGHT>
244.14633

> <PUBCHEM_TOTAL_CHARGE>
0

> <PUBCHEM_HEAVY_ATOM_COUNT>
18

> <PUBCHEM_ATOM_DEF_STEREO_COUNT>
0

> <PUBCHEM_ATOM_UDEF_STEREO_COUNT>
0

> <PUBCHEM_BOND_DEF_STEREO_COUNT>
2

> <PUBCHEM_BOND_UDEF_STEREO_COUNT>
0

> <PUBCHEM_ISOTOPIC_ATOM_COUNT>
0

> <PUBCHEM_COMPONENT_COUNT>
1

> <PUBCHEM_CACTVS_TAUTO_COUNT>
1

> <PUBCHEM_COORDINATE_TYPE>
1
5
255

> <PUBCHEM_BONDANNOTATIONS>
12  14  8
14  17  8
15  18  8
17  18  8
8  12  8
8  15  8

$$$$

