5460448
  -OEChem-07051212442D

 24 24  0     1  0  0  0  0  0999 V2000
    3.1697    1.2220    0.0000 P   0  0  0  0  0  0  0  0  0  0  0  0
    5.1377    0.5226    0.0000 O   0  0  0  0  0  0  0  0  0  0  0  0
    3.3776    0.2438    0.0000 O   0  0  0  0  0  0  0  0  0  0  0  0
    6.2255   -1.8253    0.0000 O   0  0  0  0  0  0  0  0  0  0  0  0
    7.1057    1.2220    0.0000 O   0  0  0  0  0  0  0  0  0  0  0  0
    2.9618    2.2001    0.0000 O   0  0  0  0  0  0  0  0  0  0  0  0
    2.1916    1.0140    0.0000 O   0  0  0  0  0  0  0  0  0  0  0  0
    4.1479    1.4299    0.0000 O   0  0  0  0  0  0  0  0  0  0  0  0
    5.6377   -1.0163    0.0000 C   0  0  2  0  0  0  0  0  0  0  0  0
    5.9467   -0.0652    0.0000 C   0  0  1  0  0  0  0  0  0  0  0  0
    4.6377   -1.0163    0.0000 C   0  0  0  0  0  0  0  0  0  0  0  0
    4.3287   -0.0652    0.0000 C   0  0  2  0  0  0  0  0  0  0  0  0
    6.8978    0.2438    0.0000 C   0  0  0  0  0  0  0  0  0  0  0  0
    6.2501   -0.9193    0.0000 H   0  0  0  0  0  0  0  0  0  0  0  0
    6.0437    0.5472    0.0000 H   0  0  0  0  0  0  0  0  0  0  0  0
    4.0313   -1.1452    0.0000 H   0  0  0  0  0  0  0  0  0  0  0  0
    4.7025   -1.6329    0.0000 H   0  0  0  0  0  0  0  0  0  0  0  0
    3.8903   -0.5036    0.0000 H   0  0  0  0  0  0  0  0  0  0  0  0
    6.9841   -0.3702    0.0000 H   0  0  0  0  0  0  0  0  0  0  0  0
    7.5174    0.2222    0.0000 H   0  0  0  0  0  0  0  0  0  0  0  0
    5.9733   -2.3917    0.0000 H   0  0  0  0  0  0  0  0  0  0  0  0
    7.6954    1.4135    0.0000 H   0  0  0  0  0  0  0  0  0  0  0  0
    2.3722    2.3917    0.0000 H   0  0  0  0  0  0  0  0  0  0  0  0
    2.0000    0.4244    0.0000 H   0  0  0  0  0  0  0  0  0  0  0  0
  1  3  1  0  0  0  0
  1  6  1  0  0  0  0
  1  7  1  0  0  0  0
  1  8  2  0  0  0  0
  2 10  1  0  0  0  0
  2 12  1  0  0  0  0
 12  3  1  1  0  0  0
  9  4  1  1  0  0  0
  4 21  1  0  0  0  0
  5 13  1  0  0  0  0
  5 22  1  0  0  0  0
  6 23  1  0  0  0  0
  7 24  1  0  0  0  0
  9 10  1  0  0  0  0
  9 11  1  0  0  0  0
  9 14  1  0  0  0  0
 10 13  1  6  0  0  0
 10 15  1  0  0  0  0
 11 12  1  0  0  0  0
 11 16  1  0  0  0  0
 11 17  1  0  0  0  0
 12 18  1  0  0  0  0
 13 19  1  0  0  0  0
 13 20  1  0  0  0  0
M  END
> <PUBCHEM_COMPOUND_CID>
5460448

> <PUBCHEM_COMPOUND_CANONICALIZED>
1

> <PUBCHEM_CACTVS_COMPLEXITY>
213

> <PUBCHEM_CACTVS_HBOND_ACCEPTOR>
7

> <PUBCHEM_CACTVS_HBOND_DONOR>
4

> <PUBCHEM_CACTVS_ROTATABLE_BOND>
3

> <PUBCHEM_CACTVS_SUBSKEYS>
AAADccBgOAIAAAAAAAAAAAAAAAAAASAAAAAAAAAAAAAAAAAAAAAAGgAACCAACBSwgAMACAAABxAAQAAAAIAAAAAAAAAAAAAAAAAREAIAAAACQAAFAAAHAADAIAAAAAAAAAAAAAAAAAAAAAAAAAAAAAAAAA==

> <PUBCHEM_IUPAC_OPENEYE_NAME>
[(2R,4S,5R)-4-hydroxy-5-(hydroxymethyl)tetrahydrofuran-2-yl] dihydrogen phosphate

> <PUBCHEM_IUPAC_CAS_NAME>
[(2R,4S,5R)-4-hydroxy-5-(hydroxymethyl)-2-oxolanyl] dihydrogen phosphate

> <PUBCHEM_IUPAC_NAME>
[(2R,4S,5R)-4-hydroxy-5-(hydroxymethyl)oxolan-2-yl] dihydrogen phosphate

> <PUBCHEM_IUPAC_SYSTEMATIC_NAME>
[(2R,4S,5R)-5-(hydroxymethyl)-4-oxidanyl-oxolan-2-yl] dihydrogen phosphate

> <PUBCHEM_IUPAC_TRADITIONAL_NAME>
[(2R,4S,5R)-4-hydroxy-5-methylol-tetrahydrofuran-2-yl] dihydrogen phosphate

> <PUBCHEM_IUPAC_INCHI>
InChI=1S/C5H11O7P/c6-2-4-3(7)1-5(11-4)12-13(8,9)10/h3-7H,1-2H2,(H2,8,9,10)/t3-,4+,5+/m0/s1

> <PUBCHEM_IUPAC_INCHIKEY>
KBDKAJNTYKVSEK-VPENINKCSA-N

> <PUBCHEM_XLOGP3_AA>
-2.1

> <PUBCHEM_EXACT_MASS>
214.024239

> <PUBCHEM_MOLECULAR_FORMULA>
C5H11O7P

> <PUBCHEM_MOLECULAR_WEIGHT>
214.110402

> <PUBCHEM_OPENEYE_CAN_SMILES>
C1C(C(OC1OP(=O)(O)O)CO)O

> <PUBCHEM_OPENEYE_ISO_SMILES>
C1[C@@H]([C@H](O[C@@H]1OP(=O)(O)O)CO)O

> <PUBCHEM_CACTVS_TPSA>
116

> <PUBCHEM_MONOISOTOPIC_WEIGHT>
214.024239

> <PUBCHEM_TOTAL_CHARGE>
0

> <PUBCHEM_HEAVY_ATOM_COUNT>
13

> <PUBCHEM_ATOM_DEF_STEREO_COUNT>
3

> <PUBCHEM_ATOM_UDEF_STEREO_COUNT>
0

> <PUBCHEM_BOND_DEF_STEREO_COUNT>
0

> <PUBCHEM_BOND_UDEF_STEREO_COUNT>
0

> <PUBCHEM_ISOTOPIC_ATOM_COUNT>
0

> <PUBCHEM_COMPONENT_COUNT>
1

> <PUBCHEM_CACTVS_TAUTO_COUNT>
1

> <PUBCHEM_COORDINATE_TYPE>
1
5
255

> <PUBCHEM_BONDANNOTATIONS>
10  13  6
12  3  5
9  4  5

$$$$

