   Color/Form
        Colorless prisms
   from [1]HSDB

   Melting Point
        212 deg C
   from [2]HSDB

   Dissociation Constants
        pKa = 6.01 /Estimated/
   from [3]HSDB

   Octanol/Water Partition Coefficient
        log Kow = -1.88 @ 25 deg C /Estimated/
   from [4]HSDB

   Solubilities

     * Soluble in chloroform; slightly soluble in acetone, ethanol, water
     * Practically insoluble in ether.
     * In water, 3.08X10+4 mg/L @ 25 deg C /Estimated/

   from [5]HSDB

   Spectral Properties
        Max absorption (water): 217 nm (epsilon= 201, 1%, 1 cm); specific
   optical rotation (chloroform): -61.4 deg @ 20 deg C/D
   from [6]HSDB

   Vapor Pressure
        1.9X10-14 mm Hg @ 25 deg C /Estimated/
   from [7]HSDB

   Other Chemical/Physical Properties

     * Readily hydrolyzed with alkali; reacts with oxidizing agents
       (slowly with atmospheric oxygen) to form dihydropyrrolizine and
       other derivatives.
     * Henry's Law constant = 1.3X10-12 atm-cu m/mol @ 25 deg C
       /Estimated/
     * Hydroxyl radical reaction rate constant = 2X10-10 cu cm/molec-sec @
       25 deg C /Estimated/

   from [8]HSDB

   Computed Properties
   Molecular Weight                  351.3942 [g/mol]
   Molecular Formula                 C[18]H[25]NO[6]
   XLogP3-AA                         0.6
   H-Bond Donor                      2
   H-Bond Acceptor                   7
   Rotatable Bond Count              1
   Exact Mass                        351.168188
   MonoIsotopic Mass                 351.168188
   Topological Polar Surface Area    96.3
   Heavy Atom Count                  25
   Formal Charge                     0
   Complexity                        627
   Isotope Atom Count                0
   Defined Atom Stereocenter Count   4
   Undefined Atom Stereocenter Count 0
   Defined Bond Stereocenter Count   1
   Undefined Bond Stereocenter Count 0
   Covalently-Bonded Unit Count      1
   Feature 3D Acceptor Count         4
   Feature 3D Donor Count            2
   Feature 3D Cation Count           1
   Feature 3D Hydrophobe Count       1
   Feature 3D Ring Count             2
   Effective Rotor Count             2.8
   Conformer Sampling RMSD           0.6
   CID Conformer Count               [9]14

References

   1. http://toxnet.nlm.nih.gov/cgi-bin/sis/search/r?dbs+hsdb:@term+@rn+@rel+480-54-6
   2. http://toxnet.nlm.nih.gov/cgi-bin/sis/search/r?dbs+hsdb:@term+@rn+@rel+480-54-6
   3. http://toxnet.nlm.nih.gov/cgi-bin/sis/search/r?dbs+hsdb:@term+@rn+@rel+480-54-6
   4. http://toxnet.nlm.nih.gov/cgi-bin/sis/search/r?dbs+hsdb:@term+@rn+@rel+480-54-6
   5. http://toxnet.nlm.nih.gov/cgi-bin/sis/search/r?dbs+hsdb:@term+@rn+@rel+480-54-6
   6. http://toxnet.nlm.nih.gov/cgi-bin/sis/search/r?dbs+hsdb:@term+@rn+@rel+480-54-6
   7. http://toxnet.nlm.nih.gov/cgi-bin/sis/search/r?dbs+hsdb:@term+@rn+@rel+480-54-6
   8. http://toxnet.nlm.nih.gov/cgi-bin/sis/search/r?dbs+hsdb:@term+@rn+@rel+480-54-6
   9. http://pubchem.ncbi.nlm.nih.gov/vw3d/vw3d.cgi?cid=5281743
