   Color/Form

     * Prisms from 50% ethanol
     * WHITE TO OFF-WHITE CRYSTALLINE POWDER

   from [1]HSDB

   Odor
        ODORLESS
   from [2]HSDB

   Melting Point
        212-213 deg C
   from [3]HSDB

   Dissociation Constants
        pKa = 4.22
   from [4]HSDB

   Octanol/Water Partition Coefficient
        log Kow = -2.46 (est)
   from [5]HSDB

   Solubilities

     * 1 G IN ABOUT 5 ML WATER & 500 ML ALC; 1 G IN ABOUT 1000 ML
       CHLOROFORM & 300 ML METHANOL
     * Soluble in water
     * In water, 1X10+6 mg/L at 25 deg C (miscible) (est)

   from [6]HSDB

   Spectral Properties
        Specific optical rotation: + 158 deg at 23 deg C/D; +153 deg at 24
   deg C/D (water, 0.5%); max absorption at pH 2: 281.0 nm (e= 13,171);
   212.5 nm (e= 10,230); at pH 12: 272.5 nm (e= 9259)
   from [7]HSDB

   Vapor Pressure
        8.74X10-12 mm Hg at 25 deg C (est)
   from [8]HSDB

   Other Chemical/Physical Properties

     * NON-HYGROSCOPIC @ 40 DEG C
     * Henry's Law constant = 1.57X10-19 atm-cu m/mol at 25 deg C (est)
     * Hydroxyl radical reaction rate constant = 1.23X10-10 cu
       cm/molec-sec at 25 deg C (est)

   from [9]HSDB

   Computed Properties
   Molecular Weight                  243.21662 [g/mol]
   Molecular Formula                 C[9]H[13]N[3]O[5]
   XLogP3                            -2.1
   H-Bond Donor                      4
   H-Bond Acceptor                   5
   Rotatable Bond Count              2
   Tautomer Count                    3
   Exact Mass                        243.085521
   MonoIsotopic Mass                 243.085521
   Topological Polar Surface Area    129
   Heavy Atom Count                  17
   Formal Charge                     0
   Complexity                        383
   Isotope Atom Count                0
   Defined Atom Stereocenter Count   4
   Undefined Atom Stereocenter Count 0
   Defined Bond Stereocenter Count   0
   Undefined Bond Stereocenter Count 0
   Covalently-Bonded Unit Count      1
   Feature 3D Acceptor Count         5
   Feature 3D Donor Count            5
   Feature 3D Ring Count             2
   Effective Rotor Count             3
   Conformer Sampling RMSD           0.6
   CID Conformer Count               [10]10

References

   1. http://toxnet.nlm.nih.gov/cgi-bin/sis/search/r?dbs+hsdb:@term+@rn+@rel+147-94-4
   2. http://toxnet.nlm.nih.gov/cgi-bin/sis/search/r?dbs+hsdb:@term+@rn+@rel+147-94-4
   3. http://toxnet.nlm.nih.gov/cgi-bin/sis/search/r?dbs+hsdb:@term+@rn+@rel+147-94-4
   4. http://toxnet.nlm.nih.gov/cgi-bin/sis/search/r?dbs+hsdb:@term+@rn+@rel+147-94-4
   5. http://toxnet.nlm.nih.gov/cgi-bin/sis/search/r?dbs+hsdb:@term+@rn+@rel+147-94-4
   6. http://toxnet.nlm.nih.gov/cgi-bin/sis/search/r?dbs+hsdb:@term+@rn+@rel+147-94-4
   7. http://toxnet.nlm.nih.gov/cgi-bin/sis/search/r?dbs+hsdb:@term+@rn+@rel+147-94-4
   8. http://toxnet.nlm.nih.gov/cgi-bin/sis/search/r?dbs+hsdb:@term+@rn+@rel+147-94-4
   9. http://toxnet.nlm.nih.gov/cgi-bin/sis/search/r?dbs+hsdb:@term+@rn+@rel+147-94-4
  10. http://pubchem.ncbi.nlm.nih.gov/vw3d/vw3d.cgi?cid=6253
