16061579
  -OEChem-07051213112D

 38 41  0     1  0  0  0  0  0999 V2000
    3.3121    0.1682    0.0000 P   0  0  3  0  0  0  0  0  0  0  0  0
    5.9781   -1.3526    0.0000 O   0  0  0  0  0  0  0  0  0  0  0  0
    4.2181    0.6820    0.0000 O   0  0  0  0  0  0  0  0  0  0  0  0
    5.4781    1.5134    0.0000 O   0  0  0  0  0  0  0  0  0  0  0  0
    6.4781    1.5134    0.0000 O   0  0  0  0  0  0  0  0  0  0  0  0
    3.3121   -0.8734    0.0000 O   0  0  0  0  0  0  0  0  0  0  0  0
    2.3121    0.1720    0.0000 O   0  0  0  0  0  0  0  0  0  0  0  0
    2.8154    1.0361    0.0000 O   0  0  0  0  0  0  0  0  0  0  0  0
    9.5637    1.7250    0.0000 O   0  0  0  0  0  0  0  0  0  0  0  0
    7.7381    0.6820    0.0000 N   0  0  0  0  0  0  0  0  0  0  0  0
    7.7381   -1.3873    0.0000 N   0  0  0  0  0  0  0  0  0  0  0  0
    9.5753   -1.4304    0.0000 N   0  0  0  0  0  0  0  0  0  0  0  0
   10.5191    0.1899    0.0000 N   0  0  0  0  0  0  0  0  0  0  0  0
   11.3832   -1.3985    0.0000 N   0  0  0  0  0  0  0  0  0  0  0  0
    6.8441    0.1474    0.0000 C   0  0  1  0  0  0  0  0  0  0  0  0
    5.9781    0.6474    0.0000 C   0  0  0  0  0  0  0  0  0  0  0  0
    5.1121    0.1474    0.0000 C   0  0  2  0  0  0  0  0  0  0  0  0
    5.1121   -0.8526    0.0000 C   0  0  1  0  0  0  0  0  0  0  0  0
    6.8441   -0.8526    0.0000 C   0  0  1  0  0  0  0  0  0  0  0  0
    4.2181   -1.3873    0.0000 C   0  0  0  0  0  0  0  0  0  0  0  0
    8.6441    0.1682    0.0000 C   0  0  0  0  0  0  0  0  0  0  0  0
    8.6441   -0.8734    0.0000 C   0  0  0  0  0  0  0  0  0  0  0  0
    9.5753    0.7251    0.0000 C   0  0  0  0  0  0  0  0  0  0  0  0
   10.5191   -0.8951    0.0000 C   0  0  0  0  0  0  0  0  0  0  0  0
    6.8376    0.9973    0.0000 H   0  0  0  0  0  0  0  0  0  0  0  0
    5.1186    0.9973    0.0000 H   0  0  0  0  0  0  0  0  0  0  0  0
    5.1186   -1.7026    0.0000 H   0  0  0  0  0  0  0  0  0  0  0  0
    6.8376   -1.7026    0.0000 H   0  0  0  0  0  0  0  0  0  0  0  0
    7.7309    1.3020    0.0000 H   0  0  0  0  0  0  0  0  0  0  0  0
    3.8245   -1.8663    0.0000 H   0  0  0  0  0  0  0  0  0  0  0  0
    4.6227   -1.8571    0.0000 H   0  0  0  0  0  0  0  0  0  0  0  0
    7.7309   -2.0072    0.0000 H   0  0  0  0  0  0  0  0  0  0  0  0
    4.8581    1.5134    0.0000 H   0  0  0  0  0  0  0  0  0  0  0  0
    6.1681    2.0503    0.0000 H   0  0  0  0  0  0  0  0  0  0  0  0
    9.5681   -2.0503    0.0000 H   0  0  0  0  0  0  0  0  0  0  0  0
    2.0000   -0.3637    0.0000 H   0  0  0  0  0  0  0  0  0  0  0  0
   11.9213   -1.0905    0.0000 H   0  0  0  0  0  0  0  0  0  0  0  0
   11.3808   -2.0185    0.0000 H   0  0  0  0  0  0  0  0  0  0  0  0
  1  3  1  0  0  0  0
  1  6  1  0  0  0  0
  1  7  1  0  0  0  0
  1  8  2  0  0  0  0
  2 18  1  0  0  0  0
  2 19  1  0  0  0  0
  3 17  1  0  0  0  0
  4 16  1  0  0  0  0
  4 33  1  0  0  0  0
  5 16  1  0  0  0  0
  5 34  1  0  0  0  0
  6 20  1  0  0  0  0
  7 36  1  0  0  0  0
  9 23  2  0  0  0  0
 10 15  1  0  0  0  0
 10 21  1  0  0  0  0
 10 29  1  0  0  0  0
 11 19  1  0  0  0  0
 11 22  1  0  0  0  0
 11 32  1  0  0  0  0
 12 22  1  0  0  0  0
 12 24  1  0  0  0  0
 12 35  1  0  0  0  0
 13 23  1  0  0  0  0
 13 24  2  0  0  0  0
 14 24  1  0  0  0  0
 14 37  1  0  0  0  0
 14 38  1  0  0  0  0
 15 16  1  0  0  0  0
 15 19  1  0  0  0  0
 15 25  1  1  0  0  0
 16 17  1  0  0  0  0
 17 18  1  0  0  0  0
 17 26  1  1  0  0  0
 18 20  1  0  0  0  0
 18 27  1  1  0  0  0
 19 28  1  1  0  0  0
 20 30  1  0  0  0  0
 20 31  1  0  0  0  0
 21 22  2  0  0  0  0
 21 23  1  0  0  0  0
M  END
> <PUBCHEM_COMPOUND_CID>
16061579

> <PUBCHEM_COMPOUND_CANONICALIZED>
1

> <PUBCHEM_CACTVS_COMPLEXITY>
722

> <PUBCHEM_CACTVS_HBOND_ACCEPTOR>
10

> <PUBCHEM_CACTVS_HBOND_DONOR>
7

> <PUBCHEM_CACTVS_ROTATABLE_BOND>
0

> <PUBCHEM_CACTVS_SUBSKEYS>
AAADccBzvAIAAAAAAAAAAAAAAAAAAAAAAAAkSIEAAAAAAACQAAAAHgAQCCAACDzhgAYBCALABxCoQAVQdICAAAEAAAABAICIAEGDQAIAgCAfQAAPEAKTAEHwUAMAAAAAAAAAAAAAAAAAAAAAAAAAAAAAAA==

> <PUBCHEM_IUPAC_INCHI>
InChI=1S/C10H14N5O8P/c11-9-14-6-3(7(16)15-9)12-4-8(13-6)22-2-1-21-24(19,20)23-5(2)10(4,17)18/h2,4-5,8,12,17-18H,1H2,(H,19,20)(H4,11,13,14,15,16)/t2-,4-,5+,8-/m1/s1

> <PUBCHEM_IUPAC_INCHIKEY>
CZAKJJUNKNPTTO-AJFJRRQVSA-N

> <PUBCHEM_XLOGP3_AA>
-4

> <PUBCHEM_EXACT_MASS>
363.057999

> <PUBCHEM_MOLECULAR_FORMULA>
C10H14N5O8P

> <PUBCHEM_MOLECULAR_WEIGHT>
363.220622

> <PUBCHEM_OPENEYE_CAN_SMILES>
C1C2C(C(C3C(O2)NC4=C(N3)C(=O)N=C(N4)N)(O)O)OP(=O)(O1)O

> <PUBCHEM_OPENEYE_ISO_SMILES>
C1[C@@H]2[C@@H](C([C@H]3[C@@H](O2)NC4=C(N3)C(=O)N=C(N4)N)(O)O)OP(=O)(O1)O

> <PUBCHEM_CACTVS_TPSA>
197

> <PUBCHEM_MONOISOTOPIC_WEIGHT>
363.057999

> <PUBCHEM_TOTAL_CHARGE>
0

> <PUBCHEM_HEAVY_ATOM_COUNT>
24

> <PUBCHEM_ATOM_DEF_STEREO_COUNT>
4

> <PUBCHEM_ATOM_UDEF_STEREO_COUNT>
0

> <PUBCHEM_BOND_DEF_STEREO_COUNT>
0

> <PUBCHEM_BOND_UDEF_STEREO_COUNT>
0

> <PUBCHEM_ISOTOPIC_ATOM_COUNT>
0

> <PUBCHEM_COMPONENT_COUNT>
1

> <PUBCHEM_CACTVS_TAUTO_COUNT>
17

> <PUBCHEM_COORDINATE_TYPE>
1
5
255

> <PUBCHEM_BONDANNOTATIONS>
12  22  8
12  24  8
13  23  8
13  24  8
15  25  5
17  26  5
18  27  5
19  28  5
21  22  8
21  23  8

$$$$

