234409
  -OEChem-07051213072D

 50 53  0     1  0  0  0  0  0999 V2000
    6.5169   -2.9712    0.0000 Br  0  0  0  0  0  0  0  0  0  0  0  0
    4.7848   -2.9778    0.0000 Br  0  0  0  0  0  0  0  0  0  0  0  0
    8.6500    2.8500    0.0000 O   0  0  0  0  0  0  0  0  0  0  0  0
    2.0000   -1.4576    0.0000 O   0  0  0  0  0  0  0  0  0  0  0  0
    7.3931    0.5947    0.0000 C   0  0  2  0  0  0  0  0  0  0  0  0
    7.3931    1.5947    0.0000 C   0  0  2  0  0  0  0  0  0  0  0  0
    6.5271    0.0947    0.0000 C   0  0  1  0  0  0  0  0  0  0  0  0
    5.6610    0.5947    0.0000 C   0  0  1  0  0  0  0  0  0  0  0  0
    4.7510    0.0879    0.0000 C   0  0  2  0  0  0  0  0  0  0  0  0
    6.5271    2.0947    0.0000 C   0  0  0  0  0  0  0  0  0  0  0  0
    5.6610    1.5947    0.0000 C   0  0  0  0  0  0  0  0  0  0  0  0
    8.3393    1.8995    0.0000 C   0  0  2  0  0  0  0  0  0  0  0  0
    8.3393    0.2900    0.0000 C   0  0  0  0  0  0  0  0  0  0  0  0
    8.9229    1.0947    0.0000 C   0  0  0  0  0  0  0  0  0  0  0  0
    6.5431   -0.9468    0.0000 C   0  0  0  0  0  0  0  0  0  0  0  0
    7.3931    2.5947    0.0000 C   0  0  0  0  0  0  0  0  0  0  0  0
    4.7430   -0.9537    0.0000 C   0  0  0  0  0  0  0  0  0  0  0  0
    3.8242    0.6520    0.0000 C   0  0  0  0  0  0  0  0  0  0  0  0
    5.6451   -1.4745    0.0000 C   0  0  0  0  0  0  0  0  0  0  0  0
    4.7587    1.0879    0.0000 C   0  0  0  0  0  0  0  0  0  0  0  0
    2.8763    0.1240    0.0000 C   0  0  0  0  0  0  0  0  0  0  0  0
    3.8076   -1.5034    0.0000 C   0  0  0  0  0  0  0  0  0  0  0  0
    2.8680   -0.9609    0.0000 C   0  0  0  0  0  0  0  0  0  0  0  0
    5.6489   -2.4745    0.0000 C   0  0  0  0  0  0  0  0  0  0  0  0
    7.4830   -0.2505    0.0000 H   0  0  0  0  0  0  0  0  0  0  0  0
    7.2664   -0.3246    0.0000 H   0  0  0  0  0  0  0  0  0  0  0  0
    6.3972    1.0197    0.0000 H   0  0  0  0  0  0  0  0  0  0  0  0
    6.9256    2.5697    0.0000 H   0  0  0  0  0  0  0  0  0  0  0  0
    6.1285    2.5697    0.0000 H   0  0  0  0  0  0  0  0  0  0  0  0
    5.4490    2.1774    0.0000 H   0  0  0  0  0  0  0  0  0  0  0  0
    5.0504    1.4871    0.0000 H   0  0  0  0  0  0  0  0  0  0  0  0
    7.9018    2.3388    0.0000 H   0  0  0  0  0  0  0  0  0  0  0  0
    8.0883   -0.2769    0.0000 H   0  0  0  0  0  0  0  0  0  0  0  0
    8.8767   -0.0192    0.0000 H   0  0  0  0  0  0  0  0  0  0  0  0
    9.3838    0.6800    0.0000 H   0  0  0  0  0  0  0  0  0  0  0  0
    9.3838    1.5095    0.0000 H   0  0  0  0  0  0  0  0  0  0  0  0
    6.7612   -1.5272    0.0000 H   0  0  0  0  0  0  0  0  0  0  0  0
    7.1523   -0.8313    0.0000 H   0  0  0  0  0  0  0  0  0  0  0  0
    8.0131    2.5947    0.0000 H   0  0  0  0  0  0  0  0  0  0  0  0
    7.3931    3.2147    0.0000 H   0  0  0  0  0  0  0  0  0  0  0  0
    6.7731    2.5947    0.0000 H   0  0  0  0  0  0  0  0  0  0  0  0
    4.2324    1.1186    0.0000 H   0  0  0  0  0  0  0  0  0  0  0  0
    3.4343    1.1340    0.0000 H   0  0  0  0  0  0  0  0  0  0  0  0
    5.3787    1.0831    0.0000 H   0  0  0  0  0  0  0  0  0  0  0  0
    4.7635    1.7078    0.0000 H   0  0  0  0  0  0  0  0  0  0  0  0
    4.1388    1.0926    0.0000 H   0  0  0  0  0  0  0  0  0  0  0  0
    2.6718    0.7093    0.0000 H   0  0  0  0  0  0  0  0  0  0  0  0
    2.2647    0.0226    0.0000 H   0  0  0  0  0  0  0  0  0  0  0  0
    9.2566    2.9778    0.0000 H   0  0  0  0  0  0  0  0  0  0  0  0
    3.8100   -2.1234    0.0000 H   0  0  0  0  0  0  0  0  0  0  0  0
  1 24  1  0  0  0  0
  2 24  1  0  0  0  0
 12  3  1  1  0  0  0
  3 49  1  0  0  0  0
  4 23  2  0  0  0  0
  5  6  1  0  0  0  0
  5  7  1  0  0  0  0
  5 13  1  0  0  0  0
  5 25  1  6  0  0  0
  6 10  1  0  0  0  0
  6 12  1  0  0  0  0
  6 16  1  1  0  0  0
  7  8  1  0  0  0  0
  7 15  1  0  0  0  0
  7 26  1  1  0  0  0
  8  9  1  0  0  0  0
  8 11  1  0  0  0  0
  8 27  1  6  0  0  0
  9 17  1  0  0  0  0
  9 18  1  0  0  0  0
  9 20  1  1  0  0  0
 10 11  1  0  0  0  0
 10 28  1  0  0  0  0
 10 29  1  0  0  0  0
 11 30  1  0  0  0  0
 11 31  1  0  0  0  0
 12 14  1  0  0  0  0
 12 32  1  0  0  0  0
 13 14  1  0  0  0  0
 13 33  1  0  0  0  0
 13 34  1  0  0  0  0
 14 35  1  0  0  0  0
 14 36  1  0  0  0  0
 15 19  1  0  0  0  0
 15 37  1  0  0  0  0
 15 38  1  0  0  0  0
 16 39  1  0  0  0  0
 16 40  1  0  0  0  0
 16 41  1  0  0  0  0
 17 19  1  0  0  0  0
 17 22  2  0  0  0  0
 18 21  1  0  0  0  0
 18 42  1  0  0  0  0
 18 43  1  0  0  0  0
 19 24  2  0  0  0  0
 20 44  1  0  0  0  0
 20 45  1  0  0  0  0
 20 46  1  0  0  0  0
 21 23  1  0  0  0  0
 21 47  1  0  0  0  0
 21 48  1  0  0  0  0
 22 23  1  0  0  0  0
 22 50  1  0  0  0  0
M  END
> <PUBCHEM_COMPOUND_CID>
234409

> <PUBCHEM_COMPOUND_CANONICALIZED>
1

> <PUBCHEM_CACTVS_COMPLEXITY>
648

> <PUBCHEM_CACTVS_HBOND_ACCEPTOR>
2

> <PUBCHEM_CACTVS_HBOND_DONOR>
1

> <PUBCHEM_CACTVS_ROTATABLE_BOND>
0

> <PUBCHEM_CACTVS_SUBSKEYS>
AAADceB4MAAAGAAAAAAAAAAAAAAAAYAAAAAwYIAAAAAAAGDAAAAAGgBACAABDxSggAICAAAAAgCIAqBSAAAAAAAgAAAACAEAAEgIEBIAAAAAQAAEgAAIgQOIyPCPgAAAAAAAAACAAAQAACAAAIAADAAAAA==

> <PUBCHEM_IUPAC_OPENEYE_NAME>
(8R,9S,10R,13S,14S,17S)-6-(dibromomethylene)-17-hydroxy-10,13-dimethyl-2,7,8,9,11,12,14,15,16,17-decahydro-1H-cyclopenta[a]phenanthren-3-one

> <PUBCHEM_IUPAC_CAS_NAME>
(8R,9S,10R,13S,14S,17S)-6-(dibromomethylidene)-17-hydroxy-10,13-dimethyl-2,7,8,9,11,12,14,15,16,17-decahydro-1H-cyclopenta[a]phenanthren-3-one

> <PUBCHEM_IUPAC_NAME>
(8R,9S,10R,13S,14S,17S)-6-(dibromomethylidene)-17-hydroxy-10,13-dimethyl-2,7,8,9,11,12,14,15,16,17-decahydro-1H-cyclopenta[a]phenanthren-3-one

> <PUBCHEM_IUPAC_SYSTEMATIC_NAME>
(8R,9S,10R,13S,14S,17S)-6-[bis(bromanyl)methylidene]-10,13-dimethyl-17-oxidanyl-2,7,8,9,11,12,14,15,16,17-decahydro-1H-cyclopenta[a]phenanthren-3-one

> <PUBCHEM_IUPAC_TRADITIONAL_NAME>
(8R,9S,10R,13S,14S,17S)-6-(dibromomethylene)-17-hydroxy-10,13-dimethyl-2,7,8,9,11,12,14,15,16,17-decahydro-1H-cyclopenta[a]phenanthren-3-one

> <PUBCHEM_IUPAC_INCHI>
InChI=1S/C20H26Br2O2/c1-19-7-5-11(23)9-16(19)13(18(21)22)10-12-14-3-4-17(24)20(14,2)8-6-15(12)19/h9,12,14-15,17,24H,3-8,10H2,1-2H3/t12-,14-,15-,17-,19+,20-/m0/s1

> <PUBCHEM_IUPAC_INCHIKEY>
XDDMZNADWGQPRQ-CERPAYOZSA-N

> <PUBCHEM_XLOGP3>
4.4

> <PUBCHEM_EXACT_MASS>
458.027908

> <PUBCHEM_MOLECULAR_FORMULA>
C20H26Br2O2

> <PUBCHEM_MOLECULAR_WEIGHT>
458.22724

> <PUBCHEM_OPENEYE_CAN_SMILES>
CC12CCC3C(C1CCC2O)CC(=C(Br)Br)C4=CC(=O)CCC34C

> <PUBCHEM_OPENEYE_ISO_SMILES>
C[C@]12CC[C@H]3[C@H]([C@@H]1CC[C@@H]2O)CC(=C(Br)Br)C4=CC(=O)CC[C@]34C

> <PUBCHEM_CACTVS_TPSA>
37.3

> <PUBCHEM_MONOISOTOPIC_WEIGHT>
456.029954

> <PUBCHEM_TOTAL_CHARGE>
0

> <PUBCHEM_HEAVY_ATOM_COUNT>
24

> <PUBCHEM_ATOM_DEF_STEREO_COUNT>
6

> <PUBCHEM_ATOM_UDEF_STEREO_COUNT>
0

> <PUBCHEM_BOND_DEF_STEREO_COUNT>
0

> <PUBCHEM_BOND_UDEF_STEREO_COUNT>
0

> <PUBCHEM_ISOTOPIC_ATOM_COUNT>
0

> <PUBCHEM_COMPONENT_COUNT>
1

> <PUBCHEM_CACTVS_TAUTO_COUNT>
2

> <PUBCHEM_COORDINATE_TYPE>
1
5
255

> <PUBCHEM_BONDANNOTATIONS>
12  3  5
5  25  6
6  16  5
7  26  5
8  27  6
9  20  5

$$$$

