   Color/Form
        Plates, needles from alcohol
   from [1]HSDB

   Odor
        Sweet, musky odor [Tas JW et al; Chemosphere 35: 2973-3002 (1997)]
   [2]PubMed Abstract
   from [3]HSDB

   Melting Point
        110 deg C
   from [4]HSDB

   Octanol/Water Partition Coefficient
        log Kow = 4.4
   from [5]HSDB

   Solubilities

     * Slightly soluble in ethanol; soluble in ethyl ether, chloroform
     * In water, 0.15 mg/L at temp. unspecified
     * In water, 0.472 mg/L at 25 deg C (est)

   from [6]HSDB

   Spectral Properties

     * MASS: 71265 (NIST/EPA/MSDC Mass Spectral Database, 1990 version);
       1014 (Atlas of Mass Spectral Data, John Wiley & Sons, New York)
     * IR: 2871 (Coblentz Society spectral collection)
     * UV: 422 (Sadtler Research Laboratories spectral collection)
     * Raman: 1143 (Sadtler Research Laboratories spectral collection)
     * 1H NMR: 6497 (Sadtler Research Laboratories spectral collection)

   from [7]HSDB

   Vapor Pressure
        6.35X10-7 mm Hg at 25 deg C (est)
   from [8]HSDB

   Viscosity
        Henry's Law constant = 7.73X10-9 atm-cu m/mol at 25 deg C (est)
   from [9]HSDB

   Other Chemical/Physical Properties
        Hydroxyl radical reaction rate constant = 8.31X10-13 cu
   cm/molec-sec at 25 deg C (est)
   from [10]HSDB

   Computed Properties
   Molecular Weight                  297.264 [g/mol]
   Molecular Formula                 C[12]H[15]N[3]O[6]
   XLogP3-AA                         3.8
   H-Bond Donor                      0
   H-Bond Acceptor                   6
   Rotatable Bond Count              1
   Exact Mass                        297.096085
   MonoIsotopic Mass                 297.096085
   Topological Polar Surface Area    138
   Heavy Atom Count                  21
   Formal Charge                     0
   Complexity                        416
   Isotope Atom Count                0
   Defined Atom Stereocenter Count   0
   Undefined Atom Stereocenter Count 0
   Defined Bond Stereocenter Count   0
   Undefined Bond Stereocenter Count 0
   Covalently-Bonded Unit Count      1
   Feature 3D Acceptor Count         6
   Feature 3D Anion Count            3
   Feature 3D Hydrophobe Count       1
   Feature 3D Ring Count             1
   Effective Rotor Count             4
   Conformer Sampling RMSD           0.6
   CID Conformer Count               [11]1

References

   1. http://toxnet.nlm.nih.gov/cgi-bin/sis/search/r?dbs+hsdb:@term+@rn+@rel+81-15-2
   2. http://www.ncbi.nlm.nih.gov/entrez/query.fcgi?cmd=Retrieve&db=pubmed&dopt=Abstract&list_uids=9415982
   3. http://toxnet.nlm.nih.gov/cgi-bin/sis/search/r?dbs+hsdb:@term+@rn+@rel+81-15-2
   4. http://toxnet.nlm.nih.gov/cgi-bin/sis/search/r?dbs+hsdb:@term+@rn+@rel+81-15-2
   5. http://toxnet.nlm.nih.gov/cgi-bin/sis/search/r?dbs+hsdb:@term+@rn+@rel+81-15-2
   6. http://toxnet.nlm.nih.gov/cgi-bin/sis/search/r?dbs+hsdb:@term+@rn+@rel+81-15-2
   7. http://toxnet.nlm.nih.gov/cgi-bin/sis/search/r?dbs+hsdb:@term+@rn+@rel+81-15-2
   8. http://toxnet.nlm.nih.gov/cgi-bin/sis/search/r?dbs+hsdb:@term+@rn+@rel+81-15-2
   9. http://toxnet.nlm.nih.gov/cgi-bin/sis/search/r?dbs+hsdb:@term+@rn+@rel+81-15-2
  10. http://toxnet.nlm.nih.gov/cgi-bin/sis/search/r?dbs+hsdb:@term+@rn+@rel+81-15-2
  11. http://pubchem.ncbi.nlm.nih.gov/vw3d/vw3d.cgi?cid=62329
