46174040
  -OEChem-07051213112D

 66 68  0     1  0  0  0  0  0999 V2000
    7.9844   -1.8559    0.0000 P   0  0  3  0  0  0  0  0  0  0  0  0
    6.4021   -1.1514    0.0000 P   0  0  3  0  0  0  0  0  0  0  0  0
    4.5411    1.3132    0.0000 O   0  0  0  0  0  0  0  0  0  0  0  0
    9.1600   -3.4739    0.0000 O   0  0  0  0  0  0  0  0  0  0  0  0
    8.9790   -1.7514    0.0000 O   0  0  0  0  0  0  0  0  0  0  0  0
    2.6443   -0.4469    0.0000 O   0  0  0  0  0  0  0  0  0  0  0  0
    5.8144   -0.3424    0.0000 O   0  0  0  0  0  0  0  0  0  0  0  0
    6.9899   -1.9604    0.0000 O   0  0  0  0  0  0  0  0  0  0  0  0
    8.0890   -2.8504    0.0000 O   0  0  0  0  0  0  0  0  0  0  0  0
    2.0000    2.9010    0.0000 O   0  0  0  0  0  0  0  0  0  0  0  0
    7.2112   -0.5636    0.0000 O   0  0  0  0  0  0  0  0  0  0  0  0
    7.8799   -0.8614    0.0000 O   0  0  0  0  0  0  0  0  0  0  0  0
    5.5931   -1.7392    0.0000 O   0  0  0  0  0  0  0  0  0  0  0  0
    3.7320    5.9010    0.0000 O   0  0  0  0  0  0  0  0  0  0  0  0
   11.3301   -4.9874    0.0000 N   0  0  0  0  0  0  0  0  0  0  0  0
    3.7320    2.9010    0.0000 N   0  0  0  0  0  0  0  0  0  0  0  0
    2.8660    4.4010    0.0000 N   0  0  0  0  0  0  0  0  0  0  0  0
   10.7423   -4.1784    0.0000 C   0  0  2  0  0  0  0  0  0  0  0  0
    9.7478   -4.2829    0.0000 C   0  0  1  0  0  0  0  0  0  0  0  0
   11.1491   -3.2648    0.0000 C   0  0  0  0  0  0  0  0  0  0  0  0
    3.2320    0.3621    0.0000 C   0  0  2  0  0  0  0  0  0  0  0  0
    4.2320    0.3621    0.0000 C   0  0  1  0  0  0  0  0  0  0  0  0
    2.9230    1.3132    0.0000 C   0  0  0  0  0  0  0  0  0  0  0  0
    3.7320    1.9010    0.0000 C   0  0  1  0  0  0  0  0  0  0  0  0
   10.5613   -2.4558    0.0000 C   0  0  0  0  0  0  0  0  0  0  0  0
    9.5668   -2.5604    0.0000 C   0  0  2  0  0  0  0  0  0  0  0  0
    4.8198   -0.4469    0.0000 C   0  0  0  0  0  0  0  0  0  0  0  0
    9.3411   -5.1965    0.0000 C   0  0  0  0  0  0  0  0  0  0  0  0
   12.3246   -4.8829    0.0000 C   0  0  0  0  0  0  0  0  0  0  0  0
   10.9234   -5.9010    0.0000 C   0  0  0  0  0  0  0  0  0  0  0  0
    4.5981    3.4010    0.0000 C   0  0  0  0  0  0  0  0  0  0  0  0
    2.8660    3.4010    0.0000 C   0  0  0  0  0  0  0  0  0  0  0  0
    4.5981    4.4010    0.0000 C   0  0  0  0  0  0  0  0  0  0  0  0
    3.7320    4.9010    0.0000 C   0  0  0  0  0  0  0  0  0  0  0  0
    5.4641    4.9010    0.0000 C   0  0  0  0  0  0  0  0  0  0  0  0
   10.4902   -4.7448    0.0000 H   0  0  0  0  0  0  0  0  0  0  0  0
    9.1312   -4.3477    0.0000 H   0  0  0  0  0  0  0  0  0  0  0  0
   11.6631   -3.6116    0.0000 H   0  0  0  0  0  0  0  0  0  0  0  0
   11.5798   -2.8189    0.0000 H   0  0  0  0  0  0  0  0  0  0  0  0
    3.5135   -0.1903    0.0000 H   0  0  0  0  0  0  0  0  0  0  0  0
    4.8444    0.4591    0.0000 H   0  0  0  0  0  0  0  0  0  0  0  0
    2.6130    1.8501    0.0000 H   0  0  0  0  0  0  0  0  0  0  0  0
    2.3566    1.0610    0.0000 H   0  0  0  0  0  0  0  0  0  0  0  0
    4.2845    2.1824    0.0000 H   0  0  0  0  0  0  0  0  0  0  0  0
   11.1185   -2.1840    0.0000 H   0  0  0  0  0  0  0  0  0  0  0  0
   10.3904   -1.8598    0.0000 H   0  0  0  0  0  0  0  0  0  0  0  0
    8.9502   -2.6252    0.0000 H   0  0  0  0  0  0  0  0  0  0  0  0
    4.2626   -0.7187    0.0000 H   0  0  0  0  0  0  0  0  0  0  0  0
    4.9907   -1.0429    0.0000 H   0  0  0  0  0  0  0  0  0  0  0  0
    8.7747   -4.9443    0.0000 H   0  0  0  0  0  0  0  0  0  0  0  0
    9.0889   -5.7629    0.0000 H   0  0  0  0  0  0  0  0  0  0  0  0
    9.9075   -5.4486    0.0000 H   0  0  0  0  0  0  0  0  0  0  0  0
   10.3570   -5.6488    0.0000 H   0  0  0  0  0  0  0  0  0  0  0  0
   10.6712   -6.4674    0.0000 H   0  0  0  0  0  0  0  0  0  0  0  0
   11.4898   -6.1531    0.0000 H   0  0  0  0  0  0  0  0  0  0  0  0
   12.3894   -5.4995    0.0000 H   0  0  0  0  0  0  0  0  0  0  0  0
   12.9412   -4.8181    0.0000 H   0  0  0  0  0  0  0  0  0  0  0  0
   12.2598   -4.2663    0.0000 H   0  0  0  0  0  0  0  0  0  0  0  0
    2.0277   -0.3821    0.0000 H   0  0  0  0  0  0  0  0  0  0  0  0
    5.1350    3.0910    0.0000 H   0  0  0  0  0  0  0  0  0  0  0  0
    2.3291    4.7110    0.0000 H   0  0  0  0  0  0  0  0  0  0  0  0
    5.7741    4.3640    0.0000 H   0  0  0  0  0  0  0  0  0  0  0  0
    6.0010    5.2110    0.0000 H   0  0  0  0  0  0  0  0  0  0  0  0
    5.1541    5.4379    0.0000 H   0  0  0  0  0  0  0  0  0  0  0  0
    7.5874   -3.2148    0.0000 H   0  0  0  0  0  0  0  0  0  0  0  0
    7.1464    0.0530    0.0000 H   0  0  0  0  0  0  0  0  0  0  0  0
  1  5  1  0  0  0  0
  1  8  1  0  0  0  0
  1  9  1  0  0  0  0
  1 12  2  0  0  0  0
  2  7  1  0  0  0  0
  2  8  1  0  0  0  0
  2 11  1  0  0  0  0
  2 13  2  0  0  0  0
  3 22  1  0  0  0  0
  3 24  1  0  0  0  0
  4 19  1  0  0  0  0
  4 26  1  0  0  0  0
 26  5  1  6  0  0  0
 21  6  1  1  0  0  0
  6 59  1  0  0  0  0
  7 27  1  0  0  0  0
  9 65  1  0  0  0  0
 10 32  2  0  0  0  0
 11 66  1  0  0  0  0
 14 34  2  0  0  0  0
 18 15  1  6  0  0  0
 15 29  1  0  0  0  0
 15 30  1  0  0  0  0
 24 16  1  6  0  0  0
 16 31  1  0  0  0  0
 16 32  1  0  0  0  0
 17 32  1  0  0  0  0
 17 34  1  0  0  0  0
 17 61  1  0  0  0  0
 18 19  1  0  0  0  0
 18 20  1  0  0  0  0
 18 36  1  0  0  0  0
 19 28  1  1  0  0  0
 19 37  1  0  0  0  0
 20 25  1  0  0  0  0
 20 38  1  0  0  0  0
 20 39  1  0  0  0  0
 21 22  1  0  0  0  0
 21 23  1  0  0  0  0
 21 40  1  0  0  0  0
 22 27  1  6  0  0  0
 22 41  1  0  0  0  0
 23 24  1  0  0  0  0
 23 42  1  0  0  0  0
 23 43  1  0  0  0  0
 24 44  1  0  0  0  0
 25 26  1  0  0  0  0
 25 45  1  0  0  0  0
 25 46  1  0  0  0  0
 26 47  1  0  0  0  0
 27 48  1  0  0  0  0
 27 49  1  0  0  0  0
 28 50  1  0  0  0  0
 28 51  1  0  0  0  0
 28 52  1  0  0  0  0
 29 56  1  0  0  0  0
 29 57  1  0  0  0  0
 29 58  1  0  0  0  0
 30 53  1  0  0  0  0
 30 54  1  0  0  0  0
 30 55  1  0  0  0  0
 31 33  2  0  0  0  0
 31 60  1  0  0  0  0
 33 34  1  0  0  0  0
 33 35  1  0  0  0  0
 35 62  1  0  0  0  0
 35 63  1  0  0  0  0
 35 64  1  0  0  0  0
M  END
> <PUBCHEM_COMPOUND_CID>
46174040

> <PUBCHEM_COMPOUND_CANONICALIZED>
1

> <PUBCHEM_CACTVS_COMPLEXITY>
946

> <PUBCHEM_CACTVS_HBOND_ACCEPTOR>
13

> <PUBCHEM_CACTVS_HBOND_DONOR>
4

> <PUBCHEM_CACTVS_ROTATABLE_BOND>
9

> <PUBCHEM_CACTVS_SUBSKEYS>
AAADceB7PAMAAAAAAAAAAAAAAAAAASAAAAAkQAAAAAAAAAAAAAAAHgAQCCAADDzxgAcDCAPABxCIQgFWUICAAAAAAAAAAAEIAECTEAIAgQAPQAAPByIXAMGwcAYAAAAAAAAAAAAAAAAAAAAAAAAAAAAAAA==

> <PUBCHEM_IUPAC_OPENEYE_NAME>
[(2R,5S,6R)-5-(dimethylamino)-6-methyl-tetrahydropyran-2-yl] [hydroxy-[[(2R,3S,5R)-3-hydroxy-5-(5-methyl-2,4-dioxo-pyrimidin-1-yl)tetrahydrofuran-2-yl]methoxy]phosphoryl] hydrogen phosphate

> <PUBCHEM_IUPAC_CAS_NAME>
[(2R,5S,6R)-5-(dimethylamino)-6-methyl-2-oxanyl] [hydroxy-[[(2R,3S,5R)-3-hydroxy-5-(5-methyl-2,4-dioxo-1-pyrimidinyl)-2-oxolanyl]methoxy]phosphoryl] hydrogen phosphate

> <PUBCHEM_IUPAC_NAME>
[(2R,5S,6R)-5-(dimethylamino)-6-methyloxan-2-yl] [hydroxy-[[(2R,3S,5R)-3-hydroxy-5-(5-methyl-2,4-dioxopyrimidin-1-yl)oxolan-2-yl]methoxy]phosphoryl] hydrogen phosphate

> <PUBCHEM_IUPAC_SYSTEMATIC_NAME>
[(2R,5S,6R)-5-(dimethylamino)-6-methyl-oxan-2-yl] [[(2R,3S,5R)-5-[5-methyl-2,4-bis(oxidanylidene)pyrimidin-1-yl]-3-oxidanyl-oxolan-2-yl]methoxy-oxidanyl-phosphoryl] hydrogen phosphate

> <PUBCHEM_IUPAC_TRADITIONAL_NAME>
[[(2R,3S,5R)-5-(2,4-diketo-5-methyl-pyrimidin-1-yl)-3-hydroxy-tetrahydrofuran-2-yl]methoxy-hydroxy-phosphoryl] [(2R,5S,6R)-5-(dimethylamino)-6-methyl-tetrahydropyran-2-yl] hydrogen phosphate

> <PUBCHEM_IUPAC_INCHI>
InChI=1S/C18H31N3O12P2/c1-10-8-21(18(24)19-17(10)23)15-7-13(22)14(31-15)9-29-34(25,26)33-35(27,28)32-16-6-5-12(20(3)4)11(2)30-16/h8,11-16,22H,5-7,9H2,1-4H3,(H,25,26)(H,27,28)(H,19,23,24)/t11-,12+,13+,14-,15-,16-/m1/s1

> <PUBCHEM_IUPAC_INCHIKEY>
XZDZLDKUTVVABQ-HIFUNWJGSA-N

> <PUBCHEM_XLOGP3_AA>
-4.4

> <PUBCHEM_EXACT_MASS>
543.138297

> <PUBCHEM_MOLECULAR_FORMULA>
C18H31N3O12P2

> <PUBCHEM_MOLECULAR_WEIGHT>
543.399164

> <PUBCHEM_OPENEYE_CAN_SMILES>
CC1C(CCC(O1)OP(=O)(O)OP(=O)(O)OCC2C(CC(O2)N3C=C(C(=O)NC3=O)C)O)N(C)C

> <PUBCHEM_OPENEYE_ISO_SMILES>
C[C@@H]1[C@H](CC[C@H](O1)OP(=O)(O)OP(=O)(O)OC[C@@H]2[C@H](C[C@@H](O2)N3C=C(C(=O)NC3=O)C)O)N(C)C

> <PUBCHEM_CACTVS_TPSA>
194

> <PUBCHEM_MONOISOTOPIC_WEIGHT>
543.138297

> <PUBCHEM_TOTAL_CHARGE>
0

> <PUBCHEM_HEAVY_ATOM_COUNT>
35

> <PUBCHEM_ATOM_DEF_STEREO_COUNT>
6

> <PUBCHEM_ATOM_UDEF_STEREO_COUNT>
0

> <PUBCHEM_BOND_DEF_STEREO_COUNT>
0

> <PUBCHEM_BOND_UDEF_STEREO_COUNT>
0

> <PUBCHEM_ISOTOPIC_ATOM_COUNT>
0

> <PUBCHEM_COMPONENT_COUNT>
1

> <PUBCHEM_CACTVS_TAUTO_COUNT>
3

> <PUBCHEM_COORDINATE_TYPE>
1
5
255

> <PUBCHEM_BONDANNOTATIONS>
18  15  6
24  16  6
16  31  8
16  32  8
17  32  8
17  34  8
19  28  5
22  27  6
31  33  8
33  34  8
26  5  6
21  6  5

$$$$

