25245907
  -OEChem-07051213152D

 84 86  0     1  0  0  0  0  0999 V2000
   12.5994    4.6289    0.0000 O   0  0  0  0  0  0  0  0  0  0  0  0
    6.8740    0.6392    0.0000 O   0  0  0  0  0  0  0  0  0  0  0  0
    9.0814    2.5838    0.0000 C   0  0  2  0  0  0  0  0  0  0  0  0
    9.9474    3.0838    0.0000 C   0  0  2  0  0  0  0  0  0  0  0  0
    9.0814    1.5838    0.0000 C   0  0  2  0  0  0  0  0  0  0  0  0
   10.8134    2.5838    0.0000 C   0  0  2  0  0  0  0  0  0  0  0  0
    8.1352    1.2791    0.0000 C   0  0  1  0  0  0  0  0  0  0  0  0
    9.9474    1.0838    0.0000 C   0  0  0  0  0  0  0  0  0  0  0  0
    8.1352    2.8886    0.0000 C   0  0  0  0  0  0  0  0  0  0  0  0
   11.7235    3.0907    0.0000 C   0  0  0  0  0  0  0  0  0  0  0  0
   10.8134    1.5838    0.0000 C   0  0  0  0  0  0  0  0  0  0  0  0
    7.5516    2.0838    0.0000 C   0  0  0  0  0  0  0  0  0  0  0  0
    9.9314    4.1253    0.0000 C   0  0  0  0  0  0  0  0  0  0  0  0
   11.7315    4.1323    0.0000 C   0  0  2  0  0  0  0  0  0  0  0  0
    7.8245    0.3286    0.0000 C   0  0  1  0  0  0  0  0  0  0  0  0
    9.0814    3.5838    0.0000 C   0  0  0  0  0  0  0  0  0  0  0  0
    9.0814    0.5838    0.0000 C   0  0  0  0  0  0  0  0  0  0  0  0
   10.8294    4.6531    0.0000 C   0  0  0  0  0  0  0  0  0  0  0  0
   12.7234    3.0791    0.0000 C   0  0  0  0  0  0  0  0  0  0  0  0
   12.2134    2.2189    0.0000 C   0  0  0  0  0  0  0  0  0  0  0  0
    7.5138   -0.6220    0.0000 C   0  0  0  0  0  0  0  0  0  0  0  0
    8.7750    0.0179    0.0000 C   0  0  0  0  0  0  0  0  0  0  0  0
    6.5354   -0.8282    0.0000 C   0  0  0  0  0  0  0  0  0  0  0  0
    6.2247   -1.7787    0.0000 C   0  0  0  0  0  0  0  0  0  0  0  0
    5.2462   -1.9849    0.0000 C   0  0  0  0  0  0  0  0  0  0  0  0
    4.9355   -2.9354    0.0000 C   0  0  0  0  0  0  0  0  0  0  0  0
    4.5783   -1.2406    0.0000 C   0  0  0  0  0  0  0  0  0  0  0  0
    3.9570   -3.1416    0.0000 C   0  0  0  0  0  0  0  0  0  0  0  0
    3.6464   -4.0922    0.0000 C   0  0  0  0  0  0  0  0  0  0  0  0
    2.6678   -4.2984    0.0000 C   0  0  0  0  0  0  0  0  0  0  0  0
    2.3572   -5.2489    0.0000 C   0  0  0  0  0  0  0  0  0  0  0  0
    2.0000   -3.5541    0.0000 C   0  0  0  0  0  0  0  0  0  0  0  0
    8.9914    3.4290    0.0000 H   0  0  0  0  0  0  0  0  0  0  0  0
   11.5463    2.1532    0.0000 H   0  0  0  0  0  0  0  0  0  0  0  0
    7.2955    1.1472    0.0000 H   0  0  0  0  0  0  0  0  0  0  0  0
    9.5489    0.6089    0.0000 H   0  0  0  0  0  0  0  0  0  0  0  0
   10.3460    0.6089    0.0000 H   0  0  0  0  0  0  0  0  0  0  0  0
    8.3862    3.4554    0.0000 H   0  0  0  0  0  0  0  0  0  0  0  0
    7.5978    3.1978    0.0000 H   0  0  0  0  0  0  0  0  0  0  0  0
   11.0255    1.0012    0.0000 H   0  0  0  0  0  0  0  0  0  0  0  0
   11.4240    1.6915    0.0000 H   0  0  0  0  0  0  0  0  0  0  0  0
    7.0907    2.4985    0.0000 H   0  0  0  0  0  0  0  0  0  0  0  0
    7.0907    1.6691    0.0000 H   0  0  0  0  0  0  0  0  0  0  0  0
    9.7133    4.7057    0.0000 H   0  0  0  0  0  0  0  0  0  0  0  0
    9.3222    4.0098    0.0000 H   0  0  0  0  0  0  0  0  0  0  0  0
   11.7327    4.7523    0.0000 H   0  0  0  0  0  0  0  0  0  0  0  0
    9.3914    4.1208    0.0000 H   0  0  0  0  0  0  0  0  0  0  0  0
    8.5445    3.8938    0.0000 H   0  0  0  0  0  0  0  0  0  0  0  0
    8.7714    3.0469    0.0000 H   0  0  0  0  0  0  0  0  0  0  0  0
    8.4614    0.5838    0.0000 H   0  0  0  0  0  0  0  0  0  0  0  0
    9.0814   -0.0362    0.0000 H   0  0  0  0  0  0  0  0  0  0  0  0
    9.7014    0.5838    0.0000 H   0  0  0  0  0  0  0  0  0  0  0  0
   11.2267    5.1290    0.0000 H   0  0  0  0  0  0  0  0  0  0  0  0
   10.4284    5.1260    0.0000 H   0  0  0  0  0  0  0  0  0  0  0  0
   12.7162    2.4591    0.0000 H   0  0  0  0  0  0  0  0  0  0  0  0
   11.6729    1.9151    0.0000 H   0  0  0  0  0  0  0  0  0  0  0  0
   12.5172    1.6784    0.0000 H   0  0  0  0  0  0  0  0  0  0  0  0
   12.7539    2.5227    0.0000 H   0  0  0  0  0  0  0  0  0  0  0  0
   13.3433    3.0719    0.0000 H   0  0  0  0  0  0  0  0  0  0  0  0
   12.7306    3.6991    0.0000 H   0  0  0  0  0  0  0  0  0  0  0  0
    7.5344   -1.2416    0.0000 H   0  0  0  0  0  0  0  0  0  0  0  0
    8.1277   -0.7093    0.0000 H   0  0  0  0  0  0  0  0  0  0  0  0
    8.5824   -0.5714    0.0000 H   0  0  0  0  0  0  0  0  0  0  0  0
    9.3644   -0.1747    0.0000 H   0  0  0  0  0  0  0  0  0  0  0  0
    8.9677    0.6072    0.0000 H   0  0  0  0  0  0  0  0  0  0  0  0
   12.6018    5.2489    0.0000 H   0  0  0  0  0  0  0  0  0  0  0  0
    6.4125    0.2252    0.0000 H   0  0  0  0  0  0  0  0  0  0  0  0
    6.5148   -0.2085    0.0000 H   0  0  0  0  0  0  0  0  0  0  0  0
    5.9215   -0.7408    0.0000 H   0  0  0  0  0  0  0  0  0  0  0  0
    6.6388   -2.2402    0.0000 H   0  0  0  0  0  0  0  0  0  0  0  0
    4.9561   -3.5551    0.0000 H   0  0  0  0  0  0  0  0  0  0  0  0
    5.5493   -3.0228    0.0000 H   0  0  0  0  0  0  0  0  0  0  0  0
    5.0398   -0.8266    0.0000 H   0  0  0  0  0  0  0  0  0  0  0  0
    4.1643   -0.7791    0.0000 H   0  0  0  0  0  0  0  0  0  0  0  0
    4.1169   -1.6547    0.0000 H   0  0  0  0  0  0  0  0  0  0  0  0
    3.9364   -2.5220    0.0000 H   0  0  0  0  0  0  0  0  0  0  0  0
    3.3432   -3.0543    0.0000 H   0  0  0  0  0  0  0  0  0  0  0  0
    4.0604   -4.5536    0.0000 H   0  0  0  0  0  0  0  0  0  0  0  0
    1.7679   -5.0563    0.0000 H   0  0  0  0  0  0  0  0  0  0  0  0
    2.1646   -5.8382    0.0000 H   0  0  0  0  0  0  0  0  0  0  0  0
    2.9465   -5.4415    0.0000 H   0  0  0  0  0  0  0  0  0  0  0  0
    2.4615   -3.1400    0.0000 H   0  0  0  0  0  0  0  0  0  0  0  0
    1.5859   -3.0926    0.0000 H   0  0  0  0  0  0  0  0  0  0  0  0
    1.5385   -3.9682    0.0000 H   0  0  0  0  0  0  0  0  0  0  0  0
 14  1  1  6  0  0  0
  1 66  1  0  0  0  0
 15  2  1  6  0  0  0
  2 67  1  0  0  0  0
  3  4  1  0  0  0  0
  3  5  1  0  0  0  0
  3  9  1  0  0  0  0
  3 33  1  1  0  0  0
  4  6  1  0  0  0  0
  4 13  1  0  0  0  0
  4 16  1  6  0  0  0
  5  7  1  0  0  0  0
  5  8  1  0  0  0  0
  5 17  1  6  0  0  0
  6 10  1  0  0  0  0
  6 11  1  0  0  0  0
  6 34  1  1  0  0  0
  7 12  1  0  0  0  0
  7 15  1  0  0  0  0
  7 35  1  1  0  0  0
  8 11  1  0  0  0  0
  8 36  1  0  0  0  0
  8 37  1  0  0  0  0
  9 12  1  0  0  0  0
  9 38  1  0  0  0  0
  9 39  1  0  0  0  0
 10 14  1  0  0  0  0
 10 19  1  0  0  0  0
 10 20  1  0  0  0  0
 11 40  1  0  0  0  0
 11 41  1  0  0  0  0
 12 42  1  0  0  0  0
 12 43  1  0  0  0  0
 13 18  1  0  0  0  0
 13 44  1  0  0  0  0
 13 45  1  0  0  0  0
 14 18  1  0  0  0  0
 14 46  1  0  0  0  0
 15 21  1  0  0  0  0
 15 22  1  0  0  0  0
 16 47  1  0  0  0  0
 16 48  1  0  0  0  0
 16 49  1  0  0  0  0
 17 50  1  0  0  0  0
 17 51  1  0  0  0  0
 17 52  1  0  0  0  0
 18 53  1  0  0  0  0
 18 54  1  0  0  0  0
 19 55  1  0  0  0  0
 19 59  1  0  0  0  0
 19 60  1  0  0  0  0
 20 56  1  0  0  0  0
 20 57  1  0  0  0  0
 20 58  1  0  0  0  0
 21 23  1  0  0  0  0
 21 61  1  0  0  0  0
 21 62  1  0  0  0  0
 22 63  1  0  0  0  0
 22 64  1  0  0  0  0
 22 65  1  0  0  0  0
 23 24  1  0  0  0  0
 23 68  1  0  0  0  0
 23 69  1  0  0  0  0
 24 25  2  0  0  0  0
 24 70  1  0  0  0  0
 25 26  1  0  0  0  0
 25 27  1  0  0  0  0
 26 28  1  0  0  0  0
 26 71  1  0  0  0  0
 26 72  1  0  0  0  0
 27 73  1  0  0  0  0
 27 74  1  0  0  0  0
 27 75  1  0  0  0  0
 28 29  1  0  0  0  0
 28 76  1  0  0  0  0
 28 77  1  0  0  0  0
 29 30  2  0  0  0  0
 29 78  1  0  0  0  0
 30 31  1  0  0  0  0
 30 32  1  0  0  0  0
 31 79  1  0  0  0  0
 31 80  1  0  0  0  0
 31 81  1  0  0  0  0
 32 82  1  0  0  0  0
 32 83  1  0  0  0  0
 32 84  1  0  0  0  0
M  END
> <PUBCHEM_COMPOUND_CID>
25245907

> <PUBCHEM_COMPOUND_CANONICALIZED>
1

> <PUBCHEM_CACTVS_COMPLEXITY>
729

> <PUBCHEM_CACTVS_HBOND_ACCEPTOR>
2

> <PUBCHEM_CACTVS_HBOND_DONOR>
2

> <PUBCHEM_CACTVS_ROTATABLE_BOND>
7

> <PUBCHEM_CACTVS_SUBSKEYS>
AAADcfB4MAAAAAAAAAAAAAAAAAAAAYAAAAAwYAAAAAAAAGDAAAAAGgAACAAAD1SggAICAAAAAgCAAiBCAAAAAAAgAAAACAAAAAgAEAIAAQAAQAAEgAAIAAOAwPAPgAAAAAAAAADAAAYAADAAAQAACAAAAA==

> <PUBCHEM_IUPAC_OPENEYE_NAME>
(3R,3aR,5aR,7S,9aR,9bR)-3-[(1R,4E)-1-hydroxy-1,5,9-trimethyl-deca-4,8-dienyl]-3a,6,6,9a-tetramethyl-1,2,3,4,5,5a,7,8,9,9b-decahydrocyclopenta[a]naphthalen-7-ol

> <PUBCHEM_IUPAC_CAS_NAME>
(3R,3aR,5aR,7S,9aR,9bR)-3-[(2R,5E)-2-hydroxy-6,10-dimethylundeca-5,9-dien-2-yl]-3a,6,6,9a-tetramethyl-1,2,3,4,5,5a,7,8,9,9b-decahydrocyclopenta[a]naphthalen-7-ol

> <PUBCHEM_IUPAC_NAME>
(3R,3aR,5aR,7S,9aR,9bR)-3-[(2R,5E)-2-hydroxy-6,10-dimethylundeca-5,9-dien-2-yl]-3a,6,6,9a-tetramethyl-1,2,3,4,5,5a,7,8,9,9b-decahydrocyclopenta[a]naphthalen-7-ol

> <PUBCHEM_IUPAC_SYSTEMATIC_NAME>
(3R,3aR,5aR,7S,9aR,9bR)-3-[(2R,5E)-6,10-dimethyl-2-oxidanyl-undeca-5,9-dien-2-yl]-3a,6,6,9a-tetramethyl-1,2,3,4,5,5a,7,8,9,9b-decahydrocyclopenta[a]naphthalen-7-ol

> <PUBCHEM_IUPAC_TRADITIONAL_NAME>
(3R,3aR,5aR,7S,9aR,9bR)-3-[(1R,4E)-1-hydroxy-1,5,9-trimethyl-deca-4,8-dienyl]-3a,6,6,9a-tetramethyl-1,2,3,4,5,5a,7,8,9,9b-decahydrobenz[e]inden-7-ol

> <PUBCHEM_IUPAC_INCHI>
InChI=1S/C30H52O2/c1-21(2)11-9-12-22(3)13-10-18-30(8,32)25-15-14-24-28(6)20-17-26(31)27(4,5)23(28)16-19-29(24,25)7/h11,13,23-26,31-32H,9-10,12,14-20H2,1-8H3/b22-13+/t23-,24+,25+,26-,28-,29+,30+/m0/s1

> <PUBCHEM_IUPAC_INCHIKEY>
KCSCTOANDBOIGV-ZFAZNOKVSA-N

> <PUBCHEM_XLOGP3_AA>
8.6

> <PUBCHEM_EXACT_MASS>
444.396731

> <PUBCHEM_MOLECULAR_FORMULA>
C30H52O2

> <PUBCHEM_MOLECULAR_WEIGHT>
444.73268

> <PUBCHEM_OPENEYE_CAN_SMILES>
CC(=CCCC(=CCCC(C)(C1CCC2C1(CCC3C2(CCC(C3(C)C)O)C)C)O)C)C

> <PUBCHEM_OPENEYE_ISO_SMILES>
CC(=CCC/C(=C/CC[C@](C)([C@@H]1CC[C@H]2[C@]1(CC[C@@H]3[C@@]2(CC[C@@H](C3(C)C)O)C)C)O)/C)C

> <PUBCHEM_CACTVS_TPSA>
40.5

> <PUBCHEM_MONOISOTOPIC_WEIGHT>
444.396731

> <PUBCHEM_TOTAL_CHARGE>
0

> <PUBCHEM_HEAVY_ATOM_COUNT>
32

> <PUBCHEM_ATOM_DEF_STEREO_COUNT>
7

> <PUBCHEM_ATOM_UDEF_STEREO_COUNT>
0

> <PUBCHEM_BOND_DEF_STEREO_COUNT>
1

> <PUBCHEM_BOND_UDEF_STEREO_COUNT>
0

> <PUBCHEM_ISOTOPIC_ATOM_COUNT>
0

> <PUBCHEM_COMPONENT_COUNT>
1

> <PUBCHEM_CACTVS_TAUTO_COUNT>
1

> <PUBCHEM_COORDINATE_TYPE>
1
5
255

> <PUBCHEM_BONDANNOTATIONS>
14  1  6
15  2  6
3  33  5
4  16  6
5  17  6
6  34  5
7  35  5

$$$$

