9798
  -OEChem-06261204042D

 44 50  0     0  0  0  0  0  0999 V2000
    5.6591   -0.1863    0.0000 C   0  0  0  0  0  0  0  0  0  0  0  0
    4.7931    0.3137    0.0000 C   0  0  0  0  0  0  0  0  0  0  0  0
    6.5251    1.3137    0.0000 C   0  0  0  0  0  0  0  0  0  0  0  0
    5.6591    1.8137    0.0000 C   0  0  0  0  0  0  0  0  0  0  0  0
    6.5251    0.3137    0.0000 C   0  0  0  0  0  0  0  0  0  0  0  0
    4.7931    1.3137    0.0000 C   0  0  0  0  0  0  0  0  0  0  0  0
    5.6752   -1.2278    0.0000 C   0  0  0  0  0  0  0  0  0  0  0  0
    3.8831   -0.1931    0.0000 C   0  0  0  0  0  0  0  0  0  0  0  0
    3.8751   -1.2347    0.0000 C   0  0  0  0  0  0  0  0  0  0  0  0
    4.7771   -1.7555    0.0000 C   0  0  0  0  0  0  0  0  0  0  0  0
    5.6430    2.8552    0.0000 C   0  0  0  0  0  0  0  0  0  0  0  0
    7.4351    1.8206    0.0000 C   0  0  0  0  0  0  0  0  0  0  0  0
    3.9336    1.8085    0.0000 C   0  0  0  0  0  0  0  0  0  0  0  0
    7.3834   -0.1832    0.0000 C   0  0  0  0  0  0  0  0  0  0  0  0
    6.5411    3.3830    0.0000 C   0  0  0  0  0  0  0  0  0  0  0  0
    7.4432    2.8622    0.0000 C   0  0  0  0  0  0  0  0  0  0  0  0
    4.7659    3.3180    0.0000 C   0  0  0  0  0  0  0  0  0  0  0  0
    8.2744    1.2924    0.0000 C   0  0  0  0  0  0  0  0  0  0  0  0
    2.9562    0.3710    0.0000 C   0  0  0  0  0  0  0  0  0  0  0  0
    6.6271   -1.7484    0.0000 C   0  0  0  0  0  0  0  0  0  0  0  0
    8.2488    0.3010    0.0000 C   0  0  0  0  0  0  0  0  0  0  0  0
    3.9202    2.8001    0.0000 C   0  0  0  0  0  0  0  0  0  0  0  0
    4.7688   -2.8405    0.0000 C   0  0  0  0  0  0  0  0  0  0  0  0
    2.9396   -1.7844    0.0000 C   0  0  0  0  0  0  0  0  0  0  0  0
    6.6438   -2.8333    0.0000 C   0  0  0  0  0  0  0  0  0  0  0  0
    2.0084   -0.1570    0.0000 C   0  0  0  0  0  0  0  0  0  0  0  0
    5.7084   -3.3830    0.0000 C   0  0  0  0  0  0  0  0  0  0  0  0
    2.0000   -1.2419    0.0000 C   0  0  0  0  0  0  0  0  0  0  0  0
    3.3990    1.4945    0.0000 H   0  0  0  0  0  0  0  0  0  0  0  0
    7.3788   -0.8032    0.0000 H   0  0  0  0  0  0  0  0  0  0  0  0
    7.9813    3.1701    0.0000 H   0  0  0  0  0  0  0  0  0  0  0  0
    6.5387    4.0030    0.0000 H   0  0  0  0  0  0  0  0  0  0  0  0
    4.7461    3.9377    0.0000 H   0  0  0  0  0  0  0  0  0  0  0  0
    8.8210    1.5850    0.0000 H   0  0  0  0  0  0  0  0  0  0  0  0
    2.9682    0.9908    0.0000 H   0  0  0  0  0  0  0  0  0  0  0  0
    7.1580   -1.4281    0.0000 H   0  0  0  0  0  0  0  0  0  0  0  0
    3.3773    3.0995    0.0000 H   0  0  0  0  0  0  0  0  0  0  0  0
    8.7796   -0.0195    0.0000 H   0  0  0  0  0  0  0  0  0  0  0  0
    2.9420   -2.4044    0.0000 H   0  0  0  0  0  0  0  0  0  0  0  0
    4.2306   -3.1484    0.0000 H   0  0  0  0  0  0  0  0  0  0  0  0
    1.4750    0.1592    0.0000 H   0  0  0  0  0  0  0  0  0  0  0  0
    7.1843   -3.1370    0.0000 H   0  0  0  0  0  0  0  0  0  0  0  0
    5.7108   -4.0030    0.0000 H   0  0  0  0  0  0  0  0  0  0  0  0
    1.4619   -1.5499    0.0000 H   0  0  0  0  0  0  0  0  0  0  0  0
  1  2  2  0  0  0  0
  1  5  1  0  0  0  0
  1  7  1  0  0  0  0
  2  6  1  0  0  0  0
  2  8  1  0  0  0  0
  3  4  1  0  0  0  0
  3  5  1  0  0  0  0
  3 12  2  0  0  0  0
  4  6  1  0  0  0  0
  4 11  2  0  0  0  0
  5 14  2  0  0  0  0
  6 13  2  0  0  0  0
  7 10  1  0  0  0  0
  7 20  2  0  0  0  0
  8  9  1  0  0  0  0
  8 19  2  0  0  0  0
  9 10  1  0  0  0  0
  9 24  2  0  0  0  0
 10 23  2  0  0  0  0
 11 15  1  0  0  0  0
 11 17  1  0  0  0  0
 12 16  1  0  0  0  0
 12 18  1  0  0  0  0
 13 22  1  0  0  0  0
 13 29  1  0  0  0  0
 14 21  1  0  0  0  0
 14 30  1  0  0  0  0
 15 16  2  0  0  0  0
 15 32  1  0  0  0  0
 16 31  1  0  0  0  0
 17 22  2  0  0  0  0
 17 33  1  0  0  0  0
 18 21  2  0  0  0  0
 18 34  1  0  0  0  0
 19 26  1  0  0  0  0
 19 35  1  0  0  0  0
 20 25  1  0  0  0  0
 20 36  1  0  0  0  0
 21 38  1  0  0  0  0
 22 37  1  0  0  0  0
 23 27  1  0  0  0  0
 23 40  1  0  0  0  0
 24 28  1  0  0  0  0
 24 39  1  0  0  0  0
 25 27  2  0  0  0  0
 25 42  1  0  0  0  0
 26 28  2  0  0  0  0
 26 41  1  0  0  0  0
 27 43  1  0  0  0  0
 28 44  1  0  0  0  0
M  END
> <PUBCHEM_COMPOUND_CID>
9798

> <PUBCHEM_COMPOUND_CANONICALIZED>
1

> <PUBCHEM_CACTVS_COMPLEXITY>
541

> <PUBCHEM_CACTVS_HBOND_ACCEPTOR>
0

> <PUBCHEM_CACTVS_HBOND_DONOR>
0

> <PUBCHEM_CACTVS_ROTATABLE_BOND>
0

> <PUBCHEM_CACTVS_SUBSKEYS>
AAADceB4AAAAAAAAAAAAAAAAAAAAAAAAAAAwYMGDAAAAAADBVAAAGAAAAAAADACAGAAwAMAAAACAAiBCAAACAAAgAAAIiAAAAIgIICKAERCAIAAggAAIiAcAgMAOwAACAAAQAACAAAQAACAAAAAAAAAAAA==

> <PUBCHEM_IUPAC_INCHI>
InChI=1S/C28H16/c1-3-11-21-19(9-1)20-10-2-4-12-22(20)28-24-14-6-8-18-16-15-17-7-5-13-23(27(21)28)25(17)26(18)24/h1-16H

> <PUBCHEM_IUPAC_INCHIKEY>
PCFZQDQXEZJNAF-UHFFFAOYSA-N

> <PUBCHEM_XLOGP3_AA>
8

> <PUBCHEM_EXACT_MASS>
352.125201

> <PUBCHEM_MOLECULAR_FORMULA>
C28H16

> <PUBCHEM_MOLECULAR_WEIGHT>
352.42664

> <PUBCHEM_OPENEYE_CAN_SMILES>
C1=CC=C2C(=C1)C3=CC=CC=C3C4=C2C5=CC=CC6=C5C7=C(C=CC=C74)C=C6

> <PUBCHEM_OPENEYE_ISO_SMILES>
C1=CC=C2C(=C1)C3=CC=CC=C3C4=C2C5=CC=CC6=C5C7=C(C=CC=C74)C=C6

> <PUBCHEM_CACTVS_TPSA>
0

> <PUBCHEM_MONOISOTOPIC_WEIGHT>
352.125201

> <PUBCHEM_TOTAL_CHARGE>
0

> <PUBCHEM_HEAVY_ATOM_COUNT>
28

> <PUBCHEM_ATOM_DEF_STEREO_COUNT>
0

> <PUBCHEM_ATOM_UDEF_STEREO_COUNT>
0

> <PUBCHEM_BOND_DEF_STEREO_COUNT>
0

> <PUBCHEM_BOND_UDEF_STEREO_COUNT>
0

> <PUBCHEM_ISOTOPIC_ATOM_COUNT>
0

> <PUBCHEM_COMPONENT_COUNT>
1

> <PUBCHEM_CACTVS_TAUTO_COUNT>
1

> <PUBCHEM_COORDINATE_TYPE>
1
5
255

> <PUBCHEM_BONDANNOTATIONS>
1  2  8
1  5  8
1  7  8
10  23  8
11  15  8
11  17  8
12  16  8
12  18  8
13  22  8
14  21  8
15  16  8
17  22  8
18  21  8
19  26  8
2  6  8
2  8  8
20  25  8
23  27  8
24  28  8
25  27  8
26  28  8
3  12  8
3  4  8
3  5  8
4  11  8
4  6  8
5  14  8
6  13  8
7  10  8
7  20  8
8  19  8
8  9  8
9  10  8
9  24  8

$$$$

