   Color/Form

     * WHITE TO CREAMY-WHITE CRYSTALLINE POWDER
     * COLORLESS CRYSTALS
     * NEEDLES IN WATER
     * FINE, IVORY POWDER

   from [1]HSDB

   Odor
        ODORLESS
   from [2]HSDB

   Taste
        SLIGHTLY BITTER TASTE
   from [3]HSDB

   Melting Point
        130 DEG C
   from [4]HSDB

   Octanol/Water Partition Coefficient
        Log Kow = 1.80
   from [5]HSDB

   Solubilities
        At 25 deg C in water 0.35 g/100 ml, in alcohol 103 g/100 g, in
   ether 83 g/100 g, cottonseed oil at 30 deg C 1.23 g/100 g, in lard at
   45 deg C 1.14 g/100 g.
   from [6]HSDB

   Spectral Properties

     * MAX ABSORPTION (ALCOHOL): 275 NM; 9163 (IR, PRISM)
     * IR: 3:1032D (Aldrich Library of Infrared Spectra, Aldrich Chemical
       Co, Milwaukee, WI)
     * NMR: 7:32D (Aldrich Library of Mass Spectra, Aldrich Chemical Co,
       Milwaukee, WI)
     * IR: 2023 (Coblentz Society Spectral Collection)
     * NMR: 18732 (Sadtler Research Laboratories Spectral Collection)
     * IR: 2:903G (Aldrich Library of Infrared Spectra, Aldrich Chemical
       Co, Milwaukee, WI)

   from [7]HSDB

   Other Chemical/Physical Properties

     * Darkens in presence of iron and iron salts.
     * Synergic with acids, BHA, BHT.

   from [8]HSDB

   Computed Properties
   Molecular Weight                  212.19928 [g/mol]
   Molecular Formula                 C[10]H[12]O[5]
   XLogP3                            1.8
   H-Bond Donor                      3
   H-Bond Acceptor                   5
   Rotatable Bond Count              4
   Tautomer Count                    14
   Exact Mass                        212.068473
   MonoIsotopic Mass                 212.068473
   Topological Polar Surface Area    87
   Heavy Atom Count                  15
   Formal Charge                     0
   Complexity                        206
   Isotope Atom Count                0
   Defined Atom Stereocenter Count   0
   Undefined Atom Stereocenter Count 0
   Defined Bond Stereocenter Count   0
   Undefined Bond Stereocenter Count 0
   Covalently-Bonded Unit Count      1
   Feature 3D Acceptor Count         1
   Feature 3D Donor Count            3
   Feature 3D Hydrophobe Count       1
   Feature 3D Ring Count             1
   Effective Rotor Count             4
   Conformer Sampling RMSD           0.6
   CID Conformer Count               [9]22

References

   1. http://toxnet.nlm.nih.gov/cgi-bin/sis/search/r?dbs+hsdb:@term+@rn+@rel+121-79-9
   2. http://toxnet.nlm.nih.gov/cgi-bin/sis/search/r?dbs+hsdb:@term+@rn+@rel+121-79-9
   3. http://toxnet.nlm.nih.gov/cgi-bin/sis/search/r?dbs+hsdb:@term+@rn+@rel+121-79-9
   4. http://toxnet.nlm.nih.gov/cgi-bin/sis/search/r?dbs+hsdb:@term+@rn+@rel+121-79-9
   5. http://toxnet.nlm.nih.gov/cgi-bin/sis/search/r?dbs+hsdb:@term+@rn+@rel+121-79-9
   6. http://toxnet.nlm.nih.gov/cgi-bin/sis/search/r?dbs+hsdb:@term+@rn+@rel+121-79-9
   7. http://toxnet.nlm.nih.gov/cgi-bin/sis/search/r?dbs+hsdb:@term+@rn+@rel+121-79-9
   8. http://toxnet.nlm.nih.gov/cgi-bin/sis/search/r?dbs+hsdb:@term+@rn+@rel+121-79-9
   9. http://pubchem.ncbi.nlm.nih.gov/vw3d/vw3d.cgi?cid=4947
