   Color/Form

     * Colorless crystals
     * Off-white to tan, waxy solid.

   from [1]HSDB

   Melting Point
        49.2 deg C
   from [2]HSDB

   Density/Specific Gravity
        1.191 @ 23 deg C
   from [3]HSDB

   Dissociation Constants
        pKa = 10.50 @ 25 deg C
   from [4]HSDB

   Octanol/Water Partition Coefficient
        log Kow = 3.23
   from [5]HSDB

   Solubilities

     * In dichloromethane, isopropanol, toluene > 200; hexane 10-20 (all
       in g/L, 20 deg C)
     * Soluble in organic solvents
     * In water, 329 mg/l @ 20 deg C

   from [6]HSDB

   Vapor Pressure
        1X10-6 mm Hg at 25 deg C
   from [7]HSDB

   Other Chemical/Physical Properties
        Off-white to tan waxy solid with a melting point of 49 deg C and a
   vapor pressure of 4.7X10-5 mm Hg at 20 deg C. /Technical/
   from [8]HSDB

   Computed Properties
   Molecular Weight                  303.357442 [g/mol]
   Molecular Formula                 C[13]H[22]NO[3]PS
   XLogP3                            3.2
   H-Bond Donor                      1
   H-Bond Acceptor                   5
   Rotatable Bond Count              7
   Tautomer Count                    2
   Exact Mass                        303.105801
   MonoIsotopic Mass                 303.105801
   Topological Polar Surface Area    72.9
   Heavy Atom Count                  19
   Formal Charge                     0
   Complexity                        314
   Isotope Atom Count                0
   Defined Atom Stereocenter Count   0
   Undefined Atom Stereocenter Count 1
   Defined Bond Stereocenter Count   0
   Undefined Bond Stereocenter Count 0
   Covalently-Bonded Unit Count      1
   Feature 3D Acceptor Count         1
   Feature 3D Hydrophobe Count       2
   Feature 3D Ring Count             1
   Effective Rotor Count             7
   Conformer Sampling RMSD           0.8
   CID Conformer Count               [9]219

References

   1. http://toxnet.nlm.nih.gov/cgi-bin/sis/search/r?dbs+hsdb:@term+@rn+@rel+22224-92-6
   2. http://toxnet.nlm.nih.gov/cgi-bin/sis/search/r?dbs+hsdb:@term+@rn+@rel+22224-92-6
   3. http://toxnet.nlm.nih.gov/cgi-bin/sis/search/r?dbs+hsdb:@term+@rn+@rel+22224-92-6
   4. http://toxnet.nlm.nih.gov/cgi-bin/sis/search/r?dbs+hsdb:@term+@rn+@rel+22224-92-6
   5. http://toxnet.nlm.nih.gov/cgi-bin/sis/search/r?dbs+hsdb:@term+@rn+@rel+22224-92-6
   6. http://toxnet.nlm.nih.gov/cgi-bin/sis/search/r?dbs+hsdb:@term+@rn+@rel+22224-92-6
   7. http://toxnet.nlm.nih.gov/cgi-bin/sis/search/r?dbs+hsdb:@term+@rn+@rel+22224-92-6
   8. http://toxnet.nlm.nih.gov/cgi-bin/sis/search/r?dbs+hsdb:@term+@rn+@rel+22224-92-6
   9. http://pubchem.ncbi.nlm.nih.gov/vw3d/vw3d.cgi?cid=31070
