   Color/Form

     * Brownish-yellow, oily viscous liquid (tech.)
     * Light to dark brown viscous liquid

   from [1]HSDB

   Boiling Point
        Decomposes at about 200 deg C prior to boiling
   from [2]HSDB

   Density/Specific Gravity
        1.10 at 20 deg C
   from [3]HSDB

   Octanol/Water Partition Coefficient
        log Kow = 5.7
   from [4]HSDB

   Solubilities

     * Fully miscible with hexane, toluene, dichloromethane, methanol and
       acetone
     * In water, 0.215 mg/L at 25 deg C

   from [5]HSDB

   Vapor Pressure
        3X10-7 mm Hg at 25 deg C
   from [6]HSDB

   Other Chemical/Physical Properties

     * Henry's Law constant = 6.4X10-7 atm cu m/mol at 25 deg C (est)
     * Hydroxyl radical reaction rate constant = 6.0X10-11 cu cm/molec-sec
       at 25 deg C (est)
     * DARK AMBER, VISCOUS OIL; DENSITY: 1.085-1.115 @ 25 DEG C;
       PRACTICALLY INSOL IN WATER; SOL IN MOST ORG SOLVENTS. /TECHNICAL
       PRODUCT/

   from [7]HSDB

   Computed Properties
   Molecular Weight                  350.47234 [g/mol]
   Molecular Formula                 C[19]H[26]O[4]S
   XLogP3-AA                         5
   H-Bond Donor                      0
   H-Bond Acceptor                   5
   Rotatable Bond Count              7
   Exact Mass                        350.15518
   MonoIsotopic Mass                 350.15518
   Topological Polar Surface Area    64
   Heavy Atom Count                  24
   Formal Charge                     0
   Complexity                        454
   Isotope Atom Count                0
   Defined Atom Stereocenter Count   0
   Undefined Atom Stereocenter Count 3
   Defined Bond Stereocenter Count   0
   Undefined Bond Stereocenter Count 0
   Covalently-Bonded Unit Count      1
   Feature 3D Acceptor Count         2
   Feature 3D Hydrophobe Count       2
   Feature 3D Ring Count             2
   Effective Rotor Count             8.2
   Conformer Sampling RMSD           1
   CID Conformer Count               [8]227

References

   1. http://toxnet.nlm.nih.gov/cgi-bin/sis/search/r?dbs+hsdb:@term+@rn+@rel+2312-35-8
   2. http://toxnet.nlm.nih.gov/cgi-bin/sis/search/r?dbs+hsdb:@term+@rn+@rel+2312-35-8
   3. http://toxnet.nlm.nih.gov/cgi-bin/sis/search/r?dbs+hsdb:@term+@rn+@rel+2312-35-8
   4. http://toxnet.nlm.nih.gov/cgi-bin/sis/search/r?dbs+hsdb:@term+@rn+@rel+2312-35-8
   5. http://toxnet.nlm.nih.gov/cgi-bin/sis/search/r?dbs+hsdb:@term+@rn+@rel+2312-35-8
   6. http://toxnet.nlm.nih.gov/cgi-bin/sis/search/r?dbs+hsdb:@term+@rn+@rel+2312-35-8
   7. http://toxnet.nlm.nih.gov/cgi-bin/sis/search/r?dbs+hsdb:@term+@rn+@rel+2312-35-8
   8. http://pubchem.ncbi.nlm.nih.gov/vw3d/vw3d.cgi?cid=4936
