442506
  -OEChem-07051212582D

 48 50  0     1  0  0  0  0  0999 V2000
    6.0010   -0.9050    0.0000 O   0  0  0  0  0  0  0  0  0  0  0  0
    4.2690   -0.9050    0.0000 O   0  0  0  0  0  0  0  0  0  0  0  0
    6.8671    0.5950    0.0000 O   0  0  0  0  0  0  0  0  0  0  0  0
    6.0010    1.0950    0.0000 O   0  0  0  0  0  0  0  0  0  0  0  0
    4.2690    2.0950    0.0000 O   0  0  0  0  0  0  0  0  0  0  0  0
    2.5369    1.0950    0.0000 O   0  0  0  0  0  0  0  0  0  0  0  0
    2.5369   -1.9050    0.0000 O   0  0  0  0  0  0  0  0  0  0  0  0
    9.4815    2.1296    0.0000 O   0  0  0  0  0  0  0  0  0  0  0  0
   10.3991    0.6158    0.0000 N   0  0  0  0  0  0  0  0  0  0  0  0
    8.5991   -0.4050    0.0000 C   0  0  2  0  0  0  0  0  0  0  0  0
    7.7331   -0.9050    0.0000 C   0  0  2  0  0  0  0  0  0  0  0  0
    6.8671   -0.4050    0.0000 C   0  0  2  0  0  0  0  0  0  0  0  0
    5.1350   -0.4050    0.0000 C   0  0  2  0  0  0  0  0  0  0  0  0
    5.1350    0.5950    0.0000 C   0  0  1  0  0  0  0  0  0  0  0  0
    4.2690    1.0950    0.0000 C   0  0  2  0  0  0  0  0  0  0  0  0
    3.4030    0.5950    0.0000 C   0  0  1  0  0  0  0  0  0  0  0  0
    9.4931   -0.9397    0.0000 C   0  0  0  0  0  0  0  0  0  0  0  0
    3.4030   -0.4050    0.0000 C   0  0  1  0  0  0  0  0  0  0  0  0
    8.5991    0.5950    0.0000 C   0  0  0  0  0  0  0  0  0  0  0  0
   10.3991   -0.4258    0.0000 C   0  0  0  0  0  0  0  0  0  0  0  0
    7.7331   -1.9050    0.0000 C   0  0  0  0  0  0  0  0  0  0  0  0
    7.7331    1.0950    0.0000 C   0  0  0  0  0  0  0  0  0  0  0  0
    9.4931    1.1297    0.0000 C   0  0  0  0  0  0  0  0  0  0  0  0
    2.5369   -0.9050    0.0000 C   0  0  0  0  0  0  0  0  0  0  0  0
    6.8671   -2.4050    0.0000 C   0  0  0  0  0  0  0  0  0  0  0  0
    8.5926   -1.2550    0.0000 H   0  0  0  0  0  0  0  0  0  0  0  0
    8.2700   -1.2150    0.0000 H   0  0  0  0  0  0  0  0  0  0  0  0
    6.3301   -0.0950    0.0000 H   0  0  0  0  0  0  0  0  0  0  0  0
    5.1350   -1.0250    0.0000 H   0  0  0  0  0  0  0  0  0  0  0  0
    5.1350    1.2150    0.0000 H   0  0  0  0  0  0  0  0  0  0  0  0
    4.8059    1.4050    0.0000 H   0  0  0  0  0  0  0  0  0  0  0  0
    3.4030    1.2150    0.0000 H   0  0  0  0  0  0  0  0  0  0  0  0
    9.0885   -1.4095    0.0000 H   0  0  0  0  0  0  0  0  0  0  0  0
    9.8867   -1.4187    0.0000 H   0  0  0  0  0  0  0  0  0  0  0  0
    3.4030   -1.0250    0.0000 H   0  0  0  0  0  0  0  0  0  0  0  0
   10.6082   -1.0095    0.0000 H   0  0  0  0  0  0  0  0  0  0  0  0
   11.0100   -0.3197    0.0000 H   0  0  0  0  0  0  0  0  0  0  0  0
    8.2700   -2.2150    0.0000 H   0  0  0  0  0  0  0  0  0  0  0  0
    7.7331    1.7150    0.0000 H   0  0  0  0  0  0  0  0  0  0  0  0
    2.3249   -0.3224    0.0000 H   0  0  0  0  0  0  0  0  0  0  0  0
    1.9264   -1.0127    0.0000 H   0  0  0  0  0  0  0  0  0  0  0  0
   10.9349    0.9279    0.0000 H   0  0  0  0  0  0  0  0  0  0  0  0
    6.0010    1.7150    0.0000 H   0  0  0  0  0  0  0  0  0  0  0  0
    3.7320    2.4050    0.0000 H   0  0  0  0  0  0  0  0  0  0  0  0
    2.0000    0.7850    0.0000 H   0  0  0  0  0  0  0  0  0  0  0  0
    6.3301   -2.0950    0.0000 H   0  0  0  0  0  0  0  0  0  0  0  0
    6.8671   -3.0250    0.0000 H   0  0  0  0  0  0  0  0  0  0  0  0
    2.0000   -2.2150    0.0000 H   0  0  0  0  0  0  0  0  0  0  0  0
 12  1  1  6  0  0  0
 13  1  1  6  0  0  0
  2 13  1  0  0  0  0
  2 18  1  0  0  0  0
  3 12  1  0  0  0  0
  3 22  1  0  0  0  0
 14  4  1  1  0  0  0
  4 43  1  0  0  0  0
 15  5  1  6  0  0  0
  5 44  1  0  0  0  0
 16  6  1  1  0  0  0
  6 45  1  0  0  0  0
  7 24  1  0  0  0  0
  7 48  1  0  0  0  0
  8 23  2  0  0  0  0
  9 20  1  0  0  0  0
  9 23  1  0  0  0  0
  9 42  1  0  0  0  0
 10 11  1  0  0  0  0
 10 17  1  0  0  0  0
 10 19  1  0  0  0  0
 10 26  1  6  0  0  0
 11 12  1  0  0  0  0
 11 21  1  1  0  0  0
 11 27  1  0  0  0  0
 12 28  1  0  0  0  0
 13 14  1  0  0  0  0
 13 29  1  0  0  0  0
 14 15  1  0  0  0  0
 14 30  1  0  0  0  0
 15 16  1  0  0  0  0
 15 31  1  0  0  0  0
 16 18  1  0  0  0  0
 16 32  1  0  0  0  0
 17 20  1  0  0  0  0
 17 33  1  0  0  0  0
 17 34  1  0  0  0  0
 18 24  1  6  0  0  0
 18 35  1  0  0  0  0
 19 22  2  0  0  0  0
 19 23  1  0  0  0  0
 20 36  1  0  0  0  0
 20 37  1  0  0  0  0
 21 25  2  0  0  0  0
 21 38  1  0  0  0  0
 22 39  1  0  0  0  0
 24 40  1  0  0  0  0
 24 41  1  0  0  0  0
 25 46  1  0  0  0  0
 25 47  1  0  0  0  0
M  END
> <PUBCHEM_COMPOUND_CID>
442506

> <PUBCHEM_COMPOUND_CANONICALIZED>
1

> <PUBCHEM_CACTVS_COMPLEXITY>
552

> <PUBCHEM_CACTVS_HBOND_ACCEPTOR>
8

> <PUBCHEM_CACTVS_HBOND_DONOR>
5

> <PUBCHEM_CACTVS_ROTATABLE_BOND>
4

> <PUBCHEM_CACTVS_SUBSKEYS>
AAADceB6PAAAAAAAAAAAAAAAAAAAAAAAAAAsSIAAAAAAAACAAAAAHgAQCAAADRTxgAcACALABgCIAiFSEACACAAgIAAIAIEIAEgREBIAgQAmQAAF1gCHAIHYdQ4OgAAAAAAAAAAAAAAAAAAAAAAAAAAAAA==

> <PUBCHEM_IUPAC_OPENEYE_NAME>
(3S,4R,4aS)-3-[(2S,3R,4S,5S,6R)-3,4,5-trihydroxy-6-(hydroxymethyl)tetrahydropyran-2-yl]oxy-4-vinyl-3,4,4a,5,6,7-hexahydropyrano[3,4-c]pyridin-8-one

> <PUBCHEM_IUPAC_CAS_NAME>
(3S,4R,4aS)-4-ethenyl-3-[[(2S,3R,4S,5S,6R)-3,4,5-trihydroxy-6-(hydroxymethyl)-2-oxanyl]oxy]-3,4,4a,5,6,7-hexahydropyrano[3,4-c]pyridin-8-one

> <PUBCHEM_IUPAC_NAME>
(3S,4R,4aS)-4-ethenyl-3-[(2S,3R,4S,5S,6R)-3,4,5-trihydroxy-6-(hydroxymethyl)oxan-2-yl]oxy-3,4,4a,5,6,7-hexahydropyrano[3,4-c]pyridin-8-one

> <PUBCHEM_IUPAC_SYSTEMATIC_NAME>
(3S,4R,4aS)-4-ethenyl-3-[(2S,3R,4S,5S,6R)-6-(hydroxymethyl)-3,4,5-tris(oxidanyl)oxan-2-yl]oxy-3,4,4a,5,6,7-hexahydropyrano[3,4-c]pyridin-8-one

> <PUBCHEM_IUPAC_TRADITIONAL_NAME>
(3S,4R,4aS)-3-[(2S,3R,4S,5S,6R)-3,4,5-trihydroxy-6-methylol-tetrahydropyran-2-yl]oxy-4-vinyl-3,4,4a,5,6,7-hexahydropyrano[3,4-c]pyridin-8-one

> <PUBCHEM_IUPAC_INCHI>
InChI=1S/C16H23NO8/c1-2-7-8-3-4-17-14(22)9(8)6-23-15(7)25-16-13(21)12(20)11(19)10(5-18)24-16/h2,6-8,10-13,15-16,18-21H,1,3-5H2,(H,17,22)/t7-,8+,10-,11-,12+,13-,15+,16+/m1/s1

> <PUBCHEM_IUPAC_INCHIKEY>
CYRRHDGXDUVPMO-ZASXJUAOSA-N

> <PUBCHEM_XLOGP3_AA>
-1.5

> <PUBCHEM_EXACT_MASS>
357.142367

> <PUBCHEM_MOLECULAR_FORMULA>
C16H23NO8

> <PUBCHEM_MOLECULAR_WEIGHT>
357.35572

> <PUBCHEM_OPENEYE_CAN_SMILES>
C=CC1C2CCNC(=O)C2=COC1OC3C(C(C(C(O3)CO)O)O)O

> <PUBCHEM_OPENEYE_ISO_SMILES>
C=C[C@@H]1[C@@H]2CCNC(=O)C2=CO[C@H]1O[C@H]3[C@@H]([C@H]([C@@H]([C@H](O3)CO)O)O)O

> <PUBCHEM_CACTVS_TPSA>
138

> <PUBCHEM_MONOISOTOPIC_WEIGHT>
357.142367

> <PUBCHEM_TOTAL_CHARGE>
0

> <PUBCHEM_HEAVY_ATOM_COUNT>
25

> <PUBCHEM_ATOM_DEF_STEREO_COUNT>
8

> <PUBCHEM_ATOM_UDEF_STEREO_COUNT>
0

> <PUBCHEM_BOND_DEF_STEREO_COUNT>
0

> <PUBCHEM_BOND_UDEF_STEREO_COUNT>
0

> <PUBCHEM_ISOTOPIC_ATOM_COUNT>
0

> <PUBCHEM_COMPONENT_COUNT>
1

> <PUBCHEM_CACTVS_TAUTO_COUNT>
2

> <PUBCHEM_COORDINATE_TYPE>
1
5
255

> <PUBCHEM_BONDANNOTATIONS>
12  1  6
13  1  6
10  26  6
11  21  5
18  24  6
14  4  5
15  5  6
16  6  5

$$$$

