9660
  -OEChem-06261203552D

 23 22  0     0  0  0  0  0  0999 V2000
    3.7320   -0.4330    0.0000 Si  0  0  0  0  0  0  0  0  0  0  0  0
    4.2320   -1.2990    0.0000 F   0  0  0  0  0  0  0  0  0  0  0  0
    4.5981    0.0670    0.0000 C   0  0  0  0  0  0  0  0  0  0  0  0
    2.8660   -0.9330    0.0000 C   0  0  0  0  0  0  0  0  0  0  0  0
    3.2320    0.4330    0.0000 C   0  0  0  0  0  0  0  0  0  0  0  0
    5.4641   -0.4330    0.0000 C   0  0  0  0  0  0  0  0  0  0  0  0
    2.0000   -0.4330    0.0000 C   0  0  0  0  0  0  0  0  0  0  0  0
    3.7320    1.2990    0.0000 C   0  0  0  0  0  0  0  0  0  0  0  0
    2.7571    0.8315    0.0000 H   0  0  0  0  0  0  0  0  0  0  0  0
    2.7571    0.0345    0.0000 H   0  0  0  0  0  0  0  0  0  0  0  0
    2.4675   -1.4080    0.0000 H   0  0  0  0  0  0  0  0  0  0  0  0
    3.2646   -1.4080    0.0000 H   0  0  0  0  0  0  0  0  0  0  0  0
    4.9966    0.5419    0.0000 H   0  0  0  0  0  0  0  0  0  0  0  0
    4.1996    0.5419    0.0000 H   0  0  0  0  0  0  0  0  0  0  0  0
    5.1541   -0.9699    0.0000 H   0  0  0  0  0  0  0  0  0  0  0  0
    6.0010   -0.7430    0.0000 H   0  0  0  0  0  0  0  0  0  0  0  0
    5.7741    0.1039    0.0000 H   0  0  0  0  0  0  0  0  0  0  0  0
    2.3100    0.1039    0.0000 H   0  0  0  0  0  0  0  0  0  0  0  0
    1.4631   -0.1230    0.0000 H   0  0  0  0  0  0  0  0  0  0  0  0
    1.6900   -0.9699    0.0000 H   0  0  0  0  0  0  0  0  0  0  0  0
    4.2690    0.9890    0.0000 H   0  0  0  0  0  0  0  0  0  0  0  0
    4.0420    1.8360    0.0000 H   0  0  0  0  0  0  0  0  0  0  0  0
    3.1951    1.6090    0.0000 H   0  0  0  0  0  0  0  0  0  0  0  0
  1  2  1  0  0  0  0
  1  3  1  0  0  0  0
  1  4  1  0  0  0  0
  1  5  1  0  0  0  0
  3  6  1  0  0  0  0
  3 13  1  0  0  0  0
  3 14  1  0  0  0  0
  4  7  1  0  0  0  0
  4 11  1  0  0  0  0
  4 12  1  0  0  0  0
  5  8  1  0  0  0  0
  5  9  1  0  0  0  0
  5 10  1  0  0  0  0
  6 15  1  0  0  0  0
  6 16  1  0  0  0  0
  6 17  1  0  0  0  0
  7 18  1  0  0  0  0
  7 19  1  0  0  0  0
  7 20  1  0  0  0  0
  8 21  1  0  0  0  0
  8 22  1  0  0  0  0
  8 23  1  0  0  0  0
M  END
> <PUBCHEM_COMPOUND_CID>
9660

> <PUBCHEM_COMPOUND_CANONICALIZED>
1

> <PUBCHEM_CACTVS_COMPLEXITY>
51.3

> <PUBCHEM_CACTVS_HBOND_ACCEPTOR>
1

> <PUBCHEM_CACTVS_HBOND_DONOR>
0

> <PUBCHEM_CACTVS_ROTATABLE_BOND>
3

> <PUBCHEM_CACTVS_SUBSKEYS>
AAADccBgAQgAAAAAAAAAAAAAAAAAAAAAAAAAAAAAAAAAAAAAAAAAGBAAAAAAAACAIABCAAAAAAEAAAAAAAAAAAAAAAAAAAAAAAAAAAAAAAAAAAAAAAAAAAAAAAAAAAAAAAAAAAAAAAAAAAAAAAAAAAAAAA==

> <PUBCHEM_IUPAC_OPENEYE_NAME>
triethyl(fluoro)silane

> <PUBCHEM_IUPAC_CAS_NAME>
triethyl(fluoro)silane

> <PUBCHEM_IUPAC_NAME>
triethyl(fluoro)silane

> <PUBCHEM_IUPAC_SYSTEMATIC_NAME>
triethyl(fluoranyl)silane

> <PUBCHEM_IUPAC_TRADITIONAL_NAME>
triethyl(fluoro)silane

> <PUBCHEM_IUPAC_INCHI>
InChI=1S/C6H15FSi/c1-4-8(7,5-2)6-3/h4-6H2,1-3H3

> <PUBCHEM_IUPAC_INCHIKEY>
QVMRVWAOMIXFFW-UHFFFAOYSA-N

> <PUBCHEM_EXACT_MASS>
134.092705

> <PUBCHEM_MOLECULAR_FORMULA>
C6H15FSi

> <PUBCHEM_MOLECULAR_WEIGHT>
134.267203

> <PUBCHEM_OPENEYE_CAN_SMILES>
CC[Si](CC)(CC)F

> <PUBCHEM_OPENEYE_ISO_SMILES>
CC[Si](CC)(CC)F

> <PUBCHEM_CACTVS_TPSA>
0

> <PUBCHEM_MONOISOTOPIC_WEIGHT>
134.092705

> <PUBCHEM_TOTAL_CHARGE>
0

> <PUBCHEM_HEAVY_ATOM_COUNT>
8

> <PUBCHEM_ATOM_DEF_STEREO_COUNT>
0

> <PUBCHEM_ATOM_UDEF_STEREO_COUNT>
0

> <PUBCHEM_BOND_DEF_STEREO_COUNT>
0

> <PUBCHEM_BOND_UDEF_STEREO_COUNT>
0

> <PUBCHEM_ISOTOPIC_ATOM_COUNT>
0

> <PUBCHEM_COMPONENT_COUNT>
1

> <PUBCHEM_CACTVS_TAUTO_COUNT>
1

> <PUBCHEM_COORDINATE_TYPE>
1
5
255

$$$$

