17395325
  -OEChem-06241222492D

 44 46  0     0  0  0  0  0  0999 V2000
    3.4782   -1.9945    0.0000 S   0  0  0  0  0  0  0  0  0  0  0  0
    9.6448    2.5000    0.0000 O   0  0  0  0  0  0  0  0  0  0  0  0
    7.0468   -2.0000    0.0000 O   0  0  0  0  0  0  0  0  0  0  0  0
    4.4487    0.5000    0.0000 O   0  0  0  0  0  0  0  0  0  0  0  0
    9.6448    0.5000    0.0000 N   0  0  0  0  0  0  0  0  0  0  0  0
    7.9128   -0.5000    0.0000 N   0  0  0  0  0  0  0  0  0  0  0  0
    8.7788    1.0000    0.0000 C   0  0  0  0  0  0  0  0  0  0  0  0
   10.5109    1.0000    0.0000 C   0  0  0  0  0  0  0  0  0  0  0  0
    9.6448   -0.5000    0.0000 C   0  0  0  0  0  0  0  0  0  0  0  0
    8.7788    2.0000    0.0000 C   0  0  0  0  0  0  0  0  0  0  0  0
   10.5109    2.0000    0.0000 C   0  0  0  0  0  0  0  0  0  0  0  0
    8.7788   -1.0000    0.0000 C   0  0  0  0  0  0  0  0  0  0  0  0
   10.5109   -1.0000    0.0000 C   0  0  0  0  0  0  0  0  0  0  0  0
    8.7788   -2.0000    0.0000 C   0  0  0  0  0  0  0  0  0  0  0  0
   10.5109   -2.0000    0.0000 C   0  0  0  0  0  0  0  0  0  0  0  0
    6.1808   -0.5000    0.0000 C   0  0  0  0  0  0  0  0  0  0  0  0
    9.6448   -2.5000    0.0000 C   0  0  0  0  0  0  0  0  0  0  0  0
    7.0468   -1.0000    0.0000 C   0  0  0  0  0  0  0  0  0  0  0  0
    5.3147   -1.0000    0.0000 C   0  0  0  0  0  0  0  0  0  0  0  0
    4.4487   -0.5000    0.0000 C   0  0  0  0  0  0  0  0  0  0  0  0
    3.5827   -1.0000    0.0000 C   0  0  0  0  0  0  0  0  0  0  0  0
    2.6691   -0.5933    0.0000 C   0  0  0  0  0  0  0  0  0  0  0  0
    2.0000   -1.3364    0.0000 C   0  0  0  0  0  0  0  0  0  0  0  0
    2.5000   -2.2024    0.0000 C   0  0  0  0  0  0  0  0  0  0  0  0
   10.7229    0.4174    0.0000 H   0  0  0  0  0  0  0  0  0  0  0  0
   11.1215    1.1077    0.0000 H   0  0  0  0  0  0  0  0  0  0  0  0
    8.1682    1.1077    0.0000 H   0  0  0  0  0  0  0  0  0  0  0  0
    8.5668    0.4174    0.0000 H   0  0  0  0  0  0  0  0  0  0  0  0
   11.1215    1.8923    0.0000 H   0  0  0  0  0  0  0  0  0  0  0  0
   10.7229    2.5826    0.0000 H   0  0  0  0  0  0  0  0  0  0  0  0
    8.5668    2.5826    0.0000 H   0  0  0  0  0  0  0  0  0  0  0  0
    8.1682    1.8923    0.0000 H   0  0  0  0  0  0  0  0  0  0  0  0
   11.0478   -0.6900    0.0000 H   0  0  0  0  0  0  0  0  0  0  0  0
    7.9128    0.1200    0.0000 H   0  0  0  0  0  0  0  0  0  0  0  0
    8.2419   -2.3100    0.0000 H   0  0  0  0  0  0  0  0  0  0  0  0
   11.0478   -2.3100    0.0000 H   0  0  0  0  0  0  0  0  0  0  0  0
    6.5793   -0.0251    0.0000 H   0  0  0  0  0  0  0  0  0  0  0  0
    5.7822   -0.0251    0.0000 H   0  0  0  0  0  0  0  0  0  0  0  0
    9.6448   -3.1200    0.0000 H   0  0  0  0  0  0  0  0  0  0  0  0
    4.9162   -1.4750    0.0000 H   0  0  0  0  0  0  0  0  0  0  0  0
    5.7133   -1.4750    0.0000 H   0  0  0  0  0  0  0  0  0  0  0  0
    2.5402    0.0132    0.0000 H   0  0  0  0  0  0  0  0  0  0  0  0
    1.3834   -1.2716    0.0000 H   0  0  0  0  0  0  0  0  0  0  0  0
    2.2478   -2.7688    0.0000 H   0  0  0  0  0  0  0  0  0  0  0  0
  1 21  1  0  0  0  0
  1 24  1  0  0  0  0
  2 10  1  0  0  0  0
  2 11  1  0  0  0  0
  3 18  2  0  0  0  0
  4 20  2  0  0  0  0
  5  7  1  0  0  0  0
  5  8  1  0  0  0  0
  5  9  1  0  0  0  0
  6 12  1  0  0  0  0
  6 18  1  0  0  0  0
  6 34  1  0  0  0  0
  7 10  1  0  0  0  0
  7 27  1  0  0  0  0
  7 28  1  0  0  0  0
  8 11  1  0  0  0  0
  8 25  1  0  0  0  0
  8 26  1  0  0  0  0
  9 12  1  0  0  0  0
  9 13  2  0  0  0  0
 10 31  1  0  0  0  0
 10 32  1  0  0  0  0
 11 29  1  0  0  0  0
 11 30  1  0  0  0  0
 12 14  2  0  0  0  0
 13 15  1  0  0  0  0
 13 33  1  0  0  0  0
 14 17  1  0  0  0  0
 14 35  1  0  0  0  0
 15 17  2  0  0  0  0
 15 36  1  0  0  0  0
 16 18  1  0  0  0  0
 16 19  1  0  0  0  0
 16 37  1  0  0  0  0
 16 38  1  0  0  0  0
 17 39  1  0  0  0  0
 19 20  1  0  0  0  0
 19 40  1  0  0  0  0
 19 41  1  0  0  0  0
 20 21  1  0  0  0  0
 21 22  2  0  0  0  0
 22 23  1  0  0  0  0
 22 42  1  0  0  0  0
 23 24  2  0  0  0  0
 23 43  1  0  0  0  0
 24 44  1  0  0  0  0
M  END
> <PUBCHEM_COMPOUND_CID>
17395325

> <PUBCHEM_COMPOUND_CANONICALIZED>
1

> <PUBCHEM_CACTVS_COMPLEXITY>
440

> <PUBCHEM_CACTVS_HBOND_ACCEPTOR>
5

> <PUBCHEM_CACTVS_HBOND_DONOR>
1

> <PUBCHEM_CACTVS_ROTATABLE_BOND>
6

> <PUBCHEM_CACTVS_SUBSKEYS>
AAADceB7MABAAAAAAAAAAAAAAAAAASAAAAA8QAAAAAAAAAABwAAAHgQQAAAACAzl0AawwYPABAiMAKVSUACDAIAlChBIiBkIdMgKYDLglZGXIQhglAD4yYcdiICAAAAAAAAAACAAAAAAAAAAQAAAAAAAAA==

> <PUBCHEM_IUPAC_OPENEYE_NAME>
N-(2-morpholinophenyl)-4-oxo-4-(2-thienyl)butanamide

> <PUBCHEM_IUPAC_CAS_NAME>
N-[2-(4-morpholinyl)phenyl]-4-oxo-4-thiophen-2-ylbutanamide

> <PUBCHEM_IUPAC_NAME>
N-(2-morpholin-4-ylphenyl)-4-oxo-4-thiophen-2-ylbutanamide

> <PUBCHEM_IUPAC_SYSTEMATIC_NAME>
N-(2-morpholin-4-ylphenyl)-4-oxidanylidene-4-thiophen-2-yl-butanamide

> <PUBCHEM_IUPAC_TRADITIONAL_NAME>
4-keto-N-(2-morpholinophenyl)-4-(2-thienyl)butyramide

> <PUBCHEM_IUPAC_INCHI>
InChI=1S/C18H20N2O3S/c21-16(17-6-3-13-24-17)7-8-18(22)19-14-4-1-2-5-15(14)20-9-11-23-12-10-20/h1-6,13H,7-12H2,(H,19,22)

> <PUBCHEM_IUPAC_INCHIKEY>
LCTCQAPIBRPUAT-UHFFFAOYSA-N

> <PUBCHEM_XLOGP3_AA>
2.1

> <PUBCHEM_EXACT_MASS>
344.119464

> <PUBCHEM_MOLECULAR_FORMULA>
C18H20N2O3S

> <PUBCHEM_MOLECULAR_WEIGHT>
344.428

> <PUBCHEM_OPENEYE_CAN_SMILES>
C1COCCN1C2=CC=CC=C2NC(=O)CCC(=O)C3=CC=CS3

> <PUBCHEM_OPENEYE_ISO_SMILES>
C1COCCN1C2=CC=CC=C2NC(=O)CCC(=O)C3=CC=CS3

> <PUBCHEM_CACTVS_TPSA>
86.9

> <PUBCHEM_MONOISOTOPIC_WEIGHT>
344.119464

> <PUBCHEM_TOTAL_CHARGE>
0

> <PUBCHEM_HEAVY_ATOM_COUNT>
24

> <PUBCHEM_ATOM_DEF_STEREO_COUNT>
0

> <PUBCHEM_ATOM_UDEF_STEREO_COUNT>
0

> <PUBCHEM_BOND_DEF_STEREO_COUNT>
0

> <PUBCHEM_BOND_UDEF_STEREO_COUNT>
0

> <PUBCHEM_ISOTOPIC_ATOM_COUNT>
0

> <PUBCHEM_COMPONENT_COUNT>
1

> <PUBCHEM_CACTVS_TAUTO_COUNT>
6

> <PUBCHEM_COORDINATE_TYPE>
1
5
255

> <PUBCHEM_BONDANNOTATIONS>
1  21  8
1  24  8
12  14  8
13  15  8
14  17  8
15  17  8
21  22  8
22  23  8
23  24  8
9  12  8
9  13  8

$$$$

