5945
  -OEChem-06261201002D

 41 42  0     0  0  0  0  0  0999 V2000
    3.0000   -0.2500    0.0000 Si  0  0  0  0  0  0  0  0  0  0  0  0
    3.8660    1.2500    0.0000 Si  0  0  0  0  0  0  0  0  0  0  0  0
    3.0000    0.7500    0.0000 O   0  0  0  0  0  0  0  0  0  0  0  0
    3.0000   -1.2500    0.0000 C   0  0  0  0  0  0  0  0  0  0  0  0
    4.7320    1.7500    0.0000 C   0  0  0  0  0  0  0  0  0  0  0  0
    3.3660    2.1160    0.0000 C   0  0  0  0  0  0  0  0  0  0  0  0
    4.3660    0.3840    0.0000 C   0  0  0  0  0  0  0  0  0  0  0  0
    4.0000   -0.2500    0.0000 C   0  0  0  0  0  0  0  0  0  0  0  0
    2.0000   -0.2500    0.0000 C   0  0  0  0  0  0  0  0  0  0  0  0
    2.1340   -1.7500    0.0000 C   0  0  0  0  0  0  0  0  0  0  0  0
    5.5981    1.2500    0.0000 C   0  0  0  0  0  0  0  0  0  0  0  0
    3.8660   -1.7500    0.0000 C   0  0  0  0  0  0  0  0  0  0  0  0
    4.7320    2.7500    0.0000 C   0  0  0  0  0  0  0  0  0  0  0  0
    2.1340   -2.7500    0.0000 C   0  0  0  0  0  0  0  0  0  0  0  0
    6.4641    1.7500    0.0000 C   0  0  0  0  0  0  0  0  0  0  0  0
    3.8660   -2.7500    0.0000 C   0  0  0  0  0  0  0  0  0  0  0  0
    5.5981    3.2500    0.0000 C   0  0  0  0  0  0  0  0  0  0  0  0
    3.0000   -3.2500    0.0000 C   0  0  0  0  0  0  0  0  0  0  0  0
    6.4641    2.7500    0.0000 C   0  0  0  0  0  0  0  0  0  0  0  0
    2.0000    0.3700    0.0000 H   0  0  0  0  0  0  0  0  0  0  0  0
    1.3800   -0.2500    0.0000 H   0  0  0  0  0  0  0  0  0  0  0  0
    2.0000   -0.8700    0.0000 H   0  0  0  0  0  0  0  0  0  0  0  0
    4.0000   -0.8700    0.0000 H   0  0  0  0  0  0  0  0  0  0  0  0
    4.6200   -0.2500    0.0000 H   0  0  0  0  0  0  0  0  0  0  0  0
    4.0000    0.3700    0.0000 H   0  0  0  0  0  0  0  0  0  0  0  0
    3.8291    0.0740    0.0000 H   0  0  0  0  0  0  0  0  0  0  0  0
    4.6760   -0.1530    0.0000 H   0  0  0  0  0  0  0  0  0  0  0  0
    4.9030    0.6940    0.0000 H   0  0  0  0  0  0  0  0  0  0  0  0
    3.9030    2.4260    0.0000 H   0  0  0  0  0  0  0  0  0  0  0  0
    3.0560    2.6530    0.0000 H   0  0  0  0  0  0  0  0  0  0  0  0
    2.8291    1.8060    0.0000 H   0  0  0  0  0  0  0  0  0  0  0  0
    5.5981    0.6300    0.0000 H   0  0  0  0  0  0  0  0  0  0  0  0
    1.5970   -1.4400    0.0000 H   0  0  0  0  0  0  0  0  0  0  0  0
    4.1951    3.0600    0.0000 H   0  0  0  0  0  0  0  0  0  0  0  0
    4.4030   -1.4400    0.0000 H   0  0  0  0  0  0  0  0  0  0  0  0
    7.0010    1.4400    0.0000 H   0  0  0  0  0  0  0  0  0  0  0  0
    1.5970   -3.0600    0.0000 H   0  0  0  0  0  0  0  0  0  0  0  0
    5.5981    3.8700    0.0000 H   0  0  0  0  0  0  0  0  0  0  0  0
    4.4030   -3.0600    0.0000 H   0  0  0  0  0  0  0  0  0  0  0  0
    7.0010    3.0600    0.0000 H   0  0  0  0  0  0  0  0  0  0  0  0
    3.0000   -3.8700    0.0000 H   0  0  0  0  0  0  0  0  0  0  0  0
  1  3  1  0  0  0  0
  1  4  1  0  0  0  0
  1  8  1  0  0  0  0
  1  9  1  0  0  0  0
  2  3  1  0  0  0  0
  2  5  1  0  0  0  0
  2  6  1  0  0  0  0
  2  7  1  0  0  0  0
  4 10  2  0  0  0  0
  4 12  1  0  0  0  0
  5 11  2  0  0  0  0
  5 13  1  0  0  0  0
  6 29  1  0  0  0  0
  6 30  1  0  0  0  0
  6 31  1  0  0  0  0
  7 26  1  0  0  0  0
  7 27  1  0  0  0  0
  7 28  1  0  0  0  0
  8 23  1  0  0  0  0
  8 24  1  0  0  0  0
  8 25  1  0  0  0  0
  9 20  1  0  0  0  0
  9 21  1  0  0  0  0
  9 22  1  0  0  0  0
 10 14  1  0  0  0  0
 10 33  1  0  0  0  0
 11 15  1  0  0  0  0
 11 32  1  0  0  0  0
 12 16  2  0  0  0  0
 12 35  1  0  0  0  0
 13 17  2  0  0  0  0
 13 34  1  0  0  0  0
 14 18  2  0  0  0  0
 14 37  1  0  0  0  0
 15 19  2  0  0  0  0
 15 36  1  0  0  0  0
 16 18  1  0  0  0  0
 16 39  1  0  0  0  0
 17 19  1  0  0  0  0
 17 38  1  0  0  0  0
 18 41  1  0  0  0  0
 19 40  1  0  0  0  0
M  END
> <PUBCHEM_COMPOUND_CID>
5945

> <PUBCHEM_COMPOUND_CANONICALIZED>
1

> <PUBCHEM_CACTVS_COMPLEXITY>
249

> <PUBCHEM_CACTVS_HBOND_ACCEPTOR>
1

> <PUBCHEM_CACTVS_HBOND_DONOR>
0

> <PUBCHEM_CACTVS_ROTATABLE_BOND>
4

> <PUBCHEM_CACTVS_SUBSKEYS>
AAADceB4IAwAAAAAAAAAAAAAAAAAAAAAAAAwYAAAAAAAAAABQAAAGBAAAEAACACAMAByAIAAAAGAACBCAAACAAAgAAAIiAAAAIgIICKAERCAIAAggAAIiAcAAAAAAAAAAAAAAAAAAAAAAAAAAAAAAAAAAA==

> <PUBCHEM_IUPAC_OPENEYE_NAME>
[dimethyl(phenyl)silyl]oxy-dimethyl-phenyl-silane

> <PUBCHEM_IUPAC_CAS_NAME>
[dimethyl(phenyl)silyl]oxy-dimethyl-phenylsilane

> <PUBCHEM_IUPAC_NAME>
[dimethyl(phenyl)silyl]oxy-dimethyl-phenylsilane

> <PUBCHEM_IUPAC_SYSTEMATIC_NAME>
[dimethyl(phenyl)silyl]oxy-dimethyl-phenyl-silane

> <PUBCHEM_IUPAC_TRADITIONAL_NAME>
[dimethyl(phenyl)silyl]oxy-dimethyl-phenyl-silane

> <PUBCHEM_IUPAC_INCHI>
InChI=1S/C16H22OSi2/c1-18(2,15-11-7-5-8-12-15)17-19(3,4)16-13-9-6-10-14-16/h5-14H,1-4H3

> <PUBCHEM_IUPAC_INCHIKEY>
YQJPWWLJDNCSCN-UHFFFAOYSA-N

> <PUBCHEM_EXACT_MASS>
286.120918

> <PUBCHEM_MOLECULAR_FORMULA>
C16H22OSi2

> <PUBCHEM_MOLECULAR_WEIGHT>
286.51628

> <PUBCHEM_OPENEYE_CAN_SMILES>
C[Si](C)(C1=CC=CC=C1)O[Si](C)(C)C2=CC=CC=C2

> <PUBCHEM_OPENEYE_ISO_SMILES>
C[Si](C)(C1=CC=CC=C1)O[Si](C)(C)C2=CC=CC=C2

> <PUBCHEM_CACTVS_TPSA>
9.2

> <PUBCHEM_MONOISOTOPIC_WEIGHT>
286.120918

> <PUBCHEM_TOTAL_CHARGE>
0

> <PUBCHEM_HEAVY_ATOM_COUNT>
19

> <PUBCHEM_ATOM_DEF_STEREO_COUNT>
0

> <PUBCHEM_ATOM_UDEF_STEREO_COUNT>
0

> <PUBCHEM_BOND_DEF_STEREO_COUNT>
0

> <PUBCHEM_BOND_UDEF_STEREO_COUNT>
0

> <PUBCHEM_ISOTOPIC_ATOM_COUNT>
0

> <PUBCHEM_COMPONENT_COUNT>
1

> <PUBCHEM_CACTVS_TAUTO_COUNT>
1

> <PUBCHEM_COORDINATE_TYPE>
1
5
255

> <PUBCHEM_BONDANNOTATIONS>
10  14  8
11  15  8
12  16  8
13  17  8
14  18  8
15  19  8
16  18  8
17  19  8
4  10  8
4  12  8
5  11  8
5  13  8

$$$$

