   Color/Form
        COLORLESS OR WHITE NEEDLES; TEND TO YELLOW ON EXPOSURE TO LIGHT
   from [1]HSDB

   Odor

     * POWERFUL WOODY-PHENOLIC, YET SOMEWHAT SWEET
     * MEDICINAL, PHENOLIC

   from [2]HSDB

   Taste
        SWEET SMOKEY
   from [3]HSDB

   Boiling Point
        217.9 DEG C
   from [4]HSDB

   Melting Point
        46 DEG C
   from [5]HSDB

   Density/Specific Gravity
        1.011 @ 20 DEG C
   from [6]HSDB

   Dissociation Constants

     * pK = 10.38 @ 20 deg C
     * pK = 10.0 at 25 deg C

   from [7]HSDB

   Octanol/Water Partition Coefficient
        Log Kow = 2.58
   from [8]HSDB

   Solubilities

     * SLIGHTLY SOL IN WATER; SOL IN ALC, ETHER, & BENZENE; SOL IN CARBON
       DISULFIDE, & ACETONE
     * In water, 4.90X10+3 mg/l at 25 deg C

   from [9]HSDB

   Spectral Properties

     * INDEX OF REFRACTION: 1.5239 @ 25 DEG C
     * IR: 18027 (Sadtler Research Laboratories IR Grating Collection)
     * UV: 15819 (Sadtler Research Laboratories Spectral Collection)
     * NMR: 8767 (Sadtler Research Laboratories Spectral Collection)
     * MASS: 508 (Atlas of Mass Spectral Data, John Wiley & Sons, New
       York)

   from [10]HSDB

   Vapor Pressure
        0.0372 mm Hg at 25 deg C.
   from [11]HSDB

   Other Chemical/Physical Properties
        Liquid Heat of Formation = 0.123319 cu m/kmol
   from [12]HSDB

   Computed Properties
   Molecular Weight                  122.1644 [g/mol]
   Molecular Formula                 C[8]H[10]O
   XLogP3                            2.6
   H-Bond Donor                      1
   H-Bond Acceptor                   1
   Rotatable Bond Count              1
   Tautomer Count                    2
   Exact Mass                        122.073165
   MonoIsotopic Mass                 122.073165
   Topological Polar Surface Area    20.2
   Heavy Atom Count                  9
   Formal Charge                     0
   Complexity                        72.6
   Isotope Atom Count                0
   Defined Atom Stereocenter Count   0
   Undefined Atom Stereocenter Count 0
   Defined Bond Stereocenter Count   0
   Undefined Bond Stereocenter Count 0
   Covalently-Bonded Unit Count      1
   Feature 3D Donor Count            1
   Feature 3D Hydrophobe Count       1
   Feature 3D Ring Count             1
   Effective Rotor Count             1
   Conformer Sampling RMSD           0.4
   CID Conformer Count               [13]2

References

   1. http://toxnet.nlm.nih.gov/cgi-bin/sis/search/r?dbs+hsdb:@term+@rn+@rel+123-07-9
   2. http://toxnet.nlm.nih.gov/cgi-bin/sis/search/r?dbs+hsdb:@term+@rn+@rel+123-07-9
   3. http://toxnet.nlm.nih.gov/cgi-bin/sis/search/r?dbs+hsdb:@term+@rn+@rel+123-07-9
   4. http://toxnet.nlm.nih.gov/cgi-bin/sis/search/r?dbs+hsdb:@term+@rn+@rel+123-07-9
   5. http://toxnet.nlm.nih.gov/cgi-bin/sis/search/r?dbs+hsdb:@term+@rn+@rel+123-07-9
   6. http://toxnet.nlm.nih.gov/cgi-bin/sis/search/r?dbs+hsdb:@term+@rn+@rel+123-07-9
   7. http://toxnet.nlm.nih.gov/cgi-bin/sis/search/r?dbs+hsdb:@term+@rn+@rel+123-07-9
   8. http://toxnet.nlm.nih.gov/cgi-bin/sis/search/r?dbs+hsdb:@term+@rn+@rel+123-07-9
   9. http://toxnet.nlm.nih.gov/cgi-bin/sis/search/r?dbs+hsdb:@term+@rn+@rel+123-07-9
  10. http://toxnet.nlm.nih.gov/cgi-bin/sis/search/r?dbs+hsdb:@term+@rn+@rel+123-07-9
  11. http://toxnet.nlm.nih.gov/cgi-bin/sis/search/r?dbs+hsdb:@term+@rn+@rel+123-07-9
  12. http://toxnet.nlm.nih.gov/cgi-bin/sis/search/r?dbs+hsdb:@term+@rn+@rel+123-07-9
  13. http://pubchem.ncbi.nlm.nih.gov/vw3d/vw3d.cgi?cid=31242
