5281895
  -OEChem-07051213012D

 68 72  0     1  0  0  0  0  0999 V2000
    3.4022   -3.2936    0.0000 S   0  0  0  0  0  0  0  0  0  0  0  0
   10.9163    0.5106    0.0000 O   0  0  0  0  0  0  0  0  0  0  0  0
   12.2054    1.6674    0.0000 O   0  0  0  0  0  0  0  0  0  0  0  0
   12.2520   -0.9780    0.0000 O   0  0  0  0  0  0  0  0  0  0  0  0
    4.2663   -3.7970    0.0000 O   0  0  0  0  0  0  0  0  0  0  0  0
   14.2090   -0.5655    0.0000 O   0  0  0  0  0  0  0  0  0  0  0  0
   14.8303    1.3355    0.0000 O   0  0  0  0  0  0  0  0  0  0  0  0
   12.8268    3.5684    0.0000 O   0  0  0  0  0  0  0  0  0  0  0  0
   14.4731    3.0303    0.0000 O   0  0  0  0  0  0  0  0  0  0  0  0
    2.5381   -2.7903    0.0000 O   0  0  0  0  0  0  0  0  0  0  0  0
    2.8989   -4.1577    0.0000 O   0  0  0  0  0  0  0  0  0  0  0  0
    3.9056   -2.4295    0.0000 O   0  0  0  0  0  0  0  0  0  0  0  0
    9.6594   -0.7446    0.0000 C   0  0  1  0  0  0  0  0  0  0  0  0
    9.6594   -1.7446    0.0000 C   0  0  2  0  0  0  0  0  0  0  0  0
    8.7934   -2.2446    0.0000 C   0  0  1  0  0  0  0  0  0  0  0  0
   10.6056   -0.4399    0.0000 C   0  0  2  0  0  0  0  0  0  0  0  0
    7.9273   -1.7446    0.0000 C   0  0  2  0  0  0  0  0  0  0  0  0
    8.7934   -0.2446    0.0000 C   0  0  0  0  0  0  0  0  0  0  0  0
   10.6056   -2.0494    0.0000 C   0  0  0  0  0  0  0  0  0  0  0  0
   11.1892   -1.2446    0.0000 C   0  0  0  0  0  0  0  0  0  0  0  0
    7.9273   -0.7446    0.0000 C   0  0  0  0  0  0  0  0  0  0  0  0
    8.8094   -3.2861    0.0000 C   0  0  0  0  0  0  0  0  0  0  0  0
    9.6594    0.2554    0.0000 C   0  0  0  0  0  0  0  0  0  0  0  0
    7.0173   -2.2515    0.0000 C   0  0  0  0  0  0  0  0  0  0  0  0
    7.9114   -3.8139    0.0000 C   0  0  0  0  0  0  0  0  0  0  0  0
    7.0093   -3.2931    0.0000 C   0  0  0  0  0  0  0  0  0  0  0  0
   11.8948    0.7168    0.0000 C   0  0  2  0  0  0  0  0  0  0  0  0
    6.0905   -1.6874    0.0000 C   0  0  0  0  0  0  0  0  0  0  0  0
    6.0739   -3.8428    0.0000 C   0  0  0  0  0  0  0  0  0  0  0  0
   12.5626   -0.0275    0.0000 C   0  0  1  0  0  0  0  0  0  0  0  0
    5.1426   -2.2153    0.0000 C   0  0  0  0  0  0  0  0  0  0  0  0
    5.1343   -3.3003    0.0000 C   0  0  0  0  0  0  0  0  0  0  0  0
   13.5411    0.1788    0.0000 C   0  0  2  0  0  0  0  0  0  0  0  0
   13.1840    1.8736    0.0000 C   0  0  1  0  0  0  0  0  0  0  0  0
   13.8518    1.1293    0.0000 C   0  0  1  0  0  0  0  0  0  0  0  0
   13.4946    2.8241    0.0000 C   0  0  0  0  0  0  0  0  0  0  0  0
    9.7493   -2.5899    0.0000 H   0  0  0  0  0  0  0  0  0  0  0  0
    9.5328   -2.6640    0.0000 H   0  0  0  0  0  0  0  0  0  0  0  0
   10.1682   -0.0005    0.0000 H   0  0  0  0  0  0  0  0  0  0  0  0
    8.6635   -1.3196    0.0000 H   0  0  0  0  0  0  0  0  0  0  0  0
    9.1919    0.2303    0.0000 H   0  0  0  0  0  0  0  0  0  0  0  0
    8.3948    0.2303    0.0000 H   0  0  0  0  0  0  0  0  0  0  0  0
   10.3546   -2.6163    0.0000 H   0  0  0  0  0  0  0  0  0  0  0  0
   11.1430   -2.3586    0.0000 H   0  0  0  0  0  0  0  0  0  0  0  0
   11.6501   -1.6594    0.0000 H   0  0  0  0  0  0  0  0  0  0  0  0
   11.6501   -0.8299    0.0000 H   0  0  0  0  0  0  0  0  0  0  0  0
    7.7153   -0.1620    0.0000 H   0  0  0  0  0  0  0  0  0  0  0  0
    7.3168   -0.8523    0.0000 H   0  0  0  0  0  0  0  0  0  0  0  0
    9.0275   -3.8665    0.0000 H   0  0  0  0  0  0  0  0  0  0  0  0
    9.4186   -3.1706    0.0000 H   0  0  0  0  0  0  0  0  0  0  0  0
   10.2794    0.2554    0.0000 H   0  0  0  0  0  0  0  0  0  0  0  0
    9.6594    0.8754    0.0000 H   0  0  0  0  0  0  0  0  0  0  0  0
    9.0394    0.2554    0.0000 H   0  0  0  0  0  0  0  0  0  0  0  0
    7.5141   -4.2899    0.0000 H   0  0  0  0  0  0  0  0  0  0  0  0
    8.3124   -4.2868    0.0000 H   0  0  0  0  0  0  0  0  0  0  0  0
   11.7022    0.1275    0.0000 H   0  0  0  0  0  0  0  0  0  0  0  0
    6.1024   -1.0675    0.0000 H   0  0  0  0  0  0  0  0  0  0  0  0
    6.0763   -4.4628    0.0000 H   0  0  0  0  0  0  0  0  0  0  0  0
   12.9767   -0.4889    0.0000 H   0  0  0  0  0  0  0  0  0  0  0  0
    4.6093   -1.8992    0.0000 H   0  0  0  0  0  0  0  0  0  0  0  0
   13.3485   -0.4106    0.0000 H   0  0  0  0  0  0  0  0  0  0  0  0
   12.7699    2.3350    0.0000 H   0  0  0  0  0  0  0  0  0  0  0  0
   14.0444    1.7186    0.0000 H   0  0  0  0  0  0  0  0  0  0  0  0
   12.6660   -1.4394    0.0000 H   0  0  0  0  0  0  0  0  0  0  0  0
   14.0164   -1.1549    0.0000 H   0  0  0  0  0  0  0  0  0  0  0  0
   15.2444    0.8740    0.0000 H   0  0  0  0  0  0  0  0  0  0  0  0
   13.0194    4.1577    0.0000 H   0  0  0  0  0  0  0  0  0  0  0  0
    2.0000   -3.0982    0.0000 H   0  0  0  0  0  0  0  0  0  0  0  0
  1  5  1  0  0  0  0
  1 10  1  0  0  0  0
  1 11  2  0  0  0  0
  1 12  2  0  0  0  0
 16  2  1  1  0  0  0
 27  2  1  6  0  0  0
  3 27  1  0  0  0  0
  3 34  1  0  0  0  0
 30  4  1  1  0  0  0
  4 64  1  0  0  0  0
  5 32  1  0  0  0  0
 33  6  1  6  0  0  0
  6 65  1  0  0  0  0
 35  7  1  1  0  0  0
  7 66  1  0  0  0  0
  8 36  1  0  0  0  0
  8 67  1  0  0  0  0
  9 36  2  0  0  0  0
 10 68  1  0  0  0  0
 13 14  1  0  0  0  0
 13 16  1  0  0  0  0
 13 18  1  0  0  0  0
 13 23  1  1  0  0  0
 14 15  1  0  0  0  0
 14 19  1  0  0  0  0
 14 37  1  6  0  0  0
 15 17  1  0  0  0  0
 15 22  1  0  0  0  0
 15 38  1  1  0  0  0
 16 20  1  0  0  0  0
 16 39  1  0  0  0  0
 17 21  1  0  0  0  0
 17 24  1  0  0  0  0
 17 40  1  6  0  0  0
 18 21  1  0  0  0  0
 18 41  1  0  0  0  0
 18 42  1  0  0  0  0
 19 20  1  0  0  0  0
 19 43  1  0  0  0  0
 19 44  1  0  0  0  0
 20 45  1  0  0  0  0
 20 46  1  0  0  0  0
 21 47  1  0  0  0  0
 21 48  1  0  0  0  0
 22 25  1  0  0  0  0
 22 49  1  0  0  0  0
 22 50  1  0  0  0  0
 23 51  1  0  0  0  0
 23 52  1  0  0  0  0
 23 53  1  0  0  0  0
 24 26  2  0  0  0  0
 24 28  1  0  0  0  0
 25 26  1  0  0  0  0
 25 54  1  0  0  0  0
 25 55  1  0  0  0  0
 26 29  1  0  0  0  0
 27 30  1  0  0  0  0
 27 56  1  0  0  0  0
 28 31  2  0  0  0  0
 28 57  1  0  0  0  0
 29 32  2  0  0  0  0
 29 58  1  0  0  0  0
 30 33  1  0  0  0  0
 30 59  1  0  0  0  0
 31 32  1  0  0  0  0
 31 60  1  0  0  0  0
 33 35  1  0  0  0  0
 33 61  1  0  0  0  0
 34 35  1  0  0  0  0
 34 36  1  6  0  0  0
 34 62  1  0  0  0  0
 35 63  1  0  0  0  0
M  END
> <PUBCHEM_COMPOUND_CID>
5281895

> <PUBCHEM_COMPOUND_CANONICALIZED>
1

> <PUBCHEM_CACTVS_COMPLEXITY>
937

> <PUBCHEM_CACTVS_HBOND_ACCEPTOR>
11

> <PUBCHEM_CACTVS_HBOND_DONOR>
5

> <PUBCHEM_CACTVS_ROTATABLE_BOND>
5

> <PUBCHEM_CACTVS_SUBSKEYS>
AAADcfB4PABAAAAAAAAAAAAAAAAAAYAAAAA0YMEAAAAAAGDBAAAAGgAACAAADxSwmAMyDoAABoCIAiDSCDICAAAgIAAIiAFGCIgZNjaAERaicAAl4BEPiAfK7PxPoAABAAAQAADAAAYAACAAAIAADAAAAA==

> <PUBCHEM_IUPAC_OPENEYE_NAME>
(2S,3S,4S,5R,6R)-3,4,5-trihydroxy-6-[[(8R,9S,13S,14S,17S)-13-methyl-3-sulfooxy-6,7,8,9,11,12,14,15,16,17-decahydrocyclopenta[a]phenanthren-17-yl]oxy]tetrahydropyran-2-carboxylic acid

> <PUBCHEM_IUPAC_CAS_NAME>
(2S,3S,4S,5R,6R)-3,4,5-trihydroxy-6-[[(8R,9S,13S,14S,17S)-13-methyl-3-sulfooxy-6,7,8,9,11,12,14,15,16,17-decahydrocyclopenta[a]phenanthren-17-yl]oxy]-2-oxanecarboxylic acid

> <PUBCHEM_IUPAC_NAME>
(2S,3S,4S,5R,6R)-3,4,5-trihydroxy-6-[[(8R,9S,13S,14S,17S)-13-methyl-3-sulfooxy-6,7,8,9,11,12,14,15,16,17-decahydrocyclopenta[a]phenanthren-17-yl]oxy]oxane-2-carboxylic acid

> <PUBCHEM_IUPAC_SYSTEMATIC_NAME>
(2S,3S,4S,5R,6R)-6-[[(8R,9S,13S,14S,17S)-13-methyl-3-sulfooxy-6,7,8,9,11,12,14,15,16,17-decahydrocyclopenta[a]phenanthren-17-yl]oxy]-3,4,5-tris(oxidanyl)oxane-2-carboxylic acid

> <PUBCHEM_IUPAC_TRADITIONAL_NAME>
(2S,3S,4S,5R,6R)-3,4,5-trihydroxy-6-[[(8R,9S,13S,14S,17S)-13-methyl-3-sulfoxy-6,7,8,9,11,12,14,15,16,17-decahydrocyclopenta[a]phenanthren-17-yl]oxy]tetrahydropyran-2-carboxylic acid

> <PUBCHEM_IUPAC_INCHI>
InChI=1S/C24H32O11S/c1-24-9-8-14-13-5-3-12(35-36(30,31)32)10-11(13)2-4-15(14)16(24)6-7-17(24)33-23-20(27)18(25)19(26)21(34-23)22(28)29/h3,5,10,14-21,23,25-27H,2,4,6-9H2,1H3,(H,28,29)(H,30,31,32)/t14-,15-,16+,17+,18+,19+,20-,21+,23-,24+/m1/s1

> <PUBCHEM_IUPAC_INCHIKEY>
VRMSCBRLZUCJBX-QXYWQCSFSA-N

> <PUBCHEM_XLOGP3_AA>
2

> <PUBCHEM_EXACT_MASS>
528.166533

> <PUBCHEM_MOLECULAR_FORMULA>
C24H32O11S

> <PUBCHEM_MOLECULAR_WEIGHT>
528.56928

> <PUBCHEM_OPENEYE_CAN_SMILES>
CC12CCC3C(C1CCC2OC4C(C(C(C(O4)C(=O)O)O)O)O)CCC5=C3C=CC(=C5)OS(=O)(=O)O

> <PUBCHEM_OPENEYE_ISO_SMILES>
C[C@]12CC[C@H]3[C@H]([C@@H]1CC[C@@H]2O[C@H]4[C@@H]([C@H]([C@@H]([C@H](O4)C(=O)O)O)O)O)CCC5=C3C=CC(=C5)OS(=O)(=O)O

> <PUBCHEM_CACTVS_TPSA>
188

> <PUBCHEM_MONOISOTOPIC_WEIGHT>
528.166533

> <PUBCHEM_TOTAL_CHARGE>
0

> <PUBCHEM_HEAVY_ATOM_COUNT>
36

> <PUBCHEM_ATOM_DEF_STEREO_COUNT>
10

> <PUBCHEM_ATOM_UDEF_STEREO_COUNT>
0

> <PUBCHEM_BOND_DEF_STEREO_COUNT>
0

> <PUBCHEM_BOND_UDEF_STEREO_COUNT>
0

> <PUBCHEM_ISOTOPIC_ATOM_COUNT>
0

> <PUBCHEM_COMPONENT_COUNT>
1

> <PUBCHEM_CACTVS_TAUTO_COUNT>
1

> <PUBCHEM_COORDINATE_TYPE>
1
5
255

> <PUBCHEM_BONDANNOTATIONS>
13  23  5
14  37  6
15  38  5
17  40  6
16  2  5
27  2  6
24  26  8
24  28  8
26  29  8
28  31  8
29  32  8
31  32  8
34  36  6
30  4  5
33  6  6
35  7  5

$$$$

