5281582
  -OEChem-07051212582D

 96100  0     1  0  0  0  0  0999 V2000
    6.0097    4.6698    0.0000 O   0  0  0  0  0  0  0  0  0  0  0  0
    6.3587    0.7934    0.0000 O   0  0  0  0  0  0  0  0  0  0  0  0
    6.5131    3.8058    0.0000 O   0  0  0  0  0  0  0  0  0  0  0  0
    3.0181   -0.5632    0.0000 O   0  0  0  0  0  0  0  0  0  0  0  0
    9.5274    3.7934    0.0000 O   0  0  0  0  0  0  0  0  0  0  0  0
    5.3406    2.1946    0.0000 N   0  0  0  0  0  0  0  0  0  0  0  0
    4.7406   -0.3822    0.0000 N   0  0  0  0  0  0  0  0  0  0  0  0
    7.5097    2.0718    0.0000 N   0  0  0  0  0  0  0  0  0  0  0  0
    4.9497   -2.3712    0.0000 N   0  0  0  0  0  0  0  0  0  0  0  0
   10.0097    2.9378    0.0000 N   0  0  0  0  0  0  0  0  0  0  0  0
    6.0097    2.9378    0.0000 C   0  0  1  0  0  0  0  0  0  0  0  0
    5.5097    3.8038    0.0000 C   0  0  2  0  0  0  0  0  0  0  0  0
    4.5316    3.5959    0.0000 C   0  0  0  0  0  0  0  0  0  0  0  0
    4.4271    2.6014    0.0000 C   0  0  0  0  0  0  0  0  0  0  0  0
    4.6361    0.6123    0.0000 C   0  0  2  0  0  0  0  0  0  0  0  0
    5.4451    1.2001    0.0000 C   0  0  0  0  0  0  0  0  0  0  0  0
    3.7226    1.0191    0.0000 C   0  0  2  0  0  0  0  0  0  0  0  0
    7.0097    2.9378    0.0000 C   0  0  0  0  0  0  0  0  0  0  0  0
    2.9136    0.4313    0.0000 C   0  0  0  0  0  0  0  0  0  0  0  0
    3.6180    2.0136    0.0000 C   0  0  0  0  0  0  0  0  0  0  0  0
    8.5097    2.0718    0.0000 C   0  0  1  0  0  0  0  0  0  0  0  0
    7.0097    4.6698    0.0000 C   0  0  0  0  0  0  0  0  0  0  0  0
    3.9316   -0.9700    0.0000 C   0  0  0  0  0  0  0  0  0  0  0  0
    4.0362   -1.9645    0.0000 C   0  0  2  0  0  0  0  0  0  0  0  0
    2.0000    0.8380    0.0000 C   0  0  0  0  0  0  0  0  0  0  0  0
    9.0097    1.2057    0.0000 C   0  0  0  0  0  0  0  0  0  0  0  0
    3.2271   -2.5523    0.0000 C   0  0  0  0  0  0  0  0  0  0  0  0
    9.0097    2.9378    0.0000 C   0  0  0  0  0  0  0  0  0  0  0  0
    7.5097    3.8038    0.0000 C   0  0  0  0  0  0  0  0  0  0  0  0
    7.5097    5.5358    0.0000 C   0  0  0  0  0  0  0  0  0  0  0  0
    8.5097    0.3397    0.0000 C   0  0  0  0  0  0  0  0  0  0  0  0
    8.5097    3.8038    0.0000 C   0  0  0  0  0  0  0  0  0  0  0  0
    8.5097    5.5358    0.0000 C   0  0  0  0  0  0  0  0  0  0  0  0
    9.0097    4.6698    0.0000 C   0  0  0  0  0  0  0  0  0  0  0  0
    3.3317   -3.5468    0.0000 C   0  0  0  0  0  0  0  0  0  0  0  0
    5.0542   -3.3658    0.0000 C   0  0  0  0  0  0  0  0  0  0  0  0
    5.7587   -1.7834    0.0000 C   0  0  0  0  0  0  0  0  0  0  0  0
   10.0097    4.6698    0.0000 C   0  0  0  0  0  0  0  0  0  0  0  0
    7.5097    0.3397    0.0000 C   0  0  0  0  0  0  0  0  0  0  0  0
    9.0097   -0.5263    0.0000 C   0  0  0  0  0  0  0  0  0  0  0  0
   10.5097    3.8038    0.0000 C   0  0  0  0  0  0  0  0  0  0  0  0
    2.5226   -4.1346    0.0000 C   0  0  0  0  0  0  0  0  0  0  0  0
    4.2452   -3.9536    0.0000 C   0  0  0  0  0  0  0  0  0  0  0  0
    7.0097   -0.5263    0.0000 C   0  0  0  0  0  0  0  0  0  0  0  0
    8.5097   -1.3924    0.0000 C   0  0  0  0  0  0  0  0  0  0  0  0
    2.6272   -5.1291    0.0000 C   0  0  0  0  0  0  0  0  0  0  0  0
    4.3497   -4.9481    0.0000 C   0  0  0  0  0  0  0  0  0  0  0  0
    7.5097   -1.3924    0.0000 C   0  0  0  0  0  0  0  0  0  0  0  0
    3.5407   -5.5358    0.0000 C   0  0  0  0  0  0  0  0  0  0  0  0
    6.3555    2.1613    0.0000 H   0  0  0  0  0  0  0  0  0  0  0  0
    5.0101    4.4915    0.0000 H   0  0  0  0  0  0  0  0  0  0  0  0
    4.4668    4.2125    0.0000 H   0  0  0  0  0  0  0  0  0  0  0  0
    3.9116    3.5959    0.0000 H   0  0  0  0  0  0  0  0  0  0  0  0
    3.8206    2.7303    0.0000 H   0  0  0  0  0  0  0  0  0  0  0  0
    4.2355    2.0117    0.0000 H   0  0  0  0  0  0  0  0  0  0  0  0
    5.2025    0.3602    0.0000 H   0  0  0  0  0  0  0  0  0  0  0  0
    4.2242    1.3835    0.0000 H   0  0  0  0  0  0  0  0  0  0  0  0
    2.5668   -0.0827    0.0000 H   0  0  0  0  0  0  0  0  0  0  0  0
    3.3595    0.0006    0.0000 H   0  0  0  0  0  0  0  0  0  0  0  0
    5.3070   -0.6344    0.0000 H   0  0  0  0  0  0  0  0  0  0  0  0
    7.1997    1.5348    0.0000 H   0  0  0  0  0  0  0  0  0  0  0  0
    4.2346    2.0784    0.0000 H   0  0  0  0  0  0  0  0  0  0  0  0
    3.5532    2.6302    0.0000 H   0  0  0  0  0  0  0  0  0  0  0  0
    3.0014    1.9488    0.0000 H   0  0  0  0  0  0  0  0  0  0  0  0
    8.1997    1.5348    0.0000 H   0  0  0  0  0  0  0  0  0  0  0  0
    4.5377   -1.6001    0.0000 H   0  0  0  0  0  0  0  0  0  0  0  0
    2.2522    1.4044    0.0000 H   0  0  0  0  0  0  0  0  0  0  0  0
    1.4336    1.0902    0.0000 H   0  0  0  0  0  0  0  0  0  0  0  0
    1.7478    0.2716    0.0000 H   0  0  0  0  0  0  0  0  0  0  0  0
    9.4847    0.8072    0.0000 H   0  0  0  0  0  0  0  0  0  0  0  0
    9.4847    1.6043    0.0000 H   0  0  0  0  0  0  0  0  0  0  0  0
    2.9553   -1.9950    0.0000 H   0  0  0  0  0  0  0  0  0  0  0  0
    2.6312   -2.7232    0.0000 H   0  0  0  0  0  0  0  0  0  0  0  0
    7.1997    3.2669    0.0000 H   0  0  0  0  0  0  0  0  0  0  0  0
    7.1997    6.0728    0.0000 H   0  0  0  0  0  0  0  0  0  0  0  0
    8.8197    3.2669    0.0000 H   0  0  0  0  0  0  0  0  0  0  0  0
    8.8197    6.0728    0.0000 H   0  0  0  0  0  0  0  0  0  0  0  0
   10.3197    2.4008    0.0000 H   0  0  0  0  0  0  0  0  0  0  0  0
    4.4376   -3.4306    0.0000 H   0  0  0  0  0  0  0  0  0  0  0  0
    5.1190   -3.9824    0.0000 H   0  0  0  0  0  0  0  0  0  0  0  0
    5.6708   -3.3010    0.0000 H   0  0  0  0  0  0  0  0  0  0  0  0
    6.1231   -2.2850    0.0000 H   0  0  0  0  0  0  0  0  0  0  0  0
    6.2603   -1.4190    0.0000 H   0  0  0  0  0  0  0  0  0  0  0  0
    5.3943   -1.2819    0.0000 H   0  0  0  0  0  0  0  0  0  0  0  0
   10.3197    5.2068    0.0000 H   0  0  0  0  0  0  0  0  0  0  0  0
    7.1997    0.8766    0.0000 H   0  0  0  0  0  0  0  0  0  0  0  0
    9.6297   -0.5263    0.0000 H   0  0  0  0  0  0  0  0  0  0  0  0
   11.1297    3.8038    0.0000 H   0  0  0  0  0  0  0  0  0  0  0  0
    1.9562   -3.8824    0.0000 H   0  0  0  0  0  0  0  0  0  0  0  0
    4.7468   -3.5891    0.0000 H   0  0  0  0  0  0  0  0  0  0  0  0
    6.3897   -0.5263    0.0000 H   0  0  0  0  0  0  0  0  0  0  0  0
    8.8197   -1.9293    0.0000 H   0  0  0  0  0  0  0  0  0  0  0  0
    2.1256   -5.4936    0.0000 H   0  0  0  0  0  0  0  0  0  0  0  0
    4.9161   -5.2002    0.0000 H   0  0  0  0  0  0  0  0  0  0  0  0
    7.1997   -1.9293    0.0000 H   0  0  0  0  0  0  0  0  0  0  0  0
    3.6055   -6.1525    0.0000 H   0  0  0  0  0  0  0  0  0  0  0  0
  1 12  1  0  0  0  0
  1 22  1  0  0  0  0
  2 16  2  0  0  0  0
  3 18  2  0  0  0  0
  4 23  2  0  0  0  0
  5 28  2  0  0  0  0
  6 11  1  0  0  0  0
  6 14  1  0  0  0  0
  6 16  1  0  0  0  0
 15  7  1  1  0  0  0
  7 23  1  0  0  0  0
  7 60  1  0  0  0  0
  8 18  1  0  0  0  0
  8 21  1  0  0  0  0
  8 61  1  0  0  0  0
 24  9  1  1  0  0  0
  9 36  1  0  0  0  0
  9 37  1  0  0  0  0
 10 28  1  0  0  0  0
 10 41  1  0  0  0  0
 10 78  1  0  0  0  0
 11 12  1  0  0  0  0
 11 18  1  0  0  0  0
 11 50  1  6  0  0  0
 12 13  1  0  0  0  0
 12 51  1  1  0  0  0
 13 14  1  0  0  0  0
 13 52  1  0  0  0  0
 13 53  1  0  0  0  0
 14 54  1  0  0  0  0
 14 55  1  0  0  0  0
 15 16  1  0  0  0  0
 15 17  1  0  0  0  0
 15 56  1  0  0  0  0
 17 19  1  0  0  0  0
 17 20  1  6  0  0  0
 17 57  1  0  0  0  0
 19 25  1  0  0  0  0
 19 58  1  0  0  0  0
 19 59  1  0  0  0  0
 20 62  1  0  0  0  0
 20 63  1  0  0  0  0
 20 64  1  0  0  0  0
 21 26  1  6  0  0  0
 21 28  1  0  0  0  0
 21 65  1  0  0  0  0
 22 29  2  0  0  0  0
 22 30  1  0  0  0  0
 23 24  1  0  0  0  0
 24 27  1  0  0  0  0
 24 66  1  0  0  0  0
 25 67  1  0  0  0  0
 25 68  1  0  0  0  0
 25 69  1  0  0  0  0
 26 31  1  0  0  0  0
 26 70  1  0  0  0  0
 26 71  1  0  0  0  0
 27 35  1  0  0  0  0
 27 72  1  0  0  0  0
 27 73  1  0  0  0  0
 29 32  1  0  0  0  0
 29 74  1  0  0  0  0
 30 33  2  0  0  0  0
 30 75  1  0  0  0  0
 31 39  2  0  0  0  0
 31 40  1  0  0  0  0
 32 34  2  0  0  0  0
 32 76  1  0  0  0  0
 33 34  1  0  0  0  0
 33 77  1  0  0  0  0
 34 38  1  0  0  0  0
 35 42  2  0  0  0  0
 35 43  1  0  0  0  0
 36 79  1  0  0  0  0
 36 80  1  0  0  0  0
 36 81  1  0  0  0  0
 37 82  1  0  0  0  0
 37 83  1  0  0  0  0
 37 84  1  0  0  0  0
 38 41  2  0  0  0  0
 38 85  1  0  0  0  0
 39 44  1  0  0  0  0
 39 86  1  0  0  0  0
 40 45  2  0  0  0  0
 40 87  1  0  0  0  0
 41 88  1  0  0  0  0
 42 46  1  0  0  0  0
 42 89  1  0  0  0  0
 43 47  2  0  0  0  0
 43 90  1  0  0  0  0
 44 48  2  0  0  0  0
 44 91  1  0  0  0  0
 45 48  1  0  0  0  0
 45 92  1  0  0  0  0
 46 49  2  0  0  0  0
 46 93  1  0  0  0  0
 47 49  1  0  0  0  0
 47 94  1  0  0  0  0
 48 95  1  0  0  0  0
 49 96  1  0  0  0  0
M  END
> <PUBCHEM_COMPOUND_CID>
5281582

> <PUBCHEM_COMPOUND_CANONICALIZED>
1

> <PUBCHEM_CACTVS_COMPLEXITY>
1140

> <PUBCHEM_CACTVS_HBOND_ACCEPTOR>
6

> <PUBCHEM_CACTVS_HBOND_DONOR>
3

> <PUBCHEM_CACTVS_ROTATABLE_BOND>
10

> <PUBCHEM_CACTVS_SUBSKEYS>
AAADcfB/uAAAAAAAAAAAAAAAAAAAAWAAAAAwYMAAAAAAAAABUAAAHgAQAAAADTzhmAYyBoPABACIAiFWUAACCAAgIgAIiIGOCIgOZjaEsTuXOCCm9hGYqAeYyYCOIAAAAAAAAABAAAAAAAAAAAAAAAAAAA==

> <PUBCHEM_IUPAC_INCHI>
InChI=1S/C39H47N5O5/c1-5-26(2)34(42-37(46)32(43(3)4)25-29-14-10-7-11-15-29)39(48)44-23-21-33-35(44)38(47)41-31(24-28-12-8-6-9-13-28)36(45)40-22-20-27-16-18-30(49-33)19-17-27/h6-20,22,26,31-35H,5,21,23-25H2,1-4H3,(H,40,45)(H,41,47)(H,42,46)/b22-20-/t26-,31-,32-,33-,34-,35-/m0/s1

> <PUBCHEM_IUPAC_INCHIKEY>
BZXBQQGSSIQELG-HVQQJYASSA-N

> <PUBCHEM_XLOGP3_AA>
5.6

> <PUBCHEM_EXACT_MASS>
665.35772

> <PUBCHEM_MOLECULAR_FORMULA>
C39H47N5O5

> <PUBCHEM_MOLECULAR_WEIGHT>
665.82098

> <PUBCHEM_OPENEYE_CAN_SMILES>
CCC(C)C(C(=O)N1CCC2C1C(=O)NC(C(=O)NC=CC3=CC=C(O2)C=C3)CC4=CC=CC=C4)NC(=O)C(CC5=CC=CC=C5)N(C)C

> <PUBCHEM_OPENEYE_ISO_SMILES>
CC[C@H](C)[C@@H](C(=O)N1CC[C@H]2[C@H]1C(=O)N[C@H](C(=O)N/C=C\C3=CC=C(O2)C=C3)CC4=CC=CC=C4)NC(=O)[C@H](CC5=CC=CC=C5)N(C)C

> <PUBCHEM_CACTVS_TPSA>
120

> <PUBCHEM_MONOISOTOPIC_WEIGHT>
665.35772

> <PUBCHEM_TOTAL_CHARGE>
0

> <PUBCHEM_HEAVY_ATOM_COUNT>
49

> <PUBCHEM_ATOM_DEF_STEREO_COUNT>
6

> <PUBCHEM_ATOM_UDEF_STEREO_COUNT>
0

> <PUBCHEM_BOND_DEF_STEREO_COUNT>
1

> <PUBCHEM_BOND_UDEF_STEREO_COUNT>
0

> <PUBCHEM_ISOTOPIC_ATOM_COUNT>
0

> <PUBCHEM_COMPONENT_COUNT>
1

> <PUBCHEM_CACTVS_TAUTO_COUNT>
12

> <PUBCHEM_COORDINATE_TYPE>
1
5
255

> <PUBCHEM_BONDANNOTATIONS>
11  50  6
12  51  5
17  20  6
21  26  6
22  29  8
22  30  8
29  32  8
30  33  8
31  39  8
31  40  8
32  34  8
33  34  8
35  42  8
35  43  8
39  44  8
40  45  8
42  46  8
43  47  8
44  48  8
45  48  8
46  49  8
47  49  8
15  7  5
24  9  5

$$$$

