   Color/Form

     * YELLOW CRYSTALLINE LEAFLETS
     * Yellow, leaf-shaped crystals.

   from [1]HSDB

   Melting Point
        114-117 DEG C
   from [2]HSDB

   Octanol/Water Partition Coefficient
        log Kow= 4.58
   from [3]HSDB

   Solubilities

     * SOL IN ALCOHOL, BENZENE, CHLOROFORM; SOL IN ETHER, PETROLEUM ETHER,
       MINERAL ACIDS, OILS.
     * VERY SOL IN PYRIDINE.
     * Water solubility of 13.6 ppm.

   from [4]HSDB

   Spectral Properties

     * MAX ABSORPTION (ALCOHOL): 410 NM (LOG E= 4.44)
     * Intense mass spectral peaks: 120 m/z (100%), 225 m/z (73%), 77 m/z
       (58%), 42 m/z (38%).
     * IR: 347 (Sadtler Research Laboratories Prism Collection).
     * UV: 123 (Sadtler Research Laboratories Spectral Collection).
     * NMR: 10351 (Sadtler Research Laboratories Spectral Collection).

   from [5]HSDB

   Vapor Pressure
        3.3X10-7 mm Hg (est).
   from [6]HSDB

   Other Chemical/Physical Properties
        Henry's Law constant= 7.1X10-9 atm-cu m/mol (calculated).
   from [7]HSDB

   Computed Properties
   Molecular Weight                  225.289 [g/mol]
   Molecular Formula                 C[14]H[15]N[3]
   XLogP3                            4.6
   H-Bond Donor                      0
   H-Bond Acceptor                   3
   Rotatable Bond Count              3
   Exact Mass                        225.126597
   MonoIsotopic Mass                 225.126597
   Topological Polar Surface Area    28
   Heavy Atom Count                  17
   Formal Charge                     0
   Complexity                        236
   Isotope Atom Count                0
   Defined Atom Stereocenter Count   0
   Undefined Atom Stereocenter Count 0
   Defined Bond Stereocenter Count   0
   Undefined Bond Stereocenter Count 0
   Covalently-Bonded Unit Count      1
   Feature 3D Cation Count           1
   Feature 3D Ring Count             2
   Effective Rotor Count             3
   Conformer Sampling RMSD           0.6
   CID Conformer Count               [8]4

References

   1. http://toxnet.nlm.nih.gov/cgi-bin/sis/search/r?dbs+hsdb:@term+@rn+@rel+60-11-7
   2. http://toxnet.nlm.nih.gov/cgi-bin/sis/search/r?dbs+hsdb:@term+@rn+@rel+60-11-7
   3. http://toxnet.nlm.nih.gov/cgi-bin/sis/search/r?dbs+hsdb:@term+@rn+@rel+60-11-7
   4. http://toxnet.nlm.nih.gov/cgi-bin/sis/search/r?dbs+hsdb:@term+@rn+@rel+60-11-7
   5. http://toxnet.nlm.nih.gov/cgi-bin/sis/search/r?dbs+hsdb:@term+@rn+@rel+60-11-7
   6. http://toxnet.nlm.nih.gov/cgi-bin/sis/search/r?dbs+hsdb:@term+@rn+@rel+60-11-7
   7. http://toxnet.nlm.nih.gov/cgi-bin/sis/search/r?dbs+hsdb:@term+@rn+@rel+60-11-7
   8. http://pubchem.ncbi.nlm.nih.gov/vw3d/vw3d.cgi?cid=6053
