91752
  -OEChem-07051213112D

 38 37  0     1  0  0  0  0  0999 V2000
    6.3301   -0.2990    0.0000 S   0  0  0  0  0  0  0  0  0  0  0  0
    4.5981   -1.2990    0.0000 S   0  0  0  0  0  0  0  0  0  0  0  0
    5.4641   -0.7990    0.0000 P   0  0  0  0  0  0  0  0  0  0  0  0
    4.9641    0.0670    0.0000 O   0  0  0  0  0  0  0  0  0  0  0  0
    5.9641   -1.6651    0.0000 O   0  0  0  0  0  0  0  0  0  0  0  0
    7.1962   -0.7990    0.0000 C   0  0  3  0  0  0  0  0  0  0  0  0
    3.7320   -0.7990    0.0000 C   0  0  3  0  0  0  0  0  0  0  0  0
    8.0622   -0.2990    0.0000 C   0  0  0  0  0  0  0  0  0  0  0  0
    2.8660   -1.2990    0.0000 C   0  0  0  0  0  0  0  0  0  0  0  0
    7.1962   -1.7990    0.0000 C   0  0  0  0  0  0  0  0  0  0  0  0
    3.7320    0.2010    0.0000 C   0  0  0  0  0  0  0  0  0  0  0  0
    8.9282   -0.7990    0.0000 C   0  0  0  0  0  0  0  0  0  0  0  0
    2.0000   -0.7990    0.0000 C   0  0  0  0  0  0  0  0  0  0  0  0
    5.4641    0.9330    0.0000 C   0  0  0  0  0  0  0  0  0  0  0  0
    4.9641    1.7990    0.0000 C   0  0  0  0  0  0  0  0  0  0  0  0
    6.6592   -1.1090    0.0000 H   0  0  0  0  0  0  0  0  0  0  0  0
    4.2690   -0.4890    0.0000 H   0  0  0  0  0  0  0  0  0  0  0  0
    2.4675   -1.7740    0.0000 H   0  0  0  0  0  0  0  0  0  0  0  0
    3.2646   -1.7740    0.0000 H   0  0  0  0  0  0  0  0  0  0  0  0
    8.4607    0.1759    0.0000 H   0  0  0  0  0  0  0  0  0  0  0  0
    7.6636    0.1759    0.0000 H   0  0  0  0  0  0  0  0  0  0  0  0
    4.3520    0.2010    0.0000 H   0  0  0  0  0  0  0  0  0  0  0  0
    3.7320    0.8210    0.0000 H   0  0  0  0  0  0  0  0  0  0  0  0
    3.1120    0.2010    0.0000 H   0  0  0  0  0  0  0  0  0  0  0  0
    6.5762   -1.7990    0.0000 H   0  0  0  0  0  0  0  0  0  0  0  0
    7.1962   -2.4190    0.0000 H   0  0  0  0  0  0  0  0  0  0  0  0
    7.8162   -1.7990    0.0000 H   0  0  0  0  0  0  0  0  0  0  0  0
    2.3100   -0.2621    0.0000 H   0  0  0  0  0  0  0  0  0  0  0  0
    1.4631   -0.4890    0.0000 H   0  0  0  0  0  0  0  0  0  0  0  0
    1.6900   -1.3360    0.0000 H   0  0  0  0  0  0  0  0  0  0  0  0
    8.6182   -1.3360    0.0000 H   0  0  0  0  0  0  0  0  0  0  0  0
    9.4651   -1.1090    0.0000 H   0  0  0  0  0  0  0  0  0  0  0  0
    9.2382   -0.2621    0.0000 H   0  0  0  0  0  0  0  0  0  0  0  0
    5.9390    0.5345    0.0000 H   0  0  0  0  0  0  0  0  0  0  0  0
    5.9390    1.3315    0.0000 H   0  0  0  0  0  0  0  0  0  0  0  0
    5.5010    2.1090    0.0000 H   0  0  0  0  0  0  0  0  0  0  0  0
    4.6541    2.3360    0.0000 H   0  0  0  0  0  0  0  0  0  0  0  0
    4.4272    1.4890    0.0000 H   0  0  0  0  0  0  0  0  0  0  0  0
  1  3  1  0  0  0  0
  1  6  1  0  0  0  0
  2  3  1  0  0  0  0
  2  7  1  0  0  0  0
  3  4  1  0  0  0  0
  3  5  2  0  0  0  0
  4 14  1  0  0  0  0
  6  8  1  0  0  0  0
  6 10  1  0  0  0  0
  6 16  1  0  0  0  0
  7  9  1  0  0  0  0
  7 11  1  0  0  0  0
  7 17  1  0  0  0  0
  8 12  1  0  0  0  0
  8 20  1  0  0  0  0
  8 21  1  0  0  0  0
  9 13  1  0  0  0  0
  9 18  1  0  0  0  0
  9 19  1  0  0  0  0
 10 25  1  0  0  0  0
 10 26  1  0  0  0  0
 10 27  1  0  0  0  0
 11 22  1  0  0  0  0
 11 23  1  0  0  0  0
 11 24  1  0  0  0  0
 12 31  1  0  0  0  0
 12 32  1  0  0  0  0
 12 33  1  0  0  0  0
 13 28  1  0  0  0  0
 13 29  1  0  0  0  0
 13 30  1  0  0  0  0
 14 15  1  0  0  0  0
 14 34  1  0  0  0  0
 14 35  1  0  0  0  0
 15 36  1  0  0  0  0
 15 37  1  0  0  0  0
 15 38  1  0  0  0  0
M  END
> <PUBCHEM_COMPOUND_CID>
91752

> <PUBCHEM_COMPOUND_CANONICALIZED>
1

> <PUBCHEM_CACTVS_COMPLEXITY>
196

> <PUBCHEM_CACTVS_HBOND_ACCEPTOR>
4

> <PUBCHEM_CACTVS_HBOND_DONOR>
0

> <PUBCHEM_CACTVS_ROTATABLE_BOND>
8

> <PUBCHEM_CACTVS_SUBSKEYS>
AAADceBwMAJgAAAAAAAAAAAAAAAAAAAAAAAAAAAAAAAAAAAAAAAAGgQAACAACACkwAKCAAAAARAAQAAAAIAAAAAAAAAAAAAAAAAAAAAAAAAAAAAAAAAAAAAAAAAAAAAAAAAAAAAAAAAAAAAAAAAAAAAAAA==

> <PUBCHEM_IUPAC_OPENEYE_NAME>
2-[ethoxy(sec-butylsulfanyl)phosphoryl]sulfanylbutane

> <PUBCHEM_IUPAC_CAS_NAME>
2-[[(butan-2-ylthio)-ethoxyphosphoryl]thio]butane

> <PUBCHEM_IUPAC_NAME>
2-[butan-2-ylsulfanyl(ethoxy)phosphoryl]sulfanylbutane

> <PUBCHEM_IUPAC_SYSTEMATIC_NAME>
2-[butan-2-ylsulfanyl(ethoxy)phosphoryl]sulfanylbutane

> <PUBCHEM_IUPAC_TRADITIONAL_NAME>
2-[[ethoxy-(sec-butylthio)phosphoryl]thio]butane

> <PUBCHEM_IUPAC_INCHI>
InChI=1S/C10H23O2PS2/c1-6-9(4)14-13(11,12-8-3)15-10(5)7-2/h9-10H,6-8H2,1-5H3

> <PUBCHEM_IUPAC_INCHIKEY>
KXRPCFINVWWFHQ-UHFFFAOYSA-N

> <PUBCHEM_XLOGP3_AA>
3.3

> <PUBCHEM_EXACT_MASS>
270.087709

> <PUBCHEM_MOLECULAR_FORMULA>
C10H23O2PS2

> <PUBCHEM_MOLECULAR_WEIGHT>
270.392182

> <PUBCHEM_OPENEYE_CAN_SMILES>
CCC(C)SP(=O)(OCC)SC(C)CC

> <PUBCHEM_OPENEYE_ISO_SMILES>
CCC(C)SP(=O)(OCC)SC(C)CC

> <PUBCHEM_CACTVS_TPSA>
76.9

> <PUBCHEM_MONOISOTOPIC_WEIGHT>
270.087709

> <PUBCHEM_TOTAL_CHARGE>
0

> <PUBCHEM_HEAVY_ATOM_COUNT>
15

> <PUBCHEM_ATOM_DEF_STEREO_COUNT>
0

> <PUBCHEM_ATOM_UDEF_STEREO_COUNT>
2

> <PUBCHEM_BOND_DEF_STEREO_COUNT>
0

> <PUBCHEM_BOND_UDEF_STEREO_COUNT>
0

> <PUBCHEM_ISOTOPIC_ATOM_COUNT>
0

> <PUBCHEM_COMPONENT_COUNT>
1

> <PUBCHEM_CACTVS_TAUTO_COUNT>
1

> <PUBCHEM_COORDINATE_TYPE>
1
5
255

> <PUBCHEM_BONDANNOTATIONS>
6  10  3
7  11  3

$$$$

