27159
  -OEChem-07051213012D

 29 28  0     0  0  0  0  0  0999 V2000
    4.2690    1.0600    0.0000 S   0  0  0  0  0  0  0  0  0  0  0  0
    5.1350   -0.4400    0.0000 S   0  0  0  0  0  0  0  0  0  0  0  0
    3.4030    2.5600    0.0000 O   0  0  0  0  0  0  0  0  0  0  0  0
    6.0010   -1.9400    0.0000 O   0  0  0  0  0  0  0  0  0  0  0  0
    6.8671    1.5600    0.0000 N   0  0  0  0  0  0  0  0  0  0  0  0
    4.2690   -1.9400    0.0000 N   0  0  0  0  0  0  0  0  0  0  0  0
    2.5369    1.0600    0.0000 N   0  0  0  0  0  0  0  0  0  0  0  0
    6.0010    1.0600    0.0000 C   0  0  0  0  0  0  0  0  0  0  0  0
    5.1350    1.5600    0.0000 C   0  0  0  0  0  0  0  0  0  0  0  0
    6.0010    0.0600    0.0000 C   0  0  0  0  0  0  0  0  0  0  0  0
    7.7331    1.0600    0.0000 C   0  0  0  0  0  0  0  0  0  0  0  0
    6.8671    2.5600    0.0000 C   0  0  0  0  0  0  0  0  0  0  0  0
    3.4030    1.5600    0.0000 C   0  0  0  0  0  0  0  0  0  0  0  0
    5.1350   -1.4400    0.0000 C   0  0  0  0  0  0  0  0  0  0  0  0
    6.5380    0.7500    0.0000 H   0  0  0  0  0  0  0  0  0  0  0  0
    5.5335    2.0349    0.0000 H   0  0  0  0  0  0  0  0  0  0  0  0
    4.7365    2.0349    0.0000 H   0  0  0  0  0  0  0  0  0  0  0  0
    6.2131   -0.5226    0.0000 H   0  0  0  0  0  0  0  0  0  0  0  0
    6.6116    0.1677    0.0000 H   0  0  0  0  0  0  0  0  0  0  0  0
    7.4231    0.5231    0.0000 H   0  0  0  0  0  0  0  0  0  0  0  0
    8.2700    0.7500    0.0000 H   0  0  0  0  0  0  0  0  0  0  0  0
    8.0431    1.5969    0.0000 H   0  0  0  0  0  0  0  0  0  0  0  0
    7.4871    2.5600    0.0000 H   0  0  0  0  0  0  0  0  0  0  0  0
    6.8671    3.1800    0.0000 H   0  0  0  0  0  0  0  0  0  0  0  0
    6.2471    2.5600    0.0000 H   0  0  0  0  0  0  0  0  0  0  0  0
    2.0000    1.3700    0.0000 H   0  0  0  0  0  0  0  0  0  0  0  0
    2.5369    0.4400    0.0000 H   0  0  0  0  0  0  0  0  0  0  0  0
    4.2690   -2.5600    0.0000 H   0  0  0  0  0  0  0  0  0  0  0  0
    3.7320   -1.6300    0.0000 H   0  0  0  0  0  0  0  0  0  0  0  0
  1  9  1  0  0  0  0
  1 13  1  0  0  0  0
  2 10  1  0  0  0  0
  2 14  1  0  0  0  0
  3 13  2  0  0  0  0
  4 14  2  0  0  0  0
  5  8  1  0  0  0  0
  5 11  1  0  0  0  0
  5 12  1  0  0  0  0
  6 14  1  0  0  0  0
  6 28  1  0  0  0  0
  6 29  1  0  0  0  0
  7 13  1  0  0  0  0
  7 26  1  0  0  0  0
  7 27  1  0  0  0  0
  8  9  1  0  0  0  0
  8 10  1  0  0  0  0
  8 15  1  0  0  0  0
  9 16  1  0  0  0  0
  9 17  1  0  0  0  0
 10 18  1  0  0  0  0
 10 19  1  0  0  0  0
 11 20  1  0  0  0  0
 11 21  1  0  0  0  0
 11 22  1  0  0  0  0
 12 23  1  0  0  0  0
 12 24  1  0  0  0  0
 12 25  1  0  0  0  0
M  END
> <PUBCHEM_COMPOUND_CID>
27159

> <PUBCHEM_COMPOUND_CANONICALIZED>
1

> <PUBCHEM_CACTVS_COMPLEXITY>
193

> <PUBCHEM_CACTVS_HBOND_ACCEPTOR>
5

> <PUBCHEM_CACTVS_HBOND_DONOR>
2

> <PUBCHEM_CACTVS_ROTATABLE_BOND>
7

> <PUBCHEM_CACTVS_SUBSKEYS>
AAADccBjMABgAAAAAAAAAAAAAAAAAAAAAAAAAAAAAAAAAAAAAAAAHgQQAAAACCjFQASCAANAAAgIAAAAEAAAAABAABAAAAAIAAAAAAAgAAAAAAAAAAAAAAAAAAAAAAAAAAAAAAAAAAAAAAAAAAAAAAAAAA==

> <PUBCHEM_IUPAC_OPENEYE_NAME>
S-[3-carbamoylsulfanyl-2-(dimethylamino)propyl] carbamothioate

> <PUBCHEM_IUPAC_CAS_NAME>
carbamothioic acid S-[3-(carbamoylthio)-2-(dimethylamino)propyl] ester

> <PUBCHEM_IUPAC_NAME>
S-[3-carbamoylsulfanyl-2-(dimethylamino)propyl] carbamothioate

> <PUBCHEM_IUPAC_SYSTEMATIC_NAME>
S-[3-aminocarbonylsulfanyl-2-(dimethylamino)propyl] carbamothioate

> <PUBCHEM_IUPAC_TRADITIONAL_NAME>
thiocarbamic acid S-[3-(carbamoylthio)-2-(dimethylamino)propyl] ester

> <PUBCHEM_IUPAC_INCHI>
InChI=1S/C7H15N3O2S2/c1-10(2)5(3-13-6(8)11)4-14-7(9)12/h5H,3-4H2,1-2H3,(H2,8,11)(H2,9,12)

> <PUBCHEM_IUPAC_INCHIKEY>
IRUJZVNXZWPBMU-UHFFFAOYSA-N

> <PUBCHEM_XLOGP3_AA>
0

> <PUBCHEM_EXACT_MASS>
237.060569

> <PUBCHEM_MOLECULAR_FORMULA>
C7H15N3O2S2

> <PUBCHEM_MOLECULAR_WEIGHT>
237.3429

> <PUBCHEM_OPENEYE_CAN_SMILES>
CN(C)C(CSC(=O)N)CSC(=O)N

> <PUBCHEM_OPENEYE_ISO_SMILES>
CN(C)C(CSC(=O)N)CSC(=O)N

> <PUBCHEM_CACTVS_TPSA>
140

> <PUBCHEM_MONOISOTOPIC_WEIGHT>
237.060569

> <PUBCHEM_TOTAL_CHARGE>
0

> <PUBCHEM_HEAVY_ATOM_COUNT>
14

> <PUBCHEM_ATOM_DEF_STEREO_COUNT>
0

> <PUBCHEM_ATOM_UDEF_STEREO_COUNT>
0

> <PUBCHEM_BOND_DEF_STEREO_COUNT>
0

> <PUBCHEM_BOND_UDEF_STEREO_COUNT>
0

> <PUBCHEM_ISOTOPIC_ATOM_COUNT>
0

> <PUBCHEM_COMPONENT_COUNT>
1

> <PUBCHEM_CACTVS_TAUTO_COUNT>
3

> <PUBCHEM_COORDINATE_TYPE>
1
5
255

$$$$

