   Color/Form

     * Prismatic crystals from hot water
     * White crystalline powder

   from [1]HSDB

   Melting Point
        242 deg C dec
   from [2]HSDB

   Density/Specific Gravity
        GREATER THAN 1 @ 20 DEG C /SOLID/
   from [3]HSDB

   Dissociation Constants
        pK1 = 3.03, pK2 = 3.07, pK3 = 10.70 at 20 deg C
   from [4]HSDB

   pH
        Saturated aq soln is 2.3
   from [5]HSDB

   Solubilities

     * Slightly sol in water and DMSO-d6; soluble in ethanol
     * 1.28 g dissolves in 1 L water @ 22.5 deg C
     * Insol in most org solvents
     * In water, 5.91X10+4 mg/l @ 25 deg C

   from [6]HSDB

   Spectral Properties

     * SADTLER REFERENCE NUMBER: 13213 (IR,PRISM)
     * IR: 2:303A (Aldrich Library of Infrared Spectra, Aldrich Chemical
       Co, Milwaukee, WI)
     * NMR: 3:2B (Aldrich Library of Mass Spectra, Aldrich Chemical Co,
       Milwaukee, WI)

   from [7]HSDB

   Other Chemical/Physical Properties
        Forms mono-, di-, & tribasic water-soluble salts
   from [8]HSDB

   Computed Properties
   Molecular Weight                  191.13876 [g/mol]
   Molecular Formula                 C[6]H[9]NO[6]
   XLogP3-AA                         -3.2
   H-Bond Donor                      3
   H-Bond Acceptor                   7
   Rotatable Bond Count              6
   Exact Mass                        191.042987
   MonoIsotopic Mass                 191.042987
   Topological Polar Surface Area    115
   Heavy Atom Count                  13
   Formal Charge                     0
   Complexity                        187
   Isotope Atom Count                0
   Defined Atom Stereocenter Count   0
   Undefined Atom Stereocenter Count 0
   Defined Bond Stereocenter Count   0
   Undefined Bond Stereocenter Count 0
   Covalently-Bonded Unit Count      1
   Feature 3D Acceptor Count         6
   Feature 3D Anion Count            3
   Feature 3D Cation Count           1
   Effective Rotor Count             6
   Conformer Sampling RMSD           0.6
   CID Conformer Count               [9]24

References

   1. http://toxnet.nlm.nih.gov/cgi-bin/sis/search/r?dbs+hsdb:@term+@rn+@rel+139-13-9
   2. http://toxnet.nlm.nih.gov/cgi-bin/sis/search/r?dbs+hsdb:@term+@rn+@rel+139-13-9
   3. http://toxnet.nlm.nih.gov/cgi-bin/sis/search/r?dbs+hsdb:@term+@rn+@rel+139-13-9
   4. http://toxnet.nlm.nih.gov/cgi-bin/sis/search/r?dbs+hsdb:@term+@rn+@rel+139-13-9
   5. http://toxnet.nlm.nih.gov/cgi-bin/sis/search/r?dbs+hsdb:@term+@rn+@rel+139-13-9
   6. http://toxnet.nlm.nih.gov/cgi-bin/sis/search/r?dbs+hsdb:@term+@rn+@rel+139-13-9
   7. http://toxnet.nlm.nih.gov/cgi-bin/sis/search/r?dbs+hsdb:@term+@rn+@rel+139-13-9
   8. http://toxnet.nlm.nih.gov/cgi-bin/sis/search/r?dbs+hsdb:@term+@rn+@rel+139-13-9
   9. http://pubchem.ncbi.nlm.nih.gov/vw3d/vw3d.cgi?cid=8758
