11832
  -OEChem-06261206102D

 38 40  0     0  0  0  0  0  0999 V2000
    2.8660   -3.5173    0.0000 N   0  0  0  0  0  0  0  0  0  0  0  0
    3.7320    0.9827    0.0000 N   0  0  0  0  0  0  0  0  0  0  0  0
    2.8660    0.4827    0.0000 N   0  0  0  0  0  0  0  0  0  0  0  0
    4.5981    2.4827    0.0000 C   0  0  0  0  0  0  0  0  0  0  0  0
    4.5981    3.4827    0.0000 C   0  0  0  0  0  0  0  0  0  0  0  0
    3.7320    1.9827    0.0000 C   0  0  0  0  0  0  0  0  0  0  0  0
    2.8660   -2.5173    0.0000 C   0  0  0  0  0  0  0  0  0  0  0  0
    5.4920    1.9480    0.0000 C   0  0  0  0  0  0  0  0  0  0  0  0
    3.7320    3.9827    0.0000 C   0  0  0  0  0  0  0  0  0  0  0  0
    5.4920    4.0173    0.0000 C   0  0  0  0  0  0  0  0  0  0  0  0
    2.8660    2.4827    0.0000 C   0  0  0  0  0  0  0  0  0  0  0  0
    3.7320   -2.0173    0.0000 C   0  0  0  0  0  0  0  0  0  0  0  0
    2.0000   -2.0173    0.0000 C   0  0  0  0  0  0  0  0  0  0  0  0
    2.8660   -0.5173    0.0000 C   0  0  0  0  0  0  0  0  0  0  0  0
    2.8660    3.4827    0.0000 C   0  0  0  0  0  0  0  0  0  0  0  0
    6.3981    2.4618    0.0000 C   0  0  0  0  0  0  0  0  0  0  0  0
    3.7320   -1.0173    0.0000 C   0  0  0  0  0  0  0  0  0  0  0  0
    2.0000   -1.0173    0.0000 C   0  0  0  0  0  0  0  0  0  0  0  0
    6.3981    3.5035    0.0000 C   0  0  0  0  0  0  0  0  0  0  0  0
    2.0000   -4.0173    0.0000 C   0  0  0  0  0  0  0  0  0  0  0  0
    3.7320   -4.0173    0.0000 C   0  0  0  0  0  0  0  0  0  0  0  0
    5.4848    1.3280    0.0000 H   0  0  0  0  0  0  0  0  0  0  0  0
    3.7320    4.6027    0.0000 H   0  0  0  0  0  0  0  0  0  0  0  0
    5.4848    4.6373    0.0000 H   0  0  0  0  0  0  0  0  0  0  0  0
    2.3291    2.1727    0.0000 H   0  0  0  0  0  0  0  0  0  0  0  0
    4.2690   -2.3273    0.0000 H   0  0  0  0  0  0  0  0  0  0  0  0
    1.4631   -2.3273    0.0000 H   0  0  0  0  0  0  0  0  0  0  0  0
    2.3291    3.7927    0.0000 H   0  0  0  0  0  0  0  0  0  0  0  0
    4.2690   -0.7073    0.0000 H   0  0  0  0  0  0  0  0  0  0  0  0
    1.4631   -0.7073    0.0000 H   0  0  0  0  0  0  0  0  0  0  0  0
    6.9338    2.1498    0.0000 H   0  0  0  0  0  0  0  0  0  0  0  0
    6.9338    3.8156    0.0000 H   0  0  0  0  0  0  0  0  0  0  0  0
    1.6900   -3.4804    0.0000 H   0  0  0  0  0  0  0  0  0  0  0  0
    1.4631   -4.3273    0.0000 H   0  0  0  0  0  0  0  0  0  0  0  0
    2.3100   -4.5543    0.0000 H   0  0  0  0  0  0  0  0  0  0  0  0
    3.4220   -4.5543    0.0000 H   0  0  0  0  0  0  0  0  0  0  0  0
    4.2690   -4.3273    0.0000 H   0  0  0  0  0  0  0  0  0  0  0  0
    4.0420   -3.4804    0.0000 H   0  0  0  0  0  0  0  0  0  0  0  0
  1  7  1  0  0  0  0
  1 20  1  0  0  0  0
  1 21  1  0  0  0  0
  2  3  2  0  0  0  0
  2  6  1  0  0  0  0
  3 14  1  0  0  0  0
  4  5  1  0  0  0  0
  4  6  1  0  0  0  0
  4  8  2  0  0  0  0
  5  9  1  0  0  0  0
  5 10  2  0  0  0  0
  6 11  2  0  0  0  0
  7 12  2  0  0  0  0
  7 13  1  0  0  0  0
  8 16  1  0  0  0  0
  8 22  1  0  0  0  0
  9 15  2  0  0  0  0
  9 23  1  0  0  0  0
 10 19  1  0  0  0  0
 10 24  1  0  0  0  0
 11 15  1  0  0  0  0
 11 25  1  0  0  0  0
 12 17  1  0  0  0  0
 12 26  1  0  0  0  0
 13 18  2  0  0  0  0
 13 27  1  0  0  0  0
 14 17  2  0  0  0  0
 14 18  1  0  0  0  0
 15 28  1  0  0  0  0
 16 19  2  0  0  0  0
 16 31  1  0  0  0  0
 17 29  1  0  0  0  0
 18 30  1  0  0  0  0
 19 32  1  0  0  0  0
 20 33  1  0  0  0  0
 20 34  1  0  0  0  0
 20 35  1  0  0  0  0
 21 36  1  0  0  0  0
 21 37  1  0  0  0  0
 21 38  1  0  0  0  0
M  END
> <PUBCHEM_COMPOUND_CID>
11832

> <PUBCHEM_COMPOUND_CANONICALIZED>
1

> <PUBCHEM_CACTVS_COMPLEXITY>
344

> <PUBCHEM_CACTVS_HBOND_ACCEPTOR>
3

> <PUBCHEM_CACTVS_HBOND_DONOR>
0

> <PUBCHEM_CACTVS_ROTATABLE_BOND>
3

> <PUBCHEM_CACTVS_SUBSKEYS>
AAADceB7AAAAAAAAAAAAAAAAAAAAAAAAAAAwYMAAAAAAAADBVAAAHAAIAAAADAiBGAQywMMAAACCAiRCQACCAAAhAgAIiAAIZIgIICLAkZGEIAhggABIyAcQgIAOgACAQAASAAAAAQCAACQAAAAAAAAAAA==

> <PUBCHEM_IUPAC_OPENEYE_NAME>
N,N-dimethyl-4-(1-naphthylazo)aniline

> <PUBCHEM_IUPAC_CAS_NAME>
N,N-dimethyl-4-(1-naphthalenylazo)aniline

> <PUBCHEM_IUPAC_NAME>
N,N-dimethyl-4-(naphthalen-1-yldiazenyl)aniline

> <PUBCHEM_IUPAC_SYSTEMATIC_NAME>
N,N-dimethyl-4-(naphthalen-1-yldiazenyl)aniline

> <PUBCHEM_IUPAC_TRADITIONAL_NAME>
dimethyl-[4-(1-naphthylazo)phenyl]amine

> <PUBCHEM_IUPAC_INCHI>
InChI=1S/C18H17N3/c1-21(2)16-12-10-15(11-13-16)19-20-18-9-5-7-14-6-3-4-8-17(14)18/h3-13H,1-2H3

> <PUBCHEM_IUPAC_INCHIKEY>
RKGIHRYVFSZPKN-UHFFFAOYSA-N

> <PUBCHEM_XLOGP3_AA>
5.1

> <PUBCHEM_EXACT_MASS>
275.142248

> <PUBCHEM_MOLECULAR_FORMULA>
C18H17N3

> <PUBCHEM_MOLECULAR_WEIGHT>
275.34768

> <PUBCHEM_OPENEYE_CAN_SMILES>
CN(C)C1=CC=C(C=C1)N=NC2=CC=CC3=CC=CC=C32

> <PUBCHEM_OPENEYE_ISO_SMILES>
CN(C)C1=CC=C(C=C1)N=NC2=CC=CC3=CC=CC=C32

> <PUBCHEM_CACTVS_TPSA>
28

> <PUBCHEM_MONOISOTOPIC_WEIGHT>
275.142248

> <PUBCHEM_TOTAL_CHARGE>
0

> <PUBCHEM_HEAVY_ATOM_COUNT>
21

> <PUBCHEM_ATOM_DEF_STEREO_COUNT>
0

> <PUBCHEM_ATOM_UDEF_STEREO_COUNT>
0

> <PUBCHEM_BOND_DEF_STEREO_COUNT>
0

> <PUBCHEM_BOND_UDEF_STEREO_COUNT>
0

> <PUBCHEM_ISOTOPIC_ATOM_COUNT>
0

> <PUBCHEM_COMPONENT_COUNT>
1

> <PUBCHEM_CACTVS_TAUTO_COUNT>
1

> <PUBCHEM_COORDINATE_TYPE>
1
5
255

> <PUBCHEM_BONDANNOTATIONS>
10  19  8
11  15  8
12  17  8
13  18  8
14  17  8
14  18  8
16  19  8
4  5  8
4  6  8
4  8  8
5  10  8
5  9  8
6  11  8
7  12  8
7  13  8
8  16  8
9  15  8

$$$$

