   Color/Form

     * BROWN LIQUID
     * Oily liquid

   from [1]HSDB

   Boiling Point
        150 DEG C @ 9 MM HG
   from [2]HSDB

   Melting Point
        25-30 deg C
   from [3]HSDB

   Corrosivity
        NONCORROSIVE
   from [4]HSDB

   Density/Specific Gravity
        1.188 @ 25 DEG C/15.6 DEG C
   from [5]HSDB

   Solubilities

     * SOL IN ACETONE, BENZENE, CHLOROFORM, ETHER, & HEPTANE
     * SOL IN WATER 14 PPM @ 25 DEG C
     * MISCIBLE WITH ETHANOL & ISOPROPYL ALCOHOL. MISCIBLE IN XYLENE,
       KEROSENE, & ETHYL ACETATE @ 25 DEG C.

   from [6]HSDB

   Spectral Properties
        Intense mass spectral peaks: 43 m/z (100%), 86 m/z (60%), 44 m/z
   (39%), 42 m/z (34%)
   from [7]HSDB

   Vapor Pressure
        1.5X10-4 MM HG @ 25 DEG C
   from [8]HSDB

   Other Chemical/Physical Properties

     * INDEX OF REFRACTION 1.5124 AT 40 DEG C/D /Z-ISOMER/
     * INDEX OF REFRACTION 1.5097 AT 40 DEG C/D /E-ISOMER/
     * EVAPORATION RATE IS 10.63X10-9 MOL/SQ CM/HR AT 20 DEG C
     * Henry's Law constant= 3.8X10-6 atm-cu m/mol (calculated)

   from [9]HSDB

   Computed Properties
   Molecular Weight                  270.21908 [g/mol]
   Molecular Formula                 C[10]H[17]Cl[2]NOS
   XLogP3-AA                         3.6
   H-Bond Donor                      0
   H-Bond Acceptor                   2
   Rotatable Bond Count              5
   Exact Mass                        269.040791
   MonoIsotopic Mass                 269.040791
   Topological Polar Surface Area    45.6
   Heavy Atom Count                  15
   Formal Charge                     0
   Complexity                        234
   Isotope Atom Count                0
   Defined Atom Stereocenter Count   0
   Undefined Atom Stereocenter Count 0
   Defined Bond Stereocenter Count   1
   Undefined Bond Stereocenter Count 0
   Covalently-Bonded Unit Count      1
   Feature 3D Hydrophobe Count       2
   Effective Rotor Count             6
   Conformer Sampling RMSD           0.8
   CID Conformer Count               [10]39

References

   1. http://toxnet.nlm.nih.gov/cgi-bin/sis/search/r?dbs+hsdb:@term+@rn+@rel+2303-16-4
   2. http://toxnet.nlm.nih.gov/cgi-bin/sis/search/r?dbs+hsdb:@term+@rn+@rel+2303-16-4
   3. http://toxnet.nlm.nih.gov/cgi-bin/sis/search/r?dbs+hsdb:@term+@rn+@rel+2303-16-4
   4. http://toxnet.nlm.nih.gov/cgi-bin/sis/search/r?dbs+hsdb:@term+@rn+@rel+2303-16-4
   5. http://toxnet.nlm.nih.gov/cgi-bin/sis/search/r?dbs+hsdb:@term+@rn+@rel+2303-16-4
   6. http://toxnet.nlm.nih.gov/cgi-bin/sis/search/r?dbs+hsdb:@term+@rn+@rel+2303-16-4
   7. http://toxnet.nlm.nih.gov/cgi-bin/sis/search/r?dbs+hsdb:@term+@rn+@rel+2303-16-4
   8. http://toxnet.nlm.nih.gov/cgi-bin/sis/search/r?dbs+hsdb:@term+@rn+@rel+2303-16-4
   9. http://toxnet.nlm.nih.gov/cgi-bin/sis/search/r?dbs+hsdb:@term+@rn+@rel+2303-16-4
  10. http://pubchem.ncbi.nlm.nih.gov/vw3d/vw3d.cgi?cid=5284376
