   Color/Form

     * LIGHT-TAN, CRYSTALLINE POWDER
     * CRYSTALS FROM ISOPROPYL ALCOHOL

   from [1]HSDB

   Odor
        SLIGHT, CHARACTERISTIC
   from [2]HSDB

   Taste
        BITTER, ANESTHETIC
   from [3]HSDB

   Melting Point
        187.5-189 DEG C
   from [4]HSDB

   pH
        BETWEEN 4.8 AND 6.0 (1 IN 100 SOLN)
   from [5]HSDB

   Solubilities
        1 G IN 2 ML WATER, 2 ML ALC, 6 ML CHLOROFORM, MORE THAN 10,000 ML
   ETHER
   from [6]HSDB

   Computed Properties
   Molecular Weight                  296.4298 [g/mol]
   Molecular Formula                 C[18]H[20]N[2]S
   XLogP3                            5.2
   H-Bond Donor                      0
   H-Bond Acceptor                   3
   Rotatable Bond Count              2
   Exact Mass                        296.13472
   MonoIsotopic Mass                 296.13472
   Topological Polar Surface Area    31.8
   Heavy Atom Count                  21
   Formal Charge                     0
   Complexity                        339
   Isotope Atom Count                0
   Defined Atom Stereocenter Count   0
   Undefined Atom Stereocenter Count 1
   Defined Bond Stereocenter Count   0
   Undefined Bond Stereocenter Count 0
   Covalently-Bonded Unit Count      1
   Feature 3D Cation Count           2
   Feature 3D Ring Count             4
   Effective Rotor Count             3.4
   Conformer Sampling RMSD           0.6
   CID Conformer Count               [7]7

References

   1. http://toxnet.nlm.nih.gov/cgi-bin/sis/search/r?dbs+hsdb:@term+@rn+@rel+1229-35-2
   2. http://toxnet.nlm.nih.gov/cgi-bin/sis/search/r?dbs+hsdb:@term+@rn+@rel+1229-35-2
   3. http://toxnet.nlm.nih.gov/cgi-bin/sis/search/r?dbs+hsdb:@term+@rn+@rel+1229-35-2
   4. http://toxnet.nlm.nih.gov/cgi-bin/sis/search/r?dbs+hsdb:@term+@rn+@rel+1229-35-2
   5. http://toxnet.nlm.nih.gov/cgi-bin/sis/search/r?dbs+hsdb:@term+@rn+@rel+1229-35-2
   6. http://toxnet.nlm.nih.gov/cgi-bin/sis/search/r?dbs+hsdb:@term+@rn+@rel+1229-35-2
   7. http://pubchem.ncbi.nlm.nih.gov/vw3d/vw3d.cgi?cid=14677
