   Color/Form
        Colorless gas ... [Note: A liquid below 24 degrees F. Shipped as a
   liquefied compressed gas].
   from [1]HSDB

   Odor

     * MILDLY AROMATIC ODOR
     * GASOLINE-LIKE ODOR
     * ... Mild aromatic or gasoline-like odor ...

   from [2]HSDB

   Boiling Point
        -4.5 deg C @ 760 mm Hg
   from [3]HSDB

   Melting Point
        -108.966 deg C
   from [4]HSDB

   Corrosivity
        Non-corrosive
   from [5]HSDB

   Critical Temperature and Pressure
        Critical temperature: 161.8 deg C; Critical pressure: 42.6 atm
   from [6]HSDB

   Density/Specific Gravity
        0.6149 g/cu cm @ 25 deg C
   from [7]HSDB

   Heat of Vaporization
        389 J/g @ 25 deg C
   from [8]HSDB

   Octanol/Water Partition Coefficient
        log Kow= 1.99
   from [9]HSDB

   Solubilities

     * Sol in org solvents; alcohol dissolves about 40 vol at room temp
     * Sol in ether and ethanol; very sol in acetone
     * water solubility = 735 mg/l at 20 deg C

   from [10]HSDB

   Spectral Properties

     * Index of refraction: 1.4292 @ 25 deg C
     * IR: SADP 893 (Sadtler Research Laboratories Prism Collection)
     * UV: OES 5-18 (Organic Electronic Spectral Data, Phillips et al,
       John Wiley & Sons, New York)
     * MS: NIST 61294 (NIST/EPA/MCDC Mass Spectral Database 1990 version)

   from [11]HSDB

   Surface Tension
        13.4 dynes/cm at 20 deg C
   from [12]HSDB

   Vapor Density
        1.87 (Air = 1)
   from [13]HSDB

   Vapor Pressure
        2,110 mm Hg @ 25 deg C
   from [14]HSDB

   Relative Evaporation Rate
        Greater than 25 (butyl acetate = 1)
   from [15]HSDB

   Viscosity
        Gas at 101.325 kPa at 20 deg C: 0.00754 cP; Liquid at -40 deg C:
   0.33 cP
   from [16]HSDB

   Other Chemical/Physical Properties

     * Dimerizes to 4-vinylcyclohexane
     * LIQUID SURFACE TENSION: 13.4 DYNES/CM AT 20 DEG C; LIQUID-WATER
       INTERFACIAL TENSION: (EST) 67 DYNES/CM AT 22 DEG C; VAPOR (GAS)
       SPECIFIC GRAVITY: 1.9 AT 20 DEG C; RATIO OF SPECIFIC HEATS OF VAPOR
       (GAS): 1.1; LATENT HEAT OF VAPORIZATION: 100 CAL/G; HEAT OF
       COMBUSTION: -10560 CAL/G; HEAT OF POLYMERIZATION: -305 CAL/G
     * 1 mg/cu m = 0.45 ppm; 1 ppm = 2.25 mg/cu m
     * Specific volume at 21.1 deg C, 101.325 kPa: 430.6 cu d/kg; 6.9 cu
       ft/lb
     * Absolute density, gas at 101.325 kPa at 0 deg C: 2.428 kg/cu m;
       Relative density, gas at 101.325 kPa at 0 deg C (air = 1): 1.878;
       Density, liquid at saturation pressure at 20 deg C: 0.621 kg/l;
       Critical density: 0.245 kg/cu m
     * Critical compressibility factor: 0.270
     * Molar specific heat, gas at 101.325 kPa at 25 deg C: Constant
       pressure: 82.132 j/(mol X K); 0.363 kcal/(kg X K); Constant volume:
       73.803 J/(mol X K); 0.326 kcal/(kg X K)
     * Heat of fusion: 40.80 cal/g
     * LIQUEFIED COMPRESSED GAS
     * Colorless liquid at -4.7 deg C
     * Hydroxyl radical reaction rate constant = 6.66X10-11 cu
       cm/molecule-sec @ 25 deg C

   from [17]HSDB

   Computed Properties
   Molecular Weight                  54.09044 [g/mol]
   Molecular Formula                 C[4]H[6]
   XLogP3                            2
   H-Bond Donor                      0
   H-Bond Acceptor                   0
   Rotatable Bond Count              1
   Exact Mass                        54.04695
   MonoIsotopic Mass                 54.04695
   Topological Polar Surface Area    0
   Heavy Atom Count                  4
   Formal Charge                     0
   Complexity                        21
   Isotope Atom Count                0
   Defined Atom Stereocenter Count   0
   Undefined Atom Stereocenter Count 0
   Defined Bond Stereocenter Count   0
   Undefined Bond Stereocenter Count 0
   Covalently-Bonded Unit Count      1
   Feature 3D Hydrophobe Count       2
   Effective Rotor Count             1
   Conformer Sampling RMSD           0.4
   CID Conformer Count               [18]2

References

   1. http://toxnet.nlm.nih.gov/cgi-bin/sis/search/r?dbs+hsdb:@term+@rn+@rel+106-99-0
   2. http://toxnet.nlm.nih.gov/cgi-bin/sis/search/r?dbs+hsdb:@term+@rn+@rel+106-99-0
   3. http://toxnet.nlm.nih.gov/cgi-bin/sis/search/r?dbs+hsdb:@term+@rn+@rel+106-99-0
   4. http://toxnet.nlm.nih.gov/cgi-bin/sis/search/r?dbs+hsdb:@term+@rn+@rel+106-99-0
   5. http://toxnet.nlm.nih.gov/cgi-bin/sis/search/r?dbs+hsdb:@term+@rn+@rel+106-99-0
   6. http://toxnet.nlm.nih.gov/cgi-bin/sis/search/r?dbs+hsdb:@term+@rn+@rel+106-99-0
   7. http://toxnet.nlm.nih.gov/cgi-bin/sis/search/r?dbs+hsdb:@term+@rn+@rel+106-99-0
   8. http://toxnet.nlm.nih.gov/cgi-bin/sis/search/r?dbs+hsdb:@term+@rn+@rel+106-99-0
   9. http://toxnet.nlm.nih.gov/cgi-bin/sis/search/r?dbs+hsdb:@term+@rn+@rel+106-99-0
  10. http://toxnet.nlm.nih.gov/cgi-bin/sis/search/r?dbs+hsdb:@term+@rn+@rel+106-99-0
  11. http://toxnet.nlm.nih.gov/cgi-bin/sis/search/r?dbs+hsdb:@term+@rn+@rel+106-99-0
  12. http://toxnet.nlm.nih.gov/cgi-bin/sis/search/r?dbs+hsdb:@term+@rn+@rel+106-99-0
  13. http://toxnet.nlm.nih.gov/cgi-bin/sis/search/r?dbs+hsdb:@term+@rn+@rel+106-99-0
  14. http://toxnet.nlm.nih.gov/cgi-bin/sis/search/r?dbs+hsdb:@term+@rn+@rel+106-99-0
  15. http://toxnet.nlm.nih.gov/cgi-bin/sis/search/r?dbs+hsdb:@term+@rn+@rel+106-99-0
  16. http://toxnet.nlm.nih.gov/cgi-bin/sis/search/r?dbs+hsdb:@term+@rn+@rel+106-99-0
  17. http://toxnet.nlm.nih.gov/cgi-bin/sis/search/r?dbs+hsdb:@term+@rn+@rel+106-99-0
  18. http://pubchem.ncbi.nlm.nih.gov/vw3d/vw3d.cgi?cid=7845
