   Color/Form
        YELLOW OIL
   from [1]HSDB

   Odor
        AMINE ODOR
   from [2]HSDB

   Boiling Point
        19.3-20.5 deg C @ 5 mm Hg
   from [3]HSDB

   Dissociation Constants
        PKB= 4.93
   from [4]HSDB

   Solubilities
        MISCIBLE WITH WATER
   from [5]HSDB

   Spectral Properties
        INDEX OF REFRACTION: 1.5759-1.5765 @ 25 DEG C/D
   from [6]HSDB

   Other Chemical/Physical Properties

     * MP: 106-110 DEG C; LESS BITTER THAN HYDROCHLORIDE; 1% AQ SOLN HAS
       PH OF 4.25; FREELY SOL IN WATER, ALCOHOL; VERY SLIGHTLY SOL IN
       ETHER; PRACTICALLY INSOL IN BENZENE, CHLOROFORM /CITRATE/
     * WHITE POWDER /CITRATE; HYDROCHLORIDE/
     * CRYSTALS; MP: 192.5-193.5 DEG C; MAX ABSORPTION (WATER): 244, 305
       NM (E= 4470, 4780); ABOUT NEUTRAL TO LITMUS; PH OF AQ SOLN
       CONTAINING 25 MG/ML: 6.71; 50 MG/ML: 6.67; 100 MG/ML: 5.56
       /HYDROCHLORIDE/
     * 1 G DISSOLVES IN: 0.77 ML WATER, 6 ML ALCOHOL, 6 ML CHLOROFORM,
       ABOUT 350 ML ACETONE; PRACTICALLY INSOL IN BENZENE, ETHER, ETHYL
       ACETATE /HYDROCHLORIDE/

   from [7]HSDB

   Computed Properties
   Molecular Weight                  255.35804 [g/mol]
   Molecular Formula                 C[16]H[21]N[3]
   XLogP3                            3.3
   H-Bond Donor                      0
   H-Bond Acceptor                   3
   Rotatable Bond Count              6
   Exact Mass                        255.173548
   MonoIsotopic Mass                 255.173548
   Topological Polar Surface Area    19.4
   Heavy Atom Count                  19
   Formal Charge                     0
   Complexity                        236
   Isotope Atom Count                0
   Defined Atom Stereocenter Count   0
   Undefined Atom Stereocenter Count 0
   Defined Bond Stereocenter Count   0
   Undefined Bond Stereocenter Count 0
   Covalently-Bonded Unit Count      1
   Feature 3D Acceptor Count         1
   Feature 3D Cation Count           2
   Feature 3D Ring Count             2
   Effective Rotor Count             6
   Conformer Sampling RMSD           0.8
   CID Conformer Count               [8]102

References

   1. http://toxnet.nlm.nih.gov/cgi-bin/sis/search/r?dbs+hsdb:@term+@rn+@rel+91-81-6
   2. http://toxnet.nlm.nih.gov/cgi-bin/sis/search/r?dbs+hsdb:@term+@rn+@rel+91-81-6
   3. http://toxnet.nlm.nih.gov/cgi-bin/sis/search/r?dbs+hsdb:@term+@rn+@rel+91-81-6
   4. http://toxnet.nlm.nih.gov/cgi-bin/sis/search/r?dbs+hsdb:@term+@rn+@rel+91-81-6
   5. http://toxnet.nlm.nih.gov/cgi-bin/sis/search/r?dbs+hsdb:@term+@rn+@rel+91-81-6
   6. http://toxnet.nlm.nih.gov/cgi-bin/sis/search/r?dbs+hsdb:@term+@rn+@rel+91-81-6
   7. http://toxnet.nlm.nih.gov/cgi-bin/sis/search/r?dbs+hsdb:@term+@rn+@rel+91-81-6
   8. http://pubchem.ncbi.nlm.nih.gov/vw3d/vw3d.cgi?cid=5587
