   Color/Form

     * GREEN PLATES OR LEAFLETS
     * GREENISH-YELLOW SOLID

   from [1]HSDB

   Melting Point
        92.5-93.5 DEG C
   from [2]HSDB

   Density/Specific Gravity
        1.145 @ 20 DEG C
   from [3]HSDB

   Solubilities

     * INSOL IN WATER; SOL IN ALC, ETHER
     * SOL IN FORMAMIDE

   from [4]HSDB

   Spectral Properties

     * MAX ABSORPTION (ALCOHOL): 234 NM (LOG E= 3.67); 273 NM (LOG E=
       3.82); 305 NM (LOG E= 3.18); 314 NM (LOG E= 3.14)
     * MAX ABSORPTION (95% ETHANOL): 271.6 NM (E= 388, 1%, 1 CM)
     * IR: 5891 (Sadtler Research Laboratories Prism Collection)
     * UV: 2908 (Sadtler Research Laboratories Spectral Collection)
     * NMR: 6829 (Sadtler Research Laboratories Spectral Collection)
     * MASS: 104 (Aldermaston, Eight Peak Index of Mass Spectra, UK)

   from [5]HSDB

   Computed Properties
   Molecular Weight                  150.1778 [g/mol]
   Molecular Formula                 C[8]H[10]N[2]O
   XLogP3                            1.8
   H-Bond Donor                      0
   H-Bond Acceptor                   3
   Rotatable Bond Count              1
   Exact Mass                        150.079313
   MonoIsotopic Mass                 150.079313
   Topological Polar Surface Area    32.7
   Heavy Atom Count                  11
   Formal Charge                     0
   Complexity                        128
   Isotope Atom Count                0
   Defined Atom Stereocenter Count   0
   Undefined Atom Stereocenter Count 0
   Defined Bond Stereocenter Count   0
   Undefined Bond Stereocenter Count 0
   Covalently-Bonded Unit Count      1
   Feature 3D Cation Count           1
   Feature 3D Ring Count             1
   Effective Rotor Count             2
   Conformer Sampling RMSD           0.4
   CID Conformer Count               [6]4

References

   1. http://toxnet.nlm.nih.gov/cgi-bin/sis/search/r?dbs+hsdb:@term+@rn+@rel+138-89-6
   2. http://toxnet.nlm.nih.gov/cgi-bin/sis/search/r?dbs+hsdb:@term+@rn+@rel+138-89-6
   3. http://toxnet.nlm.nih.gov/cgi-bin/sis/search/r?dbs+hsdb:@term+@rn+@rel+138-89-6
   4. http://toxnet.nlm.nih.gov/cgi-bin/sis/search/r?dbs+hsdb:@term+@rn+@rel+138-89-6
   5. http://toxnet.nlm.nih.gov/cgi-bin/sis/search/r?dbs+hsdb:@term+@rn+@rel+138-89-6
   6. http://pubchem.ncbi.nlm.nih.gov/vw3d/vw3d.cgi?cid=8749
