5282172
  -OEChem-07051213032D

 17 16  0     1  0  0  0  0  0999 V2000
    4.2690    1.8100    0.0000 Cl  0  0  0  0  0  0  0  0  0  0  0  0
    7.7331    0.8100    0.0000 Cl  0  0  0  0  0  0  0  0  0  0  0  0
    5.1350   -0.6900    0.0000 O   0  0  0  0  0  0  0  0  0  0  0  0
    2.5369    0.8100    0.0000 O   0  0  0  0  0  0  0  0  0  0  0  0
    3.4030   -0.6900    0.0000 O   0  0  0  0  0  0  0  0  0  0  0  0
    7.7331   -1.1900    0.0000 O   0  0  0  0  0  0  0  0  0  0  0  0
    6.0010   -1.1900    0.0000 O   0  0  0  0  0  0  0  0  0  0  0  0
    4.2690    0.8100    0.0000 C   0  0  3  0  0  0  0  0  0  0  0  0
    5.1350    0.3100    0.0000 C   0  0  0  0  0  0  0  0  0  0  0  0
    6.0010    0.8100    0.0000 C   0  0  0  0  0  0  0  0  0  0  0  0
    3.4030    0.3100    0.0000 C   0  0  0  0  0  0  0  0  0  0  0  0
    6.8671    0.3100    0.0000 C   0  0  0  0  0  0  0  0  0  0  0  0
    6.8671   -0.6900    0.0000 C   0  0  0  0  0  0  0  0  0  0  0  0
    5.0051    1.2350    0.0000 H   0  0  0  0  0  0  0  0  0  0  0  0
    6.0010    1.4300    0.0000 H   0  0  0  0  0  0  0  0  0  0  0  0
    2.0000    0.5000    0.0000 H   0  0  0  0  0  0  0  0  0  0  0  0
    7.7331   -1.8100    0.0000 H   0  0  0  0  0  0  0  0  0  0  0  0
  1  8  1  0  0  0  0
  2 12  1  0  0  0  0
  3  9  2  0  0  0  0
  4 11  1  0  0  0  0
  4 16  1  0  0  0  0
  5 11  2  0  0  0  0
  6 13  1  0  0  0  0
  6 17  1  0  0  0  0
  7 13  2  0  0  0  0
  8  9  1  0  0  0  0
  8 11  1  0  0  0  0
  8 14  1  0  0  0  0
  9 10  1  0  0  0  0
 10 12  2  0  0  0  0
 10 15  1  0  0  0  0
 12 13  1  0  0  0  0
M  END
> <PUBCHEM_COMPOUND_CID>
5282172

> <PUBCHEM_COMPOUND_CANONICALIZED>
1

> <PUBCHEM_CACTVS_COMPLEXITY>
283

> <PUBCHEM_CACTVS_HBOND_ACCEPTOR>
5

> <PUBCHEM_CACTVS_HBOND_DONOR>
2

> <PUBCHEM_CACTVS_ROTATABLE_BOND>
4

> <PUBCHEM_CACTVS_SUBSKEYS>
AAADcYBgOAAGAAAAAAAAAAAAAAAAAAAAAAAAAAAAAAAAAAAAAAAAGgIACAAACAeAgEAACAAAAgCIAKDSCAAAAAAgAAAACAEAA0hABBQIAAAAUAAEoAAIEYIAAAAAAAAAAAAAAAAAAAAAAAAAAAAAAAAAAA==

> <PUBCHEM_IUPAC_OPENEYE_NAME>
(E)-2,5-dichloro-4-oxo-hex-2-enedioic acid

> <PUBCHEM_IUPAC_CAS_NAME>
(E)-2,5-dichloro-4-oxo-2-hexenedioic acid

> <PUBCHEM_IUPAC_NAME>
(E)-2,5-dichloro-4-oxohex-2-enedioic acid

> <PUBCHEM_IUPAC_SYSTEMATIC_NAME>
(E)-2,5-bis(chloranyl)-4-oxidanylidene-hex-2-enedioic acid

> <PUBCHEM_IUPAC_TRADITIONAL_NAME>
(E)-2,5-dichloro-4-keto-hex-2-enedioic acid

> <PUBCHEM_IUPAC_INCHI>
InChI=1S/C6H4Cl2O5/c7-2(5(10)11)1-3(9)4(8)6(12)13/h1,4H,(H,10,11)(H,12,13)/b2-1+

> <PUBCHEM_IUPAC_INCHIKEY>
PLPVRWUZGSFJJB-OWOJBTEDSA-N

> <PUBCHEM_XLOGP3_AA>
1

> <PUBCHEM_EXACT_MASS>
225.943579

> <PUBCHEM_MOLECULAR_FORMULA>
C6H4Cl2O5

> <PUBCHEM_MOLECULAR_WEIGHT>
226.99896

> <PUBCHEM_OPENEYE_CAN_SMILES>
C(=C(C(=O)O)Cl)C(=O)C(C(=O)O)Cl

> <PUBCHEM_OPENEYE_ISO_SMILES>
C(=C(\C(=O)O)/Cl)\C(=O)C(C(=O)O)Cl

> <PUBCHEM_CACTVS_TPSA>
91.7

> <PUBCHEM_MONOISOTOPIC_WEIGHT>
225.943579

> <PUBCHEM_TOTAL_CHARGE>
0

> <PUBCHEM_HEAVY_ATOM_COUNT>
13

> <PUBCHEM_ATOM_DEF_STEREO_COUNT>
0

> <PUBCHEM_ATOM_UDEF_STEREO_COUNT>
1

> <PUBCHEM_BOND_DEF_STEREO_COUNT>
1

> <PUBCHEM_BOND_UDEF_STEREO_COUNT>
0

> <PUBCHEM_ISOTOPIC_ATOM_COUNT>
0

> <PUBCHEM_COMPONENT_COUNT>
1

> <PUBCHEM_CACTVS_TAUTO_COUNT>
3

> <PUBCHEM_COORDINATE_TYPE>
1
5
255

> <PUBCHEM_BONDANNOTATIONS>
8  14  3

$$$$

