14300
  -OEChem-06241222432D

 14 14  0     0  0  0  0  0  0999 V2000
    2.8660    2.2500    0.0000 O   0  5  0  0  0  0  0  0  0  0  0  0
    2.0000   -2.2500    0.0000 O   0  5  0  0  0  0  0  0  0  0  0  0
    3.7320   -2.2500    0.0000 O   0  0  0  0  0  0  0  0  0  0  0  0
    2.8660    1.2500    0.0000 N   0  3  0  0  0  0  0  0  0  0  0  0
    2.8660   -1.7500    0.0000 N   0  3  0  0  0  0  0  0  0  0  0  0
    2.8660   -0.7500    0.0000 C   0  0  0  0  0  0  0  0  0  0  0  0
    3.7320   -0.2500    0.0000 C   0  0  0  0  0  0  0  0  0  0  0  0
    2.0000   -0.2500    0.0000 C   0  0  0  0  0  0  0  0  0  0  0  0
    3.7320    0.7500    0.0000 C   0  0  0  0  0  0  0  0  0  0  0  0
    2.0000    0.7500    0.0000 C   0  0  0  0  0  0  0  0  0  0  0  0
    4.2690   -0.5600    0.0000 H   0  0  0  0  0  0  0  0  0  0  0  0
    1.4631   -0.5600    0.0000 H   0  0  0  0  0  0  0  0  0  0  0  0
    4.2690    1.0600    0.0000 H   0  0  0  0  0  0  0  0  0  0  0  0
    1.4631    1.0600    0.0000 H   0  0  0  0  0  0  0  0  0  0  0  0
  1  4  1  0  0  0  0
  2  5  1  0  0  0  0
  3  5  2  0  0  0  0
  4  9  2  0  0  0  0
  4 10  1  0  0  0  0
  5  6  1  0  0  0  0
  6  7  2  0  0  0  0
  6  8  1  0  0  0  0
  7  9  1  0  0  0  0
  7 11  1  0  0  0  0
  8 10  2  0  0  0  0
  8 12  1  0  0  0  0
  9 13  1  0  0  0  0
 10 14  1  0  0  0  0
M  CHG  4   1  -1   2  -1   4   1   5   1
M  END
> <PUBCHEM_COMPOUND_CID>
14300

> <PUBCHEM_COMPOUND_CANONICALIZED>
1

> <PUBCHEM_CACTVS_COMPLEXITY>
125

> <PUBCHEM_CACTVS_HBOND_ACCEPTOR>
3

> <PUBCHEM_CACTVS_HBOND_DONOR>
0

> <PUBCHEM_CACTVS_ROTATABLE_BOND>
0

> <PUBCHEM_CACTVS_SUBSKEYS>
AAADcYBjMAAAAAAAAAAAAAAAAAAAAAAAAAAsAAAAAAAAAAABgAAAHAAEAAAACAjBEgQ8wJIYUAChADRnRwCCgCAxAiAo2CA4ZJoIIGLA0dGEJAhggADIyAYQAAAAAAAAAAAAAAAAAAAAAAAAAAAAAAAAAA==

> <PUBCHEM_IUPAC_OPENEYE_NAME>
4-nitro-1-oxido-pyridin-1-ium

> <PUBCHEM_IUPAC_CAS_NAME>
4-nitro-1-oxidopyridin-1-ium

> <PUBCHEM_IUPAC_NAME>
4-nitro-1-oxidopyridin-1-ium

> <PUBCHEM_IUPAC_SYSTEMATIC_NAME>
4-nitro-1-oxidanidyl-pyridin-1-ium

> <PUBCHEM_IUPAC_TRADITIONAL_NAME>
4-nitro-1-oxido-pyridin-1-ium

> <PUBCHEM_IUPAC_INCHI>
InChI=1S/C5H4N2O3/c8-6-3-1-5(2-4-6)7(9)10/h1-4H

> <PUBCHEM_IUPAC_INCHIKEY>
RXKNNAKAVAHBNK-UHFFFAOYSA-N

> <PUBCHEM_XLOGP3>
-0.6

> <PUBCHEM_EXACT_MASS>
140.022192

> <PUBCHEM_MOLECULAR_FORMULA>
C5H4N2O3

> <PUBCHEM_MOLECULAR_WEIGHT>
140.09686

> <PUBCHEM_OPENEYE_CAN_SMILES>
C1=C[N+](=CC=C1[N+](=O)[O-])[O-]

> <PUBCHEM_OPENEYE_ISO_SMILES>
C1=C[N+](=CC=C1[N+](=O)[O-])[O-]

> <PUBCHEM_CACTVS_TPSA>
71.3

> <PUBCHEM_MONOISOTOPIC_WEIGHT>
140.022192

> <PUBCHEM_TOTAL_CHARGE>
0

> <PUBCHEM_HEAVY_ATOM_COUNT>
10

> <PUBCHEM_ATOM_DEF_STEREO_COUNT>
0

> <PUBCHEM_ATOM_UDEF_STEREO_COUNT>
0

> <PUBCHEM_BOND_DEF_STEREO_COUNT>
0

> <PUBCHEM_BOND_UDEF_STEREO_COUNT>
0

> <PUBCHEM_ISOTOPIC_ATOM_COUNT>
0

> <PUBCHEM_COMPONENT_COUNT>
1

> <PUBCHEM_CACTVS_TAUTO_COUNT>
1

> <PUBCHEM_COORDINATE_TYPE>
1
5
255

> <PUBCHEM_BONDANNOTATIONS>
4  10  8
4  9  8
6  7  8
6  8  8
7  9  8
8  10  8

$$$$

