442739
  -OEChem-07051212592D

 23 24  0     0  0  0  0  0  0999 V2000
    3.7320    2.0204    0.0000 O   0  0  0  0  0  0  0  0  0  0  0  0
    5.4804   -2.0142    0.0000 O   0  0  0  0  0  0  0  0  0  0  0  0
    3.7320   -1.9796    0.0000 O   0  0  0  0  0  0  0  0  0  0  0  0
    2.0000   -0.9796    0.0000 O   0  0  0  0  0  0  0  0  0  0  0  0
    4.5981    0.5204    0.0000 C   0  0  0  0  0  0  0  0  0  0  0  0
    4.5981   -0.4796    0.0000 C   0  0  0  0  0  0  0  0  0  0  0  0
    3.7320    1.0204    0.0000 C   0  0  0  0  0  0  0  0  0  0  0  0
    2.8660    0.5204    0.0000 C   0  0  0  0  0  0  0  0  0  0  0  0
    3.7320   -0.9796    0.0000 C   0  0  0  0  0  0  0  0  0  0  0  0
    2.8660   -0.4796    0.0000 C   0  0  0  0  0  0  0  0  0  0  0  0
    5.4920   -1.0143    0.0000 C   0  0  0  0  0  0  0  0  0  0  0  0
    5.4920    1.0550    0.0000 C   0  0  0  0  0  0  0  0  0  0  0  0
    2.0000    1.0204    0.0000 C   0  0  0  0  0  0  0  0  0  0  0  0
    6.3981   -0.5004    0.0000 C   0  0  0  0  0  0  0  0  0  0  0  0
    6.3981    0.5412    0.0000 C   0  0  0  0  0  0  0  0  0  0  0  0
    5.4848    1.6750    0.0000 H   0  0  0  0  0  0  0  0  0  0  0  0
    2.3100    1.5573    0.0000 H   0  0  0  0  0  0  0  0  0  0  0  0
    1.4631    1.3304    0.0000 H   0  0  0  0  0  0  0  0  0  0  0  0
    1.6900    0.4835    0.0000 H   0  0  0  0  0  0  0  0  0  0  0  0
    6.9338   -0.8125    0.0000 H   0  0  0  0  0  0  0  0  0  0  0  0
    6.9338    0.8533    0.0000 H   0  0  0  0  0  0  0  0  0  0  0  0
    3.1951    2.3304    0.0000 H   0  0  0  0  0  0  0  0  0  0  0  0
    6.0138   -2.3304    0.0000 H   0  0  0  0  0  0  0  0  0  0  0  0
  1  7  1  0  0  0  0
  1 22  1  0  0  0  0
  2 11  1  0  0  0  0
  2 23  1  0  0  0  0
  3  9  2  0  0  0  0
  4 10  2  0  0  0  0
  5  6  2  0  0  0  0
  5  7  1  0  0  0  0
  5 12  1  0  0  0  0
  6  9  1  0  0  0  0
  6 11  1  0  0  0  0
  7  8  2  0  0  0  0
  8 10  1  0  0  0  0
  8 13  1  0  0  0  0
  9 10  1  0  0  0  0
 11 14  2  0  0  0  0
 12 15  2  0  0  0  0
 12 16  1  0  0  0  0
 13 17  1  0  0  0  0
 13 18  1  0  0  0  0
 13 19  1  0  0  0  0
 14 15  1  0  0  0  0
 14 20  1  0  0  0  0
 15 21  1  0  0  0  0
M  END
> <PUBCHEM_COMPOUND_CID>
442739

> <PUBCHEM_COMPOUND_CANONICALIZED>
1

> <PUBCHEM_CACTVS_COMPLEXITY>
356

> <PUBCHEM_CACTVS_HBOND_ACCEPTOR>
4

> <PUBCHEM_CACTVS_HBOND_DONOR>
2

> <PUBCHEM_CACTVS_ROTATABLE_BOND>
0

> <PUBCHEM_CACTVS_SUBSKEYS>
AAADccBwOAAAAAAAAAAAAAAAAAAAAAAAAAAwQAAAAAAAAACBAAAAGgAACAAADASAmAAyBoAAAgCIAqBSAAACAAAkIAAIiAEGCMgIJjaCFRKAcUAk4BEImQfKzPCOgAABAAAYAAAAAAIAADAAAAAAAAAAAA==

> <PUBCHEM_IUPAC_OPENEYE_NAME>
4,8-dihydroxy-3-methyl-naphthalene-1,2-dione

> <PUBCHEM_IUPAC_CAS_NAME>
4,8-dihydroxy-3-methylnaphthalene-1,2-dione

> <PUBCHEM_IUPAC_NAME>
4,8-dihydroxy-3-methylnaphthalene-1,2-dione

> <PUBCHEM_IUPAC_SYSTEMATIC_NAME>
3-methyl-4,8-bis(oxidanyl)naphthalene-1,2-dione

> <PUBCHEM_IUPAC_TRADITIONAL_NAME>
4,8-dihydroxy-3-methyl-1,2-naphthoquinone

> <PUBCHEM_IUPAC_INCHI>
InChI=1S/C11H8O4/c1-5-9(13)6-3-2-4-7(12)8(6)11(15)10(5)14/h2-4,12-13H,1H3

> <PUBCHEM_IUPAC_INCHIKEY>
KILMMLMKSQWMTN-UHFFFAOYSA-N

> <PUBCHEM_XLOGP3_AA>
1.4

> <PUBCHEM_EXACT_MASS>
204.042259

> <PUBCHEM_MOLECULAR_FORMULA>
C11H8O4

> <PUBCHEM_MOLECULAR_WEIGHT>
204.17882

> <PUBCHEM_OPENEYE_CAN_SMILES>
CC1=C(C2=C(C(=CC=C2)O)C(=O)C1=O)O

> <PUBCHEM_OPENEYE_ISO_SMILES>
CC1=C(C2=C(C(=CC=C2)O)C(=O)C1=O)O

> <PUBCHEM_CACTVS_TPSA>
74.6

> <PUBCHEM_MONOISOTOPIC_WEIGHT>
204.042259

> <PUBCHEM_TOTAL_CHARGE>
0

> <PUBCHEM_HEAVY_ATOM_COUNT>
15

> <PUBCHEM_ATOM_DEF_STEREO_COUNT>
0

> <PUBCHEM_ATOM_UDEF_STEREO_COUNT>
0

> <PUBCHEM_BOND_DEF_STEREO_COUNT>
0

> <PUBCHEM_BOND_UDEF_STEREO_COUNT>
0

> <PUBCHEM_ISOTOPIC_ATOM_COUNT>
0

> <PUBCHEM_COMPONENT_COUNT>
1

> <PUBCHEM_CACTVS_TAUTO_COUNT>
51

> <PUBCHEM_COORDINATE_TYPE>
1
5
255

> <PUBCHEM_BONDANNOTATIONS>
11  14  8
12  15  8
14  15  8
5  12  8
5  6  8
6  11  8

$$$$

