   Color/Form
        Colorless, viscous liquid or solid (below 51 degrees F) ...
   from [1]HSDB

   Odor
        UNPLEASANT, FISHY, AMMONIACAL
   from [2]HSDB

   Boiling Point
        170.8 deg C at 760 mm Hg
   from [3]HSDB

   Melting Point
        10.3 deg C
   from [4]HSDB

   Critical Temperature and Pressure
        Critical temp: 646 deg F = 341 deg C = 614 deg K; Critical
   pressure: 647 psi = 44 atm = 4.45 MN/sq m
   from [5]HSDB

   Density/Specific Gravity
        1.0180 at 20 deg C/4 deg C
   from [6]HSDB

   Dissociation Constants
        pKa = 9.50 at 25 deg C
   from [7]HSDB

   Heat of Combustion
        -10710 Btu/lb = -5950 cal/g = -249X10+5 J/kg
   from [8]HSDB

   Heat of Vaporization
        360 Btu/lb = 200 cal/g = 8.37X10+5 J/kg
   from [9]HSDB

   Octanol/Water Partition Coefficient
        log Kow = -1.31
   from [10]HSDB

   pH
        25% aq soln: 12.1; 0.1 N aq soln: 12.05
   from [11]HSDB

   Solubilities

     * Miscible with methanol, acetone; solubility in benzene, 25 deg C:
       1.4%, in ether: 2.1%, in carbon tetrachloride: 0.2%, in n-heptane:
       less than 0.1%
     * MISCIBLE WITH GLYCERIN; IMMISCIBLE WITH FIXED OILS, SOLVENT HEXANE
     * Miscible in ethanol, glycerol; soluble in chloroform; slightly
       soluble in ether, ligroin
     * In water, 1X10+6 mg/L at 25 deg C (miscible)

   from [12]HSDB

   Spectral Properties

     * Index of refraction: 1.4541 at 20 degC/D
     * IR: 123 (Sadtler Research Laboratories Prism Collection)
     * UV: 2260 (Absorption Spectra in the UV and visible Regions,
       Academic Press, New York)
     * 1H NMR: 9143 (Sadtler Research Laboratories Spectral Collection)
     * MASS: 34160 (NIST/EPA/MSDC Mass Spectral Database, 1990 version)
     * Raman: 1007 (Sadtler Research Laboratories Spectral Collection)

   from [13]HSDB

   Vapor Density
        2.1 (Air = 1)
   from [14]HSDB

   Vapor Pressure
        0.404 mm Hg at 25 deg C
   from [15]HSDB

   Viscosity
        At 25 deg C, 18.95 centipoises; at 60 deg C, 5.03 centipoises
   from [16]HSDB

   Other Chemical/Physical Properties

     * Hygroscopic
     * 1 gal weighs 8.45 lb (USA); absorbs carbon dioxide; Hygroscopic
       liquid; Dipole moment: 2.27
     * Dissolves many essential oils
     * Deliquescent crystals from alcohol, mp: 75-77 deg C /Hydrochloride/
     * Heat of Soln: (est) -17 Btu/lb= -10 cal/g= -0.4X10+5 J/kg
     * Henry's Law constant = 3.25X10-8 atm-cu m/mol at 25 deg C (est)
     * Hydroxyl radical reaction rate constant = 3.6X10-11 cu cm/molec-sec
       at 25 deg C (est)

   from [17]HSDB

   Computed Properties
   Molecular Weight                  61.08308 [g/mol]
   Molecular Formula                 C[2]H[7]NO
   XLogP3                            -1.3
   H-Bond Donor                      2
   H-Bond Acceptor                   2
   Rotatable Bond Count              1
   Exact Mass                        61.052764
   MonoIsotopic Mass                 61.052764
   Topological Polar Surface Area    46.2
   Heavy Atom Count                  4
   Formal Charge                     0
   Complexity                        10
   Isotope Atom Count                0
   Defined Atom Stereocenter Count   0
   Undefined Atom Stereocenter Count 0
   Defined Bond Stereocenter Count   0
   Undefined Bond Stereocenter Count 0
   Covalently-Bonded Unit Count      1
   Feature 3D Acceptor Count         1
   Feature 3D Donor Count            2
   Feature 3D Cation Count           1
   Effective Rotor Count             1
   Conformer Sampling RMSD           0.4
   CID Conformer Count               [18]3

References

   1. http://toxnet.nlm.nih.gov/cgi-bin/sis/search/r?dbs+hsdb:@term+@rn+@rel+141-43-5
   2. http://toxnet.nlm.nih.gov/cgi-bin/sis/search/r?dbs+hsdb:@term+@rn+@rel+141-43-5
   3. http://toxnet.nlm.nih.gov/cgi-bin/sis/search/r?dbs+hsdb:@term+@rn+@rel+141-43-5
   4. http://toxnet.nlm.nih.gov/cgi-bin/sis/search/r?dbs+hsdb:@term+@rn+@rel+141-43-5
   5. http://toxnet.nlm.nih.gov/cgi-bin/sis/search/r?dbs+hsdb:@term+@rn+@rel+141-43-5
   6. http://toxnet.nlm.nih.gov/cgi-bin/sis/search/r?dbs+hsdb:@term+@rn+@rel+141-43-5
   7. http://toxnet.nlm.nih.gov/cgi-bin/sis/search/r?dbs+hsdb:@term+@rn+@rel+141-43-5
   8. http://toxnet.nlm.nih.gov/cgi-bin/sis/search/r?dbs+hsdb:@term+@rn+@rel+141-43-5
   9. http://toxnet.nlm.nih.gov/cgi-bin/sis/search/r?dbs+hsdb:@term+@rn+@rel+141-43-5
  10. http://toxnet.nlm.nih.gov/cgi-bin/sis/search/r?dbs+hsdb:@term+@rn+@rel+141-43-5
  11. http://toxnet.nlm.nih.gov/cgi-bin/sis/search/r?dbs+hsdb:@term+@rn+@rel+141-43-5
  12. http://toxnet.nlm.nih.gov/cgi-bin/sis/search/r?dbs+hsdb:@term+@rn+@rel+141-43-5
  13. http://toxnet.nlm.nih.gov/cgi-bin/sis/search/r?dbs+hsdb:@term+@rn+@rel+141-43-5
  14. http://toxnet.nlm.nih.gov/cgi-bin/sis/search/r?dbs+hsdb:@term+@rn+@rel+141-43-5
  15. http://toxnet.nlm.nih.gov/cgi-bin/sis/search/r?dbs+hsdb:@term+@rn+@rel+141-43-5
  16. http://toxnet.nlm.nih.gov/cgi-bin/sis/search/r?dbs+hsdb:@term+@rn+@rel+141-43-5
  17. http://toxnet.nlm.nih.gov/cgi-bin/sis/search/r?dbs+hsdb:@term+@rn+@rel+141-43-5
  18. http://pubchem.ncbi.nlm.nih.gov/vw3d/vw3d.cgi?cid=700
