10521
  -OEChem-06261204382D

 52 54  0     0  0  0  0  0  0999 V2000
    2.3100    0.0000    0.0000 O   0  0  0  0  0  0  0  0  0  0  0  0
    3.3100   -4.0000    0.0000 N   0  0  0  0  0  0  0  0  0  0  0  0
    3.3100    4.0000    0.0000 N   0  0  0  0  0  0  0  0  0  0  0  0
    3.3100    0.0000    0.0000 C   0  0  0  0  0  0  0  0  0  0  0  0
    3.3100   -1.0000    0.0000 C   0  0  0  0  0  0  0  0  0  0  0  0
    3.3100    1.0000    0.0000 C   0  0  0  0  0  0  0  0  0  0  0  0
    4.3100    0.0000    0.0000 C   0  0  0  0  0  0  0  0  0  0  0  0
    2.4440   -1.5000    0.0000 C   0  0  0  0  0  0  0  0  0  0  0  0
    4.1760    1.5000    0.0000 C   0  0  0  0  0  0  0  0  0  0  0  0
    4.1760   -1.5000    0.0000 C   0  0  0  0  0  0  0  0  0  0  0  0
    2.4440    1.5000    0.0000 C   0  0  0  0  0  0  0  0  0  0  0  0
    4.8100   -0.8660    0.0000 C   0  0  0  0  0  0  0  0  0  0  0  0
    4.8100    0.8660    0.0000 C   0  0  0  0  0  0  0  0  0  0  0  0
    3.3100   -3.0000    0.0000 C   0  0  0  0  0  0  0  0  0  0  0  0
    3.3100    3.0000    0.0000 C   0  0  0  0  0  0  0  0  0  0  0  0
    2.4440   -2.5000    0.0000 C   0  0  0  0  0  0  0  0  0  0  0  0
    4.1760    2.5000    0.0000 C   0  0  0  0  0  0  0  0  0  0  0  0
    4.1760   -2.5000    0.0000 C   0  0  0  0  0  0  0  0  0  0  0  0
    2.4440    2.5000    0.0000 C   0  0  0  0  0  0  0  0  0  0  0  0
    5.8100   -0.8660    0.0000 C   0  0  0  0  0  0  0  0  0  0  0  0
    5.8100    0.8660    0.0000 C   0  0  0  0  0  0  0  0  0  0  0  0
    6.3100    0.0000    0.0000 C   0  0  0  0  0  0  0  0  0  0  0  0
    2.4440    4.5000    0.0000 C   0  0  0  0  0  0  0  0  0  0  0  0
    4.1760    4.5000    0.0000 C   0  0  0  0  0  0  0  0  0  0  0  0
    2.4440   -4.5000    0.0000 C   0  0  0  0  0  0  0  0  0  0  0  0
    4.1760   -4.5000    0.0000 C   0  0  0  0  0  0  0  0  0  0  0  0
    4.7130    1.1900    0.0000 H   0  0  0  0  0  0  0  0  0  0  0  0
    1.9070   -1.1900    0.0000 H   0  0  0  0  0  0  0  0  0  0  0  0
    1.9070    1.1900    0.0000 H   0  0  0  0  0  0  0  0  0  0  0  0
    4.7130   -1.1900    0.0000 H   0  0  0  0  0  0  0  0  0  0  0  0
    4.5000   -1.4030    0.0000 H   0  0  0  0  0  0  0  0  0  0  0  0
    4.5000    1.4030    0.0000 H   0  0  0  0  0  0  0  0  0  0  0  0
    2.0000    0.5369    0.0000 H   0  0  0  0  0  0  0  0  0  0  0  0
    4.7130    2.8100    0.0000 H   0  0  0  0  0  0  0  0  0  0  0  0
    1.9070   -2.8100    0.0000 H   0  0  0  0  0  0  0  0  0  0  0  0
    1.9070    2.8100    0.0000 H   0  0  0  0  0  0  0  0  0  0  0  0
    4.7130   -2.8100    0.0000 H   0  0  0  0  0  0  0  0  0  0  0  0
    6.1200   -1.4030    0.0000 H   0  0  0  0  0  0  0  0  0  0  0  0
    6.1200    1.4030    0.0000 H   0  0  0  0  0  0  0  0  0  0  0  0
    6.9300    0.0000    0.0000 H   0  0  0  0  0  0  0  0  0  0  0  0
    2.7540    5.0369    0.0000 H   0  0  0  0  0  0  0  0  0  0  0  0
    3.8660   -5.0369    0.0000 H   0  0  0  0  0  0  0  0  0  0  0  0
    4.7130   -4.8100    0.0000 H   0  0  0  0  0  0  0  0  0  0  0  0
    4.4860   -3.9631    0.0000 H   0  0  0  0  0  0  0  0  0  0  0  0
    2.1340   -3.9631    0.0000 H   0  0  0  0  0  0  0  0  0  0  0  0
    1.9070   -4.8100    0.0000 H   0  0  0  0  0  0  0  0  0  0  0  0
    1.9070    4.8100    0.0000 H   0  0  0  0  0  0  0  0  0  0  0  0
    2.1340    3.9631    0.0000 H   0  0  0  0  0  0  0  0  0  0  0  0
    4.4860    3.9631    0.0000 H   0  0  0  0  0  0  0  0  0  0  0  0
    4.7130    4.8100    0.0000 H   0  0  0  0  0  0  0  0  0  0  0  0
    3.8660    5.0369    0.0000 H   0  0  0  0  0  0  0  0  0  0  0  0
    2.7540   -5.0369    0.0000 H   0  0  0  0  0  0  0  0  0  0  0  0
  1  4  1  0  0  0  0
  1 33  1  0  0  0  0
  2 14  1  0  0  0  0
  2 25  1  0  0  0  0
  2 26  1  0  0  0  0
  3 15  1  0  0  0  0
  3 23  1  0  0  0  0
  3 24  1  0  0  0  0
  4  5  1  0  0  0  0
  4  6  1  0  0  0  0
  4  7  1  0  0  0  0
  5  8  2  0  0  0  0
  5 10  1  0  0  0  0
  6  9  2  0  0  0  0
  6 11  1  0  0  0  0
  7 12  2  0  0  0  0
  7 13  1  0  0  0  0
  8 16  1  0  0  0  0
  8 28  1  0  0  0  0
  9 17  1  0  0  0  0
  9 27  1  0  0  0  0
 10 18  2  0  0  0  0
 10 30  1  0  0  0  0
 11 19  2  0  0  0  0
 11 29  1  0  0  0  0
 12 20  1  0  0  0  0
 12 31  1  0  0  0  0
 13 21  2  0  0  0  0
 13 32  1  0  0  0  0
 14 16  2  0  0  0  0
 14 18  1  0  0  0  0
 15 17  2  0  0  0  0
 15 19  1  0  0  0  0
 16 35  1  0  0  0  0
 17 34  1  0  0  0  0
 18 37  1  0  0  0  0
 19 36  1  0  0  0  0
 20 22  2  0  0  0  0
 20 38  1  0  0  0  0
 21 22  1  0  0  0  0
 21 39  1  0  0  0  0
 22 40  1  0  0  0  0
 23 41  1  0  0  0  0
 23 47  1  0  0  0  0
 23 48  1  0  0  0  0
 24 49  1  0  0  0  0
 24 50  1  0  0  0  0
 24 51  1  0  0  0  0
 25 45  1  0  0  0  0
 25 46  1  0  0  0  0
 25 52  1  0  0  0  0
 26 42  1  0  0  0  0
 26 43  1  0  0  0  0
 26 44  1  0  0  0  0
M  END
> <PUBCHEM_COMPOUND_CID>
10521

> <PUBCHEM_COMPOUND_CANONICALIZED>
1

> <PUBCHEM_CACTVS_COMPLEXITY>
386

> <PUBCHEM_CACTVS_HBOND_ACCEPTOR>
3

> <PUBCHEM_CACTVS_HBOND_DONOR>
1

> <PUBCHEM_CACTVS_ROTATABLE_BOND>
5

> <PUBCHEM_CACTVS_SUBSKEYS>
AAADceB7IAAAAAAAAAAAAAAAAAAAAAAAAAAwYMAAAAAAAAABUAAAHgAACAAADEyBmAQywIMAAgCAAiRCQACCAAAhAgAIiAAIbIgIJiLAkZGEcAhkwAFI2AeQ0OMOiAAAAAAAAAAQAAAAAAAAAAAAAAAAAA==

> <PUBCHEM_IUPAC_OPENEYE_NAME>
bis[4-(dimethylamino)phenyl]-phenyl-methanol

> <PUBCHEM_IUPAC_CAS_NAME>
bis[4-(dimethylamino)phenyl]-phenylmethanol

> <PUBCHEM_IUPAC_NAME>
bis[4-(dimethylamino)phenyl]-phenylmethanol

> <PUBCHEM_IUPAC_SYSTEMATIC_NAME>
bis[4-(dimethylamino)phenyl]-phenyl-methanol

> <PUBCHEM_IUPAC_TRADITIONAL_NAME>
bis[4-(dimethylamino)phenyl]-phenyl-methanol

> <PUBCHEM_IUPAC_INCHI>
InChI=1S/C23H26N2O/c1-24(2)21-14-10-19(11-15-21)23(26,18-8-6-5-7-9-18)20-12-16-22(17-13-20)25(3)4/h5-17,26H,1-4H3

> <PUBCHEM_IUPAC_INCHIKEY>
LXHOGENDFZKPSF-UHFFFAOYSA-N

> <PUBCHEM_XLOGP3_AA>
4.5

> <PUBCHEM_EXACT_MASS>
346.204513

> <PUBCHEM_MOLECULAR_FORMULA>
C23H26N2O

> <PUBCHEM_MOLECULAR_WEIGHT>
346.46534

> <PUBCHEM_OPENEYE_CAN_SMILES>
CN(C)C1=CC=C(C=C1)C(C2=CC=CC=C2)(C3=CC=C(C=C3)N(C)C)O

> <PUBCHEM_OPENEYE_ISO_SMILES>
CN(C)C1=CC=C(C=C1)C(C2=CC=CC=C2)(C3=CC=C(C=C3)N(C)C)O

> <PUBCHEM_CACTVS_TPSA>
26.7

> <PUBCHEM_MONOISOTOPIC_WEIGHT>
346.204513

> <PUBCHEM_TOTAL_CHARGE>
0

> <PUBCHEM_HEAVY_ATOM_COUNT>
26

> <PUBCHEM_ATOM_DEF_STEREO_COUNT>
0

> <PUBCHEM_ATOM_UDEF_STEREO_COUNT>
0

> <PUBCHEM_BOND_DEF_STEREO_COUNT>
0

> <PUBCHEM_BOND_UDEF_STEREO_COUNT>
0

> <PUBCHEM_ISOTOPIC_ATOM_COUNT>
0

> <PUBCHEM_COMPONENT_COUNT>
1

> <PUBCHEM_CACTVS_TAUTO_COUNT>
1

> <PUBCHEM_COORDINATE_TYPE>
1
5
255

> <PUBCHEM_BONDANNOTATIONS>
10  18  8
11  19  8
12  20  8
13  21  8
14  16  8
14  18  8
15  17  8
15  19  8
20  22  8
21  22  8
5  10  8
5  8  8
6  11  8
6  9  8
7  12  8
7  13  8
8  16  8
9  17  8

$$$$

