17395505
  -OEChem-06241222502D

 35 35  0     0  0  0  0  0  0999 V2000
    7.1733    0.3105    0.0000 O   0  0  0  0  0  0  0  0  0  0  0  0
    2.5878    1.6059    0.0000 O   0  0  0  0  0  0  0  0  0  0  0  0
    3.9890    2.6240    0.0000 O   0  0  0  0  0  0  0  0  0  0  0  0
    4.6701   -0.6374    0.0000 N   0  0  0  0  0  0  0  0  0  0  0  0
    6.6381   -1.3368    0.0000 N   0  0  0  0  0  0  0  0  0  0  0  0
    5.4791   -0.0496    0.0000 C   0  0  0  0  0  0  0  0  0  0  0  0
    5.1701    0.9014    0.0000 C   0  0  0  0  0  0  0  0  0  0  0  0
    4.1701    0.9014    0.0000 C   0  0  0  0  0  0  0  0  0  0  0  0
    3.8611   -0.0496    0.0000 C   0  0  0  0  0  0  0  0  0  0  0  0
    7.5891   -1.6458    0.0000 C   0  0  0  0  0  0  0  0  0  0  0  0
    6.4302   -0.3587    0.0000 C   0  0  0  0  0  0  0  0  0  0  0  0
    5.7579    1.7104    0.0000 C   0  0  0  0  0  0  0  0  0  0  0  0
    2.9100   -0.3587    0.0000 C   0  0  0  0  0  0  0  0  0  0  0  0
    7.7970   -2.6240    0.0000 C   0  0  0  0  0  0  0  0  0  0  0  0
    8.3323   -0.9767    0.0000 C   0  0  0  0  0  0  0  0  0  0  0  0
    3.5823    1.7104    0.0000 C   0  0  0  0  0  0  0  0  0  0  0  0
    2.0000    2.4149    0.0000 C   0  0  0  0  0  0  0  0  0  0  0  0
    7.4602   -1.0394    0.0000 H   0  0  0  0  0  0  0  0  0  0  0  0
    4.6701   -1.2574    0.0000 H   0  0  0  0  0  0  0  0  0  0  0  0
    6.1773   -1.7517    0.0000 H   0  0  0  0  0  0  0  0  0  0  0  0
    6.2595    1.3460    0.0000 H   0  0  0  0  0  0  0  0  0  0  0  0
    6.1223    2.2120    0.0000 H   0  0  0  0  0  0  0  0  0  0  0  0
    5.2563    2.0749    0.0000 H   0  0  0  0  0  0  0  0  0  0  0  0
    2.7184    0.2310    0.0000 H   0  0  0  0  0  0  0  0  0  0  0  0
    2.3204   -0.5503    0.0000 H   0  0  0  0  0  0  0  0  0  0  0  0
    3.1016   -0.9483    0.0000 H   0  0  0  0  0  0  0  0  0  0  0  0
    7.1906   -2.7529    0.0000 H   0  0  0  0  0  0  0  0  0  0  0  0
    7.9260   -3.2304    0.0000 H   0  0  0  0  0  0  0  0  0  0  0  0
    8.4035   -2.4951    0.0000 H   0  0  0  0  0  0  0  0  0  0  0  0
    8.7471   -1.4374    0.0000 H   0  0  0  0  0  0  0  0  0  0  0  0
    8.7930   -0.5618    0.0000 H   0  0  0  0  0  0  0  0  0  0  0  0
    7.9174   -0.5159    0.0000 H   0  0  0  0  0  0  0  0  0  0  0  0
    2.5016    2.7793    0.0000 H   0  0  0  0  0  0  0  0  0  0  0  0
    1.6356    2.9165    0.0000 H   0  0  0  0  0  0  0  0  0  0  0  0
    1.4984    2.0505    0.0000 H   0  0  0  0  0  0  0  0  0  0  0  0
  1 11  2  0  0  0  0
  2 16  1  0  0  0  0
  2 17  1  0  0  0  0
  3 16  2  0  0  0  0
  4  6  1  0  0  0  0
  4  9  1  0  0  0  0
  4 19  1  0  0  0  0
  5 10  1  0  0  0  0
  5 11  1  0  0  0  0
  5 20  1  0  0  0  0
  6  7  2  0  0  0  0
  6 11  1  0  0  0  0
  7  8  1  0  0  0  0
  7 12  1  0  0  0  0
  8  9  2  0  0  0  0
  8 16  1  0  0  0  0
  9 13  1  0  0  0  0
 10 14  1  0  0  0  0
 10 15  1  0  0  0  0
 10 18  1  0  0  0  0
 12 21  1  0  0  0  0
 12 22  1  0  0  0  0
 12 23  1  0  0  0  0
 13 24  1  0  0  0  0
 13 25  1  0  0  0  0
 13 26  1  0  0  0  0
 14 27  1  0  0  0  0
 14 28  1  0  0  0  0
 14 29  1  0  0  0  0
 15 30  1  0  0  0  0
 15 31  1  0  0  0  0
 15 32  1  0  0  0  0
 17 33  1  0  0  0  0
 17 34  1  0  0  0  0
 17 35  1  0  0  0  0
M  END
> <PUBCHEM_COMPOUND_CID>
17395505

> <PUBCHEM_COMPOUND_CANONICALIZED>
1

> <PUBCHEM_CACTVS_COMPLEXITY>
304

> <PUBCHEM_CACTVS_HBOND_ACCEPTOR>
3

> <PUBCHEM_CACTVS_HBOND_DONOR>
2

> <PUBCHEM_CACTVS_ROTATABLE_BOND>
4

> <PUBCHEM_CACTVS_SUBSKEYS>
AAADceBzMAAAAAAAAAAAAAAAAAAAAWAAAAAAAAAAAAAAAAABgAAAHgAQAAAADCjBngYCiJLJlACoAwXwXACCgCAnACAAmaG4TNgIZnrAtLmUEYhm1gHI6Ue8HwIegAAAAAAAAAAAAAAAAAAAAAAAAAAAAA==

> <PUBCHEM_IUPAC_OPENEYE_NAME>
methyl 5-(isopropylcarbamoyl)-2,4-dimethyl-1H-pyrrole-3-carboxylate

> <PUBCHEM_IUPAC_CAS_NAME>
2,4-dimethyl-5-[oxo-(propan-2-ylamino)methyl]-1H-pyrrole-3-carboxylic acid methyl ester

> <PUBCHEM_IUPAC_NAME>
methyl 2,4-dimethyl-5-(propan-2-ylcarbamoyl)-1H-pyrrole-3-carboxylate

> <PUBCHEM_IUPAC_SYSTEMATIC_NAME>
methyl 2,4-dimethyl-5-(propan-2-ylcarbamoyl)-1H-pyrrole-3-carboxylate

> <PUBCHEM_IUPAC_TRADITIONAL_NAME>
5-(isopropylcarbamoyl)-2,4-dimethyl-1H-pyrrole-3-carboxylic acid methyl ester

> <PUBCHEM_IUPAC_INCHI>
InChI=1S/C12H18N2O3/c1-6(2)13-11(15)10-7(3)9(8(4)14-10)12(16)17-5/h6,14H,1-5H3,(H,13,15)

> <PUBCHEM_IUPAC_INCHIKEY>
GGBOJQIQLIIWIE-UHFFFAOYSA-N

> <PUBCHEM_XLOGP3_AA>
1.7

> <PUBCHEM_EXACT_MASS>
238.131742

> <PUBCHEM_MOLECULAR_FORMULA>
C12H18N2O3

> <PUBCHEM_MOLECULAR_WEIGHT>
238.28292

> <PUBCHEM_OPENEYE_CAN_SMILES>
CC1=C(NC(=C1C(=O)OC)C)C(=O)NC(C)C

> <PUBCHEM_OPENEYE_ISO_SMILES>
CC1=C(NC(=C1C(=O)OC)C)C(=O)NC(C)C

> <PUBCHEM_CACTVS_TPSA>
71.2

> <PUBCHEM_MONOISOTOPIC_WEIGHT>
238.131742

> <PUBCHEM_TOTAL_CHARGE>
0

> <PUBCHEM_HEAVY_ATOM_COUNT>
17

> <PUBCHEM_ATOM_DEF_STEREO_COUNT>
0

> <PUBCHEM_ATOM_UDEF_STEREO_COUNT>
0

> <PUBCHEM_BOND_DEF_STEREO_COUNT>
0

> <PUBCHEM_BOND_UDEF_STEREO_COUNT>
0

> <PUBCHEM_ISOTOPIC_ATOM_COUNT>
0

> <PUBCHEM_COMPONENT_COUNT>
1

> <PUBCHEM_CACTVS_TAUTO_COUNT>
18

> <PUBCHEM_COORDINATE_TYPE>
1
5
255

> <PUBCHEM_BONDANNOTATIONS>
4  6  8
4  9  8
6  7  8
7  8  8
8  9  8

$$$$

