92159
  -OEChem-07051212532D

 30 30  0     1  0  0  0  0  0999 V2000
    2.2388    0.0000    0.0000 Cl  0  0  0  0  0  0  0  0  0  0  0  0
    4.0010    5.1200    0.0000 O   0  0  0  0  0  0  0  0  0  0  0  0
    4.0010    3.1200    0.0000 N   0  0  0  0  0  0  0  0  0  0  0  0
    3.1350    3.6200    0.0000 C   0  0  3  0  0  0  0  0  0  0  0  0
    3.1350    4.6200    0.0000 C   0  0  3  0  0  0  0  0  0  0  0  0
    4.8671    3.6200    0.0000 C   0  0  0  0  0  0  0  0  0  0  0  0
    4.8671    4.6200    0.0000 C   0  0  0  0  0  0  0  0  0  0  0  0
    2.2690    5.1200    0.0000 C   0  0  0  0  0  0  0  0  0  0  0  0
    2.2690    3.1200    0.0000 C   0  0  0  0  0  0  0  0  0  0  0  0
    2.2690    6.1200    0.0000 C   0  0  0  0  0  0  0  0  0  0  0  0
    1.4030    4.6200    0.0000 C   0  0  0  0  0  0  0  0  0  0  0  0
    1.4030    6.6200    0.0000 C   0  0  0  0  0  0  0  0  0  0  0  0
    0.5369    5.1200    0.0000 C   0  0  0  0  0  0  0  0  0  0  0  0
    0.5369    6.1200    0.0000 C   0  0  0  0  0  0  0  0  0  0  0  0
    3.1350    2.7700    0.0000 H   0  0  0  0  0  0  0  0  0  0  0  0
    3.1350    5.4700    0.0000 H   0  0  0  0  0  0  0  0  0  0  0  0
    4.0010    2.5000    0.0000 H   0  0  0  0  0  0  0  0  0  0  0  0
    5.0791    3.0374    0.0000 H   0  0  0  0  0  0  0  0  0  0  0  0
    5.4776    3.7277    0.0000 H   0  0  0  0  0  0  0  0  0  0  0  0
    5.4776    4.5123    0.0000 H   0  0  0  0  0  0  0  0  0  0  0  0
    5.0791    5.2026    0.0000 H   0  0  0  0  0  0  0  0  0  0  0  0
    1.9590    3.6569    0.0000 H   0  0  0  0  0  0  0  0  0  0  0  0
    1.7320    2.8100    0.0000 H   0  0  0  0  0  0  0  0  0  0  0  0
    2.5790    2.5831    0.0000 H   0  0  0  0  0  0  0  0  0  0  0  0
    2.8059    6.4300    0.0000 H   0  0  0  0  0  0  0  0  0  0  0  0
    1.4030    4.0000    0.0000 H   0  0  0  0  0  0  0  0  0  0  0  0
    1.4030    7.2400    0.0000 H   0  0  0  0  0  0  0  0  0  0  0  0
    0.0000    4.8100    0.0000 H   0  0  0  0  0  0  0  0  0  0  0  0
    0.0000    6.4300    0.0000 H   0  0  0  0  0  0  0  0  0  0  0  0
    3.2388    0.0000    0.0000 H   0  0  0  0  0  0  0  0  0  0  0  0
  1 30  1  0  0  0  0
  2  5  1  0  0  0  0
  2  7  1  0  0  0  0
  3  4  1  0  0  0  0
  3  6  1  0  0  0  0
  3 17  1  0  0  0  0
  4  5  1  0  0  0  0
  4  9  1  0  0  0  0
  4 15  1  0  0  0  0
  5  8  1  0  0  0  0
  5 16  1  0  0  0  0
  6  7  1  0  0  0  0
  6 18  1  0  0  0  0
  6 19  1  0  0  0  0
  7 20  1  0  0  0  0
  7 21  1  0  0  0  0
  8 10  2  0  0  0  0
  8 11  1  0  0  0  0
  9 22  1  0  0  0  0
  9 23  1  0  0  0  0
  9 24  1  0  0  0  0
 10 12  1  0  0  0  0
 10 25  1  0  0  0  0
 11 13  2  0  0  0  0
 11 26  1  0  0  0  0
 12 14  2  0  0  0  0
 12 27  1  0  0  0  0
 13 14  1  0  0  0  0
 13 28  1  0  0  0  0
 14 29  1  0  0  0  0
M  END
> <PUBCHEM_COMPOUND_CID>
92159

> <PUBCHEM_COMPOUND_CANONICALIZED>
1

> <PUBCHEM_CACTVS_COMPLEXITY>
154

> <PUBCHEM_CACTVS_HBOND_ACCEPTOR>
2

> <PUBCHEM_CACTVS_HBOND_DONOR>
2

> <PUBCHEM_CACTVS_ROTATABLE_BOND>
1

> <PUBCHEM_CACTVS_SUBSKEYS>
AAADceByIAAEAAAAAAAAAAAAAAAAAAAAAAA8QAAAAAAAAAABAAAAHgAQAAAADDzhmAYyAILABACAAiBCAAACAAAgAAAIiIAICIgKJiKAsRmHMAAk0AGYqAeQwKAOAAAAAAAAAAAAAAAAAAAAAAAAAAAAAA==

> <PUBCHEM_IUPAC_OPENEYE_NAME>
3-methyl-2-phenyl-morpholine hydrochloride

> <PUBCHEM_IUPAC_CAS_NAME>
3-methyl-2-phenylmorpholine hydrochloride

> <PUBCHEM_IUPAC_NAME>
3-methyl-2-phenylmorpholine hydrochloride

> <PUBCHEM_IUPAC_SYSTEMATIC_NAME>
3-methyl-2-phenyl-morpholine hydrochloride

> <PUBCHEM_IUPAC_TRADITIONAL_NAME>
3-methyl-2-phenyl-morpholine hydrochloride

> <PUBCHEM_IUPAC_INCHI>
InChI=1S/C11H15NO.ClH/c1-9-11(13-8-7-12-9)10-5-3-2-4-6-10;/h2-6,9,11-12H,7-8H2,1H3;1H

> <PUBCHEM_IUPAC_INCHIKEY>
VJNXVAVKCZJOFQ-UHFFFAOYSA-N

> <PUBCHEM_EXACT_MASS>
213.092042

> <PUBCHEM_MOLECULAR_FORMULA>
C11H16ClNO

> <PUBCHEM_MOLECULAR_WEIGHT>
213.70384

> <PUBCHEM_OPENEYE_CAN_SMILES>
CC1C(OCCN1)C2=CC=CC=C2.Cl

> <PUBCHEM_OPENEYE_ISO_SMILES>
CC1C(OCCN1)C2=CC=CC=C2.Cl

> <PUBCHEM_CACTVS_TPSA>
21.3

> <PUBCHEM_MONOISOTOPIC_WEIGHT>
213.092042

> <PUBCHEM_TOTAL_CHARGE>
0

> <PUBCHEM_HEAVY_ATOM_COUNT>
14

> <PUBCHEM_ATOM_DEF_STEREO_COUNT>
0

> <PUBCHEM_ATOM_UDEF_STEREO_COUNT>
2

> <PUBCHEM_BOND_DEF_STEREO_COUNT>
0

> <PUBCHEM_BOND_UDEF_STEREO_COUNT>
0

> <PUBCHEM_ISOTOPIC_ATOM_COUNT>
0

> <PUBCHEM_COMPONENT_COUNT>
2

> <PUBCHEM_CACTVS_TAUTO_COUNT>
1

> <PUBCHEM_COORDINATE_TYPE>
1
5
255

> <PUBCHEM_BONDANNOTATIONS>
10  12  8
11  13  8
12  14  8
13  14  8
4  15  3
5  16  3
8  10  8
8  11  8

$$$$

