   Color/Form
        White, crystalline powder
   from [1]HSDB

   Melting Point
        85-87 deg C
   from [2]HSDB

   Dissociation Constants
        pKa = 9.20
   from [3]HSDB

   Octanol/Water Partition Coefficient
        log Kow = 1.90
   from [4]HSDB

   pH
        Saturated soln is slightly acidic
   from [5]HSDB

   Solubilities

     * Freely soluble in acetone, ethyl acetate, and chloroform; soluble
       in ethanol and methanol
     * Soluble in diethyl ether, ethanol.
     * Highly sol in oil.
     * In water, 999 mg/L at 30 deg C

   from [6]HSDB

   Spectral Properties
        Intense mass spectral peaks: 117 m/z, 132 m/z, 160 m/z, 217 m/z
   from [7]HSDB

   Vapor Pressure
        1.49X10-9 mm Hg at 25 deg C (est)
   from [8]HSDB

   Other Chemical/Physical Properties

     * MP: 84 deg C ... forms a hydrate and a water soluble hydrochloride.
     * Crystals from ether or from ethyl acetate + petroleum ether; mp: 84
       deg C; max absorption (methanol): 251, 257, 263 nm; freely sol in
       ethyl acetate, acetone, ether, chloroform; sol in ethanol,
       methanol; practically insol in water. /dl-Glutethimide/
     * Crystals; mp: 102.5-103 deg C; specific optical rotation: 176 deg
       at 20 deg C/D (methanol) /dextro-glutethimide/
     * Crystals; mp: 102-103 deg C; specific optical rotation: -181 deg at
       20 deg C/D (methanol) /levo-Glutethimide/
     * Henry's Law constant = 4.78X10-9 atm-cu m/mol at 25 deg C (est)
     * Hydroxyl radical reaction rate constant = 2.87X10-11 cu
       cm/molec-sec at 25 deg C (est)

   from [9]HSDB

   Computed Properties
   Molecular Weight                  217.2637 [g/mol]
   Molecular Formula                 C[13]H[15]NO[2]
   XLogP3                            1.9
   H-Bond Donor                      1
   H-Bond Acceptor                   2
   Rotatable Bond Count              2
   Tautomer Count                    5
   Exact Mass                        217.110279
   MonoIsotopic Mass                 217.110279
   Topological Polar Surface Area    46.2
   Heavy Atom Count                  16
   Formal Charge                     0
   Complexity                        294
   Isotope Atom Count                0
   Defined Atom Stereocenter Count   0
   Undefined Atom Stereocenter Count 1
   Defined Bond Stereocenter Count   0
   Undefined Bond Stereocenter Count 0
   Covalently-Bonded Unit Count      1
   Feature 3D Acceptor Count         2
   Feature 3D Donor Count            1
   Feature 3D Hydrophobe Count       1
   Feature 3D Ring Count             2
   Effective Rotor Count             2.8
   Conformer Sampling RMSD           0.6
   CID Conformer Count               [10]9

References

   1. http://toxnet.nlm.nih.gov/cgi-bin/sis/search/r?dbs+hsdb:@term+@rn+@rel+77-21-4
   2. http://toxnet.nlm.nih.gov/cgi-bin/sis/search/r?dbs+hsdb:@term+@rn+@rel+77-21-4
   3. http://toxnet.nlm.nih.gov/cgi-bin/sis/search/r?dbs+hsdb:@term+@rn+@rel+77-21-4
   4. http://toxnet.nlm.nih.gov/cgi-bin/sis/search/r?dbs+hsdb:@term+@rn+@rel+77-21-4
   5. http://toxnet.nlm.nih.gov/cgi-bin/sis/search/r?dbs+hsdb:@term+@rn+@rel+77-21-4
   6. http://toxnet.nlm.nih.gov/cgi-bin/sis/search/r?dbs+hsdb:@term+@rn+@rel+77-21-4
   7. http://toxnet.nlm.nih.gov/cgi-bin/sis/search/r?dbs+hsdb:@term+@rn+@rel+77-21-4
   8. http://toxnet.nlm.nih.gov/cgi-bin/sis/search/r?dbs+hsdb:@term+@rn+@rel+77-21-4
   9. http://toxnet.nlm.nih.gov/cgi-bin/sis/search/r?dbs+hsdb:@term+@rn+@rel+77-21-4
  10. http://pubchem.ncbi.nlm.nih.gov/vw3d/vw3d.cgi?cid=3487
