   Color/Form

     * White crystals
     * NEEDLES OBTAINED FROM WATER AS SOLVENT

   from [1]HSDB

   Boiling Point
        234.5 deg C
   from [2]HSDB

   Melting Point
        68 deg C
   from [3]HSDB

   Density/Specific Gravity
        0.957
   from [4]HSDB

   Dissociation Constants
        pKa= 5.09
   from [5]HSDB

   Octanol/Water Partition Coefficient
        log Kow= 2.27
   from [6]HSDB

   Solubilities
        Sol in alcohol and ether; insol in water
   from [7]HSDB

   Other Chemical/Physical Properties
        Henry's Law constant= 2.48X10-6 atm-cu m/mol @ 25 deg C
   from [8]HSDB

   Computed Properties
   Molecular Weight                  135.20622 [g/mol]
   Molecular Formula                 C[9]H[13]N
   XLogP3-AA                         2.3
   H-Bond Donor                      1
   H-Bond Acceptor                   1
   Rotatable Bond Count              0
   Exact Mass                        135.104799
   MonoIsotopic Mass                 135.104799
   Topological Polar Surface Area    26
   Heavy Atom Count                  10
   Formal Charge                     0
   Complexity                        111
   Isotope Atom Count                0
   Defined Atom Stereocenter Count   0
   Undefined Atom Stereocenter Count 0
   Defined Bond Stereocenter Count   0
   Undefined Bond Stereocenter Count 0
   Covalently-Bonded Unit Count      1
   Feature 3D Donor Count            1
   Feature 3D Cation Count           1
   Feature 3D Ring Count             1
   Effective Rotor Count             0
   Conformer Sampling RMSD           0.4
   CID Conformer Count               [9]1

References

   1. http://toxnet.nlm.nih.gov/cgi-bin/sis/search/r?dbs+hsdb:@term+@rn+@rel+137-17-7
   2. http://toxnet.nlm.nih.gov/cgi-bin/sis/search/r?dbs+hsdb:@term+@rn+@rel+137-17-7
   3. http://toxnet.nlm.nih.gov/cgi-bin/sis/search/r?dbs+hsdb:@term+@rn+@rel+137-17-7
   4. http://toxnet.nlm.nih.gov/cgi-bin/sis/search/r?dbs+hsdb:@term+@rn+@rel+137-17-7
   5. http://toxnet.nlm.nih.gov/cgi-bin/sis/search/r?dbs+hsdb:@term+@rn+@rel+137-17-7
   6. http://toxnet.nlm.nih.gov/cgi-bin/sis/search/r?dbs+hsdb:@term+@rn+@rel+137-17-7
   7. http://toxnet.nlm.nih.gov/cgi-bin/sis/search/r?dbs+hsdb:@term+@rn+@rel+137-17-7
   8. http://toxnet.nlm.nih.gov/cgi-bin/sis/search/r?dbs+hsdb:@term+@rn+@rel+137-17-7
   9. http://pubchem.ncbi.nlm.nih.gov/vw3d/vw3d.cgi?cid=8717
