   Color/Form
        Dark-blue microcrystals or blue-black amorphous powder
   from [1]HSDB

   Melting Point
        101.5-104 deg C
   from [2]HSDB

   Octanol/Water Partition Coefficient
        Octanol/water partition coefficient = 17.2
   from [3]HSDB

   Solubilities
        Slightly soluble in water (0.38% w/w); soluble in ethanol,
   methanol and acetone
   from [4]HSDB

   Spectral Properties
        Infrared, ultraviolet and nuclear magnetic resonance spectral data
   have been reported
   from [5]HSDB

   Computed Properties
   Molecular Weight                  255.27038 [g/mol]
   Molecular Formula                 C[11]H[17]N[3]O[4]
   XLogP3-AA                         1
   H-Bond Donor                      3
   H-Bond Acceptor                   6
   Rotatable Bond Count              6
   Exact Mass                        255.121906
   MonoIsotopic Mass                 255.121906
   Topological Polar Surface Area    102
   Heavy Atom Count                  18
   Formal Charge                     0
   Complexity                        253
   Isotope Atom Count                0
   Defined Atom Stereocenter Count   0
   Undefined Atom Stereocenter Count 0
   Defined Bond Stereocenter Count   0
   Undefined Bond Stereocenter Count 0
   Covalently-Bonded Unit Count      1
   Feature 3D Acceptor Count         4
   Feature 3D Donor Count            3
   Feature 3D Anion Count            1
   Feature 3D Cation Count           2
   Feature 3D Ring Count             1
   Effective Rotor Count             7
   Conformer Sampling RMSD           0.8
   CID Conformer Count               [6]24

References

   1. http://toxnet.nlm.nih.gov/cgi-bin/sis/search/r?dbs+hsdb:@term+@rn+@rel+2784-94-3
   2. http://toxnet.nlm.nih.gov/cgi-bin/sis/search/r?dbs+hsdb:@term+@rn+@rel+2784-94-3
   3. http://toxnet.nlm.nih.gov/cgi-bin/sis/search/r?dbs+hsdb:@term+@rn+@rel+2784-94-3
   4. http://toxnet.nlm.nih.gov/cgi-bin/sis/search/r?dbs+hsdb:@term+@rn+@rel+2784-94-3
   5. http://toxnet.nlm.nih.gov/cgi-bin/sis/search/r?dbs+hsdb:@term+@rn+@rel+2784-94-3
   6. http://pubchem.ncbi.nlm.nih.gov/vw3d/vw3d.cgi?cid=17734
