   Color/Form

     * YELLOW LIQUID
     * Colorless liquid

   from [1]HSDB

   Melting Point
        -66 deg C
   from [2]HSDB

   Solubilities

     * Soluble in water, alcohol and ether
     * SOL IN COLD WATER, ETHER; VERY SLIGHTLY SOL IN CARBON
       TETRACHLORIDE, BENZENE

   from [3]HSDB

   Other Chemical/Physical Properties

     * Dry material decomposes violently at -50 deg C; when heated to
       decomposition emits NOx, NH3 and Cl-.
     * Dilute solutions slowly decompose to N2, HCl and NH4Cl.
     * Monochloramine is oxidized by ozone faster than ammonia

   from [4]HSDB

   Computed Properties
   Molecular Weight                  51.47558 [g/mol]
   Molecular Formula                 ClH[2]N
   XLogP3-AA                         0.1
   H-Bond Donor                      1
   H-Bond Acceptor                   1
   Rotatable Bond Count              0
   Exact Mass                        50.987577
   MonoIsotopic Mass                 50.987577
   Topological Polar Surface Area    26
   Heavy Atom Count                  2
   Formal Charge                     0
   Complexity                        2
   Isotope Atom Count                0
   Defined Atom Stereocenter Count   0
   Undefined Atom Stereocenter Count 0
   Defined Bond Stereocenter Count   0
   Undefined Bond Stereocenter Count 0
   Covalently-Bonded Unit Count      1
   Effective Rotor Count             0
   Conformer Sampling RMSD           0.4
   CID Conformer Count               [5]1

References

   1. http://toxnet.nlm.nih.gov/cgi-bin/sis/search/r?dbs+hsdb:@term+@rn+@rel+10599-90-3
   2. http://toxnet.nlm.nih.gov/cgi-bin/sis/search/r?dbs+hsdb:@term+@rn+@rel+10599-90-3
   3. http://toxnet.nlm.nih.gov/cgi-bin/sis/search/r?dbs+hsdb:@term+@rn+@rel+10599-90-3
   4. http://toxnet.nlm.nih.gov/cgi-bin/sis/search/r?dbs+hsdb:@term+@rn+@rel+10599-90-3
   5. http://pubchem.ncbi.nlm.nih.gov/vw3d/vw3d.cgi?cid=25423
