   Color/Form
        Colorless, flake crystals from ethanol
   from [1]HSDB

   Boiling Point
        139.0-139.5 deg C
   from [2]HSDB

   Dissociation Constants
        pKa = 6.5 and 6.9 (amino groups) /Estimated/
   from [3]HSDB

   Octanol/Water Partition Coefficient
        log Kow = 5.3 /Estimated/
   from [4]HSDB

   Solubilities
        In water, 0.045 mg/L at 25 deg C /Estimated/
   from [5]HSDB

   Vapor Pressure
        3.2X10-13 mm Hg at 25 deg C /Estimated/
   from [6]HSDB

   Other Chemical/Physical Properties

     * Henry's Law constant = 7.7X10-17 atm-cu m/mole at 25 deg C
       /Estimated/
     * Hydroxyl radical reaction rate constant = 3.3X10-10 cu
       cm/molecule-sec at 25 deg C /Estimated/

   from [7]HSDB

   Computed Properties
   Molecular Weight                  448.38538 [g/mol]
   Molecular Formula                 C[23]H[27]Cl[2]N[3]O[2]
   XLogP3-AA                         4.6
   H-Bond Donor                      1
   H-Bond Acceptor                   4
   Rotatable Bond Count              7
   Tautomer Count                    3
   Exact Mass                        447.148032
   MonoIsotopic Mass                 447.148032
   Topological Polar Surface Area    44.8
   Heavy Atom Count                  30
   Formal Charge                     0
   Complexity                        559
   Isotope Atom Count                0
   Defined Atom Stereocenter Count   0
   Undefined Atom Stereocenter Count 0
   Defined Bond Stereocenter Count   0
   Undefined Bond Stereocenter Count 0
   Covalently-Bonded Unit Count      1
   Feature 3D Acceptor Count         2
   Feature 3D Donor Count            1
   Feature 3D Cation Count           2
   Feature 3D Ring Count             4
   Effective Rotor Count             8.8
   Conformer Sampling RMSD           1.2
   CID Conformer Count               [8]192

References

   1. http://toxnet.nlm.nih.gov/cgi-bin/sis/search/r?dbs+hsdb:@term+@rn+@rel+129722-12-9
   2. http://toxnet.nlm.nih.gov/cgi-bin/sis/search/r?dbs+hsdb:@term+@rn+@rel+129722-12-9
   3. http://toxnet.nlm.nih.gov/cgi-bin/sis/search/r?dbs+hsdb:@term+@rn+@rel+129722-12-9
   4. http://toxnet.nlm.nih.gov/cgi-bin/sis/search/r?dbs+hsdb:@term+@rn+@rel+129722-12-9
   5. http://toxnet.nlm.nih.gov/cgi-bin/sis/search/r?dbs+hsdb:@term+@rn+@rel+129722-12-9
   6. http://toxnet.nlm.nih.gov/cgi-bin/sis/search/r?dbs+hsdb:@term+@rn+@rel+129722-12-9
   7. http://toxnet.nlm.nih.gov/cgi-bin/sis/search/r?dbs+hsdb:@term+@rn+@rel+129722-12-9
   8. http://pubchem.ncbi.nlm.nih.gov/vw3d/vw3d.cgi?cid=60795
