   Chemical and Physical Properties References

   [1]USDA ARS - USDA chemical properties
   from [2]ChemIDplus

   Color/Form

     * Colorless crystals (technical, grey powder)
     * Dimorphic crystals
     * Crystals from dilute alcohol
     * White to light yellow solid
     * White crystalline solid
     * Technical methoxychlor is a pale buff to gray flaky powder
     * Colorless to light-yellow crystals

   from [3]HSDB

   Odor
        Slight, fruity odor
   from [4]HSDB

   Melting Point
        87 deg C
   from [5]HSDB

   Corrosivity

     * Methoxychlor will attack some forms of plastics, rubbers, and
       coatings.
     * Slightly corrosive to iron and aluminum

   from [6]HSDB

   Density/Specific Gravity
        1.41 g/cu cm at 25 deg C
   from [7]HSDB

   Octanol/Water Partition Coefficient
        log Kow = 5.08
   from [8]HSDB

   Solubilities

     * Soluble in alcohol
     * Moderately sol in alcohol and petroleum oils; readily sol in most
       aromatic solvents
     * Methylene dichloride: 60 g/100 g at 22 deg C; dichlorobenzene: 40
       g/100 g at 22 deg C; cyclohexanone: 50 g/100 g at 22 deg C;
       methylated naphthalenes: 30 g/100 g at 22 deg C; carbon
       tetrachloride: 16 g/100 g at 22 deg C; odorless kerosene: 2 g/100 g
       at 22 deg C. /Data from table/
     * Readily soluble in aromatic, chlorinated, and ketonic solvents, and
       vegetable oils. In chloroform and xylene 440, methanol 50 (all in
       g/kg, 22 deg C).
     * Very soluble in ethyl ether and benzene; soluble in ethanol
     * Very soluble in aromatic chlorinated, or ketonic solvents. Somewhat
       soluble in paraffinic types.
     * Soluble in alcohol. The solubilities are approximately those of
       DDT.
     * In water, 0.040 mg/L at 24 deg C (99% purity)
     * In water, 0.1 mg/L at 25 deg C

   from [9]HSDB

   Spectral Properties

     * SADTLER REF NUMBER: 17345 (IR, PRISM); 5497 (UV)
     * Intensity of mass spectral peaks: 227 M/z (100%), 228 M/z (23%),
       152 M/z (10%), 138 M/z (10%)
     * IR: 10589 (Sadtler Research Laboratories Prism Collection)
     * 13C NMR: 470 (Johnson and Jankowski, Carbon-13 NMR Spectra, John
       Wiley & Sons, New York)
     * MASS: 52371 (NIST/EPA/MSDC Mass Spectral Database, 1990 version)
     * Intense mass spectral peaks: 238 m/z, 274 m/z, 308 m/z, 344 m/z

   from [10]HSDB

   Vapor Pressure
        4.2X10-5 mm Hg at 25 deg C (est)
   from [11]HSDB

   Other Chemical/Physical Properties

     * Grey-flaky powder; setting point 77 deg C; density 1.41; sol 0.1
       mg/Lwater at 25 deg C; 440 g/kg chloroform & xylene, & 50 g/kg
       methanol at 22 deg C /Technical grade/
     * MP: 172 deg F (77.78 deg C)
     * MP: 89 deg C (technical, 77 deg C)
     * Stable in oxidizing agents and to UV irradiation. Reacts with
       alkalis, especially in the presence of catalytically-active metals,
       with loss of hydrogen cloride, but more slowly than DDT. Color
       turns pink or tan on exposure to light.
     * Not compatible with alkaline materials.
     * Henry's Law constant = 2.03X10-7 atm-cu m/mol at 25 deg C
     * Hydroxyl radical reaction rate constant = 5.4X10-11 cu cm/molec-sec
       at 25 deg C (est)

   from [12]HSDB

   Computed Properties
   Molecular Weight                  345.6481 [g/mol]
   Molecular Formula                 C[16]H[15]Cl[3]O[2]
   XLogP3                            5.1
   H-Bond Donor                      0
   H-Bond Acceptor                   2
   Rotatable Bond Count              4
   Exact Mass                        344.013763
   MonoIsotopic Mass                 344.013763
   Topological Polar Surface Area    18.5
   Heavy Atom Count                  21
   Formal Charge                     0
   Complexity                        279
   Isotope Atom Count                0
   Defined Atom Stereocenter Count   0
   Undefined Atom Stereocenter Count 0
   Defined Bond Stereocenter Count   0
   Undefined Bond Stereocenter Count 0
   Covalently-Bonded Unit Count      1
   Feature 3D Acceptor Count         2
   Feature 3D Ring Count             2
   Effective Rotor Count             5
   Conformer Sampling RMSD           0.8
   CID Conformer Count               [13]2

References

   1. http://www.ars.usda.gov/SP2UserFiles/ad_hoc/12755100DatabaseFiles/PesticidePropertiesDatabase/IndividualPesticideFiles/METHOXYCHLOR.TXT
   2. http://chem.sis.nlm.nih.gov/chemidplus/
   3. http://toxnet.nlm.nih.gov/cgi-bin/sis/search/r?dbs+hsdb:@term+@rn+@rel+72-43-5
   4. http://toxnet.nlm.nih.gov/cgi-bin/sis/search/r?dbs+hsdb:@term+@rn+@rel+72-43-5
   5. http://toxnet.nlm.nih.gov/cgi-bin/sis/search/r?dbs+hsdb:@term+@rn+@rel+72-43-5
   6. http://toxnet.nlm.nih.gov/cgi-bin/sis/search/r?dbs+hsdb:@term+@rn+@rel+72-43-5
   7. http://toxnet.nlm.nih.gov/cgi-bin/sis/search/r?dbs+hsdb:@term+@rn+@rel+72-43-5
   8. http://toxnet.nlm.nih.gov/cgi-bin/sis/search/r?dbs+hsdb:@term+@rn+@rel+72-43-5
   9. http://toxnet.nlm.nih.gov/cgi-bin/sis/search/r?dbs+hsdb:@term+@rn+@rel+72-43-5
  10. http://toxnet.nlm.nih.gov/cgi-bin/sis/search/r?dbs+hsdb:@term+@rn+@rel+72-43-5
  11. http://toxnet.nlm.nih.gov/cgi-bin/sis/search/r?dbs+hsdb:@term+@rn+@rel+72-43-5
  12. http://toxnet.nlm.nih.gov/cgi-bin/sis/search/r?dbs+hsdb:@term+@rn+@rel+72-43-5
  13. http://pubchem.ncbi.nlm.nih.gov/vw3d/vw3d.cgi?cid=4115
