13632905
  -OEChem-07051213152D

103108  0     1  0  0  0  0  0999 V2000
    6.3282   -1.8922    0.0000 O   0  0  0  0  0  0  0  0  0  0  0  0
   15.3291    1.2129    0.0000 O   0  0  0  0  0  0  0  0  0  0  0  0
    8.1424   -3.6701    0.0000 O   0  0  0  0  0  0  0  0  0  0  0  0
    4.5961   -1.8855    0.0000 O   0  0  0  0  0  0  0  0  0  0  0  0
    6.3359    0.1078    0.0000 O   0  0  0  0  0  0  0  0  0  0  0  0
    4.6077    1.1145    0.0000 O   0  0  0  0  0  0  0  0  0  0  0  0
    2.8718    0.1212    0.0000 O   0  0  0  0  0  0  0  0  0  0  0  0
    2.8602   -2.8788    0.0000 O   0  0  0  0  0  0  0  0  0  0  0  0
    2.0000   -1.3755    0.0000 O   0  0  0  0  0  0  0  0  0  0  0  0
   10.8552   -0.3398    0.0000 C   0  0  2  0  0  0  0  0  0  0  0  0
    9.9892    0.1601    0.0000 C   0  0  1  0  0  0  0  0  0  0  0  0
    9.0792   -0.3467    0.0000 C   0  0  2  0  0  0  0  0  0  0  0  0
   11.7213    0.1601    0.0000 C   0  0  1  0  0  0  0  0  0  0  0  0
    9.0712   -1.3883    0.0000 C   0  0  2  0  0  0  0  0  0  0  0  0
   10.8713   -1.3814    0.0000 C   0  0  0  0  0  0  0  0  0  0  0  0
   11.7213    1.1602    0.0000 C   0  0  0  0  0  0  0  0  0  0  0  0
    8.1358   -1.9380    0.0000 C   0  0  2  0  0  0  0  0  0  0  0  0
    9.9732   -1.9091    0.0000 C   0  0  0  0  0  0  0  0  0  0  0  0
   12.6152    1.6948    0.0000 C   0  0  1  0  0  0  0  0  0  0  0  0
   13.5213    1.1810    0.0000 C   0  0  1  0  0  0  0  0  0  0  0  0
    9.9892    1.1602    0.0000 C   0  0  0  0  0  0  0  0  0  0  0  0
   12.6152   -0.3745    0.0000 C   0  0  0  0  0  0  0  0  0  0  0  0
    8.1524    0.2174    0.0000 C   0  0  0  0  0  0  0  0  0  0  0  0
   13.5213    0.1393    0.0000 C   0  0  0  0  0  0  0  0  0  0  0  0
   11.4980   -1.1059    0.0000 C   0  0  0  0  0  0  0  0  0  0  0  0
    7.1961   -1.3955    0.0000 C   0  0  2  0  0  0  0  0  0  0  0  0
   10.8552    1.6602    0.0000 C   0  0  0  0  0  0  0  0  0  0  0  0
    9.0869    0.6533    0.0000 C   0  0  0  0  0  0  0  0  0  0  0  0
    7.2045   -0.3106    0.0000 C   0  0  0  0  0  0  0  0  0  0  0  0
   12.0634   -0.7795    0.0000 C   0  0  0  0  0  0  0  0  0  0  0  0
   12.5901    2.7795    0.0000 C   0  0  0  0  0  0  0  0  0  0  0  0
   14.4650    1.7162    0.0000 C   0  0  1  0  0  0  0  0  0  0  0  0
   13.5213    3.3364    0.0000 C   0  0  0  0  0  0  0  0  0  0  0  0
   14.4650    2.8012    0.0000 C   0  0  0  0  0  0  0  0  0  0  0  0
    7.6391   -2.8060    0.0000 C   0  0  0  0  0  0  0  0  0  0  0  0
    8.6391   -2.8021    0.0000 C   0  0  0  0  0  0  0  0  0  0  0  0
   14.3911    0.6877    0.0000 C   0  0  0  0  0  0  0  0  0  0  0  0
   14.0112    4.2082    0.0000 C   0  0  0  0  0  0  0  0  0  0  0  0
   13.0113    4.1966    0.0000 C   0  0  0  0  0  0  0  0  0  0  0  0
    5.4641   -1.3888    0.0000 C   0  0  2  0  0  0  0  0  0  0  0  0
    5.4679   -0.3889    0.0000 C   0  0  1  0  0  0  0  0  0  0  0  0
    4.6038    0.1145    0.0000 C   0  0  2  0  0  0  0  0  0  0  0  0
    3.7320   -1.3822    0.0000 C   0  0  1  0  0  0  0  0  0  0  0  0
    3.7359   -0.3822    0.0000 C   0  0  1  0  0  0  0  0  0  0  0  0
    2.8641   -1.8788    0.0000 C   0  0  0  0  0  0  0  0  0  0  0  0
   10.7253    0.5851    0.0000 H   0  0  0  0  0  0  0  0  0  0  0  0
    9.0744   -2.2383    0.0000 H   0  0  0  0  0  0  0  0  0  0  0  0
   11.0893   -1.9618    0.0000 H   0  0  0  0  0  0  0  0  0  0  0  0
   11.4804   -1.2659    0.0000 H   0  0  0  0  0  0  0  0  0  0  0  0
    9.5759   -2.3851    0.0000 H   0  0  0  0  0  0  0  0  0  0  0  0
   10.3742   -2.3820    0.0000 H   0  0  0  0  0  0  0  0  0  0  0  0
   13.3447    2.1311    0.0000 H   0  0  0  0  0  0  0  0  0  0  0  0
    9.7772    1.7428    0.0000 H   0  0  0  0  0  0  0  0  0  0  0  0
    9.3786    1.0525    0.0000 H   0  0  0  0  0  0  0  0  0  0  0  0
   12.2106   -0.8443    0.0000 H   0  0  0  0  0  0  0  0  0  0  0  0
   13.0088   -0.8535    0.0000 H   0  0  0  0  0  0  0  0  0  0  0  0
    8.5606    0.6840    0.0000 H   0  0  0  0  0  0  0  0  0  0  0  0
    7.7624    0.6994    0.0000 H   0  0  0  0  0  0  0  0  0  0  0  0
   13.7303   -0.4444    0.0000 H   0  0  0  0  0  0  0  0  0  0  0  0
   14.1321    0.2454    0.0000 H   0  0  0  0  0  0  0  0  0  0  0  0
   11.0231   -1.5044    0.0000 H   0  0  0  0  0  0  0  0  0  0  0  0
   11.8965   -1.5808    0.0000 H   0  0  0  0  0  0  0  0  0  0  0  0
   11.9730   -0.7074    0.0000 H   0  0  0  0  0  0  0  0  0  0  0  0
    7.1949   -2.0155    0.0000 H   0  0  0  0  0  0  0  0  0  0  0  0
   10.8552    2.2802    0.0000 H   0  0  0  0  0  0  0  0  0  0  0  0
    9.7069    0.6485    0.0000 H   0  0  0  0  0  0  0  0  0  0  0  0
    9.0917    1.2733    0.0000 H   0  0  0  0  0  0  0  0  0  0  0  0
    8.4669    0.6581    0.0000 H   0  0  0  0  0  0  0  0  0  0  0  0
    6.9999    0.2747    0.0000 H   0  0  0  0  0  0  0  0  0  0  0  0
    6.5928   -0.4119    0.0000 H   0  0  0  0  0  0  0  0  0  0  0  0
   11.4808   -0.9916    0.0000 H   0  0  0  0  0  0  0  0  0  0  0  0
   12.2755   -1.3621    0.0000 H   0  0  0  0  0  0  0  0  0  0  0  0
   12.6460   -0.5674    0.0000 H   0  0  0  0  0  0  0  0  0  0  0  0
   12.3676    3.3582    0.0000 H   0  0  0  0  0  0  0  0  0  0  0  0
   11.9819    2.6593    0.0000 H   0  0  0  0  0  0  0  0  0  0  0  0
   14.4615    1.0962    0.0000 H   0  0  0  0  0  0  0  0  0  0  0  0
   15.0759    2.6951    0.0000 H   0  0  0  0  0  0  0  0  0  0  0  0
   14.6741    3.3849    0.0000 H   0  0  0  0  0  0  0  0  0  0  0  0
    7.1626   -2.4093    0.0000 H   0  0  0  0  0  0  0  0  0  0  0  0
    7.1657   -3.2063    0.0000 H   0  0  0  0  0  0  0  0  0  0  0  0
    8.1033   -3.1142    0.0000 H   0  0  0  0  0  0  0  0  0  0  0  0
    8.9512   -3.3378    0.0000 H   0  0  0  0  0  0  0  0  0  0  0  0
    9.1748   -2.4900    0.0000 H   0  0  0  0  0  0  0  0  0  0  0  0
   14.0853    0.1483    0.0000 H   0  0  0  0  0  0  0  0  0  0  0  0
   14.9304    0.3818    0.0000 H   0  0  0  0  0  0  0  0  0  0  0  0
   14.6970    1.2270    0.0000 H   0  0  0  0  0  0  0  0  0  0  0  0
   14.5517    3.9044    0.0000 H   0  0  0  0  0  0  0  0  0  0  0  0
   14.3150    4.7487    0.0000 H   0  0  0  0  0  0  0  0  0  0  0  0
   13.4707    4.5120    0.0000 H   0  0  0  0  0  0  0  0  0  0  0  0
   13.5446    4.5128    0.0000 H   0  0  0  0  0  0  0  0  0  0  0  0
   12.6951    4.7299    0.0000 H   0  0  0  0  0  0  0  0  0  0  0  0
   12.4780    3.8804    0.0000 H   0  0  0  0  0  0  0  0  0  0  0  0
   15.8673    1.5208    0.0000 H   0  0  0  0  0  0  0  0  0  0  0  0
    6.0022   -1.0809    0.0000 H   0  0  0  0  0  0  0  0  0  0  0  0
    7.8345   -4.2082    0.0000 H   0  0  0  0  0  0  0  0  0  0  0  0
    5.4703    0.2311    0.0000 H   0  0  0  0  0  0  0  0  0  0  0  0
    4.0681    0.4265    0.0000 H   0  0  0  0  0  0  0  0  0  0  0  0
    3.7296   -2.0022    0.0000 H   0  0  0  0  0  0  0  0  0  0  0  0
    3.1978   -0.6901    0.0000 H   0  0  0  0  0  0  0  0  0  0  0  0
    6.3383    0.7278    0.0000 H   0  0  0  0  0  0  0  0  0  0  0  0
    5.1458    1.4224    0.0000 H   0  0  0  0  0  0  0  0  0  0  0  0
    2.8742    0.7412    0.0000 H   0  0  0  0  0  0  0  0  0  0  0  0
    2.3221   -3.1868    0.0000 H   0  0  0  0  0  0  0  0  0  0  0  0
 26  1  1  1  0  0  0
 40  1  1  6  0  0  0
 32  2  1  1  0  0  0
  2 93  1  0  0  0  0
  3 35  1  0  0  0  0
  3 95  1  0  0  0  0
  4 40  1  0  0  0  0
  4 43  1  0  0  0  0
 41  5  1  1  0  0  0
  5100  1  0  0  0  0
 42  6  1  6  0  0  0
  6101  1  0  0  0  0
 44  7  1  1  0  0  0
  7102  1  0  0  0  0
  8 45  1  0  0  0  0
  8103  1  0  0  0  0
  9 45  2  0  0  0  0
 10 11  1  0  0  0  0
 10 13  1  0  0  0  0
 10 15  1  0  0  0  0
 10 25  1  1  0  0  0
 11 12  1  0  0  0  0
 11 21  1  0  0  0  0
 11 46  1  6  0  0  0
 12 14  1  0  0  0  0
 12 23  1  0  0  0  0
 12 28  1  1  0  0  0
 13 16  1  0  0  0  0
 13 22  1  0  0  0  0
 13 30  1  6  0  0  0
 14 17  1  0  0  0  0
 14 18  1  0  0  0  0
 14 47  1  6  0  0  0
 15 18  1  0  0  0  0
 15 48  1  0  0  0  0
 15 49  1  0  0  0  0
 16 19  1  0  0  0  0
 16 27  2  0  0  0  0
 17 26  1  0  0  0  0
 17 35  1  0  0  0  0
 17 36  1  6  0  0  0
 18 50  1  0  0  0  0
 18 51  1  0  0  0  0
 19 20  1  0  0  0  0
 19 31  1  0  0  0  0
 19 52  1  1  0  0  0
 20 24  1  0  0  0  0
 20 32  1  0  0  0  0
 20 37  1  1  0  0  0
 21 27  1  0  0  0  0
 21 53  1  0  0  0  0
 21 54  1  0  0  0  0
 22 24  1  0  0  0  0
 22 55  1  0  0  0  0
 22 56  1  0  0  0  0
 23 29  1  0  0  0  0
 23 57  1  0  0  0  0
 23 58  1  0  0  0  0
 24 59  1  0  0  0  0
 24 60  1  0  0  0  0
 25 61  1  0  0  0  0
 25 62  1  0  0  0  0
 25 63  1  0  0  0  0
 26 29  1  0  0  0  0
 26 64  1  0  0  0  0
 27 65  1  0  0  0  0
 28 66  1  0  0  0  0
 28 67  1  0  0  0  0
 28 68  1  0  0  0  0
 29 69  1  0  0  0  0
 29 70  1  0  0  0  0
 30 71  1  0  0  0  0
 30 72  1  0  0  0  0
 30 73  1  0  0  0  0
 31 33  1  0  0  0  0
 31 74  1  0  0  0  0
 31 75  1  0  0  0  0
 32 34  1  0  0  0  0
 32 76  1  0  0  0  0
 33 34  1  0  0  0  0
 33 38  1  0  0  0  0
 33 39  1  0  0  0  0
 34 77  1  0  0  0  0
 34 78  1  0  0  0  0
 35 79  1  0  0  0  0
 35 80  1  0  0  0  0
 36 81  1  0  0  0  0
 36 82  1  0  0  0  0
 36 83  1  0  0  0  0
 37 84  1  0  0  0  0
 37 85  1  0  0  0  0
 37 86  1  0  0  0  0
 38 87  1  0  0  0  0
 38 88  1  0  0  0  0
 38 89  1  0  0  0  0
 39 90  1  0  0  0  0
 39 91  1  0  0  0  0
 39 92  1  0  0  0  0
 40 41  1  0  0  0  0
 40 94  1  0  0  0  0
 41 42  1  0  0  0  0
 41 96  1  0  0  0  0
 42 44  1  0  0  0  0
 42 97  1  0  0  0  0
 43 44  1  0  0  0  0
 43 45  1  6  0  0  0
 43 98  1  0  0  0  0
 44 99  1  0  0  0  0
M  END
> <PUBCHEM_COMPOUND_CID>
13632905

> <PUBCHEM_COMPOUND_CANONICALIZED>
1

> <PUBCHEM_CACTVS_COMPLEXITY>
1220

> <PUBCHEM_CACTVS_HBOND_ACCEPTOR>
9

> <PUBCHEM_CACTVS_HBOND_DONOR>
6

> <PUBCHEM_CACTVS_ROTATABLE_BOND>
4

> <PUBCHEM_CACTVS_SUBSKEYS>
AAADcfB8PAAAAAAAAAAAAAAAAAAAAAAAAAA0YMGCAAAAAADAAAAAGgAACAAADxSwgAMCCAAABgCIAiDSCAIAAAAgAAAACAFAAAgREBYAAQQiQAAFoAAPAAPK7PxPgAAAAAAAAADAAAYAADAAAAAAAAAAAA==

> <PUBCHEM_IUPAC_OPENEYE_NAME>
(2S,3S,4S,5R,6R)-6-[[(3S,4S,4aR,6aR,6bS,8aR,9R,12aS,14aR,14bR)-9-hydroxy-4-(hydroxymethyl)-4,6a,6b,8a,11,11,14b-heptamethyl-1,2,3,4a,5,6,7,8,9,10,12,12a,14,14a-tetradecahydropicen-3-yl]oxy]-3,4,5-trihydroxy-tetrahydropyran-2-carboxylic acid

> <PUBCHEM_IUPAC_CAS_NAME>
(2S,3S,4S,5R,6R)-6-[[(3S,4S,4aR,6aR,6bS,8aR,9R,12aS,14aR,14bR)-9-hydroxy-4-(hydroxymethyl)-4,6a,6b,8a,11,11,14b-heptamethyl-1,2,3,4a,5,6,7,8,9,10,12,12a,14,14a-tetradecahydropicen-3-yl]oxy]-3,4,5-trihydroxy-2-oxanecarboxylic acid

> <PUBCHEM_IUPAC_NAME>
(2S,3S,4S,5R,6R)-6-[[(3S,4S,4aR,6aR,6bS,8aR,9R,12aS,14aR,14bR)-9-hydroxy-4-(hydroxymethyl)-4,6a,6b,8a,11,11,14b-heptamethyl-1,2,3,4a,5,6,7,8,9,10,12,12a,14,14a-tetradecahydropicen-3-yl]oxy]-3,4,5-trihydroxyoxane-2-carboxylic acid

> <PUBCHEM_IUPAC_SYSTEMATIC_NAME>
(2S,3S,4S,5R,6R)-6-[[(3S,4S,4aR,6aR,6bS,8aR,9R,12aS,14aR,14bR)-4-(hydroxymethyl)-4,6a,6b,8a,11,11,14b-heptamethyl-9-oxidanyl-1,2,3,4a,5,6,7,8,9,10,12,12a,14,14a-tetradecahydropicen-3-yl]oxy]-3,4,5-tris(oxidanyl)oxane-2-carboxylic acid

> <PUBCHEM_IUPAC_TRADITIONAL_NAME>
(2S,3S,4S,5R,6R)-6-[[(3S,4S,4aR,6aR,6bS,8aR,9R,12aS,14aR,14bR)-9-hydroxy-4,6a,6b,8a,11,11,14b-heptamethyl-4-methylol-1,2,3,4a,5,6,7,8,9,10,12,12a,14,14a-tetradecahydropicen-3-yl]oxy]-3,4,5-trihydroxy-tetrahydropyran-2-carboxylic acid

> <PUBCHEM_IUPAC_INCHI>
InChI=1S/C36H58O9/c1-31(2)16-20-19-8-9-22-33(4)12-11-24(44-30-27(41)25(39)26(40)28(45-30)29(42)43)34(5,18-37)21(33)10-13-36(22,7)35(19,6)15-14-32(20,3)23(38)17-31/h8,20-28,30,37-41H,9-18H2,1-7H3,(H,42,43)/t20-,21+,22+,23+,24-,25-,26-,27+,28-,30+,32+,33-,34+,35+,36+/m0/s1

> <PUBCHEM_IUPAC_INCHIKEY>
NARQRJFIZNOSJV-JIHAXZPOSA-N

> <PUBCHEM_XLOGP3_AA>
5.1

> <PUBCHEM_EXACT_MASS>
634.408083

> <PUBCHEM_MOLECULAR_FORMULA>
C36H58O9

> <PUBCHEM_MOLECULAR_WEIGHT>
634.84032

> <PUBCHEM_OPENEYE_CAN_SMILES>
CC1(CC2C3=CCC4C5(CCC(C(C5CCC4(C3(CCC2(C(C1)O)C)C)C)(C)CO)OC6C(C(C(C(O6)C(=O)O)O)O)O)C)C

> <PUBCHEM_OPENEYE_ISO_SMILES>
C[C@]12CC[C@@H]([C@]([C@@H]1CC[C@@]3([C@@H]2CC=C4[C@]3(CC[C@@]5([C@H]4CC(C[C@H]5O)(C)C)C)C)C)(C)CO)O[C@H]6[C@@H]([C@H]([C@@H]([C@H](O6)C(=O)O)O)O)O

> <PUBCHEM_CACTVS_TPSA>
157

> <PUBCHEM_MONOISOTOPIC_WEIGHT>
634.408083

> <PUBCHEM_TOTAL_CHARGE>
0

> <PUBCHEM_HEAVY_ATOM_COUNT>
45

> <PUBCHEM_ATOM_DEF_STEREO_COUNT>
15

> <PUBCHEM_ATOM_UDEF_STEREO_COUNT>
0

> <PUBCHEM_BOND_DEF_STEREO_COUNT>
0

> <PUBCHEM_BOND_UDEF_STEREO_COUNT>
0

> <PUBCHEM_ISOTOPIC_ATOM_COUNT>
0

> <PUBCHEM_COMPONENT_COUNT>
1

> <PUBCHEM_CACTVS_TAUTO_COUNT>
1

> <PUBCHEM_COORDINATE_TYPE>
1
5
255

> <PUBCHEM_BONDANNOTATIONS>
26  1  5
40  1  6
10  25  5
11  46  6
12  28  5
13  30  6
14  47  6
17  36  6
19  52  5
32  2  5
20  37  5
43  45  6
41  5  5
42  6  6
44  7  5

$$$$

