   Color/Form
        Colorless, volatile liquid
   from [1]HSDB

   Odor
        Characteristic, sweetish, not unpleasant odor
   from [2]HSDB

   Boiling Point
        50.2 deg C
   from [3]HSDB

   Density/Specific Gravity
        1.871 at 20 deg C/4 deg C
   from [4]HSDB

   Octanol/Water Partition Coefficient
        log Kow = 2.30
   from [5]HSDB

   Solubilities

     * Miscible with petroleum ether, other fat solvents
     * In water, 4,070 mg/L at 25 deg C

   from [6]HSDB

   Spectral Properties
        Index of refraction = 1.3697 at 0 deg C/D
   from [7]HSDB

   Vapor Pressure
        302 mm Hg at 25 deg C (extrapolated)
   from [8]HSDB

   Other Chemical/Physical Properties

     * Vapor pressure: 243 mm Hg @ 20 deg C
     * Henry's Law constant = 0.0203 atm-cu m/mole at 25 deg C [Abraham MH
       et al; J Pharm Sci 83: 1085-1100 (1994)] [9]PubMed Abstract
     * Hydroxyl radical reaction rate constant = 4.5X10-14 cu cm/molec-sec
       at 25 deg C

   from [10]HSDB

   Computed Properties
   Molecular Weight                  197.38155 [g/mol]
   Molecular Formula                 C[2]HBrClF[3]
   XLogP3                            2.3
   H-Bond Donor                      0
   H-Bond Acceptor                   3
   Rotatable Bond Count              0
   Exact Mass                        195.890224
   MonoIsotopic Mass                 195.890224
   Topological Polar Surface Area    0
   Heavy Atom Count                  7
   Formal Charge                     0
   Complexity                        60.4
   Isotope Atom Count                0
   Defined Atom Stereocenter Count   0
   Undefined Atom Stereocenter Count 1
   Defined Bond Stereocenter Count   0
   Undefined Bond Stereocenter Count 0
   Covalently-Bonded Unit Count      1
   Feature 3D Hydrophobe Count       1
   Effective Rotor Count             1
   Conformer Sampling RMSD           0.4
   CID Conformer Count               [11]2

References

   1. http://toxnet.nlm.nih.gov/cgi-bin/sis/search/r?dbs+hsdb:@term+@rn+@rel+151-67-7
   2. http://toxnet.nlm.nih.gov/cgi-bin/sis/search/r?dbs+hsdb:@term+@rn+@rel+151-67-7
   3. http://toxnet.nlm.nih.gov/cgi-bin/sis/search/r?dbs+hsdb:@term+@rn+@rel+151-67-7
   4. http://toxnet.nlm.nih.gov/cgi-bin/sis/search/r?dbs+hsdb:@term+@rn+@rel+151-67-7
   5. http://toxnet.nlm.nih.gov/cgi-bin/sis/search/r?dbs+hsdb:@term+@rn+@rel+151-67-7
   6. http://toxnet.nlm.nih.gov/cgi-bin/sis/search/r?dbs+hsdb:@term+@rn+@rel+151-67-7
   7. http://toxnet.nlm.nih.gov/cgi-bin/sis/search/r?dbs+hsdb:@term+@rn+@rel+151-67-7
   8. http://toxnet.nlm.nih.gov/cgi-bin/sis/search/r?dbs+hsdb:@term+@rn+@rel+151-67-7
   9. http://www.ncbi.nlm.nih.gov/entrez/query.fcgi?cmd=Retrieve&db=pubmed&dopt=Abstract&list_uids=7983591
  10. http://toxnet.nlm.nih.gov/cgi-bin/sis/search/r?dbs+hsdb:@term+@rn+@rel+151-67-7
  11. http://pubchem.ncbi.nlm.nih.gov/vw3d/vw3d.cgi?cid=3562
