   Color/Form

     * Colorless needles
     * Needles from alcohol
     * White, crystalline powder

   from [1]HSDB

   Odor
        Characteristic, like oil of bay
   from [2]HSDB

   Boiling Point
        91.4 deg C
   from [3]HSDB

   Melting Point
        43.8 deg C
   from [4]HSDB

   Density/Specific Gravity
        0.8679 g/cu cm at 50 deg C
   from [5]HSDB

   Dissociation Constants
        pKa = 5.3 at 20 deg C
   from [6]HSDB

   Heat of Combustion
        -7,413.7 kJ/mol
   from [7]HSDB

   Octanol/Water Partition Coefficient
        log Kow = 4.60
   from [8]HSDB

   Solubilities

     * 1 g dissolves in 1 ml alcohol, 2.5 ml propyl alcohol; freely sol in
       benzene, ether.
     * Slightly soluble in chloroform; soluble in acetone, petroleum
       ether; very soulble in methanol, ethanol; miscible with benzene
     * In water, 4.81 mg/L at 25 deg C

   from [9]HSDB

   Spectral Properties

     * Index of refraction: 1.41830 at 82 deg C/D
     * IR: 6281 (Coblentz Society Spectral Collection)
     * NMR: 10325 (Sadtler Research Laboratories Spectral Collection)
     * MASS: 36481 (NIST/EPA/MSDC Mass Spectral database, 1990 version);
       2032 (Atlas of Mass Spectral Data, John Wiley & Sons, New York)

   from [10]HSDB

   Surface Tension
        26.6 mN/m at 70 deg C
   from [11]HSDB

   Vapor Pressure
        1.6X10-5 mm Hg at 25 deg C (extrapolated)
   from [12]HSDB

   Viscosity
        7.30 mPa.sec at 50 deg C
   from [13]HSDB

   Other Chemical/Physical Properties

     * Heat of formation: -775.6 KJ/mol; Specific heat 1.80 J/g; Heat of
       fusion 36.6 kJ/mol
     * MP: 48 deg C
     * Henry's Law constant = 9.3X10-6 atm-cu m/mole at 25 deg C (est)
     * Hydroxyl radical reaction rate constant = 1.4X10-11 cu cm/molec-sec
       at 25 deg C (est)

   from [14]HSDB

   Computed Properties
   Molecular Weight                  200.31776 [g/mol]
   Molecular Formula                 C[12]H[24]O[2]
   XLogP3                            4.2
   H-Bond Donor                      1
   H-Bond Acceptor                   2
   Rotatable Bond Count              10
   Exact Mass                        200.17763
   MonoIsotopic Mass                 200.17763
   Topological Polar Surface Area    37.3
   Heavy Atom Count                  14
   Formal Charge                     0
   Complexity                        132
   Isotope Atom Count                0
   Defined Atom Stereocenter Count   0
   Undefined Atom Stereocenter Count 0
   Defined Bond Stereocenter Count   0
   Undefined Bond Stereocenter Count 0
   Covalently-Bonded Unit Count      1
   Feature 3D Acceptor Count         2
   Feature 3D Anion Count            1
   Feature 3D Hydrophobe Count       1
   Effective Rotor Count             10
   Conformer Sampling RMSD           1
   CID Conformer Count               [15]138

References

   1. http://toxnet.nlm.nih.gov/cgi-bin/sis/search/r?dbs+hsdb:@term+@rn+@rel+143-07-7
   2. http://toxnet.nlm.nih.gov/cgi-bin/sis/search/r?dbs+hsdb:@term+@rn+@rel+143-07-7
   3. http://toxnet.nlm.nih.gov/cgi-bin/sis/search/r?dbs+hsdb:@term+@rn+@rel+143-07-7
   4. http://toxnet.nlm.nih.gov/cgi-bin/sis/search/r?dbs+hsdb:@term+@rn+@rel+143-07-7
   5. http://toxnet.nlm.nih.gov/cgi-bin/sis/search/r?dbs+hsdb:@term+@rn+@rel+143-07-7
   6. http://toxnet.nlm.nih.gov/cgi-bin/sis/search/r?dbs+hsdb:@term+@rn+@rel+143-07-7
   7. http://toxnet.nlm.nih.gov/cgi-bin/sis/search/r?dbs+hsdb:@term+@rn+@rel+143-07-7
   8. http://toxnet.nlm.nih.gov/cgi-bin/sis/search/r?dbs+hsdb:@term+@rn+@rel+143-07-7
   9. http://toxnet.nlm.nih.gov/cgi-bin/sis/search/r?dbs+hsdb:@term+@rn+@rel+143-07-7
  10. http://toxnet.nlm.nih.gov/cgi-bin/sis/search/r?dbs+hsdb:@term+@rn+@rel+143-07-7
  11. http://toxnet.nlm.nih.gov/cgi-bin/sis/search/r?dbs+hsdb:@term+@rn+@rel+143-07-7
  12. http://toxnet.nlm.nih.gov/cgi-bin/sis/search/r?dbs+hsdb:@term+@rn+@rel+143-07-7
  13. http://toxnet.nlm.nih.gov/cgi-bin/sis/search/r?dbs+hsdb:@term+@rn+@rel+143-07-7
  14. http://toxnet.nlm.nih.gov/cgi-bin/sis/search/r?dbs+hsdb:@term+@rn+@rel+143-07-7
  15. http://pubchem.ncbi.nlm.nih.gov/vw3d/vw3d.cgi?cid=3893
