23724599
  -OEChem-07051213082D

 97 97  0     0  0  0  0  0  0999 V2000
   15.1244    9.9400    0.0000 O   0  0  0  0  0  0  0  0  0  0  0  0
    3.0000   -9.0600    0.0000 C   0  0  0  0  0  0  0  0  0  0  0  0
    3.0000  -10.0600    0.0000 C   0  0  0  0  0  0  0  0  0  0  0  0
    3.8660  -10.5600    0.0000 C   0  0  0  0  0  0  0  0  0  0  0  0
    3.8660   -8.5600    0.0000 C   0  0  0  0  0  0  0  0  0  0  0  0
    4.7320  -10.0600    0.0000 C   0  0  0  0  0  0  0  0  0  0  0  0
    4.7320   -9.0600    0.0000 C   0  0  0  0  0  0  0  0  0  0  0  0
    2.0000   -9.0600    0.0000 C   0  0  0  0  0  0  0  0  0  0  0  0
    2.5000   -8.1940    0.0000 C   0  0  0  0  0  0  0  0  0  0  0  0
    3.8660   -7.5600    0.0000 C   0  0  0  0  0  0  0  0  0  0  0  0
    5.5981   -8.5600    0.0000 C   0  0  0  0  0  0  0  0  0  0  0  0
    4.7320   -7.0600    0.0000 C   0  0  0  0  0  0  0  0  0  0  0  0
    4.7320   -6.0600    0.0000 C   0  0  0  0  0  0  0  0  0  0  0  0
    3.8660   -5.5600    0.0000 C   0  0  0  0  0  0  0  0  0  0  0  0
    5.5981   -5.5600    0.0000 C   0  0  0  0  0  0  0  0  0  0  0  0
    5.5981   -4.5600    0.0000 C   0  0  0  0  0  0  0  0  0  0  0  0
    6.4641   -4.0600    0.0000 C   0  0  0  0  0  0  0  0  0  0  0  0
   14.2583    9.4400    0.0000 C   0  0  0  0  0  0  0  0  0  0  0  0
   13.3923    8.9400    0.0000 C   0  0  0  0  0  0  0  0  0  0  0  0
   13.7583   10.3060    0.0000 C   0  0  0  0  0  0  0  0  0  0  0  0
   14.7583    8.5740    0.0000 C   0  0  0  0  0  0  0  0  0  0  0  0
    6.4641   -3.0600    0.0000 C   0  0  0  0  0  0  0  0  0  0  0  0
   13.3923    7.9400    0.0000 C   0  0  0  0  0  0  0  0  0  0  0  0
    5.5981   -2.5600    0.0000 C   0  0  0  0  0  0  0  0  0  0  0  0
   12.5263    7.4400    0.0000 C   0  0  0  0  0  0  0  0  0  0  0  0
    7.3301   -2.5600    0.0000 C   0  0  0  0  0  0  0  0  0  0  0  0
   12.5263    6.4400    0.0000 C   0  0  0  0  0  0  0  0  0  0  0  0
    7.3301   -1.5600    0.0000 C   0  0  0  0  0  0  0  0  0  0  0  0
   13.3923    5.9400    0.0000 C   0  0  0  0  0  0  0  0  0  0  0  0
   11.6603    5.9400    0.0000 C   0  0  0  0  0  0  0  0  0  0  0  0
   11.6603    4.9400    0.0000 C   0  0  0  0  0  0  0  0  0  0  0  0
    8.1962   -1.0600    0.0000 C   0  0  0  0  0  0  0  0  0  0  0  0
   10.7942    4.4400    0.0000 C   0  0  0  0  0  0  0  0  0  0  0  0
    8.1962   -0.0600    0.0000 C   0  0  0  0  0  0  0  0  0  0  0  0
   10.7942    3.4400    0.0000 C   0  0  0  0  0  0  0  0  0  0  0  0
    9.0622    0.4400    0.0000 C   0  0  0  0  0  0  0  0  0  0  0  0
    9.9282    2.9400    0.0000 C   0  0  0  0  0  0  0  0  0  0  0  0
   11.6603    2.9400    0.0000 C   0  0  0  0  0  0  0  0  0  0  0  0
    9.0622    1.4400    0.0000 C   0  0  0  0  0  0  0  0  0  0  0  0
    9.9282    1.9400    0.0000 C   0  0  0  0  0  0  0  0  0  0  0  0
    9.9282   -0.0600    0.0000 C   0  0  0  0  0  0  0  0  0  0  0  0
    2.3894   -9.9523    0.0000 H   0  0  0  0  0  0  0  0  0  0  0  0
    2.7880  -10.6426    0.0000 H   0  0  0  0  0  0  0  0  0  0  0  0
    3.4675  -11.0349    0.0000 H   0  0  0  0  0  0  0  0  0  0  0  0
    4.2646  -11.0349    0.0000 H   0  0  0  0  0  0  0  0  0  0  0  0
    4.9441  -10.6426    0.0000 H   0  0  0  0  0  0  0  0  0  0  0  0
    5.3426   -9.9523    0.0000 H   0  0  0  0  0  0  0  0  0  0  0  0
    3.0369   -7.8840    0.0000 H   0  0  0  0  0  0  0  0  0  0  0  0
    2.1900   -7.6570    0.0000 H   0  0  0  0  0  0  0  0  0  0  0  0
    1.9631   -8.5040    0.0000 H   0  0  0  0  0  0  0  0  0  0  0  0
    2.0000   -8.4400    0.0000 H   0  0  0  0  0  0  0  0  0  0  0  0
    1.3800   -9.0600    0.0000 H   0  0  0  0  0  0  0  0  0  0  0  0
    2.0000   -9.6800    0.0000 H   0  0  0  0  0  0  0  0  0  0  0  0
    3.3291   -7.2500    0.0000 H   0  0  0  0  0  0  0  0  0  0  0  0
    5.9081   -9.0969    0.0000 H   0  0  0  0  0  0  0  0  0  0  0  0
    6.1350   -8.2500    0.0000 H   0  0  0  0  0  0  0  0  0  0  0  0
    5.2881   -8.0231    0.0000 H   0  0  0  0  0  0  0  0  0  0  0  0
    5.2690   -7.3700    0.0000 H   0  0  0  0  0  0  0  0  0  0  0  0
    4.1760   -5.0231    0.0000 H   0  0  0  0  0  0  0  0  0  0  0  0
    3.3291   -5.2500    0.0000 H   0  0  0  0  0  0  0  0  0  0  0  0
    3.5560   -6.0969    0.0000 H   0  0  0  0  0  0  0  0  0  0  0  0
    6.1350   -5.8700    0.0000 H   0  0  0  0  0  0  0  0  0  0  0  0
    5.0611   -4.2500    0.0000 H   0  0  0  0  0  0  0  0  0  0  0  0
    7.0010   -4.3700    0.0000 H   0  0  0  0  0  0  0  0  0  0  0  0
   13.1803    9.5226    0.0000 H   0  0  0  0  0  0  0  0  0  0  0  0
   12.7817    8.8323    0.0000 H   0  0  0  0  0  0  0  0  0  0  0  0
   14.2214    8.2640    0.0000 H   0  0  0  0  0  0  0  0  0  0  0  0
   15.0683    8.0370    0.0000 H   0  0  0  0  0  0  0  0  0  0  0  0
   15.2953    8.8840    0.0000 H   0  0  0  0  0  0  0  0  0  0  0  0
   14.2953   10.6160    0.0000 H   0  0  0  0  0  0  0  0  0  0  0  0
   13.4483   10.8430    0.0000 H   0  0  0  0  0  0  0  0  0  0  0  0
   13.2214    9.9960    0.0000 H   0  0  0  0  0  0  0  0  0  0  0  0
   13.9292    7.6300    0.0000 H   0  0  0  0  0  0  0  0  0  0  0  0
   15.1244   10.5600    0.0000 H   0  0  0  0  0  0  0  0  0  0  0  0
    5.9081   -2.0231    0.0000 H   0  0  0  0  0  0  0  0  0  0  0  0
    5.0611   -2.2500    0.0000 H   0  0  0  0  0  0  0  0  0  0  0  0
    5.2881   -3.0969    0.0000 H   0  0  0  0  0  0  0  0  0  0  0  0
   11.9893    7.7500    0.0000 H   0  0  0  0  0  0  0  0  0  0  0  0
    7.8671   -2.8700    0.0000 H   0  0  0  0  0  0  0  0  0  0  0  0
   13.0823    5.4031    0.0000 H   0  0  0  0  0  0  0  0  0  0  0  0
   13.9292    5.6300    0.0000 H   0  0  0  0  0  0  0  0  0  0  0  0
   13.7023    6.4769    0.0000 H   0  0  0  0  0  0  0  0  0  0  0  0
    6.7932   -1.2500    0.0000 H   0  0  0  0  0  0  0  0  0  0  0  0
   11.1233    6.2500    0.0000 H   0  0  0  0  0  0  0  0  0  0  0  0
   12.1972    4.6300    0.0000 H   0  0  0  0  0  0  0  0  0  0  0  0
    8.7331   -1.3700    0.0000 H   0  0  0  0  0  0  0  0  0  0  0  0
   10.2573    4.7500    0.0000 H   0  0  0  0  0  0  0  0  0  0  0  0
    7.6592    0.2500    0.0000 H   0  0  0  0  0  0  0  0  0  0  0  0
    9.3913    3.2500    0.0000 H   0  0  0  0  0  0  0  0  0  0  0  0
   11.3503    2.4031    0.0000 H   0  0  0  0  0  0  0  0  0  0  0  0
   12.1972    2.6300    0.0000 H   0  0  0  0  0  0  0  0  0  0  0  0
   11.9703    3.4769    0.0000 H   0  0  0  0  0  0  0  0  0  0  0  0
    8.5252    1.7500    0.0000 H   0  0  0  0  0  0  0  0  0  0  0  0
   10.4651    1.6300    0.0000 H   0  0  0  0  0  0  0  0  0  0  0  0
    9.6182   -0.5969    0.0000 H   0  0  0  0  0  0  0  0  0  0  0  0
   10.4651   -0.3700    0.0000 H   0  0  0  0  0  0  0  0  0  0  0  0
   10.2382    0.4769    0.0000 H   0  0  0  0  0  0  0  0  0  0  0  0
  1 18  1  0  0  0  0
  1 74  1  0  0  0  0
  2  3  1  0  0  0  0
  2  5  1  0  0  0  0
  2  8  1  0  0  0  0
  2  9  1  0  0  0  0
  3  4  1  0  0  0  0
  3 42  1  0  0  0  0
  3 43  1  0  0  0  0
  4  6  1  0  0  0  0
  4 44  1  0  0  0  0
  4 45  1  0  0  0  0
  5  7  2  0  0  0  0
  5 10  1  0  0  0  0
  6  7  1  0  0  0  0
  6 46  1  0  0  0  0
  6 47  1  0  0  0  0
  7 11  1  0  0  0  0
  8 51  1  0  0  0  0
  8 52  1  0  0  0  0
  8 53  1  0  0  0  0
  9 48  1  0  0  0  0
  9 49  1  0  0  0  0
  9 50  1  0  0  0  0
 10 12  2  0  0  0  0
 10 54  1  0  0  0  0
 11 55  1  0  0  0  0
 11 56  1  0  0  0  0
 11 57  1  0  0  0  0
 12 13  1  0  0  0  0
 12 58  1  0  0  0  0
 13 14  1  0  0  0  0
 13 15  2  0  0  0  0
 14 59  1  0  0  0  0
 14 60  1  0  0  0  0
 14 61  1  0  0  0  0
 15 16  1  0  0  0  0
 15 62  1  0  0  0  0
 16 17  2  0  0  0  0
 16 63  1  0  0  0  0
 17 22  1  0  0  0  0
 17 64  1  0  0  0  0
 18 19  1  0  0  0  0
 18 20  1  0  0  0  0
 18 21  1  0  0  0  0
 19 23  1  0  0  0  0
 19 65  1  0  0  0  0
 19 66  1  0  0  0  0
 20 70  1  0  0  0  0
 20 71  1  0  0  0  0
 20 72  1  0  0  0  0
 21 67  1  0  0  0  0
 21 68  1  0  0  0  0
 21 69  1  0  0  0  0
 22 24  1  0  0  0  0
 22 26  2  0  0  0  0
 23 25  2  0  0  0  0
 23 73  1  0  0  0  0
 24 75  1  0  0  0  0
 24 76  1  0  0  0  0
 24 77  1  0  0  0  0
 25 27  1  0  0  0  0
 25 78  1  0  0  0  0
 26 28  1  0  0  0  0
 26 79  1  0  0  0  0
 27 29  1  0  0  0  0
 27 30  2  0  0  0  0
 28 32  2  0  0  0  0
 28 83  1  0  0  0  0
 29 80  1  0  0  0  0
 29 81  1  0  0  0  0
 29 82  1  0  0  0  0
 30 31  1  0  0  0  0
 30 84  1  0  0  0  0
 31 33  2  0  0  0  0
 31 85  1  0  0  0  0
 32 34  1  0  0  0  0
 32 86  1  0  0  0  0
 33 35  1  0  0  0  0
 33 87  1  0  0  0  0
 34 36  2  0  0  0  0
 34 88  1  0  0  0  0
 35 37  2  0  0  0  0
 35 38  1  0  0  0  0
 36 39  1  0  0  0  0
 36 41  1  0  0  0  0
 37 40  1  0  0  0  0
 37 89  1  0  0  0  0
 38 90  1  0  0  0  0
 38 91  1  0  0  0  0
 38 92  1  0  0  0  0
 39 40  2  0  0  0  0
 39 93  1  0  0  0  0
 40 94  1  0  0  0  0
 41 95  1  0  0  0  0
 41 96  1  0  0  0  0
 41 97  1  0  0  0  0
M  END
> <PUBCHEM_COMPOUND_CID>
23724599

> <PUBCHEM_COMPOUND_CANONICALIZED>
1

> <PUBCHEM_CACTVS_COMPLEXITY>
1220

> <PUBCHEM_CACTVS_HBOND_ACCEPTOR>
1

> <PUBCHEM_CACTVS_HBOND_DONOR>
1

> <PUBCHEM_CACTVS_ROTATABLE_BOND>
13

> <PUBCHEM_CACTVS_SUBSKEYS>
AAADcfB8IAAAAAAAAAAAAAAAAAAAAAAAAAAgAAAAAAAAAAAAAAAAGgAACAAADkSAgAACAAAAAgCAAiBCAAAAAAAgAAAICAAAAAgIAAIAAQAAQAAAwAAIgAMAgMAPAAAAAAAAAAAAAAAAAAAAAAAAAAAAAA==

> <PUBCHEM_IUPAC_OPENEYE_NAME>
(4E,6E,8E,10E,12E,14E,16E,18E,20E,22E,24E)-2,6,10,14,19,23-hexamethyl-25-(2,6,6-trimethylcyclohexen-1-yl)pentacosa-4,6,8,10,12,14,16,18,20,22,24-undecaen-2-ol

> <PUBCHEM_IUPAC_CAS_NAME>
(4E,6E,8E,10E,12E,14E,16E,18E,20E,22E,24E)-2,6,10,14,19,23-hexamethyl-25-(2,6,6-trimethyl-1-cyclohexenyl)-2-pentacosa-4,6,8,10,12,14,16,18,20,22,24-undecaenol

> <PUBCHEM_IUPAC_NAME>
(4E,6E,8E,10E,12E,14E,16E,18E,20E,22E,24E)-2,6,10,14,19,23-hexamethyl-25-(2,6,6-trimethylcyclohexen-1-yl)pentacosa-4,6,8,10,12,14,16,18,20,22,24-undecaen-2-ol

> <PUBCHEM_IUPAC_SYSTEMATIC_NAME>
(4E,6E,8E,10E,12E,14E,16E,18E,20E,22E,24E)-2,6,10,14,19,23-hexamethyl-25-(2,6,6-trimethylcyclohexen-1-yl)pentacosa-4,6,8,10,12,14,16,18,20,22,24-undecaen-2-ol

> <PUBCHEM_IUPAC_TRADITIONAL_NAME>
(4E,6E,8E,10E,12E,14E,16E,18E,20E,22E,24E)-2,6,10,14,19,23-hexamethyl-25-(2,6,6-trimethylcyclohexen-1-yl)pentacosa-4,6,8,10,12,14,16,18,20,22,24-undecaen-2-ol

> <PUBCHEM_IUPAC_INCHI>
InChI=1S/C40H56O/c1-32(20-13-22-34(3)23-14-24-35(4)26-16-31-40(9,10)41)18-11-12-19-33(2)21-15-25-36(5)28-29-38-37(6)27-17-30-39(38,7)8/h11-16,18-26,28-29,41H,17,27,30-31H2,1-10H3/b12-11+,20-13+,21-15+,23-14+,26-16+,29-28+,32-18+,33-19+,34-22+,35-24+,36-25+

> <PUBCHEM_IUPAC_INCHIKEY>
JLURGIFQNZBRAB-CJXMTMHDSA-N

> <PUBCHEM_XLOGP3>
13.1

> <PUBCHEM_EXACT_MASS>
552.433116

> <PUBCHEM_MOLECULAR_FORMULA>
C40H56O

> <PUBCHEM_MOLECULAR_WEIGHT>
552.87204

> <PUBCHEM_OPENEYE_CAN_SMILES>
CC1=C(C(CCC1)(C)C)C=CC(=CC=CC(=CC=CC=C(C)C=CC=C(C)C=CC=C(C)C=CCC(C)(C)O)C)C

> <PUBCHEM_OPENEYE_ISO_SMILES>
CC1=C(C(CCC1)(C)C)/C=C/C(=C/C=C/C(=C/C=C/C=C(\C)/C=C/C=C(\C)/C=C/C=C(\C)/C=C/CC(C)(C)O)/C)/C

> <PUBCHEM_CACTVS_TPSA>
20.2

> <PUBCHEM_MONOISOTOPIC_WEIGHT>
552.433116

> <PUBCHEM_TOTAL_CHARGE>
0

> <PUBCHEM_HEAVY_ATOM_COUNT>
41

> <PUBCHEM_ATOM_DEF_STEREO_COUNT>
0

> <PUBCHEM_ATOM_UDEF_STEREO_COUNT>
0

> <PUBCHEM_BOND_DEF_STEREO_COUNT>
11

> <PUBCHEM_BOND_UDEF_STEREO_COUNT>
0

> <PUBCHEM_ISOTOPIC_ATOM_COUNT>
0

> <PUBCHEM_COMPONENT_COUNT>
1

> <PUBCHEM_CACTVS_TAUTO_COUNT>
1

> <PUBCHEM_COORDINATE_TYPE>
1
5
255

$$$$

