   Color/Form

     * Crystals
     * WHITE POWDER

   from [1]HSDB

   Odor
        Odorless
   from [2]HSDB

   Taste
        Bitter
   from [3]HSDB

   Melting Point
        215 deg C
   from [4]HSDB

   Solubilities

     * 1 g sol in 30 parts chloroform, 1 part water (20 deg C)
     * SOL IN ALCOHOL
     * Very soluble in water.

   from [5]HSDB

   Other Chemical/Physical Properties
        HYGROSCOPIC
   from [6]HSDB

   Computed Properties
   Molecular Weight                  572.8619 [g/mol]
   Molecular Formula                 C[35]H[60]N[2]O[4]^+2
   XLogP3-AA                         6.6
   H-Bond Donor                      0
   H-Bond Acceptor                   4
   Rotatable Bond Count              6
   Exact Mass                        572.455308
   MonoIsotopic Mass                 572.455308
   Topological Polar Surface Area    52.6
   Heavy Atom Count                  41
   Formal Charge                     2
   Complexity                        1000
   Isotope Atom Count                0
   Defined Atom Stereocenter Count   10
   Undefined Atom Stereocenter Count 0
   Defined Bond Stereocenter Count   0
   Undefined Bond Stereocenter Count 0
   Covalently-Bonded Unit Count      1
   Feature 3D Acceptor Count         2
   Feature 3D Cation Count           2
   Feature 3D Ring Count             6
   Effective Rotor Count             10.6
   Conformer Sampling RMSD           1.2
   CID Conformer Count               [7]3

References

   1. http://toxnet.nlm.nih.gov/cgi-bin/sis/search/r?dbs+hsdb:@term+@rn+@rel+15500-66-0
   2. http://toxnet.nlm.nih.gov/cgi-bin/sis/search/r?dbs+hsdb:@term+@rn+@rel+15500-66-0
   3. http://toxnet.nlm.nih.gov/cgi-bin/sis/search/r?dbs+hsdb:@term+@rn+@rel+15500-66-0
   4. http://toxnet.nlm.nih.gov/cgi-bin/sis/search/r?dbs+hsdb:@term+@rn+@rel+15500-66-0
   5. http://toxnet.nlm.nih.gov/cgi-bin/sis/search/r?dbs+hsdb:@term+@rn+@rel+15500-66-0
   6. http://toxnet.nlm.nih.gov/cgi-bin/sis/search/r?dbs+hsdb:@term+@rn+@rel+15500-66-0
   7. http://pubchem.ncbi.nlm.nih.gov/vw3d/vw3d.cgi?cid=441289
