   Chemical and Physical Properties References

   [1]USDA ARS - USDA chemical properties
   from [2]ChemIDplus

   Color/Form
        Colorless liquid when pure
   from [3]HSDB

   Odor

     * PUNGENT ODOR
     * Pungent odor at high concentrations.

   from [4]HSDB

   Taste
        The threshold for taste ... was reported to be 0.01 mg/l.
   from [5]HSDB

   Boiling Point
        164.5 deg C at 300 mm Hg
   from [6]HSDB

   Melting Point
        5 deg C
   from [7]HSDB

   Corrosivity

     * CORRODES ALUMINUM, MAGNESIUM, TIN & ALLOYS CONTAINING THESE METALS;
       ATTACKS RUBBER MATERIAL & COATINGS
     * Will not corrode steel or copper alloys unless it contains more
       than 0.02% of water.

   from [8]HSDB

   Density/Specific Gravity
        2.08 AT 20 DEG C/20 DEG C
   from [9]HSDB

   Octanol/Water Partition Coefficient
        log Kow= 2.96
   from [10]HSDB

   Solubilities

     * MISCIBLE IN ALIPHATIC AND AROMATIC HYDROCARBONS
     * MISCIBLE WITH OILS, DICHLOROPROPANE, ISOPROPYL ALCOHOL
     * 0.1% wt/wt in water
     * Miscible with acetone
     * In water= 1230 mg/l at 20 deg C [Munnecke DE, Vangundy SD; Annu Rev
       Phytopathol 17: 405-29 (1979)] [11]PubMed Abstract

   from [12]HSDB

   Spectral Properties

     * INDEX OF REFRACTION: 1.553 AT 14 DEG C/D
     * MASS: 4575 (National Bureau of Standards EPA-NIH Mass Spectra Data
       Base, NSRDS-NBS-63)
     * Intense mass spectral peaks: 157 m/z (100%), 75 m/z (88%), 155 m/z
       (85%), 49 m/z (38%)

   from [13]HSDB

   Vapor Density
        2.09 at 14 deg C
   from [14]HSDB

   Vapor Pressure
        0.58 mm Hg at 20 deg C [Munnecke DE, Vangundy SD; Annu Rev
   Phytopathol 17: 405-29 (1979)] [15]PubMed Abstract
   from [16]HSDB

   Other Chemical/Physical Properties

     * Percent in saturated air: 0.13 @ 25 deg C; 1 mg/l= 103.4 ppm and 1
       ppm= 9.71 mg/cu m @ 25 deg C, 760 mm Hg
     * Conversion factors: 1 ppm= 9.67 mg/cu m; 1 mg/cu m= 0.103 ppm
     * AMBER TO DARK BROWN LIQUID /TECHNICAL GRADE/
     * Dense yellow liquid; may also appear in granular form /Technical
       Grade/
     * Stable in neutral and acidic media; hydrolyzed by alkali to
       2-bromoallyl alcohol.
     * Dense yellow or amber liquid (Note: A solid below 43 degrees F).

   from [17]HSDB

   Computed Properties
   Molecular Weight                  236.3328 [g/mol]
   Molecular Formula                 C[3]H[5]Br[2]Cl
   XLogP3-AA                         2.4
   H-Bond Donor                      0
   H-Bond Acceptor                   0
   Rotatable Bond Count              2
   Exact Mass                        235.842606
   MonoIsotopic Mass                 233.844652
   Topological Polar Surface Area    0
   Heavy Atom Count                  6
   Formal Charge                     0
   Complexity                        32
   Isotope Atom Count                0
   Defined Atom Stereocenter Count   0
   Undefined Atom Stereocenter Count 1
   Defined Bond Stereocenter Count   0
   Undefined Bond Stereocenter Count 0
   Covalently-Bonded Unit Count      1
   Feature 3D Hydrophobe Count       2
   Effective Rotor Count             2
   Conformer Sampling RMSD           0.4
   CID Conformer Count               [18]18

References

   1. http://www.ars.usda.gov/SP2UserFiles/ad_hoc/12755100DatabaseFiles/PesticidePropertiesDatabase/IndividualPesticideFiles/DBCP.TXT
   2. http://chem.sis.nlm.nih.gov/chemidplus/
   3. http://toxnet.nlm.nih.gov/cgi-bin/sis/search/r?dbs+hsdb:@term+@rn+@rel+96-12-8
   4. http://toxnet.nlm.nih.gov/cgi-bin/sis/search/r?dbs+hsdb:@term+@rn+@rel+96-12-8
   5. http://toxnet.nlm.nih.gov/cgi-bin/sis/search/r?dbs+hsdb:@term+@rn+@rel+96-12-8
   6. http://toxnet.nlm.nih.gov/cgi-bin/sis/search/r?dbs+hsdb:@term+@rn+@rel+96-12-8
   7. http://toxnet.nlm.nih.gov/cgi-bin/sis/search/r?dbs+hsdb:@term+@rn+@rel+96-12-8
   8. http://toxnet.nlm.nih.gov/cgi-bin/sis/search/r?dbs+hsdb:@term+@rn+@rel+96-12-8
   9. http://toxnet.nlm.nih.gov/cgi-bin/sis/search/r?dbs+hsdb:@term+@rn+@rel+96-12-8
  10. http://toxnet.nlm.nih.gov/cgi-bin/sis/search/r?dbs+hsdb:@term+@rn+@rel+96-12-8
  11. http://www.ncbi.nlm.nih.gov/entrez/query.fcgi?cmd=Retrieve&db=pubmed&dopt=Abstract&list_uids=18393685
  12. http://toxnet.nlm.nih.gov/cgi-bin/sis/search/r?dbs+hsdb:@term+@rn+@rel+96-12-8
  13. http://toxnet.nlm.nih.gov/cgi-bin/sis/search/r?dbs+hsdb:@term+@rn+@rel+96-12-8
  14. http://toxnet.nlm.nih.gov/cgi-bin/sis/search/r?dbs+hsdb:@term+@rn+@rel+96-12-8
  15. http://www.ncbi.nlm.nih.gov/entrez/query.fcgi?cmd=Retrieve&db=pubmed&dopt=Abstract&list_uids=18393685
  16. http://toxnet.nlm.nih.gov/cgi-bin/sis/search/r?dbs+hsdb:@term+@rn+@rel+96-12-8
  17. http://toxnet.nlm.nih.gov/cgi-bin/sis/search/r?dbs+hsdb:@term+@rn+@rel+96-12-8
  18. http://pubchem.ncbi.nlm.nih.gov/vw3d/vw3d.cgi?cid=7280
