442017
  -OEChem-07051212562D

 53 55  0     1  0  0  0  0  0999 V2000
    3.9188   -0.8723    0.0000 O   0  0  0  0  0  0  0  0  0  0  0  0
    5.7169    2.8746    0.0000 O   0  0  0  0  0  0  0  0  0  0  0  0
    2.6200    1.6581    0.0000 O   0  0  0  0  0  0  0  0  0  0  0  0
    8.0026    0.2921    0.0000 C   0  0  1  0  0  0  0  0  0  0  0  0
    6.2706    0.2921    0.0000 C   0  0  1  0  0  0  0  0  0  0  0  0
    6.2706    1.2921    0.0000 C   0  0  2  0  0  0  0  0  0  0  0  0
    7.1366   -0.2079    0.0000 C   0  0  0  0  0  0  0  0  0  0  0  0
    8.0026    1.2921    0.0000 C   0  0  0  0  0  0  0  0  0  0  0  0
    7.1366    1.7921    0.0000 C   0  0  0  0  0  0  0  0  0  0  0  0
    8.7396   -0.3750    0.0000 C   0  0  0  0  0  0  0  0  0  0  0  0
    7.3458   -1.1797    0.0000 C   0  0  0  0  0  0  0  0  0  0  0  0
    8.3345   -1.2828    0.0000 C   0  0  0  0  0  0  0  0  0  0  0  0
    5.4997   -0.3142    0.0000 C   0  0  0  0  0  0  0  0  0  0  0  0
    8.8687    0.7921    0.0000 C   0  0  0  0  0  0  0  0  0  0  0  0
    6.2706    2.2921    0.0000 C   0  0  0  0  0  0  0  0  0  0  0  0
    5.4997    1.8984    0.0000 C   0  0  0  0  0  0  0  0  0  0  0  0
    6.6780   -1.9240    0.0000 C   0  0  0  0  0  0  0  0  0  0  0  0
    4.5444   -0.0921    0.0000 C   0  0  2  0  0  0  0  0  0  0  0  0
    4.1200    0.7921    0.0000 C   0  0  0  0  0  0  0  0  0  0  0  0
    4.5444    1.6763    0.0000 C   0  0  0  0  0  0  0  0  0  0  0  0
    6.9886   -2.8746    0.0000 C   0  0  0  0  0  0  0  0  0  0  0  0
    5.6995   -1.7178    0.0000 C   0  0  0  0  0  0  0  0  0  0  0  0
    3.1200    0.7921    0.0000 C   0  0  0  0  0  0  0  0  0  0  0  0
    6.3312   -0.5557    0.0000 H   0  0  0  0  0  0  0  0  0  0  0  0
    8.6132    1.1844    0.0000 H   0  0  0  0  0  0  0  0  0  0  0  0
    8.2147    1.8747    0.0000 H   0  0  0  0  0  0  0  0  0  0  0  0
    7.5351    2.2670    0.0000 H   0  0  0  0  0  0  0  0  0  0  0  0
    6.7381    2.2670    0.0000 H   0  0  0  0  0  0  0  0  0  0  0  0
    9.2761   -0.6858    0.0000 H   0  0  0  0  0  0  0  0  0  0  0  0
    9.1051    0.1259    0.0000 H   0  0  0  0  0  0  0  0  0  0  0  0
    8.2058   -1.8893    0.0000 H   0  0  0  0  0  0  0  0  0  0  0  0
    8.9241   -1.4745    0.0000 H   0  0  0  0  0  0  0  0  0  0  0  0
    5.2279   -0.8715    0.0000 H   0  0  0  0  0  0  0  0  0  0  0  0
    5.9822   -0.7036    0.0000 H   0  0  0  0  0  0  0  0  0  0  0  0
    9.1787    0.2552    0.0000 H   0  0  0  0  0  0  0  0  0  0  0  0
    9.4056    1.1021    0.0000 H   0  0  0  0  0  0  0  0  0  0  0  0
    8.5587    1.3290    0.0000 H   0  0  0  0  0  0  0  0  0  0  0  0
    6.8906    2.2921    0.0000 H   0  0  0  0  0  0  0  0  0  0  0  0
    6.2706    2.9121    0.0000 H   0  0  0  0  0  0  0  0  0  0  0  0
    5.6506    2.2921    0.0000 H   0  0  0  0  0  0  0  0  0  0  0  0
    6.4854   -1.3347    0.0000 H   0  0  0  0  0  0  0  0  0  0  0  0
    3.9284   -0.0215    0.0000 H   0  0  0  0  0  0  0  0  0  0  0  0
    4.1565    2.1600    0.0000 H   0  0  0  0  0  0  0  0  0  0  0  0
    6.3993   -3.0672    0.0000 H   0  0  0  0  0  0  0  0  0  0  0  0
    7.1812   -3.4639    0.0000 H   0  0  0  0  0  0  0  0  0  0  0  0
    7.5780   -2.6819    0.0000 H   0  0  0  0  0  0  0  0  0  0  0  0
    5.8273   -1.1111    0.0000 H   0  0  0  0  0  0  0  0  0  0  0  0
    5.0928   -1.5900    0.0000 H   0  0  0  0  0  0  0  0  0  0  0  0
    5.5716   -2.3245    0.0000 H   0  0  0  0  0  0  0  0  0  0  0  0
    2.5374    0.5800    0.0000 H   0  0  0  0  0  0  0  0  0  0  0  0
    3.2277    0.1815    0.0000 H   0  0  0  0  0  0  0  0  0  0  0  0
    3.3059   -0.7782    0.0000 H   0  0  0  0  0  0  0  0  0  0  0  0
    2.0000    1.6581    0.0000 H   0  0  0  0  0  0  0  0  0  0  0  0
 18  1  1  1  0  0  0
  1 52  1  0  0  0  0
  2 16  2  0  0  0  0
  3 23  1  0  0  0  0
  3 53  1  0  0  0  0
  4  7  1  0  0  0  0
  4  8  1  0  0  0  0
  4 10  1  0  0  0  0
  4 14  1  6  0  0  0
  5  6  1  0  0  0  0
  5  7  1  0  0  0  0
  5 13  1  0  0  0  0
  5 24  1  6  0  0  0
  6  9  1  0  0  0  0
  6 15  1  1  0  0  0
  6 16  1  0  0  0  0
  7 11  2  0  0  0  0
  8  9  1  0  0  0  0
  8 25  1  0  0  0  0
  8 26  1  0  0  0  0
  9 27  1  0  0  0  0
  9 28  1  0  0  0  0
 10 12  1  0  0  0  0
 10 29  1  0  0  0  0
 10 30  1  0  0  0  0
 11 12  1  0  0  0  0
 11 17  1  0  0  0  0
 12 31  1  0  0  0  0
 12 32  1  0  0  0  0
 13 18  1  0  0  0  0
 13 33  1  0  0  0  0
 13 34  1  0  0  0  0
 14 35  1  0  0  0  0
 14 36  1  0  0  0  0
 14 37  1  0  0  0  0
 15 38  1  0  0  0  0
 15 39  1  0  0  0  0
 15 40  1  0  0  0  0
 16 20  1  0  0  0  0
 17 21  1  0  0  0  0
 17 22  1  0  0  0  0
 17 41  1  0  0  0  0
 18 19  1  0  0  0  0
 18 42  1  0  0  0  0
 19 20  2  0  0  0  0
 19 23  1  0  0  0  0
 20 43  1  0  0  0  0
 21 44  1  0  0  0  0
 21 45  1  0  0  0  0
 21 46  1  0  0  0  0
 22 47  1  0  0  0  0
 22 48  1  0  0  0  0
 22 49  1  0  0  0  0
 23 50  1  0  0  0  0
 23 51  1  0  0  0  0
M  END
> <PUBCHEM_COMPOUND_CID>
442017

> <PUBCHEM_COMPOUND_CANONICALIZED>
1

> <PUBCHEM_CACTVS_COMPLEXITY>
586

> <PUBCHEM_CACTVS_HBOND_ACCEPTOR>
3

> <PUBCHEM_CACTVS_HBOND_DONOR>
2

> <PUBCHEM_CACTVS_ROTATABLE_BOND>
2

> <PUBCHEM_CACTVS_SUBSKEYS>
AAADceB4MAAAAAAAAAAAAAAAAAAAAQAAAAAwAAAABAAAAEAAAAAAGgAACAAADxSggAICAAAAAgCIAqBSAAAAAAAgAAAACAEAAEgAFBIAAQAAUAAFgAAIEQOIzPDPgAAAAAAAAACAAAQAACAAAAAAAAAAAA==

> <PUBCHEM_IUPAC_OPENEYE_NAME>
(3aR,5aR,9R,10aR)-9-hydroxy-8-(hydroxymethyl)-1-isopropyl-3a,5a-dimethyl-3,4,5,9,10,10a-hexahydro-2H-cyclohepta[e]inden-6-one

> <PUBCHEM_IUPAC_CAS_NAME>
(3aR,5aR,9R,10aR)-9-hydroxy-8-(hydroxymethyl)-3a,5a-dimethyl-1-propan-2-yl-3,4,5,9,10,10a-hexahydro-2H-cyclohepta[e]inden-6-one

> <PUBCHEM_IUPAC_NAME>
(3aR,5aR,9R,10aR)-9-hydroxy-8-(hydroxymethyl)-3a,5a-dimethyl-1-propan-2-yl-3,4,5,9,10,10a-hexahydro-2H-cyclohepta[e]inden-6-one

> <PUBCHEM_IUPAC_SYSTEMATIC_NAME>
(3aR,5aR,9R,10aR)-8-(hydroxymethyl)-3a,5a-dimethyl-9-oxidanyl-1-propan-2-yl-3,4,5,9,10,10a-hexahydro-2H-cyclohepta[e]inden-6-one

> <PUBCHEM_IUPAC_TRADITIONAL_NAME>
(3aR,5aR,9R,10aR)-9-hydroxy-1-isopropyl-3a,5a-dimethyl-8-methylol-3,4,5,9,10,10a-hexahydro-2H-cyclohept[e]inden-6-one

> <PUBCHEM_IUPAC_INCHI>
InChI=1S/C20H30O3/c1-12(2)14-5-6-19(3)7-8-20(4)15(18(14)19)10-16(22)13(11-21)9-17(20)23/h9,12,15-16,21-22H,5-8,10-11H2,1-4H3/t15-,16-,19-,20-/m1/s1

> <PUBCHEM_IUPAC_INCHIKEY>
RGROGZCBGZBCAG-XNFNUYLZSA-N

> <PUBCHEM_XLOGP3_AA>
2.4

> <PUBCHEM_EXACT_MASS>
318.219495

> <PUBCHEM_MOLECULAR_FORMULA>
C20H30O3

> <PUBCHEM_MOLECULAR_WEIGHT>
318.4504

> <PUBCHEM_OPENEYE_CAN_SMILES>
CC(C)C1=C2C3CC(C(=CC(=O)C3(CCC2(CC1)C)C)CO)O

> <PUBCHEM_OPENEYE_ISO_SMILES>
CC(C)C1=C2[C@H]3C[C@H](C(=CC(=O)[C@@]3(CC[C@]2(CC1)C)C)CO)O

> <PUBCHEM_CACTVS_TPSA>
57.5

> <PUBCHEM_MONOISOTOPIC_WEIGHT>
318.219495

> <PUBCHEM_TOTAL_CHARGE>
0

> <PUBCHEM_HEAVY_ATOM_COUNT>
23

> <PUBCHEM_ATOM_DEF_STEREO_COUNT>
4

> <PUBCHEM_ATOM_UDEF_STEREO_COUNT>
0

> <PUBCHEM_BOND_DEF_STEREO_COUNT>
0

> <PUBCHEM_BOND_UDEF_STEREO_COUNT>
0

> <PUBCHEM_ISOTOPIC_ATOM_COUNT>
0

> <PUBCHEM_COMPONENT_COUNT>
1

> <PUBCHEM_CACTVS_TAUTO_COUNT>
1

> <PUBCHEM_COORDINATE_TYPE>
1
5
255

> <PUBCHEM_BONDANNOTATIONS>
18  1  5
4  14  6
5  24  6
6  15  5

$$$$

