   Color/Form

     * CRYSTALS FROM BENZENE
     * White, crystalline solid

   from [1]HSDB

   Melting Point
        86.5 DEG C
   from [2]HSDB

   Corrosivity
        Noncorrosive
   from [3]HSDB

   Solubilities

     * PRACTICALLY INSOL IN WATER; SOL @ 25 DEG C IN G/100 ML: 1.4 G IN
       95% ALCOHOL; 41.0 G IN CARBON TETRACHLORIDE; 110.0 G IN
       CYCLOHEXANONE; 110.0 G IN ETHYLENE DICHLORIDE; 2.0-2.7 G IN
       PETROLEUM OILS; 130.0 G IN ACETONE; 78 G IN XYLENE
     * SOLUBLE IN AROMATIC SOLVENTS, ACETONE; INSOLUBLE IN WATER
     * SOL IN 100 G SOLVENT @ 25 DEG C: 1 G IN ETHYL ALC; 2 G IN KEROSENE

   from [4]HSDB

   Spectral Properties

     * SADTLER REFERENCE NUMBER: 34349 (IR, PRISM); 12335 (IR, GRATING);
       MAX ABSORPTION (ALCOHOL): 230 NM (LOG E= 4.27); 266 NM (LOG E=
       3.05); 269 NM (LOG E= 3.04); 277 NM (LOG E= 2.91)
     * Intense mass spectral peaks: 111 m/z (100%), 175 m/z (75%), 75 m/z
       (53%), 99 m/z (51%)
     * IR: 3171 (Coblentz Society Spectral Collection)
     * UV: 14458 (Sadtler Research Laboratories Spectral Collection)
     * MASS: 4824 (National Bureau of Standards EPA-NIH Mass Spectra Data
       Base, NSRDS-NBS-63)

   from [5]HSDB

   Vapor Pressure
        Negligible at 25 deg C
   from [6]HSDB

   Other Chemical/Physical Properties
        WHITE TO TAN FLAKY SOLID; MP: APPROX 80 DEG C /TECHNICAL/
   from [7]HSDB

   Computed Properties
   Molecular Weight                  303.16112 [g/mol]
   Molecular Formula                 C[12]H[8]Cl[2]O[3]S
   XLogP3                            4.3
   H-Bond Donor                      0
   H-Bond Acceptor                   3
   Rotatable Bond Count              3
   Exact Mass                        301.95712
   MonoIsotopic Mass                 301.95712
   Topological Polar Surface Area    51.8
   Heavy Atom Count                  18
   Formal Charge                     0
   Complexity                        350
   Isotope Atom Count                0
   Defined Atom Stereocenter Count   0
   Undefined Atom Stereocenter Count 0
   Defined Bond Stereocenter Count   0
   Undefined Bond Stereocenter Count 0
   Covalently-Bonded Unit Count      1
   Feature 3D Acceptor Count         2
   Feature 3D Ring Count             2
   Effective Rotor Count             3
   Conformer Sampling RMSD           0.6
   CID Conformer Count               [8]4

References

   1. http://toxnet.nlm.nih.gov/cgi-bin/sis/search/r?dbs+hsdb:@term+@rn+@rel+80-33-1
   2. http://toxnet.nlm.nih.gov/cgi-bin/sis/search/r?dbs+hsdb:@term+@rn+@rel+80-33-1
   3. http://toxnet.nlm.nih.gov/cgi-bin/sis/search/r?dbs+hsdb:@term+@rn+@rel+80-33-1
   4. http://toxnet.nlm.nih.gov/cgi-bin/sis/search/r?dbs+hsdb:@term+@rn+@rel+80-33-1
   5. http://toxnet.nlm.nih.gov/cgi-bin/sis/search/r?dbs+hsdb:@term+@rn+@rel+80-33-1
   6. http://toxnet.nlm.nih.gov/cgi-bin/sis/search/r?dbs+hsdb:@term+@rn+@rel+80-33-1
   7. http://toxnet.nlm.nih.gov/cgi-bin/sis/search/r?dbs+hsdb:@term+@rn+@rel+80-33-1
   8. http://pubchem.ncbi.nlm.nih.gov/vw3d/vw3d.cgi?cid=6635
