42628600
  -OEChem-07051213152D

 49 52  0     1  0  0  0  0  0999 V2000
    3.0000   -0.6861    0.0000 S   0  0  0  0  0  0  0  0  0  0  0  0
    2.9961    0.3139    0.0000 O   0  0  0  0  0  0  0  0  0  0  0  0
    9.1243    0.8381    0.0000 O   0  0  0  0  0  0  0  0  0  0  0  0
    3.0038   -1.6861    0.0000 O   0  0  0  0  0  0  0  0  0  0  0  0
    2.0000   -0.6899    0.0000 O   0  0  0  0  0  0  0  0  0  0  0  0
    4.0000   -0.6822    0.0000 O   0  0  0  0  0  0  0  0  0  0  0  0
    9.9904   -2.6619    0.0000 O   0  0  0  0  0  0  0  0  0  0  0  0
    6.5263   -2.6619    0.0000 O   0  0  0  0  0  0  0  0  0  0  0  0
    5.6602    1.8381    0.0000 N   0  0  0  0  0  0  0  0  0  0  0  0
    7.3923    1.8381    0.0000 N   0  0  0  0  0  0  0  0  0  0  0  0
    6.1612    3.2624    0.0000 N   0  0  0  0  0  0  0  0  0  0  0  0
    9.1243   -1.1619    0.0000 N   0  0  0  0  0  0  0  0  0  0  0  0
    8.2583   -2.6619    0.0000 N   0  0  0  0  0  0  0  0  0  0  0  0
    5.6602    0.8381    0.0000 C   0  0  2  0  0  0  0  0  0  0  0  0
    4.7663    2.3727    0.0000 C   0  0  1  0  0  0  0  0  0  0  0  0
    3.8602    1.8589    0.0000 C   0  0  2  0  0  0  0  0  0  0  0  0
    4.7663    0.3034    0.0000 C   0  0  0  0  0  0  0  0  0  0  0  0
    3.8602    0.8172    0.0000 C   0  0  2  0  0  0  0  0  0  0  0  0
    6.5263    0.3381    0.0000 C   0  0  0  0  0  0  0  0  0  0  0  0
    7.3923    0.8381    0.0000 C   0  0  2  0  0  0  0  0  0  0  0  0
    6.5263    2.3381    0.0000 C   0  0  0  0  0  0  0  0  0  0  0  0
    5.1675    3.2819    0.0000 C   0  0  0  0  0  0  0  0  0  0  0  0
    2.9961    2.3622    0.0000 C   0  0  0  0  0  0  0  0  0  0  0  0
    8.2583    0.3381    0.0000 C   0  0  2  0  0  0  0  0  0  0  0  0
    8.2583   -0.6619    0.0000 C   0  0  0  0  0  0  0  0  0  0  0  0
    7.3923   -1.1619    0.0000 C   0  0  0  0  0  0  0  0  0  0  0  0
    9.1243   -2.1619    0.0000 C   0  0  0  0  0  0  0  0  0  0  0  0
    7.3923   -2.1619    0.0000 C   0  0  0  0  0  0  0  0  0  0  0  0
    5.6668   -0.0119    0.0000 H   0  0  0  0  0  0  0  0  0  0  0  0
    4.1359    2.9429    0.0000 H   0  0  0  0  0  0  0  0  0  0  0  0
    3.8638    2.4789    0.0000 H   0  0  0  0  0  0  0  0  0  0  0  0
    4.3727   -0.1756    0.0000 H   0  0  0  0  0  0  0  0  0  0  0  0
    5.1709   -0.1664    0.0000 H   0  0  0  0  0  0  0  0  0  0  0  0
    3.8638    0.1973    0.0000 H   0  0  0  0  0  0  0  0  0  0  0  0
    6.1277   -0.1369    0.0000 H   0  0  0  0  0  0  0  0  0  0  0  0
    6.9248   -0.1369    0.0000 H   0  0  0  0  0  0  0  0  0  0  0  0
    8.1284    1.2631    0.0000 H   0  0  0  0  0  0  0  0  0  0  0  0
    5.2612    3.8948    0.0000 H   0  0  0  0  0  0  0  0  0  0  0  0
    4.5723    3.4554    0.0000 H   0  0  0  0  0  0  0  0  0  0  0  0
    7.9292    2.1481    0.0000 H   0  0  0  0  0  0  0  0  0  0  0  0
    3.3082    2.8979    0.0000 H   0  0  0  0  0  0  0  0  0  0  0  0
    2.4604    2.6743    0.0000 H   0  0  0  0  0  0  0  0  0  0  0  0
    2.6841    1.8265    0.0000 H   0  0  0  0  0  0  0  0  0  0  0  0
    8.7952    0.0281    0.0000 H   0  0  0  0  0  0  0  0  0  0  0  0
    9.6613    0.5281    0.0000 H   0  0  0  0  0  0  0  0  0  0  0  0
    9.6613   -0.8519    0.0000 H   0  0  0  0  0  0  0  0  0  0  0  0
    6.8554   -0.8519    0.0000 H   0  0  0  0  0  0  0  0  0  0  0  0
    2.4681   -1.9982    0.0000 H   0  0  0  0  0  0  0  0  0  0  0  0
    8.2583   -3.2819    0.0000 H   0  0  0  0  0  0  0  0  0  0  0  0
  1  2  1  0  0  0  0
  1  4  1  0  0  0  0
  1  5  2  0  0  0  0
  1  6  2  0  0  0  0
 18  2  1  6  0  0  0
 24  3  1  1  0  0  0
  3 45  1  0  0  0  0
  4 48  1  0  0  0  0
  7 27  2  0  0  0  0
  8 28  2  0  0  0  0
  9 14  1  0  0  0  0
  9 15  1  0  0  0  0
  9 21  1  0  0  0  0
 10 20  1  0  0  0  0
 10 21  1  0  0  0  0
 10 40  1  0  0  0  0
 11 21  2  0  0  0  0
 11 22  1  0  0  0  0
 12 25  1  0  0  0  0
 12 27  1  0  0  0  0
 12 46  1  0  0  0  0
 13 27  1  0  0  0  0
 13 28  1  0  0  0  0
 13 49  1  0  0  0  0
 14 17  1  0  0  0  0
 14 19  1  0  0  0  0
 14 29  1  6  0  0  0
 15 16  1  0  0  0  0
 15 22  1  0  0  0  0
 15 30  1  6  0  0  0
 16 18  1  0  0  0  0
 16 23  1  6  0  0  0
 16 31  1  0  0  0  0
 17 18  1  0  0  0  0
 17 32  1  0  0  0  0
 17 33  1  0  0  0  0
 18 34  1  0  0  0  0
 19 20  1  0  0  0  0
 19 35  1  0  0  0  0
 19 36  1  0  0  0  0
 20 24  1  0  0  0  0
 20 37  1  6  0  0  0
 22 38  1  0  0  0  0
 22 39  1  0  0  0  0
 23 41  1  0  0  0  0
 23 42  1  0  0  0  0
 23 43  1  0  0  0  0
 24 25  1  0  0  0  0
 24 44  1  0  0  0  0
 25 26  2  0  0  0  0
 26 28  1  0  0  0  0
 26 47  1  0  0  0  0
M  END
> <PUBCHEM_COMPOUND_CID>
42628600

> <PUBCHEM_COMPOUND_CANONICALIZED>
1

> <PUBCHEM_CACTVS_COMPLEXITY>
867

> <PUBCHEM_CACTVS_HBOND_ACCEPTOR>
8

> <PUBCHEM_CACTVS_HBOND_DONOR>
5

> <PUBCHEM_CACTVS_ROTATABLE_BOND>
4

> <PUBCHEM_CACTVS_SUBSKEYS>
AAADceBzuABAAAAAAAAAAAAAAAAAAQAAAAAsWIAAAAAAAECwAAAAHgAQCAAADTzhgAYDAAPAAoCoACVSdDCAAAEgAgABCIAIAEiCVAIAyQAUUAAOlSKYEUOw0OMOAAAAAAAAAAAAAAAAAAAAAAAAAAAAAA==

> <PUBCHEM_IUPAC_INCHI>
InChI=1S/C15H21N5O7S/c1-6-10-5-16-14-17-8(13(22)9-4-12(21)19-15(23)18-9)2-7(20(10)14)3-11(6)27-28(24,25)26/h4,6-8,10-11,13,22H,2-3,5H2,1H3,(H,16,17)(H,24,25,26)(H2,18,19,21,23)/t6-,7+,8-,10-,11+,13-/m1/s1

> <PUBCHEM_IUPAC_INCHIKEY>
LHJPHMKIGRLKDR-VDPNAHCISA-N

> <PUBCHEM_XLOGP3_AA>
-2.6

> <PUBCHEM_EXACT_MASS>
415.116169

> <PUBCHEM_MOLECULAR_FORMULA>
C15H21N5O7S

> <PUBCHEM_MOLECULAR_WEIGHT>
415.42154

> <PUBCHEM_OPENEYE_CAN_SMILES>
CC1C(CC2CC(NC3=NCC1N23)C(C4=CC(=O)NC(=O)N4)O)OS(=O)(=O)O

> <PUBCHEM_OPENEYE_ISO_SMILES>
C[C@H]1[C@H](C[C@@H]2C[C@@H](NC3=NC[C@H]1N23)[C@H](C4=CC(=O)NC(=O)N4)O)OS(=O)(=O)O

> <PUBCHEM_CACTVS_TPSA>
178

> <PUBCHEM_MONOISOTOPIC_WEIGHT>
415.116169

> <PUBCHEM_TOTAL_CHARGE>
0

> <PUBCHEM_HEAVY_ATOM_COUNT>
28

> <PUBCHEM_ATOM_DEF_STEREO_COUNT>
6

> <PUBCHEM_ATOM_UDEF_STEREO_COUNT>
0

> <PUBCHEM_BOND_DEF_STEREO_COUNT>
0

> <PUBCHEM_BOND_UDEF_STEREO_COUNT>
0

> <PUBCHEM_ISOTOPIC_ATOM_COUNT>
0

> <PUBCHEM_COMPONENT_COUNT>
1

> <PUBCHEM_CACTVS_TAUTO_COUNT>
18

> <PUBCHEM_COORDINATE_TYPE>
1
5
255

> <PUBCHEM_BONDANNOTATIONS>
12  25  8
12  27  8
13  27  8
13  28  8
14  29  6
15  30  6
16  23  6
18  2  6
20  37  6
25  26  8
26  28  8
24  3  5

$$$$

