6694
  -OEChem-06261201272D

 65 67  0     0  0  0  0  0  0999 V2000
    5.5450    0.0000    0.0000 Cl  0  5  0  0  0  0  0  0  0  0  0  0
    5.7979    4.5921    0.0000 O   0  0  0  0  0  0  0  0  0  0  0  0
    7.9908    9.2055    0.0000 O   0  0  0  0  0  0  0  0  0  0  0  0
    8.2915    7.4997    0.0000 O   0  0  0  0  0  0  0  0  0  0  0  0
    9.3280    4.5680    0.0000 N   0  3  0  0  0  0  0  0  0  0  0  0
    2.2678    4.5680    0.0000 N   0  0  0  0  0  0  0  0  0  0  0  0
    5.7979    6.5921    0.0000 C   0  0  0  0  0  0  0  0  0  0  0  0
    6.6639    6.0921    0.0000 C   0  0  0  0  0  0  0  0  0  0  0  0
    4.9319    6.0921    0.0000 C   0  0  0  0  0  0  0  0  0  0  0  0
    6.6639    5.0921    0.0000 C   0  0  0  0  0  0  0  0  0  0  0  0
    4.9319    5.0921    0.0000 C   0  0  0  0  0  0  0  0  0  0  0  0
    8.4639    5.0713    0.0000 C   0  0  0  0  0  0  0  0  0  0  0  0
    3.1319    5.0713    0.0000 C   0  0  0  0  0  0  0  0  0  0  0  0
    5.7979    7.5921    0.0000 C   0  0  0  0  0  0  0  0  0  0  0  0
    7.5579    4.5575    0.0000 C   0  0  0  0  0  0  0  0  0  0  0  0
    4.0379    4.5575    0.0000 C   0  0  0  0  0  0  0  0  0  0  0  0
    7.5579    6.6268    0.0000 C   0  0  0  0  0  0  0  0  0  0  0  0
    4.0379    6.6268    0.0000 C   0  0  0  0  0  0  0  0  0  0  0  0
    8.4639    6.1129    0.0000 C   0  0  0  0  0  0  0  0  0  0  0  0
    3.1319    6.1129    0.0000 C   0  0  0  0  0  0  0  0  0  0  0  0
   10.1960    5.0646    0.0000 C   0  0  0  0  0  0  0  0  0  0  0  0
    9.3242    3.5680    0.0000 C   0  0  0  0  0  0  0  0  0  0  0  0
    1.3998    5.0646    0.0000 C   0  0  0  0  0  0  0  0  0  0  0  0
    2.2716    3.5680    0.0000 C   0  0  0  0  0  0  0  0  0  0  0  0
    6.6639    8.0921    0.0000 C   0  0  0  0  0  0  0  0  0  0  0  0
    4.9319    8.0921    0.0000 C   0  0  0  0  0  0  0  0  0  0  0  0
   10.1883    3.0646    0.0000 C   0  0  0  0  0  0  0  0  0  0  0  0
   11.0601    4.5613    0.0000 C   0  0  0  0  0  0  0  0  0  0  0  0
    1.4075    3.0646    0.0000 C   0  0  0  0  0  0  0  0  0  0  0  0
    0.5357    4.5613    0.0000 C   0  0  0  0  0  0  0  0  0  0  0  0
    6.6639    9.0921    0.0000 C   0  0  0  0  0  0  0  0  0  0  0  0
    4.9319    9.0921    0.0000 C   0  0  0  0  0  0  0  0  0  0  0  0
    5.7979    9.5921    0.0000 C   0  0  0  0  0  0  0  0  0  0  0  0
    7.6487    8.2658    0.0000 C   0  0  0  0  0  0  0  0  0  0  0  0
    7.5507    3.9375    0.0000 H   0  0  0  0  0  0  0  0  0  0  0  0
    4.0451    3.9375    0.0000 H   0  0  0  0  0  0  0  0  0  0  0  0
    7.5507    7.2467    0.0000 H   0  0  0  0  0  0  0  0  0  0  0  0
    4.0451    7.2467    0.0000 H   0  0  0  0  0  0  0  0  0  0  0  0
    8.9997    6.4250    0.0000 H   0  0  0  0  0  0  0  0  0  0  0  0
    2.5961    6.4250    0.0000 H   0  0  0  0  0  0  0  0  0  0  0  0
   10.5963    5.5380    0.0000 H   0  0  0  0  0  0  0  0  0  0  0  0
    9.7993    5.5411    0.0000 H   0  0  0  0  0  0  0  0  0  0  0  0
    8.7140    3.6780    0.0000 H   0  0  0  0  0  0  0  0  0  0  0  0
    9.1099    2.9862    0.0000 H   0  0  0  0  0  0  0  0  0  0  0  0
    1.7965    5.5411    0.0000 H   0  0  0  0  0  0  0  0  0  0  0  0
    0.9995    5.5380    0.0000 H   0  0  0  0  0  0  0  0  0  0  0  0
    2.4859    2.9862    0.0000 H   0  0  0  0  0  0  0  0  0  0  0  0
    2.8818    3.6780    0.0000 H   0  0  0  0  0  0  0  0  0  0  0  0
    4.3949    7.7821    0.0000 H   0  0  0  0  0  0  0  0  0  0  0  0
    9.8762    2.5289    0.0000 H   0  0  0  0  0  0  0  0  0  0  0  0
   10.7240    2.7526    0.0000 H   0  0  0  0  0  0  0  0  0  0  0  0
   10.5003    3.6004    0.0000 H   0  0  0  0  0  0  0  0  0  0  0  0
   10.7480    4.0256    0.0000 H   0  0  0  0  0  0  0  0  0  0  0  0
   11.5958    4.2492    0.0000 H   0  0  0  0  0  0  0  0  0  0  0  0
   11.3721    5.0970    0.0000 H   0  0  0  0  0  0  0  0  0  0  0  0
    1.0955    3.6004    0.0000 H   0  0  0  0  0  0  0  0  0  0  0  0
    0.2237    5.0970    0.0000 H   0  0  0  0  0  0  0  0  0  0  0  0
    0.0000    4.2492    0.0000 H   0  0  0  0  0  0  0  0  0  0  0  0
    0.8478    4.0256    0.0000 H   0  0  0  0  0  0  0  0  0  0  0  0
    0.8718    2.7526    0.0000 H   0  0  0  0  0  0  0  0  0  0  0  0
    1.7196    2.5289    0.0000 H   0  0  0  0  0  0  0  0  0  0  0  0
    7.2009    9.4021    0.0000 H   0  0  0  0  0  0  0  0  0  0  0  0
    4.3949    9.4021    0.0000 H   0  0  0  0  0  0  0  0  0  0  0  0
    5.7979   10.2121    0.0000 H   0  0  0  0  0  0  0  0  0  0  0  0
    7.5922    9.6804    0.0000 H   0  0  0  0  0  0  0  0  0  0  0  0
  2 10  1  0  0  0  0
  2 11  1  0  0  0  0
  3 34  1  0  0  0  0
  3 65  1  0  0  0  0
  4 34  2  0  0  0  0
  5 12  2  0  0  0  0
  5 21  1  0  0  0  0
  5 22  1  0  0  0  0
  6 13  1  0  0  0  0
  6 23  1  0  0  0  0
  6 24  1  0  0  0  0
  7  8  2  0  0  0  0
  7  9  1  0  0  0  0
  7 14  1  0  0  0  0
  8 10  1  0  0  0  0
  8 17  1  0  0  0  0
  9 11  2  0  0  0  0
  9 18  1  0  0  0  0
 10 15  2  0  0  0  0
 11 16  1  0  0  0  0
 12 15  1  0  0  0  0
 12 19  1  0  0  0  0
 13 16  2  0  0  0  0
 13 20  1  0  0  0  0
 14 25  1  0  0  0  0
 14 26  2  0  0  0  0
 15 35  1  0  0  0  0
 16 36  1  0  0  0  0
 17 19  2  0  0  0  0
 17 37  1  0  0  0  0
 18 20  2  0  0  0  0
 18 38  1  0  0  0  0
 19 39  1  0  0  0  0
 20 40  1  0  0  0  0
 21 28  1  0  0  0  0
 21 41  1  0  0  0  0
 21 42  1  0  0  0  0
 22 27  1  0  0  0  0
 22 43  1  0  0  0  0
 22 44  1  0  0  0  0
 23 30  1  0  0  0  0
 23 45  1  0  0  0  0
 23 46  1  0  0  0  0
 24 29  1  0  0  0  0
 24 47  1  0  0  0  0
 24 48  1  0  0  0  0
 25 31  2  0  0  0  0
 25 34  1  0  0  0  0
 26 32  1  0  0  0  0
 26 49  1  0  0  0  0
 27 50  1  0  0  0  0
 27 51  1  0  0  0  0
 27 52  1  0  0  0  0
 28 53  1  0  0  0  0
 28 54  1  0  0  0  0
 28 55  1  0  0  0  0
 29 56  1  0  0  0  0
 29 60  1  0  0  0  0
 29 61  1  0  0  0  0
 30 57  1  0  0  0  0
 30 58  1  0  0  0  0
 30 59  1  0  0  0  0
 31 33  1  0  0  0  0
 31 62  1  0  0  0  0
 32 33  2  0  0  0  0
 32 63  1  0  0  0  0
 33 64  1  0  0  0  0
M  CHG  2   1  -1   5   1
M  END
> <PUBCHEM_COMPOUND_CID>
6694

> <PUBCHEM_COMPOUND_CANONICALIZED>
1

> <PUBCHEM_CACTVS_COMPLEXITY>
811

> <PUBCHEM_CACTVS_HBOND_ACCEPTOR>
5

> <PUBCHEM_CACTVS_HBOND_DONOR>
1

> <PUBCHEM_CACTVS_ROTATABLE_BOND>
7

> <PUBCHEM_CACTVS_SUBSKEYS>
AAADceB7MAAEAAAAAAAAAAAAAAAAAAAAAAAwYIEAAAAAAACBQAAAHgAACAAADAzBmAQyzoMABgCoAyTyTACCCAAlIgAIiAEebNgMJjLEtZuGeSjmwBnI+YeY2POOiAAAAgAYAAAQAAAEADAAAAAAAAAAAA==

> <PUBCHEM_IUPAC_OPENEYE_NAME>
[9-(2-carboxyphenyl)-6-(diethylamino)xanthen-3-ylidene]-diethyl-ammonium chloride

> <PUBCHEM_IUPAC_CAS_NAME>
[9-(2-carboxyphenyl)-6-(diethylamino)-3-xanthenylidene]-diethylammonium chloride

> <PUBCHEM_IUPAC_NAME>
[9-(2-carboxyphenyl)-6-(diethylamino)xanthen-3-ylidene]-diethylazanium chloride

> <PUBCHEM_IUPAC_SYSTEMATIC_NAME>
[9-(2-carboxyphenyl)-6-(diethylamino)xanthen-3-ylidene]-diethyl-azanium chloride

> <PUBCHEM_IUPAC_TRADITIONAL_NAME>
[9-(2-carboxyphenyl)-6-(diethylamino)xanthen-3-ylidene]-diethyl-ammonium chloride

> <PUBCHEM_IUPAC_INCHI>
InChI=1S/C28H30N2O3.ClH/c1-5-29(6-2)19-13-15-23-25(17-19)33-26-18-20(30(7-3)8-4)14-16-24(26)27(23)21-11-9-10-12-22(21)28(31)32;/h9-18H,5-8H2,1-4H3;1H

> <PUBCHEM_IUPAC_INCHIKEY>
PYWVYCXTNDRMGF-UHFFFAOYSA-N

> <PUBCHEM_EXACT_MASS>
478.202321

> <PUBCHEM_MOLECULAR_FORMULA>
C28H31ClN2O3

> <PUBCHEM_MOLECULAR_WEIGHT>
479.01034

> <PUBCHEM_OPENEYE_CAN_SMILES>
CCN(CC)C1=CC2=C(C=C1)C(=C3C=CC(=[N+](CC)CC)C=C3O2)C4=CC=CC=C4C(=O)O.[Cl-]

> <PUBCHEM_OPENEYE_ISO_SMILES>
CCN(CC)C1=CC2=C(C=C1)C(=C3C=CC(=[N+](CC)CC)C=C3O2)C4=CC=CC=C4C(=O)O.[Cl-]

> <PUBCHEM_CACTVS_TPSA>
52.8

> <PUBCHEM_MONOISOTOPIC_WEIGHT>
478.202321

> <PUBCHEM_TOTAL_CHARGE>
0

> <PUBCHEM_HEAVY_ATOM_COUNT>
34

> <PUBCHEM_ATOM_DEF_STEREO_COUNT>
0

> <PUBCHEM_ATOM_UDEF_STEREO_COUNT>
0

> <PUBCHEM_BOND_DEF_STEREO_COUNT>
0

> <PUBCHEM_BOND_UDEF_STEREO_COUNT>
0

> <PUBCHEM_ISOTOPIC_ATOM_COUNT>
0

> <PUBCHEM_COMPONENT_COUNT>
2

> <PUBCHEM_CACTVS_TAUTO_COUNT>
1

> <PUBCHEM_COORDINATE_TYPE>
1
5
255

> <PUBCHEM_BONDANNOTATIONS>
10  15  8
11  16  8
12  15  8
12  19  8
13  16  8
13  20  8
14  25  8
14  26  8
17  19  8
18  20  8
2  10  8
2  11  8
25  31  8
26  32  8
31  33  8
32  33  8
7  8  8
7  9  8
8  17  8
9  11  8
9  18  8

$$$$

