24892772
  -OEChem-07051213022D

 67 69  0     1  0  0  0  0  0999 V2000
    7.9844   -2.0295    0.0000 P   0  0  3  0  0  0  0  0  0  0  0  0
    6.4021   -1.3250    0.0000 P   0  0  3  0  0  0  0  0  0  0  0  0
    9.1600   -3.6475    0.0000 O   0  0  0  0  0  0  0  0  0  0  0  0
    4.5411    1.1396    0.0000 O   0  0  0  0  0  0  0  0  0  0  0  0
   11.3301   -5.1610    0.0000 O   0  0  0  0  0  0  0  0  0  0  0  0
    8.9790   -1.9249    0.0000 O   0  0  0  0  0  0  0  0  0  0  0  0
    2.6443   -0.6205    0.0000 O   0  0  0  0  0  0  0  0  0  0  0  0
    5.8144   -0.5159    0.0000 O   0  0  0  0  0  0  0  0  0  0  0  0
    6.9899   -2.1340    0.0000 O   0  0  0  0  0  0  0  0  0  0  0  0
    8.0890   -3.0240    0.0000 O   0  0  0  0  0  0  0  0  0  0  0  0
    7.8799   -1.0349    0.0000 O   0  0  0  0  0  0  0  0  0  0  0  0
    2.0000    2.7274    0.0000 O   0  0  0  0  0  0  0  0  0  0  0  0
    7.2112   -0.7372    0.0000 O   0  0  0  0  0  0  0  0  0  0  0  0
    5.5931   -1.9128    0.0000 O   0  0  0  0  0  0  0  0  0  0  0  0
    3.7320    5.7274    0.0000 O   0  0  0  0  0  0  0  0  0  0  0  0
   12.1436   -3.3339    0.0000 N   0  0  0  0  0  0  0  0  0  0  0  0
    3.7320    2.7274    0.0000 N   0  0  0  0  0  0  0  0  0  0  0  0
    2.8660    4.2274    0.0000 N   0  0  0  0  0  0  0  0  0  0  0  0
   11.1491   -3.4384    0.0000 C   0  0  1  0  0  0  0  0  0  0  0  0
   10.7423   -4.3520    0.0000 C   0  0  2  0  0  0  0  0  0  0  0  0
   10.5613   -2.6294    0.0000 C   0  0  0  0  0  0  0  0  0  0  0  0
    9.7478   -4.4565    0.0000 C   0  0  2  0  0  0  0  0  0  0  0  0
    9.5668   -2.7339    0.0000 C   0  0  2  0  0  0  0  0  0  0  0  0
    3.2320    0.1885    0.0000 C   0  0  2  0  0  0  0  0  0  0  0  0
    4.2320    0.1885    0.0000 C   0  0  1  0  0  0  0  0  0  0  0  0
    2.9230    1.1396    0.0000 C   0  0  0  0  0  0  0  0  0  0  0  0
    3.7320    1.7274    0.0000 C   0  0  1  0  0  0  0  0  0  0  0  0
    9.3411   -5.3700    0.0000 C   0  0  0  0  0  0  0  0  0  0  0  0
    4.8198   -0.6205    0.0000 C   0  0  0  0  0  0  0  0  0  0  0  0
   12.5503   -2.4204    0.0000 C   0  0  0  0  0  0  0  0  0  0  0  0
   12.7314   -4.1429    0.0000 C   0  0  0  0  0  0  0  0  0  0  0  0
    4.5981    3.2274    0.0000 C   0  0  0  0  0  0  0  0  0  0  0  0
    2.8660    3.2274    0.0000 C   0  0  0  0  0  0  0  0  0  0  0  0
    4.5981    4.2274    0.0000 C   0  0  0  0  0  0  0  0  0  0  0  0
    3.7320    4.7274    0.0000 C   0  0  0  0  0  0  0  0  0  0  0  0
    5.4641    4.7274    0.0000 C   0  0  0  0  0  0  0  0  0  0  0  0
   11.5135   -3.9400    0.0000 H   0  0  0  0  0  0  0  0  0  0  0  0
   10.4902   -4.9184    0.0000 H   0  0  0  0  0  0  0  0  0  0  0  0
   11.1185   -2.3576    0.0000 H   0  0  0  0  0  0  0  0  0  0  0  0
   10.3904   -2.0334    0.0000 H   0  0  0  0  0  0  0  0  0  0  0  0
    9.1312   -4.5213    0.0000 H   0  0  0  0  0  0  0  0  0  0  0  0
    8.9502   -2.7988    0.0000 H   0  0  0  0  0  0  0  0  0  0  0  0
    3.5135   -0.3639    0.0000 H   0  0  0  0  0  0  0  0  0  0  0  0
    4.8444    0.2855    0.0000 H   0  0  0  0  0  0  0  0  0  0  0  0
    2.6130    1.6765    0.0000 H   0  0  0  0  0  0  0  0  0  0  0  0
    2.3566    0.8874    0.0000 H   0  0  0  0  0  0  0  0  0  0  0  0
    4.2845    2.0089    0.0000 H   0  0  0  0  0  0  0  0  0  0  0  0
    8.7747   -5.1179    0.0000 H   0  0  0  0  0  0  0  0  0  0  0  0
    9.0889   -5.9364    0.0000 H   0  0  0  0  0  0  0  0  0  0  0  0
    9.9075   -5.6222    0.0000 H   0  0  0  0  0  0  0  0  0  0  0  0
    4.2626   -0.8923    0.0000 H   0  0  0  0  0  0  0  0  0  0  0  0
    4.9907   -1.2164    0.0000 H   0  0  0  0  0  0  0  0  0  0  0  0
   11.0779   -5.7274    0.0000 H   0  0  0  0  0  0  0  0  0  0  0  0
   12.2298   -4.5073    0.0000 H   0  0  0  0  0  0  0  0  0  0  0  0
   13.0958   -4.6445    0.0000 H   0  0  0  0  0  0  0  0  0  0  0  0
   13.2330   -3.7785    0.0000 H   0  0  0  0  0  0  0  0  0  0  0  0
   13.1167   -2.6725    0.0000 H   0  0  0  0  0  0  0  0  0  0  0  0
   12.8025   -1.8540    0.0000 H   0  0  0  0  0  0  0  0  0  0  0  0
   11.9839   -2.1682    0.0000 H   0  0  0  0  0  0  0  0  0  0  0  0
    2.0277   -0.5557    0.0000 H   0  0  0  0  0  0  0  0  0  0  0  0
    5.1350    2.9174    0.0000 H   0  0  0  0  0  0  0  0  0  0  0  0
    2.3291    4.5374    0.0000 H   0  0  0  0  0  0  0  0  0  0  0  0
    5.7741    4.1904    0.0000 H   0  0  0  0  0  0  0  0  0  0  0  0
    6.0010    5.0374    0.0000 H   0  0  0  0  0  0  0  0  0  0  0  0
    5.1541    5.2643    0.0000 H   0  0  0  0  0  0  0  0  0  0  0  0
    7.5874   -3.3884    0.0000 H   0  0  0  0  0  0  0  0  0  0  0  0
    7.1464   -0.1206    0.0000 H   0  0  0  0  0  0  0  0  0  0  0  0
  1  6  1  0  0  0  0
  1  9  1  0  0  0  0
  1 10  1  0  0  0  0
  1 11  2  0  0  0  0
  2  8  1  0  0  0  0
  2  9  1  0  0  0  0
  2 13  1  0  0  0  0
  2 14  2  0  0  0  0
  3 22  1  0  0  0  0
  3 23  1  0  0  0  0
  4 25  1  0  0  0  0
  4 27  1  0  0  0  0
 20  5  1  1  0  0  0
  5 53  1  0  0  0  0
 23  6  1  6  0  0  0
 24  7  1  1  0  0  0
  7 60  1  0  0  0  0
  8 29  1  0  0  0  0
 10 66  1  0  0  0  0
 12 33  2  0  0  0  0
 13 67  1  0  0  0  0
 15 35  2  0  0  0  0
 19 16  1  1  0  0  0
 16 30  1  0  0  0  0
 16 31  1  0  0  0  0
 27 17  1  6  0  0  0
 17 32  1  0  0  0  0
 17 33  1  0  0  0  0
 18 33  1  0  0  0  0
 18 35  1  0  0  0  0
 18 62  1  0  0  0  0
 19 20  1  0  0  0  0
 19 21  1  0  0  0  0
 19 37  1  0  0  0  0
 20 22  1  0  0  0  0
 20 38  1  0  0  0  0
 21 23  1  0  0  0  0
 21 39  1  0  0  0  0
 21 40  1  0  0  0  0
 22 28  1  6  0  0  0
 22 41  1  0  0  0  0
 23 42  1  0  0  0  0
 24 25  1  0  0  0  0
 24 26  1  0  0  0  0
 24 43  1  0  0  0  0
 25 29  1  6  0  0  0
 25 44  1  0  0  0  0
 26 27  1  0  0  0  0
 26 45  1  0  0  0  0
 26 46  1  0  0  0  0
 27 47  1  0  0  0  0
 28 48  1  0  0  0  0
 28 49  1  0  0  0  0
 28 50  1  0  0  0  0
 29 51  1  0  0  0  0
 29 52  1  0  0  0  0
 30 57  1  0  0  0  0
 30 58  1  0  0  0  0
 30 59  1  0  0  0  0
 31 54  1  0  0  0  0
 31 55  1  0  0  0  0
 31 56  1  0  0  0  0
 32 34  2  0  0  0  0
 32 61  1  0  0  0  0
 34 35  1  0  0  0  0
 34 36  1  0  0  0  0
 36 63  1  0  0  0  0
 36 64  1  0  0  0  0
 36 65  1  0  0  0  0
M  END
> <PUBCHEM_COMPOUND_CID>
24892772

> <PUBCHEM_COMPOUND_CANONICALIZED>
1

> <PUBCHEM_CACTVS_COMPLEXITY>
978

> <PUBCHEM_CACTVS_HBOND_ACCEPTOR>
14

> <PUBCHEM_CACTVS_HBOND_DONOR>
5

> <PUBCHEM_CACTVS_ROTATABLE_BOND>
9

> <PUBCHEM_CACTVS_SUBSKEYS>
AAADceB7PAMAAAAAAAAAAAAAAAAAASAAAAAkQAAAAAAAAAAAAAAAHgAQCCAADDzxgAcDCAPABxCIQgFWUICAAAAAAAAAAAEIAECTEAIAgQAOQAAPByIXAMHwcAYAAAAAAAAAAAAAAAAAAAAAAAAAAAAAAA==

> <PUBCHEM_IUPAC_OPENEYE_NAME>
[(2R,4R,5R,6S)-4-(dimethylamino)-5-hydroxy-6-methyl-tetrahydropyran-2-yl] [hydroxy-[[(2R,3S,5R)-3-hydroxy-5-(5-methyl-2,4-dioxo-pyrimidin-1-yl)tetrahydrofuran-2-yl]methoxy]phosphoryl] hydrogen phosphate

> <PUBCHEM_IUPAC_CAS_NAME>
[(2R,4R,5R,6S)-4-(dimethylamino)-5-hydroxy-6-methyl-2-oxanyl] [hydroxy-[[(2R,3S,5R)-3-hydroxy-5-(5-methyl-2,4-dioxo-1-pyrimidinyl)-2-oxolanyl]methoxy]phosphoryl] hydrogen phosphate

> <PUBCHEM_IUPAC_NAME>
[(2R,4R,5R,6S)-4-(dimethylamino)-5-hydroxy-6-methyloxan-2-yl] [hydroxy-[[(2R,3S,5R)-3-hydroxy-5-(5-methyl-2,4-dioxopyrimidin-1-yl)oxolan-2-yl]methoxy]phosphoryl] hydrogen phosphate

> <PUBCHEM_IUPAC_SYSTEMATIC_NAME>
[(2R,4R,5R,6S)-4-(dimethylamino)-6-methyl-5-oxidanyl-oxan-2-yl] [[(2R,3S,5R)-5-[5-methyl-2,4-bis(oxidanylidene)pyrimidin-1-yl]-3-oxidanyl-oxolan-2-yl]methoxy-oxidanyl-phosphoryl] hydrogen phosphate

> <PUBCHEM_IUPAC_TRADITIONAL_NAME>
[[(2R,3S,5R)-5-(2,4-diketo-5-methyl-pyrimidin-1-yl)-3-hydroxy-tetrahydrofuran-2-yl]methoxy-hydroxy-phosphoryl] [(2R,4R,5R,6S)-4-(dimethylamino)-5-hydroxy-6-methyl-tetrahydropyran-2-yl] hydrogen phosphate

> <PUBCHEM_IUPAC_INCHI>
InChI=1S/C18H31N3O13P2/c1-9-7-21(18(25)19-17(9)24)14-6-12(22)13(32-14)8-30-35(26,27)34-36(28,29)33-15-5-11(20(3)4)16(23)10(2)31-15/h7,10-16,22-23H,5-6,8H2,1-4H3,(H,26,27)(H,28,29)(H,19,24,25)/t10-,11+,12-,13+,14+,15+,16-/m0/s1

> <PUBCHEM_IUPAC_INCHIKEY>
XPIWJCQKSXFPJI-AUZYSZHDSA-N

> <PUBCHEM_XLOGP3_AA>
-5.4

> <PUBCHEM_EXACT_MASS>
559.133211

> <PUBCHEM_MOLECULAR_FORMULA>
C18H31N3O13P2

> <PUBCHEM_MOLECULAR_WEIGHT>
559.398564

> <PUBCHEM_OPENEYE_CAN_SMILES>
CC1C(C(CC(O1)OP(=O)(O)OP(=O)(O)OCC2C(CC(O2)N3C=C(C(=O)NC3=O)C)O)N(C)C)O

> <PUBCHEM_OPENEYE_ISO_SMILES>
C[C@H]1[C@@H]([C@@H](C[C@H](O1)OP(=O)(O)OP(=O)(O)OC[C@@H]2[C@H](C[C@@H](O2)N3C=C(C(=O)NC3=O)C)O)N(C)C)O

> <PUBCHEM_CACTVS_TPSA>
214

> <PUBCHEM_MONOISOTOPIC_WEIGHT>
559.133211

> <PUBCHEM_TOTAL_CHARGE>
0

> <PUBCHEM_HEAVY_ATOM_COUNT>
36

> <PUBCHEM_ATOM_DEF_STEREO_COUNT>
7

> <PUBCHEM_ATOM_UDEF_STEREO_COUNT>
0

> <PUBCHEM_BOND_DEF_STEREO_COUNT>
0

> <PUBCHEM_BOND_UDEF_STEREO_COUNT>
0

> <PUBCHEM_ISOTOPIC_ATOM_COUNT>
0

> <PUBCHEM_COMPONENT_COUNT>
1

> <PUBCHEM_CACTVS_TAUTO_COUNT>
3

> <PUBCHEM_COORDINATE_TYPE>
1
5
255

> <PUBCHEM_BONDANNOTATIONS>
19  16  5
27  17  6
17  32  8
17  33  8
18  33  8
18  35  8
22  28  6
25  29  6
32  34  8
34  35  8
20  5  5
23  6  6
24  7  5

$$$$

