443822
  -OEChem-07051213032D

 45 48  0     1  0  0  0  0  0999 V2000
    2.3121    0.0507    0.0000 O   0  0  0  0  0  0  0  0  0  0  0  0
    3.3695   -1.9692    0.0000 O   0  0  0  0  0  0  0  0  0  0  0  0
    4.2297    2.6099    0.0000 O   0  0  0  0  0  0  0  0  0  0  0  0
    5.9781    2.5753    0.0000 O   0  0  0  0  0  0  0  0  0  0  0  0
    5.1014   -1.9492    0.0000 O   0  0  0  0  0  0  0  0  0  0  0  0
    7.7265   -1.4593    0.0000 O   0  0  0  0  0  0  0  0  0  0  0  0
    7.7265    2.6099    0.0000 O   0  0  0  0  0  0  0  0  0  0  0  0
    9.5637    2.6530    0.0000 O   0  0  0  0  0  0  0  0  0  0  0  0
    3.3121    0.0545    0.0000 C   0  0  1  0  0  0  0  0  0  0  0  0
    4.2181   -0.4593    0.0000 C   0  0  3  0  0  0  0  0  0  0  0  0
    3.3121    1.0961    0.0000 C   0  0  0  0  0  0  0  0  0  0  0  0
    5.1121    0.0753    0.0000 C   0  0  0  0  0  0  0  0  0  0  0  0
    5.1121    1.0753    0.0000 C   0  0  0  0  0  0  0  0  0  0  0  0
    4.2181    1.6100    0.0000 C   0  0  0  0  0  0  0  0  0  0  0  0
    2.8154   -0.8134    0.0000 C   0  0  0  0  0  0  0  0  0  0  0  0
    5.9781   -0.4247    0.0000 C   0  0  0  0  0  0  0  0  0  0  0  0
    5.9781    1.5753    0.0000 C   0  0  0  0  0  0  0  0  0  0  0  0
    4.2297   -1.4593    0.0000 C   0  0  0  0  0  0  0  0  0  0  0  0
    6.8441    0.0753    0.0000 C   0  0  0  0  0  0  0  0  0  0  0  0
    6.8441    1.0753    0.0000 C   0  0  0  0  0  0  0  0  0  0  0  0
    7.7381   -0.4593    0.0000 C   0  0  0  0  0  0  0  0  0  0  0  0
    7.7381    1.6100    0.0000 C   0  0  0  0  0  0  0  0  0  0  0  0
    8.6441    1.0961    0.0000 C   0  0  0  0  0  0  0  0  0  0  0  0
    8.6441    0.0545    0.0000 C   0  0  0  0  0  0  0  0  0  0  0  0
    9.5753    1.6531    0.0000 C   0  0  0  0  0  0  0  0  0  0  0  0
    9.5753   -0.5024    0.0000 C   0  0  0  0  0  0  0  0  0  0  0  0
    3.3811   -2.9692    0.0000 C   0  0  0  0  0  0  0  0  0  0  0  0
   10.5191    1.1178    0.0000 C   0  0  0  0  0  0  0  0  0  0  0  0
   10.5191    0.0328    0.0000 C   0  0  0  0  0  0  0  0  0  0  0  0
    3.6842   -0.7745    0.0000 H   0  0  0  0  0  0  0  0  0  0  0  0
    3.1030    1.6798    0.0000 H   0  0  0  0  0  0  0  0  0  0  0  0
    2.7012    0.9900    0.0000 H   0  0  0  0  0  0  0  0  0  0  0  0
    2.2773   -0.5055    0.0000 H   0  0  0  0  0  0  0  0  0  0  0  0
    2.5075   -1.3516    0.0000 H   0  0  0  0  0  0  0  0  0  0  0  0
    3.3535   -1.1214    0.0000 H   0  0  0  0  0  0  0  0  0  0  0  0
    5.9781   -1.0447    0.0000 H   0  0  0  0  0  0  0  0  0  0  0  0
    2.0000    0.5864    0.0000 H   0  0  0  0  0  0  0  0  0  0  0  0
    5.4412    2.8853    0.0000 H   0  0  0  0  0  0  0  0  0  0  0  0
    9.5681   -1.1224    0.0000 H   0  0  0  0  0  0  0  0  0  0  0  0
    2.7611   -2.9764    0.0000 H   0  0  0  0  0  0  0  0  0  0  0  0
    3.3882   -3.5891    0.0000 H   0  0  0  0  0  0  0  0  0  0  0  0
    4.0010   -2.9620    0.0000 H   0  0  0  0  0  0  0  0  0  0  0  0
   11.0548    1.4299    0.0000 H   0  0  0  0  0  0  0  0  0  0  0  0
   11.0548   -0.2792    0.0000 H   0  0  0  0  0  0  0  0  0  0  0  0
   10.0970    2.9692    0.0000 H   0  0  0  0  0  0  0  0  0  0  0  0
  9  1  1  6  0  0  0
  1 37  1  0  0  0  0
  2 18  1  0  0  0  0
  2 27  1  0  0  0  0
  3 14  2  0  0  0  0
  4 17  1  0  0  0  0
  4 38  1  0  0  0  0
  5 18  2  0  0  0  0
  6 21  2  0  0  0  0
  7 22  2  0  0  0  0
  8 25  1  0  0  0  0
  8 45  1  0  0  0  0
  9 10  1  0  0  0  0
  9 11  1  0  0  0  0
  9 15  1  0  0  0  0
 10 12  1  0  0  0  0
 10 18  1  0  0  0  0
 10 30  1  0  0  0  0
 11 14  1  0  0  0  0
 11 31  1  0  0  0  0
 11 32  1  0  0  0  0
 12 13  1  0  0  0  0
 12 16  2  0  0  0  0
 13 14  1  0  0  0  0
 13 17  2  0  0  0  0
 15 33  1  0  0  0  0
 15 34  1  0  0  0  0
 15 35  1  0  0  0  0
 16 19  1  0  0  0  0
 16 36  1  0  0  0  0
 17 20  1  0  0  0  0
 19 20  2  0  0  0  0
 19 21  1  0  0  0  0
 20 22  1  0  0  0  0
 21 24  1  0  0  0  0
 22 23  1  0  0  0  0
 23 24  2  0  0  0  0
 23 25  1  0  0  0  0
 24 26  1  0  0  0  0
 25 28  2  0  0  0  0
 26 29  2  0  0  0  0
 26 39  1  0  0  0  0
 27 40  1  0  0  0  0
 27 41  1  0  0  0  0
 27 42  1  0  0  0  0
 28 29  1  0  0  0  0
 28 43  1  0  0  0  0
 29 44  1  0  0  0  0
M  END
> <PUBCHEM_COMPOUND_CID>
443822

> <PUBCHEM_COMPOUND_CANONICALIZED>
1

> <PUBCHEM_CACTVS_COMPLEXITY>
762

> <PUBCHEM_CACTVS_HBOND_ACCEPTOR>
8

> <PUBCHEM_CACTVS_HBOND_DONOR>
3

> <PUBCHEM_CACTVS_ROTATABLE_BOND>
2

> <PUBCHEM_CACTVS_SUBSKEYS>
AAADceB4PAAAAAAAAAAAAAAAAAAAAAAAAAAwYMGAAAAAAADBQAAAGgAACAAADUSAmAIyDoAABgCIAqDSCAACAAAkIAAIiAEGCMgIJjaCFRKAcUAl4BEImYeL7vzuwAADAAAYAADAAAYAADAAAAAAAAAAAA==

> <PUBCHEM_IUPAC_OPENEYE_NAME>
methyl (2R)-2,5,7-trihydroxy-2-methyl-4,6,11-trioxo-1,3-dihydrotetracene-1-carboxylate

> <PUBCHEM_IUPAC_CAS_NAME>
(2R)-2,5,7-trihydroxy-2-methyl-4,6,11-trioxo-1,3-dihydrotetracene-1-carboxylic acid methyl ester

> <PUBCHEM_IUPAC_NAME>
methyl (2R)-2,5,7-trihydroxy-2-methyl-4,6,11-trioxo-1,3-dihydrotetracene-1-carboxylate

> <PUBCHEM_IUPAC_SYSTEMATIC_NAME>
methyl (2R)-2-methyl-2,5,7-tris(oxidanyl)-4,6,11-tris(oxidanylidene)-1,3-dihydrotetracene-1-carboxylate

> <PUBCHEM_IUPAC_TRADITIONAL_NAME>
(2R)-2,5,7-trihydroxy-4,6,11-triketo-2-methyl-1,3-dihydrotetracene-1-carboxylic acid methyl ester

> <PUBCHEM_IUPAC_INCHI>
InChI=1S/C21H16O8/c1-21(28)7-12(23)14-9(16(21)20(27)29-2)6-10-15(19(14)26)18(25)13-8(17(10)24)4-3-5-11(13)22/h3-6,16,22,26,28H,7H2,1-2H3/t16?,21-/m1/s1

> <PUBCHEM_IUPAC_INCHIKEY>
NIJCZTKHKOATFT-CAWMZFRYSA-N

> <PUBCHEM_XLOGP3_AA>
2.7

> <PUBCHEM_EXACT_MASS>
396.084517

> <PUBCHEM_MOLECULAR_FORMULA>
C21H16O8

> <PUBCHEM_MOLECULAR_WEIGHT>
396.34694

> <PUBCHEM_OPENEYE_CAN_SMILES>
CC1(CC(=O)C2=C(C1C(=O)OC)C=C3C(=C2O)C(=O)C4=C(C3=O)C=CC=C4O)O

> <PUBCHEM_OPENEYE_ISO_SMILES>
C[C@]1(CC(=O)C2=C(C1C(=O)OC)C=C3C(=C2O)C(=O)C4=C(C3=O)C=CC=C4O)O

> <PUBCHEM_CACTVS_TPSA>
138

> <PUBCHEM_MONOISOTOPIC_WEIGHT>
396.084517

> <PUBCHEM_TOTAL_CHARGE>
0

> <PUBCHEM_HEAVY_ATOM_COUNT>
29

> <PUBCHEM_ATOM_DEF_STEREO_COUNT>
1

> <PUBCHEM_ATOM_UDEF_STEREO_COUNT>
1

> <PUBCHEM_BOND_DEF_STEREO_COUNT>
0

> <PUBCHEM_BOND_UDEF_STEREO_COUNT>
0

> <PUBCHEM_ISOTOPIC_ATOM_COUNT>
0

> <PUBCHEM_COMPONENT_COUNT>
1

> <PUBCHEM_CACTVS_TAUTO_COUNT>
191

> <PUBCHEM_COORDINATE_TYPE>
1
5
255

> <PUBCHEM_BONDANNOTATIONS>
9  1  6
10  18  3
12  13  8
12  16  8
13  17  8
16  19  8
17  20  8
19  20  8
23  24  8
23  25  8
24  26  8
25  28  8
26  29  8
28  29  8

$$$$

