248990
  -OEChem-07051213072D

 29 31  0     1  0  0  0  0  0999 V2000
    2.3660    1.6830    0.0000 O   0  0  0  0  0  0  0  0  0  0  0  0
    2.0000   -3.6830    0.0000 O   0  5  0  0  0  0  0  0  0  0  0  0
    3.7320   -3.6830    0.0000 O   0  0  0  0  0  0  0  0  0  0  0  0
    2.8660   -3.1830    0.0000 N   0  3  0  0  0  0  0  0  0  0  0  0
    2.8660    0.8170    0.0000 C   0  0  2  0  0  0  0  0  0  0  0  0
    3.3660    1.6830    0.0000 C   0  0  2  0  0  0  0  0  0  0  0  0
    2.8660   -0.1830    0.0000 C   0  0  0  0  0  0  0  0  0  0  0  0
    4.2320    2.1830    0.0000 C   0  0  0  0  0  0  0  0  0  0  0  0
    2.0000   -0.6830    0.0000 C   0  0  0  0  0  0  0  0  0  0  0  0
    3.7320   -0.6830    0.0000 C   0  0  0  0  0  0  0  0  0  0  0  0
    5.0981    1.6830    0.0000 C   0  0  0  0  0  0  0  0  0  0  0  0
    4.2320    3.1830    0.0000 C   0  0  0  0  0  0  0  0  0  0  0  0
    2.0000   -1.6830    0.0000 C   0  0  0  0  0  0  0  0  0  0  0  0
    3.7320   -1.6830    0.0000 C   0  0  0  0  0  0  0  0  0  0  0  0
    2.8660   -2.1830    0.0000 C   0  0  0  0  0  0  0  0  0  0  0  0
    5.9641    2.1830    0.0000 C   0  0  0  0  0  0  0  0  0  0  0  0
    5.0981    3.6830    0.0000 C   0  0  0  0  0  0  0  0  0  0  0  0
    5.9641    3.1830    0.0000 C   0  0  0  0  0  0  0  0  0  0  0  0
    3.4649    0.6565    0.0000 H   0  0  0  0  0  0  0  0  0  0  0  0
    3.2056    2.2819    0.0000 H   0  0  0  0  0  0  0  0  0  0  0  0
    1.4631   -0.3730    0.0000 H   0  0  0  0  0  0  0  0  0  0  0  0
    4.2690   -0.3730    0.0000 H   0  0  0  0  0  0  0  0  0  0  0  0
    5.0981    1.0630    0.0000 H   0  0  0  0  0  0  0  0  0  0  0  0
    3.6951    3.4930    0.0000 H   0  0  0  0  0  0  0  0  0  0  0  0
    1.4631   -1.9930    0.0000 H   0  0  0  0  0  0  0  0  0  0  0  0
    4.2690   -1.9930    0.0000 H   0  0  0  0  0  0  0  0  0  0  0  0
    6.5010    1.8730    0.0000 H   0  0  0  0  0  0  0  0  0  0  0  0
    5.0981    4.3030    0.0000 H   0  0  0  0  0  0  0  0  0  0  0  0
    6.5010    3.4930    0.0000 H   0  0  0  0  0  0  0  0  0  0  0  0
  5  1  1  1  0  0  0
  6  1  1  1  0  0  0
  2  4  1  0  0  0  0
  3  4  2  0  0  0  0
  4 15  1  0  0  0  0
  5  6  1  0  0  0  0
  5  7  1  0  0  0  0
  5 19  1  0  0  0  0
  6  8  1  0  0  0  0
  6 20  1  0  0  0  0
  7  9  2  0  0  0  0
  7 10  1  0  0  0  0
  8 11  2  0  0  0  0
  8 12  1  0  0  0  0
  9 13  1  0  0  0  0
  9 21  1  0  0  0  0
 10 14  2  0  0  0  0
 10 22  1  0  0  0  0
 11 16  1  0  0  0  0
 11 23  1  0  0  0  0
 12 17  2  0  0  0  0
 12 24  1  0  0  0  0
 13 15  2  0  0  0  0
 13 25  1  0  0  0  0
 14 15  1  0  0  0  0
 14 26  1  0  0  0  0
 16 18  2  0  0  0  0
 16 27  1  0  0  0  0
 17 18  1  0  0  0  0
 17 28  1  0  0  0  0
 18 29  1  0  0  0  0
M  CHG  2   2  -1   4   1
M  END
> <PUBCHEM_COMPOUND_CID>
248990

> <PUBCHEM_COMPOUND_CANONICALIZED>
1

> <PUBCHEM_CACTVS_COMPLEXITY>
301

> <PUBCHEM_CACTVS_HBOND_ACCEPTOR>
3

> <PUBCHEM_CACTVS_HBOND_DONOR>
0

> <PUBCHEM_CACTVS_ROTATABLE_BOND>
2

> <PUBCHEM_CACTVS_SUBSKEYS>
AAADccByMAAAAAAAAAAAAAAAEgAAAAAAAAAwYAAAAAAAAAABQAAAHgAEAAAADByhmAIwwIAQRACBAiRCQwCCAAAgAgAoiAAAbIoIJiKAsZmCMABkwAEI6AeQ0OEOCAAAAAAAAAAQAAAAAAAAAAAAAAAAAA==

> <PUBCHEM_IUPAC_OPENEYE_NAME>
(2S,3S)-2-(4-nitrophenyl)-3-phenyl-oxirane

> <PUBCHEM_IUPAC_CAS_NAME>
(2S,3S)-2-(4-nitrophenyl)-3-phenyloxirane

> <PUBCHEM_IUPAC_NAME>
(2S,3S)-2-(4-nitrophenyl)-3-phenyloxirane

> <PUBCHEM_IUPAC_SYSTEMATIC_NAME>
(2S,3S)-2-(4-nitrophenyl)-3-phenyl-oxirane

> <PUBCHEM_IUPAC_TRADITIONAL_NAME>
(2S,3S)-2-(4-nitrophenyl)-3-phenyl-oxirane

> <PUBCHEM_IUPAC_INCHI>
InChI=1S/C14H11NO3/c16-15(17)12-8-6-11(7-9-12)14-13(18-14)10-4-2-1-3-5-10/h1-9,13-14H/t13-,14-/m0/s1

> <PUBCHEM_IUPAC_INCHIKEY>
YUZKNYLREGXARL-KBPBESRZSA-N

> <PUBCHEM_XLOGP3_AA>
2.7

> <PUBCHEM_EXACT_MASS>
241.073893

> <PUBCHEM_MOLECULAR_FORMULA>
C14H11NO3

> <PUBCHEM_MOLECULAR_WEIGHT>
241.24204

> <PUBCHEM_OPENEYE_CAN_SMILES>
C1=CC=C(C=C1)C2C(O2)C3=CC=C(C=C3)[N+](=O)[O-]

> <PUBCHEM_OPENEYE_ISO_SMILES>
C1=CC=C(C=C1)[C@H]2[C@@H](O2)C3=CC=C(C=C3)[N+](=O)[O-]

> <PUBCHEM_CACTVS_TPSA>
58.4

> <PUBCHEM_MONOISOTOPIC_WEIGHT>
241.073893

> <PUBCHEM_TOTAL_CHARGE>
0

> <PUBCHEM_HEAVY_ATOM_COUNT>
18

> <PUBCHEM_ATOM_DEF_STEREO_COUNT>
2

> <PUBCHEM_ATOM_UDEF_STEREO_COUNT>
0

> <PUBCHEM_BOND_DEF_STEREO_COUNT>
0

> <PUBCHEM_BOND_UDEF_STEREO_COUNT>
0

> <PUBCHEM_ISOTOPIC_ATOM_COUNT>
0

> <PUBCHEM_COMPONENT_COUNT>
1

> <PUBCHEM_CACTVS_TAUTO_COUNT>
1

> <PUBCHEM_COORDINATE_TYPE>
1
5
255

> <PUBCHEM_BONDANNOTATIONS>
5  1  5
6  1  5
10  14  8
11  16  8
12  17  8
13  15  8
14  15  8
16  18  8
17  18  8
7  10  8
7  9  8
8  11  8
8  12  8
9  13  8

$$$$

