   Color/Form

     * CRYSTALS
     * Colorless crystalline powder

   from [1]HSDB

   Melting Point
        52.5-53.5 DEG C
   from [2]HSDB

   Octanol/Water Partition Coefficient
        Oil/water partitioning coefficient: 2.23 (log)
   from [3]HSDB

   Solubilities
        Sparingly soluble in water. In aqueous isopropanol (45%) 23 g/kg
   (20 deg C); in xylene 300 g/kg (5 deg C); soluble in acetone, carbon
   tetrachloride, chloroform, cyclohexanone, dichloromethane, toluene;
   sparingly soluble in aliphatic hydrocarbons
   from [4]HSDB

   Spectral Properties
        Intense mass spectral peaks: 218 m/z (100%), 93 m/z (68%), 125 m/z
   (61%), 44 m/z (45%)
   from [5]HSDB

   Computed Properties
   Molecular Weight                  325.341502 [g/mol]
   Molecular Formula                 C[10]H[16]NO[5]PS[2]
   XLogP3                            2.2
   H-Bond Donor                      0
   H-Bond Acceptor                   7
   Rotatable Bond Count              6
   Exact Mass                        325.020751
   MonoIsotopic Mass                 325.020751
   Topological Polar Surface Area    106
   Heavy Atom Count                  19
   Formal Charge                     0
   Complexity                        418
   Isotope Atom Count                0
   Defined Atom Stereocenter Count   0
   Undefined Atom Stereocenter Count 0
   Defined Bond Stereocenter Count   0
   Undefined Bond Stereocenter Count 0
   Covalently-Bonded Unit Count      1
   Feature 3D Acceptor Count         2
   Feature 3D Ring Count             1
   Effective Rotor Count             6
   Conformer Sampling RMSD           0.8
   CID Conformer Count               [6]28

References

   1. http://toxnet.nlm.nih.gov/cgi-bin/sis/search/r?dbs+hsdb:@term+@rn+@rel+52-85-7
   2. http://toxnet.nlm.nih.gov/cgi-bin/sis/search/r?dbs+hsdb:@term+@rn+@rel+52-85-7
   3. http://toxnet.nlm.nih.gov/cgi-bin/sis/search/r?dbs+hsdb:@term+@rn+@rel+52-85-7
   4. http://toxnet.nlm.nih.gov/cgi-bin/sis/search/r?dbs+hsdb:@term+@rn+@rel+52-85-7
   5. http://toxnet.nlm.nih.gov/cgi-bin/sis/search/r?dbs+hsdb:@term+@rn+@rel+52-85-7
   6. http://pubchem.ncbi.nlm.nih.gov/vw3d/vw3d.cgi?cid=5859
