95054
  -OEChem-07051212532D

 35 37  0     0  0  0  0  0  0999 V2000
    4.2690    1.0396    0.0000 O   0  0  0  0  0  0  0  0  0  0  0  0
   12.9914    1.0838    0.0000 O   0  0  0  0  0  0  0  0  0  0  0  0
   12.1196    2.5804    0.0000 O   0  0  0  0  0  0  0  0  0  0  0  0
    8.6671   -0.4329    0.0000 N   0  0  0  0  0  0  0  0  0  0  0  0
    6.0290    0.0743    0.0000 N   0  0  0  0  0  0  0  0  0  0  0  0
    4.2690   -1.9604    0.0000 N   0  0  0  0  0  0  0  0  0  0  0  0
    6.0290   -1.9951    0.0000 N   0  0  0  0  0  0  0  0  0  0  0  0
    3.4030   -0.4604    0.0000 N   0  0  0  0  0  0  0  0  0  0  0  0
    2.5369   -1.9604    0.0000 N   0  0  0  0  0  0  0  0  0  0  0  0
    7.7991    0.0637    0.0000 C   0  0  0  0  0  0  0  0  0  0  0  0
    6.9350   -0.4396    0.0000 C   0  0  0  0  0  0  0  0  0  0  0  0
    9.5312    0.0704    0.0000 C   0  0  0  0  0  0  0  0  0  0  0  0
    5.1350   -0.4604    0.0000 C   0  0  0  0  0  0  0  0  0  0  0  0
    5.1350   -1.4604    0.0000 C   0  0  0  0  0  0  0  0  0  0  0  0
    6.9350   -1.4812    0.0000 C   0  0  0  0  0  0  0  0  0  0  0  0
   10.3991   -0.4262    0.0000 C   0  0  0  0  0  0  0  0  0  0  0  0
    9.5273    1.0704    0.0000 C   0  0  0  0  0  0  0  0  0  0  0  0
    4.2690    0.0396    0.0000 C   0  0  0  0  0  0  0  0  0  0  0  0
   11.2593    1.0771    0.0000 C   0  0  0  0  0  0  0  0  0  0  0  0
   11.2632    0.0771    0.0000 C   0  0  0  0  0  0  0  0  0  0  0  0
   10.3914    1.5737    0.0000 C   0  0  0  0  0  0  0  0  0  0  0  0
    3.4030   -1.4604    0.0000 C   0  0  0  0  0  0  0  0  0  0  0  0
   12.1234    1.5804    0.0000 C   0  0  0  0  0  0  0  0  0  0  0  0
    8.1958    0.5402    0.0000 H   0  0  0  0  0  0  0  0  0  0  0  0
    7.3988    0.5371    0.0000 H   0  0  0  0  0  0  0  0  0  0  0  0
    8.6694   -1.0529    0.0000 H   0  0  0  0  0  0  0  0  0  0  0  0
    7.4708   -1.7933    0.0000 H   0  0  0  0  0  0  0  0  0  0  0  0
   10.4015   -1.0462    0.0000 H   0  0  0  0  0  0  0  0  0  0  0  0
    8.9892    1.3783    0.0000 H   0  0  0  0  0  0  0  0  0  0  0  0
    4.2690   -2.5804    0.0000 H   0  0  0  0  0  0  0  0  0  0  0  0
   11.8013   -0.2308    0.0000 H   0  0  0  0  0  0  0  0  0  0  0  0
   10.3890    2.1937    0.0000 H   0  0  0  0  0  0  0  0  0  0  0  0
    2.0000   -1.6504    0.0000 H   0  0  0  0  0  0  0  0  0  0  0  0
    2.5369   -2.5804    0.0000 H   0  0  0  0  0  0  0  0  0  0  0  0
   13.5271    1.3958    0.0000 H   0  0  0  0  0  0  0  0  0  0  0  0
  1 18  2  0  0  0  0
  2 23  1  0  0  0  0
  2 35  1  0  0  0  0
  3 23  2  0  0  0  0
  4 10  1  0  0  0  0
  4 12  1  0  0  0  0
  4 26  1  0  0  0  0
  5 11  1  0  0  0  0
  5 13  2  0  0  0  0
  6 14  1  0  0  0  0
  6 22  1  0  0  0  0
  6 30  1  0  0  0  0
  7 14  2  0  0  0  0
  7 15  1  0  0  0  0
  8 18  1  0  0  0  0
  8 22  2  0  0  0  0
  9 22  1  0  0  0  0
  9 33  1  0  0  0  0
  9 34  1  0  0  0  0
 10 11  1  0  0  0  0
 10 24  1  0  0  0  0
 10 25  1  0  0  0  0
 11 15  2  0  0  0  0
 12 16  2  0  0  0  0
 12 17  1  0  0  0  0
 13 14  1  0  0  0  0
 13 18  1  0  0  0  0
 15 27  1  0  0  0  0
 16 20  1  0  0  0  0
 16 28  1  0  0  0  0
 17 21  2  0  0  0  0
 17 29  1  0  0  0  0
 19 20  2  0  0  0  0
 19 21  1  0  0  0  0
 19 23  1  0  0  0  0
 20 31  1  0  0  0  0
 21 32  1  0  0  0  0
M  END
> <PUBCHEM_COMPOUND_CID>
95054

> <PUBCHEM_COMPOUND_CANONICALIZED>
1

> <PUBCHEM_CACTVS_COMPLEXITY>
503

> <PUBCHEM_CACTVS_HBOND_ACCEPTOR>
6

> <PUBCHEM_CACTVS_HBOND_DONOR>
4

> <PUBCHEM_CACTVS_ROTATABLE_BOND>
4

> <PUBCHEM_CACTVS_SUBSKEYS>
AAADccBzsAAAAAAAAAAAAAAAAAAAAAAAAAA8QIAAAAAAAACBwAAAHgAQCAAADAjBngQ9+JLIEgCoAzf3fACCgC03EiAJ2IG4fMiIZnrA3bGUcYhs0API2eeY2SOeCAAAAAAAAAAQAAAAAAAAAAAAAAAAAA==

> <PUBCHEM_IUPAC_OPENEYE_NAME>
4-[(2-amino-4-oxo-1H-pteridin-6-yl)methylamino]benzoic acid

> <PUBCHEM_IUPAC_CAS_NAME>
4-[(2-amino-4-oxo-1H-pteridin-6-yl)methylamino]benzoic acid

> <PUBCHEM_IUPAC_NAME>
4-[(2-amino-4-oxo-1H-pteridin-6-yl)methylamino]benzoic acid

> <PUBCHEM_IUPAC_SYSTEMATIC_NAME>
4-[(2-azanyl-4-oxidanylidene-1H-pteridin-6-yl)methylamino]benzoic acid

> <PUBCHEM_IUPAC_TRADITIONAL_NAME>
4-[(2-amino-4-keto-1H-pteridin-6-yl)methylamino]benzoic acid

> <PUBCHEM_IUPAC_INCHI>
InChI=1S/C14H12N6O3/c15-14-19-11-10(12(21)20-14)18-9(6-17-11)5-16-8-3-1-7(2-4-8)13(22)23/h1-4,6,16H,5H2,(H,22,23)(H3,15,17,19,20,21)

> <PUBCHEM_IUPAC_INCHIKEY>
JOAQINSXLLMRCV-UHFFFAOYSA-N

> <PUBCHEM_XLOGP3_AA>
-0.3

> <PUBCHEM_EXACT_MASS>
312.097088

> <PUBCHEM_MOLECULAR_FORMULA>
C14H12N6O3

> <PUBCHEM_MOLECULAR_WEIGHT>
312.28348

> <PUBCHEM_OPENEYE_CAN_SMILES>
C1=CC(=CC=C1C(=O)O)NCC2=CN=C3C(=N2)C(=O)N=C(N3)N

> <PUBCHEM_OPENEYE_ISO_SMILES>
C1=CC(=CC=C1C(=O)O)NCC2=CN=C3C(=N2)C(=O)N=C(N3)N

> <PUBCHEM_CACTVS_TPSA>
143

> <PUBCHEM_MONOISOTOPIC_WEIGHT>
312.097088

> <PUBCHEM_TOTAL_CHARGE>
0

> <PUBCHEM_HEAVY_ATOM_COUNT>
23

> <PUBCHEM_ATOM_DEF_STEREO_COUNT>
0

> <PUBCHEM_ATOM_UDEF_STEREO_COUNT>
0

> <PUBCHEM_BOND_DEF_STEREO_COUNT>
0

> <PUBCHEM_BOND_UDEF_STEREO_COUNT>
0

> <PUBCHEM_ISOTOPIC_ATOM_COUNT>
0

> <PUBCHEM_COMPONENT_COUNT>
1

> <PUBCHEM_CACTVS_TAUTO_COUNT>
36

> <PUBCHEM_COORDINATE_TYPE>
1
5
255

> <PUBCHEM_BONDANNOTATIONS>
11  15  8
12  16  8
12  17  8
13  14  8
13  18  8
16  20  8
17  21  8
19  20  8
19  21  8
5  11  8
5  13  8
6  14  8
6  22  8
7  14  8
7  15  8
8  18  8
8  22  8

$$$$

