5281430
  -OEChem-07051212572D

 49 51  0     1  0  0  0  0  0999 V2000
    7.8055    1.6854    0.0000 O   0  0  0  0  0  0  0  0  0  0  0  0
    7.2682   -2.1436    0.0000 O   0  0  0  0  0  0  0  0  0  0  0  0
    4.8810   -0.1158    0.0000 O   0  0  0  0  0  0  0  0  0  0  0  0
    7.3190    3.3565    0.0000 O   0  0  0  0  0  0  0  0  0  0  0  0
    5.9704   -3.3565    0.0000 O   0  0  0  0  0  0  0  0  0  0  0  0
   10.3728    0.6502    0.0000 O   0  0  0  0  0  0  0  0  0  0  0  0
    4.5802    1.5899    0.0000 O   0  0  0  0  0  0  0  0  0  0  0  0
    6.3658   -0.8082    0.0000 C   0  0  2  0  0  0  0  0  0  0  0  0
    5.8658    0.0578    0.0000 C   0  0  1  0  0  0  0  0  0  0  0  0
    6.0394    1.0426    0.0000 C   0  0  0  0  0  0  0  0  0  0  0  0
    6.8055    1.6854    0.0000 C   0  0  2  0  0  0  0  0  0  0  0  0
    7.3055   -1.1502    0.0000 C   0  0  1  0  0  0  0  0  0  0  0  0
    5.7558   -1.5932    0.0000 C   0  0  0  0  0  0  0  0  0  0  0  0
    7.5258    2.3781    0.0000 C   0  0  0  0  0  0  0  0  0  0  0  0
    8.2452   -0.8082    0.0000 C   0  0  0  0  0  0  0  0  0  0  0  0
    6.1371    2.4292    0.0000 C   0  0  0  0  0  0  0  0  0  0  0  0
    8.5715    1.0426    0.0000 C   0  0  0  0  0  0  0  0  0  0  0  0
    8.7452    0.0578    0.0000 C   0  0  0  0  0  0  0  0  0  0  0  0
    6.3124   -2.4168    0.0000 C   0  0  0  0  0  0  0  0  0  0  0  0
    8.4650    2.0363    0.0000 C   0  0  0  0  0  0  0  0  0  0  0  0
    4.7563   -1.5600    0.0000 C   0  0  0  0  0  0  0  0  0  0  0  0
    9.7300   -0.1158    0.0000 C   0  0  0  0  0  0  0  0  0  0  0  0
    4.2382    0.6502    0.0000 C   0  0  0  0  0  0  0  0  0  0  0  0
    3.2534    0.4766    0.0000 C   0  0  0  0  0  0  0  0  0  0  0  0
    2.9114   -0.4631    0.0000 C   0  0  0  0  0  0  0  0  0  0  0  0
    2.6106    1.2426    0.0000 C   0  0  0  0  0  0  0  0  0  0  0  0
    2.9526    2.1823    0.0000 C   0  0  0  0  0  0  0  0  0  0  0  0
    5.5670   -0.5175    0.0000 H   0  0  0  0  0  0  0  0  0  0  0  0
    5.6038   -0.5041    0.0000 H   0  0  0  0  0  0  0  0  0  0  0  0
    5.7938    1.6119    0.0000 H   0  0  0  0  0  0  0  0  0  0  0  0
    5.4236    0.9706    0.0000 H   0  0  0  0  0  0  0  0  0  0  0  0
    8.1042   -1.4410    0.0000 H   0  0  0  0  0  0  0  0  0  0  0  0
    8.6437   -1.2832    0.0000 H   0  0  0  0  0  0  0  0  0  0  0  0
    6.5983    2.8436    0.0000 H   0  0  0  0  0  0  0  0  0  0  0  0
    5.7227    2.8904    0.0000 H   0  0  0  0  0  0  0  0  0  0  0  0
    5.6759    2.0149    0.0000 H   0  0  0  0  0  0  0  0  0  0  0  0
    8.9531    2.4185    0.0000 H   0  0  0  0  0  0  0  0  0  0  0  0
    4.4643   -1.0131    0.0000 H   0  0  0  0  0  0  0  0  0  0  0  0
    4.4287   -2.0863    0.0000 H   0  0  0  0  0  0  0  0  0  0  0  0
    9.5179   -0.6985    0.0000 H   0  0  0  0  0  0  0  0  0  0  0  0
   10.2669   -0.4258    0.0000 H   0  0  0  0  0  0  0  0  0  0  0  0
   10.9833    0.5425    0.0000 H   0  0  0  0  0  0  0  0  0  0  0  0
    2.3287   -0.2511    0.0000 H   0  0  0  0  0  0  0  0  0  0  0  0
    2.6993   -1.0458    0.0000 H   0  0  0  0  0  0  0  0  0  0  0  0
    3.4940   -0.6752    0.0000 H   0  0  0  0  0  0  0  0  0  0  0  0
    2.0000    1.1349    0.0000 H   0  0  0  0  0  0  0  0  0  0  0  0
    3.5352    1.9702    0.0000 H   0  0  0  0  0  0  0  0  0  0  0  0
    3.1646    2.7649    0.0000 H   0  0  0  0  0  0  0  0  0  0  0  0
    2.3700    2.3943    0.0000 H   0  0  0  0  0  0  0  0  0  0  0  0
  1 11  1  0  0  0  0
  1 17  1  0  0  0  0
  2 12  1  0  0  0  0
  2 19  1  0  0  0  0
  9  3  1  6  0  0  0
  3 23  1  0  0  0  0
  4 14  2  0  0  0  0
  5 19  2  0  0  0  0
  6 22  1  0  0  0  0
  6 42  1  0  0  0  0
  7 23  2  0  0  0  0
  8  9  1  0  0  0  0
  8 12  1  0  0  0  0
  8 13  1  0  0  0  0
  8 28  1  1  0  0  0
  9 10  1  0  0  0  0
  9 29  1  0  0  0  0
 10 11  1  0  0  0  0
 10 30  1  0  0  0  0
 10 31  1  0  0  0  0
 11 14  1  0  0  0  0
 11 16  1  1  0  0  0
 12 15  1  0  0  0  0
 12 32  1  6  0  0  0
 13 19  1  0  0  0  0
 13 21  2  0  0  0  0
 14 20  1  0  0  0  0
 15 18  2  0  0  0  0
 15 33  1  0  0  0  0
 16 34  1  0  0  0  0
 16 35  1  0  0  0  0
 16 36  1  0  0  0  0
 17 18  1  0  0  0  0
 17 20  2  0  0  0  0
 18 22  1  0  0  0  0
 20 37  1  0  0  0  0
 21 38  1  0  0  0  0
 21 39  1  0  0  0  0
 22 40  1  0  0  0  0
 22 41  1  0  0  0  0
 23 24  1  0  0  0  0
 24 25  1  0  0  0  0
 24 26  2  0  0  0  0
 25 43  1  0  0  0  0
 25 44  1  0  0  0  0
 25 45  1  0  0  0  0
 26 27  1  0  0  0  0
 26 46  1  0  0  0  0
 27 47  1  0  0  0  0
 27 48  1  0  0  0  0
 27 49  1  0  0  0  0
M  END
> <PUBCHEM_COMPOUND_CID>
5281430

> <PUBCHEM_COMPOUND_CANONICALIZED>
1

> <PUBCHEM_CACTVS_COMPLEXITY>
816

> <PUBCHEM_CACTVS_HBOND_ACCEPTOR>
7

> <PUBCHEM_CACTVS_HBOND_DONOR>
1

> <PUBCHEM_CACTVS_ROTATABLE_BOND>
4

> <PUBCHEM_CACTVS_SUBSKEYS>
AAADceB4OAAAAAAAAAAAAAAAAAAAASIAAAAAAAAAAAAAAECAAAAAGgAACAAADVSggAICCAAABgCIAqDSCAIACAAgIAAACAFAAEgIFBIAIQQCUAAFwAAIsYPK6PyOAAAAAAAAAAAAAAAAAAAAAAAAAAAAAA==

> <PUBCHEM_IUPAC_INCHI>
InChI=1S/C20H22O7/c1-5-10(2)18(23)26-15-8-20(4)16(22)7-13(27-20)12(9-21)6-14-17(15)11(3)19(24)25-14/h5-7,14-15,17,21H,3,8-9H2,1-2,4H3/b10-5-,12-6-/t14-,15-,17+,20-/m1/s1

> <PUBCHEM_IUPAC_INCHIKEY>
BMVJFNLJSZHNNS-ZXRHVTAXSA-N

> <PUBCHEM_XLOGP3_AA>
1.2

> <PUBCHEM_EXACT_MASS>
374.136553

> <PUBCHEM_MOLECULAR_FORMULA>
C20H22O7

> <PUBCHEM_MOLECULAR_WEIGHT>
374.38448

> <PUBCHEM_OPENEYE_CAN_SMILES>
CC=C(C)C(=O)OC1CC2(C(=O)C=C(O2)C(=CC3C1C(=C)C(=O)O3)CO)C

> <PUBCHEM_OPENEYE_ISO_SMILES>
C/C=C(/C)\C(=O)O[C@@H]1C[C@@]2(C(=O)C=C(O2)/C(=C\[C@@H]3[C@@H]1C(=C)C(=O)O3)/CO)C

> <PUBCHEM_CACTVS_TPSA>
99.1

> <PUBCHEM_MONOISOTOPIC_WEIGHT>
374.136553

> <PUBCHEM_TOTAL_CHARGE>
0

> <PUBCHEM_HEAVY_ATOM_COUNT>
27

> <PUBCHEM_ATOM_DEF_STEREO_COUNT>
4

> <PUBCHEM_ATOM_UDEF_STEREO_COUNT>
0

> <PUBCHEM_BOND_DEF_STEREO_COUNT>
2

> <PUBCHEM_BOND_UDEF_STEREO_COUNT>
0

> <PUBCHEM_ISOTOPIC_ATOM_COUNT>
0

> <PUBCHEM_COMPONENT_COUNT>
1

> <PUBCHEM_CACTVS_TAUTO_COUNT>
1

> <PUBCHEM_COORDINATE_TYPE>
1
5
255

> <PUBCHEM_BONDANNOTATIONS>
11  16  5
12  32  6
9  3  6
8  28  5

$$$$

