45479680
  -OEChem-07051212472D

138137  0     0  0  0  0  0  0999 V2000
    3.4030    5.7985    0.0000 P   0  0  0  0  0  0  0  0  0  0  0  0
    4.2690    6.2985    0.0000 O   0  0  0  0  0  0  0  0  0  0  0  0
    2.5369    5.2985    0.0000 O   0  0  0  0  0  0  0  0  0  0  0  0
    2.9030    6.6646    0.0000 O   0  0  0  0  0  0  0  0  0  0  0  0
    3.9030    4.9325    0.0000 O   0  0  0  0  0  0  0  0  0  0  0  0
   17.2594   -1.2015    0.0000 C   0  0  0  0  0  0  0  0  0  0  0  0
   14.6613    0.2985    0.0000 C   0  0  0  0  0  0  0  0  0  0  0  0
   19.8574   -2.7015    0.0000 C   0  0  0  0  0  0  0  0  0  0  0  0
   18.1254   -1.7015    0.0000 C   0  0  0  0  0  0  0  0  0  0  0  0
   15.5273   -0.2015    0.0000 C   0  0  0  0  0  0  0  0  0  0  0  0
   20.7235   -3.2015    0.0000 C   0  0  0  0  0  0  0  0  0  0  0  0
   22.4555   -4.2015    0.0000 C   0  0  0  0  0  0  0  0  0  0  0  0
   12.0632    1.7985    0.0000 C   0  0  0  0  0  0  0  0  0  0  0  0
   17.2594   -0.2015    0.0000 C   0  0  0  0  0  0  0  0  0  0  0  0
   12.9292    1.2985    0.0000 C   0  0  0  0  0  0  0  0  0  0  0  0
   18.9914   -3.2015    0.0000 C   0  0  0  0  0  0  0  0  0  0  0  0
   13.7953   -0.2015    0.0000 C   0  0  0  0  0  0  0  0  0  0  0  0
   23.3215   -4.7015    0.0000 C   0  0  0  0  0  0  0  0  0  0  0  0
   22.4555   -3.2015    0.0000 C   0  0  0  0  0  0  0  0  0  0  0  0
   12.0632    2.7985    0.0000 C   0  0  0  0  0  0  0  0  0  0  0  0
   18.1254   -2.7015    0.0000 C   0  0  0  0  0  0  0  0  0  0  0  0
   16.3933    0.2985    0.0000 C   0  0  0  0  0  0  0  0  0  0  0  0
   21.5895   -2.7015    0.0000 C   0  0  0  0  0  0  0  0  0  0  0  0
   12.9292    0.2985    0.0000 C   0  0  0  0  0  0  0  0  0  0  0  0
   10.3312    2.7985    0.0000 C   0  0  0  0  0  0  0  0  0  0  0  0
   25.0536   -5.7015    0.0000 C   0  0  0  0  0  0  0  0  0  0  0  0
    9.4651    3.2985    0.0000 C   0  0  0  0  0  0  0  0  0  0  0  0
   24.1876   -6.2015    0.0000 C   0  0  0  0  0  0  0  0  0  0  0  0
   23.3215   -5.7015    0.0000 C   0  0  0  0  0  0  0  0  0  0  0  0
   25.9196   -6.2015    0.0000 C   0  0  0  0  0  0  0  0  0  0  0  0
   11.1972    3.2985    0.0000 C   0  0  0  0  0  0  0  0  0  0  0  0
    8.5991    2.7985    0.0000 C   0  0  0  0  0  0  0  0  0  0  0  0
   18.1254    0.2985    0.0000 C   0  0  0  0  0  0  0  0  0  0  0  0
   18.9914   -4.2015    0.0000 C   0  0  0  0  0  0  0  0  0  0  0  0
   13.7953   -1.2015    0.0000 C   0  0  0  0  0  0  0  0  0  0  0  0
   23.3215   -2.7015    0.0000 C   0  0  0  0  0  0  0  0  0  0  0  0
   26.7856   -5.7015    0.0000 C   0  0  0  0  0  0  0  0  0  0  0  0
   27.6517   -6.2015    0.0000 C   0  0  0  0  0  0  0  0  0  0  0  0
    7.7331    4.2985    0.0000 C   0  0  0  0  0  0  0  0  0  0  0  0
   12.9292    3.2985    0.0000 C   0  0  0  0  0  0  0  0  0  0  0  0
    7.7331    3.2985    0.0000 C   0  0  0  0  0  0  0  0  0  0  0  0
   28.5177   -5.7015    0.0000 C   0  0  0  0  0  0  0  0  0  0  0  0
   24.1876   -7.2015    0.0000 C   0  0  0  0  0  0  0  0  0  0  0  0
    6.8671    4.7985    0.0000 C   0  0  0  0  0  0  0  0  0  0  0  0
    8.5991    1.7985    0.0000 C   0  0  0  0  0  0  0  0  0  0  0  0
   29.3837   -6.2015    0.0000 C   0  0  0  0  0  0  0  0  0  0  0  0
    6.8671    5.7985    0.0000 C   0  0  0  0  0  0  0  0  0  0  0  0
   27.6517   -7.2015    0.0000 C   0  0  0  0  0  0  0  0  0  0  0  0
   30.2497   -5.7015    0.0000 C   0  0  0  0  0  0  0  0  0  0  0  0
    7.7331    6.2985    0.0000 C   0  0  0  0  0  0  0  0  0  0  0  0
    6.0010    6.2985    0.0000 C   0  0  0  0  0  0  0  0  0  0  0  0
   31.1158   -6.2015    0.0000 C   0  0  0  0  0  0  0  0  0  0  0  0
    5.1350    5.7985    0.0000 C   0  0  0  0  0  0  0  0  0  0  0  0
   31.9818   -5.7015    0.0000 C   0  0  0  0  0  0  0  0  0  0  0  0
   31.1158   -7.2015    0.0000 C   0  0  0  0  0  0  0  0  0  0  0  0
   16.6488   -1.0938    0.0000 H   0  0  0  0  0  0  0  0  0  0  0  0
   17.0473   -1.7841    0.0000 H   0  0  0  0  0  0  0  0  0  0  0  0
   15.0598    0.7735    0.0000 H   0  0  0  0  0  0  0  0  0  0  0  0
   14.2628    0.7735    0.0000 H   0  0  0  0  0  0  0  0  0  0  0  0
   20.2560   -2.2265    0.0000 H   0  0  0  0  0  0  0  0  0  0  0  0
   19.4589   -2.2265    0.0000 H   0  0  0  0  0  0  0  0  0  0  0  0
   18.7360   -1.8091    0.0000 H   0  0  0  0  0  0  0  0  0  0  0  0
   18.3374   -1.1189    0.0000 H   0  0  0  0  0  0  0  0  0  0  0  0
   15.1288   -0.6764    0.0000 H   0  0  0  0  0  0  0  0  0  0  0  0
   15.9258   -0.6764    0.0000 H   0  0  0  0  0  0  0  0  0  0  0  0
   20.3249   -3.6764    0.0000 H   0  0  0  0  0  0  0  0  0  0  0  0
   21.1220   -3.6764    0.0000 H   0  0  0  0  0  0  0  0  0  0  0  0
   21.8449   -4.0938    0.0000 H   0  0  0  0  0  0  0  0  0  0  0  0
   22.2435   -4.7841    0.0000 H   0  0  0  0  0  0  0  0  0  0  0  0
   11.4526    1.9062    0.0000 H   0  0  0  0  0  0  0  0  0  0  0  0
   11.8512    1.2159    0.0000 H   0  0  0  0  0  0  0  0  0  0  0  0
   13.5398    1.1909    0.0000 H   0  0  0  0  0  0  0  0  0  0  0  0
   13.1413    1.8811    0.0000 H   0  0  0  0  0  0  0  0  0  0  0  0
   23.9321   -4.8091    0.0000 H   0  0  0  0  0  0  0  0  0  0  0  0
   23.5336   -4.1189    0.0000 H   0  0  0  0  0  0  0  0  0  0  0  0
   17.5885   -3.0115    0.0000 H   0  0  0  0  0  0  0  0  0  0  0  0
   16.3933    0.9185    0.0000 H   0  0  0  0  0  0  0  0  0  0  0  0
   21.5895   -2.0815    0.0000 H   0  0  0  0  0  0  0  0  0  0  0  0
   12.3923   -0.0115    0.0000 H   0  0  0  0  0  0  0  0  0  0  0  0
    9.9326    2.3236    0.0000 H   0  0  0  0  0  0  0  0  0  0  0  0
   10.7297    2.3236    0.0000 H   0  0  0  0  0  0  0  0  0  0  0  0
   25.4521   -5.2265    0.0000 H   0  0  0  0  0  0  0  0  0  0  0  0
   24.6551   -5.2265    0.0000 H   0  0  0  0  0  0  0  0  0  0  0  0
    9.8637    3.7735    0.0000 H   0  0  0  0  0  0  0  0  0  0  0  0
    9.0666    3.7735    0.0000 H   0  0  0  0  0  0  0  0  0  0  0  0
   22.7846   -6.0115    0.0000 H   0  0  0  0  0  0  0  0  0  0  0  0
   25.5211   -6.6764    0.0000 H   0  0  0  0  0  0  0  0  0  0  0  0
   26.3182   -6.6764    0.0000 H   0  0  0  0  0  0  0  0  0  0  0  0
   11.1972    3.9185    0.0000 H   0  0  0  0  0  0  0  0  0  0  0  0
   18.4354   -0.2384    0.0000 H   0  0  0  0  0  0  0  0  0  0  0  0
   18.6623    0.6085    0.0000 H   0  0  0  0  0  0  0  0  0  0  0  0
   17.8154    0.8355    0.0000 H   0  0  0  0  0  0  0  0  0  0  0  0
   18.3714   -4.2015    0.0000 H   0  0  0  0  0  0  0  0  0  0  0  0
   18.9914   -4.8215    0.0000 H   0  0  0  0  0  0  0  0  0  0  0  0
   19.6114   -4.2015    0.0000 H   0  0  0  0  0  0  0  0  0  0  0  0
   13.1753   -1.2015    0.0000 H   0  0  0  0  0  0  0  0  0  0  0  0
   13.7953   -1.8215    0.0000 H   0  0  0  0  0  0  0  0  0  0  0  0
   14.4153   -1.2015    0.0000 H   0  0  0  0  0  0  0  0  0  0  0  0
   23.6315   -3.2384    0.0000 H   0  0  0  0  0  0  0  0  0  0  0  0
   23.8585   -2.3915    0.0000 H   0  0  0  0  0  0  0  0  0  0  0  0
   23.0115   -2.1646    0.0000 H   0  0  0  0  0  0  0  0  0  0  0  0
   26.7856   -5.0815    0.0000 H   0  0  0  0  0  0  0  0  0  0  0  0
    8.3437    4.1909    0.0000 H   0  0  0  0  0  0  0  0  0  0  0  0
    7.9451    4.8811    0.0000 H   0  0  0  0  0  0  0  0  0  0  0  0
   13.2392    2.7616    0.0000 H   0  0  0  0  0  0  0  0  0  0  0  0
   13.4662    3.6085    0.0000 H   0  0  0  0  0  0  0  0  0  0  0  0
   12.6192    3.8354    0.0000 H   0  0  0  0  0  0  0  0  0  0  0  0
    7.1962    2.9885    0.0000 H   0  0  0  0  0  0  0  0  0  0  0  0
   28.9162   -5.2265    0.0000 H   0  0  0  0  0  0  0  0  0  0  0  0
   28.1192   -5.2265    0.0000 H   0  0  0  0  0  0  0  0  0  0  0  0
   23.5676   -7.2015    0.0000 H   0  0  0  0  0  0  0  0  0  0  0  0
   24.1876   -7.8215    0.0000 H   0  0  0  0  0  0  0  0  0  0  0  0
   24.8076   -7.2015    0.0000 H   0  0  0  0  0  0  0  0  0  0  0  0
    6.2565    4.9062    0.0000 H   0  0  0  0  0  0  0  0  0  0  0  0
    6.6550    4.2159    0.0000 H   0  0  0  0  0  0  0  0  0  0  0  0
    7.9791    1.7985    0.0000 H   0  0  0  0  0  0  0  0  0  0  0  0
    8.5991    1.1785    0.0000 H   0  0  0  0  0  0  0  0  0  0  0  0
    9.2191    1.7985    0.0000 H   0  0  0  0  0  0  0  0  0  0  0  0
   28.9852   -6.6764    0.0000 H   0  0  0  0  0  0  0  0  0  0  0  0
   29.7823   -6.6764    0.0000 H   0  0  0  0  0  0  0  0  0  0  0  0
   27.0317   -7.2015    0.0000 H   0  0  0  0  0  0  0  0  0  0  0  0
   27.6517   -7.8215    0.0000 H   0  0  0  0  0  0  0  0  0  0  0  0
   28.2717   -7.2015    0.0000 H   0  0  0  0  0  0  0  0  0  0  0  0
   30.2497   -5.0815    0.0000 H   0  0  0  0  0  0  0  0  0  0  0  0
    8.0431    5.7616    0.0000 H   0  0  0  0  0  0  0  0  0  0  0  0
    8.2700    6.6085    0.0000 H   0  0  0  0  0  0  0  0  0  0  0  0
    7.4231    6.8355    0.0000 H   0  0  0  0  0  0  0  0  0  0  0  0
    6.0010    6.9185    0.0000 H   0  0  0  0  0  0  0  0  0  0  0  0
    4.7365    5.3236    0.0000 H   0  0  0  0  0  0  0  0  0  0  0  0
    5.5335    5.3236    0.0000 H   0  0  0  0  0  0  0  0  0  0  0  0
   32.2918   -6.2384    0.0000 H   0  0  0  0  0  0  0  0  0  0  0  0
   30.4958   -7.2015    0.0000 H   0  0  0  0  0  0  0  0  0  0  0  0
   31.1158   -7.8215    0.0000 H   0  0  0  0  0  0  0  0  0  0  0  0
   31.7358   -7.2015    0.0000 H   0  0  0  0  0  0  0  0  0  0  0  0
   32.5187   -5.3915    0.0000 H   0  0  0  0  0  0  0  0  0  0  0  0
   31.6718   -5.1645    0.0000 H   0  0  0  0  0  0  0  0  0  0  0  0
    2.0000    5.6085    0.0000 H   0  0  0  0  0  0  0  0  0  0  0  0
    3.2130    7.2015    0.0000 H   0  0  0  0  0  0  0  0  0  0  0  0
  1  2  1  0  0  0  0
  1  3  1  0  0  0  0
  1  4  1  0  0  0  0
  1  5  2  0  0  0  0
  2 53  1  0  0  0  0
  3137  1  0  0  0  0
  4138  1  0  0  0  0
  6  9  1  0  0  0  0
  6 14  1  0  0  0  0
  6 56  1  0  0  0  0
  6 57  1  0  0  0  0
  7 10  1  0  0  0  0
  7 17  1  0  0  0  0
  7 58  1  0  0  0  0
  7 59  1  0  0  0  0
  8 11  1  0  0  0  0
  8 16  1  0  0  0  0
  8 60  1  0  0  0  0
  8 61  1  0  0  0  0
  9 21  1  0  0  0  0
  9 62  1  0  0  0  0
  9 63  1  0  0  0  0
 10 22  1  0  0  0  0
 10 64  1  0  0  0  0
 10 65  1  0  0  0  0
 11 23  1  0  0  0  0
 11 66  1  0  0  0  0
 11 67  1  0  0  0  0
 12 18  1  0  0  0  0
 12 19  1  0  0  0  0
 12 68  1  0  0  0  0
 12 69  1  0  0  0  0
 13 15  1  0  0  0  0
 13 20  1  0  0  0  0
 13 70  1  0  0  0  0
 13 71  1  0  0  0  0
 14 22  2  0  0  0  0
 14 33  1  0  0  0  0
 15 24  1  0  0  0  0
 15 72  1  0  0  0  0
 15 73  1  0  0  0  0
 16 21  2  0  0  0  0
 16 34  1  0  0  0  0
 17 24  2  0  0  0  0
 17 35  1  0  0  0  0
 18 29  1  0  0  0  0
 18 74  1  0  0  0  0
 18 75  1  0  0  0  0
 19 23  2  0  0  0  0
 19 36  1  0  0  0  0
 20 31  2  0  0  0  0
 20 40  1  0  0  0  0
 21 76  1  0  0  0  0
 22 77  1  0  0  0  0
 23 78  1  0  0  0  0
 24 79  1  0  0  0  0
 25 27  1  0  0  0  0
 25 31  1  0  0  0  0
 25 80  1  0  0  0  0
 25 81  1  0  0  0  0
 26 28  1  0  0  0  0
 26 30  1  0  0  0  0
 26 82  1  0  0  0  0
 26 83  1  0  0  0  0
 27 32  1  0  0  0  0
 27 84  1  0  0  0  0
 27 85  1  0  0  0  0
 28 29  2  0  0  0  0
 28 43  1  0  0  0  0
 29 86  1  0  0  0  0
 30 37  1  0  0  0  0
 30 87  1  0  0  0  0
 30 88  1  0  0  0  0
 31 89  1  0  0  0  0
 32 41  2  0  0  0  0
 32 45  1  0  0  0  0
 33 90  1  0  0  0  0
 33 91  1  0  0  0  0
 33 92  1  0  0  0  0
 34 93  1  0  0  0  0
 34 94  1  0  0  0  0
 34 95  1  0  0  0  0
 35 96  1  0  0  0  0
 35 97  1  0  0  0  0
 35 98  1  0  0  0  0
 36 99  1  0  0  0  0
 36100  1  0  0  0  0
 36101  1  0  0  0  0
 37 38  2  0  0  0  0
 37102  1  0  0  0  0
 38 42  1  0  0  0  0
 38 48  1  0  0  0  0
 39 41  1  0  0  0  0
 39 44  1  0  0  0  0
 39103  1  0  0  0  0
 39104  1  0  0  0  0
 40105  1  0  0  0  0
 40106  1  0  0  0  0
 40107  1  0  0  0  0
 41108  1  0  0  0  0
 42 46  1  0  0  0  0
 42109  1  0  0  0  0
 42110  1  0  0  0  0
 43111  1  0  0  0  0
 43112  1  0  0  0  0
 43113  1  0  0  0  0
 44 47  1  0  0  0  0
 44114  1  0  0  0  0
 44115  1  0  0  0  0
 45116  1  0  0  0  0
 45117  1  0  0  0  0
 45118  1  0  0  0  0
 46 49  1  0  0  0  0
 46119  1  0  0  0  0
 46120  1  0  0  0  0
 47 50  1  0  0  0  0
 47 51  2  0  0  0  0
 48121  1  0  0  0  0
 48122  1  0  0  0  0
 48123  1  0  0  0  0
 49 52  2  0  0  0  0
 49124  1  0  0  0  0
 50125  1  0  0  0  0
 50126  1  0  0  0  0
 50127  1  0  0  0  0
 51 53  1  0  0  0  0
 51128  1  0  0  0  0
 52 54  1  0  0  0  0
 52 55  1  0  0  0  0
 53129  1  0  0  0  0
 53130  1  0  0  0  0
 54131  1  0  0  0  0
 54135  1  0  0  0  0
 54136  1  0  0  0  0
 55132  1  0  0  0  0
 55133  1  0  0  0  0
 55134  1  0  0  0  0
M  END
> <PUBCHEM_COMPOUND_CID>
45479680

> <PUBCHEM_COMPOUND_CANONICALIZED>
1

> <PUBCHEM_CACTVS_COMPLEXITY>
1440

> <PUBCHEM_CACTVS_HBOND_ACCEPTOR>
4

> <PUBCHEM_CACTVS_HBOND_DONOR>
2

> <PUBCHEM_CACTVS_ROTATABLE_BOND>
30

> <PUBCHEM_CACTVS_SUBSKEYS>
AAADcfB8OAIAAAAAAAAAAAAAAAAAAAAAAAAAAAAAAAAAAAAAAAAAGgAACCAADACggAICAAAAARCAQiBCAIAAAAAgAAAACAAAAAgABAIAAQAAEAAAgAAIAAIAAAAAAAAAAAAAAAAAAAAAAAAAAAAAAAAAAA==

> <PUBCHEM_IUPAC_OPENEYE_NAME>
[(2Z,6Z,10Z,14Z,18Z,22Z,26Z,30Z,34E)-3,7,11,15,19,23,27,31,35,39-decamethyltetraconta-2,6,10,14,18,22,26,30,34,38-decaenyl] dihydrogen phosphate

> <PUBCHEM_IUPAC_CAS_NAME>
[(2Z,6Z,10Z,14Z,18Z,22Z,26Z,30Z,34E)-3,7,11,15,19,23,27,31,35,39-decamethyltetraconta-2,6,10,14,18,22,26,30,34,38-decaenyl] dihydrogen phosphate

> <PUBCHEM_IUPAC_NAME>
[(2Z,6Z,10Z,14Z,18Z,22Z,26Z,30Z,34E)-3,7,11,15,19,23,27,31,35,39-decamethyltetraconta-2,6,10,14,18,22,26,30,34,38-decaenyl] dihydrogen phosphate

> <PUBCHEM_IUPAC_SYSTEMATIC_NAME>
[(2Z,6Z,10Z,14Z,18Z,22Z,26Z,30Z,34E)-3,7,11,15,19,23,27,31,35,39-decamethyltetraconta-2,6,10,14,18,22,26,30,34,38-decaenyl] dihydrogen phosphate

> <PUBCHEM_IUPAC_TRADITIONAL_NAME>
[(2Z,6Z,10Z,14Z,18Z,22Z,26Z,30Z,34E)-3,7,11,15,19,23,27,31,35,39-decamethyltetraconta-2,6,10,14,18,22,26,30,34,38-decaenyl] dihydrogen phosphate

> <PUBCHEM_IUPAC_INCHI>
InChI=1S/C50H83O4P/c1-41(2)21-12-22-42(3)23-13-24-43(4)25-14-26-44(5)27-15-28-45(6)29-16-30-46(7)31-17-32-47(8)33-18-34-48(9)35-19-36-49(10)37-20-38-50(11)39-40-54-55(51,52)53/h21,23,25,27,29,31,33,35,37,39H,12-20,22,24,26,28,30,32,34,36,38,40H2,1-11H3,(H2,51,52,53)/b42-23+,43-25-,44-27-,45-29-,46-31-,47-33-,48-35-,49-37-,50-39-

> <PUBCHEM_IUPAC_INCHIKEY>
XBEJBEIXLWRYBT-DJNGBRKISA-N

> <PUBCHEM_XLOGP3_AA>
16.7

> <PUBCHEM_EXACT_MASS>
778.602898

> <PUBCHEM_MOLECULAR_FORMULA>
C50H83O4P

> <PUBCHEM_MOLECULAR_WEIGHT>
779.165382

> <PUBCHEM_OPENEYE_CAN_SMILES>
CC(=CCCC(=CCCC(=CCCC(=CCCC(=CCCC(=CCCC(=CCCC(=CCCC(=CCCC(=CCOP(=O)(O)O)C)C)C)C)C)C)C)C)C)C

> <PUBCHEM_OPENEYE_ISO_SMILES>
CC(=CCC/C(=C/CC/C(=C\CC/C(=C\CC/C(=C\CC/C(=C\CC/C(=C\CC/C(=C\CC/C(=C\CC/C(=C\COP(=O)(O)O)/C)/C)/C)/C)/C)/C)/C)/C)/C)C

> <PUBCHEM_CACTVS_TPSA>
66.8

> <PUBCHEM_MONOISOTOPIC_WEIGHT>
778.602898

> <PUBCHEM_TOTAL_CHARGE>
0

> <PUBCHEM_HEAVY_ATOM_COUNT>
55

> <PUBCHEM_ATOM_DEF_STEREO_COUNT>
0

> <PUBCHEM_ATOM_UDEF_STEREO_COUNT>
0

> <PUBCHEM_BOND_DEF_STEREO_COUNT>
9

> <PUBCHEM_BOND_UDEF_STEREO_COUNT>
0

> <PUBCHEM_ISOTOPIC_ATOM_COUNT>
0

> <PUBCHEM_COMPONENT_COUNT>
1

> <PUBCHEM_CACTVS_TAUTO_COUNT>
1

> <PUBCHEM_COORDINATE_TYPE>
1
5
255

$$$$

