4625
  -OEChem-06261200152D

 26 28  0     0  0  0  0  0  0999 V2000
    6.2619   -0.7401    0.0000 O   0  0  0  0  0  0  0  0  0  0  0  0
    4.6783   -1.5449    0.0000 N   0  0  0  0  0  0  0  0  0  0  0  0
    6.7094    0.5509    0.0000 N   0  0  0  0  0  0  0  0  0  0  0  0
    3.7320   -0.2401    0.0000 C   0  0  0  0  0  0  0  0  0  0  0  0
    4.6783    0.0646    0.0000 C   0  0  0  0  0  0  0  0  0  0  0  0
    3.7320   -1.2401    0.0000 C   0  0  0  0  0  0  0  0  0  0  0  0
    5.2619   -0.7401    0.0000 C   0  0  0  0  0  0  0  0  0  0  0  0
    4.9889    1.0151    0.0000 C   0  0  0  0  0  0  0  0  0  0  0  0
    2.8660    0.2599    0.0000 C   0  0  0  0  0  0  0  0  0  0  0  0
    5.9674    1.2213    0.0000 C   0  0  0  0  0  0  0  0  0  0  0  0
    2.8660   -1.7401    0.0000 C   0  0  0  0  0  0  0  0  0  0  0  0
    2.0000   -0.2401    0.0000 C   0  0  0  0  0  0  0  0  0  0  0  0
    2.0000   -1.2401    0.0000 C   0  0  0  0  0  0  0  0  0  0  0  0
    6.3758    2.1342    0.0000 C   0  0  0  0  0  0  0  0  0  0  0  0
    7.5763    1.0494    0.0000 C   0  0  0  0  0  0  0  0  0  0  0  0
    7.3701    2.0279    0.0000 C   0  0  0  0  0  0  0  0  0  0  0  0
    4.8709   -2.1342    0.0000 H   0  0  0  0  0  0  0  0  0  0  0  0
    4.5749    1.4766    0.0000 H   0  0  0  0  0  0  0  0  0  0  0  0
    2.8660    0.8799    0.0000 H   0  0  0  0  0  0  0  0  0  0  0  0
    2.8660   -2.3601    0.0000 H   0  0  0  0  0  0  0  0  0  0  0  0
    1.4631    0.0699    0.0000 H   0  0  0  0  0  0  0  0  0  0  0  0
    1.4631   -1.5501    0.0000 H   0  0  0  0  0  0  0  0  0  0  0  0
    6.6436   -0.0656    0.0000 H   0  0  0  0  0  0  0  0  0  0  0  0
    6.0667    2.6716    0.0000 H   0  0  0  0  0  0  0  0  0  0  0  0
    8.1423    0.7963    0.0000 H   0  0  0  0  0  0  0  0  0  0  0  0
    7.7858    2.4880    0.0000 H   0  0  0  0  0  0  0  0  0  0  0  0
  1  7  2  0  0  0  0
  2  6  1  0  0  0  0
  2  7  1  0  0  0  0
  2 17  1  0  0  0  0
  3 10  1  0  0  0  0
  3 15  1  0  0  0  0
  3 23  1  0  0  0  0
  4  5  1  0  0  0  0
  4  6  1  0  0  0  0
  4  9  2  0  0  0  0
  5  7  1  0  0  0  0
  5  8  2  3  0  0  0
  6 11  2  0  0  0  0
  8 10  1  0  0  0  0
  8 18  1  0  0  0  0
  9 12  1  0  0  0  0
  9 19  1  0  0  0  0
 10 14  2  0  0  0  0
 11 13  1  0  0  0  0
 11 20  1  0  0  0  0
 12 13  2  0  0  0  0
 12 21  1  0  0  0  0
 13 22  1  0  0  0  0
 14 16  1  0  0  0  0
 14 24  1  0  0  0  0
 15 16  2  0  0  0  0
 15 25  1  0  0  0  0
 16 26  1  0  0  0  0
M  END
> <PUBCHEM_COMPOUND_CID>
4625

> <PUBCHEM_COMPOUND_CANONICALIZED>
1

> <PUBCHEM_CACTVS_COMPLEXITY>
324

> <PUBCHEM_CACTVS_HBOND_ACCEPTOR>
1

> <PUBCHEM_CACTVS_HBOND_DONOR>
2

> <PUBCHEM_CACTVS_ROTATABLE_BOND>
1

> <PUBCHEM_CACTVS_SUBSKEYS>
AAADccBzIAAAAAAAAAAAAAAAAAAAAWLAAAAwAAAAAAAAAFgBwAAAHgAQAAAADAjBngQ8wJLJkACoAzV3VACCgCAxAiAI2aE4ZNgIIPLAlZGEIAhglADIyYcciICOAAAAAAACAAAAAAAAAAQAAAAAAAAAAA==

> <PUBCHEM_IUPAC_OPENEYE_NAME>
3-(1H-pyrrol-2-ylmethylene)indolin-2-one

> <PUBCHEM_IUPAC_CAS_NAME>
3-(1H-pyrrol-2-ylmethylidene)-1H-indol-2-one

> <PUBCHEM_IUPAC_NAME>
3-(1H-pyrrol-2-ylmethylidene)-1H-indol-2-one

> <PUBCHEM_IUPAC_SYSTEMATIC_NAME>
3-(1H-pyrrol-2-ylmethylidene)-1H-indol-2-one

> <PUBCHEM_IUPAC_TRADITIONAL_NAME>
3-(1H-pyrrol-2-ylmethylene)oxindole

> <PUBCHEM_IUPAC_INCHI>
InChI=1S/C13H10N2O/c16-13-11(8-9-4-3-7-14-9)10-5-1-2-6-12(10)15-13/h1-8,14H,(H,15,16)

> <PUBCHEM_IUPAC_INCHIKEY>
SEZFNTZQMWJIAI-UHFFFAOYSA-N

> <PUBCHEM_XLOGP3_AA>
1.7

> <PUBCHEM_EXACT_MASS>
210.079313

> <PUBCHEM_MOLECULAR_FORMULA>
C13H10N2O

> <PUBCHEM_MOLECULAR_WEIGHT>
210.2313

> <PUBCHEM_OPENEYE_CAN_SMILES>
C1=CC=C2C(=C1)C(=CC3=CC=CN3)C(=O)N2

> <PUBCHEM_OPENEYE_ISO_SMILES>
C1=CC=C2C(=C1)C(=CC3=CC=CN3)C(=O)N2

> <PUBCHEM_CACTVS_TPSA>
44.9

> <PUBCHEM_MONOISOTOPIC_WEIGHT>
210.079313

> <PUBCHEM_TOTAL_CHARGE>
0

> <PUBCHEM_HEAVY_ATOM_COUNT>
16

> <PUBCHEM_ATOM_DEF_STEREO_COUNT>
0

> <PUBCHEM_ATOM_UDEF_STEREO_COUNT>
0

> <PUBCHEM_BOND_DEF_STEREO_COUNT>
0

> <PUBCHEM_BOND_UDEF_STEREO_COUNT>
1

> <PUBCHEM_ISOTOPIC_ATOM_COUNT>
0

> <PUBCHEM_COMPONENT_COUNT>
1

> <PUBCHEM_CACTVS_TAUTO_COUNT>
7

> <PUBCHEM_COORDINATE_TYPE>
1
5
255

> <PUBCHEM_BONDANNOTATIONS>
10  14  8
11  13  8
12  13  8
14  16  8
15  16  8
3  10  8
3  15  8
4  6  8
4  9  8
5  8  1
6  11  8
9  12  8

$$$$

