   Color/Form

     * Plates or leaflets from ethanol
     * WHITE TO SLIGHTLY OFF-WHITE LUMPS OR FLAKES
     * Colorless, transparent, needle-like crystals

   from [1]HSDB

   Odor

     * Typical amine odor
     * AMMONIACAL ODOR

   from [2]HSDB

   Taste
        Salty taste
   from [3]HSDB

   Boiling Point
        146 deg C
   from [4]HSDB

   Melting Point
        106 deg C
   from [5]HSDB

   Critical Temperature and Pressure
        Critical temp = 638 deg K; Critical pressure = 5.53X10+6 Pa
   from [6]HSDB

   Density/Specific Gravity
        1.1 g/cu cm
   from [7]HSDB

   Dissociation Constants
        pKa1 = 9.73 (first nitrogen); pKa2 = 5.33 (second nitrogen)
   from [8]HSDB

   Heat of Combustion
        -2.7380x10+9 J/kmol
   from [9]HSDB

   Heat of Vaporization
        47.3 J/g
   from [10]HSDB

   Octanol/Water Partition Coefficient
        log Kow = -1.50
   from [11]HSDB

   pH
        pH = 10.8-11.8 (10% aqueous solution)
   from [12]HSDB

   Solubilities

     * Freely soluble in glycerol, glycols; one gram dissolves in 2 ml of
       95% alcohol. Insoluble in ether.
     * Very soluble in chloroform.
     * Readily soluble in methanol, but only slightly soluble in benzene
       and heptane.
     * Freely soluble in water.

   from [13]HSDB

   Spectral Properties

     * Index of refraction = 1.446 at 113 deg C
     * MAX ABSORPTION (GAS): 196 NM (LOG E= 3.7)
     * IR: 1500 (Sadtler Research Laboratories Prism Collection)
     * H-1 NMR: 9601 (Sadtler Research Laboratories Spectral Collection)
     * MASS: 19432 (NIST/EPA/MSDC Mass Spectral Database, 1990 Version)

   from [14]HSDB

   Vapor Density
        3.0 (air = 1)
   from [15]HSDB

   Vapor Pressure
        0.16 mm Hg at 20 deg C
   from [16]HSDB

   Other Chemical/Physical Properties

     * Absorbs water and CO2 from air; forms sol compounds with
       theophylline.
     * Mol wt 194.23. Crystals from water (containing 44.34% anhydrous
       piperazine), mp 44 deg C. bp 125-130 deg C. Freely soluble in
       water; soluble in alcohol (about 1:2). Practically insoluble in
       ether. pH of a 10% aqueous solution 5.0-6.0 /Hexahydrate/
     * Mol wt 194.23. Crystals from water (containing 44.34% anhydrous
       piperazine), mp 44 deg C. bp 125-130 deg C. Freely soluble in
       water; soluble in alcohol (about 1:2). Practically insoluble in
       ether. pH of a 10% aqueous solution 5.0-6.0 /Hexahydrate/
     * Mol wt 194.23. Crystals from water (containing 44.34% anhydrous
       piperazine), mp 44 deg C. bp 125-130 deg C. Freely soluble in
       water; soluble in alcohol (about 1:2). Practically insoluble in
       ether. pH of a 10% aqueous solution 5.0-6.0 /Hexahydrate/
     * Mol wt 184.13. Minute crystals. Very slightly sol in water. pH of
       saturated aq soln 6.5 /Phosphate/
     * Mol wt 184.13. Minute crystals. Very slightly sol in water. pH of
       saturated aq soln 6.5 /Phosphate/
     * Heat of fusion = 298.9 J/g
     * Heat of formation = 2.230X10+7 J/kmol
     * Liquid molar volume = 0.129371 cu m/kmol
     * Vapor pressure = 2.6372X10+4 Pa @ 379.15 deg K
     * Slightly hygroscopic. Cream colored crystalline powder /Piperazine
       hydrochloride/
     * MP: 82-83 deg C /Piperazine hydrochloride monohydrate/
     * Henry's Law constant = 2.2X10-9 atm-cu m/mol at 25 deg C (est)
     * Hydroxyl radical reaction rate constant = 1.7X10-10 cu
       cm/molecule-sec at 25 deg C (est)

   from [17]HSDB

   Computed Properties
   Molecular Weight                  86.1356 [g/mol]
   Molecular Formula                 C[4]H[10]N[2]
   XLogP3                            -1.5
   H-Bond Donor                      2
   H-Bond Acceptor                   2
   Rotatable Bond Count              0
   Exact Mass                        86.084398
   MonoIsotopic Mass                 86.084398
   Topological Polar Surface Area    24.1
   Heavy Atom Count                  6
   Formal Charge                     0
   Complexity                        26.5
   Isotope Atom Count                0
   Defined Atom Stereocenter Count   0
   Undefined Atom Stereocenter Count 0
   Defined Bond Stereocenter Count   0
   Undefined Bond Stereocenter Count 0
   Covalently-Bonded Unit Count      1
   Feature 3D Donor Count            2
   Feature 3D Cation Count           2
   Feature 3D Ring Count             1
   Effective Rotor Count             1.2
   Conformer Sampling RMSD           0.4
   CID Conformer Count               [18]1

References

   1. http://toxnet.nlm.nih.gov/cgi-bin/sis/search/r?dbs+hsdb:@term+@rn+@rel+110-85-0
   2. http://toxnet.nlm.nih.gov/cgi-bin/sis/search/r?dbs+hsdb:@term+@rn+@rel+110-85-0
   3. http://toxnet.nlm.nih.gov/cgi-bin/sis/search/r?dbs+hsdb:@term+@rn+@rel+110-85-0
   4. http://toxnet.nlm.nih.gov/cgi-bin/sis/search/r?dbs+hsdb:@term+@rn+@rel+110-85-0
   5. http://toxnet.nlm.nih.gov/cgi-bin/sis/search/r?dbs+hsdb:@term+@rn+@rel+110-85-0
   6. http://toxnet.nlm.nih.gov/cgi-bin/sis/search/r?dbs+hsdb:@term+@rn+@rel+110-85-0
   7. http://toxnet.nlm.nih.gov/cgi-bin/sis/search/r?dbs+hsdb:@term+@rn+@rel+110-85-0
   8. http://toxnet.nlm.nih.gov/cgi-bin/sis/search/r?dbs+hsdb:@term+@rn+@rel+110-85-0
   9. http://toxnet.nlm.nih.gov/cgi-bin/sis/search/r?dbs+hsdb:@term+@rn+@rel+110-85-0
  10. http://toxnet.nlm.nih.gov/cgi-bin/sis/search/r?dbs+hsdb:@term+@rn+@rel+110-85-0
  11. http://toxnet.nlm.nih.gov/cgi-bin/sis/search/r?dbs+hsdb:@term+@rn+@rel+110-85-0
  12. http://toxnet.nlm.nih.gov/cgi-bin/sis/search/r?dbs+hsdb:@term+@rn+@rel+110-85-0
  13. http://toxnet.nlm.nih.gov/cgi-bin/sis/search/r?dbs+hsdb:@term+@rn+@rel+110-85-0
  14. http://toxnet.nlm.nih.gov/cgi-bin/sis/search/r?dbs+hsdb:@term+@rn+@rel+110-85-0
  15. http://toxnet.nlm.nih.gov/cgi-bin/sis/search/r?dbs+hsdb:@term+@rn+@rel+110-85-0
  16. http://toxnet.nlm.nih.gov/cgi-bin/sis/search/r?dbs+hsdb:@term+@rn+@rel+110-85-0
  17. http://toxnet.nlm.nih.gov/cgi-bin/sis/search/r?dbs+hsdb:@term+@rn+@rel+110-85-0
  18. http://pubchem.ncbi.nlm.nih.gov/vw3d/vw3d.cgi?cid=4837
