443522
  -OEChem-07051213022D

 28 28  0     1  0  0  0  0  0999 V2000
    4.2320    2.1830    0.0000 O   0  0  0  0  0  0  0  0  0  0  0  0
    2.0000    1.3170    0.0000 O   0  0  0  0  0  0  0  0  0  0  0  0
    3.7320   -0.6830    0.0000 C   0  0  2  0  0  0  0  0  0  0  0  0
    3.7320    1.3170    0.0000 C   0  0  1  0  0  0  0  0  0  0  0  0
    4.5981   -0.1830    0.0000 C   0  0  0  0  0  0  0  0  0  0  0  0
    4.5981    0.8170    0.0000 C   0  0  0  0  0  0  0  0  0  0  0  0
    2.8660   -0.1830    0.0000 C   0  0  0  0  0  0  0  0  0  0  0  0
    2.8660    0.8170    0.0000 C   0  0  0  0  0  0  0  0  0  0  0  0
    3.7320   -1.6830    0.0000 C   0  0  0  0  0  0  0  0  0  0  0  0
    3.2320    2.1830    0.0000 C   0  0  0  0  0  0  0  0  0  0  0  0
    4.5981   -2.1830    0.0000 C   0  0  0  0  0  0  0  0  0  0  0  0
    2.8660   -2.1830    0.0000 C   0  0  0  0  0  0  0  0  0  0  0  0
    4.2690   -0.9930    0.0000 H   0  0  0  0  0  0  0  0  0  0  0  0
    4.8101   -0.7656    0.0000 H   0  0  0  0  0  0  0  0  0  0  0  0
    5.2087   -0.0754    0.0000 H   0  0  0  0  0  0  0  0  0  0  0  0
    5.2087    0.7093    0.0000 H   0  0  0  0  0  0  0  0  0  0  0  0
    4.8101    1.3996    0.0000 H   0  0  0  0  0  0  0  0  0  0  0  0
    2.2554   -0.0754    0.0000 H   0  0  0  0  0  0  0  0  0  0  0  0
    2.6540   -0.7656    0.0000 H   0  0  0  0  0  0  0  0  0  0  0  0
    3.7690    2.4930    0.0000 H   0  0  0  0  0  0  0  0  0  0  0  0
    2.9220    2.7200    0.0000 H   0  0  0  0  0  0  0  0  0  0  0  0
    2.6951    1.8730    0.0000 H   0  0  0  0  0  0  0  0  0  0  0  0
    4.8520    2.1830    0.0000 H   0  0  0  0  0  0  0  0  0  0  0  0
    4.2881   -2.7200    0.0000 H   0  0  0  0  0  0  0  0  0  0  0  0
    5.1350   -2.4930    0.0000 H   0  0  0  0  0  0  0  0  0  0  0  0
    4.9081   -1.6461    0.0000 H   0  0  0  0  0  0  0  0  0  0  0  0
    2.3291   -1.8730    0.0000 H   0  0  0  0  0  0  0  0  0  0  0  0
    2.8660   -2.8030    0.0000 H   0  0  0  0  0  0  0  0  0  0  0  0
  4  1  1  1  0  0  0
  1 23  1  0  0  0  0
  2  8  2  0  0  0  0
  3  5  1  0  0  0  0
  3  7  1  0  0  0  0
  3  9  1  1  0  0  0
  3 13  1  0  0  0  0
  4  6  1  0  0  0  0
  4  8  1  0  0  0  0
  4 10  1  0  0  0  0
  5  6  1  0  0  0  0
  5 14  1  0  0  0  0
  5 15  1  0  0  0  0
  6 16  1  0  0  0  0
  6 17  1  0  0  0  0
  7  8  1  0  0  0  0
  7 18  1  0  0  0  0
  7 19  1  0  0  0  0
  9 11  1  0  0  0  0
  9 12  2  0  0  0  0
 10 20  1  0  0  0  0
 10 21  1  0  0  0  0
 10 22  1  0  0  0  0
 11 24  1  0  0  0  0
 11 25  1  0  0  0  0
 11 26  1  0  0  0  0
 12 27  1  0  0  0  0
 12 28  1  0  0  0  0
M  END
> <PUBCHEM_COMPOUND_CID>
443522

> <PUBCHEM_COMPOUND_CANONICALIZED>
1

> <PUBCHEM_CACTVS_COMPLEXITY>
220

> <PUBCHEM_CACTVS_HBOND_ACCEPTOR>
2

> <PUBCHEM_CACTVS_HBOND_DONOR>
1

> <PUBCHEM_CACTVS_ROTATABLE_BOND>
1

> <PUBCHEM_CACTVS_SUBSKEYS>
AAADceBwMAAAAAAAAAAAAAAAAAAAAAAAAAAwAAAAAAAAAAAAAAAAGgAACAAADUSAgAACAAAAAgCIAoBSAAIAAAAgAAAAAAFAAAgAABIAAQAAQAAEgAAAAAGIyMCOAAAAAAAAAADAAAAAAAAAAAAAAAAAAA==

> <PUBCHEM_IUPAC_OPENEYE_NAME>
(2S,5R)-2-hydroxy-5-isopropenyl-2-methyl-cyclohexanone

> <PUBCHEM_IUPAC_CAS_NAME>
(2S,5R)-2-hydroxy-2-methyl-5-(1-methylethenyl)-1-cyclohexanone

> <PUBCHEM_IUPAC_NAME>
(2S,5R)-2-hydroxy-2-methyl-5-prop-1-en-2-ylcyclohexan-1-one

> <PUBCHEM_IUPAC_SYSTEMATIC_NAME>
(2S,5R)-2-methyl-2-oxidanyl-5-prop-1-en-2-yl-cyclohexan-1-one

> <PUBCHEM_IUPAC_TRADITIONAL_NAME>
(2S,5R)-2-hydroxy-5-isopropenyl-2-methyl-cyclohexanone

> <PUBCHEM_IUPAC_INCHI>
InChI=1S/C10H16O2/c1-7(2)8-4-5-10(3,12)9(11)6-8/h8,12H,1,4-6H2,2-3H3/t8-,10+/m1/s1

> <PUBCHEM_IUPAC_INCHIKEY>
JEQLRDRDFLXSHY-SCZZXKLOSA-N

> <PUBCHEM_XLOGP3_AA>
1.6

> <PUBCHEM_EXACT_MASS>
168.11503

> <PUBCHEM_MOLECULAR_FORMULA>
C10H16O2

> <PUBCHEM_MOLECULAR_WEIGHT>
168.23284

> <PUBCHEM_OPENEYE_CAN_SMILES>
CC(=C)C1CCC(C(=O)C1)(C)O

> <PUBCHEM_OPENEYE_ISO_SMILES>
CC(=C)[C@@H]1CC[C@](C(=O)C1)(C)O

> <PUBCHEM_CACTVS_TPSA>
37.3

> <PUBCHEM_MONOISOTOPIC_WEIGHT>
168.11503

> <PUBCHEM_TOTAL_CHARGE>
0

> <PUBCHEM_HEAVY_ATOM_COUNT>
12

> <PUBCHEM_ATOM_DEF_STEREO_COUNT>
2

> <PUBCHEM_ATOM_UDEF_STEREO_COUNT>
0

> <PUBCHEM_BOND_DEF_STEREO_COUNT>
0

> <PUBCHEM_BOND_UDEF_STEREO_COUNT>
0

> <PUBCHEM_ISOTOPIC_ATOM_COUNT>
0

> <PUBCHEM_COMPONENT_COUNT>
1

> <PUBCHEM_CACTVS_TAUTO_COUNT>
2

> <PUBCHEM_COORDINATE_TYPE>
1
5
255

> <PUBCHEM_BONDANNOTATIONS>
4  1  5
3  9  5

$$$$

