442505
  -OEChem-07051212582D

 32 33  0     1  0  0  0  0  0999 V2000
    2.0000   -1.1550    0.0000 O   0  0  0  0  0  0  0  0  0  0  0  0
    4.5981    0.3450    0.0000 N   0  0  0  0  0  0  0  0  0  0  0  0
    2.8660    0.3450    0.0000 N   0  0  0  0  0  0  0  0  0  0  0  0
    3.7320    1.8450    0.0000 N   0  0  0  0  0  0  0  0  0  0  0  0
    4.5981   -0.6550    0.0000 C   0  0  1  0  0  0  0  0  0  0  0  0
    5.5443    0.6497    0.0000 C   0  0  3  0  0  0  0  0  0  0  0  0
    5.5443   -0.9597    0.0000 C   0  0  0  0  0  0  0  0  0  0  0  0
    6.1279   -0.1550    0.0000 C   0  0  0  0  0  0  0  0  0  0  0  0
    3.7320   -1.1550    0.0000 C   0  0  1  0  0  0  0  0  0  0  0  0
    5.2369    1.6013    0.0000 C   0  0  0  0  0  0  0  0  0  0  0  0
    3.7320    0.8450    0.0000 C   0  0  0  0  0  0  0  0  0  0  0  0
    6.3543    1.2361    0.0000 C   0  0  0  0  0  0  0  0  0  0  0  0
    2.8660   -0.6550    0.0000 C   0  0  0  0  0  0  0  0  0  0  0  0
    3.7320   -2.1550    0.0000 C   0  0  0  0  0  0  0  0  0  0  0  0
    7.2672    0.8278    0.0000 C   0  0  0  0  0  0  0  0  0  0  0  0
    4.6880   -1.5002    0.0000 H   0  0  0  0  0  0  0  0  0  0  0  0
    5.2933   -1.5266    0.0000 H   0  0  0  0  0  0  0  0  0  0  0  0
    6.0817   -1.2690    0.0000 H   0  0  0  0  0  0  0  0  0  0  0  0
    6.5888   -0.5697    0.0000 H   0  0  0  0  0  0  0  0  0  0  0  0
    6.5888    0.2597    0.0000 H   0  0  0  0  0  0  0  0  0  0  0  0
    4.2690   -1.4650    0.0000 H   0  0  0  0  0  0  0  0  0  0  0  0
    5.8269    1.7919    0.0000 H   0  0  0  0  0  0  0  0  0  0  0  0
    5.0464    2.1913    0.0000 H   0  0  0  0  0  0  0  0  0  0  0  0
    4.6469    1.4108    0.0000 H   0  0  0  0  0  0  0  0  0  0  0  0
    6.2906    1.8528    0.0000 H   0  0  0  0  0  0  0  0  0  0  0  0
    3.1120   -2.1550    0.0000 H   0  0  0  0  0  0  0  0  0  0  0  0
    3.7320   -2.7750    0.0000 H   0  0  0  0  0  0  0  0  0  0  0  0
    4.3520   -2.1550    0.0000 H   0  0  0  0  0  0  0  0  0  0  0  0
    3.1951    2.1550    0.0000 H   0  0  0  0  0  0  0  0  0  0  0  0
    4.2690    2.1550    0.0000 H   0  0  0  0  0  0  0  0  0  0  0  0
    7.3309    0.2111    0.0000 H   0  0  0  0  0  0  0  0  0  0  0  0
    7.7694    1.1914    0.0000 H   0  0  0  0  0  0  0  0  0  0  0  0
  1 13  2  0  0  0  0
  2  5  1  0  0  0  0
  2  6  1  0  0  0  0
  2 11  1  0  0  0  0
  3 11  2  0  0  0  0
  3 13  1  0  0  0  0
  4 11  1  0  0  0  0
  4 29  1  0  0  0  0
  4 30  1  0  0  0  0
  5  7  1  0  0  0  0
  5  9  1  0  0  0  0
  5 16  1  6  0  0  0
  6  8  1  0  0  0  0
  6 10  1  0  0  0  0
  6 12  1  0  0  0  0
  7  8  1  0  0  0  0
  7 17  1  0  0  0  0
  7 18  1  0  0  0  0
  8 19  1  0  0  0  0
  8 20  1  0  0  0  0
  9 13  1  0  0  0  0
  9 14  1  6  0  0  0
  9 21  1  0  0  0  0
 10 22  1  0  0  0  0
 10 23  1  0  0  0  0
 10 24  1  0  0  0  0
 12 15  2  0  0  0  0
 12 25  1  0  0  0  0
 14 26  1  0  0  0  0
 14 27  1  0  0  0  0
 14 28  1  0  0  0  0
 15 31  1  0  0  0  0
 15 32  1  0  0  0  0
M  END
> <PUBCHEM_COMPOUND_CID>
442505

> <PUBCHEM_COMPOUND_CANONICALIZED>
1

> <PUBCHEM_CACTVS_COMPLEXITY>
350

> <PUBCHEM_CACTVS_HBOND_ACCEPTOR>
1

> <PUBCHEM_CACTVS_HBOND_DONOR>
1

> <PUBCHEM_CACTVS_ROTATABLE_BOND>
1

> <PUBCHEM_CACTVS_SUBSKEYS>
AAADceBzIAAAAAAAAAAAAAAAAAAAAWAAAAAgAAAAAAAAAEAAAAAAHgAQAAAADajBgAQDAANAAACoACFSNACAAAEgAAAJAAEIAAiAABoAyAAEAAAAgAKAAAEYiECMAAAAAAAAAAAAAAAAAAAAAAAAAAAAAA==

> <PUBCHEM_IUPAC_OPENEYE_NAME>
(4S,4aS)-1-amino-4,7-dimethyl-7-vinyl-4,4a,5,6-tetrahydropyrrolo[1,2-c]pyrimidin-3-one

> <PUBCHEM_IUPAC_CAS_NAME>
(4S,4aS)-1-amino-7-ethenyl-4,7-dimethyl-4,4a,5,6-tetrahydropyrrolo[1,2-c]pyrimidin-3-one

> <PUBCHEM_IUPAC_NAME>
(4S,4aS)-1-amino-7-ethenyl-4,7-dimethyl-4,4a,5,6-tetrahydropyrrolo[1,2-c]pyrimidin-3-one

> <PUBCHEM_IUPAC_SYSTEMATIC_NAME>
(4S,4aS)-1-azanyl-7-ethenyl-4,7-dimethyl-4,4a,5,6-tetrahydropyrrolo[1,2-c]pyrimidin-3-one

> <PUBCHEM_IUPAC_TRADITIONAL_NAME>
(4S,4aS)-1-amino-4,7-dimethyl-7-vinyl-4,4a,5,6-tetrahydropyrrolo[1,2-c]pyrimidin-3-one

> <PUBCHEM_IUPAC_INCHI>
InChI=1S/C11H17N3O/c1-4-11(3)6-5-8-7(2)9(15)13-10(12)14(8)11/h4,7-8H,1,5-6H2,2-3H3,(H2,12,13,15)/t7-,8-,11?/m0/s1

> <PUBCHEM_IUPAC_INCHIKEY>
JICZMZVYTMAXGX-KHSUWTBESA-N

> <PUBCHEM_XLOGP3_AA>
0.7

> <PUBCHEM_EXACT_MASS>
207.137162

> <PUBCHEM_MOLECULAR_FORMULA>
C11H17N3O

> <PUBCHEM_MOLECULAR_WEIGHT>
207.27218

> <PUBCHEM_OPENEYE_CAN_SMILES>
CC1C2CCC(N2C(=NC1=O)N)(C)C=C

> <PUBCHEM_OPENEYE_ISO_SMILES>
C[C@H]1[C@@H]2CCC(N2C(=NC1=O)N)(C)C=C

> <PUBCHEM_CACTVS_TPSA>
58.7

> <PUBCHEM_MONOISOTOPIC_WEIGHT>
207.137162

> <PUBCHEM_TOTAL_CHARGE>
0

> <PUBCHEM_HEAVY_ATOM_COUNT>
15

> <PUBCHEM_ATOM_DEF_STEREO_COUNT>
2

> <PUBCHEM_ATOM_UDEF_STEREO_COUNT>
1

> <PUBCHEM_BOND_DEF_STEREO_COUNT>
0

> <PUBCHEM_BOND_UDEF_STEREO_COUNT>
0

> <PUBCHEM_ISOTOPIC_ATOM_COUNT>
0

> <PUBCHEM_COMPONENT_COUNT>
1

> <PUBCHEM_CACTVS_TAUTO_COUNT>
5

> <PUBCHEM_COORDINATE_TYPE>
1
5
255

> <PUBCHEM_BONDANNOTATIONS>
5  16  6
6  10  3
9  14  6

$$$$

