   Color/Form
        WHITE CRYSTALLINE SOLID
   from [1]HSDB

   Odor
        Faint amine like odor
   from [2]HSDB

   Melting Point
        154-155 deg C
   from [3]HSDB

   Dissociation Constants
        pKa = 4.68
   from [4]HSDB

   Octanol/Water Partition Coefficient
        log Kow = -1.5 at pH 5,7, and 9 @ 21 deg C
   from [5]HSDB

   pH
        3.8 (5% aq soln)
   from [6]HSDB

   Solubilities

     * 25 g/kg acetone; 50 g/kg methanol; it is insol in simple
       hydrocarbons
     * In water, 1X10+5 mg/L at 25 deg C

   from [7]HSDB

   Spectral Properties

     * Intense mass spectral peaks: 59 m/z (100%), 60 m/z (57%), 43 m/z
       (30%), 45 m/z (28%)
     * IR: 2:398F (Aldrich Library of Infrared Spectra, Aldrich Chemical
       Co, Milwaukee, WI)
     * MASS: 52730 (NIST/EPA/MSDC Mass Spectral database, 1990 version)

   from [8]HSDB

   Vapor Pressure
        2X10-4 mm Hg at 23 deg C
   from [9]HSDB

   Other Chemical/Physical Properties

     * Henry's Law constant= 4.2X10-10 atm-cu m/mole at 25 deg C
       /Estimated/
     * Hydroxyl radical reaction rate constant: 1.2X10-11 cu cm/molec-sec
       at 25 deg C /Estimated/

   from [10]HSDB

   Computed Properties
   Molecular Weight                  160.17108 [g/mol]
   Molecular Formula                 C[6]H[12]N[2]O[3]
   XLogP3-AA                         -3.1
   H-Bond Donor                      2
   H-Bond Acceptor                   4
   Rotatable Bond Count              4
   Tautomer Count                    2
   Exact Mass                        160.084792
   MonoIsotopic Mass                 160.084792
   Topological Polar Surface Area    69.6
   Heavy Atom Count                  11
   Formal Charge                     0
   Complexity                        156
   Isotope Atom Count                0
   Defined Atom Stereocenter Count   0
   Undefined Atom Stereocenter Count 0
   Defined Bond Stereocenter Count   0
   Undefined Bond Stereocenter Count 0
   Covalently-Bonded Unit Count      1
   Feature 3D Acceptor Count         3
   Feature 3D Donor Count            1
   Feature 3D Anion Count            1
   Effective Rotor Count             5
   Conformer Sampling RMSD           0.6
   CID Conformer Count               [11]35

References

   1. http://toxnet.nlm.nih.gov/cgi-bin/sis/search/r?dbs+hsdb:@term+@rn+@rel+1596-84-5
   2. http://toxnet.nlm.nih.gov/cgi-bin/sis/search/r?dbs+hsdb:@term+@rn+@rel+1596-84-5
   3. http://toxnet.nlm.nih.gov/cgi-bin/sis/search/r?dbs+hsdb:@term+@rn+@rel+1596-84-5
   4. http://toxnet.nlm.nih.gov/cgi-bin/sis/search/r?dbs+hsdb:@term+@rn+@rel+1596-84-5
   5. http://toxnet.nlm.nih.gov/cgi-bin/sis/search/r?dbs+hsdb:@term+@rn+@rel+1596-84-5
   6. http://toxnet.nlm.nih.gov/cgi-bin/sis/search/r?dbs+hsdb:@term+@rn+@rel+1596-84-5
   7. http://toxnet.nlm.nih.gov/cgi-bin/sis/search/r?dbs+hsdb:@term+@rn+@rel+1596-84-5
   8. http://toxnet.nlm.nih.gov/cgi-bin/sis/search/r?dbs+hsdb:@term+@rn+@rel+1596-84-5
   9. http://toxnet.nlm.nih.gov/cgi-bin/sis/search/r?dbs+hsdb:@term+@rn+@rel+1596-84-5
  10. http://toxnet.nlm.nih.gov/cgi-bin/sis/search/r?dbs+hsdb:@term+@rn+@rel+1596-84-5
  11. http://pubchem.ncbi.nlm.nih.gov/vw3d/vw3d.cgi?cid=15331
