   Color/Form

     * CRYSTALS FROM ETHANOL
     * WHITE TO OFF-WHITE CRYSTALLINE POWDER

   from [1]HSDB

   Odor

     * ODORLESS
     * VERY SLIGHT AROMATIC ODOR

   from [2]HSDB

   Taste
        SLIGHTLY BITTER TASTE
   from [3]HSDB

   Melting Point
        105 DEG C
   from [4]HSDB

   Dissociation Constants
        PK 4.5 (FROM UV IN WATER), PK 4.89 (TITRATION IN 50% ETHANOL), PK
   5.25 (TITRATION IN 80% 2-METHOXYETHANOL)
   from [5]HSDB

   Octanol/Water Partition Coefficient
        Log Kow= approx 5.0
   from [6]HSDB

   Solubilities

     * SOL IN WATER @ 22.5 DEG C: 0.7 MG/ML (ALSO 2.2 MG/ML)
     * 1 G IN ABOUT 20 ML ALCOHOL; FREELY SOL IN ACETONE & ETHER
     * SOL IN CHLOROFORM & ETHANOL, VERY SOL IN BENZENE; SOL IN ETHYL
       ACETATE

   from [7]HSDB

   Spectral Properties

     * MAX ABSORPTION (ACID METHANOL): 239.5 NM (LOG E= 4.19)
     * MAX ABSORPTION (SODIUM HYDROXIDE): 264 NM
     * INDICES OF REFRACTION: 1.600 (ALPHA), 1.620 (GAMMA)
     * Intense mass spectral peaks: 77 m/z, 183 m/z, 252 m/z, 308 m/z

   from [8]HSDB

   Other Chemical/Physical Properties

     * MP: 140-141 DEG C (SOLIDIFIES & REMELTS @ APPROX 180 DEG C)
       /PIPERAZINE SALT OF PHENYLBUTAZONE/
     * PKA= 4.5
     * CRYSTALS; FREELY SOL IN WATER; PH OF AQUEOUS SOLN ABOUT 8.2
       /PHENYLBUTAZONE SODIUM SALT/

   from [9]HSDB

   Computed Properties
   Molecular Weight                  308.3743 [g/mol]
   Molecular Formula                 C[19]H[20]N[2]O[2]
   XLogP3                            3.2
   H-Bond Donor                      0
   H-Bond Acceptor                   2
   Rotatable Bond Count              5
   Tautomer Count                    2
   Exact Mass                        308.152478
   MonoIsotopic Mass                 308.152478
   Topological Polar Surface Area    40.6
   Heavy Atom Count                  23
   Formal Charge                     0
   Complexity                        389
   Isotope Atom Count                0
   Defined Atom Stereocenter Count   0
   Undefined Atom Stereocenter Count 0
   Defined Bond Stereocenter Count   0
   Undefined Bond Stereocenter Count 0
   Covalently-Bonded Unit Count      1
   Feature 3D Acceptor Count         2
   Feature 3D Anion Count            1
   Feature 3D Hydrophobe Count       1
   Feature 3D Ring Count             3
   Effective Rotor Count             5.6
   Conformer Sampling RMSD           0.8
   CID Conformer Count               [10]18

References

   1. http://toxnet.nlm.nih.gov/cgi-bin/sis/search/r?dbs+hsdb:@term+@rn+@rel+50-33-9
   2. http://toxnet.nlm.nih.gov/cgi-bin/sis/search/r?dbs+hsdb:@term+@rn+@rel+50-33-9
   3. http://toxnet.nlm.nih.gov/cgi-bin/sis/search/r?dbs+hsdb:@term+@rn+@rel+50-33-9
   4. http://toxnet.nlm.nih.gov/cgi-bin/sis/search/r?dbs+hsdb:@term+@rn+@rel+50-33-9
   5. http://toxnet.nlm.nih.gov/cgi-bin/sis/search/r?dbs+hsdb:@term+@rn+@rel+50-33-9
   6. http://toxnet.nlm.nih.gov/cgi-bin/sis/search/r?dbs+hsdb:@term+@rn+@rel+50-33-9
   7. http://toxnet.nlm.nih.gov/cgi-bin/sis/search/r?dbs+hsdb:@term+@rn+@rel+50-33-9
   8. http://toxnet.nlm.nih.gov/cgi-bin/sis/search/r?dbs+hsdb:@term+@rn+@rel+50-33-9
   9. http://toxnet.nlm.nih.gov/cgi-bin/sis/search/r?dbs+hsdb:@term+@rn+@rel+50-33-9
  10. http://pubchem.ncbi.nlm.nih.gov/vw3d/vw3d.cgi?cid=4781
