   Color/Form

     * Clear, colorless liquid
     * Colorless to pale-yellow liquid.

   from [1]HSDB

   Odor

     * 2100 mg/cu m (odor threshold low) 2100 mg/cu m (odor threshold
       high) sweet.
     * Chloroform-like odor.

   from [2]HSDB

   Boiling Point
        68.0 deg C
   from [3]HSDB

   Melting Point
        -87.9 deg C
   from [4]HSDB

   Corrosivity
        Liquid chlorobromomethane will attack some forms of plastics,
   rubber, & coatings.
   from [5]HSDB

   Density/Specific Gravity
        1.9344 g/cu cm @ 20 deg C
   from [6]HSDB

   Heat of Vaporization
        232 J/g (55.4 cal/g) at boiling point
   from [7]HSDB

   Octanol/Water Partition Coefficient
        log Kow= 1.41
   from [8]HSDB

   Solubilities

     * Soluble in ethanol, ethyl ether, and acetone
     * Miscible with carbon tetrachloride, chloroform
     * Miscible with methanol
     * 0.9 part in 100 parts water
     * > 10% in benzene
     * In water, 1.67X10+4 mg/l @ 25 deg C

   from [9]HSDB

   Spectral Properties

     * SADTLER REFERENCE NUMBER: 204 (IR, PRISM)
     * Index of refraction: 1.4838 @ 20 deg C
     * IR: 1308 (Coblentz Society Spectral Collection)
     * NMR: 6661 (Sadtler Research Laboratories Spectral Collection)
     * MASS: 548 (Atlas of Mass Spectral Data, John Wiley & Sons, New
       York)

   from [10]HSDB

   Surface Tension
        33.32 dynes/cm @ 20 deg C
   from [11]HSDB

   Vapor Pressure
        142 mm Hg @ 25 deg C
   from [12]HSDB

   Viscosity
        0.670 mN.s/sq m @ 20 deg C
   from [13]HSDB

   Other Chemical/Physical Properties

     * PER CENT IN SATURATED AIR: 21 @ 25 DEG C; CONVERSION FACTORS: 1
       MG/L= 189 PPM & 1 PPM= 5.3 MG/CU M @ 25 DEG C, 760 TORR
     * DENSITY OF SATURATED AIR: 1.72 (AIR= 1)
     * Dielectric constant: 7.70; dipole moment: 1.66 @ 25 deg C
     * Enthalpy energy of formation: -12.0 kcal/mol; Gibbs energy of
       formation: -9.39 kcal/mol; entropy: 68.67 cal/deg/mol @ 298.15 K

   from [14]HSDB

   Computed Properties
   Molecular Weight                  129.38358 [g/mol]
   Molecular Formula                 CH[2]BrCl
   XLogP3-AA                         1.7
   H-Bond Donor                      0
   H-Bond Acceptor                   0
   Rotatable Bond Count              0
   Exact Mass                        127.90284
   MonoIsotopic Mass                 127.90284
   Topological Polar Surface Area    0
   Heavy Atom Count                  3
   Formal Charge                     0
   Complexity                        4.8
   Isotope Atom Count                0
   Defined Atom Stereocenter Count   0
   Undefined Atom Stereocenter Count 0
   Defined Bond Stereocenter Count   0
   Undefined Bond Stereocenter Count 0
   Covalently-Bonded Unit Count      1
   Feature 3D Hydrophobe Count       1
   Effective Rotor Count             0
   Conformer Sampling RMSD           0.4
   CID Conformer Count               [15]1

References

   1. http://toxnet.nlm.nih.gov/cgi-bin/sis/search/r?dbs+hsdb:@term+@rn+@rel+74-97-5
   2. http://toxnet.nlm.nih.gov/cgi-bin/sis/search/r?dbs+hsdb:@term+@rn+@rel+74-97-5
   3. http://toxnet.nlm.nih.gov/cgi-bin/sis/search/r?dbs+hsdb:@term+@rn+@rel+74-97-5
   4. http://toxnet.nlm.nih.gov/cgi-bin/sis/search/r?dbs+hsdb:@term+@rn+@rel+74-97-5
   5. http://toxnet.nlm.nih.gov/cgi-bin/sis/search/r?dbs+hsdb:@term+@rn+@rel+74-97-5
   6. http://toxnet.nlm.nih.gov/cgi-bin/sis/search/r?dbs+hsdb:@term+@rn+@rel+74-97-5
   7. http://toxnet.nlm.nih.gov/cgi-bin/sis/search/r?dbs+hsdb:@term+@rn+@rel+74-97-5
   8. http://toxnet.nlm.nih.gov/cgi-bin/sis/search/r?dbs+hsdb:@term+@rn+@rel+74-97-5
   9. http://toxnet.nlm.nih.gov/cgi-bin/sis/search/r?dbs+hsdb:@term+@rn+@rel+74-97-5
  10. http://toxnet.nlm.nih.gov/cgi-bin/sis/search/r?dbs+hsdb:@term+@rn+@rel+74-97-5
  11. http://toxnet.nlm.nih.gov/cgi-bin/sis/search/r?dbs+hsdb:@term+@rn+@rel+74-97-5
  12. http://toxnet.nlm.nih.gov/cgi-bin/sis/search/r?dbs+hsdb:@term+@rn+@rel+74-97-5
  13. http://toxnet.nlm.nih.gov/cgi-bin/sis/search/r?dbs+hsdb:@term+@rn+@rel+74-97-5
  14. http://toxnet.nlm.nih.gov/cgi-bin/sis/search/r?dbs+hsdb:@term+@rn+@rel+74-97-5
  15. http://pubchem.ncbi.nlm.nih.gov/vw3d/vw3d.cgi?cid=6333
