5283845
  -OEChem-07051213102D

 69 72  0     1  0  0  0  0  0999 V2000
    7.4173   -3.0436    0.0000 O   0  0  0  0  0  0  0  0  0  0  0  0
    3.8459    0.0449    0.0000 O   0  0  0  0  0  0  0  0  0  0  0  0
    2.0024   -3.0645    0.0000 O   0  0  0  0  0  0  0  0  0  0  0  0
   11.2307    3.5566    0.0000 O   0  0  0  0  0  0  0  0  0  0  0  0
   11.5879    1.8618    0.0000 O   0  0  0  0  0  0  0  0  0  0  0  0
    7.3955   -1.0121    0.0000 C   0  0  1  0  0  0  0  0  0  0  0  0
    6.5294   -1.5121    0.0000 C   0  0  1  0  0  0  0  0  0  0  0  0
    7.3955   -0.0121    0.0000 C   0  0  1  0  0  0  0  0  0  0  0  0
    5.6634   -1.0121    0.0000 C   0  0  1  0  0  0  0  0  0  0  0  0
    4.7534   -1.5190    0.0000 C   0  0  2  0  0  0  0  0  0  0  0  0
    8.3417    0.2926    0.0000 C   0  0  2  0  0  0  0  0  0  0  0  0
    4.7454   -2.5606    0.0000 C   0  0  2  0  0  0  0  0  0  0  0  0
    6.5294    0.4879    0.0000 C   0  0  0  0  0  0  0  0  0  0  0  0
    5.6634   -0.0121    0.0000 C   0  0  0  0  0  0  0  0  0  0  0  0
    6.5455   -2.5536    0.0000 C   0  0  1  0  0  0  0  0  0  0  0  0
    8.3417   -1.3169    0.0000 C   0  0  0  0  0  0  0  0  0  0  0  0
    8.9253   -0.5121    0.0000 C   0  0  0  0  0  0  0  0  0  0  0  0
    5.6475   -3.0814    0.0000 C   0  0  0  0  0  0  0  0  0  0  0  0
    3.8266   -0.9549    0.0000 C   0  0  2  0  0  0  0  0  0  0  0  0
    7.3955    0.9879    0.0000 C   0  0  0  0  0  0  0  0  0  0  0  0
    3.8100   -3.1103    0.0000 C   0  0  0  0  0  0  0  0  0  0  0  0
    8.6524    1.2431    0.0000 C   0  0  1  0  0  0  0  0  0  0  0  0
    4.7611   -0.5190    0.0000 C   0  0  0  0  0  0  0  0  0  0  0  0
    2.8787   -1.4828    0.0000 C   0  0  0  0  0  0  0  0  0  0  0  0
    2.8703   -2.5678    0.0000 C   0  0  1  0  0  0  0  0  0  0  0  0
    9.6309    1.4493    0.0000 C   0  0  0  0  0  0  0  0  0  0  0  0
    7.9845    1.9874    0.0000 C   0  0  0  0  0  0  0  0  0  0  0  0
    9.9415    2.3999    0.0000 C   0  0  0  0  0  0  0  0  0  0  0  0
   10.9200    2.6061    0.0000 C   0  0  0  0  0  0  0  0  0  0  0  0
    7.4854   -1.8574    0.0000 H   0  0  0  0  0  0  0  0  0  0  0  0
    7.2688   -1.9314    0.0000 H   0  0  0  0  0  0  0  0  0  0  0  0
    6.3995   -0.5871    0.0000 H   0  0  0  0  0  0  0  0  0  0  0  0
    9.1814    0.4245    0.0000 H   0  0  0  0  0  0  0  0  0  0  0  0
    4.7487   -3.4106    0.0000 H   0  0  0  0  0  0  0  0  0  0  0  0
    6.9280    0.9628    0.0000 H   0  0  0  0  0  0  0  0  0  0  0  0
    6.1309    0.9628    0.0000 H   0  0  0  0  0  0  0  0  0  0  0  0
    5.4514    0.5705    0.0000 H   0  0  0  0  0  0  0  0  0  0  0  0
    5.0528   -0.1198    0.0000 H   0  0  0  0  0  0  0  0  0  0  0  0
    7.0782   -2.2364    0.0000 H   0  0  0  0  0  0  0  0  0  0  0  0
    8.0907   -1.8838    0.0000 H   0  0  0  0  0  0  0  0  0  0  0  0
    8.8791   -1.6261    0.0000 H   0  0  0  0  0  0  0  0  0  0  0  0
    9.3862   -0.9269    0.0000 H   0  0  0  0  0  0  0  0  0  0  0  0
    9.3862   -0.0974    0.0000 H   0  0  0  0  0  0  0  0  0  0  0  0
    5.2502   -3.5574    0.0000 H   0  0  0  0  0  0  0  0  0  0  0  0
    6.0484   -3.5543    0.0000 H   0  0  0  0  0  0  0  0  0  0  0  0
    3.2951   -0.6356    0.0000 H   0  0  0  0  0  0  0  0  0  0  0  0
    8.0155    0.9879    0.0000 H   0  0  0  0  0  0  0  0  0  0  0  0
    7.3955    1.6079    0.0000 H   0  0  0  0  0  0  0  0  0  0  0  0
    6.7755    0.9879    0.0000 H   0  0  0  0  0  0  0  0  0  0  0  0
    3.4127   -3.5863    0.0000 H   0  0  0  0  0  0  0  0  0  0  0  0
    4.2109   -3.5832    0.0000 H   0  0  0  0  0  0  0  0  0  0  0  0
    8.8450    1.8324    0.0000 H   0  0  0  0  0  0  0  0  0  0  0  0
    5.3811   -0.5238    0.0000 H   0  0  0  0  0  0  0  0  0  0  0  0
    4.7659    0.1010    0.0000 H   0  0  0  0  0  0  0  0  0  0  0  0
    4.1412   -0.5142    0.0000 H   0  0  0  0  0  0  0  0  0  0  0  0
    2.6742   -0.8976    0.0000 H   0  0  0  0  0  0  0  0  0  0  0  0
    2.2670   -1.5842    0.0000 H   0  0  0  0  0  0  0  0  0  0  0  0
    2.3352   -2.2547    0.0000 H   0  0  0  0  0  0  0  0  0  0  0  0
    7.4244   -3.6636    0.0000 H   0  0  0  0  0  0  0  0  0  0  0  0
    9.6514    0.8297    0.0000 H   0  0  0  0  0  0  0  0  0  0  0  0
   10.2447    1.3620    0.0000 H   0  0  0  0  0  0  0  0  0  0  0  0
    8.4460    2.4015    0.0000 H   0  0  0  0  0  0  0  0  0  0  0  0
    7.5704    2.4489    0.0000 H   0  0  0  0  0  0  0  0  0  0  0  0
    7.5230    1.5734    0.0000 H   0  0  0  0  0  0  0  0  0  0  0  0
    3.3150    0.3652    0.0000 H   0  0  0  0  0  0  0  0  0  0  0  0
    2.0000   -3.6845    0.0000 H   0  0  0  0  0  0  0  0  0  0  0  0
    9.9210    3.0195    0.0000 H   0  0  0  0  0  0  0  0  0  0  0  0
    9.3277    2.4872    0.0000 H   0  0  0  0  0  0  0  0  0  0  0  0
   11.8374    3.6845    0.0000 H   0  0  0  0  0  0  0  0  0  0  0  0
 15  1  1  6  0  0  0
  1 59  1  0  0  0  0
 19  2  1  6  0  0  0
  2 65  1  0  0  0  0
 25  3  1  6  0  0  0
  3 66  1  0  0  0  0
  4 29  1  0  0  0  0
  4 69  1  0  0  0  0
  5 29  2  0  0  0  0
  6  7  1  0  0  0  0
  6  8  1  0  0  0  0
  6 16  1  0  0  0  0
  6 30  1  6  0  0  0
  7  9  1  0  0  0  0
  7 15  1  0  0  0  0
  7 31  1  1  0  0  0
  8 11  1  0  0  0  0
  8 13  1  0  0  0  0
  8 20  1  1  0  0  0
  9 10  1  0  0  0  0
  9 14  1  0  0  0  0
  9 32  1  6  0  0  0
 10 12  1  0  0  0  0
 10 19  1  0  0  0  0
 10 23  1  1  0  0  0
 11 17  1  0  0  0  0
 11 22  1  0  0  0  0
 11 33  1  6  0  0  0
 12 18  1  0  0  0  0
 12 21  1  0  0  0  0
 12 34  1  1  0  0  0
 13 14  1  0  0  0  0
 13 35  1  0  0  0  0
 13 36  1  0  0  0  0
 14 37  1  0  0  0  0
 14 38  1  0  0  0  0
 15 18  1  0  0  0  0
 15 39  1  0  0  0  0
 16 17  1  0  0  0  0
 16 40  1  0  0  0  0
 16 41  1  0  0  0  0
 17 42  1  0  0  0  0
 17 43  1  0  0  0  0
 18 44  1  0  0  0  0
 18 45  1  0  0  0  0
 19 24  1  0  0  0  0
 19 46  1  0  0  0  0
 20 47  1  0  0  0  0
 20 48  1  0  0  0  0
 20 49  1  0  0  0  0
 21 25  1  0  0  0  0
 21 50  1  0  0  0  0
 21 51  1  0  0  0  0
 22 26  1  0  0  0  0
 22 27  1  6  0  0  0
 22 52  1  0  0  0  0
 23 53  1  0  0  0  0
 23 54  1  0  0  0  0
 23 55  1  0  0  0  0
 24 25  1  0  0  0  0
 24 56  1  0  0  0  0
 24 57  1  0  0  0  0
 25 58  1  0  0  0  0
 26 28  1  0  0  0  0
 26 60  1  0  0  0  0
 26 61  1  0  0  0  0
 27 62  1  0  0  0  0
 27 63  1  0  0  0  0
 27 64  1  0  0  0  0
 28 29  1  0  0  0  0
 28 67  1  0  0  0  0
 28 68  1  0  0  0  0
M  END
> <PUBCHEM_COMPOUND_CID>
5283845

> <PUBCHEM_COMPOUND_CANONICALIZED>
1

> <PUBCHEM_CACTVS_COMPLEXITY>
637

> <PUBCHEM_CACTVS_HBOND_ACCEPTOR>
5

> <PUBCHEM_CACTVS_HBOND_DONOR>
4

> <PUBCHEM_CACTVS_ROTATABLE_BOND>
4

> <PUBCHEM_CACTVS_SUBSKEYS>
AAADcfB4OAAAAAAAAAAAAAAAAAAAAYAAAAAwYMAAAAAAAGDAAAAAGgAACAAADxSggAICCAAAAgAIAACQCAAAAAAAAAAAAAEAAAAAEBIAAAAAQAAFAAAAAAGI6PSPgAAAAAAAAADAAAYQADAAAQAACAAAAA==

> <PUBCHEM_IUPAC_OPENEYE_NAME>
(4R)-4-[(1S,3S,5S,7R,8S,9S,10S,13R,14S,17R)-1,3,7-trihydroxy-10,13-dimethyl-2,3,4,5,6,7,8,9,11,12,14,15,16,17-tetradecahydro-1H-cyclopenta[a]phenanthren-17-yl]pentanoic acid

> <PUBCHEM_IUPAC_CAS_NAME>
(4R)-4-[(1S,3S,5S,7R,8S,9S,10S,13R,14S,17R)-1,3,7-trihydroxy-10,13-dimethyl-2,3,4,5,6,7,8,9,11,12,14,15,16,17-tetradecahydro-1H-cyclopenta[a]phenanthren-17-yl]pentanoic acid

> <PUBCHEM_IUPAC_NAME>
(4R)-4-[(1S,3S,5S,7R,8S,9S,10S,13R,14S,17R)-1,3,7-trihydroxy-10,13-dimethyl-2,3,4,5,6,7,8,9,11,12,14,15,16,17-tetradecahydro-1H-cyclopenta[a]phenanthren-17-yl]pentanoic acid

> <PUBCHEM_IUPAC_SYSTEMATIC_NAME>
(4R)-4-[(1S,3S,5S,7R,8S,9S,10S,13R,14S,17R)-10,13-dimethyl-1,3,7-tris(oxidanyl)-2,3,4,5,6,7,8,9,11,12,14,15,16,17-tetradecahydro-1H-cyclopenta[a]phenanthren-17-yl]pentanoic acid

> <PUBCHEM_IUPAC_TRADITIONAL_NAME>
(4R)-4-[(1S,3S,5S,7R,8S,9S,10S,13R,14S,17R)-1,3,7-trihydroxy-10,13-dimethyl-2,3,4,5,6,7,8,9,11,12,14,15,16,17-tetradecahydro-1H-cyclopenta[a]phenanthren-17-yl]valeric acid

> <PUBCHEM_IUPAC_INCHI>
InChI=1S/C24H40O5/c1-13(4-7-21(28)29)16-5-6-17-22-18(8-9-23(16,17)2)24(3)14(11-19(22)26)10-15(25)12-20(24)27/h13-20,22,25-27H,4-12H2,1-3H3,(H,28,29)/t13-,14+,15+,16-,17+,18+,19-,20+,22+,23-,24+/m1/s1

> <PUBCHEM_IUPAC_INCHIKEY>
GYUVAHWOVINGNE-RMVWDZDYSA-N

> <PUBCHEM_XLOGP3_AA>
3.9

> <PUBCHEM_EXACT_MASS>
408.287574

> <PUBCHEM_MOLECULAR_FORMULA>
C24H40O5

> <PUBCHEM_MOLECULAR_WEIGHT>
408.5714

> <PUBCHEM_OPENEYE_CAN_SMILES>
CC(CCC(=O)O)C1CCC2C1(CCC3C2C(CC4C3(C(CC(C4)O)O)C)O)C

> <PUBCHEM_OPENEYE_ISO_SMILES>
C[C@H](CCC(=O)O)[C@H]1CC[C@@H]2[C@@]1(CC[C@H]3[C@H]2[C@@H](C[C@H]4[C@@]3([C@H](C[C@H](C4)O)O)C)O)C

> <PUBCHEM_CACTVS_TPSA>
98

> <PUBCHEM_MONOISOTOPIC_WEIGHT>
408.287574

> <PUBCHEM_TOTAL_CHARGE>
0

> <PUBCHEM_HEAVY_ATOM_COUNT>
29

> <PUBCHEM_ATOM_DEF_STEREO_COUNT>
11

> <PUBCHEM_ATOM_UDEF_STEREO_COUNT>
0

> <PUBCHEM_BOND_DEF_STEREO_COUNT>
0

> <PUBCHEM_BOND_UDEF_STEREO_COUNT>
0

> <PUBCHEM_ISOTOPIC_ATOM_COUNT>
0

> <PUBCHEM_COMPONENT_COUNT>
1

> <PUBCHEM_CACTVS_TAUTO_COUNT>
1

> <PUBCHEM_COORDINATE_TYPE>
1
5
255

> <PUBCHEM_BONDANNOTATIONS>
15  1  6
10  23  5
11  33  6
12  34  5
19  2  6
22  27  6
25  3  6
6  30  6
7  31  5
8  20  5
9  32  6

$$$$

