   Color/Form
        White to off-white to light yellow powder
   from [1]HSDB

   Octanol/Water Partition Coefficient
        log Kow = 1.56 /Estimated/
   from [2]HSDB

   Solubilities

     * Sparingly soluble in acetone, slightly soluble in methanol and
       isopropyl acetate, very slightly soluble in ethanol, practically
       insoluble in octanol, and insoluble in water.
     * In water, 472 mg/L at 25 deg C /Estimated/

   from [3]HSDB

   Vapor Pressure
        3.2X10-9 mm Hg at 25 deg C /Estimated/
   from [4]HSDB

   Other Chemical/Physical Properties

     * Henry's Law constant = 2.6X10-12 atm-cu m/mole at 25 deg C
       /Estimated/
     * Hydroxyl radical reaction rate constant = 1.3X10-10 cu cm/
       molecule-sec at 25 deg C /Estimated/

   from [5]HSDB

   Computed Properties
   Molecular Weight                  314.35566 [g/mol]
   Molecular Formula                 C[17]H[14]O[4]S
   XLogP3-AA                         2.3
   H-Bond Donor                      0
   H-Bond Acceptor                   4
   Rotatable Bond Count              3
   Exact Mass                        314.06128
   MonoIsotopic Mass                 314.06128
   Topological Polar Surface Area    68.8
   Heavy Atom Count                  22
   Formal Charge                     0
   Complexity                        556
   Isotope Atom Count                0
   Defined Atom Stereocenter Count   0
   Undefined Atom Stereocenter Count 0
   Defined Bond Stereocenter Count   0
   Undefined Bond Stereocenter Count 0
   Covalently-Bonded Unit Count      1
   Feature 3D Acceptor Count         3
   Feature 3D Ring Count             3
   Effective Rotor Count             3.4
   Conformer Sampling RMSD           0.6
   CID Conformer Count               [6]8

References

   1. http://toxnet.nlm.nih.gov/cgi-bin/sis/search/r?dbs+hsdb:@term+@rn+@rel+162011-90-7
   2. http://toxnet.nlm.nih.gov/cgi-bin/sis/search/r?dbs+hsdb:@term+@rn+@rel+162011-90-7
   3. http://toxnet.nlm.nih.gov/cgi-bin/sis/search/r?dbs+hsdb:@term+@rn+@rel+162011-90-7
   4. http://toxnet.nlm.nih.gov/cgi-bin/sis/search/r?dbs+hsdb:@term+@rn+@rel+162011-90-7
   5. http://toxnet.nlm.nih.gov/cgi-bin/sis/search/r?dbs+hsdb:@term+@rn+@rel+162011-90-7
   6. http://pubchem.ncbi.nlm.nih.gov/vw3d/vw3d.cgi?cid=5090
