   Color/Form

     * White solid
     * White, nonhygroscopic, crystalline powder

   from [1]HSDB

   Melting Point
        160-163 deg C
   from [2]HSDB

   Dissociation Constants
        pKa= 9.13
   from [3]HSDB

   Octanol/Water Partition Coefficient
        log Kow = -1.24
   from [4]HSDB

   Solubilities

     * Aqueous solubility at pH 6 and 25 deg C is approx 27.3 mg/ml
     * Solubility at 23 deg C (mg/ml): acetone, <1; acetonitrile, <1;
       t-butanol, <1; chloroform, <1; dimethylacetamide, 45; DMSO, 200;
       ethanol, 1; ethyl acetate,1; hexane,1; methanol, 6; methylene
       chloride, <1; 1- and 2-propanol, <1; propylene glycol, 8.

   from [5]HSDB

   Spectral Properties
        Maximum absorption 248 nm (pH 2); 254 nm (pH 12)
   from [6]HSDB

   Vapor Pressure
        6.6 mm Hg @ 25 deg C /Estimated/
   from [7]HSDB

   Other Chemical/Physical Properties

     * Henry's Law constant = 2.4X10-20 atm-cu m/mol @ 25 deg C
       /Estimated/
     * Hydroxyl radical reaction rate constant = 2.3X10-10 cu cm/molec=sec
       @ 25 deg C /Estimated/

   from [8]HSDB

   Computed Properties
   Molecular Weight                  236.22728 [g/mol]
   Molecular Formula                 C[10]H[12]N[4]O[3]
   XLogP3                            -1.2
   H-Bond Donor                      2
   H-Bond Acceptor                   4
   Rotatable Bond Count              2
   Tautomer Count                    3
   Exact Mass                        236.09094
   MonoIsotopic Mass                 236.09094
   Topological Polar Surface Area    88.7
   Heavy Atom Count                  17
   Formal Charge                     0
   Complexity                        348
   Isotope Atom Count                0
   Defined Atom Stereocenter Count   2
   Undefined Atom Stereocenter Count 0
   Defined Bond Stereocenter Count   0
   Undefined Bond Stereocenter Count 0
   Covalently-Bonded Unit Count      1
   Feature 3D Acceptor Count         3
   Feature 3D Donor Count            3
   Feature 3D Cation Count           1
   Feature 3D Ring Count             3
   Effective Rotor Count             3
   Conformer Sampling RMSD           0.6
   CID Conformer Count               [9]13

References

   1. http://toxnet.nlm.nih.gov/cgi-bin/sis/search/r?dbs+hsdb:@term+@rn+@rel+69655-05-6
   2. http://toxnet.nlm.nih.gov/cgi-bin/sis/search/r?dbs+hsdb:@term+@rn+@rel+69655-05-6
   3. http://toxnet.nlm.nih.gov/cgi-bin/sis/search/r?dbs+hsdb:@term+@rn+@rel+69655-05-6
   4. http://toxnet.nlm.nih.gov/cgi-bin/sis/search/r?dbs+hsdb:@term+@rn+@rel+69655-05-6
   5. http://toxnet.nlm.nih.gov/cgi-bin/sis/search/r?dbs+hsdb:@term+@rn+@rel+69655-05-6
   6. http://toxnet.nlm.nih.gov/cgi-bin/sis/search/r?dbs+hsdb:@term+@rn+@rel+69655-05-6
   7. http://toxnet.nlm.nih.gov/cgi-bin/sis/search/r?dbs+hsdb:@term+@rn+@rel+69655-05-6
   8. http://toxnet.nlm.nih.gov/cgi-bin/sis/search/r?dbs+hsdb:@term+@rn+@rel+69655-05-6
   9. http://pubchem.ncbi.nlm.nih.gov/vw3d/vw3d.cgi?cid=50599
