   Chemical and Physical Properties References

   [1]USDA ARS - USDA chemical properties
   from [2]ChemIDplus

   Color/Form
        Colorless liquid
   from [3]HSDB

   Odor
        Faint ester-like odor
   from [4]HSDB

   Boiling Point
        83-84 deg C @ 2X10-3 mm Hg
   from [5]HSDB

   Density/Specific Gravity
        SP GR: 1.116-1.118 @ 20 deg C/4 deg C
   from [6]HSDB

   Octanol/Water Partition Coefficient
        log Kow = 3.81
   from [7]HSDB

   Solubilities

     * Solubility in water: 0.004% @ 20 deg c; miscible with petroleum
       ether, alc, ether, cyclohexane, benzene and similar hydrocarbons.
     * SOL IN ORG SOLVENTS
     * Freely sol in ketones
     * In water, 40 mg/l @ 25 deg C

   from [8]HSDB

   Spectral Properties

     * Index of refraction: 1.4978-1.4981 @ 20 deg C/D
     * Intense mass spectral peaks: 179 m/z (100%), 137 m/z (94%), 152 m/z
       (85%), 304 m/z (64%)
     * MASS: 4834 (National Bureau of Standards EPA-NIH Mass Spectra Data
       Base, NSRDS-NBS-63)

   from [9]HSDB

   Vapor Pressure
        9.01X10-5 mm Hg @ 25 deg C
   from [10]HSDB

   Other Chemical/Physical Properties

     * HYDROLYSIS OF DIAZINON & DIAZOXON CONFORM TO PSEUDO FIRST-ORDER
       RATE IN PH RANGE 3.1-10.9.
     * Technical material is pale to dark brown liq.
     * Compatible with many other pesticides, but incompatible with
       copper-containing compounds.
     * Volatility: @ 20 deg C= 2.4 mg/cu m; @ 40 deg C= 17.6 mg/cu m
     * Henry's Law constant = 1.17X10-7 atm-cu m/mol @ 23 deg C
     * Stable in neutral media, but slowly hydrolyzed in alkaline media,
       and more rapidly in acidic media; decomposes above 120 deg C

   from [11]HSDB

   Computed Properties
   Molecular Weight                  304.345502 [g/mol]
   Molecular Formula                 C[12]H[21]N[2]O[3]PS
   XLogP3                            3.8
   H-Bond Donor                      0
   H-Bond Acceptor                   6
   Rotatable Bond Count              7
   Tautomer Count                    3
   Exact Mass                        304.10105
   MonoIsotopic Mass                 304.10105
   Topological Polar Surface Area    85.6
   Heavy Atom Count                  19
   Formal Charge                     0
   Complexity                        307
   Isotope Atom Count                0
   Defined Atom Stereocenter Count   0
   Undefined Atom Stereocenter Count 0
   Defined Bond Stereocenter Count   0
   Undefined Bond Stereocenter Count 0
   Covalently-Bonded Unit Count      1
   Feature 3D Cation Count           1
   Feature 3D Hydrophobe Count       1
   Feature 3D Ring Count             1
   Effective Rotor Count             7
   Conformer Sampling RMSD           0.8
   CID Conformer Count               [12]111

References

   1. http://www.ars.usda.gov/SP2UserFiles/ad_hoc/12755100DatabaseFiles/PesticidePropertiesDatabase/IndividualPesticideFiles/DIAZINON.TXT
   2. http://chem.sis.nlm.nih.gov/chemidplus/
   3. http://toxnet.nlm.nih.gov/cgi-bin/sis/search/r?dbs+hsdb:@term+@rn+@rel+333-41-5
   4. http://toxnet.nlm.nih.gov/cgi-bin/sis/search/r?dbs+hsdb:@term+@rn+@rel+333-41-5
   5. http://toxnet.nlm.nih.gov/cgi-bin/sis/search/r?dbs+hsdb:@term+@rn+@rel+333-41-5
   6. http://toxnet.nlm.nih.gov/cgi-bin/sis/search/r?dbs+hsdb:@term+@rn+@rel+333-41-5
   7. http://toxnet.nlm.nih.gov/cgi-bin/sis/search/r?dbs+hsdb:@term+@rn+@rel+333-41-5
   8. http://toxnet.nlm.nih.gov/cgi-bin/sis/search/r?dbs+hsdb:@term+@rn+@rel+333-41-5
   9. http://toxnet.nlm.nih.gov/cgi-bin/sis/search/r?dbs+hsdb:@term+@rn+@rel+333-41-5
  10. http://toxnet.nlm.nih.gov/cgi-bin/sis/search/r?dbs+hsdb:@term+@rn+@rel+333-41-5
  11. http://toxnet.nlm.nih.gov/cgi-bin/sis/search/r?dbs+hsdb:@term+@rn+@rel+333-41-5
  12. http://pubchem.ncbi.nlm.nih.gov/vw3d/vw3d.cgi?cid=3017
