12915
  -OEChem-06261207322D

 41 43  0     0  0  0  0  0  0999 V2000
    4.2788   -2.7111    0.0000 O   0  0  0  0  0  0  0  0  0  0  0  0
    6.3479    0.1367    0.0000 O   0  0  0  0  0  0  0  0  0  0  0  0
    4.5878   -0.1420    0.0000 N   0  0  0  0  0  0  0  0  0  0  0  0
    5.5388   -1.4511    0.0000 N   0  0  0  0  0  0  0  0  0  0  0  0
    4.0000   -0.9511    0.0000 C   0  0  0  0  0  0  0  0  0  0  0  0
    3.5000   -1.8171    0.0000 C   0  0  0  0  0  0  0  0  0  0  0  0
    3.5000   -0.0850    0.0000 C   0  0  0  0  0  0  0  0  0  0  0  0
    2.5000   -1.8171    0.0000 C   0  0  0  0  0  0  0  0  0  0  0  0
    2.5000   -0.0850    0.0000 C   0  0  0  0  0  0  0  0  0  0  0  0
    2.0000   -0.9511    0.0000 C   0  0  0  0  0  0  0  0  0  0  0  0
    4.5878   -1.7601    0.0000 C   0  0  0  0  0  0  0  0  0  0  0  0
    5.5388   -0.4511    0.0000 C   0  0  0  0  0  0  0  0  0  0  0  0
    4.2788    0.8090    0.0000 C   0  0  0  0  0  0  0  0  0  0  0  0
    6.3479   -2.0388    0.0000 C   0  0  0  0  0  0  0  0  0  0  0  0
    4.9479    1.5522    0.0000 C   0  0  0  0  0  0  0  0  0  0  0  0
    3.3006    1.0169    0.0000 C   0  0  0  0  0  0  0  0  0  0  0  0
    7.2614   -1.6321    0.0000 C   0  0  0  0  0  0  0  0  0  0  0  0
    4.6389    2.5032    0.0000 C   0  0  0  0  0  0  0  0  0  0  0  0
    2.9916    1.9680    0.0000 C   0  0  0  0  0  0  0  0  0  0  0  0
    3.6607    2.7111    0.0000 C   0  0  0  0  0  0  0  0  0  0  0  0
    8.0704   -2.2199    0.0000 C   0  0  0  0  0  0  0  0  0  0  0  0
    4.0826    0.1270    0.0000 H   0  0  0  0  0  0  0  0  0  0  0  0
    3.3923    0.5256    0.0000 H   0  0  0  0  0  0  0  0  0  0  0  0
    3.3923   -2.4277    0.0000 H   0  0  0  0  0  0  0  0  0  0  0  0
    4.0826   -2.0291    0.0000 H   0  0  0  0  0  0  0  0  0  0  0  0
    1.9174   -2.0291    0.0000 H   0  0  0  0  0  0  0  0  0  0  0  0
    2.6077   -2.4277    0.0000 H   0  0  0  0  0  0  0  0  0  0  0  0
    2.6077    0.5256    0.0000 H   0  0  0  0  0  0  0  0  0  0  0  0
    1.9174    0.1270    0.0000 H   0  0  0  0  0  0  0  0  0  0  0  0
    1.5250   -0.5525    0.0000 H   0  0  0  0  0  0  0  0  0  0  0  0
    1.5250   -1.3496    0.0000 H   0  0  0  0  0  0  0  0  0  0  0  0
    5.9019   -2.4695    0.0000 H   0  0  0  0  0  0  0  0  0  0  0  0
    6.6946   -2.5528    0.0000 H   0  0  0  0  0  0  0  0  0  0  0  0
    5.5544    1.4233    0.0000 H   0  0  0  0  0  0  0  0  0  0  0  0
    2.8858    0.5562    0.0000 H   0  0  0  0  0  0  0  0  0  0  0  0
    7.3262   -1.0155    0.0000 H   0  0  0  0  0  0  0  0  0  0  0  0
    5.0537    2.9640    0.0000 H   0  0  0  0  0  0  0  0  0  0  0  0
    2.3852    2.0969    0.0000 H   0  0  0  0  0  0  0  0  0  0  0  0
    3.4691    3.3008    0.0000 H   0  0  0  0  0  0  0  0  0  0  0  0
    8.0056   -2.8365    0.0000 H   0  0  0  0  0  0  0  0  0  0  0  0
    8.6368   -1.9677    0.0000 H   0  0  0  0  0  0  0  0  0  0  0  0
  1 11  2  0  0  0  0
  2 12  2  0  0  0  0
  3  5  1  0  0  0  0
  3 12  1  0  0  0  0
  3 13  1  0  0  0  0
  4 11  1  0  0  0  0
  4 12  1  0  0  0  0
  4 14  1  0  0  0  0
  5  6  1  0  0  0  0
  5  7  1  0  0  0  0
  5 11  1  0  0  0  0
  6  8  1  0  0  0  0
  6 24  1  0  0  0  0
  6 25  1  0  0  0  0
  7  9  1  0  0  0  0
  7 22  1  0  0  0  0
  7 23  1  0  0  0  0
  8 10  1  0  0  0  0
  8 26  1  0  0  0  0
  8 27  1  0  0  0  0
  9 10  1  0  0  0  0
  9 28  1  0  0  0  0
  9 29  1  0  0  0  0
 10 30  1  0  0  0  0
 10 31  1  0  0  0  0
 13 15  2  0  0  0  0
 13 16  1  0  0  0  0
 14 17  1  0  0  0  0
 14 32  1  0  0  0  0
 14 33  1  0  0  0  0
 15 18  1  0  0  0  0
 15 34  1  0  0  0  0
 16 19  2  0  0  0  0
 16 35  1  0  0  0  0
 17 21  2  0  0  0  0
 17 36  1  0  0  0  0
 18 20  2  0  0  0  0
 18 37  1  0  0  0  0
 19 20  1  0  0  0  0
 19 38  1  0  0  0  0
 20 39  1  0  0  0  0
 21 40  1  0  0  0  0
 21 41  1  0  0  0  0
M  END
> <PUBCHEM_COMPOUND_CID>
12915

> <PUBCHEM_COMPOUND_CANONICALIZED>
1

> <PUBCHEM_CACTVS_COMPLEXITY>
434

> <PUBCHEM_CACTVS_HBOND_ACCEPTOR>
2

> <PUBCHEM_CACTVS_HBOND_DONOR>
0

> <PUBCHEM_CACTVS_ROTATABLE_BOND>
3

> <PUBCHEM_CACTVS_SUBSKEYS>
AAADceB7MAAAAAAAAAAAAAAAAAAAAWAAAAAwYAAAAAAAAAABAAAAHgAAAAAADIjBkAQxwIMAAACIACVSUACCAAAhAgAIiAGIZIiIYDLAkbGUIAhohyLIyCcYiACOAAAAAAAAAAAAAAAAAAAAAAAAAAAAAA==

> <PUBCHEM_IUPAC_OPENEYE_NAME>
3-allyl-1-phenyl-1,3-diazaspiro[4.5]decane-2,4-dione

> <PUBCHEM_IUPAC_CAS_NAME>
1-phenyl-3-prop-2-enyl-1,3-diazaspiro[4.5]decane-2,4-dione

> <PUBCHEM_IUPAC_NAME>
1-phenyl-3-prop-2-enyl-1,3-diazaspiro[4.5]decane-2,4-dione

> <PUBCHEM_IUPAC_SYSTEMATIC_NAME>
1-phenyl-3-prop-2-enyl-1,3-diazaspiro[4.5]decane-2,4-dione

> <PUBCHEM_IUPAC_TRADITIONAL_NAME>
3-allyl-1-phenyl-1,3-diazaspiro[4.5]decane-2,4-quinone

> <PUBCHEM_IUPAC_INCHI>
InChI=1S/C17H20N2O2/c1-2-13-18-15(20)17(11-7-4-8-12-17)19(16(18)21)14-9-5-3-6-10-14/h2-3,5-6,9-10H,1,4,7-8,11-13H2

> <PUBCHEM_IUPAC_INCHIKEY>
YHVFDGXISVNGJR-UHFFFAOYSA-N

> <PUBCHEM_XLOGP3_AA>
3.1

> <PUBCHEM_EXACT_MASS>
284.152478

> <PUBCHEM_MOLECULAR_FORMULA>
C17H20N2O2

> <PUBCHEM_MOLECULAR_WEIGHT>
284.3529

> <PUBCHEM_OPENEYE_CAN_SMILES>
C=CCN1C(=O)C2(CCCCC2)N(C1=O)C3=CC=CC=C3

> <PUBCHEM_OPENEYE_ISO_SMILES>
C=CCN1C(=O)C2(CCCCC2)N(C1=O)C3=CC=CC=C3

> <PUBCHEM_CACTVS_TPSA>
40.6

> <PUBCHEM_MONOISOTOPIC_WEIGHT>
284.152478

> <PUBCHEM_TOTAL_CHARGE>
0

> <PUBCHEM_HEAVY_ATOM_COUNT>
21

> <PUBCHEM_ATOM_DEF_STEREO_COUNT>
0

> <PUBCHEM_ATOM_UDEF_STEREO_COUNT>
0

> <PUBCHEM_BOND_DEF_STEREO_COUNT>
0

> <PUBCHEM_BOND_UDEF_STEREO_COUNT>
0

> <PUBCHEM_ISOTOPIC_ATOM_COUNT>
0

> <PUBCHEM_COMPONENT_COUNT>
1

> <PUBCHEM_CACTVS_TAUTO_COUNT>
1

> <PUBCHEM_COORDINATE_TYPE>
1
5
255

> <PUBCHEM_BONDANNOTATIONS>
13  15  8
13  16  8
15  18  8
16  19  8
18  20  8
19  20  8

$$$$

