   Chemical and Physical Properties References

   [1]USDA ARS - USDA chemical properties
   from [2]ChemIDplus

   Color/Form
        Crystals from isopropyl ether
   from [3]HSDB

   Odor
        Slightly sulfurous odor
   from [4]HSDB

   Melting Point
        99-100 deg C
   from [5]HSDB

   Corrosivity
        Non-corrosive to ... common metals and plastics
   from [6]HSDB

   Density/Specific Gravity
        1.1950 @ 25 deg C/20 deg C
   from [7]HSDB

   Octanol/Water Partition Coefficient
        log Kow= 1.13
   from [8]HSDB

   Solubilities

     * Wt/wt at 25 deg C: in water 0.6%; acetone 35%; benzene 15%; xylene
       5%; methylene chloride 30%
     * 350 g/kg, acetone; 300 g/kg, dichloromethane; 150 g/kg, benzene;
       150 g/kg, xylene; all at 25 deg C
     * In water, 4,930 mg/l @ 20 deg C
     * 5% in carbon tetrachloride, 24% in methyl isobutyl ketone (each at
       30 deg C)
     * SOL IN ETHANOL; FREELY SOL IN CHLOROFORM; SLIGHTLY SOL IN PETROLEUM
       ETHER; INSOL IN HEPTANE
     * Practically insoluble in hexane

   from [9]HSDB

   Spectral Properties
        Intensity of mass spectral peaks: 58 M/z (100%), 41 M/z (99%), 86
   M/z (97%), 89 M/z (75%)
   from [10]HSDB

   Vapor Pressure
        9.75X10-5 mm Hg @ 20 deg C
   from [11]HSDB

   Other Chemical/Physical Properties
        Decomposes above 100 deg C
   from [12]HSDB

   Computed Properties
   Molecular Weight                  190.26326 [g/mol]
   Molecular Formula                 C[7]H[14]N[2]O[2]S
   XLogP3                            1.1
   H-Bond Donor                      1
   H-Bond Acceptor                   4
   Rotatable Bond Count              4
   Tautomer Count                    2
   Exact Mass                        190.077599
   MonoIsotopic Mass                 190.077599
   Topological Polar Surface Area    76
   Heavy Atom Count                  12
   Formal Charge                     0
   Complexity                        180
   Isotope Atom Count                0
   Defined Atom Stereocenter Count   0
   Undefined Atom Stereocenter Count 0
   Defined Bond Stereocenter Count   1
   Undefined Bond Stereocenter Count 0
   Covalently-Bonded Unit Count      1
   Feature 3D Acceptor Count         2
   Feature 3D Donor Count            1
   Feature 3D Hydrophobe Count       2
   Effective Rotor Count             5
   Conformer Sampling RMSD           0.6
   CID Conformer Count               [13]112

References

   1. http://www.ars.usda.gov/SP2UserFiles/ad_hoc/12755100DatabaseFiles/PesticidePropertiesDatabase/IndividualPesticideFiles/ALDICARB.TXT
   2. http://chem.sis.nlm.nih.gov/chemidplus/
   3. http://toxnet.nlm.nih.gov/cgi-bin/sis/search/r?dbs+hsdb:@term+@rn+@rel+116-06-3
   4. http://toxnet.nlm.nih.gov/cgi-bin/sis/search/r?dbs+hsdb:@term+@rn+@rel+116-06-3
   5. http://toxnet.nlm.nih.gov/cgi-bin/sis/search/r?dbs+hsdb:@term+@rn+@rel+116-06-3
   6. http://toxnet.nlm.nih.gov/cgi-bin/sis/search/r?dbs+hsdb:@term+@rn+@rel+116-06-3
   7. http://toxnet.nlm.nih.gov/cgi-bin/sis/search/r?dbs+hsdb:@term+@rn+@rel+116-06-3
   8. http://toxnet.nlm.nih.gov/cgi-bin/sis/search/r?dbs+hsdb:@term+@rn+@rel+116-06-3
   9. http://toxnet.nlm.nih.gov/cgi-bin/sis/search/r?dbs+hsdb:@term+@rn+@rel+116-06-3
  10. http://toxnet.nlm.nih.gov/cgi-bin/sis/search/r?dbs+hsdb:@term+@rn+@rel+116-06-3
  11. http://toxnet.nlm.nih.gov/cgi-bin/sis/search/r?dbs+hsdb:@term+@rn+@rel+116-06-3
  12. http://toxnet.nlm.nih.gov/cgi-bin/sis/search/r?dbs+hsdb:@term+@rn+@rel+116-06-3
  13. http://pubchem.ncbi.nlm.nih.gov/vw3d/vw3d.cgi?cid=9570071
