439556
  -OEChem-07051212462D

 32 31  0     1  0  0  0  0  0999 V2000
    7.7331    0.0000    0.0000 P   0  0  3  0  0  0  0  0  0  0  0  0
    8.5991    0.5000    0.0000 O   0  0  0  0  0  0  0  0  0  0  0  0
    6.8671   -0.5000    0.0000 O   0  0  0  0  0  0  0  0  0  0  0  0
    7.2331    0.8660    0.0000 O   0  0  0  0  0  0  0  0  0  0  0  0
    8.2331   -0.8660    0.0000 O   0  0  0  0  0  0  0  0  0  0  0  0
   12.0632    0.5000    0.0000 O   0  0  0  0  0  0  0  0  0  0  0  0
   11.1972   -1.0000    0.0000 O   0  0  0  0  0  0  0  0  0  0  0  0
   10.3312    1.5000    0.0000 N   0  0  0  0  0  0  0  0  0  0  0  0
    4.2690    0.0000    0.0000 N   0  0  0  0  0  0  0  0  0  0  0  0
    2.5369    0.0000    0.0000 N   0  0  0  0  0  0  0  0  0  0  0  0
    3.4030   -1.5000    0.0000 N   0  0  0  0  0  0  0  0  0  0  0  0
   10.3312    0.5000    0.0000 C   0  0  2  0  0  0  0  0  0  0  0  0
    9.4651    0.0000    0.0000 C   0  0  0  0  0  0  0  0  0  0  0  0
    6.0010    0.0000    0.0000 C   0  0  0  0  0  0  0  0  0  0  0  0
    5.1350   -0.5000    0.0000 C   0  0  0  0  0  0  0  0  0  0  0  0
   11.1972    0.0000    0.0000 C   0  0  0  0  0  0  0  0  0  0  0  0
    3.4030   -0.5000    0.0000 C   0  0  0  0  0  0  0  0  0  0  0  0
   10.8681    0.8100    0.0000 H   0  0  0  0  0  0  0  0  0  0  0  0
    9.0666   -0.4749    0.0000 H   0  0  0  0  0  0  0  0  0  0  0  0
    9.8637   -0.4749    0.0000 H   0  0  0  0  0  0  0  0  0  0  0  0
    6.3996    0.4749    0.0000 H   0  0  0  0  0  0  0  0  0  0  0  0
    5.6025    0.4749    0.0000 H   0  0  0  0  0  0  0  0  0  0  0  0
    4.7365   -0.9749    0.0000 H   0  0  0  0  0  0  0  0  0  0  0  0
    5.5335   -0.9749    0.0000 H   0  0  0  0  0  0  0  0  0  0  0  0
   10.8681    1.8100    0.0000 H   0  0  0  0  0  0  0  0  0  0  0  0
    9.7942    1.8100    0.0000 H   0  0  0  0  0  0  0  0  0  0  0  0
    7.5431    1.4030    0.0000 H   0  0  0  0  0  0  0  0  0  0  0  0
   12.6002    0.1900    0.0000 H   0  0  0  0  0  0  0  0  0  0  0  0
    2.0000   -0.3100    0.0000 H   0  0  0  0  0  0  0  0  0  0  0  0
    2.5369    0.6200    0.0000 H   0  0  0  0  0  0  0  0  0  0  0  0
    2.8660   -1.8100    0.0000 H   0  0  0  0  0  0  0  0  0  0  0  0
    3.9399   -1.8100    0.0000 H   0  0  0  0  0  0  0  0  0  0  0  0
  1  2  1  0  0  0  0
  1  3  1  0  0  0  0
  1  4  1  0  0  0  0
  1  5  2  0  0  0  0
  2 13  1  0  0  0  0
  3 14  1  0  0  0  0
  4 27  1  0  0  0  0
  6 16  1  0  0  0  0
  6 28  1  0  0  0  0
  7 16  2  0  0  0  0
 12  8  1  1  0  0  0
  8 25  1  0  0  0  0
  8 26  1  0  0  0  0
  9 15  1  0  0  0  0
  9 17  2  0  0  0  0
 10 17  1  0  0  0  0
 10 29  1  0  0  0  0
 10 30  1  0  0  0  0
 11 17  1  0  0  0  0
 11 31  1  0  0  0  0
 11 32  1  0  0  0  0
 12 13  1  0  0  0  0
 12 16  1  0  0  0  0
 12 18  1  0  0  0  0
 13 19  1  0  0  0  0
 13 20  1  0  0  0  0
 14 15  1  0  0  0  0
 14 21  1  0  0  0  0
 14 22  1  0  0  0  0
 15 23  1  0  0  0  0
 15 24  1  0  0  0  0
M  END
> <PUBCHEM_COMPOUND_CID>
439556

> <PUBCHEM_COMPOUND_CANONICALIZED>
1

> <PUBCHEM_CACTVS_COMPLEXITY>
331

> <PUBCHEM_CACTVS_HBOND_ACCEPTOR>
8

> <PUBCHEM_CACTVS_HBOND_DONOR>
5

> <PUBCHEM_CACTVS_ROTATABLE_BOND>
8

> <PUBCHEM_CACTVS_SUBSKEYS>
AAADccBjuAIAAAAAAAAAAAAAAAAAAAAAAAAAAAAAAAAAAAAAAAAAHgAQCCAACCjhgAYBCAJAAxAoQACQLIAAAAEAAAAAAIGAAAACAAQAAAAAQAABMAAAAAAAAAAAAAAAAAAAAAAAAAAAAAAAAAAAAAAAAA==

> <PUBCHEM_IUPAC_OPENEYE_NAME>
(2R)-2-amino-3-[2-guanidinoethoxy(hydroxy)phosphoryl]oxy-propanoic acid

> <PUBCHEM_IUPAC_CAS_NAME>
(2R)-2-amino-3-[2-(diaminomethylideneamino)ethoxy-hydroxyphosphoryl]oxypropanoic acid

> <PUBCHEM_IUPAC_NAME>
(2R)-2-amino-3-[2-(diaminomethylideneamino)ethoxy-hydroxyphosphoryl]oxypropanoic acid

> <PUBCHEM_IUPAC_SYSTEMATIC_NAME>
(2R)-2-azanyl-3-[2-[bis(azanyl)methylideneamino]ethoxy-oxidanyl-phosphoryl]oxy-propanoic acid

> <PUBCHEM_IUPAC_TRADITIONAL_NAME>
(2R)-2-amino-3-[2-guanidinoethoxy(hydroxy)phosphoryl]oxy-propionic acid

> <PUBCHEM_IUPAC_INCHI>
InChI=1S/C6H15N4O6P/c7-4(5(11)12)3-16-17(13,14)15-2-1-10-6(8)9/h4H,1-3,7H2,(H,11,12)(H,13,14)(H4,8,9,10)/t4-/m1/s1

> <PUBCHEM_IUPAC_INCHIKEY>
GSDBGCKBBJVPNC-SCSAIBSYSA-N

> <PUBCHEM_XLOGP3_AA>
-6.2

> <PUBCHEM_EXACT_MASS>
270.072921

> <PUBCHEM_MOLECULAR_FORMULA>
C6H15N4O6P

> <PUBCHEM_MOLECULAR_WEIGHT>
270.180262

> <PUBCHEM_OPENEYE_CAN_SMILES>
C(COP(=O)(O)OCC(C(=O)O)N)N=C(N)N

> <PUBCHEM_OPENEYE_ISO_SMILES>
C(COP(=O)(O)OC[C@H](C(=O)O)N)N=C(N)N

> <PUBCHEM_CACTVS_TPSA>
184

> <PUBCHEM_MONOISOTOPIC_WEIGHT>
270.072921

> <PUBCHEM_TOTAL_CHARGE>
0

> <PUBCHEM_HEAVY_ATOM_COUNT>
17

> <PUBCHEM_ATOM_DEF_STEREO_COUNT>
1

> <PUBCHEM_ATOM_UDEF_STEREO_COUNT>
0

> <PUBCHEM_BOND_DEF_STEREO_COUNT>
0

> <PUBCHEM_BOND_UDEF_STEREO_COUNT>
0

> <PUBCHEM_ISOTOPIC_ATOM_COUNT>
0

> <PUBCHEM_COMPONENT_COUNT>
1

> <PUBCHEM_CACTVS_TAUTO_COUNT>
2

> <PUBCHEM_COORDINATE_TYPE>
1
5
255

> <PUBCHEM_BONDANNOTATIONS>
12  8  5

$$$$

