13783
  -OEChem-07051213122D

 41 41  0     1  0  0  0  0  0999 V2000
    5.4641    0.5443    0.0000 O   0  0  0  0  0  0  0  0  0  0  0  0
    5.1633    2.2500    0.0000 O   0  0  0  0  0  0  0  0  0  0  0  0
    7.6570   -2.0691    0.0000 O   0  5  0  0  0  0  0  0  0  0  0  0
    7.9577   -0.3633    0.0000 O   0  0  0  0  0  0  0  0  0  0  0  0
    4.5981   -3.9557    0.0000 O   0  5  0  0  0  0  0  0  0  0  0  0
    6.3301   -3.9557    0.0000 O   0  0  0  0  0  0  0  0  0  0  0  0
    6.7909    1.6576    0.0000 O   0  0  0  0  0  0  0  0  0  0  0  0
    7.3149   -1.1294    0.0000 N   0  3  0  0  0  0  0  0  0  0  0  0
    5.4641   -3.4557    0.0000 N   0  3  0  0  0  0  0  0  0  0  0  0
    3.7320   -0.4557    0.0000 C   0  0  3  0  0  0  0  0  0  0  0  0
    4.5981   -0.9557    0.0000 C   0  0  0  0  0  0  0  0  0  0  0  0
    2.8660   -0.9557    0.0000 C   0  0  0  0  0  0  0  0  0  0  0  0
    3.7320    0.5443    0.0000 C   0  0  0  0  0  0  0  0  0  0  0  0
    5.4641   -0.4557    0.0000 C   0  0  0  0  0  0  0  0  0  0  0  0
    4.5981   -1.9557    0.0000 C   0  0  0  0  0  0  0  0  0  0  0  0
    2.0000   -0.4557    0.0000 C   0  0  0  0  0  0  0  0  0  0  0  0
    6.3301   -0.9557    0.0000 C   0  0  0  0  0  0  0  0  0  0  0  0
    5.4641   -2.4557    0.0000 C   0  0  0  0  0  0  0  0  0  0  0  0
    6.3301   -1.9557    0.0000 C   0  0  0  0  0  0  0  0  0  0  0  0
    5.5054    3.1897    0.0000 C   0  0  0  0  0  0  0  0  0  0  0  0
    5.8061    1.4840    0.0000 C   0  0  0  0  0  0  0  0  0  0  0  0
    4.8626    3.9557    0.0000 C   0  0  0  0  0  0  0  0  0  0  0  0
    6.4902    3.3633    0.0000 C   0  0  0  0  0  0  0  0  0  0  0  0
    4.2690   -0.1457    0.0000 H   0  0  0  0  0  0  0  0  0  0  0  0
    2.4675   -1.4307    0.0000 H   0  0  0  0  0  0  0  0  0  0  0  0
    3.2646   -1.4307    0.0000 H   0  0  0  0  0  0  0  0  0  0  0  0
    4.3520    0.5443    0.0000 H   0  0  0  0  0  0  0  0  0  0  0  0
    3.7320    1.1643    0.0000 H   0  0  0  0  0  0  0  0  0  0  0  0
    3.1120    0.5443    0.0000 H   0  0  0  0  0  0  0  0  0  0  0  0
    4.0611   -2.2657    0.0000 H   0  0  0  0  0  0  0  0  0  0  0  0
    2.3100    0.0812    0.0000 H   0  0  0  0  0  0  0  0  0  0  0  0
    1.4631   -0.1457    0.0000 H   0  0  0  0  0  0  0  0  0  0  0  0
    1.6900   -0.9927    0.0000 H   0  0  0  0  0  0  0  0  0  0  0  0
    6.8671   -2.2657    0.0000 H   0  0  0  0  0  0  0  0  0  0  0  0
    4.8948    3.0820    0.0000 H   0  0  0  0  0  0  0  0  0  0  0  0
    5.3375    4.3543    0.0000 H   0  0  0  0  0  0  0  0  0  0  0  0
    4.4640    4.4307    0.0000 H   0  0  0  0  0  0  0  0  0  0  0  0
    4.3876    3.5572    0.0000 H   0  0  0  0  0  0  0  0  0  0  0  0
    6.5978    2.7528    0.0000 H   0  0  0  0  0  0  0  0  0  0  0  0
    7.1007    3.4710    0.0000 H   0  0  0  0  0  0  0  0  0  0  0  0
    6.3825    3.9739    0.0000 H   0  0  0  0  0  0  0  0  0  0  0  0
  1 14  1  0  0  0  0
  1 21  1  0  0  0  0
  2 20  1  0  0  0  0
  2 21  1  0  0  0  0
  3  8  1  0  0  0  0
  4  8  2  0  0  0  0
  5  9  1  0  0  0  0
  6  9  2  0  0  0  0
  7 21  2  0  0  0  0
  8 17  1  0  0  0  0
  9 18  1  0  0  0  0
 10 11  1  0  0  0  0
 10 12  1  0  0  0  0
 10 13  1  0  0  0  0
 10 24  1  0  0  0  0
 11 14  2  0  0  0  0
 11 15  1  0  0  0  0
 12 16  1  0  0  0  0
 12 25  1  0  0  0  0
 12 26  1  0  0  0  0
 13 27  1  0  0  0  0
 13 28  1  0  0  0  0
 13 29  1  0  0  0  0
 14 17  1  0  0  0  0
 15 18  2  0  0  0  0
 15 30  1  0  0  0  0
 16 31  1  0  0  0  0
 16 32  1  0  0  0  0
 16 33  1  0  0  0  0
 17 19  2  0  0  0  0
 18 19  1  0  0  0  0
 19 34  1  0  0  0  0
 20 22  1  0  0  0  0
 20 23  1  0  0  0  0
 20 35  1  0  0  0  0
 22 36  1  0  0  0  0
 22 37  1  0  0  0  0
 22 38  1  0  0  0  0
 23 39  1  0  0  0  0
 23 40  1  0  0  0  0
 23 41  1  0  0  0  0
M  CHG  4   3  -1   5  -1   8   1   9   1
M  END
> <PUBCHEM_COMPOUND_CID>
13783

> <PUBCHEM_COMPOUND_CANONICALIZED>
1

> <PUBCHEM_CACTVS_COMPLEXITY>
443

> <PUBCHEM_CACTVS_HBOND_ACCEPTOR>
7

> <PUBCHEM_CACTVS_HBOND_DONOR>
0

> <PUBCHEM_CACTVS_ROTATABLE_BOND>
6

> <PUBCHEM_CACTVS_SUBSKEYS>
AAADceBzOAAAAAAAAAAAAAAAAAAAAAAAAAAwAAAAAAAAAAABAAAAHgAEAAAADRyhmAIyzoAQRACJAiRCSwCCCAAgIgAgiAAFbIoeJiKE8duhMiBkwFEM6AewwOAOgEAAQAQIEAAAgACACBAgAAAAAAAAAA==

> <PUBCHEM_IUPAC_OPENEYE_NAME>
(2,4-dinitro-6-sec-butyl-phenyl) isopropyl carbonate

> <PUBCHEM_IUPAC_CAS_NAME>
carbonic acid (2-butan-2-yl-4,6-dinitrophenyl) propan-2-yl ester

> <PUBCHEM_IUPAC_NAME>
(2-butan-2-yl-4,6-dinitrophenyl) propan-2-yl carbonate

> <PUBCHEM_IUPAC_SYSTEMATIC_NAME>
(2-butan-2-yl-4,6-dinitro-phenyl) propan-2-yl carbonate

> <PUBCHEM_IUPAC_TRADITIONAL_NAME>
carbonic acid (2,4-dinitro-6-sec-butyl-phenyl) isopropyl ester

> <PUBCHEM_IUPAC_INCHI>
InChI=1S/C14H18N2O7/c1-5-9(4)11-6-10(15(18)19)7-12(16(20)21)13(11)23-14(17)22-8(2)3/h6-9H,5H2,1-4H3

> <PUBCHEM_IUPAC_INCHIKEY>
HDWLUGYOLUHEMN-UHFFFAOYSA-N

> <PUBCHEM_XLOGP3>
4.3

> <PUBCHEM_EXACT_MASS>
326.111401

> <PUBCHEM_MOLECULAR_FORMULA>
C14H18N2O7

> <PUBCHEM_MOLECULAR_WEIGHT>
326.30192

> <PUBCHEM_OPENEYE_CAN_SMILES>
CCC(C)C1=CC(=CC(=C1OC(=O)OC(C)C)[N+](=O)[O-])[N+](=O)[O-]

> <PUBCHEM_OPENEYE_ISO_SMILES>
CCC(C)C1=CC(=CC(=C1OC(=O)OC(C)C)[N+](=O)[O-])[N+](=O)[O-]

> <PUBCHEM_CACTVS_TPSA>
127

> <PUBCHEM_MONOISOTOPIC_WEIGHT>
326.111401

> <PUBCHEM_TOTAL_CHARGE>
0

> <PUBCHEM_HEAVY_ATOM_COUNT>
23

> <PUBCHEM_ATOM_DEF_STEREO_COUNT>
0

> <PUBCHEM_ATOM_UDEF_STEREO_COUNT>
1

> <PUBCHEM_BOND_DEF_STEREO_COUNT>
0

> <PUBCHEM_BOND_UDEF_STEREO_COUNT>
0

> <PUBCHEM_ISOTOPIC_ATOM_COUNT>
0

> <PUBCHEM_COMPONENT_COUNT>
1

> <PUBCHEM_CACTVS_TAUTO_COUNT>
1

> <PUBCHEM_COORDINATE_TYPE>
1
5
255

> <PUBCHEM_BONDANNOTATIONS>
10  13  3
11  14  8
11  15  8
14  17  8
15  18  8
17  19  8
18  19  8

$$$$

