17395570
  -OEChem-06241222512D

 38 40  0     0  0  0  0  0  0999 V2000
    5.4641   -0.0352    0.0000 S   0  0  0  0  0  0  0  0  0  0  0  0
    2.0000   -3.0352    0.0000 F   0  0  0  0  0  0  0  0  0  0  0  0
    3.7320   -2.0352    0.0000 O   0  0  0  0  0  0  0  0  0  0  0  0
    6.2731    1.5526    0.0000 N   0  0  0  0  0  0  0  0  0  0  0  0
    4.9641    2.5036    0.0000 N   0  0  0  0  0  0  0  0  0  0  0  0
    4.6551    1.5526    0.0000 N   0  0  0  0  0  0  0  0  0  0  0  0
    8.1342    4.0171    0.0000 N   0  0  0  0  0  0  0  0  0  0  0  0
    5.9641    2.5036    0.0000 C   0  0  0  0  0  0  0  0  0  0  0  0
    5.4641    0.9648    0.0000 C   0  0  0  0  0  0  0  0  0  0  0  0
    6.5519    3.3126    0.0000 C   0  0  0  0  0  0  0  0  0  0  0  0
    4.5981   -0.5352    0.0000 C   0  0  0  0  0  0  0  0  0  0  0  0
    4.5981   -1.5352    0.0000 C   0  0  0  0  0  0  0  0  0  0  0  0
    7.2242    1.2436    0.0000 C   0  0  0  0  0  0  0  0  0  0  0  0
    6.1452    4.2262    0.0000 C   0  0  0  0  0  0  0  0  0  0  0  0
    7.5464    3.2081    0.0000 C   0  0  0  0  0  0  0  0  0  0  0  0
    3.7320   -3.0352    0.0000 C   0  0  0  0  0  0  0  0  0  0  0  0
    6.7329    5.0352    0.0000 C   0  0  0  0  0  0  0  0  0  0  0  0
    2.8660   -3.5352    0.0000 C   0  0  0  0  0  0  0  0  0  0  0  0
    4.5981   -3.5352    0.0000 C   0  0  0  0  0  0  0  0  0  0  0  0
    7.7275    4.9307    0.0000 C   0  0  0  0  0  0  0  0  0  0  0  0
    2.8660   -4.5352    0.0000 C   0  0  0  0  0  0  0  0  0  0  0  0
    4.5981   -4.5352    0.0000 C   0  0  0  0  0  0  0  0  0  0  0  0
    3.7320   -5.0352    0.0000 C   0  0  0  0  0  0  0  0  0  0  0  0
    4.3860    0.0474    0.0000 H   0  0  0  0  0  0  0  0  0  0  0  0
    3.9875   -0.6429    0.0000 H   0  0  0  0  0  0  0  0  0  0  0  0
    4.8101   -2.1178    0.0000 H   0  0  0  0  0  0  0  0  0  0  0  0
    5.2087   -1.4276    0.0000 H   0  0  0  0  0  0  0  0  0  0  0  0
    7.0326    0.6539    0.0000 H   0  0  0  0  0  0  0  0  0  0  0  0
    7.8138    1.0520    0.0000 H   0  0  0  0  0  0  0  0  0  0  0  0
    7.4158    1.8332    0.0000 H   0  0  0  0  0  0  0  0  0  0  0  0
    5.5286    4.2910    0.0000 H   0  0  0  0  0  0  0  0  0  0  0  0
    7.7986    2.6417    0.0000 H   0  0  0  0  0  0  0  0  0  0  0  0
    6.4808    5.6016    0.0000 H   0  0  0  0  0  0  0  0  0  0  0  0
    5.1350   -3.2252    0.0000 H   0  0  0  0  0  0  0  0  0  0  0  0
    8.0919    5.4323    0.0000 H   0  0  0  0  0  0  0  0  0  0  0  0
    2.3291   -4.8452    0.0000 H   0  0  0  0  0  0  0  0  0  0  0  0
    5.1350   -4.8452    0.0000 H   0  0  0  0  0  0  0  0  0  0  0  0
    3.7320   -5.6552    0.0000 H   0  0  0  0  0  0  0  0  0  0  0  0
  1  9  1  0  0  0  0
  1 11  1  0  0  0  0
  2 18  1  0  0  0  0
  3 12  1  0  0  0  0
  3 16  1  0  0  0  0
  4  8  1  0  0  0  0
  4  9  1  0  0  0  0
  4 13  1  0  0  0  0
  5  6  1  0  0  0  0
  5  8  2  0  0  0  0
  6  9  2  0  0  0  0
  7 15  1  0  0  0  0
  7 20  2  0  0  0  0
  8 10  1  0  0  0  0
 10 14  1  0  0  0  0
 10 15  2  0  0  0  0
 11 12  1  0  0  0  0
 11 24  1  0  0  0  0
 11 25  1  0  0  0  0
 12 26  1  0  0  0  0
 12 27  1  0  0  0  0
 13 28  1  0  0  0  0
 13 29  1  0  0  0  0
 13 30  1  0  0  0  0
 14 17  2  0  0  0  0
 14 31  1  0  0  0  0
 15 32  1  0  0  0  0
 16 18  1  0  0  0  0
 16 19  2  0  0  0  0
 17 20  1  0  0  0  0
 17 33  1  0  0  0  0
 18 21  2  0  0  0  0
 19 22  1  0  0  0  0
 19 34  1  0  0  0  0
 20 35  1  0  0  0  0
 21 23  1  0  0  0  0
 21 36  1  0  0  0  0
 22 23  2  0  0  0  0
 22 37  1  0  0  0  0
 23 38  1  0  0  0  0
M  END
> <PUBCHEM_COMPOUND_CID>
17395570

> <PUBCHEM_COMPOUND_CANONICALIZED>
1

> <PUBCHEM_CACTVS_COMPLEXITY>
365

> <PUBCHEM_CACTVS_HBOND_ACCEPTOR>
6

> <PUBCHEM_CACTVS_HBOND_DONOR>
0

> <PUBCHEM_CACTVS_ROTATABLE_BOND>
6

> <PUBCHEM_CACTVS_SUBSKEYS>
AAADccB7oQBAAAAAAAAAAAAAAAAAAWAAAAA8QAAAAAAAAAAB8AAAHwQIAAAADATl2w6/lpcMFAiiAjJnZACS2CtxIrAd2CA+bJiMLuLE+ZuGOCjkyBPI6AeQQAAMAAAAAAAAAAAAAAAAAAAAAAAAAAAAAA==

> <PUBCHEM_IUPAC_OPENEYE_NAME>
3-[5-[2-(2-fluorophenoxy)ethylsulfanyl]-4-methyl-1,2,4-triazol-3-yl]pyridine

> <PUBCHEM_IUPAC_CAS_NAME>
3-[5-[2-(2-fluorophenoxy)ethylthio]-4-methyl-1,2,4-triazol-3-yl]pyridine

> <PUBCHEM_IUPAC_NAME>
3-[5-[2-(2-fluorophenoxy)ethylsulfanyl]-4-methyl-1,2,4-triazol-3-yl]pyridine

> <PUBCHEM_IUPAC_SYSTEMATIC_NAME>
3-[5-[2-(2-fluoranylphenoxy)ethylsulfanyl]-4-methyl-1,2,4-triazol-3-yl]pyridine

> <PUBCHEM_IUPAC_TRADITIONAL_NAME>
3-[5-[2-(2-fluorophenoxy)ethylthio]-4-methyl-1,2,4-triazol-3-yl]pyridine

> <PUBCHEM_IUPAC_INCHI>
InChI=1S/C16H15FN4OS/c1-21-15(12-5-4-8-18-11-12)19-20-16(21)23-10-9-22-14-7-3-2-6-13(14)17/h2-8,11H,9-10H2,1H3

> <PUBCHEM_IUPAC_INCHIKEY>
MNORHAHNWMHICJ-UHFFFAOYSA-N

> <PUBCHEM_XLOGP3_AA>
2.6

> <PUBCHEM_EXACT_MASS>
330.09506

> <PUBCHEM_MOLECULAR_FORMULA>
C16H15FN4OS

> <PUBCHEM_MOLECULAR_WEIGHT>
330.379903

> <PUBCHEM_OPENEYE_CAN_SMILES>
CN1C(=NN=C1SCCOC2=CC=CC=C2F)C3=CN=CC=C3

> <PUBCHEM_OPENEYE_ISO_SMILES>
CN1C(=NN=C1SCCOC2=CC=CC=C2F)C3=CN=CC=C3

> <PUBCHEM_CACTVS_TPSA>
78.1

> <PUBCHEM_MONOISOTOPIC_WEIGHT>
330.09506

> <PUBCHEM_TOTAL_CHARGE>
0

> <PUBCHEM_HEAVY_ATOM_COUNT>
23

> <PUBCHEM_ATOM_DEF_STEREO_COUNT>
0

> <PUBCHEM_ATOM_UDEF_STEREO_COUNT>
0

> <PUBCHEM_BOND_DEF_STEREO_COUNT>
0

> <PUBCHEM_BOND_UDEF_STEREO_COUNT>
0

> <PUBCHEM_ISOTOPIC_ATOM_COUNT>
0

> <PUBCHEM_COMPONENT_COUNT>
1

> <PUBCHEM_CACTVS_TAUTO_COUNT>
1

> <PUBCHEM_COORDINATE_TYPE>
1
5
255

> <PUBCHEM_BONDANNOTATIONS>
10  14  8
10  15  8
14  17  8
16  18  8
16  19  8
17  20  8
18  21  8
19  22  8
21  23  8
22  23  8
4  8  8
4  9  8
5  6  8
5  8  8
6  9  8
7  15  8
7  20  8

$$$$

