17396162
  -OEChem-06241222542D

 35 37  0     0  0  0  0  0  0999 V2000
    4.5981   -1.5546    0.0000 S   0  0  0  0  0  0  0  0  0  0  0  0
    5.4071    0.0332    0.0000 S   0  0  0  0  0  0  0  0  0  0  0  0
    2.0000   -3.0546    0.0000 F   0  0  0  0  0  0  0  0  0  0  0  0
    7.1759    4.4668    0.0000 O   0  0  0  0  0  0  0  0  0  0  0  0
    4.2846    2.8113    0.0000 O   0  0  0  0  0  0  0  0  0  0  0  0
    5.6859    1.7932    0.0000 N   0  0  0  0  0  0  0  0  0  0  0  0
    4.0981    0.9842    0.0000 N   0  0  0  0  0  0  0  0  0  0  0  0
    3.7891    0.0332    0.0000 N   0  0  0  0  0  0  0  0  0  0  0  0
    5.8669    3.5158    0.0000 C   0  0  0  0  0  0  0  0  0  0  0  0
    3.7320   -3.0546    0.0000 C   0  0  0  0  0  0  0  0  0  0  0  0
    6.8669    3.5158    0.0000 C   0  0  0  0  0  0  0  0  0  0  0  0
    3.7320   -2.0546    0.0000 C   0  0  0  0  0  0  0  0  0  0  0  0
    5.2791    2.7068    0.0000 C   0  0  0  0  0  0  0  0  0  0  0  0
    5.5579    4.4668    0.0000 C   0  0  0  0  0  0  0  0  0  0  0  0
    2.8660   -3.5546    0.0000 C   0  0  0  0  0  0  0  0  0  0  0  0
    4.5981   -3.5546    0.0000 C   0  0  0  0  0  0  0  0  0  0  0  0
    7.4547    2.7068    0.0000 C   0  0  0  0  0  0  0  0  0  0  0  0
    6.3669    5.0546    0.0000 C   0  0  0  0  0  0  0  0  0  0  0  0
    5.0981    0.9842    0.0000 C   0  0  0  0  0  0  0  0  0  0  0  0
    2.8660   -4.5546    0.0000 C   0  0  0  0  0  0  0  0  0  0  0  0
    4.5981   -4.5546    0.0000 C   0  0  0  0  0  0  0  0  0  0  0  0
    4.5981   -0.5546    0.0000 C   0  0  0  0  0  0  0  0  0  0  0  0
    3.7320   -5.0546    0.0000 C   0  0  0  0  0  0  0  0  0  0  0  0
    3.5200   -1.4720    0.0000 H   0  0  0  0  0  0  0  0  0  0  0  0
    3.1215   -2.1623    0.0000 H   0  0  0  0  0  0  0  0  0  0  0  0
    4.9682    4.6584    0.0000 H   0  0  0  0  0  0  0  0  0  0  0  0
    5.1350   -3.2446    0.0000 H   0  0  0  0  0  0  0  0  0  0  0  0
    6.9531    2.3424    0.0000 H   0  0  0  0  0  0  0  0  0  0  0  0
    7.8191    2.2052    0.0000 H   0  0  0  0  0  0  0  0  0  0  0  0
    7.9563    3.0712    0.0000 H   0  0  0  0  0  0  0  0  0  0  0  0
    6.3025    1.7284    0.0000 H   0  0  0  0  0  0  0  0  0  0  0  0
    6.3669    5.6746    0.0000 H   0  0  0  0  0  0  0  0  0  0  0  0
    2.3291   -4.8646    0.0000 H   0  0  0  0  0  0  0  0  0  0  0  0
    5.1350   -4.8646    0.0000 H   0  0  0  0  0  0  0  0  0  0  0  0
    3.7320   -5.6746    0.0000 H   0  0  0  0  0  0  0  0  0  0  0  0
  1 12  1  0  0  0  0
  1 22  1  0  0  0  0
  2 19  1  0  0  0  0
  2 22  1  0  0  0  0
  3 15  1  0  0  0  0
  4 11  1  0  0  0  0
  4 18  1  0  0  0  0
  5 13  2  0  0  0  0
  6 13  1  0  0  0  0
  6 19  1  0  0  0  0
  6 31  1  0  0  0  0
  7  8  1  0  0  0  0
  7 19  2  0  0  0  0
  8 22  2  0  0  0  0
  9 11  2  0  0  0  0
  9 13  1  0  0  0  0
  9 14  1  0  0  0  0
 10 12  1  0  0  0  0
 10 15  1  0  0  0  0
 10 16  2  0  0  0  0
 11 17  1  0  0  0  0
 12 24  1  0  0  0  0
 12 25  1  0  0  0  0
 14 18  2  0  0  0  0
 14 26  1  0  0  0  0
 15 20  2  0  0  0  0
 16 21  1  0  0  0  0
 16 27  1  0  0  0  0
 17 28  1  0  0  0  0
 17 29  1  0  0  0  0
 17 30  1  0  0  0  0
 18 32  1  0  0  0  0
 20 23  1  0  0  0  0
 20 33  1  0  0  0  0
 21 23  2  0  0  0  0
 21 34  1  0  0  0  0
 23 35  1  0  0  0  0
M  END
> <PUBCHEM_COMPOUND_CID>
17396162

> <PUBCHEM_COMPOUND_CANONICALIZED>
1

> <PUBCHEM_CACTVS_COMPLEXITY>
418

> <PUBCHEM_CACTVS_HBOND_ACCEPTOR>
7

> <PUBCHEM_CACTVS_HBOND_DONOR>
1

> <PUBCHEM_CACTVS_ROTATABLE_BOND>
5

> <PUBCHEM_CACTVS_SUBSKEYS>
AAADccBzMQBgAAAAAAAAAAAAAAAAAWJAAAAwAAAAAAAAAAAB8AAAHwQYAAAADASl2AqzFILABEiuAqlSsACSCQJkIBkNiAEGDMiMJj6svRuGOWj24RMIqYevgAAOAAAAAAAAAAAAAAAAAAAAAAAAAAAAAA==

> <PUBCHEM_IUPAC_OPENEYE_NAME>
N-[5-[(2-fluorophenyl)methylsulfanyl]-1,3,4-thiadiazol-2-yl]-2-methyl-furan-3-carboxamide

> <PUBCHEM_IUPAC_CAS_NAME>
N-[5-[(2-fluorophenyl)methylthio]-1,3,4-thiadiazol-2-yl]-2-methyl-3-furancarboxamide

> <PUBCHEM_IUPAC_NAME>
N-[5-[(2-fluorophenyl)methylsulfanyl]-1,3,4-thiadiazol-2-yl]-2-methylfuran-3-carboxamide

> <PUBCHEM_IUPAC_SYSTEMATIC_NAME>
N-[5-[(2-fluorophenyl)methylsulfanyl]-1,3,4-thiadiazol-2-yl]-2-methyl-furan-3-carboxamide

> <PUBCHEM_IUPAC_TRADITIONAL_NAME>
N-[5-[(2-fluorobenzyl)thio]-1,3,4-thiadiazol-2-yl]-2-methyl-3-furamide

> <PUBCHEM_IUPAC_INCHI>
InChI=1S/C15H12FN3O2S2/c1-9-11(6-7-21-9)13(20)17-14-18-19-15(23-14)22-8-10-4-2-3-5-12(10)16/h2-7H,8H2,1H3,(H,17,18,20)

> <PUBCHEM_IUPAC_INCHIKEY>
IHXUIJYSPRNBGC-UHFFFAOYSA-N

> <PUBCHEM_XLOGP3_AA>
3.4

> <PUBCHEM_EXACT_MASS>
349.035497

> <PUBCHEM_MOLECULAR_FORMULA>
C15H12FN3O2S2

> <PUBCHEM_MOLECULAR_WEIGHT>
349.403083

> <PUBCHEM_OPENEYE_CAN_SMILES>
CC1=C(C=CO1)C(=O)NC2=NN=C(S2)SCC3=CC=CC=C3F

> <PUBCHEM_OPENEYE_ISO_SMILES>
CC1=C(C=CO1)C(=O)NC2=NN=C(S2)SCC3=CC=CC=C3F

> <PUBCHEM_CACTVS_TPSA>
122

> <PUBCHEM_MONOISOTOPIC_WEIGHT>
349.035497

> <PUBCHEM_TOTAL_CHARGE>
0

> <PUBCHEM_HEAVY_ATOM_COUNT>
23

> <PUBCHEM_ATOM_DEF_STEREO_COUNT>
0

> <PUBCHEM_ATOM_UDEF_STEREO_COUNT>
0

> <PUBCHEM_BOND_DEF_STEREO_COUNT>
0

> <PUBCHEM_BOND_UDEF_STEREO_COUNT>
0

> <PUBCHEM_ISOTOPIC_ATOM_COUNT>
0

> <PUBCHEM_COMPONENT_COUNT>
1

> <PUBCHEM_CACTVS_TAUTO_COUNT>
3

> <PUBCHEM_COORDINATE_TYPE>
1
5
255

> <PUBCHEM_BONDANNOTATIONS>
10  15  8
10  16  8
14  18  8
15  20  8
16  21  8
2  19  8
2  22  8
20  23  8
21  23  8
4  11  8
4  18  8
7  19  8
7  8  8
8  22  8
9  11  8
9  14  8

$$$$

