441742
  -OEChem-07051212552D

 62 67  0     1  0  0  0  0  0999 V2000
    3.8375   -1.4526    0.0000 O   0  0  0  0  0  0  0  0  0  0  0  0
    7.1777    1.1404    0.0000 O   0  0  0  0  0  0  0  0  0  0  0  0
    3.4608    0.7145    0.0000 O   0  0  0  0  0  0  0  0  0  0  0  0
    3.0600    1.5983    0.0000 O   0  0  0  0  0  0  0  0  0  0  0  0
    8.3730   -0.6887    0.0000 N   0  0  3  0  0  0  0  0  0  0  0  0
    6.4264   -0.2934    0.0000 C   0  0  2  0  0  0  0  0  0  0  0  0
    5.7480    0.2475    0.0000 C   0  0  1  0  0  0  0  0  0  0  0  0
    6.4264   -1.1610    0.0000 C   0  0  2  0  0  0  0  0  0  0  0  0
    7.4283   -0.3995    0.0000 C   0  0  3  0  0  0  0  0  0  0  0  0
    4.9022   -1.5089    0.0000 C   0  0  1  0  0  0  0  0  0  0  0  0
    4.9022    0.0544    0.0000 C   0  0  1  0  0  0  0  0  0  0  0  0
    4.5258   -0.7272    0.0000 C   0  0  1  0  0  0  0  0  0  0  0  0
    5.7480   -1.7019    0.0000 C   0  0  0  0  0  0  0  0  0  0  0  0
    7.1777   -1.5948    0.0000 C   0  0  2  0  0  0  0  0  0  0  0  0
    7.1777    0.1404    0.0000 C   0  0  2  0  0  0  0  0  0  0  0  0
    5.8258    1.1116    0.0000 C   0  0  0  0  0  0  0  0  0  0  0  0
    5.0281    1.4526    0.0000 C   0  0  1  0  0  0  0  0  0  0  0  0
    4.4572    0.7992    0.0000 C   0  0  2  0  0  0  0  0  0  0  0  0
    3.8809   -0.4573    0.0000 C   0  0  0  0  0  0  0  0  0  0  0  0
    8.3730   -1.4406    0.0000 C   0  0  0  0  0  0  0  0  0  0  0  0
    7.9290   -1.1610    0.0000 C   0  0  0  0  0  0  0  0  0  0  0  0
    3.8809    1.0272    0.0000 C   0  0  2  0  0  0  0  0  0  0  0  0
    7.9290   -0.2934    0.0000 C   0  0  0  0  0  0  0  0  0  0  0  0
    7.1777   -2.5948    0.0000 C   0  0  0  0  0  0  0  0  0  0  0  0
    9.1770   -0.0940    0.0000 C   0  0  0  0  0  0  0  0  0  0  0  0
   10.0940   -0.4929    0.0000 C   0  0  0  0  0  0  0  0  0  0  0  0
    3.1442    2.5948    0.0000 C   0  0  0  0  0  0  0  0  0  0  0  0
    6.5296    0.5816    0.0000 H   0  0  0  0  0  0  0  0  0  0  0  0
    6.4899   -2.0086    0.0000 H   0  0  0  0  0  0  0  0  0  0  0  0
    7.5523    0.2080    0.0000 H   0  0  0  0  0  0  0  0  0  0  0  0
    4.3722   -2.1734    0.0000 H   0  0  0  0  0  0  0  0  0  0  0  0
    4.0531    0.0163    0.0000 H   0  0  0  0  0  0  0  0  0  0  0  0
    6.2328   -2.0885    0.0000 H   0  0  0  0  0  0  0  0  0  0  0  0
    5.4790   -2.2605    0.0000 H   0  0  0  0  0  0  0  0  0  0  0  0
    6.6408    0.4504    0.0000 H   0  0  0  0  0  0  0  0  0  0  0  0
    6.0086    1.7040    0.0000 H   0  0  0  0  0  0  0  0  0  0  0  0
    6.4341    0.9918    0.0000 H   0  0  0  0  0  0  0  0  0  0  0  0
    5.0488    2.3023    0.0000 H   0  0  0  0  0  0  0  0  0  0  0  0
    4.1772    1.3523    0.0000 H   0  0  0  0  0  0  0  0  0  0  0  0
    3.7190   -1.0558    0.0000 H   0  0  0  0  0  0  0  0  0  0  0  0
    3.2663   -0.3756    0.0000 H   0  0  0  0  0  0  0  0  0  0  0  0
    8.9924   -1.4140    0.0000 H   0  0  0  0  0  0  0  0  0  0  0  0
    8.4260   -2.0583    0.0000 H   0  0  0  0  0  0  0  0  0  0  0  0
    8.5396   -1.0534    0.0000 H   0  0  0  0  0  0  0  0  0  0  0  0
    8.1411   -1.7436    0.0000 H   0  0  0  0  0  0  0  0  0  0  0  0
    3.9591    1.6423    0.0000 H   0  0  0  0  0  0  0  0  0  0  0  0
    8.1411    0.2892    0.0000 H   0  0  0  0  0  0  0  0  0  0  0  0
    8.5396   -0.4011    0.0000 H   0  0  0  0  0  0  0  0  0  0  0  0
    7.7977   -2.5948    0.0000 H   0  0  0  0  0  0  0  0  0  0  0  0
    7.1777   -3.2148    0.0000 H   0  0  0  0  0  0  0  0  0  0  0  0
    6.5577   -2.5948    0.0000 H   0  0  0  0  0  0  0  0  0  0  0  0
    3.2346   -1.3079    0.0000 H   0  0  0  0  0  0  0  0  0  0  0  0
    8.7273    0.3329    0.0000 H   0  0  0  0  0  0  0  0  0  0  0  0
    9.5193    0.4230    0.0000 H   0  0  0  0  0  0  0  0  0  0  0  0
    7.7146    1.4504    0.0000 H   0  0  0  0  0  0  0  0  0  0  0  0
    3.1974    0.1533    0.0000 H   0  0  0  0  0  0  0  0  0  0  0  0
   10.3413    0.0756    0.0000 H   0  0  0  0  0  0  0  0  0  0  0  0
   10.6625   -0.7402    0.0000 H   0  0  0  0  0  0  0  0  0  0  0  0
    9.8466   -1.0614    0.0000 H   0  0  0  0  0  0  0  0  0  0  0  0
    2.5264    2.6470    0.0000 H   0  0  0  0  0  0  0  0  0  0  0  0
    3.1964    3.2126    0.0000 H   0  0  0  0  0  0  0  0  0  0  0  0
    3.7620    2.5426    0.0000 H   0  0  0  0  0  0  0  0  0  0  0  0
 12  1  1  6  0  0  0
  1 52  1  0  0  0  0
 15  2  1  1  0  0  0
  2 55  1  0  0  0  0
 18  3  1  1  0  0  0
  3 56  1  0  0  0  0
 22  4  1  6  0  0  0
  4 27  1  0  0  0  0
  5  9  1  0  0  0  0
  5 20  1  0  0  0  0
  5 25  1  0  0  0  0
  6  7  1  0  0  0  0
  6  8  1  0  0  0  0
  6  9  1  0  0  0  0
  6 15  1  6  0  0  0
  7 11  1  0  0  0  0
  7 16  1  0  0  0  0
  7 28  1  6  0  0  0
  8 13  1  0  0  0  0
  8 14  1  0  0  0  0
  8 29  1  6  0  0  0
  9 10  1  0  0  0  0
  9 30  1  0  0  0  0
 10 12  1  0  0  0  0
 10 13  1  0  0  0  0
 10 31  1  1  0  0  0
 11 12  1  0  0  0  0
 11 18  1  0  0  0  0
 11 32  1  6  0  0  0
 12 19  1  0  0  0  0
 13 33  1  0  0  0  0
 13 34  1  0  0  0  0
 14 20  1  0  0  0  0
 14 21  1  0  0  0  0
 14 24  1  6  0  0  0
 15 23  1  0  0  0  0
 15 35  1  0  0  0  0
 16 17  1  0  0  0  0
 16 36  1  0  0  0  0
 16 37  1  0  0  0  0
 17 18  1  0  0  0  0
 17 22  1  0  0  0  0
 17 38  1  6  0  0  0
 18 39  1  0  0  0  0
 19 22  1  0  0  0  0
 19 40  1  0  0  0  0
 19 41  1  0  0  0  0
 20 42  1  0  0  0  0
 20 43  1  0  0  0  0
 21 23  1  0  0  0  0
 21 44  1  0  0  0  0
 21 45  1  0  0  0  0
 22 46  1  0  0  0  0
 23 47  1  0  0  0  0
 23 48  1  0  0  0  0
 24 49  1  0  0  0  0
 24 50  1  0  0  0  0
 24 51  1  0  0  0  0
 25 26  1  0  0  0  0
 25 53  1  0  0  0  0
 25 54  1  0  0  0  0
 26 57  1  0  0  0  0
 26 58  1  0  0  0  0
 26 59  1  0  0  0  0
 27 60  1  0  0  0  0
 27 61  1  0  0  0  0
 27 62  1  0  0  0  0
M  END
> <PUBCHEM_COMPOUND_CID>
441742

> <PUBCHEM_COMPOUND_CANONICALIZED>
1

> <PUBCHEM_CACTVS_COMPLEXITY>
673

> <PUBCHEM_CACTVS_HBOND_ACCEPTOR>
5

> <PUBCHEM_CACTVS_HBOND_DONOR>
3

> <PUBCHEM_CACTVS_ROTATABLE_BOND>
2

> <PUBCHEM_CACTVS_SUBSKEYS>
AAADcfB6OAAAAAAAAAAAAAAAAAAAAYMAAAA8YMEAB4gWAGAAAAAAHgAACAAAD3zhgAYCAAMABgAAAAAAAAAAAAAAAAAAAAAIAAAAEAIAgAAEQAAHAACAAAGQ8P8PgAAAAAAAAADQAAaUADQAAaAADQAAAA==

> <PUBCHEM_IUPAC_INCHI>
InChI=1S/C22H35NO4/c1-4-23-10-20(2)6-5-16(24)22-12-7-11-14(27-3)9-21(26,17(12)18(11)25)13(19(22)23)8-15(20)22/h11-19,24-26H,4-10H2,1-3H3/t11-,12-,13+,14+,15-,16+,17-,18+,19?,20+,21+,22-/m1/s1

> <PUBCHEM_IUPAC_INCHIKEY>
HKQZUYOVMYOFIT-VHNBHZRZSA-N

> <PUBCHEM_XLOGP3_AA>
1.1

> <PUBCHEM_EXACT_MASS>
377.256609

> <PUBCHEM_MOLECULAR_FORMULA>
C22H35NO4

> <PUBCHEM_MOLECULAR_WEIGHT>
377.5176

> <PUBCHEM_OPENEYE_CAN_SMILES>
CCN1CC2(CCC(C34C2CC(C31)C5(CC(C6CC4C5C6O)OC)O)O)C

> <PUBCHEM_OPENEYE_ISO_SMILES>
CCN1C[C@@]2(CC[C@@H]([C@@]34[C@@H]2C[C@@H](C31)[C@]5(C[C@@H]([C@H]6C[C@@H]4[C@@H]5[C@H]6O)OC)O)O)C

> <PUBCHEM_CACTVS_TPSA>
73.2

> <PUBCHEM_MONOISOTOPIC_WEIGHT>
377.256609

> <PUBCHEM_TOTAL_CHARGE>
0

> <PUBCHEM_HEAVY_ATOM_COUNT>
27

> <PUBCHEM_ATOM_DEF_STEREO_COUNT>
11

> <PUBCHEM_ATOM_UDEF_STEREO_COUNT>
1

> <PUBCHEM_BOND_DEF_STEREO_COUNT>
0

> <PUBCHEM_BOND_UDEF_STEREO_COUNT>
0

> <PUBCHEM_ISOTOPIC_ATOM_COUNT>
0

> <PUBCHEM_COMPONENT_COUNT>
1

> <PUBCHEM_CACTVS_TAUTO_COUNT>
1

> <PUBCHEM_COORDINATE_TYPE>
1
5
255

> <PUBCHEM_BONDANNOTATIONS>
12  1  6
10  31  5
11  32  6
14  24  6
17  38  6
15  2  5
18  3  5
22  4  6
9  5  3
6  15  6
7  28  6
8  29  6

$$$$

