440140
  -OEChem-07051212482D

 66 68  0     1  0  0  0  0  0999 V2000
    6.1132    0.3567    0.0000 O   0  0  0  0  0  0  0  0  0  0  0  0
    4.2690   -0.3512    0.0000 O   0  0  0  0  0  0  0  0  0  0  0  0
    5.1350   -1.8512    0.0000 O   0  0  0  0  0  0  0  0  0  0  0  0
    7.9497    1.3512    0.0000 O   0  0  0  0  0  0  0  0  0  0  0  0
    3.6405    1.1193    0.0000 O   0  0  0  0  0  0  0  0  0  0  0  0
    5.0962    2.7361    0.0000 O   0  0  0  0  0  0  0  0  0  0  0  0
    9.6818    1.3512    0.0000 O   0  0  0  0  0  0  0  0  0  0  0  0
    2.5369   -1.3512    0.0000 O   0  0  0  0  0  0  0  0  0  0  0  0
    6.2940   -1.1384    0.0000 O   0  0  0  0  0  0  0  0  0  0  0  0
    2.5369   -3.3512    0.0000 O   0  0  0  0  0  0  0  0  0  0  0  0
    4.2690   -4.3512    0.0000 O   0  0  0  0  0  0  0  0  0  0  0  0
    7.9497    3.3512    0.0000 O   0  0  0  0  0  0  0  0  0  0  0  0
    9.6818    4.3512    0.0000 O   0  0  0  0  0  0  0  0  0  0  0  0
   11.4138    3.3512    0.0000 O   0  0  0  0  0  0  0  0  0  0  0  0
    6.0010   -4.3512    0.0000 O   0  0  0  0  0  0  0  0  0  0  0  0
   11.4138    0.3512    0.0000 O   0  0  0  0  0  0  0  0  0  0  0  0
    5.1350    0.1488    0.0000 C   0  0  1  0  0  0  0  0  0  0  0  0
    4.6350    1.0148    0.0000 C   0  0  2  0  0  0  0  0  0  0  0  0
    6.2177    1.3512    0.0000 C   0  0  1  0  0  0  0  0  0  0  0  0
    5.3041    1.7580    0.0000 C   0  0  1  0  0  0  0  0  0  0  0  0
    4.2690   -1.3512    0.0000 C   0  0  1  0  0  0  0  0  0  0  0  0
    7.0837    1.8512    0.0000 C   0  0  0  0  0  0  0  0  0  0  0  0
    3.4030   -1.8512    0.0000 C   0  0  1  0  0  0  0  0  0  0  0  0
    5.3429   -0.8294    0.0000 C   0  0  0  0  0  0  0  0  0  0  0  0
    3.4030   -2.8512    0.0000 C   0  0  2  0  0  0  0  0  0  0  0  0
    4.2690   -3.3512    0.0000 C   0  0  1  0  0  0  0  0  0  0  0  0
    5.1350   -2.8512    0.0000 C   0  0  1  0  0  0  0  0  0  0  0  0
    8.8158    1.8512    0.0000 C   0  0  1  0  0  0  0  0  0  0  0  0
    8.8158    2.8512    0.0000 C   0  0  1  0  0  0  0  0  0  0  0  0
    9.6818    3.3512    0.0000 C   0  0  2  0  0  0  0  0  0  0  0  0
   10.5478    2.8512    0.0000 C   0  0  2  0  0  0  0  0  0  0  0  0
   10.5478    1.8512    0.0000 C   0  0  1  0  0  0  0  0  0  0  0  0
    6.0010   -3.3512    0.0000 C   0  0  0  0  0  0  0  0  0  0  0  0
   11.4138    1.3512    0.0000 C   0  0  0  0  0  0  0  0  0  0  0  0
    4.2973    0.4948    0.0000 H   0  0  0  0  0  0  0  0  0  0  0  0
    6.7377    1.0135    0.0000 H   0  0  0  0  0  0  0  0  0  0  0  0
    4.7053    1.9184    0.0000 H   0  0  0  0  0  0  0  0  0  0  0  0
    3.7320   -1.0412    0.0000 H   0  0  0  0  0  0  0  0  0  0  0  0
    7.4822    2.3262    0.0000 H   0  0  0  0  0  0  0  0  0  0  0  0
    6.6852    2.3262    0.0000 H   0  0  0  0  0  0  0  0  0  0  0  0
    3.4030   -1.2312    0.0000 H   0  0  0  0  0  0  0  0  0  0  0  0
    4.7233   -0.8510    0.0000 H   0  0  0  0  0  0  0  0  0  0  0  0
    5.2566   -1.4433    0.0000 H   0  0  0  0  0  0  0  0  0  0  0  0
    3.4030   -3.4712    0.0000 H   0  0  0  0  0  0  0  0  0  0  0  0
    4.8059   -3.6612    0.0000 H   0  0  0  0  0  0  0  0  0  0  0  0
    5.6720   -2.5412    0.0000 H   0  0  0  0  0  0  0  0  0  0  0  0
    8.2788    2.1612    0.0000 H   0  0  0  0  0  0  0  0  0  0  0  0
    8.2788    2.5412    0.0000 H   0  0  0  0  0  0  0  0  0  0  0  0
    9.1448    3.6612    0.0000 H   0  0  0  0  0  0  0  0  0  0  0  0
   11.0848    2.5412    0.0000 H   0  0  0  0  0  0  0  0  0  0  0  0
   10.5478    1.2312    0.0000 H   0  0  0  0  0  0  0  0  0  0  0  0
    3.3883    1.6857    0.0000 H   0  0  0  0  0  0  0  0  0  0  0  0
    5.5570    3.1510    0.0000 H   0  0  0  0  0  0  0  0  0  0  0  0
    6.6116   -3.4589    0.0000 H   0  0  0  0  0  0  0  0  0  0  0  0
    6.2131   -2.7686    0.0000 H   0  0  0  0  0  0  0  0  0  0  0  0
   12.0244    1.2436    0.0000 H   0  0  0  0  0  0  0  0  0  0  0  0
   11.6259    1.9338    0.0000 H   0  0  0  0  0  0  0  0  0  0  0  0
    2.0000   -1.6612    0.0000 H   0  0  0  0  0  0  0  0  0  0  0  0
    6.4229   -1.7448    0.0000 H   0  0  0  0  0  0  0  0  0  0  0  0
    2.5369   -3.9712    0.0000 H   0  0  0  0  0  0  0  0  0  0  0  0
    3.7320   -4.6612    0.0000 H   0  0  0  0  0  0  0  0  0  0  0  0
    7.9497    3.9712    0.0000 H   0  0  0  0  0  0  0  0  0  0  0  0
   10.2187    4.6612    0.0000 H   0  0  0  0  0  0  0  0  0  0  0  0
   11.9508    3.0412    0.0000 H   0  0  0  0  0  0  0  0  0  0  0  0
    6.5380   -4.6612    0.0000 H   0  0  0  0  0  0  0  0  0  0  0  0
   11.9508    0.0412    0.0000 H   0  0  0  0  0  0  0  0  0  0  0  0
  1 17  1  0  0  0  0
  1 19  1  0  0  0  0
 17  2  1  1  0  0  0
 21  2  1  1  0  0  0
  3 21  1  0  0  0  0
  3 27  1  0  0  0  0
  4 22  1  0  0  0  0
 28  4  1  6  0  0  0
 18  5  1  1  0  0  0
  5 52  1  0  0  0  0
 20  6  1  6  0  0  0
  6 53  1  0  0  0  0
  7 28  1  0  0  0  0
  7 32  1  0  0  0  0
 23  8  1  1  0  0  0
  8 58  1  0  0  0  0
  9 24  1  0  0  0  0
  9 59  1  0  0  0  0
 25 10  1  6  0  0  0
 10 60  1  0  0  0  0
 26 11  1  1  0  0  0
 11 61  1  0  0  0  0
 29 12  1  6  0  0  0
 12 62  1  0  0  0  0
 30 13  1  1  0  0  0
 13 63  1  0  0  0  0
 31 14  1  1  0  0  0
 14 64  1  0  0  0  0
 15 33  1  0  0  0  0
 15 65  1  0  0  0  0
 16 34  1  0  0  0  0
 16 66  1  0  0  0  0
 17 18  1  0  0  0  0
 17 24  1  0  0  0  0
 18 20  1  0  0  0  0
 18 35  1  0  0  0  0
 19 20  1  0  0  0  0
 19 22  1  1  0  0  0
 19 36  1  0  0  0  0
 20 37  1  0  0  0  0
 21 23  1  0  0  0  0
 21 38  1  0  0  0  0
 22 39  1  0  0  0  0
 22 40  1  0  0  0  0
 23 25  1  0  0  0  0
 23 41  1  0  0  0  0
 24 42  1  0  0  0  0
 24 43  1  0  0  0  0
 25 26  1  0  0  0  0
 25 44  1  0  0  0  0
 26 27  1  0  0  0  0
 26 45  1  0  0  0  0
 27 33  1  6  0  0  0
 27 46  1  0  0  0  0
 28 29  1  0  0  0  0
 28 47  1  0  0  0  0
 29 30  1  0  0  0  0
 29 48  1  0  0  0  0
 30 31  1  0  0  0  0
 30 49  1  0  0  0  0
 31 32  1  0  0  0  0
 31 50  1  0  0  0  0
 32 34  1  1  0  0  0
 32 51  1  0  0  0  0
 33 54  1  0  0  0  0
 33 55  1  0  0  0  0
 34 56  1  0  0  0  0
 34 57  1  0  0  0  0
M  END
> <PUBCHEM_COMPOUND_CID>
440140

> <PUBCHEM_COMPOUND_CANONICALIZED>
1

> <PUBCHEM_CACTVS_COMPLEXITY>
655

> <PUBCHEM_CACTVS_HBOND_ACCEPTOR>
16

> <PUBCHEM_CACTVS_HBOND_DONOR>
11

> <PUBCHEM_CACTVS_ROTATABLE_BOND>
8

> <PUBCHEM_CACTVS_SUBSKEYS>
AAADcfB4PgAAAAAAAAAAAAAAAAAAASAAAAAkSAAAAAAAAAAAAAAAGgAACAAACBSwgAMACAAABgAAAAAAAAAAAAAAAAAAAAAAAAAREAIAAAAiQAAFAAAHAAHAYAwAAAAAAAAAAAAAAAAAAAAAAAAAAAAAAA==

> <PUBCHEM_IUPAC_OPENEYE_NAME>
(2S,3R,4S,5R,6R)-2-[[(2R,3S,4S,5S)-3,4-dihydroxy-5-(hydroxymethyl)-5-[(2R,3R,4S,5S,6R)-3,4,5-trihydroxy-6-(hydroxymethyl)tetrahydropyran-2-yl]oxy-tetrahydrofuran-2-yl]methoxy]-6-(hydroxymethyl)tetrahydropyran-3,4,5-triol

> <PUBCHEM_IUPAC_CAS_NAME>
(2S,3R,4S,5R,6R)-2-[[(2R,3S,4S,5S)-3,4-dihydroxy-5-(hydroxymethyl)-5-[[(2R,3R,4S,5S,6R)-3,4,5-trihydroxy-6-(hydroxymethyl)-2-oxanyl]oxy]-2-oxolanyl]methoxy]-6-(hydroxymethyl)oxane-3,4,5-triol

> <PUBCHEM_IUPAC_NAME>
(2S,3R,4S,5R,6R)-2-[[(2R,3S,4S,5S)-3,4-dihydroxy-5-(hydroxymethyl)-5-[(2R,3R,4S,5S,6R)-3,4,5-trihydroxy-6-(hydroxymethyl)oxan-2-yl]oxyoxolan-2-yl]methoxy]-6-(hydroxymethyl)oxane-3,4,5-triol

> <PUBCHEM_IUPAC_SYSTEMATIC_NAME>
(2R,3R,4S,5R,6S)-2-(hydroxymethyl)-6-[[(2R,3S,4S,5S)-5-(hydroxymethyl)-5-[(2R,3R,4S,5S,6R)-6-(hydroxymethyl)-3,4,5-tris(oxidanyl)oxan-2-yl]oxy-3,4-bis(oxidanyl)oxolan-2-yl]methoxy]oxane-3,4,5-triol

> <PUBCHEM_IUPAC_TRADITIONAL_NAME>
(2S,3R,4S,5R,6R)-2-[[(2R,3S,4S,5S)-3,4-dihydroxy-5-methylol-5-[(2R,3R,4S,5S,6R)-3,4,5-trihydroxy-6-methylol-tetrahydropyran-2-yl]oxy-tetrahydrofuran-2-yl]methoxy]-6-methylol-tetrahydropyran-3,4,5-triol

> <PUBCHEM_IUPAC_INCHI>
InChI=1S/C18H32O16/c19-1-5-8(22)11(25)13(27)16(31-5)30-3-7-10(24)15(29)18(4-21,33-7)34-17-14(28)12(26)9(23)6(2-20)32-17/h5-17,19-29H,1-4H2/t5-,6-,7-,8+,9-,10-,11+,12+,13-,14-,15+,16+,17-,18+/m1/s1

> <PUBCHEM_IUPAC_INCHIKEY>
NIBVDXPSJBYJFT-ZQSKZDJDSA-N

> <PUBCHEM_XLOGP3>
-5.8

> <PUBCHEM_EXACT_MASS>
504.169035

> <PUBCHEM_MOLECULAR_FORMULA>
C18H32O16

> <PUBCHEM_MOLECULAR_WEIGHT>
504.43708

> <PUBCHEM_OPENEYE_CAN_SMILES>
C(C1C(C(C(C(O1)OCC2C(C(C(O2)(CO)OC3C(C(C(C(O3)CO)O)O)O)O)O)O)O)O)O

> <PUBCHEM_OPENEYE_ISO_SMILES>
C([C@@H]1[C@@H]([C@@H]([C@H]([C@H](O1)OC[C@@H]2[C@H]([C@@H]([C@](O2)(CO)O[C@@H]3[C@@H]([C@H]([C@@H]([C@H](O3)CO)O)O)O)O)O)O)O)O)O

> <PUBCHEM_CACTVS_TPSA>
269

> <PUBCHEM_MONOISOTOPIC_WEIGHT>
504.169035

> <PUBCHEM_TOTAL_CHARGE>
0

> <PUBCHEM_HEAVY_ATOM_COUNT>
34

> <PUBCHEM_ATOM_DEF_STEREO_COUNT>
14

> <PUBCHEM_ATOM_UDEF_STEREO_COUNT>
0

> <PUBCHEM_BOND_DEF_STEREO_COUNT>
0

> <PUBCHEM_BOND_UDEF_STEREO_COUNT>
0

> <PUBCHEM_ISOTOPIC_ATOM_COUNT>
0

> <PUBCHEM_COMPONENT_COUNT>
1

> <PUBCHEM_CACTVS_TAUTO_COUNT>
1

> <PUBCHEM_COORDINATE_TYPE>
1
5
255

> <PUBCHEM_BONDANNOTATIONS>
25  10  6
26  11  5
29  12  6
30  13  5
31  14  5
19  22  5
17  2  5
21  2  5
27  33  6
32  34  5
28  4  6
18  5  5
20  6  6
23  8  5

$$$$

