443919
  -OEChem-07051213032D

 93 98  0     1  0  0  0  0  0999 V2000
    6.3301    0.0950    0.0000 O   0  0  0  0  0  0  0  0  0  0  0  0
    5.4641   -2.4050    0.0000 O   0  0  0  0  0  0  0  0  0  0  0  0
    3.7320   -2.4050    0.0000 O   0  0  0  0  0  0  0  0  0  0  0  0
    7.1962   -2.4050    0.0000 O   0  0  0  0  0  0  0  0  0  0  0  0
    7.1962    1.5950    0.0000 O   0  0  0  0  0  0  0  0  0  0  0  0
   12.4085    0.5404    0.0000 O   0  0  0  0  0  0  0  0  0  0  0  0
    8.9282   -1.4050    0.0000 O   0  0  0  0  0  0  0  0  0  0  0  0
    8.9282    0.5950    0.0000 O   0  0  0  0  0  0  0  0  0  0  0  0
    5.4641   -4.4050    0.0000 O   0  0  0  0  0  0  0  0  0  0  0  0
    3.7320   -5.4050    0.0000 O   0  0  0  0  0  0  0  0  0  0  0  0
    2.0000   -4.4050    0.0000 O   0  0  0  0  0  0  0  0  0  0  0  0
   10.6766    0.5604    0.0000 O   0  0  0  0  0  0  0  0  0  0  0  0
   12.3739   -2.4594    0.0000 O   0  0  0  0  0  0  0  0  0  0  0  0
   14.1174   -1.4795    0.0000 O   0  0  0  0  0  0  0  0  0  0  0  0
   10.6535   -1.4395    0.0000 O   0  0  0  0  0  0  0  0  0  0  0  0
   15.0007    0.0104    0.0000 O   0  0  0  0  0  0  0  0  0  0  0  0
    8.9282    3.5950    0.0000 O   0  3  0  0  0  0  0  0  0  0  0  0
   12.4583    3.6192    0.0000 O   0  0  0  0  0  0  0  0  0  0  0  0
    4.5981    5.0950    0.0000 O   0  0  0  0  0  0  0  0  0  0  0  0
    6.3301   -0.9050    0.0000 C   0  0  1  0  0  0  0  0  0  0  0  0
    7.1962   -1.4050    0.0000 C   0  0  2  0  0  0  0  0  0  0  0  0
    8.0622   -0.9050    0.0000 C   0  0  1  0  0  0  0  0  0  0  0  0
    8.0622    0.0950    0.0000 C   0  0  2  0  0  0  0  0  0  0  0  0
    4.5981   -3.9050    0.0000 C   0  0  1  0  0  0  0  0  0  0  0  0
    4.5981   -2.9050    0.0000 C   0  0  2  0  0  0  0  0  0  0  0  0
    3.7320   -4.4050    0.0000 C   0  0  1  0  0  0  0  0  0  0  0  0
    7.1962    0.5950    0.0000 C   0  0  1  0  0  0  0  0  0  0  0  0
    2.8660   -3.9050    0.0000 C   0  0  2  0  0  0  0  0  0  0  0  0
    5.4641   -1.4050    0.0000 C   0  0  0  0  0  0  0  0  0  0  0  0
    2.8660   -2.9050    0.0000 C   0  0  2  0  0  0  0  0  0  0  0  0
   12.3854   -1.4595    0.0000 C   0  0  1  0  0  0  0  0  0  0  0  0
   13.2572   -0.9695    0.0000 C   0  0  1  0  0  0  0  0  0  0  0  0
   11.5252   -0.9495    0.0000 C   0  0  2  0  0  0  0  0  0  0  0  0
   13.2687    0.0304    0.0000 C   0  0  1  0  0  0  0  0  0  0  0  0
   11.5368    0.0504    0.0000 C   0  0  1  0  0  0  0  0  0  0  0  0
    2.0000   -2.4050    0.0000 C   0  0  0  0  0  0  0  0  0  0  0  0
   14.1405    0.5203    0.0000 C   0  0  0  0  0  0  0  0  0  0  0  0
    8.0622    2.0950    0.0000 C   0  0  0  0  0  0  0  0  0  0  0  0
   10.6882    1.5603    0.0000 C   0  0  0  0  0  0  0  0  0  0  0  0
    9.7942    2.0950    0.0000 C   0  0  0  0  0  0  0  0  0  0  0  0
    8.9282    1.5950    0.0000 C   0  0  0  0  0  0  0  0  0  0  0  0
    8.0622    3.0950    0.0000 C   0  0  0  0  0  0  0  0  0  0  0  0
    9.7942    3.0950    0.0000 C   0  0  0  0  0  0  0  0  0  0  0  0
   11.5942    2.0742    0.0000 C   0  0  0  0  0  0  0  0  0  0  0  0
    7.1962    3.5950    0.0000 C   0  0  0  0  0  0  0  0  0  0  0  0
   10.6882    3.6297    0.0000 C   0  0  0  0  0  0  0  0  0  0  0  0
   11.5942    3.1158    0.0000 C   0  0  0  0  0  0  0  0  0  0  0  0
    7.1962    4.5950    0.0000 C   0  0  0  0  0  0  0  0  0  0  0  0
    6.3301    3.0950    0.0000 C   0  0  0  0  0  0  0  0  0  0  0  0
    6.3301    5.0950    0.0000 C   0  0  0  0  0  0  0  0  0  0  0  0
    5.4641    3.5950    0.0000 C   0  0  0  0  0  0  0  0  0  0  0  0
    5.4641    4.5950    0.0000 C   0  0  0  0  0  0  0  0  0  0  0  0
    5.7932   -0.5950    0.0000 H   0  0  0  0  0  0  0  0  0  0  0  0
    6.6592   -1.7150    0.0000 H   0  0  0  0  0  0  0  0  0  0  0  0
    8.0622   -1.5250    0.0000 H   0  0  0  0  0  0  0  0  0  0  0  0
    8.0622    0.7150    0.0000 H   0  0  0  0  0  0  0  0  0  0  0  0
    5.1350   -3.5950    0.0000 H   0  0  0  0  0  0  0  0  0  0  0  0
    4.5981   -2.2850    0.0000 H   0  0  0  0  0  0  0  0  0  0  0  0
    4.2690   -4.7150    0.0000 H   0  0  0  0  0  0  0  0  0  0  0  0
    6.6592    0.9050    0.0000 H   0  0  0  0  0  0  0  0  0  0  0  0
    2.3291   -3.5950    0.0000 H   0  0  0  0  0  0  0  0  0  0  0  0
    5.2520   -0.8224    0.0000 H   0  0  0  0  0  0  0  0  0  0  0  0
    4.8535   -1.5127    0.0000 H   0  0  0  0  0  0  0  0  0  0  0  0
    2.8660   -2.2850    0.0000 H   0  0  0  0  0  0  0  0  0  0  0  0
   12.9187   -1.7757    0.0000 H   0  0  0  0  0  0  0  0  0  0  0  0
   13.7976   -0.6658    0.0000 H   0  0  0  0  0  0  0  0  0  0  0  0
   11.5181   -1.5695    0.0000 H   0  0  0  0  0  0  0  0  0  0  0  0
   13.2759    0.6504    0.0000 H   0  0  0  0  0  0  0  0  0  0  0  0
   11.5440    0.6704    0.0000 H   0  0  0  0  0  0  0  0  0  0  0  0
    2.3100   -1.8681    0.0000 H   0  0  0  0  0  0  0  0  0  0  0  0
    1.4631   -2.0950    0.0000 H   0  0  0  0  0  0  0  0  0  0  0  0
    1.6900   -2.9419    0.0000 H   0  0  0  0  0  0  0  0  0  0  0  0
    7.7331   -2.7150    0.0000 H   0  0  0  0  0  0  0  0  0  0  0  0
    8.9282   -2.0250    0.0000 H   0  0  0  0  0  0  0  0  0  0  0  0
    9.4651    0.2850    0.0000 H   0  0  0  0  0  0  0  0  0  0  0  0
   14.5445    0.9907    0.0000 H   0  0  0  0  0  0  0  0  0  0  0  0
   13.7475    0.9999    0.0000 H   0  0  0  0  0  0  0  0  0  0  0  0
    5.4641   -5.0250    0.0000 H   0  0  0  0  0  0  0  0  0  0  0  0
    4.2690   -5.7150    0.0000 H   0  0  0  0  0  0  0  0  0  0  0  0
    2.0000   -5.0250    0.0000 H   0  0  0  0  0  0  0  0  0  0  0  0
   12.9072   -2.7756    0.0000 H   0  0  0  0  0  0  0  0  0  0  0  0
   14.1102   -2.0995    0.0000 H   0  0  0  0  0  0  0  0  0  0  0  0
   10.6463   -2.0594    0.0000 H   0  0  0  0  0  0  0  0  0  0  0  0
    8.9282    0.9750    0.0000 H   0  0  0  0  0  0  0  0  0  0  0  0
   12.1300    1.7621    0.0000 H   0  0  0  0  0  0  0  0  0  0  0  0
   15.5411    0.3141    0.0000 H   0  0  0  0  0  0  0  0  0  0  0  0
   10.6810    4.2496    0.0000 H   0  0  0  0  0  0  0  0  0  0  0  0
    7.7331    4.9050    0.0000 H   0  0  0  0  0  0  0  0  0  0  0  0
    6.3301    2.4750    0.0000 H   0  0  0  0  0  0  0  0  0  0  0  0
   12.4559    4.2392    0.0000 H   0  0  0  0  0  0  0  0  0  0  0  0
    6.3301    5.7150    0.0000 H   0  0  0  0  0  0  0  0  0  0  0  0
    4.9272    3.2850    0.0000 H   0  0  0  0  0  0  0  0  0  0  0  0
    4.5981    5.7150    0.0000 H   0  0  0  0  0  0  0  0  0  0  0  0
  1 20  1  0  0  0  0
  1 27  1  0  0  0  0
 25  2  1  1  0  0  0
  2 29  1  0  0  0  0
  3 25  1  0  0  0  0
  3 30  1  0  0  0  0
 21  4  1  6  0  0  0
  4 73  1  0  0  0  0
 27  5  1  1  0  0  0
  5 38  1  0  0  0  0
  6 34  1  0  0  0  0
  6 35  1  0  0  0  0
 22  7  1  1  0  0  0
  7 74  1  0  0  0  0
 23  8  1  6  0  0  0
  8 75  1  0  0  0  0
 24  9  1  6  0  0  0
  9 78  1  0  0  0  0
 26 10  1  6  0  0  0
 10 79  1  0  0  0  0
 28 11  1  1  0  0  0
 11 80  1  0  0  0  0
 35 12  1  6  0  0  0
 12 39  1  0  0  0  0
 31 13  1  6  0  0  0
 13 81  1  0  0  0  0
 32 14  1  1  0  0  0
 14 82  1  0  0  0  0
 33 15  1  1  0  0  0
 15 83  1  0  0  0  0
 16 37  1  0  0  0  0
 16 86  1  0  0  0  0
 17 42  1  0  0  0  0
 17 43  2  0  0  0  0
 18 47  1  0  0  0  0
 18 90  1  0  0  0  0
 19 52  1  0  0  0  0
 19 93  1  0  0  0  0
 20 21  1  0  0  0  0
 20 29  1  1  0  0  0
 20 53  1  0  0  0  0
 21 22  1  0  0  0  0
 21 54  1  0  0  0  0
 22 23  1  0  0  0  0
 22 55  1  0  0  0  0
 23 27  1  0  0  0  0
 23 56  1  0  0  0  0
 24 25  1  0  0  0  0
 24 26  1  0  0  0  0
 24 57  1  0  0  0  0
 25 58  1  0  0  0  0
 26 28  1  0  0  0  0
 26 59  1  0  0  0  0
 27 60  1  0  0  0  0
 28 30  1  0  0  0  0
 28 61  1  0  0  0  0
 29 62  1  0  0  0  0
 29 63  1  0  0  0  0
 30 36  1  6  0  0  0
 30 64  1  0  0  0  0
 31 32  1  0  0  0  0
 31 33  1  0  0  0  0
 31 65  1  0  0  0  0
 32 34  1  0  0  0  0
 32 66  1  0  0  0  0
 33 35  1  0  0  0  0
 33 67  1  0  0  0  0
 34 37  1  6  0  0  0
 34 68  1  0  0  0  0
 35 69  1  0  0  0  0
 36 70  1  0  0  0  0
 36 71  1  0  0  0  0
 36 72  1  0  0  0  0
 37 76  1  0  0  0  0
 37 77  1  0  0  0  0
 38 41  1  0  0  0  0
 38 42  2  0  0  0  0
 39 40  1  0  0  0  0
 39 44  2  0  0  0  0
 40 41  2  0  0  0  0
 40 43  1  0  0  0  0
 41 84  1  0  0  0  0
 42 45  1  0  0  0  0
 43 46  1  0  0  0  0
 44 47  1  0  0  0  0
 44 85  1  0  0  0  0
 45 48  2  0  0  0  0
 45 49  1  0  0  0  0
 46 47  2  0  0  0  0
 46 87  1  0  0  0  0
 48 50  1  0  0  0  0
 48 88  1  0  0  0  0
 49 51  2  0  0  0  0
 49 89  1  0  0  0  0
 50 52  2  0  0  0  0
 50 91  1  0  0  0  0
 51 52  1  0  0  0  0
 51 92  1  0  0  0  0
M  CHG  1  17   1
M  END
> <PUBCHEM_COMPOUND_CID>
443919

> <PUBCHEM_COMPOUND_CANONICALIZED>
1

> <PUBCHEM_CACTVS_COMPLEXITY>
1130

> <PUBCHEM_CACTVS_HBOND_ACCEPTOR>
18

> <PUBCHEM_CACTVS_HBOND_DONOR>
12

> <PUBCHEM_CACTVS_ROTATABLE_BOND>
9

> <PUBCHEM_CACTVS_SUBSKEYS>
AAADcfB8PgAAAAAAAAAAAAAAAAAAAAAAAAA0aJEiAAAAAACR9AAAGgAACAAADBSwmAMyDsAABkCIAqBSAAICCAAkIAAIiAFGiMgdNzaGNR6ieWKl4BUPuYfK7OzOIAAACAAIAABAAAAQABAAAAAAAAAAAA==

> <PUBCHEM_IUPAC_OPENEYE_NAME>
(2S,3R,4R,5R,6R)-2-methyl-6-[[(2R,3S,4S,5R,6S)-3,4,5-trihydroxy-6-[7-hydroxy-2-(4-hydroxyphenyl)-5-[(2S,3R,4S,5S,6R)-3,4,5-trihydroxy-6-(hydroxymethyl)tetrahydropyran-2-yl]oxy-chromenylium-3-yl]oxy-tetrahydropyran-2-yl]methoxy]tetrahydropyran-3,4,5-triol

> <PUBCHEM_IUPAC_CAS_NAME>
(2S,3R,4R,5R,6R)-2-methyl-6-[[(2R,3S,4S,5R,6S)-3,4,5-trihydroxy-6-[[7-hydroxy-2-(4-hydroxyphenyl)-5-[[(2S,3R,4S,5S,6R)-3,4,5-trihydroxy-6-(hydroxymethyl)-2-oxanyl]oxy]-1-benzopyrylium-3-yl]oxy]-2-oxanyl]methoxy]oxane-3,4,5-triol

> <PUBCHEM_IUPAC_NAME>
(2S,3R,4R,5R,6R)-2-methyl-6-[[(2R,3S,4S,5R,6S)-3,4,5-trihydroxy-6-[7-hydroxy-2-(4-hydroxyphenyl)-5-[(2S,3R,4S,5S,6R)-3,4,5-trihydroxy-6-(hydroxymethyl)oxan-2-yl]oxychromenylium-3-yl]oxyoxan-2-yl]methoxy]oxane-3,4,5-triol

> <PUBCHEM_IUPAC_SYSTEMATIC_NAME>
(2R,3R,4R,5R,6S)-2-[[(2R,3S,4S,5R,6S)-6-[5-[(2S,3R,4S,5S,6R)-6-(hydroxymethyl)-3,4,5-tris(oxidanyl)oxan-2-yl]oxy-2-(4-hydroxyphenyl)-7-oxidanyl-chromenylium-3-yl]oxy-3,4,5-tris(oxidanyl)oxan-2-yl]methoxy]-6-methyl-oxane-3,4,5-triol

> <PUBCHEM_IUPAC_TRADITIONAL_NAME>
(2S,3R,4R,5R,6R)-2-methyl-6-[[(2R,3S,4S,5R,6S)-3,4,5-trihydroxy-6-[[7-hydroxy-2-(4-hydroxyphenyl)-5-[(2S,3R,4S,5S,6R)-3,4,5-trihydroxy-6-methylol-tetrahydropyran-2-yl]oxy-1-benzopyrylium-3-yl]oxy]tetrahydropyran-2-yl]methoxy]tetrahydropyran-3,4,5-triol

> <PUBCHEM_IUPAC_INCHI>
InChI=1S/C33H40O19/c1-11-21(37)24(40)27(43)31(47-11)46-10-20-23(39)26(42)29(45)33(52-20)50-18-8-15-16(48-30(18)12-2-4-13(35)5-3-12)6-14(36)7-17(15)49-32-28(44)25(41)22(38)19(9-34)51-32/h2-8,11,19-29,31-34,37-45H,9-10H2,1H3,(H-,35,36)/p+1/t11-,19+,20+,21-,22+,23+,24+,25-,26-,27+,28+,29+,31+,32+,33+/m0/s1

> <PUBCHEM_IUPAC_INCHIKEY>
YTMOEUVNNYCFEO-WYHZMSGGSA-O

> <PUBCHEM_EXACT_MASS>
741.224204

> <PUBCHEM_MOLECULAR_FORMULA>
C33H41O19+

> <PUBCHEM_MOLECULAR_WEIGHT>
741.66724

> <PUBCHEM_OPENEYE_CAN_SMILES>
CC1C(C(C(C(O1)OCC2C(C(C(C(O2)OC3=C([O+]=C4C=C(C=C(C4=C3)OC5C(C(C(C(O5)CO)O)O)O)O)C6=CC=C(C=C6)O)O)O)O)O)O)O

> <PUBCHEM_OPENEYE_ISO_SMILES>
C[C@H]1[C@@H]([C@H]([C@H]([C@@H](O1)OC[C@@H]2[C@H]([C@@H]([C@H]([C@@H](O2)OC3=C([O+]=C4C=C(C=C(C4=C3)O[C@H]5[C@@H]([C@H]([C@@H]([C@H](O5)CO)O)O)O)O)C6=CC=C(C=C6)O)O)O)O)O)O)O

> <PUBCHEM_CACTVS_TPSA>
299

> <PUBCHEM_MONOISOTOPIC_WEIGHT>
741.224204

> <PUBCHEM_TOTAL_CHARGE>
1

> <PUBCHEM_HEAVY_ATOM_COUNT>
52

> <PUBCHEM_ATOM_DEF_STEREO_COUNT>
15

> <PUBCHEM_ATOM_UDEF_STEREO_COUNT>
0

> <PUBCHEM_BOND_DEF_STEREO_COUNT>
0

> <PUBCHEM_BOND_UDEF_STEREO_COUNT>
0

> <PUBCHEM_ISOTOPIC_ATOM_COUNT>
0

> <PUBCHEM_COMPONENT_COUNT>
1

> <PUBCHEM_CACTVS_TAUTO_COUNT>
21

> <PUBCHEM_COORDINATE_TYPE>
1
5
255

> <PUBCHEM_BONDANNOTATIONS>
26  10  6
28  11  5
35  12  6
31  13  6
32  14  5
33  15  5
17  42  8
17  43  8
25  2  5
20  29  5
30  36  6
34  37  6
38  41  8
38  42  8
39  40  8
39  44  8
21  4  6
40  41  8
40  43  8
43  46  8
44  47  8
45  48  8
45  49  8
46  47  8
48  50  8
49  51  8
27  5  5
50  52  8
51  52  8
22  7  5
23  8  6
24  9  6

$$$$

