123861
  -OEChem-07051213042D

 43 45  0     1  0  0  0  0  0999 V2000
    8.1962    2.9260    0.0000 F   0  0  0  0  0  0  0  0  0  0  0  0
    9.6962    2.0600    0.0000 F   0  0  0  0  0  0  0  0  0  0  0  0
    8.7260   -1.3060    0.0000 O   0  0  0  0  0  0  0  0  0  0  0  0
    3.7320   -0.8060    0.0000 O   0  0  0  0  0  0  0  0  0  0  0  0
    8.1962    1.1940    0.0000 O   0  0  0  0  0  0  0  0  0  0  0  0
    8.8867    0.1666    0.0000 O   0  0  0  0  0  0  0  0  0  0  0  0
    4.5981    0.6940    0.0000 O   0  0  0  0  0  0  0  0  0  0  0  0
    6.3301   -2.3060    0.0000 N   0  0  0  0  0  0  0  0  0  0  0  0
    6.3301   -0.3060    0.0000 C   0  0  3  0  0  0  0  0  0  0  0  0
    7.1962   -0.8060    0.0000 C   0  0  0  0  0  0  0  0  0  0  0  0
    5.4641   -0.8060    0.0000 C   0  0  0  0  0  0  0  0  0  0  0  0
    7.1962   -1.8060    0.0000 C   0  0  0  0  0  0  0  0  0  0  0  0
    6.3301    0.6940    0.0000 C   0  0  0  0  0  0  0  0  0  0  0  0
    5.4641   -1.8060    0.0000 C   0  0  0  0  0  0  0  0  0  0  0  0
    8.1424   -2.1108    0.0000 C   0  0  0  0  0  0  0  0  0  0  0  0
    8.1424   -0.5013    0.0000 C   0  0  0  0  0  0  0  0  0  0  0  0
    7.1962    1.1940    0.0000 C   0  0  0  0  0  0  0  0  0  0  0  0
    4.5981   -0.3060    0.0000 C   0  0  0  0  0  0  0  0  0  0  0  0
    4.5981   -2.3060    0.0000 C   0  0  0  0  0  0  0  0  0  0  0  0
    5.4641    1.1940    0.0000 C   0  0  0  0  0  0  0  0  0  0  0  0
    7.1962    2.1940    0.0000 C   0  0  0  0  0  0  0  0  0  0  0  0
    5.4641    2.1940    0.0000 C   0  0  0  0  0  0  0  0  0  0  0  0
    6.3301    2.6940    0.0000 C   0  0  0  0  0  0  0  0  0  0  0  0
    2.8660   -0.3060    0.0000 C   0  0  0  0  0  0  0  0  0  0  0  0
    8.6962    2.0600    0.0000 C   0  0  0  0  0  0  0  0  0  0  0  0
    2.0000   -0.8060    0.0000 C   0  0  0  0  0  0  0  0  0  0  0  0
    5.7932    0.0040    0.0000 H   0  0  0  0  0  0  0  0  0  0  0  0
    6.3301   -2.9260    0.0000 H   0  0  0  0  0  0  0  0  0  0  0  0
    7.8913   -2.6777    0.0000 H   0  0  0  0  0  0  0  0  0  0  0  0
    8.6798   -2.4200    0.0000 H   0  0  0  0  0  0  0  0  0  0  0  0
    4.2881   -1.7691    0.0000 H   0  0  0  0  0  0  0  0  0  0  0  0
    4.0611   -2.6160    0.0000 H   0  0  0  0  0  0  0  0  0  0  0  0
    4.9081   -2.8430    0.0000 H   0  0  0  0  0  0  0  0  0  0  0  0
    4.9272    0.8840    0.0000 H   0  0  0  0  0  0  0  0  0  0  0  0
    7.7331    2.5040    0.0000 H   0  0  0  0  0  0  0  0  0  0  0  0
    4.9272    2.5040    0.0000 H   0  0  0  0  0  0  0  0  0  0  0  0
    6.3301    3.3140    0.0000 H   0  0  0  0  0  0  0  0  0  0  0  0
    3.2646    0.1689    0.0000 H   0  0  0  0  0  0  0  0  0  0  0  0
    2.4675    0.1689    0.0000 H   0  0  0  0  0  0  0  0  0  0  0  0
    9.0062    1.5231    0.0000 H   0  0  0  0  0  0  0  0  0  0  0  0
    1.6900   -0.2691    0.0000 H   0  0  0  0  0  0  0  0  0  0  0  0
    1.4631   -1.1160    0.0000 H   0  0  0  0  0  0  0  0  0  0  0  0
    2.3100   -1.3430    0.0000 H   0  0  0  0  0  0  0  0  0  0  0  0
  1 25  1  0  0  0  0
  2 25  1  0  0  0  0
  3 15  1  0  0  0  0
  3 16  1  0  0  0  0
  4 18  1  0  0  0  0
  4 24  1  0  0  0  0
  5 17  1  0  0  0  0
  5 25  1  0  0  0  0
  6 16  2  0  0  0  0
  7 18  2  0  0  0  0
  8 12  1  0  0  0  0
  8 14  1  0  0  0  0
  8 28  1  0  0  0  0
  9 10  1  0  0  0  0
  9 11  1  0  0  0  0
  9 13  1  0  0  0  0
  9 27  1  0  0  0  0
 10 12  2  0  0  0  0
 10 16  1  0  0  0  0
 11 14  2  0  0  0  0
 11 18  1  0  0  0  0
 12 15  1  0  0  0  0
 13 17  1  0  0  0  0
 13 20  2  0  0  0  0
 14 19  1  0  0  0  0
 15 29  1  0  0  0  0
 15 30  1  0  0  0  0
 17 21  2  0  0  0  0
 19 31  1  0  0  0  0
 19 32  1  0  0  0  0
 19 33  1  0  0  0  0
 20 22  1  0  0  0  0
 20 34  1  0  0  0  0
 21 23  1  0  0  0  0
 21 35  1  0  0  0  0
 22 23  2  0  0  0  0
 22 36  1  0  0  0  0
 23 37  1  0  0  0  0
 24 26  1  0  0  0  0
 24 38  1  0  0  0  0
 24 39  1  0  0  0  0
 25 40  1  0  0  0  0
 26 41  1  0  0  0  0
 26 42  1  0  0  0  0
 26 43  1  0  0  0  0
M  END
> <PUBCHEM_COMPOUND_CID>
123861

> <PUBCHEM_COMPOUND_CANONICALIZED>
1

> <PUBCHEM_CACTVS_COMPLEXITY>
658

> <PUBCHEM_CACTVS_HBOND_ACCEPTOR>
8

> <PUBCHEM_CACTVS_HBOND_DONOR>
1

> <PUBCHEM_CACTVS_ROTATABLE_BOND>
6

> <PUBCHEM_CACTVS_SUBSKEYS>
AAADceB6OYAAAAAAAAAAAAAAAAAAAQAAAAAwQAAAAAAAAEABAAAAHwAQAAAADQyhmBIyDoLABACIAiTSSAACCAAgIAAIiAEGCMgOJjKEMRqDMCAk0BGYqUeI7uzOgAAAAAAIAAAAAAAAABAAAAAAAAAAAA==

> <PUBCHEM_IUPAC_OPENEYE_NAME>
ethyl 4-[2-(difluoromethoxy)phenyl]-2-methyl-5-oxo-4,7-dihydro-1H-furo[3,4-b]pyridine-3-carboxylate

> <PUBCHEM_IUPAC_CAS_NAME>
4-[2-(difluoromethoxy)phenyl]-2-methyl-5-oxo-4,7-dihydro-1H-furo[3,4-b]pyridine-3-carboxylic acid ethyl ester

> <PUBCHEM_IUPAC_NAME>
ethyl 4-[2-(difluoromethoxy)phenyl]-2-methyl-5-oxo-4,7-dihydro-1H-furo[3,4-b]pyridine-3-carboxylate

> <PUBCHEM_IUPAC_SYSTEMATIC_NAME>
ethyl 4-[2-[bis(fluoranyl)methoxy]phenyl]-2-methyl-5-oxidanylidene-4,7-dihydro-1H-furo[3,4-b]pyridine-3-carboxylate

> <PUBCHEM_IUPAC_TRADITIONAL_NAME>
4-[2-(difluoromethoxy)phenyl]-5-keto-2-methyl-4,7-dihydro-1H-furo[3,4-b]pyridine-3-carboxylic acid ethyl ester

> <PUBCHEM_IUPAC_INCHI>
InChI=1S/C18H17F2NO5/c1-3-24-16(22)13-9(2)21-11-8-25-17(23)15(11)14(13)10-6-4-5-7-12(10)26-18(19)20/h4-7,14,18,21H,3,8H2,1-2H3

> <PUBCHEM_IUPAC_INCHIKEY>
CBPBJKQTVKFOOQ-UHFFFAOYSA-N

> <PUBCHEM_XLOGP3_AA>
3

> <PUBCHEM_EXACT_MASS>
365.107479

> <PUBCHEM_MOLECULAR_FORMULA>
C18H17F2NO5

> <PUBCHEM_MOLECULAR_WEIGHT>
365.328086

> <PUBCHEM_OPENEYE_CAN_SMILES>
CCOC(=O)C1=C(NC2=C(C1C3=CC=CC=C3OC(F)F)C(=O)OC2)C

> <PUBCHEM_OPENEYE_ISO_SMILES>
CCOC(=O)C1=C(NC2=C(C1C3=CC=CC=C3OC(F)F)C(=O)OC2)C

> <PUBCHEM_CACTVS_TPSA>
73.9

> <PUBCHEM_MONOISOTOPIC_WEIGHT>
365.107479

> <PUBCHEM_TOTAL_CHARGE>
0

> <PUBCHEM_HEAVY_ATOM_COUNT>
26

> <PUBCHEM_ATOM_DEF_STEREO_COUNT>
0

> <PUBCHEM_ATOM_UDEF_STEREO_COUNT>
1

> <PUBCHEM_BOND_DEF_STEREO_COUNT>
0

> <PUBCHEM_BOND_UDEF_STEREO_COUNT>
0

> <PUBCHEM_ISOTOPIC_ATOM_COUNT>
0

> <PUBCHEM_COMPONENT_COUNT>
1

> <PUBCHEM_CACTVS_TAUTO_COUNT>
5

> <PUBCHEM_COORDINATE_TYPE>
1
5
255

> <PUBCHEM_BONDANNOTATIONS>
13  17  8
13  20  8
17  21  8
20  22  8
21  23  8
22  23  8
9  13  3

$$$$

