5326875
  -OEChem-07051212502D

 66 70  0     1  0  0  0  0  0999 V2000
    6.0686    5.8130    0.0000 S   0  0  0  0  0  0  0  0  0  0  0  0
    9.6451    0.5751    0.0000 P   0  0  3  0  0  0  0  0  0  0  0  0
   10.6484   -2.3456    0.0000 O   0  0  0  0  0  0  0  0  0  0  0  0
   12.9982   -1.2619    0.0000 O   0  0  0  0  0  0  0  0  0  0  0  0
   12.9944   -3.4375    0.0000 O   0  0  0  0  0  0  0  0  0  0  0  0
    2.0000    5.8271    0.0000 O   0  0  0  0  0  0  0  0  0  0  0  0
    9.9525   -0.3765    0.0000 O   0  0  0  0  0  0  0  0  0  0  0  0
    9.3377    1.5267    0.0000 O   0  0  0  0  0  0  0  0  0  0  0  0
    8.6935    0.2678    0.0000 O   0  0  0  0  0  0  0  0  0  0  0  0
    7.6895    0.9943    0.0000 O   0  0  0  0  0  0  0  0  0  0  0  0
   10.5967    0.8825    0.0000 O   0  0  0  0  0  0  0  0  0  0  0  0
    3.5850    5.0126    0.0000 N   0  0  0  0  0  0  0  0  0  0  0  0
    3.5906    6.6306    0.0000 N   0  0  0  0  0  0  0  0  0  0  0  0
   10.9242   -4.1062    0.0000 N   0  0  0  0  0  0  0  0  0  0  0  0
   10.9242   -5.7157    0.0000 N   0  0  0  0  0  0  0  0  0  0  0  0
    9.1119   -3.9109    0.0000 N   0  0  0  0  0  0  0  0  0  0  0  0
    8.2459   -5.4109    0.0000 N   0  0  0  0  0  0  0  0  0  0  0  0
    9.1119   -6.9109    0.0000 N   0  0  0  0  0  0  0  0  0  0  0  0
    4.5371    5.3183    0.0000 C   0  0  1  0  0  0  0  0  0  0  0  0
    4.5406    6.3183    0.0000 C   0  0  2  0  0  0  0  0  0  0  0  0
    5.4823    5.0103    0.0000 C   0  0  2  0  0  0  0  0  0  0  0  0
    5.4878    6.6198    0.0000 C   0  0  0  0  0  0  0  0  0  0  0  0
    5.7896    4.0587    0.0000 C   0  0  0  0  0  0  0  0  0  0  0  0
    3.0000    5.8236    0.0000 C   0  0  0  0  0  0  0  0  0  0  0  0
    6.7674    3.8491    0.0000 C   0  0  0  0  0  0  0  0  0  0  0  0
   12.1881   -1.8483    0.0000 C   0  0  1  0  0  0  0  0  0  0  0  0
   12.1864   -2.8483    0.0000 C   0  0  2  0  0  0  0  0  0  0  0  0
   11.2376   -1.5376    0.0000 C   0  0  1  0  0  0  0  0  0  0  0  0
   11.2348   -3.1557    0.0000 C   0  0  1  0  0  0  0  0  0  0  0  0
    7.0748    2.8975    0.0000 C   0  0  0  0  0  0  0  0  0  0  0  0
   10.9303   -0.5861    0.0000 C   0  0  0  0  0  0  0  0  0  0  0  0
    8.0526    2.6879    0.0000 C   0  0  0  0  0  0  0  0  0  0  0  0
    9.9779   -4.4109    0.0000 C   0  0  0  0  0  0  0  0  0  0  0  0
   11.5078   -4.9109    0.0000 C   0  0  0  0  0  0  0  0  0  0  0  0
    9.9779   -5.4109    0.0000 C   0  0  0  0  0  0  0  0  0  0  0  0
    8.3599    1.7363    0.0000 C   0  0  0  0  0  0  0  0  0  0  0  0
    9.1119   -5.9109    0.0000 C   0  0  0  0  0  0  0  0  0  0  0  0
    8.2459   -4.4109    0.0000 C   0  0  0  0  0  0  0  0  0  0  0  0
    4.5353    4.4683    0.0000 H   0  0  0  0  0  0  0  0  0  0  0  0
    4.5446    7.1683    0.0000 H   0  0  0  0  0  0  0  0  0  0  0  0
    6.0944    4.9120    0.0000 H   0  0  0  0  0  0  0  0  0  0  0  0
    6.0263    6.9271    0.0000 H   0  0  0  0  0  0  0  0  0  0  0  0
    5.2388    7.1875    0.0000 H   0  0  0  0  0  0  0  0  0  0  0  0
    5.1755    3.9735    0.0000 H   0  0  0  0  0  0  0  0  0  0  0  0
    5.7669    3.4391    0.0000 H   0  0  0  0  0  0  0  0  0  0  0  0
    3.3914    4.4236    0.0000 H   0  0  0  0  0  0  0  0  0  0  0  0
    3.4010    7.2209    0.0000 H   0  0  0  0  0  0  0  0  0  0  0  0
    7.3815    3.9343    0.0000 H   0  0  0  0  0  0  0  0  0  0  0  0
    6.7901    4.4687    0.0000 H   0  0  0  0  0  0  0  0  0  0  0  0
   12.0922   -1.2358    0.0000 H   0  0  0  0  0  0  0  0  0  0  0  0
   12.7393   -2.5678    0.0000 H   0  0  0  0  0  0  0  0  0  0  0  0
   10.6254   -1.4396    0.0000 H   0  0  0  0  0  0  0  0  0  0  0  0
   10.6223   -3.2516    0.0000 H   0  0  0  0  0  0  0  0  0  0  0  0
    6.4607    2.8123    0.0000 H   0  0  0  0  0  0  0  0  0  0  0  0
    7.0521    2.2779    0.0000 H   0  0  0  0  0  0  0  0  0  0  0  0
   11.5444   -0.5008    0.0000 H   0  0  0  0  0  0  0  0  0  0  0  0
   10.9530    0.0335    0.0000 H   0  0  0  0  0  0  0  0  0  0  0  0
    8.6667    2.7731    0.0000 H   0  0  0  0  0  0  0  0  0  0  0  0
    8.0753    3.3075    0.0000 H   0  0  0  0  0  0  0  0  0  0  0  0
   12.9344   -0.6452    0.0000 H   0  0  0  0  0  0  0  0  0  0  0  0
   13.5612   -3.1863    0.0000 H   0  0  0  0  0  0  0  0  0  0  0  0
   12.1278   -4.9109    0.0000 H   0  0  0  0  0  0  0  0  0  0  0  0
    7.7090   -4.1009    0.0000 H   0  0  0  0  0  0  0  0  0  0  0  0
    8.5636   -0.3385    0.0000 H   0  0  0  0  0  0  0  0  0  0  0  0
    8.5750   -7.2209    0.0000 H   0  0  0  0  0  0  0  0  0  0  0  0
    9.6488   -7.2209    0.0000 H   0  0  0  0  0  0  0  0  0  0  0  0
  1 21  1  0  0  0  0
  1 22  1  0  0  0  0
  2  7  1  0  0  0  0
  2  8  1  0  0  0  0
  2  9  1  0  0  0  0
  2 11  2  0  0  0  0
  3 28  1  0  0  0  0
  3 29  1  0  0  0  0
 26  4  1  1  0  0  0
  4 60  1  0  0  0  0
 27  5  1  1  0  0  0
  5 61  1  0  0  0  0
  6 24  2  0  0  0  0
  7 31  1  0  0  0  0
  8 36  1  0  0  0  0
  9 64  1  0  0  0  0
 10 36  2  0  0  0  0
 12 19  1  0  0  0  0
 12 24  1  0  0  0  0
 12 46  1  0  0  0  0
 13 20  1  0  0  0  0
 13 24  1  0  0  0  0
 13 47  1  0  0  0  0
 29 14  1  6  0  0  0
 14 33  1  0  0  0  0
 14 34  1  0  0  0  0
 15 34  2  0  0  0  0
 15 35  1  0  0  0  0
 16 33  1  0  0  0  0
 16 38  2  0  0  0  0
 17 37  2  0  0  0  0
 17 38  1  0  0  0  0
 18 37  1  0  0  0  0
 18 65  1  0  0  0  0
 18 66  1  0  0  0  0
 19 20  1  0  0  0  0
 19 21  1  0  0  0  0
 19 39  1  6  0  0  0
 20 22  1  0  0  0  0
 20 40  1  6  0  0  0
 21 23  1  1  0  0  0
 21 41  1  0  0  0  0
 22 42  1  0  0  0  0
 22 43  1  0  0  0  0
 23 25  1  0  0  0  0
 23 44  1  0  0  0  0
 23 45  1  0  0  0  0
 25 30  1  0  0  0  0
 25 48  1  0  0  0  0
 25 49  1  0  0  0  0
 26 27  1  0  0  0  0
 26 28  1  0  0  0  0
 26 50  1  0  0  0  0
 27 29  1  0  0  0  0
 27 51  1  0  0  0  0
 28 31  1  6  0  0  0
 28 52  1  0  0  0  0
 29 53  1  0  0  0  0
 30 32  1  0  0  0  0
 30 54  1  0  0  0  0
 30 55  1  0  0  0  0
 31 56  1  0  0  0  0
 31 57  1  0  0  0  0
 32 36  1  0  0  0  0
 32 58  1  0  0  0  0
 32 59  1  0  0  0  0
 33 35  2  0  0  0  0
 34 62  1  0  0  0  0
 35 37  1  0  0  0  0
 38 63  1  0  0  0  0
M  END
> <PUBCHEM_COMPOUND_CID>
5326875

> <PUBCHEM_COMPOUND_CANONICALIZED>
1

> <PUBCHEM_CACTVS_COMPLEXITY>
939

> <PUBCHEM_CACTVS_HBOND_ACCEPTOR>
14

> <PUBCHEM_CACTVS_HBOND_DONOR>
6

> <PUBCHEM_CACTVS_ROTATABLE_BOND>
11

> <PUBCHEM_CACTVS_SUBSKEYS>
AAADceB7vAJAAAAAAAAAAAAAAAAAAWLEiQAsAAAAAAAWAFgB+AAAHgQQCCAACDzl1waF+L/MFxioQQbxfICAgC0RELABUKEoVBCDWBJgyEAeRAgPFgLzACH4+KKAAAAAAAAAAAAAAAAAAAAAAAAAAAAAAA==

> <PUBCHEM_IUPAC_OPENEYE_NAME>
[[(2R,3S,4R,5R)-5-(6-aminopurin-9-yl)-3,4-dihydroxy-tetrahydrofuran-2-yl]methoxy-hydroxy-phosphoryl] 5-[(3aS,4S,6aR)-2-oxo-1,3,3a,4,6,6a-hexahydrothieno[3,4-d]imidazol-4-yl]pentanoate

> <PUBCHEM_IUPAC_CAS_NAME>
5-[(3aS,4S,6aR)-2-oxo-1,3,3a,4,6,6a-hexahydrothieno[3,4-d]imidazol-4-yl]pentanoic acid [[(2R,3S,4R,5R)-5-(6-aminopurin-9-yl)-3,4-dihydroxy-2-oxolanyl]methoxy-hydroxyphosphoryl] ester

> <PUBCHEM_IUPAC_NAME>
[[(2R,3S,4R,5R)-5-(6-aminopurin-9-yl)-3,4-dihydroxyoxolan-2-yl]methoxy-hydroxyphosphoryl] 5-[(3aS,4S,6aR)-2-oxo-1,3,3a,4,6,6a-hexahydrothieno[3,4-d]imidazol-4-yl]pentanoate

> <PUBCHEM_IUPAC_SYSTEMATIC_NAME>
[[(2R,3S,4R,5R)-5-(6-aminopurin-9-yl)-3,4-bis(oxidanyl)oxolan-2-yl]methoxy-oxidanyl-phosphoryl] 5-[(3aS,4S,6aR)-2-oxidanylidene-1,3,3a,4,6,6a-hexahydrothieno[3,4-d]imidazol-4-yl]pentanoate

> <PUBCHEM_IUPAC_TRADITIONAL_NAME>
5-[(3aS,4S,6aR)-2-keto-1,3,3a,4,6,6a-hexahydrothien[3,4-d]imidazol-4-yl]valeric acid [[(2R,3S,4R,5R)-5-adenin-9-yl-3,4-dihydroxy-tetrahydrofuran-2-yl]methoxy-hydroxy-phosphoryl] ester

> <PUBCHEM_IUPAC_INCHI>
InChI=1S/C20H28N7O9PS/c21-17-14-18(23-7-22-17)27(8-24-14)19-16(30)15(29)10(35-19)5-34-37(32,33)36-12(28)4-2-1-3-11-13-9(6-38-11)25-20(31)26-13/h7-11,13,15-16,19,29-30H,1-6H2,(H,32,33)(H2,21,22,23)(H2,25,26,31)/t9-,10+,11-,13-,15+,16+,19+/m0/s1

> <PUBCHEM_IUPAC_INCHIKEY>
UTQCSTJVMLODHM-RHCAYAJFSA-N

> <PUBCHEM_XLOGP3>
-2.4

> <PUBCHEM_EXACT_MASS>
573.140683

> <PUBCHEM_MOLECULAR_FORMULA>
C20H28N7O9PS

> <PUBCHEM_MOLECULAR_WEIGHT>
573.516582

> <PUBCHEM_OPENEYE_CAN_SMILES>
C1C2C(C(S1)CCCCC(=O)OP(=O)(O)OCC3C(C(C(O3)N4C=NC5=C4N=CN=C5N)O)O)NC(=O)N2

> <PUBCHEM_OPENEYE_ISO_SMILES>
C1[C@H]2[C@@H]([C@@H](S1)CCCCC(=O)OP(=O)(O)OC[C@@H]3[C@H]([C@H]([C@@H](O3)N4C=NC5=C4N=CN=C5N)O)O)NC(=O)N2

> <PUBCHEM_CACTVS_TPSA>
259

> <PUBCHEM_MONOISOTOPIC_WEIGHT>
573.140683

> <PUBCHEM_TOTAL_CHARGE>
0

> <PUBCHEM_HEAVY_ATOM_COUNT>
38

> <PUBCHEM_ATOM_DEF_STEREO_COUNT>
7

> <PUBCHEM_ATOM_UDEF_STEREO_COUNT>
0

> <PUBCHEM_BOND_DEF_STEREO_COUNT>
0

> <PUBCHEM_BOND_UDEF_STEREO_COUNT>
0

> <PUBCHEM_ISOTOPIC_ATOM_COUNT>
0

> <PUBCHEM_COMPONENT_COUNT>
1

> <PUBCHEM_CACTVS_TAUTO_COUNT>
9

> <PUBCHEM_COORDINATE_TYPE>
1
5
255

> <PUBCHEM_BONDANNOTATIONS>
29  14  6
14  33  8
14  34  8
15  34  8
15  35  8
16  33  8
16  38  8
17  37  8
17  38  8
19  39  6
20  40  6
21  23  5
28  31  6
33  35  8
35  37  8
26  4  5
27  5  5

$$$$

