   Color/Form

     * COLORLESS PLATES
     * Colorless leaflets from petroleum ether.

   from [1]HSDB

   Melting Point
        96.4-97 DEG C
   from [2]HSDB

   Solubilities

     * SOL IN MOST NON-POLAR ORG SOLVENTS & ETHANOL; SPARINGLY SOL IN
       WATER (0.68%) & LIGHT PETROLEUM
     * Soluble on ether, alcohol, and benzene.

   from [3]HSDB

   Spectral Properties
        SPECIFIC OPTICAL ROTATION: -3.0 DEG @ 16 DEG C/D (IN ETHANOL)
   from [4]HSDB

   Other Chemical/Physical Properties

     * READILY HYDROLYZED WITH ALKALI
     * REACTS READILY WITH OXIDIZING AGENTS (SLOWLY WITH ATMOSPHERIC
       OXYGEN) TO FORM DIHYDROPYRROLIZINE DERIVATIVE
     * SOL IN WATER /LASIOCARPINE HYDROCHLORIDE/

   from [5]HSDB

   Computed Properties
   Molecular Weight                  411.48922 [g/mol]
   Molecular Formula                 C[21]H[33]NO[7]
   XLogP3-AA                         0.5
   H-Bond Donor                      2
   H-Bond Acceptor                   8
   Rotatable Bond Count              10
   Exact Mass                        411.225702
   MonoIsotopic Mass                 411.225702
   Topological Polar Surface Area    106
   Heavy Atom Count                  29
   Formal Charge                     0
   Complexity                        699
   Isotope Atom Count                0
   Defined Atom Stereocenter Count   4
   Undefined Atom Stereocenter Count 0
   Defined Bond Stereocenter Count   1
   Undefined Bond Stereocenter Count 0
   Covalently-Bonded Unit Count      1
   Feature 3D Acceptor Count         5
   Feature 3D Donor Count            2
   Feature 3D Cation Count           1
   Feature 3D Hydrophobe Count       3
   Feature 3D Ring Count             2
   Effective Rotor Count             10.8
   Conformer Sampling RMSD           1.2
   CID Conformer Count               [6]119

References

   1. http://toxnet.nlm.nih.gov/cgi-bin/sis/search/r?dbs+hsdb:@term+@rn+@rel+303-34-4
   2. http://toxnet.nlm.nih.gov/cgi-bin/sis/search/r?dbs+hsdb:@term+@rn+@rel+303-34-4
   3. http://toxnet.nlm.nih.gov/cgi-bin/sis/search/r?dbs+hsdb:@term+@rn+@rel+303-34-4
   4. http://toxnet.nlm.nih.gov/cgi-bin/sis/search/r?dbs+hsdb:@term+@rn+@rel+303-34-4
   5. http://toxnet.nlm.nih.gov/cgi-bin/sis/search/r?dbs+hsdb:@term+@rn+@rel+303-34-4
   6. http://pubchem.ncbi.nlm.nih.gov/vw3d/vw3d.cgi?cid=6325507
