   Color/Form

     * Colorless crystals
     * Crystals from methanol
     * Colorless-to-white crystalline solid

   from [1]HSDB

   Odor
        Organophosphate odor
   from [2]HSDB

   Melting Point
        39-40 deg C
   from [3]HSDB

   Corrosivity
        Non-corrosive
   from [4]HSDB

   Density/Specific Gravity
        1.51 g/cu cm (20 deg C)
   from [5]HSDB

   Octanol/Water Partition Coefficient
        log Kow = 2.20
   from [6]HSDB

   Solubilities

     * Solubility (all in g/l @ 20 deg C): ethanol (150); acetone (670);
       toluene (720); hexane (11); n-octanol (14)
     * Soluble in benzene, methanol and xylene at >60 g/100 ml @ 25 deg C.
       Moderately soluble in chloroform and dichloromethane.
     * In water, 187 mg/l at 20 deg C [Bowman BT, Sans WW; J Environ Sci
       Health B18: 221-7 (1983)] [7]PubMed Abstract

   from [8]HSDB

   Spectral Properties
        Intense mass spectral peaks: 85 m/z (100%), 145 m/z (89%), 93 m/z
   (39%), 58 m/z (39%)
   from [9]HSDB

   Vapor Pressure
        3.37X10-6 mm Hg @ 25 deg C
   from [10]HSDB

   Other Chemical/Physical Properties
        Volatility slight.
   from [11]HSDB

   Computed Properties
   Molecular Weight                  302.331302 [g/mol]
   Molecular Formula                 C[6]H[11]N[2]O[4]PS[3]
   XLogP3                            2.4
   H-Bond Donor                      0
   H-Bond Acceptor                   8
   Rotatable Bond Count              6
   Exact Mass                        301.961856
   MonoIsotopic Mass                 301.961856
   Topological Polar Surface Area    143
   Heavy Atom Count                  16
   Formal Charge                     0
   Complexity                        343
   Isotope Atom Count                0
   Defined Atom Stereocenter Count   0
   Undefined Atom Stereocenter Count 0
   Defined Bond Stereocenter Count   0
   Undefined Bond Stereocenter Count 0
   Covalently-Bonded Unit Count      1
   Feature 3D Ring Count             1
   Effective Rotor Count             6
   Conformer Sampling RMSD           0.8
   CID Conformer Count               [12]60

References

   1. http://toxnet.nlm.nih.gov/cgi-bin/sis/search/r?dbs+hsdb:@term+@rn+@rel+950-37-8
   2. http://toxnet.nlm.nih.gov/cgi-bin/sis/search/r?dbs+hsdb:@term+@rn+@rel+950-37-8
   3. http://toxnet.nlm.nih.gov/cgi-bin/sis/search/r?dbs+hsdb:@term+@rn+@rel+950-37-8
   4. http://toxnet.nlm.nih.gov/cgi-bin/sis/search/r?dbs+hsdb:@term+@rn+@rel+950-37-8
   5. http://toxnet.nlm.nih.gov/cgi-bin/sis/search/r?dbs+hsdb:@term+@rn+@rel+950-37-8
   6. http://toxnet.nlm.nih.gov/cgi-bin/sis/search/r?dbs+hsdb:@term+@rn+@rel+950-37-8
   7. http://www.ncbi.nlm.nih.gov/entrez/query.fcgi?cmd=Retrieve&db=pubmed&dopt=Abstract&list_uids=6853964
   8. http://toxnet.nlm.nih.gov/cgi-bin/sis/search/r?dbs+hsdb:@term+@rn+@rel+950-37-8
   9. http://toxnet.nlm.nih.gov/cgi-bin/sis/search/r?dbs+hsdb:@term+@rn+@rel+950-37-8
  10. http://toxnet.nlm.nih.gov/cgi-bin/sis/search/r?dbs+hsdb:@term+@rn+@rel+950-37-8
  11. http://toxnet.nlm.nih.gov/cgi-bin/sis/search/r?dbs+hsdb:@term+@rn+@rel+950-37-8
  12. http://pubchem.ncbi.nlm.nih.gov/vw3d/vw3d.cgi?cid=13709
