193545
  -OEChem-07051212502D

 17 17  0     0  0  0  0  0  0999 V2000
    4.0778    2.5352    0.0000 O   0  0  0  0  0  0  0  0  0  0  0  0
    2.8090   -1.5352    0.0000 N   0  0  0  0  0  0  0  0  0  0  0  0
    2.3090    0.0036    0.0000 N   0  0  0  0  0  0  0  0  0  0  0  0
    3.3090    0.0036    0.0000 C   0  0  0  0  0  0  0  0  0  0  0  0
    3.6180   -0.9474    0.0000 C   0  0  0  0  0  0  0  0  0  0  0  0
    3.8968    0.8126    0.0000 C   0  0  0  0  0  0  0  0  0  0  0  0
    2.0000   -0.9474    0.0000 C   0  0  0  0  0  0  0  0  0  0  0  0
    2.8090   -2.5352    0.0000 C   0  0  0  0  0  0  0  0  0  0  0  0
    3.4901    1.7262    0.0000 C   0  0  0  0  0  0  0  0  0  0  0  0
    4.2077   -1.1390    0.0000 H   0  0  0  0  0  0  0  0  0  0  0  0
    4.3275    0.3667    0.0000 H   0  0  0  0  0  0  0  0  0  0  0  0
    4.4108    1.1594    0.0000 H   0  0  0  0  0  0  0  0  0  0  0  0
    1.4103   -1.1390    0.0000 H   0  0  0  0  0  0  0  0  0  0  0  0
    2.1890   -2.5352    0.0000 H   0  0  0  0  0  0  0  0  0  0  0  0
    2.8090   -3.1552    0.0000 H   0  0  0  0  0  0  0  0  0  0  0  0
    3.4290   -2.5352    0.0000 H   0  0  0  0  0  0  0  0  0  0  0  0
    2.8735    1.7910    0.0000 H   0  0  0  0  0  0  0  0  0  0  0  0
  1  9  2  0  0  0  0
  2  5  1  0  0  0  0
  2  7  1  0  0  0  0
  2  8  1  0  0  0  0
  3  4  1  0  0  0  0
  3  7  2  0  0  0  0
  4  5  2  0  0  0  0
  4  6  1  0  0  0  0
  5 10  1  0  0  0  0
  6  9  1  0  0  0  0
  6 11  1  0  0  0  0
  6 12  1  0  0  0  0
  7 13  1  0  0  0  0
  8 14  1  0  0  0  0
  8 15  1  0  0  0  0
  8 16  1  0  0  0  0
  9 17  1  0  0  0  0
M  END
> <PUBCHEM_COMPOUND_CID>
193545

> <PUBCHEM_COMPOUND_CANONICALIZED>
1

> <PUBCHEM_CACTVS_COMPLEXITY>
105

> <PUBCHEM_CACTVS_HBOND_ACCEPTOR>
2

> <PUBCHEM_CACTVS_HBOND_DONOR>
0

> <PUBCHEM_CACTVS_ROTATABLE_BOND>
2

> <PUBCHEM_CACTVS_SUBSKEYS>
AAADccBjIAAAAAAAAAAAAAAAAAAAAWAAAAAAAAAAAAAAAAABgAAAHgAAAAAACAjhlgYvkBcMEACoARx35AAAgC0xEqABUAE4cAiAaBhAjQAUAAAIAAJAQCAEAAAAAAAAAAAAAAAAAAAAAAAAAAAAAAAAAA==

> <PUBCHEM_IUPAC_OPENEYE_NAME>
2-(1-methylimidazol-4-yl)acetaldehyde

> <PUBCHEM_IUPAC_CAS_NAME>
2-(1-methyl-4-imidazolyl)acetaldehyde

> <PUBCHEM_IUPAC_NAME>
2-(1-methylimidazol-4-yl)acetaldehyde

> <PUBCHEM_IUPAC_SYSTEMATIC_NAME>
2-(1-methylimidazol-4-yl)ethanal

> <PUBCHEM_IUPAC_TRADITIONAL_NAME>
2-(1-methylimidazol-4-yl)acetaldehyde

> <PUBCHEM_IUPAC_INCHI>
InChI=1S/C6H8N2O/c1-8-4-6(2-3-9)7-5-8/h3-5H,2H2,1H3

> <PUBCHEM_IUPAC_INCHIKEY>
GCQHUBANENYTLB-UHFFFAOYSA-N

> <PUBCHEM_XLOGP3_AA>
-0.6

> <PUBCHEM_EXACT_MASS>
124.063663

> <PUBCHEM_MOLECULAR_FORMULA>
C6H8N2O

> <PUBCHEM_MOLECULAR_WEIGHT>
124.14052

> <PUBCHEM_OPENEYE_CAN_SMILES>
CN1C=C(N=C1)CC=O

> <PUBCHEM_OPENEYE_ISO_SMILES>
CN1C=C(N=C1)CC=O

> <PUBCHEM_CACTVS_TPSA>
34.9

> <PUBCHEM_MONOISOTOPIC_WEIGHT>
124.063663

> <PUBCHEM_TOTAL_CHARGE>
0

> <PUBCHEM_HEAVY_ATOM_COUNT>
9

> <PUBCHEM_ATOM_DEF_STEREO_COUNT>
0

> <PUBCHEM_ATOM_UDEF_STEREO_COUNT>
0

> <PUBCHEM_BOND_DEF_STEREO_COUNT>
0

> <PUBCHEM_BOND_UDEF_STEREO_COUNT>
0

> <PUBCHEM_ISOTOPIC_ATOM_COUNT>
0

> <PUBCHEM_COMPONENT_COUNT>
1

> <PUBCHEM_CACTVS_TAUTO_COUNT>
2

> <PUBCHEM_COORDINATE_TYPE>
1
5
255

> <PUBCHEM_BONDANNOTATIONS>
2  5  8
2  7  8
3  4  8
3  7  8
4  5  8

$$$$

