85
  -OEChem-07051212442D

 27 26  0     1  0  0  0  0  0999 V2000
    5.1350   -0.7780    0.0000 O   0  0  0  0  0  0  0  0  0  0  0  0
    2.5369    0.7220    0.0000 O   0  0  0  0  0  0  0  0  0  0  0  0
    3.4030   -0.7780    0.0000 O   0  0  0  0  0  0  0  0  0  0  0  0
    6.8671    0.2220    0.0000 N   0  3  0  0  0  0  0  0  0  0  0  0
    6.0010    0.7220    0.0000 C   0  0  0  0  0  0  0  0  0  0  0  0
    5.1350    0.2220    0.0000 C   0  0  3  0  0  0  0  0  0  0  0  0
    7.7331   -0.2780    0.0000 C   0  0  0  0  0  0  0  0  0  0  0  0
    7.3671    1.0880    0.0000 C   0  0  0  0  0  0  0  0  0  0  0  0
    6.3671   -0.6440    0.0000 C   0  0  0  0  0  0  0  0  0  0  0  0
    4.2690    0.7220    0.0000 C   0  0  0  0  0  0  0  0  0  0  0  0
    3.4030    0.2220    0.0000 C   0  0  0  0  0  0  0  0  0  0  0  0
    6.3996    1.1969    0.0000 H   0  0  0  0  0  0  0  0  0  0  0  0
    5.6025    1.1969    0.0000 H   0  0  0  0  0  0  0  0  0  0  0  0
    5.8711   -0.2030    0.0000 H   0  0  0  0  0  0  0  0  0  0  0  0
    5.8301   -0.3340    0.0000 H   0  0  0  0  0  0  0  0  0  0  0  0
    6.0571   -1.1810    0.0000 H   0  0  0  0  0  0  0  0  0  0  0  0
    6.9040   -0.9540    0.0000 H   0  0  0  0  0  0  0  0  0  0  0  0
    7.9040    0.7780    0.0000 H   0  0  0  0  0  0  0  0  0  0  0  0
    7.6771    1.6249    0.0000 H   0  0  0  0  0  0  0  0  0  0  0  0
    6.8301    1.3980    0.0000 H   0  0  0  0  0  0  0  0  0  0  0  0
    7.4231   -0.8149    0.0000 H   0  0  0  0  0  0  0  0  0  0  0  0
    8.2700   -0.5880    0.0000 H   0  0  0  0  0  0  0  0  0  0  0  0
    8.0431    0.2589    0.0000 H   0  0  0  0  0  0  0  0  0  0  0  0
    4.6675    1.1969    0.0000 H   0  0  0  0  0  0  0  0  0  0  0  0
    3.8705    1.1969    0.0000 H   0  0  0  0  0  0  0  0  0  0  0  0
    4.5981   -1.0880    0.0000 H   0  0  0  0  0  0  0  0  0  0  0  0
    2.0000    0.4120    0.0000 H   0  0  0  0  0  0  0  0  0  0  0  0
  1  6  1  0  0  0  0
  1 26  1  0  0  0  0
  2 11  1  0  0  0  0
  2 27  1  0  0  0  0
  3 11  2  0  0  0  0
  4  5  1  0  0  0  0
  4  7  1  0  0  0  0
  4  8  1  0  0  0  0
  4  9  1  0  0  0  0
  5  6  1  0  0  0  0
  5 12  1  0  0  0  0
  5 13  1  0  0  0  0
  6 10  1  0  0  0  0
  6 14  1  0  0  0  0
  7 21  1  0  0  0  0
  7 22  1  0  0  0  0
  7 23  1  0  0  0  0
  8 18  1  0  0  0  0
  8 19  1  0  0  0  0
  8 20  1  0  0  0  0
  9 15  1  0  0  0  0
  9 16  1  0  0  0  0
  9 17  1  0  0  0  0
 10 11  1  0  0  0  0
 10 24  1  0  0  0  0
 10 25  1  0  0  0  0
M  CHG  1   4   1
M  END
> <PUBCHEM_COMPOUND_CID>
85

> <PUBCHEM_COMPOUND_CANONICALIZED>
1

> <PUBCHEM_CACTVS_COMPLEXITY>
139

> <PUBCHEM_CACTVS_HBOND_ACCEPTOR>
3

> <PUBCHEM_CACTVS_HBOND_DONOR>
2

> <PUBCHEM_CACTVS_ROTATABLE_BOND>
4

> <PUBCHEM_CACTVS_SUBSKEYS>
AAADceBiMAAAAAAAAAAAAAAAAAAAAAAAAAAAAAAAAAAAAAAAAAAAHgAACAAACBThgAYCCAMAAgAIAACQCAAAAAAAAAAAAAEIAAACEBQAgAAEQAAFIAAQAAAkAAAAAAAAAAAAAAAAAAAAAAAAAAAAAAAAAA==

> <PUBCHEM_IUPAC_OPENEYE_NAME>
(3-carboxy-2-hydroxy-propyl)-trimethyl-ammonium

> <PUBCHEM_IUPAC_CAS_NAME>
(3-carboxy-2-hydroxypropyl)-trimethylammonium

> <PUBCHEM_IUPAC_NAME>
(3-carboxy-2-hydroxypropyl)-trimethylazanium

> <PUBCHEM_IUPAC_SYSTEMATIC_NAME>
[2,4-bis(oxidanyl)-4-oxidanylidene-butyl]-trimethyl-azanium

> <PUBCHEM_IUPAC_TRADITIONAL_NAME>
(3-carboxy-2-hydroxy-propyl)-trimethyl-ammonium

> <PUBCHEM_IUPAC_INCHI>
InChI=1S/C7H15NO3/c1-8(2,3)5-6(9)4-7(10)11/h6,9H,4-5H2,1-3H3/p+1

> <PUBCHEM_IUPAC_INCHIKEY>
PHIQHXFUZVPYII-UHFFFAOYSA-O

> <PUBCHEM_XLOGP3_AA>
-0.8

> <PUBCHEM_EXACT_MASS>
162.113018

> <PUBCHEM_MOLECULAR_FORMULA>
C7H16NO3+

> <PUBCHEM_MOLECULAR_WEIGHT>
162.20684

> <PUBCHEM_OPENEYE_CAN_SMILES>
C[N+](C)(C)CC(CC(=O)O)O

> <PUBCHEM_OPENEYE_ISO_SMILES>
C[N+](C)(C)CC(CC(=O)O)O

> <PUBCHEM_CACTVS_TPSA>
57.5

> <PUBCHEM_MONOISOTOPIC_WEIGHT>
162.113018

> <PUBCHEM_TOTAL_CHARGE>
1

> <PUBCHEM_HEAVY_ATOM_COUNT>
11

> <PUBCHEM_ATOM_DEF_STEREO_COUNT>
0

> <PUBCHEM_ATOM_UDEF_STEREO_COUNT>
1

> <PUBCHEM_BOND_DEF_STEREO_COUNT>
0

> <PUBCHEM_BOND_UDEF_STEREO_COUNT>
0

> <PUBCHEM_ISOTOPIC_ATOM_COUNT>
0

> <PUBCHEM_COMPONENT_COUNT>
1

> <PUBCHEM_CACTVS_TAUTO_COUNT>
1

> <PUBCHEM_COORDINATE_TYPE>
1
5
255

> <PUBCHEM_BONDANNOTATIONS>
6  14  3

$$$$

