   Color/Form

     * RHOMBIC CRYSTALS FROM BENZENE
     * WHITE CRYSTALS

   from [1]HSDB

   Odor
        CHARACTERISTIC ODOR
   from [2]HSDB

   Boiling Point
        268 DEG C, SUBLIMES
   from [3]HSDB

   Melting Point
        162-164 DEG C WITH DECOMP, ALSO REPORTED AS 172 DEG C
   from [4]HSDB

   Density/Specific Gravity
        1.632
   from [5]HSDB

   Dissociation Constants
        ACID DISSOCIATION CONSTANTS: 3.84 & 5.55
   from [6]HSDB

   Solubilities

     * 1 G DISSOLVES IN 12 ML WATER, 5 ML ALC; VERY SLIGHTLY SOL IN
       BENZENE, CHLOROFORM, CARBON DISULFIDE, PETROLEUM ETHER
     * SOL IN ACETONE

   from [7]HSDB

   Spectral Properties

     * SADTLER REF NUMBER: 5519 (IR, PRISM), 4408 (NMR)
     * IR: 1279 (Coblentz Society Spectral Collection)
     * NMR: 433 (Varian Associates NMR Spectra Catalogue)
     * MASS: 263 (National Bureau of Standards EPA-NIH Mass Spectra Data
       Base, NSRDS-NBS-63)

   from [8]HSDB

   Other Chemical/Physical Properties
        HYGROSCOPIC
   from [9]HSDB

   Computed Properties
   Molecular Weight                  130.09874 [g/mol]
   Molecular Formula                 C[5]H[6]O[4]
   XLogP3-AA                         -0.1
   H-Bond Donor                      2
   H-Bond Acceptor                   4
   Rotatable Bond Count              3
   Exact Mass                        130.026609
   MonoIsotopic Mass                 130.026609
   Topological Polar Surface Area    74.6
   Heavy Atom Count                  9
   Formal Charge                     0
   Complexity                        158
   Isotope Atom Count                0
   Defined Atom Stereocenter Count   0
   Undefined Atom Stereocenter Count 0
   Defined Bond Stereocenter Count   0
   Undefined Bond Stereocenter Count 0
   Covalently-Bonded Unit Count      1
   Feature 3D Acceptor Count         4
   Feature 3D Anion Count            2
   Feature 3D Hydrophobe Count       1
   Effective Rotor Count             3
   Conformer Sampling RMSD           0.6
   CID Conformer Count               [10]16

References

   1. http://toxnet.nlm.nih.gov/cgi-bin/sis/search/r?dbs+hsdb:@term+@rn+@rel+97-65-4
   2. http://toxnet.nlm.nih.gov/cgi-bin/sis/search/r?dbs+hsdb:@term+@rn+@rel+97-65-4
   3. http://toxnet.nlm.nih.gov/cgi-bin/sis/search/r?dbs+hsdb:@term+@rn+@rel+97-65-4
   4. http://toxnet.nlm.nih.gov/cgi-bin/sis/search/r?dbs+hsdb:@term+@rn+@rel+97-65-4
   5. http://toxnet.nlm.nih.gov/cgi-bin/sis/search/r?dbs+hsdb:@term+@rn+@rel+97-65-4
   6. http://toxnet.nlm.nih.gov/cgi-bin/sis/search/r?dbs+hsdb:@term+@rn+@rel+97-65-4
   7. http://toxnet.nlm.nih.gov/cgi-bin/sis/search/r?dbs+hsdb:@term+@rn+@rel+97-65-4
   8. http://toxnet.nlm.nih.gov/cgi-bin/sis/search/r?dbs+hsdb:@term+@rn+@rel+97-65-4
   9. http://toxnet.nlm.nih.gov/cgi-bin/sis/search/r?dbs+hsdb:@term+@rn+@rel+97-65-4
  10. http://pubchem.ncbi.nlm.nih.gov/vw3d/vw3d.cgi?cid=811
