23657843
  -OEChem-07051213112D

 86 90  0     1  0  0  0  0  0999 V2000
    6.8978   -3.7204    0.0000 O   0  0  0  0  0  0  0  0  0  0  0  0
    5.1190   -2.8264    0.0000 O   0  0  0  0  0  0  0  0  0  0  0  0
    5.1190   -1.0943    0.0000 O   0  0  0  0  0  0  0  0  0  0  0  0
    2.5016   -0.2534    0.0000 O   0  0  0  0  0  0  0  0  0  0  0  0
    4.1582    4.1289    0.0000 O   0  0  0  0  0  0  0  0  0  0  0  0
    3.5197   -1.6546    0.0000 O   0  0  0  0  0  0  0  0  0  0  0  0
   12.2286   -5.9914    0.0000 O   0  0  0  0  0  0  0  0  0  0  0  0
    7.4856    0.6087    0.0000 N   0  0  0  0  0  0  0  0  0  0  0  0
    9.1041   -1.1556    0.0000 N   0  0  0  0  0  0  0  0  0  0  0  0
    5.5431    3.0074    0.0000 N   0  0  0  0  0  0  0  0  0  0  0  0
   10.7809   -3.7399    0.0000 N   0  0  0  0  0  0  0  0  0  0  0  0
    5.9467    0.1087    0.0000 C   0  0  1  0  0  0  0  0  0  0  0  0
    5.9467    1.1087    0.0000 C   0  0  1  0  0  0  0  0  0  0  0  0
    6.8978   -0.2003    0.0000 C   0  0  0  0  0  0  0  0  0  0  0  0
    6.8978    1.4178    0.0000 C   0  0  0  0  0  0  0  0  0  0  0  0
    7.2068   -1.1513    0.0000 C   0  0  0  0  0  0  0  0  0  0  0  0
    5.1377   -0.4790    0.0000 C   0  0  0  0  0  0  0  0  0  0  0  0
    6.6190   -1.9604    0.0000 C   0  0  2  0  0  0  0  0  0  0  0  0
    7.2068    2.3688    0.0000 C   0  0  0  0  0  0  0  0  0  0  0  0
    8.1578   -1.4604    0.0000 C   0  0  0  0  0  0  0  0  0  0  0  0
    5.1377    1.6965    0.0000 C   0  0  0  0  0  0  0  0  0  0  0  0
    8.1578   -2.4604    0.0000 C   0  0  0  0  0  0  0  0  0  0  0  0
    6.5377    3.1120    0.0000 C   0  0  3  0  0  0  0  0  0  0  0  0
    7.2068   -2.7694    0.0000 C   0  0  0  0  0  0  0  0  0  0  0  0
    4.2242   -0.0723    0.0000 C   0  0  0  0  0  0  0  0  0  0  0  0
    9.1041   -2.7651    0.0000 C   0  0  0  0  0  0  0  0  0  0  0  0
    9.6877   -1.9604    0.0000 C   0  0  0  0  0  0  0  0  0  0  0  0
    6.7456    4.0901    0.0000 C   0  0  0  0  0  0  0  0  0  0  0  0
    5.6190   -1.9604    0.0000 C   0  0  0  0  0  0  0  0  0  0  0  0
   10.6877   -1.9604    0.0000 C   0  0  0  0  0  0  0  0  0  0  0  0
    9.4147   -3.7156    0.0000 C   0  0  0  0  0  0  0  0  0  0  0  0
    5.8795    4.5901    0.0000 C   0  0  0  0  0  0  0  0  0  0  0  0
    5.1364    3.9210    0.0000 C   0  0  0  0  0  0  0  0  0  0  0  0
   11.1877   -2.8264    0.0000 C   0  0  0  0  0  0  0  0  0  0  0  0
    3.4151   -0.6601    0.0000 C   0  0  0  0  0  0  0  0  0  0  0  0
    7.6591    4.4968    0.0000 C   0  0  0  0  0  0  0  0  0  0  0  0
   12.1822   -2.9309    0.0000 C   0  0  0  0  0  0  0  0  0  0  0  0
    5.7750    5.5846    0.0000 C   0  0  0  0  0  0  0  0  0  0  0  0
   12.3901   -3.9090    0.0000 C   0  0  0  0  0  0  0  0  0  0  0  0
   11.5241   -4.4090    0.0000 C   0  0  0  0  0  0  0  0  0  0  0  0
   12.8513   -2.1878    0.0000 C   0  0  0  0  0  0  0  0  0  0  0  0
    4.1190   -2.8264    0.0000 C   0  0  0  0  0  0  0  0  0  0  0  0
   13.3037   -4.3158    0.0000 C   0  0  0  0  0  0  0  0  0  0  0  0
   13.8295   -2.3957    0.0000 C   0  0  0  0  0  0  0  0  0  0  0  0
    4.8615    5.9914    0.0000 C   0  0  0  0  0  0  0  0  0  0  0  0
   11.4196   -5.4036    0.0000 C   0  0  0  0  0  0  0  0  0  0  0  0
    5.3943    0.3902    0.0000 H   0  0  0  0  0  0  0  0  0  0  0  0
    5.3943    0.8273    0.0000 H   0  0  0  0  0  0  0  0  0  0  0  0
    4.7910   -0.9931    0.0000 H   0  0  0  0  0  0  0  0  0  0  0  0
    5.5837   -0.9097    0.0000 H   0  0  0  0  0  0  0  0  0  0  0  0
    6.3375   -1.4079    0.0000 H   0  0  0  0  0  0  0  0  0  0  0  0
    7.7542    2.0777    0.0000 H   0  0  0  0  0  0  0  0  0  0  0  0
    7.5885    2.8574    0.0000 H   0  0  0  0  0  0  0  0  0  0  0  0
    5.5021    2.1981    0.0000 H   0  0  0  0  0  0  0  0  0  0  0  0
    4.6361    2.0610    0.0000 H   0  0  0  0  0  0  0  0  0  0  0  0
    4.7733    1.1949    0.0000 H   0  0  0  0  0  0  0  0  0  0  0  0
    6.3155    2.5331    0.0000 H   0  0  0  0  0  0  0  0  0  0  0  0
    4.5708    0.4417    0.0000 H   0  0  0  0  0  0  0  0  0  0  0  0
    3.7782    0.3584    0.0000 H   0  0  0  0  0  0  0  0  0  0  0  0
    9.2967   -0.5663    0.0000 H   0  0  0  0  0  0  0  0  0  0  0  0
    5.2331    2.4705    0.0000 H   0  0  0  0  0  0  0  0  0  0  0  0
   11.2703   -1.7483    0.0000 H   0  0  0  0  0  0  0  0  0  0  0  0
   10.5800   -1.3498    0.0000 H   0  0  0  0  0  0  0  0  0  0  0  0
    8.8254   -3.9082    0.0000 H   0  0  0  0  0  0  0  0  0  0  0  0
    9.6073   -4.3049    0.0000 H   0  0  0  0  0  0  0  0  0  0  0  0
   10.0041   -3.5230    0.0000 H   0  0  0  0  0  0  0  0  0  0  0  0
    7.9113    3.9304    0.0000 H   0  0  0  0  0  0  0  0  0  0  0  0
    8.2255    4.7490    0.0000 H   0  0  0  0  0  0  0  0  0  0  0  0
    7.4069    5.0632    0.0000 H   0  0  0  0  0  0  0  0  0  0  0  0
   10.1745   -3.8688    0.0000 H   0  0  0  0  0  0  0  0  0  0  0  0
    6.2766    5.9490    0.0000 H   0  0  0  0  0  0  0  0  0  0  0  0
   13.0836   -1.6129    0.0000 H   0  0  0  0  0  0  0  0  0  0  0  0
   12.3255   -1.8592    0.0000 H   0  0  0  0  0  0  0  0  0  0  0  0
    2.0000   -0.6178    0.0000 H   0  0  0  0  0  0  0  0  0  0  0  0
    4.1190   -2.2064    0.0000 H   0  0  0  0  0  0  0  0  0  0  0  0
    3.4990   -2.8264    0.0000 H   0  0  0  0  0  0  0  0  0  0  0  0
    4.1190   -3.4464    0.0000 H   0  0  0  0  0  0  0  0  0  0  0  0
   13.0515   -4.8822    0.0000 H   0  0  0  0  0  0  0  0  0  0  0  0
   13.8701   -4.5680    0.0000 H   0  0  0  0  0  0  0  0  0  0  0  0
   13.5558   -3.7494    0.0000 H   0  0  0  0  0  0  0  0  0  0  0  0
   13.7006   -3.0021    0.0000 H   0  0  0  0  0  0  0  0  0  0  0  0
   14.4359   -2.5246    0.0000 H   0  0  0  0  0  0  0  0  0  0  0  0
   13.9584   -1.7892    0.0000 H   0  0  0  0  0  0  0  0  0  0  0  0
    4.7967    6.6080    0.0000 H   0  0  0  0  0  0  0  0  0  0  0  0
    4.3599    5.6269    0.0000 H   0  0  0  0  0  0  0  0  0  0  0  0
   10.8532   -5.6558    0.0000 H   0  0  0  0  0  0  0  0  0  0  0  0
  1 24  2  0  0  0  0
  2 29  1  0  0  0  0
  2 42  1  0  0  0  0
  3 29  2  0  0  0  0
  4 35  1  0  0  0  0
  4 74  1  0  0  0  0
  5 33  2  0  0  0  0
  6 35  2  0  0  0  0
  7 46  2  0  0  0  0
  8 14  1  0  0  0  0
  8 15  2  0  0  0  0
  9 20  1  0  0  0  0
  9 27  1  0  0  0  0
  9 60  1  0  0  0  0
 10 23  1  0  0  0  0
 10 33  1  0  0  0  0
 10 61  1  0  0  0  0
 11 34  1  0  0  0  0
 11 40  1  0  0  0  0
 11 70  1  0  0  0  0
 12 13  1  0  0  0  0
 12 14  1  0  0  0  0
 12 17  1  1  0  0  0
 12 47  1  0  0  0  0
 13 15  1  0  0  0  0
 13 21  1  6  0  0  0
 13 48  1  0  0  0  0
 14 16  2  0  0  0  0
 15 19  1  0  0  0  0
 16 18  1  0  0  0  0
 16 20  1  0  0  0  0
 17 25  1  0  0  0  0
 17 49  1  0  0  0  0
 17 50  1  0  0  0  0
 18 24  1  0  0  0  0
 18 29  1  6  0  0  0
 18 51  1  0  0  0  0
 19 23  1  0  0  0  0
 19 52  1  0  0  0  0
 19 53  1  0  0  0  0
 20 22  2  0  0  0  0
 21 54  1  0  0  0  0
 21 55  1  0  0  0  0
 21 56  1  0  0  0  0
 22 24  1  0  0  0  0
 22 26  1  0  0  0  0
 23 28  1  0  0  0  0
 23 57  1  0  0  0  0
 25 35  1  0  0  0  0
 25 58  1  0  0  0  0
 25 59  1  0  0  0  0
 26 27  2  0  0  0  0
 26 31  1  0  0  0  0
 27 30  1  0  0  0  0
 28 32  2  0  0  0  0
 28 36  1  0  0  0  0
 30 34  1  0  0  0  0
 30 62  1  0  0  0  0
 30 63  1  0  0  0  0
 31 64  1  0  0  0  0
 31 65  1  0  0  0  0
 31 66  1  0  0  0  0
 32 33  1  0  0  0  0
 32 38  1  0  0  0  0
 34 37  2  0  0  0  0
 36 67  1  0  0  0  0
 36 68  1  0  0  0  0
 36 69  1  0  0  0  0
 37 39  1  0  0  0  0
 37 41  1  0  0  0  0
 38 45  2  0  0  0  0
 38 71  1  0  0  0  0
 39 40  2  0  0  0  0
 39 43  1  0  0  0  0
 40 46  1  0  0  0  0
 41 44  1  0  0  0  0
 41 72  1  0  0  0  0
 41 73  1  0  0  0  0
 42 75  1  0  0  0  0
 42 76  1  0  0  0  0
 42 77  1  0  0  0  0
 43 78  1  0  0  0  0
 43 79  1  0  0  0  0
 43 80  1  0  0  0  0
 44 81  1  0  0  0  0
 44 82  1  0  0  0  0
 44 83  1  0  0  0  0
 45 84  1  0  0  0  0
 45 85  1  0  0  0  0
 46 86  1  0  0  0  0
M  END
> <PUBCHEM_COMPOUND_CID>
23657843

> <PUBCHEM_COMPOUND_CANONICALIZED>
1

> <PUBCHEM_CACTVS_COMPLEXITY>
1410

> <PUBCHEM_CACTVS_HBOND_ACCEPTOR>
8

> <PUBCHEM_CACTVS_HBOND_DONOR>
4

> <PUBCHEM_CACTVS_ROTATABLE_BOND>
12

> <PUBCHEM_CACTVS_SUBSKEYS>
AAADcfB/uAAAAAAAAAAAAAAAAAAAAeLECBAAAAAAAAAWAAAB4AAAHgAQCAAADSzhngYCiJLJlgCoA63y3ACCgCAnACAImaG4RNgIIH7I1LGEYYhk9gDIyUe82fOegAAAAAAAAAAAAAAAAAAAASAAAQAAAA==

> <PUBCHEM_IUPAC_OPENEYE_NAME>
3-[(2Z,3S,4S)-2-[(5R)-2-[(3-ethyl-5-formyl-4-methyl-1H-pyrrol-2-yl)methyl]-5-methoxycarbonyl-3-methyl-4-oxo-1H-cyclopenta[b]pyrrol-6-ylidene]-4-methyl-5-[(3-methyl-5-oxo-4-vinyl-1,2-dihydropyrrol-2-yl)methyl]-3,4-dihydropyrrol-3-yl]propanoic acid

> <PUBCHEM_IUPAC_CAS_NAME>
3-[(2Z,3S,4S)-5-[(4-ethenyl-3-methyl-5-oxo-1,2-dihydropyrrol-2-yl)methyl]-2-[(5R)-2-[(3-ethyl-5-formyl-4-methyl-1H-pyrrol-2-yl)methyl]-5-methoxycarbonyl-3-methyl-4-oxo-1H-cyclopenta[b]pyrrol-6-ylidene]-4-methyl-3,4-dihydropyrrol-3-yl]propanoic acid

> <PUBCHEM_IUPAC_NAME>
3-[(2Z,3S,4S)-5-[(4-ethenyl-3-methyl-5-oxo-1,2-dihydropyrrol-2-yl)methyl]-2-[(5R)-2-[(3-ethyl-5-formyl-4-methyl-1H-pyrrol-2-yl)methyl]-5-methoxycarbonyl-3-methyl-4-oxo-1H-cyclopenta[b]pyrrol-6-ylidene]-4-methyl-3,4-dihydropyrrol-3-yl]propanoic acid

> <PUBCHEM_IUPAC_SYSTEMATIC_NAME>
3-[(2Z,3S,4S)-5-[(4-ethenyl-3-methyl-5-oxidanylidene-1,2-dihydropyrrol-2-yl)methyl]-2-[(5R)-2-[(3-ethyl-5-methanoyl-4-methyl-1H-pyrrol-2-yl)methyl]-5-methoxycarbonyl-3-methyl-4-oxidanylidene-1H-cyclopenta[b]pyrrol-6-ylidene]-4-methyl-3,4-dihydropyrrol-3-yl]propanoic acid

> <PUBCHEM_IUPAC_TRADITIONAL_NAME>
3-[(2Z,3S,4S)-2-[(5R)-5-carbomethoxy-2-[(3-ethyl-5-formyl-4-methyl-1H-pyrrol-2-yl)methyl]-4-keto-3-methyl-1H-cyclopenta[b]pyrrol-6-ylidene]-5-[(5-keto-3-methyl-4-vinyl-3-pyrrolin-2-yl)methyl]-4-methyl-1-pyrrolin-3-yl]propionic acid

> <PUBCHEM_IUPAC_INCHI>
InChI=1S/C35H40N4O7/c1-8-19-15(3)26(14-40)36-25(19)13-24-18(6)28-32(38-24)29(30(33(28)43)35(45)46-7)31-21(10-11-27(41)42)17(5)22(37-31)12-23-16(4)20(9-2)34(44)39-23/h9,14,17,21,23,30,36,38H,2,8,10-13H2,1,3-7H3,(H,39,44)(H,41,42)/b31-29-/t17-,21-,23?,30+/m0/s1

> <PUBCHEM_IUPAC_INCHIKEY>
ULSSSZOYSMVFIJ-NPQUFKRBSA-N

> <PUBCHEM_XLOGP3_AA>
2.5

> <PUBCHEM_EXACT_MASS>
628.2897

> <PUBCHEM_MOLECULAR_FORMULA>
C35H40N4O7

> <PUBCHEM_MOLECULAR_WEIGHT>
628.7147

> <PUBCHEM_OPENEYE_CAN_SMILES>
CCC1=C(NC(=C1C)C=O)CC2=C(C3=C(N2)C(=C4C(C(C(=N4)CC5C(=C(C(=O)N5)C=C)C)C)CCC(=O)O)C(C3=O)C(=O)OC)C

> <PUBCHEM_OPENEYE_ISO_SMILES>
CCC1=C(NC(=C1C)C=O)CC2=C(C3=C(N2)/C(=C\4/[C@H]([C@@H](C(=N4)CC5C(=C(C(=O)N5)C=C)C)C)CCC(=O)O)/[C@H](C3=O)C(=O)OC)C

> <PUBCHEM_CACTVS_TPSA>
171

> <PUBCHEM_MONOISOTOPIC_WEIGHT>
628.2897

> <PUBCHEM_TOTAL_CHARGE>
0

> <PUBCHEM_HEAVY_ATOM_COUNT>
46

> <PUBCHEM_ATOM_DEF_STEREO_COUNT>
3

> <PUBCHEM_ATOM_UDEF_STEREO_COUNT>
1

> <PUBCHEM_BOND_DEF_STEREO_COUNT>
1

> <PUBCHEM_BOND_UDEF_STEREO_COUNT>
0

> <PUBCHEM_ISOTOPIC_ATOM_COUNT>
0

> <PUBCHEM_COMPONENT_COUNT>
1

> <PUBCHEM_CACTVS_TAUTO_COUNT>
420

> <PUBCHEM_COORDINATE_TYPE>
1
5
255

> <PUBCHEM_BONDANNOTATIONS>
11  34  8
11  40  8
12  17  5
13  21  6
18  29  6
23  19  3
20  22  8
22  26  8
26  27  8
34  37  8
37  39  8
39  40  8
9  20  8
9  27  8

$$$$

