11953960
  -OEChem-07051213022D

 51 53  0     1  0  0  0  0  0999 V2000
    5.9922    2.5249    0.0000 O   0  0  0  0  0  0  0  0  0  0  0  0
   10.0296    0.3572    0.0000 O   0  0  0  0  0  0  0  0  0  0  0  0
    7.6821    2.9046    0.0000 O   0  0  0  0  0  0  0  0  0  0  0  0
    5.4760    0.8715    0.0000 O   0  0  0  0  0  0  0  0  0  0  0  0
    7.0547   -2.1254    0.0000 N   0  0  0  0  0  0  0  0  0  0  0  0
    4.5274   -1.0012    0.0000 N   0  0  0  0  0  0  0  0  0  0  0  0
    6.3518   -1.3567    0.0000 C   0  0  1  0  0  0  0  0  0  0  0  0
    6.6498   -0.4021    0.0000 C   0  0  0  0  0  0  0  0  0  0  0  0
    5.3364   -1.5890    0.0000 C   0  0  0  0  0  0  0  0  0  0  0  0
    5.0274   -2.5400    0.0000 C   0  0  0  0  0  0  0  0  0  0  0  0
    7.3851    0.2755    0.0000 C   0  0  1  0  0  0  0  0  0  0  0  0
    5.7123   -3.3247    0.0000 C   0  0  0  0  0  0  0  0  0  0  0  0
    6.7328   -3.1160    0.0000 C   0  0  0  0  0  0  0  0  0  0  0  0
    4.0274   -2.5400    0.0000 C   0  0  0  0  0  0  0  0  0  0  0  0
    8.3397   -0.0225    0.0000 C   0  0  1  0  0  0  0  0  0  0  0  0
    3.7183   -1.5890    0.0000 C   0  0  0  0  0  0  0  0  0  0  0  0
    7.1659    1.2512    0.0000 C   0  0  0  0  0  0  0  0  0  0  0  0
    3.3424   -3.3247    0.0000 C   0  0  0  0  0  0  0  0  0  0  0  0
    2.7029   -1.3567    0.0000 C   0  0  0  0  0  0  0  0  0  0  0  0
    8.5589   -0.9981    0.0000 C   0  0  0  0  0  0  0  0  0  0  0  0
    9.0751    0.6552    0.0000 C   0  0  0  0  0  0  0  0  0  0  0  0
    2.3219   -3.1160    0.0000 C   0  0  0  0  0  0  0  0  0  0  0  0
    2.0000   -2.1254    0.0000 C   0  0  0  0  0  0  0  0  0  0  0  0
    6.2114    1.5492    0.0000 C   0  0  0  0  0  0  0  0  0  0  0  0
    7.9013    1.9289    0.0000 C   0  0  0  0  0  0  0  0  0  0  0  0
    9.5135   -1.2961    0.0000 C   0  0  0  0  0  0  0  0  0  0  0  0
    5.0376    2.8229    0.0000 C   0  0  0  0  0  0  0  0  0  0  0  0
    6.9570   -1.2220    0.0000 H   0  0  0  0  0  0  0  0  0  0  0  0
    6.4109    0.1700    0.0000 H   0  0  0  0  0  0  0  0  0  0  0  0
    7.1736   -0.7338    0.0000 H   0  0  0  0  0  0  0  0  0  0  0  0
    6.7933    0.4603    0.0000 H   0  0  0  0  0  0  0  0  0  0  0  0
    5.1824   -3.6465    0.0000 H   0  0  0  0  0  0  0  0  0  0  0  0
    5.9387   -3.9020    0.0000 H   0  0  0  0  0  0  0  0  0  0  0  0
    7.6607   -1.9941    0.0000 H   0  0  0  0  0  0  0  0  0  0  0  0
    6.7513   -3.7358    0.0000 H   0  0  0  0  0  0  0  0  0  0  0  0
    7.3466   -3.2039    0.0000 H   0  0  0  0  0  0  0  0  0  0  0  0
    4.5274   -0.3812    0.0000 H   0  0  0  0  0  0  0  0  0  0  0  0
    8.9315   -0.2072    0.0000 H   0  0  0  0  0  0  0  0  0  0  0  0
    3.5408   -3.9121    0.0000 H   0  0  0  0  0  0  0  0  0  0  0  0
    2.5182   -0.7649    0.0000 H   0  0  0  0  0  0  0  0  0  0  0  0
    8.1030   -1.4183    0.0000 H   0  0  0  0  0  0  0  0  0  0  0  0
    8.9392    1.2602    0.0000 H   0  0  0  0  0  0  0  0  0  0  0  0
    1.9088   -3.5784    0.0000 H   0  0  0  0  0  0  0  0  0  0  0  0
    1.3940   -1.9941    0.0000 H   0  0  0  0  0  0  0  0  0  0  0  0
    8.4931    1.7441    0.0000 H   0  0  0  0  0  0  0  0  0  0  0  0
    9.6494   -1.9010    0.0000 H   0  0  0  0  0  0  0  0  0  0  0  0
    9.9694   -0.8760    0.0000 H   0  0  0  0  0  0  0  0  0  0  0  0
    8.1380    3.3247    0.0000 H   0  0  0  0  0  0  0  0  0  0  0  0
    5.2223    3.4147    0.0000 H   0  0  0  0  0  0  0  0  0  0  0  0
    4.4458    3.0077    0.0000 H   0  0  0  0  0  0  0  0  0  0  0  0
    4.8528    2.2311    0.0000 H   0  0  0  0  0  0  0  0  0  0  0  0
  1 24  1  0  0  0  0
  1 27  1  0  0  0  0
  2 21  2  0  0  0  0
  3 25  1  0  0  0  0
  3 48  1  0  0  0  0
  4 24  2  0  0  0  0
  5  7  1  0  0  0  0
  5 13  1  0  0  0  0
  5 34  1  0  0  0  0
  6  9  1  0  0  0  0
  6 16  1  0  0  0  0
  6 37  1  0  0  0  0
  7  8  1  6  0  0  0
  7  9  1  0  0  0  0
  7 28  1  0  0  0  0
 11  8  1  6  0  0  0
  8 29  1  0  0  0  0
  8 30  1  0  0  0  0
  9 10  2  0  0  0  0
 10 12  1  0  0  0  0
 10 14  1  0  0  0  0
 11 15  1  0  0  0  0
 11 17  1  0  0  0  0
 11 31  1  0  0  0  0
 12 13  1  0  0  0  0
 12 32  1  0  0  0  0
 12 33  1  0  0  0  0
 13 35  1  0  0  0  0
 13 36  1  0  0  0  0
 14 16  1  0  0  0  0
 14 18  2  0  0  0  0
 15 20  1  0  0  0  0
 15 21  1  6  0  0  0
 15 38  1  0  0  0  0
 16 19  2  0  0  0  0
 17 24  1  0  0  0  0
 17 25  2  0  0  0  0
 18 22  1  0  0  0  0
 18 39  1  0  0  0  0
 19 23  1  0  0  0  0
 19 40  1  0  0  0  0
 20 26  2  0  0  0  0
 20 41  1  0  0  0  0
 21 42  1  0  0  0  0
 22 23  2  0  0  0  0
 22 43  1  0  0  0  0
 23 44  1  0  0  0  0
 25 45  1  0  0  0  0
 26 46  1  0  0  0  0
 26 47  1  0  0  0  0
 27 49  1  0  0  0  0
 27 50  1  0  0  0  0
 27 51  1  0  0  0  0
M  END
> <PUBCHEM_COMPOUND_CID>
11953960

> <PUBCHEM_COMPOUND_CANONICALIZED>
1

> <PUBCHEM_CACTVS_COMPLEXITY>
591

> <PUBCHEM_CACTVS_HBOND_ACCEPTOR>
5

> <PUBCHEM_CACTVS_HBOND_DONOR>
3

> <PUBCHEM_CACTVS_ROTATABLE_BOND>
8

> <PUBCHEM_CACTVS_SUBSKEYS>
AAADceB7OAAAAAAAAAAAAAAAAAAAAWAAAAA8QAAAAAAAAFgB8AAAHgAQCAAADSjhngYyyPLJlgCoAyzyzACCgCAhIiAImaE4ZNgIdPLAsZGUIAhkkADI6IeY3+OegAAAAAACAAAAAAAAAAQAAAAAAAAAAA==

> <PUBCHEM_IUPAC_OPENEYE_NAME>
methyl (2Z,3S,4R)-4-formyl-2-(hydroxymethylene)-3-[[(1S)-2,3,4,9-tetrahydro-1H-pyrido[3,4-b]indol-1-yl]methyl]hex-5-enoate

> <PUBCHEM_IUPAC_CAS_NAME>
(2Z,3S,4R)-4-formyl-2-(hydroxymethylidene)-3-[[(1S)-2,3,4,9-tetrahydro-1H-pyrido[3,4-b]indol-1-yl]methyl]-5-hexenoic acid methyl ester

> <PUBCHEM_IUPAC_NAME>
methyl (2Z,3S,4R)-4-formyl-2-(hydroxymethylidene)-3-[[(1S)-2,3,4,9-tetrahydro-1H-pyrido[3,4-b]indol-1-yl]methyl]hex-5-enoate

> <PUBCHEM_IUPAC_SYSTEMATIC_NAME>
methyl (2Z,3S,4R)-4-methanoyl-2-(oxidanylmethylidene)-3-[[(1S)-2,3,4,9-tetrahydro-1H-pyrido[3,4-b]indol-1-yl]methyl]hex-5-enoate

> <PUBCHEM_IUPAC_TRADITIONAL_NAME>
(2Z,3S,4R)-4-formyl-2-(hydroxymethylene)-3-[[(1S)-2,3,4,9-tetrahydro-1H-$b-carbolin-1-yl]methyl]hex-5-enoic acid methyl ester

> <PUBCHEM_IUPAC_INCHI>
InChI=1S/C21H24N2O4/c1-3-13(11-24)16(17(12-25)21(26)27-2)10-19-20-15(8-9-22-19)14-6-4-5-7-18(14)23-20/h3-7,11-13,16,19,22-23,25H,1,8-10H2,2H3/b17-12-/t13-,16-,19-/m0/s1

> <PUBCHEM_IUPAC_INCHIKEY>
ZNZYKNKBJPZETN-WELNAUFTSA-N

> <PUBCHEM_XLOGP3_AA>
2.5

> <PUBCHEM_EXACT_MASS>
368.173607

> <PUBCHEM_MOLECULAR_FORMULA>
C21H24N2O4

> <PUBCHEM_MOLECULAR_WEIGHT>
368.42626

> <PUBCHEM_OPENEYE_CAN_SMILES>
COC(=O)C(=CO)C(CC1C2=C(CCN1)C3=CC=CC=C3N2)C(C=C)C=O

> <PUBCHEM_OPENEYE_ISO_SMILES>
COC(=O)/C(=C\O)/[C@@H](C[C@H]1C2=C(CCN1)C3=CC=CC=C3N2)[C@@H](C=C)C=O

> <PUBCHEM_CACTVS_TPSA>
91.4

> <PUBCHEM_MONOISOTOPIC_WEIGHT>
368.173607

> <PUBCHEM_TOTAL_CHARGE>
0

> <PUBCHEM_HEAVY_ATOM_COUNT>
27

> <PUBCHEM_ATOM_DEF_STEREO_COUNT>
3

> <PUBCHEM_ATOM_UDEF_STEREO_COUNT>
0

> <PUBCHEM_BOND_DEF_STEREO_COUNT>
1

> <PUBCHEM_BOND_UDEF_STEREO_COUNT>
0

> <PUBCHEM_ISOTOPIC_ATOM_COUNT>
0

> <PUBCHEM_COMPONENT_COUNT>
1

> <PUBCHEM_CACTVS_TAUTO_COUNT>
9

> <PUBCHEM_COORDINATE_TYPE>
1
5
255

> <PUBCHEM_BONDANNOTATIONS>
10  14  8
14  16  8
14  18  8
15  21  6
16  19  8
18  22  8
19  23  8
22  23  8
6  16  8
6  9  8
7  8  6
11  8  6
9  10  8

$$$$

