   Color/Form

     * White or creamy white, crystalline powder
     * Minute crystals
     * NEEDLES
     * Very small crystals from cyclohexanone

   from [1]HSDB

   Odor
        Slight, pleasant odor
   from [2]HSDB

   Taste
        Slightly bitter taste
   from [3]HSDB

   Melting Point
        287-293 deg C
   from [4]HSDB

   Octanol/Water Partition Coefficient
        log Kow = 2.07 @ pH 7.4
   from [5]HSDB

   Solubilities

     * Practically insol in water, alc, ether.
     * INSOL IN ACETONE
     * Sol in aq alkaline solns, in pyridine and similar org bases.
       Slightly sol in benzene and chloroform.

   from [6]HSDB

   Spectral Properties

     * MAX ABSORPTION: 280 NM (LOG E= 4.34)
     * IR: 5110 (Coblentz Society spectral collection)
     * UV: 7-806 (Organic Electronic Spectral Data, Phillips et al, John
       Wiley & Sons, New York)

   from [7]HSDB

   Computed Properties
   Molecular Weight                  336.29498 [g/mol]
   Molecular Formula                 C[19]H[12]O[6]
   XLogP3-AA                         2.6
   H-Bond Donor                      2
   H-Bond Acceptor                   6
   Rotatable Bond Count              2
   Tautomer Count                    6
   Exact Mass                        336.063388
   MonoIsotopic Mass                 336.063388
   Topological Polar Surface Area    93.1
   Heavy Atom Count                  25
   Formal Charge                     0
   Complexity                        605
   Isotope Atom Count                0
   Defined Atom Stereocenter Count   0
   Undefined Atom Stereocenter Count 0
   Defined Bond Stereocenter Count   0
   Undefined Bond Stereocenter Count 0
   Covalently-Bonded Unit Count      1
   Feature 3D Acceptor Count         2
   Feature 3D Donor Count            2
   Feature 3D Ring Count             4
   Effective Rotor Count             2
   Conformer Sampling RMSD           0.6
   CID Conformer Count               [8]12

References

   1. http://toxnet.nlm.nih.gov/cgi-bin/sis/search/r?dbs+hsdb:@term+@rn+@rel+66-76-2
   2. http://toxnet.nlm.nih.gov/cgi-bin/sis/search/r?dbs+hsdb:@term+@rn+@rel+66-76-2
   3. http://toxnet.nlm.nih.gov/cgi-bin/sis/search/r?dbs+hsdb:@term+@rn+@rel+66-76-2
   4. http://toxnet.nlm.nih.gov/cgi-bin/sis/search/r?dbs+hsdb:@term+@rn+@rel+66-76-2
   5. http://toxnet.nlm.nih.gov/cgi-bin/sis/search/r?dbs+hsdb:@term+@rn+@rel+66-76-2
   6. http://toxnet.nlm.nih.gov/cgi-bin/sis/search/r?dbs+hsdb:@term+@rn+@rel+66-76-2
   7. http://toxnet.nlm.nih.gov/cgi-bin/sis/search/r?dbs+hsdb:@term+@rn+@rel+66-76-2
   8. http://pubchem.ncbi.nlm.nih.gov/vw3d/vw3d.cgi?cid=54676038
