   Chemical and Physical Properties References

   [1]USDA ARS - USDA chemical properties
   from [2]ChemIDplus

   Color/Form

     * Colorless crystals
     * White, crystalline solid or liquid (above 87 degrees F) [Note:
       Technical grade is a brown, viscous liquid].

   from [3]HSDB

   Melting Point
        30.0-30.5 deg C
   from [4]HSDB

   Density/Specific Gravity
        1.3 g/cu cm
   from [5]HSDB

   Octanol/Water Partition Coefficient
        log Kow = 5.96
   from [6]HSDB

   Solubilities

     * Soluble in common organic solvents such as diethyl ether, aromatic
       and chlorinated hydrocarbons.
     * Soluble in acetonitrile, carbon tetrachloride, ether, toluene
     * In hexane, 9.6 g/L
     * In water, 9.0X10-6 g/L at 10 deg C; 2.7X10-4 g/L at 20 deg C;
       7.0X10-4 g/L at 30 deg C
     * In water, 0.27 mg/L at 25 deg C [Shiu WY et al; Rev Environ Contam
       Toxicol 116: 15-187 (1990)] [7]PubMed Abstract

   from [8]HSDB

   Spectral Properties
        Intense mass spectral peaks: 466 m/z (100%), 125 m/z (51%), 93 m/z
   (38%), 47 m/z (35%)
   from [9]HSDB

   Vapor Pressure
        7.9X10-8 mm Hg at 25 deg C (est)
   from [10]HSDB

   Other Chemical/Physical Properties

     * Color: brown viscous liquid; density: 1.32; index of refraction:
       1.586 to 1.588 at 25 deg C/D. /Technical temephos/
     * Hydrolyzed by strong acids and alkalis
     * Amber viscous liquid; decomposes at 120-125 deg C. /Technical (>90%
       pure)/
     * Optimum stability is at pH 5-7 and below 49 deg C
     * Henry's Law constant = 1.2X10-9 atm-cu m/mole at 25 deg C (est)

   from [11]HSDB

   Computed Properties
   Molecular Weight                  466.468924 [g/mol]
   Molecular Formula                 C[16]H[20]O[6]P[2]S[3]
   XLogP3                            6
   H-Bond Donor                      0
   H-Bond Acceptor                   9
   Rotatable Bond Count              10
   Exact Mass                        465.989725
   MonoIsotopic Mass                 465.989725
   Topological Polar Surface Area    145
   Heavy Atom Count                  27
   Formal Charge                     0
   Complexity                        474
   Isotope Atom Count                0
   Defined Atom Stereocenter Count   0
   Undefined Atom Stereocenter Count 0
   Defined Bond Stereocenter Count   0
   Undefined Bond Stereocenter Count 0
   Covalently-Bonded Unit Count      1
   Feature 3D Ring Count             2
   Effective Rotor Count             10
   Conformer Sampling RMSD           1
   CID Conformer Count               [12]79

References

   1. http://www.ars.usda.gov/SP2UserFiles/ad_hoc/12755100DatabaseFiles/PesticidePropertiesDatabase/IndividualPesticideFiles/TEMEPHOS.TXT
   2. http://chem.sis.nlm.nih.gov/chemidplus/
   3. http://toxnet.nlm.nih.gov/cgi-bin/sis/search/r?dbs+hsdb:@term+@rn+@rel+3383-96-8
   4. http://toxnet.nlm.nih.gov/cgi-bin/sis/search/r?dbs+hsdb:@term+@rn+@rel+3383-96-8
   5. http://toxnet.nlm.nih.gov/cgi-bin/sis/search/r?dbs+hsdb:@term+@rn+@rel+3383-96-8
   6. http://toxnet.nlm.nih.gov/cgi-bin/sis/search/r?dbs+hsdb:@term+@rn+@rel+3383-96-8
   7. http://www.ncbi.nlm.nih.gov/entrez/query.fcgi?cmd=Retrieve&db=pubmed&dopt=Abstract&list_uids=2205893
   8. http://toxnet.nlm.nih.gov/cgi-bin/sis/search/r?dbs+hsdb:@term+@rn+@rel+3383-96-8
   9. http://toxnet.nlm.nih.gov/cgi-bin/sis/search/r?dbs+hsdb:@term+@rn+@rel+3383-96-8
  10. http://toxnet.nlm.nih.gov/cgi-bin/sis/search/r?dbs+hsdb:@term+@rn+@rel+3383-96-8
  11. http://toxnet.nlm.nih.gov/cgi-bin/sis/search/r?dbs+hsdb:@term+@rn+@rel+3383-96-8
  12. http://pubchem.ncbi.nlm.nih.gov/vw3d/vw3d.cgi?cid=5392
