   Color/Form
        Crystals from acetone
   from [1]HSDB

   Melting Point
        169 deg C
   from [2]HSDB

   Octanol/Water Partition Coefficient
        log Kow = 1.92
   from [3]HSDB

   Solubilities
        In water, 1.6X10+3 mg/L at 25 deg C (est)
   from [4]HSDB

   Vapor Pressure
        1.30X10-11 mm Hg at 25 deg C (est)
   from [5]HSDB

   Other Chemical/Physical Properties

     * Solubility of 100 mg/mL in water at 25 deg C /Naltrexone
       hydrochloride/
     * White crystals; bitter taste /Naltrexone hydrochloride/
     * Off-white to light tan powder /Naltrexone base anhydrous/
     * At 20 deg C: pKa1 (for the proton on the nitrogen) = 8.38; pKa2
       (for the phenolic hydrogen) = 9.93 /Naltrexone HCl/ [Kaufmann JJ et
       al; J Med Chem 18: 647-55 (1975)] [6]PubMed Abstract
     * Henry's Law constant = 4.2X10-19 atm-cu m/mol at 25 deg C (est)

   from [7]HSDB

   Computed Properties
   Molecular Weight                  341.40092 [g/mol]
   Molecular Formula                 C[20]H[23]NO[4]
   XLogP3                            1.9
   H-Bond Donor                      2
   H-Bond Acceptor                   5
   Rotatable Bond Count              2
   Tautomer Count                    6
   Exact Mass                        341.162708
   MonoIsotopic Mass                 341.162708
   Topological Polar Surface Area    70
   Heavy Atom Count                  25
   Formal Charge                     0
   Complexity                        621
   Isotope Atom Count                0
   Defined Atom Stereocenter Count   4
   Undefined Atom Stereocenter Count 0
   Defined Bond Stereocenter Count   0
   Undefined Bond Stereocenter Count 0
   Covalently-Bonded Unit Count      1
   Feature 3D Acceptor Count         3
   Feature 3D Donor Count            2
   Feature 3D Cation Count           1
   Feature 3D Ring Count             5
   Effective Rotor Count             4
   Conformer Sampling RMSD           0.8
   CID Conformer Count               [8]3

References

   1. http://toxnet.nlm.nih.gov/cgi-bin/sis/search/r?dbs+hsdb:@term+@rn+@rel+16590-41-3
   2. http://toxnet.nlm.nih.gov/cgi-bin/sis/search/r?dbs+hsdb:@term+@rn+@rel+16590-41-3
   3. http://toxnet.nlm.nih.gov/cgi-bin/sis/search/r?dbs+hsdb:@term+@rn+@rel+16590-41-3
   4. http://toxnet.nlm.nih.gov/cgi-bin/sis/search/r?dbs+hsdb:@term+@rn+@rel+16590-41-3
   5. http://toxnet.nlm.nih.gov/cgi-bin/sis/search/r?dbs+hsdb:@term+@rn+@rel+16590-41-3
   6. http://www.ncbi.nlm.nih.gov/entrez/query.fcgi?cmd=Retrieve&db=pubmed&dopt=Abstract&list_uids=239235
   7. http://toxnet.nlm.nih.gov/cgi-bin/sis/search/r?dbs+hsdb:@term+@rn+@rel+16590-41-3
   8. http://pubchem.ncbi.nlm.nih.gov/vw3d/vw3d.cgi?cid=5360515
