47205721
  -OEChem-06241223002D

 32 32  0     0  0  0  0  0  0999 V2000
    2.8090    1.6655    0.0000 S   0  0  0  0  0  0  0  0  0  0  0  0
    6.3518   -2.2773    0.0000 O   0  0  0  0  0  0  0  0  0  0  0  0
    6.4712    1.3263    0.0000 O   0  0  0  0  0  0  0  0  0  0  0  0
    6.8870   -0.6300    0.0000 N   0  0  0  0  0  0  0  0  0  0  0  0
    4.7770    0.9661    0.0000 N   0  0  0  0  0  0  0  0  0  0  0  0
    8.0460   -1.9172    0.0000 C   0  0  0  0  0  0  0  0  0  0  0  0
    8.2539   -2.8954    0.0000 C   0  0  0  0  0  0  0  0  0  0  0  0
    5.9360   -0.3210    0.0000 C   0  0  0  0  0  0  0  0  0  0  0  0
    7.0949   -1.6082    0.0000 C   0  0  0  0  0  0  0  0  0  0  0  0
    4.5691    1.9443    0.0000 C   0  0  0  0  0  0  0  0  0  0  0  0
    5.7281    0.6571    0.0000 C   0  0  0  0  0  0  0  0  0  0  0  0
    3.6180    2.2533    0.0000 C   0  0  0  0  0  0  0  0  0  0  0  0
    9.2050   -3.2044    0.0000 C   0  0  0  0  0  0  0  0  0  0  0  0
    3.3090    3.2044    0.0000 C   0  0  0  0  0  0  0  0  0  0  0  0
    2.3090    3.2044    0.0000 C   0  0  0  0  0  0  0  0  0  0  0  0
    2.0000    2.2533    0.0000 C   0  0  0  0  0  0  0  0  0  0  0  0
    8.6656   -1.8956    0.0000 H   0  0  0  0  0  0  0  0  0  0  0  0
    8.1323   -1.3032    0.0000 H   0  0  0  0  0  0  0  0  0  0  0  0
    7.6343   -2.9170    0.0000 H   0  0  0  0  0  0  0  0  0  0  0  0
    8.1676   -3.5093    0.0000 H   0  0  0  0  0  0  0  0  0  0  0  0
    5.3164   -0.3427    0.0000 H   0  0  0  0  0  0  0  0  0  0  0  0
    5.8497   -0.9350    0.0000 H   0  0  0  0  0  0  0  0  0  0  0  0
    5.1887    1.9659    0.0000 H   0  0  0  0  0  0  0  0  0  0  0  0
    4.6554    2.5583    0.0000 H   0  0  0  0  0  0  0  0  0  0  0  0
    7.3478   -0.2152    0.0000 H   0  0  0  0  0  0  0  0  0  0  0  0
    4.3162    0.5513    0.0000 H   0  0  0  0  0  0  0  0  0  0  0  0
    9.0134   -3.7940    0.0000 H   0  0  0  0  0  0  0  0  0  0  0  0
    9.7946   -3.3960    0.0000 H   0  0  0  0  0  0  0  0  0  0  0  0
    9.3966   -2.6147    0.0000 H   0  0  0  0  0  0  0  0  0  0  0  0
    3.6734    3.7060    0.0000 H   0  0  0  0  0  0  0  0  0  0  0  0
    1.9446    3.7060    0.0000 H   0  0  0  0  0  0  0  0  0  0  0  0
    1.4103    2.0617    0.0000 H   0  0  0  0  0  0  0  0  0  0  0  0
  1 12  1  0  0  0  0
  1 16  1  0  0  0  0
  2  9  2  0  0  0  0
  3 11  2  0  0  0  0
  4  8  1  0  0  0  0
  4  9  1  0  0  0  0
  4 25  1  0  0  0  0
  5 10  1  0  0  0  0
  5 11  1  0  0  0  0
  5 26  1  0  0  0  0
  6  7  1  0  0  0  0
  6  9  1  0  0  0  0
  6 17  1  0  0  0  0
  6 18  1  0  0  0  0
  7 13  1  0  0  0  0
  7 19  1  0  0  0  0
  7 20  1  0  0  0  0
  8 11  1  0  0  0  0
  8 21  1  0  0  0  0
  8 22  1  0  0  0  0
 10 12  1  0  0  0  0
 10 23  1  0  0  0  0
 10 24  1  0  0  0  0
 12 14  2  0  0  0  0
 13 27  1  0  0  0  0
 13 28  1  0  0  0  0
 13 29  1  0  0  0  0
 14 15  1  0  0  0  0
 14 30  1  0  0  0  0
 15 16  2  0  0  0  0
 15 31  1  0  0  0  0
 16 32  1  0  0  0  0
M  END
> <PUBCHEM_COMPOUND_CID>
47205721

> <PUBCHEM_COMPOUND_CANONICALIZED>
1

> <PUBCHEM_CACTVS_COMPLEXITY>
246

> <PUBCHEM_CACTVS_HBOND_ACCEPTOR>
3

> <PUBCHEM_CACTVS_HBOND_DONOR>
2

> <PUBCHEM_CACTVS_ROTATABLE_BOND>
6

> <PUBCHEM_CACTVS_SUBSKEYS>
AAADceBzMABAAAAAAAAAAAAAAAAAASAAAAAAAAAAAAAAAAABgAAAHgQQAAAACADF0ASyAYLAAAiMACFSEACDAIAgCBBIiJmIBIgIYDKgkTGUAAhglgCoiAYQAAAAAAAAAAAAAAAAAAAAAAAAAAAAAAAAAA==

> <PUBCHEM_IUPAC_OPENEYE_NAME>
N-[2-oxo-2-(2-thienylmethylamino)ethyl]butanamide

> <PUBCHEM_IUPAC_CAS_NAME>
N-[2-oxo-2-(thiophen-2-ylmethylamino)ethyl]butanamide

> <PUBCHEM_IUPAC_NAME>
N-[2-oxo-2-(thiophen-2-ylmethylamino)ethyl]butanamide

> <PUBCHEM_IUPAC_SYSTEMATIC_NAME>
N-[2-oxidanylidene-2-(thiophen-2-ylmethylamino)ethyl]butanamide

> <PUBCHEM_IUPAC_TRADITIONAL_NAME>
N-[2-keto-2-(2-thenylamino)ethyl]butyramide

> <PUBCHEM_IUPAC_INCHI>
InChI=1S/C11H16N2O2S/c1-2-4-10(14)13-8-11(15)12-7-9-5-3-6-16-9/h3,5-6H,2,4,7-8H2,1H3,(H,12,15)(H,13,14)

> <PUBCHEM_IUPAC_INCHIKEY>
UJVCCNJMOPWTRJ-UHFFFAOYSA-N

> <PUBCHEM_XLOGP3_AA>
0.9

> <PUBCHEM_EXACT_MASS>
240.093249

> <PUBCHEM_MOLECULAR_FORMULA>
C11H16N2O2S

> <PUBCHEM_MOLECULAR_WEIGHT>
240.32194

> <PUBCHEM_OPENEYE_CAN_SMILES>
CCCC(=O)NCC(=O)NCC1=CC=CS1

> <PUBCHEM_OPENEYE_ISO_SMILES>
CCCC(=O)NCC(=O)NCC1=CC=CS1

> <PUBCHEM_CACTVS_TPSA>
86.4

> <PUBCHEM_MONOISOTOPIC_WEIGHT>
240.093249

> <PUBCHEM_TOTAL_CHARGE>
0

> <PUBCHEM_HEAVY_ATOM_COUNT>
16

> <PUBCHEM_ATOM_DEF_STEREO_COUNT>
0

> <PUBCHEM_ATOM_UDEF_STEREO_COUNT>
0

> <PUBCHEM_BOND_DEF_STEREO_COUNT>
0

> <PUBCHEM_BOND_UDEF_STEREO_COUNT>
0

> <PUBCHEM_ISOTOPIC_ATOM_COUNT>
0

> <PUBCHEM_COMPONENT_COUNT>
1

> <PUBCHEM_CACTVS_TAUTO_COUNT>
4

> <PUBCHEM_COORDINATE_TYPE>
1
5
255

> <PUBCHEM_BONDANNOTATIONS>
1  12  8
1  16  8
12  14  8
14  15  8
15  16  8

$$$$

