441948
  -OEChem-07051212562D

 30 31  0     1  0  0  0  0  0999 V2000
    6.4103   -1.4131    0.0000 O   0  0  0  0  0  0  0  0  0  0  0  0
    6.7210    1.1469    0.0000 O   0  0  0  0  0  0  0  0  0  0  0  0
    2.8660    1.3916    0.0000 O   0  0  0  0  0  0  0  0  0  0  0  0
    6.4103    0.1964    0.0000 C   0  0  1  0  0  0  0  0  0  0  0  0
    6.9939   -0.6084    0.0000 C   0  0  2  0  0  0  0  0  0  0  0  0
    5.4641   -0.1084    0.0000 C   0  0  0  0  0  0  0  0  0  0  0  0
    5.4641   -1.1084    0.0000 C   0  0  0  0  0  0  0  0  0  0  0  0
    7.9939   -0.6084    0.0000 C   0  0  0  0  0  0  0  0  0  0  0  0
    4.5981    0.3916    0.0000 C   0  0  0  0  0  0  0  0  0  0  0  0
    4.5981   -1.6084    0.0000 C   0  0  0  0  0  0  0  0  0  0  0  0
    3.7320   -0.1084    0.0000 C   0  0  0  0  0  0  0  0  0  0  0  0
    3.7320   -1.1084    0.0000 C   0  0  0  0  0  0  0  0  0  0  0  0
    8.4939   -1.4744    0.0000 C   0  0  0  0  0  0  0  0  0  0  0  0
    8.4939    0.2577    0.0000 C   0  0  0  0  0  0  0  0  0  0  0  0
    2.8660    0.3916    0.0000 C   0  0  0  0  0  0  0  0  0  0  0  0
    2.0000   -0.1084    0.0000 C   0  0  0  0  0  0  0  0  0  0  0  0
    5.9729    0.6357    0.0000 H   0  0  0  0  0  0  0  0  0  0  0  0
    7.2756   -1.1607    0.0000 H   0  0  0  0  0  0  0  0  0  0  0  0
    4.5981    1.0116    0.0000 H   0  0  0  0  0  0  0  0  0  0  0  0
    4.5981   -2.2284    0.0000 H   0  0  0  0  0  0  0  0  0  0  0  0
    3.1951   -1.4184    0.0000 H   0  0  0  0  0  0  0  0  0  0  0  0
    6.3069    1.6084    0.0000 H   0  0  0  0  0  0  0  0  0  0  0  0
    7.9570   -1.7844    0.0000 H   0  0  0  0  0  0  0  0  0  0  0  0
    8.8039   -2.0113    0.0000 H   0  0  0  0  0  0  0  0  0  0  0  0
    9.0309   -1.1644    0.0000 H   0  0  0  0  0  0  0  0  0  0  0  0
    9.1139    0.2577    0.0000 H   0  0  0  0  0  0  0  0  0  0  0  0
    8.1839    0.7946    0.0000 H   0  0  0  0  0  0  0  0  0  0  0  0
    1.6900    0.4286    0.0000 H   0  0  0  0  0  0  0  0  0  0  0  0
    1.4631   -0.4184    0.0000 H   0  0  0  0  0  0  0  0  0  0  0  0
    2.3100   -0.6453    0.0000 H   0  0  0  0  0  0  0  0  0  0  0  0
  1  5  1  0  0  0  0
  1  7  1  0  0  0  0
  4  2  1  1  0  0  0
  2 22  1  0  0  0  0
  3 15  2  0  0  0  0
  4  5  1  0  0  0  0
  4  6  1  0  0  0  0
  4 17  1  0  0  0  0
  5  8  1  6  0  0  0
  5 18  1  0  0  0  0
  6  7  2  0  0  0  0
  6  9  1  0  0  0  0
  7 10  1  0  0  0  0
  8 13  1  0  0  0  0
  8 14  2  0  0  0  0
  9 11  2  0  0  0  0
  9 19  1  0  0  0  0
 10 12  2  0  0  0  0
 10 20  1  0  0  0  0
 11 12  1  0  0  0  0
 11 15  1  0  0  0  0
 12 21  1  0  0  0  0
 13 23  1  0  0  0  0
 13 24  1  0  0  0  0
 13 25  1  0  0  0  0
 14 26  1  0  0  0  0
 14 27  1  0  0  0  0
 15 16  1  0  0  0  0
 16 28  1  0  0  0  0
 16 29  1  0  0  0  0
 16 30  1  0  0  0  0
M  END
> <PUBCHEM_COMPOUND_CID>
441948

> <PUBCHEM_COMPOUND_CANONICALIZED>
1

> <PUBCHEM_CACTVS_COMPLEXITY>
310

> <PUBCHEM_CACTVS_HBOND_ACCEPTOR>
3

> <PUBCHEM_CACTVS_HBOND_DONOR>
1

> <PUBCHEM_CACTVS_ROTATABLE_BOND>
2

> <PUBCHEM_CACTVS_SUBSKEYS>
AAADccBwMAAAAAAAAAAAAAAAAAAAASAAAAAwAAAAAAAAAEgBAAAAGgAACAAADBSgmAIyBoAABgCIAqBSAAACCAAkIAAIiAEGCMgNNzKENRqCeSClwBELuYeIzPDOIAACAAAIAABAAAQAABAAAAAAAAAAAA==

> <PUBCHEM_IUPAC_OPENEYE_NAME>
1-[(2S,3R)-3-hydroxy-2-isopropenyl-2,3-dihydrobenzofuran-5-yl]ethanone

> <PUBCHEM_IUPAC_CAS_NAME>
1-[(2S,3R)-3-hydroxy-2-(1-methylethenyl)-2,3-dihydrobenzofuran-5-yl]ethanone

> <PUBCHEM_IUPAC_NAME>
1-[(2S,3R)-3-hydroxy-2-prop-1-en-2-yl-2,3-dihydro-1-benzofuran-5-yl]ethanone

> <PUBCHEM_IUPAC_SYSTEMATIC_NAME>
1-[(2S,3R)-3-oxidanyl-2-prop-1-en-2-yl-2,3-dihydro-1-benzofuran-5-yl]ethanone

> <PUBCHEM_IUPAC_TRADITIONAL_NAME>
1-[(2S,3R)-3-hydroxy-2-isopropenyl-coumaran-5-yl]ethanone

> <PUBCHEM_IUPAC_INCHI>
InChI=1S/C13H14O3/c1-7(2)13-12(15)10-6-9(8(3)14)4-5-11(10)16-13/h4-6,12-13,15H,1H2,2-3H3/t12-,13+/m1/s1

> <PUBCHEM_IUPAC_INCHIKEY>
KWZYQHQNOWRQRG-OLZOCXBDSA-N

> <PUBCHEM_XLOGP3_AA>
1.8

> <PUBCHEM_EXACT_MASS>
218.094294

> <PUBCHEM_MOLECULAR_FORMULA>
C13H14O3

> <PUBCHEM_MOLECULAR_WEIGHT>
218.24846

> <PUBCHEM_OPENEYE_CAN_SMILES>
CC(=C)C1C(C2=C(O1)C=CC(=C2)C(=O)C)O

> <PUBCHEM_OPENEYE_ISO_SMILES>
CC(=C)[C@H]1[C@@H](C2=C(O1)C=CC(=C2)C(=O)C)O

> <PUBCHEM_CACTVS_TPSA>
46.5

> <PUBCHEM_MONOISOTOPIC_WEIGHT>
218.094294

> <PUBCHEM_TOTAL_CHARGE>
0

> <PUBCHEM_HEAVY_ATOM_COUNT>
16

> <PUBCHEM_ATOM_DEF_STEREO_COUNT>
2

> <PUBCHEM_ATOM_UDEF_STEREO_COUNT>
0

> <PUBCHEM_BOND_DEF_STEREO_COUNT>
0

> <PUBCHEM_BOND_UDEF_STEREO_COUNT>
0

> <PUBCHEM_ISOTOPIC_ATOM_COUNT>
0

> <PUBCHEM_COMPONENT_COUNT>
1

> <PUBCHEM_CACTVS_TAUTO_COUNT>
2

> <PUBCHEM_COORDINATE_TYPE>
1
5
255

> <PUBCHEM_BONDANNOTATIONS>
10  12  8
11  12  8
4  2  5
5  8  6
6  7  8
6  9  8
7  10  8
9  11  8

$$$$

