   Color/Form

     * Liquid
     * Water-white liquid

   from [1]HSDB

   Odor
        Characteristic, pungent, aldehyde odor
   from [2]HSDB

   Boiling Point
        74.8 deg C
   from [3]HSDB

   Melting Point
        -96.86 deg C
   from [4]HSDB

   Critical Temperature and Pressure
        Critical temperature: 263.95 deg C; Critical pressure: 30,003 mm
   Hg (4000 kPa)
   from [5]HSDB

   Density/Specific Gravity
        0.8016 g/cu cm 20 deg C
   from [6]HSDB

   Heat of Combustion
        2479.34 kJ/mol at 25 deg C (liquid)
   from [7]HSDB

   Heat of Vaporization
        33.68 kJ/mol at 25 deg C
   from [8]HSDB

   Octanol/Water Partition Coefficient
        log Kow = 0.88
   from [9]HSDB

   Solubilities

     * Miscible with ethanol, ether, ethyl acetate, acetone, toluene, many
       other organic solvents andoils
     * Soluble in water; miscible with ethanol; very olubl ein acetone,
       benzene; slightly soluble in chloroform
     * In water, 7.10X10+4 mg/L at 25 deg C

   from [10]HSDB

   Spectral Properties

     * Index of refraction: 1.3843 at 20 deg C
     * MAX ABSORPTION (WATER): 225 NM (LOG E= 1.07); 282 NM (LOG E= 1.13)
     * IR: 333 (Sadtler Research Laboratories Prism Collection)
     * UV: 1-33 (Organic Electronic Spectral Data, Phillips et al, John
       Wiley & Sons, New York)
     * NMR: 78 (Varian Associates NMR Spectra Catalogue)
     * MASS: 61771 (NIST/EPA/MCDC Mass Spectral Database 1990 version)
     * 13C NMR: 74 (Johnson and Jankowski; Carbon-13 NMR for Organic
       Chemists, John Wiley and Sons, NY)

   from [11]HSDB

   Surface Tension
        29.9 dyn/cm at 24 deg C
   from [12]HSDB

   Vapor Density
        2.5 (Air = 1)
   from [13]HSDB

   Vapor Pressure
        111 mm Hg at 25 deg C
   from [14]HSDB

   Viscosity
        0.45 cP at 20 deg C
   from [15]HSDB

   Other Chemical/Physical Properties

     * Wt/gal: 6.7 lb at 20 deg C; Coefficient of expansion: 0.00114 at 20
       deg C
     * /BUTYRALDEHYDE IS/ ... OXIDIZED VERY POORLY OR NOT AT ALL.
     * Henry's Law constant = 1.15X10-4 atm-cu m/mole @ 25 deg C
     * Hydroxyl radical reaction rate constant = 2.35X10-11 cu
       cm/molecule-sec @ 25 deg C

   from [16]HSDB

   Computed Properties
   Molecular Weight                  72.10572 [g/mol]
   Molecular Formula                 C[4]H[8]O
   XLogP3                            0.9
   H-Bond Donor                      0
   H-Bond Acceptor                   1
   Rotatable Bond Count              2
   Tautomer Count                    2
   Exact Mass                        72.057515
   MonoIsotopic Mass                 72.057515
   Topological Polar Surface Area    17.1
   Heavy Atom Count                  5
   Formal Charge                     0
   Complexity                        24.8
   Isotope Atom Count                0
   Defined Atom Stereocenter Count   0
   Undefined Atom Stereocenter Count 0
   Defined Bond Stereocenter Count   0
   Undefined Bond Stereocenter Count 0
   Covalently-Bonded Unit Count      1
   Feature 3D Acceptor Count         1
   Feature 3D Hydrophobe Count       1
   Effective Rotor Count             2
   Conformer Sampling RMSD           0.4
   CID Conformer Count               [17]9

References

   1. http://toxnet.nlm.nih.gov/cgi-bin/sis/search/r?dbs+hsdb:@term+@rn+@rel+123-72-8
   2. http://toxnet.nlm.nih.gov/cgi-bin/sis/search/r?dbs+hsdb:@term+@rn+@rel+123-72-8
   3. http://toxnet.nlm.nih.gov/cgi-bin/sis/search/r?dbs+hsdb:@term+@rn+@rel+123-72-8
   4. http://toxnet.nlm.nih.gov/cgi-bin/sis/search/r?dbs+hsdb:@term+@rn+@rel+123-72-8
   5. http://toxnet.nlm.nih.gov/cgi-bin/sis/search/r?dbs+hsdb:@term+@rn+@rel+123-72-8
   6. http://toxnet.nlm.nih.gov/cgi-bin/sis/search/r?dbs+hsdb:@term+@rn+@rel+123-72-8
   7. http://toxnet.nlm.nih.gov/cgi-bin/sis/search/r?dbs+hsdb:@term+@rn+@rel+123-72-8
   8. http://toxnet.nlm.nih.gov/cgi-bin/sis/search/r?dbs+hsdb:@term+@rn+@rel+123-72-8
   9. http://toxnet.nlm.nih.gov/cgi-bin/sis/search/r?dbs+hsdb:@term+@rn+@rel+123-72-8
  10. http://toxnet.nlm.nih.gov/cgi-bin/sis/search/r?dbs+hsdb:@term+@rn+@rel+123-72-8
  11. http://toxnet.nlm.nih.gov/cgi-bin/sis/search/r?dbs+hsdb:@term+@rn+@rel+123-72-8
  12. http://toxnet.nlm.nih.gov/cgi-bin/sis/search/r?dbs+hsdb:@term+@rn+@rel+123-72-8
  13. http://toxnet.nlm.nih.gov/cgi-bin/sis/search/r?dbs+hsdb:@term+@rn+@rel+123-72-8
  14. http://toxnet.nlm.nih.gov/cgi-bin/sis/search/r?dbs+hsdb:@term+@rn+@rel+123-72-8
  15. http://toxnet.nlm.nih.gov/cgi-bin/sis/search/r?dbs+hsdb:@term+@rn+@rel+123-72-8
  16. http://toxnet.nlm.nih.gov/cgi-bin/sis/search/r?dbs+hsdb:@term+@rn+@rel+123-72-8
  17. http://pubchem.ncbi.nlm.nih.gov/vw3d/vw3d.cgi?cid=261
