   Color/Form

     * CRYSTALS FROM PENTANE OR ETHER
     * FINE, WHITE CRYSTALLINE FLAKES

   from [1]HSDB

   Odor
        FAINT ODOR
   from [2]HSDB

   Melting Point
        51.5 DEG C
   from [3]HSDB

   Solubilities
        19 G/100 ML WATER @ 25 DEG C; FREELY SOL IN ALC; SOL IN BENZENE,
   ETHER, CHLOROFORM
   from [4]HSDB

   Other Chemical/Physical Properties

     * IN DIL SOLN @ PH 1 HYDROGEN SULFIDE IS RELEASED (T/2, APPROX 3 HR)
     * Polyfunctional alkylating agent.

   from [5]HSDB

   Computed Properties
   Molecular Weight                  189.218342 [g/mol]
   Molecular Formula                 C[6]H[12]N[3]PS
   XLogP3                            0.5
   H-Bond Donor                      0
   H-Bond Acceptor                   4
   Rotatable Bond Count              3
   Exact Mass                        189.048955
   MonoIsotopic Mass                 189.048955
   Topological Polar Surface Area    41.1
   Heavy Atom Count                  11
   Formal Charge                     0
   Complexity                        194
   Isotope Atom Count                0
   Defined Atom Stereocenter Count   0
   Undefined Atom Stereocenter Count 0
   Defined Bond Stereocenter Count   0
   Undefined Bond Stereocenter Count 0
   Covalently-Bonded Unit Count      1
   Effective Rotor Count             4.8
   Conformer Sampling RMSD           0.6
   CID Conformer Count               [6]6

References

   1. http://toxnet.nlm.nih.gov/cgi-bin/sis/search/r?dbs+hsdb:@term+@rn+@rel+52-24-4
   2. http://toxnet.nlm.nih.gov/cgi-bin/sis/search/r?dbs+hsdb:@term+@rn+@rel+52-24-4
   3. http://toxnet.nlm.nih.gov/cgi-bin/sis/search/r?dbs+hsdb:@term+@rn+@rel+52-24-4
   4. http://toxnet.nlm.nih.gov/cgi-bin/sis/search/r?dbs+hsdb:@term+@rn+@rel+52-24-4
   5. http://toxnet.nlm.nih.gov/cgi-bin/sis/search/r?dbs+hsdb:@term+@rn+@rel+52-24-4
   6. http://pubchem.ncbi.nlm.nih.gov/vw3d/vw3d.cgi?cid=5453
