115064
  -OEChem-07051213062D

 34 39  0     1  0  0  0  0  0999 V2000
    5.4799    3.5082    0.0000 O   0  0  0  0  0  0  0  0  0  0  0  0
    6.4104   -3.1961    0.0000 O   0  0  0  0  0  0  0  0  0  0  0  0
    5.4796    2.5077    0.0000 C   0  0  3  0  0  0  0  0  0  0  0  0
    4.6136    3.0077    0.0000 C   0  0  3  0  0  0  0  0  0  0  0  0
    5.4796    1.5077    0.0000 C   0  0  0  0  0  0  0  0  0  0  0  0
    3.7476    2.5077    0.0000 C   0  0  0  0  0  0  0  0  0  0  0  0
    4.6136    1.0077    0.0000 C   0  0  0  0  0  0  0  0  0  0  0  0
    3.7476    1.5077    0.0000 C   0  0  0  0  0  0  0  0  0  0  0  0
    4.5976   -0.0338    0.0000 C   0  0  0  0  0  0  0  0  0  0  0  0
    6.3896    1.0009    0.0000 C   0  0  0  0  0  0  0  0  0  0  0  0
    2.8881    1.0130    0.0000 C   0  0  0  0  0  0  0  0  0  0  0  0
    2.8768    3.0219    0.0000 C   0  0  0  0  0  0  0  0  0  0  0  0
    5.4956   -0.5615    0.0000 C   0  0  0  0  0  0  0  0  0  0  0  0
    6.3977   -0.0407    0.0000 C   0  0  0  0  0  0  0  0  0  0  0  0
    3.7204   -0.4965    0.0000 C   0  0  0  0  0  0  0  0  0  0  0  0
    2.8747    0.0213    0.0000 C   0  0  0  0  0  0  0  0  0  0  0  0
    2.0057    1.5069    0.0000 C   0  0  0  0  0  0  0  0  0  0  0  0
    2.0000    2.5181    0.0000 C   0  0  0  0  0  0  0  0  0  0  0  0
    5.4789   -1.6464    0.0000 C   0  0  0  0  0  0  0  0  0  0  0  0
    7.3456   -0.5687    0.0000 C   0  0  0  0  0  0  0  0  0  0  0  0
    6.4143   -2.1961    0.0000 C   0  0  0  0  0  0  0  0  0  0  0  0
    7.3539   -1.6536    0.0000 C   0  0  0  0  0  0  0  0  0  0  0  0
    6.0996    2.5077    0.0000 H   0  0  0  0  0  0  0  0  0  0  0  0
    4.3036    3.5446    0.0000 H   0  0  0  0  0  0  0  0  0  0  0  0
    6.9230    1.3171    0.0000 H   0  0  0  0  0  0  0  0  0  0  0  0
    2.8805    3.6419    0.0000 H   0  0  0  0  0  0  0  0  0  0  0  0
    3.7006   -1.1162    0.0000 H   0  0  0  0  0  0  0  0  0  0  0  0
    2.3318   -0.2780    0.0000 H   0  0  0  0  0  0  0  0  0  0  0  0
    1.4717    1.1918    0.0000 H   0  0  0  0  0  0  0  0  0  0  0  0
    1.4625    2.8271    0.0000 H   0  0  0  0  0  0  0  0  0  0  0  0
    4.9384   -1.9502    0.0000 H   0  0  0  0  0  0  0  0  0  0  0  0
    7.8789   -0.2525    0.0000 H   0  0  0  0  0  0  0  0  0  0  0  0
    7.8921   -1.9616    0.0000 H   0  0  0  0  0  0  0  0  0  0  0  0
    6.9462   -3.5082    0.0000 H   0  0  0  0  0  0  0  0  0  0  0  0
  1  3  1  0  0  0  0
  1  4  1  0  0  0  0
  2 21  1  0  0  0  0
  2 34  1  0  0  0  0
  3  4  1  0  0  0  0
  3  5  1  0  0  0  0
  3 23  1  0  0  0  0
  4  6  1  0  0  0  0
  4 24  1  0  0  0  0
  5  7  2  0  0  0  0
  5 10  1  0  0  0  0
  6  8  1  0  0  0  0
  6 12  2  0  0  0  0
  7  8  1  0  0  0  0
  7  9  1  0  0  0  0
  8 11  2  0  0  0  0
  9 13  2  0  0  0  0
  9 15  1  0  0  0  0
 10 14  2  0  0  0  0
 10 25  1  0  0  0  0
 11 16  1  0  0  0  0
 11 17  1  0  0  0  0
 12 18  1  0  0  0  0
 12 26  1  0  0  0  0
 13 14  1  0  0  0  0
 13 19  1  0  0  0  0
 14 20  1  0  0  0  0
 15 16  2  0  0  0  0
 15 27  1  0  0  0  0
 16 28  1  0  0  0  0
 17 18  2  0  0  0  0
 17 29  1  0  0  0  0
 18 30  1  0  0  0  0
 19 21  2  0  0  0  0
 19 31  1  0  0  0  0
 20 22  2  0  0  0  0
 20 32  1  0  0  0  0
 21 22  1  0  0  0  0
 22 33  1  0  0  0  0
M  END
> <PUBCHEM_COMPOUND_CID>
115064

> <PUBCHEM_COMPOUND_CANONICALIZED>
1

> <PUBCHEM_CACTVS_COMPLEXITY>
476

> <PUBCHEM_CACTVS_HBOND_ACCEPTOR>
2

> <PUBCHEM_CACTVS_HBOND_DONOR>
1

> <PUBCHEM_CACTVS_ROTATABLE_BOND>
0

> <PUBCHEM_CACTVS_SUBSKEYS>
AAADccB4MAAAAAAAAAAAAAAAEgAAAAAAAAAwYMGDBIAAAADBVAAAGgAACAAADBSgmAIwBsAABgCAAiBCAAACAAAgIAAIiAAGCIgIJiKCMRqCcAAkwBEIuAeAwPAO4AADAAAQAADAAAYAADAAAAAAAAAAAA==

> <PUBCHEM_IUPAC_INCHI>
InChI=1S/C20H12O2/c21-12-6-4-11-8-16-18-13(15(11)9-12)7-5-10-2-1-3-14(17(10)18)19-20(16)22-19/h1-9,19-21H

> <PUBCHEM_IUPAC_INCHIKEY>
QMJJLPWCBGOGAF-UHFFFAOYSA-N

> <PUBCHEM_XLOGP3_AA>
4.4

> <PUBCHEM_EXACT_MASS>
284.08373

> <PUBCHEM_MOLECULAR_FORMULA>
C20H12O2

> <PUBCHEM_MOLECULAR_WEIGHT>
284.30808

> <PUBCHEM_OPENEYE_CAN_SMILES>
C1=CC2=C3C(=C1)C4C(O4)C5=C3C(=C6C=C(C=CC6=C5)O)C=C2

> <PUBCHEM_OPENEYE_ISO_SMILES>
C1=CC2=C3C(=C1)C4C(O4)C5=C3C(=C6C=C(C=CC6=C5)O)C=C2

> <PUBCHEM_CACTVS_TPSA>
32.8

> <PUBCHEM_MONOISOTOPIC_WEIGHT>
284.08373

> <PUBCHEM_TOTAL_CHARGE>
0

> <PUBCHEM_HEAVY_ATOM_COUNT>
22

> <PUBCHEM_ATOM_DEF_STEREO_COUNT>
0

> <PUBCHEM_ATOM_UDEF_STEREO_COUNT>
2

> <PUBCHEM_BOND_DEF_STEREO_COUNT>
0

> <PUBCHEM_BOND_UDEF_STEREO_COUNT>
0

> <PUBCHEM_ISOTOPIC_ATOM_COUNT>
0

> <PUBCHEM_COMPONENT_COUNT>
1

> <PUBCHEM_CACTVS_TAUTO_COUNT>
3

> <PUBCHEM_COORDINATE_TYPE>
1
5
255

> <PUBCHEM_BONDANNOTATIONS>
3  1  3
4  1  3
10  14  8
11  16  8
11  17  8
12  18  8
13  14  8
13  19  8
14  20  8
15  16  8
17  18  8
19  21  8
20  22  8
21  22  8
5  10  8
5  7  8
6  12  8
6  8  8
7  8  8
7  9  8
8  11  8
9  13  8
9  15  8

$$$$

