   Color/Form

     * Needles (alcohol)
     * White powder

   from [1]HSDB

   Odor
        Odorless
   from [2]HSDB

   Melting Point
        295-298 deg C
   from [3]HSDB

   Dissociation Constants
        pKa = 8.33
   from [4]HSDB

   Octanol/Water Partition Coefficient
        log Kow = 2.47
   from [5]HSDB

   Solubilities

     * One gram dissolves in about 60 ml alcohol, about 30 ml acetone.
       Soluble in alkali hydroxides.
     * Soluble in acetic acid; slightly soluble in ethyl ether, benzene,
       chloroform
     * In water, 32 mg/L at 22 deg C

   from [6]HSDB

   Spectral Properties

     * MAX ABSORPTION (WATER): 252 NM SHOULDER (LOG E= 2.99); 258 NM (LOG
       E= 2.85); 269 NM SHOULDER (LOG E= 2.38); SADTLER REF NUMBER: 5470
       (IR, PRISM); 478 (IR, GRATING); 2168 (UV); 3215 (NMR) /PHENYTOIN/
     * MASS: 22962 (NIST/EPA/MSDC Mass Spectral Database, 1990 version)
     * IR: 478 (Sadtler Research Laboratories IR grating collection)
     * UV: 2168 (Sadtler Research Laboratories spectral collection)
     * 1H NMR: 3215 (Sadtler Research Laboratories spectral collection)

   from [7]HSDB

   Vapor Pressure
        1.2X10-10 mm Hg at 25 deg C (est)
   from [8]HSDB

   Other Chemical/Physical Properties

     * Henry's Law constant = 1.02X10-11 atm-cu m/mol at 25 deg C (est)
     * Hydroxyl radical reaction rate constant = 1.06X10-11 cu
       cm/molec-sec at 25 deg C
     * Phenytoin soluble ... mol wt 274.25. White powder; bitter soapy
       taste. Somewhat hygroscopic. Easily dissociated even by weak acids
       (incl CO2 absorbed on exposure to air) regenerating phenytoin. One
       gram dissolves in 10.5 ml alc; in approx 66 ml water (aq soln
       turbid unless pH adjusted to >11.7, the pH of saturated soln).
       Insoluble in ether, chloroform. /Sodium salt/
     * Odorless /Sodium/
     * THIS DRUG IS USED EXCLUSIVELY IN THE FORM OF THE SODIUM SALT, SINCE
       THE FREE ACID IS VIRTUALLY INSOLUBLE IN WATER.
     * Freely soluble in warm propylene glycol /Sodium/

   from [9]HSDB

   Computed Properties
   Molecular Weight                  252.26798 [g/mol]
   Molecular Formula                 C[15]H[12]N[2]O[2]
   XLogP3                            2.5
   H-Bond Donor                      2
   H-Bond Acceptor                   2
   Rotatable Bond Count              2
   Tautomer Count                    5
   Exact Mass                        252.089878
   MonoIsotopic Mass                 252.089878
   Topological Polar Surface Area    58.2
   Heavy Atom Count                  19
   Formal Charge                     0
   Complexity                        350
   Isotope Atom Count                0
   Defined Atom Stereocenter Count   0
   Undefined Atom Stereocenter Count 0
   Defined Bond Stereocenter Count   0
   Undefined Bond Stereocenter Count 0
   Covalently-Bonded Unit Count      1
   Feature 3D Acceptor Count         2
   Feature 3D Donor Count            2
   Feature 3D Ring Count             3
   Effective Rotor Count             2.6
   Conformer Sampling RMSD           0.6
   CID Conformer Count               [10]3

References

   1. http://toxnet.nlm.nih.gov/cgi-bin/sis/search/r?dbs+hsdb:@term+@rn+@rel+57-41-0
   2. http://toxnet.nlm.nih.gov/cgi-bin/sis/search/r?dbs+hsdb:@term+@rn+@rel+57-41-0
   3. http://toxnet.nlm.nih.gov/cgi-bin/sis/search/r?dbs+hsdb:@term+@rn+@rel+57-41-0
   4. http://toxnet.nlm.nih.gov/cgi-bin/sis/search/r?dbs+hsdb:@term+@rn+@rel+57-41-0
   5. http://toxnet.nlm.nih.gov/cgi-bin/sis/search/r?dbs+hsdb:@term+@rn+@rel+57-41-0
   6. http://toxnet.nlm.nih.gov/cgi-bin/sis/search/r?dbs+hsdb:@term+@rn+@rel+57-41-0
   7. http://toxnet.nlm.nih.gov/cgi-bin/sis/search/r?dbs+hsdb:@term+@rn+@rel+57-41-0
   8. http://toxnet.nlm.nih.gov/cgi-bin/sis/search/r?dbs+hsdb:@term+@rn+@rel+57-41-0
   9. http://toxnet.nlm.nih.gov/cgi-bin/sis/search/r?dbs+hsdb:@term+@rn+@rel+57-41-0
  10. http://pubchem.ncbi.nlm.nih.gov/vw3d/vw3d.cgi?cid=1775
