27990
  -OEChem-07051213032D

 92 94  0     1  0  0  0  0  0999 V2000
    8.9561   -2.7889    0.0000 O   0  0  0  0  0  0  0  0  0  0  0  0
    5.4641   -0.7543    0.0000 O   0  0  0  0  0  0  0  0  0  0  0  0
    4.5981   -2.2543    0.0000 O   0  0  0  0  0  0  0  0  0  0  0  0
    2.0000   -0.7543    0.0000 N   0  0  0  0  0  0  0  0  0  0  0  0
    9.8622   -2.2751    0.0000 C   0  0  2  0  0  0  0  0  0  0  0  0
   10.8622   -2.2790    0.0000 C   0  0  0  0  0  0  0  0  0  0  0  0
    9.8622   -1.2335    0.0000 C   0  0  0  0  0  0  0  0  0  0  0  0
   11.3655   -1.4149    0.0000 C   0  0  0  0  0  0  0  0  0  0  0  0
   12.8688   -0.5546    0.0000 C   0  0  1  0  0  0  0  0  0  0  0  0
   12.3655   -1.4187    0.0000 C   0  0  0  0  0  0  0  0  0  0  0  0
    8.9561   -0.7196    0.0000 C   0  0  0  0  0  0  0  0  0  0  0  0
   13.8688   -0.5585    0.0000 C   0  0  0  0  0  0  0  0  0  0  0  0
   10.3588   -3.1430    0.0000 C   0  0  0  0  0  0  0  0  0  0  0  0
    8.0622   -1.2543    0.0000 C   0  0  0  0  0  0  0  0  0  0  0  0
    8.0622   -2.2543    0.0000 C   0  0  0  0  0  0  0  0  0  0  0  0
   14.3722    0.3056    0.0000 C   0  0  0  0  0  0  0  0  0  0  0  0
   15.3722    0.3018    0.0000 C   0  0  0  0  0  0  0  0  0  0  0  0
   15.8755    1.1659    0.0000 C   0  0  1  0  0  0  0  0  0  0  0  0
   12.3722    0.3133    0.0000 C   0  0  0  0  0  0  0  0  0  0  0  0
    7.1962   -0.7543    0.0000 C   0  0  0  0  0  0  0  0  0  0  0  0
    7.1962   -2.7543    0.0000 C   0  0  0  0  0  0  0  0  0  0  0  0
   16.8755    1.1620    0.0000 C   0  0  0  0  0  0  0  0  0  0  0  0
   17.3788    2.0261    0.0000 C   0  0  0  0  0  0  0  0  0  0  0  0
    6.3301   -2.2543    0.0000 C   0  0  0  0  0  0  0  0  0  0  0  0
    6.3301   -1.2543    0.0000 C   0  0  0  0  0  0  0  0  0  0  0  0
   15.3788    2.0338    0.0000 C   0  0  0  0  0  0  0  0  0  0  0  0
   18.3788    2.0222    0.0000 C   0  0  0  0  0  0  0  0  0  0  0  0
    7.1962    0.2457    0.0000 C   0  0  0  0  0  0  0  0  0  0  0  0
    7.1962   -3.7543    0.0000 C   0  0  0  0  0  0  0  0  0  0  0  0
   18.8821    2.8863    0.0000 C   0  0  0  0  0  0  0  0  0  0  0  0
    5.4641   -2.7543    0.0000 C   0  0  0  0  0  0  0  0  0  0  0  0
   19.8821    2.8825    0.0000 C   0  0  0  0  0  0  0  0  0  0  0  0
   18.3855    3.7543    0.0000 C   0  0  0  0  0  0  0  0  0  0  0  0
    4.5981   -1.2543    0.0000 C   0  0  0  0  0  0  0  0  0  0  0  0
    3.7320   -0.7543    0.0000 C   0  0  0  0  0  0  0  0  0  0  0  0
    3.7320    0.2457    0.0000 C   0  0  0  0  0  0  0  0  0  0  0  0
    2.8660   -1.2543    0.0000 C   0  0  0  0  0  0  0  0  0  0  0  0
    2.8660    0.7457    0.0000 C   0  0  0  0  0  0  0  0  0  0  0  0
    2.0000    0.2457    0.0000 C   0  0  0  0  0  0  0  0  0  0  0  0
   10.7522   -2.8891    0.0000 H   0  0  0  0  0  0  0  0  0  0  0  0
   11.4440   -2.4932    0.0000 H   0  0  0  0  0  0  0  0  0  0  0  0
   10.4730   -1.3396    0.0000 H   0  0  0  0  0  0  0  0  0  0  0  0
   10.0712   -0.6498    0.0000 H   0  0  0  0  0  0  0  0  0  0  0  0
   11.4755   -0.8047    0.0000 H   0  0  0  0  0  0  0  0  0  0  0  0
   10.7837   -1.2006    0.0000 H   0  0  0  0  0  0  0  0  0  0  0  0
   12.2488   -0.5522    0.0000 H   0  0  0  0  0  0  0  0  0  0  0  0
   12.2555   -2.0289    0.0000 H   0  0  0  0  0  0  0  0  0  0  0  0
   12.9473   -1.6330    0.0000 H   0  0  0  0  0  0  0  0  0  0  0  0
    9.3497   -0.2406    0.0000 H   0  0  0  0  0  0  0  0  0  0  0  0
    8.5515   -0.2498    0.0000 H   0  0  0  0  0  0  0  0  0  0  0  0
   13.7588   -1.1686    0.0000 H   0  0  0  0  0  0  0  0  0  0  0  0
   14.4506   -0.7728    0.0000 H   0  0  0  0  0  0  0  0  0  0  0  0
    9.8207   -3.4510    0.0000 H   0  0  0  0  0  0  0  0  0  0  0  0
   10.6668   -3.6812    0.0000 H   0  0  0  0  0  0  0  0  0  0  0  0
   10.8970   -2.8351    0.0000 H   0  0  0  0  0  0  0  0  0  0  0  0
   14.4822    0.9158    0.0000 H   0  0  0  0  0  0  0  0  0  0  0  0
   13.7904    0.5199    0.0000 H   0  0  0  0  0  0  0  0  0  0  0  0
   15.2621   -0.3084    0.0000 H   0  0  0  0  0  0  0  0  0  0  0  0
   15.9539    0.0875    0.0000 H   0  0  0  0  0  0  0  0  0  0  0  0
   15.2555    1.1682    0.0000 H   0  0  0  0  0  0  0  0  0  0  0  0
   12.9103    0.6213    0.0000 H   0  0  0  0  0  0  0  0  0  0  0  0
   12.0643    0.8515    0.0000 H   0  0  0  0  0  0  0  0  0  0  0  0
   11.8341    0.0054    0.0000 H   0  0  0  0  0  0  0  0  0  0  0  0
   16.7655    0.5518    0.0000 H   0  0  0  0  0  0  0  0  0  0  0  0
   17.4573    0.9477    0.0000 H   0  0  0  0  0  0  0  0  0  0  0  0
   17.4888    2.6362    0.0000 H   0  0  0  0  0  0  0  0  0  0  0  0
   16.7970    2.2404    0.0000 H   0  0  0  0  0  0  0  0  0  0  0  0
   15.9170    2.3417    0.0000 H   0  0  0  0  0  0  0  0  0  0  0  0
   15.0709    2.5719    0.0000 H   0  0  0  0  0  0  0  0  0  0  0  0
   14.8407    1.7259    0.0000 H   0  0  0  0  0  0  0  0  0  0  0  0
   18.2688    1.4121    0.0000 H   0  0  0  0  0  0  0  0  0  0  0  0
   18.9606    1.8079    0.0000 H   0  0  0  0  0  0  0  0  0  0  0  0
    7.8162    0.2457    0.0000 H   0  0  0  0  0  0  0  0  0  0  0  0
    7.1962    0.8657    0.0000 H   0  0  0  0  0  0  0  0  0  0  0  0
    6.5762    0.2457    0.0000 H   0  0  0  0  0  0  0  0  0  0  0  0
    6.5762   -3.7543    0.0000 H   0  0  0  0  0  0  0  0  0  0  0  0
    7.1962   -4.3743    0.0000 H   0  0  0  0  0  0  0  0  0  0  0  0
    7.8162   -3.7543    0.0000 H   0  0  0  0  0  0  0  0  0  0  0  0
   18.2622    2.8887    0.0000 H   0  0  0  0  0  0  0  0  0  0  0  0
    5.1541   -2.2173    0.0000 H   0  0  0  0  0  0  0  0  0  0  0  0
    4.9272   -3.0643    0.0000 H   0  0  0  0  0  0  0  0  0  0  0  0
    5.7741   -3.2912    0.0000 H   0  0  0  0  0  0  0  0  0  0  0  0
   18.9236    4.0622    0.0000 H   0  0  0  0  0  0  0  0  0  0  0  0
   18.0776    4.2924    0.0000 H   0  0  0  0  0  0  0  0  0  0  0  0
   17.8474    3.4464    0.0000 H   0  0  0  0  0  0  0  0  0  0  0  0
   19.8798    2.2625    0.0000 H   0  0  0  0  0  0  0  0  0  0  0  0
   20.5021    2.8801    0.0000 H   0  0  0  0  0  0  0  0  0  0  0  0
   19.8845    3.5025    0.0000 H   0  0  0  0  0  0  0  0  0  0  0  0
    4.2690    0.5557    0.0000 H   0  0  0  0  0  0  0  0  0  0  0  0
    2.8660   -1.8743    0.0000 H   0  0  0  0  0  0  0  0  0  0  0  0
    2.8660    1.3657    0.0000 H   0  0  0  0  0  0  0  0  0  0  0  0
    1.4631    0.5557    0.0000 H   0  0  0  0  0  0  0  0  0  0  0  0
  1  5  1  0  0  0  0
  1 15  1  0  0  0  0
  2 25  1  0  0  0  0
  2 34  1  0  0  0  0
  3 34  2  0  0  0  0
  4 37  1  0  0  0  0
  4 39  2  0  0  0  0
  5  6  1  0  0  0  0
  5  7  1  0  0  0  0
  5 13  1  6  0  0  0
  6  8  1  0  0  0  0
  6 40  1  0  0  0  0
  6 41  1  0  0  0  0
  7 11  1  0  0  0  0
  7 42  1  0  0  0  0
  7 43  1  0  0  0  0
  8 10  1  0  0  0  0
  8 44  1  0  0  0  0
  8 45  1  0  0  0  0
  9 10  1  0  0  0  0
  9 12  1  0  0  0  0
  9 19  1  6  0  0  0
  9 46  1  0  0  0  0
 10 47  1  0  0  0  0
 10 48  1  0  0  0  0
 11 14  1  0  0  0  0
 11 49  1  0  0  0  0
 11 50  1  0  0  0  0
 12 16  1  0  0  0  0
 12 51  1  0  0  0  0
 12 52  1  0  0  0  0
 13 53  1  0  0  0  0
 13 54  1  0  0  0  0
 13 55  1  0  0  0  0
 14 15  2  0  0  0  0
 14 20  1  0  0  0  0
 15 21  1  0  0  0  0
 16 17  1  0  0  0  0
 16 56  1  0  0  0  0
 16 57  1  0  0  0  0
 17 18  1  0  0  0  0
 17 58  1  0  0  0  0
 17 59  1  0  0  0  0
 18 22  1  0  0  0  0
 18 26  1  6  0  0  0
 18 60  1  0  0  0  0
 19 61  1  0  0  0  0
 19 62  1  0  0  0  0
 19 63  1  0  0  0  0
 20 25  2  0  0  0  0
 20 28  1  0  0  0  0
 21 24  2  0  0  0  0
 21 29  1  0  0  0  0
 22 23  1  0  0  0  0
 22 64  1  0  0  0  0
 22 65  1  0  0  0  0
 23 27  1  0  0  0  0
 23 66  1  0  0  0  0
 23 67  1  0  0  0  0
 24 25  1  0  0  0  0
 24 31  1  0  0  0  0
 26 68  1  0  0  0  0
 26 69  1  0  0  0  0
 26 70  1  0  0  0  0
 27 30  1  0  0  0  0
 27 71  1  0  0  0  0
 27 72  1  0  0  0  0
 28 73  1  0  0  0  0
 28 74  1  0  0  0  0
 28 75  1  0  0  0  0
 29 76  1  0  0  0  0
 29 77  1  0  0  0  0
 29 78  1  0  0  0  0
 30 32  1  0  0  0  0
 30 33  1  0  0  0  0
 30 79  1  0  0  0  0
 31 80  1  0  0  0  0
 31 81  1  0  0  0  0
 31 82  1  0  0  0  0
 32 86  1  0  0  0  0
 32 87  1  0  0  0  0
 32 88  1  0  0  0  0
 33 83  1  0  0  0  0
 33 84  1  0  0  0  0
 33 85  1  0  0  0  0
 34 35  1  0  0  0  0
 35 36  1  0  0  0  0
 35 37  2  0  0  0  0
 36 38  2  0  0  0  0
 36 89  1  0  0  0  0
 37 90  1  0  0  0  0
 38 39  1  0  0  0  0
 38 91  1  0  0  0  0
 39 92  1  0  0  0  0
M  END
> <PUBCHEM_COMPOUND_CID>
27990

> <PUBCHEM_COMPOUND_CANONICALIZED>
1

> <PUBCHEM_CACTVS_COMPLEXITY>
725

> <PUBCHEM_CACTVS_HBOND_ACCEPTOR>
4

> <PUBCHEM_CACTVS_HBOND_DONOR>
0

> <PUBCHEM_CACTVS_ROTATABLE_BOND>
15

> <PUBCHEM_CACTVS_SUBSKEYS>
AAADcfB+MAAAAAAAAAAAAAAAAAAAAAAAAAA8SIAAAAAAAACRwAAAHgAAAAAADUTBmgQ+jpIIFACoAjD3TACCiCA1IiAI2CE8bNgMJvrEtZuGO6jmwBHI6cfY0fIOwQADAAAYAACCAAYAADAAAAAAAAAAAA==

> <PUBCHEM_IUPAC_OPENEYE_NAME>
[(2R)-2,5,7,8-tetramethyl-2-[(4R,8R)-4,8,12-trimethyltridecyl]chroman-6-yl] pyridine-3-carboxylate

> <PUBCHEM_IUPAC_CAS_NAME>
3-pyridinecarboxylic acid [(2R)-2,5,7,8-tetramethyl-2-[(4R,8R)-4,8,12-trimethyltridecyl]-3,4-dihydro-2H-1-benzopyran-6-yl] ester

> <PUBCHEM_IUPAC_NAME>
[(2R)-2,5,7,8-tetramethyl-2-[(4R,8R)-4,8,12-trimethyltridecyl]-3,4-dihydrochromen-6-yl] pyridine-3-carboxylate

> <PUBCHEM_IUPAC_SYSTEMATIC_NAME>
[(2R)-2,5,7,8-tetramethyl-2-[(4R,8R)-4,8,12-trimethyltridecyl]-3,4-dihydrochromen-6-yl] pyridine-3-carboxylate

> <PUBCHEM_IUPAC_TRADITIONAL_NAME>
nicotinic acid [(2R)-2,5,7,8-tetramethyl-2-[(4R,8R)-4,8,12-trimethyltridecyl]chroman-6-yl] ester

> <PUBCHEM_IUPAC_INCHI>
InChI=1S/C35H53NO3/c1-24(2)13-9-14-25(3)15-10-16-26(4)17-11-20-35(8)21-19-31-29(7)32(27(5)28(6)33(31)39-35)38-34(37)30-18-12-22-36-23-30/h12,18,22-26H,9-11,13-17,19-21H2,1-8H3/t25-,26-,35-/m1/s1

> <PUBCHEM_IUPAC_INCHIKEY>
MSCCTZZBYHQMQJ-AZAGJHQNSA-N

> <PUBCHEM_XLOGP3_AA>
11.4

> <PUBCHEM_EXACT_MASS>
535.402545

> <PUBCHEM_MOLECULAR_FORMULA>
C35H53NO3

> <PUBCHEM_MOLECULAR_WEIGHT>
535.80022

> <PUBCHEM_OPENEYE_CAN_SMILES>
CC1=C2C(=C(C(=C1C)OC(=O)C3=CN=CC=C3)C)CCC(O2)(C)CCCC(C)CCCC(C)CCCC(C)C

> <PUBCHEM_OPENEYE_ISO_SMILES>
CC1=C2C(=C(C(=C1C)OC(=O)C3=CN=CC=C3)C)CC[C@@](O2)(C)CCC[C@H](C)CCC[C@H](C)CCCC(C)C

> <PUBCHEM_CACTVS_TPSA>
48.4

> <PUBCHEM_MONOISOTOPIC_WEIGHT>
535.402545

> <PUBCHEM_TOTAL_CHARGE>
0

> <PUBCHEM_HEAVY_ATOM_COUNT>
39

> <PUBCHEM_ATOM_DEF_STEREO_COUNT>
3

> <PUBCHEM_ATOM_UDEF_STEREO_COUNT>
0

> <PUBCHEM_BOND_DEF_STEREO_COUNT>
0

> <PUBCHEM_BOND_UDEF_STEREO_COUNT>
0

> <PUBCHEM_ISOTOPIC_ATOM_COUNT>
0

> <PUBCHEM_COMPONENT_COUNT>
1

> <PUBCHEM_CACTVS_TAUTO_COUNT>
1

> <PUBCHEM_COORDINATE_TYPE>
1
5
255

> <PUBCHEM_BONDANNOTATIONS>
14  15  8
14  20  8
15  21  8
18  26  6
20  25  8
21  24  8
24  25  8
35  36  8
35  37  8
36  38  8
38  39  8
4  37  8
4  39  8
5  13  6
9  19  6

$$$$

