24906327
  -OEChem-07051213092D

 24 24  0     1  0  0  0  0  0999 V2000
    3.1697    1.2220    0.0000 P   0  0  0  0  0  0  0  0  0  0  0  0
    5.1377    0.5226    0.0000 O   0  0  0  0  0  0  0  0  0  0  0  0
    3.3776    0.2438    0.0000 O   0  0  0  0  0  0  0  0  0  0  0  0
    6.2255   -1.8253    0.0000 O   0  0  0  0  0  0  0  0  0  0  0  0
    4.0499   -1.8253    0.0000 O   0  0  0  0  0  0  0  0  0  0  0  0
    2.9618    2.2001    0.0000 O   0  0  0  0  0  0  0  0  0  0  0  0
    2.1916    1.0140    0.0000 O   0  0  0  0  0  0  0  0  0  0  0  0
    4.1479    1.4299    0.0000 O   0  0  0  0  0  0  0  0  0  0  0  0
    5.6377   -1.0163    0.0000 C   0  0  1  0  0  0  0  0  0  0  0  0
    4.6377   -1.0163    0.0000 C   0  0  2  0  0  0  0  0  0  0  0  0
    5.9467   -0.0652    0.0000 C   0  0  1  0  0  0  0  0  0  0  0  0
    4.3287   -0.0652    0.0000 C   0  0  2  0  0  0  0  0  0  0  0  0
    6.8978    0.2438    0.0000 C   0  0  0  0  0  0  0  0  0  0  0  0
    6.2501   -0.9193    0.0000 H   0  0  0  0  0  0  0  0  0  0  0  0
    4.9192   -1.5687    0.0000 H   0  0  0  0  0  0  0  0  0  0  0  0
    6.0437    0.5472    0.0000 H   0  0  0  0  0  0  0  0  0  0  0  0
    3.8903   -0.5036    0.0000 H   0  0  0  0  0  0  0  0  0  0  0  0
    7.0894   -0.3459    0.0000 H   0  0  0  0  0  0  0  0  0  0  0  0
    7.4874    0.4354    0.0000 H   0  0  0  0  0  0  0  0  0  0  0  0
    6.7062    0.8335    0.0000 H   0  0  0  0  0  0  0  0  0  0  0  0
    6.8421   -1.7605    0.0000 H   0  0  0  0  0  0  0  0  0  0  0  0
    4.3021   -2.3917    0.0000 H   0  0  0  0  0  0  0  0  0  0  0  0
    2.3722    2.3917    0.0000 H   0  0  0  0  0  0  0  0  0  0  0  0
    2.0000    0.4244    0.0000 H   0  0  0  0  0  0  0  0  0  0  0  0
  1  3  1  0  0  0  0
  1  6  1  0  0  0  0
  1  7  1  0  0  0  0
  1  8  2  0  0  0  0
  2 11  1  0  0  0  0
  2 12  1  0  0  0  0
 12  3  1  1  0  0  0
  9  4  1  1  0  0  0
  4 21  1  0  0  0  0
 10  5  1  1  0  0  0
  5 22  1  0  0  0  0
  6 23  1  0  0  0  0
  7 24  1  0  0  0  0
  9 10  1  0  0  0  0
  9 11  1  0  0  0  0
  9 14  1  0  0  0  0
 10 12  1  0  0  0  0
 10 15  1  0  0  0  0
 11 13  1  6  0  0  0
 11 16  1  0  0  0  0
 12 17  1  0  0  0  0
 13 18  1  0  0  0  0
 13 19  1  0  0  0  0
 13 20  1  0  0  0  0
M  END
> <PUBCHEM_COMPOUND_CID>
24906327

> <PUBCHEM_COMPOUND_CANONICALIZED>
1

> <PUBCHEM_CACTVS_COMPLEXITY>
225

> <PUBCHEM_CACTVS_HBOND_ACCEPTOR>
7

> <PUBCHEM_CACTVS_HBOND_DONOR>
4

> <PUBCHEM_CACTVS_ROTATABLE_BOND>
2

> <PUBCHEM_CACTVS_SUBSKEYS>
AAADccBgOAIAAAAAAAAAAAAAAAAAASAAAAAAAAAAAAAAAAAAAAAAGgAACCAACBSwgAMCCAAABxAAQAAAAIAAAAAAAAAAAAAAAAAREAIAAAACQAAFAAAHAADAAAAAAAAAAAAAAAAAAAAAAAAAAAAAAAAAAA==

> <PUBCHEM_IUPAC_OPENEYE_NAME>
[(2R,3R,4S,5R)-3,4-dihydroxy-5-methyl-tetrahydrofuran-2-yl] dihydrogen phosphate

> <PUBCHEM_IUPAC_CAS_NAME>
[(2R,3R,4S,5R)-3,4-dihydroxy-5-methyl-2-oxolanyl] dihydrogen phosphate

> <PUBCHEM_IUPAC_NAME>
[(2R,3R,4S,5R)-3,4-dihydroxy-5-methyloxolan-2-yl] dihydrogen phosphate

> <PUBCHEM_IUPAC_SYSTEMATIC_NAME>
[(2R,3R,4S,5R)-5-methyl-3,4-bis(oxidanyl)oxolan-2-yl] dihydrogen phosphate

> <PUBCHEM_IUPAC_TRADITIONAL_NAME>
[(2R,3R,4S,5R)-3,4-dihydroxy-5-methyl-tetrahydrofuran-2-yl] dihydrogen phosphate

> <PUBCHEM_IUPAC_INCHI>
InChI=1S/C5H11O7P/c1-2-3(6)4(7)5(11-2)12-13(8,9)10/h2-7H,1H3,(H2,8,9,10)/t2-,3-,4-,5-/m1/s1

> <PUBCHEM_IUPAC_INCHIKEY>
XXQFKXPJJNBLSU-TXICZTDVSA-N

> <PUBCHEM_XLOGP3_AA>
-2.6

> <PUBCHEM_EXACT_MASS>
214.024239

> <PUBCHEM_MOLECULAR_FORMULA>
C5H11O7P

> <PUBCHEM_MOLECULAR_WEIGHT>
214.110402

> <PUBCHEM_OPENEYE_CAN_SMILES>
CC1C(C(C(O1)OP(=O)(O)O)O)O

> <PUBCHEM_OPENEYE_ISO_SMILES>
C[C@@H]1[C@H]([C@H]([C@H](O1)OP(=O)(O)O)O)O

> <PUBCHEM_CACTVS_TPSA>
116

> <PUBCHEM_MONOISOTOPIC_WEIGHT>
214.024239

> <PUBCHEM_TOTAL_CHARGE>
0

> <PUBCHEM_HEAVY_ATOM_COUNT>
13

> <PUBCHEM_ATOM_DEF_STEREO_COUNT>
4

> <PUBCHEM_ATOM_UDEF_STEREO_COUNT>
0

> <PUBCHEM_BOND_DEF_STEREO_COUNT>
0

> <PUBCHEM_BOND_UDEF_STEREO_COUNT>
0

> <PUBCHEM_ISOTOPIC_ATOM_COUNT>
0

> <PUBCHEM_COMPONENT_COUNT>
1

> <PUBCHEM_CACTVS_TAUTO_COUNT>
1

> <PUBCHEM_COORDINATE_TYPE>
1
5
255

> <PUBCHEM_BONDANNOTATIONS>
11  13  6
12  3  5
9  4  5
10  5  5

$$$$

