12313355
  -OEChem-07051213092D

 55 58  0     1  0  0  0  0  0999 V2000
    7.7925   -2.0159    0.0000 O   0  0  0  0  0  0  0  0  0  0  0  0
    4.3198    1.0156    0.0000 O   0  0  0  0  0  0  0  0  0  0  0  0
    2.5381    0.0052    0.0000 O   0  0  0  0  0  0  0  0  0  0  0  0
    5.1804    1.5125    0.0000 O   0  0  0  0  0  0  0  0  0  0  0  0
    6.9464    2.5503    0.0000 O   0  0  0  0  0  0  0  0  0  0  0  0
    9.5140   -2.0487    0.0000 O   0  0  0  0  0  0  0  0  0  0  0  0
    6.9343   -0.5190    0.0000 C   0  0  1  0  0  0  0  0  0  0  0  0
    5.2022   -0.5190    0.0000 C   0  0  2  0  0  0  0  0  0  0  0  0
    6.0682   -0.0190    0.0000 C   0  0  1  0  0  0  0  0  0  0  0  0
    5.2022   -1.5190    0.0000 C   0  0  1  0  0  0  0  0  0  0  0  0
    6.9343   -1.5190    0.0000 C   0  0  1  0  0  0  0  0  0  0  0  0
    6.0682   -2.0190    0.0000 C   0  0  0  0  0  0  0  0  0  0  0  0
    7.8443   -0.0122    0.0000 C   0  0  1  0  0  0  0  0  0  0  0  0
    4.3083   -2.0537    0.0000 C   0  0  1  0  0  0  0  0  0  0  0  0
    4.3083    0.0157    0.0000 C   0  0  0  0  0  0  0  0  0  0  0  0
    6.9343    0.4810    0.0000 C   0  0  0  0  0  0  0  0  0  0  0  0
    6.0522    1.0225    0.0000 C   0  0  0  0  0  0  0  0  0  0  0  0
    5.2022    0.4810    0.0000 C   0  0  0  0  0  0  0  0  0  0  0  0
    3.4022   -1.5398    0.0000 C   0  0  0  0  0  0  0  0  0  0  0  0
    3.4022   -0.4982    0.0000 C   0  0  2  0  0  0  0  0  0  0  0  0
    8.6836   -0.5404    0.0000 C   0  0  0  0  0  0  0  0  0  0  0  0
    7.8523    1.0294    0.0000 C   0  0  0  0  0  0  0  0  0  0  0  0
    6.9502    1.5503    0.0000 C   0  0  0  0  0  0  0  0  0  0  0  0
    4.3198   -3.0536    0.0000 C   0  0  0  0  0  0  0  0  0  0  0  0
    8.6580   -1.5318    0.0000 C   0  0  0  0  0  0  0  0  0  0  0  0
    8.7202    1.5261    0.0000 C   0  0  0  0  0  0  0  0  0  0  0  0
    7.8105    3.0536    0.0000 C   0  0  0  0  0  0  0  0  0  0  0  0
    6.8011    0.4117    0.0000 H   0  0  0  0  0  0  0  0  0  0  0  0
    5.2088   -2.3690    0.0000 H   0  0  0  0  0  0  0  0  0  0  0  0
    6.9337   -2.3690    0.0000 H   0  0  0  0  0  0  0  0  0  0  0  0
    5.6697   -2.4939    0.0000 H   0  0  0  0  0  0  0  0  0  0  0  0
    6.4668   -2.4939    0.0000 H   0  0  0  0  0  0  0  0  0  0  0  0
    8.5900    0.3959    0.0000 H   0  0  0  0  0  0  0  0  0  0  0  0
    3.7744   -2.3688    0.0000 H   0  0  0  0  0  0  0  0  0  0  0  0
    7.5543    0.4810    0.0000 H   0  0  0  0  0  0  0  0  0  0  0  0
    6.9343    1.1010    0.0000 H   0  0  0  0  0  0  0  0  0  0  0  0
    6.3143    0.4810    0.0000 H   0  0  0  0  0  0  0  0  0  0  0  0
    5.8222    0.4810    0.0000 H   0  0  0  0  0  0  0  0  0  0  0  0
    5.2022    1.1010    0.0000 H   0  0  0  0  0  0  0  0  0  0  0  0
    4.5822    0.4810    0.0000 H   0  0  0  0  0  0  0  0  0  0  0  0
    2.7914   -1.4337    0.0000 H   0  0  0  0  0  0  0  0  0  0  0  0
    3.1932   -2.1235    0.0000 H   0  0  0  0  0  0  0  0  0  0  0  0
    2.8647   -0.8071    0.0000 H   0  0  0  0  0  0  0  0  0  0  0  0
    9.2907   -0.6663    0.0000 H   0  0  0  0  0  0  0  0  0  0  0  0
    8.9154    0.0347    0.0000 H   0  0  0  0  0  0  0  0  0  0  0  0
    3.6999   -3.0608    0.0000 H   0  0  0  0  0  0  0  0  0  0  0  0
    4.3270   -3.6736    0.0000 H   0  0  0  0  0  0  0  0  0  0  0  0
    4.9398   -3.0464    0.0000 H   0  0  0  0  0  0  0  0  0  0  0  0
    9.0282    0.9880    0.0000 H   0  0  0  0  0  0  0  0  0  0  0  0
    9.2584    1.8340    0.0000 H   0  0  0  0  0  0  0  0  0  0  0  0
    8.4123    2.0642    0.0000 H   0  0  0  0  0  0  0  0  0  0  0  0
    2.0000   -0.3028    0.0000 H   0  0  0  0  0  0  0  0  0  0  0  0
    8.1225    2.5178    0.0000 H   0  0  0  0  0  0  0  0  0  0  0  0
    8.3462    3.3657    0.0000 H   0  0  0  0  0  0  0  0  0  0  0  0
    7.4984    3.5893    0.0000 H   0  0  0  0  0  0  0  0  0  0  0  0
  1 11  1  0  0  0  0
  1 25  1  0  0  0  0
  2 15  2  0  0  0  0
 20  3  1  6  0  0  0
  3 52  1  0  0  0  0
  4 17  2  0  0  0  0
  5 23  1  0  0  0  0
  5 27  1  0  0  0  0
  6 25  2  0  0  0  0
  7  9  1  0  0  0  0
  7 11  1  0  0  0  0
  7 13  1  0  0  0  0
  7 16  1  1  0  0  0
  8  9  1  0  0  0  0
  8 10  1  0  0  0  0
  8 15  1  0  0  0  0
  8 18  1  1  0  0  0
  9 17  1  0  0  0  0
  9 28  1  6  0  0  0
 10 12  1  0  0  0  0
 10 14  1  0  0  0  0
 10 29  1  6  0  0  0
 11 12  1  0  0  0  0
 11 30  1  1  0  0  0
 12 31  1  0  0  0  0
 12 32  1  0  0  0  0
 13 21  1  0  0  0  0
 13 22  1  0  0  0  0
 13 33  1  1  0  0  0
 14 19  1  0  0  0  0
 14 24  1  6  0  0  0
 14 34  1  0  0  0  0
 15 20  1  0  0  0  0
 16 35  1  0  0  0  0
 16 36  1  0  0  0  0
 16 37  1  0  0  0  0
 17 23  1  0  0  0  0
 18 38  1  0  0  0  0
 18 39  1  0  0  0  0
 18 40  1  0  0  0  0
 19 20  1  0  0  0  0
 19 41  1  0  0  0  0
 19 42  1  0  0  0  0
 20 43  1  0  0  0  0
 21 25  1  0  0  0  0
 21 44  1  0  0  0  0
 21 45  1  0  0  0  0
 22 23  2  0  0  0  0
 22 26  1  0  0  0  0
 24 46  1  0  0  0  0
 24 47  1  0  0  0  0
 24 48  1  0  0  0  0
 26 49  1  0  0  0  0
 26 50  1  0  0  0  0
 26 51  1  0  0  0  0
 27 53  1  0  0  0  0
 27 54  1  0  0  0  0
 27 55  1  0  0  0  0
M  END
> <PUBCHEM_COMPOUND_CID>
12313355

> <PUBCHEM_COMPOUND_CANONICALIZED>
1

> <PUBCHEM_CACTVS_COMPLEXITY>
769

> <PUBCHEM_CACTVS_HBOND_ACCEPTOR>
6

> <PUBCHEM_CACTVS_HBOND_DONOR>
1

> <PUBCHEM_CACTVS_ROTATABLE_BOND>
1

> <PUBCHEM_CACTVS_SUBSKEYS>
AAADceB4OAAAAAAAAAAAAAAAAAAAAAAAAAA0YIEAAAAAAADQAAAAGgAACAAADxSggAICCAAABgCIAoDQCAIACAAgIAAACAFAAEgAEBIAAAQCQAAEgAAIAQOL7PzPgAAAAAAAAADAAAYAADAAAAAAAAAAAA==

> <PUBCHEM_IUPAC_INCHI>
InChI=1S/C21H28O6/c1-9-6-13(22)19(25)21(4)11(9)7-14-20(3)12(8-15(23)27-14)10(2)17(26-5)16(24)18(20)21/h9,11-14,18,22H,6-8H2,1-5H3/t9-,11+,12+,13+,14-,18+,20-,21+/m1/s1

> <PUBCHEM_IUPAC_INCHIKEY>
GESOKLRVLMVNMO-WCAPFRRUSA-N

> <PUBCHEM_XLOGP3_AA>
1.6

> <PUBCHEM_EXACT_MASS>
376.188589

> <PUBCHEM_MOLECULAR_FORMULA>
C21H28O6

> <PUBCHEM_MOLECULAR_WEIGHT>
376.44342

> <PUBCHEM_OPENEYE_CAN_SMILES>
CC1CC(C(=O)C2(C1CC3C4(C2C(=O)C(=C(C4CC(=O)O3)C)OC)C)C)O

> <PUBCHEM_OPENEYE_ISO_SMILES>
C[C@@H]1C[C@@H](C(=O)[C@]2([C@H]1C[C@@H]3[C@@]4([C@@H]2C(=O)C(=C([C@@H]4CC(=O)O3)C)OC)C)C)O

> <PUBCHEM_CACTVS_TPSA>
89.9

> <PUBCHEM_MONOISOTOPIC_WEIGHT>
376.188589

> <PUBCHEM_TOTAL_CHARGE>
0

> <PUBCHEM_HEAVY_ATOM_COUNT>
27

> <PUBCHEM_ATOM_DEF_STEREO_COUNT>
8

> <PUBCHEM_ATOM_UDEF_STEREO_COUNT>
0

> <PUBCHEM_BOND_DEF_STEREO_COUNT>
0

> <PUBCHEM_BOND_UDEF_STEREO_COUNT>
0

> <PUBCHEM_ISOTOPIC_ATOM_COUNT>
0

> <PUBCHEM_COMPONENT_COUNT>
1

> <PUBCHEM_CACTVS_TAUTO_COUNT>
64

> <PUBCHEM_COORDINATE_TYPE>
1
5
255

> <PUBCHEM_BONDANNOTATIONS>
10  29  6
11  30  5
13  33  5
14  24  6
20  3  6
7  16  5
8  18  5
9  28  6

$$$$

