3032555
  -OEChem-07051213122D

 35 36  0     0  0  0  0  0  0999 V2000
    4.5981    0.5173    0.0000 Cu  0  2  0  0  0  0  0  0  0  0  0  0
    4.5981   -0.4827    0.0000 O   0  5  0  0  0  0  0  0  0  0  0  0
    5.4641    1.0173    0.0000 O   0  5  0  0  0  0  0  0  0  0  0  0
    7.2241    1.9826    0.0000 N   0  0  0  0  0  0  0  0  0  0  0  0
    4.6420   -2.4896    0.0000 N   0  0  0  0  0  0  0  0  0  0  0  0
    6.3301    3.5173    0.0000 C   0  0  0  0  0  0  0  0  0  0  0  0
    2.8660   -2.4827    0.0000 C   0  0  0  0  0  0  0  0  0  0  0  0
    6.3301    2.5173    0.0000 C   0  0  0  0  0  0  0  0  0  0  0  0
    3.7320   -1.9827    0.0000 C   0  0  0  0  0  0  0  0  0  0  0  0
    5.4641    4.0173    0.0000 C   0  0  0  0  0  0  0  0  0  0  0  0
    2.0000   -1.9827    0.0000 C   0  0  0  0  0  0  0  0  0  0  0  0
    7.2241    4.0520    0.0000 C   0  0  0  0  0  0  0  0  0  0  0  0
    2.8500   -3.5242    0.0000 C   0  0  0  0  0  0  0  0  0  0  0  0
    5.4641    2.0173    0.0000 C   0  0  0  0  0  0  0  0  0  0  0  0
    3.7320   -0.9827    0.0000 C   0  0  0  0  0  0  0  0  0  0  0  0
    4.5981    3.5173    0.0000 C   0  0  0  0  0  0  0  0  0  0  0  0
    2.0000   -0.9827    0.0000 C   0  0  0  0  0  0  0  0  0  0  0  0
    4.5981    2.5173    0.0000 C   0  0  0  0  0  0  0  0  0  0  0  0
    2.8660   -0.4827    0.0000 C   0  0  0  0  0  0  0  0  0  0  0  0
    8.1301    3.5381    0.0000 C   0  0  0  0  0  0  0  0  0  0  0  0
    3.7480   -4.0520    0.0000 C   0  0  0  0  0  0  0  0  0  0  0  0
    8.1301    2.4965    0.0000 C   0  0  0  0  0  0  0  0  0  0  0  0
    4.6501   -3.5312    0.0000 C   0  0  0  0  0  0  0  0  0  0  0  0
    1.4631   -2.2927    0.0000 H   0  0  0  0  0  0  0  0  0  0  0  0
    5.4641    4.6373    0.0000 H   0  0  0  0  0  0  0  0  0  0  0  0
    2.3095   -3.8280    0.0000 H   0  0  0  0  0  0  0  0  0  0  0  0
    7.2169    4.6719    0.0000 H   0  0  0  0  0  0  0  0  0  0  0  0
    1.4631   -0.6727    0.0000 H   0  0  0  0  0  0  0  0  0  0  0  0
    4.0611    3.8273    0.0000 H   0  0  0  0  0  0  0  0  0  0  0  0
    2.8660    0.1373    0.0000 H   0  0  0  0  0  0  0  0  0  0  0  0
    4.0611    2.2073    0.0000 H   0  0  0  0  0  0  0  0  0  0  0  0
    3.7456   -4.6720    0.0000 H   0  0  0  0  0  0  0  0  0  0  0  0
    8.6659    3.8502    0.0000 H   0  0  0  0  0  0  0  0  0  0  0  0
    5.1882   -3.8391    0.0000 H   0  0  0  0  0  0  0  0  0  0  0  0
    8.6659    2.1844    0.0000 H   0  0  0  0  0  0  0  0  0  0  0  0
  2 15  1  0  0  0  0
  3 14  1  0  0  0  0
  4  8  1  0  0  0  0
  4 22  2  0  0  0  0
  5  9  1  0  0  0  0
  5 23  2  0  0  0  0
  6  8  2  0  0  0  0
  6 10  1  0  0  0  0
  6 12  1  0  0  0  0
  7  9  2  0  0  0  0
  7 11  1  0  0  0  0
  7 13  1  0  0  0  0
  8 14  1  0  0  0  0
  9 15  1  0  0  0  0
 10 16  2  0  0  0  0
 10 25  1  0  0  0  0
 11 17  2  0  0  0  0
 11 24  1  0  0  0  0
 12 20  2  0  0  0  0
 12 27  1  0  0  0  0
 13 21  2  0  0  0  0
 13 26  1  0  0  0  0
 14 18  2  0  0  0  0
 15 19  2  0  0  0  0
 16 18  1  0  0  0  0
 16 29  1  0  0  0  0
 17 19  1  0  0  0  0
 17 28  1  0  0  0  0
 18 31  1  0  0  0  0
 19 30  1  0  0  0  0
 20 22  1  0  0  0  0
 20 33  1  0  0  0  0
 21 23  1  0  0  0  0
 21 32  1  0  0  0  0
 22 35  1  0  0  0  0
 23 34  1  0  0  0  0
M  CHG  3   1   2   2  -1   3  -1
M  END
> <PUBCHEM_COMPOUND_CID>
3032555

> <PUBCHEM_COMPOUND_CANONICALIZED>
1

> <PUBCHEM_CACTVS_COMPLEXITY>
138

> <PUBCHEM_CACTVS_HBOND_ACCEPTOR>
4

> <PUBCHEM_CACTVS_HBOND_DONOR>
0

> <PUBCHEM_CACTVS_ROTATABLE_BOND>
0

> <PUBCHEM_CACTVS_SUBSKEYS>
AAADccB7MAAAAAAEAAAAAAAAAAAAAAAAAAA8eIEAAAAAAACx/gAAHgAAAAAADAzBngQ8xvIIEACgAzRnRASCgCAxYiAI2CA/bJgKJuLAkZOEMAhkwBHYyAeQwLAOAAABAAACEAAAAAIAAAQgAAAAAAAAAA==

> <PUBCHEM_IUPAC_OPENEYE_NAME>
copper quinolin-8-olate

> <PUBCHEM_IUPAC_CAS_NAME>
copper 8-quinolinolate

> <PUBCHEM_IUPAC_NAME>
copper quinolin-8-olate

> <PUBCHEM_IUPAC_SYSTEMATIC_NAME>
copper quinolin-8-olate

> <PUBCHEM_IUPAC_TRADITIONAL_NAME>
cupric quinolin-8-olate

> <PUBCHEM_IUPAC_INCHI>
InChI=1S/2C9H7NO.Cu/c2*11-8-5-1-3-7-4-2-6-10-9(7)8;/h2*1-6,11H;/q;;+2/p-2

> <PUBCHEM_IUPAC_INCHIKEY>
YXLXNENXOJSQEI-UHFFFAOYSA-L

> <PUBCHEM_EXACT_MASS>
351.019475

> <PUBCHEM_MOLECULAR_FORMULA>
C18H12CuN2O2

> <PUBCHEM_MOLECULAR_WEIGHT>
351.84608

> <PUBCHEM_OPENEYE_CAN_SMILES>
C1=CC2=C(C(=C1)[O-])N=CC=C2.C1=CC2=C(C(=C1)[O-])N=CC=C2.[Cu+2]

> <PUBCHEM_OPENEYE_ISO_SMILES>
C1=CC2=C(C(=C1)[O-])N=CC=C2.C1=CC2=C(C(=C1)[O-])N=CC=C2.[Cu+2]

> <PUBCHEM_CACTVS_TPSA>
71.9

> <PUBCHEM_MONOISOTOPIC_WEIGHT>
351.019475

> <PUBCHEM_TOTAL_CHARGE>
0

> <PUBCHEM_HEAVY_ATOM_COUNT>
23

> <PUBCHEM_ATOM_DEF_STEREO_COUNT>
0

> <PUBCHEM_ATOM_UDEF_STEREO_COUNT>
0

> <PUBCHEM_BOND_DEF_STEREO_COUNT>
0

> <PUBCHEM_BOND_UDEF_STEREO_COUNT>
0

> <PUBCHEM_ISOTOPIC_ATOM_COUNT>
0

> <PUBCHEM_COMPONENT_COUNT>
3

> <PUBCHEM_CACTVS_TAUTO_COUNT>
1

> <PUBCHEM_COORDINATE_TYPE>
1
5
255

> <PUBCHEM_BONDANNOTATIONS>
10  16  8
11  17  8
12  20  8
13  21  8
14  18  8
15  19  8
16  18  8
17  19  8
20  22  8
21  23  8
4  22  8
4  8  8
5  23  8
5  9  8
6  10  8
6  12  8
6  8  8
7  11  8
7  13  8
7  9  8
8  14  8
9  15  8

$$$$

