   Color/Form

     * Waxy, shiny, rhombic leaflets from alcohol
     * Crystals

   from [1]HSDB

   Taste
        Bitter
   from [2]HSDB

   Boiling Point
        Sublimes at 168-170 deg C
   from [3]HSDB

   Melting Point
        284 deg C (decomposes)
   from [4]HSDB

   Dissociation Constants
        pK1 = 2.36 (SRC: carboxylic acid); pK2 = 9.68 (SRC: amine)
   from [5]HSDB

   Octanol/Water Partition Coefficient
        log Kow = -1.72
   from [6]HSDB

   Solubilities

     * Sparingly soluble in hot alcohol (0.13% wt/wt at 80 deg C), hot
       acetic acid. Insoluble in ether.
     * Solubility in water (g/L): 37.9 at 0 deg C; 41.2 at 25 deg C; 48.2
       at 50 deg C; 60.8 at 75 deg C; 82.6 at 100 deg C
     * In water, 3.44X10+4 mg/L at 25 deg C

   from [7]HSDB

   Spectral Properties

     * Specific optical rotation: +40.6 at 20 deg C/D (c = 4.6 in 6.1N
       HCl); 11.09 deg at 20 deg C/D (C = 3.3 in 0.33N NaOH).
     * MASS: 26148 (NIST/EPA/MSDC Mass Spectral Database, 1990 version);
       1000 (Atlas of Mass Spectral Data, John Wiley & Sons, New York)
     * IR: 5105 (Coblentz Society spectral collection)
     * 13C NMR: 479 (Stothers, Cabon-13 NMR Spectroscopy, Academic Press,
       New York)
     * 1H NMR: 16538 (Sadtler Research Laboratories Spectral Collection)

   from [8]HSDB

   Vapor Pressure
        6.85X10-9 mm Hg at 25 deg C (est)
   from [9]HSDB

   Other Chemical/Physical Properties

     * Molecular rotation: +53.5 deg /D (%N HCl); +64.2 deg /D (glacial
       acetic acid)
     * pKa = 2.36
     * Glistening rhombic or monoclinic plates from dilute alcohol.
       Decomposes at 292 deg C. pK1 = 2.32; pK2 = 9.76. Solubility in
       water (g/L): 18.3 at 0 deg C; 22.3 at 25 deg C; 30.3 at 50 deg C;
       46.1 at 75 deg C; 78.0 at 100 deg C /Isoleucine, DL-form/
     * Waxy leaflets. Sweet taste. Decomposes at 280 deg C. Specific
       optical rotation: +14.0 at 20 deg C/D (c = 3); + 38.1 deg at 20 deg
       C/D (c = 2 in 6N HCl). Molecular rotation: +53.1 deg /D (5N HCl);
       +55.7 deg /D (glacial acetic acid). pK1 = 2.27; pK2 = 9.62. One
       part dissolves in 34.2 parts water at 20 deg C; 0.82 part dissolves
       in 100 parts 80% alcohol at 20 deg C; 1.97 parts dissolve in 100
       parts 80% alcohol; 0.19 part dissolves in 100 parts absolute
       alcohol at 90 deg C /Isoleucine L-allo-form/
     * Henry's Law constant = 3.49X10-9 atm-cu m/mol at 25 deg C (est)
     * Hydroxyl radical reaction rate constant = 4.26X10-11 cu
       cm/molec-sec at 25 deg C (est)

   from [10]HSDB

   Computed Properties
   Molecular Weight                  131.17292 [g/mol]
   Molecular Formula                 C[6]H[13]NO[2]
   XLogP3                            -1.7
   H-Bond Donor                      2
   H-Bond Acceptor                   3
   Rotatable Bond Count              3
   Exact Mass                        131.094629
   MonoIsotopic Mass                 131.094629
   Topological Polar Surface Area    63.3
   Heavy Atom Count                  9
   Formal Charge                     0
   Complexity                        103
   Isotope Atom Count                0
   Defined Atom Stereocenter Count   2
   Undefined Atom Stereocenter Count 0
   Defined Bond Stereocenter Count   0
   Undefined Bond Stereocenter Count 0
   Covalently-Bonded Unit Count      1
   Feature 3D Acceptor Count         2
   Feature 3D Donor Count            1
   Feature 3D Anion Count            1
   Feature 3D Cation Count           1
   Feature 3D Hydrophobe Count       2
   Effective Rotor Count             3
   Conformer Sampling RMSD           0.6
   CID Conformer Count               [11]16

References

   1. http://toxnet.nlm.nih.gov/cgi-bin/sis/search/r?dbs+hsdb:@term+@rn+@rel+73-32-5
   2. http://toxnet.nlm.nih.gov/cgi-bin/sis/search/r?dbs+hsdb:@term+@rn+@rel+73-32-5
   3. http://toxnet.nlm.nih.gov/cgi-bin/sis/search/r?dbs+hsdb:@term+@rn+@rel+73-32-5
   4. http://toxnet.nlm.nih.gov/cgi-bin/sis/search/r?dbs+hsdb:@term+@rn+@rel+73-32-5
   5. http://toxnet.nlm.nih.gov/cgi-bin/sis/search/r?dbs+hsdb:@term+@rn+@rel+73-32-5
   6. http://toxnet.nlm.nih.gov/cgi-bin/sis/search/r?dbs+hsdb:@term+@rn+@rel+73-32-5
   7. http://toxnet.nlm.nih.gov/cgi-bin/sis/search/r?dbs+hsdb:@term+@rn+@rel+73-32-5
   8. http://toxnet.nlm.nih.gov/cgi-bin/sis/search/r?dbs+hsdb:@term+@rn+@rel+73-32-5
   9. http://toxnet.nlm.nih.gov/cgi-bin/sis/search/r?dbs+hsdb:@term+@rn+@rel+73-32-5
  10. http://toxnet.nlm.nih.gov/cgi-bin/sis/search/r?dbs+hsdb:@term+@rn+@rel+73-32-5
  11. http://pubchem.ncbi.nlm.nih.gov/vw3d/vw3d.cgi?cid=6306
