5280665
  -OEChem-07051212492D

 74 76  0     1  0  0  0  0  0999 V2000
    5.1350   -3.0950    0.0000 O   0  0  0  0  0  0  0  0  0  0  0  0
    4.2690   -0.5950    0.0000 O   0  0  0  0  0  0  0  0  0  0  0  0
    2.5369   -1.5950    0.0000 O   0  0  0  0  0  0  0  0  0  0  0  0
    2.5369   -3.5950    0.0000 O   0  0  0  0  0  0  0  0  0  0  0  0
    6.0010   -1.5950    0.0000 O   0  0  0  0  0  0  0  0  0  0  0  0
    5.1350   -5.0950    0.0000 O   0  0  0  0  0  0  0  0  0  0  0  0
    6.0010   -0.5950    0.0000 O   0  0  0  0  0  0  0  0  0  0  0  0
    6.8671   -3.0950    0.0000 O   0  0  0  0  0  0  0  0  0  0  0  0
    4.2690    4.4050    0.0000 O   0  0  0  0  0  0  0  0  0  0  0  0
    7.7331    4.4050    0.0000 O   0  0  0  0  0  0  0  0  0  0  0  0
   10.3312    0.9050    0.0000 O   0  0  0  0  0  0  0  0  0  0  0  0
   12.0632   -2.0950    0.0000 O   0  0  0  0  0  0  0  0  0  0  0  0
    6.0010    5.4050    0.0000 O   0  0  0  0  0  0  0  0  0  0  0  0
   12.0632   -0.0950    0.0000 O   0  0  0  0  0  0  0  0  0  0  0  0
    3.4030   -2.0950    0.0000 C   0  0  1  0  0  0  0  0  0  0  0  0
    3.4030   -3.0950    0.0000 C   0  0  1  0  0  0  0  0  0  0  0  0
    4.2690   -1.5950    0.0000 C   0  0  2  0  0  0  0  0  0  0  0  0
    4.2690   -3.5950    0.0000 C   0  0  1  0  0  0  0  0  0  0  0  0
    5.1350   -2.0950    0.0000 C   0  0  1  0  0  0  0  0  0  0  0  0
    4.2690   -4.5950    0.0000 C   0  0  0  0  0  0  0  0  0  0  0  0
    5.1350   -0.0950    0.0000 C   0  0  0  0  0  0  0  0  0  0  0  0
    6.8671   -2.0950    0.0000 C   0  0  0  0  0  0  0  0  0  0  0  0
    5.1350    0.9050    0.0000 C   0  0  0  0  0  0  0  0  0  0  0  0
    7.7331   -1.5950    0.0000 C   0  0  0  0  0  0  0  0  0  0  0  0
    6.0010    1.4050    0.0000 C   0  0  0  0  0  0  0  0  0  0  0  0
    8.5991   -2.0950    0.0000 C   0  0  0  0  0  0  0  0  0  0  0  0
    6.0010    2.4050    0.0000 C   0  0  0  0  0  0  0  0  0  0  0  0
    9.4651   -1.5950    0.0000 C   0  0  0  0  0  0  0  0  0  0  0  0
    6.8671    2.9050    0.0000 C   0  0  0  0  0  0  0  0  0  0  0  0
    5.1350    2.9050    0.0000 C   0  0  0  0  0  0  0  0  0  0  0  0
   10.3312   -2.0950    0.0000 C   0  0  0  0  0  0  0  0  0  0  0  0
    9.4651   -0.5950    0.0000 C   0  0  0  0  0  0  0  0  0  0  0  0
    5.1350    3.9050    0.0000 C   0  0  0  0  0  0  0  0  0  0  0  0
    6.8671    3.9050    0.0000 C   0  0  0  0  0  0  0  0  0  0  0  0
   10.3312   -0.0950    0.0000 C   0  0  0  0  0  0  0  0  0  0  0  0
   11.1972   -1.5950    0.0000 C   0  0  0  0  0  0  0  0  0  0  0  0
    6.0010    4.4050    0.0000 C   0  0  0  0  0  0  0  0  0  0  0  0
   11.1972   -0.5950    0.0000 C   0  0  0  0  0  0  0  0  0  0  0  0
    3.4030    3.9050    0.0000 C   0  0  0  0  0  0  0  0  0  0  0  0
    7.7331    5.4050    0.0000 C   0  0  0  0  0  0  0  0  0  0  0  0
   11.1972    1.4050    0.0000 C   0  0  0  0  0  0  0  0  0  0  0  0
   12.0632   -3.0950    0.0000 C   0  0  0  0  0  0  0  0  0  0  0  0
    3.4030   -1.4750    0.0000 H   0  0  0  0  0  0  0  0  0  0  0  0
    3.4030   -3.7150    0.0000 H   0  0  0  0  0  0  0  0  0  0  0  0
    4.8059   -1.2850    0.0000 H   0  0  0  0  0  0  0  0  0  0  0  0
    4.8059   -3.9050    0.0000 H   0  0  0  0  0  0  0  0  0  0  0  0
    5.1350   -1.4750    0.0000 H   0  0  0  0  0  0  0  0  0  0  0  0
    3.6584   -4.4873    0.0000 H   0  0  0  0  0  0  0  0  0  0  0  0
    4.0569   -5.1776    0.0000 H   0  0  0  0  0  0  0  0  0  0  0  0
    2.0000   -1.9050    0.0000 H   0  0  0  0  0  0  0  0  0  0  0  0
    2.5369   -4.2150    0.0000 H   0  0  0  0  0  0  0  0  0  0  0  0
    5.1350   -5.7150    0.0000 H   0  0  0  0  0  0  0  0  0  0  0  0
    4.5981    1.2150    0.0000 H   0  0  0  0  0  0  0  0  0  0  0  0
    7.7331   -0.9750    0.0000 H   0  0  0  0  0  0  0  0  0  0  0  0
    6.5380    1.0950    0.0000 H   0  0  0  0  0  0  0  0  0  0  0  0
    8.5991   -2.7150    0.0000 H   0  0  0  0  0  0  0  0  0  0  0  0
    7.4040    2.5950    0.0000 H   0  0  0  0  0  0  0  0  0  0  0  0
    4.5981    2.5950    0.0000 H   0  0  0  0  0  0  0  0  0  0  0  0
   10.3312   -2.7150    0.0000 H   0  0  0  0  0  0  0  0  0  0  0  0
    8.9282   -0.2850    0.0000 H   0  0  0  0  0  0  0  0  0  0  0  0
    5.4641    5.7150    0.0000 H   0  0  0  0  0  0  0  0  0  0  0  0
   12.6002   -0.4050    0.0000 H   0  0  0  0  0  0  0  0  0  0  0  0
    3.0930    4.4419    0.0000 H   0  0  0  0  0  0  0  0  0  0  0  0
    2.8660    3.5950    0.0000 H   0  0  0  0  0  0  0  0  0  0  0  0
    3.7130    3.3681    0.0000 H   0  0  0  0  0  0  0  0  0  0  0  0
    8.3531    5.4050    0.0000 H   0  0  0  0  0  0  0  0  0  0  0  0
    7.7331    6.0250    0.0000 H   0  0  0  0  0  0  0  0  0  0  0  0
    7.1131    5.4050    0.0000 H   0  0  0  0  0  0  0  0  0  0  0  0
   11.5072    0.8681    0.0000 H   0  0  0  0  0  0  0  0  0  0  0  0
   11.7341    1.7150    0.0000 H   0  0  0  0  0  0  0  0  0  0  0  0
   10.8872    1.9419    0.0000 H   0  0  0  0  0  0  0  0  0  0  0  0
   11.4432   -3.0950    0.0000 H   0  0  0  0  0  0  0  0  0  0  0  0
   12.0632   -3.7150    0.0000 H   0  0  0  0  0  0  0  0  0  0  0  0
   12.6832   -3.0950    0.0000 H   0  0  0  0  0  0  0  0  0  0  0  0
  1 18  1  0  0  0  0
  1 19  1  0  0  0  0
 17  2  1  1  0  0  0
  2 21  1  0  0  0  0
 15  3  1  6  0  0  0
  3 50  1  0  0  0  0
 16  4  1  1  0  0  0
  4 51  1  0  0  0  0
 19  5  1  6  0  0  0
  5 22  1  0  0  0  0
  6 20  1  0  0  0  0
  6 52  1  0  0  0  0
  7 21  2  0  0  0  0
  8 22  2  0  0  0  0
  9 33  1  0  0  0  0
  9 39  1  0  0  0  0
 10 34  1  0  0  0  0
 10 40  1  0  0  0  0
 11 35  1  0  0  0  0
 11 41  1  0  0  0  0
 12 36  1  0  0  0  0
 12 42  1  0  0  0  0
 13 37  1  0  0  0  0
 13 61  1  0  0  0  0
 14 38  1  0  0  0  0
 14 62  1  0  0  0  0
 15 16  1  0  0  0  0
 15 17  1  0  0  0  0
 15 43  1  0  0  0  0
 16 18  1  0  0  0  0
 16 44  1  0  0  0  0
 17 19  1  0  0  0  0
 17 45  1  0  0  0  0
 18 20  1  6  0  0  0
 18 46  1  0  0  0  0
 19 47  1  0  0  0  0
 20 48  1  0  0  0  0
 20 49  1  0  0  0  0
 21 23  1  0  0  0  0
 22 24  1  0  0  0  0
 23 25  2  0  0  0  0
 23 53  1  0  0  0  0
 24 26  2  0  0  0  0
 24 54  1  0  0  0  0
 25 27  1  0  0  0  0
 25 55  1  0  0  0  0
 26 28  1  0  0  0  0
 26 56  1  0  0  0  0
 27 29  2  0  0  0  0
 27 30  1  0  0  0  0
 28 31  2  0  0  0  0
 28 32  1  0  0  0  0
 29 34  1  0  0  0  0
 29 57  1  0  0  0  0
 30 33  2  0  0  0  0
 30 58  1  0  0  0  0
 31 36  1  0  0  0  0
 31 59  1  0  0  0  0
 32 35  2  0  0  0  0
 32 60  1  0  0  0  0
 33 37  1  0  0  0  0
 34 37  2  0  0  0  0
 35 38  1  0  0  0  0
 36 38  2  0  0  0  0
 39 63  1  0  0  0  0
 39 64  1  0  0  0  0
 39 65  1  0  0  0  0
 40 66  1  0  0  0  0
 40 67  1  0  0  0  0
 40 68  1  0  0  0  0
 41 69  1  0  0  0  0
 41 70  1  0  0  0  0
 41 71  1  0  0  0  0
 42 72  1  0  0  0  0
 42 73  1  0  0  0  0
 42 74  1  0  0  0  0
M  END
> <PUBCHEM_COMPOUND_CID>
5280665

> <PUBCHEM_COMPOUND_CANONICALIZED>
1

> <PUBCHEM_CACTVS_COMPLEXITY>
898

> <PUBCHEM_CACTVS_HBOND_ACCEPTOR>
14

> <PUBCHEM_CACTVS_HBOND_DONOR>
5

> <PUBCHEM_CACTVS_ROTATABLE_BOND>
13

> <PUBCHEM_CACTVS_SUBSKEYS>
AAADcfB4PAAAAAAAAAAAAAAAAAAAAAAAAAA0YIAAAAAAAAABQAAAGgAACAAADBSwmAMyDoAABgCIAiDSCAACCAAgIAAIiAAGiMgdNyKGMRqicCMlwBUPuYfA4BwOIAABCAAAQABAAAIQAACAAAAAAAAAAA==

> <PUBCHEM_IUPAC_OPENEYE_NAME>
[(2S,3R,4S,5S,6R)-4,5-dihydroxy-2-[(E)-3-(4-hydroxy-3,5-dimethoxy-phenyl)prop-2-enoyl]oxy-6-(hydroxymethyl)tetrahydropyran-3-yl] (E)-3-(4-hydroxy-3,5-dimethoxy-phenyl)prop-2-enoate

> <PUBCHEM_IUPAC_CAS_NAME>
(E)-3-(4-hydroxy-3,5-dimethoxyphenyl)-2-propenoic acid [(2S,3R,4S,5S,6R)-4,5-dihydroxy-2-[(E)-3-(4-hydroxy-3,5-dimethoxyphenyl)-1-oxoprop-2-enoxy]-6-(hydroxymethyl)-3-oxanyl] ester

> <PUBCHEM_IUPAC_NAME>
[(2S,3R,4S,5S,6R)-4,5-dihydroxy-2-[(E)-3-(4-hydroxy-3,5-dimethoxyphenyl)prop-2-enoyl]oxy-6-(hydroxymethyl)oxan-3-yl] (E)-3-(4-hydroxy-3,5-dimethoxyphenyl)prop-2-enoate

> <PUBCHEM_IUPAC_SYSTEMATIC_NAME>
[(2S,3R,4S,5S,6R)-2-[(E)-3-(3,5-dimethoxy-4-oxidanyl-phenyl)prop-2-enoyl]oxy-6-(hydroxymethyl)-4,5-bis(oxidanyl)oxan-3-yl] (E)-3-(3,5-dimethoxy-4-oxidanyl-phenyl)prop-2-enoate

> <PUBCHEM_IUPAC_TRADITIONAL_NAME>
(E)-3-(4-hydroxy-3,5-dimethoxy-phenyl)acrylic acid [(2S,3R,4S,5S,6R)-4,5-dihydroxy-2-[(E)-3-(4-hydroxy-3,5-dimethoxy-phenyl)acryloyl]oxy-6-methylol-tetrahydropyran-3-yl] ester

> <PUBCHEM_IUPAC_INCHI>
InChI=1S/C28H32O14/c1-36-16-9-14(10-17(37-2)23(16)32)5-7-21(30)41-27-26(35)25(34)20(13-29)40-28(27)42-22(31)8-6-15-11-18(38-3)24(33)19(12-15)39-4/h5-12,20,25-29,32-35H,13H2,1-4H3/b7-5+,8-6+/t20-,25-,26+,27-,28+/m1/s1

> <PUBCHEM_IUPAC_INCHIKEY>
KQDOTXAUJBODDM-STUNQXDBSA-N

> <PUBCHEM_XLOGP3_AA>
1.9

> <PUBCHEM_EXACT_MASS>
592.179206

> <PUBCHEM_MOLECULAR_FORMULA>
C28H32O14

> <PUBCHEM_MOLECULAR_WEIGHT>
592.54528

> <PUBCHEM_OPENEYE_CAN_SMILES>
COC1=CC(=CC(=C1O)OC)C=CC(=O)OC2C(C(C(OC2OC(=O)C=CC3=CC(=C(C(=C3)OC)O)OC)CO)O)O

> <PUBCHEM_OPENEYE_ISO_SMILES>
COC1=CC(=CC(=C1O)OC)/C=C/C(=O)O[C@@H]2[C@H]([C@@H]([C@H](O[C@H]2OC(=O)/C=C/C3=CC(=C(C(=C3)OC)O)OC)CO)O)O

> <PUBCHEM_CACTVS_TPSA>
200

> <PUBCHEM_MONOISOTOPIC_WEIGHT>
592.179206

> <PUBCHEM_TOTAL_CHARGE>
0

> <PUBCHEM_HEAVY_ATOM_COUNT>
42

> <PUBCHEM_ATOM_DEF_STEREO_COUNT>
5

> <PUBCHEM_ATOM_UDEF_STEREO_COUNT>
0

> <PUBCHEM_BOND_DEF_STEREO_COUNT>
2

> <PUBCHEM_BOND_UDEF_STEREO_COUNT>
0

> <PUBCHEM_ISOTOPIC_ATOM_COUNT>
0

> <PUBCHEM_COMPONENT_COUNT>
1

> <PUBCHEM_CACTVS_TAUTO_COUNT>
9

> <PUBCHEM_COORDINATE_TYPE>
1
5
255

> <PUBCHEM_BONDANNOTATIONS>
18  20  6
17  2  5
27  29  8
27  30  8
28  31  8
28  32  8
29  34  8
15  3  6
30  33  8
31  36  8
32  35  8
33  37  8
34  37  8
35  38  8
36  38  8
16  4  5
19  5  6

$$$$

