256732
  -OEChem-07051213062D

 32 34  0     0  0  0  0  0  0999 V2000
    6.0812   -1.5545    0.0000 O   0  0  0  0  0  0  0  0  0  0  0  0
    2.5369   -1.7498    0.0000 O   0  0  0  0  0  0  0  0  0  0  0  0
    7.3704    1.2117    0.0000 O   0  0  0  0  0  0  0  0  0  0  0  0
   10.6648   -0.7498    0.0000 O   0  0  0  0  0  0  0  0  0  0  0  0
    5.1350   -0.2498    0.0000 C   0  0  0  0  0  0  0  0  0  0  0  0
    6.0812    0.0550    0.0000 C   0  0  0  0  0  0  0  0  0  0  0  0
    6.6648   -0.7498    0.0000 C   0  0  0  0  0  0  0  0  0  0  0  0
    5.1350   -1.2498    0.0000 C   0  0  0  0  0  0  0  0  0  0  0  0
    7.6648   -0.7498    0.0000 C   0  0  0  0  0  0  0  0  0  0  0  0
    4.2690    0.2502    0.0000 C   0  0  0  0  0  0  0  0  0  0  0  0
    4.2690   -1.7498    0.0000 C   0  0  0  0  0  0  0  0  0  0  0  0
    6.3919    1.0055    0.0000 C   0  0  0  0  0  0  0  0  0  0  0  0
    3.4030   -0.2498    0.0000 C   0  0  0  0  0  0  0  0  0  0  0  0
    3.4030   -1.2498    0.0000 C   0  0  0  0  0  0  0  0  0  0  0  0
    8.1648   -1.6158    0.0000 C   0  0  0  0  0  0  0  0  0  0  0  0
    8.1648    0.1162    0.0000 C   0  0  0  0  0  0  0  0  0  0  0  0
    5.7240    1.7498    0.0000 C   0  0  0  0  0  0  0  0  0  0  0  0
    9.1648   -1.6158    0.0000 C   0  0  0  0  0  0  0  0  0  0  0  0
    9.1648    0.1162    0.0000 C   0  0  0  0  0  0  0  0  0  0  0  0
    9.6648   -0.7498    0.0000 C   0  0  0  0  0  0  0  0  0  0  0  0
    4.2690    0.8702    0.0000 H   0  0  0  0  0  0  0  0  0  0  0  0
    4.2690   -2.3698    0.0000 H   0  0  0  0  0  0  0  0  0  0  0  0
    2.8660    0.0602    0.0000 H   0  0  0  0  0  0  0  0  0  0  0  0
    7.8548   -2.1527    0.0000 H   0  0  0  0  0  0  0  0  0  0  0  0
    7.8548    0.6532    0.0000 H   0  0  0  0  0  0  0  0  0  0  0  0
    6.1855    2.1638    0.0000 H   0  0  0  0  0  0  0  0  0  0  0  0
    5.3100    2.2112    0.0000 H   0  0  0  0  0  0  0  0  0  0  0  0
    5.2626    1.3357    0.0000 H   0  0  0  0  0  0  0  0  0  0  0  0
    9.4748   -2.1527    0.0000 H   0  0  0  0  0  0  0  0  0  0  0  0
    9.4748    0.6532    0.0000 H   0  0  0  0  0  0  0  0  0  0  0  0
    2.0000   -1.4398    0.0000 H   0  0  0  0  0  0  0  0  0  0  0  0
   10.9748   -1.2867    0.0000 H   0  0  0  0  0  0  0  0  0  0  0  0
  1  7  1  0  0  0  0
  1  8  1  0  0  0  0
  2 14  1  0  0  0  0
  2 31  1  0  0  0  0
  3 12  2  0  0  0  0
  4 20  1  0  0  0  0
  4 32  1  0  0  0  0
  5  6  1  0  0  0  0
  5  8  2  0  0  0  0
  5 10  1  0  0  0  0
  6  7  2  0  0  0  0
  6 12  1  0  0  0  0
  7  9  1  0  0  0  0
  8 11  1  0  0  0  0
  9 15  2  0  0  0  0
  9 16  1  0  0  0  0
 10 13  2  0  0  0  0
 10 21  1  0  0  0  0
 11 14  2  0  0  0  0
 11 22  1  0  0  0  0
 12 17  1  0  0  0  0
 13 14  1  0  0  0  0
 13 23  1  0  0  0  0
 15 18  1  0  0  0  0
 15 24  1  0  0  0  0
 16 19  2  0  0  0  0
 16 25  1  0  0  0  0
 17 26  1  0  0  0  0
 17 27  1  0  0  0  0
 17 28  1  0  0  0  0
 18 20  2  0  0  0  0
 18 29  1  0  0  0  0
 19 20  1  0  0  0  0
 19 30  1  0  0  0  0
M  END
> <PUBCHEM_COMPOUND_CID>
256732

> <PUBCHEM_COMPOUND_CANONICALIZED>
1

> <PUBCHEM_CACTVS_COMPLEXITY>
362

> <PUBCHEM_CACTVS_HBOND_ACCEPTOR>
4

> <PUBCHEM_CACTVS_HBOND_DONOR>
2

> <PUBCHEM_CACTVS_ROTATABLE_BOND>
2

> <PUBCHEM_CACTVS_SUBSKEYS>
AAADccB4OAAAAAAAAAAAAAAAAAAAASAAAAAwYAAAAAAAAEgB9AAAGgAACAAADASAmAAyBsAABkCIAqBSAAACCAAkIAAIiAEGCMgMJzaONRqCeWCl4BUIuYeL7PzOoAAACAAIAABAAAAQABAAAAAAAAAAAA==

> <PUBCHEM_IUPAC_OPENEYE_NAME>
1-[6-hydroxy-2-(4-hydroxyphenyl)benzofuran-3-yl]ethanone

> <PUBCHEM_IUPAC_CAS_NAME>
1-[6-hydroxy-2-(4-hydroxyphenyl)-3-benzofuranyl]ethanone

> <PUBCHEM_IUPAC_NAME>
1-[6-hydroxy-2-(4-hydroxyphenyl)-1-benzofuran-3-yl]ethanone

> <PUBCHEM_IUPAC_SYSTEMATIC_NAME>
1-[2-(4-hydroxyphenyl)-6-oxidanyl-1-benzofuran-3-yl]ethanone

> <PUBCHEM_IUPAC_TRADITIONAL_NAME>
1-[6-hydroxy-2-(4-hydroxyphenyl)benzofuran-3-yl]ethanone

> <PUBCHEM_IUPAC_INCHI>
InChI=1S/C16H12O4/c1-9(17)15-13-7-6-12(19)8-14(13)20-16(15)10-2-4-11(18)5-3-10/h2-8,18-19H,1H3

> <PUBCHEM_IUPAC_INCHIKEY>
PMGWXIYBUNWUGY-UHFFFAOYSA-N

> <PUBCHEM_XLOGP3_AA>
3

> <PUBCHEM_EXACT_MASS>
268.073559

> <PUBCHEM_MOLECULAR_FORMULA>
C16H12O4

> <PUBCHEM_MOLECULAR_WEIGHT>
268.26408

> <PUBCHEM_OPENEYE_CAN_SMILES>
CC(=O)C1=C(OC2=C1C=CC(=C2)O)C3=CC=C(C=C3)O

> <PUBCHEM_OPENEYE_ISO_SMILES>
CC(=O)C1=C(OC2=C1C=CC(=C2)O)C3=CC=C(C=C3)O

> <PUBCHEM_CACTVS_TPSA>
70.7

> <PUBCHEM_MONOISOTOPIC_WEIGHT>
268.073559

> <PUBCHEM_TOTAL_CHARGE>
0

> <PUBCHEM_HEAVY_ATOM_COUNT>
20

> <PUBCHEM_ATOM_DEF_STEREO_COUNT>
0

> <PUBCHEM_ATOM_UDEF_STEREO_COUNT>
0

> <PUBCHEM_BOND_DEF_STEREO_COUNT>
0

> <PUBCHEM_BOND_UDEF_STEREO_COUNT>
0

> <PUBCHEM_ISOTOPIC_ATOM_COUNT>
0

> <PUBCHEM_COMPONENT_COUNT>
1

> <PUBCHEM_CACTVS_TAUTO_COUNT>
31

> <PUBCHEM_COORDINATE_TYPE>
1
5
255

> <PUBCHEM_BONDANNOTATIONS>
1  7  8
1  8  8
10  13  8
11  14  8
13  14  8
15  18  8
16  19  8
18  20  8
19  20  8
5  10  8
5  6  8
5  8  8
6  7  8
8  11  8
9  15  8
9  16  8

$$$$

