251633
  -OEChem-07051213072D

 58 62  0     1  0  0  0  0  0999 V2000
   10.8349   -2.4725    0.0000 F   0  0  0  0  0  0  0  0  0  0  0  0
    9.3349   -3.3385    0.0000 F   0  0  0  0  0  0  0  0  0  0  0  0
    3.6422    1.6410    0.0000 O   0  0  0  0  0  0  0  0  0  0  0  0
    3.2980    3.3385    0.0000 O   0  0  0  0  0  0  0  0  0  0  0  0
    8.0506   -0.3819    0.0000 C   0  0  2  0  0  0  0  0  0  0  0  0
    7.1846    0.1181    0.0000 C   0  0  2  0  0  0  0  0  0  0  0  0
    8.9326   -1.9512    0.0000 C   0  0  1  0  0  0  0  0  0  0  0  0
    8.9166    0.1181    0.0000 C   0  0  2  0  0  0  0  0  0  0  0  0
    9.8346   -1.4304    0.0000 C   0  0  1  0  0  0  0  0  0  0  0  0
    7.1846    1.1181    0.0000 C   0  0  2  0  0  0  0  0  0  0  0  0
    8.0345   -1.4234    0.0000 C   0  0  0  0  0  0  0  0  0  0  0  0
    6.2906    1.6527    0.0000 C   0  0  1  0  0  0  0  0  0  0  0  0
    9.8349   -2.4725    0.0000 C   0  0  0  0  0  0  0  0  0  0  0  0
    9.8266   -0.3888    0.0000 C   0  0  0  0  0  0  0  0  0  0  0  0
    5.3845    1.1389    0.0000 C   0  0  2  0  0  0  0  0  0  0  0  0
    8.9166    1.1181    0.0000 C   0  0  0  0  0  0  0  0  0  0  0  0
    6.2906   -0.4166    0.0000 C   0  0  0  0  0  0  0  0  0  0  0  0
    8.0506    1.6181    0.0000 C   0  0  0  0  0  0  0  0  0  0  0  0
    5.3845    0.0973    0.0000 C   0  0  0  0  0  0  0  0  0  0  0  0
    7.1846   -0.8819    0.0000 C   0  0  0  0  0  0  0  0  0  0  0  0
    6.0805    2.6667    0.0000 C   0  0  0  0  0  0  0  0  0  0  0  0
    4.6222    1.8396    0.0000 C   0  0  2  0  0  0  0  0  0  0  0  0
    5.0515    2.7819    0.0000 C   0  0  0  0  0  0  0  0  0  0  0  0
    4.5147    0.6456    0.0000 C   0  0  0  0  0  0  0  0  0  0  0  0
    2.9801    2.3904    0.0000 C   0  0  0  0  0  0  0  0  0  0  0  0
    2.0000    2.1917    0.0000 C   0  0  0  0  0  0  0  0  0  0  0  0
    7.1911   -0.7319    0.0000 H   0  0  0  0  0  0  0  0  0  0  0  0
    8.5046   -2.6856    0.0000 H   0  0  0  0  0  0  0  0  0  0  0  0
    9.6494    0.5487    0.0000 H   0  0  0  0  0  0  0  0  0  0  0  0
   10.6846   -1.4270    0.0000 H   0  0  0  0  0  0  0  0  0  0  0  0
    7.9207    0.6931    0.0000 H   0  0  0  0  0  0  0  0  0  0  0  0
    7.4254   -1.3079    0.0000 H   0  0  0  0  0  0  0  0  0  0  0  0
    7.8165   -2.0038    0.0000 H   0  0  0  0  0  0  0  0  0  0  0  0
    6.9834    2.1453    0.0000 H   0  0  0  0  0  0  0  0  0  0  0  0
   10.4383   -0.4902    0.0000 H   0  0  0  0  0  0  0  0  0  0  0  0
   10.0311    0.1965    0.0000 H   0  0  0  0  0  0  0  0  0  0  0  0
    9.5272    1.0104    0.0000 H   0  0  0  0  0  0  0  0  0  0  0  0
    9.1286    1.7007    0.0000 H   0  0  0  0  0  0  0  0  0  0  0  0
    5.8970   -0.8956    0.0000 H   0  0  0  0  0  0  0  0  0  0  0  0
    6.6952   -0.8864    0.0000 H   0  0  0  0  0  0  0  0  0  0  0  0
    8.4491    2.0930    0.0000 H   0  0  0  0  0  0  0  0  0  0  0  0
    7.6520    2.0930    0.0000 H   0  0  0  0  0  0  0  0  0  0  0  0
    4.7737    0.2033    0.0000 H   0  0  0  0  0  0  0  0  0  0  0  0
    5.1755   -0.4864    0.0000 H   0  0  0  0  0  0  0  0  0  0  0  0
    6.8746   -0.3450    0.0000 H   0  0  0  0  0  0  0  0  0  0  0  0
    6.6476   -1.1919    0.0000 H   0  0  0  0  0  0  0  0  0  0  0  0
    7.4946   -1.4189    0.0000 H   0  0  0  0  0  0  0  0  0  0  0  0
    6.6975    2.7280    0.0000 H   0  0  0  0  0  0  0  0  0  0  0  0
    6.0844    3.2866    0.0000 H   0  0  0  0  0  0  0  0  0  0  0  0
    4.2364    2.3250    0.0000 H   0  0  0  0  0  0  0  0  0  0  0  0
    5.1849    3.3874    0.0000 H   0  0  0  0  0  0  0  0  0  0  0  0
    4.4634    2.9782    0.0000 H   0  0  0  0  0  0  0  0  0  0  0  0
    4.2088    1.1849    0.0000 H   0  0  0  0  0  0  0  0  0  0  0  0
    3.9754    0.3397    0.0000 H   0  0  0  0  0  0  0  0  0  0  0  0
    4.8205    0.1063    0.0000 H   0  0  0  0  0  0  0  0  0  0  0  0
    1.8768    2.7994    0.0000 H   0  0  0  0  0  0  0  0  0  0  0  0
    1.3924    2.0686    0.0000 H   0  0  0  0  0  0  0  0  0  0  0  0
    2.1232    1.5841    0.0000 H   0  0  0  0  0  0  0  0  0  0  0  0
  1 13  1  0  0  0  0
  2 13  1  0  0  0  0
 22  3  1  1  0  0  0
  3 25  1  0  0  0  0
  4 25  2  0  0  0  0
  5  6  1  0  0  0  0
  5  8  1  0  0  0  0
  5 11  1  0  0  0  0
  5 20  1  1  0  0  0
  6 10  1  0  0  0  0
  6 17  1  0  0  0  0
  6 27  1  6  0  0  0
  7  9  1  0  0  0  0
  7 11  1  0  0  0  0
  7 13  1  0  0  0  0
  7 28  1  1  0  0  0
  8 14  1  0  0  0  0
  8 16  1  0  0  0  0
  8 29  1  6  0  0  0
  9 13  1  0  0  0  0
  9 14  1  0  0  0  0
  9 30  1  1  0  0  0
 10 12  1  0  0  0  0
 10 18  1  0  0  0  0
 10 31  1  1  0  0  0
 11 32  1  0  0  0  0
 11 33  1  0  0  0  0
 12 15  1  0  0  0  0
 12 21  1  0  0  0  0
 12 34  1  6  0  0  0
 14 35  1  0  0  0  0
 14 36  1  0  0  0  0
 15 19  1  0  0  0  0
 15 22  1  0  0  0  0
 15 24  1  1  0  0  0
 16 18  1  0  0  0  0
 16 37  1  0  0  0  0
 16 38  1  0  0  0  0
 17 19  1  0  0  0  0
 17 39  1  0  0  0  0
 17 40  1  0  0  0  0
 18 41  1  0  0  0  0
 18 42  1  0  0  0  0
 19 43  1  0  0  0  0
 19 44  1  0  0  0  0
 20 45  1  0  0  0  0
 20 46  1  0  0  0  0
 20 47  1  0  0  0  0
 21 23  1  0  0  0  0
 21 48  1  0  0  0  0
 21 49  1  0  0  0  0
 22 23  1  0  0  0  0
 22 50  1  0  0  0  0
 23 51  1  0  0  0  0
 23 52  1  0  0  0  0
 24 53  1  0  0  0  0
 24 54  1  0  0  0  0
 24 55  1  0  0  0  0
 25 26  1  0  0  0  0
 26 56  1  0  0  0  0
 26 57  1  0  0  0  0
 26 58  1  0  0  0  0
M  END
> <PUBCHEM_COMPOUND_CID>
251633

> <PUBCHEM_COMPOUND_CANONICALIZED>
1

> <PUBCHEM_CACTVS_COMPLEXITY>
634

> <PUBCHEM_CACTVS_HBOND_ACCEPTOR>
4

> <PUBCHEM_CACTVS_HBOND_DONOR>
0

> <PUBCHEM_CACTVS_ROTATABLE_BOND>
2

> <PUBCHEM_CACTVS_SUBSKEYS>
AAADcfB4MYAAAAAAAAAAAAAAGAAAAYAAAAAwYMAABgAAAGDAAAAAGwAAAAAADxSggBICCAAABAAIAACQCAAAAAAAAAAAAAAAAAAAAAIAAAACAAAEAAAAAAGAwPAPgAAAAAAAAACAAAQAACAAAIAADAAAAA==

> <PUBCHEM_IUPAC_INCHI>
InChI=1S/C22H32F2O2/c1-12(25)26-19-7-6-15-14-5-4-13-10-17-18(22(17,23)24)11-21(13,3)16(14)8-9-20(15,19)2/h13-19H,4-11H2,1-3H3/t13-,14-,15-,16-,17-,18+,19-,20-,21-/m0/s1

> <PUBCHEM_IUPAC_INCHIKEY>
BRZLCOPFROJRBE-WMFBMNODSA-N

> <PUBCHEM_XLOGP3_AA>
6

> <PUBCHEM_EXACT_MASS>
366.237037

> <PUBCHEM_MOLECULAR_FORMULA>
C22H32F2O2

> <PUBCHEM_MOLECULAR_WEIGHT>
366.485086

> <PUBCHEM_OPENEYE_CAN_SMILES>
CC(=O)OC1CCC2C1(CCC3C2CCC4C3(CC5C(C4)C5(F)F)C)C

> <PUBCHEM_OPENEYE_ISO_SMILES>
CC(=O)O[C@H]1CC[C@@H]2[C@@]1(CC[C@H]3[C@H]2CC[C@@H]4[C@@]3(C[C@@H]5[C@H](C4)C5(F)F)C)C

> <PUBCHEM_CACTVS_TPSA>
26.3

> <PUBCHEM_MONOISOTOPIC_WEIGHT>
366.237037

> <PUBCHEM_TOTAL_CHARGE>
0

> <PUBCHEM_HEAVY_ATOM_COUNT>
26

> <PUBCHEM_ATOM_DEF_STEREO_COUNT>
9

> <PUBCHEM_ATOM_UDEF_STEREO_COUNT>
0

> <PUBCHEM_BOND_DEF_STEREO_COUNT>
0

> <PUBCHEM_BOND_UDEF_STEREO_COUNT>
0

> <PUBCHEM_ISOTOPIC_ATOM_COUNT>
0

> <PUBCHEM_COMPONENT_COUNT>
1

> <PUBCHEM_CACTVS_TAUTO_COUNT>
1

> <PUBCHEM_COORDINATE_TYPE>
1
5
255

> <PUBCHEM_BONDANNOTATIONS>
10  31  5
12  34  6
15  24  5
22  3  5
5  20  5
6  27  6
7  28  5
8  29  6
9  30  5

$$$$

