12456
  -OEChem-07051213032D

 44 47  0     0  0  0  0  0  0999 V2000
    4.5068    0.0000    0.0000 Cl  0  5  0  0  0  0  0  0  0  0  0  0
    9.3629    4.1368    0.0000 O   0  0  0  0  0  0  0  0  0  0  0  0
    7.9110    3.2986    0.0000 O   0  0  0  0  0  0  0  0  0  0  0  0
    3.2255    8.9578    0.0000 O   0  0  0  0  0  0  0  0  0  0  0  0
    1.4061    7.9260    0.0000 O   0  0  0  0  0  0  0  0  0  0  0  0
    5.9451    7.3801    0.0000 N   0  3  0  0  0  0  0  0  0  0  0  0
    6.8111    7.8801    0.0000 C   0  0  0  0  0  0  0  0  0  0  0  0
    7.6772    7.3801    0.0000 C   0  0  0  0  0  0  0  0  0  0  0  0
    5.9451    6.3801    0.0000 C   0  0  0  0  0  0  0  0  0  0  0  0
    7.6772    6.3801    0.0000 C   0  0  0  0  0  0  0  0  0  0  0  0
    6.8111    5.8801    0.0000 C   0  0  0  0  0  0  0  0  0  0  0  0
    5.0512    7.9148    0.0000 C   0  0  0  0  0  0  0  0  0  0  0  0
    5.0512    5.8455    0.0000 C   0  0  0  0  0  0  0  0  0  0  0  0
    4.1451    7.4009    0.0000 C   0  0  0  0  0  0  0  0  0  0  0  0
    4.1451    6.3593    0.0000 C   0  0  0  0  0  0  0  0  0  0  0  0
    8.5872    5.8733    0.0000 C   0  0  0  0  0  0  0  0  0  0  0  0
    6.7951    4.8386    0.0000 C   0  0  0  0  0  0  0  0  0  0  0  0
    8.5952    4.8317    0.0000 C   0  0  0  0  0  0  0  0  0  0  0  0
    7.6931    4.3109    0.0000 C   0  0  0  0  0  0  0  0  0  0  0  0
    3.2140    7.9579    0.0000 C   0  0  0  0  0  0  0  0  0  0  0  0
    3.2140    5.8024    0.0000 C   0  0  0  0  0  0  0  0  0  0  0  0
    2.2702    7.4226    0.0000 C   0  0  0  0  0  0  0  0  0  0  0  0
    8.9409    3.1912    0.0000 C   0  0  0  0  0  0  0  0  0  0  0  0
    2.2702    6.3376    0.0000 C   0  0  0  0  0  0  0  0  0  0  0  0
    2.3653    9.4678    0.0000 C   0  0  0  0  0  0  0  0  0  0  0  0
    0.5381    7.4293    0.0000 C   0  0  0  0  0  0  0  0  0  0  0  0
    7.2097    8.3551    0.0000 H   0  0  0  0  0  0  0  0  0  0  0  0
    6.4126    8.3551    0.0000 H   0  0  0  0  0  0  0  0  0  0  0  0
    8.2878    7.2725    0.0000 H   0  0  0  0  0  0  0  0  0  0  0  0
    7.8892    7.9627    0.0000 H   0  0  0  0  0  0  0  0  0  0  0  0
    5.0583    8.5347    0.0000 H   0  0  0  0  0  0  0  0  0  0  0  0
    5.0583    5.2255    0.0000 H   0  0  0  0  0  0  0  0  0  0  0  0
    9.1205    6.1895    0.0000 H   0  0  0  0  0  0  0  0  0  0  0  0
    6.2546    4.5348    0.0000 H   0  0  0  0  0  0  0  0  0  0  0  0
    3.2211    5.1824    0.0000 H   0  0  0  0  0  0  0  0  0  0  0  0
    8.8122    2.5848    0.0000 H   0  0  0  0  0  0  0  0  0  0  0  0
    9.5305    2.9995    0.0000 H   0  0  0  0  0  0  0  0  0  0  0  0
    1.7344    6.0256    0.0000 H   0  0  0  0  0  0  0  0  0  0  0  0
    2.6815   10.0011    0.0000 H   0  0  0  0  0  0  0  0  0  0  0  0
    1.8320    9.7840    0.0000 H   0  0  0  0  0  0  0  0  0  0  0  0
    2.0491    8.9344    0.0000 H   0  0  0  0  0  0  0  0  0  0  0  0
    0.2302    7.9674    0.0000 H   0  0  0  0  0  0  0  0  0  0  0  0
    0.0000    7.1214    0.0000 H   0  0  0  0  0  0  0  0  0  0  0  0
    0.8461    6.8912    0.0000 H   0  0  0  0  0  0  0  0  0  0  0  0
  2 18  1  0  0  0  0
  2 23  1  0  0  0  0
  3 19  1  0  0  0  0
  3 23  1  0  0  0  0
  4 20  1  0  0  0  0
  4 25  1  0  0  0  0
  5 22  1  0  0  0  0
  5 26  1  0  0  0  0
  6  7  1  0  0  0  0
  6  9  2  0  0  0  0
  6 12  1  0  0  0  0
  7  8  1  0  0  0  0
  7 27  1  0  0  0  0
  7 28  1  0  0  0  0
  8 10  1  0  0  0  0
  8 29  1  0  0  0  0
  8 30  1  0  0  0  0
  9 11  1  0  0  0  0
  9 13  1  0  0  0  0
 10 11  1  0  0  0  0
 10 16  2  0  0  0  0
 11 17  2  0  0  0  0
 12 14  2  0  0  0  0
 12 31  1  0  0  0  0
 13 15  2  0  0  0  0
 13 32  1  0  0  0  0
 14 15  1  0  0  0  0
 14 20  1  0  0  0  0
 15 21  1  0  0  0  0
 16 18  1  0  0  0  0
 16 33  1  0  0  0  0
 17 19  1  0  0  0  0
 17 34  1  0  0  0  0
 18 19  2  0  0  0  0
 20 22  2  0  0  0  0
 21 24  2  0  0  0  0
 21 35  1  0  0  0  0
 22 24  1  0  0  0  0
 23 36  1  0  0  0  0
 23 37  1  0  0  0  0
 24 38  1  0  0  0  0
 25 39  1  0  0  0  0
 25 40  1  0  0  0  0
 25 41  1  0  0  0  0
 26 42  1  0  0  0  0
 26 43  1  0  0  0  0
 26 44  1  0  0  0  0
M  CHG  2   1  -1   6   1
M  END
> <PUBCHEM_COMPOUND_CID>
12456

> <PUBCHEM_COMPOUND_CANONICALIZED>
1

> <PUBCHEM_CACTVS_COMPLEXITY>
488

> <PUBCHEM_CACTVS_HBOND_ACCEPTOR>
5

> <PUBCHEM_CACTVS_HBOND_DONOR>
0

> <PUBCHEM_CACTVS_ROTATABLE_BOND>
2

> <PUBCHEM_CACTVS_SUBSKEYS>
AAADceB6OAAEAAAAAAAAAAAAAAAAASAAAAA8eIEAAAAAAEix9AAAHgAAAAAADAzBngc+jtMMFACgAzRnRACCiCAxIiAI2CA+7JgdJuLEsZukMCpmwBnO6Aew0PMOoAABAAAYQABAAAIAADCAAAAAAAAAAA==

> <PUBCHEM_IUPAC_INCHI>
InChI=1S/C20H18NO4.ClH/c1-22-17-4-3-12-7-16-14-9-19-18(24-11-25-19)8-13(14)5-6-21(16)10-15(12)20(17)23-2;/h3-4,7-10H,5-6,11H2,1-2H3;1H/q+1;/p-1

> <PUBCHEM_IUPAC_INCHIKEY>
VKJGBAJNNALVAV-UHFFFAOYSA-M

> <PUBCHEM_EXACT_MASS>
371.092436

> <PUBCHEM_MOLECULAR_FORMULA>
C20H18ClNO4

> <PUBCHEM_MOLECULAR_WEIGHT>
371.81422

> <PUBCHEM_OPENEYE_CAN_SMILES>
COC1=C(C2=C[N+]3=C(C=C2C=C1)C4=CC5=C(C=C4CC3)OCO5)OC.[Cl-]

> <PUBCHEM_OPENEYE_ISO_SMILES>
COC1=C(C2=C[N+]3=C(C=C2C=C1)C4=CC5=C(C=C4CC3)OCO5)OC.[Cl-]

> <PUBCHEM_CACTVS_TPSA>
40.8

> <PUBCHEM_MONOISOTOPIC_WEIGHT>
371.092436

> <PUBCHEM_TOTAL_CHARGE>
0

> <PUBCHEM_HEAVY_ATOM_COUNT>
26

> <PUBCHEM_ATOM_DEF_STEREO_COUNT>
0

> <PUBCHEM_ATOM_UDEF_STEREO_COUNT>
0

> <PUBCHEM_BOND_DEF_STEREO_COUNT>
0

> <PUBCHEM_BOND_UDEF_STEREO_COUNT>
0

> <PUBCHEM_ISOTOPIC_ATOM_COUNT>
0

> <PUBCHEM_COMPONENT_COUNT>
2

> <PUBCHEM_CACTVS_TAUTO_COUNT>
1

> <PUBCHEM_COORDINATE_TYPE>
1
5
255

> <PUBCHEM_BONDANNOTATIONS>
10  11  8
10  16  8
11  17  8
12  14  8
13  15  8
14  15  8
14  20  8
15  21  8
16  18  8
17  19  8
18  19  8
20  22  8
21  24  8
22  24  8
6  12  8
6  9  8
9  13  8

$$$$

