83969
  -OEChem-07051212472D

 34 35  0     1  0  0  0  0  0999 V2000
    4.5981    0.8660    0.0000 S   0  0  3  0  0  0  0  0  0  0  0  0
    4.5981    1.8660    0.0000 O   0  0  0  0  0  0  0  0  0  0  0  0
   11.2260   -1.0000    0.0000 O   0  0  0  0  0  0  0  0  0  0  0  0
    9.7260   -1.8660    0.0000 O   0  0  0  0  0  0  0  0  0  0  0  0
    8.1424    0.6708    0.0000 N   0  0  0  0  0  0  0  0  0  0  0  0
    8.1424   -0.9387    0.0000 N   0  0  0  0  0  0  0  0  0  0  0  0
    9.7260   -0.1340    0.0000 N   0  0  0  0  0  0  0  0  0  0  0  0
    7.1962    0.3660    0.0000 C   0  0  0  0  0  0  0  0  0  0  0  0
    5.4641    0.3660    0.0000 C   0  0  0  0  0  0  0  0  0  0  0  0
    3.7320    0.3660    0.0000 C   0  0  0  0  0  0  0  0  0  0  0  0
    7.1962   -0.6340    0.0000 C   0  0  0  0  0  0  0  0  0  0  0  0
    6.3301    0.8660    0.0000 C   0  0  0  0  0  0  0  0  0  0  0  0
    2.8660    0.8660    0.0000 C   0  0  0  0  0  0  0  0  0  0  0  0
    5.4641   -0.6340    0.0000 C   0  0  0  0  0  0  0  0  0  0  0  0
    6.3301   -1.1340    0.0000 C   0  0  0  0  0  0  0  0  0  0  0  0
    8.7260   -0.1340    0.0000 C   0  0  0  0  0  0  0  0  0  0  0  0
    2.0000    0.3660    0.0000 C   0  0  0  0  0  0  0  0  0  0  0  0
   10.2260   -1.0000    0.0000 C   0  0  0  0  0  0  0  0  0  0  0  0
   11.7260   -1.8660    0.0000 C   0  0  0  0  0  0  0  0  0  0  0  0
    3.3335   -0.1089    0.0000 H   0  0  0  0  0  0  0  0  0  0  0  0
    4.1306   -0.1089    0.0000 H   0  0  0  0  0  0  0  0  0  0  0  0
    6.3301    1.4860    0.0000 H   0  0  0  0  0  0  0  0  0  0  0  0
    3.2646    1.3410    0.0000 H   0  0  0  0  0  0  0  0  0  0  0  0
    2.4675    1.3410    0.0000 H   0  0  0  0  0  0  0  0  0  0  0  0
    4.9272   -0.9440    0.0000 H   0  0  0  0  0  0  0  0  0  0  0  0
    8.3350    1.2601    0.0000 H   0  0  0  0  0  0  0  0  0  0  0  0
    6.3301   -1.7540    0.0000 H   0  0  0  0  0  0  0  0  0  0  0  0
    1.6900    0.9030    0.0000 H   0  0  0  0  0  0  0  0  0  0  0  0
    1.4631    0.0560    0.0000 H   0  0  0  0  0  0  0  0  0  0  0  0
    2.3100   -0.1709    0.0000 H   0  0  0  0  0  0  0  0  0  0  0  0
   10.0360    0.4030    0.0000 H   0  0  0  0  0  0  0  0  0  0  0  0
   11.1890   -2.1760    0.0000 H   0  0  0  0  0  0  0  0  0  0  0  0
   12.0360   -2.4030    0.0000 H   0  0  0  0  0  0  0  0  0  0  0  0
   12.2629   -1.5560    0.0000 H   0  0  0  0  0  0  0  0  0  0  0  0
  1  2  2  0  0  0  0
  1  9  1  0  0  0  0
  1 10  1  0  0  0  0
  3 18  1  0  0  0  0
  3 19  1  0  0  0  0
  4 18  2  0  0  0  0
  5  8  1  0  0  0  0
  5 16  1  0  0  0  0
  5 26  1  0  0  0  0
  6 11  1  0  0  0  0
  6 16  2  0  0  0  0
  7 16  1  0  0  0  0
  7 18  1  0  0  0  0
  7 31  1  0  0  0  0
  8 11  2  0  0  0  0
  8 12  1  0  0  0  0
  9 12  2  0  0  0  0
  9 14  1  0  0  0  0
 10 13  1  0  0  0  0
 10 20  1  0  0  0  0
 10 21  1  0  0  0  0
 11 15  1  0  0  0  0
 12 22  1  0  0  0  0
 13 17  1  0  0  0  0
 13 23  1  0  0  0  0
 13 24  1  0  0  0  0
 14 15  2  0  0  0  0
 14 25  1  0  0  0  0
 15 27  1  0  0  0  0
 17 28  1  0  0  0  0
 17 29  1  0  0  0  0
 17 30  1  0  0  0  0
 19 32  1  0  0  0  0
 19 33  1  0  0  0  0
 19 34  1  0  0  0  0
M  END
> <PUBCHEM_COMPOUND_CID>
83969

> <PUBCHEM_COMPOUND_CANONICALIZED>
1

> <PUBCHEM_CACTVS_COMPLEXITY>
353

> <PUBCHEM_CACTVS_HBOND_ACCEPTOR>
5

> <PUBCHEM_CACTVS_HBOND_DONOR>
2

> <PUBCHEM_CACTVS_ROTATABLE_BOND>
5

> <PUBCHEM_CACTVS_SUBSKEYS>
AAADccBzMABAAAAAAAAAAAAAAAAAAWAAAAAwAAAAAAAAAFgB8AAAHgQQAAAACAiFVgKz2bbJlAqoASRifEDCgC2hGrAJmTgwdJmIaKLgmZGUIAxokQJoyCcQAAAAAAQAACAAACAACAAAQAAAQAAAAAAAAA==

> <PUBCHEM_IUPAC_OPENEYE_NAME>
methyl N-(6-propylsulfinyl-1H-benzimidazol-2-yl)carbamate

> <PUBCHEM_IUPAC_CAS_NAME>
N-(6-propylsulfinyl-1H-benzimidazol-2-yl)carbamic acid methyl ester

> <PUBCHEM_IUPAC_NAME>
methyl N-(6-propylsulfinyl-1H-benzimidazol-2-yl)carbamate

> <PUBCHEM_IUPAC_SYSTEMATIC_NAME>
methyl N-(6-propylsulfinyl-1H-benzimidazol-2-yl)carbamate

> <PUBCHEM_IUPAC_TRADITIONAL_NAME>
N-(6-propylsulfinyl-1H-benzimidazol-2-yl)carbamic acid methyl ester

> <PUBCHEM_IUPAC_INCHI>
InChI=1S/C12H15N3O3S/c1-3-6-19(17)8-4-5-9-10(7-8)14-11(13-9)15-12(16)18-2/h4-5,7H,3,6H2,1-2H3,(H2,13,14,15,16)

> <PUBCHEM_IUPAC_INCHIKEY>
VXTGHWHFYNYFFV-UHFFFAOYSA-N

> <PUBCHEM_XLOGP3>
1.4

> <PUBCHEM_EXACT_MASS>
281.083412

> <PUBCHEM_MOLECULAR_FORMULA>
C12H15N3O3S

> <PUBCHEM_MOLECULAR_WEIGHT>
281.3308

> <PUBCHEM_OPENEYE_CAN_SMILES>
CCCS(=O)C1=CC2=C(C=C1)N=C(N2)NC(=O)OC

> <PUBCHEM_OPENEYE_ISO_SMILES>
CCCS(=O)C1=CC2=C(C=C1)N=C(N2)NC(=O)OC

> <PUBCHEM_CACTVS_TPSA>
103

> <PUBCHEM_MONOISOTOPIC_WEIGHT>
281.083412

> <PUBCHEM_TOTAL_CHARGE>
0

> <PUBCHEM_HEAVY_ATOM_COUNT>
19

> <PUBCHEM_ATOM_DEF_STEREO_COUNT>
0

> <PUBCHEM_ATOM_UDEF_STEREO_COUNT>
1

> <PUBCHEM_BOND_DEF_STEREO_COUNT>
0

> <PUBCHEM_BOND_UDEF_STEREO_COUNT>
0

> <PUBCHEM_ISOTOPIC_ATOM_COUNT>
0

> <PUBCHEM_COMPONENT_COUNT>
1

> <PUBCHEM_CACTVS_TAUTO_COUNT>
5

> <PUBCHEM_COORDINATE_TYPE>
1
5
255

> <PUBCHEM_BONDANNOTATIONS>
1  10  3
11  15  8
14  15  8
5  16  8
5  8  8
6  11  8
6  16  8
8  11  8
8  12  8
9  12  8
9  14  8

$$$$

