   Color/Form

     * TETRAGONAL PRISMS
     * White tetragonal crystals.

   from [1]HSDB

   Boiling Point
        Decomposes
   from [2]HSDB

   Melting Point
        710 deg C (1310 deg F) (decomposes)
   from [3]HSDB

   Density/Specific Gravity
        Specific gravity: 3.1 (water = 1)
   from [4]HSDB

   Solubilities

     * INSOL IN ALCOHOL
     * 85 g/100 g water at 20 deg C
     * Insoluble in ethanol.

   from [5]HSDB

   Other Chemical/Physical Properties

     * FREELY SOLUBLE IN WATER TO FORM A SLIGHTLY ALKALINE SOLN
       /PENTAHYDRATE/
     * Selenites are less soluble than the corresponding selenates and are
       easily reduced to elemental selenium. /Selenites/
     * ACICULAR CRYSTALS; LOSES WATER OF CRYSTALLIZATION IN DRY AIR
       /SODIUM SELENITE, PENTAHYDRATE/

   from [6]HSDB

   Computed Properties
   Molecular Weight                  172.937739 [g/mol]
   Molecular Formula                 Na[2]O[3]Se
   H-Bond Donor                      0
   H-Bond Acceptor                   3
   Rotatable Bond Count              0
   Exact Mass                        173.880804
   MonoIsotopic Mass                 173.880804
   Topological Polar Surface Area    63.2
   Heavy Atom Count                  6
   Formal Charge                     0
   Complexity                        18.8
   Isotope Atom Count                0
   Defined Atom Stereocenter Count   0
   Undefined Atom Stereocenter Count 0
   Defined Bond Stereocenter Count   0
   Undefined Bond Stereocenter Count 0
   Covalently-Bonded Unit Count      3

References

   1. http://toxnet.nlm.nih.gov/cgi-bin/sis/search/r?dbs+hsdb:@term+@rn+@rel+10102-18-8
   2. http://toxnet.nlm.nih.gov/cgi-bin/sis/search/r?dbs+hsdb:@term+@rn+@rel+10102-18-8
   3. http://toxnet.nlm.nih.gov/cgi-bin/sis/search/r?dbs+hsdb:@term+@rn+@rel+10102-18-8
   4. http://toxnet.nlm.nih.gov/cgi-bin/sis/search/r?dbs+hsdb:@term+@rn+@rel+10102-18-8
   5. http://toxnet.nlm.nih.gov/cgi-bin/sis/search/r?dbs+hsdb:@term+@rn+@rel+10102-18-8
   6. http://toxnet.nlm.nih.gov/cgi-bin/sis/search/r?dbs+hsdb:@term+@rn+@rel+10102-18-8
