   Color/Form

     * WHITE CRYSTALLINE SOLID
     * COLORLESS

   from [1]HSDB

   Odor
        MILD AROMATIC ODOR
   from [2]HSDB

   Melting Point
        114-120 DEG C
   from [3]HSDB

   Solubilities

     * SOL IN WATER, ACETONE, ETHANOL, ISOPROPYL ALCOHOL
     * INSOL IN HEXANE, DIETHYL ETHER
     * SOL IN HOT BENZENE

   from [4]HSDB

   Computed Properties
   Molecular Weight                  397.790142 [g/mol]
   Molecular Formula                 C[19]H[32]Cl[3]P
   H-Bond Donor                      0
   H-Bond Acceptor                   1
   Rotatable Bond Count              11
   Exact Mass                        396.130721
   MonoIsotopic Mass                 396.130721
   Topological Polar Surface Area    0
   Heavy Atom Count                  23
   Formal Charge                     0
   Complexity                        261
   Isotope Atom Count                0
   Defined Atom Stereocenter Count   0
   Undefined Atom Stereocenter Count 0
   Defined Bond Stereocenter Count   0
   Undefined Bond Stereocenter Count 0
   Covalently-Bonded Unit Count      2

References

   1. http://toxnet.nlm.nih.gov/cgi-bin/sis/search/r?dbs+hsdb:@term+@rn+@rel+115-78-6
   2. http://toxnet.nlm.nih.gov/cgi-bin/sis/search/r?dbs+hsdb:@term+@rn+@rel+115-78-6
   3. http://toxnet.nlm.nih.gov/cgi-bin/sis/search/r?dbs+hsdb:@term+@rn+@rel+115-78-6
   4. http://toxnet.nlm.nih.gov/cgi-bin/sis/search/r?dbs+hsdb:@term+@rn+@rel+115-78-6
