   Color/Form
        WHITE CRYSTALLINE SOLID
   from [1]HSDB

   Melting Point
        97-99 deg C
   from [2]HSDB

   Octanol/Water Partition Coefficient
        log Kow = 4.99 /Estimated/
   from [3]HSDB

   Solubilities

     * Sol in most org solvents; sparingly in petroleum ether
     * In water, 15 mg/L at 25 deg C

   from [4]HSDB

   Vapor Pressure
        1.98X10-6 mm Hg at 20 deg C
   from [5]HSDB

   Other Chemical/Physical Properties

     * Henry's Law constant = 4.6X10-8 atm-cu m/mol at 25 deg C
       /Estimated/
     * Hydroxyl radical reaction rate constant: 15X10-12 cu cm/molec-sec
       at 25 deg C /Estimated/

   from [6]HSDB

   Computed Properties
   Molecular Weight                  263.3752 [g/mol]
   Molecular Formula                 C[16]H[25]NO[2]
   XLogP3                            4.7
   H-Bond Donor                      1
   H-Bond Acceptor                   2
   Rotatable Bond Count              4
   Tautomer Count                    2
   Exact Mass                        263.188529
   MonoIsotopic Mass                 263.188529
   Topological Polar Surface Area    38.3
   Heavy Atom Count                  19
   Formal Charge                     0
   Complexity                        290
   Isotope Atom Count                0
   Defined Atom Stereocenter Count   0
   Undefined Atom Stereocenter Count 0
   Defined Bond Stereocenter Count   0
   Undefined Bond Stereocenter Count 0
   Covalently-Bonded Unit Count      1
   Feature 3D Acceptor Count         1
   Feature 3D Donor Count            1
   Feature 3D Hydrophobe Count       2
   Feature 3D Ring Count             1
   Effective Rotor Count             5
   Conformer Sampling RMSD           0.6
   CID Conformer Count               [7]39

References

   1. http://toxnet.nlm.nih.gov/cgi-bin/sis/search/r?dbs+hsdb:@term+@rn+@rel+2655-19-8
   2. http://toxnet.nlm.nih.gov/cgi-bin/sis/search/r?dbs+hsdb:@term+@rn+@rel+2655-19-8
   3. http://toxnet.nlm.nih.gov/cgi-bin/sis/search/r?dbs+hsdb:@term+@rn+@rel+2655-19-8
   4. http://toxnet.nlm.nih.gov/cgi-bin/sis/search/r?dbs+hsdb:@term+@rn+@rel+2655-19-8
   5. http://toxnet.nlm.nih.gov/cgi-bin/sis/search/r?dbs+hsdb:@term+@rn+@rel+2655-19-8
   6. http://toxnet.nlm.nih.gov/cgi-bin/sis/search/r?dbs+hsdb:@term+@rn+@rel+2655-19-8
   7. http://pubchem.ncbi.nlm.nih.gov/vw3d/vw3d.cgi?cid=17564
