   Color/Form

     * Crystals in liquid becoming dark with age and exposure to light and
       air
     * White crystals (Note: A liquid above 88 degrees F).

   from [1]HSDB

   Odor

     * Phenolic odor
     * Sweet, tarry odor.

   from [2]HSDB

   Boiling Point
        191-192 deg C
   from [3]HSDB

   Melting Point
        30 deg C
   from [4]HSDB

   Critical Temperature and Pressure
        Critical temperature: 424.4 deg C; Critical pressure: 5.01 MPa
   from [5]HSDB

   Density/Specific Gravity
        1.047 at 20 deg C/4 deg C
   from [6]HSDB

   Dissociation Constants
        pKa = 10.287
   from [7]HSDB

   Heat of Combustion
        Crystal: 3693 kJ/mol at 25 deg C; Gas: 3769.3 kJ/mol at 25 deg C
   from [8]HSDB

   Heat of Vaporization
        45.19 kJ/mol at 191.04 deg C
   from [9]HSDB

   Octanol/Water Partition Coefficient
        log Kow = 1.95
   from [10]HSDB

   Solubilities

     * Sol in about 40 parts water. Miscible with ethanol, chloroform and
       ether. Sol in solution of the fixed alkali hydroxides.
     * Sol in carbon tetrachloride
     * SOL IN VEGETABLE OILS AT 30 DEG C
     * In water, 2.59X10+4 mg/L at 25 deg C

   from [11]HSDB

   Spectral Properties

     * Index of refraction: 1.553 at 20 deg C/D
     * MAX ABSORPTION (WATER): 219 NM (LOG E= 3.71); 275 NM (LOG E= 3.22)
     * SADTLER REFERENCE NUMBER: 844 (IR, PRISM)
     * Intense mass spectral peaks: 108 m/z (100%), 107 m/z (75%), 77 m/z
       (34%), 79 m/z (33%)
     * IR: 166 (Sadtler Research Laboratories IR Grating Collection)
     * UV: 259 (Sadtler Research Laboratories Spectral Collection)
     * NMR: 3153 (Sadtler Research Laboratories Spectral Collection)
     * MASS: 53610 (NIST/EPA/MSDC Mass Spectral Database, 1990 version)

   from [12]HSDB

   Vapor Density
        3.72 (Air= 1)
   from [13]HSDB

   Vapor Pressure
        0.299 mm Hg at 25 deg C
   from [14]HSDB

   Viscosity
        3.035 cP at 50 deg C; 1.562 cP at 75 deg C; 0.961 cP at 100 deg C
   from [15]HSDB

   Other Chemical/Physical Properties

     * 0.0323% in saturated air at 25 deg C
     * Density of saturated air at 25 deg C= 1.00089 (air= 1)
     * Wt/gal= 8.68 lb
     * Henry's Law constant = 1.2X10-6 atm-cu m/mol at 25 deg C [Gaffney
       JS et al; Environ Sci Technol 21: 519-25 (1987)] [16]PubMed
       Abstract
     * Hydroxyl radical reaction rate constant = 4.2X10-11 cu cm/molec-sec
       at 25 deg C

   from [17]HSDB

   Computed Properties
   Molecular Weight                  108.13782 [g/mol]
   Molecular Formula                 C[7]H[8]O
   XLogP3                            2
   H-Bond Donor                      1
   H-Bond Acceptor                   1
   Rotatable Bond Count              0
   Tautomer Count                    3
   Exact Mass                        108.057515
   MonoIsotopic Mass                 108.057515
   Topological Polar Surface Area    20.2
   Heavy Atom Count                  8
   Formal Charge                     0
   Complexity                        70.8
   Isotope Atom Count                0
   Defined Atom Stereocenter Count   0
   Undefined Atom Stereocenter Count 0
   Defined Bond Stereocenter Count   0
   Undefined Bond Stereocenter Count 0
   Covalently-Bonded Unit Count      1
   Feature 3D Donor Count            1
   Feature 3D Ring Count             1
   Effective Rotor Count             0
   Conformer Sampling RMSD           0.4
   CID Conformer Count               [18]1

References

   1. http://toxnet.nlm.nih.gov/cgi-bin/sis/search/r?dbs+hsdb:@term+@rn+@rel+95-48-7
   2. http://toxnet.nlm.nih.gov/cgi-bin/sis/search/r?dbs+hsdb:@term+@rn+@rel+95-48-7
   3. http://toxnet.nlm.nih.gov/cgi-bin/sis/search/r?dbs+hsdb:@term+@rn+@rel+95-48-7
   4. http://toxnet.nlm.nih.gov/cgi-bin/sis/search/r?dbs+hsdb:@term+@rn+@rel+95-48-7
   5. http://toxnet.nlm.nih.gov/cgi-bin/sis/search/r?dbs+hsdb:@term+@rn+@rel+95-48-7
   6. http://toxnet.nlm.nih.gov/cgi-bin/sis/search/r?dbs+hsdb:@term+@rn+@rel+95-48-7
   7. http://toxnet.nlm.nih.gov/cgi-bin/sis/search/r?dbs+hsdb:@term+@rn+@rel+95-48-7
   8. http://toxnet.nlm.nih.gov/cgi-bin/sis/search/r?dbs+hsdb:@term+@rn+@rel+95-48-7
   9. http://toxnet.nlm.nih.gov/cgi-bin/sis/search/r?dbs+hsdb:@term+@rn+@rel+95-48-7
  10. http://toxnet.nlm.nih.gov/cgi-bin/sis/search/r?dbs+hsdb:@term+@rn+@rel+95-48-7
  11. http://toxnet.nlm.nih.gov/cgi-bin/sis/search/r?dbs+hsdb:@term+@rn+@rel+95-48-7
  12. http://toxnet.nlm.nih.gov/cgi-bin/sis/search/r?dbs+hsdb:@term+@rn+@rel+95-48-7
  13. http://toxnet.nlm.nih.gov/cgi-bin/sis/search/r?dbs+hsdb:@term+@rn+@rel+95-48-7
  14. http://toxnet.nlm.nih.gov/cgi-bin/sis/search/r?dbs+hsdb:@term+@rn+@rel+95-48-7
  15. http://toxnet.nlm.nih.gov/cgi-bin/sis/search/r?dbs+hsdb:@term+@rn+@rel+95-48-7
  16. http://www.ncbi.nlm.nih.gov/entrez/query.fcgi?cmd=Retrieve&db=pubmed&dopt=Abstract&list_uids=19994967
  17. http://toxnet.nlm.nih.gov/cgi-bin/sis/search/r?dbs+hsdb:@term+@rn+@rel+95-48-7
  18. http://pubchem.ncbi.nlm.nih.gov/vw3d/vw3d.cgi?cid=335
