9480
  -OEChem-06261203442D

 20 20  0     0  0  0  0  0  0999 V2000
    4.5981    2.4330    0.0000 F   0  0  0  0  0  0  0  0  0  0  0  0
    5.5981    1.4330    0.0000 F   0  0  0  0  0  0  0  0  0  0  0  0
    3.5981    1.4330    0.0000 F   0  0  0  0  0  0  0  0  0  0  0  0
    2.0000   -2.0670    0.0000 F   0  0  0  0  0  0  0  0  0  0  0  0
    3.3660   -2.4330    0.0000 F   0  0  0  0  0  0  0  0  0  0  0  0
    2.3660   -0.7010    0.0000 F   0  0  0  0  0  0  0  0  0  0  0  0
    6.3301   -1.5670    0.0000 N   0  0  0  0  0  0  0  0  0  0  0  0
    4.5981    0.4330    0.0000 C   0  0  0  0  0  0  0  0  0  0  0  0
    3.7320   -1.0670    0.0000 C   0  0  0  0  0  0  0  0  0  0  0  0
    3.7320   -0.0670    0.0000 C   0  0  0  0  0  0  0  0  0  0  0  0
    5.4641   -1.0670    0.0000 C   0  0  0  0  0  0  0  0  0  0  0  0
    5.4641   -0.0670    0.0000 C   0  0  0  0  0  0  0  0  0  0  0  0
    4.5981   -1.5670    0.0000 C   0  0  0  0  0  0  0  0  0  0  0  0
    4.5981    1.4330    0.0000 C   0  0  0  0  0  0  0  0  0  0  0  0
    2.8660   -1.5670    0.0000 C   0  0  0  0  0  0  0  0  0  0  0  0
    3.1951    0.2430    0.0000 H   0  0  0  0  0  0  0  0  0  0  0  0
    6.0010    0.2430    0.0000 H   0  0  0  0  0  0  0  0  0  0  0  0
    4.5981   -2.1870    0.0000 H   0  0  0  0  0  0  0  0  0  0  0  0
    6.3301   -2.1870    0.0000 H   0  0  0  0  0  0  0  0  0  0  0  0
    6.8671   -1.2570    0.0000 H   0  0  0  0  0  0  0  0  0  0  0  0
  1 14  1  0  0  0  0
  2 14  1  0  0  0  0
  3 14  1  0  0  0  0
  4 15  1  0  0  0  0
  5 15  1  0  0  0  0
  6 15  1  0  0  0  0
  7 11  1  0  0  0  0
  7 19  1  0  0  0  0
  7 20  1  0  0  0  0
  8 10  2  0  0  0  0
  8 12  1  0  0  0  0
  8 14  1  0  0  0  0
  9 10  1  0  0  0  0
  9 13  2  0  0  0  0
  9 15  1  0  0  0  0
 10 16  1  0  0  0  0
 11 12  2  0  0  0  0
 11 13  1  0  0  0  0
 12 17  1  0  0  0  0
 13 18  1  0  0  0  0
M  END
> <PUBCHEM_COMPOUND_CID>
9480

> <PUBCHEM_COMPOUND_CANONICALIZED>
1

> <PUBCHEM_CACTVS_COMPLEXITY>
198

> <PUBCHEM_CACTVS_HBOND_ACCEPTOR>
7

> <PUBCHEM_CACTVS_HBOND_DONOR>
1

> <PUBCHEM_CACTVS_ROTATABLE_BOND>
0

> <PUBCHEM_CACTVS_SUBSKEYS>
AAADcYByAcAAAAAAAAAAAAAAAAAAAAAAAAAwAAAAAAAAAAABAAAAHQAQAAAADAiBGBAwwIBAAACAAiRCQACCAAAgAgAAiAAAZIgIICKAkZGAIABgkAAIyAcQgEAOAAACQAAAAAAAAASAAAAAAAAAAAAAAA==

> <PUBCHEM_IUPAC_OPENEYE_NAME>
3,5-bis(trifluoromethyl)aniline

> <PUBCHEM_IUPAC_CAS_NAME>
3,5-bis(trifluoromethyl)aniline

> <PUBCHEM_IUPAC_NAME>
3,5-bis(trifluoromethyl)aniline

> <PUBCHEM_IUPAC_SYSTEMATIC_NAME>
3,5-bis(trifluoromethyl)aniline

> <PUBCHEM_IUPAC_TRADITIONAL_NAME>
[3,5-bis(trifluoromethyl)phenyl]amine

> <PUBCHEM_IUPAC_INCHI>
InChI=1S/C8H5F6N/c9-7(10,11)4-1-5(8(12,13)14)3-6(15)2-4/h1-3H,15H2

> <PUBCHEM_IUPAC_INCHIKEY>
CDIDGWDGQGVCIB-UHFFFAOYSA-N

> <PUBCHEM_XLOGP3>
3.6

> <PUBCHEM_EXACT_MASS>
229.032618

> <PUBCHEM_MOLECULAR_FORMULA>
C8H5F6N

> <PUBCHEM_MOLECULAR_WEIGHT>
229.122419

> <PUBCHEM_OPENEYE_CAN_SMILES>
C1=C(C=C(C=C1C(F)(F)F)N)C(F)(F)F

> <PUBCHEM_OPENEYE_ISO_SMILES>
C1=C(C=C(C=C1C(F)(F)F)N)C(F)(F)F

> <PUBCHEM_CACTVS_TPSA>
26

> <PUBCHEM_MONOISOTOPIC_WEIGHT>
229.032618

> <PUBCHEM_TOTAL_CHARGE>
0

> <PUBCHEM_HEAVY_ATOM_COUNT>
15

> <PUBCHEM_ATOM_DEF_STEREO_COUNT>
0

> <PUBCHEM_ATOM_UDEF_STEREO_COUNT>
0

> <PUBCHEM_BOND_DEF_STEREO_COUNT>
0

> <PUBCHEM_BOND_UDEF_STEREO_COUNT>
0

> <PUBCHEM_ISOTOPIC_ATOM_COUNT>
0

> <PUBCHEM_COMPONENT_COUNT>
1

> <PUBCHEM_CACTVS_TAUTO_COUNT>
1

> <PUBCHEM_COORDINATE_TYPE>
1
5
255

> <PUBCHEM_BONDANNOTATIONS>
11  12  8
11  13  8
8  10  8
8  12  8
9  10  8
9  13  8

$$$$

