46174060
  -OEChem-07051213112D

 82 86  0     1  0  0  0  0  0999 V2000
    6.6129   -0.1191    0.0000 Mg  0  2  0  0  0  0  0  0  0  0  0  0
    8.0110   -4.4966    0.0000 O   0  0  0  0  0  0  0  0  0  0  0  0
   10.3151   -3.6030    0.0000 O   0  0  0  0  0  0  0  0  0  0  0  0
   10.5207   -1.8832    0.0000 O   0  0  0  0  0  0  0  0  0  0  0  0
   13.0207   -0.9662    0.0000 O   0  0  0  0  0  0  0  0  0  0  0  0
   11.9780   -2.3492    0.0000 O   0  0  0  0  0  0  0  0  0  0  0  0
    4.5484    3.4700    0.0000 O   0  0  0  0  0  0  0  0  0  0  0  0
    6.6504   -1.4139    0.0000 N   0  5  0  0  0  0  0  0  0  0  0  0
    8.0994   -0.0924    0.0000 N   0  0  0  0  0  0  0  0  0  0  0  0
    6.6181    1.2290    0.0000 N   0  5  0  0  0  0  0  0  0  0  0  0
    5.1995   -0.0924    0.0000 N   0  0  0  0  0  0  0  0  0  0  0  0
    9.5825   -0.5432    0.0000 C   0  0  1  0  0  0  0  0  0  0  0  0
    9.5825    0.4228    0.0000 C   0  0  1  0  0  0  0  0  0  0  0  0
    8.6794   -0.8017    0.0000 C   0  0  0  0  0  0  0  0  0  0  0  0
    8.3903   -1.7355    0.0000 C   0  0  0  0  0  0  0  0  0  0  0  0
    7.4242   -1.9940    0.0000 C   0  0  0  0  0  0  0  0  0  0  0  0
    8.9285   -2.5650    0.0000 C   0  0  2  0  0  0  0  0  0  0  0  0
    7.1334   -2.9278    0.0000 C   0  0  0  0  0  0  0  0  0  0  0  0
    8.6471    0.6814    0.0000 C   0  0  0  0  0  0  0  0  0  0  0  0
   10.3810   -1.1452    0.0000 C   0  0  0  0  0  0  0  0  0  0  0  0
    3.7182   -0.5754    0.0000 C   0  0  3  0  0  0  0  0  0  0  0  0
    5.8764   -2.0263    0.0000 C   0  0  0  0  0  0  0  0  0  0  0  0
    3.7182    0.3906    0.0000 C   0  0  3  0  0  0  0  0  0  0  0  0
    7.9404   -3.4991    0.0000 C   0  0  0  0  0  0  0  0  0  0  0  0
    6.1672   -2.9278    0.0000 C   0  0  0  0  0  0  0  0  0  0  0  0
   10.3783    1.0284    0.0000 C   0  0  0  0  0  0  0  0  0  0  0  0
    4.6519   -0.8340    0.0000 C   0  0  0  0  0  0  0  0  0  0  0  0
    8.3579    1.5829    0.0000 C   0  0  0  0  0  0  0  0  0  0  0  0
    4.6519    0.6490    0.0000 C   0  0  0  0  0  0  0  0  0  0  0  0
    7.4242    1.8737    0.0000 C   0  0  0  0  0  0  0  0  0  0  0  0
    4.9426   -1.7355    0.0000 C   0  0  0  0  0  0  0  0  0  0  0  0
   11.3016   -0.7547    0.0000 C   0  0  0  0  0  0  0  0  0  0  0  0
    2.9223   -1.1809    0.0000 C   0  0  0  0  0  0  0  0  0  0  0  0
    5.8442    1.8414    0.0000 C   0  0  0  0  0  0  0  0  0  0  0  0
    9.9214   -2.6837    0.0000 C   0  0  0  0  0  0  0  0  0  0  0  0
    4.9104    1.5829    0.0000 C   0  0  0  0  0  0  0  0  0  0  0  0
    7.1011    2.7752    0.0000 C   0  0  0  0  0  0  0  0  0  0  0  0
    2.9223    0.9961    0.0000 C   0  0  0  0  0  0  0  0  0  0  0  0
    6.1350    2.7752    0.0000 C   0  0  0  0  0  0  0  0  0  0  0  0
    5.5786   -3.7362    0.0000 C   0  0  0  0  0  0  0  0  0  0  0  0
    2.0000   -0.7944    0.0000 C   0  0  0  0  0  0  0  0  0  0  0  0
   12.1001   -1.3567    0.0000 C   0  0  0  0  0  0  0  0  0  0  0  0
    7.6767    3.5929    0.0000 C   0  0  0  0  0  0  0  0  0  0  0  0
    5.5423    3.5806    0.0000 C   0  0  0  0  0  0  0  0  0  0  0  0
    5.9434    4.4966    0.0000 C   0  0  0  0  0  0  0  0  0  0  0  0
   11.3080   -3.7217    0.0000 C   0  0  0  0  0  0  0  0  0  0  0  0
    9.4693   -1.1528    0.0000 H   0  0  0  0  0  0  0  0  0  0  0  0
    9.4651    1.0316    0.0000 H   0  0  0  0  0  0  0  0  0  0  0  0
    9.2563   -2.0388    0.0000 H   0  0  0  0  0  0  0  0  0  0  0  0
    9.9274   -1.5679    0.0000 H   0  0  0  0  0  0  0  0  0  0  0  0
   10.7185   -1.6653    0.0000 H   0  0  0  0  0  0  0  0  0  0  0  0
    3.1627   -0.3001    0.0000 H   0  0  0  0  0  0  0  0  0  0  0  0
    3.8354    0.9994    0.0000 H   0  0  0  0  0  0  0  0  0  0  0  0
   10.7537    0.5350    0.0000 H   0  0  0  0  0  0  0  0  0  0  0  0
   10.8716    1.4039    0.0000 H   0  0  0  0  0  0  0  0  0  0  0  0
   10.0028    1.5218    0.0000 H   0  0  0  0  0  0  0  0  0  0  0  0
    8.7944    2.0232    0.0000 H   0  0  0  0  0  0  0  0  0  0  0  0
    4.5064   -2.1761    0.0000 H   0  0  0  0  0  0  0  0  0  0  0  0
   11.7551   -0.3320    0.0000 H   0  0  0  0  0  0  0  0  0  0  0  0
   10.9640   -0.2346    0.0000 H   0  0  0  0  0  0  0  0  0  0  0  0
    2.5870   -1.7024    0.0000 H   0  0  0  0  0  0  0  0  0  0  0  0
    3.3777   -1.6017    0.0000 H   0  0  0  0  0  0  0  0  0  0  0  0
    4.4720    2.0213    0.0000 H   0  0  0  0  0  0  0  0  0  0  0  0
    3.2977    1.4895    0.0000 H   0  0  0  0  0  0  0  0  0  0  0  0
    2.4288    1.3715    0.0000 H   0  0  0  0  0  0  0  0  0  0  0  0
    2.5469    0.5026    0.0000 H   0  0  0  0  0  0  0  0  0  0  0  0
    5.0774   -3.3713    0.0000 H   0  0  0  0  0  0  0  0  0  0  0  0
    5.2136   -4.2374    0.0000 H   0  0  0  0  0  0  0  0  0  0  0  0
    6.0798   -4.1011    0.0000 H   0  0  0  0  0  0  0  0  0  0  0  0
    2.2396   -0.2226    0.0000 H   0  0  0  0  0  0  0  0  0  0  0  0
    1.4282   -0.5548    0.0000 H   0  0  0  0  0  0  0  0  0  0  0  0
    1.7604   -1.3662    0.0000 H   0  0  0  0  0  0  0  0  0  0  0  0
    8.1837    3.2360    0.0000 H   0  0  0  0  0  0  0  0  0  0  0  0
    8.0336    4.0999    0.0000 H   0  0  0  0  0  0  0  0  0  0  0  0
    7.1697    3.9498    0.0000 H   0  0  0  0  0  0  0  0  0  0  0  0
    6.5113    4.2479    0.0000 H   0  0  0  0  0  0  0  0  0  0  0  0
    6.1921    5.0645    0.0000 H   0  0  0  0  0  0  0  0  0  0  0  0
    5.3755    4.7453    0.0000 H   0  0  0  0  0  0  0  0  0  0  0  0
   11.2344   -4.3373    0.0000 H   0  0  0  0  0  0  0  0  0  0  0  0
   11.9237   -3.7953    0.0000 H   0  0  0  0  0  0  0  0  0  0  0  0
   11.3816   -3.1061    0.0000 H   0  0  0  0  0  0  0  0  0  0  0  0
   13.5157   -1.3394    0.0000 H   0  0  0  0  0  0  0  0  0  0  0  0
  2 24  2  0  0  0  0
  3 35  1  0  0  0  0
  3 46  1  0  0  0  0
  4 35  2  0  0  0  0
  5 42  1  0  0  0  0
  5 82  1  0  0  0  0
  6 42  2  0  0  0  0
  7 44  2  0  0  0  0
  8 16  1  0  0  0  0
  8 22  1  0  0  0  0
  9 14  2  0  0  0  0
  9 19  1  0  0  0  0
 10 30  1  0  0  0  0
 10 34  1  0  0  0  0
 11 27  2  0  0  0  0
 11 29  1  0  0  0  0
 12 13  1  0  0  0  0
 12 14  1  0  0  0  0
 12 20  1  6  0  0  0
 12 47  1  0  0  0  0
 13 19  1  0  0  0  0
 13 26  1  1  0  0  0
 13 48  1  0  0  0  0
 14 15  1  0  0  0  0
 15 16  2  0  0  0  0
 15 17  1  0  0  0  0
 16 18  1  0  0  0  0
 17 24  1  0  0  0  0
 17 35  1  1  0  0  0
 17 49  1  0  0  0  0
 18 24  1  0  0  0  0
 18 25  2  0  0  0  0
 19 28  2  0  0  0  0
 20 32  1  0  0  0  0
 20 50  1  0  0  0  0
 20 51  1  0  0  0  0
 21 23  1  0  0  0  0
 21 27  1  0  0  0  0
 21 33  1  0  0  0  0
 21 52  1  0  0  0  0
 22 25  1  0  0  0  0
 22 31  2  0  0  0  0
 23 29  1  0  0  0  0
 23 38  1  0  0  0  0
 23 53  1  0  0  0  0
 25 40  1  0  0  0  0
 26 54  1  0  0  0  0
 26 55  1  0  0  0  0
 26 56  1  0  0  0  0
 27 31  1  0  0  0  0
 28 30  1  0  0  0  0
 28 57  1  0  0  0  0
 29 36  2  0  0  0  0
 30 37  2  0  0  0  0
 31 58  1  0  0  0  0
 32 42  1  0  0  0  0
 32 59  1  0  0  0  0
 32 60  1  0  0  0  0
 33 41  1  0  0  0  0
 33 61  1  0  0  0  0
 33 62  1  0  0  0  0
 34 36  1  0  0  0  0
 34 39  2  0  0  0  0
 36 63  1  0  0  0  0
 37 39  1  0  0  0  0
 37 43  1  0  0  0  0
 38 64  1  0  0  0  0
 38 65  1  0  0  0  0
 38 66  1  0  0  0  0
 39 44  1  0  0  0  0
 40 67  1  0  0  0  0
 40 68  1  0  0  0  0
 40 69  1  0  0  0  0
 41 70  1  0  0  0  0
 41 71  1  0  0  0  0
 41 72  1  0  0  0  0
 43 73  1  0  0  0  0
 43 74  1  0  0  0  0
 43 75  1  0  0  0  0
 44 45  1  0  0  0  0
 45 76  1  0  0  0  0
 45 77  1  0  0  0  0
 45 78  1  0  0  0  0
 46 79  1  0  0  0  0
 46 80  1  0  0  0  0
 46 81  1  0  0  0  0
M  CHG  3   1   2   8  -1  10  -1
M  END
> <PUBCHEM_COMPOUND_CID>
46174060

> <PUBCHEM_COMPOUND_CANONICALIZED>
1

> <PUBCHEM_CACTVS_COMPLEXITY>
1630

> <PUBCHEM_CACTVS_HBOND_ACCEPTOR>
10

> <PUBCHEM_CACTVS_HBOND_DONOR>
1

> <PUBCHEM_CACTVS_ROTATABLE_BOND>
7

> <PUBCHEM_CACTVS_SUBSKEYS>
AAADcfB/uAAAACAAAAAAAAAAAAAAAWIECBAAAAAAAAAQAACBgAAAHgAACAAADQyBngICiJIIFgCoA6TyTACCgCAlAiAAmCEwRNgIIH7IlZGEQYhk4ADIyUec2fKOgAAAAAAAAAAAAAAAAAAAAAAAAAAAAA==

> <PUBCHEM_IUPAC_INCHI>
InChI=1S/C35H38N4O6.Mg/c1-8-19-14(2)21-13-26-28(18(6)40)16(4)23(37-26)11-22-15(3)20(9-10-27(41)42)32(38-22)30-31(35(44)45-7)34(43)29-17(5)24(39-33(29)30)12-25(19)36-21;/h11-15,19-20,31H,8-10H2,1-7H3,(H3,36,37,38,39,40,41,42,43);/q;+2/p-2/t14?,15-,19?,20-,31+;/m0./s1

> <PUBCHEM_IUPAC_INCHIKEY>
PSDHRHYLLJOFOB-UJPFUILDSA-L

> <PUBCHEM_EXACT_MASS>
632.248527

> <PUBCHEM_MOLECULAR_FORMULA>
C35H36MgN4O6

> <PUBCHEM_MOLECULAR_WEIGHT>
632.98854

> <PUBCHEM_OPENEYE_CAN_SMILES>
CCC1C(C2=NC1=CC3=C(C4=C([N-]3)C(=C5C(C(C(=N5)C=C6C(=C(C(=C2)[N-]6)C(=O)C)C)C)CCC(=O)O)C(C4=O)C(=O)OC)C)C.[Mg+2]

> <PUBCHEM_OPENEYE_ISO_SMILES>
CCC1C(C2=NC1=CC3=C(C4=C([N-]3)C(=C5[C@H]([C@@H](C(=N5)C=C6C(=C(C(=C2)[N-]6)C(=O)C)C)C)CCC(=O)O)[C@H](C4=O)C(=O)OC)C)C.[Mg+2]

> <PUBCHEM_CACTVS_TPSA>
125

> <PUBCHEM_MONOISOTOPIC_WEIGHT>
632.248527

> <PUBCHEM_TOTAL_CHARGE>
0

> <PUBCHEM_HEAVY_ATOM_COUNT>
46

> <PUBCHEM_ATOM_DEF_STEREO_COUNT>
3

> <PUBCHEM_ATOM_UDEF_STEREO_COUNT>
2

> <PUBCHEM_BOND_DEF_STEREO_COUNT>
0

> <PUBCHEM_BOND_UDEF_STEREO_COUNT>
0

> <PUBCHEM_ISOTOPIC_ATOM_COUNT>
0

> <PUBCHEM_COMPONENT_COUNT>
2

> <PUBCHEM_CACTVS_TAUTO_COUNT>
831

> <PUBCHEM_NONSTANDARDBOND>
1  10  7
1  8  7

> <PUBCHEM_COORDINATE_TYPE>
1
5
255

> <PUBCHEM_BONDANNOTATIONS>
10  30  8
10  34  8
11  27  8
11  29  8
12  20  6
13  26  5
14  15  8
15  16  8
16  18  8
17  35  5
18  25  8
19  28  8
21  33  3
22  25  8
22  31  8
23  38  3
27  31  8
28  30  8
29  36  8
30  37  8
34  36  8
34  39  8
37  39  8
8  16  8
8  22  8
9  14  8
9  19  8

$$$$

