   Color/Form
        PRISMS OR PLATES FROM BENZENE
   from [1]HSDB

   Boiling Point
        310-312 deg C @ 10 mm Hg
   from [2]HSDB

   Melting Point
        178-179 DEG C
   from [3]HSDB

   Octanol/Water Partition Coefficient
        log Kow = 6.44
   from [4]HSDB

   Solubilities

     * 2.9X10-8 MOL/L DISSOLVE IN WATER @ 25 DEG C
     * Soluble in acetone
     * Water: 0.0063 mg/l @ 25 deg C

   from [5]HSDB

   Spectral Properties

     * Intense mass spectral peaks: 252 m/z (100%), 250 m/z (24%), 253 m/z
       (21%), 125 m/z (16%)
     * IR: 8245 (Sadtler Research Laboratories IR Grating Collection)
     * UV: 553 (Friedel and Orchin, Ultraviolet Spectra of Aromatic
       Compounds, John Wiley & Sons, New York)
     * NMR: 1756 (Atlas of Mass Spectral Data, John Wiley & Sons, New
       York)
     * MASS: 4656 (National Bureau of Standards EPA-NIH Mass Spectra Data
       Base, NSRDS-NBS-63) /4,5-Benzopyrene/

   from [6]HSDB

   Vapor Pressure
        5.7X10-9 mm Hg @ 25 deg C /extrapolated/
   from [7]HSDB

   Other Chemical/Physical Properties

     * RED NEEDLES /PICRATE/; CAN BE SEPARATED FROM ISOMERIC
       3,4-BENZPYRENE BY ITS MORE STABLE & LESS SOL PICRATE
     * BENZO(E)PYRENE FORMS PICRATE WITH MP OF 229-230 DEG C (RED NEEDLES)
     * Reacts with NO and NO2 to form nitro derivatives.

   from [8]HSDB

   Computed Properties
   Molecular Weight                  252.30928 [g/mol]
   Molecular Formula                 C[20]H[12]
   XLogP3                            6.4
   H-Bond Donor                      0
   H-Bond Acceptor                   0
   Rotatable Bond Count              0
   Exact Mass                        252.0939
   MonoIsotopic Mass                 252.0939
   Topological Polar Surface Area    0
   Heavy Atom Count                  20
   Formal Charge                     0
   Complexity                        336
   Isotope Atom Count                0
   Defined Atom Stereocenter Count   0
   Undefined Atom Stereocenter Count 0
   Defined Bond Stereocenter Count   0
   Undefined Bond Stereocenter Count 0
   Covalently-Bonded Unit Count      1
   Feature 3D Ring Count             5
   Effective Rotor Count             0
   Conformer Sampling RMSD           0.6
   CID Conformer Count               [9]1

References

   1. http://toxnet.nlm.nih.gov/cgi-bin/sis/search/r?dbs+hsdb:@term+@rn+@rel+192-97-2
   2. http://toxnet.nlm.nih.gov/cgi-bin/sis/search/r?dbs+hsdb:@term+@rn+@rel+192-97-2
   3. http://toxnet.nlm.nih.gov/cgi-bin/sis/search/r?dbs+hsdb:@term+@rn+@rel+192-97-2
   4. http://toxnet.nlm.nih.gov/cgi-bin/sis/search/r?dbs+hsdb:@term+@rn+@rel+192-97-2
   5. http://toxnet.nlm.nih.gov/cgi-bin/sis/search/r?dbs+hsdb:@term+@rn+@rel+192-97-2
   6. http://toxnet.nlm.nih.gov/cgi-bin/sis/search/r?dbs+hsdb:@term+@rn+@rel+192-97-2
   7. http://toxnet.nlm.nih.gov/cgi-bin/sis/search/r?dbs+hsdb:@term+@rn+@rel+192-97-2
   8. http://toxnet.nlm.nih.gov/cgi-bin/sis/search/r?dbs+hsdb:@term+@rn+@rel+192-97-2
   9. http://pubchem.ncbi.nlm.nih.gov/vw3d/vw3d.cgi?cid=9128
