10346914
  -OEChem-07051213102D

 80 81  0     0  0  0  0  0  0999 V2000
   11.5263    4.4050    0.0000 O   0  0  0  0  0  0  0  0  0  0  0  0
    7.1962   -5.0950    0.0000 O   0  0  0  0  0  0  0  0  0  0  0  0
    8.0622    8.4050    0.0000 O   0  0  0  0  0  0  0  0  0  0  0  0
    6.3301    7.4050    0.0000 O   0  0  0  0  0  0  0  0  0  0  0  0
    2.0000   -6.0950    0.0000 O   0  0  0  0  0  0  0  0  0  0  0  0
    2.0000   -8.0950    0.0000 O   0  0  0  0  0  0  0  0  0  0  0  0
   10.6603    2.9050    0.0000 N   0  0  0  0  0  0  0  0  0  0  0  0
    8.0622   -0.5950    0.0000 N   0  0  0  0  0  0  0  0  0  0  0  0
    6.3301   -3.5950    0.0000 N   0  0  0  0  0  0  0  0  0  0  0  0
   12.3923   -0.0950    0.0000 N   0  0  0  0  0  0  0  0  0  0  0  0
    9.7942    2.4050    0.0000 C   0  0  0  0  0  0  0  0  0  0  0  0
    9.7942    1.4050    0.0000 C   0  0  0  0  0  0  0  0  0  0  0  0
    8.9282    0.9050    0.0000 C   0  0  0  0  0  0  0  0  0  0  0  0
   11.5263    2.4050    0.0000 C   0  0  0  0  0  0  0  0  0  0  0  0
    8.9282   -0.0950    0.0000 C   0  0  0  0  0  0  0  0  0  0  0  0
   11.5263    1.4050    0.0000 C   0  0  0  0  0  0  0  0  0  0  0  0
   10.6603    3.9050    0.0000 C   0  0  0  0  0  0  0  0  0  0  0  0
    9.7942    4.4050    0.0000 C   0  0  0  0  0  0  0  0  0  0  0  0
    8.0622   -1.5950    0.0000 C   0  0  0  0  0  0  0  0  0  0  0  0
    7.1962   -2.0950    0.0000 C   0  0  0  0  0  0  0  0  0  0  0  0
    9.7942    5.4050    0.0000 C   0  0  0  0  0  0  0  0  0  0  0  0
   12.3923    0.9050    0.0000 C   0  0  0  0  0  0  0  0  0  0  0  0
    7.1962   -3.0950    0.0000 C   0  0  0  0  0  0  0  0  0  0  0  0
    8.9282    5.9050    0.0000 C   0  0  0  0  0  0  0  0  0  0  0  0
    8.9282    6.9050    0.0000 C   0  0  0  0  0  0  0  0  0  0  0  0
    5.4641   -5.0950    0.0000 C   0  0  0  0  0  0  0  0  0  0  0  0
    8.0622    5.4050    0.0000 C   0  0  0  0  0  0  0  0  0  0  0  0
    6.3301   -4.5950    0.0000 C   0  0  0  0  0  0  0  0  0  0  0  0
    5.4641   -6.0950    0.0000 C   0  0  0  0  0  0  0  0  0  0  0  0
    8.0622    7.4050    0.0000 C   0  0  0  0  0  0  0  0  0  0  0  0
    7.1962    5.9050    0.0000 C   0  0  0  0  0  0  0  0  0  0  0  0
    4.5981   -6.5950    0.0000 C   0  0  0  0  0  0  0  0  0  0  0  0
    7.1962    6.9050    0.0000 C   0  0  0  0  0  0  0  0  0  0  0  0
    3.7320   -6.0950    0.0000 C   0  0  0  0  0  0  0  0  0  0  0  0
    4.5981   -7.5950    0.0000 C   0  0  0  0  0  0  0  0  0  0  0  0
    2.8660   -6.5950    0.0000 C   0  0  0  0  0  0  0  0  0  0  0  0
    3.7320   -8.0950    0.0000 C   0  0  0  0  0  0  0  0  0  0  0  0
    2.8660   -7.5950    0.0000 C   0  0  0  0  0  0  0  0  0  0  0  0
    9.5822    2.9876    0.0000 H   0  0  0  0  0  0  0  0  0  0  0  0
    9.1836    2.2973    0.0000 H   0  0  0  0  0  0  0  0  0  0  0  0
   10.0063    0.8224    0.0000 H   0  0  0  0  0  0  0  0  0  0  0  0
   10.4048    1.5127    0.0000 H   0  0  0  0  0  0  0  0  0  0  0  0
    8.7162    1.4876    0.0000 H   0  0  0  0  0  0  0  0  0  0  0  0
    8.3176    0.7973    0.0000 H   0  0  0  0  0  0  0  0  0  0  0  0
   12.1369    2.2973    0.0000 H   0  0  0  0  0  0  0  0  0  0  0  0
   11.7383    2.9876    0.0000 H   0  0  0  0  0  0  0  0  0  0  0  0
    9.1403   -0.6776    0.0000 H   0  0  0  0  0  0  0  0  0  0  0  0
    9.5388    0.0127    0.0000 H   0  0  0  0  0  0  0  0  0  0  0  0
   10.9157    1.5127    0.0000 H   0  0  0  0  0  0  0  0  0  0  0  0
   11.3142    0.8224    0.0000 H   0  0  0  0  0  0  0  0  0  0  0  0
    9.1836    4.5127    0.0000 H   0  0  0  0  0  0  0  0  0  0  0  0
    9.5822    3.8224    0.0000 H   0  0  0  0  0  0  0  0  0  0  0  0
    7.5252   -0.2850    0.0000 H   0  0  0  0  0  0  0  0  0  0  0  0
    8.2742   -2.1776    0.0000 H   0  0  0  0  0  0  0  0  0  0  0  0
    8.6728   -1.4873    0.0000 H   0  0  0  0  0  0  0  0  0  0  0  0
    6.9841   -1.5124    0.0000 H   0  0  0  0  0  0  0  0  0  0  0  0
    6.5856   -2.2027    0.0000 H   0  0  0  0  0  0  0  0  0  0  0  0
   10.4048    5.2973    0.0000 H   0  0  0  0  0  0  0  0  0  0  0  0
   10.0063    5.9876    0.0000 H   0  0  0  0  0  0  0  0  0  0  0  0
   13.0029    0.7973    0.0000 H   0  0  0  0  0  0  0  0  0  0  0  0
   12.6044    1.4876    0.0000 H   0  0  0  0  0  0  0  0  0  0  0  0
    7.4082   -3.6776    0.0000 H   0  0  0  0  0  0  0  0  0  0  0  0
    7.8067   -2.9873    0.0000 H   0  0  0  0  0  0  0  0  0  0  0  0
    5.7932   -3.2850    0.0000 H   0  0  0  0  0  0  0  0  0  0  0  0
   12.9292   -0.4050    0.0000 H   0  0  0  0  0  0  0  0  0  0  0  0
   11.8554   -0.4050    0.0000 H   0  0  0  0  0  0  0  0  0  0  0  0
    5.2520   -4.5124    0.0000 H   0  0  0  0  0  0  0  0  0  0  0  0
    4.8535   -5.2027    0.0000 H   0  0  0  0  0  0  0  0  0  0  0  0
    9.4651    7.2150    0.0000 H   0  0  0  0  0  0  0  0  0  0  0  0
    8.0622    4.7850    0.0000 H   0  0  0  0  0  0  0  0  0  0  0  0
    5.6762   -6.6776    0.0000 H   0  0  0  0  0  0  0  0  0  0  0  0
    6.0747   -5.9873    0.0000 H   0  0  0  0  0  0  0  0  0  0  0  0
    6.6592    5.5950    0.0000 H   0  0  0  0  0  0  0  0  0  0  0  0
    3.7320   -5.4750    0.0000 H   0  0  0  0  0  0  0  0  0  0  0  0
    5.1350   -7.9050    0.0000 H   0  0  0  0  0  0  0  0  0  0  0  0
    3.7320   -8.7150    0.0000 H   0  0  0  0  0  0  0  0  0  0  0  0
    8.5991    8.7150    0.0000 H   0  0  0  0  0  0  0  0  0  0  0  0
    5.7932    7.0950    0.0000 H   0  0  0  0  0  0  0  0  0  0  0  0
    2.0000   -5.4750    0.0000 H   0  0  0  0  0  0  0  0  0  0  0  0
    2.0000   -8.7150    0.0000 H   0  0  0  0  0  0  0  0  0  0  0  0
  1 17  2  0  0  0  0
  2 28  2  0  0  0  0
  3 30  1  0  0  0  0
  3 77  1  0  0  0  0
  4 33  1  0  0  0  0
  4 78  1  0  0  0  0
  5 36  1  0  0  0  0
  5 79  1  0  0  0  0
  6 38  1  0  0  0  0
  6 80  1  0  0  0  0
  7 11  1  0  0  0  0
  7 14  1  0  0  0  0
  7 17  1  0  0  0  0
  8 15  1  0  0  0  0
  8 19  1  0  0  0  0
  8 53  1  0  0  0  0
  9 23  1  0  0  0  0
  9 28  1  0  0  0  0
  9 64  1  0  0  0  0
 10 22  1  0  0  0  0
 10 65  1  0  0  0  0
 10 66  1  0  0  0  0
 11 12  1  0  0  0  0
 11 39  1  0  0  0  0
 11 40  1  0  0  0  0
 12 13  1  0  0  0  0
 12 41  1  0  0  0  0
 12 42  1  0  0  0  0
 13 15  1  0  0  0  0
 13 43  1  0  0  0  0
 13 44  1  0  0  0  0
 14 16  1  0  0  0  0
 14 45  1  0  0  0  0
 14 46  1  0  0  0  0
 15 47  1  0  0  0  0
 15 48  1  0  0  0  0
 16 22  1  0  0  0  0
 16 49  1  0  0  0  0
 16 50  1  0  0  0  0
 17 18  1  0  0  0  0
 18 21  1  0  0  0  0
 18 51  1  0  0  0  0
 18 52  1  0  0  0  0
 19 20  1  0  0  0  0
 19 54  1  0  0  0  0
 19 55  1  0  0  0  0
 20 23  1  0  0  0  0
 20 56  1  0  0  0  0
 20 57  1  0  0  0  0
 21 24  1  0  0  0  0
 21 58  1  0  0  0  0
 21 59  1  0  0  0  0
 22 60  1  0  0  0  0
 22 61  1  0  0  0  0
 23 62  1  0  0  0  0
 23 63  1  0  0  0  0
 24 25  2  0  0  0  0
 24 27  1  0  0  0  0
 25 30  1  0  0  0  0
 25 69  1  0  0  0  0
 26 28  1  0  0  0  0
 26 29  1  0  0  0  0
 26 67  1  0  0  0  0
 26 68  1  0  0  0  0
 27 31  2  0  0  0  0
 27 70  1  0  0  0  0
 29 32  1  0  0  0  0
 29 71  1  0  0  0  0
 29 72  1  0  0  0  0
 30 33  2  0  0  0  0
 31 33  1  0  0  0  0
 31 73  1  0  0  0  0
 32 34  2  0  0  0  0
 32 35  1  0  0  0  0
 34 36  1  0  0  0  0
 34 74  1  0  0  0  0
 35 37  2  0  0  0  0
 35 75  1  0  0  0  0
 36 38  2  0  0  0  0
 37 38  1  0  0  0  0
 37 76  1  0  0  0  0
M  END
> <PUBCHEM_COMPOUND_CID>
10346914

> <PUBCHEM_COMPOUND_CANONICALIZED>
1

> <PUBCHEM_CACTVS_COMPLEXITY>
669

> <PUBCHEM_CACTVS_HBOND_ACCEPTOR>
8

> <PUBCHEM_CACTVS_HBOND_DONOR>
7

> <PUBCHEM_CACTVS_ROTATABLE_BOND>
18

> <PUBCHEM_CACTVS_SUBSKEYS>
AAADcfB7uAAAAAAAAAAAAAAAAAAAAAAAAAAwYAAAAAAAAAABQAAAHgAQCAAADATBmAQwBoPAAgCIAiFSEAACAAAgIAAIiIEOiIgJJjKC0RKEcAEk1hGJmAeYyLCOIAABAAAAQABAAAIAAACAAAAAAAAAAA==

> <PUBCHEM_IUPAC_OPENEYE_NAME>
N-[3-[4-[3-aminopropyl-[3-(3,4-dihydroxyphenyl)propanoyl]amino]butylamino]propyl]-3-(3,4-dihydroxyphenyl)propanamide

> <PUBCHEM_IUPAC_CAS_NAME>
N-[3-[4-[3-aminopropyl-[3-(3,4-dihydroxyphenyl)-1-oxopropyl]amino]butylamino]propyl]-3-(3,4-dihydroxyphenyl)propanamide

> <PUBCHEM_IUPAC_NAME>
N-[3-[4-[3-aminopropyl-[3-(3,4-dihydroxyphenyl)propanoyl]amino]butylamino]propyl]-3-(3,4-dihydroxyphenyl)propanamide

> <PUBCHEM_IUPAC_SYSTEMATIC_NAME>
N-[3-[4-[3-azanylpropyl-[3-[3,4-bis(oxidanyl)phenyl]propanoyl]amino]butylamino]propyl]-3-[3,4-bis(oxidanyl)phenyl]propanamide

> <PUBCHEM_IUPAC_TRADITIONAL_NAME>
N-[3-[4-[3-aminopropyl-[3-(3,4-dihydroxyphenyl)propanoyl]amino]butylamino]propyl]-3-(3,4-dihydroxyphenyl)propionamide

> <PUBCHEM_IUPAC_INCHI>
InChI=1S/C28H42N4O6/c29-13-3-18-32(28(38)12-8-22-6-10-24(34)26(36)20-22)17-2-1-14-30-15-4-16-31-27(37)11-7-21-5-9-23(33)25(35)19-21/h5-6,9-10,19-20,30,33-36H,1-4,7-8,11-18,29H2,(H,31,37)

> <PUBCHEM_IUPAC_INCHIKEY>
IWRAOCFRRTWUDF-UHFFFAOYSA-N

> <PUBCHEM_XLOGP3_AA>
1.5

> <PUBCHEM_EXACT_MASS>
530.310435

> <PUBCHEM_MOLECULAR_FORMULA>
C28H42N4O6

> <PUBCHEM_MOLECULAR_WEIGHT>
530.65628

> <PUBCHEM_OPENEYE_CAN_SMILES>
C1=CC(=C(C=C1CCC(=O)NCCCNCCCCN(CCCN)C(=O)CCC2=CC(=C(C=C2)O)O)O)O

> <PUBCHEM_OPENEYE_ISO_SMILES>
C1=CC(=C(C=C1CCC(=O)NCCCNCCCCN(CCCN)C(=O)CCC2=CC(=C(C=C2)O)O)O)O

> <PUBCHEM_CACTVS_TPSA>
168

> <PUBCHEM_MONOISOTOPIC_WEIGHT>
530.310435

> <PUBCHEM_TOTAL_CHARGE>
0

> <PUBCHEM_HEAVY_ATOM_COUNT>
38

> <PUBCHEM_ATOM_DEF_STEREO_COUNT>
0

> <PUBCHEM_ATOM_UDEF_STEREO_COUNT>
0

> <PUBCHEM_BOND_DEF_STEREO_COUNT>
0

> <PUBCHEM_BOND_UDEF_STEREO_COUNT>
0

> <PUBCHEM_ISOTOPIC_ATOM_COUNT>
0

> <PUBCHEM_COMPONENT_COUNT>
1

> <PUBCHEM_CACTVS_TAUTO_COUNT>
998

> <PUBCHEM_COORDINATE_TYPE>
1
5
255

> <PUBCHEM_BONDANNOTATIONS>
24  25  8
24  27  8
25  30  8
27  31  8
30  33  8
31  33  8
32  34  8
32  35  8
34  36  8
35  37  8
36  38  8
37  38  8

$$$$

