440195
  -OEChem-07051212492D

 51 54  0     1  0  0  0  0  0999 V2000
    9.8660    0.1796    0.0000 O   0  0  0  0  0  0  0  0  0  0  0  0
    8.9942   -1.3170    0.0000 O   0  0  0  0  0  0  0  0  0  0  0  0
   12.4583   -1.3304    0.0000 O   0  0  0  0  0  0  0  0  0  0  0  0
   12.4660    0.6696    0.0000 O   0  0  0  0  0  0  0  0  0  0  0  0
   10.7224   -2.3237    0.0000 O   0  0  0  0  0  0  0  0  0  0  0  0
   11.6058    2.1729    0.0000 O   0  0  0  0  0  0  0  0  0  0  0  0
    5.4641   -1.2929    0.0000 O   0  0  0  0  0  0  0  0  0  0  0  0
    5.4641    1.7071    0.0000 O   0  0  0  0  0  0  0  0  0  0  0  0
   11.5942   -0.8271    0.0000 C   0  0  1  0  0  0  0  0  0  0  0  0
   11.5981    0.1729    0.0000 C   0  0  1  0  0  0  0  0  0  0  0  0
   10.7263   -1.3237    0.0000 C   0  0  2  0  0  0  0  0  0  0  0  0
   10.7340    0.6763    0.0000 C   0  0  1  0  0  0  0  0  0  0  0  0
    9.8622   -0.8204    0.0000 C   0  0  1  0  0  0  0  0  0  0  0  0
   10.7378    1.6762    0.0000 C   0  0  0  0  0  0  0  0  0  0  0  0
    8.1301   -0.8137    0.0000 C   0  0  0  0  0  0  0  0  0  0  0  0
    4.5981   -0.7929    0.0000 C   0  0  3  0  0  0  0  0  0  0  0  0
    4.5981    0.2071    0.0000 C   0  0  0  0  0  0  0  0  0  0  0  0
    6.3301   -0.7929    0.0000 C   0  0  0  0  0  0  0  0  0  0  0  0
    6.3301    0.2071    0.0000 C   0  0  0  0  0  0  0  0  0  0  0  0
    7.2241   -1.3276    0.0000 C   0  0  0  0  0  0  0  0  0  0  0  0
    5.4641    0.7071    0.0000 C   0  0  0  0  0  0  0  0  0  0  0  0
    8.1301    0.2279    0.0000 C   0  0  0  0  0  0  0  0  0  0  0  0
    7.2241    0.7418    0.0000 C   0  0  0  0  0  0  0  0  0  0  0  0
    3.7320   -1.2929    0.0000 C   0  0  0  0  0  0  0  0  0  0  0  0
    2.8660   -0.7929    0.0000 C   0  0  0  0  0  0  0  0  0  0  0  0
    3.7320   -2.2929    0.0000 C   0  0  0  0  0  0  0  0  0  0  0  0
    2.0000   -1.2929    0.0000 C   0  0  0  0  0  0  0  0  0  0  0  0
    2.8660   -2.7929    0.0000 C   0  0  0  0  0  0  0  0  0  0  0  0
    2.0000   -2.2929    0.0000 C   0  0  0  0  0  0  0  0  0  0  0  0
   11.5918   -1.4471    0.0000 H   0  0  0  0  0  0  0  0  0  0  0  0
   12.1338   -0.1391    0.0000 H   0  0  0  0  0  0  0  0  0  0  0  0
   11.2620   -1.6358    0.0000 H   0  0  0  0  0  0  0  0  0  0  0  0
   10.1982    0.9883    0.0000 H   0  0  0  0  0  0  0  0  0  0  0  0
    9.8598   -1.4404    0.0000 H   0  0  0  0  0  0  0  0  0  0  0  0
   10.5280    2.2597    0.0000 H   0  0  0  0  0  0  0  0  0  0  0  0
   10.1268    1.5709    0.0000 H   0  0  0  0  0  0  0  0  0  0  0  0
   12.9964   -1.0225    0.0000 H   0  0  0  0  0  0  0  0  0  0  0  0
   13.0017    0.3575    0.0000 H   0  0  0  0  0  0  0  0  0  0  0  0
   10.1843   -2.6316    0.0000 H   0  0  0  0  0  0  0  0  0  0  0  0
    4.5981   -1.6429    0.0000 H   0  0  0  0  0  0  0  0  0  0  0  0
    4.3860    0.7897    0.0000 H   0  0  0  0  0  0  0  0  0  0  0  0
    3.9875    0.0994    0.0000 H   0  0  0  0  0  0  0  0  0  0  0  0
    7.2169   -1.9475    0.0000 H   0  0  0  0  0  0  0  0  0  0  0  0
    8.6659    0.5400    0.0000 H   0  0  0  0  0  0  0  0  0  0  0  0
   11.6082    2.7929    0.0000 H   0  0  0  0  0  0  0  0  0  0  0  0
    7.2169    1.3617    0.0000 H   0  0  0  0  0  0  0  0  0  0  0  0
    2.8660   -0.1729    0.0000 H   0  0  0  0  0  0  0  0  0  0  0  0
    4.2690   -2.6029    0.0000 H   0  0  0  0  0  0  0  0  0  0  0  0
    1.4631   -0.9829    0.0000 H   0  0  0  0  0  0  0  0  0  0  0  0
    2.8660   -3.4129    0.0000 H   0  0  0  0  0  0  0  0  0  0  0  0
    1.4631   -2.6029    0.0000 H   0  0  0  0  0  0  0  0  0  0  0  0
  1 12  1  0  0  0  0
  1 13  1  0  0  0  0
 13  2  1  6  0  0  0
  2 15  1  0  0  0  0
  9  3  1  6  0  0  0
  3 37  1  0  0  0  0
 10  4  1  1  0  0  0
  4 38  1  0  0  0  0
 11  5  1  1  0  0  0
  5 39  1  0  0  0  0
  6 14  1  0  0  0  0
  6 45  1  0  0  0  0
  7 16  1  0  0  0  0
  7 18  1  0  0  0  0
  8 21  2  0  0  0  0
  9 10  1  0  0  0  0
  9 11  1  0  0  0  0
  9 30  1  0  0  0  0
 10 12  1  0  0  0  0
 10 31  1  0  0  0  0
 11 13  1  0  0  0  0
 11 32  1  0  0  0  0
 12 14  1  6  0  0  0
 12 33  1  0  0  0  0
 13 34  1  0  0  0  0
 14 35  1  0  0  0  0
 14 36  1  0  0  0  0
 15 20  2  0  0  0  0
 15 22  1  0  0  0  0
 16 17  1  0  0  0  0
 16 24  1  0  0  0  0
 16 40  1  0  0  0  0
 17 21  1  0  0  0  0
 17 41  1  0  0  0  0
 17 42  1  0  0  0  0
 18 19  2  0  0  0  0
 18 20  1  0  0  0  0
 19 21  1  0  0  0  0
 19 23  1  0  0  0  0
 20 43  1  0  0  0  0
 22 23  2  0  0  0  0
 22 44  1  0  0  0  0
 23 46  1  0  0  0  0
 24 25  2  0  0  0  0
 24 26  1  0  0  0  0
 25 27  1  0  0  0  0
 25 47  1  0  0  0  0
 26 28  2  0  0  0  0
 26 48  1  0  0  0  0
 27 29  2  0  0  0  0
 27 49  1  0  0  0  0
 28 29  1  0  0  0  0
 28 50  1  0  0  0  0
 29 51  1  0  0  0  0
M  END
> <PUBCHEM_COMPOUND_CID>
440195

> <PUBCHEM_COMPOUND_CANONICALIZED>
1

> <PUBCHEM_CACTVS_COMPLEXITY>
565

> <PUBCHEM_CACTVS_HBOND_ACCEPTOR>
8

> <PUBCHEM_CACTVS_HBOND_DONOR>
4

> <PUBCHEM_CACTVS_ROTATABLE_BOND>
4

> <PUBCHEM_CACTVS_SUBSKEYS>
AAADceB4PAAAAAAAAAAAAAAAAAAAAAAAAAA0aIEAAAAAAACRQAAAGgAACAAADBSwmAMwDoAABgCIAqBSAAACCAAkIAAIiAEGCMgdNzaENRqieWCl4BUPqYfI7OzOIAAACAAIAABAAAAQABAAAAAAAAAAAA==

> <PUBCHEM_IUPAC_OPENEYE_NAME>
2-phenyl-7-[(2S,3R,4S,5S,6R)-3,4,5-trihydroxy-6-(hydroxymethyl)tetrahydropyran-2-yl]oxy-chroman-4-one

> <PUBCHEM_IUPAC_CAS_NAME>
2-phenyl-7-[[(2S,3R,4S,5S,6R)-3,4,5-trihydroxy-6-(hydroxymethyl)-2-oxanyl]oxy]-3,4-dihydro-2H-1-benzopyran-4-one

> <PUBCHEM_IUPAC_NAME>
2-phenyl-7-[(2S,3R,4S,5S,6R)-3,4,5-trihydroxy-6-(hydroxymethyl)oxan-2-yl]oxy-2,3-dihydrochromen-4-one

> <PUBCHEM_IUPAC_SYSTEMATIC_NAME>
7-[(2S,3R,4S,5S,6R)-6-(hydroxymethyl)-3,4,5-tris(oxidanyl)oxan-2-yl]oxy-2-phenyl-2,3-dihydrochromen-4-one

> <PUBCHEM_IUPAC_TRADITIONAL_NAME>
2-phenyl-7-[(2S,3R,4S,5S,6R)-3,4,5-trihydroxy-6-methylol-tetrahydropyran-2-yl]oxy-chroman-4-one

> <PUBCHEM_IUPAC_INCHI>
InChI=1S/C21H22O8/c22-10-17-18(24)19(25)20(26)21(29-17)27-12-6-7-13-14(23)9-15(28-16(13)8-12)11-4-2-1-3-5-11/h1-8,15,17-22,24-26H,9-10H2/t15?,17-,18-,19+,20-,21-/m1/s1

> <PUBCHEM_IUPAC_INCHIKEY>
HPMCYOSTTZQBAP-UZQFATADSA-N

> <PUBCHEM_XLOGP3_AA>
0.7

> <PUBCHEM_EXACT_MASS>
402.131468

> <PUBCHEM_MOLECULAR_FORMULA>
C21H22O8

> <PUBCHEM_MOLECULAR_WEIGHT>
402.39458

> <PUBCHEM_OPENEYE_CAN_SMILES>
C1C(OC2=C(C1=O)C=CC(=C2)OC3C(C(C(C(O3)CO)O)O)O)C4=CC=CC=C4

> <PUBCHEM_OPENEYE_ISO_SMILES>
C1C(OC2=C(C1=O)C=CC(=C2)O[C@H]3[C@@H]([C@H]([C@@H]([C@H](O3)CO)O)O)O)C4=CC=CC=C4

> <PUBCHEM_CACTVS_TPSA>
126

> <PUBCHEM_MONOISOTOPIC_WEIGHT>
402.131468

> <PUBCHEM_TOTAL_CHARGE>
0

> <PUBCHEM_HEAVY_ATOM_COUNT>
29

> <PUBCHEM_ATOM_DEF_STEREO_COUNT>
5

> <PUBCHEM_ATOM_UDEF_STEREO_COUNT>
1

> <PUBCHEM_BOND_DEF_STEREO_COUNT>
0

> <PUBCHEM_BOND_UDEF_STEREO_COUNT>
0

> <PUBCHEM_ISOTOPIC_ATOM_COUNT>
0

> <PUBCHEM_COMPONENT_COUNT>
1

> <PUBCHEM_CACTVS_TAUTO_COUNT>
2

> <PUBCHEM_COORDINATE_TYPE>
1
5
255

> <PUBCHEM_BONDANNOTATIONS>
12  14  6
15  20  8
15  22  8
16  40  3
18  19  8
18  20  8
19  23  8
13  2  6
22  23  8
24  25  8
24  26  8
25  27  8
26  28  8
27  29  8
28  29  8
9  3  6
10  4  5
11  5  5

$$$$

