   Color/Form
        White crystalline powder of starch-like appearance to eye and to
   touch
   from [1]HSDB

   Taste
        Bitter
   from [2]HSDB

   Melting Point
        219-221 deg C
   from [3]HSDB

   Octanol/Water Partition Coefficient
        log Kow = 0.98 (est)
   from [4]HSDB

   pH
        Saturated aq soln is neutral or slightly acid to litmus
   from [5]HSDB

   Solubilities

     * 1 part dissolves in about 900 parts water at 20 deg C, in 100 parts
       boiling water, in 60 parts ethyl alc, in 60 parts acetone;
       practically insol in ether, chloroform, benzene; freely sol in aq
       soln of ammonia and alkali hydroxides
     * In water, 1204 mg/L at 25 deg C

   from [6]HSDB

   Spectral Properties

     * INDEX OF REFRACTION: 1.5795 @ 25 DEG C/D
     * Max absorption (methanol): 214 nm (log epsilon= 4.193); 275 nm (log
       epsilon= 4.199); (methanol-KOH): 207.5 nm (log epsilon= 4.188); 260
       nm (log epsilon= 4.029); 315.5 nm (log epsilon= 4.037)
     * SADTLER REF NUMBER: 25719 (IR, PRISM)
     * IR: 1591 (Sadtler Research Laboratories IR Grating Collection)
     * UV: 9305 (Sadtler Research Laboratories Spectral Collection)
     * NMR: 8367 (Sadtler Research Laboratories Spectral Collection)
     * MASS: 52528 (NIST/EPA/MSDC Mass Spectral Database, 1990 version);
       241 (National Bureau of Standards)

   from [7]HSDB

   Vapor Pressure
        6.9X10-8 mm Hg at 25 deg C (est)
   from [8]HSDB

   Other Chemical/Physical Properties

     * Sensitive to light
     * Henry's Law constant = 1.1X10-9 atm-cu m/mol at 25 deg C (est)
     * Hydroxyl radical reaction rate constant = 8.9X10-11 cu cm/molec-sec
       at 25 deg C (est)

   from [9]HSDB

   Computed Properties
   Molecular Weight                  170.2321 [g/mol]
   Molecular Formula                 C[7]H[10]N[2]OS
   XLogP3-AA                         0.8
   H-Bond Donor                      2
   H-Bond Acceptor                   2
   Rotatable Bond Count              2
   Tautomer Count                    17
   Exact Mass                        170.051384
   MonoIsotopic Mass                 170.051384
   Topological Polar Surface Area    73.2
   Heavy Atom Count                  11
   Formal Charge                     0
   Complexity                        223
   Isotope Atom Count                0
   Defined Atom Stereocenter Count   0
   Undefined Atom Stereocenter Count 0
   Defined Bond Stereocenter Count   0
   Undefined Bond Stereocenter Count 0
   Covalently-Bonded Unit Count      1
   Feature 3D Acceptor Count         2
   Feature 3D Donor Count            2
   Feature 3D Hydrophobe Count       1
   Feature 3D Ring Count             1
   Effective Rotor Count             2
   Conformer Sampling RMSD           0.4
   CID Conformer Count               [10]9

References

   1. http://toxnet.nlm.nih.gov/cgi-bin/sis/search/r?dbs+hsdb:@term+@rn+@rel+51-52-5
   2. http://toxnet.nlm.nih.gov/cgi-bin/sis/search/r?dbs+hsdb:@term+@rn+@rel+51-52-5
   3. http://toxnet.nlm.nih.gov/cgi-bin/sis/search/r?dbs+hsdb:@term+@rn+@rel+51-52-5
   4. http://toxnet.nlm.nih.gov/cgi-bin/sis/search/r?dbs+hsdb:@term+@rn+@rel+51-52-5
   5. http://toxnet.nlm.nih.gov/cgi-bin/sis/search/r?dbs+hsdb:@term+@rn+@rel+51-52-5
   6. http://toxnet.nlm.nih.gov/cgi-bin/sis/search/r?dbs+hsdb:@term+@rn+@rel+51-52-5
   7. http://toxnet.nlm.nih.gov/cgi-bin/sis/search/r?dbs+hsdb:@term+@rn+@rel+51-52-5
   8. http://toxnet.nlm.nih.gov/cgi-bin/sis/search/r?dbs+hsdb:@term+@rn+@rel+51-52-5
   9. http://toxnet.nlm.nih.gov/cgi-bin/sis/search/r?dbs+hsdb:@term+@rn+@rel+51-52-5
  10. http://pubchem.ncbi.nlm.nih.gov/vw3d/vw3d.cgi?cid=657298
