   Color/Form
        Crystalline solid
   from [1]HSDB

   Melting Point
        106.5-107.5 deg C
   from [2]HSDB

   Dissociation Constants
        pKa= 4.52
   from [3]HSDB

   Octanol/Water Partition Coefficient
        log Kow= 4.12
   from [4]HSDB

   Solubilities

     * 2.5-6% in petroleum oils; sol in benzene, dimethylformamide; very
       slightly sol in water
     * Highly water soluble as alkali salts.
     * In water, 15 mg/l @ 25 deg C

   from [5]HSDB

   Spectral Properties
        Intense mass spectral peaks: 266 m/z (100%), 231 m/z (97%), 55 m/z
   (81%), 41 m/z (79%)
   from [6]HSDB

   Other Chemical/Physical Properties
        SOL IN WATER, ALCOHOL, CRYSTALS SOL IN WATER, ALCOHOL.
   from [7]HSDB

   Computed Properties
   Molecular Weight                  266.24996 [g/mol]
   Molecular Formula                 C[12]H[14]N[2]O[5]
   XLogP3                            4.3
   H-Bond Donor                      1
   H-Bond Acceptor                   5
   Rotatable Bond Count              1
   Tautomer Count                    4
   Exact Mass                        266.090272
   MonoIsotopic Mass                 266.090272
   Topological Polar Surface Area    112
   Heavy Atom Count                  19
   Formal Charge                     0
   Complexity                        345
   Isotope Atom Count                0
   Defined Atom Stereocenter Count   0
   Undefined Atom Stereocenter Count 0
   Defined Bond Stereocenter Count   0
   Undefined Bond Stereocenter Count 0
   Covalently-Bonded Unit Count      1
   Feature 3D Acceptor Count         4
   Feature 3D Donor Count            1
   Feature 3D Anion Count            2
   Feature 3D Ring Count             2
   Effective Rotor Count             4.2
   Conformer Sampling RMSD           0.6
   CID Conformer Count               [8]5

References

   1. http://toxnet.nlm.nih.gov/cgi-bin/sis/search/r?dbs+hsdb:@term+@rn+@rel+131-89-5
   2. http://toxnet.nlm.nih.gov/cgi-bin/sis/search/r?dbs+hsdb:@term+@rn+@rel+131-89-5
   3. http://toxnet.nlm.nih.gov/cgi-bin/sis/search/r?dbs+hsdb:@term+@rn+@rel+131-89-5
   4. http://toxnet.nlm.nih.gov/cgi-bin/sis/search/r?dbs+hsdb:@term+@rn+@rel+131-89-5
   5. http://toxnet.nlm.nih.gov/cgi-bin/sis/search/r?dbs+hsdb:@term+@rn+@rel+131-89-5
   6. http://toxnet.nlm.nih.gov/cgi-bin/sis/search/r?dbs+hsdb:@term+@rn+@rel+131-89-5
   7. http://toxnet.nlm.nih.gov/cgi-bin/sis/search/r?dbs+hsdb:@term+@rn+@rel+131-89-5
   8. http://pubchem.ncbi.nlm.nih.gov/vw3d/vw3d.cgi?cid=8540
