107850
  -OEChem-07051213012D

 72 73  0     1  0  0  0  0  0999 V2000
    2.5000    6.8326    0.0000 Cl  0  5  0  0  0  0  0  0  0  0  0  0
    0.0000    6.8326    0.0000 Cl  0  5  0  0  0  0  0  0  0  0  0  0
    9.0010   14.0826    0.0000 O   0  0  0  0  0  0  0  0  0  0  0  0
    7.2690    0.0826    0.0000 O   0  0  0  0  0  0  0  0  0  0  0  0
    9.8671   10.5826    0.0000 O   0  0  0  0  0  0  0  0  0  0  0  0
    6.4030    3.5826    0.0000 O   0  0  0  0  0  0  0  0  0  0  0  0
    9.0010   12.0826    0.0000 N   0  0  0  0  0  0  0  0  0  0  0  0
    7.2690    2.0826    0.0000 N   0  0  0  0  0  0  0  0  0  0  0  0
    8.1350    4.5826    0.0000 N   0  3  0  0  0  0  0  0  0  0  0  0
    8.1350    9.5826    0.0000 N   0  3  0  0  0  0  0  0  0  0  0  0
    6.4030    1.5826    0.0000 C   0  0  3  0  0  0  0  0  0  0  0  0
    8.1350    1.5826    0.0000 C   0  0  3  0  0  0  0  0  0  0  0  0
    8.1350   12.5826    0.0000 C   0  0  3  0  0  0  0  0  0  0  0  0
    9.8671   12.5826    0.0000 C   0  0  3  0  0  0  0  0  0  0  0  0
    9.8671   13.5826    0.0000 C   0  0  0  0  0  0  0  0  0  0  0  0
    8.1350   13.5826    0.0000 C   0  0  0  0  0  0  0  0  0  0  0  0
    8.1350    0.5826    0.0000 C   0  0  0  0  0  0  0  0  0  0  0  0
    6.4030    0.5826    0.0000 C   0  0  0  0  0  0  0  0  0  0  0  0
   10.7331   12.0826    0.0000 C   0  0  0  0  0  0  0  0  0  0  0  0
    7.2690   12.0826    0.0000 C   0  0  0  0  0  0  0  0  0  0  0  0
    9.0010    2.0826    0.0000 C   0  0  0  0  0  0  0  0  0  0  0  0
    5.5369    2.0826    0.0000 C   0  0  0  0  0  0  0  0  0  0  0  0
    9.0010   11.0826    0.0000 C   0  0  0  0  0  0  0  0  0  0  0  0
    7.2690    3.0826    0.0000 C   0  0  0  0  0  0  0  0  0  0  0  0
    8.1350   10.5826    0.0000 C   0  0  0  0  0  0  0  0  0  0  0  0
    8.1350    3.5826    0.0000 C   0  0  0  0  0  0  0  0  0  0  0  0
    7.2690    9.0826    0.0000 C   0  0  0  0  0  0  0  0  0  0  0  0
    7.2690    5.0826    0.0000 C   0  0  0  0  0  0  0  0  0  0  0  0
    9.0010    9.0826    0.0000 C   0  0  0  0  0  0  0  0  0  0  0  0
    9.0010    5.0826    0.0000 C   0  0  0  0  0  0  0  0  0  0  0  0
    8.1350    6.5826    0.0000 C   0  0  0  0  0  0  0  0  0  0  0  0
    8.1350    7.5826    0.0000 C   0  0  0  0  0  0  0  0  0  0  0  0
    7.2690    8.0826    0.0000 C   0  0  0  0  0  0  0  0  0  0  0  0
    7.2690    6.0826    0.0000 C   0  0  0  0  0  0  0  0  0  0  0  0
    9.0010    8.0826    0.0000 C   0  0  0  0  0  0  0  0  0  0  0  0
    9.0010    6.0826    0.0000 C   0  0  0  0  0  0  0  0  0  0  0  0
    6.4030    2.4326    0.0000 H   0  0  0  0  0  0  0  0  0  0  0  0
    8.1350    2.4326    0.0000 H   0  0  0  0  0  0  0  0  0  0  0  0
    8.1350   11.7326    0.0000 H   0  0  0  0  0  0  0  0  0  0  0  0
    9.8671   11.7326    0.0000 H   0  0  0  0  0  0  0  0  0  0  0  0
    5.7924    0.6903    0.0000 H   0  0  0  0  0  0  0  0  0  0  0  0
    6.1909    0.0000    0.0000 H   0  0  0  0  0  0  0  0  0  0  0  0
    8.3471    0.0000    0.0000 H   0  0  0  0  0  0  0  0  0  0  0  0
    8.7456    0.6903    0.0000 H   0  0  0  0  0  0  0  0  0  0  0  0
    7.9230   14.1652    0.0000 H   0  0  0  0  0  0  0  0  0  0  0  0
    7.5244   13.4749    0.0000 H   0  0  0  0  0  0  0  0  0  0  0  0
   10.4776   13.4749    0.0000 H   0  0  0  0  0  0  0  0  0  0  0  0
   10.0791   14.1652    0.0000 H   0  0  0  0  0  0  0  0  0  0  0  0
    5.8469    2.6196    0.0000 H   0  0  0  0  0  0  0  0  0  0  0  0
    5.0000    2.3926    0.0000 H   0  0  0  0  0  0  0  0  0  0  0  0
    5.2269    1.5457    0.0000 H   0  0  0  0  0  0  0  0  0  0  0  0
    9.3110    1.5457    0.0000 H   0  0  0  0  0  0  0  0  0  0  0  0
    9.5380    2.3926    0.0000 H   0  0  0  0  0  0  0  0  0  0  0  0
    8.6910    2.6196    0.0000 H   0  0  0  0  0  0  0  0  0  0  0  0
    6.9590   12.6195    0.0000 H   0  0  0  0  0  0  0  0  0  0  0  0
    6.7320   11.7726    0.0000 H   0  0  0  0  0  0  0  0  0  0  0  0
    7.5790   11.5457    0.0000 H   0  0  0  0  0  0  0  0  0  0  0  0
   10.4231   11.5457    0.0000 H   0  0  0  0  0  0  0  0  0  0  0  0
   11.2700   11.7726    0.0000 H   0  0  0  0  0  0  0  0  0  0  0  0
   11.0431   12.6195    0.0000 H   0  0  0  0  0  0  0  0  0  0  0  0
    7.9230   11.1652    0.0000 H   0  0  0  0  0  0  0  0  0  0  0  0
    7.5244   10.4749    0.0000 H   0  0  0  0  0  0  0  0  0  0  0  0
    8.3471    3.0000    0.0000 H   0  0  0  0  0  0  0  0  0  0  0  0
    8.7456    3.6903    0.0000 H   0  0  0  0  0  0  0  0  0  0  0  0
    6.7320    9.3926    0.0000 H   0  0  0  0  0  0  0  0  0  0  0  0
    6.7320    4.7726    0.0000 H   0  0  0  0  0  0  0  0  0  0  0  0
    9.5380    9.3926    0.0000 H   0  0  0  0  0  0  0  0  0  0  0  0
    9.5380    4.7726    0.0000 H   0  0  0  0  0  0  0  0  0  0  0  0
    6.7320    7.7726    0.0000 H   0  0  0  0  0  0  0  0  0  0  0  0
    6.7320    6.3926    0.0000 H   0  0  0  0  0  0  0  0  0  0  0  0
    9.5380    7.7726    0.0000 H   0  0  0  0  0  0  0  0  0  0  0  0
    9.5380    6.3926    0.0000 H   0  0  0  0  0  0  0  0  0  0  0  0
  3 15  1  0  0  0  0
  3 16  1  0  0  0  0
  4 17  1  0  0  0  0
  4 18  1  0  0  0  0
  5 23  2  0  0  0  0
  6 24  2  0  0  0  0
  7 13  1  0  0  0  0
  7 14  1  0  0  0  0
  7 23  1  0  0  0  0
  8 11  1  0  0  0  0
  8 12  1  0  0  0  0
  8 24  1  0  0  0  0
  9 26  1  0  0  0  0
  9 28  2  0  0  0  0
  9 30  1  0  0  0  0
 10 25  1  0  0  0  0
 10 27  2  0  0  0  0
 10 29  1  0  0  0  0
 11 18  1  0  0  0  0
 11 22  1  0  0  0  0
 11 37  1  0  0  0  0
 12 17  1  0  0  0  0
 12 21  1  0  0  0  0
 12 38  1  0  0  0  0
 13 16  1  0  0  0  0
 13 20  1  0  0  0  0
 13 39  1  0  0  0  0
 14 15  1  0  0  0  0
 14 19  1  0  0  0  0
 14 40  1  0  0  0  0
 15 47  1  0  0  0  0
 15 48  1  0  0  0  0
 16 45  1  0  0  0  0
 16 46  1  0  0  0  0
 17 43  1  0  0  0  0
 17 44  1  0  0  0  0
 18 41  1  0  0  0  0
 18 42  1  0  0  0  0
 19 58  1  0  0  0  0
 19 59  1  0  0  0  0
 19 60  1  0  0  0  0
 20 55  1  0  0  0  0
 20 56  1  0  0  0  0
 20 57  1  0  0  0  0
 21 52  1  0  0  0  0
 21 53  1  0  0  0  0
 21 54  1  0  0  0  0
 22 49  1  0  0  0  0
 22 50  1  0  0  0  0
 22 51  1  0  0  0  0
 23 25  1  0  0  0  0
 24 26  1  0  0  0  0
 25 61  1  0  0  0  0
 25 62  1  0  0  0  0
 26 63  1  0  0  0  0
 26 64  1  0  0  0  0
 27 33  1  0  0  0  0
 27 65  1  0  0  0  0
 28 34  1  0  0  0  0
 28 66  1  0  0  0  0
 29 35  2  0  0  0  0
 29 67  1  0  0  0  0
 30 36  2  0  0  0  0
 30 68  1  0  0  0  0
 31 32  1  0  0  0  0
 31 34  2  0  0  0  0
 31 36  1  0  0  0  0
 32 33  2  0  0  0  0
 32 35  1  0  0  0  0
 33 69  1  0  0  0  0
 34 70  1  0  0  0  0
 35 71  1  0  0  0  0
 36 72  1  0  0  0  0
M  CHG  4   1  -1   2  -1   9   1  10   1
M  END
> <PUBCHEM_COMPOUND_CID>
107850

> <PUBCHEM_COMPOUND_CANONICALIZED>
1

> <PUBCHEM_CACTVS_COMPLEXITY>
612

> <PUBCHEM_CACTVS_HBOND_ACCEPTOR>
6

> <PUBCHEM_CACTVS_HBOND_DONOR>
0

> <PUBCHEM_CACTVS_ROTATABLE_BOND>
5

> <PUBCHEM_CACTVS_SUBSKEYS>
AAADcfB7uAAGAAAAAAAAAAAAAAAAAAAAAAAsWLFgAAAAAAAB4AAAHgAAAAAADCjhmgY+gJMMFACoAjF3VACCgCAxAiAI2CC4ZJgKYGLAkbGXIAhghgDYyAcQAAAOgAAAAAAAAAAAAAAAAAAAAAAAAAAAAA==

> <PUBCHEM_IUPAC_OPENEYE_NAME>
1-(3,5-dimethylmorpholin-4-yl)-2-[4-[1-[2-(3,5-dimethylmorpholin-4-yl)-2-oxo-ethyl]pyridin-1-ium-4-yl]pyridin-1-ium-1-yl]ethanone dichloride

> <PUBCHEM_IUPAC_CAS_NAME>
1-(3,5-dimethyl-4-morpholinyl)-2-[4-[1-[2-(3,5-dimethyl-4-morpholinyl)-2-oxoethyl]-4-pyridin-1-iumyl]-1-pyridin-1-iumyl]ethanone dichloride

> <PUBCHEM_IUPAC_NAME>
1-(3,5-dimethylmorpholin-4-yl)-2-[4-[1-[2-(3,5-dimethylmorpholin-4-yl)-2-oxoethyl]pyridin-1-ium-4-yl]pyridin-1-ium-1-yl]ethanone dichloride

> <PUBCHEM_IUPAC_SYSTEMATIC_NAME>
1-(3,5-dimethylmorpholin-4-yl)-2-[4-[1-[2-(3,5-dimethylmorpholin-4-yl)-2-oxidanylidene-ethyl]pyridin-1-ium-4-yl]pyridin-1-ium-1-yl]ethanone dichloride

> <PUBCHEM_IUPAC_TRADITIONAL_NAME>
1-(3,5-dimethylmorpholino)-2-[4-[1-[2-(3,5-dimethylmorpholino)-2-keto-ethyl]pyridin-1-ium-4-yl]pyridin-1-ium-1-yl]ethanone dichloride

> <PUBCHEM_IUPAC_INCHI>
InChI=1S/C26H36N4O4.2ClH/c1-19-15-33-16-20(2)29(19)25(31)13-27-9-5-23(6-10-27)24-7-11-28(12-8-24)14-26(32)30-21(3)17-34-18-22(30)4;;/h5-12,19-22H,13-18H2,1-4H3;2*1H/q+2;;/p-2

> <PUBCHEM_IUPAC_INCHIKEY>
LVPGGWVHPIAEMC-UHFFFAOYSA-L

> <PUBCHEM_EXACT_MASS>
538.211361

> <PUBCHEM_MOLECULAR_FORMULA>
C26H36Cl2N4O4

> <PUBCHEM_MOLECULAR_WEIGHT>
539.49444

> <PUBCHEM_OPENEYE_CAN_SMILES>
CC1COCC(N1C(=O)C[N+]2=CC=C(C=C2)C3=CC=[N+](C=C3)CC(=O)N4C(COCC4C)C)C.[Cl-].[Cl-]

> <PUBCHEM_OPENEYE_ISO_SMILES>
CC1COCC(N1C(=O)C[N+]2=CC=C(C=C2)C3=CC=[N+](C=C3)CC(=O)N4C(COCC4C)C)C.[Cl-].[Cl-]

> <PUBCHEM_CACTVS_TPSA>
66.8

> <PUBCHEM_MONOISOTOPIC_WEIGHT>
538.211361

> <PUBCHEM_TOTAL_CHARGE>
0

> <PUBCHEM_HEAVY_ATOM_COUNT>
36

> <PUBCHEM_ATOM_DEF_STEREO_COUNT>
0

> <PUBCHEM_ATOM_UDEF_STEREO_COUNT>
4

> <PUBCHEM_BOND_DEF_STEREO_COUNT>
0

> <PUBCHEM_BOND_UDEF_STEREO_COUNT>
0

> <PUBCHEM_ISOTOPIC_ATOM_COUNT>
0

> <PUBCHEM_COMPONENT_COUNT>
3

> <PUBCHEM_CACTVS_TAUTO_COUNT>
1

> <PUBCHEM_COORDINATE_TYPE>
1
5
255

> <PUBCHEM_BONDANNOTATIONS>
10  27  8
10  29  8
11  37  3
12  38  3
13  39  3
14  40  3
27  33  8
28  34  8
29  35  8
30  36  8
31  34  8
31  36  8
32  33  8
32  35  8
9  28  8
9  30  8

$$$$

