   Color/Form
        Straw-colored liquid
   from [1]HSDB

   Boiling Point
        Decomposes on distillation
   from [2]HSDB

   Density/Specific Gravity
        1.17 @ 20 deg C
   from [3]HSDB

   Dissociation Constants
        pKa = 3.71
   from [4]HSDB

   Octanol/Water Partition Coefficient
        log Kow = 4.12
   from [5]HSDB

   Solubilities

     * Miscible most organic solvents (e.g., alcohols, ketones,
       halogenated hydrocarbons)
     * In water, 8.6 mg/l @ 20 deg C

   from [6]HSDB

   Vapor Pressure
        1.50X10-5 mg Hg @ 20 deg C
   from [7]HSDB

   Other Chemical/Physical Properties
        MP: 15-18 deg C /Technical/
   from [8]HSDB

   Computed Properties
   Molecular Weight                  305.333562 [g/mol]
   Molecular Formula                 C[11]H[20]N[3]O[3]PS
   XLogP3                            4.2
   H-Bond Donor                      0
   H-Bond Acceptor                   7
   Rotatable Bond Count              7
   Exact Mass                        305.096299
   MonoIsotopic Mass                 305.096299
   Topological Polar Surface Area    88.8
   Heavy Atom Count                  19
   Formal Charge                     0
   Complexity                        310
   Isotope Atom Count                0
   Defined Atom Stereocenter Count   0
   Undefined Atom Stereocenter Count 0
   Defined Bond Stereocenter Count   0
   Undefined Bond Stereocenter Count 0
   Covalently-Bonded Unit Count      1
   Feature 3D Cation Count           1
   Feature 3D Ring Count             1
   Effective Rotor Count             7
   Conformer Sampling RMSD           0.8
   CID Conformer Count               [9]112

References

   1. http://toxnet.nlm.nih.gov/cgi-bin/sis/search/r?dbs+hsdb:@term+@rn+@rel+29232-93-7
   2. http://toxnet.nlm.nih.gov/cgi-bin/sis/search/r?dbs+hsdb:@term+@rn+@rel+29232-93-7
   3. http://toxnet.nlm.nih.gov/cgi-bin/sis/search/r?dbs+hsdb:@term+@rn+@rel+29232-93-7
   4. http://toxnet.nlm.nih.gov/cgi-bin/sis/search/r?dbs+hsdb:@term+@rn+@rel+29232-93-7
   5. http://toxnet.nlm.nih.gov/cgi-bin/sis/search/r?dbs+hsdb:@term+@rn+@rel+29232-93-7
   6. http://toxnet.nlm.nih.gov/cgi-bin/sis/search/r?dbs+hsdb:@term+@rn+@rel+29232-93-7
   7. http://toxnet.nlm.nih.gov/cgi-bin/sis/search/r?dbs+hsdb:@term+@rn+@rel+29232-93-7
   8. http://toxnet.nlm.nih.gov/cgi-bin/sis/search/r?dbs+hsdb:@term+@rn+@rel+29232-93-7
   9. http://pubchem.ncbi.nlm.nih.gov/vw3d/vw3d.cgi?cid=34526
