5360001
  -OEChem-07051212492D

 21 22  0     0  0  0  0  0  0999 V2000
    2.8660    2.4050    0.0000 O   0  0  0  0  0  0  0  0  0  0  0  0
    2.0000   -2.0950    0.0000 O   0  0  0  0  0  0  0  0  0  0  0  0
    2.8660    1.4050    0.0000 N   0  0  0  0  0  0  0  0  0  0  0  0
    2.8660   -1.5950    0.0000 N   0  0  0  0  0  0  0  0  0  0  0  0
    3.7320   -0.0950    0.0000 C   0  0  0  0  0  0  0  0  0  0  0  0
    3.7320    0.9050    0.0000 C   0  0  0  0  0  0  0  0  0  0  0  0
    2.8660   -0.5950    0.0000 C   0  0  0  0  0  0  0  0  0  0  0  0
    4.6260   -0.6297    0.0000 C   0  0  0  0  0  0  0  0  0  0  0  0
    4.6260    1.4397    0.0000 C   0  0  0  0  0  0  0  0  0  0  0  0
    2.0000   -0.0950    0.0000 C   0  0  0  0  0  0  0  0  0  0  0  0
    2.0000    0.9050    0.0000 C   0  0  0  0  0  0  0  0  0  0  0  0
    5.5321   -0.1158    0.0000 C   0  0  0  0  0  0  0  0  0  0  0  0
    5.5321    0.9258    0.0000 C   0  0  0  0  0  0  0  0  0  0  0  0
    4.6188   -1.2496    0.0000 H   0  0  0  0  0  0  0  0  0  0  0  0
    4.6188    2.0596    0.0000 H   0  0  0  0  0  0  0  0  0  0  0  0
    1.4631   -0.4050    0.0000 H   0  0  0  0  0  0  0  0  0  0  0  0
    1.4631    1.2150    0.0000 H   0  0  0  0  0  0  0  0  0  0  0  0
    6.0678   -0.4279    0.0000 H   0  0  0  0  0  0  0  0  0  0  0  0
    6.0678    1.2379    0.0000 H   0  0  0  0  0  0  0  0  0  0  0  0
    2.3291    2.7150    0.0000 H   0  0  0  0  0  0  0  0  0  0  0  0
    2.0000   -2.7150    0.0000 H   0  0  0  0  0  0  0  0  0  0  0  0
  1  3  1  0  0  0  0
  1 20  1  0  0  0  0
  2  4  1  0  0  0  0
  2 21  1  0  0  0  0
  3  6  1  0  0  0  0
  3 11  1  0  0  0  0
  4  7  2  0  0  0  0
  5  6  1  0  0  0  0
  5  7  1  0  0  0  0
  5  8  2  0  0  0  0
  6  9  2  0  0  0  0
  7 10  1  0  0  0  0
  8 12  1  0  0  0  0
  8 14  1  0  0  0  0
  9 13  1  0  0  0  0
  9 15  1  0  0  0  0
 10 11  2  0  0  0  0
 10 16  1  0  0  0  0
 11 17  1  0  0  0  0
 12 13  2  0  0  0  0
 12 18  1  0  0  0  0
 13 19  1  0  0  0  0
M  END
> <PUBCHEM_COMPOUND_CID>
5360001

> <PUBCHEM_COMPOUND_CANONICALIZED>
1

> <PUBCHEM_CACTVS_COMPLEXITY>
250

> <PUBCHEM_CACTVS_HBOND_ACCEPTOR>
4

> <PUBCHEM_CACTVS_HBOND_DONOR>
2

> <PUBCHEM_CACTVS_ROTATABLE_BOND>
0

> <PUBCHEM_CACTVS_SUBSKEYS>
AAADccBzMAAAAAAAAAAAAAAAAAAAAAAAAAAwQAAAAAAAAACBAAAAHAAECAAADAjBGAQwwIIQAACgAyRmQACCAAAhAgAoiAA4ZJgIIKLAkZGEIAhggABIyAcQgIAOAAAAAAACAAAAAAAAAAQAAAAAAAAAAA==

> <PUBCHEM_IUPAC_OPENEYE_NAME>
1-hydroxyquinolin-4-one oxime

> <PUBCHEM_IUPAC_CAS_NAME>
1-hydroxy-4-quinolinone oxime

> <PUBCHEM_IUPAC_NAME>
(NE)-N-(1-hydroxyquinolin-4-ylidene)hydroxylamine

> <PUBCHEM_IUPAC_SYSTEMATIC_NAME>
(NE)-N-(1-oxidanylquinolin-4-ylidene)hydroxylamine

> <PUBCHEM_IUPAC_TRADITIONAL_NAME>
1-hydroxyquinolin-4-one oxime

> <PUBCHEM_IUPAC_INCHI>
InChI=1S/C9H8N2O2/c12-10-8-5-6-11(13)9-4-2-1-3-7(8)9/h1-6,12-13H/b10-8+

> <PUBCHEM_IUPAC_INCHIKEY>
KCGKBOFRVKLKOO-CSKARUKUSA-N

> <PUBCHEM_XLOGP3_AA>
1.5

> <PUBCHEM_EXACT_MASS>
176.058578

> <PUBCHEM_MOLECULAR_FORMULA>
C9H8N2O2

> <PUBCHEM_MOLECULAR_WEIGHT>
176.17202

> <PUBCHEM_OPENEYE_CAN_SMILES>
C1=CC=C2C(=C1)C(=NO)C=CN2O

> <PUBCHEM_OPENEYE_ISO_SMILES>
C1=CC=C2C(=C1)/C(=N/O)/C=CN2O

> <PUBCHEM_CACTVS_TPSA>
56.1

> <PUBCHEM_MONOISOTOPIC_WEIGHT>
176.058578

> <PUBCHEM_TOTAL_CHARGE>
0

> <PUBCHEM_HEAVY_ATOM_COUNT>
13

> <PUBCHEM_ATOM_DEF_STEREO_COUNT>
0

> <PUBCHEM_ATOM_UDEF_STEREO_COUNT>
0

> <PUBCHEM_BOND_DEF_STEREO_COUNT>
1

> <PUBCHEM_BOND_UDEF_STEREO_COUNT>
0

> <PUBCHEM_ISOTOPIC_ATOM_COUNT>
0

> <PUBCHEM_COMPONENT_COUNT>
1

> <PUBCHEM_CACTVS_TAUTO_COUNT>
2

> <PUBCHEM_COORDINATE_TYPE>
1
5
255

> <PUBCHEM_BONDANNOTATIONS>
10  11  8
12  13  8
3  11  8
3  6  8
5  6  8
5  7  8
5  8  8
6  9  8
7  10  8
8  12  8
9  13  8

$$$$

