79325
  -OEChem-07051212522D

 18 18  0     0  0  0  0  0  0999 V2000
    3.0000    1.5950    0.0000 S   0  0  0  0  0  0  0  0  0  0  0  0
    3.0000    2.5950    0.0000 O   0  0  0  0  0  0  0  0  0  0  0  0
    4.0000    1.5950    0.0000 O   0  0  0  0  0  0  0  0  0  0  0  0
    2.0000    1.5950    0.0000 O   0  0  0  0  0  0  0  0  0  0  0  0
    2.1340   -2.9050    0.0000 O   0  0  0  0  0  0  0  0  0  0  0  0
    3.0000    0.5950    0.0000 C   0  0  0  0  0  0  0  0  0  0  0  0
    2.1340    0.0950    0.0000 C   0  0  0  0  0  0  0  0  0  0  0  0
    3.8660    0.0950    0.0000 C   0  0  0  0  0  0  0  0  0  0  0  0
    3.0000   -1.4050    0.0000 C   0  0  0  0  0  0  0  0  0  0  0  0
    2.1340   -0.9050    0.0000 C   0  0  0  0  0  0  0  0  0  0  0  0
    3.8660   -0.9050    0.0000 C   0  0  0  0  0  0  0  0  0  0  0  0
    3.0000   -2.4050    0.0000 C   0  0  0  0  0  0  0  0  0  0  0  0
    1.5970    0.4050    0.0000 H   0  0  0  0  0  0  0  0  0  0  0  0
    4.4030    0.4050    0.0000 H   0  0  0  0  0  0  0  0  0  0  0  0
    1.5970   -1.2150    0.0000 H   0  0  0  0  0  0  0  0  0  0  0  0
    4.4030   -1.2150    0.0000 H   0  0  0  0  0  0  0  0  0  0  0  0
    3.5369   -2.7150    0.0000 H   0  0  0  0  0  0  0  0  0  0  0  0
    3.5369    2.9050    0.0000 H   0  0  0  0  0  0  0  0  0  0  0  0
  1  2  1  0  0  0  0
  1  3  2  0  0  0  0
  1  4  2  0  0  0  0
  1  6  1  0  0  0  0
  2 18  1  0  0  0  0
  5 12  2  0  0  0  0
  6  7  2  0  0  0  0
  6  8  1  0  0  0  0
  7 10  1  0  0  0  0
  7 13  1  0  0  0  0
  8 11  2  0  0  0  0
  8 14  1  0  0  0  0
  9 10  2  0  0  0  0
  9 11  1  0  0  0  0
  9 12  1  0  0  0  0
 10 15  1  0  0  0  0
 11 16  1  0  0  0  0
 12 17  1  0  0  0  0
M  END
> <PUBCHEM_COMPOUND_CID>
79325

> <PUBCHEM_COMPOUND_CANONICALIZED>
1

> <PUBCHEM_CACTVS_COMPLEXITY>
243

> <PUBCHEM_CACTVS_HBOND_ACCEPTOR>
4

> <PUBCHEM_CACTVS_HBOND_DONOR>
1

> <PUBCHEM_CACTVS_ROTATABLE_BOND>
2

> <PUBCHEM_CACTVS_SUBSKEYS>
AAADcYBgOABAAAAAAAAAAAAAAAAAAAAAAAAwAAAAAAAAAAABAAAAGgQACAAADACg2AIwAYAAAIKIAihSgHBCAEAkAAAIiBkAAMgIIDKAFRCAIQAggAAIiYcIiACOEAAAAAAAAAAgAAAAAAAAAAAAAAAAAA==

> <PUBCHEM_IUPAC_OPENEYE_NAME>
4-formylbenzenesulfonic acid

> <PUBCHEM_IUPAC_CAS_NAME>
4-formylbenzenesulfonic acid

> <PUBCHEM_IUPAC_NAME>
4-formylbenzenesulfonic acid

> <PUBCHEM_IUPAC_SYSTEMATIC_NAME>
4-methanoylbenzenesulfonic acid

> <PUBCHEM_IUPAC_TRADITIONAL_NAME>
4-formylbesylic acid

> <PUBCHEM_IUPAC_INCHI>
InChI=1S/C7H6O4S/c8-5-6-1-3-7(4-2-6)12(9,10)11/h1-5H,(H,9,10,11)

> <PUBCHEM_IUPAC_INCHIKEY>
XSAOGXMGZVFIIE-UHFFFAOYSA-N

> <PUBCHEM_XLOGP3_AA>
0.1

> <PUBCHEM_EXACT_MASS>
185.99868

> <PUBCHEM_MOLECULAR_FORMULA>
C7H6O4S

> <PUBCHEM_MOLECULAR_WEIGHT>
186.18514

> <PUBCHEM_OPENEYE_CAN_SMILES>
C1=CC(=CC=C1C=O)S(=O)(=O)O

> <PUBCHEM_OPENEYE_ISO_SMILES>
C1=CC(=CC=C1C=O)S(=O)(=O)O

> <PUBCHEM_CACTVS_TPSA>
79.8

> <PUBCHEM_MONOISOTOPIC_WEIGHT>
185.99868

> <PUBCHEM_TOTAL_CHARGE>
0

> <PUBCHEM_HEAVY_ATOM_COUNT>
12

> <PUBCHEM_ATOM_DEF_STEREO_COUNT>
0

> <PUBCHEM_ATOM_UDEF_STEREO_COUNT>
0

> <PUBCHEM_BOND_DEF_STEREO_COUNT>
0

> <PUBCHEM_BOND_UDEF_STEREO_COUNT>
0

> <PUBCHEM_ISOTOPIC_ATOM_COUNT>
0

> <PUBCHEM_COMPONENT_COUNT>
1

> <PUBCHEM_CACTVS_TAUTO_COUNT>
1

> <PUBCHEM_COORDINATE_TYPE>
1
5
255

> <PUBCHEM_BONDANNOTATIONS>
6  7  8
6  8  8
7  10  8
8  11  8
9  10  8
9  11  8

$$$$

