   Color/Form
        White to off-white powder
   from [1]HSDB

   Melting Point
        256 deg C
   from [2]HSDB

   Octanol/Water Partition Coefficient
        log Kow = -4.66 (est)
   from [3]HSDB

   Solubilities
        In water, 18,000 mg/L at 25 deg C
   from [4]HSDB

   Spectral Properties
        Specific optical rotation (0.9% in water): +40.9 deg at 20 deg C/D
   from [5]HSDB

   Vapor Pressure
        4.4X10-18 mm Hg at 25 deg C (est)
   from [6]HSDB

   Other Chemical/Physical Properties

     * Colorless crystals /Sesquihydrate/
     * Henry's Law constant = 4.6X10-30 atm-cu m/mol at 25 deg C (est)
     * Hydroxyl radical reaction rate constant = 2.1X10-10 cu cm/molec-sec
       at 25 deg C (est)
     * Zwitterionic at physiological pH.

   from [7]HSDB

   Computed Properties
   Molecular Weight                  332.3098 [g/mol]
   Molecular Formula                 C[12]H[20]N[4]O[7]
   XLogP3-AA                         -3.2
   H-Bond Donor                      7
   H-Bond Acceptor                   8
   Rotatable Bond Count              6
   Tautomer Count                    4
   Exact Mass                        332.133199
   MonoIsotopic Mass                 332.133199
   Topological Polar Surface Area    201
   Heavy Atom Count                  23
   Formal Charge                     0
   Complexity                        518
   Isotope Atom Count                0
   Defined Atom Stereocenter Count   5
   Undefined Atom Stereocenter Count 0
   Defined Bond Stereocenter Count   0
   Undefined Bond Stereocenter Count 0
   Covalently-Bonded Unit Count      1
   Feature 3D Acceptor Count         7
   Feature 3D Donor Count            6
   Feature 3D Anion Count            1
   Feature 3D Cation Count           1
   Feature 3D Ring Count             1
   Effective Rotor Count             7.8
   Conformer Sampling RMSD           0.8
   CID Conformer Count               [8]50

References

   1. http://toxnet.nlm.nih.gov/cgi-bin/sis/search/r?dbs+hsdb:@term+@rn+@rel+139110-80-8
   2. http://toxnet.nlm.nih.gov/cgi-bin/sis/search/r?dbs+hsdb:@term+@rn+@rel+139110-80-8
   3. http://toxnet.nlm.nih.gov/cgi-bin/sis/search/r?dbs+hsdb:@term+@rn+@rel+139110-80-8
   4. http://toxnet.nlm.nih.gov/cgi-bin/sis/search/r?dbs+hsdb:@term+@rn+@rel+139110-80-8
   5. http://toxnet.nlm.nih.gov/cgi-bin/sis/search/r?dbs+hsdb:@term+@rn+@rel+139110-80-8
   6. http://toxnet.nlm.nih.gov/cgi-bin/sis/search/r?dbs+hsdb:@term+@rn+@rel+139110-80-8
   7. http://toxnet.nlm.nih.gov/cgi-bin/sis/search/r?dbs+hsdb:@term+@rn+@rel+139110-80-8
   8. http://pubchem.ncbi.nlm.nih.gov/vw3d/vw3d.cgi?cid=60855
