5281393
  -OEChem-07051212562D

 56 57  0     1  0  0  0  0  0999 V2000
    4.0595   -0.0229    0.0000 O   0  0  0  0  0  0  0  0  0  0  0  0
    5.2446    3.9490    0.0000 O   0  0  0  0  0  0  0  0  0  0  0  0
    8.5906   -1.1847    0.0000 O   0  0  0  0  0  0  0  0  0  0  0  0
    7.4841   -3.5879    0.0000 O   0  0  0  0  0  0  0  0  0  0  0  0
    5.3388    1.1447    0.0000 C   0  0  2  0  0  0  0  0  0  0  0  0
    4.3911    1.4447    0.0000 C   0  0  2  0  0  0  0  0  0  0  0  0
    4.3861    2.4447    0.0000 C   0  0  2  0  0  0  0  0  0  0  0  0
    5.9184    1.9523    0.0000 C   0  0  1  0  0  0  0  0  0  0  0  0
    5.3308    2.7541    0.0000 C   0  0  0  0  0  0  0  0  0  0  0  0
    3.6124    0.8173    0.0000 C   0  0  0  0  0  0  0  0  0  0  0  0
    6.1518    0.5623    0.0000 C   0  0  0  0  0  0  0  0  0  0  0  0
    3.6012    3.0643    0.0000 C   0  0  0  0  0  0  0  0  0  0  0  0
    5.0362    0.1916    0.0000 C   0  0  0  0  0  0  0  0  0  0  0  0
    6.9184    1.9573    0.0000 C   0  0  0  0  0  0  0  0  0  0  0  0
    4.3811    3.4447    0.0000 C   0  0  0  0  0  0  0  0  0  0  0  0
    2.6364    1.0350    0.0000 C   0  0  0  0  0  0  0  0  0  0  0  0
    2.6274    2.8369    0.0000 C   0  0  0  0  0  0  0  0  0  0  0  0
    6.0539   -0.4329    0.0000 C   0  0  0  0  0  0  0  0  0  0  0  0
    2.1980    1.9338    0.0000 C   0  0  0  0  0  0  0  0  0  0  0  0
    2.0000    3.6156    0.0000 C   0  0  0  0  0  0  0  0  0  0  0  0
    6.8669   -1.0152    0.0000 C   0  0  0  0  0  0  0  0  0  0  0  0
    7.7777   -0.6023    0.0000 C   0  0  0  0  0  0  0  0  0  0  0  0
    6.7690   -2.0104    0.0000 C   0  0  0  0  0  0  0  0  0  0  0  0
    7.5820   -2.5927    0.0000 C   0  0  0  0  0  0  0  0  0  0  0  0
    4.5481    0.6093    0.0000 H   0  0  0  0  0  0  0  0  0  0  0  0
    6.2029    1.4014    0.0000 H   0  0  0  0  0  0  0  0  0  0  0  0
    5.8666    3.0660    0.0000 H   0  0  0  0  0  0  0  0  0  0  0  0
    5.0770    3.3198    0.0000 H   0  0  0  0  0  0  0  0  0  0  0  0
    3.3462    0.2574    0.0000 H   0  0  0  0  0  0  0  0  0  0  0  0
    4.0990    0.4332    0.0000 H   0  0  0  0  0  0  0  0  0  0  0  0
    6.7489    0.3955    0.0000 H   0  0  0  0  0  0  0  0  0  0  0  0
    6.4198    1.1214    0.0000 H   0  0  0  0  0  0  0  0  0  0  0  0
    4.0840    3.4532    0.0000 H   0  0  0  0  0  0  0  0  0  0  0  0
    3.3294    3.6215    0.0000 H   0  0  0  0  0  0  0  0  0  0  0  0
    5.0620   -0.4279    0.0000 H   0  0  0  0  0  0  0  0  0  0  0  0
    5.6507    0.1094    0.0000 H   0  0  0  0  0  0  0  0  0  0  0  0
    6.9215    1.3373    0.0000 H   0  0  0  0  0  0  0  0  0  0  0  0
    7.5384    1.9604    0.0000 H   0  0  0  0  0  0  0  0  0  0  0  0
    6.9153    2.5773    0.0000 H   0  0  0  0  0  0  0  0  0  0  0  0
    3.8427    3.7520    0.0000 H   0  0  0  0  0  0  0  0  0  0  0  0
    2.0326    0.8940    0.0000 H   0  0  0  0  0  0  0  0  0  0  0  0
    2.6395    0.4150    0.0000 H   0  0  0  0  0  0  0  0  0  0  0  0
    5.4568   -0.2660    0.0000 H   0  0  0  0  0  0  0  0  0  0  0  0
    5.7859   -0.9919    0.0000 H   0  0  0  0  0  0  0  0  0  0  0  0
    1.5780    1.9307    0.0000 H   0  0  0  0  0  0  0  0  0  0  0  0
    3.8719   -0.6138    0.0000 H   0  0  0  0  0  0  0  0  0  0  0  0
    2.4828    4.0046    0.0000 H   0  0  0  0  0  0  0  0  0  0  0  0
    1.6110    4.0984    0.0000 H   0  0  0  0  0  0  0  0  0  0  0  0
    1.5172    3.2266    0.0000 H   0  0  0  0  0  0  0  0  0  0  0  0
    8.2208   -0.1687    0.0000 H   0  0  0  0  0  0  0  0  0  0  0  0
    7.4275   -0.0907    0.0000 H   0  0  0  0  0  0  0  0  0  0  0  0
    6.2043   -2.2664    0.0000 H   0  0  0  0  0  0  0  0  0  0  0  0
    8.1791   -2.7596    0.0000 H   0  0  0  0  0  0  0  0  0  0  0  0
    7.8500   -2.0337    0.0000 H   0  0  0  0  0  0  0  0  0  0  0  0
    9.1553   -0.9287    0.0000 H   0  0  0  0  0  0  0  0  0  0  0  0
    7.9882   -3.9490    0.0000 H   0  0  0  0  0  0  0  0  0  0  0  0
  1 13  1  0  0  0  0
  1 46  1  0  0  0  0
  2 15  2  0  0  0  0
  3 22  1  0  0  0  0
  3 55  1  0  0  0  0
  4 24  1  0  0  0  0
  4 56  1  0  0  0  0
  5  6  1  0  0  0  0
  5  8  1  0  0  0  0
  5 11  1  6  0  0  0
  5 13  1  0  0  0  0
  6  7  1  0  0  0  0
  6 10  1  0  0  0  0
  6 25  1  6  0  0  0
  7  9  1  0  0  0  0
  7 12  1  0  0  0  0
  7 15  1  6  0  0  0
  8  9  1  0  0  0  0
  8 14  1  1  0  0  0
  8 26  1  0  0  0  0
  9 27  1  0  0  0  0
  9 28  1  0  0  0  0
 10 16  1  0  0  0  0
 10 29  1  0  0  0  0
 10 30  1  0  0  0  0
 11 18  1  0  0  0  0
 11 31  1  0  0  0  0
 11 32  1  0  0  0  0
 12 17  1  0  0  0  0
 12 33  1  0  0  0  0
 12 34  1  0  0  0  0
 13 35  1  0  0  0  0
 13 36  1  0  0  0  0
 14 37  1  0  0  0  0
 14 38  1  0  0  0  0
 14 39  1  0  0  0  0
 15 40  1  0  0  0  0
 16 19  1  0  0  0  0
 16 41  1  0  0  0  0
 16 42  1  0  0  0  0
 17 19  2  0  0  0  0
 17 20  1  0  0  0  0
 18 21  1  0  0  0  0
 18 43  1  0  0  0  0
 18 44  1  0  0  0  0
 19 45  1  0  0  0  0
 20 47  1  0  0  0  0
 20 48  1  0  0  0  0
 20 49  1  0  0  0  0
 21 22  1  0  0  0  0
 21 23  2  0  0  0  0
 22 50  1  0  0  0  0
 22 51  1  0  0  0  0
 23 24  1  0  0  0  0
 23 52  1  0  0  0  0
 24 53  1  0  0  0  0
 24 54  1  0  0  0  0
M  END
> <PUBCHEM_COMPOUND_CID>
5281393

> <PUBCHEM_COMPOUND_CANONICALIZED>
1

> <PUBCHEM_CACTVS_COMPLEXITY>
510

> <PUBCHEM_CACTVS_HBOND_ACCEPTOR>
4

> <PUBCHEM_CACTVS_HBOND_DONOR>
3

> <PUBCHEM_CACTVS_ROTATABLE_BOND>
7

> <PUBCHEM_CACTVS_SUBSKEYS>
AAADcfB4OAAAAAAAAAAAAAAAAAAAAYAAAAAAAAAABAAAAACAAAAAGgAACAAADwCggAICAAAAAgCIAihSgAAAAAAgAAAACAEAAAgAFBIAAQAAUAAEgAAIEAOIzPCPgAAAAAAAAAAAAAAAAAAAAQAACAAAAA==

> <PUBCHEM_IUPAC_OPENEYE_NAME>
(1R,2R,3aS,8aR)-1-[(Z)-5-hydroxy-3-(hydroxymethyl)pent-3-enyl]-1-(hydroxymethyl)-2,5-dimethyl-2,3,4,7,8,8a-hexahydroazulene-3a-carbaldehyde

> <PUBCHEM_IUPAC_CAS_NAME>
(1R,2R,3aS,8aR)-1-[(Z)-5-hydroxy-3-(hydroxymethyl)pent-3-enyl]-1-(hydroxymethyl)-2,5-dimethyl-2,3,4,7,8,8a-hexahydroazulene-3a-carboxaldehyde

> <PUBCHEM_IUPAC_NAME>
(1R,2R,3aS,8aR)-1-[(Z)-5-hydroxy-3-(hydroxymethyl)pent-3-enyl]-1-(hydroxymethyl)-2,5-dimethyl-2,3,4,7,8,8a-hexahydroazulene-3a-carbaldehyde

> <PUBCHEM_IUPAC_SYSTEMATIC_NAME>
(1R,2R,3aS,8aR)-1-(hydroxymethyl)-1-[(Z)-3-(hydroxymethyl)-5-oxidanyl-pent-3-enyl]-2,5-dimethyl-2,3,4,7,8,8a-hexahydroazulene-3a-carbaldehyde

> <PUBCHEM_IUPAC_TRADITIONAL_NAME>
(1R,2R,3aS,8aR)-1-[(Z)-5-hydroxy-3-methylol-pent-3-enyl]-2,5-dimethyl-1-methylol-2,3,4,7,8,8a-hexahydroazulene-3a-carbaldehyde

> <PUBCHEM_IUPAC_INCHI>
InChI=1S/C20H32O4/c1-15-4-3-5-18-19(10-15,13-23)11-16(2)20(18,14-24)8-6-17(12-22)7-9-21/h4,7,13,16,18,21-22,24H,3,5-6,8-12,14H2,1-2H3/b17-7-/t16-,18+,19+,20-/m1/s1

> <PUBCHEM_IUPAC_INCHIKEY>
XNVGNPVDYXWYIA-OHWVBOLFSA-N

> <PUBCHEM_XLOGP3_AA>
1.6

> <PUBCHEM_EXACT_MASS>
336.23006

> <PUBCHEM_MOLECULAR_FORMULA>
C20H32O4

> <PUBCHEM_MOLECULAR_WEIGHT>
336.46568

> <PUBCHEM_OPENEYE_CAN_SMILES>
CC1CC2(CC(=CCCC2C1(CCC(=CCO)CO)CO)C)C=O

> <PUBCHEM_OPENEYE_ISO_SMILES>
C[C@@H]1C[C@@]2(CC(=CCC[C@@H]2[C@]1(CC/C(=C/CO)/CO)CO)C)C=O

> <PUBCHEM_CACTVS_TPSA>
77.8

> <PUBCHEM_MONOISOTOPIC_WEIGHT>
336.23006

> <PUBCHEM_TOTAL_CHARGE>
0

> <PUBCHEM_HEAVY_ATOM_COUNT>
24

> <PUBCHEM_ATOM_DEF_STEREO_COUNT>
4

> <PUBCHEM_ATOM_UDEF_STEREO_COUNT>
0

> <PUBCHEM_BOND_DEF_STEREO_COUNT>
1

> <PUBCHEM_BOND_UDEF_STEREO_COUNT>
0

> <PUBCHEM_ISOTOPIC_ATOM_COUNT>
0

> <PUBCHEM_COMPONENT_COUNT>
1

> <PUBCHEM_CACTVS_TAUTO_COUNT>
1

> <PUBCHEM_COORDINATE_TYPE>
1
5
255

> <PUBCHEM_BONDANNOTATIONS>
5  11  6
6  25  6
7  15  6
8  14  5

$$$$

