   Color/Form
        Sticky
   from [1]HSDB

   Odor
        Odorless
   from [2]HSDB

   Melting Point
        8-12 deg C
   from [3]HSDB

   Density/Specific Gravity
        Sp Gr: 1.16
   from [4]HSDB

   Octanol/Water Partition Coefficient
        log Kow = 3.84 (est)
   from [5]HSDB

   Solubilities
        In water, 0.7 mg/L at 25 deg C (est)
   from [6]HSDB

   Vapor Pressure
        1.1X10-7 mm Hg at 25 deg C (est)
   from [7]HSDB

   Other Chemical/Physical Properties

     * Epoxy equivalent = 190-210 ... the lower-molecular weight resins
       are liquids ... as the molecular weight increases, they become
       increasingly viscous and finally solids. /Diglycidyl ethers of
       bisphenol A/
     * Henry's Law constant = 4.4X10-11 atm-cu m/mol at 25 deg C (est)
     * Hydroxyl radical reaction rate constant = 6.7X10-11 cu cm/molec-sec
       at 25 deg C (est)

   from [8]HSDB

   Computed Properties
   Molecular Weight                  340.41286 [g/mol]
   Molecular Formula                 C[21]H[24]O[4]
   XLogP3-AA                         4
   H-Bond Donor                      0
   H-Bond Acceptor                   4
   Rotatable Bond Count              8
   Exact Mass                        340.167459
   MonoIsotopic Mass                 340.167459
   Topological Polar Surface Area    43.5
   Heavy Atom Count                  25
   Formal Charge                     0
   Complexity                        384
   Isotope Atom Count                0
   Defined Atom Stereocenter Count   0
   Undefined Atom Stereocenter Count 2
   Defined Bond Stereocenter Count   0
   Undefined Bond Stereocenter Count 0
   Covalently-Bonded Unit Count      1
   Feature 3D Acceptor Count         4
   Feature 3D Hydrophobe Count       1
   Feature 3D Ring Count             2
   Effective Rotor Count             9.2
   Conformer Sampling RMSD           1
   CID Conformer Count               [9]32

References

   1. http://toxnet.nlm.nih.gov/cgi-bin/sis/search/r?dbs+hsdb:@term+@rn+@rel+1675-54-3
   2. http://toxnet.nlm.nih.gov/cgi-bin/sis/search/r?dbs+hsdb:@term+@rn+@rel+1675-54-3
   3. http://toxnet.nlm.nih.gov/cgi-bin/sis/search/r?dbs+hsdb:@term+@rn+@rel+1675-54-3
   4. http://toxnet.nlm.nih.gov/cgi-bin/sis/search/r?dbs+hsdb:@term+@rn+@rel+1675-54-3
   5. http://toxnet.nlm.nih.gov/cgi-bin/sis/search/r?dbs+hsdb:@term+@rn+@rel+1675-54-3
   6. http://toxnet.nlm.nih.gov/cgi-bin/sis/search/r?dbs+hsdb:@term+@rn+@rel+1675-54-3
   7. http://toxnet.nlm.nih.gov/cgi-bin/sis/search/r?dbs+hsdb:@term+@rn+@rel+1675-54-3
   8. http://toxnet.nlm.nih.gov/cgi-bin/sis/search/r?dbs+hsdb:@term+@rn+@rel+1675-54-3
   9. http://pubchem.ncbi.nlm.nih.gov/vw3d/vw3d.cgi?cid=2286
