   Color/Form
        CRYSTALS WITH 2.5 MOL WATER OF CRYSTALLIZATION; CRYSTALS FROM
   DILUTE ALCOHOL
   from [1]HSDB

   Melting Point
        174-175 deg C after drying of solvated crystals
   from [2]HSDB

   Dissociation Constants

     * pK1 @ 20 deg C = 5.4; pK2 = 10.0
     * pKa = 8.56 @ 25 deg C

   from [3]HSDB

   Octanol/Water Partition Coefficient
        log Kow = 2.88
   from [4]HSDB

   Solubilities

     * 1 g /quinidine/ dissolves in about 36 ml alcohol, 56 ml ether, 1.6
       ml chloroform; very soluble in methanol; practically insoluble in
       petroleum ether.
     * Soluble in benzene
     * In water, 140 mg/l @ 25 deg C

   from [5]HSDB

   Spectral Properties

     * Specific optical rotation @ 15 deg C/D + 230 deg (concn by volume =
       1.8 in chloroform); specific optical rotation @ 17 deg C/D + 258
       deg (alcohol); +322 deg (concn by volume = 1.6 in 2 M HCl); UV
       absorption spectrum is identical with that of quinine; blue
       fluorescence in dilute H2SO4.
     * MAX ABSORPTION (METHANOL): 230 NM (LOG E= 4.53); 280 NM (LOG E=
       3.54); 336 NM (LOG E= 3.69); SPECIFIC OPTICAL ROTATION (ALCOHOL) @
       25 DEG C/D +212 DEG
     * UV: 4-824 (Organic Electronic Spectral Data, Phillips et al, John
       Wiley and Sons, NY)
     * MASS: 35750 (NIST/EPA/MSDS Mass Spectral Database, 1990 version)

   from [6]HSDB

   Other Chemical/Physical Properties

     * Prisms from dilute alcohol; loses one-half water in air; MP: about
       168 deg C /Hemipentahydrate/
     * Lustrous needles; decomposes at 259 deg C (drug); specific optical
       rotation at 20 deg C/D + 200 deg ; sol in 60 parts water, freely
       soluble in hot water, in alcohol, chloroform, slightly in ether;
       neutral reaction. /Quinidine hydrochloride monohydrate/
     * Rods; soluble in 8 parts water with blue fluorescence /Acid sulfate
       tetrahydrate/
     * IR: 9516 (Sadtler Research Laboratories Prism Collection)
       /Quinidine hydrate/
     * MASS: 1940 (Atlas of Mass Spectral Data, John Wiley & Sons, New
       York) /Quinidine hydrate/
     * Crystals from water; decomposes at 115 deg C; specific optical
       rotation at 15 deg C/D + 223 deg (0.4 molar solution). /Quinidine
       dihydrobromide trihydrate/
     * Crystals from water; mp: 248 deg C (dry); readily soluble in hot
       water, alcohol. /Quinidine methiodide monohydrate/
     * Crystals; MP: 175-176.5 deg C; sol in 9 parts water, 60 parts
       alcohol /Gluconate/

   from [7]HSDB

   Computed Properties
   Molecular Weight                  324.41676 [g/mol]
   Molecular Formula                 C[20]H[24]N[2]O[2]
   XLogP3                            2.9
   H-Bond Donor                      1
   H-Bond Acceptor                   4
   Rotatable Bond Count              4
   Exact Mass                        324.183778
   MonoIsotopic Mass                 324.183778
   Topological Polar Surface Area    45.6
   Heavy Atom Count                  24
   Formal Charge                     0
   Complexity                        457
   Isotope Atom Count                0
   Defined Atom Stereocenter Count   3
   Undefined Atom Stereocenter Count 1
   Defined Bond Stereocenter Count   0
   Undefined Bond Stereocenter Count 0
   Covalently-Bonded Unit Count      1
   Feature 3D Acceptor Count         3
   Feature 3D Donor Count            1
   Feature 3D Cation Count           1
   Feature 3D Hydrophobe Count       1
   Feature 3D Ring Count             3
   Effective Rotor Count             5.2
   Conformer Sampling RMSD           0.8
   CID Conformer Count               [8]8

References

   1. http://toxnet.nlm.nih.gov/cgi-bin/sis/search/r?dbs+hsdb:@term+@rn+@rel+56-54-2
   2. http://toxnet.nlm.nih.gov/cgi-bin/sis/search/r?dbs+hsdb:@term+@rn+@rel+56-54-2
   3. http://toxnet.nlm.nih.gov/cgi-bin/sis/search/r?dbs+hsdb:@term+@rn+@rel+56-54-2
   4. http://toxnet.nlm.nih.gov/cgi-bin/sis/search/r?dbs+hsdb:@term+@rn+@rel+56-54-2
   5. http://toxnet.nlm.nih.gov/cgi-bin/sis/search/r?dbs+hsdb:@term+@rn+@rel+56-54-2
   6. http://toxnet.nlm.nih.gov/cgi-bin/sis/search/r?dbs+hsdb:@term+@rn+@rel+56-54-2
   7. http://toxnet.nlm.nih.gov/cgi-bin/sis/search/r?dbs+hsdb:@term+@rn+@rel+56-54-2
   8. http://pubchem.ncbi.nlm.nih.gov/vw3d/vw3d.cgi?cid=5953
