159810
  -OEChem-07051213132D

  8  6  0     0  0  0  0  0  0999 V2000
    0.8660    1.0000    0.0000 As  0  5  0  0  0  0  0  0  0  0  0  0
    0.6160    4.0000    0.0000 K   0  3  0  0  0  0  0  0  0  0  0  0
    1.7320    1.5000    0.0000 F   0  0  0  0  0  0  0  0  0  0  0  0
    0.0000    0.5000    0.0000 F   0  0  0  0  0  0  0  0  0  0  0  0
    0.0000    1.5000    0.0000 F   0  0  0  0  0  0  0  0  0  0  0  0
    0.8660    0.0000    0.0000 F   0  0  0  0  0  0  0  0  0  0  0  0
    0.8660    2.0000    0.0000 F   0  0  0  0  0  0  0  0  0  0  0  0
    1.7320    0.5000    0.0000 F   0  0  0  0  0  0  0  0  0  0  0  0
  1  3  1  0  0  0  0
  1  4  1  0  0  0  0
  1  5  1  0  0  0  0
  1  6  1  0  0  0  0
  1  7  1  0  0  0  0
  1  8  1  0  0  0  0
M  CHG  2   1  -1   2   1
M  END
> <PUBCHEM_COMPOUND_CID>
159810

> <PUBCHEM_COMPOUND_CANONICALIZED>
1

> <PUBCHEM_CACTVS_COMPLEXITY>
62.7

> <PUBCHEM_CACTVS_HBOND_ACCEPTOR>
7

> <PUBCHEM_CACTVS_HBOND_DONOR>
0

> <PUBCHEM_CACTVS_ROTATABLE_BOND>
0

> <PUBCHEM_CACTVS_SUBSKEYS>
AAADcQAAAcAAQAAAQAAAAAAAAAAAAAAAAAAAAAAAAAAAAAAAAAAAAAAAAAAAAAAAAAAAAAAAAAAAAAAAAAAAAAAAAAAAAAAAAAAAAAAAAAAAAAAAAAAAAAAAAAAAAAAAAAAAAAAAAAAAAAAAAAAAAAAAAA==

> <PUBCHEM_IUPAC_OPENEYE_NAME>
potassium hexafluoroarsenic(1-)

> <PUBCHEM_IUPAC_CAS_NAME>
potassium hexafluoroarsoranuide

> <PUBCHEM_IUPAC_NAME>
potassium hexafluoroarsenic(1-)

> <PUBCHEM_IUPAC_SYSTEMATIC_NAME>
potassium hexakis(fluoranyl)arsenic(1-)

> <PUBCHEM_IUPAC_TRADITIONAL_NAME>
potassium hexafluoroarsoranuide

> <PUBCHEM_IUPAC_INCHI>
InChI=1S/AsF6.K/c2-1(3,4,5,6)7;/q-1;+1

> <PUBCHEM_IUPAC_INCHIKEY>
DITNVAZRXJOPSJ-UHFFFAOYSA-N

> <PUBCHEM_EXACT_MASS>
227.875722

> <PUBCHEM_MOLECULAR_FORMULA>
AsF6K

> <PUBCHEM_MOLECULAR_WEIGHT>
228.010319

> <PUBCHEM_OPENEYE_CAN_SMILES>
F[As-](F)(F)(F)(F)F.[K+]

> <PUBCHEM_OPENEYE_ISO_SMILES>
F[As-](F)(F)(F)(F)F.[K+]

> <PUBCHEM_CACTVS_TPSA>
0

> <PUBCHEM_MONOISOTOPIC_WEIGHT>
227.875722

> <PUBCHEM_TOTAL_CHARGE>
0

> <PUBCHEM_HEAVY_ATOM_COUNT>
8

> <PUBCHEM_ATOM_DEF_STEREO_COUNT>
0

> <PUBCHEM_ATOM_UDEF_STEREO_COUNT>
0

> <PUBCHEM_BOND_DEF_STEREO_COUNT>
0

> <PUBCHEM_BOND_UDEF_STEREO_COUNT>
0

> <PUBCHEM_ISOTOPIC_ATOM_COUNT>
0

> <PUBCHEM_COMPONENT_COUNT>
2

> <PUBCHEM_CACTVS_TAUTO_COUNT>
1

> <PUBCHEM_COORDINATE_TYPE>
1
5
255

$$$$

