14324
  -OEChem-06241222432D

 28 29  0     0  0  0  0  0  0999 V2000
    2.0000    1.6900    0.0000 O   0  0  0  0  0  0  0  0  0  0  0  0
    5.4641    1.6900    0.0000 O   0  0  0  0  0  0  0  0  0  0  0  0
    3.7320    1.6900    0.0000 N   0  0  0  0  0  0  0  0  0  0  0  0
    3.7320   -0.3100    0.0000 C   0  0  0  0  0  0  0  0  0  0  0  0
    4.5981   -0.8100    0.0000 C   0  0  0  0  0  0  0  0  0  0  0  0
    2.8660   -0.8100    0.0000 C   0  0  0  0  0  0  0  0  0  0  0  0
    4.5981    0.1900    0.0000 C   0  0  0  0  0  0  0  0  0  0  0  0
    2.8660    0.1900    0.0000 C   0  0  0  0  0  0  0  0  0  0  0  0
    4.5981   -1.8100    0.0000 C   0  0  0  0  0  0  0  0  0  0  0  0
    2.8660   -1.8100    0.0000 C   0  0  0  0  0  0  0  0  0  0  0  0
    3.7320   -2.3100    0.0000 C   0  0  0  0  0  0  0  0  0  0  0  0
    4.5981    1.1900    0.0000 C   0  0  0  0  0  0  0  0  0  0  0  0
    2.8660    1.1900    0.0000 C   0  0  0  0  0  0  0  0  0  0  0  0
    2.6540   -0.2274    0.0000 H   0  0  0  0  0  0  0  0  0  0  0  0
    2.2554   -0.9177    0.0000 H   0  0  0  0  0  0  0  0  0  0  0  0
    5.2087   -0.9177    0.0000 H   0  0  0  0  0  0  0  0  0  0  0  0
    4.8101   -0.2274    0.0000 H   0  0  0  0  0  0  0  0  0  0  0  0
    4.8101   -0.3926    0.0000 H   0  0  0  0  0  0  0  0  0  0  0  0
    5.2087    0.2977    0.0000 H   0  0  0  0  0  0  0  0  0  0  0  0
    2.2554    0.2977    0.0000 H   0  0  0  0  0  0  0  0  0  0  0  0
    2.6540   -0.3926    0.0000 H   0  0  0  0  0  0  0  0  0  0  0  0
    4.8101   -2.3926    0.0000 H   0  0  0  0  0  0  0  0  0  0  0  0
    5.2087   -1.7023    0.0000 H   0  0  0  0  0  0  0  0  0  0  0  0
    2.2554   -1.7023    0.0000 H   0  0  0  0  0  0  0  0  0  0  0  0
    2.6540   -2.3926    0.0000 H   0  0  0  0  0  0  0  0  0  0  0  0
    3.3335   -2.7849    0.0000 H   0  0  0  0  0  0  0  0  0  0  0  0
    4.1306   -2.7849    0.0000 H   0  0  0  0  0  0  0  0  0  0  0  0
    3.7320    2.3100    0.0000 H   0  0  0  0  0  0  0  0  0  0  0  0
  1 13  2  0  0  0  0
  2 12  2  0  0  0  0
  3 12  1  0  0  0  0
  3 13  1  0  0  0  0
  3 28  1  0  0  0  0
  4  5  1  0  0  0  0
  4  6  1  0  0  0  0
  4  7  1  0  0  0  0
  4  8  1  0  0  0  0
  5  9  1  0  0  0  0
  5 16  1  0  0  0  0
  5 17  1  0  0  0  0
  6 10  1  0  0  0  0
  6 14  1  0  0  0  0
  6 15  1  0  0  0  0
  7 12  1  0  0  0  0
  7 18  1  0  0  0  0
  7 19  1  0  0  0  0
  8 13  1  0  0  0  0
  8 20  1  0  0  0  0
  8 21  1  0  0  0  0
  9 11  1  0  0  0  0
  9 22  1  0  0  0  0
  9 23  1  0  0  0  0
 10 11  1  0  0  0  0
 10 24  1  0  0  0  0
 10 25  1  0  0  0  0
 11 26  1  0  0  0  0
 11 27  1  0  0  0  0
M  END
> <PUBCHEM_COMPOUND_CID>
14324

> <PUBCHEM_COMPOUND_CANONICALIZED>
1

> <PUBCHEM_CACTVS_COMPLEXITY>
223

> <PUBCHEM_CACTVS_HBOND_ACCEPTOR>
2

> <PUBCHEM_CACTVS_HBOND_DONOR>
1

> <PUBCHEM_CACTVS_ROTATABLE_BOND>
0

> <PUBCHEM_CACTVS_SUBSKEYS>
AAADccByMAAAAAAAAAAAAAAAAAAAAAAAAAA8QAAAAAAAAAAAAAAAHgAQAAAADgCBgAAAAALAAAAIAAEQEAAAAAAAAAAAAAEAAAAAABIAgAAEAAAAFCCAAAEYi8CPAAAAAAAAAAAAAAAAAAAAAAAAAAAAAA==

> <PUBCHEM_IUPAC_OPENEYE_NAME>
3-azaspiro[5.5]undecane-2,4-dione

> <PUBCHEM_IUPAC_CAS_NAME>
3-azaspiro[5.5]undecane-2,4-dione

> <PUBCHEM_IUPAC_NAME>
3-azaspiro[5.5]undecane-2,4-dione

> <PUBCHEM_IUPAC_SYSTEMATIC_NAME>
3-azaspiro[5.5]undecane-2,4-dione

> <PUBCHEM_IUPAC_TRADITIONAL_NAME>
3-azaspiro[5.5]undecane-2,4-quinone

> <PUBCHEM_IUPAC_INCHI>
InChI=1S/C10H15NO2/c12-8-6-10(7-9(13)11-8)4-2-1-3-5-10/h1-7H2,(H,11,12,13)

> <PUBCHEM_IUPAC_INCHIKEY>
FNIPRNMPSXNBDI-UHFFFAOYSA-N

> <PUBCHEM_XLOGP3_AA>
1.6

> <PUBCHEM_EXACT_MASS>
181.110279

> <PUBCHEM_MOLECULAR_FORMULA>
C10H15NO2

> <PUBCHEM_MOLECULAR_WEIGHT>
181.2316

> <PUBCHEM_OPENEYE_CAN_SMILES>
C1CCC2(CC1)CC(=O)NC(=O)C2

> <PUBCHEM_OPENEYE_ISO_SMILES>
C1CCC2(CC1)CC(=O)NC(=O)C2

> <PUBCHEM_CACTVS_TPSA>
46.2

> <PUBCHEM_MONOISOTOPIC_WEIGHT>
181.110279

> <PUBCHEM_TOTAL_CHARGE>
0

> <PUBCHEM_HEAVY_ATOM_COUNT>
13

> <PUBCHEM_ATOM_DEF_STEREO_COUNT>
0

> <PUBCHEM_ATOM_UDEF_STEREO_COUNT>
0

> <PUBCHEM_BOND_DEF_STEREO_COUNT>
0

> <PUBCHEM_BOND_UDEF_STEREO_COUNT>
0

> <PUBCHEM_ISOTOPIC_ATOM_COUNT>
0

> <PUBCHEM_COMPONENT_COUNT>
1

> <PUBCHEM_CACTVS_TAUTO_COUNT>
5

> <PUBCHEM_COORDINATE_TYPE>
1
5
255

$$$$

