   Color/Form
        Light brown liquid... .
   from [1]HSDB

   Odor
        ...Odor typical of a phosphate ester.
   from [2]HSDB

   Boiling Point
        64 deg C/0.075 mm Hg
   from [3]HSDB

   Density/Specific Gravity
        1.28 (20 deg C)
   from [4]HSDB

   Octanol/Water Partition Coefficient
        log Kow =2.32
   from [5]HSDB

   Solubilities

     * Readily miscible with most organic solvents, e.g. in acetone,
       methanol, xylene >1, hexane 0.13 (all in kg/l, 25 deg C).
     * In water, 2,500 mg/l @ 23 deg C

   from [6]HSDB

   Vapor Pressure
        65 mPa (4.9X10-4 mm Hg) at 15 deg C; 170 mPa (1.28X10-3 mm Hg) at
   25 deg C
   from [7]HSDB

   Computed Properties
   Molecular Weight                  250.615942 [g/mol]
   Molecular Formula                 C[9]H[12]ClO[4]P
   XLogP3-AA                         1.3
   H-Bond Donor                      0
   H-Bond Acceptor                   4
   Rotatable Bond Count              4
   Exact Mass                        250.016173
   MonoIsotopic Mass                 250.016173
   Topological Polar Surface Area    44.8
   Heavy Atom Count                  15
   Formal Charge                     0
   Complexity                        368
   Isotope Atom Count                0
   Defined Atom Stereocenter Count   0
   Undefined Atom Stereocenter Count 2
   Defined Bond Stereocenter Count   0
   Undefined Bond Stereocenter Count 0
   Covalently-Bonded Unit Count      1
   Feature 3D Acceptor Count         1
   Feature 3D Ring Count             1
   Effective Rotor Count             4.2
   Conformer Sampling RMSD           0.6
   CID Conformer Count               [8]91

References

   1. http://toxnet.nlm.nih.gov/cgi-bin/sis/search/r?dbs+hsdb:@term+@rn+@rel+23560-59-0
   2. http://toxnet.nlm.nih.gov/cgi-bin/sis/search/r?dbs+hsdb:@term+@rn+@rel+23560-59-0
   3. http://toxnet.nlm.nih.gov/cgi-bin/sis/search/r?dbs+hsdb:@term+@rn+@rel+23560-59-0
   4. http://toxnet.nlm.nih.gov/cgi-bin/sis/search/r?dbs+hsdb:@term+@rn+@rel+23560-59-0
   5. http://toxnet.nlm.nih.gov/cgi-bin/sis/search/r?dbs+hsdb:@term+@rn+@rel+23560-59-0
   6. http://toxnet.nlm.nih.gov/cgi-bin/sis/search/r?dbs+hsdb:@term+@rn+@rel+23560-59-0
   7. http://toxnet.nlm.nih.gov/cgi-bin/sis/search/r?dbs+hsdb:@term+@rn+@rel+23560-59-0
   8. http://pubchem.ncbi.nlm.nih.gov/vw3d/vw3d.cgi?cid=62773
