   Color/Form
        Colorless liquid
   from [1]HSDB

   Odor

     * Amine odor
     * Ammoniacal

   from [2]HSDB

   Boiling Point
        63 deg C
   from [3]HSDB

   Melting Point
        -104 deg C
   from [4]HSDB

   Corrosivity
        Corrosive to tin, aluminum, and some steels
   from [5]HSDB

   Critical Temperature and Pressure
        Critical temperature: 514.3 K; critical pressure: 4.20 MPa
   from [6]HSDB

   Density/Specific Gravity
        0.724 at 20 deg C/4 deg C
   from [7]HSDB

   Dissociation Constants
        pKa = 10.56
   from [8]HSDB

   Heat of Combustion
        -3008.6 kJ/mole @ 25 deg C
   from [9]HSDB

   Heat of Vaporization
        32.85 kJ/mole at 25 deg C
   from [10]HSDB

   Octanol/Water Partition Coefficient
        log Kow = 0.74
   from [11]HSDB

   Solubilities

     * Miscible with most organic solvents
     * Miscible with ethanol, ether; very soluble in acetone
     * In water, 1.12X10+5 mg/L at 20 deg C

   from [12]HSDB

   Spectral Properties
        Index of refraction: 1.394 at 20 deg C/D
   from [13]HSDB

   Surface Tension
        22.42 dynes/cm= 0.02242 N/m @ 20 deg C
   from [14]HSDB

   Vapor Density
        2.52 (Air=1)
   from [15]HSDB

   Vapor Pressure
        178 mm Hg at 25 deg C
   from [16]HSDB

   Other Chemical/Physical Properties

     * Liquid; Density 0.7308 at 15 deg C/4 deg C; Index of refraction:
       1.3963 at 15 deg C/D; Specific optical rotation: +7.80 degrees
       (neat) at 15 deg C/D /d(S) form/
     * Liquid; BP: 63 deg CDensity 0.728 at 19 deg C/4 deg C; Specific
       optical rotation: -7.64 deg /l-form/
     * It is a base, forming water-soluble salts with acids.
     * Soluble in water, alcohol, ether, acetone /2-Aminobutane (d) and
       (l)/; Sol in alcohol, ether, acetone /2-Aminobutane (dl)/
     * Ratio of specific heats of vapor (gas): 1.073 @ 20 deg C (est);
       Heat of solution: -170 BTU/lb= -93 cal/g= -3.9X10+5 J/kg
     * Wt/gal at 20 deg C = 6.0 lb
     * MASS: 77 (Atlas of Mass Spectral Data, John Wiley & Sons, New York)
       /Butane, 2-amino (d)/
     * IR: 13484 (Sadtler Research Laboratories Prism Collection) /Butane,
       2-amino (dl)/
     * NMR: 88 (Varian Associates NMR Spectra Catalogue) /Butane, 2-amino
       (dl)/
     * MASS: 77 (Atlas of Mass Spectral Data, John Wiley & Sons, New York)
       /Butane, 2-amino (dl)/
     * MASS: 77 (Atlas of Mass Spectral Data, John Wiley & Sons, New York)
       /Butane, 2-amino (l)/
     * MASS: 21 (National Bureau of Standards EPA-NIH Mass Spectra Data
       Base, NSRDS-NBS-63) /Butane, 2-amino (l)/
     * Henry's Law constant = 1.5X10-4 atm-cu m/mol at 25 deg C (est)
     * Hydroxyl radical reaction rate constant = 4.5X10-11 cu cm/molec-sec
       at 25 deg C (est)

   from [17]HSDB

   Computed Properties
   Molecular Weight                  73.13684 [g/mol]
   Molecular Formula                 C[4]H[11]N
   XLogP3-AA                         0.6
   H-Bond Donor                      1
   H-Bond Acceptor                   1
   Rotatable Bond Count              1
   Exact Mass                        73.089149
   MonoIsotopic Mass                 73.089149
   Topological Polar Surface Area    26
   Heavy Atom Count                  5
   Formal Charge                     0
   Complexity                        19.6
   Isotope Atom Count                0
   Defined Atom Stereocenter Count   0
   Undefined Atom Stereocenter Count 1
   Defined Bond Stereocenter Count   0
   Undefined Bond Stereocenter Count 0
   Covalently-Bonded Unit Count      1
   Feature 3D Donor Count            1
   Feature 3D Cation Count           1
   Feature 3D Hydrophobe Count       1
   Effective Rotor Count             1
   Conformer Sampling RMSD           0.4
   CID Conformer Count               [18]6

References

   1. http://toxnet.nlm.nih.gov/cgi-bin/sis/search/r?dbs+hsdb:@term+@rn+@rel+13952-84-6
   2. http://toxnet.nlm.nih.gov/cgi-bin/sis/search/r?dbs+hsdb:@term+@rn+@rel+13952-84-6
   3. http://toxnet.nlm.nih.gov/cgi-bin/sis/search/r?dbs+hsdb:@term+@rn+@rel+13952-84-6
   4. http://toxnet.nlm.nih.gov/cgi-bin/sis/search/r?dbs+hsdb:@term+@rn+@rel+13952-84-6
   5. http://toxnet.nlm.nih.gov/cgi-bin/sis/search/r?dbs+hsdb:@term+@rn+@rel+13952-84-6
   6. http://toxnet.nlm.nih.gov/cgi-bin/sis/search/r?dbs+hsdb:@term+@rn+@rel+13952-84-6
   7. http://toxnet.nlm.nih.gov/cgi-bin/sis/search/r?dbs+hsdb:@term+@rn+@rel+13952-84-6
   8. http://toxnet.nlm.nih.gov/cgi-bin/sis/search/r?dbs+hsdb:@term+@rn+@rel+13952-84-6
   9. http://toxnet.nlm.nih.gov/cgi-bin/sis/search/r?dbs+hsdb:@term+@rn+@rel+13952-84-6
  10. http://toxnet.nlm.nih.gov/cgi-bin/sis/search/r?dbs+hsdb:@term+@rn+@rel+13952-84-6
  11. http://toxnet.nlm.nih.gov/cgi-bin/sis/search/r?dbs+hsdb:@term+@rn+@rel+13952-84-6
  12. http://toxnet.nlm.nih.gov/cgi-bin/sis/search/r?dbs+hsdb:@term+@rn+@rel+13952-84-6
  13. http://toxnet.nlm.nih.gov/cgi-bin/sis/search/r?dbs+hsdb:@term+@rn+@rel+13952-84-6
  14. http://toxnet.nlm.nih.gov/cgi-bin/sis/search/r?dbs+hsdb:@term+@rn+@rel+13952-84-6
  15. http://toxnet.nlm.nih.gov/cgi-bin/sis/search/r?dbs+hsdb:@term+@rn+@rel+13952-84-6
  16. http://toxnet.nlm.nih.gov/cgi-bin/sis/search/r?dbs+hsdb:@term+@rn+@rel+13952-84-6
  17. http://toxnet.nlm.nih.gov/cgi-bin/sis/search/r?dbs+hsdb:@term+@rn+@rel+13952-84-6
  18. http://pubchem.ncbi.nlm.nih.gov/vw3d/vw3d.cgi?cid=24874
