129539
  -OEChem-07051212512D

 39 41  0     0  0  0  0  0  0999 V2000
    3.0878    0.9045    0.0000 Cl  0  0  0  0  0  0  0  0  0  0  0  0
    6.5519    0.9045    0.0000 Cl  0  0  0  0  0  0  0  0  0  0  0  0
    4.8198   -0.0955    0.0000 O   0  0  0  0  0  0  0  0  0  0  0  0
    4.0108    4.4923    0.0000 O   0  0  0  0  0  0  0  0  0  0  0  0
    3.8968   -3.6833    0.0000 O   0  0  0  0  0  0  0  0  0  0  0  0
    5.6288    4.4923    0.0000 N   0  0  0  0  0  0  0  0  0  0  0  0
    3.5878   -4.6343    0.0000 N   0  0  0  0  0  0  0  0  0  0  0  0
    3.9538   -1.5955    0.0000 C   0  0  0  0  0  0  0  0  0  0  0  0
    3.0878   -2.0955    0.0000 C   0  0  0  0  0  0  0  0  0  0  0  0
    3.9538   -0.5955    0.0000 C   0  0  0  0  0  0  0  0  0  0  0  0
    3.0878   -3.0955    0.0000 C   0  0  0  0  0  0  0  0  0  0  0  0
    4.8198    2.9045    0.0000 C   0  0  0  0  0  0  0  0  0  0  0  0
    4.8198    0.9045    0.0000 C   0  0  0  0  0  0  0  0  0  0  0  0
    4.8198    3.9045    0.0000 C   0  0  0  0  0  0  0  0  0  0  0  0
    4.3198    5.4434    0.0000 C   0  0  0  0  0  0  0  0  0  0  0  0
    5.3198    5.4434    0.0000 C   0  0  0  0  0  0  0  0  0  0  0  0
    3.9538    2.4045    0.0000 C   0  0  0  0  0  0  0  0  0  0  0  0
    5.6859    2.4045    0.0000 C   0  0  0  0  0  0  0  0  0  0  0  0
    2.2788   -3.6833    0.0000 C   0  0  0  0  0  0  0  0  0  0  0  0
    3.9538    1.4045    0.0000 C   0  0  0  0  0  0  0  0  0  0  0  0
    5.6859    1.4045    0.0000 C   0  0  0  0  0  0  0  0  0  0  0  0
    2.5878   -4.6343    0.0000 C   0  0  0  0  0  0  0  0  0  0  0  0
    2.0000   -5.4434    0.0000 C   0  0  0  0  0  0  0  0  0  0  0  0
    4.1659   -2.1781    0.0000 H   0  0  0  0  0  0  0  0  0  0  0  0
    4.5644   -1.4878    0.0000 H   0  0  0  0  0  0  0  0  0  0  0  0
    2.8757   -1.5129    0.0000 H   0  0  0  0  0  0  0  0  0  0  0  0
    2.4772   -2.2032    0.0000 H   0  0  0  0  0  0  0  0  0  0  0  0
    3.7418   -0.0129    0.0000 H   0  0  0  0  0  0  0  0  0  0  0  0
    3.3432   -0.7032    0.0000 H   0  0  0  0  0  0  0  0  0  0  0  0
    4.3846    6.0600    0.0000 H   0  0  0  0  0  0  0  0  0  0  0  0
    3.7134    5.5723    0.0000 H   0  0  0  0  0  0  0  0  0  0  0  0
    5.9263    5.5723    0.0000 H   0  0  0  0  0  0  0  0  0  0  0  0
    5.2550    6.0600    0.0000 H   0  0  0  0  0  0  0  0  0  0  0  0
    3.4169    2.7145    0.0000 H   0  0  0  0  0  0  0  0  0  0  0  0
    6.2228    2.7145    0.0000 H   0  0  0  0  0  0  0  0  0  0  0  0
    1.6891   -3.4917    0.0000 H   0  0  0  0  0  0  0  0  0  0  0  0
    1.4984   -5.0789    0.0000 H   0  0  0  0  0  0  0  0  0  0  0  0
    1.6356   -5.9449    0.0000 H   0  0  0  0  0  0  0  0  0  0  0  0
    2.5016   -5.8078    0.0000 H   0  0  0  0  0  0  0  0  0  0  0  0
  1 20  1  0  0  0  0
  2 21  1  0  0  0  0
  3 10  1  0  0  0  0
  3 13  1  0  0  0  0
  4 14  1  0  0  0  0
  4 15  1  0  0  0  0
  5  7  1  0  0  0  0
  5 11  1  0  0  0  0
  6 14  2  0  0  0  0
  6 16  1  0  0  0  0
  7 22  2  0  0  0  0
  8  9  1  0  0  0  0
  8 10  1  0  0  0  0
  8 24  1  0  0  0  0
  8 25  1  0  0  0  0
  9 11  1  0  0  0  0
  9 26  1  0  0  0  0
  9 27  1  0  0  0  0
 10 28  1  0  0  0  0
 10 29  1  0  0  0  0
 11 19  2  0  0  0  0
 12 14  1  0  0  0  0
 12 17  2  0  0  0  0
 12 18  1  0  0  0  0
 13 20  2  0  0  0  0
 13 21  1  0  0  0  0
 15 16  1  0  0  0  0
 15 30  1  0  0  0  0
 15 31  1  0  0  0  0
 16 32  1  0  0  0  0
 16 33  1  0  0  0  0
 17 20  1  0  0  0  0
 17 34  1  0  0  0  0
 18 21  2  0  0  0  0
 18 35  1  0  0  0  0
 19 22  1  0  0  0  0
 19 36  1  0  0  0  0
 22 23  1  0  0  0  0
 23 37  1  0  0  0  0
 23 38  1  0  0  0  0
 23 39  1  0  0  0  0
M  END
> <PUBCHEM_COMPOUND_CID>
129539

> <PUBCHEM_COMPOUND_CANONICALIZED>
1

> <PUBCHEM_CACTVS_COMPLEXITY>
412

> <PUBCHEM_CACTVS_HBOND_ACCEPTOR>
5

> <PUBCHEM_CACTVS_HBOND_DONOR>
0

> <PUBCHEM_CACTVS_ROTATABLE_BOND>
6

> <PUBCHEM_CACTVS_SUBSKEYS>
AAADceB7MAAGAAAAAAAAAAAAAAAAAWIAAAAwAAAAAAAAAAABwAAAHgIEAAAADA7hniYyhpIQBACpA6RyRgCCCAAkJ0AgmCE2b9oOJruFs5qDOaDmwBkI6UfS4CwOIAAAIACACABAAABAAQAQAAAAAAAAAA==

> <PUBCHEM_IUPAC_OPENEYE_NAME>
5-[3-[2,6-dichloro-4-(4,5-dihydrooxazol-2-yl)phenoxy]propyl]-3-methyl-isoxazole

> <PUBCHEM_IUPAC_CAS_NAME>
5-[3-[2,6-dichloro-4-(4,5-dihydrooxazol-2-yl)phenoxy]propyl]-3-methylisoxazole

> <PUBCHEM_IUPAC_NAME>
5-[3-[2,6-dichloro-4-(4,5-dihydro-1,3-oxazol-2-yl)phenoxy]propyl]-3-methyl-1,2-oxazole

> <PUBCHEM_IUPAC_SYSTEMATIC_NAME>
5-[3-[2,6-bis(chloranyl)-4-(4,5-dihydro-1,3-oxazol-2-yl)phenoxy]propyl]-3-methyl-1,2-oxazole

> <PUBCHEM_IUPAC_TRADITIONAL_NAME>
5-[3-[2,6-dichloro-4-(2-oxazolin-2-yl)phenoxy]propyl]-3-methyl-isoxazole

> <PUBCHEM_IUPAC_INCHI>
InChI=1S/C16H16Cl2N2O3/c1-10-7-12(23-20-10)3-2-5-21-15-13(17)8-11(9-14(15)18)16-19-4-6-22-16/h7-9H,2-6H2,1H3

> <PUBCHEM_IUPAC_INCHIKEY>
TUGBWRGTMLOFAX-UHFFFAOYSA-N

> <PUBCHEM_XLOGP3_AA>
3.9

> <PUBCHEM_EXACT_MASS>
354.053798

> <PUBCHEM_MOLECULAR_FORMULA>
C16H16Cl2N2O3

> <PUBCHEM_MOLECULAR_WEIGHT>
355.21584

> <PUBCHEM_OPENEYE_CAN_SMILES>
CC1=NOC(=C1)CCCOC2=C(C=C(C=C2Cl)C3=NCCO3)Cl

> <PUBCHEM_OPENEYE_ISO_SMILES>
CC1=NOC(=C1)CCCOC2=C(C=C(C=C2Cl)C3=NCCO3)Cl

> <PUBCHEM_CACTVS_TPSA>
56.8

> <PUBCHEM_MONOISOTOPIC_WEIGHT>
354.053798

> <PUBCHEM_TOTAL_CHARGE>
0

> <PUBCHEM_HEAVY_ATOM_COUNT>
23

> <PUBCHEM_ATOM_DEF_STEREO_COUNT>
0

> <PUBCHEM_ATOM_UDEF_STEREO_COUNT>
0

> <PUBCHEM_BOND_DEF_STEREO_COUNT>
0

> <PUBCHEM_BOND_UDEF_STEREO_COUNT>
0

> <PUBCHEM_ISOTOPIC_ATOM_COUNT>
0

> <PUBCHEM_COMPONENT_COUNT>
1

> <PUBCHEM_CACTVS_TAUTO_COUNT>
1

> <PUBCHEM_COORDINATE_TYPE>
1
5
255

> <PUBCHEM_BONDANNOTATIONS>
11  19  8
12  17  8
12  18  8
13  20  8
13  21  8
17  20  8
18  21  8
19  22  8
5  11  8
5  7  8
7  22  8

$$$$

