441082
  -OEChem-07051212512D

 66 70  0     1  0  0  0  0  0999 V2000
    9.0503    2.3457    0.0000 N   0  0  3  0  0  0  0  0  0  0  0  0
    2.8641   -2.3457    0.0000 N   0  0  0  0  0  0  0  0  0  0  0  0
    8.2572    0.7066    0.0000 C   0  0  1  0  0  0  0  0  0  0  0  0
    8.2572   -0.2934    0.0000 C   0  0  2  0  0  0  0  0  0  0  0  0
    9.2034    1.0114    0.0000 C   0  0  2  0  0  0  0  0  0  0  0  0
    7.3912   -0.7934    0.0000 C   0  0  1  0  0  0  0  0  0  0  0  0
    6.5251   -0.2934    0.0000 C   0  0  2  0  0  0  0  0  0  0  0  0
    7.3912    1.2066    0.0000 C   0  0  0  0  0  0  0  0  0  0  0  0
    9.2034   -0.5981    0.0000 C   0  0  0  0  0  0  0  0  0  0  0  0
    8.1590    1.6899    0.0000 C   0  0  0  0  0  0  0  0  0  0  0  0
    9.7870    0.2066    0.0000 C   0  0  0  0  0  0  0  0  0  0  0  0
    9.6975    1.8672    0.0000 C   0  0  2  0  0  0  0  0  0  0  0  0
    6.5251    0.7066    0.0000 C   0  0  0  0  0  0  0  0  0  0  0  0
    5.6151   -0.8002    0.0000 C   0  0  2  0  0  0  0  0  0  0  0  0
    7.4072   -1.8349    0.0000 C   0  0  0  0  0  0  0  0  0  0  0  0
    5.6071   -1.8418    0.0000 C   0  0  0  0  0  0  0  0  0  0  0  0
    4.6883   -0.2361    0.0000 C   0  0  0  0  0  0  0  0  0  0  0  0
    6.5092   -2.3626    0.0000 C   0  0  0  0  0  0  0  0  0  0  0  0
   10.6488    2.1754    0.0000 C   0  0  0  0  0  0  0  0  0  0  0  0
    5.6228    0.1997    0.0000 C   0  0  0  0  0  0  0  0  0  0  0  0
    4.6717   -2.3916    0.0000 C   0  0  0  0  0  0  0  0  0  0  0  0
    3.7404   -0.7641    0.0000 C   0  0  0  0  0  0  0  0  0  0  0  0
    9.0529    3.3457    0.0000 C   0  0  0  0  0  0  0  0  0  0  0  0
    3.7320   -1.8490    0.0000 C   0  0  2  0  0  0  0  0  0  0  0  0
    2.0000   -1.8424    0.0000 C   0  0  0  0  0  0  0  0  0  0  0  0
    2.8602   -3.3457    0.0000 C   0  0  0  0  0  0  0  0  0  0  0  0
    8.3471   -1.1386    0.0000 H   0  0  0  0  0  0  0  0  0  0  0  0
   10.0522    1.0555    0.0000 H   0  0  0  0  0  0  0  0  0  0  0  0
    8.1305   -1.2127    0.0000 H   0  0  0  0  0  0  0  0  0  0  0  0
    7.2612    0.1316    0.0000 H   0  0  0  0  0  0  0  0  0  0  0  0
    7.7897    1.6816    0.0000 H   0  0  0  0  0  0  0  0  0  0  0  0
    6.9926    1.6816    0.0000 H   0  0  0  0  0  0  0  0  0  0  0  0
    8.9524   -1.1650    0.0000 H   0  0  0  0  0  0  0  0  0  0  0  0
    9.7408   -0.9073    0.0000 H   0  0  0  0  0  0  0  0  0  0  0  0
    7.8859    2.2466    0.0000 H   0  0  0  0  0  0  0  0  0  0  0  0
    7.5628    1.5199    0.0000 H   0  0  0  0  0  0  0  0  0  0  0  0
   10.2479   -0.2081    0.0000 H   0  0  0  0  0  0  0  0  0  0  0  0
   10.2479    0.6214    0.0000 H   0  0  0  0  0  0  0  0  0  0  0  0
    9.7973    2.4791    0.0000 H   0  0  0  0  0  0  0  0  0  0  0  0
    6.3131    1.2892    0.0000 H   0  0  0  0  0  0  0  0  0  0  0  0
    5.9145    0.5990    0.0000 H   0  0  0  0  0  0  0  0  0  0  0  0
    7.6252   -2.4153    0.0000 H   0  0  0  0  0  0  0  0  0  0  0  0
    8.0164   -1.7194    0.0000 H   0  0  0  0  0  0  0  0  0  0  0  0
    5.0965    0.2305    0.0000 H   0  0  0  0  0  0  0  0  0  0  0  0
    4.2984    0.2459    0.0000 H   0  0  0  0  0  0  0  0  0  0  0  0
    6.5116   -2.9826    0.0000 H   0  0  0  0  0  0  0  0  0  0  0  0
   10.8399    1.5855    0.0000 H   0  0  0  0  0  0  0  0  0  0  0  0
   11.2386    2.3664    0.0000 H   0  0  0  0  0  0  0  0  0  0  0  0
   10.4577    2.7652    0.0000 H   0  0  0  0  0  0  0  0  0  0  0  0
    6.2428    0.1950    0.0000 H   0  0  0  0  0  0  0  0  0  0  0  0
    5.6276    0.8197    0.0000 H   0  0  0  0  0  0  0  0  0  0  0  0
    5.0028    0.2045    0.0000 H   0  0  0  0  0  0  0  0  0  0  0  0
    4.2744   -2.8675    0.0000 H   0  0  0  0  0  0  0  0  0  0  0  0
    5.0726   -2.8644    0.0000 H   0  0  0  0  0  0  0  0  0  0  0  0
    3.5358   -0.1788    0.0000 H   0  0  0  0  0  0  0  0  0  0  0  0
    3.1288   -0.8655    0.0000 H   0  0  0  0  0  0  0  0  0  0  0  0
    9.6729    3.3441    0.0000 H   0  0  0  0  0  0  0  0  0  0  0  0
    9.0545    3.9657    0.0000 H   0  0  0  0  0  0  0  0  0  0  0  0
    8.4329    3.3473    0.0000 H   0  0  0  0  0  0  0  0  0  0  0  0
    3.7308   -2.4691    0.0000 H   0  0  0  0  0  0  0  0  0  0  0  0
    2.2402   -3.3433    0.0000 H   0  0  0  0  0  0  0  0  0  0  0  0
    2.8578   -3.9657    0.0000 H   0  0  0  0  0  0  0  0  0  0  0  0
    3.4802   -3.3481    0.0000 H   0  0  0  0  0  0  0  0  0  0  0  0
    2.3121   -1.3066    0.0000 H   0  0  0  0  0  0  0  0  0  0  0  0
    1.4643   -1.5303    0.0000 H   0  0  0  0  0  0  0  0  0  0  0  0
    1.6879   -2.3781    0.0000 H   0  0  0  0  0  0  0  0  0  0  0  0
  1 10  1  0  0  0  0
  1 12  1  0  0  0  0
  1 23  1  0  0  0  0
 24  2  1  1  0  0  0
  2 25  1  0  0  0  0
  2 26  1  0  0  0  0
  3  4  1  0  0  0  0
  3  5  1  0  0  0  0
  3  8  1  6  0  0  0
  3 10  1  0  0  0  0
  4  6  1  0  0  0  0
  4  9  1  0  0  0  0
  4 27  1  6  0  0  0
  5 11  1  0  0  0  0
  5 12  1  0  0  0  0
  5 28  1  6  0  0  0
  6  7  1  0  0  0  0
  6 15  1  0  0  0  0
  6 29  1  1  0  0  0
  7 13  1  0  0  0  0
  7 14  1  0  0  0  0
  7 30  1  6  0  0  0
  8 13  1  0  0  0  0
  8 31  1  0  0  0  0
  8 32  1  0  0  0  0
  9 11  1  0  0  0  0
  9 33  1  0  0  0  0
  9 34  1  0  0  0  0
 10 35  1  0  0  0  0
 10 36  1  0  0  0  0
 11 37  1  0  0  0  0
 11 38  1  0  0  0  0
 12 19  1  1  0  0  0
 12 39  1  0  0  0  0
 13 40  1  0  0  0  0
 13 41  1  0  0  0  0
 14 16  1  0  0  0  0
 14 17  1  0  0  0  0
 14 20  1  1  0  0  0
 15 18  1  0  0  0  0
 15 42  1  0  0  0  0
 15 43  1  0  0  0  0
 16 18  2  0  0  0  0
 16 21  1  0  0  0  0
 17 22  1  0  0  0  0
 17 44  1  0  0  0  0
 17 45  1  0  0  0  0
 18 46  1  0  0  0  0
 19 47  1  0  0  0  0
 19 48  1  0  0  0  0
 19 49  1  0  0  0  0
 20 50  1  0  0  0  0
 20 51  1  0  0  0  0
 20 52  1  0  0  0  0
 21 24  1  0  0  0  0
 21 53  1  0  0  0  0
 21 54  1  0  0  0  0
 22 24  1  0  0  0  0
 22 55  1  0  0  0  0
 22 56  1  0  0  0  0
 23 57  1  0  0  0  0
 23 58  1  0  0  0  0
 23 59  1  0  0  0  0
 24 60  1  0  0  0  0
 25 64  1  0  0  0  0
 25 65  1  0  0  0  0
 25 66  1  0  0  0  0
 26 61  1  0  0  0  0
 26 62  1  0  0  0  0
 26 63  1  0  0  0  0
M  END
> <PUBCHEM_COMPOUND_CID>
441082

> <PUBCHEM_COMPOUND_CANONICALIZED>
1

> <PUBCHEM_CACTVS_COMPLEXITY>
609

> <PUBCHEM_CACTVS_HBOND_ACCEPTOR>
2

> <PUBCHEM_CACTVS_HBOND_DONOR>
0

> <PUBCHEM_CACTVS_ROTATABLE_BOND>
1

> <PUBCHEM_CACTVS_SUBSKEYS>
AAADcfB7AAAAAAAAAAAAAAAAAAAAAeIAAAAwYIAAAAAWAGCAAAAAHAAAAAAADyjBAAQCAAMAAACAAiBCAAAAAAAgAAAACAAIAAgAAAIAgQAEAAAAgACIAAMQgMAPgAAAAAAAAACQAAQAACAAAQAACAAAAA==

> <PUBCHEM_IUPAC_INCHI>
InChI=1S/C24H40N2/c1-16-20-8-9-22-19-7-6-17-14-18(25(3)4)10-12-23(17,2)21(19)11-13-24(20,22)15-26(16)5/h6,16,18-22H,7-15H2,1-5H3/t16-,18-,19+,20+,21-,22-,23-,24-/m0/s1

> <PUBCHEM_IUPAC_INCHIKEY>
GPLGAQQQNWMVMM-MYAJQUOBSA-N

> <PUBCHEM_XLOGP3_AA>
4.9

> <PUBCHEM_EXACT_MASS>
356.319149

> <PUBCHEM_MOLECULAR_FORMULA>
C24H40N2

> <PUBCHEM_MOLECULAR_WEIGHT>
356.5878

> <PUBCHEM_OPENEYE_CAN_SMILES>
CC1C2CCC3C2(CCC4C3CC=C5C4(CCC(C5)N(C)C)C)CN1C

> <PUBCHEM_OPENEYE_ISO_SMILES>
C[C@H]1[C@H]2CC[C@@H]3[C@@]2(CC[C@H]4[C@H]3CC=C5[C@@]4(CC[C@@H](C5)N(C)C)C)CN1C

> <PUBCHEM_CACTVS_TPSA>
6.5

> <PUBCHEM_MONOISOTOPIC_WEIGHT>
356.319149

> <PUBCHEM_TOTAL_CHARGE>
0

> <PUBCHEM_HEAVY_ATOM_COUNT>
26

> <PUBCHEM_ATOM_DEF_STEREO_COUNT>
8

> <PUBCHEM_ATOM_UDEF_STEREO_COUNT>
0

> <PUBCHEM_BOND_DEF_STEREO_COUNT>
0

> <PUBCHEM_BOND_UDEF_STEREO_COUNT>
0

> <PUBCHEM_ISOTOPIC_ATOM_COUNT>
0

> <PUBCHEM_COMPONENT_COUNT>
1

> <PUBCHEM_CACTVS_TAUTO_COUNT>
1

> <PUBCHEM_COORDINATE_TYPE>
1
5
255

> <PUBCHEM_BONDANNOTATIONS>
12  19  5
14  20  5
24  2  5
3  8  6
4  27  6
5  28  6
6  29  5
7  30  6

$$$$

