   Color/Form
        PURE CMPD IS ALMOST COLORLESS LIQUID
   from [1]HSDB

   Boiling Point
        80 DEG C
   from [2]HSDB

   Melting Point
        -1.7 DEG C
   from [3]HSDB

   Density/Specific Gravity
        1.204-1.210 @ 25 DEG C
   from [4]HSDB

   Solubilities

     * MISCIBLE WITH MOST ORG SOLVENTS
     * 1140 PPM IN WATER @ 24.8 DEG C
     * MISCIBLE WITH POLYETHYLENE GLYCOLS & DIMETYL FORMAMIDE

   from [5]HSDB

   Spectral Properties

     * INDEX OF REFRACTION: 1.5131 @ 25 DEG C/D
     * Intense mass spectral peaks: 107 m/z (100%), 96 m/z (98%), 106 m/z
       (73%), 97 m/z (64%)

   from [6]HSDB

   Vapor Pressure
        3X10-3 MM HG @ 30 DEG C
   from [7]HSDB

   Other Chemical/Physical Properties

     * HYDROLYZED BY ALKALI TO SODIUM PYRAZINOLATE
     * TECHNICAL PRODUCT IS LIGHT BROWN TO TAN, RELATIVELY MOBILE LIQUID

   from [8]HSDB

   Computed Properties
   Molecular Weight                  248.239182 [g/mol]
   Molecular Formula                 C[8]H[13]N[2]O[3]PS
   XLogP3-AA                         2
   H-Bond Donor                      0
   H-Bond Acceptor                   6
   Rotatable Bond Count              6
   Exact Mass                        248.03845
   MonoIsotopic Mass                 248.03845
   Topological Polar Surface Area    85.6
   Heavy Atom Count                  15
   Formal Charge                     0
   Complexity                        220
   Isotope Atom Count                0
   Defined Atom Stereocenter Count   0
   Undefined Atom Stereocenter Count 0
   Defined Bond Stereocenter Count   0
   Undefined Bond Stereocenter Count 0
   Covalently-Bonded Unit Count      1
   Feature 3D Acceptor Count         1
   Feature 3D Ring Count             1
   Effective Rotor Count             6
   Conformer Sampling RMSD           0.6
   CID Conformer Count               [9]137

References

   1. http://toxnet.nlm.nih.gov/cgi-bin/sis/search/r?dbs+hsdb:@term+@rn+@rel+297-97-2
   2. http://toxnet.nlm.nih.gov/cgi-bin/sis/search/r?dbs+hsdb:@term+@rn+@rel+297-97-2
   3. http://toxnet.nlm.nih.gov/cgi-bin/sis/search/r?dbs+hsdb:@term+@rn+@rel+297-97-2
   4. http://toxnet.nlm.nih.gov/cgi-bin/sis/search/r?dbs+hsdb:@term+@rn+@rel+297-97-2
   5. http://toxnet.nlm.nih.gov/cgi-bin/sis/search/r?dbs+hsdb:@term+@rn+@rel+297-97-2
   6. http://toxnet.nlm.nih.gov/cgi-bin/sis/search/r?dbs+hsdb:@term+@rn+@rel+297-97-2
   7. http://toxnet.nlm.nih.gov/cgi-bin/sis/search/r?dbs+hsdb:@term+@rn+@rel+297-97-2
   8. http://toxnet.nlm.nih.gov/cgi-bin/sis/search/r?dbs+hsdb:@term+@rn+@rel+297-97-2
   9. http://pubchem.ncbi.nlm.nih.gov/vw3d/vw3d.cgi?cid=9272
