441993
  -OEChem-07051212562D

 44 47  0     0  0  0  0  0  0999 V2000
    6.6108    0.4910    0.0000 O   0  0  0  0  0  0  0  0  0  0  0  0
    3.5346   -1.2530    0.0000 O   0  0  0  0  0  0  0  0  0  0  0  0
    3.5624    2.2830    0.0000 O   0  0  0  0  0  0  0  0  0  0  0  0
    2.0378   -0.3808    0.0000 O   0  0  0  0  0  0  0  0  0  0  0  0
    4.0484   -2.1590    0.0000 C   0  0  0  0  0  0  0  0  0  0  0  0
    7.1385    1.3890    0.0000 C   0  0  0  0  0  0  0  0  0  0  0  0
    5.0693   -0.3590    0.0000 C   0  0  0  0  0  0  0  0  0  0  0  0
    5.5693    0.5070    0.0000 C   0  0  0  0  0  0  0  0  0  0  0  0
    4.0693   -0.3590    0.0000 C   0  0  0  0  0  0  0  0  0  0  0  0
    5.0693    1.3730    0.0000 C   0  0  0  0  0  0  0  0  0  0  0  0
    3.5693    0.5070    0.0000 C   0  0  0  0  0  0  0  0  0  0  0  0
    4.0693    1.3730    0.0000 C   0  0  0  0  0  0  0  0  0  0  0  0
    5.0901   -2.1590    0.0000 C   0  0  0  0  0  0  0  0  0  0  0  0
    5.6039   -1.2530    0.0000 C   0  0  0  0  0  0  0  0  0  0  0  0
    6.6177    2.2911    0.0000 C   0  0  0  0  0  0  0  0  0  0  0  0
    5.5761    2.2830    0.0000 C   0  0  0  0  0  0  0  0  0  0  0  0
    4.0446   -3.1590    0.0000 C   0  0  0  0  0  0  0  0  0  0  0  0
    3.1805   -2.6557    0.0000 C   0  0  0  0  0  0  0  0  0  0  0  0
    8.0065    1.8856    0.0000 C   0  0  0  0  0  0  0  0  0  0  0  0
    8.0026    0.8857    0.0000 C   0  0  0  0  0  0  0  0  0  0  0  0
    2.5278    0.4910    0.0000 C   0  0  0  0  0  0  0  0  0  0  0  0
    2.5208    2.2911    0.0000 C   0  0  0  0  0  0  0  0  0  0  0  0
    2.0000    1.3890    0.0000 C   0  0  0  0  0  0  0  0  0  0  0  0
    2.0242    3.1590    0.0000 C   0  0  0  0  0  0  0  0  0  0  0  0
    5.4021   -2.6948    0.0000 H   0  0  0  0  0  0  0  0  0  0  0  0
    6.2239   -1.2458    0.0000 H   0  0  0  0  0  0  0  0  0  0  0  0
    6.9256    2.8292    0.0000 H   0  0  0  0  0  0  0  0  0  0  0  0
    5.2599    2.8164    0.0000 H   0  0  0  0  0  0  0  0  0  0  0  0
    2.8726   -2.1176    0.0000 H   0  0  0  0  0  0  0  0  0  0  0  0
    2.6424   -2.9636    0.0000 H   0  0  0  0  0  0  0  0  0  0  0  0
    3.4884   -3.1938    0.0000 H   0  0  0  0  0  0  0  0  0  0  0  0
    3.4246   -3.1566    0.0000 H   0  0  0  0  0  0  0  0  0  0  0  0
    4.0422   -3.7790    0.0000 H   0  0  0  0  0  0  0  0  0  0  0  0
    4.6646   -3.1614    0.0000 H   0  0  0  0  0  0  0  0  0  0  0  0
    8.3144    1.3475    0.0000 H   0  0  0  0  0  0  0  0  0  0  0  0
    8.5446    2.1936    0.0000 H   0  0  0  0  0  0  0  0  0  0  0  0
    7.6985    2.4238    0.0000 H   0  0  0  0  0  0  0  0  0  0  0  0
    7.6906    0.3499    0.0000 H   0  0  0  0  0  0  0  0  0  0  0  0
    8.5384    0.5736    0.0000 H   0  0  0  0  0  0  0  0  0  0  0  0
    8.3147    1.4214    0.0000 H   0  0  0  0  0  0  0  0  0  0  0  0
    1.3800    1.3866    0.0000 H   0  0  0  0  0  0  0  0  0  0  0  0
    2.5623    3.4669    0.0000 H   0  0  0  0  0  0  0  0  0  0  0  0
    1.7162    3.6971    0.0000 H   0  0  0  0  0  0  0  0  0  0  0  0
    1.4860    2.8511    0.0000 H   0  0  0  0  0  0  0  0  0  0  0  0
  1  6  1  0  0  0  0
  1  8  1  0  0  0  0
  2  5  1  0  0  0  0
  2  9  1  0  0  0  0
  3 12  1  0  0  0  0
  3 22  1  0  0  0  0
  4 21  2  0  0  0  0
  5 13  1  0  0  0  0
  5 17  1  0  0  0  0
  5 18  1  0  0  0  0
  6 15  1  0  0  0  0
  6 19  1  0  0  0  0
  6 20  1  0  0  0  0
  7  8  2  0  0  0  0
  7  9  1  0  0  0  0
  7 14  1  0  0  0  0
  8 10  1  0  0  0  0
  9 11  2  0  0  0  0
 10 12  2  0  0  0  0
 10 16  1  0  0  0  0
 11 12  1  0  0  0  0
 11 21  1  0  0  0  0
 13 14  2  0  0  0  0
 13 25  1  0  0  0  0
 14 26  1  0  0  0  0
 15 16  2  0  0  0  0
 15 27  1  0  0  0  0
 16 28  1  0  0  0  0
 17 32  1  0  0  0  0
 17 33  1  0  0  0  0
 17 34  1  0  0  0  0
 18 29  1  0  0  0  0
 18 30  1  0  0  0  0
 18 31  1  0  0  0  0
 19 35  1  0  0  0  0
 19 36  1  0  0  0  0
 19 37  1  0  0  0  0
 20 38  1  0  0  0  0
 20 39  1  0  0  0  0
 20 40  1  0  0  0  0
 21 23  1  0  0  0  0
 22 23  2  0  0  0  0
 22 24  1  0  0  0  0
 23 41  1  0  0  0  0
 24 42  1  0  0  0  0
 24 43  1  0  0  0  0
 24 44  1  0  0  0  0
M  END
> <PUBCHEM_COMPOUND_CID>
441993

> <PUBCHEM_COMPOUND_CANONICALIZED>
1

> <PUBCHEM_CACTVS_COMPLEXITY>
655

> <PUBCHEM_CACTVS_HBOND_ACCEPTOR>
4

> <PUBCHEM_CACTVS_HBOND_DONOR>
0

> <PUBCHEM_CACTVS_ROTATABLE_BOND>
0

> <PUBCHEM_CACTVS_SUBSKEYS>
AAADceB4OAAAAAAAAAAAAAAAAAAAAAAAAAAwQIEAAAAAAACBAAAAGgAAAAAADESAmAACBoAABACIAqBSAAACCAAkIAAIiAEECMgMJzaENRqCOWCl4BUIqQeI7OzOIAACCAAIAABAAAQQABAAAAAAAAAAAA==

> <PUBCHEM_IUPAC_INCHI>
InChI=1S/C20H20O4/c1-11-10-14(21)15-17(22-11)12-6-8-19(2,3)23-16(12)13-7-9-20(4,5)24-18(13)15/h6-10H,1-5H3

> <PUBCHEM_IUPAC_INCHIKEY>
CUFLINMPEWUGEH-UHFFFAOYSA-N

> <PUBCHEM_XLOGP3_AA>
3.8

> <PUBCHEM_EXACT_MASS>
324.136159

> <PUBCHEM_MOLECULAR_FORMULA>
C20H20O4

> <PUBCHEM_MOLECULAR_WEIGHT>
324.3704

> <PUBCHEM_OPENEYE_CAN_SMILES>
CC1=CC(=O)C2=C(O1)C3=C(C4=C2OC(C=C4)(C)C)OC(C=C3)(C)C

> <PUBCHEM_OPENEYE_ISO_SMILES>
CC1=CC(=O)C2=C(O1)C3=C(C4=C2OC(C=C4)(C)C)OC(C=C3)(C)C

> <PUBCHEM_CACTVS_TPSA>
44.8

> <PUBCHEM_MONOISOTOPIC_WEIGHT>
324.136159

> <PUBCHEM_TOTAL_CHARGE>
0

> <PUBCHEM_HEAVY_ATOM_COUNT>
24

> <PUBCHEM_ATOM_DEF_STEREO_COUNT>
0

> <PUBCHEM_ATOM_UDEF_STEREO_COUNT>
0

> <PUBCHEM_BOND_DEF_STEREO_COUNT>
0

> <PUBCHEM_BOND_UDEF_STEREO_COUNT>
0

> <PUBCHEM_ISOTOPIC_ATOM_COUNT>
0

> <PUBCHEM_COMPONENT_COUNT>
1

> <PUBCHEM_CACTVS_TAUTO_COUNT>
3

> <PUBCHEM_COORDINATE_TYPE>
1
5
255

> <PUBCHEM_BONDANNOTATIONS>
10  12  8
11  12  8
11  21  8
21  23  8
22  23  8
3  12  8
3  22  8
7  8  8
7  9  8
8  10  8
9  11  8

$$$$

