   Color/Form

     * White crytals
     * White to pale yellow solid
     * Colorless crystals

   from [1]HSDB

   Odor
        Faint, sweet, ester-like
   from [2]HSDB

   Melting Point
        163 deg C
   from [3]HSDB

   Dissociation Constants
        pKa = 3.8 at 20 deg C
   from [4]HSDB

   Octanol/Water Partition Coefficient
        log Kow = 2.20
   from [5]HSDB

   Solubilities

     * Solubility (mg/L at 25 deg C): hexane 5.84X10-1, ethyl acetate
       1.11X10+4, methanol 7.63X10+3, acetone 3.7X10+4, dichloromethane
       1.32X10+5, toluene 1.24X10+3.
     * In water, 9.50X10+3 mg/L at 25 deg C

   from [6]HSDB

   Vapor Pressure
        2.5X10-12 mm Hg at 25 deg C
   from [7]HSDB

   Other Chemical/Physical Properties
        Henry's Law constant = 1.32X10-16 atm-cu m/mole at 25 deg C (est)
   from [8]HSDB

   Computed Properties
   Molecular Weight                  381.3638 [g/mol]
   Molecular Formula                 C[14]H[15]N[5]O[6]S
   XLogP3-AA                         1.5
   H-Bond Donor                      2
   H-Bond Acceptor                   9
   Rotatable Bond Count              6
   Tautomer Count                    9
   Exact Mass                        381.074304
   MonoIsotopic Mass                 381.074304
   Topological Polar Surface Area    158
   Heavy Atom Count                  26
   Formal Charge                     0
   Complexity                        609
   Isotope Atom Count                0
   Defined Atom Stereocenter Count   0
   Undefined Atom Stereocenter Count 0
   Defined Bond Stereocenter Count   0
   Undefined Bond Stereocenter Count 0
   Covalently-Bonded Unit Count      1
   Feature 3D Acceptor Count         4
   Feature 3D Donor Count            2
   Feature 3D Cation Count           2
   Feature 3D Ring Count             2
   Effective Rotor Count             8
   Conformer Sampling RMSD           0.8
   CID Conformer Count               [9]463

References

   1. http://toxnet.nlm.nih.gov/cgi-bin/sis/search/r?dbs+hsdb:@term+@rn+@rel+74223-64-6
   2. http://toxnet.nlm.nih.gov/cgi-bin/sis/search/r?dbs+hsdb:@term+@rn+@rel+74223-64-6
   3. http://toxnet.nlm.nih.gov/cgi-bin/sis/search/r?dbs+hsdb:@term+@rn+@rel+74223-64-6
   4. http://toxnet.nlm.nih.gov/cgi-bin/sis/search/r?dbs+hsdb:@term+@rn+@rel+74223-64-6
   5. http://toxnet.nlm.nih.gov/cgi-bin/sis/search/r?dbs+hsdb:@term+@rn+@rel+74223-64-6
   6. http://toxnet.nlm.nih.gov/cgi-bin/sis/search/r?dbs+hsdb:@term+@rn+@rel+74223-64-6
   7. http://toxnet.nlm.nih.gov/cgi-bin/sis/search/r?dbs+hsdb:@term+@rn+@rel+74223-64-6
   8. http://toxnet.nlm.nih.gov/cgi-bin/sis/search/r?dbs+hsdb:@term+@rn+@rel+74223-64-6
   9. http://pubchem.ncbi.nlm.nih.gov/vw3d/vw3d.cgi?cid=52999
