   Color/Form

     * Crystals from acetone
     * Solid

   from [1]HSDB

   Melting Point
        143-147 deg C
   from [2]HSDB

   Dissociation Constants
        pKa1 = 7.99; pKa2 = 8.93; pKa3 = 9.92 (est)
   from [3]HSDB

   Octanol/Water Partition Coefficient
        log Kow = 6.09 (est)
   from [4]HSDB

   Solubilities

     * In water, 0.25 mg/L, temp not specified
     * In water, 0.26 mg/L at 25 deg C (est)

   from [5]HSDB

   Spectral Properties
        UV max (ethanol): 290 (epsilon 34000)
   from [6]HSDB

   Other Chemical/Physical Properties

     * log Kow/Hydrophobicity = 5.749
     * Off-white to pale-yellow solid ... very slightly soluble in water
       /Hydrochloride/
     * Crystals from methanol/water; mp: 258 deg C; UV max (ethanol): 286
       nm (epsilon 32800) /Hydrochloride/

   from [7]HSDB

   Computed Properties
   Molecular Weight                  473.58328 [g/mol]
   Molecular Formula                 C[28]H[27]NO[4]S
   XLogP3-AA                         6.1
   H-Bond Donor                      2
   H-Bond Acceptor                   6
   Rotatable Bond Count              7
   Tautomer Count                    17
   Exact Mass                        473.166079
   MonoIsotopic Mass                 473.166079
   Topological Polar Surface Area    98.2
   Heavy Atom Count                  34
   Formal Charge                     0
   Complexity                        655
   Isotope Atom Count                0
   Defined Atom Stereocenter Count   0
   Undefined Atom Stereocenter Count 0
   Defined Bond Stereocenter Count   0
   Undefined Bond Stereocenter Count 0
   Covalently-Bonded Unit Count      1
   Feature 3D Acceptor Count         2
   Feature 3D Donor Count            2
   Feature 3D Cation Count           1
   Feature 3D Ring Count             5
   Effective Rotor Count             8.2
   Conformer Sampling RMSD           1
   CID Conformer Count               [8]89

References

   1. http://toxnet.nlm.nih.gov/cgi-bin/sis/search/r?dbs+hsdb:@term+@rn+@rel+84449-90-1
   2. http://toxnet.nlm.nih.gov/cgi-bin/sis/search/r?dbs+hsdb:@term+@rn+@rel+84449-90-1
   3. http://toxnet.nlm.nih.gov/cgi-bin/sis/search/r?dbs+hsdb:@term+@rn+@rel+84449-90-1
   4. http://toxnet.nlm.nih.gov/cgi-bin/sis/search/r?dbs+hsdb:@term+@rn+@rel+84449-90-1
   5. http://toxnet.nlm.nih.gov/cgi-bin/sis/search/r?dbs+hsdb:@term+@rn+@rel+84449-90-1
   6. http://toxnet.nlm.nih.gov/cgi-bin/sis/search/r?dbs+hsdb:@term+@rn+@rel+84449-90-1
   7. http://toxnet.nlm.nih.gov/cgi-bin/sis/search/r?dbs+hsdb:@term+@rn+@rel+84449-90-1
   8. http://pubchem.ncbi.nlm.nih.gov/vw3d/vw3d.cgi?cid=5035
