   Color/Form

     * Crystals from ethanol
     * White to faintly orange crystalline powder

   from [1]HSDB

   Melting Point
        215-216 deg C
   from [2]HSDB

   Dissociation Constants
        pKa = -0.65 (est)
   from [3]HSDB

   Octanol/Water Partition Coefficient
        log Kow = 1.11 (est)
   from [4]HSDB

   Solubilities

     * Slightly soluble in chloroform, dichloromethane, acetone, and
       methanol and practically insoluble in ethanol, ether, and water.
     * In water, 300 mg/L at 25 deg C (est)

   from [5]HSDB

   Vapor Pressure
        7.6X10-9 mm Hg at 25 deg C (est)
   from [6]HSDB

   Other Chemical/Physical Properties

     * Henry's Law constant = 6.9X10-13 atm-cu m/mol at 25 deg C (est)
     * Hydroxyl radical reaction rate constant = 2.8X10-11 cu cm/molec-sec
       at 25 deg C (est)

   from [7]HSDB

   Computed Properties
   Molecular Weight                  252.26798 [g/mol]
   Molecular Formula                 C[15]H[12]N[2]O[2]
   XLogP3-AA                         1.7
   H-Bond Donor                      1
   H-Bond Acceptor                   2
   Rotatable Bond Count              0
   Tautomer Count                    4
   Exact Mass                        252.089878
   MonoIsotopic Mass                 252.089878
   Topological Polar Surface Area    63.4
   Heavy Atom Count                  19
   Formal Charge                     0
   Complexity                        382
   Isotope Atom Count                0
   Defined Atom Stereocenter Count   0
   Undefined Atom Stereocenter Count 0
   Defined Bond Stereocenter Count   0
   Undefined Bond Stereocenter Count 0
   Covalently-Bonded Unit Count      1
   Feature 3D Acceptor Count         2
   Feature 3D Donor Count            1
   Feature 3D Ring Count             3
   Effective Rotor Count             1.4
   Conformer Sampling RMSD           0.6
   CID Conformer Count               [8]8

References

   1. http://toxnet.nlm.nih.gov/cgi-bin/sis/search/r?dbs+hsdb:@term+@rn+@rel+28721-07-5
   2. http://toxnet.nlm.nih.gov/cgi-bin/sis/search/r?dbs+hsdb:@term+@rn+@rel+28721-07-5
   3. http://toxnet.nlm.nih.gov/cgi-bin/sis/search/r?dbs+hsdb:@term+@rn+@rel+28721-07-5
   4. http://toxnet.nlm.nih.gov/cgi-bin/sis/search/r?dbs+hsdb:@term+@rn+@rel+28721-07-5
   5. http://toxnet.nlm.nih.gov/cgi-bin/sis/search/r?dbs+hsdb:@term+@rn+@rel+28721-07-5
   6. http://toxnet.nlm.nih.gov/cgi-bin/sis/search/r?dbs+hsdb:@term+@rn+@rel+28721-07-5
   7. http://toxnet.nlm.nih.gov/cgi-bin/sis/search/r?dbs+hsdb:@term+@rn+@rel+28721-07-5
   8. http://pubchem.ncbi.nlm.nih.gov/vw3d/vw3d.cgi?cid=34312
