9543674
  -OEChem-07051213152D

 54 53  0     0  0  0  0  0  0999 V2000
    2.5369   -2.9050    0.0000 O   0  0  0  0  0  0  0  0  0  0  0  0
   14.6613    4.0950    0.0000 O   0  0  0  0  0  0  0  0  0  0  0  0
    3.4030   -4.4050    0.0000 O   0  0  0  0  0  0  0  0  0  0  0  0
   15.5273    2.5950    0.0000 O   0  0  0  0  0  0  0  0  0  0  0  0
   12.0632   -0.4050    0.0000 C   0  0  0  0  0  0  0  0  0  0  0  0
    7.7331   -2.9050    0.0000 C   0  0  0  0  0  0  0  0  0  0  0  0
    6.8671   -3.4050    0.0000 C   0  0  0  0  0  0  0  0  0  0  0  0
   12.9292    0.0950    0.0000 C   0  0  0  0  0  0  0  0  0  0  0  0
   12.0632   -1.4050    0.0000 C   0  0  0  0  0  0  0  0  0  0  0  0
    8.5991   -3.4050    0.0000 C   0  0  0  0  0  0  0  0  0  0  0  0
    6.0010   -2.9050    0.0000 C   0  0  0  0  0  0  0  0  0  0  0  0
   12.9292    1.0950    0.0000 C   0  0  0  0  0  0  0  0  0  0  0  0
   11.1972   -1.9050    0.0000 C   0  0  0  0  0  0  0  0  0  0  0  0
    9.4651   -2.9050    0.0000 C   0  0  0  0  0  0  0  0  0  0  0  0
   13.7953    1.5950    0.0000 C   0  0  0  0  0  0  0  0  0  0  0  0
    5.1350   -3.4050    0.0000 C   0  0  0  0  0  0  0  0  0  0  0  0
   10.3312   -3.4050    0.0000 C   0  0  0  0  0  0  0  0  0  0  0  0
   11.1972   -2.9050    0.0000 C   0  0  0  0  0  0  0  0  0  0  0  0
    4.2690   -2.9050    0.0000 C   0  0  0  0  0  0  0  0  0  0  0  0
   13.7953    2.5950    0.0000 C   0  0  0  0  0  0  0  0  0  0  0  0
   14.6613    3.0950    0.0000 C   0  0  0  0  0  0  0  0  0  0  0  0
    3.4030   -3.4050    0.0000 C   0  0  0  0  0  0  0  0  0  0  0  0
   11.8512    0.1776    0.0000 H   0  0  0  0  0  0  0  0  0  0  0  0
   11.4526   -0.5127    0.0000 H   0  0  0  0  0  0  0  0  0  0  0  0
    8.1316   -2.4300    0.0000 H   0  0  0  0  0  0  0  0  0  0  0  0
    7.3346   -2.4300    0.0000 H   0  0  0  0  0  0  0  0  0  0  0  0
    6.4685   -3.8800    0.0000 H   0  0  0  0  0  0  0  0  0  0  0  0
    7.2656   -3.8800    0.0000 H   0  0  0  0  0  0  0  0  0  0  0  0
   13.1413   -0.4876    0.0000 H   0  0  0  0  0  0  0  0  0  0  0  0
   13.5398    0.2027    0.0000 H   0  0  0  0  0  0  0  0  0  0  0  0
   12.2753   -1.9876    0.0000 H   0  0  0  0  0  0  0  0  0  0  0  0
   12.6738   -1.2973    0.0000 H   0  0  0  0  0  0  0  0  0  0  0  0
    8.2006   -3.8800    0.0000 H   0  0  0  0  0  0  0  0  0  0  0  0
    8.9976   -3.8800    0.0000 H   0  0  0  0  0  0  0  0  0  0  0  0
    6.3996   -2.4300    0.0000 H   0  0  0  0  0  0  0  0  0  0  0  0
    5.6025   -2.4300    0.0000 H   0  0  0  0  0  0  0  0  0  0  0  0
   12.7172    1.6776    0.0000 H   0  0  0  0  0  0  0  0  0  0  0  0
   12.3187    0.9873    0.0000 H   0  0  0  0  0  0  0  0  0  0  0  0
   10.9851   -1.3224    0.0000 H   0  0  0  0  0  0  0  0  0  0  0  0
   10.5866   -2.0127    0.0000 H   0  0  0  0  0  0  0  0  0  0  0  0
    9.8637   -2.4300    0.0000 H   0  0  0  0  0  0  0  0  0  0  0  0
    9.0666   -2.4300    0.0000 H   0  0  0  0  0  0  0  0  0  0  0  0
    4.7365   -3.8800    0.0000 H   0  0  0  0  0  0  0  0  0  0  0  0
    5.5335   -3.8800    0.0000 H   0  0  0  0  0  0  0  0  0  0  0  0
   14.0073    1.0124    0.0000 H   0  0  0  0  0  0  0  0  0  0  0  0
   14.4058    1.7027    0.0000 H   0  0  0  0  0  0  0  0  0  0  0  0
   10.3312   -4.0250    0.0000 H   0  0  0  0  0  0  0  0  0  0  0  0
   11.7341   -3.2150    0.0000 H   0  0  0  0  0  0  0  0  0  0  0  0
    4.6675   -2.4300    0.0000 H   0  0  0  0  0  0  0  0  0  0  0  0
    3.8705   -2.4300    0.0000 H   0  0  0  0  0  0  0  0  0  0  0  0
   13.5832    3.1776    0.0000 H   0  0  0  0  0  0  0  0  0  0  0  0
   13.1847    2.4873    0.0000 H   0  0  0  0  0  0  0  0  0  0  0  0
   15.1982    4.4050    0.0000 H   0  0  0  0  0  0  0  0  0  0  0  0
    2.0000   -3.2150    0.0000 H   0  0  0  0  0  0  0  0  0  0  0  0
  1 22  1  0  0  0  0
  1 54  1  0  0  0  0
  2 21  1  0  0  0  0
  2 53  1  0  0  0  0
  3 22  2  0  0  0  0
  4 21  2  0  0  0  0
  5  8  1  0  0  0  0
  5  9  1  0  0  0  0
  5 23  1  0  0  0  0
  5 24  1  0  0  0  0
  6  7  1  0  0  0  0
  6 10  1  0  0  0  0
  6 25  1  0  0  0  0
  6 26  1  0  0  0  0
  7 11  1  0  0  0  0
  7 27  1  0  0  0  0
  7 28  1  0  0  0  0
  8 12  1  0  0  0  0
  8 29  1  0  0  0  0
  8 30  1  0  0  0  0
  9 13  1  0  0  0  0
  9 31  1  0  0  0  0
  9 32  1  0  0  0  0
 10 14  1  0  0  0  0
 10 33  1  0  0  0  0
 10 34  1  0  0  0  0
 11 16  1  0  0  0  0
 11 35  1  0  0  0  0
 11 36  1  0  0  0  0
 12 15  1  0  0  0  0
 12 37  1  0  0  0  0
 12 38  1  0  0  0  0
 13 18  1  0  0  0  0
 13 39  1  0  0  0  0
 13 40  1  0  0  0  0
 14 17  1  0  0  0  0
 14 41  1  0  0  0  0
 14 42  1  0  0  0  0
 15 20  1  0  0  0  0
 15 45  1  0  0  0  0
 15 46  1  0  0  0  0
 16 19  1  0  0  0  0
 16 43  1  0  0  0  0
 16 44  1  0  0  0  0
 17 18  2  0  0  0  0
 17 47  1  0  0  0  0
 18 48  1  0  0  0  0
 19 22  1  0  0  0  0
 19 49  1  0  0  0  0
 19 50  1  0  0  0  0
 20 21  1  0  0  0  0
 20 51  1  0  0  0  0
 20 52  1  0  0  0  0
M  END
> <PUBCHEM_COMPOUND_CID>
9543674

> <PUBCHEM_COMPOUND_CANONICALIZED>
1

> <PUBCHEM_CACTVS_COMPLEXITY>
280

> <PUBCHEM_CACTVS_HBOND_ACCEPTOR>
4

> <PUBCHEM_CACTVS_HBOND_DONOR>
2

> <PUBCHEM_CACTVS_ROTATABLE_BOND>
16

> <PUBCHEM_CACTVS_SUBSKEYS>
AAADcfB4OAAAAAAAAAAAAAAAAAAAAAAAAAAAAAAAAAAAAAAAAAAAGgAACAAACACAgAAACAAAAgCIACDSCAAAAAAgAAAICAEAAAgAABIAAQAAQAAEgAAIAAOIyKCAAAAAAAAAAAAAAAAAAAAAAAAAAAAAAA==

> <PUBCHEM_IUPAC_OPENEYE_NAME>
(Z)-octadec-9-enedioic acid

> <PUBCHEM_IUPAC_CAS_NAME>
(Z)-9-octadecenedioic acid

> <PUBCHEM_IUPAC_NAME>
(Z)-octadec-9-enedioic acid

> <PUBCHEM_IUPAC_SYSTEMATIC_NAME>
(Z)-octadec-9-enedioic acid

> <PUBCHEM_IUPAC_TRADITIONAL_NAME>
(Z)-octadec-9-enedioic acid

> <PUBCHEM_IUPAC_INCHI>
InChI=1S/C18H32O4/c19-17(20)15-13-11-9-7-5-3-1-2-4-6-8-10-12-14-16-18(21)22/h1-2H,3-16H2,(H,19,20)(H,21,22)/b2-1-

> <PUBCHEM_IUPAC_INCHIKEY>
SBLKVIQSIHEQOF-UPHRSURJSA-N

> <PUBCHEM_XLOGP3>
5.5

> <PUBCHEM_EXACT_MASS>
312.23006

> <PUBCHEM_MOLECULAR_FORMULA>
C18H32O4

> <PUBCHEM_MOLECULAR_WEIGHT>
312.44428

> <PUBCHEM_OPENEYE_CAN_SMILES>
C(CCCC=CCCCCCCCC(=O)O)CCCC(=O)O

> <PUBCHEM_OPENEYE_ISO_SMILES>
C(CCC/C=C\CCCCCCCC(=O)O)CCCC(=O)O

> <PUBCHEM_CACTVS_TPSA>
74.6

> <PUBCHEM_MONOISOTOPIC_WEIGHT>
312.23006

> <PUBCHEM_TOTAL_CHARGE>
0

> <PUBCHEM_HEAVY_ATOM_COUNT>
22

> <PUBCHEM_ATOM_DEF_STEREO_COUNT>
0

> <PUBCHEM_ATOM_UDEF_STEREO_COUNT>
0

> <PUBCHEM_BOND_DEF_STEREO_COUNT>
1

> <PUBCHEM_BOND_UDEF_STEREO_COUNT>
0

> <PUBCHEM_ISOTOPIC_ATOM_COUNT>
0

> <PUBCHEM_COMPONENT_COUNT>
1

> <PUBCHEM_CACTVS_TAUTO_COUNT>
1

> <PUBCHEM_COORDINATE_TYPE>
1
5
255

$$$$

