439933
  -OEChem-07051212482D

 53 56  0     1  0  0  0  0  0999 V2000
    3.4022   -2.0032    0.0000 O   0  0  0  0  0  0  0  0  0  0  0  0
    2.5381   -1.4999    0.0000 O   0  0  0  0  0  0  0  0  0  0  0  0
    7.0632    0.0491    0.0000 C   0  0  3  0  0  0  0  0  0  0  0  0
    7.9293   -0.4509    0.0000 C   0  0  3  0  0  0  0  0  0  0  0  0
    6.1532   -0.4578    0.0000 C   0  0  3  0  0  0  0  0  0  0  0  0
    8.7953    0.0491    0.0000 C   0  0  3  0  0  0  0  0  0  0  0  0
    8.7953    1.0491    0.0000 C   0  0  3  0  0  0  0  0  0  0  0  0
    6.1452   -1.4994    0.0000 C   0  0  3  0  0  0  0  0  0  0  0  0
    7.0632    1.0491    0.0000 C   0  0  0  0  0  0  0  0  0  0  0  0
    7.9453   -1.4924    0.0000 C   0  0  0  0  0  0  0  0  0  0  0  0
    7.9293    1.5491    0.0000 C   0  0  0  0  0  0  0  0  0  0  0  0
    7.0473   -2.0202    0.0000 C   0  0  0  0  0  0  0  0  0  0  0  0
    9.7415   -0.2556    0.0000 C   0  0  0  0  0  0  0  0  0  0  0  0
    9.7415    1.3538    0.0000 C   0  0  0  0  0  0  0  0  0  0  0  0
    5.2264    0.1063    0.0000 C   0  0  0  0  0  0  0  0  0  0  0  0
   10.3251    0.5491    0.0000 C   0  0  0  0  0  0  0  0  0  0  0  0
    5.2098   -2.0491    0.0000 C   0  0  0  0  0  0  0  0  0  0  0  0
    6.1610    0.5422    0.0000 C   0  0  0  0  0  0  0  0  0  0  0  0
    8.7953    2.0491    0.0000 C   0  0  0  0  0  0  0  0  0  0  0  0
    4.2785   -0.4216    0.0000 C   0  0  0  0  0  0  0  0  0  0  0  0
    4.2702   -1.5066    0.0000 C   0  0  3  0  0  0  0  0  0  0  0  0
    7.7994    0.4741    0.0000 H   0  0  0  0  0  0  0  0  0  0  0  0
    8.6686   -0.8702    0.0000 H   0  0  0  0  0  0  0  0  0  0  0  0
    8.8852   -0.7961    0.0000 H   0  0  0  0  0  0  0  0  0  0  0  0
    6.1485   -2.3494    0.0000 H   0  0  0  0  0  0  0  0  0  0  0  0
    6.8512    1.6317    0.0000 H   0  0  0  0  0  0  0  0  0  0  0  0
    6.4527    0.9414    0.0000 H   0  0  0  0  0  0  0  0  0  0  0  0
    8.1634   -2.0728    0.0000 H   0  0  0  0  0  0  0  0  0  0  0  0
    8.5545   -1.3769    0.0000 H   0  0  0  0  0  0  0  0  0  0  0  0
    8.3278    2.0240    0.0000 H   0  0  0  0  0  0  0  0  0  0  0  0
    7.5308    2.0240    0.0000 H   0  0  0  0  0  0  0  0  0  0  0  0
    6.6500   -2.4962    0.0000 H   0  0  0  0  0  0  0  0  0  0  0  0
    7.4483   -2.4931    0.0000 H   0  0  0  0  0  0  0  0  0  0  0  0
    9.4905   -0.8226    0.0000 H   0  0  0  0  0  0  0  0  0  0  0  0
   10.2789   -0.5649    0.0000 H   0  0  0  0  0  0  0  0  0  0  0  0
   10.2789    1.6630    0.0000 H   0  0  0  0  0  0  0  0  0  0  0  0
    9.4905    1.9207    0.0000 H   0  0  0  0  0  0  0  0  0  0  0  0
    5.6346    0.5730    0.0000 H   0  0  0  0  0  0  0  0  0  0  0  0
    4.8365    0.5884    0.0000 H   0  0  0  0  0  0  0  0  0  0  0  0
   10.7860    0.1344    0.0000 H   0  0  0  0  0  0  0  0  0  0  0  0
   10.7860    0.9638    0.0000 H   0  0  0  0  0  0  0  0  0  0  0  0
    4.8125   -2.5251    0.0000 H   0  0  0  0  0  0  0  0  0  0  0  0
    5.6108   -2.5220    0.0000 H   0  0  0  0  0  0  0  0  0  0  0  0
    6.7809    0.5374    0.0000 H   0  0  0  0  0  0  0  0  0  0  0  0
    6.1657    1.1622    0.0000 H   0  0  0  0  0  0  0  0  0  0  0  0
    5.5410    0.5470    0.0000 H   0  0  0  0  0  0  0  0  0  0  0  0
    9.4153    2.0491    0.0000 H   0  0  0  0  0  0  0  0  0  0  0  0
    8.7953    2.6691    0.0000 H   0  0  0  0  0  0  0  0  0  0  0  0
    8.1753    2.0491    0.0000 H   0  0  0  0  0  0  0  0  0  0  0  0
    4.0740    0.1637    0.0000 H   0  0  0  0  0  0  0  0  0  0  0  0
    3.6669   -0.5230    0.0000 H   0  0  0  0  0  0  0  0  0  0  0  0
    3.5365   -1.0773    0.0000 H   0  0  0  0  0  0  0  0  0  0  0  0
    2.0000   -1.8078    0.0000 H   0  0  0  0  0  0  0  0  0  0  0  0
  1  2  1  0  0  0  0
  1 21  1  0  0  0  0
  2 53  1  0  0  0  0
  3  4  1  0  0  0  0
  3  5  1  0  0  0  0
  3  9  1  0  0  0  0
  3 22  1  0  0  0  0
  4  6  1  0  0  0  0
  4 10  1  0  0  0  0
  4 23  1  0  0  0  0
  5  8  1  0  0  0  0
  5 15  1  0  0  0  0
  5 18  1  0  0  0  0
  6  7  1  0  0  0  0
  6 13  1  0  0  0  0
  6 24  1  0  0  0  0
  7 11  1  0  0  0  0
  7 14  1  0  0  0  0
  7 19  1  0  0  0  0
  8 12  1  0  0  0  0
  8 17  1  0  0  0  0
  8 25  1  0  0  0  0
  9 11  1  0  0  0  0
  9 26  1  0  0  0  0
  9 27  1  0  0  0  0
 10 12  1  0  0  0  0
 10 28  1  0  0  0  0
 10 29  1  0  0  0  0
 11 30  1  0  0  0  0
 11 31  1  0  0  0  0
 12 32  1  0  0  0  0
 12 33  1  0  0  0  0
 13 16  1  0  0  0  0
 13 34  1  0  0  0  0
 13 35  1  0  0  0  0
 14 16  1  0  0  0  0
 14 36  1  0  0  0  0
 14 37  1  0  0  0  0
 15 20  1  0  0  0  0
 15 38  1  0  0  0  0
 15 39  1  0  0  0  0
 16 40  1  0  0  0  0
 16 41  1  0  0  0  0
 17 21  1  0  0  0  0
 17 42  1  0  0  0  0
 17 43  1  0  0  0  0
 18 44  1  0  0  0  0
 18 45  1  0  0  0  0
 18 46  1  0  0  0  0
 19 47  1  0  0  0  0
 19 48  1  0  0  0  0
 19 49  1  0  0  0  0
 20 21  1  0  0  0  0
 20 50  1  0  0  0  0
 20 51  1  0  0  0  0
 21 52  1  0  0  0  0
M  END
> <PUBCHEM_COMPOUND_CID>
439933

> <PUBCHEM_COMPOUND_CANONICALIZED>
1

> <PUBCHEM_CACTVS_COMPLEXITY>
408

> <PUBCHEM_CACTVS_HBOND_ACCEPTOR>
2

> <PUBCHEM_CACTVS_HBOND_DONOR>
1

> <PUBCHEM_CACTVS_ROTATABLE_BOND>
1

> <PUBCHEM_CACTVS_SUBSKEYS>
AAADcfB4MAAAAAAAAAAAAAAAAAAAAYAAAAAwYMAAAAAAAGDAAAAAGgAADAAADxSggAICAAAAAAAAAAAAAAAAAAAAAAAAAAAAAAAAAAIAAAAAAAAEAAAAAAGAwPAPgAAAAAAAAADAAAYAACAAAAAACAAAAA==

> <PUBCHEM_IUPAC_OPENEYE_NAME>
3-hydroperoxy-10,13-dimethyl-2,3,4,5,6,7,8,9,11,12,14,15,16,17-tetradecahydro-1H-cyclopenta[a]phenanthrene

> <PUBCHEM_IUPAC_CAS_NAME>
3-hydroperoxy-10,13-dimethyl-2,3,4,5,6,7,8,9,11,12,14,15,16,17-tetradecahydro-1H-cyclopenta[a]phenanthrene

> <PUBCHEM_IUPAC_NAME>
3-hydroperoxy-10,13-dimethyl-2,3,4,5,6,7,8,9,11,12,14,15,16,17-tetradecahydro-1H-cyclopenta[a]phenanthrene

> <PUBCHEM_IUPAC_SYSTEMATIC_NAME>
3-(dioxidanyl)-10,13-dimethyl-2,3,4,5,6,7,8,9,11,12,14,15,16,17-tetradecahydro-1H-cyclopenta[a]phenanthrene

> <PUBCHEM_IUPAC_TRADITIONAL_NAME>
3-hydroperoxy-10,13-dimethyl-2,3,4,5,6,7,8,9,11,12,14,15,16,17-tetradecahydro-1H-cyclopenta[a]phenanthrene

> <PUBCHEM_IUPAC_INCHI>
InChI=1S/C19H32O2/c1-18-9-3-4-16(18)15-6-5-13-12-14(21-20)7-11-19(13,2)17(15)8-10-18/h13-17,20H,3-12H2,1-2H3

> <PUBCHEM_IUPAC_INCHIKEY>
HJVRTUSHHWYOIN-UHFFFAOYSA-N

> <PUBCHEM_XLOGP3_AA>
5.9

> <PUBCHEM_EXACT_MASS>
292.24023

> <PUBCHEM_MOLECULAR_FORMULA>
C19H32O2

> <PUBCHEM_MOLECULAR_WEIGHT>
292.45618

> <PUBCHEM_OPENEYE_CAN_SMILES>
CC12CCCC1C3CCC4CC(CCC4(C3CC2)C)OO

> <PUBCHEM_OPENEYE_ISO_SMILES>
CC12CCCC1C3CCC4CC(CCC4(C3CC2)C)OO

> <PUBCHEM_CACTVS_TPSA>
29.5

> <PUBCHEM_MONOISOTOPIC_WEIGHT>
292.24023

> <PUBCHEM_TOTAL_CHARGE>
0

> <PUBCHEM_HEAVY_ATOM_COUNT>
21

> <PUBCHEM_ATOM_DEF_STEREO_COUNT>
0

> <PUBCHEM_ATOM_UDEF_STEREO_COUNT>
7

> <PUBCHEM_BOND_DEF_STEREO_COUNT>
0

> <PUBCHEM_BOND_UDEF_STEREO_COUNT>
0

> <PUBCHEM_ISOTOPIC_ATOM_COUNT>
0

> <PUBCHEM_COMPONENT_COUNT>
1

> <PUBCHEM_CACTVS_TAUTO_COUNT>
1

> <PUBCHEM_COORDINATE_TYPE>
1
5
255

> <PUBCHEM_BONDANNOTATIONS>
21  52  3
3  22  3
4  23  3
5  18  3
6  24  3
7  19  3
8  25  3

$$$$

