   Color/Form
        White crystalline solid
   from [1]HSDB

   Odor
        Odorless
   from [2]HSDB

   Melting Point
        107.5 deg C
   from [3]HSDB

   Density/Specific Gravity
        1.33 (specific gravity)
   from [4]HSDB

   Dissociation Constants
        No dissociation in the pH range of 1.4 to 12.3
   from [5]HSDB

   Octanol/Water Partition Coefficient
        log Kow = -0.644
   from [6]HSDB

   Solubilities
        In water, 54,300 mg/L at 20 deg C
   from [7]HSDB

   Vapor Pressure
        1.3X10-8 mm Hg at 25 deg C
   from [8]HSDB

   Other Chemical/Physical Properties

     * Henry's Law constant = 6.4X10-14 atm-cu m/mol at 25 deg C (est)
     * Hydroxyl radical reaction rate constant = 8.4X10-11 cu cm/molec-sec
       at 25 deg C (est)

   from [9]HSDB

   Computed Properties
   Molecular Weight                  202.21106 [g/mol]
   Molecular Formula                 C[7]H[14]N[4]O[3]
   XLogP3-AA                         0
   H-Bond Donor                      2
   H-Bond Acceptor                   4
   Rotatable Bond Count              4
   Tautomer Count                    3
   Exact Mass                        202.10659
   MonoIsotopic Mass                 202.10659
   Topological Polar Surface Area    91.5
   Heavy Atom Count                  14
   Formal Charge                     0
   Complexity                        226
   Isotope Atom Count                0
   Defined Atom Stereocenter Count   0
   Undefined Atom Stereocenter Count 1
   Defined Bond Stereocenter Count   0
   Undefined Bond Stereocenter Count 0
   Covalently-Bonded Unit Count      1
   Feature 3D Acceptor Count         3
   Feature 3D Donor Count            2
   Feature 3D Cation Count           1
   Feature 3D Ring Count             1
   Effective Rotor Count             6
   Conformer Sampling RMSD           0.6
   CID Conformer Count               [10]396

References

   1. http://toxnet.nlm.nih.gov/cgi-bin/sis/search/r?dbs+hsdb:@term+@rn+@rel+165252-70-0
   2. http://toxnet.nlm.nih.gov/cgi-bin/sis/search/r?dbs+hsdb:@term+@rn+@rel+165252-70-0
   3. http://toxnet.nlm.nih.gov/cgi-bin/sis/search/r?dbs+hsdb:@term+@rn+@rel+165252-70-0
   4. http://toxnet.nlm.nih.gov/cgi-bin/sis/search/r?dbs+hsdb:@term+@rn+@rel+165252-70-0
   5. http://toxnet.nlm.nih.gov/cgi-bin/sis/search/r?dbs+hsdb:@term+@rn+@rel+165252-70-0
   6. http://toxnet.nlm.nih.gov/cgi-bin/sis/search/r?dbs+hsdb:@term+@rn+@rel+165252-70-0
   7. http://toxnet.nlm.nih.gov/cgi-bin/sis/search/r?dbs+hsdb:@term+@rn+@rel+165252-70-0
   8. http://toxnet.nlm.nih.gov/cgi-bin/sis/search/r?dbs+hsdb:@term+@rn+@rel+165252-70-0
   9. http://toxnet.nlm.nih.gov/cgi-bin/sis/search/r?dbs+hsdb:@term+@rn+@rel+165252-70-0
  10. http://pubchem.ncbi.nlm.nih.gov/vw3d/vw3d.cgi?cid=197701
