443076
  -OEChem-07051213012D

 68 72  0     1  0  0  0  0  0999 V2000
   10.9293    4.2492    0.0000 O   0  0  0  0  0  0  0  0  0  0  0  0
    4.2793   -0.0584    0.0000 O   0  0  0  0  0  0  0  0  0  0  0  0
    4.2955    2.0332    0.0000 O   0  0  0  0  0  0  0  0  0  0  0  0
    5.1396   -1.5617    0.0000 O   0  0  0  0  0  0  0  0  0  0  0  0
    2.5434   -1.0517    0.0000 O   0  0  0  0  0  0  0  0  0  0  0  0
    2.5357   -3.0517    0.0000 O   0  0  0  0  0  0  0  0  0  0  0  0
    4.2639   -4.0583    0.0000 O   0  0  0  0  0  0  0  0  0  0  0  0
    5.9960   -4.0650    0.0000 O   0  0  0  0  0  0  0  0  0  0  0  0
    6.8678   -2.5684    0.0000 O   0  0  0  0  0  0  0  0  0  0  0  0
    9.6724    2.9940    0.0000 C   0  0  1  0  0  0  0  0  0  0  0  0
    9.6724    1.9940    0.0000 C   0  0  2  0  0  0  0  0  0  0  0  0
    8.8064    1.4940    0.0000 C   0  0  1  0  0  0  0  0  0  0  0  0
    7.9404    1.9940    0.0000 C   0  0  2  0  0  0  0  0  0  0  0  0
   10.6186    3.2987    0.0000 C   0  0  2  0  0  0  0  0  0  0  0  0
    8.8064    3.4940    0.0000 C   0  0  0  0  0  0  0  0  0  0  0  0
   10.6186    1.6892    0.0000 C   0  0  0  0  0  0  0  0  0  0  0  0
    7.9404    2.9940    0.0000 C   0  0  0  0  0  0  0  0  0  0  0  0
   11.2023    2.4940    0.0000 C   0  0  0  0  0  0  0  0  0  0  0  0
    8.8225    0.4525    0.0000 C   0  0  0  0  0  0  0  0  0  0  0  0
    9.6724    3.9940    0.0000 C   0  0  0  0  0  0  0  0  0  0  0  0
    7.0304    1.4871    0.0000 C   0  0  0  0  0  0  0  0  0  0  0  0
    7.9244   -0.0753    0.0000 C   0  0  0  0  0  0  0  0  0  0  0  0
    7.0223    0.4455    0.0000 C   0  0  0  0  0  0  0  0  0  0  0  0
    6.1035    2.0512    0.0000 C   0  0  0  0  0  0  0  0  0  0  0  0
    6.0869   -0.1042    0.0000 C   0  0  0  0  0  0  0  0  0  0  0  0
    5.1556    1.5233    0.0000 C   0  0  0  0  0  0  0  0  0  0  0  0
    5.1473    0.4383    0.0000 C   0  0  0  0  0  0  0  0  0  0  0  0
    4.2755   -1.0584    0.0000 C   0  0  2  0  0  0  0  0  0  0  0  0
    3.4075   -1.5550    0.0000 C   0  0  1  0  0  0  0  0  0  0  0  0
    3.4037   -2.5550    0.0000 C   0  0  2  0  0  0  0  0  0  0  0  0
    4.2678   -3.0583    0.0000 C   0  0  1  0  0  0  0  0  0  0  0  0
    5.1357   -2.5617    0.0000 C   0  0  1  0  0  0  0  0  0  0  0  0
    4.3070    3.0332    0.0000 C   0  0  0  0  0  0  0  0  0  0  0  0
    5.9998   -3.0650    0.0000 C   0  0  0  0  0  0  0  0  0  0  0  0
    9.7624    1.1487    0.0000 H   0  0  0  0  0  0  0  0  0  0  0  0
    9.5458    1.0747    0.0000 H   0  0  0  0  0  0  0  0  0  0  0  0
    8.6765    2.4190    0.0000 H   0  0  0  0  0  0  0  0  0  0  0  0
   11.2311    3.3949    0.0000 H   0  0  0  0  0  0  0  0  0  0  0  0
    9.2049    3.9689    0.0000 H   0  0  0  0  0  0  0  0  0  0  0  0
    8.4079    3.9689    0.0000 H   0  0  0  0  0  0  0  0  0  0  0  0
   10.3676    1.1223    0.0000 H   0  0  0  0  0  0  0  0  0  0  0  0
   11.1560    1.3800    0.0000 H   0  0  0  0  0  0  0  0  0  0  0  0
    7.7283    3.5766    0.0000 H   0  0  0  0  0  0  0  0  0  0  0  0
    7.3298    2.8863    0.0000 H   0  0  0  0  0  0  0  0  0  0  0  0
   11.6631    2.0792    0.0000 H   0  0  0  0  0  0  0  0  0  0  0  0
   11.6631    2.9087    0.0000 H   0  0  0  0  0  0  0  0  0  0  0  0
    9.0405   -0.1279    0.0000 H   0  0  0  0  0  0  0  0  0  0  0  0
    9.4316    0.5680    0.0000 H   0  0  0  0  0  0  0  0  0  0  0  0
   10.2924    3.9940    0.0000 H   0  0  0  0  0  0  0  0  0  0  0  0
    9.6724    4.6140    0.0000 H   0  0  0  0  0  0  0  0  0  0  0  0
    9.0524    3.9940    0.0000 H   0  0  0  0  0  0  0  0  0  0  0  0
    7.5271   -0.5513    0.0000 H   0  0  0  0  0  0  0  0  0  0  0  0
    8.3254   -0.5482    0.0000 H   0  0  0  0  0  0  0  0  0  0  0  0
   11.5360    4.3771    0.0000 H   0  0  0  0  0  0  0  0  0  0  0  0
    6.1155    2.6711    0.0000 H   0  0  0  0  0  0  0  0  0  0  0  0
    6.0893   -0.7242    0.0000 H   0  0  0  0  0  0  0  0  0  0  0  0
    3.7398   -0.7463    0.0000 H   0  0  0  0  0  0  0  0  0  0  0  0
    2.8694   -1.8629    0.0000 H   0  0  0  0  0  0  0  0  0  0  0  0
    3.4013   -3.1750    0.0000 H   0  0  0  0  0  0  0  0  0  0  0  0
    3.7296   -3.3663    0.0000 H   0  0  0  0  0  0  0  0  0  0  0  0
    5.6738   -2.2538    0.0000 H   0  0  0  0  0  0  0  0  0  0  0  0
    4.9270    3.0260    0.0000 H   0  0  0  0  0  0  0  0  0  0  0  0
    4.3142    3.6531    0.0000 H   0  0  0  0  0  0  0  0  0  0  0  0
    3.6871    3.0403    0.0000 H   0  0  0  0  0  0  0  0  0  0  0  0
    2.5458   -0.4317    0.0000 H   0  0  0  0  0  0  0  0  0  0  0  0
    2.0000   -2.7396    0.0000 H   0  0  0  0  0  0  0  0  0  0  0  0
    3.7258   -4.3663    0.0000 H   0  0  0  0  0  0  0  0  0  0  0  0
    6.5317   -4.3771    0.0000 H   0  0  0  0  0  0  0  0  0  0  0  0
 14  1  1  1  0  0  0
  1 54  1  0  0  0  0
  2 27  1  0  0  0  0
 28  2  1  6  0  0  0
  3 26  1  0  0  0  0
  3 33  1  0  0  0  0
  4 28  1  0  0  0  0
  4 32  1  0  0  0  0
 29  5  1  1  0  0  0
  5 65  1  0  0  0  0
 30  6  1  6  0  0  0
  6 66  1  0  0  0  0
 31  7  1  1  0  0  0
  7 67  1  0  0  0  0
  8 34  1  0  0  0  0
  8 68  1  0  0  0  0
  9 34  2  0  0  0  0
 10 11  1  0  0  0  0
 10 14  1  0  0  0  0
 10 15  1  0  0  0  0
 10 20  1  1  0  0  0
 11 12  1  0  0  0  0
 11 16  1  0  0  0  0
 11 35  1  6  0  0  0
 12 13  1  0  0  0  0
 12 19  1  0  0  0  0
 12 36  1  1  0  0  0
 13 17  1  0  0  0  0
 13 21  1  0  0  0  0
 13 37  1  6  0  0  0
 14 18  1  0  0  0  0
 14 38  1  0  0  0  0
 15 17  1  0  0  0  0
 15 39  1  0  0  0  0
 15 40  1  0  0  0  0
 16 18  1  0  0  0  0
 16 41  1  0  0  0  0
 16 42  1  0  0  0  0
 17 43  1  0  0  0  0
 17 44  1  0  0  0  0
 18 45  1  0  0  0  0
 18 46  1  0  0  0  0
 19 22  1  0  0  0  0
 19 47  1  0  0  0  0
 19 48  1  0  0  0  0
 20 49  1  0  0  0  0
 20 50  1  0  0  0  0
 20 51  1  0  0  0  0
 21 23  1  0  0  0  0
 21 24  2  0  0  0  0
 22 23  1  0  0  0  0
 22 52  1  0  0  0  0
 22 53  1  0  0  0  0
 23 25  2  0  0  0  0
 24 26  1  0  0  0  0
 24 55  1  0  0  0  0
 25 27  1  0  0  0  0
 25 56  1  0  0  0  0
 26 27  2  0  0  0  0
 28 29  1  0  0  0  0
 28 57  1  0  0  0  0
 29 30  1  0  0  0  0
 29 58  1  0  0  0  0
 30 31  1  0  0  0  0
 30 59  1  0  0  0  0
 31 32  1  0  0  0  0
 31 60  1  0  0  0  0
 32 34  1  6  0  0  0
 32 61  1  0  0  0  0
 33 62  1  0  0  0  0
 33 63  1  0  0  0  0
 33 64  1  0  0  0  0
M  END
> <PUBCHEM_COMPOUND_CID>
443076

> <PUBCHEM_COMPOUND_CANONICALIZED>
1

> <PUBCHEM_CACTVS_COMPLEXITY>
763

> <PUBCHEM_CACTVS_HBOND_ACCEPTOR>
9

> <PUBCHEM_CACTVS_HBOND_DONOR>
5

> <PUBCHEM_CACTVS_ROTATABLE_BOND>
4

> <PUBCHEM_CACTVS_SUBSKEYS>
AAADcfB4PAAAAAAAAAAAAAAAAAAAAYAAAAA0YMEAAAAAAGDBAAAAGgAACAAADxSwmAMyDoAABgCIAiDSCAICCAAgIAAAiAFGiIgdNjaEMR6ieCKl4BEPqAfK7PxPoAABAAAQQADAAAYAACCAAIAADAAAAA==

> <PUBCHEM_IUPAC_OPENEYE_NAME>
(2S,3S,4S,5R,6S)-3,4,5-trihydroxy-6-[[(8R,9S,13S,14S,17S)-17-hydroxy-2-methoxy-13-methyl-6,7,8,9,11,12,14,15,16,17-decahydrocyclopenta[a]phenanthren-3-yl]oxy]tetrahydropyran-2-carboxylic acid

> <PUBCHEM_IUPAC_CAS_NAME>
(2S,3S,4S,5R,6S)-3,4,5-trihydroxy-6-[[(8R,9S,13S,14S,17S)-17-hydroxy-2-methoxy-13-methyl-6,7,8,9,11,12,14,15,16,17-decahydrocyclopenta[a]phenanthren-3-yl]oxy]-2-oxanecarboxylic acid

> <PUBCHEM_IUPAC_NAME>
(2S,3S,4S,5R,6S)-3,4,5-trihydroxy-6-[[(8R,9S,13S,14S,17S)-17-hydroxy-2-methoxy-13-methyl-6,7,8,9,11,12,14,15,16,17-decahydrocyclopenta[a]phenanthren-3-yl]oxy]oxane-2-carboxylic acid

> <PUBCHEM_IUPAC_SYSTEMATIC_NAME>
(2S,3S,4S,5R,6S)-6-[[(8R,9S,13S,14S,17S)-2-methoxy-13-methyl-17-oxidanyl-6,7,8,9,11,12,14,15,16,17-decahydrocyclopenta[a]phenanthren-3-yl]oxy]-3,4,5-tris(oxidanyl)oxane-2-carboxylic acid

> <PUBCHEM_IUPAC_TRADITIONAL_NAME>
(2S,3S,4S,5R,6S)-3,4,5-trihydroxy-6-[[(8R,9S,13S,14S,17S)-17-hydroxy-2-methoxy-13-methyl-6,7,8,9,11,12,14,15,16,17-decahydrocyclopenta[a]phenanthren-3-yl]oxy]tetrahydropyran-2-carboxylic acid

> <PUBCHEM_IUPAC_INCHI>
InChI=1S/C25H34O9/c1-25-8-7-12-13(15(25)5-6-18(25)26)4-3-11-9-17(16(32-2)10-14(11)12)33-24-21(29)19(27)20(28)22(34-24)23(30)31/h9-10,12-13,15,18-22,24,26-29H,3-8H2,1-2H3,(H,30,31)/t12-,13+,15-,18-,19-,20-,21+,22-,24+,25-/m0/s1

> <PUBCHEM_IUPAC_INCHIKEY>
LLCPFVIBUZJITJ-GVEMAFOVSA-N

> <PUBCHEM_XLOGP3_AA>
2.3

> <PUBCHEM_EXACT_MASS>
478.220283

> <PUBCHEM_MOLECULAR_FORMULA>
C25H34O9

> <PUBCHEM_MOLECULAR_WEIGHT>
478.53206

> <PUBCHEM_OPENEYE_CAN_SMILES>
CC12CCC3C(C1CCC2O)CCC4=CC(=C(C=C34)OC)OC5C(C(C(C(O5)C(=O)O)O)O)O

> <PUBCHEM_OPENEYE_ISO_SMILES>
C[C@]12CC[C@H]3[C@H]([C@@H]1CC[C@@H]2O)CCC4=CC(=C(C=C34)OC)O[C@H]5[C@@H]([C@H]([C@@H]([C@H](O5)C(=O)O)O)O)O

> <PUBCHEM_CACTVS_TPSA>
146

> <PUBCHEM_MONOISOTOPIC_WEIGHT>
478.220283

> <PUBCHEM_TOTAL_CHARGE>
0

> <PUBCHEM_HEAVY_ATOM_COUNT>
34

> <PUBCHEM_ATOM_DEF_STEREO_COUNT>
10

> <PUBCHEM_ATOM_UDEF_STEREO_COUNT>
0

> <PUBCHEM_BOND_DEF_STEREO_COUNT>
0

> <PUBCHEM_BOND_UDEF_STEREO_COUNT>
0

> <PUBCHEM_ISOTOPIC_ATOM_COUNT>
0

> <PUBCHEM_COMPONENT_COUNT>
1

> <PUBCHEM_CACTVS_TAUTO_COUNT>
1

> <PUBCHEM_COORDINATE_TYPE>
1
5
255

> <PUBCHEM_BONDANNOTATIONS>
14  1  5
10  20  5
11  35  6
12  36  5
13  37  6
28  2  6
21  23  8
21  24  8
23  25  8
24  26  8
25  27  8
26  27  8
32  34  6
29  5  5
30  6  6
31  7  5

$$$$

