   Melting Point
        170 deg C
   from [1]HSDB

   Octanol/Water Partition Coefficient
        log Kow = 9.43 (est)
   from [2]HSDB

   Solubilities

     * Very soluble in benzene, ethyl ether, ethanol
     * Soluble in the usual organic solvents
     * In water, 1.12X10-5 mg/L at 25 deg C (est)

   from [3]HSDB

   Vapor Pressure
        1.62X10-10 mm Hg at 25 deg C (est)
   from [4]HSDB

   Other Chemical/Physical Properties

     * Crystals from alcohol. When dry, mp 170 deg C. Specific optical
       rotation: -51 deg at 22 deg C/D ( c = 2 in chloroform). Insoluble
       in water. Soluble in the usual organic solvents /Monohydrate/
     * MP: 144 deg C. Specific optical rotation: -55.6 deg( c = 2 in
       chloroform) /Acetate/
     * MP: 203 deg C. Specific optical rotation: -13 deg ( c = 2 in
       alcohol) /p-Nitrobenzoate/
     * Henry's Law constant = 2.59X10-4 atm-cu m/mol at 25 deg C (est)
     * Hydroxyl radical reaction rate constant = 1.85X-10 cu cm/molec-sec
       at 25 deg C (est)

   from [5]HSDB

   Computed Properties
   Molecular Weight                  412.69082 [g/mol]
   Molecular Formula                 C[29]H[48]O
   XLogP3-AA                         8.6
   H-Bond Donor                      1
   H-Bond Acceptor                   1
   Rotatable Bond Count              5
   Exact Mass                        412.370516
   MonoIsotopic Mass                 412.370516
   Topological Polar Surface Area    20.2
   Heavy Atom Count                  30
   Formal Charge                     0
   Complexity                        674
   Isotope Atom Count                0
   Defined Atom Stereocenter Count   9
   Undefined Atom Stereocenter Count 0
   Defined Bond Stereocenter Count   1
   Undefined Bond Stereocenter Count 0
   Covalently-Bonded Unit Count      1
   Feature 3D Acceptor Count         1
   Feature 3D Donor Count            1
   Feature 3D Hydrophobe Count       4
   Feature 3D Ring Count             4
   Effective Rotor Count             7
   Conformer Sampling RMSD           0.8
   CID Conformer Count               [6]23

References

   1. http://toxnet.nlm.nih.gov/cgi-bin/sis/search/r?dbs+hsdb:@term+@rn+@rel+83-48-7
   2. http://toxnet.nlm.nih.gov/cgi-bin/sis/search/r?dbs+hsdb:@term+@rn+@rel+83-48-7
   3. http://toxnet.nlm.nih.gov/cgi-bin/sis/search/r?dbs+hsdb:@term+@rn+@rel+83-48-7
   4. http://toxnet.nlm.nih.gov/cgi-bin/sis/search/r?dbs+hsdb:@term+@rn+@rel+83-48-7
   5. http://toxnet.nlm.nih.gov/cgi-bin/sis/search/r?dbs+hsdb:@term+@rn+@rel+83-48-7
   6. http://pubchem.ncbi.nlm.nih.gov/vw3d/vw3d.cgi?cid=5281330
