   Color/Form

     * Crystals from 1:1 (v/v) mix of ethyl acetate and petroleum ether
     * Fine white to off-white powder [FDA; Casodex. Oct 25, 2004.
       Washington, DC: Food Drug Admin. Available from, as of Oct 14,
       2008: http://www.fda.gov/medwatch/SAFETY/2005/MAY_PI/Casodex_PI.pdf
       ] **UNREVIEWED**

   from [1]HSDB

   Melting Point
        191-193 deg C
   from [2]HSDB

   Dissociation Constants
        pKa = 12.6 (est)
   from [3]HSDB

   Octanol/Water Partition Coefficient
        log Kow = 2.8 (est)
   from [4]HSDB

   Solubilities

     * Slightly soluble in chloroform and absolute ethanol; sparingly
       soluble in methanol; soluble in acetone and tetrahydrofuan
     * Practically insoluble in water at 37 deg C (5 mg/1000 mL)
     * In water, 11.75 mg/L at 25 deg C (est)

   from [5]HSDB

   Vapor Pressure
        7.54X10-15 mm Hg at 25 deg C (est)
   from [6]HSDB

   Other Chemical/Physical Properties

     * Henry's Law constant = 2.82X10-15 atm-cu m/mol at 25 deg C (est)
     * Hydroxyl radical reaction rate constant = 2.99X10-11 cu
       cm/molec-sec at 25 deg C (est)

   from [7]HSDB

   Computed Properties
   Molecular Weight                  430.373373 [g/mol]
   Molecular Formula                 C[18]H[14]F[4]N[2]O[4]S
   XLogP3-AA                         2.3
   H-Bond Donor                      2
   H-Bond Acceptor                   9
   Rotatable Bond Count              5
   Tautomer Count                    2
   Exact Mass                        430.061041
   MonoIsotopic Mass                 430.061041
   Topological Polar Surface Area    116
   Heavy Atom Count                  29
   Formal Charge                     0
   Complexity                        750
   Isotope Atom Count                0
   Defined Atom Stereocenter Count   0
   Undefined Atom Stereocenter Count 1
   Defined Bond Stereocenter Count   0
   Undefined Bond Stereocenter Count 0
   Covalently-Bonded Unit Count      1
   Feature 3D Acceptor Count         5
   Feature 3D Donor Count            2
   Feature 3D Ring Count             2
   Effective Rotor Count             7
   Conformer Sampling RMSD           0.8
   CID Conformer Count               [8]159

References

   1. http://toxnet.nlm.nih.gov/cgi-bin/sis/search/r?dbs+hsdb:@term+@rn+@rel+90357-06-5
   2. http://toxnet.nlm.nih.gov/cgi-bin/sis/search/r?dbs+hsdb:@term+@rn+@rel+90357-06-5
   3. http://toxnet.nlm.nih.gov/cgi-bin/sis/search/r?dbs+hsdb:@term+@rn+@rel+90357-06-5
   4. http://toxnet.nlm.nih.gov/cgi-bin/sis/search/r?dbs+hsdb:@term+@rn+@rel+90357-06-5
   5. http://toxnet.nlm.nih.gov/cgi-bin/sis/search/r?dbs+hsdb:@term+@rn+@rel+90357-06-5
   6. http://toxnet.nlm.nih.gov/cgi-bin/sis/search/r?dbs+hsdb:@term+@rn+@rel+90357-06-5
   7. http://toxnet.nlm.nih.gov/cgi-bin/sis/search/r?dbs+hsdb:@term+@rn+@rel+90357-06-5
   8. http://pubchem.ncbi.nlm.nih.gov/vw3d/vw3d.cgi?cid=2375
