   Color/Form

     * WHITE CRYSTALS
     * NEEDLES

   from [1]HSDB

   Boiling Point
        177 DEG C
   from [2]HSDB

   Melting Point
        52-54 DEG C
   from [3]HSDB

   Density/Specific Gravity
        1.1361 g/cu cm at 56 deg C
   from [4]HSDB

   Octanol/Water Partition Coefficient
        log Kow = -0.66
   from [5]HSDB

   Solubilities

     * SOL IN WATER: 217 PARTS IN 100 @ 11 DEG C
     * SOL IN ETHANOL: 73 PARTS IN 100 @ 15 DEG C; SOL IN ETHER
     * In water, 6.91X10+5 mg/l at 15.5 deg C

   from [6]HSDB

   Spectral Properties

     * INDEX OF REFRACTION: 1.4125 @ 56 DEG C/D
     * SADTLER REF NUMBER: 12994 (IR, PRISM)
     * IR: 607 (Sadtler Research Laboratories IR Grating Collection)
     * NMR: 5240 (Sadtler Research Laboratories Spectral Collection)
     * MASS: 88 (Atlas of Mass Spectral Data, John Wiley & Sons, New York)
     * MASS: 53 (National Bureau of Standards EPA-NIH Mass Spectra Data
       Base, NSRDS-NBS-63)

   from [7]HSDB

   Other Chemical/Physical Properties

     * Freely sublimes at room temperature
     * These compounds are all hydrolyzed using 5 M sodium hydroxide
       solution, although the reaction times vary. Methyl carbamate is
       hydrolyzed to methanol and carbamic acid and urethane /ethyl
       carbamate/ is hydrolyzed to ethanol and carbamic acid. ... Carbamic
       acid decomposes to carbon dioxide and ammonia ... In all cases
       destruction is greater than 99% and good accountances are obtained
       for the products ... .

   from [8]HSDB

   Computed Properties
   Molecular Weight                  75.0666 [g/mol]
   Molecular Formula                 C[2]H[5]NO[2]
   XLogP3                            -0.7
   H-Bond Donor                      1
   H-Bond Acceptor                   2
   Rotatable Bond Count              1
   Tautomer Count                    2
   Exact Mass                        75.032028
   MonoIsotopic Mass                 75.032028
   Topological Polar Surface Area    52.3
   Heavy Atom Count                  5
   Formal Charge                     0
   Complexity                        42.9
   Isotope Atom Count                0
   Defined Atom Stereocenter Count   0
   Undefined Atom Stereocenter Count 0
   Defined Bond Stereocenter Count   0
   Undefined Bond Stereocenter Count 0
   Covalently-Bonded Unit Count      1
   Feature 3D Acceptor Count         1
   Feature 3D Donor Count            1
   Effective Rotor Count             1
   Conformer Sampling RMSD           0.4
   CID Conformer Count               [9]1

References

   1. http://toxnet.nlm.nih.gov/cgi-bin/sis/search/r?dbs+hsdb:@term+@rn+@rel+598-55-0
   2. http://toxnet.nlm.nih.gov/cgi-bin/sis/search/r?dbs+hsdb:@term+@rn+@rel+598-55-0
   3. http://toxnet.nlm.nih.gov/cgi-bin/sis/search/r?dbs+hsdb:@term+@rn+@rel+598-55-0
   4. http://toxnet.nlm.nih.gov/cgi-bin/sis/search/r?dbs+hsdb:@term+@rn+@rel+598-55-0
   5. http://toxnet.nlm.nih.gov/cgi-bin/sis/search/r?dbs+hsdb:@term+@rn+@rel+598-55-0
   6. http://toxnet.nlm.nih.gov/cgi-bin/sis/search/r?dbs+hsdb:@term+@rn+@rel+598-55-0
   7. http://toxnet.nlm.nih.gov/cgi-bin/sis/search/r?dbs+hsdb:@term+@rn+@rel+598-55-0
   8. http://toxnet.nlm.nih.gov/cgi-bin/sis/search/r?dbs+hsdb:@term+@rn+@rel+598-55-0
   9. http://pubchem.ncbi.nlm.nih.gov/vw3d/vw3d.cgi?cid=11722
