   Color/Form
        Viscous liquid
   from [1]HSDB

   Boiling Point
        108 deg C at 0.35 mm Hg
   from [2]HSDB

   Density/Specific Gravity
        1.189 at 22 deg C
   from [3]HSDB

   Octanol/Water Partition Coefficient
        log Kow = 6.20
   from [4]HSDB

   Solubilities

     * In acetone >820, xylene 1,810, n-propanol >780, corn oil > 560,
       cottonseed oil >300, soya bean oil >300, hexane 90 (all in g/L, 21
       deg C).
     * In water, 0.06 mg/L at 25 deg C

   from [5]HSDB

   Spectral Properties
        Index of refraction: 1.541 at 25 deg C/D
   from [6]HSDB

   Vapor Pressure
        8.7X10-9 mm Hg at 25 deg C
   from [7]HSDB

   Other Chemical/Physical Properties

     * Dark amber viscous liquid, with a faint ester-like odor. /Technical
       flucythrinate/
     * Henry's Law constant = 8.61X10-8 atm-cu m/mol at 25 deg C (est)
     * Hydroxyl radical reaction rate constant = 6.26X10-11 cu
       cm/molec-sec at 25 deg C (est)

   from [8]HSDB

   Computed Properties
   Molecular Weight                  451.461926 [g/mol]
   Molecular Formula                 C[26]H[23]F[2]NO[4]
   XLogP3                            6.2
   H-Bond Donor                      0
   H-Bond Acceptor                   7
   Rotatable Bond Count              10
   Exact Mass                        451.159515
   MonoIsotopic Mass                 451.159515
   Topological Polar Surface Area    68.6
   Heavy Atom Count                  33
   Formal Charge                     0
   Complexity                        650
   Isotope Atom Count                0
   Defined Atom Stereocenter Count   0
   Undefined Atom Stereocenter Count 2
   Defined Bond Stereocenter Count   0
   Undefined Bond Stereocenter Count 0
   Covalently-Bonded Unit Count      1
   Feature 3D Acceptor Count         4
   Feature 3D Hydrophobe Count       1
   Feature 3D Ring Count             3
   Effective Rotor Count             10
   Conformer Sampling RMSD           1
   CID Conformer Count               [9]454

References

   1. http://toxnet.nlm.nih.gov/cgi-bin/sis/search/r?dbs+hsdb:@term+@rn+@rel+70124-77-5
   2. http://toxnet.nlm.nih.gov/cgi-bin/sis/search/r?dbs+hsdb:@term+@rn+@rel+70124-77-5
   3. http://toxnet.nlm.nih.gov/cgi-bin/sis/search/r?dbs+hsdb:@term+@rn+@rel+70124-77-5
   4. http://toxnet.nlm.nih.gov/cgi-bin/sis/search/r?dbs+hsdb:@term+@rn+@rel+70124-77-5
   5. http://toxnet.nlm.nih.gov/cgi-bin/sis/search/r?dbs+hsdb:@term+@rn+@rel+70124-77-5
   6. http://toxnet.nlm.nih.gov/cgi-bin/sis/search/r?dbs+hsdb:@term+@rn+@rel+70124-77-5
   7. http://toxnet.nlm.nih.gov/cgi-bin/sis/search/r?dbs+hsdb:@term+@rn+@rel+70124-77-5
   8. http://toxnet.nlm.nih.gov/cgi-bin/sis/search/r?dbs+hsdb:@term+@rn+@rel+70124-77-5
   9. http://pubchem.ncbi.nlm.nih.gov/vw3d/vw3d.cgi?cid=50980
