   Color/Form
        WATER-WHITE, MOBILE LIQUID
   from [1]HSDB

   Odor
        DISTINCTIVE ETHEREAL ODOR, SOMEWHAT LIKE PEPPERMINT
   from [2]HSDB

   Boiling Point
        130.6 DEG C AT 760 MM HG
   from [3]HSDB

   Melting Point
        -51.3 DEG C
   from [4]HSDB

   Density/Specific Gravity
        0.94869 @ 20 DEG C/4 DEG C
   from [5]HSDB

   Octanol/Water Partition Coefficient
        log Kow= 0.24 (est)
   from [6]HSDB

   Solubilities

     * Sol in alcohol, acetone, ether
     * Estimated water solubility of 9175 mg/l

   from [7]HSDB

   Spectral Properties

     * INDEX OF REFRACTION: 1.4366 AT 20 DEG C; SADTLER REFERENCE NUMBER:
       171 (IR, PRISM), 55 (IR, GRATING); MAX ABSORPTION (ALCOHOL): 290 NM
       (LOG E= 1.28)
     * IR: 5857 (Coblentz Society Spectral Collection)
     * UV: 67 (Sadtler Research Laboratories Spectral Collection)
     * NMR: 1195 (Sadtler Research Laboratories Spectral Collection)
     * MASS: 123 (Atlas of Mass Spectral Data, John Wiley & Sons, New
       York)

   from [8]HSDB

   Vapor Density
        2.3 (AIR= 1)
   from [9]HSDB

   Vapor Pressure
        11.4 mm Hg at 25 deg C
   from [10]HSDB

   Other Chemical/Physical Properties
        POLYMERIZES EASILY, ESP IN PRESENCE OF ACIDS
   from [11]HSDB

   Computed Properties
   Molecular Weight                  84.11642 [g/mol]
   Molecular Formula                 C[5]H[8]O
   XLogP3-AA                         0.4
   H-Bond Donor                      0
   H-Bond Acceptor                   1
   Rotatable Bond Count              0
   Tautomer Count                    2
   Exact Mass                        84.057515
   MonoIsotopic Mass                 84.057515
   Topological Polar Surface Area    17.1
   Heavy Atom Count                  6
   Formal Charge                     0
   Complexity                        58.3
   Isotope Atom Count                0
   Defined Atom Stereocenter Count   0
   Undefined Atom Stereocenter Count 0
   Defined Bond Stereocenter Count   0
   Undefined Bond Stereocenter Count 0
   Covalently-Bonded Unit Count      1
   Feature 3D Acceptor Count         1
   Feature 3D Ring Count             1
   Effective Rotor Count             0.8
   Conformer Sampling RMSD           0.4
   CID Conformer Count               [12]1

References

   1. http://toxnet.nlm.nih.gov/cgi-bin/sis/search/r?dbs+hsdb:@term+@rn+@rel+120-92-3
   2. http://toxnet.nlm.nih.gov/cgi-bin/sis/search/r?dbs+hsdb:@term+@rn+@rel+120-92-3
   3. http://toxnet.nlm.nih.gov/cgi-bin/sis/search/r?dbs+hsdb:@term+@rn+@rel+120-92-3
   4. http://toxnet.nlm.nih.gov/cgi-bin/sis/search/r?dbs+hsdb:@term+@rn+@rel+120-92-3
   5. http://toxnet.nlm.nih.gov/cgi-bin/sis/search/r?dbs+hsdb:@term+@rn+@rel+120-92-3
   6. http://toxnet.nlm.nih.gov/cgi-bin/sis/search/r?dbs+hsdb:@term+@rn+@rel+120-92-3
   7. http://toxnet.nlm.nih.gov/cgi-bin/sis/search/r?dbs+hsdb:@term+@rn+@rel+120-92-3
   8. http://toxnet.nlm.nih.gov/cgi-bin/sis/search/r?dbs+hsdb:@term+@rn+@rel+120-92-3
   9. http://toxnet.nlm.nih.gov/cgi-bin/sis/search/r?dbs+hsdb:@term+@rn+@rel+120-92-3
  10. http://toxnet.nlm.nih.gov/cgi-bin/sis/search/r?dbs+hsdb:@term+@rn+@rel+120-92-3
  11. http://toxnet.nlm.nih.gov/cgi-bin/sis/search/r?dbs+hsdb:@term+@rn+@rel+120-92-3
  12. http://pubchem.ncbi.nlm.nih.gov/vw3d/vw3d.cgi?cid=8452
