   Color/Form

     * Colorless needles
     * White crystalline

   from [1]HSDB

   Melting Point
        43 deg C
   from [2]HSDB

   Corrosivity
        Non-corrosive
   from [3]HSDB

   Octanol/Water Partition Coefficient
        log Kow = 0.16 (est)
   from [4]HSDB

   Solubilities

     * Readily soluble in ... benzene, toluene, methyl ethyl ketone, ethyl
       acetate, acetonitrile, dichloromethane, cyclohexanone, chloroform
       (all at 1 kg/L). Almost insol in cyclohexane and petroleum ether.
     * In water, 4 kg/L at 20 deg C /miscible/

   from [5]HSDB

   Vapor Pressure
        1.37X10-6 mm Hg at 25 deg C (est)
   from [6]HSDB

   Other Chemical/Physical Properties

     * Undergoes slight decomp at room temperature, but solutions in
       organic solvents (methyl ethyl ketone, cyclohexane) are stable.
       Decomposes in strong acid or alkaline media. VP: negligible at 20
       deg C.
     * White waxy solid. Melting point ca 40 deg C. /technical
       vamidothion/
     * Henry's Law constant = 8.60X10-16 atm-cu m/mol at 25 deg C (est)
     * Hydroxyl radical reaction rate constant = 5.77X10-11 cu
       cm/molec-sec at 25 deg C (est)

   from [7]HSDB

   Computed Properties
   Molecular Weight                  287.336582 [g/mol]
   Molecular Formula                 C[8]H[18]NO[4]PS[2]
   XLogP3-AA                         0.3
   H-Bond Donor                      1
   H-Bond Acceptor                   6
   Rotatable Bond Count              8
   Tautomer Count                    2
   Exact Mass                        287.041487
   MonoIsotopic Mass                 287.041487
   Topological Polar Surface Area    115
   Heavy Atom Count                  16
   Formal Charge                     0
   Complexity                        256
   Isotope Atom Count                0
   Defined Atom Stereocenter Count   0
   Undefined Atom Stereocenter Count 1
   Defined Bond Stereocenter Count   0
   Undefined Bond Stereocenter Count 0
   Covalently-Bonded Unit Count      1
   Feature 3D Acceptor Count         2
   Feature 3D Donor Count            1
   Feature 3D Hydrophobe Count       2
   Effective Rotor Count             9
   Conformer Sampling RMSD           0.8
   CID Conformer Count               [8]436

References

   1. http://toxnet.nlm.nih.gov/cgi-bin/sis/search/r?dbs+hsdb:@term+@rn+@rel+2275-23-2
   2. http://toxnet.nlm.nih.gov/cgi-bin/sis/search/r?dbs+hsdb:@term+@rn+@rel+2275-23-2
   3. http://toxnet.nlm.nih.gov/cgi-bin/sis/search/r?dbs+hsdb:@term+@rn+@rel+2275-23-2
   4. http://toxnet.nlm.nih.gov/cgi-bin/sis/search/r?dbs+hsdb:@term+@rn+@rel+2275-23-2
   5. http://toxnet.nlm.nih.gov/cgi-bin/sis/search/r?dbs+hsdb:@term+@rn+@rel+2275-23-2
   6. http://toxnet.nlm.nih.gov/cgi-bin/sis/search/r?dbs+hsdb:@term+@rn+@rel+2275-23-2
   7. http://toxnet.nlm.nih.gov/cgi-bin/sis/search/r?dbs+hsdb:@term+@rn+@rel+2275-23-2
   8. http://pubchem.ncbi.nlm.nih.gov/vw3d/vw3d.cgi?cid=560193
