16071112
  -OEChem-07051213112D

 39 38  0     1  0  0  0  0  0999 V2000
    6.3301    1.0485    0.0000 P   0  0  3  0  0  0  0  0  0  0  0  0
    8.0622    1.0485    0.0000 P   0  0  0  0  0  0  0  0  0  0  0  0
    5.4641    0.5485    0.0000 O   0  0  0  0  0  0  0  0  0  0  0  0
    7.1962    1.5485    0.0000 O   0  0  0  0  0  0  0  0  0  0  0  0
    5.8301    1.9145    0.0000 O   0  0  0  0  0  0  0  0  0  0  0  0
    6.8301    0.1825    0.0000 O   0  0  0  0  0  0  0  0  0  0  0  0
    8.9282    0.5485    0.0000 O   0  0  0  0  0  0  0  0  0  0  0  0
    8.5622    1.9145    0.0000 O   0  0  0  0  0  0  0  0  0  0  0  0
    7.5622    0.1825    0.0000 O   0  0  0  0  0  0  0  0  0  0  0  0
    3.7320    0.5485    0.0000 C   0  0  1  0  0  0  0  0  0  0  0  0
    3.7320   -0.4515    0.0000 C   0  0  0  0  0  0  0  0  0  0  0  0
    4.5981    1.0485    0.0000 C   0  0  0  0  0  0  0  0  0  0  0  0
    2.8660    1.0485    0.0000 C   0  0  0  0  0  0  0  0  0  0  0  0
    2.8660   -0.9515    0.0000 C   0  0  0  0  0  0  0  0  0  0  0  0
    2.0000    0.5485    0.0000 C   0  0  0  0  0  0  0  0  0  0  0  0
    2.8660   -1.9515    0.0000 C   0  0  0  0  0  0  0  0  0  0  0  0
    2.8660    2.0485    0.0000 C   0  0  0  0  0  0  0  0  0  0  0  0
    2.0000   -2.4515    0.0000 C   0  0  0  0  0  0  0  0  0  0  0  0
    3.7320   -2.4515    0.0000 C   0  0  0  0  0  0  0  0  0  0  0  0
    4.2690    0.2385    0.0000 H   0  0  0  0  0  0  0  0  0  0  0  0
    3.9441   -1.0341    0.0000 H   0  0  0  0  0  0  0  0  0  0  0  0
    4.3426   -0.3438    0.0000 H   0  0  0  0  0  0  0  0  0  0  0  0
    4.9966    1.5235    0.0000 H   0  0  0  0  0  0  0  0  0  0  0  0
    4.1996    1.5235    0.0000 H   0  0  0  0  0  0  0  0  0  0  0  0
    2.3291   -0.6415    0.0000 H   0  0  0  0  0  0  0  0  0  0  0  0
    1.6900    1.0855    0.0000 H   0  0  0  0  0  0  0  0  0  0  0  0
    1.4631    0.2385    0.0000 H   0  0  0  0  0  0  0  0  0  0  0  0
    2.3100    0.0116    0.0000 H   0  0  0  0  0  0  0  0  0  0  0  0
    3.4030    2.3585    0.0000 H   0  0  0  0  0  0  0  0  0  0  0  0
    2.3291    2.3585    0.0000 H   0  0  0  0  0  0  0  0  0  0  0  0
    1.6900   -1.9145    0.0000 H   0  0  0  0  0  0  0  0  0  0  0  0
    1.4631   -2.7615    0.0000 H   0  0  0  0  0  0  0  0  0  0  0  0
    2.3100   -2.9884    0.0000 H   0  0  0  0  0  0  0  0  0  0  0  0
    3.4220   -2.9884    0.0000 H   0  0  0  0  0  0  0  0  0  0  0  0
    4.2690   -2.7615    0.0000 H   0  0  0  0  0  0  0  0  0  0  0  0
    4.0420   -1.9145    0.0000 H   0  0  0  0  0  0  0  0  0  0  0  0
    6.1401    2.4515    0.0000 H   0  0  0  0  0  0  0  0  0  0  0  0
    8.2522    2.4515    0.0000 H   0  0  0  0  0  0  0  0  0  0  0  0
    9.4651    0.8585    0.0000 H   0  0  0  0  0  0  0  0  0  0  0  0
  1  3  1  0  0  0  0
  1  4  1  0  0  0  0
  1  5  1  0  0  0  0
  1  6  2  0  0  0  0
  2  4  1  0  0  0  0
  2  7  1  0  0  0  0
  2  8  1  0  0  0  0
  2  9  2  0  0  0  0
  3 12  1  0  0  0  0
  5 37  1  0  0  0  0
  7 39  1  0  0  0  0
  8 38  1  0  0  0  0
 10 11  1  6  0  0  0
 10 12  1  0  0  0  0
 10 13  1  0  0  0  0
 10 20  1  0  0  0  0
 11 14  1  0  0  0  0
 11 21  1  0  0  0  0
 11 22  1  0  0  0  0
 12 23  1  0  0  0  0
 12 24  1  0  0  0  0
 13 15  1  0  0  0  0
 13 17  2  0  0  0  0
 14 16  2  0  0  0  0
 14 25  1  0  0  0  0
 15 26  1  0  0  0  0
 15 27  1  0  0  0  0
 15 28  1  0  0  0  0
 16 18  1  0  0  0  0
 16 19  1  0  0  0  0
 17 29  1  0  0  0  0
 17 30  1  0  0  0  0
 18 31  1  0  0  0  0
 18 32  1  0  0  0  0
 18 33  1  0  0  0  0
 19 34  1  0  0  0  0
 19 35  1  0  0  0  0
 19 36  1  0  0  0  0
M  END
> <PUBCHEM_COMPOUND_CID>
16071112

> <PUBCHEM_COMPOUND_CANONICALIZED>
1

> <PUBCHEM_CACTVS_COMPLEXITY>
433

> <PUBCHEM_CACTVS_HBOND_ACCEPTOR>
7

> <PUBCHEM_CACTVS_HBOND_DONOR>
3

> <PUBCHEM_CACTVS_ROTATABLE_BOND>
8

> <PUBCHEM_CACTVS_SUBSKEYS>
AAADceBwOAMAAAAAAAAAAAAAAAAAAAAAAAAAAAAAAAAAAAAAAAAAGgAACCAADQCggAICAAAAARCAQiBCAIAAAAAgAAAACAAAAAgAAAIAAQAAAAAEwAAIAAIAAAAKAAAAAAAAAAAAAAAAAAAAAAAAAAAAAA==

> <PUBCHEM_IUPAC_OPENEYE_NAME>
[(2R)-2-isopropenyl-5-methyl-hex-4-enyl] phosphono hydrogen phosphate

> <PUBCHEM_IUPAC_CAS_NAME>
[(2R)-5-methyl-2-(1-methylethenyl)hex-4-enyl] phosphono hydrogen phosphate

> <PUBCHEM_IUPAC_NAME>
[(2R)-5-methyl-2-prop-1-en-2-ylhex-4-enyl] phosphono hydrogen phosphate

> <PUBCHEM_IUPAC_SYSTEMATIC_NAME>
[(2R)-5-methyl-2-prop-1-en-2-yl-hex-4-enyl] phosphono hydrogen phosphate

> <PUBCHEM_IUPAC_TRADITIONAL_NAME>
[(2R)-2-isopropenyl-5-methyl-hex-4-enyl] phosphono hydrogen phosphate

> <PUBCHEM_IUPAC_INCHI>
InChI=1S/C10H20O7P2/c1-8(2)5-6-10(9(3)4)7-16-19(14,15)17-18(11,12)13/h5,10H,3,6-7H2,1-2,4H3,(H,14,15)(H2,11,12,13)/t10-/m0/s1

> <PUBCHEM_IUPAC_INCHIKEY>
LHLLBECTIHFNGQ-JTQLQIEISA-N

> <PUBCHEM_XLOGP3_AA>
0.8

> <PUBCHEM_EXACT_MASS>
314.068426

> <PUBCHEM_MOLECULAR_FORMULA>
C10H20O7P2

> <PUBCHEM_MOLECULAR_WEIGHT>
314.209124

> <PUBCHEM_OPENEYE_CAN_SMILES>
CC(=CCC(COP(=O)(O)OP(=O)(O)O)C(=C)C)C

> <PUBCHEM_OPENEYE_ISO_SMILES>
CC(=CC[C@@H](COP(=O)(O)OP(=O)(O)O)C(=C)C)C

> <PUBCHEM_CACTVS_TPSA>
113

> <PUBCHEM_MONOISOTOPIC_WEIGHT>
314.068426

> <PUBCHEM_TOTAL_CHARGE>
0

> <PUBCHEM_HEAVY_ATOM_COUNT>
19

> <PUBCHEM_ATOM_DEF_STEREO_COUNT>
1

> <PUBCHEM_ATOM_UDEF_STEREO_COUNT>
0

> <PUBCHEM_BOND_DEF_STEREO_COUNT>
0

> <PUBCHEM_BOND_UDEF_STEREO_COUNT>
0

> <PUBCHEM_ISOTOPIC_ATOM_COUNT>
0

> <PUBCHEM_COMPONENT_COUNT>
1

> <PUBCHEM_CACTVS_TAUTO_COUNT>
1

> <PUBCHEM_COORDINATE_TYPE>
1
5
255

> <PUBCHEM_BONDANNOTATIONS>
10  11  6

$$$$

