   Color/Form

     * Colorless crystals
     * White to light tan crystalline powder (solid)
     * White crystals

   from [1]HSDB

   Odor

     * Slightly sulfurous odor
     * Odorless

   from [2]HSDB

   Melting Point
        173 deg C
   from [3]HSDB

   Density/Specific Gravity
        1.44 g/cu cm @ 20 deg C
   from [4]HSDB

   Octanol/Water Partition Coefficient
        log Kow= 1.70
   from [5]HSDB

   Solubilities

     * Solubility @ 25 deg C (weight %): acetone - 0.8; dichloromethane
       15.0; methanol 0.5; xylene 0.3
     * In water, 35 mg/l @ 25 deg C

   from [6]HSDB

   Vapor Pressure
        7X10-5 mm Hg @ 25 deg C
   from [7]HSDB

   Other Chemical/Physical Properties

     * Pale tan crystals /Technical grade/
     * Stable at pH 6, rapidly hydrolysed at pH 9 and slowly at pH 3.
       Aqueous suspensions are decomposed by sunlight. Stable up to 60 deg
       C.

   from [8]HSDB

   Computed Properties
   Molecular Weight                  354.46932 [g/mol]
   Molecular Formula                 C[10]H[18]N[4]O[4]S[3]
   XLogP3                            1.7
   H-Bond Donor                      0
   H-Bond Acceptor                   9
   Rotatable Bond Count              8
   Tautomer Count                    3
   Exact Mass                        354.049018
   MonoIsotopic Mass                 354.049018
   Topological Polar Surface Area    160
   Heavy Atom Count                  21
   Formal Charge                     0
   Complexity                        393
   Isotope Atom Count                0
   Defined Atom Stereocenter Count   0
   Undefined Atom Stereocenter Count 0
   Defined Bond Stereocenter Count   2
   Undefined Bond Stereocenter Count 0
   Covalently-Bonded Unit Count      1
   Feature 3D Acceptor Count         4
   Feature 3D Hydrophobe Count       2
   Effective Rotor Count             10
   Conformer Sampling RMSD           1
   CID Conformer Count               [9]83

References

   1. http://toxnet.nlm.nih.gov/cgi-bin/sis/search/r?dbs+hsdb:@term+@rn+@rel+59669-26-0
   2. http://toxnet.nlm.nih.gov/cgi-bin/sis/search/r?dbs+hsdb:@term+@rn+@rel+59669-26-0
   3. http://toxnet.nlm.nih.gov/cgi-bin/sis/search/r?dbs+hsdb:@term+@rn+@rel+59669-26-0
   4. http://toxnet.nlm.nih.gov/cgi-bin/sis/search/r?dbs+hsdb:@term+@rn+@rel+59669-26-0
   5. http://toxnet.nlm.nih.gov/cgi-bin/sis/search/r?dbs+hsdb:@term+@rn+@rel+59669-26-0
   6. http://toxnet.nlm.nih.gov/cgi-bin/sis/search/r?dbs+hsdb:@term+@rn+@rel+59669-26-0
   7. http://toxnet.nlm.nih.gov/cgi-bin/sis/search/r?dbs+hsdb:@term+@rn+@rel+59669-26-0
   8. http://toxnet.nlm.nih.gov/cgi-bin/sis/search/r?dbs+hsdb:@term+@rn+@rel+59669-26-0
   9. http://pubchem.ncbi.nlm.nih.gov/vw3d/vw3d.cgi?cid=6386307
