379539
  -OEChem-07051213032D

 39 42  0     0  0  0  0  0  0999 V2000
    5.6083   -0.6512    0.0000 O   0  0  0  0  0  0  0  0  0  0  0  0
    5.5161    0.3943    0.0000 O   0  0  0  0  0  0  0  0  0  0  0  0
    2.8963    3.9258    0.0000 O   0  0  0  0  0  0  0  0  0  0  0  0
    2.0520    2.3943    0.0000 O   0  0  0  0  0  0  0  0  0  0  0  0
    2.9731   -4.3057    0.0000 O   0  0  0  0  0  0  0  0  0  0  0  0
    3.7841    0.3943    0.0000 C   0  0  0  0  0  0  0  0  0  0  0  0
    3.8001   -0.6472    0.0000 C   0  0  0  0  0  0  0  0  0  0  0  0
    2.9180    0.8943    0.0000 C   0  0  0  0  0  0  0  0  0  0  0  0
    2.9021   -1.1749    0.0000 C   0  0  0  0  0  0  0  0  0  0  0  0
    3.7841    2.3943    0.0000 C   0  0  0  0  0  0  0  0  0  0  0  0
    4.6501    1.8943    0.0000 C   0  0  0  0  0  0  0  0  0  0  0  0
    4.6501    0.8943    0.0000 C   0  0  0  0  0  0  0  0  0  0  0  0
    2.9180    1.8943    0.0000 C   0  0  0  0  0  0  0  0  0  0  0  0
    2.0080    0.3875    0.0000 C   0  0  0  0  0  0  0  0  0  0  0  0
    4.7520   -1.1678    0.0000 C   0  0  0  0  0  0  0  0  0  0  0  0
    2.0000   -0.6541    0.0000 C   0  0  0  0  0  0  0  0  0  0  0  0
    2.8937   -2.2599    0.0000 C   0  0  0  0  0  0  0  0  0  0  0  0
    3.8334   -2.8024    0.0000 C   0  0  0  0  0  0  0  0  0  0  0  0
    3.7680    3.4358    0.0000 C   0  0  0  0  0  0  0  0  0  0  0  0
    4.7688   -2.2527    0.0000 C   0  0  0  0  0  0  0  0  0  0  0  0
    5.5601    2.4012    0.0000 C   0  0  0  0  0  0  0  0  0  0  0  0
    4.6660    3.9636    0.0000 C   0  0  0  0  0  0  0  0  0  0  0  0
    5.5681    3.4428    0.0000 C   0  0  0  0  0  0  0  0  0  0  0  0
    3.8372   -3.8024    0.0000 C   0  0  0  0  0  0  0  0  0  0  0  0
    2.8847    4.9257    0.0000 C   0  0  0  0  0  0  0  0  0  0  0  0
    1.4747    0.7037    0.0000 H   0  0  0  0  0  0  0  0  0  0  0  0
    1.4619   -0.9620    0.0000 H   0  0  0  0  0  0  0  0  0  0  0  0
    2.3556   -2.5678    0.0000 H   0  0  0  0  0  0  0  0  0  0  0  0
    5.3093   -2.5564    0.0000 H   0  0  0  0  0  0  0  0  0  0  0  0
    6.0934    2.0850    0.0000 H   0  0  0  0  0  0  0  0  0  0  0  0
    4.6636    4.5836    0.0000 H   0  0  0  0  0  0  0  0  0  0  0  0
    6.1062    3.7507    0.0000 H   0  0  0  0  0  0  0  0  0  0  0  0
    4.0515   -4.3842    0.0000 H   0  0  0  0  0  0  0  0  0  0  0  0
    4.4474   -3.6924    0.0000 H   0  0  0  0  0  0  0  0  0  0  0  0
    6.1511   -0.9508    0.0000 H   0  0  0  0  0  0  0  0  0  0  0  0
    3.5046    4.9329    0.0000 H   0  0  0  0  0  0  0  0  0  0  0  0
    2.8775    5.5457    0.0000 H   0  0  0  0  0  0  0  0  0  0  0  0
    2.2647    4.9186    0.0000 H   0  0  0  0  0  0  0  0  0  0  0  0
    2.9755   -4.9257    0.0000 H   0  0  0  0  0  0  0  0  0  0  0  0
  1 15  1  0  0  0  0
  1 35  1  0  0  0  0
  2 12  2  0  0  0  0
  3 19  1  0  0  0  0
  3 25  1  0  0  0  0
  4 13  2  0  0  0  0
  5 24  1  0  0  0  0
  5 39  1  0  0  0  0
  6  7  1  0  0  0  0
  6  8  2  0  0  0  0
  6 12  1  0  0  0  0
  7  9  1  0  0  0  0
  7 15  2  0  0  0  0
  8 13  1  0  0  0  0
  8 14  1  0  0  0  0
  9 16  1  0  0  0  0
  9 17  2  0  0  0  0
 10 11  2  0  0  0  0
 10 13  1  0  0  0  0
 10 19  1  0  0  0  0
 11 12  1  0  0  0  0
 11 21  1  0  0  0  0
 14 16  2  0  0  0  0
 14 26  1  0  0  0  0
 15 20  1  0  0  0  0
 16 27  1  0  0  0  0
 17 18  1  0  0  0  0
 17 28  1  0  0  0  0
 18 20  2  0  0  0  0
 18 24  1  0  0  0  0
 19 22  2  0  0  0  0
 20 29  1  0  0  0  0
 21 23  2  0  0  0  0
 21 30  1  0  0  0  0
 22 23  1  0  0  0  0
 22 31  1  0  0  0  0
 23 32  1  0  0  0  0
 24 33  1  0  0  0  0
 24 34  1  0  0  0  0
 25 36  1  0  0  0  0
 25 37  1  0  0  0  0
 25 38  1  0  0  0  0
M  END
> <PUBCHEM_COMPOUND_CID>
379539

> <PUBCHEM_COMPOUND_CANONICALIZED>
1

> <PUBCHEM_CACTVS_COMPLEXITY>
546

> <PUBCHEM_CACTVS_HBOND_ACCEPTOR>
5

> <PUBCHEM_CACTVS_HBOND_DONOR>
2

> <PUBCHEM_CACTVS_ROTATABLE_BOND>
2

> <PUBCHEM_CACTVS_SUBSKEYS>
AAADccB4OAAAAAAAAAAAAAAAAAAAAAAAAAAwYMGAAAAAAADBVAAAGgAACAAADASgmAIyBsAABgCIAqBSAAACCAAkIAAIiAEGCMgMNjaGNRqAcWAk4BEIuYfLzPDOwAADAAAYAACAAAYAADAAAAAAAAAAAA==

> <PUBCHEM_IUPAC_OPENEYE_NAME>
1-hydroxy-3-(hydroxymethyl)-8-methoxy-benzo[a]anthracene-7,12-dione

> <PUBCHEM_IUPAC_CAS_NAME>
1-hydroxy-3-(hydroxymethyl)-8-methoxybenzo[a]anthracene-7,12-dione

> <PUBCHEM_IUPAC_NAME>
1-hydroxy-3-(hydroxymethyl)-8-methoxybenzo[a]anthracene-7,12-dione

> <PUBCHEM_IUPAC_SYSTEMATIC_NAME>
3-(hydroxymethyl)-8-methoxy-1-oxidanyl-benzo[a]anthracene-7,12-dione

> <PUBCHEM_IUPAC_TRADITIONAL_NAME>
1-hydroxy-8-methoxy-3-methylol-benz[a]anthracene-7,12-quinone

> <PUBCHEM_IUPAC_INCHI>
InChI=1S/C20H14O5/c1-25-15-4-2-3-12-17(15)19(23)13-6-5-11-7-10(9-21)8-14(22)16(11)18(13)20(12)24/h2-8,21-22H,9H2,1H3

> <PUBCHEM_IUPAC_INCHIKEY>
IWDFTRSGZDSLDE-UHFFFAOYSA-N

> <PUBCHEM_XLOGP3_AA>
2.8

> <PUBCHEM_EXACT_MASS>
334.084124

> <PUBCHEM_MOLECULAR_FORMULA>
C20H14O5

> <PUBCHEM_MOLECULAR_WEIGHT>
334.32216

> <PUBCHEM_OPENEYE_CAN_SMILES>
COC1=CC=CC2=C1C(=O)C3=C(C2=O)C4=C(C=C(C=C4C=C3)CO)O

> <PUBCHEM_OPENEYE_ISO_SMILES>
COC1=CC=CC2=C1C(=O)C3=C(C2=O)C4=C(C=C(C=C4C=C3)CO)O

> <PUBCHEM_CACTVS_TPSA>
83.8

> <PUBCHEM_MONOISOTOPIC_WEIGHT>
334.084124

> <PUBCHEM_TOTAL_CHARGE>
0

> <PUBCHEM_HEAVY_ATOM_COUNT>
25

> <PUBCHEM_ATOM_DEF_STEREO_COUNT>
0

> <PUBCHEM_ATOM_UDEF_STEREO_COUNT>
0

> <PUBCHEM_BOND_DEF_STEREO_COUNT>
0

> <PUBCHEM_BOND_UDEF_STEREO_COUNT>
0

> <PUBCHEM_ISOTOPIC_ATOM_COUNT>
0

> <PUBCHEM_COMPONENT_COUNT>
1

> <PUBCHEM_CACTVS_TAUTO_COUNT>
7

> <PUBCHEM_COORDINATE_TYPE>
1
5
255

> <PUBCHEM_BONDANNOTATIONS>
10  11  8
10  19  8
11  21  8
14  16  8
15  20  8
17  18  8
18  20  8
19  22  8
21  23  8
22  23  8
6  7  8
6  8  8
7  15  8
7  9  8
8  14  8
9  16  8
9  17  8

$$$$

