47205448
  -OEChem-06241222582D

 44 45  0     0  0  0  0  0  0999 V2000
    2.8660   -3.5670    0.0000 S   0  0  0  0  0  0  0  0  0  0  0  0
    2.3660   -4.4330    0.0000 O   0  0  0  0  0  0  0  0  0  0  0  0
    3.3660   -4.4330    0.0000 O   0  0  0  0  0  0  0  0  0  0  0  0
    4.5981   -0.5670    0.0000 O   0  0  0  0  0  0  0  0  0  0  0  0
    2.8660   -1.5670    0.0000 N   0  0  0  0  0  0  0  0  0  0  0  0
    3.7320    0.9330    0.0000 N   0  0  0  0  0  0  0  0  0  0  0  0
    3.7320   -2.0670    0.0000 C   0  0  0  0  0  0  0  0  0  0  0  0
    2.0000   -2.0670    0.0000 C   0  0  0  0  0  0  0  0  0  0  0  0
    2.0000   -3.0670    0.0000 C   0  0  0  0  0  0  0  0  0  0  0  0
    3.7320   -3.0670    0.0000 C   0  0  0  0  0  0  0  0  0  0  0  0
    2.8660   -0.5670    0.0000 C   0  0  0  0  0  0  0  0  0  0  0  0
    5.4641    3.9330    0.0000 C   0  0  0  0  0  0  0  0  0  0  0  0
    5.4641    2.9330    0.0000 C   0  0  0  0  0  0  0  0  0  0  0  0
    6.3301    4.4330    0.0000 C   0  0  0  0  0  0  0  0  0  0  0  0
    7.1962    3.9330    0.0000 C   0  0  0  0  0  0  0  0  0  0  0  0
    4.5981    2.4330    0.0000 C   0  0  0  0  0  0  0  0  0  0  0  0
    7.1962    2.9330    0.0000 C   0  0  0  0  0  0  0  0  0  0  0  0
    6.3301    2.4330    0.0000 C   0  0  0  0  0  0  0  0  0  0  0  0
    4.5981    1.4330    0.0000 C   0  0  0  0  0  0  0  0  0  0  0  0
    3.7320   -0.0670    0.0000 C   0  0  0  0  0  0  0  0  0  0  0  0
    1.7880   -1.4844    0.0000 H   0  0  0  0  0  0  0  0  0  0  0  0
    1.3894   -2.1747    0.0000 H   0  0  0  0  0  0  0  0  0  0  0  0
    4.3426   -2.1747    0.0000 H   0  0  0  0  0  0  0  0  0  0  0  0
    3.9441   -1.4844    0.0000 H   0  0  0  0  0  0  0  0  0  0  0  0
    1.3894   -2.9593    0.0000 H   0  0  0  0  0  0  0  0  0  0  0  0
    1.7880   -3.6496    0.0000 H   0  0  0  0  0  0  0  0  0  0  0  0
    3.9441   -3.6496    0.0000 H   0  0  0  0  0  0  0  0  0  0  0  0
    4.3426   -2.9593    0.0000 H   0  0  0  0  0  0  0  0  0  0  0  0
    2.6540    0.0156    0.0000 H   0  0  0  0  0  0  0  0  0  0  0  0
    2.2554   -0.6746    0.0000 H   0  0  0  0  0  0  0  0  0  0  0  0
    5.2520    4.5156    0.0000 H   0  0  0  0  0  0  0  0  0  0  0  0
    4.8535    3.8254    0.0000 H   0  0  0  0  0  0  0  0  0  0  0  0
    6.7287    4.9080    0.0000 H   0  0  0  0  0  0  0  0  0  0  0  0
    5.9316    4.9080    0.0000 H   0  0  0  0  0  0  0  0  0  0  0  0
    7.8067    3.8254    0.0000 H   0  0  0  0  0  0  0  0  0  0  0  0
    7.4082    4.5156    0.0000 H   0  0  0  0  0  0  0  0  0  0  0  0
    4.3860    3.0156    0.0000 H   0  0  0  0  0  0  0  0  0  0  0  0
    3.9875    2.3253    0.0000 H   0  0  0  0  0  0  0  0  0  0  0  0
    7.4082    2.3504    0.0000 H   0  0  0  0  0  0  0  0  0  0  0  0
    7.8067    3.0407    0.0000 H   0  0  0  0  0  0  0  0  0  0  0  0
    6.3301    1.8130    0.0000 H   0  0  0  0  0  0  0  0  0  0  0  0
    4.8101    0.8504    0.0000 H   0  0  0  0  0  0  0  0  0  0  0  0
    5.2087    1.5407    0.0000 H   0  0  0  0  0  0  0  0  0  0  0  0
    3.1951    1.2430    0.0000 H   0  0  0  0  0  0  0  0  0  0  0  0
  1  2  2  0  0  0  0
  1  3  2  0  0  0  0
  1  9  1  0  0  0  0
  1 10  1  0  0  0  0
  4 20  2  0  0  0  0
  5  7  1  0  0  0  0
  5  8  1  0  0  0  0
  5 11  1  0  0  0  0
  6 19  1  0  0  0  0
  6 20  1  0  0  0  0
  6 44  1  0  0  0  0
  7 10  1  0  0  0  0
  7 23  1  0  0  0  0
  7 24  1  0  0  0  0
  8  9  1  0  0  0  0
  8 21  1  0  0  0  0
  8 22  1  0  0  0  0
  9 25  1  0  0  0  0
  9 26  1  0  0  0  0
 10 27  1  0  0  0  0
 10 28  1  0  0  0  0
 11 20  1  0  0  0  0
 11 29  1  0  0  0  0
 11 30  1  0  0  0  0
 12 13  1  0  0  0  0
 12 14  1  0  0  0  0
 12 31  1  0  0  0  0
 12 32  1  0  0  0  0
 13 16  1  0  0  0  0
 13 18  2  0  0  0  0
 14 15  1  0  0  0  0
 14 33  1  0  0  0  0
 14 34  1  0  0  0  0
 15 17  1  0  0  0  0
 15 35  1  0  0  0  0
 15 36  1  0  0  0  0
 16 19  1  0  0  0  0
 16 37  1  0  0  0  0
 16 38  1  0  0  0  0
 17 18  1  0  0  0  0
 17 39  1  0  0  0  0
 17 40  1  0  0  0  0
 18 41  1  0  0  0  0
 19 42  1  0  0  0  0
 19 43  1  0  0  0  0
M  END
> <PUBCHEM_COMPOUND_CID>
47205448

> <PUBCHEM_COMPOUND_CANONICALIZED>
1

> <PUBCHEM_CACTVS_COMPLEXITY>
451

> <PUBCHEM_CACTVS_HBOND_ACCEPTOR>
4

> <PUBCHEM_CACTVS_HBOND_DONOR>
1

> <PUBCHEM_CACTVS_ROTATABLE_BOND>
5

> <PUBCHEM_CACTVS_SUBSKEYS>
AAADceBzMABAAAAAAAAAAAAAAAAAAAAAAAAsQAAAAAAAAAAAAAAAHgQQAAAADADFwASAAAPAAAqIAiFSEHBAAAAgABAACICIAAgAQAIAgSAUAAAAlgCoAAMQgIAAAAAAAAAAAAAAAAAAAAAAAAAAAAAAAA==

> <PUBCHEM_IUPAC_OPENEYE_NAME>
N-[2-(cyclohexen-1-yl)ethyl]-2-(1,1-dioxo-1,4-thiazinan-4-yl)acetamide

> <PUBCHEM_IUPAC_CAS_NAME>
N-[2-(1-cyclohexenyl)ethyl]-2-(1,1-dioxo-1,4-thiazinan-4-yl)acetamide

> <PUBCHEM_IUPAC_NAME>
N-[2-(cyclohexen-1-yl)ethyl]-2-(1,1-dioxo-1,4-thiazinan-4-yl)acetamide

> <PUBCHEM_IUPAC_SYSTEMATIC_NAME>
2-[1,1-bis(oxidanylidene)-1,4-thiazinan-4-yl]-N-[2-(cyclohexen-1-yl)ethyl]ethanamide

> <PUBCHEM_IUPAC_TRADITIONAL_NAME>
N-[2-(cyclohexen-1-yl)ethyl]-2-(1,1-diketo-1,4-thiazinan-4-yl)acetamide

> <PUBCHEM_IUPAC_INCHI>
InChI=1S/C14H24N2O3S/c17-14(12-16-8-10-20(18,19)11-9-16)15-7-6-13-4-2-1-3-5-13/h4H,1-3,5-12H2,(H,15,17)

> <PUBCHEM_IUPAC_INCHIKEY>
UONPOMLAGPJIBP-UHFFFAOYSA-N

> <PUBCHEM_XLOGP3_AA>
0.8

> <PUBCHEM_EXACT_MASS>
300.150764

> <PUBCHEM_MOLECULAR_FORMULA>
C14H24N2O3S

> <PUBCHEM_MOLECULAR_WEIGHT>
300.41696

> <PUBCHEM_OPENEYE_CAN_SMILES>
C1CCC(=CC1)CCNC(=O)CN2CCS(=O)(=O)CC2

> <PUBCHEM_OPENEYE_ISO_SMILES>
C1CCC(=CC1)CCNC(=O)CN2CCS(=O)(=O)CC2

> <PUBCHEM_CACTVS_TPSA>
74.9

> <PUBCHEM_MONOISOTOPIC_WEIGHT>
300.150764

> <PUBCHEM_TOTAL_CHARGE>
0

> <PUBCHEM_HEAVY_ATOM_COUNT>
20

> <PUBCHEM_ATOM_DEF_STEREO_COUNT>
0

> <PUBCHEM_ATOM_UDEF_STEREO_COUNT>
0

> <PUBCHEM_BOND_DEF_STEREO_COUNT>
0

> <PUBCHEM_BOND_UDEF_STEREO_COUNT>
0

> <PUBCHEM_ISOTOPIC_ATOM_COUNT>
0

> <PUBCHEM_COMPONENT_COUNT>
1

> <PUBCHEM_CACTVS_TAUTO_COUNT>
2

> <PUBCHEM_COORDINATE_TYPE>
1
5
255

$$$$

