5281446
  -OEChem-07051212572D

 53 55  0     1  0  0  0  0  0999 V2000
    8.2572   -0.3440    0.0000 Cl  0  0  0  0  0  0  0  0  0  0  0  0
    3.7230   -2.3371    0.0000 O   0  0  0  0  0  0  0  0  0  0  0  0
    4.5777   -2.6972    0.0000 O   0  0  0  0  0  0  0  0  0  0  0  0
    7.3840   -0.2310    0.0000 O   0  0  0  0  0  0  0  0  0  0  0  0
    4.5447    0.8283    0.0000 O   0  0  0  0  0  0  0  0  0  0  0  0
    8.0559   -2.4172    0.0000 O   0  0  0  0  0  0  0  0  0  0  0  0
    2.0000   -1.9049    0.0000 O   0  0  0  0  0  0  0  0  0  0  0  0
    6.1053    1.5798    0.0000 O   0  0  0  0  0  0  0  0  0  0  0  0
    6.3796   -1.8294    0.0000 C   0  0  2  0  0  0  0  0  0  0  0  0
    5.4786   -2.2633    0.0000 C   0  0  2  0  0  0  0  0  0  0  0  0
    6.6021   -0.8545    0.0000 C   0  0  1  0  0  0  0  0  0  0  0  0
    4.5777   -1.8294    0.0000 C   0  0  2  0  0  0  0  0  0  0  0  0
    4.3551   -0.8545    0.0000 C   0  0  1  0  0  0  0  0  0  0  0  0
    7.0647   -2.5497    0.0000 C   0  0  1  0  0  0  0  0  0  0  0  0
    5.9786   -0.0727    0.0000 C   0  0  0  0  0  0  0  0  0  0  0  0
    4.9786   -0.0727    0.0000 C   0  0  1  0  0  0  0  0  0  0  0  0
    5.6146   -3.2480    0.0000 C   0  0  0  0  0  0  0  0  0  0  0  0
    6.5929   -3.4247    0.0000 C   0  0  0  0  0  0  0  0  0  0  0  0
    7.5770   -1.0770    0.0000 C   0  0  0  0  0  0  0  0  0  0  0  0
    3.3648   -0.7680    0.0000 C   0  0  0  0  0  0  0  0  0  0  0  0
    4.8930   -3.9404    0.0000 C   0  0  0  0  0  0  0  0  0  0  0  0
    2.9749   -1.6824    0.0000 C   0  0  0  0  0  0  0  0  0  0  0  0
    2.8504    0.0896    0.0000 C   0  0  0  0  0  0  0  0  0  0  0  0
    5.1081    1.6545    0.0000 C   0  0  0  0  0  0  0  0  0  0  0  0
    4.6742    2.5555    0.0000 C   0  0  0  0  0  0  0  0  0  0  0  0
    3.6770    2.6302    0.0000 C   0  0  0  0  0  0  0  0  0  0  0  0
    5.2375    3.3818    0.0000 C   0  0  0  0  0  0  0  0  0  0  0  0
    6.2347    3.3070    0.0000 C   0  0  0  0  0  0  0  0  0  0  0  0
    7.1993   -1.6044    0.0000 H   0  0  0  0  0  0  0  0  0  0  0  0
    4.6147   -2.6786    0.0000 H   0  0  0  0  0  0  0  0  0  0  0  0
    4.0200   -0.0733    0.0000 H   0  0  0  0  0  0  0  0  0  0  0  0
    7.2707   -1.9650    0.0000 H   0  0  0  0  0  0  0  0  0  0  0  0
    6.5372    0.1963    0.0000 H   0  0  0  0  0  0  0  0  0  0  0  0
    5.8407    0.5318    0.0000 H   0  0  0  0  0  0  0  0  0  0  0  0
    4.3625   -0.0032    0.0000 H   0  0  0  0  0  0  0  0  0  0  0  0
    6.8619   -3.9833    0.0000 H   0  0  0  0  0  0  0  0  0  0  0  0
    7.3362   -1.6483    0.0000 H   0  0  0  0  0  0  0  0  0  0  0  0
    8.0979   -1.4134    0.0000 H   0  0  0  0  0  0  0  0  0  0  0  0
    4.5313   -3.3155    0.0000 H   0  0  0  0  0  0  0  0  0  0  0  0
    4.4638   -3.4930    0.0000 H   0  0  0  0  0  0  0  0  0  0  0  0
    4.4456   -4.3696    0.0000 H   0  0  0  0  0  0  0  0  0  0  0  0
    5.3223   -4.3877    0.0000 H   0  0  0  0  0  0  0  0  0  0  0  0
    7.2916    0.3821    0.0000 H   0  0  0  0  0  0  0  0  0  0  0  0
    8.4343   -2.9083    0.0000 H   0  0  0  0  0  0  0  0  0  0  0  0
    3.1514    0.6316    0.0000 H   0  0  0  0  0  0  0  0  0  0  0  0
    2.2305    0.0793    0.0000 H   0  0  0  0  0  0  0  0  0  0  0  0
    3.7233    3.2485    0.0000 H   0  0  0  0  0  0  0  0  0  0  0  0
    3.0587    2.6766    0.0000 H   0  0  0  0  0  0  0  0  0  0  0  0
    3.6306    2.0120    0.0000 H   0  0  0  0  0  0  0  0  0  0  0  0
    4.9685    3.9404    0.0000 H   0  0  0  0  0  0  0  0  0  0  0  0
    6.1884    2.6888    0.0000 H   0  0  0  0  0  0  0  0  0  0  0  0
    6.8530    3.2607    0.0000 H   0  0  0  0  0  0  0  0  0  0  0  0
    6.2810    3.9253    0.0000 H   0  0  0  0  0  0  0  0  0  0  0  0
  1 19  1  0  0  0  0
  2 12  1  0  0  0  0
  2 22  1  0  0  0  0
 10  3  1  1  0  0  0
  3 39  1  0  0  0  0
 11  4  1  1  0  0  0
  4 43  1  0  0  0  0
 16  5  1  6  0  0  0
  5 24  1  0  0  0  0
 14  6  1  6  0  0  0
  6 44  1  0  0  0  0
  7 22  2  0  0  0  0
  8 24  2  0  0  0  0
  9 10  1  0  0  0  0
  9 11  1  0  0  0  0
  9 14  1  0  0  0  0
  9 29  1  1  0  0  0
 10 12  1  0  0  0  0
 10 17  1  0  0  0  0
 11 15  1  0  0  0  0
 11 19  1  0  0  0  0
 12 13  1  0  0  0  0
 12 30  1  6  0  0  0
 13 16  1  0  0  0  0
 13 20  1  0  0  0  0
 13 31  1  1  0  0  0
 14 18  1  0  0  0  0
 14 32  1  0  0  0  0
 15 16  1  0  0  0  0
 15 33  1  0  0  0  0
 15 34  1  0  0  0  0
 16 35  1  0  0  0  0
 17 18  2  0  0  0  0
 17 21  1  0  0  0  0
 18 36  1  0  0  0  0
 19 37  1  0  0  0  0
 19 38  1  0  0  0  0
 20 22  1  0  0  0  0
 20 23  2  0  0  0  0
 21 40  1  0  0  0  0
 21 41  1  0  0  0  0
 21 42  1  0  0  0  0
 23 45  1  0  0  0  0
 23 46  1  0  0  0  0
 24 25  1  0  0  0  0
 25 26  1  0  0  0  0
 25 27  2  0  0  0  0
 26 47  1  0  0  0  0
 26 48  1  0  0  0  0
 26 49  1  0  0  0  0
 27 28  1  0  0  0  0
 27 50  1  0  0  0  0
 28 51  1  0  0  0  0
 28 52  1  0  0  0  0
 28 53  1  0  0  0  0
M  END
> <PUBCHEM_COMPOUND_CID>
5281446

> <PUBCHEM_COMPOUND_CANONICALIZED>
1

> <PUBCHEM_CACTVS_COMPLEXITY>
787

> <PUBCHEM_CACTVS_HBOND_ACCEPTOR>
7

> <PUBCHEM_CACTVS_HBOND_DONOR>
3

> <PUBCHEM_CACTVS_ROTATABLE_BOND>
4

> <PUBCHEM_CACTVS_SUBSKEYS>
AAADceB4OAAEAAAAAAAAAAAAAAAAASIAAAAAAAAABgAAAACQAAAAGgIACAAADVeggEICCAAABgCIAiDSCAAAAAAgAAAACAEAA0gBFBIBIQACUAAFwAALMYPK7PzOgAAAAAAAAAAAAAAAAAAAAAAAAAAAAA==

> <PUBCHEM_IUPAC_OPENEYE_NAME>
[(3aR,4R,6R,6aR,7R,9aS,9bS)-6-(chloromethyl)-6,7,9a-trihydroxy-9-methyl-3-methylene-2-oxo-3a,4,5,6a,7,9b-hexahydroazuleno[4,5-b]furan-4-yl] (Z)-2-methylbut-2-enoate

> <PUBCHEM_IUPAC_CAS_NAME>
(Z)-2-methyl-2-butenoic acid [(3aR,4R,6R,6aR,7R,9aS,9bS)-6-(chloromethyl)-6,7,9a-trihydroxy-9-methyl-3-methylene-2-oxo-3a,4,5,6a,7,9b-hexahydroazuleno[4,5-b]furan-4-yl] ester

> <PUBCHEM_IUPAC_NAME>
[(3aR,4R,6R,6aR,7R,9aS,9bS)-6-(chloromethyl)-6,7,9a-trihydroxy-9-methyl-3-methylidene-2-oxo-3a,4,5,6a,7,9b-hexahydroazuleno[4,5-b]furan-4-yl] (Z)-2-methylbut-2-enoate

> <PUBCHEM_IUPAC_SYSTEMATIC_NAME>
[(3aR,4R,6R,6aR,7R,9aS,9bS)-6-(chloromethyl)-9-methyl-3-methylidene-6,7,9a-tris(oxidanyl)-2-oxidanylidene-3a,4,5,6a,7,9b-hexahydroazuleno[4,5-b]furan-4-yl] (Z)-2-methylbut-2-enoate

> <PUBCHEM_IUPAC_TRADITIONAL_NAME>
(Z)-2-methylbut-2-enoic acid [(3aR,4R,6R,6aR,7R,9aS,9bS)-6-(chloromethyl)-6,7,9a-trihydroxy-2-keto-9-methyl-3-methylene-3a,4,5,6a,7,9b-hexahydroazuleno[4,5-b]furan-4-yl] ester

> <PUBCHEM_IUPAC_INCHI>
InChI=1S/C20H25ClO7/c1-5-9(2)17(23)27-13-7-19(25,8-21)15-12(22)6-10(3)20(15,26)16-14(13)11(4)18(24)28-16/h5-6,12-16,22,25-26H,4,7-8H2,1-3H3/b9-5-/t12-,13-,14-,15+,16+,19+,20-/m1/s1

> <PUBCHEM_IUPAC_INCHIKEY>
VCAKAFVZYNRGKS-WBNZXOOCSA-N

> <PUBCHEM_XLOGP3_AA>
0.6

> <PUBCHEM_EXACT_MASS>
412.128881

> <PUBCHEM_MOLECULAR_FORMULA>
C20H25ClO7

> <PUBCHEM_MOLECULAR_WEIGHT>
412.8613

> <PUBCHEM_OPENEYE_CAN_SMILES>
CC=C(C)C(=O)OC1CC(C2C(C=C(C2(C3C1C(=C)C(=O)O3)O)C)O)(CCl)O

> <PUBCHEM_OPENEYE_ISO_SMILES>
C/C=C(/C)\C(=O)O[C@@H]1C[C@@]([C@@H]2[C@@H](C=C([C@@]2([C@@H]3[C@@H]1C(=C)C(=O)O3)O)C)O)(CCl)O

> <PUBCHEM_CACTVS_TPSA>
113

> <PUBCHEM_MONOISOTOPIC_WEIGHT>
412.128881

> <PUBCHEM_TOTAL_CHARGE>
0

> <PUBCHEM_HEAVY_ATOM_COUNT>
28

> <PUBCHEM_ATOM_DEF_STEREO_COUNT>
7

> <PUBCHEM_ATOM_UDEF_STEREO_COUNT>
0

> <PUBCHEM_BOND_DEF_STEREO_COUNT>
1

> <PUBCHEM_BOND_UDEF_STEREO_COUNT>
0

> <PUBCHEM_ISOTOPIC_ATOM_COUNT>
0

> <PUBCHEM_COMPONENT_COUNT>
1

> <PUBCHEM_CACTVS_TAUTO_COUNT>
1

> <PUBCHEM_COORDINATE_TYPE>
1
5
255

> <PUBCHEM_BONDANNOTATIONS>
12  30  6
13  31  5
10  3  5
11  4  5
16  5  6
14  6  6
9  29  5

$$$$

