   Melting Point
        75.7-76.5 deg C
   from [1]HSDB

   Dissociation Constants
        pKa = 11.2 /Estimated/
   from [2]HSDB

   Octanol/Water Partition Coefficient
        log Kow = 4.15 /Estimated/
   from [3]HSDB

   Vapor Pressure
        1.9X10-15 mm Hg at 25 deg C /Estimated/
   from [4]HSDB

   Other Chemical/Physical Properties

     * Henry's Law constant = 2.5X10-17 atm-cu m/mol at 25 deg C
       /Estimated/
     * Hydroxyl radical reaction rate constant = 1.8X10-10 cu cm/molec sec
       at 25 deg C /Estimated/
     * White to off white. MW: 603.8. Soluble in methanol, slightly
       soluble in ethanol, chloroform and isopropanol; sparingly soluble
       in water /Xinafoate salt/

   from [5]HSDB

   Computed Properties
   Molecular Weight                  415.56558 [g/mol]
   Molecular Formula                 C[25]H[37]NO[4]
   XLogP3-AA                         3.9
   H-Bond Donor                      4
   H-Bond Acceptor                   5
   Rotatable Bond Count              16
   Tautomer Count                    3
   Exact Mass                        415.272259
   MonoIsotopic Mass                 415.272259
   Topological Polar Surface Area    82
   Heavy Atom Count                  30
   Formal Charge                     0
   Complexity                        403
   Isotope Atom Count                0
   Defined Atom Stereocenter Count   0
   Undefined Atom Stereocenter Count 1
   Defined Bond Stereocenter Count   0
   Undefined Bond Stereocenter Count 0
   Covalently-Bonded Unit Count      1

References

   1. http://toxnet.nlm.nih.gov/cgi-bin/sis/search/r?dbs+hsdb:@term+@rn+@rel+89365-50-4
   2. http://toxnet.nlm.nih.gov/cgi-bin/sis/search/r?dbs+hsdb:@term+@rn+@rel+89365-50-4
   3. http://toxnet.nlm.nih.gov/cgi-bin/sis/search/r?dbs+hsdb:@term+@rn+@rel+89365-50-4
   4. http://toxnet.nlm.nih.gov/cgi-bin/sis/search/r?dbs+hsdb:@term+@rn+@rel+89365-50-4
   5. http://toxnet.nlm.nih.gov/cgi-bin/sis/search/r?dbs+hsdb:@term+@rn+@rel+89365-50-4
