443615
  -OEChem-07051213022D

 64 66  0     1  0  0  0  0  0999 V2000
    8.5991    0.9050    0.0000 O   0  0  0  0  0  0  0  0  0  0  0  0
    7.7331   -1.5950    0.0000 O   0  0  0  0  0  0  0  0  0  0  0  0
    6.8671   -0.0950    0.0000 O   0  0  0  0  0  0  0  0  0  0  0  0
   10.3312    0.9050    0.0000 O   0  0  0  0  0  0  0  0  0  0  0  0
    4.2690   -0.5950    0.0000 O   0  0  0  0  0  0  0  0  0  0  0  0
   10.3312   -0.0950    0.0000 O   0  0  0  0  0  0  0  0  0  0  0  0
   10.3312   -2.0950    0.0000 O   0  0  0  0  0  0  0  0  0  0  0  0
    8.5991    2.9050    0.0000 O   0  0  0  0  0  0  0  0  0  0  0  0
    6.8671   -2.0950    0.0000 O   0  0  0  0  0  0  0  0  0  0  0  0
   10.3312    3.9050    0.0000 O   0  0  0  0  0  0  0  0  0  0  0  0
   12.0632    2.9050    0.0000 O   0  0  0  0  0  0  0  0  0  0  0  0
    5.1350   -3.0950    0.0000 O   0  0  0  0  0  0  0  0  0  0  0  0
    5.1350    0.9050    0.0000 O   0  0  0  0  0  0  0  0  0  0  0  0
    7.7331   -3.5950    0.0000 O   0  0  0  0  0  0  0  0  0  0  0  0
    2.5369   -1.5950    0.0000 O   0  0  0  0  0  0  0  0  0  0  0  0
    3.4030   -3.0950    0.0000 O   0  0  0  0  0  0  0  0  0  0  0  0
    8.5991   -0.0950    0.0000 C   0  0  2  0  0  0  0  0  0  0  0  0
    9.4651   -0.5950    0.0000 C   0  0  2  0  0  0  0  0  0  0  0  0
    7.7331   -0.5950    0.0000 C   0  0  1  0  0  0  0  0  0  0  0  0
    9.4651   -1.5950    0.0000 C   0  0  2  0  0  0  0  0  0  0  0  0
    8.5991   -2.0950    0.0000 C   0  0  1  0  0  0  0  0  0  0  0  0
    6.0010   -0.5950    0.0000 C   0  0  2  0  0  0  0  0  0  0  0  0
    9.4651    1.4050    0.0000 C   0  0  2  0  0  0  0  0  0  0  0  0
    9.4651    2.4050    0.0000 C   0  0  1  0  0  0  0  0  0  0  0  0
    6.0010   -1.5950    0.0000 C   0  0  2  0  0  0  0  0  0  0  0  0
   10.3312    2.9050    0.0000 C   0  0  1  0  0  0  0  0  0  0  0  0
   11.1972    2.4050    0.0000 C   0  0  2  0  0  0  0  0  0  0  0  0
   11.1972    1.4050    0.0000 C   0  0  2  0  0  0  0  0  0  0  0  0
    5.1350   -2.0950    0.0000 C   0  0  1  0  0  0  0  0  0  0  0  0
    5.1350   -0.0950    0.0000 C   0  0  1  0  0  0  0  0  0  0  0  0
    4.2690   -1.5950    0.0000 C   0  0  1  0  0  0  0  0  0  0  0  0
    8.5991   -3.0950    0.0000 C   0  0  0  0  0  0  0  0  0  0  0  0
   12.0632    0.9050    0.0000 C   0  0  0  0  0  0  0  0  0  0  0  0
    3.4030   -2.0950    0.0000 C   0  0  0  0  0  0  0  0  0  0  0  0
    8.0622    0.2150    0.0000 H   0  0  0  0  0  0  0  0  0  0  0  0
   10.0021   -0.9050    0.0000 H   0  0  0  0  0  0  0  0  0  0  0  0
    7.7331    0.0250    0.0000 H   0  0  0  0  0  0  0  0  0  0  0  0
   10.0021   -1.2850    0.0000 H   0  0  0  0  0  0  0  0  0  0  0  0
    8.0622   -2.4050    0.0000 H   0  0  0  0  0  0  0  0  0  0  0  0
    6.5380   -0.9050    0.0000 H   0  0  0  0  0  0  0  0  0  0  0  0
    9.4651    0.7850    0.0000 H   0  0  0  0  0  0  0  0  0  0  0  0
    9.4651    3.0250    0.0000 H   0  0  0  0  0  0  0  0  0  0  0  0
    6.5380   -1.2850    0.0000 H   0  0  0  0  0  0  0  0  0  0  0  0
   10.8681    3.2150    0.0000 H   0  0  0  0  0  0  0  0  0  0  0  0
   11.1972    3.0250    0.0000 H   0  0  0  0  0  0  0  0  0  0  0  0
   11.1972    0.7850    0.0000 H   0  0  0  0  0  0  0  0  0  0  0  0
    5.6720   -2.4050    0.0000 H   0  0  0  0  0  0  0  0  0  0  0  0
    5.6720    0.2150    0.0000 H   0  0  0  0  0  0  0  0  0  0  0  0
    3.7320   -1.2850    0.0000 H   0  0  0  0  0  0  0  0  0  0  0  0
    8.8112   -3.6776    0.0000 H   0  0  0  0  0  0  0  0  0  0  0  0
    9.2097   -2.9873    0.0000 H   0  0  0  0  0  0  0  0  0  0  0  0
   10.8681   -0.4050    0.0000 H   0  0  0  0  0  0  0  0  0  0  0  0
   10.3312   -2.7150    0.0000 H   0  0  0  0  0  0  0  0  0  0  0  0
   11.7532    0.3681    0.0000 H   0  0  0  0  0  0  0  0  0  0  0  0
   12.6002    0.5950    0.0000 H   0  0  0  0  0  0  0  0  0  0  0  0
   12.3732    1.4419    0.0000 H   0  0  0  0  0  0  0  0  0  0  0  0
    8.5991    3.5250    0.0000 H   0  0  0  0  0  0  0  0  0  0  0  0
    6.8671   -2.7150    0.0000 H   0  0  0  0  0  0  0  0  0  0  0  0
   10.8681    4.2150    0.0000 H   0  0  0  0  0  0  0  0  0  0  0  0
   12.6002    2.5950    0.0000 H   0  0  0  0  0  0  0  0  0  0  0  0
    4.5981   -3.4050    0.0000 H   0  0  0  0  0  0  0  0  0  0  0  0
    4.5981    1.2150    0.0000 H   0  0  0  0  0  0  0  0  0  0  0  0
    7.7331   -4.2150    0.0000 H   0  0  0  0  0  0  0  0  0  0  0  0
    2.0000   -1.9050    0.0000 H   0  0  0  0  0  0  0  0  0  0  0  0
 17  1  1  6  0  0  0
 23  1  1  1  0  0  0
  2 19  1  0  0  0  0
  2 21  1  0  0  0  0
 19  3  1  1  0  0  0
 22  3  1  6  0  0  0
  4 23  1  0  0  0  0
  4 28  1  0  0  0  0
  5 30  1  0  0  0  0
  5 31  1  0  0  0  0
 18  6  1  1  0  0  0
  6 52  1  0  0  0  0
 20  7  1  1  0  0  0
  7 53  1  0  0  0  0
 24  8  1  6  0  0  0
  8 57  1  0  0  0  0
 25  9  1  1  0  0  0
  9 58  1  0  0  0  0
 26 10  1  6  0  0  0
 10 59  1  0  0  0  0
 27 11  1  1  0  0  0
 11 60  1  0  0  0  0
 29 12  1  6  0  0  0
 12 61  1  0  0  0  0
 30 13  1  1  0  0  0
 13 62  1  0  0  0  0
 14 32  1  0  0  0  0
 14 63  1  0  0  0  0
 15 34  1  0  0  0  0
 15 64  1  0  0  0  0
 16 34  2  0  0  0  0
 17 18  1  0  0  0  0
 17 19  1  0  0  0  0
 17 35  1  0  0  0  0
 18 20  1  0  0  0  0
 18 36  1  0  0  0  0
 19 37  1  0  0  0  0
 20 21  1  0  0  0  0
 20 38  1  0  0  0  0
 21 32  1  1  0  0  0
 21 39  1  0  0  0  0
 22 25  1  0  0  0  0
 22 30  1  0  0  0  0
 22 40  1  0  0  0  0
 23 24  1  0  0  0  0
 23 41  1  0  0  0  0
 24 26  1  0  0  0  0
 24 42  1  0  0  0  0
 25 29  1  0  0  0  0
 25 43  1  0  0  0  0
 26 27  1  0  0  0  0
 26 44  1  0  0  0  0
 27 28  1  0  0  0  0
 27 45  1  0  0  0  0
 28 33  1  6  0  0  0
 28 46  1  0  0  0  0
 29 31  1  0  0  0  0
 29 47  1  0  0  0  0
 30 48  1  0  0  0  0
 31 34  1  1  0  0  0
 31 49  1  0  0  0  0
 32 50  1  0  0  0  0
 32 51  1  0  0  0  0
 33 54  1  0  0  0  0
 33 55  1  0  0  0  0
 33 56  1  0  0  0  0
M  END
> <PUBCHEM_COMPOUND_CID>
443615

> <PUBCHEM_COMPOUND_CANONICALIZED>
1

> <PUBCHEM_CACTVS_COMPLEXITY>
695

> <PUBCHEM_CACTVS_HBOND_ACCEPTOR>
16

> <PUBCHEM_CACTVS_HBOND_DONOR>
10

> <PUBCHEM_CACTVS_ROTATABLE_BOND>
6

> <PUBCHEM_CACTVS_SUBSKEYS>
AAADceB4PgAAAAAAAAAAAAAAAAAAAAAAAAAkSJAAAAAAAAAAAAAAGgAACAAACBSwgAMCCAAABgAIAACQCAIAAAAAAAAAAAFAAAAREBYAAAQiQAAFIAAHAAHKbAxAAAAAAAAAAAAAAAAAAAAAAAAAAAAAAA==

> <PUBCHEM_IUPAC_OPENEYE_NAME>
(2S,3S,4S,5R,6R)-5-[(2S,3R,4S,5R,6R)-4,5-dihydroxy-6-(hydroxymethyl)-3-[(2S,3R,4R,5R,6S)-3,4,5-trihydroxy-6-methyl-tetrahydropyran-2-yl]oxy-tetrahydropyran-2-yl]oxy-3,4,6-trihydroxy-tetrahydropyran-2-carboxylic acid

> <PUBCHEM_IUPAC_CAS_NAME>
(2S,3S,4S,5R,6R)-5-[[(2S,3R,4S,5R,6R)-4,5-dihydroxy-6-(hydroxymethyl)-3-[[(2S,3R,4R,5R,6S)-3,4,5-trihydroxy-6-methyl-2-oxanyl]oxy]-2-oxanyl]oxy]-3,4,6-trihydroxy-2-oxanecarboxylic acid

> <PUBCHEM_IUPAC_NAME>
(2S,3S,4S,5R,6R)-5-[(2S,3R,4S,5R,6R)-4,5-dihydroxy-6-(hydroxymethyl)-3-[(2S,3R,4R,5R,6S)-3,4,5-trihydroxy-6-methyloxan-2-yl]oxyoxan-2-yl]oxy-3,4,6-trihydroxyoxane-2-carboxylic acid

> <PUBCHEM_IUPAC_SYSTEMATIC_NAME>
(2S,3S,4S,5R,6R)-5-[(2S,3R,4S,5R,6R)-6-(hydroxymethyl)-3-[(2S,3R,4R,5R,6S)-6-methyl-3,4,5-tris(oxidanyl)oxan-2-yl]oxy-4,5-bis(oxidanyl)oxan-2-yl]oxy-3,4,6-tris(oxidanyl)oxane-2-carboxylic acid

> <PUBCHEM_IUPAC_TRADITIONAL_NAME>
(2S,3S,4S,5R,6R)-5-[(2S,3R,4S,5R,6R)-4,5-dihydroxy-6-methylol-3-[(2S,3R,4R,5R,6S)-3,4,5-trihydroxy-6-methyl-tetrahydropyran-2-yl]oxy-tetrahydropyran-2-yl]oxy-3,4,6-trihydroxy-tetrahydropyran-2-carboxylic acid

> <PUBCHEM_IUPAC_INCHI>
InChI=1S/C18H30O16/c1-3-5(20)7(22)11(26)17(30-3)34-14-8(23)6(21)4(2-19)31-18(14)33-13-10(25)9(24)12(15(27)28)32-16(13)29/h3-14,16-26,29H,2H2,1H3,(H,27,28)/t3-,4+,5-,6-,7+,8-,9-,10-,11+,12-,13+,14+,16+,17-,18-/m0/s1

> <PUBCHEM_IUPAC_INCHIKEY>
NDHWVPLSWYRBNC-HNQAFTETSA-N

> <PUBCHEM_XLOGP3_AA>
-5

> <PUBCHEM_EXACT_MASS>
502.153385

> <PUBCHEM_MOLECULAR_FORMULA>
C18H30O16

> <PUBCHEM_MOLECULAR_WEIGHT>
502.4212

> <PUBCHEM_OPENEYE_CAN_SMILES>
CC1C(C(C(C(O1)OC2C(C(C(OC2OC3C(C(C(OC3O)C(=O)O)O)O)CO)O)O)O)O)O

> <PUBCHEM_OPENEYE_ISO_SMILES>
C[C@H]1[C@@H]([C@H]([C@H]([C@@H](O1)O[C@@H]2[C@H]([C@H]([C@H](O[C@H]2O[C@@H]3[C@H]([C@@H]([C@H](O[C@H]3O)C(=O)O)O)O)CO)O)O)O)O)O

> <PUBCHEM_CACTVS_TPSA>
266

> <PUBCHEM_MONOISOTOPIC_WEIGHT>
502.153385

> <PUBCHEM_TOTAL_CHARGE>
0

> <PUBCHEM_HEAVY_ATOM_COUNT>
34

> <PUBCHEM_ATOM_DEF_STEREO_COUNT>
15

> <PUBCHEM_ATOM_UDEF_STEREO_COUNT>
0

> <PUBCHEM_BOND_DEF_STEREO_COUNT>
0

> <PUBCHEM_BOND_UDEF_STEREO_COUNT>
0

> <PUBCHEM_ISOTOPIC_ATOM_COUNT>
0

> <PUBCHEM_COMPONENT_COUNT>
1

> <PUBCHEM_CACTVS_TAUTO_COUNT>
1

> <PUBCHEM_COORDINATE_TYPE>
1
5
255

> <PUBCHEM_BONDANNOTATIONS>
17  1  6
23  1  5
26  10  6
27  11  5
29  12  6
30  13  5
21  32  5
28  33  6
19  3  5
22  3  6
31  34  5
18  6  5
20  7  5
24  8  6
25  9  5

$$$$

