5280636
  -OEChem-07051212492D

 39 43  0     1  0  0  0  0  0999 V2000
    2.0000   -0.6399    0.0000 O   0  0  0  0  0  0  0  0  0  0  0  0
    3.5229   -1.7517    0.0000 O   0  0  0  0  0  0  0  0  0  0  0  0
    5.3191    1.0946    0.0000 O   0  0  0  0  0  0  0  0  0  0  0  0
    5.3351   -2.9469    0.0000 O   0  0  0  0  0  0  0  0  0  0  0  0
    7.0672   -1.9469    0.0000 O   0  0  0  0  0  0  0  0  0  0  0  0
    7.9714   -0.4501    0.0000 O   0  0  0  0  0  0  0  0  0  0  0  0
    8.9273    1.1195    0.0000 O   0  0  0  0  0  0  0  0  0  0  0  0
    3.5229   -0.1422    0.0000 C   0  0  1  0  0  0  0  0  0  0  0  0
    2.9393   -0.9469    0.0000 C   0  0  2  0  0  0  0  0  0  0  0  0
    2.9393    0.6553    0.0000 C   0  0  0  0  0  0  0  0  0  0  0  0
    4.4691   -0.4469    0.0000 C   0  0  0  0  0  0  0  0  0  0  0  0
    2.0000    0.3483    0.0000 C   0  0  0  0  0  0  0  0  0  0  0  0
    4.4691   -1.4469    0.0000 C   0  0  0  0  0  0  0  0  0  0  0  0
    5.3351    0.0531    0.0000 C   0  0  0  0  0  0  0  0  0  0  0  0
    6.2012   -0.4469    0.0000 C   0  0  0  0  0  0  0  0  0  0  0  0
    5.3351   -1.9469    0.0000 C   0  0  0  0  0  0  0  0  0  0  0  0
    6.2012   -1.4469    0.0000 C   0  0  0  0  0  0  0  0  0  0  0  0
    7.1112    0.0599    0.0000 C   0  0  0  0  0  0  0  0  0  0  0  0
    7.1192    1.1015    0.0000 C   0  0  0  0  0  0  0  0  0  0  0  0
    6.2171    1.6223    0.0000 C   0  0  0  0  0  0  0  0  0  0  0  0
    8.0671    1.6295    0.0000 C   0  0  0  0  0  0  0  0  0  0  0  0
    6.2004    2.7072    0.0000 C   0  0  0  0  0  0  0  0  0  0  0  0
    8.0755    2.7144    0.0000 C   0  0  0  0  0  0  0  0  0  0  0  0
    7.1358    3.2569    0.0000 C   0  0  0  0  0  0  0  0  0  0  0  0
    7.0672   -2.9469    0.0000 C   0  0  0  0  0  0  0  0  0  0  0  0
    4.0204    0.5470    0.0000 H   0  0  0  0  0  0  0  0  0  0  0  0
    2.4388   -1.6339    0.0000 H   0  0  0  0  0  0  0  0  0  0  0  0
    3.4753    0.9668    0.0000 H   0  0  0  0  0  0  0  0  0  0  0  0
    2.6858    1.2211    0.0000 H   0  0  0  0  0  0  0  0  0  0  0  0
    1.8704    0.9546    0.0000 H   0  0  0  0  0  0  0  0  0  0  0  0
    1.3834    0.2831    0.0000 H   0  0  0  0  0  0  0  0  0  0  0  0
    4.7982   -3.2569    0.0000 H   0  0  0  0  0  0  0  0  0  0  0  0
    5.6599    3.0110    0.0000 H   0  0  0  0  0  0  0  0  0  0  0  0
    8.6136    3.0224    0.0000 H   0  0  0  0  0  0  0  0  0  0  0  0
    7.1334    3.8769    0.0000 H   0  0  0  0  0  0  0  0  0  0  0  0
    6.4472   -2.9469    0.0000 H   0  0  0  0  0  0  0  0  0  0  0  0
    7.0672   -3.5669    0.0000 H   0  0  0  0  0  0  0  0  0  0  0  0
    7.6872   -2.9469    0.0000 H   0  0  0  0  0  0  0  0  0  0  0  0
    9.4678    1.4233    0.0000 H   0  0  0  0  0  0  0  0  0  0  0  0
  1  9  1  0  0  0  0
  1 12  1  0  0  0  0
  2  9  1  0  0  0  0
  2 13  1  0  0  0  0
  3 14  1  0  0  0  0
  3 20  1  0  0  0  0
  4 16  1  0  0  0  0
  4 32  1  0  0  0  0
  5 17  1  0  0  0  0
  5 25  1  0  0  0  0
  6 18  2  0  0  0  0
  7 21  1  0  0  0  0
  7 39  1  0  0  0  0
  8  9  1  0  0  0  0
  8 10  1  0  0  0  0
  8 11  1  0  0  0  0
  8 26  1  6  0  0  0
  9 27  1  6  0  0  0
 10 12  1  0  0  0  0
 10 28  1  0  0  0  0
 10 29  1  0  0  0  0
 11 13  2  0  0  0  0
 11 14  1  0  0  0  0
 12 30  1  0  0  0  0
 12 31  1  0  0  0  0
 13 16  1  0  0  0  0
 14 15  2  0  0  0  0
 15 17  1  0  0  0  0
 15 18  1  0  0  0  0
 16 17  2  0  0  0  0
 18 19  1  0  0  0  0
 19 20  1  0  0  0  0
 19 21  2  0  0  0  0
 20 22  2  0  0  0  0
 21 23  1  0  0  0  0
 22 24  1  0  0  0  0
 22 33  1  0  0  0  0
 23 24  2  0  0  0  0
 23 34  1  0  0  0  0
 24 35  1  0  0  0  0
 25 36  1  0  0  0  0
 25 37  1  0  0  0  0
 25 38  1  0  0  0  0
M  END
> <PUBCHEM_COMPOUND_CID>
5280636

> <PUBCHEM_COMPOUND_CANONICALIZED>
1

> <PUBCHEM_CACTVS_COMPLEXITY>
554

> <PUBCHEM_CACTVS_HBOND_ACCEPTOR>
7

> <PUBCHEM_CACTVS_HBOND_DONOR>
2

> <PUBCHEM_CACTVS_ROTATABLE_BOND>
1

> <PUBCHEM_CACTVS_SUBSKEYS>
AAADccB4OAAAAAAAAAAAAAAAAAAAASJAAAA0YIAAAAASAEiRQAAAGgAACAAADQSwmAMyDoAABgCIAqBSAAACCAAkIAAIiAEGiMgdJzaGNRqieWOl4BUPuQfK7PzOoQADCAAIQABCAAYQABCAAAAAAAAAAA==

> <PUBCHEM_IUPAC_INCHI>
InChI=1S/C18H14O7/c1-22-16-12-13(20)11-8(19)3-2-4-9(11)24-15(12)10-7-5-6-23-18(7)25-17(10)14(16)21/h2-4,7,18-19,21H,5-6H2,1H3/t7-,18+/m0/s1

> <PUBCHEM_IUPAC_INCHIKEY>
FAYWFTGEUVDVPA-ULCDLSAGSA-N

> <PUBCHEM_XLOGP3_AA>
2.7

> <PUBCHEM_EXACT_MASS>
342.073953

> <PUBCHEM_MOLECULAR_FORMULA>
C18H14O7

> <PUBCHEM_MOLECULAR_WEIGHT>
342.29956

> <PUBCHEM_OPENEYE_CAN_SMILES>
COC1=C(C2=C(C3CCOC3O2)C4=C1C(=O)C5=C(O4)C=CC=C5O)O

> <PUBCHEM_OPENEYE_ISO_SMILES>
COC1=C(C2=C([C@@H]3CCO[C@@H]3O2)C4=C1C(=O)C5=C(O4)C=CC=C5O)O

> <PUBCHEM_CACTVS_TPSA>
94.4

> <PUBCHEM_MONOISOTOPIC_WEIGHT>
342.073953

> <PUBCHEM_TOTAL_CHARGE>
0

> <PUBCHEM_HEAVY_ATOM_COUNT>
25

> <PUBCHEM_ATOM_DEF_STEREO_COUNT>
2

> <PUBCHEM_ATOM_UDEF_STEREO_COUNT>
0

> <PUBCHEM_BOND_DEF_STEREO_COUNT>
0

> <PUBCHEM_BOND_UDEF_STEREO_COUNT>
0

> <PUBCHEM_ISOTOPIC_ATOM_COUNT>
0

> <PUBCHEM_COMPONENT_COUNT>
1

> <PUBCHEM_CACTVS_TAUTO_COUNT>
72

> <PUBCHEM_COORDINATE_TYPE>
1
5
255

> <PUBCHEM_BONDANNOTATIONS>
11  13  8
11  14  8
13  16  8
14  15  8
15  17  8
15  18  8
16  17  8
18  19  8
19  20  8
19  21  8
20  22  8
21  23  8
22  24  8
23  24  8
3  14  8
3  20  8
8  26  6
9  27  6

$$$$

