6336
  -OEChem-07051213122D

 37 38  0     1  0  0  0  0  0999 V2000
    4.0000   -3.3512    0.0000 Cl  0  0  0  0  0  0  0  0  0  0  0  0
    4.8660    2.1488    0.0000 N   0  0  0  0  0  0  0  0  0  0  0  0
    5.7796    1.7420    0.0000 N   0  0  0  0  0  0  0  0  0  0  0  0
    5.9487    3.3512    0.0000 N   0  0  0  0  0  0  0  0  0  0  0  0
    2.0000    0.6488    0.0000 N   0  0  0  0  0  0  0  0  0  0  0  0
    4.0000    0.6488    0.0000 C   0  0  3  0  0  0  0  0  0  0  0  0
    5.0000    0.6488    0.0000 C   0  0  0  0  0  0  0  0  0  0  0  0
    4.0000    1.6488    0.0000 C   0  0  0  0  0  0  0  0  0  0  0  0
    5.5000   -0.2172    0.0000 C   0  0  0  0  0  0  0  0  0  0  0  0
    4.0000   -0.3512    0.0000 C   0  0  0  0  0  0  0  0  0  0  0  0
    6.5000   -0.2172    0.0000 C   0  0  0  0  0  0  0  0  0  0  0  0
    3.0000    0.6488    0.0000 C   0  0  0  0  0  0  0  0  0  0  0  0
    3.1340   -0.8512    0.0000 C   0  0  0  0  0  0  0  0  0  0  0  0
    4.8660   -0.8512    0.0000 C   0  0  0  0  0  0  0  0  0  0  0  0
    7.0000   -1.0833    0.0000 C   0  0  0  0  0  0  0  0  0  0  0  0
    3.1340   -1.8512    0.0000 C   0  0  0  0  0  0  0  0  0  0  0  0
    4.8660   -1.8512    0.0000 C   0  0  0  0  0  0  0  0  0  0  0  0
    4.9706    3.1433    0.0000 C   0  0  0  0  0  0  0  0  0  0  0  0
    4.0000   -2.3512    0.0000 C   0  0  0  0  0  0  0  0  0  0  0  0
    6.4487    2.4852    0.0000 C   0  0  0  0  0  0  0  0  0  0  0  0
    5.5826    0.8608    0.0000 H   0  0  0  0  0  0  0  0  0  0  0  0
    4.8923    1.2594    0.0000 H   0  0  0  0  0  0  0  0  0  0  0  0
    3.7880    2.2314    0.0000 H   0  0  0  0  0  0  0  0  0  0  0  0
    3.3894    1.5411    0.0000 H   0  0  0  0  0  0  0  0  0  0  0  0
    4.9174   -0.4293    0.0000 H   0  0  0  0  0  0  0  0  0  0  0  0
    5.6077   -0.8278    0.0000 H   0  0  0  0  0  0  0  0  0  0  0  0
    7.0826   -0.0052    0.0000 H   0  0  0  0  0  0  0  0  0  0  0  0
    6.3923    0.3933    0.0000 H   0  0  0  0  0  0  0  0  0  0  0  0
    2.5970   -0.5412    0.0000 H   0  0  0  0  0  0  0  0  0  0  0  0
    5.4030   -0.5412    0.0000 H   0  0  0  0  0  0  0  0  0  0  0  0
    6.4631   -1.3933    0.0000 H   0  0  0  0  0  0  0  0  0  0  0  0
    7.3100   -1.6202    0.0000 H   0  0  0  0  0  0  0  0  0  0  0  0
    7.5369   -0.7733    0.0000 H   0  0  0  0  0  0  0  0  0  0  0  0
    2.5970   -2.1612    0.0000 H   0  0  0  0  0  0  0  0  0  0  0  0
    5.4030   -2.1612    0.0000 H   0  0  0  0  0  0  0  0  0  0  0  0
    4.5098    3.5582    0.0000 H   0  0  0  0  0  0  0  0  0  0  0  0
    7.0653    2.4204    0.0000 H   0  0  0  0  0  0  0  0  0  0  0  0
  1 19  1  0  0  0  0
  2  3  1  0  0  0  0
  2  8  1  0  0  0  0
  2 18  1  0  0  0  0
  3 20  2  0  0  0  0
  4 18  2  0  0  0  0
  4 20  1  0  0  0  0
  5 12  3  0  0  0  0
  6  7  1  0  0  0  0
  6  8  1  0  0  0  0
  6 10  1  0  0  0  0
  6 12  1  0  0  0  0
  7  9  1  0  0  0  0
  7 21  1  0  0  0  0
  7 22  1  0  0  0  0
  8 23  1  0  0  0  0
  8 24  1  0  0  0  0
  9 11  1  0  0  0  0
  9 25  1  0  0  0  0
  9 26  1  0  0  0  0
 10 13  2  0  0  0  0
 10 14  1  0  0  0  0
 11 15  1  0  0  0  0
 11 27  1  0  0  0  0
 11 28  1  0  0  0  0
 13 16  1  0  0  0  0
 13 29  1  0  0  0  0
 14 17  2  0  0  0  0
 14 30  1  0  0  0  0
 15 31  1  0  0  0  0
 15 32  1  0  0  0  0
 15 33  1  0  0  0  0
 16 19  2  0  0  0  0
 16 34  1  0  0  0  0
 17 19  1  0  0  0  0
 17 35  1  0  0  0  0
 18 36  1  0  0  0  0
 20 37  1  0  0  0  0
M  END
> <PUBCHEM_COMPOUND_CID>
6336

> <PUBCHEM_COMPOUND_CANONICALIZED>
1

> <PUBCHEM_CACTVS_COMPLEXITY>
345

> <PUBCHEM_CACTVS_HBOND_ACCEPTOR>
3

> <PUBCHEM_CACTVS_HBOND_DONOR>
0

> <PUBCHEM_CACTVS_ROTATABLE_BOND>
6

> <PUBCHEM_CACTVS_SUBSKEYS>
AAADceBzgAAEAAAAAAAAAAAAAAAAAWAAAAAwAAAAAAAAAAABwAAAHAIIAAAADgLBGCQ3EIYIEACyBiBDJAASAAswhYAdyAAIAoiIqCKBmxGEIAAogAIIiA8QgMAPhAAAAAAAAAAIAAAAAAAAAAAAAAAAAA==

> <PUBCHEM_IUPAC_OPENEYE_NAME>
2-(4-chlorophenyl)-2-(1,2,4-triazol-1-ylmethyl)hexanenitrile

> <PUBCHEM_IUPAC_CAS_NAME>
2-(4-chlorophenyl)-2-(1,2,4-triazol-1-ylmethyl)hexanenitrile

> <PUBCHEM_IUPAC_NAME>
2-(4-chlorophenyl)-2-(1,2,4-triazol-1-ylmethyl)hexanenitrile

> <PUBCHEM_IUPAC_SYSTEMATIC_NAME>
2-(4-chlorophenyl)-2-(1,2,4-triazol-1-ylmethyl)hexanenitrile

> <PUBCHEM_IUPAC_TRADITIONAL_NAME>
2-(4-chlorophenyl)-2-(1,2,4-triazol-1-ylmethyl)hexanenitrile

> <PUBCHEM_IUPAC_INCHI>
InChI=1S/C15H17ClN4/c1-2-3-8-15(9-17,10-20-12-18-11-19-20)13-4-6-14(16)7-5-13/h4-7,11-12H,2-3,8,10H2,1H3

> <PUBCHEM_IUPAC_INCHIKEY>
HZJKXKUJVSEEFU-UHFFFAOYSA-N

> <PUBCHEM_XLOGP3>
2.9

> <PUBCHEM_EXACT_MASS>
288.114174

> <PUBCHEM_MOLECULAR_FORMULA>
C15H17ClN4

> <PUBCHEM_MOLECULAR_WEIGHT>
288.77528

> <PUBCHEM_OPENEYE_CAN_SMILES>
CCCCC(CN1C=NC=N1)(C#N)C2=CC=C(C=C2)Cl

> <PUBCHEM_OPENEYE_ISO_SMILES>
CCCCC(CN1C=NC=N1)(C#N)C2=CC=C(C=C2)Cl

> <PUBCHEM_CACTVS_TPSA>
54.5

> <PUBCHEM_MONOISOTOPIC_WEIGHT>
288.114174

> <PUBCHEM_TOTAL_CHARGE>
0

> <PUBCHEM_HEAVY_ATOM_COUNT>
20

> <PUBCHEM_ATOM_DEF_STEREO_COUNT>
0

> <PUBCHEM_ATOM_UDEF_STEREO_COUNT>
1

> <PUBCHEM_BOND_DEF_STEREO_COUNT>
0

> <PUBCHEM_BOND_UDEF_STEREO_COUNT>
0

> <PUBCHEM_ISOTOPIC_ATOM_COUNT>
0

> <PUBCHEM_COMPONENT_COUNT>
1

> <PUBCHEM_CACTVS_TAUTO_COUNT>
1

> <PUBCHEM_COORDINATE_TYPE>
1
5
255

> <PUBCHEM_BONDANNOTATIONS>
10  13  8
10  14  8
13  16  8
14  17  8
16  19  8
17  19  8
2  18  8
2  3  8
3  20  8
4  18  8
4  20  8
6  7  3

$$$$

