4678
  -OEChem-06261200172D

 33 32  0     1  0  0  0  0  0999 V2000
    5.1350    1.0950    0.0000 O   0  0  0  0  0  0  0  0  0  0  0  0
    2.5369   -0.4050    0.0000 O   0  0  0  0  0  0  0  0  0  0  0  0
    6.0010   -1.4050    0.0000 O   0  0  0  0  0  0  0  0  0  0  0  0
   10.3312    0.0950    0.0000 O   0  0  0  0  0  0  0  0  0  0  0  0
    6.8671    0.0950    0.0000 N   0  0  0  0  0  0  0  0  0  0  0  0
    4.2690   -0.4050    0.0000 C   0  0  0  0  0  0  0  0  0  0  0  0
    5.1350    0.0950    0.0000 C   0  0  3  0  0  0  0  0  0  0  0  0
    3.4030   -0.9050    0.0000 C   0  0  0  0  0  0  0  0  0  0  0  0
    3.7690    0.4610    0.0000 C   0  0  0  0  0  0  0  0  0  0  0  0
    4.7690   -1.2710    0.0000 C   0  0  0  0  0  0  0  0  0  0  0  0
    6.0010   -0.4050    0.0000 C   0  0  0  0  0  0  0  0  0  0  0  0
    7.7331   -0.4050    0.0000 C   0  0  0  0  0  0  0  0  0  0  0  0
    8.5991    0.0950    0.0000 C   0  0  0  0  0  0  0  0  0  0  0  0
    9.4651   -0.4050    0.0000 C   0  0  0  0  0  0  0  0  0  0  0  0
    5.8711    0.5200    0.0000 H   0  0  0  0  0  0  0  0  0  0  0  0
    3.0044   -1.3800    0.0000 H   0  0  0  0  0  0  0  0  0  0  0  0
    3.8015   -1.3800    0.0000 H   0  0  0  0  0  0  0  0  0  0  0  0
    4.3059    0.7710    0.0000 H   0  0  0  0  0  0  0  0  0  0  0  0
    3.4590    0.9980    0.0000 H   0  0  0  0  0  0  0  0  0  0  0  0
    3.2320    0.1510    0.0000 H   0  0  0  0  0  0  0  0  0  0  0  0
    4.2320   -1.5810    0.0000 H   0  0  0  0  0  0  0  0  0  0  0  0
    5.0790   -1.8080    0.0000 H   0  0  0  0  0  0  0  0  0  0  0  0
    5.3059   -0.9610    0.0000 H   0  0  0  0  0  0  0  0  0  0  0  0
    6.8671    0.7150    0.0000 H   0  0  0  0  0  0  0  0  0  0  0  0
    7.3346   -0.8799    0.0000 H   0  0  0  0  0  0  0  0  0  0  0  0
    8.1316   -0.8799    0.0000 H   0  0  0  0  0  0  0  0  0  0  0  0
    5.6720    1.4050    0.0000 H   0  0  0  0  0  0  0  0  0  0  0  0
    8.9976    0.5699    0.0000 H   0  0  0  0  0  0  0  0  0  0  0  0
    8.2006    0.5699    0.0000 H   0  0  0  0  0  0  0  0  0  0  0  0
    2.0000   -0.7150    0.0000 H   0  0  0  0  0  0  0  0  0  0  0  0
    9.0666   -0.8799    0.0000 H   0  0  0  0  0  0  0  0  0  0  0  0
    9.8637   -0.8799    0.0000 H   0  0  0  0  0  0  0  0  0  0  0  0
   10.8681   -0.2150    0.0000 H   0  0  0  0  0  0  0  0  0  0  0  0
  1  7  1  0  0  0  0
  1 27  1  0  0  0  0
  2  8  1  0  0  0  0
  2 30  1  0  0  0  0
  3 11  2  0  0  0  0
  4 14  1  0  0  0  0
  4 33  1  0  0  0  0
  5 11  1  0  0  0  0
  5 12  1  0  0  0  0
  5 24  1  0  0  0  0
  6  7  1  0  0  0  0
  6  8  1  0  0  0  0
  6  9  1  0  0  0  0
  6 10  1  0  0  0  0
  7 11  1  0  0  0  0
  7 15  1  0  0  0  0
  8 16  1  0  0  0  0
  8 17  1  0  0  0  0
  9 18  1  0  0  0  0
  9 19  1  0  0  0  0
  9 20  1  0  0  0  0
 10 21  1  0  0  0  0
 10 22  1  0  0  0  0
 10 23  1  0  0  0  0
 12 13  1  0  0  0  0
 12 25  1  0  0  0  0
 12 26  1  0  0  0  0
 13 14  1  0  0  0  0
 13 28  1  0  0  0  0
 13 29  1  0  0  0  0
 14 31  1  0  0  0  0
 14 32  1  0  0  0  0
M  END
> <PUBCHEM_COMPOUND_CID>
4678

> <PUBCHEM_COMPOUND_CANONICALIZED>
1

> <PUBCHEM_CACTVS_COMPLEXITY>
182

> <PUBCHEM_CACTVS_HBOND_ACCEPTOR>
4

> <PUBCHEM_CACTVS_HBOND_DONOR>
4

> <PUBCHEM_CACTVS_ROTATABLE_BOND>
6

> <PUBCHEM_CACTVS_SUBSKEYS>
AAADceByOAAAAAAAAAAAAAAAAAAAAAAAAAAAAAAAAAAAAAAAAAAAHgAQCAAADhThgAYCAALAAgAIAAEQEAIAAAAAAAAAAIFIAAACEBAAgAAEQAAHFgCQAAAiAAAJAAAAAAAAAAAAAAAAAAAAAAAAAAAAAA==

> <PUBCHEM_IUPAC_OPENEYE_NAME>
2,4-dihydroxy-N-(3-hydroxypropyl)-3,3-dimethyl-butanamide

> <PUBCHEM_IUPAC_CAS_NAME>
2,4-dihydroxy-N-(3-hydroxypropyl)-3,3-dimethylbutanamide

> <PUBCHEM_IUPAC_NAME>
2,4-dihydroxy-N-(3-hydroxypropyl)-3,3-dimethylbutanamide

> <PUBCHEM_IUPAC_SYSTEMATIC_NAME>
3,3-dimethyl-2,4-bis(oxidanyl)-N-(3-oxidanylpropyl)butanamide

> <PUBCHEM_IUPAC_TRADITIONAL_NAME>
2,4-dihydroxy-N-(3-hydroxypropyl)-3,3-dimethyl-butyramide

> <PUBCHEM_IUPAC_INCHI>
InChI=1S/C9H19NO4/c1-9(2,6-12)7(13)8(14)10-4-3-5-11/h7,11-13H,3-6H2,1-2H3,(H,10,14)

> <PUBCHEM_IUPAC_INCHIKEY>
SNPLKNRPJHDVJA-UHFFFAOYSA-N

> <PUBCHEM_XLOGP3_AA>
-0.9

> <PUBCHEM_EXACT_MASS>
205.131408

> <PUBCHEM_MOLECULAR_FORMULA>
C9H19NO4

> <PUBCHEM_MOLECULAR_WEIGHT>
205.25146

> <PUBCHEM_OPENEYE_CAN_SMILES>
CC(C)(CO)C(C(=O)NCCCO)O

> <PUBCHEM_OPENEYE_ISO_SMILES>
CC(C)(CO)C(C(=O)NCCCO)O

> <PUBCHEM_CACTVS_TPSA>
89.8

> <PUBCHEM_MONOISOTOPIC_WEIGHT>
205.131408

> <PUBCHEM_TOTAL_CHARGE>
0

> <PUBCHEM_HEAVY_ATOM_COUNT>
14

> <PUBCHEM_ATOM_DEF_STEREO_COUNT>
0

> <PUBCHEM_ATOM_UDEF_STEREO_COUNT>
1

> <PUBCHEM_BOND_DEF_STEREO_COUNT>
0

> <PUBCHEM_BOND_UDEF_STEREO_COUNT>
0

> <PUBCHEM_ISOTOPIC_ATOM_COUNT>
0

> <PUBCHEM_COMPONENT_COUNT>
1

> <PUBCHEM_CACTVS_TAUTO_COUNT>
2

> <PUBCHEM_COORDINATE_TYPE>
1
5
255

> <PUBCHEM_BONDANNOTATIONS>
7  15  3

$$$$

