443357
  -OEChem-07051213022D

 50 55  0     1  0  0  0  0  0999 V2000
    2.0078    2.2412    0.0000 O   0  0  0  0  0  0  0  0  0  0  0  0
    6.3981    2.6784    0.0000 O   0  0  0  0  0  0  0  0  0  0  0  0
    7.2641    1.1784    0.0000 O   0  0  0  0  0  0  0  0  0  0  0  0
    2.9061   -0.3563    0.0000 N   0  0  3  0  0  0  0  0  0  0  0  0
    6.2691   -0.4887    0.0000 N   0  0  0  0  0  0  0  0  0  0  0  0
    3.8000    1.1784    0.0000 C   0  0  1  0  0  0  0  0  0  0  0  0
    3.8000    0.1784    0.0000 C   0  0  1  0  0  0  0  0  0  0  0  0
    4.6660   -0.3216    0.0000 C   0  0  2  0  0  0  0  0  0  0  0  0
    2.9061    1.7130    0.0000 C   0  0  3  0  0  0  0  0  0  0  0  0
    2.0000    1.1992    0.0000 C   0  0  3  0  0  0  0  0  0  0  0  0
    2.0000    0.1575    0.0000 C   0  0  0  0  0  0  0  0  0  0  0  0
    4.6660    1.6784    0.0000 C   0  0  0  0  0  0  0  0  0  0  0  0
    4.3009   -1.2460    0.0000 C   0  0  0  0  0  0  0  0  0  0  0  0
    3.3073   -1.2655    0.0000 C   0  0  0  0  0  0  0  0  0  0  0  0
    5.5321    0.1784    0.0000 C   0  0  0  0  0  0  0  0  0  0  0  0
    3.8000    2.1784    0.0000 C   0  0  0  0  0  0  0  0  0  0  0  0
    4.8752   -1.2934    0.0000 C   0  0  0  0  0  0  0  0  0  0  0  0
    5.5321    1.1784    0.0000 C   0  0  0  0  0  0  0  0  0  0  0  0
    5.8640   -1.3965    0.0000 C   0  0  0  0  0  0  0  0  0  0  0  0
    4.6660    2.6784    0.0000 C   0  0  0  0  0  0  0  0  0  0  0  0
    4.2545   -2.1222    0.0000 C   0  0  0  0  0  0  0  0  0  0  0  0
    6.3981    1.6784    0.0000 C   0  0  0  0  0  0  0  0  0  0  0  0
    6.3005   -2.3355    0.0000 C   0  0  0  0  0  0  0  0  0  0  0  0
    4.6692   -3.0710    0.0000 C   0  0  0  0  0  0  0  0  0  0  0  0
    5.6990   -3.1784    0.0000 C   0  0  0  0  0  0  0  0  0  0  0  0
    7.2641    3.1784    0.0000 C   0  0  0  0  0  0  0  0  0  0  0  0
    3.0639    0.6034    0.0000 H   0  0  0  0  0  0  0  0  0  0  0  0
    3.2223    2.2463    0.0000 H   0  0  0  0  0  0  0  0  0  0  0  0
    1.3800    1.2015    0.0000 H   0  0  0  0  0  0  0  0  0  0  0  0
    1.3891    0.2636    0.0000 H   0  0  0  0  0  0  0  0  0  0  0  0
    1.7909   -0.4261    0.0000 H   0  0  0  0  0  0  0  0  0  0  0  0
    5.0646    2.1533    0.0000 H   0  0  0  0  0  0  0  0  0  0  0  0
    4.2675    2.1533    0.0000 H   0  0  0  0  0  0  0  0  0  0  0  0
    4.2315   -1.8620    0.0000 H   0  0  0  0  0  0  0  0  0  0  0  0
    4.9025   -1.3959    0.0000 H   0  0  0  0  0  0  0  0  0  0  0  0
    2.7121   -1.4390    0.0000 H   0  0  0  0  0  0  0  0  0  0  0  0
    3.4010   -1.8784    0.0000 H   0  0  0  0  0  0  0  0  0  0  0  0
    3.5880    2.7610    0.0000 H   0  0  0  0  0  0  0  0  0  0  0  0
    3.1894    2.0707    0.0000 H   0  0  0  0  0  0  0  0  0  0  0  0
    6.8758   -0.3609    0.0000 H   0  0  0  0  0  0  0  0  0  0  0  0
    4.9760    2.1414    0.0000 H   0  0  0  0  0  0  0  0  0  0  0  0
    5.2030    2.9884    0.0000 H   0  0  0  0  0  0  0  0  0  0  0  0
    4.3560    3.2153    0.0000 H   0  0  0  0  0  0  0  0  0  0  0  0
    3.6386   -2.0508    0.0000 H   0  0  0  0  0  0  0  0  0  0  0  0
    6.9178   -2.3926    0.0000 H   0  0  0  0  0  0  0  0  0  0  0  0
    4.3032   -3.5715    0.0000 H   0  0  0  0  0  0  0  0  0  0  0  0
    5.9539   -3.7436    0.0000 H   0  0  0  0  0  0  0  0  0  0  0  0
    7.5741    2.6414    0.0000 H   0  0  0  0  0  0  0  0  0  0  0  0
    7.8010    3.4884    0.0000 H   0  0  0  0  0  0  0  0  0  0  0  0
    6.9541    3.7153    0.0000 H   0  0  0  0  0  0  0  0  0  0  0  0
  1  9  1  0  0  0  0
  1 10  1  0  0  0  0
  2 22  1  0  0  0  0
  2 26  1  0  0  0  0
  3 22  2  0  0  0  0
  4  7  1  0  0  0  0
  4 11  1  0  0  0  0
  4 14  1  0  0  0  0
  5 15  1  0  0  0  0
  5 19  1  0  0  0  0
  5 40  1  0  0  0  0
  6  7  1  0  0  0  0
  6  9  1  0  0  0  0
  6 12  1  0  0  0  0
  6 16  1  6  0  0  0
  7  8  1  0  0  0  0
  7 27  1  6  0  0  0
  8 13  1  1  0  0  0
  8 15  1  0  0  0  0
  8 17  1  0  0  0  0
  9 10  1  0  0  0  0
  9 28  1  0  0  0  0
 10 11  1  0  0  0  0
 10 29  1  0  0  0  0
 11 30  1  0  0  0  0
 11 31  1  0  0  0  0
 12 18  1  0  0  0  0
 12 32  1  0  0  0  0
 12 33  1  0  0  0  0
 13 14  1  0  0  0  0
 13 34  1  0  0  0  0
 13 35  1  0  0  0  0
 14 36  1  0  0  0  0
 14 37  1  0  0  0  0
 15 18  2  0  0  0  0
 16 20  1  0  0  0  0
 16 38  1  0  0  0  0
 16 39  1  0  0  0  0
 17 19  1  0  0  0  0
 17 21  2  0  0  0  0
 18 22  1  0  0  0  0
 19 23  2  0  0  0  0
 20 41  1  0  0  0  0
 20 42  1  0  0  0  0
 20 43  1  0  0  0  0
 21 24  1  0  0  0  0
 21 44  1  0  0  0  0
 23 25  1  0  0  0  0
 23 45  1  0  0  0  0
 24 25  2  0  0  0  0
 24 46  1  0  0  0  0
 25 47  1  0  0  0  0
 26 48  1  0  0  0  0
 26 49  1  0  0  0  0
 26 50  1  0  0  0  0
M  END
> <PUBCHEM_COMPOUND_CID>
443357

> <PUBCHEM_COMPOUND_CANONICALIZED>
1

> <PUBCHEM_CACTVS_COMPLEXITY>
705

> <PUBCHEM_CACTVS_HBOND_ACCEPTOR>
5

> <PUBCHEM_CACTVS_HBOND_DONOR>
1

> <PUBCHEM_CACTVS_ROTATABLE_BOND>
3

> <PUBCHEM_CACTVS_SUBSKEYS>
AAADceB7MAAAAAAAAAAAAAAAEgAAAWLAAAA8QIAABYAAAFiBAAAAHgAQAAAADjzhmAYyyIPABACIAiTSSACCAAAhAgAIiAEIZMgKJDLA8ZGHMAhmkADY6Ue4/f/fgAAAAAACAAAAAAAAAAQAAAAAAAAAAA==

> <PUBCHEM_IUPAC_INCHI>
InChI=1S/C21H24N2O3/c1-3-20-10-12(18(24)25-2)16-21(13-6-4-5-7-14(13)22-16)8-9-23(19(20)21)11-15-17(20)26-15/h4-7,15,17,19,22H,3,8-11H2,1-2H3/t15?,17?,19-,20+,21-/m0/s1

> <PUBCHEM_IUPAC_INCHIKEY>
AUVZFRDLRJQTQF-HABJSQLJSA-N

> <PUBCHEM_XLOGP3_AA>
2.5

> <PUBCHEM_EXACT_MASS>
352.178693

> <PUBCHEM_MOLECULAR_FORMULA>
C21H24N2O3

> <PUBCHEM_MOLECULAR_WEIGHT>
352.42686

> <PUBCHEM_OPENEYE_CAN_SMILES>
CCC12CC(=C3C4(C1N(CC4)CC5C2O5)C6=CC=CC=C6N3)C(=O)OC

> <PUBCHEM_OPENEYE_ISO_SMILES>
CC[C@]12CC(=C3[C@@]4([C@H]1N(CC4)CC5C2O5)C6=CC=CC=C6N3)C(=O)OC

> <PUBCHEM_CACTVS_TPSA>
54.1

> <PUBCHEM_MONOISOTOPIC_WEIGHT>
352.178693

> <PUBCHEM_TOTAL_CHARGE>
0

> <PUBCHEM_HEAVY_ATOM_COUNT>
26

> <PUBCHEM_ATOM_DEF_STEREO_COUNT>
3

> <PUBCHEM_ATOM_UDEF_STEREO_COUNT>
2

> <PUBCHEM_BOND_DEF_STEREO_COUNT>
0

> <PUBCHEM_BOND_UDEF_STEREO_COUNT>
0

> <PUBCHEM_ISOTOPIC_ATOM_COUNT>
0

> <PUBCHEM_COMPONENT_COUNT>
1

> <PUBCHEM_CACTVS_TAUTO_COUNT>
3

> <PUBCHEM_COORDINATE_TYPE>
1
5
255

> <PUBCHEM_BONDANNOTATIONS>
9  1  3
10  11  3
17  19  8
17  21  8
19  23  8
21  24  8
23  25  8
24  25  8
6  16  6
7  27  6
8  13  5

$$$$

