442237
  -OEChem-07051212572D

 36 37  0     1  0  0  0  0  0999 V2000
    4.5981   -1.8623    0.0000 O   0  0  0  0  0  0  0  0  0  0  0  0
    2.8660    1.1377    0.0000 O   0  0  0  0  0  0  0  0  0  0  0  0
    2.8660   -0.8623    0.0000 O   0  0  0  0  0  0  0  0  0  0  0  0
    7.2641    0.6585    0.0000 N   0  0  3  0  0  0  0  0  0  0  0  0
    6.3580    1.1724    0.0000 C   0  0  2  0  0  0  0  0  0  0  0  0
    5.4641    0.6377    0.0000 C   0  0  0  0  0  0  0  0  0  0  0  0
    7.2641   -0.3831    0.0000 C   0  0  0  0  0  0  0  0  0  0  0  0
    6.3580   -0.8970    0.0000 C   0  0  0  0  0  0  0  0  0  0  0  0
    5.4641   -0.3623    0.0000 C   0  0  0  0  0  0  0  0  0  0  0  0
    6.3465    2.1723    0.0000 C   0  0  0  0  0  0  0  0  0  0  0  0
    4.5981    1.1377    0.0000 C   0  0  0  0  0  0  0  0  0  0  0  0
    4.5981   -0.8623    0.0000 C   0  0  0  0  0  0  0  0  0  0  0  0
    8.1282    1.1618    0.0000 C   0  0  0  0  0  0  0  0  0  0  0  0
    3.7320    0.6377    0.0000 C   0  0  0  0  0  0  0  0  0  0  0  0
    3.7320   -0.3623    0.0000 C   0  0  0  0  0  0  0  0  0  0  0  0
    2.8660    2.1377    0.0000 C   0  0  0  0  0  0  0  0  0  0  0  0
    2.0000   -0.3623    0.0000 C   0  0  0  0  0  0  0  0  0  0  0  0
    6.8920    1.4875    0.0000 H   0  0  0  0  0  0  0  0  0  0  0  0
    7.4732   -0.9668    0.0000 H   0  0  0  0  0  0  0  0  0  0  0  0
    7.8750   -0.2770    0.0000 H   0  0  0  0  0  0  0  0  0  0  0  0
    5.9534   -1.3668    0.0000 H   0  0  0  0  0  0  0  0  0  0  0  0
    6.7517   -1.3760    0.0000 H   0  0  0  0  0  0  0  0  0  0  0  0
    6.9664    2.1795    0.0000 H   0  0  0  0  0  0  0  0  0  0  0  0
    6.3393    2.7923    0.0000 H   0  0  0  0  0  0  0  0  0  0  0  0
    5.7265    2.1651    0.0000 H   0  0  0  0  0  0  0  0  0  0  0  0
    4.5981    1.7577    0.0000 H   0  0  0  0  0  0  0  0  0  0  0  0
    8.4403    0.6261    0.0000 H   0  0  0  0  0  0  0  0  0  0  0  0
    8.6639    1.4739    0.0000 H   0  0  0  0  0  0  0  0  0  0  0  0
    7.8161    1.6976    0.0000 H   0  0  0  0  0  0  0  0  0  0  0  0
    4.0611   -2.1723    0.0000 H   0  0  0  0  0  0  0  0  0  0  0  0
    3.4860    2.1377    0.0000 H   0  0  0  0  0  0  0  0  0  0  0  0
    2.8660    2.7577    0.0000 H   0  0  0  0  0  0  0  0  0  0  0  0
    2.2460    2.1377    0.0000 H   0  0  0  0  0  0  0  0  0  0  0  0
    2.3100    0.1746    0.0000 H   0  0  0  0  0  0  0  0  0  0  0  0
    1.4631   -0.0523    0.0000 H   0  0  0  0  0  0  0  0  0  0  0  0
    1.6900   -0.8992    0.0000 H   0  0  0  0  0  0  0  0  0  0  0  0
  1 12  1  0  0  0  0
  1 30  1  0  0  0  0
  2 14  1  0  0  0  0
  2 16  1  0  0  0  0
  3 15  1  0  0  0  0
  3 17  1  0  0  0  0
  4  5  1  0  0  0  0
  4  7  1  0  0  0  0
  4 13  1  0  0  0  0
  5  6  1  0  0  0  0
  5 10  1  6  0  0  0
  5 18  1  0  0  0  0
  6  9  1  0  0  0  0
  6 11  2  0  0  0  0
  7  8  1  0  0  0  0
  7 19  1  0  0  0  0
  7 20  1  0  0  0  0
  8  9  1  0  0  0  0
  8 21  1  0  0  0  0
  8 22  1  0  0  0  0
  9 12  2  0  0  0  0
 10 23  1  0  0  0  0
 10 24  1  0  0  0  0
 10 25  1  0  0  0  0
 11 14  1  0  0  0  0
 11 26  1  0  0  0  0
 12 15  1  0  0  0  0
 13 27  1  0  0  0  0
 13 28  1  0  0  0  0
 13 29  1  0  0  0  0
 14 15  2  0  0  0  0
 16 31  1  0  0  0  0
 16 32  1  0  0  0  0
 16 33  1  0  0  0  0
 17 34  1  0  0  0  0
 17 35  1  0  0  0  0
 17 36  1  0  0  0  0
M  END
> <PUBCHEM_COMPOUND_CID>
442237

> <PUBCHEM_COMPOUND_CANONICALIZED>
1

> <PUBCHEM_CACTVS_COMPLEXITY>
261

> <PUBCHEM_CACTVS_HBOND_ACCEPTOR>
4

> <PUBCHEM_CACTVS_HBOND_DONOR>
1

> <PUBCHEM_CACTVS_ROTATABLE_BOND>
2

> <PUBCHEM_CACTVS_SUBSKEYS>
AAADceByMAAAAAAAAAAAAAAAAAAAAAAAAAA8QAAAAAAAAACxAAAAHgAACAAADCzBmAYyBoMABgCAAiBCAACCCAAgIAAAiAAOjIgNJyKGsRuEcCtlwBWLuAew8L8OoAABCAAYQABAAAIQADCAAAAAAAAAAA==

> <PUBCHEM_IUPAC_OPENEYE_NAME>
(1S)-6,7-dimethoxy-1,2-dimethyl-3,4-dihydro-1H-isoquinolin-5-ol

> <PUBCHEM_IUPAC_CAS_NAME>
(1S)-6,7-dimethoxy-1,2-dimethyl-3,4-dihydro-1H-isoquinolin-5-ol

> <PUBCHEM_IUPAC_NAME>
(1S)-6,7-dimethoxy-1,2-dimethyl-3,4-dihydro-1H-isoquinolin-5-ol

> <PUBCHEM_IUPAC_SYSTEMATIC_NAME>
(1S)-6,7-dimethoxy-1,2-dimethyl-3,4-dihydro-1H-isoquinolin-5-ol

> <PUBCHEM_IUPAC_TRADITIONAL_NAME>
(1S)-6,7-dimethoxy-1,2-dimethyl-3,4-dihydro-1H-isoquinolin-5-ol

> <PUBCHEM_IUPAC_INCHI>
InChI=1S/C13H19NO3/c1-8-10-7-11(16-3)13(17-4)12(15)9(10)5-6-14(8)2/h7-8,15H,5-6H2,1-4H3/t8-/m0/s1

> <PUBCHEM_IUPAC_INCHIKEY>
HRJQUAXWKYISJC-QMMMGPOBSA-N

> <PUBCHEM_XLOGP3_AA>
1.8

> <PUBCHEM_EXACT_MASS>
237.136493

> <PUBCHEM_MOLECULAR_FORMULA>
C13H19NO3

> <PUBCHEM_MOLECULAR_WEIGHT>
237.29486

> <PUBCHEM_OPENEYE_CAN_SMILES>
CC1C2=CC(=C(C(=C2CCN1C)O)OC)OC

> <PUBCHEM_OPENEYE_ISO_SMILES>
C[C@H]1C2=CC(=C(C(=C2CCN1C)O)OC)OC

> <PUBCHEM_CACTVS_TPSA>
41.9

> <PUBCHEM_MONOISOTOPIC_WEIGHT>
237.136493

> <PUBCHEM_TOTAL_CHARGE>
0

> <PUBCHEM_HEAVY_ATOM_COUNT>
17

> <PUBCHEM_ATOM_DEF_STEREO_COUNT>
1

> <PUBCHEM_ATOM_UDEF_STEREO_COUNT>
0

> <PUBCHEM_BOND_DEF_STEREO_COUNT>
0

> <PUBCHEM_BOND_UDEF_STEREO_COUNT>
0

> <PUBCHEM_ISOTOPIC_ATOM_COUNT>
0

> <PUBCHEM_COMPONENT_COUNT>
1

> <PUBCHEM_CACTVS_TAUTO_COUNT>
2

> <PUBCHEM_COORDINATE_TYPE>
1
5
255

> <PUBCHEM_BONDANNOTATIONS>
11  14  8
12  15  8
14  15  8
5  10  6
6  11  8
6  9  8
9  12  8

$$$$

