   Color/Form

     * White crystalline solid; also reported as oil
     * COLORLESS

   from [1]HSDB

   Melting Point
        67-69 deg C /solid/; 62-64 deg C when recrystallized from toluene
   and hexane
   from [2]HSDB

   Corrosivity
        NON-CORROSIVE
   from [3]HSDB

   Octanol/Water Partition Coefficient
        log Kow = 4.69
   from [4]HSDB

   Solubilities

     * Sol in aromatic hydrocarbons, ethers, esters, ketones
     * Very soluble in cyclohexanone; slightly soluble in aliphatic
       hydrocarbons, alcohols
     * In acetone 760, isophorone 400, chloroform 620, xylene 570, diethyl
       ether 500, ethanol <10, hexane <10 (all in g/kg at 20 deg C)
     * Soluble in common organic solvents
     * In water, 0.18 mg/L at 25 deg C

   from [5]HSDB

   Spectral Properties
        Intense mass spectral peaks: 208 m/z (100%), 210 m/z (42%), 94 m/z
   (19%), 77 m/z (18%)
   from [6]HSDB

   Vapor Pressure
        6.2X10-8 mm Hg at 25 deg C
   from [7]HSDB

   Other Chemical/Physical Properties

     * HYDROLYZED BY ALKALI, AT ROOM TEMPERATURE 50% LOSS AT PH 8 IN 2.5
       HOURS /TECHNICAL DIALIFOS/
     * Decomposes on distillation
     * MP: 167-169 deg C
     * Vapor pressure = 133 mPa (35 deg C)
     * Henry's Law constant = 1.8X10-7 atm-cu m/mole at 20-25 deg C (est)
     * Hydroxyl radical reaction rate constant = 1.5X10-10 cu cm/molec-sec
       at 25 deg C (est)

   from [8]HSDB

   Computed Properties
   Molecular Weight                  393.845842 [g/mol]
   Molecular Formula                 C[14]H[17]ClNO[4]PS[2]
   XLogP3-AA                         3.8
   H-Bond Donor                      0
   H-Bond Acceptor                   6
   Rotatable Bond Count              8
   Exact Mass                        393.002514
   MonoIsotopic Mass                 393.002514
   Topological Polar Surface Area    113
   Heavy Atom Count                  23
   Formal Charge                     0
   Complexity                        473
   Isotope Atom Count                0
   Defined Atom Stereocenter Count   0
   Undefined Atom Stereocenter Count 1
   Defined Bond Stereocenter Count   0
   Undefined Bond Stereocenter Count 0
   Covalently-Bonded Unit Count      1
   Feature 3D Acceptor Count         2
   Feature 3D Ring Count             2
   Effective Rotor Count             8.2
   Conformer Sampling RMSD           0.8
   CID Conformer Count               [9]41

References

   1. http://toxnet.nlm.nih.gov/cgi-bin/sis/search/r?dbs+hsdb:@term+@rn+@rel+10311-84-9
   2. http://toxnet.nlm.nih.gov/cgi-bin/sis/search/r?dbs+hsdb:@term+@rn+@rel+10311-84-9
   3. http://toxnet.nlm.nih.gov/cgi-bin/sis/search/r?dbs+hsdb:@term+@rn+@rel+10311-84-9
   4. http://toxnet.nlm.nih.gov/cgi-bin/sis/search/r?dbs+hsdb:@term+@rn+@rel+10311-84-9
   5. http://toxnet.nlm.nih.gov/cgi-bin/sis/search/r?dbs+hsdb:@term+@rn+@rel+10311-84-9
   6. http://toxnet.nlm.nih.gov/cgi-bin/sis/search/r?dbs+hsdb:@term+@rn+@rel+10311-84-9
   7. http://toxnet.nlm.nih.gov/cgi-bin/sis/search/r?dbs+hsdb:@term+@rn+@rel+10311-84-9
   8. http://toxnet.nlm.nih.gov/cgi-bin/sis/search/r?dbs+hsdb:@term+@rn+@rel+10311-84-9
   9. http://pubchem.ncbi.nlm.nih.gov/vw3d/vw3d.cgi?cid=25146
