9984420
  -OEChem-07051213082D

 88 89  0     0  0  0  0  0  0999 V2000
    2.8660   -7.7500    0.0000 C   0  0  0  0  0  0  0  0  0  0  0  0
   10.6603    7.7500    0.0000 C   0  0  0  0  0  0  0  0  0  0  0  0
   11.5263    7.2500    0.0000 C   0  0  0  0  0  0  0  0  0  0  0  0
    3.7320   -7.2500    0.0000 C   0  0  0  0  0  0  0  0  0  0  0  0
    2.8660   -8.7500    0.0000 C   0  0  0  0  0  0  0  0  0  0  0  0
   10.6603    8.7500    0.0000 C   0  0  0  0  0  0  0  0  0  0  0  0
   12.3923    7.7500    0.0000 C   0  0  0  0  0  0  0  0  0  0  0  0
    4.5981   -7.7500    0.0000 C   0  0  0  0  0  0  0  0  0  0  0  0
    3.7320   -9.2500    0.0000 C   0  0  0  0  0  0  0  0  0  0  0  0
   11.5263    9.2500    0.0000 C   0  0  0  0  0  0  0  0  0  0  0  0
    4.5981   -8.7500    0.0000 C   0  0  0  0  0  0  0  0  0  0  0  0
   12.3923    8.7500    0.0000 C   0  0  0  0  0  0  0  0  0  0  0  0
    9.7942    7.2500    0.0000 C   0  0  0  0  0  0  0  0  0  0  0  0
    2.0000   -7.2500    0.0000 C   0  0  0  0  0  0  0  0  0  0  0  0
    3.7320   -6.2500    0.0000 C   0  0  0  0  0  0  0  0  0  0  0  0
   11.5263    6.2500    0.0000 C   0  0  0  0  0  0  0  0  0  0  0  0
    9.7942    9.2500    0.0000 C   0  0  0  0  0  0  0  0  0  0  0  0
    2.0000   -9.2500    0.0000 C   0  0  0  0  0  0  0  0  0  0  0  0
   13.2583    7.2500    0.0000 C   0  0  0  0  0  0  0  0  0  0  0  0
    5.4641   -7.2500    0.0000 C   0  0  0  0  0  0  0  0  0  0  0  0
   10.6603    5.7500    0.0000 C   0  0  0  0  0  0  0  0  0  0  0  0
    4.5981   -5.7500    0.0000 C   0  0  0  0  0  0  0  0  0  0  0  0
   10.6603    4.7500    0.0000 C   0  0  0  0  0  0  0  0  0  0  0  0
    4.5981   -4.7500    0.0000 C   0  0  0  0  0  0  0  0  0  0  0  0
   11.5263    4.2500    0.0000 C   0  0  0  0  0  0  0  0  0  0  0  0
    3.7320   -4.2500    0.0000 C   0  0  0  0  0  0  0  0  0  0  0  0
    5.4641   -4.2500    0.0000 C   0  0  0  0  0  0  0  0  0  0  0  0
    9.7942    4.2500    0.0000 C   0  0  0  0  0  0  0  0  0  0  0  0
    9.7942    3.2500    0.0000 C   0  0  0  0  0  0  0  0  0  0  0  0
    5.4641   -3.2500    0.0000 C   0  0  0  0  0  0  0  0  0  0  0  0
    8.9282    2.7500    0.0000 C   0  0  0  0  0  0  0  0  0  0  0  0
    6.3301   -2.7500    0.0000 C   0  0  0  0  0  0  0  0  0  0  0  0
    8.9282    1.7500    0.0000 C   0  0  0  0  0  0  0  0  0  0  0  0
    6.3301   -1.7500    0.0000 C   0  0  0  0  0  0  0  0  0  0  0  0
    7.1962   -1.2500    0.0000 C   0  0  0  0  0  0  0  0  0  0  0  0
    8.0622    1.2500    0.0000 C   0  0  0  0  0  0  0  0  0  0  0  0
    9.7942    1.2500    0.0000 C   0  0  0  0  0  0  0  0  0  0  0  0
    5.4641   -1.2500    0.0000 C   0  0  0  0  0  0  0  0  0  0  0  0
    7.1962   -0.2500    0.0000 C   0  0  0  0  0  0  0  0  0  0  0  0
    8.0622    0.2500    0.0000 C   0  0  0  0  0  0  0  0  0  0  0  0
    3.7320   -9.8700    0.0000 H   0  0  0  0  0  0  0  0  0  0  0  0
   11.5263    9.8700    0.0000 H   0  0  0  0  0  0  0  0  0  0  0  0
   12.9292    9.0600    0.0000 H   0  0  0  0  0  0  0  0  0  0  0  0
    5.1350   -9.0600    0.0000 H   0  0  0  0  0  0  0  0  0  0  0  0
    9.4842    7.7869    0.0000 H   0  0  0  0  0  0  0  0  0  0  0  0
    9.2573    6.9400    0.0000 H   0  0  0  0  0  0  0  0  0  0  0  0
   10.1042    6.7131    0.0000 H   0  0  0  0  0  0  0  0  0  0  0  0
    2.3100   -6.7131    0.0000 H   0  0  0  0  0  0  0  0  0  0  0  0
    1.4631   -6.9400    0.0000 H   0  0  0  0  0  0  0  0  0  0  0  0
    1.6900   -7.7869    0.0000 H   0  0  0  0  0  0  0  0  0  0  0  0
   12.0632    5.9400    0.0000 H   0  0  0  0  0  0  0  0  0  0  0  0
    3.1951   -5.9400    0.0000 H   0  0  0  0  0  0  0  0  0  0  0  0
    1.6900   -8.7131    0.0000 H   0  0  0  0  0  0  0  0  0  0  0  0
    1.4631   -9.5600    0.0000 H   0  0  0  0  0  0  0  0  0  0  0  0
    2.3100   -9.7869    0.0000 H   0  0  0  0  0  0  0  0  0  0  0  0
   10.1042    9.7869    0.0000 H   0  0  0  0  0  0  0  0  0  0  0  0
    9.2573    9.5600    0.0000 H   0  0  0  0  0  0  0  0  0  0  0  0
    9.4842    8.7131    0.0000 H   0  0  0  0  0  0  0  0  0  0  0  0
    5.7741   -7.7869    0.0000 H   0  0  0  0  0  0  0  0  0  0  0  0
    6.0010   -6.9400    0.0000 H   0  0  0  0  0  0  0  0  0  0  0  0
    5.1541   -6.7131    0.0000 H   0  0  0  0  0  0  0  0  0  0  0  0
   12.9483    6.7131    0.0000 H   0  0  0  0  0  0  0  0  0  0  0  0
   13.7953    6.9400    0.0000 H   0  0  0  0  0  0  0  0  0  0  0  0
   13.5683    7.7869    0.0000 H   0  0  0  0  0  0  0  0  0  0  0  0
   10.1233    6.0600    0.0000 H   0  0  0  0  0  0  0  0  0  0  0  0
    5.1350   -6.0600    0.0000 H   0  0  0  0  0  0  0  0  0  0  0  0
   11.2163    3.7131    0.0000 H   0  0  0  0  0  0  0  0  0  0  0  0
   12.0632    3.9400    0.0000 H   0  0  0  0  0  0  0  0  0  0  0  0
   11.8363    4.7869    0.0000 H   0  0  0  0  0  0  0  0  0  0  0  0
    4.0420   -3.7131    0.0000 H   0  0  0  0  0  0  0  0  0  0  0  0
    3.1951   -3.9400    0.0000 H   0  0  0  0  0  0  0  0  0  0  0  0
    3.4220   -4.7869    0.0000 H   0  0  0  0  0  0  0  0  0  0  0  0
    6.0010   -4.5600    0.0000 H   0  0  0  0  0  0  0  0  0  0  0  0
    9.2573    4.5600    0.0000 H   0  0  0  0  0  0  0  0  0  0  0  0
   10.3312    2.9400    0.0000 H   0  0  0  0  0  0  0  0  0  0  0  0
    4.9272   -2.9400    0.0000 H   0  0  0  0  0  0  0  0  0  0  0  0
    8.3913    3.0600    0.0000 H   0  0  0  0  0  0  0  0  0  0  0  0
    6.8671   -3.0600    0.0000 H   0  0  0  0  0  0  0  0  0  0  0  0
    7.5252    1.5600    0.0000 H   0  0  0  0  0  0  0  0  0  0  0  0
    7.7331   -1.5600    0.0000 H   0  0  0  0  0  0  0  0  0  0  0  0
    9.4842    0.7131    0.0000 H   0  0  0  0  0  0  0  0  0  0  0  0
   10.3312    0.9400    0.0000 H   0  0  0  0  0  0  0  0  0  0  0  0
   10.1042    1.7869    0.0000 H   0  0  0  0  0  0  0  0  0  0  0  0
    5.7741   -0.7131    0.0000 H   0  0  0  0  0  0  0  0  0  0  0  0
    4.9272   -0.9400    0.0000 H   0  0  0  0  0  0  0  0  0  0  0  0
    5.1541   -1.7869    0.0000 H   0  0  0  0  0  0  0  0  0  0  0  0
    8.5991   -0.0600    0.0000 H   0  0  0  0  0  0  0  0  0  0  0  0
    6.6592    0.0600    0.0000 H   0  0  0  0  0  0  0  0  0  0  0  0
  1  4  1  0  0  0  0
  1  5  2  0  0  0  0
  1 14  1  0  0  0  0
  2  3  1  0  0  0  0
  2  6  2  0  0  0  0
  2 13  1  0  0  0  0
  3  7  2  0  0  0  0
  3 16  1  0  0  0  0
  4  8  2  0  0  0  0
  4 15  1  0  0  0  0
  5  9  1  0  0  0  0
  5 18  1  0  0  0  0
  6 10  1  0  0  0  0
  6 17  1  0  0  0  0
  7 12  1  0  0  0  0
  7 19  1  0  0  0  0
  8 11  1  0  0  0  0
  8 20  1  0  0  0  0
  9 11  2  0  0  0  0
  9 41  1  0  0  0  0
 10 12  2  0  0  0  0
 10 42  1  0  0  0  0
 11 44  1  0  0  0  0
 12 43  1  0  0  0  0
 13 45  1  0  0  0  0
 13 46  1  0  0  0  0
 13 47  1  0  0  0  0
 14 48  1  0  0  0  0
 14 49  1  0  0  0  0
 14 50  1  0  0  0  0
 15 22  2  0  0  0  0
 15 52  1  0  0  0  0
 16 21  2  0  0  0  0
 16 51  1  0  0  0  0
 17 56  1  0  0  0  0
 17 57  1  0  0  0  0
 17 58  1  0  0  0  0
 18 53  1  0  0  0  0
 18 54  1  0  0  0  0
 18 55  1  0  0  0  0
 19 62  1  0  0  0  0
 19 63  1  0  0  0  0
 19 64  1  0  0  0  0
 20 59  1  0  0  0  0
 20 60  1  0  0  0  0
 20 61  1  0  0  0  0
 21 23  1  0  0  0  0
 21 65  1  0  0  0  0
 22 24  1  0  0  0  0
 22 66  1  0  0  0  0
 23 25  1  0  0  0  0
 23 28  2  0  0  0  0
 24 26  1  0  0  0  0
 24 27  2  0  0  0  0
 25 67  1  0  0  0  0
 25 68  1  0  0  0  0
 25 69  1  0  0  0  0
 26 70  1  0  0  0  0
 26 71  1  0  0  0  0
 26 72  1  0  0  0  0
 27 30  1  0  0  0  0
 27 73  1  0  0  0  0
 28 29  1  0  0  0  0
 28 74  1  0  0  0  0
 29 31  2  0  0  0  0
 29 75  1  0  0  0  0
 30 32  2  0  0  0  0
 30 76  1  0  0  0  0
 31 33  1  0  0  0  0
 31 77  1  0  0  0  0
 32 34  1  0  0  0  0
 32 78  1  0  0  0  0
 33 36  2  0  0  0  0
 33 37  1  0  0  0  0
 34 35  2  0  0  0  0
 34 38  1  0  0  0  0
 35 39  1  0  0  0  0
 35 80  1  0  0  0  0
 36 40  1  0  0  0  0
 36 79  1  0  0  0  0
 37 81  1  0  0  0  0
 37 82  1  0  0  0  0
 37 83  1  0  0  0  0
 38 84  1  0  0  0  0
 38 85  1  0  0  0  0
 38 86  1  0  0  0  0
 39 40  2  0  0  0  0
 39 88  1  0  0  0  0
 40 87  1  0  0  0  0
M  END
> <PUBCHEM_COMPOUND_CID>
9984420

> <PUBCHEM_COMPOUND_CANONICALIZED>
1

> <PUBCHEM_CACTVS_COMPLEXITY>
962

> <PUBCHEM_CACTVS_HBOND_ACCEPTOR>
0

> <PUBCHEM_CACTVS_HBOND_DONOR>
0

> <PUBCHEM_CACTVS_ROTATABLE_BOND>
10

> <PUBCHEM_CACTVS_SUBSKEYS>
AAADcfB8AAAAAAAAAAAAAAAAAAAAAAAAAAAwYAAAAAAAAAABQAAAGAAAAAAADACAGAAyAIAAAACAAiBCAAACAAAgAAAIiAAAAIgIICKAERCAIAAggAAIiAcAgMAOwAACAAAQAACAAAQAACAAAAAAAAAAAA==

> <PUBCHEM_IUPAC_OPENEYE_NAME>
1,2,4-trimethyl-3-[(1E,3E,5E,7E,9E,11E,13E,15E,17E)-3,7,12,16-tetramethyl-18-(2,3,6-trimethylphenyl)octadeca-1,3,5,7,9,11,13,15,17-nonaenyl]benzene

> <PUBCHEM_IUPAC_CAS_NAME>
1,2,4-trimethyl-3-[(1E,3E,5E,7E,9E,11E,13E,15E,17E)-3,7,12,16-tetramethyl-18-(2,3,6-trimethylphenyl)octadeca-1,3,5,7,9,11,13,15,17-nonaenyl]benzene

> <PUBCHEM_IUPAC_NAME>
1,2,4-trimethyl-3-[(1E,3E,5E,7E,9E,11E,13E,15E,17E)-3,7,12,16-tetramethyl-18-(2,3,6-trimethylphenyl)octadeca-1,3,5,7,9,11,13,15,17-nonaenyl]benzene

> <PUBCHEM_IUPAC_SYSTEMATIC_NAME>
1,2,4-trimethyl-3-[(1E,3E,5E,7E,9E,11E,13E,15E,17E)-3,7,12,16-tetramethyl-18-(2,3,6-trimethylphenyl)octadeca-1,3,5,7,9,11,13,15,17-nonaenyl]benzene

> <PUBCHEM_IUPAC_TRADITIONAL_NAME>
1,2,4-trimethyl-3-[(1E,3E,5E,7E,9E,11E,13E,15E,17E)-3,7,12,16-tetramethyl-18-(2,3,6-trimethylphenyl)octadeca-1,3,5,7,9,11,13,15,17-nonaenyl]benzene

> <PUBCHEM_IUPAC_INCHI>
InChI=1S/C40H48/c1-29(17-13-19-31(3)21-27-39-35(7)25-23-33(5)37(39)9)15-11-12-16-30(2)18-14-20-32(4)22-28-40-36(8)26-24-34(6)38(40)10/h11-28H,1-10H3/b12-11+,17-13+,18-14+,27-21+,28-22+,29-15+,30-16+,31-19+,32-20+

> <PUBCHEM_IUPAC_INCHIKEY>
ZCIHMQAPACOQHT-YSEOPJLNSA-N

> <PUBCHEM_XLOGP3_AA>
14

> <PUBCHEM_EXACT_MASS>
528.375602

> <PUBCHEM_MOLECULAR_FORMULA>
C40H48

> <PUBCHEM_MOLECULAR_WEIGHT>
528.80912

> <PUBCHEM_OPENEYE_CAN_SMILES>
CC1=C(C(=C(C=C1)C)C=CC(=CC=CC(=CC=CC=C(C)C=CC=C(C)C=CC2=C(C=CC(=C2C)C)C)C)C)C

> <PUBCHEM_OPENEYE_ISO_SMILES>
CC1=C(C(=C(C=C1)C)/C=C/C(=C/C=C/C(=C/C=C/C=C(/C=C/C=C(/C=C/C2=C(C=CC(=C2C)C)C)\C)\C)/C)/C)C

> <PUBCHEM_CACTVS_TPSA>
0

> <PUBCHEM_MONOISOTOPIC_WEIGHT>
528.375602

> <PUBCHEM_TOTAL_CHARGE>
0

> <PUBCHEM_HEAVY_ATOM_COUNT>
40

> <PUBCHEM_ATOM_DEF_STEREO_COUNT>
0

> <PUBCHEM_ATOM_UDEF_STEREO_COUNT>
0

> <PUBCHEM_BOND_DEF_STEREO_COUNT>
9

> <PUBCHEM_BOND_UDEF_STEREO_COUNT>
0

> <PUBCHEM_ISOTOPIC_ATOM_COUNT>
0

> <PUBCHEM_COMPONENT_COUNT>
1

> <PUBCHEM_CACTVS_TAUTO_COUNT>
1

> <PUBCHEM_COORDINATE_TYPE>
1
5
255

> <PUBCHEM_BONDANNOTATIONS>
1  4  8
1  5  8
10  12  8
2  3  8
2  6  8
3  7  8
4  8  8
5  9  8
6  10  8
7  12  8
8  11  8
9  11  8

$$$$

