164950
  -OEChem-07051213002D

 25 27  0     0  0  0  0  0  0999 V2000
    6.4783   -0.8793    0.0000 O   0  0  0  0  0  0  0  0  0  0  0  0
    4.6660    1.9254    0.0000 O   0  0  0  0  0  0  0  0  0  0  0  0
    2.9176   -2.1092    0.0000 O   0  0  0  0  0  0  0  0  0  0  0  0
    4.6660   -1.0746    0.0000 N   0  0  0  0  0  0  0  0  0  0  0  0
    3.8000    0.4254    0.0000 C   0  0  0  0  0  0  0  0  0  0  0  0
    5.5321    0.4254    0.0000 C   0  0  0  0  0  0  0  0  0  0  0  0
    4.6660    0.9254    0.0000 C   0  0  0  0  0  0  0  0  0  0  0  0
    3.8000   -0.5746    0.0000 C   0  0  0  0  0  0  0  0  0  0  0  0
    5.5321   -0.5746    0.0000 C   0  0  0  0  0  0  0  0  0  0  0  0
    2.9061    0.9601    0.0000 C   0  0  0  0  0  0  0  0  0  0  0  0
    2.9061   -1.1093    0.0000 C   0  0  0  0  0  0  0  0  0  0  0  0
    6.4783    0.7301    0.0000 C   0  0  0  0  0  0  0  0  0  0  0  0
    2.0000    0.4462    0.0000 C   0  0  0  0  0  0  0  0  0  0  0  0
    2.0000   -0.5954    0.0000 C   0  0  0  0  0  0  0  0  0  0  0  0
    7.0619   -0.0746    0.0000 C   0  0  0  0  0  0  0  0  0  0  0  0
    5.5321    2.4254    0.0000 C   0  0  0  0  0  0  0  0  0  0  0  0
    2.9132    1.5800    0.0000 H   0  0  0  0  0  0  0  0  0  0  0  0
    6.6709    1.3194    0.0000 H   0  0  0  0  0  0  0  0  0  0  0  0
    1.4643    0.7583    0.0000 H   0  0  0  0  0  0  0  0  0  0  0  0
    1.4643   -0.9075    0.0000 H   0  0  0  0  0  0  0  0  0  0  0  0
    7.6819   -0.0746    0.0000 H   0  0  0  0  0  0  0  0  0  0  0  0
    5.8421    1.8885    0.0000 H   0  0  0  0  0  0  0  0  0  0  0  0
    6.0690    2.7354    0.0000 H   0  0  0  0  0  0  0  0  0  0  0  0
    5.2221    2.9623    0.0000 H   0  0  0  0  0  0  0  0  0  0  0  0
    2.3843   -2.4254    0.0000 H   0  0  0  0  0  0  0  0  0  0  0  0
  1  9  1  0  0  0  0
  1 15  1  0  0  0  0
  2  7  1  0  0  0  0
  2 16  1  0  0  0  0
  3 11  1  0  0  0  0
  3 25  1  0  0  0  0
  4  8  1  0  0  0  0
  4  9  2  0  0  0  0
  5  7  1  0  0  0  0
  5  8  2  0  0  0  0
  5 10  1  0  0  0  0
  6  7  2  0  0  0  0
  6  9  1  0  0  0  0
  6 12  1  0  0  0  0
  8 11  1  0  0  0  0
 10 13  2  0  0  0  0
 10 17  1  0  0  0  0
 11 14  2  0  0  0  0
 12 15  2  0  0  0  0
 12 18  1  0  0  0  0
 13 14  1  0  0  0  0
 13 19  1  0  0  0  0
 14 20  1  0  0  0  0
 15 21  1  0  0  0  0
 16 22  1  0  0  0  0
 16 23  1  0  0  0  0
 16 24  1  0  0  0  0
M  END
> <PUBCHEM_COMPOUND_CID>
164950

> <PUBCHEM_COMPOUND_CANONICALIZED>
1

> <PUBCHEM_CACTVS_COMPLEXITY>
261

> <PUBCHEM_CACTVS_HBOND_ACCEPTOR>
4

> <PUBCHEM_CACTVS_HBOND_DONOR>
1

> <PUBCHEM_CACTVS_ROTATABLE_BOND>
1

> <PUBCHEM_CACTVS_SUBSKEYS>
AAADccByMAAAAAAAAAAAAAAAAAAAASAAAAA8QAAAAAAAAFix/gAAHgAACAAADAyhngIyxvIIFkCoAy1y1ASCiCAtYCAImCEnTNgOJ/bWtZuOeWjn5B3Y+Yf+2fGeAAABAAACEAAAAAIAAAQgAAAAAAAAAA==

> <PUBCHEM_IUPAC_OPENEYE_NAME>
4-methoxyfuro[2,3-b]quinolin-8-ol

> <PUBCHEM_IUPAC_CAS_NAME>
4-methoxy-8-furo[2,3-b]quinolinol

> <PUBCHEM_IUPAC_NAME>
4-methoxyfuro[2,3-b]quinolin-8-ol

> <PUBCHEM_IUPAC_SYSTEMATIC_NAME>
4-methoxyfuro[2,3-b]quinolin-8-ol

> <PUBCHEM_IUPAC_TRADITIONAL_NAME>
4-methoxyfuro[2,3-b]quinolin-8-ol

> <PUBCHEM_IUPAC_INCHI>
InChI=1S/C12H9NO3/c1-15-11-7-3-2-4-9(14)10(7)13-12-8(11)5-6-16-12/h2-6,14H,1H3

> <PUBCHEM_IUPAC_INCHIKEY>
VGVNNMLKTSWBAR-UHFFFAOYSA-N

> <PUBCHEM_XLOGP3_AA>
2.5

> <PUBCHEM_EXACT_MASS>
215.058243

> <PUBCHEM_MOLECULAR_FORMULA>
C12H9NO3

> <PUBCHEM_MOLECULAR_WEIGHT>
215.20476

> <PUBCHEM_OPENEYE_CAN_SMILES>
COC1=C2C=COC2=NC3=C1C=CC=C3O

> <PUBCHEM_OPENEYE_ISO_SMILES>
COC1=C2C=COC2=NC3=C1C=CC=C3O

> <PUBCHEM_CACTVS_TPSA>
55.5

> <PUBCHEM_MONOISOTOPIC_WEIGHT>
215.058243

> <PUBCHEM_TOTAL_CHARGE>
0

> <PUBCHEM_HEAVY_ATOM_COUNT>
16

> <PUBCHEM_ATOM_DEF_STEREO_COUNT>
0

> <PUBCHEM_ATOM_UDEF_STEREO_COUNT>
0

> <PUBCHEM_BOND_DEF_STEREO_COUNT>
0

> <PUBCHEM_BOND_UDEF_STEREO_COUNT>
0

> <PUBCHEM_ISOTOPIC_ATOM_COUNT>
0

> <PUBCHEM_COMPONENT_COUNT>
1

> <PUBCHEM_CACTVS_TAUTO_COUNT>
2

> <PUBCHEM_COORDINATE_TYPE>
1
5
255

> <PUBCHEM_BONDANNOTATIONS>
1  15  8
1  9  8
10  13  8
11  14  8
12  15  8
13  14  8
4  8  8
4  9  8
5  10  8
5  7  8
5  8  8
6  12  8
6  7  8
6  9  8
8  11  8

$$$$

