224153
  -OEChem-07051213062D

 59 62  0     1  0  0  0  0  0999 V2000
    4.2931    1.7136    0.0000 O   0  0  0  0  0  0  0  0  0  0  0  0
    8.2814    1.7387    0.0000 O   0  0  0  0  0  0  0  0  0  0  0  0
    4.7931   -0.1524    0.0000 C   0  0  1  0  0  0  0  0  0  0  0  0
    5.6591   -0.6524    0.0000 C   0  0  2  0  0  0  0  0  0  0  0  0
    6.5251   -0.1524    0.0000 C   0  0  1  0  0  0  0  0  0  0  0  0
    6.5251    0.8476    0.0000 C   0  0  2  0  0  0  0  0  0  0  0  0
    3.8831   -0.6592    0.0000 C   0  0  2  0  0  0  0  0  0  0  0  0
    4.7931    0.8476    0.0000 C   0  0  2  0  0  0  0  0  0  0  0  0
    5.6591    1.3476    0.0000 C   0  0  0  0  0  0  0  0  0  0  0  0
    3.8751   -1.7008    0.0000 C   0  0  1  0  0  0  0  0  0  0  0  0
    7.4714    1.1523    0.0000 C   0  0  2  0  0  0  0  0  0  0  0  0
    5.6752   -1.6939    0.0000 C   0  0  0  0  0  0  0  0  0  0  0  0
    7.4714   -0.4571    0.0000 C   0  0  0  0  0  0  0  0  0  0  0  0
    4.7771   -2.2217    0.0000 C   0  0  0  0  0  0  0  0  0  0  0  0
    8.0550    0.3476    0.0000 C   0  0  0  0  0  0  0  0  0  0  0  0
    2.9562   -0.0952    0.0000 C   0  0  0  0  0  0  0  0  0  0  0  0
    6.5251    1.8476    0.0000 C   0  0  0  0  0  0  0  0  0  0  0  0
    2.9396   -2.2506    0.0000 C   0  0  0  0  0  0  0  0  0  0  0  0
    3.5483    0.2831    0.0000 C   0  0  0  0  0  0  0  0  0  0  0  0
    3.8534    1.1897    0.0000 C   0  0  0  0  0  0  0  0  0  0  0  0
    2.0084   -0.6231    0.0000 C   0  0  0  0  0  0  0  0  0  0  0  0
    2.0000   -1.7081    0.0000 C   0  0  0  0  0  0  0  0  0  0  0  0
    7.1640    2.1039    0.0000 C   0  0  0  0  0  0  0  0  0  0  0  0
    5.5292    0.2726    0.0000 H   0  0  0  0  0  0  0  0  0  0  0  0
    6.3985   -1.0717    0.0000 H   0  0  0  0  0  0  0  0  0  0  0  0
    6.6151   -0.9976    0.0000 H   0  0  0  0  0  0  0  0  0  0  0  0
    6.0576    1.8226    0.0000 H   0  0  0  0  0  0  0  0  0  0  0  0
    5.2606    1.8226    0.0000 H   0  0  0  0  0  0  0  0  0  0  0  0
    3.8783   -2.5508    0.0000 H   0  0  0  0  0  0  0  0  0  0  0  0
    5.8932   -2.2743    0.0000 H   0  0  0  0  0  0  0  0  0  0  0  0
    6.2843   -1.5784    0.0000 H   0  0  0  0  0  0  0  0  0  0  0  0
    7.2203   -1.0240    0.0000 H   0  0  0  0  0  0  0  0  0  0  0  0
    8.0087   -0.7664    0.0000 H   0  0  0  0  0  0  0  0  0  0  0  0
    4.3798   -2.6976    0.0000 H   0  0  0  0  0  0  0  0  0  0  0  0
    5.1781   -2.6946    0.0000 H   0  0  0  0  0  0  0  0  0  0  0  0
    8.5158   -0.0671    0.0000 H   0  0  0  0  0  0  0  0  0  0  0  0
    8.5158    0.7623    0.0000 H   0  0  0  0  0  0  0  0  0  0  0  0
    3.3645    0.3715    0.0000 H   0  0  0  0  0  0  0  0  0  0  0  0
    2.5663    0.3869    0.0000 H   0  0  0  0  0  0  0  0  0  0  0  0
    7.1451    1.8476    0.0000 H   0  0  0  0  0  0  0  0  0  0  0  0
    6.5251    2.4676    0.0000 H   0  0  0  0  0  0  0  0  0  0  0  0
    5.9051    1.8476    0.0000 H   0  0  0  0  0  0  0  0  0  0  0  0
    2.5423   -2.7265    0.0000 H   0  0  0  0  0  0  0  0  0  0  0  0
    3.3406   -2.7235    0.0000 H   0  0  0  0  0  0  0  0  0  0  0  0
    4.1326    0.4906    0.0000 H   0  0  0  0  0  0  0  0  0  0  0  0
    3.3408    0.8673    0.0000 H   0  0  0  0  0  0  0  0  0  0  0  0
    2.9641    0.0755    0.0000 H   0  0  0  0  0  0  0  0  0  0  0  0
    4.0655    1.7723    0.0000 H   0  0  0  0  0  0  0  0  0  0  0  0
    3.2708    1.4018    0.0000 H   0  0  0  0  0  0  0  0  0  0  0  0
    3.6413    0.6071    0.0000 H   0  0  0  0  0  0  0  0  0  0  0  0
    1.8038   -0.0378    0.0000 H   0  0  0  0  0  0  0  0  0  0  0  0
    1.3967   -0.7245    0.0000 H   0  0  0  0  0  0  0  0  0  0  0  0
    1.3900   -1.5973    0.0000 H   0  0  0  0  0  0  0  0  0  0  0  0
    1.7864   -2.2901    0.0000 H   0  0  0  0  0  0  0  0  0  0  0  0
    7.7540    2.2945    0.0000 H   0  0  0  0  0  0  0  0  0  0  0  0
    6.9734    2.6939    0.0000 H   0  0  0  0  0  0  0  0  0  0  0  0
    6.5740    1.9134    0.0000 H   0  0  0  0  0  0  0  0  0  0  0  0
    4.6031    2.2506    0.0000 H   0  0  0  0  0  0  0  0  0  0  0  0
    8.8474    1.4856    0.0000 H   0  0  0  0  0  0  0  0  0  0  0  0
  8  1  1  1  0  0  0
  1 58  1  0  0  0  0
 11  2  1  1  0  0  0
  2 59  1  0  0  0  0
  3  4  1  0  0  0  0
  3  7  1  0  0  0  0
  3  8  1  0  0  0  0
  3 24  1  6  0  0  0
  4  5  1  0  0  0  0
  4 12  1  0  0  0  0
  4 25  1  1  0  0  0
  5  6  1  0  0  0  0
  5 13  1  0  0  0  0
  5 26  1  6  0  0  0
  6  9  1  0  0  0  0
  6 11  1  0  0  0  0
  6 17  1  1  0  0  0
  7 10  1  0  0  0  0
  7 16  1  0  0  0  0
  7 19  1  1  0  0  0
  8  9  1  0  0  0  0
  8 20  1  0  0  0  0
  9 27  1  0  0  0  0
  9 28  1  0  0  0  0
 10 14  1  0  0  0  0
 10 18  1  0  0  0  0
 10 29  1  6  0  0  0
 11 15  1  0  0  0  0
 11 23  1  0  0  0  0
 12 14  1  0  0  0  0
 12 30  1  0  0  0  0
 12 31  1  0  0  0  0
 13 15  1  0  0  0  0
 13 32  1  0  0  0  0
 13 33  1  0  0  0  0
 14 34  1  0  0  0  0
 14 35  1  0  0  0  0
 15 36  1  0  0  0  0
 15 37  1  0  0  0  0
 16 21  1  0  0  0  0
 16 38  1  0  0  0  0
 16 39  1  0  0  0  0
 17 40  1  0  0  0  0
 17 41  1  0  0  0  0
 17 42  1  0  0  0  0
 18 22  1  0  0  0  0
 18 43  1  0  0  0  0
 18 44  1  0  0  0  0
 19 45  1  0  0  0  0
 19 46  1  0  0  0  0
 19 47  1  0  0  0  0
 20 48  1  0  0  0  0
 20 49  1  0  0  0  0
 20 50  1  0  0  0  0
 21 22  1  0  0  0  0
 21 51  1  0  0  0  0
 21 52  1  0  0  0  0
 22 53  1  0  0  0  0
 22 54  1  0  0  0  0
 23 55  1  0  0  0  0
 23 56  1  0  0  0  0
 23 57  1  0  0  0  0
M  END
> <PUBCHEM_COMPOUND_CID>
224153

> <PUBCHEM_COMPOUND_CANONICALIZED>
1

> <PUBCHEM_CACTVS_COMPLEXITY>
504

> <PUBCHEM_CACTVS_HBOND_ACCEPTOR>
2

> <PUBCHEM_CACTVS_HBOND_DONOR>
2

> <PUBCHEM_CACTVS_ROTATABLE_BOND>
0

> <PUBCHEM_CACTVS_SUBSKEYS>
AAADcfB4MAAAAAAAAAAAAAAAAAAAAYAAAAAwYMAAAAAAAGDAAAAAGgAACAAAD0SAgAACAAAAAgAAAAAAAAAAAAAAAAAAAAAAAAAAAAIAAAAAQAAEAAAAAAHAwPAPgAAAAAAAAADAAAYAADAAAYAADAAAAA==

> <PUBCHEM_IUPAC_OPENEYE_NAME>
(5R,8S,9S,10S,11S,13S,14S,17S)-10,11,13,17-tetramethyl-2,3,4,5,6,7,8,9,12,14,15,16-dodecahydro-1H-cyclopenta[a]phenanthrene-11,17-diol

> <PUBCHEM_IUPAC_CAS_NAME>
(5R,8S,9S,10S,11S,13S,14S,17S)-10,11,13,17-tetramethyl-2,3,4,5,6,7,8,9,12,14,15,16-dodecahydro-1H-cyclopenta[a]phenanthrene-11,17-diol

> <PUBCHEM_IUPAC_NAME>
(5R,8S,9S,10S,11S,13S,14S,17S)-10,11,13,17-tetramethyl-2,3,4,5,6,7,8,9,12,14,15,16-dodecahydro-1H-cyclopenta[a]phenanthrene-11,17-diol

> <PUBCHEM_IUPAC_SYSTEMATIC_NAME>
(5R,8S,9S,10S,11S,13S,14S,17S)-10,11,13,17-tetramethyl-2,3,4,5,6,7,8,9,12,14,15,16-dodecahydro-1H-cyclopenta[a]phenanthrene-11,17-diol

> <PUBCHEM_IUPAC_TRADITIONAL_NAME>
(5R,8S,9S,10S,11S,13S,14S,17S)-10,11,13,17-tetramethyl-2,3,4,5,6,7,8,9,12,14,15,16-dodecahydro-1H-cyclopenta[a]phenanthrene-11,17-diol

> <PUBCHEM_IUPAC_INCHI>
InChI=1S/C21H36O2/c1-18-11-6-5-7-14(18)8-9-15-16-10-12-21(4,23)19(16,2)13-20(3,22)17(15)18/h14-17,22-23H,5-13H2,1-4H3/t14-,15+,16+,17+,18+,19+,20+,21+/m1/s1

> <PUBCHEM_IUPAC_INCHIKEY>
AUJYFVLNTWWEIM-NDUYDNQLSA-N

> <PUBCHEM_XLOGP3_AA>
5.1

> <PUBCHEM_EXACT_MASS>
320.27153

> <PUBCHEM_MOLECULAR_FORMULA>
C21H36O2

> <PUBCHEM_MOLECULAR_WEIGHT>
320.50934

> <PUBCHEM_OPENEYE_CAN_SMILES>
CC12CCCCC1CCC3C2C(CC4(C3CCC4(C)O)C)(C)O

> <PUBCHEM_OPENEYE_ISO_SMILES>
C[C@]12CCCC[C@@H]1CC[C@@H]3[C@@H]2[C@@](C[C@]4([C@H]3CC[C@]4(C)O)C)(C)O

> <PUBCHEM_CACTVS_TPSA>
40.5

> <PUBCHEM_MONOISOTOPIC_WEIGHT>
320.27153

> <PUBCHEM_TOTAL_CHARGE>
0

> <PUBCHEM_HEAVY_ATOM_COUNT>
23

> <PUBCHEM_ATOM_DEF_STEREO_COUNT>
8

> <PUBCHEM_ATOM_UDEF_STEREO_COUNT>
0

> <PUBCHEM_BOND_DEF_STEREO_COUNT>
0

> <PUBCHEM_BOND_UDEF_STEREO_COUNT>
0

> <PUBCHEM_ISOTOPIC_ATOM_COUNT>
0

> <PUBCHEM_COMPONENT_COUNT>
1

> <PUBCHEM_CACTVS_TAUTO_COUNT>
1

> <PUBCHEM_COORDINATE_TYPE>
1
5
255

> <PUBCHEM_BONDANNOTATIONS>
8  1  5
10  29  6
11  2  5
3  24  6
4  25  5
5  26  6
6  17  5
7  19  5

$$$$

