17395467
  -OEChem-06241222502D

 34 35  0     0  0  0  0  0  0999 V2000
    3.8968    0.7094    0.0000 S   0  0  0  0  0  0  0  0  0  0  0  0
    3.0878   -3.8784    0.0000 F   0  0  0  0  0  0  0  0  0  0  0  0
    3.7688    3.3830    0.0000 O   0  0  0  0  0  0  0  0  0  0  0  0
    5.1701    2.3649    0.0000 N   0  0  0  0  0  0  0  0  0  0  0  0
    2.2788    0.7094    0.0000 N   0  0  0  0  0  0  0  0  0  0  0  0
    5.7579    3.1739    0.0000 C   0  0  0  0  0  0  0  0  0  0  0  0
    6.7524    3.0694    0.0000 C   0  0  0  0  0  0  0  0  0  0  0  0
    3.5878    1.6604    0.0000 C   0  0  0  0  0  0  0  0  0  0  0  0
    2.5878    1.6604    0.0000 C   0  0  0  0  0  0  0  0  0  0  0  0
    3.0878    0.1216    0.0000 C   0  0  0  0  0  0  0  0  0  0  0  0
    4.1756    2.4694    0.0000 C   0  0  0  0  0  0  0  0  0  0  0  0
    3.0878   -0.8784    0.0000 C   0  0  0  0  0  0  0  0  0  0  0  0
    7.3402    3.8784    0.0000 C   0  0  0  0  0  0  0  0  0  0  0  0
    2.0000    2.4694    0.0000 C   0  0  0  0  0  0  0  0  0  0  0  0
    2.2218   -1.3784    0.0000 C   0  0  0  0  0  0  0  0  0  0  0  0
    3.9538   -1.3784    0.0000 C   0  0  0  0  0  0  0  0  0  0  0  0
    2.2218   -2.3784    0.0000 C   0  0  0  0  0  0  0  0  0  0  0  0
    3.9538   -2.3784    0.0000 C   0  0  0  0  0  0  0  0  0  0  0  0
    3.0878   -2.8784    0.0000 C   0  0  0  0  0  0  0  0  0  0  0  0
    5.9288    3.7699    0.0000 H   0  0  0  0  0  0  0  0  0  0  0  0
    5.2006    3.4457    0.0000 H   0  0  0  0  0  0  0  0  0  0  0  0
    6.5815    2.4734    0.0000 H   0  0  0  0  0  0  0  0  0  0  0  0
    7.3096    2.7976    0.0000 H   0  0  0  0  0  0  0  0  0  0  0  0
    5.4223    1.7985    0.0000 H   0  0  0  0  0  0  0  0  0  0  0  0
    7.8418    3.5140    0.0000 H   0  0  0  0  0  0  0  0  0  0  0  0
    7.7046    4.3800    0.0000 H   0  0  0  0  0  0  0  0  0  0  0  0
    6.8386    4.2428    0.0000 H   0  0  0  0  0  0  0  0  0  0  0  0
    2.5016    2.8339    0.0000 H   0  0  0  0  0  0  0  0  0  0  0  0
    1.6356    2.9710    0.0000 H   0  0  0  0  0  0  0  0  0  0  0  0
    1.4984    2.1050    0.0000 H   0  0  0  0  0  0  0  0  0  0  0  0
    1.6848   -1.0684    0.0000 H   0  0  0  0  0  0  0  0  0  0  0  0
    4.4908   -1.0684    0.0000 H   0  0  0  0  0  0  0  0  0  0  0  0
    1.6848   -2.6884    0.0000 H   0  0  0  0  0  0  0  0  0  0  0  0
    4.4908   -2.6884    0.0000 H   0  0  0  0  0  0  0  0  0  0  0  0
  1  8  1  0  0  0  0
  1 10  1  0  0  0  0
  2 19  1  0  0  0  0
  3 11  2  0  0  0  0
  4  6  1  0  0  0  0
  4 11  1  0  0  0  0
  4 24  1  0  0  0  0
  5  9  1  0  0  0  0
  5 10  2  0  0  0  0
  6  7  1  0  0  0  0
  6 20  1  0  0  0  0
  6 21  1  0  0  0  0
  7 13  1  0  0  0  0
  7 22  1  0  0  0  0
  7 23  1  0  0  0  0
  8  9  2  0  0  0  0
  8 11  1  0  0  0  0
  9 14  1  0  0  0  0
 10 12  1  0  0  0  0
 12 15  2  0  0  0  0
 12 16  1  0  0  0  0
 13 25  1  0  0  0  0
 13 26  1  0  0  0  0
 13 27  1  0  0  0  0
 14 28  1  0  0  0  0
 14 29  1  0  0  0  0
 14 30  1  0  0  0  0
 15 17  1  0  0  0  0
 15 31  1  0  0  0  0
 16 18  2  0  0  0  0
 16 32  1  0  0  0  0
 17 19  2  0  0  0  0
 17 33  1  0  0  0  0
 18 19  1  0  0  0  0
 18 34  1  0  0  0  0
M  END
> <PUBCHEM_COMPOUND_CID>
17395467

> <PUBCHEM_COMPOUND_CANONICALIZED>
1

> <PUBCHEM_CACTVS_COMPLEXITY>
308

> <PUBCHEM_CACTVS_HBOND_ACCEPTOR>
4

> <PUBCHEM_CACTVS_HBOND_DONOR>
1

> <PUBCHEM_CACTVS_ROTATABLE_BOND>
4

> <PUBCHEM_CACTVS_SUBSKEYS>
AAADccBzIQBAAAAAAAAAAAAAAAAAAWAAAAAwAAAAAAAAAAABwAAAHwQQAAAADAjB3gwygZLIEAisAyVyVACC8KBlCDgImLU4RNgIILrg0RGEIYhglgDoiUcQgAAOAAAAAAAAAAAAAAAAAAAAAAAAAAAAAA==

> <PUBCHEM_IUPAC_OPENEYE_NAME>
2-(4-fluorophenyl)-4-methyl-N-propyl-thiazole-5-carboxamide

> <PUBCHEM_IUPAC_CAS_NAME>
2-(4-fluorophenyl)-4-methyl-N-propyl-5-thiazolecarboxamide

> <PUBCHEM_IUPAC_NAME>
2-(4-fluorophenyl)-4-methyl-N-propyl-1,3-thiazole-5-carboxamide

> <PUBCHEM_IUPAC_SYSTEMATIC_NAME>
2-(4-fluorophenyl)-4-methyl-N-propyl-1,3-thiazole-5-carboxamide

> <PUBCHEM_IUPAC_TRADITIONAL_NAME>
2-(4-fluorophenyl)-4-methyl-N-propyl-thiazole-5-carboxamide

> <PUBCHEM_IUPAC_INCHI>
InChI=1S/C14H15FN2OS/c1-3-8-16-13(18)12-9(2)17-14(19-12)10-4-6-11(15)7-5-10/h4-7H,3,8H2,1-2H3,(H,16,18)

> <PUBCHEM_IUPAC_INCHIKEY>
GAMIKNLUYQQXJI-UHFFFAOYSA-N

> <PUBCHEM_XLOGP3_AA>
3.6

> <PUBCHEM_EXACT_MASS>
278.088912

> <PUBCHEM_MOLECULAR_FORMULA>
C14H15FN2OS

> <PUBCHEM_MOLECULAR_WEIGHT>
278.345103

> <PUBCHEM_OPENEYE_CAN_SMILES>
CCCNC(=O)C1=C(N=C(S1)C2=CC=C(C=C2)F)C

> <PUBCHEM_OPENEYE_ISO_SMILES>
CCCNC(=O)C1=C(N=C(S1)C2=CC=C(C=C2)F)C

> <PUBCHEM_CACTVS_TPSA>
70.2

> <PUBCHEM_MONOISOTOPIC_WEIGHT>
278.088912

> <PUBCHEM_TOTAL_CHARGE>
0

> <PUBCHEM_HEAVY_ATOM_COUNT>
19

> <PUBCHEM_ATOM_DEF_STEREO_COUNT>
0

> <PUBCHEM_ATOM_UDEF_STEREO_COUNT>
0

> <PUBCHEM_BOND_DEF_STEREO_COUNT>
0

> <PUBCHEM_BOND_UDEF_STEREO_COUNT>
0

> <PUBCHEM_ISOTOPIC_ATOM_COUNT>
0

> <PUBCHEM_COMPONENT_COUNT>
1

> <PUBCHEM_CACTVS_TAUTO_COUNT>
2

> <PUBCHEM_COORDINATE_TYPE>
1
5
255

> <PUBCHEM_BONDANNOTATIONS>
1  10  8
1  8  8
12  15  8
12  16  8
15  17  8
16  18  8
17  19  8
18  19  8
5  10  8
5  9  8
8  9  8

$$$$

