3372
  -OEChem-07051212522D

 56 59  0     0  0  0  0  0  0999 V2000
    7.1962   -4.2927    0.0000 S   0  0  0  0  0  0  0  0  0  0  0  0
   11.5904   -1.7652    0.0000 F   0  0  0  0  0  0  0  0  0  0  0  0
   11.2296   -3.1326    0.0000 F   0  0  0  0  0  0  0  0  0  0  0  0
   10.2229   -1.4044    0.0000 F   0  0  0  0  0  0  0  0  0  0  0  0
    2.0000    3.7073    0.0000 O   0  0  0  0  0  0  0  0  0  0  0  0
    5.4641    0.7073    0.0000 N   0  0  0  0  0  0  0  0  0  0  0  0
    3.7320    1.7073    0.0000 N   0  0  0  0  0  0  0  0  0  0  0  0
    7.1962   -2.2927    0.0000 N   0  0  0  0  0  0  0  0  0  0  0  0
    5.4641    1.7073    0.0000 C   0  0  0  0  0  0  0  0  0  0  0  0
    4.5981    0.2073    0.0000 C   0  0  0  0  0  0  0  0  0  0  0  0
    4.5981    2.2073    0.0000 C   0  0  0  0  0  0  0  0  0  0  0  0
    3.7320    0.7073    0.0000 C   0  0  0  0  0  0  0  0  0  0  0  0
    6.3301    0.2073    0.0000 C   0  0  0  0  0  0  0  0  0  0  0  0
    6.3301   -0.7927    0.0000 C   0  0  0  0  0  0  0  0  0  0  0  0
    2.8660    2.2073    0.0000 C   0  0  0  0  0  0  0  0  0  0  0  0
    7.1962   -1.2927    0.0000 C   0  0  0  0  0  0  0  0  0  0  0  0
    2.8660    3.2073    0.0000 C   0  0  0  0  0  0  0  0  0  0  0  0
    8.0622   -2.7927    0.0000 C   0  0  0  0  0  0  0  0  0  0  0  0
    6.3301   -2.7927    0.0000 C   0  0  0  0  0  0  0  0  0  0  0  0
    8.0622   -3.7927    0.0000 C   0  0  0  0  0  0  0  0  0  0  0  0
    6.3301   -3.7927    0.0000 C   0  0  0  0  0  0  0  0  0  0  0  0
    8.9561   -2.2580    0.0000 C   0  0  0  0  0  0  0  0  0  0  0  0
    5.4362   -2.2580    0.0000 C   0  0  0  0  0  0  0  0  0  0  0  0
    9.8622   -2.7718    0.0000 C   0  0  0  0  0  0  0  0  0  0  0  0
    8.9561   -4.3273    0.0000 C   0  0  0  0  0  0  0  0  0  0  0  0
    5.4362   -4.3273    0.0000 C   0  0  0  0  0  0  0  0  0  0  0  0
    9.8622   -3.8135    0.0000 C   0  0  0  0  0  0  0  0  0  0  0  0
    4.5301   -2.7718    0.0000 C   0  0  0  0  0  0  0  0  0  0  0  0
    4.5301   -3.8135    0.0000 C   0  0  0  0  0  0  0  0  0  0  0  0
   10.7263   -2.2685    0.0000 C   0  0  0  0  0  0  0  0  0  0  0  0
    6.0747    1.5997    0.0000 H   0  0  0  0  0  0  0  0  0  0  0  0
    5.6762    2.2899    0.0000 H   0  0  0  0  0  0  0  0  0  0  0  0
    4.1996   -0.2676    0.0000 H   0  0  0  0  0  0  0  0  0  0  0  0
    4.9966   -0.2676    0.0000 H   0  0  0  0  0  0  0  0  0  0  0  0
    4.9966    2.6823    0.0000 H   0  0  0  0  0  0  0  0  0  0  0  0
    4.1996    2.6823    0.0000 H   0  0  0  0  0  0  0  0  0  0  0  0
    3.1215    0.8150    0.0000 H   0  0  0  0  0  0  0  0  0  0  0  0
    3.5200    0.1247    0.0000 H   0  0  0  0  0  0  0  0  0  0  0  0
    6.9407    0.0997    0.0000 H   0  0  0  0  0  0  0  0  0  0  0  0
    6.5422    0.7899    0.0000 H   0  0  0  0  0  0  0  0  0  0  0  0
    5.7196   -0.6850    0.0000 H   0  0  0  0  0  0  0  0  0  0  0  0
    6.1181   -1.3753    0.0000 H   0  0  0  0  0  0  0  0  0  0  0  0
    2.2554    2.3150    0.0000 H   0  0  0  0  0  0  0  0  0  0  0  0
    2.6540    1.6247    0.0000 H   0  0  0  0  0  0  0  0  0  0  0  0
    7.8067   -1.4003    0.0000 H   0  0  0  0  0  0  0  0  0  0  0  0
    7.4082   -0.7101    0.0000 H   0  0  0  0  0  0  0  0  0  0  0  0
    3.4766    3.0997    0.0000 H   0  0  0  0  0  0  0  0  0  0  0  0
    3.0781    3.7899    0.0000 H   0  0  0  0  0  0  0  0  0  0  0  0
    8.9490   -1.6380    0.0000 H   0  0  0  0  0  0  0  0  0  0  0  0
    5.4434   -1.6380    0.0000 H   0  0  0  0  0  0  0  0  0  0  0  0
    8.9490   -4.9473    0.0000 H   0  0  0  0  0  0  0  0  0  0  0  0
    5.4434   -4.9473    0.0000 H   0  0  0  0  0  0  0  0  0  0  0  0
   10.3979   -4.1255    0.0000 H   0  0  0  0  0  0  0  0  0  0  0  0
    2.0000    4.3273    0.0000 H   0  0  0  0  0  0  0  0  0  0  0  0
    3.9944   -2.4598    0.0000 H   0  0  0  0  0  0  0  0  0  0  0  0
    3.9944   -4.1255    0.0000 H   0  0  0  0  0  0  0  0  0  0  0  0
  1 20  1  0  0  0  0
  1 21  1  0  0  0  0
  2 30  1  0  0  0  0
  3 30  1  0  0  0  0
  4 30  1  0  0  0  0
  5 17  1  0  0  0  0
  5 54  1  0  0  0  0
  6  9  1  0  0  0  0
  6 10  1  0  0  0  0
  6 13  1  0  0  0  0
  7 11  1  0  0  0  0
  7 12  1  0  0  0  0
  7 15  1  0  0  0  0
  8 16  1  0  0  0  0
  8 18  1  0  0  0  0
  8 19  1  0  0  0  0
  9 11  1  0  0  0  0
  9 31  1  0  0  0  0
  9 32  1  0  0  0  0
 10 12  1  0  0  0  0
 10 33  1  0  0  0  0
 10 34  1  0  0  0  0
 11 35  1  0  0  0  0
 11 36  1  0  0  0  0
 12 37  1  0  0  0  0
 12 38  1  0  0  0  0
 13 14  1  0  0  0  0
 13 39  1  0  0  0  0
 13 40  1  0  0  0  0
 14 16  1  0  0  0  0
 14 41  1  0  0  0  0
 14 42  1  0  0  0  0
 15 17  1  0  0  0  0
 15 43  1  0  0  0  0
 15 44  1  0  0  0  0
 16 45  1  0  0  0  0
 16 46  1  0  0  0  0
 17 47  1  0  0  0  0
 17 48  1  0  0  0  0
 18 20  2  0  0  0  0
 18 22  1  0  0  0  0
 19 21  1  0  0  0  0
 19 23  2  0  0  0  0
 20 25  1  0  0  0  0
 21 26  2  0  0  0  0
 22 24  2  0  0  0  0
 22 49  1  0  0  0  0
 23 28  1  0  0  0  0
 23 50  1  0  0  0  0
 24 27  1  0  0  0  0
 24 30  1  0  0  0  0
 25 27  2  0  0  0  0
 25 51  1  0  0  0  0
 26 29  1  0  0  0  0
 26 52  1  0  0  0  0
 27 53  1  0  0  0  0
 28 29  2  0  0  0  0
 28 55  1  0  0  0  0
 29 56  1  0  0  0  0
M  END
> <PUBCHEM_COMPOUND_CID>
3372

> <PUBCHEM_COMPOUND_CANONICALIZED>
1

> <PUBCHEM_CACTVS_COMPLEXITY>
544

> <PUBCHEM_CACTVS_HBOND_ACCEPTOR>
8

> <PUBCHEM_CACTVS_HBOND_DONOR>
1

> <PUBCHEM_CACTVS_ROTATABLE_BOND>
6

> <PUBCHEM_CACTVS_SUBSKEYS>
AAADceB7IYBAAAAAAAAAAAAAAAAAAAAAAAA8eIEAAAAAAACxQAAAHwQACAAADAjh2BYwwYMAAgiAAiRCQACCAAAhChAIiBwIZIgKcGLg0ZGUIAhggAD4yAcQgAAOEAAAQAAAAQAgAACAAAACAAAAAAAAAA==

> <PUBCHEM_IUPAC_OPENEYE_NAME>
2-[4-[3-[2-(trifluoromethyl)phenothiazin-10-yl]propyl]piperazin-1-yl]ethanol

> <PUBCHEM_IUPAC_CAS_NAME>
2-[4-[3-[2-(trifluoromethyl)-10-phenothiazinyl]propyl]-1-piperazinyl]ethanol

> <PUBCHEM_IUPAC_NAME>
2-[4-[3-[2-(trifluoromethyl)phenothiazin-10-yl]propyl]piperazin-1-yl]ethanol

> <PUBCHEM_IUPAC_SYSTEMATIC_NAME>
2-[4-[3-[2-(trifluoromethyl)phenothiazin-10-yl]propyl]piperazin-1-yl]ethanol

> <PUBCHEM_IUPAC_TRADITIONAL_NAME>
2-[4-[3-[2-(trifluoromethyl)phenothiazin-10-yl]propyl]piperazino]ethanol

> <PUBCHEM_IUPAC_INCHI>
InChI=1S/C22H26F3N3OS/c23-22(24,25)17-6-7-21-19(16-17)28(18-4-1-2-5-20(18)30-21)9-3-8-26-10-12-27(13-11-26)14-15-29/h1-2,4-7,16,29H,3,8-15H2

> <PUBCHEM_IUPAC_INCHIKEY>
PLDUPXSUYLZYBN-UHFFFAOYSA-N

> <PUBCHEM_XLOGP3>
4.4

> <PUBCHEM_EXACT_MASS>
437.174868

> <PUBCHEM_MOLECULAR_FORMULA>
C22H26F3N3OS

> <PUBCHEM_MOLECULAR_WEIGHT>
437.52155

> <PUBCHEM_OPENEYE_CAN_SMILES>
C1CN(CCN1CCCN2C3=CC=CC=C3SC4=C2C=C(C=C4)C(F)(F)F)CCO

> <PUBCHEM_OPENEYE_ISO_SMILES>
C1CN(CCN1CCCN2C3=CC=CC=C3SC4=C2C=C(C=C4)C(F)(F)F)CCO

> <PUBCHEM_CACTVS_TPSA>
55.2

> <PUBCHEM_MONOISOTOPIC_WEIGHT>
437.174868

> <PUBCHEM_TOTAL_CHARGE>
0

> <PUBCHEM_HEAVY_ATOM_COUNT>
30

> <PUBCHEM_ATOM_DEF_STEREO_COUNT>
0

> <PUBCHEM_ATOM_UDEF_STEREO_COUNT>
0

> <PUBCHEM_BOND_DEF_STEREO_COUNT>
0

> <PUBCHEM_BOND_UDEF_STEREO_COUNT>
0

> <PUBCHEM_ISOTOPIC_ATOM_COUNT>
0

> <PUBCHEM_COMPONENT_COUNT>
1

> <PUBCHEM_CACTVS_TAUTO_COUNT>
1

> <PUBCHEM_COORDINATE_TYPE>
1
5
255

> <PUBCHEM_BONDANNOTATIONS>
18  20  8
18  22  8
19  21  8
19  23  8
20  25  8
21  26  8
22  24  8
23  28  8
24  27  8
25  27  8
26  29  8
28  29  8

$$$$

