9980
  -OEChem-06261204142D

 36 36  0     1  0  0  0  0  0999 V2000
    6.5010    4.3100    0.0000 As  0  0  0  0  0  0  0  0  0  0  0  0
    6.5010    3.3100    0.0000 As  0  0  0  0  0  0  0  0  0  0  0  0
    5.6350    8.8100    0.0000 S   0  0  3  0  0  0  0  0  0  0  0  0
    6.5010   10.3100    0.0000 Na  0  3  0  0  0  0  0  0  0  0  0  0
    3.0369    6.3100    0.0000 O   0  0  0  0  0  0  0  0  0  0  0  0
    9.9651    1.3100    0.0000 O   0  0  0  0  0  0  0  0  0  0  0  0
    6.5010    9.3100    0.0000 O   0  5  0  0  0  0  0  0  0  0  0  0
    4.7690    9.3100    0.0000 O   0  0  0  0  0  0  0  0  0  0  0  0
    4.7690    7.3100    0.0000 N   0  0  0  0  0  0  0  0  0  0  0  0
    8.2331    0.3100    0.0000 N   0  0  0  0  0  0  0  0  0  0  0  0
    4.7690    6.3100    0.0000 C   0  0  0  0  0  0  0  0  0  0  0  0
    5.6350    5.8100    0.0000 C   0  0  0  0  0  0  0  0  0  0  0  0
    3.9030    5.8100    0.0000 C   0  0  0  0  0  0  0  0  0  0  0  0
    5.6350    4.8100    0.0000 C   0  0  0  0  0  0  0  0  0  0  0  0
    3.9030    4.8100    0.0000 C   0  0  0  0  0  0  0  0  0  0  0  0
    4.7690    4.3100    0.0000 C   0  0  0  0  0  0  0  0  0  0  0  0
    5.6350    7.8100    0.0000 C   0  0  0  0  0  0  0  0  0  0  0  0
    7.3671    2.8100    0.0000 C   0  0  0  0  0  0  0  0  0  0  0  0
    8.2331    1.3100    0.0000 C   0  0  0  0  0  0  0  0  0  0  0  0
    7.3671    1.8100    0.0000 C   0  0  0  0  0  0  0  0  0  0  0  0
    9.0991    1.8100    0.0000 C   0  0  0  0  0  0  0  0  0  0  0  0
    8.2331    3.3100    0.0000 C   0  0  0  0  0  0  0  0  0  0  0  0
    9.0991    2.8100    0.0000 C   0  0  0  0  0  0  0  0  0  0  0  0
    6.1719    6.1200    0.0000 H   0  0  0  0  0  0  0  0  0  0  0  0
    4.2321    7.6200    0.0000 H   0  0  0  0  0  0  0  0  0  0  0  0
    3.3660    4.5000    0.0000 H   0  0  0  0  0  0  0  0  0  0  0  0
    4.7690    3.6900    0.0000 H   0  0  0  0  0  0  0  0  0  0  0  0
    5.8471    7.2274    0.0000 H   0  0  0  0  0  0  0  0  0  0  0  0
    6.2456    7.9177    0.0000 H   0  0  0  0  0  0  0  0  0  0  0  0
    6.8301    1.5000    0.0000 H   0  0  0  0  0  0  0  0  0  0  0  0
    8.2331    3.9300    0.0000 H   0  0  0  0  0  0  0  0  0  0  0  0
    9.6360    3.1200    0.0000 H   0  0  0  0  0  0  0  0  0  0  0  0
    2.5000    6.0000    0.0000 H   0  0  0  0  0  0  0  0  0  0  0  0
    7.6962    0.0000    0.0000 H   0  0  0  0  0  0  0  0  0  0  0  0
    8.7700    0.0000    0.0000 H   0  0  0  0  0  0  0  0  0  0  0  0
   10.5021    1.6200    0.0000 H   0  0  0  0  0  0  0  0  0  0  0  0
  1  2  2  0  0  0  0
  1 14  1  0  0  0  0
  2 18  1  0  0  0  0
  3  7  1  0  0  0  0
  3  8  2  0  0  0  0
  3 17  1  0  0  0  0
  5 13  1  0  0  0  0
  5 33  1  0  0  0  0
  6 21  1  0  0  0  0
  6 36  1  0  0  0  0
  9 11  1  0  0  0  0
  9 17  1  0  0  0  0
  9 25  1  0  0  0  0
 10 19  1  0  0  0  0
 10 34  1  0  0  0  0
 10 35  1  0  0  0  0
 11 12  1  0  0  0  0
 11 13  2  0  0  0  0
 12 14  2  0  0  0  0
 12 24  1  0  0  0  0
 13 15  1  0  0  0  0
 14 16  1  0  0  0  0
 15 16  2  0  0  0  0
 15 26  1  0  0  0  0
 16 27  1  0  0  0  0
 17 28  1  0  0  0  0
 17 29  1  0  0  0  0
 18 20  2  0  0  0  0
 18 22  1  0  0  0  0
 19 20  1  0  0  0  0
 19 21  2  0  0  0  0
 20 30  1  0  0  0  0
 21 23  1  0  0  0  0
 22 23  2  0  0  0  0
 22 31  1  0  0  0  0
 23 32  1  0  0  0  0
M  CHG  2   4   1   7  -1
M  END
> <PUBCHEM_COMPOUND_CID>
9980

> <PUBCHEM_COMPOUND_CANONICALIZED>
1

> <PUBCHEM_CACTVS_COMPLEXITY>
410

> <PUBCHEM_CACTVS_HBOND_ACCEPTOR>
7

> <PUBCHEM_CACTVS_HBOND_DONOR>
4

> <PUBCHEM_CACTVS_ROTATABLE_BOND>
4

> <PUBCHEM_CACTVS_SUBSKEYS>
AAADccBzOCBAAAAAQAAAAAAAAAAAAAAAAAAwYAAAAAAAAAABQAAAHgUQCAACCAyBkASwxoLAAgKAACRCQGCKAAAhIgAIjIAPbIgKJiLSkZOEcAhk0BFY2AeQQAAAAAAAAAAAEAAAAAAAAAAgAAAAAAAAAA==

> <PUBCHEM_IUPAC_OPENEYE_NAME>
sodium [5-(3-amino-4-hydroxy-phenyl)arsanylidenearsanyl-2-hydroxy-anilino]methanesulfinate

> <PUBCHEM_IUPAC_CAS_NAME>
sodium [5-(3-amino-4-hydroxyphenyl)arsinylidenearsinyl-2-hydroxyanilino]methanesulfinate

> <PUBCHEM_IUPAC_NAME>
sodium [5-(3-amino-4-hydroxyphenyl)arsanylidenearsanyl-2-hydroxyanilino]methanesulfinate

> <PUBCHEM_IUPAC_SYSTEMATIC_NAME>
sodium [[5-(3-azanyl-4-oxidanyl-phenyl)arsanylidenearsanyl-2-oxidanyl-phenyl]amino]methanesulfinate

> <PUBCHEM_IUPAC_TRADITIONAL_NAME>
sodium [5-(3-amino-4-hydroxy-phenyl)arsinylidenearsinyl-2-hydroxy-anilino]methanesulfinate

> <PUBCHEM_IUPAC_INCHI>
InChI=1S/C13H14As2N2O4S.Na/c16-10-5-8(1-3-12(10)18)14-15-9-2-4-13(19)11(6-9)17-7-22(20)21;/h1-6,17-19H,7,16H2,(H,20,21);/q;+1/p-1

> <PUBCHEM_IUPAC_INCHIKEY>
BGYSJUFVJUJSOL-UHFFFAOYSA-M

> <PUBCHEM_EXACT_MASS>
465.892565

> <PUBCHEM_MOLECULAR_FORMULA>
C13H13As2N2NaO4S

> <PUBCHEM_MOLECULAR_WEIGHT>
466.151289

> <PUBCHEM_OPENEYE_CAN_SMILES>
C1=CC(=C(C=C1[As]=[As]C2=CC(=C(C=C2)O)NCS(=O)[O-])N)O.[Na+]

> <PUBCHEM_OPENEYE_ISO_SMILES>
C1=CC(=C(C=C1[As]=[As]C2=CC(=C(C=C2)O)NCS(=O)[O-])N)O.[Na+]

> <PUBCHEM_CACTVS_TPSA>
138

> <PUBCHEM_MONOISOTOPIC_WEIGHT>
465.892565

> <PUBCHEM_TOTAL_CHARGE>
0

> <PUBCHEM_HEAVY_ATOM_COUNT>
23

> <PUBCHEM_ATOM_DEF_STEREO_COUNT>
0

> <PUBCHEM_ATOM_UDEF_STEREO_COUNT>
0

> <PUBCHEM_BOND_DEF_STEREO_COUNT>
0

> <PUBCHEM_BOND_UDEF_STEREO_COUNT>
0

> <PUBCHEM_ISOTOPIC_ATOM_COUNT>
0

> <PUBCHEM_COMPONENT_COUNT>
2

> <PUBCHEM_CACTVS_TAUTO_COUNT>
12

> <PUBCHEM_COORDINATE_TYPE>
1
5
255

> <PUBCHEM_BONDANNOTATIONS>
11  12  8
11  13  8
12  14  8
13  15  8
14  16  8
15  16  8
18  20  8
18  22  8
19  20  8
19  21  8
21  23  8
22  23  8

$$$$

