   Color/Form

     * LEAVES FROM PETROLEUM ETHER
     * COLORLESS PLATES
     * WHITE TRANSLUCENT LUMPS

   from [1]HSDB

   Odor
        PUNGENT CAMPHOR-LIKE
   from [2]HSDB

   Solubilities
        SOL IN CHLOROFORM
   from [3]HSDB

   Spectral Properties
        SADTLER REFERENCE NUMBER: 2143 (IR, PRISM)
   from [4]HSDB

   Other Chemical/Physical Properties

     * PEPPERY ODOR, BURNING TASTE SOMEWHAT RESEMBLING THAT OF MINT,
       MELTING POINT 208 DEG C /D-FORM/
     * BOILING POINT: 210 DEG C @ 779 MM HG /L-FORM/
     * MELTING POINT: 210.5 DEG C; BOILING POINT: SUBLIMES; DENSITY: 1.011
       @ 20 DEG C/4 DEG C /DL-FORM/
     * DENSITY: 1.1011 @ 20 DEG C/4 DEG C; MELTING POINT: 208.6 DEG C
       /L-FORM/
     * BOILING POINT: 212 DEG C (SUBLIMES); LEAFLETS OR HEXAGONAL PLATES
       FROM PETROLEUM ETHER /D-FORM/
     * HEXAGONAL PLATES /L-FORM/
     * SLIGHTLY SOL IN WATER; SOL IN ETHANOL /D-FORM/
     * SOL IN ACETONE, PETROLEUM ETHER (ABOUT 1:6), BENZENE (ABOUT 1:5),
       TOLUENE, DECALIN, TETRALIN, ETHER /D-FORM/
     * INSOL IN WATER; VERY SOL IN ALC, ETHER, BENZENE /DL-FORM/
     * INSOL IN WATER; SOL IN ALC; VERY SOL IN ETHER, BENZENE /L-FORM/
     * 176 PARTS SOL IN 100 PARTS WT/WT ABS ALCOHOL /D-/
     * SPECIFIC OPTICAL ROTATION: +37.7 DEG @ 20 DEG C/D (ALC, 5%),
       SPECIFIC GRAVITY 1.011 @ 20 DEG C/4 DEG C; SPECIFIC OPTICAL
       ROTATION: +44.4 DEG @ 22 DEG C/546 (TOLUENE, 0.5%) /D-FORM/
     * SPECIFIC OPTICAL ROTATION: -37.7 DEG @ 20 DEG C/D (ALCOHOL, 5%);
       -44.4 DEG @ 22 DEG C/546 (TOLUENE, 0.5%) /L-FORM/
     * 5.31 /D-FORM/
     * SUBLIMES, BUT IS LESS VOLATILE THAN CAMPHOR /D-FORM/

   from [5]HSDB

   Computed Properties
   Molecular Weight                  154.24932 [g/mol]
   Molecular Formula                 C[10]H[18]O
   XLogP3                            2.7
   H-Bond Donor                      1
   H-Bond Acceptor                   1
   Rotatable Bond Count              0
   Exact Mass                        154.135765
   MonoIsotopic Mass                 154.135765
   Topological Polar Surface Area    20.2
   Heavy Atom Count                  11
   Formal Charge                     0
   Complexity                        185
   Isotope Atom Count                0
   Defined Atom Stereocenter Count   1
   Undefined Atom Stereocenter Count 2
   Defined Bond Stereocenter Count   0
   Undefined Bond Stereocenter Count 0
   Covalently-Bonded Unit Count      1
   Feature 3D Acceptor Count         1
   Feature 3D Donor Count            1
   Feature 3D Hydrophobe Count       1
   Feature 3D Ring Count             1
   Effective Rotor Count             1
   Conformer Sampling RMSD           0.4
   CID Conformer Count               [6]2

References

   1. http://toxnet.nlm.nih.gov/cgi-bin/sis/search/r?dbs+hsdb:@term+@rn+@rel+507-70-0
   2. http://toxnet.nlm.nih.gov/cgi-bin/sis/search/r?dbs+hsdb:@term+@rn+@rel+507-70-0
   3. http://toxnet.nlm.nih.gov/cgi-bin/sis/search/r?dbs+hsdb:@term+@rn+@rel+507-70-0
   4. http://toxnet.nlm.nih.gov/cgi-bin/sis/search/r?dbs+hsdb:@term+@rn+@rel+507-70-0
   5. http://toxnet.nlm.nih.gov/cgi-bin/sis/search/r?dbs+hsdb:@term+@rn+@rel+507-70-0
   6. http://pubchem.ncbi.nlm.nih.gov/vw3d/vw3d.cgi?cid=439568
