5282352
  -OEChem-07051213042D

 78 81  0     1  0  0  0  0  0999 V2000
    7.9288   -2.3308    0.0000 O   0  0  0  0  0  0  0  0  0  0  0  0
    7.9506   -3.3623    0.0000 O   0  0  0  0  0  0  0  0  0  0  0  0
    4.4323   -0.3310    0.0000 O   0  0  0  0  0  0  0  0  0  0  0  0
    2.5357   -3.3831    0.0000 O   0  0  0  0  0  0  0  0  0  0  0  0
    7.9288   -0.3308    0.0000 C   0  0  1  0  0  0  0  0  0  0  0  0
    7.9288   -1.3308    0.0000 C   0  0  2  0  0  0  0  0  0  0  0  0
    7.0628   -1.8308    0.0000 C   0  0  2  0  0  0  0  0  0  0  0  0
    6.1968   -1.3308    0.0000 C   0  0  1  0  0  0  0  0  0  0  0  0
    8.8750   -0.0261    0.0000 C   0  0  2  0  0  0  0  0  0  0  0  0
    5.2868   -1.8376    0.0000 C   0  0  2  0  0  0  0  0  0  0  0  0
    7.0628    0.1692    0.0000 C   0  0  0  0  0  0  0  0  0  0  0  0
    8.8750   -1.6355    0.0000 C   0  0  0  0  0  0  0  0  0  0  0  0
    6.1968   -0.3308    0.0000 C   0  0  0  0  0  0  0  0  0  0  0  0
    9.4586   -0.8308    0.0000 C   0  0  0  0  0  0  0  0  0  0  0  0
    7.0789   -2.8723    0.0000 C   0  0  2  0  0  0  0  0  0  0  0  0
    7.9288    0.6692    0.0000 C   0  0  0  0  0  0  0  0  0  0  0  0
    5.2787   -2.8792    0.0000 C   0  0  0  0  0  0  0  0  0  0  0  0
    9.1857    0.9244    0.0000 C   0  0  2  0  0  0  0  0  0  0  0  0
    4.3599   -1.2736    0.0000 C   0  0  0  0  0  0  0  0  0  0  0  0
    6.1808   -3.4001    0.0000 C   0  0  0  0  0  0  0  0  0  0  0  0
    5.2945   -0.8377    0.0000 C   0  0  0  0  0  0  0  0  0  0  0  0
    4.3433   -3.4290    0.0000 C   0  0  0  0  0  0  0  0  0  0  0  0
    3.4120   -1.8015    0.0000 C   0  0  0  0  0  0  0  0  0  0  0  0
    3.4037   -2.8865    0.0000 C   0  0  2  0  0  0  0  0  0  0  0  0
    8.5179    1.6688    0.0000 C   0  0  0  0  0  0  0  0  0  0  0  0
   10.1642    1.1307    0.0000 C   0  0  0  0  0  0  0  0  0  0  0  0
   10.4749    2.0812    0.0000 C   0  0  0  0  0  0  0  0  0  0  0  0
   11.4534    2.2874    0.0000 C   0  0  3  0  0  0  0  0  0  0  0  0
   11.7640    3.2379    0.0000 C   0  0  0  0  0  0  0  0  0  0  0  0
   12.1212    1.5431    0.0000 C   0  0  0  0  0  0  0  0  0  0  0  0
   12.7425    3.4441    0.0000 C   0  0  0  0  0  0  0  0  0  0  0  0
   11.0962    3.9822    0.0000 C   0  0  0  0  0  0  0  0  0  0  0  0
    8.0188   -2.1760    0.0000 H   0  0  0  0  0  0  0  0  0  0  0  0
    6.9329   -0.9058    0.0000 H   0  0  0  0  0  0  0  0  0  0  0  0
    9.7148    0.1058    0.0000 H   0  0  0  0  0  0  0  0  0  0  0  0
    7.4613    0.6441    0.0000 H   0  0  0  0  0  0  0  0  0  0  0  0
    6.6643    0.6441    0.0000 H   0  0  0  0  0  0  0  0  0  0  0  0
    8.6240   -2.2024    0.0000 H   0  0  0  0  0  0  0  0  0  0  0  0
    9.4124   -1.9448    0.0000 H   0  0  0  0  0  0  0  0  0  0  0  0
    5.9847    0.2518    0.0000 H   0  0  0  0  0  0  0  0  0  0  0  0
    5.5862   -0.4385    0.0000 H   0  0  0  0  0  0  0  0  0  0  0  0
    9.9195   -1.2455    0.0000 H   0  0  0  0  0  0  0  0  0  0  0  0
    9.9195   -0.4161    0.0000 H   0  0  0  0  0  0  0  0  0  0  0  0
    7.6116   -2.5551    0.0000 H   0  0  0  0  0  0  0  0  0  0  0  0
    8.5488    0.6692    0.0000 H   0  0  0  0  0  0  0  0  0  0  0  0
    7.9288    1.2892    0.0000 H   0  0  0  0  0  0  0  0  0  0  0  0
    7.3088    0.6692    0.0000 H   0  0  0  0  0  0  0  0  0  0  0  0
    9.3783    1.5138    0.0000 H   0  0  0  0  0  0  0  0  0  0  0  0
    4.7681   -0.8069    0.0000 H   0  0  0  0  0  0  0  0  0  0  0  0
    3.9700   -0.7915    0.0000 H   0  0  0  0  0  0  0  0  0  0  0  0
    6.1832   -4.0201    0.0000 H   0  0  0  0  0  0  0  0  0  0  0  0
    5.9042   -0.9500    0.0000 H   0  0  0  0  0  0  0  0  0  0  0  0
    5.5110   -0.2567    0.0000 H   0  0  0  0  0  0  0  0  0  0  0  0
    8.5488   -2.3308    0.0000 H   0  0  0  0  0  0  0  0  0  0  0  0
    3.9460   -3.9050    0.0000 H   0  0  0  0  0  0  0  0  0  0  0  0
    4.7443   -3.9019    0.0000 H   0  0  0  0  0  0  0  0  0  0  0  0
    3.2075   -1.2162    0.0000 H   0  0  0  0  0  0  0  0  0  0  0  0
    2.8004   -1.9029    0.0000 H   0  0  0  0  0  0  0  0  0  0  0  0
    3.4025   -3.5065    0.0000 H   0  0  0  0  0  0  0  0  0  0  0  0
    8.9793    2.0828    0.0000 H   0  0  0  0  0  0  0  0  0  0  0  0
    8.1038    2.1302    0.0000 H   0  0  0  0  0  0  0  0  0  0  0  0
    8.0564    1.2547    0.0000 H   0  0  0  0  0  0  0  0  0  0  0  0
    7.9578   -3.9822    0.0000 H   0  0  0  0  0  0  0  0  0  0  0  0
   10.5783    0.6692    0.0000 H   0  0  0  0  0  0  0  0  0  0  0  0
    4.4371    0.2890    0.0000 H   0  0  0  0  0  0  0  0  0  0  0  0
    2.0000   -3.0711    0.0000 H   0  0  0  0  0  0  0  0  0  0  0  0
   10.0608    2.5426    0.0000 H   0  0  0  0  0  0  0  0  0  0  0  0
   12.2851    2.4627    0.0000 H   0  0  0  0  0  0  0  0  0  0  0  0
   12.1781    2.7765    0.0000 H   0  0  0  0  0  0  0  0  0  0  0  0
   11.6598    1.1290    0.0000 H   0  0  0  0  0  0  0  0  0  0  0  0
   12.5353    1.0816    0.0000 H   0  0  0  0  0  0  0  0  0  0  0  0
   12.5827    1.9572    0.0000 H   0  0  0  0  0  0  0  0  0  0  0  0
   11.5577    4.3963    0.0000 H   0  0  0  0  0  0  0  0  0  0  0  0
   10.6821    4.4437    0.0000 H   0  0  0  0  0  0  0  0  0  0  0  0
   12.8704    2.8375    0.0000 H   0  0  0  0  0  0  0  0  0  0  0  0
   13.3492    3.5720    0.0000 H   0  0  0  0  0  0  0  0  0  0  0  0
   12.6147    4.0508    0.0000 H   0  0  0  0  0  0  0  0  0  0  0  0
   10.6347    3.5682    0.0000 H   0  0  0  0  0  0  0  0  0  0  0  0
  7  1  1  1  0  0  0
  1 54  1  0  0  0  0
 15  2  1  1  0  0  0
  2 63  1  0  0  0  0
  3 21  1  0  0  0  0
  3 65  1  0  0  0  0
 24  4  1  1  0  0  0
  4 66  1  0  0  0  0
  5  6  1  0  0  0  0
  5  9  1  0  0  0  0
  5 11  1  0  0  0  0
  5 16  1  1  0  0  0
  6  7  1  0  0  0  0
  6 12  1  0  0  0  0
  6 33  1  6  0  0  0
  7  8  1  0  0  0  0
  7 15  1  0  0  0  0
  8 10  1  0  0  0  0
  8 13  1  0  0  0  0
  8 34  1  6  0  0  0
  9 14  1  0  0  0  0
  9 18  1  0  0  0  0
  9 35  1  6  0  0  0
 10 17  1  0  0  0  0
 10 19  1  0  0  0  0
 10 21  1  1  0  0  0
 11 13  1  0  0  0  0
 11 36  1  0  0  0  0
 11 37  1  0  0  0  0
 12 14  1  0  0  0  0
 12 38  1  0  0  0  0
 12 39  1  0  0  0  0
 13 40  1  0  0  0  0
 13 41  1  0  0  0  0
 14 42  1  0  0  0  0
 14 43  1  0  0  0  0
 15 20  1  0  0  0  0
 15 44  1  0  0  0  0
 16 45  1  0  0  0  0
 16 46  1  0  0  0  0
 16 47  1  0  0  0  0
 17 20  2  0  0  0  0
 17 22  1  0  0  0  0
 18 25  1  6  0  0  0
 18 26  1  0  0  0  0
 18 48  1  0  0  0  0
 19 23  1  0  0  0  0
 19 49  1  0  0  0  0
 19 50  1  0  0  0  0
 20 51  1  0  0  0  0
 21 52  1  0  0  0  0
 21 53  1  0  0  0  0
 22 24  1  0  0  0  0
 22 55  1  0  0  0  0
 22 56  1  0  0  0  0
 23 24  1  0  0  0  0
 23 57  1  0  0  0  0
 23 58  1  0  0  0  0
 24 59  1  0  0  0  0
 25 60  1  0  0  0  0
 25 61  1  0  0  0  0
 25 62  1  0  0  0  0
 26 27  2  0  0  0  0
 26 64  1  0  0  0  0
 27 28  1  0  0  0  0
 27 67  1  0  0  0  0
 28 29  1  0  0  0  0
 28 30  1  0  0  0  0
 28 68  1  0  0  0  0
 29 31  1  0  0  0  0
 29 32  1  0  0  0  0
 29 69  1  0  0  0  0
 30 70  1  0  0  0  0
 30 71  1  0  0  0  0
 30 72  1  0  0  0  0
 31 75  1  0  0  0  0
 31 76  1  0  0  0  0
 31 77  1  0  0  0  0
 32 73  1  0  0  0  0
 32 74  1  0  0  0  0
 32 78  1  0  0  0  0
M  END
> <PUBCHEM_COMPOUND_CID>
5282352

> <PUBCHEM_COMPOUND_CANONICALIZED>
1

> <PUBCHEM_CACTVS_COMPLEXITY>
759

> <PUBCHEM_CACTVS_HBOND_ACCEPTOR>
4

> <PUBCHEM_CACTVS_HBOND_DONOR>
4

> <PUBCHEM_CACTVS_ROTATABLE_BOND>
5

> <PUBCHEM_CACTVS_SUBSKEYS>
AAADcfB4OAAAAAAAAAAAAAAAAAAAAYAAAAAwYIAAAAAAAGCAAAAAGgAACAAAD1SggAICAAAAAgCAAiBCAAAAAAAgAAAICAAAAAgBFAIAAQAAUAAEwAAJEAPA4PQPgAAAAAAAAADAAAYAADAAAQAACAAAAA==

> <PUBCHEM_IUPAC_OPENEYE_NAME>
(3S,7S,8R,9R,10S,13R,14R,17R)-10-(hydroxymethyl)-13-methyl-17-[(E,1R)-1,4,5-trimethylhex-2-enyl]-1,2,3,4,7,9,11,12,14,15,16,17-dodecahydrocyclopenta[a]phenanthrene-3,7,8-triol

> <PUBCHEM_IUPAC_CAS_NAME>
(3S,7S,8R,9R,10S,13R,14R,17R)-17-[(E,2R)-5,6-dimethylhept-3-en-2-yl]-10-(hydroxymethyl)-13-methyl-1,2,3,4,7,9,11,12,14,15,16,17-dodecahydrocyclopenta[a]phenanthrene-3,7,8-triol

> <PUBCHEM_IUPAC_NAME>
(3S,7S,8R,9R,10S,13R,14R,17R)-17-[(E,2R)-5,6-dimethylhept-3-en-2-yl]-10-(hydroxymethyl)-13-methyl-1,2,3,4,7,9,11,12,14,15,16,17-dodecahydrocyclopenta[a]phenanthrene-3,7,8-triol

> <PUBCHEM_IUPAC_SYSTEMATIC_NAME>
(3S,7S,8R,9R,10S,13R,14R,17R)-17-[(E,2R)-5,6-dimethylhept-3-en-2-yl]-10-(hydroxymethyl)-13-methyl-1,2,3,4,7,9,11,12,14,15,16,17-dodecahydrocyclopenta[a]phenanthrene-3,7,8-triol

> <PUBCHEM_IUPAC_TRADITIONAL_NAME>
(3S,7S,8R,9R,10S,13R,14R,17R)-13-methyl-10-methylol-17-[(E,1R)-1,4,5-trimethylhex-2-enyl]-1,2,3,4,7,9,11,12,14,15,16,17-dodecahydrocyclopenta[a]phenanthrene-3,7,8-triol

> <PUBCHEM_IUPAC_INCHI>
InChI=1S/C28H46O4/c1-17(2)18(3)6-7-19(4)22-8-9-23-26(22,5)12-11-24-27(16-29)13-10-21(30)14-20(27)15-25(31)28(23,24)32/h6-7,15,17-19,21-25,29-32H,8-14,16H2,1-5H3/b7-6+/t18?,19-,21+,22-,23-,24-,25+,26-,27-,28-/m1/s1

> <PUBCHEM_IUPAC_INCHIKEY>
SYIBODKBOJFRIS-AZEALQJHSA-N

> <PUBCHEM_XLOGP3_AA>
4.3

> <PUBCHEM_EXACT_MASS>
446.33961

> <PUBCHEM_MOLECULAR_FORMULA>
C28H46O4

> <PUBCHEM_MOLECULAR_WEIGHT>
446.66244

> <PUBCHEM_OPENEYE_CAN_SMILES>
CC(C)C(C)C=CC(C)C1CCC2C1(CCC3C2(C(C=C4C3(CCC(C4)O)CO)O)O)C

> <PUBCHEM_OPENEYE_ISO_SMILES>
C[C@H](/C=C/C(C)C(C)C)[C@H]1CC[C@@H]2[C@@]1(CC[C@H]3[C@]2([C@H](C=C4[C@@]3(CC[C@@H](C4)O)CO)O)O)C

> <PUBCHEM_CACTVS_TPSA>
80.9

> <PUBCHEM_MONOISOTOPIC_WEIGHT>
446.33961

> <PUBCHEM_TOTAL_CHARGE>
0

> <PUBCHEM_HEAVY_ATOM_COUNT>
32

> <PUBCHEM_ATOM_DEF_STEREO_COUNT>
9

> <PUBCHEM_ATOM_UDEF_STEREO_COUNT>
1

> <PUBCHEM_BOND_DEF_STEREO_COUNT>
1

> <PUBCHEM_BOND_UDEF_STEREO_COUNT>
0

> <PUBCHEM_ISOTOPIC_ATOM_COUNT>
0

> <PUBCHEM_COMPONENT_COUNT>
1

> <PUBCHEM_CACTVS_TAUTO_COUNT>
1

> <PUBCHEM_COORDINATE_TYPE>
1
5
255

> <PUBCHEM_BONDANNOTATIONS>
7  1  5
10  21  5
18  25  6
15  2  5
28  68  3
24  4  5
5  16  5
6  33  6
8  34  6
9  35  6

$$$$

