3423
  -OEChem-07051213042D

 47 49  0     0  0  0  0  0  0999 V2000
    5.4641    0.0945    0.0000 O   0  0  0  0  0  0  0  0  0  0  0  0
    6.7654    2.7363    0.0000 O   0  0  0  0  0  0  0  0  0  0  0  0
    5.6065    1.4492    0.0000 O   0  0  0  0  0  0  0  0  0  0  0  0
    8.7788    0.4309    0.0000 N   0  0  0  0  0  0  0  0  0  0  0  0
    7.1962    0.0945    0.0000 C   0  0  0  0  0  0  0  0  0  0  0  0
    8.1097   -0.3122    0.0000 C   0  0  0  0  0  0  0  0  0  0  0  0
    7.3007    1.0891    0.0000 C   0  0  0  0  0  0  0  0  0  0  0  0
    8.2788    1.2970    0.0000 C   0  0  0  0  0  0  0  0  0  0  0  0
    6.3301   -1.4055    0.0000 C   0  0  0  0  0  0  0  0  0  0  0  0
    5.4641   -1.9055    0.0000 C   0  0  0  0  0  0  0  0  0  0  0  0
    6.3301   -0.4055    0.0000 C   0  0  0  0  0  0  0  0  0  0  0  0
    4.5981   -1.4055    0.0000 C   0  0  0  0  0  0  0  0  0  0  0  0
    8.3176   -1.2904    0.0000 C   0  0  0  0  0  0  0  0  0  0  0  0
    3.7320   -1.9055    0.0000 C   0  0  0  0  0  0  0  0  0  0  0  0
    7.1962   -1.9055    0.0000 C   0  0  0  0  0  0  0  0  0  0  0  0
    8.6856    2.2105    0.0000 C   0  0  0  0  0  0  0  0  0  0  0  0
    5.4641   -2.9055    0.0000 C   0  0  0  0  0  0  0  0  0  0  0  0
    6.5575    1.7582    0.0000 C   0  0  0  0  0  0  0  0  0  0  0  0
    7.1962   -2.9055    0.0000 C   0  0  0  0  0  0  0  0  0  0  0  0
    6.3301   -3.4055    0.0000 C   0  0  0  0  0  0  0  0  0  0  0  0
    2.8660   -1.4055    0.0000 C   0  0  0  0  0  0  0  0  0  0  0  0
    3.7320   -2.9055    0.0000 C   0  0  0  0  0  0  0  0  0  0  0  0
    2.0000   -1.9055    0.0000 C   0  0  0  0  0  0  0  0  0  0  0  0
    2.8660   -3.4055    0.0000 C   0  0  0  0  0  0  0  0  0  0  0  0
    2.0000   -2.9055    0.0000 C   0  0  0  0  0  0  0  0  0  0  0  0
    6.0223    3.4055    0.0000 C   0  0  0  0  0  0  0  0  0  0  0  0
    9.3954    0.3661    0.0000 H   0  0  0  0  0  0  0  0  0  0  0  0
    4.9966   -0.9305    0.0000 H   0  0  0  0  0  0  0  0  0  0  0  0
    4.1996   -0.9305    0.0000 H   0  0  0  0  0  0  0  0  0  0  0  0
    7.7112   -1.4192    0.0000 H   0  0  0  0  0  0  0  0  0  0  0  0
    8.4465   -1.8968    0.0000 H   0  0  0  0  0  0  0  0  0  0  0  0
    8.9241   -1.1614    0.0000 H   0  0  0  0  0  0  0  0  0  0  0  0
    7.7331   -1.5955    0.0000 H   0  0  0  0  0  0  0  0  0  0  0  0
    9.2520    1.9583    0.0000 H   0  0  0  0  0  0  0  0  0  0  0  0
    8.9377    2.7769    0.0000 H   0  0  0  0  0  0  0  0  0  0  0  0
    8.1192    2.4627    0.0000 H   0  0  0  0  0  0  0  0  0  0  0  0
    4.9272   -3.2155    0.0000 H   0  0  0  0  0  0  0  0  0  0  0  0
    7.7331   -3.2155    0.0000 H   0  0  0  0  0  0  0  0  0  0  0  0
    6.3301   -4.0255    0.0000 H   0  0  0  0  0  0  0  0  0  0  0  0
    2.8660   -0.7855    0.0000 H   0  0  0  0  0  0  0  0  0  0  0  0
    4.2690   -3.2155    0.0000 H   0  0  0  0  0  0  0  0  0  0  0  0
    1.4631   -1.5955    0.0000 H   0  0  0  0  0  0  0  0  0  0  0  0
    2.8660   -4.0255    0.0000 H   0  0  0  0  0  0  0  0  0  0  0  0
    1.4631   -3.2155    0.0000 H   0  0  0  0  0  0  0  0  0  0  0  0
    6.4372    3.8662    0.0000 H   0  0  0  0  0  0  0  0  0  0  0  0
    5.5616    3.8203    0.0000 H   0  0  0  0  0  0  0  0  0  0  0  0
    5.6074    2.9447    0.0000 H   0  0  0  0  0  0  0  0  0  0  0  0
  1 11  2  0  0  0  0
  2 18  1  0  0  0  0
  2 26  1  0  0  0  0
  3 18  2  0  0  0  0
  4  6  1  0  0  0  0
  4  8  1  0  0  0  0
  4 27  1  0  0  0  0
  5  6  2  0  0  0  0
  5  7  1  0  0  0  0
  5 11  1  0  0  0  0
  6 13  1  0  0  0  0
  7  8  2  0  0  0  0
  7 18  1  0  0  0  0
  8 16  1  0  0  0  0
  9 10  1  0  0  0  0
  9 11  1  0  0  0  0
  9 15  2  0  0  0  0
 10 12  1  0  0  0  0
 10 17  2  0  0  0  0
 12 14  1  0  0  0  0
 12 28  1  0  0  0  0
 12 29  1  0  0  0  0
 13 30  1  0  0  0  0
 13 31  1  0  0  0  0
 13 32  1  0  0  0  0
 14 21  2  0  0  0  0
 14 22  1  0  0  0  0
 15 19  1  0  0  0  0
 15 33  1  0  0  0  0
 16 34  1  0  0  0  0
 16 35  1  0  0  0  0
 16 36  1  0  0  0  0
 17 20  1  0  0  0  0
 17 37  1  0  0  0  0
 19 20  2  0  0  0  0
 19 38  1  0  0  0  0
 20 39  1  0  0  0  0
 21 23  1  0  0  0  0
 21 40  1  0  0  0  0
 22 24  2  0  0  0  0
 22 41  1  0  0  0  0
 23 25  2  0  0  0  0
 23 42  1  0  0  0  0
 24 25  1  0  0  0  0
 24 43  1  0  0  0  0
 25 44  1  0  0  0  0
 26 45  1  0  0  0  0
 26 46  1  0  0  0  0
 26 47  1  0  0  0  0
M  END
> <PUBCHEM_COMPOUND_CID>
3423

> <PUBCHEM_COMPOUND_CANONICALIZED>
1

> <PUBCHEM_CACTVS_COMPLEXITY>
500

> <PUBCHEM_CACTVS_HBOND_ACCEPTOR>
3

> <PUBCHEM_CACTVS_HBOND_DONOR>
1

> <PUBCHEM_CACTVS_ROTATABLE_BOND>
6

> <PUBCHEM_CACTVS_SUBSKEYS>
AAADceB6MAAAAAAAAAAAAAAAAAAAAWAAAAAwYAAAAAAAAAAB0AAAHgAQAAAADAyBngIyiJLJlACoA6TyTACCgCAlACAImSEwTNgIJnrAtZmEMYhm0AHI6ce/yPCOgAAAAAAQAAAAAAAAACAAAAAAAAAAAA==

> <PUBCHEM_IUPAC_OPENEYE_NAME>
methyl 4-(2-benzylbenzoyl)-2,5-dimethyl-1H-pyrrole-3-carboxylate

> <PUBCHEM_IUPAC_CAS_NAME>
2,5-dimethyl-4-[oxo-[2-(phenylmethyl)phenyl]methyl]-1H-pyrrole-3-carboxylic acid methyl ester

> <PUBCHEM_IUPAC_NAME>
methyl 4-(2-benzylbenzoyl)-2,5-dimethyl-1H-pyrrole-3-carboxylate

> <PUBCHEM_IUPAC_SYSTEMATIC_NAME>
methyl 2,5-dimethyl-4-[2-(phenylmethyl)phenyl]carbonyl-1H-pyrrole-3-carboxylate

> <PUBCHEM_IUPAC_TRADITIONAL_NAME>
4-(2-benzylbenzoyl)-2,5-dimethyl-1H-pyrrole-3-carboxylic acid methyl ester

> <PUBCHEM_IUPAC_INCHI>
InChI=1S/C22H21NO3/c1-14-19(20(15(2)23-14)22(25)26-3)21(24)18-12-8-7-11-17(18)13-16-9-5-4-6-10-16/h4-12,23H,13H2,1-3H3

> <PUBCHEM_IUPAC_INCHIKEY>
MDMWHKZANMNXTF-UHFFFAOYSA-N

> <PUBCHEM_XLOGP3_AA>
4.6

> <PUBCHEM_EXACT_MASS>
347.152144

> <PUBCHEM_MOLECULAR_FORMULA>
C22H21NO3

> <PUBCHEM_MOLECULAR_WEIGHT>
347.40704

> <PUBCHEM_OPENEYE_CAN_SMILES>
CC1=C(C(=C(N1)C)C(=O)OC)C(=O)C2=CC=CC=C2CC3=CC=CC=C3

> <PUBCHEM_OPENEYE_ISO_SMILES>
CC1=C(C(=C(N1)C)C(=O)OC)C(=O)C2=CC=CC=C2CC3=CC=CC=C3

> <PUBCHEM_CACTVS_TPSA>
59.2

> <PUBCHEM_MONOISOTOPIC_WEIGHT>
347.152144

> <PUBCHEM_TOTAL_CHARGE>
0

> <PUBCHEM_HEAVY_ATOM_COUNT>
26

> <PUBCHEM_ATOM_DEF_STEREO_COUNT>
0

> <PUBCHEM_ATOM_UDEF_STEREO_COUNT>
0

> <PUBCHEM_BOND_DEF_STEREO_COUNT>
0

> <PUBCHEM_BOND_UDEF_STEREO_COUNT>
0

> <PUBCHEM_ISOTOPIC_ATOM_COUNT>
0

> <PUBCHEM_COMPONENT_COUNT>
1

> <PUBCHEM_CACTVS_TAUTO_COUNT>
11

> <PUBCHEM_COORDINATE_TYPE>
1
5
255

> <PUBCHEM_BONDANNOTATIONS>
10  17  8
14  21  8
14  22  8
15  19  8
17  20  8
19  20  8
21  23  8
22  24  8
23  25  8
24  25  8
4  6  8
4  8  8
5  6  8
5  7  8
7  8  8
9  10  8
9  15  8

$$$$

