5281472
  -OEChem-07051212572D

 49 52  0     1  0  0  0  0  0999 V2000
    6.3299    0.6609    0.0000 O   0  0  0  0  0  0  0  0  0  0  0  0
    8.7808    0.0753    0.0000 O   0  0  0  0  0  0  0  0  0  0  0  0
    7.2443    1.7056    0.0000 O   0  0  0  0  0  0  0  0  0  0  0  0
    3.7320    0.1604    0.0000 O   0  0  0  0  0  0  0  0  0  0  0  0
    5.2549   -2.8114    0.0000 O   0  0  0  0  0  0  0  0  0  0  0  0
    3.7662   -3.7804    0.0000 O   0  0  0  0  0  0  0  0  0  0  0  0
    4.5981    1.6604    0.0000 O   0  0  0  0  0  0  0  0  0  0  0  0
    2.0000    3.1604    0.0000 O   0  0  0  0  0  0  0  0  0  0  0  0
    6.3301   -0.3396    0.0000 C   0  0  1  0  0  0  0  0  0  0  0  0
    7.1962    0.1604    0.0000 C   0  0  1  0  0  0  0  0  0  0  0  0
    5.4641    0.1604    0.0000 C   0  0  0  0  0  0  0  0  0  0  0  0
    7.4113    0.7197    0.0000 C   0  0  1  0  0  0  0  0  0  0  0  0
    8.0622   -0.3396    0.0000 C   0  0  0  0  0  0  0  0  0  0  0  0
    4.5981   -0.3396    0.0000 C   0  0  1  0  0  0  0  0  0  0  0  0
    4.5981   -1.3396    0.0000 C   0  0  2  0  0  0  0  0  0  0  0  0
    8.0622   -1.3396    0.0000 C   0  0  0  0  0  0  0  0  0  0  0  0
    5.4641   -1.8396    0.0000 C   0  0  1  0  0  0  0  0  0  0  0  0
    7.1962   -1.8396    0.0000 C   0  0  0  0  0  0  0  0  0  0  0  0
    8.6540   -1.4329    0.0000 C   0  0  0  0  0  0  0  0  0  0  0  0
    6.3301   -1.3396    0.0000 C   0  0  0  0  0  0  0  0  0  0  0  0
    3.8611   -2.0066    0.0000 C   0  0  0  0  0  0  0  0  0  0  0  0
    4.2662   -2.9144    0.0000 C   0  0  0  0  0  0  0  0  0  0  0  0
    2.8826   -1.8004    0.0000 C   0  0  0  0  0  0  0  0  0  0  0  0
    3.7320    1.1604    0.0000 C   0  0  0  0  0  0  0  0  0  0  0  0
    2.8660    1.6604    0.0000 C   0  0  0  0  0  0  0  0  0  0  0  0
    2.8660    2.6604    0.0000 C   0  0  0  0  0  0  0  0  0  0  0  0
    2.0000    1.1604    0.0000 C   0  0  0  0  0  0  0  0  0  0  0  0
    8.0332    0.3080    0.0000 H   0  0  0  0  0  0  0  0  0  0  0  0
    5.8626    0.6354    0.0000 H   0  0  0  0  0  0  0  0  0  0  0  0
    5.0656    0.6354    0.0000 H   0  0  0  0  0  0  0  0  0  0  0  0
    6.8216    0.9111    0.0000 H   0  0  0  0  0  0  0  0  0  0  0  0
    8.6728   -0.4472    0.0000 H   0  0  0  0  0  0  0  0  0  0  0  0
    8.2742    0.2431    0.0000 H   0  0  0  0  0  0  0  0  0  0  0  0
    4.5981    0.2804    0.0000 H   0  0  0  0  0  0  0  0  0  0  0  0
    3.8620   -0.9146    0.0000 H   0  0  0  0  0  0  0  0  0  0  0  0
    8.2742   -1.9222    0.0000 H   0  0  0  0  0  0  0  0  0  0  0  0
    8.6728   -1.2319    0.0000 H   0  0  0  0  0  0  0  0  0  0  0  0
    6.2002   -2.2646    0.0000 H   0  0  0  0  0  0  0  0  0  0  0  0
    8.7488   -2.0456    0.0000 H   0  0  0  0  0  0  0  0  0  0  0  0
    9.2737   -1.4113    0.0000 H   0  0  0  0  0  0  0  0  0  0  0  0
    6.7287   -0.8646    0.0000 H   0  0  0  0  0  0  0  0  0  0  0  0
    7.7220    2.1009    0.0000 H   0  0  0  0  0  0  0  0  0  0  0  0
    2.6899   -1.2111    0.0000 H   0  0  0  0  0  0  0  0  0  0  0  0
    2.4685   -2.2619    0.0000 H   0  0  0  0  0  0  0  0  0  0  0  0
    3.4766    2.5528    0.0000 H   0  0  0  0  0  0  0  0  0  0  0  0
    3.0781    3.2431    0.0000 H   0  0  0  0  0  0  0  0  0  0  0  0
    1.4631    1.4704    0.0000 H   0  0  0  0  0  0  0  0  0  0  0  0
    2.0000    0.5404    0.0000 H   0  0  0  0  0  0  0  0  0  0  0  0
    2.0000    3.7804    0.0000 H   0  0  0  0  0  0  0  0  0  0  0  0
  9  1  1  1  0  0  0
  1 10  1  0  0  0  0
  2 12  1  0  0  0  0
  2 19  1  0  0  0  0
 12  3  1  6  0  0  0
  3 42  1  0  0  0  0
 14  4  1  1  0  0  0
  4 24  1  0  0  0  0
  5 17  1  0  0  0  0
  5 22  1  0  0  0  0
  6 22  2  0  0  0  0
  7 24  2  0  0  0  0
  8 26  1  0  0  0  0
  8 49  1  0  0  0  0
  9 10  1  0  0  0  0
  9 11  1  0  0  0  0
  9 12  1  0  0  0  0
 10 13  1  0  0  0  0
 10 28  1  1  0  0  0
 11 14  1  0  0  0  0
 11 29  1  0  0  0  0
 11 30  1  0  0  0  0
 12 31  1  0  0  0  0
 13 16  1  0  0  0  0
 13 32  1  0  0  0  0
 13 33  1  0  0  0  0
 14 15  1  0  0  0  0
 14 34  1  0  0  0  0
 15 17  1  0  0  0  0
 15 21  1  0  0  0  0
 15 35  1  1  0  0  0
 16 18  1  0  0  0  0
 16 36  1  0  0  0  0
 16 37  1  0  0  0  0
 17 20  1  0  0  0  0
 17 38  1  6  0  0  0
 18 19  1  0  0  0  0
 18 20  2  0  0  0  0
 19 39  1  0  0  0  0
 19 40  1  0  0  0  0
 20 41  1  0  0  0  0
 21 22  1  0  0  0  0
 21 23  2  0  0  0  0
 23 43  1  0  0  0  0
 23 44  1  0  0  0  0
 24 25  1  0  0  0  0
 25 26  1  0  0  0  0
 25 27  2  0  0  0  0
 26 45  1  0  0  0  0
 26 46  1  0  0  0  0
 27 47  1  0  0  0  0
 27 48  1  0  0  0  0
M  END
> <PUBCHEM_COMPOUND_CID>
5281472

> <PUBCHEM_COMPOUND_CANONICALIZED>
1

> <PUBCHEM_CACTVS_COMPLEXITY>
740

> <PUBCHEM_CACTVS_HBOND_ACCEPTOR>
8

> <PUBCHEM_CACTVS_HBOND_DONOR>
2

> <PUBCHEM_CACTVS_ROTATABLE_BOND>
4

> <PUBCHEM_CACTVS_SUBSKEYS>
AAADceB4PAAAAAAAAAAAAAAAEgAAASAAAAAAAAAAAAASAEiAAAAAGgAACAAADVSwgAMACAAABgCIAiDSCAAAAAAgAAAACAEAAEgRFBYAIQACUAAF4AAPMIPK6PyOAAAAAAAAAAAAAAAAAAAAAAAAAAAAAA==

> <PUBCHEM_IUPAC_INCHI>
InChI=1S/C19H22O8/c1-9(7-20)16(21)26-13-6-19-14(27-19)4-3-11(8-24-18(19)23)5-12-15(13)10(2)17(22)25-12/h5,12-15,18,20,23H,1-4,6-8H2/b11-5-/t12-,13+,14-,15+,18-,19-/m1/s1

> <PUBCHEM_IUPAC_INCHIKEY>
VPZCNCFYAPSUAL-LQLHESBKSA-N

> <PUBCHEM_XLOGP3_AA>
-0.3

> <PUBCHEM_EXACT_MASS>
378.131468

> <PUBCHEM_MOLECULAR_FORMULA>
C19H22O8

> <PUBCHEM_MOLECULAR_WEIGHT>
378.37318

> <PUBCHEM_OPENEYE_CAN_SMILES>
C=C1C2C(CC34C(O3)CCC(=CC2OC1=O)COC4O)OC(=O)C(=C)CO

> <PUBCHEM_OPENEYE_ISO_SMILES>
C=C1[C@@H]2[C@H](C[C@]34[C@H](O3)CC/C(=C/[C@H]2OC1=O)/CO[C@H]4O)OC(=O)C(=C)CO

> <PUBCHEM_CACTVS_TPSA>
115

> <PUBCHEM_MONOISOTOPIC_WEIGHT>
378.131468

> <PUBCHEM_TOTAL_CHARGE>
0

> <PUBCHEM_HEAVY_ATOM_COUNT>
27

> <PUBCHEM_ATOM_DEF_STEREO_COUNT>
6

> <PUBCHEM_ATOM_UDEF_STEREO_COUNT>
0

> <PUBCHEM_BOND_DEF_STEREO_COUNT>
1

> <PUBCHEM_BOND_UDEF_STEREO_COUNT>
0

> <PUBCHEM_ISOTOPIC_ATOM_COUNT>
0

> <PUBCHEM_COMPONENT_COUNT>
1

> <PUBCHEM_CACTVS_TAUTO_COUNT>
1

> <PUBCHEM_COORDINATE_TYPE>
1
5
255

> <PUBCHEM_BONDANNOTATIONS>
9  1  5
10  28  5
15  35  5
17  38  6
12  3  6
14  4  5

$$$$

