   Color/Form
        Hemihydrate, fine needles from methanol and water
   from [1]HSDB

   Melting Point
        141-146 deg C
   from [2]HSDB

   Octanol/Water Partition Coefficient
        log Kow = 3.67
   from [3]HSDB

   Solubilities

     * Solubility: 1 part in 6 of ethanol, 1 in 4 of ether, 1 in 5 of
       acetone, 1 in 4 of dioxane, and 1 in 20 of chloroform. Soluble in
       vegetable oils, and in solutions of fixed alkali hydroxides.
     * In water, 11.3 mg/l @ 27 deg C.

   from [4]HSDB

   Spectral Properties
        Optical rotation at 24 deg C for sodium line: 3.5 deg +/- 0.5 deg
   (c = 2 in dioxane); -29.5 deg +/- 1 deg (c = 2 in pyridine). UV max
   (ethanol): 281 nm (molar extinction coefficient; dielectric constant =
   2040 +/- 60 g-moles/l)
   from [5]HSDB

   Other Chemical/Physical Properties

     * Hemihydrate
     * Dehydrates after melting and further heating, mp 182-184 deg C.
     * Crystals, mp 152-153 deg C. Optical rotation at 20 deg C for sodium
       line: +3 deg (chloroform). /3-Acetate/
     * Needles from methanol, mp 200-202 deg. /3-Benzoate/

   from [6]HSDB

   Computed Properties
   Molecular Weight                  296.40336 [g/mol]
   Molecular Formula                 C[20]H[24]O[2]
   XLogP3                            3.7
   H-Bond Donor                      2
   H-Bond Acceptor                   2
   Rotatable Bond Count              1
   Tautomer Count                    9
   Exact Mass                        296.17763
   MonoIsotopic Mass                 296.17763
   Topological Polar Surface Area    40.5
   Heavy Atom Count                  22
   Formal Charge                     0
   Complexity                        505
   Isotope Atom Count                0
   Defined Atom Stereocenter Count   5
   Undefined Atom Stereocenter Count 0
   Defined Bond Stereocenter Count   0
   Undefined Bond Stereocenter Count 0
   Covalently-Bonded Unit Count      1
   Feature 3D Acceptor Count         1
   Feature 3D Donor Count            2
   Feature 3D Hydrophobe Count       1
   Feature 3D Ring Count             4
   Effective Rotor Count             1.4
   Conformer Sampling RMSD           0.6
   CID Conformer Count               [7]1

References

   1. http://toxnet.nlm.nih.gov/cgi-bin/sis/search/r?dbs+hsdb:@term+@rn+@rel+57-63-6
   2. http://toxnet.nlm.nih.gov/cgi-bin/sis/search/r?dbs+hsdb:@term+@rn+@rel+57-63-6
   3. http://toxnet.nlm.nih.gov/cgi-bin/sis/search/r?dbs+hsdb:@term+@rn+@rel+57-63-6
   4. http://toxnet.nlm.nih.gov/cgi-bin/sis/search/r?dbs+hsdb:@term+@rn+@rel+57-63-6
   5. http://toxnet.nlm.nih.gov/cgi-bin/sis/search/r?dbs+hsdb:@term+@rn+@rel+57-63-6
   6. http://toxnet.nlm.nih.gov/cgi-bin/sis/search/r?dbs+hsdb:@term+@rn+@rel+57-63-6
   7. http://pubchem.ncbi.nlm.nih.gov/vw3d/vw3d.cgi?cid=5991
