6407
  -OEChem-07051213062D

  7  6  0     0  0  0  0  0  0999 V2000
    2.0000   -0.6270    0.0000 Cl  0  0  0  0  0  0  0  0  0  0  0  0
    2.3660    0.7390    0.0000 Cl  0  0  0  0  0  0  0  0  0  0  0  0
    3.3660   -0.9930    0.0000 Cl  0  0  0  0  0  0  0  0  0  0  0  0
    4.5981   -0.1270    0.0000 O   0  0  0  0  0  0  0  0  0  0  0  0
    2.8660   -0.1270    0.0000 C   0  0  0  0  0  0  0  0  0  0  0  0
    3.7320    0.3730    0.0000 C   0  0  0  0  0  0  0  0  0  0  0  0
    3.7320    0.9930    0.0000 H   0  0  0  0  0  0  0  0  0  0  0  0
  1  5  1  0  0  0  0
  2  5  1  0  0  0  0
  3  5  1  0  0  0  0
  4  6  2  0  0  0  0
  5  6  1  0  0  0  0
  6  7  1  0  0  0  0
M  END
> <PUBCHEM_COMPOUND_CID>
6407

> <PUBCHEM_COMPOUND_CANONICALIZED>
1

> <PUBCHEM_CACTVS_COMPLEXITY>
54.3

> <PUBCHEM_CACTVS_HBOND_ACCEPTOR>
1

> <PUBCHEM_CACTVS_HBOND_DONOR>
0

> <PUBCHEM_CACTVS_ROTATABLE_BOND>
0

> <PUBCHEM_CACTVS_SUBSKEYS>
AAADcQBAIAAGAAAAAAAAAAAAAAAAAAAAAAAAAAAAAAAAAAAAAAAAGgIAAAAAAAKggIIAAAAAAAAIAAgQgAAAAAAAAAAAAAAAAABAAAAAAAAAAAAAAAAAAAAAAAAAAAAAAAAAAAAAAAAAAAAAAAAAAAAAAA==

> <PUBCHEM_IUPAC_OPENEYE_NAME>
2,2,2-trichloroacetaldehyde

> <PUBCHEM_IUPAC_CAS_NAME>
2,2,2-trichloroacetaldehyde

> <PUBCHEM_IUPAC_NAME>
2,2,2-trichloroacetaldehyde

> <PUBCHEM_IUPAC_SYSTEMATIC_NAME>
2,2,2-tris(chloranyl)ethanal

> <PUBCHEM_IUPAC_TRADITIONAL_NAME>
2,2,2-trichloroacetaldehyde

> <PUBCHEM_IUPAC_INCHI>
InChI=1S/C2HCl3O/c3-2(4,5)1-6/h1H

> <PUBCHEM_IUPAC_INCHIKEY>
HFFLGKNGCAIQMO-UHFFFAOYSA-N

> <PUBCHEM_XLOGP3_AA>
1.6

> <PUBCHEM_EXACT_MASS>
145.909298

> <PUBCHEM_MOLECULAR_FORMULA>
C2HCl3O

> <PUBCHEM_MOLECULAR_WEIGHT>
147.38774

> <PUBCHEM_OPENEYE_CAN_SMILES>
C(=O)C(Cl)(Cl)Cl

> <PUBCHEM_OPENEYE_ISO_SMILES>
C(=O)C(Cl)(Cl)Cl

> <PUBCHEM_CACTVS_TPSA>
17.1

> <PUBCHEM_MONOISOTOPIC_WEIGHT>
145.909298

> <PUBCHEM_TOTAL_CHARGE>
0

> <PUBCHEM_HEAVY_ATOM_COUNT>
6

> <PUBCHEM_ATOM_DEF_STEREO_COUNT>
0

> <PUBCHEM_ATOM_UDEF_STEREO_COUNT>
0

> <PUBCHEM_BOND_DEF_STEREO_COUNT>
0

> <PUBCHEM_BOND_UDEF_STEREO_COUNT>
0

> <PUBCHEM_ISOTOPIC_ATOM_COUNT>
0

> <PUBCHEM_COMPONENT_COUNT>
1

> <PUBCHEM_CACTVS_TAUTO_COUNT>
1

> <PUBCHEM_COORDINATE_TYPE>
1
5
255

$$$$

