   Color/Form
        Off-white powder
   from [1]HSDB

   Melting Point
        191 deg C
   from [2]HSDB

   Density/Specific Gravity
        1.03 (20 deg C, pycrometer method)
   from [3]HSDB

   Octanol/Water Partition Coefficient
        log Kow= 4.25 (pH 7)
   from [4]HSDB

   Solubilities

     * Slightly soluble in organic solvents
     * In water, 0.83 mg/l @ 25 deg C

   from [5]HSDB

   Vapor Pressure
        2.25X10-8 mm Hg @ 25 deg C
   from [6]HSDB

   Computed Properties
   Molecular Weight                  352.46992 [g/mol]
   Molecular Formula                 C[22]H[28]N[2]O[2]
   XLogP3                            3.9
   H-Bond Donor                      1
   H-Bond Acceptor                   2
   Rotatable Bond Count              4
   Tautomer Count                    5
   Exact Mass                        352.215078
   MonoIsotopic Mass                 352.215078
   Topological Polar Surface Area    49.4
   Heavy Atom Count                  26
   Formal Charge                     0
   Complexity                        479
   Isotope Atom Count                0
   Defined Atom Stereocenter Count   0
   Undefined Atom Stereocenter Count 0
   Defined Bond Stereocenter Count   0
   Undefined Bond Stereocenter Count 0
   Covalently-Bonded Unit Count      1
   Feature 3D Acceptor Count         2
   Feature 3D Donor Count            1
   Feature 3D Hydrophobe Count       2
   Feature 3D Ring Count             2
   Effective Rotor Count             7
   Conformer Sampling RMSD           0.8
   CID Conformer Count               [7]20

References

   1. http://toxnet.nlm.nih.gov/cgi-bin/sis/search/r?dbs+hsdb:@term+@rn+@rel+112410-23-8
   2. http://toxnet.nlm.nih.gov/cgi-bin/sis/search/r?dbs+hsdb:@term+@rn+@rel+112410-23-8
   3. http://toxnet.nlm.nih.gov/cgi-bin/sis/search/r?dbs+hsdb:@term+@rn+@rel+112410-23-8
   4. http://toxnet.nlm.nih.gov/cgi-bin/sis/search/r?dbs+hsdb:@term+@rn+@rel+112410-23-8
   5. http://toxnet.nlm.nih.gov/cgi-bin/sis/search/r?dbs+hsdb:@term+@rn+@rel+112410-23-8
   6. http://toxnet.nlm.nih.gov/cgi-bin/sis/search/r?dbs+hsdb:@term+@rn+@rel+112410-23-8
   7. http://pubchem.ncbi.nlm.nih.gov/vw3d/vw3d.cgi?cid=91773
