189453
  -OEChem-07051212562D

 64 66  0     0  0  0  0  0  0999 V2000
    9.3900   -1.6080    0.0000 O   0  0  0  0  0  0  0  0  0  0  0  0
    7.6300    1.4266    0.0000 O   0  0  0  0  0  0  0  0  0  0  0  0
    5.8980   -1.5734    0.0000 O   0  0  0  0  0  0  0  0  0  0  0  0
    6.5820    2.3060    0.0000 O   0  0  0  0  0  0  0  0  0  0  0  0
    8.4960   -3.0734    0.0000 O   0  0  0  0  0  0  0  0  0  0  0  0
    3.9284    0.0793    0.0000 O   0  0  0  0  0  0  0  0  0  0  0  0
    3.3268    3.4908    0.0000 O   0  0  0  0  0  0  0  0  0  0  0  0
    2.3008    0.6717    0.0000 O   0  0  0  0  0  0  0  0  0  0  0  0
   10.2961   -1.0942    0.0000 C   0  0  0  0  0  0  0  0  0  0  0  0
    8.4960   -1.0734    0.0000 C   0  0  0  0  0  0  0  0  0  0  0  0
    8.4960   -0.0734    0.0000 C   0  0  0  0  0  0  0  0  0  0  0  0
    6.7640   -0.0734    0.0000 C   0  0  0  0  0  0  0  0  0  0  0  0
    7.6300   -1.5734    0.0000 C   0  0  0  0  0  0  0  0  0  0  0  0
    5.8980    0.4266    0.0000 C   0  0  0  0  0  0  0  0  0  0  0  0
    7.6300    0.4266    0.0000 C   0  0  0  0  0  0  0  0  0  0  0  0
    6.7640   -1.0734    0.0000 C   0  0  0  0  0  0  0  0  0  0  0  0
   10.2961   -0.0526    0.0000 C   0  0  0  0  0  0  0  0  0  0  0  0
    9.3900    0.4613    0.0000 C   0  0  0  0  0  0  0  0  0  0  0  0
    5.2552    1.1926    0.0000 C   0  0  0  0  0  0  0  0  0  0  0  0
   11.2961   -1.0981    0.0000 C   0  0  0  0  0  0  0  0  0  0  0  0
   10.7927   -1.9622    0.0000 C   0  0  0  0  0  0  0  0  0  0  0  0
    7.6300   -2.5734    0.0000 C   0  0  0  0  0  0  0  0  0  0  0  0
    6.7640   -3.0734    0.0000 C   0  0  0  0  0  0  0  0  0  0  0  0
    5.5972    2.1323    0.0000 C   0  0  0  0  0  0  0  0  0  0  0  0
    4.2704    1.0190    0.0000 C   0  0  0  0  0  0  0  0  0  0  0  0
    4.9544    2.8984    0.0000 C   0  0  0  0  0  0  0  0  0  0  0  0
    3.6276    1.7850    0.0000 C   0  0  0  0  0  0  0  0  0  0  0  0
    6.7640   -4.0734    0.0000 C   0  0  0  0  0  0  0  0  0  0  0  0
    5.8980   -2.5734    0.0000 C   0  0  0  0  0  0  0  0  0  0  0  0
    3.9696    2.7247    0.0000 C   0  0  0  0  0  0  0  0  0  0  0  0
    5.2964    3.8381    0.0000 C   0  0  0  0  0  0  0  0  0  0  0  0
    2.6428    1.6114    0.0000 C   0  0  0  0  0  0  0  0  0  0  0  0
    2.0000    2.3774    0.0000 C   0  0  0  0  0  0  0  0  0  0  0  0
    6.9240    3.2457    0.0000 C   0  0  0  0  0  0  0  0  0  0  0  0
    5.3040    0.2488    0.0000 H   0  0  0  0  0  0  0  0  0  0  0  0
    6.2965    0.9016    0.0000 H   0  0  0  0  0  0  0  0  0  0  0  0
   10.8318    0.2595    0.0000 H   0  0  0  0  0  0  0  0  0  0  0  0
    9.3828    1.0812    0.0000 H   0  0  0  0  0  0  0  0  0  0  0  0
   10.2546   -2.2701    0.0000 H   0  0  0  0  0  0  0  0  0  0  0  0
   11.1006   -2.5003    0.0000 H   0  0  0  0  0  0  0  0  0  0  0  0
   11.3308   -1.6542    0.0000 H   0  0  0  0  0  0  0  0  0  0  0  0
   11.2937   -1.7181    0.0000 H   0  0  0  0  0  0  0  0  0  0  0  0
   11.9161   -1.1004    0.0000 H   0  0  0  0  0  0  0  0  0  0  0  0
   11.2984   -0.4781    0.0000 H   0  0  0  0  0  0  0  0  0  0  0  0
    6.7640   -2.4534    0.0000 H   0  0  0  0  0  0  0  0  0  0  0  0
    6.1440   -4.0734    0.0000 H   0  0  0  0  0  0  0  0  0  0  0  0
    6.7640   -4.6934    0.0000 H   0  0  0  0  0  0  0  0  0  0  0  0
    7.3840   -4.0734    0.0000 H   0  0  0  0  0  0  0  0  0  0  0  0
    6.2080   -2.0365    0.0000 H   0  0  0  0  0  0  0  0  0  0  0  0
    5.3610   -2.2634    0.0000 H   0  0  0  0  0  0  0  0  0  0  0  0
    5.5880   -3.1103    0.0000 H   0  0  0  0  0  0  0  0  0  0  0  0
    8.1670    1.7366    0.0000 H   0  0  0  0  0  0  0  0  0  0  0  0
    5.3610   -1.2634    0.0000 H   0  0  0  0  0  0  0  0  0  0  0  0
    5.8790    3.6260    0.0000 H   0  0  0  0  0  0  0  0  0  0  0  0
    5.5085    4.4207    0.0000 H   0  0  0  0  0  0  0  0  0  0  0  0
    4.7138    4.0501    0.0000 H   0  0  0  0  0  0  0  0  0  0  0  0
    3.3178   -0.0284    0.0000 H   0  0  0  0  0  0  0  0  0  0  0  0
    3.5389    4.0734    0.0000 H   0  0  0  0  0  0  0  0  0  0  0  0
    2.4750    2.7760    0.0000 H   0  0  0  0  0  0  0  0  0  0  0  0
    1.6015    2.8524    0.0000 H   0  0  0  0  0  0  0  0  0  0  0  0
    1.5250    1.9789    0.0000 H   0  0  0  0  0  0  0  0  0  0  0  0
    7.5066    3.0336    0.0000 H   0  0  0  0  0  0  0  0  0  0  0  0
    7.1361    3.8283    0.0000 H   0  0  0  0  0  0  0  0  0  0  0  0
    6.3414    3.4577    0.0000 H   0  0  0  0  0  0  0  0  0  0  0  0
  1  9  1  0  0  0  0
  1 10  1  0  0  0  0
  2 15  1  0  0  0  0
  2 52  1  0  0  0  0
  3 16  1  0  0  0  0
  3 53  1  0  0  0  0
  4 24  1  0  0  0  0
  4 34  1  0  0  0  0
  5 22  2  0  0  0  0
  6 25  1  0  0  0  0
  6 57  1  0  0  0  0
  7 30  1  0  0  0  0
  7 58  1  0  0  0  0
  8 32  2  0  0  0  0
  9 17  1  0  0  0  0
  9 20  1  0  0  0  0
  9 21  1  0  0  0  0
 10 11  1  0  0  0  0
 10 13  2  0  0  0  0
 11 15  2  0  0  0  0
 11 18  1  0  0  0  0
 12 14  1  0  0  0  0
 12 15  1  0  0  0  0
 12 16  2  0  0  0  0
 13 16  1  0  0  0  0
 13 22  1  0  0  0  0
 14 19  1  0  0  0  0
 14 35  1  0  0  0  0
 14 36  1  0  0  0  0
 17 18  2  0  0  0  0
 17 37  1  0  0  0  0
 18 38  1  0  0  0  0
 19 24  2  0  0  0  0
 19 25  1  0  0  0  0
 20 42  1  0  0  0  0
 20 43  1  0  0  0  0
 20 44  1  0  0  0  0
 21 39  1  0  0  0  0
 21 40  1  0  0  0  0
 21 41  1  0  0  0  0
 22 23  1  0  0  0  0
 23 28  1  0  0  0  0
 23 29  1  0  0  0  0
 23 45  1  0  0  0  0
 24 26  1  0  0  0  0
 25 27  2  0  0  0  0
 26 30  2  0  0  0  0
 26 31  1  0  0  0  0
 27 30  1  0  0  0  0
 27 32  1  0  0  0  0
 28 46  1  0  0  0  0
 28 47  1  0  0  0  0
 28 48  1  0  0  0  0
 29 49  1  0  0  0  0
 29 50  1  0  0  0  0
 29 51  1  0  0  0  0
 31 54  1  0  0  0  0
 31 55  1  0  0  0  0
 31 56  1  0  0  0  0
 32 33  1  0  0  0  0
 33 59  1  0  0  0  0
 33 60  1  0  0  0  0
 33 61  1  0  0  0  0
 34 62  1  0  0  0  0
 34 63  1  0  0  0  0
 34 64  1  0  0  0  0
M  END
> <PUBCHEM_COMPOUND_CID>
189453

> <PUBCHEM_COMPOUND_CANONICALIZED>
1

> <PUBCHEM_CACTVS_COMPLEXITY>
792

> <PUBCHEM_CACTVS_HBOND_ACCEPTOR>
8

> <PUBCHEM_CACTVS_HBOND_DONOR>
4

> <PUBCHEM_CACTVS_ROTATABLE_BOND>
6

> <PUBCHEM_CACTVS_SUBSKEYS>
AAADceB4PAAAAAAAAAAAAAAAAAAAAAAAAAAwYIAAAAAAAACBQAAAGgAACAAADUSAmAICBoAABgCIAqBSAAACCAAkIAAIiAEECMgMJzaGNBqCeWCl4BUIuQeI7OzOIAACCAAIAABAAAQQABAAAAAAAAAAAA==

> <PUBCHEM_IUPAC_OPENEYE_NAME>
1-[6-[(3-acetyl-2,4-dihydroxy-6-methoxy-5-methyl-phenyl)methyl]-5,7-dihydroxy-2,2-dimethyl-chromen-8-yl]-2-methyl-propan-1-one

> <PUBCHEM_IUPAC_CAS_NAME>
1-[6-[(3-acetyl-2,4-dihydroxy-6-methoxy-5-methylphenyl)methyl]-5,7-dihydroxy-2,2-dimethyl-1-benzopyran-8-yl]-2-methyl-1-propanone

> <PUBCHEM_IUPAC_NAME>
1-[6-[(3-acetyl-2,4-dihydroxy-6-methoxy-5-methylphenyl)methyl]-5,7-dihydroxy-2,2-dimethylchromen-8-yl]-2-methylpropan-1-one

> <PUBCHEM_IUPAC_SYSTEMATIC_NAME>
1-[6-[[5-ethanoyl-2-methoxy-3-methyl-4,6-bis(oxidanyl)phenyl]methyl]-2,2-dimethyl-5,7-bis(oxidanyl)chromen-8-yl]-2-methyl-propan-1-one

> <PUBCHEM_IUPAC_TRADITIONAL_NAME>
1-[6-(3-acetyl-2,4-dihydroxy-6-methoxy-5-methyl-benzyl)-5,7-dihydroxy-2,2-dimethyl-chromen-8-yl]-2-methyl-propan-1-one

> <PUBCHEM_IUPAC_INCHI>
InChI=1S/C26H30O8/c1-11(2)19(28)18-22(31)15(21(30)14-8-9-26(5,6)34-25(14)18)10-16-23(32)17(13(4)27)20(29)12(3)24(16)33-7/h8-9,11,29-32H,10H2,1-7H3

> <PUBCHEM_IUPAC_INCHIKEY>
BYAZINICHUCWIL-UHFFFAOYSA-N

> <PUBCHEM_XLOGP3_AA>
5.2

> <PUBCHEM_EXACT_MASS>
470.194068

> <PUBCHEM_MOLECULAR_FORMULA>
C26H30O8

> <PUBCHEM_MOLECULAR_WEIGHT>
470.5116

> <PUBCHEM_OPENEYE_CAN_SMILES>
CC1=C(C(=C(C(=C1O)C(=O)C)O)CC2=C(C3=C(C(=C2O)C(=O)C(C)C)OC(C=C3)(C)C)O)OC

> <PUBCHEM_OPENEYE_ISO_SMILES>
CC1=C(C(=C(C(=C1O)C(=O)C)O)CC2=C(C3=C(C(=C2O)C(=O)C(C)C)OC(C=C3)(C)C)O)OC

> <PUBCHEM_CACTVS_TPSA>
134

> <PUBCHEM_MONOISOTOPIC_WEIGHT>
470.194068

> <PUBCHEM_TOTAL_CHARGE>
0

> <PUBCHEM_HEAVY_ATOM_COUNT>
34

> <PUBCHEM_ATOM_DEF_STEREO_COUNT>
0

> <PUBCHEM_ATOM_UDEF_STEREO_COUNT>
0

> <PUBCHEM_BOND_DEF_STEREO_COUNT>
0

> <PUBCHEM_BOND_UDEF_STEREO_COUNT>
0

> <PUBCHEM_ISOTOPIC_ATOM_COUNT>
0

> <PUBCHEM_COMPONENT_COUNT>
1

> <PUBCHEM_CACTVS_TAUTO_COUNT>
594

> <PUBCHEM_COORDINATE_TYPE>
1
5
255

> <PUBCHEM_BONDANNOTATIONS>
10  11  8
10  13  8
11  15  8
12  15  8
12  16  8
13  16  8
19  24  8
19  25  8
24  26  8
25  27  8
26  30  8
27  30  8

$$$$

