14421
  -OEChem-06241222432D

 36 40  0     1  0  0  0  0  0999 V2000
    3.5229   -1.6038    0.0000 O   0  0  0  0  0  0  0  0  0  0  0  0
    2.0000   -0.4921    0.0000 O   0  0  0  0  0  0  0  0  0  0  0  0
    5.3191    1.2424    0.0000 O   0  0  0  0  0  0  0  0  0  0  0  0
    7.0672   -1.7991    0.0000 O   0  0  0  0  0  0  0  0  0  0  0  0
    8.9943    1.2566    0.0000 O   0  0  0  0  0  0  0  0  0  0  0  0
    6.2133    2.7702    0.0000 O   0  0  0  0  0  0  0  0  0  0  0  0
    8.0508    2.7991    0.0000 O   0  0  0  0  0  0  0  0  0  0  0  0
    3.5229    0.0057    0.0000 C   0  0  3  0  0  0  0  0  0  0  0  0
    4.4691   -0.2991    0.0000 C   0  0  0  0  0  0  0  0  0  0  0  0
    2.9393   -0.7991    0.0000 C   0  0  3  0  0  0  0  0  0  0  0  0
    4.4691   -1.2991    0.0000 C   0  0  0  0  0  0  0  0  0  0  0  0
    5.3351    0.2009    0.0000 C   0  0  0  0  0  0  0  0  0  0  0  0
    6.2012   -0.2991    0.0000 C   0  0  0  0  0  0  0  0  0  0  0  0
    2.9393    0.8031    0.0000 C   0  0  0  0  0  0  0  0  0  0  0  0
    7.1112    0.2078    0.0000 C   0  0  0  0  0  0  0  0  0  0  0  0
    6.2012   -1.2991    0.0000 C   0  0  0  0  0  0  0  0  0  0  0  0
    5.3351   -1.7991    0.0000 C   0  0  0  0  0  0  0  0  0  0  0  0
    8.0380   -0.3563    0.0000 C   0  0  0  0  0  0  0  0  0  0  0  0
    7.1192    1.2494    0.0000 C   0  0  0  0  0  0  0  0  0  0  0  0
    2.0000    0.4961    0.0000 C   0  0  0  0  0  0  0  0  0  0  0  0
    8.9859    0.1716    0.0000 C   0  0  0  0  0  0  0  0  0  0  0  0
    6.2171    1.7702    0.0000 C   0  0  0  0  0  0  0  0  0  0  0  0
    8.0546    1.7991    0.0000 C   0  0  0  0  0  0  0  0  0  0  0  0
    7.0672   -2.7991    0.0000 C   0  0  0  0  0  0  0  0  0  0  0  0
    3.8858    0.5083    0.0000 H   0  0  0  0  0  0  0  0  0  0  0  0
    2.5742   -1.3002    0.0000 H   0  0  0  0  0  0  0  0  0  0  0  0
    3.1294    1.3933    0.0000 H   0  0  0  0  0  0  0  0  0  0  0  0
    5.3351   -2.4191    0.0000 H   0  0  0  0  0  0  0  0  0  0  0  0
    7.6298   -0.8230    0.0000 H   0  0  0  0  0  0  0  0  0  0  0  0
    8.4279   -0.8384    0.0000 H   0  0  0  0  0  0  0  0  0  0  0  0
    1.4981    0.8601    0.0000 H   0  0  0  0  0  0  0  0  0  0  0  0
    9.1904   -0.4137    0.0000 H   0  0  0  0  0  0  0  0  0  0  0  0
    9.5976    0.2730    0.0000 H   0  0  0  0  0  0  0  0  0  0  0  0
    6.4472   -2.7991    0.0000 H   0  0  0  0  0  0  0  0  0  0  0  0
    7.0672   -3.4191    0.0000 H   0  0  0  0  0  0  0  0  0  0  0  0
    7.6872   -2.7991    0.0000 H   0  0  0  0  0  0  0  0  0  0  0  0
  1 10  1  0  0  0  0
  1 11  1  0  0  0  0
  2 10  1  0  0  0  0
  2 20  1  0  0  0  0
  3 12  1  0  0  0  0
  3 22  1  0  0  0  0
  4 16  1  0  0  0  0
  4 24  1  0  0  0  0
  5 21  1  0  0  0  0
  5 23  1  0  0  0  0
  6 22  2  0  0  0  0
  7 23  2  0  0  0  0
  8  9  1  0  0  0  0
  8 10  1  0  0  0  0
  8 14  1  0  0  0  0
  8 25  1  0  0  0  0
  9 11  1  0  0  0  0
  9 12  2  0  0  0  0
 10 26  1  0  0  0  0
 11 17  2  0  0  0  0
 12 13  1  0  0  0  0
 13 15  1  0  0  0  0
 13 16  2  0  0  0  0
 14 20  2  0  0  0  0
 14 27  1  0  0  0  0
 15 18  1  0  0  0  0
 15 19  2  0  0  0  0
 16 17  1  0  0  0  0
 17 28  1  0  0  0  0
 18 21  1  0  0  0  0
 18 29  1  0  0  0  0
 18 30  1  0  0  0  0
 19 22  1  0  0  0  0
 19 23  1  0  0  0  0
 20 31  1  0  0  0  0
 21 32  1  0  0  0  0
 21 33  1  0  0  0  0
 24 34  1  0  0  0  0
 24 35  1  0  0  0  0
 24 36  1  0  0  0  0
M  END
> <PUBCHEM_COMPOUND_CID>
14421

> <PUBCHEM_COMPOUND_CANONICALIZED>
1

> <PUBCHEM_CACTVS_COMPLEXITY>
666

> <PUBCHEM_CACTVS_HBOND_ACCEPTOR>
7

> <PUBCHEM_CACTVS_HBOND_DONOR>
0

> <PUBCHEM_CACTVS_ROTATABLE_BOND>
1

> <PUBCHEM_CACTVS_SUBSKEYS>
AAADccB4OAAAAAAAAAAAAAAAAAAAASIAAAAwQIAAAAAQAEiRAAAAGgAAAAAADQSwmAMyDoAABACIAiDSCAACCAAgIAAIiAEGCMgcJyaMMRqiOiCl4BUMqQfA4PwOoAACCAAIAABAAAQQABAAAAAAAAAAAA==

> <PUBCHEM_IUPAC_INCHI>
InChI=1S/C17H12O7/c1-20-9-6-10-12(8-3-5-22-17(8)23-10)14-11(9)7-2-4-21-15(18)13(7)16(19)24-14/h3,5-6,8,17H,2,4H2,1H3

> <PUBCHEM_IUPAC_INCHIKEY>
XWIYFDMXXLINPU-UHFFFAOYSA-N

> <PUBCHEM_XLOGP3_AA>
1.8

> <PUBCHEM_EXACT_MASS>
328.058303

> <PUBCHEM_MOLECULAR_FORMULA>
C17H12O7

> <PUBCHEM_MOLECULAR_WEIGHT>
328.27298

> <PUBCHEM_OPENEYE_CAN_SMILES>
COC1=C2C3=C(C(=O)OCC3)C(=O)OC2=C4C5C=COC5OC4=C1

> <PUBCHEM_OPENEYE_ISO_SMILES>
COC1=C2C3=C(C(=O)OCC3)C(=O)OC2=C4C5C=COC5OC4=C1

> <PUBCHEM_CACTVS_TPSA>
80.3

> <PUBCHEM_MONOISOTOPIC_WEIGHT>
328.058303

> <PUBCHEM_TOTAL_CHARGE>
0

> <PUBCHEM_HEAVY_ATOM_COUNT>
24

> <PUBCHEM_ATOM_DEF_STEREO_COUNT>
0

> <PUBCHEM_ATOM_UDEF_STEREO_COUNT>
2

> <PUBCHEM_BOND_DEF_STEREO_COUNT>
0

> <PUBCHEM_BOND_UDEF_STEREO_COUNT>
0

> <PUBCHEM_ISOTOPIC_ATOM_COUNT>
0

> <PUBCHEM_COMPONENT_COUNT>
1

> <PUBCHEM_CACTVS_TAUTO_COUNT>
1

> <PUBCHEM_COORDINATE_TYPE>
1
5
255

> <PUBCHEM_BONDANNOTATIONS>
10  1  3
11  17  8
12  13  8
13  15  8
13  16  8
15  19  8
16  17  8
19  22  8
3  12  8
3  22  8
8  14  3
9  11  8
9  12  8

$$$$

