9588
  -OEChem-06261203512D

 15 15  0     0  0  0  0  0  0999 V2000
    3.0000    2.5000    0.0000 Cl  0  0  0  0  0  0  0  0  0  0  0  0
    3.0000    1.5000    0.0000 S   0  0  0  0  0  0  0  0  0  0  0  0
    3.0000   -2.5000    0.0000 F   0  0  0  0  0  0  0  0  0  0  0  0
    4.0000    1.5000    0.0000 O   0  0  0  0  0  0  0  0  0  0  0  0
    2.0000    1.5000    0.0000 O   0  0  0  0  0  0  0  0  0  0  0  0
    3.0000    0.5000    0.0000 C   0  0  0  0  0  0  0  0  0  0  0  0
    2.1340    0.0000    0.0000 C   0  0  0  0  0  0  0  0  0  0  0  0
    3.8660    0.0000    0.0000 C   0  0  0  0  0  0  0  0  0  0  0  0
    2.1340   -1.0000    0.0000 C   0  0  0  0  0  0  0  0  0  0  0  0
    3.8660   -1.0000    0.0000 C   0  0  0  0  0  0  0  0  0  0  0  0
    3.0000   -1.5000    0.0000 C   0  0  0  0  0  0  0  0  0  0  0  0
    1.5970    0.3100    0.0000 H   0  0  0  0  0  0  0  0  0  0  0  0
    4.4030    0.3100    0.0000 H   0  0  0  0  0  0  0  0  0  0  0  0
    1.5970   -1.3100    0.0000 H   0  0  0  0  0  0  0  0  0  0  0  0
    4.4030   -1.3100    0.0000 H   0  0  0  0  0  0  0  0  0  0  0  0
  1  2  1  0  0  0  0
  2  4  2  0  0  0  0
  2  5  2  0  0  0  0
  2  6  1  0  0  0  0
  3 11  1  0  0  0  0
  6  7  2  0  0  0  0
  6  8  1  0  0  0  0
  7  9  1  0  0  0  0
  7 12  1  0  0  0  0
  8 10  2  0  0  0  0
  8 13  1  0  0  0  0
  9 11  2  0  0  0  0
  9 14  1  0  0  0  0
 10 11  1  0  0  0  0
 10 15  1  0  0  0  0
M  END
> <PUBCHEM_COMPOUND_CID>
9588

> <PUBCHEM_COMPOUND_CANONICALIZED>
1

> <PUBCHEM_CACTVS_COMPLEXITY>
213

> <PUBCHEM_CACTVS_HBOND_ACCEPTOR>
3

> <PUBCHEM_CACTVS_HBOND_DONOR>
0

> <PUBCHEM_CACTVS_ROTATABLE_BOND>
1

> <PUBCHEM_CACTVS_SUBSKEYS>
AAADcYBgMQBEAAAAAAAAAAAAAAAAAAAAAAAwAAAAAAAAAAABAAAAGQQAAAAACACAUAgwAYAAAAKAACBCAHBCAAAgAAAIiBgAAIgIICKAERCAIAAggAAIiAcAAAAAAAAAAAAAAAAAAAAAAAAAAAAAAAAAAA==

> <PUBCHEM_IUPAC_OPENEYE_NAME>
4-fluorobenzenesulfonyl chloride

> <PUBCHEM_IUPAC_CAS_NAME>
4-fluorobenzenesulfonyl chloride

> <PUBCHEM_IUPAC_NAME>
4-fluorobenzenesulfonyl chloride

> <PUBCHEM_IUPAC_SYSTEMATIC_NAME>
4-fluoranylbenzenesulfonyl chloride

> <PUBCHEM_IUPAC_TRADITIONAL_NAME>
4-fluorobenzenesulfonyl chloride

> <PUBCHEM_IUPAC_INCHI>
InChI=1S/C6H4ClFO2S/c7-11(9,10)6-3-1-5(8)2-4-6/h1-4H

> <PUBCHEM_IUPAC_INCHIKEY>
BFXHJFKKRGVUMU-UHFFFAOYSA-N

> <PUBCHEM_XLOGP3_AA>
2

> <PUBCHEM_EXACT_MASS>
193.960456

> <PUBCHEM_MOLECULAR_FORMULA>
C6H4ClFO2S

> <PUBCHEM_MOLECULAR_WEIGHT>
194.611163

> <PUBCHEM_OPENEYE_CAN_SMILES>
C1=CC(=CC=C1F)S(=O)(=O)Cl

> <PUBCHEM_OPENEYE_ISO_SMILES>
C1=CC(=CC=C1F)S(=O)(=O)Cl

> <PUBCHEM_CACTVS_TPSA>
42.5

> <PUBCHEM_MONOISOTOPIC_WEIGHT>
193.960456

> <PUBCHEM_TOTAL_CHARGE>
0

> <PUBCHEM_HEAVY_ATOM_COUNT>
11

> <PUBCHEM_ATOM_DEF_STEREO_COUNT>
0

> <PUBCHEM_ATOM_UDEF_STEREO_COUNT>
0

> <PUBCHEM_BOND_DEF_STEREO_COUNT>
0

> <PUBCHEM_BOND_UDEF_STEREO_COUNT>
0

> <PUBCHEM_ISOTOPIC_ATOM_COUNT>
0

> <PUBCHEM_COMPONENT_COUNT>
1

> <PUBCHEM_CACTVS_TAUTO_COUNT>
1

> <PUBCHEM_COORDINATE_TYPE>
1
5
255

> <PUBCHEM_BONDANNOTATIONS>
10  11  8
6  7  8
6  8  8
7  9  8
8  10  8
9  11  8

$$$$

