46174057
  -OEChem-07051213112D

 84 88  0     1  0  0  0  0  0999 V2000
    6.6129   -0.3688    0.0000 Mg  0  2  0  0  0  0  0  0  0  0  0  0
    8.0110   -4.7463    0.0000 O   0  0  0  0  0  0  0  0  0  0  0  0
   10.3151   -3.8526    0.0000 O   0  0  0  0  0  0  0  0  0  0  0  0
   10.5207   -2.1328    0.0000 O   0  0  0  0  0  0  0  0  0  0  0  0
    5.9434    4.2469    0.0000 O   0  0  0  0  0  0  0  0  0  0  0  0
   13.0207   -1.2159    0.0000 O   0  0  0  0  0  0  0  0  0  0  0  0
   11.9780   -2.5989    0.0000 O   0  0  0  0  0  0  0  0  0  0  0  0
    6.6504   -1.6636    0.0000 N   0  5  0  0  0  0  0  0  0  0  0  0
    8.0994   -0.3421    0.0000 N   0  0  0  0  0  0  0  0  0  0  0  0
    6.6181    0.9794    0.0000 N   0  5  0  0  0  0  0  0  0  0  0  0
    5.1995   -0.3421    0.0000 N   0  0  0  0  0  0  0  0  0  0  0  0
    9.5825   -0.7929    0.0000 C   0  0  1  0  0  0  0  0  0  0  0  0
    9.5825    0.1731    0.0000 C   0  0  1  0  0  0  0  0  0  0  0  0
    8.6794   -1.0513    0.0000 C   0  0  0  0  0  0  0  0  0  0  0  0
    8.3903   -1.9852    0.0000 C   0  0  0  0  0  0  0  0  0  0  0  0
    7.4242   -2.2437    0.0000 C   0  0  0  0  0  0  0  0  0  0  0  0
    8.9285   -2.8147    0.0000 C   0  0  2  0  0  0  0  0  0  0  0  0
    8.6471    0.4317    0.0000 C   0  0  0  0  0  0  0  0  0  0  0  0
    7.1334   -3.1775    0.0000 C   0  0  0  0  0  0  0  0  0  0  0  0
   10.3810   -1.3949    0.0000 C   0  0  0  0  0  0  0  0  0  0  0  0
    3.7182   -0.8251    0.0000 C   0  0  3  0  0  0  0  0  0  0  0  0
    3.7182    0.1409    0.0000 C   0  0  3  0  0  0  0  0  0  0  0  0
    5.8764   -2.2760    0.0000 C   0  0  0  0  0  0  0  0  0  0  0  0
    7.9404   -3.7488    0.0000 C   0  0  0  0  0  0  0  0  0  0  0  0
    6.1672   -3.1775    0.0000 C   0  0  0  0  0  0  0  0  0  0  0  0
   10.3783    0.7787    0.0000 C   0  0  0  0  0  0  0  0  0  0  0  0
    4.6519   -1.0837    0.0000 C   0  0  0  0  0  0  0  0  0  0  0  0
    7.4242    1.6240    0.0000 C   0  0  0  0  0  0  0  0  0  0  0  0
    8.3579    1.3332    0.0000 C   0  0  0  0  0  0  0  0  0  0  0  0
    4.6519    0.3994    0.0000 C   0  0  0  0  0  0  0  0  0  0  0  0
    4.9426   -1.9852    0.0000 C   0  0  0  0  0  0  0  0  0  0  0  0
    5.8442    1.5917    0.0000 C   0  0  0  0  0  0  0  0  0  0  0  0
   11.3016   -1.0044    0.0000 C   0  0  0  0  0  0  0  0  0  0  0  0
    2.9223   -1.4306    0.0000 C   0  0  0  0  0  0  0  0  0  0  0  0
    6.1350    2.5255    0.0000 C   0  0  0  0  0  0  0  0  0  0  0  0
    7.1011    2.5255    0.0000 C   0  0  0  0  0  0  0  0  0  0  0  0
    4.9104    1.3332    0.0000 C   0  0  0  0  0  0  0  0  0  0  0  0
    9.9214   -2.9334    0.0000 C   0  0  0  0  0  0  0  0  0  0  0  0
    2.9223    0.7464    0.0000 C   0  0  0  0  0  0  0  0  0  0  0  0
    5.5786   -3.9859    0.0000 C   0  0  0  0  0  0  0  0  0  0  0  0
    5.5423    3.3309    0.0000 C   0  0  3  0  0  0  0  0  0  0  0  0
    2.0000   -1.0441    0.0000 C   0  0  0  0  0  0  0  0  0  0  0  0
    7.6767    3.3432    0.0000 C   0  0  0  0  0  0  0  0  0  0  0  0
   12.1001   -1.6064    0.0000 C   0  0  0  0  0  0  0  0  0  0  0  0
    4.5484    3.2203    0.0000 C   0  0  0  0  0  0  0  0  0  0  0  0
   11.3080   -3.9714    0.0000 C   0  0  0  0  0  0  0  0  0  0  0  0
    9.4693   -1.4025    0.0000 H   0  0  0  0  0  0  0  0  0  0  0  0
    9.4651    0.7819    0.0000 H   0  0  0  0  0  0  0  0  0  0  0  0
    9.2563   -2.2884    0.0000 H   0  0  0  0  0  0  0  0  0  0  0  0
    9.9274   -1.8176    0.0000 H   0  0  0  0  0  0  0  0  0  0  0  0
   10.7185   -1.9149    0.0000 H   0  0  0  0  0  0  0  0  0  0  0  0
    3.1627   -0.5497    0.0000 H   0  0  0  0  0  0  0  0  0  0  0  0
    3.8354    0.7497    0.0000 H   0  0  0  0  0  0  0  0  0  0  0  0
   10.7537    0.2853    0.0000 H   0  0  0  0  0  0  0  0  0  0  0  0
   10.8716    1.1542    0.0000 H   0  0  0  0  0  0  0  0  0  0  0  0
   10.0028    1.2721    0.0000 H   0  0  0  0  0  0  0  0  0  0  0  0
    8.7944    1.7735    0.0000 H   0  0  0  0  0  0  0  0  0  0  0  0
    4.5064   -2.4258    0.0000 H   0  0  0  0  0  0  0  0  0  0  0  0
   11.7551   -0.5816    0.0000 H   0  0  0  0  0  0  0  0  0  0  0  0
   10.9640   -0.4843    0.0000 H   0  0  0  0  0  0  0  0  0  0  0  0
    2.5870   -1.9521    0.0000 H   0  0  0  0  0  0  0  0  0  0  0  0
    3.3777   -1.8513    0.0000 H   0  0  0  0  0  0  0  0  0  0  0  0
    4.4720    1.7716    0.0000 H   0  0  0  0  0  0  0  0  0  0  0  0
    3.2977    1.2398    0.0000 H   0  0  0  0  0  0  0  0  0  0  0  0
    2.4288    1.1218    0.0000 H   0  0  0  0  0  0  0  0  0  0  0  0
    2.5469    0.2530    0.0000 H   0  0  0  0  0  0  0  0  0  0  0  0
    5.0774   -3.6210    0.0000 H   0  0  0  0  0  0  0  0  0  0  0  0
    5.2136   -4.4871    0.0000 H   0  0  0  0  0  0  0  0  0  0  0  0
    6.0798   -4.3508    0.0000 H   0  0  0  0  0  0  0  0  0  0  0  0
    6.1585    3.3995    0.0000 H   0  0  0  0  0  0  0  0  0  0  0  0
    2.2396   -0.4723    0.0000 H   0  0  0  0  0  0  0  0  0  0  0  0
    1.4282   -0.8044    0.0000 H   0  0  0  0  0  0  0  0  0  0  0  0
    1.7604   -1.6159    0.0000 H   0  0  0  0  0  0  0  0  0  0  0  0
    8.1837    2.9863    0.0000 H   0  0  0  0  0  0  0  0  0  0  0  0
    8.0336    3.8502    0.0000 H   0  0  0  0  0  0  0  0  0  0  0  0
    7.1697    3.7001    0.0000 H   0  0  0  0  0  0  0  0  0  0  0  0
    4.4798    3.8365    0.0000 H   0  0  0  0  0  0  0  0  0  0  0  0
    3.9322    3.1517    0.0000 H   0  0  0  0  0  0  0  0  0  0  0  0
    4.6170    2.6041    0.0000 H   0  0  0  0  0  0  0  0  0  0  0  0
    5.5759    4.7463    0.0000 H   0  0  0  0  0  0  0  0  0  0  0  0
   11.2344   -4.5870    0.0000 H   0  0  0  0  0  0  0  0  0  0  0  0
   11.9237   -4.0450    0.0000 H   0  0  0  0  0  0  0  0  0  0  0  0
   11.3816   -3.3557    0.0000 H   0  0  0  0  0  0  0  0  0  0  0  0
   13.5157   -1.5891    0.0000 H   0  0  0  0  0  0  0  0  0  0  0  0
  2 24  2  0  0  0  0
  3 38  1  0  0  0  0
  3 46  1  0  0  0  0
  4 38  2  0  0  0  0
  5 41  1  0  0  0  0
  5 80  1  0  0  0  0
  6 44  1  0  0  0  0
  6 84  1  0  0  0  0
  7 44  2  0  0  0  0
  8 16  1  0  0  0  0
  8 23  1  0  0  0  0
  9 14  2  0  0  0  0
  9 18  1  0  0  0  0
 10 28  1  0  0  0  0
 10 32  1  0  0  0  0
 11 27  2  0  0  0  0
 11 30  1  0  0  0  0
 12 13  1  0  0  0  0
 12 14  1  0  0  0  0
 12 20  1  6  0  0  0
 12 47  1  0  0  0  0
 13 18  1  0  0  0  0
 13 26  1  1  0  0  0
 13 48  1  0  0  0  0
 14 15  1  0  0  0  0
 15 16  2  0  0  0  0
 15 17  1  0  0  0  0
 16 19  1  0  0  0  0
 17 24  1  0  0  0  0
 17 38  1  1  0  0  0
 17 49  1  0  0  0  0
 18 29  2  0  0  0  0
 19 24  1  0  0  0  0
 19 25  2  0  0  0  0
 20 33  1  0  0  0  0
 20 50  1  0  0  0  0
 20 51  1  0  0  0  0
 21 22  1  0  0  0  0
 21 27  1  0  0  0  0
 21 34  1  0  0  0  0
 21 52  1  0  0  0  0
 22 30  1  0  0  0  0
 22 39  1  0  0  0  0
 22 53  1  0  0  0  0
 23 25  1  0  0  0  0
 23 31  2  0  0  0  0
 25 40  1  0  0  0  0
 26 54  1  0  0  0  0
 26 55  1  0  0  0  0
 26 56  1  0  0  0  0
 27 31  1  0  0  0  0
 28 29  1  0  0  0  0
 28 36  2  0  0  0  0
 29 57  1  0  0  0  0
 30 37  2  0  0  0  0
 31 58  1  0  0  0  0
 32 35  2  0  0  0  0
 32 37  1  0  0  0  0
 33 44  1  0  0  0  0
 33 59  1  0  0  0  0
 33 60  1  0  0  0  0
 34 42  1  0  0  0  0
 34 61  1  0  0  0  0
 34 62  1  0  0  0  0
 35 36  1  0  0  0  0
 35 41  1  0  0  0  0
 36 43  1  0  0  0  0
 37 63  1  0  0  0  0
 39 64  1  0  0  0  0
 39 65  1  0  0  0  0
 39 66  1  0  0  0  0
 40 67  1  0  0  0  0
 40 68  1  0  0  0  0
 40 69  1  0  0  0  0
 41 45  1  0  0  0  0
 41 70  1  0  0  0  0
 42 71  1  0  0  0  0
 42 72  1  0  0  0  0
 42 73  1  0  0  0  0
 43 74  1  0  0  0  0
 43 75  1  0  0  0  0
 43 76  1  0  0  0  0
 45 77  1  0  0  0  0
 45 78  1  0  0  0  0
 45 79  1  0  0  0  0
 46 81  1  0  0  0  0
 46 82  1  0  0  0  0
 46 83  1  0  0  0  0
M  CHG  3   1   2   8  -1  10  -1
M  END
> <PUBCHEM_COMPOUND_CID>
46174057

> <PUBCHEM_COMPOUND_CANONICALIZED>
1

> <PUBCHEM_CACTVS_COMPLEXITY>
1580

> <PUBCHEM_CACTVS_HBOND_ACCEPTOR>
10

> <PUBCHEM_CACTVS_HBOND_DONOR>
2

> <PUBCHEM_CACTVS_ROTATABLE_BOND>
7

> <PUBCHEM_CACTVS_SUBSKEYS>
AAADcfB/uAAAACAAAAAAAAAAAAAAAWIECBAAAAAAAAAQAACBgAAAHgAACAAADRyhngICiJIIFgCoA6TyTACCgCAhAiAAmCEwTNgINn7IkZGEUAhm4AHI2Qe42fKOgAAAAAAAAAAAAAAAAAAAAAAAAAAAAA==

> <PUBCHEM_IUPAC_INCHI>
InChI=1S/C35H40N4O6.Mg/c1-8-19-14(2)21-13-26-28(18(6)40)16(4)23(37-26)11-22-15(3)20(9-10-27(41)42)32(38-22)30-31(35(44)45-7)34(43)29-17(5)24(39-33(29)30)12-25(19)36-21;/h11-15,18-20,31,40H,8-10H2,1-7H3,(H3,36,37,38,39,41,42,43);/q;+2/p-2/t14?,15-,18?,19?,20-,31+;/m0./s1

> <PUBCHEM_IUPAC_INCHIKEY>
NYDYYMZNENQZAP-OFTKYRGTSA-L

> <PUBCHEM_EXACT_MASS>
634.264177

> <PUBCHEM_MOLECULAR_FORMULA>
C35H38MgN4O6

> <PUBCHEM_MOLECULAR_WEIGHT>
635.00442

> <PUBCHEM_OPENEYE_CAN_SMILES>
CCC1C(C2=CC3=C(C(=C([N-]3)C=C4C(C(C(=N4)C5=C6C(=C(C(=CC1=N2)[N-]6)C)C(=O)C5C(=O)OC)CCC(=O)O)C)C)C(C)O)C.[Mg+2]

> <PUBCHEM_OPENEYE_ISO_SMILES>
CCC1C(C2=CC3=C(C(=C([N-]3)C=C4[C@H]([C@@H](C(=N4)C5=C6C(=C(C(=CC1=N2)[N-]6)C)C(=O)[C@@H]5C(=O)OC)CCC(=O)O)C)C)C(C)O)C.[Mg+2]

> <PUBCHEM_CACTVS_TPSA>
128

> <PUBCHEM_MONOISOTOPIC_WEIGHT>
634.264177

> <PUBCHEM_TOTAL_CHARGE>
0

> <PUBCHEM_HEAVY_ATOM_COUNT>
46

> <PUBCHEM_ATOM_DEF_STEREO_COUNT>
3

> <PUBCHEM_ATOM_UDEF_STEREO_COUNT>
3

> <PUBCHEM_BOND_DEF_STEREO_COUNT>
0

> <PUBCHEM_BOND_UDEF_STEREO_COUNT>
0

> <PUBCHEM_ISOTOPIC_ATOM_COUNT>
0

> <PUBCHEM_COMPONENT_COUNT>
2

> <PUBCHEM_CACTVS_TAUTO_COUNT>
73

> <PUBCHEM_NONSTANDARDBOND>
1  10  7
1  8  7

> <PUBCHEM_COORDINATE_TYPE>
1
5
255

> <PUBCHEM_BONDANNOTATIONS>
10  28  8
10  32  8
11  27  8
11  30  8
12  20  6
13  26  5
14  15  8
15  16  8
16  19  8
17  38  5
18  29  8
19  25  8
21  34  3
22  39  3
23  25  8
23  31  8
27  31  8
28  29  8
28  36  8
30  37  8
32  35  8
32  37  8
35  36  8
41  5  3
8  16  8
8  23  8
9  14  8
9  18  8

$$$$

