11285
  -OEChem-07051213142D

 37 40  0     0  0  0  0  0  0999 V2000
    2.5369    2.8137    0.0000 O   0  0  0  0  0  0  0  0  0  0  0  0
    4.2690   -0.1863    0.0000 C   0  0  0  0  0  0  0  0  0  0  0  0
    3.4030    0.3137    0.0000 C   0  0  0  0  0  0  0  0  0  0  0  0
    5.1350    0.3137    0.0000 C   0  0  0  0  0  0  0  0  0  0  0  0
    3.4030    1.3137    0.0000 C   0  0  0  0  0  0  0  0  0  0  0  0
    5.1350    1.3137    0.0000 C   0  0  0  0  0  0  0  0  0  0  0  0
    4.2690    1.8137    0.0000 C   0  0  0  0  0  0  0  0  0  0  0  0
    4.2850   -1.2278    0.0000 C   0  0  0  0  0  0  0  0  0  0  0  0
    3.3870   -1.7555    0.0000 C   0  0  0  0  0  0  0  0  0  0  0  0
    2.4930   -0.1931    0.0000 C   0  0  0  0  0  0  0  0  0  0  0  0
    2.5369    1.8137    0.0000 C   0  0  0  0  0  0  0  0  0  0  0  0
    2.4849   -1.2347    0.0000 C   0  0  0  0  0  0  0  0  0  0  0  0
    6.0010   -0.1863    0.0000 C   0  0  0  0  0  0  0  0  0  0  0  0
    6.0450    1.8206    0.0000 C   0  0  0  0  0  0  0  0  0  0  0  0
    4.2529    2.8552    0.0000 C   0  0  0  0  0  0  0  0  0  0  0  0
    5.2370   -1.7484    0.0000 C   0  0  0  0  0  0  0  0  0  0  0  0
    3.3786   -2.8405    0.0000 C   0  0  0  0  0  0  0  0  0  0  0  0
    6.0530    2.8622    0.0000 C   0  0  0  0  0  0  0  0  0  0  0  0
    5.1510    3.3830    0.0000 C   0  0  0  0  0  0  0  0  0  0  0  0
    5.2537   -2.8333    0.0000 C   0  0  0  0  0  0  0  0  0  0  0  0
    4.3183   -3.3830    0.0000 C   0  0  0  0  0  0  0  0  0  0  0  0
    1.9596    0.1231    0.0000 H   0  0  0  0  0  0  0  0  0  0  0  0
    1.9264    1.9214    0.0000 H   0  0  0  0  0  0  0  0  0  0  0  0
    2.3249    1.2311    0.0000 H   0  0  0  0  0  0  0  0  0  0  0  0
    1.9468   -1.5426    0.0000 H   0  0  0  0  0  0  0  0  0  0  0  0
    5.6910   -0.7232    0.0000 H   0  0  0  0  0  0  0  0  0  0  0  0
    6.5380   -0.4963    0.0000 H   0  0  0  0  0  0  0  0  0  0  0  0
    6.3110    0.3507    0.0000 H   0  0  0  0  0  0  0  0  0  0  0  0
    6.5783    1.5044    0.0000 H   0  0  0  0  0  0  0  0  0  0  0  0
    3.7124    3.1590    0.0000 H   0  0  0  0  0  0  0  0  0  0  0  0
    5.7678   -1.4281    0.0000 H   0  0  0  0  0  0  0  0  0  0  0  0
    2.8405   -3.1484    0.0000 H   0  0  0  0  0  0  0  0  0  0  0  0
    6.5912    3.1701    0.0000 H   0  0  0  0  0  0  0  0  0  0  0  0
    5.1486    4.0030    0.0000 H   0  0  0  0  0  0  0  0  0  0  0  0
    5.7942   -3.1370    0.0000 H   0  0  0  0  0  0  0  0  0  0  0  0
    4.3207   -4.0030    0.0000 H   0  0  0  0  0  0  0  0  0  0  0  0
    2.0000    3.1237    0.0000 H   0  0  0  0  0  0  0  0  0  0  0  0
  1 11  1  0  0  0  0
  1 37  1  0  0  0  0
  2  3  1  0  0  0  0
  2  4  2  0  0  0  0
  2  8  1  0  0  0  0
  3  5  2  0  0  0  0
  3 10  1  0  0  0  0
  4  6  1  0  0  0  0
  4 13  1  0  0  0  0
  5  7  1  0  0  0  0
  5 11  1  0  0  0  0
  6  7  1  0  0  0  0
  6 14  2  0  0  0  0
  7 15  2  0  0  0  0
  8  9  1  0  0  0  0
  8 16  2  0  0  0  0
  9 12  1  0  0  0  0
  9 17  2  0  0  0  0
 10 12  2  0  0  0  0
 10 22  1  0  0  0  0
 11 23  1  0  0  0  0
 11 24  1  0  0  0  0
 12 25  1  0  0  0  0
 13 26  1  0  0  0  0
 13 27  1  0  0  0  0
 13 28  1  0  0  0  0
 14 18  1  0  0  0  0
 14 29  1  0  0  0  0
 15 19  1  0  0  0  0
 15 30  1  0  0  0  0
 16 20  1  0  0  0  0
 16 31  1  0  0  0  0
 17 21  1  0  0  0  0
 17 32  1  0  0  0  0
 18 19  2  0  0  0  0
 18 33  1  0  0  0  0
 19 34  1  0  0  0  0
 20 21  2  0  0  0  0
 20 35  1  0  0  0  0
 21 36  1  0  0  0  0
M  END
> <PUBCHEM_COMPOUND_CID>
11285

> <PUBCHEM_COMPOUND_CANONICALIZED>
1

> <PUBCHEM_CACTVS_COMPLEXITY>
365

> <PUBCHEM_CACTVS_HBOND_ACCEPTOR>
1

> <PUBCHEM_CACTVS_HBOND_DONOR>
1

> <PUBCHEM_CACTVS_ROTATABLE_BOND>
1

> <PUBCHEM_CACTVS_SUBSKEYS>
AAADceB4IAAAAAAAAAAAAAAAAAAAAAAAAAAwYMGAAAAAAADBVAAAGgAACAAADACgmAIyAMAAAgCAAiBCAAACAAAgAAAIiAAACIgINiKAERCAcAAkwAEImAeAwPAOwAACAAAQAACAAAQAACAAAAAAAAAAAA==

> <PUBCHEM_IUPAC_OPENEYE_NAME>
(12-methylbenzo[a]anthracen-7-yl)methanol

> <PUBCHEM_IUPAC_CAS_NAME>
(12-methyl-7-benzo[a]anthracenyl)methanol

> <PUBCHEM_IUPAC_NAME>
(12-methylbenzo[a]anthracen-7-yl)methanol

> <PUBCHEM_IUPAC_SYSTEMATIC_NAME>
(12-methylbenzo[a]anthracen-7-yl)methanol

> <PUBCHEM_IUPAC_TRADITIONAL_NAME>
(12-methylbenz[a]anthracen-7-yl)methanol

> <PUBCHEM_IUPAC_INCHI>
InChI=1S/C20H16O/c1-13-15-7-4-5-9-17(15)19(12-21)18-11-10-14-6-2-3-8-16(14)20(13)18/h2-11,21H,12H2,1H3

> <PUBCHEM_IUPAC_INCHIKEY>
JCBBZYDVQJQMMB-UHFFFAOYSA-N

> <PUBCHEM_XLOGP3>
4.5

> <PUBCHEM_EXACT_MASS>
272.120115

> <PUBCHEM_MOLECULAR_FORMULA>
C20H16O

> <PUBCHEM_MOLECULAR_WEIGHT>
272.34044

> <PUBCHEM_OPENEYE_CAN_SMILES>
CC1=C2C(=C(C3=CC=CC=C13)CO)C=CC4=CC=CC=C42

> <PUBCHEM_OPENEYE_ISO_SMILES>
CC1=C2C(=C(C3=CC=CC=C13)CO)C=CC4=CC=CC=C42

> <PUBCHEM_CACTVS_TPSA>
20.2

> <PUBCHEM_MONOISOTOPIC_WEIGHT>
272.120115

> <PUBCHEM_TOTAL_CHARGE>
0

> <PUBCHEM_HEAVY_ATOM_COUNT>
21

> <PUBCHEM_ATOM_DEF_STEREO_COUNT>
0

> <PUBCHEM_ATOM_UDEF_STEREO_COUNT>
0

> <PUBCHEM_BOND_DEF_STEREO_COUNT>
0

> <PUBCHEM_BOND_UDEF_STEREO_COUNT>
0

> <PUBCHEM_ISOTOPIC_ATOM_COUNT>
0

> <PUBCHEM_COMPONENT_COUNT>
1

> <PUBCHEM_CACTVS_TAUTO_COUNT>
1

> <PUBCHEM_COORDINATE_TYPE>
1
5
255

> <PUBCHEM_BONDANNOTATIONS>
10  12  8
14  18  8
15  19  8
16  20  8
17  21  8
18  19  8
2  3  8
2  4  8
2  8  8
20  21  8
3  10  8
3  5  8
4  6  8
5  7  8
6  14  8
6  7  8
7  15  8
8  16  8
8  9  8
9  12  8
9  17  8

$$$$

