10157484
  -OEChem-07051213122D

 59 61  0     0  0  0  0  0  0999 V2000
   11.5542    2.2673    0.0000 O   0  0  0  0  0  0  0  0  0  0  0  0
    5.4641    1.7327    0.0000 O   0  0  0  0  0  0  0  0  0  0  0  0
    8.0622   -0.7673    0.0000 O   0  0  0  0  0  0  0  0  0  0  0  0
    6.3301    0.2327    0.0000 N   0  0  0  0  0  0  0  0  0  0  0  0
    7.1962    0.7327    0.0000 N   0  0  0  0  0  0  0  0  0  0  0  0
    6.3301   -0.7673    0.0000 C   0  0  0  0  0  0  0  0  0  0  0  0
   10.6603    0.7327    0.0000 C   0  0  0  0  0  0  0  0  0  0  0  0
   11.5542    0.1980    0.0000 C   0  0  0  0  0  0  0  0  0  0  0  0
   12.4603    0.7119    0.0000 C   0  0  0  0  0  0  0  0  0  0  0  0
    9.7942    0.2327    0.0000 C   0  0  0  0  0  0  0  0  0  0  0  0
    6.3301   -1.7673    0.0000 C   0  0  0  0  0  0  0  0  0  0  0  0
    7.3301   -0.7673    0.0000 C   0  0  0  0  0  0  0  0  0  0  0  0
    5.3301   -0.7673    0.0000 C   0  0  0  0  0  0  0  0  0  0  0  0
   10.6603    1.7327    0.0000 C   0  0  0  0  0  0  0  0  0  0  0  0
    8.9282    0.7327    0.0000 C   0  0  0  0  0  0  0  0  0  0  0  0
   12.4603    1.7535    0.0000 C   0  0  0  0  0  0  0  0  0  0  0  0
    5.4641    0.7327    0.0000 C   0  0  0  0  0  0  0  0  0  0  0  0
    8.0622    0.2327    0.0000 C   0  0  0  0  0  0  0  0  0  0  0  0
    9.7942    2.2327    0.0000 C   0  0  0  0  0  0  0  0  0  0  0  0
    8.9282    1.7327    0.0000 C   0  0  0  0  0  0  0  0  0  0  0  0
    9.7942   -0.7673    0.0000 C   0  0  0  0  0  0  0  0  0  0  0  0
    4.5981    0.2327    0.0000 C   0  0  0  0  0  0  0  0  0  0  0  0
    3.7320    0.7327    0.0000 C   0  0  0  0  0  0  0  0  0  0  0  0
    4.5981   -0.7673    0.0000 C   0  0  0  0  0  0  0  0  0  0  0  0
    2.8660    0.2327    0.0000 C   0  0  0  0  0  0  0  0  0  0  0  0
    3.7320   -1.2673    0.0000 C   0  0  0  0  0  0  0  0  0  0  0  0
    2.8660   -0.7673    0.0000 C   0  0  0  0  0  0  0  0  0  0  0  0
    2.0000    0.7327    0.0000 C   0  0  0  0  0  0  0  0  0  0  0  0
    3.7320   -2.2673    0.0000 C   0  0  0  0  0  0  0  0  0  0  0  0
   11.1496   -0.2718    0.0000 H   0  0  0  0  0  0  0  0  0  0  0  0
   11.9478   -0.2810    0.0000 H   0  0  0  0  0  0  0  0  0  0  0  0
   12.6693    0.1282    0.0000 H   0  0  0  0  0  0  0  0  0  0  0  0
   13.0711    0.8179    0.0000 H   0  0  0  0  0  0  0  0  0  0  0  0
    5.3301   -0.1473    0.0000 H   0  0  0  0  0  0  0  0  0  0  0  0
    4.7101   -0.7673    0.0000 H   0  0  0  0  0  0  0  0  0  0  0  0
    5.3301   -1.3873    0.0000 H   0  0  0  0  0  0  0  0  0  0  0  0
    7.3301   -1.3873    0.0000 H   0  0  0  0  0  0  0  0  0  0  0  0
    5.7101   -1.7673    0.0000 H   0  0  0  0  0  0  0  0  0  0  0  0
    6.3301   -2.3873    0.0000 H   0  0  0  0  0  0  0  0  0  0  0  0
    6.9501   -1.7673    0.0000 H   0  0  0  0  0  0  0  0  0  0  0  0
    7.9501   -0.7673    0.0000 H   0  0  0  0  0  0  0  0  0  0  0  0
    7.3301   -0.1473    0.0000 H   0  0  0  0  0  0  0  0  0  0  0  0
   13.0711    1.6474    0.0000 H   0  0  0  0  0  0  0  0  0  0  0  0
   12.6693    2.3372    0.0000 H   0  0  0  0  0  0  0  0  0  0  0  0
    7.1962    1.3527    0.0000 H   0  0  0  0  0  0  0  0  0  0  0  0
    9.7942    2.8527    0.0000 H   0  0  0  0  0  0  0  0  0  0  0  0
    8.3913    2.0427    0.0000 H   0  0  0  0  0  0  0  0  0  0  0  0
    9.1742   -0.7673    0.0000 H   0  0  0  0  0  0  0  0  0  0  0  0
    9.7942   -1.3873    0.0000 H   0  0  0  0  0  0  0  0  0  0  0  0
   10.4142   -0.7673    0.0000 H   0  0  0  0  0  0  0  0  0  0  0  0
    3.7320    1.3527    0.0000 H   0  0  0  0  0  0  0  0  0  0  0  0
    5.1350   -1.0773    0.0000 H   0  0  0  0  0  0  0  0  0  0  0  0
    2.3291   -1.0773    0.0000 H   0  0  0  0  0  0  0  0  0  0  0  0
    2.3100    1.2696    0.0000 H   0  0  0  0  0  0  0  0  0  0  0  0
    1.4631    1.0427    0.0000 H   0  0  0  0  0  0  0  0  0  0  0  0
    1.6900    0.1957    0.0000 H   0  0  0  0  0  0  0  0  0  0  0  0
    3.1120   -2.2673    0.0000 H   0  0  0  0  0  0  0  0  0  0  0  0
    3.7320   -2.8873    0.0000 H   0  0  0  0  0  0  0  0  0  0  0  0
    4.3520   -2.2673    0.0000 H   0  0  0  0  0  0  0  0  0  0  0  0
  1 14  1  0  0  0  0
  1 16  1  0  0  0  0
  2 17  2  0  0  0  0
  3 18  2  0  0  0  0
  4  5  1  0  0  0  0
  4  6  1  0  0  0  0
  4 17  1  0  0  0  0
  5 18  1  0  0  0  0
  5 45  1  0  0  0  0
  6 11  1  0  0  0  0
  6 12  1  0  0  0  0
  6 13  1  0  0  0  0
  7  8  1  0  0  0  0
  7 10  1  0  0  0  0
  7 14  2  0  0  0  0
  8  9  1  0  0  0  0
  8 30  1  0  0  0  0
  8 31  1  0  0  0  0
  9 16  1  0  0  0  0
  9 32  1  0  0  0  0
  9 33  1  0  0  0  0
 10 15  2  0  0  0  0
 10 21  1  0  0  0  0
 11 38  1  0  0  0  0
 11 39  1  0  0  0  0
 11 40  1  0  0  0  0
 12 37  1  0  0  0  0
 12 41  1  0  0  0  0
 12 42  1  0  0  0  0
 13 34  1  0  0  0  0
 13 35  1  0  0  0  0
 13 36  1  0  0  0  0
 14 19  1  0  0  0  0
 15 18  1  0  0  0  0
 15 20  1  0  0  0  0
 16 43  1  0  0  0  0
 16 44  1  0  0  0  0
 17 22  1  0  0  0  0
 19 20  2  0  0  0  0
 19 46  1  0  0  0  0
 20 47  1  0  0  0  0
 21 48  1  0  0  0  0
 21 49  1  0  0  0  0
 21 50  1  0  0  0  0
 22 23  2  0  0  0  0
 22 24  1  0  0  0  0
 23 25  1  0  0  0  0
 23 51  1  0  0  0  0
 24 26  2  0  0  0  0
 24 52  1  0  0  0  0
 25 27  2  0  0  0  0
 25 28  1  0  0  0  0
 26 27  1  0  0  0  0
 26 29  1  0  0  0  0
 27 53  1  0  0  0  0
 28 54  1  0  0  0  0
 28 55  1  0  0  0  0
 28 56  1  0  0  0  0
 29 57  1  0  0  0  0
 29 58  1  0  0  0  0
 29 59  1  0  0  0  0
M  END
> <PUBCHEM_COMPOUND_CID>
10157484

> <PUBCHEM_COMPOUND_CANONICALIZED>
1

> <PUBCHEM_CACTVS_COMPLEXITY>
589

> <PUBCHEM_CACTVS_HBOND_ACCEPTOR>
3

> <PUBCHEM_CACTVS_HBOND_DONOR>
1

> <PUBCHEM_CACTVS_ROTATABLE_BOND>
3

> <PUBCHEM_CACTVS_SUBSKEYS>
AAADceB7MAAAAAAAAAAAAAAAAAAAAAAAAAA0YIAAAAAAAACRQAAAHgAYAAAADIyhmAIyBoJiBACIAiFSEACCCAAkIAAaqAEGDMgMJjKEtRuGOSjkxBGIqYeY3PDOoAADAAAYAABAAAYAADAAAAAAAAAAAA==

> <PUBCHEM_IUPAC_OPENEYE_NAME>
N'-tert-butyl-N'-(3,5-dimethylbenzoyl)-5-methyl-chromane-6-carbohydrazide

> <PUBCHEM_IUPAC_CAS_NAME>
N'-tert-butyl-N'-[(3,5-dimethylphenyl)-oxomethyl]-5-methyl-3,4-dihydro-2H-1-benzopyran-6-carbohydrazide

> <PUBCHEM_IUPAC_NAME>
N'-tert-butyl-N'-(3,5-dimethylbenzoyl)-5-methyl-3,4-dihydro-2H-chromene-6-carbohydrazide

> <PUBCHEM_IUPAC_SYSTEMATIC_NAME>
N'-tert-butyl-N'-(3,5-dimethylphenyl)carbonyl-5-methyl-3,4-dihydro-2H-chromene-6-carbohydrazide

> <PUBCHEM_IUPAC_TRADITIONAL_NAME>
N'-tert-butyl-N'-(3,5-dimethylbenzoyl)-5-methyl-chroman-6-carbohydrazide

> <PUBCHEM_IUPAC_INCHI>
InChI=1S/C24H30N2O3/c1-15-12-16(2)14-18(13-15)23(28)26(24(4,5)6)25-22(27)20-9-10-21-19(17(20)3)8-7-11-29-21/h9-10,12-14H,7-8,11H2,1-6H3,(H,25,27)

> <PUBCHEM_IUPAC_INCHIKEY>
HPNSNYBUADCFDR-UHFFFAOYSA-N

> <PUBCHEM_XLOGP3_AA>
5

> <PUBCHEM_EXACT_MASS>
394.225643

> <PUBCHEM_MOLECULAR_FORMULA>
C24H30N2O3

> <PUBCHEM_MOLECULAR_WEIGHT>
394.5066

> <PUBCHEM_OPENEYE_CAN_SMILES>
CC1=CC(=CC(=C1)C(=O)N(C(C)(C)C)NC(=O)C2=C(C3=C(C=C2)OCCC3)C)C

> <PUBCHEM_OPENEYE_ISO_SMILES>
CC1=CC(=CC(=C1)C(=O)N(C(C)(C)C)NC(=O)C2=C(C3=C(C=C2)OCCC3)C)C

> <PUBCHEM_CACTVS_TPSA>
58.6

> <PUBCHEM_MONOISOTOPIC_WEIGHT>
394.225643

> <PUBCHEM_TOTAL_CHARGE>
0

> <PUBCHEM_HEAVY_ATOM_COUNT>
29

> <PUBCHEM_ATOM_DEF_STEREO_COUNT>
0

> <PUBCHEM_ATOM_UDEF_STEREO_COUNT>
0

> <PUBCHEM_BOND_DEF_STEREO_COUNT>
0

> <PUBCHEM_BOND_UDEF_STEREO_COUNT>
0

> <PUBCHEM_ISOTOPIC_ATOM_COUNT>
0

> <PUBCHEM_COMPONENT_COUNT>
1

> <PUBCHEM_CACTVS_TAUTO_COUNT>
2

> <PUBCHEM_COORDINATE_TYPE>
1
5
255

> <PUBCHEM_BONDANNOTATIONS>
10  15  8
14  19  8
15  20  8
19  20  8
22  23  8
22  24  8
23  25  8
24  26  8
25  27  8
26  27  8
7  10  8
7  14  8

$$$$

