5281867
  -OEChem-07051213002D

 42 46  0     1  0  0  0  0  0999 V2000
    2.0000    1.9204    0.0000 O   0  0  0  0  0  0  0  0  0  0  0  0
    5.1308   -2.8380    0.0000 O   0  0  0  0  0  0  0  0  0  0  0  0
    3.6001   -3.3353    0.0000 O   0  0  0  0  0  0  0  0  0  0  0  0
    2.4612    3.6417    0.0000 O   0  0  0  0  0  0  0  0  0  0  0  0
    7.9930    2.5616    0.0000 O   0  0  0  0  0  0  0  0  0  0  0  0
    7.9930    0.9521    0.0000 O   0  0  0  0  0  0  0  0  0  0  0  0
    3.4782    1.2623    0.0000 C   0  0  1  0  0  0  0  0  0  0  0  0
    4.2213    0.5932    0.0000 C   0  0  0  0  0  0  0  0  0  0  0  0
    2.5000    1.0544    0.0000 C   0  0  0  0  0  0  0  0  0  0  0  0
    3.5827    2.2568    0.0000 C   0  0  0  0  0  0  0  0  0  0  0  0
    4.0134   -0.3850    0.0000 C   0  0  0  0  0  0  0  0  0  0  0  0
    2.6691    2.6636    0.0000 C   0  0  0  0  0  0  0  0  0  0  0  0
    4.4487    2.7568    0.0000 C   0  0  0  0  0  0  0  0  0  0  0  0
    4.7565   -1.0541    0.0000 C   0  0  0  0  0  0  0  0  0  0  0  0
    3.0623   -0.6940    0.0000 C   0  0  0  0  0  0  0  0  0  0  0  0
    5.3147    2.2568    0.0000 C   0  0  0  0  0  0  0  0  0  0  0  0
    4.5486   -2.0322    0.0000 C   0  0  0  0  0  0  0  0  0  0  0  0
    3.5976   -2.3413    0.0000 C   0  0  0  0  0  0  0  0  0  0  0  0
    2.8544   -1.6721    0.0000 C   0  0  0  0  0  0  0  0  0  0  0  0
    6.1808    2.7568    0.0000 C   0  0  0  0  0  0  0  0  0  0  0  0
    5.3147    1.2568    0.0000 C   0  0  0  0  0  0  0  0  0  0  0  0
    7.0468    2.2568    0.0000 C   0  0  0  0  0  0  0  0  0  0  0  0
    7.0468    1.2568    0.0000 C   0  0  0  0  0  0  0  0  0  0  0  0
    4.5458   -3.6417    0.0000 C   0  0  0  0  0  0  0  0  0  0  0  0
    6.1808    0.7568    0.0000 C   0  0  0  0  0  0  0  0  0  0  0  0
    8.5766    1.7568    0.0000 C   0  0  0  0  0  0  0  0  0  0  0  0
    3.3177    0.6634    0.0000 H   0  0  0  0  0  0  0  0  0  0  0  0
    4.7962    0.3609    0.0000 H   0  0  0  0  0  0  0  0  0  0  0  0
    4.5498    1.1190    0.0000 H   0  0  0  0  0  0  0  0  0  0  0  0
    1.9336    0.8022    0.0000 H   0  0  0  0  0  0  0  0  0  0  0  0
    2.6916    0.4647    0.0000 H   0  0  0  0  0  0  0  0  0  0  0  0
    4.4487    3.3768    0.0000 H   0  0  0  0  0  0  0  0  0  0  0  0
    5.3462   -0.8625    0.0000 H   0  0  0  0  0  0  0  0  0  0  0  0
    2.6016   -0.2791    0.0000 H   0  0  0  0  0  0  0  0  0  0  0  0
    2.2648   -1.8637    0.0000 H   0  0  0  0  0  0  0  0  0  0  0  0
    6.1808    3.3768    0.0000 H   0  0  0  0  0  0  0  0  0  0  0  0
    4.7778    0.9468    0.0000 H   0  0  0  0  0  0  0  0  0  0  0  0
    6.1808    0.1368    0.0000 H   0  0  0  0  0  0  0  0  0  0  0  0
    4.2938   -4.2082    0.0000 H   0  0  0  0  0  0  0  0  0  0  0  0
    5.0827   -3.9519    0.0000 H   0  0  0  0  0  0  0  0  0  0  0  0
    9.0375    1.3421    0.0000 H   0  0  0  0  0  0  0  0  0  0  0  0
    9.0375    2.1716    0.0000 H   0  0  0  0  0  0  0  0  0  0  0  0
  1  9  1  0  0  0  0
  1 12  1  0  0  0  0
  2 17  1  0  0  0  0
  2 24  1  0  0  0  0
  3 18  1  0  0  0  0
  3 24  1  0  0  0  0
  4 12  2  0  0  0  0
  5 22  1  0  0  0  0
  5 26  1  0  0  0  0
  6 23  1  0  0  0  0
  6 26  1  0  0  0  0
  7  8  1  1  0  0  0
  7  9  1  0  0  0  0
  7 10  1  0  0  0  0
  7 27  1  0  0  0  0
  8 11  1  0  0  0  0
  8 28  1  0  0  0  0
  8 29  1  0  0  0  0
  9 30  1  0  0  0  0
  9 31  1  0  0  0  0
 10 12  1  0  0  0  0
 10 13  2  0  0  0  0
 11 14  2  0  0  0  0
 11 15  1  0  0  0  0
 13 16  1  0  0  0  0
 13 32  1  0  0  0  0
 14 17  1  0  0  0  0
 14 33  1  0  0  0  0
 15 19  2  0  0  0  0
 15 34  1  0  0  0  0
 16 20  2  0  0  0  0
 16 21  1  0  0  0  0
 17 18  2  0  0  0  0
 18 19  1  0  0  0  0
 19 35  1  0  0  0  0
 20 22  1  0  0  0  0
 20 36  1  0  0  0  0
 21 25  2  0  0  0  0
 21 37  1  0  0  0  0
 22 23  2  0  0  0  0
 23 25  1  0  0  0  0
 24 39  1  0  0  0  0
 24 40  1  0  0  0  0
 25 38  1  0  0  0  0
 26 41  1  0  0  0  0
 26 42  1  0  0  0  0
M  END
> <PUBCHEM_COMPOUND_CID>
5281867

> <PUBCHEM_COMPOUND_CANONICALIZED>
1

> <PUBCHEM_CACTVS_COMPLEXITY>
575

> <PUBCHEM_CACTVS_HBOND_ACCEPTOR>
6

> <PUBCHEM_CACTVS_HBOND_DONOR>
0

> <PUBCHEM_CACTVS_ROTATABLE_BOND>
3

> <PUBCHEM_CACTVS_SUBSKEYS>
AAADceB4OAAAAAAAAAAAAAAAAAAAASJEgAAwYAAAAAAAAEgBQAAAGgAAAAAADQSgmAMwDoAABACIAiDSCAACCAAgIAAIiAEGiMgdJjKEMRqiMCIkwBEOqYeKyPCOIAABAAAAQABAAAIAAACAAAAAAAAAAA==

> <PUBCHEM_IUPAC_OPENEYE_NAME>
(3E,4R)-4-(1,3-benzodioxol-5-ylmethyl)-3-(1,3-benzodioxol-5-ylmethylene)tetrahydrofuran-2-one

> <PUBCHEM_IUPAC_CAS_NAME>
(3E,4R)-4-(1,3-benzodioxol-5-ylmethyl)-3-(1,3-benzodioxol-5-ylmethylidene)-2-oxolanone

> <PUBCHEM_IUPAC_NAME>
(3E,4R)-4-(1,3-benzodioxol-5-ylmethyl)-3-(1,3-benzodioxol-5-ylmethylidene)oxolan-2-one

> <PUBCHEM_IUPAC_SYSTEMATIC_NAME>
(3E,4R)-4-(1,3-benzodioxol-5-ylmethyl)-3-(1,3-benzodioxol-5-ylmethylidene)oxolan-2-one

> <PUBCHEM_IUPAC_TRADITIONAL_NAME>
(3E,4R)-4-piperonyl-3-piperonylidene-tetrahydrofuran-2-one

> <PUBCHEM_IUPAC_INCHI>
InChI=1S/C20H16O6/c21-20-15(6-13-2-4-17-19(8-13)26-11-24-17)14(9-22-20)5-12-1-3-16-18(7-12)25-10-23-16/h1-4,6-8,14H,5,9-11H2/b15-6+/t14-/m0/s1

> <PUBCHEM_IUPAC_INCHIKEY>
CMJGAYUQSLJSCR-ULIPXBITSA-N

> <PUBCHEM_XLOGP3_AA>
3.6

> <PUBCHEM_EXACT_MASS>
352.094688

> <PUBCHEM_MOLECULAR_FORMULA>
C20H16O6

> <PUBCHEM_MOLECULAR_WEIGHT>
352.33744

> <PUBCHEM_OPENEYE_CAN_SMILES>
C1C(C(=CC2=CC3=C(C=C2)OCO3)C(=O)O1)CC4=CC5=C(C=C4)OCO5

> <PUBCHEM_OPENEYE_ISO_SMILES>
C1[C@@H](/C(=C\C2=CC3=C(C=C2)OCO3)/C(=O)O1)CC4=CC5=C(C=C4)OCO5

> <PUBCHEM_CACTVS_TPSA>
63.2

> <PUBCHEM_MONOISOTOPIC_WEIGHT>
352.094688

> <PUBCHEM_TOTAL_CHARGE>
0

> <PUBCHEM_HEAVY_ATOM_COUNT>
26

> <PUBCHEM_ATOM_DEF_STEREO_COUNT>
1

> <PUBCHEM_ATOM_UDEF_STEREO_COUNT>
0

> <PUBCHEM_BOND_DEF_STEREO_COUNT>
1

> <PUBCHEM_BOND_UDEF_STEREO_COUNT>
0

> <PUBCHEM_ISOTOPIC_ATOM_COUNT>
0

> <PUBCHEM_COMPONENT_COUNT>
1

> <PUBCHEM_CACTVS_TAUTO_COUNT>
1

> <PUBCHEM_COORDINATE_TYPE>
1
5
255

> <PUBCHEM_BONDANNOTATIONS>
11  14  8
11  15  8
14  17  8
15  19  8
16  20  8
16  21  8
17  18  8
18  19  8
20  22  8
21  25  8
22  23  8
23  25  8
7  8  5

$$$$

