   Color/Form
        CLEAR OILY LIQUID
   from [1]HSDB

   Odor
        Disagreeable, rancid odor; faint tallow-like odor when
   spectroscopically pure.
   from [2]HSDB

   Boiling Point
        222.2 deg C
   from [3]HSDB

   Melting Point
        -7.17 deg C
   from [4]HSDB

   Corrosivity
        Corrosive
   from [5]HSDB

   Density/Specific Gravity
        0.9181 at 20 deg C/4 deg C
   from [6]HSDB

   Dissociation Constants

     * pKa = 4.4 at 25 deg C
     * pKa = 4.893 at 25 deg C
     * pKa = 4.8 at 25 deg C

   from [7]HSDB

   Heat of Combustion
        -986.1 cal/g at 20 deg C
   from [8]HSDB

   Octanol/Water Partition Coefficient
        log Kow = 2.42
   from [9]HSDB

   Solubilities

     * Solubility in water = 0.2419 g/100 mL water at 15 deg C; soluble in
       ethanol, ether, DMF, dimethyl sulfoxide.
     * SOL IN ACETONE, NITRIC ACID
     * Slightyl soluble in carbon tetrachloride; soluble in acetone
     * In water, 2.82X10+3 mg/L at 25 deg C

   from [10]HSDB

   Spectral Properties

     * Index of refraction: 1.42162 at 20 deg C/D; index of refraction:
       1.4289 at 15 deg C/D
     * Index of 5efraction = 1.4170 at 20 deg C/D
     * SADTLER REF NUMBER: 544 (IR, PRISM)
     * IR: 15277 (Sadtler Research Laboratories IR Grating Collection)
     * 1H NMR: 49 (Sadtler Research Laboratories Spectral Collection)
     * Raman: 411 (Sadtler Research Laboratories Spectral Collection)
     * MASS: 2967 (NIST/EPA/MSDC Mass Spectral database, 1990 version)

   from [11]HSDB

   Vapor Pressure
        1.07X10-2 mm Hg at 25 deg C
   from [12]HSDB

   Viscosity
        3.40 cP at 30 deg C; 0.82 cP at 120 deg C
   from [13]HSDB

   Other Chemical/Physical Properties

     * CONGEALING POINT: -6.26 DEG C; TENDS TO SOLIDIFY IN COLD WEATHER
     * Specific heat = 0.54 cal/g; Interfacial tension against water = 7.0
       dynes/cm.
     * Heat of fusion = 15.0 kJ/mol
     * Henry's Law constant = 6.50X10-7 atm-cu mmol at 25 deg C (est)
     * Hydroxyl radical reaction rate constant = 6.94X10-12 cu
       cm/molec-sec at 25 deg C (est)

   from [14]HSDB

   Computed Properties
   Molecular Weight                  130.18486 [g/mol]
   Molecular Formula                 C[7]H[14]O[2]
   XLogP3                            2.5
   H-Bond Donor                      1
   H-Bond Acceptor                   2
   Rotatable Bond Count              5
   Exact Mass                        130.09938
   MonoIsotopic Mass                 130.09938
   Topological Polar Surface Area    37.3
   Heavy Atom Count                  9
   Formal Charge                     0
   Complexity                        79
   Isotope Atom Count                0
   Defined Atom Stereocenter Count   0
   Undefined Atom Stereocenter Count 0
   Defined Bond Stereocenter Count   0
   Undefined Bond Stereocenter Count 0
   Covalently-Bonded Unit Count      1
   Feature 3D Acceptor Count         2
   Feature 3D Anion Count            1
   Feature 3D Hydrophobe Count       2
   Effective Rotor Count             5
   Conformer Sampling RMSD           0.6
   CID Conformer Count               [15]69

References

   1. http://toxnet.nlm.nih.gov/cgi-bin/sis/search/r?dbs+hsdb:@term+@rn+@rel+111-14-8
   2. http://toxnet.nlm.nih.gov/cgi-bin/sis/search/r?dbs+hsdb:@term+@rn+@rel+111-14-8
   3. http://toxnet.nlm.nih.gov/cgi-bin/sis/search/r?dbs+hsdb:@term+@rn+@rel+111-14-8
   4. http://toxnet.nlm.nih.gov/cgi-bin/sis/search/r?dbs+hsdb:@term+@rn+@rel+111-14-8
   5. http://toxnet.nlm.nih.gov/cgi-bin/sis/search/r?dbs+hsdb:@term+@rn+@rel+111-14-8
   6. http://toxnet.nlm.nih.gov/cgi-bin/sis/search/r?dbs+hsdb:@term+@rn+@rel+111-14-8
   7. http://toxnet.nlm.nih.gov/cgi-bin/sis/search/r?dbs+hsdb:@term+@rn+@rel+111-14-8
   8. http://toxnet.nlm.nih.gov/cgi-bin/sis/search/r?dbs+hsdb:@term+@rn+@rel+111-14-8
   9. http://toxnet.nlm.nih.gov/cgi-bin/sis/search/r?dbs+hsdb:@term+@rn+@rel+111-14-8
  10. http://toxnet.nlm.nih.gov/cgi-bin/sis/search/r?dbs+hsdb:@term+@rn+@rel+111-14-8
  11. http://toxnet.nlm.nih.gov/cgi-bin/sis/search/r?dbs+hsdb:@term+@rn+@rel+111-14-8
  12. http://toxnet.nlm.nih.gov/cgi-bin/sis/search/r?dbs+hsdb:@term+@rn+@rel+111-14-8
  13. http://toxnet.nlm.nih.gov/cgi-bin/sis/search/r?dbs+hsdb:@term+@rn+@rel+111-14-8
  14. http://toxnet.nlm.nih.gov/cgi-bin/sis/search/r?dbs+hsdb:@term+@rn+@rel+111-14-8
  15. http://pubchem.ncbi.nlm.nih.gov/vw3d/vw3d.cgi?cid=8094
