   Color/Form

     * Colorless crystals
     * Small needles

   from [1]HSDB

   Melting Point
        122-123 deg C
   from [2]HSDB

   Density/Specific Gravity
        1.55 g/cu cm @ 20 deg C
   from [3]HSDB

   Octanol/Water Partition Coefficient
        log Kow = 3.43
   from [4]HSDB

   Solubilities

     * In water, about 9 mg/l at pH 5 and 20 deg C.
     * In ethanol 22, ethyl acetate 82, dichloromethane 460, hexane 5,
       toluene 89 (all in g/l at 20 deg C).

   from [5]HSDB

   Other Chemical/Physical Properties

     * Converted to fentin hydroxide (triphenyltin hydroxide) in presence
       of water. Unstable in acids and alkalis at 22 deg C. Decomposed by
       sunlight and atmospheric oxygen.
     * Vapor pressure: 1.43X10-5 mm Hg @ 60 deg C

   from [6]HSDB

   Computed Properties
   Molecular Weight                  409.06572 [g/mol]
   Molecular Formula                 C[20]H[18]O[2]Sn
   H-Bond Donor                      0
   H-Bond Acceptor                   2
   Rotatable Bond Count              5
   Exact Mass                        410.032875
   MonoIsotopic Mass                 410.032875
   Topological Polar Surface Area    26.3
   Heavy Atom Count                  23
   Formal Charge                     0
   Complexity                        332
   Isotope Atom Count                0
   Defined Atom Stereocenter Count   0
   Undefined Atom Stereocenter Count 0
   Defined Bond Stereocenter Count   0
   Undefined Bond Stereocenter Count 0
   Covalently-Bonded Unit Count      1

References

   1. http://toxnet.nlm.nih.gov/cgi-bin/sis/search/r?dbs+hsdb:@term+@rn+@rel+900-95-8
   2. http://toxnet.nlm.nih.gov/cgi-bin/sis/search/r?dbs+hsdb:@term+@rn+@rel+900-95-8
   3. http://toxnet.nlm.nih.gov/cgi-bin/sis/search/r?dbs+hsdb:@term+@rn+@rel+900-95-8
   4. http://toxnet.nlm.nih.gov/cgi-bin/sis/search/r?dbs+hsdb:@term+@rn+@rel+900-95-8
   5. http://toxnet.nlm.nih.gov/cgi-bin/sis/search/r?dbs+hsdb:@term+@rn+@rel+900-95-8
   6. http://toxnet.nlm.nih.gov/cgi-bin/sis/search/r?dbs+hsdb:@term+@rn+@rel+900-95-8
