   Color/Form

     * WHITE TO GREENISH LEAFLETS
     * LEAF IN ALCOHOL, NEEDLES IN BENZENE

   from [1]HSDB

   Boiling Point
        ABOVE 360 DEG C WITH DECOMP
   from [2]HSDB

   Melting Point
        172 DEG C
   from [3]HSDB

   Solubilities

     * PRACTICALLY INSOL IN WATER; SOL IN ALCOHOL, WARM BENZENE, VERY
       SLIGHTLY SOL IN ETHER
     * VERY SOL IN PYRIMIDINE

   from [4]HSDB

   Spectral Properties

     * MAX ABSORPTION (95% ETHANOL): 370 NM, 390 NM SHOULDER (LOG E= 4.28,
       4.36)
     * IR: 8541 (Sadtler Research Laboratories IR Grating Collection)
     * UV: 1681 (Sadtler Research Laboratories Spectral Collection)
     * NMR: 329 (Varian Associates NMR Spectra Catalogue)
     * MASS: 211 (Aldermaston, Eight Peak Index of Mass Spectra, UK)
     * MASS: 1933 (National Bureau of Standards EPA-NIH Mass Spectra Data
       Base, NSRDS-NBS-63)

   from [5]HSDB

   Computed Properties
   Molecular Weight                  268.3535 [g/mol]
   Molecular Formula                 C[17]H[20]N[2]O
   XLogP3                            3.9
   H-Bond Donor                      0
   H-Bond Acceptor                   3
   Rotatable Bond Count              4
   Exact Mass                        268.157563
   MonoIsotopic Mass                 268.157563
   Topological Polar Surface Area    23.6
   Heavy Atom Count                  20
   Formal Charge                     0
   Complexity                        281
   Isotope Atom Count                0
   Defined Atom Stereocenter Count   0
   Undefined Atom Stereocenter Count 0
   Defined Bond Stereocenter Count   0
   Undefined Bond Stereocenter Count 0
   Covalently-Bonded Unit Count      1
   Feature 3D Acceptor Count         1
   Feature 3D Cation Count           2
   Feature 3D Ring Count             2
   Effective Rotor Count             4
   Conformer Sampling RMSD           0.6
   CID Conformer Count               [6]8

References

   1. http://toxnet.nlm.nih.gov/cgi-bin/sis/search/r?dbs+hsdb:@term+@rn+@rel+90-94-8
   2. http://toxnet.nlm.nih.gov/cgi-bin/sis/search/r?dbs+hsdb:@term+@rn+@rel+90-94-8
   3. http://toxnet.nlm.nih.gov/cgi-bin/sis/search/r?dbs+hsdb:@term+@rn+@rel+90-94-8
   4. http://toxnet.nlm.nih.gov/cgi-bin/sis/search/r?dbs+hsdb:@term+@rn+@rel+90-94-8
   5. http://toxnet.nlm.nih.gov/cgi-bin/sis/search/r?dbs+hsdb:@term+@rn+@rel+90-94-8
   6. http://pubchem.ncbi.nlm.nih.gov/vw3d/vw3d.cgi?cid=7031
