115205
  -OEChem-07051213042D

 71 75  0     1  0  0  0  0  0999 V2000
    5.6519    1.6544    0.0000 P   0  0  3  0  0  0  0  0  0  0  0  0
    4.3667    2.8156    0.0000 P   0  0  3  0  0  0  0  0  0  0  0  0
    3.0815    3.9768    0.0000 P   0  0  0  0  0  0  0  0  0  0  0  0
    6.6552   -1.2664    0.0000 O   0  0  0  0  0  0  0  0  0  0  0  0
    9.0049   -0.1827    0.0000 O   0  0  0  0  0  0  0  0  0  0  0  0
    9.0012   -2.3582    0.0000 O   0  0  0  0  0  0  0  0  0  0  0  0
    5.9592    0.7028    0.0000 O   0  0  0  0  0  0  0  0  0  0  0  0
    7.9893    1.2204    0.0000 O   0  0  0  0  0  0  0  0  0  0  0  0
    5.3445    2.6060    0.0000 O   0  0  0  0  0  0  0  0  0  0  0  0
    4.7003    1.3470    0.0000 O   0  0  0  0  0  0  0  0  0  0  0  0
    6.6034    1.9618    0.0000 O   0  0  0  0  0  0  0  0  0  0  0  0
    3.3889    3.0252    0.0000 O   0  0  0  0  0  0  0  0  0  0  0  0
    4.5763    3.7934    0.0000 O   0  0  0  0  0  0  0  0  0  0  0  0
    4.1571    1.8378    0.0000 O   0  0  0  0  0  0  0  0  0  0  0  0
   13.0551    2.7492    0.0000 O   0  0  0  0  0  0  0  0  0  0  0  0
    2.7742    4.9284    0.0000 O   0  0  0  0  0  0  0  0  0  0  0  0
    2.1300    3.6694    0.0000 O   0  0  0  0  0  0  0  0  0  0  0  0
    4.0331    4.2842    0.0000 O   0  0  0  0  0  0  0  0  0  0  0  0
    6.9309   -3.0269    0.0000 N   0  0  0  0  0  0  0  0  0  0  0  0
    6.9309   -4.6364    0.0000 N   0  0  0  0  0  0  0  0  0  0  0  0
    5.1187   -2.8317    0.0000 N   0  0  0  0  0  0  0  0  0  0  0  0
    4.2526   -4.3317    0.0000 N   0  0  0  0  0  0  0  0  0  0  0  0
    5.1187   -5.8317    0.0000 N   0  0  0  0  0  0  0  0  0  0  0  0
    8.1949   -0.7691    0.0000 C   0  0  1  0  0  0  0  0  0  0  0  0
    8.1932   -1.7690    0.0000 C   0  0  2  0  0  0  0  0  0  0  0  0
    7.2444   -0.4584    0.0000 C   0  0  1  0  0  0  0  0  0  0  0  0
    7.2416   -2.0764    0.0000 C   0  0  1  0  0  0  0  0  0  0  0  0
    6.9370    0.4932    0.0000 C   0  0  0  0  0  0  0  0  0  0  0  0
    5.9847   -3.3317    0.0000 C   0  0  0  0  0  0  0  0  0  0  0  0
    7.5145   -3.8317    0.0000 C   0  0  0  0  0  0  0  0  0  0  0  0
    5.9847   -4.3317    0.0000 C   0  0  0  0  0  0  0  0  0  0  0  0
    8.9021    0.8120    0.0000 C   0  0  0  0  0  0  0  0  0  0  0  0
    5.1187   -4.8317    0.0000 C   0  0  0  0  0  0  0  0  0  0  0  0
    9.7122    1.3984    0.0000 C   0  0  0  0  0  0  0  0  0  0  0  0
    4.2526   -3.3317    0.0000 C   0  0  0  0  0  0  0  0  0  0  0  0
   10.6250    0.9901    0.0000 C   0  0  0  0  0  0  0  0  0  0  0  0
    9.6094    2.3931    0.0000 C   0  0  0  0  0  0  0  0  0  0  0  0
   11.4350    1.5765    0.0000 C   0  0  0  0  0  0  0  0  0  0  0  0
   10.4194    2.9795    0.0000 C   0  0  0  0  0  0  0  0  0  0  0  0
   11.3322    2.5712    0.0000 C   0  0  0  0  0  0  0  0  0  0  0  0
   12.1423    3.1576    0.0000 C   0  0  0  0  0  0  0  0  0  0  0  0
   12.0395    4.1523    0.0000 C   0  0  0  0  0  0  0  0  0  0  0  0
   12.8495    4.7387    0.0000 C   0  0  0  0  0  0  0  0  0  0  0  0
   11.1266    4.5606    0.0000 C   0  0  0  0  0  0  0  0  0  0  0  0
   12.7467    5.7334    0.0000 C   0  0  0  0  0  0  0  0  0  0  0  0
   11.0238    5.5553    0.0000 C   0  0  0  0  0  0  0  0  0  0  0  0
   11.8338    6.1417    0.0000 C   0  0  0  0  0  0  0  0  0  0  0  0
    8.7468   -1.0515    0.0000 H   0  0  0  0  0  0  0  0  0  0  0  0
    8.0951   -2.3812    0.0000 H   0  0  0  0  0  0  0  0  0  0  0  0
    6.6322   -0.3603    0.0000 H   0  0  0  0  0  0  0  0  0  0  0  0
    6.6290   -2.1723    0.0000 H   0  0  0  0  0  0  0  0  0  0  0  0
    7.5511    0.5784    0.0000 H   0  0  0  0  0  0  0  0  0  0  0  0
    6.9597    1.1128    0.0000 H   0  0  0  0  0  0  0  0  0  0  0  0
    9.5680   -2.1070    0.0000 H   0  0  0  0  0  0  0  0  0  0  0  0
    8.1345   -3.8317    0.0000 H   0  0  0  0  0  0  0  0  0  0  0  0
    3.7157   -3.0217    0.0000 H   0  0  0  0  0  0  0  0  0  0  0  0
   10.6887    0.3734    0.0000 H   0  0  0  0  0  0  0  0  0  0  0  0
    9.0434    2.6463    0.0000 H   0  0  0  0  0  0  0  0  0  0  0  0
    4.5817   -6.1417    0.0000 H   0  0  0  0  0  0  0  0  0  0  0  0
    5.6556   -6.1417    0.0000 H   0  0  0  0  0  0  0  0  0  0  0  0
    4.5703    0.7408    0.0000 H   0  0  0  0  0  0  0  0  0  0  0  0
   12.0010    1.3233    0.0000 H   0  0  0  0  0  0  0  0  0  0  0  0
   10.3556    3.5962    0.0000 H   0  0  0  0  0  0  0  0  0  0  0  0
    5.1663    3.9839    0.0000 H   0  0  0  0  0  0  0  0  0  0  0  0
   13.4155    4.4855    0.0000 H   0  0  0  0  0  0  0  0  0  0  0  0
   10.6244    4.1970    0.0000 H   0  0  0  0  0  0  0  0  0  0  0  0
   13.2489    6.0969    0.0000 H   0  0  0  0  0  0  0  0  0  0  0  0
   10.4578    5.8084    0.0000 H   0  0  0  0  0  0  0  0  0  0  0  0
   11.7701    6.7584    0.0000 H   0  0  0  0  0  0  0  0  0  0  0  0
    2.1680    5.0583    0.0000 H   0  0  0  0  0  0  0  0  0  0  0  0
    2.0000    3.0632    0.0000 H   0  0  0  0  0  0  0  0  0  0  0  0
  1  7  1  0  0  0  0
  1  9  1  0  0  0  0
  1 10  1  0  0  0  0
  1 11  2  0  0  0  0
  2  9  1  0  0  0  0
  2 12  1  0  0  0  0
  2 13  1  0  0  0  0
  2 14  2  0  0  0  0
  3 12  1  0  0  0  0
  3 16  1  0  0  0  0
  3 17  1  0  0  0  0
  3 18  2  0  0  0  0
  4 26  1  0  0  0  0
  4 27  1  0  0  0  0
 24  5  1  1  0  0  0
  5 32  1  0  0  0  0
 25  6  1  1  0  0  0
  6 54  1  0  0  0  0
  7 28  1  0  0  0  0
  8 32  2  0  0  0  0
 10 61  1  0  0  0  0
 13 64  1  0  0  0  0
 15 41  2  0  0  0  0
 16 70  1  0  0  0  0
 17 71  1  0  0  0  0
 27 19  1  6  0  0  0
 19 29  1  0  0  0  0
 19 30  1  0  0  0  0
 20 30  2  0  0  0  0
 20 31  1  0  0  0  0
 21 29  1  0  0  0  0
 21 35  2  0  0  0  0
 22 33  2  0  0  0  0
 22 35  1  0  0  0  0
 23 33  1  0  0  0  0
 23 59  1  0  0  0  0
 23 60  1  0  0  0  0
 24 25  1  0  0  0  0
 24 26  1  0  0  0  0
 24 48  1  0  0  0  0
 25 27  1  0  0  0  0
 25 49  1  0  0  0  0
 26 28  1  6  0  0  0
 26 50  1  0  0  0  0
 27 51  1  0  0  0  0
 28 52  1  0  0  0  0
 28 53  1  0  0  0  0
 29 31  2  0  0  0  0
 30 55  1  0  0  0  0
 31 33  1  0  0  0  0
 32 34  1  0  0  0  0
 34 36  2  0  0  0  0
 34 37  1  0  0  0  0
 35 56  1  0  0  0  0
 36 38  1  0  0  0  0
 36 57  1  0  0  0  0
 37 39  2  0  0  0  0
 37 58  1  0  0  0  0
 38 40  2  0  0  0  0
 38 62  1  0  0  0  0
 39 40  1  0  0  0  0
 39 63  1  0  0  0  0
 40 41  1  0  0  0  0
 41 42  1  0  0  0  0
 42 43  2  0  0  0  0
 42 44  1  0  0  0  0
 43 45  1  0  0  0  0
 43 65  1  0  0  0  0
 44 46  2  0  0  0  0
 44 66  1  0  0  0  0
 45 47  2  0  0  0  0
 45 67  1  0  0  0  0
 46 47  1  0  0  0  0
 46 68  1  0  0  0  0
 47 69  1  0  0  0  0
M  END
> <PUBCHEM_COMPOUND_CID>
115205

> <PUBCHEM_COMPOUND_CANONICALIZED>
1

> <PUBCHEM_CACTVS_COMPLEXITY>
1280

> <PUBCHEM_CACTVS_HBOND_ACCEPTOR>
19

> <PUBCHEM_CACTVS_HBOND_DONOR>
6

> <PUBCHEM_CACTVS_ROTATABLE_BOND>
13

> <PUBCHEM_CACTVS_SUBSKEYS>
AAADceB7vAMAAAAAAAAAAAAAAAAAAWJAAAA8YIAAAAAAAFgB/AAAHgAQCCAADBzhnwY1+L9MFxCoQ6bzbICCgC01EKAJ2CEoXNiLfjLA/ViedQgvwAPbqaf4+PKOQAAAAAAAAACAAAAAAAAAAAAAAAAAAA==

> <PUBCHEM_IUPAC_OPENEYE_NAME>
[(2R,3S,4R,5R)-5-(6-aminopurin-9-yl)-4-hydroxy-2-[[hydroxy-[hydroxy(phosphonooxy)phosphoryl]oxy-phosphoryl]oxymethyl]tetrahydrofuran-3-yl] 4-benzoylbenzoate

> <PUBCHEM_IUPAC_CAS_NAME>
4-benzoylbenzoic acid [(2R,3S,4R,5R)-5-(6-aminopurin-9-yl)-4-hydroxy-2-[[hydroxy-[hydroxy(phosphonooxy)phosphoryl]oxyphosphoryl]oxymethyl]-3-oxolanyl] ester

> <PUBCHEM_IUPAC_NAME>
[(2R,3S,4R,5R)-5-(6-aminopurin-9-yl)-4-hydroxy-2-[[hydroxy-[hydroxy(phosphonooxy)phosphoryl]oxyphosphoryl]oxymethyl]oxolan-3-yl] 4-benzoylbenzoate

> <PUBCHEM_IUPAC_SYSTEMATIC_NAME>
[(2R,3S,4R,5R)-5-(6-aminopurin-9-yl)-4-oxidanyl-2-[[oxidanyl-[oxidanyl(phosphonooxy)phosphoryl]oxy-phosphoryl]oxymethyl]oxolan-3-yl] 4-(phenylcarbonyl)benzoate

> <PUBCHEM_IUPAC_TRADITIONAL_NAME>
4-benzoylbenzoic acid [(2R,3S,4R,5R)-5-adenin-9-yl-4-hydroxy-2-[[hydroxy-[hydroxy(phosphonooxy)phosphoryl]oxy-phosphoryl]oxymethyl]tetrahydrofuran-3-yl] ester

> <PUBCHEM_IUPAC_INCHI>
InChI=1S/C24H24N5O15P3/c25-21-17-22(27-11-26-21)29(12-28-17)23-19(31)20(16(41-23)10-40-46(36,37)44-47(38,39)43-45(33,34)35)42-24(32)15-8-6-14(7-9-15)18(30)13-4-2-1-3-5-13/h1-9,11-12,16,19-20,23,31H,10H2,(H,36,37)(H,38,39)(H2,25,26,27)(H2,33,34,35)/t16-,19-,20-,23-/m1/s1

> <PUBCHEM_IUPAC_INCHIKEY>
AWJJLYZBWRIBCZ-UGTJMOTHSA-N

> <PUBCHEM_XLOGP3>
-2.1

> <PUBCHEM_EXACT_MASS>
715.048175

> <PUBCHEM_MOLECULAR_FORMULA>
C24H24N5O15P3

> <PUBCHEM_MOLECULAR_WEIGHT>
715.393146

> <PUBCHEM_OPENEYE_CAN_SMILES>
C1=CC=C(C=C1)C(=O)C2=CC=C(C=C2)C(=O)OC3C(OC(C3O)N4C=NC5=C4N=CN=C5N)COP(=O)(O)OP(=O)(O)OP(=O)(O)O

> <PUBCHEM_OPENEYE_ISO_SMILES>
C1=CC=C(C=C1)C(=O)C2=CC=C(C=C2)C(=O)O[C@@H]3[C@H](O[C@H]([C@@H]3O)N4C=NC5=C4N=CN=C5N)COP(=O)(O)OP(=O)(O)OP(=O)(O)O

> <PUBCHEM_CACTVS_TPSA>
302

> <PUBCHEM_MONOISOTOPIC_WEIGHT>
715.048175

> <PUBCHEM_TOTAL_CHARGE>
0

> <PUBCHEM_HEAVY_ATOM_COUNT>
47

> <PUBCHEM_ATOM_DEF_STEREO_COUNT>
4

> <PUBCHEM_ATOM_UDEF_STEREO_COUNT>
0

> <PUBCHEM_BOND_DEF_STEREO_COUNT>
0

> <PUBCHEM_BOND_UDEF_STEREO_COUNT>
0

> <PUBCHEM_ISOTOPIC_ATOM_COUNT>
0

> <PUBCHEM_COMPONENT_COUNT>
1

> <PUBCHEM_CACTVS_TAUTO_COUNT>
3

> <PUBCHEM_COORDINATE_TYPE>
1
5
255

> <PUBCHEM_BONDANNOTATIONS>
27  19  6
19  29  8
19  30  8
20  30  8
20  31  8
21  29  8
21  35  8
22  33  8
22  35  8
26  28  6
29  31  8
31  33  8
34  36  8
34  37  8
36  38  8
37  39  8
38  40  8
39  40  8
42  43  8
42  44  8
43  45  8
44  46  8
45  47  8
46  47  8
24  5  5
25  6  5

$$$$

