   Color/Form

     * Platelets or thick, birefringent rods from alcohol + acetone
     * PLATES FROM ALCOHOL, ACETONE
     * COLORLESS OR WHITE CRYSTALS OR WHITE CRYSTALLINE POWDER
     * White to practically white crystals or crystalline powder.
     * Colorless-white platelets

   from [1]HSDB

   Taste
        BITTER TASTE
   from [2]HSDB

   Boiling Point
        Sublimes
   from [3]HSDB

   Melting Point
        207 deg C
   from [4]HSDB

   pH
        pH of 10% "wt in vol" soln in water: 3.2
   from [5]HSDB

   Solubilities

     * 1 g dissolves in about 4.5 ml water, 90 ml alcohol; sol in
       propylene glycol; sparingly sol in acetone; insol in ether,
       chloroform
     * Soluble in alc, acetone; slightly soluble in other organic
       solvents.
     * In water, 2.2X10+5 mg/l, temp not specified.

   from [6]HSDB

   Spectral Properties

     * Max absorption (0.1 N hydrochloric acid): 290 nm (e= 8400)
     * Max absorption (phosphate buffer, ph 7): 253 nm, 325 nm (e= 3700,
       7100)
     * MAX ABSORPTION (WATER, PH= 7): 253 NM (LOG E= 3.57); 325 NM (LOG E=
       3.85)
     * SADTLER REFERENCE NUMBER: 8085 (IR, PRISM); 30 (IR, GRATING); 92
       (IR, PRISM)
     * IR: 2415 (Coblentz Society Spectral Collection)
     * UV: 38 (Sadtler Research Laboratories Spectral Collection)
     * NMR: 10227 (Sadtler Research Laboratories Spectral Collection)

   from [7]HSDB

   Other Chemical/Physical Properties

     * Decomp @ 205-212 deg C; sublimes; free base melts at 160 deg C
     * Acidic aq soln are stable and may be heated for 30 min @ 120 deg C
       without decomp
     * SOLN ARE ACID TO LITMUS, PH OF ABOUT 3

   from [8]HSDB

   Computed Properties
   Molecular Weight                  169.17784 [g/mol]
   Molecular Formula                 C[8]H[11]NO[3]
   XLogP3                            -0.8
   H-Bond Donor                      3
   H-Bond Acceptor                   4
   Rotatable Bond Count              2
   Tautomer Count                    3
   Exact Mass                        169.073893
   MonoIsotopic Mass                 169.073893
   Topological Polar Surface Area    73.6
   Heavy Atom Count                  12
   Formal Charge                     0
   Complexity                        142
   Isotope Atom Count                0
   Defined Atom Stereocenter Count   0
   Undefined Atom Stereocenter Count 0
   Defined Bond Stereocenter Count   0
   Undefined Bond Stereocenter Count 0
   Covalently-Bonded Unit Count      1
   Feature 3D Acceptor Count         3
   Feature 3D Donor Count            3
   Feature 3D Ring Count             1
   Effective Rotor Count             2
   Conformer Sampling RMSD           0.6
   CID Conformer Count               [9]5

References

   1. http://toxnet.nlm.nih.gov/cgi-bin/sis/search/r?dbs+hsdb:@term+@rn+@rel+58-56-0
   2. http://toxnet.nlm.nih.gov/cgi-bin/sis/search/r?dbs+hsdb:@term+@rn+@rel+58-56-0
   3. http://toxnet.nlm.nih.gov/cgi-bin/sis/search/r?dbs+hsdb:@term+@rn+@rel+58-56-0
   4. http://toxnet.nlm.nih.gov/cgi-bin/sis/search/r?dbs+hsdb:@term+@rn+@rel+58-56-0
   5. http://toxnet.nlm.nih.gov/cgi-bin/sis/search/r?dbs+hsdb:@term+@rn+@rel+58-56-0
   6. http://toxnet.nlm.nih.gov/cgi-bin/sis/search/r?dbs+hsdb:@term+@rn+@rel+58-56-0
   7. http://toxnet.nlm.nih.gov/cgi-bin/sis/search/r?dbs+hsdb:@term+@rn+@rel+58-56-0
   8. http://toxnet.nlm.nih.gov/cgi-bin/sis/search/r?dbs+hsdb:@term+@rn+@rel+58-56-0
   9. http://pubchem.ncbi.nlm.nih.gov/vw3d/vw3d.cgi?cid=1054
