17396274
  -OEChem-06241222552D

 41 43  0     0  0  0  0  0  0999 V2000
    6.8301    5.7694    0.0000 S   0  0  0  0  0  0  0  0  0  0  0  0
    5.4641    2.7306    0.0000 O   0  0  0  0  0  0  0  0  0  0  0  0
    6.3301   -1.7694    0.0000 O   0  0  0  0  0  0  0  0  0  0  0  0
    2.0000   -4.2694    0.0000 O   0  0  0  0  0  0  0  0  0  0  0  0
    4.5981   -1.7694    0.0000 N   0  0  0  0  0  0  0  0  0  0  0  0
    5.5211    4.8184    0.0000 N   0  0  0  0  0  0  0  0  0  0  0  0
    4.5981   -2.7694    0.0000 C   0  0  0  0  0  0  0  0  0  0  0  0
    5.4641   -0.2694    0.0000 C   0  0  0  0  0  0  0  0  0  0  0  0
    3.7320   -4.2694    0.0000 C   0  0  0  0  0  0  0  0  0  0  0  0
    3.7320   -3.2694    0.0000 C   0  0  0  0  0  0  0  0  0  0  0  0
    5.4641    1.7306    0.0000 C   0  0  0  0  0  0  0  0  0  0  0  0
    5.4641   -1.2694    0.0000 C   0  0  0  0  0  0  0  0  0  0  0  0
    6.3301    0.2306    0.0000 C   0  0  0  0  0  0  0  0  0  0  0  0
    4.5981    0.2306    0.0000 C   0  0  0  0  0  0  0  0  0  0  0  0
    5.4641   -3.2694    0.0000 C   0  0  0  0  0  0  0  0  0  0  0  0
    6.3301    1.2306    0.0000 C   0  0  0  0  0  0  0  0  0  0  0  0
    4.5981    1.2306    0.0000 C   0  0  0  0  0  0  0  0  0  0  0  0
    4.5981   -4.7694    0.0000 C   0  0  0  0  0  0  0  0  0  0  0  0
    5.4641   -4.2694    0.0000 C   0  0  0  0  0  0  0  0  0  0  0  0
    6.3301    3.2306    0.0000 C   0  0  0  0  0  0  0  0  0  0  0  0
    2.8660   -4.7694    0.0000 C   0  0  0  0  0  0  0  0  0  0  0  0
    6.3301    4.2306    0.0000 C   0  0  0  0  0  0  0  0  0  0  0  0
    2.8660   -5.7694    0.0000 C   0  0  0  0  0  0  0  0  0  0  0  0
    7.1391    4.8184    0.0000 C   0  0  0  0  0  0  0  0  0  0  0  0
    5.8301    5.7694    0.0000 C   0  0  0  0  0  0  0  0  0  0  0  0
    3.1951   -2.9594    0.0000 H   0  0  0  0  0  0  0  0  0  0  0  0
    4.0611   -1.4594    0.0000 H   0  0  0  0  0  0  0  0  0  0  0  0
    6.8671   -0.0794    0.0000 H   0  0  0  0  0  0  0  0  0  0  0  0
    4.0611   -0.0794    0.0000 H   0  0  0  0  0  0  0  0  0  0  0  0
    6.8671    1.5406    0.0000 H   0  0  0  0  0  0  0  0  0  0  0  0
    4.0611    1.5406    0.0000 H   0  0  0  0  0  0  0  0  0  0  0  0
    6.0010   -2.9594    0.0000 H   0  0  0  0  0  0  0  0  0  0  0  0
    4.5981   -5.3894    0.0000 H   0  0  0  0  0  0  0  0  0  0  0  0
    6.0010   -4.5794    0.0000 H   0  0  0  0  0  0  0  0  0  0  0  0
    6.5422    2.6480    0.0000 H   0  0  0  0  0  0  0  0  0  0  0  0
    6.9407    3.3382    0.0000 H   0  0  0  0  0  0  0  0  0  0  0  0
    2.2460   -5.7694    0.0000 H   0  0  0  0  0  0  0  0  0  0  0  0
    2.8660   -6.3894    0.0000 H   0  0  0  0  0  0  0  0  0  0  0  0
    3.4860   -5.7694    0.0000 H   0  0  0  0  0  0  0  0  0  0  0  0
    7.7288    4.6268    0.0000 H   0  0  0  0  0  0  0  0  0  0  0  0
    5.4657    6.2710    0.0000 H   0  0  0  0  0  0  0  0  0  0  0  0
  1 24  1  0  0  0  0
  1 25  1  0  0  0  0
  2 11  1  0  0  0  0
  2 20  1  0  0  0  0
  3 12  2  0  0  0  0
  4 21  2  0  0  0  0
  5  7  1  0  0  0  0
  5 12  1  0  0  0  0
  5 27  1  0  0  0  0
  6 22  1  0  0  0  0
  6 25  2  0  0  0  0
  7 10  1  0  0  0  0
  7 15  2  0  0  0  0
  8 12  1  0  0  0  0
  8 13  2  0  0  0  0
  8 14  1  0  0  0  0
  9 10  2  0  0  0  0
  9 18  1  0  0  0  0
  9 21  1  0  0  0  0
 10 26  1  0  0  0  0
 11 16  2  0  0  0  0
 11 17  1  0  0  0  0
 13 16  1  0  0  0  0
 13 28  1  0  0  0  0
 14 17  2  0  0  0  0
 14 29  1  0  0  0  0
 15 19  1  0  0  0  0
 15 32  1  0  0  0  0
 16 30  1  0  0  0  0
 17 31  1  0  0  0  0
 18 19  2  0  0  0  0
 18 33  1  0  0  0  0
 19 34  1  0  0  0  0
 20 22  1  0  0  0  0
 20 35  1  0  0  0  0
 20 36  1  0  0  0  0
 21 23  1  0  0  0  0
 22 24  2  0  0  0  0
 23 37  1  0  0  0  0
 23 38  1  0  0  0  0
 23 39  1  0  0  0  0
 24 40  1  0  0  0  0
 25 41  1  0  0  0  0
M  END
> <PUBCHEM_COMPOUND_CID>
17396274

> <PUBCHEM_COMPOUND_CANONICALIZED>
1

> <PUBCHEM_CACTVS_COMPLEXITY>
466

> <PUBCHEM_CACTVS_HBOND_ACCEPTOR>
5

> <PUBCHEM_CACTVS_HBOND_DONOR>
1

> <PUBCHEM_CACTVS_ROTATABLE_BOND>
6

> <PUBCHEM_CACTVS_SUBSKEYS>
AAADceB7MABAAAAAAAAAAAAAAAAAAWAAAAAwYAAAAAAAAAAB0AAAHgQQAAAADAyl3ga2x5LIFAisA6VzVASC+KB1KjgIyBUebMgOJjLktZuHOSjk1BHY6Yec3ILOIAAAQAAAAABAAACAAAAAAAAAAAAAAA==

> <PUBCHEM_IUPAC_OPENEYE_NAME>
N-(3-acetylphenyl)-4-(thiazol-4-ylmethoxy)benzamide

> <PUBCHEM_IUPAC_CAS_NAME>
N-(3-acetylphenyl)-4-(4-thiazolylmethoxy)benzamide

> <PUBCHEM_IUPAC_NAME>
N-(3-acetylphenyl)-4-(1,3-thiazol-4-ylmethoxy)benzamide

> <PUBCHEM_IUPAC_SYSTEMATIC_NAME>
N-(3-ethanoylphenyl)-4-(1,3-thiazol-4-ylmethoxy)benzamide

> <PUBCHEM_IUPAC_TRADITIONAL_NAME>
N-(3-acetylphenyl)-4-(thiazol-4-ylmethoxy)benzamide

> <PUBCHEM_IUPAC_INCHI>
InChI=1S/C19H16N2O3S/c1-13(22)15-3-2-4-16(9-15)21-19(23)14-5-7-18(8-6-14)24-10-17-11-25-12-20-17/h2-9,11-12H,10H2,1H3,(H,21,23)

> <PUBCHEM_IUPAC_INCHIKEY>
PTZZQQMRZBPVLM-UHFFFAOYSA-N

> <PUBCHEM_XLOGP3_AA>
3

> <PUBCHEM_EXACT_MASS>
352.088163

> <PUBCHEM_MOLECULAR_FORMULA>
C19H16N2O3S

> <PUBCHEM_MOLECULAR_WEIGHT>
352.40694

> <PUBCHEM_OPENEYE_CAN_SMILES>
CC(=O)C1=CC(=CC=C1)NC(=O)C2=CC=C(C=C2)OCC3=CSC=N3

> <PUBCHEM_OPENEYE_ISO_SMILES>
CC(=O)C1=CC(=CC=C1)NC(=O)C2=CC=C(C=C2)OCC3=CSC=N3

> <PUBCHEM_CACTVS_TPSA>
96.5

> <PUBCHEM_MONOISOTOPIC_WEIGHT>
352.088163

> <PUBCHEM_TOTAL_CHARGE>
0

> <PUBCHEM_HEAVY_ATOM_COUNT>
25

> <PUBCHEM_ATOM_DEF_STEREO_COUNT>
0

> <PUBCHEM_ATOM_UDEF_STEREO_COUNT>
0

> <PUBCHEM_BOND_DEF_STEREO_COUNT>
0

> <PUBCHEM_BOND_UDEF_STEREO_COUNT>
0

> <PUBCHEM_ISOTOPIC_ATOM_COUNT>
0

> <PUBCHEM_COMPONENT_COUNT>
1

> <PUBCHEM_CACTVS_TAUTO_COUNT>
4

> <PUBCHEM_COORDINATE_TYPE>
1
5
255

> <PUBCHEM_BONDANNOTATIONS>
1  24  8
1  25  8
11  16  8
11  17  8
13  16  8
14  17  8
15  19  8
18  19  8
22  24  8
6  22  8
6  25  8
7  10  8
7  15  8
8  13  8
8  14  8
9  10  8
9  18  8

$$$$

