   Color/Form
        Crystals from benzene
   from [1]HSDB

   Melting Point
        181-183 deg C
   from [2]HSDB

   Dissociation Constants
        pKa = 11.16 (tertiary imidazoline nitrogen); pKa = 10.87 (phenol)
   (est)
   from [3]HSDB

   Octanol/Water Partition Coefficient
        log Kow = 4.87 (est)
   from [4]HSDB

   Solubilities

     * Insoluble in diethyl ether, chloroform, and benzene
     * In water, 1.4 mg/L at 25 deg C (est)

   from [5]HSDB

   Spectral Properties
        Intense mass spectral peaks: 81 m/z, 217 m/z, 245 m/z, 260 m/z
   from [6]HSDB

   Vapor Pressure
        1.8X10-9 mm Hg at 25 deg C (est)
   from [7]HSDB

   Other Chemical/Physical Properties

     * Henry's Law constant = 1.7X10-11 atm-cu m/mol at 25 deg C (est)
     * Hydroxyl radical reaction rate constant = 9.7X10-11 cu
       cm/molecule-sec at 25 deg C (est)
     * ODORLESS; WHITE TO NEARLY WHITE, FINE, CRYSTALLINE POWDER; SOL IN
       ALC
     * Mol wt 296.84. Crystals, dec 300-303 deg C. Freely sol in water,
       alcohol. Practically insol in ether, chloroform, benzene
       /Hydrochloride/

   from [8]HSDB

   Computed Properties
   Molecular Weight                  260.37456 [g/mol]
   Molecular Formula                 C[16]H[24]N[2]O
   XLogP3-AA                         2.9
   H-Bond Donor                      2
   H-Bond Acceptor                   2
   Rotatable Bond Count              3
   Tautomer Count                    13
   Exact Mass                        260.188863
   MonoIsotopic Mass                 260.188863
   Topological Polar Surface Area    44.6
   Heavy Atom Count                  19
   Formal Charge                     0
   Complexity                        345
   Isotope Atom Count                0
   Defined Atom Stereocenter Count   0
   Undefined Atom Stereocenter Count 0
   Defined Bond Stereocenter Count   0
   Undefined Bond Stereocenter Count 0
   Covalently-Bonded Unit Count      1
   Feature 3D Donor Count            2
   Feature 3D Cation Count           1
   Feature 3D Hydrophobe Count       1
   Feature 3D Ring Count             2
   Effective Rotor Count             3.6
   Conformer Sampling RMSD           0.6
   CID Conformer Count               [9]6

References

   1. http://toxnet.nlm.nih.gov/cgi-bin/sis/search/r?dbs+hsdb:@term+@rn+@rel+1491-59-4
   2. http://toxnet.nlm.nih.gov/cgi-bin/sis/search/r?dbs+hsdb:@term+@rn+@rel+1491-59-4
   3. http://toxnet.nlm.nih.gov/cgi-bin/sis/search/r?dbs+hsdb:@term+@rn+@rel+1491-59-4
   4. http://toxnet.nlm.nih.gov/cgi-bin/sis/search/r?dbs+hsdb:@term+@rn+@rel+1491-59-4
   5. http://toxnet.nlm.nih.gov/cgi-bin/sis/search/r?dbs+hsdb:@term+@rn+@rel+1491-59-4
   6. http://toxnet.nlm.nih.gov/cgi-bin/sis/search/r?dbs+hsdb:@term+@rn+@rel+1491-59-4
   7. http://toxnet.nlm.nih.gov/cgi-bin/sis/search/r?dbs+hsdb:@term+@rn+@rel+1491-59-4
   8. http://toxnet.nlm.nih.gov/cgi-bin/sis/search/r?dbs+hsdb:@term+@rn+@rel+1491-59-4
   9. http://pubchem.ncbi.nlm.nih.gov/vw3d/vw3d.cgi?cid=4636
