5281523
  -OEChem-07051212582D

 45 45  0     1  0  0  0  0  0999 V2000
    3.3660    1.1830    0.0000 O   0  0  0  0  0  0  0  0  0  0  0  0
   12.5263    0.3170    0.0000 O   0  0  0  0  0  0  0  0  0  0  0  0
   11.6603   -1.1830    0.0000 O   0  0  0  0  0  0  0  0  0  0  0  0
    2.8660    0.3170    0.0000 C   0  0  0  0  0  0  0  0  0  0  0  0
    3.8660    0.3170    0.0000 C   0  0  1  0  0  0  0  0  0  0  0  0
    4.7320   -0.1830    0.0000 C   0  0  0  0  0  0  0  0  0  0  0  0
    2.0000    0.8170    0.0000 C   0  0  0  0  0  0  0  0  0  0  0  0
    2.8660   -0.6830    0.0000 C   0  0  0  0  0  0  0  0  0  0  0  0
    5.5981    0.3170    0.0000 C   0  0  0  0  0  0  0  0  0  0  0  0
    6.4641   -0.1830    0.0000 C   0  0  0  0  0  0  0  0  0  0  0  0
    7.3301    0.3170    0.0000 C   0  0  0  0  0  0  0  0  0  0  0  0
    6.4641   -1.1830    0.0000 C   0  0  0  0  0  0  0  0  0  0  0  0
    8.1962   -0.1830    0.0000 C   0  0  0  0  0  0  0  0  0  0  0  0
    9.0622    0.3170    0.0000 C   0  0  0  0  0  0  0  0  0  0  0  0
    9.9282   -0.1830    0.0000 C   0  0  0  0  0  0  0  0  0  0  0  0
    9.9282   -1.1830    0.0000 C   0  0  0  0  0  0  0  0  0  0  0  0
   10.7942    0.3170    0.0000 C   0  0  0  0  0  0  0  0  0  0  0  0
   11.6603   -0.1830    0.0000 C   0  0  0  0  0  0  0  0  0  0  0  0
   13.3923   -0.1830    0.0000 C   0  0  0  0  0  0  0  0  0  0  0  0
    4.3044    0.7554    0.0000 H   0  0  0  0  0  0  0  0  0  0  0  0
    4.3335   -0.6580    0.0000 H   0  0  0  0  0  0  0  0  0  0  0  0
    5.1306   -0.6580    0.0000 H   0  0  0  0  0  0  0  0  0  0  0  0
    2.3100    1.3539    0.0000 H   0  0  0  0  0  0  0  0  0  0  0  0
    1.4631    1.1270    0.0000 H   0  0  0  0  0  0  0  0  0  0  0  0
    1.6900    0.2801    0.0000 H   0  0  0  0  0  0  0  0  0  0  0  0
    2.2460   -0.6830    0.0000 H   0  0  0  0  0  0  0  0  0  0  0  0
    2.8660   -1.3030    0.0000 H   0  0  0  0  0  0  0  0  0  0  0  0
    3.4860   -0.6830    0.0000 H   0  0  0  0  0  0  0  0  0  0  0  0
    5.9966    0.7919    0.0000 H   0  0  0  0  0  0  0  0  0  0  0  0
    5.1996    0.7919    0.0000 H   0  0  0  0  0  0  0  0  0  0  0  0
    7.3301    0.9370    0.0000 H   0  0  0  0  0  0  0  0  0  0  0  0
    5.8441   -1.1830    0.0000 H   0  0  0  0  0  0  0  0  0  0  0  0
    6.4641   -1.8030    0.0000 H   0  0  0  0  0  0  0  0  0  0  0  0
    7.0841   -1.1830    0.0000 H   0  0  0  0  0  0  0  0  0  0  0  0
    7.7976   -0.6580    0.0000 H   0  0  0  0  0  0  0  0  0  0  0  0
    8.5947   -0.6580    0.0000 H   0  0  0  0  0  0  0  0  0  0  0  0
    9.4607    0.7919    0.0000 H   0  0  0  0  0  0  0  0  0  0  0  0
    8.6636    0.7919    0.0000 H   0  0  0  0  0  0  0  0  0  0  0  0
    9.3082   -1.1830    0.0000 H   0  0  0  0  0  0  0  0  0  0  0  0
    9.9282   -1.8030    0.0000 H   0  0  0  0  0  0  0  0  0  0  0  0
   10.5482   -1.1830    0.0000 H   0  0  0  0  0  0  0  0  0  0  0  0
   10.7942    0.9370    0.0000 H   0  0  0  0  0  0  0  0  0  0  0  0
   13.0823   -0.7199    0.0000 H   0  0  0  0  0  0  0  0  0  0  0  0
   13.9292   -0.4930    0.0000 H   0  0  0  0  0  0  0  0  0  0  0  0
   13.7023    0.3539    0.0000 H   0  0  0  0  0  0  0  0  0  0  0  0
  1  4  1  0  0  0  0
  1  5  1  0  0  0  0
  2 18  1  0  0  0  0
  2 19  1  0  0  0  0
  3 18  2  0  0  0  0
  4  5  1  0  0  0  0
  4  7  1  0  0  0  0
  4  8  1  0  0  0  0
  5  6  1  6  0  0  0
  5 20  1  0  0  0  0
  6  9  1  0  0  0  0
  6 21  1  0  0  0  0
  6 22  1  0  0  0  0
  7 23  1  0  0  0  0
  7 24  1  0  0  0  0
  7 25  1  0  0  0  0
  8 26  1  0  0  0  0
  8 27  1  0  0  0  0
  8 28  1  0  0  0  0
  9 10  1  0  0  0  0
  9 29  1  0  0  0  0
  9 30  1  0  0  0  0
 10 11  2  0  0  0  0
 10 12  1  0  0  0  0
 11 13  1  0  0  0  0
 11 31  1  0  0  0  0
 12 32  1  0  0  0  0
 12 33  1  0  0  0  0
 12 34  1  0  0  0  0
 13 14  1  0  0  0  0
 13 35  1  0  0  0  0
 13 36  1  0  0  0  0
 14 15  1  0  0  0  0
 14 37  1  0  0  0  0
 14 38  1  0  0  0  0
 15 16  1  0  0  0  0
 15 17  2  0  0  0  0
 16 39  1  0  0  0  0
 16 40  1  0  0  0  0
 16 41  1  0  0  0  0
 17 18  1  0  0  0  0
 17 42  1  0  0  0  0
 19 43  1  0  0  0  0
 19 44  1  0  0  0  0
 19 45  1  0  0  0  0
M  END
> <PUBCHEM_COMPOUND_CID>
5281523

> <PUBCHEM_COMPOUND_CANONICALIZED>
1

> <PUBCHEM_CACTVS_COMPLEXITY>
378

> <PUBCHEM_CACTVS_HBOND_ACCEPTOR>
3

> <PUBCHEM_CACTVS_HBOND_DONOR>
0

> <PUBCHEM_CACTVS_ROTATABLE_BOND>
8

> <PUBCHEM_CACTVS_SUBSKEYS>
AAADceB4MAAAAAAAAAAAAAAAEgAAAAAAAAAAAAAAAAAAAAAAAAAAGgAAAAAADFSggAICCAAABACIAiDSCAAAAAAgAAAACAAAAEgABAIAIQACEAAEgAAIIQOAwEAMAAAAAAAAAAAAAAAAAAAAAAAAAAAAAA==

> <PUBCHEM_IUPAC_OPENEYE_NAME>
methyl (2E,6E)-9-[(2R)-3,3-dimethyloxiran-2-yl]-3,7-dimethyl-nona-2,6-dienoate

> <PUBCHEM_IUPAC_CAS_NAME>
(2E,6E)-9-[(2R)-3,3-dimethyl-2-oxiranyl]-3,7-dimethylnona-2,6-dienoic acid methyl ester

> <PUBCHEM_IUPAC_NAME>
methyl (2E,6E)-9-[(2R)-3,3-dimethyloxiran-2-yl]-3,7-dimethylnona-2,6-dienoate

> <PUBCHEM_IUPAC_SYSTEMATIC_NAME>
methyl (2E,6E)-9-[(2R)-3,3-dimethyloxiran-2-yl]-3,7-dimethyl-nona-2,6-dienoate

> <PUBCHEM_IUPAC_TRADITIONAL_NAME>
(2E,6E)-9-[(2R)-3,3-dimethyloxiran-2-yl]-3,7-dimethyl-nona-2,6-dienoic acid methyl ester

> <PUBCHEM_IUPAC_INCHI>
InChI=1S/C16H26O3/c1-12(9-10-14-16(3,4)19-14)7-6-8-13(2)11-15(17)18-5/h7,11,14H,6,8-10H2,1-5H3/b12-7+,13-11+/t14-/m1/s1

> <PUBCHEM_IUPAC_INCHIKEY>
QVJMXSGZTCGLHZ-HONBPKQLSA-N

> <PUBCHEM_XLOGP3_AA>
4

> <PUBCHEM_EXACT_MASS>
266.188195

> <PUBCHEM_MOLECULAR_FORMULA>
C16H26O3

> <PUBCHEM_MOLECULAR_WEIGHT>
266.37584

> <PUBCHEM_OPENEYE_CAN_SMILES>
CC(=CCCC(=CC(=O)OC)C)CCC1C(O1)(C)C

> <PUBCHEM_OPENEYE_ISO_SMILES>
C/C(=C\CC/C(=C/C(=O)OC)/C)/CC[C@@H]1C(O1)(C)C

> <PUBCHEM_CACTVS_TPSA>
38.8

> <PUBCHEM_MONOISOTOPIC_WEIGHT>
266.188195

> <PUBCHEM_TOTAL_CHARGE>
0

> <PUBCHEM_HEAVY_ATOM_COUNT>
19

> <PUBCHEM_ATOM_DEF_STEREO_COUNT>
1

> <PUBCHEM_ATOM_UDEF_STEREO_COUNT>
0

> <PUBCHEM_BOND_DEF_STEREO_COUNT>
2

> <PUBCHEM_BOND_UDEF_STEREO_COUNT>
0

> <PUBCHEM_ISOTOPIC_ATOM_COUNT>
0

> <PUBCHEM_COMPONENT_COUNT>
1

> <PUBCHEM_CACTVS_TAUTO_COUNT>
1

> <PUBCHEM_COORDINATE_TYPE>
1
5
255

> <PUBCHEM_BONDANNOTATIONS>
5  6  6

$$$$

