   Color/Form

     * WHITE CRYSTALLINE SOLID
     * Colorless solid

   from [1]HSDB

   Odor
        ODORLESS
   from [2]HSDB

   Melting Point
        101-103 deg C
   from [3]HSDB

   Solubilities

     * IN WATER 4%; SOL IN ACETONE, CHLOROFORM, METHANOL, METHYLENE
       CHLORIDE
     * INSOL IN NON-POLAR SOLVENTS
     * Water solubility ca. 30 g/L
     * Water solubility = 50,000 mg/L [Shiu WY et al; Rev Environ Contam
       Toxicol 116: 15-187 (1990)] [4]PubMed Abstract

   from [5]HSDB

   Vapor Pressure
        VERY LOW
   from [6]HSDB

   Other Chemical/Physical Properties
        Slightly volatile
   from [7]HSDB

   Computed Properties
   Molecular Weight                  200.174782 [g/mol]
   Molecular Formula                 C[8]H[13]N[2]O[2]P
   XLogP3-AA                         0.8
   H-Bond Donor                      2
   H-Bond Acceptor                   4
   Rotatable Bond Count              4
   Tautomer Count                    2
   Exact Mass                        200.071464
   MonoIsotopic Mass                 200.071464
   Topological Polar Surface Area    50.4
   Heavy Atom Count                  13
   Formal Charge                     0
   Complexity                        185
   Isotope Atom Count                0
   Defined Atom Stereocenter Count   0
   Undefined Atom Stereocenter Count 0
   Defined Bond Stereocenter Count   0
   Undefined Bond Stereocenter Count 0
   Covalently-Bonded Unit Count      1
   Feature 3D Ring Count             1
   Effective Rotor Count             4
   Conformer Sampling RMSD           0.6
   CID Conformer Count               [8]22

References

   1. http://toxnet.nlm.nih.gov/cgi-bin/sis/search/r?dbs+hsdb:@term+@rn+@rel+1754-58-1
   2. http://toxnet.nlm.nih.gov/cgi-bin/sis/search/r?dbs+hsdb:@term+@rn+@rel+1754-58-1
   3. http://toxnet.nlm.nih.gov/cgi-bin/sis/search/r?dbs+hsdb:@term+@rn+@rel+1754-58-1
   4. http://www.ncbi.nlm.nih.gov/entrez/query.fcgi?cmd=Retrieve&db=pubmed&dopt=Abstract&list_uids=2205893
   5. http://toxnet.nlm.nih.gov/cgi-bin/sis/search/r?dbs+hsdb:@term+@rn+@rel+1754-58-1
   6. http://toxnet.nlm.nih.gov/cgi-bin/sis/search/r?dbs+hsdb:@term+@rn+@rel+1754-58-1
   7. http://toxnet.nlm.nih.gov/cgi-bin/sis/search/r?dbs+hsdb:@term+@rn+@rel+1754-58-1
   8. http://pubchem.ncbi.nlm.nih.gov/vw3d/vw3d.cgi?cid=15643
