17395268
  -OEChem-06241222492D

 63 66  0     0  0  0  0  0  0999 V2000
   11.5263    0.7306    0.0000 S   0  0  0  0  0  0  0  0  0  0  0  0
   12.5263    0.7306    0.0000 O   0  0  0  0  0  0  0  0  0  0  0  0
   10.5263    0.7306    0.0000 O   0  0  0  0  0  0  0  0  0  0  0  0
    9.7942   -3.2694    0.0000 O   0  0  0  0  0  0  0  0  0  0  0  0
   11.5263    1.7306    0.0000 N   0  0  0  0  0  0  0  0  0  0  0  0
    8.9282   -1.7694    0.0000 N   0  0  0  0  0  0  0  0  0  0  0  0
    7.1962   -0.7694    0.0000 N   0  0  0  0  0  0  0  0  0  0  0  0
   12.3353    2.3184    0.0000 C   0  0  0  0  0  0  0  0  0  0  0  0
   10.7173    2.3184    0.0000 C   0  0  0  0  0  0  0  0  0  0  0  0
   12.0263    3.2694    0.0000 C   0  0  0  0  0  0  0  0  0  0  0  0
   11.0263    3.2694    0.0000 C   0  0  0  0  0  0  0  0  0  0  0  0
    8.9282   -0.7694    0.0000 C   0  0  0  0  0  0  0  0  0  0  0  0
    8.0622   -2.2694    0.0000 C   0  0  0  0  0  0  0  0  0  0  0  0
    8.0622   -0.2694    0.0000 C   0  0  0  0  0  0  0  0  0  0  0  0
    7.1962   -1.7694    0.0000 C   0  0  0  0  0  0  0  0  0  0  0  0
   11.5263   -0.2694    0.0000 C   0  0  0  0  0  0  0  0  0  0  0  0
    9.7942   -2.2694    0.0000 C   0  0  0  0  0  0  0  0  0  0  0  0
   10.6603   -1.7694    0.0000 C   0  0  0  0  0  0  0  0  0  0  0  0
    6.3301   -0.2694    0.0000 C   0  0  0  0  0  0  0  0  0  0  0  0
   10.6603   -0.7694    0.0000 C   0  0  0  0  0  0  0  0  0  0  0  0
   12.3923   -0.7694    0.0000 C   0  0  0  0  0  0  0  0  0  0  0  0
   11.5263   -2.2694    0.0000 C   0  0  0  0  0  0  0  0  0  0  0  0
   12.3923   -1.7694    0.0000 C   0  0  0  0  0  0  0  0  0  0  0  0
    5.4641   -0.7694    0.0000 C   0  0  0  0  0  0  0  0  0  0  0  0
   11.5263   -3.2694    0.0000 C   0  0  0  0  0  0  0  0  0  0  0  0
    4.5981   -0.2694    0.0000 C   0  0  0  0  0  0  0  0  0  0  0  0
    3.7320   -0.7694    0.0000 C   0  0  0  0  0  0  0  0  0  0  0  0
    2.8660   -0.2694    0.0000 C   0  0  0  0  0  0  0  0  0  0  0  0
    3.7320   -1.7694    0.0000 C   0  0  0  0  0  0  0  0  0  0  0  0
    2.0000   -0.7694    0.0000 C   0  0  0  0  0  0  0  0  0  0  0  0
    2.8660   -2.2694    0.0000 C   0  0  0  0  0  0  0  0  0  0  0  0
    2.0000   -1.7694    0.0000 C   0  0  0  0  0  0  0  0  0  0  0  0
   12.6453    1.7814    0.0000 H   0  0  0  0  0  0  0  0  0  0  0  0
   12.9017    2.5705    0.0000 H   0  0  0  0  0  0  0  0  0  0  0  0
   10.1509    2.5705    0.0000 H   0  0  0  0  0  0  0  0  0  0  0  0
   10.4073    1.7814    0.0000 H   0  0  0  0  0  0  0  0  0  0  0  0
   12.6327    3.3983    0.0000 H   0  0  0  0  0  0  0  0  0  0  0  0
   11.9615    3.8860    0.0000 H   0  0  0  0  0  0  0  0  0  0  0  0
   11.0911    3.8860    0.0000 H   0  0  0  0  0  0  0  0  0  0  0  0
   10.4198    3.3983    0.0000 H   0  0  0  0  0  0  0  0  0  0  0  0
    9.5388   -0.8771    0.0000 H   0  0  0  0  0  0  0  0  0  0  0  0
    9.1403   -0.1868    0.0000 H   0  0  0  0  0  0  0  0  0  0  0  0
    7.6636   -2.7444    0.0000 H   0  0  0  0  0  0  0  0  0  0  0  0
    8.4607   -2.7444    0.0000 H   0  0  0  0  0  0  0  0  0  0  0  0
    6.5856   -1.6618    0.0000 H   0  0  0  0  0  0  0  0  0  0  0  0
    6.9841   -2.3520    0.0000 H   0  0  0  0  0  0  0  0  0  0  0  0
    8.4607    0.2055    0.0000 H   0  0  0  0  0  0  0  0  0  0  0  0
    7.6636    0.2055    0.0000 H   0  0  0  0  0  0  0  0  0  0  0  0
    6.7287    0.2055    0.0000 H   0  0  0  0  0  0  0  0  0  0  0  0
    5.9316    0.2055    0.0000 H   0  0  0  0  0  0  0  0  0  0  0  0
   10.1233   -0.4594    0.0000 H   0  0  0  0  0  0  0  0  0  0  0  0
   12.9292   -0.4594    0.0000 H   0  0  0  0  0  0  0  0  0  0  0  0
   12.9292   -2.0794    0.0000 H   0  0  0  0  0  0  0  0  0  0  0  0
    5.4641   -1.3894    0.0000 H   0  0  0  0  0  0  0  0  0  0  0  0
   10.9063   -3.2694    0.0000 H   0  0  0  0  0  0  0  0  0  0  0  0
   11.5263   -3.8894    0.0000 H   0  0  0  0  0  0  0  0  0  0  0  0
   12.1463   -3.2694    0.0000 H   0  0  0  0  0  0  0  0  0  0  0  0
    4.5981    0.3506    0.0000 H   0  0  0  0  0  0  0  0  0  0  0  0
    2.8660    0.3506    0.0000 H   0  0  0  0  0  0  0  0  0  0  0  0
    4.2690   -2.0794    0.0000 H   0  0  0  0  0  0  0  0  0  0  0  0
    1.4631   -0.4594    0.0000 H   0  0  0  0  0  0  0  0  0  0  0  0
    2.8660   -2.8894    0.0000 H   0  0  0  0  0  0  0  0  0  0  0  0
    1.4631   -2.0794    0.0000 H   0  0  0  0  0  0  0  0  0  0  0  0
  1  2  2  0  0  0  0
  1  3  2  0  0  0  0
  1  5  1  0  0  0  0
  1 16  1  0  0  0  0
  4 17  2  0  0  0  0
  5  8  1  0  0  0  0
  5  9  1  0  0  0  0
  6 12  1  0  0  0  0
  6 13  1  0  0  0  0
  6 17  1  0  0  0  0
  7 14  1  0  0  0  0
  7 15  1  0  0  0  0
  7 19  1  0  0  0  0
  8 10  1  0  0  0  0
  8 33  1  0  0  0  0
  8 34  1  0  0  0  0
  9 11  1  0  0  0  0
  9 35  1  0  0  0  0
  9 36  1  0  0  0  0
 10 11  1  0  0  0  0
 10 37  1  0  0  0  0
 10 38  1  0  0  0  0
 11 39  1  0  0  0  0
 11 40  1  0  0  0  0
 12 14  1  0  0  0  0
 12 41  1  0  0  0  0
 12 42  1  0  0  0  0
 13 15  1  0  0  0  0
 13 43  1  0  0  0  0
 13 44  1  0  0  0  0
 14 47  1  0  0  0  0
 14 48  1  0  0  0  0
 15 45  1  0  0  0  0
 15 46  1  0  0  0  0
 16 20  2  0  0  0  0
 16 21  1  0  0  0  0
 17 18  1  0  0  0  0
 18 20  1  0  0  0  0
 18 22  2  0  0  0  0
 19 24  1  0  0  0  0
 19 49  1  0  0  0  0
 19 50  1  0  0  0  0
 20 51  1  0  0  0  0
 21 23  2  0  0  0  0
 21 52  1  0  0  0  0
 22 23  1  0  0  0  0
 22 25  1  0  0  0  0
 23 53  1  0  0  0  0
 24 26  2  0  0  0  0
 24 54  1  0  0  0  0
 25 55  1  0  0  0  0
 25 56  1  0  0  0  0
 25 57  1  0  0  0  0
 26 27  1  0  0  0  0
 26 58  1  0  0  0  0
 27 28  2  0  0  0  0
 27 29  1  0  0  0  0
 28 30  1  0  0  0  0
 28 59  1  0  0  0  0
 29 31  2  0  0  0  0
 29 60  1  0  0  0  0
 30 32  2  0  0  0  0
 30 61  1  0  0  0  0
 31 32  1  0  0  0  0
 31 62  1  0  0  0  0
 32 63  1  0  0  0  0
M  END
> <PUBCHEM_COMPOUND_CID>
17395268

> <PUBCHEM_COMPOUND_CANONICALIZED>
1

> <PUBCHEM_CACTVS_COMPLEXITY>
743

> <PUBCHEM_CACTVS_HBOND_ACCEPTOR>
5

> <PUBCHEM_CACTVS_HBOND_DONOR>
0

> <PUBCHEM_CACTVS_ROTATABLE_BOND>
6

> <PUBCHEM_CACTVS_SUBSKEYS>
AAADceB7MABAAAAAAAAAAAAAAAAAAWAAAAA8YIAAAAAAAAABQAAAHgQAQAAADADB2AQyAYMAAAKIAiFSEHDCABAkAAAIiBkIBMgIYDKAlRGUIQhghgCIiYcYiICOkAAAgAAQAAAgAAEAACAAAAAAAAAAAA==

> <PUBCHEM_IUPAC_OPENEYE_NAME>
[4-[(E)-cinnamyl]piperazin-1-yl]-(2-methyl-5-pyrrolidin-1-ylsulfonyl-phenyl)methanone

> <PUBCHEM_IUPAC_CAS_NAME>
[2-methyl-5-(1-pyrrolidinylsulfonyl)phenyl]-[4-[(E)-3-phenylprop-2-enyl]-1-piperazinyl]methanone

> <PUBCHEM_IUPAC_NAME>
(2-methyl-5-pyrrolidin-1-ylsulfonylphenyl)-[4-[(E)-3-phenylprop-2-enyl]piperazin-1-yl]methanone

> <PUBCHEM_IUPAC_SYSTEMATIC_NAME>
(2-methyl-5-pyrrolidin-1-ylsulfonyl-phenyl)-[4-[(E)-3-phenylprop-2-enyl]piperazin-1-yl]methanone

> <PUBCHEM_IUPAC_TRADITIONAL_NAME>
[4-[(E)-cinnamyl]piperazino]-(2-methyl-5-pyrrolidinosulfonyl-phenyl)methanone

> <PUBCHEM_IUPAC_INCHI>
InChI=1S/C25H31N3O3S/c1-21-11-12-23(32(30,31)28-14-5-6-15-28)20-24(21)25(29)27-18-16-26(17-19-27)13-7-10-22-8-3-2-4-9-22/h2-4,7-12,20H,5-6,13-19H2,1H3/b10-7+

> <PUBCHEM_IUPAC_INCHIKEY>
AFDTVVJDJXUCAY-JXMROGBWSA-N

> <PUBCHEM_XLOGP3_AA>
3.3

> <PUBCHEM_EXACT_MASS>
453.208613

> <PUBCHEM_MOLECULAR_FORMULA>
C25H31N3O3S

> <PUBCHEM_MOLECULAR_WEIGHT>
453.59694

> <PUBCHEM_OPENEYE_CAN_SMILES>
CC1=C(C=C(C=C1)S(=O)(=O)N2CCCC2)C(=O)N3CCN(CC3)CC=CC4=CC=CC=C4

> <PUBCHEM_OPENEYE_ISO_SMILES>
CC1=C(C=C(C=C1)S(=O)(=O)N2CCCC2)C(=O)N3CCN(CC3)C/C=C/C4=CC=CC=C4

> <PUBCHEM_CACTVS_TPSA>
69.3

> <PUBCHEM_MONOISOTOPIC_WEIGHT>
453.208613

> <PUBCHEM_TOTAL_CHARGE>
0

> <PUBCHEM_HEAVY_ATOM_COUNT>
32

> <PUBCHEM_ATOM_DEF_STEREO_COUNT>
0

> <PUBCHEM_ATOM_UDEF_STEREO_COUNT>
0

> <PUBCHEM_BOND_DEF_STEREO_COUNT>
1

> <PUBCHEM_BOND_UDEF_STEREO_COUNT>
0

> <PUBCHEM_ISOTOPIC_ATOM_COUNT>
0

> <PUBCHEM_COMPONENT_COUNT>
1

> <PUBCHEM_CACTVS_TAUTO_COUNT>
1

> <PUBCHEM_COORDINATE_TYPE>
1
5
255

> <PUBCHEM_BONDANNOTATIONS>
16  20  8
16  21  8
18  20  8
18  22  8
21  23  8
22  23  8
27  28  8
27  29  8
28  30  8
29  31  8
30  32  8
31  32  8

$$$$

