   Color/Form

     * Clear, colorless liq
     * RHOMBIC PRISMS
     * Colorless to light-yellow liquid [Note: A solid below 42 degrees
       F].

   from [1]HSDB

   Odor

     * Aromatic odor.
     * Gasoline-like odor; rather pleasant aromatic odor. Odor threshold =
       4.68 ppm.

   from [2]HSDB

   Taste
        Taste threshold in water is 0.5-4.5 mg/l.
   from [3]HSDB

   Boiling Point
        80.1 deg C
   from [4]HSDB

   Melting Point
        5.5 deg C
   from [5]HSDB

   Critical Temperature and Pressure
        Critical temperature: 288.9 deg C; critical pressure: 48.6 atm
   from [6]HSDB

   Density/Specific Gravity
        0.8787 @ 15 deg C/4 deg C
   from [7]HSDB

   Heat of Combustion
        -3275.3 KJ/mol
   from [8]HSDB

   Heat of Vaporization
        33.83 KJ/mol @ 25 deg C
   from [9]HSDB

   Octanol/Water Partition Coefficient
        log Kow= 2.13
   from [10]HSDB

   Solubilities

     * Miscible with alcohol, chloroform, ether, carbon disulfide,
       acetone, oils, carbon tetrachloride, & glacial acetic acid
     * Miscible in most organic solvents.
     * In water, 1.79X10+3 mg/l @ 25 deg C.

   from [11]HSDB

   Spectral Properties

     * MAX ABSORPTION (ALCOHOL): 243 NM (LOG E= 2.2), 249 NM (LOG E= 2.3),
       256 NM (LOG E= 2.4), 261 NM (LOG E= 2.2); SADTLER REF NUMBER: 6402
       (IR, PRISM), 1765 (UV)
     * Index of Refraction: 1.50108 @ 20 deg C/D
     * UV: 198 (Sadtler Research Laboratories Spectral Collection)
     * MASS: 102 (Atlas of Mass Spectral Data, John Wiley & Sons, New
       York)
     * IR: 136 (Sadtler Research Laboratories IR Grating Collection)
     * NMR: 3429 (Sadtler Research Laboratories Spectral Collection)
     * Intense mass spectral peaks: 78 m/z

   from [12]HSDB

   Surface Tension
        28.22 mN/m @ 25 deg C
   from [13]HSDB

   Vapor Density
        2.8 (air= 1)
   from [14]HSDB

   Vapor Pressure
        94.8 mm Hg @ 25 deg C
   from [15]HSDB

   Relative Evaporation Rate
        2.8 (ether= 1)
   from [16]HSDB

   Viscosity
        0.604 mPa.s @ 25 deg C
   from [17]HSDB

   Other Chemical/Physical Properties

     * Conversion factors: 1 ppm= 3.26 mg/cu m
     * SPECIFIC DISPERSION 189.6; DENSITY OF SATURATED VAPOR-AIR MIXT AT
       760 MM HG (AIR= 1) IS 1.22 AT 26 DEG C; PERCENT IN SATURATED IN AIR
       AT 760 MM HG IS 13.15 AT 26 DEG C
     * Blood/air partition coefficient is 7.8
     * Sublimes -30 to 5 deg C
     * Heat of fusion= 9.95 KJ/mol
     * Heat capacity: 135.6 (liquid), 81.6 (gas) J/mol deg K at 1 atm (to
       convert to calories/mol-K multiply by 0.2390057)
     * Vapors burn with smoky flame
     * Very useful compilations of the thermodynamic properties of benzene
       are given by Rossini & co-workers, Selected Values of Physical and
       Thermodynamic Properties of Hydrocarbons and Related Compounds,
       Amer Petrol Res Proj 44, Carnegie Press, Pittsburgh, PA (1953); and
       in American Petroleum Institute Project 44, data sheets, API Data
       Distribution Office, A&M Press, College Station, Texas
     * A comprehensive collection of general properties of benzene,
       thermodynamic & transport properties, & benzene in binary
       multicomponent systems is contained in Hancock & co-workers,
       Benzene and Its Industrial Derivatives, John Wiley & Sons, Inc, New
       York, 1975 pp.97-117
     * Henry's Law constant= 5.56X10-3 atm-cu m/mol @ 25 deg C
     * Hydroxyl radical rate constant= 1.23X10-12 cu cm/molecule-sec @ 25
       deg C

   from [18]HSDB

   Computed Properties
   Molecular Weight                  78.11184 [g/mol]
   Molecular Formula                 C[6]H[6]
   XLogP3                            2.1
   H-Bond Donor                      0
   H-Bond Acceptor                   0
   Rotatable Bond Count              0
   Exact Mass                        78.04695
   MonoIsotopic Mass                 78.04695
   Topological Polar Surface Area    0
   Heavy Atom Count                  6
   Formal Charge                     0
   Complexity                        15.5
   Isotope Atom Count                0
   Defined Atom Stereocenter Count   0
   Undefined Atom Stereocenter Count 0
   Defined Bond Stereocenter Count   0
   Undefined Bond Stereocenter Count 0
   Covalently-Bonded Unit Count      1
   Feature 3D Ring Count             1
   Effective Rotor Count             0
   Conformer Sampling RMSD           0.4
   CID Conformer Count               [19]1

References

   1. http://toxnet.nlm.nih.gov/cgi-bin/sis/search/r?dbs+hsdb:@term+@rn+@rel+71-43-2
   2. http://toxnet.nlm.nih.gov/cgi-bin/sis/search/r?dbs+hsdb:@term+@rn+@rel+71-43-2
   3. http://toxnet.nlm.nih.gov/cgi-bin/sis/search/r?dbs+hsdb:@term+@rn+@rel+71-43-2
   4. http://toxnet.nlm.nih.gov/cgi-bin/sis/search/r?dbs+hsdb:@term+@rn+@rel+71-43-2
   5. http://toxnet.nlm.nih.gov/cgi-bin/sis/search/r?dbs+hsdb:@term+@rn+@rel+71-43-2
   6. http://toxnet.nlm.nih.gov/cgi-bin/sis/search/r?dbs+hsdb:@term+@rn+@rel+71-43-2
   7. http://toxnet.nlm.nih.gov/cgi-bin/sis/search/r?dbs+hsdb:@term+@rn+@rel+71-43-2
   8. http://toxnet.nlm.nih.gov/cgi-bin/sis/search/r?dbs+hsdb:@term+@rn+@rel+71-43-2
   9. http://toxnet.nlm.nih.gov/cgi-bin/sis/search/r?dbs+hsdb:@term+@rn+@rel+71-43-2
  10. http://toxnet.nlm.nih.gov/cgi-bin/sis/search/r?dbs+hsdb:@term+@rn+@rel+71-43-2
  11. http://toxnet.nlm.nih.gov/cgi-bin/sis/search/r?dbs+hsdb:@term+@rn+@rel+71-43-2
  12. http://toxnet.nlm.nih.gov/cgi-bin/sis/search/r?dbs+hsdb:@term+@rn+@rel+71-43-2
  13. http://toxnet.nlm.nih.gov/cgi-bin/sis/search/r?dbs+hsdb:@term+@rn+@rel+71-43-2
  14. http://toxnet.nlm.nih.gov/cgi-bin/sis/search/r?dbs+hsdb:@term+@rn+@rel+71-43-2
  15. http://toxnet.nlm.nih.gov/cgi-bin/sis/search/r?dbs+hsdb:@term+@rn+@rel+71-43-2
  16. http://toxnet.nlm.nih.gov/cgi-bin/sis/search/r?dbs+hsdb:@term+@rn+@rel+71-43-2
  17. http://toxnet.nlm.nih.gov/cgi-bin/sis/search/r?dbs+hsdb:@term+@rn+@rel+71-43-2
  18. http://toxnet.nlm.nih.gov/cgi-bin/sis/search/r?dbs+hsdb:@term+@rn+@rel+71-43-2
  19. http://pubchem.ncbi.nlm.nih.gov/vw3d/vw3d.cgi?cid=241
