14034
  -OEChem-06241222412D

 35 34  0     0  0  0  0  0  0999 V2000
   10.6603   -1.2320    0.0000 Cl  0  0  0  0  0  0  0  0  0  0  0  0
    2.0000   -2.2320    0.0000 Cl  0  0  0  0  0  0  0  0  0  0  0  0
    5.8301    2.5981    0.0000 Cl  0  0  0  0  0  0  0  0  0  0  0  0
    6.3301   -1.7320    0.0000 P   0  0  0  0  0  0  0  0  0  0  0  0
    7.1962   -1.2320    0.0000 O   0  0  0  0  0  0  0  0  0  0  0  0
    5.4641   -2.2320    0.0000 O   0  0  0  0  0  0  0  0  0  0  0  0
    5.8301   -0.8660    0.0000 O   0  0  0  0  0  0  0  0  0  0  0  0
    6.8301   -2.5981    0.0000 O   0  0  0  0  0  0  0  0  0  0  0  0
    8.0622   -1.7320    0.0000 C   0  0  0  0  0  0  0  0  0  0  0  0
    4.5981   -1.7320    0.0000 C   0  0  0  0  0  0  0  0  0  0  0  0
    6.3301    0.0000    0.0000 C   0  0  0  0  0  0  0  0  0  0  0  0
    8.9282   -1.2320    0.0000 C   0  0  0  0  0  0  0  0  0  0  0  0
    3.7320   -2.2320    0.0000 C   0  0  0  0  0  0  0  0  0  0  0  0
    5.8301    0.8660    0.0000 C   0  0  0  0  0  0  0  0  0  0  0  0
    9.7942   -1.7320    0.0000 C   0  0  0  0  0  0  0  0  0  0  0  0
    2.8660   -1.7320    0.0000 C   0  0  0  0  0  0  0  0  0  0  0  0
    6.3301    1.7320    0.0000 C   0  0  0  0  0  0  0  0  0  0  0  0
    6.8051   -0.3985    0.0000 H   0  0  0  0  0  0  0  0  0  0  0  0
    6.8051    0.3985    0.0000 H   0  0  0  0  0  0  0  0  0  0  0  0
    4.9966   -1.2571    0.0000 H   0  0  0  0  0  0  0  0  0  0  0  0
    4.1996   -1.2571    0.0000 H   0  0  0  0  0  0  0  0  0  0  0  0
    7.6636   -2.2070    0.0000 H   0  0  0  0  0  0  0  0  0  0  0  0
    8.4607   -2.2070    0.0000 H   0  0  0  0  0  0  0  0  0  0  0  0
    5.3552    1.2646    0.0000 H   0  0  0  0  0  0  0  0  0  0  0  0
    5.3552    0.4675    0.0000 H   0  0  0  0  0  0  0  0  0  0  0  0
    3.3335   -2.7070    0.0000 H   0  0  0  0  0  0  0  0  0  0  0  0
    4.1306   -2.7070    0.0000 H   0  0  0  0  0  0  0  0  0  0  0  0
    9.3267   -0.7571    0.0000 H   0  0  0  0  0  0  0  0  0  0  0  0
    8.5297   -0.7571    0.0000 H   0  0  0  0  0  0  0  0  0  0  0  0
    9.3957   -2.2070    0.0000 H   0  0  0  0  0  0  0  0  0  0  0  0
   10.1928   -2.2070    0.0000 H   0  0  0  0  0  0  0  0  0  0  0  0
    3.2646   -1.2571    0.0000 H   0  0  0  0  0  0  0  0  0  0  0  0
    2.4675   -1.2571    0.0000 H   0  0  0  0  0  0  0  0  0  0  0  0
    6.8051    1.3335    0.0000 H   0  0  0  0  0  0  0  0  0  0  0  0
    6.8051    2.1306    0.0000 H   0  0  0  0  0  0  0  0  0  0  0  0
  1 15  1  0  0  0  0
  2 16  1  0  0  0  0
  3 17  1  0  0  0  0
  4  5  1  0  0  0  0
  4  6  1  0  0  0  0
  4  7  1  0  0  0  0
  4  8  2  0  0  0  0
  5  9  1  0  0  0  0
  6 10  1  0  0  0  0
  7 11  1  0  0  0  0
  9 12  1  0  0  0  0
  9 22  1  0  0  0  0
  9 23  1  0  0  0  0
 10 13  1  0  0  0  0
 10 20  1  0  0  0  0
 10 21  1  0  0  0  0
 11 14  1  0  0  0  0
 11 18  1  0  0  0  0
 11 19  1  0  0  0  0
 12 15  1  0  0  0  0
 12 28  1  0  0  0  0
 12 29  1  0  0  0  0
 13 16  1  0  0  0  0
 13 26  1  0  0  0  0
 13 27  1  0  0  0  0
 14 17  1  0  0  0  0
 14 24  1  0  0  0  0
 14 25  1  0  0  0  0
 15 30  1  0  0  0  0
 15 31  1  0  0  0  0
 16 32  1  0  0  0  0
 16 33  1  0  0  0  0
 17 34  1  0  0  0  0
 17 35  1  0  0  0  0
M  END
> <PUBCHEM_COMPOUND_CID>
14034

> <PUBCHEM_COMPOUND_CANONICALIZED>
1

> <PUBCHEM_CACTVS_COMPLEXITY>
185

> <PUBCHEM_CACTVS_HBOND_ACCEPTOR>
4

> <PUBCHEM_CACTVS_HBOND_DONOR>
0

> <PUBCHEM_CACTVS_ROTATABLE_BOND>
12

> <PUBCHEM_CACTVS_SUBSKEYS>
AAADceBwOAIGAAAAAAAAAAAAAAAAAAAAAAAAAAAAAAAAAAAAAAAAGgIAACAACAOggEIAAAAAARAAQAAAAIAAAAAAAAAAAAAAAgAAAAAAAAAAAAAAAAAAAAAAAAAAAAAAAAAAAAAAAAAAAAAAAAAAAAAAAA==

> <PUBCHEM_IUPAC_OPENEYE_NAME>
tris(3-chloropropyl) phosphate

> <PUBCHEM_IUPAC_CAS_NAME>
phosphoric acid tris(3-chloropropyl) ester

> <PUBCHEM_IUPAC_NAME>
tris(3-chloropropyl) phosphate

> <PUBCHEM_IUPAC_SYSTEMATIC_NAME>
tris(3-chloranylpropyl) phosphate

> <PUBCHEM_IUPAC_TRADITIONAL_NAME>
phosphoric acid tris(3-chloropropyl) ester

> <PUBCHEM_IUPAC_INCHI>
InChI=1S/C9H18Cl3O4P/c10-4-1-7-14-17(13,15-8-2-5-11)16-9-3-6-12/h1-9H2

> <PUBCHEM_IUPAC_INCHIKEY>
WOURXYYHORRGQO-UHFFFAOYSA-N

> <PUBCHEM_XLOGP3>
2

> <PUBCHEM_EXACT_MASS>
326.000829

> <PUBCHEM_MOLECULAR_FORMULA>
C9H18Cl3O4P

> <PUBCHEM_MOLECULAR_WEIGHT>
327.569582

> <PUBCHEM_OPENEYE_CAN_SMILES>
C(COP(=O)(OCCCCl)OCCCCl)CCl

> <PUBCHEM_OPENEYE_ISO_SMILES>
C(COP(=O)(OCCCCl)OCCCCl)CCl

> <PUBCHEM_CACTVS_TPSA>
44.8

> <PUBCHEM_MONOISOTOPIC_WEIGHT>
326.000829

> <PUBCHEM_TOTAL_CHARGE>
0

> <PUBCHEM_HEAVY_ATOM_COUNT>
17

> <PUBCHEM_ATOM_DEF_STEREO_COUNT>
0

> <PUBCHEM_ATOM_UDEF_STEREO_COUNT>
0

> <PUBCHEM_BOND_DEF_STEREO_COUNT>
0

> <PUBCHEM_BOND_UDEF_STEREO_COUNT>
0

> <PUBCHEM_ISOTOPIC_ATOM_COUNT>
0

> <PUBCHEM_COMPONENT_COUNT>
1

> <PUBCHEM_CACTVS_TAUTO_COUNT>
1

> <PUBCHEM_COORDINATE_TYPE>
1
5
255

$$$$

