   Color/Form
        Clear yellow viscous liquid
   from [1]HSDB

   Odor
        Mild odor
   from [2]HSDB

   Boiling Point
        Decomposes
   from [3]HSDB

   Corrosivity
        Non-corrosive to metals.
   from [4]HSDB

   Density/Specific Gravity
        1.17 at 23 deg C/4 deg C
   from [5]HSDB

   Octanol/Water Partition Coefficient
        log Kow = 6.20
   from [6]HSDB

   Solubilities

     * Solubility at 20 deg c (g/L): acetone >450; chloroform >450;
       methanol >450; hexane 77
     * Moderately soluble in a range of organic solvents.
     * In water, 2.4X10-2 mg/L at 22 deg C (seawater) [Schimmel SC et al;
       J Agric Food Chem 31: 104-10 (1983)] [7]PubMed Abstract

   from [8]HSDB

   Spectral Properties
        Index of refraction: 1.5533 at 20 deg C/D
   from [9]HSDB

   Vapor Pressure
        1.5X10-9 mm Hg at 25 deg C
   from [10]HSDB

   Other Chemical/Physical Properties

     * Has two chiral centers giving four possible optical isomers.
     * Decomposes gradually between 150-300 deg C. No significant
       breakdown 100 hr at 75 deg C.
     * Decomposes on distillation
     * Viscous yellow or brown liquid, sometimes partly crystalline at
       room temperature /Technical/
     * Henry's Law constant =3.45X10-8 atm-cu m/mol at 25 deg C (est)
     * Hydroxyl radical reaction rate constant = 3.76X10-11 cu
       cm/molec-sec at 25 deg C (est)

   from [11]HSDB

   Computed Properties
   Molecular Weight                  419.90008 [g/mol]
   Molecular Formula                 C[25]H[22]ClNO[3]
   XLogP3                            6.2
   H-Bond Donor                      0
   H-Bond Acceptor                   4
   Rotatable Bond Count              8
   Exact Mass                        419.128821
   MonoIsotopic Mass                 419.128821
   Topological Polar Surface Area    59.3
   Heavy Atom Count                  30
   Formal Charge                     0
   Complexity                        586
   Isotope Atom Count                0
   Defined Atom Stereocenter Count   0
   Undefined Atom Stereocenter Count 2
   Defined Bond Stereocenter Count   0
   Undefined Bond Stereocenter Count 0
   Covalently-Bonded Unit Count      1
   Feature 3D Acceptor Count         3
   Feature 3D Hydrophobe Count       1
   Feature 3D Ring Count             3
   Effective Rotor Count             8
   Conformer Sampling RMSD           1.2
   CID Conformer Count               [12]377

References

   1. http://toxnet.nlm.nih.gov/cgi-bin/sis/search/r?dbs+hsdb:@term+@rn+@rel+51630-58-1
   2. http://toxnet.nlm.nih.gov/cgi-bin/sis/search/r?dbs+hsdb:@term+@rn+@rel+51630-58-1
   3. http://toxnet.nlm.nih.gov/cgi-bin/sis/search/r?dbs+hsdb:@term+@rn+@rel+51630-58-1
   4. http://toxnet.nlm.nih.gov/cgi-bin/sis/search/r?dbs+hsdb:@term+@rn+@rel+51630-58-1
   5. http://toxnet.nlm.nih.gov/cgi-bin/sis/search/r?dbs+hsdb:@term+@rn+@rel+51630-58-1
   6. http://toxnet.nlm.nih.gov/cgi-bin/sis/search/r?dbs+hsdb:@term+@rn+@rel+51630-58-1
   7. http://www.ncbi.nlm.nih.gov/entrez/query.fcgi?cmd=Retrieve&db=pubmed&dopt=Abstract&list_uids=6681821
   8. http://toxnet.nlm.nih.gov/cgi-bin/sis/search/r?dbs+hsdb:@term+@rn+@rel+51630-58-1
   9. http://toxnet.nlm.nih.gov/cgi-bin/sis/search/r?dbs+hsdb:@term+@rn+@rel+51630-58-1
  10. http://toxnet.nlm.nih.gov/cgi-bin/sis/search/r?dbs+hsdb:@term+@rn+@rel+51630-58-1
  11. http://toxnet.nlm.nih.gov/cgi-bin/sis/search/r?dbs+hsdb:@term+@rn+@rel+51630-58-1
  12. http://pubchem.ncbi.nlm.nih.gov/vw3d/vw3d.cgi?cid=3347
