5312554
  -OEChem-07051213082D

 64 63  0     0  0  0  0  0  0999 V2000
   12.3923    5.4050    0.0000 O   0  0  0  0  0  0  0  0  0  0  0  0
   13.2583    3.9050    0.0000 O   0  0  0  0  0  0  0  0  0  0  0  0
    9.7942   -0.0950    0.0000 C   0  0  0  0  0  0  0  0  0  0  0  0
    8.9282   -0.5950    0.0000 C   0  0  0  0  0  0  0  0  0  0  0  0
    9.7942    0.9050    0.0000 C   0  0  0  0  0  0  0  0  0  0  0  0
    8.9282   -1.5950    0.0000 C   0  0  0  0  0  0  0  0  0  0  0  0
   10.6603    1.4050    0.0000 C   0  0  0  0  0  0  0  0  0  0  0  0
    8.0622   -2.0950    0.0000 C   0  0  0  0  0  0  0  0  0  0  0  0
   10.6603    2.4050    0.0000 C   0  0  0  0  0  0  0  0  0  0  0  0
    8.0622   -3.0950    0.0000 C   0  0  0  0  0  0  0  0  0  0  0  0
   11.5263    2.9050    0.0000 C   0  0  0  0  0  0  0  0  0  0  0  0
    7.1962   -3.5950    0.0000 C   0  0  0  0  0  0  0  0  0  0  0  0
   11.5263    3.9050    0.0000 C   0  0  0  0  0  0  0  0  0  0  0  0
    7.1962   -4.5950    0.0000 C   0  0  0  0  0  0  0  0  0  0  0  0
    2.8660   -3.0950    0.0000 C   0  0  0  0  0  0  0  0  0  0  0  0
    2.8660   -2.0950    0.0000 C   0  0  0  0  0  0  0  0  0  0  0  0
    3.7320   -3.5950    0.0000 C   0  0  0  0  0  0  0  0  0  0  0  0
    6.3301   -5.0950    0.0000 C   0  0  0  0  0  0  0  0  0  0  0  0
   12.3923    4.4050    0.0000 C   0  0  0  0  0  0  0  0  0  0  0  0
    2.0000   -1.5950    0.0000 C   0  0  0  0  0  0  0  0  0  0  0  0
    5.4641   -4.5950    0.0000 C   0  0  0  0  0  0  0  0  0  0  0  0
    3.7320   -4.5950    0.0000 C   0  0  0  0  0  0  0  0  0  0  0  0
    4.5981   -5.0950    0.0000 C   0  0  0  0  0  0  0  0  0  0  0  0
    2.0000   -0.5950    0.0000 C   0  0  0  0  0  0  0  0  0  0  0  0
   10.0063   -0.6776    0.0000 H   0  0  0  0  0  0  0  0  0  0  0  0
   10.4048    0.0127    0.0000 H   0  0  0  0  0  0  0  0  0  0  0  0
    8.7162   -0.0124    0.0000 H   0  0  0  0  0  0  0  0  0  0  0  0
    8.3176   -0.7027    0.0000 H   0  0  0  0  0  0  0  0  0  0  0  0
    9.5822    1.4876    0.0000 H   0  0  0  0  0  0  0  0  0  0  0  0
    9.1836    0.7973    0.0000 H   0  0  0  0  0  0  0  0  0  0  0  0
    9.1403   -2.1776    0.0000 H   0  0  0  0  0  0  0  0  0  0  0  0
    9.5388   -1.4873    0.0000 H   0  0  0  0  0  0  0  0  0  0  0  0
   10.8723    0.8224    0.0000 H   0  0  0  0  0  0  0  0  0  0  0  0
   11.2708    1.5127    0.0000 H   0  0  0  0  0  0  0  0  0  0  0  0
    7.8501   -1.5124    0.0000 H   0  0  0  0  0  0  0  0  0  0  0  0
    7.4516   -2.2027    0.0000 H   0  0  0  0  0  0  0  0  0  0  0  0
   10.4482    2.9876    0.0000 H   0  0  0  0  0  0  0  0  0  0  0  0
   10.0497    2.2973    0.0000 H   0  0  0  0  0  0  0  0  0  0  0  0
    8.2742   -3.6776    0.0000 H   0  0  0  0  0  0  0  0  0  0  0  0
    8.6728   -2.9873    0.0000 H   0  0  0  0  0  0  0  0  0  0  0  0
   11.7383    2.3224    0.0000 H   0  0  0  0  0  0  0  0  0  0  0  0
   12.1369    3.0127    0.0000 H   0  0  0  0  0  0  0  0  0  0  0  0
    6.9841   -3.0124    0.0000 H   0  0  0  0  0  0  0  0  0  0  0  0
    6.5856   -3.7027    0.0000 H   0  0  0  0  0  0  0  0  0  0  0  0
   11.3142    4.4876    0.0000 H   0  0  0  0  0  0  0  0  0  0  0  0
   10.9157    3.7973    0.0000 H   0  0  0  0  0  0  0  0  0  0  0  0
    7.7331   -4.9050    0.0000 H   0  0  0  0  0  0  0  0  0  0  0  0
    2.2554   -2.9873    0.0000 H   0  0  0  0  0  0  0  0  0  0  0  0
    2.6540   -3.6776    0.0000 H   0  0  0  0  0  0  0  0  0  0  0  0
    3.4766   -2.2027    0.0000 H   0  0  0  0  0  0  0  0  0  0  0  0
    3.0781   -1.5124    0.0000 H   0  0  0  0  0  0  0  0  0  0  0  0
    4.3426   -3.7027    0.0000 H   0  0  0  0  0  0  0  0  0  0  0  0
    3.9441   -3.0124    0.0000 H   0  0  0  0  0  0  0  0  0  0  0  0
    6.3301   -5.7150    0.0000 H   0  0  0  0  0  0  0  0  0  0  0  0
    1.3894   -1.4873    0.0000 H   0  0  0  0  0  0  0  0  0  0  0  0
    1.7880   -2.1776    0.0000 H   0  0  0  0  0  0  0  0  0  0  0  0
    5.8626   -4.1200    0.0000 H   0  0  0  0  0  0  0  0  0  0  0  0
    5.0656   -4.1200    0.0000 H   0  0  0  0  0  0  0  0  0  0  0  0
    3.1951   -4.9050    0.0000 H   0  0  0  0  0  0  0  0  0  0  0  0
    4.5981   -5.7150    0.0000 H   0  0  0  0  0  0  0  0  0  0  0  0
    2.6200   -0.5950    0.0000 H   0  0  0  0  0  0  0  0  0  0  0  0
    2.0000    0.0250    0.0000 H   0  0  0  0  0  0  0  0  0  0  0  0
    1.3800   -0.5950    0.0000 H   0  0  0  0  0  0  0  0  0  0  0  0
   12.9292    5.7150    0.0000 H   0  0  0  0  0  0  0  0  0  0  0  0
  1 19  1  0  0  0  0
  1 64  1  0  0  0  0
  2 19  2  0  0  0  0
  3  4  1  0  0  0  0
  3  5  1  0  0  0  0
  3 25  1  0  0  0  0
  3 26  1  0  0  0  0
  4  6  1  0  0  0  0
  4 27  1  0  0  0  0
  4 28  1  0  0  0  0
  5  7  1  0  0  0  0
  5 29  1  0  0  0  0
  5 30  1  0  0  0  0
  6  8  1  0  0  0  0
  6 31  1  0  0  0  0
  6 32  1  0  0  0  0
  7  9  1  0  0  0  0
  7 33  1  0  0  0  0
  7 34  1  0  0  0  0
  8 10  1  0  0  0  0
  8 35  1  0  0  0  0
  8 36  1  0  0  0  0
  9 11  1  0  0  0  0
  9 37  1  0  0  0  0
  9 38  1  0  0  0  0
 10 12  1  0  0  0  0
 10 39  1  0  0  0  0
 10 40  1  0  0  0  0
 11 13  1  0  0  0  0
 11 41  1  0  0  0  0
 11 42  1  0  0  0  0
 12 14  1  0  0  0  0
 12 43  1  0  0  0  0
 12 44  1  0  0  0  0
 13 19  1  0  0  0  0
 13 45  1  0  0  0  0
 13 46  1  0  0  0  0
 14 18  2  0  0  0  0
 14 47  1  0  0  0  0
 15 16  1  0  0  0  0
 15 17  1  0  0  0  0
 15 48  1  0  0  0  0
 15 49  1  0  0  0  0
 16 20  1  0  0  0  0
 16 50  1  0  0  0  0
 16 51  1  0  0  0  0
 17 22  1  0  0  0  0
 17 52  1  0  0  0  0
 17 53  1  0  0  0  0
 18 21  1  0  0  0  0
 18 54  1  0  0  0  0
 20 24  1  0  0  0  0
 20 55  1  0  0  0  0
 20 56  1  0  0  0  0
 21 23  1  0  0  0  0
 21 57  1  0  0  0  0
 21 58  1  0  0  0  0
 22 23  2  0  0  0  0
 22 59  1  0  0  0  0
 23 60  1  0  0  0  0
 24 61  1  0  0  0  0
 24 62  1  0  0  0  0
 24 63  1  0  0  0  0
M  END
> <PUBCHEM_COMPOUND_CID>
5312554

> <PUBCHEM_COMPOUND_CANONICALIZED>
1

> <PUBCHEM_CACTVS_COMPLEXITY>
318

> <PUBCHEM_CACTVS_HBOND_ACCEPTOR>
2

> <PUBCHEM_CACTVS_HBOND_DONOR>
1

> <PUBCHEM_CACTVS_ROTATABLE_BOND>
18

> <PUBCHEM_CACTVS_SUBSKEYS>
AAADcfB4MAAAAAAAAAAAAAAAAAAAAAAAAAAAAAAAAAAAAAAAAAAAGgAACAAACACAgAACCAAAAgCIACDSCAAAAAAgAAAICAEAAAgAABIAAQAAQAAEgAAIAAOIyKCAAAAAAAAAAAAAAAAAAAAAAAAAAAAAAA==

> <PUBCHEM_IUPAC_OPENEYE_NAME>
(13Z,16Z)-docosa-13,16-dienoic acid

> <PUBCHEM_IUPAC_CAS_NAME>
(13Z,16Z)-docosa-13,16-dienoic acid

> <PUBCHEM_IUPAC_NAME>
(13Z,16Z)-docosa-13,16-dienoic acid

> <PUBCHEM_IUPAC_SYSTEMATIC_NAME>
(13Z,16Z)-docosa-13,16-dienoic acid

> <PUBCHEM_IUPAC_TRADITIONAL_NAME>
(13Z,16Z)-docosa-13,16-dienoic acid

> <PUBCHEM_IUPAC_INCHI>
InChI=1S/C22H40O2/c1-2-3-4-5-6-7-8-9-10-11-12-13-14-15-16-17-18-19-20-21-22(23)24/h6-7,9-10H,2-5,8,11-21H2,1H3,(H,23,24)/b7-6-,10-9-

> <PUBCHEM_IUPAC_INCHIKEY>
HVGRZDASOHMCSK-HZJYTTRNSA-N

> <PUBCHEM_XLOGP3>
8

> <PUBCHEM_EXACT_MASS>
336.302831

> <PUBCHEM_MOLECULAR_FORMULA>
C22H40O2

> <PUBCHEM_MOLECULAR_WEIGHT>
336.5518

> <PUBCHEM_OPENEYE_CAN_SMILES>
CCCCCC=CCC=CCCCCCCCCCCCC(=O)O

> <PUBCHEM_OPENEYE_ISO_SMILES>
CCCCC/C=C\C/C=C\CCCCCCCCCCCC(=O)O

> <PUBCHEM_CACTVS_TPSA>
37.3

> <PUBCHEM_MONOISOTOPIC_WEIGHT>
336.302831

> <PUBCHEM_TOTAL_CHARGE>
0

> <PUBCHEM_HEAVY_ATOM_COUNT>
24

> <PUBCHEM_ATOM_DEF_STEREO_COUNT>
0

> <PUBCHEM_ATOM_UDEF_STEREO_COUNT>
0

> <PUBCHEM_BOND_DEF_STEREO_COUNT>
2

> <PUBCHEM_BOND_UDEF_STEREO_COUNT>
0

> <PUBCHEM_ISOTOPIC_ATOM_COUNT>
0

> <PUBCHEM_COMPONENT_COUNT>
1

> <PUBCHEM_CACTVS_TAUTO_COUNT>
1

> <PUBCHEM_COORDINATE_TYPE>
1
5
255

$$$$

