   Color/Form

     * White crystals
     * Colorless crystals

   from [1]HSDB

   Odor
        Odorless
   from [2]HSDB

   Melting Point
        90 deg C
   from [3]HSDB

   Density/Specific Gravity
        1.26 mg/l
   from [4]HSDB

   Octanol/Water Partition Coefficient
        log Kow = 4.80
   from [5]HSDB

   Solubilities

     * Solubility in methanol, ethanol ca 100, cyclohexane 200, acetone,
       isophorone, methyl ethyl ketone, carbon tetrachloride ca 600,
       toluene, benzene, chloroform ca 1000 (all in g/l, 20 deg C)
     * Soluble in solvents
     * In water, 0.7 mg/l @ 24 deg C

   from [6]HSDB

   Vapor Pressure
        1.15X10-7 mm Hg @ 22 deg C
   from [7]HSDB

   Computed Properties
   Molecular Weight                  345.22102 [g/mol]
   Molecular Formula                 C[15]H[18]Cl[2]N[2]O[3]
   XLogP3                            4.8
   H-Bond Donor                      0
   H-Bond Acceptor                   4
   Rotatable Bond Count              4
   Exact Mass                        344.069448
   MonoIsotopic Mass                 344.069448
   Topological Polar Surface Area    51.1
   Heavy Atom Count                  22
   Formal Charge                     0
   Complexity                        462
   Isotope Atom Count                0
   Defined Atom Stereocenter Count   0
   Undefined Atom Stereocenter Count 0
   Defined Bond Stereocenter Count   0
   Undefined Bond Stereocenter Count 0
   Covalently-Bonded Unit Count      1
   Feature 3D Acceptor Count         2
   Feature 3D Hydrophobe Count       2
   Feature 3D Ring Count             2
   Effective Rotor Count             4
   Conformer Sampling RMSD           0.6
   CID Conformer Count               [8]35

References

   1. http://toxnet.nlm.nih.gov/cgi-bin/sis/search/r?dbs+hsdb:@term+@rn+@rel+19666-30-9
   2. http://toxnet.nlm.nih.gov/cgi-bin/sis/search/r?dbs+hsdb:@term+@rn+@rel+19666-30-9
   3. http://toxnet.nlm.nih.gov/cgi-bin/sis/search/r?dbs+hsdb:@term+@rn+@rel+19666-30-9
   4. http://toxnet.nlm.nih.gov/cgi-bin/sis/search/r?dbs+hsdb:@term+@rn+@rel+19666-30-9
   5. http://toxnet.nlm.nih.gov/cgi-bin/sis/search/r?dbs+hsdb:@term+@rn+@rel+19666-30-9
   6. http://toxnet.nlm.nih.gov/cgi-bin/sis/search/r?dbs+hsdb:@term+@rn+@rel+19666-30-9
   7. http://toxnet.nlm.nih.gov/cgi-bin/sis/search/r?dbs+hsdb:@term+@rn+@rel+19666-30-9
   8. http://pubchem.ncbi.nlm.nih.gov/vw3d/vw3d.cgi?cid=29732
