6795
  -OEChem-06261201302D

 26 28  0     0  0  0  0  0  0999 V2000
    5.5321   -0.2673    0.0000 N   0  3  0  0  0  0  0  0  0  0  0  0
    3.8000   -1.2673    0.0000 N   0  3  0  0  0  0  0  0  0  0  0  0
    4.6660   -1.7673    0.0000 C   0  0  0  0  0  0  0  0  0  0  0  0
    5.5321   -1.2673    0.0000 C   0  0  0  0  0  0  0  0  0  0  0  0
    3.8000   -0.2673    0.0000 C   0  0  0  0  0  0  0  0  0  0  0  0
    4.6660    0.2327    0.0000 C   0  0  0  0  0  0  0  0  0  0  0  0
    2.9061   -1.8020    0.0000 C   0  0  0  0  0  0  0  0  0  0  0  0
    6.4421    0.2395    0.0000 C   0  0  0  0  0  0  0  0  0  0  0  0
    2.9061    0.2674    0.0000 C   0  0  0  0  0  0  0  0  0  0  0  0
    4.6500    1.2742    0.0000 C   0  0  0  0  0  0  0  0  0  0  0  0
    2.0000   -1.2881    0.0000 C   0  0  0  0  0  0  0  0  0  0  0  0
    6.4501    1.2812    0.0000 C   0  0  0  0  0  0  0  0  0  0  0  0
    5.5480    1.8020    0.0000 C   0  0  0  0  0  0  0  0  0  0  0  0
    2.0000   -0.2465    0.0000 C   0  0  0  0  0  0  0  0  0  0  0  0
    4.2675   -2.2422    0.0000 H   0  0  0  0  0  0  0  0  0  0  0  0
    5.0646   -2.2422    0.0000 H   0  0  0  0  0  0  0  0  0  0  0  0
    5.7441   -1.8499    0.0000 H   0  0  0  0  0  0  0  0  0  0  0  0
    6.1426   -1.1596    0.0000 H   0  0  0  0  0  0  0  0  0  0  0  0
    2.9132   -2.4219    0.0000 H   0  0  0  0  0  0  0  0  0  0  0  0
    6.9754   -0.0766    0.0000 H   0  0  0  0  0  0  0  0  0  0  0  0
    2.9132    0.8873    0.0000 H   0  0  0  0  0  0  0  0  0  0  0  0
    4.1095    1.5780    0.0000 H   0  0  0  0  0  0  0  0  0  0  0  0
    1.4643   -1.6002    0.0000 H   0  0  0  0  0  0  0  0  0  0  0  0
    6.9882    1.5891    0.0000 H   0  0  0  0  0  0  0  0  0  0  0  0
    1.4643    0.0656    0.0000 H   0  0  0  0  0  0  0  0  0  0  0  0
    5.5456    2.4220    0.0000 H   0  0  0  0  0  0  0  0  0  0  0  0
  1  4  1  0  0  0  0
  1  6  1  0  0  0  0
  1  8  2  0  0  0  0
  2  3  1  0  0  0  0
  2  5  1  0  0  0  0
  2  7  2  0  0  0  0
  3  4  1  0  0  0  0
  3 15  1  0  0  0  0
  3 16  1  0  0  0  0
  4 17  1  0  0  0  0
  4 18  1  0  0  0  0
  5  6  1  0  0  0  0
  5  9  2  0  0  0  0
  6 10  2  0  0  0  0
  7 11  1  0  0  0  0
  7 19  1  0  0  0  0
  8 12  1  0  0  0  0
  8 20  1  0  0  0  0
  9 14  1  0  0  0  0
  9 21  1  0  0  0  0
 10 13  1  0  0  0  0
 10 22  1  0  0  0  0
 11 14  2  0  0  0  0
 11 23  1  0  0  0  0
 12 13  2  0  0  0  0
 12 24  1  0  0  0  0
 13 26  1  0  0  0  0
 14 25  1  0  0  0  0
M  CHG  2   1   1   2   1
M  END
> <PUBCHEM_COMPOUND_CID>
6795

> <PUBCHEM_COMPOUND_CANONICALIZED>
1

> <PUBCHEM_CACTVS_COMPLEXITY>
183

> <PUBCHEM_CACTVS_HBOND_ACCEPTOR>
0

> <PUBCHEM_CACTVS_HBOND_DONOR>
0

> <PUBCHEM_CACTVS_ROTATABLE_BOND>
0

> <PUBCHEM_CACTVS_SUBSKEYS>
AAADccBzAAAAAAAAAAAAAAAAAAAAAAAAAAAsWLAAAAAAAACx4AAAHAAAAAAACAjBFgQ8gJMMEACgATRnRACCgCAxAiAI2CA4ZJgIYOLAkZGUIAhggADIyAcQgIAAAAAAAAAAAAAAAAAAAAAAAAAAAAAAAA==

> <PUBCHEM_IUPAC_OPENEYE_NAME>
6,7-dihydrodipyrido[1,2-b:1',2'-e]pyrazine-5,8-diium

> <PUBCHEM_IUPAC_CAS_NAME>
6,7-dihydrodipyrido[1,2-b:1',2'-e]pyrazine-5,8-diium

> <PUBCHEM_IUPAC_NAME>
6,7-dihydrodipyrido[1,2-b:1',2'-e]pyrazine-5,8-diium

> <PUBCHEM_IUPAC_SYSTEMATIC_NAME>
6,7-dihydrodipyrido[1,2-b:1',2'-e]pyrazine-5,8-diium

> <PUBCHEM_IUPAC_TRADITIONAL_NAME>
6,7-dihydrodipyrido[1,2-b:1',2'-e]pyrazine-5,8-diium

> <PUBCHEM_IUPAC_INCHI>
InChI=1S/C12H12N2/c1-3-7-13-9-10-14-8-4-2-6-12(14)11(13)5-1/h1-8H,9-10H2/q+2

> <PUBCHEM_IUPAC_INCHIKEY>
SYJFEGQWDCRVNX-UHFFFAOYSA-N

> <PUBCHEM_XLOGP3_AA>
1.4

> <PUBCHEM_EXACT_MASS>
184.100048

> <PUBCHEM_MOLECULAR_FORMULA>
C12H12N2+2

> <PUBCHEM_MOLECULAR_WEIGHT>
184.23708

> <PUBCHEM_OPENEYE_CAN_SMILES>
C1C[N+]2=CC=CC=C2C3=CC=CC=[N+]31

> <PUBCHEM_OPENEYE_ISO_SMILES>
C1C[N+]2=CC=CC=C2C3=CC=CC=[N+]31

> <PUBCHEM_CACTVS_TPSA>
7.8

> <PUBCHEM_MONOISOTOPIC_WEIGHT>
184.100048

> <PUBCHEM_TOTAL_CHARGE>
2

> <PUBCHEM_HEAVY_ATOM_COUNT>
14

> <PUBCHEM_ATOM_DEF_STEREO_COUNT>
0

> <PUBCHEM_ATOM_UDEF_STEREO_COUNT>
0

> <PUBCHEM_BOND_DEF_STEREO_COUNT>
0

> <PUBCHEM_BOND_UDEF_STEREO_COUNT>
0

> <PUBCHEM_ISOTOPIC_ATOM_COUNT>
0

> <PUBCHEM_COMPONENT_COUNT>
1

> <PUBCHEM_CACTVS_TAUTO_COUNT>
1

> <PUBCHEM_COORDINATE_TYPE>
1
5
255

> <PUBCHEM_BONDANNOTATIONS>
1  6  8
1  8  8
10  13  8
11  14  8
12  13  8
2  5  8
2  7  8
5  9  8
6  10  8
7  11  8
8  12  8
9  14  8

$$$$

