441591
  -OEChem-07051212552D

 43 46  0     1  0  0  0  0  0999 V2000
    2.5578   -0.6033    0.0000 O   0  0  0  0  0  0  0  0  0  0  0  0
    2.5381   -3.6515    0.0000 O   0  0  0  0  0  0  0  0  0  0  0  0
    4.3159    3.4628    0.0000 O   0  0  0  0  0  0  0  0  0  0  0  0
    2.5420    2.4387    0.0000 O   0  0  0  0  0  0  0  0  0  0  0  0
    6.0600   -0.6064    0.0000 N   0  0  3  0  0  0  0  0  0  0  0  0
    5.1940   -1.1064    0.0000 C   0  0  1  0  0  0  0  0  0  0  0  0
    4.3280   -0.6064    0.0000 C   0  0  1  0  0  0  0  0  0  0  0  0
    5.2100   -2.1479    0.0000 C   0  0  0  0  0  0  0  0  0  0  0  0
    3.4180   -1.1133    0.0000 C   0  0  1  0  0  0  0  0  0  0  0  0
    3.4099   -2.1549    0.0000 C   0  0  2  0  0  0  0  0  0  0  0  0
    6.6779   -1.3848    0.0000 C   0  0  0  0  0  0  0  0  0  0  0  0
    6.1981   -2.2551    0.0000 C   0  0  0  0  0  0  0  0  0  0  0  0
    4.3280    0.3936    0.0000 C   0  0  0  0  0  0  0  0  0  0  0  0
    6.0600    0.3936    0.0000 C   0  0  0  0  0  0  0  0  0  0  0  0
    4.3120   -2.6757    0.0000 C   0  0  0  0  0  0  0  0  0  0  0  0
    5.1940    0.8936    0.0000 C   0  0  0  0  0  0  0  0  0  0  0  0
    2.5420   -2.6516    0.0000 C   0  0  0  0  0  0  0  0  0  0  0  0
    3.4180    0.9004    0.0000 C   0  0  0  0  0  0  0  0  0  0  0  0
    5.2100    1.9351    0.0000 C   0  0  0  0  0  0  0  0  0  0  0  0
    3.4099    1.9420    0.0000 C   0  0  0  0  0  0  0  0  0  0  0  0
    4.3120    2.4628    0.0000 C   0  0  0  0  0  0  0  0  0  0  0  0
    5.1838    3.9595    0.0000 C   0  0  0  0  0  0  0  0  0  0  0  0
    4.4579   -1.5314    0.0000 H   0  0  0  0  0  0  0  0  0  0  0  0
    5.0641   -0.1814    0.0000 H   0  0  0  0  0  0  0  0  0  0  0  0
    2.8781   -1.4181    0.0000 H   0  0  0  0  0  0  0  0  0  0  0  0
    3.4087   -2.7749    0.0000 H   0  0  0  0  0  0  0  0  0  0  0  0
    7.1768   -1.7530    0.0000 H   0  0  0  0  0  0  0  0  0  0  0  0
    7.1086   -0.9388    0.0000 H   0  0  0  0  0  0  0  0  0  0  0  0
    6.0507   -2.8573    0.0000 H   0  0  0  0  0  0  0  0  0  0  0  0
    6.7757   -2.4804    0.0000 H   0  0  0  0  0  0  0  0  0  0  0  0
    6.6706    0.2859    0.0000 H   0  0  0  0  0  0  0  0  0  0  0  0
    6.2721    0.9762    0.0000 H   0  0  0  0  0  0  0  0  0  0  0  0
    4.3144   -3.2957    0.0000 H   0  0  0  0  0  0  0  0  0  0  0  0
    2.3322   -2.0681    0.0000 H   0  0  0  0  0  0  0  0  0  0  0  0
    1.9310   -2.7569    0.0000 H   0  0  0  0  0  0  0  0  0  0  0  0
    2.8846    0.5842    0.0000 H   0  0  0  0  0  0  0  0  0  0  0  0
    2.0173   -0.9071    0.0000 H   0  0  0  0  0  0  0  0  0  0  0  0
    5.7505    2.2388    0.0000 H   0  0  0  0  0  0  0  0  0  0  0  0
    2.0000   -3.9595    0.0000 H   0  0  0  0  0  0  0  0  0  0  0  0
    2.5396    3.0587    0.0000 H   0  0  0  0  0  0  0  0  0  0  0  0
    5.4917    3.4213    0.0000 H   0  0  0  0  0  0  0  0  0  0  0  0
    5.7219    4.2674    0.0000 H   0  0  0  0  0  0  0  0  0  0  0  0
    4.8759    4.4976    0.0000 H   0  0  0  0  0  0  0  0  0  0  0  0
  9  1  1  1  0  0  0
  1 37  1  0  0  0  0
  2 17  1  0  0  0  0
  2 39  1  0  0  0  0
  3 21  1  0  0  0  0
  3 22  1  0  0  0  0
  4 20  1  0  0  0  0
  4 40  1  0  0  0  0
  5  6  1  0  0  0  0
  5 11  1  0  0  0  0
  5 14  1  0  0  0  0
  6  7  1  0  0  0  0
  6  8  1  0  0  0  0
  6 23  1  1  0  0  0
  7  9  1  0  0  0  0
  7 13  1  0  0  0  0
  7 24  1  6  0  0  0
  8 12  1  0  0  0  0
  8 15  2  0  0  0  0
  9 10  1  0  0  0  0
  9 25  1  0  0  0  0
 10 15  1  0  0  0  0
 10 17  1  6  0  0  0
 10 26  1  0  0  0  0
 11 12  1  0  0  0  0
 11 27  1  0  0  0  0
 11 28  1  0  0  0  0
 12 29  1  0  0  0  0
 12 30  1  0  0  0  0
 13 16  1  0  0  0  0
 13 18  2  0  0  0  0
 14 16  1  0  0  0  0
 14 31  1  0  0  0  0
 14 32  1  0  0  0  0
 15 33  1  0  0  0  0
 16 19  2  0  0  0  0
 17 34  1  0  0  0  0
 17 35  1  0  0  0  0
 18 20  1  0  0  0  0
 18 36  1  0  0  0  0
 19 21  1  0  0  0  0
 19 38  1  0  0  0  0
 20 21  2  0  0  0  0
 22 41  1  0  0  0  0
 22 42  1  0  0  0  0
 22 43  1  0  0  0  0
M  END
> <PUBCHEM_COMPOUND_CID>
441591

> <PUBCHEM_COMPOUND_CANONICALIZED>
1

> <PUBCHEM_CACTVS_COMPLEXITY>
468

> <PUBCHEM_CACTVS_HBOND_ACCEPTOR>
5

> <PUBCHEM_CACTVS_HBOND_DONOR>
3

> <PUBCHEM_CACTVS_ROTATABLE_BOND>
2

> <PUBCHEM_CACTVS_SUBSKEYS>
AAADceB6OAAAAAAAAAAAAAAAAAAAAWAAAAA8QIAAAAAAAFixAAAAHgAACAAADTzhmAYyBoMABgCAAiBCAACCCAAgIAAAiAAOjIgNNiKGsRuEcCtnwBGLuAew8PcOoAABAAAQQABAAAIAACCAAAAAAAAAAA==

> <PUBCHEM_IUPAC_INCHI>
InChI=1S/C17H21NO4/c1-22-14-5-10-7-18-3-2-9-4-11(8-19)17(21)15(16(9)18)12(10)6-13(14)20/h4-6,11,15-17,19-21H,2-3,7-8H2,1H3/t11-,15+,16-,17-/m1/s1

> <PUBCHEM_IUPAC_INCHIKEY>
TZJUAPRPYXCUDU-GLZXHMCRSA-N

> <PUBCHEM_XLOGP3_AA>
0.6

> <PUBCHEM_EXACT_MASS>
303.147058

> <PUBCHEM_MOLECULAR_FORMULA>
C17H21NO4

> <PUBCHEM_MOLECULAR_WEIGHT>
303.35294

> <PUBCHEM_OPENEYE_CAN_SMILES>
COC1=C(C=C2C3C(C(C=C4C3N(CC4)CC2=C1)CO)O)O

> <PUBCHEM_OPENEYE_ISO_SMILES>
COC1=C(C=C2[C@@H]3[C@@H]([C@H](C=C4[C@H]3N(CC4)CC2=C1)CO)O)O

> <PUBCHEM_CACTVS_TPSA>
73.2

> <PUBCHEM_MONOISOTOPIC_WEIGHT>
303.147058

> <PUBCHEM_TOTAL_CHARGE>
0

> <PUBCHEM_HEAVY_ATOM_COUNT>
22

> <PUBCHEM_ATOM_DEF_STEREO_COUNT>
4

> <PUBCHEM_ATOM_UDEF_STEREO_COUNT>
0

> <PUBCHEM_BOND_DEF_STEREO_COUNT>
0

> <PUBCHEM_BOND_UDEF_STEREO_COUNT>
0

> <PUBCHEM_ISOTOPIC_ATOM_COUNT>
0

> <PUBCHEM_COMPONENT_COUNT>
1

> <PUBCHEM_CACTVS_TAUTO_COUNT>
9

> <PUBCHEM_COORDINATE_TYPE>
1
5
255

> <PUBCHEM_BONDANNOTATIONS>
9  1  5
10  17  6
13  16  8
13  18  8
16  19  8
18  20  8
19  21  8
20  21  8
6  23  5
7  24  6

$$$$

