   Color/Form
        Crystals from petroleum ether
   from [1]HSDB

   Melting Point
        85.5 to 86.5 deg C
   from [2]HSDB

   Octanol/Water Partition Coefficient
        log Kow = 4.78 (est)
   from [3]HSDB

   Solubilities
        In water, 8.59 mg/L at 25 deg C (est)
   from [4]HSDB

   Spectral Properties

     * UV max (0.17% in ethanol): 258.5 nm
     * MASS: 246695

   from [5]HSDB

   Vapor Pressure
        1.22X10-7 mm Hg at 25 deg C (est)
   from [6]HSDB

   Other Chemical/Physical Properties

     * Henry's Law constant = 3.56X10-10 atm-cu m/mol at 25 deg C (est)
     * Hydroxyl radical reaction rate constant = 1.19X10-10 cu
       cm/molec-sec at 25 deg C (est)

   from [7]HSDB

   Computed Properties
   Molecular Weight                  287.43966 [g/mol]
   Molecular Formula                 C[19]H[29]NO
   XLogP3                            4.1
   H-Bond Donor                      1
   H-Bond Acceptor                   2
   Rotatable Bond Count              5
   Exact Mass                        287.224915
   MonoIsotopic Mass                 287.224915
   Topological Polar Surface Area    23.5
   Heavy Atom Count                  21
   Formal Charge                     0
   Complexity                        301
   Isotope Atom Count                0
   Defined Atom Stereocenter Count   0
   Undefined Atom Stereocenter Count 1
   Defined Bond Stereocenter Count   0
   Undefined Bond Stereocenter Count 0
   Covalently-Bonded Unit Count      1
   Feature 3D Acceptor Count         1
   Feature 3D Donor Count            1
   Feature 3D Cation Count           1
   Feature 3D Ring Count             3
   Effective Rotor Count             7.2
   Conformer Sampling RMSD           0.8
   CID Conformer Count               [8]25

References

   1. http://toxnet.nlm.nih.gov/cgi-bin/sis/search/r?dbs+hsdb:@term+@rn+@rel+77-37-2
   2. http://toxnet.nlm.nih.gov/cgi-bin/sis/search/r?dbs+hsdb:@term+@rn+@rel+77-37-2
   3. http://toxnet.nlm.nih.gov/cgi-bin/sis/search/r?dbs+hsdb:@term+@rn+@rel+77-37-2
   4. http://toxnet.nlm.nih.gov/cgi-bin/sis/search/r?dbs+hsdb:@term+@rn+@rel+77-37-2
   5. http://toxnet.nlm.nih.gov/cgi-bin/sis/search/r?dbs+hsdb:@term+@rn+@rel+77-37-2
   6. http://toxnet.nlm.nih.gov/cgi-bin/sis/search/r?dbs+hsdb:@term+@rn+@rel+77-37-2
   7. http://toxnet.nlm.nih.gov/cgi-bin/sis/search/r?dbs+hsdb:@term+@rn+@rel+77-37-2
   8. http://pubchem.ncbi.nlm.nih.gov/vw3d/vw3d.cgi?cid=4919
