   Color/Form

     * NEEDLES OR CRYSTAL MASS
     * WHITE TO YELLOWISH SOLID
     * WHITE NEEDLES FROM PETROLEUM ETHER

   from [1]HSDB

   Odor

     * ODOR OF HYACINTH
     * PLEASANT, FLORAL ODOR

   from [2]HSDB

   Taste
        BITTER TASTE
   from [3]HSDB

   Boiling Point
        250.0 DEG C @ 760 MM HG
   from [4]HSDB

   Melting Point
        33 DEG C
   from [5]HSDB

   Density/Specific Gravity
        1.0397 @ 35 DEG C/35 DEG C
   from [6]HSDB

   Solubilities
        FREELY SOL IN ALC, ETHER, OTHER COMMON ORGANIC SOLVENTS; SOL IN
   WATER, GLYCEROL; CLEARLY SOL IN 3 VOL 50% ALC
   from [7]HSDB

   Spectral Properties
        SADTLER REF NUMBER: 184 (IR, PRISM); 8018 (IR, GRATING); MAX
   ABSORPTION (ETHER): 252 NM (LOG E= 4.08); 275 NM SHOULDER (LOG E= 3.3);
   282 NM (LOG E= 3.2); 292 NM (LOG E= 3.0)
   from [8]HSDB

   Other Chemical/Physical Properties

     * MIN CONGEALING POINTS SPECIFIED BY ESSENTIAL OIL ASSN: 33.0 DEG C
       FOR PURE; 28.0 DEG C FOR ALC PRISM; 20.0 DEG C FOR CINNAMIC ALC
       FROM STORAX
     * ALDEHYDE CONTENT: NOT MORE THAN 1.5% (AS CINNAMIC ALDEHYDE)
     * IR: 1644 (Coblentz Society Spectral Collection) /Cinnamyl alcohol
       (cis)/
     * UV: 74 (Sadtler Research Laboratories Spectral Collection)
       /Cinnamyl alcohol (cis)/
     * NMR: 23 (Sadtler Research Laboratories Spectral Collection)
       /Cinnamyl alcohol (cis)/
     * MASS: 654 (Atlas of Mass Spectral Data, John Wiley & Sons, New
       York) /Cinnamyl alcohol (cis)/
     * IR: 1644 (Coblentz Society Spectral Collection) /Cinnamyl alcohol
       (trans)/
     * UV: 74 (Sadtler Research Laboratories Spectral Collection)
       /Cinnamyl alcohol (trans)/
     * NMR: 23 (Sadtler Research Laboratories Spectral Collection)
       /Cinnamyl alcohol (trans)/
     * MASS: 655 (Atlas of Mass Spectral Data, John Wiley & Sons, New
       York) /Cinnamyl alcohol (trans)/

   from [9]HSDB

   Computed Properties
   Molecular Weight                  134.1751 [g/mol]
   Molecular Formula                 C[9]H[10]O
   XLogP3                            1.9
   H-Bond Donor                      1
   H-Bond Acceptor                   1
   Rotatable Bond Count              2
   Exact Mass                        134.073165
   MonoIsotopic Mass                 134.073165
   Topological Polar Surface Area    20.2
   Heavy Atom Count                  10
   Formal Charge                     0
   Complexity                        101
   Isotope Atom Count                0
   Defined Atom Stereocenter Count   0
   Undefined Atom Stereocenter Count 0
   Defined Bond Stereocenter Count   1
   Undefined Bond Stereocenter Count 0
   Covalently-Bonded Unit Count      1
   Feature 3D Acceptor Count         1
   Feature 3D Donor Count            1
   Feature 3D Ring Count             1
   Effective Rotor Count             2
   Conformer Sampling RMSD           0.4
   CID Conformer Count               [10]3

References

   1. http://toxnet.nlm.nih.gov/cgi-bin/sis/search/r?dbs+hsdb:@term+@rn+@rel+104-54-1
   2. http://toxnet.nlm.nih.gov/cgi-bin/sis/search/r?dbs+hsdb:@term+@rn+@rel+104-54-1
   3. http://toxnet.nlm.nih.gov/cgi-bin/sis/search/r?dbs+hsdb:@term+@rn+@rel+104-54-1
   4. http://toxnet.nlm.nih.gov/cgi-bin/sis/search/r?dbs+hsdb:@term+@rn+@rel+104-54-1
   5. http://toxnet.nlm.nih.gov/cgi-bin/sis/search/r?dbs+hsdb:@term+@rn+@rel+104-54-1
   6. http://toxnet.nlm.nih.gov/cgi-bin/sis/search/r?dbs+hsdb:@term+@rn+@rel+104-54-1
   7. http://toxnet.nlm.nih.gov/cgi-bin/sis/search/r?dbs+hsdb:@term+@rn+@rel+104-54-1
   8. http://toxnet.nlm.nih.gov/cgi-bin/sis/search/r?dbs+hsdb:@term+@rn+@rel+104-54-1
   9. http://toxnet.nlm.nih.gov/cgi-bin/sis/search/r?dbs+hsdb:@term+@rn+@rel+104-54-1
  10. http://pubchem.ncbi.nlm.nih.gov/vw3d/vw3d.cgi?cid=5315892
