12447
  -OEChem-07051213132D

 44 45  0     0  0  0  0  0  0999 V2000
    3.5010    0.0000    0.0000 Cl  0  0  0  0  0  0  0  0  0  0  0  0
    7.4651    8.8100    0.0000 N   0  0  0  0  0  0  0  0  0  0  0  0
    0.5369    8.8100    0.0000 N   0  0  0  0  0  0  0  0  0  0  0  0
    4.0010    2.8100    0.0000 N   0  0  0  0  0  0  0  0  0  0  0  0
    4.0010    6.8100    0.0000 C   0  0  0  0  0  0  0  0  0  0  0  0
    4.0010    5.8100    0.0000 C   0  0  0  0  0  0  0  0  0  0  0  0
    4.8671    7.3100    0.0000 C   0  0  0  0  0  0  0  0  0  0  0  0
    3.1350    7.3100    0.0000 C   0  0  0  0  0  0  0  0  0  0  0  0
    3.1350    5.3100    0.0000 C   0  0  0  0  0  0  0  0  0  0  0  0
    3.1350    4.3100    0.0000 C   0  0  0  0  0  0  0  0  0  0  0  0
    4.8671    5.3100    0.0000 C   0  0  0  0  0  0  0  0  0  0  0  0
    2.2690    6.8100    0.0000 C   0  0  0  0  0  0  0  0  0  0  0  0
    4.8671    8.3100    0.0000 C   0  0  0  0  0  0  0  0  0  0  0  0
    3.1350    8.3100    0.0000 C   0  0  0  0  0  0  0  0  0  0  0  0
    5.7331    6.8100    0.0000 C   0  0  0  0  0  0  0  0  0  0  0  0
    4.0010    3.8100    0.0000 C   0  0  0  0  0  0  0  0  0  0  0  0
    4.8671    4.3100    0.0000 C   0  0  0  0  0  0  0  0  0  0  0  0
    5.7331    8.8100    0.0000 C   0  0  0  0  0  0  0  0  0  0  0  0
    1.4030    7.3100    0.0000 C   0  0  0  0  0  0  0  0  0  0  0  0
    6.5991    7.3100    0.0000 C   0  0  0  0  0  0  0  0  0  0  0  0
    2.2690    8.8100    0.0000 C   0  0  0  0  0  0  0  0  0  0  0  0
    6.5991    8.3100    0.0000 C   0  0  0  0  0  0  0  0  0  0  0  0
    1.4030    8.3100    0.0000 C   0  0  0  0  0  0  0  0  0  0  0  0
    2.2690    3.8100    0.0000 C   0  0  0  0  0  0  0  0  0  0  0  0
    2.5981    5.6200    0.0000 H   0  0  0  0  0  0  0  0  0  0  0  0
    5.4040    5.6200    0.0000 H   0  0  0  0  0  0  0  0  0  0  0  0
    4.3301    8.6200    0.0000 H   0  0  0  0  0  0  0  0  0  0  0  0
    2.2690    6.1900    0.0000 H   0  0  0  0  0  0  0  0  0  0  0  0
    5.7331    6.1900    0.0000 H   0  0  0  0  0  0  0  0  0  0  0  0
    3.6720    8.6200    0.0000 H   0  0  0  0  0  0  0  0  0  0  0  0
    5.4040    4.0000    0.0000 H   0  0  0  0  0  0  0  0  0  0  0  0
    0.8660    7.0000    0.0000 H   0  0  0  0  0  0  0  0  0  0  0  0
    5.7331    9.4300    0.0000 H   0  0  0  0  0  0  0  0  0  0  0  0
    2.2690    9.4300    0.0000 H   0  0  0  0  0  0  0  0  0  0  0  0
    7.1360    7.0000    0.0000 H   0  0  0  0  0  0  0  0  0  0  0  0
    1.9590    4.3469    0.0000 H   0  0  0  0  0  0  0  0  0  0  0  0
    1.7320    3.5000    0.0000 H   0  0  0  0  0  0  0  0  0  0  0  0
    2.5790    3.2731    0.0000 H   0  0  0  0  0  0  0  0  0  0  0  0
    7.4651    9.4300    0.0000 H   0  0  0  0  0  0  0  0  0  0  0  0
    8.0021    8.5000    0.0000 H   0  0  0  0  0  0  0  0  0  0  0  0
    0.5369    9.4300    0.0000 H   0  0  0  0  0  0  0  0  0  0  0  0
    0.0000    8.5000    0.0000 H   0  0  0  0  0  0  0  0  0  0  0  0
    4.5380    2.5000    0.0000 H   0  0  0  0  0  0  0  0  0  0  0  0
    4.5010    0.0000    0.0000 H   0  0  0  0  0  0  0  0  0  0  0  0
  1 44  1  0  0  0  0
  2 22  1  0  0  0  0
  2 39  1  0  0  0  0
  2 40  1  0  0  0  0
  3 23  1  0  0  0  0
  3 41  1  0  0  0  0
  3 42  1  0  0  0  0
  4 16  2  0  0  0  0
  4 43  1  0  0  0  0
  5  6  2  0  0  0  0
  5  7  1  0  0  0  0
  5  8  1  0  0  0  0
  6  9  1  0  0  0  0
  6 11  1  0  0  0  0
  7 13  2  0  0  0  0
  7 15  1  0  0  0  0
  8 12  2  0  0  0  0
  8 14  1  0  0  0  0
  9 10  2  0  0  0  0
  9 25  1  0  0  0  0
 10 16  1  0  0  0  0
 10 24  1  0  0  0  0
 11 17  2  0  0  0  0
 11 26  1  0  0  0  0
 12 19  1  0  0  0  0
 12 28  1  0  0  0  0
 13 18  1  0  0  0  0
 13 27  1  0  0  0  0
 14 21  2  0  0  0  0
 14 30  1  0  0  0  0
 15 20  2  0  0  0  0
 15 29  1  0  0  0  0
 16 17  1  0  0  0  0
 17 31  1  0  0  0  0
 18 22  2  0  0  0  0
 18 33  1  0  0  0  0
 19 23  2  0  0  0  0
 19 32  1  0  0  0  0
 20 22  1  0  0  0  0
 20 35  1  0  0  0  0
 21 23  1  0  0  0  0
 21 34  1  0  0  0  0
 24 36  1  0  0  0  0
 24 37  1  0  0  0  0
 24 38  1  0  0  0  0
M  END
> <PUBCHEM_COMPOUND_CID>
12447

> <PUBCHEM_COMPOUND_CANONICALIZED>
1

> <PUBCHEM_CACTVS_COMPLEXITY>
515

> <PUBCHEM_CACTVS_HBOND_ACCEPTOR>
3

> <PUBCHEM_CACTVS_HBOND_DONOR>
4

> <PUBCHEM_CACTVS_ROTATABLE_BOND>
2

> <PUBCHEM_CACTVS_SUBSKEYS>
AAADceB7AAAEAAAAAAAAAAAAAAAAAAAAAAAwYIAAAAAAAAABQAAAHAAQAAAADAiBGAAywIBAAACgAyRiQACCAAAgAgAIiAAwZJgIICKAkZGAIABgkAAIyAcQgMAOCAAAAAAAAAAQAAAAAAAAAAAAAAAAAA==

> <PUBCHEM_IUPAC_OPENEYE_NAME>
4-[(4-aminophenyl)-(4-imino-3-methyl-cyclohexa-2,5-dien-1-ylidene)methyl]aniline hydrochloride

> <PUBCHEM_IUPAC_CAS_NAME>
4-[(4-aminophenyl)-(4-imino-3-methyl-1-cyclohexa-2,5-dienylidene)methyl]aniline hydrochloride

> <PUBCHEM_IUPAC_NAME>
4-[(4-aminophenyl)-(4-imino-3-methylcyclohexa-2,5-dien-1-ylidene)methyl]aniline hydrochloride

> <PUBCHEM_IUPAC_SYSTEMATIC_NAME>
4-[(4-aminophenyl)-(4-azanylidene-3-methyl-cyclohexa-2,5-dien-1-ylidene)methyl]aniline hydrochloride

> <PUBCHEM_IUPAC_TRADITIONAL_NAME>
[4-[(4-aminophenyl)-(4-imino-3-methyl-cyclohexa-2,5-dien-1-ylidene)methyl]phenyl]amine hydrochloride

> <PUBCHEM_IUPAC_INCHI>
InChI=1S/C20H19N3.ClH/c1-13-12-16(6-11-19(13)23)20(14-2-7-17(21)8-3-14)15-4-9-18(22)10-5-15;/h2-12,23H,21-22H2,1H3;1H

> <PUBCHEM_IUPAC_INCHIKEY>
AXDJCCTWPBKUKL-UHFFFAOYSA-N

> <PUBCHEM_EXACT_MASS>
337.134575

> <PUBCHEM_MOLECULAR_FORMULA>
C20H20ClN3

> <PUBCHEM_MOLECULAR_WEIGHT>
337.8459

> <PUBCHEM_OPENEYE_CAN_SMILES>
CC1=CC(=C(C2=CC=C(C=C2)N)C3=CC=C(C=C3)N)C=CC1=N.Cl

> <PUBCHEM_OPENEYE_ISO_SMILES>
CC1=CC(=C(C2=CC=C(C=C2)N)C3=CC=C(C=C3)N)C=CC1=N.Cl

> <PUBCHEM_CACTVS_TPSA>
75.9

> <PUBCHEM_MONOISOTOPIC_WEIGHT>
337.134575

> <PUBCHEM_TOTAL_CHARGE>
0

> <PUBCHEM_HEAVY_ATOM_COUNT>
24

> <PUBCHEM_ATOM_DEF_STEREO_COUNT>
0

> <PUBCHEM_ATOM_UDEF_STEREO_COUNT>
0

> <PUBCHEM_BOND_DEF_STEREO_COUNT>
0

> <PUBCHEM_BOND_UDEF_STEREO_COUNT>
0

> <PUBCHEM_ISOTOPIC_ATOM_COUNT>
0

> <PUBCHEM_COMPONENT_COUNT>
2

> <PUBCHEM_CACTVS_TAUTO_COUNT>
7

> <PUBCHEM_COORDINATE_TYPE>
1
5
255

> <PUBCHEM_BONDANNOTATIONS>
12  19  8
13  18  8
14  21  8
15  20  8
18  22  8
19  23  8
20  22  8
21  23  8
7  13  8
7  15  8
8  12  8
8  14  8

$$$$

