4015
  -OEChem-06251223492D

 39 40  0     0  0  0  0  0  0999 V2000
    2.0000   -0.5313    0.0000 O   0  0  0  0  0  0  0  0  0  0  0  0
    6.0349    3.4117    0.0000 O   0  0  0  0  0  0  0  0  0  0  0  0
    4.8594    5.0298    0.0000 O   0  0  0  0  0  0  0  0  0  0  0  0
    2.8660   -5.0314    0.0000 N   0  0  0  0  0  0  0  0  0  0  0  0
    5.3147   -0.1949    0.0000 N   0  0  0  0  0  0  0  0  0  0  0  0
    4.4526    4.1162    0.0000 N   0  0  0  0  0  0  0  0  0  0  0  0
    2.8660   -2.0314    0.0000 C   0  0  0  0  0  0  0  0  0  0  0  0
    3.7320   -0.5313    0.0000 C   0  0  0  0  0  0  0  0  0  0  0  0
    2.8660   -4.0314    0.0000 C   0  0  0  0  0  0  0  0  0  0  0  0
    2.8660   -1.0314    0.0000 C   0  0  0  0  0  0  0  0  0  0  0  0
    3.8366    0.4632    0.0000 C   0  0  0  0  0  0  0  0  0  0  0  0
    4.8147    0.6711    0.0000 C   0  0  0  0  0  0  0  0  0  0  0  0
    2.0000   -2.5314    0.0000 C   0  0  0  0  0  0  0  0  0  0  0  0
    3.7320   -2.5314    0.0000 C   0  0  0  0  0  0  0  0  0  0  0  0
    2.0000   -3.5314    0.0000 C   0  0  0  0  0  0  0  0  0  0  0  0
    3.7320   -3.5314    0.0000 C   0  0  0  0  0  0  0  0  0  0  0  0
    4.6456   -0.9381    0.0000 C   0  0  0  0  0  0  0  0  0  0  0  0
    2.0000   -5.5314    0.0000 C   0  0  0  0  0  0  0  0  0  0  0  0
    3.7320   -5.5314    0.0000 C   0  0  0  0  0  0  0  0  0  0  0  0
    5.2215    1.5846    0.0000 C   0  0  0  0  0  0  0  0  0  0  0  0
    4.6337    2.3936    0.0000 C   0  0  0  0  0  0  0  0  0  0  0  0
    5.0404    3.3072    0.0000 C   0  0  0  0  0  0  0  0  0  0  0  0
    3.3758    0.8780    0.0000 H   0  0  0  0  0  0  0  0  0  0  0  0
    1.4631   -2.2214    0.0000 H   0  0  0  0  0  0  0  0  0  0  0  0
    4.2690   -2.2214    0.0000 H   0  0  0  0  0  0  0  0  0  0  0  0
    1.4631   -3.8414    0.0000 H   0  0  0  0  0  0  0  0  0  0  0  0
    4.2690   -3.8414    0.0000 H   0  0  0  0  0  0  0  0  0  0  0  0
    4.7745   -1.5445    0.0000 H   0  0  0  0  0  0  0  0  0  0  0  0
    5.9313   -0.2597    0.0000 H   0  0  0  0  0  0  0  0  0  0  0  0
    1.6900   -4.9944    0.0000 H   0  0  0  0  0  0  0  0  0  0  0  0
    1.4631   -5.8414    0.0000 H   0  0  0  0  0  0  0  0  0  0  0  0
    3.4220   -6.0683    0.0000 H   0  0  0  0  0  0  0  0  0  0  0  0
    4.2690   -5.8414    0.0000 H   0  0  0  0  0  0  0  0  0  0  0  0
    4.0420   -4.9944    0.0000 H   0  0  0  0  0  0  0  0  0  0  0  0
    2.3100   -6.0683    0.0000 H   0  0  0  0  0  0  0  0  0  0  0  0
    5.8381    1.6494    0.0000 H   0  0  0  0  0  0  0  0  0  0  0  0
    4.0171    2.3288    0.0000 H   0  0  0  0  0  0  0  0  0  0  0  0
    3.8360    4.0514    0.0000 H   0  0  0  0  0  0  0  0  0  0  0  0
    4.4949    5.5314    0.0000 H   0  0  0  0  0  0  0  0  0  0  0  0
  1 10  2  0  0  0  0
  2 22  2  0  0  0  0
  3  6  1  0  0  0  0
  3 39  1  0  0  0  0
  4  9  1  0  0  0  0
  4 18  1  0  0  0  0
  4 19  1  0  0  0  0
  5 12  1  0  0  0  0
  5 17  1  0  0  0  0
  5 29  1  0  0  0  0
  6 22  1  0  0  0  0
  6 38  1  0  0  0  0
  7 10  1  0  0  0  0
  7 13  2  0  0  0  0
  7 14  1  0  0  0  0
  8 10  1  0  0  0  0
  8 11  1  0  0  0  0
  8 17  2  0  0  0  0
  9 15  2  0  0  0  0
  9 16  1  0  0  0  0
 11 12  2  0  0  0  0
 11 23  1  0  0  0  0
 12 20  1  0  0  0  0
 13 15  1  0  0  0  0
 13 24  1  0  0  0  0
 14 16  2  0  0  0  0
 14 25  1  0  0  0  0
 15 26  1  0  0  0  0
 16 27  1  0  0  0  0
 17 28  1  0  0  0  0
 18 30  1  0  0  0  0
 18 31  1  0  0  0  0
 18 35  1  0  0  0  0
 19 32  1  0  0  0  0
 19 33  1  0  0  0  0
 19 34  1  0  0  0  0
 20 21  2  3  0  0  0
 20 36  1  0  0  0  0
 21 22  1  0  0  0  0
 21 37  1  0  0  0  0
M  END
> <PUBCHEM_COMPOUND_CID>
4015

> <PUBCHEM_COMPOUND_CANONICALIZED>
1

> <PUBCHEM_CACTVS_COMPLEXITY>
428

> <PUBCHEM_CACTVS_HBOND_ACCEPTOR>
4

> <PUBCHEM_CACTVS_HBOND_DONOR>
3

> <PUBCHEM_CACTVS_ROTATABLE_BOND>
5

> <PUBCHEM_CACTVS_SUBSKEYS>
AAADceB7MAAAAAAAAAAAAAAAAAAAAWAAAAAwAAAAAAAAAAABwAAAHgAUCAAADAzBngQ+wJPZkACoA7V3VACCgCA1AiAo2aE4ZNgIIPrAlZGEIYhgkADIycccicCeCAAAAAAAAAAQAAAAAAAAAAAAAAAAAA==

> <PUBCHEM_IUPAC_OPENEYE_NAME>
3-[4-[4-(dimethylamino)benzoyl]-1H-pyrrol-2-yl]prop-2-enehydroxamic acid

> <PUBCHEM_IUPAC_CAS_NAME>
3-[4-[[4-(dimethylamino)phenyl]-oxomethyl]-1H-pyrrol-2-yl]-N-hydroxy-2-propenamide

> <PUBCHEM_IUPAC_NAME>
3-[4-[4-(dimethylamino)benzoyl]-1H-pyrrol-2-yl]-N-hydroxyprop-2-enamide

> <PUBCHEM_IUPAC_SYSTEMATIC_NAME>
3-[4-[4-(dimethylamino)phenyl]carbonyl-1H-pyrrol-2-yl]-N-oxidanyl-prop-2-enamide

> <PUBCHEM_IUPAC_TRADITIONAL_NAME>
3-[4-[4-(dimethylamino)benzoyl]-1H-pyrrol-2-yl]prop-2-enehydroxamic acid

> <PUBCHEM_IUPAC_INCHI>
InChI=1S/C16H17N3O3/c1-19(2)14-6-3-11(4-7-14)16(21)12-9-13(17-10-12)5-8-15(20)18-22/h3-10,17,22H,1-2H3,(H,18,20)

> <PUBCHEM_IUPAC_INCHIKEY>
PZMGOPKBTWRXIK-UHFFFAOYSA-N

> <PUBCHEM_XLOGP3_AA>
1.4

> <PUBCHEM_EXACT_MASS>
299.126991

> <PUBCHEM_MOLECULAR_FORMULA>
C16H17N3O3

> <PUBCHEM_MOLECULAR_WEIGHT>
299.32448

> <PUBCHEM_OPENEYE_CAN_SMILES>
CN(C)C1=CC=C(C=C1)C(=O)C2=CNC(=C2)C=CC(=O)NO

> <PUBCHEM_OPENEYE_ISO_SMILES>
CN(C)C1=CC=C(C=C1)C(=O)C2=CNC(=C2)C=CC(=O)NO

> <PUBCHEM_CACTVS_TPSA>
85.4

> <PUBCHEM_MONOISOTOPIC_WEIGHT>
299.126991

> <PUBCHEM_TOTAL_CHARGE>
0

> <PUBCHEM_HEAVY_ATOM_COUNT>
22

> <PUBCHEM_ATOM_DEF_STEREO_COUNT>
0

> <PUBCHEM_ATOM_UDEF_STEREO_COUNT>
0

> <PUBCHEM_BOND_DEF_STEREO_COUNT>
0

> <PUBCHEM_BOND_UDEF_STEREO_COUNT>
1

> <PUBCHEM_ISOTOPIC_ATOM_COUNT>
0

> <PUBCHEM_COMPONENT_COUNT>
1

> <PUBCHEM_CACTVS_TAUTO_COUNT>
24

> <PUBCHEM_COORDINATE_TYPE>
1
5
255

> <PUBCHEM_BONDANNOTATIONS>
11  12  8
13  15  8
14  16  8
20  21  1
5  12  8
5  17  8
7  13  8
7  14  8
8  11  8
8  17  8
9  15  8
9  16  8

$$$$

