   Color/Form

     * Colorless liquid when fresh
     * Yellowish or brown oil

   from [1]HSDB

   Odor
        Agreeable empyreumatic odor resembling that of chloroform
   from [2]HSDB

   Taste
        Burning, pungent taste
   from [3]HSDB

   Boiling Point
        129.7 deg C
   from [4]HSDB

   Melting Point
        -23.4 deg C
   from [5]HSDB

   Critical Temperature and Pressure
        Critical temperature: 366.75 deg C; Critical pressure: 6.21X10+6
   Pa
   from [6]HSDB

   Density/Specific Gravity
        0.9698 @ 20 deg C
   from [7]HSDB

   Dissociation Constants

     * pKa= 17.5
     * pKa = -3.80 (protonated form)

   from [8]HSDB

   Heat of Combustion
        -2.2418X10+9 J/kmol
   from [9]HSDB

   Heat of Vaporization
        10.79 kcla/mol @ 25 deg C
   from [10]HSDB

   Octanol/Water Partition Coefficient
        log Kow = 0.75
   from [11]HSDB

   Solubilities

     * Soluble in alcohol, ether and dilute acids. Also soluble in most
       organic chemicals.
     * Water solubility: 4.5X10+4 mg/l @ 25 deg C

   from [12]HSDB

   Spectral Properties

     * Index of refraction: 1.5085 @ 20 deg C/D
     * MAX ABSORPTION (CYCLOHEXANE): 324 NM (LOG E= 4.47)
     * IR: 2556 (Coblentz Society Spectral Collection)
     * UV: 307 (Sadtler Research Laboratories Spectral Collection)
     * NMR: 55 (Varian Associates NMR Spectra Catalogue)
     * MASS: 50 (Atlas of Mass Spectral Data, John Wiley & Sons, New York)

   from [13]HSDB

   Surface Tension
        4.3079X10+2 N/m @ 249.74K
   from [14]HSDB

   Vapor Density
        2.31 (Air= 1)
   from [15]HSDB

   Vapor Pressure
        8.35 mm Hg @ 25 dec C
   from [16]HSDB

   Viscosity
        4.1123X10-3 Pa.s @ 249.74K
   from [17]HSDB

   Other Chemical/Physical Properties

     * Polymerizes under influence of acids and glycols; soln in dil
       hydrogen chloride yield pyrrole red, an amorphous, orange-colored
       substance
     * Decomposes in acid; Conversion factors: 1 mg/l= 3.64 ppm; 1 ppm=
       2.74 mg/cu m
     * Hydroxyl radical rate constant = 1.1X10-10 cu m/molc-sec @ 25 deg C
     * Henry's Law constant = 1.80X10-5 atm-cu m/mol @ 25 deg C
     * Hygroscopic

   from [18]HSDB

   Computed Properties
   Molecular Weight                  67.0892 [g/mol]
   Molecular Formula                 C[4]H[5]N
   XLogP3                            0.7
   H-Bond Donor                      1
   H-Bond Acceptor                   0
   Rotatable Bond Count              0
   Exact Mass                        67.042199
   MonoIsotopic Mass                 67.042199
   Topological Polar Surface Area    15.8
   Heavy Atom Count                  5
   Formal Charge                     0
   Complexity                        22.8
   Isotope Atom Count                0
   Defined Atom Stereocenter Count   0
   Undefined Atom Stereocenter Count 0
   Defined Bond Stereocenter Count   0
   Undefined Bond Stereocenter Count 0
   Covalently-Bonded Unit Count      1
   Feature 3D Donor Count            1
   Feature 3D Cation Count           1
   Feature 3D Ring Count             1
   Effective Rotor Count             0
   Conformer Sampling RMSD           0.4
   CID Conformer Count               [19]1

References

   1. http://toxnet.nlm.nih.gov/cgi-bin/sis/search/r?dbs+hsdb:@term+@rn+@rel+109-97-7
   2. http://toxnet.nlm.nih.gov/cgi-bin/sis/search/r?dbs+hsdb:@term+@rn+@rel+109-97-7
   3. http://toxnet.nlm.nih.gov/cgi-bin/sis/search/r?dbs+hsdb:@term+@rn+@rel+109-97-7
   4. http://toxnet.nlm.nih.gov/cgi-bin/sis/search/r?dbs+hsdb:@term+@rn+@rel+109-97-7
   5. http://toxnet.nlm.nih.gov/cgi-bin/sis/search/r?dbs+hsdb:@term+@rn+@rel+109-97-7
   6. http://toxnet.nlm.nih.gov/cgi-bin/sis/search/r?dbs+hsdb:@term+@rn+@rel+109-97-7
   7. http://toxnet.nlm.nih.gov/cgi-bin/sis/search/r?dbs+hsdb:@term+@rn+@rel+109-97-7
   8. http://toxnet.nlm.nih.gov/cgi-bin/sis/search/r?dbs+hsdb:@term+@rn+@rel+109-97-7
   9. http://toxnet.nlm.nih.gov/cgi-bin/sis/search/r?dbs+hsdb:@term+@rn+@rel+109-97-7
  10. http://toxnet.nlm.nih.gov/cgi-bin/sis/search/r?dbs+hsdb:@term+@rn+@rel+109-97-7
  11. http://toxnet.nlm.nih.gov/cgi-bin/sis/search/r?dbs+hsdb:@term+@rn+@rel+109-97-7
  12. http://toxnet.nlm.nih.gov/cgi-bin/sis/search/r?dbs+hsdb:@term+@rn+@rel+109-97-7
  13. http://toxnet.nlm.nih.gov/cgi-bin/sis/search/r?dbs+hsdb:@term+@rn+@rel+109-97-7
  14. http://toxnet.nlm.nih.gov/cgi-bin/sis/search/r?dbs+hsdb:@term+@rn+@rel+109-97-7
  15. http://toxnet.nlm.nih.gov/cgi-bin/sis/search/r?dbs+hsdb:@term+@rn+@rel+109-97-7
  16. http://toxnet.nlm.nih.gov/cgi-bin/sis/search/r?dbs+hsdb:@term+@rn+@rel+109-97-7
  17. http://toxnet.nlm.nih.gov/cgi-bin/sis/search/r?dbs+hsdb:@term+@rn+@rel+109-97-7
  18. http://toxnet.nlm.nih.gov/cgi-bin/sis/search/r?dbs+hsdb:@term+@rn+@rel+109-97-7
  19. http://pubchem.ncbi.nlm.nih.gov/vw3d/vw3d.cgi?cid=8027
