582990
  -OEChem-06241222442D

 35 37  0     1  0  0  0  0  0999 V2000
    7.2763   -3.0547    0.0000 O   0  0  0  0  0  0  0  0  0  0  0  0
    8.8600   -2.2500    0.0000 O   0  0  0  0  0  0  0  0  0  0  0  0
    3.7321   -1.2500    0.0000 O   0  0  0  0  0  0  0  0  0  0  0  0
    6.3301    0.2500    0.0000 O   0  0  0  0  0  0  0  0  0  0  0  0
    6.3301   -1.7500    0.0000 C   0  0  3  0  0  0  0  0  0  0  0  0
    6.3301   -2.7500    0.0000 C   0  0  3  0  0  0  0  0  0  0  0  0
    7.2763   -1.4453    0.0000 C   0  0  0  0  0  0  0  0  0  0  0  0
    5.4641   -1.2500    0.0000 C   0  0  0  0  0  0  0  0  0  0  0  0
    5.4641   -3.2500    0.0000 C   0  0  0  0  0  0  0  0  0  0  0  0
    7.8600   -2.2500    0.0000 C   0  0  0  0  0  0  0  0  0  0  0  0
    4.5981   -1.7500    0.0000 C   0  0  0  0  0  0  0  0  0  0  0  0
    4.5981   -2.7500    0.0000 C   0  0  0  0  0  0  0  0  0  0  0  0
    5.4641   -0.2500    0.0000 C   0  0  0  0  0  0  0  0  0  0  0  0
    4.5981    0.2500    0.0000 C   0  0  0  0  0  0  0  0  0  0  0  0
    4.5981    1.2500    0.0000 C   0  0  0  0  0  0  0  0  0  0  0  0
    3.7321    1.7500    0.0000 C   0  0  0  0  0  0  0  0  0  0  0  0
    2.8660    1.2500    0.0000 C   0  0  0  0  0  0  0  0  0  0  0  0
    3.7321    2.7500    0.0000 C   0  0  0  0  0  0  0  0  0  0  0  0
    2.0000    1.7500    0.0000 C   0  0  0  0  0  0  0  0  0  0  0  0
    2.8660    3.2500    0.0000 C   0  0  0  0  0  0  0  0  0  0  0  0
    2.0000    2.7500    0.0000 C   0  0  0  0  0  0  0  0  0  0  0  0
    6.3957   -1.1335    0.0000 H   0  0  0  0  0  0  0  0  0  0  0  0
    6.3957   -3.3665    0.0000 H   0  0  0  0  0  0  0  0  0  0  0  0
    7.8137   -1.1360    0.0000 H   0  0  0  0  0  0  0  0  0  0  0  0
    7.0253   -0.8784    0.0000 H   0  0  0  0  0  0  0  0  0  0  0  0
    5.4641   -3.8700    0.0000 H   0  0  0  0  0  0  0  0  0  0  0  0
    4.0611   -3.0600    0.0000 H   0  0  0  0  0  0  0  0  0  0  0  0
    4.0611   -0.0600    0.0000 H   0  0  0  0  0  0  0  0  0  0  0  0
    6.3301    0.8700    0.0000 H   0  0  0  0  0  0  0  0  0  0  0  0
    5.1350    1.5600    0.0000 H   0  0  0  0  0  0  0  0  0  0  0  0
    2.8660    0.6300    0.0000 H   0  0  0  0  0  0  0  0  0  0  0  0
    4.2690    3.0600    0.0000 H   0  0  0  0  0  0  0  0  0  0  0  0
    1.4631    1.4400    0.0000 H   0  0  0  0  0  0  0  0  0  0  0  0
    2.8660    3.8700    0.0000 H   0  0  0  0  0  0  0  0  0  0  0  0
    1.4631    3.0600    0.0000 H   0  0  0  0  0  0  0  0  0  0  0  0
  1  6  1  0  0  0  0
  1 10  1  0  0  0  0
  2 10  2  0  0  0  0
  3 11  2  0  0  0  0
  4 13  1  0  0  0  0
  4 29  1  0  0  0  0
  5  6  1  0  0  0  0
  5  7  1  0  0  0  0
  5  8  1  0  0  0  0
  5 22  1  0  0  0  0
  6  9  1  0  0  0  0
  6 23  1  0  0  0  0
  7 10  1  0  0  0  0
  7 24  1  0  0  0  0
  7 25  1  0  0  0  0
  8 11  1  0  0  0  0
  8 13  2  3  0  0  0
  9 12  2  0  0  0  0
  9 26  1  0  0  0  0
 11 12  1  0  0  0  0
 12 27  1  0  0  0  0
 13 14  1  0  0  0  0
 14 15  2  3  0  0  0
 14 28  1  0  0  0  0
 15 16  1  0  0  0  0
 15 30  1  0  0  0  0
 16 17  2  0  0  0  0
 16 18  1  0  0  0  0
 17 19  1  0  0  0  0
 17 31  1  0  0  0  0
 18 20  2  0  0  0  0
 18 32  1  0  0  0  0
 19 21  2  0  0  0  0
 19 33  1  0  0  0  0
 20 21  1  0  0  0  0
 20 34  1  0  0  0  0
 21 35  1  0  0  0  0
M  END
> <PUBCHEM_COMPOUND_CID>
582990

> <PUBCHEM_COMPOUND_CANONICALIZED>
1

> <PUBCHEM_CACTVS_COMPLEXITY>
535

> <PUBCHEM_CACTVS_HBOND_ACCEPTOR>
4

> <PUBCHEM_CACTVS_HBOND_DONOR>
1

> <PUBCHEM_CACTVS_ROTATABLE_BOND>
2

> <PUBCHEM_CACTVS_SUBSKEYS>
AAADccB4OAAAAAAAAAAAAAAAAAAAASAAAAAwQAAAAAAAAEABAAAAGgAACAAADRSgmAIwCIAABgCIAqDSCAACAAAgIAAIiAEAAMgIJDKAMRCCMAAkwAAIuYeKzgAuAAAAAAAAAAAAAAAAAAAAAAAAAAAAAA==

> <PUBCHEM_IUPAC_OPENEYE_NAME>
4-(1-hydroxy-3-phenyl-prop-2-enylidene)-3a,7a-dihydro-3H-benzofuran-2,5-dione

> <PUBCHEM_IUPAC_CAS_NAME>
4-(1-hydroxy-3-phenylprop-2-enylidene)-3a,7a-dihydro-3H-benzofuran-2,5-dione

> <PUBCHEM_IUPAC_NAME>
4-(1-hydroxy-3-phenylprop-2-enylidene)-3a,7a-dihydro-3H-1-benzofuran-2,5-dione

> <PUBCHEM_IUPAC_SYSTEMATIC_NAME>
4-(1-oxidanyl-3-phenyl-prop-2-enylidene)-3a,7a-dihydro-3H-1-benzofuran-2,5-dione

> <PUBCHEM_IUPAC_TRADITIONAL_NAME>
4-(1-hydroxy-3-phenyl-prop-2-enylidene)-3a,7a-dihydro-3H-benzofuran-2,5-quinone

> <PUBCHEM_IUPAC_INCHI>
InChI=1S/C17H14O4/c18-13(7-6-11-4-2-1-3-5-11)17-12-10-16(20)21-15(12)9-8-14(17)19/h1-9,12,15,18H,10H2

> <PUBCHEM_IUPAC_INCHIKEY>
PTLQMLWEJRHXDU-UHFFFAOYSA-N

> <PUBCHEM_XLOGP3_AA>
2.6

> <PUBCHEM_EXACT_MASS>
282.089209

> <PUBCHEM_MOLECULAR_FORMULA>
C17H14O4

> <PUBCHEM_MOLECULAR_WEIGHT>
282.29066

> <PUBCHEM_OPENEYE_CAN_SMILES>
C1C2C(C=CC(=O)C2=C(C=CC3=CC=CC=C3)O)OC1=O

> <PUBCHEM_OPENEYE_ISO_SMILES>
C1C2C(C=CC(=O)C2=C(C=CC3=CC=CC=C3)O)OC1=O

> <PUBCHEM_CACTVS_TPSA>
63.6

> <PUBCHEM_MONOISOTOPIC_WEIGHT>
282.089209

> <PUBCHEM_TOTAL_CHARGE>
0

> <PUBCHEM_HEAVY_ATOM_COUNT>
21

> <PUBCHEM_ATOM_DEF_STEREO_COUNT>
0

> <PUBCHEM_ATOM_UDEF_STEREO_COUNT>
2

> <PUBCHEM_BOND_DEF_STEREO_COUNT>
0

> <PUBCHEM_BOND_UDEF_STEREO_COUNT>
2

> <PUBCHEM_ISOTOPIC_ATOM_COUNT>
0

> <PUBCHEM_COMPONENT_COUNT>
1

> <PUBCHEM_CACTVS_TAUTO_COUNT>
6

> <PUBCHEM_COORDINATE_TYPE>
1
5
255

> <PUBCHEM_BONDANNOTATIONS>
14  15  1
16  17  8
16  18  8
17  19  8
18  20  8
19  21  8
20  21  8
5  22  3
6  23  3
8  13  1

$$$$

