   Color/Form

     * Colorless liquid
     * Colorless to yellowish oily liquid

   from [1]HSDB

   Odor
        Mercaptan-like odor
   from [2]HSDB

   Boiling Point
        Decomposes at about 135 deg C
   from [3]HSDB

   Melting Point
        Solidifies at -28 deg C
   from [4]HSDB

   Corrosivity
        Non-corrosive
   from [5]HSDB

   Density/Specific Gravity
        Specific gravity: 1.32
   from [6]HSDB

   Octanol/Water Partition Coefficient
        log Kow = -0.74 at 20 deg C
   from [7]HSDB

   Solubilities

     * Readily soluble in alcohols, acetone, and many hydrocarbons.
       Slightly soluble in diethyl ether. Almost insoluble in petroleum
       ether.
     * Soluble in toluene. Miscible in dichloromethane, 2-propanol. Nearly
       insoluble in n-hexane.
     * Readily soluble in water.

   from [8]HSDB

   Spectral Properties

     * Intense mass spectral peaks: 58 mz, 79 mz, 110 mz, 156 mz, 213 mz
     * Index of Refraction: 1.4987 at 20 deg C/D

   from [9]HSDB

   Vapor Pressure
        2.48X10-5 mm Hg at 20 deg C
   from [10]HSDB

   Other Chemical/Physical Properties

     * Henry's Law constant = 4.56X10-14 atm-cu m/mol at 25 deg C (est)
     * Hydroxyl radical reaction rate constant = 2.60X10-11 cu
       cm/molec-sec at 25 deg C (est)

   from [11]HSDB

   Computed Properties
   Molecular Weight                  213.191842 [g/mol]
   Molecular Formula                 C[5]H[12]NO[4]PS
   XLogP3                            -0.9
   H-Bond Donor                      1
   H-Bond Acceptor                   5
   Rotatable Bond Count              5
   Tautomer Count                    2
   Exact Mass                        213.022465
   MonoIsotopic Mass                 213.022465
   Topological Polar Surface Area    89.9
   Heavy Atom Count                  12
   Formal Charge                     0
   Complexity                        190
   Isotope Atom Count                0
   Defined Atom Stereocenter Count   0
   Undefined Atom Stereocenter Count 0
   Defined Bond Stereocenter Count   0
   Undefined Bond Stereocenter Count 0
   Covalently-Bonded Unit Count      1
   Feature 3D Acceptor Count         2
   Feature 3D Donor Count            1
   Effective Rotor Count             6
   Conformer Sampling RMSD           0.6
   CID Conformer Count               [12]104

References

   1. http://toxnet.nlm.nih.gov/cgi-bin/sis/search/r?dbs+hsdb:@term+@rn+@rel+1113-02-6
   2. http://toxnet.nlm.nih.gov/cgi-bin/sis/search/r?dbs+hsdb:@term+@rn+@rel+1113-02-6
   3. http://toxnet.nlm.nih.gov/cgi-bin/sis/search/r?dbs+hsdb:@term+@rn+@rel+1113-02-6
   4. http://toxnet.nlm.nih.gov/cgi-bin/sis/search/r?dbs+hsdb:@term+@rn+@rel+1113-02-6
   5. http://toxnet.nlm.nih.gov/cgi-bin/sis/search/r?dbs+hsdb:@term+@rn+@rel+1113-02-6
   6. http://toxnet.nlm.nih.gov/cgi-bin/sis/search/r?dbs+hsdb:@term+@rn+@rel+1113-02-6
   7. http://toxnet.nlm.nih.gov/cgi-bin/sis/search/r?dbs+hsdb:@term+@rn+@rel+1113-02-6
   8. http://toxnet.nlm.nih.gov/cgi-bin/sis/search/r?dbs+hsdb:@term+@rn+@rel+1113-02-6
   9. http://toxnet.nlm.nih.gov/cgi-bin/sis/search/r?dbs+hsdb:@term+@rn+@rel+1113-02-6
  10. http://toxnet.nlm.nih.gov/cgi-bin/sis/search/r?dbs+hsdb:@term+@rn+@rel+1113-02-6
  11. http://toxnet.nlm.nih.gov/cgi-bin/sis/search/r?dbs+hsdb:@term+@rn+@rel+1113-02-6
  12. http://pubchem.ncbi.nlm.nih.gov/vw3d/vw3d.cgi?cid=14210
