328953
  -OEChem-07051213102D

 58 61  0     1  0  0  0  0  0999 V2000
    3.5000   -3.4247    0.0000 Br  0  0  0  0  0  0  0  0  0  0  0  0
    3.5000    0.0394    0.0000 Br  0  0  0  0  0  0  0  0  0  0  0  0
   14.0336   -1.4630    0.0000 Br  0  0  0  0  0  0  0  0  0  0  0  0
   11.9975    1.3395    0.0000 Br  0  0  0  0  0  0  0  0  0  0  0  0
    6.0878   -2.5017    0.0000 O   0  0  0  0  0  0  0  0  0  0  0  0
    5.5000   -3.4247    0.0000 O   0  0  0  0  0  0  0  0  0  0  0  0
    2.5000   -1.6927    0.0000 O   0  0  0  0  0  0  0  0  0  0  0  0
   15.4426    2.7016    0.0000 O   0  0  0  0  0  0  0  0  0  0  0  0
    7.7433    0.3896    0.0000 O   0  0  0  0  0  0  0  0  0  0  0  0
   12.2065   -0.6495    0.0000 O   0  0  0  0  0  0  0  0  0  0  0  0
   10.5885   -1.8251    0.0000 O   0  0  0  0  0  0  0  0  0  0  0  0
   16.7027    3.9617    0.0000 O   0  0  0  0  0  0  0  0  0  0  0  0
    7.0388   -2.1927    0.0000 N   0  0  0  0  0  0  0  0  0  0  0  0
    8.7614   -1.0116    0.0000 N   0  0  0  0  0  0  0  0  0  0  0  0
   16.9814    2.2016    0.0000 N   0  0  0  0  0  0  0  0  0  0  0  0
    5.5000   -1.6927    0.0000 C   0  0  3  0  0  0  0  0  0  0  0  0
    6.0878   -0.8837    0.0000 C   0  0  0  0  0  0  0  0  0  0  0  0
    5.0000   -2.5587    0.0000 C   0  0  3  0  0  0  0  0  0  0  0  0
    5.0000   -0.8267    0.0000 C   0  0  0  0  0  0  0  0  0  0  0  0
    7.0388   -1.1927    0.0000 C   0  0  0  0  0  0  0  0  0  0  0  0
    4.0000   -2.5587    0.0000 C   0  0  0  0  0  0  0  0  0  0  0  0
    4.0000   -0.8267    0.0000 C   0  0  0  0  0  0  0  0  0  0  0  0
    3.5000   -1.6927    0.0000 C   0  0  0  0  0  0  0  0  0  0  0  0
    7.8479   -0.6049    0.0000 C   0  0  0  0  0  0  0  0  0  0  0  0
    9.5704   -0.4239    0.0000 C   0  0  0  0  0  0  0  0  0  0  0  0
   10.4840   -0.8306    0.0000 C   0  0  3  0  0  0  0  0  0  0  0  0
   15.4426    1.7016    0.0000 C   0  0  3  0  0  0  0  0  0  0  0  0
   16.3937    1.3926    0.0000 C   0  0  0  0  0  0  0  0  0  0  0  0
   14.6336    1.1138    0.0000 C   0  0  0  0  0  0  0  0  0  0  0  0
   11.2930   -0.2428    0.0000 C   0  0  0  0  0  0  0  0  0  0  0  0
   13.7200    1.5206    0.0000 C   0  0  0  0  0  0  0  0  0  0  0  0
   14.7381    0.1193    0.0000 C   0  0  0  0  0  0  0  0  0  0  0  0
   13.0155   -0.0618    0.0000 C   0  0  0  0  0  0  0  0  0  0  0  0
   13.9291   -0.4685    0.0000 C   0  0  0  0  0  0  0  0  0  0  0  0
   12.9110    0.9328    0.0000 C   0  0  0  0  0  0  0  0  0  0  0  0
    2.0000   -0.8267    0.0000 C   0  0  0  0  0  0  0  0  0  0  0  0
   16.3937    3.0106    0.0000 C   0  0  0  0  0  0  0  0  0  0  0  0
    6.3400   -0.3173    0.0000 H   0  0  0  0  0  0  0  0  0  0  0  0
    5.5508   -0.5737    0.0000 H   0  0  0  0  0  0  0  0  0  0  0  0
    5.6200   -2.5587    0.0000 H   0  0  0  0  0  0  0  0  0  0  0  0
    5.3100   -0.2897    0.0000 H   0  0  0  0  0  0  0  0  0  0  0  0
    5.1900   -3.9617    0.0000 H   0  0  0  0  0  0  0  0  0  0  0  0
    8.8262   -1.6282    0.0000 H   0  0  0  0  0  0  0  0  0  0  0  0
    9.9171    0.0902    0.0000 H   0  0  0  0  0  0  0  0  0  0  0  0
    9.1244    0.0068    0.0000 H   0  0  0  0  0  0  0  0  0  0  0  0
   15.5396    1.0892    0.0000 H   0  0  0  0  0  0  0  0  0  0  0  0
   11.0504   -1.0828    0.0000 H   0  0  0  0  0  0  0  0  0  0  0  0
   16.1415    0.8262    0.0000 H   0  0  0  0  0  0  0  0  0  0  0  0
   16.9306    1.0826    0.0000 H   0  0  0  0  0  0  0  0  0  0  0  0
   11.6397    0.2712    0.0000 H   0  0  0  0  0  0  0  0  0  0  0  0
   10.8470    0.1879    0.0000 H   0  0  0  0  0  0  0  0  0  0  0  0
   17.6014    2.2016    0.0000 H   0  0  0  0  0  0  0  0  0  0  0  0
   13.6552    2.1372    0.0000 H   0  0  0  0  0  0  0  0  0  0  0  0
   15.3045   -0.1329    0.0000 H   0  0  0  0  0  0  0  0  0  0  0  0
    2.5369   -0.5167    0.0000 H   0  0  0  0  0  0  0  0  0  0  0  0
    1.6900   -0.2897    0.0000 H   0  0  0  0  0  0  0  0  0  0  0  0
    1.4631   -1.1367    0.0000 H   0  0  0  0  0  0  0  0  0  0  0  0
   11.1549   -2.0773    0.0000 H   0  0  0  0  0  0  0  0  0  0  0  0
  1 21  1  0  0  0  0
  2 22  1  0  0  0  0
  3 34  1  0  0  0  0
  4 35  1  0  0  0  0
  5 13  1  0  0  0  0
  5 16  1  0  0  0  0
  6 18  1  0  0  0  0
  6 42  1  0  0  0  0
  7 23  1  0  0  0  0
  7 36  1  0  0  0  0
  8 27  1  0  0  0  0
  8 37  1  0  0  0  0
  9 24  2  0  0  0  0
 10 30  1  0  0  0  0
 10 33  1  0  0  0  0
 11 26  1  0  0  0  0
 11 58  1  0  0  0  0
 12 37  2  0  0  0  0
 13 20  2  0  0  0  0
 14 24  1  0  0  0  0
 14 25  1  0  0  0  0
 14 43  1  0  0  0  0
 15 28  1  0  0  0  0
 15 37  1  0  0  0  0
 15 52  1  0  0  0  0
 16 17  1  0  0  0  0
 16 18  1  0  0  0  0
 16 19  1  0  0  0  0
 17 20  1  0  0  0  0
 17 38  1  0  0  0  0
 17 39  1  0  0  0  0
 18 21  1  0  0  0  0
 18 40  1  0  0  0  0
 19 22  2  0  0  0  0
 19 41  1  0  0  0  0
 20 24  1  0  0  0  0
 21 23  2  0  0  0  0
 22 23  1  0  0  0  0
 25 26  1  0  0  0  0
 25 44  1  0  0  0  0
 25 45  1  0  0  0  0
 26 30  1  0  0  0  0
 26 47  1  0  0  0  0
 27 28  1  0  0  0  0
 27 29  1  0  0  0  0
 27 46  1  0  0  0  0
 28 48  1  0  0  0  0
 28 49  1  0  0  0  0
 29 31  2  0  0  0  0
 29 32  1  0  0  0  0
 30 50  1  0  0  0  0
 30 51  1  0  0  0  0
 31 35  1  0  0  0  0
 31 53  1  0  0  0  0
 32 34  2  0  0  0  0
 32 54  1  0  0  0  0
 33 34  1  0  0  0  0
 33 35  2  0  0  0  0
 36 55  1  0  0  0  0
 36 56  1  0  0  0  0
 36 57  1  0  0  0  0
M  END
> <PUBCHEM_COMPOUND_CID>
328953

> <PUBCHEM_COMPOUND_CANONICALIZED>
1

> <PUBCHEM_CACTVS_COMPLEXITY>
998

> <PUBCHEM_CACTVS_HBOND_ACCEPTOR>
9

> <PUBCHEM_CACTVS_HBOND_DONOR>
4

> <PUBCHEM_CACTVS_ROTATABLE_BOND>
8

> <PUBCHEM_CACTVS_SUBSKEYS>
AAADceB7PAAAHAAAAAAAAAAAAAAAAWIAAAAwQAAAAAAAAAABAAAAHgBUCAABrFzhmAYyDoLQBgCoAyFyGAACCAAgIAQAiIE8CKkPNjKEsRuPeCCm1hGbuhe6/K5OIAAAEAAgBABAAAAgAEAIAAAAAAAAAA==

> <PUBCHEM_IUPAC_OPENEYE_NAME>
7,9-dibromo-N-[3-[2,6-dibromo-4-(2-oxooxazolidin-5-yl)phenoxy]-2-hydroxy-propyl]-10-hydroxy-8-methoxy-1-oxa-2-azaspiro[4.5]deca-2,6,8-triene-3-carboxamide

> <PUBCHEM_IUPAC_CAS_NAME>
7,9-dibromo-N-[3-[2,6-dibromo-4-(2-oxo-5-oxazolidinyl)phenoxy]-2-hydroxypropyl]-10-hydroxy-8-methoxy-1-oxa-2-azaspiro[4.5]deca-2,6,8-triene-3-carboxamide

> <PUBCHEM_IUPAC_NAME>
7,9-dibromo-N-[3-[2,6-dibromo-4-(2-oxo-1,3-oxazolidin-5-yl)phenoxy]-2-hydroxypropyl]-10-hydroxy-8-methoxy-1-oxa-2-azaspiro[4.5]deca-2,6,8-triene-3-carboxamide

> <PUBCHEM_IUPAC_SYSTEMATIC_NAME>
N-[3-[2,6-bis(bromanyl)-4-(2-oxidanylidene-1,3-oxazolidin-5-yl)phenoxy]-2-oxidanyl-propyl]-7,9-bis(bromanyl)-8-methoxy-10-oxidanyl-1-oxa-2-azaspiro[4.5]deca-2,6,8-triene-3-carboxamide

> <PUBCHEM_IUPAC_TRADITIONAL_NAME>
7,9-dibromo-N-[3-[2,6-dibromo-4-(2-ketooxazolidin-5-yl)phenoxy]-2-hydroxy-propyl]-10-hydroxy-8-methoxy-1-oxa-2-azaspiro[4.5]deca-2,6,8-triene-3-carboxamide

> <PUBCHEM_IUPAC_INCHI>
InChI=1S/C22H21Br4N3O8/c1-34-18-13(25)4-22(19(31)16(18)26)5-14(29-37-22)20(32)27-6-10(30)8-35-17-11(23)2-9(3-12(17)24)15-7-28-21(33)36-15/h2-4,10,15,19,30-31H,5-8H2,1H3,(H,27,32)(H,28,33)

> <PUBCHEM_IUPAC_INCHIKEY>
WZKUTASMIUOUPM-UHFFFAOYSA-N

> <PUBCHEM_XLOGP3_AA>
2

> <PUBCHEM_EXACT_MASS>
774.80212

> <PUBCHEM_MOLECULAR_FORMULA>
C22H21Br4N3O8

> <PUBCHEM_MOLECULAR_WEIGHT>
775.03344

> <PUBCHEM_OPENEYE_CAN_SMILES>
COC1=C(C(C2(CC(=NO2)C(=O)NCC(COC3=C(C=C(C=C3Br)C4CNC(=O)O4)Br)O)C=C1Br)O)Br

> <PUBCHEM_OPENEYE_ISO_SMILES>
COC1=C(C(C2(CC(=NO2)C(=O)NCC(COC3=C(C=C(C=C3Br)C4CNC(=O)O4)Br)O)C=C1Br)O)Br

> <PUBCHEM_CACTVS_TPSA>
148

> <PUBCHEM_MONOISOTOPIC_WEIGHT>
770.806213

> <PUBCHEM_TOTAL_CHARGE>
0

> <PUBCHEM_HEAVY_ATOM_COUNT>
37

> <PUBCHEM_ATOM_DEF_STEREO_COUNT>
0

> <PUBCHEM_ATOM_UDEF_STEREO_COUNT>
4

> <PUBCHEM_BOND_DEF_STEREO_COUNT>
0

> <PUBCHEM_BOND_UDEF_STEREO_COUNT>
0

> <PUBCHEM_ISOTOPIC_ATOM_COUNT>
0

> <PUBCHEM_COMPONENT_COUNT>
1

> <PUBCHEM_CACTVS_TAUTO_COUNT>
8

> <PUBCHEM_COORDINATE_TYPE>
1
5
255

> <PUBCHEM_BONDANNOTATIONS>
26  11  3
16  17  3
27  29  3
29  31  8
29  32  8
31  35  8
32  34  8
33  34  8
33  35  8
18  6  3

$$$$

