   Color/Form

     * CRYSTALS FROM XYLENE; MEDICINAL GRADE IS YELLOWISH-BROWN POWDER
     * ABOVE 150 DEG, SUBLIMATES OF NEEDLES, PRISMS & RODS; ABOVE 200 DEG
       BROWN DROPS; MELT TURNS DARK-BROWN
     * LIGHT YELLOWISH TO TAN, MICROCRYSTALLINE POWDER

   from [1]HSDB

   Odor
        ODORLESS OR NEARLY SO
   from [2]HSDB

   Melting Point
        MP 200-215 DEG C WITH EXTENSIVE DECOMP
   from [3]HSDB

   Solubilities
        ALMOST INSOL IN WATER; SPARINGLY SOL IN ALCOHOL, ETHER, ACETONE;
   SOL IN HOT PYRIDINE & HOT DIOXANE
   from [4]HSDB

   Spectral Properties

     * IR: 8496 (Sadtler Research Laboratories IR Grating Collection)
     * UV: 8-109 (Organic Electronic Spectral Data, Phillips et al, John
       Wiley & Sons, New York)

   from [5]HSDB

   Computed Properties
   Molecular Weight                  396.95104 [g/mol]
   Molecular Formula                 C[9]H[5]I[2]NO
   XLogP3-AA                         3.1
   H-Bond Donor                      1
   H-Bond Acceptor                   2
   Rotatable Bond Count              0
   Tautomer Count                    2
   Exact Mass                        396.84606
   MonoIsotopic Mass                 396.84606
   Topological Polar Surface Area    33.1
   Heavy Atom Count                  13
   Formal Charge                     0
   Complexity                        191
   Isotope Atom Count                0
   Defined Atom Stereocenter Count   0
   Undefined Atom Stereocenter Count 0
   Defined Bond Stereocenter Count   0
   Undefined Bond Stereocenter Count 0
   Covalently-Bonded Unit Count      1
   Feature 3D Acceptor Count         1
   Feature 3D Donor Count            1
   Feature 3D Hydrophobe Count       2
   Feature 3D Ring Count             2
   Effective Rotor Count             0
   Conformer Sampling RMSD           0.4
   CID Conformer Count               [6]1

References

   1. http://toxnet.nlm.nih.gov/cgi-bin/sis/search/r?dbs+hsdb:@term+@rn+@rel+83-73-8
   2. http://toxnet.nlm.nih.gov/cgi-bin/sis/search/r?dbs+hsdb:@term+@rn+@rel+83-73-8
   3. http://toxnet.nlm.nih.gov/cgi-bin/sis/search/r?dbs+hsdb:@term+@rn+@rel+83-73-8
   4. http://toxnet.nlm.nih.gov/cgi-bin/sis/search/r?dbs+hsdb:@term+@rn+@rel+83-73-8
   5. http://toxnet.nlm.nih.gov/cgi-bin/sis/search/r?dbs+hsdb:@term+@rn+@rel+83-73-8
   6. http://pubchem.ncbi.nlm.nih.gov/vw3d/vw3d.cgi?cid=3728
