   Color/Form

     * Clear, colorless, viscous liquids to waxy solids
     * Clear viscous liquids or white solids which dissolve in water
       forming transparent solutions
     * FRACTIONS WITH MOL WT OF 600 & BELOW ARE LIQUID, OF 1000 & ABOVE
       ARE SOLID

   from [1]HSDB

   Corrosivity
        Solvent action on some plastics
   from [2]HSDB

   Solubilities

     * Soluble or miscible with water and for the most part with alcohol
       and other organic solvents
     * Soluble in many organic solvents; readily soluble in aromatic
       hydrocarbons; only slightly soluble in aliphatic hydrocarbons

   from [3]HSDB

   Spectral Properties
        Intense mass spectral peaks: 45 m/z, 59 m/z, 89 m/z, 119 m/z, 133
   m/z
   from [4]HSDB

   Vapor Pressure
        Have low vapor pressure
   from [5]HSDB

   Other Chemical/Physical Properties

     * Liquid and solid polymers of general formula H(OCH2CH2)n-OH where n
       is greater than or equal to 4. In general, each PEG is followed by
       a number which corresponds to its average molecular weight
     * Average value of n is 4; mol wt range 190-210; viscous, hygroscopic
       liquid; slight characteristic odor; density 1.27 at 25 deg C/25 deg
       C; viscosity at 210 deg F: 4.3 cSt /Polyethylene glycol 200/
     * Average value of n between 8.2 and 9.1; mol wt range 380-420;
       viscous, slightly hygroscopic liquid; slight characteristic odor;
       density 1.110-1.140 at 25 deg C/25 deg C; mp 4-8 deg C; viscosity
       at 210 deg F: 6.8-8.0 cSt /Polyethylene glycol 400/
     * Average value of n between 12.5 and 13.9; mol wt range 570-630;
       viscous, slightly hygroscopic liquid; characteristic odor; density:
       1.128 at 25 deg C/25 deg C; mp 20-25 deg C; viscosity: 10.5 cSt at
       210 deg F /Polyethylene glycol 600/
     * Average value of n between 29 and 36, mol wt range 1300-1600;
       white, free-flowing powder; density 1.210 at 25 deg C/25 deg C; mp
       44-48 deg C; viscosity at 210 deg F: 25-32 cSt /Polyethylene glycol
       1500/
     * Average value of n between 68 and 84; mol weight range 1300-1600;
       White, free-flowing powder or creamy-white flakes; density: 1.212
       at 25 deg c/25 deg C; mp 54-58 deg C; viscosity at 210 deg F:
       76-110 cSt /Polyethylene glycol 4000/
     * Average value of n between 158 and 204; mol wt range 7000-9000;
       powder or creamy-white flakes; density 1.21 at25 deg c/25 deg C; mp
       56-63 deg C; viscosity at 210 degF: 470-900 cSt /Polyethylene
       glycol 6000/
     * WITH MOL WT 200, 300, 400 & 600, ODORLESS, VERY LOW VAPOR PRESSURES
     * AS MOL WT INCR WATER SOL, VAPOR PRESSURE, HYGROSCOPICITY & SOL IN
       ORGANIC SOLVENTS DECR; AS MOL WT INCR FREEZING OR MELTING RANGE,
       SPECIFIC GRAVITY, FLASH POINT & VISCOSITY INCR
     * Heat stable; inert to many chemical agents. Do not hydrolyze or
       deteriorate

   from [6]HSDB

   Computed Properties
   Molecular Weight                  62.06784 [g/mol]
   Molecular Formula                 C[2]H[6]O[2]
   XLogP3                            -1.4
   H-Bond Donor                      2
   H-Bond Acceptor                   2
   Rotatable Bond Count              1
   Exact Mass                        62.036779
   MonoIsotopic Mass                 62.036779
   Topological Polar Surface Area    40.5
   Heavy Atom Count                  4
   Formal Charge                     0
   Complexity                        6
   Isotope Atom Count                0
   Defined Atom Stereocenter Count   0
   Undefined Atom Stereocenter Count 0
   Defined Bond Stereocenter Count   0
   Undefined Bond Stereocenter Count 0
   Covalently-Bonded Unit Count      1
   Feature 3D Acceptor Count         2
   Feature 3D Donor Count            2
   Effective Rotor Count             1
   Conformer Sampling RMSD           0.4
   CID Conformer Count               [7]3

References

   1. http://toxnet.nlm.nih.gov/cgi-bin/sis/search/r?dbs+hsdb:@term+@rn+@rel+25322-68-3
   2. http://toxnet.nlm.nih.gov/cgi-bin/sis/search/r?dbs+hsdb:@term+@rn+@rel+25322-68-3
   3. http://toxnet.nlm.nih.gov/cgi-bin/sis/search/r?dbs+hsdb:@term+@rn+@rel+25322-68-3
   4. http://toxnet.nlm.nih.gov/cgi-bin/sis/search/r?dbs+hsdb:@term+@rn+@rel+25322-68-3
   5. http://toxnet.nlm.nih.gov/cgi-bin/sis/search/r?dbs+hsdb:@term+@rn+@rel+25322-68-3
   6. http://toxnet.nlm.nih.gov/cgi-bin/sis/search/r?dbs+hsdb:@term+@rn+@rel+25322-68-3
   7. http://pubchem.ncbi.nlm.nih.gov/vw3d/vw3d.cgi?cid=174
