2520
  -OEChem-07051212532D

 71 72  0     1  0  0  0  0  0999 V2000
    2.8660   -2.4820    0.0000 O   0  0  0  0  0  0  0  0  0  0  0  0
    4.5981   -3.4820    0.0000 O   0  0  0  0  0  0  0  0  0  0  0  0
   12.0981    1.3840    0.0000 O   0  0  0  0  0  0  0  0  0  0  0  0
   13.0981    3.1160    0.0000 O   0  0  0  0  0  0  0  0  0  0  0  0
    7.5981    2.2500    0.0000 N   0  0  3  0  0  0  0  0  0  0  0  0
    2.5981    0.5179    0.0000 N   0  0  0  0  0  0  0  0  0  0  0  0
    4.5981    0.5179    0.0000 C   0  0  3  0  0  0  0  0  0  0  0  0
    4.5981    1.5180    0.0000 C   0  0  0  0  0  0  0  0  0  0  0  0
    5.5981    0.5179    0.0000 C   0  0  0  0  0  0  0  0  0  0  0  0
    6.0981    1.3840    0.0000 C   0  0  0  0  0  0  0  0  0  0  0  0
    4.5981   -0.4821    0.0000 C   0  0  0  0  0  0  0  0  0  0  0  0
    7.0981    1.3840    0.0000 C   0  0  0  0  0  0  0  0  0  0  0  0
    5.4641    2.0180    0.0000 C   0  0  0  0  0  0  0  0  0  0  0  0
    3.7320    2.0180    0.0000 C   0  0  0  0  0  0  0  0  0  0  0  0
    3.5981    0.5179    0.0000 C   0  0  0  0  0  0  0  0  0  0  0  0
    3.7320   -0.9821    0.0000 C   0  0  0  0  0  0  0  0  0  0  0  0
    5.4641   -0.9821    0.0000 C   0  0  0  0  0  0  0  0  0  0  0  0
    8.5981    2.2500    0.0000 C   0  0  0  0  0  0  0  0  0  0  0  0
    3.7320   -1.9820    0.0000 C   0  0  0  0  0  0  0  0  0  0  0  0
    7.0981    3.1160    0.0000 C   0  0  0  0  0  0  0  0  0  0  0  0
    5.4641   -1.9820    0.0000 C   0  0  0  0  0  0  0  0  0  0  0  0
    9.0981    3.1160    0.0000 C   0  0  0  0  0  0  0  0  0  0  0  0
    4.5981   -2.4820    0.0000 C   0  0  0  0  0  0  0  0  0  0  0  0
   10.0981    3.1160    0.0000 C   0  0  0  0  0  0  0  0  0  0  0  0
   10.5981    2.2500    0.0000 C   0  0  0  0  0  0  0  0  0  0  0  0
   10.5981    3.9820    0.0000 C   0  0  0  0  0  0  0  0  0  0  0  0
   11.5981    2.2500    0.0000 C   0  0  0  0  0  0  0  0  0  0  0  0
    2.0000   -1.9820    0.0000 C   0  0  0  0  0  0  0  0  0  0  0  0
   11.5981    3.9820    0.0000 C   0  0  0  0  0  0  0  0  0  0  0  0
   12.0981    3.1160    0.0000 C   0  0  0  0  0  0  0  0  0  0  0  0
    5.4641   -3.9820    0.0000 C   0  0  0  0  0  0  0  0  0  0  0  0
   13.0981    1.3840    0.0000 C   0  0  0  0  0  0  0  0  0  0  0  0
   13.5981    3.9820    0.0000 C   0  0  0  0  0  0  0  0  0  0  0  0
    4.5981    2.1380    0.0000 H   0  0  0  0  0  0  0  0  0  0  0  0
    5.4904   -0.0926    0.0000 H   0  0  0  0  0  0  0  0  0  0  0  0
    6.1807    0.3059    0.0000 H   0  0  0  0  0  0  0  0  0  0  0  0
    6.2057    1.9946    0.0000 H   0  0  0  0  0  0  0  0  0  0  0  0
    5.5155    1.5960    0.0000 H   0  0  0  0  0  0  0  0  0  0  0  0
    6.9904    0.7734    0.0000 H   0  0  0  0  0  0  0  0  0  0  0  0
    7.6807    1.1719    0.0000 H   0  0  0  0  0  0  0  0  0  0  0  0
    4.0420    2.5549    0.0000 H   0  0  0  0  0  0  0  0  0  0  0  0
    5.7741    1.4810    0.0000 H   0  0  0  0  0  0  0  0  0  0  0  0
    6.0010    2.3280    0.0000 H   0  0  0  0  0  0  0  0  0  0  0  0
    5.1541    2.5549    0.0000 H   0  0  0  0  0  0  0  0  0  0  0  0
    3.1951    2.3280    0.0000 H   0  0  0  0  0  0  0  0  0  0  0  0
    3.4220    1.4810    0.0000 H   0  0  0  0  0  0  0  0  0  0  0  0
    3.1951   -0.6721    0.0000 H   0  0  0  0  0  0  0  0  0  0  0  0
    6.0010   -0.6721    0.0000 H   0  0  0  0  0  0  0  0  0  0  0  0
    8.4904    1.6394    0.0000 H   0  0  0  0  0  0  0  0  0  0  0  0
    9.1807    2.0380    0.0000 H   0  0  0  0  0  0  0  0  0  0  0  0
    7.6350    3.4260    0.0000 H   0  0  0  0  0  0  0  0  0  0  0  0
    6.7881    3.6530    0.0000 H   0  0  0  0  0  0  0  0  0  0  0  0
    6.5611    2.8060    0.0000 H   0  0  0  0  0  0  0  0  0  0  0  0
    9.2057    3.7266    0.0000 H   0  0  0  0  0  0  0  0  0  0  0  0
    8.5155    3.3281    0.0000 H   0  0  0  0  0  0  0  0  0  0  0  0
    6.0010   -2.2920    0.0000 H   0  0  0  0  0  0  0  0  0  0  0  0
   10.2881    1.7131    0.0000 H   0  0  0  0  0  0  0  0  0  0  0  0
   10.2881    4.5190    0.0000 H   0  0  0  0  0  0  0  0  0  0  0  0
    2.3100   -1.4451    0.0000 H   0  0  0  0  0  0  0  0  0  0  0  0
    1.4631   -1.6720    0.0000 H   0  0  0  0  0  0  0  0  0  0  0  0
    1.6900   -2.5190    0.0000 H   0  0  0  0  0  0  0  0  0  0  0  0
   11.9081    4.5190    0.0000 H   0  0  0  0  0  0  0  0  0  0  0  0
    5.1541   -4.5190    0.0000 H   0  0  0  0  0  0  0  0  0  0  0  0
    6.0010   -4.2920    0.0000 H   0  0  0  0  0  0  0  0  0  0  0  0
    5.7741   -3.4451    0.0000 H   0  0  0  0  0  0  0  0  0  0  0  0
   13.0981    0.7640    0.0000 H   0  0  0  0  0  0  0  0  0  0  0  0
   13.7181    1.3840    0.0000 H   0  0  0  0  0  0  0  0  0  0  0  0
   13.0981    2.0040    0.0000 H   0  0  0  0  0  0  0  0  0  0  0  0
   14.1350    3.6720    0.0000 H   0  0  0  0  0  0  0  0  0  0  0  0
   13.9081    4.5190    0.0000 H   0  0  0  0  0  0  0  0  0  0  0  0
   13.0611    4.2920    0.0000 H   0  0  0  0  0  0  0  0  0  0  0  0
  1 19  1  0  0  0  0
  1 28  1  0  0  0  0
  2 23  1  0  0  0  0
  2 31  1  0  0  0  0
  3 27  1  0  0  0  0
  3 32  1  0  0  0  0
  4 30  1  0  0  0  0
  4 33  1  0  0  0  0
  5 12  1  0  0  0  0
  5 18  1  0  0  0  0
  5 20  1  0  0  0  0
  6 15  3  0  0  0  0
  7  8  1  0  0  0  0
  7  9  1  0  0  0  0
  7 11  1  0  0  0  0
  7 15  1  0  0  0  0
  8 13  1  0  0  0  0
  8 14  1  0  0  0  0
  8 34  1  0  0  0  0
  9 10  1  0  0  0  0
  9 35  1  0  0  0  0
  9 36  1  0  0  0  0
 10 12  1  0  0  0  0
 10 37  1  0  0  0  0
 10 38  1  0  0  0  0
 11 16  2  0  0  0  0
 11 17  1  0  0  0  0
 12 39  1  0  0  0  0
 12 40  1  0  0  0  0
 13 42  1  0  0  0  0
 13 43  1  0  0  0  0
 13 44  1  0  0  0  0
 14 41  1  0  0  0  0
 14 45  1  0  0  0  0
 14 46  1  0  0  0  0
 16 19  1  0  0  0  0
 16 47  1  0  0  0  0
 17 21  2  0  0  0  0
 17 48  1  0  0  0  0
 18 22  1  0  0  0  0
 18 49  1  0  0  0  0
 18 50  1  0  0  0  0
 19 23  2  0  0  0  0
 20 51  1  0  0  0  0
 20 52  1  0  0  0  0
 20 53  1  0  0  0  0
 21 23  1  0  0  0  0
 21 56  1  0  0  0  0
 22 24  1  0  0  0  0
 22 54  1  0  0  0  0
 22 55  1  0  0  0  0
 24 25  2  0  0  0  0
 24 26  1  0  0  0  0
 25 27  1  0  0  0  0
 25 57  1  0  0  0  0
 26 29  2  0  0  0  0
 26 58  1  0  0  0  0
 27 30  2  0  0  0  0
 28 59  1  0  0  0  0
 28 60  1  0  0  0  0
 28 61  1  0  0  0  0
 29 30  1  0  0  0  0
 29 62  1  0  0  0  0
 31 63  1  0  0  0  0
 31 64  1  0  0  0  0
 31 65  1  0  0  0  0
 32 66  1  0  0  0  0
 32 67  1  0  0  0  0
 32 68  1  0  0  0  0
 33 69  1  0  0  0  0
 33 70  1  0  0  0  0
 33 71  1  0  0  0  0
M  END
> <PUBCHEM_COMPOUND_CID>
2520

> <PUBCHEM_COMPOUND_CANONICALIZED>
1

> <PUBCHEM_CACTVS_COMPLEXITY>
606

> <PUBCHEM_CACTVS_HBOND_ACCEPTOR>
6

> <PUBCHEM_CACTVS_HBOND_DONOR>
0

> <PUBCHEM_CACTVS_ROTATABLE_BOND>
13

> <PUBCHEM_CACTVS_SUBSKEYS>
AAADcfB7OAAAAAAAAAAAAAAAAAAAAAAAAAAwYAAAAAAAAAABQAAAHgAAAAAADwTBmAYyBoMABACQBiBCAAACCAAgIAAIiAAOiIgNpiKEsRuEMCIkwBGKqA+Q0PIPoAABAAAAQABAAAIAAACAAAAAAAAAAA==

> <PUBCHEM_IUPAC_OPENEYE_NAME>
2-(3,4-dimethoxyphenyl)-5-[2-(3,4-dimethoxyphenyl)ethyl-methyl-amino]-2-isopropyl-pentanenitrile

> <PUBCHEM_IUPAC_CAS_NAME>
2-(3,4-dimethoxyphenyl)-5-[2-(3,4-dimethoxyphenyl)ethyl-methylamino]-2-propan-2-ylpentanenitrile

> <PUBCHEM_IUPAC_NAME>
2-(3,4-dimethoxyphenyl)-5-[2-(3,4-dimethoxyphenyl)ethyl-methylamino]-2-propan-2-ylpentanenitrile

> <PUBCHEM_IUPAC_SYSTEMATIC_NAME>
2-(3,4-dimethoxyphenyl)-5-[2-(3,4-dimethoxyphenyl)ethyl-methyl-amino]-2-propan-2-yl-pentanenitrile

> <PUBCHEM_IUPAC_TRADITIONAL_NAME>
2-(3,4-dimethoxyphenyl)-5-[homoveratryl(methyl)amino]-2-isopropyl-valeronitrile

> <PUBCHEM_IUPAC_INCHI>
InChI=1S/C27H38N2O4/c1-20(2)27(19-28,22-10-12-24(31-5)26(18-22)33-7)14-8-15-29(3)16-13-21-9-11-23(30-4)25(17-21)32-6/h9-12,17-18,20H,8,13-16H2,1-7H3

> <PUBCHEM_IUPAC_INCHIKEY>
SGTNSNPWRIOYBX-UHFFFAOYSA-N

> <PUBCHEM_XLOGP3>
3.8

> <PUBCHEM_EXACT_MASS>
454.283158

> <PUBCHEM_MOLECULAR_FORMULA>
C27H38N2O4

> <PUBCHEM_MOLECULAR_WEIGHT>
454.60162

> <PUBCHEM_OPENEYE_CAN_SMILES>
CC(C)C(CCCN(C)CCC1=CC(=C(C=C1)OC)OC)(C#N)C2=CC(=C(C=C2)OC)OC

> <PUBCHEM_OPENEYE_ISO_SMILES>
CC(C)C(CCCN(C)CCC1=CC(=C(C=C1)OC)OC)(C#N)C2=CC(=C(C=C2)OC)OC

> <PUBCHEM_CACTVS_TPSA>
64

> <PUBCHEM_MONOISOTOPIC_WEIGHT>
454.283158

> <PUBCHEM_TOTAL_CHARGE>
0

> <PUBCHEM_HEAVY_ATOM_COUNT>
33

> <PUBCHEM_ATOM_DEF_STEREO_COUNT>
0

> <PUBCHEM_ATOM_UDEF_STEREO_COUNT>
1

> <PUBCHEM_BOND_DEF_STEREO_COUNT>
0

> <PUBCHEM_BOND_UDEF_STEREO_COUNT>
0

> <PUBCHEM_ISOTOPIC_ATOM_COUNT>
0

> <PUBCHEM_COMPONENT_COUNT>
1

> <PUBCHEM_CACTVS_TAUTO_COUNT>
1

> <PUBCHEM_COORDINATE_TYPE>
1
5
255

> <PUBCHEM_BONDANNOTATIONS>
11  16  8
11  17  8
16  19  8
17  21  8
19  23  8
21  23  8
24  25  8
24  26  8
25  27  8
26  29  8
27  30  8
29  30  8
7  9  3

$$$$

