   Color/Form

     * Fine beige powder
     * White crystalline solid
     * Agglomerates at 20 deg C

   from [1]HSDB

   Odor
        Weak odor
   from [2]HSDB

   Melting Point
        75.9 deg C
   from [3]HSDB

   Density/Specific Gravity
        1.21 @ 20 deg C
   from [4]HSDB

   Dissociation Constants
        pKa = 4.44
   from [5]HSDB

   Octanol/Water Partition Coefficient
        log Kow= 4.00
   from [6]HSDB

   pH
        Weak base
   from [7]HSDB

   Solubilities

     * In ethanol 160, acetone 610, toluene 460, n-hexane 30, n-octanol
       160 (all in g/l @ 25 deg C)
     * In water, 13 mg/l @ 25 deg C

   from [8]HSDB

   Vapor Pressure
        3.68X10-6 mm Hg @ 25 deg C
   from [9]HSDB

   Other Chemical/Physical Properties

     * VAP: 5.1X10-4 Pa (crystal modif. A); 4.7X10-4 Pa (crystal modif B).
     * log Kow = 3.9 (pH 5.0); 4.0 (pH 7.0); 4.0 (pH 9.0)

   from [10]HSDB

   Computed Properties
   Molecular Weight                  225.289 [g/mol]
   Molecular Formula                 C[14]H[15]N[3]
   XLogP3-AA                         3.1
   H-Bond Donor                      1
   H-Bond Acceptor                   3
   Rotatable Bond Count              3
   Tautomer Count                    9
   Exact Mass                        225.126597
   MonoIsotopic Mass                 225.126597
   Topological Polar Surface Area    37.8
   Heavy Atom Count                  17
   Formal Charge                     0
   Complexity                        246
   Isotope Atom Count                0
   Defined Atom Stereocenter Count   0
   Undefined Atom Stereocenter Count 0
   Defined Bond Stereocenter Count   0
   Undefined Bond Stereocenter Count 0
   Covalently-Bonded Unit Count      1
   Feature 3D Acceptor Count         1
   Feature 3D Donor Count            1
   Feature 3D Cation Count           1
   Feature 3D Ring Count             2
   Effective Rotor Count             3.6
   Conformer Sampling RMSD           0.6
   CID Conformer Count               [11]21

References

   1. http://toxnet.nlm.nih.gov/cgi-bin/sis/search/r?dbs+hsdb:@term+@rn+@rel+121552-61-2
   2. http://toxnet.nlm.nih.gov/cgi-bin/sis/search/r?dbs+hsdb:@term+@rn+@rel+121552-61-2
   3. http://toxnet.nlm.nih.gov/cgi-bin/sis/search/r?dbs+hsdb:@term+@rn+@rel+121552-61-2
   4. http://toxnet.nlm.nih.gov/cgi-bin/sis/search/r?dbs+hsdb:@term+@rn+@rel+121552-61-2
   5. http://toxnet.nlm.nih.gov/cgi-bin/sis/search/r?dbs+hsdb:@term+@rn+@rel+121552-61-2
   6. http://toxnet.nlm.nih.gov/cgi-bin/sis/search/r?dbs+hsdb:@term+@rn+@rel+121552-61-2
   7. http://toxnet.nlm.nih.gov/cgi-bin/sis/search/r?dbs+hsdb:@term+@rn+@rel+121552-61-2
   8. http://toxnet.nlm.nih.gov/cgi-bin/sis/search/r?dbs+hsdb:@term+@rn+@rel+121552-61-2
   9. http://toxnet.nlm.nih.gov/cgi-bin/sis/search/r?dbs+hsdb:@term+@rn+@rel+121552-61-2
  10. http://toxnet.nlm.nih.gov/cgi-bin/sis/search/r?dbs+hsdb:@term+@rn+@rel+121552-61-2
  11. http://pubchem.ncbi.nlm.nih.gov/vw3d/vw3d.cgi?cid=86367
