17395787
  -OEChem-06241222522D

 42 45  0     1  0  0  0  0  0999 V2000
    7.1270   -3.0547    0.0000 S   0  0  0  0  0  0  0  0  0  0  0  0
    6.1808    1.2500    0.0000 O   0  0  0  0  0  0  0  0  0  0  0  0
    5.3147   -0.2500    0.0000 N   0  0  0  0  0  0  0  0  0  0  0  0
    2.6691    0.1567    0.0000 N   0  0  0  0  0  0  0  0  0  0  0  0
    3.4782   -1.2445    0.0000 N   0  0  0  0  0  0  0  0  0  0  0  0
    4.4487   -1.7500    0.0000 N   0  0  0  0  0  0  0  0  0  0  0  0
    5.3147   -3.2500    0.0000 N   0  0  0  0  0  0  0  0  0  0  0  0
    4.4487    0.2500    0.0000 C   0  0  3  0  0  0  0  0  0  0  0  0
    3.5827   -0.2500    0.0000 C   0  0  0  0  0  0  0  0  0  0  0  0
    4.4487    1.2500    0.0000 C   0  0  0  0  0  0  0  0  0  0  0  0
    5.3147    1.7500    0.0000 C   0  0  0  0  0  0  0  0  0  0  0  0
    5.3147   -1.2500    0.0000 C   0  0  0  0  0  0  0  0  0  0  0  0
    3.5827    1.7500    0.0000 C   0  0  0  0  0  0  0  0  0  0  0  0
    6.1808   -1.7500    0.0000 C   0  0  0  0  0  0  0  0  0  0  0  0
    2.0000   -0.5864    0.0000 C   0  0  0  0  0  0  0  0  0  0  0  0
    2.4612    1.1349    0.0000 C   0  0  0  0  0  0  0  0  0  0  0  0
    2.5000   -1.4524    0.0000 C   0  0  0  0  0  0  0  0  0  0  0  0
    5.3147    2.7500    0.0000 C   0  0  0  0  0  0  0  0  0  0  0  0
    3.5827    2.7500    0.0000 C   0  0  0  0  0  0  0  0  0  0  0  0
    4.4487    3.2500    0.0000 C   0  0  0  0  0  0  0  0  0  0  0  0
    6.1808   -2.7500    0.0000 C   0  0  0  0  0  0  0  0  0  0  0  0
    7.1270   -1.4453    0.0000 C   0  0  0  0  0  0  0  0  0  0  0  0
    7.7106   -2.2500    0.0000 C   0  0  0  0  0  0  0  0  0  0  0  0
    4.4487   -2.7500    0.0000 C   0  0  0  0  0  0  0  0  0  0  0  0
    7.0468    1.7500    0.0000 C   0  0  0  0  0  0  0  0  0  0  0  0
    4.9856    0.5600    0.0000 H   0  0  0  0  0  0  0  0  0  0  0  0
    5.8517    0.0600    0.0000 H   0  0  0  0  0  0  0  0  0  0  0  0
    3.0457    1.4400    0.0000 H   0  0  0  0  0  0  0  0  0  0  0  0
    1.3834   -0.5216    0.0000 H   0  0  0  0  0  0  0  0  0  0  0  0
    3.0677    1.2638    0.0000 H   0  0  0  0  0  0  0  0  0  0  0  0
    2.3323    1.7413    0.0000 H   0  0  0  0  0  0  0  0  0  0  0  0
    1.8548    1.0060    0.0000 H   0  0  0  0  0  0  0  0  0  0  0  0
    2.2478   -2.0188    0.0000 H   0  0  0  0  0  0  0  0  0  0  0  0
    5.8517    3.0600    0.0000 H   0  0  0  0  0  0  0  0  0  0  0  0
    3.0457    3.0600    0.0000 H   0  0  0  0  0  0  0  0  0  0  0  0
    4.4487    3.8700    0.0000 H   0  0  0  0  0  0  0  0  0  0  0  0
    7.3196   -0.8559    0.0000 H   0  0  0  0  0  0  0  0  0  0  0  0
    8.3306   -2.2500    0.0000 H   0  0  0  0  0  0  0  0  0  0  0  0
    3.9118   -3.0600    0.0000 H   0  0  0  0  0  0  0  0  0  0  0  0
    7.3568    1.2131    0.0000 H   0  0  0  0  0  0  0  0  0  0  0  0
    7.5837    2.0600    0.0000 H   0  0  0  0  0  0  0  0  0  0  0  0
    6.7368    2.2869    0.0000 H   0  0  0  0  0  0  0  0  0  0  0  0
  1 21  1  0  0  0  0
  1 23  1  0  0  0  0
  2 11  1  0  0  0  0
  2 25  1  0  0  0  0
  3  8  1  0  0  0  0
  3 12  1  0  0  0  0
  3 27  1  0  0  0  0
  4  9  1  0  0  0  0
  4 15  1  0  0  0  0
  4 16  1  0  0  0  0
  5  9  2  0  0  0  0
  5 17  1  0  0  0  0
  6 12  1  0  0  0  0
  6 24  2  0  0  0  0
  7 21  2  0  0  0  0
  7 24  1  0  0  0  0
  8  9  1  0  0  0  0
  8 10  1  0  0  0  0
  8 26  1  0  0  0  0
 10 11  1  0  0  0  0
 10 13  2  0  0  0  0
 11 18  2  0  0  0  0
 12 14  2  0  0  0  0
 13 19  1  0  0  0  0
 13 28  1  0  0  0  0
 14 21  1  0  0  0  0
 14 22  1  0  0  0  0
 15 17  2  0  0  0  0
 15 29  1  0  0  0  0
 16 30  1  0  0  0  0
 16 31  1  0  0  0  0
 16 32  1  0  0  0  0
 17 33  1  0  0  0  0
 18 20  1  0  0  0  0
 18 34  1  0  0  0  0
 19 20  2  0  0  0  0
 19 35  1  0  0  0  0
 20 36  1  0  0  0  0
 22 23  2  0  0  0  0
 22 37  1  0  0  0  0
 23 38  1  0  0  0  0
 24 39  1  0  0  0  0
 25 40  1  0  0  0  0
 25 41  1  0  0  0  0
 25 42  1  0  0  0  0
M  END
> <PUBCHEM_COMPOUND_CID>
17395787

> <PUBCHEM_COMPOUND_CANONICALIZED>
1

> <PUBCHEM_CACTVS_COMPLEXITY>
442

> <PUBCHEM_CACTVS_HBOND_ACCEPTOR>
6

> <PUBCHEM_CACTVS_HBOND_DONOR>
1

> <PUBCHEM_CACTVS_ROTATABLE_BOND>
5

> <PUBCHEM_CACTVS_SUBSKEYS>
AAADceB7oABAAAAAAAAAAAAAAAAAAWJAAAA8QAAAAAAAAFgB/gAAHgQQAAAADCzF2wa/t9fMFAikAjJnZACD2K1xOrhJ2Lg+fJiMbqLk+duUNCxuwBPo6CewwKAOAAAAAAAIAAAAAAAAABAAAAAAAAAAAA==

> <PUBCHEM_IUPAC_OPENEYE_NAME>
N-[(2-methoxyphenyl)-(1-methylimidazol-2-yl)methyl]thieno[2,3-d]pyrimidin-4-amine

> <PUBCHEM_IUPAC_CAS_NAME>
N-[(2-methoxyphenyl)-(1-methyl-2-imidazolyl)methyl]-4-thieno[2,3-d]pyrimidinamine

> <PUBCHEM_IUPAC_NAME>
N-[(2-methoxyphenyl)-(1-methylimidazol-2-yl)methyl]thieno[2,3-d]pyrimidin-4-amine

> <PUBCHEM_IUPAC_SYSTEMATIC_NAME>
N-[(2-methoxyphenyl)-(1-methylimidazol-2-yl)methyl]thieno[2,3-d]pyrimidin-4-amine

> <PUBCHEM_IUPAC_TRADITIONAL_NAME>
[(2-methoxyphenyl)-(1-methylimidazol-2-yl)methyl]-thieno[2,3-d]pyrimidin-4-yl-amine

> <PUBCHEM_IUPAC_INCHI>
InChI=1S/C18H17N5OS/c1-23-9-8-19-17(23)15(12-5-3-4-6-14(12)24-2)22-16-13-7-10-25-18(13)21-11-20-16/h3-11,15H,1-2H3,(H,20,21,22)

> <PUBCHEM_IUPAC_INCHIKEY>
CWLNFMIDIVGCBY-UHFFFAOYSA-N

> <PUBCHEM_XLOGP3_AA>
3.2

> <PUBCHEM_EXACT_MASS>
351.115381

> <PUBCHEM_MOLECULAR_FORMULA>
C18H17N5OS

> <PUBCHEM_MOLECULAR_WEIGHT>
351.42548

> <PUBCHEM_OPENEYE_CAN_SMILES>
CN1C=CN=C1C(C2=CC=CC=C2OC)NC3=C4C=CSC4=NC=N3

> <PUBCHEM_OPENEYE_ISO_SMILES>
CN1C=CN=C1C(C2=CC=CC=C2OC)NC3=C4C=CSC4=NC=N3

> <PUBCHEM_CACTVS_TPSA>
93.1

> <PUBCHEM_MONOISOTOPIC_WEIGHT>
351.115381

> <PUBCHEM_TOTAL_CHARGE>
0

> <PUBCHEM_HEAVY_ATOM_COUNT>
25

> <PUBCHEM_ATOM_DEF_STEREO_COUNT>
0

> <PUBCHEM_ATOM_UDEF_STEREO_COUNT>
1

> <PUBCHEM_BOND_DEF_STEREO_COUNT>
0

> <PUBCHEM_BOND_UDEF_STEREO_COUNT>
0

> <PUBCHEM_ISOTOPIC_ATOM_COUNT>
0

> <PUBCHEM_COMPONENT_COUNT>
1

> <PUBCHEM_CACTVS_TAUTO_COUNT>
4

> <PUBCHEM_COORDINATE_TYPE>
1
5
255

> <PUBCHEM_BONDANNOTATIONS>
1  21  8
1  23  8
10  11  8
10  13  8
11  18  8
12  14  8
13  19  8
14  21  8
14  22  8
15  17  8
18  20  8
19  20  8
22  23  8
8  3  3
4  15  8
4  9  8
5  17  8
5  9  8
6  12  8
6  24  8
7  21  8
7  24  8

$$$$

