46173827
  -OEChem-07051213092D

122121  0     1  0  0  0  0  0999 V2000
   32.3109   -0.5950    0.0000 O   0  0  0  0  0  0  0  0  0  0  0  0
   30.5788   -0.5950    0.0000 O   0  0  0  0  0  0  0  0  0  0  0  0
   28.8468   -0.5950    0.0000 O   0  0  0  0  0  0  0  0  0  0  0  0
   23.6506   -0.5950    0.0000 O   0  0  0  0  0  0  0  0  0  0  0  0
   16.7224   -0.5950    0.0000 O   0  0  0  0  0  0  0  0  0  0  0  0
    8.0622   -0.5950    0.0000 O   0  0  0  0  0  0  0  0  0  0  0  0
   25.3827   -0.5950    0.0000 O   0  0  0  0  0  0  0  0  0  0  0  0
   14.9904   -0.5950    0.0000 O   0  0  0  0  0  0  0  0  0  0  0  0
    9.7942   -0.5950    0.0000 O   0  0  0  0  0  0  0  0  0  0  0  0
   18.4545   -0.5950    0.0000 O   0  0  0  0  0  0  0  0  0  0  0  0
   21.9186   -0.5950    0.0000 O   0  0  0  0  0  0  0  0  0  0  0  0
    6.3301   -0.5950    0.0000 O   0  0  0  0  0  0  0  0  0  0  0  0
    2.8660   -0.5950    0.0000 O   0  0  0  0  0  0  0  0  0  0  0  0
   32.3109    0.4050    0.0000 C   0  0  3  0  0  0  0  0  0  0  0  0
   31.4449    0.9050    0.0000 C   0  0  0  0  0  0  0  0  0  0  0  0
   33.1769    0.9050    0.0000 C   0  0  0  0  0  0  0  0  0  0  0  0
   30.5788    0.4050    0.0000 C   0  0  3  0  0  0  0  0  0  0  0  0
   34.0429    0.4050    0.0000 C   0  0  0  0  0  0  0  0  0  0  0  0
   29.7128    0.9050    0.0000 C   0  0  0  0  0  0  0  0  0  0  0  0
   34.9090    0.9050    0.0000 C   0  0  0  0  0  0  0  0  0  0  0  0
   28.8468    0.4050    0.0000 C   0  0  0  0  0  0  0  0  0  0  0  0
   27.9808    0.9050    0.0000 C   0  0  0  0  0  0  0  0  0  0  0  0
   35.7750    0.4050    0.0000 C   0  0  0  0  0  0  0  0  0  0  0  0
   27.1147    0.4050    0.0000 C   0  0  0  0  0  0  0  0  0  0  0  0
   12.3923    0.9050    0.0000 C   0  0  0  0  0  0  0  0  0  0  0  0
   13.2583    0.4050    0.0000 C   0  0  0  0  0  0  0  0  0  0  0  0
   26.2487    0.9050    0.0000 C   0  0  0  0  0  0  0  0  0  0  0  0
   11.5263    0.4050    0.0000 C   0  0  0  0  0  0  0  0  0  0  0  0
   14.1244    0.9050    0.0000 C   0  0  0  0  0  0  0  0  0  0  0  0
   23.6506    0.4050    0.0000 C   0  0  3  0  0  0  0  0  0  0  0  0
   16.7224    0.4050    0.0000 C   0  0  3  0  0  0  0  0  0  0  0  0
   24.5167    0.9050    0.0000 C   0  0  0  0  0  0  0  0  0  0  0  0
   10.6603    0.9050    0.0000 C   0  0  0  0  0  0  0  0  0  0  0  0
   15.8564    0.9050    0.0000 C   0  0  0  0  0  0  0  0  0  0  0  0
   17.5885    0.9050    0.0000 C   0  0  0  0  0  0  0  0  0  0  0  0
   22.7846    0.9050    0.0000 C   0  0  0  0  0  0  0  0  0  0  0  0
   25.3827    0.4050    0.0000 C   0  0  0  0  0  0  0  0  0  0  0  0
   20.1865    0.4050    0.0000 C   0  0  0  0  0  0  0  0  0  0  0  0
   14.9904    0.4050    0.0000 C   0  0  0  0  0  0  0  0  0  0  0  0
   19.3205    0.9050    0.0000 C   0  0  0  0  0  0  0  0  0  0  0  0
   21.0526    0.9050    0.0000 C   0  0  0  0  0  0  0  0  0  0  0  0
    8.9282    0.9050    0.0000 C   0  0  0  0  0  0  0  0  0  0  0  0
   36.6410    0.9050    0.0000 C   0  0  0  0  0  0  0  0  0  0  0  0
    8.0622    0.4050    0.0000 C   0  0  3  0  0  0  0  0  0  0  0  0
    9.7942    0.4050    0.0000 C   0  0  0  0  0  0  0  0  0  0  0  0
   18.4545    0.4050    0.0000 C   0  0  0  0  0  0  0  0  0  0  0  0
   21.9186    0.4050    0.0000 C   0  0  0  0  0  0  0  0  0  0  0  0
    7.1962    0.9050    0.0000 C   0  0  0  0  0  0  0  0  0  0  0  0
    6.3301    0.4050    0.0000 C   0  0  0  0  0  0  0  0  0  0  0  0
    5.4641    0.9050    0.0000 C   0  0  0  0  0  0  0  0  0  0  0  0
    4.5981    0.4050    0.0000 C   0  0  0  0  0  0  0  0  0  0  0  0
    3.7320    0.9050    0.0000 C   0  0  0  0  0  0  0  0  0  0  0  0
    2.8660    0.4050    0.0000 C   0  0  0  0  0  0  0  0  0  0  0  0
    2.0000    0.9050    0.0000 C   0  0  0  0  0  0  0  0  0  0  0  0
   32.8478    0.0950    0.0000 H   0  0  0  0  0  0  0  0  0  0  0  0
   31.8434    1.3800    0.0000 H   0  0  0  0  0  0  0  0  0  0  0  0
   31.0463    1.3800    0.0000 H   0  0  0  0  0  0  0  0  0  0  0  0
   33.5754    1.3800    0.0000 H   0  0  0  0  0  0  0  0  0  0  0  0
   32.7784    1.3800    0.0000 H   0  0  0  0  0  0  0  0  0  0  0  0
   30.0419    0.0950    0.0000 H   0  0  0  0  0  0  0  0  0  0  0  0
   33.6444   -0.0699    0.0000 H   0  0  0  0  0  0  0  0  0  0  0  0
   34.4415   -0.0699    0.0000 H   0  0  0  0  0  0  0  0  0  0  0  0
   30.1113    1.3800    0.0000 H   0  0  0  0  0  0  0  0  0  0  0  0
   29.3143    1.3800    0.0000 H   0  0  0  0  0  0  0  0  0  0  0  0
   35.3075    1.3800    0.0000 H   0  0  0  0  0  0  0  0  0  0  0  0
   34.5104    1.3800    0.0000 H   0  0  0  0  0  0  0  0  0  0  0  0
   28.3793    1.3800    0.0000 H   0  0  0  0  0  0  0  0  0  0  0  0
   27.5822    1.3800    0.0000 H   0  0  0  0  0  0  0  0  0  0  0  0
   35.3765   -0.0699    0.0000 H   0  0  0  0  0  0  0  0  0  0  0  0
   36.1735   -0.0699    0.0000 H   0  0  0  0  0  0  0  0  0  0  0  0
   26.7162   -0.0699    0.0000 H   0  0  0  0  0  0  0  0  0  0  0  0
   27.5133   -0.0699    0.0000 H   0  0  0  0  0  0  0  0  0  0  0  0
   12.7908    1.3800    0.0000 H   0  0  0  0  0  0  0  0  0  0  0  0
   11.9938    1.3800    0.0000 H   0  0  0  0  0  0  0  0  0  0  0  0
   12.8598   -0.0699    0.0000 H   0  0  0  0  0  0  0  0  0  0  0  0
   13.6569   -0.0699    0.0000 H   0  0  0  0  0  0  0  0  0  0  0  0
   26.6472    1.3800    0.0000 H   0  0  0  0  0  0  0  0  0  0  0  0
   25.8502    1.3800    0.0000 H   0  0  0  0  0  0  0  0  0  0  0  0
   11.1278   -0.0699    0.0000 H   0  0  0  0  0  0  0  0  0  0  0  0
   11.9248   -0.0699    0.0000 H   0  0  0  0  0  0  0  0  0  0  0  0
   32.8478   -0.9050    0.0000 H   0  0  0  0  0  0  0  0  0  0  0  0
   14.5229    1.3800    0.0000 H   0  0  0  0  0  0  0  0  0  0  0  0
   13.7258    1.3800    0.0000 H   0  0  0  0  0  0  0  0  0  0  0  0
   23.1137    0.0950    0.0000 H   0  0  0  0  0  0  0  0  0  0  0  0
   16.1855    0.0950    0.0000 H   0  0  0  0  0  0  0  0  0  0  0  0
   24.9152    1.3800    0.0000 H   0  0  0  0  0  0  0  0  0  0  0  0
   24.1181    1.3800    0.0000 H   0  0  0  0  0  0  0  0  0  0  0  0
   11.0588    1.3800    0.0000 H   0  0  0  0  0  0  0  0  0  0  0  0
   10.2617    1.3800    0.0000 H   0  0  0  0  0  0  0  0  0  0  0  0
   30.0419   -0.9050    0.0000 H   0  0  0  0  0  0  0  0  0  0  0  0
   16.2549    1.3800    0.0000 H   0  0  0  0  0  0  0  0  0  0  0  0
   15.4579    1.3800    0.0000 H   0  0  0  0  0  0  0  0  0  0  0  0
   17.9870    1.3800    0.0000 H   0  0  0  0  0  0  0  0  0  0  0  0
   17.1899    1.3800    0.0000 H   0  0  0  0  0  0  0  0  0  0  0  0
   23.1831    1.3800    0.0000 H   0  0  0  0  0  0  0  0  0  0  0  0
   22.3861    1.3800    0.0000 H   0  0  0  0  0  0  0  0  0  0  0  0
   19.7880   -0.0699    0.0000 H   0  0  0  0  0  0  0  0  0  0  0  0
   20.5851   -0.0699    0.0000 H   0  0  0  0  0  0  0  0  0  0  0  0
   19.7190    1.3800    0.0000 H   0  0  0  0  0  0  0  0  0  0  0  0
   18.9220    1.3800    0.0000 H   0  0  0  0  0  0  0  0  0  0  0  0
   21.4511    1.3800    0.0000 H   0  0  0  0  0  0  0  0  0  0  0  0
   20.6540    1.3800    0.0000 H   0  0  0  0  0  0  0  0  0  0  0  0
    9.3267    1.3800    0.0000 H   0  0  0  0  0  0  0  0  0  0  0  0
    8.5297    1.3800    0.0000 H   0  0  0  0  0  0  0  0  0  0  0  0
    7.5252    0.0950    0.0000 H   0  0  0  0  0  0  0  0  0  0  0  0
   36.9510    0.3681    0.0000 H   0  0  0  0  0  0  0  0  0  0  0  0
   37.1780    1.2150    0.0000 H   0  0  0  0  0  0  0  0  0  0  0  0
   36.3310    1.4419    0.0000 H   0  0  0  0  0  0  0  0  0  0  0  0
    7.5947    1.3800    0.0000 H   0  0  0  0  0  0  0  0  0  0  0  0
    6.7976    1.3800    0.0000 H   0  0  0  0  0  0  0  0  0  0  0  0
    5.8626    1.3800    0.0000 H   0  0  0  0  0  0  0  0  0  0  0  0
    5.0656    1.3800    0.0000 H   0  0  0  0  0  0  0  0  0  0  0  0
   16.1855   -0.9050    0.0000 H   0  0  0  0  0  0  0  0  0  0  0  0
   23.1137   -0.9050    0.0000 H   0  0  0  0  0  0  0  0  0  0  0  0
    4.1996   -0.0699    0.0000 H   0  0  0  0  0  0  0  0  0  0  0  0
    4.9966   -0.0699    0.0000 H   0  0  0  0  0  0  0  0  0  0  0  0
    7.5252   -0.9050    0.0000 H   0  0  0  0  0  0  0  0  0  0  0  0
    4.1306    1.3800    0.0000 H   0  0  0  0  0  0  0  0  0  0  0  0
    3.3335    1.3800    0.0000 H   0  0  0  0  0  0  0  0  0  0  0  0
    2.3100    1.4419    0.0000 H   0  0  0  0  0  0  0  0  0  0  0  0
    1.4631    1.2150    0.0000 H   0  0  0  0  0  0  0  0  0  0  0  0
    1.6900    0.3681    0.0000 H   0  0  0  0  0  0  0  0  0  0  0  0
  1 14  1  0  0  0  0
  1 81  1  0  0  0  0
  2 17  1  0  0  0  0
  2 90  1  0  0  0  0
  3 21  2  0  0  0  0
  4 30  1  0  0  0  0
  4114  1  0  0  0  0
  5 31  1  0  0  0  0
  5113  1  0  0  0  0
  6 44  1  0  0  0  0
  6117  1  0  0  0  0
  7 37  2  0  0  0  0
  8 39  2  0  0  0  0
  9 45  2  0  0  0  0
 10 46  2  0  0  0  0
 11 47  2  0  0  0  0
 12 49  2  0  0  0  0
 13 53  2  0  0  0  0
 14 15  1  0  0  0  0
 14 16  1  0  0  0  0
 14 55  1  0  0  0  0
 15 17  1  0  0  0  0
 15 56  1  0  0  0  0
 15 57  1  0  0  0  0
 16 18  1  0  0  0  0
 16 58  1  0  0  0  0
 16 59  1  0  0  0  0
 17 19  1  0  0  0  0
 17 60  1  0  0  0  0
 18 20  1  0  0  0  0
 18 61  1  0  0  0  0
 18 62  1  0  0  0  0
 19 21  1  0  0  0  0
 19 63  1  0  0  0  0
 19 64  1  0  0  0  0
 20 23  1  0  0  0  0
 20 65  1  0  0  0  0
 20 66  1  0  0  0  0
 21 22  1  0  0  0  0
 22 24  1  0  0  0  0
 22 67  1  0  0  0  0
 22 68  1  0  0  0  0
 23 43  1  0  0  0  0
 23 69  1  0  0  0  0
 23 70  1  0  0  0  0
 24 27  1  0  0  0  0
 24 71  1  0  0  0  0
 24 72  1  0  0  0  0
 25 26  1  0  0  0  0
 25 28  1  0  0  0  0
 25 73  1  0  0  0  0
 25 74  1  0  0  0  0
 26 29  1  0  0  0  0
 26 75  1  0  0  0  0
 26 76  1  0  0  0  0
 27 37  1  0  0  0  0
 27 77  1  0  0  0  0
 27 78  1  0  0  0  0
 28 33  1  0  0  0  0
 28 79  1  0  0  0  0
 28 80  1  0  0  0  0
 29 39  1  0  0  0  0
 29 82  1  0  0  0  0
 29 83  1  0  0  0  0
 30 32  1  0  0  0  0
 30 36  1  0  0  0  0
 30 84  1  0  0  0  0
 31 34  1  0  0  0  0
 31 35  1  0  0  0  0
 31 85  1  0  0  0  0
 32 37  1  0  0  0  0
 32 86  1  0  0  0  0
 32 87  1  0  0  0  0
 33 45  1  0  0  0  0
 33 88  1  0  0  0  0
 33 89  1  0  0  0  0
 34 39  1  0  0  0  0
 34 91  1  0  0  0  0
 34 92  1  0  0  0  0
 35 46  1  0  0  0  0
 35 93  1  0  0  0  0
 35 94  1  0  0  0  0
 36 47  1  0  0  0  0
 36 95  1  0  0  0  0
 36 96  1  0  0  0  0
 38 40  1  0  0  0  0
 38 41  1  0  0  0  0
 38 97  1  0  0  0  0
 38 98  1  0  0  0  0
 40 46  1  0  0  0  0
 40 99  1  0  0  0  0
 40100  1  0  0  0  0
 41 47  1  0  0  0  0
 41101  1  0  0  0  0
 41102  1  0  0  0  0
 42 44  1  0  0  0  0
 42 45  1  0  0  0  0
 42103  1  0  0  0  0
 42104  1  0  0  0  0
 43106  1  0  0  0  0
 43107  1  0  0  0  0
 43108  1  0  0  0  0
 44 48  1  0  0  0  0
 44105  1  0  0  0  0
 48 49  1  0  0  0  0
 48109  1  0  0  0  0
 48110  1  0  0  0  0
 49 50  1  0  0  0  0
 50 51  1  0  0  0  0
 50111  1  0  0  0  0
 50112  1  0  0  0  0
 51 52  1  0  0  0  0
 51115  1  0  0  0  0
 51116  1  0  0  0  0
 52 53  1  0  0  0  0
 52118  1  0  0  0  0
 52119  1  0  0  0  0
 53 54  1  0  0  0  0
 54120  1  0  0  0  0
 54121  1  0  0  0  0
 54122  1  0  0  0  0
M  END
> <PUBCHEM_COMPOUND_CID>
46173827

> <PUBCHEM_COMPOUND_CANONICALIZED>
1

> <PUBCHEM_CACTVS_COMPLEXITY>
1160

> <PUBCHEM_CACTVS_HBOND_ACCEPTOR>
13

> <PUBCHEM_CACTVS_HBOND_DONOR>
5

> <PUBCHEM_CACTVS_ROTATABLE_BOND>
38

> <PUBCHEM_CACTVS_SUBSKEYS>
AAADcfB8PAAAAAAAAAAAAAAAAAAAAAAAAAAAAAAAAAAAAAAAAAAAGgAACAAACBSggAICAAAAAgAIAIAQAAAAAAAAAAAAAAEAAAAAEBYAAAAAQAAFIAAAAAGIzqDgAAAAAAAAAAAAAAAAAAAAAAAAAAAAAA==

> <PUBCHEM_IUPAC_OPENEYE_NAME>
8,18,26,34,36-pentahydroxyhentetracontane-2,6,10,16,20,24,28,32-octone

> <PUBCHEM_IUPAC_CAS_NAME>
8,18,26,34,36-pentahydroxyhentetracontane-2,6,10,16,20,24,28,32-octone

> <PUBCHEM_IUPAC_NAME>
8,18,26,34,36-pentahydroxyhentetracontane-2,6,10,16,20,24,28,32-octone

> <PUBCHEM_IUPAC_SYSTEMATIC_NAME>
8,18,26,34,36-pentakis(oxidanyl)hentetracontane-2,6,10,16,20,24,28,32-octone

> <PUBCHEM_IUPAC_TRADITIONAL_NAME>
8,18,26,34,36-pentahydroxyhentetracontane-2,6,10,16,20,24,28,32-octone

> <PUBCHEM_IUPAC_INCHI>
InChI=1S/C41H68O13/c1-3-4-6-13-30(43)21-38(51)25-34(47)17-10-19-36(49)27-41(54)28-37(50)20-11-18-35(48)26-40(53)23-32(45)15-8-5-7-14-31(44)22-39(52)24-33(46)16-9-12-29(2)42/h30,38-41,43,51-54H,3-28H2,1-2H3

> <PUBCHEM_IUPAC_INCHIKEY>
VKUFHMGHXWTHSS-UHFFFAOYSA-N

> <PUBCHEM_XLOGP3_AA>
-1.1

> <PUBCHEM_EXACT_MASS>
768.465992

> <PUBCHEM_MOLECULAR_FORMULA>
C41H68O13

> <PUBCHEM_MOLECULAR_WEIGHT>
768.97082

> <PUBCHEM_OPENEYE_CAN_SMILES>
CCCCCC(CC(CC(=O)CCCC(=O)CC(CC(=O)CCCC(=O)CC(CC(=O)CCCCCC(=O)CC(CC(=O)CCCC(=O)C)O)O)O)O)O

> <PUBCHEM_OPENEYE_ISO_SMILES>
CCCCCC(CC(CC(=O)CCCC(=O)CC(CC(=O)CCCC(=O)CC(CC(=O)CCCCCC(=O)CC(CC(=O)CCCC(=O)C)O)O)O)O)O

> <PUBCHEM_CACTVS_TPSA>
238

> <PUBCHEM_MONOISOTOPIC_WEIGHT>
768.465992

> <PUBCHEM_TOTAL_CHARGE>
0

> <PUBCHEM_HEAVY_ATOM_COUNT>
54

> <PUBCHEM_ATOM_DEF_STEREO_COUNT>
0

> <PUBCHEM_ATOM_UDEF_STEREO_COUNT>
5

> <PUBCHEM_BOND_DEF_STEREO_COUNT>
0

> <PUBCHEM_BOND_UDEF_STEREO_COUNT>
0

> <PUBCHEM_ISOTOPIC_ATOM_COUNT>
0

> <PUBCHEM_COMPONENT_COUNT>
1

> <PUBCHEM_CACTVS_TAUTO_COUNT>
1001

> <PUBCHEM_COORDINATE_TYPE>
1
5
255

> <PUBCHEM_BONDANNOTATIONS>
14  1  3
17  2  3
30  4  3
31  5  3
44  6  3

$$$$

