   Color/Form
        Tetragonal bipyramidal crystals from chloroform or ether
   from [1]HSDB

   Boiling Point
        238 deg C
   from [2]HSDB

   Melting Point
        66.4 deg C
   from [3]HSDB

   Density/Specific Gravity
        1.840 g/cu cm at 15 deg C
   from [4]HSDB

   Dissociation Constants
        pKa = 9.17
   from [5]HSDB

   Octanol/Water Partition Coefficient
        log Kow = 2.59
   from [6]HSDB

   Solubilities

     * Freely soluble in alcohol, chloroform, ether, glacial acetic acid
     * In water, 1.4X10+4 mg/L at 25 deg C

   from [7]HSDB

   Spectral Properties

     * MASS: 22085 (NIST/EPA/MSDC Mass Spectral Database, 1990 version)
     * IR: 1009 (Coblentz Society spectral collection)
     * UV: 1365 (Sadtler Research Laboratories spectral collection)
     * 1H NMR: 678 (Sadlter Research Laboratories spectral collection)

   from [8]HSDB

   Vapor Pressure
        1.17X10-2 mm Hg at 25 deg C
   from [9]HSDB

   Other Chemical/Physical Properties

     * Density: 1.5875 at 80 deg C
     * Small amounts of water depress the MP considerably and may prevent
       crystallization
     * Henry's Law constant = 1.51X10-7 atm-cu m/mol at 25 deg C
     * Hydroxyl radical reaction rate constant = 9.69X10-12 cu
       cm/molec-sec at 25 deg C (est)

   from [10]HSDB

   Computed Properties
   Molecular Weight                  173.0073 [g/mol]
   Molecular Formula                 C[6]H[5]BrO
   XLogP3                            2.6
   H-Bond Donor                      1
   H-Bond Acceptor                   1
   Rotatable Bond Count              0
   Tautomer Count                    2
   Exact Mass                        171.952377
   MonoIsotopic Mass                 171.952377
   Topological Polar Surface Area    20.2
   Heavy Atom Count                  8
   Formal Charge                     0
   Complexity                        66.9
   Isotope Atom Count                0
   Defined Atom Stereocenter Count   0
   Undefined Atom Stereocenter Count 0
   Defined Bond Stereocenter Count   0
   Undefined Bond Stereocenter Count 0
   Covalently-Bonded Unit Count      1
   Feature 3D Donor Count            1
   Feature 3D Hydrophobe Count       1
   Feature 3D Ring Count             1
   Effective Rotor Count             0
   Conformer Sampling RMSD           0.4
   CID Conformer Count               [11]1

References

   1. http://toxnet.nlm.nih.gov/cgi-bin/sis/search/r?dbs+hsdb:@term+@rn+@rel+106-41-2
   2. http://toxnet.nlm.nih.gov/cgi-bin/sis/search/r?dbs+hsdb:@term+@rn+@rel+106-41-2
   3. http://toxnet.nlm.nih.gov/cgi-bin/sis/search/r?dbs+hsdb:@term+@rn+@rel+106-41-2
   4. http://toxnet.nlm.nih.gov/cgi-bin/sis/search/r?dbs+hsdb:@term+@rn+@rel+106-41-2
   5. http://toxnet.nlm.nih.gov/cgi-bin/sis/search/r?dbs+hsdb:@term+@rn+@rel+106-41-2
   6. http://toxnet.nlm.nih.gov/cgi-bin/sis/search/r?dbs+hsdb:@term+@rn+@rel+106-41-2
   7. http://toxnet.nlm.nih.gov/cgi-bin/sis/search/r?dbs+hsdb:@term+@rn+@rel+106-41-2
   8. http://toxnet.nlm.nih.gov/cgi-bin/sis/search/r?dbs+hsdb:@term+@rn+@rel+106-41-2
   9. http://toxnet.nlm.nih.gov/cgi-bin/sis/search/r?dbs+hsdb:@term+@rn+@rel+106-41-2
  10. http://toxnet.nlm.nih.gov/cgi-bin/sis/search/r?dbs+hsdb:@term+@rn+@rel+106-41-2
  11. http://pubchem.ncbi.nlm.nih.gov/vw3d/vw3d.cgi?cid=7808
