   Color/Form

     * Red or red-yellow needles or leaves (from alcohol)
     * Orange needles from alcohol
     * Orange powder or reddish-brown needles

   from [1]HSDB

   Boiling Point
        Sublimes
   from [2]HSDB

   Melting Point
        193 deg C
   from [3]HSDB

   Dissociation Constants
        pKa1 = 8.45 (phenol); pKa2 = 10.85 (phenol) (est)
   from [4]HSDB

   Octanol/Water Partition Coefficient
        log Kow = 3.94 (est)
   from [5]HSDB

   Solubilities

     * Insoluble in water; slightly soluble in ethanol, diethyl ether;
       soluble in acetone, acetic acid, alkali
     * Almost insoluble in water (6.5X10-6 mols/L at 25 deg C), in alcohol
       (1:2000). Moderately soluble in ether (1:500), in chloroform;
       soluble in 10 parts hot glacial acetic acid. Very slightly soluble
       in aqueous solutions of alkali hydroxides: about 0.8 g dissolves in
       100 ml 0.5N NaOH.

   from [6]HSDB

   Spectral Properties

     * Absorption max: 430, 250 nm (log E 4.35, 4.60)
     * MASS: 70813 (NIST/EPA/MSDC Mass Spectral Database 1990 version)
     * IR: 5147 (Coblentz Society Spectral Collection)
     * UV: 4318 (Sadtler Research Laboratories Spectral Collection)

   from [7]HSDB

   Vapor Density
        8.3 (Air = 1)
   from [8]HSDB

   Vapor Pressure
        8.6X10-10 mm Hg at 25 deg C (est)
   from [9]HSDB

   Other Chemical/Physical Properties

     * When heated to decomposition it emits acrid smoke and irritating
       fumes
     * Henry's Law constant = 5.5X10-11 atm-cu m/mol at 25 deg C (est)
     * Hydroxyl radical reaction rate constant = 2.6X10-11 cu cm/molec-sec
       at 25 deg C (est)

   from [10]HSDB

   Computed Properties
   Molecular Weight                  240.21092 [g/mol]
   Molecular Formula                 C[14]H[8]O[4]
   XLogP3                            3.2
   H-Bond Donor                      2
   H-Bond Acceptor                   4
   Rotatable Bond Count              0
   Tautomer Count                    14
   Exact Mass                        240.042259
   MonoIsotopic Mass                 240.042259
   Topological Polar Surface Area    74.6
   Heavy Atom Count                  18
   Formal Charge                     0
   Complexity                        346
   Isotope Atom Count                0
   Defined Atom Stereocenter Count   0
   Undefined Atom Stereocenter Count 0
   Defined Bond Stereocenter Count   0
   Undefined Bond Stereocenter Count 0
   Covalently-Bonded Unit Count      1
   Feature 3D Acceptor Count         2
   Feature 3D Donor Count            2
   Feature 3D Ring Count             3
   Effective Rotor Count             0
   Conformer Sampling RMSD           0.4
   CID Conformer Count               [11]1

References

   1. http://toxnet.nlm.nih.gov/cgi-bin/sis/search/r?dbs+hsdb:@term+@rn+@rel+117-10-2
   2. http://toxnet.nlm.nih.gov/cgi-bin/sis/search/r?dbs+hsdb:@term+@rn+@rel+117-10-2
   3. http://toxnet.nlm.nih.gov/cgi-bin/sis/search/r?dbs+hsdb:@term+@rn+@rel+117-10-2
   4. http://toxnet.nlm.nih.gov/cgi-bin/sis/search/r?dbs+hsdb:@term+@rn+@rel+117-10-2
   5. http://toxnet.nlm.nih.gov/cgi-bin/sis/search/r?dbs+hsdb:@term+@rn+@rel+117-10-2
   6. http://toxnet.nlm.nih.gov/cgi-bin/sis/search/r?dbs+hsdb:@term+@rn+@rel+117-10-2
   7. http://toxnet.nlm.nih.gov/cgi-bin/sis/search/r?dbs+hsdb:@term+@rn+@rel+117-10-2
   8. http://toxnet.nlm.nih.gov/cgi-bin/sis/search/r?dbs+hsdb:@term+@rn+@rel+117-10-2
   9. http://toxnet.nlm.nih.gov/cgi-bin/sis/search/r?dbs+hsdb:@term+@rn+@rel+117-10-2
  10. http://toxnet.nlm.nih.gov/cgi-bin/sis/search/r?dbs+hsdb:@term+@rn+@rel+117-10-2
  11. http://pubchem.ncbi.nlm.nih.gov/vw3d/vw3d.cgi?cid=2950
