65030
  -OEChem-07051212572D

 37 39  0     1  0  0  0  0  0999 V2000
    3.5836    0.1751    0.0000 O   0  0  0  0  0  0  0  0  0  0  0  0
    5.3958   -2.6296    0.0000 O   0  0  0  0  0  0  0  0  0  0  0  0
    2.0000   -0.6296    0.0000 O   0  0  0  0  0  0  0  0  0  0  0  0
    6.2740    2.9396    0.0000 O   0  0  0  0  0  0  0  0  0  0  0  0
    4.5298   -1.1296    0.0000 C   0  0  1  0  0  0  0  0  0  0  0  0
    4.5298   -0.1296    0.0000 C   0  0  1  0  0  0  0  0  0  0  0  0
    6.2619   -0.1296    0.0000 C   0  0  1  0  0  0  0  0  0  0  0  0
    5.3958   -1.6296    0.0000 C   0  0  2  0  0  0  0  0  0  0  0  0
    6.2619   -1.1296    0.0000 C   0  0  0  0  0  0  0  0  0  0  0  0
    5.3958    0.3704    0.0000 C   0  0  0  0  0  0  0  0  0  0  0  0
    3.5836   -1.4344    0.0000 C   0  0  1  0  0  0  0  0  0  0  0  0
    3.0000   -0.6296    0.0000 C   0  0  0  0  0  0  0  0  0  0  0  0
    7.1279   -0.6296    0.0000 C   0  0  0  0  0  0  0  0  0  0  0  0
    7.1719    0.3772    0.0000 C   0  0  0  0  0  0  0  0  0  0  0  0
    5.3798    1.4119    0.0000 C   0  0  0  0  0  0  0  0  0  0  0  0
    3.2729   -2.3849    0.0000 C   0  0  0  0  0  0  0  0  0  0  0  0
    7.1799    1.4188    0.0000 C   0  0  0  0  0  0  0  0  0  0  0  0
    6.2778    1.9396    0.0000 C   0  0  0  0  0  0  0  0  0  0  0  0
    4.5080    1.9018    0.0000 C   0  0  0  0  0  0  0  0  0  0  0  0
    4.4399   -1.9748    0.0000 H   0  0  0  0  0  0  0  0  0  0  0  0
    4.4399    0.7156    0.0000 H   0  0  0  0  0  0  0  0  0  0  0  0
    5.9328   -1.9396    0.0000 H   0  0  0  0  0  0  0  0  0  0  0  0
    6.4739   -1.7122    0.0000 H   0  0  0  0  0  0  0  0  0  0  0  0
    6.8725   -1.0220    0.0000 H   0  0  0  0  0  0  0  0  0  0  0  0
    2.9711   -1.5306    0.0000 H   0  0  0  0  0  0  0  0  0  0  0  0
    6.8179   -1.1666    0.0000 H   0  0  0  0  0  0  0  0  0  0  0  0
    7.6648   -0.9396    0.0000 H   0  0  0  0  0  0  0  0  0  0  0  0
    7.4379   -0.0927    0.0000 H   0  0  0  0  0  0  0  0  0  0  0  0
    7.7052    0.0610    0.0000 H   0  0  0  0  0  0  0  0  0  0  0  0
    2.6836   -2.1923    0.0000 H   0  0  0  0  0  0  0  0  0  0  0  0
    3.0803   -2.9742    0.0000 H   0  0  0  0  0  0  0  0  0  0  0  0
    3.8623   -2.5775    0.0000 H   0  0  0  0  0  0  0  0  0  0  0  0
    5.9328   -2.9396    0.0000 H   0  0  0  0  0  0  0  0  0  0  0  0
    7.7180    1.7268    0.0000 H   0  0  0  0  0  0  0  0  0  0  0  0
    4.8118    2.4423    0.0000 H   0  0  0  0  0  0  0  0  0  0  0  0
    3.9676    2.2056    0.0000 H   0  0  0  0  0  0  0  0  0  0  0  0
    4.2043    1.3614    0.0000 H   0  0  0  0  0  0  0  0  0  0  0  0
  1  6  1  0  0  0  0
  1 12  1  0  0  0  0
  8  2  1  6  0  0  0
  2 33  1  0  0  0  0
  3 12  2  0  0  0  0
  4 18  2  0  0  0  0
  5  6  1  0  0  0  0
  5  8  1  0  0  0  0
  5 11  1  0  0  0  0
  5 20  1  6  0  0  0
  6 10  1  0  0  0  0
  6 21  1  1  0  0  0
  7  9  1  0  0  0  0
  7 10  1  0  0  0  0
  7 13  1  1  0  0  0
  7 14  1  0  0  0  0
  8  9  1  0  0  0  0
  8 22  1  0  0  0  0
  9 23  1  0  0  0  0
  9 24  1  0  0  0  0
 10 15  2  0  0  0  0
 11 12  1  0  0  0  0
 11 16  1  6  0  0  0
 11 25  1  0  0  0  0
 13 26  1  0  0  0  0
 13 27  1  0  0  0  0
 13 28  1  0  0  0  0
 14 17  2  0  0  0  0
 14 29  1  0  0  0  0
 15 18  1  0  0  0  0
 15 19  1  0  0  0  0
 16 30  1  0  0  0  0
 16 31  1  0  0  0  0
 16 32  1  0  0  0  0
 17 18  1  0  0  0  0
 17 34  1  0  0  0  0
 19 35  1  0  0  0  0
 19 36  1  0  0  0  0
 19 37  1  0  0  0  0
M  END
> <PUBCHEM_COMPOUND_CID>
65030

> <PUBCHEM_COMPOUND_CANONICALIZED>
1

> <PUBCHEM_CACTVS_COMPLEXITY>
530

> <PUBCHEM_CACTVS_HBOND_ACCEPTOR>
4

> <PUBCHEM_CACTVS_HBOND_DONOR>
1

> <PUBCHEM_CACTVS_ROTATABLE_BOND>
0

> <PUBCHEM_CACTVS_SUBSKEYS>
AAADceBwOAAAAAAAAAAAAAAAAAAAASAAAAAwQAAAAAAAAEiAAAAAGgAACAAADxSggAICCAAABgCIAqDSCAAAAAAgAAAICAEAAEgAFBIAIAACUAAFgAAIIYPK6PyPgAAAAAAAAACAAAIQABAAAAAAAAAAAA==

> <PUBCHEM_IUPAC_OPENEYE_NAME>
(3S,3aR,4S,5aS,9bS)-4-hydroxy-3,5a,9-trimethyl-3a,4,5,9b-tetrahydro-3H-benzo[g]benzofuran-2,8-dione

> <PUBCHEM_IUPAC_CAS_NAME>
(3S,3aR,4S,5aS,9bS)-4-hydroxy-3,5a,9-trimethyl-3a,4,5,9b-tetrahydro-3H-benzo[g]benzofuran-2,8-dione

> <PUBCHEM_IUPAC_NAME>
(3S,3aR,4S,5aS,9bS)-4-hydroxy-3,5a,9-trimethyl-3a,4,5,9b-tetrahydro-3H-benzo[g][1]benzofuran-2,8-dione

> <PUBCHEM_IUPAC_SYSTEMATIC_NAME>
(3S,3aR,4S,5aS,9bS)-3,5a,9-trimethyl-4-oxidanyl-3a,4,5,9b-tetrahydro-3H-benzo[g][1]benzofuran-2,8-dione

> <PUBCHEM_IUPAC_TRADITIONAL_NAME>
(3S,3aR,4S,5aS,9bS)-4-hydroxy-3,5a,9-trimethyl-3a,4,5,9b-tetrahydro-3H-benzo[g]benzofuran-2,8-quinone

> <PUBCHEM_IUPAC_INCHI>
InChI=1S/C15H18O4/c1-7-9(16)4-5-15(3)6-10(17)11-8(2)14(18)19-13(11)12(7)15/h4-5,8,10-11,13,17H,6H2,1-3H3/t8-,10-,11+,13-,15+/m0/s1

> <PUBCHEM_IUPAC_INCHIKEY>
LUHMMHZLDLBAKX-DBIGVJDZSA-N

> <PUBCHEM_XLOGP3_AA>
1.1

> <PUBCHEM_EXACT_MASS>
262.120509

> <PUBCHEM_MOLECULAR_FORMULA>
C15H18O4

> <PUBCHEM_MOLECULAR_WEIGHT>
262.30102

> <PUBCHEM_OPENEYE_CAN_SMILES>
CC1C2C(CC3(C=CC(=O)C(=C3C2OC1=O)C)C)O

> <PUBCHEM_OPENEYE_ISO_SMILES>
C[C@H]1[C@@H]2[C@H](C[C@]3(C=CC(=O)C(=C3[C@H]2OC1=O)C)C)O

> <PUBCHEM_CACTVS_TPSA>
63.6

> <PUBCHEM_MONOISOTOPIC_WEIGHT>
262.120509

> <PUBCHEM_TOTAL_CHARGE>
0

> <PUBCHEM_HEAVY_ATOM_COUNT>
19

> <PUBCHEM_ATOM_DEF_STEREO_COUNT>
5

> <PUBCHEM_ATOM_UDEF_STEREO_COUNT>
0

> <PUBCHEM_BOND_DEF_STEREO_COUNT>
0

> <PUBCHEM_BOND_UDEF_STEREO_COUNT>
0

> <PUBCHEM_ISOTOPIC_ATOM_COUNT>
0

> <PUBCHEM_COMPONENT_COUNT>
1

> <PUBCHEM_CACTVS_TAUTO_COUNT>
2

> <PUBCHEM_COORDINATE_TYPE>
1
5
255

> <PUBCHEM_BONDANNOTATIONS>
11  16  6
8  2  6
5  20  6
6  21  5
7  13  5

$$$$

