   Color/Form

     * CRYSTALS
     * White or almost white, crystalline powder.

   from [1]HSDB

   Odor
        LITTLE OR NO ODOR
   from [2]HSDB

   Taste
        BITTER TASTE
   from [3]HSDB

   Melting Point
        120 DEG C
   from [4]HSDB

   Dissociation Constants
        pKa= 2.4
   from [5]HSDB

   pH
        AQ SOLN ALKALINE TO LITMUS
   from [6]HSDB

   Solubilities

     * PRACTICALLY INSOL IN WATER
     * Soluble 1 in 12 parts of alcohol, 1 in 1 part of chloroform, and 1
       in 50 parts of ether.

   from [7]HSDB

   Spectral Properties

     * MAX ABSORPTION (ETHANOL): 225, 263, 304, 316 NM; (0.01 N
       HYDROCHLORIC ACID:) ABOUT 234, 269 NM
     * MAX ABSORPTION (0.1 N SODIUM HYDROXIDE): 234 NM (A= 1117, 1%, 1 CM)
     * MASS: 1760 (National Bureau of Standards EPA-NIH Mass Spectra Data
       Base, NSRDS-NBS-63)
     * Intense mass spectral peaks: 91 m/z, 132 m/z, 235 m/z, 250 m/z

   from [8]HSDB

   Other Chemical/Physical Properties
        CRYSTALS; MP: 255-265 DEG C; SOLUBILITY: SOL IN ETHER, ETHANOL;
   PRACTICALLY INSOL IN WATER /METHAQUALONE HYDROCHLORIDE/
   from [9]HSDB

   Computed Properties
   Molecular Weight                  250.29516 [g/mol]
   Molecular Formula                 C[16]H[14]N[2]O
   XLogP3                            2.5
   H-Bond Donor                      0
   H-Bond Acceptor                   2
   Rotatable Bond Count              1
   Tautomer Count                    5
   Exact Mass                        250.110613
   MonoIsotopic Mass                 250.110613
   Topological Polar Surface Area    32.7
   Heavy Atom Count                  19
   Formal Charge                     0
   Complexity                        390
   Isotope Atom Count                0
   Defined Atom Stereocenter Count   0
   Undefined Atom Stereocenter Count 0
   Defined Bond Stereocenter Count   0
   Undefined Bond Stereocenter Count 0
   Covalently-Bonded Unit Count      1
   Feature 3D Acceptor Count         1
   Feature 3D Ring Count             3
   Effective Rotor Count             1
   Conformer Sampling RMSD           0.6
   CID Conformer Count               [10]2

References

   1. http://toxnet.nlm.nih.gov/cgi-bin/sis/search/r?dbs+hsdb:@term+@rn+@rel+72-44-6
   2. http://toxnet.nlm.nih.gov/cgi-bin/sis/search/r?dbs+hsdb:@term+@rn+@rel+72-44-6
   3. http://toxnet.nlm.nih.gov/cgi-bin/sis/search/r?dbs+hsdb:@term+@rn+@rel+72-44-6
   4. http://toxnet.nlm.nih.gov/cgi-bin/sis/search/r?dbs+hsdb:@term+@rn+@rel+72-44-6
   5. http://toxnet.nlm.nih.gov/cgi-bin/sis/search/r?dbs+hsdb:@term+@rn+@rel+72-44-6
   6. http://toxnet.nlm.nih.gov/cgi-bin/sis/search/r?dbs+hsdb:@term+@rn+@rel+72-44-6
   7. http://toxnet.nlm.nih.gov/cgi-bin/sis/search/r?dbs+hsdb:@term+@rn+@rel+72-44-6
   8. http://toxnet.nlm.nih.gov/cgi-bin/sis/search/r?dbs+hsdb:@term+@rn+@rel+72-44-6
   9. http://toxnet.nlm.nih.gov/cgi-bin/sis/search/r?dbs+hsdb:@term+@rn+@rel+72-44-6
  10. http://pubchem.ncbi.nlm.nih.gov/vw3d/vw3d.cgi?cid=6292
