447407
  -OEChem-07051213042D

 32 32  0     1  0  0  0  0  0999 V2000
    4.2111   -2.3286    0.0000 O   0  0  0  0  0  0  0  0  0  0  0  0
    6.4712   -1.0686    0.0000 O   0  0  0  0  0  0  0  0  0  0  0  0
    6.4432    2.2102    0.0000 O   0  0  0  0  0  0  0  0  0  0  0  0
    4.7111    2.2102    0.0000 O   0  0  0  0  0  0  0  0  0  0  0  0
    5.2111   -2.3286    0.0000 N   0  0  0  0  0  0  0  0  0  0  0  0
    6.4432    0.2102    0.0000 N   0  0  0  0  0  0  0  0  0  0  0  0
    2.9511   -1.0686    0.0000 C   0  0  0  0  0  0  0  0  0  0  0  0
    3.9021   -1.3776    0.0000 C   0  0  0  0  0  0  0  0  0  0  0  0
    4.7111   -0.7898    0.0000 C   0  0  0  0  0  0  0  0  0  0  0  0
    4.7111    0.2102    0.0000 C   0  0  0  0  0  0  0  0  0  0  0  0
    2.0000   -0.7595    0.0000 C   0  0  0  0  0  0  0  0  0  0  0  0
    2.6420   -2.0196    0.0000 C   0  0  0  0  0  0  0  0  0  0  0  0
    3.2601   -0.1175    0.0000 C   0  0  0  0  0  0  0  0  0  0  0  0
    5.5772    0.7102    0.0000 C   0  0  1  0  0  0  0  0  0  0  0  0
    5.5202   -1.3776    0.0000 C   0  0  0  0  0  0  0  0  0  0  0  0
    5.5772    1.7102    0.0000 C   0  0  0  0  0  0  0  0  0  0  0  0
    4.4991    0.7928    0.0000 H   0  0  0  0  0  0  0  0  0  0  0  0
    4.1006    0.1026    0.0000 H   0  0  0  0  0  0  0  0  0  0  0  0
    2.1916   -0.1699    0.0000 H   0  0  0  0  0  0  0  0  0  0  0  0
    1.4103   -0.5679    0.0000 H   0  0  0  0  0  0  0  0  0  0  0  0
    1.8084   -1.3492    0.0000 H   0  0  0  0  0  0  0  0  0  0  0  0
    2.0524   -1.8280    0.0000 H   0  0  0  0  0  0  0  0  0  0  0  0
    2.4504   -2.6093    0.0000 H   0  0  0  0  0  0  0  0  0  0  0  0
    3.2317   -2.2112    0.0000 H   0  0  0  0  0  0  0  0  0  0  0  0
    3.8497   -0.3091    0.0000 H   0  0  0  0  0  0  0  0  0  0  0  0
    3.4517    0.4722    0.0000 H   0  0  0  0  0  0  0  0  0  0  0  0
    2.6704    0.0741    0.0000 H   0  0  0  0  0  0  0  0  0  0  0  0
    5.5772    0.0902    0.0000 H   0  0  0  0  0  0  0  0  0  0  0  0
    5.5756   -2.8302    0.0000 H   0  0  0  0  0  0  0  0  0  0  0  0
    6.9801    0.5202    0.0000 H   0  0  0  0  0  0  0  0  0  0  0  0
    6.4432   -0.4098    0.0000 H   0  0  0  0  0  0  0  0  0  0  0  0
    6.4432    2.8302    0.0000 H   0  0  0  0  0  0  0  0  0  0  0  0
  1  5  1  0  0  0  0
  1  8  1  0  0  0  0
  2 15  2  0  0  0  0
  3 16  1  0  0  0  0
  3 32  1  0  0  0  0
  4 16  2  0  0  0  0
  5 15  1  0  0  0  0
  5 29  1  0  0  0  0
 14  6  1  1  0  0  0
  6 30  1  0  0  0  0
  6 31  1  0  0  0  0
  7  8  1  0  0  0  0
  7 11  1  0  0  0  0
  7 12  1  0  0  0  0
  7 13  1  0  0  0  0
  8  9  2  0  0  0  0
  9 10  1  0  0  0  0
  9 15  1  0  0  0  0
 10 14  1  0  0  0  0
 10 17  1  0  0  0  0
 10 18  1  0  0  0  0
 11 19  1  0  0  0  0
 11 20  1  0  0  0  0
 11 21  1  0  0  0  0
 12 22  1  0  0  0  0
 12 23  1  0  0  0  0
 12 24  1  0  0  0  0
 13 25  1  0  0  0  0
 13 26  1  0  0  0  0
 13 27  1  0  0  0  0
 14 16  1  0  0  0  0
 14 28  1  0  0  0  0
M  END
> <PUBCHEM_COMPOUND_CID>
447407

> <PUBCHEM_COMPOUND_CANONICALIZED>
1

> <PUBCHEM_CACTVS_COMPLEXITY>
354

> <PUBCHEM_CACTVS_HBOND_ACCEPTOR>
5

> <PUBCHEM_CACTVS_HBOND_DONOR>
3

> <PUBCHEM_CACTVS_ROTATABLE_BOND>
4

> <PUBCHEM_CACTVS_SUBSKEYS>
AAADceBzOAAAAAAAAAAAAAAAAAAAAQAAAAAAAAAAAAAAAAAAAAAAHgAUCAAADizBgAQCCABQAgCIAgHQGACAAAAgIAAgCIGAAEgCABIAgAAAQAAEkAAIAQKcFwAAAAAAAAAAAAAAAAAAAAAAAAAAAAAAAA==

> <PUBCHEM_IUPAC_OPENEYE_NAME>
(2S)-2-amino-3-(5-tert-butyl-3-oxo-isoxazol-4-yl)propanoic acid

> <PUBCHEM_IUPAC_CAS_NAME>
(2S)-2-amino-3-(5-tert-butyl-3-oxo-4-isoxazolyl)propanoic acid

> <PUBCHEM_IUPAC_NAME>
(2S)-2-amino-3-(5-tert-butyl-3-oxo-1,2-oxazol-4-yl)propanoic acid

> <PUBCHEM_IUPAC_SYSTEMATIC_NAME>
(2S)-2-azanyl-3-(5-tert-butyl-3-oxidanylidene-1,2-oxazol-4-yl)propanoic acid

> <PUBCHEM_IUPAC_TRADITIONAL_NAME>
(2S)-2-amino-3-(5-tert-butyl-3-keto-4-isoxazolin-4-yl)propionic acid

> <PUBCHEM_IUPAC_INCHI>
InChI=1S/C10H16N2O4/c1-10(2,3)7-5(8(13)12-16-7)4-6(11)9(14)15/h6H,4,11H2,1-3H3,(H,12,13)(H,14,15)/t6-/m0/s1

> <PUBCHEM_IUPAC_INCHIKEY>
PIXJURSCCVBKRF-LURJTMIESA-N

> <PUBCHEM_XLOGP3_AA>
-1.9

> <PUBCHEM_EXACT_MASS>
228.111007

> <PUBCHEM_MOLECULAR_FORMULA>
C10H16N2O4

> <PUBCHEM_MOLECULAR_WEIGHT>
228.24504

> <PUBCHEM_OPENEYE_CAN_SMILES>
CC(C)(C)C1=C(C(=O)NO1)CC(C(=O)O)N

> <PUBCHEM_OPENEYE_ISO_SMILES>
CC(C)(C)C1=C(C(=O)NO1)C[C@@H](C(=O)O)N

> <PUBCHEM_CACTVS_TPSA>
102

> <PUBCHEM_MONOISOTOPIC_WEIGHT>
228.111007

> <PUBCHEM_TOTAL_CHARGE>
0

> <PUBCHEM_HEAVY_ATOM_COUNT>
16

> <PUBCHEM_ATOM_DEF_STEREO_COUNT>
1

> <PUBCHEM_ATOM_UDEF_STEREO_COUNT>
0

> <PUBCHEM_BOND_DEF_STEREO_COUNT>
0

> <PUBCHEM_BOND_UDEF_STEREO_COUNT>
0

> <PUBCHEM_ISOTOPIC_ATOM_COUNT>
0

> <PUBCHEM_COMPONENT_COUNT>
1

> <PUBCHEM_CACTVS_TAUTO_COUNT>
2

> <PUBCHEM_COORDINATE_TYPE>
1
5
255

> <PUBCHEM_BONDANNOTATIONS>
1  5  8
1  8  8
5  15  8
14  6  5
8  9  8
9  15  8

$$$$

