   Color/Form
        YELLOW LIQUID
   from [1]HSDB

   Density/Specific Gravity
        0.9160 @ 20 DEG C/4 DEG C
   from [2]HSDB

   Octanol/Water Partition Coefficient
        log Kow= 1.360
   from [3]HSDB

   Solubilities
        SOL IN WATER (APPROX 1%), IN ORG SOLVENTS & IN LIPIDS
   from [4]HSDB

   Spectral Properties

     * INDEX OF REFRACTION: 1.4437 @ 20 DEG C/D; MAX ABSORPTION (WATER):
       233 NM (E= 583.5, 1%, 1 CM); 339 NM (E= 6.5, 1%, 1 CM)
     * IR: 48 (Documentation of Molecular Spectroscopy Collection)
     * UV: 3-85 (Organic Electronic Spectral Data, Phillips et al, John
       Wiley & Sons, New York)
     * NMR: 19134 (Sadtler Research Laboratories Spectral Collection)
     * MASS: 74 (Aldermaston, Eight Peak Index of Mass Spectra, UK)

   from [5]HSDB

   Other Chemical/Physical Properties
        Henry's Law constant= 5.38X10-6 atm-cu m/mol at 37 deg C [Mirvish
   SS et al; J Nat Cancer Inst 56: 1125-9 (1976)] [6]PubMed Abstract
   from [7]HSDB

   Computed Properties
   Molecular Weight                  130.18816 [g/mol]
   Molecular Formula                 C[6]H[14]N[2]O
   XLogP3                            1.4
   H-Bond Donor                      0
   H-Bond Acceptor                   3
   Rotatable Bond Count              4
   Exact Mass                        130.110613
   MonoIsotopic Mass                 130.110613
   Topological Polar Surface Area    32.7
   Heavy Atom Count                  9
   Formal Charge                     0
   Complexity                        69.5
   Isotope Atom Count                0
   Defined Atom Stereocenter Count   0
   Undefined Atom Stereocenter Count 0
   Defined Bond Stereocenter Count   0
   Undefined Bond Stereocenter Count 0
   Covalently-Bonded Unit Count      1
   Feature 3D Hydrophobe Count       2
   Effective Rotor Count             5
   Conformer Sampling RMSD           0.6
   CID Conformer Count               [8]62

References

   1. http://toxnet.nlm.nih.gov/cgi-bin/sis/search/r?dbs+hsdb:@term+@rn+@rel+621-64-7
   2. http://toxnet.nlm.nih.gov/cgi-bin/sis/search/r?dbs+hsdb:@term+@rn+@rel+621-64-7
   3. http://toxnet.nlm.nih.gov/cgi-bin/sis/search/r?dbs+hsdb:@term+@rn+@rel+621-64-7
   4. http://toxnet.nlm.nih.gov/cgi-bin/sis/search/r?dbs+hsdb:@term+@rn+@rel+621-64-7
   5. http://toxnet.nlm.nih.gov/cgi-bin/sis/search/r?dbs+hsdb:@term+@rn+@rel+621-64-7
   6. http://www.ncbi.nlm.nih.gov/entrez/query.fcgi?cmd=Retrieve&db=pubmed&dopt=Abstract&list_uids=994213
   7. http://toxnet.nlm.nih.gov/cgi-bin/sis/search/r?dbs+hsdb:@term+@rn+@rel+621-64-7
   8. http://pubchem.ncbi.nlm.nih.gov/vw3d/vw3d.cgi?cid=12130
