   Color/Form

     * Colorless liquid
     * Colorless liquid

   from [1]HSDB

   Odor
        Terpene-like odor
   from [2]HSDB

   Boiling Point
        55.2 DEG C
   from [3]HSDB

   Melting Point
        -108.6 deg C
   from [4]HSDB

   Density/Specific Gravity
        0.7405 @ 20 DEG C/4 DEG C
   from [5]HSDB

   Heat of Combustion
        101,000 btu/gal @ 25 deg C (804 kcal/mole)
   from [6]HSDB

   Heat of Vaporization
        145 btu/lb @ 55 deg C (7 kcal/mole)
   from [7]HSDB

   Octanol/Water Partition Coefficient
        log Kow = 0.94
   from [8]HSDB

   Solubilities

     * VERY SOL IN ETHYL ALCOHOL, ETHYL ETHER
     * 4.8 g/100 g in water
     * Water solubility of 51,000 mg/l at 25 deg C.

   from [9]HSDB

   Spectral Properties

     * INDEX OF REFRACTION: 1.3690 @ 20 DEG C/D
     * IR: 7465 (Documentation of Molecular Spectroscopy Collection)
     * NMR: 19010 (Sadtler Research Laboratories Spectral Collection)
     * MASS: 170 (Atlas of Mass Spectral Data, John Wiley & Sons, New
       York)

   from [10]HSDB

   Vapor Pressure
        250 mm Hg at 25 deg C /from experimentally-derived coefficients/
   from [11]HSDB

   Other Chemical/Physical Properties

     * Solubility of water in methyl t-butyl ether: 1.5 g/100 g
     * Research Octane Number 117; Motor Octane Number 101.
     * Octane blending value: 115-125 (Research), 98-110 (Motor).
     * Henry's Law constant = 5.87X10-4 atm-cu m/mole at 25 deg C
     * Hydroxyl radical rate constant = 2.94X10-12 cu cm/molecule-sec @ 25
       deg C

   from [12]HSDB

   Computed Properties
   Molecular Weight                  88.14818 [g/mol]
   Molecular Formula                 C[5]H[12]O
   XLogP3                            0.9
   H-Bond Donor                      0
   H-Bond Acceptor                   1
   Rotatable Bond Count              1
   Exact Mass                        88.088815
   MonoIsotopic Mass                 88.088815
   Topological Polar Surface Area    9.2
   Heavy Atom Count                  6
   Formal Charge                     0
   Complexity                        33.7
   Isotope Atom Count                0
   Defined Atom Stereocenter Count   0
   Undefined Atom Stereocenter Count 0
   Defined Bond Stereocenter Count   0
   Undefined Bond Stereocenter Count 0
   Covalently-Bonded Unit Count      1
   Feature 3D Acceptor Count         1
   Feature 3D Hydrophobe Count       1
   Effective Rotor Count             1
   Conformer Sampling RMSD           0.4
   CID Conformer Count               [13]1

References

   1. http://toxnet.nlm.nih.gov/cgi-bin/sis/search/r?dbs+hsdb:@term+@rn+@rel+1634-04-4
   2. http://toxnet.nlm.nih.gov/cgi-bin/sis/search/r?dbs+hsdb:@term+@rn+@rel+1634-04-4
   3. http://toxnet.nlm.nih.gov/cgi-bin/sis/search/r?dbs+hsdb:@term+@rn+@rel+1634-04-4
   4. http://toxnet.nlm.nih.gov/cgi-bin/sis/search/r?dbs+hsdb:@term+@rn+@rel+1634-04-4
   5. http://toxnet.nlm.nih.gov/cgi-bin/sis/search/r?dbs+hsdb:@term+@rn+@rel+1634-04-4
   6. http://toxnet.nlm.nih.gov/cgi-bin/sis/search/r?dbs+hsdb:@term+@rn+@rel+1634-04-4
   7. http://toxnet.nlm.nih.gov/cgi-bin/sis/search/r?dbs+hsdb:@term+@rn+@rel+1634-04-4
   8. http://toxnet.nlm.nih.gov/cgi-bin/sis/search/r?dbs+hsdb:@term+@rn+@rel+1634-04-4
   9. http://toxnet.nlm.nih.gov/cgi-bin/sis/search/r?dbs+hsdb:@term+@rn+@rel+1634-04-4
  10. http://toxnet.nlm.nih.gov/cgi-bin/sis/search/r?dbs+hsdb:@term+@rn+@rel+1634-04-4
  11. http://toxnet.nlm.nih.gov/cgi-bin/sis/search/r?dbs+hsdb:@term+@rn+@rel+1634-04-4
  12. http://toxnet.nlm.nih.gov/cgi-bin/sis/search/r?dbs+hsdb:@term+@rn+@rel+1634-04-4
  13. http://pubchem.ncbi.nlm.nih.gov/vw3d/vw3d.cgi?cid=15413
