10364451
  -OEChem-07051213092D

 48 51  0     1  0  0  0  0  0999 V2000
    4.4026   -0.6617    0.0000 O   0  0  0  0  0  0  0  0  0  0  0  0
    6.7523    0.4220    0.0000 O   0  0  0  0  0  0  0  0  0  0  0  0
    6.7485   -1.7536    0.0000 O   0  0  0  0  0  0  0  0  0  0  0  0
    4.0696    3.0011    0.0000 O   0  0  0  0  0  0  0  0  0  0  0  0
    2.8660   -5.2270    0.0000 O   0  0  0  0  0  0  0  0  0  0  0  0
    9.0142    4.5982    0.0000 O   0  0  0  0  0  0  0  0  0  0  0  0
    8.6512    2.9046    0.0000 O   0  0  0  0  0  0  0  0  0  0  0  0
    4.6783   -2.4223    0.0000 N   0  0  0  0  0  0  0  0  0  0  0  0
    4.6783   -4.0317    0.0000 N   0  0  0  0  0  0  0  0  0  0  0  0
    2.8660   -2.2270    0.0000 N   0  0  0  0  0  0  0  0  0  0  0  0
    2.0000   -3.7270    0.0000 N   0  0  0  0  0  0  0  0  0  0  0  0
    4.9917    0.1463    0.0000 C   0  0  1  0  0  0  0  0  0  0  0  0
    5.9422   -0.1644    0.0000 C   0  0  2  0  0  0  0  0  0  0  0  0
    5.9405   -1.1644    0.0000 C   0  0  2  0  0  0  0  0  0  0  0  0
    4.9889   -1.4717    0.0000 C   0  0  1  0  0  0  0  0  0  0  0  0
    4.6844    1.0979    0.0000 C   0  0  0  0  0  0  0  0  0  0  0  0
    5.3548    1.8398    0.0000 C   0  0  0  0  0  0  0  0  0  0  0  0
    3.7320   -2.7270    0.0000 C   0  0  0  0  0  0  0  0  0  0  0  0
    5.2619   -3.2270    0.0000 C   0  0  0  0  0  0  0  0  0  0  0  0
    3.7320   -3.7270    0.0000 C   0  0  0  0  0  0  0  0  0  0  0  0
    5.0474    2.7914    0.0000 C   0  0  0  0  0  0  0  0  0  0  0  0
    5.7178    3.5334    0.0000 C   0  0  0  0  0  0  0  0  0  0  0  0
    2.8660   -4.2270    0.0000 C   0  0  0  0  0  0  0  0  0  0  0  0
    2.0000   -2.7270    0.0000 C   0  0  0  0  0  0  0  0  0  0  0  0
    6.6956    3.3238    0.0000 C   0  0  0  0  0  0  0  0  0  0  0  0
    5.4104    4.4850    0.0000 C   0  0  0  0  0  0  0  0  0  0  0  0
    7.3660    4.0658    0.0000 C   0  0  0  0  0  0  0  0  0  0  0  0
    6.0809    5.2270    0.0000 C   0  0  0  0  0  0  0  0  0  0  0  0
    7.0586    5.0174    0.0000 C   0  0  0  0  0  0  0  0  0  0  0  0
    8.3438    3.8562    0.0000 C   0  0  0  0  0  0  0  0  0  0  0  0
    4.3795    0.2443    0.0000 H   0  0  0  0  0  0  0  0  0  0  0  0
    6.4942   -0.4468    0.0000 H   0  0  0  0  0  0  0  0  0  0  0  0
    6.4934   -0.8839    0.0000 H   0  0  0  0  0  0  0  0  0  0  0  0
    5.4266   -1.9109    0.0000 H   0  0  0  0  0  0  0  0  0  0  0  0
    4.3035    1.5871    0.0000 H   0  0  0  0  0  0  0  0  0  0  0  0
    4.1364    0.8077    0.0000 H   0  0  0  0  0  0  0  0  0  0  0  0
    5.7356    1.3506    0.0000 H   0  0  0  0  0  0  0  0  0  0  0  0
    5.9027    2.1300    0.0000 H   0  0  0  0  0  0  0  0  0  0  0  0
    7.3182    0.1688    0.0000 H   0  0  0  0  0  0  0  0  0  0  0  0
    7.3154   -1.5024    0.0000 H   0  0  0  0  0  0  0  0  0  0  0  0
    5.8819   -3.2270    0.0000 H   0  0  0  0  0  0  0  0  0  0  0  0
    2.8660   -1.6070    0.0000 H   0  0  0  0  0  0  0  0  0  0  0  0
    1.4631   -2.4170    0.0000 H   0  0  0  0  0  0  0  0  0  0  0  0
    6.8862    2.7338    0.0000 H   0  0  0  0  0  0  0  0  0  0  0  0
    4.8042    4.6150    0.0000 H   0  0  0  0  0  0  0  0  0  0  0  0
    5.8903    5.8170    0.0000 H   0  0  0  0  0  0  0  0  0  0  0  0
    7.4743    5.4774    0.0000 H   0  0  0  0  0  0  0  0  0  0  0  0
    9.6204    4.4682    0.0000 H   0  0  0  0  0  0  0  0  0  0  0  0
  1 12  1  0  0  0  0
  1 15  1  0  0  0  0
 13  2  1  1  0  0  0
  2 39  1  0  0  0  0
 14  3  1  1  0  0  0
  3 40  1  0  0  0  0
  4 21  2  0  0  0  0
  5 23  2  0  0  0  0
  6 30  1  0  0  0  0
  6 48  1  0  0  0  0
  7 30  2  0  0  0  0
 15  8  1  6  0  0  0
  8 18  1  0  0  0  0
  8 19  1  0  0  0  0
  9 19  2  0  0  0  0
  9 20  1  0  0  0  0
 10 18  1  0  0  0  0
 10 24  1  0  0  0  0
 10 42  1  0  0  0  0
 11 23  1  0  0  0  0
 11 24  2  0  0  0  0
 12 13  1  0  0  0  0
 12 16  1  6  0  0  0
 12 31  1  0  0  0  0
 13 14  1  0  0  0  0
 13 32  1  0  0  0  0
 14 15  1  0  0  0  0
 14 33  1  0  0  0  0
 15 34  1  0  0  0  0
 16 17  1  0  0  0  0
 16 35  1  0  0  0  0
 16 36  1  0  0  0  0
 17 21  1  0  0  0  0
 17 37  1  0  0  0  0
 17 38  1  0  0  0  0
 18 20  2  0  0  0  0
 19 41  1  0  0  0  0
 20 23  1  0  0  0  0
 21 22  1  0  0  0  0
 22 25  2  0  0  0  0
 22 26  1  0  0  0  0
 24 43  1  0  0  0  0
 25 27  1  0  0  0  0
 25 44  1  0  0  0  0
 26 28  2  0  0  0  0
 26 45  1  0  0  0  0
 27 29  2  0  0  0  0
 27 30  1  0  0  0  0
 28 29  1  0  0  0  0
 28 46  1  0  0  0  0
 29 47  1  0  0  0  0
M  END
> <PUBCHEM_COMPOUND_CID>
10364451

> <PUBCHEM_COMPOUND_CANONICALIZED>
1

> <PUBCHEM_CACTVS_COMPLEXITY>
732

> <PUBCHEM_CACTVS_HBOND_ACCEPTOR>
8

> <PUBCHEM_CACTVS_HBOND_DONOR>
4

> <PUBCHEM_CACTVS_ROTATABLE_BOND>
6

> <PUBCHEM_CACTVS_SUBSKEYS>
AAADceB7uAAAAAAAAAAAAAAAAAAAAWJAAAAwQAAAAAAAAEABwAAAHgAQCAAADBzhngY1uJfMFgCoA6fzfACCgC03EKAJ2IGoXMiLfjrA3TCecYAvwAPbmee6zvDuAAACAAAAAAAAAAQAAAAAAAAAAAAAAA==

> <PUBCHEM_IUPAC_OPENEYE_NAME>
3-[3-[(2R,3S,4R,5R)-3,4-dihydroxy-5-(6-oxo-3H-purin-9-yl)tetrahydrofuran-2-yl]propanoyl]benzoic acid

> <PUBCHEM_IUPAC_CAS_NAME>
3-[3-[(2R,3S,4R,5R)-3,4-dihydroxy-5-(6-oxo-3H-purin-9-yl)-2-oxolanyl]-1-oxopropyl]benzoic acid

> <PUBCHEM_IUPAC_NAME>
3-[3-[(2R,3S,4R,5R)-3,4-dihydroxy-5-(6-oxo-3H-purin-9-yl)oxolan-2-yl]propanoyl]benzoic acid

> <PUBCHEM_IUPAC_SYSTEMATIC_NAME>
3-[3-[(2R,3S,4R,5R)-3,4-bis(oxidanyl)-5-(6-oxidanylidene-3H-purin-9-yl)oxolan-2-yl]propanoyl]benzoic acid

> <PUBCHEM_IUPAC_TRADITIONAL_NAME>
3-[3-[(2R,3S,4R,5R)-3,4-dihydroxy-5-(6-keto-3H-purin-9-yl)tetrahydrofuran-2-yl]propanoyl]benzoic acid

> <PUBCHEM_IUPAC_INCHI>
InChI=1S/C19H18N4O7/c24-11(9-2-1-3-10(6-9)19(28)29)4-5-12-14(25)15(26)18(30-12)23-8-22-13-16(23)20-7-21-17(13)27/h1-3,6-8,12,14-15,18,25-26H,4-5H2,(H,28,29)(H,20,21,27)/t12-,14-,15-,18-/m1/s1

> <PUBCHEM_IUPAC_INCHIKEY>
VEDWXCWBMDQNCV-SCFUHWHPSA-N

> <PUBCHEM_XLOGP3>
-0.8

> <PUBCHEM_EXACT_MASS>
414.117549

> <PUBCHEM_MOLECULAR_FORMULA>
C19H18N4O7

> <PUBCHEM_MOLECULAR_WEIGHT>
414.36882

> <PUBCHEM_OPENEYE_CAN_SMILES>
C1=CC(=CC(=C1)C(=O)O)C(=O)CCC2C(C(C(O2)N3C=NC4=C3NC=NC4=O)O)O

> <PUBCHEM_OPENEYE_ISO_SMILES>
C1=CC(=CC(=C1)C(=O)O)C(=O)CC[C@@H]2[C@H]([C@H]([C@@H](O2)N3C=NC4=C3NC=NC4=O)O)O

> <PUBCHEM_CACTVS_TPSA>
163

> <PUBCHEM_MONOISOTOPIC_WEIGHT>
414.117549

> <PUBCHEM_TOTAL_CHARGE>
0

> <PUBCHEM_HEAVY_ATOM_COUNT>
30

> <PUBCHEM_ATOM_DEF_STEREO_COUNT>
4

> <PUBCHEM_ATOM_UDEF_STEREO_COUNT>
0

> <PUBCHEM_BOND_DEF_STEREO_COUNT>
0

> <PUBCHEM_BOND_UDEF_STEREO_COUNT>
0

> <PUBCHEM_ISOTOPIC_ATOM_COUNT>
0

> <PUBCHEM_COMPONENT_COUNT>
1

> <PUBCHEM_CACTVS_TAUTO_COUNT>
6

> <PUBCHEM_COORDINATE_TYPE>
1
5
255

> <PUBCHEM_BONDANNOTATIONS>
10  18  8
10  24  8
11  23  8
11  24  8
12  16  6
18  20  8
13  2  5
20  23  8
22  25  8
22  26  8
25  27  8
26  28  8
27  29  8
28  29  8
14  3  5
15  8  6
8  18  8
8  19  8
9  19  8
9  20  8

$$$$

