443292
  -OEChem-07051213012D

 38 40  0     0  0  0  0  0  0999 V2000
    6.4103   -1.8047    0.0000 S   0  0  0  0  0  0  0  0  0  0  0  0
    2.8660   -2.0000    0.0000 O   0  0  0  0  0  0  0  0  0  0  0  0
    6.4103   -0.1953    0.0000 N   0  0  0  0  0  0  0  0  0  0  0  0
    7.9939   -1.0000    0.0000 N   0  0  0  0  0  0  0  0  0  0  0  0
    2.0000    1.5000    0.0000 N   0  0  0  0  0  0  0  0  0  0  0  0
    4.5981    0.0000    0.0000 C   0  0  0  0  0  0  0  0  0  0  0  0
    5.4641   -0.5000    0.0000 C   0  0  0  0  0  0  0  0  0  0  0  0
    3.7320   -0.5000    0.0000 C   0  0  0  0  0  0  0  0  0  0  0  0
    4.5981    1.0000    0.0000 C   0  0  0  0  0  0  0  0  0  0  0  0
    5.4641   -1.5000    0.0000 C   0  0  0  0  0  0  0  0  0  0  0  0
    4.5981   -2.0000    0.0000 C   0  0  0  0  0  0  0  0  0  0  0  0
    3.7320   -1.5000    0.0000 C   0  0  0  0  0  0  0  0  0  0  0  0
    3.7320    1.5000    0.0000 C   0  0  0  0  0  0  0  0  0  0  0  0
    2.8660    0.0000    0.0000 C   0  0  0  0  0  0  0  0  0  0  0  0
    4.5981   -3.0000    0.0000 C   0  0  0  0  0  0  0  0  0  0  0  0
    6.9939   -1.0000    0.0000 C   0  0  0  0  0  0  0  0  0  0  0  0
    3.7320    2.5000    0.0000 C   0  0  0  0  0  0  0  0  0  0  0  0
    2.8660    1.0000    0.0000 C   0  0  0  0  0  0  0  0  0  0  0  0
    2.8660    3.0000    0.0000 C   0  0  0  0  0  0  0  0  0  0  0  0
    8.4939   -1.8660    0.0000 C   0  0  0  0  0  0  0  0  0  0  0  0
    2.0000    2.5000    0.0000 C   0  0  0  0  0  0  0  0  0  0  0  0
    5.2087    0.8923    0.0000 H   0  0  0  0  0  0  0  0  0  0  0  0
    4.8101    1.5826    0.0000 H   0  0  0  0  0  0  0  0  0  0  0  0
    3.1760    0.5369    0.0000 H   0  0  0  0  0  0  0  0  0  0  0  0
    2.3291    0.3100    0.0000 H   0  0  0  0  0  0  0  0  0  0  0  0
    2.5560   -0.5369    0.0000 H   0  0  0  0  0  0  0  0  0  0  0  0
    3.9781   -3.0000    0.0000 H   0  0  0  0  0  0  0  0  0  0  0  0
    4.5981   -3.6200    0.0000 H   0  0  0  0  0  0  0  0  0  0  0  0
    5.2181   -3.0000    0.0000 H   0  0  0  0  0  0  0  0  0  0  0  0
    4.2690    2.8100    0.0000 H   0  0  0  0  0  0  0  0  0  0  0  0
    2.8660    0.3800    0.0000 H   0  0  0  0  0  0  0  0  0  0  0  0
    2.8660   -2.6200    0.0000 H   0  0  0  0  0  0  0  0  0  0  0  0
    8.3039   -0.4631    0.0000 H   0  0  0  0  0  0  0  0  0  0  0  0
    2.8660    3.6200    0.0000 H   0  0  0  0  0  0  0  0  0  0  0  0
    7.9570   -2.1760    0.0000 H   0  0  0  0  0  0  0  0  0  0  0  0
    8.8039   -2.4030    0.0000 H   0  0  0  0  0  0  0  0  0  0  0  0
    9.0309   -1.5560    0.0000 H   0  0  0  0  0  0  0  0  0  0  0  0
    1.4631    2.8100    0.0000 H   0  0  0  0  0  0  0  0  0  0  0  0
  1 10  1  0  0  0  0
  1 16  1  0  0  0  0
  2 12  1  0  0  0  0
  2 32  1  0  0  0  0
  3  7  1  0  0  0  0
  3 16  2  0  0  0  0
  4 16  1  0  0  0  0
  4 20  1  0  0  0  0
  4 33  1  0  0  0  0
  5 18  1  0  0  0  0
  5 21  2  0  0  0  0
  6  7  1  0  0  0  0
  6  8  2  0  0  0  0
  6  9  1  0  0  0  0
  7 10  2  0  0  0  0
  8 12  1  0  0  0  0
  8 14  1  0  0  0  0
  9 13  1  0  0  0  0
  9 22  1  0  0  0  0
  9 23  1  0  0  0  0
 10 11  1  0  0  0  0
 11 12  2  0  0  0  0
 11 15  1  0  0  0  0
 13 17  1  0  0  0  0
 13 18  2  0  0  0  0
 14 24  1  0  0  0  0
 14 25  1  0  0  0  0
 14 26  1  0  0  0  0
 15 27  1  0  0  0  0
 15 28  1  0  0  0  0
 15 29  1  0  0  0  0
 17 19  2  0  0  0  0
 17 30  1  0  0  0  0
 18 31  1  0  0  0  0
 19 21  1  0  0  0  0
 19 34  1  0  0  0  0
 20 35  1  0  0  0  0
 20 36  1  0  0  0  0
 20 37  1  0  0  0  0
 21 38  1  0  0  0  0
M  END
> <PUBCHEM_COMPOUND_CID>
443292

> <PUBCHEM_COMPOUND_CANONICALIZED>
1

> <PUBCHEM_CACTVS_COMPLEXITY>
356

> <PUBCHEM_CACTVS_HBOND_ACCEPTOR>
5

> <PUBCHEM_CACTVS_HBOND_DONOR>
2

> <PUBCHEM_CACTVS_ROTATABLE_BOND>
3

> <PUBCHEM_CACTVS_SUBSKEYS>
AAADceB7IABAAAAAAAAAAAAAAAAAAWAAAAA8QAAAAAAAAFgB/AAAHgQQCAAADAzB3gQ/17LIEgikAzRnZACD8KlxKjkJ2LQ8bJiIJuLikZOEcAhswBPI2CewwPAO0EADxAAeAQCggAeIADwCAAAAAAAAAA==

> <PUBCHEM_IUPAC_OPENEYE_NAME>
5,7-dimethyl-2-(methylamino)-4-(3-pyridylmethyl)-1,3-benzothiazol-6-ol

> <PUBCHEM_IUPAC_CAS_NAME>
5,7-dimethyl-2-(methylamino)-4-(3-pyridinylmethyl)-1,3-benzothiazol-6-ol

> <PUBCHEM_IUPAC_NAME>
5,7-dimethyl-2-(methylamino)-4-(pyridin-3-ylmethyl)-1,3-benzothiazol-6-ol

> <PUBCHEM_IUPAC_SYSTEMATIC_NAME>
5,7-dimethyl-2-(methylamino)-4-(pyridin-3-ylmethyl)-1,3-benzothiazol-6-ol

> <PUBCHEM_IUPAC_TRADITIONAL_NAME>
5,7-dimethyl-2-(methylamino)-4-(3-pyridylmethyl)-1,3-benzothiazol-6-ol

> <PUBCHEM_IUPAC_INCHI>
InChI=1S/C16H17N3OS/c1-9-12(7-11-5-4-6-18-8-11)13-15(10(2)14(9)20)21-16(17-3)19-13/h4-6,8,20H,7H2,1-3H3,(H,17,19)

> <PUBCHEM_IUPAC_INCHIKEY>
IONAQTGMWFXHIX-UHFFFAOYSA-N

> <PUBCHEM_XLOGP3_AA>
3.9

> <PUBCHEM_EXACT_MASS>
299.109233

> <PUBCHEM_MOLECULAR_FORMULA>
C16H17N3OS

> <PUBCHEM_MOLECULAR_WEIGHT>
299.39068

> <PUBCHEM_OPENEYE_CAN_SMILES>
CC1=C(C2=C(C(=C1O)C)SC(=N2)NC)CC3=CN=CC=C3

> <PUBCHEM_OPENEYE_ISO_SMILES>
CC1=C(C2=C(C(=C1O)C)SC(=N2)NC)CC3=CN=CC=C3

> <PUBCHEM_CACTVS_TPSA>
86.3

> <PUBCHEM_MONOISOTOPIC_WEIGHT>
299.109233

> <PUBCHEM_TOTAL_CHARGE>
0

> <PUBCHEM_HEAVY_ATOM_COUNT>
21

> <PUBCHEM_ATOM_DEF_STEREO_COUNT>
0

> <PUBCHEM_ATOM_UDEF_STEREO_COUNT>
0

> <PUBCHEM_BOND_DEF_STEREO_COUNT>
0

> <PUBCHEM_BOND_UDEF_STEREO_COUNT>
0

> <PUBCHEM_ISOTOPIC_ATOM_COUNT>
0

> <PUBCHEM_COMPONENT_COUNT>
1

> <PUBCHEM_CACTVS_TAUTO_COUNT>
12

> <PUBCHEM_COORDINATE_TYPE>
1
5
255

> <PUBCHEM_BONDANNOTATIONS>
1  10  8
1  16  8
10  11  8
11  12  8
13  17  8
13  18  8
17  19  8
19  21  8
3  16  8
3  7  8
5  18  8
5  21  8
6  7  8
6  8  8
7  10  8
8  12  8

$$$$

