   Color/Form
        Mobile pale yellow liquid
   from [1]HSDB

   Odor
        Strong lemon odor
   from [2]HSDB

   Taste

     * Taste threshold values: Detection: 28 to 120 ppb; alpha-citral, 32
       to 460 ppb; beta-citral, 30 to 460 ppb.
     * CHARACTERISTIC BITTERSWEET

   from [3]HSDB

   Boiling Point
        229 deg C
   from [4]HSDB

   Melting Point
        Melting point <-10 deg C.
   from [5]HSDB

   Density/Specific Gravity
        0.891-0.897 at 15 deg C
   from [6]HSDB

   Octanol/Water Partition Coefficient
        log Kow = 3.45 (est)
   from [7]HSDB

   pH
        ACID VALUE: 5.0 MAX
   from [8]HSDB

   Solubilities

     * Soluble in 5 volumes of 60% alcohol; soluble in all proportions of
       benzyl benzoate, diethyl phthalate, glycerin, propylene glycol,
       mineral oil, fixed oils, and 95% alcohol.
     * Solubility in alcohol: 1 mL in 7 mL 70% alcohol
     * In water, 1.34X10+3 mg/L at 37 deg C

   from [9]HSDB

   Spectral Properties
        Index of refraction = 1.4860-1.4900 at 20 deg C, not optically
   active
   from [10]HSDB

   Vapor Pressure
        9.13X10-2 mm Hg at 25 deg C (est)
   from [11]HSDB

   Other Chemical/Physical Properties

     * Density: 0.885 to 0.891 at 25 deg C/25 deg C
     * MAX ABSORPTION (ALCOHOL): 237 NM (LOG E= 4.16) /GERANIAL, NERAL/
     * VAPOR PRESSURE: 5 MM HG @ 91-95 DEG C /GERANIAL/
     * Light oily liquid with a lemon odor not as intense but sweeter than
       geranial; BP: 91-92 deg C at 2.6 mm Hg; density: 0.8869 at 20 deg
       C/4 deg C; Index of refraction: 1.48690 at 20 deg C/D miscible with
       ether, benzyl benzoate, propylene glycol, diethyl phthalate,
       glycerol, mineral oils, alc, essential oils; practically insol in
       water /Neral/
     * Light oily liquid with strong lemon odor. BP: 92-93 deg C at 2.6 mm
       Hg; Index of refraction: 1.4892 at 20 deg C/D; density: 0.8888 at
       20 deg C/4 deg C; miscible with ether, benzyl benzoate, propylene
       glycol, diethyl phthalate, glycerol, mineral oils, alc, essential
       oils; practically insol in water /Geranial/
     * Henry's Law constant = 4.35X10-5 atm-cu m/mol at 25 deg C (est)
     * Hydroxyl radical reaction rate constant = 1.36X10-10 cu
       cm/molec-sec at 25 deg C (est)

   from [12]HSDB

   Computed Properties
   Molecular Weight                  152.23344 [g/mol]
   Molecular Formula                 C[10]H[16]O
   XLogP3-AA                         3
   H-Bond Donor                      0
   H-Bond Acceptor                   1
   Rotatable Bond Count              4
   Exact Mass                        152.120115
   MonoIsotopic Mass                 152.120115
   Topological Polar Surface Area    17.1
   Heavy Atom Count                  11
   Formal Charge                     0
   Complexity                        171
   Isotope Atom Count                0
   Defined Atom Stereocenter Count   0
   Undefined Atom Stereocenter Count 0
   Defined Bond Stereocenter Count   1
   Undefined Bond Stereocenter Count 0
   Covalently-Bonded Unit Count      1
   Feature 3D Acceptor Count         1
   Feature 3D Hydrophobe Count       3
   Effective Rotor Count             4
   Conformer Sampling RMSD           0.6
   CID Conformer Count               [13]53

References

   1. http://toxnet.nlm.nih.gov/cgi-bin/sis/search/r?dbs+hsdb:@term+@rn+@rel+5392-40-5
   2. http://toxnet.nlm.nih.gov/cgi-bin/sis/search/r?dbs+hsdb:@term+@rn+@rel+5392-40-5
   3. http://toxnet.nlm.nih.gov/cgi-bin/sis/search/r?dbs+hsdb:@term+@rn+@rel+5392-40-5
   4. http://toxnet.nlm.nih.gov/cgi-bin/sis/search/r?dbs+hsdb:@term+@rn+@rel+5392-40-5
   5. http://toxnet.nlm.nih.gov/cgi-bin/sis/search/r?dbs+hsdb:@term+@rn+@rel+5392-40-5
   6. http://toxnet.nlm.nih.gov/cgi-bin/sis/search/r?dbs+hsdb:@term+@rn+@rel+5392-40-5
   7. http://toxnet.nlm.nih.gov/cgi-bin/sis/search/r?dbs+hsdb:@term+@rn+@rel+5392-40-5
   8. http://toxnet.nlm.nih.gov/cgi-bin/sis/search/r?dbs+hsdb:@term+@rn+@rel+5392-40-5
   9. http://toxnet.nlm.nih.gov/cgi-bin/sis/search/r?dbs+hsdb:@term+@rn+@rel+5392-40-5
  10. http://toxnet.nlm.nih.gov/cgi-bin/sis/search/r?dbs+hsdb:@term+@rn+@rel+5392-40-5
  11. http://toxnet.nlm.nih.gov/cgi-bin/sis/search/r?dbs+hsdb:@term+@rn+@rel+5392-40-5
  12. http://toxnet.nlm.nih.gov/cgi-bin/sis/search/r?dbs+hsdb:@term+@rn+@rel+5392-40-5
  13. http://pubchem.ncbi.nlm.nih.gov/vw3d/vw3d.cgi?cid=643779
