12835
  -OEChem-06261207262D

 27 28  0     0  0  0  0  0  0999 V2000
    2.8660    0.1771    0.0000 O   0  0  0  0  0  0  0  0  0  0  0  0
    8.0102    2.0891    0.0000 O   0  0  0  0  0  0  0  0  0  0  0  0
    6.4103   -1.6276    0.0000 N   0  0  0  0  0  0  0  0  0  0  0  0
    6.4103   -0.0182    0.0000 C   0  0  0  0  0  0  0  0  0  0  0  0
    5.4641   -0.3229    0.0000 C   0  0  0  0  0  0  0  0  0  0  0  0
    5.4641   -1.3229    0.0000 C   0  0  0  0  0  0  0  0  0  0  0  0
    6.7210    0.9324    0.0000 C   0  0  0  0  0  0  0  0  0  0  0  0
    6.9939   -0.8229    0.0000 C   0  0  0  0  0  0  0  0  0  0  0  0
    4.5981    0.1771    0.0000 C   0  0  0  0  0  0  0  0  0  0  0  0
    4.5981   -1.8229    0.0000 C   0  0  0  0  0  0  0  0  0  0  0  0
    7.6995    1.1386    0.0000 C   0  0  0  0  0  0  0  0  0  0  0  0
    3.7320   -0.3229    0.0000 C   0  0  0  0  0  0  0  0  0  0  0  0
    3.7320   -1.3229    0.0000 C   0  0  0  0  0  0  0  0  0  0  0  0
    2.0000   -0.3229    0.0000 C   0  0  0  0  0  0  0  0  0  0  0  0
    6.7004    1.5520    0.0000 H   0  0  0  0  0  0  0  0  0  0  0  0
    6.1072    1.0197    0.0000 H   0  0  0  0  0  0  0  0  0  0  0  0
    7.6139   -0.8229    0.0000 H   0  0  0  0  0  0  0  0  0  0  0  0
    6.6029   -2.2170    0.0000 H   0  0  0  0  0  0  0  0  0  0  0  0
    4.5981    0.7971    0.0000 H   0  0  0  0  0  0  0  0  0  0  0  0
    4.5981   -2.4429    0.0000 H   0  0  0  0  0  0  0  0  0  0  0  0
    7.7201    0.5189    0.0000 H   0  0  0  0  0  0  0  0  0  0  0  0
    8.3133    1.0512    0.0000 H   0  0  0  0  0  0  0  0  0  0  0  0
    3.1951   -1.6329    0.0000 H   0  0  0  0  0  0  0  0  0  0  0  0
    8.6168    2.2170    0.0000 H   0  0  0  0  0  0  0  0  0  0  0  0
    1.6900    0.2140    0.0000 H   0  0  0  0  0  0  0  0  0  0  0  0
    1.4631   -0.6329    0.0000 H   0  0  0  0  0  0  0  0  0  0  0  0
    2.3100   -0.8598    0.0000 H   0  0  0  0  0  0  0  0  0  0  0  0
  1 12  1  0  0  0  0
  1 14  1  0  0  0  0
  2 11  1  0  0  0  0
  2 24  1  0  0  0  0
  3  6  1  0  0  0  0
  3  8  1  0  0  0  0
  3 18  1  0  0  0  0
  4  5  1  0  0  0  0
  4  7  1  0  0  0  0
  4  8  2  0  0  0  0
  5  6  2  0  0  0  0
  5  9  1  0  0  0  0
  6 10  1  0  0  0  0
  7 11  1  0  0  0  0
  7 15  1  0  0  0  0
  7 16  1  0  0  0  0
  8 17  1  0  0  0  0
  9 12  2  0  0  0  0
  9 19  1  0  0  0  0
 10 13  2  0  0  0  0
 10 20  1  0  0  0  0
 11 21  1  0  0  0  0
 11 22  1  0  0  0  0
 12 13  1  0  0  0  0
 13 23  1  0  0  0  0
 14 25  1  0  0  0  0
 14 26  1  0  0  0  0
 14 27  1  0  0  0  0
M  END
> <PUBCHEM_COMPOUND_CID>
12835

> <PUBCHEM_COMPOUND_CANONICALIZED>
1

> <PUBCHEM_CACTVS_COMPLEXITY>
186

> <PUBCHEM_CACTVS_HBOND_ACCEPTOR>
2

> <PUBCHEM_CACTVS_HBOND_DONOR>
2

> <PUBCHEM_CACTVS_ROTATABLE_BOND>
3

> <PUBCHEM_CACTVS_SUBSKEYS>
AAADccByMAAAAAAAAAAAAAAAAAAAAWAAAAAwAAAAAAAAAFgB8AAAHgAQCAAADAzhngY+xvLJlgCgAzRnRACCiCAxIiAI2aA+bJgMNuLEsZuEcChk0BHI6Aew0PMOgEABAAACAAAAgAIAAAQAAAAAAAAAAA==

> <PUBCHEM_IUPAC_OPENEYE_NAME>
2-(5-methoxy-1H-indol-3-yl)ethanol

> <PUBCHEM_IUPAC_CAS_NAME>
2-(5-methoxy-1H-indol-3-yl)ethanol

> <PUBCHEM_IUPAC_NAME>
2-(5-methoxy-1H-indol-3-yl)ethanol

> <PUBCHEM_IUPAC_SYSTEMATIC_NAME>
2-(5-methoxy-1H-indol-3-yl)ethanol

> <PUBCHEM_IUPAC_TRADITIONAL_NAME>
2-(5-methoxy-1H-indol-3-yl)ethanol

> <PUBCHEM_IUPAC_INCHI>
InChI=1S/C11H13NO2/c1-14-9-2-3-11-10(6-9)8(4-5-13)7-12-11/h2-3,6-7,12-13H,4-5H2,1H3

> <PUBCHEM_IUPAC_INCHIKEY>
QLWKTGDEPLRFAT-UHFFFAOYSA-N

> <PUBCHEM_XLOGP3>
0.8

> <PUBCHEM_EXACT_MASS>
191.094629

> <PUBCHEM_MOLECULAR_FORMULA>
C11H13NO2

> <PUBCHEM_MOLECULAR_WEIGHT>
191.22642

> <PUBCHEM_OPENEYE_CAN_SMILES>
COC1=CC2=C(C=C1)NC=C2CCO

> <PUBCHEM_OPENEYE_ISO_SMILES>
COC1=CC2=C(C=C1)NC=C2CCO

> <PUBCHEM_CACTVS_TPSA>
45.2

> <PUBCHEM_MONOISOTOPIC_WEIGHT>
191.094629

> <PUBCHEM_TOTAL_CHARGE>
0

> <PUBCHEM_HEAVY_ATOM_COUNT>
14

> <PUBCHEM_ATOM_DEF_STEREO_COUNT>
0

> <PUBCHEM_ATOM_UDEF_STEREO_COUNT>
0

> <PUBCHEM_BOND_DEF_STEREO_COUNT>
0

> <PUBCHEM_BOND_UDEF_STEREO_COUNT>
0

> <PUBCHEM_ISOTOPIC_ATOM_COUNT>
0

> <PUBCHEM_COMPONENT_COUNT>
1

> <PUBCHEM_CACTVS_TAUTO_COUNT>
1

> <PUBCHEM_COORDINATE_TYPE>
1
5
255

> <PUBCHEM_BONDANNOTATIONS>
10  13  8
12  13  8
3  6  8
3  8  8
4  5  8
4  8  8
5  6  8
5  9  8
6  10  8
9  12  8

$$$$

