194620
  -OEChem-07051213102D

 46 48  0     1  0  0  0  0  0999 V2000
    5.6456    3.2088    0.0000 S   0  0  0  0  0  0  0  0  0  0  0  0
    3.8660   -0.8844    0.0000 O   0  0  0  0  0  0  0  0  0  0  0  0
    4.0934    5.2792    0.0000 O   0  0  0  0  0  0  0  0  0  0  0  0
    7.3092    3.8475    0.0000 O   0  0  0  0  0  0  0  0  0  0  0  0
    5.8147    4.8180    0.0000 N   0  0  0  0  0  0  0  0  0  0  0  0
    3.0000   -2.3844    0.0000 C   0  0  0  0  0  0  0  0  0  0  0  0
    3.0000   -1.3844    0.0000 C   0  0  0  0  0  0  0  0  0  0  0  0
    3.0000   -3.3844    0.0000 C   0  0  0  0  0  0  0  0  0  0  0  0
    2.0000   -2.3844    0.0000 C   0  0  0  0  0  0  0  0  0  0  0  0
    4.0000   -2.3844    0.0000 C   0  0  0  0  0  0  0  0  0  0  0  0
    3.8660    3.1156    0.0000 C   0  0  0  0  0  0  0  0  0  0  0  0
    2.1340   -3.8844    0.0000 C   0  0  0  0  0  0  0  0  0  0  0  0
    3.8660   -3.8844    0.0000 C   0  0  0  0  0  0  0  0  0  0  0  0
    4.7320    3.6156    0.0000 C   0  0  3  0  0  0  0  0  0  0  0  0
    3.8660    2.1156    0.0000 C   0  0  0  0  0  0  0  0  0  0  0  0
    3.8660    0.1156    0.0000 C   0  0  0  0  0  0  0  0  0  0  0  0
    3.0000    1.6156    0.0000 C   0  0  0  0  0  0  0  0  0  0  0  0
    4.7320    1.6156    0.0000 C   0  0  0  0  0  0  0  0  0  0  0  0
    3.0000    0.6156    0.0000 C   0  0  0  0  0  0  0  0  0  0  0  0
    4.7320    0.6156    0.0000 C   0  0  0  0  0  0  0  0  0  0  0  0
    2.1340   -4.8844    0.0000 C   0  0  0  0  0  0  0  0  0  0  0  0
    3.8660   -4.8844    0.0000 C   0  0  0  0  0  0  0  0  0  0  0  0
    4.8366    4.6101    0.0000 C   0  0  0  0  0  0  0  0  0  0  0  0
    3.0000   -5.3844    0.0000 C   0  0  0  0  0  0  0  0  0  0  0  0
    6.3147    3.9520    0.0000 C   0  0  0  0  0  0  0  0  0  0  0  0
    2.7880   -0.8018    0.0000 H   0  0  0  0  0  0  0  0  0  0  0  0
    2.3894   -1.4921    0.0000 H   0  0  0  0  0  0  0  0  0  0  0  0
    4.0000   -3.0044    0.0000 H   0  0  0  0  0  0  0  0  0  0  0  0
    4.6200   -2.3844    0.0000 H   0  0  0  0  0  0  0  0  0  0  0  0
    4.0000   -1.7644    0.0000 H   0  0  0  0  0  0  0  0  0  0  0  0
    2.0000   -1.7644    0.0000 H   0  0  0  0  0  0  0  0  0  0  0  0
    1.3800   -2.3844    0.0000 H   0  0  0  0  0  0  0  0  0  0  0  0
    2.0000   -3.0044    0.0000 H   0  0  0  0  0  0  0  0  0  0  0  0
    3.6540    3.6982    0.0000 H   0  0  0  0  0  0  0  0  0  0  0  0
    3.2554    3.0079    0.0000 H   0  0  0  0  0  0  0  0  0  0  0  0
    4.7765    2.7668    0.0000 H   0  0  0  0  0  0  0  0  0  0  0  0
    1.5970   -3.5744    0.0000 H   0  0  0  0  0  0  0  0  0  0  0  0
    4.4030   -3.5744    0.0000 H   0  0  0  0  0  0  0  0  0  0  0  0
    2.4631    1.9256    0.0000 H   0  0  0  0  0  0  0  0  0  0  0  0
    5.2690    1.9256    0.0000 H   0  0  0  0  0  0  0  0  0  0  0  0
    2.4631    0.3056    0.0000 H   0  0  0  0  0  0  0  0  0  0  0  0
    5.2690    0.3056    0.0000 H   0  0  0  0  0  0  0  0  0  0  0  0
    1.5970   -5.1944    0.0000 H   0  0  0  0  0  0  0  0  0  0  0  0
    4.4030   -5.1944    0.0000 H   0  0  0  0  0  0  0  0  0  0  0  0
    3.0000   -6.0044    0.0000 H   0  0  0  0  0  0  0  0  0  0  0  0
    6.0669    5.3844    0.0000 H   0  0  0  0  0  0  0  0  0  0  0  0
  1 14  1  0  0  0  0
  1 25  1  0  0  0  0
  2  7  1  0  0  0  0
  2 16  1  0  0  0  0
  3 23  2  0  0  0  0
  4 25  2  0  0  0  0
  5 23  1  0  0  0  0
  5 25  1  0  0  0  0
  5 46  1  0  0  0  0
  6  7  1  0  0  0  0
  6  8  1  0  0  0  0
  6  9  1  0  0  0  0
  6 10  1  0  0  0  0
  7 26  1  0  0  0  0
  7 27  1  0  0  0  0
  8 12  2  0  0  0  0
  8 13  1  0  0  0  0
  9 31  1  0  0  0  0
  9 32  1  0  0  0  0
  9 33  1  0  0  0  0
 10 28  1  0  0  0  0
 10 29  1  0  0  0  0
 10 30  1  0  0  0  0
 11 14  1  0  0  0  0
 11 15  1  0  0  0  0
 11 34  1  0  0  0  0
 11 35  1  0  0  0  0
 12 21  1  0  0  0  0
 12 37  1  0  0  0  0
 13 22  2  0  0  0  0
 13 38  1  0  0  0  0
 14 23  1  0  0  0  0
 14 36  1  0  0  0  0
 15 17  2  0  0  0  0
 15 18  1  0  0  0  0
 16 19  2  0  0  0  0
 16 20  1  0  0  0  0
 17 19  1  0  0  0  0
 17 39  1  0  0  0  0
 18 20  2  0  0  0  0
 18 40  1  0  0  0  0
 19 41  1  0  0  0  0
 20 42  1  0  0  0  0
 21 24  2  0  0  0  0
 21 43  1  0  0  0  0
 22 24  1  0  0  0  0
 22 44  1  0  0  0  0
 24 45  1  0  0  0  0
M  END
> <PUBCHEM_COMPOUND_CID>
194620

> <PUBCHEM_COMPOUND_CANONICALIZED>
1

> <PUBCHEM_CACTVS_COMPLEXITY>
479

> <PUBCHEM_CACTVS_HBOND_ACCEPTOR>
4

> <PUBCHEM_CACTVS_HBOND_DONOR>
1

> <PUBCHEM_CACTVS_ROTATABLE_BOND>
6

> <PUBCHEM_CACTVS_SUBSKEYS>
AAADceB6MABAAAAAAAAAAAAAAAAAAWAAAAAwYAAAAAAAAAABQAAAHgQQAAAADgSl2AKyBoLABAiIAiFSEAACCABgIBAIiAEGCIgMJjKksRqGOCCk1DEIqAeYyOCPoAAAAAAAAABAAAAAAAAAAAAAAAAAAA==

> <PUBCHEM_IUPAC_OPENEYE_NAME>
5-[[4-(2-methyl-2-phenyl-propoxy)phenyl]methyl]thiazolidine-2,4-dione

> <PUBCHEM_IUPAC_CAS_NAME>
5-[[4-(2-methyl-2-phenylpropoxy)phenyl]methyl]thiazolidine-2,4-dione

> <PUBCHEM_IUPAC_NAME>
5-[[4-(2-methyl-2-phenylpropoxy)phenyl]methyl]-1,3-thiazolidine-2,4-dione

> <PUBCHEM_IUPAC_SYSTEMATIC_NAME>
5-[[4-(2-methyl-2-phenyl-propoxy)phenyl]methyl]-1,3-thiazolidine-2,4-dione

> <PUBCHEM_IUPAC_TRADITIONAL_NAME>
5-(4-neophyloxybenzyl)thiazolidine-2,4-quinone

> <PUBCHEM_IUPAC_INCHI>
InChI=1S/C20H21NO3S/c1-20(2,15-6-4-3-5-7-15)13-24-16-10-8-14(9-11-16)12-17-18(22)21-19(23)25-17/h3-11,17H,12-13H2,1-2H3,(H,21,22,23)

> <PUBCHEM_IUPAC_INCHIKEY>
FZKKPKRWTSYXLF-UHFFFAOYSA-N

> <PUBCHEM_XLOGP3_AA>
4.9

> <PUBCHEM_EXACT_MASS>
355.124215

> <PUBCHEM_MOLECULAR_FORMULA>
C20H21NO3S

> <PUBCHEM_MOLECULAR_WEIGHT>
355.45064

> <PUBCHEM_OPENEYE_CAN_SMILES>
CC(C)(COC1=CC=C(C=C1)CC2C(=O)NC(=O)S2)C3=CC=CC=C3

> <PUBCHEM_OPENEYE_ISO_SMILES>
CC(C)(COC1=CC=C(C=C1)CC2C(=O)NC(=O)S2)C3=CC=CC=C3

> <PUBCHEM_CACTVS_TPSA>
80.7

> <PUBCHEM_MONOISOTOPIC_WEIGHT>
355.124215

> <PUBCHEM_TOTAL_CHARGE>
0

> <PUBCHEM_HEAVY_ATOM_COUNT>
25

> <PUBCHEM_ATOM_DEF_STEREO_COUNT>
0

> <PUBCHEM_ATOM_UDEF_STEREO_COUNT>
1

> <PUBCHEM_BOND_DEF_STEREO_COUNT>
0

> <PUBCHEM_BOND_UDEF_STEREO_COUNT>
0

> <PUBCHEM_ISOTOPIC_ATOM_COUNT>
0

> <PUBCHEM_COMPONENT_COUNT>
1

> <PUBCHEM_CACTVS_TAUTO_COUNT>
5

> <PUBCHEM_COORDINATE_TYPE>
1
5
255

> <PUBCHEM_BONDANNOTATIONS>
12  21  8
13  22  8
14  36  3
15  17  8
15  18  8
16  19  8
16  20  8
17  19  8
18  20  8
21  24  8
22  24  8
8  12  8
8  13  8

$$$$

