586237
  -OEChem-06241222462D

 42 44  0     1  0  0  0  0  0999 V2000
    6.0000   -1.0173    0.0000 O   0  0  0  0  0  0  0  0  0  0  0  0
    9.0301    1.8728    0.0000 O   0  0  0  0  0  0  0  0  0  0  0  0
    6.3660    0.3487    0.0000 C   0  0  3  0  0  0  0  0  0  0  0  0
    5.5000   -0.1513    0.0000 C   0  0  3  0  0  0  0  0  0  0  0  0
    6.3660    1.3487    0.0000 C   0  0  0  0  0  0  0  0  0  0  0  0
    4.6340    0.3487    0.0000 C   0  0  0  0  0  0  0  0  0  0  0  0
    7.2600   -0.1860    0.0000 C   0  0  0  0  0  0  0  0  0  0  0  0
    5.5000    1.8487    0.0000 C   0  0  0  0  0  0  0  0  0  0  0  0
    4.6340    1.3487    0.0000 C   0  0  0  0  0  0  0  0  0  0  0  0
    5.0000   -1.0173    0.0000 C   0  0  0  0  0  0  0  0  0  0  0  0
    6.7081   -0.5910    0.0000 C   0  0  0  0  0  0  0  0  0  0  0  0
    8.1660    0.3279    0.0000 C   0  0  0  0  0  0  0  0  0  0  0  0
    7.2600    1.8834    0.0000 C   0  0  0  0  0  0  0  0  0  0  0  0
    8.1660    1.3695    0.0000 C   0  0  0  0  0  0  0  0  0  0  0  0
    4.0000   -1.0173    0.0000 C   0  0  0  0  0  0  0  0  0  0  0  0
    3.5000   -0.1513    0.0000 C   0  0  0  0  0  0  0  0  0  0  0  0
    3.5000   -1.8834    0.0000 C   0  0  0  0  0  0  0  0  0  0  0  0
    2.5000   -0.1513    0.0000 C   0  0  0  0  0  0  0  0  0  0  0  0
    2.5000   -1.8834    0.0000 C   0  0  0  0  0  0  0  0  0  0  0  0
    2.0000   -1.0173    0.0000 C   0  0  0  0  0  0  0  0  0  0  0  0
    4.0234    0.4564    0.0000 H   0  0  0  0  0  0  0  0  0  0  0  0
    4.4219   -0.2339    0.0000 H   0  0  0  0  0  0  0  0  0  0  0  0
    6.8554   -0.6558    0.0000 H   0  0  0  0  0  0  0  0  0  0  0  0
    7.6536   -0.6650    0.0000 H   0  0  0  0  0  0  0  0  0  0  0  0
    5.8985    2.3236    0.0000 H   0  0  0  0  0  0  0  0  0  0  0  0
    5.1015    2.3236    0.0000 H   0  0  0  0  0  0  0  0  0  0  0  0
    4.4219    1.9313    0.0000 H   0  0  0  0  0  0  0  0  0  0  0  0
    4.0234    1.2410    0.0000 H   0  0  0  0  0  0  0  0  0  0  0  0
    4.8923   -1.6279    0.0000 H   0  0  0  0  0  0  0  0  0  0  0  0
    5.5826   -1.2294    0.0000 H   0  0  0  0  0  0  0  0  0  0  0  0
    6.1255   -0.8031    0.0000 H   0  0  0  0  0  0  0  0  0  0  0  0
    6.9202   -1.1736    0.0000 H   0  0  0  0  0  0  0  0  0  0  0  0
    7.2907   -0.3789    0.0000 H   0  0  0  0  0  0  0  0  0  0  0  0
    8.3751   -0.2558    0.0000 H   0  0  0  0  0  0  0  0  0  0  0  0
    8.7769    0.4340    0.0000 H   0  0  0  0  0  0  0  0  0  0  0  0
    7.2528    2.5033    0.0000 H   0  0  0  0  0  0  0  0  0  0  0  0
    5.6900   -1.5543    0.0000 H   0  0  0  0  0  0  0  0  0  0  0  0
    3.8100    0.3856    0.0000 H   0  0  0  0  0  0  0  0  0  0  0  0
    3.8100   -2.4203    0.0000 H   0  0  0  0  0  0  0  0  0  0  0  0
    2.1900    0.3856    0.0000 H   0  0  0  0  0  0  0  0  0  0  0  0
    2.1900   -2.4203    0.0000 H   0  0  0  0  0  0  0  0  0  0  0  0
    1.3800   -1.0173    0.0000 H   0  0  0  0  0  0  0  0  0  0  0  0
  1  4  1  0  0  0  0
  1 37  1  0  0  0  0
  2 14  2  0  0  0  0
  3  4  1  0  0  0  0
  3  5  1  0  0  0  0
  3  7  1  0  0  0  0
  3 11  1  0  0  0  0
  4  6  1  0  0  0  0
  4 10  1  0  0  0  0
  5  8  1  0  0  0  0
  5 13  2  0  0  0  0
  6  9  1  0  0  0  0
  6 21  1  0  0  0  0
  6 22  1  0  0  0  0
  7 12  1  0  0  0  0
  7 23  1  0  0  0  0
  7 24  1  0  0  0  0
  8  9  1  0  0  0  0
  8 25  1  0  0  0  0
  8 26  1  0  0  0  0
  9 27  1  0  0  0  0
  9 28  1  0  0  0  0
 10 15  1  0  0  0  0
 10 29  1  0  0  0  0
 10 30  1  0  0  0  0
 11 31  1  0  0  0  0
 11 32  1  0  0  0  0
 11 33  1  0  0  0  0
 12 14  1  0  0  0  0
 12 34  1  0  0  0  0
 12 35  1  0  0  0  0
 13 14  1  0  0  0  0
 13 36  1  0  0  0  0
 15 16  2  0  0  0  0
 15 17  1  0  0  0  0
 16 18  1  0  0  0  0
 16 38  1  0  0  0  0
 17 19  2  0  0  0  0
 17 39  1  0  0  0  0
 18 20  2  0  0  0  0
 18 40  1  0  0  0  0
 19 20  1  0  0  0  0
 19 41  1  0  0  0  0
 20 42  1  0  0  0  0
M  END
> <PUBCHEM_COMPOUND_CID>
586237

> <PUBCHEM_COMPOUND_CANONICALIZED>
1

> <PUBCHEM_CACTVS_COMPLEXITY>
419

> <PUBCHEM_CACTVS_HBOND_ACCEPTOR>
2

> <PUBCHEM_CACTVS_HBOND_DONOR>
1

> <PUBCHEM_CACTVS_ROTATABLE_BOND>
2

> <PUBCHEM_CACTVS_SUBSKEYS>
AAADceB4MAAAAAAAAAAAAAAAAAAAAAAAAAAwYIAAAAAAAACBAAAAGgAACAAADkSAmAAyAIAAAgCIAqBSAAACAAAgAAAIiAEAAMgIIDKAERCAYAAkwAEIiQeIzODPgAAAAAAAAAAAAAAAADAAAAAAAAAAAA==

> <PUBCHEM_IUPAC_OPENEYE_NAME>
5-benzyl-5-hydroxy-4a-methyl-4,6,7,8-tetrahydro-3H-naphthalen-2-one

> <PUBCHEM_IUPAC_CAS_NAME>
5-hydroxy-4a-methyl-5-(phenylmethyl)-4,6,7,8-tetrahydro-3H-naphthalen-2-one

> <PUBCHEM_IUPAC_NAME>
5-benzyl-5-hydroxy-4a-methyl-4,6,7,8-tetrahydro-3H-naphthalen-2-one

> <PUBCHEM_IUPAC_SYSTEMATIC_NAME>
4a-methyl-5-oxidanyl-5-(phenylmethyl)-4,6,7,8-tetrahydro-3H-naphthalen-2-one

> <PUBCHEM_IUPAC_TRADITIONAL_NAME>
5-benzyl-5-hydroxy-4a-methyl-4,6,7,8-tetrahydro-3H-naphthalen-2-one

> <PUBCHEM_IUPAC_INCHI>
InChI=1S/C18H22O2/c1-17-11-9-16(19)12-15(17)8-5-10-18(17,20)13-14-6-3-2-4-7-14/h2-4,6-7,12,20H,5,8-11,13H2,1H3

> <PUBCHEM_IUPAC_INCHIKEY>
JEFHSCIUCTVBTK-UHFFFAOYSA-N

> <PUBCHEM_XLOGP3_AA>
2.7

> <PUBCHEM_EXACT_MASS>
270.16198

> <PUBCHEM_MOLECULAR_FORMULA>
C18H22O2

> <PUBCHEM_MOLECULAR_WEIGHT>
270.36608

> <PUBCHEM_OPENEYE_CAN_SMILES>
CC12CCC(=O)C=C1CCCC2(CC3=CC=CC=C3)O

> <PUBCHEM_OPENEYE_ISO_SMILES>
CC12CCC(=O)C=C1CCCC2(CC3=CC=CC=C3)O

> <PUBCHEM_CACTVS_TPSA>
37.3

> <PUBCHEM_MONOISOTOPIC_WEIGHT>
270.16198

> <PUBCHEM_TOTAL_CHARGE>
0

> <PUBCHEM_HEAVY_ATOM_COUNT>
20

> <PUBCHEM_ATOM_DEF_STEREO_COUNT>
0

> <PUBCHEM_ATOM_UDEF_STEREO_COUNT>
2

> <PUBCHEM_BOND_DEF_STEREO_COUNT>
0

> <PUBCHEM_BOND_UDEF_STEREO_COUNT>
0

> <PUBCHEM_ISOTOPIC_ATOM_COUNT>
0

> <PUBCHEM_COMPONENT_COUNT>
1

> <PUBCHEM_CACTVS_TAUTO_COUNT>
5

> <PUBCHEM_COORDINATE_TYPE>
1
5
255

> <PUBCHEM_BONDANNOTATIONS>
4  1  3
15  16  8
15  17  8
16  18  8
17  19  8
18  20  8
19  20  8
3  11  3

$$$$

