440757
  -OEChem-07051212502D

 81 84  0     1  0  0  0  0  0999 V2000
   14.0317    3.7060    0.0000 P   0  0  0  0  0  0  0  0  0  0  0  0
    7.0628    0.2743    0.0000 O   0  0  0  0  0  0  0  0  0  0  0  0
    7.9506   -4.2572    0.0000 O   0  0  0  0  0  0  0  0  0  0  0  0
    2.5357   -4.2780    0.0000 O   0  0  0  0  0  0  0  0  0  0  0  0
   12.1212    0.6482    0.0000 O   0  0  0  0  0  0  0  0  0  0  0  0
   15.0102    3.9122    0.0000 O   0  0  0  0  0  0  0  0  0  0  0  0
   13.8255    4.6845    0.0000 O   0  0  0  0  0  0  0  0  0  0  0  0
   14.2379    2.7275    0.0000 O   0  0  0  0  0  0  0  0  0  0  0  0
   11.7640    2.3430    0.0000 N   0  0  0  0  0  0  0  0  0  0  0  0
    7.9288   -1.2257    0.0000 C   0  0  1  0  0  0  0  0  0  0  0  0
    7.9288   -2.2257    0.0000 C   0  0  2  0  0  0  0  0  0  0  0  0
    7.0628   -2.7257    0.0000 C   0  0  1  0  0  0  0  0  0  0  0  0
    6.1968   -2.2257    0.0000 C   0  0  1  0  0  0  0  0  0  0  0  0
    5.2868   -2.7325    0.0000 C   0  0  2  0  0  0  0  0  0  0  0  0
    8.8750   -0.9210    0.0000 C   0  0  2  0  0  0  0  0  0  0  0  0
    7.0628   -0.7257    0.0000 C   0  0  2  0  0  0  0  0  0  0  0  0
    6.1968   -1.2257    0.0000 C   0  0  0  0  0  0  0  0  0  0  0  0
    5.2787   -3.7741    0.0000 C   0  0  2  0  0  0  0  0  0  0  0  0
    8.8750   -2.5304    0.0000 C   0  0  0  0  0  0  0  0  0  0  0  0
    7.0789   -3.7672    0.0000 C   0  0  3  0  0  0  0  0  0  0  0  0
    9.4586   -1.7257    0.0000 C   0  0  0  0  0  0  0  0  0  0  0  0
    6.1808   -4.2950    0.0000 C   0  0  0  0  0  0  0  0  0  0  0  0
    4.3599   -2.1685    0.0000 C   0  0  0  0  0  0  0  0  0  0  0  0
    7.9288   -0.2257    0.0000 C   0  0  0  0  0  0  0  0  0  0  0  0
    9.1857    0.0296    0.0000 C   0  0  1  0  0  0  0  0  0  0  0  0
    4.3433   -4.3239    0.0000 C   0  0  0  0  0  0  0  0  0  0  0  0
    5.2945   -1.7326    0.0000 C   0  0  0  0  0  0  0  0  0  0  0  0
    3.4120   -2.6964    0.0000 C   0  0  0  0  0  0  0  0  0  0  0  0
    3.4037   -3.7814    0.0000 C   0  0  1  0  0  0  0  0  0  0  0  0
   10.1642    0.2358    0.0000 C   0  0  0  0  0  0  0  0  0  0  0  0
    8.5179    0.7739    0.0000 C   0  0  0  0  0  0  0  0  0  0  0  0
   10.4749    1.1863    0.0000 C   0  0  0  0  0  0  0  0  0  0  0  0
   11.4534    1.3925    0.0000 C   0  0  0  0  0  0  0  0  0  0  0  0
   12.7425    2.5493    0.0000 C   0  0  0  0  0  0  0  0  0  0  0  0
   13.0532    3.4998    0.0000 C   0  0  0  0  0  0  0  0  0  0  0  0
    8.0188   -3.0709    0.0000 H   0  0  0  0  0  0  0  0  0  0  0  0
    7.8022   -3.1450    0.0000 H   0  0  0  0  0  0  0  0  0  0  0  0
    6.9329   -1.8007    0.0000 H   0  0  0  0  0  0  0  0  0  0  0  0
    9.7148   -0.7891    0.0000 H   0  0  0  0  0  0  0  0  0  0  0  0
    7.5997   -0.4157    0.0000 H   0  0  0  0  0  0  0  0  0  0  0  0
    5.9847   -0.6431    0.0000 H   0  0  0  0  0  0  0  0  0  0  0  0
    5.5862   -1.3334    0.0000 H   0  0  0  0  0  0  0  0  0  0  0  0
    5.2820   -4.6241    0.0000 H   0  0  0  0  0  0  0  0  0  0  0  0
    8.6240   -3.0973    0.0000 H   0  0  0  0  0  0  0  0  0  0  0  0
    9.4124   -2.8396    0.0000 H   0  0  0  0  0  0  0  0  0  0  0  0
    7.8092   -3.3323    0.0000 H   0  0  0  0  0  0  0  0  0  0  0  0
    9.9195   -2.1404    0.0000 H   0  0  0  0  0  0  0  0  0  0  0  0
    9.9195   -1.3110    0.0000 H   0  0  0  0  0  0  0  0  0  0  0  0
    5.7835   -4.7709    0.0000 H   0  0  0  0  0  0  0  0  0  0  0  0
    6.5818   -4.7678    0.0000 H   0  0  0  0  0  0  0  0  0  0  0  0
    4.7681   -1.7018    0.0000 H   0  0  0  0  0  0  0  0  0  0  0  0
    3.9700   -1.6864    0.0000 H   0  0  0  0  0  0  0  0  0  0  0  0
    8.5488   -0.2257    0.0000 H   0  0  0  0  0  0  0  0  0  0  0  0
    7.9288    0.3943    0.0000 H   0  0  0  0  0  0  0  0  0  0  0  0
    7.3088   -0.2257    0.0000 H   0  0  0  0  0  0  0  0  0  0  0  0
    9.3783    0.6189    0.0000 H   0  0  0  0  0  0  0  0  0  0  0  0
    3.9460   -4.7998    0.0000 H   0  0  0  0  0  0  0  0  0  0  0  0
    4.7443   -4.7968    0.0000 H   0  0  0  0  0  0  0  0  0  0  0  0
    5.9145   -1.7374    0.0000 H   0  0  0  0  0  0  0  0  0  0  0  0
    5.2993   -1.1126    0.0000 H   0  0  0  0  0  0  0  0  0  0  0  0
    4.6745   -1.7278    0.0000 H   0  0  0  0  0  0  0  0  0  0  0  0
    3.2075   -2.1111    0.0000 H   0  0  0  0  0  0  0  0  0  0  0  0
    2.8004   -2.7978    0.0000 H   0  0  0  0  0  0  0  0  0  0  0  0
    3.4025   -4.4014    0.0000 H   0  0  0  0  0  0  0  0  0  0  0  0
    6.5259    0.5843    0.0000 H   0  0  0  0  0  0  0  0  0  0  0  0
   10.1848   -0.3839    0.0000 H   0  0  0  0  0  0  0  0  0  0  0  0
   10.7780    0.1484    0.0000 H   0  0  0  0  0  0  0  0  0  0  0  0
    7.9578   -4.8771    0.0000 H   0  0  0  0  0  0  0  0  0  0  0  0
    8.9793    1.1879    0.0000 H   0  0  0  0  0  0  0  0  0  0  0  0
    8.1038    1.2353    0.0000 H   0  0  0  0  0  0  0  0  0  0  0  0
    8.0564    0.3598    0.0000 H   0  0  0  0  0  0  0  0  0  0  0  0
   10.4543    1.8060    0.0000 H   0  0  0  0  0  0  0  0  0  0  0  0
    9.8611    1.2736    0.0000 H   0  0  0  0  0  0  0  0  0  0  0  0
    2.0000   -3.9660    0.0000 H   0  0  0  0  0  0  0  0  0  0  0  0
   11.3500    2.8045    0.0000 H   0  0  0  0  0  0  0  0  0  0  0  0
   12.7631    1.9296    0.0000 H   0  0  0  0  0  0  0  0  0  0  0  0
   13.3564    2.4619    0.0000 H   0  0  0  0  0  0  0  0  0  0  0  0
   13.0326    4.1194    0.0000 H   0  0  0  0  0  0  0  0  0  0  0  0
   12.4394    3.5871    0.0000 H   0  0  0  0  0  0  0  0  0  0  0  0
   15.2028    4.5015    0.0000 H   0  0  0  0  0  0  0  0  0  0  0  0
   13.2362    4.8771    0.0000 H   0  0  0  0  0  0  0  0  0  0  0  0
  1  6  1  0  0  0  0
  1  7  1  0  0  0  0
  1  8  2  0  0  0  0
  1 35  1  0  0  0  0
 16  2  1  6  0  0  0
  2 65  1  0  0  0  0
  3 20  1  0  0  0  0
  3 68  1  0  0  0  0
 29  4  1  6  0  0  0
  4 74  1  0  0  0  0
  5 33  2  0  0  0  0
  6 80  1  0  0  0  0
  7 81  1  0  0  0  0
  9 33  1  0  0  0  0
  9 34  1  0  0  0  0
  9 75  1  0  0  0  0
 10 11  1  0  0  0  0
 10 15  1  0  0  0  0
 10 16  1  0  0  0  0
 10 24  1  1  0  0  0
 11 12  1  0  0  0  0
 11 19  1  0  0  0  0
 11 36  1  6  0  0  0
 12 13  1  0  0  0  0
 12 20  1  0  0  0  0
 12 37  1  1  0  0  0
 13 14  1  0  0  0  0
 13 17  1  0  0  0  0
 13 38  1  6  0  0  0
 14 18  1  0  0  0  0
 14 23  1  0  0  0  0
 14 27  1  1  0  0  0
 15 21  1  0  0  0  0
 15 25  1  0  0  0  0
 15 39  1  6  0  0  0
 16 17  1  0  0  0  0
 16 40  1  0  0  0  0
 17 41  1  0  0  0  0
 17 42  1  0  0  0  0
 18 22  1  0  0  0  0
 18 26  1  0  0  0  0
 18 43  1  1  0  0  0
 19 21  1  0  0  0  0
 19 44  1  0  0  0  0
 19 45  1  0  0  0  0
 20 22  1  0  0  0  0
 20 46  1  0  0  0  0
 21 47  1  0  0  0  0
 21 48  1  0  0  0  0
 22 49  1  0  0  0  0
 22 50  1  0  0  0  0
 23 28  1  0  0  0  0
 23 51  1  0  0  0  0
 23 52  1  0  0  0  0
 24 53  1  0  0  0  0
 24 54  1  0  0  0  0
 24 55  1  0  0  0  0
 25 30  1  0  0  0  0
 25 31  1  6  0  0  0
 25 56  1  0  0  0  0
 26 29  1  0  0  0  0
 26 57  1  0  0  0  0
 26 58  1  0  0  0  0
 27 59  1  0  0  0  0
 27 60  1  0  0  0  0
 27 61  1  0  0  0  0
 28 29  1  0  0  0  0
 28 62  1  0  0  0  0
 28 63  1  0  0  0  0
 29 64  1  0  0  0  0
 30 32  1  0  0  0  0
 30 66  1  0  0  0  0
 30 67  1  0  0  0  0
 31 69  1  0  0  0  0
 31 70  1  0  0  0  0
 31 71  1  0  0  0  0
 32 33  1  0  0  0  0
 32 72  1  0  0  0  0
 32 73  1  0  0  0  0
 34 35  1  0  0  0  0
 34 76  1  0  0  0  0
 34 77  1  0  0  0  0
 35 78  1  0  0  0  0
 35 79  1  0  0  0  0
M  END
> <PUBCHEM_COMPOUND_CID>
440757

> <PUBCHEM_COMPOUND_CANONICALIZED>
1

> <PUBCHEM_CACTVS_COMPLEXITY>
835

> <PUBCHEM_CACTVS_HBOND_ACCEPTOR>
7

> <PUBCHEM_CACTVS_HBOND_DONOR>
6

> <PUBCHEM_CACTVS_ROTATABLE_BOND>
7

> <PUBCHEM_CACTVS_SUBSKEYS>
AAADcfB6OAIAAAAAAAAAAAAAAAAAAYAAAAAwYMAAAAAAAGDAAAAAHggQCCAADxTpgAYCAALAAhAIQAEQEIAAAAAAAAAAAIEIAAAAEBIAgAAEQAAEFgCAAAGY6PSPgAAAAAAAAADAAAYAADAAAQAACAAAAA==

> <PUBCHEM_IUPAC_OPENEYE_NAME>
2-[[(4R)-4-[(3R,5S,8R,9S,10S,12S,13R,14S,17R)-3,7,12-trihydroxy-10,13-dimethyl-2,3,4,5,6,7,8,9,11,12,14,15,16,17-tetradecahydro-1H-cyclopenta[a]phenanthren-17-yl]pentanoyl]amino]ethylphosphonic acid

> <PUBCHEM_IUPAC_CAS_NAME>
2-[[(4R)-1-oxo-4-[(3R,5S,8R,9S,10S,12S,13R,14S,17R)-3,7,12-trihydroxy-10,13-dimethyl-2,3,4,5,6,7,8,9,11,12,14,15,16,17-tetradecahydro-1H-cyclopenta[a]phenanthren-17-yl]pentyl]amino]ethylphosphonic acid

> <PUBCHEM_IUPAC_NAME>
2-[[(4R)-4-[(3R,5S,8R,9S,10S,12S,13R,14S,17R)-3,7,12-trihydroxy-10,13-dimethyl-2,3,4,5,6,7,8,9,11,12,14,15,16,17-tetradecahydro-1H-cyclopenta[a]phenanthren-17-yl]pentanoyl]amino]ethylphosphonic acid

> <PUBCHEM_IUPAC_SYSTEMATIC_NAME>
2-[[(4R)-4-[(3R,5S,8R,9S,10S,12S,13R,14S,17R)-10,13-dimethyl-3,7,12-tris(oxidanyl)-2,3,4,5,6,7,8,9,11,12,14,15,16,17-tetradecahydro-1H-cyclopenta[a]phenanthren-17-yl]pentanoyl]amino]ethylphosphonic acid

> <PUBCHEM_IUPAC_TRADITIONAL_NAME>
2-[[(4R)-4-[(3R,5S,8R,9S,10S,12S,13R,14S,17R)-3,7,12-trihydroxy-10,13-dimethyl-2,3,4,5,6,7,8,9,11,12,14,15,16,17-tetradecahydro-1H-cyclopenta[a]phenanthren-17-yl]pentanoyl]amino]ethylphosphonic acid

> <PUBCHEM_IUPAC_INCHI>
InChI=1S/C26H46NO7P/c1-15(4-7-23(31)27-10-11-35(32,33)34)18-5-6-19-24-20(14-22(30)26(18,19)3)25(2)9-8-17(28)12-16(25)13-21(24)29/h15-22,24,28-30H,4-14H2,1-3H3,(H,27,31)(H2,32,33,34)/t15-,16+,17-,18-,19+,20+,21?,22+,24+,25+,26-/m1/s1

> <PUBCHEM_IUPAC_INCHIKEY>
BGUPNWPPECTFDP-RUUYYOGZSA-N

> <PUBCHEM_XLOGP3_AA>
1.5

> <PUBCHEM_EXACT_MASS>
515.301189

> <PUBCHEM_MOLECULAR_FORMULA>
C26H46NO7P

> <PUBCHEM_MOLECULAR_WEIGHT>
515.619702

> <PUBCHEM_OPENEYE_CAN_SMILES>
CC(CCC(=O)NCCP(=O)(O)O)C1CCC2C1(C(CC3C2C(CC4C3(CCC(C4)O)C)O)O)C

> <PUBCHEM_OPENEYE_ISO_SMILES>
C[C@H](CCC(=O)NCCP(=O)(O)O)[C@H]1CC[C@@H]2[C@@]1([C@H](C[C@H]3[C@H]2C(C[C@H]4[C@@]3(CC[C@H](C4)O)C)O)O)C

> <PUBCHEM_CACTVS_TPSA>
147

> <PUBCHEM_MONOISOTOPIC_WEIGHT>
515.301189

> <PUBCHEM_TOTAL_CHARGE>
0

> <PUBCHEM_HEAVY_ATOM_COUNT>
35

> <PUBCHEM_ATOM_DEF_STEREO_COUNT>
10

> <PUBCHEM_ATOM_UDEF_STEREO_COUNT>
1

> <PUBCHEM_BOND_DEF_STEREO_COUNT>
0

> <PUBCHEM_BOND_UDEF_STEREO_COUNT>
0

> <PUBCHEM_ISOTOPIC_ATOM_COUNT>
0

> <PUBCHEM_COMPONENT_COUNT>
1

> <PUBCHEM_CACTVS_TAUTO_COUNT>
2

> <PUBCHEM_COORDINATE_TYPE>
1
5
255

> <PUBCHEM_BONDANNOTATIONS>
10  24  5
11  36  6
12  37  5
13  38  6
14  27  5
15  39  6
18  43  5
16  2  6
20  46  3
25  31  6
29  4  6

$$$$

