441681
  -OEChem-07051212552D

 95100  0     1  0  0  0  0  0999 V2000
    8.5991   -2.8128    0.0000 O   0  0  0  0  0  0  0  0  0  0  0  0
   12.0622   -3.8573    0.0000 O   0  0  0  0  0  0  0  0  0  0  0  0
    5.1350    3.1872    0.0000 O   0  0  0  0  0  0  0  0  0  0  0  0
    7.7331   -1.3128    0.0000 O   0  0  0  0  0  0  0  0  0  0  0  0
   11.2135   -2.3474    0.0000 O   0  0  0  0  0  0  0  0  0  0  0  0
    6.0010   -4.3128    0.0000 O   0  0  0  0  0  0  0  0  0  0  0  0
    7.7331   -5.3128    0.0000 O   0  0  0  0  0  0  0  0  0  0  0  0
   14.6774   -2.3875    0.0000 O   0  0  0  0  0  0  0  0  0  0  0  0
   14.6543   -4.3873    0.0000 O   0  0  0  0  0  0  0  0  0  0  0  0
    6.8671    3.1872    0.0000 O   0  0  0  0  0  0  0  0  0  0  0  0
    6.0010   -2.3128    0.0000 O   0  0  0  0  0  0  0  0  0  0  0  0
   12.9570   -1.3675    0.0000 O   0  0  0  0  0  0  0  0  0  0  0  0
    5.1350    6.1872    0.0000 O   0  0  0  0  0  0  0  0  0  0  0  0
    3.4030    5.1872    0.0000 O   0  0  0  0  0  0  0  0  0  0  0  0
    6.8671    5.1872    0.0000 O   0  0  0  0  0  0  0  0  0  0  0  0
    9.4651   -5.3128    0.0000 O   0  0  0  0  0  0  0  0  0  0  0  0
   13.7710   -5.8772    0.0000 O   0  0  0  0  0  0  0  0  0  0  0  0
    9.4651    0.6872    0.0000 O   0  3  0  0  0  0  0  0  0  0  0  0
    2.5369    3.6872    0.0000 O   0  0  0  0  0  0  0  0  0  0  0  0
    5.1350    2.1872    0.0000 O   0  0  0  0  0  0  0  0  0  0  0  0
   12.9953    0.7113    0.0000 O   0  0  0  0  0  0  0  0  0  0  0  0
    6.8671   -3.8128    0.0000 C   0  0  1  0  0  0  0  0  0  0  0  0
    7.7331   -4.3128    0.0000 C   0  0  1  0  0  0  0  0  0  0  0  0
   13.8057   -2.8774    0.0000 C   0  0  1  0  0  0  0  0  0  0  0  0
   13.7941   -3.8774    0.0000 C   0  0  1  0  0  0  0  0  0  0  0  0
    6.8671   -2.8128    0.0000 C   0  0  2  0  0  0  0  0  0  0  0  0
    8.5991   -3.8128    0.0000 C   0  0  1  0  0  0  0  0  0  0  0  0
   12.9455   -2.3674    0.0000 C   0  0  2  0  0  0  0  0  0  0  0  0
   12.9224   -4.3673    0.0000 C   0  0  1  0  0  0  0  0  0  0  0  0
    5.1350    5.1872    0.0000 C   0  0  1  0  0  0  0  0  0  0  0  0
    4.2690    4.6872    0.0000 C   0  0  1  0  0  0  0  0  0  0  0  0
    7.7331   -2.3128    0.0000 C   0  0  1  0  0  0  0  0  0  0  0  0
    6.0010    4.6872    0.0000 C   0  0  2  0  0  0  0  0  0  0  0  0
    4.2690    3.6872    0.0000 C   0  0  1  0  0  0  0  0  0  0  0  0
   12.0737   -2.8574    0.0000 C   0  0  1  0  0  0  0  0  0  0  0  0
    6.0010    3.6872    0.0000 C   0  0  1  0  0  0  0  0  0  0  0  0
    9.4651   -4.3128    0.0000 C   0  0  0  0  0  0  0  0  0  0  0  0
   12.9108   -5.3672    0.0000 C   0  0  0  0  0  0  0  0  0  0  0  0
    3.4030    3.1872    0.0000 C   0  0  0  0  0  0  0  0  0  0  0  0
    8.5991   -0.8128    0.0000 C   0  0  0  0  0  0  0  0  0  0  0  0
   11.2251   -1.3475    0.0000 C   0  0  0  0  0  0  0  0  0  0  0  0
   10.3312   -0.8128    0.0000 C   0  0  0  0  0  0  0  0  0  0  0  0
    8.5991    0.1872    0.0000 C   0  0  0  0  0  0  0  0  0  0  0  0
    9.4651   -1.3128    0.0000 C   0  0  0  0  0  0  0  0  0  0  0  0
    6.8671    2.1872    0.0000 C   0  0  0  0  0  0  0  0  0  0  0  0
   10.3312    0.1872    0.0000 C   0  0  0  0  0  0  0  0  0  0  0  0
    7.7331    0.6872    0.0000 C   0  0  0  0  0  0  0  0  0  0  0  0
    7.7331    1.6872    0.0000 C   0  0  0  0  0  0  0  0  0  0  0  0
   12.1312   -0.8336    0.0000 C   0  0  0  0  0  0  0  0  0  0  0  0
    6.0010    1.6872    0.0000 C   0  0  0  0  0  0  0  0  0  0  0  0
   11.2251    0.7218    0.0000 C   0  0  0  0  0  0  0  0  0  0  0  0
   12.1312    0.2080    0.0000 C   0  0  0  0  0  0  0  0  0  0  0  0
    6.8671    0.1872    0.0000 C   0  0  0  0  0  0  0  0  0  0  0  0
    6.0010    0.6872    0.0000 C   0  0  0  0  0  0  0  0  0  0  0  0
    6.3301   -3.5028    0.0000 H   0  0  0  0  0  0  0  0  0  0  0  0
    8.2700   -4.6228    0.0000 H   0  0  0  0  0  0  0  0  0  0  0  0
   14.3390   -3.1936    0.0000 H   0  0  0  0  0  0  0  0  0  0  0  0
   13.7869   -4.4973    0.0000 H   0  0  0  0  0  0  0  0  0  0  0  0
    6.3301   -3.1228    0.0000 H   0  0  0  0  0  0  0  0  0  0  0  0
    9.1360   -3.5028    0.0000 H   0  0  0  0  0  0  0  0  0  0  0  0
   13.4860   -2.0637    0.0000 H   0  0  0  0  0  0  0  0  0  0  0  0
   12.3819   -4.6711    0.0000 H   0  0  0  0  0  0  0  0  0  0  0  0
    5.6720    5.4972    0.0000 H   0  0  0  0  0  0  0  0  0  0  0  0
    4.2690    5.3072    0.0000 H   0  0  0  0  0  0  0  0  0  0  0  0
    7.1962   -2.0028    0.0000 H   0  0  0  0  0  0  0  0  0  0  0  0
    6.5380    4.3772    0.0000 H   0  0  0  0  0  0  0  0  0  0  0  0
    4.2690    3.0672    0.0000 H   0  0  0  0  0  0  0  0  0  0  0  0
   12.0809   -2.2374    0.0000 H   0  0  0  0  0  0  0  0  0  0  0  0
    6.5380    3.9972    0.0000 H   0  0  0  0  0  0  0  0  0  0  0  0
   10.0757   -4.4205    0.0000 H   0  0  0  0  0  0  0  0  0  0  0  0
    9.6772   -3.7302    0.0000 H   0  0  0  0  0  0  0  0  0  0  0  0
   12.3015   -5.2525    0.0000 H   0  0  0  0  0  0  0  0  0  0  0  0
   12.6920   -5.9474    0.0000 H   0  0  0  0  0  0  0  0  0  0  0  0
    3.0044    2.7122    0.0000 H   0  0  0  0  0  0  0  0  0  0  0  0
    3.8015    2.7122    0.0000 H   0  0  0  0  0  0  0  0  0  0  0  0
    6.0010   -4.9328    0.0000 H   0  0  0  0  0  0  0  0  0  0  0  0
    7.1962   -5.6228    0.0000 H   0  0  0  0  0  0  0  0  0  0  0  0
   15.2107   -2.7037    0.0000 H   0  0  0  0  0  0  0  0  0  0  0  0
   15.1948   -4.0836    0.0000 H   0  0  0  0  0  0  0  0  0  0  0  0
    5.4641   -2.6228    0.0000 H   0  0  0  0  0  0  0  0  0  0  0  0
   13.4975   -1.0637    0.0000 H   0  0  0  0  0  0  0  0  0  0  0  0
    4.5981    6.4972    0.0000 H   0  0  0  0  0  0  0  0  0  0  0  0
    3.4030    5.8072    0.0000 H   0  0  0  0  0  0  0  0  0  0  0  0
    6.8671    5.8072    0.0000 H   0  0  0  0  0  0  0  0  0  0  0  0
    9.4651   -1.9328    0.0000 H   0  0  0  0  0  0  0  0  0  0  0  0
    8.2700    1.9972    0.0000 H   0  0  0  0  0  0  0  0  0  0  0  0
   12.6669   -1.1457    0.0000 H   0  0  0  0  0  0  0  0  0  0  0  0
   10.0021   -5.6228    0.0000 H   0  0  0  0  0  0  0  0  0  0  0  0
   13.7638   -6.4972    0.0000 H   0  0  0  0  0  0  0  0  0  0  0  0
    2.0000    3.3772    0.0000 H   0  0  0  0  0  0  0  0  0  0  0  0
   11.2179    1.3418    0.0000 H   0  0  0  0  0  0  0  0  0  0  0  0
    6.8671   -0.4328    0.0000 H   0  0  0  0  0  0  0  0  0  0  0  0
    5.4641    0.3772    0.0000 H   0  0  0  0  0  0  0  0  0  0  0  0
    4.5981    1.8772    0.0000 H   0  0  0  0  0  0  0  0  0  0  0  0
   12.9929    1.3313    0.0000 H   0  0  0  0  0  0  0  0  0  0  0  0
  1 27  1  0  0  0  0
  1 32  1  0  0  0  0
  2 29  1  0  0  0  0
  2 35  1  0  0  0  0
  3 34  1  0  0  0  0
  3 36  1  0  0  0  0
 32  4  1  6  0  0  0
  4 40  1  0  0  0  0
 35  5  1  1  0  0  0
  5 41  1  0  0  0  0
 22  6  1  6  0  0  0
  6 76  1  0  0  0  0
 23  7  1  1  0  0  0
  7 77  1  0  0  0  0
 24  8  1  1  0  0  0
  8 78  1  0  0  0  0
 25  9  1  6  0  0  0
  9 79  1  0  0  0  0
 36 10  1  6  0  0  0
 10 45  1  0  0  0  0
 26 11  1  1  0  0  0
 11 80  1  0  0  0  0
 28 12  1  6  0  0  0
 12 81  1  0  0  0  0
 30 13  1  6  0  0  0
 13 82  1  0  0  0  0
 31 14  1  1  0  0  0
 14 83  1  0  0  0  0
 33 15  1  1  0  0  0
 15 84  1  0  0  0  0
 16 37  1  0  0  0  0
 16 88  1  0  0  0  0
 17 38  1  0  0  0  0
 17 89  1  0  0  0  0
 18 43  1  0  0  0  0
 18 46  2  0  0  0  0
 19 39  1  0  0  0  0
 19 90  1  0  0  0  0
 20 50  1  0  0  0  0
 20 94  1  0  0  0  0
 21 52  1  0  0  0  0
 21 95  1  0  0  0  0
 22 23  1  0  0  0  0
 22 26  1  0  0  0  0
 22 55  1  0  0  0  0
 23 27  1  0  0  0  0
 23 56  1  0  0  0  0
 24 25  1  0  0  0  0
 24 28  1  0  0  0  0
 24 57  1  0  0  0  0
 25 29  1  0  0  0  0
 25 58  1  0  0  0  0
 26 32  1  0  0  0  0
 26 59  1  0  0  0  0
 27 37  1  6  0  0  0
 27 60  1  0  0  0  0
 28 35  1  0  0  0  0
 28 61  1  0  0  0  0
 29 38  1  1  0  0  0
 29 62  1  0  0  0  0
 30 31  1  0  0  0  0
 30 33  1  0  0  0  0
 30 63  1  0  0  0  0
 31 34  1  0  0  0  0
 31 64  1  0  0  0  0
 32 65  1  0  0  0  0
 33 36  1  0  0  0  0
 33 66  1  0  0  0  0
 34 39  1  6  0  0  0
 34 67  1  0  0  0  0
 35 68  1  0  0  0  0
 36 69  1  0  0  0  0
 37 70  1  0  0  0  0
 37 71  1  0  0  0  0
 38 72  1  0  0  0  0
 38 73  1  0  0  0  0
 39 74  1  0  0  0  0
 39 75  1  0  0  0  0
 40 43  2  0  0  0  0
 40 44  1  0  0  0  0
 41 42  1  0  0  0  0
 41 49  2  0  0  0  0
 42 44  2  0  0  0  0
 42 46  1  0  0  0  0
 43 47  1  0  0  0  0
 44 85  1  0  0  0  0
 45 48  1  0  0  0  0
 45 50  2  0  0  0  0
 46 51  1  0  0  0  0
 47 48  2  0  0  0  0
 47 53  1  0  0  0  0
 48 86  1  0  0  0  0
 49 52  1  0  0  0  0
 49 87  1  0  0  0  0
 50 54  1  0  0  0  0
 51 52  2  0  0  0  0
 51 91  1  0  0  0  0
 53 54  2  0  0  0  0
 53 92  1  0  0  0  0
 54 93  1  0  0  0  0
M  CHG  1  18   1
M  END
> <PUBCHEM_COMPOUND_CID>
441681

> <PUBCHEM_COMPOUND_CANONICALIZED>
1

> <PUBCHEM_CACTVS_COMPLEXITY>
1190

> <PUBCHEM_CACTVS_HBOND_ACCEPTOR>
20

> <PUBCHEM_CACTVS_HBOND_DONOR>
14

> <PUBCHEM_CACTVS_ROTATABLE_BOND>
10

> <PUBCHEM_CACTVS_SUBSKEYS>
AAADcfB8PgAAAAAAAAAAAAAAAAAAAAAAAAA0aJEiAAAAAACR9AAAGgAACAAADBSwmAMwDsAABkCIAqBSAAICCAAkIAAIiAFGiMgdNzaGNR6ieWOl4BUPuYfK7PzOIAABCAAIQABAAAIQABCAAAAAAAAAAA==

> <PUBCHEM_IUPAC_OPENEYE_NAME>
(2S,3R,4S,5S,6R)-2-[7-hydroxy-2-[4-hydroxy-3-[(2S,3R,4S,5S,6R)-3,4,5-trihydroxy-6-(hydroxymethyl)tetrahydropyran-2-yl]oxy-phenyl]-3-[(2S,3R,4S,5S,6R)-3,4,5-trihydroxy-6-(hydroxymethyl)tetrahydropyran-2-yl]oxy-chromenylium-5-yl]oxy-6-(hydroxymethyl)tetrahydropyran-3,4,5-triol

> <PUBCHEM_IUPAC_CAS_NAME>
(2S,3R,4S,5S,6R)-2-[[7-hydroxy-2-[4-hydroxy-3-[[(2S,3R,4S,5S,6R)-3,4,5-trihydroxy-6-(hydroxymethyl)-2-oxanyl]oxy]phenyl]-3-[[(2S,3R,4S,5S,6R)-3,4,5-trihydroxy-6-(hydroxymethyl)-2-oxanyl]oxy]-1-benzopyrylium-5-yl]oxy]-6-(hydroxymethyl)oxane-3,4,5-triol

> <PUBCHEM_IUPAC_NAME>
(2S,3R,4S,5S,6R)-2-[7-hydroxy-2-[4-hydroxy-3-[(2S,3R,4S,5S,6R)-3,4,5-trihydroxy-6-(hydroxymethyl)oxan-2-yl]oxyphenyl]-3-[(2S,3R,4S,5S,6R)-3,4,5-trihydroxy-6-(hydroxymethyl)oxan-2-yl]oxychromenylium-5-yl]oxy-6-(hydroxymethyl)oxane-3,4,5-triol

> <PUBCHEM_IUPAC_SYSTEMATIC_NAME>
(2R,3S,4S,5R,6S)-2-(hydroxymethyl)-6-[3-[(2S,3R,4S,5S,6R)-6-(hydroxymethyl)-3,4,5-tris(oxidanyl)oxan-2-yl]oxy-2-[3-[(2S,3R,4S,5S,6R)-6-(hydroxymethyl)-3,4,5-tris(oxidanyl)oxan-2-yl]oxy-4-oxidanyl-phenyl]-7-oxidanyl-chromenylium-5-yl]oxy-oxane-3,4,5-triol

> <PUBCHEM_IUPAC_TRADITIONAL_NAME>
(2S,3R,4S,5S,6R)-2-[[7-hydroxy-2-[4-hydroxy-3-[(2S,3R,4S,5S,6R)-3,4,5-trihydroxy-6-methylol-tetrahydropyran-2-yl]oxy-phenyl]-3-[(2S,3R,4S,5S,6R)-3,4,5-trihydroxy-6-methylol-tetrahydropyran-2-yl]oxy-1-benzopyrylium-5-yl]oxy]-6-methylol-tetrahydropyran-3,4,5-triol

> <PUBCHEM_IUPAC_INCHI>
InChI=1S/C33H40O21/c34-7-18-21(39)24(42)27(45)31(52-18)49-15-5-11(37)4-14-12(15)6-17(51-33-29(47)26(44)23(41)20(9-36)54-33)30(48-14)10-1-2-13(38)16(3-10)50-32-28(46)25(43)22(40)19(8-35)53-32/h1-6,18-29,31-36,39-47H,7-9H2,(H-,37,38)/p+1/t18-,19-,20-,21-,22-,23-,24+,25+,26+,27-,28-,29-,31-,32-,33-/m1/s1

> <PUBCHEM_IUPAC_INCHIKEY>
ZOEXTKFPTHFWDY-PQFOCHFESA-O

> <PUBCHEM_EXACT_MASS>
773.214033

> <PUBCHEM_MOLECULAR_FORMULA>
C33H41O21+

> <PUBCHEM_MOLECULAR_WEIGHT>
773.66604

> <PUBCHEM_OPENEYE_CAN_SMILES>
C1=CC(=C(C=C1C2=C(C=C3C(=CC(=CC3=[O+]2)O)OC4C(C(C(C(O4)CO)O)O)O)OC5C(C(C(C(O5)CO)O)O)O)OC6C(C(C(C(O6)CO)O)O)O)O

> <PUBCHEM_OPENEYE_ISO_SMILES>
C1=CC(=C(C=C1C2=C(C=C3C(=CC(=CC3=[O+]2)O)O[C@H]4[C@@H]([C@H]([C@@H]([C@H](O4)CO)O)O)O)O[C@H]5[C@@H]([C@H]([C@@H]([C@H](O5)CO)O)O)O)O[C@H]6[C@@H]([C@H]([C@@H]([C@H](O6)CO)O)O)O)O

> <PUBCHEM_CACTVS_TPSA>
340

> <PUBCHEM_MONOISOTOPIC_WEIGHT>
773.214033

> <PUBCHEM_TOTAL_CHARGE>
1

> <PUBCHEM_HEAVY_ATOM_COUNT>
54

> <PUBCHEM_ATOM_DEF_STEREO_COUNT>
15

> <PUBCHEM_ATOM_UDEF_STEREO_COUNT>
0

> <PUBCHEM_BOND_DEF_STEREO_COUNT>
0

> <PUBCHEM_BOND_UDEF_STEREO_COUNT>
0

> <PUBCHEM_ISOTOPIC_ATOM_COUNT>
0

> <PUBCHEM_COMPONENT_COUNT>
1

> <PUBCHEM_CACTVS_TAUTO_COUNT>
23

> <PUBCHEM_COORDINATE_TYPE>
1
5
255

> <PUBCHEM_BONDANNOTATIONS>
36  10  6
26  11  5
28  12  6
30  13  6
31  14  5
33  15  5
18  43  8
18  46  8
27  37  6
29  38  5
34  39  6
32  4  6
40  43  8
40  44  8
41  42  8
41  49  8
42  44  8
42  46  8
45  48  8
45  50  8
46  51  8
47  48  8
47  53  8
49  52  8
35  5  5
50  54  8
51  52  8
53  54  8
22  6  6
23  7  5
24  8  5
25  9  6

$$$$

