5281425
  -OEChem-07051212572D

 50 52  0     1  0  0  0  0  0999 V2000
    5.5022   -2.6775    0.0000 O   0  0  0  0  0  0  0  0  0  0  0  0
    3.7320   -0.6187    0.0000 O   0  0  0  0  0  0  0  0  0  0  0  0
    5.5138    0.3918    0.0000 O   0  0  0  0  0  0  0  0  0  0  0  0
    7.2461    0.3987    0.0000 O   0  0  0  0  0  0  0  0  0  0  0  0
    2.8602   -2.1153    0.0000 O   0  0  0  0  0  0  0  0  0  0  0  0
    3.7818    0.4118    0.0000 O   0  0  0  0  0  0  0  0  0  0  0  0
    8.1403    1.9264    0.0000 O   0  0  0  0  0  0  0  0  0  0  0  0
    4.5961   -2.1637    0.0000 C   0  0  0  0  0  0  0  0  0  0  0  0
    4.5961   -1.1220    0.0000 C   0  0  1  0  0  0  0  0  0  0  0  0
    5.5022   -0.6082    0.0000 C   0  0  1  0  0  0  0  0  0  0  0  0
    6.3961   -1.1428    0.0000 C   0  0  0  0  0  0  0  0  0  0  0  0
    6.3961   -2.1428    0.0000 C   0  0  0  0  0  0  0  0  0  0  0  0
    4.0995   -3.0316    0.0000 C   0  0  0  0  0  0  0  0  0  0  0  0
    3.5961   -2.1675    0.0000 C   0  0  0  0  0  0  0  0  0  0  0  0
    7.2622   -0.6428    0.0000 C   0  0  0  0  0  0  0  0  0  0  0  0
    7.2622   -2.6428    0.0000 C   0  0  0  0  0  0  0  0  0  0  0  0
    8.1282   -1.1428    0.0000 C   0  0  0  0  0  0  0  0  0  0  0  0
    8.1282   -2.1428    0.0000 C   0  0  0  0  0  0  0  0  0  0  0  0
    2.8641   -1.1154    0.0000 C   0  0  0  0  0  0  0  0  0  0  0  0
    4.6536    0.9017    0.0000 C   0  0  0  0  0  0  0  0  0  0  0  0
    9.0382   -0.6360    0.0000 C   0  0  0  0  0  0  0  0  0  0  0  0
    8.1441    0.9264    0.0000 C   0  0  0  0  0  0  0  0  0  0  0  0
    9.0462    0.4056    0.0000 C   0  0  0  0  0  0  0  0  0  0  0  0
    2.0000   -0.6120    0.0000 C   0  0  0  0  0  0  0  0  0  0  0  0
    4.6651    1.9017    0.0000 C   0  0  0  0  0  0  0  0  0  0  0  0
    5.5369    2.3916    0.0000 C   0  0  0  0  0  0  0  0  0  0  0  0
    3.8050    2.4116    0.0000 C   0  0  0  0  0  0  0  0  0  0  0  0
    2.9332    1.9217    0.0000 C   0  0  0  0  0  0  0  0  0  0  0  0
    4.5997   -0.5020    0.0000 H   0  0  0  0  0  0  0  0  0  0  0  0
    4.9683   -0.2930    0.0000 H   0  0  0  0  0  0  0  0  0  0  0  0
    3.5613   -2.7237    0.0000 H   0  0  0  0  0  0  0  0  0  0  0  0
    3.7915   -3.5697    0.0000 H   0  0  0  0  0  0  0  0  0  0  0  0
    4.6376   -3.3395    0.0000 H   0  0  0  0  0  0  0  0  0  0  0  0
    3.5938   -1.5475    0.0000 H   0  0  0  0  0  0  0  0  0  0  0  0
    2.9761   -2.1699    0.0000 H   0  0  0  0  0  0  0  0  0  0  0  0
    3.5985   -2.7875    0.0000 H   0  0  0  0  0  0  0  0  0  0  0  0
    7.2622   -3.2628    0.0000 H   0  0  0  0  0  0  0  0  0  0  0  0
    8.6651   -2.4528    0.0000 H   0  0  0  0  0  0  0  0  0  0  0  0
    9.5715   -0.9522    0.0000 H   0  0  0  0  0  0  0  0  0  0  0  0
    9.5844    0.7135    0.0000 H   0  0  0  0  0  0  0  0  0  0  0  0
    2.3121   -0.0763    0.0000 H   0  0  0  0  0  0  0  0  0  0  0  0
    1.4643   -0.3000    0.0000 H   0  0  0  0  0  0  0  0  0  0  0  0
    1.6879   -1.1478    0.0000 H   0  0  0  0  0  0  0  0  0  0  0  0
    5.8407    1.8511    0.0000 H   0  0  0  0  0  0  0  0  0  0  0  0
    6.0774    2.6954    0.0000 H   0  0  0  0  0  0  0  0  0  0  0  0
    5.2331    2.9321    0.0000 H   0  0  0  0  0  0  0  0  0  0  0  0
    3.8121    3.0316    0.0000 H   0  0  0  0  0  0  0  0  0  0  0  0
    2.6294    2.4622    0.0000 H   0  0  0  0  0  0  0  0  0  0  0  0
    2.3927    1.6179    0.0000 H   0  0  0  0  0  0  0  0  0  0  0  0
    3.2370    1.3812    0.0000 H   0  0  0  0  0  0  0  0  0  0  0  0
  1  8  1  0  0  0  0
  1 12  1  0  0  0  0
  9  2  1  6  0  0  0
  2 19  1  0  0  0  0
 10  3  1  6  0  0  0
  3 20  1  0  0  0  0
  4 15  1  0  0  0  0
  4 22  1  0  0  0  0
  5 19  2  0  0  0  0
  6 20  2  0  0  0  0
  7 22  2  0  0  0  0
  8  9  1  0  0  0  0
  8 13  1  0  0  0  0
  8 14  1  0  0  0  0
  9 10  1  0  0  0  0
  9 29  1  0  0  0  0
 10 11  1  0  0  0  0
 10 30  1  0  0  0  0
 11 12  2  0  0  0  0
 11 15  1  0  0  0  0
 12 16  1  0  0  0  0
 13 31  1  0  0  0  0
 13 32  1  0  0  0  0
 13 33  1  0  0  0  0
 14 34  1  0  0  0  0
 14 35  1  0  0  0  0
 14 36  1  0  0  0  0
 15 17  2  0  0  0  0
 16 18  2  0  0  0  0
 16 37  1  0  0  0  0
 17 18  1  0  0  0  0
 17 21  1  0  0  0  0
 18 38  1  0  0  0  0
 19 24  1  0  0  0  0
 20 25  1  0  0  0  0
 21 23  2  0  0  0  0
 21 39  1  0  0  0  0
 22 23  1  0  0  0  0
 23 40  1  0  0  0  0
 24 41  1  0  0  0  0
 24 42  1  0  0  0  0
 24 43  1  0  0  0  0
 25 26  1  0  0  0  0
 25 27  2  0  0  0  0
 26 44  1  0  0  0  0
 26 45  1  0  0  0  0
 26 46  1  0  0  0  0
 27 28  1  0  0  0  0
 27 47  1  0  0  0  0
 28 48  1  0  0  0  0
 28 49  1  0  0  0  0
 28 50  1  0  0  0  0
M  END
> <PUBCHEM_COMPOUND_CID>
5281425

> <PUBCHEM_COMPOUND_CANONICALIZED>
1

> <PUBCHEM_CACTVS_COMPLEXITY>
720

> <PUBCHEM_CACTVS_HBOND_ACCEPTOR>
7

> <PUBCHEM_CACTVS_HBOND_DONOR>
0

> <PUBCHEM_CACTVS_ROTATABLE_BOND>
5

> <PUBCHEM_CACTVS_SUBSKEYS>
AAADceB4OAAAAAAAAAAAAAAAAAAAAAAAAAA0QIAAAAAAAACRAAAAGgAAAAAADFSgmAIyDoAABACIAiDSCAACCAAgIAAIiAEGCMgNJyKEMRqCOiClwBUKqYfA4PwOIAACCAAIAABAAAQQABAAAAAAAAAAAA==

> <PUBCHEM_IUPAC_OPENEYE_NAME>
[(9R,10R)-9-acetoxy-8,8-dimethyl-2-oxo-9,10-dihydropyrano[2,3-f]chromen-10-yl] (Z)-2-methylbut-2-enoate

> <PUBCHEM_IUPAC_CAS_NAME>
(Z)-2-methyl-2-butenoic acid [(9R,10R)-9-acetyloxy-8,8-dimethyl-2-oxo-9,10-dihydropyrano[2,3-f][1]benzopyran-10-yl] ester

> <PUBCHEM_IUPAC_NAME>
[(9R,10R)-9-acetyloxy-8,8-dimethyl-2-oxo-9,10-dihydropyrano[2,3-f]chromen-10-yl] (Z)-2-methylbut-2-enoate

> <PUBCHEM_IUPAC_SYSTEMATIC_NAME>
[(9R,10R)-9-acetyloxy-8,8-dimethyl-2-oxidanylidene-9,10-dihydropyrano[2,3-f]chromen-10-yl] (Z)-2-methylbut-2-enoate

> <PUBCHEM_IUPAC_TRADITIONAL_NAME>
(Z)-2-methylbut-2-enoic acid [(9R,10R)-9-acetoxy-2-keto-8,8-dimethyl-9,10-dihydropyrano[2,3-f]chromen-10-yl] ester

> <PUBCHEM_IUPAC_INCHI>
InChI=1S/C21H22O7/c1-6-11(2)20(24)27-18-16-14(28-21(4,5)19(18)25-12(3)22)9-7-13-8-10-15(23)26-17(13)16/h6-10,18-19H,1-5H3/b11-6-/t18-,19-/m1/s1

> <PUBCHEM_IUPAC_INCHIKEY>
LYUZYPKZQDYMEE-YRCPKEQFSA-N

> <PUBCHEM_XLOGP3_AA>
3.1

> <PUBCHEM_EXACT_MASS>
386.136553

> <PUBCHEM_MOLECULAR_FORMULA>
C21H22O7

> <PUBCHEM_MOLECULAR_WEIGHT>
386.39518

> <PUBCHEM_OPENEYE_CAN_SMILES>
CC=C(C)C(=O)OC1C(C(OC2=C1C3=C(C=C2)C=CC(=O)O3)(C)C)OC(=O)C

> <PUBCHEM_OPENEYE_ISO_SMILES>
C/C=C(/C)\C(=O)O[C@H]1[C@H](C(OC2=C1C3=C(C=C2)C=CC(=O)O3)(C)C)OC(=O)C

> <PUBCHEM_CACTVS_TPSA>
88.1

> <PUBCHEM_MONOISOTOPIC_WEIGHT>
386.136553

> <PUBCHEM_TOTAL_CHARGE>
0

> <PUBCHEM_HEAVY_ATOM_COUNT>
28

> <PUBCHEM_ATOM_DEF_STEREO_COUNT>
2

> <PUBCHEM_ATOM_UDEF_STEREO_COUNT>
0

> <PUBCHEM_BOND_DEF_STEREO_COUNT>
1

> <PUBCHEM_BOND_UDEF_STEREO_COUNT>
0

> <PUBCHEM_ISOTOPIC_ATOM_COUNT>
0

> <PUBCHEM_COMPONENT_COUNT>
1

> <PUBCHEM_CACTVS_TAUTO_COUNT>
1

> <PUBCHEM_COORDINATE_TYPE>
1
5
255

> <PUBCHEM_BONDANNOTATIONS>
11  12  8
11  15  8
12  16  8
15  17  8
16  18  8
17  18  8
17  21  8
9  2  6
21  23  8
22  23  8
10  3  6
4  15  8
4  22  8

$$$$

