4553
  -OEChem-06261200122D

 39 40  0     0  0  0  0  0  0999 V2000
    7.1962    2.0670    0.0000 S   0  0  0  0  0  0  0  0  0  0  0  0
    4.5981    0.5670    0.0000 O   0  0  0  0  0  0  0  0  0  0  0  0
    6.6962    2.9330    0.0000 O   0  0  0  0  0  0  0  0  0  0  0  0
    7.6962    1.2010    0.0000 O   0  0  0  0  0  0  0  0  0  0  0  0
    7.1962   -2.9330    0.0000 O   0  5  0  0  0  0  0  0  0  0  0  0
    5.4641   -2.9330    0.0000 O   0  0  0  0  0  0  0  0  0  0  0  0
    6.3301    1.5670    0.0000 N   0  0  0  0  0  0  0  0  0  0  0  0
    6.3301   -2.4330    0.0000 N   0  3  0  0  0  0  0  0  0  0  0  0
    3.7320    0.0670    0.0000 C   0  0  0  0  0  0  0  0  0  0  0  0
    2.8660    0.5670    0.0000 C   0  0  0  0  0  0  0  0  0  0  0  0
    3.7320   -0.9330    0.0000 C   0  0  0  0  0  0  0  0  0  0  0  0
    2.0000    0.0670    0.0000 C   0  0  0  0  0  0  0  0  0  0  0  0
    2.8660   -1.4330    0.0000 C   0  0  0  0  0  0  0  0  0  0  0  0
    2.0000   -0.9330    0.0000 C   0  0  0  0  0  0  0  0  0  0  0  0
    5.4641    0.0670    0.0000 C   0  0  0  0  0  0  0  0  0  0  0  0
    6.3301    0.5670    0.0000 C   0  0  0  0  0  0  0  0  0  0  0  0
    5.4641   -0.9330    0.0000 C   0  0  0  0  0  0  0  0  0  0  0  0
    7.1962    0.0670    0.0000 C   0  0  0  0  0  0  0  0  0  0  0  0
    6.3301   -1.4330    0.0000 C   0  0  0  0  0  0  0  0  0  0  0  0
    7.1962   -0.9330    0.0000 C   0  0  0  0  0  0  0  0  0  0  0  0
    8.0622    2.5670    0.0000 C   0  0  0  0  0  0  0  0  0  0  0  0
    3.7320    0.6870    0.0000 H   0  0  0  0  0  0  0  0  0  0  0  0
    3.9441   -1.5156    0.0000 H   0  0  0  0  0  0  0  0  0  0  0  0
    4.3426   -0.8254    0.0000 H   0  0  0  0  0  0  0  0  0  0  0  0
    3.2646    1.0419    0.0000 H   0  0  0  0  0  0  0  0  0  0  0  0
    2.4675    1.0419    0.0000 H   0  0  0  0  0  0  0  0  0  0  0  0
    2.4675   -1.9080    0.0000 H   0  0  0  0  0  0  0  0  0  0  0  0
    3.2646   -1.9080    0.0000 H   0  0  0  0  0  0  0  0  0  0  0  0
    1.7880    0.6496    0.0000 H   0  0  0  0  0  0  0  0  0  0  0  0
    1.3894   -0.0407    0.0000 H   0  0  0  0  0  0  0  0  0  0  0  0
    1.3894   -0.8254    0.0000 H   0  0  0  0  0  0  0  0  0  0  0  0
    1.7880   -1.5156    0.0000 H   0  0  0  0  0  0  0  0  0  0  0  0
    4.9272   -1.2430    0.0000 H   0  0  0  0  0  0  0  0  0  0  0  0
    7.7331    0.3770    0.0000 H   0  0  0  0  0  0  0  0  0  0  0  0
    5.7932    1.8770    0.0000 H   0  0  0  0  0  0  0  0  0  0  0  0
    7.7331   -1.2430    0.0000 H   0  0  0  0  0  0  0  0  0  0  0  0
    8.3722    2.0300    0.0000 H   0  0  0  0  0  0  0  0  0  0  0  0
    8.5991    2.8770    0.0000 H   0  0  0  0  0  0  0  0  0  0  0  0
    7.7522    3.1039    0.0000 H   0  0  0  0  0  0  0  0  0  0  0  0
  1  3  2  0  0  0  0
  1  4  2  0  0  0  0
  1  7  1  0  0  0  0
  1 21  1  0  0  0  0
  2  9  1  0  0  0  0
  2 15  1  0  0  0  0
  5  8  1  0  0  0  0
  6  8  2  0  0  0  0
  7 16  1  0  0  0  0
  7 35  1  0  0  0  0
  8 19  1  0  0  0  0
  9 10  1  0  0  0  0
  9 11  1  0  0  0  0
  9 22  1  0  0  0  0
 10 12  1  0  0  0  0
 10 25  1  0  0  0  0
 10 26  1  0  0  0  0
 11 13  1  0  0  0  0
 11 23  1  0  0  0  0
 11 24  1  0  0  0  0
 12 14  1  0  0  0  0
 12 29  1  0  0  0  0
 12 30  1  0  0  0  0
 13 14  1  0  0  0  0
 13 27  1  0  0  0  0
 13 28  1  0  0  0  0
 14 31  1  0  0  0  0
 14 32  1  0  0  0  0
 15 16  2  0  0  0  0
 15 17  1  0  0  0  0
 16 18  1  0  0  0  0
 17 19  2  0  0  0  0
 17 33  1  0  0  0  0
 18 20  2  0  0  0  0
 18 34  1  0  0  0  0
 19 20  1  0  0  0  0
 20 36  1  0  0  0  0
 21 37  1  0  0  0  0
 21 38  1  0  0  0  0
 21 39  1  0  0  0  0
M  CHG  2   5  -1   8   1
M  END
> <PUBCHEM_COMPOUND_CID>
4553

> <PUBCHEM_COMPOUND_CANONICALIZED>
1

> <PUBCHEM_CACTVS_COMPLEXITY>
450

> <PUBCHEM_CACTVS_HBOND_ACCEPTOR>
6

> <PUBCHEM_CACTVS_HBOND_DONOR>
1

> <PUBCHEM_CACTVS_ROTATABLE_BOND>
4

> <PUBCHEM_CACTVS_SUBSKEYS>
AAADceBzOABAAAAAAAAAAAAAAAAAAAAAAAAwYAAAAAAAAAABAAAAHgQUQAAACByhkAKyxoBQRAKBACRCQ3CCCAAgIgAoiAAHbIoOJiKEsZuDOCDm0BkI6AeQUAEAAACAAgAAEAAAAQAEAAAgAAAAAAAAAA==

> <PUBCHEM_IUPAC_OPENEYE_NAME>
N-[2-(cyclohexoxy)-4-nitro-phenyl]methanesulfonamide

> <PUBCHEM_IUPAC_CAS_NAME>
N-(2-cyclohexyloxy-4-nitrophenyl)methanesulfonamide

> <PUBCHEM_IUPAC_NAME>
N-(2-cyclohexyloxy-4-nitrophenyl)methanesulfonamide

> <PUBCHEM_IUPAC_SYSTEMATIC_NAME>
N-(2-cyclohexyloxy-4-nitro-phenyl)methanesulfonamide

> <PUBCHEM_IUPAC_TRADITIONAL_NAME>
N-[2-(cyclohexoxy)-4-nitro-phenyl]methanesulfonamide

> <PUBCHEM_IUPAC_INCHI>
InChI=1S/C13H18N2O5S/c1-21(18,19)14-12-8-7-10(15(16)17)9-13(12)20-11-5-3-2-4-6-11/h7-9,11,14H,2-6H2,1H3

> <PUBCHEM_IUPAC_INCHIKEY>
KTDZCOWXCWUPEO-UHFFFAOYSA-N

> <PUBCHEM_XLOGP3>
2.9

> <PUBCHEM_EXACT_MASS>
314.093643

> <PUBCHEM_MOLECULAR_FORMULA>
C13H18N2O5S

> <PUBCHEM_MOLECULAR_WEIGHT>
314.35742

> <PUBCHEM_OPENEYE_CAN_SMILES>
CS(=O)(=O)NC1=C(C=C(C=C1)[N+](=O)[O-])OC2CCCCC2

> <PUBCHEM_OPENEYE_ISO_SMILES>
CS(=O)(=O)NC1=C(C=C(C=C1)[N+](=O)[O-])OC2CCCCC2

> <PUBCHEM_CACTVS_TPSA>
110

> <PUBCHEM_MONOISOTOPIC_WEIGHT>
314.093643

> <PUBCHEM_TOTAL_CHARGE>
0

> <PUBCHEM_HEAVY_ATOM_COUNT>
21

> <PUBCHEM_ATOM_DEF_STEREO_COUNT>
0

> <PUBCHEM_ATOM_UDEF_STEREO_COUNT>
0

> <PUBCHEM_BOND_DEF_STEREO_COUNT>
0

> <PUBCHEM_BOND_UDEF_STEREO_COUNT>
0

> <PUBCHEM_ISOTOPIC_ATOM_COUNT>
0

> <PUBCHEM_COMPONENT_COUNT>
1

> <PUBCHEM_CACTVS_TAUTO_COUNT>
1

> <PUBCHEM_COORDINATE_TYPE>
1
5
255

> <PUBCHEM_BONDANNOTATIONS>
15  16  8
15  17  8
16  18  8
17  19  8
18  20  8
19  20  8

$$$$

