17395926
  -OEChem-06241222532D

 41 43  0     0  0  0  0  0  0999 V2000
    5.4071    0.2935    0.0000 S   0  0  0  0  0  0  0  0  0  0  0  0
    2.8660   -1.2942    0.0000 O   0  0  0  0  0  0  0  0  0  0  0  0
    3.5103    2.0536    0.0000 O   0  0  0  0  0  0  0  0  0  0  0  0
    3.7891    0.2935    0.0000 N   0  0  0  0  0  0  0  0  0  0  0  0
    3.7320   -2.7942    0.0000 C   0  0  0  0  0  0  0  0  0  0  0  0
    4.5981   -4.2942    0.0000 C   0  0  0  0  0  0  0  0  0  0  0  0
    2.8660   -4.2942    0.0000 C   0  0  0  0  0  0  0  0  0  0  0  0
    2.8660   -3.2942    0.0000 C   0  0  0  0  0  0  0  0  0  0  0  0
    4.5981   -3.2942    0.0000 C   0  0  0  0  0  0  0  0  0  0  0  0
    3.7320   -4.7942    0.0000 C   0  0  0  0  0  0  0  0  0  0  0  0
    3.7320   -1.7942    0.0000 C   0  0  0  0  0  0  0  0  0  0  0  0
    4.5981   -0.2942    0.0000 C   0  0  0  0  0  0  0  0  0  0  0  0
    5.0981    1.2446    0.0000 C   0  0  0  0  0  0  0  0  0  0  0  0
    4.5981   -1.2942    0.0000 C   0  0  0  0  0  0  0  0  0  0  0  0
    5.4641   -4.7942    0.0000 C   0  0  0  0  0  0  0  0  0  0  0  0
    2.0000   -4.7942    0.0000 C   0  0  0  0  0  0  0  0  0  0  0  0
    4.0981    1.2446    0.0000 C   0  0  0  0  0  0  0  0  0  0  0  0
    5.6859    2.0536    0.0000 C   0  0  0  0  0  0  0  0  0  0  0  0
    5.2791    2.9672    0.0000 C   0  0  0  0  0  0  0  0  0  0  0  0
    5.8669    3.7762    0.0000 C   0  0  0  0  0  0  0  0  0  0  0  0
    4.2846    3.0717    0.0000 C   0  0  0  0  0  0  0  0  0  0  0  0
    5.4602    4.6897    0.0000 C   0  0  0  0  0  0  0  0  0  0  0  0
    3.8779    3.9852    0.0000 C   0  0  0  0  0  0  0  0  0  0  0  0
    4.4656    4.7942    0.0000 C   0  0  0  0  0  0  0  0  0  0  0  0
    2.3291   -2.9842    0.0000 H   0  0  0  0  0  0  0  0  0  0  0  0
    5.1350   -2.9842    0.0000 H   0  0  0  0  0  0  0  0  0  0  0  0
    3.7320   -5.4142    0.0000 H   0  0  0  0  0  0  0  0  0  0  0  0
    5.1350   -1.6042    0.0000 H   0  0  0  0  0  0  0  0  0  0  0  0
    5.1541   -5.3312    0.0000 H   0  0  0  0  0  0  0  0  0  0  0  0
    6.0010   -5.1043    0.0000 H   0  0  0  0  0  0  0  0  0  0  0  0
    5.7741   -4.2573    0.0000 H   0  0  0  0  0  0  0  0  0  0  0  0
    1.6900   -4.2573    0.0000 H   0  0  0  0  0  0  0  0  0  0  0  0
    1.4631   -5.1043    0.0000 H   0  0  0  0  0  0  0  0  0  0  0  0
    2.3100   -5.3312    0.0000 H   0  0  0  0  0  0  0  0  0  0  0  0
    3.1994    0.1019    0.0000 H   0  0  0  0  0  0  0  0  0  0  0  0
    6.3025    1.9888    0.0000 H   0  0  0  0  0  0  0  0  0  0  0  0
    6.4835    3.7114    0.0000 H   0  0  0  0  0  0  0  0  0  0  0  0
    3.9202    2.5701    0.0000 H   0  0  0  0  0  0  0  0  0  0  0  0
    5.8246    5.1913    0.0000 H   0  0  0  0  0  0  0  0  0  0  0  0
    3.2613    4.0500    0.0000 H   0  0  0  0  0  0  0  0  0  0  0  0
    4.2135    5.3606    0.0000 H   0  0  0  0  0  0  0  0  0  0  0  0
  1 12  1  0  0  0  0
  1 13  1  0  0  0  0
  2 11  2  0  0  0  0
  3 17  2  0  0  0  0
  4 12  1  0  0  0  0
  4 17  1  0  0  0  0
  4 35  1  0  0  0  0
  5  8  2  0  0  0  0
  5  9  1  0  0  0  0
  5 11  1  0  0  0  0
  6  9  2  0  0  0  0
  6 10  1  0  0  0  0
  6 15  1  0  0  0  0
  7  8  1  0  0  0  0
  7 10  2  0  0  0  0
  7 16  1  0  0  0  0
  8 25  1  0  0  0  0
  9 26  1  0  0  0  0
 10 27  1  0  0  0  0
 11 14  1  0  0  0  0
 12 14  2  0  0  0  0
 13 17  1  0  0  0  0
 13 18  2  0  0  0  0
 14 28  1  0  0  0  0
 15 29  1  0  0  0  0
 15 30  1  0  0  0  0
 15 31  1  0  0  0  0
 16 32  1  0  0  0  0
 16 33  1  0  0  0  0
 16 34  1  0  0  0  0
 18 19  1  0  0  0  0
 18 36  1  0  0  0  0
 19 20  2  0  0  0  0
 19 21  1  0  0  0  0
 20 22  1  0  0  0  0
 20 37  1  0  0  0  0
 21 23  2  0  0  0  0
 21 38  1  0  0  0  0
 22 24  2  0  0  0  0
 22 39  1  0  0  0  0
 23 24  1  0  0  0  0
 23 40  1  0  0  0  0
 24 41  1  0  0  0  0
M  END
> <PUBCHEM_COMPOUND_CID>
17395926

> <PUBCHEM_COMPOUND_CANONICALIZED>
1

> <PUBCHEM_CACTVS_COMPLEXITY>
550

> <PUBCHEM_CACTVS_HBOND_ACCEPTOR>
3

> <PUBCHEM_CACTVS_HBOND_DONOR>
1

> <PUBCHEM_CACTVS_ROTATABLE_BOND>
3

> <PUBCHEM_CACTVS_SUBSKEYS>
AAADceB6MABAAAAAAAAAAAAAAAAAAWAAAAAwYAAAAAAAAAABQAAAHgQQAAAADASB2AAyAILAAAiIAqFSUACCAABkAhAIiAEAAMgIIDKAFRCAIQAggAAIiccIiMCOAAACAAAAAAAAAAQAAAAAAAAAAAAAAA==

> <PUBCHEM_IUPAC_OPENEYE_NAME>
(2E,5E)-5-benzylidene-2-[2-(3,5-dimethylphenyl)-2-oxo-ethylidene]thiazolidin-4-one

> <PUBCHEM_IUPAC_CAS_NAME>
(2E,5E)-2-[2-(3,5-dimethylphenyl)-2-oxoethylidene]-5-(phenylmethylene)-4-thiazolidinone

> <PUBCHEM_IUPAC_NAME>
(2E,5E)-5-benzylidene-2-[2-(3,5-dimethylphenyl)-2-oxoethylidene]-1,3-thiazolidin-4-one

> <PUBCHEM_IUPAC_SYSTEMATIC_NAME>
(2E,5E)-2-[2-(3,5-dimethylphenyl)-2-oxidanylidene-ethylidene]-5-(phenylmethylidene)-1,3-thiazolidin-4-one

> <PUBCHEM_IUPAC_TRADITIONAL_NAME>
(2E,5E)-5-benzal-2-[2-(3,5-dimethylphenyl)-2-keto-ethylidene]thiazolidin-4-one

> <PUBCHEM_IUPAC_INCHI>
InChI=1S/C20H17NO2S/c1-13-8-14(2)10-16(9-13)17(22)12-19-21-20(23)18(24-19)11-15-6-4-3-5-7-15/h3-12H,1-2H3,(H,21,23)/b18-11+,19-12+

> <PUBCHEM_IUPAC_INCHIKEY>
LCUPNKVBSZJPEN-GDAWTGGTSA-N

> <PUBCHEM_XLOGP3_AA>
4.4

> <PUBCHEM_EXACT_MASS>
335.098

> <PUBCHEM_MOLECULAR_FORMULA>
C20H17NO2S

> <PUBCHEM_MOLECULAR_WEIGHT>
335.41948

> <PUBCHEM_OPENEYE_CAN_SMILES>
CC1=CC(=CC(=C1)C(=O)C=C2NC(=O)C(=CC3=CC=CC=C3)S2)C

> <PUBCHEM_OPENEYE_ISO_SMILES>
CC1=CC(=CC(=C1)C(=O)/C=C/2\NC(=O)/C(=C\C3=CC=CC=C3)/S2)C

> <PUBCHEM_CACTVS_TPSA>
71.5

> <PUBCHEM_MONOISOTOPIC_WEIGHT>
335.098

> <PUBCHEM_TOTAL_CHARGE>
0

> <PUBCHEM_HEAVY_ATOM_COUNT>
24

> <PUBCHEM_ATOM_DEF_STEREO_COUNT>
0

> <PUBCHEM_ATOM_UDEF_STEREO_COUNT>
0

> <PUBCHEM_BOND_DEF_STEREO_COUNT>
2

> <PUBCHEM_BOND_UDEF_STEREO_COUNT>
0

> <PUBCHEM_ISOTOPIC_ATOM_COUNT>
0

> <PUBCHEM_COMPONENT_COUNT>
1

> <PUBCHEM_CACTVS_TAUTO_COUNT>
4

> <PUBCHEM_COORDINATE_TYPE>
1
5
255

> <PUBCHEM_BONDANNOTATIONS>
1  12  8
1  13  8
13  17  8
19  20  8
19  21  8
20  22  8
21  23  8
22  24  8
23  24  8
4  12  8
4  17  8
5  8  8
5  9  8
6  10  8
6  9  8
7  10  8
7  8  8

$$$$

