   Color/Form
        Yellow crystals from concentrated aqueous solutions. Alkaline
   solns turn from yellow to orange.
   from [1]HSDB

   Melting Point
        Decomposes at 223-225 deg C (Softens at 194 deg C).
   from [2]HSDB

   Dissociation Constants
        pKa = 4.62 at 25 deg C
   from [3]HSDB

   Octanol/Water Partition Coefficient
        log Kow = 1.15
   from [4]HSDB

   Solubilities
        Sparingly soluble in cold water. Freely soluble in hot water, cold
   alcohol.
   from [5]HSDB

   Spectral Properties
        Observed light absorption wavelengths = 265 nm, 325 nm, and 442
   nm.
   from [6]HSDB

   Other Chemical/Physical Properties
        Colorless needles from water, mp 152-153 deg C /Methyl ester/
   from [7]HSDB

   Computed Properties
   Molecular Weight                  180.15742 [g/mol]
   Molecular Formula                 C[9]H[8]O[4]
   XLogP3                            1.2
   H-Bond Donor                      3
   H-Bond Acceptor                   4
   Rotatable Bond Count              2
   Tautomer Count                    16
   Exact Mass                        180.042259
   MonoIsotopic Mass                 180.042259
   Topological Polar Surface Area    77.8
   Heavy Atom Count                  13
   Formal Charge                     0
   Complexity                        212
   Isotope Atom Count                0
   Defined Atom Stereocenter Count   0
   Undefined Atom Stereocenter Count 0
   Defined Bond Stereocenter Count   1
   Undefined Bond Stereocenter Count 0
   Covalently-Bonded Unit Count      1
   Feature 3D Acceptor Count         2
   Feature 3D Donor Count            2
   Feature 3D Anion Count            1
   Feature 3D Ring Count             1
   Effective Rotor Count             2
   Conformer Sampling RMSD           0.6
   CID Conformer Count               [8]2

References

   1. http://toxnet.nlm.nih.gov/cgi-bin/sis/search/r?dbs+hsdb:@term+@rn+@rel+331-39-5
   2. http://toxnet.nlm.nih.gov/cgi-bin/sis/search/r?dbs+hsdb:@term+@rn+@rel+331-39-5
   3. http://toxnet.nlm.nih.gov/cgi-bin/sis/search/r?dbs+hsdb:@term+@rn+@rel+331-39-5
   4. http://toxnet.nlm.nih.gov/cgi-bin/sis/search/r?dbs+hsdb:@term+@rn+@rel+331-39-5
   5. http://toxnet.nlm.nih.gov/cgi-bin/sis/search/r?dbs+hsdb:@term+@rn+@rel+331-39-5
   6. http://toxnet.nlm.nih.gov/cgi-bin/sis/search/r?dbs+hsdb:@term+@rn+@rel+331-39-5
   7. http://toxnet.nlm.nih.gov/cgi-bin/sis/search/r?dbs+hsdb:@term+@rn+@rel+331-39-5
   8. http://pubchem.ncbi.nlm.nih.gov/vw3d/vw3d.cgi?cid=689043
