443030
  -OEChem-07051213002D

 54 58  0     1  0  0  0  0  0999 V2000
   11.0514   -0.5796    0.0000 O   0  0  0  0  0  0  0  0  0  0  0  0
    8.8862   -2.8420    0.0000 O   0  0  0  0  0  0  0  0  0  0  0  0
    7.6125   -1.6683    0.0000 O   0  0  0  0  0  0  0  0  0  0  0  0
    2.9788    3.5774    0.0000 O   0  0  0  0  0  0  0  0  0  0  0  0
    8.2919    1.8479    0.0000 N   0  0  3  0  0  0  0  0  0  0  0  0
    5.8389    0.7304    0.0000 N   0  0  0  0  0  0  0  0  0  0  0  0
    9.6435    0.6589    0.0000 C   0  0  2  0  0  0  0  0  0  0  0  0
    8.9465   -0.1152    0.0000 C   0  0  2  0  0  0  0  0  0  0  0  0
    7.6228    1.1047    0.0000 C   0  0  1  0  0  0  0  0  0  0  0  0
    7.9294    0.1092    0.0000 C   0  0  0  0  0  0  0  0  0  0  0  0
    9.3140    1.6470    0.0000 C   0  0  0  0  0  0  0  0  0  0  0  0
   10.7081    0.4497    0.0000 C   0  0  2  0  0  0  0  0  0  0  0  0
    6.6446    1.3126    0.0000 C   0  0  0  0  0  0  0  0  0  0  0  0
    7.9829    2.7989    0.0000 C   0  0  0  0  0  0  0  0  0  0  0  0
    6.3356    2.2637    0.0000 C   0  0  0  0  0  0  0  0  0  0  0  0
    7.0048    3.0068    0.0000 C   0  0  0  0  0  0  0  0  0  0  0  0
    9.2659   -1.1521    0.0000 C   0  0  0  0  0  0  0  0  0  0  0  0
    5.3416    2.2611    0.0000 C   0  0  0  0  0  0  0  0  0  0  0  0
   11.3686    1.2005    0.0000 C   0  0  0  0  0  0  0  0  0  0  0  0
   10.3254   -1.3859    0.0000 C   0  0  0  0  0  0  0  0  0  0  0  0
    5.0352    1.3154    0.0000 C   0  0  0  0  0  0  0  0  0  0  0  0
    8.5882   -1.8875    0.0000 C   0  0  0  0  0  0  0  0  0  0  0  0
    4.6600    3.0406    0.0000 C   0  0  0  0  0  0  0  0  0  0  0  0
    4.0260    1.0837    0.0000 C   0  0  0  0  0  0  0  0  0  0  0  0
    3.6457    2.8323    0.0000 C   0  0  0  0  0  0  0  0  0  0  0  0
    3.3266    1.8472    0.0000 C   0  0  0  0  0  0  0  0  0  0  0  0
    8.2085   -3.5774    0.0000 C   0  0  0  0  0  0  0  0  0  0  0  0
    2.0000    3.3724    0.0000 C   0  0  0  0  0  0  0  0  0  0  0  0
   10.2049    1.2971    0.0000 H   0  0  0  0  0  0  0  0  0  0  0  0
    8.3705   -0.7402    0.0000 H   0  0  0  0  0  0  0  0  0  0  0  0
    7.0492    0.4775    0.0000 H   0  0  0  0  0  0  0  0  0  0  0  0
    7.3143    0.0308    0.0000 H   0  0  0  0  0  0  0  0  0  0  0  0
    7.9014   -0.5101    0.0000 H   0  0  0  0  0  0  0  0  0  0  0  0
    9.9270    1.7396    0.0000 H   0  0  0  0  0  0  0  0  0  0  0  0
    9.3277    2.2669    0.0000 H   0  0  0  0  0  0  0  0  0  0  0  0
   11.3158    0.3266    0.0000 H   0  0  0  0  0  0  0  0  0  0  0  0
    8.5969    2.8852    0.0000 H   0  0  0  0  0  0  0  0  0  0  0  0
    8.0045    3.4186    0.0000 H   0  0  0  0  0  0  0  0  0  0  0  0
    7.2370    3.5817    0.0000 H   0  0  0  0  0  0  0  0  0  0  0  0
    6.4790    3.3354    0.0000 H   0  0  0  0  0  0  0  0  0  0  0  0
    5.8378    0.1104    0.0000 H   0  0  0  0  0  0  0  0  0  0  0  0
   11.8342    0.7910    0.0000 H   0  0  0  0  0  0  0  0  0  0  0  0
   11.7781    1.6660    0.0000 H   0  0  0  0  0  0  0  0  0  0  0  0
   10.9031    1.6100    0.0000 H   0  0  0  0  0  0  0  0  0  0  0  0
   10.5147   -1.9763    0.0000 H   0  0  0  0  0  0  0  0  0  0  0  0
    4.8578    3.6282    0.0000 H   0  0  0  0  0  0  0  0  0  0  0  0
    3.8417    0.4917    0.0000 H   0  0  0  0  0  0  0  0  0  0  0  0
    2.7207    1.7154    0.0000 H   0  0  0  0  0  0  0  0  0  0  0  0
    7.7526   -3.1572    0.0000 H   0  0  0  0  0  0  0  0  0  0  0  0
    7.7883   -4.0333    0.0000 H   0  0  0  0  0  0  0  0  0  0  0  0
    8.6644   -3.9976    0.0000 H   0  0  0  0  0  0  0  0  0  0  0  0
    1.8729    3.9792    0.0000 H   0  0  0  0  0  0  0  0  0  0  0  0
    1.3932    3.2453    0.0000 H   0  0  0  0  0  0  0  0  0  0  0  0
    2.1271    2.7656    0.0000 H   0  0  0  0  0  0  0  0  0  0  0  0
  1 12  1  0  0  0  0
  1 20  1  0  0  0  0
  2 22  1  0  0  0  0
  2 27  1  0  0  0  0
  3 22  2  0  0  0  0
  4 25  1  0  0  0  0
  4 28  1  0  0  0  0
  5  9  1  0  0  0  0
  5 11  1  0  0  0  0
  5 14  1  0  0  0  0
  6 13  1  0  0  0  0
  6 21  1  0  0  0  0
  6 41  1  0  0  0  0
  7  8  1  0  0  0  0
  7 11  1  0  0  0  0
  7 12  1  0  0  0  0
  7 29  1  1  0  0  0
  8 10  1  0  0  0  0
  8 17  1  0  0  0  0
  8 30  1  6  0  0  0
  9 10  1  0  0  0  0
  9 13  1  0  0  0  0
  9 31  1  6  0  0  0
 10 32  1  0  0  0  0
 10 33  1  0  0  0  0
 11 34  1  0  0  0  0
 11 35  1  0  0  0  0
 12 19  1  6  0  0  0
 12 36  1  0  0  0  0
 13 15  2  0  0  0  0
 14 16  1  0  0  0  0
 14 37  1  0  0  0  0
 14 38  1  0  0  0  0
 15 16  1  0  0  0  0
 15 18  1  0  0  0  0
 16 39  1  0  0  0  0
 16 40  1  0  0  0  0
 17 20  2  0  0  0  0
 17 22  1  0  0  0  0
 18 21  2  0  0  0  0
 18 23  1  0  0  0  0
 19 42  1  0  0  0  0
 19 43  1  0  0  0  0
 19 44  1  0  0  0  0
 20 45  1  0  0  0  0
 21 24  1  0  0  0  0
 23 25  2  0  0  0  0
 23 46  1  0  0  0  0
 24 26  2  0  0  0  0
 24 47  1  0  0  0  0
 25 26  1  0  0  0  0
 26 48  1  0  0  0  0
 27 49  1  0  0  0  0
 27 50  1  0  0  0  0
 27 51  1  0  0  0  0
 28 52  1  0  0  0  0
 28 53  1  0  0  0  0
 28 54  1  0  0  0  0
M  END
> <PUBCHEM_COMPOUND_CID>
443030

> <PUBCHEM_COMPOUND_CANONICALIZED>
1

> <PUBCHEM_CACTVS_COMPLEXITY>
652

> <PUBCHEM_CACTVS_HBOND_ACCEPTOR>
5

> <PUBCHEM_CACTVS_HBOND_DONOR>
1

> <PUBCHEM_CACTVS_ROTATABLE_BOND>
3

> <PUBCHEM_CACTVS_SUBSKEYS>
AAADceB7OAAAAAAAAAAAAAAAAAAAAWAAAAA8WIEAAAAAAFix8AAAHgAQAAAADTzhngYyzvPJlACoAyTyTACCiCAhIiAImSE+bNgMZvLEsZuUMChm0BHI6Ie4/f/egEABAAACAAAAgAIAAAQAAAAAAAAAAA==

> <PUBCHEM_IUPAC_INCHI>
InChI=1S/C22H26N2O4/c1-12-17-10-24-7-6-14-16-8-13(26-2)4-5-19(16)23-21(14)20(24)9-15(17)18(11-28-12)22(25)27-3/h4-5,8,11-12,15,17,20,23H,6-7,9-10H2,1-3H3/t12-,15-,17+,20-/m0/s1

> <PUBCHEM_IUPAC_INCHIKEY>
DTDADHMBRZKXSC-IEGSVRCHSA-N

> <PUBCHEM_XLOGP3_AA>
2.7

> <PUBCHEM_EXACT_MASS>
382.189257

> <PUBCHEM_MOLECULAR_FORMULA>
C22H26N2O4

> <PUBCHEM_MOLECULAR_WEIGHT>
382.45284

> <PUBCHEM_OPENEYE_CAN_SMILES>
CC1C2CN3CCC4=C(C3CC2C(=CO1)C(=O)OC)NC5=C4C=C(C=C5)OC

> <PUBCHEM_OPENEYE_ISO_SMILES>
C[C@H]1[C@H]2CN3CCC4=C([C@@H]3C[C@@H]2C(=CO1)C(=O)OC)NC5=C4C=C(C=C5)OC

> <PUBCHEM_CACTVS_TPSA>
63.8

> <PUBCHEM_MONOISOTOPIC_WEIGHT>
382.189257

> <PUBCHEM_TOTAL_CHARGE>
0

> <PUBCHEM_HEAVY_ATOM_COUNT>
28

> <PUBCHEM_ATOM_DEF_STEREO_COUNT>
4

> <PUBCHEM_ATOM_UDEF_STEREO_COUNT>
0

> <PUBCHEM_BOND_DEF_STEREO_COUNT>
0

> <PUBCHEM_BOND_UDEF_STEREO_COUNT>
0

> <PUBCHEM_ISOTOPIC_ATOM_COUNT>
0

> <PUBCHEM_COMPONENT_COUNT>
1

> <PUBCHEM_CACTVS_TAUTO_COUNT>
1

> <PUBCHEM_COORDINATE_TYPE>
1
5
255

> <PUBCHEM_BONDANNOTATIONS>
12  19  6
13  15  8
15  18  8
18  21  8
18  23  8
21  24  8
23  25  8
24  26  8
25  26  8
6  13  8
6  21  8
7  29  5
8  30  6
9  31  6

$$$$

