   Color/Form

     * A COLORLESS LIQUID
     * Colorless liquid.

   from [1]HSDB

   Odor

     * PUNGENT
     * SLIGHTLY SWEETISH
     * Slightly sweet odor.

   from [2]HSDB

   Boiling Point
        61 DEG C @ 20 MM HG
   from [3]HSDB

   Melting Point
        -33.4 DEG C
   from [4]HSDB

   Density/Specific Gravity
        1.1460 @ 20 DEG C/4 DEG C
   from [5]HSDB

   Octanol/Water Partition Coefficient
        log Kow= 0.462 (est)
   from [6]HSDB

   Solubilities

     * SOL IN WATER: 37% VOL/VOL; MISCIBLE WITH ALCOHOL, ACETONE, ETHER,
       CHLOROFORM
     * PROBABLY MISCIBLE WITH MOST POLAR ORG SOLVENTS & LIPIDS
     * water solubility = 3.70X10+5 mg/l @ 25 deg C

   from [7]HSDB

   Spectral Properties

     * INDEX OF REFRACTION: 1.413 @ 20 DEG C/D; 1.4110 @ 25 DEG C
     * SADTLER REFERENCE NUMBER: 115 (IR, PRISM); 409 (NMR)
     * IR: 5634 (Coblentz Society Spectral Collection)
     * MASS: 66 (Atlas of Mass Spectral Data, John Wiley & Sons, New York)

   from [8]HSDB

   Vapor Density
        2.5 (Air= 1)
   from [9]HSDB

   Vapor Pressure
        3.4 MM HG @ 25 DEG C
   from [10]HSDB

   Other Chemical/Physical Properties

     * BP: 162 DEG C @ 760 MM HG (DECOMP); 150 DEG C @ 750 MM HG (DECOMP);
       DIPOLE MOMENT: 3.8
     * VERY HIGH CHEMICAL REACTIVITY DUE TO PRESENCE OF STRAINED
       FOUR-MEMBERED LACTONE RING
     * DECOMP IN WATER & ALCOHOL

   from [11]HSDB

   Computed Properties
   Molecular Weight                  72.06266 [g/mol]
   Molecular Formula                 C[3]H[4]O[2]
   XLogP3-AA                         -0.2
   H-Bond Donor                      0
   H-Bond Acceptor                   2
   Rotatable Bond Count              0
   Tautomer Count                    2
   Exact Mass                        72.021129
   MonoIsotopic Mass                 72.021129
   Topological Polar Surface Area    26.3
   Heavy Atom Count                  5
   Formal Charge                     0
   Complexity                        57.9
   Isotope Atom Count                0
   Defined Atom Stereocenter Count   0
   Undefined Atom Stereocenter Count 0
   Defined Bond Stereocenter Count   0
   Undefined Bond Stereocenter Count 0
   Covalently-Bonded Unit Count      1
   Feature 3D Acceptor Count         1
   Feature 3D Ring Count             1
   Effective Rotor Count             0.6
   Conformer Sampling RMSD           0.4
   CID Conformer Count               [12]1

References

   1. http://toxnet.nlm.nih.gov/cgi-bin/sis/search/r?dbs+hsdb:@term+@rn+@rel+57-57-8
   2. http://toxnet.nlm.nih.gov/cgi-bin/sis/search/r?dbs+hsdb:@term+@rn+@rel+57-57-8
   3. http://toxnet.nlm.nih.gov/cgi-bin/sis/search/r?dbs+hsdb:@term+@rn+@rel+57-57-8
   4. http://toxnet.nlm.nih.gov/cgi-bin/sis/search/r?dbs+hsdb:@term+@rn+@rel+57-57-8
   5. http://toxnet.nlm.nih.gov/cgi-bin/sis/search/r?dbs+hsdb:@term+@rn+@rel+57-57-8
   6. http://toxnet.nlm.nih.gov/cgi-bin/sis/search/r?dbs+hsdb:@term+@rn+@rel+57-57-8
   7. http://toxnet.nlm.nih.gov/cgi-bin/sis/search/r?dbs+hsdb:@term+@rn+@rel+57-57-8
   8. http://toxnet.nlm.nih.gov/cgi-bin/sis/search/r?dbs+hsdb:@term+@rn+@rel+57-57-8
   9. http://toxnet.nlm.nih.gov/cgi-bin/sis/search/r?dbs+hsdb:@term+@rn+@rel+57-57-8
  10. http://toxnet.nlm.nih.gov/cgi-bin/sis/search/r?dbs+hsdb:@term+@rn+@rel+57-57-8
  11. http://toxnet.nlm.nih.gov/cgi-bin/sis/search/r?dbs+hsdb:@term+@rn+@rel+57-57-8
  12. http://pubchem.ncbi.nlm.nih.gov/vw3d/vw3d.cgi?cid=2365
