197865
  -OEChem-07051213142D

 37 41  0     0  0  0  0  0  0999 V2000
    3.8001   -2.3002    0.0000 C   0  0  0  0  0  0  0  0  0  0  0  0
    4.5732   -2.9892    0.0000 C   0  0  0  0  0  0  0  0  0  0  0  0
    4.1585   -3.9380    0.0000 C   0  0  0  0  0  0  0  0  0  0  0  0
    2.9021   -2.8280    0.0000 C   0  0  0  0  0  0  0  0  0  0  0  0
    3.1278   -3.8386    0.0000 C   0  0  0  0  0  0  0  0  0  0  0  0
    3.7841   -1.2588    0.0000 C   0  0  0  0  0  0  0  0  0  0  0  0
    2.9180   -0.7587    0.0000 C   0  0  0  0  0  0  0  0  0  0  0  0
    2.0000   -2.3072    0.0000 C   0  0  0  0  0  0  0  0  0  0  0  0
    4.6501   -0.7587    0.0000 C   0  0  0  0  0  0  0  0  0  0  0  0
    3.7841    0.7413    0.0000 C   0  0  0  0  0  0  0  0  0  0  0  0
    4.6501    0.2413    0.0000 C   0  0  0  0  0  0  0  0  0  0  0  0
    2.0080   -1.2656    0.0000 C   0  0  0  0  0  0  0  0  0  0  0  0
    2.9180    0.2413    0.0000 C   0  0  0  0  0  0  0  0  0  0  0  0
    3.7680    1.7828    0.0000 C   0  0  0  0  0  0  0  0  0  0  0  0
    5.5601    0.7481    0.0000 C   0  0  0  0  0  0  0  0  0  0  0  0
    4.6660    2.3105    0.0000 C   0  0  0  0  0  0  0  0  0  0  0  0
    5.5681    1.7897    0.0000 C   0  0  0  0  0  0  0  0  0  0  0  0
    2.8161    2.3034    0.0000 C   0  0  0  0  0  0  0  0  0  0  0  0
    4.6744    3.3955    0.0000 C   0  0  0  0  0  0  0  0  0  0  0  0
    2.7993    3.3882    0.0000 C   0  0  0  0  0  0  0  0  0  0  0  0
    3.7348    3.9380    0.0000 C   0  0  0  0  0  0  0  0  0  0  0  0
    5.1120   -3.2958    0.0000 H   0  0  0  0  0  0  0  0  0  0  0  0
    4.9347   -2.4855    0.0000 H   0  0  0  0  0  0  0  0  0  0  0  0
    4.0344   -4.5454    0.0000 H   0  0  0  0  0  0  0  0  0  0  0  0
    4.7495   -4.1252    0.0000 H   0  0  0  0  0  0  0  0  0  0  0  0
    2.5118   -3.9094    0.0000 H   0  0  0  0  0  0  0  0  0  0  0  0
    3.1335   -4.4586    0.0000 H   0  0  0  0  0  0  0  0  0  0  0  0
    1.4619   -2.6151    0.0000 H   0  0  0  0  0  0  0  0  0  0  0  0
    5.1870   -1.0688    0.0000 H   0  0  0  0  0  0  0  0  0  0  0  0
    1.4747   -0.9494    0.0000 H   0  0  0  0  0  0  0  0  0  0  0  0
    2.3811    0.5513    0.0000 H   0  0  0  0  0  0  0  0  0  0  0  0
    6.0934    0.4319    0.0000 H   0  0  0  0  0  0  0  0  0  0  0  0
    6.1062    2.0976    0.0000 H   0  0  0  0  0  0  0  0  0  0  0  0
    2.2852    1.9831    0.0000 H   0  0  0  0  0  0  0  0  0  0  0  0
    5.2125    3.7034    0.0000 H   0  0  0  0  0  0  0  0  0  0  0  0
    2.2589    3.6920    0.0000 H   0  0  0  0  0  0  0  0  0  0  0  0
    3.7324    4.5580    0.0000 H   0  0  0  0  0  0  0  0  0  0  0  0
  1  2  1  0  0  0  0
  1  4  2  0  0  0  0
  1  6  1  0  0  0  0
  2  3  1  0  0  0  0
  2 22  1  0  0  0  0
  2 23  1  0  0  0  0
  3  5  1  0  0  0  0
  3 24  1  0  0  0  0
  3 25  1  0  0  0  0
  4  5  1  0  0  0  0
  4  8  1  0  0  0  0
  5 26  1  0  0  0  0
  5 27  1  0  0  0  0
  6  7  1  0  0  0  0
  6  9  2  0  0  0  0
  7 12  1  0  0  0  0
  7 13  2  0  0  0  0
  8 12  2  0  0  0  0
  8 28  1  0  0  0  0
  9 11  1  0  0  0  0
  9 29  1  0  0  0  0
 10 11  2  0  0  0  0
 10 13  1  0  0  0  0
 10 14  1  0  0  0  0
 11 15  1  0  0  0  0
 12 30  1  0  0  0  0
 13 31  1  0  0  0  0
 14 16  1  0  0  0  0
 14 18  2  0  0  0  0
 15 17  2  0  0  0  0
 15 32  1  0  0  0  0
 16 17  1  0  0  0  0
 16 19  2  0  0  0  0
 17 33  1  0  0  0  0
 18 20  1  0  0  0  0
 18 34  1  0  0  0  0
 19 21  1  0  0  0  0
 19 35  1  0  0  0  0
 20 21  2  0  0  0  0
 20 36  1  0  0  0  0
 21 37  1  0  0  0  0
M  END
> <PUBCHEM_COMPOUND_CID>
197865

> <PUBCHEM_COMPOUND_CANONICALIZED>
1

> <PUBCHEM_CACTVS_COMPLEXITY>
386

> <PUBCHEM_CACTVS_HBOND_ACCEPTOR>
0

> <PUBCHEM_CACTVS_HBOND_DONOR>
0

> <PUBCHEM_CACTVS_ROTATABLE_BOND>
0

> <PUBCHEM_CACTVS_SUBSKEYS>
AAADceB4AAAAAAAAAAAAAAAAAAAAAYAAAAAwYMGAAAAAAGDBVAAAGAAAAAAADACAGAAwAMAAAACAAiBCAAACAAAgAAAIiAAAAIgIICKAERCAIAAggAAIiAcAgMAOwAACAAAQAACAAAQAACAAAAAACAAAAA==

> <PUBCHEM_IUPAC_INCHI>
InChI=1S/C21H16/c1-2-6-18-14(4-1)8-10-16-13-21-17(12-20(16)18)11-9-15-5-3-7-19(15)21/h1-2,4,6,8-13H,3,5,7H2

> <PUBCHEM_IUPAC_INCHIKEY>
UWKBDVGBSYVECO-UHFFFAOYSA-N

> <PUBCHEM_XLOGP3_AA>
6.5

> <PUBCHEM_EXACT_MASS>
268.125201

> <PUBCHEM_MOLECULAR_FORMULA>
C21H16

> <PUBCHEM_MOLECULAR_WEIGHT>
268.35174

> <PUBCHEM_OPENEYE_CAN_SMILES>
C1CC2=C(C1)C3=CC4=C(C=C3C=C2)C5=CC=CC=C5C=C4

> <PUBCHEM_OPENEYE_ISO_SMILES>
C1CC2=C(C1)C3=CC4=C(C=C3C=C2)C5=CC=CC=C5C=C4

> <PUBCHEM_CACTVS_TPSA>
0

> <PUBCHEM_MONOISOTOPIC_WEIGHT>
268.125201

> <PUBCHEM_TOTAL_CHARGE>
0

> <PUBCHEM_HEAVY_ATOM_COUNT>
21

> <PUBCHEM_ATOM_DEF_STEREO_COUNT>
0

> <PUBCHEM_ATOM_UDEF_STEREO_COUNT>
0

> <PUBCHEM_BOND_DEF_STEREO_COUNT>
0

> <PUBCHEM_BOND_UDEF_STEREO_COUNT>
0

> <PUBCHEM_ISOTOPIC_ATOM_COUNT>
0

> <PUBCHEM_COMPONENT_COUNT>
1

> <PUBCHEM_CACTVS_TAUTO_COUNT>
1

> <PUBCHEM_COORDINATE_TYPE>
1
5
255

> <PUBCHEM_BONDANNOTATIONS>
1  4  8
1  6  8
10  11  8
10  13  8
10  14  8
11  15  8
14  16  8
14  18  8
15  17  8
16  17  8
16  19  8
18  20  8
19  21  8
20  21  8
4  8  8
6  7  8
6  9  8
7  12  8
7  13  8
8  12  8
9  11  8

$$$$

