   Color/Form

     * LEAFLETS & PLATES FROM WATER
     * WHITE CRYSTALLINE POWDER
     * WHITE OR YELLOWISH CRYSTALLINE SOLID

   from [1]HSDB

   Melting Point
        194-195 DEG C (WITH DECOMP)
   from [2]HSDB

   Dissociation Constants
        K1 AT 25 DEG C= 1.58X10-3; K2= 3.5X10-5
   from [3]HSDB

   Solubilities
        1 G DISSOLVES IN 5.5 ML WATER @ 13 DEG C, 2 ML @ 25 DEG C; SOL IN
   2 PARTS 88% ALCOHOL @ 12 DEG C; SLIGHTLY SOL IN ETHER
   from [4]HSDB

   Spectral Properties
        IR: 23512 (Sadtler Research Laboratories Prism Collection)
   from [5]HSDB

   Other Chemical/Physical Properties

     * DECOMP @ 209 DEG C (ELECTRICALLY HEATED BAR); DECOMP 198-199 DEG C
       (CAPILLARY IN OIL BATH @ 190 DEG C), 204-205 DEG C (CAPILLARY IN
       OIL BATH @ 195 DEG C)
     * NEEDLES FROM WATER; SOL IN WATER; SLIGHTLY SOL IN ETHER; MAX
       ABSORPTION (WATER): 389 NM (LOG E= 2.69); 411 NM (LOG E= 2.78)
       /CIS/
     * LEAFLETS FROM WATER & NEEDLES FROM WATER & ETHER; VERY SOL IN
       WATER; SOL IN ALCOHOL; SLIGHTLY SOL IN ETHER; SADTLER REF NUMBER:
       23512 (IR, PRISM); MAX ABSORPTION: 411 NM (LOG E= 2.88); 432 NM
       (LOG E= 2.88) /TRANS/

   from [6]HSDB

   Computed Properties
   Molecular Weight                  174.10824 [g/mol]
   Molecular Formula                 C[6]H[6]O[6]
   XLogP3-AA                         -1
   H-Bond Donor                      3
   H-Bond Acceptor                   6
   Rotatable Bond Count              4
   Exact Mass                        174.016438
   MonoIsotopic Mass                 174.016438
   Topological Polar Surface Area    112
   Heavy Atom Count                  12
   Formal Charge                     0
   Complexity                        251
   Isotope Atom Count                0
   Defined Atom Stereocenter Count   0
   Undefined Atom Stereocenter Count 0
   Defined Bond Stereocenter Count   1
   Undefined Bond Stereocenter Count 0
   Covalently-Bonded Unit Count      1
   Feature 3D Acceptor Count         6
   Feature 3D Anion Count            3
   Effective Rotor Count             4
   Conformer Sampling RMSD           0.6
   CID Conformer Count               [7]25

References

   1. http://toxnet.nlm.nih.gov/cgi-bin/sis/search/r?dbs+hsdb:@term+@rn+@rel+499-12-7
   2. http://toxnet.nlm.nih.gov/cgi-bin/sis/search/r?dbs+hsdb:@term+@rn+@rel+499-12-7
   3. http://toxnet.nlm.nih.gov/cgi-bin/sis/search/r?dbs+hsdb:@term+@rn+@rel+499-12-7
   4. http://toxnet.nlm.nih.gov/cgi-bin/sis/search/r?dbs+hsdb:@term+@rn+@rel+499-12-7
   5. http://toxnet.nlm.nih.gov/cgi-bin/sis/search/r?dbs+hsdb:@term+@rn+@rel+499-12-7
   6. http://toxnet.nlm.nih.gov/cgi-bin/sis/search/r?dbs+hsdb:@term+@rn+@rel+499-12-7
   7. http://pubchem.ncbi.nlm.nih.gov/vw3d/vw3d.cgi?cid=643757
