13335
  -OEChem-06261209052D

 40 41  0     0  0  0  0  0  0999 V2000
    1.4030    2.6200    0.0000 S   0  0  0  0  0  0  0  0  0  0  0  0
   10.6588    2.6200    0.0000 S   0  0  0  0  0  0  0  0  0  0  0  0
    6.0309    7.8306    0.0000 Na  0  3  0  0  0  0  0  0  0  0  0  0
    6.0309    5.8337    0.0000 Na  0  3  0  0  0  0  0  0  0  0  0  0
    5.2579    3.3753    0.0000 O   0  0  0  0  0  0  0  0  0  0  0  0
    6.8038    3.3753    0.0000 O   0  0  0  0  0  0  0  0  0  0  0  0
    0.5369    3.1200    0.0000 O   0  0  0  0  0  0  0  0  0  0  0  0
   11.5248    3.1200    0.0000 O   0  0  0  0  0  0  0  0  0  0  0  0
    0.9030    1.7540    0.0000 O   0  0  0  0  0  0  0  0  0  0  0  0
    1.9030    3.4860    0.0000 O   0  0  0  0  0  0  0  0  0  0  0  0
   11.1588    1.7540    0.0000 O   0  0  0  0  0  0  0  0  0  0  0  0
   10.1588    3.4860    0.0000 O   0  0  0  0  0  0  0  0  0  0  0  0
    4.9473    0.8153    0.0000 N   0  0  0  0  0  0  0  0  0  0  0  0
    7.1145    0.8153    0.0000 N   0  0  0  0  0  0  0  0  0  0  0  0
    5.5309    1.6200    0.0000 C   0  0  0  0  0  0  0  0  0  0  0  0
    4.0010    2.1200    0.0000 C   0  0  0  0  0  0  0  0  0  0  0  0
    4.0010    1.1200    0.0000 C   0  0  0  0  0  0  0  0  0  0  0  0
    6.5309    1.6200    0.0000 C   0  0  0  0  0  0  0  0  0  0  0  0
    4.9473    2.4247    0.0000 C   0  0  0  0  0  0  0  0  0  0  0  0
    8.0607    2.1200    0.0000 C   0  0  0  0  0  0  0  0  0  0  0  0
    7.1145    2.4247    0.0000 C   0  0  0  0  0  0  0  0  0  0  0  0
    8.0607    1.1200    0.0000 C   0  0  0  0  0  0  0  0  0  0  0  0
    3.1350    2.6200    0.0000 C   0  0  0  0  0  0  0  0  0  0  0  0
    3.1350    0.6200    0.0000 C   0  0  0  0  0  0  0  0  0  0  0  0
    2.2690    2.1200    0.0000 C   0  0  0  0  0  0  0  0  0  0  0  0
    8.9267    2.6200    0.0000 C   0  0  0  0  0  0  0  0  0  0  0  0
    2.2690    1.1200    0.0000 C   0  0  0  0  0  0  0  0  0  0  0  0
    9.7927    2.1200    0.0000 C   0  0  0  0  0  0  0  0  0  0  0  0
    8.9267    0.6200    0.0000 C   0  0  0  0  0  0  0  0  0  0  0  0
    9.7927    1.1200    0.0000 C   0  0  0  0  0  0  0  0  0  0  0  0
    5.1399    0.2259    0.0000 H   0  0  0  0  0  0  0  0  0  0  0  0
    3.1350    3.2400    0.0000 H   0  0  0  0  0  0  0  0  0  0  0  0
    3.1350    0.0000    0.0000 H   0  0  0  0  0  0  0  0  0  0  0  0
    8.9267    3.2400    0.0000 H   0  0  0  0  0  0  0  0  0  0  0  0
    1.7321    0.8100    0.0000 H   0  0  0  0  0  0  0  0  0  0  0  0
    8.9267    0.0000    0.0000 H   0  0  0  0  0  0  0  0  0  0  0  0
   10.3297    0.8100    0.0000 H   0  0  0  0  0  0  0  0  0  0  0  0
    4.8439    3.8367    0.0000 H   0  0  0  0  0  0  0  0  0  0  0  0
    0.0000    2.8100    0.0000 H   0  0  0  0  0  0  0  0  0  0  0  0
   12.0617    2.8100    0.0000 H   0  0  0  0  0  0  0  0  0  0  0  0
  1  7  1  0  0  0  0
  1  9  2  0  0  0  0
  1 10  2  0  0  0  0
  1 25  1  0  0  0  0
  2  8  1  0  0  0  0
  2 11  2  0  0  0  0
  2 12  2  0  0  0  0
  2 28  1  0  0  0  0
  5 19  1  0  0  0  0
  5 38  1  0  0  0  0
  6 21  2  0  0  0  0
  7 39  1  0  0  0  0
  8 40  1  0  0  0  0
 13 15  1  0  0  0  0
 13 17  1  0  0  0  0
 13 31  1  0  0  0  0
 14 18  2  0  0  0  0
 14 22  1  0  0  0  0
 15 18  1  0  0  0  0
 15 19  2  0  0  0  0
 16 17  2  0  0  0  0
 16 19  1  0  0  0  0
 16 23  1  0  0  0  0
 17 24  1  0  0  0  0
 18 21  1  0  0  0  0
 20 21  1  0  0  0  0
 20 22  2  0  0  0  0
 20 26  1  0  0  0  0
 22 29  1  0  0  0  0
 23 25  2  0  0  0  0
 23 32  1  0  0  0  0
 24 27  2  0  0  0  0
 24 33  1  0  0  0  0
 25 27  1  0  0  0  0
 26 28  2  0  0  0  0
 26 34  1  0  0  0  0
 27 35  1  0  0  0  0
 28 30  1  0  0  0  0
 29 30  2  0  0  0  0
 29 36  1  0  0  0  0
 30 37  1  0  0  0  0
M  CHG  2   3   1   4   1
M  END
> <PUBCHEM_COMPOUND_CID>
13335

> <PUBCHEM_COMPOUND_CANONICALIZED>
1

> <PUBCHEM_CACTVS_COMPLEXITY>
904

> <PUBCHEM_CACTVS_HBOND_ACCEPTOR>
9

> <PUBCHEM_CACTVS_HBOND_DONOR>
4

> <PUBCHEM_CACTVS_ROTATABLE_BOND>
3

> <PUBCHEM_CACTVS_SUBSKEYS>
AAADccB7PDBgAAAAAAAAAAAAAAAAAWIAAAAwYAAAAAAAAFgB9AAAHgQQCAAADAyB3gAwx/LJkoKoA6RyRHTCgGAlYiAImTk1bNgKJvrSlZOEcYhm0BnY2ceayPCOAAQAgAACAAAACAEAAAQAAAAAAAAAAA==

> <PUBCHEM_IUPAC_OPENEYE_NAME>
disodium 2-(3-hydroxy-5-sulfo-1H-indol-2-yl)-3-oxo-indole-5-sulfonic acid

> <PUBCHEM_IUPAC_CAS_NAME>
disodium 2-(3-hydroxy-5-sulfo-1H-indol-2-yl)-3-oxo-5-indolesulfonic acid

> <PUBCHEM_IUPAC_NAME>
disodium 2-(3-hydroxy-5-sulfo-1H-indol-2-yl)-3-oxoindole-5-sulfonic acid

> <PUBCHEM_IUPAC_SYSTEMATIC_NAME>
disodium 3-oxidanylidene-2-(3-oxidanyl-5-sulfo-1H-indol-2-yl)indole-5-sulfonic acid

> <PUBCHEM_IUPAC_TRADITIONAL_NAME>
disodium 2-(3-hydroxy-5-sulfo-1H-indol-2-yl)-3-keto-indole-5-sulfonic acid

> <PUBCHEM_IUPAC_INCHI>
InChI=1S/C16H10N2O8S2.2Na/c19-15-9-5-7(27(21,22)23)1-3-11(9)17-13(15)14-16(20)10-6-8(28(24,25)26)2-4-12(10)18-14;;/h1-6,17,19H,(H,21,22,23)(H,24,25,26);;/q;2*+1

> <PUBCHEM_IUPAC_INCHIKEY>
JFVXEJADITYJHK-UHFFFAOYSA-N

> <PUBCHEM_EXACT_MASS>
467.967396

> <PUBCHEM_MOLECULAR_FORMULA>
C16H10N2Na2O8S2+2

> <PUBCHEM_MOLECULAR_WEIGHT>
468.368739

> <PUBCHEM_OPENEYE_CAN_SMILES>
C1=CC2=C(C=C1S(=O)(=O)O)C(=C(N2)C3=NC4=C(C3=O)C=C(C=C4)S(=O)(=O)O)O.[Na+].[Na+]

> <PUBCHEM_OPENEYE_ISO_SMILES>
C1=CC2=C(C=C1S(=O)(=O)O)C(=C(N2)C3=NC4=C(C3=O)C=C(C=C4)S(=O)(=O)O)O.[Na+].[Na+]

> <PUBCHEM_CACTVS_TPSA>
191

> <PUBCHEM_MONOISOTOPIC_WEIGHT>
467.967396

> <PUBCHEM_TOTAL_CHARGE>
2

> <PUBCHEM_HEAVY_ATOM_COUNT>
30

> <PUBCHEM_ATOM_DEF_STEREO_COUNT>
0

> <PUBCHEM_ATOM_UDEF_STEREO_COUNT>
0

> <PUBCHEM_BOND_DEF_STEREO_COUNT>
0

> <PUBCHEM_BOND_UDEF_STEREO_COUNT>
0

> <PUBCHEM_ISOTOPIC_ATOM_COUNT>
0

> <PUBCHEM_COMPONENT_COUNT>
3

> <PUBCHEM_CACTVS_TAUTO_COUNT>
11

> <PUBCHEM_COORDINATE_TYPE>
1
5
255

> <PUBCHEM_BONDANNOTATIONS>
13  15  8
13  17  8
15  19  8
16  17  8
16  19  8
16  23  8
17  24  8
20  22  8
20  26  8
22  29  8
23  25  8
24  27  8
25  27  8
26  28  8
28  30  8
29  30  8

$$$$

