583128
  -OEChem-06241222442D

 20 20  0     1  0  0  0  0  0999 V2000
    5.0032   -1.1417    0.0000 O   0  0  0  0  0  0  0  0  0  0  0  0
    2.7431    0.1184    0.0000 O   0  0  0  0  0  0  0  0  0  0  0  0
    3.4154   -1.9507    0.0000 O   0  0  0  0  0  0  0  0  0  0  0  0
    6.2633    0.1184    0.0000 O   0  0  0  0  0  0  0  0  0  0  0  0
    5.3692    1.8971    0.0000 O   0  0  0  0  0  0  0  0  0  0  0  0
    4.5032    1.3971    0.0000 N   0  0  0  0  0  0  0  0  0  0  0  0
    3.6942   -0.1907    0.0000 C   0  0  3  0  0  0  0  0  0  0  0  0
    4.0032   -1.1417    0.0000 C   0  0  3  0  0  0  0  0  0  0  0  0
    4.5032    0.3971    0.0000 C   0  0  0  0  0  0  0  0  0  0  0  0
    5.3122   -0.1907    0.0000 C   0  0  3  0  0  0  0  0  0  0  0  0
    2.0000   -0.5508    0.0000 C   0  0  0  0  0  0  0  0  0  0  0  0
    3.2558   -0.6291    0.0000 H   0  0  0  0  0  0  0  0  0  0  0  0
    3.3909   -1.0447    0.0000 H   0  0  0  0  0  0  0  0  0  0  0  0
    5.4092    0.4217    0.0000 H   0  0  0  0  0  0  0  0  0  0  0  0
    3.6676   -2.5171    0.0000 H   0  0  0  0  0  0  0  0  0  0  0  0
    6.7240   -0.2965    0.0000 H   0  0  0  0  0  0  0  0  0  0  0  0
    1.5851   -0.0900    0.0000 H   0  0  0  0  0  0  0  0  0  0  0  0
    1.5393   -0.9656    0.0000 H   0  0  0  0  0  0  0  0  0  0  0  0
    2.4149   -1.0115    0.0000 H   0  0  0  0  0  0  0  0  0  0  0  0
    5.3692    2.5171    0.0000 H   0  0  0  0  0  0  0  0  0  0  0  0
  1  8  1  0  0  0  0
  1 10  1  0  0  0  0
  2  7  1  0  0  0  0
  2 11  1  0  0  0  0
  3  8  1  0  0  0  0
  3 15  1  0  0  0  0
  4 10  1  0  0  0  0
  4 16  1  0  0  0  0
  5  6  1  0  0  0  0
  5 20  1  0  0  0  0
  6  9  2  3  0  0  0
  7  8  1  0  0  0  0
  7  9  1  0  0  0  0
  7 12  1  0  0  0  0
  8 13  1  0  0  0  0
  9 10  1  0  0  0  0
 10 14  1  0  0  0  0
 11 17  1  0  0  0  0
 11 18  1  0  0  0  0
 11 19  1  0  0  0  0
M  END
> <PUBCHEM_COMPOUND_CID>
583128

> <PUBCHEM_COMPOUND_CANONICALIZED>
1

> <PUBCHEM_CACTVS_COMPLEXITY>
170

> <PUBCHEM_CACTVS_HBOND_ACCEPTOR>
6

> <PUBCHEM_CACTVS_HBOND_DONOR>
3

> <PUBCHEM_CACTVS_ROTATABLE_BOND>
1

> <PUBCHEM_CACTVS_SUBSKEYS>
AAADccBiOAAAAAAAAAAAAAAAAAAAASAAAAAAAAAAAAAAAAAAAAAAHgAECAAACByxgAMCCAAQBgAgAQAgAAQAAAAAAAAAAAAwAAAREAAAAAACQAAFAAAHAABAAAAAAAAAAAAAAAAAAAAAAAAAAAAAAAAAAA==

> <PUBCHEM_IUPAC_OPENEYE_NAME>
2,5-dihydroxy-4-methoxy-tetrahydrofuran-3-one oxime

> <PUBCHEM_IUPAC_CAS_NAME>
2,5-dihydroxy-4-methoxy-3-oxolanone oxime

> <PUBCHEM_IUPAC_NAME>
3-hydroxyimino-4-methoxyoxolane-2,5-diol

> <PUBCHEM_IUPAC_SYSTEMATIC_NAME>
3-hydroxyimino-4-methoxy-oxolane-2,5-diol

> <PUBCHEM_IUPAC_TRADITIONAL_NAME>
2,5-dihydroxy-4-methoxy-tetrahydrofuran-3-one oxime

> <PUBCHEM_IUPAC_INCHI>
InChI=1S/C5H9NO5/c1-10-3-2(6-9)4(7)11-5(3)8/h3-5,7-9H,1H3

> <PUBCHEM_IUPAC_INCHIKEY>
SOIDATDZHBOUEE-UHFFFAOYSA-N

> <PUBCHEM_XLOGP3_AA>
-0.7

> <PUBCHEM_EXACT_MASS>
163.048072

> <PUBCHEM_MOLECULAR_FORMULA>
C5H9NO5

> <PUBCHEM_MOLECULAR_WEIGHT>
163.12866

> <PUBCHEM_OPENEYE_CAN_SMILES>
COC1C(OC(C1=NO)O)O

> <PUBCHEM_OPENEYE_ISO_SMILES>
COC1C(OC(C1=NO)O)O

> <PUBCHEM_CACTVS_TPSA>
91.5

> <PUBCHEM_MONOISOTOPIC_WEIGHT>
163.048072

> <PUBCHEM_TOTAL_CHARGE>
0

> <PUBCHEM_HEAVY_ATOM_COUNT>
11

> <PUBCHEM_ATOM_DEF_STEREO_COUNT>
0

> <PUBCHEM_ATOM_UDEF_STEREO_COUNT>
3

> <PUBCHEM_BOND_DEF_STEREO_COUNT>
0

> <PUBCHEM_BOND_UDEF_STEREO_COUNT>
1

> <PUBCHEM_ISOTOPIC_ATOM_COUNT>
0

> <PUBCHEM_COMPONENT_COUNT>
1

> <PUBCHEM_CACTVS_TAUTO_COUNT>
2

> <PUBCHEM_COORDINATE_TYPE>
1
5
255

> <PUBCHEM_BONDANNOTATIONS>
10  14  3
6  9  1
7  12  3
8  13  3

$$$$

