   Color/Form

     * White cubic crystals
     * WHITE SOLID IN FORM OF GRANULES, FLAKES, OR EGGS (RESEMBLING
       CHICKEN EGGS)
     * White, granular or crystalline solid.

   from [1]HSDB

   Odor

     * Odorless when perfectly dry, emits odor of hydrogen cyanide when
       damp
     * Faint odor of bitter almonds
     * Faint almond-like odor.

   from [2]HSDB

   Boiling Point
        1496 deg C
   from [3]HSDB

   Melting Point
        563 deg C
   from [4]HSDB

   Corrosivity
        Corrosive to aluminum.
   from [5]HSDB

   Density/Specific Gravity
        1.595 g/cu cm @ 20 deg C
   from [6]HSDB

   Heat of Vaporization
        3041 J/g
   from [7]HSDB

   pH
        Aq soln strongly alkaline
   from [8]HSDB

   Solubilities

     * 48 G/100 CC WATER @ 10 DEG C
     * 82 G/100 CC WATER @ 35 DEG C
     * Slightly sol in alcohol

   from [9]HSDB

   Spectral Properties
        INDEX OF REFRACTION: 1.452
   from [10]HSDB

   Vapor Pressure
        1 mm Hg @ 817 deg C; 10 mm Hg @ 983 deg C
   from [11]HSDB

   Viscosity
        4 cP @ 30 deg C (26% aqueous soln)
   from [12]HSDB

   Other Chemical/Physical Properties

     * Soln readily dissolves gold and silver in presence of air
     * DELIQUESCES
     * Absorbs water from the air forming a syrup
     * Heat of capacity: 1.40 @ 25-72 deg C; heat of fusion: 179 J/g; heat
       of formation: -89.9X10+3 J/mole (exothermic); heat of solution:
       -1548 J/mole; hydrolysis constant: 2.51X10-5 @ 25 deg C
     * When heated in a dry carbon dioxide atmosphere, sodium cyanide
       fuses without much decomposition. Thermal dissociation of sodium
       cyanide has been studied in an atm of helium at 600-1050 deg C and
       in an atm of nitrogen at 1050-1255 deg C. It has been shown that
       vapor phase over melt contains decomposition products.

   from [13]HSDB

   Computed Properties
   Molecular Weight                  49.007169 [g/mol]
   Molecular Formula                 CNNa
   H-Bond Donor                      0
   H-Bond Acceptor                   2
   Rotatable Bond Count              0
   Exact Mass                        48.992843
   MonoIsotopic Mass                 48.992843
   Topological Polar Surface Area    23.8
   Heavy Atom Count                  3
   Formal Charge                     0
   Complexity                        12.8
   Isotope Atom Count                0
   Defined Atom Stereocenter Count   0
   Undefined Atom Stereocenter Count 0
   Defined Bond Stereocenter Count   0
   Undefined Bond Stereocenter Count 0
   Covalently-Bonded Unit Count      2

References

   1. http://toxnet.nlm.nih.gov/cgi-bin/sis/search/r?dbs+hsdb:@term+@rn+@rel+143-33-9
   2. http://toxnet.nlm.nih.gov/cgi-bin/sis/search/r?dbs+hsdb:@term+@rn+@rel+143-33-9
   3. http://toxnet.nlm.nih.gov/cgi-bin/sis/search/r?dbs+hsdb:@term+@rn+@rel+143-33-9
   4. http://toxnet.nlm.nih.gov/cgi-bin/sis/search/r?dbs+hsdb:@term+@rn+@rel+143-33-9
   5. http://toxnet.nlm.nih.gov/cgi-bin/sis/search/r?dbs+hsdb:@term+@rn+@rel+143-33-9
   6. http://toxnet.nlm.nih.gov/cgi-bin/sis/search/r?dbs+hsdb:@term+@rn+@rel+143-33-9
   7. http://toxnet.nlm.nih.gov/cgi-bin/sis/search/r?dbs+hsdb:@term+@rn+@rel+143-33-9
   8. http://toxnet.nlm.nih.gov/cgi-bin/sis/search/r?dbs+hsdb:@term+@rn+@rel+143-33-9
   9. http://toxnet.nlm.nih.gov/cgi-bin/sis/search/r?dbs+hsdb:@term+@rn+@rel+143-33-9
  10. http://toxnet.nlm.nih.gov/cgi-bin/sis/search/r?dbs+hsdb:@term+@rn+@rel+143-33-9
  11. http://toxnet.nlm.nih.gov/cgi-bin/sis/search/r?dbs+hsdb:@term+@rn+@rel+143-33-9
  12. http://toxnet.nlm.nih.gov/cgi-bin/sis/search/r?dbs+hsdb:@term+@rn+@rel+143-33-9
  13. http://toxnet.nlm.nih.gov/cgi-bin/sis/search/r?dbs+hsdb:@term+@rn+@rel+143-33-9
