123196
  -OEChem-07051213012D

 13 13  0     0  0  0  0  0  0999 V2000
    5.5202   -0.3952    0.0000 O   0  0  0  0  0  0  0  0  0  0  0  0
    2.0000   -0.3952    0.0000 O   0  0  0  0  0  0  0  0  0  0  0  0
    4.8479    1.6739    0.0000 O   0  0  0  0  0  0  0  0  0  0  0  0
    3.7601   -0.6739    0.0000 N   0  0  0  0  0  0  0  0  0  0  0  0
    3.2601    0.8649    0.0000 N   0  0  0  0  0  0  0  0  0  0  0  0
    4.5691   -0.0861    0.0000 C   0  0  0  0  0  0  0  0  0  0  0  0
    2.9511   -0.0861    0.0000 C   0  0  0  0  0  0  0  0  0  0  0  0
    4.2601    0.8649    0.0000 C   0  0  0  0  0  0  0  0  0  0  0  0
    3.7601   -1.6739    0.0000 C   0  0  0  0  0  0  0  0  0  0  0  0
    2.8956    1.3665    0.0000 H   0  0  0  0  0  0  0  0  0  0  0  0
    3.1401   -1.6739    0.0000 H   0  0  0  0  0  0  0  0  0  0  0  0
    3.7601   -2.2939    0.0000 H   0  0  0  0  0  0  0  0  0  0  0  0
    4.3801   -1.6739    0.0000 H   0  0  0  0  0  0  0  0  0  0  0  0
  1  6  2  0  0  0  0
  2  7  2  0  0  0  0
  3  8  2  0  0  0  0
  4  6  1  0  0  0  0
  4  7  1  0  0  0  0
  4  9  1  0  0  0  0
  5  7  1  0  0  0  0
  5  8  1  0  0  0  0
  5 10  1  0  0  0  0
  6  8  1  0  0  0  0
  9 11  1  0  0  0  0
  9 12  1  0  0  0  0
  9 13  1  0  0  0  0
M  END
> <PUBCHEM_COMPOUND_CID>
123196

> <PUBCHEM_COMPOUND_CANONICALIZED>
1

> <PUBCHEM_CACTVS_COMPLEXITY>
198

> <PUBCHEM_CACTVS_HBOND_ACCEPTOR>
3

> <PUBCHEM_CACTVS_HBOND_DONOR>
1

> <PUBCHEM_CACTVS_ROTATABLE_BOND>
0

> <PUBCHEM_CACTVS_SUBSKEYS>
AAADcYBjMAAAAAAAAAAAAAAAAAAAAWAAAAAAAAAAAAAAAAAAAAAAHgAQAAAAAAABgAQDAAPAAAAIAAEQEAAAAAAAAAAAAACIAACAQAAAACAQAAAIByIAAAAAAAAAAAAAAAAAAAAAAAAAAAAAAAAAAAAAAA==

> <PUBCHEM_IUPAC_OPENEYE_NAME>
1-methylimidazolidine-2,4,5-trione

> <PUBCHEM_IUPAC_CAS_NAME>
1-methylimidazolidine-2,4,5-trione

> <PUBCHEM_IUPAC_NAME>
1-methylimidazolidine-2,4,5-trione

> <PUBCHEM_IUPAC_SYSTEMATIC_NAME>
1-methylimidazolidine-2,4,5-trione

> <PUBCHEM_IUPAC_TRADITIONAL_NAME>
1-methylimidazolidine-2,4,5-trione

> <PUBCHEM_IUPAC_INCHI>
InChI=1S/C4H4N2O3/c1-6-3(8)2(7)5-4(6)9/h1H3,(H,5,7,9)

> <PUBCHEM_IUPAC_INCHIKEY>
MJJCZWPYKMGQHU-UHFFFAOYSA-N

> <PUBCHEM_XLOGP3>
-1

> <PUBCHEM_EXACT_MASS>
128.022192

> <PUBCHEM_MOLECULAR_FORMULA>
C4H4N2O3

> <PUBCHEM_MOLECULAR_WEIGHT>
128.08616

> <PUBCHEM_OPENEYE_CAN_SMILES>
CN1C(=O)C(=O)NC1=O

> <PUBCHEM_OPENEYE_ISO_SMILES>
CN1C(=O)C(=O)NC1=O

> <PUBCHEM_CACTVS_TPSA>
66.5

> <PUBCHEM_MONOISOTOPIC_WEIGHT>
128.022192

> <PUBCHEM_TOTAL_CHARGE>
0

> <PUBCHEM_HEAVY_ATOM_COUNT>
9

> <PUBCHEM_ATOM_DEF_STEREO_COUNT>
0

> <PUBCHEM_ATOM_UDEF_STEREO_COUNT>
0

> <PUBCHEM_BOND_DEF_STEREO_COUNT>
0

> <PUBCHEM_BOND_UDEF_STEREO_COUNT>
0

> <PUBCHEM_ISOTOPIC_ATOM_COUNT>
0

> <PUBCHEM_COMPONENT_COUNT>
1

> <PUBCHEM_CACTVS_TAUTO_COUNT>
3

> <PUBCHEM_COORDINATE_TYPE>
1
5
255

$$$$

