   Color/Form

     * NEEDLES FROM BENZENE
     * WHITE WAXY SOLID

   from [1]HSDB

   Melting Point
        74-75 DEG C
   from [2]HSDB

   Corrosivity
        CONCENTRATE /IS/ CORROSIVE
   from [3]HSDB

   Density/Specific Gravity
        1.58
   from [4]HSDB

   Solubilities

     * FREELY SOL IN WATER, METHANOL, ACETONE, ETHYLENE GLYCOL, PROPYLENE
       GLYCOL; SLIGHTLY SOL IN BENZENE, TOLUENE; PRACTICALLY INSOL IN
       PETROLEUM ETHER
     * VERY SLIGHTLY SOL IN AROMATIC SOLVENTS; VERY SOL IN ALCOHOL
     * Soluble in short-chain alcohols; sparingly soluble in nonpolar
       organic solvents; insoluble in kerosene.
     * Solubility: approximately 1 kg/l water; insoluble in diesel oil.

   from [5]HSDB

   Vapor Pressure
        Less than 0.01 mPa at 20 deg C
   from [6]HSDB

   Other Chemical/Physical Properties
        VERY HYGROSCOPIC (/NEEDLES/ MUST BE DRIED OVER P2O5)
   from [7]HSDB

   Computed Properties
   Molecular Weight                  144.494002 [g/mol]
   Molecular Formula                 C[2]H[6]ClO[3]P
   XLogP3-AA                         -1
   H-Bond Donor                      2
   H-Bond Acceptor                   3
   Rotatable Bond Count              2
   Exact Mass                        143.974308
   MonoIsotopic Mass                 143.974308
   Topological Polar Surface Area    57.5
   Heavy Atom Count                  7
   Formal Charge                     0
   Complexity                        86.9
   Isotope Atom Count                0
   Defined Atom Stereocenter Count   0
   Undefined Atom Stereocenter Count 0
   Defined Bond Stereocenter Count   0
   Undefined Bond Stereocenter Count 0
   Covalently-Bonded Unit Count      1
   Feature 3D Acceptor Count         3
   Feature 3D Anion Count            1
   Effective Rotor Count             2
   Conformer Sampling RMSD           0.4
   CID Conformer Count               [8]3

References

   1. http://toxnet.nlm.nih.gov/cgi-bin/sis/search/r?dbs+hsdb:@term+@rn+@rel+16672-87-0
   2. http://toxnet.nlm.nih.gov/cgi-bin/sis/search/r?dbs+hsdb:@term+@rn+@rel+16672-87-0
   3. http://toxnet.nlm.nih.gov/cgi-bin/sis/search/r?dbs+hsdb:@term+@rn+@rel+16672-87-0
   4. http://toxnet.nlm.nih.gov/cgi-bin/sis/search/r?dbs+hsdb:@term+@rn+@rel+16672-87-0
   5. http://toxnet.nlm.nih.gov/cgi-bin/sis/search/r?dbs+hsdb:@term+@rn+@rel+16672-87-0
   6. http://toxnet.nlm.nih.gov/cgi-bin/sis/search/r?dbs+hsdb:@term+@rn+@rel+16672-87-0
   7. http://toxnet.nlm.nih.gov/cgi-bin/sis/search/r?dbs+hsdb:@term+@rn+@rel+16672-87-0
   8. http://pubchem.ncbi.nlm.nih.gov/vw3d/vw3d.cgi?cid=27982
