9167
  -OEChem-06261203282D

 42 47  0     0  0  0  0  0  0999 V2000
    5.7364    0.6686    0.0000 C   0  0  0  0  0  0  0  0  0  0  0  0
    4.8703    1.1686    0.0000 C   0  0  0  0  0  0  0  0  0  0  0  0
    6.6024    1.1686    0.0000 C   0  0  0  0  0  0  0  0  0  0  0  0
    4.8703    2.1686    0.0000 C   0  0  0  0  0  0  0  0  0  0  0  0
    5.7364    2.6686    0.0000 C   0  0  0  0  0  0  0  0  0  0  0  0
    6.6024    2.1686    0.0000 C   0  0  0  0  0  0  0  0  0  0  0  0
    4.8544   -0.9006    0.0000 C   0  0  0  0  0  0  0  0  0  0  0  0
    3.9523   -0.3798    0.0000 C   0  0  0  0  0  0  0  0  0  0  0  0
    3.9603    0.6618    0.0000 C   0  0  0  0  0  0  0  0  0  0  0  0
    5.7524   -0.3729    0.0000 C   0  0  0  0  0  0  0  0  0  0  0  0
    3.0044   -0.9078    0.0000 C   0  0  0  0  0  0  0  0  0  0  0  0
    4.8711   -1.9855    0.0000 C   0  0  0  0  0  0  0  0  0  0  0  0
    2.9961   -1.9927    0.0000 C   0  0  0  0  0  0  0  0  0  0  0  0
    3.9357   -2.5352    0.0000 C   0  0  0  0  0  0  0  0  0  0  0  0
    3.9603    2.6755    0.0000 C   0  0  0  0  0  0  0  0  0  0  0  0
    7.4963    0.6340    0.0000 C   0  0  0  0  0  0  0  0  0  0  0  0
    5.7524    3.7101    0.0000 C   0  0  0  0  0  0  0  0  0  0  0  0
    7.4963    2.7033    0.0000 C   0  0  0  0  0  0  0  0  0  0  0  0
    8.4024    1.1478    0.0000 C   0  0  0  0  0  0  0  0  0  0  0  0
    3.9523    3.7171    0.0000 C   0  0  0  0  0  0  0  0  0  0  0  0
    8.4024    2.1894    0.0000 C   0  0  0  0  0  0  0  0  0  0  0  0
    4.8544    4.2379    0.0000 C   0  0  0  0  0  0  0  0  0  0  0  0
    2.0087   -2.5427    0.0000 C   0  0  0  0  0  0  0  0  0  0  0  0
    3.9531   -3.6653    0.0000 C   0  0  0  0  0  0  0  0  0  0  0  0
    2.9787   -4.2379    0.0000 C   0  0  0  0  0  0  0  0  0  0  0  0
    2.0000   -3.6728    0.0000 C   0  0  0  0  0  0  0  0  0  0  0  0
    6.2929   -0.6767    0.0000 H   0  0  0  0  0  0  0  0  0  0  0  0
    3.4270    0.9780    0.0000 H   0  0  0  0  0  0  0  0  0  0  0  0
    2.4711   -0.5916    0.0000 H   0  0  0  0  0  0  0  0  0  0  0  0
    5.4116   -2.2893    0.0000 H   0  0  0  0  0  0  0  0  0  0  0  0
    3.4270    2.3593    0.0000 H   0  0  0  0  0  0  0  0  0  0  0  0
    7.4892    0.0140    0.0000 H   0  0  0  0  0  0  0  0  0  0  0  0
    6.2929    4.0139    0.0000 H   0  0  0  0  0  0  0  0  0  0  0  0
    7.4892    3.3232    0.0000 H   0  0  0  0  0  0  0  0  0  0  0  0
    3.4142    4.0250    0.0000 H   0  0  0  0  0  0  0  0  0  0  0  0
    8.9381    0.8357    0.0000 H   0  0  0  0  0  0  0  0  0  0  0  0
    4.8568    4.8579    0.0000 H   0  0  0  0  0  0  0  0  0  0  0  0
    8.9381    2.5015    0.0000 H   0  0  0  0  0  0  0  0  0  0  0  0
    1.4754   -2.2265    0.0000 H   0  0  0  0  0  0  0  0  0  0  0  0
    4.4936   -3.9690    0.0000 H   0  0  0  0  0  0  0  0  0  0  0  0
    2.9811   -4.8579    0.0000 H   0  0  0  0  0  0  0  0  0  0  0  0
    1.4619   -3.9807    0.0000 H   0  0  0  0  0  0  0  0  0  0  0  0
  1  2  1  0  0  0  0
  1  3  1  0  0  0  0
  1 10  2  0  0  0  0
  2  4  1  0  0  0  0
  2  9  2  0  0  0  0
  3  6  1  0  0  0  0
  3 16  2  0  0  0  0
  4  5  1  0  0  0  0
  4 15  2  0  0  0  0
  5  6  1  0  0  0  0
  5 17  2  0  0  0  0
  6 18  2  0  0  0  0
  7  8  1  0  0  0  0
  7 10  1  0  0  0  0
  7 12  2  0  0  0  0
  8  9  1  0  0  0  0
  8 11  2  0  0  0  0
  9 28  1  0  0  0  0
 10 27  1  0  0  0  0
 11 13  1  0  0  0  0
 11 29  1  0  0  0  0
 12 14  1  0  0  0  0
 12 30  1  0  0  0  0
 13 14  1  0  0  0  0
 13 23  2  0  0  0  0
 14 24  2  0  0  0  0
 15 20  1  0  0  0  0
 15 31  1  0  0  0  0
 16 19  1  0  0  0  0
 16 32  1  0  0  0  0
 17 22  1  0  0  0  0
 17 33  1  0  0  0  0
 18 21  1  0  0  0  0
 18 34  1  0  0  0  0
 19 21  2  0  0  0  0
 19 36  1  0  0  0  0
 20 22  2  0  0  0  0
 20 35  1  0  0  0  0
 21 38  1  0  0  0  0
 22 37  1  0  0  0  0
 23 26  1  0  0  0  0
 23 39  1  0  0  0  0
 24 25  1  0  0  0  0
 24 40  1  0  0  0  0
 25 26  2  0  0  0  0
 25 41  1  0  0  0  0
 26 42  1  0  0  0  0
M  END
> <PUBCHEM_COMPOUND_CID>
9167

> <PUBCHEM_COMPOUND_CANONICALIZED>
1

> <PUBCHEM_CACTVS_COMPLEXITY>
462

> <PUBCHEM_CACTVS_HBOND_ACCEPTOR>
0

> <PUBCHEM_CACTVS_HBOND_DONOR>
0

> <PUBCHEM_CACTVS_ROTATABLE_BOND>
0

> <PUBCHEM_CACTVS_SUBSKEYS>
AAADceB4AAAAAAAAAAAAAAAAAAAAAAAAAAAwYMGDAAAAAADBVAAAGAAAAAAADACAGAAwAMAAAACAAiBCAAACAAAgAAAIiAAAAIgIICKAERCAIAAggAAIiAcAgMAOwAACAAAQAACAAAQAACAAAAAAAAAAAA==

> <PUBCHEM_IUPAC_INCHI>
InChI=1S/C26H16/c1-2-8-18-14-20-16-26-24-12-6-4-10-22(24)21-9-3-5-11-23(21)25(26)15-19(20)13-17(18)7-1/h1-16H

> <PUBCHEM_IUPAC_INCHIKEY>
SDWITIWFFMGFHS-UHFFFAOYSA-N

> <PUBCHEM_XLOGP3_AA>
7.1

> <PUBCHEM_EXACT_MASS>
328.125201

> <PUBCHEM_MOLECULAR_FORMULA>
C26H16

> <PUBCHEM_MOLECULAR_WEIGHT>
328.40524

> <PUBCHEM_OPENEYE_CAN_SMILES>
C1=CC=C2C=C3C=C4C5=CC=CC=C5C6=CC=CC=C6C4=CC3=CC2=C1

> <PUBCHEM_OPENEYE_ISO_SMILES>
C1=CC=C2C=C3C=C4C5=CC=CC=C5C6=CC=CC=C6C4=CC3=CC2=C1

> <PUBCHEM_CACTVS_TPSA>
0

> <PUBCHEM_MONOISOTOPIC_WEIGHT>
328.125201

> <PUBCHEM_TOTAL_CHARGE>
0

> <PUBCHEM_HEAVY_ATOM_COUNT>
26

> <PUBCHEM_ATOM_DEF_STEREO_COUNT>
0

> <PUBCHEM_ATOM_UDEF_STEREO_COUNT>
0

> <PUBCHEM_BOND_DEF_STEREO_COUNT>
0

> <PUBCHEM_BOND_UDEF_STEREO_COUNT>
0

> <PUBCHEM_ISOTOPIC_ATOM_COUNT>
0

> <PUBCHEM_COMPONENT_COUNT>
1

> <PUBCHEM_CACTVS_TAUTO_COUNT>
1

> <PUBCHEM_COORDINATE_TYPE>
1
5
255

> <PUBCHEM_BONDANNOTATIONS>
1  10  8
1  2  8
1  3  8
11  13  8
12  14  8
13  14  8
13  23  8
14  24  8
15  20  8
16  19  8
17  22  8
18  21  8
19  21  8
2  4  8
2  9  8
20  22  8
23  26  8
24  25  8
25  26  8
3  16  8
3  6  8
4  15  8
4  5  8
5  17  8
5  6  8
6  18  8
7  10  8
7  12  8
7  8  8
8  11  8
8  9  8

$$$$

