9610
  -OEChem-06261203512D

 23 21  0     0  0  0  0  0  0999 V2000
    4.8671    1.0000    0.0000 O   0  0  0  0  0  0  0  0  0  0  0  0
    0.5369    1.5000    0.0000 O   0  0  0  0  0  0  0  0  0  0  0  0
    4.0010    2.5000    0.0000 O   0  0  0  0  0  0  0  0  0  0  0  0
    1.4030    0.0000    0.0000 O   0  0  0  0  0  0  0  0  0  0  0  0
    1.2384    5.1200    0.0000 N   0  0  0  0  0  0  0  0  0  0  0  0
    4.7025    6.1200    0.0000 N   0  0  0  0  0  0  0  0  0  0  0  0
    2.1044    5.6200    0.0000 C   0  0  0  0  0  0  0  0  0  0  0  0
    2.9705    5.1200    0.0000 C   0  0  0  0  0  0  0  0  0  0  0  0
    3.8365    5.6200    0.0000 C   0  0  0  0  0  0  0  0  0  0  0  0
    2.2690    1.5000    0.0000 C   0  0  0  0  0  0  0  0  0  0  0  0
    3.1350    1.0000    0.0000 C   0  0  0  0  0  0  0  0  0  0  0  0
    1.4030    1.0000    0.0000 C   0  0  0  0  0  0  0  0  0  0  0  0
    4.0010    1.5000    0.0000 C   0  0  0  0  0  0  0  0  0  0  0  0
    2.5030    6.0950    0.0000 H   0  0  0  0  0  0  0  0  0  0  0  0
    1.7059    6.0950    0.0000 H   0  0  0  0  0  0  0  0  0  0  0  0
    2.5719    4.6450    0.0000 H   0  0  0  0  0  0  0  0  0  0  0  0
    3.3690    4.6450    0.0000 H   0  0  0  0  0  0  0  0  0  0  0  0
    0.7015    5.4300    0.0000 H   0  0  0  0  0  0  0  0  0  0  0  0
    1.2384    4.5000    0.0000 H   0  0  0  0  0  0  0  0  0  0  0  0
    3.1350    0.3800    0.0000 H   0  0  0  0  0  0  0  0  0  0  0  0
    2.2690    2.1200    0.0000 H   0  0  0  0  0  0  0  0  0  0  0  0
    5.4040    1.3100    0.0000 H   0  0  0  0  0  0  0  0  0  0  0  0
    0.0000    1.1900    0.0000 H   0  0  0  0  0  0  0  0  0  0  0  0
  1 13  1  0  0  0  0
  1 22  1  0  0  0  0
  2 12  1  0  0  0  0
  2 23  1  0  0  0  0
  3 13  2  0  0  0  0
  4 12  2  0  0  0  0
  5  7  1  0  0  0  0
  5 18  1  0  0  0  0
  5 19  1  0  0  0  0
  6  9  3  0  0  0  0
  7  8  1  0  0  0  0
  7 14  1  0  0  0  0
  7 15  1  0  0  0  0
  8  9  1  0  0  0  0
  8 16  1  0  0  0  0
  8 17  1  0  0  0  0
 10 11  2  3  0  0  0
 10 12  1  0  0  0  0
 10 21  1  0  0  0  0
 11 13  1  0  0  0  0
 11 20  1  0  0  0  0
M  END
> <PUBCHEM_COMPOUND_CID>
9610

> <PUBCHEM_COMPOUND_CANONICALIZED>
1

> <PUBCHEM_CACTVS_COMPLEXITY>
168

> <PUBCHEM_CACTVS_HBOND_ACCEPTOR>
6

> <PUBCHEM_CACTVS_HBOND_DONOR>
3

> <PUBCHEM_CACTVS_ROTATABLE_BOND>
3

> <PUBCHEM_CACTVS_SUBSKEYS>
AAADccBjOAAAAAAAAAAAAAAAAAAAAAAAAAAAAAAAAAAAAAAAAAAAHgAQCAAACADBgAQACABAAgCYBCDSCAAAAAAAAAAICIAAAEAAhAAAAAAAEAAAEAAAEYAAAAAAAAAAAAAAAAAAAAAAAAAAAAAAAAAAAA==

> <PUBCHEM_IUPAC_OPENEYE_NAME>
3-aminopropanenitrile; but-2-enedioic acid

> <PUBCHEM_IUPAC_CAS_NAME>
3-aminopropanenitrile; but-2-enedioic acid

> <PUBCHEM_IUPAC_NAME>
3-aminopropanenitrile; but-2-enedioic acid

> <PUBCHEM_IUPAC_SYSTEMATIC_NAME>
3-azanylpropanenitrile; but-2-enedioic acid

> <PUBCHEM_IUPAC_TRADITIONAL_NAME>
3-aminopropionitrile; but-2-enedioic acid

> <PUBCHEM_IUPAC_INCHI>
InChI=1S/C4H4O4.C3H6N2/c5-3(6)1-2-4(7)8;4-2-1-3-5/h1-2H,(H,5,6)(H,7,8);1-2,4H2

> <PUBCHEM_IUPAC_INCHIKEY>
NYPGBHKJFKQTIY-UHFFFAOYSA-N

> <PUBCHEM_EXACT_MASS>
186.064057

> <PUBCHEM_MOLECULAR_FORMULA>
C7H10N2O4

> <PUBCHEM_MOLECULAR_WEIGHT>
186.1653

> <PUBCHEM_OPENEYE_CAN_SMILES>
C(CN)C#N.C(=CC(=O)O)C(=O)O

> <PUBCHEM_OPENEYE_ISO_SMILES>
C(CN)C#N.C(=CC(=O)O)C(=O)O

> <PUBCHEM_CACTVS_TPSA>
124

> <PUBCHEM_MONOISOTOPIC_WEIGHT>
186.064057

> <PUBCHEM_TOTAL_CHARGE>
0

> <PUBCHEM_HEAVY_ATOM_COUNT>
13

> <PUBCHEM_ATOM_DEF_STEREO_COUNT>
0

> <PUBCHEM_ATOM_UDEF_STEREO_COUNT>
0

> <PUBCHEM_BOND_DEF_STEREO_COUNT>
0

> <PUBCHEM_BOND_UDEF_STEREO_COUNT>
1

> <PUBCHEM_ISOTOPIC_ATOM_COUNT>
0

> <PUBCHEM_COMPONENT_COUNT>
2

> <PUBCHEM_CACTVS_TAUTO_COUNT>
1

> <PUBCHEM_COORDINATE_TYPE>
1
5
255

> <PUBCHEM_BONDANNOTATIONS>
10  11  1

$$$$

