582822
  -OEChem-06241222442D

 19 18  0     0  0  0  0  0  0999 V2000
    4.0981    0.8060    0.0000 F   0  0  0  0  0  0  0  0  0  0  0  0
    5.0981   -0.9260    0.0000 F   0  0  0  0  0  0  0  0  0  0  0  0
    5.9641   -0.4260    0.0000 F   0  0  0  0  0  0  0  0  0  0  0  0
    4.9641    1.3060    0.0000 F   0  0  0  0  0  0  0  0  0  0  0  0
    3.2320    0.3060    0.0000 F   0  0  0  0  0  0  0  0  0  0  0  0
    4.2320   -1.4260    0.0000 F   0  0  0  0  0  0  0  0  0  0  0  0
    6.8301    0.0740    0.0000 F   0  0  0  0  0  0  0  0  0  0  0  0
    5.8301    1.8060    0.0000 F   0  0  0  0  0  0  0  0  0  0  0  0
    2.0000   -0.5600    0.0000 F   0  0  0  0  0  0  0  0  0  0  0  0
    2.8660   -2.0600    0.0000 F   0  0  0  0  0  0  0  0  0  0  0  0
    8.0622    0.9400    0.0000 O   0  0  0  0  0  0  0  0  0  0  0  0
    4.5981   -0.0600    0.0000 C   0  0  0  0  0  0  0  0  0  0  0  0
    5.4641    0.4400    0.0000 C   0  0  0  0  0  0  0  0  0  0  0  0
    3.7320   -0.5600    0.0000 C   0  0  0  0  0  0  0  0  0  0  0  0
    6.3301    0.9400    0.0000 C   0  0  0  0  0  0  0  0  0  0  0  0
    2.8660   -1.0600    0.0000 C   0  0  0  0  0  0  0  0  0  0  0  0
    7.1962    1.4400    0.0000 C   0  0  0  0  0  0  0  0  0  0  0  0
    2.8660   -0.4400    0.0000 H   0  0  0  0  0  0  0  0  0  0  0  0
    7.1962    2.0600    0.0000 H   0  0  0  0  0  0  0  0  0  0  0  0
  1 12  1  0  0  0  0
  2 12  1  0  0  0  0
  3 13  1  0  0  0  0
  4 13  1  0  0  0  0
  5 14  1  0  0  0  0
  6 14  1  0  0  0  0
  7 15  1  0  0  0  0
  8 15  1  0  0  0  0
  9 16  1  0  0  0  0
 10 16  1  0  0  0  0
 11 17  2  0  0  0  0
 12 13  1  0  0  0  0
 12 14  1  0  0  0  0
 13 15  1  0  0  0  0
 14 16  1  0  0  0  0
 15 17  1  0  0  0  0
 16 18  1  0  0  0  0
 17 19  1  0  0  0  0
M  END
> <PUBCHEM_COMPOUND_CID>
582822

> <PUBCHEM_COMPOUND_CANONICALIZED>
1

> <PUBCHEM_CACTVS_COMPLEXITY>
295

> <PUBCHEM_CACTVS_HBOND_ACCEPTOR>
11

> <PUBCHEM_CACTVS_HBOND_DONOR>
0

> <PUBCHEM_CACTVS_ROTATABLE_BOND>
5

> <PUBCHEM_CACTVS_SUBSKEYS>
AAADcQBgIcAAAAAAAAAAAAAAAAAAAAAAAAAAAAAAAAAAAAAAAAAAGwAAAAAACACggBIAAAAAAAAIAAgQgAAAAAAAAAAAAAEAAAAAABIAAAAAAAAAAAAAAAEICAAAAAAAAAAAAAAAAAAAAAAAAAAAAAAAAA==

> <PUBCHEM_IUPAC_OPENEYE_NAME>
2,2,3,3,4,4,5,5,6,6-decafluorohexanal

> <PUBCHEM_IUPAC_CAS_NAME>
2,2,3,3,4,4,5,5,6,6-decafluorohexanal

> <PUBCHEM_IUPAC_NAME>
2,2,3,3,4,4,5,5,6,6-decafluorohexanal

> <PUBCHEM_IUPAC_SYSTEMATIC_NAME>
2,2,3,3,4,4,5,5,6,6-decakis(fluoranyl)hexanal

> <PUBCHEM_IUPAC_TRADITIONAL_NAME>
2,2,3,3,4,4,5,5,6,6-decafluorohexanal

> <PUBCHEM_IUPAC_INCHI>
InChI=1S/C6H2F10O/c7-2(8)4(11,12)6(15,16)5(13,14)3(9,10)1-17/h1-2H

> <PUBCHEM_IUPAC_INCHIKEY>
AMLSPSUVDSSZTR-UHFFFAOYSA-N

> <PUBCHEM_XLOGP3_AA>
3.3

> <PUBCHEM_EXACT_MASS>
279.994597

> <PUBCHEM_MOLECULAR_FORMULA>
C6H2F10O

> <PUBCHEM_MOLECULAR_WEIGHT>
280.063512

> <PUBCHEM_OPENEYE_CAN_SMILES>
C(=O)C(C(C(C(C(F)F)(F)F)(F)F)(F)F)(F)F

> <PUBCHEM_OPENEYE_ISO_SMILES>
C(=O)C(C(C(C(C(F)F)(F)F)(F)F)(F)F)(F)F

> <PUBCHEM_CACTVS_TPSA>
17.1

> <PUBCHEM_MONOISOTOPIC_WEIGHT>
279.994597

> <PUBCHEM_TOTAL_CHARGE>
0

> <PUBCHEM_HEAVY_ATOM_COUNT>
17

> <PUBCHEM_ATOM_DEF_STEREO_COUNT>
0

> <PUBCHEM_ATOM_UDEF_STEREO_COUNT>
0

> <PUBCHEM_BOND_DEF_STEREO_COUNT>
0

> <PUBCHEM_BOND_UDEF_STEREO_COUNT>
0

> <PUBCHEM_ISOTOPIC_ATOM_COUNT>
0

> <PUBCHEM_COMPONENT_COUNT>
1

> <PUBCHEM_CACTVS_TAUTO_COUNT>
1

> <PUBCHEM_COORDINATE_TYPE>
1
5
255

$$$$

