197301
  -OEChem-07051213122D

 39 41  0     0  0  0  0  0  0999 V2000
    6.0682    0.9728    0.0000 O   0  0  0  0  0  0  0  0  0  0  0  0
    6.0682   -3.0272    0.0000 O   0  0  0  0  0  0  0  0  0  0  0  0
    9.5984   -2.0514    0.0000 O   0  0  0  0  0  0  0  0  0  0  0  0
    4.3198    1.0074    0.0000 O   0  0  0  0  0  0  0  0  0  0  0  0
    2.5381   -2.0514    0.0000 O   0  0  0  0  0  0  0  0  0  0  0  0
    7.8282    0.0074    0.0000 C   0  0  0  0  0  0  0  0  0  0  0  0
    6.9343   -0.5272    0.0000 C   0  0  0  0  0  0  0  0  0  0  0  0
    7.8167    1.0074    0.0000 C   0  0  0  0  0  0  0  0  0  0  0  0
    6.9343   -1.5272    0.0000 C   0  0  0  0  0  0  0  0  0  0  0  0
    8.6768    1.5173    0.0000 C   0  0  0  0  0  0  0  0  0  0  0  0
    6.0682   -0.0272    0.0000 C   0  0  0  0  0  0  0  0  0  0  0  0
    5.2022   -0.5272    0.0000 C   0  0  0  0  0  0  0  0  0  0  0  0
    5.2022   -1.5272    0.0000 C   0  0  0  0  0  0  0  0  0  0  0  0
    6.0682   -2.0272    0.0000 C   0  0  0  0  0  0  0  0  0  0  0  0
    8.7343   -0.5064    0.0000 C   0  0  0  0  0  0  0  0  0  0  0  0
    8.6653    2.5173    0.0000 C   0  0  0  0  0  0  0  0  0  0  0  0
    7.8282   -2.0619    0.0000 C   0  0  0  0  0  0  0  0  0  0  0  0
    8.7343   -1.5481    0.0000 C   0  0  0  0  0  0  0  0  0  0  0  0
    4.3083    0.0074    0.0000 C   0  0  0  0  0  0  0  0  0  0  0  0
    4.3083   -2.0619    0.0000 C   0  0  0  0  0  0  0  0  0  0  0  0
    9.5255    3.0272    0.0000 C   0  0  0  0  0  0  0  0  0  0  0  0
    3.4022   -1.5481    0.0000 C   0  0  0  0  0  0  0  0  0  0  0  0
    3.4022   -0.5064    0.0000 C   0  0  0  0  0  0  0  0  0  0  0  0
    7.5979    1.5875    0.0000 H   0  0  0  0  0  0  0  0  0  0  0  0
    7.2074    0.8926    0.0000 H   0  0  0  0  0  0  0  0  0  0  0  0
    8.8956    0.9372    0.0000 H   0  0  0  0  0  0  0  0  0  0  0  0
    9.2861    1.6320    0.0000 H   0  0  0  0  0  0  0  0  0  0  0  0
    9.2700   -0.1944    0.0000 H   0  0  0  0  0  0  0  0  0  0  0  0
    8.4465    3.0974    0.0000 H   0  0  0  0  0  0  0  0  0  0  0  0
    8.0560    2.4026    0.0000 H   0  0  0  0  0  0  0  0  0  0  0  0
    7.8210   -2.6819    0.0000 H   0  0  0  0  0  0  0  0  0  0  0  0
    4.3154   -2.6819    0.0000 H   0  0  0  0  0  0  0  0  0  0  0  0
    9.8416    2.4939    0.0000 H   0  0  0  0  0  0  0  0  0  0  0  0
   10.0588    3.3434    0.0000 H   0  0  0  0  0  0  0  0  0  0  0  0
    9.2093    3.5606    0.0000 H   0  0  0  0  0  0  0  0  0  0  0  0
    2.8665   -0.1944    0.0000 H   0  0  0  0  0  0  0  0  0  0  0  0
   10.1365   -1.7435    0.0000 H   0  0  0  0  0  0  0  0  0  0  0  0
    3.7865    1.3235    0.0000 H   0  0  0  0  0  0  0  0  0  0  0  0
    2.0000   -1.7435    0.0000 H   0  0  0  0  0  0  0  0  0  0  0  0
  1 11  2  0  0  0  0
  2 14  2  0  0  0  0
  3 18  1  0  0  0  0
  3 37  1  0  0  0  0
  4 19  1  0  0  0  0
  4 38  1  0  0  0  0
  5 22  1  0  0  0  0
  5 39  1  0  0  0  0
  6  7  2  0  0  0  0
  6  8  1  0  0  0  0
  6 15  1  0  0  0  0
  7  9  1  0  0  0  0
  7 11  1  0  0  0  0
  8 10  1  0  0  0  0
  8 24  1  0  0  0  0
  8 25  1  0  0  0  0
  9 14  1  0  0  0  0
  9 17  2  0  0  0  0
 10 16  1  0  0  0  0
 10 26  1  0  0  0  0
 10 27  1  0  0  0  0
 11 12  1  0  0  0  0
 12 13  2  0  0  0  0
 12 19  1  0  0  0  0
 13 14  1  0  0  0  0
 13 20  1  0  0  0  0
 15 18  2  0  0  0  0
 15 28  1  0  0  0  0
 16 21  1  0  0  0  0
 16 29  1  0  0  0  0
 16 30  1  0  0  0  0
 17 18  1  0  0  0  0
 17 31  1  0  0  0  0
 19 23  2  0  0  0  0
 20 22  2  0  0  0  0
 20 32  1  0  0  0  0
 21 33  1  0  0  0  0
 21 34  1  0  0  0  0
 21 35  1  0  0  0  0
 22 23  1  0  0  0  0
 23 36  1  0  0  0  0
M  END
> <PUBCHEM_COMPOUND_CID>
197301

> <PUBCHEM_COMPOUND_CANONICALIZED>
1

> <PUBCHEM_CACTVS_COMPLEXITY>
476

> <PUBCHEM_CACTVS_HBOND_ACCEPTOR>
5

> <PUBCHEM_CACTVS_HBOND_DONOR>
3

> <PUBCHEM_CACTVS_ROTATABLE_BOND>
3

> <PUBCHEM_CACTVS_SUBSKEYS>
AAADceB4OAAAAAAAAAAAAAAAAAAAAAAAAAAwYMAAAAAAAADBQAAAGgAACAAADASAmAAyBoAAAgCIAqBSAAACAAAkIAAAiAEGCMgIJzaCFRKAcUAl4BUImYeL7PTOoAADCAAYAADAAAYQADAAAAAAAAAAAA==

> <PUBCHEM_IUPAC_OPENEYE_NAME>
1-butyl-3,6,8-trihydroxy-anthracene-9,10-dione

> <PUBCHEM_IUPAC_CAS_NAME>
1-butyl-3,6,8-trihydroxyanthracene-9,10-dione

> <PUBCHEM_IUPAC_NAME>
1-butyl-3,6,8-trihydroxyanthracene-9,10-dione

> <PUBCHEM_IUPAC_SYSTEMATIC_NAME>
1-butyl-3,6,8-tris(oxidanyl)anthracene-9,10-dione

> <PUBCHEM_IUPAC_TRADITIONAL_NAME>
1-butyl-3,6,8-trihydroxy-9,10-anthraquinone

> <PUBCHEM_IUPAC_INCHI>
InChI=1S/C18H16O5/c1-2-3-4-9-5-10(19)6-12-15(9)18(23)16-13(17(12)22)7-11(20)8-14(16)21/h5-8,19-21H,2-4H2,1H3

> <PUBCHEM_IUPAC_INCHIKEY>
PPZYTBDLRLLDOP-UHFFFAOYSA-N

> <PUBCHEM_XLOGP3_AA>
4.2

> <PUBCHEM_EXACT_MASS>
312.099774

> <PUBCHEM_MOLECULAR_FORMULA>
C18H16O5

> <PUBCHEM_MOLECULAR_WEIGHT>
312.31664

> <PUBCHEM_OPENEYE_CAN_SMILES>
CCCCC1=C2C(=CC(=C1)O)C(=O)C3=CC(=CC(=C3C2=O)O)O

> <PUBCHEM_OPENEYE_ISO_SMILES>
CCCCC1=C2C(=CC(=C1)O)C(=O)C3=CC(=CC(=C3C2=O)O)O

> <PUBCHEM_CACTVS_TPSA>
94.8

> <PUBCHEM_MONOISOTOPIC_WEIGHT>
312.099774

> <PUBCHEM_TOTAL_CHARGE>
0

> <PUBCHEM_HEAVY_ATOM_COUNT>
23

> <PUBCHEM_ATOM_DEF_STEREO_COUNT>
0

> <PUBCHEM_ATOM_UDEF_STEREO_COUNT>
0

> <PUBCHEM_BOND_DEF_STEREO_COUNT>
0

> <PUBCHEM_BOND_UDEF_STEREO_COUNT>
0

> <PUBCHEM_ISOTOPIC_ATOM_COUNT>
0

> <PUBCHEM_COMPONENT_COUNT>
1

> <PUBCHEM_CACTVS_TAUTO_COUNT>
998

> <PUBCHEM_COORDINATE_TYPE>
1
5
255

> <PUBCHEM_BONDANNOTATIONS>
12  13  8
12  19  8
13  20  8
15  18  8
17  18  8
19  23  8
20  22  8
22  23  8
6  15  8
6  7  8
7  9  8
9  17  8

$$$$

