440093
  -OEChem-07051212482D

 57 60  0     1  0  0  0  0  0999 V2000
    5.0474    1.6239    0.0000 P   0  0  3  0  0  0  0  0  0  0  0  0
    4.4026   -1.8293    0.0000 O   0  0  0  0  0  0  0  0  0  0  0  0
    6.7523   -0.7456    0.0000 O   0  0  0  0  0  0  0  0  0  0  0  0
    6.7485   -2.9212    0.0000 O   0  0  0  0  0  0  0  0  0  0  0  0
    5.3548    0.6723    0.0000 O   0  0  0  0  0  0  0  0  0  0  0  0
    5.9990    1.9312    0.0000 O   0  0  0  0  0  0  0  0  0  0  0  0
    4.0958    1.3165    0.0000 O   0  0  0  0  0  0  0  0  0  0  0  0
    7.0586    3.8498    0.0000 O   0  0  0  0  0  0  0  0  0  0  0  0
    6.6956    2.1562    0.0000 O   0  0  0  0  0  0  0  0  0  0  0  0
    4.6783   -3.5899    0.0000 N   0  0  0  0  0  0  0  0  0  0  0  0
    4.6783   -5.1993    0.0000 N   0  0  0  0  0  0  0  0  0  0  0  0
    4.7400    2.5754    0.0000 N   0  0  0  0  0  0  0  0  0  0  0  0
    2.8660   -3.3946    0.0000 N   0  0  0  0  0  0  0  0  0  0  0  0
    2.0000   -4.8946    0.0000 N   0  0  0  0  0  0  0  0  0  0  0  0
    2.8660   -6.3946    0.0000 N   0  0  0  0  0  0  0  0  0  0  0  0
    5.9422   -1.3320    0.0000 C   0  0  1  0  0  0  0  0  0  0  0  0
    5.9405   -2.3320    0.0000 C   0  0  2  0  0  0  0  0  0  0  0  0
    4.9917   -1.0213    0.0000 C   0  0  1  0  0  0  0  0  0  0  0  0
    4.9889   -2.6393    0.0000 C   0  0  1  0  0  0  0  0  0  0  0  0
    4.6844   -0.0697    0.0000 C   0  0  0  0  0  0  0  0  0  0  0  0
    3.7320   -3.8946    0.0000 C   0  0  0  0  0  0  0  0  0  0  0  0
    5.2619   -4.3946    0.0000 C   0  0  0  0  0  0  0  0  0  0  0  0
    3.7320   -4.8946    0.0000 C   0  0  0  0  0  0  0  0  0  0  0  0
    5.4104    3.3174    0.0000 C   0  0  1  0  0  0  0  0  0  0  0  0
    2.8660   -5.3946    0.0000 C   0  0  0  0  0  0  0  0  0  0  0  0
    5.1031    4.2690    0.0000 C   0  0  0  0  0  0  0  0  0  0  0  0
    2.0000   -3.8946    0.0000 C   0  0  0  0  0  0  0  0  0  0  0  0
    5.7735    5.0110    0.0000 C   0  0  0  0  0  0  0  0  0  0  0  0
    6.3882    3.1078    0.0000 C   0  0  0  0  0  0  0  0  0  0  0  0
    6.7513    4.8014    0.0000 C   0  0  0  0  0  0  0  0  0  0  0  0
    5.4661    5.9626    0.0000 C   0  0  0  0  0  0  0  0  0  0  0  0
    7.4217    5.5434    0.0000 C   0  0  0  0  0  0  0  0  0  0  0  0
    6.1365    6.7046    0.0000 C   0  0  0  0  0  0  0  0  0  0  0  0
    7.1143    6.4950    0.0000 C   0  0  0  0  0  0  0  0  0  0  0  0
    6.4942   -1.6144    0.0000 H   0  0  0  0  0  0  0  0  0  0  0  0
    5.8425   -2.9442    0.0000 H   0  0  0  0  0  0  0  0  0  0  0  0
    4.3795   -0.9233    0.0000 H   0  0  0  0  0  0  0  0  0  0  0  0
    5.4266   -3.0785    0.0000 H   0  0  0  0  0  0  0  0  0  0  0  0
    4.3035    0.4195    0.0000 H   0  0  0  0  0  0  0  0  0  0  0  0
    4.1364   -0.3598    0.0000 H   0  0  0  0  0  0  0  0  0  0  0  0
    7.3182   -0.9987    0.0000 H   0  0  0  0  0  0  0  0  0  0  0  0
    7.3154   -2.6700    0.0000 H   0  0  0  0  0  0  0  0  0  0  0  0
    5.8819   -4.3946    0.0000 H   0  0  0  0  0  0  0  0  0  0  0  0
    4.1338    2.7054    0.0000 H   0  0  0  0  0  0  0  0  0  0  0  0
    5.6010    2.7274    0.0000 H   0  0  0  0  0  0  0  0  0  0  0  0
    4.7222    4.7582    0.0000 H   0  0  0  0  0  0  0  0  0  0  0  0
    4.5552    3.9789    0.0000 H   0  0  0  0  0  0  0  0  0  0  0  0
    1.4631   -3.5846    0.0000 H   0  0  0  0  0  0  0  0  0  0  0  0
    6.4590    1.5156    0.0000 H   0  0  0  0  0  0  0  0  0  0  0  0
    2.3291   -6.7046    0.0000 H   0  0  0  0  0  0  0  0  0  0  0  0
    3.4030   -6.7046    0.0000 H   0  0  0  0  0  0  0  0  0  0  0  0
    6.9418    4.2114    0.0000 H   0  0  0  0  0  0  0  0  0  0  0  0
    4.8599    6.0926    0.0000 H   0  0  0  0  0  0  0  0  0  0  0  0
    8.0279    5.4134    0.0000 H   0  0  0  0  0  0  0  0  0  0  0  0
    5.9460    7.2946    0.0000 H   0  0  0  0  0  0  0  0  0  0  0  0
    7.6649    3.7199    0.0000 H   0  0  0  0  0  0  0  0  0  0  0  0
    7.5300    6.9550    0.0000 H   0  0  0  0  0  0  0  0  0  0  0  0
  1  5  1  0  0  0  0
  1  6  1  0  0  0  0
  1  7  2  0  0  0  0
  1 12  1  0  0  0  0
  2 18  1  0  0  0  0
  2 19  1  0  0  0  0
 16  3  1  1  0  0  0
  3 41  1  0  0  0  0
 17  4  1  1  0  0  0
  4 42  1  0  0  0  0
  5 20  1  0  0  0  0
  6 49  1  0  0  0  0
  8 29  1  0  0  0  0
  8 56  1  0  0  0  0
  9 29  2  0  0  0  0
 19 10  1  6  0  0  0
 10 21  1  0  0  0  0
 10 22  1  0  0  0  0
 11 22  2  0  0  0  0
 11 23  1  0  0  0  0
 24 12  1  1  0  0  0
 12 44  1  0  0  0  0
 13 21  2  0  0  0  0
 13 27  1  0  0  0  0
 14 25  1  0  0  0  0
 14 27  2  0  0  0  0
 15 25  1  0  0  0  0
 15 50  1  0  0  0  0
 15 51  1  0  0  0  0
 16 17  1  0  0  0  0
 16 18  1  0  0  0  0
 16 35  1  0  0  0  0
 17 19  1  0  0  0  0
 17 36  1  0  0  0  0
 18 20  1  6  0  0  0
 18 37  1  0  0  0  0
 19 38  1  0  0  0  0
 20 39  1  0  0  0  0
 20 40  1  0  0  0  0
 21 23  1  0  0  0  0
 22 43  1  0  0  0  0
 23 25  2  0  0  0  0
 24 26  1  0  0  0  0
 24 29  1  0  0  0  0
 24 45  1  0  0  0  0
 26 28  1  0  0  0  0
 26 46  1  0  0  0  0
 26 47  1  0  0  0  0
 27 48  1  0  0  0  0
 28 30  2  0  0  0  0
 28 31  1  0  0  0  0
 30 32  1  0  0  0  0
 30 52  1  0  0  0  0
 31 33  2  0  0  0  0
 31 53  1  0  0  0  0
 32 34  2  0  0  0  0
 32 54  1  0  0  0  0
 33 34  1  0  0  0  0
 33 55  1  0  0  0  0
 34 57  1  0  0  0  0
M  END
> <PUBCHEM_COMPOUND_CID>
440093

> <PUBCHEM_COMPOUND_CANONICALIZED>
1

> <PUBCHEM_CACTVS_COMPLEXITY>
760

> <PUBCHEM_CACTVS_HBOND_ACCEPTOR>
13

> <PUBCHEM_CACTVS_HBOND_DONOR>
6

> <PUBCHEM_CACTVS_ROTATABLE_BOND>
9

> <PUBCHEM_CACTVS_SUBSKEYS>
AAADceB7vAIAAAAAAAAAAAAAAAAAAWJAAAA8QAAAAAAAAFgB/AAAHgAQiCAADDzhnwY1+L9MFxCoQybzbICCgC0xEKAJ2KGoVJiLeDLA2VGeZAgvkALbiCf4+KKOAAAAAAAAAAAAAAAAAAAAAAAAAAAAAA==

> <PUBCHEM_IUPAC_OPENEYE_NAME>
(2S)-2-[[[(2R,3S,4R,5R)-5-(6-aminopurin-9-yl)-3,4-dihydroxy-tetrahydrofuran-2-yl]methoxy-hydroxy-phosphoryl]amino]-3-phenyl-propanoic acid

> <PUBCHEM_IUPAC_CAS_NAME>
(2S)-2-[[[(2R,3S,4R,5R)-5-(6-aminopurin-9-yl)-3,4-dihydroxy-2-oxolanyl]methoxy-hydroxyphosphoryl]amino]-3-phenylpropanoic acid

> <PUBCHEM_IUPAC_NAME>
(2S)-2-[[[(2R,3S,4R,5R)-5-(6-aminopurin-9-yl)-3,4-dihydroxyoxolan-2-yl]methoxy-hydroxyphosphoryl]amino]-3-phenylpropanoic acid

> <PUBCHEM_IUPAC_SYSTEMATIC_NAME>
(2S)-2-[[[(2R,3S,4R,5R)-5-(6-aminopurin-9-yl)-3,4-bis(oxidanyl)oxolan-2-yl]methoxy-oxidanyl-phosphoryl]amino]-3-phenyl-propanoic acid

> <PUBCHEM_IUPAC_TRADITIONAL_NAME>
(2S)-2-[[[(2R,3S,4R,5R)-5-adenin-9-yl-3,4-dihydroxy-tetrahydrofuran-2-yl]methoxy-hydroxy-phosphoryl]amino]-3-phenyl-propionic acid

> <PUBCHEM_IUPAC_INCHI>
InChI=1S/C19H23N6O8P/c20-16-13-17(22-8-21-16)25(9-23-13)18-15(27)14(26)12(33-18)7-32-34(30,31)24-11(19(28)29)6-10-4-2-1-3-5-10/h1-5,8-9,11-12,14-15,18,26-27H,6-7H2,(H,28,29)(H2,20,21,22)(H2,24,30,31)/t11-,12+,14+,15+,18+/m0/s1

> <PUBCHEM_IUPAC_INCHIKEY>
OXCQKAQOLIIWJO-URQYDQELSA-N

> <PUBCHEM_XLOGP3>
-1.7

> <PUBCHEM_EXACT_MASS>
494.131498

> <PUBCHEM_MOLECULAR_FORMULA>
C19H23N6O8P

> <PUBCHEM_MOLECULAR_WEIGHT>
494.395082

> <PUBCHEM_OPENEYE_CAN_SMILES>
C1=CC=C(C=C1)CC(C(=O)O)NP(=O)(O)OCC2C(C(C(O2)N3C=NC4=C3N=CN=C4N)O)O

> <PUBCHEM_OPENEYE_ISO_SMILES>
C1=CC=C(C=C1)C[C@@H](C(=O)O)NP(=O)(O)OC[C@@H]2[C@H]([C@H]([C@@H](O2)N3C=NC4=C3N=CN=C4N)O)O

> <PUBCHEM_CACTVS_TPSA>
215

> <PUBCHEM_MONOISOTOPIC_WEIGHT>
494.131498

> <PUBCHEM_TOTAL_CHARGE>
0

> <PUBCHEM_HEAVY_ATOM_COUNT>
34

> <PUBCHEM_ATOM_DEF_STEREO_COUNT>
5

> <PUBCHEM_ATOM_UDEF_STEREO_COUNT>
0

> <PUBCHEM_BOND_DEF_STEREO_COUNT>
0

> <PUBCHEM_BOND_UDEF_STEREO_COUNT>
0

> <PUBCHEM_ISOTOPIC_ATOM_COUNT>
0

> <PUBCHEM_COMPONENT_COUNT>
1

> <PUBCHEM_CACTVS_TAUTO_COUNT>
6

> <PUBCHEM_COORDINATE_TYPE>
1
5
255

> <PUBCHEM_BONDANNOTATIONS>
19  10  6
10  21  8
10  22  8
11  22  8
11  23  8
24  12  5
13  21  8
13  27  8
14  25  8
14  27  8
18  20  6
21  23  8
23  25  8
28  30  8
28  31  8
16  3  5
30  32  8
31  33  8
32  34  8
33  34  8
17  4  5

$$$$

