10571
  -OEChem-06261204422D

 64 68  0     1  0  0  0  0  0999 V2000
    7.9288   -2.0254    0.0000 O   0  0  0  0  0  0  0  0  0  0  0  0
   10.4586   -0.5254    0.0000 O   0  0  0  0  0  0  0  0  0  0  0  0
    2.5357   -3.0778    0.0000 O   0  0  0  0  0  0  0  0  0  0  0  0
    9.1885    2.8479    0.0000 O   0  0  0  0  0  0  0  0  0  0  0  0
   10.9491    3.1236    0.0000 O   0  0  0  0  0  0  0  0  0  0  0  0
   11.9586   -1.3914    0.0000 O   0  0  0  0  0  0  0  0  0  0  0  0
    7.9288   -1.0254    0.0000 C   0  0  1  0  0  0  0  0  0  0  0  0
    7.0628   -1.5254    0.0000 C   0  0  3  0  0  0  0  0  0  0  0  0
    7.9288   -0.0254    0.0000 C   0  0  1  0  0  0  0  0  0  0  0  0
    6.1968   -1.0254    0.0000 C   0  0  3  0  0  0  0  0  0  0  0  0
    5.2868   -1.5323    0.0000 C   0  0  2  0  0  0  0  0  0  0  0  0
    8.8750    0.2793    0.0000 C   0  0  2  0  0  0  0  0  0  0  0  0
    5.2787   -2.5739    0.0000 C   0  0  2  0  0  0  0  0  0  0  0  0
    7.0628    0.4746    0.0000 C   0  0  0  0  0  0  0  0  0  0  0  0
    6.1968   -0.0254    0.0000 C   0  0  0  0  0  0  0  0  0  0  0  0
    8.8750   -1.3302    0.0000 C   0  0  0  0  0  0  0  0  0  0  0  0
    7.0789   -2.5669    0.0000 C   0  0  0  0  0  0  0  0  0  0  0  0
    9.4586   -0.5254    0.0000 C   0  0  2  0  0  0  0  0  0  0  0  0
    6.1808   -3.0947    0.0000 C   0  0  0  0  0  0  0  0  0  0  0  0
    4.3599   -0.9682    0.0000 C   0  0  0  0  0  0  0  0  0  0  0  0
    7.9288    0.9746    0.0000 C   0  0  0  0  0  0  0  0  0  0  0  0
    4.3433   -3.1236    0.0000 C   0  0  0  0  0  0  0  0  0  0  0  0
    5.2945   -0.5323    0.0000 C   0  0  0  0  0  0  0  0  0  0  0  0
    3.4120   -1.4961    0.0000 C   0  0  0  0  0  0  0  0  0  0  0  0
    3.4037   -2.5811    0.0000 C   0  0  2  0  0  0  0  0  0  0  0  0
    9.1857    1.2298    0.0000 C   0  0  0  0  0  0  0  0  0  0  0  0
    8.5993    2.0399    0.0000 C   0  0  0  0  0  0  0  0  0  0  0  0
   10.1373    1.5372    0.0000 C   0  0  0  0  0  0  0  0  0  0  0  0
   10.1390    2.5372    0.0000 C   0  0  0  0  0  0  0  0  0  0  0  0
   10.9586   -1.3914    0.0000 C   0  0  0  0  0  0  0  0  0  0  0  0
    7.8022   -1.9447    0.0000 H   0  0  0  0  0  0  0  0  0  0  0  0
    6.9329   -0.6004    0.0000 H   0  0  0  0  0  0  0  0  0  0  0  0
    9.4875    0.3755    0.0000 H   0  0  0  0  0  0  0  0  0  0  0  0
    5.2820   -3.4239    0.0000 H   0  0  0  0  0  0  0  0  0  0  0  0
    7.4613    0.9495    0.0000 H   0  0  0  0  0  0  0  0  0  0  0  0
    6.6643    0.9495    0.0000 H   0  0  0  0  0  0  0  0  0  0  0  0
    5.9847    0.5572    0.0000 H   0  0  0  0  0  0  0  0  0  0  0  0
    5.5862   -0.1331    0.0000 H   0  0  0  0  0  0  0  0  0  0  0  0
    8.6240   -1.8971    0.0000 H   0  0  0  0  0  0  0  0  0  0  0  0
    9.4124   -1.6394    0.0000 H   0  0  0  0  0  0  0  0  0  0  0  0
    7.2969   -3.1473    0.0000 H   0  0  0  0  0  0  0  0  0  0  0  0
    7.6880   -2.4514    0.0000 H   0  0  0  0  0  0  0  0  0  0  0  0
    9.7404    0.0269    0.0000 H   0  0  0  0  0  0  0  0  0  0  0  0
    5.7835   -3.5706    0.0000 H   0  0  0  0  0  0  0  0  0  0  0  0
    6.5818   -3.5676    0.0000 H   0  0  0  0  0  0  0  0  0  0  0  0
    4.7681   -0.5015    0.0000 H   0  0  0  0  0  0  0  0  0  0  0  0
    3.9700   -0.4861    0.0000 H   0  0  0  0  0  0  0  0  0  0  0  0
    8.5488    0.9746    0.0000 H   0  0  0  0  0  0  0  0  0  0  0  0
    7.9288    1.5946    0.0000 H   0  0  0  0  0  0  0  0  0  0  0  0
    7.3088    0.9746    0.0000 H   0  0  0  0  0  0  0  0  0  0  0  0
    3.9460   -3.5996    0.0000 H   0  0  0  0  0  0  0  0  0  0  0  0
    4.7443   -3.5965    0.0000 H   0  0  0  0  0  0  0  0  0  0  0  0
    5.9145   -0.5371    0.0000 H   0  0  0  0  0  0  0  0  0  0  0  0
    5.2993    0.0877    0.0000 H   0  0  0  0  0  0  0  0  0  0  0  0
    4.6745   -0.5275    0.0000 H   0  0  0  0  0  0  0  0  0  0  0  0
    3.2075   -0.9108    0.0000 H   0  0  0  0  0  0  0  0  0  0  0  0
    2.8004   -1.5975    0.0000 H   0  0  0  0  0  0  0  0  0  0  0  0
    8.4658   -2.3354    0.0000 H   0  0  0  0  0  0  0  0  0  0  0  0
    2.8686   -2.2680    0.0000 H   0  0  0  0  0  0  0  0  0  0  0  0
    8.1393    2.4555    0.0000 H   0  0  0  0  0  0  0  0  0  0  0  0
    8.1378    1.6258    0.0000 H   0  0  0  0  0  0  0  0  0  0  0  0
   10.6383    1.1719    0.0000 H   0  0  0  0  0  0  0  0  0  0  0  0
    2.0000   -2.7657    0.0000 H   0  0  0  0  0  0  0  0  0  0  0  0
   10.6487   -1.9284    0.0000 H   0  0  0  0  0  0  0  0  0  0  0  0
  7  1  1  1  0  0  0
  1 58  1  0  0  0  0
 18  2  1  1  0  0  0
  2 30  1  0  0  0  0
 25  3  1  1  0  0  0
  3 63  1  0  0  0  0
  4 27  1  0  0  0  0
  4 29  1  0  0  0  0
  5 29  2  0  0  0  0
  6 30  2  0  0  0  0
  7  8  1  0  0  0  0
  7  9  1  0  0  0  0
  7 16  1  0  0  0  0
  8 10  1  0  0  0  0
  8 17  1  0  0  0  0
  8 31  1  0  0  0  0
  9 12  1  0  0  0  0
  9 14  1  0  0  0  0
  9 21  1  1  0  0  0
 10 11  1  0  0  0  0
 10 15  1  0  0  0  0
 10 32  1  0  0  0  0
 11 13  1  0  0  0  0
 11 20  1  0  0  0  0
 11 23  1  1  0  0  0
 12 18  1  0  0  0  0
 12 26  1  1  0  0  0
 12 33  1  0  0  0  0
 13 19  1  0  0  0  0
 13 22  1  0  0  0  0
 13 34  1  1  0  0  0
 14 15  1  0  0  0  0
 14 35  1  0  0  0  0
 14 36  1  0  0  0  0
 15 37  1  0  0  0  0
 15 38  1  0  0  0  0
 16 18  1  0  0  0  0
 16 39  1  0  0  0  0
 16 40  1  0  0  0  0
 17 19  1  0  0  0  0
 17 41  1  0  0  0  0
 17 42  1  0  0  0  0
 18 43  1  0  0  0  0
 19 44  1  0  0  0  0
 19 45  1  0  0  0  0
 20 24  1  0  0  0  0
 20 46  1  0  0  0  0
 20 47  1  0  0  0  0
 21 48  1  0  0  0  0
 21 49  1  0  0  0  0
 21 50  1  0  0  0  0
 22 25  1  0  0  0  0
 22 51  1  0  0  0  0
 22 52  1  0  0  0  0
 23 53  1  0  0  0  0
 23 54  1  0  0  0  0
 23 55  1  0  0  0  0
 24 25  1  0  0  0  0
 24 56  1  0  0  0  0
 24 57  1  0  0  0  0
 25 59  1  0  0  0  0
 26 27  1  0  0  0  0
 26 28  2  0  0  0  0
 27 60  1  0  0  0  0
 27 61  1  0  0  0  0
 28 29  1  0  0  0  0
 28 62  1  0  0  0  0
 30 64  1  0  0  0  0
M  END
> <PUBCHEM_COMPOUND_CID>
10571

> <PUBCHEM_COMPOUND_CANONICALIZED>
1

> <PUBCHEM_CACTVS_COMPLEXITY>
778

> <PUBCHEM_CACTVS_HBOND_ACCEPTOR>
6

> <PUBCHEM_CACTVS_HBOND_DONOR>
2

> <PUBCHEM_CACTVS_ROTATABLE_BOND>
3

> <PUBCHEM_CACTVS_SUBSKEYS>
AAADcfB4OAAAAAAAAAAAAAAAAAAAAYIAAAAwYMAAAAAAAGDAAAAAGgAACAAAD1SggAMCCAAABgCIAiDSiAAAAAAgAAAACAAAAEgAFAIAIQACUAAFwAAIIQPA4PwPgAAAAAAAAADAAAYAADAAAYQADAAAAA==

> <PUBCHEM_IUPAC_OPENEYE_NAME>
[(3S,5R,10S,13R,14S,16S,17R)-3,14-dihydroxy-10,13-dimethyl-17-(5-oxo-2H-furan-3-yl)-1,2,3,4,5,6,7,8,9,11,12,15,16,17-tetradecahydrocyclopenta[a]phenanthren-16-yl] formate

> <PUBCHEM_IUPAC_CAS_NAME>
formic acid [(3S,5R,10S,13R,14S,16S,17R)-3,14-dihydroxy-10,13-dimethyl-17-(5-oxo-2H-furan-3-yl)-1,2,3,4,5,6,7,8,9,11,12,15,16,17-tetradecahydrocyclopenta[a]phenanthren-16-yl] ester

> <PUBCHEM_IUPAC_NAME>
[(3S,5R,10S,13R,14S,16S,17R)-3,14-dihydroxy-10,13-dimethyl-17-(5-oxo-2H-furan-3-yl)-1,2,3,4,5,6,7,8,9,11,12,15,16,17-tetradecahydrocyclopenta[a]phenanthren-16-yl] formate

> <PUBCHEM_IUPAC_SYSTEMATIC_NAME>
[(3S,5R,10S,13R,14S,16S,17R)-10,13-dimethyl-3,14-bis(oxidanyl)-17-(5-oxidanylidene-2H-furan-3-yl)-1,2,3,4,5,6,7,8,9,11,12,15,16,17-tetradecahydrocyclopenta[a]phenanthren-16-yl] methanoate

> <PUBCHEM_IUPAC_TRADITIONAL_NAME>
formic acid [(3S,5R,10S,13R,14S,16S,17R)-3,14-dihydroxy-17-(5-keto-2H-furan-3-yl)-10,13-dimethyl-1,2,3,4,5,6,7,8,9,11,12,15,16,17-tetradecahydrocyclopenta[a]phenanthren-16-yl] ester

> <PUBCHEM_IUPAC_INCHI>
InChI=1S/C24H34O6/c1-22-7-5-16(26)10-15(22)3-4-18-17(22)6-8-23(2)21(14-9-20(27)29-12-14)19(30-13-25)11-24(18,23)28/h9,13,15-19,21,26,28H,3-8,10-12H2,1-2H3/t15-,16+,17?,18?,19+,21+,22+,23-,24+/m1/s1

> <PUBCHEM_IUPAC_INCHIKEY>
WPPUBSWJDJKYDK-DMQWCLGJSA-N

> <PUBCHEM_XLOGP3>
1.9

> <PUBCHEM_EXACT_MASS>
418.235539

> <PUBCHEM_MOLECULAR_FORMULA>
C24H34O6

> <PUBCHEM_MOLECULAR_WEIGHT>
418.52316

> <PUBCHEM_OPENEYE_CAN_SMILES>
CC12CCC(CC1CCC3C2CCC4(C3(CC(C4C5=CC(=O)OC5)OC=O)O)C)O

> <PUBCHEM_OPENEYE_ISO_SMILES>
C[C@]12CC[C@@H](C[C@H]1CCC3C2CC[C@]4([C@@]3(C[C@@H]([C@@H]4C5=CC(=O)OC5)OC=O)O)C)O

> <PUBCHEM_CACTVS_TPSA>
93.1

> <PUBCHEM_MONOISOTOPIC_WEIGHT>
418.235539

> <PUBCHEM_TOTAL_CHARGE>
0

> <PUBCHEM_HEAVY_ATOM_COUNT>
30

> <PUBCHEM_ATOM_DEF_STEREO_COUNT>
7

> <PUBCHEM_ATOM_UDEF_STEREO_COUNT>
2

> <PUBCHEM_BOND_DEF_STEREO_COUNT>
0

> <PUBCHEM_BOND_UDEF_STEREO_COUNT>
0

> <PUBCHEM_ISOTOPIC_ATOM_COUNT>
0

> <PUBCHEM_COMPONENT_COUNT>
1

> <PUBCHEM_CACTVS_TAUTO_COUNT>
1

> <PUBCHEM_COORDINATE_TYPE>
1
5
255

> <PUBCHEM_BONDANNOTATIONS>
7  1  5
10  32  3
11  23  5
12  26  5
13  34  5
18  2  5
25  3  5
8  31  3
9  21  5

$$$$

