440098
  -OEChem-07051212482D

 60 62  0     1  0  0  0  0  0999 V2000
    8.4732   -1.3518    0.0000 P   0  0  3  0  0  0  0  0  0  0  0  0
    6.8909   -0.6473    0.0000 P   0  0  3  0  0  0  0  0  0  0  0  0
    5.0298    1.8173    0.0000 O   0  0  0  0  0  0  0  0  0  0  0  0
    9.7465   -3.0073    0.0000 O   0  0  0  0  0  0  0  0  0  0  0  0
    9.4677   -1.2472    0.0000 O   0  0  0  0  0  0  0  0  0  0  0  0
    3.1330    0.0572    0.0000 O   0  0  0  0  0  0  0  0  0  0  0  0
    2.4608    2.1263    0.0000 O   0  0  0  0  0  0  0  0  0  0  0  0
   12.3156   -3.3163    0.0000 O   0  0  0  0  0  0  0  0  0  0  0  0
   11.6433   -1.2472    0.0000 O   0  0  0  0  0  0  0  0  0  0  0  0
    6.3031    0.1618    0.0000 O   0  0  0  0  0  0  0  0  0  0  0  0
    9.6895   -5.0951    0.0000 O   0  0  0  0  0  0  0  0  0  0  0  0
    7.4787   -1.4563    0.0000 O   0  0  0  0  0  0  0  0  0  0  0  0
   11.4216   -6.0951    0.0000 O   0  0  0  0  0  0  0  0  0  0  0  0
    8.5778   -2.3463    0.0000 O   0  0  0  0  0  0  0  0  0  0  0  0
    2.4888    3.4051    0.0000 O   0  0  0  0  0  0  0  0  0  0  0  0
    8.3687   -0.3572    0.0000 O   0  0  0  0  0  0  0  0  0  0  0  0
    7.6999   -0.0595    0.0000 O   0  0  0  0  0  0  0  0  0  0  0  0
    6.0819   -1.2350    0.0000 O   0  0  0  0  0  0  0  0  0  0  0  0
    4.2208    6.4051    0.0000 O   0  0  0  0  0  0  0  0  0  0  0  0
    4.2208    3.4051    0.0000 N   0  0  0  0  0  0  0  0  0  0  0  0
    3.3548    4.9051    0.0000 N   0  0  0  0  0  0  0  0  0  0  0  0
    3.7208    0.8662    0.0000 C   0  0  1  0  0  0  0  0  0  0  0  0
   10.5555   -3.5951    0.0000 C   0  0  2  0  0  0  0  0  0  0  0  0
    3.4118    1.8173    0.0000 C   0  0  2  0  0  0  0  0  0  0  0  0
    4.7208    0.8662    0.0000 C   0  0  1  0  0  0  0  0  0  0  0  0
   11.3645   -3.0073    0.0000 C   0  0  1  0  0  0  0  0  0  0  0  0
    4.2208    2.4051    0.0000 C   0  0  1  0  0  0  0  0  0  0  0  0
   11.0555   -2.0562    0.0000 C   0  0  2  0  0  0  0  0  0  0  0  0
   10.0555   -2.0562    0.0000 C   0  0  2  0  0  0  0  0  0  0  0  0
   10.5555   -4.5951    0.0000 C   0  0  1  0  0  0  0  0  0  0  0  0
    5.3086    0.0572    0.0000 C   0  0  0  0  0  0  0  0  0  0  0  0
   11.4216   -5.0951    0.0000 C   0  0  0  0  0  0  0  0  0  0  0  0
    3.3548    3.9051    0.0000 C   0  0  0  0  0  0  0  0  0  0  0  0
    5.0868    3.9051    0.0000 C   0  0  0  0  0  0  0  0  0  0  0  0
    5.0868    4.9051    0.0000 C   0  0  0  0  0  0  0  0  0  0  0  0
    4.2208    5.4051    0.0000 C   0  0  0  0  0  0  0  0  0  0  0  0
    3.1085    0.9632    0.0000 H   0  0  0  0  0  0  0  0  0  0  0  0
    9.7982   -3.9810    0.0000 H   0  0  0  0  0  0  0  0  0  0  0  0
    2.9734    1.3789    0.0000 H   0  0  0  0  0  0  0  0  0  0  0  0
    5.3332    0.9632    0.0000 H   0  0  0  0  0  0  0  0  0  0  0  0
   11.4615   -3.6197    0.0000 H   0  0  0  0  0  0  0  0  0  0  0  0
    3.6684    2.6866    0.0000 H   0  0  0  0  0  0  0  0  0  0  0  0
   10.7741   -1.5038    0.0000 H   0  0  0  0  0  0  0  0  0  0  0  0
    9.4432   -2.1532    0.0000 H   0  0  0  0  0  0  0  0  0  0  0  0
   10.0186   -4.2851    0.0000 H   0  0  0  0  0  0  0  0  0  0  0  0
    4.7514   -0.2146    0.0000 H   0  0  0  0  0  0  0  0  0  0  0  0
    5.4795   -0.5388    0.0000 H   0  0  0  0  0  0  0  0  0  0  0  0
   12.0321   -5.2027    0.0000 H   0  0  0  0  0  0  0  0  0  0  0  0
   11.6336   -4.5125    0.0000 H   0  0  0  0  0  0  0  0  0  0  0  0
    3.3852   -0.5092    0.0000 H   0  0  0  0  0  0  0  0  0  0  0  0
    2.0000    1.7114    0.0000 H   0  0  0  0  0  0  0  0  0  0  0  0
   12.7764   -2.9014    0.0000 H   0  0  0  0  0  0  0  0  0  0  0  0
   12.2599   -1.3120    0.0000 H   0  0  0  0  0  0  0  0  0  0  0  0
    5.6238    3.5951    0.0000 H   0  0  0  0  0  0  0  0  0  0  0  0
    9.6895   -5.7151    0.0000 H   0  0  0  0  0  0  0  0  0  0  0  0
    2.8179    5.2151    0.0000 H   0  0  0  0  0  0  0  0  0  0  0  0
    5.6238    5.2151    0.0000 H   0  0  0  0  0  0  0  0  0  0  0  0
   11.9585   -6.4051    0.0000 H   0  0  0  0  0  0  0  0  0  0  0  0
    8.0762   -2.7107    0.0000 H   0  0  0  0  0  0  0  0  0  0  0  0
    7.6351    0.5571    0.0000 H   0  0  0  0  0  0  0  0  0  0  0  0
  1  5  1  0  0  0  0
  1 12  1  0  0  0  0
  1 14  1  0  0  0  0
  1 16  2  0  0  0  0
  2 10  1  0  0  0  0
  2 12  1  0  0  0  0
  2 17  1  0  0  0  0
  2 18  2  0  0  0  0
  3 25  1  0  0  0  0
  3 27  1  0  0  0  0
  4 23  1  0  0  0  0
  4 29  1  0  0  0  0
 29  5  1  6  0  0  0
 22  6  1  1  0  0  0
  6 50  1  0  0  0  0
 24  7  1  1  0  0  0
  7 51  1  0  0  0  0
 26  8  1  1  0  0  0
  8 52  1  0  0  0  0
 28  9  1  6  0  0  0
  9 53  1  0  0  0  0
 10 31  1  0  0  0  0
 30 11  1  1  0  0  0
 11 55  1  0  0  0  0
 13 32  1  0  0  0  0
 13 58  1  0  0  0  0
 14 59  1  0  0  0  0
 15 33  2  0  0  0  0
 17 60  1  0  0  0  0
 19 36  2  0  0  0  0
 27 20  1  6  0  0  0
 20 33  1  0  0  0  0
 20 34  1  0  0  0  0
 21 33  1  0  0  0  0
 21 36  1  0  0  0  0
 21 56  1  0  0  0  0
 22 24  1  0  0  0  0
 22 25  1  0  0  0  0
 22 37  1  0  0  0  0
 23 26  1  0  0  0  0
 23 30  1  0  0  0  0
 23 38  1  1  0  0  0
 24 27  1  0  0  0  0
 24 39  1  0  0  0  0
 25 31  1  6  0  0  0
 25 40  1  0  0  0  0
 26 28  1  0  0  0  0
 26 41  1  0  0  0  0
 27 42  1  0  0  0  0
 28 29  1  0  0  0  0
 28 43  1  0  0  0  0
 29 44  1  0  0  0  0
 30 32  1  0  0  0  0
 30 45  1  0  0  0  0
 31 46  1  0  0  0  0
 31 47  1  0  0  0  0
 32 48  1  0  0  0  0
 32 49  1  0  0  0  0
 34 35  2  0  0  0  0
 34 54  1  0  0  0  0
 35 36  1  0  0  0  0
 35 57  1  0  0  0  0
M  END
> <PUBCHEM_COMPOUND_CID>
440098

> <PUBCHEM_COMPOUND_CANONICALIZED>
1

> <PUBCHEM_CACTVS_COMPLEXITY>
964

> <PUBCHEM_CACTVS_HBOND_ACCEPTOR>
17

> <PUBCHEM_CACTVS_HBOND_DONOR>
9

> <PUBCHEM_CACTVS_ROTATABLE_BOND>
10

> <PUBCHEM_CACTVS_SUBSKEYS>
AAADceBzPgMAAAAAAAAAAAAAAAAAASJAAAAgAAAAAAAAAAAAAAAAHgAQCCAACBTxgAcBCAPABxCIQCFWUICAAAAAAgAIAAAIAECTEAIAgAAOQAAPFyIXAMHwcAYAAAAAAAAAAAAAAAAAAAAAAAAAAAAAAA==

> <PUBCHEM_IUPAC_OPENEYE_NAME>
[(2R,3R,4R,5S)-5-[(1R)-1,2-dihydroxyethyl]-3,4-dihydroxy-tetrahydrofuran-2-yl] [[(2R,3S,4R,5R)-5-(2,4-dioxopyrimidin-1-yl)-3,4-dihydroxy-tetrahydrofuran-2-yl]methoxy-hydroxy-phosphoryl] hydrogen phosphate

> <PUBCHEM_IUPAC_CAS_NAME>
[(2R,3R,4R,5S)-5-[(1R)-1,2-dihydroxyethyl]-3,4-dihydroxy-2-oxolanyl] [[(2R,3S,4R,5R)-5-(2,4-dioxo-1-pyrimidinyl)-3,4-dihydroxy-2-oxolanyl]methoxy-hydroxyphosphoryl] hydrogen phosphate

> <PUBCHEM_IUPAC_NAME>
[(2R,3R,4R,5S)-5-[(1R)-1,2-dihydroxyethyl]-3,4-dihydroxyoxolan-2-yl] [[(2R,3S,4R,5R)-5-(2,4-dioxopyrimidin-1-yl)-3,4-dihydroxyoxolan-2-yl]methoxy-hydroxyphosphoryl] hydrogen phosphate

> <PUBCHEM_IUPAC_SYSTEMATIC_NAME>
[(2R,3R,4R,5S)-5-[(1R)-1,2-bis(oxidanyl)ethyl]-3,4-bis(oxidanyl)oxolan-2-yl] [[(2R,3S,4R,5R)-5-[2,4-bis(oxidanylidene)pyrimidin-1-yl]-3,4-bis(oxidanyl)oxolan-2-yl]methoxy-oxidanyl-phosphoryl] hydrogen phosphate

> <PUBCHEM_IUPAC_TRADITIONAL_NAME>
[(2R,3R,4R,5S)-5-[(1R)-1,2-dihydroxyethyl]-3,4-dihydroxy-tetrahydrofuran-2-yl] [[(2R,3S,4R,5R)-5-(2,4-diketopyrimidin-1-yl)-3,4-dihydroxy-tetrahydrofuran-2-yl]methoxy-hydroxy-phosphoryl] hydrogen phosphate

> <PUBCHEM_IUPAC_INCHI>
InChI=1S/C15H24N2O17P2/c18-3-5(19)12-9(22)11(24)14(32-12)33-36(28,29)34-35(26,27)30-4-6-8(21)10(23)13(31-6)17-2-1-7(20)16-15(17)25/h1-2,5-6,8-14,18-19,21-24H,3-4H2,(H,26,27)(H,28,29)(H,16,20,25)/t5-,6-,8-,9-,10-,11-,12+,13-,14-/m1/s1

> <PUBCHEM_IUPAC_INCHIKEY>
ZQLQOXLUCGXKHS-SIAUPFDVSA-N

> <PUBCHEM_XLOGP3_AA>
-6.6

> <PUBCHEM_EXACT_MASS>
566.055021

> <PUBCHEM_MOLECULAR_FORMULA>
C15H24N2O17P2

> <PUBCHEM_MOLECULAR_WEIGHT>
566.301784

> <PUBCHEM_OPENEYE_CAN_SMILES>
C1=CN(C(=O)NC1=O)C2C(C(C(O2)COP(=O)(O)OP(=O)(O)OC3C(C(C(O3)C(CO)O)O)O)O)O

> <PUBCHEM_OPENEYE_ISO_SMILES>
C1=CN(C(=O)NC1=O)[C@H]2[C@@H]([C@@H]([C@H](O2)COP(=O)(O)OP(=O)(O)O[C@@H]3[C@@H]([C@H]([C@@H](O3)[C@@H](CO)O)O)O)O)O

> <PUBCHEM_CACTVS_TPSA>
292

> <PUBCHEM_MONOISOTOPIC_WEIGHT>
566.055021

> <PUBCHEM_TOTAL_CHARGE>
0

> <PUBCHEM_HEAVY_ATOM_COUNT>
36

> <PUBCHEM_ATOM_DEF_STEREO_COUNT>
9

> <PUBCHEM_ATOM_UDEF_STEREO_COUNT>
0

> <PUBCHEM_BOND_DEF_STEREO_COUNT>
0

> <PUBCHEM_BOND_UDEF_STEREO_COUNT>
0

> <PUBCHEM_ISOTOPIC_ATOM_COUNT>
0

> <PUBCHEM_COMPONENT_COUNT>
1

> <PUBCHEM_CACTVS_TAUTO_COUNT>
3

> <PUBCHEM_COORDINATE_TYPE>
1
5
255

> <PUBCHEM_BONDANNOTATIONS>
30  11  5
27  20  6
20  33  8
20  34  8
21  33  8
21  36  8
23  38  5
25  31  6
34  35  8
35  36  8
29  5  6
22  6  5
24  7  5
26  8  5
28  9  6

$$$$

