17396508
  -OEChem-06241222572D

 49 52  0     0  0  0  0  0  0999 V2000
    9.2619   -2.9872    0.0000 F   0  0  0  0  0  0  0  0  0  0  0  0
    5.6103    0.6691    0.0000 O   0  0  0  0  0  0  0  0  0  0  0  0
    2.6120    2.7992    0.0000 O   0  0  0  0  0  0  0  0  0  0  0  0
    4.6783   -3.7920    0.0000 N   0  0  0  0  0  0  0  0  0  0  0  0
    3.9639    1.2072    0.0000 N   0  0  0  0  0  0  0  0  0  0  0  0
    4.6783   -2.1825    0.0000 C   0  0  0  0  0  0  0  0  0  0  0  0
    4.9889   -1.2320    0.0000 C   0  0  0  0  0  0  0  0  0  0  0  0
    3.7320   -2.4872    0.0000 C   0  0  0  0  0  0  0  0  0  0  0  0
    5.2619   -2.9872    0.0000 C   0  0  0  0  0  0  0  0  0  0  0  0
    3.7320   -3.4872    0.0000 C   0  0  0  0  0  0  0  0  0  0  0  0
    4.3211   -0.4877    0.0000 C   0  0  0  0  0  0  0  0  0  0  0  0
    6.2619   -2.9872    0.0000 C   0  0  0  0  0  0  0  0  0  0  0  0
    2.8660   -1.9872    0.0000 C   0  0  0  0  0  0  0  0  0  0  0  0
    4.6318    0.4629    0.0000 C   0  0  0  0  0  0  0  0  0  0  0  0
    2.8660   -3.9872    0.0000 C   0  0  0  0  0  0  0  0  0  0  0  0
    2.0000   -2.4872    0.0000 C   0  0  0  0  0  0  0  0  0  0  0  0
    2.0000   -3.4872    0.0000 C   0  0  0  0  0  0  0  0  0  0  0  0
    4.2746    2.1577    0.0000 C   0  0  0  0  0  0  0  0  0  0  0  0
    6.7619   -3.8532    0.0000 C   0  0  0  0  0  0  0  0  0  0  0  0
    6.7619   -2.1212    0.0000 C   0  0  0  0  0  0  0  0  0  0  0  0
    2.9854    1.0009    0.0000 C   0  0  0  0  0  0  0  0  0  0  0  0
    3.6067    2.9020    0.0000 C   0  0  0  0  0  0  0  0  0  0  0  0
    7.7619   -3.8532    0.0000 C   0  0  0  0  0  0  0  0  0  0  0  0
    7.7619   -2.1212    0.0000 C   0  0  0  0  0  0  0  0  0  0  0  0
    8.2619   -2.9872    0.0000 C   0  0  0  0  0  0  0  0  0  0  0  0
    3.8163    3.8798    0.0000 C   0  0  0  0  0  0  0  0  0  0  0  0
    2.9512    4.3813    0.0000 C   0  0  0  0  0  0  0  0  0  0  0  0
    2.2069    3.7134    0.0000 C   0  0  0  0  0  0  0  0  0  0  0  0
    5.5359   -1.5240    0.0000 H   0  0  0  0  0  0  0  0  0  0  0  0
    5.3715   -0.7441    0.0000 H   0  0  0  0  0  0  0  0  0  0  0  0
    3.7742   -0.1956    0.0000 H   0  0  0  0  0  0  0  0  0  0  0  0
    3.9385   -0.9756    0.0000 H   0  0  0  0  0  0  0  0  0  0  0  0
    4.8709   -4.3813    0.0000 H   0  0  0  0  0  0  0  0  0  0  0  0
    2.8660   -1.3672    0.0000 H   0  0  0  0  0  0  0  0  0  0  0  0
    2.8660   -4.6072    0.0000 H   0  0  0  0  0  0  0  0  0  0  0  0
    1.4631   -2.1772    0.0000 H   0  0  0  0  0  0  0  0  0  0  0  0
    4.8215    1.8657    0.0000 H   0  0  0  0  0  0  0  0  0  0  0  0
    4.6571    2.6456    0.0000 H   0  0  0  0  0  0  0  0  0  0  0  0
    1.4631   -3.7972    0.0000 H   0  0  0  0  0  0  0  0  0  0  0  0
    6.4519   -4.3902    0.0000 H   0  0  0  0  0  0  0  0  0  0  0  0
    6.4519   -1.5842    0.0000 H   0  0  0  0  0  0  0  0  0  0  0  0
    2.8575    1.6076    0.0000 H   0  0  0  0  0  0  0  0  0  0  0  0
    2.3787    0.8731    0.0000 H   0  0  0  0  0  0  0  0  0  0  0  0
    3.1133    0.3943    0.0000 H   0  0  0  0  0  0  0  0  0  0  0  0
    8.0719   -4.3902    0.0000 H   0  0  0  0  0  0  0  0  0  0  0  0
    8.0719   -1.5842    0.0000 H   0  0  0  0  0  0  0  0  0  0  0  0
    4.3832    4.1310    0.0000 H   0  0  0  0  0  0  0  0  0  0  0  0
    2.8874    4.9980    0.0000 H   0  0  0  0  0  0  0  0  0  0  0  0
    1.6006    3.8434    0.0000 H   0  0  0  0  0  0  0  0  0  0  0  0
  1 25  1  0  0  0  0
  2 14  2  0  0  0  0
  3 22  1  0  0  0  0
  3 28  1  0  0  0  0
  4  9  1  0  0  0  0
  4 10  1  0  0  0  0
  4 33  1  0  0  0  0
  5 14  1  0  0  0  0
  5 18  1  0  0  0  0
  5 21  1  0  0  0  0
  6  7  1  0  0  0  0
  6  8  1  0  0  0  0
  6  9  2  0  0  0  0
  7 11  1  0  0  0  0
  7 29  1  0  0  0  0
  7 30  1  0  0  0  0
  8 10  1  0  0  0  0
  8 13  2  0  0  0  0
  9 12  1  0  0  0  0
 10 15  2  0  0  0  0
 11 14  1  0  0  0  0
 11 31  1  0  0  0  0
 11 32  1  0  0  0  0
 12 19  2  0  0  0  0
 12 20  1  0  0  0  0
 13 16  1  0  0  0  0
 13 34  1  0  0  0  0
 15 17  1  0  0  0  0
 15 35  1  0  0  0  0
 16 17  2  0  0  0  0
 16 36  1  0  0  0  0
 17 39  1  0  0  0  0
 18 22  1  0  0  0  0
 18 37  1  0  0  0  0
 18 38  1  0  0  0  0
 19 23  1  0  0  0  0
 19 40  1  0  0  0  0
 20 24  2  0  0  0  0
 20 41  1  0  0  0  0
 21 42  1  0  0  0  0
 21 43  1  0  0  0  0
 21 44  1  0  0  0  0
 22 26  2  0  0  0  0
 23 25  2  0  0  0  0
 23 45  1  0  0  0  0
 24 25  1  0  0  0  0
 24 46  1  0  0  0  0
 26 27  1  0  0  0  0
 26 47  1  0  0  0  0
 27 28  2  0  0  0  0
 27 48  1  0  0  0  0
 28 49  1  0  0  0  0
M  END
> <PUBCHEM_COMPOUND_CID>
17396508

> <PUBCHEM_COMPOUND_CANONICALIZED>
1

> <PUBCHEM_CACTVS_COMPLEXITY>
523

> <PUBCHEM_CACTVS_HBOND_ACCEPTOR>
3

> <PUBCHEM_CACTVS_HBOND_DONOR>
1

> <PUBCHEM_CACTVS_ROTATABLE_BOND>
6

> <PUBCHEM_CACTVS_SUBSKEYS>
AAADceB7MQAAAAAAAAAAAAAAAAAAAWJAAAAwYAAAAAAAAFgB/AAAHwAQAAAADAzhng4yxPPJlECoA61y1ACCiCAlIiAImSG+bNgOJvLEtbuHOSjk1hHY6YeYmcKegAAAAAACAAAAAAAAAAQAAAAAAAAAAA==

> <PUBCHEM_IUPAC_OPENEYE_NAME>
3-[2-(4-fluorophenyl)-1H-indol-3-yl]-N-(2-furylmethyl)-N-methyl-propanamide

> <PUBCHEM_IUPAC_CAS_NAME>
3-[2-(4-fluorophenyl)-1H-indol-3-yl]-N-(2-furanylmethyl)-N-methylpropanamide

> <PUBCHEM_IUPAC_NAME>
3-[2-(4-fluorophenyl)-1H-indol-3-yl]-N-(furan-2-ylmethyl)-N-methylpropanamide

> <PUBCHEM_IUPAC_SYSTEMATIC_NAME>
3-[2-(4-fluorophenyl)-1H-indol-3-yl]-N-(furan-2-ylmethyl)-N-methyl-propanamide

> <PUBCHEM_IUPAC_TRADITIONAL_NAME>
3-[2-(4-fluorophenyl)-1H-indol-3-yl]-N-(2-furfuryl)-N-methyl-propionamide

> <PUBCHEM_IUPAC_INCHI>
InChI=1S/C23H21FN2O2/c1-26(15-18-5-4-14-28-18)22(27)13-12-20-19-6-2-3-7-21(19)25-23(20)16-8-10-17(24)11-9-16/h2-11,14,25H,12-13,15H2,1H3

> <PUBCHEM_IUPAC_INCHIKEY>
GWLMKRVNQPTUPH-UHFFFAOYSA-N

> <PUBCHEM_XLOGP3_AA>
4.1

> <PUBCHEM_EXACT_MASS>
376.158706

> <PUBCHEM_MOLECULAR_FORMULA>
C23H21FN2O2

> <PUBCHEM_MOLECULAR_WEIGHT>
376.423443

> <PUBCHEM_OPENEYE_CAN_SMILES>
CN(CC1=CC=CO1)C(=O)CCC2=C(NC3=CC=CC=C32)C4=CC=C(C=C4)F

> <PUBCHEM_OPENEYE_ISO_SMILES>
CN(CC1=CC=CO1)C(=O)CCC2=C(NC3=CC=CC=C32)C4=CC=C(C=C4)F

> <PUBCHEM_CACTVS_TPSA>
49.2

> <PUBCHEM_MONOISOTOPIC_WEIGHT>
376.158706

> <PUBCHEM_TOTAL_CHARGE>
0

> <PUBCHEM_HEAVY_ATOM_COUNT>
28

> <PUBCHEM_ATOM_DEF_STEREO_COUNT>
0

> <PUBCHEM_ATOM_UDEF_STEREO_COUNT>
0

> <PUBCHEM_BOND_DEF_STEREO_COUNT>
0

> <PUBCHEM_BOND_UDEF_STEREO_COUNT>
0

> <PUBCHEM_ISOTOPIC_ATOM_COUNT>
0

> <PUBCHEM_COMPONENT_COUNT>
1

> <PUBCHEM_CACTVS_TAUTO_COUNT>
1

> <PUBCHEM_COORDINATE_TYPE>
1
5
255

> <PUBCHEM_BONDANNOTATIONS>
10  15  8
12  19  8
12  20  8
13  16  8
15  17  8
16  17  8
19  23  8
20  24  8
22  26  8
23  25  8
24  25  8
26  27  8
27  28  8
3  22  8
3  28  8
4  10  8
4  9  8
6  8  8
6  9  8
8  10  8
8  13  8

$$$$

