22295962
  -OEChem-07051213082D

 78 81  0     1  0  0  0  0  0999 V2000
    7.9174   -2.6228    0.0000 O   0  0  0  0  0  0  0  0  0  0  0  0
    2.5405   -1.5835    0.0000 O   0  0  0  0  0  0  0  0  0  0  0  0
    2.5244   -3.6751    0.0000 O   0  0  0  0  0  0  0  0  0  0  0  0
    6.1733   -4.6920    0.0000 O   0  0  0  0  0  0  0  0  0  0  0  0
   10.8207    0.0944    0.0000 O   0  0  0  0  0  0  0  0  0  0  0  0
   12.7032    2.6353    0.0000 O   0  0  0  0  0  0  0  0  0  0  0  0
   13.0418    4.1027    0.0000 O   0  0  0  0  0  0  0  0  0  0  0  0
    7.9174   -0.6228    0.0000 C   0  0  1  0  0  0  0  0  0  0  0  0
    7.9174   -1.6228    0.0000 C   0  0  1  0  0  0  0  0  0  0  0  0
    8.8637   -0.3180    0.0000 C   0  0  2  0  0  0  0  0  0  0  0  0
    6.1854   -1.6228    0.0000 C   0  0  2  0  0  0  0  0  0  0  0  0
    5.2754   -2.1296    0.0000 C   0  0  2  0  0  0  0  0  0  0  0  0
    7.0514   -2.1228    0.0000 C   0  0  0  0  0  0  0  0  0  0  0  0
    7.0514   -0.1228    0.0000 C   0  0  0  0  0  0  0  0  0  0  0  0
    8.8637   -1.9275    0.0000 C   0  0  0  0  0  0  0  0  0  0  0  0
    6.1854   -0.6228    0.0000 C   0  0  0  0  0  0  0  0  0  0  0  0
    9.4473   -1.1228    0.0000 C   0  0  0  0  0  0  0  0  0  0  0  0
    5.2674   -3.1712    0.0000 C   0  0  1  0  0  0  0  0  0  0  0  0
    9.1743    0.6325    0.0000 C   0  0  1  0  0  0  0  0  0  0  0  0
    7.9174    0.3772    0.0000 C   0  0  0  0  0  0  0  0  0  0  0  0
    4.3486   -1.5655    0.0000 C   0  0  0  0  0  0  0  0  0  0  0  0
    7.0675   -3.1643    0.0000 C   0  0  0  0  0  0  0  0  0  0  0  0
    4.3319   -3.7209    0.0000 C   0  0  0  0  0  0  0  0  0  0  0  0
    5.2831   -1.1296    0.0000 C   0  0  0  0  0  0  0  0  0  0  0  0
    6.1694   -3.6920    0.0000 C   0  0  0  0  0  0  0  0  0  0  0  0
    3.4007   -2.0935    0.0000 C   0  0  1  0  0  0  0  0  0  0  0  0
    3.3923   -3.1784    0.0000 C   0  0  2  0  0  0  0  0  0  0  0  0
   10.1528    0.8387    0.0000 C   0  0  1  0  0  0  0  0  0  0  0  0
    8.5065    1.3768    0.0000 C   0  0  0  0  0  0  0  0  0  0  0  0
   10.4635    1.7892    0.0000 C   0  0  0  0  0  0  0  0  0  0  0  0
   11.4420    1.9954    0.0000 C   0  0  0  0  0  0  0  0  0  0  0  0
   11.7527    2.9460    0.0000 C   0  0  3  0  0  0  0  0  0  0  0  0
   12.0633    3.8965    0.0000 C   0  0  0  0  0  0  0  0  0  0  0  0
   10.8021    3.2566    0.0000 C   0  0  0  0  0  0  0  0  0  0  0  0
    9.7034   -0.1862    0.0000 H   0  0  0  0  0  0  0  0  0  0  0  0
    6.9215   -1.1978    0.0000 H   0  0  0  0  0  0  0  0  0  0  0  0
    7.4500    0.3522    0.0000 H   0  0  0  0  0  0  0  0  0  0  0  0
    6.6529    0.3522    0.0000 H   0  0  0  0  0  0  0  0  0  0  0  0
    8.6126   -2.4944    0.0000 H   0  0  0  0  0  0  0  0  0  0  0  0
    9.4010   -2.2367    0.0000 H   0  0  0  0  0  0  0  0  0  0  0  0
    5.9733   -0.0402    0.0000 H   0  0  0  0  0  0  0  0  0  0  0  0
    5.5748   -0.7304    0.0000 H   0  0  0  0  0  0  0  0  0  0  0  0
    9.9081   -1.5375    0.0000 H   0  0  0  0  0  0  0  0  0  0  0  0
    9.9081   -0.7080    0.0000 H   0  0  0  0  0  0  0  0  0  0  0  0
    5.2706   -4.0212    0.0000 H   0  0  0  0  0  0  0  0  0  0  0  0
    8.5676    0.5046    0.0000 H   0  0  0  0  0  0  0  0  0  0  0  0
    8.5374    0.3772    0.0000 H   0  0  0  0  0  0  0  0  0  0  0  0
    7.9174    0.9972    0.0000 H   0  0  0  0  0  0  0  0  0  0  0  0
    7.2974    0.3772    0.0000 H   0  0  0  0  0  0  0  0  0  0  0  0
    4.7568   -1.0989    0.0000 H   0  0  0  0  0  0  0  0  0  0  0  0
    3.9586   -1.0835    0.0000 H   0  0  0  0  0  0  0  0  0  0  0  0
    7.6080   -3.4680    0.0000 H   0  0  0  0  0  0  0  0  0  0  0  0
    3.9346   -4.1969    0.0000 H   0  0  0  0  0  0  0  0  0  0  0  0
    4.7329   -4.1938    0.0000 H   0  0  0  0  0  0  0  0  0  0  0  0
    5.9031   -1.1344    0.0000 H   0  0  0  0  0  0  0  0  0  0  0  0
    5.2879   -0.5097    0.0000 H   0  0  0  0  0  0  0  0  0  0  0  0
    4.6631   -1.1249    0.0000 H   0  0  0  0  0  0  0  0  0  0  0  0
    3.4090   -1.4735    0.0000 H   0  0  0  0  0  0  0  0  0  0  0  0
    8.4544   -2.9328    0.0000 H   0  0  0  0  0  0  0  0  0  0  0  0
    2.8572   -2.8653    0.0000 H   0  0  0  0  0  0  0  0  0  0  0  0
    9.9602    0.2494    0.0000 H   0  0  0  0  0  0  0  0  0  0  0  0
    8.9680    1.7908    0.0000 H   0  0  0  0  0  0  0  0  0  0  0  0
    8.0924    1.8382    0.0000 H   0  0  0  0  0  0  0  0  0  0  0  0
    8.0450    0.9627    0.0000 H   0  0  0  0  0  0  0  0  0  0  0  0
   10.4429    2.4089    0.0000 H   0  0  0  0  0  0  0  0  0  0  0  0
    9.8497    1.8766    0.0000 H   0  0  0  0  0  0  0  0  0  0  0  0
    2.0000   -1.8873    0.0000 H   0  0  0  0  0  0  0  0  0  0  0  0
    2.5220   -4.2951    0.0000 H   0  0  0  0  0  0  0  0  0  0  0  0
   11.4273    0.2223    0.0000 H   0  0  0  0  0  0  0  0  0  0  0  0
   11.4626    1.3758    0.0000 H   0  0  0  0  0  0  0  0  0  0  0  0
   12.0558    1.9081    0.0000 H   0  0  0  0  0  0  0  0  0  0  0  0
   12.0428    4.5161    0.0000 H   0  0  0  0  0  0  0  0  0  0  0  0
   11.4495    3.9838    0.0000 H   0  0  0  0  0  0  0  0  0  0  0  0
   10.9948    3.8460    0.0000 H   0  0  0  0  0  0  0  0  0  0  0  0
   10.2128    3.4492    0.0000 H   0  0  0  0  0  0  0  0  0  0  0  0
   10.6095    2.6673    0.0000 H   0  0  0  0  0  0  0  0  0  0  0  0
   12.8310    2.0286    0.0000 H   0  0  0  0  0  0  0  0  0  0  0  0
   13.2344    4.6920    0.0000 H   0  0  0  0  0  0  0  0  0  0  0  0
  9  1  1  6  0  0  0
  1 59  1  0  0  0  0
 26  2  1  1  0  0  0
  2 67  1  0  0  0  0
 27  3  1  1  0  0  0
  3 68  1  0  0  0  0
  4 25  2  0  0  0  0
 28  5  1  1  0  0  0
  5 69  1  0  0  0  0
  6 32  1  0  0  0  0
  6 77  1  0  0  0  0
  7 33  1  0  0  0  0
  7 78  1  0  0  0  0
  8  9  1  0  0  0  0
  8 10  1  0  0  0  0
  8 14  1  0  0  0  0
  8 20  1  1  0  0  0
  9 13  1  0  0  0  0
  9 15  1  0  0  0  0
 10 17  1  0  0  0  0
 10 19  1  0  0  0  0
 10 35  1  6  0  0  0
 11 12  1  0  0  0  0
 11 13  1  0  0  0  0
 11 16  1  0  0  0  0
 11 36  1  6  0  0  0
 12 18  1  0  0  0  0
 12 21  1  0  0  0  0
 12 24  1  1  0  0  0
 13 22  2  0  0  0  0
 14 16  1  0  0  0  0
 14 37  1  0  0  0  0
 14 38  1  0  0  0  0
 15 17  1  0  0  0  0
 15 39  1  0  0  0  0
 15 40  1  0  0  0  0
 16 41  1  0  0  0  0
 16 42  1  0  0  0  0
 17 43  1  0  0  0  0
 17 44  1  0  0  0  0
 18 23  1  0  0  0  0
 18 25  1  0  0  0  0
 18 45  1  1  0  0  0
 19 28  1  0  0  0  0
 19 29  1  6  0  0  0
 19 46  1  0  0  0  0
 20 47  1  0  0  0  0
 20 48  1  0  0  0  0
 20 49  1  0  0  0  0
 21 26  1  0  0  0  0
 21 50  1  0  0  0  0
 21 51  1  0  0  0  0
 22 25  1  0  0  0  0
 22 52  1  0  0  0  0
 23 27  1  0  0  0  0
 23 53  1  0  0  0  0
 23 54  1  0  0  0  0
 24 55  1  0  0  0  0
 24 56  1  0  0  0  0
 24 57  1  0  0  0  0
 26 27  1  0  0  0  0
 26 58  1  0  0  0  0
 27 60  1  0  0  0  0
 28 30  1  0  0  0  0
 28 61  1  0  0  0  0
 29 62  1  0  0  0  0
 29 63  1  0  0  0  0
 29 64  1  0  0  0  0
 30 31  1  0  0  0  0
 30 65  1  0  0  0  0
 30 66  1  0  0  0  0
 31 32  1  0  0  0  0
 31 70  1  0  0  0  0
 31 71  1  0  0  0  0
 32 33  1  0  0  0  0
 32 34  1  0  0  0  0
 33 72  1  0  0  0  0
 33 73  1  0  0  0  0
 34 74  1  0  0  0  0
 34 75  1  0  0  0  0
 34 76  1  0  0  0  0
M  END
> <PUBCHEM_COMPOUND_CID>
22295962

> <PUBCHEM_COMPOUND_CANONICALIZED>
1

> <PUBCHEM_CACTVS_COMPLEXITY>
843

> <PUBCHEM_CACTVS_HBOND_ACCEPTOR>
7

> <PUBCHEM_CACTVS_HBOND_DONOR>
6

> <PUBCHEM_CACTVS_ROTATABLE_BOND>
6

> <PUBCHEM_CACTVS_SUBSKEYS>
AAADcfB4OAAAAAAAAAAAAAAAAAAAAYAAAAAwYIAAAAAAAGCAAAAAGgAACAAAD1SggAICAAAAAgCIAqBSAAAAAAAgAAAACAEAAEgBFBIAAQAAUAAEgAAJEQPK7PTPgAAAAAAAAADAAAYAADCAAYAADAAAAA==

> <PUBCHEM_IUPAC_OPENEYE_NAME>
(2S,3R,5R,9R,10R,13R,14S,17R)-2,3,14-trihydroxy-10,13-dimethyl-17-[(1S,2R)-2,5,6-trihydroxy-1,5-dimethyl-hexyl]-2,3,4,5,9,11,12,15,16,17-decahydro-1H-cyclopenta[a]phenanthren-6-one

> <PUBCHEM_IUPAC_CAS_NAME>
(2S,3R,5R,9R,10R,13R,14S,17R)-2,3,14-trihydroxy-10,13-dimethyl-17-[(2S,3R)-3,6,7-trihydroxy-6-methylheptan-2-yl]-2,3,4,5,9,11,12,15,16,17-decahydro-1H-cyclopenta[a]phenanthren-6-one

> <PUBCHEM_IUPAC_NAME>
(2S,3R,5R,9R,10R,13R,14S,17R)-2,3,14-trihydroxy-10,13-dimethyl-17-[(2S,3R)-3,6,7-trihydroxy-6-methylheptan-2-yl]-2,3,4,5,9,11,12,15,16,17-decahydro-1H-cyclopenta[a]phenanthren-6-one

> <PUBCHEM_IUPAC_SYSTEMATIC_NAME>
(2S,3R,5R,9R,10R,13R,14S,17R)-10,13-dimethyl-17-[(2S,3R)-6-methyl-3,6,7-tris(oxidanyl)heptan-2-yl]-2,3,14-tris(oxidanyl)-2,3,4,5,9,11,12,15,16,17-decahydro-1H-cyclopenta[a]phenanthren-6-one

> <PUBCHEM_IUPAC_TRADITIONAL_NAME>
(2S,3R,5R,9R,10R,13R,14S,17R)-2,3,14-trihydroxy-10,13-dimethyl-17-[(1S,2R)-2,5,6-trihydroxy-1,5-dimethyl-hexyl]-2,3,4,5,9,11,12,15,16,17-decahydro-1H-cyclopenta[a]phenanthren-6-one

> <PUBCHEM_IUPAC_INCHI>
InChI=1S/C27H44O7/c1-15(20(29)7-8-24(2,33)14-28)16-6-10-27(34)18-11-21(30)19-12-22(31)23(32)13-25(19,3)17(18)5-9-26(16,27)4/h11,15-17,19-20,22-23,28-29,31-34H,5-10,12-14H2,1-4H3/t15-,16+,17-,19-,20+,22+,23-,24?,25+,26+,27+/m0/s1

> <PUBCHEM_IUPAC_INCHIKEY>
CHEZKCVMQIAGLX-PBUSDRRUSA-N

> <PUBCHEM_XLOGP3_AA>
0.6

> <PUBCHEM_EXACT_MASS>
480.308704

> <PUBCHEM_MOLECULAR_FORMULA>
C27H44O7

> <PUBCHEM_MOLECULAR_WEIGHT>
480.63406

> <PUBCHEM_OPENEYE_CAN_SMILES>
CC(C1CCC2(C1(CCC3C2=CC(=O)C4C3(CC(C(C4)O)O)C)C)O)C(CCC(C)(CO)O)O

> <PUBCHEM_OPENEYE_ISO_SMILES>
C[C@@H]([C@H]1CC[C@@]2([C@@]1(CC[C@H]3C2=CC(=O)[C@H]4[C@@]3(C[C@@H]([C@@H](C4)O)O)C)C)O)[C@@H](CCC(C)(CO)O)O

> <PUBCHEM_CACTVS_TPSA>
138

> <PUBCHEM_MONOISOTOPIC_WEIGHT>
480.308704

> <PUBCHEM_TOTAL_CHARGE>
0

> <PUBCHEM_HEAVY_ATOM_COUNT>
34

> <PUBCHEM_ATOM_DEF_STEREO_COUNT>
10

> <PUBCHEM_ATOM_UDEF_STEREO_COUNT>
1

> <PUBCHEM_BOND_DEF_STEREO_COUNT>
0

> <PUBCHEM_BOND_UDEF_STEREO_COUNT>
0

> <PUBCHEM_ISOTOPIC_ATOM_COUNT>
0

> <PUBCHEM_COMPONENT_COUNT>
1

> <PUBCHEM_CACTVS_TAUTO_COUNT>
5

> <PUBCHEM_COORDINATE_TYPE>
1
5
255

> <PUBCHEM_BONDANNOTATIONS>
9  1  6
10  35  6
11  36  6
12  24  5
18  45  5
19  29  6
26  2  5
27  3  5
28  5  5
32  6  3
8  20  5

$$$$

