443834
  -OEChem-07051213032D

 37 39  0     1  0  0  0  0  0999 V2000
    7.3321   -0.1372    0.0000 O   0  0  0  0  0  0  0  0  0  0  0  0
    4.6660    1.3419    0.0000 O   0  0  0  0  0  0  0  0  0  0  0  0
    2.9176    1.3765    0.0000 O   0  0  0  0  0  0  0  0  0  0  0  0
    9.9282   -1.6889    0.0000 O   0  0  0  0  0  0  0  0  0  0  0  0
    9.0680   -0.1856    0.0000 O   0  0  0  0  0  0  0  0  0  0  0  0
    5.5321   -1.1581    0.0000 C   0  0  0  0  0  0  0  0  0  0  0  0
    6.4260   -1.6927    0.0000 C   0  0  0  0  0  0  0  0  0  0  0  0
    7.3321   -1.1789    0.0000 C   0  0  1  0  0  0  0  0  0  0  0  0
    5.5321   -0.1581    0.0000 C   0  0  0  0  0  0  0  0  0  0  0  0
    6.4260    0.3766    0.0000 C   0  0  1  0  0  0  0  0  0  0  0  0
    4.6660   -1.6581    0.0000 C   0  0  0  0  0  0  0  0  0  0  0  0
    3.8000   -1.1581    0.0000 C   0  0  0  0  0  0  0  0  0  0  0  0
    4.6660    0.3419    0.0000 C   0  0  0  0  0  0  0  0  0  0  0  0
    8.1962   -1.6822    0.0000 C   0  0  0  0  0  0  0  0  0  0  0  0
    3.8000   -0.1581    0.0000 C   0  0  0  0  0  0  0  0  0  0  0  0
    6.4144    1.3765    0.0000 C   0  0  0  0  0  0  0  0  0  0  0  0
    2.9061   -1.6927    0.0000 C   0  0  0  0  0  0  0  0  0  0  0  0
    2.9061    0.3766    0.0000 C   0  0  0  0  0  0  0  0  0  0  0  0
    9.0641   -1.1856    0.0000 C   0  0  0  0  0  0  0  0  0  0  0  0
    2.0000   -1.1789    0.0000 C   0  0  0  0  0  0  0  0  0  0  0  0
    2.0000   -0.1372    0.0000 C   0  0  0  0  0  0  0  0  0  0  0  0
    6.0214   -2.1625    0.0000 H   0  0  0  0  0  0  0  0  0  0  0  0
    6.8196   -2.1717    0.0000 H   0  0  0  0  0  0  0  0  0  0  0  0
    7.8696   -0.8699    0.0000 H   0  0  0  0  0  0  0  0  0  0  0  0
    6.9599    0.6918    0.0000 H   0  0  0  0  0  0  0  0  0  0  0  0
    4.2675   -2.1330    0.0000 H   0  0  0  0  0  0  0  0  0  0  0  0
    5.0646   -2.1330    0.0000 H   0  0  0  0  0  0  0  0  0  0  0  0
    7.7958   -2.1556    0.0000 H   0  0  0  0  0  0  0  0  0  0  0  0
    8.5929   -2.1587    0.0000 H   0  0  0  0  0  0  0  0  0  0  0  0
    7.0344    1.3837    0.0000 H   0  0  0  0  0  0  0  0  0  0  0  0
    6.4073    1.9965    0.0000 H   0  0  0  0  0  0  0  0  0  0  0  0
    5.7945    1.3694    0.0000 H   0  0  0  0  0  0  0  0  0  0  0  0
    2.9132   -2.3127    0.0000 H   0  0  0  0  0  0  0  0  0  0  0  0
    1.4643   -1.4909    0.0000 H   0  0  0  0  0  0  0  0  0  0  0  0
    1.4643    0.1748    0.0000 H   0  0  0  0  0  0  0  0  0  0  0  0
    2.3843    1.6927    0.0000 H   0  0  0  0  0  0  0  0  0  0  0  0
   10.4663   -1.3810    0.0000 H   0  0  0  0  0  0  0  0  0  0  0  0
  1  8  1  0  0  0  0
  1 10  1  0  0  0  0
  2 13  2  0  0  0  0
  3 18  1  0  0  0  0
  3 36  1  0  0  0  0
  4 19  1  0  0  0  0
  4 37  1  0  0  0  0
  5 19  2  0  0  0  0
  6  7  1  0  0  0  0
  6  9  2  0  0  0  0
  6 11  1  0  0  0  0
  7  8  1  0  0  0  0
  7 22  1  0  0  0  0
  7 23  1  0  0  0  0
  8 14  1  6  0  0  0
  8 24  1  0  0  0  0
  9 10  1  0  0  0  0
  9 13  1  0  0  0  0
 10 16  1  1  0  0  0
 10 25  1  0  0  0  0
 11 12  1  0  0  0  0
 11 26  1  0  0  0  0
 11 27  1  0  0  0  0
 12 15  2  0  0  0  0
 12 17  1  0  0  0  0
 13 15  1  0  0  0  0
 14 19  1  0  0  0  0
 14 28  1  0  0  0  0
 14 29  1  0  0  0  0
 15 18  1  0  0  0  0
 16 30  1  0  0  0  0
 16 31  1  0  0  0  0
 16 32  1  0  0  0  0
 17 20  2  0  0  0  0
 17 33  1  0  0  0  0
 18 21  2  0  0  0  0
 20 21  1  0  0  0  0
 20 34  1  0  0  0  0
 21 35  1  0  0  0  0
M  END
> <PUBCHEM_COMPOUND_CID>
443834

> <PUBCHEM_COMPOUND_CANONICALIZED>
1

> <PUBCHEM_CACTVS_COMPLEXITY>
495

> <PUBCHEM_CACTVS_HBOND_ACCEPTOR>
5

> <PUBCHEM_CACTVS_HBOND_DONOR>
2

> <PUBCHEM_CACTVS_ROTATABLE_BOND>
2

> <PUBCHEM_CACTVS_SUBSKEYS>
AAADceB4OAAAAAAAAAAAAAAAAAAAAAAAAAAwQIAAAAAAAACRAAAAGgAACAAADBSgmAIyDoAABgCIAqDSCAACAAAkIAAIiAEGCMgIJjaCNRKCcUAl4BEIuQeI6PyOgAABAAAYAAAAAAIAADAAAAAAAAAAAA==

> <PUBCHEM_IUPAC_OPENEYE_NAME>
2-[(1R,3S)-9-hydroxy-1-methyl-10-oxo-1,3,4,5-tetrahydrobenzo[g]isochromen-3-yl]acetic acid

> <PUBCHEM_IUPAC_CAS_NAME>
2-[(1R,3S)-9-hydroxy-1-methyl-10-oxo-1,3,4,5-tetrahydrobenzo[g][2]benzopyran-3-yl]acetic acid

> <PUBCHEM_IUPAC_NAME>
2-[(1R,3S)-9-hydroxy-1-methyl-10-oxo-1,3,4,5-tetrahydrobenzo[g]isochromen-3-yl]acetic acid

> <PUBCHEM_IUPAC_SYSTEMATIC_NAME>
2-[(1R,3S)-1-methyl-9-oxidanyl-10-oxidanylidene-1,3,4,5-tetrahydrobenzo[g]isochromen-3-yl]ethanoic acid

> <PUBCHEM_IUPAC_TRADITIONAL_NAME>
2-[(1R,3S)-9-hydroxy-10-keto-1-methyl-1,3,4,5-tetrahydrobenz[g]isochromen-3-yl]acetic acid

> <PUBCHEM_IUPAC_INCHI>
InChI=1S/C16H16O5/c1-8-14-10(6-11(21-8)7-13(18)19)5-9-3-2-4-12(17)15(9)16(14)20/h2-4,8,11,17H,5-7H2,1H3,(H,18,19)/t8-,11+/m1/s1

> <PUBCHEM_IUPAC_INCHIKEY>
BGCANOPAKSHGIV-KCJUWKMLSA-N

> <PUBCHEM_XLOGP3_AA>
1.6

> <PUBCHEM_EXACT_MASS>
288.099774

> <PUBCHEM_MOLECULAR_FORMULA>
C16H16O5

> <PUBCHEM_MOLECULAR_WEIGHT>
288.29524

> <PUBCHEM_OPENEYE_CAN_SMILES>
CC1C2=C(CC(O1)CC(=O)O)CC3=C(C2=O)C(=CC=C3)O

> <PUBCHEM_OPENEYE_ISO_SMILES>
C[C@@H]1C2=C(C[C@H](O1)CC(=O)O)CC3=C(C2=O)C(=CC=C3)O

> <PUBCHEM_CACTVS_TPSA>
83.8

> <PUBCHEM_MONOISOTOPIC_WEIGHT>
288.099774

> <PUBCHEM_TOTAL_CHARGE>
0

> <PUBCHEM_HEAVY_ATOM_COUNT>
21

> <PUBCHEM_ATOM_DEF_STEREO_COUNT>
2

> <PUBCHEM_ATOM_UDEF_STEREO_COUNT>
0

> <PUBCHEM_BOND_DEF_STEREO_COUNT>
0

> <PUBCHEM_BOND_UDEF_STEREO_COUNT>
0

> <PUBCHEM_ISOTOPIC_ATOM_COUNT>
0

> <PUBCHEM_COMPONENT_COUNT>
1

> <PUBCHEM_CACTVS_TAUTO_COUNT>
41

> <PUBCHEM_COORDINATE_TYPE>
1
5
255

> <PUBCHEM_BONDANNOTATIONS>
10  16  5
12  15  8
12  17  8
15  18  8
17  20  8
18  21  8
20  21  8
8  14  6

$$$$

