   Color/Form

     * Colorless liquid
     * Colorless liquid ...

   from [1]HSDB

   Odor

     * Gasoline-like odor.
     * ... Sharp, penetrating, aromatic odor.

   from [2]HSDB

   Boiling Point
        152.4 deg C @ 760 torr
   from [3]HSDB

   Melting Point
        -96.0 deg C
   from [4]HSDB

   Critical Temperature and Pressure
        Critical temperature: 358 deg C; critical pressure: 31.7 atm
   from [5]HSDB

   Density/Specific Gravity
        Specific gravity: 0.862 @ 20 deg C/4 deg C
   from [6]HSDB

   Heat of Combustion
        45.13 KJ/mol
   from [7]HSDB

   Heat of Vaporization
        10,335.3 gcal/gmol
   from [8]HSDB

   Octanol/Water Partition Coefficient
        log Kow= 3.66
   from [9]HSDB

   Solubilities

     * Sol in acetone, ether, ethanol
     * In water, 50 mg/l at 20 deg C
     * Soluble in most organic solvents; insoluble in water.
     * Soluble in many organic solvents
     * In water, 61.3 mg/l @ 25 deg C.

   from [10]HSDB

   Spectral Properties

     * INDEX OF REFRACTION: 1.4915 @ 20 DEG C/D; MAX ABSORPTION (HEXANE):
       254 NM (LOG E= 2.3), 251 NM (LOG E= 2.4), 267 NM (LOG E= 2.3);
       SADTLER REFERENCE NUMBER: 242 (IR, PRISM), 8023 (IR, GRATING)
     * SPECIFIC DISPERSION: 166.2
     * IR: 4781 (Coblentz Society Spectral Collection)
     * UV: 95 (Sadtler Research Laboratories Spectral Collection)
     * NMR: 240 (Varian Associates NMR Spectra Catalogue)
     * MASS: 483 (Atlas of Mass Spectral Data, John Wiley & Sons, New
       York)

   from [11]HSDB

   Surface Tension
        27.69 mN/m @ 25 deg C
   from [12]HSDB

   Vapor Density
        4.1 (Air= 1)
   from [13]HSDB

   Vapor Pressure
        4.5 mm Hg @ 25 deg C
   from [14]HSDB

   Viscosity
        0.737 mPa.sec @ 25 deg C
   from [15]HSDB

   Other Chemical/Physical Properties

     * % IN SATURATED AIR @ 38.3 DEG C & 760 MM HG: 1.32; DENSITY OF
       SATURATED VAPOR-AIR MIXT @ 38 DEG C & 760 MM HG (AIR= 1): 1.03
     * Liquid-water interfacial tension: 54.6 dynes/cm= 0.0546 N/m at 22.7
       deg C
     * Ratio of specific heat vapor (gas) = 1.059
     * Control methods: calculated half life time based on evaporative
       loss for a water depth of 1 m at 25 deg C: 5.8 hr
     * Henry's Law constant= 1.15X10-2 atm-cu m/mol @ 25 deg C
     * Hydroxyl radical rate constant= 6.50X10-12 cu cm/molecule-sec @ 25
       deg C

   from [16]HSDB

   Computed Properties
   Molecular Weight                  120.19158 [g/mol]
   Molecular Formula                 C[9]H[12]
   XLogP3                            3.7
   H-Bond Donor                      0
   H-Bond Acceptor                   0
   Rotatable Bond Count              1
   Exact Mass                        120.0939
   MonoIsotopic Mass                 120.0939
   Topological Polar Surface Area    0
   Heavy Atom Count                  9
   Formal Charge                     0
   Complexity                        68.1
   Isotope Atom Count                0
   Defined Atom Stereocenter Count   0
   Undefined Atom Stereocenter Count 0
   Defined Bond Stereocenter Count   0
   Undefined Bond Stereocenter Count 0
   Covalently-Bonded Unit Count      1
   Feature 3D Hydrophobe Count       1
   Feature 3D Ring Count             1
   Effective Rotor Count             1
   Conformer Sampling RMSD           0.4
   CID Conformer Count               [17]3

References

   1. http://toxnet.nlm.nih.gov/cgi-bin/sis/search/r?dbs+hsdb:@term+@rn+@rel+98-82-8
   2. http://toxnet.nlm.nih.gov/cgi-bin/sis/search/r?dbs+hsdb:@term+@rn+@rel+98-82-8
   3. http://toxnet.nlm.nih.gov/cgi-bin/sis/search/r?dbs+hsdb:@term+@rn+@rel+98-82-8
   4. http://toxnet.nlm.nih.gov/cgi-bin/sis/search/r?dbs+hsdb:@term+@rn+@rel+98-82-8
   5. http://toxnet.nlm.nih.gov/cgi-bin/sis/search/r?dbs+hsdb:@term+@rn+@rel+98-82-8
   6. http://toxnet.nlm.nih.gov/cgi-bin/sis/search/r?dbs+hsdb:@term+@rn+@rel+98-82-8
   7. http://toxnet.nlm.nih.gov/cgi-bin/sis/search/r?dbs+hsdb:@term+@rn+@rel+98-82-8
   8. http://toxnet.nlm.nih.gov/cgi-bin/sis/search/r?dbs+hsdb:@term+@rn+@rel+98-82-8
   9. http://toxnet.nlm.nih.gov/cgi-bin/sis/search/r?dbs+hsdb:@term+@rn+@rel+98-82-8
  10. http://toxnet.nlm.nih.gov/cgi-bin/sis/search/r?dbs+hsdb:@term+@rn+@rel+98-82-8
  11. http://toxnet.nlm.nih.gov/cgi-bin/sis/search/r?dbs+hsdb:@term+@rn+@rel+98-82-8
  12. http://toxnet.nlm.nih.gov/cgi-bin/sis/search/r?dbs+hsdb:@term+@rn+@rel+98-82-8
  13. http://toxnet.nlm.nih.gov/cgi-bin/sis/search/r?dbs+hsdb:@term+@rn+@rel+98-82-8
  14. http://toxnet.nlm.nih.gov/cgi-bin/sis/search/r?dbs+hsdb:@term+@rn+@rel+98-82-8
  15. http://toxnet.nlm.nih.gov/cgi-bin/sis/search/r?dbs+hsdb:@term+@rn+@rel+98-82-8
  16. http://toxnet.nlm.nih.gov/cgi-bin/sis/search/r?dbs+hsdb:@term+@rn+@rel+98-82-8
  17. http://pubchem.ncbi.nlm.nih.gov/vw3d/vw3d.cgi?cid=7406
