5281170
  -OEChem-07051212552D

 35 35  0     1  0  0  0  0  0999 V2000
    4.5981    1.6550    0.0000 O   0  0  0  0  0  0  0  0  0  0  0  0
    2.8660   -1.3450    0.0000 O   0  0  0  0  0  0  0  0  0  0  0  0
    2.8661    0.6549    0.0000 O   0  0  0  0  0  0  0  0  0  0  0  0
    5.4641    1.1550    0.0000 C   0  0  3  0  0  0  0  0  0  0  0  0
    6.3301    1.6550    0.0000 C   0  0  0  0  0  0  0  0  0  0  0  0
    5.4641    0.1550    0.0000 C   0  0  0  0  0  0  0  0  0  0  0  0
    2.0000    0.1550    0.0000 C   0  0  0  0  0  0  0  0  0  0  0  0
    2.0000    1.1550    0.0000 C   0  0  0  0  0  0  0  0  0  0  0  0
    2.8660   -0.3450    0.0000 C   0  0  1  0  0  0  0  0  0  0  0  0
    2.8660    1.6550    0.0000 C   0  0  0  0  0  0  0  0  0  0  0  0
    7.1962    1.1550    0.0000 C   0  0  0  0  0  0  0  0  0  0  0  0
    4.5981   -0.3450    0.0000 C   0  0  0  0  0  0  0  0  0  0  0  0
    3.7320    0.1550    0.0000 C   0  0  0  0  0  0  0  0  0  0  0  0
    3.7320    1.1550    0.0000 C   0  0  0  0  0  0  0  0  0  0  0  0
    8.0622    1.6550    0.0000 C   0  0  0  0  0  0  0  0  0  0  0  0
    5.4641    2.0050    0.0000 H   0  0  0  0  0  0  0  0  0  0  0  0
    6.7287    2.1300    0.0000 H   0  0  0  0  0  0  0  0  0  0  0  0
    5.9316    2.1300    0.0000 H   0  0  0  0  0  0  0  0  0  0  0  0
    5.6762   -0.4276    0.0000 H   0  0  0  0  0  0  0  0  0  0  0  0
    6.0747    0.2627    0.0000 H   0  0  0  0  0  0  0  0  0  0  0  0
    1.3894    0.2627    0.0000 H   0  0  0  0  0  0  0  0  0  0  0  0
    1.7880   -0.4276    0.0000 H   0  0  0  0  0  0  0  0  0  0  0  0
    1.7880    1.7376    0.0000 H   0  0  0  0  0  0  0  0  0  0  0  0
    1.3894    1.0473    0.0000 H   0  0  0  0  0  0  0  0  0  0  0  0
    3.4030   -0.6550    0.0000 H   0  0  0  0  0  0  0  0  0  0  0  0
    3.2646    2.1300    0.0000 H   0  0  0  0  0  0  0  0  0  0  0  0
    2.4675    2.1300    0.0000 H   0  0  0  0  0  0  0  0  0  0  0  0
    6.7976    0.6801    0.0000 H   0  0  0  0  0  0  0  0  0  0  0  0
    7.5947    0.6801    0.0000 H   0  0  0  0  0  0  0  0  0  0  0  0
    4.5981   -0.9650    0.0000 H   0  0  0  0  0  0  0  0  0  0  0  0
    4.1306    0.6299    0.0000 H   0  0  0  0  0  0  0  0  0  0  0  0
    8.3722    1.1181    0.0000 H   0  0  0  0  0  0  0  0  0  0  0  0
    8.5991    1.9650    0.0000 H   0  0  0  0  0  0  0  0  0  0  0  0
    7.7522    2.1919    0.0000 H   0  0  0  0  0  0  0  0  0  0  0  0
    2.3291   -1.6550    0.0000 H   0  0  0  0  0  0  0  0  0  0  0  0
  1  4  1  0  0  0  0
  1 14  1  0  0  0  0
  9  2  1  1  0  0  0
  2 35  1  0  0  0  0
  3 14  2  0  0  0  0
  4  5  1  0  0  0  0
  4  6  1  0  0  0  0
  4 16  1  0  0  0  0
  5 11  1  0  0  0  0
  5 17  1  0  0  0  0
  5 18  1  0  0  0  0
  6 12  1  0  0  0  0
  6 19  1  0  0  0  0
  6 20  1  0  0  0  0
  7  8  1  0  0  0  0
  7  9  1  0  0  0  0
  7 21  1  0  0  0  0
  7 22  1  0  0  0  0
  8 10  1  0  0  0  0
  8 23  1  0  0  0  0
  8 24  1  0  0  0  0
  9 13  1  0  0  0  0
  9 25  1  0  0  0  0
 10 14  1  0  0  0  0
 10 26  1  0  0  0  0
 10 27  1  0  0  0  0
 11 15  1  0  0  0  0
 11 28  1  0  0  0  0
 11 29  1  0  0  0  0
 12 13  2  0  0  0  0
 12 30  1  0  0  0  0
 13 31  1  0  0  0  0
 15 32  1  0  0  0  0
 15 33  1  0  0  0  0
 15 34  1  0  0  0  0
M  END
> <PUBCHEM_COMPOUND_CID>
5281170

> <PUBCHEM_COMPOUND_CANONICALIZED>
1

> <PUBCHEM_CACTVS_COMPLEXITY>
223

> <PUBCHEM_CACTVS_HBOND_ACCEPTOR>
3

> <PUBCHEM_CACTVS_HBOND_DONOR>
1

> <PUBCHEM_CACTVS_ROTATABLE_BOND>
2

> <PUBCHEM_CACTVS_SUBSKEYS>
AAADceBwMAAAAAAAAAAAAAAAAAAAAAAAAAAAAAAAAAAAAACAAAAAGgAACAAACBSggAICCAAABgCIACDSCAAAAAAgAAAICAEAAAgAFBIAAQACUAAEwAAIEAOIbAxAAAAAAAAAAAAAAAAAAAAAAAAAAAAAAA==

> <PUBCHEM_IUPAC_OPENEYE_NAME>
(4E,6S)-6-hydroxy-2-propyl-2,3,6,7,8,9-hexahydrooxecin-10-one

> <PUBCHEM_IUPAC_CAS_NAME>
(4E,6S)-6-hydroxy-2-propyl-2,3,6,7,8,9-hexahydrooxecin-10-one

> <PUBCHEM_IUPAC_NAME>
(4E,6S)-6-hydroxy-2-propyl-2,3,6,7,8,9-hexahydrooxecin-10-one

> <PUBCHEM_IUPAC_SYSTEMATIC_NAME>
(4E,6S)-6-oxidanyl-2-propyl-2,3,6,7,8,9-hexahydrooxecin-10-one

> <PUBCHEM_IUPAC_TRADITIONAL_NAME>
(4E,6S)-6-hydroxy-2-propyl-2,3,6,7,8,9-hexahydrooxecin-10-one

> <PUBCHEM_IUPAC_INCHI>
InChI=1S/C12H20O3/c1-2-5-11-8-3-6-10(13)7-4-9-12(14)15-11/h3,6,10-11,13H,2,4-5,7-9H2,1H3/b6-3+/t10-,11?/m1/s1

> <PUBCHEM_IUPAC_INCHIKEY>
SQAZDQDTNRHIGZ-QGXXYDBCSA-N

> <PUBCHEM_XLOGP3_AA>
2.1

> <PUBCHEM_EXACT_MASS>
212.141245

> <PUBCHEM_MOLECULAR_FORMULA>
C12H20O3

> <PUBCHEM_MOLECULAR_WEIGHT>
212.2854

> <PUBCHEM_OPENEYE_CAN_SMILES>
CCCC1CC=CC(CCCC(=O)O1)O

> <PUBCHEM_OPENEYE_ISO_SMILES>
CCCC1C/C=C/[C@H](CCCC(=O)O1)O

> <PUBCHEM_CACTVS_TPSA>
46.5

> <PUBCHEM_MONOISOTOPIC_WEIGHT>
212.141245

> <PUBCHEM_TOTAL_CHARGE>
0

> <PUBCHEM_HEAVY_ATOM_COUNT>
15

> <PUBCHEM_ATOM_DEF_STEREO_COUNT>
1

> <PUBCHEM_ATOM_UDEF_STEREO_COUNT>
1

> <PUBCHEM_BOND_DEF_STEREO_COUNT>
1

> <PUBCHEM_BOND_UDEF_STEREO_COUNT>
0

> <PUBCHEM_ISOTOPIC_ATOM_COUNT>
0

> <PUBCHEM_COMPONENT_COUNT>
1

> <PUBCHEM_CACTVS_TAUTO_COUNT>
2

> <PUBCHEM_COORDINATE_TYPE>
1
5
255

> <PUBCHEM_BONDANNOTATIONS>
9  2  5
4  16  3

$$$$

