   Color/Form
        White crystaline solid
   from [1]HSDB

   Odor
        Mild, aromatic odor
   from [2]HSDB

   Melting Point
        70-72 deg C
   from [3]HSDB

   Density/Specific Gravity
        1.29 at 20 deg C
   from [4]HSDB

   Octanol/Water Partition Coefficient
        log Kow = 2.7
   from [5]HSDB

   Solubilities

     * >600 mg/L in acetone, dichloromethane, dimethyl sulfoxide, ethyl
       acetate; 300-600 g/L in toluene and p-xylene; 120-150 g/L in
       methanol; 60-76 g/L in ethanol; 25-30 g/L in isopropanol; 4.67 g/L
       in hexane
     * In water, 50 mg/L at 25 deg C

   from [6]HSDB

   Vapor Pressure
        4.9X10-6 mm Hg at 25 deg C
   from [7]HSDB

   Other Chemical/Physical Properties

     * MP: 69-71 deg C (technical grades)
     * Henry's Law constant = 3.7X10-8 atm-cu m/mol at 25 deg C (est)
     * Hydroxyl radical reaction rate constant = 5.3X10-11 cu cm/molec-sec
       at 25 deg C (est)

   from [8]HSDB

   Computed Properties
   Molecular Weight                  286.34402 [g/mol]
   Molecular Formula                 C[13]H[18]O[5]S
   XLogP3-AA                         2.7
   H-Bond Donor                      0
   H-Bond Acceptor                   5
   Rotatable Bond Count              4
   Exact Mass                        286.087495
   MonoIsotopic Mass                 286.087495
   Topological Polar Surface Area    70.2
   Heavy Atom Count                  19
   Formal Charge                     0
   Complexity                        411
   Isotope Atom Count                0
   Defined Atom Stereocenter Count   0
   Undefined Atom Stereocenter Count 1
   Defined Bond Stereocenter Count   0
   Undefined Bond Stereocenter Count 0
   Covalently-Bonded Unit Count      1
   Feature 3D Acceptor Count         4
   Feature 3D Hydrophobe Count       1
   Feature 3D Ring Count             2
   Effective Rotor Count             4.6
   Conformer Sampling RMSD           0.6
   CID Conformer Count               [9]76

References

   1. http://toxnet.nlm.nih.gov/cgi-bin/sis/search/r?dbs+hsdb:@term+@rn+@rel+26225-79-6
   2. http://toxnet.nlm.nih.gov/cgi-bin/sis/search/r?dbs+hsdb:@term+@rn+@rel+26225-79-6
   3. http://toxnet.nlm.nih.gov/cgi-bin/sis/search/r?dbs+hsdb:@term+@rn+@rel+26225-79-6
   4. http://toxnet.nlm.nih.gov/cgi-bin/sis/search/r?dbs+hsdb:@term+@rn+@rel+26225-79-6
   5. http://toxnet.nlm.nih.gov/cgi-bin/sis/search/r?dbs+hsdb:@term+@rn+@rel+26225-79-6
   6. http://toxnet.nlm.nih.gov/cgi-bin/sis/search/r?dbs+hsdb:@term+@rn+@rel+26225-79-6
   7. http://toxnet.nlm.nih.gov/cgi-bin/sis/search/r?dbs+hsdb:@term+@rn+@rel+26225-79-6
   8. http://toxnet.nlm.nih.gov/cgi-bin/sis/search/r?dbs+hsdb:@term+@rn+@rel+26225-79-6
   9. http://pubchem.ncbi.nlm.nih.gov/vw3d/vw3d.cgi?cid=33360
