5386
  -OEChem-07051213032D

 23 24  0     1  0  0  0  0  0999 V2000
    5.4641    1.7694    0.0000 F   0  0  0  0  0  0  0  0  0  0  0  0
    4.5411   -1.8184    0.0000 O   0  0  0  0  0  0  0  0  0  0  0  0
    2.0000   -0.2306    0.0000 O   0  0  0  0  0  0  0  0  0  0  0  0
    3.7320    2.7694    0.0000 O   0  0  0  0  0  0  0  0  0  0  0  0
    3.7320   -0.2306    0.0000 N   0  0  0  0  0  0  0  0  0  0  0  0
    2.8660    1.2694    0.0000 N   0  0  0  0  0  0  0  0  0  0  0  0
    3.7320   -1.2306    0.0000 C   0  0  3  0  0  0  0  0  0  0  0  0
    2.9230   -1.8184    0.0000 C   0  0  0  0  0  0  0  0  0  0  0  0
    3.2320   -2.7694    0.0000 C   0  0  0  0  0  0  0  0  0  0  0  0
    4.2320   -2.7694    0.0000 C   0  0  0  0  0  0  0  0  0  0  0  0
    2.8660    0.2694    0.0000 C   0  0  0  0  0  0  0  0  0  0  0  0
    4.5981    0.2694    0.0000 C   0  0  0  0  0  0  0  0  0  0  0  0
    4.5981    1.2694    0.0000 C   0  0  0  0  0  0  0  0  0  0  0  0
    3.7320    1.7694    0.0000 C   0  0  0  0  0  0  0  0  0  0  0  0
    4.4894   -0.8447    0.0000 H   0  0  0  0  0  0  0  0  0  0  0  0
    2.6130   -1.2814    0.0000 H   0  0  0  0  0  0  0  0  0  0  0  0
    2.3566   -2.0705    0.0000 H   0  0  0  0  0  0  0  0  0  0  0  0
    2.6256   -2.8983    0.0000 H   0  0  0  0  0  0  0  0  0  0  0  0
    3.2969   -3.3860    0.0000 H   0  0  0  0  0  0  0  0  0  0  0  0
    4.1672   -3.3860    0.0000 H   0  0  0  0  0  0  0  0  0  0  0  0
    4.8385   -2.8983    0.0000 H   0  0  0  0  0  0  0  0  0  0  0  0
    5.1350   -0.0406    0.0000 H   0  0  0  0  0  0  0  0  0  0  0  0
    2.3291    1.5794    0.0000 H   0  0  0  0  0  0  0  0  0  0  0  0
  1 13  1  0  0  0  0
  2  7  1  0  0  0  0
  2 10  1  0  0  0  0
  3 11  2  0  0  0  0
  4 14  2  0  0  0  0
  5  7  1  0  0  0  0
  5 11  1  0  0  0  0
  5 12  1  0  0  0  0
  6 11  1  0  0  0  0
  6 14  1  0  0  0  0
  6 23  1  0  0  0  0
  7  8  1  0  0  0  0
  7 15  1  0  0  0  0
  8  9  1  0  0  0  0
  8 16  1  0  0  0  0
  8 17  1  0  0  0  0
  9 10  1  0  0  0  0
  9 18  1  0  0  0  0
  9 19  1  0  0  0  0
 10 20  1  0  0  0  0
 10 21  1  0  0  0  0
 12 13  2  0  0  0  0
 12 22  1  0  0  0  0
 13 14  1  0  0  0  0
M  END
> <PUBCHEM_COMPOUND_CID>
5386

> <PUBCHEM_COMPOUND_CANONICALIZED>
1

> <PUBCHEM_CACTVS_COMPLEXITY>
316

> <PUBCHEM_CACTVS_HBOND_ACCEPTOR>
4

> <PUBCHEM_CACTVS_HBOND_DONOR>
1

> <PUBCHEM_CACTVS_ROTATABLE_BOND>
1

> <PUBCHEM_CACTVS_SUBSKEYS>
AAADccBzMQAAAAAAAAAAAAAAAAAAASAAAAAgAAAAAAAAAAAAAAAAHwAQAAAACADhgAYBAAPABACIAAFWUACAAAAAAAAAAAAIAECAAAAAgAAOAAAMByIAAMAgAAAAAAAAAAAAAAAAAAAAAAAAAAAAAAAAAA==

> <PUBCHEM_IUPAC_OPENEYE_NAME>
5-fluoro-1-tetrahydrofuran-2-yl-pyrimidine-2,4-dione

> <PUBCHEM_IUPAC_CAS_NAME>
5-fluoro-1-(2-oxolanyl)pyrimidine-2,4-dione

> <PUBCHEM_IUPAC_NAME>
5-fluoro-1-(oxolan-2-yl)pyrimidine-2,4-dione

> <PUBCHEM_IUPAC_SYSTEMATIC_NAME>
5-fluoranyl-1-(oxolan-2-yl)pyrimidine-2,4-dione

> <PUBCHEM_IUPAC_TRADITIONAL_NAME>
5-fluoro-1-(tetrahydrofuryl)pyrimidine-2,4-quinone

> <PUBCHEM_IUPAC_INCHI>
InChI=1S/C8H9FN2O3/c9-5-4-11(6-2-1-3-14-6)8(13)10-7(5)12/h4,6H,1-3H2,(H,10,12,13)

> <PUBCHEM_IUPAC_INCHIKEY>
WFWLQNSHRPWKFK-UHFFFAOYSA-N

> <PUBCHEM_XLOGP3>
-0.3

> <PUBCHEM_EXACT_MASS>
200.05972

> <PUBCHEM_MOLECULAR_FORMULA>
C8H9FN2O3

> <PUBCHEM_MOLECULAR_WEIGHT>
200.167063

> <PUBCHEM_OPENEYE_CAN_SMILES>
C1CC(OC1)N2C=C(C(=O)NC2=O)F

> <PUBCHEM_OPENEYE_ISO_SMILES>
C1CC(OC1)N2C=C(C(=O)NC2=O)F

> <PUBCHEM_CACTVS_TPSA>
58.6

> <PUBCHEM_MONOISOTOPIC_WEIGHT>
200.05972

> <PUBCHEM_TOTAL_CHARGE>
0

> <PUBCHEM_HEAVY_ATOM_COUNT>
14

> <PUBCHEM_ATOM_DEF_STEREO_COUNT>
0

> <PUBCHEM_ATOM_UDEF_STEREO_COUNT>
1

> <PUBCHEM_BOND_DEF_STEREO_COUNT>
0

> <PUBCHEM_BOND_UDEF_STEREO_COUNT>
0

> <PUBCHEM_ISOTOPIC_ATOM_COUNT>
0

> <PUBCHEM_COMPONENT_COUNT>
1

> <PUBCHEM_CACTVS_TAUTO_COUNT>
3

> <PUBCHEM_COORDINATE_TYPE>
1
5
255

> <PUBCHEM_BONDANNOTATIONS>
12  13  8
13  14  8
5  11  8
5  12  8
6  11  8
6  14  8
7  15  3

$$$$

