12442794
  -OEChem-07051213112D

 81 85  0     1  0  0  0  0  0999 V2000
    2.5357   -1.9012    0.0000 O   0  0  0  0  0  0  0  0  0  0  0  0
    7.9288    1.1511    0.0000 C   0  0  2  0  0  0  0  0  0  0  0  0
    7.9288    0.1511    0.0000 C   0  0  1  0  0  0  0  0  0  0  0  0
    8.8228    1.6858    0.0000 C   0  0  1  0  0  0  0  0  0  0  0  0
    9.7288    1.1719    0.0000 C   0  0  2  0  0  0  0  0  0  0  0  0
    7.0628   -0.3489    0.0000 C   0  0  2  0  0  0  0  0  0  0  0  0
    6.1968    0.1511    0.0000 C   0  0  1  0  0  0  0  0  0  0  0  0
    8.8228   -0.3835    0.0000 C   0  0  0  0  0  0  0  0  0  0  0  0
    7.0628    1.6511    0.0000 C   0  0  0  0  0  0  0  0  0  0  0  0
    9.7288    0.1303    0.0000 C   0  0  0  0  0  0  0  0  0  0  0  0
   10.4911    1.8727    0.0000 C   0  0  2  0  0  0  0  0  0  0  0  0
    6.1968    1.1511    0.0000 C   0  0  0  0  0  0  0  0  0  0  0  0
    9.0329    2.6997    0.0000 C   0  0  0  0  0  0  0  0  0  0  0  0
    5.2868   -0.3557    0.0000 C   0  0  1  0  0  0  0  0  0  0  0  0
   10.0619    2.8150    0.0000 C   0  0  0  0  0  0  0  0  0  0  0  0
    7.9288    2.1511    0.0000 C   0  0  0  0  0  0  0  0  0  0  0  0
    7.0789   -1.3904    0.0000 C   0  0  0  0  0  0  0  0  0  0  0  0
    7.9288   -0.8489    0.0000 C   0  0  0  0  0  0  0  0  0  0  0  0
   10.5987    0.6786    0.0000 C   0  0  0  0  0  0  0  0  0  0  0  0
    5.2787   -1.3973    0.0000 C   0  0  0  0  0  0  0  0  0  0  0  0
    5.3307    0.6511    0.0000 C   0  0  0  0  0  0  0  0  0  0  0  0
   11.4712    1.6740    0.0000 C   0  0  0  0  0  0  0  0  0  0  0  0
    4.3599    0.2084    0.0000 C   0  0  0  0  0  0  0  0  0  0  0  0
    6.1808   -1.9181    0.0000 C   0  0  0  0  0  0  0  0  0  0  0  0
    4.3433   -1.9470    0.0000 C   0  0  0  0  0  0  0  0  0  0  0  0
    3.4120   -0.3196    0.0000 C   0  0  0  0  0  0  0  0  0  0  0  0
    3.4037   -1.4046    0.0000 C   0  0  2  0  0  0  0  0  0  0  0  0
   12.1333    2.4234    0.0000 C   0  0  0  0  0  0  0  0  0  0  0  0
   11.7892    0.7259    0.0000 C   0  0  0  0  0  0  0  0  0  0  0  0
    3.8467   -2.8150    0.0000 C   0  0  0  0  0  0  0  0  0  0  0  0
    4.8466   -2.8111    0.0000 C   0  0  0  0  0  0  0  0  0  0  0  0
    8.1300    2.1783    0.0000 H   0  0  0  0  0  0  0  0  0  0  0  0
    7.8022   -0.7682    0.0000 H   0  0  0  0  0  0  0  0  0  0  0  0
    8.4182   -0.8533    0.0000 H   0  0  0  0  0  0  0  0  0  0  0  0
    9.2164   -0.8626    0.0000 H   0  0  0  0  0  0  0  0  0  0  0  0
    7.4613    2.1261    0.0000 H   0  0  0  0  0  0  0  0  0  0  0  0
    6.6643    2.1261    0.0000 H   0  0  0  0  0  0  0  0  0  0  0  0
    9.9379   -0.4534    0.0000 H   0  0  0  0  0  0  0  0  0  0  0  0
   10.3397    0.2364    0.0000 H   0  0  0  0  0  0  0  0  0  0  0  0
   10.8770    2.3580    0.0000 H   0  0  0  0  0  0  0  0  0  0  0  0
    5.9847    1.7337    0.0000 H   0  0  0  0  0  0  0  0  0  0  0  0
    5.5862    1.0435    0.0000 H   0  0  0  0  0  0  0  0  0  0  0  0
    9.0290    3.3197    0.0000 H   0  0  0  0  0  0  0  0  0  0  0  0
    8.4159    2.7610    0.0000 H   0  0  0  0  0  0  0  0  0  0  0  0
    5.3031    0.4941    0.0000 H   0  0  0  0  0  0  0  0  0  0  0  0
   10.6500    3.0113    0.0000 H   0  0  0  0  0  0  0  0  0  0  0  0
    9.9285    3.4205    0.0000 H   0  0  0  0  0  0  0  0  0  0  0  0
    8.5488    2.1511    0.0000 H   0  0  0  0  0  0  0  0  0  0  0  0
    7.9288    2.7711    0.0000 H   0  0  0  0  0  0  0  0  0  0  0  0
    7.3088    2.1511    0.0000 H   0  0  0  0  0  0  0  0  0  0  0  0
    7.2969   -1.9708    0.0000 H   0  0  0  0  0  0  0  0  0  0  0  0
    7.6880   -1.2749    0.0000 H   0  0  0  0  0  0  0  0  0  0  0  0
    7.3088   -0.8489    0.0000 H   0  0  0  0  0  0  0  0  0  0  0  0
    7.9288   -1.4689    0.0000 H   0  0  0  0  0  0  0  0  0  0  0  0
    8.5488   -0.8489    0.0000 H   0  0  0  0  0  0  0  0  0  0  0  0
   10.2928    0.1393    0.0000 H   0  0  0  0  0  0  0  0  0  0  0  0
   11.1380    0.3728    0.0000 H   0  0  0  0  0  0  0  0  0  0  0  0
   10.9045    1.2179    0.0000 H   0  0  0  0  0  0  0  0  0  0  0  0
    5.6407    1.1881    0.0000 H   0  0  0  0  0  0  0  0  0  0  0  0
    4.7938    0.9611    0.0000 H   0  0  0  0  0  0  0  0  0  0  0  0
    5.0207    0.1142    0.0000 H   0  0  0  0  0  0  0  0  0  0  0  0
   11.0607    1.2094    0.0000 H   0  0  0  0  0  0  0  0  0  0  0  0
    4.7681    0.6750    0.0000 H   0  0  0  0  0  0  0  0  0  0  0  0
    3.9700    0.6904    0.0000 H   0  0  0  0  0  0  0  0  0  0  0  0
    6.1832   -2.5381    0.0000 H   0  0  0  0  0  0  0  0  0  0  0  0
    3.2075    0.2657    0.0000 H   0  0  0  0  0  0  0  0  0  0  0  0
    2.8004   -0.4210    0.0000 H   0  0  0  0  0  0  0  0  0  0  0  0
    3.4025   -2.0246    0.0000 H   0  0  0  0  0  0  0  0  0  0  0  0
   11.2014    0.5288    0.0000 H   0  0  0  0  0  0  0  0  0  0  0  0
   11.9863    0.1381    0.0000 H   0  0  0  0  0  0  0  0  0  0  0  0
   12.3770    0.9231    0.0000 H   0  0  0  0  0  0  0  0  0  0  0  0
   12.5979    2.0130    0.0000 H   0  0  0  0  0  0  0  0  0  0  0  0
   12.5438    2.8881    0.0000 H   0  0  0  0  0  0  0  0  0  0  0  0
   11.6687    2.8340    0.0000 H   0  0  0  0  0  0  0  0  0  0  0  0
    4.3109   -3.1232    0.0000 H   0  0  0  0  0  0  0  0  0  0  0  0
    5.1587   -3.3469    0.0000 H   0  0  0  0  0  0  0  0  0  0  0  0
    5.3824   -2.4991    0.0000 H   0  0  0  0  0  0  0  0  0  0  0  0
    3.3085   -2.5071    0.0000 H   0  0  0  0  0  0  0  0  0  0  0  0
    3.5387   -3.3531    0.0000 H   0  0  0  0  0  0  0  0  0  0  0  0
    4.3848   -3.1229    0.0000 H   0  0  0  0  0  0  0  0  0  0  0  0
    2.0000   -1.5891    0.0000 H   0  0  0  0  0  0  0  0  0  0  0  0
 27  1  1  1  0  0  0
  1 81  1  0  0  0  0
  2  3  1  0  0  0  0
  2  4  1  0  0  0  0
  2  9  1  0  0  0  0
  2 16  1  6  0  0  0
  3  6  1  0  0  0  0
  3  8  1  0  0  0  0
  3 18  1  1  0  0  0
  4  5  1  0  0  0  0
  4 13  1  0  0  0  0
  4 32  1  1  0  0  0
  5 10  1  0  0  0  0
  5 11  1  0  0  0  0
  5 19  1  6  0  0  0
  6  7  1  0  0  0  0
  6 17  1  0  0  0  0
  6 33  1  6  0  0  0
  7 12  1  0  0  0  0
  7 14  1  0  0  0  0
  7 21  1  1  0  0  0
  8 10  1  0  0  0  0
  8 34  1  0  0  0  0
  8 35  1  0  0  0  0
  9 12  1  0  0  0  0
  9 36  1  0  0  0  0
  9 37  1  0  0  0  0
 10 38  1  0  0  0  0
 10 39  1  0  0  0  0
 11 15  1  0  0  0  0
 11 22  1  6  0  0  0
 11 40  1  0  0  0  0
 12 41  1  0  0  0  0
 12 42  1  0  0  0  0
 13 15  1  0  0  0  0
 13 43  1  0  0  0  0
 13 44  1  0  0  0  0
 14 20  1  0  0  0  0
 14 23  1  0  0  0  0
 14 45  1  6  0  0  0
 15 46  1  0  0  0  0
 15 47  1  0  0  0  0
 16 48  1  0  0  0  0
 16 49  1  0  0  0  0
 16 50  1  0  0  0  0
 17 24  1  0  0  0  0
 17 51  1  0  0  0  0
 17 52  1  0  0  0  0
 18 53  1  0  0  0  0
 18 54  1  0  0  0  0
 18 55  1  0  0  0  0
 19 56  1  0  0  0  0
 19 57  1  0  0  0  0
 19 58  1  0  0  0  0
 20 24  2  0  0  0  0
 20 25  1  0  0  0  0
 21 59  1  0  0  0  0
 21 60  1  0  0  0  0
 21 61  1  0  0  0  0
 22 28  1  0  0  0  0
 22 29  1  0  0  0  0
 22 62  1  0  0  0  0
 23 26  1  0  0  0  0
 23 63  1  0  0  0  0
 23 64  1  0  0  0  0
 24 65  1  0  0  0  0
 25 27  1  0  0  0  0
 25 30  1  0  0  0  0
 25 31  1  0  0  0  0
 26 27  1  0  0  0  0
 26 66  1  0  0  0  0
 26 67  1  0  0  0  0
 27 68  1  0  0  0  0
 28 72  1  0  0  0  0
 28 73  1  0  0  0  0
 28 74  1  0  0  0  0
 29 69  1  0  0  0  0
 29 70  1  0  0  0  0
 29 71  1  0  0  0  0
 30 78  1  0  0  0  0
 30 79  1  0  0  0  0
 30 80  1  0  0  0  0
 31 75  1  0  0  0  0
 31 76  1  0  0  0  0
 31 77  1  0  0  0  0
M  END
> <PUBCHEM_COMPOUND_CID>
12442794

> <PUBCHEM_COMPOUND_CANONICALIZED>
1

> <PUBCHEM_CACTVS_COMPLEXITY>
777

> <PUBCHEM_CACTVS_HBOND_ACCEPTOR>
1

> <PUBCHEM_CACTVS_HBOND_DONOR>
1

> <PUBCHEM_CACTVS_ROTATABLE_BOND>
1

> <PUBCHEM_CACTVS_SUBSKEYS>
AAADcfB4IAAAAAAAAAAAAAAAAAAAAYAAAAAwYMEAAAAAAGDAAAAAGgAACAAADxSggAICAAAAAgCAAiBCAAAAAAAgAAAACAAAAAgAEAIAAQAAQAAEwAAIAAOAwPAPgAAAAAAAAADAAAQAADAAAQAACAAAAA==

> <PUBCHEM_IUPAC_OPENEYE_NAME>
(3R,3aR,5aR,5bS,9S,11aS,11bR,13aS,13bR)-3-isopropyl-3a,5a,8,8,11b,13a-hexamethyl-1,2,3,4,5,5b,6,9,10,11,11a,12,13,13b-tetradecahydrocyclopenta[a]chrysen-9-ol

> <PUBCHEM_IUPAC_CAS_NAME>
(3R,3aR,5aR,5bS,9S,11aS,11bR,13aS,13bR)-3a,5a,8,8,11b,13a-hexamethyl-3-propan-2-yl-1,2,3,4,5,5b,6,9,10,11,11a,12,13,13b-tetradecahydrocyclopenta[a]chrysen-9-ol

> <PUBCHEM_IUPAC_NAME>
(3R,3aR,5aR,5bS,9S,11aS,11bR,13aS,13bR)-3a,5a,8,8,11b,13a-hexamethyl-3-propan-2-yl-1,2,3,4,5,5b,6,9,10,11,11a,12,13,13b-tetradecahydrocyclopenta[a]chrysen-9-ol

> <PUBCHEM_IUPAC_SYSTEMATIC_NAME>
(3R,3aR,5aR,5bS,9S,11aS,11bR,13aS,13bR)-3a,5a,8,8,11b,13a-hexamethyl-3-propan-2-yl-1,2,3,4,5,5b,6,9,10,11,11a,12,13,13b-tetradecahydrocyclopenta[a]chrysen-9-ol

> <PUBCHEM_IUPAC_TRADITIONAL_NAME>
(3R,3aR,5aR,5bS,9S,11aS,11bR,13aS,13bR)-3-isopropyl-3a,5a,8,8,11b,13a-hexamethyl-1,2,3,4,5,5b,6,9,10,11,11a,12,13,13b-tetradecahydrocyclopenta[a]chrysen-9-ol

> <PUBCHEM_IUPAC_INCHI>
InChI=1S/C30H50O/c1-19(2)20-9-12-23-27(20,5)15-17-30(8)24-13-10-21-22(11-14-25(31)26(21,3)4)28(24,6)16-18-29(23,30)7/h10,19-20,22-25,31H,9,11-18H2,1-8H3/t20-,22-,23-,24+,25+,27-,28+,29+,30-/m1/s1

> <PUBCHEM_IUPAC_INCHIKEY>
XVXPXUMUGATHPD-JMJRLLIOSA-N

> <PUBCHEM_XLOGP3_AA>
9

> <PUBCHEM_EXACT_MASS>
426.386166

> <PUBCHEM_MOLECULAR_FORMULA>
C30H50O

> <PUBCHEM_MOLECULAR_WEIGHT>
426.7174

> <PUBCHEM_OPENEYE_CAN_SMILES>
CC(C)C1CCC2C1(CCC3(C2(CCC4(C3CC=C5C4CCC(C5(C)C)O)C)C)C)C

> <PUBCHEM_OPENEYE_ISO_SMILES>
CC(C)[C@H]1CC[C@@H]2[C@@]1(CC[C@]3([C@]2(CC[C@@]4([C@@H]3CC=C5[C@H]4CC[C@@H](C5(C)C)O)C)C)C)C

> <PUBCHEM_CACTVS_TPSA>
20.2

> <PUBCHEM_MONOISOTOPIC_WEIGHT>
426.386166

> <PUBCHEM_TOTAL_CHARGE>
0

> <PUBCHEM_HEAVY_ATOM_COUNT>
31

> <PUBCHEM_ATOM_DEF_STEREO_COUNT>
9

> <PUBCHEM_ATOM_UDEF_STEREO_COUNT>
0

> <PUBCHEM_BOND_DEF_STEREO_COUNT>
0

> <PUBCHEM_BOND_UDEF_STEREO_COUNT>
0

> <PUBCHEM_ISOTOPIC_ATOM_COUNT>
0

> <PUBCHEM_COMPONENT_COUNT>
1

> <PUBCHEM_CACTVS_TAUTO_COUNT>
1

> <PUBCHEM_COORDINATE_TYPE>
1
5
255

> <PUBCHEM_BONDANNOTATIONS>
27  1  5
11  22  6
14  45  6
2  16  6
3  18  5
4  32  5
5  19  6
6  33  6
7  21  5

$$$$

