17395277
  -OEChem-06241222492D

 45 47  0     0  0  0  0  0  0999 V2000
    7.0468   -0.1009    0.0000 S   0  0  0  0  0  0  0  0  0  0  0  0
    7.9480    1.7832    0.0000 O   0  0  0  0  0  0  0  0  0  0  0  0
    5.4641   -2.4373    0.0000 O   0  0  0  0  0  0  0  0  0  0  0  0
    3.7320   -2.4373    0.0000 N   0  0  0  0  0  0  0  0  0  0  0  0
    5.5686    0.5572    0.0000 N   0  0  0  0  0  0  0  0  0  0  0  0
    4.5981   -0.9373    0.0000 C   0  0  0  0  0  0  0  0  0  0  0  0
    3.7320   -3.4373    0.0000 C   0  0  0  0  0  0  0  0  0  0  0  0
    5.4641   -0.4373    0.0000 C   0  0  0  0  0  0  0  0  0  0  0  0
    2.8660   -3.9373    0.0000 C   0  0  0  0  0  0  0  0  0  0  0  0
    4.5981   -1.9373    0.0000 C   0  0  0  0  0  0  0  0  0  0  0  0
    6.5468    0.7651    0.0000 C   0  0  0  0  0  0  0  0  0  0  0  0
    6.9535    1.6786    0.0000 C   0  0  0  0  0  0  0  0  0  0  0  0
    4.5981   -3.9373    0.0000 C   0  0  0  0  0  0  0  0  0  0  0  0
    6.3776   -0.8441    0.0000 C   0  0  0  0  0  0  0  0  0  0  0  0
    2.8660   -4.9373    0.0000 C   0  0  0  0  0  0  0  0  0  0  0  0
    8.3548    2.6967    0.0000 C   0  0  0  0  0  0  0  0  0  0  0  0
    2.0000   -3.4373    0.0000 C   0  0  0  0  0  0  0  0  0  0  0  0
    4.5981   -4.9373    0.0000 C   0  0  0  0  0  0  0  0  0  0  0  0
    9.1682    4.5238    0.0000 C   0  0  0  0  0  0  0  0  0  0  0  0
    3.7320   -5.4373    0.0000 C   0  0  0  0  0  0  0  0  0  0  0  0
    9.3493    2.8012    0.0000 C   0  0  0  0  0  0  0  0  0  0  0  0
    7.7670    3.5057    0.0000 C   0  0  0  0  0  0  0  0  0  0  0  0
    9.7560    3.7148    0.0000 C   0  0  0  0  0  0  0  0  0  0  0  0
    8.1737    4.4193    0.0000 C   0  0  0  0  0  0  0  0  0  0  0  0
    9.5750    5.4373    0.0000 C   0  0  0  0  0  0  0  0  0  0  0  0
    4.3860   -0.3547    0.0000 H   0  0  0  0  0  0  0  0  0  0  0  0
    3.9875   -1.0450    0.0000 H   0  0  0  0  0  0  0  0  0  0  0  0
    3.1951   -2.1273    0.0000 H   0  0  0  0  0  0  0  0  0  0  0  0
    6.9968    2.2971    0.0000 H   0  0  0  0  0  0  0  0  0  0  0  0
    6.3519    1.8286    0.0000 H   0  0  0  0  0  0  0  0  0  0  0  0
    5.1350   -3.6273    0.0000 H   0  0  0  0  0  0  0  0  0  0  0  0
    6.5066   -1.4505    0.0000 H   0  0  0  0  0  0  0  0  0  0  0  0
    2.3291   -5.2473    0.0000 H   0  0  0  0  0  0  0  0  0  0  0  0
    2.3100   -2.9004    0.0000 H   0  0  0  0  0  0  0  0  0  0  0  0
    1.4631   -3.1273    0.0000 H   0  0  0  0  0  0  0  0  0  0  0  0
    1.6900   -3.9743    0.0000 H   0  0  0  0  0  0  0  0  0  0  0  0
    5.1350   -5.2473    0.0000 H   0  0  0  0  0  0  0  0  0  0  0  0
    3.7320   -6.0573    0.0000 H   0  0  0  0  0  0  0  0  0  0  0  0
    9.7137    2.2997    0.0000 H   0  0  0  0  0  0  0  0  0  0  0  0
    7.1504    3.4409    0.0000 H   0  0  0  0  0  0  0  0  0  0  0  0
   10.3726    3.7796    0.0000 H   0  0  0  0  0  0  0  0  0  0  0  0
    7.8093    4.9209    0.0000 H   0  0  0  0  0  0  0  0  0  0  0  0
   10.1414    5.1852    0.0000 H   0  0  0  0  0  0  0  0  0  0  0  0
    9.8272    6.0037    0.0000 H   0  0  0  0  0  0  0  0  0  0  0  0
    9.0086    5.6895    0.0000 H   0  0  0  0  0  0  0  0  0  0  0  0
  1 11  1  0  0  0  0
  1 14  1  0  0  0  0
  2 12  1  0  0  0  0
  2 16  1  0  0  0  0
  3 10  2  0  0  0  0
  4  7  1  0  0  0  0
  4 10  1  0  0  0  0
  4 28  1  0  0  0  0
  5  8  1  0  0  0  0
  5 11  2  0  0  0  0
  6  8  1  0  0  0  0
  6 10  1  0  0  0  0
  6 26  1  0  0  0  0
  6 27  1  0  0  0  0
  7  9  1  0  0  0  0
  7 13  2  0  0  0  0
  8 14  2  0  0  0  0
  9 15  2  0  0  0  0
  9 17  1  0  0  0  0
 11 12  1  0  0  0  0
 12 29  1  0  0  0  0
 12 30  1  0  0  0  0
 13 18  1  0  0  0  0
 13 31  1  0  0  0  0
 14 32  1  0  0  0  0
 15 20  1  0  0  0  0
 15 33  1  0  0  0  0
 16 21  2  0  0  0  0
 16 22  1  0  0  0  0
 17 34  1  0  0  0  0
 17 35  1  0  0  0  0
 17 36  1  0  0  0  0
 18 20  2  0  0  0  0
 18 37  1  0  0  0  0
 19 23  2  0  0  0  0
 19 24  1  0  0  0  0
 19 25  1  0  0  0  0
 20 38  1  0  0  0  0
 21 23  1  0  0  0  0
 21 39  1  0  0  0  0
 22 24  2  0  0  0  0
 22 40  1  0  0  0  0
 23 41  1  0  0  0  0
 24 42  1  0  0  0  0
 25 43  1  0  0  0  0
 25 44  1  0  0  0  0
 25 45  1  0  0  0  0
M  END
> <PUBCHEM_COMPOUND_CID>
17395277

> <PUBCHEM_COMPOUND_CANONICALIZED>
1

> <PUBCHEM_CACTVS_COMPLEXITY>
426

> <PUBCHEM_CACTVS_HBOND_ACCEPTOR>
4

> <PUBCHEM_CACTVS_HBOND_DONOR>
1

> <PUBCHEM_CACTVS_ROTATABLE_BOND>
6

> <PUBCHEM_CACTVS_SUBSKEYS>
AAADceB7MABAAAAAAAAAAAAAAAAAAWAAAAAwYAAAAAAAAAAB0AAAHgQQAAAADAyl3gKyx5LIFAisAyVyVASC+KBhKjgIiBU2bIgOJjrk9ZuHOCjk1BH46AeQwAAOIAAAAAACAABAAAAAAAQAAAAAAAAAAA==

> <PUBCHEM_IUPAC_OPENEYE_NAME>
2-[2-[(4-methylphenoxy)methyl]thiazol-4-yl]-N-(o-tolyl)acetamide

> <PUBCHEM_IUPAC_CAS_NAME>
2-[2-[(4-methylphenoxy)methyl]-4-thiazolyl]-N-(2-methylphenyl)acetamide

> <PUBCHEM_IUPAC_NAME>
2-[2-[(4-methylphenoxy)methyl]-1,3-thiazol-4-yl]-N-(2-methylphenyl)acetamide

> <PUBCHEM_IUPAC_SYSTEMATIC_NAME>
2-[2-[(4-methylphenoxy)methyl]-1,3-thiazol-4-yl]-N-(2-methylphenyl)ethanamide

> <PUBCHEM_IUPAC_TRADITIONAL_NAME>
2-[2-[(4-methylphenoxy)methyl]thiazol-4-yl]-N-(o-tolyl)acetamide

> <PUBCHEM_IUPAC_INCHI>
InChI=1S/C20H20N2O2S/c1-14-7-9-17(10-8-14)24-12-20-21-16(13-25-20)11-19(23)22-18-6-4-3-5-15(18)2/h3-10,13H,11-12H2,1-2H3,(H,22,23)

> <PUBCHEM_IUPAC_INCHIKEY>
QWPCDZPRMZDCTF-UHFFFAOYSA-N

> <PUBCHEM_XLOGP3_AA>
4

> <PUBCHEM_EXACT_MASS>
352.124549

> <PUBCHEM_MOLECULAR_FORMULA>
C20H20N2O2S

> <PUBCHEM_MOLECULAR_WEIGHT>
352.45

> <PUBCHEM_OPENEYE_CAN_SMILES>
CC1=CC=C(C=C1)OCC2=NC(=CS2)CC(=O)NC3=CC=CC=C3C

> <PUBCHEM_OPENEYE_ISO_SMILES>
CC1=CC=C(C=C1)OCC2=NC(=CS2)CC(=O)NC3=CC=CC=C3C

> <PUBCHEM_CACTVS_TPSA>
79.5

> <PUBCHEM_MONOISOTOPIC_WEIGHT>
352.124549

> <PUBCHEM_TOTAL_CHARGE>
0

> <PUBCHEM_HEAVY_ATOM_COUNT>
25

> <PUBCHEM_ATOM_DEF_STEREO_COUNT>
0

> <PUBCHEM_ATOM_UDEF_STEREO_COUNT>
0

> <PUBCHEM_BOND_DEF_STEREO_COUNT>
0

> <PUBCHEM_BOND_UDEF_STEREO_COUNT>
0

> <PUBCHEM_ISOTOPIC_ATOM_COUNT>
0

> <PUBCHEM_COMPONENT_COUNT>
1

> <PUBCHEM_CACTVS_TAUTO_COUNT>
3

> <PUBCHEM_COORDINATE_TYPE>
1
5
255

> <PUBCHEM_BONDANNOTATIONS>
1  11  8
1  14  8
13  18  8
15  20  8
16  21  8
16  22  8
18  20  8
19  23  8
19  24  8
21  23  8
22  24  8
5  11  8
5  8  8
7  13  8
7  9  8
8  14  8
9  15  8

$$$$

