   Color/Form

     * Crystals by sublimation in vacuo
     * Crystals from alcohol

   from [1]HSDB

   Odor
        Disagreeable odor
   from [2]HSDB

   Boiling Point
        Decomposes
   from [3]HSDB

   Melting Point
        97-98.5 deg C
   from [4]HSDB

   Dissociation Constants
        pKa1 = 8.19 (thiol); pKa2 = 10.75 (amine) (c= 0.01 moles/L, mixed
   constants)
   from [5]HSDB

   Octanol/Water Partition Coefficient
        log Kow = -0.20 (est)
   from [6]HSDB

   Solubilities

     * Soluble in methanol, ethanol
     * Freely soluble in alkaline media
     * In water, soluble at 20 deg C, value not given

   from [7]HSDB

   Spectral Properties

     * 1H NMR: 12825 (Sadtler Research Laboratories spectral collection)
     * IR: 17171 (Sadtler Research Laboratories spectral collection)
     * MASS: 4032 (National Bureau of Standards)

   from [8]HSDB

   Vapor Pressure
        2.45 mm Hg at 25 deg C (est)
   from [9]HSDB

   Other Chemical/Physical Properties

     * Oxidizes to cystamine on standing in air
     * Henry's Law constant = 3.6X10-7 atm-cu m/mol at 25 deg C (est)
     * Hydroxyl radical reaction rate constant = 7.3X10-11 cu cm/molec-sec
       at 25 deg C (est)
     * Crystals from alcohol, mp 70.2 to 70.7 deg C. Soluble in water,
       alcohol. /Hydrochloride/

   from [10]HSDB

   Computed Properties
   Molecular Weight                  77.14868 [g/mol]
   Molecular Formula                 C[2]H[7]NS
   XLogP3-AA                         -0.4
   H-Bond Donor                      2
   H-Bond Acceptor                   2
   Rotatable Bond Count              1
   Exact Mass                        77.02992
   MonoIsotopic Mass                 77.02992
   Topological Polar Surface Area    27
   Heavy Atom Count                  4
   Formal Charge                     0
   Complexity                        10
   Isotope Atom Count                0
   Defined Atom Stereocenter Count   0
   Undefined Atom Stereocenter Count 0
   Defined Bond Stereocenter Count   0
   Undefined Bond Stereocenter Count 0
   Covalently-Bonded Unit Count      1
   Feature 3D Donor Count            1
   Feature 3D Cation Count           1
   Effective Rotor Count             1
   Conformer Sampling RMSD           0.4
   CID Conformer Count               [11]3

References

   1. http://toxnet.nlm.nih.gov/cgi-bin/sis/search/r?dbs+hsdb:@term+@rn+@rel+60-23-1
   2. http://toxnet.nlm.nih.gov/cgi-bin/sis/search/r?dbs+hsdb:@term+@rn+@rel+60-23-1
   3. http://toxnet.nlm.nih.gov/cgi-bin/sis/search/r?dbs+hsdb:@term+@rn+@rel+60-23-1
   4. http://toxnet.nlm.nih.gov/cgi-bin/sis/search/r?dbs+hsdb:@term+@rn+@rel+60-23-1
   5. http://toxnet.nlm.nih.gov/cgi-bin/sis/search/r?dbs+hsdb:@term+@rn+@rel+60-23-1
   6. http://toxnet.nlm.nih.gov/cgi-bin/sis/search/r?dbs+hsdb:@term+@rn+@rel+60-23-1
   7. http://toxnet.nlm.nih.gov/cgi-bin/sis/search/r?dbs+hsdb:@term+@rn+@rel+60-23-1
   8. http://toxnet.nlm.nih.gov/cgi-bin/sis/search/r?dbs+hsdb:@term+@rn+@rel+60-23-1
   9. http://toxnet.nlm.nih.gov/cgi-bin/sis/search/r?dbs+hsdb:@term+@rn+@rel+60-23-1
  10. http://toxnet.nlm.nih.gov/cgi-bin/sis/search/r?dbs+hsdb:@term+@rn+@rel+60-23-1
  11. http://pubchem.ncbi.nlm.nih.gov/vw3d/vw3d.cgi?cid=6058
