186059
  -OEChem-07051212562D

 30 31  0     1  0  0  0  0  0999 V2000
    6.4103   -0.9947    0.0000 O   0  0  0  0  0  0  0  0  0  0  0  0
    2.8660   -1.1900    0.0000 O   0  0  0  0  0  0  0  0  0  0  0  0
    2.0000    0.3100    0.0000 O   0  0  0  0  0  0  0  0  0  0  0  0
    6.9939   -0.1900    0.0000 C   0  0  2  0  0  0  0  0  0  0  0  0
    6.4103    0.6147    0.0000 C   0  0  0  0  0  0  0  0  0  0  0  0
    5.4641    0.3100    0.0000 C   0  0  0  0  0  0  0  0  0  0  0  0
    5.4641   -0.6900    0.0000 C   0  0  0  0  0  0  0  0  0  0  0  0
    7.9939   -0.1900    0.0000 C   0  0  0  0  0  0  0  0  0  0  0  0
    4.5981    0.8100    0.0000 C   0  0  0  0  0  0  0  0  0  0  0  0
    4.5981   -1.1900    0.0000 C   0  0  0  0  0  0  0  0  0  0  0  0
    3.7320    0.3100    0.0000 C   0  0  0  0  0  0  0  0  0  0  0  0
    3.7320   -0.6900    0.0000 C   0  0  0  0  0  0  0  0  0  0  0  0
    8.4939   -1.0560    0.0000 C   0  0  0  0  0  0  0  0  0  0  0  0
    8.4939    0.6760    0.0000 C   0  0  0  0  0  0  0  0  0  0  0  0
    2.8660    0.8100    0.0000 C   0  0  0  0  0  0  0  0  0  0  0  0
    2.8660    1.8100    0.0000 C   0  0  0  0  0  0  0  0  0  0  0  0
    7.2756   -0.7423    0.0000 H   0  0  0  0  0  0  0  0  0  0  0  0
    6.9477    0.9240    0.0000 H   0  0  0  0  0  0  0  0  0  0  0  0
    6.1593    1.1816    0.0000 H   0  0  0  0  0  0  0  0  0  0  0  0
    4.5981    1.4300    0.0000 H   0  0  0  0  0  0  0  0  0  0  0  0
    4.5981   -1.8100    0.0000 H   0  0  0  0  0  0  0  0  0  0  0  0
    7.9570   -1.3660    0.0000 H   0  0  0  0  0  0  0  0  0  0  0  0
    8.8039   -1.5930    0.0000 H   0  0  0  0  0  0  0  0  0  0  0  0
    9.0309   -0.7460    0.0000 H   0  0  0  0  0  0  0  0  0  0  0  0
    9.1139    0.6760    0.0000 H   0  0  0  0  0  0  0  0  0  0  0  0
    8.1839    1.2130    0.0000 H   0  0  0  0  0  0  0  0  0  0  0  0
    3.4860    1.8100    0.0000 H   0  0  0  0  0  0  0  0  0  0  0  0
    2.8660    2.4300    0.0000 H   0  0  0  0  0  0  0  0  0  0  0  0
    2.2460    1.8100    0.0000 H   0  0  0  0  0  0  0  0  0  0  0  0
    2.8660   -1.8100    0.0000 H   0  0  0  0  0  0  0  0  0  0  0  0
  1  4  1  0  0  0  0
  1  7  1  0  0  0  0
  2 12  1  0  0  0  0
  2 30  1  0  0  0  0
  3 15  2  0  0  0  0
  4  5  1  0  0  0  0
  4  8  1  6  0  0  0
  4 17  1  0  0  0  0
  5  6  1  0  0  0  0
  5 18  1  0  0  0  0
  5 19  1  0  0  0  0
  6  7  1  0  0  0  0
  6  9  2  0  0  0  0
  7 10  2  0  0  0  0
  8 13  1  0  0  0  0
  8 14  2  0  0  0  0
  9 11  1  0  0  0  0
  9 20  1  0  0  0  0
 10 12  1  0  0  0  0
 10 21  1  0  0  0  0
 11 12  2  0  0  0  0
 11 15  1  0  0  0  0
 13 22  1  0  0  0  0
 13 23  1  0  0  0  0
 13 24  1  0  0  0  0
 14 25  1  0  0  0  0
 14 26  1  0  0  0  0
 15 16  1  0  0  0  0
 16 27  1  0  0  0  0
 16 28  1  0  0  0  0
 16 29  1  0  0  0  0
M  END
> <PUBCHEM_COMPOUND_CID>
186059

> <PUBCHEM_COMPOUND_CANONICALIZED>
1

> <PUBCHEM_CACTVS_COMPLEXITY>
310

> <PUBCHEM_CACTVS_HBOND_ACCEPTOR>
3

> <PUBCHEM_CACTVS_HBOND_DONOR>
1

> <PUBCHEM_CACTVS_ROTATABLE_BOND>
2

> <PUBCHEM_CACTVS_SUBSKEYS>
AAADccBwMAAAAAAAAAAAAAAAAAAAASAAAAAwAAAAAAAAAEgBAAAAGgAACAAADBSgmAIyBoAABgCIAqBSAAACCAAkIAAAiAEGCMgMJzaGNRqCeWCl4BUIuYeI7PzOIAACCAAIAABAAAQQABAAAAAAAAAAAA==

> <PUBCHEM_IUPAC_OPENEYE_NAME>
1-[(2R)-6-hydroxy-2-isopropenyl-2,3-dihydrobenzofuran-5-yl]ethanone

> <PUBCHEM_IUPAC_CAS_NAME>
1-[(2R)-6-hydroxy-2-(1-methylethenyl)-2,3-dihydrobenzofuran-5-yl]ethanone

> <PUBCHEM_IUPAC_NAME>
1-[(2R)-6-hydroxy-2-prop-1-en-2-yl-2,3-dihydro-1-benzofuran-5-yl]ethanone

> <PUBCHEM_IUPAC_SYSTEMATIC_NAME>
1-[(2R)-6-oxidanyl-2-prop-1-en-2-yl-2,3-dihydro-1-benzofuran-5-yl]ethanone

> <PUBCHEM_IUPAC_TRADITIONAL_NAME>
1-[(2R)-6-hydroxy-2-isopropenyl-coumaran-5-yl]ethanone

> <PUBCHEM_IUPAC_INCHI>
InChI=1S/C13H14O3/c1-7(2)12-5-9-4-10(8(3)14)11(15)6-13(9)16-12/h4,6,12,15H,1,5H2,2-3H3/t12-/m1/s1

> <PUBCHEM_IUPAC_INCHIKEY>
FHJSLVLVJPGFRY-GFCCVEGCSA-N

> <PUBCHEM_XLOGP3_AA>
3.1

> <PUBCHEM_EXACT_MASS>
218.094294

> <PUBCHEM_MOLECULAR_FORMULA>
C13H14O3

> <PUBCHEM_MOLECULAR_WEIGHT>
218.24846

> <PUBCHEM_OPENEYE_CAN_SMILES>
CC(=C)C1CC2=C(O1)C=C(C(=C2)C(=O)C)O

> <PUBCHEM_OPENEYE_ISO_SMILES>
CC(=C)[C@H]1CC2=C(O1)C=C(C(=C2)C(=O)C)O

> <PUBCHEM_CACTVS_TPSA>
46.5

> <PUBCHEM_MONOISOTOPIC_WEIGHT>
218.094294

> <PUBCHEM_TOTAL_CHARGE>
0

> <PUBCHEM_HEAVY_ATOM_COUNT>
16

> <PUBCHEM_ATOM_DEF_STEREO_COUNT>
1

> <PUBCHEM_ATOM_UDEF_STEREO_COUNT>
0

> <PUBCHEM_BOND_DEF_STEREO_COUNT>
0

> <PUBCHEM_BOND_UDEF_STEREO_COUNT>
0

> <PUBCHEM_ISOTOPIC_ATOM_COUNT>
0

> <PUBCHEM_COMPONENT_COUNT>
1

> <PUBCHEM_CACTVS_TAUTO_COUNT>
9

> <PUBCHEM_COORDINATE_TYPE>
1
5
255

> <PUBCHEM_BONDANNOTATIONS>
10  12  8
11  12  8
4  8  6
6  7  8
6  9  8
7  10  8
9  11  8

$$$$

