6437359
  -OEChem-07051213062D

 41 40  0     1  0  0  0  0  0999 V2000
    8.5991   -2.0950    0.0000 Cl  0  0  0  0  0  0  0  0  0  0  0  0
    6.0010   -1.5950    0.0000 Cl  0  0  0  0  0  0  0  0  0  0  0  0
    7.7331   -0.5950    0.0000 S   0  0  0  0  0  0  0  0  0  0  0  0
    6.8671   -0.0950    0.0000 O   0  0  0  0  0  0  0  0  0  0  0  0
    9.4651    2.4050    0.0000 O   0  0  0  0  0  0  0  0  0  0  0  0
    2.5369    1.4050    0.0000 O   0  0  0  0  0  0  0  0  0  0  0  0
    3.4030   -0.0950    0.0000 O   0  0  0  0  0  0  0  0  0  0  0  0
   12.9292    1.4050    0.0000 O   0  0  0  0  0  0  0  0  0  0  0  0
   12.0632   -0.0950    0.0000 O   0  0  0  0  0  0  0  0  0  0  0  0
    7.7331    1.4050    0.0000 N   0  0  0  0  0  0  0  0  0  0  0  0
    4.2690    2.4050    0.0000 N   0  0  0  0  0  0  0  0  0  0  0  0
   10.3312    0.9050    0.0000 N   0  0  0  0  0  0  0  0  0  0  0  0
    8.5991    0.9050    0.0000 C   0  0  1  0  0  0  0  0  0  0  0  0
    5.1350    0.9050    0.0000 C   0  0  0  0  0  0  0  0  0  0  0  0
    6.0010    1.4050    0.0000 C   0  0  0  0  0  0  0  0  0  0  0  0
    4.2690    1.4050    0.0000 C   0  0  1  0  0  0  0  0  0  0  0  0
    6.8671    0.9050    0.0000 C   0  0  0  0  0  0  0  0  0  0  0  0
    8.5991   -0.0950    0.0000 C   0  0  0  0  0  0  0  0  0  0  0  0
    9.4651    1.4050    0.0000 C   0  0  0  0  0  0  0  0  0  0  0  0
    3.4030    0.9050    0.0000 C   0  0  0  0  0  0  0  0  0  0  0  0
   11.1972    1.4050    0.0000 C   0  0  0  0  0  0  0  0  0  0  0  0
    7.7331   -1.5950    0.0000 C   0  0  0  0  0  0  0  0  0  0  0  0
   12.0632    0.9050    0.0000 C   0  0  0  0  0  0  0  0  0  0  0  0
    6.8671   -2.0950    0.0000 C   0  0  0  0  0  0  0  0  0  0  0  0
    8.5991    1.5250    0.0000 H   0  0  0  0  0  0  0  0  0  0  0  0
    4.7365    0.4301    0.0000 H   0  0  0  0  0  0  0  0  0  0  0  0
    5.5335    0.4301    0.0000 H   0  0  0  0  0  0  0  0  0  0  0  0
    6.3996    1.8800    0.0000 H   0  0  0  0  0  0  0  0  0  0  0  0
    5.6025    1.8800    0.0000 H   0  0  0  0  0  0  0  0  0  0  0  0
    4.8059    1.7150    0.0000 H   0  0  0  0  0  0  0  0  0  0  0  0
    7.7331    2.0250    0.0000 H   0  0  0  0  0  0  0  0  0  0  0  0
    8.8112   -0.6776    0.0000 H   0  0  0  0  0  0  0  0  0  0  0  0
    9.2097    0.0127    0.0000 H   0  0  0  0  0  0  0  0  0  0  0  0
   10.3312    0.2850    0.0000 H   0  0  0  0  0  0  0  0  0  0  0  0
    3.7320    2.7150    0.0000 H   0  0  0  0  0  0  0  0  0  0  0  0
    4.8059    2.7150    0.0000 H   0  0  0  0  0  0  0  0  0  0  0  0
   11.5957    1.8800    0.0000 H   0  0  0  0  0  0  0  0  0  0  0  0
   10.7987    1.8800    0.0000 H   0  0  0  0  0  0  0  0  0  0  0  0
    2.0000    1.0950    0.0000 H   0  0  0  0  0  0  0  0  0  0  0  0
    6.8671   -2.7150    0.0000 H   0  0  0  0  0  0  0  0  0  0  0  0
   13.4662    1.0950    0.0000 H   0  0  0  0  0  0  0  0  0  0  0  0
  1 22  1  0  0  0  0
  2 24  1  0  0  0  0
  3 18  1  0  0  0  0
  3 22  1  0  0  0  0
  4 17  2  0  0  0  0
  5 19  2  0  0  0  0
  6 20  1  0  0  0  0
  6 39  1  0  0  0  0
  7 20  2  0  0  0  0
  8 23  1  0  0  0  0
  8 41  1  0  0  0  0
  9 23  2  0  0  0  0
 13 10  1  6  0  0  0
 10 17  1  0  0  0  0
 10 31  1  0  0  0  0
 16 11  1  1  0  0  0
 11 35  1  0  0  0  0
 11 36  1  0  0  0  0
 12 19  1  0  0  0  0
 12 21  1  0  0  0  0
 12 34  1  0  0  0  0
 13 18  1  0  0  0  0
 13 19  1  0  0  0  0
 13 25  1  0  0  0  0
 14 15  1  0  0  0  0
 14 16  1  0  0  0  0
 14 26  1  0  0  0  0
 14 27  1  0  0  0  0
 15 17  1  0  0  0  0
 15 28  1  0  0  0  0
 15 29  1  0  0  0  0
 16 20  1  0  0  0  0
 16 30  1  0  0  0  0
 18 32  1  0  0  0  0
 18 33  1  0  0  0  0
 21 23  1  0  0  0  0
 21 37  1  0  0  0  0
 21 38  1  0  0  0  0
 22 24  2  0  0  0  0
 24 40  1  0  0  0  0
M  END
> <PUBCHEM_COMPOUND_CID>
6437359

> <PUBCHEM_COMPOUND_CANONICALIZED>
1

> <PUBCHEM_CACTVS_COMPLEXITY>
517

> <PUBCHEM_CACTVS_HBOND_ACCEPTOR>
8

> <PUBCHEM_CACTVS_HBOND_DONOR>
5

> <PUBCHEM_CACTVS_ROTATABLE_BOND>
11

> <PUBCHEM_CACTVS_SUBSKEYS>
AAADceBzOABGAAAAAAAAAAAAAAAAAAAAAAAAAAAAAAAAAAAAAAAAHgYQCAAACCvFwESACALAAgiIAAGSGAAAAAAAABAAAIGIAAACQBIggCAUQAAEFgCQAACcFwIAAAAAAAAAAAAAAAAAAAAAAAAAAAAAAA==

> <PUBCHEM_IUPAC_OPENEYE_NAME>
(2S)-2-amino-5-[[(1R)-2-(carboxymethylamino)-1-[[(E)-1,2-dichlorovinyl]sulfanylmethyl]-2-oxo-ethyl]amino]-5-oxo-pentanoic acid

> <PUBCHEM_IUPAC_CAS_NAME>
(2S)-2-amino-5-[[(2R)-1-(carboxymethylamino)-3-[[(E)-1,2-dichloroethenyl]thio]-1-oxopropan-2-yl]amino]-5-oxopentanoic acid

> <PUBCHEM_IUPAC_NAME>
(2S)-2-amino-5-[[(2R)-1-(carboxymethylamino)-3-[(E)-1,2-dichloroethenyl]sulfanyl-1-oxopropan-2-yl]amino]-5-oxopentanoic acid

> <PUBCHEM_IUPAC_SYSTEMATIC_NAME>
(2S)-2-azanyl-5-[[(2R)-3-[(E)-1,2-bis(chloranyl)ethenyl]sulfanyl-1-(2-hydroxy-2-oxoethylamino)-1-oxidanylidene-propan-2-yl]amino]-5-oxidanylidene-pentanoic acid

> <PUBCHEM_IUPAC_TRADITIONAL_NAME>
(2S)-2-amino-5-[[(1R)-2-(carboxymethylamino)-1-[[[(E)-1,2-dichlorovinyl]thio]methyl]-2-keto-ethyl]amino]-5-keto-valeric acid

> <PUBCHEM_IUPAC_INCHI>
InChI=1S/C12H17Cl2N3O6S/c13-3-8(14)24-5-7(11(21)16-4-10(19)20)17-9(18)2-1-6(15)12(22)23/h3,6-7H,1-2,4-5,15H2,(H,16,21)(H,17,18)(H,19,20)(H,22,23)/b8-3-/t6-,7-/m0/s1

> <PUBCHEM_IUPAC_INCHIKEY>
IXARYIJEQUJTIZ-KWRIXSAHSA-N

> <PUBCHEM_XLOGP3_AA>
-2.5

> <PUBCHEM_EXACT_MASS>
401.021512

> <PUBCHEM_MOLECULAR_FORMULA>
C12H17Cl2N3O6S

> <PUBCHEM_MOLECULAR_WEIGHT>
402.25088

> <PUBCHEM_OPENEYE_CAN_SMILES>
C(CC(=O)NC(CSC(=CCl)Cl)C(=O)NCC(=O)O)C(C(=O)O)N

> <PUBCHEM_OPENEYE_ISO_SMILES>
C(CC(=O)N[C@@H](CS/C(=C\Cl)/Cl)C(=O)NCC(=O)O)[C@@H](C(=O)O)N

> <PUBCHEM_CACTVS_TPSA>
184

> <PUBCHEM_MONOISOTOPIC_WEIGHT>
401.021512

> <PUBCHEM_TOTAL_CHARGE>
0

> <PUBCHEM_HEAVY_ATOM_COUNT>
24

> <PUBCHEM_ATOM_DEF_STEREO_COUNT>
2

> <PUBCHEM_ATOM_UDEF_STEREO_COUNT>
0

> <PUBCHEM_BOND_DEF_STEREO_COUNT>
1

> <PUBCHEM_BOND_UDEF_STEREO_COUNT>
0

> <PUBCHEM_ISOTOPIC_ATOM_COUNT>
0

> <PUBCHEM_COMPONENT_COUNT>
1

> <PUBCHEM_CACTVS_TAUTO_COUNT>
4

> <PUBCHEM_COORDINATE_TYPE>
1
5
255

> <PUBCHEM_BONDANNOTATIONS>
13  10  6
16  11  5

$$$$

