188288
  -OEChem-07051213032D

 25 26  0     1  0  0  0  0  0999 V2000
    2.1916   -1.0937    0.0000 O   0  0  0  0  0  0  0  0  0  0  0  0
    4.4298    1.3743    0.0000 N   0  0  3  0  0  0  0  0  0  0  0  0
    4.4298    0.3743    0.0000 C   0  0  2  0  0  0  0  0  0  0  0  0
    3.4788    0.0653    0.0000 C   0  0  1  0  0  0  0  0  0  0  0  0
    5.3760    0.0696    0.0000 C   0  0  0  0  0  0  0  0  0  0  0  0
    2.8910    0.8743    0.0000 C   0  0  0  0  0  0  0  0  0  0  0  0
    3.4788    1.6833    0.0000 C   0  0  0  0  0  0  0  0  0  0  0  0
    5.3760    1.6790    0.0000 C   0  0  0  0  0  0  0  0  0  0  0  0
    5.9596    0.8743    0.0000 C   0  0  0  0  0  0  0  0  0  0  0  0
    3.1697   -0.8858    0.0000 C   0  0  0  0  0  0  0  0  0  0  0  0
    4.4309   -0.4757    0.0000 H   0  0  0  0  0  0  0  0  0  0  0  0
    3.9172   -0.3731    0.0000 H   0  0  0  0  0  0  0  0  0  0  0  0
    5.1250   -0.4973    0.0000 H   0  0  0  0  0  0  0  0  0  0  0  0
    5.9134   -0.2396    0.0000 H   0  0  0  0  0  0  0  0  0  0  0  0
    2.4302    1.2892    0.0000 H   0  0  0  0  0  0  0  0  0  0  0  0
    2.4302    0.4595    0.0000 H   0  0  0  0  0  0  0  0  0  0  0  0
    3.7309    2.2497    0.0000 H   0  0  0  0  0  0  0  0  0  0  0  0
    2.9418    1.9933    0.0000 H   0  0  0  0  0  0  0  0  0  0  0  0
    5.9134    1.9883    0.0000 H   0  0  0  0  0  0  0  0  0  0  0  0
    5.1250    2.2460    0.0000 H   0  0  0  0  0  0  0  0  0  0  0  0
    6.4205    0.4596    0.0000 H   0  0  0  0  0  0  0  0  0  0  0  0
    6.4205    1.2890    0.0000 H   0  0  0  0  0  0  0  0  0  0  0  0
    3.1914   -1.5054    0.0000 H   0  0  0  0  0  0  0  0  0  0  0  0
    3.7837   -0.9720    0.0000 H   0  0  0  0  0  0  0  0  0  0  0  0
    2.0000   -1.6833    0.0000 H   0  0  0  0  0  0  0  0  0  0  0  0
  1 10  1  0  0  0  0
  1 25  1  0  0  0  0
  2  3  1  0  0  0  0
  2  7  1  0  0  0  0
  2  8  1  0  0  0  0
  3  4  1  0  0  0  0
  3  5  1  0  0  0  0
  3 11  1  6  0  0  0
  4  6  1  0  0  0  0
  4 10  1  6  0  0  0
  4 12  1  0  0  0  0
  5  9  1  0  0  0  0
  5 13  1  0  0  0  0
  5 14  1  0  0  0  0
  6  7  1  0  0  0  0
  6 15  1  0  0  0  0
  6 16  1  0  0  0  0
  7 17  1  0  0  0  0
  7 18  1  0  0  0  0
  8  9  1  0  0  0  0
  8 19  1  0  0  0  0
  8 20  1  0  0  0  0
  9 21  1  0  0  0  0
  9 22  1  0  0  0  0
 10 23  1  0  0  0  0
 10 24  1  0  0  0  0
M  END
> <PUBCHEM_COMPOUND_CID>
188288

> <PUBCHEM_COMPOUND_CANONICALIZED>
1

> <PUBCHEM_CACTVS_COMPLEXITY>
126

> <PUBCHEM_CACTVS_HBOND_ACCEPTOR>
2

> <PUBCHEM_CACTVS_HBOND_DONOR>
1

> <PUBCHEM_CACTVS_ROTATABLE_BOND>
1

> <PUBCHEM_CACTVS_SUBSKEYS>
AAADccByIAAAAAAAAAAAAAAAAAAAAWLAAAAAAAAAAAAWAAAAAAAAHgAACAAADSjhgAYAAAMAAgAAAAAAAAAAAAAAAAAAAAAIAAAAEAIAgAAEQAAGAACAAAGwwAAOAAAAAAAAAAAAAAAAAAAAAAAAAAAAAA==

> <PUBCHEM_IUPAC_OPENEYE_NAME>
[(1R,8S)-2,3,5,6,7,8-hexahydro-1H-pyrrolizin-1-yl]methanol

> <PUBCHEM_IUPAC_CAS_NAME>
[(1R,8S)-2,3,5,6,7,8-hexahydro-1H-pyrrolizin-1-yl]methanol

> <PUBCHEM_IUPAC_NAME>
[(1R,8S)-2,3,5,6,7,8-hexahydro-1H-pyrrolizin-1-yl]methanol

> <PUBCHEM_IUPAC_SYSTEMATIC_NAME>
[(1R,8S)-2,3,5,6,7,8-hexahydro-1H-pyrrolizin-1-yl]methanol

> <PUBCHEM_IUPAC_TRADITIONAL_NAME>
[(1R,8S)-pyrrolizidin-1-yl]methanol

> <PUBCHEM_IUPAC_INCHI>
InChI=1S/C8H15NO/c10-6-7-3-5-9-4-1-2-8(7)9/h7-8,10H,1-6H2/t7-,8-/m0/s1

> <PUBCHEM_IUPAC_INCHIKEY>
LOFDEIYZIAVXHE-YUMQZZPRSA-N

> <PUBCHEM_XLOGP3_AA>
0.5

> <PUBCHEM_EXACT_MASS>
141.115364

> <PUBCHEM_MOLECULAR_FORMULA>
C8H15NO

> <PUBCHEM_MOLECULAR_WEIGHT>
141.2108

> <PUBCHEM_OPENEYE_CAN_SMILES>
C1CC2C(CCN2C1)CO

> <PUBCHEM_OPENEYE_ISO_SMILES>
C1C[C@H]2[C@@H](CCN2C1)CO

> <PUBCHEM_CACTVS_TPSA>
23.5

> <PUBCHEM_MONOISOTOPIC_WEIGHT>
141.115364

> <PUBCHEM_TOTAL_CHARGE>
0

> <PUBCHEM_HEAVY_ATOM_COUNT>
10

> <PUBCHEM_ATOM_DEF_STEREO_COUNT>
2

> <PUBCHEM_ATOM_UDEF_STEREO_COUNT>
0

> <PUBCHEM_BOND_DEF_STEREO_COUNT>
0

> <PUBCHEM_BOND_UDEF_STEREO_COUNT>
0

> <PUBCHEM_ISOTOPIC_ATOM_COUNT>
0

> <PUBCHEM_COMPONENT_COUNT>
1

> <PUBCHEM_CACTVS_TAUTO_COUNT>
1

> <PUBCHEM_COORDINATE_TYPE>
1
5
255

> <PUBCHEM_BONDANNOTATIONS>
3  11  6
4  10  6

$$$$

