11649137
  -OEChem-07051213152D

 82 86  0     1  0  0  0  0  0999 V2000
    4.2162   -0.8828    0.0000 O   0  0  0  0  0  0  0  0  0  0  0  0
    6.3219   -1.9139    0.0000 O   0  0  0  0  0  0  0  0  0  0  0  0
    7.9233   -1.5899    0.0000 O   0  0  0  0  0  0  0  0  0  0  0  0
    6.6006   -3.6739    0.0000 O   0  0  0  0  0  0  0  0  0  0  0  0
    4.6468    3.1739    0.0000 N   0  0  0  0  0  0  0  0  0  0  0  0
    5.5129    1.6739    0.0000 C   0  0  1  0  0  0  0  0  0  0  0  0
    6.3789    1.1739    0.0000 C   0  0  2  0  0  0  0  0  0  0  0  0
    4.6468    1.1739    0.0000 C   0  0  0  0  0  0  0  0  0  0  0  0
    6.3789    2.1739    0.0000 C   0  0  0  0  0  0  0  0  0  0  0  0
    4.6468    2.1739    0.0000 C   0  0  0  0  0  0  0  0  0  0  0  0
    4.6468    0.1739    0.0000 C   0  0  0  0  0  0  0  0  0  0  0  0
    6.3789    0.1739    0.0000 C   0  0  0  0  0  0  0  0  0  0  0  0
    5.5129   -0.3261    0.0000 C   0  0  0  0  0  0  0  0  0  0  0  0
    6.3789    3.1739    0.0000 C   0  0  0  0  0  0  0  0  0  0  0  0
    7.3789    1.1739    0.0000 C   0  0  0  0  0  0  0  0  0  0  0  0
    3.9397    2.8810    0.0000 C   0  0  0  0  0  0  0  0  0  0  0  0
    5.5129    3.6739    0.0000 C   0  0  0  0  0  0  0  0  0  0  0  0
    5.5129   -1.3261    0.0000 C   0  0  2  0  0  0  0  0  0  0  0  0
    7.3186    0.5160    0.0000 C   0  0  0  0  0  0  0  0  0  0  0  0
    3.2022   -1.6309    0.0000 C   0  0  1  0  0  0  0  0  0  0  0  0
    4.9233   -1.5899    0.0000 C   0  0  1  0  0  0  0  0  0  0  0  0
    7.9233    0.1422    0.0000 C   0  0  0  0  0  0  0  0  0  0  0  0
    3.2503   -0.6239    0.0000 C   0  0  2  0  0  0  0  0  0  0  0  0
    3.2326    2.1739    0.0000 C   0  0  0  0  0  0  0  0  0  0  0  0
    4.0753   -2.1350    0.0000 C   0  0  0  0  0  0  0  0  0  0  0  0
    7.4233   -0.7238    0.0000 C   0  0  2  0  0  0  0  0  0  0  0  0
    5.9233   -1.5899    0.0000 C   0  0  0  0  0  0  0  0  0  0  0  0
    6.4233   -0.7238    0.0000 C   0  0  0  0  0  0  0  0  0  0  0  0
    2.9914    0.3420    0.0000 C   0  0  0  0  0  0  0  0  0  0  0  0
    3.4914    1.2080    0.0000 C   0  0  0  0  0  0  0  0  0  0  0  0
    4.7038   -1.9139    0.0000 C   0  0  0  0  0  0  0  0  0  0  0  0
    2.3245   -2.1101    0.0000 C   0  0  0  0  0  0  0  0  0  0  0  0
    8.9109   -0.0145    0.0000 C   0  0  0  0  0  0  0  0  0  0  0  0
    5.0129   -2.8649    0.0000 C   0  0  0  0  0  0  0  0  0  0  0  0
    2.0000    0.4725    0.0000 C   0  0  0  0  0  0  0  0  0  0  0  0
    6.0129   -2.8649    0.0000 C   0  0  0  0  0  0  0  0  0  0  0  0
    4.4251   -3.6739    0.0000 C   0  0  0  0  0  0  0  0  0  0  0  0
    5.6428    0.7489    0.0000 H   0  0  0  0  0  0  0  0  0  0  0  0
    4.4348    1.7565    0.0000 H   0  0  0  0  0  0  0  0  0  0  0  0
    4.0363    1.0663    0.0000 H   0  0  0  0  0  0  0  0  0  0  0  0
    6.5909    1.5913    0.0000 H   0  0  0  0  0  0  0  0  0  0  0  0
    6.9895    2.2816    0.0000 H   0  0  0  0  0  0  0  0  0  0  0  0
    4.0363    0.2816    0.0000 H   0  0  0  0  0  0  0  0  0  0  0  0
    4.4348   -0.4087    0.0000 H   0  0  0  0  0  0  0  0  0  0  0  0
    6.9895    3.0663    0.0000 H   0  0  0  0  0  0  0  0  0  0  0  0
    6.5909    3.7565    0.0000 H   0  0  0  0  0  0  0  0  0  0  0  0
    7.6293    1.7411    0.0000 H   0  0  0  0  0  0  0  0  0  0  0  0
    4.3781    3.3194    0.0000 H   0  0  0  0  0  0  0  0  0  0  0  0
    3.5013    3.3194    0.0000 H   0  0  0  0  0  0  0  0  0  0  0  0
    5.9114    4.1489    0.0000 H   0  0  0  0  0  0  0  0  0  0  0  0
    5.1143    4.1489    0.0000 H   0  0  0  0  0  0  0  0  0  0  0  0
    4.7555   -0.9402    0.0000 H   0  0  0  0  0  0  0  0  0  0  0  0
    7.5306   -0.0667    0.0000 H   0  0  0  0  0  0  0  0  0  0  0  0
    7.9012    0.7280    0.0000 H   0  0  0  0  0  0  0  0  0  0  0  0
    7.1065    1.0986    0.0000 H   0  0  0  0  0  0  0  0  0  0  0  0
    2.6767   -1.3019    0.0000 H   0  0  0  0  0  0  0  0  0  0  0  0
    5.5243   -2.1909    0.0000 H   0  0  0  0  0  0  0  0  0  0  0  0
    2.4051   -0.7148    0.0000 H   0  0  0  0  0  0  0  0  0  0  0  0
    3.6843   -2.6162    0.0000 H   0  0  0  0  0  0  0  0  0  0  0  0
    4.4887   -2.5970    0.0000 H   0  0  0  0  0  0  0  0  0  0  0  0
    2.8770    2.6818    0.0000 H   0  0  0  0  0  0  0  0  0  0  0  0
    2.6707    1.9119    0.0000 H   0  0  0  0  0  0  0  0  0  0  0  0
    8.0433   -0.7238    0.0000 H   0  0  0  0  0  0  0  0  0  0  0  0
    5.8156   -2.2004    0.0000 H   0  0  0  0  0  0  0  0  0  0  0  0
    6.5059   -1.8019    0.0000 H   0  0  0  0  0  0  0  0  0  0  0  0
    6.5310   -0.1133    0.0000 H   0  0  0  0  0  0  0  0  0  0  0  0
    5.8407   -0.5118    0.0000 H   0  0  0  0  0  0  0  0  0  0  0  0
    4.0414    0.9217    0.0000 H   0  0  0  0  0  0  0  0  0  0  0  0
    4.1142   -1.7223    0.0000 H   0  0  0  0  0  0  0  0  0  0  0  0
    2.0274   -1.5660    0.0000 H   0  0  0  0  0  0  0  0  0  0  0  0
    1.7803   -2.4072    0.0000 H   0  0  0  0  0  0  0  0  0  0  0  0
    2.6216   -2.6543    0.0000 H   0  0  0  0  0  0  0  0  0  0  0  0
    8.8138   -0.6269    0.0000 H   0  0  0  0  0  0  0  0  0  0  0  0
    9.5233   -0.1117    0.0000 H   0  0  0  0  0  0  0  0  0  0  0  0
    9.0081    0.5978    0.0000 H   0  0  0  0  0  0  0  0  0  0  0  0
    2.0809    1.0872    0.0000 H   0  0  0  0  0  0  0  0  0  0  0  0
    1.3853    0.5534    0.0000 H   0  0  0  0  0  0  0  0  0  0  0  0
    1.9191   -0.1422    0.0000 H   0  0  0  0  0  0  0  0  0  0  0  0
    8.5433   -1.5899    0.0000 H   0  0  0  0  0  0  0  0  0  0  0  0
    3.9235   -3.3095    0.0000 H   0  0  0  0  0  0  0  0  0  0  0  0
    4.0606   -4.1755    0.0000 H   0  0  0  0  0  0  0  0  0  0  0  0
    4.9267   -4.0384    0.0000 H   0  0  0  0  0  0  0  0  0  0  0  0
  1 21  1  0  0  0  0
  1 23  1  0  0  0  0
  2 18  1  0  0  0  0
  2 36  1  0  0  0  0
 26  3  1  1  0  0  0
  3 79  1  0  0  0  0
  4 36  2  0  0  0  0
  5 10  2  0  0  0  0
  5 17  1  0  0  0  0
  6  7  1  0  0  0  0
  6  8  1  1  0  0  0
  6  9  1  0  0  0  0
  6 10  1  0  0  0  0
  7 12  1  0  0  0  0
  7 15  1  0  0  0  0
  7 38  1  6  0  0  0
  8 11  1  0  0  0  0
  8 39  1  0  0  0  0
  8 40  1  0  0  0  0
  9 14  1  0  0  0  0
  9 41  1  0  0  0  0
  9 42  1  0  0  0  0
 10 16  1  0  0  0  0
 11 13  1  0  0  0  0
 11 43  1  0  0  0  0
 11 44  1  0  0  0  0
 12 13  2  0  0  0  0
 12 19  1  0  0  0  0
 13 18  1  0  0  0  0
 14 17  1  0  0  0  0
 14 45  1  0  0  0  0
 14 46  1  0  0  0  0
 15 22  2  0  0  0  0
 15 47  1  0  0  0  0
 16 24  1  0  0  0  0
 16 48  1  0  0  0  0
 16 49  1  0  0  0  0
 17 50  1  0  0  0  0
 17 51  1  0  0  0  0
 18 31  1  0  0  0  0
 18 52  1  6  0  0  0
 19 53  1  0  0  0  0
 19 54  1  0  0  0  0
 19 55  1  0  0  0  0
 20 23  1  0  0  0  0
 20 25  1  0  0  0  0
 20 32  1  1  0  0  0
 20 56  1  0  0  0  0
 21 25  1  0  0  0  0
 21 27  1  0  0  0  0
 21 57  1  1  0  0  0
 22 26  1  0  0  0  0
 22 33  1  0  0  0  0
 23 29  1  0  0  0  0
 23 58  1  1  0  0  0
 24 30  1  0  0  0  0
 24 61  1  0  0  0  0
 24 62  1  0  0  0  0
 25 59  1  0  0  0  0
 25 60  1  0  0  0  0
 26 28  1  0  0  0  0
 26 63  1  0  0  0  0
 27 28  1  0  0  0  0
 27 64  1  0  0  0  0
 27 65  1  0  0  0  0
 28 66  1  0  0  0  0
 28 67  1  0  0  0  0
 29 30  2  0  0  0  0
 29 35  1  0  0  0  0
 30 68  1  0  0  0  0
 31 34  2  0  0  0  0
 31 69  1  0  0  0  0
 32 70  1  0  0  0  0
 32 71  1  0  0  0  0
 32 72  1  0  0  0  0
 33 73  1  0  0  0  0
 33 74  1  0  0  0  0
 33 75  1  0  0  0  0
 34 36  1  0  0  0  0
 34 37  1  0  0  0  0
 35 76  1  0  0  0  0
 35 77  1  0  0  0  0
 35 78  1  0  0  0  0
 37 80  1  0  0  0  0
 37 81  1  0  0  0  0
 37 82  1  0  0  0  0
M  END
> <PUBCHEM_COMPOUND_CID>
11649137

> <PUBCHEM_COMPOUND_CANONICALIZED>
1

> <PUBCHEM_CACTVS_COMPLEXITY>
1080

> <PUBCHEM_CACTVS_HBOND_ACCEPTOR>
5

> <PUBCHEM_CACTVS_HBOND_DONOR>
1

> <PUBCHEM_CACTVS_ROTATABLE_BOND>
1

> <PUBCHEM_CACTVS_SUBSKEYS>
AAADcfB+OAAAAAAAAAAAAAAAAAAAASIAAAAgQAAAAAAAAAAAAAAAHgAACAAADxzhgAYCCAIABgCoAyDyDAAAAAAgAAAACAEwAEgAFAIAoQACUAAEgAAIMYPQwPAPgAAAAAAAAAAAAAAAAAAAAAAAAAAAAA==

> <PUBCHEM_IUPAC_INCHI>
InChI=1S/C32H45NO4/c1-19-8-6-9-29-32(13-7-15-33-29)14-12-25(28-18-22(4)31(35)37-28)23(5)26(32)17-20(2)27(34)11-10-24-16-21(3)30(19)36-24/h8,17-18,21,24,26-28,30,34H,6-7,9-16H2,1-5H3/b19-8+,20-17+/t21-,24-,26+,27+,28+,30+,32+/m1/s1

> <PUBCHEM_IUPAC_INCHIKEY>
DVXZVCNEGRKLMW-RPGUUIFVSA-N

> <PUBCHEM_XLOGP3_AA>
3.4

> <PUBCHEM_EXACT_MASS>
507.334859

> <PUBCHEM_MOLECULAR_FORMULA>
C32H45NO4

> <PUBCHEM_MOLECULAR_WEIGHT>
507.704

> <PUBCHEM_OPENEYE_CAN_SMILES>
CC1CC2CCC(C(=CC3C(=C(CCC34CCCN=C4CCC=C(C1O2)C)C5C=C(C(=O)O5)C)C)C)O

> <PUBCHEM_OPENEYE_ISO_SMILES>
C[C@@H]1C[C@H]2CC[C@@H](/C(=C/[C@H]3C(=C(CC[C@@]34CCCN=C4CC/C=C(/[C@@H]1O2)\C)[C@@H]5C=C(C(=O)O5)C)C)/C)O

> <PUBCHEM_CACTVS_TPSA>
68.1

> <PUBCHEM_MONOISOTOPIC_WEIGHT>
507.334859

> <PUBCHEM_TOTAL_CHARGE>
0

> <PUBCHEM_HEAVY_ATOM_COUNT>
37

> <PUBCHEM_ATOM_DEF_STEREO_COUNT>
7

> <PUBCHEM_ATOM_UDEF_STEREO_COUNT>
0

> <PUBCHEM_BOND_DEF_STEREO_COUNT>
2

> <PUBCHEM_BOND_UDEF_STEREO_COUNT>
0

> <PUBCHEM_ISOTOPIC_ATOM_COUNT>
0

> <PUBCHEM_COMPONENT_COUNT>
1

> <PUBCHEM_CACTVS_TAUTO_COUNT>
1

> <PUBCHEM_COORDINATE_TYPE>
1
5
255

> <PUBCHEM_BONDANNOTATIONS>
18  52  6
20  32  5
21  57  5
23  58  5
26  3  5
6  8  5
7  38  6

$$$$

