   Color/Form
        Crystals from water
   from [1]HSDB

   Melting Point
        207-208 deg C
   from [2]HSDB

   Octanol/Water Partition Coefficient
        log Kow = 0.16 (est)
   from [3]HSDB

   Solubilities
        In water, 2.24X10+3 mg/L at 25 deg C (est)
   from [4]HSDB

   Spectral Properties
        UV max in 0.1M HCl: 207, 275 nm (epsilon 14500, 14650); at pH 7.2
   212, 270 nm (epsilon 17050, 16150); in 0.1M NaOH: 220, 276 nm (epsilon
   15900, 14650)
   from [5]HSDB

   Vapor Pressure
        2.02X10-11 mm Hg at 25 deg C (est)
   from [6]HSDB

   Other Chemical/Physical Properties

     * Henry's Law constant = 1.82X10-17 atm-cu m/mol at 25 deg C (est)
     * Hydroxyl radical reaction rate constant = 2.99X10-10 cu
       cm/molec-sec at 25 deg C (est)
     * Ozone radical reaction rate constant = 4.3X10-16 cu cm/molec-sec at
       25 deg C (est)

   from [7]HSDB

   Computed Properties
   Molecular Weight                  219.24312 [g/mol]
   Molecular Formula                 C[10]H[13]N[5]O
   XLogP3-AA                         0.7
   H-Bond Donor                      3
   H-Bond Acceptor                   5
   Rotatable Bond Count              4
   Tautomer Count                    8
   Exact Mass                        219.11201
   MonoIsotopic Mass                 219.11201
   Topological Polar Surface Area    86.7
   Heavy Atom Count                  16
   Formal Charge                     0
   Complexity                        258
   Isotope Atom Count                0
   Defined Atom Stereocenter Count   0
   Undefined Atom Stereocenter Count 0
   Defined Bond Stereocenter Count   1
   Undefined Bond Stereocenter Count 0
   Covalently-Bonded Unit Count      1
   Feature 3D Acceptor Count         1
   Feature 3D Donor Count            3
   Feature 3D Cation Count           3
   Feature 3D Hydrophobe Count       1
   Feature 3D Ring Count             2
   Effective Rotor Count             4
   Conformer Sampling RMSD           0.6
   CID Conformer Count               [8]74

References

   1. http://toxnet.nlm.nih.gov/cgi-bin/sis/search/r?dbs+hsdb:@term+@rn+@rel+1637-39-4
   2. http://toxnet.nlm.nih.gov/cgi-bin/sis/search/r?dbs+hsdb:@term+@rn+@rel+1637-39-4
   3. http://toxnet.nlm.nih.gov/cgi-bin/sis/search/r?dbs+hsdb:@term+@rn+@rel+1637-39-4
   4. http://toxnet.nlm.nih.gov/cgi-bin/sis/search/r?dbs+hsdb:@term+@rn+@rel+1637-39-4
   5. http://toxnet.nlm.nih.gov/cgi-bin/sis/search/r?dbs+hsdb:@term+@rn+@rel+1637-39-4
   6. http://toxnet.nlm.nih.gov/cgi-bin/sis/search/r?dbs+hsdb:@term+@rn+@rel+1637-39-4
   7. http://toxnet.nlm.nih.gov/cgi-bin/sis/search/r?dbs+hsdb:@term+@rn+@rel+1637-39-4
   8. http://pubchem.ncbi.nlm.nih.gov/vw3d/vw3d.cgi?cid=449093
