291096
  -OEChem-07051212572D

 44 46  0     1  0  0  0  0  0999 V2000
    3.7230   -1.6446    0.0000 O   0  0  0  0  0  0  0  0  0  0  0  0
    4.5447    1.5207    0.0000 O   0  0  0  0  0  0  0  0  0  0  0  0
    4.8930   -3.2479    0.0000 O   0  0  0  0  0  0  0  0  0  0  0  0
    2.0000   -1.2125    0.0000 O   0  0  0  0  0  0  0  0  0  0  0  0
    6.1053    2.2722    0.0000 O   0  0  0  0  0  0  0  0  0  0  0  0
    5.4786   -1.5709    0.0000 C   0  0  2  0  0  0  0  0  0  0  0  0
    6.3796   -1.1370    0.0000 C   0  0  2  0  0  0  0  0  0  0  0  0
    4.5777   -1.1370    0.0000 C   0  0  1  0  0  0  0  0  0  0  0  0
    6.6021   -0.1621    0.0000 C   0  0  2  0  0  0  0  0  0  0  0  0
    4.3551   -0.1621    0.0000 C   0  0  1  0  0  0  0  0  0  0  0  0
    7.0647   -1.8573    0.0000 C   0  0  0  0  0  0  0  0  0  0  0  0
    5.9786    0.6198    0.0000 C   0  0  0  0  0  0  0  0  0  0  0  0
    4.9786    0.6198    0.0000 C   0  0  2  0  0  0  0  0  0  0  0  0
    5.6146   -2.5556    0.0000 C   0  0  0  0  0  0  0  0  0  0  0  0
    6.5929   -2.7323    0.0000 C   0  0  0  0  0  0  0  0  0  0  0  0
    4.5777   -2.0048    0.0000 C   0  0  0  0  0  0  0  0  0  0  0  0
    3.3648   -0.0755    0.0000 C   0  0  0  0  0  0  0  0  0  0  0  0
    7.5770    0.0604    0.0000 C   0  0  0  0  0  0  0  0  0  0  0  0
    2.9749   -0.9900    0.0000 C   0  0  0  0  0  0  0  0  0  0  0  0
    2.8504    0.7820    0.0000 C   0  0  0  0  0  0  0  0  0  0  0  0
    5.1081    2.3470    0.0000 C   0  0  0  0  0  0  0  0  0  0  0  0
    4.6742    3.2479    0.0000 C   0  0  0  0  0  0  0  0  0  0  0  0
    7.1993   -0.9119    0.0000 H   0  0  0  0  0  0  0  0  0  0  0  0
    4.6147   -1.9862    0.0000 H   0  0  0  0  0  0  0  0  0  0  0  0
    6.8069    0.4231    0.0000 H   0  0  0  0  0  0  0  0  0  0  0  0
    4.0200    0.6191    0.0000 H   0  0  0  0  0  0  0  0  0  0  0  0
    7.5765   -2.2073    0.0000 H   0  0  0  0  0  0  0  0  0  0  0  0
    7.4666   -1.3852    0.0000 H   0  0  0  0  0  0  0  0  0  0  0  0
    6.5372    0.8888    0.0000 H   0  0  0  0  0  0  0  0  0  0  0  0
    5.8407    1.2242    0.0000 H   0  0  0  0  0  0  0  0  0  0  0  0
    4.3625    0.6892    0.0000 H   0  0  0  0  0  0  0  0  0  0  0  0
    6.4192   -3.3274    0.0000 H   0  0  0  0  0  0  0  0  0  0  0  0
    7.1665   -2.9676    0.0000 H   0  0  0  0  0  0  0  0  0  0  0  0
    4.3086   -1.4462    0.0000 H   0  0  0  0  0  0  0  0  0  0  0  0
    4.0191   -2.2738    0.0000 H   0  0  0  0  0  0  0  0  0  0  0  0
    4.8467   -2.5634    0.0000 H   0  0  0  0  0  0  0  0  0  0  0  0
    7.7150   -0.5440    0.0000 H   0  0  0  0  0  0  0  0  0  0  0  0
    8.1815    0.1984    0.0000 H   0  0  0  0  0  0  0  0  0  0  0  0
    7.4391    0.6649    0.0000 H   0  0  0  0  0  0  0  0  0  0  0  0
    3.1514    1.3241    0.0000 H   0  0  0  0  0  0  0  0  0  0  0  0
    2.2305    0.7717    0.0000 H   0  0  0  0  0  0  0  0  0  0  0  0
    5.2328    3.5169    0.0000 H   0  0  0  0  0  0  0  0  0  0  0  0
    4.4052    3.8065    0.0000 H   0  0  0  0  0  0  0  0  0  0  0  0
    4.1156    2.9789    0.0000 H   0  0  0  0  0  0  0  0  0  0  0  0
  1  8  1  0  0  0  0
  1 19  1  0  0  0  0
 13  2  1  1  0  0  0
  2 21  1  0  0  0  0
  3 14  2  0  0  0  0
  4 19  2  0  0  0  0
  5 21  2  0  0  0  0
  6  7  1  0  0  0  0
  6  8  1  0  0  0  0
  6 14  1  0  0  0  0
  6 16  1  6  0  0  0
  7  9  1  0  0  0  0
  7 11  1  0  0  0  0
  7 23  1  1  0  0  0
  8 10  1  0  0  0  0
  8 24  1  1  0  0  0
  9 12  1  0  0  0  0
  9 18  1  6  0  0  0
  9 25  1  0  0  0  0
 10 13  1  0  0  0  0
 10 17  1  0  0  0  0
 10 26  1  1  0  0  0
 11 15  1  0  0  0  0
 11 27  1  0  0  0  0
 11 28  1  0  0  0  0
 12 13  1  0  0  0  0
 12 29  1  0  0  0  0
 12 30  1  0  0  0  0
 13 31  1  0  0  0  0
 14 15  1  0  0  0  0
 15 32  1  0  0  0  0
 15 33  1  0  0  0  0
 16 34  1  0  0  0  0
 16 35  1  0  0  0  0
 16 36  1  0  0  0  0
 17 19  1  0  0  0  0
 17 20  2  0  0  0  0
 18 37  1  0  0  0  0
 18 38  1  0  0  0  0
 18 39  1  0  0  0  0
 20 40  1  0  0  0  0
 20 41  1  0  0  0  0
 21 22  1  0  0  0  0
 22 42  1  0  0  0  0
 22 43  1  0  0  0  0
 22 44  1  0  0  0  0
M  END
> <PUBCHEM_COMPOUND_CID>
291096

> <PUBCHEM_COMPOUND_CANONICALIZED>
1

> <PUBCHEM_CACTVS_COMPLEXITY>
565

> <PUBCHEM_CACTVS_HBOND_ACCEPTOR>
5

> <PUBCHEM_CACTVS_HBOND_DONOR>
0

> <PUBCHEM_CACTVS_ROTATABLE_BOND>
2

> <PUBCHEM_CACTVS_SUBSKEYS>
AAADceB4OAAAAAAAAAAAAAAAAAAAAaIAAAAAAAAABgAAAADQAAAAGgAAAAAADxSggAICCAAABACIAoDSCAAAAAAgAAAAAAEAAEgABBYAIQACAAAF4AAAIIHKzPDPgAAAAAAAAAAAAAAAAAAAAAAACAAAAA==

> <PUBCHEM_IUPAC_OPENEYE_NAME>
[(3aR,4S,6S,6aS,9aR,9bR)-6,9a-dimethyl-3-methylene-2,9-dioxo-3a,4,5,6,6a,7,8,9b-octahydroazuleno[4,5-b]furan-4-yl] acetate

> <PUBCHEM_IUPAC_CAS_NAME>
acetic acid [(3aR,4S,6S,6aS,9aR,9bR)-6,9a-dimethyl-3-methylene-2,9-dioxo-3a,4,5,6,6a,7,8,9b-octahydroazuleno[4,5-b]furan-4-yl] ester

> <PUBCHEM_IUPAC_NAME>
[(3aR,4S,6S,6aS,9aR,9bR)-6,9a-dimethyl-3-methylidene-2,9-dioxo-3a,4,5,6,6a,7,8,9b-octahydroazuleno[4,5-b]furan-4-yl] acetate

> <PUBCHEM_IUPAC_SYSTEMATIC_NAME>
[(3aR,4S,6S,6aS,9aR,9bR)-6,9a-dimethyl-3-methylidene-2,9-bis(oxidanylidene)-3a,4,5,6,6a,7,8,9b-octahydroazuleno[4,5-b]furan-4-yl] ethanoate

> <PUBCHEM_IUPAC_TRADITIONAL_NAME>
acetic acid [(3aR,4S,6S,6aS,9aR,9bR)-2,9-diketo-6,9a-dimethyl-3-methylene-3a,4,5,6,6a,7,8,9b-octahydroazuleno[4,5-b]furan-4-yl] ester

> <PUBCHEM_IUPAC_INCHI>
InChI=1S/C17H22O5/c1-8-7-12(21-10(3)18)14-9(2)16(20)22-15(14)17(4)11(8)5-6-13(17)19/h8,11-12,14-15H,2,5-7H2,1,3-4H3/t8-,11-,12-,14+,15+,17-/m0/s1

> <PUBCHEM_IUPAC_INCHIKEY>
VWBKXLDATRBPOE-VICSMPQUSA-N

> <PUBCHEM_XLOGP3_AA>
2

> <PUBCHEM_EXACT_MASS>
306.146724

> <PUBCHEM_MOLECULAR_FORMULA>
C17H22O5

> <PUBCHEM_MOLECULAR_WEIGHT>
306.35358

> <PUBCHEM_OPENEYE_CAN_SMILES>
CC1CC(C2C(C3(C1CCC3=O)C)OC(=O)C2=C)OC(=O)C

> <PUBCHEM_OPENEYE_ISO_SMILES>
C[C@H]1C[C@@H]([C@@H]2[C@H]([C@]3([C@H]1CCC3=O)C)OC(=O)C2=C)OC(=O)C

> <PUBCHEM_CACTVS_TPSA>
69.7

> <PUBCHEM_MONOISOTOPIC_WEIGHT>
306.146724

> <PUBCHEM_TOTAL_CHARGE>
0

> <PUBCHEM_HEAVY_ATOM_COUNT>
22

> <PUBCHEM_ATOM_DEF_STEREO_COUNT>
6

> <PUBCHEM_ATOM_UDEF_STEREO_COUNT>
0

> <PUBCHEM_BOND_DEF_STEREO_COUNT>
0

> <PUBCHEM_BOND_UDEF_STEREO_COUNT>
0

> <PUBCHEM_ISOTOPIC_ATOM_COUNT>
0

> <PUBCHEM_COMPONENT_COUNT>
1

> <PUBCHEM_CACTVS_TAUTO_COUNT>
2

> <PUBCHEM_COORDINATE_TYPE>
1
5
255

> <PUBCHEM_BONDANNOTATIONS>
10  26  5
13  2  5
6  16  6
7  23  5
8  24  5
9  18  6

$$$$

