46174013
  -OEChem-07051213112D

 89 91  0     1  0  0  0  0  0999 V2000
    6.0010   -3.6471    0.0000 O   0  0  0  0  0  0  0  0  0  0  0  0
    4.2690   -3.6471    0.0000 O   0  0  0  0  0  0  0  0  0  0  0  0
    4.2690   -2.6471    0.0000 O   0  0  0  0  0  0  0  0  0  0  0  0
    7.7331   -2.6471    0.0000 O   0  0  0  0  0  0  0  0  0  0  0  0
    4.2690   -0.6471    0.0000 O   0  0  0  0  0  0  0  0  0  0  0  0
    7.7331   -0.6471    0.0000 O   0  0  0  0  0  0  0  0  0  0  0  0
    7.7331    0.3529    0.0000 O   0  0  0  0  0  0  0  0  0  0  0  0
    8.5991    0.8529    0.0000 O   0  0  0  0  0  0  0  0  0  0  0  0
   12.0632    1.8529    0.0000 O   0  0  0  0  0  0  0  0  0  0  0  0
   11.1972    3.3529    0.0000 O   0  0  0  0  0  0  0  0  0  0  0  0
    6.0010    0.3529    0.0000 N   0  0  0  0  0  0  0  0  0  0  0  0
    6.0010   -5.6471    0.0000 N   0  0  0  0  0  0  0  0  0  0  0  0
    2.5369   -5.6471    0.0000 N   0  0  0  0  0  0  0  0  0  0  0  0
    7.7331    2.3529    0.0000 N   0  0  0  0  0  0  0  0  0  0  0  0
    5.1920    3.9407    0.0000 N   0  0  0  0  0  0  0  0  0  0  0  0
    6.5010    4.8917    0.0000 N   0  0  0  0  0  0  0  0  0  0  0  0
    9.4651    2.3529    0.0000 N   0  0  0  0  0  0  0  0  0  0  0  0
    4.9132    5.7007    0.0000 N   0  0  0  0  0  0  0  0  0  0  0  0
    6.0010   -2.6471    0.0000 C   0  0  0  0  0  0  0  0  0  0  0  0
    6.0010   -0.6471    0.0000 C   0  0  0  0  0  0  0  0  0  0  0  0
    5.1350   -2.1471    0.0000 C   0  0  2  0  0  0  0  0  0  0  0  0
    6.8671   -2.1471    0.0000 C   0  0  1  0  0  0  0  0  0  0  0  0
    5.1350   -1.1471    0.0000 C   0  0  1  0  0  0  0  0  0  0  0  0
    6.8671   -1.1471    0.0000 C   0  0  1  0  0  0  0  0  0  0  0  0
    5.1350   -4.1471    0.0000 C   0  0  1  0  0  0  0  0  0  0  0  0
    5.1350   -5.1471    0.0000 C   0  0  2  0  0  0  0  0  0  0  0  0
    4.2690   -5.6471    0.0000 C   0  0  0  0  0  0  0  0  0  0  0  0
    3.4030   -5.1471    0.0000 C   0  0  1  0  0  0  0  0  0  0  0  0
    3.4030   -4.1471    0.0000 C   0  0  1  0  0  0  0  0  0  0  0  0
    6.8671    0.8529    0.0000 C   0  0  0  0  0  0  0  0  0  0  0  0
    6.8671    1.8529    0.0000 C   0  0  2  0  0  0  0  0  0  0  0  0
    2.5369   -3.6471    0.0000 C   0  0  0  0  0  0  0  0  0  0  0  0
    6.0010    2.3529    0.0000 C   0  0  0  0  0  0  0  0  0  0  0  0
    6.0010    3.3529    0.0000 C   0  0  2  0  0  0  0  0  0  0  0  0
    6.8100    3.9407    0.0000 C   0  0  0  0  0  0  0  0  0  0  0  0
    8.5991    1.8529    0.0000 C   0  0  0  0  0  0  0  0  0  0  0  0
    5.5010    4.8917    0.0000 C   0  0  0  0  0  0  0  0  0  0  0  0
   10.3312    1.8529    0.0000 C   0  0  1  0  0  0  0  0  0  0  0  0
   10.3312    0.8529    0.0000 C   0  0  0  0  0  0  0  0  0  0  0  0
   11.1972    0.3529    0.0000 C   0  0  0  0  0  0  0  0  0  0  0  0
   11.1972    2.3529    0.0000 C   0  0  0  0  0  0  0  0  0  0  0  0
   11.1972   -0.6471    0.0000 C   0  0  0  0  0  0  0  0  0  0  0  0
   12.0632    0.8529    0.0000 C   0  0  0  0  0  0  0  0  0  0  0  0
    6.5380   -2.9571    0.0000 H   0  0  0  0  0  0  0  0  0  0  0  0
    6.5380   -0.3371    0.0000 H   0  0  0  0  0  0  0  0  0  0  0  0
    5.1350   -2.7671    0.0000 H   0  0  0  0  0  0  0  0  0  0  0  0
    7.4040   -1.8371    0.0000 H   0  0  0  0  0  0  0  0  0  0  0  0
    5.1350   -0.5271    0.0000 H   0  0  0  0  0  0  0  0  0  0  0  0
    7.4040   -1.4571    0.0000 H   0  0  0  0  0  0  0  0  0  0  0  0
    5.1350   -3.5271    0.0000 H   0  0  0  0  0  0  0  0  0  0  0  0
    5.1350   -5.7671    0.0000 H   0  0  0  0  0  0  0  0  0  0  0  0
    5.4641    0.6629    0.0000 H   0  0  0  0  0  0  0  0  0  0  0  0
    3.8705   -6.1221    0.0000 H   0  0  0  0  0  0  0  0  0  0  0  0
    4.6675   -6.1221    0.0000 H   0  0  0  0  0  0  0  0  0  0  0  0
    3.4030   -5.7671    0.0000 H   0  0  0  0  0  0  0  0  0  0  0  0
    3.4030   -3.5271    0.0000 H   0  0  0  0  0  0  0  0  0  0  0  0
    3.7320   -2.3371    0.0000 H   0  0  0  0  0  0  0  0  0  0  0  0
    7.7331   -3.2671    0.0000 H   0  0  0  0  0  0  0  0  0  0  0  0
    3.7320   -0.9571    0.0000 H   0  0  0  0  0  0  0  0  0  0  0  0
    8.2700   -0.9571    0.0000 H   0  0  0  0  0  0  0  0  0  0  0  0
    6.8671    2.4729    0.0000 H   0  0  0  0  0  0  0  0  0  0  0  0
    6.0010   -6.2671    0.0000 H   0  0  0  0  0  0  0  0  0  0  0  0
    6.5380   -5.3371    0.0000 H   0  0  0  0  0  0  0  0  0  0  0  0
    2.8469   -3.1102    0.0000 H   0  0  0  0  0  0  0  0  0  0  0  0
    2.0000   -3.3371    0.0000 H   0  0  0  0  0  0  0  0  0  0  0  0
    2.2269   -4.1841    0.0000 H   0  0  0  0  0  0  0  0  0  0  0  0
    5.3905    2.4605    0.0000 H   0  0  0  0  0  0  0  0  0  0  0  0
    5.7890    1.7703    0.0000 H   0  0  0  0  0  0  0  0  0  0  0  0
    2.5369   -6.2671    0.0000 H   0  0  0  0  0  0  0  0  0  0  0  0
    2.0000   -5.3371    0.0000 H   0  0  0  0  0  0  0  0  0  0  0  0
    5.4486    3.0714    0.0000 H   0  0  0  0  0  0  0  0  0  0  0  0
    7.7331    2.9729    0.0000 H   0  0  0  0  0  0  0  0  0  0  0  0
    7.1200    3.4037    0.0000 H   0  0  0  0  0  0  0  0  0  0  0  0
    7.3764    4.1928    0.0000 H   0  0  0  0  0  0  0  0  0  0  0  0
    4.6024    3.7491    0.0000 H   0  0  0  0  0  0  0  0  0  0  0  0
    9.4651    2.9729    0.0000 H   0  0  0  0  0  0  0  0  0  0  0  0
    9.7942    1.5429    0.0000 H   0  0  0  0  0  0  0  0  0  0  0  0
    9.7206    0.9605    0.0000 H   0  0  0  0  0  0  0  0  0  0  0  0
   10.1191    0.2703    0.0000 H   0  0  0  0  0  0  0  0  0  0  0  0
   10.6603    0.0429    0.0000 H   0  0  0  0  0  0  0  0  0  0  0  0
    5.1654    6.2671    0.0000 H   0  0  0  0  0  0  0  0  0  0  0  0
    4.2966    5.6359    0.0000 H   0  0  0  0  0  0  0  0  0  0  0  0
   10.5772   -0.6471    0.0000 H   0  0  0  0  0  0  0  0  0  0  0  0
   11.1972   -1.2671    0.0000 H   0  0  0  0  0  0  0  0  0  0  0  0
   11.8172   -0.6471    0.0000 H   0  0  0  0  0  0  0  0  0  0  0  0
   12.3732    0.3159    0.0000 H   0  0  0  0  0  0  0  0  0  0  0  0
   12.6002    1.1629    0.0000 H   0  0  0  0  0  0  0  0  0  0  0  0
   11.7532    1.3898    0.0000 H   0  0  0  0  0  0  0  0  0  0  0  0
   12.6002    2.1629    0.0000 H   0  0  0  0  0  0  0  0  0  0  0  0
  1 19  1  0  0  0  0
 25  1  1  6  0  0  0
  2 25  1  0  0  0  0
  2 29  1  0  0  0  0
 21  3  1  1  0  0  0
  3 57  1  0  0  0  0
 22  4  1  1  0  0  0
  4 58  1  0  0  0  0
 23  5  1  1  0  0  0
  5 59  1  0  0  0  0
 24  6  1  6  0  0  0
  6 60  1  0  0  0  0
  7 30  2  0  0  0  0
  8 36  2  0  0  0  0
  9 41  1  0  0  0  0
  9 89  1  0  0  0  0
 10 41  2  0  0  0  0
 11 20  1  0  0  0  0
 11 30  1  0  0  0  0
 11 52  1  0  0  0  0
 26 12  1  1  0  0  0
 12 62  1  0  0  0  0
 12 63  1  0  0  0  0
 28 13  1  6  0  0  0
 13 69  1  0  0  0  0
 13 70  1  0  0  0  0
 31 14  1  6  0  0  0
 14 36  1  0  0  0  0
 14 72  1  0  0  0  0
 15 34  1  0  0  0  0
 15 37  1  0  0  0  0
 15 75  1  0  0  0  0
 16 35  1  0  0  0  0
 16 37  2  0  0  0  0
 17 36  1  0  0  0  0
 38 17  1  6  0  0  0
 17 76  1  0  0  0  0
 18 37  1  0  0  0  0
 18 81  1  0  0  0  0
 18 82  1  0  0  0  0
 19 21  1  0  0  0  0
 19 22  1  0  0  0  0
 19 44  1  0  0  0  0
 20 23  1  0  0  0  0
 20 24  1  0  0  0  0
 20 45  1  0  0  0  0
 21 23  1  0  0  0  0
 21 46  1  0  0  0  0
 22 24  1  0  0  0  0
 22 47  1  0  0  0  0
 23 48  1  0  0  0  0
 24 49  1  0  0  0  0
 25 26  1  0  0  0  0
 25 50  1  0  0  0  0
 26 27  1  0  0  0  0
 26 51  1  0  0  0  0
 27 28  1  0  0  0  0
 27 53  1  0  0  0  0
 27 54  1  0  0  0  0
 28 29  1  0  0  0  0
 28 55  1  0  0  0  0
 29 32  1  1  0  0  0
 29 56  1  0  0  0  0
 30 31  1  0  0  0  0
 31 33  1  0  0  0  0
 31 61  1  0  0  0  0
 32 64  1  0  0  0  0
 32 65  1  0  0  0  0
 32 66  1  0  0  0  0
 34 33  1  1  0  0  0
 33 67  1  0  0  0  0
 33 68  1  0  0  0  0
 34 35  1  0  0  0  0
 34 71  1  0  0  0  0
 35 73  1  0  0  0  0
 35 74  1  0  0  0  0
 38 39  1  0  0  0  0
 38 41  1  0  0  0  0
 38 77  1  0  0  0  0
 39 40  1  0  0  0  0
 39 78  1  0  0  0  0
 39 79  1  0  0  0  0
 40 42  1  0  0  0  0
 40 43  1  0  0  0  0
 40 80  1  0  0  0  0
 42 83  1  0  0  0  0
 42 84  1  0  0  0  0
 42 85  1  0  0  0  0
 43 86  1  0  0  0  0
 43 87  1  0  0  0  0
 43 88  1  0  0  0  0
M  END
> <PUBCHEM_COMPOUND_CID>
46174013

> <PUBCHEM_COMPOUND_CANONICALIZED>
1

> <PUBCHEM_CACTVS_COMPLEXITY>
1000

> <PUBCHEM_CACTVS_HBOND_ACCEPTOR>
13

> <PUBCHEM_CACTVS_HBOND_DONOR>
12

> <PUBCHEM_CACTVS_ROTATABLE_BOND>
11

> <PUBCHEM_CACTVS_SUBSKEYS>
AAADcfB7/AAAAAAAAAAAAAAAAAAAAQAAAAA0QAAAAAAAAAAAAAAAHgAQCAAADTzxgAcDCALABgAoAAGQPAAAAAEAAAABAIGIAACTUBIAyCA3QAAPFgKXAAH8cQ8MAAAAAAAAAAACgAAUAACgAAAAAAAAAA==

> <PUBCHEM_IUPAC_OPENEYE_NAME>
(2S)-2-[[(1S)-1-[[(5R)-2-amino-4,5-dihydro-1H-imidazol-5-yl]methyl]-2-[[(2S,3S,5R,6S)-4-[(2R,3S,5S,6R)-3,5-diamino-6-methyl-tetrahydropyran-2-yl]oxy-2,3,5,6-tetrahydroxy-cyclohexyl]amino]-2-oxo-ethyl]carbamoylamino]-4-methyl-pentanoic acid

> <PUBCHEM_IUPAC_CAS_NAME>
(2S)-2-[[[[(2S)-3-[(5R)-2-amino-4,5-dihydro-1H-imidazol-5-yl]-1-[[(2S,3S,5R,6S)-4-[[(2R,3S,5S,6R)-3,5-diamino-6-methyl-2-oxanyl]oxy]-2,3,5,6-tetrahydroxycyclohexyl]amino]-1-oxopropan-2-yl]amino]-oxomethyl]amino]-4-methylpentanoic acid

> <PUBCHEM_IUPAC_NAME>
(2S)-2-[[(2S)-3-[(5R)-2-amino-4,5-dihydro-1H-imidazol-5-yl]-1-[[(2S,3S,5R,6S)-4-[(2R,3S,5S,6R)-3,5-diamino-6-methyloxan-2-yl]oxy-2,3,5,6-tetrahydroxycyclohexyl]amino]-1-oxopropan-2-yl]carbamoylamino]-4-methylpentanoic acid

> <PUBCHEM_IUPAC_SYSTEMATIC_NAME>
(2S)-2-[[(2S)-3-[(5R)-2-azanyl-4,5-dihydro-1H-imidazol-5-yl]-1-[[(2S,3S,5R,6S)-4-[(2R,3S,5S,6R)-3,5-bis(azanyl)-6-methyl-oxan-2-yl]oxy-2,3,5,6-tetrakis(oxidanyl)cyclohexyl]amino]-1-oxidanylidene-propan-2-yl]carbamoylamino]-4-methyl-pentanoic acid

> <PUBCHEM_IUPAC_TRADITIONAL_NAME>
(2S)-2-[[(1S)-1-[[(4R)-2-amino-2-imidazolin-4-yl]methyl]-2-[[(2S,3S,5R,6S)-4-[(2R,3S,5S,6R)-3,5-diamino-6-methyl-tetrahydropyran-2-yl]oxy-2,3,5,6-tetrahydroxy-cyclohexyl]amino]-2-keto-ethyl]carbamoylamino]-4-methyl-valeric acid

> <PUBCHEM_IUPAC_INCHI>
InChI=1S/C25H46N8O10/c1-8(2)4-14(22(39)40)32-25(41)31-13(5-10-7-29-24(28)30-10)21(38)33-15-16(34)18(36)20(19(37)17(15)35)43-23-12(27)6-11(26)9(3)42-23/h8-20,23,34-37H,4-7,26-27H2,1-3H3,(H,33,38)(H,39,40)(H3,28,29,30)(H2,31,32,41)/t9-,10-,11+,12+,13+,14+,15?,16+,17+,18-,19+,20?,23-/m1/s1

> <PUBCHEM_IUPAC_INCHIKEY>
UDZJEGDQBWDMOF-IWNFWUJZSA-N

> <PUBCHEM_XLOGP3_AA>
-7.2

> <PUBCHEM_EXACT_MASS>
618.33369

> <PUBCHEM_MOLECULAR_FORMULA>
C25H46N8O10

> <PUBCHEM_MOLECULAR_WEIGHT>
618.68034

> <PUBCHEM_OPENEYE_CAN_SMILES>
CC1C(CC(C(O1)OC2C(C(C(C(C2O)O)NC(=O)C(CC3CN=C(N3)N)NC(=O)NC(CC(C)C)C(=O)O)O)O)N)N

> <PUBCHEM_OPENEYE_ISO_SMILES>
C[C@@H]1[C@H](C[C@@H]([C@H](O1)OC2[C@@H]([C@H](C([C@@H]([C@@H]2O)O)NC(=O)[C@H](C[C@@H]3CN=C(N3)N)NC(=O)N[C@@H](CC(C)C)C(=O)O)O)O)N)N

> <PUBCHEM_CACTVS_TPSA>
309

> <PUBCHEM_MONOISOTOPIC_WEIGHT>
618.33369

> <PUBCHEM_TOTAL_CHARGE>
0

> <PUBCHEM_HEAVY_ATOM_COUNT>
43

> <PUBCHEM_ATOM_DEF_STEREO_COUNT>
11

> <PUBCHEM_ATOM_UDEF_STEREO_COUNT>
0

> <PUBCHEM_BOND_DEF_STEREO_COUNT>
0

> <PUBCHEM_BOND_UDEF_STEREO_COUNT>
0

> <PUBCHEM_ISOTOPIC_ATOM_COUNT>
0

> <PUBCHEM_COMPONENT_COUNT>
1

> <PUBCHEM_CACTVS_TAUTO_COUNT>
18

> <PUBCHEM_COORDINATE_TYPE>
1
5
255

> <PUBCHEM_BONDANNOTATIONS>
25  1  6
26  12  5
28  13  6
31  14  6
38  17  6
29  32  5
21  3  5
34  33  5
22  4  5
23  5  5
24  6  6

$$$$

