   Color/Form
        Deliquescent scales or prisms
   from [1]HSDB

   Taste
        Sweet
   from [2]HSDB

   Melting Point
        Decomposes around 293 deg C
   from [3]HSDB

   Dissociation Constants
        pKa = 2.38 (est)
   from [4]HSDB

   Octanol/Water Partition Coefficient
        log Kow = -4.9 (est)
   from [5]HSDB

   Solubilities

     * Solubility (g/100 g solvent): methanol, 55; ethanol, 8.7. Sparingly
       soluble in ether.
     * Slightly soluble in chloroform
     * In water, 6.11X10+5 mg/L at 19 deg C

   from [6]HSDB

   Spectral Properties

     * IR: 479 (Sadtler Research Laboratories IR grating collection)
     * MASS: 33359 (NIST/EPA/MSDC Mass Spectral Database, 1990 Version); 8
       (Atlas of Mass Spectral Data, John Wiley & Sons, New York)

   from [7]HSDB

   Vapor Pressure
        1.36X10-8 mm Hg at 25 deg C (est)
   from [8]HSDB

   Other Chemical/Physical Properties

     * Isomerizes at the mp to methyl ester of dimethylaminoacetic acid;
       yields trimethylamine with concd KOH
     * Henry's Law constant = 6.2X10-16 atm-cu m/mol at 25 deg C (est)
     * Hydroxyl radical reaction rate constant = 1.1X10-11 cu cm/molec-sec
       at 25 deg C (est)
     * pH of satd soln about 8.0 /monohydrate/

   from [9]HSDB

   Computed Properties
   Molecular Weight                  117.14634 [g/mol]
   Molecular Formula                 C[5]H[11]NO[2]
   XLogP3-AA                         0.5
   H-Bond Donor                      0
   H-Bond Acceptor                   2
   Rotatable Bond Count              1
   Exact Mass                        117.078979
   MonoIsotopic Mass                 117.078979
   Topological Polar Surface Area    40.1
   Heavy Atom Count                  8
   Formal Charge                     0
   Complexity                        87.6
   Isotope Atom Count                0
   Defined Atom Stereocenter Count   0
   Undefined Atom Stereocenter Count 0
   Defined Bond Stereocenter Count   0
   Undefined Bond Stereocenter Count 0
   Covalently-Bonded Unit Count      1
   Feature 3D Acceptor Count         2
   Feature 3D Anion Count            1
   Feature 3D Cation Count           1
   Effective Rotor Count             2
   Conformer Sampling RMSD           0.4
   CID Conformer Count               [10]2

References

   1. http://toxnet.nlm.nih.gov/cgi-bin/sis/search/r?dbs+hsdb:@term+@rn+@rel+107-43-7
   2. http://toxnet.nlm.nih.gov/cgi-bin/sis/search/r?dbs+hsdb:@term+@rn+@rel+107-43-7
   3. http://toxnet.nlm.nih.gov/cgi-bin/sis/search/r?dbs+hsdb:@term+@rn+@rel+107-43-7
   4. http://toxnet.nlm.nih.gov/cgi-bin/sis/search/r?dbs+hsdb:@term+@rn+@rel+107-43-7
   5. http://toxnet.nlm.nih.gov/cgi-bin/sis/search/r?dbs+hsdb:@term+@rn+@rel+107-43-7
   6. http://toxnet.nlm.nih.gov/cgi-bin/sis/search/r?dbs+hsdb:@term+@rn+@rel+107-43-7
   7. http://toxnet.nlm.nih.gov/cgi-bin/sis/search/r?dbs+hsdb:@term+@rn+@rel+107-43-7
   8. http://toxnet.nlm.nih.gov/cgi-bin/sis/search/r?dbs+hsdb:@term+@rn+@rel+107-43-7
   9. http://toxnet.nlm.nih.gov/cgi-bin/sis/search/r?dbs+hsdb:@term+@rn+@rel+107-43-7
  10. http://pubchem.ncbi.nlm.nih.gov/vw3d/vw3d.cgi?cid=247
