4606
  -OEChem-06261200142D

 29 29  0     1  0  0  0  0  0999 V2000
    3.2601    0.6933    0.0000 S   0  0  0  0  0  0  0  0  0  0  0  0
    3.7601   -0.8455    0.0000 O   0  0  0  0  0  0  0  0  0  0  0  0
    6.2633    0.1024    0.0000 N   0  3  0  0  0  0  0  0  0  0  0  0
    5.5202   -0.5668    0.0000 C   0  0  0  0  0  0  0  0  0  0  0  0
    4.5691   -0.2577    0.0000 C   0  0  3  0  0  0  0  0  0  0  0  0
    4.2601    0.6933    0.0000 C   0  0  0  0  0  0  0  0  0  0  0  0
    7.0064    0.7715    0.0000 C   0  0  0  0  0  0  0  0  0  0  0  0
    6.9324   -0.6408    0.0000 C   0  0  0  0  0  0  0  0  0  0  0  0
    5.5942    0.8455    0.0000 C   0  0  0  0  0  0  0  0  0  0  0  0
    2.9511   -0.2577    0.0000 C   0  0  3  0  0  0  0  0  0  0  0  0
    2.0000   -0.5668    0.0000 C   0  0  0  0  0  0  0  0  0  0  0  0
    5.2291   -1.1142    0.0000 H   0  0  0  0  0  0  0  0  0  0  0  0
    6.0087   -0.9485    0.0000 H   0  0  0  0  0  0  0  0  0  0  0  0
    4.6661   -0.8701    0.0000 H   0  0  0  0  0  0  0  0  0  0  0  0
    4.8665    0.8222    0.0000 H   0  0  0  0  0  0  0  0  0  0  0  0
    4.1953    1.3099    0.0000 H   0  0  0  0  0  0  0  0  0  0  0  0
    6.0549    1.2604    0.0000 H   0  0  0  0  0  0  0  0  0  0  0  0
    7.4213    0.3108    0.0000 H   0  0  0  0  0  0  0  0  0  0  0  0
    7.4672    1.1864    0.0000 H   0  0  0  0  0  0  0  0  0  0  0  0
    6.5916    1.2323    0.0000 H   0  0  0  0  0  0  0  0  0  0  0  0
    6.4717   -1.0556    0.0000 H   0  0  0  0  0  0  0  0  0  0  0  0
    7.3473   -1.1015    0.0000 H   0  0  0  0  0  0  0  0  0  0  0  0
    7.3932   -0.2259    0.0000 H   0  0  0  0  0  0  0  0  0  0  0  0
    5.1793    1.3063    0.0000 H   0  0  0  0  0  0  0  0  0  0  0  0
    5.1334    0.4307    0.0000 H   0  0  0  0  0  0  0  0  0  0  0  0
    2.8541   -0.8701    0.0000 H   0  0  0  0  0  0  0  0  0  0  0  0
    1.8084    0.0229    0.0000 H   0  0  0  0  0  0  0  0  0  0  0  0
    1.4103   -0.7583    0.0000 H   0  0  0  0  0  0  0  0  0  0  0  0
    2.1916   -1.1564    0.0000 H   0  0  0  0  0  0  0  0  0  0  0  0
  1  6  1  0  0  0  0
  1 10  1  0  0  0  0
  2  5  1  0  0  0  0
  2 10  1  0  0  0  0
  3  4  1  0  0  0  0
  3  7  1  0  0  0  0
  3  8  1  0  0  0  0
  3  9  1  0  0  0  0
  4  5  1  0  0  0  0
  4 12  1  0  0  0  0
  4 13  1  0  0  0  0
  5  6  1  0  0  0  0
  5 14  1  0  0  0  0
  6 15  1  0  0  0  0
  6 16  1  0  0  0  0
  7 18  1  0  0  0  0
  7 19  1  0  0  0  0
  7 20  1  0  0  0  0
  8 21  1  0  0  0  0
  8 22  1  0  0  0  0
  8 23  1  0  0  0  0
  9 17  1  0  0  0  0
  9 24  1  0  0  0  0
  9 25  1  0  0  0  0
 10 11  1  0  0  0  0
 10 26  1  0  0  0  0
 11 27  1  0  0  0  0
 11 28  1  0  0  0  0
 11 29  1  0  0  0  0
M  CHG  1   3   1
M  END
> <PUBCHEM_COMPOUND_CID>
4606

> <PUBCHEM_COMPOUND_CANONICALIZED>
1

> <PUBCHEM_CACTVS_COMPLEXITY>
133

> <PUBCHEM_CACTVS_HBOND_ACCEPTOR>
2

> <PUBCHEM_CACTVS_HBOND_DONOR>
0

> <PUBCHEM_CACTVS_ROTATABLE_BOND>
2

> <PUBCHEM_CACTVS_SUBSKEYS>
AAADceByIABAAAAAAAAAAAAAAAAAASAAAAAAAAAAAAAAAAAAAAAAHgQAAAAACBTlwAaCAAMABAgAAAAAAAAAAAAAABAAAAAIAAACAAAgAAAHAAAAAAAwAAAAAAAAAAAAAAAAAAAAAAAAAAAAAAAAAAAAAA==

> <PUBCHEM_IUPAC_OPENEYE_NAME>
trimethyl-[(2-methyl-1,3-oxathiolan-5-yl)methyl]ammonium

> <PUBCHEM_IUPAC_CAS_NAME>
trimethyl-[(2-methyl-1,3-oxathiolan-5-yl)methyl]ammonium

> <PUBCHEM_IUPAC_NAME>
trimethyl-[(2-methyl-1,3-oxathiolan-5-yl)methyl]azanium

> <PUBCHEM_IUPAC_SYSTEMATIC_NAME>
trimethyl-[(2-methyl-1,3-oxathiolan-5-yl)methyl]azanium

> <PUBCHEM_IUPAC_TRADITIONAL_NAME>
trimethyl-[(2-methyl-1,3-oxathiolan-5-yl)methyl]ammonium

> <PUBCHEM_IUPAC_INCHI>
InChI=1S/C8H18NOS/c1-7-10-8(6-11-7)5-9(2,3)4/h7-8H,5-6H2,1-4H3/q+1

> <PUBCHEM_IUPAC_INCHIKEY>
NZAMMJKYTYHSHN-UHFFFAOYSA-N

> <PUBCHEM_XLOGP3_AA>
1.2

> <PUBCHEM_EXACT_MASS>
176.11091

> <PUBCHEM_MOLECULAR_FORMULA>
C8H18NOS+

> <PUBCHEM_MOLECULAR_WEIGHT>
176.29962

> <PUBCHEM_OPENEYE_CAN_SMILES>
CC1OC(CS1)C[N+](C)(C)C

> <PUBCHEM_OPENEYE_ISO_SMILES>
CC1OC(CS1)C[N+](C)(C)C

> <PUBCHEM_CACTVS_TPSA>
34.5

> <PUBCHEM_MONOISOTOPIC_WEIGHT>
176.11091

> <PUBCHEM_TOTAL_CHARGE>
1

> <PUBCHEM_HEAVY_ATOM_COUNT>
11

> <PUBCHEM_ATOM_DEF_STEREO_COUNT>
0

> <PUBCHEM_ATOM_UDEF_STEREO_COUNT>
2

> <PUBCHEM_BOND_DEF_STEREO_COUNT>
0

> <PUBCHEM_BOND_UDEF_STEREO_COUNT>
0

> <PUBCHEM_ISOTOPIC_ATOM_COUNT>
0

> <PUBCHEM_COMPONENT_COUNT>
1

> <PUBCHEM_CACTVS_TAUTO_COUNT>
1

> <PUBCHEM_COORDINATE_TYPE>
1
5
255

> <PUBCHEM_BONDANNOTATIONS>
10  11  3
5  4  3

$$$$

