4285
  -OEChem-06261200012D

 64 63  0     1  0  0  0  0  0999 V2000
    4.5981    1.6550    0.0000 O   0  0  0  0  0  0  0  0  0  0  0  0
    2.8660   -1.3450    0.0000 O   0  0  0  0  0  0  0  0  0  0  0  0
    2.8660    0.6550    0.0000 N   0  0  0  0  0  0  0  0  0  0  0  0
   11.5263    0.6550    0.0000 C   0  0  0  0  0  0  0  0  0  0  0  0
   12.3923    0.1550    0.0000 C   0  0  0  0  0  0  0  0  0  0  0  0
   10.6603    0.1550    0.0000 C   0  0  0  0  0  0  0  0  0  0  0  0
   13.2583    0.6550    0.0000 C   0  0  0  0  0  0  0  0  0  0  0  0
    9.7942    0.6550    0.0000 C   0  0  0  0  0  0  0  0  0  0  0  0
   14.1244    0.1550    0.0000 C   0  0  0  0  0  0  0  0  0  0  0  0
    8.9282    0.1550    0.0000 C   0  0  0  0  0  0  0  0  0  0  0  0
   14.9904    0.6550    0.0000 C   0  0  0  0  0  0  0  0  0  0  0  0
    8.0622    0.6550    0.0000 C   0  0  0  0  0  0  0  0  0  0  0  0
   15.8564    0.1550    0.0000 C   0  0  0  0  0  0  0  0  0  0  0  0
    3.7320    0.1550    0.0000 C   0  0  3  0  0  0  0  0  0  0  0  0
    7.1962    0.1550    0.0000 C   0  0  0  0  0  0  0  0  0  0  0  0
    4.5981    0.6550    0.0000 C   0  0  3  0  0  0  0  0  0  0  0  0
   16.7224    0.6550    0.0000 C   0  0  0  0  0  0  0  0  0  0  0  0
    6.3301    0.6550    0.0000 C   0  0  0  0  0  0  0  0  0  0  0  0
    5.4641    0.1550    0.0000 C   0  0  0  0  0  0  0  0  0  0  0  0
    3.7320   -0.8450    0.0000 C   0  0  0  0  0  0  0  0  0  0  0  0
   17.5885    0.1550    0.0000 C   0  0  0  0  0  0  0  0  0  0  0  0
    2.0000    0.1550    0.0000 C   0  0  0  0  0  0  0  0  0  0  0  0
    2.8660    1.6550    0.0000 C   0  0  0  0  0  0  0  0  0  0  0  0
   11.9248    1.1300    0.0000 H   0  0  0  0  0  0  0  0  0  0  0  0
   11.1278    1.1300    0.0000 H   0  0  0  0  0  0  0  0  0  0  0  0
   11.9938   -0.3199    0.0000 H   0  0  0  0  0  0  0  0  0  0  0  0
   12.7908   -0.3199    0.0000 H   0  0  0  0  0  0  0  0  0  0  0  0
   10.2617   -0.3199    0.0000 H   0  0  0  0  0  0  0  0  0  0  0  0
   11.0588   -0.3199    0.0000 H   0  0  0  0  0  0  0  0  0  0  0  0
   13.6569    1.1300    0.0000 H   0  0  0  0  0  0  0  0  0  0  0  0
   12.8598    1.1300    0.0000 H   0  0  0  0  0  0  0  0  0  0  0  0
   10.1928    1.1300    0.0000 H   0  0  0  0  0  0  0  0  0  0  0  0
    9.3957    1.1300    0.0000 H   0  0  0  0  0  0  0  0  0  0  0  0
   13.7258   -0.3199    0.0000 H   0  0  0  0  0  0  0  0  0  0  0  0
   14.5229   -0.3199    0.0000 H   0  0  0  0  0  0  0  0  0  0  0  0
    8.5297   -0.3199    0.0000 H   0  0  0  0  0  0  0  0  0  0  0  0
    9.3267   -0.3199    0.0000 H   0  0  0  0  0  0  0  0  0  0  0  0
   15.3889    1.1300    0.0000 H   0  0  0  0  0  0  0  0  0  0  0  0
   14.5919    1.1300    0.0000 H   0  0  0  0  0  0  0  0  0  0  0  0
    8.4607    1.1300    0.0000 H   0  0  0  0  0  0  0  0  0  0  0  0
    7.6636    1.1300    0.0000 H   0  0  0  0  0  0  0  0  0  0  0  0
    3.7320    1.0050    0.0000 H   0  0  0  0  0  0  0  0  0  0  0  0
   15.4579   -0.3199    0.0000 H   0  0  0  0  0  0  0  0  0  0  0  0
   16.2549   -0.3199    0.0000 H   0  0  0  0  0  0  0  0  0  0  0  0
    6.7976   -0.3199    0.0000 H   0  0  0  0  0  0  0  0  0  0  0  0
    7.5947   -0.3199    0.0000 H   0  0  0  0  0  0  0  0  0  0  0  0
    5.3342    1.0800    0.0000 H   0  0  0  0  0  0  0  0  0  0  0  0
   17.1210    1.1300    0.0000 H   0  0  0  0  0  0  0  0  0  0  0  0
   16.3239    1.1300    0.0000 H   0  0  0  0  0  0  0  0  0  0  0  0
    6.3301    1.2750    0.0000 H   0  0  0  0  0  0  0  0  0  0  0  0
    5.4641   -0.4650    0.0000 H   0  0  0  0  0  0  0  0  0  0  0  0
    3.9441   -1.4276    0.0000 H   0  0  0  0  0  0  0  0  0  0  0  0
    4.3426   -0.7373    0.0000 H   0  0  0  0  0  0  0  0  0  0  0  0
   17.2785   -0.3819    0.0000 H   0  0  0  0  0  0  0  0  0  0  0  0
   18.1254   -0.1550    0.0000 H   0  0  0  0  0  0  0  0  0  0  0  0
   17.8985    0.6919    0.0000 H   0  0  0  0  0  0  0  0  0  0  0  0
    1.6900    0.6919    0.0000 H   0  0  0  0  0  0  0  0  0  0  0  0
    1.4631   -0.1550    0.0000 H   0  0  0  0  0  0  0  0  0  0  0  0
    2.3100   -0.3819    0.0000 H   0  0  0  0  0  0  0  0  0  0  0  0
    3.4860    1.6550    0.0000 H   0  0  0  0  0  0  0  0  0  0  0  0
    2.8660    2.2750    0.0000 H   0  0  0  0  0  0  0  0  0  0  0  0
    2.2460    1.6550    0.0000 H   0  0  0  0  0  0  0  0  0  0  0  0
    5.1350    1.9650    0.0000 H   0  0  0  0  0  0  0  0  0  0  0  0
    2.8660   -1.9650    0.0000 H   0  0  0  0  0  0  0  0  0  0  0  0
  1 16  1  0  0  0  0
  1 63  1  0  0  0  0
  2 20  1  0  0  0  0
  2 64  1  0  0  0  0
  3 14  1  0  0  0  0
  3 22  1  0  0  0  0
  3 23  1  0  0  0  0
  4  5  1  0  0  0  0
  4  6  1  0  0  0  0
  4 24  1  0  0  0  0
  4 25  1  0  0  0  0
  5  7  1  0  0  0  0
  5 26  1  0  0  0  0
  5 27  1  0  0  0  0
  6  8  1  0  0  0  0
  6 28  1  0  0  0  0
  6 29  1  0  0  0  0
  7  9  1  0  0  0  0
  7 30  1  0  0  0  0
  7 31  1  0  0  0  0
  8 10  1  0  0  0  0
  8 32  1  0  0  0  0
  8 33  1  0  0  0  0
  9 11  1  0  0  0  0
  9 34  1  0  0  0  0
  9 35  1  0  0  0  0
 10 12  1  0  0  0  0
 10 36  1  0  0  0  0
 10 37  1  0  0  0  0
 11 13  1  0  0  0  0
 11 38  1  0  0  0  0
 11 39  1  0  0  0  0
 12 15  1  0  0  0  0
 12 40  1  0  0  0  0
 12 41  1  0  0  0  0
 13 17  1  0  0  0  0
 13 43  1  0  0  0  0
 13 44  1  0  0  0  0
 14 16  1  0  0  0  0
 14 20  1  0  0  0  0
 14 42  1  0  0  0  0
 15 18  1  0  0  0  0
 15 45  1  0  0  0  0
 15 46  1  0  0  0  0
 16 19  1  0  0  0  0
 16 47  1  0  0  0  0
 17 21  1  0  0  0  0
 17 48  1  0  0  0  0
 17 49  1  0  0  0  0
 18 19  2  3  0  0  0
 18 50  1  0  0  0  0
 19 51  1  0  0  0  0
 20 52  1  0  0  0  0
 20 53  1  0  0  0  0
 21 54  1  0  0  0  0
 21 55  1  0  0  0  0
 21 56  1  0  0  0  0
 22 57  1  0  0  0  0
 22 58  1  0  0  0  0
 22 59  1  0  0  0  0
 23 60  1  0  0  0  0
 23 61  1  0  0  0  0
 23 62  1  0  0  0  0
M  END
> <PUBCHEM_COMPOUND_CID>
4285

> <PUBCHEM_COMPOUND_CANONICALIZED>
1

> <PUBCHEM_CACTVS_COMPLEXITY>
266

> <PUBCHEM_CACTVS_HBOND_ACCEPTOR>
3

> <PUBCHEM_CACTVS_HBOND_DONOR>
2

> <PUBCHEM_CACTVS_ROTATABLE_BOND>
16

> <PUBCHEM_CACTVS_SUBSKEYS>
AAADcfB6MAAAAAAAAAAAAAAAAAAAAAAAAAAAAAAAAAAAAAAAAAAAHgAACAAACDzhgAYCAAMAAgCAACBCAAAAAAAgAAAICAAIAAgCFAIAAQAEUAAFgAAYEAMAgIAAAAAAAAAAAAAAAAAAAAAAAAAAAAAAAA==

> <PUBCHEM_IUPAC_OPENEYE_NAME>
2-(dimethylamino)octadec-4-ene-1,3-diol

> <PUBCHEM_IUPAC_CAS_NAME>
2-(dimethylamino)-4-octadecene-1,3-diol

> <PUBCHEM_IUPAC_NAME>
2-(dimethylamino)octadec-4-ene-1,3-diol

> <PUBCHEM_IUPAC_SYSTEMATIC_NAME>
2-(dimethylamino)octadec-4-ene-1,3-diol

> <PUBCHEM_IUPAC_TRADITIONAL_NAME>
2-(dimethylamino)octadec-4-ene-1,3-diol

> <PUBCHEM_IUPAC_INCHI>
InChI=1S/C20H41NO2/c1-4-5-6-7-8-9-10-11-12-13-14-15-16-17-20(23)19(18-22)21(2)3/h16-17,19-20,22-23H,4-15,18H2,1-3H3

> <PUBCHEM_IUPAC_INCHIKEY>
YRXOQXUDKDCXME-UHFFFAOYSA-N

> <PUBCHEM_XLOGP3_AA>
6.3

> <PUBCHEM_EXACT_MASS>
327.31373

> <PUBCHEM_MOLECULAR_FORMULA>
C20H41NO2

> <PUBCHEM_MOLECULAR_WEIGHT>
327.54504

> <PUBCHEM_OPENEYE_CAN_SMILES>
CCCCCCCCCCCCCC=CC(C(CO)N(C)C)O

> <PUBCHEM_OPENEYE_ISO_SMILES>
CCCCCCCCCCCCCC=CC(C(CO)N(C)C)O

> <PUBCHEM_CACTVS_TPSA>
43.7

> <PUBCHEM_MONOISOTOPIC_WEIGHT>
327.31373

> <PUBCHEM_TOTAL_CHARGE>
0

> <PUBCHEM_HEAVY_ATOM_COUNT>
23

> <PUBCHEM_ATOM_DEF_STEREO_COUNT>
0

> <PUBCHEM_ATOM_UDEF_STEREO_COUNT>
2

> <PUBCHEM_BOND_DEF_STEREO_COUNT>
0

> <PUBCHEM_BOND_UDEF_STEREO_COUNT>
1

> <PUBCHEM_ISOTOPIC_ATOM_COUNT>
0

> <PUBCHEM_COMPONENT_COUNT>
1

> <PUBCHEM_CACTVS_TAUTO_COUNT>
1

> <PUBCHEM_COORDINATE_TYPE>
1
5
255

> <PUBCHEM_BONDANNOTATIONS>
14  42  3
16  47  3
18  19  1

$$$$

