160270
  -OEChem-07051212582D

 61 67  0     1  0  0  0  0  0999 V2000
    6.2942   -1.4982    0.0000 O   0  0  0  0  0  0  0  0  0  0  0  0
    8.1282    1.5639    0.0000 O   0  0  0  0  0  0  0  0  0  0  0  0
    4.5961    1.5848    0.0000 O   0  0  0  0  0  0  0  0  0  0  0  0
    9.9142   -1.4812    0.0000 O   0  0  0  0  0  0  0  0  0  0  0  0
    6.4310    4.5629    0.0000 O   0  0  0  0  0  0  0  0  0  0  0  0
    6.2774   -2.5830    0.0000 C   0  0  1  0  0  0  0  0  0  0  0  0
    7.2129   -3.1328    0.0000 C   0  0  0  0  0  0  0  0  0  0  0  0
    8.1525   -2.5903    0.0000 C   0  0  0  0  0  0  0  0  0  0  0  0
    8.1441   -1.5053    0.0000 C   0  0  0  0  0  0  0  0  0  0  0  0
    7.2461   -0.9776    0.0000 C   0  0  0  0  0  0  0  0  0  0  0  0
    7.2622    0.0639    0.0000 C   0  0  0  0  0  0  0  0  0  0  0  0
    6.3961    0.5639    0.0000 C   0  0  0  0  0  0  0  0  0  0  0  0
    8.1282    0.5639    0.0000 C   0  0  0  0  0  0  0  0  0  0  0  0
    6.3961    1.5639    0.0000 C   0  0  0  0  0  0  0  0  0  0  0  0
    9.0462   -0.9845    0.0000 C   0  0  0  0  0  0  0  0  0  0  0  0
    5.4057   -3.0730    0.0000 C   0  0  0  0  0  0  0  0  0  0  0  0
    7.2622    2.0639    0.0000 C   0  0  0  0  0  0  0  0  0  0  0  0
    9.0382    0.0571    0.0000 C   0  0  0  0  0  0  0  0  0  0  0  0
    5.5022    2.0986    0.0000 C   0  0  0  0  0  0  0  0  0  0  0  0
    5.5022    0.0293    0.0000 C   0  0  0  0  0  0  0  0  0  0  0  0
    7.2634    3.0556    0.0000 C   0  0  0  0  0  0  0  0  0  0  0  0
    4.5961    0.5431    0.0000 C   0  0  0  0  0  0  0  0  0  0  0  0
    4.5455   -2.5630    0.0000 C   0  0  0  0  0  0  0  0  0  0  0  0
    5.3941   -4.0729    0.0000 C   0  0  0  0  0  0  0  0  0  0  0  0
    5.5400    3.0896    0.0000 C   0  0  0  0  0  0  0  0  0  0  0  0
    6.4114    3.5631    0.0000 C   0  0  0  0  0  0  0  0  0  0  0  0
    8.1331    3.5492    0.0000 C   0  0  0  0  0  0  0  0  0  0  0  0
    3.7320    0.0398    0.0000 C   0  0  0  0  0  0  0  0  0  0  0  0
    3.6738   -3.0530    0.0000 C   0  0  0  0  0  0  0  0  0  0  0  0
    4.5224   -4.5629    0.0000 C   0  0  0  0  0  0  0  0  0  0  0  0
    3.6622   -4.0529    0.0000 C   0  0  0  0  0  0  0  0  0  0  0  0
   10.7783   -0.9778    0.0000 C   0  0  0  0  0  0  0  0  0  0  0  0
    2.8641    0.5365    0.0000 C   0  0  0  0  0  0  0  0  0  0  0  0
    3.7359   -0.9602    0.0000 C   0  0  0  0  0  0  0  0  0  0  0  0
    2.0000    0.0331    0.0000 C   0  0  0  0  0  0  0  0  0  0  0  0
    2.8718   -1.4635    0.0000 C   0  0  0  0  0  0  0  0  0  0  0  0
    2.0038   -0.9669    0.0000 C   0  0  0  0  0  0  0  0  0  0  0  0
    5.7447   -2.2658    0.0000 H   0  0  0  0  0  0  0  0  0  0  0  0
    6.8119   -3.6057    0.0000 H   0  0  0  0  0  0  0  0  0  0  0  0
    7.6102   -3.6088    0.0000 H   0  0  0  0  0  0  0  0  0  0  0  0
    8.3660   -3.1723    0.0000 H   0  0  0  0  0  0  0  0  0  0  0  0
    8.7625   -2.4795    0.0000 H   0  0  0  0  0  0  0  0  0  0  0  0
    9.5715    0.3733    0.0000 H   0  0  0  0  0  0  0  0  0  0  0  0
    5.5094   -0.5907    0.0000 H   0  0  0  0  0  0  0  0  0  0  0  0
    5.0132    3.4166    0.0000 H   0  0  0  0  0  0  0  0  0  0  0  0
    4.5527   -1.9431    0.0000 H   0  0  0  0  0  0  0  0  0  0  0  0
    5.9274   -4.3891    0.0000 H   0  0  0  0  0  0  0  0  0  0  0  0
    8.4391    3.0100    0.0000 H   0  0  0  0  0  0  0  0  0  0  0  0
    8.6723    3.8552    0.0000 H   0  0  0  0  0  0  0  0  0  0  0  0
    7.8271    4.0884    0.0000 H   0  0  0  0  0  0  0  0  0  0  0  0
    3.1404   -2.7368    0.0000 H   0  0  0  0  0  0  0  0  0  0  0  0
    4.5152   -5.1828    0.0000 H   0  0  0  0  0  0  0  0  0  0  0  0
    3.1217   -4.3567    0.0000 H   0  0  0  0  0  0  0  0  0  0  0  0
   11.0903   -1.5136    0.0000 H   0  0  0  0  0  0  0  0  0  0  0  0
   11.3140   -0.6658    0.0000 H   0  0  0  0  0  0  0  0  0  0  0  0
   10.4662   -0.4421    0.0000 H   0  0  0  0  0  0  0  0  0  0  0  0
    2.8617    1.1564    0.0000 H   0  0  0  0  0  0  0  0  0  0  0  0
    4.2740   -1.2681    0.0000 H   0  0  0  0  0  0  0  0  0  0  0  0
    1.4619    0.3410    0.0000 H   0  0  0  0  0  0  0  0  0  0  0  0
    2.8742   -2.0835    0.0000 H   0  0  0  0  0  0  0  0  0  0  0  0
    1.4681   -1.2789    0.0000 H   0  0  0  0  0  0  0  0  0  0  0  0
  1  6  1  0  0  0  0
  1 10  1  0  0  0  0
  2 13  1  0  0  0  0
  2 17  1  0  0  0  0
  3 19  1  0  0  0  0
  3 22  1  0  0  0  0
  4 15  1  0  0  0  0
  4 32  1  0  0  0  0
  5 26  2  0  0  0  0
  6  7  1  0  0  0  0
  6 16  1  1  0  0  0
  6 38  1  0  0  0  0
  7  8  1  0  0  0  0
  7 39  1  0  0  0  0
  7 40  1  0  0  0  0
  8  9  1  0  0  0  0
  8 41  1  0  0  0  0
  8 42  1  0  0  0  0
  9 10  1  0  0  0  0
  9 15  2  0  0  0  0
 10 11  2  0  0  0  0
 11 12  1  0  0  0  0
 11 13  1  0  0  0  0
 12 14  2  0  0  0  0
 12 20  1  0  0  0  0
 13 18  2  0  0  0  0
 14 17  1  0  0  0  0
 14 19  1  0  0  0  0
 15 18  1  0  0  0  0
 16 23  2  0  0  0  0
 16 24  1  0  0  0  0
 17 21  2  0  0  0  0
 18 43  1  0  0  0  0
 19 25  2  0  0  0  0
 20 22  2  0  0  0  0
 20 44  1  0  0  0  0
 21 26  1  0  0  0  0
 21 27  1  0  0  0  0
 22 28  1  0  0  0  0
 23 29  1  0  0  0  0
 23 46  1  0  0  0  0
 24 30  2  0  0  0  0
 24 47  1  0  0  0  0
 25 26  1  0  0  0  0
 25 45  1  0  0  0  0
 27 48  1  0  0  0  0
 27 49  1  0  0  0  0
 27 50  1  0  0  0  0
 28 33  2  0  0  0  0
 28 34  1  0  0  0  0
 29 31  2  0  0  0  0
 29 51  1  0  0  0  0
 30 31  1  0  0  0  0
 30 52  1  0  0  0  0
 31 53  1  0  0  0  0
 32 54  1  0  0  0  0
 32 55  1  0  0  0  0
 32 56  1  0  0  0  0
 33 35  1  0  0  0  0
 33 57  1  0  0  0  0
 34 36  2  0  0  0  0
 34 58  1  0  0  0  0
 35 37  2  0  0  0  0
 35 59  1  0  0  0  0
 36 37  1  0  0  0  0
 36 60  1  0  0  0  0
 37 61  1  0  0  0  0
M  END
> <PUBCHEM_COMPOUND_CID>
160270

> <PUBCHEM_COMPOUND_CANONICALIZED>
1

> <PUBCHEM_CACTVS_COMPLEXITY>
1070

> <PUBCHEM_CACTVS_HBOND_ACCEPTOR>
5

> <PUBCHEM_CACTVS_HBOND_DONOR>
0

> <PUBCHEM_CACTVS_ROTATABLE_BOND>
3

> <PUBCHEM_CACTVS_SUBSKEYS>
AAADceB8OAAAAAAAAAAAAAAAAAAAAAAAAAA0YMECAAAAAACRUAAAGgAAAAAADBSgmAIyBoAABACIAqBSAAACCAAgIAAIiAEGCMgMJyKEMRqCOCClwBUIqQeA4OwOIAACCAAIAABAAAQQABAAAAAAAAAAAA==

> <PUBCHEM_IUPAC_INCHI>
InChI=1S/C32H24O5/c1-18-23(33)16-27-29-22(15-25(35-27)20-11-7-4-8-12-20)30-28(37-31(18)29)17-26(34-2)21-13-14-24(36-32(21)30)19-9-5-3-6-10-19/h3-12,15-17,24H,13-14H2,1-2H3/t24-/m0/s1

> <PUBCHEM_IUPAC_INCHIKEY>
FWKBXSPDFCAHFN-DEOSSOPVSA-N

> <PUBCHEM_XLOGP3_AA>
5.3

> <PUBCHEM_EXACT_MASS>
488.162374

> <PUBCHEM_MOLECULAR_FORMULA>
C32H24O5

> <PUBCHEM_MOLECULAR_WEIGHT>
488.52996

> <PUBCHEM_OPENEYE_CAN_SMILES>
CC1=C2C3=C(C=C(OC3=CC1=O)C4=CC=CC=C4)C5=C6C(=C(C=C5O2)OC)CCC(O6)C7=CC=CC=C7

> <PUBCHEM_OPENEYE_ISO_SMILES>
CC1=C2C3=C(C=C(OC3=CC1=O)C4=CC=CC=C4)C5=C6C(=C(C=C5O2)OC)CC[C@H](O6)C7=CC=CC=C7

> <PUBCHEM_CACTVS_TPSA>
54

> <PUBCHEM_MONOISOTOPIC_WEIGHT>
488.162374

> <PUBCHEM_TOTAL_CHARGE>
0

> <PUBCHEM_HEAVY_ATOM_COUNT>
37

> <PUBCHEM_ATOM_DEF_STEREO_COUNT>
1

> <PUBCHEM_ATOM_UDEF_STEREO_COUNT>
0

> <PUBCHEM_BOND_DEF_STEREO_COUNT>
0

> <PUBCHEM_BOND_UDEF_STEREO_COUNT>
0

> <PUBCHEM_ISOTOPIC_ATOM_COUNT>
0

> <PUBCHEM_COMPONENT_COUNT>
1

> <PUBCHEM_CACTVS_TAUTO_COUNT>
1

> <PUBCHEM_COORDINATE_TYPE>
1
5
255

> <PUBCHEM_BONDANNOTATIONS>
10  11  8
11  12  8
11  13  8
12  14  8
12  20  8
13  18  8
14  17  8
14  19  8
15  18  8
16  23  8
16  24  8
17  21  8
19  25  8
2  13  8
2  17  8
20  22  8
21  26  8
23  29  8
24  30  8
25  26  8
28  33  8
28  34  8
29  31  8
3  19  8
3  22  8
30  31  8
33  35  8
34  36  8
35  37  8
36  37  8
6  16  5
9  10  8
9  15  8

$$$$

