66541
  -OEChem-07051213092D

 21 22  0     0  0  0  0  0  0999 V2000
    3.7320   -2.0173    0.0000 O   0  0  0  0  0  0  0  0  0  0  0  0
    2.0000    0.9827    0.0000 O   0  0  0  0  0  0  0  0  0  0  0  0
    2.8660   -0.5173    0.0000 N   0  0  0  0  0  0  0  0  0  0  0  0
    5.4920    1.0174    0.0000 N   0  0  0  0  0  0  0  0  0  0  0  0
    3.7320    0.9827    0.0000 N   0  0  0  0  0  0  0  0  0  0  0  0
    5.4920   -1.0520    0.0000 N   0  0  0  0  0  0  0  0  0  0  0  0
    6.3981    0.5035    0.0000 N   0  0  0  0  0  0  0  0  0  0  0  0
    4.5981    0.4827    0.0000 C   0  0  0  0  0  0  0  0  0  0  0  0
    4.5981   -0.5173    0.0000 C   0  0  0  0  0  0  0  0  0  0  0  0
    3.7320   -1.0173    0.0000 C   0  0  0  0  0  0  0  0  0  0  0  0
    2.8660    0.4827    0.0000 C   0  0  0  0  0  0  0  0  0  0  0  0
    2.0000   -1.0173    0.0000 C   0  0  0  0  0  0  0  0  0  0  0  0
    5.4804    2.0173    0.0000 C   0  0  0  0  0  0  0  0  0  0  0  0
    6.3981   -0.5381    0.0000 C   0  0  0  0  0  0  0  0  0  0  0  0
    1.6900   -0.4804    0.0000 H   0  0  0  0  0  0  0  0  0  0  0  0
    1.4631   -1.3273    0.0000 H   0  0  0  0  0  0  0  0  0  0  0  0
    2.3100   -1.5542    0.0000 H   0  0  0  0  0  0  0  0  0  0  0  0
    6.1004    2.0245    0.0000 H   0  0  0  0  0  0  0  0  0  0  0  0
    5.4733    2.6373    0.0000 H   0  0  0  0  0  0  0  0  0  0  0  0
    4.8605    2.0101    0.0000 H   0  0  0  0  0  0  0  0  0  0  0  0
    6.9338   -0.8502    0.0000 H   0  0  0  0  0  0  0  0  0  0  0  0
  1 10  2  0  0  0  0
  2 11  2  0  0  0  0
  3 10  1  0  0  0  0
  3 11  1  0  0  0  0
  3 12  1  0  0  0  0
  4  7  1  0  0  0  0
  4  8  1  0  0  0  0
  4 13  1  0  0  0  0
  5  8  2  0  0  0  0
  5 11  1  0  0  0  0
  6  9  2  0  0  0  0
  6 14  1  0  0  0  0
  7 14  2  0  0  0  0
  8  9  1  0  0  0  0
  9 10  1  0  0  0  0
 12 15  1  0  0  0  0
 12 16  1  0  0  0  0
 12 17  1  0  0  0  0
 13 18  1  0  0  0  0
 13 19  1  0  0  0  0
 13 20  1  0  0  0  0
 14 21  1  0  0  0  0
M  END
> <PUBCHEM_COMPOUND_CID>
66541

> <PUBCHEM_COMPOUND_CANONICALIZED>
1

> <PUBCHEM_CACTVS_COMPLEXITY>
408

> <PUBCHEM_CACTVS_HBOND_ACCEPTOR>
3

> <PUBCHEM_CACTVS_HBOND_DONOR>
0

> <PUBCHEM_CACTVS_ROTATABLE_BOND>
0

> <PUBCHEM_CACTVS_SUBSKEYS>
AAADcYBjsAAAAAAAAAAAAAAAAAAAAAAAAAAgQAAAAAAAAACAAAAAHgAIAAAACAgBgAQDAAMAAAAoAQMxNAAQAAEAAAARAAEoAACAAAgAQAAEAAAAByIAAAAAAAAAAAAAAAAAAAAAAAAAAAAAAAAAAAAAAA==

> <PUBCHEM_IUPAC_OPENEYE_NAME>
1,6-dimethylpyrimido[5,4-e][1,2,4]triazine-5,7-dione

> <PUBCHEM_IUPAC_CAS_NAME>
1,6-dimethylpyrimido[5,4-e][1,2,4]triazine-5,7-dione

> <PUBCHEM_IUPAC_NAME>
1,6-dimethylpyrimido[5,4-e][1,2,4]triazine-5,7-dione

> <PUBCHEM_IUPAC_SYSTEMATIC_NAME>
1,6-dimethylpyrimido[5,4-e][1,2,4]triazine-5,7-dione

> <PUBCHEM_IUPAC_TRADITIONAL_NAME>
1,6-dimethylpyrimido[5,4-e][1,2,4]triazine-5,7-quinone

> <PUBCHEM_IUPAC_INCHI>
InChI=1S/C7H7N5O2/c1-11-6(13)4-5(10-7(11)14)12(2)9-3-8-4/h3H,1-2H3

> <PUBCHEM_IUPAC_INCHIKEY>
SLGRAIAQIAUZAQ-UHFFFAOYSA-N

> <PUBCHEM_XLOGP3_AA>
-0.7

> <PUBCHEM_EXACT_MASS>
193.059974

> <PUBCHEM_MOLECULAR_FORMULA>
C7H7N5O2

> <PUBCHEM_MOLECULAR_WEIGHT>
193.16278

> <PUBCHEM_OPENEYE_CAN_SMILES>
CN1C2=NC(=O)N(C(=O)C2=NC=N1)C

> <PUBCHEM_OPENEYE_ISO_SMILES>
CN1C2=NC(=O)N(C(=O)C2=NC=N1)C

> <PUBCHEM_CACTVS_TPSA>
77.7

> <PUBCHEM_MONOISOTOPIC_WEIGHT>
193.059974

> <PUBCHEM_TOTAL_CHARGE>
0

> <PUBCHEM_HEAVY_ATOM_COUNT>
14

> <PUBCHEM_ATOM_DEF_STEREO_COUNT>
0

> <PUBCHEM_ATOM_UDEF_STEREO_COUNT>
0

> <PUBCHEM_BOND_DEF_STEREO_COUNT>
0

> <PUBCHEM_BOND_UDEF_STEREO_COUNT>
0

> <PUBCHEM_ISOTOPIC_ATOM_COUNT>
0

> <PUBCHEM_COMPONENT_COUNT>
1

> <PUBCHEM_CACTVS_TAUTO_COUNT>
1

> <PUBCHEM_COORDINATE_TYPE>
1
5
255

> <PUBCHEM_BONDANNOTATIONS>
3  10  8
3  11  8
4  7  8
4  8  8
5  11  8
5  8  8
6  14  8
6  9  8
7  14  8
9  10  8

$$$$

