9353
  -OEChem-06261203382D

 30 31  0     0  0  0  0  0  0999 V2000
    6.9459    1.3947    0.0000 N   0  0  0  0  0  0  0  0  0  0  0  0
    4.6783   -1.5777    0.0000 N   0  0  0  0  0  0  0  0  0  0  0  0
    5.9674    1.1885    0.0000 C   0  0  0  0  0  0  0  0  0  0  0  0
    4.9889    0.9823    0.0000 C   0  0  0  0  0  0  0  0  0  0  0  0
    4.6783    0.0318    0.0000 C   0  0  0  0  0  0  0  0  0  0  0  0
    3.7320   -0.2730    0.0000 C   0  0  0  0  0  0  0  0  0  0  0  0
    5.7612    2.1670    0.0000 C   0  0  0  0  0  0  0  0  0  0  0  0
    6.1737    0.2100    0.0000 C   0  0  0  0  0  0  0  0  0  0  0  0
    3.7320   -1.2730    0.0000 C   0  0  0  0  0  0  0  0  0  0  0  0
    5.2619   -0.7730    0.0000 C   0  0  0  0  0  0  0  0  0  0  0  0
    2.8660    0.2270    0.0000 C   0  0  0  0  0  0  0  0  0  0  0  0
    2.8660   -1.7730    0.0000 C   0  0  0  0  0  0  0  0  0  0  0  0
    2.0000   -0.2730    0.0000 C   0  0  0  0  0  0  0  0  0  0  0  0
    2.0000   -1.2730    0.0000 C   0  0  0  0  0  0  0  0  0  0  0  0
    4.9684    1.6020    0.0000 H   0  0  0  0  0  0  0  0  0  0  0  0
    4.3751    1.0696    0.0000 H   0  0  0  0  0  0  0  0  0  0  0  0
    5.5670    0.0821    0.0000 H   0  0  0  0  0  0  0  0  0  0  0  0
    6.3015   -0.3967    0.0000 H   0  0  0  0  0  0  0  0  0  0  0  0
    6.7803    0.3379    0.0000 H   0  0  0  0  0  0  0  0  0  0  0  0
    6.3679    2.2949    0.0000 H   0  0  0  0  0  0  0  0  0  0  0  0
    5.6334    2.7737    0.0000 H   0  0  0  0  0  0  0  0  0  0  0  0
    5.1546    2.0392    0.0000 H   0  0  0  0  0  0  0  0  0  0  0  0
    5.8819   -0.7730    0.0000 H   0  0  0  0  0  0  0  0  0  0  0  0
    7.1386    1.9840    0.0000 H   0  0  0  0  0  0  0  0  0  0  0  0
    7.3600    0.9333    0.0000 H   0  0  0  0  0  0  0  0  0  0  0  0
    4.8709   -2.1670    0.0000 H   0  0  0  0  0  0  0  0  0  0  0  0
    2.8660    0.8470    0.0000 H   0  0  0  0  0  0  0  0  0  0  0  0
    2.8660   -2.3930    0.0000 H   0  0  0  0  0  0  0  0  0  0  0  0
    1.4631    0.0370    0.0000 H   0  0  0  0  0  0  0  0  0  0  0  0
    1.4631   -1.5830    0.0000 H   0  0  0  0  0  0  0  0  0  0  0  0
  1  3  1  0  0  0  0
  1 24  1  0  0  0  0
  1 25  1  0  0  0  0
  2  9  1  0  0  0  0
  2 10  1  0  0  0  0
  2 26  1  0  0  0  0
  3  4  1  0  0  0  0
  3  7  1  0  0  0  0
  3  8  1  0  0  0  0
  4  5  1  0  0  0  0
  4 15  1  0  0  0  0
  4 16  1  0  0  0  0
  5  6  1  0  0  0  0
  5 10  2  0  0  0  0
  6  9  1  0  0  0  0
  6 11  2  0  0  0  0
  7 20  1  0  0  0  0
  7 21  1  0  0  0  0
  7 22  1  0  0  0  0
  8 17  1  0  0  0  0
  8 18  1  0  0  0  0
  8 19  1  0  0  0  0
  9 12  2  0  0  0  0
 10 23  1  0  0  0  0
 11 13  1  0  0  0  0
 11 27  1  0  0  0  0
 12 14  1  0  0  0  0
 12 28  1  0  0  0  0
 13 14  2  0  0  0  0
 13 29  1  0  0  0  0
 14 30  1  0  0  0  0
M  END
> <PUBCHEM_COMPOUND_CID>
9353

> <PUBCHEM_COMPOUND_CANONICALIZED>
1

> <PUBCHEM_CACTVS_COMPLEXITY>
201

> <PUBCHEM_CACTVS_HBOND_ACCEPTOR>
1

> <PUBCHEM_CACTVS_HBOND_DONOR>
2

> <PUBCHEM_CACTVS_ROTATABLE_BOND>
2

> <PUBCHEM_CACTVS_SUBSKEYS>
AAADceBzAAAAAAAAAAAAAAAAAAAAAWAAAAAwAAAAAAAAAFgB8AAAHAAQAAAADIjBHgQ+wPLJkACgAzRnRACCgCAxAiAI2aA4ZJgIIOLAkZGEIAhgkADIyAcQgMAOgAAAAAACAAAAAAAAAAQAAAAAAAAAAA==

> <PUBCHEM_IUPAC_OPENEYE_NAME>
1-(1H-indol-3-yl)-2-methyl-propan-2-amine

> <PUBCHEM_IUPAC_CAS_NAME>
1-(1H-indol-3-yl)-2-methyl-2-propanamine

> <PUBCHEM_IUPAC_NAME>
1-(1H-indol-3-yl)-2-methylpropan-2-amine

> <PUBCHEM_IUPAC_SYSTEMATIC_NAME>
1-(1H-indol-3-yl)-2-methyl-propan-2-amine

> <PUBCHEM_IUPAC_TRADITIONAL_NAME>
[2-(1H-indol-3-yl)-1,1-dimethyl-ethyl]amine

> <PUBCHEM_IUPAC_INCHI>
InChI=1S/C12H16N2/c1-12(2,13)7-9-8-14-11-6-4-3-5-10(9)11/h3-6,8,14H,7,13H2,1-2H3

> <PUBCHEM_IUPAC_INCHIKEY>
WREHPEFXXFJIIJ-UHFFFAOYSA-N

> <PUBCHEM_XLOGP3>
2.2

> <PUBCHEM_EXACT_MASS>
188.131349

> <PUBCHEM_MOLECULAR_FORMULA>
C12H16N2

> <PUBCHEM_MOLECULAR_WEIGHT>
188.26884

> <PUBCHEM_OPENEYE_CAN_SMILES>
CC(C)(CC1=CNC2=CC=CC=C21)N

> <PUBCHEM_OPENEYE_ISO_SMILES>
CC(C)(CC1=CNC2=CC=CC=C21)N

> <PUBCHEM_CACTVS_TPSA>
41.8

> <PUBCHEM_MONOISOTOPIC_WEIGHT>
188.131349

> <PUBCHEM_TOTAL_CHARGE>
0

> <PUBCHEM_HEAVY_ATOM_COUNT>
14

> <PUBCHEM_ATOM_DEF_STEREO_COUNT>
0

> <PUBCHEM_ATOM_UDEF_STEREO_COUNT>
0

> <PUBCHEM_BOND_DEF_STEREO_COUNT>
0

> <PUBCHEM_BOND_UDEF_STEREO_COUNT>
0

> <PUBCHEM_ISOTOPIC_ATOM_COUNT>
0

> <PUBCHEM_COMPONENT_COUNT>
1

> <PUBCHEM_CACTVS_TAUTO_COUNT>
1

> <PUBCHEM_COORDINATE_TYPE>
1
5
255

> <PUBCHEM_BONDANNOTATIONS>
11  13  8
12  14  8
13  14  8
2  10  8
2  9  8
5  10  8
5  6  8
6  11  8
6  9  8
9  12  8

$$$$

