11677
  -OEChem-06261205592D

 11 10  0     0  0  0  0  0  0999 V2000
    3.2320    0.9330    0.0000 Cl  0  0  0  0  0  0  0  0  0  0  0  0
    4.2320   -0.7990    0.0000 Cl  0  0  0  0  0  0  0  0  0  0  0  0
    5.4641    1.0670    0.0000 Cl  0  0  0  0  0  0  0  0  0  0  0  0
    4.0981    1.4330    0.0000 Cl  0  0  0  0  0  0  0  0  0  0  0  0
    5.0981   -0.2990    0.0000 Cl  0  0  0  0  0  0  0  0  0  0  0  0
    2.0000    0.0670    0.0000 Cl  0  0  0  0  0  0  0  0  0  0  0  0
    2.8660   -1.4330    0.0000 Cl  0  0  0  0  0  0  0  0  0  0  0  0
    3.7320    0.0670    0.0000 C   0  0  0  0  0  0  0  0  0  0  0  0
    4.5981    0.5670    0.0000 C   0  0  0  0  0  0  0  0  0  0  0  0
    2.8660   -0.4330    0.0000 C   0  0  0  0  0  0  0  0  0  0  0  0
    2.8660    0.1870    0.0000 H   0  0  0  0  0  0  0  0  0  0  0  0
  1  8  1  0  0  0  0
  2  8  1  0  0  0  0
  3  9  1  0  0  0  0
  4  9  1  0  0  0  0
  5  9  1  0  0  0  0
  6 10  1  0  0  0  0
  7 10  1  0  0  0  0
  8  9  1  0  0  0  0
  8 10  1  0  0  0  0
 10 11  1  0  0  0  0
M  END
> <PUBCHEM_COMPOUND_CID>
11677

> <PUBCHEM_COMPOUND_CANONICALIZED>
1

> <PUBCHEM_CACTVS_COMPLEXITY>
111

> <PUBCHEM_CACTVS_HBOND_ACCEPTOR>
0

> <PUBCHEM_CACTVS_HBOND_DONOR>
0

> <PUBCHEM_CACTVS_ROTATABLE_BOND>
1

> <PUBCHEM_CACTVS_SUBSKEYS>
AAADcQBAAAAHAAAAAAAAAAAAAAAAAAAAAAAAAAAAAAAAAAAAAAAAGAIAAAAACAOAAMAAAAAAAAAAAAAAAAAAAAAAAAAAAEAAAgAAAAAAAAAAAAAAAAAAAAAAAAAAAAAAAAAAAAAAAAAAAAAAAAAAAAAAAA==

> <PUBCHEM_IUPAC_OPENEYE_NAME>
1,1,1,2,2,3,3-heptachloropropane

> <PUBCHEM_IUPAC_CAS_NAME>
1,1,1,2,2,3,3-heptachloropropane

> <PUBCHEM_IUPAC_NAME>
1,1,1,2,2,3,3-heptachloropropane

> <PUBCHEM_IUPAC_SYSTEMATIC_NAME>
1,1,1,2,2,3,3-heptakis(chloranyl)propane

> <PUBCHEM_IUPAC_TRADITIONAL_NAME>
1,1,1,2,2,3,3-heptachloropropane

> <PUBCHEM_IUPAC_INCHI>
InChI=1S/C3HCl7/c4-1(5)2(6,7)3(8,9)10/h1H

> <PUBCHEM_IUPAC_INCHIKEY>
YFIIENAGGCUHIQ-UHFFFAOYSA-N

> <PUBCHEM_XLOGP3_AA>
4.6

> <PUBCHEM_EXACT_MASS>
283.786844

> <PUBCHEM_MOLECULAR_FORMULA>
C3HCl7

> <PUBCHEM_MOLECULAR_WEIGHT>
285.21104

> <PUBCHEM_OPENEYE_CAN_SMILES>
C(C(C(Cl)(Cl)Cl)(Cl)Cl)(Cl)Cl

> <PUBCHEM_OPENEYE_ISO_SMILES>
C(C(C(Cl)(Cl)Cl)(Cl)Cl)(Cl)Cl

> <PUBCHEM_CACTVS_TPSA>
0

> <PUBCHEM_MONOISOTOPIC_WEIGHT>
281.789794

> <PUBCHEM_TOTAL_CHARGE>
0

> <PUBCHEM_HEAVY_ATOM_COUNT>
10

> <PUBCHEM_ATOM_DEF_STEREO_COUNT>
0

> <PUBCHEM_ATOM_UDEF_STEREO_COUNT>
0

> <PUBCHEM_BOND_DEF_STEREO_COUNT>
0

> <PUBCHEM_BOND_UDEF_STEREO_COUNT>
0

> <PUBCHEM_ISOTOPIC_ATOM_COUNT>
0

> <PUBCHEM_COMPONENT_COUNT>
1

> <PUBCHEM_CACTVS_TAUTO_COUNT>
1

> <PUBCHEM_COORDINATE_TYPE>
1
5
255

$$$$

