17395463
  -OEChem-06241222502D

 35 37  0     1  0  0  0  0  0999 V2000
    4.9889    2.0362    0.0000 Cl  0  0  0  0  0  0  0  0  0  0  0  0
    9.3007   -1.0851    0.0000 S   0  0  0  0  0  0  0  0  0  0  0  0
    4.6783   -0.5238    0.0000 S   0  0  0  0  0  0  0  0  0  0  0  0
   10.3007   -1.0851    0.0000 O   0  0  0  0  0  0  0  0  0  0  0  0
    9.6097   -2.0362    0.0000 O   0  0  0  0  0  0  0  0  0  0  0  0
    6.7619    1.1469    0.0000 O   0  0  0  0  0  0  0  0  0  0  0  0
    6.7619   -0.5851    0.0000 N   0  0  0  0  0  0  0  0  0  0  0  0
    7.7619   -0.5851    0.0000 C   0  0  3  0  0  0  0  0  0  0  0  0
    8.3497   -1.3941    0.0000 C   0  0  0  0  0  0  0  0  0  0  0  0
    8.3497    0.2239    0.0000 C   0  0  0  0  0  0  0  0  0  0  0  0
    9.3007   -0.0851    0.0000 C   0  0  0  0  0  0  0  0  0  0  0  0
    6.2619   -1.4511    0.0000 C   0  0  0  0  0  0  0  0  0  0  0  0
    6.2619    0.2809    0.0000 C   0  0  0  0  0  0  0  0  0  0  0  0
    5.2619    0.2809    0.0000 C   0  0  0  0  0  0  0  0  0  0  0  0
    4.6783    1.0856    0.0000 C   0  0  0  0  0  0  0  0  0  0  0  0
    3.7320    0.7809    0.0000 C   0  0  0  0  0  0  0  0  0  0  0  0
    3.7320   -0.2191    0.0000 C   0  0  0  0  0  0  0  0  0  0  0  0
    2.8660    1.2809    0.0000 C   0  0  0  0  0  0  0  0  0  0  0  0
    2.8660   -0.7191    0.0000 C   0  0  0  0  0  0  0  0  0  0  0  0
    2.0000    0.7809    0.0000 C   0  0  0  0  0  0  0  0  0  0  0  0
    2.0000   -0.2191    0.0000 C   0  0  0  0  0  0  0  0  0  0  0  0
    7.4804   -1.1375    0.0000 H   0  0  0  0  0  0  0  0  0  0  0  0
    7.8127   -1.7041    0.0000 H   0  0  0  0  0  0  0  0  0  0  0  0
    8.6018   -1.9605    0.0000 H   0  0  0  0  0  0  0  0  0  0  0  0
    8.6018    0.7903    0.0000 H   0  0  0  0  0  0  0  0  0  0  0  0
    7.8127    0.5339    0.0000 H   0  0  0  0  0  0  0  0  0  0  0  0
    9.9173   -0.1499    0.0000 H   0  0  0  0  0  0  0  0  0  0  0  0
    9.4296    0.5213    0.0000 H   0  0  0  0  0  0  0  0  0  0  0  0
    5.7249   -1.1411    0.0000 H   0  0  0  0  0  0  0  0  0  0  0  0
    5.9519   -1.9881    0.0000 H   0  0  0  0  0  0  0  0  0  0  0  0
    6.7988   -1.7611    0.0000 H   0  0  0  0  0  0  0  0  0  0  0  0
    2.8660    1.9009    0.0000 H   0  0  0  0  0  0  0  0  0  0  0  0
    2.8660   -1.3391    0.0000 H   0  0  0  0  0  0  0  0  0  0  0  0
    1.4631    1.0909    0.0000 H   0  0  0  0  0  0  0  0  0  0  0  0
    1.4631   -0.5291    0.0000 H   0  0  0  0  0  0  0  0  0  0  0  0
  1 15  1  0  0  0  0
  2  4  2  0  0  0  0
  2  5  2  0  0  0  0
  2  9  1  0  0  0  0
  2 11  1  0  0  0  0
  3 14  1  0  0  0  0
  3 17  1  0  0  0  0
  6 13  2  0  0  0  0
  7  8  1  0  0  0  0
  7 12  1  0  0  0  0
  7 13  1  0  0  0  0
  8  9  1  0  0  0  0
  8 10  1  0  0  0  0
  8 22  1  0  0  0  0
  9 23  1  0  0  0  0
  9 24  1  0  0  0  0
 10 11  1  0  0  0  0
 10 25  1  0  0  0  0
 10 26  1  0  0  0  0
 11 27  1  0  0  0  0
 11 28  1  0  0  0  0
 12 29  1  0  0  0  0
 12 30  1  0  0  0  0
 12 31  1  0  0  0  0
 13 14  1  0  0  0  0
 14 15  2  0  0  0  0
 15 16  1  0  0  0  0
 16 17  1  0  0  0  0
 16 18  2  0  0  0  0
 17 19  2  0  0  0  0
 18 20  1  0  0  0  0
 18 32  1  0  0  0  0
 19 21  1  0  0  0  0
 19 33  1  0  0  0  0
 20 21  2  0  0  0  0
 20 34  1  0  0  0  0
 21 35  1  0  0  0  0
M  END
> <PUBCHEM_COMPOUND_CID>
17395463

> <PUBCHEM_COMPOUND_CANONICALIZED>
1

> <PUBCHEM_CACTVS_COMPLEXITY>
519

> <PUBCHEM_CACTVS_HBOND_ACCEPTOR>
4

> <PUBCHEM_CACTVS_HBOND_DONOR>
0

> <PUBCHEM_CACTVS_ROTATABLE_BOND>
2

> <PUBCHEM_CACTVS_SUBSKEYS>
AAADccByMABkAAAAAAAAAAAAAAAAASJAAAAwAAAAAAAAAEgB8AAAHgYAAAAADCrF2CSyAcMAAAqMAiFSEHDDAIAkDBBIiBkIBsgIIDKhlxGEIQhghgCojQcYiICOAAAAAAAEAAAAAAAAAAgAAAAAAAAAAA==

> <PUBCHEM_IUPAC_OPENEYE_NAME>
3-chloro-N-(1,1-dioxothiolan-3-yl)-N-methyl-benzothiophene-2-carboxamide

> <PUBCHEM_IUPAC_CAS_NAME>
3-chloro-N-(1,1-dioxo-3-thiolanyl)-N-methyl-1-benzothiophene-2-carboxamide

> <PUBCHEM_IUPAC_NAME>
3-chloro-N-(1,1-dioxothiolan-3-yl)-N-methyl-1-benzothiophene-2-carboxamide

> <PUBCHEM_IUPAC_SYSTEMATIC_NAME>
N-[1,1-bis(oxidanylidene)thiolan-3-yl]-3-chloranyl-N-methyl-1-benzothiophene-2-carboxamide

> <PUBCHEM_IUPAC_TRADITIONAL_NAME>
3-chloro-N-(1,1-diketothiolan-3-yl)-N-methyl-benzothiophene-2-carboxamide

> <PUBCHEM_IUPAC_INCHI>
InChI=1S/C14H14ClNO3S2/c1-16(9-6-7-21(18,19)8-9)14(17)13-12(15)10-4-2-3-5-11(10)20-13/h2-5,9H,6-8H2,1H3

> <PUBCHEM_IUPAC_INCHIKEY>
AZZURHCEBOXRKL-UHFFFAOYSA-N

> <PUBCHEM_XLOGP3_AA>
2.9

> <PUBCHEM_EXACT_MASS>
343.010363

> <PUBCHEM_MOLECULAR_FORMULA>
C14H14ClNO3S2

> <PUBCHEM_MOLECULAR_WEIGHT>
343.84886

> <PUBCHEM_OPENEYE_CAN_SMILES>
CN(C1CCS(=O)(=O)C1)C(=O)C2=C(C3=CC=CC=C3S2)Cl

> <PUBCHEM_OPENEYE_ISO_SMILES>
CN(C1CCS(=O)(=O)C1)C(=O)C2=C(C3=CC=CC=C3S2)Cl

> <PUBCHEM_CACTVS_TPSA>
91.1

> <PUBCHEM_MONOISOTOPIC_WEIGHT>
343.010363

> <PUBCHEM_TOTAL_CHARGE>
0

> <PUBCHEM_HEAVY_ATOM_COUNT>
21

> <PUBCHEM_ATOM_DEF_STEREO_COUNT>
0

> <PUBCHEM_ATOM_UDEF_STEREO_COUNT>
1

> <PUBCHEM_BOND_DEF_STEREO_COUNT>
0

> <PUBCHEM_BOND_UDEF_STEREO_COUNT>
0

> <PUBCHEM_ISOTOPIC_ATOM_COUNT>
0

> <PUBCHEM_COMPONENT_COUNT>
1

> <PUBCHEM_CACTVS_TAUTO_COUNT>
1

> <PUBCHEM_COORDINATE_TYPE>
1
5
255

> <PUBCHEM_BONDANNOTATIONS>
14  15  8
15  16  8
16  17  8
16  18  8
17  19  8
18  20  8
19  21  8
20  21  8
3  14  8
3  17  8
8  7  3

$$$$

