   Color/Form

     * Crystalline solid
     * White crystals
     * Needles
     * White crystals or needles
     * Pale yellow solid

   from [1]HSDB

   Odor

     * Rancid odor
     * Unpleasant odor

   from [2]HSDB

   Boiling Point
        268.7 deg C
   from [3]HSDB

   Melting Point
        31.5 deg C
   from [4]HSDB

   Density/Specific Gravity
        0.890 at 40 deg C/4 deg C
   from [5]HSDB

   Dissociation Constants
        pKa = 4.90
   from [6]HSDB

   Heat of Combustion
        -6,108.7 kJ/mol
   from [7]HSDB

   Octanol/Water Partition Coefficient
        log Kow = 4.09
   from [8]HSDB

   Solubilities

     * Practically insol in water (0.015 g/100 g at 20 deg C); sol in
       ethanol; ether; chloroform; benzene; carbon disulfide; dilute
       nitric acid
     * Very soluble in acetone, benzene, ethyl ether, ethanol
     * Soluble in most organic solvents and dilute nitric acid
     * In water solubility, 61.8 mg/L at 25 deg C

   from [9]HSDB

   Spectral Properties

     * Index of refractoin: 1.4288 at 40 deg C/D
     * SADTLER REFERENCE NUMBER: 2705 (IR, PRISM)
     * IR: 215 (Coblentz Society Spectral Collection)
     * NMR: 6723 (Sadtler Research Laboratories Spectral Collection)
     * MASS: 36479 (NIST/EPA/MSDC Mass Spectral database, 1990 version)

   from [10]HSDB

   Surface Tension
        25.0 mN/m (= dyn/cm) at 70 deg C
   from [11]HSDB

   Vapor Pressure
        3.66X10-4 mm Hg at 25 deg C
   from [12]HSDB

   Viscosity
        4.30 mPa.sec (= cP) at 50 deg C
   from [13]HSDB

   Other Chemical/Physical Properties

     * Precipitates unchanged from dil nitric acid (density 1.14) by
       addition of water
     * Acid value: 320 to 330 mg KOH/g
     * Density/Specfific gravity: 0.88 kg/l at 4 deg C
     * Henry's Law constant = 1.34X10-6 atm-cu m/mole at 25 deg C (est)
     * Hydroxyl radical reaction rate constant = 1.12X10-11 cu
       cm/molec-sec at 25 deg C (est)

   from [14]HSDB

   Computed Properties
   Molecular Weight                  172.2646 [g/mol]
   Molecular Formula                 C[10]H[20]O[2]
   XLogP3                            4.1
   H-Bond Donor                      1
   H-Bond Acceptor                   2
   Rotatable Bond Count              8
   Exact Mass                        172.14633
   MonoIsotopic Mass                 172.14633
   Topological Polar Surface Area    37.3
   Heavy Atom Count                  12
   Formal Charge                     0
   Complexity                        110
   Isotope Atom Count                0
   Defined Atom Stereocenter Count   0
   Undefined Atom Stereocenter Count 0
   Defined Bond Stereocenter Count   0
   Undefined Bond Stereocenter Count 0
   Covalently-Bonded Unit Count      1
   Feature 3D Acceptor Count         2
   Feature 3D Anion Count            1
   Feature 3D Hydrophobe Count       1
   Effective Rotor Count             8
   Conformer Sampling RMSD           0.8
   CID Conformer Count               [15]177

References

   1. http://toxnet.nlm.nih.gov/cgi-bin/sis/search/r?dbs+hsdb:@term+@rn+@rel+334-48-5
   2. http://toxnet.nlm.nih.gov/cgi-bin/sis/search/r?dbs+hsdb:@term+@rn+@rel+334-48-5
   3. http://toxnet.nlm.nih.gov/cgi-bin/sis/search/r?dbs+hsdb:@term+@rn+@rel+334-48-5
   4. http://toxnet.nlm.nih.gov/cgi-bin/sis/search/r?dbs+hsdb:@term+@rn+@rel+334-48-5
   5. http://toxnet.nlm.nih.gov/cgi-bin/sis/search/r?dbs+hsdb:@term+@rn+@rel+334-48-5
   6. http://toxnet.nlm.nih.gov/cgi-bin/sis/search/r?dbs+hsdb:@term+@rn+@rel+334-48-5
   7. http://toxnet.nlm.nih.gov/cgi-bin/sis/search/r?dbs+hsdb:@term+@rn+@rel+334-48-5
   8. http://toxnet.nlm.nih.gov/cgi-bin/sis/search/r?dbs+hsdb:@term+@rn+@rel+334-48-5
   9. http://toxnet.nlm.nih.gov/cgi-bin/sis/search/r?dbs+hsdb:@term+@rn+@rel+334-48-5
  10. http://toxnet.nlm.nih.gov/cgi-bin/sis/search/r?dbs+hsdb:@term+@rn+@rel+334-48-5
  11. http://toxnet.nlm.nih.gov/cgi-bin/sis/search/r?dbs+hsdb:@term+@rn+@rel+334-48-5
  12. http://toxnet.nlm.nih.gov/cgi-bin/sis/search/r?dbs+hsdb:@term+@rn+@rel+334-48-5
  13. http://toxnet.nlm.nih.gov/cgi-bin/sis/search/r?dbs+hsdb:@term+@rn+@rel+334-48-5
  14. http://toxnet.nlm.nih.gov/cgi-bin/sis/search/r?dbs+hsdb:@term+@rn+@rel+334-48-5
  15. http://pubchem.ncbi.nlm.nih.gov/vw3d/vw3d.cgi?cid=2969
