10360
  -OEChem-06261204302D

 15 14  0     0  0  0  0  0  0999 V2000
    2.5000    1.0000    0.0000 I   0  0  0  0  0  0  0  0  0  0  0  0
    5.0981    5.5000    0.0000 Na  0  3  0  0  0  0  0  0  0  0  0  0
    4.2321    0.0000    0.0000 F   0  0  0  0  0  0  0  0  0  0  0  0
    5.0981    4.5000    0.0000 O   0  5  0  0  0  0  0  0  0  0  0  0
    3.3660    4.5000    0.0000 O   0  0  0  0  0  0  0  0  0  0  0  0
    4.2321    3.0000    0.0000 C   0  0  0  0  0  0  0  0  0  0  0  0
    3.3660    2.5000    0.0000 C   0  0  0  0  0  0  0  0  0  0  0  0
    5.0981    2.5000    0.0000 C   0  0  0  0  0  0  0  0  0  0  0  0
    3.3660    1.5000    0.0000 C   0  0  0  0  0  0  0  0  0  0  0  0
    5.0981    1.5000    0.0000 C   0  0  0  0  0  0  0  0  0  0  0  0
    4.2321    1.0000    0.0000 C   0  0  0  0  0  0  0  0  0  0  0  0
    4.2321    4.0000    0.0000 C   0  0  0  0  0  0  0  0  0  0  0  0
    2.8291    2.8100    0.0000 H   0  0  0  0  0  0  0  0  0  0  0  0
    5.6350    2.8100    0.0000 H   0  0  0  0  0  0  0  0  0  0  0  0
    5.6350    1.1900    0.0000 H   0  0  0  0  0  0  0  0  0  0  0  0
  1  9  1  0  0  0  0
  3 11  1  0  0  0  0
  4 12  1  0  0  0  0
  5 12  2  0  0  0  0
  6  7  2  0  0  0  0
  6  8  1  0  0  0  0
  6 12  1  0  0  0  0
  7  9  1  0  0  0  0
  7 13  1  0  0  0  0
  8 10  2  0  0  0  0
  8 14  1  0  0  0  0
  9 11  2  0  0  0  0
 10 11  1  0  0  0  0
 10 15  1  0  0  0  0
M  CHG  2   2   1   4  -1
M  END
> <PUBCHEM_COMPOUND_CID>
10360

> <PUBCHEM_COMPOUND_CANONICALIZED>
1

> <PUBCHEM_CACTVS_COMPLEXITY>
157

> <PUBCHEM_CACTVS_HBOND_ACCEPTOR>
3

> <PUBCHEM_CACTVS_HBOND_DONOR>
0

> <PUBCHEM_CACTVS_ROTATABLE_BOND>
0

> <PUBCHEM_CACTVS_SUBSKEYS>
AAADcQBgMSAAAgAAAAAAAAAAAAAAAAAAAAAwAAAAAAAAAAABAAAAGwAgAAAADACCmAgwCIAAAACIAiDSCAACAAAkAAAIiAEACMgIJjKAFRCAMQAkwAEIiYeIyCCOAAAAAAAAAAAAAAAAAAAAAAAAAAAAAA==

> <PUBCHEM_IUPAC_OPENEYE_NAME>
sodium 4-fluoro-3-iodo-benzoate

> <PUBCHEM_IUPAC_CAS_NAME>
sodium 4-fluoro-3-iodobenzoate

> <PUBCHEM_IUPAC_NAME>
sodium 4-fluoro-3-iodobenzoate

> <PUBCHEM_IUPAC_SYSTEMATIC_NAME>
sodium 4-fluoranyl-3-iodanyl-benzoate

> <PUBCHEM_IUPAC_TRADITIONAL_NAME>
sodium 4-fluoro-3-iodo-benzoate

> <PUBCHEM_IUPAC_INCHI>
InChI=1S/C7H4FIO2.Na/c8-5-2-1-4(7(10)11)3-6(5)9;/h1-3H,(H,10,11);/q;+1/p-1

> <PUBCHEM_IUPAC_INCHIKEY>
GBIQBERJADTQJA-UHFFFAOYSA-M

> <PUBCHEM_EXACT_MASS>
287.90595

> <PUBCHEM_MOLECULAR_FORMULA>
C7H3FINaO2

> <PUBCHEM_MOLECULAR_WEIGHT>
287.990162

> <PUBCHEM_OPENEYE_CAN_SMILES>
C1=CC(=C(C=C1C(=O)[O-])I)F.[Na+]

> <PUBCHEM_OPENEYE_ISO_SMILES>
C1=CC(=C(C=C1C(=O)[O-])I)F.[Na+]

> <PUBCHEM_CACTVS_TPSA>
40.1

> <PUBCHEM_MONOISOTOPIC_WEIGHT>
287.90595

> <PUBCHEM_TOTAL_CHARGE>
0

> <PUBCHEM_HEAVY_ATOM_COUNT>
12

> <PUBCHEM_ATOM_DEF_STEREO_COUNT>
0

> <PUBCHEM_ATOM_UDEF_STEREO_COUNT>
0

> <PUBCHEM_BOND_DEF_STEREO_COUNT>
0

> <PUBCHEM_BOND_UDEF_STEREO_COUNT>
0

> <PUBCHEM_ISOTOPIC_ATOM_COUNT>
0

> <PUBCHEM_COMPONENT_COUNT>
2

> <PUBCHEM_CACTVS_TAUTO_COUNT>
1

> <PUBCHEM_COORDINATE_TYPE>
1
5
255

> <PUBCHEM_BONDANNOTATIONS>
10  11  8
6  7  8
6  8  8
7  9  8
8  10  8
9  11  8

$$$$

