   Color/Form
        Liquid. Forms laminer crystals at low temperature.
   from [1]HSDB

   Odor

     * SWEET, PUNGENT ODOR OF ACACIA
     * Orange blossom or jasmine-like

   from [2]HSDB

   Taste
        BITTER, AROMATIC FLAVOR
   from [3]HSDB

   Boiling Point
        202 deg C
   from [4]HSDB

   Melting Point
        20.5 deg C
   from [5]HSDB

   Critical Temperature and Pressure
        Critical temperature: 802 deg F= 428 deg C= 701 deg K; Critical
   pressure: 560 psia= 38 atm= 3.8 MN/sq m
   from [6]HSDB

   Density/Specific Gravity
        1.033 @ 15 deg C/15 deg C
   from [7]HSDB

   Heat of Combustion
        -8,250 cal/g
   from [8]HSDB

   Heat of Vaporization
        83.6 cal/g
   from [9]HSDB

   Octanol/Water Partition Coefficient
        log Kow= 1.58
   from [10]HSDB

   Solubilities

     * Slightly sol in concn sulfuric acid; freely sol in alc, chloroform,
       ether, fatty oils, glycerol.
     * Sol in acetone and benzene
     * 1:5 IN 50% ETHANOL
     * In water, 6,130 mg/l @ 25 deg C.

   from [11]HSDB

   Spectral Properties

     * Index of refraction: 1.5339 @ 20 deg C/D
     * MAX ABSORPTION (ALC): 243 NM (LOG E= 4.12); SADTLER REFERENCE
       NUMBER: 3226 (IR, PRISM); 8290 (IR, GRATING); 953 (UV)
     * IR: 5181 (Coblentz Society Spectral Collection)
     * UV: 08-7 (Documentation of Molecular Spectroscopy Collection)
     * NMR: 192 (Varian Associates NMR Spectra Catalogue)
     * MASS: 61522 (NIST/EPA/MSDC Mass Spectral Database, 1990 Version)

   from [12]HSDB

   Surface Tension
        39.8 dynes/cm @ 20 deg C (in contact with vapor)
   from [13]HSDB

   Vapor Density
        4.1 (Air=1)
   from [14]HSDB

   Vapor Pressure
        0.397 mm Hg @ 25 deg C
   from [15]HSDB

   Relative Evaporation Rate
        0.06 (ether= 1)
   from [16]HSDB

   Viscosity
        2.28 cP @ 11.9 deg C; 1.59 cP @ 23.5 deg C; 1.617 cP @ 25 deg C;
   1.246 cP @ 50 deg C; 0.734 cP @ 80 deg C
   from [17]HSDB

   Other Chemical/Physical Properties

     * Henry's Law constant= 1.04X10-5 atm-cu m/mole
     * Hydroxyl radical reaction rate constant = 2.7X10-12 cu cm/molec-sec

   from [18]HSDB

   Computed Properties
   Molecular Weight                  120.14852 [g/mol]
   Molecular Formula                 C[8]H[8]O
   XLogP3                            1.6
   H-Bond Donor                      0
   H-Bond Acceptor                   1
   Rotatable Bond Count              1
   Tautomer Count                    2
   Exact Mass                        120.057515
   MonoIsotopic Mass                 120.057515
   Topological Polar Surface Area    17.1
   Heavy Atom Count                  9
   Formal Charge                     0
   Complexity                        101
   Isotope Atom Count                0
   Defined Atom Stereocenter Count   0
   Undefined Atom Stereocenter Count 0
   Defined Bond Stereocenter Count   0
   Undefined Bond Stereocenter Count 0
   Covalently-Bonded Unit Count      1
   Feature 3D Acceptor Count         1
   Feature 3D Ring Count             1
   Effective Rotor Count             1
   Conformer Sampling RMSD           0.4
   CID Conformer Count               [19]2

References

   1. http://toxnet.nlm.nih.gov/cgi-bin/sis/search/r?dbs+hsdb:@term+@rn+@rel+98-86-2
   2. http://toxnet.nlm.nih.gov/cgi-bin/sis/search/r?dbs+hsdb:@term+@rn+@rel+98-86-2
   3. http://toxnet.nlm.nih.gov/cgi-bin/sis/search/r?dbs+hsdb:@term+@rn+@rel+98-86-2
   4. http://toxnet.nlm.nih.gov/cgi-bin/sis/search/r?dbs+hsdb:@term+@rn+@rel+98-86-2
   5. http://toxnet.nlm.nih.gov/cgi-bin/sis/search/r?dbs+hsdb:@term+@rn+@rel+98-86-2
   6. http://toxnet.nlm.nih.gov/cgi-bin/sis/search/r?dbs+hsdb:@term+@rn+@rel+98-86-2
   7. http://toxnet.nlm.nih.gov/cgi-bin/sis/search/r?dbs+hsdb:@term+@rn+@rel+98-86-2
   8. http://toxnet.nlm.nih.gov/cgi-bin/sis/search/r?dbs+hsdb:@term+@rn+@rel+98-86-2
   9. http://toxnet.nlm.nih.gov/cgi-bin/sis/search/r?dbs+hsdb:@term+@rn+@rel+98-86-2
  10. http://toxnet.nlm.nih.gov/cgi-bin/sis/search/r?dbs+hsdb:@term+@rn+@rel+98-86-2
  11. http://toxnet.nlm.nih.gov/cgi-bin/sis/search/r?dbs+hsdb:@term+@rn+@rel+98-86-2
  12. http://toxnet.nlm.nih.gov/cgi-bin/sis/search/r?dbs+hsdb:@term+@rn+@rel+98-86-2
  13. http://toxnet.nlm.nih.gov/cgi-bin/sis/search/r?dbs+hsdb:@term+@rn+@rel+98-86-2
  14. http://toxnet.nlm.nih.gov/cgi-bin/sis/search/r?dbs+hsdb:@term+@rn+@rel+98-86-2
  15. http://toxnet.nlm.nih.gov/cgi-bin/sis/search/r?dbs+hsdb:@term+@rn+@rel+98-86-2
  16. http://toxnet.nlm.nih.gov/cgi-bin/sis/search/r?dbs+hsdb:@term+@rn+@rel+98-86-2
  17. http://toxnet.nlm.nih.gov/cgi-bin/sis/search/r?dbs+hsdb:@term+@rn+@rel+98-86-2
  18. http://toxnet.nlm.nih.gov/cgi-bin/sis/search/r?dbs+hsdb:@term+@rn+@rel+98-86-2
  19. http://pubchem.ncbi.nlm.nih.gov/vw3d/vw3d.cgi?cid=7410
