   Color/Form

     * Colorless liquid
     * Colorless to water-white liquid

   from [1]HSDB

   Odor
        Characteristic acetone-like odor
   from [2]HSDB

   Boiling Point
        102.26 deg C
   from [3]HSDB

   Melting Point
        -76.8 deg C
   from [4]HSDB

   Density/Specific Gravity
        0.809 at 20 deg C/4 deg C
   from [5]HSDB

   Heat of Combustion
        3099.4 kJ/mole at 25 deg C
   from [6]HSDB

   Heat of Vaporization
        38.40 kJ/mol at 25 deg C; 33.44 kJ/mol at boiling point of 103.26
   deg C
   from [7]HSDB

   Octanol/Water Partition Coefficient
        log Kow = 0.91
   from [8]HSDB

   Solubilities

     * Slightly soluble in carbon tetrachloride
     * Miscible with alcohol and ether
     * In water, 4.3X10+4 mg/L at 25 deg C

   from [9]HSDB

   Spectral Properties

     * SADTLER REF NUMBER: 2903 (IR, PRISM); 8272 (IR, GRATING); MAX
       ABSORPTION (ALC): 280.3 NM (LOG E= 1.26)
     * Index of refraction: 1.3895 at 20 deg C/D
     * IR: 3728 (Coblentz Society Spectral Collection)
     * UV: 833 (Sadtler Research Laboratories Spectral Collection)
     * Raman: 40 (Dollish et al., Characteristic Raman Frequencies of
       Organic Compounds, John Wiley & Sons, New York)
     * 1H NMR: 177 (Sadtler Research Laboratories Spectral Collection)
     * MASS: 61710 (NIST/EPA/MSDC Mass Spectral Database, 1990 version);
       146 (Atlas of Mass Spectral Data, John Wiley & Sons, New York)

   from [10]HSDB

   Vapor Density
        2.96 (Air= 1)
   from [11]HSDB

   Vapor Pressure
        35.4 mm Hg at 25 deg C
   from [12]HSDB

   Viscosity
        0.473 cp at 25 deg C
   from [13]HSDB

   Other Chemical/Physical Properties

     * Percent in saturated air 2.1%
     * Air pollution factors: 1 mg/cu m = 0.284, 1 ppm = 3.58 mg/cu m
     * Saturation concentraion in air: 52 g/cu m at 20 deg C; 95 g/cu m at
       30 deg C
     * Henry's Law constant = 8.36X10-5 atm-cu m/mol at 25 deg C
     * Hydroxyl radical reaction rate constant = 4.66X10-12 cu
       cm/molec-sec at 25 deg C

   from [14]HSDB

   Computed Properties
   Molecular Weight                  86.1323 [g/mol]
   Molecular Formula                 C[5]H[10]O
   XLogP3                            0.9
   H-Bond Donor                      0
   H-Bond Acceptor                   1
   Rotatable Bond Count              2
   Tautomer Count                    3
   Exact Mass                        86.073165
   MonoIsotopic Mass                 86.073165
   Topological Polar Surface Area    17.1
   Heavy Atom Count                  6
   Formal Charge                     0
   Complexity                        47.9
   Isotope Atom Count                0
   Defined Atom Stereocenter Count   0
   Undefined Atom Stereocenter Count 0
   Defined Bond Stereocenter Count   0
   Undefined Bond Stereocenter Count 0
   Covalently-Bonded Unit Count      1
   Feature 3D Acceptor Count         1
   Feature 3D Hydrophobe Count       1
   Effective Rotor Count             2
   Conformer Sampling RMSD           0.4
   CID Conformer Count               [15]13

References

   1. http://toxnet.nlm.nih.gov/cgi-bin/sis/search/r?dbs+hsdb:@term+@rn+@rel+107-87-9
   2. http://toxnet.nlm.nih.gov/cgi-bin/sis/search/r?dbs+hsdb:@term+@rn+@rel+107-87-9
   3. http://toxnet.nlm.nih.gov/cgi-bin/sis/search/r?dbs+hsdb:@term+@rn+@rel+107-87-9
   4. http://toxnet.nlm.nih.gov/cgi-bin/sis/search/r?dbs+hsdb:@term+@rn+@rel+107-87-9
   5. http://toxnet.nlm.nih.gov/cgi-bin/sis/search/r?dbs+hsdb:@term+@rn+@rel+107-87-9
   6. http://toxnet.nlm.nih.gov/cgi-bin/sis/search/r?dbs+hsdb:@term+@rn+@rel+107-87-9
   7. http://toxnet.nlm.nih.gov/cgi-bin/sis/search/r?dbs+hsdb:@term+@rn+@rel+107-87-9
   8. http://toxnet.nlm.nih.gov/cgi-bin/sis/search/r?dbs+hsdb:@term+@rn+@rel+107-87-9
   9. http://toxnet.nlm.nih.gov/cgi-bin/sis/search/r?dbs+hsdb:@term+@rn+@rel+107-87-9
  10. http://toxnet.nlm.nih.gov/cgi-bin/sis/search/r?dbs+hsdb:@term+@rn+@rel+107-87-9
  11. http://toxnet.nlm.nih.gov/cgi-bin/sis/search/r?dbs+hsdb:@term+@rn+@rel+107-87-9
  12. http://toxnet.nlm.nih.gov/cgi-bin/sis/search/r?dbs+hsdb:@term+@rn+@rel+107-87-9
  13. http://toxnet.nlm.nih.gov/cgi-bin/sis/search/r?dbs+hsdb:@term+@rn+@rel+107-87-9
  14. http://toxnet.nlm.nih.gov/cgi-bin/sis/search/r?dbs+hsdb:@term+@rn+@rel+107-87-9
  15. http://pubchem.ncbi.nlm.nih.gov/vw3d/vw3d.cgi?cid=7895
