   Color/Form
        Crystals from acetone/hexane
   from [1]HSDB

   Melting Point
        149-153 deg C
   from [2]HSDB

   Octanol/Water Partition Coefficient
        log Kow = 3.99
   from [3]HSDB

   Spectral Properties
        Specific optical rotation = +32 deg (ethanol)
   from [4]HSDB

   Vapor Pressure
        1.7X10-8 mm Hg at 25 deg C (est)
   from [5]HSDB

   Other Chemical/Physical Properties

     * Crystals from hexane; mol wt 360.53; mp 126-130 deg C; specific
       optical rotation = +24 deg/D /Propionate/
     * White to creamy white, crystalline powder; odorless or has faint
       odor; practically insoluble in water; soluble in chloroform, ether,
       & methanol /propionate/
     * Henry's Law constant = 8.5X10-9 atm-cu m/mole at 25 deg C (est)
     * Hydroxyl radical reaction rate constant = 4.3X10-11 cu cm/molec-sec
       at 25 deg C (est)

   from [6]HSDB

   Computed Properties
   Molecular Weight                  304.46688 [g/mol]
   Molecular Formula                 C[20]H[32]O[2]
   XLogP3                            4.2
   H-Bond Donor                      1
   H-Bond Acceptor                   2
   Rotatable Bond Count              0
   Tautomer Count                    3
   Exact Mass                        304.24023
   MonoIsotopic Mass                 304.24023
   Topological Polar Surface Area    37.3
   Heavy Atom Count                  22
   Formal Charge                     0
   Complexity                        486
   Isotope Atom Count                0
   Defined Atom Stereocenter Count   8
   Undefined Atom Stereocenter Count 0
   Defined Bond Stereocenter Count   0
   Undefined Bond Stereocenter Count 0
   Covalently-Bonded Unit Count      1
   Feature 3D Acceptor Count         2
   Feature 3D Donor Count            1
   Feature 3D Ring Count             4
   Effective Rotor Count             2
   Conformer Sampling RMSD           0.6
   CID Conformer Count               [7]1

References

   1. http://toxnet.nlm.nih.gov/cgi-bin/sis/search/r?dbs+hsdb:@term+@rn+@rel+58-19-5
   2. http://toxnet.nlm.nih.gov/cgi-bin/sis/search/r?dbs+hsdb:@term+@rn+@rel+58-19-5
   3. http://toxnet.nlm.nih.gov/cgi-bin/sis/search/r?dbs+hsdb:@term+@rn+@rel+58-19-5
   4. http://toxnet.nlm.nih.gov/cgi-bin/sis/search/r?dbs+hsdb:@term+@rn+@rel+58-19-5
   5. http://toxnet.nlm.nih.gov/cgi-bin/sis/search/r?dbs+hsdb:@term+@rn+@rel+58-19-5
   6. http://toxnet.nlm.nih.gov/cgi-bin/sis/search/r?dbs+hsdb:@term+@rn+@rel+58-19-5
   7. http://pubchem.ncbi.nlm.nih.gov/vw3d/vw3d.cgi?cid=6011
