   Color/Form
        Colorless crystals
   from [1]HSDB

   Odor
        ODORLESS
   from [2]HSDB

   Melting Point
        139-142 (143-144 DEG C)
   from [3]HSDB

   Corrosivity
        Non-corrosive
   from [4]HSDB

   Density/Specific Gravity
        0.25-0.30 g/cu c at 20 deg C
   from [5]HSDB

   Solubilities
        4.7 MG/L WATER; ABOUT 200 G/KG IN ACETONE, CYCLOHEXANONE; ABOUT 50
   G/KG IN METHANOL; 20 G/KG IN CHLOROFORM; 2.5 G/KG IN BENZENE; ABOUT 500
   MG/KG IN HEXENE AT ROOM TEMP
   from [6]HSDB

   Spectral Properties
        Intense mass spectral peaks: 167 m/z (100%), 133 m/z (96%), 135
   m/z (64%), 104 m/z (53%)
   from [7]HSDB

   Vapor Pressure
        1.3 nPa at 25 deg C
   from [8]HSDB

   Other Chemical/Physical Properties

     * COLORLESS, ODORLESS, CRYSTALLINE SOLID; MP 143-144 DEG C;
       SOLUBILITY: 1 MG/L WATER AT 20 DEG C, ACETONE 20%, CYCLOHEXANONE
       20%, METHANOL 5% /TECHNICAL MATERIAL 97% PURE/
     * Henry's Law constant= 8.41X10-13 atm-cu m/mole (est)

   from [9]HSDB

   Computed Properties
   Molecular Weight                  300.30924 [g/mol]
   Molecular Formula                 C[16]H[16]N[2]O[4]
   XLogP3                            3.6
   H-Bond Donor                      2
   H-Bond Acceptor                   4
   Rotatable Bond Count              5
   Tautomer Count                    4
   Exact Mass                        300.111007
   MonoIsotopic Mass                 300.111007
   Topological Polar Surface Area    76.7
   Heavy Atom Count                  22
   Formal Charge                     0
   Complexity                        388
   Isotope Atom Count                0
   Defined Atom Stereocenter Count   0
   Undefined Atom Stereocenter Count 0
   Defined Bond Stereocenter Count   0
   Undefined Bond Stereocenter Count 0
   Covalently-Bonded Unit Count      1
   Feature 3D Acceptor Count         2
   Feature 3D Donor Count            2
   Feature 3D Ring Count             2
   Effective Rotor Count             7
   Conformer Sampling RMSD           0.8
   CID Conformer Count               [10]309

References

   1. http://toxnet.nlm.nih.gov/cgi-bin/sis/search/r?dbs+hsdb:@term+@rn+@rel+13684-63-4
   2. http://toxnet.nlm.nih.gov/cgi-bin/sis/search/r?dbs+hsdb:@term+@rn+@rel+13684-63-4
   3. http://toxnet.nlm.nih.gov/cgi-bin/sis/search/r?dbs+hsdb:@term+@rn+@rel+13684-63-4
   4. http://toxnet.nlm.nih.gov/cgi-bin/sis/search/r?dbs+hsdb:@term+@rn+@rel+13684-63-4
   5. http://toxnet.nlm.nih.gov/cgi-bin/sis/search/r?dbs+hsdb:@term+@rn+@rel+13684-63-4
   6. http://toxnet.nlm.nih.gov/cgi-bin/sis/search/r?dbs+hsdb:@term+@rn+@rel+13684-63-4
   7. http://toxnet.nlm.nih.gov/cgi-bin/sis/search/r?dbs+hsdb:@term+@rn+@rel+13684-63-4
   8. http://toxnet.nlm.nih.gov/cgi-bin/sis/search/r?dbs+hsdb:@term+@rn+@rel+13684-63-4
   9. http://toxnet.nlm.nih.gov/cgi-bin/sis/search/r?dbs+hsdb:@term+@rn+@rel+13684-63-4
  10. http://pubchem.ncbi.nlm.nih.gov/vw3d/vw3d.cgi?cid=24744
