27919
  -OEChem-07051213082D

 24 25  0     1  0  0  0  0  0999 V2000
    2.0000    1.6785    0.0000 O   0  0  0  0  0  0  0  0  0  0  0  0
    3.6942    1.3184    0.0000 N   0  0  0  0  0  0  0  0  0  0  0  0
    2.7431    1.0094    0.0000 N   0  0  0  0  0  0  0  0  0  0  0  0
    5.3692   -1.7694    0.0000 N   0  0  0  0  0  0  0  0  0  0  0  0
    4.5032    0.7306    0.0000 C   0  0  3  0  0  0  0  0  0  0  0  0
    5.3122    1.3184    0.0000 C   0  0  0  0  0  0  0  0  0  0  0  0
    5.0032    2.2694    0.0000 C   0  0  0  0  0  0  0  0  0  0  0  0
    4.0032    2.2694    0.0000 C   0  0  0  0  0  0  0  0  0  0  0  0
    4.5032   -0.2694    0.0000 C   0  0  0  0  0  0  0  0  0  0  0  0
    3.6372   -0.7694    0.0000 C   0  0  0  0  0  0  0  0  0  0  0  0
    5.3692   -0.7694    0.0000 C   0  0  0  0  0  0  0  0  0  0  0  0
    3.6372   -1.7694    0.0000 C   0  0  0  0  0  0  0  0  0  0  0  0
    4.5032   -2.2694    0.0000 C   0  0  0  0  0  0  0  0  0  0  0  0
    3.9508    0.4491    0.0000 H   0  0  0  0  0  0  0  0  0  0  0  0
    5.6222    0.7814    0.0000 H   0  0  0  0  0  0  0  0  0  0  0  0
    5.8786    1.5705    0.0000 H   0  0  0  0  0  0  0  0  0  0  0  0
    5.6097    2.3983    0.0000 H   0  0  0  0  0  0  0  0  0  0  0  0
    4.9384    2.8860    0.0000 H   0  0  0  0  0  0  0  0  0  0  0  0
    4.0680    2.8860    0.0000 H   0  0  0  0  0  0  0  0  0  0  0  0
    3.3968    2.3983    0.0000 H   0  0  0  0  0  0  0  0  0  0  0  0
    3.1003   -0.4594    0.0000 H   0  0  0  0  0  0  0  0  0  0  0  0
    5.9062   -0.4594    0.0000 H   0  0  0  0  0  0  0  0  0  0  0  0
    3.1003   -2.0794    0.0000 H   0  0  0  0  0  0  0  0  0  0  0  0
    4.5032   -2.8894    0.0000 H   0  0  0  0  0  0  0  0  0  0  0  0
  1  3  2  0  0  0  0
  2  3  1  0  0  0  0
  2  5  1  0  0  0  0
  2  8  1  0  0  0  0
  4 11  1  0  0  0  0
  4 13  2  0  0  0  0
  5  6  1  0  0  0  0
  5  9  1  0  0  0  0
  5 14  1  0  0  0  0
  6  7  1  0  0  0  0
  6 15  1  0  0  0  0
  6 16  1  0  0  0  0
  7  8  1  0  0  0  0
  7 17  1  0  0  0  0
  7 18  1  0  0  0  0
  8 19  1  0  0  0  0
  8 20  1  0  0  0  0
  9 10  1  0  0  0  0
  9 11  2  0  0  0  0
 10 12  2  0  0  0  0
 10 21  1  0  0  0  0
 11 22  1  0  0  0  0
 12 13  1  0  0  0  0
 12 23  1  0  0  0  0
 13 24  1  0  0  0  0
M  END
> <PUBCHEM_COMPOUND_CID>
27919

> <PUBCHEM_COMPOUND_CANONICALIZED>
1

> <PUBCHEM_CACTVS_COMPLEXITY>
186

> <PUBCHEM_CACTVS_HBOND_ACCEPTOR>
4

> <PUBCHEM_CACTVS_HBOND_DONOR>
0

> <PUBCHEM_CACTVS_ROTATABLE_BOND>
1

> <PUBCHEM_CACTVS_SUBSKEYS>
AAADccBzIAAAAAAAAAAAAAAAAAAAAWAAAAAsAAAAAAAAAAABgAAAHAAMAAAADCjBGgQ8gJIIEAChAjBnRACCgCAxAiAY2CA4ZJgIIOLA0ZGEIAhggADIyAcQgIAOAAAAAAAAAAAAAAAAAAAAAAAAAAAAAA==

> <PUBCHEM_IUPAC_OPENEYE_NAME>
3-(1-nitrosopyrrolidin-2-yl)pyridine

> <PUBCHEM_IUPAC_CAS_NAME>
3-(1-nitroso-2-pyrrolidinyl)pyridine

> <PUBCHEM_IUPAC_NAME>
3-(1-nitrosopyrrolidin-2-yl)pyridine

> <PUBCHEM_IUPAC_SYSTEMATIC_NAME>
3-(1-nitrosopyrrolidin-2-yl)pyridine

> <PUBCHEM_IUPAC_TRADITIONAL_NAME>
3-(1-nitrosopyrrolidin-2-yl)pyridine

> <PUBCHEM_IUPAC_INCHI>
InChI=1S/C9H11N3O/c13-11-12-6-2-4-9(12)8-3-1-5-10-7-8/h1,3,5,7,9H,2,4,6H2

> <PUBCHEM_IUPAC_INCHIKEY>
XKABJYQDMJTNGQ-UHFFFAOYSA-N

> <PUBCHEM_XLOGP3_AA>
1.1

> <PUBCHEM_EXACT_MASS>
177.090212

> <PUBCHEM_MOLECULAR_FORMULA>
C9H11N3O

> <PUBCHEM_MOLECULAR_WEIGHT>
177.20314

> <PUBCHEM_OPENEYE_CAN_SMILES>
C1CC(N(C1)N=O)C2=CN=CC=C2

> <PUBCHEM_OPENEYE_ISO_SMILES>
C1CC(N(C1)N=O)C2=CN=CC=C2

> <PUBCHEM_CACTVS_TPSA>
45.6

> <PUBCHEM_MONOISOTOPIC_WEIGHT>
177.090212

> <PUBCHEM_TOTAL_CHARGE>
0

> <PUBCHEM_HEAVY_ATOM_COUNT>
13

> <PUBCHEM_ATOM_DEF_STEREO_COUNT>
0

> <PUBCHEM_ATOM_UDEF_STEREO_COUNT>
1

> <PUBCHEM_BOND_DEF_STEREO_COUNT>
0

> <PUBCHEM_BOND_UDEF_STEREO_COUNT>
0

> <PUBCHEM_ISOTOPIC_ATOM_COUNT>
0

> <PUBCHEM_COMPONENT_COUNT>
1

> <PUBCHEM_CACTVS_TAUTO_COUNT>
1

> <PUBCHEM_COORDINATE_TYPE>
1
5
255

> <PUBCHEM_BONDANNOTATIONS>
10  12  8
12  13  8
4  11  8
4  13  8
5  9  3
9  10  8
9  11  8

$$$$

