   Density/Specific Gravity
        0.940 g/cu m @ 25 deg C /Silicon fluid with 10 sq mm/s viscosity/
   from [1]HSDB

   Spectral Properties
        Index of refraction 1.399 @ 20 deg C/D /Silicone fluid with 10 mm
   sq/5 viscosity
   from [2]HSDB

   Surface Tension
        20.0 dyne/cm @ 25 deg C /Silicone fluid with 10 mm sq/s viscosity/
   from [3]HSDB

   Vapor Density
        Pour point -73 deg C; Electric Strength 1.4 KV/um; Electric
   Constant 2.60; Thermal conductivity at 65 deg C = 1.3 W/(m.k).
   /Silicone fluid with 10 mm sq/5 viscosity/
   from [4]HSDB

   Viscosity
        10 cu mm/S @ 25 deg C /Silicone fluid with 10 mm sq/S viscosity/
   from [5]HSDB

   Other Chemical/Physical Properties

     * Viscosity: 41 cSt at 37.8 deg C /Silicone fluid with 10 mm sq/S
       viscosity/
     * DIMETHYLPOLYSILOXANES ARE PRACTICALLY INERT POLYMERS

   from [6]HSDB

   Computed Properties
   Molecular Weight                  236.53146 [g/mol]
   Molecular Formula                 C[8]H[24]O[2]Si[3]
   H-Bond Donor                      0
   H-Bond Acceptor                   2
   Rotatable Bond Count              4
   Exact Mass                        236.10841
   MonoIsotopic Mass                 236.10841
   Topological Polar Surface Area    18.5
   Heavy Atom Count                  13
   Formal Charge                     0
   Complexity                        149
   Isotope Atom Count                0
   Defined Atom Stereocenter Count   0
   Undefined Atom Stereocenter Count 0
   Defined Bond Stereocenter Count   0
   Undefined Bond Stereocenter Count 0
   Covalently-Bonded Unit Count      1
   Effective Rotor Count             4
   Conformer Sampling RMSD           0.6
   CID Conformer Count               [7]4

References

   1. http://toxnet.nlm.nih.gov/cgi-bin/sis/search/r?dbs+hsdb:@term+@rn+@rel+63148-62-9
   2. http://toxnet.nlm.nih.gov/cgi-bin/sis/search/r?dbs+hsdb:@term+@rn+@rel+63148-62-9
   3. http://toxnet.nlm.nih.gov/cgi-bin/sis/search/r?dbs+hsdb:@term+@rn+@rel+63148-62-9
   4. http://toxnet.nlm.nih.gov/cgi-bin/sis/search/r?dbs+hsdb:@term+@rn+@rel+63148-62-9
   5. http://toxnet.nlm.nih.gov/cgi-bin/sis/search/r?dbs+hsdb:@term+@rn+@rel+63148-62-9
   6. http://toxnet.nlm.nih.gov/cgi-bin/sis/search/r?dbs+hsdb:@term+@rn+@rel+63148-62-9
   7. http://pubchem.ncbi.nlm.nih.gov/vw3d/vw3d.cgi?cid=24705
