448155
  -OEChem-07051212482D

 64 67  0     1  0  0  0  0  0999 V2000
   12.4860   -2.1339    0.0000 P   0  0  0  0  0  0  0  0  0  0  0  0
    8.2225    1.4736    0.0000 P   0  0  3  0  0  0  0  0  0  0  0  0
    6.9373    2.6348    0.0000 P   0  0  3  0  0  0  0  0  0  0  0  0
    9.2258   -1.4472    0.0000 O   0  0  0  0  0  0  0  0  0  0  0  0
   11.5718   -2.5390    0.0000 O   0  0  0  0  0  0  0  0  0  0  0  0
   11.5756   -0.3635    0.0000 O   0  0  0  0  0  0  0  0  0  0  0  0
    3.9301    3.3378    0.0000 O   0  0  0  0  0  0  0  0  0  0  0  0
    8.5298    0.5220    0.0000 O   0  0  0  0  0  0  0  0  0  0  0  0
    4.7707    5.7850    0.0000 O   0  0  0  0  0  0  0  0  0  0  0  0
    2.6067    5.5613    0.0000 O   0  0  0  0  0  0  0  0  0  0  0  0
    5.9595    2.8444    0.0000 O   0  0  0  0  0  0  0  0  0  0  0  0
    2.1507    3.4341    0.0000 O   0  0  0  0  0  0  0  0  0  0  0  0
    7.9151    2.4252    0.0000 O   0  0  0  0  0  0  0  0  0  0  0  0
   13.4003   -1.7287    0.0000 O   0  0  0  0  0  0  0  0  0  0  0  0
   12.8912   -3.0481    0.0000 O   0  0  0  0  0  0  0  0  0  0  0  0
   12.0809   -1.2196    0.0000 O   0  0  0  0  0  0  0  0  0  0  0  0
    7.2709    1.1662    0.0000 O   0  0  0  0  0  0  0  0  0  0  0  0
    9.1741    1.7810    0.0000 O   0  0  0  0  0  0  0  0  0  0  0  0
    7.1469    3.6126    0.0000 O   0  0  0  0  0  0  0  0  0  0  0  0
    6.7277    1.6570    0.0000 O   0  0  0  0  0  0  0  0  0  0  0  0
    9.5015   -3.2077    0.0000 N   0  0  0  0  0  0  0  0  0  0  0  0
    9.5015   -4.8172    0.0000 N   0  0  0  0  0  0  0  0  0  0  0  0
    7.6893   -3.0125    0.0000 N   0  0  0  0  0  0  0  0  0  0  0  0
    6.8233   -4.5125    0.0000 N   0  0  0  0  0  0  0  0  0  0  0  0
    7.6893   -6.0125    0.0000 N   0  0  0  0  0  0  0  0  0  0  0  0
   10.7638   -1.9498    0.0000 C   0  0  2  0  0  0  0  0  0  0  0  0
   10.7655   -0.9498    0.0000 C   0  0  1  0  0  0  0  0  0  0  0  0
    9.8122   -2.2572    0.0000 C   0  0  1  0  0  0  0  0  0  0  0  0
    9.8150   -0.6392    0.0000 C   0  0  1  0  0  0  0  0  0  0  0  0
    9.5076    0.3124    0.0000 C   0  0  0  0  0  0  0  0  0  0  0  0
    4.2692    4.9198    0.0000 C   0  0  2  0  0  0  0  0  0  0  0  0
    4.6744    4.0056    0.0000 C   0  0  1  0  0  0  0  0  0  0  0  0
    3.2745    4.8170    0.0000 C   0  0  2  0  0  0  0  0  0  0  0  0
    8.5553   -3.5125    0.0000 C   0  0  0  0  0  0  0  0  0  0  0  0
    3.0649    3.8392    0.0000 C   0  0  1  0  0  0  0  0  0  0  0  0
   10.0851   -4.0125    0.0000 C   0  0  0  0  0  0  0  0  0  0  0  0
    5.6522    3.7960    0.0000 C   0  0  0  0  0  0  0  0  0  0  0  0
    8.5553   -4.5125    0.0000 C   0  0  0  0  0  0  0  0  0  0  0  0
    7.6893   -5.0125    0.0000 C   0  0  0  0  0  0  0  0  0  0  0  0
    6.8233   -3.5125    0.0000 C   0  0  0  0  0  0  0  0  0  0  0  0
   10.6657   -2.5620    0.0000 H   0  0  0  0  0  0  0  0  0  0  0  0
   11.3175   -1.2323    0.0000 H   0  0  0  0  0  0  0  0  0  0  0  0
   10.2498   -2.6964    0.0000 H   0  0  0  0  0  0  0  0  0  0  0  0
    9.2028   -0.5411    0.0000 H   0  0  0  0  0  0  0  0  0  0  0  0
   10.1217    0.3976    0.0000 H   0  0  0  0  0  0  0  0  0  0  0  0
    9.5303    0.9320    0.0000 H   0  0  0  0  0  0  0  0  0  0  0  0
    3.9324    5.4404    0.0000 H   0  0  0  0  0  0  0  0  0  0  0  0
    4.8338    3.4064    0.0000 H   0  0  0  0  0  0  0  0  0  0  0  0
    2.6754    4.6576    0.0000 H   0  0  0  0  0  0  0  0  0  0  0  0
   11.5118    0.2533    0.0000 H   0  0  0  0  0  0  0  0  0  0  0  0
    2.5838    4.2303    0.0000 H   0  0  0  0  0  0  0  0  0  0  0  0
   10.7051   -4.0125    0.0000 H   0  0  0  0  0  0  0  0  0  0  0  0
    6.2663    3.8812    0.0000 H   0  0  0  0  0  0  0  0  0  0  0  0
    5.6749    4.4156    0.0000 H   0  0  0  0  0  0  0  0  0  0  0  0
    4.4616    6.3225    0.0000 H   0  0  0  0  0  0  0  0  0  0  0  0
    2.0000    5.4335    0.0000 H   0  0  0  0  0  0  0  0  0  0  0  0
    2.0848    2.8176    0.0000 H   0  0  0  0  0  0  0  0  0  0  0  0
   13.9012   -2.0940    0.0000 H   0  0  0  0  0  0  0  0  0  0  0  0
   13.5077   -3.1140    0.0000 H   0  0  0  0  0  0  0  0  0  0  0  0
    6.2863   -3.2025    0.0000 H   0  0  0  0  0  0  0  0  0  0  0  0
    7.1409    0.5600    0.0000 H   0  0  0  0  0  0  0  0  0  0  0  0
    7.1524   -6.3225    0.0000 H   0  0  0  0  0  0  0  0  0  0  0  0
    8.2262   -6.3225    0.0000 H   0  0  0  0  0  0  0  0  0  0  0  0
    7.7369    3.8032    0.0000 H   0  0  0  0  0  0  0  0  0  0  0  0
  1  5  1  0  0  0  0
  1 14  1  0  0  0  0
  1 15  1  0  0  0  0
  1 16  2  0  0  0  0
  2  8  1  0  0  0  0
  2 13  1  0  0  0  0
  2 17  1  0  0  0  0
  2 18  2  0  0  0  0
  3 11  1  0  0  0  0
  3 13  1  0  0  0  0
  3 19  1  0  0  0  0
  3 20  2  0  0  0  0
  4 28  1  0  0  0  0
  4 29  1  0  0  0  0
 26  5  1  1  0  0  0
 27  6  1  1  0  0  0
  6 50  1  0  0  0  0
  7 32  1  0  0  0  0
  7 35  1  0  0  0  0
  8 30  1  0  0  0  0
 31  9  1  6  0  0  0
  9 55  1  0  0  0  0
 33 10  1  6  0  0  0
 10 56  1  0  0  0  0
 11 37  1  0  0  0  0
 35 12  1  1  0  0  0
 12 57  1  0  0  0  0
 14 58  1  0  0  0  0
 15 59  1  0  0  0  0
 17 61  1  0  0  0  0
 19 64  1  0  0  0  0
 28 21  1  6  0  0  0
 21 34  1  0  0  0  0
 21 36  1  0  0  0  0
 22 36  2  0  0  0  0
 22 38  1  0  0  0  0
 23 34  1  0  0  0  0
 23 40  2  0  0  0  0
 24 39  2  0  0  0  0
 24 40  1  0  0  0  0
 25 39  1  0  0  0  0
 25 62  1  0  0  0  0
 25 63  1  0  0  0  0
 26 27  1  0  0  0  0
 26 28  1  0  0  0  0
 26 41  1  0  0  0  0
 27 29  1  0  0  0  0
 27 42  1  0  0  0  0
 28 43  1  0  0  0  0
 29 30  1  6  0  0  0
 29 44  1  0  0  0  0
 30 45  1  0  0  0  0
 30 46  1  0  0  0  0
 31 32  1  0  0  0  0
 31 33  1  0  0  0  0
 31 47  1  0  0  0  0
 32 37  1  1  0  0  0
 32 48  1  0  0  0  0
 33 35  1  0  0  0  0
 33 49  1  0  0  0  0
 34 38  2  0  0  0  0
 35 51  1  0  0  0  0
 36 52  1  0  0  0  0
 37 53  1  0  0  0  0
 37 54  1  0  0  0  0
 38 39  1  0  0  0  0
 40 60  1  0  0  0  0
M  END
> <PUBCHEM_COMPOUND_CID>
448155

> <PUBCHEM_COMPOUND_CANONICALIZED>
1

> <PUBCHEM_CACTVS_COMPLEXITY>
1040

> <PUBCHEM_CACTVS_HBOND_ACCEPTOR>
21

> <PUBCHEM_CACTVS_HBOND_DONOR>
9

> <PUBCHEM_CACTVS_ROTATABLE_BOND>
11

> <PUBCHEM_CACTVS_SUBSKEYS>
AAADceBzvgMAAAAAAAAAAAAAAAAAAWJEgAAsAAAAAAAAAFgB+AAAHgAQCCAACBzxlwcF+L9MFxCgQQZhZICAgC0REKABUCAoVBCTWAJAyEAeRAgPAALXACDwMAIAAAAAAAAAAAAAAAAAAAAAAAAAAAAAAA==

> <PUBCHEM_IUPAC_OPENEYE_NAME>
[[(2R,3R,4R,5R)-5-(6-aminopurin-9-yl)-3-hydroxy-4-phosphonooxy-tetrahydrofuran-2-yl]methoxy-hydroxy-phosphoryl] [(2R,3S,4R,5R)-3,4,5-trihydroxytetrahydrofuran-2-yl]methyl hydrogen phosphate

> <PUBCHEM_IUPAC_CAS_NAME>
[[(2R,3R,4R,5R)-5-(6-aminopurin-9-yl)-3-hydroxy-4-phosphonooxy-2-oxolanyl]methoxy-hydroxyphosphoryl] [(2R,3S,4R,5R)-3,4,5-trihydroxy-2-oxolanyl]methyl hydrogen phosphate

> <PUBCHEM_IUPAC_NAME>
[[(2R,3R,4R,5R)-5-(6-aminopurin-9-yl)-3-hydroxy-4-phosphonooxyoxolan-2-yl]methoxy-hydroxyphosphoryl] [(2R,3S,4R,5R)-3,4,5-trihydroxyoxolan-2-yl]methyl hydrogen phosphate

> <PUBCHEM_IUPAC_SYSTEMATIC_NAME>
[[(2R,3R,4R,5R)-5-(6-aminopurin-9-yl)-3-oxidanyl-4-phosphonooxy-oxolan-2-yl]methoxy-oxidanyl-phosphoryl] [(2R,3S,4R,5R)-3,4,5-tris(oxidanyl)oxolan-2-yl]methyl hydrogen phosphate

> <PUBCHEM_IUPAC_TRADITIONAL_NAME>
[[(2R,3R,4R,5R)-5-adenin-9-yl-3-hydroxy-4-phosphonooxy-tetrahydrofuran-2-yl]methoxy-hydroxy-phosphoryl] [(2R,3S,4R,5R)-3,4,5-trihydroxytetrahydrofuran-2-yl]methyl hydrogen phosphate

> <PUBCHEM_IUPAC_INCHI>
InChI=1S/C15H24N5O17P3/c16-12-7-13(18-3-17-12)20(4-19-7)14-11(36-38(25,26)27)9(22)6(34-14)2-33-40(30,31)37-39(28,29)32-1-5-8(21)10(23)15(24)35-5/h3-6,8-11,14-15,21-24H,1-2H2,(H,28,29)(H,30,31)(H2,16,17,18)(H2,25,26,27)/t5-,6-,8-,9-,10-,11-,14-,15-/m1/s1

> <PUBCHEM_IUPAC_INCHIKEY>
ICNHOLCERMYLRZ-KEOHHSTQSA-N

> <PUBCHEM_XLOGP3>
-7.2

> <PUBCHEM_EXACT_MASS>
639.038004

> <PUBCHEM_MOLECULAR_FORMULA>
C15H24N5O17P3

> <PUBCHEM_MOLECULAR_WEIGHT>
639.295646

> <PUBCHEM_OPENEYE_CAN_SMILES>
C1=NC2=C(C(=N1)N)N=CN2C3C(C(C(O3)COP(=O)(O)OP(=O)(O)OCC4C(C(C(O4)O)O)O)O)OP(=O)(O)O

> <PUBCHEM_OPENEYE_ISO_SMILES>
C1=NC2=C(C(=N1)N)N=CN2[C@H]3[C@@H]([C@@H]([C@H](O3)COP(=O)(O)OP(=O)(O)OC[C@@H]4[C@H]([C@H]([C@@H](O4)O)O)O)O)OP(=O)(O)O

> <PUBCHEM_CACTVS_TPSA>
338

> <PUBCHEM_MONOISOTOPIC_WEIGHT>
639.038004

> <PUBCHEM_TOTAL_CHARGE>
0

> <PUBCHEM_HEAVY_ATOM_COUNT>
40

> <PUBCHEM_ATOM_DEF_STEREO_COUNT>
8

> <PUBCHEM_ATOM_UDEF_STEREO_COUNT>
0

> <PUBCHEM_BOND_DEF_STEREO_COUNT>
0

> <PUBCHEM_BOND_UDEF_STEREO_COUNT>
0

> <PUBCHEM_ISOTOPIC_ATOM_COUNT>
0

> <PUBCHEM_COMPONENT_COUNT>
1

> <PUBCHEM_CACTVS_TAUTO_COUNT>
3

> <PUBCHEM_COORDINATE_TYPE>
1
5
255

> <PUBCHEM_BONDANNOTATIONS>
33  10  6
35  12  5
28  21  6
21  34  8
21  36  8
22  36  8
22  38  8
23  34  8
23  40  8
24  39  8
24  40  8
29  30  6
32  37  5
34  38  8
38  39  8
26  5  5
27  6  5
31  9  6

$$$$

