   Color/Form

     * LIQUID
     * PALE YELLOW

   from [1]HSDB

   Boiling Point
        188 DEG C
   from [2]HSDB

   Melting Point
        -1.9 DEG C
   from [3]HSDB

   Density/Specific Gravity
        1.1725 @ 20 DEG C/4 DEG C
   from [4]HSDB

   Heat of Combustion
        780.4 KCAL/MOL
   from [5]HSDB

   Octanol/Water Partition Coefficient
        Log Kow= 1.15
   from [6]HSDB

   Solubilities

     * VERY SLIGHTLY SOL IN WATER
     * SOL IN ALCOHOL, ETHER

   from [7]HSDB

   Spectral Properties

     * INDEX OF REFRACTION: 1.51954 @ 20 DEG C/D
     * MAX ABSORPTION (CYCLOHEXANE): 230 NM (LOG E= 3.85); 293 NM (LOG E=
       3.34); 296 NM (LOG E= 3.34); 300 NM SHOULDER (LOG E= 3.32)
     * IR: 19617 (Sadtler Research Laboratories Prism Collection)
     * UV: 6459 (Sadtler Research Laboratories Spectral Collection)
     * NMR: 5033 (Sadtler Research Laboratories Spectral Collection)
     * MASS: 366 (Atlas of Mass Spectral Data, John Wiley & Sons, New
       York)

   from [8]HSDB

   Vapor Pressure
        Vapor pressure= 1 mm Hg at 25 deg C.
   from [9]HSDB

   Other Chemical/Physical Properties

     * IR: 6308 (Coblentz Society Spectral Collection) /2-Fluoroaniline/
     * UV: 8-41 (Organic Electronic Spectral Data, Phillips et al, John
       Wiley & Sons, New York) /2-Fluoroaniline/
     * NMR: 5031 (Sadtler Research Laboratories Spectral Collection)
       /2-Fluoroaniline/
     * IR: 715 (Sadtler Research Laboratories IR Grating Collection)
       /3-Fluoroaniline/
     * UV: 9650 (Sadtler Research Laboratories Spectral Collection)
       /3-Fluoroaniline/
     * NMR: 5032 (Sadtler Research Laboratories Spectral Collection)
       /3-Fluoroaniline/

   from [10]HSDB

   Computed Properties
   Molecular Weight                  111.116943 [g/mol]
   Molecular Formula                 C[6]H[6]FN
   XLogP3                            1.1
   H-Bond Donor                      1
   H-Bond Acceptor                   2
   Rotatable Bond Count              0
   Exact Mass                        111.048427
   MonoIsotopic Mass                 111.048427
   Topological Polar Surface Area    26
   Heavy Atom Count                  8
   Formal Charge                     0
   Complexity                        66.9
   Isotope Atom Count                0
   Defined Atom Stereocenter Count   0
   Undefined Atom Stereocenter Count 0
   Defined Bond Stereocenter Count   0
   Undefined Bond Stereocenter Count 0
   Covalently-Bonded Unit Count      1
   Feature 3D Donor Count            1
   Feature 3D Cation Count           1
   Feature 3D Ring Count             1
   Effective Rotor Count             0
   Conformer Sampling RMSD           0.4
   CID Conformer Count               [11]1

References

   1. http://toxnet.nlm.nih.gov/cgi-bin/sis/search/r?dbs+hsdb:@term+@rn+@rel+371-40-4
   2. http://toxnet.nlm.nih.gov/cgi-bin/sis/search/r?dbs+hsdb:@term+@rn+@rel+371-40-4
   3. http://toxnet.nlm.nih.gov/cgi-bin/sis/search/r?dbs+hsdb:@term+@rn+@rel+371-40-4
   4. http://toxnet.nlm.nih.gov/cgi-bin/sis/search/r?dbs+hsdb:@term+@rn+@rel+371-40-4
   5. http://toxnet.nlm.nih.gov/cgi-bin/sis/search/r?dbs+hsdb:@term+@rn+@rel+371-40-4
   6. http://toxnet.nlm.nih.gov/cgi-bin/sis/search/r?dbs+hsdb:@term+@rn+@rel+371-40-4
   7. http://toxnet.nlm.nih.gov/cgi-bin/sis/search/r?dbs+hsdb:@term+@rn+@rel+371-40-4
   8. http://toxnet.nlm.nih.gov/cgi-bin/sis/search/r?dbs+hsdb:@term+@rn+@rel+371-40-4
   9. http://toxnet.nlm.nih.gov/cgi-bin/sis/search/r?dbs+hsdb:@term+@rn+@rel+371-40-4
  10. http://toxnet.nlm.nih.gov/cgi-bin/sis/search/r?dbs+hsdb:@term+@rn+@rel+371-40-4
  11. http://pubchem.ncbi.nlm.nih.gov/vw3d/vw3d.cgi?cid=9731
