   Color/Form

     * NEARLY WHITE CRYSTALS
     * NEEDLES OR PLATES FROM DILUTE ALCOHOL
     * White flakes

   from [1]HSDB

   Boiling Point
        305-308 DEG C
   from [2]HSDB

   Melting Point
        164-165 DEG C
   from [3]HSDB

   Density/Specific Gravity
        1.27 kg/l @ 25 deg C
   from [4]HSDB

   Dissociation Constants
        pKa = 9.5
   from [5]HSDB

   Octanol/Water Partition Coefficient
        Log Kow = 3.20
   from [6]HSDB

   Solubilities

     * SLIGHTLY SOL IN PETROLEUM ETHER; VERY SOL IN ALCOHOL, ETHER,
       CHLOROFORM & PYRIMIDINE
     * SOL IN ALCOHOL, ALSO IN ALKALIES & MOST ORGANIC SOLVENTS; INSOLUBLE
       IN WATER
     * Soluble in oxygenated solvents.
     * Water solubility = 56.2 mg/l

   from [7]HSDB

   Spectral Properties

     * MAX ABSORPTION (ALCOHOL): 260 NM (LOG E= 4.24)
     * IR: 1272 (Coblentz Society Spectral Collection)
     * UV: 330 (Sadtler Research Laboratories Spectral Collection)
     * NMR: 10383 (Sadtler Research Laboratories Spectral Collection)
     * MASS: 1127 (Atlas of Mass Spectral Data, John Wiley & Sons, New
       York)

   from [8]HSDB

   Computed Properties
   Molecular Weight                  170.2072 [g/mol]
   Molecular Formula                 C[12]H[10]O
   XLogP3                            3.2
   H-Bond Donor                      1
   H-Bond Acceptor                   1
   Rotatable Bond Count              1
   Tautomer Count                    2
   Exact Mass                        170.073165
   MonoIsotopic Mass                 170.073165
   Topological Polar Surface Area    20.2
   Heavy Atom Count                  13
   Formal Charge                     0
   Complexity                        141
   Isotope Atom Count                0
   Defined Atom Stereocenter Count   0
   Undefined Atom Stereocenter Count 0
   Defined Bond Stereocenter Count   0
   Undefined Bond Stereocenter Count 0
   Covalently-Bonded Unit Count      1
   Feature 3D Donor Count            1
   Feature 3D Ring Count             2
   Effective Rotor Count             1
   Conformer Sampling RMSD           0.4
   CID Conformer Count               [9]2

References

   1. http://toxnet.nlm.nih.gov/cgi-bin/sis/search/r?dbs+hsdb:@term+@rn+@rel+92-69-3
   2. http://toxnet.nlm.nih.gov/cgi-bin/sis/search/r?dbs+hsdb:@term+@rn+@rel+92-69-3
   3. http://toxnet.nlm.nih.gov/cgi-bin/sis/search/r?dbs+hsdb:@term+@rn+@rel+92-69-3
   4. http://toxnet.nlm.nih.gov/cgi-bin/sis/search/r?dbs+hsdb:@term+@rn+@rel+92-69-3
   5. http://toxnet.nlm.nih.gov/cgi-bin/sis/search/r?dbs+hsdb:@term+@rn+@rel+92-69-3
   6. http://toxnet.nlm.nih.gov/cgi-bin/sis/search/r?dbs+hsdb:@term+@rn+@rel+92-69-3
   7. http://toxnet.nlm.nih.gov/cgi-bin/sis/search/r?dbs+hsdb:@term+@rn+@rel+92-69-3
   8. http://toxnet.nlm.nih.gov/cgi-bin/sis/search/r?dbs+hsdb:@term+@rn+@rel+92-69-3
   9. http://pubchem.ncbi.nlm.nih.gov/vw3d/vw3d.cgi?cid=7103
