15574862
  -OEChem-07051213102D

 71 73  0     1  0  0  0  0  0999 V2000
    6.0010   -2.8455    0.0000 O   0  0  0  0  0  0  0  0  0  0  0  0
    7.7331    0.1545    0.0000 O   0  0  0  0  0  0  0  0  0  0  0  0
    5.1350   -1.3455    0.0000 O   0  0  0  0  0  0  0  0  0  0  0  0
    6.0010   -0.8455    0.0000 O   0  0  0  0  0  0  0  0  0  0  0  0
    9.2331    1.0205    0.0000 O   0  0  0  0  0  0  0  0  0  0  0  0
    4.2690   -3.8455    0.0000 O   0  0  0  0  0  0  0  0  0  0  0  0
    2.9030   -0.4795    0.0000 O   0  0  0  0  0  0  0  0  0  0  0  0
    7.7331    3.6186    0.0000 O   0  0  0  0  0  0  0  0  0  0  0  0
    9.7331    3.6186    0.0000 O   0  0  0  0  0  0  0  0  0  0  0  0
   11.2331    2.7526    0.0000 O   0  0  0  0  0  0  0  0  0  0  0  0
    7.7331   -3.8455    0.0000 N   0  0  0  0  0  0  0  0  0  0  0  0
    9.5991   -1.3455    0.0000 N   0  0  0  0  0  0  0  0  0  0  0  0
    2.5369   -2.8455    0.0000 N   0  0  0  0  0  0  0  0  0  0  0  0
    6.7331    1.8865    0.0000 N   0  0  0  0  0  0  0  0  0  0  0  0
    6.8671   -2.3455    0.0000 C   0  0  2  0  0  0  0  0  0  0  0  0
    7.7331   -0.8455    0.0000 C   0  0  1  0  0  0  0  0  0  0  0  0
    6.8671   -1.3455    0.0000 C   0  0  2  0  0  0  0  0  0  0  0  0
    7.7331   -2.8455    0.0000 C   0  0  1  0  0  0  0  0  0  0  0  0
    8.5991   -1.3455    0.0000 C   0  0  2  0  0  0  0  0  0  0  0  0
    8.5991   -2.3455    0.0000 C   0  0  0  0  0  0  0  0  0  0  0  0
    5.1350   -2.3455    0.0000 C   0  0  1  0  0  0  0  0  0  0  0  0
    3.4030   -2.3455    0.0000 C   0  0  2  0  0  0  0  0  0  0  0  0
    4.2690   -2.8455    0.0000 C   0  0  1  0  0  0  0  0  0  0  0  0
    8.2331    1.0205    0.0000 C   0  0  1  0  0  0  0  0  0  0  0  0
    3.4030   -1.3455    0.0000 C   0  0  2  0  0  0  0  0  0  0  0  0
    7.7331    1.8865    0.0000 C   0  0  1  0  0  0  0  0  0  0  0  0
    8.2331    2.7526    0.0000 C   0  0  2  0  0  0  0  0  0  0  0  0
    4.2690   -0.8455    0.0000 C   0  0  0  0  0  0  0  0  0  0  0  0
    9.2331    2.7526    0.0000 C   0  0  1  0  0  0  0  0  0  0  0  0
    9.7331    1.8865    0.0000 C   0  0  1  0  0  0  0  0  0  0  0  0
    2.4030   -1.3455    0.0000 C   0  0  0  0  0  0  0  0  0  0  0  0
   10.7331    1.8865    0.0000 C   0  0  0  0  0  0  0  0  0  0  0  0
    2.5369   -3.8455    0.0000 C   0  0  0  0  0  0  0  0  0  0  0  0
    6.3301   -2.0355    0.0000 H   0  0  0  0  0  0  0  0  0  0  0  0
    8.2700   -0.5355    0.0000 H   0  0  0  0  0  0  0  0  0  0  0  0
    6.3301   -1.6555    0.0000 H   0  0  0  0  0  0  0  0  0  0  0  0
    8.2700   -3.1555    0.0000 H   0  0  0  0  0  0  0  0  0  0  0  0
    8.7596   -0.7466    0.0000 H   0  0  0  0  0  0  0  0  0  0  0  0
    8.8112   -2.9281    0.0000 H   0  0  0  0  0  0  0  0  0  0  0  0
    9.2097   -2.2379    0.0000 H   0  0  0  0  0  0  0  0  0  0  0  0
    5.1350   -2.9655    0.0000 H   0  0  0  0  0  0  0  0  0  0  0  0
    3.4030   -2.9655    0.0000 H   0  0  0  0  0  0  0  0  0  0  0  0
    4.8059   -3.1555    0.0000 H   0  0  0  0  0  0  0  0  0  0  0  0
    7.6131    1.0205    0.0000 H   0  0  0  0  0  0  0  0  0  0  0  0
    7.4231    1.3496    0.0000 H   0  0  0  0  0  0  0  0  0  0  0  0
    8.5431    3.2895    0.0000 H   0  0  0  0  0  0  0  0  0  0  0  0
    4.6675   -0.3706    0.0000 H   0  0  0  0  0  0  0  0  0  0  0  0
    3.8705   -0.3706    0.0000 H   0  0  0  0  0  0  0  0  0  0  0  0
    9.8531    2.7526    0.0000 H   0  0  0  0  0  0  0  0  0  0  0  0
    8.2700   -4.1555    0.0000 H   0  0  0  0  0  0  0  0  0  0  0  0
    7.1962   -4.1555    0.0000 H   0  0  0  0  0  0  0  0  0  0  0  0
    9.9091   -1.8824    0.0000 H   0  0  0  0  0  0  0  0  0  0  0  0
    9.9091   -0.8086    0.0000 H   0  0  0  0  0  0  0  0  0  0  0  0
   10.0431    1.3496    0.0000 H   0  0  0  0  0  0  0  0  0  0  0  0
    6.0010   -0.2255    0.0000 H   0  0  0  0  0  0  0  0  0  0  0  0
    2.4030   -0.7255    0.0000 H   0  0  0  0  0  0  0  0  0  0  0  0
    1.7830   -1.3455    0.0000 H   0  0  0  0  0  0  0  0  0  0  0  0
    2.4030   -1.9655    0.0000 H   0  0  0  0  0  0  0  0  0  0  0  0
    2.0000   -2.5355    0.0000 H   0  0  0  0  0  0  0  0  0  0  0  0
    6.4231    2.4235    0.0000 H   0  0  0  0  0  0  0  0  0  0  0  0
    6.4231    1.3496    0.0000 H   0  0  0  0  0  0  0  0  0  0  0  0
   10.6254    1.2760    0.0000 H   0  0  0  0  0  0  0  0  0  0  0  0
   11.3157    1.6745    0.0000 H   0  0  0  0  0  0  0  0  0  0  0  0
    4.8059   -4.1555    0.0000 H   0  0  0  0  0  0  0  0  0  0  0  0
    3.2130    0.0574    0.0000 H   0  0  0  0  0  0  0  0  0  0  0  0
    8.0431    4.1555    0.0000 H   0  0  0  0  0  0  0  0  0  0  0  0
    1.9169   -3.8455    0.0000 H   0  0  0  0  0  0  0  0  0  0  0  0
    2.5369   -4.4655    0.0000 H   0  0  0  0  0  0  0  0  0  0  0  0
    3.1569   -3.8455    0.0000 H   0  0  0  0  0  0  0  0  0  0  0  0
    9.4231    4.1555    0.0000 H   0  0  0  0  0  0  0  0  0  0  0  0
   11.8531    2.7526    0.0000 H   0  0  0  0  0  0  0  0  0  0  0  0
 15  1  1  6  0  0  0
 21  1  1  6  0  0  0
 16  2  1  6  0  0  0
 24  2  1  6  0  0  0
  3 21  1  0  0  0  0
  3 28  1  0  0  0  0
 17  4  1  1  0  0  0
  4 55  1  0  0  0  0
  5 24  1  0  0  0  0
  5 30  1  0  0  0  0
 23  6  1  6  0  0  0
  6 64  1  0  0  0  0
 25  7  1  1  0  0  0
  7 65  1  0  0  0  0
 27  8  1  1  0  0  0
  8 66  1  0  0  0  0
 29  9  1  6  0  0  0
  9 70  1  0  0  0  0
 10 32  1  0  0  0  0
 10 71  1  0  0  0  0
 18 11  1  1  0  0  0
 11 50  1  0  0  0  0
 11 51  1  0  0  0  0
 19 12  1  1  0  0  0
 12 52  1  0  0  0  0
 12 53  1  0  0  0  0
 22 13  1  1  0  0  0
 13 33  1  0  0  0  0
 13 59  1  0  0  0  0
 26 14  1  6  0  0  0
 14 60  1  0  0  0  0
 14 61  1  0  0  0  0
 15 17  1  0  0  0  0
 15 18  1  0  0  0  0
 15 34  1  0  0  0  0
 16 17  1  0  0  0  0
 16 19  1  0  0  0  0
 16 35  1  0  0  0  0
 17 36  1  0  0  0  0
 18 20  1  0  0  0  0
 18 37  1  0  0  0  0
 19 20  1  0  0  0  0
 19 38  1  0  0  0  0
 20 39  1  0  0  0  0
 20 40  1  0  0  0  0
 21 23  1  0  0  0  0
 21 41  1  0  0  0  0
 22 23  1  0  0  0  0
 22 25  1  0  0  0  0
 22 42  1  0  0  0  0
 23 43  1  0  0  0  0
 24 26  1  0  0  0  0
 24 44  1  0  0  0  0
 25 28  1  0  0  0  0
 25 31  1  0  0  0  0
 26 27  1  0  0  0  0
 26 45  1  0  0  0  0
 27 29  1  0  0  0  0
 27 46  1  0  0  0  0
 28 47  1  0  0  0  0
 28 48  1  0  0  0  0
 29 30  1  0  0  0  0
 29 49  1  0  0  0  0
 30 32  1  1  0  0  0
 30 54  1  0  0  0  0
 31 56  1  0  0  0  0
 31 57  1  0  0  0  0
 31 58  1  0  0  0  0
 32 62  1  0  0  0  0
 32 63  1  0  0  0  0
 33 67  1  0  0  0  0
 33 68  1  0  0  0  0
 33 69  1  0  0  0  0
M  END
> <PUBCHEM_COMPOUND_CID>
15574862

> <PUBCHEM_COMPOUND_CANONICALIZED>
1

> <PUBCHEM_CACTVS_COMPLEXITY>
652

> <PUBCHEM_CACTVS_HBOND_ACCEPTOR>
14

> <PUBCHEM_CACTVS_HBOND_DONOR>
10

> <PUBCHEM_CACTVS_ROTATABLE_BOND>
6

> <PUBCHEM_CACTVS_SUBSKEYS>
AAADcfB7vAAAAAAAAAAAAAAAAAAAAAAAAAA0SIAAAAAAAAAAAAAAHgAQCAAADHzxgAcCCALABgAAAAAAAAAAAAAAAAAAAIAIAAATEAIAwAAnQAAHEAAXAAHwcA0MAAAAAAAAAAAAgAAUCACgAAAAAAAAAA==

> <PUBCHEM_IUPAC_OPENEYE_NAME>
(2R,3R,4R,5R)-2-[(1S,2S,3R,4S,6R)-4,6-diamino-3-[(2S,3R,4R,5S,6R)-3-amino-4,5-dihydroxy-6-(hydroxymethyl)tetrahydropyran-2-yl]oxy-2-hydroxy-cyclohexoxy]-5-methyl-4-(methylamino)tetrahydropyran-3,5-diol

> <PUBCHEM_IUPAC_CAS_NAME>
(2R,3R,4R,5R)-2-[(1S,2S,3R,4S,6R)-4,6-diamino-3-[[(2S,3R,4R,5S,6R)-3-amino-4,5-dihydroxy-6-(hydroxymethyl)-2-oxanyl]oxy]-2-hydroxycyclohexyl]oxy-5-methyl-4-(methylamino)oxane-3,5-diol

> <PUBCHEM_IUPAC_NAME>
(2R,3R,4R,5R)-2-[(1S,2S,3R,4S,6R)-4,6-diamino-3-[(2S,3R,4R,5S,6R)-3-amino-4,5-dihydroxy-6-(hydroxymethyl)oxan-2-yl]oxy-2-hydroxycyclohexyl]oxy-5-methyl-4-(methylamino)oxane-3,5-diol

> <PUBCHEM_IUPAC_SYSTEMATIC_NAME>
(2R,3R,4R,5R)-2-[(1S,2S,3R,4S,6R)-4,6-bis(azanyl)-3-[(2S,3R,4R,5S,6R)-3-azanyl-6-(hydroxymethyl)-4,5-bis(oxidanyl)oxan-2-yl]oxy-2-oxidanyl-cyclohexyl]oxy-5-methyl-4-(methylamino)oxane-3,5-diol

> <PUBCHEM_IUPAC_TRADITIONAL_NAME>
(2R,3R,4R,5R)-2-[(1S,2S,3R,4S,6R)-4,6-diamino-3-[(2S,3R,4R,5S,6R)-3-amino-4,5-dihydroxy-6-methylol-tetrahydropyran-2-yl]oxy-2-hydroxy-cyclohexoxy]-5-methyl-4-(methylamino)tetrahydropyran-3,5-diol

> <PUBCHEM_IUPAC_INCHI>
InChI=1S/C19H38N4O10/c1-19(29)5-30-18(13(28)16(19)23-2)33-15-7(21)3-6(20)14(12(15)27)32-17-9(22)11(26)10(25)8(4-24)31-17/h6-18,23-29H,3-5,20-22H2,1-2H3/t6-,7+,8+,9+,10+,11+,12-,13+,14+,15-,16+,17+,18+,19-/m0/s1

> <PUBCHEM_IUPAC_INCHIKEY>
HFLKNINDVFJPQT-ZFAMMYHGSA-N

> <PUBCHEM_XLOGP3_AA>
-6.2

> <PUBCHEM_EXACT_MASS>
482.258793

> <PUBCHEM_MOLECULAR_FORMULA>
C19H38N4O10

> <PUBCHEM_MOLECULAR_WEIGHT>
482.52582

> <PUBCHEM_OPENEYE_CAN_SMILES>
CC1(COC(C(C1NC)O)OC2C(CC(C(C2O)OC3C(C(C(C(O3)CO)O)O)N)N)N)O

> <PUBCHEM_OPENEYE_ISO_SMILES>
C[C@@]1(CO[C@@H]([C@@H]([C@H]1NC)O)O[C@H]2[C@@H](C[C@@H]([C@H]([C@@H]2O)O[C@@H]3[C@@H]([C@H]([C@@H]([C@H](O3)CO)O)O)N)N)N)O

> <PUBCHEM_CACTVS_TPSA>
248

> <PUBCHEM_MONOISOTOPIC_WEIGHT>
482.258793

> <PUBCHEM_TOTAL_CHARGE>
0

> <PUBCHEM_HEAVY_ATOM_COUNT>
33

> <PUBCHEM_ATOM_DEF_STEREO_COUNT>
14

> <PUBCHEM_ATOM_UDEF_STEREO_COUNT>
0

> <PUBCHEM_BOND_DEF_STEREO_COUNT>
0

> <PUBCHEM_BOND_UDEF_STEREO_COUNT>
0

> <PUBCHEM_ISOTOPIC_ATOM_COUNT>
0

> <PUBCHEM_COMPONENT_COUNT>
1

> <PUBCHEM_CACTVS_TAUTO_COUNT>
1

> <PUBCHEM_COORDINATE_TYPE>
1
5
255

> <PUBCHEM_BONDANNOTATIONS>
15  1  6
21  1  6
18  11  5
19  12  5
22  13  5
26  14  6
16  2  6
24  2  6
30  32  5
17  4  5
23  6  6
25  7  5
27  8  5
29  9  6

$$$$

