   Color/Form

     * Slightly yellowish liquid
     * Slightly reddish liquid
     * Clear, slightly brown liquid

   from [1]HSDB

   Odor
        Mercaptan-like odor
   from [2]HSDB

   Boiling Point
        69 deg C @ 0.01 mm Hg
   from [3]HSDB

   Melting Point
        -29 deg C
   from [4]HSDB

   Corrosivity
        Non-corrosive to metals.
   from [5]HSDB

   Density/Specific Gravity
        1.105 g/cu cm @ 24 deg C
   from [6]HSDB

   Octanol/Water Partition Coefficient
        log Kow = 4.48
   from [7]HSDB

   Solubilities

     * Readily soluble in most organic solvents: aromatic hydrocarbons,
       chlorinated hydrocarbons, alcohols, acetone
     * In water, 5.07 mg/l @ 25 deg C

   from [8]HSDB

   Spectral Properties

     * Index of refraction: 1.52 @ 23 deg C/D
     * Intense mass spectral peaks: 57 m/z (100%), 41 m/z (44%), 103 m/z
       (35%), 97 m/z (31%)

   from [9]HSDB

   Vapor Pressure
        0.00032 mm Hg @ 20-25 deg C
   from [10]HSDB

   Other Chemical/Physical Properties
        Stable for more than 2 years at room temperature; decomposes on
   prolonged heating above 120 deg C; hydrolyzed by strong alkalis (pH>9)
   and acids (pH<2)
   from [11]HSDB

   Computed Properties
   Molecular Weight                  288.430602 [g/mol]
   Molecular Formula                 C[9]H[21]O[2]PS[3]
   XLogP3                            4.5
   H-Bond Donor                      0
   H-Bond Acceptor                   5
   Rotatable Bond Count              8
   Exact Mass                        288.04413
   MonoIsotopic Mass                 288.04413
   Topological Polar Surface Area    101
   Heavy Atom Count                  15
   Formal Charge                     0
   Complexity                        206
   Isotope Atom Count                0
   Defined Atom Stereocenter Count   0
   Undefined Atom Stereocenter Count 0
   Defined Bond Stereocenter Count   0
   Undefined Bond Stereocenter Count 0
   Covalently-Bonded Unit Count      1
   Feature 3D Hydrophobe Count       1
   Effective Rotor Count             8
   Conformer Sampling RMSD           0.8
   CID Conformer Count               [12]37

References

   1. http://toxnet.nlm.nih.gov/cgi-bin/sis/search/r?dbs+hsdb:@term+@rn+@rel+13071-79-9
   2. http://toxnet.nlm.nih.gov/cgi-bin/sis/search/r?dbs+hsdb:@term+@rn+@rel+13071-79-9
   3. http://toxnet.nlm.nih.gov/cgi-bin/sis/search/r?dbs+hsdb:@term+@rn+@rel+13071-79-9
   4. http://toxnet.nlm.nih.gov/cgi-bin/sis/search/r?dbs+hsdb:@term+@rn+@rel+13071-79-9
   5. http://toxnet.nlm.nih.gov/cgi-bin/sis/search/r?dbs+hsdb:@term+@rn+@rel+13071-79-9
   6. http://toxnet.nlm.nih.gov/cgi-bin/sis/search/r?dbs+hsdb:@term+@rn+@rel+13071-79-9
   7. http://toxnet.nlm.nih.gov/cgi-bin/sis/search/r?dbs+hsdb:@term+@rn+@rel+13071-79-9
   8. http://toxnet.nlm.nih.gov/cgi-bin/sis/search/r?dbs+hsdb:@term+@rn+@rel+13071-79-9
   9. http://toxnet.nlm.nih.gov/cgi-bin/sis/search/r?dbs+hsdb:@term+@rn+@rel+13071-79-9
  10. http://toxnet.nlm.nih.gov/cgi-bin/sis/search/r?dbs+hsdb:@term+@rn+@rel+13071-79-9
  11. http://toxnet.nlm.nih.gov/cgi-bin/sis/search/r?dbs+hsdb:@term+@rn+@rel+13071-79-9
  12. http://pubchem.ncbi.nlm.nih.gov/vw3d/vw3d.cgi?cid=25670
