   Color/Form

     * Colorless liquid
     * Clear liquid

   from [1]HSDB

   Odor

     * Acrid penetrating odor
     * Sour, pungent, hot plastic odor

   from [2]HSDB

   Boiling Point
        99.4 deg C
   from [3]HSDB

   Melting Point
        -71.2 deg C
   from [4]HSDB

   Critical Temperature and Pressure
        Critical temperature: 534 deg F = 279 deg C = 552 K; critical
   pressure: 544 psi= 37 atm
   from [5]HSDB

   Density/Specific Gravity
        0.9234 g/cu cm at 20 deg C
   from [6]HSDB

   Heat of Combustion
        655.49 kcal/mol
   from [7]HSDB

   Heat of Vaporization
        8.27 kcal/mol
   from [8]HSDB

   Octanol/Water Partition Coefficient
        log Kow = 1.32
   from [9]HSDB

   Solubilities

     * Slightly soluble in dimethyl sulfoxide; soluble in chloroform;
       miscible in ethanol, ethyl ether
     * Soluble in alcohol and ether
     * 2% (wt/vol) in water at 20 deg C
     * 1.5 parts by wt (of the formula wt)/100 parts by wt of water
     * In water, 15,000 mg/L at 25 deg C (1.50 g/100 g)

   from [10]HSDB

   Spectral Properties

     * Index of refraction: 1.4068 at 20 deg C/D
     * MAX ABSORPTION (ALCOHOL): 208 NM (LOG E= 3.84)
     * Sadtler Ref Number: 29702 (IR, grating)
     * Ethyl Acrylate, 99%, exhibits its two strongest infra red
       absorption bands at wavelengths of 5.8 and 8.3 microns.
     * IR: 4305 (Coblentz Society Spectral Collection)
     * 1H NMR: 7951 (Sadtler Research Laboratories Spectral Collection)
     * MASS: 19846 (NIST/EPA/MSDC Mass SPectral Database, 1990 versoin);
       1265 (Atlas of Mass Spectral Data, John Wiley & Sons, New York)

   from [11]HSDB

   Surface Tension
        0.025 DYNES/CM= 0.025 N/M @ 20 DEG C
   from [12]HSDB

   Vapor Density
        3.45 (Air = 1)
   from [13]HSDB

   Vapor Pressure
        38.6 mm Hg at 25 deg C
   from [14]HSDB

   Relative Evaporation Rate
        3.3 (butyl acetate= 1)
   from [15]HSDB

   Other Chemical/Physical Properties

     * Polymerizes on standing; polymerization process speeded up by heat,
       light, and peroxides. If pure, the monomer can be stored below +10
       deg C without polymerization.
     * Specific heat at -60 deg C: 0.442 cal/g/deg C; MP: 20 deg C at 39.2
       mm Hg (polymerizes on distillation); azeotropes: 45% water = BP 81
       deg C; 56.8% ethanol = BP 76 deg C
     * Conversion factor: 4.09 mg/cu m is equiv to 1 ppm
     * Ratio of specific heats of vapor: 1.080; latent heat of
       vaporization: 149 BTU/lb= 82.9 cal/g= 3.47X10+5 J/kg; liquid-water
       interfacial tension: (est) 40 dynes/cm= 0.04 N/m at 20 deg C
     * Saturation concentration /in air/: 158 g/cu m at 20 deg C
     * Saturated air contains 38,500 ppm by volume of vapor at 20 deg C,
       760 mm Hg
     * Liquid heat capacity = 0.453 BTU/lb-F at 70 deg F; Liquid thermal
       conductivity = 10149 BTU-in/hr-sq ft-F at 70 deg C; Saturated vapor
       density = 0.01011 lb/cu ft at 70 deg F; Ideal gas heat capacity =
       0.272 BTU/lb-F at 75 deg F
     * Critical volume 320 cu cm/mole
     * Bulk density: 7.6 lb/gal at 20 deg C
     * Heat of polymerization: -335 BTU/lb= -186 cal/g= -7.79X10+5 J/kg
     * Saturation concn: /in air/ 258 g/cu m at 30 deg C
     * Heat of evaporation: 347 J/g; specific heat: 1.97 J/g-K
     * React readily with electrophilic, free-radical, and nucleophilic
       agent /Acrylic acid & esters/
     * Polymerizes exothermically in the presence of light, heat, and
       peroxides above 10 deg C, unless inhibited.
     * The monomer polymerizes to a transparent, elastic substance that is
       practically odorless and insoluble in conventional solvents.
     * Transparent, elastic substance. Practically no odor. Little
       adhesive power. Resists the usual solvents. /Polymer/
     * Henry's Law constant = 3.4X10-4 atm-cu m/mol at 25 deg C (est)
     * Hydroxyl radical reaction rate constant = 1.6X10-11 cu cm/molec-sec
       at 25 deg C (est)

   from [16]HSDB

   Computed Properties
   Molecular Weight                  100.11582 [g/mol]
   Molecular Formula                 C[5]H[8]O[2]
   XLogP3                            1.3
   H-Bond Donor                      0
   H-Bond Acceptor                   2
   Rotatable Bond Count              3
   Exact Mass                        100.052429
   MonoIsotopic Mass                 100.052429
   Topological Polar Surface Area    26.3
   Heavy Atom Count                  7
   Formal Charge                     0
   Complexity                        76.1
   Isotope Atom Count                0
   Defined Atom Stereocenter Count   0
   Undefined Atom Stereocenter Count 0
   Defined Bond Stereocenter Count   0
   Undefined Bond Stereocenter Count 0
   Covalently-Bonded Unit Count      1
   Feature 3D Acceptor Count         1
   Feature 3D Hydrophobe Count       1
   Effective Rotor Count             3
   Conformer Sampling RMSD           0.4
   CID Conformer Count               [17]36

References

   1. http://toxnet.nlm.nih.gov/cgi-bin/sis/search/r?dbs+hsdb:@term+@rn+@rel+140-88-5
   2. http://toxnet.nlm.nih.gov/cgi-bin/sis/search/r?dbs+hsdb:@term+@rn+@rel+140-88-5
   3. http://toxnet.nlm.nih.gov/cgi-bin/sis/search/r?dbs+hsdb:@term+@rn+@rel+140-88-5
   4. http://toxnet.nlm.nih.gov/cgi-bin/sis/search/r?dbs+hsdb:@term+@rn+@rel+140-88-5
   5. http://toxnet.nlm.nih.gov/cgi-bin/sis/search/r?dbs+hsdb:@term+@rn+@rel+140-88-5
   6. http://toxnet.nlm.nih.gov/cgi-bin/sis/search/r?dbs+hsdb:@term+@rn+@rel+140-88-5
   7. http://toxnet.nlm.nih.gov/cgi-bin/sis/search/r?dbs+hsdb:@term+@rn+@rel+140-88-5
   8. http://toxnet.nlm.nih.gov/cgi-bin/sis/search/r?dbs+hsdb:@term+@rn+@rel+140-88-5
   9. http://toxnet.nlm.nih.gov/cgi-bin/sis/search/r?dbs+hsdb:@term+@rn+@rel+140-88-5
  10. http://toxnet.nlm.nih.gov/cgi-bin/sis/search/r?dbs+hsdb:@term+@rn+@rel+140-88-5
  11. http://toxnet.nlm.nih.gov/cgi-bin/sis/search/r?dbs+hsdb:@term+@rn+@rel+140-88-5
  12. http://toxnet.nlm.nih.gov/cgi-bin/sis/search/r?dbs+hsdb:@term+@rn+@rel+140-88-5
  13. http://toxnet.nlm.nih.gov/cgi-bin/sis/search/r?dbs+hsdb:@term+@rn+@rel+140-88-5
  14. http://toxnet.nlm.nih.gov/cgi-bin/sis/search/r?dbs+hsdb:@term+@rn+@rel+140-88-5
  15. http://toxnet.nlm.nih.gov/cgi-bin/sis/search/r?dbs+hsdb:@term+@rn+@rel+140-88-5
  16. http://toxnet.nlm.nih.gov/cgi-bin/sis/search/r?dbs+hsdb:@term+@rn+@rel+140-88-5
  17. http://pubchem.ncbi.nlm.nih.gov/vw3d/vw3d.cgi?cid=8821
