   Color/Form

     * Colorless, oily liquid
     * Clear, colorless, refractive, mobile liquid.

   from [1]HSDB

   Odor

     * SUFFOCATING ODOR OF FUSEL OIL
     * SLIGHTLY SUFFOCATING; NONRESIDUAL ALCOHOLIC
     * Sweet, musty odor

   from [2]HSDB

   Taste
        SWEET WHISKEY TASTE
   from [3]HSDB

   Boiling Point
        108 deg C
   from [4]HSDB

   Melting Point
        -108 deg C
   from [5]HSDB

   Corrosivity
        Isobutyl alcohol will attack some forms of plastics, rubber, and
   coatings.
   from [6]HSDB

   Critical Temperature and Pressure
        Critical temperature: 274.63 deg C; critical pressure: 4,300 kPa
   from [7]HSDB

   Density/Specific Gravity
        0.8018 at 24 deg C
   from [8]HSDB

   Heat of Combustion
        638.2 kg cal/g mol wt at 20 deg C
   from [9]HSDB

   Heat of Vaporization
        10,936.0 g cal/g mol
   from [10]HSDB

   Octanol/Water Partition Coefficient
        log Kow= 0.76
   from [11]HSDB

   Solubilities

     * 10% in water @ 20 deg C, 10% in acetone, 10% in ether, 10% in
       alcohol.
     * Miscible with alcohol and ether
     * In water, 8.5X10+4 mg/l @ 25 deg C [Valvani SC et al; J Pharm Sci
       70: 502-7 (1981)] [12]PubMed Abstract

   from [13]HSDB

   Spectral Properties

     * Index of refraction: 1.3955 @ 20 deg C/D
     * Intense mass spectral peaks: 43 m/z
     * IR: SADG 13 (Sadtler Research Laboratories IR Grating Collection)
     * NMR: SAD 7219 (Sadtler Research Laboratories Spectral Collection)
     * MS: NIST 53417 (NIST/EPA/MCDC Mass Spectral Database 1990 version)
     * Dielectric constant: 26 at -34 deg C, 17.93 at 25 deg C; dipole
       moment: 2.96 debye in liquid at 30 deg C, 1.78 debye in benzene at
       20 deg C

   from [14]HSDB

   Surface Tension
        23.0 dynes/cm in contact with vapor at 20 deg C
   from [15]HSDB

   Vapor Density
        2.56 (Air = 1)
   from [16]HSDB

   Vapor Pressure
        10.4 mm Hg @ 25 deg C
   from [17]HSDB

   Relative Evaporation Rate
        0.82 (butyl acetate= 1)
   from [18]HSDB

   Viscosity
        4.703 cP @ 15 deg C
   from [19]HSDB

   Other Chemical/Physical Properties

     * Latent heat of vaporization= 138 cal/g= 248 BTU/lb= 5.78x10+5 J/kg;
       Heat of solution: (est) -9 BTU/lb= -5 cal/g= -0.2X10+5 J/kg
     * It may react with aluminum at high temperatures.
     * Liquid heat capacity: 0.554 BTU/lb-F at 70 deg F; Liquid thermal
       conductivity: 0.911 Btu-inch/hr-sq ft-F at 75 deg F; Saturated
       vapor density: 0.00218 lb/cu ft at 70 deg F; Ideal gas heat
       capacity: 0.392 BTU/lb-F at 75 deg F
     * Ionization potential: 10.09 eV
     * Enthalpy of formation: -67.69 kcal/mole (gas); Gibbs (free) energy
       of formation: -39.99 kcal/mole (gas); Entropy: 85.81 cal/deg-mole
       (gas); Heat capacity: 26.6 cal/deg-mole (gas)
     * Heat of sublimation: 12.04 kcal/mole at 298 K
     * Electrical conductivity: 8X10-8/ohm.cm
     * Coefficient of cubical expansion: 0.95X10-3 at 10-30 deg C; wt/gal:
       6.68 lb at 20 deg C
     * Forms binary azeotropes with benzene, 1-bromo-3-methylbutane, butyl
       formate, chlorobenzene, 1-chloro-3-methylbutane, cyclohexane,
       cyclohexene, 1,3-dimethylcyclohexane, ethyl isobutyrate, ethyl
       propionate, fluorobenzene, heptane, hexane, isobutyl acetate,
       isobutyl formate, isobutyl vinyl ether, isopropyl sulfide, methyl
       butyrate, methylcyclohexane, methylcyclopentane, methyl
       isovalerate, 4-methyl-2-pentanone, 2-pentanone, 3-pentanone,
       pinacolone, propyl acetate, propyl ether, toluene,
       2,2,4-trimethylpentane
     * Forms ternary azeotropes with water, isobutyl acetate; water,
       isobutyl chloroacetate; water, isobutyl formate
     * Freezing point: -108 deg F
     * Henry's Law constant = 9.78X10-6 atm-cu m/mole @ 25 deg C

   from [20]HSDB

   Computed Properties
   Molecular Weight                  74.1216 [g/mol]
   Molecular Formula                 C[4]H[10]O
   XLogP3                            0.8
   H-Bond Donor                      1
   H-Bond Acceptor                   1
   Rotatable Bond Count              1
   Exact Mass                        74.073165
   MonoIsotopic Mass                 74.073165
   Topological Polar Surface Area    20.2
   Heavy Atom Count                  5
   Formal Charge                     0
   Complexity                        17.6
   Isotope Atom Count                0
   Defined Atom Stereocenter Count   0
   Undefined Atom Stereocenter Count 0
   Defined Bond Stereocenter Count   0
   Undefined Bond Stereocenter Count 0
   Covalently-Bonded Unit Count      1
   Feature 3D Acceptor Count         1
   Feature 3D Donor Count            1
   Feature 3D Hydrophobe Count       1
   Effective Rotor Count             1
   Conformer Sampling RMSD           0.4
   CID Conformer Count               [21]1

References

   1. http://toxnet.nlm.nih.gov/cgi-bin/sis/search/r?dbs+hsdb:@term+@rn+@rel+78-83-1
   2. http://toxnet.nlm.nih.gov/cgi-bin/sis/search/r?dbs+hsdb:@term+@rn+@rel+78-83-1
   3. http://toxnet.nlm.nih.gov/cgi-bin/sis/search/r?dbs+hsdb:@term+@rn+@rel+78-83-1
   4. http://toxnet.nlm.nih.gov/cgi-bin/sis/search/r?dbs+hsdb:@term+@rn+@rel+78-83-1
   5. http://toxnet.nlm.nih.gov/cgi-bin/sis/search/r?dbs+hsdb:@term+@rn+@rel+78-83-1
   6. http://toxnet.nlm.nih.gov/cgi-bin/sis/search/r?dbs+hsdb:@term+@rn+@rel+78-83-1
   7. http://toxnet.nlm.nih.gov/cgi-bin/sis/search/r?dbs+hsdb:@term+@rn+@rel+78-83-1
   8. http://toxnet.nlm.nih.gov/cgi-bin/sis/search/r?dbs+hsdb:@term+@rn+@rel+78-83-1
   9. http://toxnet.nlm.nih.gov/cgi-bin/sis/search/r?dbs+hsdb:@term+@rn+@rel+78-83-1
  10. http://toxnet.nlm.nih.gov/cgi-bin/sis/search/r?dbs+hsdb:@term+@rn+@rel+78-83-1
  11. http://toxnet.nlm.nih.gov/cgi-bin/sis/search/r?dbs+hsdb:@term+@rn+@rel+78-83-1
  12. http://www.ncbi.nlm.nih.gov/entrez/query.fcgi?cmd=Retrieve&db=pubmed&dopt=Abstract&list_uids=7241352
  13. http://toxnet.nlm.nih.gov/cgi-bin/sis/search/r?dbs+hsdb:@term+@rn+@rel+78-83-1
  14. http://toxnet.nlm.nih.gov/cgi-bin/sis/search/r?dbs+hsdb:@term+@rn+@rel+78-83-1
  15. http://toxnet.nlm.nih.gov/cgi-bin/sis/search/r?dbs+hsdb:@term+@rn+@rel+78-83-1
  16. http://toxnet.nlm.nih.gov/cgi-bin/sis/search/r?dbs+hsdb:@term+@rn+@rel+78-83-1
  17. http://toxnet.nlm.nih.gov/cgi-bin/sis/search/r?dbs+hsdb:@term+@rn+@rel+78-83-1
  18. http://toxnet.nlm.nih.gov/cgi-bin/sis/search/r?dbs+hsdb:@term+@rn+@rel+78-83-1
  19. http://toxnet.nlm.nih.gov/cgi-bin/sis/search/r?dbs+hsdb:@term+@rn+@rel+78-83-1
  20. http://toxnet.nlm.nih.gov/cgi-bin/sis/search/r?dbs+hsdb:@term+@rn+@rel+78-83-1
  21. http://pubchem.ncbi.nlm.nih.gov/vw3d/vw3d.cgi?cid=6560
