12597
  -OEChem-06261207082D

 20 21  0     1  0  0  0  0  0999 V2000
    2.9155    0.8120    0.0000 O   0  0  0  0  0  0  0  0  0  0  0  0
    4.8127   -0.8018    0.0000 O   0  0  0  0  0  0  0  0  0  0  0  0
    2.6064   -1.7571    0.0000 O   0  0  0  0  0  0  0  0  0  0  0  0
    5.1234    1.7582    0.0000 O   0  0  0  0  0  0  0  0  0  0  0  0
    3.8665   -0.4971    0.0000 C   0  0  1  0  0  0  0  0  0  0  0  0
    3.8665    0.5029    0.0000 C   0  0  1  0  0  0  0  0  0  0  0  0
    2.9155   -0.8061    0.0000 C   0  0  2  0  0  0  0  0  0  0  0  0
    4.8127    0.8077    0.0000 C   0  0  1  0  0  0  0  0  0  0  0  0
    2.3277    0.0029    0.0000 C   0  0  0  0  0  0  0  0  0  0  0  0
    5.3964    0.0029    0.0000 C   0  0  0  0  0  0  0  0  0  0  0  0
    3.8676   -1.3471    0.0000 H   0  0  0  0  0  0  0  0  0  0  0  0
    3.8676    1.3529    0.0000 H   0  0  0  0  0  0  0  0  0  0  0  0
    2.3031   -0.9031    0.0000 H   0  0  0  0  0  0  0  0  0  0  0  0
    5.4252    0.9039    0.0000 H   0  0  0  0  0  0  0  0  0  0  0  0
    1.8669    0.4178    0.0000 H   0  0  0  0  0  0  0  0  0  0  0  0
    1.8669   -0.4119    0.0000 H   0  0  0  0  0  0  0  0  0  0  0  0
    5.8572   -0.4118    0.0000 H   0  0  0  0  0  0  0  0  0  0  0  0
    5.8572    0.4177    0.0000 H   0  0  0  0  0  0  0  0  0  0  0  0
    2.0000   -1.8860    0.0000 H   0  0  0  0  0  0  0  0  0  0  0  0
    5.7301    1.8860    0.0000 H   0  0  0  0  0  0  0  0  0  0  0  0
  1  6  1  0  0  0  0
  1  9  1  0  0  0  0
  2  5  1  0  0  0  0
  2 10  1  0  0  0  0
  7  3  1  1  0  0  0
  3 19  1  0  0  0  0
  8  4  1  6  0  0  0
  4 20  1  0  0  0  0
  5  6  1  0  0  0  0
  5  7  1  0  0  0  0
  5 11  1  1  0  0  0
  6  8  1  0  0  0  0
  6 12  1  1  0  0  0
  7  9  1  0  0  0  0
  7 13  1  0  0  0  0
  8 10  1  0  0  0  0
  8 14  1  0  0  0  0
  9 15  1  0  0  0  0
  9 16  1  0  0  0  0
 10 17  1  0  0  0  0
 10 18  1  0  0  0  0
M  END
> <PUBCHEM_COMPOUND_CID>
12597

> <PUBCHEM_COMPOUND_CANONICALIZED>
1

> <PUBCHEM_CACTVS_COMPLEXITY>
122

> <PUBCHEM_CACTVS_HBOND_ACCEPTOR>
4

> <PUBCHEM_CACTVS_HBOND_DONOR>
2

> <PUBCHEM_CACTVS_ROTATABLE_BOND>
0

> <PUBCHEM_CACTVS_SUBSKEYS>
AAADccBgOAAAAAAAAAAAAAAAAAAAASJAAAAAAAAAAAASAAAAAAAAGgAACAAACBSggAIAAAAABgAAAAAAAAAAAAAAAAAAAAAAAAABEAIAAAACQAAFAAADAAHAYAQAAAAAAAAAAAAAAAAAAAAAAAAAAAAAAA==

> <PUBCHEM_IUPAC_OPENEYE_NAME>
(3S,3aR,6R,6aR)-2,3,3a,5,6,6a-hexahydrofuro[3,2-b]furan-3,6-diol

> <PUBCHEM_IUPAC_CAS_NAME>
(3S,3aR,6R,6aR)-2,3,3a,5,6,6a-hexahydrofuro[3,2-b]furan-3,6-diol

> <PUBCHEM_IUPAC_NAME>
(3S,3aR,6R,6aR)-2,3,3a,5,6,6a-hexahydrofuro[3,2-b]furan-3,6-diol

> <PUBCHEM_IUPAC_SYSTEMATIC_NAME>
(3S,3aR,6R,6aR)-2,3,3a,5,6,6a-hexahydrofuro[3,2-b]furan-3,6-diol

> <PUBCHEM_IUPAC_TRADITIONAL_NAME>
(3S,3aR,6R,6aR)-2,3,3a,5,6,6a-hexahydrofuro[3,2-b]furan-3,6-diol

> <PUBCHEM_IUPAC_INCHI>
InChI=1S/C6H10O4/c7-3-1-9-6-4(8)2-10-5(3)6/h3-8H,1-2H2/t3-,4+,5-,6-/m1/s1

> <PUBCHEM_IUPAC_INCHIKEY>
KLDXJTOLSGUMSJ-JGWLITMVSA-N

> <PUBCHEM_XLOGP3>
-1.4

> <PUBCHEM_EXACT_MASS>
146.057909

> <PUBCHEM_MOLECULAR_FORMULA>
C6H10O4

> <PUBCHEM_MOLECULAR_WEIGHT>
146.1412

> <PUBCHEM_OPENEYE_CAN_SMILES>
C1C(C2C(O1)C(CO2)O)O

> <PUBCHEM_OPENEYE_ISO_SMILES>
C1[C@H]([C@@H]2[C@H](O1)[C@H](CO2)O)O

> <PUBCHEM_CACTVS_TPSA>
58.9

> <PUBCHEM_MONOISOTOPIC_WEIGHT>
146.057909

> <PUBCHEM_TOTAL_CHARGE>
0

> <PUBCHEM_HEAVY_ATOM_COUNT>
10

> <PUBCHEM_ATOM_DEF_STEREO_COUNT>
4

> <PUBCHEM_ATOM_UDEF_STEREO_COUNT>
0

> <PUBCHEM_BOND_DEF_STEREO_COUNT>
0

> <PUBCHEM_BOND_UDEF_STEREO_COUNT>
0

> <PUBCHEM_ISOTOPIC_ATOM_COUNT>
0

> <PUBCHEM_COMPONENT_COUNT>
1

> <PUBCHEM_CACTVS_TAUTO_COUNT>
1

> <PUBCHEM_COORDINATE_TYPE>
1
5
255

> <PUBCHEM_BONDANNOTATIONS>
7  3  5
8  4  6
5  11  5
6  12  5

$$$$

