46174050
  -OEChem-07051213112D

 39 40  0     1  0  0  0  0  0999 V2000
    3.4600   -0.4987    0.0000 O   0  0  0  0  0  0  0  0  0  0  0  0
    2.5369   -2.0865    0.0000 O   0  0  0  0  0  0  0  0  0  0  0  0
    6.0010   -4.0865    0.0000 O   0  0  0  0  0  0  0  0  0  0  0  0
    4.2690   -1.0865    0.0000 C   0  0  3  0  0  0  0  0  0  0  0  0
    4.7690    0.4524    0.0000 C   0  0  0  0  0  0  0  0  0  0  0  0
    3.7690    0.4524    0.0000 C   0  0  0  0  0  0  0  0  0  0  0  0
    5.3568    1.2614    0.0000 C   0  0  0  0  0  0  0  0  0  0  0  0
    5.0780   -0.4987    0.0000 C   0  0  0  0  0  0  0  0  0  0  0  0
    4.2690   -2.0865    0.0000 C   0  0  0  0  0  0  0  0  0  0  0  0
    4.9500    2.1749    0.0000 C   0  0  0  0  0  0  0  0  0  0  0  0
    3.4030   -2.5865    0.0000 C   0  0  0  0  0  0  0  0  0  0  0  0
    5.1350   -2.5865    0.0000 C   0  0  0  0  0  0  0  0  0  0  0  0
    5.5378    2.9839    0.0000 C   0  0  0  0  0  0  0  0  0  0  0  0
    5.1350   -3.5865    0.0000 C   0  0  0  0  0  0  0  0  0  0  0  0
    3.4030   -3.5865    0.0000 C   0  0  0  0  0  0  0  0  0  0  0  0
    5.1311    3.8975    0.0000 C   0  0  0  0  0  0  0  0  0  0  0  0
    4.2690   -4.0865    0.0000 C   0  0  0  0  0  0  0  0  0  0  0  0
    5.7189    4.7065    0.0000 C   0  0  0  0  0  0  0  0  0  0  0  0
    4.1366    4.0020    0.0000 C   0  0  0  0  0  0  0  0  0  0  0  0
    4.8214   -1.3680    0.0000 H   0  0  0  0  0  0  0  0  0  0  0  0
    3.8338    1.0690    0.0000 H   0  0  0  0  0  0  0  0  0  0  0  0
    3.1625    0.5813    0.0000 H   0  0  0  0  0  0  0  0  0  0  0  0
    5.7875    0.8154    0.0000 H   0  0  0  0  0  0  0  0  0  0  0  0
    5.8708    1.6081    0.0000 H   0  0  0  0  0  0  0  0  0  0  0  0
    5.6677   -0.6903    0.0000 H   0  0  0  0  0  0  0  0  0  0  0  0
    4.5194    2.6209    0.0000 H   0  0  0  0  0  0  0  0  0  0  0  0
    4.4360    1.8282    0.0000 H   0  0  0  0  0  0  0  0  0  0  0  0
    5.6720   -2.2765    0.0000 H   0  0  0  0  0  0  0  0  0  0  0  0
    6.1544    2.9191    0.0000 H   0  0  0  0  0  0  0  0  0  0  0  0
    2.8660   -3.8965    0.0000 H   0  0  0  0  0  0  0  0  0  0  0  0
    4.2690   -4.7065    0.0000 H   0  0  0  0  0  0  0  0  0  0  0  0
    6.2205    4.3421    0.0000 H   0  0  0  0  0  0  0  0  0  0  0  0
    4.2014    4.6186    0.0000 H   0  0  0  0  0  0  0  0  0  0  0  0
    3.5200    4.0668    0.0000 H   0  0  0  0  0  0  0  0  0  0  0  0
    4.0718    3.3854    0.0000 H   0  0  0  0  0  0  0  0  0  0  0  0
    6.0833    5.2081    0.0000 H   0  0  0  0  0  0  0  0  0  0  0  0
    5.2173    5.0709    0.0000 H   0  0  0  0  0  0  0  0  0  0  0  0
    2.0000   -2.3965    0.0000 H   0  0  0  0  0  0  0  0  0  0  0  0
    6.0010   -4.7065    0.0000 H   0  0  0  0  0  0  0  0  0  0  0  0
  1  4  1  0  0  0  0
  1  6  1  0  0  0  0
  2 11  1  0  0  0  0
  2 38  1  0  0  0  0
  3 14  1  0  0  0  0
  3 39  1  0  0  0  0
  4  8  1  0  0  0  0
  4  9  1  0  0  0  0
  4 20  1  0  0  0  0
  5  6  1  0  0  0  0
  5  7  1  0  0  0  0
  5  8  2  0  0  0  0
  6 21  1  0  0  0  0
  6 22  1  0  0  0  0
  7 10  1  0  0  0  0
  7 23  1  0  0  0  0
  7 24  1  0  0  0  0
  8 25  1  0  0  0  0
  9 11  2  0  0  0  0
  9 12  1  0  0  0  0
 10 13  1  0  0  0  0
 10 26  1  0  0  0  0
 10 27  1  0  0  0  0
 11 15  1  0  0  0  0
 12 14  2  0  0  0  0
 12 28  1  0  0  0  0
 13 16  2  0  0  0  0
 13 29  1  0  0  0  0
 14 17  1  0  0  0  0
 15 17  2  0  0  0  0
 15 30  1  0  0  0  0
 16 18  1  0  0  0  0
 16 19  1  0  0  0  0
 17 31  1  0  0  0  0
 18 32  1  0  0  0  0
 18 36  1  0  0  0  0
 18 37  1  0  0  0  0
 19 33  1  0  0  0  0
 19 34  1  0  0  0  0
 19 35  1  0  0  0  0
M  END
> <PUBCHEM_COMPOUND_CID>
46174050

> <PUBCHEM_COMPOUND_CANONICALIZED>
1

> <PUBCHEM_CACTVS_COMPLEXITY>
355

> <PUBCHEM_CACTVS_HBOND_ACCEPTOR>
3

> <PUBCHEM_CACTVS_HBOND_DONOR>
2

> <PUBCHEM_CACTVS_ROTATABLE_BOND>
4

> <PUBCHEM_CACTVS_SUBSKEYS>
AAADceB4MAAAAAAAAAAAAAAAAAAAAQAAAAAwAAAAAAAAAAABAAAAGgAACAAADBSgmAIyBoAABgCAAiBCAAACAAAgIAAIiAAGCIgIJyKCMRqCcAAlwBEIuAfAwLAOAQABAAAIAAACAAIAABAAAAAAAAAAAA==

> <PUBCHEM_IUPAC_OPENEYE_NAME>
2-[4-(4-methylpent-3-enyl)-2,5-dihydrofuran-2-yl]benzene-1,4-diol

> <PUBCHEM_IUPAC_CAS_NAME>
2-[4-(4-methylpent-3-enyl)-2,5-dihydrofuran-2-yl]benzene-1,4-diol

> <PUBCHEM_IUPAC_NAME>
2-[4-(4-methylpent-3-enyl)-2,5-dihydrofuran-2-yl]benzene-1,4-diol

> <PUBCHEM_IUPAC_SYSTEMATIC_NAME>
2-[4-(4-methylpent-3-enyl)-2,5-dihydrofuran-2-yl]benzene-1,4-diol

> <PUBCHEM_IUPAC_TRADITIONAL_NAME>
2-[4-(4-methylpent-3-enyl)-2,5-dihydrofuran-2-yl]hydroquinone

> <PUBCHEM_IUPAC_INCHI>
InChI=1S/C16H20O3/c1-11(2)4-3-5-12-8-16(19-10-12)14-9-13(17)6-7-15(14)18/h4,6-9,16-18H,3,5,10H2,1-2H3

> <PUBCHEM_IUPAC_INCHIKEY>
RLSJCCIBFMIPMJ-UHFFFAOYSA-N

> <PUBCHEM_XLOGP3_AA>
3.1

> <PUBCHEM_EXACT_MASS>
260.141245

> <PUBCHEM_MOLECULAR_FORMULA>
C16H20O3

> <PUBCHEM_MOLECULAR_WEIGHT>
260.3282

> <PUBCHEM_OPENEYE_CAN_SMILES>
CC(=CCCC1=CC(OC1)C2=C(C=CC(=C2)O)O)C

> <PUBCHEM_OPENEYE_ISO_SMILES>
CC(=CCCC1=CC(OC1)C2=C(C=CC(=C2)O)O)C

> <PUBCHEM_CACTVS_TPSA>
49.7

> <PUBCHEM_MONOISOTOPIC_WEIGHT>
260.141245

> <PUBCHEM_TOTAL_CHARGE>
0

> <PUBCHEM_HEAVY_ATOM_COUNT>
19

> <PUBCHEM_ATOM_DEF_STEREO_COUNT>
0

> <PUBCHEM_ATOM_UDEF_STEREO_COUNT>
1

> <PUBCHEM_BOND_DEF_STEREO_COUNT>
0

> <PUBCHEM_BOND_UDEF_STEREO_COUNT>
0

> <PUBCHEM_ISOTOPIC_ATOM_COUNT>
0

> <PUBCHEM_COMPONENT_COUNT>
1

> <PUBCHEM_CACTVS_TAUTO_COUNT>
7

> <PUBCHEM_COORDINATE_TYPE>
1
5
255

> <PUBCHEM_BONDANNOTATIONS>
11  15  8
12  14  8
14  17  8
15  17  8
4  9  3
9  11  8
9  12  8

$$$$

