   Chemical and Physical Properties References

   [1]USDA ARS - USDA chemical properties
   from [2]ChemIDplus

   Color/Form
        Pale straw to light brown; colorless to very light yellow liquid.
   from [3]HSDB

   Odor
        Skunk-like odor
   from [4]HSDB

   Boiling Point
        75-78 deg C @ 0.1 mm Hg; 118-120 deg C @ 0.8 mm Hg; 125-127 deg C
   @ 2.0 mm Hg
   from [5]HSDB

   Melting Point
        <-15 deg C
   from [6]HSDB

   Density/Specific Gravity
        1.156 @ 25 deg C/4 deg C
   from [7]HSDB

   Octanol/Water Partition Coefficient
        log Kow = 3.56
   from [8]HSDB

   Solubilities

     * Soluble in most organic solvents such as acetone.
     * Miscible with xylene, carbon tetrachloride, dioxane, methyl
       cellosolve, dibutyl phthalate, vegetable oils
     * In water, 50 mg/l @ 25 deg C

   from [9]HSDB

   Spectral Properties
        Index of refraction: 1.5329 @ 25 deg C/D
   from [10]HSDB

   Vapor Pressure
        85 mPa (6.38X10-4 mm Hg) @ 25 deg C
   from [11]HSDB

   Other Chemical/Physical Properties

     * Colorless liquid; mp: below-15 deg C; bp: 118-120 deg C at 0.8 mm
       Hg; index of refraction: 1.5349 at 25 deg C/D /Technical phorate,
       >90%/
     * Decomposes in damp conditions and in alkaline media.
     * Density 1.167 g/cu cm @ 25 deg C /Technical/

   from [12]HSDB

   Computed Properties
   Molecular Weight                  260.377442 [g/mol]
   Molecular Formula                 C[7]H[17]O[2]PS[3]
   XLogP3                            3.6
   H-Bond Donor                      0
   H-Bond Acceptor                   5
   Rotatable Bond Count              8
   Exact Mass                        260.012829
   MonoIsotopic Mass                 260.012829
   Topological Polar Surface Area    101
   Heavy Atom Count                  13
   Formal Charge                     0
   Complexity                        156
   Isotope Atom Count                0
   Defined Atom Stereocenter Count   0
   Undefined Atom Stereocenter Count 0
   Defined Bond Stereocenter Count   0
   Undefined Bond Stereocenter Count 0
   Covalently-Bonded Unit Count      1
   Feature 3D Hydrophobe Count       1
   Effective Rotor Count             8
   Conformer Sampling RMSD           0.8
   CID Conformer Count               [13]96

References

   1. http://www.ars.usda.gov/SP2UserFiles/ad_hoc/12755100DatabaseFiles/PesticidePropertiesDatabase/IndividualPesticideFiles/PHORATE.TXT
   2. http://chem.sis.nlm.nih.gov/chemidplus/
   3. http://toxnet.nlm.nih.gov/cgi-bin/sis/search/r?dbs+hsdb:@term+@rn+@rel+298-02-2
   4. http://toxnet.nlm.nih.gov/cgi-bin/sis/search/r?dbs+hsdb:@term+@rn+@rel+298-02-2
   5. http://toxnet.nlm.nih.gov/cgi-bin/sis/search/r?dbs+hsdb:@term+@rn+@rel+298-02-2
   6. http://toxnet.nlm.nih.gov/cgi-bin/sis/search/r?dbs+hsdb:@term+@rn+@rel+298-02-2
   7. http://toxnet.nlm.nih.gov/cgi-bin/sis/search/r?dbs+hsdb:@term+@rn+@rel+298-02-2
   8. http://toxnet.nlm.nih.gov/cgi-bin/sis/search/r?dbs+hsdb:@term+@rn+@rel+298-02-2
   9. http://toxnet.nlm.nih.gov/cgi-bin/sis/search/r?dbs+hsdb:@term+@rn+@rel+298-02-2
  10. http://toxnet.nlm.nih.gov/cgi-bin/sis/search/r?dbs+hsdb:@term+@rn+@rel+298-02-2
  11. http://toxnet.nlm.nih.gov/cgi-bin/sis/search/r?dbs+hsdb:@term+@rn+@rel+298-02-2
  12. http://toxnet.nlm.nih.gov/cgi-bin/sis/search/r?dbs+hsdb:@term+@rn+@rel+298-02-2
  13. http://pubchem.ncbi.nlm.nih.gov/vw3d/vw3d.cgi?cid=4790
