5729
  -OEChem-06261200502D

 26 26  0     1  0  0  0  0  0999 V2000
    3.7320    3.2500    0.0000 F   0  0  0  0  0  0  0  0  0  0  0  0
    4.7320    2.2500    0.0000 F   0  0  0  0  0  0  0  0  0  0  0  0
    2.7320    2.2500    0.0000 F   0  0  0  0  0  0  0  0  0  0  0  0
    4.7320    1.2500    0.0000 O   0  0  0  0  0  0  0  0  0  0  0  0
    4.5981   -0.2500    0.0000 O   0  0  0  0  0  0  0  0  0  0  0  0
    2.8660   -0.2500    0.0000 N   0  0  0  0  0  0  0  0  0  0  0  0
    3.7320    1.2500    0.0000 C   0  0  3  0  0  0  0  0  0  0  0  0
    3.7320    0.2500    0.0000 C   0  0  0  0  0  0  0  0  0  0  0  0
    3.7320    2.2500    0.0000 C   0  0  0  0  0  0  0  0  0  0  0  0
    2.7320    1.2500    0.0000 C   0  0  0  0  0  0  0  0  0  0  0  0
    2.8660   -1.2500    0.0000 C   0  0  0  0  0  0  0  0  0  0  0  0
    2.0000   -1.7500    0.0000 C   0  0  0  0  0  0  0  0  0  0  0  0
    3.7320   -1.7500    0.0000 C   0  0  0  0  0  0  0  0  0  0  0  0
    2.0000   -2.7500    0.0000 C   0  0  0  0  0  0  0  0  0  0  0  0
    3.7320   -2.7500    0.0000 C   0  0  0  0  0  0  0  0  0  0  0  0
    2.8660   -3.2500    0.0000 C   0  0  0  0  0  0  0  0  0  0  0  0
    2.7320    1.8700    0.0000 H   0  0  0  0  0  0  0  0  0  0  0  0
    2.1120    1.2500    0.0000 H   0  0  0  0  0  0  0  0  0  0  0  0
    2.7320    0.6300    0.0000 H   0  0  0  0  0  0  0  0  0  0  0  0
    2.3291    0.0600    0.0000 H   0  0  0  0  0  0  0  0  0  0  0  0
    5.0420    0.7131    0.0000 H   0  0  0  0  0  0  0  0  0  0  0  0
    1.4631   -1.4400    0.0000 H   0  0  0  0  0  0  0  0  0  0  0  0
    4.2690   -1.4400    0.0000 H   0  0  0  0  0  0  0  0  0  0  0  0
    1.4631   -3.0600    0.0000 H   0  0  0  0  0  0  0  0  0  0  0  0
    4.2690   -3.0600    0.0000 H   0  0  0  0  0  0  0  0  0  0  0  0
    2.8660   -3.8700    0.0000 H   0  0  0  0  0  0  0  0  0  0  0  0
  1  9  1  0  0  0  0
  2  9  1  0  0  0  0
  3  9  1  0  0  0  0
  4  7  1  0  0  0  0
  4 21  1  0  0  0  0
  5  8  2  0  0  0  0
  6  8  1  0  0  0  0
  6 11  1  0  0  0  0
  6 20  1  0  0  0  0
  7  8  1  0  0  0  0
  7  9  1  0  0  0  0
  7 10  1  0  0  0  0
 10 17  1  0  0  0  0
 10 18  1  0  0  0  0
 10 19  1  0  0  0  0
 11 12  2  0  0  0  0
 11 13  1  0  0  0  0
 12 14  1  0  0  0  0
 12 22  1  0  0  0  0
 13 15  2  0  0  0  0
 13 23  1  0  0  0  0
 14 16  2  0  0  0  0
 14 24  1  0  0  0  0
 15 16  1  0  0  0  0
 15 25  1  0  0  0  0
 16 26  1  0  0  0  0
M  END
> <PUBCHEM_COMPOUND_CID>
5729

> <PUBCHEM_COMPOUND_CANONICALIZED>
1

> <PUBCHEM_CACTVS_COMPLEXITY>
261

> <PUBCHEM_CACTVS_HBOND_ACCEPTOR>
5

> <PUBCHEM_CACTVS_HBOND_DONOR>
2

> <PUBCHEM_CACTVS_ROTATABLE_BOND>
2

> <PUBCHEM_CACTVS_SUBSKEYS>
AAADccByMYAAAAAAAAAAAAAAAAAAAAAAAAAwAAAAAAAAAAABAAAAHwAQCAAADEyBkBAywILAAgCIACVSUAKCAAAhAgAIiAFAZIgKICLAkZGEIAhglADYyAcQAAAAAAAAAAAAAAAAAAAAAAAAAAAAAAAAAA==

> <PUBCHEM_IUPAC_OPENEYE_NAME>
3,3,3-trifluoro-2-hydroxy-2-methyl-N-phenyl-propanamide

> <PUBCHEM_IUPAC_CAS_NAME>
3,3,3-trifluoro-2-hydroxy-2-methyl-N-phenylpropanamide

> <PUBCHEM_IUPAC_NAME>
3,3,3-trifluoro-2-hydroxy-2-methyl-N-phenylpropanamide

> <PUBCHEM_IUPAC_SYSTEMATIC_NAME>
3,3,3-tris(fluoranyl)-2-methyl-2-oxidanyl-N-phenyl-propanamide

> <PUBCHEM_IUPAC_TRADITIONAL_NAME>
3,3,3-trifluoro-2-hydroxy-2-methyl-N-phenyl-propionamide

> <PUBCHEM_IUPAC_INCHI>
InChI=1S/C10H10F3NO2/c1-9(16,10(11,12)13)8(15)14-7-5-3-2-4-6-7/h2-6,16H,1H3,(H,14,15)

> <PUBCHEM_IUPAC_INCHIKEY>
JHSBXNFXGVSVQO-UHFFFAOYSA-N

> <PUBCHEM_XLOGP3_AA>
1.8

> <PUBCHEM_EXACT_MASS>
233.066363

> <PUBCHEM_MOLECULAR_FORMULA>
C10H10F3NO2

> <PUBCHEM_MOLECULAR_WEIGHT>
233.18711

> <PUBCHEM_OPENEYE_CAN_SMILES>
CC(C(=O)NC1=CC=CC=C1)(C(F)(F)F)O

> <PUBCHEM_OPENEYE_ISO_SMILES>
CC(C(=O)NC1=CC=CC=C1)(C(F)(F)F)O

> <PUBCHEM_CACTVS_TPSA>
49.3

> <PUBCHEM_MONOISOTOPIC_WEIGHT>
233.066363

> <PUBCHEM_TOTAL_CHARGE>
0

> <PUBCHEM_HEAVY_ATOM_COUNT>
16

> <PUBCHEM_ATOM_DEF_STEREO_COUNT>
0

> <PUBCHEM_ATOM_UDEF_STEREO_COUNT>
1

> <PUBCHEM_BOND_DEF_STEREO_COUNT>
0

> <PUBCHEM_BOND_UDEF_STEREO_COUNT>
0

> <PUBCHEM_ISOTOPIC_ATOM_COUNT>
0

> <PUBCHEM_COMPONENT_COUNT>
1

> <PUBCHEM_CACTVS_TAUTO_COUNT>
2

> <PUBCHEM_COORDINATE_TYPE>
1
5
255

> <PUBCHEM_BONDANNOTATIONS>
11  12  8
11  13  8
12  14  8
13  15  8
14  16  8
15  16  8
7  8  3

$$$$

