12442
  -OEChem-06261206562D

 18 18  0     0  0  0  0  0  0999 V2000
    6.8671    0.4400    0.0000 Cl  0  0  0  0  0  0  0  0  0  0  0  0
    3.4030   -1.5600    0.0000 Cl  0  0  0  0  0  0  0  0  0  0  0  0
    6.8671   -1.5600    0.0000 Cl  0  0  0  0  0  0  0  0  0  0  0  0
    5.1350   -2.5600    0.0000 Cl  0  0  0  0  0  0  0  0  0  0  0  0
    6.0010    1.9400    0.0000 O   0  0  0  0  0  0  0  0  0  0  0  0
    2.5369   -0.0600    0.0000 O   0  0  0  0  0  0  0  0  0  0  0  0
    4.2690    1.9400    0.0000 O   0  0  0  0  0  0  0  0  0  0  0  0
    3.4030    1.4400    0.0000 O   0  0  0  0  0  0  0  0  0  0  0  0
    5.1350    0.4400    0.0000 C   0  0  0  0  0  0  0  0  0  0  0  0
    4.2690   -0.0600    0.0000 C   0  0  0  0  0  0  0  0  0  0  0  0
    6.0010   -0.0600    0.0000 C   0  0  0  0  0  0  0  0  0  0  0  0
    4.2690   -1.0600    0.0000 C   0  0  0  0  0  0  0  0  0  0  0  0
    6.0010   -1.0600    0.0000 C   0  0  0  0  0  0  0  0  0  0  0  0
    5.1350   -1.5600    0.0000 C   0  0  0  0  0  0  0  0  0  0  0  0
    5.1350    1.4400    0.0000 C   0  0  0  0  0  0  0  0  0  0  0  0
    3.4030    0.4400    0.0000 C   0  0  0  0  0  0  0  0  0  0  0  0
    6.0010    2.5600    0.0000 H   0  0  0  0  0  0  0  0  0  0  0  0
    2.0000    0.2500    0.0000 H   0  0  0  0  0  0  0  0  0  0  0  0
  1 11  1  0  0  0  0
  2 12  1  0  0  0  0
  3 13  1  0  0  0  0
  4 14  1  0  0  0  0
  5 15  1  0  0  0  0
  5 17  1  0  0  0  0
  6 16  1  0  0  0  0
  6 18  1  0  0  0  0
  7 15  2  0  0  0  0
  8 16  2  0  0  0  0
  9 10  2  0  0  0  0
  9 11  1  0  0  0  0
  9 15  1  0  0  0  0
 10 12  1  0  0  0  0
 10 16  1  0  0  0  0
 11 13  2  0  0  0  0
 12 14  2  0  0  0  0
 13 14  1  0  0  0  0
M  END
> <PUBCHEM_COMPOUND_CID>
12442

> <PUBCHEM_COMPOUND_CANONICALIZED>
1

> <PUBCHEM_CACTVS_COMPLEXITY>
280

> <PUBCHEM_CACTVS_HBOND_ACCEPTOR>
4

> <PUBCHEM_CACTVS_HBOND_DONOR>
2

> <PUBCHEM_CACTVS_ROTATABLE_BOND>
2

> <PUBCHEM_CACTVS_SUBSKEYS>
AAADcQBwOAAHAAAAAAAAAAAAAAAAAAAAAAAwAAAAAAAAAAABAAAACgIACAAADAIAmCAACIAAAgCIAgDQCAACAAAkBAAAikEACsgIJjKBFhCAcQAkwAEInQfLyKCOhAAQIACRAAQIACBAASIACAAAAAAAAA==

> <PUBCHEM_IUPAC_OPENEYE_NAME>
3,4,5,6-tetrachlorophthalic acid

> <PUBCHEM_IUPAC_CAS_NAME>
3,4,5,6-tetrachlorophthalic acid

> <PUBCHEM_IUPAC_NAME>
3,4,5,6-tetrachlorophthalic acid

> <PUBCHEM_IUPAC_SYSTEMATIC_NAME>
3,4,5,6-tetrakis(chloranyl)phthalic acid

> <PUBCHEM_IUPAC_TRADITIONAL_NAME>
3,4,5,6-tetrachlorophthalic acid

> <PUBCHEM_IUPAC_INCHI>
InChI=1S/C8H2Cl4O4/c9-3-1(7(13)14)2(8(15)16)4(10)6(12)5(3)11/h(H,13,14)(H,15,16)

> <PUBCHEM_IUPAC_INCHIKEY>
WZHHYIOUKQNLQM-UHFFFAOYSA-N

> <PUBCHEM_XLOGP3_AA>
3.5

> <PUBCHEM_EXACT_MASS>
303.867769

> <PUBCHEM_MOLECULAR_FORMULA>
C8H2Cl4O4

> <PUBCHEM_MOLECULAR_WEIGHT>
303.91108

> <PUBCHEM_OPENEYE_CAN_SMILES>
C1(=C(C(=C(C(=C1Cl)Cl)Cl)Cl)C(=O)O)C(=O)O

> <PUBCHEM_OPENEYE_ISO_SMILES>
C1(=C(C(=C(C(=C1Cl)Cl)Cl)Cl)C(=O)O)C(=O)O

> <PUBCHEM_CACTVS_TPSA>
74.6

> <PUBCHEM_MONOISOTOPIC_WEIGHT>
301.870719

> <PUBCHEM_TOTAL_CHARGE>
0

> <PUBCHEM_HEAVY_ATOM_COUNT>
16

> <PUBCHEM_ATOM_DEF_STEREO_COUNT>
0

> <PUBCHEM_ATOM_UDEF_STEREO_COUNT>
0

> <PUBCHEM_BOND_DEF_STEREO_COUNT>
0

> <PUBCHEM_BOND_UDEF_STEREO_COUNT>
0

> <PUBCHEM_ISOTOPIC_ATOM_COUNT>
0

> <PUBCHEM_COMPONENT_COUNT>
1

> <PUBCHEM_CACTVS_TAUTO_COUNT>
1

> <PUBCHEM_COORDINATE_TYPE>
1
5
255

> <PUBCHEM_BONDANNOTATIONS>
10  12  8
11  13  8
12  14  8
13  14  8
9  10  8
9  11  8

$$$$

