   Color/Form
        Solid or crystalline
   from [1]HSDB

   Boiling Point
        241.1 deg C
   from [2]HSDB

   Melting Point
        37-38 deg C
   from [3]HSDB

   Critical Temperature and Pressure
        Critical temp: 761 deg K; critical pressure: 34.6 atm
   from [4]HSDB

   Density/Specific Gravity
        0.99 g/cu cm
   from [5]HSDB

   Octanol/Water Partition Coefficient
        log Kow= 3.86
   from [6]HSDB

   Solubilities

     * Miscible with alcohol and ether
     * Sol in benzene
     * In water, 24.6 mg/l @ 25 deg C

   from [7]HSDB

   Spectral Properties

     * Index of refraction: 1.6019 @ 20 deg C
     * MAX ABSORPTION (ALCOHOL): 224 NM (LOG E= 4.38), 274 NM (LOG E=
       3.72), 305 NM (LOG E= 2.66), 319 NM (LOG E= 2.65)
     * SADTLER REFERENCE NUMBER: 1277 (IR, PRISM); 230 (IR, GRATING)
     * IR: 1259 (Coblentz Society Spectral Collection)
     * UV: 12432 (Sadtler Research Laboratories Spectral Collection)
     * NMR: 6938 (Sadtler Research Laboratories Spectral Collection)
     * MASS: 62170 (NIST/EPA/MSDC Mass Spectral Database, 1990 Version)
     * 13C: 416 (Johnson and Jankowski, Carbon-13 NMR Spectra, John Wiley
       & Sons, New York)

   from [8]HSDB

   Vapor Pressure
        0.055 mm Hg @ 25 deg C
   from [9]HSDB

   Other Chemical/Physical Properties

     * Heat of fusion: 20.11 cal/g= 89.14 J/g= 11,965 J/mol
     * Enthalpy of formation: 10.72 kcal/mole
     * Gibbs (free) energy of formation: 46.03 kcal/mole
     * Entropy: 52.58 cal/deg C-mole
     * Heat capacity: 46.84 cal/deg C-mole
     * Critical volume: 462 cu m/mole
     * MONOCLINIC CRYSTALS FROM ALCOHOL
     * Henry's Law constant = 0.000518 atm-cu m/mol at 25 deg C
     * Hydroxyl radical reaction rate constant: 5.23X10-11 cu cm/molecule-
       sec

   from [10]HSDB

   Computed Properties
   Molecular Weight                  142.1971 [g/mol]
   Molecular Formula                 C[11]H[10]
   XLogP3                            3.9
   H-Bond Donor                      0
   H-Bond Acceptor                   0
   Rotatable Bond Count              0
   Exact Mass                        142.07825
   MonoIsotopic Mass                 142.07825
   Topological Polar Surface Area    0
   Heavy Atom Count                  11
   Formal Charge                     0
   Complexity                        128
   Isotope Atom Count                0
   Defined Atom Stereocenter Count   0
   Undefined Atom Stereocenter Count 0
   Defined Bond Stereocenter Count   0
   Undefined Bond Stereocenter Count 0
   Covalently-Bonded Unit Count      1
   Feature 3D Ring Count             2
   Effective Rotor Count             0
   Conformer Sampling RMSD           0.4
   CID Conformer Count               [11]1

References

   1. http://toxnet.nlm.nih.gov/cgi-bin/sis/search/r?dbs+hsdb:@term+@rn+@rel+91-57-6
   2. http://toxnet.nlm.nih.gov/cgi-bin/sis/search/r?dbs+hsdb:@term+@rn+@rel+91-57-6
   3. http://toxnet.nlm.nih.gov/cgi-bin/sis/search/r?dbs+hsdb:@term+@rn+@rel+91-57-6
   4. http://toxnet.nlm.nih.gov/cgi-bin/sis/search/r?dbs+hsdb:@term+@rn+@rel+91-57-6
   5. http://toxnet.nlm.nih.gov/cgi-bin/sis/search/r?dbs+hsdb:@term+@rn+@rel+91-57-6
   6. http://toxnet.nlm.nih.gov/cgi-bin/sis/search/r?dbs+hsdb:@term+@rn+@rel+91-57-6
   7. http://toxnet.nlm.nih.gov/cgi-bin/sis/search/r?dbs+hsdb:@term+@rn+@rel+91-57-6
   8. http://toxnet.nlm.nih.gov/cgi-bin/sis/search/r?dbs+hsdb:@term+@rn+@rel+91-57-6
   9. http://toxnet.nlm.nih.gov/cgi-bin/sis/search/r?dbs+hsdb:@term+@rn+@rel+91-57-6
  10. http://toxnet.nlm.nih.gov/cgi-bin/sis/search/r?dbs+hsdb:@term+@rn+@rel+91-57-6
  11. http://pubchem.ncbi.nlm.nih.gov/vw3d/vw3d.cgi?cid=7055
