10130020
  -OEChem-07051213152D

 18 18  0     1  0  0  0  0  0999 V2000
    4.5981   -0.2015    0.0000 O   0  0  0  0  0  0  0  0  0  0  0  0
    3.2320    1.1645    0.0000 O   0  0  0  0  0  0  0  0  0  0  0  0
    5.2320    1.1645    0.0000 O   0  0  0  0  0  0  0  0  0  0  0  0
    2.0000    0.2985    0.0000 O   0  0  0  0  0  0  0  0  0  0  0  0
    3.7320    0.2985    0.0000 C   0  0  3  0  0  0  0  0  0  0  0  0
    4.2320    1.1645    0.0000 C   0  0  0  0  0  0  0  0  0  0  0  0
    2.8660   -0.2015    0.0000 C   0  0  0  0  0  0  0  0  0  0  0  0
    4.5981   -1.2015    0.0000 C   0  0  0  0  0  0  0  0  0  0  0  0
    2.8660   -1.2015    0.0000 C   0  0  0  0  0  0  0  0  0  0  0  0
    3.7320   -1.7015    0.0000 C   0  0  0  0  0  0  0  0  0  0  0  0
    4.3397    1.7751    0.0000 H   0  0  0  0  0  0  0  0  0  0  0  0
    3.6494    1.3766    0.0000 H   0  0  0  0  0  0  0  0  0  0  0  0
    4.8101   -1.7841    0.0000 H   0  0  0  0  0  0  0  0  0  0  0  0
    5.2087   -1.0938    0.0000 H   0  0  0  0  0  0  0  0  0  0  0  0
    2.3291   -1.5115    0.0000 H   0  0  0  0  0  0  0  0  0  0  0  0
    3.7320   -2.3215    0.0000 H   0  0  0  0  0  0  0  0  0  0  0  0
    3.5420    1.7015    0.0000 H   0  0  0  0  0  0  0  0  0  0  0  0
    5.5420    1.7015    0.0000 H   0  0  0  0  0  0  0  0  0  0  0  0
  1  5  1  0  0  0  0
  1  8  1  0  0  0  0
  2  5  1  0  0  0  0
  2 17  1  0  0  0  0
  3  6  1  0  0  0  0
  3 18  1  0  0  0  0
  4  7  2  0  0  0  0
  5  6  1  0  0  0  0
  5  7  1  0  0  0  0
  6 11  1  0  0  0  0
  6 12  1  0  0  0  0
  7  9  1  0  0  0  0
  8 10  1  0  0  0  0
  8 13  1  0  0  0  0
  8 14  1  0  0  0  0
  9 10  2  0  0  0  0
  9 15  1  0  0  0  0
 10 16  1  0  0  0  0
M  END
> <PUBCHEM_COMPOUND_CID>
10130020

> <PUBCHEM_COMPOUND_CANONICALIZED>
1

> <PUBCHEM_CACTVS_COMPLEXITY>
175

> <PUBCHEM_CACTVS_HBOND_ACCEPTOR>
4

> <PUBCHEM_CACTVS_HBOND_DONOR>
2

> <PUBCHEM_CACTVS_ROTATABLE_BOND>
1

> <PUBCHEM_CACTVS_SUBSKEYS>
AAADccBgOAAAAAAAAAAAAAAAAAAAAAAAAAAgAAAAAAAAAAAAAAAAGgAACAAACASggAIACAAABgCIAKBSAAIAAAAgAAAICAFAAEgRFAQAIQQCUAAE4AAPIYIAAAAAAAAAAAAAAAAAAAAAAAAAAAAAAAAAAA==

> <PUBCHEM_IUPAC_OPENEYE_NAME>
6-hydroxy-6-(hydroxymethyl)-2H-pyran-5-one

> <PUBCHEM_IUPAC_CAS_NAME>
6-hydroxy-6-(hydroxymethyl)-2H-pyran-5-one

> <PUBCHEM_IUPAC_NAME>
6-hydroxy-6-(hydroxymethyl)-2H-pyran-5-one

> <PUBCHEM_IUPAC_SYSTEMATIC_NAME>
6-(hydroxymethyl)-6-oxidanyl-2H-pyran-5-one

> <PUBCHEM_IUPAC_TRADITIONAL_NAME>
6-hydroxy-6-methylol-2H-pyran-5-one

> <PUBCHEM_IUPAC_INCHI>
InChI=1S/C6H8O4/c7-4-6(9)5(8)2-1-3-10-6/h1-2,7,9H,3-4H2

> <PUBCHEM_IUPAC_INCHIKEY>
FUJVJJBVXLPRQJ-UHFFFAOYSA-N

> <PUBCHEM_XLOGP3_AA>
-0.8

> <PUBCHEM_EXACT_MASS>
144.042259

> <PUBCHEM_MOLECULAR_FORMULA>
C6H8O4

> <PUBCHEM_MOLECULAR_WEIGHT>
144.12532

> <PUBCHEM_OPENEYE_CAN_SMILES>
C1C=CC(=O)C(O1)(CO)O

> <PUBCHEM_OPENEYE_ISO_SMILES>
C1C=CC(=O)C(O1)(CO)O

> <PUBCHEM_CACTVS_TPSA>
66.8

> <PUBCHEM_MONOISOTOPIC_WEIGHT>
144.042259

> <PUBCHEM_TOTAL_CHARGE>
0

> <PUBCHEM_HEAVY_ATOM_COUNT>
10

> <PUBCHEM_ATOM_DEF_STEREO_COUNT>
0

> <PUBCHEM_ATOM_UDEF_STEREO_COUNT>
1

> <PUBCHEM_BOND_DEF_STEREO_COUNT>
0

> <PUBCHEM_BOND_UDEF_STEREO_COUNT>
0

> <PUBCHEM_ISOTOPIC_ATOM_COUNT>
0

> <PUBCHEM_COMPONENT_COUNT>
1

> <PUBCHEM_CACTVS_TAUTO_COUNT>
1

> <PUBCHEM_COORDINATE_TYPE>
1
5
255

> <PUBCHEM_BONDANNOTATIONS>
5  6  3

$$$$

