10488
  -OEChem-06261204362D

 45 43  0     1  0  0  0  0  0999 V2000
    3.4641    2.8100    0.0000 O   0  0  0  0  0  0  0  0  0  0  0  0
    2.5981    0.3100    0.0000 O   0  0  0  0  0  0  0  0  0  0  0  0
    4.3301    0.3100    0.0000 O   0  0  0  0  0  0  0  0  0  0  0  0
    1.7320    2.8100    0.0000 O   0  0  0  0  0  0  0  0  0  0  0  0
    5.0316    7.0230    0.0000 O   0  0  0  0  0  0  0  0  0  0  0  0
    6.0622    1.3100    0.0000 O   0  0  0  0  0  0  0  0  0  0  0  0
    0.0000    1.8100    0.0000 O   0  5  0  0  0  0  0  0  0  0  0  0
    0.8660    0.3100    0.0000 O   0  0  0  0  0  0  0  0  0  0  0  0
    2.4335    6.5230    0.0000 N   0  3  0  0  0  0  0  0  0  0  0  0
    3.2996    7.0230    0.0000 C   0  0  0  0  0  0  0  0  0  0  0  0
    3.4641    1.8100    0.0000 C   0  0  3  0  0  0  0  0  0  0  0  0
    2.5981    1.3100    0.0000 C   0  0  3  0  0  0  0  0  0  0  0  0
    1.5675    6.0230    0.0000 C   0  0  0  0  0  0  0  0  0  0  0  0
    1.9335    7.3890    0.0000 C   0  0  0  0  0  0  0  0  0  0  0  0
    2.9335    5.6569    0.0000 C   0  0  0  0  0  0  0  0  0  0  0  0
    4.3301    1.3100    0.0000 C   0  0  3  0  0  0  0  0  0  0  0  0
    1.7320    1.8100    0.0000 C   0  0  3  0  0  0  0  0  0  0  0  0
    4.1656    6.5230    0.0000 C   0  0  0  0  0  0  0  0  0  0  0  0
    5.1962    1.8100    0.0000 C   0  0  0  0  0  0  0  0  0  0  0  0
    0.8660    1.3100    0.0000 C   0  0  0  0  0  0  0  0  0  0  0  0
    3.6981    7.4979    0.0000 H   0  0  0  0  0  0  0  0  0  0  0  0
    2.9010    7.4979    0.0000 H   0  0  0  0  0  0  0  0  0  0  0  0
    4.2002    2.2350    0.0000 H   0  0  0  0  0  0  0  0  0  0  0  0
    3.3342    0.8850    0.0000 H   0  0  0  0  0  0  0  0  0  0  0  0
    5.0662    0.8850    0.0000 H   0  0  0  0  0  0  0  0  0  0  0  0
    1.2575    6.5599    0.0000 H   0  0  0  0  0  0  0  0  0  0  0  0
    1.0306    5.7130    0.0000 H   0  0  0  0  0  0  0  0  0  0  0  0
    1.8775    5.4860    0.0000 H   0  0  0  0  0  0  0  0  0  0  0  0
    2.3966    5.3469    0.0000 H   0  0  0  0  0  0  0  0  0  0  0  0
    2.4705    7.6990    0.0000 H   0  0  0  0  0  0  0  0  0  0  0  0
    1.6235    7.9259    0.0000 H   0  0  0  0  0  0  0  0  0  0  0  0
    1.3966    7.0790    0.0000 H   0  0  0  0  0  0  0  0  0  0  0  0
    3.2435    5.1200    0.0000 H   0  0  0  0  0  0  0  0  0  0  0  0
    3.4705    5.9669    0.0000 H   0  0  0  0  0  0  0  0  0  0  0  0
    2.4682    2.2350    0.0000 H   0  0  0  0  0  0  0  0  0  0  0  0
    3.7670    6.0480    0.0000 H   0  0  0  0  0  0  0  0  0  0  0  0
    4.5641    6.0480    0.0000 H   0  0  0  0  0  0  0  0  0  0  0  0
    5.5947    2.2849    0.0000 H   0  0  0  0  0  0  0  0  0  0  0  0
    4.7976    2.2849    0.0000 H   0  0  0  0  0  0  0  0  0  0  0  0
    4.0010    3.1200    0.0000 H   0  0  0  0  0  0  0  0  0  0  0  0
    2.0611    0.0000    0.0000 H   0  0  0  0  0  0  0  0  0  0  0  0
    4.8671    0.0000    0.0000 H   0  0  0  0  0  0  0  0  0  0  0  0
    1.1951    3.1200    0.0000 H   0  0  0  0  0  0  0  0  0  0  0  0
    5.5685    6.7130    0.0000 H   0  0  0  0  0  0  0  0  0  0  0  0
    6.5991    1.6200    0.0000 H   0  0  0  0  0  0  0  0  0  0  0  0
  1 11  1  0  0  0  0
  1 40  1  0  0  0  0
  2 12  1  0  0  0  0
  2 41  1  0  0  0  0
  3 16  1  0  0  0  0
  3 42  1  0  0  0  0
  4 17  1  0  0  0  0
  4 43  1  0  0  0  0
  5 18  1  0  0  0  0
  5 44  1  0  0  0  0
  6 19  1  0  0  0  0
  6 45  1  0  0  0  0
  7 20  1  0  0  0  0
  8 20  2  0  0  0  0
  9 10  1  0  0  0  0
  9 13  1  0  0  0  0
  9 14  1  0  0  0  0
  9 15  1  0  0  0  0
 10 18  1  0  0  0  0
 10 21  1  0  0  0  0
 10 22  1  0  0  0  0
 11 12  1  0  0  0  0
 11 16  1  0  0  0  0
 11 23  1  0  0  0  0
 12 17  1  0  0  0  0
 12 24  1  0  0  0  0
 13 26  1  0  0  0  0
 13 27  1  0  0  0  0
 13 28  1  0  0  0  0
 14 30  1  0  0  0  0
 14 31  1  0  0  0  0
 14 32  1  0  0  0  0
 15 29  1  0  0  0  0
 15 33  1  0  0  0  0
 15 34  1  0  0  0  0
 16 19  1  0  0  0  0
 16 25  1  0  0  0  0
 17 20  1  0  0  0  0
 17 35  1  0  0  0  0
 18 36  1  0  0  0  0
 18 37  1  0  0  0  0
 19 38  1  0  0  0  0
 19 39  1  0  0  0  0
M  CHG  2   7  -1   9   1
M  END
> <PUBCHEM_COMPOUND_CID>
10488

> <PUBCHEM_COMPOUND_CANONICALIZED>
1

> <PUBCHEM_CACTVS_COMPLEXITY>
211

> <PUBCHEM_CACTVS_HBOND_ACCEPTOR>
8

> <PUBCHEM_CACTVS_HBOND_DONOR>
6

> <PUBCHEM_CACTVS_ROTATABLE_BOND>
6

> <PUBCHEM_CACTVS_SUBSKEYS>
AAADceByPAAAAAAAAAAAAAAAAAAAAAAAAAAAAAAAAAAAAAAAAAAAHgAACAAACBThgAYCCAMAAgAIAACQCAIAAAAAAAAAAAFIAAADEBYAAAAAQAAFIAARAAHKbARAAAAAAAAAAAAAAAAAAAAAAAAAAAAAAA==

> <PUBCHEM_IUPAC_OPENEYE_NAME>
2-hydroxyethyl(trimethyl)ammonium; 2,3,4,5,6-pentahydroxyhexanoate

> <PUBCHEM_IUPAC_CAS_NAME>
2-hydroxyethyl(trimethyl)ammonium; 2,3,4,5,6-pentahydroxyhexanoate

> <PUBCHEM_IUPAC_NAME>
2-hydroxyethyl(trimethyl)azanium; 2,3,4,5,6-pentahydroxyhexanoate

> <PUBCHEM_IUPAC_SYSTEMATIC_NAME>
2-hydroxyethyl(trimethyl)azanium; 2,3,4,5,6-pentakis(oxidanyl)hexanoate

> <PUBCHEM_IUPAC_TRADITIONAL_NAME>
2-hydroxyethyl(trimethyl)ammonium; 2,3,4,5,6-pentahydroxyhexanoate

> <PUBCHEM_IUPAC_INCHI>
InChI=1S/C6H12O7.C5H14NO/c7-1-2(8)3(9)4(10)5(11)6(12)13;1-6(2,3)4-5-7/h2-5,7-11H,1H2,(H,12,13);7H,4-5H2,1-3H3/q;+1/p-1

> <PUBCHEM_IUPAC_INCHIKEY>
UJWRGESBUBDIIB-UHFFFAOYSA-M

> <PUBCHEM_EXACT_MASS>
299.158017

> <PUBCHEM_MOLECULAR_FORMULA>
C11H25NO8

> <PUBCHEM_MOLECULAR_WEIGHT>
299.3181

> <PUBCHEM_OPENEYE_CAN_SMILES>
C[N+](C)(C)CCO.C(C(C(C(C(C(=O)[O-])O)O)O)O)O

> <PUBCHEM_OPENEYE_ISO_SMILES>
C[N+](C)(C)CCO.C(C(C(C(C(C(=O)[O-])O)O)O)O)O

> <PUBCHEM_CACTVS_TPSA>
162

> <PUBCHEM_MONOISOTOPIC_WEIGHT>
299.158017

> <PUBCHEM_TOTAL_CHARGE>
0

> <PUBCHEM_HEAVY_ATOM_COUNT>
20

> <PUBCHEM_ATOM_DEF_STEREO_COUNT>
0

> <PUBCHEM_ATOM_UDEF_STEREO_COUNT>
4

> <PUBCHEM_BOND_DEF_STEREO_COUNT>
0

> <PUBCHEM_BOND_UDEF_STEREO_COUNT>
0

> <PUBCHEM_ISOTOPIC_ATOM_COUNT>
0

> <PUBCHEM_COMPONENT_COUNT>
2

> <PUBCHEM_CACTVS_TAUTO_COUNT>
1

> <PUBCHEM_COORDINATE_TYPE>
1
5
255

> <PUBCHEM_BONDANNOTATIONS>
11  23  3
12  24  3
16  25  3
17  35  3

$$$$

