6534
  -OEChem-06261201222D

 25 24  0     0  0  0  0  0  0999 V2000
    4.5981   -0.4330    0.0000 P   0  0  0  0  0  0  0  0  0  0  0  0
    5.4641    0.0670    0.0000 O   0  0  0  0  0  0  0  0  0  0  0  0
    3.7320   -0.9330    0.0000 O   0  0  0  0  0  0  0  0  0  0  0  0
    5.0981   -1.2990    0.0000 O   0  0  0  0  0  0  0  0  0  0  0  0
    4.0981    0.4330    0.0000 C   0  0  0  0  0  0  0  0  0  0  0  0
    4.5981    1.2990    0.0000 C   0  0  0  0  0  0  0  0  0  0  0  0
    6.3301   -0.4330    0.0000 C   0  0  0  0  0  0  0  0  0  0  0  0
    2.8660   -0.4330    0.0000 C   0  0  0  0  0  0  0  0  0  0  0  0
    7.1962    0.0670    0.0000 C   0  0  0  0  0  0  0  0  0  0  0  0
    2.0000   -0.9330    0.0000 C   0  0  0  0  0  0  0  0  0  0  0  0
    3.6231    0.8315    0.0000 H   0  0  0  0  0  0  0  0  0  0  0  0
    3.6231    0.0345    0.0000 H   0  0  0  0  0  0  0  0  0  0  0  0
    5.1350    0.9890    0.0000 H   0  0  0  0  0  0  0  0  0  0  0  0
    4.9081    1.8360    0.0000 H   0  0  0  0  0  0  0  0  0  0  0  0
    4.0611    1.6090    0.0000 H   0  0  0  0  0  0  0  0  0  0  0  0
    3.2646    0.0419    0.0000 H   0  0  0  0  0  0  0  0  0  0  0  0
    2.4675    0.0419    0.0000 H   0  0  0  0  0  0  0  0  0  0  0  0
    5.9316   -0.9080    0.0000 H   0  0  0  0  0  0  0  0  0  0  0  0
    6.7287   -0.9080    0.0000 H   0  0  0  0  0  0  0  0  0  0  0  0
    7.5062   -0.4699    0.0000 H   0  0  0  0  0  0  0  0  0  0  0  0
    7.7331    0.3770    0.0000 H   0  0  0  0  0  0  0  0  0  0  0  0
    6.8862    0.6039    0.0000 H   0  0  0  0  0  0  0  0  0  0  0  0
    1.6900   -0.3961    0.0000 H   0  0  0  0  0  0  0  0  0  0  0  0
    1.4631   -1.2430    0.0000 H   0  0  0  0  0  0  0  0  0  0  0  0
    2.3100   -1.4700    0.0000 H   0  0  0  0  0  0  0  0  0  0  0  0
  1  2  1  0  0  0  0
  1  3  1  0  0  0  0
  1  4  2  0  0  0  0
  1  5  1  0  0  0  0
  2  7  1  0  0  0  0
  3  8  1  0  0  0  0
  5  6  1  0  0  0  0
  5 11  1  0  0  0  0
  5 12  1  0  0  0  0
  6 13  1  0  0  0  0
  6 14  1  0  0  0  0
  6 15  1  0  0  0  0
  7  9  1  0  0  0  0
  7 18  1  0  0  0  0
  7 19  1  0  0  0  0
  8 10  1  0  0  0  0
  8 16  1  0  0  0  0
  8 17  1  0  0  0  0
  9 20  1  0  0  0  0
  9 21  1  0  0  0  0
  9 22  1  0  0  0  0
 10 23  1  0  0  0  0
 10 24  1  0  0  0  0
 10 25  1  0  0  0  0
M  END
> <PUBCHEM_COMPOUND_CID>
6534

> <PUBCHEM_COMPOUND_CANONICALIZED>
1

> <PUBCHEM_CACTVS_COMPLEXITY>
114

> <PUBCHEM_CACTVS_HBOND_ACCEPTOR>
3

> <PUBCHEM_CACTVS_HBOND_DONOR>
0

> <PUBCHEM_CACTVS_ROTATABLE_BOND>
5

> <PUBCHEM_CACTVS_SUBSKEYS>
AAADccBgMAIAAAAAAAAAAAAAAAAAAAAAAAAAAAAAAAAAAAAAAAAAGggAACAAAACogAICAAAAARAAQAAAAIAAAAAAAAAAAAAAAAAAAAAAAAAAAAAAAAAAAAAAAAAAAAAAAAAAAAAAAAAAAAAAAAAAAAAAAA==

> <PUBCHEM_IUPAC_OPENEYE_NAME>
1-[ethoxy(ethyl)phosphoryl]oxyethane

> <PUBCHEM_IUPAC_CAS_NAME>
1-[ethoxy(ethyl)phosphoryl]oxyethane

> <PUBCHEM_IUPAC_NAME>
1-[ethoxy(ethyl)phosphoryl]oxyethane

> <PUBCHEM_IUPAC_SYSTEMATIC_NAME>
1-[ethoxy(ethyl)phosphoryl]oxyethane

> <PUBCHEM_IUPAC_TRADITIONAL_NAME>
1-[ethoxy(ethyl)phosphoryl]oxyethane

> <PUBCHEM_IUPAC_INCHI>
InChI=1S/C6H15O3P/c1-4-8-10(7,6-3)9-5-2/h4-6H2,1-3H3

> <PUBCHEM_IUPAC_INCHIKEY>
AATNZNJRDOVKDD-UHFFFAOYSA-N

> <PUBCHEM_XLOGP3_AA>
0.6

> <PUBCHEM_EXACT_MASS>
166.075881

> <PUBCHEM_MOLECULAR_FORMULA>
C6H15O3P

> <PUBCHEM_MOLECULAR_WEIGHT>
166.155262

> <PUBCHEM_OPENEYE_CAN_SMILES>
CCOP(=O)(CC)OCC

> <PUBCHEM_OPENEYE_ISO_SMILES>
CCOP(=O)(CC)OCC

> <PUBCHEM_CACTVS_TPSA>
35.5

> <PUBCHEM_MONOISOTOPIC_WEIGHT>
166.075881

> <PUBCHEM_TOTAL_CHARGE>
0

> <PUBCHEM_HEAVY_ATOM_COUNT>
10

> <PUBCHEM_ATOM_DEF_STEREO_COUNT>
0

> <PUBCHEM_ATOM_UDEF_STEREO_COUNT>
0

> <PUBCHEM_BOND_DEF_STEREO_COUNT>
0

> <PUBCHEM_BOND_UDEF_STEREO_COUNT>
0

> <PUBCHEM_ISOTOPIC_ATOM_COUNT>
0

> <PUBCHEM_COMPONENT_COUNT>
1

> <PUBCHEM_CACTVS_TAUTO_COUNT>
1

> <PUBCHEM_COORDINATE_TYPE>
1
5
255

$$$$

