   Color/Form

     * Yellow crystals
     * Monoclinic needles

   from [1]HSDB

   Boiling Point
        245.5 deg C
   from [2]HSDB

   Melting Point
        32 deg C
   from [3]HSDB

   Critical Temperature and Pressure
        Critical temperature = 757 deg K; Critical pressure = 3.98X10+6
   Pa.
   from [4]HSDB

   Density/Specific Gravity
        1.368 g/L at 242 deg C
   from [5]HSDB

   Heat of Vaporization
        6.59X10+7 J/kmol at 306.14 deg K
   from [6]HSDB

   Octanol/Water Partition Coefficient
        log Kow = 2.52
   from [7]HSDB

   Solubilities

     * Sol in alcohol, benzene, ether
     * VERY SOL IN ACETONE, PYRIDINE; SOL IN TOLUENE, METHANOL, CARBON
       TETRACHLORIDE
     * In water, 441 mg/L at 25 deg C
     * Water solubility = 2800 uM (440 mg/l) at 20 deg C

   from [8]HSDB

   Spectral Properties

     * MAX ABSORPTION (METHANOL): 252 NM (LOG E= 3.51)
     * IR: 3231 (Sadtler Research Laboratories Prism Collection)
     * UV: 5-47 (Organic Electronic Spectral Data, Phillips et al, John
       Wiley & Sons, New York)
     * NMR: 10548 (Sadtler Research Laboratories Spectral Collection)

   from [9]HSDB

   Surface Tension
        4.37X10-2 N/m at 317.65 deg K
   from [10]HSDB

   Vapor Pressure
        0.018 mm Hg at 25 deg C
   from [11]HSDB

   Viscosity
        2.09X10-3 Pa-s at 317.65 deg K
   from [12]HSDB

   Other Chemical/Physical Properties

     * The liquid molar volume is 0.116 cu m/kmol. The ideal gas Heat of
       Formation is 3.72X10+7 J/kmol.
     * The liquid molar volume is 0.116 cu m/kmol. The ideal gas Heat of
       Formation is 3.72X10+7 J/kmol.
     * Henry's Law constant = 9.3X10-6 atm-cu m/mole at 25 deg C
     * Hydroxyl radical reaction rate constant = 1.7X10-13 cu
       cm/molecule-sec at 25 deg C (est)

   from [13]HSDB

   Computed Properties
   Molecular Weight                  157.55446 [g/mol]
   Molecular Formula                 C[6]H[4]ClNO[2]
   XLogP3                            2.2
   H-Bond Donor                      0
   H-Bond Acceptor                   2
   Rotatable Bond Count              0
   Exact Mass                        156.993056
   MonoIsotopic Mass                 156.993056
   Topological Polar Surface Area    45.8
   Heavy Atom Count                  10
   Formal Charge                     0
   Complexity                        134
   Isotope Atom Count                0
   Defined Atom Stereocenter Count   0
   Undefined Atom Stereocenter Count 0
   Defined Bond Stereocenter Count   0
   Undefined Bond Stereocenter Count 0
   Covalently-Bonded Unit Count      1
   Feature 3D Acceptor Count         2
   Feature 3D Anion Count            1
   Feature 3D Ring Count             1
   Effective Rotor Count             1
   Conformer Sampling RMSD           0.4
   CID Conformer Count               [14]1

References

   1. http://toxnet.nlm.nih.gov/cgi-bin/sis/search/r?dbs+hsdb:@term+@rn+@rel+88-73-3
   2. http://toxnet.nlm.nih.gov/cgi-bin/sis/search/r?dbs+hsdb:@term+@rn+@rel+88-73-3
   3. http://toxnet.nlm.nih.gov/cgi-bin/sis/search/r?dbs+hsdb:@term+@rn+@rel+88-73-3
   4. http://toxnet.nlm.nih.gov/cgi-bin/sis/search/r?dbs+hsdb:@term+@rn+@rel+88-73-3
   5. http://toxnet.nlm.nih.gov/cgi-bin/sis/search/r?dbs+hsdb:@term+@rn+@rel+88-73-3
   6. http://toxnet.nlm.nih.gov/cgi-bin/sis/search/r?dbs+hsdb:@term+@rn+@rel+88-73-3
   7. http://toxnet.nlm.nih.gov/cgi-bin/sis/search/r?dbs+hsdb:@term+@rn+@rel+88-73-3
   8. http://toxnet.nlm.nih.gov/cgi-bin/sis/search/r?dbs+hsdb:@term+@rn+@rel+88-73-3
   9. http://toxnet.nlm.nih.gov/cgi-bin/sis/search/r?dbs+hsdb:@term+@rn+@rel+88-73-3
  10. http://toxnet.nlm.nih.gov/cgi-bin/sis/search/r?dbs+hsdb:@term+@rn+@rel+88-73-3
  11. http://toxnet.nlm.nih.gov/cgi-bin/sis/search/r?dbs+hsdb:@term+@rn+@rel+88-73-3
  12. http://toxnet.nlm.nih.gov/cgi-bin/sis/search/r?dbs+hsdb:@term+@rn+@rel+88-73-3
  13. http://toxnet.nlm.nih.gov/cgi-bin/sis/search/r?dbs+hsdb:@term+@rn+@rel+88-73-3
  14. http://pubchem.ncbi.nlm.nih.gov/vw3d/vw3d.cgi?cid=6945
