   Color/Form
        Crystals from ether
   from [1]HSDB

   Melting Point
        118-118.7 deg C
   from [2]HSDB

   Dissociation Constants
        pKa = 10.25
   from [3]HSDB

   Octanol/Water Partition Coefficient
        log Kow = 0.89 [Kril MB, Fung HL; J Pharm Sci 79: 440-443 (1990)]
   [4]PubMed Abstract
   from [5]HSDB

   pH
        AQ SOLN (1 IN 200) 10.8
   from [6]HSDB

   Solubilities

     * In water, 1.06X10+5 mg/L at 25 deg C (est)
     * Sparingly sol in water; freely sol in alc or ether
     * VERY SOL IN BENZENE

   from [7]HSDB

   Spectral Properties
        Specific optical rotation: +51.2 deg at 20 deg C/D (in ethanol)
   from [8]HSDB

   Vapor Pressure
        8.3X10-4 mm Hg at 25 deg C (est)
   from [9]HSDB

   Other Chemical/Physical Properties

     * FINE, WHITE TO OFF-WHITE CRYSTALS OR POWDER; FAINT CHARACTERISTIC
       ODOR; MP: 182-185 DEG C; SOLN ARE NEUTRAL TO LITMUS /HCL/
     * OCCURS AS DL, D & L ISOMERS
     * Needles, mp 182.5-183.5 deg C. Specific optical rotation: +62.05 at
       20 deg C/D. UV max (ethanol): 208, 251, 257, 264 nm (epsilon 8300,
       161, 201, 161). pKa: 9.22. Solubility at 25 deg C,(g/mL): water
       2.0; chloroform 0.011; ethanol 0.278. Partition coefficient (25 deg
       C): 0.010 (n-octanol/water, pH 1.2); 0.049 (n-octanol/water, pH
       6.0). /Hydrochloride/
     * Henry's Law constant = 8.65X10-11 atm-cu m/mol at 25 deg C (est)
     * Hydroxyl radical reaction rate constant = 9.97X10-11 cu
       cm/molec-sec at 25 deg C (est)

   from [10]HSDB

   Computed Properties
   Molecular Weight                  165.2322 [g/mol]
   Molecular Formula                 C[10]H[15]NO
   XLogP3                            0.9
   H-Bond Donor                      2
   H-Bond Acceptor                   2
   Rotatable Bond Count              3
   Exact Mass                        165.115364
   MonoIsotopic Mass                 165.115364
   Topological Polar Surface Area    32.3
   Heavy Atom Count                  12
   Formal Charge                     0
   Complexity                        121
   Isotope Atom Count                0
   Defined Atom Stereocenter Count   2
   Undefined Atom Stereocenter Count 0
   Defined Bond Stereocenter Count   0
   Undefined Bond Stereocenter Count 0
   Covalently-Bonded Unit Count      1
   Feature 3D Acceptor Count         1
   Feature 3D Donor Count            2
   Feature 3D Cation Count           1
   Feature 3D Ring Count             1
   Effective Rotor Count             3
   Conformer Sampling RMSD           0.6
   CID Conformer Count               [11]7

References

   1. http://toxnet.nlm.nih.gov/cgi-bin/sis/search/r?dbs+hsdb:@term+@rn+@rel+90-82-4
   2. http://toxnet.nlm.nih.gov/cgi-bin/sis/search/r?dbs+hsdb:@term+@rn+@rel+90-82-4
   3. http://toxnet.nlm.nih.gov/cgi-bin/sis/search/r?dbs+hsdb:@term+@rn+@rel+90-82-4
   4. http://www.ncbi.nlm.nih.gov/entrez/query.fcgi?cmd=Retrieve&db=pubmed&dopt=Abstract&list_uids=2352166
   5. http://toxnet.nlm.nih.gov/cgi-bin/sis/search/r?dbs+hsdb:@term+@rn+@rel+90-82-4
   6. http://toxnet.nlm.nih.gov/cgi-bin/sis/search/r?dbs+hsdb:@term+@rn+@rel+90-82-4
   7. http://toxnet.nlm.nih.gov/cgi-bin/sis/search/r?dbs+hsdb:@term+@rn+@rel+90-82-4
   8. http://toxnet.nlm.nih.gov/cgi-bin/sis/search/r?dbs+hsdb:@term+@rn+@rel+90-82-4
   9. http://toxnet.nlm.nih.gov/cgi-bin/sis/search/r?dbs+hsdb:@term+@rn+@rel+90-82-4
  10. http://toxnet.nlm.nih.gov/cgi-bin/sis/search/r?dbs+hsdb:@term+@rn+@rel+90-82-4
  11. http://pubchem.ncbi.nlm.nih.gov/vw3d/vw3d.cgi?cid=7028
