11290
  -OEChem-06261205292D

 55 57  0     1  0  0  0  0  0999 V2000
    3.1890    0.3100    0.0000 O   0  0  0  0  0  0  0  0  0  0  0  0
    4.0550    2.8100    0.0000 O   0  0  0  0  0  0  0  0  0  0  0  0
    1.4569    1.3100    0.0000 O   0  0  0  0  0  0  0  0  0  0  0  0
    5.7870    1.8100    0.0000 O   0  0  0  0  0  0  0  0  0  0  0  0
    2.3229    2.8100    0.0000 O   0  0  0  0  0  0  0  0  0  0  0  0
    4.9210    0.3100    0.0000 O   0  0  0  0  0  0  0  0  0  0  0  0
    5.6607    6.9328    0.0000 N   0  0  3  0  0  0  0  0  0  0  0  0
    3.1333    8.0570    0.0000 C   0  0  3  0  0  0  0  0  0  0  0  0
    3.9423    7.4692    0.0000 C   0  0  0  0  0  0  0  0  0  0  0  0
    3.6333    6.5182    0.0000 C   0  0  0  0  0  0  0  0  0  0  0  0
    4.9577    7.7015    0.0000 C   0  0  0  0  0  0  0  0  0  0  0  0
    4.3183    5.7334    0.0000 C   0  0  0  0  0  0  0  0  0  0  0  0
    2.3243    7.4692    0.0000 C   0  0  0  0  0  0  0  0  0  0  0  0
    2.6333    6.5182    0.0000 C   0  0  0  0  0  0  0  0  0  0  0  0
    5.3388    5.9421    0.0000 C   0  0  0  0  0  0  0  0  0  0  0  0
    3.1333    9.0570    0.0000 C   0  0  0  0  0  0  0  0  0  0  0  0
    1.3089    7.7015    0.0000 C   0  0  0  0  0  0  0  0  0  0  0  0
    1.9483    5.7334    0.0000 C   0  0  0  0  0  0  0  0  0  0  0  0
    6.6380    7.1445    0.0000 C   0  0  0  0  0  0  0  0  0  0  0  0
    3.9993    9.5570    0.0000 C   0  0  0  0  0  0  0  0  0  0  0  0
    2.2673    9.5570    0.0000 C   0  0  0  0  0  0  0  0  0  0  0  0
    0.6060    6.9328    0.0000 C   0  0  0  0  0  0  0  0  0  0  0  0
    0.9278    5.9421    0.0000 C   0  0  0  0  0  0  0  0  0  0  0  0
    3.9993   10.5570    0.0000 C   0  0  0  0  0  0  0  0  0  0  0  0
    2.2673   10.5570    0.0000 C   0  0  0  0  0  0  0  0  0  0  0  0
    3.1333   11.0570    0.0000 C   0  0  0  0  0  0  0  0  0  0  0  0
    3.1890    1.3100    0.0000 C   0  0  2  0  0  0  0  0  0  0  0  0
    4.0550    1.8100    0.0000 C   0  0  2  0  0  0  0  0  0  0  0  0
    4.9210    1.3100    0.0000 C   0  0  0  0  0  0  0  0  0  0  0  0
    2.3229    1.8100    0.0000 C   0  0  0  0  0  0  0  0  0  0  0  0
    3.6857    8.3385    0.0000 H   0  0  0  0  0  0  0  0  0  0  0  0
    5.4801    8.0354    0.0000 H   0  0  0  0  0  0  0  0  0  0  0  0
    4.7181    8.2733    0.0000 H   0  0  0  0  0  0  0  0  0  0  0  0
    3.7883    5.4116    0.0000 H   0  0  0  0  0  0  0  0  0  0  0  0
    4.5446    5.1562    0.0000 H   0  0  0  0  0  0  0  0  0  0  0  0
    5.3572    5.3224    0.0000 H   0  0  0  0  0  0  0  0  0  0  0  0
    5.9525    5.8543    0.0000 H   0  0  0  0  0  0  0  0  0  0  0  0
    1.1241    8.2933    0.0000 H   0  0  0  0  0  0  0  0  0  0  0  0
    2.1467    5.1460    0.0000 H   0  0  0  0  0  0  0  0  0  0  0  0
    6.7692    6.5385    0.0000 H   0  0  0  0  0  0  0  0  0  0  0  0
    7.2440    7.2757    0.0000 H   0  0  0  0  0  0  0  0  0  0  0  0
    6.5068    7.7504    0.0000 H   0  0  0  0  0  0  0  0  0  0  0  0
    4.5363    9.2470    0.0000 H   0  0  0  0  0  0  0  0  0  0  0  0
    1.7304    9.2470    0.0000 H   0  0  0  0  0  0  0  0  0  0  0  0
    0.0000    7.0640    0.0000 H   0  0  0  0  0  0  0  0  0  0  0  0
    0.5148    5.4798    0.0000 H   0  0  0  0  0  0  0  0  0  0  0  0
    4.5363   10.8670    0.0000 H   0  0  0  0  0  0  0  0  0  0  0  0
    1.7304   10.8670    0.0000 H   0  0  0  0  0  0  0  0  0  0  0  0
    3.1333   11.6770    0.0000 H   0  0  0  0  0  0  0  0  0  0  0  0
    3.7259    1.0000    0.0000 H   0  0  0  0  0  0  0  0  0  0  0  0
    4.5919    2.1200    0.0000 H   0  0  0  0  0  0  0  0  0  0  0  0
    2.6520    0.0000    0.0000 H   0  0  0  0  0  0  0  0  0  0  0  0
    4.5919    3.1200    0.0000 H   0  0  0  0  0  0  0  0  0  0  0  0
    0.9200    1.6200    0.0000 H   0  0  0  0  0  0  0  0  0  0  0  0
    6.3240    1.5000    0.0000 H   0  0  0  0  0  0  0  0  0  0  0  0
 27  1  1  1  0  0  0
  1 52  1  0  0  0  0
 28  2  1  1  0  0  0
  2 53  1  0  0  0  0
  3 30  1  0  0  0  0
  3 54  1  0  0  0  0
  4 29  1  0  0  0  0
  4 55  1  0  0  0  0
  5 30  2  0  0  0  0
  6 29  2  0  0  0  0
  7 11  1  0  0  0  0
  7 15  1  0  0  0  0
  7 19  1  0  0  0  0
  8  9  1  0  0  0  0
  8 13  1  0  0  0  0
  8 16  1  0  0  0  0
  8 31  1  0  0  0  0
  9 10  2  0  0  0  0
  9 11  1  0  0  0  0
 10 12  1  0  0  0  0
 10 14  1  0  0  0  0
 11 32  1  0  0  0  0
 11 33  1  0  0  0  0
 12 15  1  0  0  0  0
 12 34  1  0  0  0  0
 12 35  1  0  0  0  0
 13 14  1  0  0  0  0
 13 17  2  0  0  0  0
 14 18  2  0  0  0  0
 15 36  1  0  0  0  0
 15 37  1  0  0  0  0
 16 20  2  0  0  0  0
 16 21  1  0  0  0  0
 17 22  1  0  0  0  0
 17 38  1  0  0  0  0
 18 23  1  0  0  0  0
 18 39  1  0  0  0  0
 19 40  1  0  0  0  0
 19 41  1  0  0  0  0
 19 42  1  0  0  0  0
 20 24  1  0  0  0  0
 20 43  1  0  0  0  0
 21 25  2  0  0  0  0
 21 44  1  0  0  0  0
 22 23  2  0  0  0  0
 22 45  1  0  0  0  0
 23 46  1  0  0  0  0
 24 26  2  0  0  0  0
 24 47  1  0  0  0  0
 25 26  1  0  0  0  0
 25 48  1  0  0  0  0
 26 49  1  0  0  0  0
 27 28  1  0  0  0  0
 27 30  1  0  0  0  0
 27 50  1  0  0  0  0
 28 29  1  0  0  0  0
 28 51  1  0  0  0  0
M  END
> <PUBCHEM_COMPOUND_CID>
11290

> <PUBCHEM_COMPOUND_CANONICALIZED>
1

> <PUBCHEM_CACTVS_COMPLEXITY>
524

> <PUBCHEM_CACTVS_HBOND_ACCEPTOR>
7

> <PUBCHEM_CACTVS_HBOND_DONOR>
4

> <PUBCHEM_CACTVS_ROTATABLE_BOND>
4

> <PUBCHEM_CACTVS_SUBSKEYS>
AAADceB6OAAAAAAAAAAAAAAAAAAAAQAAAAAwYIAAAAAAAFgBQAAAHgAACAAADRThmAYyCIMAAgCIAiDSCAKCAAAgAAAIiAFIAIgJMDaAkRCEYAAloACJiAdTgMAOgAAAAAAQAAAAAAAAACAAAAAAAAAAAA==

> <PUBCHEM_IUPAC_OPENEYE_NAME>
(2R,3R)-2,3-dihydroxybutanedioic acid; 2-methyl-9-phenyl-1,3,4,9-tetrahydroindeno[2,1-c]pyridine

> <PUBCHEM_IUPAC_CAS_NAME>
(2R,3R)-2,3-dihydroxybutanedioic acid; 2-methyl-9-phenyl-1,3,4,9-tetrahydroindeno[2,1-c]pyridine

> <PUBCHEM_IUPAC_NAME>
(2R,3R)-2,3-dihydroxybutanedioic acid; 2-methyl-9-phenyl-1,3,4,9-tetrahydroindeno[2,1-c]pyridine

> <PUBCHEM_IUPAC_SYSTEMATIC_NAME>
(2R,3R)-2,3-bis(oxidanyl)butanedioic acid; 2-methyl-9-phenyl-1,3,4,9-tetrahydroindeno[2,1-c]pyridine

> <PUBCHEM_IUPAC_TRADITIONAL_NAME>
(2R,3R)-2,3-dihydroxysuccinic acid; 2-methyl-9-phenyl-1,3,4,9-tetrahydroindeno[2,1-c]pyridine

> <PUBCHEM_IUPAC_INCHI>
InChI=1S/C19H19N.C4H6O6/c1-20-12-11-16-15-9-5-6-10-17(15)19(18(16)13-20)14-7-3-2-4-8-14;5-1(3(7)8)2(6)4(9)10/h2-10,19H,11-13H2,1H3;1-2,5-6H,(H,7,8)(H,9,10)/t;1-,2-/m.1/s1

> <PUBCHEM_IUPAC_INCHIKEY>
WFXURHIXPXVPGM-LREBCSMRSA-N

> <PUBCHEM_EXACT_MASS>
411.168188

> <PUBCHEM_MOLECULAR_FORMULA>
C23H25NO6

> <PUBCHEM_MOLECULAR_WEIGHT>
411.4477

> <PUBCHEM_OPENEYE_CAN_SMILES>
CN1CCC2=C(C1)C(C3=CC=CC=C23)C4=CC=CC=C4.C(C(C(=O)O)O)(C(=O)O)O

> <PUBCHEM_OPENEYE_ISO_SMILES>
CN1CCC2=C(C1)C(C3=CC=CC=C23)C4=CC=CC=C4.[C@@H]([C@H](C(=O)O)O)(C(=O)O)O

> <PUBCHEM_CACTVS_TPSA>
118

> <PUBCHEM_MONOISOTOPIC_WEIGHT>
411.168188

> <PUBCHEM_TOTAL_CHARGE>
0

> <PUBCHEM_HEAVY_ATOM_COUNT>
30

> <PUBCHEM_ATOM_DEF_STEREO_COUNT>
2

> <PUBCHEM_ATOM_UDEF_STEREO_COUNT>
1

> <PUBCHEM_BOND_DEF_STEREO_COUNT>
0

> <PUBCHEM_BOND_UDEF_STEREO_COUNT>
0

> <PUBCHEM_ISOTOPIC_ATOM_COUNT>
0

> <PUBCHEM_COMPONENT_COUNT>
2

> <PUBCHEM_CACTVS_TAUTO_COUNT>
1

> <PUBCHEM_COORDINATE_TYPE>
1
5
255

> <PUBCHEM_BONDANNOTATIONS>
27  1  5
13  14  8
13  17  8
14  18  8
16  20  8
16  21  8
17  22  8
18  23  8
28  2  5
20  24  8
21  25  8
22  23  8
24  26  8
25  26  8
8  16  3

$$$$

