5282071
  -OEChem-07051213022D

125128  0     1  0  0  0  0  0999 V2000
    7.9782   -2.5095    0.0000 O   0  0  0  0  0  0  0  0  0  0  0  0
    6.7512   -3.9623    0.0000 O   0  0  0  0  0  0  0  0  0  0  0  0
    5.3801   -2.0095    0.0000 O   0  0  0  0  0  0  0  0  0  0  0  0
    7.9782   -1.5095    0.0000 O   0  0  0  0  0  0  0  0  0  0  0  0
    7.8978   -0.3456    0.0000 O   0  0  0  0  0  0  0  0  0  0  0  0
    6.8978    4.8506    0.0000 O   0  0  0  0  0  0  0  0  0  0  0  0
   10.3531   -3.2755    0.0000 O   0  0  0  0  0  0  0  0  0  0  0  0
    4.8978    4.8506    0.0000 O   0  0  0  0  0  0  0  0  0  0  0  0
   11.4423   -2.5095    0.0000 O   0  0  0  0  0  0  0  0  0  0  0  0
    4.8978   -0.3456    0.0000 O   0  0  0  0  0  0  0  0  0  0  0  0
    9.7427   -1.4486    0.0000 O   0  0  0  0  0  0  0  0  0  0  0  0
    3.2247   -1.6294    0.0000 O   0  0  0  0  0  0  0  0  0  0  0  0
   10.5763   -1.0095    0.0000 N   0  0  0  0  0  0  0  0  0  0  0  0
    7.1122   -2.0095    0.0000 C   0  0  1  0  0  0  0  0  0  0  0  0
    8.8560   -3.0253    0.0000 C   0  0  2  0  0  0  0  0  0  0  0  0
    7.1004   -3.0253    0.0000 C   0  0  2  0  0  0  0  0  0  0  0  0
    7.9782   -3.5366    0.0000 C   0  0  0  0  0  0  0  0  0  0  0  0
    8.8442   -2.0095    0.0000 C   0  0  2  0  0  0  0  0  0  0  0  0
    6.2462   -2.5095    0.0000 C   0  0  2  0  0  0  0  0  0  0  0  0
    6.2462   -3.5095    0.0000 C   0  0  0  0  0  0  0  0  0  0  0  0
    5.3801   -4.0095    0.0000 C   0  0  2  0  0  0  0  0  0  0  0  0
    9.2052   -3.9623    0.0000 C   0  0  0  0  0  0  0  0  0  0  0  0
    6.3978    2.2525    0.0000 C   0  0  1  0  0  0  0  0  0  0  0  0
    9.7103   -2.5095    0.0000 C   0  0  0  0  0  0  0  0  0  0  0  0
    6.8978    3.1185    0.0000 C   0  0  0  0  0  0  0  0  0  0  0  0
    5.3978    2.2525    0.0000 C   0  0  0  0  0  0  0  0  0  0  0  0
    6.3978    3.9845    0.0000 C   0  0  2  0  0  0  0  0  0  0  0  0
    5.3978    3.9845    0.0000 C   0  0  1  0  0  0  0  0  0  0  0  0
    4.8978    3.1185    0.0000 C   0  0  0  0  0  0  0  0  0  0  0  0
    9.7103   -0.5095    0.0000 C   0  0  1  0  0  0  0  0  0  0  0  0
    5.3801   -5.0095    0.0000 C   0  0  0  0  0  0  0  0  0  0  0  0
   10.5763   -2.0095    0.0000 C   0  0  0  0  0  0  0  0  0  0  0  0
    6.8978   -0.3456    0.0000 C   0  0  1  0  0  0  0  0  0  0  0  0
    9.7103    0.4905    0.0000 C   0  0  0  0  0  0  0  0  0  0  0  0
   11.4423   -0.5095    0.0000 C   0  0  0  0  0  0  0  0  0  0  0  0
    6.3978   -1.2116    0.0000 C   0  0  1  0  0  0  0  0  0  0  0  0
    6.8978    1.3865    0.0000 C   0  0  0  0  0  0  0  0  0  0  0  0
   10.5763    0.9905    0.0000 C   0  0  0  0  0  0  0  0  0  0  0  0
   11.4423    0.4905    0.0000 C   0  0  0  0  0  0  0  0  0  0  0  0
    6.3978    0.5204    0.0000 C   0  0  0  0  0  0  0  0  0  0  0  0
    5.3801   -3.0095    0.0000 C   0  0  0  0  0  0  0  0  0  0  0  0
    5.3978   -1.2116    0.0000 C   0  0  2  0  0  0  0  0  0  0  0  0
    8.8442   -1.0095    0.0000 C   0  0  0  0  0  0  0  0  0  0  0  0
    4.3801   -5.0095    0.0000 C   0  0  0  0  0  0  0  0  0  0  0  0
    7.3881   -4.7332    0.0000 C   0  0  0  0  0  0  0  0  0  0  0  0
    4.8978   -2.0776    0.0000 C   0  0  0  0  0  0  0  0  0  0  0  0
    4.6141   -2.6522    0.0000 C   0  0  0  0  0  0  0  0  0  0  0  0
    5.8228   -2.2075    0.0000 C   0  0  0  0  0  0  0  0  0  0  0  0
    3.6730   -3.3024    0.0000 C   0  0  2  0  0  0  0  0  0  0  0  0
    5.3978    0.5204    0.0000 C   0  0  0  0  0  0  0  0  0  0  0  0
    4.3801   -4.0095    0.0000 C   0  0  0  0  0  0  0  0  0  0  0  0
    3.9318   -2.3364    0.0000 C   0  0  0  0  0  0  0  0  0  0  0  0
    3.6730   -5.7166    0.0000 C   0  0  0  0  0  0  0  0  0  0  0  0
    2.7071   -3.5612    0.0000 C   0  0  0  0  0  0  0  0  0  0  0  0
    6.3978    5.7166    0.0000 C   0  0  0  0  0  0  0  0  0  0  0  0
    2.0000   -2.8541    0.0000 C   0  0  0  0  0  0  0  0  0  0  0  0
    7.1171   -1.1595    0.0000 H   0  0  0  0  0  0  0  0  0  0  0  0
    9.4655   -2.9117    0.0000 H   0  0  0  0  0  0  0  0  0  0  0  0
    6.4909   -2.9117    0.0000 H   0  0  0  0  0  0  0  0  0  0  0  0
    7.5791   -4.0110    0.0000 H   0  0  0  0  0  0  0  0  0  0  0  0
    8.3774   -4.0110    0.0000 H   0  0  0  0  0  0  0  0  0  0  0  0
    6.2462   -1.8895    0.0000 H   0  0  0  0  0  0  0  0  0  0  0  0
    6.4582   -4.0921    0.0000 H   0  0  0  0  0  0  0  0  0  0  0  0
    6.8568   -3.4018    0.0000 H   0  0  0  0  0  0  0  0  0  0  0  0
    4.7601   -4.0095    0.0000 H   0  0  0  0  0  0  0  0  0  0  0  0
    8.6243   -4.1788    0.0000 H   0  0  0  0  0  0  0  0  0  0  0  0
    9.4218   -4.5432    0.0000 H   0  0  0  0  0  0  0  0  0  0  0  0
    9.7862   -3.7457    0.0000 H   0  0  0  0  0  0  0  0  0  0  0  0
    7.0178    2.2525    0.0000 H   0  0  0  0  0  0  0  0  0  0  0  0
    7.3727    2.7200    0.0000 H   0  0  0  0  0  0  0  0  0  0  0  0
    7.3727    3.5170    0.0000 H   0  0  0  0  0  0  0  0  0  0  0  0
    4.8152    2.0404    0.0000 H   0  0  0  0  0  0  0  0  0  0  0  0
    5.5054    1.6419    0.0000 H   0  0  0  0  0  0  0  0  0  0  0  0
    7.0178    3.9845    0.0000 H   0  0  0  0  0  0  0  0  0  0  0  0
    4.7778    3.9845    0.0000 H   0  0  0  0  0  0  0  0  0  0  0  0
    4.4228    3.5170    0.0000 H   0  0  0  0  0  0  0  0  0  0  0  0
    4.4228    2.7200    0.0000 H   0  0  0  0  0  0  0  0  0  0  0  0
    8.9741   -0.0845    0.0000 H   0  0  0  0  0  0  0  0  0  0  0  0
    5.3801   -5.6295    0.0000 H   0  0  0  0  0  0  0  0  0  0  0  0
    6.0001   -5.0095    0.0000 H   0  0  0  0  0  0  0  0  0  0  0  0
    7.2078    0.1914    0.0000 H   0  0  0  0  0  0  0  0  0  0  0  0
    9.4982    1.0731    0.0000 H   0  0  0  0  0  0  0  0  0  0  0  0
    9.0997    0.3829    0.0000 H   0  0  0  0  0  0  0  0  0  0  0  0
    8.1903   -0.9269    0.0000 H   0  0  0  0  0  0  0  0  0  0  0  0
   11.6544   -1.0921    0.0000 H   0  0  0  0  0  0  0  0  0  0  0  0
   12.0529   -0.4018    0.0000 H   0  0  0  0  0  0  0  0  0  0  0  0
    6.9347   -1.5216    0.0000 H   0  0  0  0  0  0  0  0  0  0  0  0
    7.5178    1.3865    0.0000 H   0  0  0  0  0  0  0  0  0  0  0  0
   10.9748    1.4655    0.0000 H   0  0  0  0  0  0  0  0  0  0  0  0
   10.1778    1.4655    0.0000 H   0  0  0  0  0  0  0  0  0  0  0  0
   12.0529    0.3829    0.0000 H   0  0  0  0  0  0  0  0  0  0  0  0
   11.6544    1.0731    0.0000 H   0  0  0  0  0  0  0  0  0  0  0  0
    6.0001   -3.0095    0.0000 H   0  0  0  0  0  0  0  0  0  0  0  0
    5.3801   -2.3895    0.0000 H   0  0  0  0  0  0  0  0  0  0  0  0
    4.7601   -3.0095    0.0000 H   0  0  0  0  0  0  0  0  0  0  0  0
    4.7778   -1.2116    0.0000 H   0  0  0  0  0  0  0  0  0  0  0  0
    6.9101   -5.1281    0.0000 H   0  0  0  0  0  0  0  0  0  0  0  0
    7.7830   -5.2112    0.0000 H   0  0  0  0  0  0  0  0  0  0  0  0
    7.8661   -4.3384    0.0000 H   0  0  0  0  0  0  0  0  0  0  0  0
    4.8978   -2.6976    0.0000 H   0  0  0  0  0  0  0  0  0  0  0  0
    5.4966   -2.2381    0.0000 H   0  0  0  0  0  0  0  0  0  0  0  0
    4.2156   -2.1773    0.0000 H   0  0  0  0  0  0  0  0  0  0  0  0
    4.1391   -3.0508    0.0000 H   0  0  0  0  0  0  0  0  0  0  0  0
    5.0126   -3.1272    0.0000 H   0  0  0  0  0  0  0  0  0  0  0  0
    5.2858   -1.8975    0.0000 H   0  0  0  0  0  0  0  0  0  0  0  0
    5.5128   -2.7445    0.0000 H   0  0  0  0  0  0  0  0  0  0  0  0
    6.3597   -2.5175    0.0000 H   0  0  0  0  0  0  0  0  0  0  0  0
    3.5126   -3.9012    0.0000 H   0  0  0  0  0  0  0  0  0  0  0  0
    5.3978    1.1404    0.0000 H   0  0  0  0  0  0  0  0  0  0  0  0
    4.7778    0.5204    0.0000 H   0  0  0  0  0  0  0  0  0  0  0  0
    5.3978   -0.0996    0.0000 H   0  0  0  0  0  0  0  0  0  0  0  0
    4.8372   -3.5906    0.0000 H   0  0  0  0  0  0  0  0  0  0  0  0
    4.2778    4.8506    0.0000 H   0  0  0  0  0  0  0  0  0  0  0  0
    3.2346   -5.2782    0.0000 H   0  0  0  0  0  0  0  0  0  0  0  0
    3.2346   -6.1550    0.0000 H   0  0  0  0  0  0  0  0  0  0  0  0
    4.1114   -6.1550    0.0000 H   0  0  0  0  0  0  0  0  0  0  0  0
    2.1992   -3.9168    0.0000 H   0  0  0  0  0  0  0  0  0  0  0  0
    2.9691   -4.1231    0.0000 H   0  0  0  0  0  0  0  0  0  0  0  0
    6.9347    6.0266    0.0000 H   0  0  0  0  0  0  0  0  0  0  0  0
    6.0878    6.2535    0.0000 H   0  0  0  0  0  0  0  0  0  0  0  0
    5.8608    5.4066    0.0000 H   0  0  0  0  0  0  0  0  0  0  0  0
    4.2778   -0.3456    0.0000 H   0  0  0  0  0  0  0  0  0  0  0  0
    2.4384   -2.4157    0.0000 H   0  0  0  0  0  0  0  0  0  0  0  0
    1.5616   -2.4157    0.0000 H   0  0  0  0  0  0  0  0  0  0  0  0
    1.5616   -3.2925    0.0000 H   0  0  0  0  0  0  0  0  0  0  0  0
  1 14  1  0  0  0  0
  1 18  1  0  0  0  0
 16  2  1  6  0  0  0
  2 45  1  0  0  0  0
 19  3  1  6  0  0  0
  3 47  1  0  0  0  0
 18  4  1  6  0  0  0
  4 84  1  0  0  0  0
  5 33  1  0  0  0  0
  5 43  1  0  0  0  0
 27  6  1  6  0  0  0
  6 55  1  0  0  0  0
  7 24  2  0  0  0  0
 28  8  1  1  0  0  0
  8113  1  0  0  0  0
  9 32  2  0  0  0  0
 42 10  1  6  0  0  0
 10122  1  0  0  0  0
 11 43  2  0  0  0  0
 12 52  2  0  0  0  0
 13 30  1  0  0  0  0
 13 32  1  0  0  0  0
 13 35  1  0  0  0  0
 14 16  1  0  0  0  0
 14 19  1  0  0  0  0
 14 57  1  6  0  0  0
 15 17  1  0  0  0  0
 15 18  1  0  0  0  0
 15 22  1  6  0  0  0
 15 58  1  0  0  0  0
 16 17  1  0  0  0  0
 16 59  1  0  0  0  0
 17 60  1  0  0  0  0
 17 61  1  0  0  0  0
 18 24  1  0  0  0  0
 19 20  1  0  0  0  0
 19 62  1  0  0  0  0
 20 21  1  0  0  0  0
 20 63  1  0  0  0  0
 20 64  1  0  0  0  0
 21 31  1  0  0  0  0
 21 41  1  6  0  0  0
 21 65  1  0  0  0  0
 22 66  1  0  0  0  0
 22 67  1  0  0  0  0
 22 68  1  0  0  0  0
 23 25  1  0  0  0  0
 23 26  1  0  0  0  0
 23 37  1  6  0  0  0
 23 69  1  0  0  0  0
 24 32  1  0  0  0  0
 25 27  1  0  0  0  0
 25 70  1  0  0  0  0
 25 71  1  0  0  0  0
 26 29  1  0  0  0  0
 26 72  1  0  0  0  0
 26 73  1  0  0  0  0
 27 28  1  0  0  0  0
 27 74  1  0  0  0  0
 28 29  1  0  0  0  0
 28 75  1  0  0  0  0
 29 76  1  0  0  0  0
 29 77  1  0  0  0  0
 30 34  1  0  0  0  0
 30 43  1  0  0  0  0
 30 78  1  1  0  0  0
 31 44  1  0  0  0  0
 31 79  1  0  0  0  0
 31 80  1  0  0  0  0
 33 36  1  0  0  0  0
 33 40  1  1  0  0  0
 33 81  1  0  0  0  0
 34 38  1  0  0  0  0
 34 82  1  0  0  0  0
 34 83  1  0  0  0  0
 35 39  1  0  0  0  0
 35 85  1  0  0  0  0
 35 86  1  0  0  0  0
 36 42  1  0  0  0  0
 36 48  1  6  0  0  0
 36 87  1  0  0  0  0
 37 40  2  0  0  0  0
 37 88  1  0  0  0  0
 38 39  1  0  0  0  0
 38 89  1  0  0  0  0
 38 90  1  0  0  0  0
 39 91  1  0  0  0  0
 39 92  1  0  0  0  0
 40 50  1  0  0  0  0
 41 93  1  0  0  0  0
 41 94  1  0  0  0  0
 41 95  1  0  0  0  0
 42 46  1  0  0  0  0
 42 96  1  0  0  0  0
 44 51  2  0  0  0  0
 44 53  1  0  0  0  0
 45 97  1  0  0  0  0
 45 98  1  0  0  0  0
 45 99  1  0  0  0  0
 46 52  1  0  0  0  0
 46100  1  0  0  0  0
 46101  1  0  0  0  0
 47102  1  0  0  0  0
 47103  1  0  0  0  0
 47104  1  0  0  0  0
 48105  1  0  0  0  0
 48106  1  0  0  0  0
 48107  1  0  0  0  0
 49 51  1  0  0  0  0
 49 52  1  0  0  0  0
 49 54  1  1  0  0  0
 49108  1  0  0  0  0
 50109  1  0  0  0  0
 50110  1  0  0  0  0
 50111  1  0  0  0  0
 51112  1  0  0  0  0
 53114  1  0  0  0  0
 53115  1  0  0  0  0
 53116  1  0  0  0  0
 54 56  1  0  0  0  0
 54117  1  0  0  0  0
 54118  1  0  0  0  0
 55119  1  0  0  0  0
 55120  1  0  0  0  0
 55121  1  0  0  0  0
 56123  1  0  0  0  0
 56124  1  0  0  0  0
 56125  1  0  0  0  0
M  END
> <PUBCHEM_COMPOUND_CID>
5282071

> <PUBCHEM_COMPOUND_CANONICALIZED>
1

> <PUBCHEM_CACTVS_COMPLEXITY>
1430

> <PUBCHEM_CACTVS_HBOND_ACCEPTOR>
12

> <PUBCHEM_CACTVS_HBOND_DONOR>
3

> <PUBCHEM_CACTVS_ROTATABLE_BOND>
6

> <PUBCHEM_CACTVS_SUBSKEYS>
AAADcfB+PAAAAAAAAAAAAAAAAAAAAAAAAAA8SIAAAAAAAAAAAAAAHgAACAAADTzhgAYCCAMABgCIAqHSGAIAAAAgAAAACAHIAAgTFBYAoSQHUAAHpgCfIAPY7PTOAAAAAAAAAABAAAIAAACAAAAAAAAAAA==

> <PUBCHEM_IUPAC_INCHI>
InChI=1S/C43H69NO12/c1-10-30-18-24(2)17-25(3)19-36(53-8)39-37(54-9)21-27(5)43(51,56-39)40(48)41(49)44-16-12-11-13-31(44)42(50)55-38(28(6)33(46)23-34(30)47)26(4)20-29-14-15-32(45)35(22-29)52-7/h18,20,25,27-33,35-39,45-46,51H,10-17,19,21-23H2,1-9H3/b24-18+,26-20+/t25-,27+,28+,29-,30+,31-,32+,33-,35+,36-,37-,38+,39+,43+/m0/s1

> <PUBCHEM_IUPAC_INCHIKEY>
ZDQSOHOQTUFQEM-NURRSENYSA-N

> <PUBCHEM_XLOGP3>
2.5

> <PUBCHEM_EXACT_MASS>
791.481977

> <PUBCHEM_MOLECULAR_FORMULA>
C43H69NO12

> <PUBCHEM_MOLECULAR_WEIGHT>
792.00746

> <PUBCHEM_OPENEYE_CAN_SMILES>
CCC1C=C(CC(CC(C2C(CC(C(O2)(C(=O)C(=O)N3CCCCC3C(=O)OC(C(C(CC1=O)O)C)C(=CC4CCC(C(C4)OC)O)C)O)C)OC)OC)C)C

> <PUBCHEM_OPENEYE_ISO_SMILES>
CC[C@@H]1/C=C(/C[C@@H](C[C@@H]([C@@H]2[C@H](C[C@H]([C@@](O2)(C(=O)C(=O)N3CCCC[C@H]3C(=O)O[C@@H]([C@@H]([C@H](CC1=O)O)C)/C(=C/[C@@H]4CC[C@H]([C@@H](C4)OC)O)/C)O)C)OC)OC)C)\C

> <PUBCHEM_CACTVS_TPSA>
178

> <PUBCHEM_MONOISOTOPIC_WEIGHT>
791.481977

> <PUBCHEM_TOTAL_CHARGE>
0

> <PUBCHEM_HEAVY_ATOM_COUNT>
56

> <PUBCHEM_ATOM_DEF_STEREO_COUNT>
14

> <PUBCHEM_ATOM_UDEF_STEREO_COUNT>
0

> <PUBCHEM_BOND_DEF_STEREO_COUNT>
2

> <PUBCHEM_BOND_UDEF_STEREO_COUNT>
0

> <PUBCHEM_ISOTOPIC_ATOM_COUNT>
0

> <PUBCHEM_COMPONENT_COUNT>
1

> <PUBCHEM_CACTVS_TAUTO_COUNT>
5

> <PUBCHEM_COORDINATE_TYPE>
1
5
255

> <PUBCHEM_BONDANNOTATIONS>
42  10  6
14  57  6
15  22  6
16  2  6
21  41  6
23  37  6
19  3  6
30  78  5
33  40  5
36  48  6
18  4  6
49  54  5
27  6  6
28  8  5

$$$$

