164611
  -OEChem-07051213152D

 43 47  0     1  0  0  0  0  0999 V2000
    2.5405   -0.5688    0.0000 O   0  0  0  0  0  0  0  0  0  0  0  0
    4.0768    3.5096    0.0000 O   0  0  0  0  0  0  0  0  0  0  0  0
    2.6249    2.6714    0.0000 O   0  0  0  0  0  0  0  0  0  0  0  0
    2.5247   -2.6170    0.0000 O   0  0  0  0  0  0  0  0  0  0  0  0
    6.9022   -1.0667    0.0000 N   0  0  3  0  0  0  0  0  0  0  0  0
    6.0427   -0.5719    0.0000 C   0  0  2  0  0  0  0  0  0  0  0  0
    5.1767   -1.0719    0.0000 C   0  0  0  0  0  0  0  0  0  0  0  0
    6.0427    0.4281    0.0000 C   0  0  0  0  0  0  0  0  0  0  0  0
    5.1928   -2.1134    0.0000 C   0  0  0  0  0  0  0  0  0  0  0  0
    4.3107   -0.5719    0.0000 C   0  0  0  0  0  0  0  0  0  0  0  0
    6.9156   -2.0583    0.0000 C   0  0  0  0  0  0  0  0  0  0  0  0
    6.0699   -2.5762    0.0000 C   0  0  0  0  0  0  0  0  0  0  0  0
    5.1767    0.9281    0.0000 C   0  0  0  0  0  0  0  0  0  0  0  0
    4.3107    0.4281    0.0000 C   0  0  0  0  0  0  0  0  0  0  0  0
    3.4007   -1.0787    0.0000 C   0  0  0  0  0  0  0  0  0  0  0  0
    4.2947   -2.6412    0.0000 C   0  0  0  0  0  0  0  0  0  0  0  0
    7.7645   -0.5603    0.0000 C   0  0  0  0  0  0  0  0  0  0  0  0
    5.1928    1.9696    0.0000 C   0  0  0  0  0  0  0  0  0  0  0  0
    3.3926   -2.1203    0.0000 C   0  0  0  0  0  0  0  0  0  0  0  0
    3.4007    0.9350    0.0000 C   0  0  0  0  0  0  0  0  0  0  0  0
    4.2947    2.4974    0.0000 C   0  0  0  0  0  0  0  0  0  0  0  0
    3.3926    1.9766    0.0000 C   0  0  0  0  0  0  0  0  0  0  0  0
    3.0469    3.6170    0.0000 C   0  0  0  0  0  0  0  0  0  0  0  0
    2.5208   -3.6170    0.0000 C   0  0  0  0  0  0  0  0  0  0  0  0
    6.7786   -0.1464    0.0000 H   0  0  0  0  0  0  0  0  0  0  0  0
    6.6533    0.3204    0.0000 H   0  0  0  0  0  0  0  0  0  0  0  0
    6.2548    1.0107    0.0000 H   0  0  0  0  0  0  0  0  0  0  0  0
    7.1403   -2.6361    0.0000 H   0  0  0  0  0  0  0  0  0  0  0  0
    7.5242   -1.9399    0.0000 H   0  0  0  0  0  0  0  0  0  0  0  0
    5.6877   -3.0644    0.0000 H   0  0  0  0  0  0  0  0  0  0  0  0
    6.4824   -3.0390    0.0000 H   0  0  0  0  0  0  0  0  0  0  0  0
    4.2971   -3.2612    0.0000 H   0  0  0  0  0  0  0  0  0  0  0  0
    8.0784   -1.0949    0.0000 H   0  0  0  0  0  0  0  0  0  0  0  0
    8.2991   -0.2463    0.0000 H   0  0  0  0  0  0  0  0  0  0  0  0
    7.4505   -0.0256    0.0000 H   0  0  0  0  0  0  0  0  0  0  0  0
    5.7332    2.2734    0.0000 H   0  0  0  0  0  0  0  0  0  0  0  0
    2.8674    0.6188    0.0000 H   0  0  0  0  0  0  0  0  0  0  0  0
    2.0000   -0.8725    0.0000 H   0  0  0  0  0  0  0  0  0  0  0  0
    3.1756    4.2235    0.0000 H   0  0  0  0  0  0  0  0  0  0  0  0
    2.4573    3.8088    0.0000 H   0  0  0  0  0  0  0  0  0  0  0  0
    1.9008   -3.6146    0.0000 H   0  0  0  0  0  0  0  0  0  0  0  0
    2.5184   -4.2370    0.0000 H   0  0  0  0  0  0  0  0  0  0  0  0
    3.1408   -3.6194    0.0000 H   0  0  0  0  0  0  0  0  0  0  0  0
  1 15  1  0  0  0  0
  1 38  1  0  0  0  0
  2 21  1  0  0  0  0
  2 23  1  0  0  0  0
  3 22  1  0  0  0  0
  3 23  1  0  0  0  0
  4 19  1  0  0  0  0
  4 24  1  0  0  0  0
  5  6  1  0  0  0  0
  5 11  1  0  0  0  0
  5 17  1  0  0  0  0
  6  7  1  0  0  0  0
  6  8  1  0  0  0  0
  6 25  1  1  0  0  0
  7  9  1  0  0  0  0
  7 10  2  0  0  0  0
  8 13  1  0  0  0  0
  8 26  1  0  0  0  0
  8 27  1  0  0  0  0
  9 12  1  0  0  0  0
  9 16  2  0  0  0  0
 10 14  1  0  0  0  0
 10 15  1  0  0  0  0
 11 12  1  0  0  0  0
 11 28  1  0  0  0  0
 11 29  1  0  0  0  0
 12 30  1  0  0  0  0
 12 31  1  0  0  0  0
 13 14  1  0  0  0  0
 13 18  2  0  0  0  0
 14 20  2  0  0  0  0
 15 19  2  0  0  0  0
 16 19  1  0  0  0  0
 16 32  1  0  0  0  0
 17 33  1  0  0  0  0
 17 34  1  0  0  0  0
 17 35  1  0  0  0  0
 18 21  1  0  0  0  0
 18 36  1  0  0  0  0
 20 22  1  0  0  0  0
 20 37  1  0  0  0  0
 21 22  2  0  0  0  0
 23 39  1  0  0  0  0
 23 40  1  0  0  0  0
 24 41  1  0  0  0  0
 24 42  1  0  0  0  0
 24 43  1  0  0  0  0
M  END
> <PUBCHEM_COMPOUND_CID>
164611

> <PUBCHEM_COMPOUND_CANONICALIZED>
1

> <PUBCHEM_CACTVS_COMPLEXITY>
488

> <PUBCHEM_CACTVS_HBOND_ACCEPTOR>
5

> <PUBCHEM_CACTVS_HBOND_DONOR>
1

> <PUBCHEM_CACTVS_ROTATABLE_BOND>
1

> <PUBCHEM_CACTVS_SUBSKEYS>
AAADceB6OAAAAAAAAAAAAAAAAAAAASAAAAA8YMEAAAAAAEjxQAAAHgAACAAADCzBmAcyDoMABgCAAiBCAACCCAAgIAAAiAAOjIgdJiKGsRukcCtkwBGPuAew8P8OoAADAAAYQADQAAaAADSAAAAAAAAAAA==

> <PUBCHEM_IUPAC_INCHI>
InChI=1S/C19H19NO4/c1-20-4-3-10-6-16(22-2)19(21)18-12-8-15-14(23-9-24-15)7-11(12)5-13(20)17(10)18/h6-8,13,21H,3-5,9H2,1-2H3/t13-/m0/s1

> <PUBCHEM_IUPAC_INCHIKEY>
ZMNSHBTYBQNBPV-ZDUSSCGKSA-N

> <PUBCHEM_XLOGP3_AA>
2.9

> <PUBCHEM_EXACT_MASS>
325.131408

> <PUBCHEM_MOLECULAR_FORMULA>
C19H19NO4

> <PUBCHEM_MOLECULAR_WEIGHT>
325.35846

> <PUBCHEM_OPENEYE_CAN_SMILES>
CN1CCC2=CC(=C(C3=C2C1CC4=CC5=C(C=C43)OCO5)O)OC

> <PUBCHEM_OPENEYE_ISO_SMILES>
CN1CCC2=CC(=C(C3=C2[C@@H]1CC4=CC5=C(C=C43)OCO5)O)OC

> <PUBCHEM_CACTVS_TPSA>
51.2

> <PUBCHEM_MONOISOTOPIC_WEIGHT>
325.131408

> <PUBCHEM_TOTAL_CHARGE>
0

> <PUBCHEM_HEAVY_ATOM_COUNT>
24

> <PUBCHEM_ATOM_DEF_STEREO_COUNT>
1

> <PUBCHEM_ATOM_UDEF_STEREO_COUNT>
0

> <PUBCHEM_BOND_DEF_STEREO_COUNT>
0

> <PUBCHEM_BOND_UDEF_STEREO_COUNT>
0

> <PUBCHEM_ISOTOPIC_ATOM_COUNT>
0

> <PUBCHEM_COMPONENT_COUNT>
1

> <PUBCHEM_CACTVS_TAUTO_COUNT>
2

> <PUBCHEM_COORDINATE_TYPE>
1
5
255

> <PUBCHEM_BONDANNOTATIONS>
10  15  8
13  14  8
13  18  8
14  20  8
15  19  8
16  19  8
18  21  8
20  22  8
21  22  8
6  25  5
7  10  8
7  9  8
9  16  8

$$$$

