5282297
  -OEChem-07051213042D

122121  0     1  0  0  0  0  0999 V2000
   17.5885    4.0000    0.0000 P   0  0  3  0  0  0  0  0  0  0  0  0
   19.3205    4.0000    0.0000 P   0  0  0  0  0  0  0  0  0  0  0  0
   14.1244    2.0000    0.0000 O   0  0  0  0  0  0  0  0  0  0  0  0
   14.1244    4.0000    0.0000 O   0  0  0  0  0  0  0  0  0  0  0  0
   14.9904    0.5000    0.0000 O   0  0  0  0  0  0  0  0  0  0  0  0
   16.7224    3.5000    0.0000 O   0  0  0  0  0  0  0  0  0  0  0  0
   13.2583    2.5000    0.0000 O   0  0  0  0  0  0  0  0  0  0  0  0
   18.4545    4.5000    0.0000 O   0  0  0  0  0  0  0  0  0  0  0  0
   17.0885    4.8660    0.0000 O   0  0  0  0  0  0  0  0  0  0  0  0
   18.0885    3.1340    0.0000 O   0  0  0  0  0  0  0  0  0  0  0  0
   20.1865    3.5000    0.0000 O   0  0  0  0  0  0  0  0  0  0  0  0
   19.8205    4.8660    0.0000 O   0  0  0  0  0  0  0  0  0  0  0  0
   18.8205    3.1340    0.0000 O   0  0  0  0  0  0  0  0  0  0  0  0
   10.6603   -4.0000    0.0000 C   0  0  0  0  0  0  0  0  0  0  0  0
   10.6603   -5.0000    0.0000 C   0  0  0  0  0  0  0  0  0  0  0  0
   11.5263   -3.5000    0.0000 C   0  0  0  0  0  0  0  0  0  0  0  0
    9.7942   -5.5000    0.0000 C   0  0  0  0  0  0  0  0  0  0  0  0
    9.7942   -6.5000    0.0000 C   0  0  0  0  0  0  0  0  0  0  0  0
   11.5263   -2.5000    0.0000 C   0  0  0  0  0  0  0  0  0  0  0  0
    8.9282   -7.0000    0.0000 C   0  0  0  0  0  0  0  0  0  0  0  0
   12.3923   -2.0000    0.0000 C   0  0  0  0  0  0  0  0  0  0  0  0
    8.9282   -8.0000    0.0000 C   0  0  0  0  0  0  0  0  0  0  0  0
   12.3923   -1.0000    0.0000 C   0  0  0  0  0  0  0  0  0  0  0  0
    8.0622   -8.5000    0.0000 C   0  0  0  0  0  0  0  0  0  0  0  0
   13.2583   -0.5000    0.0000 C   0  0  0  0  0  0  0  0  0  0  0  0
    8.0622   -9.5000    0.0000 C   0  0  0  0  0  0  0  0  0  0  0  0
   13.2583    0.5000    0.0000 C   0  0  0  0  0  0  0  0  0  0  0  0
    9.7942    3.5000    0.0000 C   0  0  0  0  0  0  0  0  0  0  0  0
    8.9282    4.0000    0.0000 C   0  0  0  0  0  0  0  0  0  0  0  0
   10.6603    4.0000    0.0000 C   0  0  0  0  0  0  0  0  0  0  0  0
    3.7320    7.0000    0.0000 C   0  0  0  0  0  0  0  0  0  0  0  0
    4.5981    6.5000    0.0000 C   0  0  0  0  0  0  0  0  0  0  0  0
    8.0622    3.5000    0.0000 C   0  0  0  0  0  0  0  0  0  0  0  0
    3.7320    8.0000    0.0000 C   0  0  0  0  0  0  0  0  0  0  0  0
    4.5981    5.5000    0.0000 C   0  0  0  0  0  0  0  0  0  0  0  0
   11.5263    3.5000    0.0000 C   0  0  0  0  0  0  0  0  0  0  0  0
    7.1962    4.0000    0.0000 C   0  0  0  0  0  0  0  0  0  0  0  0
    2.8660    8.5000    0.0000 C   0  0  0  0  0  0  0  0  0  0  0  0
    5.4641    5.0000    0.0000 C   0  0  0  0  0  0  0  0  0  0  0  0
    7.1962  -10.0000    0.0000 C   0  0  0  0  0  0  0  0  0  0  0  0
   14.1244    1.0000    0.0000 C   0  0  0  0  0  0  0  0  0  0  0  0
   12.3923    4.0000    0.0000 C   0  0  0  0  0  0  0  0  0  0  0  0
    6.3301    3.5000    0.0000 C   0  0  0  0  0  0  0  0  0  0  0  0
    2.8660    9.5000    0.0000 C   0  0  0  0  0  0  0  0  0  0  0  0
    5.4641    4.0000    0.0000 C   0  0  0  0  0  0  0  0  0  0  0  0
   14.9904    3.5000    0.0000 C   0  0  3  0  0  0  0  0  0  0  0  0
   14.9904    2.5000    0.0000 C   0  0  0  0  0  0  0  0  0  0  0  0
   13.2583    3.5000    0.0000 C   0  0  0  0  0  0  0  0  0  0  0  0
    2.0000   10.0000    0.0000 C   0  0  0  0  0  0  0  0  0  0  0  0
   15.8564    4.0000    0.0000 C   0  0  0  0  0  0  0  0  0  0  0  0
   10.4482   -3.4174    0.0000 H   0  0  0  0  0  0  0  0  0  0  0  0
   10.0497   -4.1077    0.0000 H   0  0  0  0  0  0  0  0  0  0  0  0
   10.8723   -5.5826    0.0000 H   0  0  0  0  0  0  0  0  0  0  0  0
   11.2708   -4.8923    0.0000 H   0  0  0  0  0  0  0  0  0  0  0  0
   11.7383   -4.0826    0.0000 H   0  0  0  0  0  0  0  0  0  0  0  0
   12.1369   -3.3923    0.0000 H   0  0  0  0  0  0  0  0  0  0  0  0
    9.5822   -4.9174    0.0000 H   0  0  0  0  0  0  0  0  0  0  0  0
    9.1836   -5.6077    0.0000 H   0  0  0  0  0  0  0  0  0  0  0  0
   11.3142   -1.9174    0.0000 H   0  0  0  0  0  0  0  0  0  0  0  0
   10.9157   -2.6077    0.0000 H   0  0  0  0  0  0  0  0  0  0  0  0
   10.0063   -7.0826    0.0000 H   0  0  0  0  0  0  0  0  0  0  0  0
   10.4048   -6.3923    0.0000 H   0  0  0  0  0  0  0  0  0  0  0  0
    8.7162   -6.4174    0.0000 H   0  0  0  0  0  0  0  0  0  0  0  0
    8.3176   -7.1077    0.0000 H   0  0  0  0  0  0  0  0  0  0  0  0
   12.6044   -2.5826    0.0000 H   0  0  0  0  0  0  0  0  0  0  0  0
   13.0029   -1.8923    0.0000 H   0  0  0  0  0  0  0  0  0  0  0  0
    9.1403   -8.5826    0.0000 H   0  0  0  0  0  0  0  0  0  0  0  0
    9.5388   -7.8923    0.0000 H   0  0  0  0  0  0  0  0  0  0  0  0
   12.1803   -0.4174    0.0000 H   0  0  0  0  0  0  0  0  0  0  0  0
   11.7817   -1.1077    0.0000 H   0  0  0  0  0  0  0  0  0  0  0  0
    7.8501   -7.9174    0.0000 H   0  0  0  0  0  0  0  0  0  0  0  0
    7.4516   -8.6077    0.0000 H   0  0  0  0  0  0  0  0  0  0  0  0
   13.4704   -1.0826    0.0000 H   0  0  0  0  0  0  0  0  0  0  0  0
   13.8689   -0.3923    0.0000 H   0  0  0  0  0  0  0  0  0  0  0  0
    8.2742  -10.0826    0.0000 H   0  0  0  0  0  0  0  0  0  0  0  0
    8.6728   -9.3923    0.0000 H   0  0  0  0  0  0  0  0  0  0  0  0
   13.0463    1.0826    0.0000 H   0  0  0  0  0  0  0  0  0  0  0  0
   12.6477    0.3923    0.0000 H   0  0  0  0  0  0  0  0  0  0  0  0
    9.3957    3.0250    0.0000 H   0  0  0  0  0  0  0  0  0  0  0  0
   10.1928    3.0250    0.0000 H   0  0  0  0  0  0  0  0  0  0  0  0
    9.3267    4.4750    0.0000 H   0  0  0  0  0  0  0  0  0  0  0  0
    8.5297    4.4750    0.0000 H   0  0  0  0  0  0  0  0  0  0  0  0
   11.0588    4.4750    0.0000 H   0  0  0  0  0  0  0  0  0  0  0  0
   10.2617    4.4750    0.0000 H   0  0  0  0  0  0  0  0  0  0  0  0
    3.1215    7.1077    0.0000 H   0  0  0  0  0  0  0  0  0  0  0  0
    3.5200    6.4174    0.0000 H   0  0  0  0  0  0  0  0  0  0  0  0
    5.2087    6.3923    0.0000 H   0  0  0  0  0  0  0  0  0  0  0  0
    4.8101    7.0826    0.0000 H   0  0  0  0  0  0  0  0  0  0  0  0
    7.6636    3.0250    0.0000 H   0  0  0  0  0  0  0  0  0  0  0  0
    8.4607    3.0250    0.0000 H   0  0  0  0  0  0  0  0  0  0  0  0
    4.3426    7.8923    0.0000 H   0  0  0  0  0  0  0  0  0  0  0  0
    3.9441    8.5826    0.0000 H   0  0  0  0  0  0  0  0  0  0  0  0
    3.9875    5.6077    0.0000 H   0  0  0  0  0  0  0  0  0  0  0  0
    4.3860    4.9174    0.0000 H   0  0  0  0  0  0  0  0  0  0  0  0
   11.1278    3.0250    0.0000 H   0  0  0  0  0  0  0  0  0  0  0  0
   11.9248    3.0250    0.0000 H   0  0  0  0  0  0  0  0  0  0  0  0
    7.5947    4.4750    0.0000 H   0  0  0  0  0  0  0  0  0  0  0  0
    6.7976    4.4750    0.0000 H   0  0  0  0  0  0  0  0  0  0  0  0
    2.2554    8.6077    0.0000 H   0  0  0  0  0  0  0  0  0  0  0  0
    2.6540    7.9174    0.0000 H   0  0  0  0  0  0  0  0  0  0  0  0
    6.0747    4.8923    0.0000 H   0  0  0  0  0  0  0  0  0  0  0  0
    5.6762    5.5826    0.0000 H   0  0  0  0  0  0  0  0  0  0  0  0
    6.8862   -9.4631    0.0000 H   0  0  0  0  0  0  0  0  0  0  0  0
    6.6592  -10.3100    0.0000 H   0  0  0  0  0  0  0  0  0  0  0  0
    7.5062  -10.5369    0.0000 H   0  0  0  0  0  0  0  0  0  0  0  0
   12.7908    4.4750    0.0000 H   0  0  0  0  0  0  0  0  0  0  0  0
   11.9938    4.4750    0.0000 H   0  0  0  0  0  0  0  0  0  0  0  0
    6.3301    2.8800    0.0000 H   0  0  0  0  0  0  0  0  0  0  0  0
    3.4766    9.3923    0.0000 H   0  0  0  0  0  0  0  0  0  0  0  0
    3.0781   10.0826    0.0000 H   0  0  0  0  0  0  0  0  0  0  0  0
    4.9272    3.6900    0.0000 H   0  0  0  0  0  0  0  0  0  0  0  0
   14.9904    4.1200    0.0000 H   0  0  0  0  0  0  0  0  0  0  0  0
   15.2024    1.9174    0.0000 H   0  0  0  0  0  0  0  0  0  0  0  0
   15.6010    2.6077    0.0000 H   0  0  0  0  0  0  0  0  0  0  0  0
    2.3100   10.5369    0.0000 H   0  0  0  0  0  0  0  0  0  0  0  0
    1.4631   10.3100    0.0000 H   0  0  0  0  0  0  0  0  0  0  0  0
    1.6900    9.4631    0.0000 H   0  0  0  0  0  0  0  0  0  0  0  0
   16.2549    4.4750    0.0000 H   0  0  0  0  0  0  0  0  0  0  0  0
   15.4579    4.4750    0.0000 H   0  0  0  0  0  0  0  0  0  0  0  0
   17.3985    5.4030    0.0000 H   0  0  0  0  0  0  0  0  0  0  0  0
   19.5105    5.4030    0.0000 H   0  0  0  0  0  0  0  0  0  0  0  0
   20.7235    3.8100    0.0000 H   0  0  0  0  0  0  0  0  0  0  0  0
  1  6  1  0  0  0  0
  1  8  1  0  0  0  0
  1  9  1  0  0  0  0
  1 10  2  0  0  0  0
  2  8  1  0  0  0  0
  2 11  1  0  0  0  0
  2 12  1  0  0  0  0
  2 13  2  0  0  0  0
  3 41  1  0  0  0  0
  3 47  1  0  0  0  0
  4 46  1  0  0  0  0
  4 48  1  0  0  0  0
  5 41  2  0  0  0  0
  6 50  1  0  0  0  0
  7 48  2  0  0  0  0
  9120  1  0  0  0  0
 11122  1  0  0  0  0
 12121  1  0  0  0  0
 14 15  1  0  0  0  0
 14 16  1  0  0  0  0
 14 51  1  0  0  0  0
 14 52  1  0  0  0  0
 15 17  1  0  0  0  0
 15 53  1  0  0  0  0
 15 54  1  0  0  0  0
 16 19  1  0  0  0  0
 16 55  1  0  0  0  0
 16 56  1  0  0  0  0
 17 18  1  0  0  0  0
 17 57  1  0  0  0  0
 17 58  1  0  0  0  0
 18 20  1  0  0  0  0
 18 61  1  0  0  0  0
 18 62  1  0  0  0  0
 19 21  1  0  0  0  0
 19 59  1  0  0  0  0
 19 60  1  0  0  0  0
 20 22  1  0  0  0  0
 20 63  1  0  0  0  0
 20 64  1  0  0  0  0
 21 23  1  0  0  0  0
 21 65  1  0  0  0  0
 21 66  1  0  0  0  0
 22 24  1  0  0  0  0
 22 67  1  0  0  0  0
 22 68  1  0  0  0  0
 23 25  1  0  0  0  0
 23 69  1  0  0  0  0
 23 70  1  0  0  0  0
 24 26  1  0  0  0  0
 24 71  1  0  0  0  0
 24 72  1  0  0  0  0
 25 27  1  0  0  0  0
 25 73  1  0  0  0  0
 25 74  1  0  0  0  0
 26 40  1  0  0  0  0
 26 75  1  0  0  0  0
 26 76  1  0  0  0  0
 27 41  1  0  0  0  0
 27 77  1  0  0  0  0
 27 78  1  0  0  0  0
 28 29  1  0  0  0  0
 28 30  1  0  0  0  0
 28 79  1  0  0  0  0
 28 80  1  0  0  0  0
 29 33  1  0  0  0  0
 29 81  1  0  0  0  0
 29 82  1  0  0  0  0
 30 36  1  0  0  0  0
 30 83  1  0  0  0  0
 30 84  1  0  0  0  0
 31 32  1  0  0  0  0
 31 34  1  0  0  0  0
 31 85  1  0  0  0  0
 31 86  1  0  0  0  0
 32 35  1  0  0  0  0
 32 87  1  0  0  0  0
 32 88  1  0  0  0  0
 33 37  1  0  0  0  0
 33 89  1  0  0  0  0
 33 90  1  0  0  0  0
 34 38  1  0  0  0  0
 34 91  1  0  0  0  0
 34 92  1  0  0  0  0
 35 39  1  0  0  0  0
 35 93  1  0  0  0  0
 35 94  1  0  0  0  0
 36 42  1  0  0  0  0
 36 95  1  0  0  0  0
 36 96  1  0  0  0  0
 37 43  1  0  0  0  0
 37 97  1  0  0  0  0
 37 98  1  0  0  0  0
 38 44  1  0  0  0  0
 38 99  1  0  0  0  0
 38100  1  0  0  0  0
 39 45  1  0  0  0  0
 39101  1  0  0  0  0
 39102  1  0  0  0  0
 40103  1  0  0  0  0
 40104  1  0  0  0  0
 40105  1  0  0  0  0
 42 48  1  0  0  0  0
 42106  1  0  0  0  0
 42107  1  0  0  0  0
 43 45  2  0  0  0  0
 43108  1  0  0  0  0
 44 49  1  0  0  0  0
 44109  1  0  0  0  0
 44110  1  0  0  0  0
 45111  1  0  0  0  0
 46 47  1  0  0  0  0
 46 50  1  0  0  0  0
 46112  1  0  0  0  0
 47113  1  0  0  0  0
 47114  1  0  0  0  0
 49115  1  0  0  0  0
 49116  1  0  0  0  0
 49117  1  0  0  0  0
 50118  1  0  0  0  0
 50119  1  0  0  0  0
M  END
> <PUBCHEM_COMPOUND_CID>
5282297

> <PUBCHEM_COMPOUND_CANONICALIZED>
1

> <PUBCHEM_CACTVS_COMPLEXITY>
938

> <PUBCHEM_CACTVS_HBOND_ACCEPTOR>
11

> <PUBCHEM_CACTVS_HBOND_DONOR>
3

> <PUBCHEM_CACTVS_ROTATABLE_BOND>
39

> <PUBCHEM_CACTVS_SUBSKEYS>
AAADcfB8PAMAAAAAAAAAAAAAAAAAAAAAAAAAAAAAAAAAAAAAAAAAGgAACCAACBSggAICCAAABRCIQCDSCIAAAAAgAAAICAEAAAgBABIAAQACAAAFgAAKAAOIyKCAAAAAAAAAAAAAAAAAAAAAAAAAAAAAAA==

> <PUBCHEM_IUPAC_OPENEYE_NAME>
[1-(hexadecanoyloxymethyl)-2-[hydroxy(phosphonooxy)phosphoryl]oxy-ethyl] (Z)-octadec-9-enoate

> <PUBCHEM_IUPAC_CAS_NAME>
(Z)-9-octadecenoic acid [1-[hydroxy(phosphonooxy)phosphoryl]oxy-3-(1-oxohexadecoxy)propan-2-yl] ester

> <PUBCHEM_IUPAC_NAME>
[1-hexadecanoyloxy-3-[hydroxy(phosphonooxy)phosphoryl]oxypropan-2-yl] (Z)-octadec-9-enoate

> <PUBCHEM_IUPAC_SYSTEMATIC_NAME>
[1-hexadecanoyloxy-3-[oxidanyl(phosphonooxy)phosphoryl]oxy-propan-2-yl] (Z)-octadec-9-enoate

> <PUBCHEM_IUPAC_TRADITIONAL_NAME>
(Z)-octadec-9-enoic acid [1-(hexadecanoyloxymethyl)-2-[hydroxy(phosphonooxy)phosphoryl]oxy-ethyl] ester

> <PUBCHEM_IUPAC_INCHI>
InChI=1S/C37H72O11P2/c1-3-5-7-9-11-13-15-17-18-20-22-24-26-28-30-32-37(39)47-35(34-46-50(43,44)48-49(40,41)42)33-45-36(38)31-29-27-25-23-21-19-16-14-12-10-8-6-4-2/h17-18,35H,3-16,19-34H2,1-2H3,(H,43,44)(H2,40,41,42)/b18-17-

> <PUBCHEM_IUPAC_INCHIKEY>
KGPOTEGAEDLRDC-ZCXUNETKSA-N

> <PUBCHEM_XLOGP3_AA>
12

> <PUBCHEM_EXACT_MASS>
754.454986

> <PUBCHEM_MOLECULAR_FORMULA>
C37H72O11P2

> <PUBCHEM_MOLECULAR_WEIGHT>
754.908504

> <PUBCHEM_OPENEYE_CAN_SMILES>
CCCCCCCCCCCCCCCC(=O)OCC(COP(=O)(O)OP(=O)(O)O)OC(=O)CCCCCCCC=CCCCCCCCC

> <PUBCHEM_OPENEYE_ISO_SMILES>
CCCCCCCCCCCCCCCC(=O)OCC(COP(=O)(O)OP(=O)(O)O)OC(=O)CCCCCCC/C=C\CCCCCCCC

> <PUBCHEM_CACTVS_TPSA>
166

> <PUBCHEM_MONOISOTOPIC_WEIGHT>
754.454986

> <PUBCHEM_TOTAL_CHARGE>
0

> <PUBCHEM_HEAVY_ATOM_COUNT>
50

> <PUBCHEM_ATOM_DEF_STEREO_COUNT>
0

> <PUBCHEM_ATOM_UDEF_STEREO_COUNT>
1

> <PUBCHEM_BOND_DEF_STEREO_COUNT>
1

> <PUBCHEM_BOND_UDEF_STEREO_COUNT>
0

> <PUBCHEM_ISOTOPIC_ATOM_COUNT>
0

> <PUBCHEM_COMPONENT_COUNT>
1

> <PUBCHEM_CACTVS_TAUTO_COUNT>
1

> <PUBCHEM_COORDINATE_TYPE>
1
5
255

> <PUBCHEM_BONDANNOTATIONS>
46  50  3

$$$$

