24843
  -OEChem-07051213032D

 27 18  0     0  0  0  0  0  0999 V2000
    1.0000    1.5000    0.0000 S   0  0  0  0  0  0  0  0  0  0  0  0
    0.0000    0.5000    0.0000 Mg  0  2  0  0  0  0  0  0  0  0  0  0
    0.0000    1.5000    0.0000 O   0  5  0  0  0  0  0  0  0  0  0  0
    1.0000    0.5000    0.0000 O   0  5  0  0  0  0  0  0  0  0  0  0
    2.0000    1.5000    0.0000 O   0  0  0  0  0  0  0  0  0  0  0  0
    1.0000    2.5000    0.0000 O   0  0  0  0  0  0  0  0  0  0  0  0
    1.0000    4.5000    0.0000 O   0  0  0  0  0  0  0  0  0  0  0  0
    1.0000    7.0000    0.0000 O   0  0  0  0  0  0  0  0  0  0  0  0
    4.5369    0.0000    0.0000 O   0  0  0  0  0  0  0  0  0  0  0  0
    4.5369    2.5000    0.0000 O   0  0  0  0  0  0  0  0  0  0  0  0
    4.5369    5.0000    0.0000 O   0  0  0  0  0  0  0  0  0  0  0  0
    4.5369    7.5000    0.0000 O   0  0  0  0  0  0  0  0  0  0  0  0
    7.6108    3.7500    0.0000 O   0  0  0  0  0  0  0  0  0  0  0  0
    1.5369    4.8100    0.0000 H   0  0  0  0  0  0  0  0  0  0  0  0
    0.4631    4.8100    0.0000 H   0  0  0  0  0  0  0  0  0  0  0  0
    1.5369    7.3100    0.0000 H   0  0  0  0  0  0  0  0  0  0  0  0
    0.4631    7.3100    0.0000 H   0  0  0  0  0  0  0  0  0  0  0  0
    5.0739    0.3100    0.0000 H   0  0  0  0  0  0  0  0  0  0  0  0
    4.0000    0.3100    0.0000 H   0  0  0  0  0  0  0  0  0  0  0  0
    5.0739    2.8100    0.0000 H   0  0  0  0  0  0  0  0  0  0  0  0
    4.0000    2.8100    0.0000 H   0  0  0  0  0  0  0  0  0  0  0  0
    5.0739    5.3100    0.0000 H   0  0  0  0  0  0  0  0  0  0  0  0
    4.0000    5.3100    0.0000 H   0  0  0  0  0  0  0  0  0  0  0  0
    5.0739    7.8100    0.0000 H   0  0  0  0  0  0  0  0  0  0  0  0
    4.0000    7.8100    0.0000 H   0  0  0  0  0  0  0  0  0  0  0  0
    8.1477    4.0600    0.0000 H   0  0  0  0  0  0  0  0  0  0  0  0
    7.0739    4.0600    0.0000 H   0  0  0  0  0  0  0  0  0  0  0  0
  1  3  1  0  0  0  0
  1  4  1  0  0  0  0
  1  5  2  0  0  0  0
  1  6  2  0  0  0  0
  7 14  1  0  0  0  0
  7 15  1  0  0  0  0
  8 16  1  0  0  0  0
  8 17  1  0  0  0  0
  9 18  1  0  0  0  0
  9 19  1  0  0  0  0
 10 20  1  0  0  0  0
 10 21  1  0  0  0  0
 11 22  1  0  0  0  0
 11 23  1  0  0  0  0
 12 24  1  0  0  0  0
 12 25  1  0  0  0  0
 13 26  1  0  0  0  0
 13 27  1  0  0  0  0
M  CHG  3   2   2   3  -1   4  -1
M  END
> <PUBCHEM_COMPOUND_CID>
24843

> <PUBCHEM_COMPOUND_CANONICALIZED>
1

> <PUBCHEM_CACTVS_COMPLEXITY>
62.2

> <PUBCHEM_CACTVS_HBOND_ACCEPTOR>
11

> <PUBCHEM_CACTVS_HBOND_DONOR>
7

> <PUBCHEM_CACTVS_ROTATABLE_BOND>
0

> <PUBCHEM_CACTVS_SUBSKEYS>
AAADccAAPABAACAAAAAAAAAAAAAAAAAAAAAAAAAAAAAAAAAAAAAAAAAACAAAAAAAAAAAAAAAAAAAAAAAADAAAAAAAAAAAAAAAAAAAAAAAAAAAAAAAAAAAAAAAAAAAAAAAAAAAAAAAAAAAAAAAAAAAAAAAA==

> <PUBCHEM_IUPAC_OPENEYE_NAME>
magnesium sulfate heptahydrate

> <PUBCHEM_IUPAC_CAS_NAME>
magnesium sulfate heptahydrate

> <PUBCHEM_IUPAC_NAME>
magnesium sulfate heptahydrate

> <PUBCHEM_IUPAC_SYSTEMATIC_NAME>
magnesium sulfate heptahydrate

> <PUBCHEM_IUPAC_TRADITIONAL_NAME>
magnesium sulfate heptahydrate

> <PUBCHEM_IUPAC_INCHI>
InChI=1S/Mg.H2O4S.7H2O/c;1-5(2,3)4;;;;;;;/h;(H2,1,2,3,4);7*1H2/q+2;;;;;;;;/p-2

> <PUBCHEM_IUPAC_INCHIKEY>
WRUGWIBCXHJTDG-UHFFFAOYSA-L

> <PUBCHEM_EXACT_MASS>
246.010724

> <PUBCHEM_MOLECULAR_FORMULA>
H14MgO11S

> <PUBCHEM_MOLECULAR_WEIGHT>
246.47456

> <PUBCHEM_OPENEYE_CAN_SMILES>
O.O.O.O.O.O.O.[O-]S(=O)(=O)[O-].[Mg+2]

> <PUBCHEM_OPENEYE_ISO_SMILES>
O.O.O.O.O.O.O.[O-]S(=O)(=O)[O-].[Mg+2]

> <PUBCHEM_CACTVS_TPSA>
95.6

> <PUBCHEM_MONOISOTOPIC_WEIGHT>
246.010724

> <PUBCHEM_TOTAL_CHARGE>
0

> <PUBCHEM_HEAVY_ATOM_COUNT>
13

> <PUBCHEM_ATOM_DEF_STEREO_COUNT>
0

> <PUBCHEM_ATOM_UDEF_STEREO_COUNT>
0

> <PUBCHEM_BOND_DEF_STEREO_COUNT>
0

> <PUBCHEM_BOND_UDEF_STEREO_COUNT>
0

> <PUBCHEM_ISOTOPIC_ATOM_COUNT>
0

> <PUBCHEM_COMPONENT_COUNT>
9

> <PUBCHEM_CACTVS_TAUTO_COUNT>
1

> <PUBCHEM_COORDINATE_TYPE>
1
5
255

$$$$

