10368299
  -OEChem-07051213152D

 69 69  0     1  0  0  0  0  0999 V2000
    4.2690   -5.0000    0.0000 O   0  0  0  0  0  0  0  0  0  0  0  0
    2.5369   -7.0000    0.0000 O   0  0  0  0  0  0  0  0  0  0  0  0
    4.2690   -8.0000    0.0000 O   0  0  0  0  0  0  0  0  0  0  0  0
    6.0010   -7.0000    0.0000 O   0  0  0  0  0  0  0  0  0  0  0  0
    6.0010   -5.0000    0.0000 O   0  0  0  0  0  0  0  0  0  0  0  0
    2.5369   -4.0000    0.0000 O   0  0  0  0  0  0  0  0  0  0  0  0
    5.1350   -3.5000    0.0000 O   0  0  0  0  0  0  0  0  0  0  0  0
   12.9292    8.0000    0.0000 O   0  0  0  0  0  0  0  0  0  0  0  0
   13.7953    6.5000    0.0000 O   0  0  0  0  0  0  0  0  0  0  0  0
    3.4030   -6.5000    0.0000 C   0  0  1  0  0  0  0  0  0  0  0  0
    4.2690   -7.0000    0.0000 C   0  0  1  0  0  0  0  0  0  0  0  0
    3.4030   -5.5000    0.0000 C   0  0  1  0  0  0  0  0  0  0  0  0
    5.1350   -6.5000    0.0000 C   0  0  2  0  0  0  0  0  0  0  0  0
    5.1350   -5.5000    0.0000 C   0  0  1  0  0  0  0  0  0  0  0  0
    2.5369   -5.0000    0.0000 C   0  0  0  0  0  0  0  0  0  0  0  0
    6.0010   -4.0000    0.0000 C   0  0  0  0  0  0  0  0  0  0  0  0
    6.8671   -3.5000    0.0000 C   0  0  0  0  0  0  0  0  0  0  0  0
    7.7331   -4.0000    0.0000 C   0  0  0  0  0  0  0  0  0  0  0  0
    6.8671   -2.5000    0.0000 C   0  0  0  0  0  0  0  0  0  0  0  0
    7.7331   -2.0000    0.0000 C   0  0  0  0  0  0  0  0  0  0  0  0
    7.7331   -1.0000    0.0000 C   0  0  0  0  0  0  0  0  0  0  0  0
    8.5991   -0.5000    0.0000 C   0  0  0  0  0  0  0  0  0  0  0  0
    9.4651   -1.0000    0.0000 C   0  0  0  0  0  0  0  0  0  0  0  0
    8.5991    0.5000    0.0000 C   0  0  0  0  0  0  0  0  0  0  0  0
    9.4651    1.0000    0.0000 C   0  0  0  0  0  0  0  0  0  0  0  0
    9.4651    2.0000    0.0000 C   0  0  0  0  0  0  0  0  0  0  0  0
   10.3312    3.5000    0.0000 C   0  0  0  0  0  0  0  0  0  0  0  0
   10.3312    2.5000    0.0000 C   0  0  0  0  0  0  0  0  0  0  0  0
   11.1972    4.0000    0.0000 C   0  0  0  0  0  0  0  0  0  0  0  0
    9.4651    4.0000    0.0000 C   0  0  0  0  0  0  0  0  0  0  0  0
   11.1972    5.0000    0.0000 C   0  0  0  0  0  0  0  0  0  0  0  0
   12.0632    5.5000    0.0000 C   0  0  0  0  0  0  0  0  0  0  0  0
   12.0632    6.5000    0.0000 C   0  0  0  0  0  0  0  0  0  0  0  0
   11.1972    7.0000    0.0000 C   0  0  0  0  0  0  0  0  0  0  0  0
   12.9292    7.0000    0.0000 C   0  0  0  0  0  0  0  0  0  0  0  0
    3.4030   -7.1200    0.0000 H   0  0  0  0  0  0  0  0  0  0  0  0
    4.8059   -7.3100    0.0000 H   0  0  0  0  0  0  0  0  0  0  0  0
    3.4030   -4.8800    0.0000 H   0  0  0  0  0  0  0  0  0  0  0  0
    5.1350   -7.1200    0.0000 H   0  0  0  0  0  0  0  0  0  0  0  0
    5.1350   -4.8800    0.0000 H   0  0  0  0  0  0  0  0  0  0  0  0
    1.9264   -4.8923    0.0000 H   0  0  0  0  0  0  0  0  0  0  0  0
    2.3249   -5.5826    0.0000 H   0  0  0  0  0  0  0  0  0  0  0  0
    2.0000   -6.6900    0.0000 H   0  0  0  0  0  0  0  0  0  0  0  0
    3.7320   -8.3100    0.0000 H   0  0  0  0  0  0  0  0  0  0  0  0
    6.5380   -6.6900    0.0000 H   0  0  0  0  0  0  0  0  0  0  0  0
    2.0000   -3.6900    0.0000 H   0  0  0  0  0  0  0  0  0  0  0  0
    7.4231   -4.5369    0.0000 H   0  0  0  0  0  0  0  0  0  0  0  0
    8.2700   -4.3100    0.0000 H   0  0  0  0  0  0  0  0  0  0  0  0
    8.0431   -3.4631    0.0000 H   0  0  0  0  0  0  0  0  0  0  0  0
    6.3301   -2.1900    0.0000 H   0  0  0  0  0  0  0  0  0  0  0  0
    8.2700   -2.3100    0.0000 H   0  0  0  0  0  0  0  0  0  0  0  0
    7.1962   -0.6900    0.0000 H   0  0  0  0  0  0  0  0  0  0  0  0
    9.1551   -1.5369    0.0000 H   0  0  0  0  0  0  0  0  0  0  0  0
   10.0021   -1.3100    0.0000 H   0  0  0  0  0  0  0  0  0  0  0  0
    9.7751   -0.4631    0.0000 H   0  0  0  0  0  0  0  0  0  0  0  0
    8.0622    0.8100    0.0000 H   0  0  0  0  0  0  0  0  0  0  0  0
   10.0021    0.6900    0.0000 H   0  0  0  0  0  0  0  0  0  0  0  0
    8.9282    2.3100    0.0000 H   0  0  0  0  0  0  0  0  0  0  0  0
   10.8681    2.1900    0.0000 H   0  0  0  0  0  0  0  0  0  0  0  0
   11.7341    3.6900    0.0000 H   0  0  0  0  0  0  0  0  0  0  0  0
    9.7751    4.5369    0.0000 H   0  0  0  0  0  0  0  0  0  0  0  0
    8.9282    4.3100    0.0000 H   0  0  0  0  0  0  0  0  0  0  0  0
    9.1551    3.4631    0.0000 H   0  0  0  0  0  0  0  0  0  0  0  0
   10.6603    5.3100    0.0000 H   0  0  0  0  0  0  0  0  0  0  0  0
   12.6002    5.1900    0.0000 H   0  0  0  0  0  0  0  0  0  0  0  0
   11.5072    7.5369    0.0000 H   0  0  0  0  0  0  0  0  0  0  0  0
   10.6603    7.3100    0.0000 H   0  0  0  0  0  0  0  0  0  0  0  0
   10.8872    6.4631    0.0000 H   0  0  0  0  0  0  0  0  0  0  0  0
   13.4662    8.3100    0.0000 H   0  0  0  0  0  0  0  0  0  0  0  0
  1 12  1  0  0  0  0
  1 14  1  0  0  0  0
 10  2  1  6  0  0  0
  2 43  1  0  0  0  0
 11  3  1  1  0  0  0
  3 44  1  0  0  0  0
 13  4  1  6  0  0  0
  4 45  1  0  0  0  0
 14  5  1  1  0  0  0
  5 16  1  0  0  0  0
  6 15  1  0  0  0  0
  6 46  1  0  0  0  0
  7 16  2  0  0  0  0
  8 35  1  0  0  0  0
  8 69  1  0  0  0  0
  9 35  2  0  0  0  0
 10 11  1  0  0  0  0
 10 12  1  0  0  0  0
 10 36  1  0  0  0  0
 11 13  1  0  0  0  0
 11 37  1  0  0  0  0
 12 15  1  1  0  0  0
 12 38  1  0  0  0  0
 13 14  1  0  0  0  0
 13 39  1  0  0  0  0
 14 40  1  0  0  0  0
 15 41  1  0  0  0  0
 15 42  1  0  0  0  0
 16 17  1  0  0  0  0
 17 18  1  0  0  0  0
 17 19  2  0  0  0  0
 18 47  1  0  0  0  0
 18 48  1  0  0  0  0
 18 49  1  0  0  0  0
 19 20  1  0  0  0  0
 19 50  1  0  0  0  0
 20 21  2  0  0  0  0
 20 51  1  0  0  0  0
 21 22  1  0  0  0  0
 21 52  1  0  0  0  0
 22 23  1  0  0  0  0
 22 24  2  0  0  0  0
 23 53  1  0  0  0  0
 23 54  1  0  0  0  0
 23 55  1  0  0  0  0
 24 25  1  0  0  0  0
 24 56  1  0  0  0  0
 25 26  2  0  0  0  0
 25 57  1  0  0  0  0
 26 28  1  0  0  0  0
 26 58  1  0  0  0  0
 27 28  2  0  0  0  0
 27 29  1  0  0  0  0
 27 30  1  0  0  0  0
 28 59  1  0  0  0  0
 29 31  2  0  0  0  0
 29 60  1  0  0  0  0
 30 61  1  0  0  0  0
 30 62  1  0  0  0  0
 30 63  1  0  0  0  0
 31 32  1  0  0  0  0
 31 64  1  0  0  0  0
 32 33  2  0  0  0  0
 32 65  1  0  0  0  0
 33 34  1  0  0  0  0
 33 35  1  0  0  0  0
 34 66  1  0  0  0  0
 34 67  1  0  0  0  0
 34 68  1  0  0  0  0
M  END
> <PUBCHEM_COMPOUND_CID>
10368299

> <PUBCHEM_COMPOUND_CANONICALIZED>
1

> <PUBCHEM_CACTVS_COMPLEXITY>
950

> <PUBCHEM_CACTVS_HBOND_ACCEPTOR>
9

> <PUBCHEM_CACTVS_HBOND_DONOR>
5

> <PUBCHEM_CACTVS_ROTATABLE_BOND>
11

> <PUBCHEM_CACTVS_SUBSKEYS>
AAADcfB4PAAAAAAAAAAAAAAAAAAAAAAAAAAkAAAAAAAAAAAAAAAAGgAACAAADBSwgAMCCAAABgCIAiDSCAAAAAAgAAAICAEAAEgZFAIAIQAiUAAFAAAPsYPAYAwAAAAAAAAAAAAAAAAAAAAAAAAAAAAAAA==

> <PUBCHEM_IUPAC_OPENEYE_NAME>
(2E,4E,6E,8E,10E,12E,14E)-2,6,11,15-tetramethyl-16-oxo-16-[(2S,3R,4S,5S,6R)-3,4,5-trihydroxy-6-(hydroxymethyl)tetrahydropyran-2-yl]oxy-hexadeca-2,4,6,8,10,12,14-heptaenoic acid

> <PUBCHEM_IUPAC_CAS_NAME>
(2E,4E,6E,8E,10E,12E,14E)-2,6,11,15-tetramethyl-16-oxo-16-[[(2S,3R,4S,5S,6R)-3,4,5-trihydroxy-6-(hydroxymethyl)-2-oxanyl]oxy]hexadeca-2,4,6,8,10,12,14-heptaenoic acid

> <PUBCHEM_IUPAC_NAME>
(2E,4E,6E,8E,10E,12E,14E)-2,6,11,15-tetramethyl-16-oxo-16-[(2S,3R,4S,5S,6R)-3,4,5-trihydroxy-6-(hydroxymethyl)oxan-2-yl]oxyhexadeca-2,4,6,8,10,12,14-heptaenoic acid

> <PUBCHEM_IUPAC_SYSTEMATIC_NAME>
(2E,4E,6E,8E,10E,12E,14E)-16-[(2S,3R,4S,5S,6R)-6-(hydroxymethyl)-3,4,5-tris(oxidanyl)oxan-2-yl]oxy-2,6,11,15-tetramethyl-16-oxidanylidene-hexadeca-2,4,6,8,10,12,14-heptaenoic acid

> <PUBCHEM_IUPAC_TRADITIONAL_NAME>
(2E,4E,6E,8E,10E,12E,14E)-16-keto-2,6,11,15-tetramethyl-16-[(2S,3R,4S,5S,6R)-3,4,5-trihydroxy-6-methylol-tetrahydropyran-2-yl]oxy-hexadeca-2,4,6,8,10,12,14-heptaenoic acid

> <PUBCHEM_IUPAC_INCHI>
InChI=1S/C26H34O9/c1-16(11-7-13-18(3)24(31)32)9-5-6-10-17(2)12-8-14-19(4)25(33)35-26-23(30)22(29)21(28)20(15-27)34-26/h5-14,20-23,26-30H,15H2,1-4H3,(H,31,32)/b6-5+,11-7+,12-8+,16-9+,17-10+,18-13+,19-14+/t20-,21-,22+,23-,26+/m1/s1

> <PUBCHEM_IUPAC_INCHIKEY>
ZVGODNZUEWDIPM-YXRLTKITSA-N

> <PUBCHEM_XLOGP3_AA>
3.6

> <PUBCHEM_EXACT_MASS>
490.220283

> <PUBCHEM_MOLECULAR_FORMULA>
C26H34O9

> <PUBCHEM_MOLECULAR_WEIGHT>
490.54276

> <PUBCHEM_OPENEYE_CAN_SMILES>
CC(=CC=CC=C(C)C=CC=C(C)C(=O)OC1C(C(C(C(O1)CO)O)O)O)C=CC=C(C)C(=O)O

> <PUBCHEM_OPENEYE_ISO_SMILES>
C/C(=C\C=C\C=C(/C)\C=C\C=C(/C)\C(=O)O[C@H]1[C@@H]([C@H]([C@@H]([C@H](O1)CO)O)O)O)/C=C/C=C(\C)/C(=O)O

> <PUBCHEM_CACTVS_TPSA>
154

> <PUBCHEM_MONOISOTOPIC_WEIGHT>
490.220283

> <PUBCHEM_TOTAL_CHARGE>
0

> <PUBCHEM_HEAVY_ATOM_COUNT>
35

> <PUBCHEM_ATOM_DEF_STEREO_COUNT>
5

> <PUBCHEM_ATOM_UDEF_STEREO_COUNT>
0

> <PUBCHEM_BOND_DEF_STEREO_COUNT>
7

> <PUBCHEM_BOND_UDEF_STEREO_COUNT>
0

> <PUBCHEM_ISOTOPIC_ATOM_COUNT>
0

> <PUBCHEM_COMPONENT_COUNT>
1

> <PUBCHEM_CACTVS_TAUTO_COUNT>
1

> <PUBCHEM_COORDINATE_TYPE>
1
5
255

> <PUBCHEM_BONDANNOTATIONS>
12  15  5
10  2  6
11  3  5
13  4  6
14  5  5

$$$$

