   Color/Form

     * Crystals from ethyl acetate
     * WHITE TO CREAMY WHITE CRYSTALS OR CRYSTALLINE POWDER

   from [1]HSDB

   Odor
        ODORLESS
   from [2]HSDB

   Melting Point
        185-190 deg C
   from [3]HSDB

   Octanol/Water Partition Coefficient
        log Kow 3.6 = (est)
   from [4]HSDB

   Solubilities

     * Practically insol in water; sol in ethanol, dioxane, ether; very
       sol in chloroform
     * In water, 5.2 mg/L at 25 deg C (est)

   from [5]HSDB

   Spectral Properties

     * Specific optical rotation (sodium): +38 deg
     * Max absorption 285 nm (log epsilon= 3.99)

   from [6]HSDB

   Vapor Pressure
        5.1X10-11 mm Hg at 25 deg C (est)
   from [7]HSDB

   Other Chemical/Physical Properties

     * Tautomeric in nature & can exist as either tautomer or mixture of
       both; stable in air.
     * Henry's Law constant = 1.5X10-9 atm-cu m/mole at 25 deg C (est)
     * Hydroxyl radical reaction rate constant = 1.1X10-10 cu cm/molec-sec
       at 25 deg C (est)
     * Ozone reaction rate constant = 1.1X10-17 cu cm/molec-sec at 25 deg
       C (est)

   from [8]HSDB

   Computed Properties
   Molecular Weight                  332.47698 [g/mol]
   Molecular Formula                 C[21]H[32]O[3]
   XLogP3-AA                         4.4
   H-Bond Donor                      2
   H-Bond Acceptor                   3
   Rotatable Bond Count              0
   Tautomer Count                    5
   Exact Mass                        332.235145
   MonoIsotopic Mass                 332.235145
   Topological Polar Surface Area    57.5
   Heavy Atom Count                  24
   Formal Charge                     0
   Complexity                        596
   Isotope Atom Count                0
   Defined Atom Stereocenter Count   7
   Undefined Atom Stereocenter Count 0
   Defined Bond Stereocenter Count   1
   Undefined Bond Stereocenter Count 0
   Covalently-Bonded Unit Count      1
   Feature 3D Acceptor Count         2
   Feature 3D Donor Count            2
   Feature 3D Ring Count             4
   Effective Rotor Count             1.8
   Conformer Sampling RMSD           0.6
   CID Conformer Count               [9]1

References

   1. http://toxnet.nlm.nih.gov/cgi-bin/sis/search/r?dbs+hsdb:@term+@rn+@rel+434-07-1
   2. http://toxnet.nlm.nih.gov/cgi-bin/sis/search/r?dbs+hsdb:@term+@rn+@rel+434-07-1
   3. http://toxnet.nlm.nih.gov/cgi-bin/sis/search/r?dbs+hsdb:@term+@rn+@rel+434-07-1
   4. http://toxnet.nlm.nih.gov/cgi-bin/sis/search/r?dbs+hsdb:@term+@rn+@rel+434-07-1
   5. http://toxnet.nlm.nih.gov/cgi-bin/sis/search/r?dbs+hsdb:@term+@rn+@rel+434-07-1
   6. http://toxnet.nlm.nih.gov/cgi-bin/sis/search/r?dbs+hsdb:@term+@rn+@rel+434-07-1
   7. http://toxnet.nlm.nih.gov/cgi-bin/sis/search/r?dbs+hsdb:@term+@rn+@rel+434-07-1
   8. http://toxnet.nlm.nih.gov/cgi-bin/sis/search/r?dbs+hsdb:@term+@rn+@rel+434-07-1
   9. http://pubchem.ncbi.nlm.nih.gov/vw3d/vw3d.cgi?cid=5281034
