9166
  -OEChem-06261203282D

 34 38  0     0  0  0  0  0  0999 V2000
    4.7564   -1.2242    0.0000 N   0  0  0  0  0  0  0  0  0  0  0  0
    2.9643   -0.1896    0.0000 N   0  0  0  0  0  0  0  0  0  0  0  0
    4.7403    1.8173    0.0000 C   0  0  0  0  0  0  0  0  0  0  0  0
    5.6063    1.3173    0.0000 C   0  0  0  0  0  0  0  0  0  0  0  0
    3.8743    1.3173    0.0000 C   0  0  0  0  0  0  0  0  0  0  0  0
    5.6063    0.3173    0.0000 C   0  0  0  0  0  0  0  0  0  0  0  0
    4.7403   -0.1827    0.0000 C   0  0  0  0  0  0  0  0  0  0  0  0
    3.8743    0.3173    0.0000 C   0  0  0  0  0  0  0  0  0  0  0  0
    4.7564    2.8588    0.0000 C   0  0  0  0  0  0  0  0  0  0  0  0
    6.5003    1.8520    0.0000 C   0  0  0  0  0  0  0  0  0  0  0  0
    2.9643    1.8241    0.0000 C   0  0  0  0  0  0  0  0  0  0  0  0
    6.5003   -0.2174    0.0000 C   0  0  0  0  0  0  0  0  0  0  0  0
    2.9562   -1.2312    0.0000 C   0  0  0  0  0  0  0  0  0  0  0  0
    3.8583   -1.7520    0.0000 C   0  0  0  0  0  0  0  0  0  0  0  0
    7.4063    1.3381    0.0000 C   0  0  0  0  0  0  0  0  0  0  0  0
    3.8583    3.3866    0.0000 C   0  0  0  0  0  0  0  0  0  0  0  0
    7.4063    0.2965    0.0000 C   0  0  0  0  0  0  0  0  0  0  0  0
    2.9562    2.8657    0.0000 C   0  0  0  0  0  0  0  0  0  0  0  0
    2.0084   -1.7591    0.0000 C   0  0  0  0  0  0  0  0  0  0  0  0
    3.8751   -2.8368    0.0000 C   0  0  0  0  0  0  0  0  0  0  0  0
    2.0000   -2.8441    0.0000 C   0  0  0  0  0  0  0  0  0  0  0  0
    2.9396   -3.3866    0.0000 C   0  0  0  0  0  0  0  0  0  0  0  0
    5.2968    3.1626    0.0000 H   0  0  0  0  0  0  0  0  0  0  0  0
    6.4931    2.4719    0.0000 H   0  0  0  0  0  0  0  0  0  0  0  0
    2.4310    1.5079    0.0000 H   0  0  0  0  0  0  0  0  0  0  0  0
    6.4931   -0.8373    0.0000 H   0  0  0  0  0  0  0  0  0  0  0  0
    3.8607    4.0066    0.0000 H   0  0  0  0  0  0  0  0  0  0  0  0
    7.9421    1.6502    0.0000 H   0  0  0  0  0  0  0  0  0  0  0  0
    2.4181    3.1737    0.0000 H   0  0  0  0  0  0  0  0  0  0  0  0
    7.9421   -0.0156    0.0000 H   0  0  0  0  0  0  0  0  0  0  0  0
    1.4750   -1.4429    0.0000 H   0  0  0  0  0  0  0  0  0  0  0  0
    4.4155   -3.1406    0.0000 H   0  0  0  0  0  0  0  0  0  0  0  0
    1.4619   -3.1520    0.0000 H   0  0  0  0  0  0  0  0  0  0  0  0
    2.9420   -4.0066    0.0000 H   0  0  0  0  0  0  0  0  0  0  0  0
  1  7  2  0  0  0  0
  1 14  1  0  0  0  0
  2  8  2  0  0  0  0
  2 13  1  0  0  0  0
  3  4  1  0  0  0  0
  3  5  1  0  0  0  0
  3  9  2  0  0  0  0
  4  6  1  0  0  0  0
  4 10  2  0  0  0  0
  5  8  1  0  0  0  0
  5 11  2  0  0  0  0
  6  7  1  0  0  0  0
  6 12  2  0  0  0  0
  7  8  1  0  0  0  0
  9 16  1  0  0  0  0
  9 23  1  0  0  0  0
 10 15  1  0  0  0  0
 10 24  1  0  0  0  0
 11 18  1  0  0  0  0
 11 25  1  0  0  0  0
 12 17  1  0  0  0  0
 12 26  1  0  0  0  0
 13 14  1  0  0  0  0
 13 19  2  0  0  0  0
 14 20  2  0  0  0  0
 15 17  2  0  0  0  0
 15 28  1  0  0  0  0
 16 18  2  0  0  0  0
 16 27  1  0  0  0  0
 17 30  1  0  0  0  0
 18 29  1  0  0  0  0
 19 21  1  0  0  0  0
 19 31  1  0  0  0  0
 20 22  1  0  0  0  0
 20 32  1  0  0  0  0
 21 22  2  0  0  0  0
 21 33  1  0  0  0  0
 22 34  1  0  0  0  0
M  END
> <PUBCHEM_COMPOUND_CID>
9166

> <PUBCHEM_COMPOUND_CANONICALIZED>
1

> <PUBCHEM_CACTVS_COMPLEXITY>
371

> <PUBCHEM_CACTVS_HBOND_ACCEPTOR>
2

> <PUBCHEM_CACTVS_HBOND_DONOR>
0

> <PUBCHEM_CACTVS_ROTATABLE_BOND>
0

> <PUBCHEM_CACTVS_SUBSKEYS>
AAADccB7AAAAAAAAAAAAAAAAAAAAAAAAAAA8YMGCAAAAAADx/AAAHAAAAAAADAiBHgAwwPIIEACgAyRiRACCgCQhEiAImCAwdJgIYOLAkZGUIAhggADIyAcQgMAOyAACQAASACCQAASAACQAQAAAAAAAAA==

> <PUBCHEM_IUPAC_OPENEYE_NAME>
phenanthro[9,10-b]quinoxaline

> <PUBCHEM_IUPAC_CAS_NAME>
phenanthro[9,10-b]quinoxaline

> <PUBCHEM_IUPAC_NAME>
phenanthro[9,10-b]quinoxaline

> <PUBCHEM_IUPAC_SYSTEMATIC_NAME>
phenanthro[9,10-b]quinoxaline

> <PUBCHEM_IUPAC_TRADITIONAL_NAME>
phenanthro[9,10-b]quinoxaline

> <PUBCHEM_IUPAC_INCHI>
InChI=1S/C20H12N2/c1-3-9-15-13(7-1)14-8-2-4-10-16(14)20-19(15)21-17-11-5-6-12-18(17)22-20/h1-12H

> <PUBCHEM_IUPAC_INCHIKEY>
KHPYJVQRBJJYSF-UHFFFAOYSA-N

> <PUBCHEM_XLOGP3_AA>
5.1

> <PUBCHEM_EXACT_MASS>
280.100048

> <PUBCHEM_MOLECULAR_FORMULA>
C20H12N2

> <PUBCHEM_MOLECULAR_WEIGHT>
280.32268

> <PUBCHEM_OPENEYE_CAN_SMILES>
C1=CC=C2C(=C1)C3=CC=CC=C3C4=NC5=CC=CC=C5N=C24

> <PUBCHEM_OPENEYE_ISO_SMILES>
C1=CC=C2C(=C1)C3=CC=CC=C3C4=NC5=CC=CC=C5N=C24

> <PUBCHEM_CACTVS_TPSA>
25.8

> <PUBCHEM_MONOISOTOPIC_WEIGHT>
280.100048

> <PUBCHEM_TOTAL_CHARGE>
0

> <PUBCHEM_HEAVY_ATOM_COUNT>
22

> <PUBCHEM_ATOM_DEF_STEREO_COUNT>
0

> <PUBCHEM_ATOM_UDEF_STEREO_COUNT>
0

> <PUBCHEM_BOND_DEF_STEREO_COUNT>
0

> <PUBCHEM_BOND_UDEF_STEREO_COUNT>
0

> <PUBCHEM_ISOTOPIC_ATOM_COUNT>
0

> <PUBCHEM_COMPONENT_COUNT>
1

> <PUBCHEM_CACTVS_TAUTO_COUNT>
1

> <PUBCHEM_COORDINATE_TYPE>
1
5
255

> <PUBCHEM_BONDANNOTATIONS>
1  14  8
1  7  8
10  15  8
11  18  8
12  17  8
13  14  8
13  19  8
14  20  8
15  17  8
16  18  8
19  21  8
2  13  8
2  8  8
20  22  8
21  22  8
3  4  8
3  5  8
3  9  8
4  10  8
4  6  8
5  11  8
5  8  8
6  12  8
6  7  8
7  8  8
9  16  8

$$$$

