   Color/Form

     * White crystals
     * Colorless crystals

   from [1]HSDB

   Odor
        Odorless
   from [2]HSDB

   Melting Point
        135 deg C
   from [3]HSDB

   Corrosivity
        Noncorrosive
   from [4]HSDB

   Density/Specific Gravity
        1.08 at 25 deg C/25 deg C
   from [5]HSDB

   Octanol/Water Partition Coefficient
        log Kow = 3.80
   from [6]HSDB

   Solubilities

     * Sol to the extent of 10% or more in ethanol, dimethylacetamide,
       dimethylformamide, and methylene chloride.
     * In dimethylacetamide 36.7, dimethylformamide 26, ethanol 16,
       isophorone 11.8, cellosolve 17.5, and methylene chloride 11.8 (all
       in g/100 mL) at 25 deg C.
     * In water, 18 mg/L at 25 deg C

   from [7]HSDB

   Spectral Properties
        Intense mass spectral peaks: 93 m/z (100%), 55 m/z (17%), 56 m/z
   (16%), 94 m/z (12%)
   from [8]HSDB

   Vapor Pressure
        4.0X10-9 mm Hg at 25 deg C
   from [9]HSDB

   Other Chemical/Physical Properties

     * Henry's Law constant = 6.8X10-11 atm-cu m/mol at 25 deg C (est)
     * CRYSTALS; MELTING POINT: 157-159 DEG C /TRANS-SIDURON/

   from [10]HSDB

   Computed Properties
   Molecular Weight                  232.3214 [g/mol]
   Molecular Formula                 C[14]H[20]N[2]O
   XLogP3                            3.3
   H-Bond Donor                      2
   H-Bond Acceptor                   1
   Rotatable Bond Count              2
   Tautomer Count                    3
   Exact Mass                        232.157563
   MonoIsotopic Mass                 232.157563
   Topological Polar Surface Area    41.1
   Heavy Atom Count                  17
   Formal Charge                     0
   Complexity                        249
   Isotope Atom Count                0
   Defined Atom Stereocenter Count   0
   Undefined Atom Stereocenter Count 2
   Defined Bond Stereocenter Count   0
   Undefined Bond Stereocenter Count 0
   Covalently-Bonded Unit Count      1
   Feature 3D Acceptor Count         1
   Feature 3D Donor Count            2
   Feature 3D Ring Count             2
   Effective Rotor Count             5.2
   Conformer Sampling RMSD           0.6
   CID Conformer Count               [11]45

References

   1. http://toxnet.nlm.nih.gov/cgi-bin/sis/search/r?dbs+hsdb:@term+@rn+@rel+1982-49-6
   2. http://toxnet.nlm.nih.gov/cgi-bin/sis/search/r?dbs+hsdb:@term+@rn+@rel+1982-49-6
   3. http://toxnet.nlm.nih.gov/cgi-bin/sis/search/r?dbs+hsdb:@term+@rn+@rel+1982-49-6
   4. http://toxnet.nlm.nih.gov/cgi-bin/sis/search/r?dbs+hsdb:@term+@rn+@rel+1982-49-6
   5. http://toxnet.nlm.nih.gov/cgi-bin/sis/search/r?dbs+hsdb:@term+@rn+@rel+1982-49-6
   6. http://toxnet.nlm.nih.gov/cgi-bin/sis/search/r?dbs+hsdb:@term+@rn+@rel+1982-49-6
   7. http://toxnet.nlm.nih.gov/cgi-bin/sis/search/r?dbs+hsdb:@term+@rn+@rel+1982-49-6
   8. http://toxnet.nlm.nih.gov/cgi-bin/sis/search/r?dbs+hsdb:@term+@rn+@rel+1982-49-6
   9. http://toxnet.nlm.nih.gov/cgi-bin/sis/search/r?dbs+hsdb:@term+@rn+@rel+1982-49-6
  10. http://toxnet.nlm.nih.gov/cgi-bin/sis/search/r?dbs+hsdb:@term+@rn+@rel+1982-49-6
  11. http://pubchem.ncbi.nlm.nih.gov/vw3d/vw3d.cgi?cid=16116
