9907412
  -OEChem-07051213122D

 57 59  0     0  0  0  0  0  0999 V2000
    6.9141   -0.3173    0.0000 O   0  0  0  0  0  0  0  0  0  0  0  0
    4.3450   -0.6263    0.0000 O   0  0  0  0  0  0  0  0  0  0  0  0
    7.1929    1.4428    0.0000 O   0  0  0  0  0  0  0  0  0  0  0  0
    4.8803   -2.2736    0.0000 O   0  0  0  0  0  0  0  0  0  0  0  0
    6.1051   -0.9051    0.0000 C   0  0  0  0  0  0  0  0  0  0  0  0
    6.9141   -1.4929    0.0000 C   0  0  0  0  0  0  0  0  0  0  0  0
    5.2961   -1.4929    0.0000 C   0  0  0  0  0  0  0  0  0  0  0  0
    5.6051   -2.4440    0.0000 C   0  0  0  0  0  0  0  0  0  0  0  0
    6.6051   -2.4440    0.0000 C   0  0  0  0  0  0  0  0  0  0  0  0
    5.2961   -0.3173    0.0000 C   0  0  0  0  0  0  0  0  0  0  0  0
    5.6051    0.6337    0.0000 C   0  0  0  0  0  0  0  0  0  0  0  0
    6.6051    0.6337    0.0000 C   0  0  0  0  0  0  0  0  0  0  0  0
    5.0173    1.4428    0.0000 C   0  0  0  0  0  0  0  0  0  0  0  0
    2.9782   -2.8916    0.0000 C   0  0  0  0  0  0  0  0  0  0  0  0
    3.1861   -1.9135    0.0000 C   0  0  0  0  0  0  0  0  0  0  0  0
    4.1371   -1.6045    0.0000 C   0  0  0  0  0  0  0  0  0  0  0  0
    5.4240    2.3563    0.0000 C   0  0  0  0  0  0  0  0  0  0  0  0
    4.0228    1.3382    0.0000 C   0  0  0  0  0  0  0  0  0  0  0  0
    2.7702   -3.8698    0.0000 C   0  0  0  0  0  0  0  0  0  0  0  0
    2.0000   -2.6837    0.0000 C   0  0  0  0  0  0  0  0  0  0  0  0
    3.9563   -3.0996    0.0000 C   0  0  0  0  0  0  0  0  0  0  0  0
    4.8363    3.1653    0.0000 C   0  0  0  0  0  0  0  0  0  0  0  0
    3.4350    2.1472    0.0000 C   0  0  0  0  0  0  0  0  0  0  0  0
    3.8418    3.0608    0.0000 C   0  0  0  0  0  0  0  0  0  0  0  0
    6.4186    2.4608    0.0000 C   0  0  0  0  0  0  0  0  0  0  0  0
    3.6161    0.4247    0.0000 C   0  0  0  0  0  0  0  0  0  0  0  0
    3.2540    3.8698    0.0000 C   0  0  0  0  0  0  0  0  0  0  0  0
    4.9861   -0.9560    0.0000 H   0  0  0  0  0  0  0  0  0  0  0  0
    4.7297   -1.7451    0.0000 H   0  0  0  0  0  0  0  0  0  0  0  0
    7.4805   -1.7451    0.0000 H   0  0  0  0  0  0  0  0  0  0  0  0
    7.2241   -0.9560    0.0000 H   0  0  0  0  0  0  0  0  0  0  0  0
    4.9986   -2.5729    0.0000 H   0  0  0  0  0  0  0  0  0  0  0  0
    5.6699   -3.0606    0.0000 H   0  0  0  0  0  0  0  0  0  0  0  0
    6.5403   -3.0606    0.0000 H   0  0  0  0  0  0  0  0  0  0  0  0
    7.2116   -2.5729    0.0000 H   0  0  0  0  0  0  0  0  0  0  0  0
    3.0998   -1.2995    0.0000 H   0  0  0  0  0  0  0  0  0  0  0  0
    2.5664   -1.8919    0.0000 H   0  0  0  0  0  0  0  0  0  0  0  0
    2.1638   -3.7409    0.0000 H   0  0  0  0  0  0  0  0  0  0  0  0
    2.6413   -4.4762    0.0000 H   0  0  0  0  0  0  0  0  0  0  0  0
    3.3767   -3.9987    0.0000 H   0  0  0  0  0  0  0  0  0  0  0  0
    2.1289   -2.0773    0.0000 H   0  0  0  0  0  0  0  0  0  0  0  0
    1.3936   -2.5548    0.0000 H   0  0  0  0  0  0  0  0  0  0  0  0
    1.8711   -3.2902    0.0000 H   0  0  0  0  0  0  0  0  0  0  0  0
    3.8274   -3.7060    0.0000 H   0  0  0  0  0  0  0  0  0  0  0  0
    4.5628   -3.2285    0.0000 H   0  0  0  0  0  0  0  0  0  0  0  0
    4.0852   -2.4931    0.0000 H   0  0  0  0  0  0  0  0  0  0  0  0
    5.0884    3.7317    0.0000 H   0  0  0  0  0  0  0  0  0  0  0  0
    2.8184    2.0824    0.0000 H   0  0  0  0  0  0  0  0  0  0  0  0
    6.4834    1.8442    0.0000 H   0  0  0  0  0  0  0  0  0  0  0  0
    7.0352    2.5256    0.0000 H   0  0  0  0  0  0  0  0  0  0  0  0
    6.3538    3.0774    0.0000 H   0  0  0  0  0  0  0  0  0  0  0  0
    3.0497    0.6769    0.0000 H   0  0  0  0  0  0  0  0  0  0  0  0
    3.3639   -0.1417    0.0000 H   0  0  0  0  0  0  0  0  0  0  0  0
    4.1825    0.1725    0.0000 H   0  0  0  0  0  0  0  0  0  0  0  0
    3.7556    4.2342    0.0000 H   0  0  0  0  0  0  0  0  0  0  0  0
    2.8895    4.3714    0.0000 H   0  0  0  0  0  0  0  0  0  0  0  0
    2.7524    3.5054    0.0000 H   0  0  0  0  0  0  0  0  0  0  0  0
  1  5  1  0  0  0  0
  1 12  1  0  0  0  0
  2 10  1  0  0  0  0
  2 16  1  0  0  0  0
  3 12  2  0  0  0  0
  4 16  2  0  0  0  0
  5  6  1  0  0  0  0
  5  7  1  0  0  0  0
  5 10  1  0  0  0  0
  6  9  1  0  0  0  0
  6 30  1  0  0  0  0
  6 31  1  0  0  0  0
  7  8  1  0  0  0  0
  7 28  1  0  0  0  0
  7 29  1  0  0  0  0
  8  9  1  0  0  0  0
  8 32  1  0  0  0  0
  8 33  1  0  0  0  0
  9 34  1  0  0  0  0
  9 35  1  0  0  0  0
 10 11  2  0  0  0  0
 11 12  1  0  0  0  0
 11 13  1  0  0  0  0
 13 17  2  0  0  0  0
 13 18  1  0  0  0  0
 14 15  1  0  0  0  0
 14 19  1  0  0  0  0
 14 20  1  0  0  0  0
 14 21  1  0  0  0  0
 15 16  1  0  0  0  0
 15 36  1  0  0  0  0
 15 37  1  0  0  0  0
 17 22  1  0  0  0  0
 17 25  1  0  0  0  0
 18 23  2  0  0  0  0
 18 26  1  0  0  0  0
 19 38  1  0  0  0  0
 19 39  1  0  0  0  0
 19 40  1  0  0  0  0
 20 41  1  0  0  0  0
 20 42  1  0  0  0  0
 20 43  1  0  0  0  0
 21 44  1  0  0  0  0
 21 45  1  0  0  0  0
 21 46  1  0  0  0  0
 22 24  2  0  0  0  0
 22 47  1  0  0  0  0
 23 24  1  0  0  0  0
 23 48  1  0  0  0  0
 24 27  1  0  0  0  0
 25 49  1  0  0  0  0
 25 50  1  0  0  0  0
 25 51  1  0  0  0  0
 26 52  1  0  0  0  0
 26 53  1  0  0  0  0
 26 54  1  0  0  0  0
 27 55  1  0  0  0  0
 27 56  1  0  0  0  0
 27 57  1  0  0  0  0
M  END
> <PUBCHEM_COMPOUND_CID>
9907412

> <PUBCHEM_COMPOUND_CANONICALIZED>
1

> <PUBCHEM_CACTVS_COMPLEXITY>
621

> <PUBCHEM_CACTVS_HBOND_ACCEPTOR>
4

> <PUBCHEM_CACTVS_HBOND_DONOR>
0

> <PUBCHEM_CACTVS_ROTATABLE_BOND>
5

> <PUBCHEM_CACTVS_SUBSKEYS>
AAADceB4OAAAAAAAAAAAAAAAAAAAAYIAAAAwAAAAAAAAAAABAAAAGgAAAAAADkSAmAAyCIAABACIAiDSCAACCAAgIAAAiAEAAMgJJDKANRCCMAAkwAEKqQeIyOCPwAACAAAQAACAAAQAACAAAAAAAAAAAA==

> <PUBCHEM_IUPAC_OPENEYE_NAME>
[2-oxo-3-(2,4,6-trimethylphenyl)-1-oxaspiro[4.4]non-3-en-4-yl] 3,3-dimethylbutanoate

> <PUBCHEM_IUPAC_CAS_NAME>
3,3-dimethylbutanoic acid [2-oxo-3-(2,4,6-trimethylphenyl)-1-oxaspiro[4.4]non-3-en-4-yl] ester

> <PUBCHEM_IUPAC_NAME>
[2-oxo-3-(2,4,6-trimethylphenyl)-1-oxaspiro[4.4]non-3-en-4-yl] 3,3-dimethylbutanoate

> <PUBCHEM_IUPAC_SYSTEMATIC_NAME>
[2-oxidanylidene-3-(2,4,6-trimethylphenyl)-1-oxaspiro[4.4]non-3-en-4-yl] 3,3-dimethylbutanoate

> <PUBCHEM_IUPAC_TRADITIONAL_NAME>
3,3-dimethylbutyric acid (2-keto-3-mesityl-1-oxaspiro[4.4]non-3-en-4-yl) ester

> <PUBCHEM_IUPAC_INCHI>
InChI=1S/C23H30O4/c1-14-11-15(2)18(16(3)12-14)19-20(26-17(24)13-22(4,5)6)23(27-21(19)25)9-7-8-10-23/h11-12H,7-10,13H2,1-6H3

> <PUBCHEM_IUPAC_INCHIKEY>
GOLXNESZZPUPJE-UHFFFAOYSA-N

> <PUBCHEM_XLOGP3_AA>
5.1

> <PUBCHEM_EXACT_MASS>
370.214409

> <PUBCHEM_MOLECULAR_FORMULA>
C23H30O4

> <PUBCHEM_MOLECULAR_WEIGHT>
370.4819

> <PUBCHEM_OPENEYE_CAN_SMILES>
CC1=CC(=C(C(=C1)C)C2=C(C3(CCCC3)OC2=O)OC(=O)CC(C)(C)C)C

> <PUBCHEM_OPENEYE_ISO_SMILES>
CC1=CC(=C(C(=C1)C)C2=C(C3(CCCC3)OC2=O)OC(=O)CC(C)(C)C)C

> <PUBCHEM_CACTVS_TPSA>
52.6

> <PUBCHEM_MONOISOTOPIC_WEIGHT>
370.214409

> <PUBCHEM_TOTAL_CHARGE>
0

> <PUBCHEM_HEAVY_ATOM_COUNT>
27

> <PUBCHEM_ATOM_DEF_STEREO_COUNT>
0

> <PUBCHEM_ATOM_UDEF_STEREO_COUNT>
0

> <PUBCHEM_BOND_DEF_STEREO_COUNT>
0

> <PUBCHEM_BOND_UDEF_STEREO_COUNT>
0

> <PUBCHEM_ISOTOPIC_ATOM_COUNT>
0

> <PUBCHEM_COMPONENT_COUNT>
1

> <PUBCHEM_CACTVS_TAUTO_COUNT>
1

> <PUBCHEM_COORDINATE_TYPE>
1
5
255

> <PUBCHEM_BONDANNOTATIONS>
13  17  8
13  18  8
17  22  8
18  23  8
22  24  8
23  24  8

$$$$

