13947
  -OEChem-06241222412D

 43 44  0     0  0  0  0  0  0999 V2000
    7.1906    0.3043    0.0000 S   0  0  0  0  0  0  0  0  0  0  0  0
    5.1906    0.3043    0.0000 O   0  0  0  0  0  0  0  0  0  0  0  0
    8.0567    0.8043    0.0000 O   0  0  0  0  0  0  0  0  0  0  0  0
    6.3246   -0.1957    0.0000 O   0  0  0  0  0  0  0  0  0  0  0  0
    5.1906    2.0363    0.0000 N   0  0  0  0  0  0  0  0  0  0  0  0
    6.6906    1.1703    0.0000 N   0  0  0  0  0  0  0  0  0  0  0  0
    4.1906    2.0363    0.0000 C   0  0  0  0  0  0  0  0  0  0  0  0
    3.7568    1.1354    0.0000 C   0  0  0  0  0  0  0  0  0  0  0  0
    3.7568    2.9373    0.0000 C   0  0  0  0  0  0  0  0  0  0  0  0
    2.7818    0.9128    0.0000 C   0  0  0  0  0  0  0  0  0  0  0  0
    2.7818    3.1598    0.0000 C   0  0  0  0  0  0  0  0  0  0  0  0
    2.0000    1.5363    0.0000 C   0  0  0  0  0  0  0  0  0  0  0  0
    2.0000    2.5363    0.0000 C   0  0  0  0  0  0  0  0  0  0  0  0
    5.6906    1.1703    0.0000 C   0  0  0  0  0  0  0  0  0  0  0  0
    7.6906   -0.5617    0.0000 C   0  0  0  0  0  0  0  0  0  0  0  0
    7.1906   -1.4278    0.0000 C   0  0  0  0  0  0  0  0  0  0  0  0
    8.6906   -0.5617    0.0000 C   0  0  0  0  0  0  0  0  0  0  0  0
    8.6906   -2.2938    0.0000 C   0  0  0  0  0  0  0  0  0  0  0  0
    7.6906   -2.2938    0.0000 C   0  0  0  0  0  0  0  0  0  0  0  0
    9.1906   -1.4278    0.0000 C   0  0  0  0  0  0  0  0  0  0  0  0
    9.1906   -3.1598    0.0000 C   0  0  0  0  0  0  0  0  0  0  0  0
    4.5205    2.5613    0.0000 H   0  0  0  0  0  0  0  0  0  0  0  0
    4.3612    3.0753    0.0000 H   0  0  0  0  0  0  0  0  0  0  0  0
    3.7568    3.5573    0.0000 H   0  0  0  0  0  0  0  0  0  0  0  0
    3.7568    0.5154    0.0000 H   0  0  0  0  0  0  0  0  0  0  0  0
    4.3612    0.9974    0.0000 H   0  0  0  0  0  0  0  0  0  0  0  0
    3.0508    3.7184    0.0000 H   0  0  0  0  0  0  0  0  0  0  0  0
    2.2971    3.5464    0.0000 H   0  0  0  0  0  0  0  0  0  0  0  0
    2.2971    0.5263    0.0000 H   0  0  0  0  0  0  0  0  0  0  0  0
    3.0508    0.3542    0.0000 H   0  0  0  0  0  0  0  0  0  0  0  0
    1.7310    3.0949    0.0000 H   0  0  0  0  0  0  0  0  0  0  0  0
    1.3955    2.3984    0.0000 H   0  0  0  0  0  0  0  0  0  0  0  0
    1.3955    1.6743    0.0000 H   0  0  0  0  0  0  0  0  0  0  0  0
    1.7310    0.9777    0.0000 H   0  0  0  0  0  0  0  0  0  0  0  0
    5.5006    2.5733    0.0000 H   0  0  0  0  0  0  0  0  0  0  0  0
    7.0006    1.7072    0.0000 H   0  0  0  0  0  0  0  0  0  0  0  0
    6.5706   -1.4278    0.0000 H   0  0  0  0  0  0  0  0  0  0  0  0
    9.0006   -0.0248    0.0000 H   0  0  0  0  0  0  0  0  0  0  0  0
    7.3806   -2.8307    0.0000 H   0  0  0  0  0  0  0  0  0  0  0  0
    9.8106   -1.4278    0.0000 H   0  0  0  0  0  0  0  0  0  0  0  0
    8.6537   -3.4698    0.0000 H   0  0  0  0  0  0  0  0  0  0  0  0
    9.5006   -3.6968    0.0000 H   0  0  0  0  0  0  0  0  0  0  0  0
    9.7276   -2.8498    0.0000 H   0  0  0  0  0  0  0  0  0  0  0  0
  1  3  2  0  0  0  0
  1  4  2  0  0  0  0
  1  6  1  0  0  0  0
  1 15  1  0  0  0  0
  2 14  2  0  0  0  0
  5  7  1  0  0  0  0
  5 14  1  0  0  0  0
  5 35  1  0  0  0  0
  6 14  1  0  0  0  0
  6 36  1  0  0  0  0
  7  8  1  0  0  0  0
  7  9  1  0  0  0  0
  7 22  1  0  0  0  0
  8 10  1  0  0  0  0
  8 25  1  0  0  0  0
  8 26  1  0  0  0  0
  9 11  1  0  0  0  0
  9 23  1  0  0  0  0
  9 24  1  0  0  0  0
 10 12  1  0  0  0  0
 10 29  1  0  0  0  0
 10 30  1  0  0  0  0
 11 13  1  0  0  0  0
 11 27  1  0  0  0  0
 11 28  1  0  0  0  0
 12 13  1  0  0  0  0
 12 33  1  0  0  0  0
 12 34  1  0  0  0  0
 13 31  1  0  0  0  0
 13 32  1  0  0  0  0
 15 16  2  0  0  0  0
 15 17  1  0  0  0  0
 16 19  1  0  0  0  0
 16 37  1  0  0  0  0
 17 20  2  0  0  0  0
 17 38  1  0  0  0  0
 18 19  2  0  0  0  0
 18 20  1  0  0  0  0
 18 21  1  0  0  0  0
 19 39  1  0  0  0  0
 20 40  1  0  0  0  0
 21 41  1  0  0  0  0
 21 42  1  0  0  0  0
 21 43  1  0  0  0  0
M  END
> <PUBCHEM_COMPOUND_CID>
13947

> <PUBCHEM_COMPOUND_CANONICALIZED>
1

> <PUBCHEM_CACTVS_COMPLEXITY>
428

> <PUBCHEM_CACTVS_HBOND_ACCEPTOR>
3

> <PUBCHEM_CACTVS_HBOND_DONOR>
2

> <PUBCHEM_CACTVS_ROTATABLE_BOND>
3

> <PUBCHEM_CACTVS_SUBSKEYS>
AAADceBzMABAAAAAAAAAAAAAAAAAAAAAAAAwAAAABgAAAAABAAAAHgQQQAAADCjBWAQzAYLAAAKIAiBCEHBCABAgAAAIiJgIAIiIICKAkRCEIAAglgIIiAcQgAAOEAAAAAAAAAAgAAAAAAAAAAAAAAAAAA==

> <PUBCHEM_IUPAC_OPENEYE_NAME>
1-cycloheptyl-3-(p-tolylsulfonyl)urea

> <PUBCHEM_IUPAC_CAS_NAME>
1-cycloheptyl-3-(4-methylphenyl)sulfonylurea

> <PUBCHEM_IUPAC_NAME>
1-cycloheptyl-3-(4-methylphenyl)sulfonylurea

> <PUBCHEM_IUPAC_SYSTEMATIC_NAME>
1-cycloheptyl-3-(4-methylphenyl)sulfonyl-urea

> <PUBCHEM_IUPAC_TRADITIONAL_NAME>
1-cycloheptyl-3-tosyl-urea

> <PUBCHEM_IUPAC_INCHI>
InChI=1S/C15H22N2O3S/c1-12-8-10-14(11-9-12)21(19,20)17-15(18)16-13-6-4-2-3-5-7-13/h8-11,13H,2-7H2,1H3,(H2,16,17,18)

> <PUBCHEM_IUPAC_INCHIKEY>
QCCIACYFEQKAMZ-UHFFFAOYSA-N

> <PUBCHEM_XLOGP3>
3.4

> <PUBCHEM_EXACT_MASS>
310.135114

> <PUBCHEM_MOLECULAR_FORMULA>
C15H22N2O3S

> <PUBCHEM_MOLECULAR_WEIGHT>
310.41178

> <PUBCHEM_OPENEYE_CAN_SMILES>
CC1=CC=C(C=C1)S(=O)(=O)NC(=O)NC2CCCCCC2

> <PUBCHEM_OPENEYE_ISO_SMILES>
CC1=CC=C(C=C1)S(=O)(=O)NC(=O)NC2CCCCCC2

> <PUBCHEM_CACTVS_TPSA>
83.6

> <PUBCHEM_MONOISOTOPIC_WEIGHT>
310.135114

> <PUBCHEM_TOTAL_CHARGE>
0

> <PUBCHEM_HEAVY_ATOM_COUNT>
21

> <PUBCHEM_ATOM_DEF_STEREO_COUNT>
0

> <PUBCHEM_ATOM_UDEF_STEREO_COUNT>
0

> <PUBCHEM_BOND_DEF_STEREO_COUNT>
0

> <PUBCHEM_BOND_UDEF_STEREO_COUNT>
0

> <PUBCHEM_ISOTOPIC_ATOM_COUNT>
0

> <PUBCHEM_COMPONENT_COUNT>
1

> <PUBCHEM_CACTVS_TAUTO_COUNT>
3

> <PUBCHEM_COORDINATE_TYPE>
1
5
255

> <PUBCHEM_BONDANNOTATIONS>
15  16  8
15  17  8
16  19  8
17  20  8
18  19  8
18  20  8

$$$$

