17395454
  -OEChem-06241222502D

 34 35  0     0  0  0  0  0  0999 V2000
    5.3781    0.1539    0.0000 S   0  0  0  0  0  0  0  0  0  0  0  0
    3.3090   -0.5184    0.0000 S   0  0  0  0  0  0  0  0  0  0  0  0
    7.8813    1.1018    0.0000 O   0  0  0  0  0  0  0  0  0  0  0  0
    7.3461   -0.5455    0.0000 N   0  0  0  0  0  0  0  0  0  0  0  0
    4.8781    1.6928    0.0000 N   0  0  0  0  0  0  0  0  0  0  0  0
    8.5051   -1.8326    0.0000 C   0  0  0  0  0  0  0  0  0  0  0  0
    8.2972   -0.8545    0.0000 C   0  0  0  0  0  0  0  0  0  0  0  0
    9.4561   -2.1416    0.0000 C   0  0  0  0  0  0  0  0  0  0  0  0
    7.7619   -2.5018    0.0000 C   0  0  0  0  0  0  0  0  0  0  0  0
    7.1382    0.4327    0.0000 C   0  0  0  0  0  0  0  0  0  0  0  0
    6.1871    0.7417    0.0000 C   0  0  0  0  0  0  0  0  0  0  0  0
    5.8781    1.6928    0.0000 C   0  0  0  0  0  0  0  0  0  0  0  0
    4.5691    0.7417    0.0000 C   0  0  0  0  0  0  0  0  0  0  0  0
    3.6180    0.4327    0.0000 C   0  0  0  0  0  0  0  0  0  0  0  0
    6.4659    2.5018    0.0000 C   0  0  0  0  0  0  0  0  0  0  0  0
    2.8090    1.0205    0.0000 C   0  0  0  0  0  0  0  0  0  0  0  0
    2.0000    0.4327    0.0000 C   0  0  0  0  0  0  0  0  0  0  0  0
    2.3090   -0.5184    0.0000 C   0  0  0  0  0  0  0  0  0  0  0  0
    7.9154   -1.6410    0.0000 H   0  0  0  0  0  0  0  0  0  0  0  0
    8.9168   -0.8329    0.0000 H   0  0  0  0  0  0  0  0  0  0  0  0
    8.3834   -0.2405    0.0000 H   0  0  0  0  0  0  0  0  0  0  0  0
    9.2645   -2.7313    0.0000 H   0  0  0  0  0  0  0  0  0  0  0  0
   10.0458   -2.3332    0.0000 H   0  0  0  0  0  0  0  0  0  0  0  0
    9.6477   -1.5520    0.0000 H   0  0  0  0  0  0  0  0  0  0  0  0
    7.3471   -2.0410    0.0000 H   0  0  0  0  0  0  0  0  0  0  0  0
    7.3012   -2.9166    0.0000 H   0  0  0  0  0  0  0  0  0  0  0  0
    8.1768   -2.9625    0.0000 H   0  0  0  0  0  0  0  0  0  0  0  0
    6.8853   -0.9603    0.0000 H   0  0  0  0  0  0  0  0  0  0  0  0
    6.9675    2.1373    0.0000 H   0  0  0  0  0  0  0  0  0  0  0  0
    6.8303    3.0034    0.0000 H   0  0  0  0  0  0  0  0  0  0  0  0
    5.9643    2.8662    0.0000 H   0  0  0  0  0  0  0  0  0  0  0  0
    2.8090    1.6405    0.0000 H   0  0  0  0  0  0  0  0  0  0  0  0
    1.4103    0.6243    0.0000 H   0  0  0  0  0  0  0  0  0  0  0  0
    1.9446   -1.0200    0.0000 H   0  0  0  0  0  0  0  0  0  0  0  0
  1 11  1  0  0  0  0
  1 13  1  0  0  0  0
  2 14  1  0  0  0  0
  2 18  1  0  0  0  0
  3 10  2  0  0  0  0
  4  7  1  0  0  0  0
  4 10  1  0  0  0  0
  4 28  1  0  0  0  0
  5 12  1  0  0  0  0
  5 13  2  0  0  0  0
  6  7  1  0  0  0  0
  6  8  1  0  0  0  0
  6  9  1  0  0  0  0
  6 19  1  0  0  0  0
  7 20  1  0  0  0  0
  7 21  1  0  0  0  0
  8 22  1  0  0  0  0
  8 23  1  0  0  0  0
  8 24  1  0  0  0  0
  9 25  1  0  0  0  0
  9 26  1  0  0  0  0
  9 27  1  0  0  0  0
 10 11  1  0  0  0  0
 11 12  2  0  0  0  0
 12 15  1  0  0  0  0
 13 14  1  0  0  0  0
 14 16  2  0  0  0  0
 15 29  1  0  0  0  0
 15 30  1  0  0  0  0
 15 31  1  0  0  0  0
 16 17  1  0  0  0  0
 16 32  1  0  0  0  0
 17 18  2  0  0  0  0
 17 33  1  0  0  0  0
 18 34  1  0  0  0  0
M  END
> <PUBCHEM_COMPOUND_CID>
17395454

> <PUBCHEM_COMPOUND_CANONICALIZED>
1

> <PUBCHEM_CACTVS_COMPLEXITY>
299

> <PUBCHEM_CACTVS_HBOND_ACCEPTOR>
4

> <PUBCHEM_CACTVS_HBOND_DONOR>
1

> <PUBCHEM_CACTVS_ROTATABLE_BOND>
4

> <PUBCHEM_CACTVS_SUBSKEYS>
AAADceBzIABgAAAAAAAAAAAAAAAAAWJAAAAAAAAAAAAAAAAB4AAAHgQQAAAADQjF1gSygZLIEAisASVyVACD8KBlCDhImL04RNgIILrg0RGEAYhglgDoiUYQAAAAAAAAAAAAAAAAAAAAAAAAAAAAAAAAAA==

> <PUBCHEM_IUPAC_OPENEYE_NAME>
N-isobutyl-4-methyl-2-(2-thienyl)thiazole-5-carboxamide

> <PUBCHEM_IUPAC_CAS_NAME>
4-methyl-N-(2-methylpropyl)-2-thiophen-2-yl-5-thiazolecarboxamide

> <PUBCHEM_IUPAC_NAME>
4-methyl-N-(2-methylpropyl)-2-thiophen-2-yl-1,3-thiazole-5-carboxamide

> <PUBCHEM_IUPAC_SYSTEMATIC_NAME>
4-methyl-N-(2-methylpropyl)-2-thiophen-2-yl-1,3-thiazole-5-carboxamide

> <PUBCHEM_IUPAC_TRADITIONAL_NAME>
N-isobutyl-4-methyl-2-(2-thienyl)thiazole-5-carboxamide

> <PUBCHEM_IUPAC_INCHI>
InChI=1S/C13H16N2OS2/c1-8(2)7-14-12(16)11-9(3)15-13(18-11)10-5-4-6-17-10/h4-6,8H,7H2,1-3H3,(H,14,16)

> <PUBCHEM_IUPAC_INCHIKEY>
ZUTIRWVPZBIUDV-UHFFFAOYSA-N

> <PUBCHEM_XLOGP3_AA>
3.7

> <PUBCHEM_EXACT_MASS>
280.070405

> <PUBCHEM_MOLECULAR_FORMULA>
C13H16N2OS2

> <PUBCHEM_MOLECULAR_WEIGHT>
280.40894

> <PUBCHEM_OPENEYE_CAN_SMILES>
CC1=C(SC(=N1)C2=CC=CS2)C(=O)NCC(C)C

> <PUBCHEM_OPENEYE_ISO_SMILES>
CC1=C(SC(=N1)C2=CC=CS2)C(=O)NCC(C)C

> <PUBCHEM_CACTVS_TPSA>
98.5

> <PUBCHEM_MONOISOTOPIC_WEIGHT>
280.070405

> <PUBCHEM_TOTAL_CHARGE>
0

> <PUBCHEM_HEAVY_ATOM_COUNT>
18

> <PUBCHEM_ATOM_DEF_STEREO_COUNT>
0

> <PUBCHEM_ATOM_UDEF_STEREO_COUNT>
0

> <PUBCHEM_BOND_DEF_STEREO_COUNT>
0

> <PUBCHEM_BOND_UDEF_STEREO_COUNT>
0

> <PUBCHEM_ISOTOPIC_ATOM_COUNT>
0

> <PUBCHEM_COMPONENT_COUNT>
1

> <PUBCHEM_CACTVS_TAUTO_COUNT>
2

> <PUBCHEM_COORDINATE_TYPE>
1
5
255

> <PUBCHEM_BONDANNOTATIONS>
1  11  8
1  13  8
11  12  8
14  16  8
16  17  8
17  18  8
2  14  8
2  18  8
5  12  8
5  13  8

$$$$

