   Color/Form

     * White crystals
     * A white, nonhygroscopic crystalline powder

   from [1]HSDB

   Melting Point
        174.5 deg C (under nitrogen)
   from [2]HSDB

   Octanol/Water Partition Coefficient
        log Kow= 4.26
   from [3]HSDB

   Solubilities

     * Solubility at @ 25 deg C (mg/ml): acetone 47, acetonitrile 28,
       n-butanol 7, iso-butanol 14, chloroform 350, N,N-dimethylformamide
       90, ethanol 16, methanol 28, n-octanol 2, n-propanol 11,
       iso-propanol 20
     * In water, 0.4X10-3 mg/ml @ 25 deg C

   from [4]HSDB

   Spectral Properties

     * Specific optical rotation @ 25 deg C for D (sodium) line: +323 deg
       (concentration 0.5 g in 100 ml acetonitrile)
     * UV max: 231, 238, 247 nm (A 1% 532, 621, 418)

   from [5]HSDB

   Other Chemical/Physical Properties
        Lovastatin is a hydroxymethylglutaryl-CoA (HMG-CoA) reductase
   inhibitor (statin) and is ... structurally related to mevastatin but
   differs from this agent by the presence of a methyl group at the
   6-alpha position on the hexahydronaphthalene ring; this structural
   modification enhances the in vitro HMG-CoA reductase-inhibitory
   activity of mevinolinic acid by a factor of 2-3 compared with that of
   mevastatin.
   from [6]HSDB

   Computed Properties
   Molecular Weight                  404.53964 [g/mol]
   Molecular Formula                 C[24]H[36]O[5]
   XLogP3                            4.3
   H-Bond Donor                      1
   H-Bond Acceptor                   5
   Rotatable Bond Count              7
   Tautomer Count                    2
   Exact Mass                        404.256274
   MonoIsotopic Mass                 404.256274
   Topological Polar Surface Area    72.8
   Heavy Atom Count                  29
   Formal Charge                     0
   Complexity                        666
   Isotope Atom Count                0
   Defined Atom Stereocenter Count   8
   Undefined Atom Stereocenter Count 0
   Defined Bond Stereocenter Count   0
   Undefined Bond Stereocenter Count 0
   Covalently-Bonded Unit Count      1
   Feature 3D Acceptor Count         3
   Feature 3D Donor Count            1
   Feature 3D Hydrophobe Count       2
   Feature 3D Ring Count             3
   Effective Rotor Count             9
   Conformer Sampling RMSD           1
   CID Conformer Count               [7]39

References

   1. http://toxnet.nlm.nih.gov/cgi-bin/sis/search/r?dbs+hsdb:@term+@rn+@rel+75330-75-5
   2. http://toxnet.nlm.nih.gov/cgi-bin/sis/search/r?dbs+hsdb:@term+@rn+@rel+75330-75-5
   3. http://toxnet.nlm.nih.gov/cgi-bin/sis/search/r?dbs+hsdb:@term+@rn+@rel+75330-75-5
   4. http://toxnet.nlm.nih.gov/cgi-bin/sis/search/r?dbs+hsdb:@term+@rn+@rel+75330-75-5
   5. http://toxnet.nlm.nih.gov/cgi-bin/sis/search/r?dbs+hsdb:@term+@rn+@rel+75330-75-5
   6. http://toxnet.nlm.nih.gov/cgi-bin/sis/search/r?dbs+hsdb:@term+@rn+@rel+75330-75-5
   7. http://pubchem.ncbi.nlm.nih.gov/vw3d/vw3d.cgi?cid=53232
