   Chemical and Physical Properties References

   [1]USDA ARS - USDA chemical properties
   from [2]ChemIDplus

   Color/Form

     * Colorless solid
     * Light-tan powder
     * Light brown crystalline solid

   from [3]HSDB

   Odor

     * Faint characteristic odor
     * Very faint odor

   from [4]HSDB

   Boiling Point
        149 deg C at 2 mm Hg
   from [5]HSDB

   Melting Point
        40.7-41.1 deg C
   from [6]HSDB

   Corrosivity
        Non-corrosive
   from [7]HSDB

   Density/Specific Gravity
        1.180 at 30 deg C
   from [8]HSDB

   Octanol/Water Partition Coefficient
        log Kow= 3.51
   from [9]HSDB

   Solubilities

     * Readily soluble in most organic solvents (e.g., alcohols, ketones,
       esters, chlorinated hydrocarbons, aromatic hydrocarbons);
       moderately soluble in mineral oils (100 g/kg kerosene)
     * Miscible in acetone, carbon disulfide; very soluble in anhydrous
       ammonia, aromatic solvents, ethyl and isopropyl alcohol, ketones;
       soluble in kerosene or diesel oil
     * In water, 89 mg/L at 25 deg C

   from [10]HSDB

   Spectral Properties

     * Index of refraction: 1.5388 at 20 deg C/D
     * Index of refraction: 1.5395 at 20 deg C/D (supercooled)
     * Intense mass spectral peaks: 43 m/z (100%), 127 m/z (81%), 41 m/z
       (61%), 213 m/z (58%)
     * Absorption maxima (molar extinction coefficients): 236 nm (10,250
       L/mol cm); 206 nm (24,100 L/mol cm)
     * MASS: 52558 (NIST/EPA/MSDC Mass Spectral Database 1990 version)

   from [11]HSDB

   Vapor Pressure
        24 mPa (1.8X10-4 mm Hg) at 20 deg C (98% pure)
   from [12]HSDB

   Other Chemical/Physical Properties

     * Technical grade 98.5% pure; melting point: 38.5-40 deg C (tech);
       log Kow: 3.79 at pH 4, 20 deg C; Henry's law constant: 0.047 Pa cu
       m/mol at 20 deg C; stable to UV light; decomposes above 150 deg C;
       hydrolyzed slowly in acidic or alkaline media
     * Vapor pressure = 2 mm Hg at 149 deg C
     * Boiling point: 246 deg C with decomposition
     * Commercial product is a liquid
     * Henry's Law constant: 5.7X10-7 atm cu m/mol at 25 deg C /Estimated/
     * Hydroxyl radical reaction rate constant = 4.0X10-11 cu cm/molec-sec
       at 25 deg C /Estimated/

   from [13]HSDB

   Computed Properties
   Molecular Weight                  213.66078 [g/mol]
   Molecular Formula                 C[10]H[12]ClNO[2]
   XLogP3                            3.5
   H-Bond Donor                      1
   H-Bond Acceptor                   2
   Rotatable Bond Count              3
   Tautomer Count                    2
   Exact Mass                        213.055656
   MonoIsotopic Mass                 213.055656
   Topological Polar Surface Area    38.3
   Heavy Atom Count                  14
   Formal Charge                     0
   Complexity                        197
   Isotope Atom Count                0
   Defined Atom Stereocenter Count   0
   Undefined Atom Stereocenter Count 0
   Defined Bond Stereocenter Count   0
   Undefined Bond Stereocenter Count 0
   Covalently-Bonded Unit Count      1
   Feature 3D Acceptor Count         1
   Feature 3D Donor Count            1
   Feature 3D Hydrophobe Count       1
   Feature 3D Ring Count             1
   Effective Rotor Count             4
   Conformer Sampling RMSD           0.6
   CID Conformer Count               [14]36

References

   1. http://www.ars.usda.gov/SP2UserFiles/ad_hoc/12755100DatabaseFiles/PesticidePropertiesDatabase/IndividualPesticideFiles/CHLORPROPHAM.TXT
   2. http://chem.sis.nlm.nih.gov/chemidplus/
   3. http://toxnet.nlm.nih.gov/cgi-bin/sis/search/r?dbs+hsdb:@term+@rn+@rel+101-21-3
   4. http://toxnet.nlm.nih.gov/cgi-bin/sis/search/r?dbs+hsdb:@term+@rn+@rel+101-21-3
   5. http://toxnet.nlm.nih.gov/cgi-bin/sis/search/r?dbs+hsdb:@term+@rn+@rel+101-21-3
   6. http://toxnet.nlm.nih.gov/cgi-bin/sis/search/r?dbs+hsdb:@term+@rn+@rel+101-21-3
   7. http://toxnet.nlm.nih.gov/cgi-bin/sis/search/r?dbs+hsdb:@term+@rn+@rel+101-21-3
   8. http://toxnet.nlm.nih.gov/cgi-bin/sis/search/r?dbs+hsdb:@term+@rn+@rel+101-21-3
   9. http://toxnet.nlm.nih.gov/cgi-bin/sis/search/r?dbs+hsdb:@term+@rn+@rel+101-21-3
  10. http://toxnet.nlm.nih.gov/cgi-bin/sis/search/r?dbs+hsdb:@term+@rn+@rel+101-21-3
  11. http://toxnet.nlm.nih.gov/cgi-bin/sis/search/r?dbs+hsdb:@term+@rn+@rel+101-21-3
  12. http://toxnet.nlm.nih.gov/cgi-bin/sis/search/r?dbs+hsdb:@term+@rn+@rel+101-21-3
  13. http://toxnet.nlm.nih.gov/cgi-bin/sis/search/r?dbs+hsdb:@term+@rn+@rel+101-21-3
  14. http://pubchem.ncbi.nlm.nih.gov/vw3d/vw3d.cgi?cid=2728
