167658
  -OEChem-07051212462D

 61 63  0     1  0  0  0  0  0999 V2000
   11.8909    0.2512    0.0000 P   0  0  3  0  0  0  0  0  0  0  0  0
   10.1588    0.2512    0.0000 P   0  0  3  0  0  0  0  0  0  0  0  0
    6.6472    0.3445    0.0000 O   0  0  0  0  0  0  0  0  0  0  0  0
   13.6229   -0.7488    0.0000 O   0  0  0  0  0  0  0  0  0  0  0  0
    8.1994    2.4149    0.0000 O   0  0  0  0  0  0  0  0  0  0  0  0
    6.0714    2.8672    0.0000 O   0  0  0  0  0  0  0  0  0  0  0  0
   12.7569    0.7512    0.0000 O   0  0  0  0  0  0  0  0  0  0  0  0
   16.2210    0.7512    0.0000 O   0  0  0  0  0  0  0  0  0  0  0  0
   16.2210   -1.2488    0.0000 O   0  0  0  0  0  0  0  0  0  0  0  0
    9.2928    0.7512    0.0000 O   0  0  0  0  0  0  0  0  0  0  0  0
   13.6229   -2.7488    0.0000 O   0  0  0  0  0  0  0  0  0  0  0  0
   11.0249   -0.2488    0.0000 O   0  0  0  0  0  0  0  0  0  0  0  0
   11.3909    1.1172    0.0000 O   0  0  0  0  0  0  0  0  0  0  0  0
    4.8025    2.7057    0.0000 O   0  0  0  0  0  0  0  0  0  0  0  0
    9.6588   -0.6148    0.0000 O   0  0  0  0  0  0  0  0  0  0  0  0
   12.3909   -0.6148    0.0000 O   0  0  0  0  0  0  0  0  0  0  0  0
   10.6588    1.1172    0.0000 O   0  0  0  0  0  0  0  0  0  0  0  0
    2.0000    0.6695    0.0000 O   0  0  0  0  0  0  0  0  0  0  0  0
    4.9836    0.9831    0.0000 N   0  0  0  0  0  0  0  0  0  0  0  0
   14.4890    1.7512    0.0000 N   0  0  0  0  0  0  0  0  0  0  0  0
    3.4013    1.6876    0.0000 N   0  0  0  0  0  0  0  0  0  0  0  0
    7.4562    1.7457    0.0000 C   0  0  1  0  0  0  0  0  0  0  0  0
    6.4781    1.9536    0.0000 C   0  0  2  0  0  0  0  0  0  0  0  0
    7.5608    0.7512    0.0000 C   0  0  1  0  0  0  0  0  0  0  0  0
    5.9781    1.0876    0.0000 C   0  0  1  0  0  0  0  0  0  0  0  0
   15.3550    0.2512    0.0000 C   0  0  2  0  0  0  0  0  0  0  0  0
   14.4890    0.7512    0.0000 C   0  0  2  0  0  0  0  0  0  0  0  0
   15.3550   -0.7488    0.0000 C   0  0  1  0  0  0  0  0  0  0  0  0
   14.4890   -1.2488    0.0000 C   0  0  1  0  0  0  0  0  0  0  0  0
   13.6229    0.2512    0.0000 C   0  0  2  0  0  0  0  0  0  0  0  0
    8.4268    0.2512    0.0000 C   0  0  0  0  0  0  0  0  0  0  0  0
   14.4890   -2.2488    0.0000 C   0  0  0  0  0  0  0  0  0  0  0  0
    4.3958    1.7921    0.0000 C   0  0  0  0  0  0  0  0  0  0  0  0
    4.5768    0.0695    0.0000 C   0  0  0  0  0  0  0  0  0  0  0  0
    3.5823   -0.0350    0.0000 C   0  0  0  0  0  0  0  0  0  0  0  0
    2.9945    0.7740    0.0000 C   0  0  0  0  0  0  0  0  0  0  0  0
    8.0351    1.5236    0.0000 H   0  0  0  0  0  0  0  0  0  0  0  0
    5.8589    1.9861    0.0000 H   0  0  0  0  0  0  0  0  0  0  0  0
    7.5283    0.1321    0.0000 H   0  0  0  0  0  0  0  0  0  0  0  0
    5.7559    0.5088    0.0000 H   0  0  0  0  0  0  0  0  0  0  0  0
   15.3550    0.8712    0.0000 H   0  0  0  0  0  0  0  0  0  0  0  0
   15.0259    1.0612    0.0000 H   0  0  0  0  0  0  0  0  0  0  0  0
   15.3550   -1.3688    0.0000 H   0  0  0  0  0  0  0  0  0  0  0  0
   13.9520   -1.5588    0.0000 H   0  0  0  0  0  0  0  0  0  0  0  0
   13.0860   -0.0588    0.0000 H   0  0  0  0  0  0  0  0  0  0  0  0
    8.0283   -0.2237    0.0000 H   0  0  0  0  0  0  0  0  0  0  0  0
    8.8253   -0.2237    0.0000 H   0  0  0  0  0  0  0  0  0  0  0  0
   14.7010   -2.8314    0.0000 H   0  0  0  0  0  0  0  0  0  0  0  0
   15.0995   -2.1411    0.0000 H   0  0  0  0  0  0  0  0  0  0  0  0
   15.0259    2.0612    0.0000 H   0  0  0  0  0  0  0  0  0  0  0  0
   13.9520    2.0612    0.0000 H   0  0  0  0  0  0  0  0  0  0  0  0
    8.0705    3.0213    0.0000 H   0  0  0  0  0  0  0  0  0  0  0  0
    6.4358    3.3688    0.0000 H   0  0  0  0  0  0  0  0  0  0  0  0
   16.7580    0.4412    0.0000 H   0  0  0  0  0  0  0  0  0  0  0  0
   16.2210   -1.8688    0.0000 H   0  0  0  0  0  0  0  0  0  0  0  0
    4.9413   -0.4320    0.0000 H   0  0  0  0  0  0  0  0  0  0  0  0
   13.6229   -3.3688    0.0000 H   0  0  0  0  0  0  0  0  0  0  0  0
    3.0368    2.1892    0.0000 H   0  0  0  0  0  0  0  0  0  0  0  0
    3.3301   -0.6014    0.0000 H   0  0  0  0  0  0  0  0  0  0  0  0
   11.7009    1.6542    0.0000 H   0  0  0  0  0  0  0  0  0  0  0  0
    9.9688   -1.1518    0.0000 H   0  0  0  0  0  0  0  0  0  0  0  0
  1  7  1  0  0  0  0
  1 12  1  0  0  0  0
  1 13  1  0  0  0  0
  1 16  2  0  0  0  0
  2 10  1  0  0  0  0
  2 12  1  0  0  0  0
  2 15  1  0  0  0  0
  2 17  2  0  0  0  0
  3 24  1  0  0  0  0
  3 25  1  0  0  0  0
  4 29  1  0  0  0  0
  4 30  1  0  0  0  0
 22  5  1  6  0  0  0
  5 52  1  0  0  0  0
 23  6  1  6  0  0  0
  6 53  1  0  0  0  0
 30  7  1  6  0  0  0
 26  8  1  1  0  0  0
  8 54  1  0  0  0  0
 28  9  1  6  0  0  0
  9 55  1  0  0  0  0
 10 31  1  0  0  0  0
 11 32  1  0  0  0  0
 11 57  1  0  0  0  0
 13 60  1  0  0  0  0
 14 33  2  0  0  0  0
 15 61  1  0  0  0  0
 18 36  2  0  0  0  0
 25 19  1  1  0  0  0
 19 33  1  0  0  0  0
 19 34  1  0  0  0  0
 27 20  1  6  0  0  0
 20 50  1  0  0  0  0
 20 51  1  0  0  0  0
 21 33  1  0  0  0  0
 21 36  1  0  0  0  0
 21 58  1  0  0  0  0
 22 23  1  0  0  0  0
 22 24  1  0  0  0  0
 22 37  1  0  0  0  0
 23 25  1  0  0  0  0
 23 38  1  0  0  0  0
 24 31  1  1  0  0  0
 24 39  1  0  0  0  0
 25 40  1  0  0  0  0
 26 27  1  0  0  0  0
 26 28  1  0  0  0  0
 26 41  1  0  0  0  0
 27 30  1  0  0  0  0
 27 42  1  0  0  0  0
 28 29  1  0  0  0  0
 28 43  1  0  0  0  0
 29 32  1  1  0  0  0
 29 44  1  0  0  0  0
 30 45  1  0  0  0  0
 31 46  1  0  0  0  0
 31 47  1  0  0  0  0
 32 48  1  0  0  0  0
 32 49  1  0  0  0  0
 34 35  2  0  0  0  0
 34 56  1  0  0  0  0
 35 36  1  0  0  0  0
 35 59  1  0  0  0  0
M  END
> <PUBCHEM_COMPOUND_CID>
167658

> <PUBCHEM_COMPOUND_CANONICALIZED>
1

> <PUBCHEM_CACTVS_COMPLEXITY>
967

> <PUBCHEM_CACTVS_HBOND_ACCEPTOR>
17

> <PUBCHEM_CACTVS_HBOND_DONOR>
9

> <PUBCHEM_CACTVS_ROTATABLE_BOND>
9

> <PUBCHEM_CACTVS_SUBSKEYS>
AAADceBzPgMAAAAAAAAAAAAAAAAAASAAAAAkQAAAAAAAAAAAAAAAHgAQCCAACDzxgAcBCAPABxCIQCFWUICAAAAAAgAIAIAIAECTEAIAgAAPQAAPFyIXAMHwcAcAAAAAAAAAAAAAAAAAAAAAAAAAAAAAAA==

> <PUBCHEM_IUPAC_OPENEYE_NAME>
[(2R,3R,4R,5S,6R)-3-amino-4,5-dihydroxy-6-(hydroxymethyl)tetrahydropyran-2-yl] [[(2R,3S,4R,5R)-5-(2,4-dioxopyrimidin-1-yl)-3,4-dihydroxy-tetrahydrofuran-2-yl]methoxy-hydroxy-phosphoryl] hydrogen phosphate

> <PUBCHEM_IUPAC_CAS_NAME>
[(2R,3R,4R,5S,6R)-3-amino-4,5-dihydroxy-6-(hydroxymethyl)-2-oxanyl] [[(2R,3S,4R,5R)-5-(2,4-dioxo-1-pyrimidinyl)-3,4-dihydroxy-2-oxolanyl]methoxy-hydroxyphosphoryl] hydrogen phosphate

> <PUBCHEM_IUPAC_NAME>
[(2R,3R,4R,5S,6R)-3-amino-4,5-dihydroxy-6-(hydroxymethyl)oxan-2-yl] [[(2R,3S,4R,5R)-5-(2,4-dioxopyrimidin-1-yl)-3,4-dihydroxyoxolan-2-yl]methoxy-hydroxyphosphoryl] hydrogen phosphate

> <PUBCHEM_IUPAC_SYSTEMATIC_NAME>
[(2R,3R,4R,5S,6R)-3-azanyl-6-(hydroxymethyl)-4,5-bis(oxidanyl)oxan-2-yl] [[(2R,3S,4R,5R)-5-[2,4-bis(oxidanylidene)pyrimidin-1-yl]-3,4-bis(oxidanyl)oxolan-2-yl]methoxy-oxidanyl-phosphoryl] hydrogen phosphate

> <PUBCHEM_IUPAC_TRADITIONAL_NAME>
[(2R,3R,4R,5S,6R)-3-amino-4,5-dihydroxy-6-methylol-tetrahydropyran-2-yl] [[(2R,3S,4R,5R)-5-(2,4-diketopyrimidin-1-yl)-3,4-dihydroxy-tetrahydrofuran-2-yl]methoxy-hydroxy-phosphoryl] hydrogen phosphate

> <PUBCHEM_IUPAC_INCHI>
InChI=1S/C15H25N3O16P2/c16-8-11(23)9(21)5(3-19)32-14(8)33-36(28,29)34-35(26,27)30-4-6-10(22)12(24)13(31-6)18-2-1-7(20)17-15(18)25/h1-2,5-6,8-14,19,21-24H,3-4,16H2,(H,26,27)(H,28,29)(H,17,20,25)/t5-,6-,8-,9-,10-,11-,12-,13-,14-/m1/s1

> <PUBCHEM_IUPAC_INCHIKEY>
CYKLRRKFBPBYEI-NQQHDEILSA-N

> <PUBCHEM_XLOGP3_AA>
-9.2

> <PUBCHEM_EXACT_MASS>
565.071005

> <PUBCHEM_MOLECULAR_FORMULA>
C15H25N3O16P2

> <PUBCHEM_MOLECULAR_WEIGHT>
565.317024

> <PUBCHEM_OPENEYE_CAN_SMILES>
C1=CN(C(=O)NC1=O)C2C(C(C(O2)COP(=O)(O)OP(=O)(O)OC3C(C(C(C(O3)CO)O)O)N)O)O

> <PUBCHEM_OPENEYE_ISO_SMILES>
C1=CN(C(=O)NC1=O)[C@H]2[C@@H]([C@@H]([C@H](O2)COP(=O)(O)OP(=O)(O)O[C@@H]3[C@@H]([C@H]([C@@H]([C@H](O3)CO)O)O)N)O)O

> <PUBCHEM_CACTVS_TPSA>
297

> <PUBCHEM_MONOISOTOPIC_WEIGHT>
565.071005

> <PUBCHEM_TOTAL_CHARGE>
0

> <PUBCHEM_HEAVY_ATOM_COUNT>
36

> <PUBCHEM_ATOM_DEF_STEREO_COUNT>
9

> <PUBCHEM_ATOM_UDEF_STEREO_COUNT>
0

> <PUBCHEM_BOND_DEF_STEREO_COUNT>
0

> <PUBCHEM_BOND_UDEF_STEREO_COUNT>
0

> <PUBCHEM_ISOTOPIC_ATOM_COUNT>
0

> <PUBCHEM_COMPONENT_COUNT>
1

> <PUBCHEM_CACTVS_TAUTO_COUNT>
3

> <PUBCHEM_COORDINATE_TYPE>
1
5
255

> <PUBCHEM_BONDANNOTATIONS>
25  19  5
19  33  8
19  34  8
27  20  6
21  33  8
21  36  8
24  31  5
29  32  5
34  35  8
35  36  8
22  5  6
23  6  6
30  7  6
26  8  5
28  9  6

$$$$

