14010
  -OEChem-06241222412D

 88 89  0     0  0  0  0  0  0999 V2000
   14.4194    0.0000    0.0000 Cl  0  0  0  0  0  0  0  0  0  0  0  0
   15.7060    1.0839    0.0000 F   0  0  0  0  0  0  0  0  0  0  0  0
    9.2863   10.4375    0.0000 O   0  0  0  0  0  0  0  0  0  0  0  0
   14.1692    5.7193    0.0000 O   0  0  0  0  0  0  0  0  0  0  0  0
   11.0789   15.5783    0.0000 O   0  0  0  0  0  0  0  0  0  0  0  0
   15.4090   15.0783    0.0000 O   0  0  0  0  0  0  0  0  0  0  0  0
    0.5369    8.5391    0.0000 O   0  0  0  0  0  0  0  0  0  0  0  0
    4.8671    8.0391    0.0000 O   0  0  0  0  0  0  0  0  0  0  0  0
   11.9449   14.0783    0.0000 O   0  0  0  0  0  0  0  0  0  0  0  0
   14.5430   16.5783    0.0000 O   0  0  0  0  0  0  0  0  0  0  0  0
    1.4030    7.0391    0.0000 O   0  0  0  0  0  0  0  0  0  0  0  0
    4.0010    9.5391    0.0000 O   0  0  0  0  0  0  0  0  0  0  0  0
   11.4402    6.3927    0.0000 N   0  0  0  0  0  0  0  0  0  0  0  0
   10.8507    8.3038    0.0000 N   0  0  0  0  0  0  0  0  0  0  0  0
   13.9796    4.0365    0.0000 N   0  0  0  0  0  0  0  0  0  0  0  0
   16.2266    4.0365    0.0000 N   0  0  0  0  0  0  0  0  0  0  0  0
   10.4653    6.6152    0.0000 C   0  0  0  0  0  0  0  0  0  0  0  0
   12.1204    7.1257    0.0000 C   0  0  0  0  0  0  0  0  0  0  0  0
   10.1706    7.5708    0.0000 C   0  0  0  0  0  0  0  0  0  0  0  0
   11.8257    8.0813    0.0000 C   0  0  0  0  0  0  0  0  0  0  0  0
   11.7350    5.4371    0.0000 C   0  0  0  0  0  0  0  0  0  0  0  0
   12.7099    5.2146    0.0000 C   0  0  0  0  0  0  0  0  0  0  0  0
   10.5560    9.2594    0.0000 C   0  0  0  0  0  0  0  0  0  0  0  0
   13.0047    4.2590    0.0000 C   0  0  0  0  0  0  0  0  0  0  0  0
    9.5811    9.4819    0.0000 C   0  0  0  0  0  0  0  0  0  0  0  0
   14.2021    3.0616    0.0000 C   0  0  0  0  0  0  0  0  0  0  0  0
   14.6031    4.8183    0.0000 C   0  0  0  0  0  0  0  0  0  0  0  0
   15.1031    2.6277    0.0000 C   0  0  0  0  0  0  0  0  0  0  0  0
   15.6031    4.8183    0.0000 C   0  0  0  0  0  0  0  0  0  0  0  0
   13.3326    2.4881    0.0000 C   0  0  0  0  0  0  0  0  0  0  0  0
   16.0041    3.0616    0.0000 C   0  0  0  0  0  0  0  0  0  0  0  0
   15.1969    1.5903    0.0000 C   0  0  0  0  0  0  0  0  0  0  0  0
   13.4024    1.4489    0.0000 C   0  0  0  0  0  0  0  0  0  0  0  0
   16.7859    2.4381    0.0000 C   0  0  0  0  0  0  0  0  0  0  0  0
   14.3409    0.9969    0.0000 C   0  0  0  0  0  0  0  0  0  0  0  0
    8.3114   10.6600    0.0000 C   0  0  0  0  0  0  0  0  0  0  0  0
   16.6369    1.4493    0.0000 C   0  0  0  0  0  0  0  0  0  0  0  0
   17.7168    2.8034    0.0000 C   0  0  0  0  0  0  0  0  0  0  0  0
    8.0166   11.6156    0.0000 C   0  0  0  0  0  0  0  0  0  0  0  0
   17.4187    0.8258    0.0000 C   0  0  0  0  0  0  0  0  0  0  0  0
   18.4986    2.1799    0.0000 C   0  0  0  0  0  0  0  0  0  0  0  0
   18.3496    1.1911    0.0000 C   0  0  0  0  0  0  0  0  0  0  0  0
   12.8109   15.5783    0.0000 C   0  0  0  0  0  0  0  0  0  0  0  0
   13.6770   15.0783    0.0000 C   0  0  0  0  0  0  0  0  0  0  0  0
    2.2690    8.5391    0.0000 C   0  0  0  0  0  0  0  0  0  0  0  0
    3.1350    8.0391    0.0000 C   0  0  0  0  0  0  0  0  0  0  0  0
   11.9449   15.0783    0.0000 C   0  0  0  0  0  0  0  0  0  0  0  0
   14.5430   15.5783    0.0000 C   0  0  0  0  0  0  0  0  0  0  0  0
    1.4030    8.0391    0.0000 C   0  0  0  0  0  0  0  0  0  0  0  0
    4.0010    8.5391    0.0000 C   0  0  0  0  0  0  0  0  0  0  0  0
   10.4344    5.9960    0.0000 H   0  0  0  0  0  0  0  0  0  0  0  0
    9.8501    6.5381    0.0000 H   0  0  0  0  0  0  0  0  0  0  0  0
   12.6721    7.4086    0.0000 H   0  0  0  0  0  0  0  0  0  0  0  0
   12.4948    6.6315    0.0000 H   0  0  0  0  0  0  0  0  0  0  0  0
    9.6188    7.2879    0.0000 H   0  0  0  0  0  0  0  0  0  0  0  0
    9.7962    8.0650    0.0000 H   0  0  0  0  0  0  0  0  0  0  0  0
   11.8566    8.7005    0.0000 H   0  0  0  0  0  0  0  0  0  0  0  0
   12.4409    8.1584    0.0000 H   0  0  0  0  0  0  0  0  0  0  0  0
   11.7041    4.8179    0.0000 H   0  0  0  0  0  0  0  0  0  0  0  0
   11.1198    5.3600    0.0000 H   0  0  0  0  0  0  0  0  0  0  0  0
   12.7408    5.8338    0.0000 H   0  0  0  0  0  0  0  0  0  0  0  0
   13.3251    5.2917    0.0000 H   0  0  0  0  0  0  0  0  0  0  0  0
   11.1712    9.3365    0.0000 H   0  0  0  0  0  0  0  0  0  0  0  0
   10.5869    9.8786    0.0000 H   0  0  0  0  0  0  0  0  0  0  0  0
   12.9738    3.6398    0.0000 H   0  0  0  0  0  0  0  0  0  0  0  0
   12.3895    4.1819    0.0000 H   0  0  0  0  0  0  0  0  0  0  0  0
    9.5501    8.8627    0.0000 H   0  0  0  0  0  0  0  0  0  0  0  0
    8.9659    9.4048    0.0000 H   0  0  0  0  0  0  0  0  0  0  0  0
   16.1617    5.0873    0.0000 H   0  0  0  0  0  0  0  0  0  0  0  0
   15.4651    5.4228    0.0000 H   0  0  0  0  0  0  0  0  0  0  0  0
   12.7771    2.7636    0.0000 H   0  0  0  0  0  0  0  0  0  0  0  0
   15.7586    1.3278    0.0000 H   0  0  0  0  0  0  0  0  0  0  0  0
   12.8888    1.1016    0.0000 H   0  0  0  0  0  0  0  0  0  0  0  0
    7.8897   10.2055    0.0000 H   0  0  0  0  0  0  0  0  0  0  0  0
   17.8092    3.4165    0.0000 H   0  0  0  0  0  0  0  0  0  0  0  0
    7.4122   11.7536    0.0000 H   0  0  0  0  0  0  0  0  0  0  0  0
    8.4383   12.0701    0.0000 H   0  0  0  0  0  0  0  0  0  0  0  0
   17.3263    0.2127    0.0000 H   0  0  0  0  0  0  0  0  0  0  0  0
   19.0758    2.4064    0.0000 H   0  0  0  0  0  0  0  0  0  0  0  0
   18.8343    0.8045    0.0000 H   0  0  0  0  0  0  0  0  0  0  0  0
   12.8109   16.1983    0.0000 H   0  0  0  0  0  0  0  0  0  0  0  0
   13.6770   14.4583    0.0000 H   0  0  0  0  0  0  0  0  0  0  0  0
    2.2690    9.1591    0.0000 H   0  0  0  0  0  0  0  0  0  0  0  0
    3.1350    7.4191    0.0000 H   0  0  0  0  0  0  0  0  0  0  0  0
   10.5420   15.2683    0.0000 H   0  0  0  0  0  0  0  0  0  0  0  0
   15.9460   15.3883    0.0000 H   0  0  0  0  0  0  0  0  0  0  0  0
    0.0000    8.2291    0.0000 H   0  0  0  0  0  0  0  0  0  0  0  0
    5.4040    8.3491    0.0000 H   0  0  0  0  0  0  0  0  0  0  0  0
  1 35  1  0  0  0  0
  2 37  1  0  0  0  0
  3 25  1  0  0  0  0
  3 36  1  0  0  0  0
  4 27  2  0  0  0  0
  5 47  1  0  0  0  0
  5 85  1  0  0  0  0
  6 48  1  0  0  0  0
  6 86  1  0  0  0  0
  7 49  1  0  0  0  0
  7 87  1  0  0  0  0
  8 50  1  0  0  0  0
  8 88  1  0  0  0  0
  9 47  2  0  0  0  0
 10 48  2  0  0  0  0
 11 49  2  0  0  0  0
 12 50  2  0  0  0  0
 13 17  1  0  0  0  0
 13 18  1  0  0  0  0
 13 21  1  0  0  0  0
 14 19  1  0  0  0  0
 14 20  1  0  0  0  0
 14 23  1  0  0  0  0
 15 24  1  0  0  0  0
 15 26  1  0  0  0  0
 15 27  1  0  0  0  0
 16 29  1  0  0  0  0
 16 31  2  0  0  0  0
 17 19  1  0  0  0  0
 17 51  1  0  0  0  0
 17 52  1  0  0  0  0
 18 20  1  0  0  0  0
 18 53  1  0  0  0  0
 18 54  1  0  0  0  0
 19 55  1  0  0  0  0
 19 56  1  0  0  0  0
 20 57  1  0  0  0  0
 20 58  1  0  0  0  0
 21 22  1  0  0  0  0
 21 59  1  0  0  0  0
 21 60  1  0  0  0  0
 22 24  1  0  0  0  0
 22 61  1  0  0  0  0
 22 62  1  0  0  0  0
 23 25  1  0  0  0  0
 23 63  1  0  0  0  0
 23 64  1  0  0  0  0
 24 65  1  0  0  0  0
 24 66  1  0  0  0  0
 25 67  1  0  0  0  0
 25 68  1  0  0  0  0
 26 28  2  0  0  0  0
 26 30  1  0  0  0  0
 27 29  1  0  0  0  0
 28 31  1  0  0  0  0
 28 32  1  0  0  0  0
 29 69  1  0  0  0  0
 29 70  1  0  0  0  0
 30 33  2  0  0  0  0
 30 71  1  0  0  0  0
 31 34  1  0  0  0  0
 32 35  2  0  0  0  0
 32 72  1  0  0  0  0
 33 35  1  0  0  0  0
 33 73  1  0  0  0  0
 34 37  1  0  0  0  0
 34 38  2  0  0  0  0
 36 39  2  0  0  0  0
 36 74  1  0  0  0  0
 37 40  2  0  0  0  0
 38 41  1  0  0  0  0
 38 75  1  0  0  0  0
 39 76  1  0  0  0  0
 39 77  1  0  0  0  0
 40 42  1  0  0  0  0
 40 78  1  0  0  0  0
 41 42  2  0  0  0  0
 41 79  1  0  0  0  0
 42 80  1  0  0  0  0
 43 44  2  3  0  0  0
 43 47  1  0  0  0  0
 43 81  1  0  0  0  0
 44 48  1  0  0  0  0
 44 82  1  0  0  0  0
 45 46  2  3  0  0  0
 45 49  1  0  0  0  0
 45 83  1  0  0  0  0
 46 50  1  0  0  0  0
 46 84  1  0  0  0  0
M  END
> <PUBCHEM_COMPOUND_CID>
14010

> <PUBCHEM_COMPOUND_CANONICALIZED>
1

> <PUBCHEM_CACTVS_COMPLEXITY>
834

> <PUBCHEM_CACTVS_HBOND_ACCEPTOR>
14

> <PUBCHEM_CACTVS_HBOND_DONOR>
4

> <PUBCHEM_CACTVS_ROTATABLE_BOND>
13

> <PUBCHEM_CACTVS_SUBSKEYS>
AAADcfB/vQAEAAAAAAAAAAAAAAAAAAAAAAA8YIAABAAAAAABQAAAHwIACAAADArhmC4wyIMABgCoAyXyXACCCAAhBwAIiACoZtgKZKLB05GVMAhghgDY2YcQgMAOAABAIAACAAAAAIBAAAQAAAAAAAAAAA==

> <PUBCHEM_IUPAC_OPENEYE_NAME>
but-2-enedioic acid; 7-chloro-5-(2-fluorophenyl)-1-[3-[4-(2-vinyloxyethyl)piperazin-1-yl]propyl]-3H-1,4-benzodiazepin-2-one

> <PUBCHEM_IUPAC_CAS_NAME>
but-2-enedioic acid; 7-chloro-1-[3-[4-(2-ethenoxyethyl)-1-piperazinyl]propyl]-5-(2-fluorophenyl)-3H-1,4-benzodiazepin-2-one

> <PUBCHEM_IUPAC_NAME>
but-2-enedioic acid; 7-chloro-1-[3-[4-(2-ethenoxyethyl)piperazin-1-yl]propyl]-5-(2-fluorophenyl)-3H-1,4-benzodiazepin-2-one

> <PUBCHEM_IUPAC_SYSTEMATIC_NAME>
but-2-enedioic acid; 7-chloranyl-1-[3-[4-(2-ethenoxyethyl)piperazin-1-yl]propyl]-5-(2-fluorophenyl)-3H-1,4-benzodiazepin-2-one

> <PUBCHEM_IUPAC_TRADITIONAL_NAME>
but-2-enedioic acid; 7-chloro-5-(2-fluorophenyl)-1-[3-[4-(2-vinyloxyethyl)piperazino]propyl]-3H-1,4-benzodiazepin-2-one

> <PUBCHEM_IUPAC_INCHI>
InChI=1S/C26H30ClFN4O2.2C4H4O4/c1-2-34-17-16-31-14-12-30(13-15-31)10-5-11-32-24-9-8-20(27)18-22(24)26(29-19-25(32)33)21-6-3-4-7-23(21)28;2*5-3(6)1-2-4(7)8/h2-4,6-9,18H,1,5,10-17,19H2;2*1-2H,(H,5,6)(H,7,8)

> <PUBCHEM_IUPAC_INCHIKEY>
KCVYQIOGLCKJSG-UHFFFAOYSA-N

> <PUBCHEM_XLOGP3_AA>
2.733

> <PUBCHEM_EXACT_MASS>
716.226049

> <PUBCHEM_MOLECULAR_FORMULA>
C34H38ClFN4O10

> <PUBCHEM_MOLECULAR_WEIGHT>
717.137723

> <PUBCHEM_OPENEYE_CAN_SMILES>
C=COCCN1CCN(CC1)CCCN2C(=O)CN=C(C3=C2C=CC(=C3)Cl)C4=CC=CC=C4F.C(=CC(=O)O)C(=O)O.C(=CC(=O)O)C(=O)O

> <PUBCHEM_OPENEYE_ISO_SMILES>
C=COCCN1CCN(CC1)CCCN2C(=O)CN=C(C3=C2C=CC(=C3)Cl)C4=CC=CC=C4F.C(=CC(=O)O)C(=O)O.C(=CC(=O)O)C(=O)O

> <PUBCHEM_CACTVS_TPSA>
198

> <PUBCHEM_MONOISOTOPIC_WEIGHT>
716.226049

> <PUBCHEM_TOTAL_CHARGE>
0

> <PUBCHEM_HEAVY_ATOM_COUNT>
50

> <PUBCHEM_ATOM_DEF_STEREO_COUNT>
0

> <PUBCHEM_ATOM_UDEF_STEREO_COUNT>
0

> <PUBCHEM_BOND_DEF_STEREO_COUNT>
0

> <PUBCHEM_BOND_UDEF_STEREO_COUNT>
2

> <PUBCHEM_ISOTOPIC_ATOM_COUNT>
0

> <PUBCHEM_COMPONENT_COUNT>
3

> <PUBCHEM_CACTVS_TAUTO_COUNT>
1

> <PUBCHEM_COORDINATE_TYPE>
1
5
255

> <PUBCHEM_BONDANNOTATIONS>
26  28  8
26  30  8
28  32  8
30  33  8
32  35  8
33  35  8
34  37  8
34  38  8
37  40  8
38  41  8
40  42  8
41  42  8
43  44  1
45  46  1

$$$$

