   Color/Form
        COLORLESS LIQUID
   from [1]HSDB

   Boiling Point
        235.4 DEG C @ 760 MM HG
   from [2]HSDB

   Melting Point
        -5.3 DEG C
   from [3]HSDB

   Density/Specific Gravity
        0.7564 @ 20 DEG C/4 DEG C
   from [4]HSDB

   Solubilities

     * Very soluble in ethyl alcohol, ethyl ether; soluble in carbon
       tetrachloride
     * In water, 0.0047 mg/l

   from [5]HSDB

   Spectral Properties

     * INDEX OF REFRACTION: 1.4256 @ 20 DEG C/D; SADTLER REFERENCE NUMBER:
       18328 (IR, PRISM)
     * IR: 8830 (Sadtler Research Laboratories IR Grating Collection)
     * NMR: 3440 (Sadtler Research Laboratories Spectral Collection)
     * MASS: 1272 (Atlas of Mass Spectral Data, John Wiley & Sons, New
       York)

   from [6]HSDB

   Vapor Pressure
        0.056 mm Hg @ 25 deg C
   from [7]HSDB

   Viscosity
        33.8 (SUS)
   from [8]HSDB

   Other Chemical/Physical Properties

     * WEIGHT/VOLUME CONVERSION: 7.54 MG/CU M= 1 PPM
     * Hydroxyl radical rate constant = 1.6X10-11 cu cm/molecule-sec @ 25
       deg C

   from [9]HSDB

   Computed Properties
   Molecular Weight                  184.36142 [g/mol]
   Molecular Formula                 C[13]H[28]
   XLogP3                            6.6
   H-Bond Donor                      0
   H-Bond Acceptor                   0
   Rotatable Bond Count              10
   Exact Mass                        184.219101
   MonoIsotopic Mass                 184.219101
   Topological Polar Surface Area    0
   Heavy Atom Count                  13
   Formal Charge                     0
   Complexity                        66.1
   Isotope Atom Count                0
   Defined Atom Stereocenter Count   0
   Undefined Atom Stereocenter Count 0
   Defined Bond Stereocenter Count   0
   Undefined Bond Stereocenter Count 0
   Covalently-Bonded Unit Count      1
   Feature 3D Hydrophobe Count       2
   Effective Rotor Count             10
   Conformer Sampling RMSD           0.8
   CID Conformer Count               [10]464

References

   1. http://toxnet.nlm.nih.gov/cgi-bin/sis/search/r?dbs+hsdb:@term+@rn+@rel+629-50-5
   2. http://toxnet.nlm.nih.gov/cgi-bin/sis/search/r?dbs+hsdb:@term+@rn+@rel+629-50-5
   3. http://toxnet.nlm.nih.gov/cgi-bin/sis/search/r?dbs+hsdb:@term+@rn+@rel+629-50-5
   4. http://toxnet.nlm.nih.gov/cgi-bin/sis/search/r?dbs+hsdb:@term+@rn+@rel+629-50-5
   5. http://toxnet.nlm.nih.gov/cgi-bin/sis/search/r?dbs+hsdb:@term+@rn+@rel+629-50-5
   6. http://toxnet.nlm.nih.gov/cgi-bin/sis/search/r?dbs+hsdb:@term+@rn+@rel+629-50-5
   7. http://toxnet.nlm.nih.gov/cgi-bin/sis/search/r?dbs+hsdb:@term+@rn+@rel+629-50-5
   8. http://toxnet.nlm.nih.gov/cgi-bin/sis/search/r?dbs+hsdb:@term+@rn+@rel+629-50-5
   9. http://toxnet.nlm.nih.gov/cgi-bin/sis/search/r?dbs+hsdb:@term+@rn+@rel+629-50-5
  10. http://pubchem.ncbi.nlm.nih.gov/vw3d/vw3d.cgi?cid=12388
