   Color/Form

     * COLORLESS MOBILE LIQUID
     * Colorles liquid (Note: A solid below 44 degrees F).

   from [1]HSDB

   Odor

     * SOLVENT ODOR; PUNGENT WHEN IMPURE
     * Mild sweet odor
     * Petroleum-like odor
     * Chloroform-like odor

   from [2]HSDB

   Boiling Point
        80.7 DEG C AT 760 MM HG
   from [3]HSDB

   Melting Point
        6.47 DEG C
   from [4]HSDB

   Critical Temperature and Pressure
        Critical temperature: 280.4 deg C; Critical pressure: 40 atm
   from [5]HSDB

   Density/Specific Gravity
        0.7781 AT 20 DEG C/4 DEG C
   from [6]HSDB

   Heat of Combustion
        3919.6 kJ/mole
   from [7]HSDB

   Heat of Vaporization
        Latent heat of vaporization: 150 Btu/lb = 85 cal/g = 3.6x10(+5)
   J/kg
   from [8]HSDB

   Octanol/Water Partition Coefficient
        log Kow= 3.44
   from [9]HSDB

   Solubilities

     * INSOLUBLE IN WATER
     * Soluble in alcohol, ether, acetone
     * MISCIBLE WITH OLIVE OIL
     * 100 ML OF METHANOL DISSOLVES 57 G @ 20 DEG C

   from [10]HSDB

   Spectral Properties

     * INDEX OF REFRACTION: 1.42662 AT 20 DEG C/D
     * IR: 6045 (Coblentz Society Spectral Collection)
     * NMR: 1196 (Sadtler Research Laboratories Spectral Collection)
     * MASS: 129 (Atlas of Mass Spectral Data, John Wiley & Sons, New
       York)

   from [11]HSDB

   Surface Tension
        Liquid surface tension: 24.6 dynes/cm = 0.0246 N/m at 20 deg C.
   from [12]HSDB

   Vapor Density
        2.98 (AIR= 1)
   from [13]HSDB

   Vapor Pressure
        96.9 mm Hg @ 25 deg C
   from [14]HSDB

   Relative Evaporation Rate
        Evaporation time (Ether = 1) 2.6
   from [15]HSDB

   Viscosity
        0.98 mPa.s @ 20 deg C
   from [16]HSDB

   Other Chemical/Physical Properties

     * CONVERSION FACTORS: 1 PPM= 0.0034 MG/L; 1 MG/L= 291 PPM
     * % IN SATURATED AIR (760 MM HG) 13.66 @ 26.3 DEG C; DENSITY OF
       SATURATED, VAPOR-AIR MIXT @ 760 MM HG (AIR= 1) 1.23 @ 26 DEG C
     * Weight: 6.5 lb per gallon
     * Rate constant for reaction between atmospheric hydroxyl radicals
       and cyclohexane is 6.7x10(-12) cu m molecule (-1) sec (-1) at 25
       deg C.
     * Liquid-water interface tension = 50 dynes/cm
     * Sublimes between -5 to 5 deg C.
     * Vapor pressure = 13.0 kPa @ 25 deg C
     * Vapor pressure = 100 mm Hg @ 60.8 deg C

   from [17]HSDB

   Computed Properties
   Molecular Weight                  84.15948 [g/mol]
   Molecular Formula                 C[6]H[12]
   XLogP3                            3.4
   H-Bond Donor                      0
   H-Bond Acceptor                   0
   Rotatable Bond Count              0
   Exact Mass                        84.0939
   MonoIsotopic Mass                 84.0939
   Topological Polar Surface Area    0
   Heavy Atom Count                  6
   Formal Charge                     0
   Complexity                        15.5
   Isotope Atom Count                0
   Defined Atom Stereocenter Count   0
   Undefined Atom Stereocenter Count 0
   Defined Bond Stereocenter Count   0
   Undefined Bond Stereocenter Count 0
   Covalently-Bonded Unit Count      1
   Feature 3D Ring Count             1
   Effective Rotor Count             1.2
   Conformer Sampling RMSD           0.4
   CID Conformer Count               [18]1

References

   1. http://toxnet.nlm.nih.gov/cgi-bin/sis/search/r?dbs+hsdb:@term+@rn+@rel+110-82-7
   2. http://toxnet.nlm.nih.gov/cgi-bin/sis/search/r?dbs+hsdb:@term+@rn+@rel+110-82-7
   3. http://toxnet.nlm.nih.gov/cgi-bin/sis/search/r?dbs+hsdb:@term+@rn+@rel+110-82-7
   4. http://toxnet.nlm.nih.gov/cgi-bin/sis/search/r?dbs+hsdb:@term+@rn+@rel+110-82-7
   5. http://toxnet.nlm.nih.gov/cgi-bin/sis/search/r?dbs+hsdb:@term+@rn+@rel+110-82-7
   6. http://toxnet.nlm.nih.gov/cgi-bin/sis/search/r?dbs+hsdb:@term+@rn+@rel+110-82-7
   7. http://toxnet.nlm.nih.gov/cgi-bin/sis/search/r?dbs+hsdb:@term+@rn+@rel+110-82-7
   8. http://toxnet.nlm.nih.gov/cgi-bin/sis/search/r?dbs+hsdb:@term+@rn+@rel+110-82-7
   9. http://toxnet.nlm.nih.gov/cgi-bin/sis/search/r?dbs+hsdb:@term+@rn+@rel+110-82-7
  10. http://toxnet.nlm.nih.gov/cgi-bin/sis/search/r?dbs+hsdb:@term+@rn+@rel+110-82-7
  11. http://toxnet.nlm.nih.gov/cgi-bin/sis/search/r?dbs+hsdb:@term+@rn+@rel+110-82-7
  12. http://toxnet.nlm.nih.gov/cgi-bin/sis/search/r?dbs+hsdb:@term+@rn+@rel+110-82-7
  13. http://toxnet.nlm.nih.gov/cgi-bin/sis/search/r?dbs+hsdb:@term+@rn+@rel+110-82-7
  14. http://toxnet.nlm.nih.gov/cgi-bin/sis/search/r?dbs+hsdb:@term+@rn+@rel+110-82-7
  15. http://toxnet.nlm.nih.gov/cgi-bin/sis/search/r?dbs+hsdb:@term+@rn+@rel+110-82-7
  16. http://toxnet.nlm.nih.gov/cgi-bin/sis/search/r?dbs+hsdb:@term+@rn+@rel+110-82-7
  17. http://toxnet.nlm.nih.gov/cgi-bin/sis/search/r?dbs+hsdb:@term+@rn+@rel+110-82-7
  18. http://pubchem.ncbi.nlm.nih.gov/vw3d/vw3d.cgi?cid=8078
