   Color/Form
        Crystals
   from [1]HSDB

   Octanol/Water Partition Coefficient
        log Kow = 1.67
   from [2]HSDB

   Solubilities
        In water, 140 mg/L at 25 deg C
   from [3]HSDB

   Spectral Properties

     * Specific optical rotation: 139 deg at 23 deg C/D (c= 0.55 in 95%
       ethanol)
     * Max absorption (ethanol): 239 nm (log e= 4.245)

   from [4]HSDB

   Vapor Pressure
        1.65X10-13 mm Hg at 25 deg C (est)
   from [5]HSDB

   Other Chemical/Physical Properties

     * DECOMPOSES @ 260-262 DEG C
     * ODORLESS OR PRACTICALLY ODORLESS; MP 225 DEG C; FINE, WHITE TO
       PALE-YELLOW POWDER /ACETATE/
     * Crystals, polymorphic, mp 233-234 deg C (ocasionally mp 205-208 deg
       C, resolidifying on further heating, then mp 226-228 deg C).
       Specific optical rotation at 23 deg C: 123 deg (c = 0.64
       chloroform). UV max (ethanol): 238 nm (E 16800). Solubility
       (mg/mL): water 0.04; acetone 56; alc 20; chloroform 20; ether 4.
       /21-acetate/
     * Henry's Law constant = 1.15X10-7 atm-cu m/mole at 25 deg C (est)
     * Hydroxyl radical reaction rate constant = 1.08X10-10 cu
       cm/molec-sec at 25 deg C (est)
     * Ozone rate constant = 1.14X10-17 cu cm/molec-sec at 25 deg C (est)

   from [6]HSDB

   Computed Properties
   Molecular Weight                  380.450363 [g/mol]
   Molecular Formula                 C[21]H[29]FO[5]
   XLogP3                            1.7
   H-Bond Donor                      3
   H-Bond Acceptor                   6
   Rotatable Bond Count              2
   Tautomer Count                    15
   Exact Mass                        380.199902
   MonoIsotopic Mass                 380.199902
   Topological Polar Surface Area    94.8
   Heavy Atom Count                  27
   Formal Charge                     0
   Complexity                        734
   Isotope Atom Count                0
   Defined Atom Stereocenter Count   7
   Undefined Atom Stereocenter Count 0
   Defined Bond Stereocenter Count   0
   Undefined Bond Stereocenter Count 0
   Covalently-Bonded Unit Count      1
   Feature 3D Acceptor Count         5
   Feature 3D Donor Count            3
   Feature 3D Ring Count             4
   Effective Rotor Count             3.8
   Conformer Sampling RMSD           0.8
   CID Conformer Count               [7]2

References

   1. http://toxnet.nlm.nih.gov/cgi-bin/sis/search/r?dbs+hsdb:@term+@rn+@rel+127-31-1
   2. http://toxnet.nlm.nih.gov/cgi-bin/sis/search/r?dbs+hsdb:@term+@rn+@rel+127-31-1
   3. http://toxnet.nlm.nih.gov/cgi-bin/sis/search/r?dbs+hsdb:@term+@rn+@rel+127-31-1
   4. http://toxnet.nlm.nih.gov/cgi-bin/sis/search/r?dbs+hsdb:@term+@rn+@rel+127-31-1
   5. http://toxnet.nlm.nih.gov/cgi-bin/sis/search/r?dbs+hsdb:@term+@rn+@rel+127-31-1
   6. http://toxnet.nlm.nih.gov/cgi-bin/sis/search/r?dbs+hsdb:@term+@rn+@rel+127-31-1
   7. http://pubchem.ncbi.nlm.nih.gov/vw3d/vw3d.cgi?cid=31378
