151066
  -OEChem-07051212502D

 21 22  0     1  0  0  0  0  0999 V2000
    5.4883    1.0842    0.0000 O   0  0  0  0  0  0  0  0  0  0  0  0
    6.2619   -0.3069    0.0000 O   0  0  0  0  0  0  0  0  0  0  0  0
    4.6783   -1.1116    0.0000 N   0  0  0  0  0  0  0  0  0  0  0  0
    4.6783    0.4978    0.0000 C   0  0  3  0  0  0  0  0  0  0  0  0
    3.7320    0.1931    0.0000 C   0  0  0  0  0  0  0  0  0  0  0  0
    3.7320   -0.8069    0.0000 C   0  0  0  0  0  0  0  0  0  0  0  0
    5.2619   -0.3069    0.0000 C   0  0  0  0  0  0  0  0  0  0  0  0
    4.3709    1.4494    0.0000 C   0  0  0  0  0  0  0  0  0  0  0  0
    2.8660    0.6931    0.0000 C   0  0  0  0  0  0  0  0  0  0  0  0
    2.8660   -1.3069    0.0000 C   0  0  0  0  0  0  0  0  0  0  0  0
    2.0000    0.1931    0.0000 C   0  0  0  0  0  0  0  0  0  0  0  0
    2.0000   -0.8069    0.0000 C   0  0  0  0  0  0  0  0  0  0  0  0
    4.9609    1.6400    0.0000 H   0  0  0  0  0  0  0  0  0  0  0  0
    4.1803    2.0394    0.0000 H   0  0  0  0  0  0  0  0  0  0  0  0
    3.7809    1.2589    0.0000 H   0  0  0  0  0  0  0  0  0  0  0  0
    4.8709   -1.7009    0.0000 H   0  0  0  0  0  0  0  0  0  0  0  0
    2.8660    1.3131    0.0000 H   0  0  0  0  0  0  0  0  0  0  0  0
    2.8660   -1.9269    0.0000 H   0  0  0  0  0  0  0  0  0  0  0  0
    5.4246    1.7009    0.0000 H   0  0  0  0  0  0  0  0  0  0  0  0
    1.4631    0.5031    0.0000 H   0  0  0  0  0  0  0  0  0  0  0  0
    1.4631   -1.1169    0.0000 H   0  0  0  0  0  0  0  0  0  0  0  0
  1  4  1  0  0  0  0
  1 19  1  0  0  0  0
  2  7  2  0  0  0  0
  3  6  1  0  0  0  0
  3  7  1  0  0  0  0
  3 16  1  0  0  0  0
  4  5  1  0  0  0  0
  4  7  1  0  0  0  0
  4  8  1  0  0  0  0
  5  6  1  0  0  0  0
  5  9  2  0  0  0  0
  6 10  2  0  0  0  0
  8 13  1  0  0  0  0
  8 14  1  0  0  0  0
  8 15  1  0  0  0  0
  9 11  1  0  0  0  0
  9 17  1  0  0  0  0
 10 12  1  0  0  0  0
 10 18  1  0  0  0  0
 11 12  2  0  0  0  0
 11 20  1  0  0  0  0
 12 21  1  0  0  0  0
M  END
> <PUBCHEM_COMPOUND_CID>
151066

> <PUBCHEM_COMPOUND_CANONICALIZED>
1

> <PUBCHEM_CACTVS_COMPLEXITY>
217

> <PUBCHEM_CACTVS_HBOND_ACCEPTOR>
2

> <PUBCHEM_CACTVS_HBOND_DONOR>
2

> <PUBCHEM_CACTVS_ROTATABLE_BOND>
0

> <PUBCHEM_CACTVS_SUBSKEYS>
AAADccByMAAAAAAAAAAAAAAAAAAAAWAAAAAwAAAAAAAAAFgBAAAAHgAQCAAADEyBmAAywILAAgCIAiVSUAKCAAAhAgAIiAFAbIgKJjLAlZGEcAhm1AHY2AecyOCOgAAAAAACAAAAAAAAAAQAAAAAAAAAAA==

> <PUBCHEM_IUPAC_OPENEYE_NAME>
3-hydroxy-3-methyl-indolin-2-one

> <PUBCHEM_IUPAC_CAS_NAME>
3-hydroxy-3-methyl-1H-indol-2-one

> <PUBCHEM_IUPAC_NAME>
3-hydroxy-3-methyl-1H-indol-2-one

> <PUBCHEM_IUPAC_SYSTEMATIC_NAME>
3-methyl-3-oxidanyl-1H-indol-2-one

> <PUBCHEM_IUPAC_TRADITIONAL_NAME>
3-hydroxy-3-methyl-oxindole

> <PUBCHEM_IUPAC_INCHI>
InChI=1S/C9H9NO2/c1-9(12)6-4-2-3-5-7(6)10-8(9)11/h2-5,12H,1H3,(H,10,11)

> <PUBCHEM_IUPAC_INCHIKEY>
XCHBYBKNFIOSBB-UHFFFAOYSA-N

> <PUBCHEM_XLOGP3_AA>
0.4

> <PUBCHEM_EXACT_MASS>
163.063329

> <PUBCHEM_MOLECULAR_FORMULA>
C9H9NO2

> <PUBCHEM_MOLECULAR_WEIGHT>
163.17326

> <PUBCHEM_OPENEYE_CAN_SMILES>
CC1(C2=CC=CC=C2NC1=O)O

> <PUBCHEM_OPENEYE_ISO_SMILES>
CC1(C2=CC=CC=C2NC1=O)O

> <PUBCHEM_CACTVS_TPSA>
49.3

> <PUBCHEM_MONOISOTOPIC_WEIGHT>
163.063329

> <PUBCHEM_TOTAL_CHARGE>
0

> <PUBCHEM_HEAVY_ATOM_COUNT>
12

> <PUBCHEM_ATOM_DEF_STEREO_COUNT>
0

> <PUBCHEM_ATOM_UDEF_STEREO_COUNT>
1

> <PUBCHEM_BOND_DEF_STEREO_COUNT>
0

> <PUBCHEM_BOND_UDEF_STEREO_COUNT>
0

> <PUBCHEM_ISOTOPIC_ATOM_COUNT>
0

> <PUBCHEM_COMPONENT_COUNT>
1

> <PUBCHEM_CACTVS_TAUTO_COUNT>
2

> <PUBCHEM_COORDINATE_TYPE>
1
5
255

> <PUBCHEM_BONDANNOTATIONS>
4  1  3
10  12  8
11  12  8
5  6  8
5  9  8
6  10  8
9  11  8

$$$$

