   Color/Form
        Colorless liquid or oil
   from [1]HSDB

   Boiling Point
        240-243 deg C
   from [2]HSDB

   Melting Point
        -22 deg C
   from [3]HSDB

   Density/Specific Gravity
        1.025 g/cu cm
   from [4]HSDB

   Octanol/Water Partition Coefficient
        log Kow of 3.87
   from [5]HSDB

   Octanol/Water Partition Coefficient
        log Kow= 3.87
   from [6]HSDB

   Solubilities
        In water, 25.0 mg/l @ 25 deg C
   from [7]HSDB

   Solubilities

     * Soluble in alcohol and ether
     * In water, 25.8 mg/l @ 25 deg C

   from [8]HSDB

   Spectral Properties

     * Index of refraction: 1.6170 @ 20 deg C
     * MAX ABSORPTION (DIOXANE): 267 NM (LOG E= 3.6), 279 NM (LOG E= 3.6),
       314 NM (LOG E= 2.4)
     * SADTLER REFERENCE NUMBER: 2175 (IR, PRISM)
     * IR: 2175 (Sadtler Research Laboratories IR prism collection)
     * MASS: 62171 (NIST/EPA/MSDC Mass Spectral Database, 1990 Version)

   from [9]HSDB

   Vapor Density
        4.91 (Air = 1)
   from [10]HSDB

   Vapor Pressure
        0.067 mm Hg @ 25 deg C
   from [11]HSDB

   Other Chemical/Physical Properties

     * CONGEALING POINT: -22 DEG C
     * Henry's Law constant: 0.000514 atm-cu m/mol @ 25 deg C
     * Hydroxyl radical reaction rate constant: 5.3X10-11 cu
       cm/molecule-sec @ 25 deg C

   from [12]HSDB

   Computed Properties
   Molecular Weight                  142.1971 [g/mol]
   Molecular Formula                 C[11]H[10]
   XLogP3                            3.9
   H-Bond Donor                      0
   H-Bond Acceptor                   0
   Rotatable Bond Count              0
   Exact Mass                        142.07825
   MonoIsotopic Mass                 142.07825
   Topological Polar Surface Area    0
   Heavy Atom Count                  11
   Formal Charge                     0
   Complexity                        128
   Isotope Atom Count                0
   Defined Atom Stereocenter Count   0
   Undefined Atom Stereocenter Count 0
   Defined Bond Stereocenter Count   0
   Undefined Bond Stereocenter Count 0
   Covalently-Bonded Unit Count      1
   Feature 3D Ring Count             2
   Effective Rotor Count             0
   Conformer Sampling RMSD           0.4
   CID Conformer Count               [13]1

References

   1. http://toxnet.nlm.nih.gov/cgi-bin/sis/search/r?dbs+hsdb:@term+@rn+@rel+90-12-0
   2. http://toxnet.nlm.nih.gov/cgi-bin/sis/search/r?dbs+hsdb:@term+@rn+@rel+90-12-0
   3. http://toxnet.nlm.nih.gov/cgi-bin/sis/search/r?dbs+hsdb:@term+@rn+@rel+90-12-0
   4. http://toxnet.nlm.nih.gov/cgi-bin/sis/search/r?dbs+hsdb:@term+@rn+@rel+90-12-0
   5. http://toxnet.nlm.nih.gov/cgi-bin/sis/search/r?dbs+hsdb:@term+@rn+@rel+1321-94-4
   6. http://toxnet.nlm.nih.gov/cgi-bin/sis/search/r?dbs+hsdb:@term+@rn+@rel+90-12-0
   7. http://toxnet.nlm.nih.gov/cgi-bin/sis/search/r?dbs+hsdb:@term+@rn+@rel+1321-94-4
   8. http://toxnet.nlm.nih.gov/cgi-bin/sis/search/r?dbs+hsdb:@term+@rn+@rel+90-12-0
   9. http://toxnet.nlm.nih.gov/cgi-bin/sis/search/r?dbs+hsdb:@term+@rn+@rel+90-12-0
  10. http://toxnet.nlm.nih.gov/cgi-bin/sis/search/r?dbs+hsdb:@term+@rn+@rel+90-12-0
  11. http://toxnet.nlm.nih.gov/cgi-bin/sis/search/r?dbs+hsdb:@term+@rn+@rel+90-12-0
  12. http://toxnet.nlm.nih.gov/cgi-bin/sis/search/r?dbs+hsdb:@term+@rn+@rel+90-12-0
  13. http://pubchem.ncbi.nlm.nih.gov/vw3d/vw3d.cgi?cid=7002
