3026336
  -OEChem-07051213072D

 27 25  0     1  0  0  0  0  0999 V2000
    5.7331    1.6200    0.0000 Cl  0  0  0  0  0  0  0  0  0  0  0  0
    4.0010    4.6200    0.0000 Cl  0  0  0  0  0  0  0  0  0  0  0  0
    2.3665    6.6200    0.0000 Cl  0  0  0  0  0  0  0  0  0  0  0  0
    0.5369    1.6200    0.0000 O   0  0  0  0  0  0  0  0  0  0  0  0
    1.4030    3.1200    0.0000 O   0  0  0  0  0  0  0  0  0  0  0  0
    3.1350    2.1200    0.0000 N   0  0  0  0  0  0  0  0  0  0  0  0
    2.2690    1.6200    0.0000 C   0  0  3  0  0  0  0  0  0  0  0  0
    4.0010    1.6200    0.0000 C   0  0  0  0  0  0  0  0  0  0  0  0
    3.1350    3.1200    0.0000 C   0  0  0  0  0  0  0  0  0  0  0  0
    2.2690    0.6200    0.0000 C   0  0  0  0  0  0  0  0  0  0  0  0
    4.8671    2.1200    0.0000 C   0  0  0  0  0  0  0  0  0  0  0  0
    4.0010    3.6200    0.0000 C   0  0  0  0  0  0  0  0  0  0  0  0
    1.4030    2.1200    0.0000 C   0  0  0  0  0  0  0  0  0  0  0  0
    2.2690    2.2400    0.0000 H   0  0  0  0  0  0  0  0  0  0  0  0
    3.6025    1.1450    0.0000 H   0  0  0  0  0  0  0  0  0  0  0  0
    4.3996    1.1450    0.0000 H   0  0  0  0  0  0  0  0  0  0  0  0
    2.9230    3.7026    0.0000 H   0  0  0  0  0  0  0  0  0  0  0  0
    2.5244    3.0123    0.0000 H   0  0  0  0  0  0  0  0  0  0  0  0
    1.6490    0.6200    0.0000 H   0  0  0  0  0  0  0  0  0  0  0  0
    2.2690    0.0000    0.0000 H   0  0  0  0  0  0  0  0  0  0  0  0
    2.8890    0.6200    0.0000 H   0  0  0  0  0  0  0  0  0  0  0  0
    5.2656    2.5950    0.0000 H   0  0  0  0  0  0  0  0  0  0  0  0
    4.4685    2.5950    0.0000 H   0  0  0  0  0  0  0  0  0  0  0  0
    4.2131    3.0374    0.0000 H   0  0  0  0  0  0  0  0  0  0  0  0
    4.6116    3.7277    0.0000 H   0  0  0  0  0  0  0  0  0  0  0  0
    0.0000    1.9300    0.0000 H   0  0  0  0  0  0  0  0  0  0  0  0
    3.3665    6.6200    0.0000 H   0  0  0  0  0  0  0  0  0  0  0  0
  1 11  1  0  0  0  0
  2 12  1  0  0  0  0
  3 27  1  0  0  0  0
  4 13  1  0  0  0  0
  4 26  1  0  0  0  0
  5 13  2  0  0  0  0
  6  7  1  0  0  0  0
  6  8  1  0  0  0  0
  6  9  1  0  0  0  0
  7 10  1  0  0  0  0
  7 13  1  0  0  0  0
  7 14  1  0  0  0  0
  8 11  1  0  0  0  0
  8 15  1  0  0  0  0
  8 16  1  0  0  0  0
  9 12  1  0  0  0  0
  9 17  1  0  0  0  0
  9 18  1  0  0  0  0
 10 19  1  0  0  0  0
 10 20  1  0  0  0  0
 10 21  1  0  0  0  0
 11 22  1  0  0  0  0
 11 23  1  0  0  0  0
 12 24  1  0  0  0  0
 12 25  1  0  0  0  0
M  END
> <PUBCHEM_COMPOUND_CID>
3026336

> <PUBCHEM_COMPOUND_CANONICALIZED>
1

> <PUBCHEM_CACTVS_COMPLEXITY>
137

> <PUBCHEM_CACTVS_HBOND_ACCEPTOR>
3

> <PUBCHEM_CACTVS_HBOND_DONOR>
2

> <PUBCHEM_CACTVS_ROTATABLE_BOND>
6

> <PUBCHEM_CACTVS_SUBSKEYS>
AAADccBiMAAGAAAAAAAAAAAAAAAAAAAAAAAAAAAAAAAAAAAAAAAAHgIACAAACCvBgEQCCAMAAgAIAACQCAAAAAAAAAAAAAGIAAACAAAAACBAQAAAAACQAAAAAAAAAAAAAAAAAAAAAAAAAAAAAAAAAAAAAA==

> <PUBCHEM_IUPAC_OPENEYE_NAME>
2-[bis(2-chloroethyl)amino]propanoic acid hydrochloride

> <PUBCHEM_IUPAC_CAS_NAME>
2-[bis(2-chloroethyl)amino]propanoic acid hydrochloride

> <PUBCHEM_IUPAC_NAME>
2-[bis(2-chloroethyl)amino]propanoic acid hydrochloride

> <PUBCHEM_IUPAC_SYSTEMATIC_NAME>
2-[bis(2-chloroethyl)amino]propanoic acid hydrochloride

> <PUBCHEM_IUPAC_TRADITIONAL_NAME>
2-[bis(2-chloroethyl)amino]propionic acid hydrochloride

> <PUBCHEM_IUPAC_INCHI>
InChI=1S/C7H13Cl2NO2.ClH/c1-6(7(11)12)10(4-2-8)5-3-9;/h6H,2-5H2,1H3,(H,11,12);1H

> <PUBCHEM_IUPAC_INCHIKEY>
OSFZRZNDOBDGPU-UHFFFAOYSA-N

> <PUBCHEM_EXACT_MASS>
249.009012

> <PUBCHEM_MOLECULAR_FORMULA>
C7H14Cl3NO2

> <PUBCHEM_MOLECULAR_WEIGHT>
250.55056

> <PUBCHEM_OPENEYE_CAN_SMILES>
CC(C(=O)O)N(CCCl)CCCl.Cl

> <PUBCHEM_OPENEYE_ISO_SMILES>
CC(C(=O)O)N(CCCl)CCCl.Cl

> <PUBCHEM_CACTVS_TPSA>
40.5

> <PUBCHEM_MONOISOTOPIC_WEIGHT>
249.009012

> <PUBCHEM_TOTAL_CHARGE>
0

> <PUBCHEM_HEAVY_ATOM_COUNT>
13

> <PUBCHEM_ATOM_DEF_STEREO_COUNT>
0

> <PUBCHEM_ATOM_UDEF_STEREO_COUNT>
1

> <PUBCHEM_BOND_DEF_STEREO_COUNT>
0

> <PUBCHEM_BOND_UDEF_STEREO_COUNT>
0

> <PUBCHEM_ISOTOPIC_ATOM_COUNT>
0

> <PUBCHEM_COMPONENT_COUNT>
2

> <PUBCHEM_CACTVS_TAUTO_COUNT>
1

> <PUBCHEM_COORDINATE_TYPE>
1
5
255

> <PUBCHEM_BONDANNOTATIONS>
7  10  3

$$$$

