7446
  -OEChem-06261202052D

 17 17  0     0  0  0  0  0  0999 V2000
    5.1350    1.9400    0.0000 O   0  0  0  0  0  0  0  0  0  0  0  0
    3.4030    1.9400    0.0000 O   0  0  0  0  0  0  0  0  0  0  0  0
    4.2690   -2.5600    0.0000 O   0  0  0  0  0  0  0  0  0  0  0  0
    4.2690    1.4400    0.0000 N   0  0  0  0  0  0  0  0  0  0  0  0
    2.5369   -1.5600    0.0000 N   0  0  0  0  0  0  0  0  0  0  0  0
    4.2690    0.4400    0.0000 C   0  0  0  0  0  0  0  0  0  0  0  0
    3.4030   -0.0600    0.0000 C   0  0  0  0  0  0  0  0  0  0  0  0
    5.1350   -0.0600    0.0000 C   0  0  0  0  0  0  0  0  0  0  0  0
    3.4030   -1.0600    0.0000 C   0  0  0  0  0  0  0  0  0  0  0  0
    5.1350   -1.0600    0.0000 C   0  0  0  0  0  0  0  0  0  0  0  0
    4.2690   -1.5600    0.0000 C   0  0  0  0  0  0  0  0  0  0  0  0
    2.8660    0.2500    0.0000 H   0  0  0  0  0  0  0  0  0  0  0  0
    5.6719    0.2500    0.0000 H   0  0  0  0  0  0  0  0  0  0  0  0
    5.6719   -1.3700    0.0000 H   0  0  0  0  0  0  0  0  0  0  0  0
    2.0000   -1.2500    0.0000 H   0  0  0  0  0  0  0  0  0  0  0  0
    5.1350    2.5600    0.0000 H   0  0  0  0  0  0  0  0  0  0  0  0
    3.4030    2.5600    0.0000 H   0  0  0  0  0  0  0  0  0  0  0  0
  1  4  1  0  0  0  0
  1 16  1  0  0  0  0
  2  4  1  0  0  0  0
  2 17  1  0  0  0  0
  3 11  2  0  0  0  0
  4  6  1  0  0  0  0
  5  9  2  0  0  0  0
  5 15  1  0  0  0  0
  6  7  2  0  0  0  0
  6  8  1  0  0  0  0
  7  9  1  0  0  0  0
  7 12  1  0  0  0  0
  8 10  2  0  0  0  0
  8 13  1  0  0  0  0
  9 11  1  0  0  0  0
 10 11  1  0  0  0  0
 10 14  1  0  0  0  0
M  END
> <PUBCHEM_COMPOUND_CID>
7446

> <PUBCHEM_COMPOUND_CANONICALIZED>
1

> <PUBCHEM_CACTVS_COMPLEXITY>
265

> <PUBCHEM_CACTVS_HBOND_ACCEPTOR>
5

> <PUBCHEM_CACTVS_HBOND_DONOR>
3

> <PUBCHEM_CACTVS_ROTATABLE_BOND>
1

> <PUBCHEM_CACTVS_SUBSKEYS>
AAADcYBjMAAAAAAAAAAAAAAAAAAAAAAAAAAgAAAAAAAAAAAAAAAAHgAUCAAACAyBgAAAAABQQACoAaRyQACAAAAgAgAoCAEwAFgIAAAAAQAAAAAAgAAIgYIAAAAAAAAAAAAAAAAAAAAAAAAAAAAAAAAAAA==

> <PUBCHEM_IUPAC_OPENEYE_NAME>
4-(dihydroxyamino)-6-imino-cyclohexa-2,4-dien-1-one

> <PUBCHEM_IUPAC_CAS_NAME>
4-(dihydroxyamino)-6-imino-1-cyclohexa-2,4-dienone

> <PUBCHEM_IUPAC_NAME>
4-(dihydroxyamino)-6-iminocyclohexa-2,4-dien-1-one

> <PUBCHEM_IUPAC_SYSTEMATIC_NAME>
6-azanylidene-4-[bis(oxidanyl)amino]cyclohexa-2,4-dien-1-one

> <PUBCHEM_IUPAC_TRADITIONAL_NAME>
4-(dihydroxyamino)-6-imino-cyclohexa-2,4-dien-1-one

> <PUBCHEM_IUPAC_INCHI>
InChI=1S/C6H6N2O3/c7-5-3-4(8(10)11)1-2-6(5)9/h1-3,7,10-11H

> <PUBCHEM_IUPAC_INCHIKEY>
RMVKVCVYJFNDAW-UHFFFAOYSA-N

> <PUBCHEM_XLOGP3_AA>
-0.7

> <PUBCHEM_EXACT_MASS>
154.037842

> <PUBCHEM_MOLECULAR_FORMULA>
C6H6N2O3

> <PUBCHEM_MOLECULAR_WEIGHT>
154.12344

> <PUBCHEM_OPENEYE_CAN_SMILES>
C1=CC(=O)C(=N)C=C1N(O)O

> <PUBCHEM_OPENEYE_ISO_SMILES>
C1=CC(=O)C(=N)C=C1N(O)O

> <PUBCHEM_CACTVS_TPSA>
84.6

> <PUBCHEM_MONOISOTOPIC_WEIGHT>
154.037842

> <PUBCHEM_TOTAL_CHARGE>
0

> <PUBCHEM_HEAVY_ATOM_COUNT>
11

> <PUBCHEM_ATOM_DEF_STEREO_COUNT>
0

> <PUBCHEM_ATOM_UDEF_STEREO_COUNT>
0

> <PUBCHEM_BOND_DEF_STEREO_COUNT>
0

> <PUBCHEM_BOND_UDEF_STEREO_COUNT>
0

> <PUBCHEM_ISOTOPIC_ATOM_COUNT>
0

> <PUBCHEM_COMPONENT_COUNT>
1

> <PUBCHEM_CACTVS_TAUTO_COUNT>
1

> <PUBCHEM_COORDINATE_TYPE>
1
5
255

$$$$

