17038
  -OEChem-07051213122D

 27 28  0     1  0  0  0  0  0999 V2000
    7.6279    0.0554    0.0000 Cl  0  0  0  0  0  0  0  0  0  0  0  0
    5.8958   -0.9446    0.0000 Cl  0  0  0  0  0  0  0  0  0  0  0  0
    8.2619   -1.3106    0.0000 Cl  0  0  0  0  0  0  0  0  0  0  0  0
    6.7619   -2.1767    0.0000 Cl  0  0  0  0  0  0  0  0  0  0  0  0
    6.2619    0.4214    0.0000 S   0  0  0  0  0  0  0  0  0  0  0  0
    4.9889    2.1767    0.0000 O   0  0  0  0  0  0  0  0  0  0  0  0
    4.9889   -1.3338    0.0000 O   0  0  0  0  0  0  0  0  0  0  0  0
    5.2619    0.4214    0.0000 N   0  0  0  0  0  0  0  0  0  0  0  0
    3.7320    0.9214    0.0000 C   0  0  3  0  0  0  0  0  0  0  0  0
    3.7320   -0.0786    0.0000 C   0  0  3  0  0  0  0  0  0  0  0  0
    2.8660    1.4214    0.0000 C   0  0  0  0  0  0  0  0  0  0  0  0
    2.8660   -0.5786    0.0000 C   0  0  0  0  0  0  0  0  0  0  0  0
    4.6783   -0.3833    0.0000 C   0  0  0  0  0  0  0  0  0  0  0  0
    4.6783    1.2261    0.0000 C   0  0  0  0  0  0  0  0  0  0  0  0
    2.0000    0.9214    0.0000 C   0  0  0  0  0  0  0  0  0  0  0  0
    2.0000   -0.0786    0.0000 C   0  0  0  0  0  0  0  0  0  0  0  0
    6.7619   -0.4446    0.0000 C   0  0  0  0  0  0  0  0  0  0  0  0
    7.2619   -1.3106    0.0000 C   0  0  0  0  0  0  0  0  0  0  0  0
    3.8220    1.7666    0.0000 H   0  0  0  0  0  0  0  0  0  0  0  0
    3.8220   -0.9238    0.0000 H   0  0  0  0  0  0  0  0  0  0  0  0
    3.2646    1.8964    0.0000 H   0  0  0  0  0  0  0  0  0  0  0  0
    2.4675    1.8964    0.0000 H   0  0  0  0  0  0  0  0  0  0  0  0
    2.4675   -1.0535    0.0000 H   0  0  0  0  0  0  0  0  0  0  0  0
    3.2646   -1.0535    0.0000 H   0  0  0  0  0  0  0  0  0  0  0  0
    1.4631    1.2314    0.0000 H   0  0  0  0  0  0  0  0  0  0  0  0
    1.4631   -0.3886    0.0000 H   0  0  0  0  0  0  0  0  0  0  0  0
    7.5719   -1.8476    0.0000 H   0  0  0  0  0  0  0  0  0  0  0  0
  1 17  1  0  0  0  0
  2 17  1  0  0  0  0
  3 18  1  0  0  0  0
  4 18  1  0  0  0  0
  5  8  1  0  0  0  0
  5 17  1  0  0  0  0
  6 14  2  0  0  0  0
  7 13  2  0  0  0  0
  8 13  1  0  0  0  0
  8 14  1  0  0  0  0
  9 10  1  0  0  0  0
  9 11  1  0  0  0  0
  9 14  1  0  0  0  0
  9 19  1  0  0  0  0
 10 12  1  0  0  0  0
 10 13  1  0  0  0  0
 10 20  1  0  0  0  0
 11 15  1  0  0  0  0
 11 21  1  0  0  0  0
 11 22  1  0  0  0  0
 12 16  1  0  0  0  0
 12 23  1  0  0  0  0
 12 24  1  0  0  0  0
 15 16  2  0  0  0  0
 15 25  1  0  0  0  0
 16 26  1  0  0  0  0
 17 18  1  0  0  0  0
 18 27  1  0  0  0  0
M  END
> <PUBCHEM_COMPOUND_CID>
17038

> <PUBCHEM_COMPOUND_CANONICALIZED>
1

> <PUBCHEM_CACTVS_COMPLEXITY>
387

> <PUBCHEM_CACTVS_HBOND_ACCEPTOR>
3

> <PUBCHEM_CACTVS_HBOND_DONOR>
0

> <PUBCHEM_CACTVS_ROTATABLE_BOND>
3

> <PUBCHEM_CACTVS_SUBSKEYS>
AAADccByMABHAAAAAAAAAAAAAAAAAWAAAAAgAAAAAAAAAEAAAAAAHgYAQAAADQOBwMAAAAIAAACIACFSEAAAAAAgAAAICEEAAAgAABIAgQAEAAAAhCCIAAMdAAAOgAAAAAAAAAAAAAAAAAAAAAAAAAAAAA==

> <PUBCHEM_IUPAC_OPENEYE_NAME>
2-(1,1,2,2-tetrachloroethylsulfanyl)-3a,4,7,7a-tetrahydroisoindole-1,3-dione

> <PUBCHEM_IUPAC_CAS_NAME>
2-(1,1,2,2-tetrachloroethylthio)-3a,4,7,7a-tetrahydroisoindole-1,3-dione

> <PUBCHEM_IUPAC_NAME>
2-(1,1,2,2-tetrachloroethylsulfanyl)-3a,4,7,7a-tetrahydroisoindole-1,3-dione

> <PUBCHEM_IUPAC_SYSTEMATIC_NAME>
2-[1,1,2,2-tetrakis(chloranyl)ethylsulfanyl]-3a,4,7,7a-tetrahydroisoindole-1,3-dione

> <PUBCHEM_IUPAC_TRADITIONAL_NAME>
2-(1,1,2,2-tetrachloroethylthio)-3a,4,7,7a-tetrahydroisoindole-1,3-quinone

> <PUBCHEM_IUPAC_INCHI>
InChI=1S/C10H9Cl4NO2S/c11-9(12)10(13,14)18-15-7(16)5-3-1-2-4-6(5)8(15)17/h1-2,5-6,9H,3-4H2

> <PUBCHEM_IUPAC_INCHIKEY>
JHRWWRDRBPCWTF-UHFFFAOYSA-N

> <PUBCHEM_XLOGP3>
3.8

> <PUBCHEM_EXACT_MASS>
348.90786

> <PUBCHEM_MOLECULAR_FORMULA>
C10H9Cl4NO2S

> <PUBCHEM_MOLECULAR_WEIGHT>
349.06096

> <PUBCHEM_OPENEYE_CAN_SMILES>
C1C=CCC2C1C(=O)N(C2=O)SC(C(Cl)Cl)(Cl)Cl

> <PUBCHEM_OPENEYE_ISO_SMILES>
C1C=CCC2C1C(=O)N(C2=O)SC(C(Cl)Cl)(Cl)Cl

> <PUBCHEM_CACTVS_TPSA>
62.7

> <PUBCHEM_MONOISOTOPIC_WEIGHT>
346.91081

> <PUBCHEM_TOTAL_CHARGE>
0

> <PUBCHEM_HEAVY_ATOM_COUNT>
18

> <PUBCHEM_ATOM_DEF_STEREO_COUNT>
0

> <PUBCHEM_ATOM_UDEF_STEREO_COUNT>
2

> <PUBCHEM_BOND_DEF_STEREO_COUNT>
0

> <PUBCHEM_BOND_UDEF_STEREO_COUNT>
0

> <PUBCHEM_ISOTOPIC_ATOM_COUNT>
0

> <PUBCHEM_COMPONENT_COUNT>
1

> <PUBCHEM_CACTVS_TAUTO_COUNT>
3

> <PUBCHEM_COORDINATE_TYPE>
1
5
255

> <PUBCHEM_BONDANNOTATIONS>
10  20  3
9  19  3

$$$$

