5283
  -OEChem-06261200372D

 50 54  0     1  0  0  0  0  0999 V2000
    7.3950    3.1798    0.0000 O   0  0  0  0  0  0  0  0  0  0  0  0
    8.6541    0.6511    0.0000 O   0  0  0  0  0  0  0  0  0  0  0  0
    5.6689    3.5993    0.0000 O   0  0  0  0  0  0  0  0  0  0  0  0
    5.1958   -2.0282    0.0000 O   0  0  0  0  0  0  0  0  0  0  0  0
    8.6500   -2.7169    0.0000 O   0  0  0  0  0  0  0  0  0  0  0  0
    7.1011   -3.3584    0.0000 O   0  0  0  0  0  0  0  0  0  0  0  0
    2.3791    0.1159    0.0000 O   0  0  0  0  0  0  0  0  0  0  0  0
    3.1630   -1.7765    0.0000 O   0  0  0  0  0  0  0  0  0  0  0  0
    6.3476    1.9577    0.0000 C   0  0  3  0  0  0  0  0  0  0  0  0
    7.2714    1.5750    0.0000 C   0  0  3  0  0  0  0  0  0  0  0  0
    5.4237    1.5750    0.0000 C   0  0  0  0  0  0  0  0  0  0  0  0
    7.9151    2.3326    0.0000 C   0  0  0  0  0  0  0  0  0  0  0  0
    7.6541    0.6511    0.0000 C   0  0  0  0  0  0  0  0  0  0  0  0
    5.0410    0.6511    0.0000 C   0  0  0  0  0  0  0  0  0  0  0  0
    6.4281    2.9485    0.0000 C   0  0  0  0  0  0  0  0  0  0  0  0
    5.4237   -0.2727    0.0000 C   0  0  0  0  0  0  0  0  0  0  0  0
    7.2714   -0.2727    0.0000 C   0  0  0  0  0  0  0  0  0  0  0  0
    6.3476   -0.6554    0.0000 C   0  0  0  0  0  0  0  0  0  0  0  0
    4.0105    0.8030    0.0000 C   0  0  0  0  0  0  0  0  0  0  0  0
    4.8024   -1.1088    0.0000 C   0  0  0  0  0  0  0  0  0  0  0  0
    8.1075   -0.8940    0.0000 C   0  0  0  0  0  0  0  0  0  0  0  0
    6.1957   -1.6859    0.0000 C   0  0  0  0  0  0  0  0  0  0  0  0
    3.3700   -0.0185    0.0000 C   0  0  0  0  0  0  0  0  0  0  0  0
    7.9795   -1.9278    0.0000 C   0  0  0  0  0  0  0  0  0  0  0  0
    7.0172   -2.3264    0.0000 C   0  0  0  0  0  0  0  0  0  0  0  0
    3.7687   -0.9808    0.0000 C   0  0  0  0  0  0  0  0  0  0  0  0
    8.1082   -3.5993    0.0000 C   0  0  0  0  0  0  0  0  0  0  0  0
    4.5962   -2.8285    0.0000 C   0  0  0  0  0  0  0  0  0  0  0  0
    2.0000    1.0412    0.0000 C   0  0  0  0  0  0  0  0  0  0  0  0
    2.1710   -1.6498    0.0000 C   0  0  0  0  0  0  0  0  0  0  0  0
    5.8465    2.3228    0.0000 H   0  0  0  0  0  0  0  0  0  0  0  0
    7.8840    1.4788    0.0000 H   0  0  0  0  0  0  0  0  0  0  0  0
    5.3428    2.1897    0.0000 H   0  0  0  0  0  0  0  0  0  0  0  0
    4.8090    1.6560    0.0000 H   0  0  0  0  0  0  0  0  0  0  0  0
    8.3428    1.8837    0.0000 H   0  0  0  0  0  0  0  0  0  0  0  0
    8.4064    2.7108    0.0000 H   0  0  0  0  0  0  0  0  0  0  0  0
    3.7799    1.3785    0.0000 H   0  0  0  0  0  0  0  0  0  0  0  0
    8.6775   -0.6501    0.0000 H   0  0  0  0  0  0  0  0  0  0  0  0
    5.6202   -1.9165    0.0000 H   0  0  0  0  0  0  0  0  0  0  0  0
    7.9014   -4.1838    0.0000 H   0  0  0  0  0  0  0  0  0  0  0  0
    8.6677   -3.8664    0.0000 H   0  0  0  0  0  0  0  0  0  0  0  0
    4.1000   -2.4568    0.0000 H   0  0  0  0  0  0  0  0  0  0  0  0
    4.2245   -3.3247    0.0000 H   0  0  0  0  0  0  0  0  0  0  0  0
    5.0924   -3.2002    0.0000 H   0  0  0  0  0  0  0  0  0  0  0  0
    2.5737    1.2763    0.0000 H   0  0  0  0  0  0  0  0  0  0  0  0
    1.7650    1.6150    0.0000 H   0  0  0  0  0  0  0  0  0  0  0  0
    1.4263    0.8062    0.0000 H   0  0  0  0  0  0  0  0  0  0  0  0
    2.2496   -1.0348    0.0000 H   0  0  0  0  0  0  0  0  0  0  0  0
    1.5560   -1.5712    0.0000 H   0  0  0  0  0  0  0  0  0  0  0  0
    2.0925   -2.2648    0.0000 H   0  0  0  0  0  0  0  0  0  0  0  0
  1 12  1  0  0  0  0
  1 15  1  0  0  0  0
  2 13  2  0  0  0  0
  3 15  2  0  0  0  0
  4 20  1  0  0  0  0
  4 28  1  0  0  0  0
  5 24  1  0  0  0  0
  5 27  1  0  0  0  0
  6 25  1  0  0  0  0
  6 27  1  0  0  0  0
  7 23  1  0  0  0  0
  7 29  1  0  0  0  0
  8 26  1  0  0  0  0
  8 30  1  0  0  0  0
  9 10  1  0  0  0  0
  9 11  1  0  0  0  0
  9 15  1  0  0  0  0
  9 31  1  0  0  0  0
 10 12  1  0  0  0  0
 10 13  1  0  0  0  0
 10 32  1  0  0  0  0
 11 14  1  0  0  0  0
 11 33  1  0  0  0  0
 11 34  1  0  0  0  0
 12 35  1  0  0  0  0
 12 36  1  0  0  0  0
 13 17  1  0  0  0  0
 14 16  1  0  0  0  0
 14 19  2  0  0  0  0
 16 18  1  0  0  0  0
 16 20  2  0  0  0  0
 17 18  1  0  0  0  0
 17 21  2  0  0  0  0
 18 22  2  0  0  0  0
 19 23  1  0  0  0  0
 19 37  1  0  0  0  0
 20 26  1  0  0  0  0
 21 24  1  0  0  0  0
 21 38  1  0  0  0  0
 22 25  1  0  0  0  0
 22 39  1  0  0  0  0
 23 26  2  0  0  0  0
 24 25  2  0  0  0  0
 27 40  1  0  0  0  0
 27 41  1  0  0  0  0
 28 42  1  0  0  0  0
 28 43  1  0  0  0  0
 28 44  1  0  0  0  0
 29 45  1  0  0  0  0
 29 46  1  0  0  0  0
 29 47  1  0  0  0  0
 30 48  1  0  0  0  0
 30 49  1  0  0  0  0
 30 50  1  0  0  0  0
M  END
> <PUBCHEM_COMPOUND_CID>
5283

> <PUBCHEM_COMPOUND_CANONICALIZED>
1

> <PUBCHEM_CACTVS_COMPLEXITY>
682

> <PUBCHEM_CACTVS_HBOND_ACCEPTOR>
8

> <PUBCHEM_CACTVS_HBOND_DONOR>
0

> <PUBCHEM_CACTVS_ROTATABLE_BOND>
3

> <PUBCHEM_CACTVS_SUBSKEYS>
AAADceB4PAAAAAAAAAAAAAAAAAAAASJAAAAwYAAAAAAYAEgBQAAAGgAAAAAADQSgmAMyDoAABACIAqDSCAACCAAkIAAAiAEGiMgdJzaENRqiMSIl4BUOqYeL7PzOoAABCAAYQABAAAIQADCAAAAAAAAAAA==

> <PUBCHEM_IUPAC_INCHI>
InChI=1S/C22H20O8/c1-25-17-5-10-4-13-14(8-28-22(13)24)19(23)12-7-16-15(29-9-30-16)6-11(12)18(10)21(27-3)20(17)26-2/h5-7,13-14H,4,8-9H2,1-3H3

> <PUBCHEM_IUPAC_INCHIKEY>
KHXMONVQVIGKEN-UHFFFAOYSA-N

> <PUBCHEM_XLOGP3_AA>
2.7

> <PUBCHEM_EXACT_MASS>
412.115818

> <PUBCHEM_MOLECULAR_FORMULA>
C22H20O8

> <PUBCHEM_MOLECULAR_WEIGHT>
412.3894

> <PUBCHEM_OPENEYE_CAN_SMILES>
COC1=C(C(=C2C(=C1)CC3C(COC3=O)C(=O)C4=CC5=C(C=C42)OCO5)OC)OC

> <PUBCHEM_OPENEYE_ISO_SMILES>
COC1=C(C(=C2C(=C1)CC3C(COC3=O)C(=O)C4=CC5=C(C=C42)OCO5)OC)OC

> <PUBCHEM_CACTVS_TPSA>
89.5

> <PUBCHEM_MONOISOTOPIC_WEIGHT>
412.115818

> <PUBCHEM_TOTAL_CHARGE>
0

> <PUBCHEM_HEAVY_ATOM_COUNT>
30

> <PUBCHEM_ATOM_DEF_STEREO_COUNT>
0

> <PUBCHEM_ATOM_UDEF_STEREO_COUNT>
2

> <PUBCHEM_BOND_DEF_STEREO_COUNT>
0

> <PUBCHEM_BOND_UDEF_STEREO_COUNT>
0

> <PUBCHEM_ISOTOPIC_ATOM_COUNT>
0

> <PUBCHEM_COMPONENT_COUNT>
1

> <PUBCHEM_CACTVS_TAUTO_COUNT>
38

> <PUBCHEM_COORDINATE_TYPE>
1
5
255

> <PUBCHEM_BONDANNOTATIONS>
10  12  3
14  16  8
14  19  8
16  20  8
17  18  8
17  21  8
18  22  8
19  23  8
20  26  8
21  24  8
22  25  8
23  26  8
24  25  8
9  11  3

$$$$

