12603
  -OEChem-06261207082D

 55 55  0     0  0  0  0  0  0999 V2000
    6.8148    0.0000    0.0000 Cl  0  5  0  0  0  0  0  0  0  0  0  0
    5.7331    6.1393    0.0000 O   0  0  0  0  0  0  0  0  0  0  0  0
    4.0010    6.1393    0.0000 O   0  0  0  0  0  0  0  0  0  0  0  0
    9.2632    6.1634    0.0000 O   0  0  0  0  0  0  0  0  0  0  0  0
   11.8632    5.6734    0.0000 O   0  0  0  0  0  0  0  0  0  0  0  0
   10.9914    7.1701    0.0000 O   0  0  0  0  0  0  0  0  0  0  0  0
    2.2690    4.1393    0.0000 N   0  3  0  0  0  0  0  0  0  0  0  0
    3.1350    4.6393    0.0000 C   0  0  0  0  0  0  0  0  0  0  0  0
    1.4030    3.6393    0.0000 C   0  0  0  0  0  0  0  0  0  0  0  0
    1.7690    5.0053    0.0000 C   0  0  0  0  0  0  0  0  0  0  0  0
    4.0010    4.1393    0.0000 C   0  0  0  0  0  0  0  0  0  0  0  0
    4.8671    4.6393    0.0000 C   0  0  0  0  0  0  0  0  0  0  0  0
    0.5369    4.1393    0.0000 C   0  0  0  0  0  0  0  0  0  0  0  0
    2.2690    5.8713    0.0000 C   0  0  0  0  0  0  0  0  0  0  0  0
    5.7331    4.1393    0.0000 C   0  0  0  0  0  0  0  0  0  0  0  0
    6.5991    4.6393    0.0000 C   0  0  0  0  0  0  0  0  0  0  0  0
    4.8671    5.6393    0.0000 C   0  0  0  0  0  0  0  0  0  0  0  0
    6.5991    5.6393    0.0000 C   0  0  0  0  0  0  0  0  0  0  0  0
    5.7331    3.1393    0.0000 C   0  0  0  0  0  0  0  0  0  0  0  0
    7.4931    4.1046    0.0000 C   0  0  0  0  0  0  0  0  0  0  0  0
    7.4931    6.1739    0.0000 C   0  0  0  0  0  0  0  0  0  0  0  0
    8.3991    4.6185    0.0000 C   0  0  0  0  0  0  0  0  0  0  0  0
    8.3991    5.6601    0.0000 C   0  0  0  0  0  0  0  0  0  0  0  0
   10.1312    5.6668    0.0000 C   0  0  0  0  0  0  0  0  0  0  0  0
   10.9953    6.1701    0.0000 C   0  0  0  0  0  0  0  0  0  0  0  0
   12.7273    6.1768    0.0000 C   0  0  0  0  0  0  0  0  0  0  0  0
   13.5952    5.6801    0.0000 C   0  0  0  0  0  0  0  0  0  0  0  0
    2.5790    3.6023    0.0000 H   0  0  0  0  0  0  0  0  0  0  0  0
    3.5335    5.1142    0.0000 H   0  0  0  0  0  0  0  0  0  0  0  0
    2.7365    5.1142    0.0000 H   0  0  0  0  0  0  0  0  0  0  0  0
    1.0044    3.1643    0.0000 H   0  0  0  0  0  0  0  0  0  0  0  0
    1.8015    3.1643    0.0000 H   0  0  0  0  0  0  0  0  0  0  0  0
    1.2940    5.4038    0.0000 H   0  0  0  0  0  0  0  0  0  0  0  0
    1.2940    4.6068    0.0000 H   0  0  0  0  0  0  0  0  0  0  0  0
    3.6025    3.6643    0.0000 H   0  0  0  0  0  0  0  0  0  0  0  0
    4.3996    3.6643    0.0000 H   0  0  0  0  0  0  0  0  0  0  0  0
    0.8469    4.6762    0.0000 H   0  0  0  0  0  0  0  0  0  0  0  0
    0.0000    4.4493    0.0000 H   0  0  0  0  0  0  0  0  0  0  0  0
    0.2269    3.6023    0.0000 H   0  0  0  0  0  0  0  0  0  0  0  0
    2.8059    5.5613    0.0000 H   0  0  0  0  0  0  0  0  0  0  0  0
    2.5790    6.4083    0.0000 H   0  0  0  0  0  0  0  0  0  0  0  0
    1.7320    6.1813    0.0000 H   0  0  0  0  0  0  0  0  0  0  0  0
    5.1131    3.1393    0.0000 H   0  0  0  0  0  0  0  0  0  0  0  0
    5.7331    2.5193    0.0000 H   0  0  0  0  0  0  0  0  0  0  0  0
    6.3531    3.1393    0.0000 H   0  0  0  0  0  0  0  0  0  0  0  0
    7.4859    3.4846    0.0000 H   0  0  0  0  0  0  0  0  0  0  0  0
    7.4859    6.7939    0.0000 H   0  0  0  0  0  0  0  0  0  0  0  0
    8.9349    4.3064    0.0000 H   0  0  0  0  0  0  0  0  0  0  0  0
    9.7345    5.1903    0.0000 H   0  0  0  0  0  0  0  0  0  0  0  0
   10.5315    5.1934    0.0000 H   0  0  0  0  0  0  0  0  0  0  0  0
   13.1240    6.6533    0.0000 H   0  0  0  0  0  0  0  0  0  0  0  0
   12.3269    6.6502    0.0000 H   0  0  0  0  0  0  0  0  0  0  0  0
   13.2873    5.1420    0.0000 H   0  0  0  0  0  0  0  0  0  0  0  0
   14.1334    5.3722    0.0000 H   0  0  0  0  0  0  0  0  0  0  0  0
   13.9032    6.2182    0.0000 H   0  0  0  0  0  0  0  0  0  0  0  0
  2 17  1  0  0  0  0
  2 18  1  0  0  0  0
  3 17  2  0  0  0  0
  4 23  1  0  0  0  0
  4 24  1  0  0  0  0
  5 25  1  0  0  0  0
  5 26  1  0  0  0  0
  6 25  2  0  0  0  0
  7  8  1  0  0  0  0
  7  9  1  0  0  0  0
  7 10  1  0  0  0  0
  7 28  1  0  0  0  0
  8 11  1  0  0  0  0
  8 29  1  0  0  0  0
  8 30  1  0  0  0  0
  9 13  1  0  0  0  0
  9 31  1  0  0  0  0
  9 32  1  0  0  0  0
 10 14  1  0  0  0  0
 10 33  1  0  0  0  0
 10 34  1  0  0  0  0
 11 12  1  0  0  0  0
 11 35  1  0  0  0  0
 11 36  1  0  0  0  0
 12 15  2  0  0  0  0
 12 17  1  0  0  0  0
 13 37  1  0  0  0  0
 13 38  1  0  0  0  0
 13 39  1  0  0  0  0
 14 40  1  0  0  0  0
 14 41  1  0  0  0  0
 14 42  1  0  0  0  0
 15 16  1  0  0  0  0
 15 19  1  0  0  0  0
 16 18  2  0  0  0  0
 16 20  1  0  0  0  0
 18 21  1  0  0  0  0
 19 43  1  0  0  0  0
 19 44  1  0  0  0  0
 19 45  1  0  0  0  0
 20 22  2  0  0  0  0
 20 46  1  0  0  0  0
 21 23  2  0  0  0  0
 21 47  1  0  0  0  0
 22 23  1  0  0  0  0
 22 48  1  0  0  0  0
 24 25  1  0  0  0  0
 24 49  1  0  0  0  0
 24 50  1  0  0  0  0
 26 27  1  0  0  0  0
 26 51  1  0  0  0  0
 26 52  1  0  0  0  0
 27 53  1  0  0  0  0
 27 54  1  0  0  0  0
 27 55  1  0  0  0  0
M  CHG  2   1  -1   7   1
M  END
> <PUBCHEM_COMPOUND_CID>
12603

> <PUBCHEM_COMPOUND_CANONICALIZED>
1

> <PUBCHEM_CACTVS_COMPLEXITY>
526

> <PUBCHEM_CACTVS_HBOND_ACCEPTOR>
6

> <PUBCHEM_CACTVS_HBOND_DONOR>
1

> <PUBCHEM_CACTVS_ROTATABLE_BOND>
10

> <PUBCHEM_CACTVS_SUBSKEYS>
AAADceB6OAAEAAAAAAAAAAAAAAAAAAAAAAAwQAAAAAAAAACBAAAAHgAQAAAADAThmAYyDoPABACIAiDSCAICCAAgIAAIiIFOCMgNJzKEsR6GOiCl0BWKqQek4KwOIAAACAAIAABAAAAQABAAAAAAAAAAAA==

> <PUBCHEM_IUPAC_OPENEYE_NAME>
2-[7-(2-ethoxy-2-oxo-ethoxy)-4-methyl-2-oxo-chromen-3-yl]ethyl-diethyl-ammonium chloride

> <PUBCHEM_IUPAC_CAS_NAME>
2-[7-(2-ethoxy-2-oxoethoxy)-4-methyl-2-oxo-1-benzopyran-3-yl]ethyl-diethylammonium chloride

> <PUBCHEM_IUPAC_NAME>
2-[7-(2-ethoxy-2-oxoethoxy)-4-methyl-2-oxochromen-3-yl]ethyl-diethylazanium chloride

> <PUBCHEM_IUPAC_SYSTEMATIC_NAME>
2-[7-(2-ethoxy-2-oxidanylidene-ethoxy)-4-methyl-2-oxidanylidene-chromen-3-yl]ethyl-diethyl-azanium chloride

> <PUBCHEM_IUPAC_TRADITIONAL_NAME>
2-[7-(2-ethoxy-2-keto-ethoxy)-2-keto-4-methyl-chromen-3-yl]ethyl-diethyl-ammonium chloride

> <PUBCHEM_IUPAC_INCHI>
InChI=1S/C20H27NO5.ClH/c1-5-21(6-2)11-10-17-14(4)16-9-8-15(12-18(16)26-20(17)23)25-13-19(22)24-7-3;/h8-9,12H,5-7,10-11,13H2,1-4H3;1H

> <PUBCHEM_IUPAC_INCHIKEY>
KSQIAZKOUOEHSA-UHFFFAOYSA-N

> <PUBCHEM_EXACT_MASS>
397.165601

> <PUBCHEM_MOLECULAR_FORMULA>
C20H28ClNO5

> <PUBCHEM_MOLECULAR_WEIGHT>
397.89302

> <PUBCHEM_OPENEYE_CAN_SMILES>
CC[NH+](CC)CCC1=C(C2=C(C=C(C=C2)OCC(=O)OCC)OC1=O)C.[Cl-]

> <PUBCHEM_OPENEYE_ISO_SMILES>
CC[NH+](CC)CCC1=C(C2=C(C=C(C=C2)OCC(=O)OCC)OC1=O)C.[Cl-]

> <PUBCHEM_CACTVS_TPSA>
66.3

> <PUBCHEM_MONOISOTOPIC_WEIGHT>
397.165601

> <PUBCHEM_TOTAL_CHARGE>
0

> <PUBCHEM_HEAVY_ATOM_COUNT>
27

> <PUBCHEM_ATOM_DEF_STEREO_COUNT>
0

> <PUBCHEM_ATOM_UDEF_STEREO_COUNT>
0

> <PUBCHEM_BOND_DEF_STEREO_COUNT>
0

> <PUBCHEM_BOND_UDEF_STEREO_COUNT>
0

> <PUBCHEM_ISOTOPIC_ATOM_COUNT>
0

> <PUBCHEM_COMPONENT_COUNT>
2

> <PUBCHEM_CACTVS_TAUTO_COUNT>
1

> <PUBCHEM_COORDINATE_TYPE>
1
5
255

> <PUBCHEM_BONDANNOTATIONS>
12  15  8
12  17  8
15  16  8
16  18  8
16  20  8
18  21  8
2  17  8
2  18  8
20  22  8
21  23  8
22  23  8

$$$$

