   Color/Form
        ... white to slightly yellow crystalline powder
   from [1]HSDB

   Melting Point
        188-191 deg C
   from [2]HSDB

   Octanol/Water Partition Coefficient
        log Kow = 2.95 (est)
   from [3]HSDB

   Solubilities

     * Freely soluble in N,N-dimethylformamide; soluble in methanol;
       practically insoluble in water
     * In water, 39 mg/L at 25 deg C (est)

   from [4]HSDB

   Spectral Properties
        UV max: 247 nm (epsilon 13750)
   from [5]HSDB

   Vapor Pressure
        1.1X10-6 mm Hg at 25 deg C (est)
   from [6]HSDB

   Other Chemical/Physical Properties

     * Henry's Law constant = 1.6X10-8 atm-cu m/mol at 25 deg C (est)
     * Hydroxyl radical reaction rate constant = 1.03X10-14 cu
       cm/molec-sec at 25 deg C (est)
     * Ozone reaction rate constant = 5.4X10-17 cu cm/molec-sec at 25 deg
       C (est)

   from [7]HSDB

   Computed Properties
   Molecular Weight                  296.40336 [g/mol]
   Molecular Formula                 C[20]H[24]O[2]
   XLogP3-AA                         3.1
   H-Bond Donor                      0
   H-Bond Acceptor                   2
   Rotatable Bond Count              0
   Tautomer Count                    2
   Exact Mass                        296.17763
   MonoIsotopic Mass                 296.17763
   Topological Polar Surface Area    34.1
   Heavy Atom Count                  22
   Formal Charge                     0
   Complexity                        653
   Isotope Atom Count                0
   Defined Atom Stereocenter Count   5
   Undefined Atom Stereocenter Count 0
   Defined Bond Stereocenter Count   0
   Undefined Bond Stereocenter Count 0
   Covalently-Bonded Unit Count      1
   Feature 3D Acceptor Count         2
   Feature 3D Ring Count             4
   Effective Rotor Count             1
   Conformer Sampling RMSD           0.6
   CID Conformer Count               [8]1

References

   1. http://toxnet.nlm.nih.gov/cgi-bin/sis/search/r?dbs+hsdb:@term+@rn+@rel+107868-30-4
   2. http://toxnet.nlm.nih.gov/cgi-bin/sis/search/r?dbs+hsdb:@term+@rn+@rel+107868-30-4
   3. http://toxnet.nlm.nih.gov/cgi-bin/sis/search/r?dbs+hsdb:@term+@rn+@rel+107868-30-4
   4. http://toxnet.nlm.nih.gov/cgi-bin/sis/search/r?dbs+hsdb:@term+@rn+@rel+107868-30-4
   5. http://toxnet.nlm.nih.gov/cgi-bin/sis/search/r?dbs+hsdb:@term+@rn+@rel+107868-30-4
   6. http://toxnet.nlm.nih.gov/cgi-bin/sis/search/r?dbs+hsdb:@term+@rn+@rel+107868-30-4
   7. http://toxnet.nlm.nih.gov/cgi-bin/sis/search/r?dbs+hsdb:@term+@rn+@rel+107868-30-4
   8. http://pubchem.ncbi.nlm.nih.gov/vw3d/vw3d.cgi?cid=60198
