90075
  -OEChem-07051213022D

 40 42  0     1  0  0  0  0  0999 V2000
    2.8660    0.8653    0.0000 O   0  0  0  0  0  0  0  0  0  0  0  0
    2.8660    2.8653    0.0000 O   0  0  0  0  0  0  0  0  0  0  0  0
    6.3118   -3.1691    0.0000 O   0  0  0  0  0  0  0  0  0  0  0  0
    7.2641    2.3861    0.0000 N   0  0  3  0  0  0  0  0  0  0  0  0
    6.3580    0.8306    0.0000 C   0  0  2  0  0  0  0  0  0  0  0  0
    7.2641    1.3445    0.0000 C   0  0  0  0  0  0  0  0  0  0  0  0
    5.4641    1.3653    0.0000 C   0  0  0  0  0  0  0  0  0  0  0  0
    6.3580    2.9000    0.0000 C   0  0  0  0  0  0  0  0  0  0  0  0
    5.4641    2.3653    0.0000 C   0  0  0  0  0  0  0  0  0  0  0  0
    6.3465   -0.1693    0.0000 C   0  0  0  0  0  0  0  0  0  0  0  0
    4.5981    0.8653    0.0000 C   0  0  0  0  0  0  0  0  0  0  0  0
    4.5981    2.8653    0.0000 C   0  0  0  0  0  0  0  0  0  0  0  0
    8.1282    2.8894    0.0000 C   0  0  0  0  0  0  0  0  0  0  0  0
    3.7320    1.3653    0.0000 C   0  0  0  0  0  0  0  0  0  0  0  0
    3.7320    2.3653    0.0000 C   0  0  0  0  0  0  0  0  0  0  0  0
    5.4747   -0.6593    0.0000 C   0  0  0  0  0  0  0  0  0  0  0  0
    7.2067   -0.6793    0.0000 C   0  0  0  0  0  0  0  0  0  0  0  0
    5.4632   -1.6592    0.0000 C   0  0  0  0  0  0  0  0  0  0  0  0
    7.1951   -1.6792    0.0000 C   0  0  0  0  0  0  0  0  0  0  0  0
    6.3233   -2.1692    0.0000 C   0  0  0  0  0  0  0  0  0  0  0  0
    2.0000    1.3653    0.0000 C   0  0  0  0  0  0  0  0  0  0  0  0
    6.8920    0.5155    0.0000 H   0  0  0  0  0  0  0  0  0  0  0  0
    7.4732    0.7608    0.0000 H   0  0  0  0  0  0  0  0  0  0  0  0
    7.8750    1.4506    0.0000 H   0  0  0  0  0  0  0  0  0  0  0  0
    6.7517    3.3790    0.0000 H   0  0  0  0  0  0  0  0  0  0  0  0
    5.9534    3.3697    0.0000 H   0  0  0  0  0  0  0  0  0  0  0  0
    4.5981    0.2453    0.0000 H   0  0  0  0  0  0  0  0  0  0  0  0
    4.5981    3.4853    0.0000 H   0  0  0  0  0  0  0  0  0  0  0  0
    8.4403    2.3537    0.0000 H   0  0  0  0  0  0  0  0  0  0  0  0
    8.6639    3.2015    0.0000 H   0  0  0  0  0  0  0  0  0  0  0  0
    7.8161    3.4252    0.0000 H   0  0  0  0  0  0  0  0  0  0  0  0
    4.9414   -0.3431    0.0000 H   0  0  0  0  0  0  0  0  0  0  0  0
    7.7472   -0.3755    0.0000 H   0  0  0  0  0  0  0  0  0  0  0  0
    4.9227   -1.9630    0.0000 H   0  0  0  0  0  0  0  0  0  0  0  0
    7.7284   -1.9954    0.0000 H   0  0  0  0  0  0  0  0  0  0  0  0
    2.8660    3.4853    0.0000 H   0  0  0  0  0  0  0  0  0  0  0  0
    2.3100    1.9022    0.0000 H   0  0  0  0  0  0  0  0  0  0  0  0
    1.4631    1.6753    0.0000 H   0  0  0  0  0  0  0  0  0  0  0  0
    1.6900    0.8284    0.0000 H   0  0  0  0  0  0  0  0  0  0  0  0
    6.8451   -3.4853    0.0000 H   0  0  0  0  0  0  0  0  0  0  0  0
  1 14  1  0  0  0  0
  1 21  1  0  0  0  0
  2 15  1  0  0  0  0
  2 36  1  0  0  0  0
  3 20  1  0  0  0  0
  3 40  1  0  0  0  0
  4  6  1  0  0  0  0
  4  8  1  0  0  0  0
  4 13  1  0  0  0  0
  5  6  1  0  0  0  0
  5  7  1  0  0  0  0
  5 10  1  1  0  0  0
  5 22  1  0  0  0  0
  6 23  1  0  0  0  0
  6 24  1  0  0  0  0
  7  9  1  0  0  0  0
  7 11  2  0  0  0  0
  8  9  1  0  0  0  0
  8 25  1  0  0  0  0
  8 26  1  0  0  0  0
  9 12  2  0  0  0  0
 10 16  2  0  0  0  0
 10 17  1  0  0  0  0
 11 14  1  0  0  0  0
 11 27  1  0  0  0  0
 12 15  1  0  0  0  0
 12 28  1  0  0  0  0
 13 29  1  0  0  0  0
 13 30  1  0  0  0  0
 13 31  1  0  0  0  0
 14 15  2  0  0  0  0
 16 18  1  0  0  0  0
 16 32  1  0  0  0  0
 17 19  2  0  0  0  0
 17 33  1  0  0  0  0
 18 20  2  0  0  0  0
 18 34  1  0  0  0  0
 19 20  1  0  0  0  0
 19 35  1  0  0  0  0
 21 37  1  0  0  0  0
 21 38  1  0  0  0  0
 21 39  1  0  0  0  0
M  END
> <PUBCHEM_COMPOUND_CID>
90075

> <PUBCHEM_COMPOUND_CANONICALIZED>
1

> <PUBCHEM_CACTVS_COMPLEXITY>
343

> <PUBCHEM_CACTVS_HBOND_ACCEPTOR>
4

> <PUBCHEM_CACTVS_HBOND_DONOR>
2

> <PUBCHEM_CACTVS_ROTATABLE_BOND>
2

> <PUBCHEM_CACTVS_SUBSKEYS>
AAADceB6MAAAAAAAAAAAAAAAAAAAAAAAAAA8YIAAAAAAAACxQAAAHgAACAAADQTBmAYyBoMABgCAAiBCAACCCAAgIAAIiAAOjIgNJiKGsRuEcCtkwBGLuAew0PIOoAABAAAQQABAAAIAACCAAAAAAAAAAA==

> <PUBCHEM_IUPAC_OPENEYE_NAME>
(4S)-4-(4-hydroxyphenyl)-6-methoxy-2-methyl-3,4-dihydro-1H-isoquinolin-7-ol

> <PUBCHEM_IUPAC_CAS_NAME>
(4S)-4-(4-hydroxyphenyl)-6-methoxy-2-methyl-3,4-dihydro-1H-isoquinolin-7-ol

> <PUBCHEM_IUPAC_NAME>
(4S)-4-(4-hydroxyphenyl)-6-methoxy-2-methyl-3,4-dihydro-1H-isoquinolin-7-ol

> <PUBCHEM_IUPAC_SYSTEMATIC_NAME>
(4S)-4-(4-hydroxyphenyl)-6-methoxy-2-methyl-3,4-dihydro-1H-isoquinolin-7-ol

> <PUBCHEM_IUPAC_TRADITIONAL_NAME>
(4S)-4-(4-hydroxyphenyl)-6-methoxy-2-methyl-3,4-dihydro-1H-isoquinolin-7-ol

> <PUBCHEM_IUPAC_INCHI>
InChI=1S/C17H19NO3/c1-18-9-12-7-16(20)17(21-2)8-14(12)15(10-18)11-3-5-13(19)6-4-11/h3-8,15,19-20H,9-10H2,1-2H3/t15-/m0/s1

> <PUBCHEM_IUPAC_INCHIKEY>
VXXVFIKKBBVGIR-HNNXBMFYSA-N

> <PUBCHEM_XLOGP3_AA>
2.5

> <PUBCHEM_EXACT_MASS>
285.136493

> <PUBCHEM_MOLECULAR_FORMULA>
C17H19NO3

> <PUBCHEM_MOLECULAR_WEIGHT>
285.33766

> <PUBCHEM_OPENEYE_CAN_SMILES>
CN1CC(C2=CC(=C(C=C2C1)O)OC)C3=CC=C(C=C3)O

> <PUBCHEM_OPENEYE_ISO_SMILES>
CN1C[C@H](C2=CC(=C(C=C2C1)O)OC)C3=CC=C(C=C3)O

> <PUBCHEM_CACTVS_TPSA>
52.9

> <PUBCHEM_MONOISOTOPIC_WEIGHT>
285.136493

> <PUBCHEM_TOTAL_CHARGE>
0

> <PUBCHEM_HEAVY_ATOM_COUNT>
21

> <PUBCHEM_ATOM_DEF_STEREO_COUNT>
1

> <PUBCHEM_ATOM_UDEF_STEREO_COUNT>
0

> <PUBCHEM_BOND_DEF_STEREO_COUNT>
0

> <PUBCHEM_BOND_UDEF_STEREO_COUNT>
0

> <PUBCHEM_ISOTOPIC_ATOM_COUNT>
0

> <PUBCHEM_COMPONENT_COUNT>
1

> <PUBCHEM_CACTVS_TAUTO_COUNT>
6

> <PUBCHEM_COORDINATE_TYPE>
1
5
255

> <PUBCHEM_BONDANNOTATIONS>
10  16  8
10  17  8
11  14  8
12  15  8
14  15  8
16  18  8
17  19  8
18  20  8
19  20  8
5  10  5
7  11  8
7  9  8
9  12  8

$$$$

