   Color/Form
        Colorless liquid
   from [1]HSDB

   Odor

     * Fragrant
     * ANISE ODOR

   from [2]HSDB

   Boiling Point
        253 deg C
   from [3]HSDB

   Melting Point
        8.2 deg C
   from [4]HSDB

   Density/Specific Gravity
        1.117 to 1.120
   from [5]HSDB

   Octanol/Water Partition Coefficient
        log Kow = 3.37 (est)
   from [6]HSDB

   Solubilities

     * Sol in organic solvents; practically insol in water
     * Sol in ether, benzene and alcohol
     * In water, 144 mg/L at 25 deg C (est)

   from [7]HSDB

   Spectral Properties
        Index of refraction: 1.576 at 20 deg C
   from [8]HSDB

   Vapor Pressure
        2.45X10-2 mm Hg at 25 deg C (est)
   from [9]HSDB

   Other Chemical/Physical Properties

     * MP: 6.7-6.8 DEG C
     * VP: 0.664 mm Hg at 70 deg C
     * Henry's Law constant = 3.6X10-2 atm-cu m/mol at 25 deg C (est)
     * Hydroxyl radical reaction rate constant = 7.62X10-11 cu
       cm/molec-sec at 25 deg C (est)
     * Liquid, bp 77-79 deg C at 3.5 mm Hg; mp -21.5 deg C; density 1.1182
       at 20 deg C/4 deg C; index of refraction: 1.5691 at 20 deg C/D; max
       absorption (96% alcohol): 296.5, 259 nm (e= 4450; 10,000)
       /cis-form/
     * Liquid, bp 253 deg C at 760 mm Hg; bp 179.5 deg C at 100 mm Hg; bp
       135.6 deg C at 20 mm Hg; bp 85-86 deg C at 3.4 mm Hg; mp 8.2 deg C;
       density 1.1206 at 20 deg C/4 deg C; index of refraction: 1.5782 at
       20 deg C/D; max absorption (96% alcohol): 305, 267, 259.5 nm (e=
       5340; 11,600; 12,160) /trans-form/
     * Miscible with alc, ether, benzene; sol in 8 parts of 90% alcohol
       /trans-form/

   from [10]HSDB

   Computed Properties
   Molecular Weight                  162.1852 [g/mol]
   Molecular Formula                 C[10]H[10]O[2]
   XLogP3                            3.1
   H-Bond Donor                      0
   H-Bond Acceptor                   2
   Rotatable Bond Count              1
   Exact Mass                        162.06808
   MonoIsotopic Mass                 162.06808
   Topological Polar Surface Area    18.5
   Heavy Atom Count                  12
   Formal Charge                     0
   Complexity                        177
   Isotope Atom Count                0
   Defined Atom Stereocenter Count   0
   Undefined Atom Stereocenter Count 0
   Defined Bond Stereocenter Count   1
   Undefined Bond Stereocenter Count 0
   Covalently-Bonded Unit Count      1
   Feature 3D Acceptor Count         2
   Feature 3D Hydrophobe Count       1
   Feature 3D Ring Count             2
   Effective Rotor Count             1.6
   Conformer Sampling RMSD           0.4
   CID Conformer Count               [11]2

References

   1. http://toxnet.nlm.nih.gov/cgi-bin/sis/search/r?dbs+hsdb:@term+@rn+@rel+120-58-1
   2. http://toxnet.nlm.nih.gov/cgi-bin/sis/search/r?dbs+hsdb:@term+@rn+@rel+120-58-1
   3. http://toxnet.nlm.nih.gov/cgi-bin/sis/search/r?dbs+hsdb:@term+@rn+@rel+120-58-1
   4. http://toxnet.nlm.nih.gov/cgi-bin/sis/search/r?dbs+hsdb:@term+@rn+@rel+120-58-1
   5. http://toxnet.nlm.nih.gov/cgi-bin/sis/search/r?dbs+hsdb:@term+@rn+@rel+120-58-1
   6. http://toxnet.nlm.nih.gov/cgi-bin/sis/search/r?dbs+hsdb:@term+@rn+@rel+120-58-1
   7. http://toxnet.nlm.nih.gov/cgi-bin/sis/search/r?dbs+hsdb:@term+@rn+@rel+120-58-1
   8. http://toxnet.nlm.nih.gov/cgi-bin/sis/search/r?dbs+hsdb:@term+@rn+@rel+120-58-1
   9. http://toxnet.nlm.nih.gov/cgi-bin/sis/search/r?dbs+hsdb:@term+@rn+@rel+120-58-1
  10. http://toxnet.nlm.nih.gov/cgi-bin/sis/search/r?dbs+hsdb:@term+@rn+@rel+120-58-1
  11. http://pubchem.ncbi.nlm.nih.gov/vw3d/vw3d.cgi?cid=637796
