443097
  -OEChem-07051213012D

 87 91  0     1  0  0  0  0  0999 V2000
    6.1847   -2.2323    0.0000 O   0  0  0  0  0  0  0  0  0  0  0  0
    2.5357   -1.2154    0.0000 O   0  0  0  0  0  0  0  0  0  0  0  0
    7.9167   -2.2256    0.0000 O   0  0  0  0  0  0  0  0  0  0  0  0
    6.1924   -4.2323    0.0000 O   0  0  0  0  0  0  0  0  0  0  0  0
    7.9283   -5.2256    0.0000 O   0  0  0  0  0  0  0  0  0  0  0  0
   11.7640    5.4057    0.0000 O   0  0  0  0  0  0  0  0  0  0  0  0
    9.6565   -4.2189    0.0000 O   0  0  0  0  0  0  0  0  0  0  0  0
   12.1212    3.7109    0.0000 O   0  0  0  0  0  0  0  0  0  0  0  0
   10.5167   -2.7156    0.0000 O   0  5  0  0  0  0  0  0  0  0  0  0
    9.6449   -1.2190    0.0000 O   0  0  0  0  0  0  0  0  0  0  0  0
    7.9288    0.8369    0.0000 C   0  0  1  0  0  0  0  0  0  0  0  0
    7.0628    0.3369    0.0000 C   0  0  1  0  0  0  0  0  0  0  0  0
    7.9288    1.8370    0.0000 C   0  0  1  0  0  0  0  0  0  0  0  0
    6.1968    0.8369    0.0000 C   0  0  1  0  0  0  0  0  0  0  0  0
    5.2868    0.3301    0.0000 C   0  0  2  0  0  0  0  0  0  0  0  0
    8.8750    2.1417    0.0000 C   0  0  2  0  0  0  0  0  0  0  0  0
    5.2787   -0.7115    0.0000 C   0  0  2  0  0  0  0  0  0  0  0  0
    7.0628    2.3370    0.0000 C   0  0  0  0  0  0  0  0  0  0  0  0
    6.1968    1.8370    0.0000 C   0  0  0  0  0  0  0  0  0  0  0  0
    7.0789   -0.7046    0.0000 C   0  0  0  0  0  0  0  0  0  0  0  0
    8.8750    0.5322    0.0000 C   0  0  0  0  0  0  0  0  0  0  0  0
    6.1808   -1.2323    0.0000 C   0  0  2  0  0  0  0  0  0  0  0  0
    9.4586    1.3370    0.0000 C   0  0  0  0  0  0  0  0  0  0  0  0
    4.3599    0.8942    0.0000 C   0  0  0  0  0  0  0  0  0  0  0  0
    7.9288    2.8370    0.0000 C   0  0  0  0  0  0  0  0  0  0  0  0
    4.3433   -1.2612    0.0000 C   0  0  0  0  0  0  0  0  0  0  0  0
    9.1857    3.0922    0.0000 C   0  0  1  0  0  0  0  0  0  0  0  0
    5.2945    1.3301    0.0000 C   0  0  0  0  0  0  0  0  0  0  0  0
    3.4120    0.3662    0.0000 C   0  0  0  0  0  0  0  0  0  0  0  0
    3.4037   -0.7187    0.0000 C   0  0  1  0  0  0  0  0  0  0  0  0
   10.1642    3.2984    0.0000 C   0  0  0  0  0  0  0  0  0  0  0  0
    8.5179    3.8365    0.0000 C   0  0  0  0  0  0  0  0  0  0  0  0
    7.0526   -2.7290    0.0000 C   0  0  2  0  0  0  0  0  0  0  0  0
   10.4749    4.2489    0.0000 C   0  0  0  0  0  0  0  0  0  0  0  0
    7.0565   -3.7290    0.0000 C   0  0  1  0  0  0  0  0  0  0  0  0
    7.9244   -4.2256    0.0000 C   0  0  2  0  0  0  0  0  0  0  0  0
   11.4534    4.4552    0.0000 C   0  0  0  0  0  0  0  0  0  0  0  0
    8.7847   -2.7223    0.0000 C   0  0  1  0  0  0  0  0  0  0  0  0
    8.7885   -3.7223    0.0000 C   0  0  1  0  0  0  0  0  0  0  0  0
    9.6488   -2.2190    0.0000 C   0  0  0  0  0  0  0  0  0  0  0  0
    8.0188   -0.0083    0.0000 H   0  0  0  0  0  0  0  0  0  0  0  0
    7.8022   -0.0824    0.0000 H   0  0  0  0  0  0  0  0  0  0  0  0
    6.9329    1.2619    0.0000 H   0  0  0  0  0  0  0  0  0  0  0  0
    9.7148    2.2736    0.0000 H   0  0  0  0  0  0  0  0  0  0  0  0
    5.2820   -1.5615    0.0000 H   0  0  0  0  0  0  0  0  0  0  0  0
    7.4613    2.8119    0.0000 H   0  0  0  0  0  0  0  0  0  0  0  0
    6.6643    2.8119    0.0000 H   0  0  0  0  0  0  0  0  0  0  0  0
    5.9847    2.4196    0.0000 H   0  0  0  0  0  0  0  0  0  0  0  0
    5.5862    1.7293    0.0000 H   0  0  0  0  0  0  0  0  0  0  0  0
    7.2969   -1.2850    0.0000 H   0  0  0  0  0  0  0  0  0  0  0  0
    7.6880   -0.5891    0.0000 H   0  0  0  0  0  0  0  0  0  0  0  0
    8.6240   -0.0347    0.0000 H   0  0  0  0  0  0  0  0  0  0  0  0
    9.4124    0.2230    0.0000 H   0  0  0  0  0  0  0  0  0  0  0  0
    6.7195   -1.5392    0.0000 H   0  0  0  0  0  0  0  0  0  0  0  0
    9.9195    0.9222    0.0000 H   0  0  0  0  0  0  0  0  0  0  0  0
    9.9195    1.7517    0.0000 H   0  0  0  0  0  0  0  0  0  0  0  0
    4.7681    1.3608    0.0000 H   0  0  0  0  0  0  0  0  0  0  0  0
    3.9700    1.3762    0.0000 H   0  0  0  0  0  0  0  0  0  0  0  0
    8.5488    2.8370    0.0000 H   0  0  0  0  0  0  0  0  0  0  0  0
    7.9288    3.4570    0.0000 H   0  0  0  0  0  0  0  0  0  0  0  0
    7.3088    2.8370    0.0000 H   0  0  0  0  0  0  0  0  0  0  0  0
    3.9460   -1.7372    0.0000 H   0  0  0  0  0  0  0  0  0  0  0  0
    4.7443   -1.7341    0.0000 H   0  0  0  0  0  0  0  0  0  0  0  0
    9.3783    3.6815    0.0000 H   0  0  0  0  0  0  0  0  0  0  0  0
    5.9145    1.3253    0.0000 H   0  0  0  0  0  0  0  0  0  0  0  0
    5.2993    1.9500    0.0000 H   0  0  0  0  0  0  0  0  0  0  0  0
    4.6745    1.3349    0.0000 H   0  0  0  0  0  0  0  0  0  0  0  0
    3.2075    0.9515    0.0000 H   0  0  0  0  0  0  0  0  0  0  0  0
    2.8004    0.2649    0.0000 H   0  0  0  0  0  0  0  0  0  0  0  0
    3.4025   -1.3387    0.0000 H   0  0  0  0  0  0  0  0  0  0  0  0
   10.1848    2.6788    0.0000 H   0  0  0  0  0  0  0  0  0  0  0  0
   10.7780    3.2111    0.0000 H   0  0  0  0  0  0  0  0  0  0  0  0
    8.9793    4.2506    0.0000 H   0  0  0  0  0  0  0  0  0  0  0  0
    8.1038    4.2980    0.0000 H   0  0  0  0  0  0  0  0  0  0  0  0
    8.0564    3.4224    0.0000 H   0  0  0  0  0  0  0  0  0  0  0  0
    7.0502   -2.1090    0.0000 H   0  0  0  0  0  0  0  0  0  0  0  0
    2.0000   -0.9033    0.0000 H   0  0  0  0  0  0  0  0  0  0  0  0
   10.4543    4.8686    0.0000 H   0  0  0  0  0  0  0  0  0  0  0  0
    9.8611    4.3363    0.0000 H   0  0  0  0  0  0  0  0  0  0  0  0
    7.0589   -4.3490    0.0000 H   0  0  0  0  0  0  0  0  0  0  0  0
    7.3887   -4.5377    0.0000 H   0  0  0  0  0  0  0  0  0  0  0  0
    8.7823   -2.1023    0.0000 H   0  0  0  0  0  0  0  0  0  0  0  0
    9.3242   -3.4102    0.0000 H   0  0  0  0  0  0  0  0  0  0  0  0
    6.1948   -4.8523    0.0000 H   0  0  0  0  0  0  0  0  0  0  0  0
    8.4664   -5.5335    0.0000 H   0  0  0  0  0  0  0  0  0  0  0  0
   12.3707    5.5335    0.0000 H   0  0  0  0  0  0  0  0  0  0  0  0
    9.6588   -4.8389    0.0000 H   0  0  0  0  0  0  0  0  0  0  0  0
 22  1  1  6  0  0  0
 33  1  1  6  0  0  0
 30  2  1  6  0  0  0
  2 77  1  0  0  0  0
  3 33  1  0  0  0  0
  3 38  1  0  0  0  0
 35  4  1  1  0  0  0
  4 84  1  0  0  0  0
 36  5  1  6  0  0  0
  5 85  1  0  0  0  0
  6 37  1  0  0  0  0
  6 86  1  0  0  0  0
 39  7  1  1  0  0  0
  7 87  1  0  0  0  0
  8 37  2  0  0  0  0
  9 40  1  0  0  0  0
 10 40  2  0  0  0  0
 11 12  1  0  0  0  0
 11 13  1  0  0  0  0
 11 21  1  0  0  0  0
 11 41  1  6  0  0  0
 12 14  1  0  0  0  0
 12 20  1  0  0  0  0
 12 42  1  1  0  0  0
 13 16  1  0  0  0  0
 13 18  1  0  0  0  0
 13 25  1  1  0  0  0
 14 15  1  0  0  0  0
 14 19  1  0  0  0  0
 14 43  1  6  0  0  0
 15 17  1  0  0  0  0
 15 24  1  0  0  0  0
 15 28  1  1  0  0  0
 16 23  1  0  0  0  0
 16 27  1  0  0  0  0
 16 44  1  6  0  0  0
 17 22  1  0  0  0  0
 17 26  1  0  0  0  0
 17 45  1  1  0  0  0
 18 19  1  0  0  0  0
 18 46  1  0  0  0  0
 18 47  1  0  0  0  0
 19 48  1  0  0  0  0
 19 49  1  0  0  0  0
 20 22  1  0  0  0  0
 20 50  1  0  0  0  0
 20 51  1  0  0  0  0
 21 23  1  0  0  0  0
 21 52  1  0  0  0  0
 21 53  1  0  0  0  0
 22 54  1  0  0  0  0
 23 55  1  0  0  0  0
 23 56  1  0  0  0  0
 24 29  1  0  0  0  0
 24 57  1  0  0  0  0
 24 58  1  0  0  0  0
 25 59  1  0  0  0  0
 25 60  1  0  0  0  0
 25 61  1  0  0  0  0
 26 30  1  0  0  0  0
 26 62  1  0  0  0  0
 26 63  1  0  0  0  0
 27 31  1  0  0  0  0
 27 32  1  6  0  0  0
 27 64  1  0  0  0  0
 28 65  1  0  0  0  0
 28 66  1  0  0  0  0
 28 67  1  0  0  0  0
 29 30  1  0  0  0  0
 29 68  1  0  0  0  0
 29 69  1  0  0  0  0
 30 70  1  0  0  0  0
 31 34  1  0  0  0  0
 31 71  1  0  0  0  0
 31 72  1  0  0  0  0
 32 73  1  0  0  0  0
 32 74  1  0  0  0  0
 32 75  1  0  0  0  0
 33 35  1  0  0  0  0
 33 76  1  0  0  0  0
 34 37  1  0  0  0  0
 34 78  1  0  0  0  0
 34 79  1  0  0  0  0
 35 36  1  0  0  0  0
 35 80  1  0  0  0  0
 36 39  1  0  0  0  0
 36 81  1  0  0  0  0
 38 39  1  0  0  0  0
 38 40  1  6  0  0  0
 38 82  1  0  0  0  0
 39 83  1  0  0  0  0
M  CHG  1   9  -1
M  END
> <PUBCHEM_COMPOUND_CID>
443097

> <PUBCHEM_COMPOUND_CANONICALIZED>
1

> <PUBCHEM_CACTVS_COMPLEXITY>
953

> <PUBCHEM_CACTVS_HBOND_ACCEPTOR>
10

> <PUBCHEM_CACTVS_HBOND_DONOR>
5

> <PUBCHEM_CACTVS_ROTATABLE_BOND>
6

> <PUBCHEM_CACTVS_SUBSKEYS>
AAADcfB4PAAAAAAAAAAAAAAAAAAAAYAAAAA0YMEAAAAAAGDAAAAAGgAACAAADxSwgAMCCAAABgAIAACQCAIAAAAAAAAAAAFAAAAREBYAAAQiQAAFIAAHAAHK7PzPgAAAAAAAAADAAAYAADAAAQAACAAAAA==

> <PUBCHEM_IUPAC_OPENEYE_NAME>
(2S,3S,4S,5R,6R)-6-[[(3R,5R,6S,8S,9S,10R,13R,14S,17R)-17-[(1R)-3-carboxy-1-methyl-propyl]-3-hydroxy-10,13-dimethyl-2,3,4,5,6,7,8,9,11,12,14,15,16,17-tetradecahydro-1H-cyclopenta[a]phenanthren-6-yl]oxy]-3,4,5-trihydroxy-tetrahydropyran-2-carboxylate

> <PUBCHEM_IUPAC_CAS_NAME>
(2S,3S,4S,5R,6R)-6-[[(3R,5R,6S,8S,9S,10R,13R,14S,17R)-17-[(2R)-4-carboxybutan-2-yl]-3-hydroxy-10,13-dimethyl-2,3,4,5,6,7,8,9,11,12,14,15,16,17-tetradecahydro-1H-cyclopenta[a]phenanthren-6-yl]oxy]-3,4,5-trihydroxy-2-oxanecarboxylate

> <PUBCHEM_IUPAC_NAME>
(2S,3S,4S,5R,6R)-6-[[(3R,5R,6S,8S,9S,10R,13R,14S,17R)-17-[(2R)-4-carboxybutan-2-yl]-3-hydroxy-10,13-dimethyl-2,3,4,5,6,7,8,9,11,12,14,15,16,17-tetradecahydro-1H-cyclopenta[a]phenanthren-6-yl]oxy]-3,4,5-trihydroxyoxane-2-carboxylate

> <PUBCHEM_IUPAC_SYSTEMATIC_NAME>
(2S,3S,4S,5R,6R)-6-[[(3R,5R,6S,8S,9S,10R,13R,14S,17R)-10,13-dimethyl-3-oxidanyl-17-[(2R)-5-oxidanyl-5-oxidanylidene-pentan-2-yl]-2,3,4,5,6,7,8,9,11,12,14,15,16,17-tetradecahydro-1H-cyclopenta[a]phenanthren-6-yl]oxy]-3,4,5-tris(oxidanyl)oxane-2-carboxylate

> <PUBCHEM_IUPAC_TRADITIONAL_NAME>
(2S,3S,4S,5R,6R)-6-[[(3R,5R,6S,8S,9S,10R,13R,14S,17R)-17-[(1R)-3-carboxy-1-methyl-propyl]-3-hydroxy-10,13-dimethyl-2,3,4,5,6,7,8,9,11,12,14,15,16,17-tetradecahydro-1H-cyclopenta[a]phenanthren-6-yl]oxy]-3,4,5-trihydroxy-tetrahydropyran-2-carboxylate

> <PUBCHEM_IUPAC_INCHI>
InChI=1S/C30H48O10/c1-14(4-7-22(32)33)17-5-6-18-16-13-21(39-28-25(36)23(34)24(35)26(40-28)27(37)38)20-12-15(31)8-10-30(20,3)19(16)9-11-29(17,18)2/h14-21,23-26,28,31,34-36H,4-13H2,1-3H3,(H,32,33)(H,37,38)/p-1/t14-,15-,16+,17-,18+,19+,20+,21+,23+,24+,25-,26+,28-,29-,30-/m1/s1

> <PUBCHEM_IUPAC_INCHIKEY>
MAXKTGFGXCXJFY-HHUAQUJWSA-M

> <PUBCHEM_XLOGP3_AA>
4.2

> <PUBCHEM_EXACT_MASS>
567.316923

> <PUBCHEM_MOLECULAR_FORMULA>
C30H47O10-

> <PUBCHEM_MOLECULAR_WEIGHT>
567.68818

> <PUBCHEM_OPENEYE_CAN_SMILES>
CC(CCC(=O)O)C1CCC2C1(CCC3C2CC(C4C3(CCC(C4)O)C)OC5C(C(C(C(O5)C(=O)[O-])O)O)O)C

> <PUBCHEM_OPENEYE_ISO_SMILES>
C[C@H](CCC(=O)O)[C@H]1CC[C@@H]2[C@@]1(CC[C@H]3[C@H]2C[C@@H]([C@H]4[C@@]3(CC[C@H](C4)O)C)O[C@H]5[C@@H]([C@H]([C@@H]([C@H](O5)C(=O)[O-])O)O)O)C

> <PUBCHEM_CACTVS_TPSA>
177

> <PUBCHEM_MONOISOTOPIC_WEIGHT>
567.316923

> <PUBCHEM_TOTAL_CHARGE>
-1

> <PUBCHEM_HEAVY_ATOM_COUNT>
40

> <PUBCHEM_ATOM_DEF_STEREO_COUNT>
15

> <PUBCHEM_ATOM_UDEF_STEREO_COUNT>
0

> <PUBCHEM_BOND_DEF_STEREO_COUNT>
0

> <PUBCHEM_BOND_UDEF_STEREO_COUNT>
0

> <PUBCHEM_ISOTOPIC_ATOM_COUNT>
0

> <PUBCHEM_COMPONENT_COUNT>
1

> <PUBCHEM_CACTVS_TAUTO_COUNT>
1

> <PUBCHEM_COORDINATE_TYPE>
1
5
255

> <PUBCHEM_BONDANNOTATIONS>
22  1  6
33  1  6
11  41  6
12  42  5
13  25  5
14  43  6
15  28  5
16  44  6
17  45  5
30  2  6
27  32  6
38  40  6
35  4  5
36  5  6
39  7  5

$$$$

