853919
  -OEChem-06241222462D

 40 43  0     0  0  0  0  0  0999 V2000
    7.5388    1.8981    0.0000 N   0  3  0  0  0  0  0  0  0  0  0  0
    6.5878    0.5891    0.0000 N   0  0  0  0  0  0  0  0  0  0  0  0
    7.5388    0.8981    0.0000 C   0  0  0  0  0  0  0  0  0  0  0  0
    8.4851    0.5933    0.0000 C   0  0  0  0  0  0  0  0  0  0  0  0
    8.4851    2.2028    0.0000 C   0  0  0  0  0  0  0  0  0  0  0  0
    9.0687    1.3981    0.0000 C   0  0  0  0  0  0  0  0  0  0  0  0
    6.0000    1.3981    0.0000 C   0  0  0  0  0  0  0  0  0  0  0  0
    6.5878    2.2071    0.0000 C   0  0  0  0  0  0  0  0  0  0  0  0
    6.2788   -0.3620    0.0000 C   0  0  0  0  0  0  0  0  0  0  0  0
    5.0000    1.3981    0.0000 C   0  0  0  0  0  0  0  0  0  0  0  0
    5.3006   -0.5699    0.0000 C   0  0  0  0  0  0  0  0  0  0  0  0
    6.9479   -1.1051    0.0000 C   0  0  0  0  0  0  0  0  0  0  0  0
    4.5000    2.2641    0.0000 C   0  0  0  0  0  0  0  0  0  0  0  0
    4.5000    0.5321    0.0000 C   0  0  0  0  0  0  0  0  0  0  0  0
    3.5000    2.2641    0.0000 C   0  0  0  0  0  0  0  0  0  0  0  0
    3.5000    0.5321    0.0000 C   0  0  0  0  0  0  0  0  0  0  0  0
    3.0000    1.3981    0.0000 C   0  0  0  0  0  0  0  0  0  0  0  0
    4.9916   -1.5210    0.0000 C   0  0  0  0  0  0  0  0  0  0  0  0
    6.6389   -2.0562    0.0000 C   0  0  0  0  0  0  0  0  0  0  0  0
    5.6607   -2.2641    0.0000 C   0  0  0  0  0  0  0  0  0  0  0  0
    2.0000    1.3981    0.0000 C   0  0  0  0  0  0  0  0  0  0  0  0
    8.2340    0.0264    0.0000 H   0  0  0  0  0  0  0  0  0  0  0  0
    9.0224    0.2841    0.0000 H   0  0  0  0  0  0  0  0  0  0  0  0
    9.0224    2.5120    0.0000 H   0  0  0  0  0  0  0  0  0  0  0  0
    8.2340    2.7697    0.0000 H   0  0  0  0  0  0  0  0  0  0  0  0
    9.5295    0.9834    0.0000 H   0  0  0  0  0  0  0  0  0  0  0  0
    9.5295    1.8128    0.0000 H   0  0  0  0  0  0  0  0  0  0  0  0
    6.3962    2.7968    0.0000 H   0  0  0  0  0  0  0  0  0  0  0  0
    4.8858   -0.1092    0.0000 H   0  0  0  0  0  0  0  0  0  0  0  0
    7.5544   -0.9762    0.0000 H   0  0  0  0  0  0  0  0  0  0  0  0
    4.8100    2.8010    0.0000 H   0  0  0  0  0  0  0  0  0  0  0  0
    4.8100   -0.0049    0.0000 H   0  0  0  0  0  0  0  0  0  0  0  0
    3.1900    2.8010    0.0000 H   0  0  0  0  0  0  0  0  0  0  0  0
    3.1900   -0.0049    0.0000 H   0  0  0  0  0  0  0  0  0  0  0  0
    4.3852   -1.6499    0.0000 H   0  0  0  0  0  0  0  0  0  0  0  0
    7.0537   -2.5169    0.0000 H   0  0  0  0  0  0  0  0  0  0  0  0
    5.4691   -2.8538    0.0000 H   0  0  0  0  0  0  0  0  0  0  0  0
    2.0000    2.0181    0.0000 H   0  0  0  0  0  0  0  0  0  0  0  0
    1.3800    1.3981    0.0000 H   0  0  0  0  0  0  0  0  0  0  0  0
    2.0000    0.7781    0.0000 H   0  0  0  0  0  0  0  0  0  0  0  0
  1  3  2  0  0  0  0
  1  5  1  0  0  0  0
  1  8  1  0  0  0  0
  2  3  1  0  0  0  0
  2  7  1  0  0  0  0
  2  9  1  0  0  0  0
  3  4  1  0  0  0  0
  4  6  1  0  0  0  0
  4 22  1  0  0  0  0
  4 23  1  0  0  0  0
  5  6  1  0  0  0  0
  5 24  1  0  0  0  0
  5 25  1  0  0  0  0
  6 26  1  0  0  0  0
  6 27  1  0  0  0  0
  7  8  2  0  0  0  0
  7 10  1  0  0  0  0
  8 28  1  0  0  0  0
  9 11  2  0  0  0  0
  9 12  1  0  0  0  0
 10 13  2  0  0  0  0
 10 14  1  0  0  0  0
 11 18  1  0  0  0  0
 11 29  1  0  0  0  0
 12 19  2  0  0  0  0
 12 30  1  0  0  0  0
 13 15  1  0  0  0  0
 13 31  1  0  0  0  0
 14 16  2  0  0  0  0
 14 32  1  0  0  0  0
 15 17  2  0  0  0  0
 15 33  1  0  0  0  0
 16 17  1  0  0  0  0
 16 34  1  0  0  0  0
 17 21  1  0  0  0  0
 18 20  2  0  0  0  0
 18 35  1  0  0  0  0
 19 20  1  0  0  0  0
 19 36  1  0  0  0  0
 20 37  1  0  0  0  0
 21 38  1  0  0  0  0
 21 39  1  0  0  0  0
 21 40  1  0  0  0  0
M  CHG  1   1   1
M  END
> <PUBCHEM_COMPOUND_CID>
853919

> <PUBCHEM_COMPOUND_CANONICALIZED>
1

> <PUBCHEM_CACTVS_COMPLEXITY>
342

> <PUBCHEM_CACTVS_HBOND_ACCEPTOR>
0

> <PUBCHEM_CACTVS_HBOND_DONOR>
0

> <PUBCHEM_CACTVS_ROTATABLE_BOND>
2

> <PUBCHEM_CACTVS_SUBSKEYS>
AAADceB7AAAAAAAAAAAAAAAAAAAAAWLAAAAwYAAAAAAWAAAB0AAAHAAAAAAADAjBHwQ/0JcMEACgAzZnZACCgC0xEqAJ2CA4dJiIaOLAmZGUIAhogALIyCcQgMAOQAAAAAAAAACAAAAAAAAAAAAAAAAAAA==

> <PUBCHEM_IUPAC_OPENEYE_NAME>
1-phenyl-2-(p-tolyl)-6,7-dihydro-5H-pyrrolo[1,2-a]imidazol-4-ium

> <PUBCHEM_IUPAC_CAS_NAME>
2-(4-methylphenyl)-1-phenyl-6,7-dihydro-5H-pyrrolo[1,2-a]imidazol-4-ium

> <PUBCHEM_IUPAC_NAME>
2-(4-methylphenyl)-1-phenyl-6,7-dihydro-5H-pyrrolo[1,2-a]imidazol-4-ium

> <PUBCHEM_IUPAC_SYSTEMATIC_NAME>
2-(4-methylphenyl)-1-phenyl-6,7-dihydro-5H-pyrrolo[1,2-a]imidazol-4-ium

> <PUBCHEM_IUPAC_TRADITIONAL_NAME>
1-phenyl-2-(p-tolyl)-6,7-dihydro-5H-pyrrol[1,2-a]imidazol-4-ium

> <PUBCHEM_IUPAC_INCHI>
InChI=1S/C19H19N2/c1-15-9-11-16(12-10-15)18-14-20-13-5-8-19(20)21(18)17-6-3-2-4-7-17/h2-4,6-7,9-12,14H,5,8,13H2,1H3/q+1

> <PUBCHEM_IUPAC_INCHIKEY>
QPAUSEFRWOAHNY-UHFFFAOYSA-N

> <PUBCHEM_XLOGP3_AA>
4.2

> <PUBCHEM_EXACT_MASS>
275.154824

> <PUBCHEM_MOLECULAR_FORMULA>
C19H19N2+

> <PUBCHEM_MOLECULAR_WEIGHT>
275.36756

> <PUBCHEM_OPENEYE_CAN_SMILES>
CC1=CC=C(C=C1)C2=C[N+]3=C(N2C4=CC=CC=C4)CCC3

> <PUBCHEM_OPENEYE_ISO_SMILES>
CC1=CC=C(C=C1)C2=C[N+]3=C(N2C4=CC=CC=C4)CCC3

> <PUBCHEM_CACTVS_TPSA>
8.8

> <PUBCHEM_MONOISOTOPIC_WEIGHT>
275.154824

> <PUBCHEM_TOTAL_CHARGE>
1

> <PUBCHEM_HEAVY_ATOM_COUNT>
21

> <PUBCHEM_ATOM_DEF_STEREO_COUNT>
0

> <PUBCHEM_ATOM_UDEF_STEREO_COUNT>
0

> <PUBCHEM_BOND_DEF_STEREO_COUNT>
0

> <PUBCHEM_BOND_UDEF_STEREO_COUNT>
0

> <PUBCHEM_ISOTOPIC_ATOM_COUNT>
0

> <PUBCHEM_COMPONENT_COUNT>
1

> <PUBCHEM_CACTVS_TAUTO_COUNT>
1

> <PUBCHEM_COORDINATE_TYPE>
1
5
255

> <PUBCHEM_BONDANNOTATIONS>
1  3  8
1  8  8
10  13  8
10  14  8
11  18  8
12  19  8
13  15  8
14  16  8
15  17  8
16  17  8
18  20  8
19  20  8
2  3  8
2  7  8
7  8  8
9  11  8
9  12  8

$$$$

