   Color/Form
        Colorless liquid ...
   from [1]HSDB

   Odor

     * ... Characteristic odor.
     * Sharp aromatic odor

   from [2]HSDB

   Boiling Point
        165.4 deg C
   from [3]HSDB

   Melting Point
        -23.2 deg C
   from [4]HSDB

   Critical Temperature and Pressure
        Critical temperature: 384 deg C; Critical pressure: 4.36 MPa
   from [5]HSDB

   Density/Specific Gravity
        0.9106
   from [6]HSDB

   Heat of Combustion
        4863.73 kJ/mol at 25 deg C (gas at constant pressure)
   from [7]HSDB

   Heat of Vaporization
        404.55 J/g at 25 deg C; 326.35 J/g at boiling point
   from [8]HSDB

   Octanol/Water Partition Coefficient
        log Kow= 3.48
   from [9]HSDB

   Solubilities

     * SOL IN ALC; SOL IN ALL PROPORTIONS IN ACETONE, CARBON TETRACHLORIDE
     * Sol in benzene, chloroform
     * Sol in ether
     * Sol in n-heptane, ethanol
     * In water, 116 mg/l @ 25 deg C

   from [10]HSDB

   Spectral Properties

     * Index of refraction: 1.5386 @ 20 deg C/D
     * MAX ABSORPTION (PETROLEUM ETHER): 242.5 NM (LOG E= 4.04), 277 NM
       (LOG E= 2.44)
     * IR: 329 (American Petroleum Institute Collection)
     * UV: 6-224 (Organic Electronic Spectral Data, Phillips et al, John
       Wiley & Sons, New York)
     * MASS: 61890 (NIST/EPA/MSDC Mass Spec Database, 1990 version); 1015
       (Atlas of Mass Spectral Data, John Wiley & Sons, NY)

   from [11]HSDB

   Surface Tension
        32.40 dynes/cm @ 20 deg C
   from [12]HSDB

   Vapor Pressure
        1.9 mm Hg @ 25 deg C
   from [13]HSDB

   Viscosity
        0.940 cP @ 20 deg C
   from [14]HSDB

   Other Chemical/Physical Properties

     * Ionization potential: 8.35 electron volts (eV)
     * Critical volume, 3.26 ml/g; critical density, 0.29 g/ml; specific
       heat of liquid, 2.0460 J/g deg K at 40 deg C, & 2.1757 J/g deg K at
       100 deg C; specific heat of vapor, 1.2357 J/g deg K at 25 deg C;
       heat of formation of liquid, 112.97 kJ/mol at 25 deg C; heat of
       polymerization, 39.75 kJ/mol; cubical coefficient of expansion,
       9.774X10-4 at 20 deg C
     * Hydroxyl radical reaction rate constant = 5.2X10-11 cu
       cm/molecule-sec @ 25 deg C

   from [15]HSDB

   Computed Properties
   Molecular Weight                  118.1757 [g/mol]
   Molecular Formula                 C[9]H[10]
   XLogP3                            3.5
   H-Bond Donor                      0
   H-Bond Acceptor                   0
   Rotatable Bond Count              1
   Exact Mass                        118.07825
   MonoIsotopic Mass                 118.07825
   Topological Polar Surface Area    0
   Heavy Atom Count                  9
   Formal Charge                     0
   Complexity                        96.6
   Isotope Atom Count                0
   Defined Atom Stereocenter Count   0
   Undefined Atom Stereocenter Count 0
   Defined Bond Stereocenter Count   0
   Undefined Bond Stereocenter Count 0
   Covalently-Bonded Unit Count      1
   Feature 3D Ring Count             1
   Effective Rotor Count             1
   Conformer Sampling RMSD           0.4
   CID Conformer Count               [16]3

References

   1. http://toxnet.nlm.nih.gov/cgi-bin/sis/search/r?dbs+hsdb:@term+@rn+@rel+98-83-9
   2. http://toxnet.nlm.nih.gov/cgi-bin/sis/search/r?dbs+hsdb:@term+@rn+@rel+98-83-9
   3. http://toxnet.nlm.nih.gov/cgi-bin/sis/search/r?dbs+hsdb:@term+@rn+@rel+98-83-9
   4. http://toxnet.nlm.nih.gov/cgi-bin/sis/search/r?dbs+hsdb:@term+@rn+@rel+98-83-9
   5. http://toxnet.nlm.nih.gov/cgi-bin/sis/search/r?dbs+hsdb:@term+@rn+@rel+98-83-9
   6. http://toxnet.nlm.nih.gov/cgi-bin/sis/search/r?dbs+hsdb:@term+@rn+@rel+98-83-9
   7. http://toxnet.nlm.nih.gov/cgi-bin/sis/search/r?dbs+hsdb:@term+@rn+@rel+98-83-9
   8. http://toxnet.nlm.nih.gov/cgi-bin/sis/search/r?dbs+hsdb:@term+@rn+@rel+98-83-9
   9. http://toxnet.nlm.nih.gov/cgi-bin/sis/search/r?dbs+hsdb:@term+@rn+@rel+98-83-9
  10. http://toxnet.nlm.nih.gov/cgi-bin/sis/search/r?dbs+hsdb:@term+@rn+@rel+98-83-9
  11. http://toxnet.nlm.nih.gov/cgi-bin/sis/search/r?dbs+hsdb:@term+@rn+@rel+98-83-9
  12. http://toxnet.nlm.nih.gov/cgi-bin/sis/search/r?dbs+hsdb:@term+@rn+@rel+98-83-9
  13. http://toxnet.nlm.nih.gov/cgi-bin/sis/search/r?dbs+hsdb:@term+@rn+@rel+98-83-9
  14. http://toxnet.nlm.nih.gov/cgi-bin/sis/search/r?dbs+hsdb:@term+@rn+@rel+98-83-9
  15. http://toxnet.nlm.nih.gov/cgi-bin/sis/search/r?dbs+hsdb:@term+@rn+@rel+98-83-9
  16. http://pubchem.ncbi.nlm.nih.gov/vw3d/vw3d.cgi?cid=7407
