56928125
  -OEChem-07051213152D

 78 81  0     1  0  0  0  0  0999 V2000
   10.8957    0.3339    0.0000 P   0  0  0  0  0  0  0  0  0  0  0  0
    6.8100   -0.9664    0.0000 O   0  0  0  0  0  0  0  0  0  0  0  0
    5.1920   -0.9664    0.0000 O   0  0  0  0  0  0  0  0  0  0  0  0
    8.0356    0.8670    0.0000 O   0  0  0  0  0  0  0  0  0  0  0  0
    5.1350   -2.0542    0.0000 O   0  0  0  0  0  0  0  0  0  0  0  0
    6.5218    1.7846    0.0000 O   0  0  0  0  0  0  0  0  0  0  0  0
    3.9664    0.8670    0.0000 O   0  0  0  0  0  0  0  0  0  0  0  0
    7.7331   -1.5542    0.0000 O   0  0  0  0  0  0  0  0  0  0  0  0
   10.0355    0.8439    0.0000 O   0  0  0  0  0  0  0  0  0  0  0  0
    7.7331   -3.5542    0.0000 O   0  0  0  0  0  0  0  0  0  0  0  0
    7.0557    2.6105    0.0000 O   0  0  0  0  0  0  0  0  0  0  0  0
    6.0010   -4.5542    0.0000 O   0  0  0  0  0  0  0  0  0  0  0  0
    5.4736    3.5167    0.0000 O   0  0  0  0  0  0  0  0  0  0  0  0
    2.5369   -3.5542    0.0000 O   0  0  0  0  0  0  0  0  0  0  0  0
   11.7559   -0.1761    0.0000 O   0  0  0  0  0  0  0  0  0  0  0  0
   10.3857   -0.5263    0.0000 O   0  0  0  0  0  0  0  0  0  0  0  0
   11.4057    1.1941    0.0000 O   0  0  0  0  0  0  0  0  0  0  0  0
   11.0555    2.5643    0.0000 N   0  0  0  0  0  0  0  0  0  0  0  0
    8.0757    4.3309    0.0000 N   0  0  0  0  0  0  0  0  0  0  0  0
    4.2690   -4.5542    0.0000 N   0  0  0  0  0  0  0  0  0  0  0  0
    6.5010   -0.0154    0.0000 C   0  0  1  0  0  0  0  0  0  0  0  0
    5.5010   -0.0154    0.0000 C   0  0  2  0  0  0  0  0  0  0  0  0
    6.0010   -1.5542    0.0000 C   0  0  3  0  0  0  0  0  0  0  0  0
    7.0357    0.8786    0.0000 C   0  0  2  0  0  0  0  0  0  0  0  0
    4.9664    0.8786    0.0000 C   0  0  2  0  0  0  0  0  0  0  0  0
    6.8671   -2.0542    0.0000 C   0  0  1  0  0  0  0  0  0  0  0  0
    8.5456    1.7272    0.0000 C   0  0  1  0  0  0  0  0  0  0  0  0
    5.4802    1.7846    0.0000 C   0  0  1  0  0  0  0  0  0  0  0  0
    9.5456    1.7156    0.0000 C   0  0  1  0  0  0  0  0  0  0  0  0
    6.8671   -3.0542    0.0000 C   0  0  2  0  0  0  0  0  0  0  0  0
    5.1350   -3.0542    0.0000 C   0  0  1  0  0  0  0  0  0  0  0  0
    8.0557    2.5990    0.0000 C   0  0  2  0  0  0  0  0  0  0  0  0
   10.0555    2.5758    0.0000 C   0  0  2  0  0  0  0  0  0  0  0  0
    6.0010   -3.5542    0.0000 C   0  0  2  0  0  0  0  0  0  0  0  0
    8.5656    3.4591    0.0000 C   0  0  1  0  0  0  0  0  0  0  0  0
    9.5656    3.4476    0.0000 C   0  0  0  0  0  0  0  0  0  0  0  0
    4.2690   -3.5542    0.0000 C   0  0  2  0  0  0  0  0  0  0  0  0
    4.9769    2.6487    0.0000 C   0  0  0  0  0  0  0  0  0  0  0  0
    3.4030   -3.0542    0.0000 C   0  0  0  0  0  0  0  0  0  0  0  0
   11.9156    2.0543    0.0000 C   0  0  0  0  0  0  0  0  0  0  0  0
    7.3457   -0.1107    0.0000 H   0  0  0  0  0  0  0  0  0  0  0  0
    4.6564   -0.1107    0.0000 H   0  0  0  0  0  0  0  0  0  0  0  0
    7.3384    0.3375    0.0000 H   0  0  0  0  0  0  0  0  0  0  0  0
    4.6636    0.3375    0.0000 H   0  0  0  0  0  0  0  0  0  0  0  0
    7.4040   -2.3642    0.0000 H   0  0  0  0  0  0  0  0  0  0  0  0
    7.9256    1.7344    0.0000 H   0  0  0  0  0  0  0  0  0  0  0  0
    5.7892    2.3222    0.0000 H   0  0  0  0  0  0  0  0  0  0  0  0
   10.1655    1.7085    0.0000 H   0  0  0  0  0  0  0  0  0  0  0  0
    7.4040   -2.7442    0.0000 H   0  0  0  0  0  0  0  0  0  0  0  0
    4.3989   -2.6292    0.0000 H   0  0  0  0  0  0  0  0  0  0  0  0
    7.7395    2.0656    0.0000 H   0  0  0  0  0  0  0  0  0  0  0  0
   10.3717    3.1091    0.0000 H   0  0  0  0  0  0  0  0  0  0  0  0
    6.5380   -3.8642    0.0000 H   0  0  0  0  0  0  0  0  0  0  0  0
    7.9457    3.4663    0.0000 H   0  0  0  0  0  0  0  0  0  0  0  0
   10.1506    3.6529    0.0000 H   0  0  0  0  0  0  0  0  0  0  0  0
    9.4650    4.0594    0.0000 H   0  0  0  0  0  0  0  0  0  0  0  0
    4.8059   -3.8642    0.0000 H   0  0  0  0  0  0  0  0  0  0  0  0
    4.5004    3.0454    0.0000 H   0  0  0  0  0  0  0  0  0  0  0  0
    4.5035    2.2484    0.0000 H   0  0  0  0  0  0  0  0  0  0  0  0
   11.3716    3.0976    0.0000 H   0  0  0  0  0  0  0  0  0  0  0  0
    3.6502    1.4003    0.0000 H   0  0  0  0  0  0  0  0  0  0  0  0
    8.2700   -1.8642    0.0000 H   0  0  0  0  0  0  0  0  0  0  0  0
    8.3919    4.8642    0.0000 H   0  0  0  0  0  0  0  0  0  0  0  0
    7.4557    4.3381    0.0000 H   0  0  0  0  0  0  0  0  0  0  0  0
    7.7331   -4.1742    0.0000 H   0  0  0  0  0  0  0  0  0  0  0  0
    6.7520    3.1510    0.0000 H   0  0  0  0  0  0  0  0  0  0  0  0
    3.8015   -2.5793    0.0000 H   0  0  0  0  0  0  0  0  0  0  0  0
    3.0044   -2.5793    0.0000 H   0  0  0  0  0  0  0  0  0  0  0  0
    6.5380   -4.8642    0.0000 H   0  0  0  0  0  0  0  0  0  0  0  0
    3.7320   -4.8642    0.0000 H   0  0  0  0  0  0  0  0  0  0  0  0
    4.8059   -4.8642    0.0000 H   0  0  0  0  0  0  0  0  0  0  0  0
   11.5995    1.5210    0.0000 H   0  0  0  0  0  0  0  0  0  0  0  0
   12.4490    1.7381    0.0000 H   0  0  0  0  0  0  0  0  0  0  0  0
   12.2318    2.5876    0.0000 H   0  0  0  0  0  0  0  0  0  0  0  0
    5.1615    4.0524    0.0000 H   0  0  0  0  0  0  0  0  0  0  0  0
    2.0000   -3.2442    0.0000 H   0  0  0  0  0  0  0  0  0  0  0  0
   10.6895   -1.0668    0.0000 H   0  0  0  0  0  0  0  0  0  0  0  0
   11.7487   -0.7960    0.0000 H   0  0  0  0  0  0  0  0  0  0  0  0
  1  9  1  0  0  0  0
  1 15  1  0  0  0  0
  1 16  1  0  0  0  0
  1 17  2  0  0  0  0
  2 21  1  0  0  0  0
  2 23  1  0  0  0  0
  3 22  1  0  0  0  0
  3 23  1  0  0  0  0
 24  4  1  1  0  0  0
 27  4  1  6  0  0  0
  5 23  1  0  0  0  0
  5 31  1  0  0  0  0
  6 24  1  0  0  0  0
  6 28  1  0  0  0  0
 25  7  1  1  0  0  0
  7 61  1  0  0  0  0
 26  8  1  6  0  0  0
  8 62  1  0  0  0  0
 29  9  1  1  0  0  0
 30 10  1  1  0  0  0
 10 65  1  0  0  0  0
 32 11  1  1  0  0  0
 11 66  1  0  0  0  0
 34 12  1  1  0  0  0
 12 69  1  0  0  0  0
 13 38  1  0  0  0  0
 13 75  1  0  0  0  0
 14 39  1  0  0  0  0
 14 76  1  0  0  0  0
 15 78  1  0  0  0  0
 16 77  1  0  0  0  0
 33 18  1  6  0  0  0
 18 40  1  0  0  0  0
 18 60  1  0  0  0  0
 35 19  1  6  0  0  0
 19 63  1  0  0  0  0
 19 64  1  0  0  0  0
 37 20  1  1  0  0  0
 20 70  1  0  0  0  0
 20 71  1  0  0  0  0
 21 22  1  0  0  0  0
 21 24  1  0  0  0  0
 21 41  1  6  0  0  0
 22 25  1  0  0  0  0
 22 42  1  6  0  0  0
 23 26  1  0  0  0  0
 24 43  1  0  0  0  0
 25 28  1  0  0  0  0
 25 44  1  0  0  0  0
 26 30  1  0  0  0  0
 26 45  1  0  0  0  0
 27 29  1  0  0  0  0
 27 32  1  0  0  0  0
 27 46  1  0  0  0  0
 28 38  1  1  0  0  0
 28 47  1  0  0  0  0
 29 33  1  0  0  0  0
 29 48  1  0  0  0  0
 30 34  1  0  0  0  0
 30 49  1  0  0  0  0
 31 34  1  0  0  0  0
 31 37  1  0  0  0  0
 31 50  1  6  0  0  0
 32 35  1  0  0  0  0
 32 51  1  0  0  0  0
 33 36  1  0  0  0  0
 33 52  1  0  0  0  0
 34 53  1  0  0  0  0
 35 36  1  0  0  0  0
 35 54  1  0  0  0  0
 36 55  1  0  0  0  0
 36 56  1  0  0  0  0
 37 39  1  0  0  0  0
 37 57  1  0  0  0  0
 38 58  1  0  0  0  0
 38 59  1  0  0  0  0
 39 67  1  0  0  0  0
 39 68  1  0  0  0  0
 40 72  1  0  0  0  0
 40 73  1  0  0  0  0
 40 74  1  0  0  0  0
M  END
> <PUBCHEM_COMPOUND_CID>
56928125

> <PUBCHEM_COMPOUND_CANONICALIZED>
1

> <PUBCHEM_CACTVS_COMPLEXITY>
919

> <PUBCHEM_CACTVS_HBOND_ACCEPTOR>
19

> <PUBCHEM_CACTVS_HBOND_DONOR>
12

> <PUBCHEM_CACTVS_ROTATABLE_BOND>
8

> <PUBCHEM_CACTVS_SUBSKEYS>
AAADcfB7PgIAAAAAAAAAAAAAAAAAASAAAAA0SIAAAAAAAEgAAAAAHgAQCCAACDzxgAcCCALABxAAQAAAAIAAAAAAAAAAAIAIAAATEAIAwAAnQAAHEAAXAAHw8C8AAAAAAAAAAAAAgAAUCACgAAAAAAAAAA==

> <PUBCHEM_IUPAC_OPENEYE_NAME>
[(1R,2R,3S,4R,6S)-2-[(3'R,3aS,4S,4'S,5'R,6R,6'R,7S,7aS)-6'-[(1S)-1-amino-2-hydroxy-ethyl]-3',4',5',7-tetrahydroxy-6-(hydroxymethyl)spiro[4,6,7,7a-tetrahydro-3aH-[1,3]dioxolo[4,5-c]pyran-2,2'-tetrahydropyran]-4-yl]oxy-4-amino-3-hydroxy-6-(methylamino)cyclohexyl] dihydrogen phosphate

> <PUBCHEM_IUPAC_CAS_NAME>
[(1R,2R,3S,4R,6S)-2-[[(3'R,3aS,4S,4'S,5'R,6R,6'R,7S,7aS)-6'-[(1S)-1-amino-2-hydroxyethyl]-3',4',5',7-tetrahydroxy-6-(hydroxymethyl)-4-spiro[4,6,7,7a-tetrahydro-3aH-[1,3]dioxolo[4,5-c]pyran-2,2'-oxane]yl]oxy]-4-amino-3-hydroxy-6-(methylamino)cyclohexyl] dihydrogen phosphate

> <PUBCHEM_IUPAC_NAME>
[(1R,2R,3S,4R,6S)-2-[(3'R,3aS,4S,4'S,5'R,6R,6'R,7S,7aS)-6'-[(1S)-1-amino-2-hydroxyethyl]-3',4',5',7-tetrahydroxy-6-(hydroxymethyl)spiro[4,6,7,7a-tetrahydro-3aH-[1,3]dioxolo[4,5-c]pyran-2,2'-oxane]-4-yl]oxy-4-amino-3-hydroxy-6-(methylamino)cyclohexyl] dihydrogen phosphate

> <PUBCHEM_IUPAC_SYSTEMATIC_NAME>
[(1R,2R,3S,4R,6S)-2-[(3'R,3aS,4S,4'S,5'R,6R,6'R,7S,7aS)-6'-[(1S)-1-azanyl-2-oxidanyl-ethyl]-6-(hydroxymethyl)-3',4',5',7-tetrakis(oxidanyl)spiro[4,6,7,7a-tetrahydro-3aH-[1,3]dioxolo[4,5-c]pyran-2,2'-oxane]-4-yl]oxy-4-azanyl-6-(methylamino)-3-oxidanyl-cyclohexyl] dihydrogen phosphate

> <PUBCHEM_IUPAC_TRADITIONAL_NAME>
[(1R,2R,3S,4R,6S)-2-[(3'R,3aS,4S,4'S,5'R,6R,6'R,7S,7aS)-6'-[(1S)-1-amino-2-hydroxy-ethyl]-3',4',5',7-tetrahydroxy-6-methylol-spiro[4,6,7,7a-tetrahydro-3aH-[1,3]dioxolo[4,5-c]pyran-2,2'-tetrahydropyran]-4-yl]oxy-4-amino-3-hydroxy-6-(methylamino)cyclohexyl] dihydrogen phosphate

> <PUBCHEM_IUPAC_INCHI>
InChI=1S/C20H38N3O16P/c1-23-7-2-5(21)9(26)15(14(7)39-40(31,32)33)35-19-17-16(10(27)8(4-25)34-19)37-20(38-17)18(30)12(29)11(28)13(36-20)6(22)3-24/h5-19,23-30H,2-4,21-22H2,1H3,(H2,31,32,33)/t5-,6+,7+,8-,9+,10+,11-,12+,13-,14-,15-,16+,17+,18-,19+,20?/m1/s1

> <PUBCHEM_IUPAC_INCHIKEY>
SYTZKXOAVUXHFS-MFXOAIQNSA-N

> <PUBCHEM_XLOGP3_AA>
-9.9

> <PUBCHEM_EXACT_MASS>
607.198969

> <PUBCHEM_MOLECULAR_FORMULA>
C20H38N3O16P

> <PUBCHEM_MOLECULAR_WEIGHT>
607.499982

> <PUBCHEM_OPENEYE_CAN_SMILES>
CNC1CC(C(C(C1OP(=O)(O)O)OC2C3C(C(C(O2)CO)O)OC4(O3)C(C(C(C(O4)C(CO)N)O)O)O)O)N

> <PUBCHEM_OPENEYE_ISO_SMILES>
CN[C@H]1C[C@H]([C@@H]([C@H]([C@@H]1OP(=O)(O)O)O[C@H]2[C@@H]3[C@H]([C@H]([C@H](O2)CO)O)OC4(O3)[C@@H]([C@H]([C@H]([C@H](O4)[C@H](CO)N)O)O)O)O)N

> <PUBCHEM_CACTVS_TPSA>
319

> <PUBCHEM_MONOISOTOPIC_WEIGHT>
607.198969

> <PUBCHEM_TOTAL_CHARGE>
0

> <PUBCHEM_HEAVY_ATOM_COUNT>
40

> <PUBCHEM_ATOM_DEF_STEREO_COUNT>
15

> <PUBCHEM_ATOM_UDEF_STEREO_COUNT>
1

> <PUBCHEM_BOND_DEF_STEREO_COUNT>
0

> <PUBCHEM_BOND_UDEF_STEREO_COUNT>
0

> <PUBCHEM_ISOTOPIC_ATOM_COUNT>
0

> <PUBCHEM_COMPONENT_COUNT>
1

> <PUBCHEM_CACTVS_TAUTO_COUNT>
1

> <PUBCHEM_COORDINATE_TYPE>
1
5
255

> <PUBCHEM_BONDANNOTATIONS>
30  10  5
32  11  5
34  12  5
33  18  6
35  19  6
37  20  5
21  41  6
22  42  6
28  38  5
23  3  3
31  50  6
24  4  5
27  4  6
25  7  5
26  8  6
29  9  5

$$$$

