   Color/Form

     * CRYSTALS FROM ABSOLUTE ALCOHOL-LIGROIN, PRISMS FROM ALCOHOL,
       NEEDLES FROM ETHER-LIGROIN
     * Colorless, crystalline powder
     * WHITE PLATELETS

   from [1]HSDB

   Odor

     * SLIGHT AROMATIC ODOR RESEMBLING PHENOL
     * Odorless
     * Phenol-like odor.

   from [2]HSDB

   Boiling Point
        245 deg C @ 11 mm Hg
   from [3]HSDB

   Melting Point
        49-50 deg C
   from [4]HSDB

   Density/Specific Gravity
        1.2055 @ 50 deg C/4 deg C
   from [5]HSDB

   Octanol/Water Partition Coefficient
        log Kow = 4.59
   from [6]HSDB

   Solubilities

     * 0.002% SOL IN WATER @ 54 DEG C; PRACTICALLY INSOL IN PETROL
     * VERY SOL IN CARBON TETRACHLORIDE
     * Sol in most lacquers, solvents, thinners, oils
     * In water, 1.9 mg/l @ 25 deg C
     * Soluble in alcohol, benzene, ether, chloroform, and acetone.

   from [7]HSDB

   Spectral Properties

     * Index of refraction: 1.550 @ 60 deg C
     * Intense mass spectral peaks: 65 m/z (100%), 77 m/z (83%), 326 m/z
       (67%), 325 m/z (62%)
     * IR: 18528 (Sadtler Research Laboratories IR Grating Collection)
     * UV: 3-682 (Organic Electronic Spectral Data, Phillips et al, John
       Wiley & Sons, New York)
     * NMR: 10231 (Sadtler Research Laboratories Spectral Collection)
     * MASS: 26529 (NIST/EPA/MSDC Mass Spectra Database, 1990 Version)

   from [8]HSDB

   Vapor Density
        1.19 (Air= 1)
   from [9]HSDB

   Vapor Pressure
        6.28X10-6 mm Hg @ 25 deg C
   from [10]HSDB

   Other Chemical/Physical Properties

     * 13.32 MG/CU M= APPROX 1 PPM
     * bulk density: 10.5 lb/gal

   from [11]HSDB

   Computed Properties
   Molecular Weight                  326.283062 [g/mol]
   Molecular Formula                 C[18]H[15]O[4]P
   XLogP3                            4.6
   H-Bond Donor                      0
   H-Bond Acceptor                   4
   Rotatable Bond Count              6
   Exact Mass                        326.070796
   MonoIsotopic Mass                 326.070796
   Topological Polar Surface Area    44.8
   Heavy Atom Count                  23
   Formal Charge                     0
   Complexity                        325
   Isotope Atom Count                0
   Defined Atom Stereocenter Count   0
   Undefined Atom Stereocenter Count 0
   Defined Bond Stereocenter Count   0
   Undefined Bond Stereocenter Count 0
   Covalently-Bonded Unit Count      1
   Feature 3D Acceptor Count         1
   Feature 3D Ring Count             3
   Effective Rotor Count             6
   Conformer Sampling RMSD           0.8
   CID Conformer Count               [12]19

References

   1. http://toxnet.nlm.nih.gov/cgi-bin/sis/search/r?dbs+hsdb:@term+@rn+@rel+115-86-6
   2. http://toxnet.nlm.nih.gov/cgi-bin/sis/search/r?dbs+hsdb:@term+@rn+@rel+115-86-6
   3. http://toxnet.nlm.nih.gov/cgi-bin/sis/search/r?dbs+hsdb:@term+@rn+@rel+115-86-6
   4. http://toxnet.nlm.nih.gov/cgi-bin/sis/search/r?dbs+hsdb:@term+@rn+@rel+115-86-6
   5. http://toxnet.nlm.nih.gov/cgi-bin/sis/search/r?dbs+hsdb:@term+@rn+@rel+115-86-6
   6. http://toxnet.nlm.nih.gov/cgi-bin/sis/search/r?dbs+hsdb:@term+@rn+@rel+115-86-6
   7. http://toxnet.nlm.nih.gov/cgi-bin/sis/search/r?dbs+hsdb:@term+@rn+@rel+115-86-6
   8. http://toxnet.nlm.nih.gov/cgi-bin/sis/search/r?dbs+hsdb:@term+@rn+@rel+115-86-6
   9. http://toxnet.nlm.nih.gov/cgi-bin/sis/search/r?dbs+hsdb:@term+@rn+@rel+115-86-6
  10. http://toxnet.nlm.nih.gov/cgi-bin/sis/search/r?dbs+hsdb:@term+@rn+@rel+115-86-6
  11. http://toxnet.nlm.nih.gov/cgi-bin/sis/search/r?dbs+hsdb:@term+@rn+@rel+115-86-6
  12. http://pubchem.ncbi.nlm.nih.gov/vw3d/vw3d.cgi?cid=8289
