   Color/Form

     * WHITE OR PRACTICALLY WHITE CRYSTALLINE POWDER
     * Crystals

   from [1]HSDB

   Melting Point
        128.5-129.5 deg C
   from [2]HSDB

   Density/Specific Gravity
        1.245 g/cu cm @ 25 deg C
   from [3]HSDB

   Dissociation Constants
        pKa= 5.16
   from [4]HSDB

   Octanol/Water Partition Coefficient
        log Kow= 2.34
   from [5]HSDB

   Solubilities

     * DISSOLVES READILY IN AQ NAOH TO FORM SODIUM DERIV
     * SOL IN ETHANOL, CHLOROFORM; FREELY IN DIMETHYL CARBONATE; INSOL IN
       WATER
     * Sol in ethanol, ethyl ether, and chloroform.
     * In water, 109 mg/l @ 37 deg C

   from [6]HSDB

   Spectral Properties

     * MAX ABSORPTION (ACID): 229 & 263 NM (A= 503 & 27, 1%, 1 CM);
       (BASE): 226, 256, 262 & 274 NM (A= 405, 23, 22 & 21, 1%, 1 CM)
     * IR: 3486 (Coblentz Society Spectral Collection)
     * UV: 5797 (Sadtler Research Laboratories Spectral Collection)
     * NMR: 602 (Varian Associates NMR Spectra Catalogue)

   from [7]HSDB

   Other Chemical/Physical Properties

     * PRACTICALLY ODORLESS; HAS SLIGHTLY BITTER TASTE /SODIUM SALT/
     * MP: 41-43 deg C; when anhyd, mp range is 130-133 deg C /Sodium salt
       tetrahydrate/
     * SOL IN ALC & CHLOROFORM; FREELY SOL IN WATER; VERY SLIGHTLY SOL IN
       ETHER /SODIUM SALT/

   from [8]HSDB

   Computed Properties
   Molecular Weight                  270.34792 [g/mol]
   Molecular Formula                 C[12]H[18]N[2]O[3]S
   XLogP3                            2.3
   H-Bond Donor                      2
   H-Bond Acceptor                   3
   Rotatable Bond Count              5
   Tautomer Count                    3
   Exact Mass                        270.103813
   MonoIsotopic Mass                 270.103813
   Topological Polar Surface Area    83.6
   Heavy Atom Count                  18
   Formal Charge                     0
   Complexity                        354
   Isotope Atom Count                0
   Defined Atom Stereocenter Count   0
   Undefined Atom Stereocenter Count 0
   Defined Bond Stereocenter Count   0
   Undefined Bond Stereocenter Count 0
   Covalently-Bonded Unit Count      1
   Feature 3D Acceptor Count         3
   Feature 3D Donor Count            2
   Feature 3D Hydrophobe Count       1
   Feature 3D Ring Count             1
   Effective Rotor Count             7
   Conformer Sampling RMSD           0.8
   CID Conformer Count               [9]72

References

   1. http://toxnet.nlm.nih.gov/cgi-bin/sis/search/r?dbs+hsdb:@term+@rn+@rel+64-77-7
   2. http://toxnet.nlm.nih.gov/cgi-bin/sis/search/r?dbs+hsdb:@term+@rn+@rel+64-77-7
   3. http://toxnet.nlm.nih.gov/cgi-bin/sis/search/r?dbs+hsdb:@term+@rn+@rel+64-77-7
   4. http://toxnet.nlm.nih.gov/cgi-bin/sis/search/r?dbs+hsdb:@term+@rn+@rel+64-77-7
   5. http://toxnet.nlm.nih.gov/cgi-bin/sis/search/r?dbs+hsdb:@term+@rn+@rel+64-77-7
   6. http://toxnet.nlm.nih.gov/cgi-bin/sis/search/r?dbs+hsdb:@term+@rn+@rel+64-77-7
   7. http://toxnet.nlm.nih.gov/cgi-bin/sis/search/r?dbs+hsdb:@term+@rn+@rel+64-77-7
   8. http://toxnet.nlm.nih.gov/cgi-bin/sis/search/r?dbs+hsdb:@term+@rn+@rel+64-77-7
   9. http://pubchem.ncbi.nlm.nih.gov/vw3d/vw3d.cgi?cid=5505
