10522005
  -OEChem-07051213082D

 48 50  0     1  0  0  0  0  0999 V2000
    6.1346    2.7969    0.0000 O   0  0  0  0  0  0  0  0  0  0  0  0
    8.4806    1.7050    0.0000 O   0  0  0  0  0  0  0  0  0  0  0  0
    8.4843    3.8806    0.0000 O   0  0  0  0  0  0  0  0  0  0  0  0
    7.0868    5.2984    0.0000 O   0  0  0  0  0  0  0  0  0  0  0  0
    2.0000   -5.2684    0.0000 O   0  0  0  0  0  0  0  0  0  0  0  0
    6.4103    1.0363    0.0000 N   0  0  0  0  0  0  0  0  0  0  0  0
    6.4103   -0.5732    0.0000 N   0  0  0  0  0  0  0  0  0  0  0  0
    4.5981    1.2316    0.0000 N   0  0  0  0  0  0  0  0  0  0  0  0
    4.5981   -1.7684    0.0000 N   0  0  0  0  0  0  0  0  0  0  0  0
    3.7320   -0.2684    0.0000 N   0  0  0  0  0  0  0  0  0  0  0  0
    7.6726    2.2942    0.0000 C   0  0  1  0  0  0  0  0  0  0  0  0
    6.7210    1.9868    0.0000 C   0  0  1  0  0  0  0  0  0  0  0  0
    7.6743    3.2942    0.0000 C   0  0  1  0  0  0  0  0  0  0  0  0
    6.7238    3.6049    0.0000 C   0  0  1  0  0  0  0  0  0  0  0  0
    6.4164    4.5564    0.0000 C   0  0  0  0  0  0  0  0  0  0  0  0
    5.4641    0.7316    0.0000 C   0  0  0  0  0  0  0  0  0  0  0  0
    6.9939    0.2316    0.0000 C   0  0  0  0  0  0  0  0  0  0  0  0
    5.4641   -0.2684    0.0000 C   0  0  0  0  0  0  0  0  0  0  0  0
    4.5981   -0.7684    0.0000 C   0  0  0  0  0  0  0  0  0  0  0  0
    3.7320   -3.2684    0.0000 C   0  0  0  0  0  0  0  0  0  0  0  0
    2.8660   -3.7684    0.0000 C   0  0  3  0  0  0  0  0  0  0  0  0
    3.7320   -2.2684    0.0000 C   0  0  0  0  0  0  0  0  0  0  0  0
    2.8660   -4.7684    0.0000 C   0  0  0  0  0  0  0  0  0  0  0  0
    2.0000   -3.2684    0.0000 C   0  0  0  0  0  0  0  0  0  0  0  0
    3.7320    0.7316    0.0000 C   0  0  0  0  0  0  0  0  0  0  0  0
    8.2255    2.5747    0.0000 H   0  0  0  0  0  0  0  0  0  0  0  0
    6.1085    1.8909    0.0000 H   0  0  0  0  0  0  0  0  0  0  0  0
    7.5784    3.9067    0.0000 H   0  0  0  0  0  0  0  0  0  0  0  0
    6.1116    3.7029    0.0000 H   0  0  0  0  0  0  0  0  0  0  0  0
    6.0356    5.0457    0.0000 H   0  0  0  0  0  0  0  0  0  0  0  0
    5.8685    4.2663    0.0000 H   0  0  0  0  0  0  0  0  0  0  0  0
    9.0474    1.9562    0.0000 H   0  0  0  0  0  0  0  0  0  0  0  0
    9.0503    3.6274    0.0000 H   0  0  0  0  0  0  0  0  0  0  0  0
    7.6139    0.2316    0.0000 H   0  0  0  0  0  0  0  0  0  0  0  0
    3.9441   -3.8510    0.0000 H   0  0  0  0  0  0  0  0  0  0  0  0
    4.3426   -3.1608    0.0000 H   0  0  0  0  0  0  0  0  0  0  0  0
    2.8660   -2.9184    0.0000 H   0  0  0  0  0  0  0  0  0  0  0  0
    3.5200   -1.6858    0.0000 H   0  0  0  0  0  0  0  0  0  0  0  0
    3.1215   -2.3761    0.0000 H   0  0  0  0  0  0  0  0  0  0  0  0
    6.8963    5.8884    0.0000 H   0  0  0  0  0  0  0  0  0  0  0  0
    5.1350   -2.0784    0.0000 H   0  0  0  0  0  0  0  0  0  0  0  0
    3.0781   -5.3510    0.0000 H   0  0  0  0  0  0  0  0  0  0  0  0
    3.4766   -4.6608    0.0000 H   0  0  0  0  0  0  0  0  0  0  0  0
    2.3100   -2.7315    0.0000 H   0  0  0  0  0  0  0  0  0  0  0  0
    1.4631   -2.9584    0.0000 H   0  0  0  0  0  0  0  0  0  0  0  0
    1.6900   -3.8054    0.0000 H   0  0  0  0  0  0  0  0  0  0  0  0
    3.1951    1.0416    0.0000 H   0  0  0  0  0  0  0  0  0  0  0  0
    2.0000   -5.8884    0.0000 H   0  0  0  0  0  0  0  0  0  0  0  0
  1 12  1  0  0  0  0
  1 14  1  0  0  0  0
 11  2  1  1  0  0  0
  2 32  1  0  0  0  0
 13  3  1  1  0  0  0
  3 33  1  0  0  0  0
  4 15  1  0  0  0  0
  4 40  1  0  0  0  0
  5 23  1  0  0  0  0
  5 48  1  0  0  0  0
 12  6  1  6  0  0  0
  6 16  1  0  0  0  0
  6 17  1  0  0  0  0
  7 17  2  0  0  0  0
  7 18  1  0  0  0  0
  8 16  1  0  0  0  0
  8 25  2  0  0  0  0
  9 19  1  0  0  0  0
  9 22  1  0  0  0  0
  9 41  1  0  0  0  0
 10 19  2  0  0  0  0
 10 25  1  0  0  0  0
 11 12  1  0  0  0  0
 11 13  1  0  0  0  0
 11 26  1  0  0  0  0
 12 27  1  0  0  0  0
 13 14  1  0  0  0  0
 13 28  1  0  0  0  0
 14 15  1  6  0  0  0
 14 29  1  0  0  0  0
 15 30  1  0  0  0  0
 15 31  1  0  0  0  0
 16 18  2  0  0  0  0
 17 34  1  0  0  0  0
 18 19  1  0  0  0  0
 20 21  1  0  0  0  0
 20 22  1  0  0  0  0
 20 35  1  0  0  0  0
 20 36  1  0  0  0  0
 21 23  1  0  0  0  0
 21 24  1  0  0  0  0
 21 37  1  0  0  0  0
 22 38  1  0  0  0  0
 22 39  1  0  0  0  0
 23 42  1  0  0  0  0
 23 43  1  0  0  0  0
 24 44  1  0  0  0  0
 24 45  1  0  0  0  0
 24 46  1  0  0  0  0
 25 47  1  0  0  0  0
M  END
> <PUBCHEM_COMPOUND_CID>
10522005

> <PUBCHEM_COMPOUND_CANONICALIZED>
1

> <PUBCHEM_CACTVS_COMPLEXITY>
433

> <PUBCHEM_CACTVS_HBOND_ACCEPTOR>
9

> <PUBCHEM_CACTVS_HBOND_DONOR>
5

> <PUBCHEM_CACTVS_ROTATABLE_BOND>
7

> <PUBCHEM_CACTVS_SUBSKEYS>
AAADceBzuAAAAAAAAAAAAAAAAAAAAWJAAAAsAAAAAAAAAFgB+AAAHgAQCAAADRzhlwYH8L/MFgCgAQZhZACAgC0REKABUKAoVBCDWAJAyEAeRAgPEALTACDwMAIIAAAAAAAAAAAAAAAAAAAAAAAAAAAAAA==

> <PUBCHEM_IUPAC_OPENEYE_NAME>
(2R,3S,4R,5R)-2-(hydroxymethyl)-5-[6-[(4-hydroxy-3-methyl-butyl)amino]purin-9-yl]tetrahydrofuran-3,4-diol

> <PUBCHEM_IUPAC_CAS_NAME>
(2R,3S,4R,5R)-2-(hydroxymethyl)-5-[6-[(4-hydroxy-3-methylbutyl)amino]-9-purinyl]oxolane-3,4-diol

> <PUBCHEM_IUPAC_NAME>
(2R,3S,4R,5R)-2-(hydroxymethyl)-5-[6-[(4-hydroxy-3-methylbutyl)amino]purin-9-yl]oxolane-3,4-diol

> <PUBCHEM_IUPAC_SYSTEMATIC_NAME>
(2R,3S,4R,5R)-2-(hydroxymethyl)-5-[6-[(3-methyl-4-oxidanyl-butyl)amino]purin-9-yl]oxolane-3,4-diol

> <PUBCHEM_IUPAC_TRADITIONAL_NAME>
(2R,3R,4S,5R)-2-[6-[(4-hydroxy-3-methyl-butyl)amino]purin-9-yl]-5-methylol-tetrahydrofuran-3,4-diol

> <PUBCHEM_IUPAC_INCHI>
InChI=1S/C15H23N5O5/c1-8(4-21)2-3-16-13-10-14(18-6-17-13)20(7-19-10)15-12(24)11(23)9(5-22)25-15/h6-9,11-12,15,21-24H,2-5H2,1H3,(H,16,17,18)/t8?,9-,11-,12-,15-/m1/s1

> <PUBCHEM_IUPAC_INCHIKEY>
DBVVQDGIJAUEAZ-YXYADJKSSA-N

> <PUBCHEM_XLOGP3>
0.1

> <PUBCHEM_EXACT_MASS>
353.169919

> <PUBCHEM_MOLECULAR_FORMULA>
C15H23N5O5

> <PUBCHEM_MOLECULAR_WEIGHT>
353.37362

> <PUBCHEM_OPENEYE_CAN_SMILES>
CC(CCNC1=NC=NC2=C1N=CN2C3C(C(C(O3)CO)O)O)CO

> <PUBCHEM_OPENEYE_ISO_SMILES>
CC(CCNC1=NC=NC2=C1N=CN2[C@H]3[C@@H]([C@@H]([C@H](O3)CO)O)O)CO

> <PUBCHEM_CACTVS_TPSA>
146

> <PUBCHEM_MONOISOTOPIC_WEIGHT>
353.169919

> <PUBCHEM_TOTAL_CHARGE>
0

> <PUBCHEM_HEAVY_ATOM_COUNT>
25

> <PUBCHEM_ATOM_DEF_STEREO_COUNT>
4

> <PUBCHEM_ATOM_UDEF_STEREO_COUNT>
1

> <PUBCHEM_BOND_DEF_STEREO_COUNT>
0

> <PUBCHEM_BOND_UDEF_STEREO_COUNT>
0

> <PUBCHEM_ISOTOPIC_ATOM_COUNT>
0

> <PUBCHEM_COMPONENT_COUNT>
1

> <PUBCHEM_CACTVS_TAUTO_COUNT>
3

> <PUBCHEM_COORDINATE_TYPE>
1
5
255

> <PUBCHEM_BONDANNOTATIONS>
10  19  8
10  25  8
14  15  6
16  18  8
18  19  8
11  2  5
21  37  3
13  3  5
12  6  6
6  16  8
6  17  8
7  17  8
7  18  8
8  16  8
8  25  8

$$$$

