72881
  -OEChem-07051213062D

 14 14  0     0  0  0  0  0  0999 V2000
    3.0000    0.6144    0.0000 S   0  0  0  0  0  0  0  0  0  0  0  0
    3.8090   -0.9734    0.0000 S   0  0  0  0  0  0  0  0  0  0  0  0
    4.0000    0.6144    0.0000 O   0  0  0  0  0  0  0  0  0  0  0  0
    2.0000    0.6144    0.0000 O   0  0  0  0  0  0  0  0  0  0  0  0
    3.0000    1.6144    0.0000 N   0  0  0  0  0  0  0  0  0  0  0  0
    3.0000   -0.3856    0.0000 C   0  0  0  0  0  0  0  0  0  0  0  0
    2.1910   -0.9734    0.0000 C   0  0  0  0  0  0  0  0  0  0  0  0
    2.5000   -1.9244    0.0000 C   0  0  0  0  0  0  0  0  0  0  0  0
    3.5000   -1.9244    0.0000 C   0  0  0  0  0  0  0  0  0  0  0  0
    1.6013   -0.7818    0.0000 H   0  0  0  0  0  0  0  0  0  0  0  0
    2.1356   -2.4260    0.0000 H   0  0  0  0  0  0  0  0  0  0  0  0
    3.8644   -2.4260    0.0000 H   0  0  0  0  0  0  0  0  0  0  0  0
    3.5369    1.9244    0.0000 H   0  0  0  0  0  0  0  0  0  0  0  0
    2.4631    1.9244    0.0000 H   0  0  0  0  0  0  0  0  0  0  0  0
  1  3  2  0  0  0  0
  1  4  2  0  0  0  0
  1  5  1  0  0  0  0
  1  6  1  0  0  0  0
  2  6  1  0  0  0  0
  2  9  1  0  0  0  0
  5 13  1  0  0  0  0
  5 14  1  0  0  0  0
  6  7  2  0  0  0  0
  7  8  1  0  0  0  0
  7 10  1  0  0  0  0
  8  9  2  0  0  0  0
  8 11  1  0  0  0  0
  9 12  1  0  0  0  0
M  END
> <PUBCHEM_COMPOUND_CID>
72881

> <PUBCHEM_COMPOUND_CANONICALIZED>
1

> <PUBCHEM_CACTVS_COMPLEXITY>
181

> <PUBCHEM_CACTVS_HBOND_ACCEPTOR>
4

> <PUBCHEM_CACTVS_HBOND_DONOR>
1

> <PUBCHEM_CACTVS_ROTATABLE_BOND>
1

> <PUBCHEM_CACTVS_SUBSKEYS>
AAADcYBiMABgAAAAAAAAAAAAAAAAASAAAAAAAAAAAAAAAAABgAAAGAQQQAAACACEUACwAYAAAAqEACBCAHBDAZAgCBBIiBgAAIgIIAAgAQAAAAAAAAAgAAAAAAAAAAAAAAAAAAAAAAAAAAAAAAAAAAAAAA==

> <PUBCHEM_IUPAC_OPENEYE_NAME>
thiophene-2-sulfonamide

> <PUBCHEM_IUPAC_CAS_NAME>
2-thiophenesulfonamide

> <PUBCHEM_IUPAC_NAME>
thiophene-2-sulfonamide

> <PUBCHEM_IUPAC_SYSTEMATIC_NAME>
thiophene-2-sulfonamide

> <PUBCHEM_IUPAC_TRADITIONAL_NAME>
thiophene-2-sulfonamide

> <PUBCHEM_IUPAC_INCHI>
InChI=1S/C4H5NO2S2/c5-9(6,7)4-2-1-3-8-4/h1-3H,(H2,5,6,7)

> <PUBCHEM_IUPAC_INCHIKEY>
KTFDYVNEGTXQCV-UHFFFAOYSA-N

> <PUBCHEM_XLOGP3>
-0.3

> <PUBCHEM_EXACT_MASS>
162.97617

> <PUBCHEM_MOLECULAR_FORMULA>
C4H5NO2S2

> <PUBCHEM_MOLECULAR_WEIGHT>
163.218

> <PUBCHEM_OPENEYE_CAN_SMILES>
C1=CSC(=C1)S(=O)(=O)N

> <PUBCHEM_OPENEYE_ISO_SMILES>
C1=CSC(=C1)S(=O)(=O)N

> <PUBCHEM_CACTVS_TPSA>
96.8

> <PUBCHEM_MONOISOTOPIC_WEIGHT>
162.97617

> <PUBCHEM_TOTAL_CHARGE>
0

> <PUBCHEM_HEAVY_ATOM_COUNT>
9

> <PUBCHEM_ATOM_DEF_STEREO_COUNT>
0

> <PUBCHEM_ATOM_UDEF_STEREO_COUNT>
0

> <PUBCHEM_BOND_DEF_STEREO_COUNT>
0

> <PUBCHEM_BOND_UDEF_STEREO_COUNT>
0

> <PUBCHEM_ISOTOPIC_ATOM_COUNT>
0

> <PUBCHEM_COMPONENT_COUNT>
1

> <PUBCHEM_CACTVS_TAUTO_COUNT>
1

> <PUBCHEM_COORDINATE_TYPE>
1
5
255

> <PUBCHEM_BONDANNOTATIONS>
2  6  8
2  9  8
6  7  8
7  8  8
8  9  8

$$$$

