5284595
  -OEChem-07051213022D

 44 48  0     1  0  0  0  0  0999 V2000
    2.2314    0.0528    0.0000 O   0  0  0  0  0  0  0  0  0  0  0  0
    2.0000   -2.4021    0.0000 O   0  0  0  0  0  0  0  0  0  0  0  0
    2.0000    2.4021    0.0000 O   0  0  0  0  0  0  0  0  0  0  0  0
    6.1607   -0.9511    0.0000 N   0  0  3  0  0  0  0  0  0  0  0  0
    3.6897   -0.4755    0.0000 C   0  0  1  0  0  0  0  0  0  0  0  0
    4.5133   -0.9511    0.0000 C   0  0  2  0  0  0  0  0  0  0  0  0
    5.3370   -0.4755    0.0000 C   0  0  1  0  0  0  0  0  0  0  0  0
    2.8660   -0.9511    0.0000 C   0  0  2  0  0  0  0  0  0  0  0  0
    4.2392    0.2219    0.0000 C   0  0  0  0  0  0  0  0  0  0  0  0
    3.6897    0.4755    0.0000 C   0  0  0  0  0  0  0  0  0  0  0  0
    5.3370    0.4755    0.0000 C   0  0  0  0  0  0  0  0  0  0  0  0
    5.5918    0.2219    0.0000 C   0  0  0  0  0  0  0  0  0  0  0  0
    4.5133    0.9511    0.0000 C   0  0  0  0  0  0  0  0  0  0  0  0
    2.8660   -1.9022    0.0000 C   0  0  2  0  0  0  0  0  0  0  0  0
    4.5133   -1.9022    0.0000 C   0  0  0  0  0  0  0  0  0  0  0  0
    2.8660    0.9511    0.0000 C   0  0  0  0  0  0  0  0  0  0  0  0
    3.6897   -2.3777    0.0000 C   0  0  0  0  0  0  0  0  0  0  0  0
    6.8418   -1.6832    0.0000 C   0  0  0  0  0  0  0  0  0  0  0  0
    4.5133    1.9022    0.0000 C   0  0  0  0  0  0  0  0  0  0  0  0
    2.8660    1.9022    0.0000 C   0  0  0  0  0  0  0  0  0  0  0  0
    3.6897    2.3777    0.0000 C   0  0  0  0  0  0  0  0  0  0  0  0
    7.8164   -1.4594    0.0000 C   0  0  0  0  0  0  0  0  0  0  0  0
    8.4976   -2.1915    0.0000 C   0  0  0  0  0  0  0  0  0  0  0  0
    5.0597   -1.6022    0.0000 H   0  0  0  0  0  0  0  0  0  0  0  0
    5.6284   -1.2740    0.0000 H   0  0  0  0  0  0  0  0  0  0  0  0
    2.0496   -1.1875    0.0000 H   0  0  0  0  0  0  0  0  0  0  0  0
    4.3760    0.8266    0.0000 H   0  0  0  0  0  0  0  0  0  0  0  0
    3.6795    0.4887    0.0000 H   0  0  0  0  0  0  0  0  0  0  0  0
    5.9476    0.3679    0.0000 H   0  0  0  0  0  0  0  0  0  0  0  0
    5.5490    1.0581    0.0000 H   0  0  0  0  0  0  0  0  0  0  0  0
    6.1840    0.4057    0.0000 H   0  0  0  0  0  0  0  0  0  0  0  0
    5.4989    0.8349    0.0000 H   0  0  0  0  0  0  0  0  0  0  0  0
    2.8660   -2.5222    0.0000 H   0  0  0  0  0  0  0  0  0  0  0  0
    5.0503   -2.2122    0.0000 H   0  0  0  0  0  0  0  0  0  0  0  0
    3.6897   -2.9977    0.0000 H   0  0  0  0  0  0  0  0  0  0  0  0
    6.3215   -2.0203    0.0000 H   0  0  0  0  0  0  0  0  0  0  0  0
    7.0834   -2.2542    0.0000 H   0  0  0  0  0  0  0  0  0  0  0  0
    5.0503    2.2122    0.0000 H   0  0  0  0  0  0  0  0  0  0  0  0
    3.6897    2.9977    0.0000 H   0  0  0  0  0  0  0  0  0  0  0  0
    2.0000   -3.0222    0.0000 H   0  0  0  0  0  0  0  0  0  0  0  0
    7.9984   -0.8667    0.0000 H   0  0  0  0  0  0  0  0  0  0  0  0
    2.0000    3.0222    0.0000 H   0  0  0  0  0  0  0  0  0  0  0  0
    8.3157   -2.7842    0.0000 H   0  0  0  0  0  0  0  0  0  0  0  0
    9.1019   -2.0527    0.0000 H   0  0  0  0  0  0  0  0  0  0  0  0
  1  8  1  0  0  0  0
  1 16  1  0  0  0  0
 14  2  1  6  0  0  0
  2 40  1  0  0  0  0
  3 20  1  0  0  0  0
  3 42  1  0  0  0  0
  4  7  1  0  0  0  0
  4 12  1  0  0  0  0
  4 18  1  0  0  0  0
  5  6  1  0  0  0  0
  5  8  1  0  0  0  0
  5  9  1  1  0  0  0
  5 10  1  0  0  0  0
  6  7  1  0  0  0  0
  6 15  1  0  0  0  0
  6 24  1  1  0  0  0
  7 11  1  0  0  0  0
  7 25  1  6  0  0  0
  8 14  1  0  0  0  0
  8 26  1  1  0  0  0
  9 12  1  0  0  0  0
  9 27  1  0  0  0  0
  9 28  1  0  0  0  0
 10 13  2  0  0  0  0
 10 16  1  0  0  0  0
 11 13  1  0  0  0  0
 11 29  1  0  0  0  0
 11 30  1  0  0  0  0
 12 31  1  0  0  0  0
 12 32  1  0  0  0  0
 13 19  1  0  0  0  0
 14 17  1  0  0  0  0
 14 33  1  0  0  0  0
 15 17  2  0  0  0  0
 15 34  1  0  0  0  0
 16 20  2  0  0  0  0
 17 35  1  0  0  0  0
 18 22  1  0  0  0  0
 18 36  1  0  0  0  0
 18 37  1  0  0  0  0
 19 21  2  0  0  0  0
 19 38  1  0  0  0  0
 20 21  1  0  0  0  0
 21 39  1  0  0  0  0
 22 23  2  0  0  0  0
 22 41  1  0  0  0  0
 23 43  1  0  0  0  0
 23 44  1  0  0  0  0
M  END
> <PUBCHEM_COMPOUND_CID>
5284595

> <PUBCHEM_COMPOUND_CANONICALIZED>
1

> <PUBCHEM_CACTVS_COMPLEXITY>
549

> <PUBCHEM_CACTVS_HBOND_ACCEPTOR>
4

> <PUBCHEM_CACTVS_HBOND_DONOR>
2

> <PUBCHEM_CACTVS_ROTATABLE_BOND>
2

> <PUBCHEM_CACTVS_SUBSKEYS>
AAADceB6MAAAAAAAAAAAAAAAAAAAASAAAAA8YIEAAAAWAEjBAAAAHgAACAAADzzhmAYwBoMABgCAAiBCAACCCAAgIAAIiAAOiIgNNiKGsRuGeCOkwBGLuAew8PcPoAABAAAYQADQAAaAADSAAAAAAAAAAA==

> <PUBCHEM_IUPAC_OPENEYE_NAME>
(4R,4aR,7S,7aR,12bS)-3-allyl-2,4,4a,7,7a,13-hexahydro-1H-4,12-methanobenzofuro[3,2-e]isoquinoline-7,9-diol

> <PUBCHEM_IUPAC_CAS_NAME>
(4R,4aR,7S,7aR,12bS)-3-prop-2-enyl-2,4,4a,7,7a,13-hexahydro-1H-4,12-methanobenzofuro[3,2-e]isoquinoline-7,9-diol

> <PUBCHEM_IUPAC_NAME>
(4R,4aR,7S,7aR,12bS)-3-prop-2-enyl-2,4,4a,7,7a,13-hexahydro-1H-4,12-methanobenzofuro[3,2-e]isoquinoline-7,9-diol

> <PUBCHEM_IUPAC_SYSTEMATIC_NAME>
(4R,4aR,7S,7aR,12bS)-3-prop-2-enyl-2,4,4a,7,7a,13-hexahydro-1H-4,12-methanobenzofuro[3,2-e]isoquinoline-7,9-diol

> <PUBCHEM_IUPAC_TRADITIONAL_NAME>
(4R,4aR,7S,7aR,12bS)-3-allyl-2,4,4a,7,7a,13-hexahydro-1H-4,12-methanobenzofuro[3,2-e]isoquinoline-7,9-diol

> <PUBCHEM_IUPAC_INCHI>
InChI=1S/C19H21NO3/c1-2-8-20-9-7-19-12-4-6-15(22)18(19)23-17-14(21)5-3-11(16(17)19)10-13(12)20/h2-6,12-13,15,18,21-22H,1,7-10H2/t12-,13+,15-,18-,19-/m0/s1

> <PUBCHEM_IUPAC_INCHIKEY>
UIQMVEYFGZJHCZ-SSTWWWIQSA-N

> <PUBCHEM_XLOGP3>
1.9

> <PUBCHEM_EXACT_MASS>
311.152144

> <PUBCHEM_MOLECULAR_FORMULA>
C19H21NO3

> <PUBCHEM_MOLECULAR_WEIGHT>
311.37494

> <PUBCHEM_OPENEYE_CAN_SMILES>
C=CCN1CCC23C4C1CC5=C2C(=C(C=C5)O)OC3C(C=C4)O

> <PUBCHEM_OPENEYE_ISO_SMILES>
C=CCN1CC[C@]23[C@@H]4[C@H]1CC5=C2C(=C(C=C5)O)O[C@H]3[C@H](C=C4)O

> <PUBCHEM_CACTVS_TPSA>
52.9

> <PUBCHEM_MONOISOTOPIC_WEIGHT>
311.152144

> <PUBCHEM_TOTAL_CHARGE>
0

> <PUBCHEM_HEAVY_ATOM_COUNT>
23

> <PUBCHEM_ATOM_DEF_STEREO_COUNT>
5

> <PUBCHEM_ATOM_UDEF_STEREO_COUNT>
0

> <PUBCHEM_BOND_DEF_STEREO_COUNT>
0

> <PUBCHEM_BOND_UDEF_STEREO_COUNT>
0

> <PUBCHEM_ISOTOPIC_ATOM_COUNT>
0

> <PUBCHEM_COMPONENT_COUNT>
1

> <PUBCHEM_CACTVS_TAUTO_COUNT>
2

> <PUBCHEM_COORDINATE_TYPE>
1
5
255

> <PUBCHEM_BONDANNOTATIONS>
10  13  8
10  16  8
13  19  8
16  20  8
19  21  8
14  2  6
20  21  8
5  9  5
6  24  5
7  25  6
8  26  5

$$$$

