5281500
  -OEChem-07051212572D

 69 72  0     1  0  0  0  0  0999 V2000
    5.0718   -1.9842    0.0000 O   0  0  0  0  0  0  0  0  0  0  0  0
    4.7671    2.0187    0.0000 O   0  0  0  0  0  0  0  0  0  0  0  0
    3.7248   -2.1877    0.0000 O   0  0  0  0  0  0  0  0  0  0  0  0
    7.6702    0.5132    0.0000 O   0  0  0  0  0  0  0  0  0  0  0  0
    5.5718    3.6023    0.0000 O   0  0  0  0  0  0  0  0  0  0  0  0
    2.0000   -2.0295    0.0000 O   0  0  0  0  0  0  0  0  0  0  0  0
    8.0557   -1.1754    0.0000 O   0  0  0  0  0  0  0  0  0  0  0  0
   10.9804   -0.5079    0.0000 O   0  0  0  0  0  0  0  0  0  0  0  0
   11.3659   -2.1965    0.0000 O   0  0  0  0  0  0  0  0  0  0  0  0
   13.9052    0.1597    0.0000 O   0  0  0  0  0  0  0  0  0  0  0  0
    5.5718   -1.1181    0.0000 C   0  0  1  0  0  0  0  0  0  0  0  0
    4.6709   -0.6843    0.0000 C   0  0  1  0  0  0  0  0  0  0  0  0
    4.4483    0.2907    0.0000 C   0  0  1  0  0  0  0  0  0  0  0  0
    6.4728   -0.6843    0.0000 C   0  0  0  0  0  0  0  0  0  0  0  0
    6.0718   -1.9842    0.0000 C   0  0  0  0  0  0  0  0  0  0  0  0
    5.0718    1.0725    0.0000 C   0  0  2  0  0  0  0  0  0  0  0  0
    6.0718    1.0725    0.0000 C   0  0  1  0  0  0  0  0  0  0  0  0
    3.8162   -1.1919    0.0000 C   0  0  1  0  0  0  0  0  0  0  0  0
    6.6953    0.2907    0.0000 C   0  0  2  0  0  0  0  0  0  0  0  0
    3.4580    0.3772    0.0000 C   0  0  0  0  0  0  0  0  0  0  0  0
    3.0681   -0.5372    0.0000 C   0  0  0  0  0  0  0  0  0  0  0  0
    6.3766    2.0187    0.0000 C   0  0  0  0  0  0  0  0  0  0  0  0
    2.9436    1.2348    0.0000 C   0  0  0  0  0  0  0  0  0  0  0  0
    5.5718    2.6023    0.0000 C   0  0  0  0  0  0  0  0  0  0  0  0
    7.3271    2.3294    0.0000 C   0  0  0  0  0  0  0  0  0  0  0  0
    2.8167   -2.6065    0.0000 C   0  0  0  0  0  0  0  0  0  0  0  0
    8.3504   -0.2199    0.0000 C   0  0  0  0  0  0  0  0  0  0  0  0
    2.7254   -3.6023    0.0000 C   0  0  0  0  0  0  0  0  0  0  0  0
    9.3253    0.0027    0.0000 C   0  0  0  0  0  0  0  0  0  0  0  0
   10.0055   -0.7304    0.0000 C   0  0  0  0  0  0  0  0  0  0  0  0
    9.6201    0.9582    0.0000 C   0  0  0  0  0  0  0  0  0  0  0  0
   10.5950    1.1808    0.0000 C   0  0  0  0  0  0  0  0  0  0  0  0
   11.6606   -1.2409    0.0000 C   0  0  0  0  0  0  0  0  0  0  0  0
   12.6355   -1.0184    0.0000 C   0  0  0  0  0  0  0  0  0  0  0  0
   12.9303   -0.0628    0.0000 C   0  0  0  0  0  0  0  0  0  0  0  0
   13.3157   -1.7515    0.0000 C   0  0  0  0  0  0  0  0  0  0  0  0
   14.2906   -1.5289    0.0000 C   0  0  0  0  0  0  0  0  0  0  0  0
    4.7079   -1.5334    0.0000 H   0  0  0  0  0  0  0  0  0  0  0  0
    4.1132    1.0718    0.0000 H   0  0  0  0  0  0  0  0  0  0  0  0
    6.6108   -1.2887    0.0000 H   0  0  0  0  0  0  0  0  0  0  0  0
    7.0928   -0.6843    0.0000 H   0  0  0  0  0  0  0  0  0  0  0  0
    6.1795   -2.5948    0.0000 H   0  0  0  0  0  0  0  0  0  0  0  0
    6.6544   -1.7721    0.0000 H   0  0  0  0  0  0  0  0  0  0  0  0
    4.2357    1.2254    0.0000 H   0  0  0  0  0  0  0  0  0  0  0  0
    6.9080    1.2254    0.0000 H   0  0  0  0  0  0  0  0  0  0  0  0
    3.2404   -1.4220    0.0000 H   0  0  0  0  0  0  0  0  0  0  0  0
    6.9001    0.8759    0.0000 H   0  0  0  0  0  0  0  0  0  0  0  0
    2.4637   -0.6752    0.0000 H   0  0  0  0  0  0  0  0  0  0  0  0
    3.4753    1.5537    0.0000 H   0  0  0  0  0  0  0  0  0  0  0  0
    2.6247    1.7664    0.0000 H   0  0  0  0  0  0  0  0  0  0  0  0
    2.4120    0.9158    0.0000 H   0  0  0  0  0  0  0  0  0  0  0  0
    7.7886    1.9153    0.0000 H   0  0  0  0  0  0  0  0  0  0  0  0
    7.4549    2.9360    0.0000 H   0  0  0  0  0  0  0  0  0  0  0  0
    2.1080   -3.5457    0.0000 H   0  0  0  0  0  0  0  0  0  0  0  0
    2.6687   -4.2197    0.0000 H   0  0  0  0  0  0  0  0  0  0  0  0
    3.3428   -3.6590    0.0000 H   0  0  0  0  0  0  0  0  0  0  0  0
    9.4847   -1.0668    0.0000 H   0  0  0  0  0  0  0  0  0  0  0  0
   10.2463   -1.3017    0.0000 H   0  0  0  0  0  0  0  0  0  0  0  0
    9.1984    1.4127    0.0000 H   0  0  0  0  0  0  0  0  0  0  0  0
   10.7330    0.5763    0.0000 H   0  0  0  0  0  0  0  0  0  0  0  0
   11.1995    1.3187    0.0000 H   0  0  0  0  0  0  0  0  0  0  0  0
   10.4571    1.7852    0.0000 H   0  0  0  0  0  0  0  0  0  0  0  0
   12.8994    0.5564    0.0000 H   0  0  0  0  0  0  0  0  0  0  0  0
   12.3151    0.0143    0.0000 H   0  0  0  0  0  0  0  0  0  0  0  0
   13.1330   -2.3439    0.0000 H   0  0  0  0  0  0  0  0  0  0  0  0
   14.4286   -2.1334    0.0000 H   0  0  0  0  0  0  0  0  0  0  0  0
   14.8951   -1.3910    0.0000 H   0  0  0  0  0  0  0  0  0  0  0  0
   14.1527   -0.9245    0.0000 H   0  0  0  0  0  0  0  0  0  0  0  0
   14.0880    0.7521    0.0000 H   0  0  0  0  0  0  0  0  0  0  0  0
 11  1  1  1  0  0  0
  1 15  1  0  0  0  0
  2 16  1  0  0  0  0
  2 24  1  0  0  0  0
 18  3  1  6  0  0  0
  3 26  1  0  0  0  0
 19  4  1  6  0  0  0
  4 27  1  0  0  0  0
  5 24  2  0  0  0  0
  6 26  2  0  0  0  0
  7 27  2  0  0  0  0
  8 30  1  0  0  0  0
  8 33  1  0  0  0  0
  9 33  2  0  0  0  0
 10 35  1  0  0  0  0
 10 69  1  0  0  0  0
 11 12  1  0  0  0  0
 11 14  1  0  0  0  0
 11 15  1  0  0  0  0
 12 13  1  0  0  0  0
 12 18  1  0  0  0  0
 12 38  1  1  0  0  0
 13 16  1  0  0  0  0
 13 20  1  0  0  0  0
 13 39  1  1  0  0  0
 14 19  1  0  0  0  0
 14 40  1  0  0  0  0
 14 41  1  0  0  0  0
 15 42  1  0  0  0  0
 15 43  1  0  0  0  0
 16 17  1  0  0  0  0
 16 44  1  6  0  0  0
 17 19  1  0  0  0  0
 17 22  1  0  0  0  0
 17 45  1  1  0  0  0
 18 21  1  0  0  0  0
 18 46  1  0  0  0  0
 19 47  1  0  0  0  0
 20 21  2  0  0  0  0
 20 23  1  0  0  0  0
 21 48  1  0  0  0  0
 22 24  1  0  0  0  0
 22 25  2  0  0  0  0
 23 49  1  0  0  0  0
 23 50  1  0  0  0  0
 23 51  1  0  0  0  0
 25 52  1  0  0  0  0
 25 53  1  0  0  0  0
 26 28  1  0  0  0  0
 27 29  1  0  0  0  0
 28 54  1  0  0  0  0
 28 55  1  0  0  0  0
 28 56  1  0  0  0  0
 29 30  1  0  0  0  0
 29 31  2  0  0  0  0
 30 57  1  0  0  0  0
 30 58  1  0  0  0  0
 31 32  1  0  0  0  0
 31 59  1  0  0  0  0
 32 60  1  0  0  0  0
 32 61  1  0  0  0  0
 32 62  1  0  0  0  0
 33 34  1  0  0  0  0
 34 35  1  0  0  0  0
 34 36  2  0  0  0  0
 35 63  1  0  0  0  0
 35 64  1  0  0  0  0
 36 37  1  0  0  0  0
 36 65  1  0  0  0  0
 37 66  1  0  0  0  0
 37 67  1  0  0  0  0
 37 68  1  0  0  0  0
M  END
> <PUBCHEM_COMPOUND_CID>
5281500

> <PUBCHEM_COMPOUND_CANONICALIZED>
1

> <PUBCHEM_CACTVS_COMPLEXITY>
1110

> <PUBCHEM_CACTVS_HBOND_ACCEPTOR>
10

> <PUBCHEM_CACTVS_HBOND_DONOR>
1

> <PUBCHEM_CACTVS_ROTATABLE_BOND>
10

> <PUBCHEM_CACTVS_SUBSKEYS>
AAADcfB4PAAAAAAAAAAAAAAAEgAAASIAAAAAAAAABgAAAACQAAAAGgAACAAADVSggAICCAAABgCIAiDSCAAAAAAgAAAACAEAAEgAFBYAIQACUAAF4AAIMYPK6PyOgAAAAAAAAAAAAAAAAAAAAAAAAAAAAA==

> <PUBCHEM_IUPAC_OPENEYE_NAME>
[(E)-2-[(3aR,4R,6R,6aS,7R,9aR,9bR)-7-acetoxy-9-methyl-3-methylene-2-oxo-spiro[4,5,6a,7,9a,9b-hexahydro-3aH-azuleno[4,5-b]furan-6,2'-oxirane]-4-yl]oxycarbonylbut-2-enyl] (E)-2-(hydroxymethyl)but-2-enoate

> <PUBCHEM_IUPAC_CAS_NAME>
(E)-2-(hydroxymethyl)-2-butenoic acid [(E)-2-[[(3aR,4R,6R,6aS,7R,9aR,9bR)-7-acetyloxy-9-methyl-3-methylene-2-oxo-4-spiro[4,5,6a,7,9a,9b-hexahydro-3aH-azuleno[4,5-b]furan-6,2'-oxirane]yl]oxy-oxomethyl]but-2-enyl] ester

> <PUBCHEM_IUPAC_NAME>
[(E)-2-[(3aR,4R,6R,6aS,7R,9aR,9bR)-7-acetyloxy-9-methyl-3-methylidene-2-oxospiro[4,5,6a,7,9a,9b-hexahydro-3aH-azuleno[4,5-b]furan-6,2'-oxirane]-4-yl]oxycarbonylbut-2-enyl] (E)-2-(hydroxymethyl)but-2-enoate

> <PUBCHEM_IUPAC_SYSTEMATIC_NAME>
[(E)-2-[(3aR,4R,6R,6aS,7R,9aR,9bR)-7-acetyloxy-9-methyl-3-methylidene-2-oxidanylidene-spiro[4,5,6a,7,9a,9b-hexahydro-3aH-azuleno[4,5-b]furan-6,2'-oxirane]-4-yl]oxycarbonylbut-2-enyl] (E)-2-(hydroxymethyl)but-2-enoate

> <PUBCHEM_IUPAC_TRADITIONAL_NAME>
(E)-2-methylolbut-2-enoic acid [(E)-2-[(3aR,4R,6R,6aS,7R,9aR,9bR)-7-acetoxy-2-keto-9-methyl-3-methylene-spiro[4,5,6a,7,9a,9b-hexahydro-3aH-azuleno[4,5-b]furan-6,2'-oxirane]-4-yl]oxycarbonylbut-2-enyl] ester

> <PUBCHEM_IUPAC_INCHI>
InChI=1S/C27H32O10/c1-6-16(10-28)25(31)33-11-17(7-2)26(32)36-19-9-27(12-34-27)22-18(35-15(5)29)8-13(3)20(22)23-21(19)14(4)24(30)37-23/h6-8,18-23,28H,4,9-12H2,1-3,5H3/b16-6+,17-7+/t18-,19-,20+,21-,22-,23-,27+/m1/s1

> <PUBCHEM_IUPAC_INCHIKEY>
KECRQSRAHLUNQU-ILTWLPKVSA-N

> <PUBCHEM_XLOGP3_AA>
1.3

> <PUBCHEM_EXACT_MASS>
516.199547

> <PUBCHEM_MOLECULAR_FORMULA>
C27H32O10

> <PUBCHEM_MOLECULAR_WEIGHT>
516.53698

> <PUBCHEM_OPENEYE_CAN_SMILES>
CC=C(CO)C(=O)OCC(=CC)C(=O)OC1CC2(CO2)C3C(C=C(C3C4C1C(=C)C(=O)O4)C)OC(=O)C

> <PUBCHEM_OPENEYE_ISO_SMILES>
C/C=C(\CO)/C(=O)OC/C(=C\C)/C(=O)O[C@@H]1C[C@]2(CO2)[C@@H]3[C@@H](C=C([C@@H]3[C@@H]4[C@@H]1C(=C)C(=O)O4)C)OC(=O)C

> <PUBCHEM_CACTVS_TPSA>
138

> <PUBCHEM_MONOISOTOPIC_WEIGHT>
516.199547

> <PUBCHEM_TOTAL_CHARGE>
0

> <PUBCHEM_HEAVY_ATOM_COUNT>
37

> <PUBCHEM_ATOM_DEF_STEREO_COUNT>
7

> <PUBCHEM_ATOM_UDEF_STEREO_COUNT>
0

> <PUBCHEM_BOND_DEF_STEREO_COUNT>
2

> <PUBCHEM_BOND_UDEF_STEREO_COUNT>
0

> <PUBCHEM_ISOTOPIC_ATOM_COUNT>
0

> <PUBCHEM_COMPONENT_COUNT>
1

> <PUBCHEM_CACTVS_TAUTO_COUNT>
1

> <PUBCHEM_COORDINATE_TYPE>
1
5
255

> <PUBCHEM_BONDANNOTATIONS>
11  1  5
12  38  5
13  39  5
16  44  6
17  45  5
18  3  6
19  4  6

$$$$

