221071
  -OEChem-07051212462D

 36 38  0     1  0  0  0  0  0999 V2000
    3.5836   -0.1023    0.0000 O   0  0  0  0  0  0  0  0  0  0  0  0
    2.0000   -0.9070    0.0000 O   0  0  0  0  0  0  0  0  0  0  0  0
    6.2740    2.6622    0.0000 O   0  0  0  0  0  0  0  0  0  0  0  0
    4.5298   -1.4070    0.0000 C   0  0  1  0  0  0  0  0  0  0  0  0
    4.5298   -0.4070    0.0000 C   0  0  1  0  0  0  0  0  0  0  0  0
    6.2619   -0.4070    0.0000 C   0  0  2  0  0  0  0  0  0  0  0  0
    5.3958   -1.9070    0.0000 C   0  0  0  0  0  0  0  0  0  0  0  0
    5.3958    0.0930    0.0000 C   0  0  0  0  0  0  0  0  0  0  0  0
    6.2619   -1.4070    0.0000 C   0  0  0  0  0  0  0  0  0  0  0  0
    3.5836   -1.7117    0.0000 C   0  0  1  0  0  0  0  0  0  0  0  0
    3.0000   -0.9070    0.0000 C   0  0  0  0  0  0  0  0  0  0  0  0
    7.1279   -0.9070    0.0000 C   0  0  0  0  0  0  0  0  0  0  0  0
    7.1719    0.0998    0.0000 C   0  0  0  0  0  0  0  0  0  0  0  0
    5.3798    1.1345    0.0000 C   0  0  0  0  0  0  0  0  0  0  0  0
    3.2729   -2.6622    0.0000 C   0  0  0  0  0  0  0  0  0  0  0  0
    7.1799    1.1414    0.0000 C   0  0  0  0  0  0  0  0  0  0  0  0
    6.2778    1.6623    0.0000 C   0  0  0  0  0  0  0  0  0  0  0  0
    4.5080    1.6245    0.0000 C   0  0  0  0  0  0  0  0  0  0  0  0
    4.4399   -2.2522    0.0000 H   0  0  0  0  0  0  0  0  0  0  0  0
    4.4399    0.4382    0.0000 H   0  0  0  0  0  0  0  0  0  0  0  0
    4.9973   -2.3819    0.0000 H   0  0  0  0  0  0  0  0  0  0  0  0
    5.7944   -2.3819    0.0000 H   0  0  0  0  0  0  0  0  0  0  0  0
    6.4739   -1.9896    0.0000 H   0  0  0  0  0  0  0  0  0  0  0  0
    6.8725   -1.2993    0.0000 H   0  0  0  0  0  0  0  0  0  0  0  0
    2.9711   -1.8079    0.0000 H   0  0  0  0  0  0  0  0  0  0  0  0
    6.8179   -1.4439    0.0000 H   0  0  0  0  0  0  0  0  0  0  0  0
    7.6648   -1.2170    0.0000 H   0  0  0  0  0  0  0  0  0  0  0  0
    7.4379   -0.3701    0.0000 H   0  0  0  0  0  0  0  0  0  0  0  0
    7.7052   -0.2163    0.0000 H   0  0  0  0  0  0  0  0  0  0  0  0
    2.6836   -2.4696    0.0000 H   0  0  0  0  0  0  0  0  0  0  0  0
    3.0803   -3.2516    0.0000 H   0  0  0  0  0  0  0  0  0  0  0  0
    3.8623   -2.8549    0.0000 H   0  0  0  0  0  0  0  0  0  0  0  0
    7.7180    1.4494    0.0000 H   0  0  0  0  0  0  0  0  0  0  0  0
    4.8118    2.1649    0.0000 H   0  0  0  0  0  0  0  0  0  0  0  0
    3.9676    1.9282    0.0000 H   0  0  0  0  0  0  0  0  0  0  0  0
    4.2043    1.0840    0.0000 H   0  0  0  0  0  0  0  0  0  0  0  0
  1  5  1  0  0  0  0
  1 11  1  0  0  0  0
  2 11  2  0  0  0  0
  3 17  2  0  0  0  0
  4  5  1  0  0  0  0
  4  7  1  0  0  0  0
  4 10  1  0  0  0  0
  4 19  1  6  0  0  0
  5  8  1  0  0  0  0
  5 20  1  1  0  0  0
  6  8  1  0  0  0  0
  6  9  1  0  0  0  0
  6 12  1  1  0  0  0
  6 13  1  0  0  0  0
  7  9  1  0  0  0  0
  7 21  1  0  0  0  0
  7 22  1  0  0  0  0
  8 14  2  0  0  0  0
  9 23  1  0  0  0  0
  9 24  1  0  0  0  0
 10 11  1  0  0  0  0
 10 15  1  6  0  0  0
 10 25  1  0  0  0  0
 12 26  1  0  0  0  0
 12 27  1  0  0  0  0
 12 28  1  0  0  0  0
 13 16  2  0  0  0  0
 13 29  1  0  0  0  0
 14 17  1  0  0  0  0
 14 18  1  0  0  0  0
 15 30  1  0  0  0  0
 15 31  1  0  0  0  0
 15 32  1  0  0  0  0
 16 17  1  0  0  0  0
 16 33  1  0  0  0  0
 18 34  1  0  0  0  0
 18 35  1  0  0  0  0
 18 36  1  0  0  0  0
M  END
> <PUBCHEM_COMPOUND_CID>
221071

> <PUBCHEM_COMPOUND_CANONICALIZED>
1

> <PUBCHEM_CACTVS_COMPLEXITY>
500

> <PUBCHEM_CACTVS_HBOND_ACCEPTOR>
3

> <PUBCHEM_CACTVS_HBOND_DONOR>
0

> <PUBCHEM_CACTVS_ROTATABLE_BOND>
0

> <PUBCHEM_CACTVS_SUBSKEYS>
AAADceBwMAAAAAAAAAAAAAAAAAAAASAAAAAwQAAAAAAAAEiAAAAAGgAAAAAADxSggAICCAAABACIAqDSCAAAAAAgAAAICAEAAEgABBIAIAACEAAEgAAIIYOKyPCPgAAAAAAAAACAAAIAABAAAAAAAAAAAA==

> <PUBCHEM_IUPAC_OPENEYE_NAME>
(3S,3aS,5aS,9bS)-3,5a,9-trimethyl-3a,4,5,9b-tetrahydro-3H-benzo[g]benzofuran-2,8-dione

> <PUBCHEM_IUPAC_CAS_NAME>
(3S,3aS,5aS,9bS)-3,5a,9-trimethyl-3a,4,5,9b-tetrahydro-3H-benzo[g]benzofuran-2,8-dione

> <PUBCHEM_IUPAC_NAME>
(3S,3aS,5aS,9bS)-3,5a,9-trimethyl-3a,4,5,9b-tetrahydro-3H-benzo[g][1]benzofuran-2,8-dione

> <PUBCHEM_IUPAC_SYSTEMATIC_NAME>
(3S,3aS,5aS,9bS)-3,5a,9-trimethyl-3a,4,5,9b-tetrahydro-3H-benzo[g][1]benzofuran-2,8-dione

> <PUBCHEM_IUPAC_TRADITIONAL_NAME>
(3S,3aS,5aS,9bS)-3,5a,9-trimethyl-3a,4,5,9b-tetrahydro-3H-benzo[g]benzofuran-2,8-quinone

> <PUBCHEM_IUPAC_INCHI>
InChI=1S/C15H18O3/c1-8-10-4-6-15(3)7-5-11(16)9(2)12(15)13(10)18-14(8)17/h5,7-8,10,13H,4,6H2,1-3H3/t8-,10-,13-,15-/m0/s1

> <PUBCHEM_IUPAC_INCHIKEY>
XJHDMGJURBVLLE-BOCCBSBMSA-N

> <PUBCHEM_XLOGP3_AA>
2.3

> <PUBCHEM_EXACT_MASS>
246.125594

> <PUBCHEM_MOLECULAR_FORMULA>
C15H18O3

> <PUBCHEM_MOLECULAR_WEIGHT>
246.30162

> <PUBCHEM_OPENEYE_CAN_SMILES>
CC1C2CCC3(C=CC(=O)C(=C3C2OC1=O)C)C

> <PUBCHEM_OPENEYE_ISO_SMILES>
C[C@H]1[C@@H]2CC[C@]3(C=CC(=O)C(=C3[C@H]2OC1=O)C)C

> <PUBCHEM_CACTVS_TPSA>
43.4

> <PUBCHEM_MONOISOTOPIC_WEIGHT>
246.125594

> <PUBCHEM_TOTAL_CHARGE>
0

> <PUBCHEM_HEAVY_ATOM_COUNT>
18

> <PUBCHEM_ATOM_DEF_STEREO_COUNT>
4

> <PUBCHEM_ATOM_UDEF_STEREO_COUNT>
0

> <PUBCHEM_BOND_DEF_STEREO_COUNT>
0

> <PUBCHEM_BOND_UDEF_STEREO_COUNT>
0

> <PUBCHEM_ISOTOPIC_ATOM_COUNT>
0

> <PUBCHEM_COMPONENT_COUNT>
1

> <PUBCHEM_CACTVS_TAUTO_COUNT>
2

> <PUBCHEM_COORDINATE_TYPE>
1
5
255

> <PUBCHEM_BONDANNOTATIONS>
10  15  6
4  19  6
5  20  5
6  12  5

$$$$

