443330
  -OEChem-07051213022D

 69 71  0     1  0  0  0  0  0999 V2000
    7.1962    0.0600    0.0000 O   0  0  0  0  0  0  0  0  0  0  0  0
    6.3301   -1.4400    0.0000 O   0  0  0  0  0  0  0  0  0  0  0  0
    6.3301    1.5600    0.0000 O   0  0  0  0  0  0  0  0  0  0  0  0
    5.4641   -0.9400    0.0000 O   0  0  0  0  0  0  0  0  0  0  0  0
    3.7320    0.0600    0.0000 O   0  0  0  0  0  0  0  0  0  0  0  0
    3.7320    2.0600    0.0000 O   0  0  0  0  0  0  0  0  0  0  0  0
    6.3301   -4.4400    0.0000 O   0  0  0  0  0  0  0  0  0  0  0  0
    8.0622   -4.4400    0.0000 O   0  0  0  0  0  0  0  0  0  0  0  0
    6.3301    3.5600    0.0000 O   0  0  0  0  0  0  0  0  0  0  0  0
    3.7320   -0.9400    0.0000 O   0  0  0  0  0  0  0  0  0  0  0  0
    2.8660    1.5600    0.0000 O   0  0  0  0  0  0  0  0  0  0  0  0
    4.5981    3.5600    0.0000 O   0  0  0  0  0  0  0  0  0  0  0  0
    5.4641    5.0600    0.0000 O   0  0  0  0  0  0  0  0  0  0  0  0
    8.0622   -1.4400    0.0000 C   0  0  1  0  0  0  0  0  0  0  0  0
    8.0622   -2.4400    0.0000 C   0  0  2  0  0  0  0  0  0  0  0  0
    9.0084   -1.1353    0.0000 C   0  0  2  0  0  0  0  0  0  0  0  0
    9.0084   -2.7447    0.0000 C   0  0  0  0  0  0  0  0  0  0  0  0
    9.5920   -1.9400    0.0000 C   0  0  0  0  0  0  0  0  0  0  0  0
    7.1962   -0.9400    0.0000 C   0  0  2  0  0  0  0  0  0  0  0  0
    7.1962   -2.9400    0.0000 C   0  0  0  0  0  0  0  0  0  0  0  0
    9.3191   -0.1847    0.0000 C   0  0  0  0  0  0  0  0  0  0  0  0
    6.3301    0.5600    0.0000 C   0  0  2  0  0  0  0  0  0  0  0  0
    6.3301   -2.4400    0.0000 C   0  0  0  0  0  0  0  0  0  0  0  0
    5.4641    0.0600    0.0000 C   0  0  1  0  0  0  0  0  0  0  0  0
    4.5981    0.5600    0.0000 C   0  0  2  0  0  0  0  0  0  0  0  0
    4.5981    1.5600    0.0000 C   0  0  1  0  0  0  0  0  0  0  0  0
    5.4641    2.0600    0.0000 C   0  0  1  0  0  0  0  0  0  0  0  0
    7.1962   -3.9400    0.0000 C   0  0  0  0  0  0  0  0  0  0  0  0
    5.4641    3.0600    0.0000 C   0  0  0  0  0  0  0  0  0  0  0  0
    4.5981   -1.4400    0.0000 C   0  0  0  0  0  0  0  0  0  0  0  0
    2.8660    0.5600    0.0000 C   0  0  0  0  0  0  0  0  0  0  0  0
    3.7320    3.0600    0.0000 C   0  0  0  0  0  0  0  0  0  0  0  0
    4.5981   -2.4400    0.0000 C   0  0  0  0  0  0  0  0  0  0  0  0
    2.0000    0.0600    0.0000 C   0  0  0  0  0  0  0  0  0  0  0  0
    6.3301    4.5600    0.0000 C   0  0  0  0  0  0  0  0  0  0  0  0
    2.8660    3.5600    0.0000 C   0  0  0  0  0  0  0  0  0  0  0  0
    7.1962    5.0600    0.0000 C   0  0  0  0  0  0  0  0  0  0  0  0
    8.1521   -0.5948    0.0000 H   0  0  0  0  0  0  0  0  0  0  0  0
    8.1521   -3.2852    0.0000 H   0  0  0  0  0  0  0  0  0  0  0  0
    9.6209   -1.0391    0.0000 H   0  0  0  0  0  0  0  0  0  0  0  0
    8.7574   -3.3116    0.0000 H   0  0  0  0  0  0  0  0  0  0  0  0
    9.5458   -3.0540    0.0000 H   0  0  0  0  0  0  0  0  0  0  0  0
   10.0529   -2.3547    0.0000 H   0  0  0  0  0  0  0  0  0  0  0  0
   10.0529   -1.5253    0.0000 H   0  0  0  0  0  0  0  0  0  0  0  0
    6.6592   -0.6300    0.0000 H   0  0  0  0  0  0  0  0  0  0  0  0
    9.9084   -0.3774    0.0000 H   0  0  0  0  0  0  0  0  0  0  0  0
    9.5117    0.4046    0.0000 H   0  0  0  0  0  0  0  0  0  0  0  0
    8.7297    0.0079    0.0000 H   0  0  0  0  0  0  0  0  0  0  0  0
    6.3301   -0.0600    0.0000 H   0  0  0  0  0  0  0  0  0  0  0  0
    5.7932   -2.7500    0.0000 H   0  0  0  0  0  0  0  0  0  0  0  0
    6.0010   -0.2500    0.0000 H   0  0  0  0  0  0  0  0  0  0  0  0
    4.5981   -0.0600    0.0000 H   0  0  0  0  0  0  0  0  0  0  0  0
    4.5981    2.1800    0.0000 H   0  0  0  0  0  0  0  0  0  0  0  0
    6.0010    2.3700    0.0000 H   0  0  0  0  0  0  0  0  0  0  0  0
    5.2520    3.6426    0.0000 H   0  0  0  0  0  0  0  0  0  0  0  0
    4.8535    2.9523    0.0000 H   0  0  0  0  0  0  0  0  0  0  0  0
    6.3301   -5.0600    0.0000 H   0  0  0  0  0  0  0  0  0  0  0  0
    3.9781   -2.4400    0.0000 H   0  0  0  0  0  0  0  0  0  0  0  0
    4.5981   -3.0600    0.0000 H   0  0  0  0  0  0  0  0  0  0  0  0
    5.2181   -2.4400    0.0000 H   0  0  0  0  0  0  0  0  0  0  0  0
    1.6900    0.5969    0.0000 H   0  0  0  0  0  0  0  0  0  0  0  0
    1.4631   -0.2500    0.0000 H   0  0  0  0  0  0  0  0  0  0  0  0
    2.3100   -0.4769    0.0000 H   0  0  0  0  0  0  0  0  0  0  0  0
    3.1760    4.0969    0.0000 H   0  0  0  0  0  0  0  0  0  0  0  0
    2.3291    3.8700    0.0000 H   0  0  0  0  0  0  0  0  0  0  0  0
    2.5560    3.0231    0.0000 H   0  0  0  0  0  0  0  0  0  0  0  0
    7.5062    4.5231    0.0000 H   0  0  0  0  0  0  0  0  0  0  0  0
    7.7331    5.3700    0.0000 H   0  0  0  0  0  0  0  0  0  0  0  0
    6.8862    5.5969    0.0000 H   0  0  0  0  0  0  0  0  0  0  0  0
 19  1  1  1  0  0  0
 22  1  1  1  0  0  0
  2 19  1  0  0  0  0
  2 23  1  0  0  0  0
  3 22  1  0  0  0  0
  3 27  1  0  0  0  0
 24  4  1  6  0  0  0
  4 30  1  0  0  0  0
 25  5  1  1  0  0  0
  5 31  1  0  0  0  0
 26  6  1  6  0  0  0
  6 32  1  0  0  0  0
  7 28  1  0  0  0  0
  7 57  1  0  0  0  0
  8 28  2  0  0  0  0
  9 29  1  0  0  0  0
  9 35  1  0  0  0  0
 10 30  2  0  0  0  0
 11 31  2  0  0  0  0
 12 32  2  0  0  0  0
 13 35  2  0  0  0  0
 14 15  1  0  0  0  0
 14 16  1  0  0  0  0
 14 19  1  0  0  0  0
 14 38  1  1  0  0  0
 15 17  1  0  0  0  0
 15 20  1  0  0  0  0
 15 39  1  1  0  0  0
 16 18  1  0  0  0  0
 16 21  1  1  0  0  0
 16 40  1  0  0  0  0
 17 18  1  0  0  0  0
 17 41  1  0  0  0  0
 17 42  1  0  0  0  0
 18 43  1  0  0  0  0
 18 44  1  0  0  0  0
 19 45  1  0  0  0  0
 20 23  2  0  0  0  0
 20 28  1  0  0  0  0
 21 46  1  0  0  0  0
 21 47  1  0  0  0  0
 21 48  1  0  0  0  0
 22 24  1  0  0  0  0
 22 49  1  0  0  0  0
 23 50  1  0  0  0  0
 24 25  1  0  0  0  0
 24 51  1  0  0  0  0
 25 26  1  0  0  0  0
 25 52  1  0  0  0  0
 26 27  1  0  0  0  0
 26 53  1  0  0  0  0
 27 29  1  1  0  0  0
 27 54  1  0  0  0  0
 29 55  1  0  0  0  0
 29 56  1  0  0  0  0
 30 33  1  0  0  0  0
 31 34  1  0  0  0  0
 32 36  1  0  0  0  0
 33 58  1  0  0  0  0
 33 59  1  0  0  0  0
 33 60  1  0  0  0  0
 34 61  1  0  0  0  0
 34 62  1  0  0  0  0
 34 63  1  0  0  0  0
 35 37  1  0  0  0  0
 36 64  1  0  0  0  0
 36 65  1  0  0  0  0
 36 66  1  0  0  0  0
 37 67  1  0  0  0  0
 37 68  1  0  0  0  0
 37 69  1  0  0  0  0
M  END
> <PUBCHEM_COMPOUND_CID>
443330

> <PUBCHEM_COMPOUND_CANONICALIZED>
1

> <PUBCHEM_CACTVS_COMPLEXITY>
943

> <PUBCHEM_CACTVS_HBOND_ACCEPTOR>
13

> <PUBCHEM_CACTVS_HBOND_DONOR>
1

> <PUBCHEM_CACTVS_ROTATABLE_BOND>
12

> <PUBCHEM_CACTVS_SUBSKEYS>
AAADcfB4PAAAAAAAAAAAAAAAAAAAAYAAAAAkQAAAAAAAAEAAAAAAGgAACAAADRSwgAMCCAAABgCIAgDSCAAACAAgIAAAAAEAAEgRBBIAAQAiQAAFgAAGEIHI7PyOgAAAAAAAAAAAAAAAAAAAAQAACAAAAA==

> <PUBCHEM_IUPAC_OPENEYE_NAME>
(1S,4aS,7S,7aR)-7-methyl-1-[(2S,3R,4S,5R,6R)-3,4,5-triacetoxy-6-(acetoxymethyl)tetrahydropyran-2-yl]oxy-1,4a,5,6,7,7a-hexahydrocyclopenta[c]pyran-4-carboxylic acid

> <PUBCHEM_IUPAC_CAS_NAME>
(1S,4aS,7S,7aR)-7-methyl-1-[[(2S,3R,4S,5R,6R)-3,4,5-triacetyloxy-6-(acetyloxymethyl)-2-oxanyl]oxy]-1,4a,5,6,7,7a-hexahydrocyclopenta[c]pyran-4-carboxylic acid

> <PUBCHEM_IUPAC_NAME>
(1S,4aS,7S,7aR)-7-methyl-1-[(2S,3R,4S,5R,6R)-3,4,5-triacetyloxy-6-(acetyloxymethyl)oxan-2-yl]oxy-1,4a,5,6,7,7a-hexahydrocyclopenta[c]pyran-4-carboxylic acid

> <PUBCHEM_IUPAC_SYSTEMATIC_NAME>
(1S,4aS,7S,7aR)-7-methyl-1-[(2S,3R,4S,5R,6R)-3,4,5-triacetyloxy-6-(acetyloxymethyl)oxan-2-yl]oxy-1,4a,5,6,7,7a-hexahydrocyclopenta[c]pyran-4-carboxylic acid

> <PUBCHEM_IUPAC_TRADITIONAL_NAME>
(1S,4aS,7S,7aR)-7-methyl-1-[(2S,3R,4S,5R,6R)-3,4,5-triacetoxy-6-(acetoxymethyl)tetrahydropyran-2-yl]oxy-1,4a,5,6,7,7a-hexahydrocyclopenta[c]pyran-4-carboxylic acid

> <PUBCHEM_IUPAC_INCHI>
InChI=1S/C24H32O13/c1-10-6-7-15-16(22(29)30)8-32-23(18(10)15)37-24-21(35-14(5)28)20(34-13(4)27)19(33-12(3)26)17(36-24)9-31-11(2)25/h8,10,15,17-21,23-24H,6-7,9H2,1-5H3,(H,29,30)/t10-,15+,17+,18+,19+,20-,21+,23-,24-/m0/s1

> <PUBCHEM_IUPAC_INCHIKEY>
HFOBQUGXWUWGIR-PBVDINMUSA-N

> <PUBCHEM_XLOGP3_AA>
1.4

> <PUBCHEM_EXACT_MASS>
528.184291

> <PUBCHEM_MOLECULAR_FORMULA>
C24H32O13

> <PUBCHEM_MOLECULAR_WEIGHT>
528.50308

> <PUBCHEM_OPENEYE_CAN_SMILES>
CC1CCC2C1C(OC=C2C(=O)O)OC3C(C(C(C(O3)COC(=O)C)OC(=O)C)OC(=O)C)OC(=O)C

> <PUBCHEM_OPENEYE_ISO_SMILES>
C[C@H]1CC[C@H]2[C@@H]1[C@@H](OC=C2C(=O)O)O[C@H]3[C@@H]([C@H]([C@@H]([C@H](O3)COC(=O)C)OC(=O)C)OC(=O)C)OC(=O)C

> <PUBCHEM_CACTVS_TPSA>
170

> <PUBCHEM_MONOISOTOPIC_WEIGHT>
528.184291

> <PUBCHEM_TOTAL_CHARGE>
0

> <PUBCHEM_HEAVY_ATOM_COUNT>
37

> <PUBCHEM_ATOM_DEF_STEREO_COUNT>
9

> <PUBCHEM_ATOM_UDEF_STEREO_COUNT>
0

> <PUBCHEM_BOND_DEF_STEREO_COUNT>
0

> <PUBCHEM_BOND_UDEF_STEREO_COUNT>
0

> <PUBCHEM_ISOTOPIC_ATOM_COUNT>
0

> <PUBCHEM_COMPONENT_COUNT>
1

> <PUBCHEM_CACTVS_TAUTO_COUNT>
1

> <PUBCHEM_COORDINATE_TYPE>
1
5
255

> <PUBCHEM_BONDANNOTATIONS>
19  1  5
22  1  5
14  38  5
15  39  5
16  21  5
27  29  5
24  4  6
25  5  5
26  6  6

$$$$

