   Color/Form
        Yellow needles from alcohol. Solutions are brownish and when
   diluted are fluorescent.
   from [1]HSDB

   Melting Point
        284-286 deg C
   from [2]HSDB

   Dissociation Constants
        pKa = 9.7
   from [3]HSDB

   Octanol/Water Partition Coefficient
        log Kow = 1.83 at pH 12.0
   from [4]HSDB

   Solubilities

     * Soluble in ethanol. Practically insoluble in benzene and ether.
     * Soluble in water.

   from [5]HSDB

   Other Chemical/Physical Properties

     * Orange-yellow needles. pH of 0.1 percent soln 2.5-3.0
       /Dihydrochloride/
     * Red needles, hygroscopic. Sol in 300 parts cold water, in 1 part
       boiling water; slightly sol in alc. Practically insol in ether. pH
       of satd soln is 6-8. pH of 0.1 percent soln is 2.5 /Sulfate/

   from [6]HSDB

   Computed Properties
   Molecular Weight                  209.24654 [g/mol]
   Molecular Formula                 C[13]H[11]N[3]
   XLogP3                            1.8
   H-Bond Donor                      2
   H-Bond Acceptor                   3
   Rotatable Bond Count              0
   Tautomer Count                    16
   Exact Mass                        209.095297
   MonoIsotopic Mass                 209.095297
   Topological Polar Surface Area    64.9
   Heavy Atom Count                  16
   Formal Charge                     0
   Complexity                        232
   Isotope Atom Count                0
   Defined Atom Stereocenter Count   0
   Undefined Atom Stereocenter Count 0
   Defined Bond Stereocenter Count   0
   Undefined Bond Stereocenter Count 0
   Covalently-Bonded Unit Count      1
   Feature 3D Acceptor Count         1
   Feature 3D Donor Count            2
   Feature 3D Cation Count           2
   Feature 3D Ring Count             3
   Effective Rotor Count             0
   Conformer Sampling RMSD           0.4
   CID Conformer Count               [7]1

References

   1. http://toxnet.nlm.nih.gov/cgi-bin/sis/search/r?dbs+hsdb:@term+@rn+@rel+92-62-6
   2. http://toxnet.nlm.nih.gov/cgi-bin/sis/search/r?dbs+hsdb:@term+@rn+@rel+92-62-6
   3. http://toxnet.nlm.nih.gov/cgi-bin/sis/search/r?dbs+hsdb:@term+@rn+@rel+92-62-6
   4. http://toxnet.nlm.nih.gov/cgi-bin/sis/search/r?dbs+hsdb:@term+@rn+@rel+92-62-6
   5. http://toxnet.nlm.nih.gov/cgi-bin/sis/search/r?dbs+hsdb:@term+@rn+@rel+92-62-6
   6. http://toxnet.nlm.nih.gov/cgi-bin/sis/search/r?dbs+hsdb:@term+@rn+@rel+92-62-6
   7. http://pubchem.ncbi.nlm.nih.gov/vw3d/vw3d.cgi?cid=7099
