   Color/Form

     * Liquid
     * WATER-WHITE TO STRAW-COLORED LIQUID
     * Water-white liquid. [Note: Turns pale-yellow on contact with air.]

   from [1]HSDB

   Color/Form
        Water-white, mobile liquid
   from [2]HSDB

   Odor
        Pungent, suffocating odor
   from [3]HSDB

   Odor
        Pungent, suffocating odor
   from [4]HSDB

   Boiling Point
        102.2 deg C
   from [5]HSDB

   Boiling Point
        104 DEG C
   from [6]HSDB

   Melting Point
        -76 deg C
   from [7]HSDB

   Melting Point
        -76 DEG C
   from [8]HSDB

   Density/Specific Gravity
        0.8516 g/cu cmatT 20 deg C
   from [9]HSDB

   Density/Specific Gravity
        0.869 AT 20 DEG C/20 DEG C
   from [10]HSDB

   Heat of Combustion
        2268 kJ/mol (to convert J to cal, divide by 4.184)
   from [11]HSDB

   Heat of Combustion
        2268 kJ/mol
   from [12]HSDB

   Heat of Vaporization
        123 cal/g
   from [13]HSDB

   Heat of Vaporization
        8.62 cal/mol
   from [14]HSDB

   Octanol/Water Partition Coefficient
        log Kow = 0.60 (est)
   from [15]HSDB

   Solubilities

     * Soluble in chloroform; very soluble in ethanol, ethyl ether,
       acetone; miscible in benzene
     * Miscible with all proportions with alcohol, ether, toluene,
       kerosesne, gasolene, solvent naphtha
     * 19.2 g/100 g in water at 5 deg C
     * In water, 1.81X10+5 mg/L at 20 deg C

   from [16]HSDB

   Solubilities

     * MORE THAN 50 G DISSOLVE IN 100 ML WATER
     * SOL IN ETHANOL, ETHER, ACETONE. SOL IN WATER.
     * Water solubility of 181,000 ppm at 20 deg C.
     * Miscible in all proportions with alcohol, benzene, toluene,
       kerosene, gasoline, solvent naphtha.
     * Water solubility = 1.5X10+5 mg/L at 20 deg C.
     * Water solubility = 1.56X10+5 mg/L at 25 deg C.

   from [17]HSDB

   Spectral Properties

     * Index of refraction: 1.4366 at 20 deg C
     * IR: 1609 (Coblentz Society Spectral Collection)
     * UV: 418 (Sadtler Research Laboratories Spectral Collection)
     * NMR: 60 (Varian Associates NMR Spectra Catalogue)
     * MASS: 57 (Atlas of Mass Spectral Data, John Wiley & Sons, New York)

   from [18]HSDB

   Spectral Properties

     * IR: 1609 (Coblentz Society Spectral Collection)
     * UV: 418 (Sadtler Research Laboratories Spectral Collection)
     * NMR: 60 (Varian Associates NMR Spectra Catalogue)
     * MASS: 57 (Atlas of Mass Spectral Data, John Wiley & Sons, New York)

   from [19]HSDB

   Vapor Density
        2.41 (Air = 1)
   from [20]HSDB

   Vapor Density
        2.41 (Air = 1)
   from [21]HSDB

   Vapor Pressure
        30 mm Hg at 25 deg C
   from [22]HSDB

   Vapor Pressure
        Vapor pressure = 3.8X10+1 mm Hg at 25 deg C
   from [23]HSDB

   Other Chemical/Physical Properties

     * LIQ IS LIGHTER THAN WATER; VAPOR HEAVIER THAN AIR; SOLID PHASE
       SEPARATES OUT AT 23 DEG F
     * Heat capacity: 0.7 ca/g ... Dimerizes under strong acid conditions,
       slowly oxidizes to crotonic acid. Solubility of water in
       crotonaldehyde (g/100g) at 20 deg C: 9.5; at 5 deg C: 19.2
     * CONVERSION FACTOR: 1 MG/L= 349 PPM; 1 PPM= 2.8 MG/CU M
     * Turns to a pale yellow color in contact with light and air.
     * Henry's Law constant = 9.68X10-6 atm-cu m/mol at 25 deg C
     * Hydroxyl radical reaction rate constant = 3.62X10-11 cu
       cm/molec-sec at 25 deg C (est)

   from [24]HSDB

   Other Chemical/Physical Properties

     * Liquid molar volume = 0.082784 cu m/kmol.
     * IG heat of formation = -1.0360X10+8 J/kmol.
     * Heat capacity = 0.7 cal/g/deg C.
     * Readily resinifies.
     * Freezing point = -69 deg C.
     * Vapor pressure = 19 mm Hg at 20 deg C

   from [25]HSDB

   Computed Properties
   Molecular Weight                  70.08984 [g/mol]
   Molecular Formula                 C[4]H[6]O
   XLogP3-AA                         0.5
   H-Bond Donor                      0
   H-Bond Acceptor                   1
   Rotatable Bond Count              1
   Exact Mass                        70.041865
   MonoIsotopic Mass                 70.041865
   Topological Polar Surface Area    17.1
   Heavy Atom Count                  5
   Formal Charge                     0
   Complexity                        45.6
   Isotope Atom Count                0
   Defined Atom Stereocenter Count   0
   Undefined Atom Stereocenter Count 0
   Defined Bond Stereocenter Count   1
   Undefined Bond Stereocenter Count 0
   Covalently-Bonded Unit Count      1
   Feature 3D Acceptor Count         1
   Feature 3D Hydrophobe Count       1
   Effective Rotor Count             1
   Conformer Sampling RMSD           0.4
   CID Conformer Count               [26]2

References

   1. http://toxnet.nlm.nih.gov/cgi-bin/sis/search/r?dbs+hsdb:@term+@rn+@rel+4170-30-3
   2. http://toxnet.nlm.nih.gov/cgi-bin/sis/search/r?dbs+hsdb:@term+@rn+@rel+123-73-9
   3. http://toxnet.nlm.nih.gov/cgi-bin/sis/search/r?dbs+hsdb:@term+@rn+@rel+4170-30-3
   4. http://toxnet.nlm.nih.gov/cgi-bin/sis/search/r?dbs+hsdb:@term+@rn+@rel+123-73-9
   5. http://toxnet.nlm.nih.gov/cgi-bin/sis/search/r?dbs+hsdb:@term+@rn+@rel+4170-30-3
   6. http://toxnet.nlm.nih.gov/cgi-bin/sis/search/r?dbs+hsdb:@term+@rn+@rel+123-73-9
   7. http://toxnet.nlm.nih.gov/cgi-bin/sis/search/r?dbs+hsdb:@term+@rn+@rel+4170-30-3
   8. http://toxnet.nlm.nih.gov/cgi-bin/sis/search/r?dbs+hsdb:@term+@rn+@rel+123-73-9
   9. http://toxnet.nlm.nih.gov/cgi-bin/sis/search/r?dbs+hsdb:@term+@rn+@rel+4170-30-3
  10. http://toxnet.nlm.nih.gov/cgi-bin/sis/search/r?dbs+hsdb:@term+@rn+@rel+123-73-9
  11. http://toxnet.nlm.nih.gov/cgi-bin/sis/search/r?dbs+hsdb:@term+@rn+@rel+4170-30-3
  12. http://toxnet.nlm.nih.gov/cgi-bin/sis/search/r?dbs+hsdb:@term+@rn+@rel+123-73-9
  13. http://toxnet.nlm.nih.gov/cgi-bin/sis/search/r?dbs+hsdb:@term+@rn+@rel+4170-30-3
  14. http://toxnet.nlm.nih.gov/cgi-bin/sis/search/r?dbs+hsdb:@term+@rn+@rel+123-73-9
  15. http://toxnet.nlm.nih.gov/cgi-bin/sis/search/r?dbs+hsdb:@term+@rn+@rel+4170-30-3
  16. http://toxnet.nlm.nih.gov/cgi-bin/sis/search/r?dbs+hsdb:@term+@rn+@rel+4170-30-3
  17. http://toxnet.nlm.nih.gov/cgi-bin/sis/search/r?dbs+hsdb:@term+@rn+@rel+123-73-9
  18. http://toxnet.nlm.nih.gov/cgi-bin/sis/search/r?dbs+hsdb:@term+@rn+@rel+4170-30-3
  19. http://toxnet.nlm.nih.gov/cgi-bin/sis/search/r?dbs+hsdb:@term+@rn+@rel+123-73-9
  20. http://toxnet.nlm.nih.gov/cgi-bin/sis/search/r?dbs+hsdb:@term+@rn+@rel+4170-30-3
  21. http://toxnet.nlm.nih.gov/cgi-bin/sis/search/r?dbs+hsdb:@term+@rn+@rel+123-73-9
  22. http://toxnet.nlm.nih.gov/cgi-bin/sis/search/r?dbs+hsdb:@term+@rn+@rel+4170-30-3
  23. http://toxnet.nlm.nih.gov/cgi-bin/sis/search/r?dbs+hsdb:@term+@rn+@rel+123-73-9
  24. http://toxnet.nlm.nih.gov/cgi-bin/sis/search/r?dbs+hsdb:@term+@rn+@rel+4170-30-3
  25. http://toxnet.nlm.nih.gov/cgi-bin/sis/search/r?dbs+hsdb:@term+@rn+@rel+123-73-9
  26. http://pubchem.ncbi.nlm.nih.gov/vw3d/vw3d.cgi?cid=447466
