   Color/Form

     * LEAFLETS FROM LIGROIN
     * COLORLESS LEAFLETS
     * PRISM OR PLATELETS FROM PETROLEUM ETHER OR ETHYL ACETATE

   from [1]HSDB

   Odor
        ODORLESS
   from [2]HSDB

   Melting Point
        107-109 DEG C
   from [3]HSDB

   Dissociation Constants
        5.00
   from [4]HSDB

   pH
        AQ SOLN IS SLIGHTLY ALKALINE TO LITMUS
   from [5]HSDB

   Solubilities

     * 1 G SOL IN 1.5 ML ALC, 12 ML BENZENE, 1 ML CHLOROFORM, 13 ML ETHER,
       18 ML WATER
     * SOL IN PETROLEUM ETHER

   from [6]HSDB

   Spectral Properties

     * MAX ABSORPTION (0.1 N HCL): 224 NM (A= 409, 1%, 1 CM)
     * MAX ABSORPTION (0.1 N NAOH): 226 NM, 263 NM
     * INDEX OF REFRACTION: ALPHA 1.520, GAMMA 1.732
     * IR: 8478 (Sadtler Research Laboratories IR Grating Collection)
     * UV: 2547 (Sadtler Research Laboratories Spectral Collection)
     * NMR: 615 (Varian Associates NMR Spectra Catalogue)
     * MASS: 1563 (National Bureau of Standards EPA-NIH Mass Spectra Data
       Base, NSRDS-NBS-63)
     * Intense mass spectral peaks: 56 m/z, 97 m/z, 123 m/z, 231 m/z

   from [7]HSDB

   Other Chemical/Physical Properties

     * FORMS EUTECTIC MIXT WITH ACETYLSALICYLIC ACID, PHENYL SALICYLATE,
       PHENOL, & CITRIC, TARTARIC & SALICYLIC ACIDS
     * IN PRESENCE OF WATER, READILY ATTACKED BY MILD OXIDIZING AGENTS;
       ADDITION OF SODIUM BENZOATE TO WATER INCR SOLUBILITY

   from [8]HSDB

   Computed Properties
   Molecular Weight                  231.29358 [g/mol]
   Molecular Formula                 C[13]H[17]N[3]O
   XLogP3                            1
   H-Bond Donor                      0
   H-Bond Acceptor                   3
   Rotatable Bond Count              2
   Exact Mass                        231.137162
   MonoIsotopic Mass                 231.137162
   Topological Polar Surface Area    26.8
   Heavy Atom Count                  17
   Formal Charge                     0
   Complexity                        343
   Isotope Atom Count                0
   Defined Atom Stereocenter Count   0
   Undefined Atom Stereocenter Count 0
   Defined Bond Stereocenter Count   0
   Undefined Bond Stereocenter Count 0
   Covalently-Bonded Unit Count      1
   Feature 3D Acceptor Count         1
   Feature 3D Cation Count           1
   Feature 3D Ring Count             2
   Effective Rotor Count             2
   Conformer Sampling RMSD           0.6
   CID Conformer Count               [9]4

References

   1. http://toxnet.nlm.nih.gov/cgi-bin/sis/search/r?dbs+hsdb:@term+@rn+@rel+58-15-1
   2. http://toxnet.nlm.nih.gov/cgi-bin/sis/search/r?dbs+hsdb:@term+@rn+@rel+58-15-1
   3. http://toxnet.nlm.nih.gov/cgi-bin/sis/search/r?dbs+hsdb:@term+@rn+@rel+58-15-1
   4. http://toxnet.nlm.nih.gov/cgi-bin/sis/search/r?dbs+hsdb:@term+@rn+@rel+58-15-1
   5. http://toxnet.nlm.nih.gov/cgi-bin/sis/search/r?dbs+hsdb:@term+@rn+@rel+58-15-1
   6. http://toxnet.nlm.nih.gov/cgi-bin/sis/search/r?dbs+hsdb:@term+@rn+@rel+58-15-1
   7. http://toxnet.nlm.nih.gov/cgi-bin/sis/search/r?dbs+hsdb:@term+@rn+@rel+58-15-1
   8. http://toxnet.nlm.nih.gov/cgi-bin/sis/search/r?dbs+hsdb:@term+@rn+@rel+58-15-1
   9. http://pubchem.ncbi.nlm.nih.gov/vw3d/vw3d.cgi?cid=6009
