443776
  -OEChem-07051213032D

 65 68  0     1  0  0  0  0  0999 V2000
    8.1060   -1.2846    0.0000 O   0  0  0  0  0  0  0  0  0  0  0  0
    6.3740    1.7154    0.0000 O   0  0  0  0  0  0  0  0  0  0  0  0
    3.7759   -1.7846    0.0000 O   0  0  0  0  0  0  0  0  0  0  0  0
    2.8718   -0.2878    0.0000 O   0  0  0  0  0  0  0  0  0  0  0  0
   10.7721    0.1946    0.0000 N   0  0  3  0  0  0  0  0  0  0  0  0
   10.7721    1.2362    0.0000 C   0  0  2  0  0  0  0  0  0  0  0  0
    9.8660   -0.3193    0.0000 C   0  0  1  0  0  0  0  0  0  0  0  0
    9.8660    1.7500    0.0000 C   0  0  0  0  0  0  0  0  0  0  0  0
    8.9721    0.2154    0.0000 C   0  0  0  0  0  0  0  0  0  0  0  0
    8.9721    1.2154    0.0000 C   0  0  0  0  0  0  0  0  0  0  0  0
    8.1060   -0.2846    0.0000 C   0  0  0  0  0  0  0  0  0  0  0  0
   11.6362    1.7395    0.0000 C   0  0  0  0  0  0  0  0  0  0  0  0
    9.8544   -1.3192    0.0000 C   0  0  0  0  0  0  0  0  0  0  0  0
   11.6362   -0.3088    0.0000 C   0  0  0  0  0  0  0  0  0  0  0  0
    8.1060    1.7154    0.0000 C   0  0  0  0  0  0  0  0  0  0  0  0
    7.2400    0.2154    0.0000 C   0  0  0  0  0  0  0  0  0  0  0  0
    7.2400    1.2154    0.0000 C   0  0  0  0  0  0  0  0  0  0  0  0
    6.3740   -0.2846    0.0000 C   0  0  0  0  0  0  0  0  0  0  0  0
    5.5080    0.2154    0.0000 C   0  0  0  0  0  0  0  0  0  0  0  0
    6.3740   -1.2846    0.0000 C   0  0  0  0  0  0  0  0  0  0  0  0
    4.6419   -0.2846    0.0000 C   0  0  0  0  0  0  0  0  0  0  0  0
    5.5240    1.2569    0.0000 C   0  0  0  0  0  0  0  0  0  0  0  0
    4.6419   -1.2846    0.0000 C   0  0  0  0  0  0  0  0  0  0  0  0
    5.5080   -1.7846    0.0000 C   0  0  0  0  0  0  0  0  0  0  0  0
    8.9721   -1.7846    0.0000 C   0  0  0  0  0  0  0  0  0  0  0  0
    3.7319    0.2222    0.0000 C   0  0  0  0  0  0  0  0  0  0  0  0
    4.6260    1.7846    0.0000 C   0  0  0  0  0  0  0  0  0  0  0  0
    6.3740    2.7154    0.0000 C   0  0  0  0  0  0  0  0  0  0  0  0
    3.7239    1.2638    0.0000 C   0  0  0  0  0  0  0  0  0  0  0  0
    4.6298    2.7846    0.0000 C   0  0  0  0  0  0  0  0  0  0  0  0
    3.7759   -2.7846    0.0000 C   0  0  0  0  0  0  0  0  0  0  0  0
    2.0000    0.2022    0.0000 C   0  0  0  0  0  0  0  0  0  0  0  0
   11.3096    0.9272    0.0000 H   0  0  0  0  0  0  0  0  0  0  0  0
   10.3999   -0.6344    0.0000 H   0  0  0  0  0  0  0  0  0  0  0  0
   10.2596    2.2290    0.0000 H   0  0  0  0  0  0  0  0  0  0  0  0
    9.4614    2.2198    0.0000 H   0  0  0  0  0  0  0  0  0  0  0  0
   11.9482    1.2038    0.0000 H   0  0  0  0  0  0  0  0  0  0  0  0
   12.1719    2.0516    0.0000 H   0  0  0  0  0  0  0  0  0  0  0  0
   11.3241    2.2753    0.0000 H   0  0  0  0  0  0  0  0  0  0  0  0
    9.2345   -1.3120    0.0000 H   0  0  0  0  0  0  0  0  0  0  0  0
    9.8473   -1.9392    0.0000 H   0  0  0  0  0  0  0  0  0  0  0  0
   10.4744   -1.3264    0.0000 H   0  0  0  0  0  0  0  0  0  0  0  0
    8.1060    2.3354    0.0000 H   0  0  0  0  0  0  0  0  0  0  0  0
   11.3241   -0.8445    0.0000 H   0  0  0  0  0  0  0  0  0  0  0  0
   12.1719   -0.6208    0.0000 H   0  0  0  0  0  0  0  0  0  0  0  0
   11.9482    0.2270    0.0000 H   0  0  0  0  0  0  0  0  0  0  0  0
    6.9109   -1.5946    0.0000 H   0  0  0  0  0  0  0  0  0  0  0  0
    6.0645    1.5607    0.0000 H   0  0  0  0  0  0  0  0  0  0  0  0
    5.5080   -2.4046    0.0000 H   0  0  0  0  0  0  0  0  0  0  0  0
    8.6621   -2.3216    0.0000 H   0  0  0  0  0  0  0  0  0  0  0  0
    9.5090   -2.0946    0.0000 H   0  0  0  0  0  0  0  0  0  0  0  0
    9.2821   -1.2477    0.0000 H   0  0  0  0  0  0  0  0  0  0  0  0
    6.9940    2.7154    0.0000 H   0  0  0  0  0  0  0  0  0  0  0  0
    6.3740    3.3354    0.0000 H   0  0  0  0  0  0  0  0  0  0  0  0
    5.7540    2.7154    0.0000 H   0  0  0  0  0  0  0  0  0  0  0  0
    3.1858    1.5718    0.0000 H   0  0  0  0  0  0  0  0  0  0  0  0
    5.2498    2.7822    0.0000 H   0  0  0  0  0  0  0  0  0  0  0  0
    4.6322    3.4046    0.0000 H   0  0  0  0  0  0  0  0  0  0  0  0
    4.0098    2.7870    0.0000 H   0  0  0  0  0  0  0  0  0  0  0  0
    3.1559   -2.7846    0.0000 H   0  0  0  0  0  0  0  0  0  0  0  0
    3.7759   -3.4046    0.0000 H   0  0  0  0  0  0  0  0  0  0  0  0
    4.3959   -2.7846    0.0000 H   0  0  0  0  0  0  0  0  0  0  0  0
    2.3038    0.7427    0.0000 H   0  0  0  0  0  0  0  0  0  0  0  0
    1.4595    0.5060    0.0000 H   0  0  0  0  0  0  0  0  0  0  0  0
    1.6962   -0.3383    0.0000 H   0  0  0  0  0  0  0  0  0  0  0  0
  1 11  1  0  0  0  0
  1 25  1  0  0  0  0
  2 17  1  0  0  0  0
  2 28  1  0  0  0  0
  3 23  1  0  0  0  0
  3 31  1  0  0  0  0
  4 26  1  0  0  0  0
  4 32  1  0  0  0  0
  5  6  1  0  0  0  0
  5  7  1  0  0  0  0
  5 14  1  0  0  0  0
  6  8  1  0  0  0  0
  6 12  1  6  0  0  0
  6 33  1  0  0  0  0
  7  9  1  0  0  0  0
  7 13  1  6  0  0  0
  7 34  1  0  0  0  0
  8 10  1  0  0  0  0
  8 35  1  0  0  0  0
  8 36  1  0  0  0  0
  9 10  1  0  0  0  0
  9 11  2  0  0  0  0
 10 15  2  0  0  0  0
 11 16  1  0  0  0  0
 12 37  1  0  0  0  0
 12 38  1  0  0  0  0
 12 39  1  0  0  0  0
 13 40  1  0  0  0  0
 13 41  1  0  0  0  0
 13 42  1  0  0  0  0
 14 44  1  0  0  0  0
 14 45  1  0  0  0  0
 14 46  1  0  0  0  0
 15 17  1  0  0  0  0
 15 43  1  0  0  0  0
 16 17  2  0  0  0  0
 16 18  1  0  0  0  0
 18 19  2  0  0  0  0
 18 20  1  0  0  0  0
 19 21  1  0  0  0  0
 19 22  1  0  0  0  0
 20 24  2  0  0  0  0
 20 47  1  0  0  0  0
 21 23  2  0  0  0  0
 21 26  1  0  0  0  0
 22 27  2  0  0  0  0
 22 48  1  0  0  0  0
 23 24  1  0  0  0  0
 24 49  1  0  0  0  0
 25 50  1  0  0  0  0
 25 51  1  0  0  0  0
 25 52  1  0  0  0  0
 26 29  2  0  0  0  0
 27 29  1  0  0  0  0
 27 30  1  0  0  0  0
 28 53  1  0  0  0  0
 28 54  1  0  0  0  0
 28 55  1  0  0  0  0
 29 56  1  0  0  0  0
 30 57  1  0  0  0  0
 30 58  1  0  0  0  0
 30 59  1  0  0  0  0
 31 60  1  0  0  0  0
 31 61  1  0  0  0  0
 31 62  1  0  0  0  0
 32 63  1  0  0  0  0
 32 64  1  0  0  0  0
 32 65  1  0  0  0  0
M  END
> <PUBCHEM_COMPOUND_CID>
443776

> <PUBCHEM_COMPOUND_CANONICALIZED>
1

> <PUBCHEM_CACTVS_COMPLEXITY>
617

> <PUBCHEM_CACTVS_HBOND_ACCEPTOR>
5

> <PUBCHEM_CACTVS_HBOND_DONOR>
0

> <PUBCHEM_CACTVS_ROTATABLE_BOND>
5

> <PUBCHEM_CACTVS_SUBSKEYS>
AAADcfB6OAAAAAAAAAAAAAAAAAAAAAAAAAA8YMEAAAAAAADxVAAAHgAAAAAADCzBmAYyBsMABACAAiBCAACCCAAgIAAIiAAODIgMJyKEsRuEMChnwBWIqAeQ8P8O4AADCAAYAADAAAYQADAAAAAAAAAAAA==

> <PUBCHEM_IUPAC_OPENEYE_NAME>
(1R,3S)-7-(4,5-dimethoxy-7-methyl-1-naphthyl)-6,8-dimethoxy-1,2,3-trimethyl-3,4-dihydro-1H-isoquinoline

> <PUBCHEM_IUPAC_CAS_NAME>
(1R,3S)-7-(4,5-dimethoxy-7-methyl-1-naphthalenyl)-6,8-dimethoxy-1,2,3-trimethyl-3,4-dihydro-1H-isoquinoline

> <PUBCHEM_IUPAC_NAME>
(1R,3S)-7-(4,5-dimethoxy-7-methylnaphthalen-1-yl)-6,8-dimethoxy-1,2,3-trimethyl-3,4-dihydro-1H-isoquinoline

> <PUBCHEM_IUPAC_SYSTEMATIC_NAME>
(1R,3S)-7-(4,5-dimethoxy-7-methyl-naphthalen-1-yl)-6,8-dimethoxy-1,2,3-trimethyl-3,4-dihydro-1H-isoquinoline

> <PUBCHEM_IUPAC_TRADITIONAL_NAME>
(1R,3S)-7-(4,5-dimethoxy-7-methyl-1-naphthyl)-6,8-dimethoxy-1,2,3-trimethyl-3,4-dihydro-1H-isoquinoline

> <PUBCHEM_IUPAC_INCHI>
InChI=1S/C27H33NO4/c1-15-11-20-19(9-10-21(29-5)25(20)22(12-15)30-6)26-23(31-7)14-18-13-16(2)28(4)17(3)24(18)27(26)32-8/h9-12,14,16-17H,13H2,1-8H3/t16-,17+/m0/s1

> <PUBCHEM_IUPAC_INCHIKEY>
PMARDQMILVWQBL-DLBZAZTESA-N

> <PUBCHEM_XLOGP3_AA>
5.8

> <PUBCHEM_EXACT_MASS>
435.240959

> <PUBCHEM_MOLECULAR_FORMULA>
C27H33NO4

> <PUBCHEM_MOLECULAR_WEIGHT>
435.55522

> <PUBCHEM_OPENEYE_CAN_SMILES>
CC1CC2=CC(=C(C(=C2C(N1C)C)OC)C3=C4C=C(C=C(C4=C(C=C3)OC)OC)C)OC

> <PUBCHEM_OPENEYE_ISO_SMILES>
C[C@H]1CC2=CC(=C(C(=C2[C@H](N1C)C)OC)C3=C4C=C(C=C(C4=C(C=C3)OC)OC)C)OC

> <PUBCHEM_CACTVS_TPSA>
40.2

> <PUBCHEM_MONOISOTOPIC_WEIGHT>
435.240959

> <PUBCHEM_TOTAL_CHARGE>
0

> <PUBCHEM_HEAVY_ATOM_COUNT>
32

> <PUBCHEM_ATOM_DEF_STEREO_COUNT>
2

> <PUBCHEM_ATOM_UDEF_STEREO_COUNT>
0

> <PUBCHEM_BOND_DEF_STEREO_COUNT>
0

> <PUBCHEM_BOND_UDEF_STEREO_COUNT>
0

> <PUBCHEM_ISOTOPIC_ATOM_COUNT>
0

> <PUBCHEM_COMPONENT_COUNT>
1

> <PUBCHEM_CACTVS_TAUTO_COUNT>
1

> <PUBCHEM_COORDINATE_TYPE>
1
5
255

> <PUBCHEM_BONDANNOTATIONS>
10  15  8
11  16  8
15  17  8
16  17  8
18  19  8
18  20  8
19  21  8
19  22  8
20  24  8
21  23  8
21  26  8
22  27  8
23  24  8
26  29  8
27  29  8
6  12  6
7  13  6
9  10  8
9  11  8

$$$$

