5281256
  -OEChem-07051212552D

 74 77  0     1  0  0  0  0  0999 V2000
    7.7331   -4.2500    0.0000 O   0  0  0  0  0  0  0  0  0  0  0  0
    5.1350    4.2500    0.0000 O   0  0  0  0  0  0  0  0  0  0  0  0
    6.0010   -6.2500    0.0000 O   0  0  0  0  0  0  0  0  0  0  0  0
    7.7331   -7.2500    0.0000 O   0  0  0  0  0  0  0  0  0  0  0  0
    3.4030    6.2500    0.0000 O   0  0  0  0  0  0  0  0  0  0  0  0
    5.1350    7.2500    0.0000 O   0  0  0  0  0  0  0  0  0  0  0  0
    9.4651   -4.2500    0.0000 O   0  0  0  0  0  0  0  0  0  0  0  0
    6.8671    4.2500    0.0000 O   0  0  0  0  0  0  0  0  0  0  0  0
    9.4651   -6.2500    0.0000 O   0  0  0  0  0  0  0  0  0  0  0  0
    6.8671    6.2500    0.0000 O   0  0  0  0  0  0  0  0  0  0  0  0
    5.1350   -4.7500    0.0000 O   0  0  0  0  0  0  0  0  0  0  0  0
    2.5369    4.7500    0.0000 O   0  0  0  0  0  0  0  0  0  0  0  0
   11.1972   -3.2500    0.0000 O   0  0  0  0  0  0  0  0  0  0  0  0
    8.5991    1.2500    0.0000 O   0  0  0  0  0  0  0  0  0  0  0  0
    6.0010   -0.2500    0.0000 O   0  0  0  0  0  0  0  0  0  0  0  0
    6.8671   -5.7500    0.0000 C   0  0  1  0  0  0  0  0  0  0  0  0
    7.7331   -6.2500    0.0000 C   0  0  1  0  0  0  0  0  0  0  0  0
    4.2690    5.7500    0.0000 C   0  0  1  0  0  0  0  0  0  0  0  0
    5.1350    6.2500    0.0000 C   0  0  1  0  0  0  0  0  0  0  0  0
    6.8671   -4.7500    0.0000 C   0  0  1  0  0  0  0  0  0  0  0  0
    8.5991   -5.7500    0.0000 C   0  0  2  0  0  0  0  0  0  0  0  0
    4.2690    4.7500    0.0000 C   0  0  1  0  0  0  0  0  0  0  0  0
    6.0010    5.7500    0.0000 C   0  0  2  0  0  0  0  0  0  0  0  0
    8.5991   -4.7500    0.0000 C   0  0  1  0  0  0  0  0  0  0  0  0
    6.0010    4.7500    0.0000 C   0  0  1  0  0  0  0  0  0  0  0  0
    6.0010   -4.2500    0.0000 C   0  0  0  0  0  0  0  0  0  0  0  0
    3.4030    4.2500    0.0000 C   0  0  0  0  0  0  0  0  0  0  0  0
    9.4651   -3.2500    0.0000 C   0  0  0  0  0  0  0  0  0  0  0  0
    6.8671    3.2500    0.0000 C   0  0  0  0  0  0  0  0  0  0  0  0
    8.5991   -2.7500    0.0000 C   0  0  0  0  0  0  0  0  0  0  0  0
   10.3312   -2.7500    0.0000 C   0  0  0  0  0  0  0  0  0  0  0  0
    7.7331    2.7500    0.0000 C   0  0  0  0  0  0  0  0  0  0  0  0
    6.0010    2.7500    0.0000 C   0  0  0  0  0  0  0  0  0  0  0  0
    8.5991   -1.7500    0.0000 C   0  0  0  0  0  0  0  0  0  0  0  0
    7.7331    1.7500    0.0000 C   0  0  0  0  0  0  0  0  0  0  0  0
    6.0010    1.7500    0.0000 C   0  0  0  0  0  0  0  0  0  0  0  0
    6.8671    1.2500    0.0000 C   0  0  0  0  0  0  0  0  0  0  0  0
   10.3312   -1.7500    0.0000 C   0  0  0  0  0  0  0  0  0  0  0  0
    9.4651   -1.2500    0.0000 C   0  0  0  0  0  0  0  0  0  0  0  0
    7.7331   -1.2500    0.0000 C   0  0  0  0  0  0  0  0  0  0  0  0
    6.8671    0.2500    0.0000 C   0  0  0  0  0  0  0  0  0  0  0  0
    7.7331   -0.2500    0.0000 C   0  0  0  0  0  0  0  0  0  0  0  0
    6.3301   -5.4400    0.0000 H   0  0  0  0  0  0  0  0  0  0  0  0
    8.2700   -6.5600    0.0000 H   0  0  0  0  0  0  0  0  0  0  0  0
    4.2690    6.3700    0.0000 H   0  0  0  0  0  0  0  0  0  0  0  0
    5.6720    6.5600    0.0000 H   0  0  0  0  0  0  0  0  0  0  0  0
    6.8671   -4.1300    0.0000 H   0  0  0  0  0  0  0  0  0  0  0  0
    8.5991   -6.3700    0.0000 H   0  0  0  0  0  0  0  0  0  0  0  0
    4.2690    4.1300    0.0000 H   0  0  0  0  0  0  0  0  0  0  0  0
    6.5380    5.4400    0.0000 H   0  0  0  0  0  0  0  0  0  0  0  0
    8.5991   -4.1300    0.0000 H   0  0  0  0  0  0  0  0  0  0  0  0
    6.5380    5.0600    0.0000 H   0  0  0  0  0  0  0  0  0  0  0  0
    6.3996   -3.7750    0.0000 H   0  0  0  0  0  0  0  0  0  0  0  0
    5.6025   -3.7750    0.0000 H   0  0  0  0  0  0  0  0  0  0  0  0
    3.0044    3.7750    0.0000 H   0  0  0  0  0  0  0  0  0  0  0  0
    3.8015    3.7750    0.0000 H   0  0  0  0  0  0  0  0  0  0  0  0
    6.0010   -6.8700    0.0000 H   0  0  0  0  0  0  0  0  0  0  0  0
    7.1962   -7.5600    0.0000 H   0  0  0  0  0  0  0  0  0  0  0  0
    3.4030    6.8700    0.0000 H   0  0  0  0  0  0  0  0  0  0  0  0
    4.5981    7.5600    0.0000 H   0  0  0  0  0  0  0  0  0  0  0  0
    9.4651   -6.8700    0.0000 H   0  0  0  0  0  0  0  0  0  0  0  0
    6.8671    6.8700    0.0000 H   0  0  0  0  0  0  0  0  0  0  0  0
    4.5981   -4.4400    0.0000 H   0  0  0  0  0  0  0  0  0  0  0  0
    2.0000    4.4400    0.0000 H   0  0  0  0  0  0  0  0  0  0  0  0
    8.0622   -3.0600    0.0000 H   0  0  0  0  0  0  0  0  0  0  0  0
    8.2700    3.0600    0.0000 H   0  0  0  0  0  0  0  0  0  0  0  0
    5.4641    3.0600    0.0000 H   0  0  0  0  0  0  0  0  0  0  0  0
    5.4641    1.4400    0.0000 H   0  0  0  0  0  0  0  0  0  0  0  0
   10.8681   -1.4400    0.0000 H   0  0  0  0  0  0  0  0  0  0  0  0
    9.4651   -0.6300    0.0000 H   0  0  0  0  0  0  0  0  0  0  0  0
    7.1962   -1.5600    0.0000 H   0  0  0  0  0  0  0  0  0  0  0  0
   11.7341   -2.9400    0.0000 H   0  0  0  0  0  0  0  0  0  0  0  0
    8.2700    0.0600    0.0000 H   0  0  0  0  0  0  0  0  0  0  0  0
    9.1360    1.5600    0.0000 H   0  0  0  0  0  0  0  0  0  0  0  0
  1 20  1  0  0  0  0
  1 24  1  0  0  0  0
  2 22  1  0  0  0  0
  2 25  1  0  0  0  0
 16  3  1  6  0  0  0
  3 57  1  0  0  0  0
 17  4  1  1  0  0  0
  4 58  1  0  0  0  0
 18  5  1  1  0  0  0
  5 59  1  0  0  0  0
 19  6  1  6  0  0  0
  6 60  1  0  0  0  0
 24  7  1  1  0  0  0
  7 28  1  0  0  0  0
 25  8  1  6  0  0  0
  8 29  1  0  0  0  0
 21  9  1  6  0  0  0
  9 61  1  0  0  0  0
 23 10  1  1  0  0  0
 10 62  1  0  0  0  0
 11 26  1  0  0  0  0
 11 63  1  0  0  0  0
 12 27  1  0  0  0  0
 12 64  1  0  0  0  0
 13 31  1  0  0  0  0
 13 72  1  0  0  0  0
 14 35  1  0  0  0  0
 14 74  1  0  0  0  0
 15 41  2  0  0  0  0
 16 17  1  0  0  0  0
 16 20  1  0  0  0  0
 16 43  1  0  0  0  0
 17 21  1  0  0  0  0
 17 44  1  0  0  0  0
 18 19  1  0  0  0  0
 18 22  1  0  0  0  0
 18 45  1  0  0  0  0
 19 23  1  0  0  0  0
 19 46  1  0  0  0  0
 20 26  1  1  0  0  0
 20 47  1  0  0  0  0
 21 24  1  0  0  0  0
 21 48  1  0  0  0  0
 22 27  1  6  0  0  0
 22 49  1  0  0  0  0
 23 25  1  0  0  0  0
 23 50  1  0  0  0  0
 24 51  1  0  0  0  0
 25 52  1  0  0  0  0
 26 53  1  0  0  0  0
 26 54  1  0  0  0  0
 27 55  1  0  0  0  0
 27 56  1  0  0  0  0
 28 30  1  0  0  0  0
 28 31  2  0  0  0  0
 29 32  2  0  0  0  0
 29 33  1  0  0  0  0
 30 34  2  0  0  0  0
 30 65  1  0  0  0  0
 31 38  1  0  0  0  0
 32 35  1  0  0  0  0
 32 66  1  0  0  0  0
 33 36  2  0  0  0  0
 33 67  1  0  0  0  0
 34 39  1  0  0  0  0
 34 40  1  0  0  0  0
 35 37  2  0  0  0  0
 36 37  1  0  0  0  0
 36 68  1  0  0  0  0
 37 41  1  0  0  0  0
 38 39  2  0  0  0  0
 38 69  1  0  0  0  0
 39 70  1  0  0  0  0
 40 42  2  0  0  0  0
 40 71  1  0  0  0  0
 41 42  1  0  0  0  0
 42 73  1  0  0  0  0
M  END
> <PUBCHEM_COMPOUND_CID>
5281256

> <PUBCHEM_COMPOUND_CANONICALIZED>
1

> <PUBCHEM_CACTVS_COMPLEXITY>
905

> <PUBCHEM_CACTVS_HBOND_ACCEPTOR>
15

> <PUBCHEM_CACTVS_HBOND_DONOR>
10

> <PUBCHEM_CACTVS_ROTATABLE_BOND>
9

> <PUBCHEM_CACTVS_SUBSKEYS>
AAADcfB4PAAAAAAAAAAAAAAAAAAAAAAAAAA0aIEAAAAAAAABQAAAGgAACAAADBSwmAMwDoAABgCIAqBSAAACCAAkIAAIiAEGiMgdNzaGNRqieWOl4BUPuYfI7LzOIAABCAAIQABAAAIQABCAAAAAAAAAAA==

> <PUBCHEM_IUPAC_OPENEYE_NAME>
(E)-1-[2-hydroxy-4-[(2S,3R,4S,5S,6R)-3,4,5-trihydroxy-6-(hydroxymethyl)tetrahydropyran-2-yl]oxy-phenyl]-3-[4-hydroxy-3-[(2S,3R,4S,5S,6R)-3,4,5-trihydroxy-6-(hydroxymethyl)tetrahydropyran-2-yl]oxy-phenyl]prop-2-en-1-one

> <PUBCHEM_IUPAC_CAS_NAME>
(E)-1-[2-hydroxy-4-[[(2S,3R,4S,5S,6R)-3,4,5-trihydroxy-6-(hydroxymethyl)-2-oxanyl]oxy]phenyl]-3-[4-hydroxy-3-[[(2S,3R,4S,5S,6R)-3,4,5-trihydroxy-6-(hydroxymethyl)-2-oxanyl]oxy]phenyl]-2-propen-1-one

> <PUBCHEM_IUPAC_NAME>
(E)-1-[2-hydroxy-4-[(2S,3R,4S,5S,6R)-3,4,5-trihydroxy-6-(hydroxymethyl)oxan-2-yl]oxyphenyl]-3-[4-hydroxy-3-[(2S,3R,4S,5S,6R)-3,4,5-trihydroxy-6-(hydroxymethyl)oxan-2-yl]oxyphenyl]prop-2-en-1-one

> <PUBCHEM_IUPAC_SYSTEMATIC_NAME>
(E)-3-[3-[(2S,3R,4S,5S,6R)-6-(hydroxymethyl)-3,4,5-tris(oxidanyl)oxan-2-yl]oxy-4-oxidanyl-phenyl]-1-[4-[(2S,3R,4S,5S,6R)-6-(hydroxymethyl)-3,4,5-tris(oxidanyl)oxan-2-yl]oxy-2-oxidanyl-phenyl]prop-2-en-1-one

> <PUBCHEM_IUPAC_TRADITIONAL_NAME>
(E)-1-[2-hydroxy-4-[(2S,3R,4S,5S,6R)-3,4,5-trihydroxy-6-methylol-tetrahydropyran-2-yl]oxy-phenyl]-3-[4-hydroxy-3-[(2S,3R,4S,5S,6R)-3,4,5-trihydroxy-6-methylol-tetrahydropyran-2-yl]oxy-phenyl]prop-2-en-1-one

> <PUBCHEM_IUPAC_INCHI>
InChI=1S/C27H32O15/c28-9-18-20(33)22(35)24(37)26(41-18)39-12-3-4-13(16(32)8-12)14(30)5-1-11-2-6-15(31)17(7-11)40-27-25(38)23(36)21(34)19(10-29)42-27/h1-8,18-29,31-38H,9-10H2/b5-1+/t18-,19-,20-,21-,22+,23+,24-,25-,26-,27-/m1/s1

> <PUBCHEM_IUPAC_INCHIKEY>
XOTWNDIAAITUKR-KUUXHJTOSA-N

> <PUBCHEM_XLOGP3_AA>
-0.8

> <PUBCHEM_EXACT_MASS>
596.17412

> <PUBCHEM_MOLECULAR_FORMULA>
C27H32O15

> <PUBCHEM_MOLECULAR_WEIGHT>
596.53398

> <PUBCHEM_OPENEYE_CAN_SMILES>
C1=CC(=C(C=C1C=CC(=O)C2=C(C=C(C=C2)OC3C(C(C(C(O3)CO)O)O)O)O)OC4C(C(C(C(O4)CO)O)O)O)O

> <PUBCHEM_OPENEYE_ISO_SMILES>
C1=CC(=C(C=C1/C=C/C(=O)C2=C(C=C(C=C2)O[C@H]3[C@@H]([C@H]([C@@H]([C@H](O3)CO)O)O)O)O)O[C@H]4[C@@H]([C@H]([C@@H]([C@H](O4)CO)O)O)O)O

> <PUBCHEM_CACTVS_TPSA>
256

> <PUBCHEM_MONOISOTOPIC_WEIGHT>
596.17412

> <PUBCHEM_TOTAL_CHARGE>
0

> <PUBCHEM_HEAVY_ATOM_COUNT>
42

> <PUBCHEM_ATOM_DEF_STEREO_COUNT>
10

> <PUBCHEM_ATOM_UDEF_STEREO_COUNT>
0

> <PUBCHEM_BOND_DEF_STEREO_COUNT>
1

> <PUBCHEM_BOND_UDEF_STEREO_COUNT>
0

> <PUBCHEM_ISOTOPIC_ATOM_COUNT>
0

> <PUBCHEM_COMPONENT_COUNT>
1

> <PUBCHEM_CACTVS_TAUTO_COUNT>
29

> <PUBCHEM_COORDINATE_TYPE>
1
5
255

> <PUBCHEM_BONDANNOTATIONS>
23  10  5
20  26  5
22  27  6
28  30  8
28  31  8
29  32  8
29  33  8
16  3  6
30  34  8
31  38  8
32  35  8
33  36  8
34  39  8
35  37  8
36  37  8
38  39  8
17  4  5
18  5  5
19  6  6
24  7  5
25  8  6
21  9  6

$$$$

