47346
  -OEChem-07051213102D

 54 53  0     0  0  0  0  0  0999 V2000
   14.9904    1.0600    0.0000 O   0  0  0  0  0  0  0  0  0  0  0  0
   14.1244   -0.4400    0.0000 N   0  0  0  0  0  0  0  0  0  0  0  0
    7.1962   -0.4400    0.0000 C   0  0  0  0  0  0  0  0  0  0  0  0
    6.3301    0.0600    0.0000 C   0  0  0  0  0  0  0  0  0  0  0  0
    8.0622    0.0600    0.0000 C   0  0  0  0  0  0  0  0  0  0  0  0
    5.4641   -0.4400    0.0000 C   0  0  0  0  0  0  0  0  0  0  0  0
    8.9282   -0.4400    0.0000 C   0  0  0  0  0  0  0  0  0  0  0  0
    4.5981    0.0600    0.0000 C   0  0  0  0  0  0  0  0  0  0  0  0
    9.7942    0.0600    0.0000 C   0  0  0  0  0  0  0  0  0  0  0  0
    3.7320   -0.4400    0.0000 C   0  0  0  0  0  0  0  0  0  0  0  0
   10.6603   -0.4400    0.0000 C   0  0  0  0  0  0  0  0  0  0  0  0
    2.8660    0.0600    0.0000 C   0  0  0  0  0  0  0  0  0  0  0  0
   11.5263    0.0600    0.0000 C   0  0  0  0  0  0  0  0  0  0  0  0
   12.3923   -0.4400    0.0000 C   0  0  0  0  0  0  0  0  0  0  0  0
    2.0000   -0.4400    0.0000 C   0  0  0  0  0  0  0  0  0  0  0  0
    2.8660    1.0600    0.0000 C   0  0  0  0  0  0  0  0  0  0  0  0
   13.2583    0.0600    0.0000 C   0  0  0  0  0  0  0  0  0  0  0  0
   14.9904    0.0600    0.0000 C   0  0  0  0  0  0  0  0  0  0  0  0
   15.8564   -0.4400    0.0000 C   0  0  0  0  0  0  0  0  0  0  0  0
    6.7976   -0.9149    0.0000 H   0  0  0  0  0  0  0  0  0  0  0  0
    7.5947   -0.9149    0.0000 H   0  0  0  0  0  0  0  0  0  0  0  0
    6.7287    0.5349    0.0000 H   0  0  0  0  0  0  0  0  0  0  0  0
    5.9316    0.5349    0.0000 H   0  0  0  0  0  0  0  0  0  0  0  0
    8.4607    0.5349    0.0000 H   0  0  0  0  0  0  0  0  0  0  0  0
    7.6636    0.5349    0.0000 H   0  0  0  0  0  0  0  0  0  0  0  0
    5.0656   -0.9149    0.0000 H   0  0  0  0  0  0  0  0  0  0  0  0
    5.8626   -0.9149    0.0000 H   0  0  0  0  0  0  0  0  0  0  0  0
    8.5297   -0.9149    0.0000 H   0  0  0  0  0  0  0  0  0  0  0  0
    9.3267   -0.9149    0.0000 H   0  0  0  0  0  0  0  0  0  0  0  0
    4.9966    0.5349    0.0000 H   0  0  0  0  0  0  0  0  0  0  0  0
    4.1996    0.5349    0.0000 H   0  0  0  0  0  0  0  0  0  0  0  0
   10.1928    0.5349    0.0000 H   0  0  0  0  0  0  0  0  0  0  0  0
    9.3957    0.5349    0.0000 H   0  0  0  0  0  0  0  0  0  0  0  0
    3.3335   -0.9149    0.0000 H   0  0  0  0  0  0  0  0  0  0  0  0
    4.1306   -0.9149    0.0000 H   0  0  0  0  0  0  0  0  0  0  0  0
   10.2617   -0.9149    0.0000 H   0  0  0  0  0  0  0  0  0  0  0  0
   11.0588   -0.9149    0.0000 H   0  0  0  0  0  0  0  0  0  0  0  0
    2.8660   -0.5600    0.0000 H   0  0  0  0  0  0  0  0  0  0  0  0
   11.9248    0.5349    0.0000 H   0  0  0  0  0  0  0  0  0  0  0  0
   11.1278    0.5349    0.0000 H   0  0  0  0  0  0  0  0  0  0  0  0
   11.9938   -0.9149    0.0000 H   0  0  0  0  0  0  0  0  0  0  0  0
   12.7908   -0.9149    0.0000 H   0  0  0  0  0  0  0  0  0  0  0  0
    3.4860    1.0600    0.0000 H   0  0  0  0  0  0  0  0  0  0  0  0
    2.8660    1.6800    0.0000 H   0  0  0  0  0  0  0  0  0  0  0  0
    2.2460    1.0600    0.0000 H   0  0  0  0  0  0  0  0  0  0  0  0
    1.6900    0.0969    0.0000 H   0  0  0  0  0  0  0  0  0  0  0  0
    1.4631   -0.7500    0.0000 H   0  0  0  0  0  0  0  0  0  0  0  0
    2.3100   -0.9769    0.0000 H   0  0  0  0  0  0  0  0  0  0  0  0
   13.6569    0.5349    0.0000 H   0  0  0  0  0  0  0  0  0  0  0  0
   12.8598    0.5349    0.0000 H   0  0  0  0  0  0  0  0  0  0  0  0
   14.1244   -1.0600    0.0000 H   0  0  0  0  0  0  0  0  0  0  0  0
   15.5464   -0.9769    0.0000 H   0  0  0  0  0  0  0  0  0  0  0  0
   16.3933   -0.7500    0.0000 H   0  0  0  0  0  0  0  0  0  0  0  0
   16.1664    0.0969    0.0000 H   0  0  0  0  0  0  0  0  0  0  0  0
  1 18  2  0  0  0  0
  2 17  1  0  0  0  0
  2 18  1  0  0  0  0
  2 51  1  0  0  0  0
  3  4  1  0  0  0  0
  3  5  1  0  0  0  0
  3 20  1  0  0  0  0
  3 21  1  0  0  0  0
  4  6  1  0  0  0  0
  4 22  1  0  0  0  0
  4 23  1  0  0  0  0
  5  7  1  0  0  0  0
  5 24  1  0  0  0  0
  5 25  1  0  0  0  0
  6  8  1  0  0  0  0
  6 26  1  0  0  0  0
  6 27  1  0  0  0  0
  7  9  1  0  0  0  0
  7 28  1  0  0  0  0
  7 29  1  0  0  0  0
  8 10  1  0  0  0  0
  8 30  1  0  0  0  0
  8 31  1  0  0  0  0
  9 11  1  0  0  0  0
  9 32  1  0  0  0  0
  9 33  1  0  0  0  0
 10 12  1  0  0  0  0
 10 34  1  0  0  0  0
 10 35  1  0  0  0  0
 11 13  1  0  0  0  0
 11 36  1  0  0  0  0
 11 37  1  0  0  0  0
 12 15  1  0  0  0  0
 12 16  1  0  0  0  0
 12 38  1  0  0  0  0
 13 14  1  0  0  0  0
 13 39  1  0  0  0  0
 13 40  1  0  0  0  0
 14 17  1  0  0  0  0
 14 41  1  0  0  0  0
 14 42  1  0  0  0  0
 15 46  1  0  0  0  0
 15 47  1  0  0  0  0
 15 48  1  0  0  0  0
 16 43  1  0  0  0  0
 16 44  1  0  0  0  0
 16 45  1  0  0  0  0
 17 49  1  0  0  0  0
 17 50  1  0  0  0  0
 18 19  1  0  0  0  0
 19 52  1  0  0  0  0
 19 53  1  0  0  0  0
 19 54  1  0  0  0  0
M  END
> <PUBCHEM_COMPOUND_CID>
47346

> <PUBCHEM_COMPOUND_CANONICALIZED>
1

> <PUBCHEM_CACTVS_COMPLEXITY>
201

> <PUBCHEM_CACTVS_HBOND_ACCEPTOR>
1

> <PUBCHEM_CACTVS_HBOND_DONOR>
1

> <PUBCHEM_CACTVS_ROTATABLE_BOND>
13

> <PUBCHEM_CACTVS_SUBSKEYS>
AAADcfB6IAAAAAAAAAAAAAAAAAAAAAAAAAAAAAAAAAAAAAAAAAAAHgAQAAAADQDBgAQCAALAAAAIAAEQEAAAAAAAAAAAAIAIAAAAAAIAgAAEAAAAFgCAAAEQgMAMAAAAAAAAAAAAAAAAAAAAAAAAAAAAAA==

> <PUBCHEM_IUPAC_OPENEYE_NAME>
N-(13-methyltetradecyl)acetamide

> <PUBCHEM_IUPAC_CAS_NAME>
N-(13-methyltetradecyl)acetamide

> <PUBCHEM_IUPAC_NAME>
N-(13-methyltetradecyl)acetamide

> <PUBCHEM_IUPAC_SYSTEMATIC_NAME>
N-(13-methyltetradecyl)ethanamide

> <PUBCHEM_IUPAC_TRADITIONAL_NAME>
N-(13-methyltetradecyl)acetamide

> <PUBCHEM_IUPAC_INCHI>
InChI=1S/C17H35NO/c1-16(2)14-12-10-8-6-4-5-7-9-11-13-15-18-17(3)19/h16H,4-15H2,1-3H3,(H,18,19)

> <PUBCHEM_IUPAC_INCHIKEY>
AMLDBWWQKYLAHJ-UHFFFAOYSA-N

> <PUBCHEM_XLOGP3_AA>
6.5

> <PUBCHEM_EXACT_MASS>
269.271865

> <PUBCHEM_MOLECULAR_FORMULA>
C17H35NO

> <PUBCHEM_MOLECULAR_WEIGHT>
269.4659

> <PUBCHEM_OPENEYE_CAN_SMILES>
CC(C)CCCCCCCCCCCCNC(=O)C

> <PUBCHEM_OPENEYE_ISO_SMILES>
CC(C)CCCCCCCCCCCCNC(=O)C

> <PUBCHEM_CACTVS_TPSA>
29.1

> <PUBCHEM_MONOISOTOPIC_WEIGHT>
269.271865

> <PUBCHEM_TOTAL_CHARGE>
0

> <PUBCHEM_HEAVY_ATOM_COUNT>
19

> <PUBCHEM_ATOM_DEF_STEREO_COUNT>
0

> <PUBCHEM_ATOM_UDEF_STEREO_COUNT>
0

> <PUBCHEM_BOND_DEF_STEREO_COUNT>
0

> <PUBCHEM_BOND_UDEF_STEREO_COUNT>
0

> <PUBCHEM_ISOTOPIC_ATOM_COUNT>
0

> <PUBCHEM_COMPONENT_COUNT>
1

> <PUBCHEM_CACTVS_TAUTO_COUNT>
2

> <PUBCHEM_COORDINATE_TYPE>
1
5
255

$$$$

