5321317
  -OEChem-07051213112D

 46 50  0     1  0  0  0  0  0999 V2000
    4.6571   -3.7408    0.0000 O   0  0  0  0  0  0  0  0  0  0  0  0
    3.2118   -4.5902    0.0000 O   0  0  0  0  0  0  0  0  0  0  0  0
    2.0116    3.1265    0.0000 O   0  0  0  0  0  0  0  0  0  0  0  0
    3.8149    4.1863    0.0000 O   0  0  0  0  0  0  0  0  0  0  0  0
    4.7340   -0.5104    0.0000 N   0  0  3  0  0  0  0  0  0  0  0  0
    3.8680   -0.0104    0.0000 C   0  0  3  0  0  0  0  0  0  0  0  0
    3.0020   -0.5104    0.0000 C   0  0  0  0  0  0  0  0  0  0  0  0
    5.6440   -0.0036    0.0000 C   0  0  0  0  0  0  0  0  0  0  0  0
    4.7340   -1.5104    0.0000 C   0  0  0  0  0  0  0  0  0  0  0  0
    3.8520    1.0311    0.0000 C   0  0  0  0  0  0  0  0  0  0  0  0
    5.6521    1.0380    0.0000 C   0  0  0  0  0  0  0  0  0  0  0  0
    3.0020   -1.5104    0.0000 C   0  0  0  0  0  0  0  0  0  0  0  0
    3.8680   -2.0104    0.0000 C   0  0  0  0  0  0  0  0  0  0  0  0
    4.7500    1.5588    0.0000 C   0  0  0  0  0  0  0  0  0  0  0  0
    3.8841   -3.0519    0.0000 C   0  0  0  0  0  0  0  0  0  0  0  0
    2.9000    1.5517    0.0000 C   0  0  0  0  0  0  0  0  0  0  0  0
    2.0920   -2.0173    0.0000 C   0  0  0  0  0  0  0  0  0  0  0  0
    4.7584    2.6438    0.0000 C   0  0  0  0  0  0  0  0  0  0  0  0
    2.9860   -3.5797    0.0000 C   0  0  0  0  0  0  0  0  0  0  0  0
    2.8833    2.6366    0.0000 C   0  0  0  0  0  0  0  0  0  0  0  0
    2.0840   -3.0589    0.0000 C   0  0  0  0  0  0  0  0  0  0  0  0
    3.8187    3.1863    0.0000 C   0  0  0  0  0  0  0  0  0  0  0  0
    4.2424   -4.6896    0.0000 C   0  0  0  0  0  0  0  0  0  0  0  0
    2.0000    4.1265    0.0000 C   0  0  0  0  0  0  0  0  0  0  0  0
    4.6790    4.6896    0.0000 C   0  0  0  0  0  0  0  0  0  0  0  0
    3.3287    0.2954    0.0000 H   0  0  0  0  0  0  0  0  0  0  0  0
    2.7900    0.0722    0.0000 H   0  0  0  0  0  0  0  0  0  0  0  0
    2.3914   -0.6181    0.0000 H   0  0  0  0  0  0  0  0  0  0  0  0
    5.8486   -0.5889    0.0000 H   0  0  0  0  0  0  0  0  0  0  0  0
    6.2557    0.0978    0.0000 H   0  0  0  0  0  0  0  0  0  0  0  0
    4.9461   -2.0930    0.0000 H   0  0  0  0  0  0  0  0  0  0  0  0
    5.3446   -1.4028    0.0000 H   0  0  0  0  0  0  0  0  0  0  0  0
    6.2621    0.9272    0.0000 H   0  0  0  0  0  0  0  0  0  0  0  0
    5.8656    1.6201    0.0000 H   0  0  0  0  0  0  0  0  0  0  0  0
    2.3692    1.2314    0.0000 H   0  0  0  0  0  0  0  0  0  0  0  0
    1.5587   -1.7011    0.0000 H   0  0  0  0  0  0  0  0  0  0  0  0
    5.2965    2.9517    0.0000 H   0  0  0  0  0  0  0  0  0  0  0  0
    1.5458   -3.3668    0.0000 H   0  0  0  0  0  0  0  0  0  0  0  0
    4.1184   -5.2971    0.0000 H   0  0  0  0  0  0  0  0  0  0  0  0
    4.8335   -4.8768    0.0000 H   0  0  0  0  0  0  0  0  0  0  0  0
    2.6200    4.1336    0.0000 H   0  0  0  0  0  0  0  0  0  0  0  0
    1.9928    4.7464    0.0000 H   0  0  0  0  0  0  0  0  0  0  0  0
    1.3800    4.1193    0.0000 H   0  0  0  0  0  0  0  0  0  0  0  0
    4.9910    4.1539    0.0000 H   0  0  0  0  0  0  0  0  0  0  0  0
    5.2147    5.0017    0.0000 H   0  0  0  0  0  0  0  0  0  0  0  0
    4.3669    5.2254    0.0000 H   0  0  0  0  0  0  0  0  0  0  0  0
  1 15  1  0  0  0  0
  1 23  1  0  0  0  0
  2 19  1  0  0  0  0
  2 23  1  0  0  0  0
  3 20  1  0  0  0  0
  3 24  1  0  0  0  0
  4 22  1  0  0  0  0
  4 25  1  0  0  0  0
  5  6  1  0  0  0  0
  5  8  1  0  0  0  0
  5  9  1  0  0  0  0
  6  7  1  0  0  0  0
  6 10  1  0  0  0  0
  6 26  1  0  0  0  0
  7 12  1  0  0  0  0
  7 27  1  0  0  0  0
  7 28  1  0  0  0  0
  8 11  1  0  0  0  0
  8 29  1  0  0  0  0
  8 30  1  0  0  0  0
  9 13  1  0  0  0  0
  9 31  1  0  0  0  0
  9 32  1  0  0  0  0
 10 14  1  0  0  0  0
 10 16  2  0  0  0  0
 11 14  1  0  0  0  0
 11 33  1  0  0  0  0
 11 34  1  0  0  0  0
 12 13  2  0  0  0  0
 12 17  1  0  0  0  0
 13 15  1  0  0  0  0
 14 18  2  0  0  0  0
 15 19  2  0  0  0  0
 16 20  1  0  0  0  0
 16 35  1  0  0  0  0
 17 21  2  0  0  0  0
 17 36  1  0  0  0  0
 18 22  1  0  0  0  0
 18 37  1  0  0  0  0
 19 21  1  0  0  0  0
 20 22  2  0  0  0  0
 21 38  1  0  0  0  0
 23 39  1  0  0  0  0
 23 40  1  0  0  0  0
 24 41  1  0  0  0  0
 24 42  1  0  0  0  0
 24 43  1  0  0  0  0
 25 44  1  0  0  0  0
 25 45  1  0  0  0  0
 25 46  1  0  0  0  0
M  END
> <PUBCHEM_COMPOUND_CID>
5321317

> <PUBCHEM_COMPOUND_CANONICALIZED>
1

> <PUBCHEM_CACTVS_COMPLEXITY>
488

> <PUBCHEM_CACTVS_HBOND_ACCEPTOR>
5

> <PUBCHEM_CACTVS_HBOND_DONOR>
0

> <PUBCHEM_CACTVS_ROTATABLE_BOND>
2

> <PUBCHEM_CACTVS_SUBSKEYS>
AAADceB6OAAAAAAAAAAAAAAAAAAAASAAAAA8eIEAAAAAAEixQAAAHgAAAAAADCzBmAcyDoMABACAAiBCAACCCAAgIAAIiAAOjIgdJiKEsRukMCpmwBGOqAew0PMOoAABAAAYQABAAAIAADCAAAAAAAAAAA==

> <PUBCHEM_IUPAC_INCHI>
InChI=1S/C20H21NO4/c1-22-18-8-13-5-6-21-10-15-12(3-4-17-20(15)25-11-24-17)7-16(21)14(13)9-19(18)23-2/h3-4,8-9,16H,5-7,10-11H2,1-2H3

> <PUBCHEM_IUPAC_INCHIKEY>
UWEHVAXMSWXKRW-UHFFFAOYSA-N

> <PUBCHEM_XLOGP3_AA>
3.1

> <PUBCHEM_EXACT_MASS>
339.147058

> <PUBCHEM_MOLECULAR_FORMULA>
C20H21NO4

> <PUBCHEM_MOLECULAR_WEIGHT>
339.38504

> <PUBCHEM_OPENEYE_CAN_SMILES>
COC1=C(C=C2C3CC4=C(CN3CCC2=C1)C5=C(C=C4)OCO5)OC

> <PUBCHEM_OPENEYE_ISO_SMILES>
COC1=C(C=C2C3CC4=C(CN3CCC2=C1)C5=C(C=C4)OCO5)OC

> <PUBCHEM_CACTVS_TPSA>
40.2

> <PUBCHEM_MONOISOTOPIC_WEIGHT>
339.147058

> <PUBCHEM_TOTAL_CHARGE>
0

> <PUBCHEM_HEAVY_ATOM_COUNT>
25

> <PUBCHEM_ATOM_DEF_STEREO_COUNT>
0

> <PUBCHEM_ATOM_UDEF_STEREO_COUNT>
1

> <PUBCHEM_BOND_DEF_STEREO_COUNT>
0

> <PUBCHEM_BOND_UDEF_STEREO_COUNT>
0

> <PUBCHEM_ISOTOPIC_ATOM_COUNT>
0

> <PUBCHEM_COMPONENT_COUNT>
1

> <PUBCHEM_CACTVS_TAUTO_COUNT>
1

> <PUBCHEM_COORDINATE_TYPE>
1
5
255

> <PUBCHEM_BONDANNOTATIONS>
10  14  8
10  16  8
12  13  8
12  17  8
13  15  8
14  18  8
15  19  8
16  20  8
17  21  8
18  22  8
19  21  8
20  22  8
6  7  3

$$$$

