71446
  -OEChem-07051213042D

 59 62  0     1  0  0  0  0  0999 V2000
    5.8267    0.0000    0.0000 Cl  0  0  0  0  0  0  0  0  0  0  0  0
    4.8178    8.7854    0.0000 S   0  0  0  0  0  0  0  0  0  0  0  0
    7.4793    6.7590    0.0000 O   0  0  0  0  0  0  0  0  0  0  0  0
    3.5259    6.0106    0.0000 O   0  0  0  0  0  0  0  0  0  0  0  0
    5.1722    5.4725    0.0000 O   0  0  0  0  0  0  0  0  0  0  0  0
    8.7087    7.9601    0.0000 O   0  0  0  0  0  0  0  0  0  0  0  0
    3.7988    4.2553    0.0000 O   0  0  0  0  0  0  0  0  0  0  0  0
    3.5259    2.5001    0.0000 O   0  0  0  0  0  0  0  0  0  0  0  0
    5.7666    7.4747    0.0000 N   0  0  0  0  0  0  0  0  0  0  0  0
    7.4835    9.1844    0.0000 N   0  0  0  0  0  0  0  0  0  0  0  0
    8.8973   10.5991    0.0000 N   0  0  0  0  0  0  0  0  0  0  0  0
    5.7684    8.4747    0.0000 C   0  0  1  0  0  0  0  0  0  0  0  0
    4.8150    7.1673    0.0000 C   0  0  2  0  0  0  0  0  0  0  0  0
    4.2286    7.9774    0.0000 C   0  0  0  0  0  0  0  0  0  0  0  0
    6.7766    8.4771    0.0000 C   0  0  1  0  0  0  0  0  0  0  0  0
    6.7749    7.4688    0.0000 C   0  0  0  0  0  0  0  0  0  0  0  0
    3.4206    8.5665    0.0000 C   0  0  0  0  0  0  0  0  0  0  0  0
    3.4186    7.3910    0.0000 C   0  0  0  0  0  0  0  0  0  0  0  0
    4.5044    6.2168    0.0000 C   0  0  0  0  0  0  0  0  0  0  0  0
    8.4495    8.9259    0.0000 C   0  0  0  0  0  0  0  0  0  0  0  0
    9.1564    9.6333    0.0000 C   0  0  1  0  0  0  0  0  0  0  0  0
    3.2152    5.0601    0.0000 C   0  0  3  0  0  0  0  0  0  0  0  0
    2.2690    4.7553    0.0000 C   0  0  0  0  0  0  0  0  0  0  0  0
   10.1224    9.3748    0.0000 C   0  0  0  0  0  0  0  0  0  0  0  0
    2.2690    3.7553    0.0000 C   0  0  0  0  0  0  0  0  0  0  0  0
    3.2152    3.4506    0.0000 C   0  0  0  0  0  0  0  0  0  0  0  0
    1.4030    5.2553    0.0000 C   0  0  0  0  0  0  0  0  0  0  0  0
   10.8293   10.0821    0.0000 C   0  0  0  0  0  0  0  0  0  0  0  0
   10.3815    8.4089    0.0000 C   0  0  0  0  0  0  0  0  0  0  0  0
    1.4030    3.2553    0.0000 C   0  0  0  0  0  0  0  0  0  0  0  0
    0.5369    4.7553    0.0000 C   0  0  0  0  0  0  0  0  0  0  0  0
    0.5369    3.7553    0.0000 C   0  0  0  0  0  0  0  0  0  0  0  0
   11.7953    9.8236    0.0000 C   0  0  0  0  0  0  0  0  0  0  0  0
   11.3476    8.1504    0.0000 C   0  0  0  0  0  0  0  0  0  0  0  0
   12.0544    8.8577    0.0000 C   0  0  0  0  0  0  0  0  0  0  0  0
    5.9010    9.3143    0.0000 H   0  0  0  0  0  0  0  0  0  0  0  0
    5.2527    6.7282    0.0000 H   0  0  0  0  0  0  0  0  0  0  0  0
    6.5386    9.0496    0.0000 H   0  0  0  0  0  0  0  0  0  0  0  0
    3.0551    7.8932    0.0000 H   0  0  0  0  0  0  0  0  0  0  0  0
    2.9164    7.0274    0.0000 H   0  0  0  0  0  0  0  0  0  0  0  0
    3.7822    6.8888    0.0000 H   0  0  0  0  0  0  0  0  0  0  0  0
    3.7860    9.0675    0.0000 H   0  0  0  0  0  0  0  0  0  0  0  0
    2.9197    8.9318    0.0000 H   0  0  0  0  0  0  0  0  0  0  0  0
    3.0554    8.0656    0.0000 H   0  0  0  0  0  0  0  0  0  0  0  0
    7.3229    9.7832    0.0000 H   0  0  0  0  0  0  0  0  0  0  0  0
    9.5947   10.0718    0.0000 H   0  0  0  0  0  0  0  0  0  0  0  0
    2.7778    5.4994    0.0000 H   0  0  0  0  0  0  0  0  0  0  0  0
    9.3355   11.0376    0.0000 H   0  0  0  0  0  0  0  0  0  0  0  0
    8.2983   10.7594    0.0000 H   0  0  0  0  0  0  0  0  0  0  0  0
    1.4030    5.8753    0.0000 H   0  0  0  0  0  0  0  0  0  0  0  0
   10.6686   10.6809    0.0000 H   0  0  0  0  0  0  0  0  0  0  0  0
    9.9433    7.9704    0.0000 H   0  0  0  0  0  0  0  0  0  0  0  0
    1.4030    2.6353    0.0000 H   0  0  0  0  0  0  0  0  0  0  0  0
    0.0000    5.0653    0.0000 H   0  0  0  0  0  0  0  0  0  0  0  0
    0.0000    3.4453    0.0000 H   0  0  0  0  0  0  0  0  0  0  0  0
   12.2336   10.2621    0.0000 H   0  0  0  0  0  0  0  0  0  0  0  0
   11.5082    7.5516    0.0000 H   0  0  0  0  0  0  0  0  0  0  0  0
   12.6534    8.6975    0.0000 H   0  0  0  0  0  0  0  0  0  0  0  0
    6.8267    0.0000    0.0000 H   0  0  0  0  0  0  0  0  0  0  0  0
  1 59  1  0  0  0  0
  2 12  1  0  0  0  0
  2 14  1  0  0  0  0
  3 16  2  0  0  0  0
  4 19  1  0  0  0  0
  4 22  1  0  0  0  0
  5 19  2  0  0  0  0
  6 20  2  0  0  0  0
  7 22  1  0  0  0  0
  7 26  1  0  0  0  0
  8 26  2  0  0  0  0
  9 12  1  0  0  0  0
  9 13  1  0  0  0  0
  9 16  1  0  0  0  0
 15 10  1  6  0  0  0
 10 20  1  0  0  0  0
 10 45  1  0  0  0  0
 21 11  1  6  0  0  0
 11 48  1  0  0  0  0
 11 49  1  0  0  0  0
 12 15  1  0  0  0  0
 12 36  1  1  0  0  0
 13 14  1  0  0  0  0
 13 19  1  1  0  0  0
 13 37  1  0  0  0  0
 14 17  1  0  0  0  0
 14 18  1  0  0  0  0
 15 16  1  0  0  0  0
 15 38  1  0  0  0  0
 17 42  1  0  0  0  0
 17 43  1  0  0  0  0
 17 44  1  0  0  0  0
 18 39  1  0  0  0  0
 18 40  1  0  0  0  0
 18 41  1  0  0  0  0
 20 21  1  0  0  0  0
 21 24  1  0  0  0  0
 21 46  1  0  0  0  0
 22 23  1  0  0  0  0
 22 47  1  0  0  0  0
 23 25  1  0  0  0  0
 23 27  2  0  0  0  0
 24 28  2  0  0  0  0
 24 29  1  0  0  0  0
 25 26  1  0  0  0  0
 25 30  2  0  0  0  0
 27 31  1  0  0  0  0
 27 50  1  0  0  0  0
 28 33  1  0  0  0  0
 28 51  1  0  0  0  0
 29 34  2  0  0  0  0
 29 52  1  0  0  0  0
 30 32  1  0  0  0  0
 30 53  1  0  0  0  0
 31 32  2  0  0  0  0
 31 54  1  0  0  0  0
 32 55  1  0  0  0  0
 33 35  2  0  0  0  0
 33 56  1  0  0  0  0
 34 35  1  0  0  0  0
 34 57  1  0  0  0  0
 35 58  1  0  0  0  0
M  END
> <PUBCHEM_COMPOUND_CID>
71446

> <PUBCHEM_COMPOUND_CANONICALIZED>
1

> <PUBCHEM_CACTVS_COMPLEXITY>
875

> <PUBCHEM_CACTVS_HBOND_ACCEPTOR>
8

> <PUBCHEM_CACTVS_HBOND_DONOR>
3

> <PUBCHEM_CACTVS_ROTATABLE_BOND>
6

> <PUBCHEM_CACTVS_SUBSKEYS>
AAADceB7OABEAAAAAAAAAAAAAABYAWJAAAAwYAAABYAAAEgBQAAAHgQQAAAADCj12AeyCIPABAiIAiHSGACCAABkABAIiIGIDMgaZjqgtTm3MQBk1gG8qYfayKCOgAAAAAAQAAAAAAAAACAAAAAAAAAAAA==

> <PUBCHEM_IUPAC_OPENEYE_NAME>
(3-oxo-1H-isobenzofuran-1-yl) (2S,5R,6R)-6-[[(2R)-2-amino-2-phenyl-acetyl]amino]-3,3-dimethyl-7-oxo-4-thia-1-azabicyclo[3.2.0]heptane-2-carboxylate hydrochloride

> <PUBCHEM_IUPAC_CAS_NAME>
(2S,5R,6R)-6-[[(2R)-2-amino-1-oxo-2-phenylethyl]amino]-3,3-dimethyl-7-oxo-4-thia-1-azabicyclo[3.2.0]heptane-2-carboxylic acid (3-oxo-1H-isobenzofuran-1-yl) ester hydrochloride

> <PUBCHEM_IUPAC_NAME>
(3-oxo-1H-2-benzofuran-1-yl) (2S,5R,6R)-6-[[(2R)-2-amino-2-phenylacetyl]amino]-3,3-dimethyl-7-oxo-4-thia-1-azabicyclo[3.2.0]heptane-2-carboxylate hydrochloride

> <PUBCHEM_IUPAC_SYSTEMATIC_NAME>
(3-oxidanylidene-1H-2-benzofuran-1-yl) (2S,5R,6R)-6-[[(2R)-2-azanyl-2-phenyl-ethanoyl]amino]-3,3-dimethyl-7-oxidanylidene-4-thia-1-azabicyclo[3.2.0]heptane-2-carboxylate hydrochloride

> <PUBCHEM_IUPAC_TRADITIONAL_NAME>
(2S,5R,6R)-6-[[(2R)-2-amino-2-phenyl-acetyl]amino]-7-keto-3,3-dimethyl-4-thia-1-azabicyclo[3.2.0]heptane-2-carboxylic acid phthalidyl ester hydrochloride

> <PUBCHEM_IUPAC_INCHI>
InChI=1S/C24H23N3O6S.ClH/c1-24(2)17(22(31)33-23-14-11-7-6-10-13(14)21(30)32-23)27-19(29)16(20(27)34-24)26-18(28)15(25)12-8-4-3-5-9-12;/h3-11,15-17,20,23H,25H2,1-2H3,(H,26,28);1H/t15-,16-,17+,20-,23?;/m1./s1

> <PUBCHEM_IUPAC_INCHIKEY>
PAZSYTCTHYSIAO-WVFSJLEKSA-N

> <PUBCHEM_EXACT_MASS>
517.107434

> <PUBCHEM_MOLECULAR_FORMULA>
C24H24ClN3O6S

> <PUBCHEM_MOLECULAR_WEIGHT>
517.98186

> <PUBCHEM_OPENEYE_CAN_SMILES>
CC1(C(N2C(S1)C(C2=O)NC(=O)C(C3=CC=CC=C3)N)C(=O)OC4C5=CC=CC=C5C(=O)O4)C.Cl

> <PUBCHEM_OPENEYE_ISO_SMILES>
CC1([C@@H](N2[C@H](S1)[C@@H](C2=O)NC(=O)[C@@H](C3=CC=CC=C3)N)C(=O)OC4C5=CC=CC=C5C(=O)O4)C.Cl

> <PUBCHEM_CACTVS_TPSA>
153

> <PUBCHEM_MONOISOTOPIC_WEIGHT>
517.107434

> <PUBCHEM_TOTAL_CHARGE>
0

> <PUBCHEM_HEAVY_ATOM_COUNT>
35

> <PUBCHEM_ATOM_DEF_STEREO_COUNT>
4

> <PUBCHEM_ATOM_UDEF_STEREO_COUNT>
1

> <PUBCHEM_BOND_DEF_STEREO_COUNT>
0

> <PUBCHEM_BOND_UDEF_STEREO_COUNT>
0

> <PUBCHEM_ISOTOPIC_ATOM_COUNT>
0

> <PUBCHEM_COMPONENT_COUNT>
2

> <PUBCHEM_CACTVS_TAUTO_COUNT>
4

> <PUBCHEM_COORDINATE_TYPE>
1
5
255

> <PUBCHEM_BONDANNOTATIONS>
15  10  6
21  11  6
12  36  5
13  19  5
23  25  8
23  27  8
24  28  8
24  29  8
25  30  8
27  31  8
28  33  8
29  34  8
30  32  8
31  32  8
33  35  8
34  35  8
22  4  3

$$$$

