   Color/Form

     * COLORLESS TO YELLOWISH LIQUID
     * LIGHT REDDISH OR AMBER LIQUID

   from [1]HSDB

   Boiling Point
        277 DEG C
   from [2]HSDB

   Melting Point
        9.4 DEG C
   from [3]HSDB

   Density/Specific Gravity
        1.254 @ 20 DEG C/4 DEG C
   from [4]HSDB

   Octanol/Water Partition Coefficient
        Log Kow = 1.73
   from [5]HSDB

   Solubilities

     * INSOL IN WATER; SOL IN ALCOHOL, ETHER
     * Water solubility = 1690 mg/L at 30 deg C
     * Liquid molar volume = 0.123068 cu m/kmol

   from [6]HSDB

   Spectral Properties

     * INDEX OF REFRACTION: 1.5620 @ 20 DEG C/D
     * MAX ABSORPTION (CYCLOHEXANE): 249 NM (LOG E= 3.53); 304 NM (LOG E=
       3.40)
     * IR: 5864 (Sadtler Research Laboratories Prism Collection)
     * UV: 1643 (Sadtler Research Laboratories Spectral Collection)
     * NMR: 1887 (Sadtler Research Laboratories Spectral Collection)
     * MASS: 4169 (National Bureau of Standards EPA-NIH Mass Spectra Data
       Base, NSRDS-NBS-63)

   from [7]HSDB

   Surface Tension
        4.7471X10-2 N/m @ melting point
   from [8]HSDB

   Vapor Pressure
        Vapor pressure = 3.6x10-3 mm Hg at 25 deg C
   from [9]HSDB

   Viscosity
        Liquid viscosity = 3.9768X10-3 @ melting point
   from [10]HSDB

   Other Chemical/Physical Properties

     * CRYSTALLIZING POINT: 9.6 DEG C
     * IR: 15184 (Sadtler Research Laboratories Prism Collection)
       /3-Nitroanisole/
     * UV: 6-111 (Organic Electronic Spectral Data, Phillips et al, John
       Wiley & Sons, New York) /3-Nitroanisole/
     * NMR: 17156 (Sadtler Research Laboratories Spectral Collection)
       /3-Nitroanisole/
     * MASS: 498 (National Bureau of Standards EPA-NIH Mass Spectra Data
       Base, NSRDS-NBS-63) /3-Nitroanisole/
     * IR: 8421 (Sadtler Research Laboratories IR Grating Collection)
       /4-Nitroanisole/
     * UV: 1644 (Sadtler Research Laboratories Spectral Collection)
       /4-Nitroanisole/
     * NMR: 3185 (Sadtler Research Laboratories Spectral Collection)
       /4-Nitroanisole/
     * MASS: 497 (National Bureau of Standards EPA-NIH Mass Spectra Data
       Base, NSRDS-NBS-63) /4-Nitroanisole/
     * Liquid molar volume = 0.123068 cu m/kmol
     * Boiling point range: 268-271 deg C

   from [11]HSDB

   Computed Properties
   Molecular Weight                  153.13538 [g/mol]
   Molecular Formula                 C[7]H[7]NO[3]
   XLogP3                            1.7
   H-Bond Donor                      0
   H-Bond Acceptor                   3
   Rotatable Bond Count              1
   Exact Mass                        153.042593
   MonoIsotopic Mass                 153.042593
   Topological Polar Surface Area    55
   Heavy Atom Count                  11
   Formal Charge                     0
   Complexity                        143
   Isotope Atom Count                0
   Defined Atom Stereocenter Count   0
   Undefined Atom Stereocenter Count 0
   Defined Bond Stereocenter Count   0
   Undefined Bond Stereocenter Count 0
   Covalently-Bonded Unit Count      1
   Feature 3D Acceptor Count         3
   Feature 3D Anion Count            1
   Feature 3D Ring Count             1
   Effective Rotor Count             2
   Conformer Sampling RMSD           0.4
   CID Conformer Count               [12]3

References

   1. http://toxnet.nlm.nih.gov/cgi-bin/sis/search/r?dbs+hsdb:@term+@rn+@rel+91-23-6
   2. http://toxnet.nlm.nih.gov/cgi-bin/sis/search/r?dbs+hsdb:@term+@rn+@rel+91-23-6
   3. http://toxnet.nlm.nih.gov/cgi-bin/sis/search/r?dbs+hsdb:@term+@rn+@rel+91-23-6
   4. http://toxnet.nlm.nih.gov/cgi-bin/sis/search/r?dbs+hsdb:@term+@rn+@rel+91-23-6
   5. http://toxnet.nlm.nih.gov/cgi-bin/sis/search/r?dbs+hsdb:@term+@rn+@rel+91-23-6
   6. http://toxnet.nlm.nih.gov/cgi-bin/sis/search/r?dbs+hsdb:@term+@rn+@rel+91-23-6
   7. http://toxnet.nlm.nih.gov/cgi-bin/sis/search/r?dbs+hsdb:@term+@rn+@rel+91-23-6
   8. http://toxnet.nlm.nih.gov/cgi-bin/sis/search/r?dbs+hsdb:@term+@rn+@rel+91-23-6
   9. http://toxnet.nlm.nih.gov/cgi-bin/sis/search/r?dbs+hsdb:@term+@rn+@rel+91-23-6
  10. http://toxnet.nlm.nih.gov/cgi-bin/sis/search/r?dbs+hsdb:@term+@rn+@rel+91-23-6
  11. http://toxnet.nlm.nih.gov/cgi-bin/sis/search/r?dbs+hsdb:@term+@rn+@rel+91-23-6
  12. http://pubchem.ncbi.nlm.nih.gov/vw3d/vw3d.cgi?cid=7048
