   Color/Form

     * Reddish needles
     * Thin, red needles

   from [1]HSDB

   Boiling Point
        190 deg C, decomposes
   from [2]HSDB

   Melting Point
        208-209 deg C
   from [3]HSDB

   Dissociation Constants
        pKa = 7.85
   from [4]HSDB

   Octanol/Water Partition Coefficient
        log Kow = 1.83
   from [5]HSDB

   Solubilities

     * Soluble in methyl alcohol, insoluble in chloroform and benzene.
     * In water, 3.0X10+4 mg/L at 25 deg C

   from [6]HSDB

   Spectral Properties
        Max adsorbance = 234 nm (epsilon = 711 for 1% solution, 1 cm
   path); 252 nm (epsilon = 494); 290 nm (epsilon = 163); 480 nm (epsilon
   = 227); 495 nm (epsilon = 214); 532 nm (epsilon = 214)
   from [7]HSDB

   Vapor Pressure
        9.4X10-15 mm Hg at 25 deg C
   from [8]HSDB

   Other Chemical/Physical Properties

     * Thin red needles; decomposes 188-190 deg C. Specific optical
       rotation: +248 deg (c = 0.05-1.0 in methanol); soluble in water,
       methanol, aqueous alcohols; practically insoluble in chloroform,
       ether, benzene. Color of aqueous solution changes from pink at acid
       pH to blue at alkaline pH. Adsorption max (methanol): 234, 252,
       290, 480, 495, and 532 nm (epsilon 1%, 1cm: 665, 462, 153, 214, 218
       and 112) /Daunorubicin hydrochloride/
     * The aglycone can be reduced by sodium borohydride; subsequent
       periodate oxidation yields benzaldehyde.
     * Aqueous solutions are stable for one month at 5 deg C; unstable at
       higher temperatures or at acid or alkaline pH's.
     * Henry's Law constant = 2.18X10-13 atm-cu m/mol at 26 deg C
     * Hydroxyl radical reaction rate constant = 1.4X10-10 cu cm/molec-sec
       at 25 deg C (est)

   from [9]HSDB

   Computed Properties
   Molecular Weight                  527.51986 [g/mol]
   Molecular Formula                 C[27]H[29]NO[10]
   XLogP3                            1.8
   H-Bond Donor                      5
   H-Bond Acceptor                   11
   Rotatable Bond Count              4
   Tautomer Count                    54
   Exact Mass                        527.179146
   MonoIsotopic Mass                 527.179146
   Topological Polar Surface Area    186
   Heavy Atom Count                  38
   Formal Charge                     0
   Complexity                        960
   Isotope Atom Count                0
   Defined Atom Stereocenter Count   6
   Undefined Atom Stereocenter Count 0
   Defined Bond Stereocenter Count   0
   Undefined Bond Stereocenter Count 0
   Covalently-Bonded Unit Count      1
   Feature 3D Acceptor Count         8
   Feature 3D Donor Count            5
   Feature 3D Cation Count           1
   Feature 3D Ring Count             5
   Effective Rotor Count             6
   Conformer Sampling RMSD           1
   CID Conformer Count               [10]8

References

   1. http://toxnet.nlm.nih.gov/cgi-bin/sis/search/r?dbs+hsdb:@term+@rn+@rel+20830-81-3
   2. http://toxnet.nlm.nih.gov/cgi-bin/sis/search/r?dbs+hsdb:@term+@rn+@rel+20830-81-3
   3. http://toxnet.nlm.nih.gov/cgi-bin/sis/search/r?dbs+hsdb:@term+@rn+@rel+20830-81-3
   4. http://toxnet.nlm.nih.gov/cgi-bin/sis/search/r?dbs+hsdb:@term+@rn+@rel+20830-81-3
   5. http://toxnet.nlm.nih.gov/cgi-bin/sis/search/r?dbs+hsdb:@term+@rn+@rel+20830-81-3
   6. http://toxnet.nlm.nih.gov/cgi-bin/sis/search/r?dbs+hsdb:@term+@rn+@rel+20830-81-3
   7. http://toxnet.nlm.nih.gov/cgi-bin/sis/search/r?dbs+hsdb:@term+@rn+@rel+20830-81-3
   8. http://toxnet.nlm.nih.gov/cgi-bin/sis/search/r?dbs+hsdb:@term+@rn+@rel+20830-81-3
   9. http://toxnet.nlm.nih.gov/cgi-bin/sis/search/r?dbs+hsdb:@term+@rn+@rel+20830-81-3
  10. http://pubchem.ncbi.nlm.nih.gov/vw3d/vw3d.cgi?cid=30323
