6965
  -OEChem-06261201382D

 64 65  0     0  0  0  0  0  0999 V2000
    3.8660   -1.1900    0.0000 N   0  0  0  0  0  0  0  0  0  0  0  0
    3.0000   -0.6900    0.0000 C   0  0  0  0  0  0  0  0  0  0  0  0
    9.9961    0.3442    0.0000 C   0  0  0  0  0  0  0  0  0  0  0  0
   10.8602    0.8475    0.0000 C   0  0  0  0  0  0  0  0  0  0  0  0
    9.1282    0.8408    0.0000 C   0  0  0  0  0  0  0  0  0  0  0  0
   11.7282    0.3508    0.0000 C   0  0  0  0  0  0  0  0  0  0  0  0
    8.2641    0.3375    0.0000 C   0  0  0  0  0  0  0  0  0  0  0  0
   12.5923    0.8542    0.0000 C   0  0  0  0  0  0  0  0  0  0  0  0
    7.3962    0.8342    0.0000 C   0  0  0  0  0  0  0  0  0  0  0  0
    4.7320    0.3100    0.0000 C   0  0  0  0  0  0  0  0  0  0  0  0
    4.7320   -0.6900    0.0000 C   0  0  0  0  0  0  0  0  0  0  0  0
   13.4602    0.3575    0.0000 C   0  0  0  0  0  0  0  0  0  0  0  0
    3.0000    0.3100    0.0000 C   0  0  0  0  0  0  0  0  0  0  0  0
    6.5321    0.3308    0.0000 C   0  0  0  0  0  0  0  0  0  0  0  0
    3.8660    0.8100    0.0000 C   0  0  0  0  0  0  0  0  0  0  0  0
   14.3243    0.8609    0.0000 C   0  0  0  0  0  0  0  0  0  0  0  0
    5.6260    0.8447    0.0000 C   0  0  0  0  0  0  0  0  0  0  0  0
    2.0000   -0.6900    0.0000 C   0  0  0  0  0  0  0  0  0  0  0  0
    2.5000   -1.5560    0.0000 C   0  0  0  0  0  0  0  0  0  0  0  0
    5.6260   -1.2247    0.0000 C   0  0  0  0  0  0  0  0  0  0  0  0
   15.1922    0.3642    0.0000 C   0  0  0  0  0  0  0  0  0  0  0  0
    6.5321   -0.7108    0.0000 C   0  0  0  0  0  0  0  0  0  0  0  0
    3.8660    1.8100    0.0000 C   0  0  0  0  0  0  0  0  0  0  0  0
   16.0563    0.8675    0.0000 C   0  0  0  0  0  0  0  0  0  0  0  0
   16.9243    0.3709    0.0000 C   0  0  0  0  0  0  0  0  0  0  0  0
    9.5994   -0.1323    0.0000 H   0  0  0  0  0  0  0  0  0  0  0  0
   10.3965   -0.1292    0.0000 H   0  0  0  0  0  0  0  0  0  0  0  0
   11.2569    1.3240    0.0000 H   0  0  0  0  0  0  0  0  0  0  0  0
   10.4599    1.3209    0.0000 H   0  0  0  0  0  0  0  0  0  0  0  0
    9.5249    1.3173    0.0000 H   0  0  0  0  0  0  0  0  0  0  0  0
    8.7278    1.3142    0.0000 H   0  0  0  0  0  0  0  0  0  0  0  0
   11.3315   -0.1256    0.0000 H   0  0  0  0  0  0  0  0  0  0  0  0
   12.1285   -0.1226    0.0000 H   0  0  0  0  0  0  0  0  0  0  0  0
    7.8674   -0.1390    0.0000 H   0  0  0  0  0  0  0  0  0  0  0  0
    8.6644   -0.1359    0.0000 H   0  0  0  0  0  0  0  0  0  0  0  0
   12.9890    1.3307    0.0000 H   0  0  0  0  0  0  0  0  0  0  0  0
   12.1919    1.3276    0.0000 H   0  0  0  0  0  0  0  0  0  0  0  0
    7.7928    1.3106    0.0000 H   0  0  0  0  0  0  0  0  0  0  0  0
    6.9958    1.3076    0.0000 H   0  0  0  0  0  0  0  0  0  0  0  0
   13.0635   -0.1190    0.0000 H   0  0  0  0  0  0  0  0  0  0  0  0
   13.8606   -0.1159    0.0000 H   0  0  0  0  0  0  0  0  0  0  0  0
    3.8660   -1.8100    0.0000 H   0  0  0  0  0  0  0  0  0  0  0  0
    2.4631    0.6200    0.0000 H   0  0  0  0  0  0  0  0  0  0  0  0
   14.7210    1.3373    0.0000 H   0  0  0  0  0  0  0  0  0  0  0  0
   13.9239    1.3343    0.0000 H   0  0  0  0  0  0  0  0  0  0  0  0
    5.6188    1.4646    0.0000 H   0  0  0  0  0  0  0  0  0  0  0  0
    2.0000   -0.0700    0.0000 H   0  0  0  0  0  0  0  0  0  0  0  0
    1.3800   -0.6900    0.0000 H   0  0  0  0  0  0  0  0  0  0  0  0
    2.0000   -1.3100    0.0000 H   0  0  0  0  0  0  0  0  0  0  0  0
    1.9631   -1.2460    0.0000 H   0  0  0  0  0  0  0  0  0  0  0  0
    2.1900   -2.0930    0.0000 H   0  0  0  0  0  0  0  0  0  0  0  0
    3.0369   -1.8660    0.0000 H   0  0  0  0  0  0  0  0  0  0  0  0
    5.6188   -1.8446    0.0000 H   0  0  0  0  0  0  0  0  0  0  0  0
   14.7956   -0.1123    0.0000 H   0  0  0  0  0  0  0  0  0  0  0  0
   15.5926   -0.1092    0.0000 H   0  0  0  0  0  0  0  0  0  0  0  0
    7.0678   -1.0229    0.0000 H   0  0  0  0  0  0  0  0  0  0  0  0
    4.4860    1.8100    0.0000 H   0  0  0  0  0  0  0  0  0  0  0  0
    3.8660    2.4300    0.0000 H   0  0  0  0  0  0  0  0  0  0  0  0
    3.2460    1.8100    0.0000 H   0  0  0  0  0  0  0  0  0  0  0  0
   16.4530    1.3440    0.0000 H   0  0  0  0  0  0  0  0  0  0  0  0
   15.6560    1.3409    0.0000 H   0  0  0  0  0  0  0  0  0  0  0  0
   16.6164   -0.1673    0.0000 H   0  0  0  0  0  0  0  0  0  0  0  0
   17.4624    0.0629    0.0000 H   0  0  0  0  0  0  0  0  0  0  0  0
   17.2322    0.9090    0.0000 H   0  0  0  0  0  0  0  0  0  0  0  0
  1  2  1  0  0  0  0
  1 11  1  0  0  0  0
  1 42  1  0  0  0  0
  2 13  1  0  0  0  0
  2 18  1  0  0  0  0
  2 19  1  0  0  0  0
  3  4  1  0  0  0  0
  3  5  1  0  0  0  0
  3 26  1  0  0  0  0
  3 27  1  0  0  0  0
  4  6  1  0  0  0  0
  4 28  1  0  0  0  0
  4 29  1  0  0  0  0
  5  7  1  0  0  0  0
  5 30  1  0  0  0  0
  5 31  1  0  0  0  0
  6  8  1  0  0  0  0
  6 32  1  0  0  0  0
  6 33  1  0  0  0  0
  7  9  1  0  0  0  0
  7 34  1  0  0  0  0
  7 35  1  0  0  0  0
  8 12  1  0  0  0  0
  8 36  1  0  0  0  0
  8 37  1  0  0  0  0
  9 14  1  0  0  0  0
  9 38  1  0  0  0  0
  9 39  1  0  0  0  0
 10 11  2  0  0  0  0
 10 15  1  0  0  0  0
 10 17  1  0  0  0  0
 11 20  1  0  0  0  0
 12 16  1  0  0  0  0
 12 40  1  0  0  0  0
 12 41  1  0  0  0  0
 13 15  2  0  0  0  0
 13 43  1  0  0  0  0
 14 17  2  0  0  0  0
 14 22  1  0  0  0  0
 15 23  1  0  0  0  0
 16 21  1  0  0  0  0
 16 44  1  0  0  0  0
 16 45  1  0  0  0  0
 17 46  1  0  0  0  0
 18 47  1  0  0  0  0
 18 48  1  0  0  0  0
 18 49  1  0  0  0  0
 19 50  1  0  0  0  0
 19 51  1  0  0  0  0
 19 52  1  0  0  0  0
 20 22  2  0  0  0  0
 20 53  1  0  0  0  0
 21 24  1  0  0  0  0
 21 54  1  0  0  0  0
 21 55  1  0  0  0  0
 22 56  1  0  0  0  0
 23 57  1  0  0  0  0
 23 58  1  0  0  0  0
 23 59  1  0  0  0  0
 24 25  1  0  0  0  0
 24 60  1  0  0  0  0
 24 61  1  0  0  0  0
 25 62  1  0  0  0  0
 25 63  1  0  0  0  0
 25 64  1  0  0  0  0
M  END
> <PUBCHEM_COMPOUND_CID>
6965

> <PUBCHEM_COMPOUND_CANONICALIZED>
1

> <PUBCHEM_CACTVS_COMPLEXITY>
395

> <PUBCHEM_CACTVS_HBOND_ACCEPTOR>
1

> <PUBCHEM_CACTVS_HBOND_DONOR>
1

> <PUBCHEM_CACTVS_ROTATABLE_BOND>
11

> <PUBCHEM_CACTVS_SUBSKEYS>
AAADcfB6AAAAAAAAAAAAAAAAAAAAAAAAAAAwQAAAAAAAAACBAAAAHAAQAAAADIiBGAAywILAAACAAiRCQACCAAAhAgAIiAAAZIgIICLAkZGEIAhgkADIyAcQgMAOCAACAAACAAAQAAQAAAQAAAAAAAAAAA==

> <PUBCHEM_IUPAC_OPENEYE_NAME>
6-dodecyl-2,2,4-trimethyl-1H-quinoline

> <PUBCHEM_IUPAC_CAS_NAME>
6-dodecyl-2,2,4-trimethyl-1H-quinoline

> <PUBCHEM_IUPAC_NAME>
6-dodecyl-2,2,4-trimethyl-1H-quinoline

> <PUBCHEM_IUPAC_SYSTEMATIC_NAME>
6-dodecyl-2,2,4-trimethyl-1H-quinoline

> <PUBCHEM_IUPAC_TRADITIONAL_NAME>
6-lauryl-2,2,4-trimethyl-1H-quinoline

> <PUBCHEM_IUPAC_INCHI>
InChI=1S/C24H39N/c1-5-6-7-8-9-10-11-12-13-14-15-21-16-17-23-22(18-21)20(2)19-24(3,4)25-23/h16-19,25H,5-15H2,1-4H3

> <PUBCHEM_IUPAC_INCHIKEY>
DOFLWDGGNKBGSL-UHFFFAOYSA-N

> <PUBCHEM_XLOGP3_AA>
9

> <PUBCHEM_EXACT_MASS>
341.30825

> <PUBCHEM_MOLECULAR_FORMULA>
C24H39N

> <PUBCHEM_MOLECULAR_WEIGHT>
341.57316

> <PUBCHEM_OPENEYE_CAN_SMILES>
CCCCCCCCCCCCC1=CC2=C(C=C1)NC(C=C2C)(C)C

> <PUBCHEM_OPENEYE_ISO_SMILES>
CCCCCCCCCCCCC1=CC2=C(C=C1)NC(C=C2C)(C)C

> <PUBCHEM_CACTVS_TPSA>
12

> <PUBCHEM_MONOISOTOPIC_WEIGHT>
341.30825

> <PUBCHEM_TOTAL_CHARGE>
0

> <PUBCHEM_HEAVY_ATOM_COUNT>
25

> <PUBCHEM_ATOM_DEF_STEREO_COUNT>
0

> <PUBCHEM_ATOM_UDEF_STEREO_COUNT>
0

> <PUBCHEM_BOND_DEF_STEREO_COUNT>
0

> <PUBCHEM_BOND_UDEF_STEREO_COUNT>
0

> <PUBCHEM_ISOTOPIC_ATOM_COUNT>
0

> <PUBCHEM_COMPONENT_COUNT>
1

> <PUBCHEM_CACTVS_TAUTO_COUNT>
1

> <PUBCHEM_COORDINATE_TYPE>
1
5
255

> <PUBCHEM_BONDANNOTATIONS>
10  11  8
10  17  8
11  20  8
14  17  8
14  22  8
20  22  8

$$$$

