443722
  -OEChem-07051213032D

 39 42  0     1  0  0  0  0  0999 V2000
    4.5594    0.9167    0.0000 O   0  0  0  0  0  0  0  0  0  0  0  0
    7.3243    2.7856    0.0000 O   0  0  0  0  0  0  0  0  0  0  0  0
    2.5369   -0.0853    0.0000 O   0  0  0  0  0  0  0  0  0  0  0  0
    6.8964   -1.9881    0.0000 N   0  0  3  0  0  0  0  0  0  0  0  0
    5.9202    0.0390    0.0000 C   0  0  1  0  0  0  0  0  0  0  0  0
    5.4050    0.9612    0.0000 C   0  0  2  0  0  0  0  0  0  0  0  0
    5.1373   -0.5853    0.0000 C   0  0  0  0  0  0  0  0  0  0  0  0
    6.8964   -0.1838    0.0000 C   0  0  0  0  0  0  0  0  0  0  0  0
    5.8648    1.8507    0.0000 C   0  0  0  0  0  0  0  0  0  0  0  0
    6.9457    0.1648    0.0000 C   0  0  0  0  0  0  0  0  0  0  0  0
    4.2702   -0.0846    0.0000 C   0  0  0  0  0  0  0  0  0  0  0  0
    7.3309   -1.0860    0.0000 C   0  0  0  0  0  0  0  0  0  0  0  0
    5.1373   -1.5866    0.0000 C   0  0  0  0  0  0  0  0  0  0  0  0
    6.8651    1.8973    0.0000 C   0  0  2  0  0  0  0  0  0  0  0  0
    5.9202   -2.2110    0.0000 C   0  0  0  0  0  0  0  0  0  0  0  0
    7.4055    1.0543    0.0000 C   0  0  0  0  0  0  0  0  0  0  0  0
    3.4030   -0.5853    0.0000 C   0  0  0  0  0  0  0  0  0  0  0  0
    4.2702   -2.0873    0.0000 C   0  0  0  0  0  0  0  0  0  0  0  0
    3.4030   -1.5866    0.0000 C   0  0  0  0  0  0  0  0  0  0  0  0
    7.4598   -2.8144    0.0000 C   0  0  0  0  0  0  0  0  0  0  0  0
    4.9441    1.6754    0.0000 H   0  0  0  0  0  0  0  0  0  0  0  0
    7.5009   -0.0458    0.0000 H   0  0  0  0  0  0  0  0  0  0  0  0
    6.8964    0.4362    0.0000 H   0  0  0  0  0  0  0  0  0  0  0  0
    5.9440    2.4657    0.0000 H   0  0  0  0  0  0  0  0  0  0  0  0
    5.2730    2.0355    0.0000 H   0  0  0  0  0  0  0  0  0  0  0  0
    7.2998   -0.3442    0.0000 H   0  0  0  0  0  0  0  0  0  0  0  0
    7.8156   -1.4725    0.0000 H   0  0  0  0  0  0  0  0  0  0  0  0
    7.8156   -0.6994    0.0000 H   0  0  0  0  0  0  0  0  0  0  0  0
    6.5305    2.4192    0.0000 H   0  0  0  0  0  0  0  0  0  0  0  0
    5.4355   -2.5975    0.0000 H   0  0  0  0  0  0  0  0  0  0  0  0
    6.1892   -2.7696    0.0000 H   0  0  0  0  0  0  0  0  0  0  0  0
    8.0248    1.0831    0.0000 H   0  0  0  0  0  0  0  0  0  0  0  0
    4.2702   -2.7073    0.0000 H   0  0  0  0  0  0  0  0  0  0  0  0
    2.8660   -1.8966    0.0000 H   0  0  0  0  0  0  0  0  0  0  0  0
    6.9475   -3.1636    0.0000 H   0  0  0  0  0  0  0  0  0  0  0  0
    7.8090   -3.3266    0.0000 H   0  0  0  0  0  0  0  0  0  0  0  0
    7.9720   -2.4651    0.0000 H   0  0  0  0  0  0  0  0  0  0  0  0
    7.9437    2.8144    0.0000 H   0  0  0  0  0  0  0  0  0  0  0  0
    2.0000   -0.3953    0.0000 H   0  0  0  0  0  0  0  0  0  0  0  0
  1  6  1  0  0  0  0
  1 11  1  0  0  0  0
 14  2  1  1  0  0  0
  2 38  1  0  0  0  0
  3 17  1  0  0  0  0
  3 39  1  0  0  0  0
  4 12  1  0  0  0  0
  4 15  1  0  0  0  0
  4 20  1  0  0  0  0
  5  6  1  0  0  0  0
  5  7  1  0  0  0  0
  5  8  1  6  0  0  0
  5 10  1  0  0  0  0
  6  9  1  0  0  0  0
  6 21  1  6  0  0  0
  7 11  1  0  0  0  0
  7 13  2  0  0  0  0
  8 12  1  0  0  0  0
  8 22  1  0  0  0  0
  8 23  1  0  0  0  0
  9 14  1  0  0  0  0
  9 24  1  0  0  0  0
  9 25  1  0  0  0  0
 10 16  2  0  0  0  0
 10 26  1  0  0  0  0
 11 17  2  0  0  0  0
 12 27  1  0  0  0  0
 12 28  1  0  0  0  0
 13 15  1  0  0  0  0
 13 18  1  0  0  0  0
 14 16  1  0  0  0  0
 14 29  1  0  0  0  0
 15 30  1  0  0  0  0
 15 31  1  0  0  0  0
 16 32  1  0  0  0  0
 17 19  1  0  0  0  0
 18 19  2  0  0  0  0
 18 33  1  0  0  0  0
 19 34  1  0  0  0  0
 20 35  1  0  0  0  0
 20 36  1  0  0  0  0
 20 37  1  0  0  0  0
M  END
> <PUBCHEM_COMPOUND_CID>
443722

> <PUBCHEM_COMPOUND_CANONICALIZED>
1

> <PUBCHEM_CACTVS_COMPLEXITY>
426

> <PUBCHEM_CACTVS_HBOND_ACCEPTOR>
4

> <PUBCHEM_CACTVS_HBOND_DONOR>
2

> <PUBCHEM_CACTVS_ROTATABLE_BOND>
0

> <PUBCHEM_CACTVS_SUBSKEYS>
AAADceB6MAAAAAAAAAAAAAAAAAAAASAAAAAwQAAABYAAAEixAAAAHgAACAAADhThmAYyBoMABgCAAiBCAACCCAAgIAAIiAAOjIgNNiKGsRuGeCvlwBGLuAew8PYPoAABAAAYQABAAAIAADCAAAAAAAAAAA==

> <PUBCHEM_IUPAC_INCHI>
InChI=1S/C16H19NO3/c1-17-7-6-16-5-4-11(18)8-13(16)20-15-12(19)3-2-10(9-17)14(15)16/h2-5,11,13,18-19H,6-9H2,1H3/t11-,13-,16-/m0/s1

> <PUBCHEM_IUPAC_INCHIKEY>
OYSGWKOGUVOGFQ-RBOXIYTFSA-N

> <PUBCHEM_XLOGP3_AA>
1.5

> <PUBCHEM_EXACT_MASS>
273.136493

> <PUBCHEM_MOLECULAR_FORMULA>
C16H19NO3

> <PUBCHEM_MOLECULAR_WEIGHT>
273.32696

> <PUBCHEM_OPENEYE_CAN_SMILES>
CN1CCC23C=CC(CC2OC4=C(C=CC(=C34)C1)O)O

> <PUBCHEM_OPENEYE_ISO_SMILES>
CN1CC[C@@]23C=C[C@@H](C[C@@H]2OC4=C(C=CC(=C34)C1)O)O

> <PUBCHEM_CACTVS_TPSA>
52.9

> <PUBCHEM_MONOISOTOPIC_WEIGHT>
273.136493

> <PUBCHEM_TOTAL_CHARGE>
0

> <PUBCHEM_HEAVY_ATOM_COUNT>
20

> <PUBCHEM_ATOM_DEF_STEREO_COUNT>
3

> <PUBCHEM_ATOM_UDEF_STEREO_COUNT>
0

> <PUBCHEM_BOND_DEF_STEREO_COUNT>
0

> <PUBCHEM_BOND_UDEF_STEREO_COUNT>
0

> <PUBCHEM_ISOTOPIC_ATOM_COUNT>
0

> <PUBCHEM_COMPONENT_COUNT>
1

> <PUBCHEM_CACTVS_TAUTO_COUNT>
2

> <PUBCHEM_COORDINATE_TYPE>
1
5
255

> <PUBCHEM_BONDANNOTATIONS>
11  17  8
13  18  8
17  19  8
18  19  8
14  2  5
5  8  6
6  21  6
7  11  8
7  13  8

$$$$

