15081546
  -OEChem-07051213082D

 72 75  0     1  0  0  0  0  0999 V2000
    7.3931   -2.1219    0.0000 O   0  0  0  0  0  0  0  0  0  0  0  0
    5.6489   -4.1911    0.0000 O   0  0  0  0  0  0  0  0  0  0  0  0
    2.0000   -3.1742    0.0000 O   0  0  0  0  0  0  0  0  0  0  0  0
    7.3931   -0.1219    0.0000 C   0  0  1  0  0  0  0  0  0  0  0  0
    7.3931   -1.1219    0.0000 C   0  0  1  0  0  0  0  0  0  0  0  0
    8.3393    0.1828    0.0000 C   0  0  2  0  0  0  0  0  0  0  0  0
    5.6610   -1.1219    0.0000 C   0  0  1  0  0  0  0  0  0  0  0  0
    6.5271    0.3781    0.0000 C   0  0  0  0  0  0  0  0  0  0  0  0
    6.5271   -1.6219    0.0000 C   0  0  0  0  0  0  0  0  0  0  0  0
    4.7510   -1.6287    0.0000 C   0  0  2  0  0  0  0  0  0  0  0  0
    8.3393   -1.4266    0.0000 C   0  0  0  0  0  0  0  0  0  0  0  0
    8.9229   -0.6219    0.0000 C   0  0  0  0  0  0  0  0  0  0  0  0
    5.6610   -0.1219    0.0000 C   0  0  0  0  0  0  0  0  0  0  0  0
    8.6500    1.1334    0.0000 C   0  0  1  0  0  0  0  0  0  0  0  0
    4.7430   -2.6703    0.0000 C   0  0  2  0  0  0  0  0  0  0  0  0
    7.3931    0.8781    0.0000 C   0  0  0  0  0  0  0  0  0  0  0  0
    3.8242   -1.0647    0.0000 C   0  0  0  0  0  0  0  0  0  0  0  0
    6.5431   -2.6634    0.0000 C   0  0  0  0  0  0  0  0  0  0  0  0
    4.7587   -0.6288    0.0000 C   0  0  0  0  0  0  0  0  0  0  0  0
    5.6451   -3.1912    0.0000 C   0  0  0  0  0  0  0  0  0  0  0  0
    3.8076   -3.2201    0.0000 C   0  0  2  0  0  0  0  0  0  0  0  0
    9.6285    1.3396    0.0000 C   0  0  0  0  0  0  0  0  0  0  0  0
    2.8763   -1.5926    0.0000 C   0  0  0  0  0  0  0  0  0  0  0  0
    7.9821    1.8777    0.0000 C   0  0  0  0  0  0  0  0  0  0  0  0
    2.8680   -2.6776    0.0000 C   0  0  0  0  0  0  0  0  0  0  0  0
    9.9391    2.2901    0.0000 C   0  0  0  0  0  0  0  0  0  0  0  0
   10.9176    2.4963    0.0000 C   0  0  0  0  0  0  0  0  0  0  0  0
   11.2283    3.4468    0.0000 C   0  0  0  0  0  0  0  0  0  0  0  0
   12.2068    3.6531    0.0000 C   0  0  0  0  0  0  0  0  0  0  0  0
   10.5605    4.1911    0.0000 C   0  0  0  0  0  0  0  0  0  0  0  0
    9.1790    0.3147    0.0000 H   0  0  0  0  0  0  0  0  0  0  0  0
    6.3972   -0.6969    0.0000 H   0  0  0  0  0  0  0  0  0  0  0  0
    6.9256    0.8531    0.0000 H   0  0  0  0  0  0  0  0  0  0  0  0
    6.1285    0.8531    0.0000 H   0  0  0  0  0  0  0  0  0  0  0  0
    8.0883   -1.9935    0.0000 H   0  0  0  0  0  0  0  0  0  0  0  0
    8.8767   -1.7358    0.0000 H   0  0  0  0  0  0  0  0  0  0  0  0
    9.3838   -1.0366    0.0000 H   0  0  0  0  0  0  0  0  0  0  0  0
    9.3838   -0.2072    0.0000 H   0  0  0  0  0  0  0  0  0  0  0  0
    5.4490    0.4607    0.0000 H   0  0  0  0  0  0  0  0  0  0  0  0
    5.0504   -0.2296    0.0000 H   0  0  0  0  0  0  0  0  0  0  0  0
    8.0433    1.0055    0.0000 H   0  0  0  0  0  0  0  0  0  0  0  0
    4.7463   -3.5203    0.0000 H   0  0  0  0  0  0  0  0  0  0  0  0
    8.0131    0.8781    0.0000 H   0  0  0  0  0  0  0  0  0  0  0  0
    7.3931    1.4981    0.0000 H   0  0  0  0  0  0  0  0  0  0  0  0
    6.7731    0.8781    0.0000 H   0  0  0  0  0  0  0  0  0  0  0  0
    4.2324   -0.5980    0.0000 H   0  0  0  0  0  0  0  0  0  0  0  0
    3.4343   -0.5826    0.0000 H   0  0  0  0  0  0  0  0  0  0  0  0
    7.0836   -2.9672    0.0000 H   0  0  0  0  0  0  0  0  0  0  0  0
    5.3787   -0.6335    0.0000 H   0  0  0  0  0  0  0  0  0  0  0  0
    4.7635   -0.0088    0.0000 H   0  0  0  0  0  0  0  0  0  0  0  0
    4.1388   -0.6240    0.0000 H   0  0  0  0  0  0  0  0  0  0  0  0
    7.9300   -2.4319    0.0000 H   0  0  0  0  0  0  0  0  0  0  0  0
    3.2629   -3.8726    0.0000 H   0  0  0  0  0  0  0  0  0  0  0  0
    4.2085   -3.6930    0.0000 H   0  0  0  0  0  0  0  0  0  0  0  0
    9.6490    0.7199    0.0000 H   0  0  0  0  0  0  0  0  0  0  0  0
   10.2423    1.2522    0.0000 H   0  0  0  0  0  0  0  0  0  0  0  0
    2.6718   -1.0073    0.0000 H   0  0  0  0  0  0  0  0  0  0  0  0
    2.2647   -1.6940    0.0000 H   0  0  0  0  0  0  0  0  0  0  0  0
    8.4436    2.2917    0.0000 H   0  0  0  0  0  0  0  0  0  0  0  0
    7.5681    2.3391    0.0000 H   0  0  0  0  0  0  0  0  0  0  0  0
    7.5207    1.4636    0.0000 H   0  0  0  0  0  0  0  0  0  0  0  0
    9.9186    2.9098    0.0000 H   0  0  0  0  0  0  0  0  0  0  0  0
    9.3253    2.3774    0.0000 H   0  0  0  0  0  0  0  0  0  0  0  0
   10.9382    1.8767    0.0000 H   0  0  0  0  0  0  0  0  0  0  0  0
   11.5315    2.4090    0.0000 H   0  0  0  0  0  0  0  0  0  0  0  0
   11.4209    4.0362    0.0000 H   0  0  0  0  0  0  0  0  0  0  0  0
   12.3347    3.0464    0.0000 H   0  0  0  0  0  0  0  0  0  0  0  0
   11.0219    4.6052    0.0000 H   0  0  0  0  0  0  0  0  0  0  0  0
   10.1464    4.6526    0.0000 H   0  0  0  0  0  0  0  0  0  0  0  0
   10.0990    3.7771    0.0000 H   0  0  0  0  0  0  0  0  0  0  0  0
   12.8135    3.7809    0.0000 H   0  0  0  0  0  0  0  0  0  0  0  0
   12.0790    4.2597    0.0000 H   0  0  0  0  0  0  0  0  0  0  0  0
  5  1  1  6  0  0  0
  1 52  1  0  0  0  0
  2 20  2  0  0  0  0
  3 25  2  0  0  0  0
  4  5  1  0  0  0  0
  4  6  1  0  0  0  0
  4  8  1  0  0  0  0
  4 16  1  1  0  0  0
  5  9  1  0  0  0  0
  5 11  1  0  0  0  0
  6 12  1  0  0  0  0
  6 14  1  0  0  0  0
  6 31  1  6  0  0  0
  7  9  1  0  0  0  0
  7 10  1  0  0  0  0
  7 13  1  0  0  0  0
  7 32  1  6  0  0  0
  8 13  1  0  0  0  0
  8 33  1  0  0  0  0
  8 34  1  0  0  0  0
  9 18  2  0  0  0  0
 10 15  1  0  0  0  0
 10 17  1  0  0  0  0
 10 19  1  1  0  0  0
 11 12  1  0  0  0  0
 11 35  1  0  0  0  0
 11 36  1  0  0  0  0
 12 37  1  0  0  0  0
 12 38  1  0  0  0  0
 13 39  1  0  0  0  0
 13 40  1  0  0  0  0
 14 22  1  0  0  0  0
 14 24  1  6  0  0  0
 14 41  1  0  0  0  0
 15 20  1  0  0  0  0
 15 21  1  0  0  0  0
 15 42  1  1  0  0  0
 16 43  1  0  0  0  0
 16 44  1  0  0  0  0
 16 45  1  0  0  0  0
 17 23  1  0  0  0  0
 17 46  1  0  0  0  0
 17 47  1  0  0  0  0
 18 20  1  0  0  0  0
 18 48  1  0  0  0  0
 19 49  1  0  0  0  0
 19 50  1  0  0  0  0
 19 51  1  0  0  0  0
 21 25  1  0  0  0  0
 21 53  1  1  0  0  0
 21 54  1  0  0  0  0
 22 26  1  0  0  0  0
 22 55  1  0  0  0  0
 22 56  1  0  0  0  0
 23 25  1  0  0  0  0
 23 57  1  0  0  0  0
 23 58  1  0  0  0  0
 24 59  1  0  0  0  0
 24 60  1  0  0  0  0
 24 61  1  0  0  0  0
 26 27  1  0  0  0  0
 26 62  1  0  0  0  0
 26 63  1  0  0  0  0
 27 28  1  0  0  0  0
 27 64  1  0  0  0  0
 27 65  1  0  0  0  0
 28 29  1  0  0  0  0
 28 30  1  0  0  0  0
 28 66  1  0  0  0  0
 29 67  1  0  0  0  0
 29 71  1  0  0  0  0
 29 72  1  0  0  0  0
 30 68  1  0  0  0  0
 30 69  1  0  0  0  0
 30 70  1  0  0  0  0
M  END
> <PUBCHEM_COMPOUND_CID>
15081546

> <PUBCHEM_COMPOUND_CANONICALIZED>
1

> <PUBCHEM_CACTVS_COMPLEXITY>
751

> <PUBCHEM_CACTVS_HBOND_ACCEPTOR>
3

> <PUBCHEM_CACTVS_HBOND_DONOR>
1

> <PUBCHEM_CACTVS_ROTATABLE_BOND>
5

> <PUBCHEM_CACTVS_SUBSKEYS>
AAADcfB4MAAAAAAAAAAAAAAAAAAAAYAAAAAwYIAAAAAAAGCAAAAAGgAACAAAD0SAgAACAAAAAgCIAqBSAAAAAAAgAAAACAEAAEgABBIAAQAAUAAEgAAIEQOJyPCPgAAAAAAAAACAAAYAADAAAYAADAAAAA==

> <PUBCHEM_IUPAC_OPENEYE_NAME>
(5R,9R,10R,13R,14S,17R)-17-[(1R)-1,5-dimethylhexyl]-14-hydroxy-10,13-dimethyl-1,2,4,5,9,11,12,15,16,17-decahydrocyclopenta[a]phenanthrene-3,6-dione

> <PUBCHEM_IUPAC_CAS_NAME>
(5R,9R,10R,13R,14S,17R)-14-hydroxy-10,13-dimethyl-17-[(2R)-6-methylheptan-2-yl]-1,2,4,5,9,11,12,15,16,17-decahydrocyclopenta[a]phenanthrene-3,6-dione

> <PUBCHEM_IUPAC_NAME>
(5R,9R,10R,13R,14S,17R)-14-hydroxy-10,13-dimethyl-17-[(2R)-6-methylheptan-2-yl]-1,2,4,5,9,11,12,15,16,17-decahydrocyclopenta[a]phenanthrene-3,6-dione

> <PUBCHEM_IUPAC_SYSTEMATIC_NAME>
(5R,9R,10R,13R,14S,17R)-10,13-dimethyl-17-[(2R)-6-methylheptan-2-yl]-14-oxidanyl-1,2,4,5,9,11,12,15,16,17-decahydrocyclopenta[a]phenanthrene-3,6-dione

> <PUBCHEM_IUPAC_TRADITIONAL_NAME>
(5R,9R,10R,13R,14S,17R)-17-[(1R)-1,5-dimethylhexyl]-14-hydroxy-10,13-dimethyl-1,2,4,5,9,11,12,15,16,17-decahydrocyclopenta[a]phenanthrene-3,6-quinone

> <PUBCHEM_IUPAC_INCHI>
InChI=1S/C27H42O3/c1-17(2)7-6-8-18(3)20-11-14-27(30)22-16-24(29)23-15-19(28)9-12-25(23,4)21(22)10-13-26(20,27)5/h16-18,20-21,23,30H,6-15H2,1-5H3/t18-,20-,21+,23+,25-,26-,27-/m1/s1

> <PUBCHEM_IUPAC_INCHIKEY>
AJPPBYXIXOLGAV-QHKDMNIJSA-N

> <PUBCHEM_XLOGP3_AA>
5.2

> <PUBCHEM_EXACT_MASS>
414.313395

> <PUBCHEM_MOLECULAR_FORMULA>
C27H42O3

> <PUBCHEM_MOLECULAR_WEIGHT>
414.62058

> <PUBCHEM_OPENEYE_CAN_SMILES>
CC(C)CCCC(C)C1CCC2(C1(CCC3C2=CC(=O)C4C3(CCC(=O)C4)C)C)O

> <PUBCHEM_OPENEYE_ISO_SMILES>
[H][C@]1(C(=O)CC[C@]2([C@@H]1C(=O)C=C3[C@@H]2CC[C@]4([C@]3(CC[C@@H]4[C@@H](CCCC(C)C)C)O)C)C)[H]

> <PUBCHEM_CACTVS_TPSA>
54.4

> <PUBCHEM_MONOISOTOPIC_WEIGHT>
414.313395

> <PUBCHEM_TOTAL_CHARGE>
0

> <PUBCHEM_HEAVY_ATOM_COUNT>
30

> <PUBCHEM_ATOM_DEF_STEREO_COUNT>
8

> <PUBCHEM_ATOM_UDEF_STEREO_COUNT>
0

> <PUBCHEM_BOND_DEF_STEREO_COUNT>
0

> <PUBCHEM_BOND_UDEF_STEREO_COUNT>
0

> <PUBCHEM_ISOTOPIC_ATOM_COUNT>
0

> <PUBCHEM_COMPONENT_COUNT>
1

> <PUBCHEM_CACTVS_TAUTO_COUNT>
25

> <PUBCHEM_COORDINATE_TYPE>
1
5
255

> <PUBCHEM_BONDANNOTATIONS>
5  1  6
10  19  5
14  24  6
15  42  5
21  53  5
4  16  5
6  31  6
7  32  6

$$$$

