46173795
  -OEChem-07051213022D

 46 50  0     1  0  0  0  0  0999 V2000
   10.1967    2.6764    0.0000 O   0  0  0  0  0  0  0  0  0  0  0  0
    2.8660   -0.3740    0.0000 O   0  0  0  0  0  0  0  0  0  0  0  0
    8.2437    0.1260    0.0000 N   0  0  3  0  0  0  0  0  0  0  0  0
    5.9879   -0.3082    0.0000 N   0  0  0  0  0  0  0  0  0  0  0  0
    8.2437    0.9942    0.0000 C   0  0  2  0  0  0  0  0  0  0  0  0
    8.2437   -1.6106    0.0000 C   0  0  1  0  0  0  0  0  0  0  0  0
    7.4918   -0.3082    0.0000 C   0  0  1  0  0  0  0  0  0  0  0  0
    8.9957    1.4284    0.0000 C   0  0  3  0  0  0  0  0  0  0  0  0
    7.4918   -1.1764    0.0000 C   0  0  0  0  0  0  0  0  0  0  0  0
    7.4918    1.4284    0.0000 C   0  0  0  0  0  0  0  0  0  0  0  0
    8.9957   -0.3082    0.0000 C   0  0  0  0  0  0  0  0  0  0  0  0
    8.9957   -1.1764    0.0000 C   0  0  0  0  0  0  0  0  0  0  0  0
    6.7398    0.1260    0.0000 C   0  0  0  0  0  0  0  0  0  0  0  0
    6.7398    0.9942    0.0000 C   0  0  0  0  0  0  0  0  0  0  0  0
    9.9565    1.7057    0.0000 C   0  0  0  0  0  0  0  0  0  0  0  0
    5.2359    0.9942    0.0000 C   0  0  0  0  0  0  0  0  0  0  0  0
    9.8617   -1.6764    0.0000 C   0  0  0  0  0  0  0  0  0  0  0  0
    5.2359    0.1260    0.0000 C   0  0  0  0  0  0  0  0  0  0  0  0
    4.4840    1.4284    0.0000 C   0  0  0  0  0  0  0  0  0  0  0  0
    9.8617   -2.6764    0.0000 C   0  0  0  0  0  0  0  0  0  0  0  0
    4.4840   -0.3082    0.0000 C   0  0  0  0  0  0  0  0  0  0  0  0
    3.7320    0.9942    0.0000 C   0  0  0  0  0  0  0  0  0  0  0  0
    3.7320    0.1260    0.0000 C   0  0  0  0  0  0  0  0  0  0  0  0
    2.0000    0.1260    0.0000 C   0  0  0  0  0  0  0  0  0  0  0  0
    8.2437    1.8442    0.0000 H   0  0  0  0  0  0  0  0  0  0  0  0
    8.2437   -2.4606    0.0000 H   0  0  0  0  0  0  0  0  0  0  0  0
    6.8222   -0.8318    0.0000 H   0  0  0  0  0  0  0  0  0  0  0  0
    8.6629    2.2105    0.0000 H   0  0  0  0  0  0  0  0  0  0  0  0
    6.8812   -1.0688    0.0000 H   0  0  0  0  0  0  0  0  0  0  0  0
    7.2797   -1.7591    0.0000 H   0  0  0  0  0  0  0  0  0  0  0  0
    7.8903    1.9033    0.0000 H   0  0  0  0  0  0  0  0  0  0  0  0
    7.0933    1.9033    0.0000 H   0  0  0  0  0  0  0  0  0  0  0  0
    9.6063   -0.4158    0.0000 H   0  0  0  0  0  0  0  0  0  0  0  0
    9.2077    0.2744    0.0000 H   0  0  0  0  0  0  0  0  0  0  0  0
   10.4032    1.2758    0.0000 H   0  0  0  0  0  0  0  0  0  0  0  0
    5.9879   -0.9282    0.0000 H   0  0  0  0  0  0  0  0  0  0  0  0
   10.3987   -1.3664    0.0000 H   0  0  0  0  0  0  0  0  0  0  0  0
    4.4840    2.0484    0.0000 H   0  0  0  0  0  0  0  0  0  0  0  0
    9.2417   -2.6764    0.0000 H   0  0  0  0  0  0  0  0  0  0  0  0
    9.8617   -3.2964    0.0000 H   0  0  0  0  0  0  0  0  0  0  0  0
   10.4817   -2.6764    0.0000 H   0  0  0  0  0  0  0  0  0  0  0  0
    4.4840   -0.9282    0.0000 H   0  0  0  0  0  0  0  0  0  0  0  0
    3.1951    1.3042    0.0000 H   0  0  0  0  0  0  0  0  0  0  0  0
    2.3100    0.6629    0.0000 H   0  0  0  0  0  0  0  0  0  0  0  0
    1.4631    0.4360    0.0000 H   0  0  0  0  0  0  0  0  0  0  0  0
    1.6900   -0.4110    0.0000 H   0  0  0  0  0  0  0  0  0  0  0  0
  1 15  2  0  0  0  0
  2 23  1  0  0  0  0
  2 24  1  0  0  0  0
  3  5  1  0  0  0  0
  3  7  1  0  0  0  0
  3 11  1  0  0  0  0
  4 13  1  0  0  0  0
  4 18  1  0  0  0  0
  4 36  1  0  0  0  0
  5  8  1  0  0  0  0
  5 10  1  0  0  0  0
  5 25  1  6  0  0  0
  6  8  1  0  0  0  0
  6  9  1  0  0  0  0
  6 12  1  0  0  0  0
  6 26  1  1  0  0  0
  7  9  1  0  0  0  0
  7 13  1  0  0  0  0
  7 27  1  6  0  0  0
  8 15  1  0  0  0  0
  8 28  1  0  0  0  0
  9 29  1  0  0  0  0
  9 30  1  0  0  0  0
 10 14  1  0  0  0  0
 10 31  1  0  0  0  0
 10 32  1  0  0  0  0
 11 12  1  0  0  0  0
 11 33  1  0  0  0  0
 11 34  1  0  0  0  0
 12 17  2  0  0  0  0
 13 14  2  0  0  0  0
 14 16  1  0  0  0  0
 15 35  1  0  0  0  0
 16 18  2  0  0  0  0
 16 19  1  0  0  0  0
 17 20  1  0  0  0  0
 17 37  1  0  0  0  0
 18 21  1  0  0  0  0
 19 22  2  0  0  0  0
 19 38  1  0  0  0  0
 20 39  1  0  0  0  0
 20 40  1  0  0  0  0
 20 41  1  0  0  0  0
 21 23  2  0  0  0  0
 21 42  1  0  0  0  0
 22 23  1  0  0  0  0
 22 43  1  0  0  0  0
 24 44  1  0  0  0  0
 24 45  1  0  0  0  0
 24 46  1  0  0  0  0
M  END
> <PUBCHEM_COMPOUND_CID>
46173795

> <PUBCHEM_COMPOUND_CANONICALIZED>
1

> <PUBCHEM_CACTVS_COMPLEXITY>
562

> <PUBCHEM_CACTVS_HBOND_ACCEPTOR>
3

> <PUBCHEM_CACTVS_HBOND_DONOR>
1

> <PUBCHEM_CACTVS_ROTATABLE_BOND>
2

> <PUBCHEM_CACTVS_SUBSKEYS>
AAADceB7MAAAAAAAAAAAAAAAAAAAAWAAAAA8WLFiAAAYAFgB8AAAHgAQAAAADSzhngYyxvPJlACoAyxyxACCiCAhIiAImSE+bJgMZvrEsZuUMChm0BnI6AeY2fOeoAAAAgACAABAAAAEAAQAAAAAAAAAAA==

> <PUBCHEM_IUPAC_INCHI>
InChI=1S/C20H22N2O2/c1-3-11-9-22-18-8-15-13-5-4-12(24-2)6-17(13)21-20(15)19(22)7-14(11)16(18)10-23/h3-6,10,14,16,18-19,21H,7-9H2,1-2H3/b11-3-/t14-,16?,18-,19-/m0/s1

> <PUBCHEM_IUPAC_INCHIKEY>
FYFYFFSSNSDDOY-DINRHSDHSA-N

> <PUBCHEM_XLOGP3_AA>
2

> <PUBCHEM_EXACT_MASS>
322.168128

> <PUBCHEM_MOLECULAR_FORMULA>
C20H22N2O2

> <PUBCHEM_MOLECULAR_WEIGHT>
322.40088

> <PUBCHEM_OPENEYE_CAN_SMILES>
CC=C1CN2C3CC1C(C2CC4=C3NC5=C4C=CC(=C5)OC)C=O

> <PUBCHEM_OPENEYE_ISO_SMILES>
C/C=C\1/CN2[C@H]3C[C@@H]1C([C@@H]2CC4=C3NC5=C4C=CC(=C5)OC)C=O

> <PUBCHEM_CACTVS_TPSA>
45.3

> <PUBCHEM_MONOISOTOPIC_WEIGHT>
322.168128

> <PUBCHEM_TOTAL_CHARGE>
0

> <PUBCHEM_HEAVY_ATOM_COUNT>
24

> <PUBCHEM_ATOM_DEF_STEREO_COUNT>
3

> <PUBCHEM_ATOM_UDEF_STEREO_COUNT>
1

> <PUBCHEM_BOND_DEF_STEREO_COUNT>
1

> <PUBCHEM_BOND_UDEF_STEREO_COUNT>
0

> <PUBCHEM_ISOTOPIC_ATOM_COUNT>
0

> <PUBCHEM_COMPONENT_COUNT>
1

> <PUBCHEM_CACTVS_TAUTO_COUNT>
1

> <PUBCHEM_COORDINATE_TYPE>
1
5
255

> <PUBCHEM_BONDANNOTATIONS>
13  14  8
14  16  8
16  18  8
16  19  8
18  21  8
19  22  8
21  23  8
22  23  8
4  13  8
4  18  8
5  25  6
6  26  5
7  27  6
8  28  3

$$$$

