11954136
  -OEChem-07051213072D

 22 22  0     0  0  0  0  0  0999 V2000
    2.0000   -2.3100    0.0000 Cl  0  0  0  0  0  0  0  0  0  0  0  0
    3.7320   -3.3100    0.0000 Cl  0  0  0  0  0  0  0  0  0  0  0  0
    5.4641    2.6900    0.0000 O   0  0  0  0  0  0  0  0  0  0  0  0
    5.4641    0.6900    0.0000 O   0  0  0  0  0  0  0  0  0  0  0  0
    3.7320    0.6900    0.0000 N   0  0  0  0  0  0  0  0  0  0  0  0
    4.5981    2.1900    0.0000 N   0  0  0  0  0  0  0  0  0  0  0  0
    3.7320   -0.3100    0.0000 C   0  0  0  0  0  0  0  0  0  0  0  0
    2.8660   -0.8100    0.0000 C   0  0  0  0  0  0  0  0  0  0  0  0
    4.5981   -0.8100    0.0000 C   0  0  0  0  0  0  0  0  0  0  0  0
    2.8660   -1.8100    0.0000 C   0  0  0  0  0  0  0  0  0  0  0  0
    4.5981   -1.8100    0.0000 C   0  0  0  0  0  0  0  0  0  0  0  0
    4.5981    1.1900    0.0000 C   0  0  0  0  0  0  0  0  0  0  0  0
    3.7320   -2.3100    0.0000 C   0  0  0  0  0  0  0  0  0  0  0  0
    3.7320    2.6900    0.0000 C   0  0  0  0  0  0  0  0  0  0  0  0
    3.1951    1.0000    0.0000 H   0  0  0  0  0  0  0  0  0  0  0  0
    2.3291   -0.5000    0.0000 H   0  0  0  0  0  0  0  0  0  0  0  0
    5.1350   -0.5000    0.0000 H   0  0  0  0  0  0  0  0  0  0  0  0
    5.1350   -2.1200    0.0000 H   0  0  0  0  0  0  0  0  0  0  0  0
    4.0420    3.2269    0.0000 H   0  0  0  0  0  0  0  0  0  0  0  0
    3.1951    3.0000    0.0000 H   0  0  0  0  0  0  0  0  0  0  0  0
    3.4220    2.1531    0.0000 H   0  0  0  0  0  0  0  0  0  0  0  0
    5.4641    3.3100    0.0000 H   0  0  0  0  0  0  0  0  0  0  0  0
  1 10  1  0  0  0  0
  2 13  1  0  0  0  0
  3  6  1  0  0  0  0
  3 22  1  0  0  0  0
  4 12  2  0  0  0  0
  5  7  1  0  0  0  0
  5 12  1  0  0  0  0
  5 15  1  0  0  0  0
  6 12  1  0  0  0  0
  6 14  1  0  0  0  0
  7  8  2  0  0  0  0
  7  9  1  0  0  0  0
  8 10  1  0  0  0  0
  8 16  1  0  0  0  0
  9 11  2  0  0  0  0
  9 17  1  0  0  0  0
 10 13  2  0  0  0  0
 11 13  1  0  0  0  0
 11 18  1  0  0  0  0
 14 19  1  0  0  0  0
 14 20  1  0  0  0  0
 14 21  1  0  0  0  0
M  END
> <PUBCHEM_COMPOUND_CID>
11954136

> <PUBCHEM_COMPOUND_CANONICALIZED>
1

> <PUBCHEM_CACTVS_COMPLEXITY>
216

> <PUBCHEM_CACTVS_HBOND_ACCEPTOR>
2

> <PUBCHEM_CACTVS_HBOND_DONOR>
2

> <PUBCHEM_CACTVS_ROTATABLE_BOND>
1

> <PUBCHEM_CACTVS_SUBSKEYS>
AAADccBzMAAGAAAAAAAAAAAAAAAAAAAAAAAwAAAAAAAAAAABAAAAHgIUCAAACAqBECQzwILQAACIACRCUACCAAAhBwAIikAIZoiIICLBk5GEIAholgJIyCcQAAAAAABAAAIAAAQAAIAABAAACAAAAAAAAA==

> <PUBCHEM_IUPAC_OPENEYE_NAME>
3-(3,4-dichlorophenyl)-1-hydroxy-1-methyl-urea

> <PUBCHEM_IUPAC_CAS_NAME>
3-(3,4-dichlorophenyl)-1-hydroxy-1-methylurea

> <PUBCHEM_IUPAC_NAME>
3-(3,4-dichlorophenyl)-1-hydroxy-1-methylurea

> <PUBCHEM_IUPAC_SYSTEMATIC_NAME>
3-(3,4-dichlorophenyl)-1-methyl-1-oxidanyl-urea

> <PUBCHEM_IUPAC_TRADITIONAL_NAME>
3-(3,4-dichlorophenyl)-1-hydroxy-1-methyl-urea

> <PUBCHEM_IUPAC_INCHI>
InChI=1S/C8H8Cl2N2O2/c1-12(14)8(13)11-5-2-3-6(9)7(10)4-5/h2-4,14H,1H3,(H,11,13)

> <PUBCHEM_IUPAC_INCHIKEY>
VRPNGDJYUJPTQH-UHFFFAOYSA-N

> <PUBCHEM_XLOGP3>
2.2

> <PUBCHEM_EXACT_MASS>
233.996283

> <PUBCHEM_MOLECULAR_FORMULA>
C8H8Cl2N2O2

> <PUBCHEM_MOLECULAR_WEIGHT>
235.06732

> <PUBCHEM_OPENEYE_CAN_SMILES>
CN(C(=O)NC1=CC(=C(C=C1)Cl)Cl)O

> <PUBCHEM_OPENEYE_ISO_SMILES>
CN(C(=O)NC1=CC(=C(C=C1)Cl)Cl)O

> <PUBCHEM_CACTVS_TPSA>
52.6

> <PUBCHEM_MONOISOTOPIC_WEIGHT>
233.996283

> <PUBCHEM_TOTAL_CHARGE>
0

> <PUBCHEM_HEAVY_ATOM_COUNT>
14

> <PUBCHEM_ATOM_DEF_STEREO_COUNT>
0

> <PUBCHEM_ATOM_UDEF_STEREO_COUNT>
0

> <PUBCHEM_BOND_DEF_STEREO_COUNT>
0

> <PUBCHEM_BOND_UDEF_STEREO_COUNT>
0

> <PUBCHEM_ISOTOPIC_ATOM_COUNT>
0

> <PUBCHEM_COMPONENT_COUNT>
1

> <PUBCHEM_CACTVS_TAUTO_COUNT>
2

> <PUBCHEM_COORDINATE_TYPE>
1
5
255

> <PUBCHEM_BONDANNOTATIONS>
10  13  8
11  13  8
7  8  8
7  9  8
8  10  8
9  11  8

$$$$

