7847037
  -OEChem-06241222482D

 46 49  0     0  0  0  0  0  0999 V2000
    4.6783    3.7688    0.0000 S   0  0  0  0  0  0  0  0  0  0  0  0
    8.2619    1.2320    0.0000 O   0  0  0  0  0  0  0  0  0  0  0  0
    8.2619    2.9641    0.0000 O   0  0  0  0  0  0  0  0  0  0  0  0
    4.6783    2.1594    0.0000 N   0  0  0  0  0  0  0  0  0  0  0  0
    6.2619    2.9641    0.0000 C   0  0  0  0  0  0  0  0  0  0  0  0
    6.7619    2.0981    0.0000 C   0  0  0  0  0  0  0  0  0  0  0  0
    5.2619    2.9641    0.0000 C   0  0  0  0  0  0  0  0  0  0  0  0
    9.7619    0.3660    0.0000 C   0  0  0  0  0  0  0  0  0  0  0  0
   10.7619   -1.3660    0.0000 C   0  0  0  0  0  0  0  0  0  0  0  0
    9.2619    1.2320    0.0000 C   0  0  0  0  0  0  0  0  0  0  0  0
    3.7320    3.4641    0.0000 C   0  0  0  0  0  0  0  0  0  0  0  0
    3.7320    2.4641    0.0000 C   0  0  0  0  0  0  0  0  0  0  0  0
    7.7619    2.0981    0.0000 C   0  0  0  0  0  0  0  0  0  0  0  0
   11.2619   -2.2320    0.0000 C   0  0  0  0  0  0  0  0  0  0  0  0
    9.2619   -0.5000    0.0000 C   0  0  0  0  0  0  0  0  0  0  0  0
   10.7619    0.3660    0.0000 C   0  0  0  0  0  0  0  0  0  0  0  0
    9.7619   -1.3660    0.0000 C   0  0  0  0  0  0  0  0  0  0  0  0
   11.2619   -0.5000    0.0000 C   0  0  0  0  0  0  0  0  0  0  0  0
    2.8660    3.9641    0.0000 C   0  0  0  0  0  0  0  0  0  0  0  0
    2.8660    1.9641    0.0000 C   0  0  0  0  0  0  0  0  0  0  0  0
   10.7619   -3.0981    0.0000 C   0  0  0  0  0  0  0  0  0  0  0  0
   12.2619   -2.2320    0.0000 C   0  0  0  0  0  0  0  0  0  0  0  0
    2.0000    3.4641    0.0000 C   0  0  0  0  0  0  0  0  0  0  0  0
    2.0000    2.4641    0.0000 C   0  0  0  0  0  0  0  0  0  0  0  0
   11.2619   -3.9641    0.0000 C   0  0  0  0  0  0  0  0  0  0  0  0
   12.7619   -3.0981    0.0000 C   0  0  0  0  0  0  0  0  0  0  0  0
   12.2619   -3.9641    0.0000 C   0  0  0  0  0  0  0  0  0  0  0  0
    6.8445    3.1761    0.0000 H   0  0  0  0  0  0  0  0  0  0  0  0
    6.1542    3.5747    0.0000 H   0  0  0  0  0  0  0  0  0  0  0  0
    6.1793    1.8860    0.0000 H   0  0  0  0  0  0  0  0  0  0  0  0
    6.8695    1.4875    0.0000 H   0  0  0  0  0  0  0  0  0  0  0  0
    9.8445    1.4441    0.0000 H   0  0  0  0  0  0  0  0  0  0  0  0
    9.1542    1.8426    0.0000 H   0  0  0  0  0  0  0  0  0  0  0  0
    8.6419   -0.5000    0.0000 H   0  0  0  0  0  0  0  0  0  0  0  0
   11.0719    0.9030    0.0000 H   0  0  0  0  0  0  0  0  0  0  0  0
    9.4519   -1.9030    0.0000 H   0  0  0  0  0  0  0  0  0  0  0  0
   11.8819   -0.5000    0.0000 H   0  0  0  0  0  0  0  0  0  0  0  0
    2.8660    4.5841    0.0000 H   0  0  0  0  0  0  0  0  0  0  0  0
    2.8660    1.3441    0.0000 H   0  0  0  0  0  0  0  0  0  0  0  0
   10.1419   -3.0981    0.0000 H   0  0  0  0  0  0  0  0  0  0  0  0
   12.5719   -1.6951    0.0000 H   0  0  0  0  0  0  0  0  0  0  0  0
    1.4631    3.7741    0.0000 H   0  0  0  0  0  0  0  0  0  0  0  0
    1.4631    2.1541    0.0000 H   0  0  0  0  0  0  0  0  0  0  0  0
   10.9519   -4.5010    0.0000 H   0  0  0  0  0  0  0  0  0  0  0  0
   13.3819   -3.0981    0.0000 H   0  0  0  0  0  0  0  0  0  0  0  0
   12.5719   -4.5010    0.0000 H   0  0  0  0  0  0  0  0  0  0  0  0
  1  7  1  0  0  0  0
  1 11  1  0  0  0  0
  2 10  1  0  0  0  0
  2 13  1  0  0  0  0
  3 13  2  0  0  0  0
  4  7  2  0  0  0  0
  4 12  1  0  0  0  0
  5  6  1  0  0  0  0
  5  7  1  0  0  0  0
  5 28  1  0  0  0  0
  5 29  1  0  0  0  0
  6 13  1  0  0  0  0
  6 30  1  0  0  0  0
  6 31  1  0  0  0  0
  8 10  1  0  0  0  0
  8 15  2  0  0  0  0
  8 16  1  0  0  0  0
  9 14  1  0  0  0  0
  9 17  2  0  0  0  0
  9 18  1  0  0  0  0
 10 32  1  0  0  0  0
 10 33  1  0  0  0  0
 11 12  1  0  0  0  0
 11 19  2  0  0  0  0
 12 20  2  0  0  0  0
 14 21  2  0  0  0  0
 14 22  1  0  0  0  0
 15 17  1  0  0  0  0
 15 34  1  0  0  0  0
 16 18  2  0  0  0  0
 16 35  1  0  0  0  0
 17 36  1  0  0  0  0
 18 37  1  0  0  0  0
 19 23  1  0  0  0  0
 19 38  1  0  0  0  0
 20 24  1  0  0  0  0
 20 39  1  0  0  0  0
 21 25  1  0  0  0  0
 21 40  1  0  0  0  0
 22 26  2  0  0  0  0
 22 41  1  0  0  0  0
 23 24  2  0  0  0  0
 23 42  1  0  0  0  0
 24 43  1  0  0  0  0
 25 27  2  0  0  0  0
 25 44  1  0  0  0  0
 26 27  1  0  0  0  0
 26 45  1  0  0  0  0
 27 46  1  0  0  0  0
M  END
> <PUBCHEM_COMPOUND_CID>
7847037

> <PUBCHEM_COMPOUND_CANONICALIZED>
1

> <PUBCHEM_CACTVS_COMPLEXITY>
471

> <PUBCHEM_CACTVS_HBOND_ACCEPTOR>
4

> <PUBCHEM_CACTVS_HBOND_DONOR>
0

> <PUBCHEM_CACTVS_ROTATABLE_BOND>
7

> <PUBCHEM_CACTVS_SUBSKEYS>
AAADceB6MABAAAAAAAAAAAAAAAAAAWAAAAAwYMAAAAAAAFgB9AAAHgQAAAAADAih3gIwybIIFAisAyTyTACD8KBhCjhImD0wbJgIJrLgsZmGMAhkwAHo6Ae0wPAOwAAAAAAAAQCAAAAAAAACAAAAAAAAAA==

> <PUBCHEM_IUPAC_OPENEYE_NAME>
(4-phenylphenyl)methyl 3-(1,3-benzothiazol-2-yl)propanoate

> <PUBCHEM_IUPAC_CAS_NAME>
3-(1,3-benzothiazol-2-yl)propanoic acid (4-phenylphenyl)methyl ester

> <PUBCHEM_IUPAC_NAME>
(4-phenylphenyl)methyl 3-(1,3-benzothiazol-2-yl)propanoate

> <PUBCHEM_IUPAC_SYSTEMATIC_NAME>
(4-phenylphenyl)methyl 3-(1,3-benzothiazol-2-yl)propanoate

> <PUBCHEM_IUPAC_TRADITIONAL_NAME>
3-(1,3-benzothiazol-2-yl)propionic acid (4-phenylbenzyl) ester

> <PUBCHEM_IUPAC_INCHI>
InChI=1S/C23H19NO2S/c25-23(15-14-22-24-20-8-4-5-9-21(20)27-22)26-16-17-10-12-19(13-11-17)18-6-2-1-3-7-18/h1-13H,14-16H2

> <PUBCHEM_IUPAC_INCHIKEY>
IQSVKYIHQPJEAB-UHFFFAOYSA-N

> <PUBCHEM_XLOGP3_AA>
5.6

> <PUBCHEM_EXACT_MASS>
373.11365

> <PUBCHEM_MOLECULAR_FORMULA>
C23H19NO2S

> <PUBCHEM_MOLECULAR_WEIGHT>
373.46746

> <PUBCHEM_OPENEYE_CAN_SMILES>
C1=CC=C(C=C1)C2=CC=C(C=C2)COC(=O)CCC3=NC4=CC=CC=C4S3

> <PUBCHEM_OPENEYE_ISO_SMILES>
C1=CC=C(C=C1)C2=CC=C(C=C2)COC(=O)CCC3=NC4=CC=CC=C4S3

> <PUBCHEM_CACTVS_TPSA>
67.4

> <PUBCHEM_MONOISOTOPIC_WEIGHT>
373.11365

> <PUBCHEM_TOTAL_CHARGE>
0

> <PUBCHEM_HEAVY_ATOM_COUNT>
27

> <PUBCHEM_ATOM_DEF_STEREO_COUNT>
0

> <PUBCHEM_ATOM_UDEF_STEREO_COUNT>
0

> <PUBCHEM_BOND_DEF_STEREO_COUNT>
0

> <PUBCHEM_BOND_UDEF_STEREO_COUNT>
0

> <PUBCHEM_ISOTOPIC_ATOM_COUNT>
0

> <PUBCHEM_COMPONENT_COUNT>
1

> <PUBCHEM_CACTVS_TAUTO_COUNT>
2

> <PUBCHEM_COORDINATE_TYPE>
1
5
255

> <PUBCHEM_BONDANNOTATIONS>
1  11  8
1  7  8
11  12  8
11  19  8
12  20  8
14  21  8
14  22  8
15  17  8
16  18  8
19  23  8
20  24  8
21  25  8
22  26  8
23  24  8
25  27  8
26  27  8
4  12  8
4  7  8
8  15  8
8  16  8
9  17  8
9  18  8

$$$$

