   Color/Form
        Yellowish, transparent liquid
   from [1]HSDB

   Odor
        Penetrating fragrant, somewhat fruity odor
   from [2]HSDB

   Taste
        Pungent, aromatic taste
   from [3]HSDB

   Boiling Point
        99.2 deg C
   from [4]HSDB

   Density/Specific Gravity
        0.875 @ 25 deg C
   from [5]HSDB

   Solubilities

     * MISCIBLE WITH ETHER, ALCOHOL, CHLOROFORM
     * Very slightly soluble in water

   from [6]HSDB

   Spectral Properties

     * Index of refraction: 1.3918 @ 20 deg C
     * MAX ABSORPTION (CYCLOHEXANE): 224 NM (LOG E= 3.29); 333 NM (LOG E=
       1.71); 369 NM (LOG E= 1.83); 384 NM (LOG E= 1.52)
     * UV: 1398 (Sadtler Research Laboratories Spectral Collection)
     * MASS: 46382 (NIST/EPA/MSDC Mass Spectral Database, 1990 Version);
       25 (Aldermaston, Eight Peak Index of Mass Spectra, UK)
     * IR: 5147 (Sadtler Research Laboratories Spectral Collection)

   from [7]HSDB

   Vapor Density
        4.0 (Air=1)
   from [8]HSDB

   Other Chemical/Physical Properties

     * VOLATILE EVEN AT LOW TEMP
     * Decomposes on exposure to air, light or water

   from [9]HSDB

   Computed Properties
   Molecular Weight                  117.14634 [g/mol]
   Molecular Formula                 C[5]H[11]NO[2]
   XLogP3-AA                         1.7
   H-Bond Donor                      0
   H-Bond Acceptor                   3
   Rotatable Bond Count              3
   Exact Mass                        117.078979
   MonoIsotopic Mass                 117.078979
   Topological Polar Surface Area    38.7
   Heavy Atom Count                  8
   Formal Charge                     0
   Complexity                        63.4
   Isotope Atom Count                0
   Defined Atom Stereocenter Count   0
   Undefined Atom Stereocenter Count 0
   Defined Bond Stereocenter Count   0
   Undefined Bond Stereocenter Count 0
   Covalently-Bonded Unit Count      1
   Feature 3D Hydrophobe Count       1
   Effective Rotor Count             4
   Conformer Sampling RMSD           0.6
   CID Conformer Count               [10]12

References

   1. http://toxnet.nlm.nih.gov/cgi-bin/sis/search/r?dbs+hsdb:@term+@rn+@rel+110-46-3
   2. http://toxnet.nlm.nih.gov/cgi-bin/sis/search/r?dbs+hsdb:@term+@rn+@rel+110-46-3
   3. http://toxnet.nlm.nih.gov/cgi-bin/sis/search/r?dbs+hsdb:@term+@rn+@rel+110-46-3
   4. http://toxnet.nlm.nih.gov/cgi-bin/sis/search/r?dbs+hsdb:@term+@rn+@rel+110-46-3
   5. http://toxnet.nlm.nih.gov/cgi-bin/sis/search/r?dbs+hsdb:@term+@rn+@rel+110-46-3
   6. http://toxnet.nlm.nih.gov/cgi-bin/sis/search/r?dbs+hsdb:@term+@rn+@rel+110-46-3
   7. http://toxnet.nlm.nih.gov/cgi-bin/sis/search/r?dbs+hsdb:@term+@rn+@rel+110-46-3
   8. http://toxnet.nlm.nih.gov/cgi-bin/sis/search/r?dbs+hsdb:@term+@rn+@rel+110-46-3
   9. http://toxnet.nlm.nih.gov/cgi-bin/sis/search/r?dbs+hsdb:@term+@rn+@rel+110-46-3
  10. http://pubchem.ncbi.nlm.nih.gov/vw3d/vw3d.cgi?cid=8053
