46173905
  -OEChem-07051213102D

 43 44  0     1  0  0  0  0  0999 V2000
    4.5981    1.7073    0.0000 O   0  0  0  0  0  0  0  0  0  0  0  0
    6.3465   -2.3273    0.0000 O   0  0  0  0  0  0  0  0  0  0  0  0
    5.4641    0.2073    0.0000 C   0  0  2  0  0  0  0  0  0  0  0  0
    5.4641   -0.7927    0.0000 C   0  0  1  0  0  0  0  0  0  0  0  0
    4.5981   -1.2927    0.0000 C   0  0  0  0  0  0  0  0  0  0  0  0
    4.5981    0.7073    0.0000 C   0  0  0  0  0  0  0  0  0  0  0  0
    3.7320   -0.7927    0.0000 C   0  0  1  0  0  0  0  0  0  0  0  0
    6.3580    0.7420    0.0000 C   0  0  0  0  0  0  0  0  0  0  0  0
    3.7320    0.2073    0.0000 C   0  0  0  0  0  0  0  0  0  0  0  0
    6.3580   -1.3274    0.0000 C   0  0  0  0  0  0  0  0  0  0  0  0
    5.4641    1.2073    0.0000 C   0  0  0  0  0  0  0  0  0  0  0  0
    7.2641    0.2281    0.0000 C   0  0  0  0  0  0  0  0  0  0  0  0
    5.4641   -1.7927    0.0000 C   0  0  0  0  0  0  0  0  0  0  0  0
    2.8660   -1.2927    0.0000 C   0  0  0  0  0  0  0  0  0  0  0  0
    7.2641   -0.8135    0.0000 C   0  0  0  0  0  0  0  0  0  0  0  0
    2.0000   -0.7927    0.0000 C   0  0  0  0  0  0  0  0  0  0  0  0
    2.8660   -2.2927    0.0000 C   0  0  0  0  0  0  0  0  0  0  0  0
    4.1996   -1.7676    0.0000 H   0  0  0  0  0  0  0  0  0  0  0  0
    4.9966   -1.7676    0.0000 H   0  0  0  0  0  0  0  0  0  0  0  0
    4.9966    1.1822    0.0000 H   0  0  0  0  0  0  0  0  0  0  0  0
    4.1996    1.1822    0.0000 H   0  0  0  0  0  0  0  0  0  0  0  0
    3.1951   -0.4827    0.0000 H   0  0  0  0  0  0  0  0  0  0  0  0
    6.7517    1.2210    0.0000 H   0  0  0  0  0  0  0  0  0  0  0  0
    5.9534    1.2118    0.0000 H   0  0  0  0  0  0  0  0  0  0  0  0
    3.5200    0.7899    0.0000 H   0  0  0  0  0  0  0  0  0  0  0  0
    3.1215    0.0996    0.0000 H   0  0  0  0  0  0  0  0  0  0  0  0
    6.0747    1.0996    0.0000 H   0  0  0  0  0  0  0  0  0  0  0  0
    5.6762    1.7899    0.0000 H   0  0  0  0  0  0  0  0  0  0  0  0
    7.8750    0.1220    0.0000 H   0  0  0  0  0  0  0  0  0  0  0  0
    7.4732    0.8118    0.0000 H   0  0  0  0  0  0  0  0  0  0  0  0
    4.8441   -1.7927    0.0000 H   0  0  0  0  0  0  0  0  0  0  0  0
    5.4641   -2.4127    0.0000 H   0  0  0  0  0  0  0  0  0  0  0  0
    6.0841   -1.7927    0.0000 H   0  0  0  0  0  0  0  0  0  0  0  0
    2.8660   -0.6727    0.0000 H   0  0  0  0  0  0  0  0  0  0  0  0
    7.4732   -1.3972    0.0000 H   0  0  0  0  0  0  0  0  0  0  0  0
    7.8750   -0.7074    0.0000 H   0  0  0  0  0  0  0  0  0  0  0  0
    2.3100   -0.2558    0.0000 H   0  0  0  0  0  0  0  0  0  0  0  0
    1.4631   -0.4827    0.0000 H   0  0  0  0  0  0  0  0  0  0  0  0
    1.6900   -1.3296    0.0000 H   0  0  0  0  0  0  0  0  0  0  0  0
    2.2460   -2.2927    0.0000 H   0  0  0  0  0  0  0  0  0  0  0  0
    2.8660   -2.9127    0.0000 H   0  0  0  0  0  0  0  0  0  0  0  0
    3.4860   -2.2927    0.0000 H   0  0  0  0  0  0  0  0  0  0  0  0
    4.5981    2.3273    0.0000 H   0  0  0  0  0  0  0  0  0  0  0  0
  1 11  1  0  0  0  0
  1 43  1  0  0  0  0
  2 10  2  0  0  0  0
  3  4  1  0  0  0  0
  3  6  1  0  0  0  0
  3  8  1  0  0  0  0
  3 11  1  1  0  0  0
  4  5  1  0  0  0  0
  4 10  1  0  0  0  0
  4 13  1  1  0  0  0
  5  7  1  0  0  0  0
  5 18  1  0  0  0  0
  5 19  1  0  0  0  0
  6  9  1  0  0  0  0
  6 20  1  0  0  0  0
  6 21  1  0  0  0  0
  7  9  1  0  0  0  0
  7 14  1  6  0  0  0
  7 22  1  0  0  0  0
  8 12  1  0  0  0  0
  8 23  1  0  0  0  0
  8 24  1  0  0  0  0
  9 25  1  0  0  0  0
  9 26  1  0  0  0  0
 10 15  1  0  0  0  0
 11 27  1  0  0  0  0
 11 28  1  0  0  0  0
 12 15  1  0  0  0  0
 12 29  1  0  0  0  0
 12 30  1  0  0  0  0
 13 31  1  0  0  0  0
 13 32  1  0  0  0  0
 13 33  1  0  0  0  0
 14 16  1  0  0  0  0
 14 17  1  0  0  0  0
 14 34  1  0  0  0  0
 15 35  1  0  0  0  0
 15 36  1  0  0  0  0
 16 37  1  0  0  0  0
 16 38  1  0  0  0  0
 16 39  1  0  0  0  0
 17 40  1  0  0  0  0
 17 41  1  0  0  0  0
 17 42  1  0  0  0  0
M  END
> <PUBCHEM_COMPOUND_CID>
46173905

> <PUBCHEM_COMPOUND_CANONICALIZED>
1

> <PUBCHEM_CACTVS_COMPLEXITY>
310

> <PUBCHEM_CACTVS_HBOND_ACCEPTOR>
2

> <PUBCHEM_CACTVS_HBOND_DONOR>
1

> <PUBCHEM_CACTVS_ROTATABLE_BOND>
2

> <PUBCHEM_CACTVS_SUBSKEYS>
AAADceBwMAAAAAAAAAAAAAAAAAAAAAAAAAAwYAAAAAAAAADAAAAAGgAACAAADwSggAICAAAAAgAIAIAQAAAAAAAAAAAAAAEAAAAAEBIAAAAAQAAEAAAAAAGKyPCPgAAAAAAAAACAAAQAACAAAAAAAAAAAA==

> <PUBCHEM_IUPAC_OPENEYE_NAME>
(4aR,7R,8aR)-4a-(hydroxymethyl)-7-isopropyl-8a-methyl-decalin-1-one

> <PUBCHEM_IUPAC_CAS_NAME>
(4aR,7R,8aR)-4a-(hydroxymethyl)-8a-methyl-7-propan-2-yl-3,4,5,6,7,8-hexahydro-2H-naphthalen-1-one

> <PUBCHEM_IUPAC_NAME>
(4aR,7R,8aR)-4a-(hydroxymethyl)-8a-methyl-7-propan-2-yl-3,4,5,6,7,8-hexahydro-2H-naphthalen-1-one

> <PUBCHEM_IUPAC_SYSTEMATIC_NAME>
(4aR,7R,8aR)-4a-(hydroxymethyl)-8a-methyl-7-propan-2-yl-3,4,5,6,7,8-hexahydro-2H-naphthalen-1-one

> <PUBCHEM_IUPAC_TRADITIONAL_NAME>
(4aR,7R,8aR)-7-isopropyl-8a-methyl-4a-methylol-decalin-1-one

> <PUBCHEM_IUPAC_INCHI>
InChI=1S/C15H26O2/c1-11(2)12-6-8-15(10-16)7-4-5-13(17)14(15,3)9-12/h11-12,16H,4-10H2,1-3H3/t12-,14+,15+/m1/s1

> <PUBCHEM_IUPAC_INCHIKEY>
SJKFIHGLULSUCA-SNPRPXQTSA-N

> <PUBCHEM_XLOGP3_AA>
2.8

> <PUBCHEM_EXACT_MASS>
238.19328

> <PUBCHEM_MOLECULAR_FORMULA>
C15H26O2

> <PUBCHEM_MOLECULAR_WEIGHT>
238.36574

> <PUBCHEM_OPENEYE_CAN_SMILES>
CC(C)C1CCC2(CCCC(=O)C2(C1)C)CO

> <PUBCHEM_OPENEYE_ISO_SMILES>
CC(C)[C@@H]1CC[C@@]2(CCCC(=O)[C@@]2(C1)C)CO

> <PUBCHEM_CACTVS_TPSA>
37.3

> <PUBCHEM_MONOISOTOPIC_WEIGHT>
238.19328

> <PUBCHEM_TOTAL_CHARGE>
0

> <PUBCHEM_HEAVY_ATOM_COUNT>
17

> <PUBCHEM_ATOM_DEF_STEREO_COUNT>
3

> <PUBCHEM_ATOM_UDEF_STEREO_COUNT>
0

> <PUBCHEM_BOND_DEF_STEREO_COUNT>
0

> <PUBCHEM_BOND_UDEF_STEREO_COUNT>
0

> <PUBCHEM_ISOTOPIC_ATOM_COUNT>
0

> <PUBCHEM_COMPONENT_COUNT>
1

> <PUBCHEM_CACTVS_TAUTO_COUNT>
2

> <PUBCHEM_COORDINATE_TYPE>
1
5
255

> <PUBCHEM_BONDANNOTATIONS>
3  11  5
4  13  5
7  14  6

$$$$

