   Boiling Point
        108-112 deg C at 12 mm Hg
   from [1]HSDB

   Dissociation Constants
        pKa = 9.6 at 25 deg C (est)
   from [2]HSDB

   Octanol/Water Partition Coefficient
        log Kow = 3.36
   from [3]HSDB

   Solubilities
        In water, 412 mg/L at 25 deg C (est)
   from [4]HSDB

   Spectral Properties
        Intense mass spectral peaks: 72 m/z, 159 m/z, 216 m/z, 230 m/z
   from [5]HSDB

   Vapor Pressure
        4.1X10-2 mm Hg at 25 deg C (est)
   from [6]HSDB

   Other Chemical/Physical Properties

     * White to off-white amorphous powder; does not exhibit polymorphism;
       melts with 2 degree range between 165-170 deg C; pKa 9.92;
       characteristic odor; sparingly soluble in water & ethanol
       /Fenfluramine hydrochloride/
     * Crystals from ethanol and ether; mp: 166 deg C /Hydrochloride/
     * Specific optical rotation: 9.5 deg at 25 deg C/D (concentration by
       volume= 8 g in 100 ml ethanol) /dextro-Fenfluramine/
     * Crystals from ethyl acetate; mp: 160-161 deg C /dextro-Fenfluramine
       hydrochloride/
     * Specific optical rotation: -9.6 deg at 25 deg C/D (concentration by
       volume= 8 g in 100 ml ethanol) /levo-Fenfluramine/
     * Crystals from ethyl acetate; mp: 160-161 deg C /levo-Fenfluramine
       hydrochloride/
     * Henry's Law constant = 2.7X10-5 atm-cu m/ mol at 25 deg C (est)
     * Hydroxyl radical reaction rate constant = 3.3X10-11 cu cm/molec-sec
       at 25 deg C (est)

   from [7]HSDB

   Computed Properties
   Molecular Weight                  231.25735 [g/mol]
   Molecular Formula                 C[12]H[16]F[3]N
   XLogP3                            3.4
   H-Bond Donor                      1
   H-Bond Acceptor                   4
   Rotatable Bond Count              4
   Exact Mass                        231.123484
   MonoIsotopic Mass                 231.123484
   Topological Polar Surface Area    12
   Heavy Atom Count                  16
   Formal Charge                     0
   Complexity                        203
   Isotope Atom Count                0
   Defined Atom Stereocenter Count   0
   Undefined Atom Stereocenter Count 1
   Defined Bond Stereocenter Count   0
   Undefined Bond Stereocenter Count 0
   Covalently-Bonded Unit Count      1
   Feature 3D Donor Count            1
   Feature 3D Cation Count           1
   Feature 3D Ring Count             1
   Effective Rotor Count             5
   Conformer Sampling RMSD           0.6
   CID Conformer Count               [8]50

References

   1. http://toxnet.nlm.nih.gov/cgi-bin/sis/search/r?dbs+hsdb:@term+@rn+@rel+458-24-2
   2. http://toxnet.nlm.nih.gov/cgi-bin/sis/search/r?dbs+hsdb:@term+@rn+@rel+458-24-2
   3. http://toxnet.nlm.nih.gov/cgi-bin/sis/search/r?dbs+hsdb:@term+@rn+@rel+458-24-2
   4. http://toxnet.nlm.nih.gov/cgi-bin/sis/search/r?dbs+hsdb:@term+@rn+@rel+458-24-2
   5. http://toxnet.nlm.nih.gov/cgi-bin/sis/search/r?dbs+hsdb:@term+@rn+@rel+458-24-2
   6. http://toxnet.nlm.nih.gov/cgi-bin/sis/search/r?dbs+hsdb:@term+@rn+@rel+458-24-2
   7. http://toxnet.nlm.nih.gov/cgi-bin/sis/search/r?dbs+hsdb:@term+@rn+@rel+458-24-2
   8. http://pubchem.ncbi.nlm.nih.gov/vw3d/vw3d.cgi?cid=3337
