30387
  -OEChem-07051213142D

 73 68  0     0  0  0  0  0  0999 V2000
    6.3301    0.0000    0.0000 Te  0  0  0  0  0  0  0  0  0  0  0  0
    7.1962    0.5000    0.0000 S   0  5  0  0  0  0  0  0  0  0  0  0
    5.4641   -0.5000    0.0000 S   0  5  0  0  0  0  0  0  0  0  0  0
    5.8301    0.8660    0.0000 S   0  5  0  0  0  0  0  0  0  0  0  0
    6.8301   -0.8660    0.0000 S   0  5  0  0  0  0  0  0  0  0  0  0
    8.0622   -1.0000    0.0000 S   0  0  0  0  0  0  0  0  0  0  0  0
    4.5981    1.0000    0.0000 S   0  0  0  0  0  0  0  0  0  0  0  0
    7.3301    1.7320    0.0000 S   0  0  0  0  0  0  0  0  0  0  0  0
    5.3301   -1.7320    0.0000 S   0  0  0  0  0  0  0  0  0  0  0  0
    8.9282    0.5000    0.0000 N   0  0  0  0  0  0  0  0  0  0  0  0
    3.7320   -0.5000    0.0000 N   0  0  0  0  0  0  0  0  0  0  0  0
    5.8301    2.5981    0.0000 N   0  0  0  0  0  0  0  0  0  0  0  0
    6.8301   -2.5981    0.0000 N   0  0  0  0  0  0  0  0  0  0  0  0
    9.7942    0.0000    0.0000 C   0  0  0  0  0  0  0  0  0  0  0  0
    8.9282    1.5000    0.0000 C   0  0  0  0  0  0  0  0  0  0  0  0
    2.8660    0.0000    0.0000 C   0  0  0  0  0  0  0  0  0  0  0  0
    3.7320   -1.5000    0.0000 C   0  0  0  0  0  0  0  0  0  0  0  0
    6.3301    3.4641    0.0000 C   0  0  0  0  0  0  0  0  0  0  0  0
    4.8301    2.5981    0.0000 C   0  0  0  0  0  0  0  0  0  0  0  0
    6.3301   -3.4641    0.0000 C   0  0  0  0  0  0  0  0  0  0  0  0
    7.8301   -2.5981    0.0000 C   0  0  0  0  0  0  0  0  0  0  0  0
   10.6603    0.5000    0.0000 C   0  0  0  0  0  0  0  0  0  0  0  0
    9.7942    2.0000    0.0000 C   0  0  0  0  0  0  0  0  0  0  0  0
    2.0000   -0.5000    0.0000 C   0  0  0  0  0  0  0  0  0  0  0  0
    2.8660   -2.0000    0.0000 C   0  0  0  0  0  0  0  0  0  0  0  0
    5.8301    4.3301    0.0000 C   0  0  0  0  0  0  0  0  0  0  0  0
    4.3301    3.4641    0.0000 C   0  0  0  0  0  0  0  0  0  0  0  0
    6.8301   -4.3301    0.0000 C   0  0  0  0  0  0  0  0  0  0  0  0
    8.3301   -3.4641    0.0000 C   0  0  0  0  0  0  0  0  0  0  0  0
    8.0622    0.0000    0.0000 C   0  0  0  0  0  0  0  0  0  0  0  0
    4.5981    0.0000    0.0000 C   0  0  0  0  0  0  0  0  0  0  0  0
    6.3301    1.7320    0.0000 C   0  0  0  0  0  0  0  0  0  0  0  0
    6.3301   -1.7320    0.0000 C   0  0  0  0  0  0  0  0  0  0  0  0
    9.3957   -0.4749    0.0000 H   0  0  0  0  0  0  0  0  0  0  0  0
   10.1928   -0.4749    0.0000 H   0  0  0  0  0  0  0  0  0  0  0  0
    8.7162    2.0826    0.0000 H   0  0  0  0  0  0  0  0  0  0  0  0
    8.3176    1.3923    0.0000 H   0  0  0  0  0  0  0  0  0  0  0  0
    3.2646    0.4749    0.0000 H   0  0  0  0  0  0  0  0  0  0  0  0
    2.4675    0.4749    0.0000 H   0  0  0  0  0  0  0  0  0  0  0  0
    3.9441   -2.0826    0.0000 H   0  0  0  0  0  0  0  0  0  0  0  0
    4.3426   -1.3923    0.0000 H   0  0  0  0  0  0  0  0  0  0  0  0
    6.8051    3.0656    0.0000 H   0  0  0  0  0  0  0  0  0  0  0  0
    6.8051    3.8626    0.0000 H   0  0  0  0  0  0  0  0  0  0  0  0
    4.2475    2.3860    0.0000 H   0  0  0  0  0  0  0  0  0  0  0  0
    4.9378    1.9875    0.0000 H   0  0  0  0  0  0  0  0  0  0  0  0
    5.8552   -3.0656    0.0000 H   0  0  0  0  0  0  0  0  0  0  0  0
    5.8552   -3.8626    0.0000 H   0  0  0  0  0  0  0  0  0  0  0  0
    8.4127   -2.3860    0.0000 H   0  0  0  0  0  0  0  0  0  0  0  0
    7.7225   -1.9875    0.0000 H   0  0  0  0  0  0  0  0  0  0  0  0
    6.3671    4.6401    0.0000 H   0  0  0  0  0  0  0  0  0  0  0  0
    5.5201    4.8671    0.0000 H   0  0  0  0  0  0  0  0  0  0  0  0
    5.2932    4.0201    0.0000 H   0  0  0  0  0  0  0  0  0  0  0  0
    4.8671    3.7741    0.0000 H   0  0  0  0  0  0  0  0  0  0  0  0
    4.0201    4.0010    0.0000 H   0  0  0  0  0  0  0  0  0  0  0  0
    3.7932    3.1541    0.0000 H   0  0  0  0  0  0  0  0  0  0  0  0
    6.2932   -4.6401    0.0000 H   0  0  0  0  0  0  0  0  0  0  0  0
    7.1401   -4.8671    0.0000 H   0  0  0  0  0  0  0  0  0  0  0  0
    7.3671   -4.0201    0.0000 H   0  0  0  0  0  0  0  0  0  0  0  0
    7.7932   -3.7741    0.0000 H   0  0  0  0  0  0  0  0  0  0  0  0
    8.6401   -4.0010    0.0000 H   0  0  0  0  0  0  0  0  0  0  0  0
    8.8671   -3.1541    0.0000 H   0  0  0  0  0  0  0  0  0  0  0  0
    2.5560   -1.4631    0.0000 H   0  0  0  0  0  0  0  0  0  0  0  0
    2.3291   -2.3100    0.0000 H   0  0  0  0  0  0  0  0  0  0  0  0
    3.1760   -2.5369    0.0000 H   0  0  0  0  0  0  0  0  0  0  0  0
    1.6900    0.0369    0.0000 H   0  0  0  0  0  0  0  0  0  0  0  0
    1.4631   -0.8100    0.0000 H   0  0  0  0  0  0  0  0  0  0  0  0
    2.3100   -1.0369    0.0000 H   0  0  0  0  0  0  0  0  0  0  0  0
   10.1042    1.4631    0.0000 H   0  0  0  0  0  0  0  0  0  0  0  0
   10.3312    2.3100    0.0000 H   0  0  0  0  0  0  0  0  0  0  0  0
    9.4842    2.5369    0.0000 H   0  0  0  0  0  0  0  0  0  0  0  0
   10.9703   -0.0369    0.0000 H   0  0  0  0  0  0  0  0  0  0  0  0
   11.1972    0.8100    0.0000 H   0  0  0  0  0  0  0  0  0  0  0  0
   10.3503    1.0369    0.0000 H   0  0  0  0  0  0  0  0  0  0  0  0
  2 30  1  0  0  0  0
  3 31  1  0  0  0  0
  4 32  1  0  0  0  0
  5 33  1  0  0  0  0
  6 30  2  0  0  0  0
  7 31  2  0  0  0  0
  8 32  2  0  0  0  0
  9 33  2  0  0  0  0
 10 14  1  0  0  0  0
 10 15  1  0  0  0  0
 10 30  1  0  0  0  0
 11 16  1  0  0  0  0
 11 17  1  0  0  0  0
 11 31  1  0  0  0  0
 12 18  1  0  0  0  0
 12 19  1  0  0  0  0
 12 32  1  0  0  0  0
 13 20  1  0  0  0  0
 13 21  1  0  0  0  0
 13 33  1  0  0  0  0
 14 22  1  0  0  0  0
 14 34  1  0  0  0  0
 14 35  1  0  0  0  0
 15 23  1  0  0  0  0
 15 36  1  0  0  0  0
 15 37  1  0  0  0  0
 16 24  1  0  0  0  0
 16 38  1  0  0  0  0
 16 39  1  0  0  0  0
 17 25  1  0  0  0  0
 17 40  1  0  0  0  0
 17 41  1  0  0  0  0
 18 26  1  0  0  0  0
 18 42  1  0  0  0  0
 18 43  1  0  0  0  0
 19 27  1  0  0  0  0
 19 44  1  0  0  0  0
 19 45  1  0  0  0  0
 20 28  1  0  0  0  0
 20 46  1  0  0  0  0
 20 47  1  0  0  0  0
 21 29  1  0  0  0  0
 21 48  1  0  0  0  0
 21 49  1  0  0  0  0
 22 71  1  0  0  0  0
 22 72  1  0  0  0  0
 22 73  1  0  0  0  0
 23 68  1  0  0  0  0
 23 69  1  0  0  0  0
 23 70  1  0  0  0  0
 24 65  1  0  0  0  0
 24 66  1  0  0  0  0
 24 67  1  0  0  0  0
 25 62  1  0  0  0  0
 25 63  1  0  0  0  0
 25 64  1  0  0  0  0
 26 50  1  0  0  0  0
 26 51  1  0  0  0  0
 26 52  1  0  0  0  0
 27 53  1  0  0  0  0
 27 54  1  0  0  0  0
 27 55  1  0  0  0  0
 28 56  1  0  0  0  0
 28 57  1  0  0  0  0
 28 58  1  0  0  0  0
 29 59  1  0  0  0  0
 29 60  1  0  0  0  0
 29 61  1  0  0  0  0
M  CHG  5   1   4   2  -1   3  -1   4  -1   5  -1
M  END
> <PUBCHEM_COMPOUND_CID>
30387

> <PUBCHEM_COMPOUND_CANONICALIZED>
1

> <PUBCHEM_CACTVS_COMPLEXITY>
73

> <PUBCHEM_CACTVS_HBOND_ACCEPTOR>
8

> <PUBCHEM_CACTVS_HBOND_DONOR>
0

> <PUBCHEM_CACTVS_ROTATABLE_BOND>
8

> <PUBCHEM_CACTVS_SUBSKEYS>
AAADcfB7gAB4AAAAAAAgAAAAAAAAAAAAAAAAAAAAAAAAAAAAAAAAHAQAAAAAAADBAAQCAAMAAAAEAAAAAAAAAAAAAAgAAAAIAAAAAAAAAAAAAAAAAACAAAAAAAAAAAAAAAAAAAAAAAAAAAAAAAAAAAAAAA==

> <PUBCHEM_IUPAC_OPENEYE_NAME>
N,N-diethylcarbamodithioate; tellurium(4+)

> <PUBCHEM_IUPAC_CAS_NAME>
N,N-diethylcarbamodithioate; tellurium(4+)

> <PUBCHEM_IUPAC_NAME>
N,N-diethylcarbamodithioate; tellurium(4+)

> <PUBCHEM_IUPAC_SYSTEMATIC_NAME>
N,N-diethylcarbamodithioate; tellurium(4+)

> <PUBCHEM_IUPAC_TRADITIONAL_NAME>
N,N-diethylcarbamodithioate; tellurium(4+)

> <PUBCHEM_IUPAC_INCHI>
InChI=1S/4C5H11NS2.Te/c4*1-3-6(4-2)5(7)8;/h4*3-4H2,1-2H3,(H,7,8);/q;;;;+4/p-4

> <PUBCHEM_IUPAC_INCHIKEY>
NIOPGADRXCTGRC-UHFFFAOYSA-J

> <PUBCHEM_EXACT_MASS>
722.00809

> <PUBCHEM_MOLECULAR_FORMULA>
C20H40N4S8Te

> <PUBCHEM_MOLECULAR_WEIGHT>
720.6784

> <PUBCHEM_OPENEYE_CAN_SMILES>
CCN(CC)C(=S)[S-].CCN(CC)C(=S)[S-].CCN(CC)C(=S)[S-].CCN(CC)C(=S)[S-].[Te+4]

> <PUBCHEM_OPENEYE_ISO_SMILES>
CCN(CC)C(=S)[S-].CCN(CC)C(=S)[S-].CCN(CC)C(=S)[S-].CCN(CC)C(=S)[S-].[Te+4]

> <PUBCHEM_CACTVS_TPSA>
145

> <PUBCHEM_MONOISOTOPIC_WEIGHT>
722.00809

> <PUBCHEM_TOTAL_CHARGE>
0

> <PUBCHEM_HEAVY_ATOM_COUNT>
33

> <PUBCHEM_ATOM_DEF_STEREO_COUNT>
0

> <PUBCHEM_ATOM_UDEF_STEREO_COUNT>
0

> <PUBCHEM_BOND_DEF_STEREO_COUNT>
0

> <PUBCHEM_BOND_UDEF_STEREO_COUNT>
0

> <PUBCHEM_ISOTOPIC_ATOM_COUNT>
0

> <PUBCHEM_COMPONENT_COUNT>
5

> <PUBCHEM_CACTVS_TAUTO_COUNT>
1

> <PUBCHEM_COORDINATE_TYPE>
1
5
255

$$$$

