443921
  -OEChem-07051213032D

 94 99  0     1  0  0  0  0  0999 V2000
    6.8671   -0.4050    0.0000 O   0  0  0  0  0  0  0  0  0  0  0  0
    6.0010   -2.9050    0.0000 O   0  0  0  0  0  0  0  0  0  0  0  0
    5.1350   -4.4050    0.0000 O   0  0  0  0  0  0  0  0  0  0  0  0
    7.7331   -2.9050    0.0000 O   0  0  0  0  0  0  0  0  0  0  0  0
    7.7331    1.0950    0.0000 O   0  0  0  0  0  0  0  0  0  0  0  0
   12.0622   -1.4495    0.0000 O   0  0  0  0  0  0  0  0  0  0  0  0
    9.4651   -1.9050    0.0000 O   0  0  0  0  0  0  0  0  0  0  0  0
    9.4651    0.0950    0.0000 O   0  0  0  0  0  0  0  0  0  0  0  0
    4.2690   -1.9050    0.0000 O   0  0  0  0  0  0  0  0  0  0  0  0
    2.5369   -2.9050    0.0000 O   0  0  0  0  0  0  0  0  0  0  0  0
    2.5369   -4.9050    0.0000 O   0  0  0  0  0  0  0  0  0  0  0  0
   11.2135    0.0604    0.0000 O   0  0  0  0  0  0  0  0  0  0  0  0
   14.6774    0.0203    0.0000 O   0  0  0  0  0  0  0  0  0  0  0  0
   14.6543   -1.9795    0.0000 O   0  0  0  0  0  0  0  0  0  0  0  0
   12.9570    1.0403    0.0000 O   0  0  0  0  0  0  0  0  0  0  0  0
   13.7710   -3.4694    0.0000 O   0  0  0  0  0  0  0  0  0  0  0  0
    9.4651    3.0950    0.0000 O   0  3  0  0  0  0  0  0  0  0  0  0
   12.9953    3.1192    0.0000 O   0  0  0  0  0  0  0  0  0  0  0  0
    6.8671    5.5950    0.0000 O   0  0  0  0  0  0  0  0  0  0  0  0
    5.1350    4.5950    0.0000 O   0  0  0  0  0  0  0  0  0  0  0  0
    6.8671   -1.4050    0.0000 C   0  0  1  0  0  0  0  0  0  0  0  0
    7.7331   -1.9050    0.0000 C   0  0  2  0  0  0  0  0  0  0  0  0
    8.5991   -1.4050    0.0000 C   0  0  1  0  0  0  0  0  0  0  0  0
    8.5991   -0.4050    0.0000 C   0  0  2  0  0  0  0  0  0  0  0  0
    4.2690   -2.9050    0.0000 C   0  0  1  0  0  0  0  0  0  0  0  0
    5.1350   -3.4050    0.0000 C   0  0  2  0  0  0  0  0  0  0  0  0
    3.4030   -3.4050    0.0000 C   0  0  1  0  0  0  0  0  0  0  0  0
    7.7331    0.0950    0.0000 C   0  0  1  0  0  0  0  0  0  0  0  0
    3.4030   -4.4050    0.0000 C   0  0  2  0  0  0  0  0  0  0  0  0
    6.0010   -1.9050    0.0000 C   0  0  0  0  0  0  0  0  0  0  0  0
    4.2690   -4.9050    0.0000 C   0  0  2  0  0  0  0  0  0  0  0  0
   13.8057   -0.4696    0.0000 C   0  0  1  0  0  0  0  0  0  0  0  0
   13.7941   -1.4695    0.0000 C   0  0  1  0  0  0  0  0  0  0  0  0
   12.9455    0.0404    0.0000 C   0  0  2  0  0  0  0  0  0  0  0  0
   12.9224   -1.9595    0.0000 C   0  0  1  0  0  0  0  0  0  0  0  0
   12.0737   -0.4496    0.0000 C   0  0  1  0  0  0  0  0  0  0  0  0
    4.2690   -5.9050    0.0000 C   0  0  0  0  0  0  0  0  0  0  0  0
   12.9108   -2.9594    0.0000 C   0  0  0  0  0  0  0  0  0  0  0  0
    8.5991    1.5950    0.0000 C   0  0  0  0  0  0  0  0  0  0  0  0
   11.2251    1.0603    0.0000 C   0  0  0  0  0  0  0  0  0  0  0  0
   10.3312    1.5950    0.0000 C   0  0  0  0  0  0  0  0  0  0  0  0
    9.4651    1.0950    0.0000 C   0  0  0  0  0  0  0  0  0  0  0  0
    8.5991    2.5950    0.0000 C   0  0  0  0  0  0  0  0  0  0  0  0
   10.3312    2.5950    0.0000 C   0  0  0  0  0  0  0  0  0  0  0  0
   12.1312    1.5742    0.0000 C   0  0  0  0  0  0  0  0  0  0  0  0
    7.7331    3.0950    0.0000 C   0  0  0  0  0  0  0  0  0  0  0  0
   11.2251    3.1297    0.0000 C   0  0  0  0  0  0  0  0  0  0  0  0
   12.1312    2.6158    0.0000 C   0  0  0  0  0  0  0  0  0  0  0  0
    7.7331    4.0950    0.0000 C   0  0  0  0  0  0  0  0  0  0  0  0
    6.8671    2.5950    0.0000 C   0  0  0  0  0  0  0  0  0  0  0  0
    6.8671    4.5950    0.0000 C   0  0  0  0  0  0  0  0  0  0  0  0
    6.0010    3.0950    0.0000 C   0  0  0  0  0  0  0  0  0  0  0  0
    6.0010    4.0950    0.0000 C   0  0  0  0  0  0  0  0  0  0  0  0
    6.3301   -1.0950    0.0000 H   0  0  0  0  0  0  0  0  0  0  0  0
    8.2700   -2.2150    0.0000 H   0  0  0  0  0  0  0  0  0  0  0  0
    8.5991   -2.0250    0.0000 H   0  0  0  0  0  0  0  0  0  0  0  0
    8.5991    0.2150    0.0000 H   0  0  0  0  0  0  0  0  0  0  0  0
    4.8059   -2.5950    0.0000 H   0  0  0  0  0  0  0  0  0  0  0  0
    5.1350   -2.7850    0.0000 H   0  0  0  0  0  0  0  0  0  0  0  0
    3.4030   -2.7850    0.0000 H   0  0  0  0  0  0  0  0  0  0  0  0
    8.2700    0.4050    0.0000 H   0  0  0  0  0  0  0  0  0  0  0  0
    3.4030   -5.0250    0.0000 H   0  0  0  0  0  0  0  0  0  0  0  0
    5.7890   -1.3224    0.0000 H   0  0  0  0  0  0  0  0  0  0  0  0
    5.3905   -2.0127    0.0000 H   0  0  0  0  0  0  0  0  0  0  0  0
    4.8059   -5.2150    0.0000 H   0  0  0  0  0  0  0  0  0  0  0  0
   14.3390   -0.7858    0.0000 H   0  0  0  0  0  0  0  0  0  0  0  0
   14.3346   -1.1658    0.0000 H   0  0  0  0  0  0  0  0  0  0  0  0
   13.4860    0.3441    0.0000 H   0  0  0  0  0  0  0  0  0  0  0  0
   12.3819   -2.2633    0.0000 H   0  0  0  0  0  0  0  0  0  0  0  0
   12.0809    0.1704    0.0000 H   0  0  0  0  0  0  0  0  0  0  0  0
    3.6490   -5.9050    0.0000 H   0  0  0  0  0  0  0  0  0  0  0  0
    4.2690   -6.5250    0.0000 H   0  0  0  0  0  0  0  0  0  0  0  0
    4.8890   -5.9050    0.0000 H   0  0  0  0  0  0  0  0  0  0  0  0
    8.2700   -3.2150    0.0000 H   0  0  0  0  0  0  0  0  0  0  0  0
    9.4651   -2.5250    0.0000 H   0  0  0  0  0  0  0  0  0  0  0  0
   10.0021   -0.2150    0.0000 H   0  0  0  0  0  0  0  0  0  0  0  0
   12.3015   -2.8447    0.0000 H   0  0  0  0  0  0  0  0  0  0  0  0
   12.6920   -3.5395    0.0000 H   0  0  0  0  0  0  0  0  0  0  0  0
    4.8059   -1.5950    0.0000 H   0  0  0  0  0  0  0  0  0  0  0  0
    2.0000   -3.2150    0.0000 H   0  0  0  0  0  0  0  0  0  0  0  0
    2.5369   -5.5250    0.0000 H   0  0  0  0  0  0  0  0  0  0  0  0
   15.2107   -0.2958    0.0000 H   0  0  0  0  0  0  0  0  0  0  0  0
   15.1948   -1.6758    0.0000 H   0  0  0  0  0  0  0  0  0  0  0  0
   13.4975    1.3441    0.0000 H   0  0  0  0  0  0  0  0  0  0  0  0
    9.4651    0.4750    0.0000 H   0  0  0  0  0  0  0  0  0  0  0  0
   12.6669    1.2621    0.0000 H   0  0  0  0  0  0  0  0  0  0  0  0
   13.7638   -4.0894    0.0000 H   0  0  0  0  0  0  0  0  0  0  0  0
   11.2179    3.7496    0.0000 H   0  0  0  0  0  0  0  0  0  0  0  0
    8.2700    4.4050    0.0000 H   0  0  0  0  0  0  0  0  0  0  0  0
    6.8671    1.9750    0.0000 H   0  0  0  0  0  0  0  0  0  0  0  0
   12.9929    3.7392    0.0000 H   0  0  0  0  0  0  0  0  0  0  0  0
    5.4641    2.7850    0.0000 H   0  0  0  0  0  0  0  0  0  0  0  0
    6.3301    5.9050    0.0000 H   0  0  0  0  0  0  0  0  0  0  0  0
    4.5981    4.2850    0.0000 H   0  0  0  0  0  0  0  0  0  0  0  0
  1 21  1  0  0  0  0
  1 28  1  0  0  0  0
 26  2  1  6  0  0  0
  2 30  1  0  0  0  0
  3 26  1  0  0  0  0
  3 31  1  0  0  0  0
 22  4  1  6  0  0  0
  4 74  1  0  0  0  0
 28  5  1  1  0  0  0
  5 39  1  0  0  0  0
  6 35  1  0  0  0  0
  6 36  1  0  0  0  0
 23  7  1  1  0  0  0
  7 75  1  0  0  0  0
 24  8  1  6  0  0  0
  8 76  1  0  0  0  0
 25  9  1  1  0  0  0
  9 79  1  0  0  0  0
 27 10  1  1  0  0  0
 10 80  1  0  0  0  0
 29 11  1  6  0  0  0
 11 81  1  0  0  0  0
 36 12  1  1  0  0  0
 12 40  1  0  0  0  0
 32 13  1  1  0  0  0
 13 82  1  0  0  0  0
 33 14  1  6  0  0  0
 14 83  1  0  0  0  0
 34 15  1  6  0  0  0
 15 84  1  0  0  0  0
 16 38  1  0  0  0  0
 16 87  1  0  0  0  0
 17 43  1  0  0  0  0
 17 44  2  0  0  0  0
 18 48  1  0  0  0  0
 18 91  1  0  0  0  0
 19 51  1  0  0  0  0
 19 93  1  0  0  0  0
 20 53  1  0  0  0  0
 20 94  1  0  0  0  0
 21 22  1  0  0  0  0
 21 30  1  1  0  0  0
 21 54  1  0  0  0  0
 22 23  1  0  0  0  0
 22 55  1  0  0  0  0
 23 24  1  0  0  0  0
 23 56  1  0  0  0  0
 24 28  1  0  0  0  0
 24 57  1  0  0  0  0
 25 26  1  0  0  0  0
 25 27  1  0  0  0  0
 25 58  1  0  0  0  0
 26 59  1  0  0  0  0
 27 29  1  0  0  0  0
 27 60  1  0  0  0  0
 28 61  1  0  0  0  0
 29 31  1  0  0  0  0
 29 62  1  0  0  0  0
 30 63  1  0  0  0  0
 30 64  1  0  0  0  0
 31 37  1  1  0  0  0
 31 65  1  0  0  0  0
 32 33  1  0  0  0  0
 32 34  1  0  0  0  0
 32 66  1  0  0  0  0
 33 35  1  0  0  0  0
 33 67  1  0  0  0  0
 34 36  1  0  0  0  0
 34 68  1  0  0  0  0
 35 38  1  1  0  0  0
 35 69  1  0  0  0  0
 36 70  1  0  0  0  0
 37 71  1  0  0  0  0
 37 72  1  0  0  0  0
 37 73  1  0  0  0  0
 38 77  1  0  0  0  0
 38 78  1  0  0  0  0
 39 42  1  0  0  0  0
 39 43  2  0  0  0  0
 40 41  1  0  0  0  0
 40 45  2  0  0  0  0
 41 42  2  0  0  0  0
 41 44  1  0  0  0  0
 42 85  1  0  0  0  0
 43 46  1  0  0  0  0
 44 47  1  0  0  0  0
 45 48  1  0  0  0  0
 45 86  1  0  0  0  0
 46 49  2  0  0  0  0
 46 50  1  0  0  0  0
 47 48  2  0  0  0  0
 47 88  1  0  0  0  0
 49 51  1  0  0  0  0
 49 89  1  0  0  0  0
 50 52  2  0  0  0  0
 50 90  1  0  0  0  0
 51 53  2  0  0  0  0
 52 53  1  0  0  0  0
 52 92  1  0  0  0  0
M  CHG  1  17   1
M  END
> <PUBCHEM_COMPOUND_CID>
443921

> <PUBCHEM_COMPOUND_CANONICALIZED>
1

> <PUBCHEM_CACTVS_COMPLEXITY>
1170

> <PUBCHEM_CACTVS_HBOND_ACCEPTOR>
19

> <PUBCHEM_CACTVS_HBOND_DONOR>
13

> <PUBCHEM_CACTVS_ROTATABLE_BOND>
9

> <PUBCHEM_CACTVS_SUBSKEYS>
AAADcfB8PgAAAAAAAAAAAAAAAAAAAAAAAAA0aJEiAAAAAACR9AAAGgAACAAADBSwmAMyDsAABkCIAqBSAAICCAAkIAAIiAFGiMgdNzaGNR6ieWOl4BUPuYfK7PzOIAABCAAIQABAAAIQABCAAAAAAAAAAA==

> <PUBCHEM_IUPAC_OPENEYE_NAME>
(2R,3R,4R,5R,6S)-2-[[(2R,3S,4S,5R,6S)-6-[2-(3,4-dihydroxyphenyl)-7-hydroxy-5-[(2S,3R,4S,5S,6R)-3,4,5-trihydroxy-6-(hydroxymethyl)tetrahydropyran-2-yl]oxy-chromenylium-3-yl]oxy-3,4,5-trihydroxy-tetrahydropyran-2-yl]methoxy]-6-methyl-tetrahydropyran-3,4,5-triol

> <PUBCHEM_IUPAC_CAS_NAME>
(2R,3R,4R,5R,6S)-2-[[(2R,3S,4S,5R,6S)-6-[[2-(3,4-dihydroxyphenyl)-7-hydroxy-5-[[(2S,3R,4S,5S,6R)-3,4,5-trihydroxy-6-(hydroxymethyl)-2-oxanyl]oxy]-1-benzopyrylium-3-yl]oxy]-3,4,5-trihydroxy-2-oxanyl]methoxy]-6-methyloxane-3,4,5-triol

> <PUBCHEM_IUPAC_NAME>
(2R,3R,4R,5R,6S)-2-[[(2R,3S,4S,5R,6S)-6-[2-(3,4-dihydroxyphenyl)-7-hydroxy-5-[(2S,3R,4S,5S,6R)-3,4,5-trihydroxy-6-(hydroxymethyl)oxan-2-yl]oxychromenylium-3-yl]oxy-3,4,5-trihydroxyoxan-2-yl]methoxy]-6-methyloxane-3,4,5-triol

> <PUBCHEM_IUPAC_SYSTEMATIC_NAME>
(2R,3R,4R,5R,6S)-2-[[(2R,3S,4S,5R,6S)-6-[2-[3,4-bis(oxidanyl)phenyl]-5-[(2S,3R,4S,5S,6R)-6-(hydroxymethyl)-3,4,5-tris(oxidanyl)oxan-2-yl]oxy-7-oxidanyl-chromenylium-3-yl]oxy-3,4,5-tris(oxidanyl)oxan-2-yl]methoxy]-6-methyl-oxane-3,4,5-triol

> <PUBCHEM_IUPAC_TRADITIONAL_NAME>
(2R,3R,4R,5R,6S)-2-[[(2R,3S,4S,5R,6S)-6-[[2-(3,4-dihydroxyphenyl)-7-hydroxy-5-[(2S,3R,4S,5S,6R)-3,4,5-trihydroxy-6-methylol-tetrahydropyran-2-yl]oxy-1-benzopyrylium-3-yl]oxy]-3,4,5-trihydroxy-tetrahydropyran-2-yl]methoxy]-6-methyl-tetrahydropyran-3,4,5-triol

> <PUBCHEM_IUPAC_INCHI>
InChI=1S/C33H40O20/c1-10-21(38)24(41)27(44)31(48-10)47-9-20-23(40)26(43)29(46)33(53-20)51-18-7-13-16(49-30(18)11-2-3-14(36)15(37)4-11)5-12(35)6-17(13)50-32-28(45)25(42)22(39)19(8-34)52-32/h2-7,10,19-29,31-34,38-46H,8-9H2,1H3,(H2-,35,36,37)/p+1/t10-,19+,20+,21-,22+,23+,24+,25-,26-,27+,28+,29+,31+,32+,33+/m0/s1

> <PUBCHEM_IUPAC_INCHIKEY>
DFJZNAHUOVEDQB-HWKLKBEVSA-O

> <PUBCHEM_EXACT_MASS>
757.219119

> <PUBCHEM_MOLECULAR_FORMULA>
C33H41O20+

> <PUBCHEM_MOLECULAR_WEIGHT>
757.66664

> <PUBCHEM_OPENEYE_CAN_SMILES>
CC1C(C(C(C(O1)OCC2C(C(C(C(O2)OC3=C([O+]=C4C=C(C=C(C4=C3)OC5C(C(C(C(O5)CO)O)O)O)O)C6=CC(=C(C=C6)O)O)O)O)O)O)O)O

> <PUBCHEM_OPENEYE_ISO_SMILES>
C[C@H]1[C@@H]([C@H]([C@H]([C@@H](O1)OC[C@@H]2[C@H]([C@@H]([C@H]([C@@H](O2)OC3=C([O+]=C4C=C(C=C(C4=C3)O[C@H]5[C@@H]([C@H]([C@@H]([C@H](O5)CO)O)O)O)O)C6=CC(=C(C=C6)O)O)O)O)O)O)O)O

> <PUBCHEM_CACTVS_TPSA>
319

> <PUBCHEM_MONOISOTOPIC_WEIGHT>
757.219119

> <PUBCHEM_TOTAL_CHARGE>
1

> <PUBCHEM_HEAVY_ATOM_COUNT>
53

> <PUBCHEM_ATOM_DEF_STEREO_COUNT>
15

> <PUBCHEM_ATOM_UDEF_STEREO_COUNT>
0

> <PUBCHEM_BOND_DEF_STEREO_COUNT>
0

> <PUBCHEM_BOND_UDEF_STEREO_COUNT>
0

> <PUBCHEM_ISOTOPIC_ATOM_COUNT>
0

> <PUBCHEM_COMPONENT_COUNT>
1

> <PUBCHEM_CACTVS_TAUTO_COUNT>
77

> <PUBCHEM_COORDINATE_TYPE>
1
5
255

> <PUBCHEM_BONDANNOTATIONS>
27  10  5
29  11  6
36  12  5
32  13  5
33  14  6
34  15  6
17  43  8
17  44  8
26  2  6
21  30  5
31  37  5
35  38  5
39  42  8
39  43  8
22  4  6
40  41  8
40  45  8
41  42  8
41  44  8
44  47  8
45  48  8
46  49  8
46  50  8
47  48  8
49  51  8
28  5  5
50  52  8
51  53  8
52  53  8
23  7  5
24  8  6
25  9  5

$$$$

