442502
  -OEChem-07051212582D

 84 89  0     1  0  0  0  0  0999 V2000
    8.2641   -0.9416    0.0000 O   0  0  0  0  0  0  0  0  0  0  0  0
    3.7894    5.0830    0.0000 O   0  0  0  0  0  0  0  0  0  0  0  0
    7.1964   -3.8593    0.0000 N   0  0  3  0  0  0  0  0  0  0  0  0
    5.5321   -0.9416    0.0000 N   0  0  0  0  0  0  0  0  0  0  0  0
    2.9061    3.5931    0.0000 N   0  0  0  0  0  0  0  0  0  0  0  0
    6.3981   -3.4416    0.0000 C   0  0  2  0  0  0  0  0  0  0  0  0
    6.3981   -1.4416    0.0000 C   0  0  2  0  0  0  0  0  0  0  0  0
    5.5321   -2.9416    0.0000 C   0  0  2  0  0  0  0  0  0  0  0  0
    7.2641   -1.9416    0.0000 C   0  0  2  0  0  0  0  0  0  0  0  0
    6.4141   -4.4831    0.0000 C   0  0  2  0  0  0  0  0  0  0  0  0
    7.2641   -2.9416    0.0000 C   0  0  0  0  0  0  0  0  0  0  0  0
    5.5321   -1.9416    0.0000 C   0  0  0  0  0  0  0  0  0  0  0  0
    4.6221   -3.4484    0.0000 C   0  0  0  0  0  0  0  0  0  0  0  0
    7.5137   -2.9104    0.0000 C   0  0  0  0  0  0  0  0  0  0  0  0
    5.5161   -5.0108    0.0000 C   0  0  0  0  0  0  0  0  0  0  0  0
    4.6140   -4.4900    0.0000 C   0  0  2  0  0  0  0  0  0  0  0  0
    5.5321    0.0584    0.0000 C   0  0  1  0  0  0  0  0  0  0  0  0
    7.2641   -0.9416    0.0000 C   0  0  0  0  0  0  0  0  0  0  0  0
    4.6660    1.5584    0.0000 C   0  0  2  0  0  0  0  0  0  0  0  0
    4.6660    0.5584    0.0000 C   0  0  0  0  0  0  0  0  0  0  0  0
    6.3981    0.5584    0.0000 C   0  0  0  0  0  0  0  0  0  0  0  0
    7.2641    0.0584    0.0000 C   0  0  0  0  0  0  0  0  0  0  0  0
    3.8000    2.0584    0.0000 C   0  0  2  0  0  0  0  0  0  0  0  0
    3.8000    3.0584    0.0000 C   0  0  2  0  0  0  0  0  0  0  0  0
    8.0160   -4.4323    0.0000 C   0  0  0  0  0  0  0  0  0  0  0  0
    3.7461   -4.9867    0.0000 C   0  0  0  0  0  0  0  0  0  0  0  0
    5.5321    2.0584    0.0000 C   0  0  0  0  0  0  0  0  0  0  0  0
    5.5321    3.0584    0.0000 C   0  0  1  0  0  0  0  0  0  0  0  0
    4.6660    3.5584    0.0000 C   0  0  0  0  0  0  0  0  0  0  0  0
    2.9061    1.5238    0.0000 C   0  0  0  0  0  0  0  0  0  0  0  0
    2.0000    2.0376    0.0000 C   0  0  0  0  0  0  0  0  0  0  0  0
    2.0000    3.0792    0.0000 C   0  0  0  0  0  0  0  0  0  0  0  0
    6.3981    3.5584    0.0000 C   0  0  0  0  0  0  0  0  0  0  0  0
    2.9176    4.5930    0.0000 C   0  0  0  0  0  0  0  0  0  0  0  0
    2.0574    5.1030    0.0000 C   0  0  0  0  0  0  0  0  0  0  0  0
    6.6888   -4.2403    0.0000 H   0  0  0  0  0  0  0  0  0  0  0  0
    4.7959   -2.5166    0.0000 H   0  0  0  0  0  0  0  0  0  0  0  0
    8.1074   -1.8347    0.0000 H   0  0  0  0  0  0  0  0  0  0  0  0
    6.4272   -5.3330    0.0000 H   0  0  0  0  0  0  0  0  0  0  0  0
    7.4762   -3.5242    0.0000 H   0  0  0  0  0  0  0  0  0  0  0  0
    7.8747   -2.8339    0.0000 H   0  0  0  0  0  0  0  0  0  0  0  0
    5.3200   -1.3590    0.0000 H   0  0  0  0  0  0  0  0  0  0  0  0
    4.9215   -2.0492    0.0000 H   0  0  0  0  0  0  0  0  0  0  0  0
    4.4175   -2.8631    0.0000 H   0  0  0  0  0  0  0  0  0  0  0  0
    4.0104   -3.5498    0.0000 H   0  0  0  0  0  0  0  0  0  0  0  0
    8.0055   -3.2880    0.0000 H   0  0  0  0  0  0  0  0  0  0  0  0
    6.8941   -2.8886    0.0000 H   0  0  0  0  0  0  0  0  0  0  0  0
    5.1188   -5.4868    0.0000 H   0  0  0  0  0  0  0  0  0  0  0  0
    5.9171   -5.4837    0.0000 H   0  0  0  0  0  0  0  0  0  0  0  0
    4.0789   -4.1769    0.0000 H   0  0  0  0  0  0  0  0  0  0  0  0
    4.9951   -1.2516    0.0000 H   0  0  0  0  0  0  0  0  0  0  0  0
    4.9951   -0.2516    0.0000 H   0  0  0  0  0  0  0  0  0  0  0  0
    4.1291    1.2484    0.0000 H   0  0  0  0  0  0  0  0  0  0  0  0
    4.0555    0.6661    0.0000 H   0  0  0  0  0  0  0  0  0  0  0  0
    4.4540   -0.0242    0.0000 H   0  0  0  0  0  0  0  0  0  0  0  0
    6.7966    1.0334    0.0000 H   0  0  0  0  0  0  0  0  0  0  0  0
    5.9996    1.0334    0.0000 H   0  0  0  0  0  0  0  0  0  0  0  0
    7.8747   -0.0492    0.0000 H   0  0  0  0  0  0  0  0  0  0  0  0
    7.4762    0.6410    0.0000 H   0  0  0  0  0  0  0  0  0  0  0  0
    3.8066    1.2084    0.0000 H   0  0  0  0  0  0  0  0  0  0  0  0
    3.8066    3.9084    0.0000 H   0  0  0  0  0  0  0  0  0  0  0  0
    7.6607   -4.9404    0.0000 H   0  0  0  0  0  0  0  0  0  0  0  0
    8.5241   -4.7876    0.0000 H   0  0  0  0  0  0  0  0  0  0  0  0
    8.3712   -3.9242    0.0000 H   0  0  0  0  0  0  0  0  0  0  0  0
    3.4382   -4.4486    0.0000 H   0  0  0  0  0  0  0  0  0  0  0  0
    3.2080   -5.2946    0.0000 H   0  0  0  0  0  0  0  0  0  0  0  0
    4.0540   -5.5248    0.0000 H   0  0  0  0  0  0  0  0  0  0  0  0
    5.7441    1.4758    0.0000 H   0  0  0  0  0  0  0  0  0  0  0  0
    6.1426    2.1661    0.0000 H   0  0  0  0  0  0  0  0  0  0  0  0
    5.5321    3.6784    0.0000 H   0  0  0  0  0  0  0  0  0  0  0  0
    5.0646    4.0334    0.0000 H   0  0  0  0  0  0  0  0  0  0  0  0
    4.2675    4.0334    0.0000 H   0  0  0  0  0  0  0  0  0  0  0  0
    2.5124    1.0448    0.0000 H   0  0  0  0  0  0  0  0  0  0  0  0
    3.3107    1.0540    0.0000 H   0  0  0  0  0  0  0  0  0  0  0  0
    1.3891    2.1437    0.0000 H   0  0  0  0  0  0  0  0  0  0  0  0
    1.7909    1.4539    0.0000 H   0  0  0  0  0  0  0  0  0  0  0  0
    1.7909    3.6629    0.0000 H   0  0  0  0  0  0  0  0  0  0  0  0
    1.3891    2.9732    0.0000 H   0  0  0  0  0  0  0  0  0  0  0  0
    6.7081    3.0215    0.0000 H   0  0  0  0  0  0  0  0  0  0  0  0
    6.9350    3.8684    0.0000 H   0  0  0  0  0  0  0  0  0  0  0  0
    6.0881    4.0954    0.0000 H   0  0  0  0  0  0  0  0  0  0  0  0
    2.3736    5.6363    0.0000 H   0  0  0  0  0  0  0  0  0  0  0  0
    1.5241    5.4192    0.0000 H   0  0  0  0  0  0  0  0  0  0  0  0
    1.7413    4.5697    0.0000 H   0  0  0  0  0  0  0  0  0  0  0  0
  1 18  2  0  0  0  0
  2 34  2  0  0  0  0
  3 10  1  0  0  0  0
  3 14  1  0  0  0  0
  3 25  1  0  0  0  0
  7  4  1  6  0  0  0
  4 17  1  0  0  0  0
  4 51  1  0  0  0  0
  5 24  1  0  0  0  0
  5 32  1  0  0  0  0
  5 34  1  0  0  0  0
  6  8  1  0  0  0  0
  6 10  1  0  0  0  0
  6 11  1  0  0  0  0
  6 36  1  6  0  0  0
  7  9  1  0  0  0  0
  7 12  1  0  0  0  0
  7 18  1  0  0  0  0
  8 12  1  0  0  0  0
  8 13  1  0  0  0  0
  8 37  1  6  0  0  0
  9 11  1  0  0  0  0
  9 14  1  0  0  0  0
  9 38  1  6  0  0  0
 10 15  1  0  0  0  0
 10 39  1  6  0  0  0
 11 40  1  0  0  0  0
 11 41  1  0  0  0  0
 12 42  1  0  0  0  0
 12 43  1  0  0  0  0
 13 16  1  0  0  0  0
 13 44  1  0  0  0  0
 13 45  1  0  0  0  0
 14 46  1  0  0  0  0
 14 47  1  0  0  0  0
 15 16  1  0  0  0  0
 15 48  1  0  0  0  0
 15 49  1  0  0  0  0
 16 26  1  6  0  0  0
 16 50  1  0  0  0  0
 17 20  1  1  0  0  0
 17 21  1  0  0  0  0
 17 52  1  0  0  0  0
 18 22  1  0  0  0  0
 19 20  1  6  0  0  0
 19 23  1  0  0  0  0
 19 27  1  0  0  0  0
 19 53  1  0  0  0  0
 20 54  1  0  0  0  0
 20 55  1  0  0  0  0
 21 22  1  0  0  0  0
 21 56  1  0  0  0  0
 21 57  1  0  0  0  0
 22 58  1  0  0  0  0
 22 59  1  0  0  0  0
 23 24  1  0  0  0  0
 23 30  1  0  0  0  0
 23 60  1  6  0  0  0
 24 29  1  0  0  0  0
 24 61  1  6  0  0  0
 25 62  1  0  0  0  0
 25 63  1  0  0  0  0
 25 64  1  0  0  0  0
 26 65  1  0  0  0  0
 26 66  1  0  0  0  0
 26 67  1  0  0  0  0
 27 28  1  0  0  0  0
 27 68  1  0  0  0  0
 27 69  1  0  0  0  0
 28 29  1  0  0  0  0
 28 33  1  1  0  0  0
 28 70  1  0  0  0  0
 29 71  1  0  0  0  0
 29 72  1  0  0  0  0
 30 31  1  0  0  0  0
 30 73  1  0  0  0  0
 30 74  1  0  0  0  0
 31 32  1  0  0  0  0
 31 75  1  0  0  0  0
 31 76  1  0  0  0  0
 32 77  1  0  0  0  0
 32 78  1  0  0  0  0
 33 79  1  0  0  0  0
 33 80  1  0  0  0  0
 33 81  1  0  0  0  0
 34 35  1  0  0  0  0
 35 82  1  0  0  0  0
 35 83  1  0  0  0  0
 35 84  1  0  0  0  0
M  END
> <PUBCHEM_COMPOUND_CID>
442502

> <PUBCHEM_COMPOUND_CANONICALIZED>
1

> <PUBCHEM_CACTVS_COMPLEXITY>
846

> <PUBCHEM_CACTVS_HBOND_ACCEPTOR>
4

> <PUBCHEM_CACTVS_HBOND_DONOR>
1

> <PUBCHEM_CACTVS_ROTATABLE_BOND>
2

> <PUBCHEM_CACTVS_SUBSKEYS>
AAADcfB7MAAAAAAAAAAAAAAAAAAAAAAAAAA8ePECAAAAAACwAAAAHgAQAAAADazBgAQCAAPAAAAIAIEQEAAAAAAAAAAAAIGIAAAAABIAwCAEAAAAFgCAAAEciMCOgAAAAAAAAACQAASAACQAAAAAAAAAAA==

> <PUBCHEM_IUPAC_INCHI>
InChI=1S/C30H49N3O2/c1-18-10-21(25-6-5-9-33(20(3)34)28(25)13-18)14-24-7-8-29(35)30(31-24)16-22-11-19(2)12-27-26(22)15-23(30)17-32(27)4/h18-19,21-28,31H,5-17H2,1-4H3/t18-,19+,21+,22-,23+,24+,25+,26+,27-,28-,30-/m0/s1

> <PUBCHEM_IUPAC_INCHIKEY>
DOAGKNAZGHOTJU-PALKDTOHSA-N

> <PUBCHEM_XLOGP3_AA>
4.6

> <PUBCHEM_EXACT_MASS>
483.382478

> <PUBCHEM_MOLECULAR_FORMULA>
C30H49N3O2

> <PUBCHEM_MOLECULAR_WEIGHT>
483.72896

> <PUBCHEM_OPENEYE_CAN_SMILES>
CC1CC2CC3(C4CC2C(C1)N(C4)C)C(=O)CCC(N3)CC5CC(CC6C5CCCN6C(=O)C)C

> <PUBCHEM_OPENEYE_ISO_SMILES>
C[C@@H]1C[C@H]2C[C@]3([C@@H]4C[C@H]2[C@H](C1)N(C4)C)C(=O)CC[C@@H](N3)C[C@H]5C[C@@H](C[C@H]6[C@@H]5CCCN6C(=O)C)C

> <PUBCHEM_CACTVS_TPSA>
52.6

> <PUBCHEM_MONOISOTOPIC_WEIGHT>
483.382478

> <PUBCHEM_TOTAL_CHARGE>
0

> <PUBCHEM_HEAVY_ATOM_COUNT>
35

> <PUBCHEM_ATOM_DEF_STEREO_COUNT>
11

> <PUBCHEM_ATOM_UDEF_STEREO_COUNT>
0

> <PUBCHEM_BOND_DEF_STEREO_COUNT>
0

> <PUBCHEM_BOND_UDEF_STEREO_COUNT>
0

> <PUBCHEM_ISOTOPIC_ATOM_COUNT>
0

> <PUBCHEM_COMPONENT_COUNT>
1

> <PUBCHEM_CACTVS_TAUTO_COUNT>
2

> <PUBCHEM_COORDINATE_TYPE>
1
5
255

> <PUBCHEM_BONDANNOTATIONS>
10  39  6
16  26  6
17  20  5
19  20  6
23  60  6
24  61  6
28  33  5
7  4  6
6  36  6
8  37  6
9  38  6

$$$$

