442246
  -OEChem-07051212572D

 54 57  0     1  0  0  0  0  0999 V2000
    2.8718    0.4533    0.0000 O   0  0  0  0  0  0  0  0  0  0  0  0
    2.8560   -1.5949    0.0000 O   0  0  0  0  0  0  0  0  0  0  0  0
    7.2564   -1.0844    0.0000 O   0  0  0  0  0  0  0  0  0  0  0  0
    4.6298   -2.6190    0.0000 O   0  0  0  0  0  0  0  0  0  0  0  0
    9.0381   -0.0739    0.0000 O   0  0  0  0  0  0  0  0  0  0  0  0
    4.7348    1.9451    0.0000 N   0  0  3  0  0  0  0  0  0  0  0  0
    5.5080   -0.0498    0.0000 C   0  0  1  0  0  0  0  0  0  0  0  0
    4.6419    0.4502    0.0000 C   0  0  2  0  0  0  0  0  0  0  0  0
    6.7562    0.7781    0.0000 C   0  0  0  0  0  0  0  0  0  0  0  0
    4.6419    1.4502    0.0000 C   0  0  0  0  0  0  0  0  0  0  0  0
    6.2149    2.1747    0.0000 C   0  0  0  0  0  0  0  0  0  0  0  0
    5.5240   -1.0913    0.0000 C   0  0  0  0  0  0  0  0  0  0  0  0
    6.3740    0.4502    0.0000 C   0  0  0  0  0  0  0  0  0  0  0  0
    3.7319   -0.0566    0.0000 C   0  0  0  0  0  0  0  0  0  0  0  0
    5.5080    1.9502    0.0000 C   0  0  0  0  0  0  0  0  0  0  0  0
    6.3740    1.4502    0.0000 C   0  0  0  0  0  0  0  0  0  0  0  0
    4.6260   -1.6191    0.0000 C   0  0  0  0  0  0  0  0  0  0  0  0
    3.7239   -1.0982    0.0000 C   0  0  0  0  0  0  0  0  0  0  0  0
    3.9960    2.6190    0.0000 C   0  0  0  0  0  0  0  0  0  0  0  0
    7.2679   -0.0844    0.0000 C   0  0  0  0  0  0  0  0  0  0  0  0
    7.2679    1.9849    0.0000 C   0  0  0  0  0  0  0  0  0  0  0  0
    8.1740    0.4294    0.0000 C   0  0  0  0  0  0  0  0  0  0  0  0
    8.1740    1.4710    0.0000 C   0  0  0  0  0  0  0  0  0  0  0  0
    2.0000   -0.0366    0.0000 C   0  0  0  0  0  0  0  0  0  0  0  0
    2.8521   -2.5949    0.0000 C   0  0  0  0  0  0  0  0  0  0  0  0
    8.1166   -1.5944    0.0000 C   0  0  0  0  0  0  0  0  0  0  0  0
    9.9060    0.4227    0.0000 C   0  0  0  0  0  0  0  0  0  0  0  0
    7.0608    0.2381    0.0000 H   0  0  0  0  0  0  0  0  0  0  0  0
    7.3167    1.0431    0.0000 H   0  0  0  0  0  0  0  0  0  0  0  0
    4.4299    2.0328    0.0000 H   0  0  0  0  0  0  0  0  0  0  0  0
    4.0314    1.3426    0.0000 H   0  0  0  0  0  0  0  0  0  0  0  0
    6.8076    2.3566    0.0000 H   0  0  0  0  0  0  0  0  0  0  0  0
    6.0761    2.7789    0.0000 H   0  0  0  0  0  0  0  0  0  0  0  0
    5.7420   -1.6717    0.0000 H   0  0  0  0  0  0  0  0  0  0  0  0
    6.1332   -0.9758    0.0000 H   0  0  0  0  0  0  0  0  0  0  0  0
    5.9065    2.4252    0.0000 H   0  0  0  0  0  0  0  0  0  0  0  0
    5.1094    2.4252    0.0000 H   0  0  0  0  0  0  0  0  0  0  0  0
    4.4138    3.0771    0.0000 H   0  0  0  0  0  0  0  0  0  0  0  0
    3.5379    3.0369    0.0000 H   0  0  0  0  0  0  0  0  0  0  0  0
    3.5782    2.1610    0.0000 H   0  0  0  0  0  0  0  0  0  0  0  0
    7.2608    2.6048    0.0000 H   0  0  0  0  0  0  0  0  0  0  0  0
    8.7097    1.7831    0.0000 H   0  0  0  0  0  0  0  0  0  0  0  0
    1.6962    0.5039    0.0000 H   0  0  0  0  0  0  0  0  0  0  0  0
    1.4595   -0.3404    0.0000 H   0  0  0  0  0  0  0  0  0  0  0  0
    2.3038   -0.5771    0.0000 H   0  0  0  0  0  0  0  0  0  0  0  0
    2.2321   -2.5925    0.0000 H   0  0  0  0  0  0  0  0  0  0  0  0
    2.8497   -3.2149    0.0000 H   0  0  0  0  0  0  0  0  0  0  0  0
    3.4721   -2.5973    0.0000 H   0  0  0  0  0  0  0  0  0  0  0  0
    7.8004   -2.1277    0.0000 H   0  0  0  0  0  0  0  0  0  0  0  0
    8.6499   -1.9106    0.0000 H   0  0  0  0  0  0  0  0  0  0  0  0
    8.4327   -1.0610    0.0000 H   0  0  0  0  0  0  0  0  0  0  0  0
   10.2140   -0.1154    0.0000 H   0  0  0  0  0  0  0  0  0  0  0  0
   10.4442    0.7306    0.0000 H   0  0  0  0  0  0  0  0  0  0  0  0
    9.5981    0.9608    0.0000 H   0  0  0  0  0  0  0  0  0  0  0  0
  1 14  1  0  0  0  0
  1 24  1  0  0  0  0
  2 18  1  0  0  0  0
  2 25  1  0  0  0  0
  3 20  1  0  0  0  0
  3 26  1  0  0  0  0
  4 17  2  0  0  0  0
  5 22  1  0  0  0  0
  5 27  1  0  0  0  0
  8  6  1  1  0  0  0
  6 11  1  0  0  0  0
  6 19  1  0  0  0  0
  7  8  1  0  0  0  0
  7  9  1  1  0  0  0
  7 12  1  0  0  0  0
  7 13  1  0  0  0  0
  8 10  1  0  0  0  0
  8 14  1  0  0  0  0
  9 11  1  0  0  0  0
  9 28  1  0  0  0  0
  9 29  1  0  0  0  0
 10 15  1  0  0  0  0
 10 30  1  0  0  0  0
 10 31  1  0  0  0  0
 11 32  1  0  0  0  0
 11 33  1  0  0  0  0
 12 17  1  0  0  0  0
 12 34  1  0  0  0  0
 12 35  1  0  0  0  0
 13 16  2  0  0  0  0
 13 20  1  0  0  0  0
 14 18  2  0  0  0  0
 15 16  1  0  0  0  0
 15 36  1  0  0  0  0
 15 37  1  0  0  0  0
 16 21  1  0  0  0  0
 17 18  1  0  0  0  0
 19 38  1  0  0  0  0
 19 39  1  0  0  0  0
 19 40  1  0  0  0  0
 20 22  2  0  0  0  0
 21 23  2  0  0  0  0
 21 41  1  0  0  0  0
 22 23  1  0  0  0  0
 23 42  1  0  0  0  0
 24 43  1  0  0  0  0
 24 44  1  0  0  0  0
 24 45  1  0  0  0  0
 25 46  1  0  0  0  0
 25 47  1  0  0  0  0
 25 48  1  0  0  0  0
 26 49  1  0  0  0  0
 26 50  1  0  0  0  0
 26 51  1  0  0  0  0
 27 52  1  0  0  0  0
 27 53  1  0  0  0  0
 27 54  1  0  0  0  0
M  END
> <PUBCHEM_COMPOUND_CID>
442246

> <PUBCHEM_COMPOUND_CANONICALIZED>
1

> <PUBCHEM_CACTVS_COMPLEXITY>
649

> <PUBCHEM_CACTVS_HBOND_ACCEPTOR>
6

> <PUBCHEM_CACTVS_HBOND_DONOR>
0

> <PUBCHEM_CACTVS_ROTATABLE_BOND>
4

> <PUBCHEM_CACTVS_SUBSKEYS>
AAADceB6OAAAAAAAAAAAAAAAAAAAAWAAAAAwYIAAAAAAAFjBAAAAHgAAAAAADozBmAYyBoMABACIAqBSAAKCCAAgIAAIiAFOiMgPJjKEsR+FMCIkwBGaqQe8/f/PoAABAAAYQADQAAaAADSAAAAAAAAAAA==

> <PUBCHEM_IUPAC_INCHI>
InChI=1S/C21H27NO5/c1-22-11-10-20-12-14(23)17(25-3)19(27-5)21(20,22)9-8-13-6-7-15(24-2)18(26-4)16(13)20/h6-7H,8-12H2,1-5H3/t20-,21+/m0/s1

> <PUBCHEM_IUPAC_INCHIKEY>
DXUSNRCTWFHYFS-LEWJYISDSA-N

> <PUBCHEM_XLOGP3_AA>
2.1

> <PUBCHEM_EXACT_MASS>
373.188923

> <PUBCHEM_MOLECULAR_FORMULA>
C21H27NO5

> <PUBCHEM_MOLECULAR_WEIGHT>
373.44278

> <PUBCHEM_OPENEYE_CAN_SMILES>
CN1CCC23C1(CCC4=C2C(=C(C=C4)OC)OC)C(=C(C(=O)C3)OC)OC

> <PUBCHEM_OPENEYE_ISO_SMILES>
CN1CC[C@@]23[C@@]1(CCC4=C2C(=C(C=C4)OC)OC)C(=C(C(=O)C3)OC)OC

> <PUBCHEM_CACTVS_TPSA>
57.2

> <PUBCHEM_MONOISOTOPIC_WEIGHT>
373.188923

> <PUBCHEM_TOTAL_CHARGE>
0

> <PUBCHEM_HEAVY_ATOM_COUNT>
27

> <PUBCHEM_ATOM_DEF_STEREO_COUNT>
2

> <PUBCHEM_ATOM_UDEF_STEREO_COUNT>
0

> <PUBCHEM_BOND_DEF_STEREO_COUNT>
0

> <PUBCHEM_BOND_UDEF_STEREO_COUNT>
0

> <PUBCHEM_ISOTOPIC_ATOM_COUNT>
0

> <PUBCHEM_COMPONENT_COUNT>
1

> <PUBCHEM_CACTVS_TAUTO_COUNT>
2

> <PUBCHEM_COORDINATE_TYPE>
1
5
255

> <PUBCHEM_BONDANNOTATIONS>
13  16  8
13  20  8
16  21  8
20  22  8
21  23  8
22  23  8
8  6  5
7  9  5

$$$$

