   Color/Form

     * White, crystalline solid
     * Colorless crystalline solid
     * Colorless crystals

   from [1]HSDB

   Melting Point
        133-134 deg C
   from [2]HSDB

   Corrosivity
        Non-corrosive
   from [3]HSDB

   Density/Specific Gravity
        1.08 at 20 deg C/20 deg C
   from [4]HSDB

   Solubilities

     * 3850 ppm @ 25 deg C
     * Sparingly sol in water (0.29% at 24 deg C)
     * Solubility (25 deg C): 3.85 g/l water; sparingly soluble in
       hydrocarbons.
     * In ethanol 108.8, diethylether 5.5, acetone 80.2, benzene 3.1,
       chloroform 125, n-hexane 0.2, groundnut oil 1.0 (all in g/kg at
       20-25 deg C)
     * In water 3.85 g/l at 25 deg C

   from [5]HSDB

   Spectral Properties
        Intense mass spectral peaks: 72 mz (100%), 164 mz (26%), 44 mz
   (25%), 65 mz (22%).
   from [6]HSDB

   Vapor Pressure
        1.6x10-4 mm Hg at 60 deg C
   from [7]HSDB

   Other Chemical/Physical Properties

     * Compatible with other wettable-powder herbicides.
     * Colorless crystals /Fenuron trichloroacetate/
     * Molecular weight: 327.6 /Fenuron trichloroacetate/
     * Melting point: 65-68 deg C /Fenuron trichloroacetate/
     * Sol in water 4.8 g/l at room temperature. Moderately sol in acetone
       and aromatic solvents. sparingly soluble in petroleum oils.
       /Fenuron trichloroacetate/
     * Henry's Law constant of 9.71X10-10 atm-cu m/mole at 25 deg C
       (estimated)

   from [8]HSDB

   Computed Properties
   Molecular Weight                  164.20438 [g/mol]
   Molecular Formula                 C[9]H[12]N[2]O
   XLogP3                            1
   H-Bond Donor                      1
   H-Bond Acceptor                   1
   Rotatable Bond Count              1
   Tautomer Count                    2
   Exact Mass                        164.094963
   MonoIsotopic Mass                 164.094963
   Topological Polar Surface Area    32.3
   Heavy Atom Count                  12
   Formal Charge                     0
   Complexity                        151
   Isotope Atom Count                0
   Defined Atom Stereocenter Count   0
   Undefined Atom Stereocenter Count 0
   Defined Bond Stereocenter Count   0
   Undefined Bond Stereocenter Count 0
   Covalently-Bonded Unit Count      1
   Feature 3D Acceptor Count         1
   Feature 3D Donor Count            1
   Feature 3D Ring Count             1
   Effective Rotor Count             3
   Conformer Sampling RMSD           0.6
   CID Conformer Count               [9]5

References

   1. http://toxnet.nlm.nih.gov/cgi-bin/sis/search/r?dbs+hsdb:@term+@rn+@rel+101-42-8
   2. http://toxnet.nlm.nih.gov/cgi-bin/sis/search/r?dbs+hsdb:@term+@rn+@rel+101-42-8
   3. http://toxnet.nlm.nih.gov/cgi-bin/sis/search/r?dbs+hsdb:@term+@rn+@rel+101-42-8
   4. http://toxnet.nlm.nih.gov/cgi-bin/sis/search/r?dbs+hsdb:@term+@rn+@rel+101-42-8
   5. http://toxnet.nlm.nih.gov/cgi-bin/sis/search/r?dbs+hsdb:@term+@rn+@rel+101-42-8
   6. http://toxnet.nlm.nih.gov/cgi-bin/sis/search/r?dbs+hsdb:@term+@rn+@rel+101-42-8
   7. http://toxnet.nlm.nih.gov/cgi-bin/sis/search/r?dbs+hsdb:@term+@rn+@rel+101-42-8
   8. http://toxnet.nlm.nih.gov/cgi-bin/sis/search/r?dbs+hsdb:@term+@rn+@rel+101-42-8
   9. http://pubchem.ncbi.nlm.nih.gov/vw3d/vw3d.cgi?cid=7560
