11164
  -OEChem-07051213002D

 11 11  0     1  0  0  0  0  0999 V2000
    4.7690    0.6830    0.0000 O   0  0  0  0  0  0  0  0  0  0  0  0
    2.5369   -0.1830    0.0000 O   0  0  0  0  0  0  0  0  0  0  0  0
    4.2690   -0.1830    0.0000 C   0  0  3  0  0  0  0  0  0  0  0  0
    5.2690   -0.1830    0.0000 C   0  0  0  0  0  0  0  0  0  0  0  0
    3.4030   -0.6830    0.0000 C   0  0  0  0  0  0  0  0  0  0  0  0
    3.6680    0.4180    0.0000 H   0  0  0  0  0  0  0  0  0  0  0  0
    5.3766   -0.7936    0.0000 H   0  0  0  0  0  0  0  0  0  0  0  0
    5.8516    0.0290    0.0000 H   0  0  0  0  0  0  0  0  0  0  0  0
    3.0044   -1.1580    0.0000 H   0  0  0  0  0  0  0  0  0  0  0  0
    3.8015   -1.1580    0.0000 H   0  0  0  0  0  0  0  0  0  0  0  0
    2.0000   -0.4930    0.0000 H   0  0  0  0  0  0  0  0  0  0  0  0
  1  3  1  0  0  0  0
  1  4  1  0  0  0  0
  2  5  1  0  0  0  0
  2 11  1  0  0  0  0
  3  4  1  0  0  0  0
  3  5  1  0  0  0  0
  3  6  1  0  0  0  0
  4  7  1  0  0  0  0
  4  8  1  0  0  0  0
  5  9  1  0  0  0  0
  5 10  1  0  0  0  0
M  END
> <PUBCHEM_COMPOUND_CID>
11164

> <PUBCHEM_COMPOUND_CANONICALIZED>
1

> <PUBCHEM_CACTVS_COMPLEXITY>
35.9

> <PUBCHEM_CACTVS_HBOND_ACCEPTOR>
2

> <PUBCHEM_CACTVS_HBOND_DONOR>
1

> <PUBCHEM_CACTVS_ROTATABLE_BOND>
1

> <PUBCHEM_CACTVS_SUBSKEYS>
AAADcYBAMAAAAAAAAAAAAAAAEgAAAAAAAAAAAAAAAAAAAAAAAAAAGgAACAAACBSggAIAAAAABgAAAAAAAAAAAAAAAAAAAAAAAAABEAAAAAAAQAABAAADAAAAAAAAAAAAAAAAAAAAAAAAAAAAAAAAAAAAAA==

> <PUBCHEM_IUPAC_OPENEYE_NAME>
oxiran-2-ylmethanol

> <PUBCHEM_IUPAC_CAS_NAME>
2-oxiranylmethanol

> <PUBCHEM_IUPAC_NAME>
oxiran-2-ylmethanol

> <PUBCHEM_IUPAC_SYSTEMATIC_NAME>
oxiran-2-ylmethanol

> <PUBCHEM_IUPAC_TRADITIONAL_NAME>
oxiran-2-ylmethanol

> <PUBCHEM_IUPAC_INCHI>
InChI=1S/C3H6O2/c4-1-3-2-5-3/h3-4H,1-2H2

> <PUBCHEM_IUPAC_INCHIKEY>
CTKINSOISVBQLD-UHFFFAOYSA-N

> <PUBCHEM_XLOGP3>
-0.9

> <PUBCHEM_EXACT_MASS>
74.036779

> <PUBCHEM_MOLECULAR_FORMULA>
C3H6O2

> <PUBCHEM_MOLECULAR_WEIGHT>
74.07854

> <PUBCHEM_OPENEYE_CAN_SMILES>
C1C(O1)CO

> <PUBCHEM_OPENEYE_ISO_SMILES>
C1C(O1)CO

> <PUBCHEM_CACTVS_TPSA>
32.8

> <PUBCHEM_MONOISOTOPIC_WEIGHT>
74.036779

> <PUBCHEM_TOTAL_CHARGE>
0

> <PUBCHEM_HEAVY_ATOM_COUNT>
5

> <PUBCHEM_ATOM_DEF_STEREO_COUNT>
0

> <PUBCHEM_ATOM_UDEF_STEREO_COUNT>
1

> <PUBCHEM_BOND_DEF_STEREO_COUNT>
0

> <PUBCHEM_BOND_UDEF_STEREO_COUNT>
0

> <PUBCHEM_ISOTOPIC_ATOM_COUNT>
0

> <PUBCHEM_COMPONENT_COUNT>
1

> <PUBCHEM_CACTVS_TAUTO_COUNT>
1

> <PUBCHEM_COORDINATE_TYPE>
1
5
255

> <PUBCHEM_BONDANNOTATIONS>
3  6  3

$$$$

