5683
  -OEChem-06261200482D

 41 43  0     1  0  0  0  0  0999 V2000
    6.3301    2.0950    0.0000 O   0  0  0  0  0  0  0  0  0  0  0  0
    3.7320   -2.4050    0.0000 O   0  0  0  0  0  0  0  0  0  0  0  0
    4.5981    2.0950    0.0000 O   0  0  0  0  0  0  0  0  0  0  0  0
    6.3301   -0.9050    0.0000 O   0  0  0  0  0  0  0  0  0  0  0  0
    4.5981    0.0950    0.0000 C   0  0  3  0  0  0  0  0  0  0  0  0
    4.5981   -0.9050    0.0000 C   0  0  0  0  0  0  0  0  0  0  0  0
    5.4641    0.5950    0.0000 C   0  0  0  0  0  0  0  0  0  0  0  0
    3.7320   -1.4050    0.0000 C   0  0  3  0  0  0  0  0  0  0  0  0
    3.7320    0.5950    0.0000 C   0  0  0  0  0  0  0  0  0  0  0  0
    6.3301    0.0950    0.0000 C   0  0  0  0  0  0  0  0  0  0  0  0
    5.4641    1.5950    0.0000 C   0  0  0  0  0  0  0  0  0  0  0  0
    2.8660   -0.9050    0.0000 C   0  0  0  0  0  0  0  0  0  0  0  0
    7.1962    0.5950    0.0000 C   0  0  0  0  0  0  0  0  0  0  0  0
    3.7320    1.5950    0.0000 C   0  0  0  0  0  0  0  0  0  0  0  0
    2.8660    0.0950    0.0000 C   0  0  0  0  0  0  0  0  0  0  0  0
    7.1962    1.5950    0.0000 C   0  0  0  0  0  0  0  0  0  0  0  0
    2.8660    2.0950    0.0000 C   0  0  0  0  0  0  0  0  0  0  0  0
    2.0000    0.5950    0.0000 C   0  0  0  0  0  0  0  0  0  0  0  0
    8.0901    0.0603    0.0000 C   0  0  0  0  0  0  0  0  0  0  0  0
    8.0901    2.1297    0.0000 C   0  0  0  0  0  0  0  0  0  0  0  0
    2.0000    1.5950    0.0000 C   0  0  0  0  0  0  0  0  0  0  0  0
    8.9962    0.5742    0.0000 C   0  0  0  0  0  0  0  0  0  0  0  0
    8.9962    1.6158    0.0000 C   0  0  0  0  0  0  0  0  0  0  0  0
    5.1350   -0.2150    0.0000 H   0  0  0  0  0  0  0  0  0  0  0  0
    4.8101   -1.4876    0.0000 H   0  0  0  0  0  0  0  0  0  0  0  0
    5.2087   -0.7973    0.0000 H   0  0  0  0  0  0  0  0  0  0  0  0
    4.2690   -1.7150    0.0000 H   0  0  0  0  0  0  0  0  0  0  0  0
    3.1760   -0.3681    0.0000 H   0  0  0  0  0  0  0  0  0  0  0  0
    2.3291   -0.5950    0.0000 H   0  0  0  0  0  0  0  0  0  0  0  0
    2.5560   -1.4419    0.0000 H   0  0  0  0  0  0  0  0  0  0  0  0
    4.2690    1.9050    0.0000 H   0  0  0  0  0  0  0  0  0  0  0  0
    2.8660   -0.5250    0.0000 H   0  0  0  0  0  0  0  0  0  0  0  0
    3.1951   -2.7150    0.0000 H   0  0  0  0  0  0  0  0  0  0  0  0
    2.8660    2.7150    0.0000 H   0  0  0  0  0  0  0  0  0  0  0  0
    1.4631    0.2850    0.0000 H   0  0  0  0  0  0  0  0  0  0  0  0
    8.0829   -0.5596    0.0000 H   0  0  0  0  0  0  0  0  0  0  0  0
    8.0829    2.7496    0.0000 H   0  0  0  0  0  0  0  0  0  0  0  0
    1.4631    1.9050    0.0000 H   0  0  0  0  0  0  0  0  0  0  0  0
    9.5319    0.2621    0.0000 H   0  0  0  0  0  0  0  0  0  0  0  0
    9.5319    1.9279    0.0000 H   0  0  0  0  0  0  0  0  0  0  0  0
    4.5981    2.7150    0.0000 H   0  0  0  0  0  0  0  0  0  0  0  0
  1 11  1  0  0  0  0
  1 16  1  0  0  0  0
  2  8  1  0  0  0  0
  2 33  1  0  0  0  0
  3 11  1  0  0  0  0
  3 41  1  0  0  0  0
  4 10  2  0  0  0  0
  5  6  1  0  0  0  0
  5  7  1  0  0  0  0
  5  9  1  0  0  0  0
  5 24  1  0  0  0  0
  6  8  1  0  0  0  0
  6 25  1  0  0  0  0
  6 26  1  0  0  0  0
  7 10  1  0  0  0  0
  7 11  2  0  0  0  0
  8 12  1  0  0  0  0
  8 27  1  0  0  0  0
  9 14  2  0  0  0  0
  9 15  1  0  0  0  0
 10 13  1  0  0  0  0
 12 28  1  0  0  0  0
 12 29  1  0  0  0  0
 12 30  1  0  0  0  0
 13 16  1  0  0  0  0
 13 19  2  0  0  0  0
 14 17  1  0  0  0  0
 14 31  1  0  0  0  0
 15 18  2  0  0  0  0
 15 32  1  0  0  0  0
 16 20  2  0  0  0  0
 17 21  2  0  0  0  0
 17 34  1  0  0  0  0
 18 21  1  0  0  0  0
 18 35  1  0  0  0  0
 19 22  1  0  0  0  0
 19 36  1  0  0  0  0
 20 23  1  0  0  0  0
 20 37  1  0  0  0  0
 21 38  1  0  0  0  0
 22 23  2  0  0  0  0
 22 39  1  0  0  0  0
 23 40  1  0  0  0  0
M  END
> <PUBCHEM_COMPOUND_CID>
5683

> <PUBCHEM_COMPOUND_CANONICALIZED>
1

> <PUBCHEM_CACTVS_COMPLEXITY>
464

> <PUBCHEM_CACTVS_HBOND_ACCEPTOR>
4

> <PUBCHEM_CACTVS_HBOND_DONOR>
2

> <PUBCHEM_CACTVS_ROTATABLE_BOND>
4

> <PUBCHEM_CACTVS_SUBSKEYS>
AAADceB4OAAAAAAAAAAAAAAAAAAAAAAAAAAwYIAAAAAAAACBQAAAGgAACAAADRSgmAIyDoAABgCIAqBSAAACCAAkIAAIiAEGCMgcNjaENRqAcWAk4BEMqYeIzPDOgAAAAAAIAAAAAAAAABAAAAAAAAAAAA==

> <PUBCHEM_IUPAC_OPENEYE_NAME>
2-hydroxy-3-(3-hydroxy-1-phenyl-butyl)chromen-4-one

> <PUBCHEM_IUPAC_CAS_NAME>
2-hydroxy-3-(3-hydroxy-1-phenylbutyl)-1-benzopyran-4-one

> <PUBCHEM_IUPAC_NAME>
2-hydroxy-3-(3-hydroxy-1-phenylbutyl)chromen-4-one

> <PUBCHEM_IUPAC_SYSTEMATIC_NAME>
2-oxidanyl-3-(3-oxidanyl-1-phenyl-butyl)chromen-4-one

> <PUBCHEM_IUPAC_TRADITIONAL_NAME>
2-hydroxy-3-(3-hydroxy-1-phenyl-butyl)chromone

> <PUBCHEM_IUPAC_INCHI>
InChI=1S/C19H18O4/c1-12(20)11-15(13-7-3-2-4-8-13)17-18(21)14-9-5-6-10-16(14)23-19(17)22/h2-10,12,15,20,22H,11H2,1H3

> <PUBCHEM_IUPAC_INCHIKEY>
ITRHMRDQFXQTDH-UHFFFAOYSA-N

> <PUBCHEM_XLOGP3>
2.6

> <PUBCHEM_EXACT_MASS>
310.120509

> <PUBCHEM_MOLECULAR_FORMULA>
C19H18O4

> <PUBCHEM_MOLECULAR_WEIGHT>
310.34382

> <PUBCHEM_OPENEYE_CAN_SMILES>
CC(CC(C1=CC=CC=C1)C2=C(OC3=CC=CC=C3C2=O)O)O

> <PUBCHEM_OPENEYE_ISO_SMILES>
CC(CC(C1=CC=CC=C1)C2=C(OC3=CC=CC=C3C2=O)O)O

> <PUBCHEM_CACTVS_TPSA>
66.8

> <PUBCHEM_MONOISOTOPIC_WEIGHT>
310.120509

> <PUBCHEM_TOTAL_CHARGE>
0

> <PUBCHEM_HEAVY_ATOM_COUNT>
23

> <PUBCHEM_ATOM_DEF_STEREO_COUNT>
0

> <PUBCHEM_ATOM_UDEF_STEREO_COUNT>
2

> <PUBCHEM_BOND_DEF_STEREO_COUNT>
0

> <PUBCHEM_BOND_UDEF_STEREO_COUNT>
0

> <PUBCHEM_ISOTOPIC_ATOM_COUNT>
0

> <PUBCHEM_COMPONENT_COUNT>
1

> <PUBCHEM_CACTVS_TAUTO_COUNT>
3

> <PUBCHEM_COORDINATE_TYPE>
1
5
255

> <PUBCHEM_BONDANNOTATIONS>
1  11  8
1  16  8
10  13  8
13  16  8
13  19  8
14  17  8
15  18  8
16  20  8
17  21  8
18  21  8
19  22  8
8  2  3
20  23  8
22  23  8
5  6  3
7  10  8
7  11  8
9  14  8
9  15  8

$$$$

