   Color/Form

     * Colorless crystals
     * Monoclinic prisms or plates from water

   from [1]HSDB

   Boiling Point
        288 deg C
   from [2]HSDB

   Melting Point
        130 deg C
   from [3]HSDB

   Density/Specific Gravity
        1.341
   from [4]HSDB

   Heat of Combustion
        847.6 kcal/g mol wt @ 20 deg C
   from [5]HSDB

   Octanol/Water Partition Coefficient
        log Kow= 0.64
   from [6]HSDB

   Solubilities

     * > 10% in benzene
     * 1 g in 6 ml ethanol; 1 g in 3.3 ml pyridine
     * Soluble in ammonia
     * Slightyl soluble in ethyl ether, benzene; very soluble in ethyl
       alcohol, carbon tetrachloride, carbon disulfide.
     * In water, 1.35X10+4 mg/l @ 25 deg C

   from [7]HSDB

   Spectral Properties

     * IR: 340 (Sadtler Research Laboratories IR Grating Collection)
     * UV: 744 (Sadtler Research Laboratories Spectral Collection)
     * NMR: 689 (Sadtler Research Laboratories Spectral Collection)
     * MASS: 489 (Atlas of Mass Spectral Data, John Wiley & Sons, New
       York)
     * Intense mass spectral peaks: 77 m/z, 105 m/z, 121 m/z

   from [8]HSDB

   Surface Tension
        47.26 dyn/cm
   from [9]HSDB

   Other Chemical/Physical Properties

     * Dipole moment: 3.6 debyes
     * Benzamide can be transformed to phenyl isocyanate @ 60 deg C & @
       normal pressure
     * Heat of formation: -48.42 kcal/mole @ 25 deg C
     * Henry's Law constant = 2.45X10-10 atm-cu m/mol @ 25 deg C [Abraham
       MH et al; J Pharm Sci 83: 1085-100 (1994)] [10]PubMed Abstract

   from [11]HSDB

   Computed Properties
   Molecular Weight                  121.13658 [g/mol]
   Molecular Formula                 C[7]H[7]NO
   XLogP3                            0.6
   H-Bond Donor                      1
   H-Bond Acceptor                   1
   Rotatable Bond Count              1
   Tautomer Count                    2
   Exact Mass                        121.052764
   MonoIsotopic Mass                 121.052764
   Topological Polar Surface Area    43.1
   Heavy Atom Count                  9
   Formal Charge                     0
   Complexity                        106
   Isotope Atom Count                0
   Defined Atom Stereocenter Count   0
   Undefined Atom Stereocenter Count 0
   Defined Bond Stereocenter Count   0
   Undefined Bond Stereocenter Count 0
   Covalently-Bonded Unit Count      1
   Feature 3D Acceptor Count         1
   Feature 3D Donor Count            1
   Feature 3D Ring Count             1
   Effective Rotor Count             1
   Conformer Sampling RMSD           0.4
   CID Conformer Count               [12]1

References

   1. http://toxnet.nlm.nih.gov/cgi-bin/sis/search/r?dbs+hsdb:@term+@rn+@rel+55-21-0
   2. http://toxnet.nlm.nih.gov/cgi-bin/sis/search/r?dbs+hsdb:@term+@rn+@rel+55-21-0
   3. http://toxnet.nlm.nih.gov/cgi-bin/sis/search/r?dbs+hsdb:@term+@rn+@rel+55-21-0
   4. http://toxnet.nlm.nih.gov/cgi-bin/sis/search/r?dbs+hsdb:@term+@rn+@rel+55-21-0
   5. http://toxnet.nlm.nih.gov/cgi-bin/sis/search/r?dbs+hsdb:@term+@rn+@rel+55-21-0
   6. http://toxnet.nlm.nih.gov/cgi-bin/sis/search/r?dbs+hsdb:@term+@rn+@rel+55-21-0
   7. http://toxnet.nlm.nih.gov/cgi-bin/sis/search/r?dbs+hsdb:@term+@rn+@rel+55-21-0
   8. http://toxnet.nlm.nih.gov/cgi-bin/sis/search/r?dbs+hsdb:@term+@rn+@rel+55-21-0
   9. http://toxnet.nlm.nih.gov/cgi-bin/sis/search/r?dbs+hsdb:@term+@rn+@rel+55-21-0
  10. http://www.ncbi.nlm.nih.gov/entrez/query.fcgi?cmd=Retrieve&db=pubmed&dopt=Abstract&list_uids=7983591
  11. http://toxnet.nlm.nih.gov/cgi-bin/sis/search/r?dbs+hsdb:@term+@rn+@rel+55-21-0
  12. http://pubchem.ncbi.nlm.nih.gov/vw3d/vw3d.cgi?cid=2331
