   Color/Form

     * Amber liquid
     * Yellowish liquid
     * Yellow liquid

   from [1]HSDB

   Boiling Point
        170 deg C at 760 mm Hg
   from [2]HSDB

   Density/Specific Gravity
        1.22 @ 20 deg C
   from [3]HSDB

   Dissociation Constants
        pKa=4.0
   from [4]HSDB

   Octanol/Water Partition Coefficient
        log Kow = 3.82
   from [5]HSDB

   Solubilities

     * Miscible with methanol, chloroform, benzene, hexane
     * In water, 69 mg/l at 20 deg C

   from [6]HSDB

   Vapor Pressure
        8.70X10-5 mm Hg at 25 deg C
   from [7]HSDB

   Computed Properties
   Molecular Weight                  313.741342 [g/mol]
   Molecular Formula                 C[9]H[17]ClN[3]O[3]PS
   XLogP3-AA                         3.9
   H-Bond Donor                      0
   H-Bond Acceptor                   6
   Rotatable Bond Count              7
   Exact Mass                        313.041677
   MonoIsotopic Mass                 313.041677
   Topological Polar Surface Area    90.5
   Heavy Atom Count                  18
   Formal Charge                     0
   Complexity                        301
   Isotope Atom Count                0
   Defined Atom Stereocenter Count   0
   Undefined Atom Stereocenter Count 0
   Defined Bond Stereocenter Count   0
   Undefined Bond Stereocenter Count 0
   Covalently-Bonded Unit Count      1
   Feature 3D Cation Count           2
   Feature 3D Hydrophobe Count       1
   Feature 3D Ring Count             1
   Effective Rotor Count             7
   Conformer Sampling RMSD           0.8
   CID Conformer Count               [8]96

References

   1. http://toxnet.nlm.nih.gov/cgi-bin/sis/search/r?dbs+hsdb:@term+@rn+@rel+42509-80-8
   2. http://toxnet.nlm.nih.gov/cgi-bin/sis/search/r?dbs+hsdb:@term+@rn+@rel+42509-80-8
   3. http://toxnet.nlm.nih.gov/cgi-bin/sis/search/r?dbs+hsdb:@term+@rn+@rel+42509-80-8
   4. http://toxnet.nlm.nih.gov/cgi-bin/sis/search/r?dbs+hsdb:@term+@rn+@rel+42509-80-8
   5. http://toxnet.nlm.nih.gov/cgi-bin/sis/search/r?dbs+hsdb:@term+@rn+@rel+42509-80-8
   6. http://toxnet.nlm.nih.gov/cgi-bin/sis/search/r?dbs+hsdb:@term+@rn+@rel+42509-80-8
   7. http://toxnet.nlm.nih.gov/cgi-bin/sis/search/r?dbs+hsdb:@term+@rn+@rel+42509-80-8
   8. http://pubchem.ncbi.nlm.nih.gov/vw3d/vw3d.cgi?cid=39223
