442810
  -OEChem-07051212592D

 46 51  0     1  0  0  0  0  0999 V2000
    2.9180    0.6441    0.0000 O   0  0  0  0  0  0  0  0  0  0  0  0
    2.0000   -1.9043    0.0000 O   0  0  0  0  0  0  0  0  0  0  0  0
    4.6744    3.7983    0.0000 O   0  0  0  0  0  0  0  0  0  0  0  0
    5.5161   -0.8559    0.0000 O   0  0  0  0  0  0  0  0  0  0  0  0
    5.5740   -4.2205    0.0000 O   0  0  0  0  0  0  0  0  0  0  0  0
    4.0684   -5.1052    0.0000 O   0  0  0  0  0  0  0  0  0  0  0  0
    3.7841   -0.8559    0.0000 C   0  0  2  0  0  0  0  0  0  0  0  0
    2.9180   -0.3559    0.0000 C   0  0  1  0  0  0  0  0  0  0  0  0
    3.8001   -1.8974    0.0000 C   0  0  0  0  0  0  0  0  0  0  0  0
    2.0080   -0.8627    0.0000 C   0  0  0  0  0  0  0  0  0  0  0  0
    4.6501   -0.3559    0.0000 C   0  0  0  0  0  0  0  0  0  0  0  0
    3.7841    1.1441    0.0000 C   0  0  0  0  0  0  0  0  0  0  0  0
    4.6501    0.6441    0.0000 C   0  0  0  0  0  0  0  0  0  0  0  0
    2.9021   -2.4252    0.0000 C   0  0  0  0  0  0  0  0  0  0  0  0
    3.7680    2.1856    0.0000 C   0  0  0  0  0  0  0  0  0  0  0  0
    4.7520   -2.4180    0.0000 C   0  0  0  0  0  0  0  0  0  0  0  0
    3.7348    4.3408    0.0000 C   0  0  0  0  0  0  0  0  0  0  0  0
    4.6660    2.7134    0.0000 C   0  0  0  0  0  0  0  0  0  0  0  0
    5.5601    1.1510    0.0000 C   0  0  0  0  0  0  0  0  0  0  0  0
    2.8937   -3.5101    0.0000 C   0  0  0  0  0  0  0  0  0  0  0  0
    4.7688   -3.5029    0.0000 C   0  0  0  0  0  0  0  0  0  0  0  0
    2.8161    2.7062    0.0000 C   0  0  0  0  0  0  0  0  0  0  0  0
    3.8334   -4.0526    0.0000 C   0  0  0  0  0  0  0  0  0  0  0  0
    5.5681    2.1926    0.0000 C   0  0  0  0  0  0  0  0  0  0  0  0
    2.7993    3.7911    0.0000 C   0  0  0  0  0  0  0  0  0  0  0  0
    3.2314    5.2049    0.0000 C   0  0  0  0  0  0  0  0  0  0  0  0
    4.2314    5.2088    0.0000 C   0  0  0  0  0  0  0  0  0  0  0  0
    5.1420   -5.2088    0.0000 C   0  0  0  0  0  0  0  0  0  0  0  0
    4.5234   -1.2752    0.0000 H   0  0  0  0  0  0  0  0  0  0  0  0
    2.1852    0.0748    0.0000 H   0  0  0  0  0  0  0  0  0  0  0  0
    1.8035   -0.2774    0.0000 H   0  0  0  0  0  0  0  0  0  0  0  0
    1.3964   -0.9641    0.0000 H   0  0  0  0  0  0  0  0  0  0  0  0
    5.2829   -2.0977    0.0000 H   0  0  0  0  0  0  0  0  0  0  0  0
    6.0934    0.8348    0.0000 H   0  0  0  0  0  0  0  0  0  0  0  0
    2.3556   -3.8180    0.0000 H   0  0  0  0  0  0  0  0  0  0  0  0
    2.2852    2.3859    0.0000 H   0  0  0  0  0  0  0  0  0  0  0  0
    6.1062    2.5005    0.0000 H   0  0  0  0  0  0  0  0  0  0  0  0
    2.2589    4.0949    0.0000 H   0  0  0  0  0  0  0  0  0  0  0  0
    3.7672    5.5170    0.0000 H   0  0  0  0  0  0  0  0  0  0  0  0
    2.9194    5.7407    0.0000 H   0  0  0  0  0  0  0  0  0  0  0  0
    4.7696    4.9008    0.0000 H   0  0  0  0  0  0  0  0  0  0  0  0
    2.6957    4.8929    0.0000 H   0  0  0  0  0  0  0  0  0  0  0  0
    4.5394    5.7469    0.0000 H   0  0  0  0  0  0  0  0  0  0  0  0
    3.6933    5.5167    0.0000 H   0  0  0  0  0  0  0  0  0  0  0  0
    5.0180   -5.8162    0.0000 H   0  0  0  0  0  0  0  0  0  0  0  0
    5.7331   -5.3960    0.0000 H   0  0  0  0  0  0  0  0  0  0  0  0
  1  8  1  0  0  0  0
  1 12  1  0  0  0  0
  2 10  1  0  0  0  0
  2 14  1  0  0  0  0
  3 17  1  0  0  0  0
  3 18  1  0  0  0  0
  4 11  2  0  0  0  0
  5 21  1  0  0  0  0
  5 28  1  0  0  0  0
  6 23  1  0  0  0  0
  6 28  1  0  0  0  0
  7  8  1  0  0  0  0
  7  9  1  0  0  0  0
  7 11  1  0  0  0  0
  7 29  1  6  0  0  0
  8 10  1  0  0  0  0
  8 30  1  6  0  0  0
  9 14  1  0  0  0  0
  9 16  2  0  0  0  0
 10 31  1  0  0  0  0
 10 32  1  0  0  0  0
 11 13  1  0  0  0  0
 12 13  2  0  0  0  0
 12 15  1  0  0  0  0
 13 19  1  0  0  0  0
 14 20  2  0  0  0  0
 15 18  2  0  0  0  0
 15 22  1  0  0  0  0
 16 21  1  0  0  0  0
 16 33  1  0  0  0  0
 17 25  1  0  0  0  0
 17 26  1  0  0  0  0
 17 27  1  0  0  0  0
 18 24  1  0  0  0  0
 19 24  2  0  0  0  0
 19 34  1  0  0  0  0
 20 23  1  0  0  0  0
 20 35  1  0  0  0  0
 21 23  2  0  0  0  0
 22 25  2  0  0  0  0
 22 36  1  0  0  0  0
 24 37  1  0  0  0  0
 25 38  1  0  0  0  0
 26 39  1  0  0  0  0
 26 40  1  0  0  0  0
 26 42  1  0  0  0  0
 27 41  1  0  0  0  0
 27 43  1  0  0  0  0
 27 44  1  0  0  0  0
 28 45  1  0  0  0  0
 28 46  1  0  0  0  0
M  END
> <PUBCHEM_COMPOUND_CID>
442810

> <PUBCHEM_COMPOUND_CANONICALIZED>
1

> <PUBCHEM_CACTVS_COMPLEXITY>
689

> <PUBCHEM_CACTVS_HBOND_ACCEPTOR>
6

> <PUBCHEM_CACTVS_HBOND_DONOR>
0

> <PUBCHEM_CACTVS_ROTATABLE_BOND>
0

> <PUBCHEM_CACTVS_SUBSKEYS>
AAADceB4OAAAAAAAAAAAAAAAAAAAASAAAAA0aIECAAAAAEiRQAAAGgAAAAAADVSgmAMyDoAABACIAqBSAAACCAAkIAAIiAEGiMgdJzaENRqiOWKl4BUOqYfK7PzOoQADCAAIQABCAAYQABCAAAAAAAAAAA==

> <PUBCHEM_IUPAC_INCHI>
InChI=1S/C22H18O6/c1-22(2)6-5-11-14(28-22)4-3-12-20(23)19-13-7-16-17(26-10-25-16)8-15(13)24-9-18(19)27-21(11)12/h3-8,18-19H,9-10H2,1-2H3/t18-,19+/m1/s1

> <PUBCHEM_IUPAC_INCHIKEY>
TXNSUHKZCOMFPN-MOPGFXCFSA-N

> <PUBCHEM_XLOGP3_AA>
3.6

> <PUBCHEM_EXACT_MASS>
378.110338

> <PUBCHEM_MOLECULAR_FORMULA>
C22H18O6

> <PUBCHEM_MOLECULAR_WEIGHT>
378.37472

> <PUBCHEM_OPENEYE_CAN_SMILES>
CC1(C=CC2=C(O1)C=CC3=C2OC4COC5=CC6=C(C=C5C4C3=O)OCO6)C

> <PUBCHEM_OPENEYE_ISO_SMILES>
CC1(C=CC2=C(O1)C=CC3=C2O[C@@H]4COC5=CC6=C(C=C5[C@@H]4C3=O)OCO6)C

> <PUBCHEM_CACTVS_TPSA>
63.2

> <PUBCHEM_MONOISOTOPIC_WEIGHT>
378.110338

> <PUBCHEM_TOTAL_CHARGE>
0

> <PUBCHEM_HEAVY_ATOM_COUNT>
28

> <PUBCHEM_ATOM_DEF_STEREO_COUNT>
2

> <PUBCHEM_ATOM_UDEF_STEREO_COUNT>
0

> <PUBCHEM_BOND_DEF_STEREO_COUNT>
0

> <PUBCHEM_BOND_UDEF_STEREO_COUNT>
0

> <PUBCHEM_ISOTOPIC_ATOM_COUNT>
0

> <PUBCHEM_COMPONENT_COUNT>
1

> <PUBCHEM_CACTVS_TAUTO_COUNT>
2

> <PUBCHEM_COORDINATE_TYPE>
1
5
255

> <PUBCHEM_BONDANNOTATIONS>
12  13  8
12  15  8
13  19  8
14  20  8
15  18  8
16  21  8
18  24  8
19  24  8
20  23  8
21  23  8
7  29  6
8  30  6
9  14  8
9  16  8

$$$$

