   Color/Form

     * White powder
     * Grey to beige granules

   from [1]HSDB

   Odor
        Odorless
   from [2]HSDB

   Boiling Point
        approximately 312 deg C
   from [3]HSDB

   Melting Point
        72.9 deg C
   from [4]HSDB

   Density/Specific Gravity
        1.36 g/cu cm at 21 deg C
   from [5]HSDB

   Octanol/Water Partition Coefficient
        log Kow = 4.5 at 25 deg C
   from [6]HSDB

   pH
        pH = 7.7 at 25 deg C
   from [7]HSDB

   Solubilities
        In water, 0.610 mg/L at 25 deg C
   from [8]HSDB

   Vapor Pressure
        2.5X10-8 mm Hg at 25 deg C
   from [9]HSDB

   Other Chemical/Physical Properties

     * Decomposition starting at 285 deg C
     * Henry's Law constant = 2.27X10-8 atm-cu m/mol at 25 deg C
     * Hydroxyl radical reaction rate constant = 7.04X10-12 cu cm/molecule
       sec at 25 deg C /Estimated/

   from [10]HSDB

   Computed Properties
   Molecular Weight                  408.37107 [g/mol]
   Molecular Formula                 C[20]H[19]F[3]N[2]O[4]
   XLogP3-AA                         4.9
   H-Bond Donor                      0
   H-Bond Acceptor                   9
   Rotatable Bond Count              8
   Tautomer Count                    2
   Exact Mass                        408.129692
   MonoIsotopic Mass                 408.129692
   Topological Polar Surface Area    69.5
   Heavy Atom Count                  29
   Formal Charge                     0
   Complexity                        607
   Isotope Atom Count                0
   Defined Atom Stereocenter Count   0
   Undefined Atom Stereocenter Count 0
   Defined Bond Stereocenter Count   2
   Undefined Bond Stereocenter Count 0
   Covalently-Bonded Unit Count      1
   Feature 3D Acceptor Count         3
   Feature 3D Ring Count             2
   Effective Rotor Count             9
   Conformer Sampling RMSD           1
   CID Conformer Count               [11]138

References

   1. http://toxnet.nlm.nih.gov/cgi-bin/sis/search/r?dbs+hsdb:@term+@rn+@rel+141517-21-7
   2. http://toxnet.nlm.nih.gov/cgi-bin/sis/search/r?dbs+hsdb:@term+@rn+@rel+141517-21-7
   3. http://toxnet.nlm.nih.gov/cgi-bin/sis/search/r?dbs+hsdb:@term+@rn+@rel+141517-21-7
   4. http://toxnet.nlm.nih.gov/cgi-bin/sis/search/r?dbs+hsdb:@term+@rn+@rel+141517-21-7
   5. http://toxnet.nlm.nih.gov/cgi-bin/sis/search/r?dbs+hsdb:@term+@rn+@rel+141517-21-7
   6. http://toxnet.nlm.nih.gov/cgi-bin/sis/search/r?dbs+hsdb:@term+@rn+@rel+141517-21-7
   7. http://toxnet.nlm.nih.gov/cgi-bin/sis/search/r?dbs+hsdb:@term+@rn+@rel+141517-21-7
   8. http://toxnet.nlm.nih.gov/cgi-bin/sis/search/r?dbs+hsdb:@term+@rn+@rel+141517-21-7
   9. http://toxnet.nlm.nih.gov/cgi-bin/sis/search/r?dbs+hsdb:@term+@rn+@rel+141517-21-7
  10. http://toxnet.nlm.nih.gov/cgi-bin/sis/search/r?dbs+hsdb:@term+@rn+@rel+141517-21-7
  11. http://pubchem.ncbi.nlm.nih.gov/vw3d/vw3d.cgi?cid=11664966
