13806
  -OEChem-07051213012D

 65 67  0     0  0  0  0  0  0999 V2000
    4.6732    0.0000    0.0000 Cl  0  5  0  0  0  0  0  0  0  0  0  0
    4.9261    4.5921    0.0000 O   0  0  0  0  0  0  0  0  0  0  0  0
    7.1190    9.2055    0.0000 O   0  0  0  0  0  0  0  0  0  0  0  0
    7.4197    7.4997    0.0000 O   0  0  0  0  0  0  0  0  0  0  0  0
    8.4562    4.5680    0.0000 N   0  3  0  0  0  0  0  0  0  0  0  0
    1.3960    4.5680    0.0000 N   0  0  0  0  0  0  0  0  0  0  0  0
    4.9261    6.5921    0.0000 C   0  0  0  0  0  0  0  0  0  0  0  0
    5.7921    6.0921    0.0000 C   0  0  0  0  0  0  0  0  0  0  0  0
    4.0601    6.0921    0.0000 C   0  0  0  0  0  0  0  0  0  0  0  0
    5.7921    5.0921    0.0000 C   0  0  0  0  0  0  0  0  0  0  0  0
    4.0601    5.0921    0.0000 C   0  0  0  0  0  0  0  0  0  0  0  0
    4.9261    7.5921    0.0000 C   0  0  0  0  0  0  0  0  0  0  0  0
    6.6861    6.6268    0.0000 C   0  0  0  0  0  0  0  0  0  0  0  0
    3.1661    6.6268    0.0000 C   0  0  0  0  0  0  0  0  0  0  0  0
    7.5921    6.1129    0.0000 C   0  0  0  0  0  0  0  0  0  0  0  0
    2.2601    6.1129    0.0000 C   0  0  0  0  0  0  0  0  0  0  0  0
    7.5921    5.0713    0.0000 C   0  0  0  0  0  0  0  0  0  0  0  0
    2.2601    5.0713    0.0000 C   0  0  0  0  0  0  0  0  0  0  0  0
    6.6861    4.5575    0.0000 C   0  0  0  0  0  0  0  0  0  0  0  0
    3.1661    4.5575    0.0000 C   0  0  0  0  0  0  0  0  0  0  0  0
    5.7921    8.0921    0.0000 C   0  0  0  0  0  0  0  0  0  0  0  0
    4.0601    8.0921    0.0000 C   0  0  0  0  0  0  0  0  0  0  0  0
    8.4562    6.6163    0.0000 C   0  0  0  0  0  0  0  0  0  0  0  0
    1.3960    6.6163    0.0000 C   0  0  0  0  0  0  0  0  0  0  0  0
    5.7921    9.0921    0.0000 C   0  0  0  0  0  0  0  0  0  0  0  0
    8.4524    3.5680    0.0000 C   0  0  0  0  0  0  0  0  0  0  0  0
    1.3998    3.5680    0.0000 C   0  0  0  0  0  0  0  0  0  0  0  0
    4.0601    9.0921    0.0000 C   0  0  0  0  0  0  0  0  0  0  0  0
    4.9261    9.5921    0.0000 C   0  0  0  0  0  0  0  0  0  0  0  0
    6.7769    8.2658    0.0000 C   0  0  0  0  0  0  0  0  0  0  0  0
    9.3165    3.0646    0.0000 C   0  0  0  0  0  0  0  0  0  0  0  0
    0.5357    3.0646    0.0000 C   0  0  0  0  0  0  0  0  0  0  0  0
    6.4762    9.9715    0.0000 C   0  0  0  0  0  0  0  0  0  0  0  0
    6.8182   10.9112    0.0000 C   0  0  0  0  0  0  0  0  0  0  0  0
    6.6789    7.2467    0.0000 H   0  0  0  0  0  0  0  0  0  0  0  0
    3.1733    7.2467    0.0000 H   0  0  0  0  0  0  0  0  0  0  0  0
    6.6789    3.9375    0.0000 H   0  0  0  0  0  0  0  0  0  0  0  0
    3.1733    3.9375    0.0000 H   0  0  0  0  0  0  0  0  0  0  0  0
    3.5231    7.7821    0.0000 H   0  0  0  0  0  0  0  0  0  0  0  0
    8.9944    4.8759    0.0000 H   0  0  0  0  0  0  0  0  0  0  0  0
    0.8578    4.8759    0.0000 H   0  0  0  0  0  0  0  0  0  0  0  0
    8.7683    6.0805    0.0000 H   0  0  0  0  0  0  0  0  0  0  0  0
    8.9920    6.9283    0.0000 H   0  0  0  0  0  0  0  0  0  0  0  0
    8.1442    7.1520    0.0000 H   0  0  0  0  0  0  0  0  0  0  0  0
    1.7080    7.1520    0.0000 H   0  0  0  0  0  0  0  0  0  0  0  0
    0.8602    6.9283    0.0000 H   0  0  0  0  0  0  0  0  0  0  0  0
    1.0839    6.0805    0.0000 H   0  0  0  0  0  0  0  0  0  0  0  0
    6.3291    9.4021    0.0000 H   0  0  0  0  0  0  0  0  0  0  0  0
    7.8422    3.6780    0.0000 H   0  0  0  0  0  0  0  0  0  0  0  0
    8.2381    2.9862    0.0000 H   0  0  0  0  0  0  0  0  0  0  0  0
    1.6141    2.9862    0.0000 H   0  0  0  0  0  0  0  0  0  0  0  0
    2.0100    3.6780    0.0000 H   0  0  0  0  0  0  0  0  0  0  0  0
    3.5231    9.4021    0.0000 H   0  0  0  0  0  0  0  0  0  0  0  0
    4.9261   10.2121    0.0000 H   0  0  0  0  0  0  0  0  0  0  0  0
    9.0044    2.5289    0.0000 H   0  0  0  0  0  0  0  0  0  0  0  0
    9.8522    2.7526    0.0000 H   0  0  0  0  0  0  0  0  0  0  0  0
    9.6285    3.6004    0.0000 H   0  0  0  0  0  0  0  0  0  0  0  0
    0.2237    3.6004    0.0000 H   0  0  0  0  0  0  0  0  0  0  0  0
    0.0000    2.7526    0.0000 H   0  0  0  0  0  0  0  0  0  0  0  0
    0.8478    2.5289    0.0000 H   0  0  0  0  0  0  0  0  0  0  0  0
    5.9392   10.2815    0.0000 H   0  0  0  0  0  0  0  0  0  0  0  0
    6.0776    9.4966    0.0000 H   0  0  0  0  0  0  0  0  0  0  0  0
    7.4008   10.6992    0.0000 H   0  0  0  0  0  0  0  0  0  0  0  0
    7.0302   11.4938    0.0000 H   0  0  0  0  0  0  0  0  0  0  0  0
    6.2356   11.1233    0.0000 H   0  0  0  0  0  0  0  0  0  0  0  0
  2 10  1  0  0  0  0
  2 11  1  0  0  0  0
  3 30  1  0  0  0  0
  3 33  1  0  0  0  0
  4 30  2  0  0  0  0
  5 17  2  0  0  0  0
  5 26  1  0  0  0  0
  5 40  1  0  0  0  0
  6 18  1  0  0  0  0
  6 27  1  0  0  0  0
  6 41  1  0  0  0  0
  7  8  2  0  0  0  0
  7  9  1  0  0  0  0
  7 12  1  0  0  0  0
  8 10  1  0  0  0  0
  8 13  1  0  0  0  0
  9 11  2  0  0  0  0
  9 14  1  0  0  0  0
 10 19  2  0  0  0  0
 11 20  1  0  0  0  0
 12 21  1  0  0  0  0
 12 22  2  0  0  0  0
 13 15  2  0  0  0  0
 13 35  1  0  0  0  0
 14 16  2  0  0  0  0
 14 36  1  0  0  0  0
 15 17  1  0  0  0  0
 15 23  1  0  0  0  0
 16 18  1  0  0  0  0
 16 24  1  0  0  0  0
 17 19  1  0  0  0  0
 18 20  2  0  0  0  0
 19 37  1  0  0  0  0
 20 38  1  0  0  0  0
 21 25  2  0  0  0  0
 21 30  1  0  0  0  0
 22 28  1  0  0  0  0
 22 39  1  0  0  0  0
 23 42  1  0  0  0  0
 23 43  1  0  0  0  0
 23 44  1  0  0  0  0
 24 45  1  0  0  0  0
 24 46  1  0  0  0  0
 24 47  1  0  0  0  0
 25 29  1  0  0  0  0
 25 48  1  0  0  0  0
 26 31  1  0  0  0  0
 26 49  1  0  0  0  0
 26 50  1  0  0  0  0
 27 32  1  0  0  0  0
 27 51  1  0  0  0  0
 27 52  1  0  0  0  0
 28 29  2  0  0  0  0
 28 53  1  0  0  0  0
 29 54  1  0  0  0  0
 31 55  1  0  0  0  0
 31 56  1  0  0  0  0
 31 57  1  0  0  0  0
 32 58  1  0  0  0  0
 32 59  1  0  0  0  0
 32 60  1  0  0  0  0
 33 34  1  0  0  0  0
 33 61  1  0  0  0  0
 33 62  1  0  0  0  0
 34 63  1  0  0  0  0
 34 64  1  0  0  0  0
 34 65  1  0  0  0  0
M  CHG  2   1  -1   5   1
M  END
> <PUBCHEM_COMPOUND_CID>
13806

> <PUBCHEM_COMPOUND_CANONICALIZED>
1

> <PUBCHEM_CACTVS_COMPLEXITY>
823

> <PUBCHEM_CACTVS_HBOND_ACCEPTOR>
5

> <PUBCHEM_CACTVS_HBOND_DONOR>
2

> <PUBCHEM_CACTVS_ROTATABLE_BOND>
7

> <PUBCHEM_CACTVS_SUBSKEYS>
AAADceB7MAAEAAAAAAAAAAAAAAAAAAAAAAAwYIEAAAAAAACBQAAAHgAQAAAADAzhmAYyzoLABACoAyTyTACCCAAlIgAIiIE+bNgMJjLEtZuGOSjm0BnI6YeY2POOqAACAgAaAABQAAQEADQAAAAAAAAAAA==

> <PUBCHEM_IUPAC_OPENEYE_NAME>
[9-(2-ethoxycarbonylphenyl)-6-(ethylamino)-2,7-dimethyl-xanthen-3-ylidene]-ethyl-ammonium chloride

> <PUBCHEM_IUPAC_CAS_NAME>
[9-(2-ethoxycarbonylphenyl)-6-(ethylamino)-2,7-dimethyl-3-xanthenylidene]-ethylammonium chloride

> <PUBCHEM_IUPAC_NAME>
[9-(2-ethoxycarbonylphenyl)-6-(ethylamino)-2,7-dimethylxanthen-3-ylidene]-ethylazanium chloride

> <PUBCHEM_IUPAC_SYSTEMATIC_NAME>
[9-(2-ethoxycarbonylphenyl)-6-(ethylamino)-2,7-dimethyl-xanthen-3-ylidene]-ethyl-azanium chloride

> <PUBCHEM_IUPAC_TRADITIONAL_NAME>
[9-(2-carbethoxyphenyl)-6-(ethylamino)-2,7-dimethyl-xanthen-3-ylidene]-ethyl-ammonium chloride

> <PUBCHEM_IUPAC_INCHI>
InChI=1S/C28H30N2O3.ClH/c1-6-29-23-15-25-21(13-17(23)4)27(19-11-9-10-12-20(19)28(31)32-8-3)22-14-18(5)24(30-7-2)16-26(22)33-25;/h9-16,29H,6-8H2,1-5H3;1H

> <PUBCHEM_IUPAC_INCHIKEY>
VYXSBFYARXAAKO-UHFFFAOYSA-N

> <PUBCHEM_EXACT_MASS>
478.202321

> <PUBCHEM_MOLECULAR_FORMULA>
C28H31ClN2O3

> <PUBCHEM_MOLECULAR_WEIGHT>
479.01034

> <PUBCHEM_OPENEYE_CAN_SMILES>
CCNC1=C(C=C2C(=C1)OC3=CC(=[NH+]CC)C(=CC3=C2C4=CC=CC=C4C(=O)OCC)C)C.[Cl-]

> <PUBCHEM_OPENEYE_ISO_SMILES>
CCNC1=C(C=C2C(=C1)OC3=CC(=[NH+]CC)C(=CC3=C2C4=CC=CC=C4C(=O)OCC)C)C.[Cl-]

> <PUBCHEM_CACTVS_TPSA>
61.5

> <PUBCHEM_MONOISOTOPIC_WEIGHT>
478.202321

> <PUBCHEM_TOTAL_CHARGE>
0

> <PUBCHEM_HEAVY_ATOM_COUNT>
34

> <PUBCHEM_ATOM_DEF_STEREO_COUNT>
0

> <PUBCHEM_ATOM_UDEF_STEREO_COUNT>
0

> <PUBCHEM_BOND_DEF_STEREO_COUNT>
0

> <PUBCHEM_BOND_UDEF_STEREO_COUNT>
0

> <PUBCHEM_ISOTOPIC_ATOM_COUNT>
0

> <PUBCHEM_COMPONENT_COUNT>
2

> <PUBCHEM_CACTVS_TAUTO_COUNT>
2

> <PUBCHEM_COORDINATE_TYPE>
1
5
255

> <PUBCHEM_BONDANNOTATIONS>
10  19  8
11  20  8
12  21  8
12  22  8
13  15  8
14  16  8
15  17  8
16  18  8
17  19  8
18  20  8
2  10  8
2  11  8
21  25  8
22  28  8
25  29  8
28  29  8
7  8  8
7  9  8
8  13  8
9  11  8
9  14  8

$$$$

