   Color/Form

     * Viscous yellowish brown semisolid mass.
     * Colorless crystals

   from [1]HSDB

   Boiling Point
        200 deg C @ 0.07 mm Hg
   from [2]HSDB

   Melting Point
        78-81 deg C
   from [3]HSDB

   Density/Specific Gravity
        1.28 g/ml @ 20 deg C
   from [4]HSDB

   Octanol/Water Partition Coefficient
        log Kow= 6.94
   from [5]HSDB

   Solubilities

     * In acetone 620, dichloromethane 550, cyclohexane 515, ethyl acetate
       440, chlorobenzene 420, acetophenone 390, o-xylene 350, hexane 7
       (all in g/l, 25 deg C). In maize oil 19-20, ethylene glycol <1
       (both in g/kg at 20 deg C).
     * Soluble in chloroform, methylene chloride, and toluene; slightly
       soluble in petroleum ether and methanol.
     * In water, 0.01 mg/l @ 25 deg C.

   from [6]HSDB

   Vapor Pressure
        1.73X10-5 mm Hg @ 20 deg C
   from [7]HSDB

   Other Chemical/Physical Properties
        White to pale powder; weak aromatic odor. /Technical grade/
   from [8]HSDB

   Computed Properties
   Molecular Weight                  416.29716 [g/mol]
   Molecular Formula                 C[22]H[19]Cl[2]NO[3]
   XLogP3                            6
   H-Bond Donor                      0
   H-Bond Acceptor                   4
   Rotatable Bond Count              7
   Exact Mass                        415.074199
   MonoIsotopic Mass                 415.074199
   Topological Polar Surface Area    59.3
   Heavy Atom Count                  28
   Formal Charge                     0
   Complexity                        643
   Isotope Atom Count                0
   Defined Atom Stereocenter Count   3
   Undefined Atom Stereocenter Count 0
   Defined Bond Stereocenter Count   0
   Undefined Bond Stereocenter Count 0
   Covalently-Bonded Unit Count      1
   Feature 3D Acceptor Count         3
   Feature 3D Hydrophobe Count       1
   Feature 3D Ring Count             2
   Effective Rotor Count             7.6
   Conformer Sampling RMSD           1
   CID Conformer Count               [9]476

References

   1. http://toxnet.nlm.nih.gov/cgi-bin/sis/search/r?dbs+hsdb:@term+@rn+@rel+67375-30-8
   2. http://toxnet.nlm.nih.gov/cgi-bin/sis/search/r?dbs+hsdb:@term+@rn+@rel+67375-30-8
   3. http://toxnet.nlm.nih.gov/cgi-bin/sis/search/r?dbs+hsdb:@term+@rn+@rel+67375-30-8
   4. http://toxnet.nlm.nih.gov/cgi-bin/sis/search/r?dbs+hsdb:@term+@rn+@rel+67375-30-8
   5. http://toxnet.nlm.nih.gov/cgi-bin/sis/search/r?dbs+hsdb:@term+@rn+@rel+67375-30-8
   6. http://toxnet.nlm.nih.gov/cgi-bin/sis/search/r?dbs+hsdb:@term+@rn+@rel+67375-30-8
   7. http://toxnet.nlm.nih.gov/cgi-bin/sis/search/r?dbs+hsdb:@term+@rn+@rel+67375-30-8
   8. http://toxnet.nlm.nih.gov/cgi-bin/sis/search/r?dbs+hsdb:@term+@rn+@rel+67375-30-8
   9. http://pubchem.ncbi.nlm.nih.gov/vw3d/vw3d.cgi?cid=3086172
