443676
  -OEChem-07051213022D

 43 46  0     1  0  0  0  0  0999 V2000
    5.1023   -1.7472    0.0000 O   0  0  0  0  0  0  0  0  0  0  0  0
    7.7792   -0.9017    0.0000 O   0  0  0  0  0  0  0  0  0  0  0  0
    8.9194   -1.8875    0.0000 O   0  0  0  0  0  0  0  0  0  0  0  0
    2.9614   -1.2892    0.0000 O   0  0  0  0  0  0  0  0  0  0  0  0
    6.7165    1.6048    0.0000 N   0  0  3  0  0  0  0  0  0  0  0  0
    6.2165   -0.5858    0.0000 C   0  0  1  0  0  0  0  0  0  0  0  0
    7.0427   -0.0225    0.0000 C   0  0  1  0  0  0  0  0  0  0  0  0
    7.1175   -0.1520    0.0000 C   0  0  2  0  0  0  0  0  0  0  0  0
    5.3155   -0.1520    0.0000 C   0  0  0  0  0  0  0  0  0  0  0  0
    7.9437   -0.4564    0.0000 C   0  0  0  0  0  0  0  0  0  0  0  0
    6.2912   -1.5831    0.0000 C   0  0  0  0  0  0  0  0  0  0  0  0
    7.3400    0.8230    0.0000 C   0  0  0  0  0  0  0  0  0  0  0  0
    4.6304   -0.8723    0.0000 C   0  0  0  0  0  0  0  0  0  0  0  0
    5.0930    0.8230    0.0000 C   0  0  0  0  0  0  0  0  0  0  0  0
    8.0184   -1.4536    0.0000 C   0  0  1  0  0  0  0  0  0  0  0  0
    5.7165    1.6048    0.0000 C   0  0  0  0  0  0  0  0  0  0  0  0
    7.1922   -2.0169    0.0000 C   0  0  0  0  0  0  0  0  0  0  0  0
    3.6804   -0.5941    0.0000 C   0  0  0  0  0  0  0  0  0  0  0  0
    4.1333    1.0659    0.0000 C   0  0  0  0  0  0  0  0  0  0  0  0
    3.4344    0.3648    0.0000 C   0  0  0  0  0  0  0  0  0  0  0  0
    7.1504    2.5058    0.0000 C   0  0  0  0  0  0  0  0  0  0  0  0
    2.0000   -1.0141    0.0000 C   0  0  0  0  0  0  0  0  0  0  0  0
    6.9830    0.7752    0.0000 H   0  0  0  0  0  0  0  0  0  0  0  0
    7.7183    0.0010    0.0000 H   0  0  0  0  0  0  0  0  0  0  0  0
    8.5606   -0.5181    0.0000 H   0  0  0  0  0  0  0  0  0  0  0  0
    8.1116    0.1404    0.0000 H   0  0  0  0  0  0  0  0  0  0  0  0
    5.7790   -1.9323    0.0000 H   0  0  0  0  0  0  0  0  0  0  0  0
    7.8986    0.5540    0.0000 H   0  0  0  0  0  0  0  0  0  0  0  0
    7.7266    1.3077    0.0000 H   0  0  0  0  0  0  0  0  0  0  0  0
    8.0648   -2.0719    0.0000 H   0  0  0  0  0  0  0  0  0  0  0  0
    5.1579    1.8738    0.0000 H   0  0  0  0  0  0  0  0  0  0  0  0
    5.8545    2.2093    0.0000 H   0  0  0  0  0  0  0  0  0  0  0  0
    7.2385   -2.6352    0.0000 H   0  0  0  0  0  0  0  0  0  0  0  0
    3.9683    1.6635    0.0000 H   0  0  0  0  0  0  0  0  0  0  0  0
    8.3990   -0.8863    0.0000 H   0  0  0  0  0  0  0  0  0  0  0  0
    2.8363    0.5280    0.0000 H   0  0  0  0  0  0  0  0  0  0  0  0
    7.7090    2.2368    0.0000 H   0  0  0  0  0  0  0  0  0  0  0  0
    7.4194    3.0644    0.0000 H   0  0  0  0  0  0  0  0  0  0  0  0
    6.5918    2.7748    0.0000 H   0  0  0  0  0  0  0  0  0  0  0  0
    8.9657   -2.5058    0.0000 H   0  0  0  0  0  0  0  0  0  0  0  0
    2.1706   -0.4180    0.0000 H   0  0  0  0  0  0  0  0  0  0  0  0
    1.4039   -0.8435    0.0000 H   0  0  0  0  0  0  0  0  0  0  0  0
    1.8294   -1.6102    0.0000 H   0  0  0  0  0  0  0  0  0  0  0  0
  1  7  1  0  0  0  0
  1 13  1  0  0  0  0
  8  2  1  6  0  0  0
  2 35  1  0  0  0  0
 15  3  1  6  0  0  0
  3 40  1  0  0  0  0
  4 18  1  0  0  0  0
  4 22  1  0  0  0  0
  5 12  1  0  0  0  0
  5 16  1  0  0  0  0
  5 21  1  0  0  0  0
  6  7  1  0  0  0  0
  6  8  1  0  0  0  0
  6  9  1  0  0  0  0
  6 11  1  6  0  0  0
  7 10  1  0  0  0  0
  7 23  1  6  0  0  0
  8 12  1  0  0  0  0
  8 24  1  0  0  0  0
  9 13  1  0  0  0  0
  9 14  2  0  0  0  0
 10 15  1  0  0  0  0
 10 25  1  0  0  0  0
 10 26  1  0  0  0  0
 11 17  2  0  0  0  0
 11 27  1  0  0  0  0
 12 28  1  0  0  0  0
 12 29  1  0  0  0  0
 13 18  2  0  0  0  0
 14 16  1  0  0  0  0
 14 19  1  0  0  0  0
 15 17  1  0  0  0  0
 15 30  1  0  0  0  0
 16 31  1  0  0  0  0
 16 32  1  0  0  0  0
 17 33  1  0  0  0  0
 18 20  1  0  0  0  0
 19 20  2  0  0  0  0
 19 34  1  0  0  0  0
 20 36  1  0  0  0  0
 21 37  1  0  0  0  0
 21 38  1  0  0  0  0
 21 39  1  0  0  0  0
 22 41  1  0  0  0  0
 22 42  1  0  0  0  0
 22 43  1  0  0  0  0
M  END
> <PUBCHEM_COMPOUND_CID>
443676

> <PUBCHEM_COMPOUND_CANONICALIZED>
1

> <PUBCHEM_CACTVS_COMPLEXITY>
470

> <PUBCHEM_CACTVS_HBOND_ACCEPTOR>
5

> <PUBCHEM_CACTVS_HBOND_DONOR>
2

> <PUBCHEM_CACTVS_ROTATABLE_BOND>
1

> <PUBCHEM_CACTVS_SUBSKEYS>
AAADceB6OAAAAAAAAAAAAAAAAAAAASAAAAAwQAAABYAAAEixAAAAHgAACAAADhThmAYyBoMABgCAAiBCAACCCAAgIAAIiAAOjIgPNiKEsRuGeCrlwBGauAfw8P4PoAABAAAYQABAAAIAADCAAAAAAAAAAA==

> <PUBCHEM_IUPAC_INCHI>
InChI=1S/C17H21NO4/c1-18-8-10-3-4-12(21-2)16-15(10)17(13(20)9-18)6-5-11(19)7-14(17)22-16/h3-6,11,13-14,19-20H,7-9H2,1-2H3/t11-,13+,14-,17-/m1/s1

> <PUBCHEM_IUPAC_INCHIKEY>
YLFKDWVECRVHGB-ABYLEIOUSA-N

> <PUBCHEM_XLOGP3_AA>
0.9

> <PUBCHEM_EXACT_MASS>
303.147058

> <PUBCHEM_MOLECULAR_FORMULA>
C17H21NO4

> <PUBCHEM_MOLECULAR_WEIGHT>
303.35294

> <PUBCHEM_OPENEYE_CAN_SMILES>
CN1CC(C23C=CC(CC2OC4=C(C=CC(=C34)C1)OC)O)O

> <PUBCHEM_OPENEYE_ISO_SMILES>
CN1C[C@@H]([C@]23C=C[C@H](C[C@H]2OC4=C(C=CC(=C34)C1)OC)O)O

> <PUBCHEM_CACTVS_TPSA>
62.2

> <PUBCHEM_MONOISOTOPIC_WEIGHT>
303.147058

> <PUBCHEM_TOTAL_CHARGE>
0

> <PUBCHEM_HEAVY_ATOM_COUNT>
22

> <PUBCHEM_ATOM_DEF_STEREO_COUNT>
4

> <PUBCHEM_ATOM_UDEF_STEREO_COUNT>
0

> <PUBCHEM_BOND_DEF_STEREO_COUNT>
0

> <PUBCHEM_BOND_UDEF_STEREO_COUNT>
0

> <PUBCHEM_ISOTOPIC_ATOM_COUNT>
0

> <PUBCHEM_COMPONENT_COUNT>
1

> <PUBCHEM_CACTVS_TAUTO_COUNT>
1

> <PUBCHEM_COORDINATE_TYPE>
1
5
255

> <PUBCHEM_BONDANNOTATIONS>
13  18  8
14  19  8
18  20  8
19  20  8
8  2  6
15  3  6
6  11  6
7  23  6
9  13  8
9  14  8

$$$$

