439591
  -OEChem-07051212462D

 66 74  0     1  0  0  0  0  0999 V2000
    3.7302   -1.9864    0.0000 O   0  0  0  0  0  0  0  0  0  0  0  0
    7.2532    2.0484    0.0000 O   0  0  0  0  0  0  0  0  0  0  0  0
    5.4063   -4.1018    0.0000 O   0  0  0  0  0  0  0  0  0  0  0  0
    5.4063    4.1018    0.0000 O   0  0  0  0  0  0  0  0  0  0  0  0
    2.7576   -1.1611    0.0000 O   0  0  0  0  0  0  0  0  0  0  0  0
    8.2320    1.1691    0.0000 O   0  0  0  0  0  0  0  0  0  0  0  0
    2.8546    2.4692    0.0000 O   0  0  0  0  0  0  0  0  0  0  0  0
    8.1212   -2.5451    0.0000 O   0  0  0  0  0  0  0  0  0  0  0  0
    2.0000    1.0091    0.0000 O   0  0  0  0  0  0  0  0  0  0  0  0
    8.9661   -0.9507    0.0000 O   0  0  0  0  0  0  0  0  0  0  0  0
    4.6032   -0.5000    0.0000 C   0  0  0  0  0  0  0  0  0  0  0  0
    6.3352    0.5000    0.0000 C   0  0  0  0  0  0  0  0  0  0  0  0
    5.4692   -1.0000    0.0000 C   0  0  0  0  0  0  0  0  0  0  0  0
    5.4692    1.0000    0.0000 C   0  0  0  0  0  0  0  0  0  0  0  0
    4.6032    0.5000    0.0000 C   0  0  0  0  0  0  0  0  0  0  0  0
    6.3352   -0.5000    0.0000 C   0  0  0  0  0  0  0  0  0  0  0  0
    3.7437   -0.9948    0.0000 C   0  0  2  0  0  0  0  0  0  0  0  0
    7.2452    1.0068    0.0000 C   0  0  2  0  0  0  0  0  0  0  0  0
    5.4531   -2.0415    0.0000 C   0  0  0  0  0  0  0  0  0  0  0  0
    5.4531    2.0415    0.0000 C   0  0  0  0  0  0  0  0  0  0  0  0
    4.5760   -2.5043    0.0000 C   0  0  1  0  0  0  0  0  0  0  0  0
    6.3511    2.5693    0.0000 C   0  0  1  0  0  0  0  0  0  0  0  0
    3.7437    0.9948    0.0000 C   0  0  0  0  0  0  0  0  0  0  0  0
    7.2452   -1.0068    0.0000 C   0  0  0  0  0  0  0  0  0  0  0  0
    6.3511   -2.5693    0.0000 C   0  0  0  0  0  0  0  0  0  0  0  0
    4.5760    2.5043    0.0000 C   0  0  0  0  0  0  0  0  0  0  0  0
    2.8555   -0.5104    0.0000 C   0  0  0  0  0  0  0  0  0  0  0  0
    8.0589    0.5128    0.0000 C   0  0  0  0  0  0  0  0  0  0  0  0
    4.5258   -3.5449    0.0000 C   0  0  1  0  0  0  0  0  0  0  0  0
    6.3251    3.6107    0.0000 C   0  0  1  0  0  0  0  0  0  0  0  0
    3.7302    1.9864    0.0000 C   0  0  0  0  0  0  0  0  0  0  0  0
    7.2532   -2.0484    0.0000 C   0  0  0  0  0  0  0  0  0  0  0  0
    6.3251   -3.6107    0.0000 C   0  0  1  0  0  0  0  0  0  0  0  0
    4.5258    3.5449    0.0000 C   0  0  1  0  0  0  0  0  0  0  0  0
    2.8612    0.5009    0.0000 C   0  0  0  0  0  0  0  0  0  0  0  0
    8.0845   -0.4786    0.0000 C   0  0  0  0  0  0  0  0  0  0  0  0
    3.6385   -4.0060    0.0000 C   0  0  0  0  0  0  0  0  0  0  0  0
    7.1763    4.1356    0.0000 C   0  0  0  0  0  0  0  0  0  0  0  0
    7.1763   -4.1356    0.0000 C   0  0  0  0  0  0  0  0  0  0  0  0
    3.6385    4.0060    0.0000 C   0  0  0  0  0  0  0  0  0  0  0  0
    3.8246   -2.9017    0.0000 H   0  0  0  0  0  0  0  0  0  0  0  0
    7.0819    3.0034    0.0000 H   0  0  0  0  0  0  0  0  0  0  0  0
    2.2445   -0.4053    0.0000 H   0  0  0  0  0  0  0  0  0  0  0  0
    2.6518   -1.0959    0.0000 H   0  0  0  0  0  0  0  0  0  0  0  0
    8.6705    0.4111    0.0000 H   0  0  0  0  0  0  0  0  0  0  0  0
    8.2745    1.0941    0.0000 H   0  0  0  0  0  0  0  0  0  0  0  0
    4.4996   -4.1643    0.0000 H   0  0  0  0  0  0  0  0  0  0  0  0
    6.3060    4.2304    0.0000 H   0  0  0  0  0  0  0  0  0  0  0  0
    6.3060   -4.2304    0.0000 H   0  0  0  0  0  0  0  0  0  0  0  0
    4.4996    4.1643    0.0000 H   0  0  0  0  0  0  0  0  0  0  0  0
    2.5413   -1.7422    0.0000 H   0  0  0  0  0  0  0  0  0  0  0  0
    8.4507    1.7492    0.0000 H   0  0  0  0  0  0  0  0  0  0  0  0
    3.3526   -3.4559    0.0000 H   0  0  0  0  0  0  0  0  0  0  0  0
    3.0884   -4.2919    0.0000 H   0  0  0  0  0  0  0  0  0  0  0  0
    3.9244   -4.5562    0.0000 H   0  0  0  0  0  0  0  0  0  0  0  0
    7.5017    3.6078    0.0000 H   0  0  0  0  0  0  0  0  0  0  0  0
    7.7040    4.4609    0.0000 H   0  0  0  0  0  0  0  0  0  0  0  0
    6.8509    4.6633    0.0000 H   0  0  0  0  0  0  0  0  0  0  0  0
    6.8509   -4.6633    0.0000 H   0  0  0  0  0  0  0  0  0  0  0  0
    7.7040   -4.4609    0.0000 H   0  0  0  0  0  0  0  0  0  0  0  0
    7.5017   -3.6078    0.0000 H   0  0  0  0  0  0  0  0  0  0  0  0
    3.9244    4.5562    0.0000 H   0  0  0  0  0  0  0  0  0  0  0  0
    3.0884    4.2919    0.0000 H   0  0  0  0  0  0  0  0  0  0  0  0
    3.3526    3.4559    0.0000 H   0  0  0  0  0  0  0  0  0  0  0  0
    2.8423    3.0891    0.0000 H   0  0  0  0  0  0  0  0  0  0  0  0
    8.1236   -3.1651    0.0000 H   0  0  0  0  0  0  0  0  0  0  0  0
  1 17  1  0  0  0  0
  1 21  1  0  0  0  0
  2 18  1  0  0  0  0
  2 22  1  0  0  0  0
  3 29  1  0  0  0  0
  3 33  1  0  0  0  0
  4 30  1  0  0  0  0
  4 34  1  0  0  0  0
 17  5  1  6  0  0  0
  5 51  1  0  0  0  0
 18  6  1  6  0  0  0
  6 52  1  0  0  0  0
  7 31  1  0  0  0  0
  7 65  1  0  0  0  0
  8 32  1  0  0  0  0
  8 66  1  0  0  0  0
  9 35  2  0  0  0  0
 10 36  2  0  0  0  0
 11 13  2  0  0  0  0
 11 15  1  0  0  0  0
 11 17  1  0  0  0  0
 12 14  1  0  0  0  0
 12 16  2  0  0  0  0
 12 18  1  0  0  0  0
 13 16  1  0  0  0  0
 13 19  1  0  0  0  0
 14 15  2  0  0  0  0
 14 20  1  0  0  0  0
 15 23  1  0  0  0  0
 16 24  1  0  0  0  0
 17 27  1  0  0  0  0
 18 28  1  0  0  0  0
 19 21  1  0  0  0  0
 19 25  2  0  0  0  0
 20 22  1  0  0  0  0
 20 26  2  0  0  0  0
 21 29  1  0  0  0  0
 21 41  1  6  0  0  0
 22 30  1  0  0  0  0
 22 42  1  6  0  0  0
 23 31  2  0  0  0  0
 23 35  1  0  0  0  0
 24 32  2  0  0  0  0
 24 36  1  0  0  0  0
 25 32  1  0  0  0  0
 25 33  1  0  0  0  0
 26 31  1  0  0  0  0
 26 34  1  0  0  0  0
 27 35  1  0  0  0  0
 27 43  1  0  0  0  0
 27 44  1  0  0  0  0
 28 36  1  0  0  0  0
 28 45  1  0  0  0  0
 28 46  1  0  0  0  0
 29 37  1  6  0  0  0
 29 47  1  0  0  0  0
 30 38  1  6  0  0  0
 30 48  1  0  0  0  0
 33 39  1  1  0  0  0
 33 49  1  0  0  0  0
 34 40  1  1  0  0  0
 34 50  1  0  0  0  0
 37 53  1  0  0  0  0
 37 54  1  0  0  0  0
 37 55  1  0  0  0  0
 38 56  1  0  0  0  0
 38 57  1  0  0  0  0
 38 58  1  0  0  0  0
 39 59  1  0  0  0  0
 39 60  1  0  0  0  0
 39 61  1  0  0  0  0
 40 62  1  0  0  0  0
 40 63  1  0  0  0  0
 40 64  1  0  0  0  0
M  END
> <PUBCHEM_COMPOUND_CID>
439591

> <PUBCHEM_COMPOUND_CANONICALIZED>
1

> <PUBCHEM_CACTVS_COMPLEXITY>
1100

> <PUBCHEM_CACTVS_HBOND_ACCEPTOR>
10

> <PUBCHEM_CACTVS_HBOND_DONOR>
4

> <PUBCHEM_CACTVS_ROTATABLE_BOND>
0

> <PUBCHEM_CACTVS_SUBSKEYS>
AAADceB4PAAAAAAAAAAAAAAAAAAAAAAAAAA0aNGjAAAAAADRUAAAGgAACAAADBSgmAICDsAABgCIAoBQAAACAAAkIAAAiAEECMgZJzaCNBqCcUAl4BEOuQfI7PzO4AADAAAYAADAAAYAADAAAAAAAAAAAA==

> <PUBCHEM_IUPAC_INCHI>
InChI=1S/C30H26O10/c1-7-13-21-19-17-15(25(13)33)11(31)5-30(36)24(17)20-18-16(26(34)14-8(2)38-10(4)28(40-30)22(14)20)12(32)6-29(35,23(18)19)39-27(21)9(3)37-7/h7-10,27-28,33-36H,5-6H2,1-4H3/t7-,8-,9-,10-,27-,28-,29+,30+/m1/s1

> <PUBCHEM_IUPAC_INCHIKEY>
HNUPXDLGAHSVEQ-YSPTYUJLSA-N

> <PUBCHEM_XLOGP3_AA>
1.4

> <PUBCHEM_EXACT_MASS>
546.152597

> <PUBCHEM_MOLECULAR_FORMULA>
C30H26O10

> <PUBCHEM_MOLECULAR_WEIGHT>
546.52144

> <PUBCHEM_OPENEYE_CAN_SMILES>
CC1C2C3=C(C(O1)C)C(=C4C(=O)CC5(C6=C7C8=C(C(OC(C8O5)C)C)C(=C9C7=C(C3=C46)C(O2)(CC9=O)O)O)O)O

> <PUBCHEM_OPENEYE_ISO_SMILES>
C[C@@H]1[C@@H]2C3=C([C@H](O1)C)C(=C4C(=O)C[C@]5(C6=C7C8=C([C@H](O[C@@H]([C@H]8O5)C)C)C(=C9C7=C(C3=C46)[C@@](O2)(CC9=O)O)O)O)O

> <PUBCHEM_CACTVS_TPSA>
152

> <PUBCHEM_MONOISOTOPIC_WEIGHT>
546.152597

> <PUBCHEM_TOTAL_CHARGE>
0

> <PUBCHEM_HEAVY_ATOM_COUNT>
40

> <PUBCHEM_ATOM_DEF_STEREO_COUNT>
8

> <PUBCHEM_ATOM_UDEF_STEREO_COUNT>
0

> <PUBCHEM_BOND_DEF_STEREO_COUNT>
0

> <PUBCHEM_BOND_UDEF_STEREO_COUNT>
0

> <PUBCHEM_ISOTOPIC_ATOM_COUNT>
0

> <PUBCHEM_COMPONENT_COUNT>
1

> <PUBCHEM_CACTVS_TAUTO_COUNT>
61

> <PUBCHEM_COORDINATE_TYPE>
1
5
255

> <PUBCHEM_BONDANNOTATIONS>
11  13  8
11  15  8
12  14  8
12  16  8
13  16  8
13  19  8
14  15  8
14  20  8
15  23  8
16  24  8
19  25  8
20  26  8
21  41  6
22  42  6
23  31  8
24  32  8
25  32  8
26  31  8
29  37  6
30  38  6
33  39  5
34  40  5
17  5  6
18  6  6

$$$$

