443077
  -OEChem-07051213012D

 66 70  0     1  0  0  0  0  0999 V2000
   10.9293    4.3132    0.0000 O   0  0  0  0  0  0  0  0  0  0  0  0
    4.2793    0.0056    0.0000 O   0  0  0  0  0  0  0  0  0  0  0  0
    4.2955    2.0972    0.0000 O   0  0  0  0  0  0  0  0  0  0  0  0
    5.1396   -1.4978    0.0000 O   0  0  0  0  0  0  0  0  0  0  0  0
    2.5434   -0.9878    0.0000 O   0  0  0  0  0  0  0  0  0  0  0  0
    2.5357   -2.9877    0.0000 O   0  0  0  0  0  0  0  0  0  0  0  0
    4.2639   -3.9944    0.0000 O   0  0  0  0  0  0  0  0  0  0  0  0
    5.9960   -4.0011    0.0000 O   0  0  0  0  0  0  0  0  0  0  0  0
    6.8678   -2.5044    0.0000 O   0  0  0  0  0  0  0  0  0  0  0  0
    9.6724    2.0579    0.0000 C   0  0  2  0  0  0  0  0  0  0  0  0
    9.6724    3.0579    0.0000 C   0  0  2  0  0  0  0  0  0  0  0  0
    8.8064    1.5579    0.0000 C   0  0  1  0  0  0  0  0  0  0  0  0
    7.9404    2.0579    0.0000 C   0  0  2  0  0  0  0  0  0  0  0  0
    8.8064    3.5579    0.0000 C   0  0  0  0  0  0  0  0  0  0  0  0
   10.6186    1.7532    0.0000 C   0  0  0  0  0  0  0  0  0  0  0  0
    7.9404    3.0579    0.0000 C   0  0  0  0  0  0  0  0  0  0  0  0
    8.8225    0.5164    0.0000 C   0  0  0  0  0  0  0  0  0  0  0  0
   10.6186    3.3626    0.0000 C   0  0  0  0  0  0  0  0  0  0  0  0
   11.2023    2.5579    0.0000 C   0  0  0  0  0  0  0  0  0  0  0  0
    7.0304    1.5510    0.0000 C   0  0  0  0  0  0  0  0  0  0  0  0
    9.6724    4.0579    0.0000 C   0  0  0  0  0  0  0  0  0  0  0  0
    7.9244   -0.0114    0.0000 C   0  0  0  0  0  0  0  0  0  0  0  0
    7.0223    0.5095    0.0000 C   0  0  0  0  0  0  0  0  0  0  0  0
    6.1035    2.1151    0.0000 C   0  0  0  0  0  0  0  0  0  0  0  0
    6.0869   -0.0403    0.0000 C   0  0  0  0  0  0  0  0  0  0  0  0
    5.1556    1.5872    0.0000 C   0  0  0  0  0  0  0  0  0  0  0  0
    5.1473    0.5022    0.0000 C   0  0  0  0  0  0  0  0  0  0  0  0
    4.2755   -0.9944    0.0000 C   0  0  2  0  0  0  0  0  0  0  0  0
    3.4075   -1.4911    0.0000 C   0  0  1  0  0  0  0  0  0  0  0  0
    3.4037   -2.4911    0.0000 C   0  0  2  0  0  0  0  0  0  0  0  0
    4.2678   -2.9944    0.0000 C   0  0  1  0  0  0  0  0  0  0  0  0
    5.1357   -2.4978    0.0000 C   0  0  1  0  0  0  0  0  0  0  0  0
    4.3070    3.0971    0.0000 C   0  0  0  0  0  0  0  0  0  0  0  0
    5.9998   -3.0011    0.0000 C   0  0  0  0  0  0  0  0  0  0  0  0
    9.7624    1.2127    0.0000 H   0  0  0  0  0  0  0  0  0  0  0  0
    9.5458    1.1386    0.0000 H   0  0  0  0  0  0  0  0  0  0  0  0
    8.6765    2.4829    0.0000 H   0  0  0  0  0  0  0  0  0  0  0  0
    9.2049    4.0328    0.0000 H   0  0  0  0  0  0  0  0  0  0  0  0
    8.4079    4.0328    0.0000 H   0  0  0  0  0  0  0  0  0  0  0  0
   10.3676    1.1863    0.0000 H   0  0  0  0  0  0  0  0  0  0  0  0
   11.1560    1.4439    0.0000 H   0  0  0  0  0  0  0  0  0  0  0  0
    7.7283    3.6405    0.0000 H   0  0  0  0  0  0  0  0  0  0  0  0
    7.3298    2.9502    0.0000 H   0  0  0  0  0  0  0  0  0  0  0  0
    9.0405   -0.0640    0.0000 H   0  0  0  0  0  0  0  0  0  0  0  0
    9.4316    0.6319    0.0000 H   0  0  0  0  0  0  0  0  0  0  0  0
   11.6631    2.1432    0.0000 H   0  0  0  0  0  0  0  0  0  0  0  0
   11.6631    2.9726    0.0000 H   0  0  0  0  0  0  0  0  0  0  0  0
   10.2924    4.0579    0.0000 H   0  0  0  0  0  0  0  0  0  0  0  0
    9.6724    4.6779    0.0000 H   0  0  0  0  0  0  0  0  0  0  0  0
    9.0524    4.0579    0.0000 H   0  0  0  0  0  0  0  0  0  0  0  0
    7.5271   -0.4873    0.0000 H   0  0  0  0  0  0  0  0  0  0  0  0
    8.3254   -0.4843    0.0000 H   0  0  0  0  0  0  0  0  0  0  0  0
    6.1155    2.7350    0.0000 H   0  0  0  0  0  0  0  0  0  0  0  0
    6.0893   -0.6603    0.0000 H   0  0  0  0  0  0  0  0  0  0  0  0
    3.7398   -0.6824    0.0000 H   0  0  0  0  0  0  0  0  0  0  0  0
    2.8694   -1.7990    0.0000 H   0  0  0  0  0  0  0  0  0  0  0  0
    2.8680   -2.1790    0.0000 H   0  0  0  0  0  0  0  0  0  0  0  0
    3.7296   -3.3023    0.0000 H   0  0  0  0  0  0  0  0  0  0  0  0
    5.6738   -2.1898    0.0000 H   0  0  0  0  0  0  0  0  0  0  0  0
    4.9270    3.0899    0.0000 H   0  0  0  0  0  0  0  0  0  0  0  0
    4.3142    3.7171    0.0000 H   0  0  0  0  0  0  0  0  0  0  0  0
    3.6871    3.1043    0.0000 H   0  0  0  0  0  0  0  0  0  0  0  0
    2.5458   -0.3678    0.0000 H   0  0  0  0  0  0  0  0  0  0  0  0
    2.0000   -2.6757    0.0000 H   0  0  0  0  0  0  0  0  0  0  0  0
    3.7258   -4.3023    0.0000 H   0  0  0  0  0  0  0  0  0  0  0  0
    6.5317   -4.3132    0.0000 H   0  0  0  0  0  0  0  0  0  0  0  0
  1 18  2  0  0  0  0
  2 27  1  0  0  0  0
 28  2  1  6  0  0  0
  3 26  1  0  0  0  0
  3 33  1  0  0  0  0
  4 28  1  0  0  0  0
  4 32  1  0  0  0  0
 29  5  1  1  0  0  0
  5 63  1  0  0  0  0
 30  6  1  6  0  0  0
  6 64  1  0  0  0  0
 31  7  1  1  0  0  0
  7 65  1  0  0  0  0
  8 34  1  0  0  0  0
  8 66  1  0  0  0  0
  9 34  2  0  0  0  0
 10 11  1  0  0  0  0
 10 12  1  0  0  0  0
 10 15  1  0  0  0  0
 10 35  1  6  0  0  0
 11 14  1  0  0  0  0
 11 18  1  0  0  0  0
 11 21  1  1  0  0  0
 12 13  1  0  0  0  0
 12 17  1  0  0  0  0
 12 36  1  1  0  0  0
 13 16  1  0  0  0  0
 13 20  1  0  0  0  0
 13 37  1  6  0  0  0
 14 16  1  0  0  0  0
 14 38  1  0  0  0  0
 14 39  1  0  0  0  0
 15 19  1  0  0  0  0
 15 40  1  0  0  0  0
 15 41  1  0  0  0  0
 16 42  1  0  0  0  0
 16 43  1  0  0  0  0
 17 22  1  0  0  0  0
 17 44  1  0  0  0  0
 17 45  1  0  0  0  0
 18 19  1  0  0  0  0
 19 46  1  0  0  0  0
 19 47  1  0  0  0  0
 20 23  1  0  0  0  0
 20 24  2  0  0  0  0
 21 48  1  0  0  0  0
 21 49  1  0  0  0  0
 21 50  1  0  0  0  0
 22 23  1  0  0  0  0
 22 51  1  0  0  0  0
 22 52  1  0  0  0  0
 23 25  2  0  0  0  0
 24 26  1  0  0  0  0
 24 53  1  0  0  0  0
 25 27  1  0  0  0  0
 25 54  1  0  0  0  0
 26 27  2  0  0  0  0
 28 29  1  0  0  0  0
 28 55  1  0  0  0  0
 29 30  1  0  0  0  0
 29 56  1  0  0  0  0
 30 31  1  0  0  0  0
 30 57  1  0  0  0  0
 31 32  1  0  0  0  0
 31 58  1  0  0  0  0
 32 34  1  6  0  0  0
 32 59  1  0  0  0  0
 33 60  1  0  0  0  0
 33 61  1  0  0  0  0
 33 62  1  0  0  0  0
M  END
> <PUBCHEM_COMPOUND_CID>
443077

> <PUBCHEM_COMPOUND_CANONICALIZED>
1

> <PUBCHEM_CACTVS_COMPLEXITY>
803

> <PUBCHEM_CACTVS_HBOND_ACCEPTOR>
9

> <PUBCHEM_CACTVS_HBOND_DONOR>
4

> <PUBCHEM_CACTVS_ROTATABLE_BOND>
4

> <PUBCHEM_CACTVS_SUBSKEYS>
AAADcfB4PAAAAAAAAAAAAAAAAAAAAYAAAAA0YMEAAAAAAGDBAAAAGgAACAAADxSwmAMyDoAABgCIAqDSCAICCAAgIAAAiAFGiIgdNjaEMR6ieCKl4BEPqAfK7PzPoAABAAAQQADAAAYAACCAAAAACAAAAA==

> <PUBCHEM_IUPAC_OPENEYE_NAME>
(2S,3S,4S,5R,6S)-3,4,5-trihydroxy-6-[[(8R,9S,13S,14S)-2-methoxy-13-methyl-17-oxo-7,8,9,11,12,14,15,16-octahydro-6H-cyclopenta[a]phenanthren-3-yl]oxy]tetrahydropyran-2-carboxylic acid

> <PUBCHEM_IUPAC_CAS_NAME>
(2S,3S,4S,5R,6S)-3,4,5-trihydroxy-6-[[(8R,9S,13S,14S)-2-methoxy-13-methyl-17-oxo-7,8,9,11,12,14,15,16-octahydro-6H-cyclopenta[a]phenanthren-3-yl]oxy]-2-oxanecarboxylic acid

> <PUBCHEM_IUPAC_NAME>
(2S,3S,4S,5R,6S)-3,4,5-trihydroxy-6-[[(8R,9S,13S,14S)-2-methoxy-13-methyl-17-oxo-7,8,9,11,12,14,15,16-octahydro-6H-cyclopenta[a]phenanthren-3-yl]oxy]oxane-2-carboxylic acid

> <PUBCHEM_IUPAC_SYSTEMATIC_NAME>
(2S,3S,4S,5R,6S)-6-[[(8R,9S,13S,14S)-2-methoxy-13-methyl-17-oxidanylidene-7,8,9,11,12,14,15,16-octahydro-6H-cyclopenta[a]phenanthren-3-yl]oxy]-3,4,5-tris(oxidanyl)oxane-2-carboxylic acid

> <PUBCHEM_IUPAC_TRADITIONAL_NAME>
(2S,3S,4S,5R,6S)-3,4,5-trihydroxy-6-[[(8R,9S,13S,14S)-17-keto-2-methoxy-13-methyl-7,8,9,11,12,14,15,16-octahydro-6H-cyclopenta[a]phenanthren-3-yl]oxy]tetrahydropyran-2-carboxylic acid

> <PUBCHEM_IUPAC_INCHI>
InChI=1S/C25H32O9/c1-25-8-7-12-13(15(25)5-6-18(25)26)4-3-11-9-17(16(32-2)10-14(11)12)33-24-21(29)19(27)20(28)22(34-24)23(30)31/h9-10,12-13,15,19-22,24,27-29H,3-8H2,1-2H3,(H,30,31)/t12-,13+,15-,19-,20-,21+,22-,24+,25-/m0/s1

> <PUBCHEM_IUPAC_INCHIKEY>
NZTHZDNDYACBSX-FJNWEKAQSA-N

> <PUBCHEM_XLOGP3_AA>
2

> <PUBCHEM_EXACT_MASS>
476.204633

> <PUBCHEM_MOLECULAR_FORMULA>
C25H32O9

> <PUBCHEM_MOLECULAR_WEIGHT>
476.51618

> <PUBCHEM_OPENEYE_CAN_SMILES>
CC12CCC3C(C1CCC2=O)CCC4=CC(=C(C=C34)OC)OC5C(C(C(C(O5)C(=O)O)O)O)O

> <PUBCHEM_OPENEYE_ISO_SMILES>
C[C@]12CC[C@H]3[C@H]([C@@H]1CCC2=O)CCC4=CC(=C(C=C34)OC)O[C@H]5[C@@H]([C@H]([C@@H]([C@H](O5)C(=O)O)O)O)O

> <PUBCHEM_CACTVS_TPSA>
143

> <PUBCHEM_MONOISOTOPIC_WEIGHT>
476.204633

> <PUBCHEM_TOTAL_CHARGE>
0

> <PUBCHEM_HEAVY_ATOM_COUNT>
34

> <PUBCHEM_ATOM_DEF_STEREO_COUNT>
9

> <PUBCHEM_ATOM_UDEF_STEREO_COUNT>
0

> <PUBCHEM_BOND_DEF_STEREO_COUNT>
0

> <PUBCHEM_BOND_UDEF_STEREO_COUNT>
0

> <PUBCHEM_ISOTOPIC_ATOM_COUNT>
0

> <PUBCHEM_COMPONENT_COUNT>
1

> <PUBCHEM_CACTVS_TAUTO_COUNT>
2

> <PUBCHEM_COORDINATE_TYPE>
1
5
255

> <PUBCHEM_BONDANNOTATIONS>
10  35  6
11  21  5
12  36  5
13  37  6
28  2  6
20  23  8
20  24  8
23  25  8
24  26  8
25  27  8
26  27  8
32  34  6
29  5  5
30  6  6
31  7  5

$$$$

