68077
  -OEChem-07051212592D

 47 49  0     0  0  0  0  0  0999 V2000
    6.3580    1.0176    0.0000 O   0  0  0  0  0  0  0  0  0  0  0  0
    4.5981   -2.0171    0.0000 O   0  0  0  0  0  0  0  0  0  0  0  0
    4.5981    1.9829    0.0000 O   0  0  0  0  0  0  0  0  0  0  0  0
    2.8660   -1.0171    0.0000 O   0  0  0  0  0  0  0  0  0  0  0  0
    2.8660    0.9829    0.0000 O   0  0  0  0  0  0  0  0  0  0  0  0
    6.3465   -2.0517    0.0000 O   0  0  0  0  0  0  0  0  0  0  0  0
   10.7205    2.5171    0.0000 O   0  0  0  0  0  0  0  0  0  0  0  0
    5.4641   -0.5171    0.0000 C   0  0  0  0  0  0  0  0  0  0  0  0
    5.4641    0.4829    0.0000 C   0  0  0  0  0  0  0  0  0  0  0  0
    4.5981   -1.0171    0.0000 C   0  0  0  0  0  0  0  0  0  0  0  0
    4.5981    0.9829    0.0000 C   0  0  0  0  0  0  0  0  0  0  0  0
    3.7320   -0.5171    0.0000 C   0  0  0  0  0  0  0  0  0  0  0  0
    3.7320    0.4829    0.0000 C   0  0  0  0  0  0  0  0  0  0  0  0
    7.2641    0.5037    0.0000 C   0  0  0  0  0  0  0  0  0  0  0  0
    6.3580   -1.0517    0.0000 C   0  0  0  0  0  0  0  0  0  0  0  0
    7.2641   -0.5379    0.0000 C   0  0  0  0  0  0  0  0  0  0  0  0
    8.1282    1.0071    0.0000 C   0  0  0  0  0  0  0  0  0  0  0  0
    8.9962    0.5104    0.0000 C   0  0  0  0  0  0  0  0  0  0  0  0
    8.1244    2.0071    0.0000 C   0  0  0  0  0  0  0  0  0  0  0  0
    9.8602    1.0138    0.0000 C   0  0  0  0  0  0  0  0  0  0  0  0
    8.9884    2.5104    0.0000 C   0  0  0  0  0  0  0  0  0  0  0  0
    9.8564    2.0137    0.0000 C   0  0  0  0  0  0  0  0  0  0  0  0
    3.7320   -2.5171    0.0000 C   0  0  0  0  0  0  0  0  0  0  0  0
    3.7320    2.4829    0.0000 C   0  0  0  0  0  0  0  0  0  0  0  0
    2.0000   -0.5171    0.0000 C   0  0  0  0  0  0  0  0  0  0  0  0
    2.0000    0.4829    0.0000 C   0  0  0  0  0  0  0  0  0  0  0  0
   11.5884    2.0204    0.0000 C   0  0  0  0  0  0  0  0  0  0  0  0
    7.7998   -0.8500    0.0000 H   0  0  0  0  0  0  0  0  0  0  0  0
    8.9985   -0.1096    0.0000 H   0  0  0  0  0  0  0  0  0  0  0  0
    7.5862    2.3150    0.0000 H   0  0  0  0  0  0  0  0  0  0  0  0
   10.3984    0.7058    0.0000 H   0  0  0  0  0  0  0  0  0  0  0  0
    8.9860    3.1304    0.0000 H   0  0  0  0  0  0  0  0  0  0  0  0
    3.4220   -1.9801    0.0000 H   0  0  0  0  0  0  0  0  0  0  0  0
    3.1951   -2.8271    0.0000 H   0  0  0  0  0  0  0  0  0  0  0  0
    4.0420   -3.0540    0.0000 H   0  0  0  0  0  0  0  0  0  0  0  0
    4.0420    3.0199    0.0000 H   0  0  0  0  0  0  0  0  0  0  0  0
    3.1951    2.7929    0.0000 H   0  0  0  0  0  0  0  0  0  0  0  0
    3.4220    1.9460    0.0000 H   0  0  0  0  0  0  0  0  0  0  0  0
    2.3100    0.0199    0.0000 H   0  0  0  0  0  0  0  0  0  0  0  0
    1.4631   -0.2071    0.0000 H   0  0  0  0  0  0  0  0  0  0  0  0
    1.6900   -1.0540    0.0000 H   0  0  0  0  0  0  0  0  0  0  0  0
    1.6900    1.0199    0.0000 H   0  0  0  0  0  0  0  0  0  0  0  0
    1.4631    0.1729    0.0000 H   0  0  0  0  0  0  0  0  0  0  0  0
    2.3100   -0.0540    0.0000 H   0  0  0  0  0  0  0  0  0  0  0  0
   11.2805    1.4823    0.0000 H   0  0  0  0  0  0  0  0  0  0  0  0
   12.1266    1.7125    0.0000 H   0  0  0  0  0  0  0  0  0  0  0  0
   11.8964    2.5586    0.0000 H   0  0  0  0  0  0  0  0  0  0  0  0
  1  9  1  0  0  0  0
  1 14  1  0  0  0  0
  2 10  1  0  0  0  0
  2 23  1  0  0  0  0
  3 11  1  0  0  0  0
  3 24  1  0  0  0  0
  4 12  1  0  0  0  0
  4 25  1  0  0  0  0
  5 13  1  0  0  0  0
  5 26  1  0  0  0  0
  6 15  2  0  0  0  0
  7 22  1  0  0  0  0
  7 27  1  0  0  0  0
  8  9  2  0  0  0  0
  8 10  1  0  0  0  0
  8 15  1  0  0  0  0
  9 11  1  0  0  0  0
 10 12  2  0  0  0  0
 11 13  2  0  0  0  0
 12 13  1  0  0  0  0
 14 16  2  0  0  0  0
 14 17  1  0  0  0  0
 15 16  1  0  0  0  0
 16 28  1  0  0  0  0
 17 18  2  0  0  0  0
 17 19  1  0  0  0  0
 18 20  1  0  0  0  0
 18 29  1  0  0  0  0
 19 21  2  0  0  0  0
 19 30  1  0  0  0  0
 20 22  2  0  0  0  0
 20 31  1  0  0  0  0
 21 22  1  0  0  0  0
 21 32  1  0  0  0  0
 23 33  1  0  0  0  0
 23 34  1  0  0  0  0
 23 35  1  0  0  0  0
 24 36  1  0  0  0  0
 24 37  1  0  0  0  0
 24 38  1  0  0  0  0
 25 39  1  0  0  0  0
 25 40  1  0  0  0  0
 25 41  1  0  0  0  0
 26 42  1  0  0  0  0
 26 43  1  0  0  0  0
 26 44  1  0  0  0  0
 27 45  1  0  0  0  0
 27 46  1  0  0  0  0
 27 47  1  0  0  0  0
M  END
> <PUBCHEM_COMPOUND_CID>
68077

> <PUBCHEM_COMPOUND_CANONICALIZED>
1

> <PUBCHEM_CACTVS_COMPLEXITY>
540

> <PUBCHEM_CACTVS_HBOND_ACCEPTOR>
7

> <PUBCHEM_CACTVS_HBOND_DONOR>
0

> <PUBCHEM_CACTVS_ROTATABLE_BOND>
6

> <PUBCHEM_CACTVS_SUBSKEYS>
AAADceB4OAAAAAAAAAAAAAAAAAAAAAAAAAAwYIAAAAAAAACBQAAAGgAAAAAADASAmAIyBoAABACIAqBSAAACCAAkIAAIiAEGiMgNJzaENRqCOWKl4BUKqQfK7LzOIQABCAAIQABCAAIQABCAAAAAAAAAAA==

> <PUBCHEM_IUPAC_OPENEYE_NAME>
5,6,7,8-tetramethoxy-2-(4-methoxyphenyl)chromen-4-one

> <PUBCHEM_IUPAC_CAS_NAME>
5,6,7,8-tetramethoxy-2-(4-methoxyphenyl)-1-benzopyran-4-one

> <PUBCHEM_IUPAC_NAME>
5,6,7,8-tetramethoxy-2-(4-methoxyphenyl)chromen-4-one

> <PUBCHEM_IUPAC_SYSTEMATIC_NAME>
5,6,7,8-tetramethoxy-2-(4-methoxyphenyl)chromen-4-one

> <PUBCHEM_IUPAC_TRADITIONAL_NAME>
5,6,7,8-tetramethoxy-2-(4-methoxyphenyl)chromone

> <PUBCHEM_IUPAC_INCHI>
InChI=1S/C20H20O7/c1-22-12-8-6-11(7-9-12)14-10-13(21)15-16(23-2)18(24-3)20(26-5)19(25-4)17(15)27-14/h6-10H,1-5H3

> <PUBCHEM_IUPAC_INCHIKEY>
ULSUXBXHSYSGDT-UHFFFAOYSA-N

> <PUBCHEM_XLOGP3_AA>
3

> <PUBCHEM_EXACT_MASS>
372.120903

> <PUBCHEM_MOLECULAR_FORMULA>
C20H20O7

> <PUBCHEM_MOLECULAR_WEIGHT>
372.3686

> <PUBCHEM_OPENEYE_CAN_SMILES>
COC1=CC=C(C=C1)C2=CC(=O)C3=C(O2)C(=C(C(=C3OC)OC)OC)OC

> <PUBCHEM_OPENEYE_ISO_SMILES>
COC1=CC=C(C=C1)C2=CC(=O)C3=C(O2)C(=C(C(=C3OC)OC)OC)OC

> <PUBCHEM_CACTVS_TPSA>
72.4

> <PUBCHEM_MONOISOTOPIC_WEIGHT>
372.120903

> <PUBCHEM_TOTAL_CHARGE>
0

> <PUBCHEM_HEAVY_ATOM_COUNT>
27

> <PUBCHEM_ATOM_DEF_STEREO_COUNT>
0

> <PUBCHEM_ATOM_UDEF_STEREO_COUNT>
0

> <PUBCHEM_BOND_DEF_STEREO_COUNT>
0

> <PUBCHEM_BOND_UDEF_STEREO_COUNT>
0

> <PUBCHEM_ISOTOPIC_ATOM_COUNT>
0

> <PUBCHEM_COMPONENT_COUNT>
1

> <PUBCHEM_CACTVS_TAUTO_COUNT>
1

> <PUBCHEM_COORDINATE_TYPE>
1
5
255

> <PUBCHEM_BONDANNOTATIONS>
1  14  8
1  9  8
10  12  8
11  13  8
12  13  8
14  16  8
15  16  8
17  18  8
17  19  8
18  20  8
19  21  8
20  22  8
21  22  8
8  10  8
8  15  8
8  9  8
9  11  8

$$$$

