439646
  -OEChem-07051212462D

 42 42  0     1  0  0  0  0  0999 V2000
    5.5981    0.1900    0.0000 Cl  0  0  0  0  0  0  0  0  0  0  0  0
    3.0000   -1.3100    0.0000 S   0  0  0  0  0  0  0  0  0  0  0  0
    4.0000   -1.3100    0.0000 O   0  0  0  0  0  0  0  0  0  0  0  0
    2.0000   -1.3100    0.0000 O   0  0  0  0  0  0  0  0  0  0  0  0
    3.0000   -0.3100    0.0000 N   0  0  0  0  0  0  0  0  0  0  0  0
    5.5981    3.1900    0.0000 N   0  0  0  0  0  0  0  0  0  0  0  0
    6.4641    4.6900    0.0000 N   0  0  0  0  0  0  0  0  0  0  0  0
    4.7320    4.6900    0.0000 N   0  0  0  0  0  0  0  0  0  0  0  0
    3.8660    0.1900    0.0000 C   0  0  1  0  0  0  0  0  0  0  0  0
    3.8660    1.1900    0.0000 C   0  0  0  0  0  0  0  0  0  0  0  0
    4.7320    1.6900    0.0000 C   0  0  0  0  0  0  0  0  0  0  0  0
    4.7320   -0.3100    0.0000 C   0  0  0  0  0  0  0  0  0  0  0  0
    4.7320    2.6900    0.0000 C   0  0  0  0  0  0  0  0  0  0  0  0
    3.0000   -2.3100    0.0000 C   0  0  0  0  0  0  0  0  0  0  0  0
    2.1340   -2.8100    0.0000 C   0  0  0  0  0  0  0  0  0  0  0  0
    3.8660   -2.8100    0.0000 C   0  0  0  0  0  0  0  0  0  0  0  0
    3.0000   -4.3100    0.0000 C   0  0  0  0  0  0  0  0  0  0  0  0
    2.1340   -3.8100    0.0000 C   0  0  0  0  0  0  0  0  0  0  0  0
    3.8660   -3.8100    0.0000 C   0  0  0  0  0  0  0  0  0  0  0  0
    3.0000   -5.3100    0.0000 C   0  0  0  0  0  0  0  0  0  0  0  0
    5.5981    4.1900    0.0000 C   0  0  0  0  0  0  0  0  0  0  0  0
    3.8660   -0.4300    0.0000 H   0  0  0  0  0  0  0  0  0  0  0  0
    3.6540    1.7726    0.0000 H   0  0  0  0  0  0  0  0  0  0  0  0
    3.2554    1.0823    0.0000 H   0  0  0  0  0  0  0  0  0  0  0  0
    4.9441    1.1074    0.0000 H   0  0  0  0  0  0  0  0  0  0  0  0
    5.3426    1.7977    0.0000 H   0  0  0  0  0  0  0  0  0  0  0  0
    2.4631    0.0000    0.0000 H   0  0  0  0  0  0  0  0  0  0  0  0
    4.3335   -0.7849    0.0000 H   0  0  0  0  0  0  0  0  0  0  0  0
    5.1306   -0.7849    0.0000 H   0  0  0  0  0  0  0  0  0  0  0  0
    4.5200    3.2726    0.0000 H   0  0  0  0  0  0  0  0  0  0  0  0
    4.1215    2.5823    0.0000 H   0  0  0  0  0  0  0  0  0  0  0  0
    1.5970   -2.5000    0.0000 H   0  0  0  0  0  0  0  0  0  0  0  0
    4.4030   -2.5000    0.0000 H   0  0  0  0  0  0  0  0  0  0  0  0
    1.5970   -4.1200    0.0000 H   0  0  0  0  0  0  0  0  0  0  0  0
    4.4030   -4.1200    0.0000 H   0  0  0  0  0  0  0  0  0  0  0  0
    2.3800   -5.3100    0.0000 H   0  0  0  0  0  0  0  0  0  0  0  0
    3.0000   -5.9300    0.0000 H   0  0  0  0  0  0  0  0  0  0  0  0
    3.6200   -5.3100    0.0000 H   0  0  0  0  0  0  0  0  0  0  0  0
    6.4641    5.3100    0.0000 H   0  0  0  0  0  0  0  0  0  0  0  0
    7.0010    4.3800    0.0000 H   0  0  0  0  0  0  0  0  0  0  0  0
    4.7320    5.3100    0.0000 H   0  0  0  0  0  0  0  0  0  0  0  0
    4.1951    4.3800    0.0000 H   0  0  0  0  0  0  0  0  0  0  0  0
  1 12  1  0  0  0  0
  2  3  2  0  0  0  0
  2  4  2  0  0  0  0
  2  5  1  0  0  0  0
  2 14  1  0  0  0  0
  9  5  1  1  0  0  0
  5 27  1  0  0  0  0
  6 13  1  0  0  0  0
  6 21  2  0  0  0  0
  7 21  1  0  0  0  0
  7 39  1  0  0  0  0
  7 40  1  0  0  0  0
  8 21  1  0  0  0  0
  8 41  1  0  0  0  0
  8 42  1  0  0  0  0
  9 10  1  0  0  0  0
  9 12  1  0  0  0  0
  9 22  1  0  0  0  0
 10 11  1  0  0  0  0
 10 23  1  0  0  0  0
 10 24  1  0  0  0  0
 11 13  1  0  0  0  0
 11 25  1  0  0  0  0
 11 26  1  0  0  0  0
 12 28  1  0  0  0  0
 12 29  1  0  0  0  0
 13 30  1  0  0  0  0
 13 31  1  0  0  0  0
 14 15  2  0  0  0  0
 14 16  1  0  0  0  0
 15 18  1  0  0  0  0
 15 32  1  0  0  0  0
 16 19  2  0  0  0  0
 16 33  1  0  0  0  0
 17 18  2  0  0  0  0
 17 19  1  0  0  0  0
 17 20  1  0  0  0  0
 18 34  1  0  0  0  0
 19 35  1  0  0  0  0
 20 36  1  0  0  0  0
 20 37  1  0  0  0  0
 20 38  1  0  0  0  0
M  END
> <PUBCHEM_COMPOUND_CID>
439646

> <PUBCHEM_COMPOUND_CANONICALIZED>
1

> <PUBCHEM_CACTVS_COMPLEXITY>
424

> <PUBCHEM_CACTVS_HBOND_ACCEPTOR>
4

> <PUBCHEM_CACTVS_HBOND_DONOR>
3

> <PUBCHEM_CACTVS_ROTATABLE_BOND>
8

> <PUBCHEM_CACTVS_SUBSKEYS>
AAADceBzsABEAAAAAAAAAAAAAAAAAAAAAAAwAAAAAAAAAAABAAAAHAYQQAAADCvBWEQzAYJAAAKgAiBCJHBCABEgAAAIiJgAAogIICKBkRCAIAAgkAAIiAcQgAAOEAAAAAAAAAAgAAAAAAAAAAAAAAAAAA==

> <PUBCHEM_IUPAC_OPENEYE_NAME>
2-[(4S)-5-chloro-4-(p-tolylsulfonylamino)pentyl]guanidine

> <PUBCHEM_IUPAC_CAS_NAME>
2-[(4S)-5-chloro-4-[(4-methylphenyl)sulfonylamino]pentyl]guanidine

> <PUBCHEM_IUPAC_NAME>
2-[(4S)-5-chloro-4-[(4-methylphenyl)sulfonylamino]pentyl]guanidine

> <PUBCHEM_IUPAC_SYSTEMATIC_NAME>
2-[(4S)-5-chloranyl-4-[(4-methylphenyl)sulfonylamino]pentyl]guanidine

> <PUBCHEM_IUPAC_TRADITIONAL_NAME>
2-[(4S)-5-chloro-4-(tosylamino)pentyl]guanidine

> <PUBCHEM_IUPAC_INCHI>
InChI=1S/C13H21ClN4O2S/c1-10-4-6-12(7-5-10)21(19,20)18-11(9-14)3-2-8-17-13(15)16/h4-7,11,18H,2-3,8-9H2,1H3,(H4,15,16,17)/t11-/m0/s1

> <PUBCHEM_IUPAC_INCHIKEY>
KSANPNINIDIXQR-NSHDSACASA-N

> <PUBCHEM_XLOGP3_AA>
1.1

> <PUBCHEM_EXACT_MASS>
332.107375

> <PUBCHEM_MOLECULAR_FORMULA>
C13H21ClN4O2S

> <PUBCHEM_MOLECULAR_WEIGHT>
332.84944

> <PUBCHEM_OPENEYE_CAN_SMILES>
CC1=CC=C(C=C1)S(=O)(=O)NC(CCCN=C(N)N)CCl

> <PUBCHEM_OPENEYE_ISO_SMILES>
CC1=CC=C(C=C1)S(=O)(=O)N[C@@H](CCCN=C(N)N)CCl

> <PUBCHEM_CACTVS_TPSA>
119

> <PUBCHEM_MONOISOTOPIC_WEIGHT>
332.107375

> <PUBCHEM_TOTAL_CHARGE>
0

> <PUBCHEM_HEAVY_ATOM_COUNT>
21

> <PUBCHEM_ATOM_DEF_STEREO_COUNT>
1

> <PUBCHEM_ATOM_UDEF_STEREO_COUNT>
0

> <PUBCHEM_BOND_DEF_STEREO_COUNT>
0

> <PUBCHEM_BOND_UDEF_STEREO_COUNT>
0

> <PUBCHEM_ISOTOPIC_ATOM_COUNT>
0

> <PUBCHEM_COMPONENT_COUNT>
1

> <PUBCHEM_CACTVS_TAUTO_COUNT>
2

> <PUBCHEM_COORDINATE_TYPE>
1
5
255

> <PUBCHEM_BONDANNOTATIONS>
14  15  8
14  16  8
15  18  8
16  19  8
17  18  8
17  19  8
9  5  5

$$$$

