   Color/Form
        Colorless liquid
   from [1]HSDB

   Odor

     * Acetone-like odor
     * Sweet, pleasant, pungent
     * Moderately sharp, fragrant, mint- or acetone-like odor.

   from [2]HSDB

   Boiling Point
        79.59 deg C
   from [3]HSDB

   Melting Point
        -86.64 deg C
   from [4]HSDB

   Critical Temperature and Pressure
        Critical temperature = 536.7 K; critical pressure = 4.207 MPa
   from [5]HSDB

   Density/Specific Gravity
        0.8255 at 0 deg C/4 deg C; 0.805 at 20 deg C/4 deg C; 0.7997 at 25
   deg C/4 deg C
   from [6]HSDB

   Dissociation Constants
        pKa = 14.70
   from [7]HSDB

   Heat of Combustion
        2444.1 kJ/mol at 25 deg C
   from [8]HSDB

   Heat of Vaporization
        31.30 kJ/mol
   from [9]HSDB

   Octanol/Water Partition Coefficient
        log Kow = 0.29
   from [10]HSDB

   Solubilities

     * Soluble in benzene, alcohol, and ether; miscible with oils
     * Miscible with ethanol, ether, acetone, benzene, chloroform
     * In water, 3.53X10+5 mg/L at 10 deg C; 1.9X10+5 mg/L at 90 deg C
     * In water, 2.23X10+5 mg/L at 25 deg C

   from [11]HSDB

   Spectral Properties

     * MAX ABSORPTION (ALCOHOL): 273.5 NM (LOG E= 1.24); SADTLER REF
       NUMBER: 297 (IR, PRISM); 101 (IR, GRATING)
     * Index of refraction: 1.3788 at 20 deg C/D
     * IR: 4788 (Coblentz Society Spectral Collection)
     * UV: 3-21 (Organic Electronic Spectral Data, Phillips et al, John
       Wiley & Sons, New York)
     * 1H NMR: 76 (Varian Associates NMR Spectra Catalogue)
     * 13C NMR: 75 (Johnson and Jankowski, Carbon-13 NMR Spectra, John
       Wiley & Sons, New York)
     * MASS: 60909 (NIST/EPA/MSDC Mass Spectral Database, 1990 version)
     * Raman: 163 (Sadtler Research Laboratories spectral collection)

   from [12]HSDB

   Surface Tension
        24.6 dyne/cm at 20 deg C
   from [13]HSDB

   Vapor Density
        2.41 (Air= 1)
   from [14]HSDB

   Vapor Pressure
        90.6 mm Hg at 25 deg C [Alarie Y et al; Toxicol Appl Pharmacol
   134: 92-99 (1995)] [15]PubMed Abstract
   from [16]HSDB

   Relative Evaporation Rate
        EVAPORATION RATE: 2.7 (ETHER= 1)
   from [17]HSDB

   Viscosity
        0.40 cP at 25 deg C
   from [18]HSDB

   Other Chemical/Physical Properties

     * Constant boiling mixture with water, BP 73.4 deg C, contains 88.7%
       methyl ethyl ketone (MEK); Solubility of water in MEK is 12.5% at
       25 deg C
     * Specifc heat: 0.549 cal/g
     * Bulk density: 6.71 lb/gal at 20 deg C
     * SATURATED AIR CONCN IS 102,000 PPM @ 77.5 TORR, 20 DEG C
     * HEAT OF SOLN (EST): -9 BTU/LB= -5 CAL/G= -0.2X10+5 JOULES/KG; RATIO
       OF SPECIFIC HEATS OF VAPOR (GAS): 1.075; REID VAPOR PRESSURE: 3.5
       PSIA
     * Air pollution factors: 1 mg/cu m = 0.340 ppm; 1 ppm = 2.94 mg/cu m
     * Heat of fusion: 1.09 kJ/mol at melting point o f-86.64 deg C
     * Coefficient of expansion= 0.00076/deg F; electrical conductivity=
       1.0X10-7 ohms @ 25 deg C
     * Partition coefficients at 37 deg C for methyl ethyl ketone into
       blood= 202; into oil= 263. [Sato A, Nakajima T; Scand J Work
       Environ Health 13: 81-93 (1987)] [19]PubMed Abstract
     * It is lighter than water ... and may be expected to float while
       rapidly dissolving.
     * Henry's Law constant = 5.69X10-5 atm-cu m/mol at 25 deg C
     * Hydroxyl radical reaction rate constant = 1.15X10-12 cu
       cm/molec-sec at 25 deg C

   from [20]HSDB

   Computed Properties
   Molecular Weight                  72.10572 [g/mol]
   Molecular Formula                 C[4]H[8]O
   XLogP3                            0.3
   H-Bond Donor                      0
   H-Bond Acceptor                   1
   Rotatable Bond Count              1
   Tautomer Count                    3
   Exact Mass                        72.057515
   MonoIsotopic Mass                 72.057515
   Topological Polar Surface Area    17.1
   Heavy Atom Count                  5
   Formal Charge                     0
   Complexity                        38.9
   Isotope Atom Count                0
   Defined Atom Stereocenter Count   0
   Undefined Atom Stereocenter Count 0
   Defined Bond Stereocenter Count   0
   Undefined Bond Stereocenter Count 0
   Covalently-Bonded Unit Count      1
   Feature 3D Acceptor Count         1
   Feature 3D Hydrophobe Count       1
   Effective Rotor Count             1
   Conformer Sampling RMSD           0.4
   CID Conformer Count               [21]4

References

   1. http://toxnet.nlm.nih.gov/cgi-bin/sis/search/r?dbs+hsdb:@term+@rn+@rel+78-93-3
   2. http://toxnet.nlm.nih.gov/cgi-bin/sis/search/r?dbs+hsdb:@term+@rn+@rel+78-93-3
   3. http://toxnet.nlm.nih.gov/cgi-bin/sis/search/r?dbs+hsdb:@term+@rn+@rel+78-93-3
   4. http://toxnet.nlm.nih.gov/cgi-bin/sis/search/r?dbs+hsdb:@term+@rn+@rel+78-93-3
   5. http://toxnet.nlm.nih.gov/cgi-bin/sis/search/r?dbs+hsdb:@term+@rn+@rel+78-93-3
   6. http://toxnet.nlm.nih.gov/cgi-bin/sis/search/r?dbs+hsdb:@term+@rn+@rel+78-93-3
   7. http://toxnet.nlm.nih.gov/cgi-bin/sis/search/r?dbs+hsdb:@term+@rn+@rel+78-93-3
   8. http://toxnet.nlm.nih.gov/cgi-bin/sis/search/r?dbs+hsdb:@term+@rn+@rel+78-93-3
   9. http://toxnet.nlm.nih.gov/cgi-bin/sis/search/r?dbs+hsdb:@term+@rn+@rel+78-93-3
  10. http://toxnet.nlm.nih.gov/cgi-bin/sis/search/r?dbs+hsdb:@term+@rn+@rel+78-93-3
  11. http://toxnet.nlm.nih.gov/cgi-bin/sis/search/r?dbs+hsdb:@term+@rn+@rel+78-93-3
  12. http://toxnet.nlm.nih.gov/cgi-bin/sis/search/r?dbs+hsdb:@term+@rn+@rel+78-93-3
  13. http://toxnet.nlm.nih.gov/cgi-bin/sis/search/r?dbs+hsdb:@term+@rn+@rel+78-93-3
  14. http://toxnet.nlm.nih.gov/cgi-bin/sis/search/r?dbs+hsdb:@term+@rn+@rel+78-93-3
  15. http://www.ncbi.nlm.nih.gov/entrez/query.fcgi?cmd=Retrieve&db=pubmed&dopt=Abstract&list_uids=7676461
  16. http://toxnet.nlm.nih.gov/cgi-bin/sis/search/r?dbs+hsdb:@term+@rn+@rel+78-93-3
  17. http://toxnet.nlm.nih.gov/cgi-bin/sis/search/r?dbs+hsdb:@term+@rn+@rel+78-93-3
  18. http://toxnet.nlm.nih.gov/cgi-bin/sis/search/r?dbs+hsdb:@term+@rn+@rel+78-93-3
  19. http://www.ncbi.nlm.nih.gov/entrez/query.fcgi?cmd=Retrieve&db=pubmed&dopt=Abstract&list_uids=3299685
  20. http://toxnet.nlm.nih.gov/cgi-bin/sis/search/r?dbs+hsdb:@term+@rn+@rel+78-93-3
  21. http://pubchem.ncbi.nlm.nih.gov/vw3d/vw3d.cgi?cid=6569
