   Color/Form
        Colorless liquid
   from [1]HSDB

   Odor

     * Strong, ammoniacal ordor
     * Fishy

   from [2]HSDB

   Boiling Point
        89.3 deg C
   from [3]HSDB

   Melting Point
        -114.7 deg C
   from [4]HSDB

   Corrosivity
        Liquid triethylamine will attack some forms of plastics, rubber,
   and coatings
   from [5]HSDB

   Critical Temperature and Pressure
        Critical temperature: 535.6 K; Critical pressure: 3.032 MPa
   from [6]HSDB

   Density/Specific Gravity
        0.7275 at 20 deg C/4 deg C
   from [7]HSDB

   Dissociation Constants

     * pKb = 3.25
     * pKa = 10.78 at 25 deg C

   from [8]HSDB

   Heat of Combustion
        10,248 cal/g
   from [9]HSDB

   Heat of Vaporization
        140 Btu/lb= 80 cal/g= 3.3X10+5 J/kg
   from [10]HSDB

   Octanol/Water Partition Coefficient
        log Kow = 1.45
   from [11]HSDB

   Solubilities

     * Soluble in ethanol, carbon tetrachloride, and ethyl ether, very
       soluble in acetone, benzene, chloroform
     * Soluble in fixed oils, mineral oil, oleic and stearic acids and in
       hot carnauba and paraffin waxes.
     * 5.5 g/100 g water at 20 deg C
     * ... miscible with alcohol, ether and also with water below 18.7 deg
       C
     * In water, 8.86X10+4 mg/L at 25 deg C

   from [12]HSDB

   Spectral Properties

     * Index of refraction: 1.4003 at 20 deg C/D
     * Max Absorption (Heptane /as solvent/): 196 nm (Log E= 3.70)
     * MASS: 60716 (NIST/EPA/MSDC Mass Spectral database, 1990 version);
       264 (Atlas of Mass Spectral Data, John Wiley & Sons, New York)
     * IR: 4831 (Coblentz Society Spectral Collection)
     * UV: 3-85 (Organic Electronic Spectral Data, Phillips et al, John
       Wiley & Sons, New York)
     * 1H NMR: 29 (Sadtler Research Laboratories Spectral Collection)
     * 13C NMR: 29 (Stothers, Carbon-13 NMR Spectroscopy, Academic Press,
       New York)
     * Raman: 21(Dollish et al; Characteristic Raman Frequencies of
       Organic Compounds, John Wiley & Sons, New York)
     * MASS: 264 (Atlas of Mass Spectral Data, John Wiley & Sons, New
       York)

   from [13]HSDB

   Surface Tension
        20.7 dynes/cm= 0.0207 N/m @ 20 deg C
   from [14]HSDB

   Vapor Density
        3.49 (Air= 1)
   from [15]HSDB

   Vapor Pressure
        57.1 mm Hg at 25 deg C
   from [16]HSDB

   Relative Evaporation Rate
        5.6 (butyl acetate = 1)
   from [17]HSDB

   Other Chemical/Physical Properties

     * Wt/gal (20 deg C): 6.1 lb
     * Conversion Units: 1 mg/l= 242 ppm; 1 ppm= 4.14 mg/cu m
     * Critical solution temperature in water: 18 deg C
     * Heat of solution in water: 10,040 cal/mol of solute at infinite
       dilution
     * Ratio of Specific Heats of Vapor (Gas): 1.055; Heat of Solution:
       -180 Btu/lb= -99 cal/g= -4.1X10+5 J/kg
     * Saturated liquid density: 45.420 lb/cu ft; liquid heat capacity:
       0.556 Btu/lb deg F; saturated vapor pressure: 1.084 lb/sq in;
       saturated vapor density: 0.01930 lb/cu ft (all at 70 deg F)
     * Ideal gas heat capacity: 0.379 Btu/lb at 75 deg F
     * Amines tend to be fat soluble /Amines/
     * Crystals from alcohol, mp 253-254 deg C, sublimes at 245 deg C;
       density 1.069. Soluble in 0.7 parts water; soluble in alcohol,
       chloroform; very slightly soluble in benzene. Practically insoluble
       in ether. /Hydrochloride/
     * Henry's Law constant = 1.49X10-4 atm-cu m/mole at 25 deg C
     * Hydroxyl radical reaction rate constant = 9.3X10-11 cu
       cm/molecule-sec at 25 deg C (est)

   from [18]HSDB

   Computed Properties
   Molecular Weight                  101.19 [g/mol]
   Molecular Formula                 C[6]H[15]N
   XLogP3                            1.4
   H-Bond Donor                      0
   H-Bond Acceptor                   1
   Rotatable Bond Count              3
   Exact Mass                        101.120449
   MonoIsotopic Mass                 101.120449
   Topological Polar Surface Area    3.2
   Heavy Atom Count                  7
   Formal Charge                     0
   Complexity                        25.7
   Isotope Atom Count                0
   Defined Atom Stereocenter Count   0
   Undefined Atom Stereocenter Count 0
   Defined Bond Stereocenter Count   0
   Undefined Bond Stereocenter Count 0
   Covalently-Bonded Unit Count      1
   Feature 3D Cation Count           1
   Effective Rotor Count             3
   Conformer Sampling RMSD           0.4
   CID Conformer Count               [19]5

References

   1. http://toxnet.nlm.nih.gov/cgi-bin/sis/search/r?dbs+hsdb:@term+@rn+@rel+121-44-8
   2. http://toxnet.nlm.nih.gov/cgi-bin/sis/search/r?dbs+hsdb:@term+@rn+@rel+121-44-8
   3. http://toxnet.nlm.nih.gov/cgi-bin/sis/search/r?dbs+hsdb:@term+@rn+@rel+121-44-8
   4. http://toxnet.nlm.nih.gov/cgi-bin/sis/search/r?dbs+hsdb:@term+@rn+@rel+121-44-8
   5. http://toxnet.nlm.nih.gov/cgi-bin/sis/search/r?dbs+hsdb:@term+@rn+@rel+121-44-8
   6. http://toxnet.nlm.nih.gov/cgi-bin/sis/search/r?dbs+hsdb:@term+@rn+@rel+121-44-8
   7. http://toxnet.nlm.nih.gov/cgi-bin/sis/search/r?dbs+hsdb:@term+@rn+@rel+121-44-8
   8. http://toxnet.nlm.nih.gov/cgi-bin/sis/search/r?dbs+hsdb:@term+@rn+@rel+121-44-8
   9. http://toxnet.nlm.nih.gov/cgi-bin/sis/search/r?dbs+hsdb:@term+@rn+@rel+121-44-8
  10. http://toxnet.nlm.nih.gov/cgi-bin/sis/search/r?dbs+hsdb:@term+@rn+@rel+121-44-8
  11. http://toxnet.nlm.nih.gov/cgi-bin/sis/search/r?dbs+hsdb:@term+@rn+@rel+121-44-8
  12. http://toxnet.nlm.nih.gov/cgi-bin/sis/search/r?dbs+hsdb:@term+@rn+@rel+121-44-8
  13. http://toxnet.nlm.nih.gov/cgi-bin/sis/search/r?dbs+hsdb:@term+@rn+@rel+121-44-8
  14. http://toxnet.nlm.nih.gov/cgi-bin/sis/search/r?dbs+hsdb:@term+@rn+@rel+121-44-8
  15. http://toxnet.nlm.nih.gov/cgi-bin/sis/search/r?dbs+hsdb:@term+@rn+@rel+121-44-8
  16. http://toxnet.nlm.nih.gov/cgi-bin/sis/search/r?dbs+hsdb:@term+@rn+@rel+121-44-8
  17. http://toxnet.nlm.nih.gov/cgi-bin/sis/search/r?dbs+hsdb:@term+@rn+@rel+121-44-8
  18. http://toxnet.nlm.nih.gov/cgi-bin/sis/search/r?dbs+hsdb:@term+@rn+@rel+121-44-8
  19. http://pubchem.ncbi.nlm.nih.gov/vw3d/vw3d.cgi?cid=8471
