91759
  -OEChem-07051213122D

 31 33  0     0  0  0  0  0  0999 V2000
    7.1279   -0.7990    0.0000 S   0  0  0  0  0  0  0  0  0  0  0  0
   10.1279   -0.7990    0.0000 F   0  0  0  0  0  0  0  0  0  0  0  0
    7.1279    0.9330    0.0000 F   0  0  0  0  0  0  0  0  0  0  0  0
    7.1279    0.2010    0.0000 O   0  0  0  0  0  0  0  0  0  0  0  0
    7.1279   -1.7990    0.0000 O   0  0  0  0  0  0  0  0  0  0  0  0
    4.5981   -0.2990    0.0000 N   0  0  0  0  0  0  0  0  0  0  0  0
    8.1279   -0.7990    0.0000 N   0  0  0  0  0  0  0  0  0  0  0  0
    5.5443    0.0057    0.0000 N   0  0  0  0  0  0  0  0  0  0  0  0
    5.5443   -1.6038    0.0000 N   0  0  0  0  0  0  0  0  0  0  0  0
    3.7320   -1.7990    0.0000 N   0  0  0  0  0  0  0  0  0  0  0  0
    6.1279   -0.7990    0.0000 C   0  0  0  0  0  0  0  0  0  0  0  0
    4.5981   -1.2990    0.0000 C   0  0  0  0  0  0  0  0  0  0  0  0
    8.6279    0.0670    0.0000 C   0  0  0  0  0  0  0  0  0  0  0  0
    3.7320    0.2010    0.0000 C   0  0  0  0  0  0  0  0  0  0  0  0
    2.8660   -1.2990    0.0000 C   0  0  0  0  0  0  0  0  0  0  0  0
    2.8660   -0.2990    0.0000 C   0  0  0  0  0  0  0  0  0  0  0  0
    9.6279    0.0670    0.0000 C   0  0  0  0  0  0  0  0  0  0  0  0
    8.1279    0.9330    0.0000 C   0  0  0  0  0  0  0  0  0  0  0  0
   10.1279    0.9330    0.0000 C   0  0  0  0  0  0  0  0  0  0  0  0
    8.6279    1.7990    0.0000 C   0  0  0  0  0  0  0  0  0  0  0  0
    2.0000   -1.7990    0.0000 C   0  0  0  0  0  0  0  0  0  0  0  0
    9.6279    1.7990    0.0000 C   0  0  0  0  0  0  0  0  0  0  0  0
    8.4379   -1.3360    0.0000 H   0  0  0  0  0  0  0  0  0  0  0  0
    3.7320    0.8210    0.0000 H   0  0  0  0  0  0  0  0  0  0  0  0
    2.3291    0.0110    0.0000 H   0  0  0  0  0  0  0  0  0  0  0  0
   10.7479    0.9330    0.0000 H   0  0  0  0  0  0  0  0  0  0  0  0
    8.3179    2.3360    0.0000 H   0  0  0  0  0  0  0  0  0  0  0  0
    1.6900   -1.2621    0.0000 H   0  0  0  0  0  0  0  0  0  0  0  0
    1.4631   -2.1090    0.0000 H   0  0  0  0  0  0  0  0  0  0  0  0
    2.3100   -2.3360    0.0000 H   0  0  0  0  0  0  0  0  0  0  0  0
    9.9379    2.3360    0.0000 H   0  0  0  0  0  0  0  0  0  0  0  0
  1  4  2  0  0  0  0
  1  5  2  0  0  0  0
  1  7  1  0  0  0  0
  1 11  1  0  0  0  0
  2 17  1  0  0  0  0
  3 18  1  0  0  0  0
  6  8  1  0  0  0  0
  6 12  1  0  0  0  0
  6 14  1  0  0  0  0
  7 13  1  0  0  0  0
  7 23  1  0  0  0  0
  8 11  2  0  0  0  0
  9 11  1  0  0  0  0
  9 12  2  0  0  0  0
 10 12  1  0  0  0  0
 10 15  2  0  0  0  0
 13 17  2  0  0  0  0
 13 18  1  0  0  0  0
 14 16  2  0  0  0  0
 14 24  1  0  0  0  0
 15 16  1  0  0  0  0
 15 21  1  0  0  0  0
 16 25  1  0  0  0  0
 17 19  1  0  0  0  0
 18 20  2  0  0  0  0
 19 22  2  0  0  0  0
 19 26  1  0  0  0  0
 20 22  1  0  0  0  0
 20 27  1  0  0  0  0
 21 28  1  0  0  0  0
 21 29  1  0  0  0  0
 21 30  1  0  0  0  0
 22 31  1  0  0  0  0
M  END
> <PUBCHEM_COMPOUND_CID>
91759

> <PUBCHEM_COMPOUND_CANONICALIZED>
1

> <PUBCHEM_CACTVS_COMPLEXITY>
492

> <PUBCHEM_CACTVS_HBOND_ACCEPTOR>
8

> <PUBCHEM_CACTVS_HBOND_DONOR>
1

> <PUBCHEM_CACTVS_ROTATABLE_BOND>
3

> <PUBCHEM_CACTVS_SUBSKEYS>
AAADccBzsYBAAAAAAAAAAAAAAAAAAWAAAAA8QAAAAAAAAFgB8AAAHQQYQAAACAjBFgw/0JZIEAKiATRnZHCa1CsxgqAd2CA4ZJiIKKLA2dGEpAhoiAJIyCcQAAAAAAAAAAAAAAAAAAAAAAAAAAAAAAAAAA==

> <PUBCHEM_IUPAC_OPENEYE_NAME>
N-(2,6-difluorophenyl)-5-methyl-[1,2,4]triazolo[1,5-a]pyrimidine-2-sulfonamide

> <PUBCHEM_IUPAC_CAS_NAME>
N-(2,6-difluorophenyl)-5-methyl-[1,2,4]triazolo[1,5-a]pyrimidine-2-sulfonamide

> <PUBCHEM_IUPAC_NAME>
N-(2,6-difluorophenyl)-5-methyl-[1,2,4]triazolo[1,5-a]pyrimidine-2-sulfonamide

> <PUBCHEM_IUPAC_SYSTEMATIC_NAME>
N-[2,6-bis(fluoranyl)phenyl]-5-methyl-[1,2,4]triazolo[1,5-a]pyrimidine-2-sulfonamide

> <PUBCHEM_IUPAC_TRADITIONAL_NAME>
N-(2,6-difluorophenyl)-5-methyl-[1,2,4]triazolo[1,5-a]pyrimidine-2-sulfonamide

> <PUBCHEM_IUPAC_INCHI>
InChI=1S/C12H9F2N5O2S/c1-7-5-6-19-11(15-7)16-12(17-19)22(20,21)18-10-8(13)3-2-4-9(10)14/h2-6,18H,1H3

> <PUBCHEM_IUPAC_INCHIKEY>
RXCPQSJAVKGONC-UHFFFAOYSA-N

> <PUBCHEM_XLOGP3_AA>
1.6

> <PUBCHEM_EXACT_MASS>
325.044502

> <PUBCHEM_MOLECULAR_FORMULA>
C12H9F2N5O2S

> <PUBCHEM_MOLECULAR_WEIGHT>
325.293966

> <PUBCHEM_OPENEYE_CAN_SMILES>
CC1=NC2=NC(=NN2C=C1)S(=O)(=O)NC3=C(C=CC=C3F)F

> <PUBCHEM_OPENEYE_ISO_SMILES>
CC1=NC2=NC(=NN2C=C1)S(=O)(=O)NC3=C(C=CC=C3F)F

> <PUBCHEM_CACTVS_TPSA>
97.6

> <PUBCHEM_MONOISOTOPIC_WEIGHT>
325.044502

> <PUBCHEM_TOTAL_CHARGE>
0

> <PUBCHEM_HEAVY_ATOM_COUNT>
22

> <PUBCHEM_ATOM_DEF_STEREO_COUNT>
0

> <PUBCHEM_ATOM_UDEF_STEREO_COUNT>
0

> <PUBCHEM_BOND_DEF_STEREO_COUNT>
0

> <PUBCHEM_BOND_UDEF_STEREO_COUNT>
0

> <PUBCHEM_ISOTOPIC_ATOM_COUNT>
0

> <PUBCHEM_COMPONENT_COUNT>
1

> <PUBCHEM_CACTVS_TAUTO_COUNT>
1

> <PUBCHEM_COORDINATE_TYPE>
1
5
255

> <PUBCHEM_BONDANNOTATIONS>
10  12  8
10  15  8
13  17  8
13  18  8
14  16  8
15  16  8
17  19  8
18  20  8
19  22  8
20  22  8
6  12  8
6  14  8
6  8  8
8  11  8
9  11  8
9  12  8

$$$$

