29231
  -OEChem-07051212492D

 74 77  0     1  0  0  0  0  0999 V2000
    6.8671   -4.4400    0.0000 Cl  0  5  0  0  0  0  0  0  0  0  0  0
    6.0010    0.0600    0.0000 O   0  0  0  0  0  0  0  0  0  0  0  0
    6.8671    2.5600    0.0000 O   0  0  0  0  0  0  0  0  0  0  0  0
    7.7331    4.0600    0.0000 O   0  0  0  0  0  0  0  0  0  0  0  0
    5.1350    2.5600    0.0000 O   0  0  0  0  0  0  0  0  0  0  0  0
    3.4030    1.5600    0.0000 O   0  0  0  0  0  0  0  0  0  0  0  0
    5.1350   -1.4400    0.0000 O   0  0  0  0  0  0  0  0  0  0  0  0
    3.4030   -0.4400    0.0000 O   0  0  0  0  0  0  0  0  0  0  0  0
    8.5991    1.5600    0.0000 O   0  0  0  0  0  0  0  0  0  0  0  0
   10.3312    2.5600    0.0000 O   0  0  0  0  0  0  0  0  0  0  0  0
   10.3312    4.5600    0.0000 O   0  0  0  0  0  0  0  0  0  0  0  0
    6.8671   -3.4400    0.0000 O   0  3  0  0  0  0  0  0  0  0  0  0
    8.6155   -0.4054    0.0000 O   0  0  0  0  0  0  0  0  0  0  0  0
   10.3972   -3.4642    0.0000 O   0  0  0  0  0  0  0  0  0  0  0  0
    2.5369   -2.9400    0.0000 O   0  0  0  0  0  0  0  0  0  0  0  0
    2.5369   -4.9400    0.0000 O   0  0  0  0  0  0  0  0  0  0  0  0
    6.0010    1.0600    0.0000 C   0  0  1  0  0  0  0  0  0  0  0  0
    5.1350    1.5600    0.0000 C   0  0  2  0  0  0  0  0  0  0  0  0
    4.2690    1.0600    0.0000 C   0  0  1  0  0  0  0  0  0  0  0  0
    4.2690    0.0600    0.0000 C   0  0  2  0  0  0  0  0  0  0  0  0
    8.5991    2.5600    0.0000 C   0  0  1  0  0  0  0  0  0  0  0  0
    7.7331    3.0600    0.0000 C   0  0  2  0  0  0  0  0  0  0  0  0
    9.4651    3.0600    0.0000 C   0  0  1  0  0  0  0  0  0  0  0  0
    9.4651    4.0600    0.0000 C   0  0  2  0  0  0  0  0  0  0  0  0
    5.1350   -0.4400    0.0000 C   0  0  1  0  0  0  0  0  0  0  0  0
    6.8671    1.5600    0.0000 C   0  0  0  0  0  0  0  0  0  0  0  0
    8.5991    4.5600    0.0000 C   0  0  2  0  0  0  0  0  0  0  0  0
    8.5991    5.5600    0.0000 C   0  0  0  0  0  0  0  0  0  0  0  0
    6.0010   -1.9400    0.0000 C   0  0  0  0  0  0  0  0  0  0  0  0
    6.0010   -2.9400    0.0000 C   0  0  0  0  0  0  0  0  0  0  0  0
    6.8671   -1.4400    0.0000 C   0  0  0  0  0  0  0  0  0  0  0  0
    7.7331   -1.9400    0.0000 C   0  0  0  0  0  0  0  0  0  0  0  0
    5.1350   -3.4400    0.0000 C   0  0  0  0  0  0  0  0  0  0  0  0
    7.7331   -2.9400    0.0000 C   0  0  0  0  0  0  0  0  0  0  0  0
    8.6270   -1.4053    0.0000 C   0  0  0  0  0  0  0  0  0  0  0  0
    8.6270   -3.4747    0.0000 C   0  0  0  0  0  0  0  0  0  0  0  0
    4.2690   -2.9400    0.0000 C   0  0  0  0  0  0  0  0  0  0  0  0
    5.1350   -4.4400    0.0000 C   0  0  0  0  0  0  0  0  0  0  0  0
    9.5331   -1.9192    0.0000 C   0  0  0  0  0  0  0  0  0  0  0  0
    9.5331   -2.9608    0.0000 C   0  0  0  0  0  0  0  0  0  0  0  0
    3.4030   -3.4400    0.0000 C   0  0  0  0  0  0  0  0  0  0  0  0
    4.2690   -4.9400    0.0000 C   0  0  0  0  0  0  0  0  0  0  0  0
    3.4030   -4.4400    0.0000 C   0  0  0  0  0  0  0  0  0  0  0  0
    6.5380    0.7500    0.0000 H   0  0  0  0  0  0  0  0  0  0  0  0
    5.6720    1.8700    0.0000 H   0  0  0  0  0  0  0  0  0  0  0  0
    4.2690    1.6800    0.0000 H   0  0  0  0  0  0  0  0  0  0  0  0
    4.2690   -0.5600    0.0000 H   0  0  0  0  0  0  0  0  0  0  0  0
    8.0622    2.2500    0.0000 H   0  0  0  0  0  0  0  0  0  0  0  0
    7.7331    2.4400    0.0000 H   0  0  0  0  0  0  0  0  0  0  0  0
   10.0021    3.3700    0.0000 H   0  0  0  0  0  0  0  0  0  0  0  0
   10.0021    3.7500    0.0000 H   0  0  0  0  0  0  0  0  0  0  0  0
    4.5981   -0.7500    0.0000 H   0  0  0  0  0  0  0  0  0  0  0  0
    7.0791    0.9774    0.0000 H   0  0  0  0  0  0  0  0  0  0  0  0
    7.4776    1.6677    0.0000 H   0  0  0  0  0  0  0  0  0  0  0  0
    8.0622    4.8700    0.0000 H   0  0  0  0  0  0  0  0  0  0  0  0
    9.2191    5.5600    0.0000 H   0  0  0  0  0  0  0  0  0  0  0  0
    8.5991    6.1800    0.0000 H   0  0  0  0  0  0  0  0  0  0  0  0
    7.9791    5.5600    0.0000 H   0  0  0  0  0  0  0  0  0  0  0  0
    4.5981    2.8700    0.0000 H   0  0  0  0  0  0  0  0  0  0  0  0
    3.4030    2.1800    0.0000 H   0  0  0  0  0  0  0  0  0  0  0  0
    2.8660   -0.1300    0.0000 H   0  0  0  0  0  0  0  0  0  0  0  0
    9.1360    1.2500    0.0000 H   0  0  0  0  0  0  0  0  0  0  0  0
   10.8681    2.8700    0.0000 H   0  0  0  0  0  0  0  0  0  0  0  0
   10.3312    5.1800    0.0000 H   0  0  0  0  0  0  0  0  0  0  0  0
    6.8671   -0.8200    0.0000 H   0  0  0  0  0  0  0  0  0  0  0  0
    8.6199   -4.0946    0.0000 H   0  0  0  0  0  0  0  0  0  0  0  0
    4.2690   -2.3200    0.0000 H   0  0  0  0  0  0  0  0  0  0  0  0
    5.6720   -4.7500    0.0000 H   0  0  0  0  0  0  0  0  0  0  0  0
   10.0688   -1.6071    0.0000 H   0  0  0  0  0  0  0  0  0  0  0  0
    4.2690   -5.5600    0.0000 H   0  0  0  0  0  0  0  0  0  0  0  0
    9.1488   -0.0892    0.0000 H   0  0  0  0  0  0  0  0  0  0  0  0
   10.9353   -3.1562    0.0000 H   0  0  0  0  0  0  0  0  0  0  0  0
    2.0000   -3.2500    0.0000 H   0  0  0  0  0  0  0  0  0  0  0  0
    2.5369   -5.5600    0.0000 H   0  0  0  0  0  0  0  0  0  0  0  0
  2 17  1  0  0  0  0
  2 25  1  0  0  0  0
 22  3  1  6  0  0  0
  3 26  1  0  0  0  0
  4 22  1  0  0  0  0
  4 27  1  0  0  0  0
 18  5  1  6  0  0  0
  5 59  1  0  0  0  0
 19  6  1  1  0  0  0
  6 60  1  0  0  0  0
 25  7  1  1  0  0  0
  7 29  1  0  0  0  0
 20  8  1  6  0  0  0
  8 61  1  0  0  0  0
 21  9  1  1  0  0  0
  9 62  1  0  0  0  0
 23 10  1  1  0  0  0
 10 63  1  0  0  0  0
 24 11  1  6  0  0  0
 11 64  1  0  0  0  0
 12 30  2  0  0  0  0
 12 34  1  0  0  0  0
 13 35  1  0  0  0  0
 13 71  1  0  0  0  0
 14 40  1  0  0  0  0
 14 72  1  0  0  0  0
 15 41  1  0  0  0  0
 15 73  1  0  0  0  0
 16 43  1  0  0  0  0
 16 74  1  0  0  0  0
 17 18  1  0  0  0  0
 17 26  1  1  0  0  0
 17 44  1  0  0  0  0
 18 19  1  0  0  0  0
 18 45  1  0  0  0  0
 19 20  1  0  0  0  0
 19 46  1  0  0  0  0
 20 25  1  0  0  0  0
 20 47  1  0  0  0  0
 21 22  1  0  0  0  0
 21 23  1  0  0  0  0
 21 48  1  0  0  0  0
 22 49  1  0  0  0  0
 23 24  1  0  0  0  0
 23 50  1  0  0  0  0
 24 27  1  0  0  0  0
 24 51  1  0  0  0  0
 25 52  1  0  0  0  0
 26 53  1  0  0  0  0
 26 54  1  0  0  0  0
 27 28  1  1  0  0  0
 27 55  1  0  0  0  0
 28 56  1  0  0  0  0
 28 57  1  0  0  0  0
 28 58  1  0  0  0  0
 29 30  1  0  0  0  0
 29 31  2  0  0  0  0
 30 33  1  0  0  0  0
 31 32  1  0  0  0  0
 31 65  1  0  0  0  0
 32 34  1  0  0  0  0
 32 35  2  0  0  0  0
 33 37  2  0  0  0  0
 33 38  1  0  0  0  0
 34 36  2  0  0  0  0
 35 39  1  0  0  0  0
 36 40  1  0  0  0  0
 36 66  1  0  0  0  0
 37 41  1  0  0  0  0
 37 67  1  0  0  0  0
 38 42  2  0  0  0  0
 38 68  1  0  0  0  0
 39 40  2  0  0  0  0
 39 69  1  0  0  0  0
 41 43  2  0  0  0  0
 42 43  1  0  0  0  0
 42 70  1  0  0  0  0
M  CHG  2   1  -1  12   1
M  END
> <PUBCHEM_COMPOUND_CID>
29231

> <PUBCHEM_COMPOUND_CANONICALIZED>
1

> <PUBCHEM_CACTVS_COMPLEXITY>
883

> <PUBCHEM_CACTVS_HBOND_ACCEPTOR>
15

> <PUBCHEM_CACTVS_HBOND_DONOR>
10

> <PUBCHEM_CACTVS_ROTATABLE_BOND>
6

> <PUBCHEM_CACTVS_SUBSKEYS>
AAADceB4PAAEAAAAAAAAAAAAAAAAAAAAAAA0aJECAAAAAACR9AAAGgAACAAADBSwmAMyDsAABkCIAqBSAAICCAAkIAAIiAFGiMgdNzaGNR6ieWOl4BUPuYfK7PzOIAABCAAIQABAAAIQABCAAAAAAAAAAA==

> <PUBCHEM_IUPAC_OPENEYE_NAME>
(2R,3R,4R,5R,6S)-2-[[(2R,3S,4S,5R,6S)-6-[2-(3,4-dihydroxyphenyl)-5,7-dihydroxy-chromenylium-3-yl]oxy-3,4,5-trihydroxy-tetrahydropyran-2-yl]methoxy]-6-methyl-tetrahydropyran-3,4,5-triol chloride

> <PUBCHEM_IUPAC_CAS_NAME>
(2R,3R,4R,5R,6S)-2-[[(2R,3S,4S,5R,6S)-6-[[2-(3,4-dihydroxyphenyl)-5,7-dihydroxy-1-benzopyrylium-3-yl]oxy]-3,4,5-trihydroxy-2-oxanyl]methoxy]-6-methyloxane-3,4,5-triol chloride

> <PUBCHEM_IUPAC_NAME>
(2R,3R,4R,5R,6S)-2-[[(2R,3S,4S,5R,6S)-6-[2-(3,4-dihydroxyphenyl)-5,7-dihydroxychromenylium-3-yl]oxy-3,4,5-trihydroxyoxan-2-yl]methoxy]-6-methyloxane-3,4,5-triol chloride

> <PUBCHEM_IUPAC_SYSTEMATIC_NAME>
(2R,3R,4R,5R,6S)-2-[[(2R,3S,4S,5R,6S)-6-[2-[3,4-bis(oxidanyl)phenyl]-5,7-bis(oxidanyl)chromenylium-3-yl]oxy-3,4,5-tris(oxidanyl)oxan-2-yl]methoxy]-6-methyl-oxane-3,4,5-triol chloride

> <PUBCHEM_IUPAC_TRADITIONAL_NAME>
(2R,3R,4R,5R,6S)-2-[[(2R,3S,4S,5R,6S)-6-[[2-(3,4-dihydroxyphenyl)-5,7-dihydroxy-1-benzopyrylium-3-yl]oxy]-3,4,5-trihydroxy-tetrahydropyran-2-yl]methoxy]-6-methyl-tetrahydropyran-3,4,5-triol chloride

> <PUBCHEM_IUPAC_INCHI>
InChI=1S/C27H30O15.ClH/c1-9-19(32)21(34)23(36)26(39-9)38-8-18-20(33)22(35)24(37)27(42-18)41-17-7-12-14(30)5-11(28)6-16(12)40-25(17)10-2-3-13(29)15(31)4-10;/h2-7,9,18-24,26-27,32-37H,8H2,1H3,(H3-,28,29,30,31);1H/t9-,18+,19-,20+,21+,22-,23+,24+,26+,27+;/m0./s1

> <PUBCHEM_IUPAC_INCHIKEY>
ADZHXBNWNZIHIX-XYGAWYNKSA-N

> <PUBCHEM_EXACT_MASS>
630.135148

> <PUBCHEM_MOLECULAR_FORMULA>
C27H31ClO15

> <PUBCHEM_MOLECULAR_WEIGHT>
630.97904

> <PUBCHEM_OPENEYE_CAN_SMILES>
CC1C(C(C(C(O1)OCC2C(C(C(C(O2)OC3=C([O+]=C4C=C(C=C(C4=C3)O)O)C5=CC(=C(C=C5)O)O)O)O)O)O)O)O.[Cl-]

> <PUBCHEM_OPENEYE_ISO_SMILES>
C[C@H]1[C@@H]([C@H]([C@H]([C@@H](O1)OC[C@@H]2[C@H]([C@@H]([C@H]([C@@H](O2)OC3=C([O+]=C4C=C(C=C(C4=C3)O)O)C5=CC(=C(C=C5)O)O)O)O)O)O)O)O.[Cl-]

> <PUBCHEM_CACTVS_TPSA>
240

> <PUBCHEM_MONOISOTOPIC_WEIGHT>
630.135148

> <PUBCHEM_TOTAL_CHARGE>
0

> <PUBCHEM_HEAVY_ATOM_COUNT>
43

> <PUBCHEM_ATOM_DEF_STEREO_COUNT>
10

> <PUBCHEM_ATOM_UDEF_STEREO_COUNT>
0

> <PUBCHEM_BOND_DEF_STEREO_COUNT>
0

> <PUBCHEM_BOND_UDEF_STEREO_COUNT>
0

> <PUBCHEM_ISOTOPIC_ATOM_COUNT>
0

> <PUBCHEM_COMPONENT_COUNT>
2

> <PUBCHEM_CACTVS_TAUTO_COUNT>
171

> <PUBCHEM_COORDINATE_TYPE>
1
5
255

> <PUBCHEM_BONDANNOTATIONS>
23  10  5
24  11  6
12  30  8
12  34  8
17  26  5
27  28  5
29  30  8
29  31  8
22  3  6
31  32  8
32  34  8
32  35  8
33  37  8
33  38  8
34  36  8
35  39  8
36  40  8
37  41  8
38  42  8
39  40  8
41  43  8
42  43  8
18  5  6
19  6  5
25  7  5
20  8  6
21  9  5

$$$$

