11607
  -OEChem-06261205532D

 30 28  0     0  0  0  0  0  0999 V2000
    3.1350    1.6200    0.0000 S   0  0  0  0  0  0  0  0  0  0  0  0
    3.1350    4.6569    0.0000 O   0  0  0  0  0  0  0  0  0  0  0  0
    1.4030    1.6200    0.0000 C   0  0  0  0  0  0  0  0  0  0  0  0
    4.8671    1.6200    0.0000 C   0  0  0  0  0  0  0  0  0  0  0  0
    2.2690    2.1200    0.0000 C   0  0  0  0  0  0  0  0  0  0  0  0
    4.0010    2.1200    0.0000 C   0  0  0  0  0  0  0  0  0  0  0  0
    0.5369    2.1200    0.0000 C   0  0  0  0  0  0  0  0  0  0  0  0
    1.4030    0.6200    0.0000 C   0  0  0  0  0  0  0  0  0  0  0  0
    5.7331    2.1200    0.0000 C   0  0  0  0  0  0  0  0  0  0  0  0
    4.8671    0.6200    0.0000 C   0  0  0  0  0  0  0  0  0  0  0  0
    5.4040    1.3100    0.0000 H   0  0  0  0  0  0  0  0  0  0  0  0
    1.4030    2.2400    0.0000 H   0  0  0  0  0  0  0  0  0  0  0  0
    4.3996    2.5950    0.0000 H   0  0  0  0  0  0  0  0  0  0  0  0
    3.6025    2.5950    0.0000 H   0  0  0  0  0  0  0  0  0  0  0  0
    2.6675    2.5950    0.0000 H   0  0  0  0  0  0  0  0  0  0  0  0
    1.8705    2.5950    0.0000 H   0  0  0  0  0  0  0  0  0  0  0  0
    0.8469    2.6569    0.0000 H   0  0  0  0  0  0  0  0  0  0  0  0
    0.0000    2.4300    0.0000 H   0  0  0  0  0  0  0  0  0  0  0  0
    0.2269    1.5831    0.0000 H   0  0  0  0  0  0  0  0  0  0  0  0
    0.7830    0.6200    0.0000 H   0  0  0  0  0  0  0  0  0  0  0  0
    1.4030    0.0000    0.0000 H   0  0  0  0  0  0  0  0  0  0  0  0
    2.0230    0.6200    0.0000 H   0  0  0  0  0  0  0  0  0  0  0  0
    6.0431    1.5831    0.0000 H   0  0  0  0  0  0  0  0  0  0  0  0
    6.2700    2.4300    0.0000 H   0  0  0  0  0  0  0  0  0  0  0  0
    5.4231    2.6569    0.0000 H   0  0  0  0  0  0  0  0  0  0  0  0
    4.2471    0.6200    0.0000 H   0  0  0  0  0  0  0  0  0  0  0  0
    4.8671    0.0000    0.0000 H   0  0  0  0  0  0  0  0  0  0  0  0
    5.4871    0.6200    0.0000 H   0  0  0  0  0  0  0  0  0  0  0  0
    3.6720    4.9669    0.0000 H   0  0  0  0  0  0  0  0  0  0  0  0
    2.5981    4.9669    0.0000 H   0  0  0  0  0  0  0  0  0  0  0  0
  1  5  1  0  0  0  0
  1  6  1  0  0  0  0
  2 29  1  0  0  0  0
  2 30  1  0  0  0  0
  3  5  1  0  0  0  0
  3  7  1  0  0  0  0
  3  8  1  0  0  0  0
  3 12  1  0  0  0  0
  4  6  1  0  0  0  0
  4  9  1  0  0  0  0
  4 10  1  0  0  0  0
  4 11  1  0  0  0  0
  5 15  1  0  0  0  0
  5 16  1  0  0  0  0
  6 13  1  0  0  0  0
  6 14  1  0  0  0  0
  7 17  1  0  0  0  0
  7 18  1  0  0  0  0
  7 19  1  0  0  0  0
  8 20  1  0  0  0  0
  8 21  1  0  0  0  0
  8 22  1  0  0  0  0
  9 23  1  0  0  0  0
  9 24  1  0  0  0  0
  9 25  1  0  0  0  0
 10 26  1  0  0  0  0
 10 27  1  0  0  0  0
 10 28  1  0  0  0  0
M  END
> <PUBCHEM_COMPOUND_CID>
11607

> <PUBCHEM_COMPOUND_CANONICALIZED>
1

> <PUBCHEM_CACTVS_COMPLEXITY>
49.6

> <PUBCHEM_CACTVS_HBOND_ACCEPTOR>
2

> <PUBCHEM_CACTVS_HBOND_DONOR>
1

> <PUBCHEM_CACTVS_ROTATABLE_BOND>
4

> <PUBCHEM_CACTVS_SUBSKEYS>
AAADceBwIABAAAAAAAAAAAAAAAAAAAAAAAAAAAAAAAAAAAAAAAAAGAQACAAADQCEQACCAAAAAAgAAAAAAAAAAAAAABAAAAAAAAAAAAAgAAAAAAAAAAAgAAAAAAAAAAAAAAAAAAAAAAAAAAAAAAAAAAAAAA==

> <PUBCHEM_IUPAC_OPENEYE_NAME>
1-isobutylsulfanyl-2-methyl-propane hydrate

> <PUBCHEM_IUPAC_CAS_NAME>
2-methyl-1-(2-methylpropylthio)propane hydrate

> <PUBCHEM_IUPAC_NAME>
2-methyl-1-(2-methylpropylsulfanyl)propane hydrate

> <PUBCHEM_IUPAC_SYSTEMATIC_NAME>
2-methyl-1-(2-methylpropylsulfanyl)propane hydrate

> <PUBCHEM_IUPAC_TRADITIONAL_NAME>
1-(isobutylthio)-2-methyl-propane hydrate

> <PUBCHEM_IUPAC_INCHI>
InChI=1S/C8H18S.H2O/c1-7(2)5-9-6-8(3)4;/h7-8H,5-6H2,1-4H3;1H2

> <PUBCHEM_IUPAC_INCHIKEY>
QSWAMAOKVTXZPD-UHFFFAOYSA-N

> <PUBCHEM_EXACT_MASS>
164.123486

> <PUBCHEM_MOLECULAR_FORMULA>
C8H20OS

> <PUBCHEM_MOLECULAR_WEIGHT>
164.3088

> <PUBCHEM_OPENEYE_CAN_SMILES>
CC(C)CSCC(C)C.O

> <PUBCHEM_OPENEYE_ISO_SMILES>
CC(C)CSCC(C)C.O

> <PUBCHEM_CACTVS_TPSA>
26.3

> <PUBCHEM_MONOISOTOPIC_WEIGHT>
164.123486

> <PUBCHEM_TOTAL_CHARGE>
0

> <PUBCHEM_HEAVY_ATOM_COUNT>
10

> <PUBCHEM_ATOM_DEF_STEREO_COUNT>
0

> <PUBCHEM_ATOM_UDEF_STEREO_COUNT>
0

> <PUBCHEM_BOND_DEF_STEREO_COUNT>
0

> <PUBCHEM_BOND_UDEF_STEREO_COUNT>
0

> <PUBCHEM_ISOTOPIC_ATOM_COUNT>
0

> <PUBCHEM_COMPONENT_COUNT>
2

> <PUBCHEM_CACTVS_TAUTO_COUNT>
1

> <PUBCHEM_COORDINATE_TYPE>
1
5
255

$$$$

