   Color/Form

     * Orange prisms from water
     * Yellow-brown leaflets containing water of crystallization
     * Yellow-brown to orange prisms

   from [1]HSDB

   Melting Point
        80-90 deg C /Monohydrate/; 143-145 deg C /Anhydrous/
   from [2]HSDB

   Dissociation Constants
        pKa1 = 3.1 /amine/; pKa2 = 7.6 /phenol/ at 25 deg C
   from [3]HSDB

   Octanol/Water Partition Coefficient
        log Kow = 1.26
   from [4]HSDB

   Solubilities

     * Soluble in ethanol, diethyl ether, acetic acid, warm benzene
     * Soluble in acetone
     * In water, 925 mg/L at 23 deg C

   from [5]HSDB

   Spectral Properties

     * IR: 296 (Sadtler Research Laboratories IR Grating Collection)
     * UV: 570 (Sadtler Research Laboratories Spectral Collection)
     * 1H NMR: 2824 (Sadtler Research Laboratories Spectral Collection)
     * MASS: 70029 (NIST/EPA/MSDC Mass Spectral Database, 1990 Version)

   from [6]HSDB

   Vapor Pressure
        3.5X10-5 mm Hg at 25 deg C (est)
   from [7]HSDB

   Other Chemical/Physical Properties

     * When heated to decomposition it emits toxic fumes of NOx.
     * Henry's Law constant = 2.2X10-12 atm-cu m/mole at 25 deg C (est)
     * Hydroxyl radical reaction rate constant = 7.0X10-12 cu
       cm/molecule-sec at 25 deg C (est)

   from [8]HSDB

   Computed Properties
   Molecular Weight                  154.12344 [g/mol]
   Molecular Formula                 C[6]H[6]N[2]O[3]
   XLogP3                            1.5
   H-Bond Donor                      2
   H-Bond Acceptor                   4
   Rotatable Bond Count              0
   Tautomer Count                    5
   Exact Mass                        154.037842
   MonoIsotopic Mass                 154.037842
   Topological Polar Surface Area    92.1
   Heavy Atom Count                  11
   Formal Charge                     0
   Complexity                        156
   Isotope Atom Count                0
   Defined Atom Stereocenter Count   0
   Undefined Atom Stereocenter Count 0
   Defined Bond Stereocenter Count   0
   Undefined Bond Stereocenter Count 0
   Covalently-Bonded Unit Count      1
   Feature 3D Acceptor Count         2
   Feature 3D Donor Count            2
   Feature 3D Anion Count            1
   Feature 3D Cation Count           1
   Feature 3D Ring Count             1
   Effective Rotor Count             1
   Conformer Sampling RMSD           0.4
   CID Conformer Count               [9]1

References

   1. http://toxnet.nlm.nih.gov/cgi-bin/sis/search/r?dbs+hsdb:@term+@rn+@rel+99-57-0
   2. http://toxnet.nlm.nih.gov/cgi-bin/sis/search/r?dbs+hsdb:@term+@rn+@rel+99-57-0
   3. http://toxnet.nlm.nih.gov/cgi-bin/sis/search/r?dbs+hsdb:@term+@rn+@rel+99-57-0
   4. http://toxnet.nlm.nih.gov/cgi-bin/sis/search/r?dbs+hsdb:@term+@rn+@rel+99-57-0
   5. http://toxnet.nlm.nih.gov/cgi-bin/sis/search/r?dbs+hsdb:@term+@rn+@rel+99-57-0
   6. http://toxnet.nlm.nih.gov/cgi-bin/sis/search/r?dbs+hsdb:@term+@rn+@rel+99-57-0
   7. http://toxnet.nlm.nih.gov/cgi-bin/sis/search/r?dbs+hsdb:@term+@rn+@rel+99-57-0
   8. http://toxnet.nlm.nih.gov/cgi-bin/sis/search/r?dbs+hsdb:@term+@rn+@rel+99-57-0
   9. http://pubchem.ncbi.nlm.nih.gov/vw3d/vw3d.cgi?cid=3613389
