   Color/Form

     * WHITE, CRYSTALLINE
     * White powder

   from [1]HSDB

   Boiling Point
        154-160 deg C at 0.06 mm Hg
   from [2]HSDB

   Melting Point
        104 deg C
   from [3]HSDB

   Corrosivity
        Noncorrosive
   from [4]HSDB

   Density/Specific Gravity
        1.115 at 20 deg C
   from [5]HSDB

   Dissociation Constants
        pKa = 4.30 (weak base)
   from [6]HSDB

   Octanol/Water Partition Coefficient
        log Kow = 3.74
   from [7]HSDB

   Solubilities

     * Readily soluble in organic solvents
     * Solubilities in organic solvents at 20 deg C

       Solvent

   g/L

   Acetone 220
   Hexane 9
   n-Octanol 130
   Methanol 220
   Toluene 45

     READILY SOL IN ETHYLGLYCOL MONOETHYL ETHER, ISOPROPANOL AND XYLENE AT
   20-25 DEG C

     Also readily soluble in dioxane, diethyl ether, xylene, chloroform,
   carbon tetrachloride, dimethylformamide. Slightly soluble in petroleum
   ether.

     In water, 25 mg/L at 20 deg C

   from [8]HSDB

   Vapor Pressure
        1.69X10-6 mm Hg at 25 deg C
   from [9]HSDB

   Other Chemical/Physical Properties

     * Henry's Law constant = 1.15X10-8 atm-cu m/mol at 25 deg C (est)
     * Hydroxyl radical reaction rate constant = 1.07X10-11 cu
       cm/molec-sec at 25 deg C (est)

   from [10]HSDB

   Computed Properties
   Molecular Weight                  241.35636 [g/mol]
   Molecular Formula                 C[10]H[19]N[5]S
   XLogP3                            3.7
   H-Bond Donor                      2
   H-Bond Acceptor                   6
   Rotatable Bond Count              5
   Tautomer Count                    9
   Exact Mass                        241.136117
   MonoIsotopic Mass                 241.136117
   Topological Polar Surface Area    88
   Heavy Atom Count                  16
   Formal Charge                     0
   Complexity                        206
   Isotope Atom Count                0
   Defined Atom Stereocenter Count   0
   Undefined Atom Stereocenter Count 0
   Defined Bond Stereocenter Count   0
   Undefined Bond Stereocenter Count 0
   Covalently-Bonded Unit Count      1
   Feature 3D Donor Count            2
   Feature 3D Cation Count           2
   Feature 3D Hydrophobe Count       2
   Feature 3D Ring Count             1
   Effective Rotor Count             5
   Conformer Sampling RMSD           0.6
   CID Conformer Count               [11]106

References

   1. http://toxnet.nlm.nih.gov/cgi-bin/sis/search/r?dbs+hsdb:@term+@rn+@rel+886-50-0
   2. http://toxnet.nlm.nih.gov/cgi-bin/sis/search/r?dbs+hsdb:@term+@rn+@rel+886-50-0
   3. http://toxnet.nlm.nih.gov/cgi-bin/sis/search/r?dbs+hsdb:@term+@rn+@rel+886-50-0
   4. http://toxnet.nlm.nih.gov/cgi-bin/sis/search/r?dbs+hsdb:@term+@rn+@rel+886-50-0
   5. http://toxnet.nlm.nih.gov/cgi-bin/sis/search/r?dbs+hsdb:@term+@rn+@rel+886-50-0
   6. http://toxnet.nlm.nih.gov/cgi-bin/sis/search/r?dbs+hsdb:@term+@rn+@rel+886-50-0
   7. http://toxnet.nlm.nih.gov/cgi-bin/sis/search/r?dbs+hsdb:@term+@rn+@rel+886-50-0
   8. http://toxnet.nlm.nih.gov/cgi-bin/sis/search/r?dbs+hsdb:@term+@rn+@rel+886-50-0
   9. http://toxnet.nlm.nih.gov/cgi-bin/sis/search/r?dbs+hsdb:@term+@rn+@rel+886-50-0
  10. http://toxnet.nlm.nih.gov/cgi-bin/sis/search/r?dbs+hsdb:@term+@rn+@rel+886-50-0
  11. http://pubchem.ncbi.nlm.nih.gov/vw3d/vw3d.cgi?cid=13450
