121846
  -OEChem-07051213042D

 42 43  0     1  0  0  0  0  0999 V2000
    3.4030   -1.1830    0.0000 S   0  0  0  0  0  0  0  0  0  0  0  0
    4.2690    2.3170    0.0000 O   0  0  0  0  0  0  0  0  0  0  0  0
    2.5369    0.3170    0.0000 O   0  0  0  0  0  0  0  0  0  0  0  0
    3.9030   -2.0490    0.0000 O   0  0  0  0  0  0  0  0  0  0  0  0
    2.9030   -0.3170    0.0000 O   0  0  0  0  0  0  0  0  0  0  0  0
    4.2690   -0.6830    0.0000 N   0  0  3  0  0  0  0  0  0  0  0  0
    8.6632   -0.2105    0.0000 N   0  0  0  0  0  0  0  0  0  0  0  0
    4.2690    0.3170    0.0000 C   0  0  2  0  0  0  0  0  0  0  0  0
    3.4030    0.8170    0.0000 C   0  0  2  0  0  0  0  0  0  0  0  0
    3.4030    1.8170    0.0000 C   0  0  0  0  0  0  0  0  0  0  0  0
    5.1350    0.8170    0.0000 C   0  0  0  0  0  0  0  0  0  0  0  0
    5.1350    1.8170    0.0000 C   0  0  0  0  0  0  0  0  0  0  0  0
    2.9030    2.6830    0.0000 C   0  0  0  0  0  0  0  0  0  0  0  0
    2.4030    1.8170    0.0000 C   0  0  0  0  0  0  0  0  0  0  0  0
    6.0290    0.2823    0.0000 C   0  0  0  0  0  0  0  0  0  0  0  0
    5.1350   -1.1830    0.0000 C   0  0  0  0  0  0  0  0  0  0  0  0
    2.5369   -1.6830    0.0000 C   0  0  0  0  0  0  0  0  0  0  0  0
    6.0290    2.3516    0.0000 C   0  0  0  0  0  0  0  0  0  0  0  0
    6.9350    0.7962    0.0000 C   0  0  0  0  0  0  0  0  0  0  0  0
    6.9350    1.8378    0.0000 C   0  0  0  0  0  0  0  0  0  0  0  0
    2.5369   -2.6830    0.0000 C   0  0  0  0  0  0  0  0  0  0  0  0
    7.7991    0.2928    0.0000 C   0  0  0  0  0  0  0  0  0  0  0  0
    4.8059    0.0070    0.0000 H   0  0  0  0  0  0  0  0  0  0  0  0
    3.4030    0.1970    0.0000 H   0  0  0  0  0  0  0  0  0  0  0  0
    3.4399    2.9930    0.0000 H   0  0  0  0  0  0  0  0  0  0  0  0
    2.5930    3.2200    0.0000 H   0  0  0  0  0  0  0  0  0  0  0  0
    2.3660    2.3730    0.0000 H   0  0  0  0  0  0  0  0  0  0  0  0
    2.4030    2.4370    0.0000 H   0  0  0  0  0  0  0  0  0  0  0  0
    1.7830    1.8170    0.0000 H   0  0  0  0  0  0  0  0  0  0  0  0
    2.4030    1.1970    0.0000 H   0  0  0  0  0  0  0  0  0  0  0  0
    6.0218   -0.3376    0.0000 H   0  0  0  0  0  0  0  0  0  0  0  0
    4.8250   -1.7200    0.0000 H   0  0  0  0  0  0  0  0  0  0  0  0
    5.6720   -1.4930    0.0000 H   0  0  0  0  0  0  0  0  0  0  0  0
    5.4450   -0.6461    0.0000 H   0  0  0  0  0  0  0  0  0  0  0  0
    2.0000    0.6270    0.0000 H   0  0  0  0  0  0  0  0  0  0  0  0
    2.3249   -1.1004    0.0000 H   0  0  0  0  0  0  0  0  0  0  0  0
    1.9264   -1.7907    0.0000 H   0  0  0  0  0  0  0  0  0  0  0  0
    6.0218    2.9716    0.0000 H   0  0  0  0  0  0  0  0  0  0  0  0
    7.4708    2.1499    0.0000 H   0  0  0  0  0  0  0  0  0  0  0  0
    1.9169   -2.6830    0.0000 H   0  0  0  0  0  0  0  0  0  0  0  0
    2.5369   -3.3030    0.0000 H   0  0  0  0  0  0  0  0  0  0  0  0
    3.1569   -2.6830    0.0000 H   0  0  0  0  0  0  0  0  0  0  0  0
  1  4  2  0  0  0  0
  1  5  2  0  0  0  0
  1  6  1  0  0  0  0
  1 17  1  0  0  0  0
  2 10  1  0  0  0  0
  2 12  1  0  0  0  0
  9  3  1  1  0  0  0
  3 35  1  0  0  0  0
  8  6  1  6  0  0  0
  6 16  1  0  0  0  0
  7 22  3  0  0  0  0
  8  9  1  0  0  0  0
  8 11  1  0  0  0  0
  8 23  1  0  0  0  0
  9 10  1  0  0  0  0
  9 24  1  0  0  0  0
 10 13  1  0  0  0  0
 10 14  1  0  0  0  0
 11 12  2  0  0  0  0
 11 15  1  0  0  0  0
 12 18  1  0  0  0  0
 13 25  1  0  0  0  0
 13 26  1  0  0  0  0
 13 27  1  0  0  0  0
 14 28  1  0  0  0  0
 14 29  1  0  0  0  0
 14 30  1  0  0  0  0
 15 19  2  0  0  0  0
 15 31  1  0  0  0  0
 16 32  1  0  0  0  0
 16 33  1  0  0  0  0
 16 34  1  0  0  0  0
 17 21  1  0  0  0  0
 17 36  1  0  0  0  0
 17 37  1  0  0  0  0
 18 20  2  0  0  0  0
 18 38  1  0  0  0  0
 19 20  1  0  0  0  0
 19 22  1  0  0  0  0
 20 39  1  0  0  0  0
 21 40  1  0  0  0  0
 21 41  1  0  0  0  0
 21 42  1  0  0  0  0
M  END
> <PUBCHEM_COMPOUND_CID>
121846

> <PUBCHEM_COMPOUND_CANONICALIZED>
1

> <PUBCHEM_CACTVS_COMPLEXITY>
560

> <PUBCHEM_CACTVS_HBOND_ACCEPTOR>
6

> <PUBCHEM_CACTVS_HBOND_DONOR>
1

> <PUBCHEM_CACTVS_ROTATABLE_BOND>
3

> <PUBCHEM_CACTVS_SUBSKEYS>
AAADceBzOABAAAAAAAAAAAAAAAAAAAAAAAA0QAAAAAAAAACRAAAAHgQASAAADHzl2AayBoIABgKQBiBCAHDiCAAgIAAIiAAODIgPtiKEsRuGeCjmwBEbqA/QwPAOIAACAAAIAABAAAQAABAAAAAAAAAAAA==

> <PUBCHEM_IUPAC_OPENEYE_NAME>
N-[(3R,4S)-6-cyano-3-hydroxy-2,2-dimethyl-chroman-4-yl]-N-methyl-ethanesulfonamide

> <PUBCHEM_IUPAC_CAS_NAME>
N-[(3R,4S)-6-cyano-3-hydroxy-2,2-dimethyl-3,4-dihydro-2H-1-benzopyran-4-yl]-N-methylethanesulfonamide

> <PUBCHEM_IUPAC_NAME>
N-[(3R,4S)-6-cyano-3-hydroxy-2,2-dimethyl-3,4-dihydrochromen-4-yl]-N-methylethanesulfonamide

> <PUBCHEM_IUPAC_SYSTEMATIC_NAME>
N-[(3R,4S)-6-cyano-2,2-dimethyl-3-oxidanyl-3,4-dihydrochromen-4-yl]-N-methyl-ethanesulfonamide

> <PUBCHEM_IUPAC_TRADITIONAL_NAME>
N-[(3R,4S)-6-cyano-3-hydroxy-2,2-dimethyl-chroman-4-yl]-N-methyl-ethanesulfonamide

> <PUBCHEM_IUPAC_INCHI>
InChI=1S/C15H20N2O4S/c1-5-22(19,20)17(4)13-11-8-10(9-16)6-7-12(11)21-15(2,3)14(13)18/h6-8,13-14,18H,5H2,1-4H3/t13-,14+/m0/s1

> <PUBCHEM_IUPAC_INCHIKEY>
HVSJHHXUORMCGK-UONOGXRCSA-N

> <PUBCHEM_XLOGP3_AA>
0.9

> <PUBCHEM_EXACT_MASS>
324.114378

> <PUBCHEM_MOLECULAR_FORMULA>
C15H20N2O4S

> <PUBCHEM_MOLECULAR_WEIGHT>
324.3953

> <PUBCHEM_OPENEYE_CAN_SMILES>
CCS(=O)(=O)N(C)C1C(C(OC2=C1C=C(C=C2)C#N)(C)C)O

> <PUBCHEM_OPENEYE_ISO_SMILES>
CCS(=O)(=O)N(C)[C@@H]1[C@H](C(OC2=C1C=C(C=C2)C#N)(C)C)O

> <PUBCHEM_CACTVS_TPSA>
99

> <PUBCHEM_MONOISOTOPIC_WEIGHT>
324.114378

> <PUBCHEM_TOTAL_CHARGE>
0

> <PUBCHEM_HEAVY_ATOM_COUNT>
22

> <PUBCHEM_ATOM_DEF_STEREO_COUNT>
2

> <PUBCHEM_ATOM_UDEF_STEREO_COUNT>
0

> <PUBCHEM_BOND_DEF_STEREO_COUNT>
0

> <PUBCHEM_BOND_UDEF_STEREO_COUNT>
0

> <PUBCHEM_ISOTOPIC_ATOM_COUNT>
0

> <PUBCHEM_COMPONENT_COUNT>
1

> <PUBCHEM_CACTVS_TAUTO_COUNT>
1

> <PUBCHEM_COORDINATE_TYPE>
1
5
255

> <PUBCHEM_BONDANNOTATIONS>
11  12  8
11  15  8
12  18  8
15  19  8
18  20  8
19  20  8
9  3  5
8  6  6

$$$$

