5695
  -OEChem-06261200492D

 48 47  0     0  0  0  0  0  0999 V2000
    4.9642   -0.5115    0.0000 S   0  0  0  0  0  0  0  0  0  0  0  0
    7.2125    3.3891    0.0000 S   0  0  0  0  0  0  0  0  0  0  0  0
    3.7320    2.3545    0.0000 S   0  0  0  0  0  0  0  0  0  0  0  0
    3.4641   -1.3776    0.0000 Na  0  3  0  0  0  0  0  0  0  0  0  0
    8.0611    4.8990    0.0000 Na  0  3  0  0  0  0  0  0  0  0  0  0
    2.0000    2.3545    0.0000 Na  0  3  0  0  0  0  0  0  0  0  0  0
    4.4642   -1.3776    0.0000 O   0  5  0  0  0  0  0  0  0  0  0  0
    7.2009    4.3891    0.0000 O   0  5  0  0  0  0  0  0  0  0  0  0
    4.0981   -0.0115    0.0000 O   0  0  0  0  0  0  0  0  0  0  0  0
    5.8301   -1.0115    0.0000 O   0  0  0  0  0  0  0  0  0  0  0  0
    2.8660    2.8545    0.0000 O   0  5  0  0  0  0  0  0  0  0  0  0
    8.2124    3.4007    0.0000 O   0  0  0  0  0  0  0  0  0  0  0  0
    6.2126    3.3776    0.0000 O   0  0  0  0  0  0  0  0  0  0  0  0
    3.2320    1.4885    0.0000 O   0  0  0  0  0  0  0  0  0  0  0  0
    4.2320    3.2205    0.0000 O   0  0  0  0  0  0  0  0  0  0  0  0
    9.2239    0.2967    0.0000 O   0  0  0  0  0  0  0  0  0  0  0  0
   12.1837   -3.2018    0.0000 O   0  5  0  0  0  0  0  0  0  0  0  0
    9.1639   -4.8990    0.0000 O   0  5  0  0  0  0  0  0  0  0  0  0
   12.2037   -1.4699    0.0000 O   0  0  0  0  0  0  0  0  0  0  0  0
    7.6740   -4.0158    0.0000 O   0  0  0  0  0  0  0  0  0  0  0  0
    7.7141   -0.5518    0.0000 N   0  0  0  0  0  0  0  0  0  0  0  0
   11.6937   -2.3301    0.0000 N   0  3  0  0  0  0  0  0  0  0  0  0
    8.6740   -4.0273    0.0000 N   0  3  0  0  0  0  0  0  0  0  0  0
    6.3301    0.8545    0.0000 C   0  0  0  0  0  0  0  0  0  0  0  0
    6.3301    1.8545    0.0000 C   0  0  0  0  0  0  0  0  0  0  0  0
    5.4641    0.3545    0.0000 C   0  0  0  0  0  0  0  0  0  0  0  0
    7.2241    2.3892    0.0000 C   0  0  0  0  0  0  0  0  0  0  0  0
    7.2241    0.3199    0.0000 C   0  0  0  0  0  0  0  0  0  0  0  0
    5.4641    2.3545    0.0000 C   0  0  0  0  0  0  0  0  0  0  0  0
    4.5981    1.8545    0.0000 C   0  0  0  0  0  0  0  0  0  0  0  0
    4.5981    0.8545    0.0000 C   0  0  0  0  0  0  0  0  0  0  0  0
    8.1301    1.8753    0.0000 C   0  0  0  0  0  0  0  0  0  0  0  0
    8.1301    0.8337    0.0000 C   0  0  0  0  0  0  0  0  0  0  0  0
    8.7140   -0.5634    0.0000 C   0  0  0  0  0  0  0  0  0  0  0  0
    9.2039   -1.4352    0.0000 C   0  0  0  0  0  0  0  0  0  0  0  0
    8.6940   -2.2953    0.0000 C   0  0  0  0  0  0  0  0  0  0  0  0
   10.2038   -1.4468    0.0000 C   0  0  0  0  0  0  0  0  0  0  0  0
   10.6938   -2.3185    0.0000 C   0  0  0  0  0  0  0  0  0  0  0  0
    9.1840   -3.1671    0.0000 C   0  0  0  0  0  0  0  0  0  0  0  0
   10.1838   -3.1787    0.0000 C   0  0  0  0  0  0  0  0  0  0  0  0
    5.4641    2.9745    0.0000 H   0  0  0  0  0  0  0  0  0  0  0  0
    4.0611    0.5445    0.0000 H   0  0  0  0  0  0  0  0  0  0  0  0
    8.6659    0.5216    0.0000 H   0  0  0  0  0  0  0  0  0  0  0  0
    8.6659    2.1874    0.0000 H   0  0  0  0  0  0  0  0  0  0  0  0
    7.3979   -1.0852    0.0000 H   0  0  0  0  0  0  0  0  0  0  0  0
    8.0740   -2.2882    0.0000 H   0  0  0  0  0  0  0  0  0  0  0  0
   10.5200   -0.9134    0.0000 H   0  0  0  0  0  0  0  0  0  0  0  0
   10.4876   -3.7192    0.0000 H   0  0  0  0  0  0  0  0  0  0  0  0
  1  7  1  0  0  0  0
  1  9  2  0  0  0  0
  1 10  2  0  0  0  0
  1 26  1  0  0  0  0
  2  8  1  0  0  0  0
  2 12  2  0  0  0  0
  2 13  2  0  0  0  0
  2 27  1  0  0  0  0
  3 11  1  0  0  0  0
  3 14  2  0  0  0  0
  3 15  2  0  0  0  0
  3 30  1  0  0  0  0
 16 34  2  0  0  0  0
 17 22  1  0  0  0  0
 18 23  1  0  0  0  0
 19 22  2  0  0  0  0
 20 23  2  0  0  0  0
 21 28  1  0  0  0  0
 21 34  1  0  0  0  0
 21 45  1  0  0  0  0
 22 38  1  0  0  0  0
 23 39  1  0  0  0  0
 24 25  1  0  0  0  0
 24 26  1  0  0  0  0
 24 28  2  0  0  0  0
 25 27  2  0  0  0  0
 25 29  1  0  0  0  0
 26 31  2  0  0  0  0
 27 32  1  0  0  0  0
 28 33  1  0  0  0  0
 29 30  2  0  0  0  0
 29 41  1  0  0  0  0
 30 31  1  0  0  0  0
 31 42  1  0  0  0  0
 32 33  2  0  0  0  0
 32 44  1  0  0  0  0
 33 43  1  0  0  0  0
 34 35  1  0  0  0  0
 35 36  2  0  0  0  0
 35 37  1  0  0  0  0
 36 39  1  0  0  0  0
 36 46  1  0  0  0  0
 37 38  2  0  0  0  0
 37 47  1  0  0  0  0
 38 40  1  0  0  0  0
 39 40  2  0  0  0  0
 40 48  1  0  0  0  0
M  CHG  8   4   1   5   1   6   1   7  -1   8  -1  11  -1  17  -1  18  -1
M  CHG  2  22   1  23   1
M  END
> <PUBCHEM_COMPOUND_CID>
5695

> <PUBCHEM_COMPOUND_CANONICALIZED>
1

> <PUBCHEM_CACTVS_COMPLEXITY>
1230

> <PUBCHEM_CACTVS_HBOND_ACCEPTOR>
14

> <PUBCHEM_CACTVS_HBOND_DONOR>
1

> <PUBCHEM_CACTVS_ROTATABLE_BOND>
5

> <PUBCHEM_CACTVS_SUBSKEYS>
AAADccB7PDBgAAAAAAAAAAAAAAAAAAAAAAAwYMAAAAAAAADBVAAAHgQUAAAADAiB2AAwwcLQQAKJAiVSU3DCAEAlAgAoiBkAZMoIIDLA1dGEIQxglADIyYcciICOkAQAwEQWAAAgCAGAiCwAAAAAAAAAAA==

> <PUBCHEM_IUPAC_OPENEYE_NAME>
trisodium 8-[(3,5-dinitrobenzoyl)amino]naphthalene-1,3,5-trisulfonate

> <PUBCHEM_IUPAC_CAS_NAME>
trisodium 8-[[(3,5-dinitrophenyl)-oxomethyl]amino]naphthalene-1,3,5-trisulfonate

> <PUBCHEM_IUPAC_NAME>
trisodium 8-[(3,5-dinitrobenzoyl)amino]naphthalene-1,3,5-trisulfonate

> <PUBCHEM_IUPAC_SYSTEMATIC_NAME>
trisodium 8-[(3,5-dinitrophenyl)carbonylamino]naphthalene-1,3,5-trisulfonate

> <PUBCHEM_IUPAC_TRADITIONAL_NAME>
trisodium 8-[(3,5-dinitrobenzoyl)amino]naphthalene-1,3,5-trisulfonate

> <PUBCHEM_IUPAC_INCHI>
InChI=1S/C17H11N3O14S3.3Na/c21-17(8-3-9(19(22)23)5-10(4-8)20(24)25)18-13-1-2-14(36(29,30)31)12-6-11(35(26,27)28)7-15(16(12)13)37(32,33)34;;;/h1-7H,(H,18,21)(H,26,27,28)(H,29,30,31)(H,32,33,34);;;/q;3*+1/p-3

> <PUBCHEM_IUPAC_INCHIKEY>
MDABKYZIEAEXNJ-UHFFFAOYSA-K

> <PUBCHEM_EXACT_MASS>
642.886148

> <PUBCHEM_MOLECULAR_FORMULA>
C17H8N3Na3O14S3

> <PUBCHEM_MOLECULAR_WEIGHT>
643.421428

> <PUBCHEM_OPENEYE_CAN_SMILES>
C1=CC(=C2C=C(C=C(C2=C1NC(=O)C3=CC(=CC(=C3)[N+](=O)[O-])[N+](=O)[O-])S(=O)(=O)[O-])S(=O)(=O)[O-])S(=O)(=O)[O-].[Na+].[Na+].[Na+]

> <PUBCHEM_OPENEYE_ISO_SMILES>
C1=CC(=C2C=C(C=C(C2=C1NC(=O)C3=CC(=CC(=C3)[N+](=O)[O-])[N+](=O)[O-])S(=O)(=O)[O-])S(=O)(=O)[O-])S(=O)(=O)[O-].[Na+].[Na+].[Na+]

> <PUBCHEM_CACTVS_TPSA>
318

> <PUBCHEM_MONOISOTOPIC_WEIGHT>
642.886148

> <PUBCHEM_TOTAL_CHARGE>
0

> <PUBCHEM_HEAVY_ATOM_COUNT>
40

> <PUBCHEM_ATOM_DEF_STEREO_COUNT>
0

> <PUBCHEM_ATOM_UDEF_STEREO_COUNT>
0

> <PUBCHEM_BOND_DEF_STEREO_COUNT>
0

> <PUBCHEM_BOND_UDEF_STEREO_COUNT>
0

> <PUBCHEM_ISOTOPIC_ATOM_COUNT>
0

> <PUBCHEM_COMPONENT_COUNT>
4

> <PUBCHEM_CACTVS_TAUTO_COUNT>
2

> <PUBCHEM_NONSTANDARDBOND>
4  7  6
5  8  6
6  11  6

> <PUBCHEM_COORDINATE_TYPE>
1
5
255

> <PUBCHEM_BONDANNOTATIONS>
24  25  8
24  26  8
24  28  8
25  27  8
25  29  8
26  31  8
27  32  8
28  33  8
29  30  8
30  31  8
32  33  8
35  36  8
35  37  8
36  39  8
37  38  8
38  40  8
39  40  8

$$$$

