47205751
  -OEChem-06241223002D

 41 41  0     0  0  0  0  0  0999 V2000
    6.3301    2.8170    0.0000 O   0  0  0  0  0  0  0  0  0  0  0  0
    3.7320   -1.6830    0.0000 O   0  0  0  0  0  0  0  0  0  0  0  0
    7.1962   -0.6830    0.0000 O   0  0  0  0  0  0  0  0  0  0  0  0
    7.1962    1.3170    0.0000 N   0  0  0  0  0  0  0  0  0  0  0  0
    5.4641   -0.6830    0.0000 N   0  0  0  0  0  0  0  0  0  0  0  0
    4.5981   -3.1830    0.0000 N   0  0  0  0  0  0  0  0  0  0  0  0
    8.0622    2.8170    0.0000 C   0  0  0  0  0  0  0  0  0  0  0  0
    8.9282    3.3170    0.0000 C   0  0  0  0  0  0  0  0  0  0  0  0
    7.5622    3.6830    0.0000 C   0  0  0  0  0  0  0  0  0  0  0  0
    8.5622    1.9510    0.0000 C   0  0  0  0  0  0  0  0  0  0  0  0
    7.1962    2.3170    0.0000 C   0  0  0  0  0  0  0  0  0  0  0  0
    6.3301    0.8170    0.0000 C   0  0  0  0  0  0  0  0  0  0  0  0
    6.3301   -0.1830    0.0000 C   0  0  0  0  0  0  0  0  0  0  0  0
    5.4641   -1.6830    0.0000 C   0  0  0  0  0  0  0  0  0  0  0  0
    4.5981   -2.1830    0.0000 C   0  0  0  0  0  0  0  0  0  0  0  0
    6.3301   -2.1830    0.0000 C   0  0  0  0  0  0  0  0  0  0  0  0
    6.3301   -3.1830    0.0000 C   0  0  0  0  0  0  0  0  0  0  0  0
    2.8660   -2.1830    0.0000 C   0  0  0  0  0  0  0  0  0  0  0  0
    5.4641   -3.6830    0.0000 C   0  0  0  0  0  0  0  0  0  0  0  0
    2.0000   -1.6830    0.0000 C   0  0  0  0  0  0  0  0  0  0  0  0
    9.2382    2.7800    0.0000 H   0  0  0  0  0  0  0  0  0  0  0  0
    9.4651    3.6270    0.0000 H   0  0  0  0  0  0  0  0  0  0  0  0
    8.6182    3.8539    0.0000 H   0  0  0  0  0  0  0  0  0  0  0  0
    8.0991    3.9930    0.0000 H   0  0  0  0  0  0  0  0  0  0  0  0
    7.2522    4.2200    0.0000 H   0  0  0  0  0  0  0  0  0  0  0  0
    7.0252    3.3730    0.0000 H   0  0  0  0  0  0  0  0  0  0  0  0
    8.0252    1.6410    0.0000 H   0  0  0  0  0  0  0  0  0  0  0  0
    8.8722    1.4140    0.0000 H   0  0  0  0  0  0  0  0  0  0  0  0
    9.0991    2.2610    0.0000 H   0  0  0  0  0  0  0  0  0  0  0  0
    7.7331    1.0070    0.0000 H   0  0  0  0  0  0  0  0  0  0  0  0
    6.1181    1.3996    0.0000 H   0  0  0  0  0  0  0  0  0  0  0  0
    5.7196    0.7093    0.0000 H   0  0  0  0  0  0  0  0  0  0  0  0
    4.9272   -0.3730    0.0000 H   0  0  0  0  0  0  0  0  0  0  0  0
    6.8671   -1.8730    0.0000 H   0  0  0  0  0  0  0  0  0  0  0  0
    6.8671   -3.4930    0.0000 H   0  0  0  0  0  0  0  0  0  0  0  0
    2.4675   -2.6580    0.0000 H   0  0  0  0  0  0  0  0  0  0  0  0
    3.2646   -2.6580    0.0000 H   0  0  0  0  0  0  0  0  0  0  0  0
    5.4641   -4.3030    0.0000 H   0  0  0  0  0  0  0  0  0  0  0  0
    2.3100   -1.1461    0.0000 H   0  0  0  0  0  0  0  0  0  0  0  0
    1.4631   -1.3730    0.0000 H   0  0  0  0  0  0  0  0  0  0  0  0
    1.6900   -2.2200    0.0000 H   0  0  0  0  0  0  0  0  0  0  0  0
  1 11  2  0  0  0  0
  2 15  1  0  0  0  0
  2 18  1  0  0  0  0
  3 13  2  0  0  0  0
  4 11  1  0  0  0  0
  4 12  1  0  0  0  0
  4 30  1  0  0  0  0
  5 13  1  0  0  0  0
  5 14  1  0  0  0  0
  5 33  1  0  0  0  0
  6 15  1  0  0  0  0
  6 19  2  0  0  0  0
  7  8  1  0  0  0  0
  7  9  1  0  0  0  0
  7 10  1  0  0  0  0
  7 11  1  0  0  0  0
  8 21  1  0  0  0  0
  8 22  1  0  0  0  0
  8 23  1  0  0  0  0
  9 24  1  0  0  0  0
  9 25  1  0  0  0  0
  9 26  1  0  0  0  0
 10 27  1  0  0  0  0
 10 28  1  0  0  0  0
 10 29  1  0  0  0  0
 12 13  1  0  0  0  0
 12 31  1  0  0  0  0
 12 32  1  0  0  0  0
 14 15  2  0  0  0  0
 14 16  1  0  0  0  0
 16 17  2  0  0  0  0
 16 34  1  0  0  0  0
 17 19  1  0  0  0  0
 17 35  1  0  0  0  0
 18 20  1  0  0  0  0
 18 36  1  0  0  0  0
 18 37  1  0  0  0  0
 19 38  1  0  0  0  0
 20 39  1  0  0  0  0
 20 40  1  0  0  0  0
 20 41  1  0  0  0  0
M  END
> <PUBCHEM_COMPOUND_CID>
47205751

> <PUBCHEM_COMPOUND_CANONICALIZED>
1

> <PUBCHEM_CACTVS_COMPLEXITY>
339

> <PUBCHEM_CACTVS_HBOND_ACCEPTOR>
4

> <PUBCHEM_CACTVS_HBOND_DONOR>
2

> <PUBCHEM_CACTVS_ROTATABLE_BOND>
6

> <PUBCHEM_CACTVS_SUBSKEYS>
AAADceBzMAAAAAAAAAAAAAAAAAAAAAAAAAAsAAAAAAAAAAABgAAAHgAQAAAADgjhkgY+xJLIFACoADV3VACCiCAxMiAI2KG9fJgOZuLEsbufOCjk1hHY6AaQEAAAAAAAAAAAAAAAAAAAAAAAAAAAAAAAAA==

> <PUBCHEM_IUPAC_OPENEYE_NAME>
N-[2-[(2-ethoxy-3-pyridyl)amino]-2-oxo-ethyl]-2,2-dimethyl-propanamide

> <PUBCHEM_IUPAC_CAS_NAME>
N-[2-[(2-ethoxy-3-pyridinyl)amino]-2-oxoethyl]-2,2-dimethylpropanamide

> <PUBCHEM_IUPAC_NAME>
N-[2-[(2-ethoxypyridin-3-yl)amino]-2-oxoethyl]-2,2-dimethylpropanamide

> <PUBCHEM_IUPAC_SYSTEMATIC_NAME>
N-[2-[(2-ethoxypyridin-3-yl)amino]-2-oxidanylidene-ethyl]-2,2-dimethyl-propanamide

> <PUBCHEM_IUPAC_TRADITIONAL_NAME>
N-[2-[(2-ethoxy-3-pyridyl)amino]-2-keto-ethyl]-2,2-dimethyl-propionamide

> <PUBCHEM_IUPAC_INCHI>
InChI=1S/C14H21N3O3/c1-5-20-12-10(7-6-8-15-12)17-11(18)9-16-13(19)14(2,3)4/h6-8H,5,9H2,1-4H3,(H,16,19)(H,17,18)

> <PUBCHEM_IUPAC_INCHIKEY>
HXAOQFMZABWFNH-UHFFFAOYSA-N

> <PUBCHEM_XLOGP3_AA>
1.4

> <PUBCHEM_EXACT_MASS>
279.158292

> <PUBCHEM_MOLECULAR_FORMULA>
C14H21N3O3

> <PUBCHEM_MOLECULAR_WEIGHT>
279.33484

> <PUBCHEM_OPENEYE_CAN_SMILES>
CCOC1=C(C=CC=N1)NC(=O)CNC(=O)C(C)(C)C

> <PUBCHEM_OPENEYE_ISO_SMILES>
CCOC1=C(C=CC=N1)NC(=O)CNC(=O)C(C)(C)C

> <PUBCHEM_CACTVS_TPSA>
80.3

> <PUBCHEM_MONOISOTOPIC_WEIGHT>
279.158292

> <PUBCHEM_TOTAL_CHARGE>
0

> <PUBCHEM_HEAVY_ATOM_COUNT>
20

> <PUBCHEM_ATOM_DEF_STEREO_COUNT>
0

> <PUBCHEM_ATOM_UDEF_STEREO_COUNT>
0

> <PUBCHEM_BOND_DEF_STEREO_COUNT>
0

> <PUBCHEM_BOND_UDEF_STEREO_COUNT>
0

> <PUBCHEM_ISOTOPIC_ATOM_COUNT>
0

> <PUBCHEM_COMPONENT_COUNT>
1

> <PUBCHEM_CACTVS_TAUTO_COUNT>
6

> <PUBCHEM_COORDINATE_TYPE>
1
5
255

> <PUBCHEM_BONDANNOTATIONS>
14  15  8
14  16  8
16  17  8
17  19  8
6  15  8
6  19  8

$$$$

