   Color/Form
        CRYSTALS
   from [1]HSDB

   Melting Point
        198-199 DEG C
   from [2]HSDB

   Spectral Properties

     * SPECIFIC OPTICAL ROTATION: -56 DEG @ 20 DEG C/D (CONCENTRATION BY
       VOLUME 3 G IN 100 ML ABSOLUTE ALCOHOL)
     * Intense mass spectral peaks: 59 m/z, 150 m/z, 200 m/z, 257 m/z

   from [3]HSDB

   Other Chemical/Physical Properties

     * MAX ABSORPTION (BASE): 240 & 299 NM (A= 198 & 70, 1%, 1 CM)
       /TARTRATE/
     * CRYSTALS; MP: 113-115 DEG C; SPECIFIC OPTICAL ROTATION: -14 DEG @
       20 DEG C/D (CONCENTRATION BY VOLUME = 3 G IN 100 ML WATER); PH OF
       0.2% AQ SOLN IS 3.4 TO 4.0; 1 G SOL IN 45 ML WATER, IN 110 G ALC,
       IN 50 G ETHER /LEVOPHANOL TARTRATE DIHYDRATE/
     * CRYSTALS; MP: 183-185 DEG C; SPECIFIC OPTICAL ROTATION: +34.6 DEG @
       20 DEG C/D (CONCENTRATION BY VOLUME 3 G IN 100 ML WATER); SOL IN
       WATER. /DEXTRO-LEVORPHANOL TARTRATE MONOHYDRATE/
     * PRACTICALLY ODORLESS; PRACTICALLY WHITE CRYSTALLINE POWDER
       /L-TARTRATE DIHYDRATE/
     * CRYSTALS FROM ANISOLE & DIL ALCOHOL; MP: 251-253 DEG C
       /DL-LEVORPHANOL/
     * CRYSTALS; SOL IN H2O; SPARINGLY IN ALCOHOL; PRACTICALLY INSOL IN
       ETHER; MP: 193-5 DEG C. /DL-LEVORPHANOL/
     * MW levorphanol tartrate dihydrate 443-49.
     * Practically white, crystalline powder. /Levorphanol tartrate/
     * Sparingly soluble in water and slightly soluble in alcohol.
       /Levorphanol tartrate/
     * Injection has a pH of 4.2 to 4.4; the pH is adjusted with sodium
       hydroxide. /Levorphanol tartrate/
     * Crystals; MP: 198-199 deg C; specific optical rotation: + 56.3 deg
       at 20 deg C/D (concentration by volume = 3 g in 100 ml absolute
       alcohol) /dextro-Levorphanol/

   from [4]HSDB

   Computed Properties
   Molecular Weight                  257.37062 [g/mol]
   Molecular Formula                 C[17]H[23]NO
   XLogP3                            3.1
   H-Bond Donor                      1
   H-Bond Acceptor                   2
   Rotatable Bond Count              0
   Tautomer Count                    3
   Exact Mass                        257.177964
   MonoIsotopic Mass                 257.177964
   Topological Polar Surface Area    23.5
   Heavy Atom Count                  19
   Formal Charge                     0
   Complexity                        357
   Isotope Atom Count                0
   Defined Atom Stereocenter Count   3
   Undefined Atom Stereocenter Count 0
   Defined Bond Stereocenter Count   0
   Undefined Bond Stereocenter Count 0
   Covalently-Bonded Unit Count      1
   Feature 3D Donor Count            1
   Feature 3D Cation Count           1
   Feature 3D Ring Count             4
   Effective Rotor Count             1.6
   Conformer Sampling RMSD           0.6
   CID Conformer Count               [5]1

References

   1. http://toxnet.nlm.nih.gov/cgi-bin/sis/search/r?dbs+hsdb:@term+@rn+@rel+77-07-6
   2. http://toxnet.nlm.nih.gov/cgi-bin/sis/search/r?dbs+hsdb:@term+@rn+@rel+77-07-6
   3. http://toxnet.nlm.nih.gov/cgi-bin/sis/search/r?dbs+hsdb:@term+@rn+@rel+77-07-6
   4. http://toxnet.nlm.nih.gov/cgi-bin/sis/search/r?dbs+hsdb:@term+@rn+@rel+77-07-6
   5. http://pubchem.ncbi.nlm.nih.gov/vw3d/vw3d.cgi?cid=5359272
