11953911
  -OEChem-07051212552D

 44 46  0     1  0  0  0  0  0999 V2000
    4.2690   -1.8816    0.0000 O   0  0  0  0  0  0  0  0  0  0  0  0
    9.0309   -3.2476    0.0000 O   0  5  0  0  0  0  0  0  0  0  0  0
    9.0309   -1.5155    0.0000 O   0  0  0  0  0  0  0  0  0  0  0  0
    5.1350   -0.3816    0.0000 O   0  0  0  0  0  0  0  0  0  0  0  0
    7.8327    3.9201    0.0000 O   0  0  0  0  0  0  0  0  0  0  0  0
    6.5436    2.7634    0.0000 O   0  0  0  0  0  0  0  0  0  0  0  0
    2.5369   -2.8816    0.0000 O   0  0  0  0  0  0  0  0  0  0  0  0
   11.4826    1.1491    0.0000 O   0  0  0  0  0  0  0  0  0  0  0  0
    3.4030   -4.3816    0.0000 O   0  0  0  0  0  0  0  0  0  0  0  0
   11.1254    2.8439    0.0000 O   0  0  0  0  0  0  0  0  0  0  0  0
    6.9473   -1.5768    0.0000 N   0  3  0  0  0  0  0  0  0  0  0  0
    9.1684    2.4315    0.0000 N   0  0  0  0  0  0  0  0  0  0  0  0
    7.5309   -2.3816    0.0000 C   0  0  1  0  0  0  0  0  0  0  0  0
    6.9473   -3.1863    0.0000 C   0  0  0  0  0  0  0  0  0  0  0  0
    6.0010   -2.8816    0.0000 C   0  0  0  0  0  0  0  0  0  0  0  0
    6.0010   -1.8816    0.0000 C   0  0  0  0  0  0  0  0  0  0  0  0
    7.2579   -0.6263    0.0000 C   0  0  0  0  0  0  0  0  0  0  0  0
    7.8792    1.2747    0.0000 C   0  0  0  0  0  0  0  0  0  0  0  0
    5.1350   -3.3816    0.0000 C   0  0  0  0  0  0  0  0  0  0  0  0
    8.1899    2.2253    0.0000 C   0  0  1  0  0  0  0  0  0  0  0  0
    8.5471    0.5304    0.0000 C   0  0  0  0  0  0  0  0  0  0  0  0
    8.5309   -2.3816    0.0000 C   0  0  0  0  0  0  0  0  0  0  0  0
    5.1350   -1.3816    0.0000 C   0  0  0  0  0  0  0  0  0  0  0  0
    8.2364   -0.4201    0.0000 C   0  0  0  0  0  0  0  0  0  0  0  0
    4.2690   -2.8816    0.0000 C   0  0  0  0  0  0  0  0  0  0  0  0
    9.5256    0.7367    0.0000 C   0  0  0  0  0  0  0  0  0  0  0  0
    9.8363    1.6872    0.0000 C   0  0  0  0  0  0  0  0  0  0  0  0
    7.5221    2.9696    0.0000 C   0  0  0  0  0  0  0  0  0  0  0  0
    3.4030   -3.3816    0.0000 C   0  0  0  0  0  0  0  0  0  0  0  0
   10.8148    1.8934    0.0000 C   0  0  0  0  0  0  0  0  0  0  0  0
    7.8126   -1.8292    0.0000 H   0  0  0  0  0  0  0  0  0  0  0  0
    6.6962   -3.7532    0.0000 H   0  0  0  0  0  0  0  0  0  0  0  0
    7.4846   -3.4955    0.0000 H   0  0  0  0  0  0  0  0  0  0  0  0
    6.8439   -0.1648    0.0000 H   0  0  0  0  0  0  0  0  0  0  0  0
    7.3323    1.5668    0.0000 H   0  0  0  0  0  0  0  0  0  0  0  0
    7.4967    0.7868    0.0000 H   0  0  0  0  0  0  0  0  0  0  0  0
    8.3825    2.8146    0.0000 H   0  0  0  0  0  0  0  0  0  0  0  0
    5.1350   -4.0016    0.0000 H   0  0  0  0  0  0  0  0  0  0  0  0
    8.6505   -0.8815    0.0000 H   0  0  0  0  0  0  0  0  0  0  0  0
    9.3610    3.0208    0.0000 H   0  0  0  0  0  0  0  0  0  0  0  0
    9.9397    0.2752    0.0000 H   0  0  0  0  0  0  0  0  0  0  0  0
    7.4187    4.3816    0.0000 H   0  0  0  0  0  0  0  0  0  0  0  0
    2.0000   -3.1916    0.0000 H   0  0  0  0  0  0  0  0  0  0  0  0
   12.0893    1.2770    0.0000 H   0  0  0  0  0  0  0  0  0  0  0  0
  1 23  1  0  0  0  0
  1 25  1  0  0  0  0
  2 22  1  0  0  0  0
  3 22  2  0  0  0  0
  4 23  2  0  0  0  0
  5 28  1  0  0  0  0
  5 42  1  0  0  0  0
  6 28  2  0  0  0  0
  7 29  1  0  0  0  0
  7 43  1  0  0  0  0
  8 30  1  0  0  0  0
  8 44  1  0  0  0  0
  9 29  2  0  0  0  0
 10 30  2  0  0  0  0
 11 13  1  0  0  0  0
 11 16  1  0  0  0  0
 11 17  2  0  0  0  0
 12 20  1  0  0  0  0
 12 27  1  0  0  0  0
 12 40  1  0  0  0  0
 13 14  1  0  0  0  0
 13 22  1  6  0  0  0
 13 31  1  0  0  0  0
 14 15  1  0  0  0  0
 14 32  1  0  0  0  0
 14 33  1  0  0  0  0
 15 16  2  0  0  0  0
 15 19  1  0  0  0  0
 16 23  1  0  0  0  0
 17 24  1  0  0  0  0
 17 34  1  0  0  0  0
 18 20  1  0  0  0  0
 18 21  1  0  0  0  0
 18 35  1  0  0  0  0
 18 36  1  0  0  0  0
 19 25  2  0  0  0  0
 19 38  1  0  0  0  0
 20 28  1  1  0  0  0
 20 37  1  0  0  0  0
 21 24  2  0  0  0  0
 21 26  1  0  0  0  0
 24 39  1  0  0  0  0
 25 29  1  0  0  0  0
 26 27  2  0  0  0  0
 26 41  1  0  0  0  0
 27 30  1  0  0  0  0
M  CHG  2   2  -1  11   1
M  END
> <PUBCHEM_COMPOUND_CID>
11953911

> <PUBCHEM_COMPOUND_CANONICALIZED>
1

> <PUBCHEM_CACTVS_COMPLEXITY>
1040

> <PUBCHEM_CACTVS_HBOND_ACCEPTOR>
11

> <PUBCHEM_CACTVS_HBOND_DONOR>
4

> <PUBCHEM_CACTVS_ROTATABLE_BOND>
4

> <PUBCHEM_CACTVS_SUBSKEYS>
AAADccB7PAAAAAAAAAAAAAAAAAAAAQAAAAAgQAAAAAAAAEAAAAAAHgAQCAAADCzBgAQACAPABgCoAjTzTAIACAAgIgAACIHYAFgLBBIAoSQHUAAEkACbsYKIAAAAAAAAAAAAAAAAAAAAAAAAAAAAAAAAAA==

> <PUBCHEM_IUPAC_OPENEYE_NAME>
(2S)-5-carboxy-1-[(2E)-2-[(2S)-2,6-dicarboxy-2,3-dihydro-1H-pyridin-4-ylidene]ethylidene]-7-oxo-2,3-dihydropyrano[3,4-b]pyrrol-1-ium-2-carboxylate

> <PUBCHEM_IUPAC_CAS_NAME>
(2S)-5-carboxy-1-[(2E)-2-[(2S)-2,6-dicarboxy-2,3-dihydro-1H-pyridin-4-ylidene]ethylidene]-7-oxo-2,3-dihydropyrano[3,4-b]pyrrol-1-ium-2-carboxylate

> <PUBCHEM_IUPAC_NAME>
(2S)-5-carboxy-1-[(2E)-2-[(2S)-2,6-dicarboxy-2,3-dihydro-1H-pyridin-4-ylidene]ethylidene]-7-oxo-2,3-dihydropyrano[3,4-b]pyrrol-1-ium-2-carboxylate

> <PUBCHEM_IUPAC_SYSTEMATIC_NAME>
(2S)-5-carboxy-1-[(2E)-2-[(2S)-2,6-dicarboxy-2,3-dihydro-1H-pyridin-4-ylidene]ethylidene]-7-oxidanylidene-2,3-dihydropyrano[3,4-b]pyrrol-1-ium-2-carboxylate

> <PUBCHEM_IUPAC_TRADITIONAL_NAME>
(2S)-5-carboxy-1-[(2E)-2-[(2S)-2,6-dicarboxy-2,3-dihydro-1H-pyridin-4-ylidene]ethylidene]-7-keto-2,3-dihydropyrano[3,4-b]pyrrol-1-ium-2-carboxylate

> <PUBCHEM_IUPAC_INCHI>
InChI=1S/C18H14N2O10/c21-14(22)9-3-7(4-10(19-9)15(23)24)1-2-20-11(16(25)26)5-8-6-12(17(27)28)30-18(29)13(8)20/h1-3,6,10-11H,4-5H2,(H4,21,22,23,24,25,26,27,28)/t10-,11-/m0/s1

> <PUBCHEM_IUPAC_INCHIKEY>
KAUZSNIDLZSFSR-QWRGUYRKSA-N

> <PUBCHEM_XLOGP3_AA>
0

> <PUBCHEM_EXACT_MASS>
418.064845

> <PUBCHEM_MOLECULAR_FORMULA>
C18H14N2O10

> <PUBCHEM_MOLECULAR_WEIGHT>
418.31116

> <PUBCHEM_OPENEYE_CAN_SMILES>
C1C(NC(=CC1=CC=[N+]2C(CC3=C2C(=O)OC(=C3)C(=O)O)C(=O)[O-])C(=O)O)C(=O)O

> <PUBCHEM_OPENEYE_ISO_SMILES>
C\1[C@H](NC(=C/C1=C/C=[N+]2[C@@H](CC3=C2C(=O)OC(=C3)C(=O)O)C(=O)[O-])C(=O)O)C(=O)O

> <PUBCHEM_CACTVS_TPSA>
193

> <PUBCHEM_MONOISOTOPIC_WEIGHT>
418.064845

> <PUBCHEM_TOTAL_CHARGE>
0

> <PUBCHEM_HEAVY_ATOM_COUNT>
30

> <PUBCHEM_ATOM_DEF_STEREO_COUNT>
2

> <PUBCHEM_ATOM_UDEF_STEREO_COUNT>
0

> <PUBCHEM_BOND_DEF_STEREO_COUNT>
1

> <PUBCHEM_BOND_UDEF_STEREO_COUNT>
0

> <PUBCHEM_ISOTOPIC_ATOM_COUNT>
0

> <PUBCHEM_COMPONENT_COUNT>
1

> <PUBCHEM_CACTVS_TAUTO_COUNT>
1

> <PUBCHEM_COORDINATE_TYPE>
1
5
255

> <PUBCHEM_BONDANNOTATIONS>
1  23  8
1  25  8
13  22  6
15  16  8
15  19  8
16  23  8
19  25  8
20  28  5

$$$$

