156073
  -OEChem-07051213002D

 77 80  0     1  0  0  0  0  0999 V2000
    5.1350   -2.7500    0.0000 O   0  0  0  0  0  0  0  0  0  0  0  0
    6.0010    2.7500    0.0000 O   0  0  0  0  0  0  0  0  0  0  0  0
    3.4030   -4.7500    0.0000 O   0  0  0  0  0  0  0  0  0  0  0  0
    5.1350   -5.7500    0.0000 O   0  0  0  0  0  0  0  0  0  0  0  0
    7.7331    2.7500    0.0000 O   0  0  0  0  0  0  0  0  0  0  0  0
    4.2690    4.7500    0.0000 O   0  0  0  0  0  0  0  0  0  0  0  0
    6.0010    5.7500    0.0000 O   0  0  0  0  0  0  0  0  0  0  0  0
    6.8671   -2.7500    0.0000 O   0  0  0  0  0  0  0  0  0  0  0  0
    6.8671   -4.7500    0.0000 O   0  0  0  0  0  0  0  0  0  0  0  0
    7.7331    4.7500    0.0000 O   0  0  0  0  0  0  0  0  0  0  0  0
    2.5369   -3.2500    0.0000 O   0  0  0  0  0  0  0  0  0  0  0  0
    3.4030    3.2500    0.0000 O   0  0  0  0  0  0  0  0  0  0  0  0
    8.5991    1.2500    0.0000 O   0  0  0  0  0  0  0  0  0  0  0  0
    8.5991   -1.7500    0.0000 O   0  0  0  0  0  0  0  0  0  0  0  0
    6.8671    1.2500    0.0000 O   0  0  0  0  0  0  0  0  0  0  0  0
    9.4651   -0.2500    0.0000 O   0  0  0  0  0  0  0  0  0  0  0  0
    4.2690   -4.2500    0.0000 C   0  0  1  0  0  0  0  0  0  0  0  0
    5.1350   -4.7500    0.0000 C   0  0  1  0  0  0  0  0  0  0  0  0
    5.1350    4.2500    0.0000 C   0  0  1  0  0  0  0  0  0  0  0  0
    6.0010    4.7500    0.0000 C   0  0  1  0  0  0  0  0  0  0  0  0
    4.2690   -3.2500    0.0000 C   0  0  1  0  0  0  0  0  0  0  0  0
    6.0010   -4.2500    0.0000 C   0  0  2  0  0  0  0  0  0  0  0  0
    5.1350    3.2500    0.0000 C   0  0  1  0  0  0  0  0  0  0  0  0
    6.8671    4.2500    0.0000 C   0  0  2  0  0  0  0  0  0  0  0  0
    6.0010   -3.2500    0.0000 C   0  0  1  0  0  0  0  0  0  0  0  0
    6.8671    3.2500    0.0000 C   0  0  1  0  0  0  0  0  0  0  0  0
    3.4030   -2.7500    0.0000 C   0  0  0  0  0  0  0  0  0  0  0  0
    4.2690    2.7500    0.0000 C   0  0  0  0  0  0  0  0  0  0  0  0
    8.5991    3.2500    0.0000 C   0  0  0  0  0  0  0  0  0  0  0  0
    6.8671   -1.7500    0.0000 C   0  0  0  0  0  0  0  0  0  0  0  0
    9.4651    2.7500    0.0000 C   0  0  0  0  0  0  0  0  0  0  0  0
    7.7331   -1.2500    0.0000 C   0  0  0  0  0  0  0  0  0  0  0  0
    8.5991    4.2500    0.0000 C   0  0  0  0  0  0  0  0  0  0  0  0
    6.0010   -1.2500    0.0000 C   0  0  0  0  0  0  0  0  0  0  0  0
    9.4651    1.7500    0.0000 C   0  0  0  0  0  0  0  0  0  0  0  0
    7.7331   -0.2500    0.0000 C   0  0  0  0  0  0  0  0  0  0  0  0
   10.3312    3.2500    0.0000 C   0  0  0  0  0  0  0  0  0  0  0  0
    6.0010   -0.2500    0.0000 C   0  0  0  0  0  0  0  0  0  0  0  0
    6.8671    0.2500    0.0000 C   0  0  0  0  0  0  0  0  0  0  0  0
    9.4651    4.7500    0.0000 C   0  0  0  0  0  0  0  0  0  0  0  0
   10.3312    4.2500    0.0000 C   0  0  0  0  0  0  0  0  0  0  0  0
    8.5991    0.2500    0.0000 C   0  0  0  0  0  0  0  0  0  0  0  0
    8.5991   -2.7500    0.0000 C   0  0  0  0  0  0  0  0  0  0  0  0
    4.2690   -4.8700    0.0000 H   0  0  0  0  0  0  0  0  0  0  0  0
    5.6720   -5.0600    0.0000 H   0  0  0  0  0  0  0  0  0  0  0  0
    5.1350    4.8700    0.0000 H   0  0  0  0  0  0  0  0  0  0  0  0
    6.5380    5.0600    0.0000 H   0  0  0  0  0  0  0  0  0  0  0  0
    4.2690   -2.6300    0.0000 H   0  0  0  0  0  0  0  0  0  0  0  0
    6.5380   -3.9400    0.0000 H   0  0  0  0  0  0  0  0  0  0  0  0
    5.1350    2.6300    0.0000 H   0  0  0  0  0  0  0  0  0  0  0  0
    7.4040    3.9400    0.0000 H   0  0  0  0  0  0  0  0  0  0  0  0
    6.5380   -3.5600    0.0000 H   0  0  0  0  0  0  0  0  0  0  0  0
    7.4040    3.5600    0.0000 H   0  0  0  0  0  0  0  0  0  0  0  0
    3.8015   -2.2750    0.0000 H   0  0  0  0  0  0  0  0  0  0  0  0
    3.0044   -2.2750    0.0000 H   0  0  0  0  0  0  0  0  0  0  0  0
    3.8705    2.2750    0.0000 H   0  0  0  0  0  0  0  0  0  0  0  0
    4.6675    2.2750    0.0000 H   0  0  0  0  0  0  0  0  0  0  0  0
    3.4030   -5.3700    0.0000 H   0  0  0  0  0  0  0  0  0  0  0  0
    4.5981   -6.0600    0.0000 H   0  0  0  0  0  0  0  0  0  0  0  0
    4.2690    5.3700    0.0000 H   0  0  0  0  0  0  0  0  0  0  0  0
    5.4641    6.0600    0.0000 H   0  0  0  0  0  0  0  0  0  0  0  0
    6.8671   -5.3700    0.0000 H   0  0  0  0  0  0  0  0  0  0  0  0
    7.7331    5.3700    0.0000 H   0  0  0  0  0  0  0  0  0  0  0  0
    2.0000   -2.9400    0.0000 H   0  0  0  0  0  0  0  0  0  0  0  0
    2.8660    2.9400    0.0000 H   0  0  0  0  0  0  0  0  0  0  0  0
    8.0622    4.5600    0.0000 H   0  0  0  0  0  0  0  0  0  0  0  0
    5.4641   -1.5600    0.0000 H   0  0  0  0  0  0  0  0  0  0  0  0
    9.6772    1.1674    0.0000 H   0  0  0  0  0  0  0  0  0  0  0  0
   10.0757    1.8577    0.0000 H   0  0  0  0  0  0  0  0  0  0  0  0
   10.8681    2.9400    0.0000 H   0  0  0  0  0  0  0  0  0  0  0  0
    5.4641    0.0600    0.0000 H   0  0  0  0  0  0  0  0  0  0  0  0
    9.4651    5.3700    0.0000 H   0  0  0  0  0  0  0  0  0  0  0  0
   10.8681    4.5600    0.0000 H   0  0  0  0  0  0  0  0  0  0  0  0
    7.9791   -2.7500    0.0000 H   0  0  0  0  0  0  0  0  0  0  0  0
    8.5991   -3.3700    0.0000 H   0  0  0  0  0  0  0  0  0  0  0  0
    9.2191   -2.7500    0.0000 H   0  0  0  0  0  0  0  0  0  0  0  0
    6.3301    1.5600    0.0000 H   0  0  0  0  0  0  0  0  0  0  0  0
  1 21  1  0  0  0  0
  1 25  1  0  0  0  0
  2 23  1  0  0  0  0
  2 26  1  0  0  0  0
 17  3  1  6  0  0  0
  3 58  1  0  0  0  0
 18  4  1  1  0  0  0
  4 59  1  0  0  0  0
 26  5  1  6  0  0  0
  5 29  1  0  0  0  0
 19  6  1  1  0  0  0
  6 60  1  0  0  0  0
 20  7  1  6  0  0  0
  7 61  1  0  0  0  0
 25  8  1  1  0  0  0
  8 30  1  0  0  0  0
 22  9  1  6  0  0  0
  9 62  1  0  0  0  0
 24 10  1  1  0  0  0
 10 63  1  0  0  0  0
 11 27  1  0  0  0  0
 11 64  1  0  0  0  0
 12 28  1  0  0  0  0
 12 65  1  0  0  0  0
 13 35  1  0  0  0  0
 13 42  1  0  0  0  0
 14 32  1  0  0  0  0
 14 43  1  0  0  0  0
 15 39  1  0  0  0  0
 15 77  1  0  0  0  0
 16 42  2  0  0  0  0
 17 18  1  0  0  0  0
 17 21  1  0  0  0  0
 17 44  1  0  0  0  0
 18 22  1  0  0  0  0
 18 45  1  0  0  0  0
 19 20  1  0  0  0  0
 19 23  1  0  0  0  0
 19 46  1  0  0  0  0
 20 24  1  0  0  0  0
 20 47  1  0  0  0  0
 21 27  1  1  0  0  0
 21 48  1  0  0  0  0
 22 25  1  0  0  0  0
 22 49  1  0  0  0  0
 23 28  1  6  0  0  0
 23 50  1  0  0  0  0
 24 26  1  0  0  0  0
 24 51  1  0  0  0  0
 25 52  1  0  0  0  0
 26 53  1  0  0  0  0
 27 54  1  0  0  0  0
 27 55  1  0  0  0  0
 28 56  1  0  0  0  0
 28 57  1  0  0  0  0
 29 31  1  0  0  0  0
 29 33  2  0  0  0  0
 30 32  2  0  0  0  0
 30 34  1  0  0  0  0
 31 35  1  0  0  0  0
 31 37  2  0  0  0  0
 32 36  1  0  0  0  0
 33 40  1  0  0  0  0
 33 66  1  0  0  0  0
 34 38  2  0  0  0  0
 34 67  1  0  0  0  0
 35 68  1  0  0  0  0
 35 69  1  0  0  0  0
 36 39  2  0  0  0  0
 36 42  1  0  0  0  0
 37 41  1  0  0  0  0
 37 70  1  0  0  0  0
 38 39  1  0  0  0  0
 38 71  1  0  0  0  0
 40 41  2  0  0  0  0
 40 72  1  0  0  0  0
 41 73  1  0  0  0  0
 43 74  1  0  0  0  0
 43 75  1  0  0  0  0
 43 76  1  0  0  0  0
M  END
> <PUBCHEM_COMPOUND_CID>
156073

> <PUBCHEM_COMPOUND_CANONICALIZED>
1

> <PUBCHEM_CACTVS_COMPLEXITY>
880

> <PUBCHEM_CACTVS_HBOND_ACCEPTOR>
16

> <PUBCHEM_CACTVS_HBOND_DONOR>
9

> <PUBCHEM_CACTVS_ROTATABLE_BOND>
11

> <PUBCHEM_CACTVS_SUBSKEYS>
AAADcfB4PgAAAAAAAAAAAAAAAAAAAAAAAAA0aIEAAAAAAAABQAAAGgAACAAADBSwmAMyDoAABgCIAiDSCAACCAAkIAAIiAEGiMgdNzaGNRqieWKl4BUPuQfK6DyOAQABCAAIQAACAAIQABCAAAAAAAAAAA==

> <PUBCHEM_IUPAC_OPENEYE_NAME>
[2-[(2S,3R,4S,5S,6R)-3,4,5-trihydroxy-6-(hydroxymethyl)tetrahydropyran-2-yl]oxyphenyl]methyl 6-hydroxy-2-methoxy-3-[(2S,3R,4S,5S,6R)-3,4,5-trihydroxy-6-(hydroxymethyl)tetrahydropyran-2-yl]oxy-benzoate

> <PUBCHEM_IUPAC_CAS_NAME>
6-hydroxy-2-methoxy-3-[[(2S,3R,4S,5S,6R)-3,4,5-trihydroxy-6-(hydroxymethyl)-2-oxanyl]oxy]benzoic acid [2-[[(2S,3R,4S,5S,6R)-3,4,5-trihydroxy-6-(hydroxymethyl)-2-oxanyl]oxy]phenyl]methyl ester

> <PUBCHEM_IUPAC_NAME>
[2-[(2S,3R,4S,5S,6R)-3,4,5-trihydroxy-6-(hydroxymethyl)oxan-2-yl]oxyphenyl]methyl 6-hydroxy-2-methoxy-3-[(2S,3R,4S,5S,6R)-3,4,5-trihydroxy-6-(hydroxymethyl)oxan-2-yl]oxybenzoate

> <PUBCHEM_IUPAC_SYSTEMATIC_NAME>
[2-[(2S,3R,4S,5S,6R)-6-(hydroxymethyl)-3,4,5-tris(oxidanyl)oxan-2-yl]oxyphenyl]methyl 3-[(2S,3R,4S,5S,6R)-6-(hydroxymethyl)-3,4,5-tris(oxidanyl)oxan-2-yl]oxy-2-methoxy-6-oxidanyl-benzoate

> <PUBCHEM_IUPAC_TRADITIONAL_NAME>
6-hydroxy-2-methoxy-3-[(2S,3R,4S,5S,6R)-3,4,5-trihydroxy-6-methylol-tetrahydropyran-2-yl]oxy-benzoic acid [2-[(2S,3R,4S,5S,6R)-3,4,5-trihydroxy-6-methylol-tetrahydropyran-2-yl]oxybenzyl] ester

> <PUBCHEM_IUPAC_INCHI>
InChI=1S/C27H34O16/c1-38-24-14(41-27-23(36)21(34)19(32)16(9-29)43-27)7-6-12(30)17(24)25(37)39-10-11-4-2-3-5-13(11)40-26-22(35)20(33)18(31)15(8-28)42-26/h2-7,15-16,18-23,26-36H,8-10H2,1H3/t15-,16-,18-,19-,20+,21+,22-,23-,26-,27-/m1/s1

> <PUBCHEM_IUPAC_INCHIKEY>
WQQJTVODGXZMHF-WRXRYXBBSA-N

> <PUBCHEM_XLOGP3_AA>
-0.9

> <PUBCHEM_EXACT_MASS>
614.184685

> <PUBCHEM_MOLECULAR_FORMULA>
C27H34O16

> <PUBCHEM_MOLECULAR_WEIGHT>
614.54926

> <PUBCHEM_OPENEYE_CAN_SMILES>
COC1=C(C=CC(=C1C(=O)OCC2=CC=CC=C2OC3C(C(C(C(O3)CO)O)O)O)O)OC4C(C(C(C(O4)CO)O)O)O

> <PUBCHEM_OPENEYE_ISO_SMILES>
COC1=C(C=CC(=C1C(=O)OCC2=CC=CC=C2O[C@H]3[C@@H]([C@H]([C@@H]([C@H](O3)CO)O)O)O)O)O[C@H]4[C@@H]([C@H]([C@@H]([C@H](O4)CO)O)O)O

> <PUBCHEM_CACTVS_TPSA>
255

> <PUBCHEM_MONOISOTOPIC_WEIGHT>
614.184685

> <PUBCHEM_TOTAL_CHARGE>
0

> <PUBCHEM_HEAVY_ATOM_COUNT>
43

> <PUBCHEM_ATOM_DEF_STEREO_COUNT>
10

> <PUBCHEM_ATOM_UDEF_STEREO_COUNT>
0

> <PUBCHEM_BOND_DEF_STEREO_COUNT>
0

> <PUBCHEM_BOND_UDEF_STEREO_COUNT>
0

> <PUBCHEM_ISOTOPIC_ATOM_COUNT>
0

> <PUBCHEM_COMPONENT_COUNT>
1

> <PUBCHEM_CACTVS_TAUTO_COUNT>
4

> <PUBCHEM_COORDINATE_TYPE>
1
5
255

> <PUBCHEM_BONDANNOTATIONS>
24  10  5
21  27  5
23  28  6
29  31  8
29  33  8
17  3  6
30  32  8
30  34  8
31  37  8
32  36  8
33  40  8
34  38  8
36  39  8
37  41  8
38  39  8
18  4  5
40  41  8
26  5  6
19  6  5
20  7  6
25  8  5
22  9  6

$$$$

