656870
  -OEChem-07051213042D

 25 26  0     1  0  0  0  0  0999 V2000
    4.9860   -0.5000    0.0000 O   0  0  0  0  0  0  0  0  0  0  0  0
    3.6200   -0.8661    0.0000 O   0  0  0  0  0  0  0  0  0  0  0  0
    2.6200    0.8660    0.0000 O   0  0  0  0  0  0  0  0  0  0  0  0
    2.6200   -0.8661    0.0000 O   0  0  0  0  0  0  0  0  0  0  0  0
    4.1200    0.0000    0.0000 C   0  0  3  0  0  0  0  0  0  0  0  0
    5.8520    0.0000    0.0000 C   0  0  0  0  0  0  0  0  0  0  0  0
    5.8520    1.0000    0.0000 C   0  0  0  0  0  0  0  0  0  0  0  0
    6.7460   -0.5347    0.0000 C   0  0  0  0  0  0  0  0  0  0  0  0
    4.1200    1.0000    0.0000 C   0  0  0  0  0  0  0  0  0  0  0  0
    4.9860    1.5000    0.0000 C   0  0  0  0  0  0  0  0  0  0  0  0
    6.7460    1.5346    0.0000 C   0  0  0  0  0  0  0  0  0  0  0  0
    7.6521   -0.0208    0.0000 C   0  0  0  0  0  0  0  0  0  0  0  0
    7.6521    1.0208    0.0000 C   0  0  0  0  0  0  0  0  0  0  0  0
    6.7344   -1.5346    0.0000 C   0  0  0  0  0  0  0  0  0  0  0  0
    3.1200    0.0000    0.0000 C   0  0  0  0  0  0  0  0  0  0  0  0
    3.5831    1.3100    0.0000 H   0  0  0  0  0  0  0  0  0  0  0  0
    4.9860    2.1200    0.0000 H   0  0  0  0  0  0  0  0  0  0  0  0
    6.7388    2.1546    0.0000 H   0  0  0  0  0  0  0  0  0  0  0  0
    8.1878   -0.3329    0.0000 H   0  0  0  0  0  0  0  0  0  0  0  0
    8.1878    1.3328    0.0000 H   0  0  0  0  0  0  0  0  0  0  0  0
    6.1145   -1.5275    0.0000 H   0  0  0  0  0  0  0  0  0  0  0  0
    6.7273   -2.1546    0.0000 H   0  0  0  0  0  0  0  0  0  0  0  0
    7.3544   -1.5418    0.0000 H   0  0  0  0  0  0  0  0  0  0  0  0
    3.9300   -1.4030    0.0000 H   0  0  0  0  0  0  0  0  0  0  0  0
    2.0000    0.8660    0.0000 H   0  0  0  0  0  0  0  0  0  0  0  0
  1  5  1  0  0  0  0
  1  6  1  0  0  0  0
  2  5  1  0  0  0  0
  2 24  1  0  0  0  0
  3 15  1  0  0  0  0
  3 25  1  0  0  0  0
  4 15  2  0  0  0  0
  5  9  1  0  0  0  0
  5 15  1  0  0  0  0
  6  7  1  0  0  0  0
  6  8  2  0  0  0  0
  7 10  1  0  0  0  0
  7 11  2  0  0  0  0
  8 12  1  0  0  0  0
  8 14  1  0  0  0  0
  9 10  2  0  0  0  0
  9 16  1  0  0  0  0
 10 17  1  0  0  0  0
 11 13  1  0  0  0  0
 11 18  1  0  0  0  0
 12 13  2  0  0  0  0
 12 19  1  0  0  0  0
 13 20  1  0  0  0  0
 14 21  1  0  0  0  0
 14 22  1  0  0  0  0
 14 23  1  0  0  0  0
M  END
> <PUBCHEM_COMPOUND_CID>
656870

> <PUBCHEM_COMPOUND_CANONICALIZED>
1

> <PUBCHEM_CACTVS_COMPLEXITY>
299

> <PUBCHEM_CACTVS_HBOND_ACCEPTOR>
4

> <PUBCHEM_CACTVS_HBOND_DONOR>
2

> <PUBCHEM_CACTVS_ROTATABLE_BOND>
1

> <PUBCHEM_CACTVS_SUBSKEYS>
AAADccBwOAAAAAAAAAAAAAAAAAAAAAAAAAAwQAAAAAAAAACBAAAAGgAACAAADASAmAAyDoAABgCIAiDSCAICCAAgIAAIiAFECIgdJiKEMR6CeCCkwBEPuAeAwGAOAAACAAAIAAAAAAQAABAAAAAAAAAAAA==

> <PUBCHEM_IUPAC_OPENEYE_NAME>
2-hydroxy-8-methyl-chromene-2-carboxylic acid

> <PUBCHEM_IUPAC_CAS_NAME>
2-hydroxy-8-methyl-1-benzopyran-2-carboxylic acid

> <PUBCHEM_IUPAC_NAME>
2-hydroxy-8-methylchromene-2-carboxylic acid

> <PUBCHEM_IUPAC_SYSTEMATIC_NAME>
8-methyl-2-oxidanyl-chromene-2-carboxylic acid

> <PUBCHEM_IUPAC_TRADITIONAL_NAME>
2-hydroxy-8-methyl-chromene-2-carboxylic acid

> <PUBCHEM_IUPAC_INCHI>
InChI=1S/C11H10O4/c1-7-3-2-4-8-5-6-11(14,10(12)13)15-9(7)8/h2-6,14H,1H3,(H,12,13)

> <PUBCHEM_IUPAC_INCHIKEY>
NDNLINRFIZVPBU-UHFFFAOYSA-N

> <PUBCHEM_XLOGP3_AA>
1.7

> <PUBCHEM_EXACT_MASS>
206.057909

> <PUBCHEM_MOLECULAR_FORMULA>
C11H10O4

> <PUBCHEM_MOLECULAR_WEIGHT>
206.1947

> <PUBCHEM_OPENEYE_CAN_SMILES>
CC1=CC=CC2=C1OC(C=C2)(C(=O)O)O

> <PUBCHEM_OPENEYE_ISO_SMILES>
CC1=CC=CC2=C1OC(C=C2)(C(=O)O)O

> <PUBCHEM_CACTVS_TPSA>
66.8

> <PUBCHEM_MONOISOTOPIC_WEIGHT>
206.057909

> <PUBCHEM_TOTAL_CHARGE>
0

> <PUBCHEM_HEAVY_ATOM_COUNT>
15

> <PUBCHEM_ATOM_DEF_STEREO_COUNT>
0

> <PUBCHEM_ATOM_UDEF_STEREO_COUNT>
1

> <PUBCHEM_BOND_DEF_STEREO_COUNT>
0

> <PUBCHEM_BOND_UDEF_STEREO_COUNT>
0

> <PUBCHEM_ISOTOPIC_ATOM_COUNT>
0

> <PUBCHEM_COMPONENT_COUNT>
1

> <PUBCHEM_CACTVS_TAUTO_COUNT>
1

> <PUBCHEM_COORDINATE_TYPE>
1
5
255

> <PUBCHEM_BONDANNOTATIONS>
11  13  8
12  13  8
5  2  3
6  7  8
6  8  8
7  11  8
8  12  8

$$$$

