   Color/Form

     * Crystals (usually plates, sometimes needles, monoclinic system)
     * White crystals (plates or needles)
     * White to slightly yellow crystals or powder ... gradually darkens
       on exposure to light

   from [1]HSDB

   Odor
        Odorless
   from [2]HSDB

   Taste
        Pleasant, sharp, acidic taste
   from [3]HSDB

   Melting Point
        190-192 deg C (some decomposition)
   from [4]HSDB

   Critical Temperature and Pressure
        Critical temperature = 783 deg K; critical pressure = 5.29X10+6
   Pa.
   from [5]HSDB

   Density/Specific Gravity
        1.65 g/cu cm at 25 deg C
   from [6]HSDB

   Dissociation Constants
        pK1 = 4.17; pK2 = 11.57
   from [7]HSDB

   Heat of Vaporization
        The heat of vaporization is 1.487X10+8 J/kmol at 465.15 deg K.
   from [8]HSDB

   Octanol/Water Partition Coefficient
        log Kow = -1.85
   from [9]HSDB

   pH
        pH = 3 (5 mg/mL); pH = 2 (50 mg/mL)
   from [10]HSDB

   Solubilities

     * Insoluble in ether, chloroform, benzene, petroleum ether, oils,
       fats, fat solvents
     * 1 g dissolves in about 3 ml of water.
     * The solubility in g/mL is 0.33 in water, 0.033 in 95 wt% ethanol,
       0.02 in absolute ethanol, 0.01 in glycerol USP, 0.05 in propylene
       glycol.
     * Solubility in water: 80% at 100 deg C, 40% at 45 deg C

   from [11]HSDB

   Spectral Properties

     * Specific optical rotation (c = 1 in water): +20.5 to +21.5 deg at
       25 deg C/D; (c = 1 in methanol): +48 deg at 23 deg C/D
     * Specific optical rotation: +24 deg at 20 deg C/D (in water, 1%)
     * MAX ABSORPTION (WATER): 244 NM (LOG E= 3.98); SADTLER REF NUMBER:
       13217 (IR, PRISM); 470 (IR, GRATING); 3455 (UV); 3126 (NMR)
     * UV max absorption at pH 2: 245 nm (epsilon 1% 1 cm, 695); at pH
       6.4: 265 nm (epsilon 1% 1cm, 940)
     * Intense mass spectral peaks: 85 m/z, 116 m/z, 176 m/z
     * MASS: 25046 (NIST/EPA/MSDC Mass Spectral Database, 1990 version)
     * IR: 470 (Sadtler Research Laboratories IR grating collection)
     * UV: 3455 (Sadtler Research Laboratories spectral collection)
     * 1H NMR: 3126 (Sadtler Research Laboratories spectral collection)
     * 13C NMR: 171 (Johnson and Jankowski, Carbon-13 NMR Spectra, John
       Wiley & Sons, New York)

   from [12]HSDB

   Surface Tension
        4.039X10-2 N/m
   from [13]HSDB

   Vapor Pressure
        9.28X10-11 mm Hg at 25 deg C (est)
   from [14]HSDB

   Other Chemical/Physical Properties

     * log Kow = -2.15 at 23 deg C; log Kow = -2.00 at 37 deg C [Rose RC;
       Biochim Biophys Acta 924: 254-256 (1987)] [15]PubMed Abstract
     * log Kow = -1.64
     * pKa = 4.70 at 10 deg C
     * Strong reducing agent. Stable to air when dry; aqueous solutions
       are rapidly oxidized by air.
     * Dihydrate, triclinic crystals; specific optical rotation: +95.6 deg
       at 20 deg C/D (c= 2.4). Freely soluble in water. Practically
       insoluble in methanol, ethanol. /Ascorbic acid, calcium salt/
     * One international unit is equivalent to 0.05 mg of l-ascorbic acid
     * UV: 6-83 (Organic Electronic Spectral Data, Phillips et al, John
       Wiley & Sons, New York) /Ascorbic acid (DL)/
     * 1H NMR: 464 (Varian Associates NMR Spectra Catalogue) /Ascorbic
       acid (DL)/
     * 13C NMR: 171 (Johnson and Jankowski, Carbon-13 NMR Spectra, Jphn
       Wiley & Sons, New York)
     * MASS: 107119 (NIST/EPA/MSDC Mass Spectral Database, 1990 version)
       /Ascorbic acid (D)/
     * 13C NMR: 171 (Johnson and Jankowski, Carbon-13 NMR Spectra, Jphn
       Wiley & Sons, New York)
     * Melting point = 465.15 deg K, decomposes.
     * The liquid molar volume is 0.1248 cu m/kmol
     * Ascorbic acid is stable in the dry state but is easily oxidized in
       aqueous solution in the presence of air. Oxidation is accelerated
       by heat, light, alkalies, oxidative enzymes, and traces of copper
       and iron.
     * Henry's Law constant = 4.07X10-8 atm-cu m/mol at 25 deg C (est)
     * Hydroxyl radical reaction rate constant = 5.58X10-11 cu
       cm/molec-sec at 25 deg C (est)

   from [16]HSDB

   Computed Properties
   Molecular Weight                  176.12412 [g/mol]
   Molecular Formula                 C[6]H[8]O[6]
   XLogP3                            -1.6
   H-Bond Donor                      4
   H-Bond Acceptor                   6
   Rotatable Bond Count              2
   Tautomer Count                    8
   Exact Mass                        176.032088
   MonoIsotopic Mass                 176.032088
   Topological Polar Surface Area    107
   Heavy Atom Count                  12
   Formal Charge                     0
   Complexity                        232
   Isotope Atom Count                0
   Defined Atom Stereocenter Count   2
   Undefined Atom Stereocenter Count 0
   Defined Bond Stereocenter Count   0
   Undefined Bond Stereocenter Count 0
   Covalently-Bonded Unit Count      1
   Feature 3D Acceptor Count         3
   Feature 3D Donor Count            4
   Feature 3D Ring Count             1
   Effective Rotor Count             2.4
   Conformer Sampling RMSD           0.6
   CID Conformer Count               [17]9

References

   1. http://toxnet.nlm.nih.gov/cgi-bin/sis/search/r?dbs+hsdb:@term+@rn+@rel+50-81-7
   2. http://toxnet.nlm.nih.gov/cgi-bin/sis/search/r?dbs+hsdb:@term+@rn+@rel+50-81-7
   3. http://toxnet.nlm.nih.gov/cgi-bin/sis/search/r?dbs+hsdb:@term+@rn+@rel+50-81-7
   4. http://toxnet.nlm.nih.gov/cgi-bin/sis/search/r?dbs+hsdb:@term+@rn+@rel+50-81-7
   5. http://toxnet.nlm.nih.gov/cgi-bin/sis/search/r?dbs+hsdb:@term+@rn+@rel+50-81-7
   6. http://toxnet.nlm.nih.gov/cgi-bin/sis/search/r?dbs+hsdb:@term+@rn+@rel+50-81-7
   7. http://toxnet.nlm.nih.gov/cgi-bin/sis/search/r?dbs+hsdb:@term+@rn+@rel+50-81-7
   8. http://toxnet.nlm.nih.gov/cgi-bin/sis/search/r?dbs+hsdb:@term+@rn+@rel+50-81-7
   9. http://toxnet.nlm.nih.gov/cgi-bin/sis/search/r?dbs+hsdb:@term+@rn+@rel+50-81-7
  10. http://toxnet.nlm.nih.gov/cgi-bin/sis/search/r?dbs+hsdb:@term+@rn+@rel+50-81-7
  11. http://toxnet.nlm.nih.gov/cgi-bin/sis/search/r?dbs+hsdb:@term+@rn+@rel+50-81-7
  12. http://toxnet.nlm.nih.gov/cgi-bin/sis/search/r?dbs+hsdb:@term+@rn+@rel+50-81-7
  13. http://toxnet.nlm.nih.gov/cgi-bin/sis/search/r?dbs+hsdb:@term+@rn+@rel+50-81-7
  14. http://toxnet.nlm.nih.gov/cgi-bin/sis/search/r?dbs+hsdb:@term+@rn+@rel+50-81-7
  15. http://www.ncbi.nlm.nih.gov/entrez/query.fcgi?cmd=Retrieve&db=pubmed&dopt=Abstract&list_uids=3103695
  16. http://toxnet.nlm.nih.gov/cgi-bin/sis/search/r?dbs+hsdb:@term+@rn+@rel+50-81-7
  17. http://pubchem.ncbi.nlm.nih.gov/vw3d/vw3d.cgi?cid=54670067
