5281468
  -OEChem-07051212572D

 66 68  0     1  0  0  0  0  0999 V2000
    4.6397   -2.2026    0.0000 O   0  0  0  0  0  0  0  0  0  0  0  0
    4.0037    1.9728    0.0000 O   0  0  0  0  0  0  0  0  0  0  0  0
    6.6021    0.4135    0.0000 O   0  0  0  0  0  0  0  0  0  0  0  0
    6.9696   -1.9796    0.0000 O   0  0  0  0  0  0  0  0  0  0  0  0
    6.0518   -3.2802    0.0000 O   0  0  0  0  0  0  0  0  0  0  0  0
    6.2167    2.1021    0.0000 O   0  0  0  0  0  0  0  0  0  0  0  0
    7.7930   -0.4558    0.0000 O   0  0  0  0  0  0  0  0  0  0  0  0
    3.6027   -0.7840    0.0000 C   0  0  2  0  0  0  0  0  0  0  0  0
    3.3802    0.1910    0.0000 C   0  0  1  0  0  0  0  0  0  0  0  0
    5.4047   -0.7840    0.0000 C   0  0  1  0  0  0  0  0  0  0  0  0
    4.5037   -1.2179    0.0000 C   0  0  1  0  0  0  0  0  0  0  0  0
    4.0037    0.9728    0.0000 C   0  0  2  0  0  0  0  0  0  0  0  0
    5.6272    0.1910    0.0000 C   0  0  2  0  0  0  0  0  0  0  0  0
    5.0037    0.9728    0.0000 C   0  0  0  0  0  0  0  0  0  0  0  0
    6.0898   -1.5043    0.0000 C   0  0  1  0  0  0  0  0  0  0  0  0
    2.3899    0.2775    0.0000 C   0  0  0  0  0  0  0  0  0  0  0  0
    2.7480   -1.2916    0.0000 C   0  0  0  0  0  0  0  0  0  0  0  0
    2.0000   -0.6369    0.0000 C   0  0  0  0  0  0  0  0  0  0  0  0
    5.6180   -2.3792    0.0000 C   0  0  0  0  0  0  0  0  0  0  0  0
    3.2219    1.5963    0.0000 C   0  0  0  0  0  0  0  0  0  0  0  0
    6.8138   -0.8144    0.0000 C   0  0  0  0  0  0  0  0  0  0  0  0
    2.6567   -2.2874    0.0000 C   0  0  0  0  0  0  0  0  0  0  0  0
    6.8969    1.3691    0.0000 C   0  0  0  0  0  0  0  0  0  0  0  0
    7.8211   -1.4554    0.0000 C   0  0  0  0  0  0  0  0  0  0  0  0
    7.8718    1.5916    0.0000 C   0  0  0  0  0  0  0  0  0  0  0  0
    8.7009   -1.9308    0.0000 C   0  0  0  0  0  0  0  0  0  0  0  0
    8.5520    0.8585    0.0000 C   0  0  0  0  0  0  0  0  0  0  0  0
    8.7291   -2.9304    0.0000 C   0  0  0  0  0  0  0  0  0  0  0  0
    8.1666    2.5471    0.0000 C   0  0  0  0  0  0  0  0  0  0  0  0
    9.5525   -1.4066    0.0000 C   0  0  0  0  0  0  0  0  0  0  0  0
    7.4864    3.2802    0.0000 C   0  0  0  0  0  0  0  0  0  0  0  0
    9.5243   -0.4070    0.0000 C   0  0  0  0  0  0  0  0  0  0  0  0
    3.6398   -1.6332    0.0000 H   0  0  0  0  0  0  0  0  0  0  0  0
    3.0451    0.9721    0.0000 H   0  0  0  0  0  0  0  0  0  0  0  0
    6.2243   -0.5589    0.0000 H   0  0  0  0  0  0  0  0  0  0  0  0
    3.8167   -1.7184    0.0000 H   0  0  0  0  0  0  0  0  0  0  0  0
    5.8320    0.7762    0.0000 H   0  0  0  0  0  0  0  0  0  0  0  0
    5.5623    1.2418    0.0000 H   0  0  0  0  0  0  0  0  0  0  0  0
    4.8657    1.5772    0.0000 H   0  0  0  0  0  0  0  0  0  0  0  0
    2.5085    0.8861    0.0000 H   0  0  0  0  0  0  0  0  0  0  0  0
    1.7972    0.4594    0.0000 H   0  0  0  0  0  0  0  0  0  0  0  0
    1.3955   -0.7749    0.0000 H   0  0  0  0  0  0  0  0  0  0  0  0
    3.6084    2.0810    0.0000 H   0  0  0  0  0  0  0  0  0  0  0  0
    2.7371    1.9828    0.0000 H   0  0  0  0  0  0  0  0  0  0  0  0
    2.8353    1.1116    0.0000 H   0  0  0  0  0  0  0  0  0  0  0  0
    7.2414   -1.2633    0.0000 H   0  0  0  0  0  0  0  0  0  0  0  0
    7.2626   -0.3868    0.0000 H   0  0  0  0  0  0  0  0  0  0  0  0
    6.3861   -0.3656    0.0000 H   0  0  0  0  0  0  0  0  0  0  0  0
    4.5406    2.2828    0.0000 H   0  0  0  0  0  0  0  0  0  0  0  0
    2.0393   -2.2308    0.0000 H   0  0  0  0  0  0  0  0  0  0  0  0
    2.6000   -2.9048    0.0000 H   0  0  0  0  0  0  0  0  0  0  0  0
    3.2741   -2.3441    0.0000 H   0  0  0  0  0  0  0  0  0  0  0  0
    8.0975    0.4368    0.0000 H   0  0  0  0  0  0  0  0  0  0  0  0
    8.9737    0.4040    0.0000 H   0  0  0  0  0  0  0  0  0  0  0  0
    9.0065    1.2802    0.0000 H   0  0  0  0  0  0  0  0  0  0  0  0
    8.1093   -2.9479    0.0000 H   0  0  0  0  0  0  0  0  0  0  0  0
    8.7466   -3.5502    0.0000 H   0  0  0  0  0  0  0  0  0  0  0  0
    9.3488   -2.9130    0.0000 H   0  0  0  0  0  0  0  0  0  0  0  0
    8.7710    2.6851    0.0000 H   0  0  0  0  0  0  0  0  0  0  0  0
   10.0980   -1.7014    0.0000 H   0  0  0  0  0  0  0  0  0  0  0  0
    7.9409    3.7019    0.0000 H   0  0  0  0  0  0  0  0  0  0  0  0
    7.0647    3.7347    0.0000 H   0  0  0  0  0  0  0  0  0  0  0  0
    7.0319    2.8585    0.0000 H   0  0  0  0  0  0  0  0  0  0  0  0
   10.1441   -0.3895    0.0000 H   0  0  0  0  0  0  0  0  0  0  0  0
    9.5068    0.2127    0.0000 H   0  0  0  0  0  0  0  0  0  0  0  0
    8.9046   -0.4245    0.0000 H   0  0  0  0  0  0  0  0  0  0  0  0
  1 11  1  0  0  0  0
  1 19  1  0  0  0  0
 12  2  1  1  0  0  0
  2 49  1  0  0  0  0
 13  3  1  6  0  0  0
  3 23  1  0  0  0  0
 15  4  1  6  0  0  0
  4 24  1  0  0  0  0
  5 19  2  0  0  0  0
  6 23  2  0  0  0  0
  7 24  2  0  0  0  0
  8  9  1  0  0  0  0
  8 11  1  0  0  0  0
  8 17  1  0  0  0  0
  8 33  1  1  0  0  0
  9 12  1  0  0  0  0
  9 16  1  0  0  0  0
  9 34  1  1  0  0  0
 10 11  1  0  0  0  0
 10 13  1  0  0  0  0
 10 15  1  0  0  0  0
 10 35  1  6  0  0  0
 11 36  1  6  0  0  0
 12 14  1  0  0  0  0
 12 20  1  0  0  0  0
 13 14  1  0  0  0  0
 13 37  1  0  0  0  0
 14 38  1  0  0  0  0
 14 39  1  0  0  0  0
 15 19  1  0  0  0  0
 15 21  1  0  0  0  0
 16 18  1  0  0  0  0
 16 40  1  0  0  0  0
 16 41  1  0  0  0  0
 17 18  2  0  0  0  0
 17 22  1  0  0  0  0
 18 42  1  0  0  0  0
 20 43  1  0  0  0  0
 20 44  1  0  0  0  0
 20 45  1  0  0  0  0
 21 46  1  0  0  0  0
 21 47  1  0  0  0  0
 21 48  1  0  0  0  0
 22 50  1  0  0  0  0
 22 51  1  0  0  0  0
 22 52  1  0  0  0  0
 23 25  1  0  0  0  0
 24 26  1  0  0  0  0
 25 27  1  0  0  0  0
 25 29  2  0  0  0  0
 26 28  1  0  0  0  0
 26 30  2  0  0  0  0
 27 53  1  0  0  0  0
 27 54  1  0  0  0  0
 27 55  1  0  0  0  0
 28 56  1  0  0  0  0
 28 57  1  0  0  0  0
 28 58  1  0  0  0  0
 29 31  1  0  0  0  0
 29 59  1  0  0  0  0
 30 32  1  0  0  0  0
 30 60  1  0  0  0  0
 31 61  1  0  0  0  0
 31 62  1  0  0  0  0
 31 63  1  0  0  0  0
 32 64  1  0  0  0  0
 32 65  1  0  0  0  0
 32 66  1  0  0  0  0
M  END
> <PUBCHEM_COMPOUND_CID>
5281468

> <PUBCHEM_COMPOUND_CANONICALIZED>
1

> <PUBCHEM_CACTVS_COMPLEXITY>
913

> <PUBCHEM_CACTVS_HBOND_ACCEPTOR>
7

> <PUBCHEM_CACTVS_HBOND_DONOR>
1

> <PUBCHEM_CACTVS_ROTATABLE_BOND>
6

> <PUBCHEM_CACTVS_SUBSKEYS>
AAADcfB4OAAAAAAAAAAAAAAAAAAAASIAAAAAAAAABgAAAACQAAAAGgAACAAADVSggAICCAAABgCIAiDSCAIAAAAgAAAACAFAAEgBBBIAIQQCUAAFwAAKIYPK6PyOgAAAAAAAAAAAAAAAAAAAAAAAAAAAAA==

> <PUBCHEM_IUPAC_OPENEYE_NAME>
[(3S,3aR,4S,6S,6aS,9aS,9bS)-6-hydroxy-3,6,9-trimethyl-3-[(Z)-2-methylbut-2-enoyl]oxy-2-oxo-4,5,6a,7,9a,9b-hexahydro-3aH-azuleno[4,5-b]furan-4-yl] (Z)-2-methylbut-2-enoate

> <PUBCHEM_IUPAC_CAS_NAME>
(Z)-2-methyl-2-butenoic acid [(3S,3aR,4S,6S,6aS,9aS,9bS)-6-hydroxy-3,6,9-trimethyl-3-[(Z)-2-methyl-1-oxobut-2-enoxy]-2-oxo-4,5,6a,7,9a,9b-hexahydro-3aH-azuleno[4,5-b]furan-4-yl] ester

> <PUBCHEM_IUPAC_NAME>
[(3S,3aR,4S,6S,6aS,9aS,9bS)-6-hydroxy-3,6,9-trimethyl-3-[(Z)-2-methylbut-2-enoyl]oxy-2-oxo-4,5,6a,7,9a,9b-hexahydro-3aH-azuleno[4,5-b]furan-4-yl] (Z)-2-methylbut-2-enoate

> <PUBCHEM_IUPAC_SYSTEMATIC_NAME>
[(3S,3aR,4S,6S,6aS,9aS,9bS)-3,6,9-trimethyl-3-[(Z)-2-methylbut-2-enoyl]oxy-6-oxidanyl-2-oxidanylidene-4,5,6a,7,9a,9b-hexahydro-3aH-azuleno[4,5-b]furan-4-yl] (Z)-2-methylbut-2-enoate

> <PUBCHEM_IUPAC_TRADITIONAL_NAME>
(Z)-2-methylbut-2-enoic acid [(3S,3aR,4S,6S,6aS,9aS,9bS)-6-hydroxy-2-keto-3,6,9-trimethyl-3-[(Z)-2-methylbut-2-enoyl]oxy-4,5,6a,7,9a,9b-hexahydro-3aH-azuleno[4,5-b]furan-4-yl] ester

> <PUBCHEM_IUPAC_INCHI>
InChI=1S/C25H34O7/c1-8-13(3)21(26)30-17-12-24(6,29)16-11-10-15(5)18(16)20-19(17)25(7,23(28)31-20)32-22(27)14(4)9-2/h8-10,16-20,29H,11-12H2,1-7H3/b13-8-,14-9-/t16-,17-,18+,19+,20-,24-,25-/m0/s1

> <PUBCHEM_IUPAC_INCHIKEY>
BCRODGCGQKENCQ-SHQNSFORSA-N

> <PUBCHEM_XLOGP3_AA>
3.5

> <PUBCHEM_EXACT_MASS>
446.230453

> <PUBCHEM_MOLECULAR_FORMULA>
C25H34O7

> <PUBCHEM_MOLECULAR_WEIGHT>
446.53326

> <PUBCHEM_OPENEYE_CAN_SMILES>
CC=C(C)C(=O)OC1CC(C2CC=C(C2C3C1C(C(=O)O3)(C)OC(=O)C(=CC)C)C)(C)O

> <PUBCHEM_OPENEYE_ISO_SMILES>
C/C=C(/C)\C(=O)O[C@H]1C[C@]([C@H]2CC=C([C@H]2[C@H]3[C@@H]1[C@](C(=O)O3)(C)OC(=O)/C(=C\C)/C)C)(C)O

> <PUBCHEM_CACTVS_TPSA>
99.1

> <PUBCHEM_MONOISOTOPIC_WEIGHT>
446.230453

> <PUBCHEM_TOTAL_CHARGE>
0

> <PUBCHEM_HEAVY_ATOM_COUNT>
32

> <PUBCHEM_ATOM_DEF_STEREO_COUNT>
7

> <PUBCHEM_ATOM_UDEF_STEREO_COUNT>
0

> <PUBCHEM_BOND_DEF_STEREO_COUNT>
2

> <PUBCHEM_BOND_UDEF_STEREO_COUNT>
0

> <PUBCHEM_ISOTOPIC_ATOM_COUNT>
0

> <PUBCHEM_COMPONENT_COUNT>
1

> <PUBCHEM_CACTVS_TAUTO_COUNT>
1

> <PUBCHEM_COORDINATE_TYPE>
1
5
255

> <PUBCHEM_BONDANNOTATIONS>
10  35  6
11  36  6
12  2  5
13  3  6
15  4  6
8  33  5
9  34  5

$$$$

