854032
  -OEChem-06241222462D

 28 29  0     1  0  0  0  0  0999 V2000
    5.2215    3.4630    0.0000 S   0  0  0  0  0  0  0  0  0  0  0  0
    4.8535   -0.0379    0.0000 O   0  0  0  0  0  0  0  0  0  0  0  0
    2.8660   -3.1530    0.0000 O   0  0  0  0  0  0  0  0  0  0  0  0
    3.8366    2.3415    0.0000 N   0  0  0  0  0  0  0  0  0  0  0  0
    5.3147    1.6834    0.0000 N   0  0  0  0  0  0  0  0  0  0  0  0
    3.7320    1.3470    0.0000 C   0  0  2  0  0  0  0  0  0  0  0  0
    2.8660    0.8470    0.0000 C   0  0  0  0  0  0  0  0  0  0  0  0
    4.6456    0.9403    0.0000 C   0  0  0  0  0  0  0  0  0  0  0  0
    2.8660   -0.1530    0.0000 C   0  0  0  0  0  0  0  0  0  0  0  0
    4.8147    2.5494    0.0000 C   0  0  0  0  0  0  0  0  0  0  0  0
    6.3092    1.5789    0.0000 C   0  0  0  0  0  0  0  0  0  0  0  0
    2.0000   -0.6530    0.0000 C   0  0  0  0  0  0  0  0  0  0  0  0
    3.7320   -0.6530    0.0000 C   0  0  0  0  0  0  0  0  0  0  0  0
    2.0000   -1.6530    0.0000 C   0  0  0  0  0  0  0  0  0  0  0  0
    3.7320   -1.6530    0.0000 C   0  0  0  0  0  0  0  0  0  0  0  0
    2.8660   -2.1530    0.0000 C   0  0  0  0  0  0  0  0  0  0  0  0
    3.2121    1.6847    0.0000 H   0  0  0  0  0  0  0  0  0  0  0  0
    2.6540    1.4296    0.0000 H   0  0  0  0  0  0  0  0  0  0  0  0
    2.2554    0.7393    0.0000 H   0  0  0  0  0  0  0  0  0  0  0  0
    3.3758    2.7564    0.0000 H   0  0  0  0  0  0  0  0  0  0  0  0
    6.2444    0.9623    0.0000 H   0  0  0  0  0  0  0  0  0  0  0  0
    6.9258    1.5141    0.0000 H   0  0  0  0  0  0  0  0  0  0  0  0
    6.3741    2.1955    0.0000 H   0  0  0  0  0  0  0  0  0  0  0  0
    1.4631   -0.3430    0.0000 H   0  0  0  0  0  0  0  0  0  0  0  0
    4.2690   -0.3430    0.0000 H   0  0  0  0  0  0  0  0  0  0  0  0
    1.4631   -1.9630    0.0000 H   0  0  0  0  0  0  0  0  0  0  0  0
    4.2690   -1.9630    0.0000 H   0  0  0  0  0  0  0  0  0  0  0  0
    2.3291   -3.4630    0.0000 H   0  0  0  0  0  0  0  0  0  0  0  0
  1 10  2  0  0  0  0
  2  8  2  0  0  0  0
  3 16  1  0  0  0  0
  3 28  1  0  0  0  0
  4  6  1  0  0  0  0
  4 10  1  0  0  0  0
  4 20  1  0  0  0  0
  5  8  1  0  0  0  0
  5 10  1  0  0  0  0
  5 11  1  0  0  0  0
  6  7  1  1  0  0  0
  6  8  1  0  0  0  0
  6 17  1  0  0  0  0
  7  9  1  0  0  0  0
  7 18  1  0  0  0  0
  7 19  1  0  0  0  0
  9 12  2  0  0  0  0
  9 13  1  0  0  0  0
 11 21  1  0  0  0  0
 11 22  1  0  0  0  0
 11 23  1  0  0  0  0
 12 14  1  0  0  0  0
 12 24  1  0  0  0  0
 13 15  2  0  0  0  0
 13 25  1  0  0  0  0
 14 16  2  0  0  0  0
 14 26  1  0  0  0  0
 15 16  1  0  0  0  0
 15 27  1  0  0  0  0
M  END
> <PUBCHEM_COMPOUND_CID>
854032

> <PUBCHEM_COMPOUND_CANONICALIZED>
1

> <PUBCHEM_CACTVS_COMPLEXITY>
300

> <PUBCHEM_CACTVS_HBOND_ACCEPTOR>
3

> <PUBCHEM_CACTVS_HBOND_DONOR>
2

> <PUBCHEM_CACTVS_ROTATABLE_BOND>
2

> <PUBCHEM_CACTVS_SUBSKEYS>
AAADccBzMABAAAAAAAAAAAAAAAAAAWAAAAAwAAAAAAAAAAABAAAAHgQQCAAADCzBmAQzBoPAAgCMAiFSEAACAAAgIAkIiIGOCIiIZjKCkTOUcAAs0xMImAeYyKCOIAAAAAAAAABAAAAAAAAAAAAAAAAAAA==

> <PUBCHEM_IUPAC_OPENEYE_NAME>
(5R)-5-[(4-hydroxyphenyl)methyl]-3-methyl-2-thioxo-imidazolidin-4-one

> <PUBCHEM_IUPAC_CAS_NAME>
(5R)-5-[(4-hydroxyphenyl)methyl]-3-methyl-2-sulfanylidene-4-imidazolidinone

> <PUBCHEM_IUPAC_NAME>
(5R)-5-[(4-hydroxyphenyl)methyl]-3-methyl-2-sulfanylideneimidazolidin-4-one

> <PUBCHEM_IUPAC_SYSTEMATIC_NAME>
(5R)-5-[(4-hydroxyphenyl)methyl]-3-methyl-2-sulfanylidene-imidazolidin-4-one

> <PUBCHEM_IUPAC_TRADITIONAL_NAME>
(5R)-5-(4-hydroxybenzyl)-3-methyl-2-thioxo-4-imidazolidinone

> <PUBCHEM_IUPAC_INCHI>
InChI=1S/C11H12N2O2S/c1-13-10(15)9(12-11(13)16)6-7-2-4-8(14)5-3-7/h2-5,9,14H,6H2,1H3,(H,12,16)/t9-/m1/s1

> <PUBCHEM_IUPAC_INCHIKEY>
VYIBESPZQFAJRM-SECBINFHSA-N

> <PUBCHEM_XLOGP3_AA>
1.4

> <PUBCHEM_EXACT_MASS>
236.061949

> <PUBCHEM_MOLECULAR_FORMULA>
C11H12N2O2S

> <PUBCHEM_MOLECULAR_WEIGHT>
236.29018

> <PUBCHEM_OPENEYE_CAN_SMILES>
CN1C(=O)C(NC1=S)CC2=CC=C(C=C2)O

> <PUBCHEM_OPENEYE_ISO_SMILES>
CN1C(=O)[C@H](NC1=S)CC2=CC=C(C=C2)O

> <PUBCHEM_CACTVS_TPSA>
84.7

> <PUBCHEM_MONOISOTOPIC_WEIGHT>
236.061949

> <PUBCHEM_TOTAL_CHARGE>
0

> <PUBCHEM_HEAVY_ATOM_COUNT>
16

> <PUBCHEM_ATOM_DEF_STEREO_COUNT>
1

> <PUBCHEM_ATOM_UDEF_STEREO_COUNT>
0

> <PUBCHEM_BOND_DEF_STEREO_COUNT>
0

> <PUBCHEM_BOND_UDEF_STEREO_COUNT>
0

> <PUBCHEM_ISOTOPIC_ATOM_COUNT>
0

> <PUBCHEM_COMPONENT_COUNT>
1

> <PUBCHEM_CACTVS_TAUTO_COUNT>
8

> <PUBCHEM_COORDINATE_TYPE>
1
5
255

> <PUBCHEM_BONDANNOTATIONS>
12  14  8
13  15  8
14  16  8
15  16  8
6  7  5
9  12  8
9  13  8

$$$$

