   Color/Form

     * NEEDLES FROM PETROLEUM ETHER
     * WHITE CRYSTALLINE POWDER

   from [1]HSDB

   Odor
        ODORLESS
   from [2]HSDB

   Taste
        SLIGHTLY BITTER TASTE
   from [3]HSDB

   Melting Point
        104-105 DEG C
   from [4]HSDB

   Solubilities
        FREELY SOL IN CHLOROFORM, ETHER & CYCLOHEXANE; SPARINGLY SOL IN
   ALC; INSOL IN WATER
   from [5]HSDB

   Other Chemical/Physical Properties
        CRYSTALS FROM CHLOROFORM + ETHYL ACETATE; FREELY SOL IN METHANOL;
   SOL IN WATER & CHLOROFORM; PRACTICALLY INSOL IN ETHER, BENZENE, &
   PETROLEUM ETHER /HCL/
   from [6]HSDB

   Computed Properties
   Molecular Weight                  309.44518 [g/mol]
   Molecular Formula                 C[21]H[27]NO
   XLogP3-AA                         4.2
   H-Bond Donor                      1
   H-Bond Acceptor                   2
   Rotatable Bond Count              6
   Exact Mass                        309.209264
   MonoIsotopic Mass                 309.209264
   Topological Polar Surface Area    23.5
   Heavy Atom Count                  23
   Formal Charge                     0
   Complexity                        307
   Isotope Atom Count                0
   Defined Atom Stereocenter Count   0
   Undefined Atom Stereocenter Count 0
   Defined Bond Stereocenter Count   0
   Undefined Bond Stereocenter Count 0
   Covalently-Bonded Unit Count      1
   Feature 3D Acceptor Count         1
   Feature 3D Donor Count            1
   Feature 3D Cation Count           1
   Feature 3D Ring Count             3
   Effective Rotor Count             7.2
   Conformer Sampling RMSD           0.8
   CID Conformer Count               [7]29

References

   1. http://toxnet.nlm.nih.gov/cgi-bin/sis/search/r?dbs+hsdb:@term+@rn+@rel+972-02-1
   2. http://toxnet.nlm.nih.gov/cgi-bin/sis/search/r?dbs+hsdb:@term+@rn+@rel+972-02-1
   3. http://toxnet.nlm.nih.gov/cgi-bin/sis/search/r?dbs+hsdb:@term+@rn+@rel+972-02-1
   4. http://toxnet.nlm.nih.gov/cgi-bin/sis/search/r?dbs+hsdb:@term+@rn+@rel+972-02-1
   5. http://toxnet.nlm.nih.gov/cgi-bin/sis/search/r?dbs+hsdb:@term+@rn+@rel+972-02-1
   6. http://toxnet.nlm.nih.gov/cgi-bin/sis/search/r?dbs+hsdb:@term+@rn+@rel+972-02-1
   7. http://pubchem.ncbi.nlm.nih.gov/vw3d/vw3d.cgi?cid=3055
