4011
  -OEChem-07051212522D

 44 47  0     0  0  0  0  0  0999 V2000
    6.6979   -2.3474    0.0000 N   0  0  0  0  0  0  0  0  0  0  0  0
    5.8013    0.9987    0.0000 C   0  0  0  0  0  0  0  0  0  0  0  0
    6.0601    1.9646    0.0000 C   0  0  0  0  0  0  0  0  0  0  0  0
    4.8235    2.8133    0.0000 C   0  0  0  0  0  0  0  0  0  0  0  0
    5.6895    3.3133    0.0000 C   0  0  0  0  0  0  0  0  0  0  0  0
    4.0693   -0.0013    0.0000 C   0  0  0  0  0  0  0  0  0  0  0  0
    7.6333    0.2399    0.0000 C   0  0  0  0  0  0  0  0  0  0  0  0
    5.5425    0.0328    0.0000 C   0  0  0  0  0  0  0  0  0  0  0  0
    3.5693    0.8647    0.0000 C   0  0  0  0  0  0  0  0  0  0  0  0
    7.8921    1.2058    0.0000 C   0  0  0  0  0  0  0  0  0  0  0  0
    6.2496   -0.6743    0.0000 C   0  0  0  0  0  0  0  0  0  0  0  0
    3.5624   -0.9113    0.0000 C   0  0  0  0  0  0  0  0  0  0  0  0
    8.3584   -0.5079    0.0000 C   0  0  0  0  0  0  0  0  0  0  0  0
    2.5278    0.8808    0.0000 C   0  0  0  0  0  0  0  0  0  0  0  0
    8.8939    1.4909    0.0000 C   0  0  0  0  0  0  0  0  0  0  0  0
    5.9908   -1.6402    0.0000 C   0  0  0  0  0  0  0  0  0  0  0  0
    9.3666   -0.2461    0.0000 C   0  0  0  0  0  0  0  0  0  0  0  0
    2.5208   -0.9193    0.0000 C   0  0  0  0  0  0  0  0  0  0  0  0
    2.0000   -0.0172    0.0000 C   0  0  0  0  0  0  0  0  0  0  0  0
    9.6361    0.7600    0.0000 C   0  0  0  0  0  0  0  0  0  0  0  0
    6.4391   -3.3133    0.0000 C   0  0  0  0  0  0  0  0  0  0  0  0
    6.5250    2.3749    0.0000 H   0  0  0  0  0  0  0  0  0  0  0  0
    4.5188    3.3532    0.0000 H   0  0  0  0  0  0  0  0  0  0  0  0
    4.2806    2.5138    0.0000 H   0  0  0  0  0  0  0  0  0  0  0  0
    6.2712    3.5278    0.0000 H   0  0  0  0  0  0  0  0  0  0  0  0
    5.4263    3.8746    0.0000 H   0  0  0  0  0  0  0  0  0  0  0  0
    4.9806    0.2948    0.0000 H   0  0  0  0  0  0  0  0  0  0  0  0
    5.1869   -0.4751    0.0000 H   0  0  0  0  0  0  0  0  0  0  0  0
    6.8115   -0.9363    0.0000 H   0  0  0  0  0  0  0  0  0  0  0  0
    6.6052   -0.1664    0.0000 H   0  0  0  0  0  0  0  0  0  0  0  0
    3.8786   -1.4446    0.0000 H   0  0  0  0  0  0  0  0  0  0  0  0
    8.1910   -1.1049    0.0000 H   0  0  0  0  0  0  0  0  0  0  0  0
    9.0475    2.0916    0.0000 H   0  0  0  0  0  0  0  0  0  0  0  0
    2.2240    1.4213    0.0000 H   0  0  0  0  0  0  0  0  0  0  0  0
    5.4289   -1.3782    0.0000 H   0  0  0  0  0  0  0  0  0  0  0  0
    5.6352   -2.1481    0.0000 H   0  0  0  0  0  0  0  0  0  0  0  0
    9.8033   -0.6862    0.0000 H   0  0  0  0  0  0  0  0  0  0  0  0
    2.2129   -1.4574    0.0000 H   0  0  0  0  0  0  0  0  0  0  0  0
   10.2344    0.9228    0.0000 H   0  0  0  0  0  0  0  0  0  0  0  0
    1.3800   -0.0148    0.0000 H   0  0  0  0  0  0  0  0  0  0  0  0
    7.2968   -2.1869    0.0000 H   0  0  0  0  0  0  0  0  0  0  0  0
    5.8402   -3.1528    0.0000 H   0  0  0  0  0  0  0  0  0  0  0  0
    6.2786   -3.9122    0.0000 H   0  0  0  0  0  0  0  0  0  0  0  0
    7.0379   -3.4738    0.0000 H   0  0  0  0  0  0  0  0  0  0  0  0
  1 16  1  0  0  0  0
  1 21  1  0  0  0  0
  1 41  1  0  0  0  0
  2  4  1  0  0  0  0
  2  6  1  0  0  0  0
  2  7  1  0  0  0  0
  2  8  1  0  0  0  0
  3  5  1  0  0  0  0
  3  9  1  0  0  0  0
  3 10  1  0  0  0  0
  3 22  1  0  0  0  0
  4  5  1  0  0  0  0
  4 23  1  0  0  0  0
  4 24  1  0  0  0  0
  5 25  1  0  0  0  0
  5 26  1  0  0  0  0
  6  9  1  0  0  0  0
  6 12  2  0  0  0  0
  7 10  1  0  0  0  0
  7 13  2  0  0  0  0
  8 11  1  0  0  0  0
  8 27  1  0  0  0  0
  8 28  1  0  0  0  0
  9 14  2  0  0  0  0
 10 15  2  0  0  0  0
 11 16  1  0  0  0  0
 11 29  1  0  0  0  0
 11 30  1  0  0  0  0
 12 18  1  0  0  0  0
 12 31  1  0  0  0  0
 13 17  1  0  0  0  0
 13 32  1  0  0  0  0
 14 19  1  0  0  0  0
 14 34  1  0  0  0  0
 15 20  1  0  0  0  0
 15 33  1  0  0  0  0
 16 35  1  0  0  0  0
 16 36  1  0  0  0  0
 17 20  2  0  0  0  0
 17 37  1  0  0  0  0
 18 19  2  0  0  0  0
 18 38  1  0  0  0  0
 19 40  1  0  0  0  0
 20 39  1  0  0  0  0
 21 42  1  0  0  0  0
 21 43  1  0  0  0  0
 21 44  1  0  0  0  0
M  END
> <PUBCHEM_COMPOUND_CID>
4011

> <PUBCHEM_COMPOUND_CANONICALIZED>
1

> <PUBCHEM_CACTVS_COMPLEXITY>
339

> <PUBCHEM_CACTVS_HBOND_ACCEPTOR>
1

> <PUBCHEM_CACTVS_HBOND_DONOR>
1

> <PUBCHEM_CACTVS_ROTATABLE_BOND>
4

> <PUBCHEM_CACTVS_SUBSKEYS>
AAADceB6AAAAAAAAAAAAAAAAAAAAAAAAAAAwYMGDAAAAAADBQAAAHAAQAAAADwDBGAQyAILAAACAAiBCAAACAAAgAAAIiIAIAIgIICKAkRCEIAAgkAAIiAcQgMAPgAAAAAAQAACAAAQAACAAAAAAAAAAAA==

> <PUBCHEM_IUPAC_INCHI>
InChI=1S/C20H23N/c1-21-14-6-12-20-13-11-15(16-7-2-4-9-18(16)20)17-8-3-5-10-19(17)20/h2-5,7-10,15,21H,6,11-14H2,1H3

> <PUBCHEM_IUPAC_INCHIKEY>
QSLMDECMDJKHMQ-UHFFFAOYSA-N

> <PUBCHEM_XLOGP3_AA>
4.6

> <PUBCHEM_EXACT_MASS>
277.18305

> <PUBCHEM_MOLECULAR_FORMULA>
C20H23N

> <PUBCHEM_MOLECULAR_WEIGHT>
277.40332

> <PUBCHEM_OPENEYE_CAN_SMILES>
CNCCCC12CCC(C3=CC=CC=C31)C4=CC=CC=C24

> <PUBCHEM_OPENEYE_ISO_SMILES>
CNCCCC12CCC(C3=CC=CC=C31)C4=CC=CC=C24

> <PUBCHEM_CACTVS_TPSA>
12

> <PUBCHEM_MONOISOTOPIC_WEIGHT>
277.18305

> <PUBCHEM_TOTAL_CHARGE>
0

> <PUBCHEM_HEAVY_ATOM_COUNT>
21

> <PUBCHEM_ATOM_DEF_STEREO_COUNT>
0

> <PUBCHEM_ATOM_UDEF_STEREO_COUNT>
0

> <PUBCHEM_BOND_DEF_STEREO_COUNT>
0

> <PUBCHEM_BOND_UDEF_STEREO_COUNT>
0

> <PUBCHEM_ISOTOPIC_ATOM_COUNT>
0

> <PUBCHEM_COMPONENT_COUNT>
1

> <PUBCHEM_CACTVS_TAUTO_COUNT>
1

> <PUBCHEM_COORDINATE_TYPE>
1
5
255

> <PUBCHEM_BONDANNOTATIONS>
10  15  8
12  18  8
13  17  8
14  19  8
15  20  8
17  20  8
18  19  8
6  12  8
6  9  8
7  10  8
7  13  8
9  14  8

$$$$

