442179
  -OEChem-07051212572D

 52 54  0     1  0  0  0  0  0999 V2000
    4.2463   -4.0820    0.0000 Cl  0  0  0  0  0  0  0  0  0  0  0  0
    5.6499    4.2145    0.0000 Cl  0  0  0  0  0  0  0  0  0  0  0  0
    3.7230   -2.1092    0.0000 O   0  0  0  0  0  0  0  0  0  0  0  0
    5.4378   -4.0044    0.0000 O   0  0  0  0  0  0  0  0  0  0  0  0
    7.0268   -4.0977    0.0000 O   0  0  0  0  0  0  0  0  0  0  0  0
    4.5447    1.0562    0.0000 O   0  0  0  0  0  0  0  0  0  0  0  0
    2.0000   -1.6770    0.0000 O   0  0  0  0  0  0  0  0  0  0  0  0
    6.1053    1.8077    0.0000 O   0  0  0  0  0  0  0  0  0  0  0  0
    4.2403    3.6844    0.0000 O   0  0  0  0  0  0  0  0  0  0  0  0
    5.4786   -2.0354    0.0000 C   0  0  2  0  0  0  0  0  0  0  0  0
    6.3796   -1.6015    0.0000 C   0  0  1  0  0  0  0  0  0  0  0  0
    5.6146   -3.0201    0.0000 C   0  0  1  0  0  0  0  0  0  0  0  0
    4.5777   -1.6015    0.0000 C   0  0  2  0  0  0  0  0  0  0  0  0
    6.5929   -3.1968    0.0000 C   0  0  1  0  0  0  0  0  0  0  0  0
    7.0647   -2.3218    0.0000 C   0  0  0  0  0  0  0  0  0  0  0  0
    4.3551   -0.6266    0.0000 C   0  0  1  0  0  0  0  0  0  0  0  0
    6.6021   -0.6266    0.0000 C   0  0  0  0  0  0  0  0  0  0  0  0
    4.9786    0.1553    0.0000 C   0  0  2  0  0  0  0  0  0  0  0  0
    5.9786    0.1553    0.0000 C   0  0  0  0  0  0  0  0  0  0  0  0
    4.6239   -3.1561    0.0000 C   0  0  0  0  0  0  0  0  0  0  0  0
    3.3648   -0.5400    0.0000 C   0  0  0  0  0  0  0  0  0  0  0  0
    2.9749   -1.4545    0.0000 C   0  0  0  0  0  0  0  0  0  0  0  0
    7.5770   -0.4041    0.0000 C   0  0  0  0  0  0  0  0  0  0  0  0
    2.8504    0.3175    0.0000 C   0  0  0  0  0  0  0  0  0  0  0  0
    5.1081    1.8825    0.0000 C   0  0  0  0  0  0  0  0  0  0  0  0
    4.6742    2.7834    0.0000 C   0  0  1  0  0  0  0  0  0  0  0  0
    5.5752    3.2173    0.0000 C   0  0  0  0  0  0  0  0  0  0  0  0
    3.7732    2.3495    0.0000 C   0  0  0  0  0  0  0  0  0  0  0  0
    4.7916   -2.5359    0.0000 H   0  0  0  0  0  0  0  0  0  0  0  0
    7.1993   -1.3764    0.0000 H   0  0  0  0  0  0  0  0  0  0  0  0
    4.6147   -2.4507    0.0000 H   0  0  0  0  0  0  0  0  0  0  0  0
    7.2127   -3.2110    0.0000 H   0  0  0  0  0  0  0  0  0  0  0  0
    7.5765   -2.6718    0.0000 H   0  0  0  0  0  0  0  0  0  0  0  0
    7.4666   -1.8497    0.0000 H   0  0  0  0  0  0  0  0  0  0  0  0
    4.0200    0.1546    0.0000 H   0  0  0  0  0  0  0  0  0  0  0  0
    4.3625    0.2247    0.0000 H   0  0  0  0  0  0  0  0  0  0  0  0
    6.5372    0.4243    0.0000 H   0  0  0  0  0  0  0  0  0  0  0  0
    5.8407    0.7597    0.0000 H   0  0  0  0  0  0  0  0  0  0  0  0
    4.6476   -2.5365    0.0000 H   0  0  0  0  0  0  0  0  0  0  0  0
    4.0179   -3.0252    0.0000 H   0  0  0  0  0  0  0  0  0  0  0  0
    4.8545   -4.2145    0.0000 H   0  0  0  0  0  0  0  0  0  0  0  0
    7.6450   -4.1441    0.0000 H   0  0  0  0  0  0  0  0  0  0  0  0
    7.9988   -0.8586    0.0000 H   0  0  0  0  0  0  0  0  0  0  0  0
    7.7598    0.1884    0.0000 H   0  0  0  0  0  0  0  0  0  0  0  0
    3.1514    0.8596    0.0000 H   0  0  0  0  0  0  0  0  0  0  0  0
    2.2305    0.3072    0.0000 H   0  0  0  0  0  0  0  0  0  0  0  0
    5.7431    2.6205    0.0000 H   0  0  0  0  0  0  0  0  0  0  0  0
    6.1921    3.2790    0.0000 H   0  0  0  0  0  0  0  0  0  0  0  0
    3.5042    2.9082    0.0000 H   0  0  0  0  0  0  0  0  0  0  0  0
    3.2146    2.0805    0.0000 H   0  0  0  0  0  0  0  0  0  0  0  0
    4.0422    1.7909    0.0000 H   0  0  0  0  0  0  0  0  0  0  0  0
    4.5896    4.1967    0.0000 H   0  0  0  0  0  0  0  0  0  0  0  0
  1 20  1  0  0  0  0
  2 27  1  0  0  0  0
  3 13  1  0  0  0  0
  3 22  1  0  0  0  0
 12  4  1  1  0  0  0
  4 41  1  0  0  0  0
 14  5  1  1  0  0  0
  5 42  1  0  0  0  0
 18  6  1  1  0  0  0
  6 25  1  0  0  0  0
  7 22  2  0  0  0  0
  8 25  2  0  0  0  0
 26  9  1  6  0  0  0
  9 52  1  0  0  0  0
 10 11  1  0  0  0  0
 10 12  1  0  0  0  0
 10 13  1  0  0  0  0
 10 29  1  1  0  0  0
 11 15  1  0  0  0  0
 11 17  1  0  0  0  0
 11 30  1  1  0  0  0
 12 14  1  0  0  0  0
 12 20  1  0  0  0  0
 13 16  1  0  0  0  0
 13 31  1  6  0  0  0
 14 15  1  0  0  0  0
 14 32  1  0  0  0  0
 15 33  1  0  0  0  0
 15 34  1  0  0  0  0
 16 18  1  0  0  0  0
 16 21  1  0  0  0  0
 16 35  1  1  0  0  0
 17 19  1  0  0  0  0
 17 23  2  0  0  0  0
 18 19  1  0  0  0  0
 18 36  1  0  0  0  0
 19 37  1  0  0  0  0
 19 38  1  0  0  0  0
 20 39  1  0  0  0  0
 20 40  1  0  0  0  0
 21 22  1  0  0  0  0
 21 24  2  0  0  0  0
 23 43  1  0  0  0  0
 23 44  1  0  0  0  0
 24 45  1  0  0  0  0
 24 46  1  0  0  0  0
 25 26  1  0  0  0  0
 26 27  1  0  0  0  0
 26 28  1  0  0  0  0
 27 47  1  0  0  0  0
 27 48  1  0  0  0  0
 28 49  1  0  0  0  0
 28 50  1  0  0  0  0
 28 51  1  0  0  0  0
M  END
> <PUBCHEM_COMPOUND_CID>
442179

> <PUBCHEM_COMPOUND_CANONICALIZED>
1

> <PUBCHEM_CACTVS_COMPLEXITY>
725

> <PUBCHEM_CACTVS_HBOND_ACCEPTOR>
7

> <PUBCHEM_CACTVS_HBOND_DONOR>
3

> <PUBCHEM_CACTVS_ROTATABLE_BOND>
5

> <PUBCHEM_CACTVS_SUBSKEYS>
AAADceB4OAAGAAAAAAAAAAAAAAAAAaIAAAAAAAAABgAAAADQAAAAGgIACAAADVeggEICCAAABgCIAgDSCAIAAAAgAAAAAAFAA0gBFBIBIQACQAAFwAADIIHK6PyOgAAAAAAAAAAAAAAAAAAAAYAADCAAAA==

> <PUBCHEM_IUPAC_OPENEYE_NAME>
[(3aR,4S,6aR,8R,9S,9aS,9bS)-9-(chloromethyl)-8,9-dihydroxy-3,6-dimethylene-2-oxo-3a,4,5,6a,7,8,9a,9b-octahydroazuleno[4,5-b]furan-4-yl] (2S)-3-chloro-2-hydroxy-2-methyl-propanoate

> <PUBCHEM_IUPAC_CAS_NAME>
(2S)-3-chloro-2-hydroxy-2-methylpropanoic acid [(3aR,4S,6aR,8R,9S,9aS,9bS)-9-(chloromethyl)-8,9-dihydroxy-3,6-dimethylene-2-oxo-3a,4,5,6a,7,8,9a,9b-octahydroazuleno[4,5-b]furan-4-yl] ester

> <PUBCHEM_IUPAC_NAME>
[(3aR,4S,6aR,8R,9S,9aS,9bS)-9-(chloromethyl)-8,9-dihydroxy-3,6-dimethylidene-2-oxo-3a,4,5,6a,7,8,9a,9b-octahydroazuleno[4,5-b]furan-4-yl] (2S)-3-chloro-2-hydroxy-2-methylpropanoate

> <PUBCHEM_IUPAC_SYSTEMATIC_NAME>
[(3aR,4S,6aR,8R,9S,9aS,9bS)-9-(chloromethyl)-3,6-dimethylidene-8,9-bis(oxidanyl)-2-oxidanylidene-3a,4,5,6a,7,8,9a,9b-octahydroazuleno[4,5-b]furan-4-yl] (2S)-3-chloranyl-2-methyl-2-oxidanyl-propanoate

> <PUBCHEM_IUPAC_TRADITIONAL_NAME>
(2S)-3-chloro-2-hydroxy-2-methyl-propionic acid [(3aR,4S,6aR,8R,9S,9aS,9bS)-9-(chloromethyl)-8,9-dihydroxy-2-keto-3,6-dimethylene-3a,4,5,6a,7,8,9a,9b-octahydroazuleno[4,5-b]furan-4-yl] ester

> <PUBCHEM_IUPAC_INCHI>
InChI=1S/C19H24Cl2O7/c1-8-4-11(27-17(24)18(3,25)6-20)13-9(2)16(23)28-15(13)14-10(8)5-12(22)19(14,26)7-21/h10-15,22,25-26H,1-2,4-7H2,3H3/t10-,11-,12+,13+,14-,15-,18+,19+/m0/s1

> <PUBCHEM_IUPAC_INCHIKEY>
NUVAJKJDTZTFLK-KPSOQAITSA-N

> <PUBCHEM_XLOGP3_AA>
0.8

> <PUBCHEM_EXACT_MASS>
434.089908

> <PUBCHEM_MOLECULAR_FORMULA>
C19H24Cl2O7

> <PUBCHEM_MOLECULAR_WEIGHT>
435.29566

> <PUBCHEM_OPENEYE_CAN_SMILES>
CC(CCl)(C(=O)OC1CC(=C)C2CC(C(C2C3C1C(=C)C(=O)O3)(CCl)O)O)O

> <PUBCHEM_OPENEYE_ISO_SMILES>
C[C@@](CCl)(C(=O)O[C@H]1CC(=C)[C@@H]2C[C@H]([C@@]([C@@H]2[C@@H]3[C@@H]1C(=C)C(=O)O3)(CCl)O)O)O

> <PUBCHEM_CACTVS_TPSA>
113

> <PUBCHEM_MONOISOTOPIC_WEIGHT>
434.089908

> <PUBCHEM_TOTAL_CHARGE>
0

> <PUBCHEM_HEAVY_ATOM_COUNT>
28

> <PUBCHEM_ATOM_DEF_STEREO_COUNT>
8

> <PUBCHEM_ATOM_UDEF_STEREO_COUNT>
0

> <PUBCHEM_BOND_DEF_STEREO_COUNT>
0

> <PUBCHEM_BOND_UDEF_STEREO_COUNT>
0

> <PUBCHEM_ISOTOPIC_ATOM_COUNT>
0

> <PUBCHEM_COMPONENT_COUNT>
1

> <PUBCHEM_CACTVS_TAUTO_COUNT>
1

> <PUBCHEM_COORDINATE_TYPE>
1
5
255

> <PUBCHEM_BONDANNOTATIONS>
10  29  5
11  30  5
13  31  6
16  35  5
12  4  5
14  5  5
18  6  5
26  9  6

$$$$

