13122
  -OEChem-06261207472D

 58 60  0     0  0  0  0  0  0999 V2000
    3.2680   -5.7990    0.0000 F   0  0  0  0  0  0  0  0  0  0  0  0
    3.5000    5.7990    0.0000 O   0  0  0  0  0  0  0  0  0  0  0  0
    2.4019   -1.2990    0.0000 O   0  0  0  0  0  0  0  0  0  0  0  0
    5.0000    1.2010    0.0000 N   0  0  0  0  0  0  0  0  0  0  0  0
    3.5000    4.0670    0.0000 N   0  0  0  0  0  0  0  0  0  0  0  0
    5.0000    3.2010    0.0000 C   0  0  0  0  0  0  0  0  0  0  0  0
    4.1340    2.7010    0.0000 C   0  0  0  0  0  0  0  0  0  0  0  0
    5.8660    2.7010    0.0000 C   0  0  0  0  0  0  0  0  0  0  0  0
    5.8660    1.7010    0.0000 C   0  0  0  0  0  0  0  0  0  0  0  0
    4.1340    1.7010    0.0000 C   0  0  0  0  0  0  0  0  0  0  0  0
    4.5000    4.0670    0.0000 C   0  0  0  0  0  0  0  0  0  0  0  0
    5.5000    4.0670    0.0000 C   0  0  0  0  0  0  0  0  0  0  0  0
    5.0000    0.2010    0.0000 C   0  0  0  0  0  0  0  0  0  0  0  0
    4.1340   -0.2990    0.0000 C   0  0  0  0  0  0  0  0  0  0  0  0
    6.5000    4.0670    0.0000 C   0  0  0  0  0  0  0  0  0  0  0  0
    5.0000    4.9330    0.0000 C   0  0  0  0  0  0  0  0  0  0  0  0
    4.1340   -1.2990    0.0000 C   0  0  0  0  0  0  0  0  0  0  0  0
    7.0000    4.9330    0.0000 C   0  0  0  0  0  0  0  0  0  0  0  0
    5.5000    5.7990    0.0000 C   0  0  0  0  0  0  0  0  0  0  0  0
    3.0000    4.9330    0.0000 C   0  0  0  0  0  0  0  0  0  0  0  0
    6.5000    5.7990    0.0000 C   0  0  0  0  0  0  0  0  0  0  0  0
    3.2680   -1.7990    0.0000 C   0  0  0  0  0  0  0  0  0  0  0  0
    2.0000    4.9330    0.0000 C   0  0  0  0  0  0  0  0  0  0  0  0
    3.2680   -2.7990    0.0000 C   0  0  0  0  0  0  0  0  0  0  0  0
    2.4019   -3.2990    0.0000 C   0  0  0  0  0  0  0  0  0  0  0  0
    4.1340   -3.2990    0.0000 C   0  0  0  0  0  0  0  0  0  0  0  0
    2.4019   -4.2990    0.0000 C   0  0  0  0  0  0  0  0  0  0  0  0
    4.1340   -4.2990    0.0000 C   0  0  0  0  0  0  0  0  0  0  0  0
    3.2680   -4.7990    0.0000 C   0  0  0  0  0  0  0  0  0  0  0  0
    6.4766    2.5933    0.0000 H   0  0  0  0  0  0  0  0  0  0  0  0
    6.0781    3.2836    0.0000 H   0  0  0  0  0  0  0  0  0  0  0  0
    3.9219    3.2836    0.0000 H   0  0  0  0  0  0  0  0  0  0  0  0
    3.5234    2.5933    0.0000 H   0  0  0  0  0  0  0  0  0  0  0  0
    3.5234    1.8086    0.0000 H   0  0  0  0  0  0  0  0  0  0  0  0
    3.9219    1.1184    0.0000 H   0  0  0  0  0  0  0  0  0  0  0  0
    6.0781    1.1184    0.0000 H   0  0  0  0  0  0  0  0  0  0  0  0
    6.4766    1.8086    0.0000 H   0  0  0  0  0  0  0  0  0  0  0  0
    5.0826    4.2790    0.0000 H   0  0  0  0  0  0  0  0  0  0  0  0
    4.3923    4.6776    0.0000 H   0  0  0  0  0  0  0  0  0  0  0  0
    5.2120   -0.3816    0.0000 H   0  0  0  0  0  0  0  0  0  0  0  0
    5.6106    0.3086    0.0000 H   0  0  0  0  0  0  0  0  0  0  0  0
    3.1900    3.5300    0.0000 H   0  0  0  0  0  0  0  0  0  0  0  0
    3.9219    0.2836    0.0000 H   0  0  0  0  0  0  0  0  0  0  0  0
    3.5234   -0.4067    0.0000 H   0  0  0  0  0  0  0  0  0  0  0  0
    6.8100    3.5300    0.0000 H   0  0  0  0  0  0  0  0  0  0  0  0
    4.3800    4.9330    0.0000 H   0  0  0  0  0  0  0  0  0  0  0  0
    4.3460   -1.8816    0.0000 H   0  0  0  0  0  0  0  0  0  0  0  0
    4.7446   -1.1914    0.0000 H   0  0  0  0  0  0  0  0  0  0  0  0
    7.6200    4.9330    0.0000 H   0  0  0  0  0  0  0  0  0  0  0  0
    5.1900    6.3360    0.0000 H   0  0  0  0  0  0  0  0  0  0  0  0
    6.8100    6.3360    0.0000 H   0  0  0  0  0  0  0  0  0  0  0  0
    2.0000    5.5530    0.0000 H   0  0  0  0  0  0  0  0  0  0  0  0
    1.3800    4.9330    0.0000 H   0  0  0  0  0  0  0  0  0  0  0  0
    2.0000    4.3130    0.0000 H   0  0  0  0  0  0  0  0  0  0  0  0
    1.8650   -2.9890    0.0000 H   0  0  0  0  0  0  0  0  0  0  0  0
    4.6709   -2.9890    0.0000 H   0  0  0  0  0  0  0  0  0  0  0  0
    1.8650   -4.6090    0.0000 H   0  0  0  0  0  0  0  0  0  0  0  0
    4.6709   -4.6090    0.0000 H   0  0  0  0  0  0  0  0  0  0  0  0
  1 29  1  0  0  0  0
  2 20  2  0  0  0  0
  3 22  2  0  0  0  0
  4  9  1  0  0  0  0
  4 10  1  0  0  0  0
  4 13  1  0  0  0  0
  5 11  1  0  0  0  0
  5 20  1  0  0  0  0
  5 42  1  0  0  0  0
  6  7  1  0  0  0  0
  6  8  1  0  0  0  0
  6 11  1  0  0  0  0
  6 12  1  0  0  0  0
  7 10  1  0  0  0  0
  7 32  1  0  0  0  0
  7 33  1  0  0  0  0
  8  9  1  0  0  0  0
  8 30  1  0  0  0  0
  8 31  1  0  0  0  0
  9 36  1  0  0  0  0
  9 37  1  0  0  0  0
 10 34  1  0  0  0  0
 10 35  1  0  0  0  0
 11 38  1  0  0  0  0
 11 39  1  0  0  0  0
 12 15  2  0  0  0  0
 12 16  1  0  0  0  0
 13 14  1  0  0  0  0
 13 40  1  0  0  0  0
 13 41  1  0  0  0  0
 14 17  1  0  0  0  0
 14 43  1  0  0  0  0
 14 44  1  0  0  0  0
 15 18  1  0  0  0  0
 15 45  1  0  0  0  0
 16 19  2  0  0  0  0
 16 46  1  0  0  0  0
 17 22  1  0  0  0  0
 17 47  1  0  0  0  0
 17 48  1  0  0  0  0
 18 21  2  0  0  0  0
 18 49  1  0  0  0  0
 19 21  1  0  0  0  0
 19 50  1  0  0  0  0
 20 23  1  0  0  0  0
 21 51  1  0  0  0  0
 22 24  1  0  0  0  0
 23 52  1  0  0  0  0
 23 53  1  0  0  0  0
 23 54  1  0  0  0  0
 24 25  2  0  0  0  0
 24 26  1  0  0  0  0
 25 27  1  0  0  0  0
 25 55  1  0  0  0  0
 26 28  2  0  0  0  0
 26 56  1  0  0  0  0
 27 29  2  0  0  0  0
 27 57  1  0  0  0  0
 28 29  1  0  0  0  0
 28 58  1  0  0  0  0
M  END
> <PUBCHEM_COMPOUND_CID>
13122

> <PUBCHEM_COMPOUND_CANONICALIZED>
1

> <PUBCHEM_CACTVS_COMPLEXITY>
531

> <PUBCHEM_CACTVS_HBOND_ACCEPTOR>
4

> <PUBCHEM_CACTVS_HBOND_DONOR>
1

> <PUBCHEM_CACTVS_ROTATABLE_BOND>
8

> <PUBCHEM_CACTVS_SUBSKEYS>
AAADceB7MQAAAAAAAAAAAAAAAAAAAAAAAAA8YIAAAAAAAAABQAAAHwAQAAAADgTBmAwyAIPAAACIAqFSEAACAAAkAAAIiIEIAMgIIDKAlRGEIQAglgCIiYcciMCPgAAAAAAAAAAAAAAAAAAAAAAAAAAAAA==

> <PUBCHEM_IUPAC_OPENEYE_NAME>
N-[[1-[4-(4-fluorophenyl)-4-oxo-butyl]-4-phenyl-4-piperidyl]methyl]acetamide

> <PUBCHEM_IUPAC_CAS_NAME>
N-[[1-[4-(4-fluorophenyl)-4-oxobutyl]-4-phenyl-4-piperidinyl]methyl]acetamide

> <PUBCHEM_IUPAC_NAME>
N-[[1-[4-(4-fluorophenyl)-4-oxobutyl]-4-phenylpiperidin-4-yl]methyl]acetamide

> <PUBCHEM_IUPAC_SYSTEMATIC_NAME>
N-[[1-[4-(4-fluorophenyl)-4-oxidanylidene-butyl]-4-phenyl-piperidin-4-yl]methyl]ethanamide

> <PUBCHEM_IUPAC_TRADITIONAL_NAME>
N-[[1-[4-(4-fluorophenyl)-4-keto-butyl]-4-phenyl-4-piperidyl]methyl]acetamide

> <PUBCHEM_IUPAC_INCHI>
InChI=1S/C24H29FN2O2/c1-19(28)26-18-24(21-6-3-2-4-7-21)13-16-27(17-14-24)15-5-8-23(29)20-9-11-22(25)12-10-20/h2-4,6-7,9-12H,5,8,13-18H2,1H3,(H,26,28)

> <PUBCHEM_IUPAC_INCHIKEY>
VDGZERMDPAAZEJ-UHFFFAOYSA-N

> <PUBCHEM_XLOGP3_AA>
3.6

> <PUBCHEM_EXACT_MASS>
396.221306

> <PUBCHEM_MOLECULAR_FORMULA>
C24H29FN2O2

> <PUBCHEM_MOLECULAR_WEIGHT>
396.497663

> <PUBCHEM_OPENEYE_CAN_SMILES>
CC(=O)NCC1(CCN(CC1)CCCC(=O)C2=CC=C(C=C2)F)C3=CC=CC=C3

> <PUBCHEM_OPENEYE_ISO_SMILES>
CC(=O)NCC1(CCN(CC1)CCCC(=O)C2=CC=C(C=C2)F)C3=CC=CC=C3

> <PUBCHEM_CACTVS_TPSA>
49.4

> <PUBCHEM_MONOISOTOPIC_WEIGHT>
396.221306

> <PUBCHEM_TOTAL_CHARGE>
0

> <PUBCHEM_HEAVY_ATOM_COUNT>
29

> <PUBCHEM_ATOM_DEF_STEREO_COUNT>
0

> <PUBCHEM_ATOM_UDEF_STEREO_COUNT>
0

> <PUBCHEM_BOND_DEF_STEREO_COUNT>
0

> <PUBCHEM_BOND_UDEF_STEREO_COUNT>
0

> <PUBCHEM_ISOTOPIC_ATOM_COUNT>
0

> <PUBCHEM_COMPONENT_COUNT>
1

> <PUBCHEM_CACTVS_TAUTO_COUNT>
4

> <PUBCHEM_COORDINATE_TYPE>
1
5
255

> <PUBCHEM_BONDANNOTATIONS>
12  15  8
12  16  8
15  18  8
16  19  8
18  21  8
19  21  8
24  25  8
24  26  8
25  27  8
26  28  8
27  29  8
28  29  8

$$$$

