   Color/Form

     * Monoclinic prismatic needles
     * Yellowish to white crystalline powder
     * Leaflets or needles

   from [1]HSDB

   Boiling Point
        357.1 deg C; 287 deg C at 100 mm Hg
   from [2]HSDB

   Melting Point
        160.5 deg C
   from [3]HSDB

   Density/Specific Gravity
        1.225 g/cu cm at 25 deg C
   from [4]HSDB

   Dissociation Constants
        pKa = 4.55
   from [5]HSDB

   Octanol/Water Partition Coefficient
        log Kow = 1.57
   from [6]HSDB

   Solubilities

     * Slightly soluble in ethy ether, benzene, DMSO; soluble in ethanol
     * Soluble in hot water, alcohol and organic solvents
     * One liter of water dissolves 1.0 g at 1.0 deg C; 2.4 g at 20 deg C;
       8.2 g at 50 deg C; 22 g at 50 deg C ... 1000 g ether dissolves 18.8
       g at 11 deg C and 26.8 g at 15 deg C
     * In water, 2.40X10+3 mg/L at 20 deg C

   from [7]HSDB

   Spectral Properties

     * Index of refraction = 1.4303 at 111 deg C
     * MASS: 8107 (NIST/EPA/MSDC Mass Spectral dtabase, 1990 version);
       2785 (National Bureau of Standards)
     * IR: 5912 (Coblentz Society spectral collection)
     * 1H NMR: 6060 (Sadtler Research Laboratories spectral collection)

   from [8]HSDB

   Vapor Pressure
        1.07X10-8 mm Hg at 25 deg C
   from [9]HSDB

   Other Chemical/Physical Properties

     * BP: 365 deg C (decomposes)
     * Distills above 360 deg C with partial anhydride formation. BP:
       286.5 deg C at 100 mm Hg; 265 deg C at 50 mm Hg; 237 deg C at 15 mm
       Hg; 225 dg C at 10 mm Hg
     * Specific gravity: 1.0291 at 110.6 deg C/4 deg C
     * pK (25 deg C): 4.53; 5.33
     * Liquid, specific gravity: 1.0026 at 20 deg C/4 deg C, mp: -3.9 deg
       C, bp: 140 deg at 8 mm Hg /Dimethyl ester/
     * Henry's Law constant = 2.23X10-11 atm-cu m/mol at 25 deg C (est)
     * Hydroxyl radical reaction rate constant = 9.83X10-12 cu
       cm/molec-sec at 25 deg C (est)

   from [10]HSDB

   Computed Properties
   Molecular Weight                  188.22094 [g/mol]
   Molecular Formula                 C[9]H[16]O[4]
   XLogP3                            1.6
   H-Bond Donor                      2
   H-Bond Acceptor                   4
   Rotatable Bond Count              8
   Exact Mass                        188.104859
   MonoIsotopic Mass                 188.104859
   Topological Polar Surface Area    74.6
   Heavy Atom Count                  13
   Formal Charge                     0
   Complexity                        147
   Isotope Atom Count                0
   Defined Atom Stereocenter Count   0
   Undefined Atom Stereocenter Count 0
   Defined Bond Stereocenter Count   0
   Undefined Bond Stereocenter Count 0
   Covalently-Bonded Unit Count      1
   Feature 3D Acceptor Count         4
   Feature 3D Anion Count            2
   Effective Rotor Count             8
   Conformer Sampling RMSD           0.8
   CID Conformer Count               [11]103

References

   1. http://toxnet.nlm.nih.gov/cgi-bin/sis/search/r?dbs+hsdb:@term+@rn+@rel+123-99-9
   2. http://toxnet.nlm.nih.gov/cgi-bin/sis/search/r?dbs+hsdb:@term+@rn+@rel+123-99-9
   3. http://toxnet.nlm.nih.gov/cgi-bin/sis/search/r?dbs+hsdb:@term+@rn+@rel+123-99-9
   4. http://toxnet.nlm.nih.gov/cgi-bin/sis/search/r?dbs+hsdb:@term+@rn+@rel+123-99-9
   5. http://toxnet.nlm.nih.gov/cgi-bin/sis/search/r?dbs+hsdb:@term+@rn+@rel+123-99-9
   6. http://toxnet.nlm.nih.gov/cgi-bin/sis/search/r?dbs+hsdb:@term+@rn+@rel+123-99-9
   7. http://toxnet.nlm.nih.gov/cgi-bin/sis/search/r?dbs+hsdb:@term+@rn+@rel+123-99-9
   8. http://toxnet.nlm.nih.gov/cgi-bin/sis/search/r?dbs+hsdb:@term+@rn+@rel+123-99-9
   9. http://toxnet.nlm.nih.gov/cgi-bin/sis/search/r?dbs+hsdb:@term+@rn+@rel+123-99-9
  10. http://toxnet.nlm.nih.gov/cgi-bin/sis/search/r?dbs+hsdb:@term+@rn+@rel+123-99-9
  11. http://pubchem.ncbi.nlm.nih.gov/vw3d/vw3d.cgi?cid=2266
