51039
  -OEChem-07051212522D

 38 40  0     1  0  0  0  0  0999 V2000
    2.0000    0.9746    0.0000 Cl  0  0  0  0  0  0  0  0  0  0  0  0
    3.7320   -1.0254    0.0000 S   0  0  0  0  0  0  0  0  0  0  0  0
    6.3120    1.1873    0.0000 O   0  0  0  0  0  0  0  0  0  0  0  0
    7.5393   -0.0159    0.0000 O   0  0  0  0  0  0  0  0  0  0  0  0
    2.8660    2.4746    0.0000 O   0  0  0  0  0  0  0  0  0  0  0  0
    4.5981    2.4746    0.0000 O   0  0  0  0  0  0  0  0  0  0  0  0
    4.5981    0.4746    0.0000 N   0  0  0  0  0  0  0  0  0  0  0  0
    6.3120   -1.2381    0.0000 N   0  0  0  0  0  0  0  0  0  0  0  0
    7.7233   -2.6553    0.0000 N   0  0  0  0  0  0  0  0  0  0  0  0
    4.5981   -0.5254    0.0000 C   0  0  1  0  0  0  0  0  0  0  0  0
    5.6064   -0.5296    0.0000 C   0  0  1  0  0  0  0  0  0  0  0  0
    5.6064    0.4787    0.0000 C   0  0  0  0  0  0  0  0  0  0  0  0
    3.7320    0.9746    0.0000 C   0  0  0  0  0  0  0  0  0  0  0  0
    2.8660   -0.5254    0.0000 C   0  0  0  0  0  0  0  0  0  0  0  0
    2.8660    0.4746    0.0000 C   0  0  0  0  0  0  0  0  0  0  0  0
    7.2785   -0.9813    0.0000 C   0  0  0  0  0  0  0  0  0  0  0  0
    7.9841   -1.6899    0.0000 C   0  0  1  0  0  0  0  0  0  0  0  0
    3.7320    1.9746    0.0000 C   0  0  0  0  0  0  0  0  0  0  0  0
    8.9506   -1.4330    0.0000 C   0  0  0  0  0  0  0  0  0  0  0  0
    9.6562   -2.1416    0.0000 C   0  0  0  0  0  0  0  0  0  0  0  0
    9.2114   -0.4676    0.0000 C   0  0  0  0  0  0  0  0  0  0  0  0
   10.6227   -1.8848    0.0000 C   0  0  0  0  0  0  0  0  0  0  0  0
   10.1778   -0.2108    0.0000 C   0  0  0  0  0  0  0  0  0  0  0  0
   10.8835   -0.9194    0.0000 C   0  0  0  0  0  0  0  0  0  0  0  0
    4.8164   -1.3469    0.0000 H   0  0  0  0  0  0  0  0  0  0  0  0
    5.3673   -1.1016    0.0000 H   0  0  0  0  0  0  0  0  0  0  0  0
    6.1503   -1.8367    0.0000 H   0  0  0  0  0  0  0  0  0  0  0  0
    2.2554   -0.4178    0.0000 H   0  0  0  0  0  0  0  0  0  0  0  0
    2.6540   -1.1080    0.0000 H   0  0  0  0  0  0  0  0  0  0  0  0
    7.3849   -1.8491    0.0000 H   0  0  0  0  0  0  0  0  0  0  0  0
    8.1608   -3.0946    0.0000 H   0  0  0  0  0  0  0  0  0  0  0  0
    7.1241   -2.8145    0.0000 H   0  0  0  0  0  0  0  0  0  0  0  0
    9.4945   -2.7401    0.0000 H   0  0  0  0  0  0  0  0  0  0  0  0
    8.7739   -0.0283    0.0000 H   0  0  0  0  0  0  0  0  0  0  0  0
    2.8660    3.0946    0.0000 H   0  0  0  0  0  0  0  0  0  0  0  0
   11.0602   -2.3241    0.0000 H   0  0  0  0  0  0  0  0  0  0  0  0
   10.3395    0.3877    0.0000 H   0  0  0  0  0  0  0  0  0  0  0  0
   11.4827   -0.7601    0.0000 H   0  0  0  0  0  0  0  0  0  0  0  0
  1 15  1  0  0  0  0
  2 10  1  0  0  0  0
  2 14  1  0  0  0  0
  3 12  2  0  0  0  0
  4 16  2  0  0  0  0
  5 18  1  0  0  0  0
  5 35  1  0  0  0  0
  6 18  2  0  0  0  0
  7 10  1  0  0  0  0
  7 12  1  0  0  0  0
  7 13  1  0  0  0  0
 11  8  1  1  0  0  0
  8 16  1  0  0  0  0
  8 27  1  0  0  0  0
 17  9  1  1  0  0  0
  9 31  1  0  0  0  0
  9 32  1  0  0  0  0
 10 11  1  0  0  0  0
 10 25  1  6  0  0  0
 11 12  1  0  0  0  0
 11 26  1  0  0  0  0
 13 15  2  0  0  0  0
 13 18  1  0  0  0  0
 14 15  1  0  0  0  0
 14 28  1  0  0  0  0
 14 29  1  0  0  0  0
 16 17  1  0  0  0  0
 17 19  1  0  0  0  0
 17 30  1  0  0  0  0
 19 20  2  0  0  0  0
 19 21  1  0  0  0  0
 20 22  1  0  0  0  0
 20 33  1  0  0  0  0
 21 23  2  0  0  0  0
 21 34  1  0  0  0  0
 22 24  2  0  0  0  0
 22 36  1  0  0  0  0
 23 24  1  0  0  0  0
 23 37  1  0  0  0  0
 24 38  1  0  0  0  0
M  END
> <PUBCHEM_COMPOUND_CID>
51039

> <PUBCHEM_COMPOUND_CANONICALIZED>
1

> <PUBCHEM_CACTVS_COMPLEXITY>
606

> <PUBCHEM_CACTVS_HBOND_ACCEPTOR>
6

> <PUBCHEM_CACTVS_HBOND_DONOR>
3

> <PUBCHEM_CACTVS_ROTATABLE_BOND>
4

> <PUBCHEM_CACTVS_SUBSKEYS>
AAADccBzOABEAAAAAAAAAAAAAABYAAAAAAAwQAAAAAAQAAABAAAAHgYQCAAADCrF2ASwCIPAAgiIAiXSWACCAABgABAIiIGIBMgKZDqglTGUMABglgC4mQcYiICOAAAAAAAAAAAAAAAAAAAAAAAAAAAAAA==

> <PUBCHEM_IUPAC_OPENEYE_NAME>
(6R,7R)-7-[[(2R)-2-amino-2-phenyl-acetyl]amino]-3-chloro-8-oxo-5-thia-1-azabicyclo[4.2.0]oct-2-ene-2-carboxylic acid

> <PUBCHEM_IUPAC_CAS_NAME>
(6R,7R)-7-[[(2R)-2-amino-1-oxo-2-phenylethyl]amino]-3-chloro-8-oxo-5-thia-1-azabicyclo[4.2.0]oct-2-ene-2-carboxylic acid

> <PUBCHEM_IUPAC_NAME>
(6R,7R)-7-[[(2R)-2-amino-2-phenylacetyl]amino]-3-chloro-8-oxo-5-thia-1-azabicyclo[4.2.0]oct-2-ene-2-carboxylic acid

> <PUBCHEM_IUPAC_SYSTEMATIC_NAME>
(6R,7R)-7-[[(2R)-2-azanyl-2-phenyl-ethanoyl]amino]-3-chloranyl-8-oxidanylidene-5-thia-1-azabicyclo[4.2.0]oct-2-ene-2-carboxylic acid

> <PUBCHEM_IUPAC_TRADITIONAL_NAME>
(6R,7R)-7-[[(2R)-2-amino-2-phenyl-acetyl]amino]-3-chloro-8-keto-5-thia-1-azabicyclo[4.2.0]oct-2-ene-2-carboxylic acid

> <PUBCHEM_IUPAC_INCHI>
InChI=1S/C15H14ClN3O4S/c16-8-6-24-14-10(13(21)19(14)11(8)15(22)23)18-12(20)9(17)7-4-2-1-3-5-7/h1-5,9-10,14H,6,17H2,(H,18,20)(H,22,23)/t9-,10-,14-/m1/s1

> <PUBCHEM_IUPAC_INCHIKEY>
QYIYFLOTGYLRGG-GPCCPHFNSA-N

> <PUBCHEM_XLOGP3>
-1.8

> <PUBCHEM_EXACT_MASS>
367.039355

> <PUBCHEM_MOLECULAR_FORMULA>
C15H14ClN3O4S

> <PUBCHEM_MOLECULAR_WEIGHT>
367.80736

> <PUBCHEM_OPENEYE_CAN_SMILES>
C1C(=C(N2C(S1)C(C2=O)NC(=O)C(C3=CC=CC=C3)N)C(=O)O)Cl

> <PUBCHEM_OPENEYE_ISO_SMILES>
C1C(=C(N2[C@H](S1)[C@@H](C2=O)NC(=O)[C@@H](C3=CC=CC=C3)N)C(=O)O)Cl

> <PUBCHEM_CACTVS_TPSA>
138

> <PUBCHEM_MONOISOTOPIC_WEIGHT>
367.039355

> <PUBCHEM_TOTAL_CHARGE>
0

> <PUBCHEM_HEAVY_ATOM_COUNT>
24

> <PUBCHEM_ATOM_DEF_STEREO_COUNT>
3

> <PUBCHEM_ATOM_UDEF_STEREO_COUNT>
0

> <PUBCHEM_BOND_DEF_STEREO_COUNT>
0

> <PUBCHEM_BOND_UDEF_STEREO_COUNT>
0

> <PUBCHEM_ISOTOPIC_ATOM_COUNT>
0

> <PUBCHEM_COMPONENT_COUNT>
1

> <PUBCHEM_CACTVS_TAUTO_COUNT>
4

> <PUBCHEM_COORDINATE_TYPE>
1
5
255

> <PUBCHEM_BONDANNOTATIONS>
10  25  6
19  20  8
19  21  8
20  22  8
21  23  8
22  24  8
23  24  8
11  8  5
17  9  5

$$$$

