   Color/Form
        Yellow plates from methanol + water
   from [1]HSDB

   Melting Point
        280-284 deg C
   from [2]HSDB

   Spectral Properties
        Specific optical rotation at 32 deg C for D (sodium) line = +9.2
   deg.
   from [3]HSDB

   Other Chemical/Physical Properties

     * Needles from methanol + ether, mp 151-152 deg C. Specific optical
       rotation at 22 deg C for D (sodium) line = +36 deg (c=2.0) /Methyl
       ester hydrochloride/
     * Yellow needles from acetone + water, mp 194-195 deg C, 200-206 deg
       C. Specific optical rotation at 32 deg C for D (sodium) line = 9.6
       deg (c=1.12). Neutralization equivalent 175 /Hypoglycine B/

   from [4]HSDB

   Computed Properties
   Molecular Weight                  141.16774 [g/mol]
   Molecular Formula                 C[7]H[11]NO[2]
   XLogP3-AA                         -2.5
   H-Bond Donor                      2
   H-Bond Acceptor                   3
   Rotatable Bond Count              3
   Exact Mass                        141.078979
   MonoIsotopic Mass                 141.078979
   Topological Polar Surface Area    63.3
   Heavy Atom Count                  10
   Formal Charge                     0
   Complexity                        176
   Isotope Atom Count                0
   Defined Atom Stereocenter Count   2
   Undefined Atom Stereocenter Count 0
   Defined Bond Stereocenter Count   0
   Undefined Bond Stereocenter Count 0
   Covalently-Bonded Unit Count      1
   Feature 3D Acceptor Count         2
   Feature 3D Donor Count            1
   Feature 3D Anion Count            1
   Feature 3D Cation Count           1
   Effective Rotor Count             3.4
   Conformer Sampling RMSD           0.6
   CID Conformer Count               [5]10

References

   1. http://toxnet.nlm.nih.gov/cgi-bin/sis/search/r?dbs+hsdb:@term+@rn+@rel+156-56-9
   2. http://toxnet.nlm.nih.gov/cgi-bin/sis/search/r?dbs+hsdb:@term+@rn+@rel+156-56-9
   3. http://toxnet.nlm.nih.gov/cgi-bin/sis/search/r?dbs+hsdb:@term+@rn+@rel+156-56-9
   4. http://toxnet.nlm.nih.gov/cgi-bin/sis/search/r?dbs+hsdb:@term+@rn+@rel+156-56-9
   5. http://pubchem.ncbi.nlm.nih.gov/vw3d/vw3d.cgi?cid=441451
