442696
  -OEChem-07051212592D

 83 91  0     1  0  0  0  0  0999 V2000
    8.6381   -3.4274    0.0000 O   0  0  0  0  0  0  0  0  0  0  0  0
    3.2173    0.0850    0.0000 O   0  0  0  0  0  0  0  0  0  0  0  0
    9.3447    1.8086    0.0000 O   0  0  0  0  0  0  0  0  0  0  0  0
    5.0822   -4.0931    0.0000 O   0  0  0  0  0  0  0  0  0  0  0  0
    4.8866    3.1945    0.0000 O   0  0  0  0  0  0  0  0  0  0  0  0
   11.4783   -0.3732    0.0000 O   0  0  0  0  0  0  0  0  0  0  0  0
    2.6094   -3.8650    0.0000 O   0  0  0  0  0  0  0  0  0  0  0  0
    7.5098    4.3981    0.0000 O   0  0  0  0  0  0  0  0  0  0  0  0
   13.0818   -2.0473    0.0000 O   0  0  0  0  0  0  0  0  0  0  0  0
    6.2033   -0.9085    0.0000 C   0  0  1  0  0  0  0  0  0  0  0  0
    6.5860    0.0154    0.0000 C   0  0  2  0  0  0  0  0  0  0  0  0
    5.2125   -0.8279    0.0000 C   0  0  1  0  0  0  0  0  0  0  0  0
    7.5098    0.3981    0.0000 C   0  0  1  0  0  0  0  0  0  0  0  0
    5.8284    0.6590    0.0000 C   0  0  0  0  0  0  0  0  0  0  0  0
    6.5860   -1.8324    0.0000 C   0  0  0  0  0  0  0  0  0  0  0  0
    4.9812    0.1389    0.0000 C   0  0  0  0  0  0  0  0  0  0  0  0
    8.4337   -1.8324    0.0000 C   0  0  1  0  0  0  0  0  0  0  0  0
    7.5098   -2.2150    0.0000 C   0  0  0  0  0  0  0  0  0  0  0  0
    8.4337    0.0154    0.0000 C   0  0  0  0  0  0  0  0  0  0  0  0
    8.8164   -0.9085    0.0000 C   0  0  0  0  0  0  0  0  0  0  0  0
    9.1143   -2.5557    0.0000 C   0  0  2  0  0  0  0  0  0  0  0  0
    4.5617   -1.5872    0.0000 C   0  0  0  0  0  0  0  0  0  0  0  0
    7.5098    1.3981    0.0000 C   0  0  0  0  0  0  0  0  0  0  0  0
    7.6617   -3.2455    0.0000 C   0  0  0  0  0  0  0  0  0  0  0  0
    5.8164    1.6944    0.0000 C   0  0  0  0  0  0  0  0  0  0  0  0
    5.7499   -2.4536    0.0000 C   0  0  0  0  0  0  0  0  0  0  0  0
    4.0633    0.6181    0.0000 C   0  0  0  0  0  0  0  0  0  0  0  0
    9.0550    0.8515    0.0000 C   0  0  0  0  0  0  0  0  0  0  0  0
    9.8469   -1.0603    0.0000 C   0  0  0  0  0  0  0  0  0  0  0  0
    6.8402   -3.8860    0.0000 C   0  0  0  0  0  0  0  0  0  0  0  0
    5.8779   -3.4874    0.0000 C   0  0  0  0  0  0  0  0  0  0  0  0
   10.1062   -2.4286    0.0000 C   0  0  0  0  0  0  0  0  0  0  0  0
    4.9098    2.1947    0.0000 C   0  0  0  0  0  0  0  0  0  0  0  0
    4.0274    1.6529    0.0000 C   0  0  0  0  0  0  0  0  0  0  0  0
    3.5788   -1.4033    0.0000 C   0  0  0  0  0  0  0  0  0  0  0  0
    4.8939   -2.5304    0.0000 C   0  0  0  0  0  0  0  0  0  0  0  0
    8.3759    1.8981    0.0000 C   0  0  0  0  0  0  0  0  0  0  0  0
    6.6438    1.8981    0.0000 C   0  0  0  0  0  0  0  0  0  0  0  0
   10.0888    0.7235    0.0000 C   0  0  0  0  0  0  0  0  0  0  0  0
   10.4874   -0.2389    0.0000 C   0  0  0  0  0  0  0  0  0  0  0  0
    2.9280   -2.1625    0.0000 C   0  0  0  0  0  0  0  0  0  0  0  0
    4.2431   -3.2897    0.0000 C   0  0  0  0  0  0  0  0  0  0  0  0
   10.7122   -3.2241    0.0000 C   0  0  0  0  0  0  0  0  0  0  0  0
   10.4920   -1.5061    0.0000 C   0  0  0  0  0  0  0  0  0  0  0  0
    8.3759    2.8981    0.0000 C   0  0  0  0  0  0  0  0  0  0  0  0
    6.6438    2.8981    0.0000 C   0  0  0  0  0  0  0  0  0  0  0  0
    3.2602   -3.1058    0.0000 C   0  0  0  0  0  0  0  0  0  0  0  0
    7.5098    3.3981    0.0000 C   0  0  0  0  0  0  0  0  0  0  0  0
   11.7041   -3.0970    0.0000 C   0  0  0  0  0  0  0  0  0  0  0  0
   11.4839   -1.3789    0.0000 C   0  0  0  0  0  0  0  0  0  0  0  0
   12.0900   -2.1744    0.0000 C   0  0  0  0  0  0  0  0  0  0  0  0
    5.7028   -1.5955    0.0000 H   0  0  0  0  0  0  0  0  0  0  0  0
    6.7178    0.8551    0.0000 H   0  0  0  0  0  0  0  0  0  0  0  0
    5.4485   -1.4012    0.0000 H   0  0  0  0  0  0  0  0  0  0  0  0
    6.9943    0.7425    0.0000 H   0  0  0  0  0  0  0  0  0  0  0  0
    9.2698   -1.6793    0.0000 H   0  0  0  0  0  0  0  0  0  0  0  0
    9.4639   -3.0678    0.0000 H   0  0  0  0  0  0  0  0  0  0  0  0
    6.3484    2.0127    0.0000 H   0  0  0  0  0  0  0  0  0  0  0  0
    5.1799   -2.2098    0.0000 H   0  0  0  0  0  0  0  0  0  0  0  0
   10.0775   -1.6358    0.0000 H   0  0  0  0  0  0  0  0  0  0  0  0
    6.9235   -4.5004    0.0000 H   0  0  0  0  0  0  0  0  0  0  0  0
    3.4811    1.9462    0.0000 H   0  0  0  0  0  0  0  0  0  0  0  0
    3.3728   -0.8185    0.0000 H   0  0  0  0  0  0  0  0  0  0  0  0
    5.5033   -2.6444    0.0000 H   0  0  0  0  0  0  0  0  0  0  0  0
    8.9128    1.5881    0.0000 H   0  0  0  0  0  0  0  0  0  0  0  0
    6.1069    1.5881    0.0000 H   0  0  0  0  0  0  0  0  0  0  0  0
   10.4643    1.2168    0.0000 H   0  0  0  0  0  0  0  0  0  0  0  0
    2.6688    0.3741    0.0000 H   0  0  0  0  0  0  0  0  0  0  0  0
    2.3186   -2.0485    0.0000 H   0  0  0  0  0  0  0  0  0  0  0  0
    4.4491   -3.8745    0.0000 H   0  0  0  0  0  0  0  0  0  0  0  0
   10.4730   -3.7960    0.0000 H   0  0  0  0  0  0  0  0  0  0  0  0
   10.1163   -1.0129    0.0000 H   0  0  0  0  0  0  0  0  0  0  0  0
    8.9128    3.2081    0.0000 H   0  0  0  0  0  0  0  0  0  0  0  0
    6.1069    3.2081    0.0000 H   0  0  0  0  0  0  0  0  0  0  0  0
    9.9484    1.9498    0.0000 H   0  0  0  0  0  0  0  0  0  0  0  0
    5.1608   -4.7081    0.0000 H   0  0  0  0  0  0  0  0  0  0  0  0
    4.3426    3.4919    0.0000 H   0  0  0  0  0  0  0  0  0  0  0  0
   12.0798   -3.5901    0.0000 H   0  0  0  0  0  0  0  0  0  0  0  0
   11.7232   -0.8070    0.0000 H   0  0  0  0  0  0  0  0  0  0  0  0
   11.8576    0.1172    0.0000 H   0  0  0  0  0  0  0  0  0  0  0  0
    2.0000   -3.7510    0.0000 H   0  0  0  0  0  0  0  0  0  0  0  0
    8.0468    4.7081    0.0000 H   0  0  0  0  0  0  0  0  0  0  0  0
   13.4576   -2.5404    0.0000 H   0  0  0  0  0  0  0  0  0  0  0  0
  1 21  1  0  0  0  0
  1 24  1  0  0  0  0
  2 27  1  0  0  0  0
  2 68  1  0  0  0  0
  3 28  1  0  0  0  0
  3 75  1  0  0  0  0
  4 31  1  0  0  0  0
  4 76  1  0  0  0  0
  5 33  1  0  0  0  0
  5 77  1  0  0  0  0
  6 40  1  0  0  0  0
  6 80  1  0  0  0  0
  7 47  1  0  0  0  0
  7 81  1  0  0  0  0
  8 48  1  0  0  0  0
  8 82  1  0  0  0  0
  9 51  1  0  0  0  0
  9 83  1  0  0  0  0
 10 11  1  0  0  0  0
 10 12  1  0  0  0  0
 10 15  1  0  0  0  0
 10 52  1  1  0  0  0
 11 13  1  0  0  0  0
 11 14  1  0  0  0  0
 11 53  1  6  0  0  0
 12 16  1  0  0  0  0
 12 22  1  6  0  0  0
 12 54  1  0  0  0  0
 13 19  1  0  0  0  0
 13 23  1  6  0  0  0
 13 55  1  0  0  0  0
 14 16  1  0  0  0  0
 14 25  2  0  0  0  0
 15 18  1  0  0  0  0
 15 26  2  0  0  0  0
 16 27  2  0  0  0  0
 17 18  1  0  0  0  0
 17 20  1  0  0  0  0
 17 21  1  0  0  0  0
 17 56  1  6  0  0  0
 18 24  2  0  0  0  0
 19 20  1  0  0  0  0
 19 28  2  0  0  0  0
 20 29  2  0  0  0  0
 21 32  1  6  0  0  0
 21 57  1  0  0  0  0
 22 35  2  0  0  0  0
 22 36  1  0  0  0  0
 23 37  2  0  0  0  0
 23 38  1  0  0  0  0
 24 30  1  0  0  0  0
 25 33  1  0  0  0  0
 25 58  1  0  0  0  0
 26 31  1  0  0  0  0
 26 59  1  0  0  0  0
 27 34  1  0  0  0  0
 28 39  1  0  0  0  0
 29 40  1  0  0  0  0
 29 60  1  0  0  0  0
 30 31  2  0  0  0  0
 30 61  1  0  0  0  0
 32 43  2  0  0  0  0
 32 44  1  0  0  0  0
 33 34  2  0  0  0  0
 34 62  1  0  0  0  0
 35 41  1  0  0  0  0
 35 63  1  0  0  0  0
 36 42  2  0  0  0  0
 36 64  1  0  0  0  0
 37 45  1  0  0  0  0
 37 65  1  0  0  0  0
 38 46  2  0  0  0  0
 38 66  1  0  0  0  0
 39 40  2  0  0  0  0
 39 67  1  0  0  0  0
 41 47  2  0  0  0  0
 41 69  1  0  0  0  0
 42 47  1  0  0  0  0
 42 70  1  0  0  0  0
 43 49  1  0  0  0  0
 43 71  1  0  0  0  0
 44 50  2  0  0  0  0
 44 72  1  0  0  0  0
 45 48  2  0  0  0  0
 45 73  1  0  0  0  0
 46 48  1  0  0  0  0
 46 74  1  0  0  0  0
 49 51  2  0  0  0  0
 49 78  1  0  0  0  0
 50 51  1  0  0  0  0
 50 79  1  0  0  0  0
M  END
> <PUBCHEM_COMPOUND_CID>
442696

> <PUBCHEM_COMPOUND_CANONICALIZED>
1

> <PUBCHEM_CACTVS_COMPLEXITY>
1190

> <PUBCHEM_CACTVS_HBOND_ACCEPTOR>
9

> <PUBCHEM_CACTVS_HBOND_DONOR>
8

> <PUBCHEM_CACTVS_ROTATABLE_BOND>
3

> <PUBCHEM_CACTVS_SUBSKEYS>
AAADcfB8PAAAAAAAAAAAAAAAAAAAAaIAAAAwYMGDAAAYAGgBVAAAGgAACAAADRSgmAIwBoAABgCAAiBCAAACCAAgIAAIiAAGCIgMJyKGMRqCeCClwBUIuAeA4PwOoAABCAAYAABAAAIQADAAAQAACAAAAA==

> <PUBCHEM_IUPAC_INCHI>
InChI=1S/C42H32O9/c43-22-7-1-19(2-8-22)34-36-28(13-25(46)16-31(36)49)39-35(20-3-9-23(44)10-4-20)37-29(14-26(47)17-32(37)50)41-38-30(40(34)39)15-27(48)18-33(38)51-42(41)21-5-11-24(45)12-6-21/h1-18,34-35,39-50H/t34-,35-,39+,40-,41-,42+/m1/s1

> <PUBCHEM_IUPAC_INCHIKEY>
UXHSAOFTHSNXMK-KJEVTLEKSA-N

> <PUBCHEM_XLOGP3_AA>
6.8

> <PUBCHEM_EXACT_MASS>
680.204633

> <PUBCHEM_MOLECULAR_FORMULA>
C42H32O9

> <PUBCHEM_MOLECULAR_WEIGHT>
680.69808

> <PUBCHEM_OPENEYE_CAN_SMILES>
C1=CC(=CC=C1C2C3C(C(C4=C(C=C(C=C4C5C(OC6=C5C3=CC(=C6)O)C7=CC=C(C=C7)O)O)O)C8=CC=C(C=C8)O)C9=CC(=CC(=C29)O)O)O

> <PUBCHEM_OPENEYE_ISO_SMILES>
C1=CC(=CC=C1[C@H]2[C@@H]3[C@H]([C@@H](C4=C(C=C(C=C4[C@H]5[C@@H](OC6=C5C3=CC(=C6)O)C7=CC=C(C=C7)O)O)O)C8=CC=C(C=C8)O)C9=CC(=CC(=C29)O)O)O

> <PUBCHEM_CACTVS_TPSA>
171

> <PUBCHEM_MONOISOTOPIC_WEIGHT>
680.204633

> <PUBCHEM_TOTAL_CHARGE>
0

> <PUBCHEM_HEAVY_ATOM_COUNT>
51

> <PUBCHEM_ATOM_DEF_STEREO_COUNT>
6

> <PUBCHEM_ATOM_UDEF_STEREO_COUNT>
0

> <PUBCHEM_BOND_DEF_STEREO_COUNT>
0

> <PUBCHEM_BOND_UDEF_STEREO_COUNT>
0

> <PUBCHEM_ISOTOPIC_ATOM_COUNT>
0

> <PUBCHEM_COMPONENT_COUNT>
1

> <PUBCHEM_CACTVS_TAUTO_COUNT>
994

> <PUBCHEM_COORDINATE_TYPE>
1
5
255

> <PUBCHEM_BONDANNOTATIONS>
10  52  5
11  53  6
12  22  6
13  23  6
14  16  8
14  25  8
15  18  8
15  26  8
16  27  8
17  56  6
18  24  8
19  20  8
19  28  8
20  29  8
21  32  6
22  35  8
22  36  8
23  37  8
23  38  8
24  30  8
25  33  8
26  31  8
27  34  8
28  39  8
29  40  8
30  31  8
32  43  8
32  44  8
33  34  8
35  41  8
36  42  8
37  45  8
38  46  8
39  40  8
41  47  8
42  47  8
43  49  8
44  50  8
45  48  8
46  48  8
49  51  8
50  51  8

$$$$

