123689
  -OEChem-07051212452D

 34 33  0     0  0  0  0  0  0999 V2000
   11.1972    1.0600    0.0000 O   0  0  0  0  0  0  0  0  0  0  0  0
    6.0010    0.0600    0.0000 N   0  0  0  0  0  0  0  0  0  0  0  0
   10.3312   -0.4400    0.0000 N   0  0  0  0  0  0  0  0  0  0  0  0
    2.5369    0.0600    0.0000 N   0  0  0  0  0  0  0  0  0  0  0  0
    7.7331    0.0600    0.0000 C   0  0  0  0  0  0  0  0  0  0  0  0
    6.8671   -0.4400    0.0000 C   0  0  0  0  0  0  0  0  0  0  0  0
    8.5991   -0.4400    0.0000 C   0  0  0  0  0  0  0  0  0  0  0  0
    5.1350   -0.4400    0.0000 C   0  0  0  0  0  0  0  0  0  0  0  0
    9.4651    0.0600    0.0000 C   0  0  0  0  0  0  0  0  0  0  0  0
    4.2690    0.0600    0.0000 C   0  0  0  0  0  0  0  0  0  0  0  0
    3.4030   -0.4400    0.0000 C   0  0  0  0  0  0  0  0  0  0  0  0
   11.1972    0.0600    0.0000 C   0  0  0  0  0  0  0  0  0  0  0  0
   12.0632   -0.4400    0.0000 C   0  0  0  0  0  0  0  0  0  0  0  0
    8.1316    0.5349    0.0000 H   0  0  0  0  0  0  0  0  0  0  0  0
    7.3346    0.5349    0.0000 H   0  0  0  0  0  0  0  0  0  0  0  0
    6.4685   -0.9149    0.0000 H   0  0  0  0  0  0  0  0  0  0  0  0
    7.2656   -0.9149    0.0000 H   0  0  0  0  0  0  0  0  0  0  0  0
    8.2006   -0.9149    0.0000 H   0  0  0  0  0  0  0  0  0  0  0  0
    8.9976   -0.9149    0.0000 H   0  0  0  0  0  0  0  0  0  0  0  0
    4.7365   -0.9149    0.0000 H   0  0  0  0  0  0  0  0  0  0  0  0
    5.5335   -0.9149    0.0000 H   0  0  0  0  0  0  0  0  0  0  0  0
    6.0010    0.6800    0.0000 H   0  0  0  0  0  0  0  0  0  0  0  0
    9.8637    0.5349    0.0000 H   0  0  0  0  0  0  0  0  0  0  0  0
    9.0666    0.5349    0.0000 H   0  0  0  0  0  0  0  0  0  0  0  0
    4.6675    0.5349    0.0000 H   0  0  0  0  0  0  0  0  0  0  0  0
    3.8705    0.5349    0.0000 H   0  0  0  0  0  0  0  0  0  0  0  0
    3.0044   -0.9149    0.0000 H   0  0  0  0  0  0  0  0  0  0  0  0
    3.8015   -0.9149    0.0000 H   0  0  0  0  0  0  0  0  0  0  0  0
   10.3312   -1.0600    0.0000 H   0  0  0  0  0  0  0  0  0  0  0  0
    2.0000   -0.2500    0.0000 H   0  0  0  0  0  0  0  0  0  0  0  0
    2.5369    0.6800    0.0000 H   0  0  0  0  0  0  0  0  0  0  0  0
   11.7532   -0.9769    0.0000 H   0  0  0  0  0  0  0  0  0  0  0  0
   12.6002   -0.7500    0.0000 H   0  0  0  0  0  0  0  0  0  0  0  0
   12.3732    0.0969    0.0000 H   0  0  0  0  0  0  0  0  0  0  0  0
  1 12  2  0  0  0  0
  2  6  1  0  0  0  0
  2  8  1  0  0  0  0
  2 22  1  0  0  0  0
  3  9  1  0  0  0  0
  3 12  1  0  0  0  0
  3 29  1  0  0  0  0
  4 11  1  0  0  0  0
  4 30  1  0  0  0  0
  4 31  1  0  0  0  0
  5  6  1  0  0  0  0
  5  7  1  0  0  0  0
  5 14  1  0  0  0  0
  5 15  1  0  0  0  0
  6 16  1  0  0  0  0
  6 17  1  0  0  0  0
  7  9  1  0  0  0  0
  7 18  1  0  0  0  0
  7 19  1  0  0  0  0
  8 10  1  0  0  0  0
  8 20  1  0  0  0  0
  8 21  1  0  0  0  0
  9 23  1  0  0  0  0
  9 24  1  0  0  0  0
 10 11  1  0  0  0  0
 10 25  1  0  0  0  0
 10 26  1  0  0  0  0
 11 27  1  0  0  0  0
 11 28  1  0  0  0  0
 12 13  1  0  0  0  0
 13 32  1  0  0  0  0
 13 33  1  0  0  0  0
 13 34  1  0  0  0  0
M  END
> <PUBCHEM_COMPOUND_CID>
123689

> <PUBCHEM_COMPOUND_CANONICALIZED>
1

> <PUBCHEM_CACTVS_COMPLEXITY>
128

> <PUBCHEM_CACTVS_HBOND_ACCEPTOR>
3

> <PUBCHEM_CACTVS_HBOND_DONOR>
3

> <PUBCHEM_CACTVS_ROTATABLE_BOND>
8

> <PUBCHEM_CACTVS_SUBSKEYS>
AAADceBzIAAAAAAAAAAAAAAAAAAAAAAAAAAAAAAAAAAAAAAAAAAAHgAQAAAACADBgAQCAALAAAAIAAEQEAAAAAAAAAAAAIAIAAAAAAAAwAAEAAAAFgCAAAAAAAAAAAAAAAAAAAAAAAAAAAAAAAAAAAAAAA==

> <PUBCHEM_IUPAC_OPENEYE_NAME>
N-[4-(3-aminopropylamino)butyl]acetamide

> <PUBCHEM_IUPAC_CAS_NAME>
N-[4-(3-aminopropylamino)butyl]acetamide

> <PUBCHEM_IUPAC_NAME>
N-[4-(3-aminopropylamino)butyl]acetamide

> <PUBCHEM_IUPAC_SYSTEMATIC_NAME>
N-[4-(3-azanylpropylamino)butyl]ethanamide

> <PUBCHEM_IUPAC_TRADITIONAL_NAME>
N-[4-(3-aminopropylamino)butyl]acetamide

> <PUBCHEM_IUPAC_INCHI>
InChI=1S/C9H21N3O/c1-9(13)12-8-3-2-6-11-7-4-5-10/h11H,2-8,10H2,1H3,(H,12,13)

> <PUBCHEM_IUPAC_INCHIKEY>
FONIWJIDLJEJTL-UHFFFAOYSA-N

> <PUBCHEM_XLOGP3_AA>
-0.8

> <PUBCHEM_EXACT_MASS>
187.168462

> <PUBCHEM_MOLECULAR_FORMULA>
C9H21N3O

> <PUBCHEM_MOLECULAR_WEIGHT>
187.28254

> <PUBCHEM_OPENEYE_CAN_SMILES>
CC(=O)NCCCCNCCCN

> <PUBCHEM_OPENEYE_ISO_SMILES>
CC(=O)NCCCCNCCCN

> <PUBCHEM_CACTVS_TPSA>
67.2

> <PUBCHEM_MONOISOTOPIC_WEIGHT>
187.168462

> <PUBCHEM_TOTAL_CHARGE>
0

> <PUBCHEM_HEAVY_ATOM_COUNT>
13

> <PUBCHEM_ATOM_DEF_STEREO_COUNT>
0

> <PUBCHEM_ATOM_UDEF_STEREO_COUNT>
0

> <PUBCHEM_BOND_DEF_STEREO_COUNT>
0

> <PUBCHEM_BOND_UDEF_STEREO_COUNT>
0

> <PUBCHEM_ISOTOPIC_ATOM_COUNT>
0

> <PUBCHEM_COMPONENT_COUNT>
1

> <PUBCHEM_CACTVS_TAUTO_COUNT>
2

> <PUBCHEM_COORDINATE_TYPE>
1
5
255

$$$$

