656531
  -OEChem-07051212552D

 47 47  0     1  0  0  0  0  0999 V2000
    6.0010   -0.8450    0.0000 S   0  0  0  0  0  0  0  0  0  0  0  0
    4.2690    3.1550    0.0000 S   0  0  0  0  0  0  0  0  0  0  0  0
    7.7331    2.1550    0.0000 S   0  0  0  0  0  0  0  0  0  0  0  0
    4.2690   -0.8450    0.0000 O   0  0  0  0  0  0  0  0  0  0  0  0
    4.2690   -3.8450    0.0000 O   0  0  0  0  0  0  0  0  0  0  0  0
    2.5369   -2.8450    0.0000 O   0  0  0  0  0  0  0  0  0  0  0  0
    6.0010   -2.8450    0.0000 O   0  0  0  0  0  0  0  0  0  0  0  0
    2.5369    0.1550    0.0000 O   0  0  0  0  0  0  0  0  0  0  0  0
    3.2690    3.1550    0.0000 O   0  0  0  0  0  0  0  0  0  0  0  0
    5.2690    3.1550    0.0000 O   0  0  0  0  0  0  0  0  0  0  0  0
    6.8671    1.6550    0.0000 O   0  0  0  0  0  0  0  0  0  0  0  0
    8.5991    2.6550    0.0000 O   0  0  0  0  0  0  0  0  0  0  0  0
    7.2331    3.0210    0.0000 O   0  0  0  0  0  0  0  0  0  0  0  0
    8.2331    1.2890    0.0000 O   0  0  0  0  0  0  0  0  0  0  0  0
    6.8671    0.6550    0.0000 N   0  0  0  0  0  0  0  0  0  0  0  0
    4.2690   -2.8450    0.0000 C   0  0  1  0  0  0  0  0  0  0  0  0
    3.4030   -2.3450    0.0000 C   0  0  1  0  0  0  0  0  0  0  0  0
    5.1350   -2.3450    0.0000 C   0  0  2  0  0  0  0  0  0  0  0  0
    3.4030   -1.3450    0.0000 C   0  0  1  0  0  0  0  0  0  0  0  0
    5.1350   -1.3450    0.0000 C   0  0  2  0  0  0  0  0  0  0  0  0
    2.5369   -0.8450    0.0000 C   0  0  0  0  0  0  0  0  0  0  0  0
    6.0010    0.1550    0.0000 C   0  0  0  0  0  0  0  0  0  0  0  0
    5.1350    0.6550    0.0000 C   0  0  0  0  0  0  0  0  0  0  0  0
    5.1350    1.6550    0.0000 C   0  0  0  0  0  0  0  0  0  0  0  0
    4.2690    2.1550    0.0000 C   0  0  0  0  0  0  0  0  0  0  0  0
    4.2690    4.1550    0.0000 C   0  0  0  0  0  0  0  0  0  0  0  0
    4.8059   -3.1550    0.0000 H   0  0  0  0  0  0  0  0  0  0  0  0
    3.4030   -2.9650    0.0000 H   0  0  0  0  0  0  0  0  0  0  0  0
    5.1350   -2.9650    0.0000 H   0  0  0  0  0  0  0  0  0  0  0  0
    3.4030   -0.7250    0.0000 H   0  0  0  0  0  0  0  0  0  0  0  0
    5.1350   -0.7250    0.0000 H   0  0  0  0  0  0  0  0  0  0  0  0
    1.9264   -0.7373    0.0000 H   0  0  0  0  0  0  0  0  0  0  0  0
    2.3249   -1.4276    0.0000 H   0  0  0  0  0  0  0  0  0  0  0  0
    3.7320   -4.1550    0.0000 H   0  0  0  0  0  0  0  0  0  0  0  0
    2.0000   -2.5350    0.0000 H   0  0  0  0  0  0  0  0  0  0  0  0
    6.5380   -2.5350    0.0000 H   0  0  0  0  0  0  0  0  0  0  0  0
    4.5244    0.7627    0.0000 H   0  0  0  0  0  0  0  0  0  0  0  0
    4.9230    0.0724    0.0000 H   0  0  0  0  0  0  0  0  0  0  0  0
    5.7456    1.5473    0.0000 H   0  0  0  0  0  0  0  0  0  0  0  0
    5.3471    2.2376    0.0000 H   0  0  0  0  0  0  0  0  0  0  0  0
    3.6584    2.2627    0.0000 H   0  0  0  0  0  0  0  0  0  0  0  0
    4.0569    1.5724    0.0000 H   0  0  0  0  0  0  0  0  0  0  0  0
    2.0000    0.4650    0.0000 H   0  0  0  0  0  0  0  0  0  0  0  0
    4.8890    4.1550    0.0000 H   0  0  0  0  0  0  0  0  0  0  0  0
    4.2690    4.7750    0.0000 H   0  0  0  0  0  0  0  0  0  0  0  0
    3.6490    4.1550    0.0000 H   0  0  0  0  0  0  0  0  0  0  0  0
    9.1360    2.3450    0.0000 H   0  0  0  0  0  0  0  0  0  0  0  0
 20  1  1  1  0  0  0
  1 22  1  0  0  0  0
  2  9  2  0  0  0  0
  2 10  2  0  0  0  0
  2 25  1  0  0  0  0
  2 26  1  0  0  0  0
  3 11  1  0  0  0  0
  3 12  1  0  0  0  0
  3 13  2  0  0  0  0
  3 14  2  0  0  0  0
  4 19  1  0  0  0  0
  4 20  1  0  0  0  0
 16  5  1  1  0  0  0
  5 34  1  0  0  0  0
 17  6  1  6  0  0  0
  6 35  1  0  0  0  0
 18  7  1  6  0  0  0
  7 36  1  0  0  0  0
  8 21  1  0  0  0  0
  8 43  1  0  0  0  0
 11 15  1  0  0  0  0
 12 47  1  0  0  0  0
 15 22  2  3  0  0  0
 16 17  1  0  0  0  0
 16 18  1  0  0  0  0
 16 27  1  0  0  0  0
 17 19  1  0  0  0  0
 17 28  1  0  0  0  0
 18 20  1  0  0  0  0
 18 29  1  0  0  0  0
 19 21  1  1  0  0  0
 19 30  1  0  0  0  0
 20 31  1  0  0  0  0
 21 32  1  0  0  0  0
 21 33  1  0  0  0  0
 22 23  1  0  0  0  0
 23 24  1  0  0  0  0
 23 37  1  0  0  0  0
 23 38  1  0  0  0  0
 24 25  1  0  0  0  0
 24 39  1  0  0  0  0
 24 40  1  0  0  0  0
 25 41  1  0  0  0  0
 25 42  1  0  0  0  0
 26 44  1  0  0  0  0
 26 45  1  0  0  0  0
 26 46  1  0  0  0  0
M  END
> <PUBCHEM_COMPOUND_CID>
656531

> <PUBCHEM_COMPOUND_CANONICALIZED>
1

> <PUBCHEM_CACTVS_COMPLEXITY>
681

> <PUBCHEM_CACTVS_HBOND_ACCEPTOR>
13

> <PUBCHEM_CACTVS_HBOND_DONOR>
5

> <PUBCHEM_CACTVS_ROTATABLE_BOND>
9

> <PUBCHEM_CACTVS_SUBSKEYS>
AAADceByPABgAAAAAAAAAAAAAAAAAAAAAAAkAAAAAAAAAAAAAAAAHgQECAAACBSlwAKCAAAQBoogAAAgAHBAAAAAABAAAAAwAAABEAIgAAACQAAFAAAjAAHAYAQAAAAAAAAAAAAAAAAAAAAAAAAAAAAAAA==

> <PUBCHEM_IUPAC_OPENEYE_NAME>
[(2S,3R,4S,5S,6R)-3,4,5-trihydroxy-6-(hydroxymethyl)tetrahydropyran-2-yl] 4-methylsulfonyl-N-sulfooxy-butanimidothioate

> <PUBCHEM_IUPAC_CAS_NAME>
4-methylsulfonyl-N-sulfooxybutanimidothioic acid [(2S,3R,4S,5S,6R)-3,4,5-trihydroxy-6-(hydroxymethyl)-2-oxanyl] ester

> <PUBCHEM_IUPAC_NAME>
[(2S,3R,4S,5S,6R)-3,4,5-trihydroxy-6-(hydroxymethyl)oxan-2-yl] 4-methylsulfonyl-N-sulfooxybutanimidothioate

> <PUBCHEM_IUPAC_SYSTEMATIC_NAME>
[(2S,3R,4S,5S,6R)-6-(hydroxymethyl)-3,4,5-tris(oxidanyl)oxan-2-yl] 4-methylsulfonyl-N-sulfooxy-butanimidothioate

> <PUBCHEM_IUPAC_TRADITIONAL_NAME>
4-mesyl-N-sulfoxy-thiobutyrimidic acid [(2S,3R,4S,5S,6R)-3,4,5-trihydroxy-6-methylol-tetrahydropyran-2-yl] ester

> <PUBCHEM_IUPAC_INCHI>
InChI=1S/C11H21NO11S3/c1-25(17,18)4-2-3-7(12-23-26(19,20)21)24-11-10(16)9(15)8(14)6(5-13)22-11/h6,8-11,13-16H,2-5H2,1H3,(H,19,20,21)/t6-,8-,9+,10-,11+/m1/s1

> <PUBCHEM_IUPAC_INCHIKEY>
OFKKQTQFWWIRBD-ZHVGPZTNSA-N

> <PUBCHEM_XLOGP3_AA>
-2.1

> <PUBCHEM_EXACT_MASS>
439.027673

> <PUBCHEM_MOLECULAR_FORMULA>
C11H21NO11S3

> <PUBCHEM_MOLECULAR_WEIGHT>
439.47954

> <PUBCHEM_OPENEYE_CAN_SMILES>
CS(=O)(=O)CCCC(=NOS(=O)(=O)O)SC1C(C(C(C(O1)CO)O)O)O

> <PUBCHEM_OPENEYE_ISO_SMILES>
CS(=O)(=O)CCCC(=NOS(=O)(=O)O)S[C@H]1[C@@H]([C@H]([C@@H]([C@H](O1)CO)O)O)O

> <PUBCHEM_CACTVS_TPSA>
242

> <PUBCHEM_MONOISOTOPIC_WEIGHT>
439.027673

> <PUBCHEM_TOTAL_CHARGE>
0

> <PUBCHEM_HEAVY_ATOM_COUNT>
26

> <PUBCHEM_ATOM_DEF_STEREO_COUNT>
5

> <PUBCHEM_ATOM_UDEF_STEREO_COUNT>
0

> <PUBCHEM_BOND_DEF_STEREO_COUNT>
0

> <PUBCHEM_BOND_UDEF_STEREO_COUNT>
1

> <PUBCHEM_ISOTOPIC_ATOM_COUNT>
0

> <PUBCHEM_COMPONENT_COUNT>
1

> <PUBCHEM_CACTVS_TAUTO_COUNT>
2

> <PUBCHEM_COORDINATE_TYPE>
1
5
255

> <PUBCHEM_BONDANNOTATIONS>
20  1  5
15  22  1
19  21  5
16  5  5
17  6  6
18  7  6

$$$$

