74536
  -OEChem-07051213052D

 36 39  0     0  0  0  0  0  0999 V2000
    4.9889   -2.7058    0.0000 O   0  0  0  0  0  0  0  0  0  0  0  0
    4.6783   -0.1458    0.0000 C   0  0  0  0  0  0  0  0  0  0  0  0
    3.7320   -0.4505    0.0000 C   0  0  0  0  0  0  0  0  0  0  0  0
    5.2619   -0.9505    0.0000 C   0  0  0  0  0  0  0  0  0  0  0  0
    3.7320   -1.4505    0.0000 C   0  0  0  0  0  0  0  0  0  0  0  0
    4.6783   -1.7552    0.0000 C   0  0  0  0  0  0  0  0  0  0  0  0
    4.9889    0.8047    0.0000 C   0  0  0  0  0  0  0  0  0  0  0  0
    6.2619   -0.9505    0.0000 C   0  0  0  0  0  0  0  0  0  0  0  0
    2.8660    0.0495    0.0000 C   0  0  0  0  0  0  0  0  0  0  0  0
    2.8660   -1.9505    0.0000 C   0  0  0  0  0  0  0  0  0  0  0  0
    2.0000   -0.4505    0.0000 C   0  0  0  0  0  0  0  0  0  0  0  0
    4.3211    1.5490    0.0000 C   0  0  0  0  0  0  0  0  0  0  0  0
    5.9674    1.0110    0.0000 C   0  0  0  0  0  0  0  0  0  0  0  0
    2.0000   -1.4505    0.0000 C   0  0  0  0  0  0  0  0  0  0  0  0
    6.7619   -1.8166    0.0000 C   0  0  0  0  0  0  0  0  0  0  0  0
    6.7619   -0.0845    0.0000 C   0  0  0  0  0  0  0  0  0  0  0  0
    4.6318    2.4996    0.0000 C   0  0  0  0  0  0  0  0  0  0  0  0
    6.2781    1.9615    0.0000 C   0  0  0  0  0  0  0  0  0  0  0  0
    7.7619   -1.8166    0.0000 C   0  0  0  0  0  0  0  0  0  0  0  0
    7.7619   -0.0845    0.0000 C   0  0  0  0  0  0  0  0  0  0  0  0
    5.6103    2.7058    0.0000 C   0  0  0  0  0  0  0  0  0  0  0  0
    8.2619   -0.9505    0.0000 C   0  0  0  0  0  0  0  0  0  0  0  0
    2.8660    0.6695    0.0000 H   0  0  0  0  0  0  0  0  0  0  0  0
    2.8660   -2.5705    0.0000 H   0  0  0  0  0  0  0  0  0  0  0  0
    1.4631   -0.1405    0.0000 H   0  0  0  0  0  0  0  0  0  0  0  0
    3.7144    1.4212    0.0000 H   0  0  0  0  0  0  0  0  0  0  0  0
    6.3815    0.5495    0.0000 H   0  0  0  0  0  0  0  0  0  0  0  0
    1.4631   -1.7605    0.0000 H   0  0  0  0  0  0  0  0  0  0  0  0
    6.4519   -2.3535    0.0000 H   0  0  0  0  0  0  0  0  0  0  0  0
    6.4519    0.4524    0.0000 H   0  0  0  0  0  0  0  0  0  0  0  0
    4.2177    2.9610    0.0000 H   0  0  0  0  0  0  0  0  0  0  0  0
    6.8848    2.0893    0.0000 H   0  0  0  0  0  0  0  0  0  0  0  0
    8.0719   -2.3535    0.0000 H   0  0  0  0  0  0  0  0  0  0  0  0
    8.0719    0.4524    0.0000 H   0  0  0  0  0  0  0  0  0  0  0  0
    5.8029    3.2951    0.0000 H   0  0  0  0  0  0  0  0  0  0  0  0
    8.8819   -0.9505    0.0000 H   0  0  0  0  0  0  0  0  0  0  0  0
  1  6  2  0  0  0  0
  2  3  1  0  0  0  0
  2  4  2  0  0  0  0
  2  7  1  0  0  0  0
  3  5  1  0  0  0  0
  3  9  2  0  0  0  0
  4  6  1  0  0  0  0
  4  8  1  0  0  0  0
  5  6  1  0  0  0  0
  5 10  2  0  0  0  0
  7 12  2  0  0  0  0
  7 13  1  0  0  0  0
  8 15  2  0  0  0  0
  8 16  1  0  0  0  0
  9 11  1  0  0  0  0
  9 23  1  0  0  0  0
 10 14  1  0  0  0  0
 10 24  1  0  0  0  0
 11 14  2  0  0  0  0
 11 25  1  0  0  0  0
 12 17  1  0  0  0  0
 12 26  1  0  0  0  0
 13 18  2  0  0  0  0
 13 27  1  0  0  0  0
 14 28  1  0  0  0  0
 15 19  1  0  0  0  0
 15 29  1  0  0  0  0
 16 20  2  0  0  0  0
 16 30  1  0  0  0  0
 17 21  2  0  0  0  0
 17 31  1  0  0  0  0
 18 21  1  0  0  0  0
 18 32  1  0  0  0  0
 19 22  2  0  0  0  0
 19 33  1  0  0  0  0
 20 22  1  0  0  0  0
 20 34  1  0  0  0  0
 21 35  1  0  0  0  0
 22 36  1  0  0  0  0
M  END
> <PUBCHEM_COMPOUND_CID>
74536

> <PUBCHEM_COMPOUND_CANONICALIZED>
1

> <PUBCHEM_CACTVS_COMPLEXITY>
449

> <PUBCHEM_CACTVS_HBOND_ACCEPTOR>
1

> <PUBCHEM_CACTVS_HBOND_DONOR>
0

> <PUBCHEM_CACTVS_ROTATABLE_BOND>
2

> <PUBCHEM_CACTVS_SUBSKEYS>
AAADccB4IAAAAAAAAAAAAAAAAAAAAQAAAAAwYMAAAAAAAEABUAAAGgAAAAAADASAmAAwAIAAAACIAqBSAAACAAAkAAAIiAEAAMgIIDKAFRCAIQAggAAIiYcIiMCOgAAAAAAQAAAAAAAAACAAAAAAAAAAAA==

> <PUBCHEM_IUPAC_OPENEYE_NAME>
2,3-diphenylinden-1-one

> <PUBCHEM_IUPAC_CAS_NAME>
2,3-diphenyl-1-indenone

> <PUBCHEM_IUPAC_NAME>
2,3-diphenylinden-1-one

> <PUBCHEM_IUPAC_SYSTEMATIC_NAME>
2,3-diphenylinden-1-one

> <PUBCHEM_IUPAC_TRADITIONAL_NAME>
2,3-diphenylinden-1-one

> <PUBCHEM_IUPAC_INCHI>
InChI=1S/C21H14O/c22-21-18-14-8-7-13-17(18)19(15-9-3-1-4-10-15)20(21)16-11-5-2-6-12-16/h1-14H

> <PUBCHEM_IUPAC_INCHIKEY>
POVRXYLNLVVNGW-UHFFFAOYSA-N

> <PUBCHEM_XLOGP3_AA>
4.7

> <PUBCHEM_EXACT_MASS>
282.104465

> <PUBCHEM_MOLECULAR_FORMULA>
C21H14O

> <PUBCHEM_MOLECULAR_WEIGHT>
282.33526

> <PUBCHEM_OPENEYE_CAN_SMILES>
C1=CC=C(C=C1)C2=C(C(=O)C3=CC=CC=C32)C4=CC=CC=C4

> <PUBCHEM_OPENEYE_ISO_SMILES>
C1=CC=C(C=C1)C2=C(C(=O)C3=CC=CC=C32)C4=CC=CC=C4

> <PUBCHEM_CACTVS_TPSA>
17.1

> <PUBCHEM_MONOISOTOPIC_WEIGHT>
282.104465

> <PUBCHEM_TOTAL_CHARGE>
0

> <PUBCHEM_HEAVY_ATOM_COUNT>
22

> <PUBCHEM_ATOM_DEF_STEREO_COUNT>
0

> <PUBCHEM_ATOM_UDEF_STEREO_COUNT>
0

> <PUBCHEM_BOND_DEF_STEREO_COUNT>
0

> <PUBCHEM_BOND_UDEF_STEREO_COUNT>
0

> <PUBCHEM_ISOTOPIC_ATOM_COUNT>
0

> <PUBCHEM_COMPONENT_COUNT>
1

> <PUBCHEM_CACTVS_TAUTO_COUNT>
1

> <PUBCHEM_COORDINATE_TYPE>
1
5
255

> <PUBCHEM_BONDANNOTATIONS>
10  14  8
11  14  8
12  17  8
13  18  8
15  19  8
16  20  8
17  21  8
18  21  8
19  22  8
20  22  8
3  5  8
3  9  8
5  10  8
7  12  8
7  13  8
8  15  8
8  16  8
9  11  8

$$$$

