   Color/Form
        White crystalline powder
   from [1]HSDB

   Boiling Point
        Decomposes
   from [2]HSDB

   Melting Point
        212 deg C (decomposes)
   from [3]HSDB

   Dissociation Constants
        pKa = 8.06
   from [4]HSDB

   Octanol/Water Partition Coefficient
        log Kow = 2.70
   from [5]HSDB

   Solubilities

     * Soluble in methanol or chloroform
     * In water, 465 mg/l @ 25 deg C [McFarland JW et al; J Chem Inf
       Comput Sci 41: 1355-9 (2001)] [6]PubMed Abstract

   from [7]HSDB

   Other Chemical/Physical Properties
        Mol wt 450.99. Fine needles from ethanol-isopropanol, mp 207.5-212
   deg C. Odorless, with a bitter taste. Specific optical rotation at 24
   deg C for D (sodium) line = +98.3 plus or minus 1.4 deg (c = 1.002 in
   methanol). Freely soluble in water, methanol, chloroform, formic acid.
   Slightly soluble in absolute ethanol. Practically insoluble in benzene.
   Insoluble in ether /Hydrochloride/
   from [8]HSDB

   Computed Properties
   Molecular Weight                  414.51784 [g/mol]
   Molecular Formula                 C[22]H[26]N[2]O[4]S
   XLogP3-AA                         3.1
   H-Bond Donor                      0
   H-Bond Acceptor                   6
   Rotatable Bond Count              7
   Tautomer Count                    2
   Exact Mass                        414.161328
   MonoIsotopic Mass                 414.161328
   Topological Polar Surface Area    84.4
   Heavy Atom Count                  29
   Formal Charge                     0
   Complexity                        565
   Isotope Atom Count                0
   Defined Atom Stereocenter Count   2
   Undefined Atom Stereocenter Count 0
   Defined Bond Stereocenter Count   0
   Undefined Bond Stereocenter Count 0
   Covalently-Bonded Unit Count      1
   Feature 3D Acceptor Count         3
   Feature 3D Cation Count           1
   Feature 3D Ring Count             3
   Effective Rotor Count             7.8
   Conformer Sampling RMSD           1
   CID Conformer Count               [9]9

References

   1. http://toxnet.nlm.nih.gov/cgi-bin/sis/search/r?dbs+hsdb:@term+@rn+@rel+42399-41-7
   2. http://toxnet.nlm.nih.gov/cgi-bin/sis/search/r?dbs+hsdb:@term+@rn+@rel+42399-41-7
   3. http://toxnet.nlm.nih.gov/cgi-bin/sis/search/r?dbs+hsdb:@term+@rn+@rel+42399-41-7
   4. http://toxnet.nlm.nih.gov/cgi-bin/sis/search/r?dbs+hsdb:@term+@rn+@rel+42399-41-7
   5. http://toxnet.nlm.nih.gov/cgi-bin/sis/search/r?dbs+hsdb:@term+@rn+@rel+42399-41-7
   6. http://www.ncbi.nlm.nih.gov/entrez/query.fcgi?cmd=Retrieve&db=pubmed&dopt=Abstract&list_uids=11604037
   7. http://toxnet.nlm.nih.gov/cgi-bin/sis/search/r?dbs+hsdb:@term+@rn+@rel+42399-41-7
   8. http://toxnet.nlm.nih.gov/cgi-bin/sis/search/r?dbs+hsdb:@term+@rn+@rel+42399-41-7
   9. http://pubchem.ncbi.nlm.nih.gov/vw3d/vw3d.cgi?cid=39186
