442079
  -OEChem-07051212562D

 47 51  0     1  0  0  0  0  0999 V2000
    6.3549    1.4204    0.0000 O   0  0  0  0  0  0  0  0  0  0  0  0
    2.2596    1.2157    0.0000 O   0  0  0  0  0  0  0  0  0  0  0  0
    4.6224    3.4204    0.0000 O   0  0  0  0  0  0  0  0  0  0  0  0
    2.3473    2.9711    0.0000 O   0  0  0  0  0  0  0  0  0  0  0  0
    4.6717   -2.7763    0.0000 O   0  0  0  0  0  0  0  0  0  0  0  0
    6.4788   -2.7165    0.0000 O   0  0  0  0  0  0  0  0  0  0  0  0
    4.6224    0.4204    0.0000 C   0  0  2  0  0  0  0  0  0  0  0  0
    3.7564    0.9204    0.0000 C   0  0  2  0  0  0  0  0  0  0  0  0
    5.4884    0.9204    0.0000 C   0  0  2  0  0  0  0  0  0  0  0  0
    3.7564    1.9204    0.0000 C   0  0  2  0  0  0  0  0  0  0  0  0
    5.4884    1.9204    0.0000 C   0  0  2  0  0  0  0  0  0  0  0  0
    4.6224    2.4204    0.0000 C   0  0  2  0  0  0  0  0  0  0  0  0
    2.8464    0.4136    0.0000 C   0  0  1  0  0  0  0  0  0  0  0  0
    4.6384   -0.6211    0.0000 C   0  0  0  0  0  0  0  0  0  0  0  0
    5.4884   -0.0796    0.0000 C   0  0  0  0  0  0  0  0  0  0  0  0
    2.7733    2.0664    0.0000 C   0  0  0  0  0  0  0  0  0  0  0  0
    3.7564    2.9204    0.0000 C   0  0  0  0  0  0  0  0  0  0  0  0
    3.7404   -1.1488    0.0000 C   0  0  0  0  0  0  0  0  0  0  0  0
    2.8383   -0.6280    0.0000 C   0  0  0  0  0  0  0  0  0  0  0  0
    3.7320   -2.2338    0.0000 C   0  0  1  0  0  0  0  0  0  0  0  0
    5.5904   -1.1417    0.0000 C   0  0  0  0  0  0  0  0  0  0  0  0
    2.8641   -2.7304    0.0000 C   0  0  0  0  0  0  0  0  0  0  0  0
    5.6071   -2.2266    0.0000 C   0  0  0  0  0  0  0  0  0  0  0  0
    2.8602   -3.7304    0.0000 C   0  0  0  0  0  0  0  0  0  0  0  0
    2.0000   -2.2271    0.0000 C   0  0  0  0  0  0  0  0  0  0  0  0
    3.7564    0.0704    0.0000 H   0  0  0  0  0  0  0  0  0  0  0  0
    5.7983    0.3835    0.0000 H   0  0  0  0  0  0  0  0  0  0  0  0
    5.7983    2.4574    0.0000 H   0  0  0  0  0  0  0  0  0  0  0  0
    5.1593    2.7304    0.0000 H   0  0  0  0  0  0  0  0  0  0  0  0
    2.0374    0.1527    0.0000 H   0  0  0  0  0  0  0  0  0  0  0  0
    5.1784   -0.6165    0.0000 H   0  0  0  0  0  0  0  0  0  0  0  0
    6.0253   -0.3896    0.0000 H   0  0  0  0  0  0  0  0  0  0  0  0
    5.7984    0.4574    0.0000 H   0  0  0  0  0  0  0  0  0  0  0  0
    4.3764    2.9204    0.0000 H   0  0  0  0  0  0  0  0  0  0  0  0
    3.7564    3.5404    0.0000 H   0  0  0  0  0  0  0  0  0  0  0  0
    3.1364    2.9204    0.0000 H   0  0  0  0  0  0  0  0  0  0  0  0
    2.3002   -0.9359    0.0000 H   0  0  0  0  0  0  0  0  0  0  0  0
    5.1593    3.7304    0.0000 H   0  0  0  0  0  0  0  0  0  0  0  0
    3.7308   -2.8538    0.0000 H   0  0  0  0  0  0  0  0  0  0  0  0
    6.1212   -0.8214    0.0000 H   0  0  0  0  0  0  0  0  0  0  0  0
    2.3260   -3.0384    0.0000 H   0  0  0  0  0  0  0  0  0  0  0  0
    2.2402   -3.7280    0.0000 H   0  0  0  0  0  0  0  0  0  0  0  0
    2.8578   -4.3504    0.0000 H   0  0  0  0  0  0  0  0  0  0  0  0
    3.4802   -3.7328    0.0000 H   0  0  0  0  0  0  0  0  0  0  0  0
    2.3121   -1.6914    0.0000 H   0  0  0  0  0  0  0  0  0  0  0  0
    1.4643   -1.9150    0.0000 H   0  0  0  0  0  0  0  0  0  0  0  0
    1.6879   -2.7628    0.0000 H   0  0  0  0  0  0  0  0  0  0  0  0
  9  1  1  6  0  0  0
 11  1  1  6  0  0  0
  2 13  1  0  0  0  0
  2 16  1  0  0  0  0
 12  3  1  1  0  0  0
  3 38  1  0  0  0  0
  4 16  2  0  0  0  0
  5 20  1  0  0  0  0
  5 23  1  0  0  0  0
  6 23  2  0  0  0  0
  7  8  1  0  0  0  0
  7  9  1  0  0  0  0
  7 14  1  0  0  0  0
  7 15  1  1  0  0  0
  8 10  1  0  0  0  0
  8 13  1  0  0  0  0
  8 26  1  6  0  0  0
  9 11  1  0  0  0  0
  9 27  1  0  0  0  0
 10 12  1  0  0  0  0
 10 16  1  0  0  0  0
 10 17  1  6  0  0  0
 11 12  1  0  0  0  0
 11 28  1  0  0  0  0
 12 29  1  0  0  0  0
 13 19  1  0  0  0  0
 13 30  1  6  0  0  0
 14 18  1  0  0  0  0
 14 21  2  0  0  0  0
 15 31  1  0  0  0  0
 15 32  1  0  0  0  0
 15 33  1  0  0  0  0
 17 34  1  0  0  0  0
 17 35  1  0  0  0  0
 17 36  1  0  0  0  0
 18 19  2  0  0  0  0
 18 20  1  0  0  0  0
 19 37  1  0  0  0  0
 20 22  1  6  0  0  0
 20 39  1  0  0  0  0
 21 23  1  0  0  0  0
 21 40  1  0  0  0  0
 22 24  1  0  0  0  0
 22 25  1  0  0  0  0
 22 41  1  0  0  0  0
 24 42  1  0  0  0  0
 24 43  1  0  0  0  0
 24 44  1  0  0  0  0
 25 45  1  0  0  0  0
 25 46  1  0  0  0  0
 25 47  1  0  0  0  0
M  END
> <PUBCHEM_COMPOUND_CID>
442079

> <PUBCHEM_COMPOUND_CANONICALIZED>
1

> <PUBCHEM_CACTVS_COMPLEXITY>
766

> <PUBCHEM_CACTVS_HBOND_ACCEPTOR>
6

> <PUBCHEM_CACTVS_HBOND_DONOR>
1

> <PUBCHEM_CACTVS_ROTATABLE_BOND>
1

> <PUBCHEM_CACTVS_SUBSKEYS>
AAADceB4OAAAAAAAAAAAAAAAEgAAASAAAAAwQIAABIAAAEiAAAAAGgAACAAADxSggAICCAAABgCIAiDSCAAAAAAgAAAACAEAAEgJFBYAIQACUAAF4AALoQPK7PzPgAAAAAAAAABAAAYQADCAAAAAAAAAAA==

> <PUBCHEM_IUPAC_INCHI>
InChI=1S/C19H22O6/c1-7(2)12-8-5-10-14-18(3,9(8)6-11(20)24-12)16-13(25-16)15(21)19(14,4)17(22)23-10/h5-7,10,12-16,21H,1-4H3/t10-,12-,13+,14-,15+,16+,18-,19-/m1/s1

> <PUBCHEM_IUPAC_INCHIKEY>
KDORDIOOUCRJPK-PAFIYYKWSA-N

> <PUBCHEM_XLOGP3_AA>
0.8

> <PUBCHEM_EXACT_MASS>
346.141638

> <PUBCHEM_MOLECULAR_FORMULA>
C19H22O6

> <PUBCHEM_MOLECULAR_WEIGHT>
346.37438

> <PUBCHEM_OPENEYE_CAN_SMILES>
CC(C)C1C2=CC3C4C(C(C5C(C4(C2=CC(=O)O1)C)O5)O)(C(=O)O3)C

> <PUBCHEM_OPENEYE_ISO_SMILES>
CC(C)[C@@H]1C2=C[C@@H]3[C@H]4[C@]([C@H]([C@H]5[C@@H]([C@@]4(C2=CC(=O)O1)C)O5)O)(C(=O)O3)C

> <PUBCHEM_CACTVS_TPSA>
85.4

> <PUBCHEM_MONOISOTOPIC_WEIGHT>
346.141638

> <PUBCHEM_TOTAL_CHARGE>
0

> <PUBCHEM_HEAVY_ATOM_COUNT>
25

> <PUBCHEM_ATOM_DEF_STEREO_COUNT>
8

> <PUBCHEM_ATOM_UDEF_STEREO_COUNT>
0

> <PUBCHEM_BOND_DEF_STEREO_COUNT>
0

> <PUBCHEM_BOND_UDEF_STEREO_COUNT>
0

> <PUBCHEM_ISOTOPIC_ATOM_COUNT>
0

> <PUBCHEM_COMPONENT_COUNT>
1

> <PUBCHEM_CACTVS_TAUTO_COUNT>
1

> <PUBCHEM_COORDINATE_TYPE>
1
5
255

> <PUBCHEM_BONDANNOTATIONS>
11  1  6
9  1  6
10  17  6
13  30  6
20  22  6
12  3  5
7  15  5
8  26  6

$$$$

