108053
  -OEChem-07051212592D

 45 46  0     1  0  0  0  0  0999 V2000
    5.1808    0.0146    0.0000 O   0  0  0  0  0  0  0  0  0  0  0  0
    3.6857   -0.1662    0.0000 O   0  0  0  0  0  0  0  0  0  0  0  0
    2.6064   -2.3033    0.0000 O   0  0  0  0  0  0  0  0  0  0  0  0
    5.5409   -1.6796    0.0000 O   0  0  0  0  0  0  0  0  0  0  0  0
    7.4190    2.4826    0.0000 N   0  0  3  0  0  0  0  0  0  0  0  0
    7.4190    1.4826    0.0000 C   0  0  1  0  0  0  0  0  0  0  0  0
    8.3652    1.1779    0.0000 C   0  0  0  0  0  0  0  0  0  0  0  0
    8.3652    2.7873    0.0000 C   0  0  0  0  0  0  0  0  0  0  0  0
    8.9488    1.9826    0.0000 C   0  0  0  0  0  0  0  0  0  0  0  0
    6.4680    1.1736    0.0000 C   0  0  0  0  0  0  0  0  0  0  0  0
    6.4680    2.7916    0.0000 C   0  0  0  0  0  0  0  0  0  0  0  0
    5.8802    1.9826    0.0000 C   0  0  0  0  0  0  0  0  0  0  0  0
    6.1589    0.2225    0.0000 C   0  0  0  0  0  0  0  0  0  0  0  0
    3.8936   -1.1444    0.0000 C   0  0  1  0  0  0  0  0  0  0  0  0
    4.1015   -2.1225    0.0000 C   0  0  0  0  0  0  0  0  0  0  0  0
    2.9155   -1.3523    0.0000 C   0  0  1  0  0  0  0  0  0  0  0  0
    4.8718   -0.9364    0.0000 C   0  0  0  0  0  0  0  0  0  0  0  0
    3.3584   -2.7916    0.0000 C   0  0  0  0  0  0  0  0  0  0  0  0
    5.0526   -2.4315    0.0000 C   0  0  0  0  0  0  0  0  0  0  0  0
    2.2463   -0.6091    0.0000 C   0  0  0  0  0  0  0  0  0  0  0  0
    7.4201    0.6326    0.0000 H   0  0  0  0  0  0  0  0  0  0  0  0
    8.1142    0.6110    0.0000 H   0  0  0  0  0  0  0  0  0  0  0  0
    8.9026    0.8686    0.0000 H   0  0  0  0  0  0  0  0  0  0  0  0
    8.9026    3.0966    0.0000 H   0  0  0  0  0  0  0  0  0  0  0  0
    8.1142    3.3542    0.0000 H   0  0  0  0  0  0  0  0  0  0  0  0
    9.4097    1.5679    0.0000 H   0  0  0  0  0  0  0  0  0  0  0  0
    9.4097    2.3973    0.0000 H   0  0  0  0  0  0  0  0  0  0  0  0
    6.7201    3.3580    0.0000 H   0  0  0  0  0  0  0  0  0  0  0  0
    5.9310    3.1016    0.0000 H   0  0  0  0  0  0  0  0  0  0  0  0
    5.2602    1.9826    0.0000 H   0  0  0  0  0  0  0  0  0  0  0  0
    6.1806   -0.3971    0.0000 H   0  0  0  0  0  0  0  0  0  0  0  0
    6.7729    0.1362    0.0000 H   0  0  0  0  0  0  0  0  0  0  0  0
    3.5119   -1.9309    0.0000 H   0  0  0  0  0  0  0  0  0  0  0  0
    2.3090   -1.4812    0.0000 H   0  0  0  0  0  0  0  0  0  0  0  0
    2.9435   -2.3309    0.0000 H   0  0  0  0  0  0  0  0  0  0  0  0
    2.8976   -3.2065    0.0000 H   0  0  0  0  0  0  0  0  0  0  0  0
    3.7732   -3.2524    0.0000 H   0  0  0  0  0  0  0  0  0  0  0  0
    4.8610   -3.0212    0.0000 H   0  0  0  0  0  0  0  0  0  0  0  0
    5.6422   -2.6231    0.0000 H   0  0  0  0  0  0  0  0  0  0  0  0
    5.2442   -1.8419    0.0000 H   0  0  0  0  0  0  0  0  0  0  0  0
    2.7071   -0.1943    0.0000 H   0  0  0  0  0  0  0  0  0  0  0  0
    1.8315   -0.1484    0.0000 H   0  0  0  0  0  0  0  0  0  0  0  0
    1.7856   -1.0240    0.0000 H   0  0  0  0  0  0  0  0  0  0  0  0
    3.0960    0.0254    0.0000 H   0  0  0  0  0  0  0  0  0  0  0  0
    2.0000   -2.4322    0.0000 H   0  0  0  0  0  0  0  0  0  0  0  0
  1 13  1  0  0  0  0
  1 17  1  0  0  0  0
 14  2  1  1  0  0  0
  2 44  1  0  0  0  0
 16  3  1  6  0  0  0
  3 45  1  0  0  0  0
  4 17  2  0  0  0  0
  5  6  1  0  0  0  0
  5  8  1  0  0  0  0
  5 11  1  0  0  0  0
  6  7  1  0  0  0  0
  6 10  1  0  0  0  0
  6 21  1  6  0  0  0
  7  9  1  0  0  0  0
  7 22  1  0  0  0  0
  7 23  1  0  0  0  0
  8  9  1  0  0  0  0
  8 24  1  0  0  0  0
  8 25  1  0  0  0  0
  9 26  1  0  0  0  0
  9 27  1  0  0  0  0
 10 12  2  0  0  0  0
 10 13  1  0  0  0  0
 11 12  1  0  0  0  0
 11 28  1  0  0  0  0
 11 29  1  0  0  0  0
 12 30  1  0  0  0  0
 13 31  1  0  0  0  0
 13 32  1  0  0  0  0
 14 15  1  0  0  0  0
 14 16  1  0  0  0  0
 14 17  1  0  0  0  0
 15 18  1  0  0  0  0
 15 19  1  0  0  0  0
 15 33  1  0  0  0  0
 16 20  1  0  0  0  0
 16 34  1  0  0  0  0
 18 35  1  0  0  0  0
 18 36  1  0  0  0  0
 18 37  1  0  0  0  0
 19 38  1  0  0  0  0
 19 39  1  0  0  0  0
 19 40  1  0  0  0  0
 20 41  1  0  0  0  0
 20 42  1  0  0  0  0
 20 43  1  0  0  0  0
M  END
> <PUBCHEM_COMPOUND_CID>
108053

> <PUBCHEM_COMPOUND_CANONICALIZED>
1

> <PUBCHEM_CACTVS_COMPLEXITY>
407

> <PUBCHEM_CACTVS_HBOND_ACCEPTOR>
5

> <PUBCHEM_CACTVS_HBOND_DONOR>
2

> <PUBCHEM_CACTVS_ROTATABLE_BOND>
6

> <PUBCHEM_CACTVS_SUBSKEYS>
AAADceByOAAAAAAAAAAAAAAAAAAAAWIAAAAAAAAAAAAQAAAAAAAAHgAACAAADXzhgAYCCAMABgCIAiDSCAKAAAAgAAAACAFIAAgBFBYAoQAGUAAHoACLIAOQQAAOgAAAAAAAAAAAAAAAAAAAAAAAAAAAAA==

> <PUBCHEM_IUPAC_OPENEYE_NAME>
[(8S)-5,6,7,8-tetrahydro-3H-pyrrolizin-1-yl]methyl (2S)-2-hydroxy-2-[(1R)-1-hydroxyethyl]-3-methyl-butanoate

> <PUBCHEM_IUPAC_CAS_NAME>
(2S)-2-hydroxy-2-[(1R)-1-hydroxyethyl]-3-methylbutanoic acid [(8S)-5,6,7,8-tetrahydro-3H-pyrrolizin-1-yl]methyl ester

> <PUBCHEM_IUPAC_NAME>
[(8S)-5,6,7,8-tetrahydro-3H-pyrrolizin-1-yl]methyl (2S)-2-hydroxy-2-[(1R)-1-hydroxyethyl]-3-methylbutanoate

> <PUBCHEM_IUPAC_SYSTEMATIC_NAME>
[(8S)-5,6,7,8-tetrahydro-3H-pyrrolizin-1-yl]methyl (2S)-3-methyl-2-oxidanyl-2-[(1R)-1-oxidanylethyl]butanoate

> <PUBCHEM_IUPAC_TRADITIONAL_NAME>
(2S)-2-hydroxy-2-[(1R)-1-hydroxyethyl]-3-methyl-butyric acid [(8S)-5,6,7,8-tetrahydro-3H-pyrrolizin-1-yl]methyl ester

> <PUBCHEM_IUPAC_INCHI>
InChI=1S/C15H25NO4/c1-10(2)15(19,11(3)17)14(18)20-9-12-6-8-16-7-4-5-13(12)16/h6,10-11,13,17,19H,4-5,7-9H2,1-3H3/t11-,13+,15+/m1/s1

> <PUBCHEM_IUPAC_INCHIKEY>
DRVWTOSBCBKXOR-ZLDLUXBVSA-N

> <PUBCHEM_XLOGP3_AA>
0.5

> <PUBCHEM_EXACT_MASS>
283.178358

> <PUBCHEM_MOLECULAR_FORMULA>
C15H25NO4

> <PUBCHEM_MOLECULAR_WEIGHT>
283.3633

> <PUBCHEM_OPENEYE_CAN_SMILES>
CC(C)C(C(C)O)(C(=O)OCC1=CCN2C1CCC2)O

> <PUBCHEM_OPENEYE_ISO_SMILES>
C[C@H]([C@@](C(C)C)(C(=O)OCC1=CCN2[C@H]1CCC2)O)O

> <PUBCHEM_CACTVS_TPSA>
70

> <PUBCHEM_MONOISOTOPIC_WEIGHT>
283.178358

> <PUBCHEM_TOTAL_CHARGE>
0

> <PUBCHEM_HEAVY_ATOM_COUNT>
20

> <PUBCHEM_ATOM_DEF_STEREO_COUNT>
3

> <PUBCHEM_ATOM_UDEF_STEREO_COUNT>
0

> <PUBCHEM_BOND_DEF_STEREO_COUNT>
0

> <PUBCHEM_BOND_UDEF_STEREO_COUNT>
0

> <PUBCHEM_ISOTOPIC_ATOM_COUNT>
0

> <PUBCHEM_COMPONENT_COUNT>
1

> <PUBCHEM_CACTVS_TAUTO_COUNT>
1

> <PUBCHEM_COORDINATE_TYPE>
1
5
255

> <PUBCHEM_BONDANNOTATIONS>
14  2  5
16  3  6
6  21  6

$$$$

