   Chemical and Physical Properties References

   [1]USDA ARS - USDA chemical properties
   from [2]ChemIDplus

   Color/Form

     * Pure compound is a solid; technical compound is a moderately
       volatile
     * Usually obtained as a liquid; has been crystallized
     * White solid
     * Colorless to white solid or straw colored liquid (above 80 degrees
       F).

   from [3]HSDB

   Odor
        Slightly pungent odor
   from [4]HSDB

   Boiling Point
        110 deg C at 0.5 mm Hg
   from [5]HSDB

   Melting Point
        26.5-27.5 deg C
   from [6]HSDB

   Corrosivity

     * Corrosive to metals
     * Liquid /naled/ will attack some forms of plastics, rubber, and
       coatings.

   from [7]HSDB

   Density/Specific Gravity
        1.96 at 25 deg C/4 deg C
   from [8]HSDB

   Octanol/Water Partition Coefficient
        log Kow = 1.38
   from [9]HSDB

   Solubilities

     * Slightly soluble in aliphatic solvents; very soluble in aromatic
       solvents
     * Readily soluble in chlorinated solvents; slightly soluble in
       mineral oils
     * Soluble in methylene chloride; relatively soluble in acetonitrile,
       ethyl acetate, acetone, and methanol.
     * Freely soluble in chlorinated hydrocarbons, ketones, alcohols;
       sparingly soluble in petroleum solvents.
     * In water, 1.5 mg/L, temp not specified

   from [10]HSDB

   Spectral Properties
        INDEX OF REFRACTION: 1.5108 AT 28 DEG C/D
   from [11]HSDB

   Vapor Pressure
        2.0X10-4 mm Hg at 20 deg C
   from [12]HSDB

   Other Chemical/Physical Properties

     * Benzene/water partition coefficient: log 2.82
     * Naled is completely hydrolyzed (90% to 100% within 48 hours at room
       temperature) in the presence of water.
     * Sunlight degrades naled
     * Henry's Law constant = 6.5X10-4 atm-cu m/mol at 25 deg C (est)
     * Hydroxyl radical reaction rate constant = 6.5X10-12 cu cm/molec-sec
       at 25 deg C (est)

   from [13]HSDB

   Computed Properties
   Molecular Weight                  380.783742 [g/mol]
   Molecular Formula                 C[4]H[7]Br[2]Cl[2]O[4]P
   XLogP3-AA                         2.5
   H-Bond Donor                      0
   H-Bond Acceptor                   4
   Rotatable Bond Count              5
   Exact Mass                        379.780528
   MonoIsotopic Mass                 377.782575
   Topological Polar Surface Area    44.8
   Heavy Atom Count                  13
   Formal Charge                     0
   Complexity                        206
   Isotope Atom Count                0
   Defined Atom Stereocenter Count   0
   Undefined Atom Stereocenter Count 1
   Defined Bond Stereocenter Count   0
   Undefined Bond Stereocenter Count 0
   Covalently-Bonded Unit Count      1
   Feature 3D Acceptor Count         1
   Feature 3D Hydrophobe Count       2
   Effective Rotor Count             5
   Conformer Sampling RMSD           0.6
   CID Conformer Count               [14]27

References

   1. http://www.ars.usda.gov/SP2UserFiles/ad_hoc/12755100DatabaseFiles/PesticidePropertiesDatabase/IndividualPesticideFiles/NALED.TXT
   2. http://chem.sis.nlm.nih.gov/chemidplus/
   3. http://toxnet.nlm.nih.gov/cgi-bin/sis/search/r?dbs+hsdb:@term+@rn+@rel+300-76-5
   4. http://toxnet.nlm.nih.gov/cgi-bin/sis/search/r?dbs+hsdb:@term+@rn+@rel+300-76-5
   5. http://toxnet.nlm.nih.gov/cgi-bin/sis/search/r?dbs+hsdb:@term+@rn+@rel+300-76-5
   6. http://toxnet.nlm.nih.gov/cgi-bin/sis/search/r?dbs+hsdb:@term+@rn+@rel+300-76-5
   7. http://toxnet.nlm.nih.gov/cgi-bin/sis/search/r?dbs+hsdb:@term+@rn+@rel+300-76-5
   8. http://toxnet.nlm.nih.gov/cgi-bin/sis/search/r?dbs+hsdb:@term+@rn+@rel+300-76-5
   9. http://toxnet.nlm.nih.gov/cgi-bin/sis/search/r?dbs+hsdb:@term+@rn+@rel+300-76-5
  10. http://toxnet.nlm.nih.gov/cgi-bin/sis/search/r?dbs+hsdb:@term+@rn+@rel+300-76-5
  11. http://toxnet.nlm.nih.gov/cgi-bin/sis/search/r?dbs+hsdb:@term+@rn+@rel+300-76-5
  12. http://toxnet.nlm.nih.gov/cgi-bin/sis/search/r?dbs+hsdb:@term+@rn+@rel+300-76-5
  13. http://toxnet.nlm.nih.gov/cgi-bin/sis/search/r?dbs+hsdb:@term+@rn+@rel+300-76-5
  14. http://pubchem.ncbi.nlm.nih.gov/vw3d/vw3d.cgi?cid=4420
