   Color/Form
        Colorless liquid
   from [1]HSDB

   Odor
        Pungent, ether-like odor
   from [2]HSDB

   Boiling Point
        59.4 deg C
   from [3]HSDB

   Melting Point
        -130 deg C
   from [4]HSDB

   Density/Specific Gravity
        0.956 @ 20 deg C/4 deg C
   from [5]HSDB

   Solubilities

     * Miscible in ethyl ether, acetone, and benzene; slightly soluble in
       water.
     * Soluble in alcohol, diethyl ether

   from [6]HSDB

   Spectral Properties

     * MAX ABSORPTION (HEXANE): 223 NM (LOG E= 4.15)
     * MASS: 153 (Atlas of Mass Spectral Data, John Wiley & Sons, New
       York)
     * Index of refraction: 1.4583 @ 20 deg C/D

   from [7]HSDB

   Vapor Density
        3.0 (AIR= 1)
   from [8]HSDB

   Vapor Pressure
        215 mm Hg @ 25 deg C
   from [9]HSDB

   Other Chemical/Physical Properties

     * Polymerizes at room temperature unless inhibited with antioxidants.
     * Per cent in saturated air: 28 @ 25 deg C; conversion factors: 1
       mg/l approximates 276.5 ppm and 1 ppm approximates 3.62 mg/cu m @
       25 deg C, 760 torr.
     * Density of saturated air: 1.57 (air= 1)
     * RAPIDLY OXIDIZES TO FORM PEROXIDES AND ACIDIC MATERIALS.
     * VAPOR PRESSURE: 300 MM HG @ 32.8 DEG C
     * Brittle point: -35 deg F; softens: @ approx 80 deg F

   from [10]HSDB

   Computed Properties
   Molecular Weight                  88.5355 [g/mol]
   Molecular Formula                 C[4]H[5]Cl
   XLogP3-AA                         2.3
   H-Bond Donor                      0
   H-Bond Acceptor                   0
   Rotatable Bond Count              1
   Exact Mass                        88.007978
   MonoIsotopic Mass                 88.007978
   Topological Polar Surface Area    0
   Heavy Atom Count                  5
   Formal Charge                     0
   Complexity                        54.7
   Isotope Atom Count                0
   Defined Atom Stereocenter Count   0
   Undefined Atom Stereocenter Count 0
   Defined Bond Stereocenter Count   0
   Undefined Bond Stereocenter Count 0
   Covalently-Bonded Unit Count      1
   Feature 3D Hydrophobe Count       1
   Effective Rotor Count             1
   Conformer Sampling RMSD           0.4
   CID Conformer Count               [11]2

References

   1. http://toxnet.nlm.nih.gov/cgi-bin/sis/search/r?dbs+hsdb:@term+@rn+@rel+126-99-8
   2. http://toxnet.nlm.nih.gov/cgi-bin/sis/search/r?dbs+hsdb:@term+@rn+@rel+126-99-8
   3. http://toxnet.nlm.nih.gov/cgi-bin/sis/search/r?dbs+hsdb:@term+@rn+@rel+126-99-8
   4. http://toxnet.nlm.nih.gov/cgi-bin/sis/search/r?dbs+hsdb:@term+@rn+@rel+126-99-8
   5. http://toxnet.nlm.nih.gov/cgi-bin/sis/search/r?dbs+hsdb:@term+@rn+@rel+126-99-8
   6. http://toxnet.nlm.nih.gov/cgi-bin/sis/search/r?dbs+hsdb:@term+@rn+@rel+126-99-8
   7. http://toxnet.nlm.nih.gov/cgi-bin/sis/search/r?dbs+hsdb:@term+@rn+@rel+126-99-8
   8. http://toxnet.nlm.nih.gov/cgi-bin/sis/search/r?dbs+hsdb:@term+@rn+@rel+126-99-8
   9. http://toxnet.nlm.nih.gov/cgi-bin/sis/search/r?dbs+hsdb:@term+@rn+@rel+126-99-8
  10. http://toxnet.nlm.nih.gov/cgi-bin/sis/search/r?dbs+hsdb:@term+@rn+@rel+126-99-8
  11. http://pubchem.ncbi.nlm.nih.gov/vw3d/vw3d.cgi?cid=31369
