   Color/Form

     * White, light, alkaline powder
     * White monoclinic crystals

   from [1]HSDB

   Boiling Point
        Decomposes at 1300 deg C
   from [2]HSDB

   Melting Point
        723 deg C
   from [3]HSDB

   Density/Specific Gravity
        2.11 g/cu cm
   from [4]HSDB

   Solubilities

     * Solubility in water (wt%): 1.52 at 0 deg C; 1.31 at 20 deg C; 1.16
       at 40 deg C; 1.00 at 60 deg C; 0.84 at 80 deg C; 0.71 at 100 deg C
     * Insoluble in alcohol; soluble in dilute acid
     * Insoluble in acetone, ammonia

   from [5]HSDB

   Spectral Properties
        INDEX OF REFRACTION: 1.428, 1.567, 1.572
   from [6]HSDB

   Computed Properties
   Molecular Weight                  73.8909 [g/mol]
   Molecular Formula                 CLi[2]O[3]
   H-Bond Donor                      0
   H-Bond Acceptor                   3
   Rotatable Bond Count              0
   Exact Mass                        74.016753
   MonoIsotopic Mass                 74.016753
   Topological Polar Surface Area    63.2
   Heavy Atom Count                  6
   Formal Charge                     0
   Complexity                        18.8
   Isotope Atom Count                0
   Defined Atom Stereocenter Count   0
   Undefined Atom Stereocenter Count 0
   Defined Bond Stereocenter Count   0
   Undefined Bond Stereocenter Count 0
   Covalently-Bonded Unit Count      3

References

   1. http://toxnet.nlm.nih.gov/cgi-bin/sis/search/r?dbs+hsdb:@term+@rn+@rel+554-13-2
   2. http://toxnet.nlm.nih.gov/cgi-bin/sis/search/r?dbs+hsdb:@term+@rn+@rel+554-13-2
   3. http://toxnet.nlm.nih.gov/cgi-bin/sis/search/r?dbs+hsdb:@term+@rn+@rel+554-13-2
   4. http://toxnet.nlm.nih.gov/cgi-bin/sis/search/r?dbs+hsdb:@term+@rn+@rel+554-13-2
   5. http://toxnet.nlm.nih.gov/cgi-bin/sis/search/r?dbs+hsdb:@term+@rn+@rel+554-13-2
   6. http://toxnet.nlm.nih.gov/cgi-bin/sis/search/r?dbs+hsdb:@term+@rn+@rel+554-13-2
