   Color/Form
        Solvated crystals from polar solvents, such as methanol or ethyl
   formate
   from [1]HSDB

   Boiling Point
        137-138 deg C at 1X10-6 mm Hg
   from [2]HSDB

   Melting Point
        62-64 deg C
   from [3]HSDB

   Octanol/Water Partition Coefficient
        log Kow = 5.68
   from [4]HSDB

   Solubilities

     * Practically insoluble in water or glycerol; soluble in absolute
       alcohol, methanol, chloroform, ether, fats and oils
     * Sol in ethanol and acetone and benzene

   from [5]HSDB

   Spectral Properties

     * Index of refraction: 1.6410 at 20 deg C/D (calculated form
       refractive indexes of 20-70% solutions in mineral oil); max
       absorption: 324-325 nm (E=1,835, 1%, 1 cm)
     * IR: 16101 (Sadtler Research Laboratories Prism Collection)
     * MASS: 68282 (NIST/EPA/MSDC Mass Spectral Database 1990 version)
     * IR: 16101 (Sadtler Research Laboratories IR prism collection)

   from [6]HSDB

   Vapor Pressure
        7.5X10-8 mm Hg at 25 deg C /Estimated/
   from [7]HSDB

   Other Chemical/Physical Properties

     * Distills at 120-125 deg C at 5x10-3 mm pressure. Solution exhibits
       a yellow-green fluorescence when irradiated with extreme UV light.
     * A number of geometric isomers of retinol exist because of the
       possible cis-trans configurations of the side chains; ... synthetic
       retinol is all-trans isomer. Interconversion between geometric
       isomers readily takes place in the body.
     * Pale yellow prismatic crystals from methanol; mp: 57-58 deg C; UV
       max (ethanol): 326 nm (E=1,550, 1%, 1 cm) /Retinol acetate/
     * Amorphous or crystalline; mp: 28-29 deg C; UV max (ethanol);
       325-328 nm (E=975, 1%, 1 cm) /Retinol palmitate/
     * Henry's Law constant: 1.2X10-4 atm-cu m/mol @ 25 deg C /Estimated/
     * Hydroxyl radical reaction rate constant: 4.0X10-10 cu
       cm/molecule-sec @ 25 deg C /Estimated/

   from [8]HSDB

   Computed Properties
   Molecular Weight                  286.4516 [g/mol]
   Molecular Formula                 C[20]H[30]O
   XLogP3                            5.7
   H-Bond Donor                      1
   H-Bond Acceptor                   1
   Rotatable Bond Count              5
   Exact Mass                        286.229666
   MonoIsotopic Mass                 286.229666
   Topological Polar Surface Area    20.2
   Heavy Atom Count                  21
   Formal Charge                     0
   Complexity                        496
   Isotope Atom Count                0
   Defined Atom Stereocenter Count   0
   Undefined Atom Stereocenter Count 0
   Defined Bond Stereocenter Count   4
   Undefined Bond Stereocenter Count 0
   Covalently-Bonded Unit Count      1
   Feature 3D Acceptor Count         1
   Feature 3D Donor Count            1
   Feature 3D Hydrophobe Count       3
   Feature 3D Ring Count             1
   Effective Rotor Count             5.8
   Conformer Sampling RMSD           0.8
   CID Conformer Count               [9]30

References

   1. http://toxnet.nlm.nih.gov/cgi-bin/sis/search/r?dbs+hsdb:@term+@rn+@rel+68-26-8
   2. http://toxnet.nlm.nih.gov/cgi-bin/sis/search/r?dbs+hsdb:@term+@rn+@rel+68-26-8
   3. http://toxnet.nlm.nih.gov/cgi-bin/sis/search/r?dbs+hsdb:@term+@rn+@rel+68-26-8
   4. http://toxnet.nlm.nih.gov/cgi-bin/sis/search/r?dbs+hsdb:@term+@rn+@rel+68-26-8
   5. http://toxnet.nlm.nih.gov/cgi-bin/sis/search/r?dbs+hsdb:@term+@rn+@rel+68-26-8
   6. http://toxnet.nlm.nih.gov/cgi-bin/sis/search/r?dbs+hsdb:@term+@rn+@rel+68-26-8
   7. http://toxnet.nlm.nih.gov/cgi-bin/sis/search/r?dbs+hsdb:@term+@rn+@rel+68-26-8
   8. http://toxnet.nlm.nih.gov/cgi-bin/sis/search/r?dbs+hsdb:@term+@rn+@rel+68-26-8
   9. http://pubchem.ncbi.nlm.nih.gov/vw3d/vw3d.cgi?cid=445354
