   Chemical and Physical Properties References

   [1]USDA ARS - USDA chemical properties
   from [2]ChemIDplus

   Color/Form
        Dark brown to yellow solid; (>30 deg C clear brown to dark brown
   liquid)
   from [3]HSDB

   Boiling Point
        117 deg C @ 0.3 mm Hg
   from [4]HSDB

   Melting Point
        29-30 deg C
   from [5]HSDB

   Corrosivity
        Corrosive to many metals ...
   from [6]HSDB

   Density/Specific Gravity
        1.273 @ 25 deg C/15.6 deg C
   from [7]HSDB

   Octanol/Water Partition Coefficient
        log Kow= 4.6
   from [8]HSDB

   Solubilities

     * Sol in heptane, ethyl alc, acetone, ether, benzene, ethyl acetate
     * In water, 2 mg/l @ 25 deg C

   from [9]HSDB

   Vapor Pressure
        1.2X10-4 mm Hg @ 25 deg C
   from [10]HSDB

   Other Chemical/Physical Properties

     * Decomp temp: greater than 200 deg C; highly resistant to decomp by
       uv irradiation
     * Oily amber liquid /Technical triallate/
     * Hydrolyzed by strong acids and alkalis.

   from [11]HSDB

   Computed Properties
   Molecular Weight                  304.66414 [g/mol]
   Molecular Formula                 C[10]H[16]Cl[3]NOS
   XLogP3-AA                         4.4
   H-Bond Donor                      0
   H-Bond Acceptor                   2
   Rotatable Bond Count              5
   Exact Mass                        303.001818
   MonoIsotopic Mass                 303.001818
   Topological Polar Surface Area    45.6
   Heavy Atom Count                  16
   Formal Charge                     0
   Complexity                        267
   Isotope Atom Count                0
   Defined Atom Stereocenter Count   0
   Undefined Atom Stereocenter Count 0
   Defined Bond Stereocenter Count   0
   Undefined Bond Stereocenter Count 0
   Covalently-Bonded Unit Count      1
   Feature 3D Hydrophobe Count       2
   Effective Rotor Count             6
   Conformer Sampling RMSD           0.8
   CID Conformer Count               [12]40

References

   1. http://www.ars.usda.gov/SP2UserFiles/ad_hoc/12755100DatabaseFiles/PesticidePropertiesDatabase/IndividualPesticideFiles/TRIALLATE.TXT
   2. http://chem.sis.nlm.nih.gov/chemidplus/
   3. http://toxnet.nlm.nih.gov/cgi-bin/sis/search/r?dbs+hsdb:@term+@rn+@rel+2303-17-5
   4. http://toxnet.nlm.nih.gov/cgi-bin/sis/search/r?dbs+hsdb:@term+@rn+@rel+2303-17-5
   5. http://toxnet.nlm.nih.gov/cgi-bin/sis/search/r?dbs+hsdb:@term+@rn+@rel+2303-17-5
   6. http://toxnet.nlm.nih.gov/cgi-bin/sis/search/r?dbs+hsdb:@term+@rn+@rel+2303-17-5
   7. http://toxnet.nlm.nih.gov/cgi-bin/sis/search/r?dbs+hsdb:@term+@rn+@rel+2303-17-5
   8. http://toxnet.nlm.nih.gov/cgi-bin/sis/search/r?dbs+hsdb:@term+@rn+@rel+2303-17-5
   9. http://toxnet.nlm.nih.gov/cgi-bin/sis/search/r?dbs+hsdb:@term+@rn+@rel+2303-17-5
  10. http://toxnet.nlm.nih.gov/cgi-bin/sis/search/r?dbs+hsdb:@term+@rn+@rel+2303-17-5
  11. http://toxnet.nlm.nih.gov/cgi-bin/sis/search/r?dbs+hsdb:@term+@rn+@rel+2303-17-5
  12. http://pubchem.ncbi.nlm.nih.gov/vw3d/vw3d.cgi?cid=5543
