   Color/Form
        NATURAL FORM, CRYSTALS
   from [1]HSDB

   Melting Point
        25-35 DEG C
   from [2]HSDB

   Solubilities
        FREELY SOL IN METHANOL, ABSOLUTE ETHANOL; FREELY SOL IN ETHYL
   ACETATE, CHLOROFORM; SLIGHTLY SOL IN WATER
   from [3]HSDB

   Spectral Properties
        SPECIFIC OPTICAL ROTATION: +23.5 DEG @ 25 DEG C/D (1 G IN 100 ML
   TETRAHYDROFURAN)
   from [4]HSDB

   Other Chemical/Physical Properties

     * ODORLESS, BITTER-TASTING /DINOPROST TROMETHAMINE/
     * MP APPROX 100 DEG C /DINOPROST TROMETHAMINE/
     * WHITE OR OFF-WHITE CRYSTALLINE POWDER /DINOPROST TROMETHAMINE/
     * SOL IN WATER 200 MG/ML /DINOPROST TROMETHAMINE/

   from [5]HSDB

   Computed Properties
   Molecular Weight                  475.616 [g/mol]
   Molecular Formula                 C[24]H[45]NO[8]
   H-Bond Donor                      8
   H-Bond Acceptor                   9
   Rotatable Bond Count              15
   Exact Mass                        475.314517
   MonoIsotopic Mass                 475.314517
   Topological Polar Surface Area    185
   Heavy Atom Count                  33
   Formal Charge                     0
   Complexity                        486
   Isotope Atom Count                0
   Defined Atom Stereocenter Count   5
   Undefined Atom Stereocenter Count 0
   Defined Bond Stereocenter Count   2
   Undefined Bond Stereocenter Count 0
   Covalently-Bonded Unit Count      2

References

   1. http://toxnet.nlm.nih.gov/cgi-bin/sis/search/r?dbs+hsdb:@term+@rn+@rel+551-11-1
   2. http://toxnet.nlm.nih.gov/cgi-bin/sis/search/r?dbs+hsdb:@term+@rn+@rel+551-11-1
   3. http://toxnet.nlm.nih.gov/cgi-bin/sis/search/r?dbs+hsdb:@term+@rn+@rel+551-11-1
   4. http://toxnet.nlm.nih.gov/cgi-bin/sis/search/r?dbs+hsdb:@term+@rn+@rel+551-11-1
   5. http://toxnet.nlm.nih.gov/cgi-bin/sis/search/r?dbs+hsdb:@term+@rn+@rel+551-11-1
