47205769
  -OEChem-06241223002D

 38 38  0     0  0  0  0  0  0999 V2000
    4.9543   -0.2327    0.0000 S   0  0  0  0  0  0  0  0  0  0  0  0
    7.4223   -2.4709    0.0000 O   0  0  0  0  0  0  0  0  0  0  0  0
    9.4438    0.5146    0.0000 O   0  0  0  0  0  0  0  0  0  0  0  0
    3.1590    0.1545    0.0000 O   0  0  0  0  0  0  0  0  0  0  0  0
    7.9575   -0.8236    0.0000 N   0  0  0  0  0  0  0  0  0  0  0  0
    5.4543   -1.7715    0.0000 N   0  0  0  0  0  0  0  0  0  0  0  0
   10.6028   -0.7725    0.0000 N   0  0  0  0  0  0  0  0  0  0  0  0
    3.6942   -1.4928    0.0000 N   0  0  0  0  0  0  0  0  0  0  0  0
    7.7496    0.1545    0.0000 C   0  0  0  0  0  0  0  0  0  0  0  0
    8.4927    0.8236    0.0000 C   0  0  0  0  0  0  0  0  0  0  0  0
    8.2848    1.8018    0.0000 C   0  0  0  0  0  0  0  0  0  0  0  0
    8.9086   -1.1327    0.0000 C   0  0  0  0  0  0  0  0  0  0  0  0
    7.2144   -1.4928    0.0000 C   0  0  0  0  0  0  0  0  0  0  0  0
    9.0280    2.4709    0.0000 C   0  0  0  0  0  0  0  0  0  0  0  0
    6.2633   -1.1838    0.0000 C   0  0  0  0  0  0  0  0  0  0  0  0
    9.6517   -0.4635    0.0000 C   0  0  0  0  0  0  0  0  0  0  0  0
    5.9543   -0.2327    0.0000 C   0  0  0  0  0  0  0  0  0  0  0  0
    4.6453   -1.1838    0.0000 C   0  0  0  0  0  0  0  0  0  0  0  0
    2.9511   -0.8236    0.0000 C   0  0  0  0  0  0  0  0  0  0  0  0
    2.0000   -1.1327    0.0000 C   0  0  0  0  0  0  0  0  0  0  0  0
    7.4210    0.6803    0.0000 H   0  0  0  0  0  0  0  0  0  0  0  0
    7.1747   -0.0777    0.0000 H   0  0  0  0  0  0  0  0  0  0  0  0
    8.8213    0.2978    0.0000 H   0  0  0  0  0  0  0  0  0  0  0  0
    9.0676    1.0559    0.0000 H   0  0  0  0  0  0  0  0  0  0  0  0
    7.9563    2.3276    0.0000 H   0  0  0  0  0  0  0  0  0  0  0  0
    7.7100    1.5695    0.0000 H   0  0  0  0  0  0  0  0  0  0  0  0
    8.6175   -1.6801    0.0000 H   0  0  0  0  0  0  0  0  0  0  0  0
    9.3971   -1.5144    0.0000 H   0  0  0  0  0  0  0  0  0  0  0  0
    9.4428    2.0102    0.0000 H   0  0  0  0  0  0  0  0  0  0  0  0
    9.4887    2.8858    0.0000 H   0  0  0  0  0  0  0  0  0  0  0  0
    8.6131    2.9317    0.0000 H   0  0  0  0  0  0  0  0  0  0  0  0
    6.3187    0.2689    0.0000 H   0  0  0  0  0  0  0  0  0  0  0  0
   11.0635   -0.3577    0.0000 H   0  0  0  0  0  0  0  0  0  0  0  0
   10.7317   -1.3790    0.0000 H   0  0  0  0  0  0  0  0  0  0  0  0
    3.5653   -2.0992    0.0000 H   0  0  0  0  0  0  0  0  0  0  0  0
    1.8084   -0.5430    0.0000 H   0  0  0  0  0  0  0  0  0  0  0  0
    1.4103   -1.3242    0.0000 H   0  0  0  0  0  0  0  0  0  0  0  0
    2.1916   -1.7223    0.0000 H   0  0  0  0  0  0  0  0  0  0  0  0
  1 17  1  0  0  0  0
  1 18  1  0  0  0  0
  2 13  2  0  0  0  0
  3 16  2  0  0  0  0
  4 19  2  0  0  0  0
  5  9  1  0  0  0  0
  5 12  1  0  0  0  0
  5 13  1  0  0  0  0
  6 15  1  0  0  0  0
  6 18  2  0  0  0  0
  7 16  1  0  0  0  0
  7 33  1  0  0  0  0
  7 34  1  0  0  0  0
  8 18  1  0  0  0  0
  8 19  1  0  0  0  0
  8 35  1  0  0  0  0
  9 10  1  0  0  0  0
  9 21  1  0  0  0  0
  9 22  1  0  0  0  0
 10 11  1  0  0  0  0
 10 23  1  0  0  0  0
 10 24  1  0  0  0  0
 11 14  1  0  0  0  0
 11 25  1  0  0  0  0
 11 26  1  0  0  0  0
 12 16  1  0  0  0  0
 12 27  1  0  0  0  0
 12 28  1  0  0  0  0
 13 15  1  0  0  0  0
 14 29  1  0  0  0  0
 14 30  1  0  0  0  0
 14 31  1  0  0  0  0
 15 17  2  0  0  0  0
 17 32  1  0  0  0  0
 19 20  1  0  0  0  0
 20 36  1  0  0  0  0
 20 37  1  0  0  0  0
 20 38  1  0  0  0  0
M  END
> <PUBCHEM_COMPOUND_CID>
47205769

> <PUBCHEM_COMPOUND_CANONICALIZED>
1

> <PUBCHEM_CACTVS_COMPLEXITY>
378

> <PUBCHEM_CACTVS_HBOND_ACCEPTOR>
5

> <PUBCHEM_CACTVS_HBOND_DONOR>
2

> <PUBCHEM_CACTVS_ROTATABLE_BOND>
7

> <PUBCHEM_CACTVS_SUBSKEYS>
AAADceBzsABAAAAAAAAAAAAAAAAAAWAAAAAAAAAAAAAAAAABgAAAHgQQAAAACAjF1gSjkRPIEAisAQVydACA8KlHCjkBABWYJECAQAAgiCAUAAgIFwKAAKAAAAAAAAAAAAAAAAAAAAAAAAAAAAAAAAAAAA==

> <PUBCHEM_IUPAC_OPENEYE_NAME>
2-acetamido-N-(2-amino-2-oxo-ethyl)-N-butyl-thiazole-4-carboxamide

> <PUBCHEM_IUPAC_CAS_NAME>
2-acetamido-N-(2-amino-2-oxoethyl)-N-butyl-4-thiazolecarboxamide

> <PUBCHEM_IUPAC_NAME>
2-acetamido-N-(2-amino-2-oxoethyl)-N-butyl-1,3-thiazole-4-carboxamide

> <PUBCHEM_IUPAC_SYSTEMATIC_NAME>
2-acetamido-N-(2-azanyl-2-oxidanylidene-ethyl)-N-butyl-1,3-thiazole-4-carboxamide

> <PUBCHEM_IUPAC_TRADITIONAL_NAME>
2-acetamido-N-(2-amino-2-keto-ethyl)-N-butyl-thiazole-4-carboxamide

> <PUBCHEM_IUPAC_INCHI>
InChI=1S/C12H18N4O3S/c1-3-4-5-16(6-10(13)18)11(19)9-7-20-12(15-9)14-8(2)17/h7H,3-6H2,1-2H3,(H2,13,18)(H,14,15,17)

> <PUBCHEM_IUPAC_INCHIKEY>
ZXFFUWLXYRZMGC-UHFFFAOYSA-N

> <PUBCHEM_XLOGP3_AA>
0.5

> <PUBCHEM_EXACT_MASS>
298.109961

> <PUBCHEM_MOLECULAR_FORMULA>
C12H18N4O3S

> <PUBCHEM_MOLECULAR_WEIGHT>
298.36132

> <PUBCHEM_OPENEYE_CAN_SMILES>
CCCCN(CC(=O)N)C(=O)C1=CSC(=N1)NC(=O)C

> <PUBCHEM_OPENEYE_ISO_SMILES>
CCCCN(CC(=O)N)C(=O)C1=CSC(=N1)NC(=O)C

> <PUBCHEM_CACTVS_TPSA>
134

> <PUBCHEM_MONOISOTOPIC_WEIGHT>
298.109961

> <PUBCHEM_TOTAL_CHARGE>
0

> <PUBCHEM_HEAVY_ATOM_COUNT>
20

> <PUBCHEM_ATOM_DEF_STEREO_COUNT>
0

> <PUBCHEM_ATOM_UDEF_STEREO_COUNT>
0

> <PUBCHEM_BOND_DEF_STEREO_COUNT>
0

> <PUBCHEM_BOND_UDEF_STEREO_COUNT>
0

> <PUBCHEM_ISOTOPIC_ATOM_COUNT>
0

> <PUBCHEM_COMPONENT_COUNT>
1

> <PUBCHEM_CACTVS_TAUTO_COUNT>
15

> <PUBCHEM_COORDINATE_TYPE>
1
5
255

> <PUBCHEM_BONDANNOTATIONS>
1  17  8
1  18  8
15  17  8
6  15  8
6  18  8

$$$$

