911208
  -OEChem-07051213132D

 17 18  0     0  0  0  0  0  0999 V2000
    2.0000    0.8030    0.0000 Cl  0  0  0  0  0  0  0  0  0  0  0  0
    8.1279   -0.1970    0.0000 F   0  0  0  0  0  0  0  0  0  0  0  0
    7.1279   -1.1970    0.0000 F   0  0  0  0  0  0  0  0  0  0  0  0
    7.1279    0.8030    0.0000 F   0  0  0  0  0  0  0  0  0  0  0  0
    5.5443    0.6077    0.0000 N   0  0  0  0  0  0  0  0  0  0  0  0
    5.5443   -1.0018    0.0000 N   0  0  0  0  0  0  0  0  0  0  0  0
    3.7320   -1.1970    0.0000 N   0  0  0  0  0  0  0  0  0  0  0  0
    4.5981    0.3030    0.0000 C   0  0  0  0  0  0  0  0  0  0  0  0
    6.1279   -0.1970    0.0000 C   0  0  0  0  0  0  0  0  0  0  0  0
    4.5981   -0.6970    0.0000 C   0  0  0  0  0  0  0  0  0  0  0  0
    3.7320    0.8030    0.0000 C   0  0  0  0  0  0  0  0  0  0  0  0
    7.1279   -0.1970    0.0000 C   0  0  0  0  0  0  0  0  0  0  0  0
    2.8660    0.3030    0.0000 C   0  0  0  0  0  0  0  0  0  0  0  0
    2.8660   -0.6970    0.0000 C   0  0  0  0  0  0  0  0  0  0  0  0
    5.7369    1.1970    0.0000 H   0  0  0  0  0  0  0  0  0  0  0  0
    3.7320    1.4230    0.0000 H   0  0  0  0  0  0  0  0  0  0  0  0
    2.3291   -1.0070    0.0000 H   0  0  0  0  0  0  0  0  0  0  0  0
  1 13  1  0  0  0  0
  2 12  1  0  0  0  0
  3 12  1  0  0  0  0
  4 12  1  0  0  0  0
  5  8  1  0  0  0  0
  5  9  1  0  0  0  0
  5 15  1  0  0  0  0
  6  9  2  0  0  0  0
  6 10  1  0  0  0  0
  7 10  1  0  0  0  0
  7 14  2  0  0  0  0
  8 10  2  0  0  0  0
  8 11  1  0  0  0  0
  9 12  1  0  0  0  0
 11 13  2  0  0  0  0
 11 16  1  0  0  0  0
 13 14  1  0  0  0  0
 14 17  1  0  0  0  0
M  END
> <PUBCHEM_COMPOUND_CID>
911208

> <PUBCHEM_COMPOUND_CANONICALIZED>
1

> <PUBCHEM_CACTVS_COMPLEXITY>
223

> <PUBCHEM_CACTVS_HBOND_ACCEPTOR>
5

> <PUBCHEM_CACTVS_HBOND_DONOR>
1

> <PUBCHEM_CACTVS_ROTATABLE_BOND>
0

> <PUBCHEM_CACTVS_SUBSKEYS>
AAADcQBjAYAEAAAAAAAAAAAAAAAAAWAAAAAsAAAAAAAAAFgB+AAAHQIQAAAACArBFzQ98L7JkACgATZnZACCgC2xF6AB2SA4dpiIaOLBm5HUIAhokALIyCYQAAAAAAAAAAAAAAAAAAAAAAAAAAAAAAAAAA==

> <PUBCHEM_IUPAC_OPENEYE_NAME>
6-chloro-2-(trifluoromethyl)-1H-imidazo[4,5-b]pyridine

> <PUBCHEM_IUPAC_CAS_NAME>
6-chloro-2-(trifluoromethyl)-1H-imidazo[4,5-b]pyridine

> <PUBCHEM_IUPAC_NAME>
6-chloro-2-(trifluoromethyl)-1H-imidazo[4,5-b]pyridine

> <PUBCHEM_IUPAC_SYSTEMATIC_NAME>
6-chloranyl-2-(trifluoromethyl)-1H-imidazo[4,5-b]pyridine

> <PUBCHEM_IUPAC_TRADITIONAL_NAME>
6-chloro-2-(trifluoromethyl)-1H-imidazo[4,5-b]pyridine

> <PUBCHEM_IUPAC_INCHI>
InChI=1S/C7H3ClF3N3/c8-3-1-4-5(12-2-3)14-6(13-4)7(9,10)11/h1-2H,(H,12,13,14)

> <PUBCHEM_IUPAC_INCHIKEY>
QJYOCYOOZHULNN-UHFFFAOYSA-N

> <PUBCHEM_XLOGP3>
2

> <PUBCHEM_EXACT_MASS>
220.996759

> <PUBCHEM_MOLECULAR_FORMULA>
C7H3ClF3N3

> <PUBCHEM_MOLECULAR_WEIGHT>
221.56703

> <PUBCHEM_OPENEYE_CAN_SMILES>
C1=C2C(=NC=C1Cl)N=C(N2)C(F)(F)F

> <PUBCHEM_OPENEYE_ISO_SMILES>
C1=C2C(=NC=C1Cl)N=C(N2)C(F)(F)F

> <PUBCHEM_CACTVS_TPSA>
41.6

> <PUBCHEM_MONOISOTOPIC_WEIGHT>
220.996759

> <PUBCHEM_TOTAL_CHARGE>
0

> <PUBCHEM_HEAVY_ATOM_COUNT>
14

> <PUBCHEM_ATOM_DEF_STEREO_COUNT>
0

> <PUBCHEM_ATOM_UDEF_STEREO_COUNT>
0

> <PUBCHEM_BOND_DEF_STEREO_COUNT>
0

> <PUBCHEM_BOND_UDEF_STEREO_COUNT>
0

> <PUBCHEM_ISOTOPIC_ATOM_COUNT>
0

> <PUBCHEM_COMPONENT_COUNT>
1

> <PUBCHEM_CACTVS_TAUTO_COUNT>
3

> <PUBCHEM_COORDINATE_TYPE>
1
5
255

> <PUBCHEM_BONDANNOTATIONS>
11  13  8
13  14  8
5  8  8
5  9  8
6  10  8
6  9  8
7  10  8
7  14  8
8  10  8
8  11  8

$$$$

