   Color/Form

     * YELLOW NEEDLES FROM ALC
     * WHITE NEEDLES
     * White to yellow, needle-like, crystalline solid.

   from [1]HSDB

   Odor

     * SWEETISH ODOR
     * Sweetish odor.

   from [2]HSDB

   Boiling Point
        340 DEG C @ 760 MM HG
   from [3]HSDB

   Melting Point
        114 DEG C
   from [4]HSDB

   Octanol/Water Partition Coefficient
        log Kow= 3.77 (est)
   from [5]HSDB

   Solubilities

     * SOL IN ETHER, BENZENE, CHLOROFORM, ACETIC ACID
     * SLIGHTLY SOL IN COLD ALC

   from [6]HSDB

   Spectral Properties

     * MAX ABSORPTION (ISOOCTANE): 295 NM (LOG E= 4.2); SADTLER REFERENCE
       NUMBER: 6448 (IR, PRISM), 8531 (IR, GRATING), 3084 (NMR)
     * IR: 8531 (Sadtler Research Laboratories IR Grating Collection)
     * UV: 15778 (Sadtler Research Laboratories Spectral Collection)
     * MASS: 1170 (National Bureau of Standards EPA-NIH Mass Spectra Data
       Base, NSRDS-NBS-63)

   from [7]HSDB

   Other Chemical/Physical Properties

     * IR: 6261 (Coblentz Society Spectral Collection) /Biphenyl, 2-nitro/
     * UV: 373 (Sadtler Research Laboratories Spectral Collection)
       /Biphenyl, 2-nitro/
     * NMR: 86 (Sadtler Research Laboratories Spectral Collection)
       /Biphenyl, 2-nitro/
     * IR: 20340 (Sadtler Research Laboratories Prism Collection)
       /Biphenyl, 3-nitro/
     * UV: 6834 (Sadtler Research Laboratories Spectral Collection)
       /Biphenyl, 3-nitro/
     * Henry's Law Constant= 3.54X10-6 atm-cu m/mole @ 25 deg C (est)

   from [8]HSDB

   Computed Properties
   Molecular Weight                  199.20536 [g/mol]
   Molecular Formula                 C[12]H[9]NO[2]
   XLogP3                            3.8
   H-Bond Donor                      0
   H-Bond Acceptor                   2
   Rotatable Bond Count              1
   Exact Mass                        199.063329
   MonoIsotopic Mass                 199.063329
   Topological Polar Surface Area    45.8
   Heavy Atom Count                  15
   Formal Charge                     0
   Complexity                        210
   Isotope Atom Count                0
   Defined Atom Stereocenter Count   0
   Undefined Atom Stereocenter Count 0
   Defined Bond Stereocenter Count   0
   Undefined Bond Stereocenter Count 0
   Covalently-Bonded Unit Count      1
   Feature 3D Acceptor Count         2
   Feature 3D Anion Count            1
   Feature 3D Ring Count             2
   Effective Rotor Count             2
   Conformer Sampling RMSD           0.6
   CID Conformer Count               [9]2

References

   1. http://toxnet.nlm.nih.gov/cgi-bin/sis/search/r?dbs+hsdb:@term+@rn+@rel+92-93-3
   2. http://toxnet.nlm.nih.gov/cgi-bin/sis/search/r?dbs+hsdb:@term+@rn+@rel+92-93-3
   3. http://toxnet.nlm.nih.gov/cgi-bin/sis/search/r?dbs+hsdb:@term+@rn+@rel+92-93-3
   4. http://toxnet.nlm.nih.gov/cgi-bin/sis/search/r?dbs+hsdb:@term+@rn+@rel+92-93-3
   5. http://toxnet.nlm.nih.gov/cgi-bin/sis/search/r?dbs+hsdb:@term+@rn+@rel+92-93-3
   6. http://toxnet.nlm.nih.gov/cgi-bin/sis/search/r?dbs+hsdb:@term+@rn+@rel+92-93-3
   7. http://toxnet.nlm.nih.gov/cgi-bin/sis/search/r?dbs+hsdb:@term+@rn+@rel+92-93-3
   8. http://toxnet.nlm.nih.gov/cgi-bin/sis/search/r?dbs+hsdb:@term+@rn+@rel+92-93-3
   9. http://pubchem.ncbi.nlm.nih.gov/vw3d/vw3d.cgi?cid=7114
