   Color/Form

     * Crystals from menthanol or ether.
     * White to light-yellow...crystals.

   from [1]HSDB

   Odor
        Odourless
   from [2]HSDB

   Melting Point
        212-214 deg C
   from [3]HSDB

   Solubilities
        Practically insoluble in water; very soluble in chloroform;
   soluble in acetonitrile; slightly soluble in ethanol and diethyl ether.
   from [4]HSDB

   Spectral Properties

     * Optical rotation= +6 deg (c= 1 in CHCl3); UV max= 283.5, 286 nm (E=
       23400, 22100).
     * Optical rotation= -10.0 deg to -14.0 deg at 20 deg C

   from [5]HSDB

   Computed Properties
   Molecular Weight                  404.92696 [g/mol]
   Molecular Formula                 C[23]H[29]ClO[4]
   XLogP3-AA                         3.6
   H-Bond Donor                      0
   H-Bond Acceptor                   4
   Rotatable Bond Count              3
   Tautomer Count                    10
   Exact Mass                        404.175437
   MonoIsotopic Mass                 404.175437
   Topological Polar Surface Area    60.4
   Heavy Atom Count                  28
   Formal Charge                     0
   Complexity                        827
   Isotope Atom Count                0
   Defined Atom Stereocenter Count   6
   Undefined Atom Stereocenter Count 0
   Defined Bond Stereocenter Count   0
   Undefined Bond Stereocenter Count 0
   Covalently-Bonded Unit Count      1
   Feature 3D Acceptor Count         3
   Feature 3D Ring Count             4
   Effective Rotor Count             4.4
   Conformer Sampling RMSD           0.8
   CID Conformer Count               [6]3

References

   1. http://toxnet.nlm.nih.gov/cgi-bin/sis/search/r?dbs+hsdb:@term+@rn+@rel+302-22-7
   2. http://toxnet.nlm.nih.gov/cgi-bin/sis/search/r?dbs+hsdb:@term+@rn+@rel+302-22-7
   3. http://toxnet.nlm.nih.gov/cgi-bin/sis/search/r?dbs+hsdb:@term+@rn+@rel+302-22-7
   4. http://toxnet.nlm.nih.gov/cgi-bin/sis/search/r?dbs+hsdb:@term+@rn+@rel+302-22-7
   5. http://toxnet.nlm.nih.gov/cgi-bin/sis/search/r?dbs+hsdb:@term+@rn+@rel+302-22-7
   6. http://pubchem.ncbi.nlm.nih.gov/vw3d/vw3d.cgi?cid=9324
