11954067
  -OEChem-07051213062D

 50 50  0     1  0  0  0  0  0999 V2000
    6.8671   -3.0600    0.0000 Br  0  0  0  0  0  0  0  0  0  0  0  0
    5.1350   -2.0600    0.0000 S   0  0  0  0  0  0  0  0  0  0  0  0
    3.4030   -3.0600    0.0000 O   0  0  0  0  0  0  0  0  0  0  0  0
    6.0010    1.4400    0.0000 O   0  0  0  0  0  0  0  0  0  0  0  0
    6.8671    0.9400    0.0000 O   0  0  0  0  0  0  0  0  0  0  0  0
    2.5369    4.4400    0.0000 O   0  0  0  0  0  0  0  0  0  0  0  0
    4.2690    4.4400    0.0000 O   0  0  0  0  0  0  0  0  0  0  0  0
   10.3312   -0.0600    0.0000 O   0  0  0  0  0  0  0  0  0  0  0  0
    9.4651   -1.5600    0.0000 O   0  0  0  0  0  0  0  0  0  0  0  0
    5.1350   -0.0600    0.0000 N   0  0  0  0  0  0  0  0  0  0  0  0
    7.7331   -0.5600    0.0000 N   0  0  0  0  0  0  0  0  0  0  0  0
    2.5369    2.4400    0.0000 N   0  0  0  0  0  0  0  0  0  0  0  0
    6.0010   -0.5600    0.0000 C   0  0  1  0  0  0  0  0  0  0  0  0
    5.1350   -3.0600    0.0000 C   0  0  3  0  0  0  0  0  0  0  0  0
    6.0010   -1.5600    0.0000 C   0  0  0  0  0  0  0  0  0  0  0  0
    4.2690   -3.5600    0.0000 C   0  0  3  0  0  0  0  0  0  0  0  0
    4.2690    1.4400    0.0000 C   0  0  0  0  0  0  0  0  0  0  0  0
    4.2690    2.4400    0.0000 C   0  0  0  0  0  0  0  0  0  0  0  0
    6.0010   -3.5600    0.0000 C   0  0  0  0  0  0  0  0  0  0  0  0
    5.1350    0.9400    0.0000 C   0  0  0  0  0  0  0  0  0  0  0  0
    6.8671   -0.0600    0.0000 C   0  0  0  0  0  0  0  0  0  0  0  0
    3.4030    2.9400    0.0000 C   0  0  1  0  0  0  0  0  0  0  0  0
    4.2690   -4.5600    0.0000 C   0  0  0  0  0  0  0  0  0  0  0  0
    6.0010   -4.5600    0.0000 C   0  0  0  0  0  0  0  0  0  0  0  0
    5.1350   -5.0600    0.0000 C   0  0  0  0  0  0  0  0  0  0  0  0
    3.4030    3.9400    0.0000 C   0  0  0  0  0  0  0  0  0  0  0  0
    8.5991   -0.0600    0.0000 C   0  0  0  0  0  0  0  0  0  0  0  0
    9.4651   -0.5600    0.0000 C   0  0  0  0  0  0  0  0  0  0  0  0
    5.4641   -0.8700    0.0000 H   0  0  0  0  0  0  0  0  0  0  0  0
    5.8711   -2.6350    0.0000 H   0  0  0  0  0  0  0  0  0  0  0  0
    6.2131   -2.1426    0.0000 H   0  0  0  0  0  0  0  0  0  0  0  0
    6.6116   -1.4523    0.0000 H   0  0  0  0  0  0  0  0  0  0  0  0
    4.2690   -2.7100    0.0000 H   0  0  0  0  0  0  0  0  0  0  0  0
    4.5981   -0.3700    0.0000 H   0  0  0  0  0  0  0  0  0  0  0  0
    3.6584    1.5477    0.0000 H   0  0  0  0  0  0  0  0  0  0  0  0
    4.0569    0.8574    0.0000 H   0  0  0  0  0  0  0  0  0  0  0  0
    4.8796    2.3323    0.0000 H   0  0  0  0  0  0  0  0  0  0  0  0
    4.4810    3.0226    0.0000 H   0  0  0  0  0  0  0  0  0  0  0  0
    3.4030    2.3200    0.0000 H   0  0  0  0  0  0  0  0  0  0  0  0
    3.7320   -4.8700    0.0000 H   0  0  0  0  0  0  0  0  0  0  0  0
    6.5380   -4.8700    0.0000 H   0  0  0  0  0  0  0  0  0  0  0  0
    5.1350   -5.6800    0.0000 H   0  0  0  0  0  0  0  0  0  0  0  0
    7.7331   -1.1800    0.0000 H   0  0  0  0  0  0  0  0  0  0  0  0
    2.8660   -3.3700    0.0000 H   0  0  0  0  0  0  0  0  0  0  0  0
    2.0000    2.7500    0.0000 H   0  0  0  0  0  0  0  0  0  0  0  0
    2.5369    1.8200    0.0000 H   0  0  0  0  0  0  0  0  0  0  0  0
    8.9976    0.4149    0.0000 H   0  0  0  0  0  0  0  0  0  0  0  0
    8.2006    0.4149    0.0000 H   0  0  0  0  0  0  0  0  0  0  0  0
    2.5369    5.0600    0.0000 H   0  0  0  0  0  0  0  0  0  0  0  0
   10.8681   -0.3700    0.0000 H   0  0  0  0  0  0  0  0  0  0  0  0
  1 19  1  0  0  0  0
  2 14  1  0  0  0  0
  2 15  1  0  0  0  0
  3 16  1  0  0  0  0
  3 44  1  0  0  0  0
  4 20  2  0  0  0  0
  5 21  2  0  0  0  0
  6 26  1  0  0  0  0
  6 49  1  0  0  0  0
  7 26  2  0  0  0  0
  8 28  1  0  0  0  0
  8 50  1  0  0  0  0
  9 28  2  0  0  0  0
 13 10  1  6  0  0  0
 10 20  1  0  0  0  0
 10 34  1  0  0  0  0
 11 21  1  0  0  0  0
 11 27  1  0  0  0  0
 11 43  1  0  0  0  0
 22 12  1  6  0  0  0
 12 45  1  0  0  0  0
 12 46  1  0  0  0  0
 13 15  1  0  0  0  0
 13 21  1  0  0  0  0
 13 29  1  0  0  0  0
 14 16  1  0  0  0  0
 14 19  1  0  0  0  0
 14 30  1  0  0  0  0
 15 31  1  0  0  0  0
 15 32  1  0  0  0  0
 16 23  1  0  0  0  0
 16 33  1  0  0  0  0
 17 18  1  0  0  0  0
 17 20  1  0  0  0  0
 17 35  1  0  0  0  0
 17 36  1  0  0  0  0
 18 22  1  0  0  0  0
 18 37  1  0  0  0  0
 18 38  1  0  0  0  0
 19 24  2  0  0  0  0
 22 26  1  0  0  0  0
 22 39  1  0  0  0  0
 23 25  2  0  0  0  0
 23 40  1  0  0  0  0
 24 25  1  0  0  0  0
 24 41  1  0  0  0  0
 25 42  1  0  0  0  0
 27 28  1  0  0  0  0
 27 47  1  0  0  0  0
 27 48  1  0  0  0  0
M  END
> <PUBCHEM_COMPOUND_CID>
11954067

> <PUBCHEM_COMPOUND_CANONICALIZED>
1

> <PUBCHEM_CACTVS_COMPLEXITY>
671

> <PUBCHEM_CACTVS_HBOND_ACCEPTOR>
9

> <PUBCHEM_CACTVS_HBOND_DONOR>
6

> <PUBCHEM_CACTVS_ROTATABLE_BOND>
11

> <PUBCHEM_CACTVS_SUBSKEYS>
AAADceB7OABAEAAAAAAAAAAAAAAAAAAAAAAgAAAAAAAAAAAAAAAAHgRQCAABiDzlwAaACALAAgiIACHSGAAAAAAgABAICIGIACgKVBIggSAUUAAE1gC4kAKcFwIAAAAAAAAAAAAAAAAAAAAAAAAAAAAAAA==

> <PUBCHEM_IUPAC_OPENEYE_NAME>
(2S)-2-amino-5-[[(1R)-1-[(2-bromo-6-hydroxy-cyclohexa-2,4-dien-1-yl)sulfanylmethyl]-2-(carboxymethylamino)-2-oxo-ethyl]amino]-5-oxo-pentanoic acid

> <PUBCHEM_IUPAC_CAS_NAME>
(2S)-2-amino-5-[[(2R)-3-[(2-bromo-6-hydroxy-1-cyclohexa-2,4-dienyl)thio]-1-(carboxymethylamino)-1-oxopropan-2-yl]amino]-5-oxopentanoic acid

> <PUBCHEM_IUPAC_NAME>
(2S)-2-amino-5-[[(2R)-3-(2-bromo-6-hydroxycyclohexa-2,4-dien-1-yl)sulfanyl-1-(carboxymethylamino)-1-oxopropan-2-yl]amino]-5-oxopentanoic acid

> <PUBCHEM_IUPAC_SYSTEMATIC_NAME>
(2S)-2-azanyl-5-[[(2R)-3-(2-bromanyl-6-oxidanyl-cyclohexa-2,4-dien-1-yl)sulfanyl-1-(2-hydroxy-2-oxoethylamino)-1-oxidanylidene-propan-2-yl]amino]-5-oxidanylidene-pentanoic acid

> <PUBCHEM_IUPAC_TRADITIONAL_NAME>
(2S)-2-amino-5-[[(1R)-1-[[(2-bromo-6-hydroxy-cyclohexa-2,4-dien-1-yl)thio]methyl]-2-(carboxymethylamino)-2-keto-ethyl]amino]-5-keto-valeric acid

> <PUBCHEM_IUPAC_INCHI>
InChI=1S/C16H22BrN3O7S/c17-8-2-1-3-11(21)14(8)28-7-10(15(25)19-6-13(23)24)20-12(22)5-4-9(18)16(26)27/h1-3,9-11,14,21H,4-7,18H2,(H,19,25)(H,20,22)(H,23,24)(H,26,27)/t9-,10-,11?,14?/m0/s1

> <PUBCHEM_IUPAC_INCHIKEY>
BYHFLDCNLZPMDY-PXAOEZFJSA-N

> <PUBCHEM_XLOGP3_AA>
-3.3

> <PUBCHEM_EXACT_MASS>
479.036183

> <PUBCHEM_MOLECULAR_FORMULA>
C16H22BrN3O7S

> <PUBCHEM_MOLECULAR_WEIGHT>
480.33078

> <PUBCHEM_OPENEYE_CAN_SMILES>
C1=CC(C(C(=C1)Br)SCC(C(=O)NCC(=O)O)NC(=O)CCC(C(=O)O)N)O

> <PUBCHEM_OPENEYE_ISO_SMILES>
C1=CC(C(C(=C1)Br)SC[C@@H](C(=O)NCC(=O)O)NC(=O)CC[C@@H](C(=O)O)N)O

> <PUBCHEM_CACTVS_TPSA>
204

> <PUBCHEM_MONOISOTOPIC_WEIGHT>
479.036183

> <PUBCHEM_TOTAL_CHARGE>
0

> <PUBCHEM_HEAVY_ATOM_COUNT>
28

> <PUBCHEM_ATOM_DEF_STEREO_COUNT>
2

> <PUBCHEM_ATOM_UDEF_STEREO_COUNT>
2

> <PUBCHEM_BOND_DEF_STEREO_COUNT>
0

> <PUBCHEM_BOND_UDEF_STEREO_COUNT>
0

> <PUBCHEM_ISOTOPIC_ATOM_COUNT>
0

> <PUBCHEM_COMPONENT_COUNT>
1

> <PUBCHEM_CACTVS_TAUTO_COUNT>
4

> <PUBCHEM_COORDINATE_TYPE>
1
5
255

> <PUBCHEM_BONDANNOTATIONS>
13  10  6
22  12  6
14  30  3
16  33  3

$$$$

