5281555
  -OEChem-07051212582D

 55 56  0     1  0  0  0  0  0999 V2000
    7.2537   -1.3003    0.0000 O   0  0  0  0  0  0  0  0  0  0  0  0
    8.6550   -2.3183    0.0000 O   0  0  0  0  0  0  0  0  0  0  0  0
    2.9945   -4.8385    0.0000 O   0  0  0  0  0  0  0  0  0  0  0  0
    3.1756   -3.1160    0.0000 O   0  0  0  0  0  0  0  0  0  0  0  0
   10.1016    0.7688    0.0000 O   0  0  0  0  0  0  0  0  0  0  0  0
    6.9682   -4.0174    0.0000 C   0  0  0  0  0  0  0  0  0  0  0  0
    6.1591   -3.4296    0.0000 C   0  0  1  0  0  0  0  0  0  0  0  0
    7.0727   -3.0228    0.0000 C   0  0  1  0  0  0  0  0  0  0  0  0
    6.3804   -4.8264    0.0000 C   0  0  0  0  0  0  0  0  0  0  0  0
    7.9627   -4.1219    0.0000 C   0  0  0  0  0  0  0  0  0  0  0  0
    5.1646   -3.3250    0.0000 C   0  0  0  0  0  0  0  0  0  0  0  0
    7.6605   -2.2138    0.0000 C   0  0  0  0  0  0  0  0  0  0  0  0
    4.5768   -4.1340    0.0000 C   0  0  0  0  0  0  0  0  0  0  0  0
    7.8415   -0.4912    0.0000 C   0  0  1  0  0  0  0  0  0  0  0  0
    4.9836   -5.0476    0.0000 C   0  0  0  0  0  0  0  0  0  0  0  0
    8.8415   -0.4912    0.0000 C   0  0  0  0  0  0  0  0  0  0  0  0
    7.5325    0.4598    0.0000 C   0  0  0  0  0  0  0  0  0  0  0  0
    3.5823   -4.0295    0.0000 C   0  0  0  0  0  0  0  0  0  0  0  0
    8.3415    1.0476    0.0000 C   0  0  0  0  0  0  0  0  0  0  0  0
    9.1505    0.4598    0.0000 C   0  0  0  0  0  0  0  0  0  0  0  0
    6.5814    0.7688    0.0000 C   0  0  0  0  0  0  0  0  0  0  0  0
    8.3415    2.0476    0.0000 C   0  0  0  0  0  0  0  0  0  0  0  0
    9.2075    2.5476    0.0000 C   0  0  0  0  0  0  0  0  0  0  0  0
    2.0000   -4.7340    0.0000 C   0  0  0  0  0  0  0  0  0  0  0  0
    9.2075    3.5476    0.0000 C   0  0  0  0  0  0  0  0  0  0  0  0
    8.3415    4.0476    0.0000 C   0  0  0  0  0  0  0  0  0  0  0  0
    8.3415    5.0476    0.0000 C   0  0  0  0  0  0  0  0  0  0  0  0
    6.0622   -2.8172    0.0000 H   0  0  0  0  0  0  0  0  0  0  0  0
    6.6825   -2.5410    0.0000 H   0  0  0  0  0  0  0  0  0  0  0  0
    5.8788   -4.4619    0.0000 H   0  0  0  0  0  0  0  0  0  0  0  0
    6.0159   -5.3280    0.0000 H   0  0  0  0  0  0  0  0  0  0  0  0
    6.8820   -5.1908    0.0000 H   0  0  0  0  0  0  0  0  0  0  0  0
    7.8979   -4.7385    0.0000 H   0  0  0  0  0  0  0  0  0  0  0  0
    8.5793   -4.1867    0.0000 H   0  0  0  0  0  0  0  0  0  0  0  0
    8.0275   -3.5053    0.0000 H   0  0  0  0  0  0  0  0  0  0  0  0
    4.9124   -2.7586    0.0000 H   0  0  0  0  0  0  0  0  0  0  0  0
    8.1230   -1.0437    0.0000 H   0  0  0  0  0  0  0  0  0  0  0  0
    4.4172   -5.2998    0.0000 H   0  0  0  0  0  0  0  0  0  0  0  0
    5.2357   -5.6140    0.0000 H   0  0  0  0  0  0  0  0  0  0  0  0
    5.5500   -4.7954    0.0000 H   0  0  0  0  0  0  0  0  0  0  0  0
    8.7767   -1.1078    0.0000 H   0  0  0  0  0  0  0  0  0  0  0  0
    9.4480   -0.6202    0.0000 H   0  0  0  0  0  0  0  0  0  0  0  0
    6.7730    1.3585    0.0000 H   0  0  0  0  0  0  0  0  0  0  0  0
    5.9918    0.9604    0.0000 H   0  0  0  0  0  0  0  0  0  0  0  0
    6.3898    0.1792    0.0000 H   0  0  0  0  0  0  0  0  0  0  0  0
    8.1295    2.6302    0.0000 H   0  0  0  0  0  0  0  0  0  0  0  0
    7.7309    1.9399    0.0000 H   0  0  0  0  0  0  0  0  0  0  0  0
    9.7445    2.2376    0.0000 H   0  0  0  0  0  0  0  0  0  0  0  0
    2.0648   -4.1174    0.0000 H   0  0  0  0  0  0  0  0  0  0  0  0
    1.3834   -4.6692    0.0000 H   0  0  0  0  0  0  0  0  0  0  0  0
    1.9352   -5.3506    0.0000 H   0  0  0  0  0  0  0  0  0  0  0  0
    9.7445    3.8576    0.0000 H   0  0  0  0  0  0  0  0  0  0  0  0
    7.8046    3.7376    0.0000 H   0  0  0  0  0  0  0  0  0  0  0  0
    8.8785    5.3576    0.0000 H   0  0  0  0  0  0  0  0  0  0  0  0
    7.8046    5.3576    0.0000 H   0  0  0  0  0  0  0  0  0  0  0  0
  1 12  1  0  0  0  0
 14  1  1  6  0  0  0
  2 12  2  0  0  0  0
  3 18  1  0  0  0  0
  3 24  1  0  0  0  0
  4 18  2  0  0  0  0
  5 20  2  0  0  0  0
  6  7  1  0  0  0  0
  6  8  1  0  0  0  0
  6  9  1  0  0  0  0
  6 10  1  0  0  0  0
  7  8  1  0  0  0  0
  7 11  1  6  0  0  0
  7 28  1  0  0  0  0
  8 12  1  1  0  0  0
  8 29  1  0  0  0  0
  9 30  1  0  0  0  0
  9 31  1  0  0  0  0
  9 32  1  0  0  0  0
 10 33  1  0  0  0  0
 10 34  1  0  0  0  0
 10 35  1  0  0  0  0
 11 13  2  0  0  0  0
 11 36  1  0  0  0  0
 13 15  1  0  0  0  0
 13 18  1  0  0  0  0
 14 16  1  0  0  0  0
 14 17  1  0  0  0  0
 14 37  1  0  0  0  0
 15 38  1  0  0  0  0
 15 39  1  0  0  0  0
 15 40  1  0  0  0  0
 16 20  1  0  0  0  0
 16 41  1  0  0  0  0
 16 42  1  0  0  0  0
 17 19  2  0  0  0  0
 17 21  1  0  0  0  0
 19 20  1  0  0  0  0
 19 22  1  0  0  0  0
 21 43  1  0  0  0  0
 21 44  1  0  0  0  0
 21 45  1  0  0  0  0
 22 23  1  0  0  0  0
 22 46  1  0  0  0  0
 22 47  1  0  0  0  0
 23 25  2  0  0  0  0
 23 48  1  0  0  0  0
 24 49  1  0  0  0  0
 24 50  1  0  0  0  0
 24 51  1  0  0  0  0
 25 26  1  0  0  0  0
 25 52  1  0  0  0  0
 26 27  2  0  0  0  0
 26 53  1  0  0  0  0
 27 54  1  0  0  0  0
 27 55  1  0  0  0  0
M  END
> <PUBCHEM_COMPOUND_CID>
5281555

> <PUBCHEM_COMPOUND_CANONICALIZED>
1

> <PUBCHEM_CACTVS_COMPLEXITY>
751

> <PUBCHEM_CACTVS_HBOND_ACCEPTOR>
5

> <PUBCHEM_CACTVS_HBOND_DONOR>
0

> <PUBCHEM_CACTVS_ROTATABLE_BOND>
9

> <PUBCHEM_CACTVS_SUBSKEYS>
AAADceB4OAAAAAAAAAAAAAAAGAAAAQAAAAAAAAAAAAAAAAAAAAAAGgAAAAAADxSggAICCAAABACIAqDSCAAAAAAgAAAICAEAAEgIBBYAIQACEAAEoAAIoYOIwIAPgAAAAAAAAAAAAAAAAAAAAAAAAAAAAA==

> <PUBCHEM_IUPAC_OPENEYE_NAME>
[(1S)-2-methyl-4-oxo-3-[(2Z)-penta-2,4-dienyl]cyclopent-2-en-1-yl] (1R,3R)-3-[(E)-3-methoxy-2-methyl-3-oxo-prop-1-enyl]-2,2-dimethyl-cyclopropanecarboxylate

> <PUBCHEM_IUPAC_CAS_NAME>
(1R,3R)-3-[(E)-3-methoxy-2-methyl-3-oxoprop-1-enyl]-2,2-dimethyl-1-cyclopropanecarboxylic acid [(1S)-2-methyl-4-oxo-3-[(2Z)-penta-2,4-dienyl]-1-cyclopent-2-enyl] ester

> <PUBCHEM_IUPAC_NAME>
[(1S)-2-methyl-4-oxo-3-[(2Z)-penta-2,4-dienyl]cyclopent-2-en-1-yl] (1R,3R)-3-[(E)-3-methoxy-2-methyl-3-oxoprop-1-enyl]-2,2-dimethylcyclopropane-1-carboxylate

> <PUBCHEM_IUPAC_SYSTEMATIC_NAME>
[(1S)-2-methyl-4-oxidanylidene-3-[(2Z)-penta-2,4-dienyl]cyclopent-2-en-1-yl] (1R,3R)-3-[(E)-3-methoxy-2-methyl-3-oxidanylidene-prop-1-enyl]-2,2-dimethyl-cyclopropane-1-carboxylate

> <PUBCHEM_IUPAC_TRADITIONAL_NAME>
(1R,3R)-3-[(E)-3-keto-3-methoxy-2-methyl-prop-1-enyl]-2,2-dimethyl-cyclopropanecarboxylic acid [(1S)-4-keto-2-methyl-3-[(2Z)-penta-2,4-dienyl]cyclopent-2-en-1-yl] ester

> <PUBCHEM_IUPAC_INCHI>
InChI=1S/C22H28O5/c1-7-8-9-10-15-14(3)18(12-17(15)23)27-21(25)19-16(22(19,4)5)11-13(2)20(24)26-6/h7-9,11,16,18-19H,1,10,12H2,2-6H3/b9-8-,13-11+/t16-,18+,19+/m1/s1

> <PUBCHEM_IUPAC_INCHIKEY>
VJFUPGQZSXIULQ-XIGJTORUSA-N

> <PUBCHEM_XLOGP3>
4.4

> <PUBCHEM_EXACT_MASS>
372.193674

> <PUBCHEM_MOLECULAR_FORMULA>
C22H28O5

> <PUBCHEM_MOLECULAR_WEIGHT>
372.45472

> <PUBCHEM_OPENEYE_CAN_SMILES>
CC1=C(C(=O)CC1OC(=O)C2C(C2(C)C)C=C(C)C(=O)OC)CC=CC=C

> <PUBCHEM_OPENEYE_ISO_SMILES>
CC1=C(C(=O)C[C@@H]1OC(=O)[C@@H]2[C@H](C2(C)C)/C=C(\C)/C(=O)OC)C/C=C\C=C

> <PUBCHEM_CACTVS_TPSA>
69.7

> <PUBCHEM_MONOISOTOPIC_WEIGHT>
372.193674

> <PUBCHEM_TOTAL_CHARGE>
0

> <PUBCHEM_HEAVY_ATOM_COUNT>
27

> <PUBCHEM_ATOM_DEF_STEREO_COUNT>
3

> <PUBCHEM_ATOM_UDEF_STEREO_COUNT>
0

> <PUBCHEM_BOND_DEF_STEREO_COUNT>
2

> <PUBCHEM_BOND_UDEF_STEREO_COUNT>
0

> <PUBCHEM_ISOTOPIC_ATOM_COUNT>
0

> <PUBCHEM_COMPONENT_COUNT>
1

> <PUBCHEM_CACTVS_TAUTO_COUNT>
5

> <PUBCHEM_COORDINATE_TYPE>
1
5
255

> <PUBCHEM_BONDANNOTATIONS>
14  1  6
7  11  6
8  12  5

$$$$

