56928097
  -OEChem-07051213102D

 42 42  0     1  0  0  0  0  0999 V2000
    8.5991    0.5670    0.0000 Br  0  0  0  0  0  0  0  0  0  0  0  0
    2.5369    1.0670    0.0000 O   0  0  0  0  0  0  0  0  0  0  0  0
    6.8671    0.5670    0.0000 C   0  0  0  0  0  0  0  0  0  0  0  0
    6.0010    0.0670    0.0000 C   0  0  2  0  0  0  0  0  0  0  0  0
    7.7331    0.0670    0.0000 C   0  0  1  0  0  0  0  0  0  0  0  0
    5.1350    0.5670    0.0000 C   0  0  0  0  0  0  0  0  0  0  0  0
    6.0010   -0.9330    0.0000 C   0  0  0  0  0  0  0  0  0  0  0  0
    7.7331   -0.9330    0.0000 C   0  0  0  0  0  0  0  0  0  0  0  0
    6.8671   -1.4330    0.0000 C   0  0  0  0  0  0  0  0  0  0  0  0
    7.3671    1.4330    0.0000 C   0  0  0  0  0  0  0  0  0  0  0  0
    6.3671    1.4330    0.0000 C   0  0  0  0  0  0  0  0  0  0  0  0
    4.2690    0.0670    0.0000 C   0  0  0  0  0  0  0  0  0  0  0  0
    3.4030    0.5670    0.0000 C   0  0  3  0  0  0  0  0  0  0  0  0
    5.1350   -1.4330    0.0000 C   0  0  0  0  0  0  0  0  0  0  0  0
    3.9030    1.4330    0.0000 C   0  0  0  0  0  0  0  0  0  0  0  0
    2.9030   -0.2990    0.0000 C   0  0  0  0  0  0  0  0  0  0  0  0
    3.4030   -1.1651    0.0000 C   0  0  0  0  0  0  0  0  0  0  0  0
    5.4641   -0.2430    0.0000 H   0  0  0  0  0  0  0  0  0  0  0  0
    7.7331    0.6870    0.0000 H   0  0  0  0  0  0  0  0  0  0  0  0
    5.5335    1.0419    0.0000 H   0  0  0  0  0  0  0  0  0  0  0  0
    4.7365    1.0419    0.0000 H   0  0  0  0  0  0  0  0  0  0  0  0
    7.9451   -1.5156    0.0000 H   0  0  0  0  0  0  0  0  0  0  0  0
    8.3437   -0.8254    0.0000 H   0  0  0  0  0  0  0  0  0  0  0  0
    6.4685   -1.9080    0.0000 H   0  0  0  0  0  0  0  0  0  0  0  0
    7.2656   -1.9080    0.0000 H   0  0  0  0  0  0  0  0  0  0  0  0
    7.9040    1.1230    0.0000 H   0  0  0  0  0  0  0  0  0  0  0  0
    7.6771    1.9700    0.0000 H   0  0  0  0  0  0  0  0  0  0  0  0
    6.8301    1.7430    0.0000 H   0  0  0  0  0  0  0  0  0  0  0  0
    6.9040    1.7430    0.0000 H   0  0  0  0  0  0  0  0  0  0  0  0
    6.0571    1.9700    0.0000 H   0  0  0  0  0  0  0  0  0  0  0  0
    5.8301    1.1230    0.0000 H   0  0  0  0  0  0  0  0  0  0  0  0
    3.8705   -0.4080    0.0000 H   0  0  0  0  0  0  0  0  0  0  0  0
    4.6675   -0.4080    0.0000 H   0  0  0  0  0  0  0  0  0  0  0  0
    4.5981   -1.1230    0.0000 H   0  0  0  0  0  0  0  0  0  0  0  0
    5.1350   -2.0530    0.0000 H   0  0  0  0  0  0  0  0  0  0  0  0
    4.4399    1.1230    0.0000 H   0  0  0  0  0  0  0  0  0  0  0  0
    4.2130    1.9700    0.0000 H   0  0  0  0  0  0  0  0  0  0  0  0
    3.3660    1.7430    0.0000 H   0  0  0  0  0  0  0  0  0  0  0  0
    2.2830   -0.2990    0.0000 H   0  0  0  0  0  0  0  0  0  0  0  0
    2.0000    0.7570    0.0000 H   0  0  0  0  0  0  0  0  0  0  0  0
    3.0930   -1.7020    0.0000 H   0  0  0  0  0  0  0  0  0  0  0  0
    4.0230   -1.1651    0.0000 H   0  0  0  0  0  0  0  0  0  0  0  0
  5  1  1  6  0  0  0
  2 13  1  0  0  0  0
  2 40  1  0  0  0  0
  3  4  1  0  0  0  0
  3  5  1  0  0  0  0
  3 10  1  0  0  0  0
  3 11  1  0  0  0  0
  4  6  1  1  0  0  0
  4  7  1  0  0  0  0
  4 18  1  0  0  0  0
  5  8  1  0  0  0  0
  5 19  1  0  0  0  0
  6 12  1  0  0  0  0
  6 20  1  0  0  0  0
  6 21  1  0  0  0  0
  7  9  1  0  0  0  0
  7 14  2  0  0  0  0
  8  9  1  0  0  0  0
  8 22  1  0  0  0  0
  8 23  1  0  0  0  0
  9 24  1  0  0  0  0
  9 25  1  0  0  0  0
 10 26  1  0  0  0  0
 10 27  1  0  0  0  0
 10 28  1  0  0  0  0
 11 29  1  0  0  0  0
 11 30  1  0  0  0  0
 11 31  1  0  0  0  0
 12 13  1  0  0  0  0
 12 32  1  0  0  0  0
 12 33  1  0  0  0  0
 13 15  1  0  0  0  0
 13 16  1  0  0  0  0
 14 34  1  0  0  0  0
 14 35  1  0  0  0  0
 15 36  1  0  0  0  0
 15 37  1  0  0  0  0
 15 38  1  0  0  0  0
 16 17  2  0  0  0  0
 16 39  1  0  0  0  0
 17 41  1  0  0  0  0
 17 42  1  0  0  0  0
M  END
> <PUBCHEM_COMPOUND_CID>
56928097

> <PUBCHEM_COMPOUND_CANONICALIZED>
1

> <PUBCHEM_CACTVS_COMPLEXITY>
308

> <PUBCHEM_CACTVS_HBOND_ACCEPTOR>
1

> <PUBCHEM_CACTVS_HBOND_DONOR>
1

> <PUBCHEM_CACTVS_ROTATABLE_BOND>
4

> <PUBCHEM_CACTVS_SUBSKEYS>
AAADceBwIAAAEAAAAAAAAAAAAAAAAAAAAAAwAAAAAAAAAAAAAAAAGgBACAABz0SAgAACAAAAAgCAAiBCAAAAAAAgAAAIAAAAACgABAIAAQAAQAAEgAAAEAGAwPAPgAAAAAAAAAAAAAAgACEAAAAAAAAAAA==

> <PUBCHEM_IUPAC_OPENEYE_NAME>
5-[(1R,3R)-3-bromo-2,2-dimethyl-6-methylene-cyclohexyl]-3-methyl-pent-1-en-3-ol

> <PUBCHEM_IUPAC_CAS_NAME>
5-[(1R,3R)-3-bromo-2,2-dimethyl-6-methylenecyclohexyl]-3-methyl-1-penten-3-ol

> <PUBCHEM_IUPAC_NAME>
5-[(1R,3R)-3-bromo-2,2-dimethyl-6-methylidenecyclohexyl]-3-methylpent-1-en-3-ol

> <PUBCHEM_IUPAC_SYSTEMATIC_NAME>
5-[(1R,3R)-3-bromanyl-2,2-dimethyl-6-methylidene-cyclohexyl]-3-methyl-pent-1-en-3-ol

> <PUBCHEM_IUPAC_TRADITIONAL_NAME>
5-[(1R,3R)-3-bromo-2,2-dimethyl-6-methylene-cyclohexyl]-3-methyl-pent-1-en-3-ol

> <PUBCHEM_IUPAC_INCHI>
InChI=1S/C15H25BrO/c1-6-15(5,17)10-9-12-11(2)7-8-13(16)14(12,3)4/h6,12-13,17H,1-2,7-10H2,3-5H3/t12-,13-,15?/m1/s1

> <PUBCHEM_IUPAC_INCHIKEY>
DDROGZIGNULDJY-HCYNLOQUSA-N

> <PUBCHEM_XLOGP3_AA>
4.1

> <PUBCHEM_EXACT_MASS>
300.108878

> <PUBCHEM_MOLECULAR_FORMULA>
C15H25BrO

> <PUBCHEM_MOLECULAR_WEIGHT>
301.2624

> <PUBCHEM_OPENEYE_CAN_SMILES>
CC1(C(CCC(=C)C1CCC(C)(C=C)O)Br)C

> <PUBCHEM_OPENEYE_ISO_SMILES>
CC1([C@@H](CCC(=C)[C@H]1CCC(C)(C=C)O)Br)C

> <PUBCHEM_CACTVS_TPSA>
20.2

> <PUBCHEM_MONOISOTOPIC_WEIGHT>
300.108878

> <PUBCHEM_TOTAL_CHARGE>
0

> <PUBCHEM_HEAVY_ATOM_COUNT>
17

> <PUBCHEM_ATOM_DEF_STEREO_COUNT>
2

> <PUBCHEM_ATOM_UDEF_STEREO_COUNT>
1

> <PUBCHEM_BOND_DEF_STEREO_COUNT>
0

> <PUBCHEM_BOND_UDEF_STEREO_COUNT>
0

> <PUBCHEM_ISOTOPIC_ATOM_COUNT>
0

> <PUBCHEM_COMPONENT_COUNT>
1

> <PUBCHEM_CACTVS_TAUTO_COUNT>
1

> <PUBCHEM_COORDINATE_TYPE>
1
5
255

> <PUBCHEM_BONDANNOTATIONS>
5  1  6
13  2  3
4  6  5

$$$$

