25201520
  -OEChem-07051213132D

 29 29  0     1  0  0  0  0  0999 V2000
    4.2976   -1.7254    0.0000 O   0  0  0  0  0  0  0  0  0  0  0  0
    2.4217   -1.5140    0.0000 O   0  0  0  0  0  0  0  0  0  0  0  0
    5.9804   -1.9150    0.0000 O   0  0  0  0  0  0  0  0  0  0  0  0
    4.7976    0.4653    0.0000 C   0  0  1  0  0  0  0  0  0  0  0  0
    3.7976    0.4653    0.0000 C   0  0  0  0  0  0  0  0  0  0  0  0
    3.1741   -0.3166    0.0000 C   0  0  0  0  0  0  0  0  0  0  0  0
    3.3966   -1.2915    0.0000 C   0  0  3  0  0  0  0  0  0  0  0  0
    5.4211   -0.3166    0.0000 C   0  0  0  0  0  0  0  0  0  0  0  0
    5.2315    1.3662    0.0000 C   0  0  0  0  0  0  0  0  0  0  0  0
    5.1986   -1.2915    0.0000 C   0  0  0  0  0  0  0  0  0  0  0  0
    2.9628   -2.1925    0.0000 C   0  0  0  0  0  0  0  0  0  0  0  0
    4.6682    2.1925    0.0000 C   0  0  0  0  0  0  0  0  0  0  0  0
    6.2287    1.4410    0.0000 C   0  0  0  0  0  0  0  0  0  0  0  0
    5.4137    0.5347    0.0000 H   0  0  0  0  0  0  0  0  0  0  0  0
    3.9356    1.0697    0.0000 H   0  0  0  0  0  0  0  0  0  0  0  0
    3.2390    0.7343    0.0000 H   0  0  0  0  0  0  0  0  0  0  0  0
    2.7876    0.1682    0.0000 H   0  0  0  0  0  0  0  0  0  0  0  0
    2.6155   -0.5856    0.0000 H   0  0  0  0  0  0  0  0  0  0  0  0
    5.9797   -0.5856    0.0000 H   0  0  0  0  0  0  0  0  0  0  0  0
    5.8077    0.1682    0.0000 H   0  0  0  0  0  0  0  0  0  0  0  0
    2.4042   -1.9235    0.0000 H   0  0  0  0  0  0  0  0  0  0  0  0
    2.6937   -2.7511    0.0000 H   0  0  0  0  0  0  0  0  0  0  0  0
    3.5214   -2.4615    0.0000 H   0  0  0  0  0  0  0  0  0  0  0  0
    5.1804    2.5417    0.0000 H   0  0  0  0  0  0  0  0  0  0  0  0
    4.3189    2.7047    0.0000 H   0  0  0  0  0  0  0  0  0  0  0  0
    4.1559    1.8432    0.0000 H   0  0  0  0  0  0  0  0  0  0  0  0
    2.0000   -1.0595    0.0000 H   0  0  0  0  0  0  0  0  0  0  0  0
    6.5780    0.9287    0.0000 H   0  0  0  0  0  0  0  0  0  0  0  0
    6.4977    1.9996    0.0000 H   0  0  0  0  0  0  0  0  0  0  0  0
  1  7  1  0  0  0  0
  1 10  1  0  0  0  0
  2  7  1  0  0  0  0
  2 27  1  0  0  0  0
  3 10  2  0  0  0  0
  4  5  1  0  0  0  0
  4  8  1  0  0  0  0
  4  9  1  6  0  0  0
  4 14  1  0  0  0  0
  5  6  1  0  0  0  0
  5 15  1  0  0  0  0
  5 16  1  0  0  0  0
  6  7  1  0  0  0  0
  6 17  1  0  0  0  0
  6 18  1  0  0  0  0
  7 11  1  0  0  0  0
  8 10  1  0  0  0  0
  8 19  1  0  0  0  0
  8 20  1  0  0  0  0
  9 12  1  0  0  0  0
  9 13  2  0  0  0  0
 11 21  1  0  0  0  0
 11 22  1  0  0  0  0
 11 23  1  0  0  0  0
 12 24  1  0  0  0  0
 12 25  1  0  0  0  0
 12 26  1  0  0  0  0
 13 28  1  0  0  0  0
 13 29  1  0  0  0  0
M  END
> <PUBCHEM_COMPOUND_CID>
25201520

> <PUBCHEM_COMPOUND_CANONICALIZED>
1

> <PUBCHEM_CACTVS_COMPLEXITY>
234

> <PUBCHEM_CACTVS_HBOND_ACCEPTOR>
3

> <PUBCHEM_CACTVS_HBOND_DONOR>
1

> <PUBCHEM_CACTVS_ROTATABLE_BOND>
1

> <PUBCHEM_CACTVS_SUBSKEYS>
AAADceBwMAAAAAAAAAAAAAAAAAAAAAAAAAAAAAAABIAAAAAAAAAAGgAACAAADQSAgAACCAAABgCIAgDSCAAAAAAgAAAAAAEAAAgQABIAAQACQAAEgAAEAAGIyCCOAAAAAAAAAAAAAAAAAAAAAAAAAAAAAA==

> <PUBCHEM_IUPAC_OPENEYE_NAME>
(4S)-7-hydroxy-4-isopropenyl-7-methyl-oxepan-2-one

> <PUBCHEM_IUPAC_CAS_NAME>
(4S)-7-hydroxy-7-methyl-4-(1-methylethenyl)-2-oxepanone

> <PUBCHEM_IUPAC_NAME>
(4S)-7-hydroxy-7-methyl-4-prop-1-en-2-yloxepan-2-one

> <PUBCHEM_IUPAC_SYSTEMATIC_NAME>
(4S)-7-methyl-7-oxidanyl-4-prop-1-en-2-yl-oxepan-2-one

> <PUBCHEM_IUPAC_TRADITIONAL_NAME>
(4S)-7-hydroxy-4-isopropenyl-7-methyl-oxepan-2-one

> <PUBCHEM_IUPAC_INCHI>
InChI=1S/C10H16O3/c1-7(2)8-4-5-10(3,12)13-9(11)6-8/h8,12H,1,4-6H2,2-3H3/t8-,10?/m0/s1

> <PUBCHEM_IUPAC_INCHIKEY>
ZZVPZXLETLTSEB-PEHGTWAWSA-N

> <PUBCHEM_XLOGP3_AA>
1.7

> <PUBCHEM_EXACT_MASS>
184.109944

> <PUBCHEM_MOLECULAR_FORMULA>
C10H16O3

> <PUBCHEM_MOLECULAR_WEIGHT>
184.23224

> <PUBCHEM_OPENEYE_CAN_SMILES>
CC(=C)C1CCC(OC(=O)C1)(C)O

> <PUBCHEM_OPENEYE_ISO_SMILES>
CC(=C)[C@H]1CCC(OC(=O)C1)(C)O

> <PUBCHEM_CACTVS_TPSA>
46.5

> <PUBCHEM_MONOISOTOPIC_WEIGHT>
184.109944

> <PUBCHEM_TOTAL_CHARGE>
0

> <PUBCHEM_HEAVY_ATOM_COUNT>
13

> <PUBCHEM_ATOM_DEF_STEREO_COUNT>
1

> <PUBCHEM_ATOM_UDEF_STEREO_COUNT>
1

> <PUBCHEM_BOND_DEF_STEREO_COUNT>
0

> <PUBCHEM_BOND_UDEF_STEREO_COUNT>
0

> <PUBCHEM_ISOTOPIC_ATOM_COUNT>
0

> <PUBCHEM_COMPONENT_COUNT>
1

> <PUBCHEM_CACTVS_TAUTO_COUNT>
2

> <PUBCHEM_COORDINATE_TYPE>
1
5
255

> <PUBCHEM_BONDANNOTATIONS>
7  2  3
4  9  6

$$$$

