221088
  -OEChem-07051213072D

 27 28  0     0  0  0  0  0  0999 V2000
    3.7320    0.1970    0.0000 N   0  0  0  0  0  0  0  0  0  0  0  0
    5.5443   -2.6077    0.0000 N   0  0  0  0  0  0  0  0  0  0  0  0
    2.8660   -1.3030    0.0000 N   0  0  0  0  0  0  0  0  0  0  0  0
    3.7320   -2.8030    0.0000 N   0  0  0  0  0  0  0  0  0  0  0  0
    6.1279   -1.8030    0.0000 N   0  0  0  0  0  0  0  0  0  0  0  0
    2.8660    1.6970    0.0000 C   0  0  0  0  0  0  0  0  0  0  0  0
    2.8660    0.6970    0.0000 C   0  0  0  0  0  0  0  0  0  0  0  0
    2.0000    2.1970    0.0000 C   0  0  0  0  0  0  0  0  0  0  0  0
    3.7320   -0.8030    0.0000 C   0  0  0  0  0  0  0  0  0  0  0  0
    4.5981   -1.3030    0.0000 C   0  0  0  0  0  0  0  0  0  0  0  0
    2.0000    3.1970    0.0000 C   0  0  0  0  0  0  0  0  0  0  0  0
    4.5981   -2.3030    0.0000 C   0  0  0  0  0  0  0  0  0  0  0  0
    5.5443   -0.9982    0.0000 C   0  0  0  0  0  0  0  0  0  0  0  0
    2.8660   -2.3030    0.0000 C   0  0  0  0  0  0  0  0  0  0  0  0
    3.4766    1.5894    0.0000 H   0  0  0  0  0  0  0  0  0  0  0  0
    3.0781    2.2796    0.0000 H   0  0  0  0  0  0  0  0  0  0  0  0
    2.2554    0.8047    0.0000 H   0  0  0  0  0  0  0  0  0  0  0  0
    2.6540    0.1144    0.0000 H   0  0  0  0  0  0  0  0  0  0  0  0
    1.3894    2.3047    0.0000 H   0  0  0  0  0  0  0  0  0  0  0  0
    1.7880    1.6144    0.0000 H   0  0  0  0  0  0  0  0  0  0  0  0
    4.2690    0.5070    0.0000 H   0  0  0  0  0  0  0  0  0  0  0  0
    2.6200    3.1970    0.0000 H   0  0  0  0  0  0  0  0  0  0  0  0
    2.0000    3.8170    0.0000 H   0  0  0  0  0  0  0  0  0  0  0  0
    1.3800    3.1970    0.0000 H   0  0  0  0  0  0  0  0  0  0  0  0
    5.7369   -0.4089    0.0000 H   0  0  0  0  0  0  0  0  0  0  0  0
    5.7369   -3.1970    0.0000 H   0  0  0  0  0  0  0  0  0  0  0  0
    2.3291   -2.6130    0.0000 H   0  0  0  0  0  0  0  0  0  0  0  0
  1  7  1  0  0  0  0
  1  9  1  0  0  0  0
  1 21  1  0  0  0  0
  2  5  1  0  0  0  0
  2 12  1  0  0  0  0
  2 26  1  0  0  0  0
  3  9  2  0  0  0  0
  3 14  1  0  0  0  0
  4 12  1  0  0  0  0
  4 14  2  0  0  0  0
  5 13  2  0  0  0  0
  6  7  1  0  0  0  0
  6  8  1  0  0  0  0
  6 15  1  0  0  0  0
  6 16  1  0  0  0  0
  7 17  1  0  0  0  0
  7 18  1  0  0  0  0
  8 11  1  0  0  0  0
  8 19  1  0  0  0  0
  8 20  1  0  0  0  0
  9 10  1  0  0  0  0
 10 12  2  0  0  0  0
 10 13  1  0  0  0  0
 11 22  1  0  0  0  0
 11 23  1  0  0  0  0
 11 24  1  0  0  0  0
 13 25  1  0  0  0  0
 14 27  1  0  0  0  0
M  END
> <PUBCHEM_COMPOUND_CID>
221088

> <PUBCHEM_COMPOUND_CANONICALIZED>
1

> <PUBCHEM_CACTVS_COMPLEXITY>
175

> <PUBCHEM_CACTVS_HBOND_ACCEPTOR>
4

> <PUBCHEM_CACTVS_HBOND_DONOR>
2

> <PUBCHEM_CACTVS_ROTATABLE_BOND>
4

> <PUBCHEM_CACTVS_SUBSKEYS>
AAADccBzgAAAAAAAAAAAAAAAAAAAAWAAAAAsAAAAAAAAAFgB+AAAHAAYAAAADADBGwQvsN7rEACiAhJnZACQhCuRgKAVcaAoRBCACIBAyEAEhAgIGALAACAAAAAAAAAAAAAAAAAAAAAAAAAAAAAAAAAAAA==

> <PUBCHEM_IUPAC_OPENEYE_NAME>
N-butyl-1H-pyrazolo[3,4-d]pyrimidin-4-amine

> <PUBCHEM_IUPAC_CAS_NAME>
N-butyl-1H-pyrazolo[3,4-d]pyrimidin-4-amine

> <PUBCHEM_IUPAC_NAME>
N-butyl-1H-pyrazolo[3,4-d]pyrimidin-4-amine

> <PUBCHEM_IUPAC_SYSTEMATIC_NAME>
N-butyl-1H-pyrazolo[3,4-d]pyrimidin-4-amine

> <PUBCHEM_IUPAC_TRADITIONAL_NAME>
butyl(1H-pyrazolo[3,4-d]pyrimidin-4-yl)amine

> <PUBCHEM_IUPAC_INCHI>
InChI=1S/C9H13N5/c1-2-3-4-10-8-7-5-13-14-9(7)12-6-11-8/h5-6H,2-4H2,1H3,(H2,10,11,12,13,14)

> <PUBCHEM_IUPAC_INCHIKEY>
JWEGHNQHVNZGHA-UHFFFAOYSA-N

> <PUBCHEM_XLOGP3_AA>
1.7

> <PUBCHEM_EXACT_MASS>
191.117095

> <PUBCHEM_MOLECULAR_FORMULA>
C9H13N5

> <PUBCHEM_MOLECULAR_WEIGHT>
191.23302

> <PUBCHEM_OPENEYE_CAN_SMILES>
CCCCNC1=NC=NC2=C1C=NN2

> <PUBCHEM_OPENEYE_ISO_SMILES>
CCCCNC1=NC=NC2=C1C=NN2

> <PUBCHEM_CACTVS_TPSA>
66.5

> <PUBCHEM_MONOISOTOPIC_WEIGHT>
191.117095

> <PUBCHEM_TOTAL_CHARGE>
0

> <PUBCHEM_HEAVY_ATOM_COUNT>
14

> <PUBCHEM_ATOM_DEF_STEREO_COUNT>
0

> <PUBCHEM_ATOM_UDEF_STEREO_COUNT>
0

> <PUBCHEM_BOND_DEF_STEREO_COUNT>
0

> <PUBCHEM_BOND_UDEF_STEREO_COUNT>
0

> <PUBCHEM_ISOTOPIC_ATOM_COUNT>
0

> <PUBCHEM_COMPONENT_COUNT>
1

> <PUBCHEM_CACTVS_TAUTO_COUNT>
13

> <PUBCHEM_COORDINATE_TYPE>
1
5
255

> <PUBCHEM_BONDANNOTATIONS>
10  12  8
10  13  8
2  12  8
2  5  8
3  14  8
3  9  8
4  12  8
4  14  8
5  13  8
9  10  8

$$$$

