   Color/Form
        Water-white liq when below boiling point, or colorless gas
   from [1]HSDB

   Odor

     * Odor of rotten cabbage
     * Sulfidy
     * Powerful, unpleasant odor
     * Disagreeable odor like cabbage
     * Odor of rotten cabbage.
     * Sulfidy, pungent, decayed cabbage.

   from [2]HSDB

   Taste
        Unpleasant cabbage taste
   from [3]HSDB

   Boiling Point
        5.95 deg C @ 760 mm Hg
   from [4]HSDB

   Melting Point
        -123 deg C
   from [5]HSDB

   Critical Temperature and Pressure
        Critical temperature: 196.8 deg C; Critical pressure: 71.4 atm
   from [6]HSDB

   Density/Specific Gravity
        0.9600 @ 25 deg C/4 deg C
   from [7]HSDB

   Dissociation Constants
        pKa = 10.33 @ 25 deg C
   from [8]HSDB

   Heat of Combustion
        -11,054 Btu/lb = -6,141 cal/g = -257.0x10+5 J/kg
   from [9]HSDB

   Heat of Vaporization
        6,331.9 GCAL/GMOL
   from [10]HSDB

   Octanol/Water Partition Coefficient
        log Kow = 0.65 [Abraham MH et al; J Pharm Sci 83:1085-100 (1994)]
   [11]PubMed Abstract
   from [12]HSDB

   Solubilities

     * Soluble in alcohol and ether; slightly soluble in chloroform
     * Soluble in petroleum naptha
     * Sol in water, 15,400 mg/l @ 25 deg C
     * very soluble in alcohol or in ether; soluble in water (23.3 g/L at
       20 deg celsius)

   from [13]HSDB

   Spectral Properties

     * MAX ABSORPTION (CYCLOHEXANE): 228.5 NM (LOG E= 2.15)
     * IR: 17224 (Sadtler Research Laboratories IR Grating Collection)
     * UV: 3-1 (Organic Electronic Spectral Data, Phillips et al, John
       Wiley & Sons, New York)
     * NMR: 8209 (Sadtler Research Laboratories Prism Collection)
     * MASS: 86 (NIST/EPA/MSDC Mass Spectral Database 1990 Version); 266
       (Atlas of Mass Spectral Data, John Wiley and Sons, NY)

   from [14]HSDB

   Surface Tension
        31 dynes/cm = 0.031 N/m at 5 deg C
   from [15]HSDB

   Vapor Density
        1.66 (Air= 1)
   from [16]HSDB

   Vapor Pressure
        1,510 mm Hg @ 25 deg C
   from [17]HSDB

   Other Chemical/Physical Properties

     * Heat capacity (solid at 14.97-146.57 deg K): 0.773-17.47
       cal/deg/mole; (liquid at 154.16 to 271.06 deg K): 21.27 to 21.13
       cal/deg/mole.
     * Ratio of specific heats of vapor (gas): 1.1988
     * Heat of fusion: 5.91 kJ/mol
     * Hydroxyl radical reaction rate constant = 3.29X10-11 cu-cm/molc sec
       @ 25 deg C
     * Azeotrope with isobutane (14.9% methanethiol) bp -13.00 deg C.

   from [18]HSDB

   Computed Properties
   Molecular Weight                  48.10746 [g/mol]
   Molecular Formula                 CH[4]S
   XLogP3-AA                         0.5
   H-Bond Donor                      1
   H-Bond Acceptor                   1
   Rotatable Bond Count              0
   Exact Mass                        48.003371
   MonoIsotopic Mass                 48.003371
   Topological Polar Surface Area    1
   Heavy Atom Count                  2
   Formal Charge                     0
   Complexity                        2
   Isotope Atom Count                0
   Defined Atom Stereocenter Count   0
   Undefined Atom Stereocenter Count 0
   Defined Bond Stereocenter Count   0
   Undefined Bond Stereocenter Count 0
   Covalently-Bonded Unit Count      1
   Effective Rotor Count             0
   Conformer Sampling RMSD           0.4
   CID Conformer Count               [19]1

References

   1. http://toxnet.nlm.nih.gov/cgi-bin/sis/search/r?dbs+hsdb:@term+@rn+@rel+74-93-1
   2. http://toxnet.nlm.nih.gov/cgi-bin/sis/search/r?dbs+hsdb:@term+@rn+@rel+74-93-1
   3. http://toxnet.nlm.nih.gov/cgi-bin/sis/search/r?dbs+hsdb:@term+@rn+@rel+74-93-1
   4. http://toxnet.nlm.nih.gov/cgi-bin/sis/search/r?dbs+hsdb:@term+@rn+@rel+74-93-1
   5. http://toxnet.nlm.nih.gov/cgi-bin/sis/search/r?dbs+hsdb:@term+@rn+@rel+74-93-1
   6. http://toxnet.nlm.nih.gov/cgi-bin/sis/search/r?dbs+hsdb:@term+@rn+@rel+74-93-1
   7. http://toxnet.nlm.nih.gov/cgi-bin/sis/search/r?dbs+hsdb:@term+@rn+@rel+74-93-1
   8. http://toxnet.nlm.nih.gov/cgi-bin/sis/search/r?dbs+hsdb:@term+@rn+@rel+74-93-1
   9. http://toxnet.nlm.nih.gov/cgi-bin/sis/search/r?dbs+hsdb:@term+@rn+@rel+74-93-1
  10. http://toxnet.nlm.nih.gov/cgi-bin/sis/search/r?dbs+hsdb:@term+@rn+@rel+74-93-1
  11. http://www.ncbi.nlm.nih.gov/entrez/query.fcgi?cmd=Retrieve&db=pubmed&dopt=Abstract&list_uids=7983591
  12. http://toxnet.nlm.nih.gov/cgi-bin/sis/search/r?dbs+hsdb:@term+@rn+@rel+74-93-1
  13. http://toxnet.nlm.nih.gov/cgi-bin/sis/search/r?dbs+hsdb:@term+@rn+@rel+74-93-1
  14. http://toxnet.nlm.nih.gov/cgi-bin/sis/search/r?dbs+hsdb:@term+@rn+@rel+74-93-1
  15. http://toxnet.nlm.nih.gov/cgi-bin/sis/search/r?dbs+hsdb:@term+@rn+@rel+74-93-1
  16. http://toxnet.nlm.nih.gov/cgi-bin/sis/search/r?dbs+hsdb:@term+@rn+@rel+74-93-1
  17. http://toxnet.nlm.nih.gov/cgi-bin/sis/search/r?dbs+hsdb:@term+@rn+@rel+74-93-1
  18. http://toxnet.nlm.nih.gov/cgi-bin/sis/search/r?dbs+hsdb:@term+@rn+@rel+74-93-1
  19. http://pubchem.ncbi.nlm.nih.gov/vw3d/vw3d.cgi?cid=878
