14605093
  -OEChem-07051213092D

 73 77  0     1  0  0  0  0  0999 V2000
    6.8796    2.9272    0.0000 O   0  0  0  0  0  0  0  0  0  0  0  0
    9.4776    2.4272    0.0000 O   0  0  0  0  0  0  0  0  0  0  0  0
    9.4776    4.4272    0.0000 O   0  0  0  0  0  0  0  0  0  0  0  0
    7.7456    5.4272    0.0000 O   0  0  0  0  0  0  0  0  0  0  0  0
    5.9972   -1.6074    0.0000 O   0  0  0  0  0  0  0  0  0  0  0  0
    5.1486   -3.1173    0.0000 O   0  0  0  0  0  0  0  0  0  0  0  0
    6.0135    5.4272    0.0000 O   0  0  0  0  0  0  0  0  0  0  0  0
    4.2537   -0.6275    0.0000 O   0  0  0  0  0  0  0  0  0  0  0  0
    2.5333   -1.6475    0.0000 O   0  0  0  0  0  0  0  0  0  0  0  0
    2.5564   -3.6474    0.0000 O   0  0  0  0  0  0  0  0  0  0  0  0
    7.7456   -1.5728    0.0000 O   0  0  0  0  0  0  0  0  0  0  0  0
    9.4940   -1.6074    0.0000 O   0  0  0  0  0  0  0  0  0  0  0  0
    5.1717   -5.1172    0.0000 O   0  0  0  0  0  0  0  0  0  0  0  0
   12.1437    0.9547    0.0000 O   0  0  0  0  0  0  0  0  0  0  0  0
    7.7456    2.4272    0.0000 C   0  0  1  0  0  0  0  0  0  0  0  0
    7.7456    1.4272    0.0000 C   0  0  2  0  0  0  0  0  0  0  0  0
    8.6116    2.9272    0.0000 C   0  0  1  0  0  0  0  0  0  0  0  0
    8.6116    3.9272    0.0000 C   0  0  2  0  0  0  0  0  0  0  0  0
    7.7456    4.4272    0.0000 C   0  0  1  0  0  0  0  0  0  0  0  0
    6.8796    3.9272    0.0000 C   0  0  1  0  0  0  0  0  0  0  0  0
    6.8796    0.9272    0.0000 C   0  0  0  0  0  0  0  0  0  0  0  0
    8.6116    0.9272    0.0000 C   0  0  0  0  0  0  0  0  0  0  0  0
    6.8796   -0.0728    0.0000 C   0  0  0  0  0  0  0  0  0  0  0  0
    8.6116   -0.0728    0.0000 C   0  0  0  0  0  0  0  0  0  0  0  0
    6.0135    4.4272    0.0000 C   0  0  0  0  0  0  0  0  0  0  0  0
    7.7456   -0.5728    0.0000 C   0  0  0  0  0  0  0  0  0  0  0  0
    9.5056    1.4618    0.0000 C   0  0  0  0  0  0  0  0  0  0  0  0
    5.9856    1.4618    0.0000 C   0  0  0  0  0  0  0  0  0  0  0  0
    5.9856   -0.6075    0.0000 C   0  0  0  0  0  0  0  0  0  0  0  0
    5.1370   -2.1174    0.0000 C   0  0  2  0  0  0  0  0  0  0  0  0
    4.2652   -1.6275    0.0000 C   0  0  1  0  0  0  0  0  0  0  0  0
    3.4051   -2.1374    0.0000 C   0  0  2  0  0  0  0  0  0  0  0  0
    3.4166   -3.1374    0.0000 C   0  0  1  0  0  0  0  0  0  0  0  0
    4.2884   -3.6273    0.0000 C   0  0  1  0  0  0  0  0  0  0  0  0
    9.5056   -0.6075    0.0000 C   0  0  0  0  0  0  0  0  0  0  0  0
   10.4116    0.9480    0.0000 C   0  0  0  0  0  0  0  0  0  0  0  0
    5.0796    0.9480    0.0000 C   0  0  0  0  0  0  0  0  0  0  0  0
    5.0796   -0.0936    0.0000 C   0  0  0  0  0  0  0  0  0  0  0  0
   10.4116   -0.0936    0.0000 C   0  0  0  0  0  0  0  0  0  0  0  0
    4.2999   -4.6273    0.0000 C   0  0  0  0  0  0  0  0  0  0  0  0
   11.2757    1.4513    0.0000 C   0  0  0  0  0  0  0  0  0  0  0  0
    7.0095    2.0022    0.0000 H   0  0  0  0  0  0  0  0  0  0  0  0
    8.4817    1.8522    0.0000 H   0  0  0  0  0  0  0  0  0  0  0  0
    8.6116    2.3072    0.0000 H   0  0  0  0  0  0  0  0  0  0  0  0
    8.6116    4.5472    0.0000 H   0  0  0  0  0  0  0  0  0  0  0  0
    8.2825    4.7372    0.0000 H   0  0  0  0  0  0  0  0  0  0  0  0
    6.3426    3.6172    0.0000 H   0  0  0  0  0  0  0  0  0  0  0  0
    5.4030    4.5348    0.0000 H   0  0  0  0  0  0  0  0  0  0  0  0
    5.8015    3.8446    0.0000 H   0  0  0  0  0  0  0  0  0  0  0  0
    9.4984    2.0818    0.0000 H   0  0  0  0  0  0  0  0  0  0  0  0
    5.9928    2.0818    0.0000 H   0  0  0  0  0  0  0  0  0  0  0  0
    5.1298   -1.4974    0.0000 H   0  0  0  0  0  0  0  0  0  0  0  0
    3.7248   -1.3237    0.0000 H   0  0  0  0  0  0  0  0  0  0  0  0
   10.0146    2.7372    0.0000 H   0  0  0  0  0  0  0  0  0  0  0  0
    2.8718   -2.4536    0.0000 H   0  0  0  0  0  0  0  0  0  0  0  0
    2.8761   -2.8336    0.0000 H   0  0  0  0  0  0  0  0  0  0  0  0
    4.8289   -3.9311    0.0000 H   0  0  0  0  0  0  0  0  0  0  0  0
    9.4776    5.0472    0.0000 H   0  0  0  0  0  0  0  0  0  0  0  0
    8.2825    5.7372    0.0000 H   0  0  0  0  0  0  0  0  0  0  0  0
    4.5438    1.2600    0.0000 H   0  0  0  0  0  0  0  0  0  0  0  0
    4.5438   -0.4057    0.0000 H   0  0  0  0  0  0  0  0  0  0  0  0
   10.9474   -0.4057    0.0000 H   0  0  0  0  0  0  0  0  0  0  0  0
    3.6882   -4.5267    0.0000 H   0  0  0  0  0  0  0  0  0  0  0  0
    4.0946   -5.2123    0.0000 H   0  0  0  0  0  0  0  0  0  0  0  0
    5.4766    5.7372    0.0000 H   0  0  0  0  0  0  0  0  0  0  0  0
   11.6724    1.9278    0.0000 H   0  0  0  0  0  0  0  0  0  0  0  0
   10.8754    1.9247    0.0000 H   0  0  0  0  0  0  0  0  0  0  0  0
    3.7132   -0.3238    0.0000 H   0  0  0  0  0  0  0  0  0  0  0  0
    2.0000   -1.9637    0.0000 H   0  0  0  0  0  0  0  0  0  0  0  0
    2.5636   -4.2673    0.0000 H   0  0  0  0  0  0  0  0  0  0  0  0
   10.0273   -1.9236    0.0000 H   0  0  0  0  0  0  0  0  0  0  0  0
    5.1789   -5.7372    0.0000 H   0  0  0  0  0  0  0  0  0  0  0  0
   12.6794    1.2667    0.0000 H   0  0  0  0  0  0  0  0  0  0  0  0
  1 15  1  0  0  0  0
  1 20  1  0  0  0  0
 17  2  1  1  0  0  0
  2 54  1  0  0  0  0
 18  3  1  6  0  0  0
  3 58  1  0  0  0  0
 19  4  1  1  0  0  0
  4 59  1  0  0  0  0
  5 29  1  0  0  0  0
 30  5  1  6  0  0  0
  6 30  1  0  0  0  0
  6 34  1  0  0  0  0
  7 25  1  0  0  0  0
  7 65  1  0  0  0  0
 31  8  1  1  0  0  0
  8 68  1  0  0  0  0
 32  9  1  6  0  0  0
  9 69  1  0  0  0  0
 33 10  1  1  0  0  0
 10 70  1  0  0  0  0
 11 26  2  0  0  0  0
 12 35  1  0  0  0  0
 12 71  1  0  0  0  0
 13 40  1  0  0  0  0
 13 72  1  0  0  0  0
 14 41  1  0  0  0  0
 14 73  1  0  0  0  0
 15 16  1  0  0  0  0
 15 17  1  0  0  0  0
 15 42  1  1  0  0  0
 16 21  1  0  0  0  0
 16 22  1  0  0  0  0
 16 43  1  6  0  0  0
 17 18  1  0  0  0  0
 17 44  1  0  0  0  0
 18 19  1  0  0  0  0
 18 45  1  0  0  0  0
 19 20  1  0  0  0  0
 19 46  1  0  0  0  0
 20 25  1  6  0  0  0
 20 47  1  0  0  0  0
 21 23  2  0  0  0  0
 21 28  1  0  0  0  0
 22 24  2  0  0  0  0
 22 27  1  0  0  0  0
 23 26  1  0  0  0  0
 23 29  1  0  0  0  0
 24 26  1  0  0  0  0
 24 35  1  0  0  0  0
 25 48  1  0  0  0  0
 25 49  1  0  0  0  0
 27 36  2  0  0  0  0
 27 50  1  0  0  0  0
 28 37  2  0  0  0  0
 28 51  1  0  0  0  0
 29 38  2  0  0  0  0
 30 31  1  0  0  0  0
 30 52  1  0  0  0  0
 31 32  1  0  0  0  0
 31 53  1  0  0  0  0
 32 33  1  0  0  0  0
 32 55  1  0  0  0  0
 33 34  1  0  0  0  0
 33 56  1  0  0  0  0
 34 40  1  6  0  0  0
 34 57  1  0  0  0  0
 35 39  2  0  0  0  0
 36 39  1  0  0  0  0
 36 41  1  0  0  0  0
 37 38  1  0  0  0  0
 37 60  1  0  0  0  0
 38 61  1  0  0  0  0
 39 62  1  0  0  0  0
 40 63  1  0  0  0  0
 40 64  1  0  0  0  0
 41 66  1  0  0  0  0
 41 67  1  0  0  0  0
M  END
> <PUBCHEM_COMPOUND_CID>
14605093

> <PUBCHEM_COMPOUND_CANONICALIZED>
1

> <PUBCHEM_CACTVS_COMPLEXITY>
907

> <PUBCHEM_CACTVS_HBOND_ACCEPTOR>
14

> <PUBCHEM_CACTVS_HBOND_DONOR>
10

> <PUBCHEM_CACTVS_ROTATABLE_BOND>
6

> <PUBCHEM_CACTVS_SUBSKEYS>
AAADcfB4PAAAAAAAAAAAAAAAAAAAAAAAAAA0aMECAAAAAADBQAAAGgAACAAADRSwmAMwDoAABgCIAqBSAAACCAAkIAAIiAEGCMgdNjaGNRqieWCl4BEPuQfI7PzOwAADAAAYAACAAAYAADAAAAAAAAAAAA==

> <PUBCHEM_IUPAC_OPENEYE_NAME>
(10R)-1-hydroxy-3-(hydroxymethyl)-10-[(2S,3R,4S,5S,6R)-3,4,5-trihydroxy-6-(hydroxymethyl)tetrahydropyran-2-yl]-8-[(2S,3R,4S,5S,6R)-3,4,5-trihydroxy-6-(hydroxymethyl)tetrahydropyran-2-yl]oxy-10H-anthracen-9-one

> <PUBCHEM_IUPAC_CAS_NAME>
(10R)-1-hydroxy-3-(hydroxymethyl)-10-[(2S,3R,4S,5S,6R)-3,4,5-trihydroxy-6-(hydroxymethyl)-2-oxanyl]-8-[[(2S,3R,4S,5S,6R)-3,4,5-trihydroxy-6-(hydroxymethyl)-2-oxanyl]oxy]-10H-anthracen-9-one

> <PUBCHEM_IUPAC_NAME>
(10R)-1-hydroxy-3-(hydroxymethyl)-10-[(2S,3R,4S,5S,6R)-3,4,5-trihydroxy-6-(hydroxymethyl)oxan-2-yl]-8-[(2S,3R,4S,5S,6R)-3,4,5-trihydroxy-6-(hydroxymethyl)oxan-2-yl]oxy-10H-anthracen-9-one

> <PUBCHEM_IUPAC_SYSTEMATIC_NAME>
(10R)-3-(hydroxymethyl)-10-[(2S,3R,4S,5S,6R)-6-(hydroxymethyl)-3,4,5-tris(oxidanyl)oxan-2-yl]-8-[(2S,3R,4S,5S,6R)-6-(hydroxymethyl)-3,4,5-tris(oxidanyl)oxan-2-yl]oxy-1-oxidanyl-10H-anthracen-9-one

> <PUBCHEM_IUPAC_TRADITIONAL_NAME>
(10R)-1-hydroxy-3-methylol-10-[(2S,3R,4S,5S,6R)-3,4,5-trihydroxy-6-methylol-tetrahydropyran-2-yl]-8-[(2S,3R,4S,5S,6R)-3,4,5-trihydroxy-6-methylol-tetrahydropyran-2-yl]oxy-10H-anthracen-9-one

> <PUBCHEM_IUPAC_INCHI>
InChI=1S/C27H32O14/c28-6-9-4-11-16(26-24(37)22(35)19(32)14(7-29)39-26)10-2-1-3-13(18(10)21(34)17(11)12(31)5-9)40-27-25(38)23(36)20(33)15(8-30)41-27/h1-5,14-16,19-20,22-33,35-38H,6-8H2/t14-,15-,16-,19-,20-,22+,23+,24-,25-,26+,27-/m1/s1

> <PUBCHEM_IUPAC_INCHIKEY>
MNAYRSRTNMVAPR-OPEXUXIQSA-N

> <PUBCHEM_XLOGP3_AA>
-1.9

> <PUBCHEM_EXACT_MASS>
580.179206

> <PUBCHEM_MOLECULAR_FORMULA>
C27H32O14

> <PUBCHEM_MOLECULAR_WEIGHT>
580.53458

> <PUBCHEM_OPENEYE_CAN_SMILES>
C1=CC2=C(C(=C1)OC3C(C(C(C(O3)CO)O)O)O)C(=O)C4=C(C=C(C=C4C2C5C(C(C(C(O5)CO)O)O)O)CO)O

> <PUBCHEM_OPENEYE_ISO_SMILES>
C1=CC2=C(C(=C1)O[C@H]3[C@@H]([C@H]([C@@H]([C@H](O3)CO)O)O)O)C(=O)C4=C(C=C(C=C4[C@@H]2[C@H]5[C@@H]([C@H]([C@@H]([C@H](O5)CO)O)O)O)CO)O

> <PUBCHEM_CACTVS_TPSA>
247

> <PUBCHEM_MONOISOTOPIC_WEIGHT>
580.179206

> <PUBCHEM_TOTAL_CHARGE>
0

> <PUBCHEM_HEAVY_ATOM_COUNT>
41

> <PUBCHEM_ATOM_DEF_STEREO_COUNT>
11

> <PUBCHEM_ATOM_UDEF_STEREO_COUNT>
0

> <PUBCHEM_BOND_DEF_STEREO_COUNT>
0

> <PUBCHEM_BOND_UDEF_STEREO_COUNT>
0

> <PUBCHEM_ISOTOPIC_ATOM_COUNT>
0

> <PUBCHEM_COMPONENT_COUNT>
1

> <PUBCHEM_CACTVS_TAUTO_COUNT>
29

> <PUBCHEM_COORDINATE_TYPE>
1
5
255

> <PUBCHEM_BONDANNOTATIONS>
33  10  5
15  42  5
16  43  6
17  2  5
20  25  6
21  23  8
21  28  8
22  24  8
22  27  8
23  29  8
24  35  8
27  36  8
28  37  8
29  38  8
18  3  6
34  40  6
35  39  8
36  39  8
37  38  8
19  4  5
30  5  6
31  8  5
32  9  6

$$$$

