   Color/Form
        HEXAGONAL LEAFLETS FROM ALC, PRISMS FROM ACETIC ACID
   from [1]HSDB

   Melting Point
        184-186 DEG C
   from [2]HSDB

   Solubilities

     * FREELY SOL IN HOT ALC; MORE SOL IN BENZENE THAN DESOXYCHOLIC ACID;
       INSOL IN PETROLEUM ETHER, GASOLINE, WATER; SLIGHTLY SOL IN GLACIAL
       ACETIC ACID (ABOUT 0.2 G IN 3 ML); MORE SOL IN ETHER THAN CHOLIC OR
       DESOXYCHOLIC ACID; SOL IN ABOUT 10 TIMES ITS WT OF ETHYL ACETATE
     * In water, 0.38 mg/l at 25 deg C.

   from [3]HSDB

   Spectral Properties

     * SPECIFIC OPTICAL ROTATION: +33.7 DEG @ 20 DEG C/D (ABS ETHANOL,
       1.5%); +23.3 DEG @ 19 DEG C/D; +32.1 DEG @ 20 DEG C/D
     * MAX ABSORPTION (CONCENTRATED SULFURIC ACID: 326 NM (LOG E= 3.53)
     * IR: 8448 (Documentation of Molecular Spectroscopy Collection)
     * UV: 2-741 (Organic Electronic Spectral Data, Phillips et al, John
       Wiley & Sons, New York)

   from [4]HSDB

   Other Chemical/Physical Properties

     * CRYSTALS /ETHYL ESTER/
     * CRYSTALS /BENZYL ESTER/
     * CRYSTALS /ACETYLLITHOCHOLIC ACID/
     * FLAT NEEDLES FROM PENTANE /ACETYLLITHOCHOLIC ACID METHYL ESTER/
     * CRYSTALS /ACETYLLITHOCHOLIC ACID ETHYL ESTER/
     * CRYSTALLIZES WITH 1/2 MOL METHANOL /METHYL ESTER/

   from [5]HSDB

   Computed Properties
   Molecular Weight                  376.5726 [g/mol]
   Molecular Formula                 C[24]H[40]O[3]
   XLogP3-AA                         6.3
   H-Bond Donor                      2
   H-Bond Acceptor                   3
   Rotatable Bond Count              4
   Exact Mass                        376.297745
   MonoIsotopic Mass                 376.297745
   Topological Polar Surface Area    57.5
   Heavy Atom Count                  27
   Formal Charge                     0
   Complexity                        574
   Isotope Atom Count                0
   Defined Atom Stereocenter Count   9
   Undefined Atom Stereocenter Count 0
   Defined Bond Stereocenter Count   0
   Undefined Bond Stereocenter Count 0
   Covalently-Bonded Unit Count      1
   Feature 3D Acceptor Count         3
   Feature 3D Donor Count            1
   Feature 3D Anion Count            1
   Feature 3D Hydrophobe Count       1
   Feature 3D Ring Count             4
   Effective Rotor Count             6.2
   Conformer Sampling RMSD           0.8
   CID Conformer Count               [6]6

References

   1. http://toxnet.nlm.nih.gov/cgi-bin/sis/search/r?dbs+hsdb:@term+@rn+@rel+434-13-9
   2. http://toxnet.nlm.nih.gov/cgi-bin/sis/search/r?dbs+hsdb:@term+@rn+@rel+434-13-9
   3. http://toxnet.nlm.nih.gov/cgi-bin/sis/search/r?dbs+hsdb:@term+@rn+@rel+434-13-9
   4. http://toxnet.nlm.nih.gov/cgi-bin/sis/search/r?dbs+hsdb:@term+@rn+@rel+434-13-9
   5. http://toxnet.nlm.nih.gov/cgi-bin/sis/search/r?dbs+hsdb:@term+@rn+@rel+434-13-9
   6. http://pubchem.ncbi.nlm.nih.gov/vw3d/vw3d.cgi?cid=9903
