443783
  -OEChem-07051213032D

 46 49  0     0  0  0  0  0  0999 V2000
    8.1465    1.8821    0.0000 O   0  0  0  0  0  0  0  0  0  0  0  0
   11.8031   -1.1983    0.0000 O   0  0  0  0  0  0  0  0  0  0  0  0
    6.3981    1.8475    0.0000 O   0  0  0  0  0  0  0  0  0  0  0  0
    6.3981   -2.1525    0.0000 O   0  0  0  0  0  0  0  0  0  0  0  0
    4.6497    1.8821    0.0000 O   0  0  0  0  0  0  0  0  0  0  0  0
    2.8680   -1.1766    0.0000 O   0  0  0  0  0  0  0  0  0  0  0  0
   12.6711    0.3967    0.0000 O   0  0  0  0  0  0  0  0  0  0  0  0
   11.7993    1.8934    0.0000 O   0  0  0  0  0  0  0  0  0  0  0  0
    9.0641    0.3683    0.0000 C   0  0  0  0  0  0  0  0  0  0  0  0
    7.2641    0.3475    0.0000 C   0  0  0  0  0  0  0  0  0  0  0  0
    7.2641   -0.6525    0.0000 C   0  0  0  0  0  0  0  0  0  0  0  0
    9.0641   -0.6733    0.0000 C   0  0  0  0  0  0  0  0  0  0  0  0
    8.1580    0.8822    0.0000 C   0  0  0  0  0  0  0  0  0  0  0  0
    9.9953    0.9253    0.0000 C   0  0  0  0  0  0  0  0  0  0  0  0
    8.1580   -1.1871    0.0000 C   0  0  0  0  0  0  0  0  0  0  0  0
    5.5320    0.3475    0.0000 C   0  0  0  0  0  0  0  0  0  0  0  0
    5.5320   -0.6525    0.0000 C   0  0  0  0  0  0  0  0  0  0  0  0
    6.3981    0.8475    0.0000 C   0  0  0  0  0  0  0  0  0  0  0  0
    6.3981   -1.1525    0.0000 C   0  0  0  0  0  0  0  0  0  0  0  0
   10.9391    0.3900    0.0000 C   0  0  0  0  0  0  0  0  0  0  0  0
    9.9953   -1.2302    0.0000 C   0  0  0  0  0  0  0  0  0  0  0  0
   10.9391   -0.6950    0.0000 C   0  0  0  0  0  0  0  0  0  0  0  0
    4.6381    0.8822    0.0000 C   0  0  0  0  0  0  0  0  0  0  0  0
    9.9837    1.9252    0.0000 C   0  0  0  0  0  0  0  0  0  0  0  0
    4.6381   -1.1871    0.0000 C   0  0  0  0  0  0  0  0  0  0  0  0
    3.7320   -0.6733    0.0000 C   0  0  0  0  0  0  0  0  0  0  0  0
    3.7320    0.3683    0.0000 C   0  0  0  0  0  0  0  0  0  0  0  0
   11.8031    0.8934    0.0000 C   0  0  0  0  0  0  0  0  0  0  0  0
   11.7993   -2.1983    0.0000 C   0  0  0  0  0  0  0  0  0  0  0  0
    2.0000   -0.6800    0.0000 C   0  0  0  0  0  0  0  0  0  0  0  0
    8.1509   -1.8071    0.0000 H   0  0  0  0  0  0  0  0  0  0  0  0
    9.9881   -1.8502    0.0000 H   0  0  0  0  0  0  0  0  0  0  0  0
    4.6453   -1.8071    0.0000 H   0  0  0  0  0  0  0  0  0  0  0  0
   10.6037    1.9324    0.0000 H   0  0  0  0  0  0  0  0  0  0  0  0
    9.9765    2.5452    0.0000 H   0  0  0  0  0  0  0  0  0  0  0  0
    9.3637    1.9180    0.0000 H   0  0  0  0  0  0  0  0  0  0  0  0
    3.1963    0.6804    0.0000 H   0  0  0  0  0  0  0  0  0  0  0  0
    8.6798    2.1983    0.0000 H   0  0  0  0  0  0  0  0  0  0  0  0
    4.1164    2.1983    0.0000 H   0  0  0  0  0  0  0  0  0  0  0  0
   11.1793   -2.1959    0.0000 H   0  0  0  0  0  0  0  0  0  0  0  0
   11.7969   -2.8183    0.0000 H   0  0  0  0  0  0  0  0  0  0  0  0
   12.4193   -2.2007    0.0000 H   0  0  0  0  0  0  0  0  0  0  0  0
   13.2068    0.7088    0.0000 H   0  0  0  0  0  0  0  0  0  0  0  0
    2.3079   -0.1418    0.0000 H   0  0  0  0  0  0  0  0  0  0  0  0
    1.4619   -0.3720    0.0000 H   0  0  0  0  0  0  0  0  0  0  0  0
    1.6921   -1.2181    0.0000 H   0  0  0  0  0  0  0  0  0  0  0  0
  1 13  1  0  0  0  0
  1 38  1  0  0  0  0
  2 22  1  0  0  0  0
  2 29  1  0  0  0  0
  3 18  2  0  0  0  0
  4 19  2  0  0  0  0
  5 23  1  0  0  0  0
  5 39  1  0  0  0  0
  6 26  1  0  0  0  0
  6 30  1  0  0  0  0
  7 28  1  0  0  0  0
  7 43  1  0  0  0  0
  8 28  2  0  0  0  0
  9 12  1  0  0  0  0
  9 13  2  0  0  0  0
  9 14  1  0  0  0  0
 10 11  2  0  0  0  0
 10 13  1  0  0  0  0
 10 18  1  0  0  0  0
 11 15  1  0  0  0  0
 11 19  1  0  0  0  0
 12 15  2  0  0  0  0
 12 21  1  0  0  0  0
 14 20  2  0  0  0  0
 14 24  1  0  0  0  0
 15 31  1  0  0  0  0
 16 17  2  0  0  0  0
 16 18  1  0  0  0  0
 16 23  1  0  0  0  0
 17 19  1  0  0  0  0
 17 25  1  0  0  0  0
 20 22  1  0  0  0  0
 20 28  1  0  0  0  0
 21 22  2  0  0  0  0
 21 32  1  0  0  0  0
 23 27  2  0  0  0  0
 24 34  1  0  0  0  0
 24 35  1  0  0  0  0
 24 36  1  0  0  0  0
 25 26  2  0  0  0  0
 25 33  1  0  0  0  0
 26 27  1  0  0  0  0
 27 37  1  0  0  0  0
 29 40  1  0  0  0  0
 29 41  1  0  0  0  0
 29 42  1  0  0  0  0
 30 44  1  0  0  0  0
 30 45  1  0  0  0  0
 30 46  1  0  0  0  0
M  END
> <PUBCHEM_COMPOUND_CID>
443783

> <PUBCHEM_COMPOUND_CANONICALIZED>
1

> <PUBCHEM_CACTVS_COMPLEXITY>
722

> <PUBCHEM_CACTVS_HBOND_ACCEPTOR>
8

> <PUBCHEM_CACTVS_HBOND_DONOR>
3

> <PUBCHEM_CACTVS_ROTATABLE_BOND>
3

> <PUBCHEM_CACTVS_SUBSKEYS>
AAADceB4PAAAAAAAAAAAAAAAAAAAAAAAAAAwYMGAAAAAAADBVAAAGgAACAAADASAmAIyDsAABgCIAqDSCAACCAAkIAAAiAEGCMgMJzaGNRqAcWAl4BUIuYeL7PzO4AADCAAYAADAAAYQADAAAAAAAAAAAA==

> <PUBCHEM_IUPAC_OPENEYE_NAME>
10,12-dihydroxy-3,8-dimethoxy-1-methyl-6,11-dioxo-tetracene-2-carboxylic acid

> <PUBCHEM_IUPAC_CAS_NAME>
10,12-dihydroxy-3,8-dimethoxy-1-methyl-6,11-dioxo-2-tetracenecarboxylic acid

> <PUBCHEM_IUPAC_NAME>
10,12-dihydroxy-3,8-dimethoxy-1-methyl-6,11-dioxotetracene-2-carboxylic acid

> <PUBCHEM_IUPAC_SYSTEMATIC_NAME>
3,8-dimethoxy-1-methyl-10,12-bis(oxidanyl)-6,11-bis(oxidanylidene)tetracene-2-carboxylic acid

> <PUBCHEM_IUPAC_TRADITIONAL_NAME>
10,12-dihydroxy-6,11-diketo-3,8-dimethoxy-1-methyl-tetracene-2-carboxylic acid

> <PUBCHEM_IUPAC_INCHI>
InChI=1S/C22H16O8/c1-8-15-9(5-14(30-3)16(8)22(27)28)4-11-18(20(15)25)21(26)17-12(19(11)24)6-10(29-2)7-13(17)23/h4-7,23,25H,1-3H3,(H,27,28)

> <PUBCHEM_IUPAC_INCHIKEY>
UBGPMJPFKHUCCA-UHFFFAOYSA-N

> <PUBCHEM_XLOGP3_AA>
3.8

> <PUBCHEM_EXACT_MASS>
408.084517

> <PUBCHEM_MOLECULAR_FORMULA>
C22H16O8

> <PUBCHEM_MOLECULAR_WEIGHT>
408.35764

> <PUBCHEM_OPENEYE_CAN_SMILES>
CC1=C(C(=CC2=CC3=C(C(=C12)O)C(=O)C4=C(C=C(C=C4C3=O)OC)O)OC)C(=O)O

> <PUBCHEM_OPENEYE_ISO_SMILES>
CC1=C(C(=CC2=CC3=C(C(=C12)O)C(=O)C4=C(C=C(C=C4C3=O)OC)O)OC)C(=O)O

> <PUBCHEM_CACTVS_TPSA>
130

> <PUBCHEM_MONOISOTOPIC_WEIGHT>
408.084517

> <PUBCHEM_TOTAL_CHARGE>
0

> <PUBCHEM_HEAVY_ATOM_COUNT>
30

> <PUBCHEM_ATOM_DEF_STEREO_COUNT>
0

> <PUBCHEM_ATOM_UDEF_STEREO_COUNT>
0

> <PUBCHEM_BOND_DEF_STEREO_COUNT>
0

> <PUBCHEM_BOND_UDEF_STEREO_COUNT>
0

> <PUBCHEM_ISOTOPIC_ATOM_COUNT>
0

> <PUBCHEM_COMPONENT_COUNT>
1

> <PUBCHEM_CACTVS_TAUTO_COUNT>
134

> <PUBCHEM_COORDINATE_TYPE>
1
5
255

> <PUBCHEM_BONDANNOTATIONS>
10  11  8
10  13  8
11  15  8
12  15  8
12  21  8
14  20  8
16  17  8
16  23  8
17  25  8
20  22  8
21  22  8
23  27  8
25  26  8
26  27  8
9  12  8
9  13  8
9  14  8

$$$$

