130118
  -OEChem-07051212582D

 37 39  0     1  0  0  0  0  0999 V2000
    3.5836   -2.0894    0.0000 O   0  0  0  0  0  0  0  0  0  0  0  0
    8.0479    1.2605    0.0000 O   0  0  0  0  0  0  0  0  0  0  0  0
    2.0000   -1.2846    0.0000 O   0  0  0  0  0  0  0  0  0  0  0  0
    6.2619   -1.7846    0.0000 C   0  0  2  0  0  0  0  0  0  0  0  0
    4.5298   -1.7846    0.0000 C   0  0  1  0  0  0  0  0  0  0  0  0
    5.3958   -2.2846    0.0000 C   0  0  0  0  0  0  0  0  0  0  0  0
    4.5298   -0.7846    0.0000 C   0  0  0  0  0  0  0  0  0  0  0  0
    6.2619   -0.7846    0.0000 C   0  0  0  0  0  0  0  0  0  0  0  0
    5.3958   -0.2846    0.0000 C   0  0  0  0  0  0  0  0  0  0  0  0
    3.5836   -0.4799    0.0000 C   0  0  0  0  0  0  0  0  0  0  0  0
    7.1279   -2.2846    0.0000 C   0  0  0  0  0  0  0  0  0  0  0  0
    7.1719   -0.2778    0.0000 C   0  0  0  0  0  0  0  0  0  0  0  0
    5.3798    0.7569    0.0000 C   0  0  0  0  0  0  0  0  0  0  0  0
    3.0000   -1.2846    0.0000 C   0  0  0  0  0  0  0  0  0  0  0  0
    6.2778    1.2846    0.0000 C   0  0  0  0  0  0  0  0  0  0  0  0
    7.1799    0.7638    0.0000 C   0  0  0  0  0  0  0  0  0  0  0  0
    3.2729    0.4706    0.0000 C   0  0  0  0  0  0  0  0  0  0  0  0
    6.2740    2.2846    0.0000 C   0  0  0  0  0  0  0  0  0  0  0  0
    8.9119    0.7571    0.0000 C   0  0  0  0  0  0  0  0  0  0  0  0
    6.2619   -2.4046    0.0000 H   0  0  0  0  0  0  0  0  0  0  0  0
    4.4399   -2.6298    0.0000 H   0  0  0  0  0  0  0  0  0  0  0  0
    4.9973   -2.7596    0.0000 H   0  0  0  0  0  0  0  0  0  0  0  0
    5.7944   -2.7596    0.0000 H   0  0  0  0  0  0  0  0  0  0  0  0
    6.8179   -2.8216    0.0000 H   0  0  0  0  0  0  0  0  0  0  0  0
    7.6648   -2.5946    0.0000 H   0  0  0  0  0  0  0  0  0  0  0  0
    7.4379   -1.7477    0.0000 H   0  0  0  0  0  0  0  0  0  0  0  0
    7.7052   -0.5940    0.0000 H   0  0  0  0  0  0  0  0  0  0  0  0
    4.8393    1.0607    0.0000 H   0  0  0  0  0  0  0  0  0  0  0  0
    3.8623    0.6632    0.0000 H   0  0  0  0  0  0  0  0  0  0  0  0
    3.0803    1.0600    0.0000 H   0  0  0  0  0  0  0  0  0  0  0  0
    2.6836    0.2780    0.0000 H   0  0  0  0  0  0  0  0  0  0  0  0
    6.8940    2.2870    0.0000 H   0  0  0  0  0  0  0  0  0  0  0  0
    6.2716    2.9046    0.0000 H   0  0  0  0  0  0  0  0  0  0  0  0
    5.6540    2.2822    0.0000 H   0  0  0  0  0  0  0  0  0  0  0  0
    8.5999    0.2214    0.0000 H   0  0  0  0  0  0  0  0  0  0  0  0
    9.4477    0.4451    0.0000 H   0  0  0  0  0  0  0  0  0  0  0  0
    9.2240    1.2929    0.0000 H   0  0  0  0  0  0  0  0  0  0  0  0
  1  5  1  0  0  0  0
  1 14  1  0  0  0  0
  2 16  1  0  0  0  0
  2 19  1  0  0  0  0
  3 14  2  0  0  0  0
  4  6  1  0  0  0  0
  4  8  1  0  0  0  0
  4 11  1  6  0  0  0
  4 20  1  0  0  0  0
  5  6  1  0  0  0  0
  5  7  1  0  0  0  0
  5 21  1  1  0  0  0
  6 22  1  0  0  0  0
  6 23  1  0  0  0  0
  7  9  1  0  0  0  0
  7 10  2  0  0  0  0
  8  9  1  0  0  0  0
  8 12  2  0  0  0  0
  9 13  2  0  0  0  0
 10 14  1  0  0  0  0
 10 17  1  0  0  0  0
 11 24  1  0  0  0  0
 11 25  1  0  0  0  0
 11 26  1  0  0  0  0
 12 16  1  0  0  0  0
 12 27  1  0  0  0  0
 13 15  1  0  0  0  0
 13 28  1  0  0  0  0
 15 16  2  0  0  0  0
 15 18  1  0  0  0  0
 17 29  1  0  0  0  0
 17 30  1  0  0  0  0
 17 31  1  0  0  0  0
 18 32  1  0  0  0  0
 18 33  1  0  0  0  0
 18 34  1  0  0  0  0
 19 35  1  0  0  0  0
 19 36  1  0  0  0  0
 19 37  1  0  0  0  0
M  END
> <PUBCHEM_COMPOUND_CID>
130118

> <PUBCHEM_COMPOUND_CANONICALIZED>
1

> <PUBCHEM_CACTVS_COMPLEXITY>
426

> <PUBCHEM_CACTVS_HBOND_ACCEPTOR>
3

> <PUBCHEM_CACTVS_HBOND_DONOR>
0

> <PUBCHEM_CACTVS_ROTATABLE_BOND>
1

> <PUBCHEM_CACTVS_SUBSKEYS>
AAADceB4MAAAAAAAAAAAAAAAAAAAAQAAAAAwYAAAAAAAAEDBAAAAGgAAAAAADRSgmAIyDoAABACIAiDSCAACCAAgIAAAiAEGCMgMJiKEMRqCMCAkwBEIqQeAwPAO4AADAAAYAADAAAYAADAAAAAAAAAAAA==

> <PUBCHEM_IUPAC_OPENEYE_NAME>
(3aS,5R)-7-methoxy-1,5,8-trimethyl-4,5-dihydro-3aH-benzo[e]benzofuran-2-one

> <PUBCHEM_IUPAC_CAS_NAME>
(3aS,5R)-7-methoxy-1,5,8-trimethyl-4,5-dihydro-3aH-benzo[e]benzofuran-2-one

> <PUBCHEM_IUPAC_NAME>
(3aS,5R)-7-methoxy-1,5,8-trimethyl-4,5-dihydro-3aH-benzo[e][1]benzofuran-2-one

> <PUBCHEM_IUPAC_SYSTEMATIC_NAME>
(3aS,5R)-7-methoxy-1,5,8-trimethyl-4,5-dihydro-3aH-benzo[e][1]benzofuran-2-one

> <PUBCHEM_IUPAC_TRADITIONAL_NAME>
(3aS,5R)-7-methoxy-1,5,8-trimethyl-4,5-dihydro-3aH-benzo[e]benzofuran-2-one

> <PUBCHEM_IUPAC_INCHI>
InChI=1S/C16H18O3/c1-8-6-14-15(10(3)16(17)19-14)12-5-9(2)13(18-4)7-11(8)12/h5,7-8,14H,6H2,1-4H3/t8-,14+/m1/s1

> <PUBCHEM_IUPAC_INCHIKEY>
CEVWVTGBJBHAMO-CLAHSXSESA-N

> <PUBCHEM_XLOGP3_AA>
2.9

> <PUBCHEM_EXACT_MASS>
258.125594

> <PUBCHEM_MOLECULAR_FORMULA>
C16H18O3

> <PUBCHEM_MOLECULAR_WEIGHT>
258.31232

> <PUBCHEM_OPENEYE_CAN_SMILES>
CC1CC2C(=C(C(=O)O2)C)C3=CC(=C(C=C13)OC)C

> <PUBCHEM_OPENEYE_ISO_SMILES>
C[C@@H]1C[C@H]2C(=C(C(=O)O2)C)C3=CC(=C(C=C13)OC)C

> <PUBCHEM_CACTVS_TPSA>
35.5

> <PUBCHEM_MONOISOTOPIC_WEIGHT>
258.125594

> <PUBCHEM_TOTAL_CHARGE>
0

> <PUBCHEM_HEAVY_ATOM_COUNT>
19

> <PUBCHEM_ATOM_DEF_STEREO_COUNT>
2

> <PUBCHEM_ATOM_UDEF_STEREO_COUNT>
0

> <PUBCHEM_BOND_DEF_STEREO_COUNT>
0

> <PUBCHEM_BOND_UDEF_STEREO_COUNT>
0

> <PUBCHEM_ISOTOPIC_ATOM_COUNT>
0

> <PUBCHEM_COMPONENT_COUNT>
1

> <PUBCHEM_CACTVS_TAUTO_COUNT>
4

> <PUBCHEM_COORDINATE_TYPE>
1
5
255

> <PUBCHEM_BONDANNOTATIONS>
12  16  8
13  15  8
15  16  8
4  11  6
5  21  5
8  12  8
8  9  8
9  13  8

$$$$

