   Color/Form

     * White, crystalline powder
     * Colorless crystals
     * Tetragonal crystals

   from [1]HSDB

   Melting Point
        315 deg C
   from [2]HSDB

   Corrosivity
        Relatively non-corrosive to most irons and natural and synthetic
   rubbers
   from [3]HSDB

   Density/Specific Gravity
        2.056
   from [4]HSDB

   pH
        72 g/100 ml water @ 70 deg C gives soln of pH above 9.2
   from [5]HSDB

   Solubilities

     * Very slightly sol in alcohol
     * In water, 6.3X10+5 mg/L @ 10 deg C

   from [6]HSDB

   Other Chemical/Physical Properties

     * Decomposes at 700-900 deg C
     * Decomposes in hot water

   from [7]HSDB

   Computed Properties
   Molecular Weight                  81.1151 [g/mol]
   Molecular Formula                 CKNO
   H-Bond Donor                      0
   H-Bond Acceptor                   2
   Rotatable Bond Count              0
   Exact Mass                        80.961695
   MonoIsotopic Mass                 80.961695
   Topological Polar Surface Area    46.8
   Heavy Atom Count                  4
   Formal Charge                     0
   Complexity                        34.5
   Isotope Atom Count                0
   Defined Atom Stereocenter Count   0
   Undefined Atom Stereocenter Count 0
   Defined Bond Stereocenter Count   0
   Undefined Bond Stereocenter Count 0
   Covalently-Bonded Unit Count      2

References

   1. http://toxnet.nlm.nih.gov/cgi-bin/sis/search/r?dbs+hsdb:@term+@rn+@rel+590-28-3
   2. http://toxnet.nlm.nih.gov/cgi-bin/sis/search/r?dbs+hsdb:@term+@rn+@rel+590-28-3
   3. http://toxnet.nlm.nih.gov/cgi-bin/sis/search/r?dbs+hsdb:@term+@rn+@rel+590-28-3
   4. http://toxnet.nlm.nih.gov/cgi-bin/sis/search/r?dbs+hsdb:@term+@rn+@rel+590-28-3
   5. http://toxnet.nlm.nih.gov/cgi-bin/sis/search/r?dbs+hsdb:@term+@rn+@rel+590-28-3
   6. http://toxnet.nlm.nih.gov/cgi-bin/sis/search/r?dbs+hsdb:@term+@rn+@rel+590-28-3
   7. http://toxnet.nlm.nih.gov/cgi-bin/sis/search/r?dbs+hsdb:@term+@rn+@rel+590-28-3
