5608
  -OEChem-06261200462D

123126  0     1  0  0  0  0  0999 V2000
    6.8671   -3.3626    0.0000 O   0  0  0  0  0  0  0  0  0  0  0  0
    9.4081   -6.9503    0.0000 O   0  0  0  0  0  0  0  0  0  0  0  0
    6.0010   -1.8626    0.0000 O   0  0  0  0  0  0  0  0  0  0  0  0
    9.4651   -3.8626    0.0000 O   0  0  0  0  0  0  0  0  0  0  0  0
    5.1350   -3.3626    0.0000 O   0  0  0  0  0  0  0  0  0  0  0  0
    9.4651   -4.8626    0.0000 O   0  0  0  0  0  0  0  0  0  0  0  0
    9.4651   -1.8626    0.0000 O   0  0  0  0  0  0  0  0  0  0  0  0
    6.8390   -6.6413    0.0000 O   0  0  0  0  0  0  0  0  0  0  0  0
    7.5113   -8.7104    0.0000 O   0  0  0  0  0  0  0  0  0  0  0  0
    2.5369   -1.8626    0.0000 O   0  0  0  0  0  0  0  0  0  0  0  0
    2.5369   -3.8626    0.0000 O   0  0  0  0  0  0  0  0  0  0  0  0
    3.4030   -5.3626    0.0000 O   0  0  0  0  0  0  0  0  0  0  0  0
    9.4651   -0.8625    0.0000 O   0  0  0  0  0  0  0  0  0  0  0  0
    8.2856   -9.7285    0.0000 O   0  0  0  0  0  0  0  0  0  0  0  0
    2.5369   -0.8625    0.0000 O   0  0  0  0  0  0  0  0  0  0  0  0
   11.4503  -11.1375    0.0000 O   0  0  0  0  0  0  0  0  0  0  0  0
    7.7331   -0.8625    0.0000 N   0  0  0  0  0  0  0  0  0  0  0  0
    9.6869   -8.7104    0.0000 N   0  0  0  0  0  0  0  0  0  0  0  0
    4.2690   -0.8625    0.0000 N   0  0  0  0  0  0  0  0  0  0  0  0
    9.8680  -10.4330    0.0000 N   0  0  0  0  0  0  0  0  0  0  0  0
    7.7331   -3.8626    0.0000 C   0  0  3  0  0  0  0  0  0  0  0  0
    8.5991   -6.3626    0.0000 C   0  0  3  0  0  0  0  0  0  0  0  0
    8.5991   -3.3626    0.0000 C   0  0  3  0  0  0  0  0  0  0  0  0
    7.7331   -4.8626    0.0000 C   0  0  0  0  0  0  0  0  0  0  0  0
    8.5991   -5.3626    0.0000 C   0  0  3  0  0  0  0  0  0  0  0  0
    7.7331   -1.8626    0.0000 C   0  0  3  0  0  0  0  0  0  0  0  0
    8.5991   -2.3626    0.0000 C   0  0  3  0  0  0  0  0  0  0  0  0
    6.8671   -2.3626    0.0000 C   0  0  3  0  0  0  0  0  0  0  0  0
    7.7901   -6.9503    0.0000 C   0  0  3  0  0  0  0  0  0  0  0  0
    8.0991   -7.9014    0.0000 C   0  0  3  0  0  0  0  0  0  0  0  0
    9.0991   -7.9014    0.0000 C   0  0  3  0  0  0  0  0  0  0  0  0
    5.1350   -2.3626    0.0000 C   0  0  3  0  0  0  0  0  0  0  0  0
    4.2690   -1.8626    0.0000 C   0  0  3  0  0  0  0  0  0  0  0  0
    3.4030   -2.3626    0.0000 C   0  0  3  0  0  0  0  0  0  0  0  0
    3.4030   -3.3626    0.0000 C   0  0  3  0  0  0  0  0  0  0  0  0
    4.2690   -3.8626    0.0000 C   0  0  3  0  0  0  0  0  0  0  0  0
    4.2690   -4.8626    0.0000 C   0  0  0  0  0  0  0  0  0  0  0  0
    8.5991   -0.3625    0.0000 C   0  0  0  0  0  0  0  0  0  0  0  0
    9.2802   -9.6240    0.0000 C   0  0  0  0  0  0  0  0  0  0  0  0
   10.6814   -8.6059    0.0000 C   0  0  0  0  0  0  0  0  0  0  0  0
    3.4030   -0.3625    0.0000 C   0  0  0  0  0  0  0  0  0  0  0  0
   11.2692   -9.4149    0.0000 C   0  0  0  0  0  0  0  0  0  0  0  0
    8.5991    0.6375    0.0000 C   0  0  0  0  0  0  0  0  0  0  0  0
   10.8625  -10.3284    0.0000 C   0  0  0  0  0  0  0  0  0  0  0  0
    3.4030    0.6375    0.0000 C   0  0  0  0  0  0  0  0  0  0  0  0
    9.4651    1.1374    0.0000 C   0  0  0  0  0  0  0  0  0  0  0  0
    9.4651    2.1374    0.0000 C   0  0  0  0  0  0  0  0  0  0  0  0
   10.3312    2.6374    0.0000 C   0  0  0  0  0  0  0  0  0  0  0  0
   10.3312    3.6374    0.0000 C   0  0  0  0  0  0  0  0  0  0  0  0
   11.1972    4.1374    0.0000 C   0  0  0  0  0  0  0  0  0  0  0  0
   11.1972    5.1374    0.0000 C   0  0  0  0  0  0  0  0  0  0  0  0
   12.0632    5.6374    0.0000 C   0  0  0  0  0  0  0  0  0  0  0  0
   12.0632    6.6374    0.0000 C   0  0  0  0  0  0  0  0  0  0  0  0
   12.9292    7.1374    0.0000 C   0  0  0  0  0  0  0  0  0  0  0  0
   12.9292    8.1374    0.0000 C   0  0  0  0  0  0  0  0  0  0  0  0
   13.7953    8.6374    0.0000 C   0  0  0  0  0  0  0  0  0  0  0  0
   13.7953    9.6374    0.0000 C   0  0  0  0  0  0  0  0  0  0  0  0
   14.6613   10.1375    0.0000 C   0  0  0  0  0  0  0  0  0  0  0  0
   14.6613   11.1375    0.0000 C   0  0  0  0  0  0  0  0  0  0  0  0
    6.9970   -4.2875    0.0000 H   0  0  0  0  0  0  0  0  0  0  0  0
    9.3565   -5.9766    0.0000 H   0  0  0  0  0  0  0  0  0  0  0  0
    8.5991   -4.2125    0.0000 H   0  0  0  0  0  0  0  0  0  0  0  0
    7.1225   -4.7549    0.0000 H   0  0  0  0  0  0  0  0  0  0  0  0
    7.5210   -5.4452    0.0000 H   0  0  0  0  0  0  0  0  0  0  0  0
    8.5991   -4.5126    0.0000 H   0  0  0  0  0  0  0  0  0  0  0  0
    8.4692   -1.4376    0.0000 H   0  0  0  0  0  0  0  0  0  0  0  0
    8.5991   -1.5125    0.0000 H   0  0  0  0  0  0  0  0  0  0  0  0
    6.1309   -2.7875    0.0000 H   0  0  0  0  0  0  0  0  0  0  0  0
    7.6571   -6.1108    0.0000 H   0  0  0  0  0  0  0  0  0  0  0  0
    8.4850   -8.6587    0.0000 H   0  0  0  0  0  0  0  0  0  0  0  0
    8.7132   -8.6587    0.0000 H   0  0  0  0  0  0  0  0  0  0  0  0
    5.1350   -1.5125    0.0000 H   0  0  0  0  0  0  0  0  0  0  0  0
    5.0051   -1.4376    0.0000 H   0  0  0  0  0  0  0  0  0  0  0  0
    3.4030   -1.5125    0.0000 H   0  0  0  0  0  0  0  0  0  0  0  0
    3.4030   -4.2125    0.0000 H   0  0  0  0  0  0  0  0  0  0  0  0
    7.1962   -0.5525    0.0000 H   0  0  0  0  0  0  0  0  0  0  0  0
    5.0051   -4.2875    0.0000 H   0  0  0  0  0  0  0  0  0  0  0  0
   10.0021   -3.5526    0.0000 H   0  0  0  0  0  0  0  0  0  0  0  0
   10.0021   -5.1725    0.0000 H   0  0  0  0  0  0  0  0  0  0  0  0
   10.0021   -2.1726    0.0000 H   0  0  0  0  0  0  0  0  0  0  0  0
    6.3783   -7.0562    0.0000 H   0  0  0  0  0  0  0  0  0  0  0  0
    6.8947   -8.6456    0.0000 H   0  0  0  0  0  0  0  0  0  0  0  0
    4.8059   -0.5525    0.0000 H   0  0  0  0  0  0  0  0  0  0  0  0
    4.4810   -5.4452    0.0000 H   0  0  0  0  0  0  0  0  0  0  0  0
    4.8796   -4.7549    0.0000 H   0  0  0  0  0  0  0  0  0  0  0  0
   10.9336   -8.0395    0.0000 H   0  0  0  0  0  0  0  0  0  0  0  0
    2.0000   -2.1726    0.0000 H   0  0  0  0  0  0  0  0  0  0  0  0
    2.0000   -3.5526    0.0000 H   0  0  0  0  0  0  0  0  0  0  0  0
    9.6158  -10.9994    0.0000 H   0  0  0  0  0  0  0  0  0  0  0  0
   11.8858   -9.3501    0.0000 H   0  0  0  0  0  0  0  0  0  0  0  0
    8.0622    0.9475    0.0000 H   0  0  0  0  0  0  0  0  0  0  0  0
    3.4030   -5.9825    0.0000 H   0  0  0  0  0  0  0  0  0  0  0  0
    4.0230    0.6375    0.0000 H   0  0  0  0  0  0  0  0  0  0  0  0
    3.4030    1.2574    0.0000 H   0  0  0  0  0  0  0  0  0  0  0  0
    2.7830    0.6375    0.0000 H   0  0  0  0  0  0  0  0  0  0  0  0
   10.0021    0.8275    0.0000 H   0  0  0  0  0  0  0  0  0  0  0  0
    9.2531    2.7201    0.0000 H   0  0  0  0  0  0  0  0  0  0  0  0
    8.8546    2.0298    0.0000 H   0  0  0  0  0  0  0  0  0  0  0  0
   10.5432    2.0548    0.0000 H   0  0  0  0  0  0  0  0  0  0  0  0
   10.9417    2.7451    0.0000 H   0  0  0  0  0  0  0  0  0  0  0  0
   10.1191    4.2201    0.0000 H   0  0  0  0  0  0  0  0  0  0  0  0
    9.7206    3.5298    0.0000 H   0  0  0  0  0  0  0  0  0  0  0  0
   11.4092    3.5548    0.0000 H   0  0  0  0  0  0  0  0  0  0  0  0
   11.8078    4.2451    0.0000 H   0  0  0  0  0  0  0  0  0  0  0  0
   10.9851    5.7201    0.0000 H   0  0  0  0  0  0  0  0  0  0  0  0
   10.5866    5.0298    0.0000 H   0  0  0  0  0  0  0  0  0  0  0  0
   12.2753    5.0548    0.0000 H   0  0  0  0  0  0  0  0  0  0  0  0
   12.6738    5.7451    0.0000 H   0  0  0  0  0  0  0  0  0  0  0  0
   11.8512    7.2201    0.0000 H   0  0  0  0  0  0  0  0  0  0  0  0
   11.4526    6.5298    0.0000 H   0  0  0  0  0  0  0  0  0  0  0  0
   13.1413    6.5548    0.0000 H   0  0  0  0  0  0  0  0  0  0  0  0
   13.5398    7.2451    0.0000 H   0  0  0  0  0  0  0  0  0  0  0  0
   12.7172    8.7201    0.0000 H   0  0  0  0  0  0  0  0  0  0  0  0
   12.3187    8.0298    0.0000 H   0  0  0  0  0  0  0  0  0  0  0  0
   14.0073    8.0548    0.0000 H   0  0  0  0  0  0  0  0  0  0  0  0
   14.4058    8.7451    0.0000 H   0  0  0  0  0  0  0  0  0  0  0  0
   13.5832   10.2201    0.0000 H   0  0  0  0  0  0  0  0  0  0  0  0
   13.1847    9.5298    0.0000 H   0  0  0  0  0  0  0  0  0  0  0  0
   14.8733    9.5548    0.0000 H   0  0  0  0  0  0  0  0  0  0  0  0
   15.2719   10.2451    0.0000 H   0  0  0  0  0  0  0  0  0  0  0  0
   15.2813   11.1375    0.0000 H   0  0  0  0  0  0  0  0  0  0  0  0
   14.6613   11.7575    0.0000 H   0  0  0  0  0  0  0  0  0  0  0  0
   14.0413   11.1375    0.0000 H   0  0  0  0  0  0  0  0  0  0  0  0
  1 21  1  0  0  0  0
  1 28  1  0  0  0  0
  2 22  1  0  0  0  0
  2 31  1  0  0  0  0
  3 28  1  0  0  0  0
  3 32  1  0  0  0  0
  4 23  1  0  0  0  0
  4 78  1  0  0  0  0
  5 32  1  0  0  0  0
  5 36  1  0  0  0  0
  6 25  1  0  0  0  0
  6 79  1  0  0  0  0
  7 27  1  0  0  0  0
  7 80  1  0  0  0  0
  8 29  1  0  0  0  0
  8 81  1  0  0  0  0
  9 30  1  0  0  0  0
  9 82  1  0  0  0  0
 10 34  1  0  0  0  0
 10 87  1  0  0  0  0
 11 35  1  0  0  0  0
 11 88  1  0  0  0  0
 12 37  1  0  0  0  0
 12 92  1  0  0  0  0
 13 38  2  0  0  0  0
 14 39  2  0  0  0  0
 15 41  2  0  0  0  0
 16 44  2  0  0  0  0
 17 26  1  0  0  0  0
 17 38  1  0  0  0  0
 17 76  1  0  0  0  0
 18 31  1  0  0  0  0
 18 39  1  0  0  0  0
 18 40  1  0  0  0  0
 19 33  1  0  0  0  0
 19 41  1  0  0  0  0
 19 83  1  0  0  0  0
 20 39  1  0  0  0  0
 20 44  1  0  0  0  0
 20 89  1  0  0  0  0
 21 23  1  0  0  0  0
 21 24  1  0  0  0  0
 21 60  1  0  0  0  0
 22 25  1  0  0  0  0
 22 29  1  0  0  0  0
 22 61  1  0  0  0  0
 23 27  1  0  0  0  0
 23 62  1  0  0  0  0
 24 25  1  0  0  0  0
 24 63  1  0  0  0  0
 24 64  1  0  0  0  0
 25 65  1  0  0  0  0
 26 27  1  0  0  0  0
 26 28  1  0  0  0  0
 26 66  1  0  0  0  0
 27 67  1  0  0  0  0
 28 68  1  0  0  0  0
 29 30  1  0  0  0  0
 29 69  1  0  0  0  0
 30 31  1  0  0  0  0
 30 70  1  0  0  0  0
 31 71  1  0  0  0  0
 32 33  1  0  0  0  0
 32 72  1  0  0  0  0
 33 34  1  0  0  0  0
 33 73  1  0  0  0  0
 34 35  1  0  0  0  0
 34 74  1  0  0  0  0
 35 36  1  0  0  0  0
 35 75  1  0  0  0  0
 36 37  1  0  0  0  0
 36 77  1  0  0  0  0
 37 84  1  0  0  0  0
 37 85  1  0  0  0  0
 38 43  1  0  0  0  0
 40 42  2  0  0  0  0
 40 86  1  0  0  0  0
 41 45  1  0  0  0  0
 42 44  1  0  0  0  0
 42 90  1  0  0  0  0
 43 46  2  3  0  0  0
 43 91  1  0  0  0  0
 45 93  1  0  0  0  0
 45 94  1  0  0  0  0
 45 95  1  0  0  0  0
 46 47  1  0  0  0  0
 46 96  1  0  0  0  0
 47 48  1  0  0  0  0
 47 97  1  0  0  0  0
 47 98  1  0  0  0  0
 48 49  1  0  0  0  0
 48 99  1  0  0  0  0
 48100  1  0  0  0  0
 49 50  1  0  0  0  0
 49101  1  0  0  0  0
 49102  1  0  0  0  0
 50 51  1  0  0  0  0
 50103  1  0  0  0  0
 50104  1  0  0  0  0
 51 52  1  0  0  0  0
 51105  1  0  0  0  0
 51106  1  0  0  0  0
 52 53  1  0  0  0  0
 52107  1  0  0  0  0
 52108  1  0  0  0  0
 53 54  1  0  0  0  0
 53109  1  0  0  0  0
 53110  1  0  0  0  0
 54 55  1  0  0  0  0
 54111  1  0  0  0  0
 54112  1  0  0  0  0
 55 56  1  0  0  0  0
 55113  1  0  0  0  0
 55114  1  0  0  0  0
 56 57  1  0  0  0  0
 56115  1  0  0  0  0
 56116  1  0  0  0  0
 57 58  1  0  0  0  0
 57117  1  0  0  0  0
 57118  1  0  0  0  0
 58 59  1  0  0  0  0
 58119  1  0  0  0  0
 58120  1  0  0  0  0
 59121  1  0  0  0  0
 59122  1  0  0  0  0
 59123  1  0  0  0  0
M  END
> <PUBCHEM_COMPOUND_CID>
5608

> <PUBCHEM_COMPOUND_CANONICALIZED>
1

> <PUBCHEM_CACTVS_COMPLEXITY>
1420

> <PUBCHEM_CACTVS_HBOND_ACCEPTOR>
16

> <PUBCHEM_CACTVS_HBOND_DONOR>
11

> <PUBCHEM_CACTVS_ROTATABLE_BOND>
22

> <PUBCHEM_CACTVS_SUBSKEYS>
AAADcfB/vgAAAAAAAAAAAAAAAAAAASAAAAAkSIAAAAAAAAAAAAAAHgAQCAAACDzxgAcDCAPABgCIACFWUACAAAAgAgAICIAIAEiTEAIAgQAvQAAPlyKfAcPw8K8AAAAAAAAAAAAAAAAAAAAAAAAAAAAAAA==

> <PUBCHEM_IUPAC_OPENEYE_NAME>
N-[2-[3-acetamido-4,5-dihydroxy-6-(hydroxymethyl)tetrahydropyran-2-yl]oxy-6-[2-[5-(2,4-dioxopyrimidin-1-yl)-3,4-dihydroxy-tetrahydrofuran-2-yl]-2-hydroxy-ethyl]-4,5-dihydroxy-tetrahydropyran-3-yl]hexadec-2-enamide

> <PUBCHEM_IUPAC_CAS_NAME>
N-[2-[[3-acetamido-4,5-dihydroxy-6-(hydroxymethyl)-2-oxanyl]oxy]-6-[2-[5-(2,4-dioxo-1-pyrimidinyl)-3,4-dihydroxy-2-oxolanyl]-2-hydroxyethyl]-4,5-dihydroxy-3-oxanyl]-2-hexadecenamide

> <PUBCHEM_IUPAC_NAME>
N-[2-[3-acetamido-4,5-dihydroxy-6-(hydroxymethyl)oxan-2-yl]oxy-6-[2-[5-(2,4-dioxopyrimidin-1-yl)-3,4-dihydroxyoxolan-2-yl]-2-hydroxyethyl]-4,5-dihydroxyoxan-3-yl]hexadec-2-enamide

> <PUBCHEM_IUPAC_SYSTEMATIC_NAME>
N-[2-[3-acetamido-6-(hydroxymethyl)-4,5-bis(oxidanyl)oxan-2-yl]oxy-6-[2-[5-[2,4-bis(oxidanylidene)pyrimidin-1-yl]-3,4-bis(oxidanyl)oxolan-2-yl]-2-oxidanyl-ethyl]-4,5-bis(oxidanyl)oxan-3-yl]hexadec-2-enamide

> <PUBCHEM_IUPAC_TRADITIONAL_NAME>
N-[2-(3-acetamido-4,5-dihydroxy-6-methylol-tetrahydropyran-2-yl)oxy-6-[2-[5-(2,4-diketopyrimidin-1-yl)-3,4-dihydroxy-tetrahydrofuran-2-yl]-2-hydroxy-ethyl]-4,5-dihydroxy-tetrahydropyran-3-yl]hexadec-2-enamide

> <PUBCHEM_IUPAC_INCHI>
InChI=1S/C39H64N4O16/c1-3-4-5-6-7-8-9-10-11-12-13-14-15-16-25(47)41-28-32(52)29(49)23(56-38(28)59-37-27(40-21(2)45)31(51)30(50)24(20-44)57-37)19-22(46)35-33(53)34(54)36(58-35)43-18-17-26(48)42-39(43)55/h15-18,22-24,27-38,44,46,49-54H,3-14,19-20H2,1-2H3,(H,40,45)(H,41,47)(H,42,48,55)

> <PUBCHEM_IUPAC_INCHIKEY>
NKDRZEIENXWUCE-UHFFFAOYSA-N

> <PUBCHEM_XLOGP3_AA>
1.1

> <PUBCHEM_EXACT_MASS>
844.431732

> <PUBCHEM_MOLECULAR_FORMULA>
C39H64N4O16

> <PUBCHEM_MOLECULAR_WEIGHT>
844.94266

> <PUBCHEM_OPENEYE_CAN_SMILES>
CCCCCCCCCCCCCC=CC(=O)NC1C(C(C(OC1OC2C(C(C(C(O2)CO)O)O)NC(=O)C)CC(C3C(C(C(O3)N4C=CC(=O)NC4=O)O)O)O)O)O

> <PUBCHEM_OPENEYE_ISO_SMILES>
CCCCCCCCCCCCCC=CC(=O)NC1C(C(C(OC1OC2C(C(C(C(O2)CO)O)O)NC(=O)C)CC(C3C(C(C(O3)N4C=CC(=O)NC4=O)O)O)O)O)O

> <PUBCHEM_CACTVS_TPSA>
306

> <PUBCHEM_MONOISOTOPIC_WEIGHT>
844.431732

> <PUBCHEM_TOTAL_CHARGE>
0

> <PUBCHEM_HEAVY_ATOM_COUNT>
59

> <PUBCHEM_ATOM_DEF_STEREO_COUNT>
0

> <PUBCHEM_ATOM_UDEF_STEREO_COUNT>
15

> <PUBCHEM_BOND_DEF_STEREO_COUNT>
0

> <PUBCHEM_BOND_UDEF_STEREO_COUNT>
1

> <PUBCHEM_ISOTOPIC_ATOM_COUNT>
0

> <PUBCHEM_COMPONENT_COUNT>
1

> <PUBCHEM_CACTVS_TAUTO_COUNT>
12

> <PUBCHEM_COORDINATE_TYPE>
1
5
255

> <PUBCHEM_BONDANNOTATIONS>
18  39  8
18  40  8
20  39  8
20  44  8
21  60  3
22  61  3
23  62  3
25  65  3
26  66  3
27  67  3
28  68  3
29  69  3
30  70  3
31  71  3
32  72  3
33  73  3
34  74  3
35  75  3
36  77  3
40  42  8
42  44  8
43  46  1

$$$$

