107731
  -OEChem-07051213142D

 29 31  0     0  0  0  0  0  0999 V2000
    2.5836   -1.5894    0.0000 O   0  0  0  0  0  0  0  0  0  0  0  0
    4.3798    1.2569    0.0000 O   0  0  0  0  0  0  0  0  0  0  0  0
    5.2740    2.7846    0.0000 O   0  0  0  0  0  0  0  0  0  0  0  0
    3.5298   -0.2846    0.0000 C   0  0  0  0  0  0  0  0  0  0  0  0
    4.3958    0.2154    0.0000 C   0  0  0  0  0  0  0  0  0  0  0  0
    5.2619   -0.2846    0.0000 C   0  0  0  0  0  0  0  0  0  0  0  0
    3.5298   -1.2846    0.0000 C   0  0  0  0  0  0  0  0  0  0  0  0
    4.3958   -1.7846    0.0000 C   0  0  0  0  0  0  0  0  0  0  0  0
    2.5836    0.0201    0.0000 C   0  0  0  0  0  0  0  0  0  0  0  0
    5.2619   -1.2846    0.0000 C   0  0  0  0  0  0  0  0  0  0  0  0
    6.1719    0.2222    0.0000 C   0  0  0  0  0  0  0  0  0  0  0  0
    2.0000   -0.7846    0.0000 C   0  0  0  0  0  0  0  0  0  0  0  0
    4.3958   -2.7846    0.0000 C   0  0  0  0  0  0  0  0  0  0  0  0
    2.2729    0.9706    0.0000 C   0  0  0  0  0  0  0  0  0  0  0  0
    6.1799    1.2638    0.0000 C   0  0  0  0  0  0  0  0  0  0  0  0
    7.0321   -0.2878    0.0000 C   0  0  0  0  0  0  0  0  0  0  0  0
    5.2778    1.7846    0.0000 C   0  0  0  0  0  0  0  0  0  0  0  0
    5.7988   -1.5946    0.0000 H   0  0  0  0  0  0  0  0  0  0  0  0
    1.3800   -0.7846    0.0000 H   0  0  0  0  0  0  0  0  0  0  0  0
    3.7758   -2.7846    0.0000 H   0  0  0  0  0  0  0  0  0  0  0  0
    4.3958   -3.4046    0.0000 H   0  0  0  0  0  0  0  0  0  0  0  0
    5.0158   -2.7846    0.0000 H   0  0  0  0  0  0  0  0  0  0  0  0
    2.8623    1.1632    0.0000 H   0  0  0  0  0  0  0  0  0  0  0  0
    2.0803    1.5600    0.0000 H   0  0  0  0  0  0  0  0  0  0  0  0
    1.6836    0.7780    0.0000 H   0  0  0  0  0  0  0  0  0  0  0  0
    6.7180    1.5718    0.0000 H   0  0  0  0  0  0  0  0  0  0  0  0
    6.7159   -0.8211    0.0000 H   0  0  0  0  0  0  0  0  0  0  0  0
    7.5654   -0.6040    0.0000 H   0  0  0  0  0  0  0  0  0  0  0  0
    7.3482    0.2456    0.0000 H   0  0  0  0  0  0  0  0  0  0  0  0
  1  7  1  0  0  0  0
  1 12  1  0  0  0  0
  2  5  1  0  0  0  0
  2 17  1  0  0  0  0
  3 17  2  0  0  0  0
  4  5  1  0  0  0  0
  4  7  2  0  0  0  0
  4  9  1  0  0  0  0
  5  6  2  0  0  0  0
  6 10  1  0  0  0  0
  6 11  1  0  0  0  0
  7  8  1  0  0  0  0
  8 10  2  0  0  0  0
  8 13  1  0  0  0  0
  9 12  2  0  0  0  0
  9 14  1  0  0  0  0
 10 18  1  0  0  0  0
 11 15  2  0  0  0  0
 11 16  1  0  0  0  0
 12 19  1  0  0  0  0
 13 20  1  0  0  0  0
 13 21  1  0  0  0  0
 13 22  1  0  0  0  0
 14 23  1  0  0  0  0
 14 24  1  0  0  0  0
 14 25  1  0  0  0  0
 15 17  1  0  0  0  0
 15 26  1  0  0  0  0
 16 27  1  0  0  0  0
 16 28  1  0  0  0  0
 16 29  1  0  0  0  0
M  END
> <PUBCHEM_COMPOUND_CID>
107731

> <PUBCHEM_COMPOUND_CANONICALIZED>
1

> <PUBCHEM_CACTVS_COMPLEXITY>
374

> <PUBCHEM_CACTVS_HBOND_ACCEPTOR>
3

> <PUBCHEM_CACTVS_HBOND_DONOR>
0

> <PUBCHEM_CACTVS_ROTATABLE_BOND>
0

> <PUBCHEM_CACTVS_SUBSKEYS>
AAADccBwMAAAAAAAAAAAAAAAAAAAASAAAAAwQAAAAAAAAEiB8AAAGgAAAAAADASgmAIyDsAABECIAqjSiAACCAAkIAAAiAEECMgMJzaENRqCO2Cl4BUIqYfK7PzOoAACCAAIAABAAAQQABAAAAAAAAAAAA==

> <PUBCHEM_IUPAC_OPENEYE_NAME>
4,6,9-trimethylfuro[2,3-h]chromen-2-one

> <PUBCHEM_IUPAC_CAS_NAME>
4,6,9-trimethyl-2-furo[2,3-h][1]benzopyranone

> <PUBCHEM_IUPAC_NAME>
4,6,9-trimethylfuro[2,3-h]chromen-2-one

> <PUBCHEM_IUPAC_SYSTEMATIC_NAME>
4,6,9-trimethylfuro[2,3-h]chromen-2-one

> <PUBCHEM_IUPAC_TRADITIONAL_NAME>
4,6,9-trimethylfuro[2,3-h]chromen-2-one

> <PUBCHEM_IUPAC_INCHI>
InChI=1S/C14H12O3/c1-7-5-11(15)17-14-10(7)4-8(2)13-12(14)9(3)6-16-13/h4-6H,1-3H3

> <PUBCHEM_IUPAC_INCHIKEY>
ZARUKNQGJBWWBA-UHFFFAOYSA-N

> <PUBCHEM_XLOGP3_AA>
3

> <PUBCHEM_EXACT_MASS>
228.078644

> <PUBCHEM_MOLECULAR_FORMULA>
C14H12O3

> <PUBCHEM_MOLECULAR_WEIGHT>
228.24328

> <PUBCHEM_OPENEYE_CAN_SMILES>
CC1=CC(=O)OC2=C3C(=COC3=C(C=C12)C)C

> <PUBCHEM_OPENEYE_ISO_SMILES>
CC1=CC(=O)OC2=C3C(=COC3=C(C=C12)C)C

> <PUBCHEM_CACTVS_TPSA>
39.4

> <PUBCHEM_MONOISOTOPIC_WEIGHT>
228.078644

> <PUBCHEM_TOTAL_CHARGE>
0

> <PUBCHEM_HEAVY_ATOM_COUNT>
17

> <PUBCHEM_ATOM_DEF_STEREO_COUNT>
0

> <PUBCHEM_ATOM_UDEF_STEREO_COUNT>
0

> <PUBCHEM_BOND_DEF_STEREO_COUNT>
0

> <PUBCHEM_BOND_UDEF_STEREO_COUNT>
0

> <PUBCHEM_ISOTOPIC_ATOM_COUNT>
0

> <PUBCHEM_COMPONENT_COUNT>
1

> <PUBCHEM_CACTVS_TAUTO_COUNT>
1

> <PUBCHEM_COORDINATE_TYPE>
1
5
255

> <PUBCHEM_BONDANNOTATIONS>
1  12  8
1  7  8
11  15  8
15  17  8
2  17  8
2  5  8
4  5  8
4  7  8
4  9  8
5  6  8
6  10  8
6  11  8
7  8  8
8  10  8
9  12  8

$$$$

