   Color/Form

     * CRYSTALS
     * WHITE OR PRACTICALLY WHITE, CRYSTALLINE POWDER

   from [1]HSDB

   Odor
        SLIGHTLY SHARP, FRUITY ODOR
   from [2]HSDB

   Taste
        SLIGHT BITTER TASTE
   from [3]HSDB

   Melting Point
        106-107 DEG C
   from [4]HSDB

   Solubilities
        FREELY SOL IN CHLOROFORM; SOL IN METHANOL & ACETONE; SPARINGLY SOL
   IN ALC & BENZENE; SLIGHTLY SOL IN WATER; VERY SLIGHTLY SOL IN ETHER
   from [5]HSDB

   Computed Properties
   Molecular Weight                  356.05424 [g/mol]
   Molecular Formula                 C[10]H[16]Br[2]N[2]O[2]
   XLogP3                            0.4
   H-Bond Donor                      0
   H-Bond Acceptor                   2
   Rotatable Bond Count              4
   Exact Mass                        355.955805
   MonoIsotopic Mass                 353.957852
   Topological Polar Surface Area    40.6
   Heavy Atom Count                  16
   Formal Charge                     0
   Complexity                        227
   Isotope Atom Count                0
   Defined Atom Stereocenter Count   0
   Undefined Atom Stereocenter Count 0
   Defined Bond Stereocenter Count   0
   Undefined Bond Stereocenter Count 0
   Covalently-Bonded Unit Count      1
   Feature 3D Acceptor Count         2
   Feature 3D Hydrophobe Count       2
   Feature 3D Ring Count             1
   Effective Rotor Count             7.2
   Conformer Sampling RMSD           0.8
   CID Conformer Count               [6]79

References

   1. http://toxnet.nlm.nih.gov/cgi-bin/sis/search/r?dbs+hsdb:@term+@rn+@rel+54-91-1
   2. http://toxnet.nlm.nih.gov/cgi-bin/sis/search/r?dbs+hsdb:@term+@rn+@rel+54-91-1
   3. http://toxnet.nlm.nih.gov/cgi-bin/sis/search/r?dbs+hsdb:@term+@rn+@rel+54-91-1
   4. http://toxnet.nlm.nih.gov/cgi-bin/sis/search/r?dbs+hsdb:@term+@rn+@rel+54-91-1
   5. http://toxnet.nlm.nih.gov/cgi-bin/sis/search/r?dbs+hsdb:@term+@rn+@rel+54-91-1
   6. http://pubchem.ncbi.nlm.nih.gov/vw3d/vw3d.cgi?cid=4842
