442519
  -OEChem-07051212582D

 38 39  0     1  0  0  0  0  0999 V2000
    4.6144   -2.1092    0.0000 O   0  0  0  0  0  0  0  0  0  0  0  0
    2.8660    0.9254    0.0000 C   0  0  1  0  0  0  0  0  0  0  0  0
    2.0000    0.4254    0.0000 C   0  0  0  0  0  0  0  0  0  0  0  0
    2.8660   -1.0746    0.0000 C   0  0  1  0  0  0  0  0  0  0  0  0
    2.0000   -0.5746    0.0000 C   0  0  0  0  0  0  0  0  0  0  0  0
    3.7320    0.4254    0.0000 C   0  0  0  0  0  0  0  0  0  0  0  0
    2.8660    1.9254    0.0000 C   0  0  0  0  0  0  0  0  0  0  0  0
    3.7320   -0.5746    0.0000 C   0  0  0  0  0  0  0  0  0  0  0  0
    2.8660   -2.0746    0.0000 C   0  0  0  0  0  0  0  0  0  0  0  0
    4.6260    0.9601    0.0000 C   0  0  0  0  0  0  0  0  0  0  0  0
    4.6260   -1.1093    0.0000 C   0  0  0  0  0  0  0  0  0  0  0  0
    2.0000    2.4254    0.0000 C   0  0  0  0  0  0  0  0  0  0  0  0
    3.7320    2.4254    0.0000 C   0  0  0  0  0  0  0  0  0  0  0  0
    5.5321    0.4462    0.0000 C   0  0  0  0  0  0  0  0  0  0  0  0
    5.5321   -0.5954    0.0000 C   0  0  0  0  0  0  0  0  0  0  0  0
    6.3961    0.9495    0.0000 C   0  0  0  0  0  0  0  0  0  0  0  0
    2.3291    1.2354    0.0000 H   0  0  0  0  0  0  0  0  0  0  0  0
    1.7880    1.0080    0.0000 H   0  0  0  0  0  0  0  0  0  0  0  0
    1.3894    0.3177    0.0000 H   0  0  0  0  0  0  0  0  0  0  0  0
    3.4030   -1.3846    0.0000 H   0  0  0  0  0  0  0  0  0  0  0  0
    1.3894   -0.4669    0.0000 H   0  0  0  0  0  0  0  0  0  0  0  0
    1.7880   -1.1572    0.0000 H   0  0  0  0  0  0  0  0  0  0  0  0
    2.8660    2.5454    0.0000 H   0  0  0  0  0  0  0  0  0  0  0  0
    2.2460   -2.0746    0.0000 H   0  0  0  0  0  0  0  0  0  0  0  0
    2.8660   -2.6946    0.0000 H   0  0  0  0  0  0  0  0  0  0  0  0
    3.4860   -2.0746    0.0000 H   0  0  0  0  0  0  0  0  0  0  0  0
    4.6188    1.5800    0.0000 H   0  0  0  0  0  0  0  0  0  0  0  0
    2.3100    2.9623    0.0000 H   0  0  0  0  0  0  0  0  0  0  0  0
    1.4631    2.7354    0.0000 H   0  0  0  0  0  0  0  0  0  0  0  0
    1.6900    1.8885    0.0000 H   0  0  0  0  0  0  0  0  0  0  0  0
    4.0420    1.8885    0.0000 H   0  0  0  0  0  0  0  0  0  0  0  0
    4.2690    2.7354    0.0000 H   0  0  0  0  0  0  0  0  0  0  0  0
    3.4220    2.9623    0.0000 H   0  0  0  0  0  0  0  0  0  0  0  0
    6.0678   -0.9075    0.0000 H   0  0  0  0  0  0  0  0  0  0  0  0
    6.7082    0.4138    0.0000 H   0  0  0  0  0  0  0  0  0  0  0  0
    6.9319    1.2616    0.0000 H   0  0  0  0  0  0  0  0  0  0  0  0
    6.0841    1.4853    0.0000 H   0  0  0  0  0  0  0  0  0  0  0  0
    5.1477   -2.4254    0.0000 H   0  0  0  0  0  0  0  0  0  0  0  0
  1 11  1  0  0  0  0
  1 38  1  0  0  0  0
  2  3  1  0  0  0  0
  2  6  1  0  0  0  0
  2  7  1  6  0  0  0
  2 17  1  0  0  0  0
  3  5  1  0  0  0  0
  3 18  1  0  0  0  0
  3 19  1  0  0  0  0
  4  5  1  0  0  0  0
  4  8  1  0  0  0  0
  4  9  1  1  0  0  0
  4 20  1  0  0  0  0
  5 21  1  0  0  0  0
  5 22  1  0  0  0  0
  6  8  1  0  0  0  0
  6 10  2  0  0  0  0
  7 12  1  0  0  0  0
  7 13  1  0  0  0  0
  7 23  1  0  0  0  0
  8 11  2  0  0  0  0
  9 24  1  0  0  0  0
  9 25  1  0  0  0  0
  9 26  1  0  0  0  0
 10 14  1  0  0  0  0
 10 27  1  0  0  0  0
 11 15  1  0  0  0  0
 12 28  1  0  0  0  0
 12 29  1  0  0  0  0
 12 30  1  0  0  0  0
 13 31  1  0  0  0  0
 13 32  1  0  0  0  0
 13 33  1  0  0  0  0
 14 15  2  0  0  0  0
 14 16  1  0  0  0  0
 15 34  1  0  0  0  0
 16 35  1  0  0  0  0
 16 36  1  0  0  0  0
 16 37  1  0  0  0  0
M  END
> <PUBCHEM_COMPOUND_CID>
442519

> <PUBCHEM_COMPOUND_CANONICALIZED>
1

> <PUBCHEM_CACTVS_COMPLEXITY>
236

> <PUBCHEM_CACTVS_HBOND_ACCEPTOR>
1

> <PUBCHEM_CACTVS_HBOND_DONOR>
1

> <PUBCHEM_CACTVS_ROTATABLE_BOND>
1

> <PUBCHEM_CACTVS_SUBSKEYS>
AAADceBwIAAAAAAAAAAAAAAAAAAAAAAAAAAwYAAAAAAAAADBAAAAGgAACAAADQSAmAAyBoAAAgCAAiBCAAACAAAgIAAAiAAGCIgIJiKCERKAcAAkwBEImAeAwPAOwAADAAAYAACAAAYAADAAAAAAAAAAAA==

> <PUBCHEM_IUPAC_OPENEYE_NAME>
(1R,4S)-1-isopropyl-4,7-dimethyl-tetralin-5-ol

> <PUBCHEM_IUPAC_CAS_NAME>
(5R,8S)-3,8-dimethyl-5-propan-2-yl-5,6,7,8-tetrahydronaphthalen-1-ol

> <PUBCHEM_IUPAC_NAME>
(5R,8S)-3,8-dimethyl-5-propan-2-yl-5,6,7,8-tetrahydronaphthalen-1-ol

> <PUBCHEM_IUPAC_SYSTEMATIC_NAME>
(5R,8S)-3,8-dimethyl-5-propan-2-yl-5,6,7,8-tetrahydronaphthalen-1-ol

> <PUBCHEM_IUPAC_TRADITIONAL_NAME>
(1R,4S)-1-isopropyl-4,7-dimethyl-tetralin-5-ol

> <PUBCHEM_IUPAC_INCHI>
InChI=1S/C15H22O/c1-9(2)12-6-5-11(4)15-13(12)7-10(3)8-14(15)16/h7-9,11-12,16H,5-6H2,1-4H3/t11-,12+/m0/s1

> <PUBCHEM_IUPAC_INCHIKEY>
FDMKIGKOMRSCAW-NWDGAFQWSA-N

> <PUBCHEM_XLOGP3_AA>
4.8

> <PUBCHEM_EXACT_MASS>
218.167065

> <PUBCHEM_MOLECULAR_FORMULA>
C15H22O

> <PUBCHEM_MOLECULAR_WEIGHT>
218.33458

> <PUBCHEM_OPENEYE_CAN_SMILES>
CC1CCC(C2=CC(=CC(=C12)O)C)C(C)C

> <PUBCHEM_OPENEYE_ISO_SMILES>
C[C@H]1CC[C@@H](C2=CC(=CC(=C12)O)C)C(C)C

> <PUBCHEM_CACTVS_TPSA>
20.2

> <PUBCHEM_MONOISOTOPIC_WEIGHT>
218.167065

> <PUBCHEM_TOTAL_CHARGE>
0

> <PUBCHEM_HEAVY_ATOM_COUNT>
16

> <PUBCHEM_ATOM_DEF_STEREO_COUNT>
2

> <PUBCHEM_ATOM_UDEF_STEREO_COUNT>
0

> <PUBCHEM_BOND_DEF_STEREO_COUNT>
0

> <PUBCHEM_BOND_UDEF_STEREO_COUNT>
0

> <PUBCHEM_ISOTOPIC_ATOM_COUNT>
0

> <PUBCHEM_COMPONENT_COUNT>
1

> <PUBCHEM_CACTVS_TAUTO_COUNT>
17

> <PUBCHEM_COORDINATE_TYPE>
1
5
255

> <PUBCHEM_BONDANNOTATIONS>
10  14  8
11  15  8
14  15  8
2  7  6
4  9  5
6  10  8
6  8  8
8  11  8

$$$$

