440214
  -OEChem-07051212492D

 24 23  0     1  0  0  0  0  0999 V2000
    3.7320   -0.4720    0.0000 P   0  0  3  0  0  0  0  0  0  0  0  0
    4.5981    0.0280    0.0000 O   0  0  0  0  0  0  0  0  0  0  0  0
    2.8660   -0.9720    0.0000 O   0  0  0  0  0  0  0  0  0  0  0  0
    3.2320    0.3940    0.0000 O   0  0  0  0  0  0  0  0  0  0  0  0
    4.2320   -1.3380    0.0000 O   0  0  0  0  0  0  0  0  0  0  0  0
    7.1962   -0.4720    0.0000 N   0  0  0  0  0  0  0  0  0  0  0  0
    8.9282   -0.4720    0.0000 N   0  0  0  0  0  0  0  0  0  0  0  0
    8.0622    1.0280    0.0000 N   0  0  0  0  0  0  0  0  0  0  0  0
    5.4641   -0.4720    0.0000 C   0  0  0  0  0  0  0  0  0  0  0  0
    6.3301    0.0280    0.0000 C   0  0  0  0  0  0  0  0  0  0  0  0
    8.0622    0.0280    0.0000 C   0  0  0  0  0  0  0  0  0  0  0  0
    2.0000   -0.4720    0.0000 C   0  0  0  0  0  0  0  0  0  0  0  0
    5.0656   -0.9469    0.0000 H   0  0  0  0  0  0  0  0  0  0  0  0
    5.8626   -0.9469    0.0000 H   0  0  0  0  0  0  0  0  0  0  0  0
    6.7287    0.5030    0.0000 H   0  0  0  0  0  0  0  0  0  0  0  0
    5.9316    0.5030    0.0000 H   0  0  0  0  0  0  0  0  0  0  0  0
    2.3100    0.0649    0.0000 H   0  0  0  0  0  0  0  0  0  0  0  0
    1.4631   -0.1620    0.0000 H   0  0  0  0  0  0  0  0  0  0  0  0
    1.6900   -1.0089    0.0000 H   0  0  0  0  0  0  0  0  0  0  0  0
    3.5420    0.9310    0.0000 H   0  0  0  0  0  0  0  0  0  0  0  0
    9.4651   -0.1620    0.0000 H   0  0  0  0  0  0  0  0  0  0  0  0
    8.9282   -1.0920    0.0000 H   0  0  0  0  0  0  0  0  0  0  0  0
    8.5991    1.3380    0.0000 H   0  0  0  0  0  0  0  0  0  0  0  0
    7.5252    1.3380    0.0000 H   0  0  0  0  0  0  0  0  0  0  0  0
  1  2  1  0  0  0  0
  1  3  1  0  0  0  0
  1  4  1  0  0  0  0
  1  5  2  0  0  0  0
  2  9  1  0  0  0  0
  3 12  1  0  0  0  0
  4 20  1  0  0  0  0
  6 10  1  0  0  0  0
  6 11  2  0  0  0  0
  7 11  1  0  0  0  0
  7 21  1  0  0  0  0
  7 22  1  0  0  0  0
  8 11  1  0  0  0  0
  8 23  1  0  0  0  0
  8 24  1  0  0  0  0
  9 10  1  0  0  0  0
  9 13  1  0  0  0  0
  9 14  1  0  0  0  0
 10 15  1  0  0  0  0
 10 16  1  0  0  0  0
 12 17  1  0  0  0  0
 12 18  1  0  0  0  0
 12 19  1  0  0  0  0
M  END
> <PUBCHEM_COMPOUND_CID>
440214

> <PUBCHEM_COMPOUND_CANONICALIZED>
1

> <PUBCHEM_CACTVS_COMPLEXITY>
203

> <PUBCHEM_CACTVS_HBOND_ACCEPTOR>
5

> <PUBCHEM_CACTVS_HBOND_DONOR>
3

> <PUBCHEM_CACTVS_ROTATABLE_BOND>
5

> <PUBCHEM_CACTVS_SUBSKEYS>
AAADccBjOAIAAAAAAAAAAAAAAAAAAAAAAAAAAAAAAAAAAAAAAAAAHgAQCCAAAADhgAYDAAJAARAgQAAAJIAAAAEAAAAAAAAAAAACAAAAAAAAAAAAAAAAAAAAAAAAAAAAAAAAAAAAAAAAAAAAAAAAAAAAAA==

> <PUBCHEM_IUPAC_OPENEYE_NAME>
2-guanidinoethyl methyl hydrogen phosphate

> <PUBCHEM_IUPAC_CAS_NAME>
2-(diaminomethylideneamino)ethyl methyl hydrogen phosphate

> <PUBCHEM_IUPAC_NAME>
2-(diaminomethylideneamino)ethyl methyl hydrogen phosphate

> <PUBCHEM_IUPAC_SYSTEMATIC_NAME>
2-[bis(azanyl)methylideneamino]ethyl methyl hydrogen phosphate

> <PUBCHEM_IUPAC_TRADITIONAL_NAME>
2-guanidinoethyl methyl hydrogen phosphate

> <PUBCHEM_IUPAC_INCHI>
InChI=1S/C4H12N3O4P/c1-10-12(8,9)11-3-2-7-4(5)6/h2-3H2,1H3,(H,8,9)(H4,5,6,7)

> <PUBCHEM_IUPAC_INCHIKEY>
PTALSLHNZQRENZ-UHFFFAOYSA-N

> <PUBCHEM_XLOGP3_AA>
-2.6

> <PUBCHEM_EXACT_MASS>
197.056543

> <PUBCHEM_MOLECULAR_FORMULA>
C4H12N3O4P

> <PUBCHEM_MOLECULAR_WEIGHT>
197.129542

> <PUBCHEM_OPENEYE_CAN_SMILES>
COP(=O)(O)OCCN=C(N)N

> <PUBCHEM_OPENEYE_ISO_SMILES>
COP(=O)(O)OCCN=C(N)N

> <PUBCHEM_CACTVS_TPSA>
120

> <PUBCHEM_MONOISOTOPIC_WEIGHT>
197.056543

> <PUBCHEM_TOTAL_CHARGE>
0

> <PUBCHEM_HEAVY_ATOM_COUNT>
12

> <PUBCHEM_ATOM_DEF_STEREO_COUNT>
0

> <PUBCHEM_ATOM_UDEF_STEREO_COUNT>
0

> <PUBCHEM_BOND_DEF_STEREO_COUNT>
0

> <PUBCHEM_BOND_UDEF_STEREO_COUNT>
0

> <PUBCHEM_ISOTOPIC_ATOM_COUNT>
0

> <PUBCHEM_COMPONENT_COUNT>
1

> <PUBCHEM_CACTVS_TAUTO_COUNT>
2

> <PUBCHEM_COORDINATE_TYPE>
1
5
255

$$$$

