   Color/Form

     * Yellow rhombic crystals
     * Yellow to red solid

   from [1]HSDB

   Odor
        Slight odor
   from [2]HSDB

   Boiling Point
        285 deg C
   from [3]HSDB

   Melting Point
        66 deg C
   from [4]HSDB

   Density/Specific Gravity
        1.2833 @ 111 deg C
   from [5]HSDB

   Dissociation Constants
        pKa= 1.80
   from [6]HSDB

   Heat of Combustion
        -8099 Btu/lb = -4499 cal/g = -188.3x10(+5) J/kg
   from [7]HSDB

   Octanol/Water Partition Coefficient
        log Kow= 2.10
   from [8]HSDB

   Solubilities
        Sol in ethanol and chloroform
   from [9]HSDB

   Spectral Properties

     * MAX ABSORPTION (5% ALCOHOL): 241 NM (LOG E = 3.95); SADTLER
       REFERENCE NUMBER: 17378 (IR, PRISM)
     * Index of Refraction: 1.479
     * IR: 676 (Sadtler Research Laboratories IR Grating Collection)
     * UV: 5514 (Sadtler Research Laboratories Spectral Collection)
     * NMR: 895 (Sadtler Research Laboratories Spectral Collection)
     * MASS: 144 (Aldermaston, Eight Peak Index of Mass Spectra, UK)

   from [10]HSDB

   Vapor Density
        6.28 (Air=1)
   from [11]HSDB

   Vapor Pressure
        5.67X10-4 mm Hg at 25 deg C
   from [12]HSDB

   Computed Properties
   Molecular Weight                  182.13354 [g/mol]
   Molecular Formula                 C[7]H[6]N[2]O[4]
   XLogP3                            2.1
   H-Bond Donor                      0
   H-Bond Acceptor                   4
   Rotatable Bond Count              0
   Exact Mass                        182.032757
   MonoIsotopic Mass                 182.032757
   Topological Polar Surface Area    91.6
   Heavy Atom Count                  13
   Formal Charge                     0
   Complexity                        198
   Isotope Atom Count                0
   Defined Atom Stereocenter Count   0
   Undefined Atom Stereocenter Count 0
   Defined Bond Stereocenter Count   0
   Undefined Bond Stereocenter Count 0
   Covalently-Bonded Unit Count      1
   Feature 3D Acceptor Count         4
   Feature 3D Anion Count            2
   Feature 3D Ring Count             1
   Effective Rotor Count             2
   Conformer Sampling RMSD           0.6
   CID Conformer Count               [13]1

References

   1. http://toxnet.nlm.nih.gov/cgi-bin/sis/search/r?dbs+hsdb:@term+@rn+@rel+606-20-2
   2. http://toxnet.nlm.nih.gov/cgi-bin/sis/search/r?dbs+hsdb:@term+@rn+@rel+606-20-2
   3. http://toxnet.nlm.nih.gov/cgi-bin/sis/search/r?dbs+hsdb:@term+@rn+@rel+606-20-2
   4. http://toxnet.nlm.nih.gov/cgi-bin/sis/search/r?dbs+hsdb:@term+@rn+@rel+606-20-2
   5. http://toxnet.nlm.nih.gov/cgi-bin/sis/search/r?dbs+hsdb:@term+@rn+@rel+606-20-2
   6. http://toxnet.nlm.nih.gov/cgi-bin/sis/search/r?dbs+hsdb:@term+@rn+@rel+606-20-2
   7. http://toxnet.nlm.nih.gov/cgi-bin/sis/search/r?dbs+hsdb:@term+@rn+@rel+606-20-2
   8. http://toxnet.nlm.nih.gov/cgi-bin/sis/search/r?dbs+hsdb:@term+@rn+@rel+606-20-2
   9. http://toxnet.nlm.nih.gov/cgi-bin/sis/search/r?dbs+hsdb:@term+@rn+@rel+606-20-2
  10. http://toxnet.nlm.nih.gov/cgi-bin/sis/search/r?dbs+hsdb:@term+@rn+@rel+606-20-2
  11. http://toxnet.nlm.nih.gov/cgi-bin/sis/search/r?dbs+hsdb:@term+@rn+@rel+606-20-2
  12. http://toxnet.nlm.nih.gov/cgi-bin/sis/search/r?dbs+hsdb:@term+@rn+@rel+606-20-2
  13. http://pubchem.ncbi.nlm.nih.gov/vw3d/vw3d.cgi?cid=11813
