5771742
  -OEChem-07051213042D

 57 56  0     1  0  0  0  0  0999 V2000
    6.3301    2.6550    0.0000 O   0  0  0  0  0  0  0  0  0  0  0  0
    8.9282    3.1550    0.0000 O   0  0  0  0  0  0  0  0  0  0  0  0
    8.0622   -0.3450    0.0000 O   0  0  0  0  0  0  0  0  0  0  0  0
   14.1244   -2.8450    0.0000 O   0  0  0  0  0  0  0  0  0  0  0  0
   14.9904   -1.3450    0.0000 O   0  0  0  0  0  0  0  0  0  0  0  0
    9.7942    1.6550    0.0000 C   0  0  1  0  0  0  0  0  0  0  0  0
    8.9282    1.1550    0.0000 C   0  0  1  0  0  0  0  0  0  0  0  0
   10.6603    1.1550    0.0000 C   0  0  0  0  0  0  0  0  0  0  0  0
    5.4641    1.1550    0.0000 C   0  0  0  0  0  0  0  0  0  0  0  0
    6.3301    1.6550    0.0000 C   0  0  1  0  0  0  0  0  0  0  0  0
    4.5981    1.6550    0.0000 C   0  0  0  0  0  0  0  0  0  0  0  0
    8.0622    1.6550    0.0000 C   0  0  0  0  0  0  0  0  0  0  0  0
    3.7320    1.1550    0.0000 C   0  0  0  0  0  0  0  0  0  0  0  0
    9.7942    2.6550    0.0000 C   0  0  0  0  0  0  0  0  0  0  0  0
    7.1962    1.1550    0.0000 C   0  0  0  0  0  0  0  0  0  0  0  0
   11.5263    1.6550    0.0000 C   0  0  0  0  0  0  0  0  0  0  0  0
    2.8660    1.6550    0.0000 C   0  0  0  0  0  0  0  0  0  0  0  0
    8.9282    0.1550    0.0000 C   0  0  0  0  0  0  0  0  0  0  0  0
   10.6603    3.1550    0.0000 C   0  0  0  0  0  0  0  0  0  0  0  0
   12.3923    1.1550    0.0000 C   0  0  0  0  0  0  0  0  0  0  0  0
   12.3923    0.1550    0.0000 C   0  0  0  0  0  0  0  0  0  0  0  0
    2.0000    1.1550    0.0000 C   0  0  0  0  0  0  0  0  0  0  0  0
   13.2583   -0.3450    0.0000 C   0  0  0  0  0  0  0  0  0  0  0  0
   13.2583   -1.3450    0.0000 C   0  0  0  0  0  0  0  0  0  0  0  0
   14.1244   -1.8450    0.0000 C   0  0  0  0  0  0  0  0  0  0  0  0
    9.2573    1.9650    0.0000 H   0  0  0  0  0  0  0  0  0  0  0  0
    9.4651    0.8450    0.0000 H   0  0  0  0  0  0  0  0  0  0  0  0
   10.2617    0.6801    0.0000 H   0  0  0  0  0  0  0  0  0  0  0  0
   11.0588    0.6801    0.0000 H   0  0  0  0  0  0  0  0  0  0  0  0
    5.0656    0.6801    0.0000 H   0  0  0  0  0  0  0  0  0  0  0  0
    5.8626    0.6801    0.0000 H   0  0  0  0  0  0  0  0  0  0  0  0
    6.8671    1.9650    0.0000 H   0  0  0  0  0  0  0  0  0  0  0  0
    4.9966    2.1300    0.0000 H   0  0  0  0  0  0  0  0  0  0  0  0
    4.1996    2.1300    0.0000 H   0  0  0  0  0  0  0  0  0  0  0  0
    8.0622    2.2750    0.0000 H   0  0  0  0  0  0  0  0  0  0  0  0
    3.3335    0.6801    0.0000 H   0  0  0  0  0  0  0  0  0  0  0  0
    4.1306    0.6801    0.0000 H   0  0  0  0  0  0  0  0  0  0  0  0
    7.1962    0.5350    0.0000 H   0  0  0  0  0  0  0  0  0  0  0  0
   11.5263    2.2750    0.0000 H   0  0  0  0  0  0  0  0  0  0  0  0
    3.2646    2.1300    0.0000 H   0  0  0  0  0  0  0  0  0  0  0  0
    2.4675    2.1300    0.0000 H   0  0  0  0  0  0  0  0  0  0  0  0
    9.4651   -0.1550    0.0000 H   0  0  0  0  0  0  0  0  0  0  0  0
   10.9703    2.6181    0.0000 H   0  0  0  0  0  0  0  0  0  0  0  0
   11.1972    3.4650    0.0000 H   0  0  0  0  0  0  0  0  0  0  0  0
   10.3503    3.6919    0.0000 H   0  0  0  0  0  0  0  0  0  0  0  0
   12.9292    1.4650    0.0000 H   0  0  0  0  0  0  0  0  0  0  0  0
   11.7817    0.2627    0.0000 H   0  0  0  0  0  0  0  0  0  0  0  0
   12.1803   -0.4276    0.0000 H   0  0  0  0  0  0  0  0  0  0  0  0
    1.6900    1.6919    0.0000 H   0  0  0  0  0  0  0  0  0  0  0  0
    1.4631    0.8450    0.0000 H   0  0  0  0  0  0  0  0  0  0  0  0
    2.3100    0.6181    0.0000 H   0  0  0  0  0  0  0  0  0  0  0  0
   13.8689   -0.4527    0.0000 H   0  0  0  0  0  0  0  0  0  0  0  0
   13.4704    0.2376    0.0000 H   0  0  0  0  0  0  0  0  0  0  0  0
    5.7932    2.9650    0.0000 H   0  0  0  0  0  0  0  0  0  0  0  0
   12.6477   -1.2373    0.0000 H   0  0  0  0  0  0  0  0  0  0  0  0
   13.0463   -1.9276    0.0000 H   0  0  0  0  0  0  0  0  0  0  0  0
   14.6613   -3.1550    0.0000 H   0  0  0  0  0  0  0  0  0  0  0  0
 10  1  1  6  0  0  0
  1 54  1  0  0  0  0
  2 14  2  0  0  0  0
  3 18  2  0  0  0  0
  4 25  1  0  0  0  0
  4 57  1  0  0  0  0
  5 25  2  0  0  0  0
  6  7  1  0  0  0  0
  6  8  1  1  0  0  0
  6 14  1  0  0  0  0
  6 26  1  0  0  0  0
  7 12  1  0  0  0  0
  7 18  1  6  0  0  0
  7 27  1  0  0  0  0
  8 16  1  0  0  0  0
  8 28  1  0  0  0  0
  8 29  1  0  0  0  0
  9 10  1  0  0  0  0
  9 11  1  0  0  0  0
  9 30  1  0  0  0  0
  9 31  1  0  0  0  0
 10 15  1  0  0  0  0
 10 32  1  0  0  0  0
 11 13  1  0  0  0  0
 11 33  1  0  0  0  0
 11 34  1  0  0  0  0
 12 15  2  0  0  0  0
 12 35  1  0  0  0  0
 13 17  1  0  0  0  0
 13 36  1  0  0  0  0
 13 37  1  0  0  0  0
 14 19  1  0  0  0  0
 15 38  1  0  0  0  0
 16 20  2  0  0  0  0
 16 39  1  0  0  0  0
 17 22  1  0  0  0  0
 17 40  1  0  0  0  0
 17 41  1  0  0  0  0
 18 42  1  0  0  0  0
 19 43  1  0  0  0  0
 19 44  1  0  0  0  0
 19 45  1  0  0  0  0
 20 21  1  0  0  0  0
 20 46  1  0  0  0  0
 21 23  1  0  0  0  0
 21 47  1  0  0  0  0
 21 48  1  0  0  0  0
 22 49  1  0  0  0  0
 22 50  1  0  0  0  0
 22 51  1  0  0  0  0
 23 24  1  0  0  0  0
 23 52  1  0  0  0  0
 23 53  1  0  0  0  0
 24 25  1  0  0  0  0
 24 55  1  0  0  0  0
 24 56  1  0  0  0  0
M  END
> <PUBCHEM_COMPOUND_CID>
5771742

> <PUBCHEM_COMPOUND_CANONICALIZED>
1

> <PUBCHEM_CACTVS_COMPLEXITY>
453

> <PUBCHEM_CACTVS_HBOND_ACCEPTOR>
5

> <PUBCHEM_CACTVS_HBOND_DONOR>
2

> <PUBCHEM_CACTVS_ROTATABLE_BOND>
15

> <PUBCHEM_CACTVS_SUBSKEYS>
AAADcfB4OAAAAAAAAAAAAAAAAAAAAAAAAAAAAAAAAAAAAAAAAAAAGgAACAAADRSggAICCAAAAgCIAKjSiAAAAAAgAAAICAEAAAgAFBIAAQAAUAAEgAAIEAOJwAAOgAAAAAAAAAAAAAAAAAAAAAAAAAAAAA==

> <PUBCHEM_IUPAC_OPENEYE_NAME>
(5Z,8R,9R,10E,12S)-8-acetyl-9-formyl-12-hydroxy-heptadeca-5,10-dienoic acid

> <PUBCHEM_IUPAC_CAS_NAME>
(5Z,8R,9R,10E,12S)-8-acetyl-9-formyl-12-hydroxyheptadeca-5,10-dienoic acid

> <PUBCHEM_IUPAC_NAME>
(5Z,8R,9R,10E,12S)-8-acetyl-9-formyl-12-hydroxyheptadeca-5,10-dienoic acid

> <PUBCHEM_IUPAC_SYSTEMATIC_NAME>
(5Z,8R,9R,10E,12S)-8-ethanoyl-9-methanoyl-12-oxidanyl-heptadeca-5,10-dienoic acid

> <PUBCHEM_IUPAC_TRADITIONAL_NAME>
(5Z,8R,9R,10E,12S)-8-acetyl-9-formyl-12-hydroxy-heptadeca-5,10-dienoic acid

> <PUBCHEM_IUPAC_INCHI>
InChI=1S/C20H32O5/c1-3-4-7-10-18(23)14-13-17(15-21)19(16(2)22)11-8-5-6-9-12-20(24)25/h5,8,13-15,17-19,23H,3-4,6-7,9-12H2,1-2H3,(H,24,25)/b8-5-,14-13+/t17-,18-,19-/m0/s1

> <PUBCHEM_IUPAC_INCHIKEY>
WJWAORNTZNRHBP-QNUMDXCLSA-N

> <PUBCHEM_XLOGP3_AA>
2.6

> <PUBCHEM_EXACT_MASS>
352.224974

> <PUBCHEM_MOLECULAR_FORMULA>
C20H32O5

> <PUBCHEM_MOLECULAR_WEIGHT>
352.46508

> <PUBCHEM_OPENEYE_CAN_SMILES>
CCCCCC(C=CC(C=O)C(CC=CCCCC(=O)O)C(=O)C)O

> <PUBCHEM_OPENEYE_ISO_SMILES>
CCCCC[C@@H](/C=C/[C@@H](C=O)[C@@H](C/C=C\CCCC(=O)O)C(=O)C)O

> <PUBCHEM_CACTVS_TPSA>
91.7

> <PUBCHEM_MONOISOTOPIC_WEIGHT>
352.224974

> <PUBCHEM_TOTAL_CHARGE>
0

> <PUBCHEM_HEAVY_ATOM_COUNT>
25

> <PUBCHEM_ATOM_DEF_STEREO_COUNT>
3

> <PUBCHEM_ATOM_UDEF_STEREO_COUNT>
0

> <PUBCHEM_BOND_DEF_STEREO_COUNT>
2

> <PUBCHEM_BOND_UDEF_STEREO_COUNT>
0

> <PUBCHEM_ISOTOPIC_ATOM_COUNT>
0

> <PUBCHEM_COMPONENT_COUNT>
1

> <PUBCHEM_CACTVS_TAUTO_COUNT>
11

> <PUBCHEM_COORDINATE_TYPE>
1
5
255

> <PUBCHEM_BONDANNOTATIONS>
10  1  6
6  8  5
7  18  6

$$$$

