   Color/Form
        White to off-white hygroscopic crystalline powder
   from [1]HSDB

   Melting Point
        150-153 deg C (decomposes)
   from [2]HSDB

   Other Chemical/Physical Properties

     * log Kow = 2.92 @ 25 deg C /Indinavir/
     * Solubility in water = 8.4 mg/l @ 25 deg C /Estimated/ /Indinavir/
     * VP: 1.3X10-24 mm Hg @ 25 deg C /Estimated/ /Indinavir/
     * Henry's Law constant = 1.6X10-28 atm-cu m/mol @ 25 deg C
       /Estimated/ /Indinavir/
     * Hydroxyl radical reaction rate constant = 2.8X10-10 cu cm/molec-sec
       @ 25 deg C /Estimated/ /Indinavir/

   from [3]HSDB

   Computed Properties
   Molecular Weight                  711.86796 [g/mol]
   Molecular Formula                 C[36]H[49]N[5]O[8]S
   H-Bond Donor                      6
   H-Bond Acceptor                   11
   Rotatable Bond Count              12
   Tautomer Count                    4
   Exact Mass                        711.330185
   MonoIsotopic Mass                 711.330185
   Topological Polar Surface Area    201
   Heavy Atom Count                  50
   Formal Charge                     0
   Complexity                        1030
   Isotope Atom Count                0
   Defined Atom Stereocenter Count   5
   Undefined Atom Stereocenter Count 0
   Defined Bond Stereocenter Count   0
   Undefined Bond Stereocenter Count 0
   Covalently-Bonded Unit Count      2

References

   1. http://toxnet.nlm.nih.gov/cgi-bin/sis/search/r?dbs+hsdb:@term+@rn+@rel+157810-81-6
   2. http://toxnet.nlm.nih.gov/cgi-bin/sis/search/r?dbs+hsdb:@term+@rn+@rel+157810-81-6
   3. http://toxnet.nlm.nih.gov/cgi-bin/sis/search/r?dbs+hsdb:@term+@rn+@rel+157810-81-6
