14372
  -OEChem-06241222432D

 43 43  0     1  0  0  0  0  0999 V2000
    7.4040    3.8877    0.0000 Cl  0  0  0  0  0  0  0  0  0  0  0  0
    0.5369    5.1200    0.0000 O   0  0  0  0  0  0  0  0  0  0  0  0
    2.2690    6.1200    0.0000 N   0  0  0  0  0  0  0  0  0  0  0  0
    2.2690    5.1200    0.0000 C   0  0  3  0  0  0  0  0  0  0  0  0
    3.0780    6.7078    0.0000 C   0  0  0  0  0  0  0  0  0  0  0  0
    1.4600    6.7078    0.0000 C   0  0  0  0  0  0  0  0  0  0  0  0
    1.7690    7.6588    0.0000 C   0  0  0  0  0  0  0  0  0  0  0  0
    2.7690    7.6588    0.0000 C   0  0  0  0  0  0  0  0  0  0  0  0
    3.1350    4.6200    0.0000 C   0  0  0  0  0  0  0  0  0  0  0  0
    1.4030    4.6200    0.0000 C   0  0  0  0  0  0  0  0  0  0  0  0
    4.0010    5.1200    0.0000 C   0  0  0  0  0  0  0  0  0  0  0  0
    1.4030    3.6200    0.0000 C   0  0  0  0  0  0  0  0  0  0  0  0
    4.8671    4.6200    0.0000 C   0  0  0  0  0  0  0  0  0  0  0  0
    0.5369    3.1200    0.0000 C   0  0  0  0  0  0  0  0  0  0  0  0
    2.2690    3.1200    0.0000 C   0  0  0  0  0  0  0  0  0  0  0  0
    0.5369    2.1200    0.0000 C   0  0  0  0  0  0  0  0  0  0  0  0
    2.2690    2.1200    0.0000 C   0  0  0  0  0  0  0  0  0  0  0  0
    1.4030    1.6200    0.0000 C   0  0  0  0  0  0  0  0  0  0  0  0
    1.4030    0.6200    0.0000 C   0  0  0  0  0  0  0  0  0  0  0  0
    3.0051    5.5450    0.0000 H   0  0  0  0  0  0  0  0  0  0  0  0
    0.8936    6.9600    0.0000 H   0  0  0  0  0  0  0  0  0  0  0  0
    1.1500    6.1708    0.0000 H   0  0  0  0  0  0  0  0  0  0  0  0
    3.3880    6.1708    0.0000 H   0  0  0  0  0  0  0  0  0  0  0  0
    3.6444    6.9600    0.0000 H   0  0  0  0  0  0  0  0  0  0  0  0
    3.3754    7.7878    0.0000 H   0  0  0  0  0  0  0  0  0  0  0  0
    2.7042    8.2754    0.0000 H   0  0  0  0  0  0  0  0  0  0  0  0
    1.8338    8.2754    0.0000 H   0  0  0  0  0  0  0  0  0  0  0  0
    1.1625    7.7878    0.0000 H   0  0  0  0  0  0  0  0  0  0  0  0
    2.7365    4.1450    0.0000 H   0  0  0  0  0  0  0  0  0  0  0  0
    3.5335    4.1450    0.0000 H   0  0  0  0  0  0  0  0  0  0  0  0
    4.3996    5.5950    0.0000 H   0  0  0  0  0  0  0  0  0  0  0  0
    3.6025    5.5950    0.0000 H   0  0  0  0  0  0  0  0  0  0  0  0
    4.5571    4.0831    0.0000 H   0  0  0  0  0  0  0  0  0  0  0  0
    5.4040    4.3100    0.0000 H   0  0  0  0  0  0  0  0  0  0  0  0
    5.1771    5.1569    0.0000 H   0  0  0  0  0  0  0  0  0  0  0  0
    0.0000    3.4300    0.0000 H   0  0  0  0  0  0  0  0  0  0  0  0
    2.8059    3.4300    0.0000 H   0  0  0  0  0  0  0  0  0  0  0  0
    0.0000    1.8100    0.0000 H   0  0  0  0  0  0  0  0  0  0  0  0
    2.8059    1.8100    0.0000 H   0  0  0  0  0  0  0  0  0  0  0  0
    0.7830    0.6200    0.0000 H   0  0  0  0  0  0  0  0  0  0  0  0
    1.4030    0.0000    0.0000 H   0  0  0  0  0  0  0  0  0  0  0  0
    2.0230    0.6200    0.0000 H   0  0  0  0  0  0  0  0  0  0  0  0
    8.4040    3.8877    0.0000 H   0  0  0  0  0  0  0  0  0  0  0  0
  1 43  1  0  0  0  0
  2 10  2  0  0  0  0
  3  4  1  0  0  0  0
  3  5  1  0  0  0  0
  3  6  1  0  0  0  0
  4  9  1  0  0  0  0
  4 10  1  0  0  0  0
  4 20  1  0  0  0  0
  5  8  1  0  0  0  0
  5 23  1  0  0  0  0
  5 24  1  0  0  0  0
  6  7  1  0  0  0  0
  6 21  1  0  0  0  0
  6 22  1  0  0  0  0
  7  8  1  0  0  0  0
  7 27  1  0  0  0  0
  7 28  1  0  0  0  0
  8 25  1  0  0  0  0
  8 26  1  0  0  0  0
  9 11  1  0  0  0  0
  9 29  1  0  0  0  0
  9 30  1  0  0  0  0
 10 12  1  0  0  0  0
 11 13  1  0  0  0  0
 11 31  1  0  0  0  0
 11 32  1  0  0  0  0
 12 14  2  0  0  0  0
 12 15  1  0  0  0  0
 13 33  1  0  0  0  0
 13 34  1  0  0  0  0
 13 35  1  0  0  0  0
 14 16  1  0  0  0  0
 14 36  1  0  0  0  0
 15 17  2  0  0  0  0
 15 37  1  0  0  0  0
 16 18  2  0  0  0  0
 16 38  1  0  0  0  0
 17 18  1  0  0  0  0
 17 39  1  0  0  0  0
 18 19  1  0  0  0  0
 19 40  1  0  0  0  0
 19 41  1  0  0  0  0
 19 42  1  0  0  0  0
M  END
> <PUBCHEM_COMPOUND_CID>
14372

> <PUBCHEM_COMPOUND_CANONICALIZED>
1

> <PUBCHEM_CACTVS_COMPLEXITY>
262

> <PUBCHEM_CACTVS_HBOND_ACCEPTOR>
2

> <PUBCHEM_CACTVS_HBOND_DONOR>
1

> <PUBCHEM_CACTVS_ROTATABLE_BOND>
5

> <PUBCHEM_CACTVS_SUBSKEYS>
AAADceB6IAAEAAAAAAAAAAAAAAAAAWAAAAAwAAAAAAAAAAABAAAAHgAAAAAADCzBmAQyAIMAAACIAqBSAAACAAAkAAAIiAGIAMgIIDKAlTGEIQAggACIiYcYiMCOQAAAAAAAAACAAAAAAAAAAAAAAAAAAA==

> <PUBCHEM_IUPAC_OPENEYE_NAME>
1-(p-tolyl)-2-pyrrolidin-1-yl-pentan-1-one hydrochloride

> <PUBCHEM_IUPAC_CAS_NAME>
1-(4-methylphenyl)-2-(1-pyrrolidinyl)-1-pentanone hydrochloride

> <PUBCHEM_IUPAC_NAME>
1-(4-methylphenyl)-2-pyrrolidin-1-ylpentan-1-one hydrochloride

> <PUBCHEM_IUPAC_SYSTEMATIC_NAME>
1-(4-methylphenyl)-2-pyrrolidin-1-yl-pentan-1-one hydrochloride

> <PUBCHEM_IUPAC_TRADITIONAL_NAME>
1-(p-tolyl)-2-pyrrolidino-pentan-1-one hydrochloride

> <PUBCHEM_IUPAC_INCHI>
InChI=1S/C16H23NO.ClH/c1-3-6-15(17-11-4-5-12-17)16(18)14-9-7-13(2)8-10-14;/h7-10,15H,3-6,11-12H2,1-2H3;1H

> <PUBCHEM_IUPAC_INCHIKEY>
MWRACNBZNVAJHE-UHFFFAOYSA-N

> <PUBCHEM_EXACT_MASS>
281.154642

> <PUBCHEM_MOLECULAR_FORMULA>
C16H24ClNO

> <PUBCHEM_MOLECULAR_WEIGHT>
281.82086

> <PUBCHEM_OPENEYE_CAN_SMILES>
CCCC(C(=O)C1=CC=C(C=C1)C)N2CCCC2.Cl

> <PUBCHEM_OPENEYE_ISO_SMILES>
CCCC(C(=O)C1=CC=C(C=C1)C)N2CCCC2.Cl

> <PUBCHEM_CACTVS_TPSA>
20.3

> <PUBCHEM_MONOISOTOPIC_WEIGHT>
281.154642

> <PUBCHEM_TOTAL_CHARGE>
0

> <PUBCHEM_HEAVY_ATOM_COUNT>
19

> <PUBCHEM_ATOM_DEF_STEREO_COUNT>
0

> <PUBCHEM_ATOM_UDEF_STEREO_COUNT>
1

> <PUBCHEM_BOND_DEF_STEREO_COUNT>
0

> <PUBCHEM_BOND_UDEF_STEREO_COUNT>
0

> <PUBCHEM_ISOTOPIC_ATOM_COUNT>
0

> <PUBCHEM_COMPONENT_COUNT>
2

> <PUBCHEM_CACTVS_TAUTO_COUNT>
7

> <PUBCHEM_COORDINATE_TYPE>
1
5
255

> <PUBCHEM_BONDANNOTATIONS>
12  14  8
12  15  8
14  16  8
15  17  8
16  18  8
17  18  8
4  20  3

$$$$

