   Color/Form

     * White crystalline solid
     * Colorless crystals

   from [1]HSDB

   Odor
        Odorless.
   from [2]HSDB

   Melting Point
        157.5-160 DEG C
   from [3]HSDB

   Corrosivity
        Non-corrosive
   from [4]HSDB

   Density/Specific Gravity
        1.55 @ 25 deg C/25 deg C
   from [5]HSDB

   Dissociation Constants
        pKa=9.30 @ 25 deg C
   from [6]HSDB

   Octanol/Water Partition Coefficient
        log Kow= 2.11
   from [7]HSDB

   Solubilities

     * SPARINGLY SOL IN HYDROCARBONS
     * Sol in ethanol, acetone, acetonitrile, xylene, and 3% aqueous
       sodium hydroxide at 134, 167, 71, 32, and 88 g/l, respectively, 25
       deg C.
     * In water, 815 mg/l @ 25 deg C

   from [8]HSDB

   Spectral Properties

     * Intense mass spectral peaks: 205 m/z (100%), 207 m/z (98%), 41 m/z
       (68%), 68 m/z (26%)
     * Intense mass spectral peaks: 162 m/z, 188 m/z, 231 m/z, 260 m/z

   from [9]HSDB

   Vapor Pressure
        3.07X10-7 mm Hg @ 25 deg C
   from [10]HSDB

   Other Chemical/Physical Properties

     * Decomposes slowly in strong acids
     * Sol in water at pH 5, 7, and 9 is 807, 700, and 1287 mg/l,
       respectively, at 25 deg C.

   from [11]HSDB

   Computed Properties
   Molecular Weight                  261.11572 [g/mol]
   Molecular Formula                 C[9]H[13]BrN[2]O[2]
   XLogP3                            2.1
   H-Bond Donor                      1
   H-Bond Acceptor                   2
   Rotatable Bond Count              2
   Tautomer Count                    4
   Exact Mass                        260.01604
   MonoIsotopic Mass                 260.01604
   Topological Polar Surface Area    49.4
   Heavy Atom Count                  14
   Formal Charge                     0
   Complexity                        312
   Isotope Atom Count                0
   Defined Atom Stereocenter Count   0
   Undefined Atom Stereocenter Count 1
   Defined Bond Stereocenter Count   0
   Undefined Bond Stereocenter Count 0
   Covalently-Bonded Unit Count      1
   Feature 3D Acceptor Count         2
   Feature 3D Donor Count            1
   Feature 3D Hydrophobe Count       2
   Feature 3D Ring Count             1
   Effective Rotor Count             2
   Conformer Sampling RMSD           0.6
   CID Conformer Count               [12]6

References

   1. http://toxnet.nlm.nih.gov/cgi-bin/sis/search/r?dbs+hsdb:@term+@rn+@rel+314-40-9
   2. http://toxnet.nlm.nih.gov/cgi-bin/sis/search/r?dbs+hsdb:@term+@rn+@rel+314-40-9
   3. http://toxnet.nlm.nih.gov/cgi-bin/sis/search/r?dbs+hsdb:@term+@rn+@rel+314-40-9
   4. http://toxnet.nlm.nih.gov/cgi-bin/sis/search/r?dbs+hsdb:@term+@rn+@rel+314-40-9
   5. http://toxnet.nlm.nih.gov/cgi-bin/sis/search/r?dbs+hsdb:@term+@rn+@rel+314-40-9
   6. http://toxnet.nlm.nih.gov/cgi-bin/sis/search/r?dbs+hsdb:@term+@rn+@rel+314-40-9
   7. http://toxnet.nlm.nih.gov/cgi-bin/sis/search/r?dbs+hsdb:@term+@rn+@rel+314-40-9
   8. http://toxnet.nlm.nih.gov/cgi-bin/sis/search/r?dbs+hsdb:@term+@rn+@rel+314-40-9
   9. http://toxnet.nlm.nih.gov/cgi-bin/sis/search/r?dbs+hsdb:@term+@rn+@rel+314-40-9
  10. http://toxnet.nlm.nih.gov/cgi-bin/sis/search/r?dbs+hsdb:@term+@rn+@rel+314-40-9
  11. http://toxnet.nlm.nih.gov/cgi-bin/sis/search/r?dbs+hsdb:@term+@rn+@rel+314-40-9
  12. http://pubchem.ncbi.nlm.nih.gov/vw3d/vw3d.cgi?cid=9411
