439430
  -OEChem-07051212452D

 24 23  0     1  0  0  0  0  0999 V2000
    2.5369    0.5950    0.0000 O   0  0  0  0  0  0  0  0  0  0  0  0
    3.4030   -0.9050    0.0000 O   0  0  0  0  0  0  0  0  0  0  0  0
    5.1350   -0.9050    0.0000 N   0  0  0  0  0  0  0  0  0  0  0  0
    7.7331    0.5950    0.0000 N   0  0  0  0  0  0  0  0  0  0  0  0
    6.0010    0.5950    0.0000 C   0  0  0  0  0  0  0  0  0  0  0  0
    5.1350    0.0950    0.0000 C   0  0  1  0  0  0  0  0  0  0  0  0
    6.8671    0.0950    0.0000 C   0  0  2  0  0  0  0  0  0  0  0  0
    4.2690    0.5950    0.0000 C   0  0  0  0  0  0  0  0  0  0  0  0
    6.8671   -0.9050    0.0000 C   0  0  0  0  0  0  0  0  0  0  0  0
    3.4030    0.0950    0.0000 C   0  0  0  0  0  0  0  0  0  0  0  0
    6.3996    1.0700    0.0000 H   0  0  0  0  0  0  0  0  0  0  0  0
    5.6025    1.0700    0.0000 H   0  0  0  0  0  0  0  0  0  0  0  0
    5.6720   -0.2150    0.0000 H   0  0  0  0  0  0  0  0  0  0  0  0
    7.4040   -0.2150    0.0000 H   0  0  0  0  0  0  0  0  0  0  0  0
    4.6675    1.0700    0.0000 H   0  0  0  0  0  0  0  0  0  0  0  0
    3.8705    1.0700    0.0000 H   0  0  0  0  0  0  0  0  0  0  0  0
    6.2471   -0.9050    0.0000 H   0  0  0  0  0  0  0  0  0  0  0  0
    6.8671   -1.5250    0.0000 H   0  0  0  0  0  0  0  0  0  0  0  0
    7.4871   -0.9050    0.0000 H   0  0  0  0  0  0  0  0  0  0  0  0
    4.5981   -1.2150    0.0000 H   0  0  0  0  0  0  0  0  0  0  0  0
    5.6720   -1.2150    0.0000 H   0  0  0  0  0  0  0  0  0  0  0  0
    8.2700    0.2850    0.0000 H   0  0  0  0  0  0  0  0  0  0  0  0
    7.7331    1.2150    0.0000 H   0  0  0  0  0  0  0  0  0  0  0  0
    2.0000    0.2850    0.0000 H   0  0  0  0  0  0  0  0  0  0  0  0
  1 10  1  0  0  0  0
  1 24  1  0  0  0  0
  2 10  2  0  0  0  0
  6  3  1  6  0  0  0
  3 20  1  0  0  0  0
  3 21  1  0  0  0  0
  7  4  1  1  0  0  0
  4 22  1  0  0  0  0
  4 23  1  0  0  0  0
  5  6  1  0  0  0  0
  5  7  1  0  0  0  0
  5 11  1  0  0  0  0
  5 12  1  0  0  0  0
  6  8  1  0  0  0  0
  6 13  1  0  0  0  0
  7  9  1  0  0  0  0
  7 14  1  0  0  0  0
  8 10  1  0  0  0  0
  8 15  1  0  0  0  0
  8 16  1  0  0  0  0
  9 17  1  0  0  0  0
  9 18  1  0  0  0  0
  9 19  1  0  0  0  0
M  END
> <PUBCHEM_COMPOUND_CID>
439430

> <PUBCHEM_COMPOUND_CANONICALIZED>
1

> <PUBCHEM_CACTVS_COMPLEXITY>
116

> <PUBCHEM_CACTVS_HBOND_ACCEPTOR>
4

> <PUBCHEM_CACTVS_HBOND_DONOR>
3

> <PUBCHEM_CACTVS_ROTATABLE_BOND>
4

> <PUBCHEM_CACTVS_SUBSKEYS>
AAADccBjMAAAAAAAAAAAAAAAAAAAAAAAAAAAAAAAAAAAAAAAAAAAHgAQCAAACCjBgAQCCABAAgAIAACQCAAAAAAAAAAAAIEAAAAAABoAwAAAQAAGEAAAAAGYWQEQAAAAAAAAAAAAAAAAAAAAAAAAAAAAAA==

> <PUBCHEM_IUPAC_OPENEYE_NAME>
(3S,5S)-3,5-diaminohexanoic acid

> <PUBCHEM_IUPAC_CAS_NAME>
(3S,5S)-3,5-diaminohexanoic acid

> <PUBCHEM_IUPAC_NAME>
(3S,5S)-3,5-diaminohexanoic acid

> <PUBCHEM_IUPAC_SYSTEMATIC_NAME>
(3S,5S)-3,5-bis(azanyl)hexanoic acid

> <PUBCHEM_IUPAC_TRADITIONAL_NAME>
(3S,5S)-3,5-diaminohexanoic acid

> <PUBCHEM_IUPAC_INCHI>
InChI=1S/C6H14N2O2/c1-4(7)2-5(8)3-6(9)10/h4-5H,2-3,7-8H2,1H3,(H,9,10)/t4-,5-/m0/s1

> <PUBCHEM_IUPAC_INCHIKEY>
NGDLSXMSQYUVSJ-WHFBIAKZSA-N

> <PUBCHEM_XLOGP3_AA>
-3.6

> <PUBCHEM_EXACT_MASS>
146.105528

> <PUBCHEM_MOLECULAR_FORMULA>
C6H14N2O2

> <PUBCHEM_MOLECULAR_WEIGHT>
146.18756

> <PUBCHEM_OPENEYE_CAN_SMILES>
CC(CC(CC(=O)O)N)N

> <PUBCHEM_OPENEYE_ISO_SMILES>
C[C@@H](C[C@@H](CC(=O)O)N)N

> <PUBCHEM_CACTVS_TPSA>
89.3

> <PUBCHEM_MONOISOTOPIC_WEIGHT>
146.105528

> <PUBCHEM_TOTAL_CHARGE>
0

> <PUBCHEM_HEAVY_ATOM_COUNT>
10

> <PUBCHEM_ATOM_DEF_STEREO_COUNT>
2

> <PUBCHEM_ATOM_UDEF_STEREO_COUNT>
0

> <PUBCHEM_BOND_DEF_STEREO_COUNT>
0

> <PUBCHEM_BOND_UDEF_STEREO_COUNT>
0

> <PUBCHEM_ISOTOPIC_ATOM_COUNT>
0

> <PUBCHEM_COMPONENT_COUNT>
1

> <PUBCHEM_CACTVS_TAUTO_COUNT>
1

> <PUBCHEM_COORDINATE_TYPE>
1
5
255

> <PUBCHEM_BONDANNOTATIONS>
6  3  6
7  4  5

$$$$

