6068
  -OEChem-06261201052D

 31 32  0     1  0  0  0  0  0999 V2000
    2.0000    1.6806    0.0000 O   0  0  0  0  0  0  0  0  0  0  0  0
    5.5202    1.6806    0.0000 O   0  0  0  0  0  0  0  0  0  0  0  0
    3.7601    1.9594    0.0000 N   0  0  0  0  0  0  0  0  0  0  0  0
    3.2601    0.4206    0.0000 C   0  0  3  0  0  0  0  0  0  0  0  0
    4.2601    0.4206    0.0000 C   0  0  3  0  0  0  0  0  0  0  0  0
    4.8479   -0.3884    0.0000 C   0  0  0  0  0  0  0  0  0  0  0  0
    2.9511    1.3716    0.0000 C   0  0  0  0  0  0  0  0  0  0  0  0
    3.2601   -0.5794    0.0000 C   0  0  0  0  0  0  0  0  0  0  0  0
    4.5691    1.3716    0.0000 C   0  0  0  0  0  0  0  0  0  0  0  0
    2.3090    0.1116    0.0000 C   0  0  0  0  0  0  0  0  0  0  0  0
    5.8424   -0.2839    0.0000 C   0  0  0  0  0  0  0  0  0  0  0  0
    2.3940   -1.0794    0.0000 C   0  0  0  0  0  0  0  0  0  0  0  0
    4.1261   -1.0794    0.0000 C   0  0  0  0  0  0  0  0  0  0  0  0
    2.3940   -2.0794    0.0000 C   0  0  0  0  0  0  0  0  0  0  0  0
    4.1261   -2.0794    0.0000 C   0  0  0  0  0  0  0  0  0  0  0  0
    3.2601   -2.5794    0.0000 C   0  0  0  0  0  0  0  0  0  0  0  0
    5.0996    0.5535    0.0000 H   0  0  0  0  0  0  0  0  0  0  0  0
    4.2906   -0.6602    0.0000 H   0  0  0  0  0  0  0  0  0  0  0  0
    5.0188   -0.9844    0.0000 H   0  0  0  0  0  0  0  0  0  0  0  0
    2.1174    0.7012    0.0000 H   0  0  0  0  0  0  0  0  0  0  0  0
    1.7194   -0.0800    0.0000 H   0  0  0  0  0  0  0  0  0  0  0  0
    2.5006   -0.4781    0.0000 H   0  0  0  0  0  0  0  0  0  0  0  0
    3.7601    2.5794    0.0000 H   0  0  0  0  0  0  0  0  0  0  0  0
    5.9072   -0.9005    0.0000 H   0  0  0  0  0  0  0  0  0  0  0  0
    6.4590   -0.2191    0.0000 H   0  0  0  0  0  0  0  0  0  0  0  0
    5.7776    0.3327    0.0000 H   0  0  0  0  0  0  0  0  0  0  0  0
    1.8571   -0.7694    0.0000 H   0  0  0  0  0  0  0  0  0  0  0  0
    4.6630   -0.7694    0.0000 H   0  0  0  0  0  0  0  0  0  0  0  0
    1.8571   -2.3894    0.0000 H   0  0  0  0  0  0  0  0  0  0  0  0
    4.6630   -2.3894    0.0000 H   0  0  0  0  0  0  0  0  0  0  0  0
    3.2601   -3.1994    0.0000 H   0  0  0  0  0  0  0  0  0  0  0  0
  1  7  2  0  0  0  0
  2  9  2  0  0  0  0
  3  7  1  0  0  0  0
  3  9  1  0  0  0  0
  3 23  1  0  0  0  0
  4  5  1  0  0  0  0
  4  7  1  0  0  0  0
  4  8  1  0  0  0  0
  4 10  1  0  0  0  0
  5  6  1  0  0  0  0
  5  9  1  0  0  0  0
  5 17  1  0  0  0  0
  6 11  1  0  0  0  0
  6 18  1  0  0  0  0
  6 19  1  0  0  0  0
  8 12  2  0  0  0  0
  8 13  1  0  0  0  0
 10 20  1  0  0  0  0
 10 21  1  0  0  0  0
 10 22  1  0  0  0  0
 11 24  1  0  0  0  0
 11 25  1  0  0  0  0
 11 26  1  0  0  0  0
 12 14  1  0  0  0  0
 12 27  1  0  0  0  0
 13 15  2  0  0  0  0
 13 28  1  0  0  0  0
 14 16  2  0  0  0  0
 14 29  1  0  0  0  0
 15 16  1  0  0  0  0
 15 30  1  0  0  0  0
 16 31  1  0  0  0  0
M  END
> <PUBCHEM_COMPOUND_CID>
6068

> <PUBCHEM_COMPOUND_CANONICALIZED>
1

> <PUBCHEM_CACTVS_COMPLEXITY>
307

> <PUBCHEM_CACTVS_HBOND_ACCEPTOR>
2

> <PUBCHEM_CACTVS_HBOND_DONOR>
1

> <PUBCHEM_CACTVS_ROTATABLE_BOND>
2

> <PUBCHEM_CACTVS_SUBSKEYS>
AAADccByMAAAAAAAAAAAAAAAAAAAAWAAAAAwAAAAAAAAAAABAAAAHgAQAAAADwCBmAAyAILAAACIAiFSEAACAAAgAAAIiAEAAIgIIDKAlRGEIAAglCCIiAcdiMCPgAAAAAAAAAAAAAAAAAAAAAAAAAAAAA==

> <PUBCHEM_IUPAC_OPENEYE_NAME>
4-ethyl-3-methyl-3-phenyl-pyrrolidine-2,5-dione

> <PUBCHEM_IUPAC_CAS_NAME>
4-ethyl-3-methyl-3-phenylpyrrolidine-2,5-dione

> <PUBCHEM_IUPAC_NAME>
4-ethyl-3-methyl-3-phenylpyrrolidine-2,5-dione

> <PUBCHEM_IUPAC_SYSTEMATIC_NAME>
4-ethyl-3-methyl-3-phenyl-pyrrolidine-2,5-dione

> <PUBCHEM_IUPAC_TRADITIONAL_NAME>
4-ethyl-3-methyl-3-phenyl-pyrrolidine-2,5-quinone

> <PUBCHEM_IUPAC_INCHI>
InChI=1S/C13H15NO2/c1-3-10-11(15)14-12(16)13(10,2)9-7-5-4-6-8-9/h4-8,10H,3H2,1-2H3,(H,14,15,16)

> <PUBCHEM_IUPAC_INCHIKEY>
WYOMHOATUARGQV-UHFFFAOYSA-N

> <PUBCHEM_XLOGP3_AA>
1.9

> <PUBCHEM_EXACT_MASS>
217.110279

> <PUBCHEM_MOLECULAR_FORMULA>
C13H15NO2

> <PUBCHEM_MOLECULAR_WEIGHT>
217.2637

> <PUBCHEM_OPENEYE_CAN_SMILES>
CCC1C(=O)NC(=O)C1(C)C2=CC=CC=C2

> <PUBCHEM_OPENEYE_ISO_SMILES>
CCC1C(=O)NC(=O)C1(C)C2=CC=CC=C2

> <PUBCHEM_CACTVS_TPSA>
46.2

> <PUBCHEM_MONOISOTOPIC_WEIGHT>
217.110279

> <PUBCHEM_TOTAL_CHARGE>
0

> <PUBCHEM_HEAVY_ATOM_COUNT>
16

> <PUBCHEM_ATOM_DEF_STEREO_COUNT>
0

> <PUBCHEM_ATOM_UDEF_STEREO_COUNT>
2

> <PUBCHEM_BOND_DEF_STEREO_COUNT>
0

> <PUBCHEM_BOND_UDEF_STEREO_COUNT>
0

> <PUBCHEM_ISOTOPIC_ATOM_COUNT>
0

> <PUBCHEM_COMPONENT_COUNT>
1

> <PUBCHEM_CACTVS_TAUTO_COUNT>
5

> <PUBCHEM_COORDINATE_TYPE>
1
5
255

> <PUBCHEM_BONDANNOTATIONS>
12  14  8
13  15  8
14  16  8
15  16  8
4  10  3
5  17  3
8  12  8
8  13  8

$$$$

