   Color/Form

     * Gray cubic crystals or powder, hygroscopic
     * White translucent, crystalline mass or powder; commercial product
       is light bluish-gray due to minute amount of colloidally dispersed
       lithium
     * Cubic crystals, darkens rapidly on exposure to light

   from [1]HSDB

   Color/Form

     * Soft silvery-white metal
     * Silvery-white metal; body centered cubic structure; becomes
       yellowish on exposure to moist air

   from [2]HSDB

   Color/Form
        NO DATA
   from [3]HSDB

   Odor
        Odorless ...
   from [4]HSDB

   Odor
        ODORLESS
   from [5]HSDB

   Boiling Point
        1342 deg C
   from [6]HSDB

   Melting Point
        688.7 deg C
   from [7]HSDB

   Melting Point
        180.54 deg C
   from [8]HSDB

   Corrosivity

     * LIQUID METAL IS CORROSIVE, ATTACKING GLASS OR PORCELAIN AT A
       TEMPERATURE OF ABOUT 200 DEG C
     * Emits corrosive fumes when burned

   from [9]HSDB

   Critical Temperature and Pressure
        Critical temperature = 3223 deg C; critical pressure = 68.9 MPa
   from [10]HSDB

   Density/Specific Gravity
        0.78 g/cu cm
   from [11]HSDB

   Density/Specific Gravity
        0.534 g/cu cm at 25 deg C
   from [12]HSDB

   Heat of Combustion
        -18,470 BTU/LB= -10,260 CAL/G= -429.3X10+5 J/KG
   from [13]HSDB

   Heat of Vaporization
        ca. 21.3 kJ/g
   from [14]HSDB

   Solubilities
        Insoluble in benzene and toluene; soluble in ether
   from [15]HSDB

   Solubilities

     * Reacts with water
     * Soluble in liquid ammonia forming a blue solution

   from [16]HSDB

   Spectral Properties

     * Emits characteristic crimson color (670.8 nm) in flame
     * Characteristic spectrum lines: 670.8 nm (red); 610.4 (orange)

   from [17]HSDB

   Surface Tension
        Surface tension at the melting point: 398 mN/m
   from [18]HSDB

   Vapor Pressure
        Approximately 0 mm Hg
   from [19]HSDB

   Vapor Pressure
        7.90X10-11 Pa (5.92X10-13 mm Hg) at 400 K (127 deg C); 0.000489 Pa
   (3.67X10-6 mm Hg) at 600 K (327 deg C); 1.08 Pa (0.00810 mm Hg) at 800
   K (524 deg C); 109 Pa (0.818 mm Hg) at 1000 K (727 deg C)
   from [20]HSDB

   Other Chemical/Physical Properties

     * Decomp pressure nil at 25 deg C; 0.7 mm at 500 deg C; 760 mm at
       approximately 850 deg C; decomposed by water, forming hydrogen and
       lithium hydroxide
     * Heat of solution: -7200 Btu/lb
     * Standard molar enthalpy of formation at 298.15 K: -90.5 kJ/mol;
       molar heat capacity at constant pressure and 298.15 K: 27.9 J/mol K
     * Enthalpy of fusion: 22.59 kJ/mol
     * One gram in water liberates approx. 2.8 liters of hydrogen at STP
       (0 deg C, 760 mm Hg); darkens rapidly on exposure to light; rapidly
       decomposes in water to form lithium hydroxide and hydrogen; reacts
       with lower alcohols, carboxylic acids, chlorine, and ammonia at 400
       deg C to liberate hydrogen
     * Reacts vigorously with protic solvents.

   from [21]HSDB

   Other Chemical/Physical Properties

     * Atomic number: 3; valance: 1; group IA(1); alkali metal; hardest of
       the alkali metals; Mohs' hardness: 0.6; Oxidation potential: 3.045
       V; reacts with water forming the hydroxide and hydrogen (H2);
       reacts violently with inorganic acids; reacts slowly with cold
       sulfuric acid; does not react with oxygen at room temperature;
       forms Li2O when heated to 100 deg C or higher; artificial
       radioactive isotopes: 5, 8-11 (all are unstable, half-lives < 1
       sec)
     * Two stable isotopes are present in natural lithium: 7 (92.4%); 6
       (7.6%); remains untarnished in dry air, but in moist air, its
       surface becomes coated with a mixture of LiOH, LiOH.H2O, Li2CO3,
       Li3N; thin films are opaque to visible light, but are transparent
       to UV radiation; electrical resistivity at 20 deg C: 9.446 microohm
       cm; first ionization potential: 519 kJ/mol; electron affinity: 52.3
       kJ/mol
     * Enthalpy of fusion at the melting point: 432 J/g; specific heat
       capacity at constant pressure at 25 deg C: 3.57 24.8 J/mol K
     * When heated above melting point it burns with an intense white
       light; liquid metal dissolves metals such as copper, zinc, tin and
       their alloys.
     * Lightest and least reactive of the alkali metals; lightest solid
       element; reacts exothermically with nitrogen in moist air at high
       temperatures; high electrical conductivity
     * Heat of solution: -31,500 btu/lb= -17,500 cal/g= -733X10+5 J/kg
     * Critical volume: 66 mL/mol
     * Highly electropositive; high ionization potential; does not
       generally form coordinate covalent compounds.
     * Decomposes in alcohol
     * Burns with a luminous white flame, forming a dense white smoke
       consisting of mainly lithium oxide
     * Violently reactive with water or moisture, carbon dioxide,
       halogens, strong acids, and chlorinated hydrocarbons.
     * Viscosity of liquid lithium is less than water

   from [22]HSDB

   Other Chemical/Physical Properties
        The typical oxidation state of the alkali metals, including
   lithium, is +1; no other cations are known or expected for the alkali
   metals. Lithium ions form a wide variety of complexes with amines,
   ethers, carboxylates, alkoxides, and dialkylamides.
   from [23]HSDB

   Computed Properties
   Molecular Weight                  6.941 [g/mol]
   Molecular Formula                 Li
   H-Bond Donor                      0
   H-Bond Acceptor                   0
   Rotatable Bond Count              0
   Exact Mass                        7.016005
   MonoIsotopic Mass                 7.016005
   Topological Polar Surface Area    0
   Heavy Atom Count                  1
   Formal Charge                     0
   Complexity                        0
   Isotope Atom Count                0
   Defined Atom Stereocenter Count   0
   Undefined Atom Stereocenter Count 0
   Defined Bond Stereocenter Count   0
   Undefined Bond Stereocenter Count 0
   Covalently-Bonded Unit Count      1

References

   1. http://toxnet.nlm.nih.gov/cgi-bin/sis/search/r?dbs+hsdb:@term+@rn+@rel+7580-67-8
   2. http://toxnet.nlm.nih.gov/cgi-bin/sis/search/r?dbs+hsdb:@term+@rn+@rel+7439-93-2
   3. http://toxnet.nlm.nih.gov/cgi-bin/sis/search/r?dbs+hsdb:@term+@rn+@rel+NO%20CAS%20RN
   4. http://toxnet.nlm.nih.gov/cgi-bin/sis/search/r?dbs+hsdb:@term+@rn+@rel+7580-67-8
   5. http://toxnet.nlm.nih.gov/cgi-bin/sis/search/r?dbs+hsdb:@term+@rn+@rel+7439-93-2
   6. http://toxnet.nlm.nih.gov/cgi-bin/sis/search/r?dbs+hsdb:@term+@rn+@rel+7439-93-2
   7. http://toxnet.nlm.nih.gov/cgi-bin/sis/search/r?dbs+hsdb:@term+@rn+@rel+7580-67-8
   8. http://toxnet.nlm.nih.gov/cgi-bin/sis/search/r?dbs+hsdb:@term+@rn+@rel+7439-93-2
   9. http://toxnet.nlm.nih.gov/cgi-bin/sis/search/r?dbs+hsdb:@term+@rn+@rel+7439-93-2
  10. http://toxnet.nlm.nih.gov/cgi-bin/sis/search/r?dbs+hsdb:@term+@rn+@rel+7439-93-2
  11. http://toxnet.nlm.nih.gov/cgi-bin/sis/search/r?dbs+hsdb:@term+@rn+@rel+7580-67-8
  12. http://toxnet.nlm.nih.gov/cgi-bin/sis/search/r?dbs+hsdb:@term+@rn+@rel+7439-93-2
  13. http://toxnet.nlm.nih.gov/cgi-bin/sis/search/r?dbs+hsdb:@term+@rn+@rel+7439-93-2
  14. http://toxnet.nlm.nih.gov/cgi-bin/sis/search/r?dbs+hsdb:@term+@rn+@rel+7439-93-2
  15. http://toxnet.nlm.nih.gov/cgi-bin/sis/search/r?dbs+hsdb:@term+@rn+@rel+7580-67-8
  16. http://toxnet.nlm.nih.gov/cgi-bin/sis/search/r?dbs+hsdb:@term+@rn+@rel+7439-93-2
  17. http://toxnet.nlm.nih.gov/cgi-bin/sis/search/r?dbs+hsdb:@term+@rn+@rel+7439-93-2
  18. http://toxnet.nlm.nih.gov/cgi-bin/sis/search/r?dbs+hsdb:@term+@rn+@rel+7439-93-2
  19. http://toxnet.nlm.nih.gov/cgi-bin/sis/search/r?dbs+hsdb:@term+@rn+@rel+7580-67-8
  20. http://toxnet.nlm.nih.gov/cgi-bin/sis/search/r?dbs+hsdb:@term+@rn+@rel+7439-93-2
  21. http://toxnet.nlm.nih.gov/cgi-bin/sis/search/r?dbs+hsdb:@term+@rn+@rel+7580-67-8
  22. http://toxnet.nlm.nih.gov/cgi-bin/sis/search/r?dbs+hsdb:@term+@rn+@rel+7439-93-2
  23. http://toxnet.nlm.nih.gov/cgi-bin/sis/search/r?dbs+hsdb:@term+@rn+@rel+NO%20CAS%20RN
