16061290
  -OEChem-07051213082D

 99 99  0     1  0  0  0  0  0999 V2000
    3.8660  -10.9050    0.0000 O   0  0  0  0  0  0  0  0  0  0  0  0
   15.1244   10.5950    0.0000 O   0  0  0  0  0  0  0  0  0  0  0  0
   12.5263   10.0950    0.0000 O   0  0  0  0  0  0  0  0  0  0  0  0
    3.0000   -8.4050    0.0000 C   0  0  0  0  0  0  0  0  0  0  0  0
    3.0000   -9.4050    0.0000 C   0  0  0  0  0  0  0  0  0  0  0  0
    3.8660   -9.9050    0.0000 C   0  0  1  0  0  0  0  0  0  0  0  0
    3.8660   -7.9050    0.0000 C   0  0  0  0  0  0  0  0  0  0  0  0
    4.7320   -9.4050    0.0000 C   0  0  0  0  0  0  0  0  0  0  0  0
    4.7320   -8.4050    0.0000 C   0  0  0  0  0  0  0  0  0  0  0  0
    2.0000   -8.4050    0.0000 C   0  0  0  0  0  0  0  0  0  0  0  0
    2.5000   -7.5390    0.0000 C   0  0  0  0  0  0  0  0  0  0  0  0
    3.8660   -6.9050    0.0000 C   0  0  0  0  0  0  0  0  0  0  0  0
    5.5981   -7.9050    0.0000 C   0  0  0  0  0  0  0  0  0  0  0  0
    4.7320   -6.4050    0.0000 C   0  0  0  0  0  0  0  0  0  0  0  0
    4.7320   -5.4050    0.0000 C   0  0  0  0  0  0  0  0  0  0  0  0
    3.8660   -4.9050    0.0000 C   0  0  0  0  0  0  0  0  0  0  0  0
    5.5981   -4.9050    0.0000 C   0  0  0  0  0  0  0  0  0  0  0  0
    5.5981   -3.9050    0.0000 C   0  0  0  0  0  0  0  0  0  0  0  0
   14.2583   10.0950    0.0000 C   0  0  0  0  0  0  0  0  0  0  0  0
    6.4641   -3.4050    0.0000 C   0  0  0  0  0  0  0  0  0  0  0  0
   13.3923    9.5950    0.0000 C   0  0  2  0  0  0  0  0  0  0  0  0
   13.7583   10.9610    0.0000 C   0  0  0  0  0  0  0  0  0  0  0  0
   14.7583    9.2290    0.0000 C   0  0  0  0  0  0  0  0  0  0  0  0
    6.4641   -2.4050    0.0000 C   0  0  0  0  0  0  0  0  0  0  0  0
   13.3923    8.5950    0.0000 C   0  0  0  0  0  0  0  0  0  0  0  0
   12.5263    8.0950    0.0000 C   0  0  0  0  0  0  0  0  0  0  0  0
    5.5981   -1.9050    0.0000 C   0  0  0  0  0  0  0  0  0  0  0  0
    7.3301   -1.9050    0.0000 C   0  0  0  0  0  0  0  0  0  0  0  0
   12.5263    7.0950    0.0000 C   0  0  0  0  0  0  0  0  0  0  0  0
   13.3923    6.5950    0.0000 C   0  0  0  0  0  0  0  0  0  0  0  0
   11.6603    6.5950    0.0000 C   0  0  0  0  0  0  0  0  0  0  0  0
    7.3301   -0.9050    0.0000 C   0  0  0  0  0  0  0  0  0  0  0  0
   11.6603    5.5950    0.0000 C   0  0  0  0  0  0  0  0  0  0  0  0
    8.1962   -0.4050    0.0000 C   0  0  0  0  0  0  0  0  0  0  0  0
   10.7942    5.0950    0.0000 C   0  0  0  0  0  0  0  0  0  0  0  0
   10.7942    4.0950    0.0000 C   0  0  0  0  0  0  0  0  0  0  0  0
    8.1962    0.5950    0.0000 C   0  0  0  0  0  0  0  0  0  0  0  0
    9.0622    1.0950    0.0000 C   0  0  0  0  0  0  0  0  0  0  0  0
    9.9282    3.5950    0.0000 C   0  0  0  0  0  0  0  0  0  0  0  0
   11.6603    3.5950    0.0000 C   0  0  0  0  0  0  0  0  0  0  0  0
    9.0622    2.0950    0.0000 C   0  0  0  0  0  0  0  0  0  0  0  0
    9.9282    2.5950    0.0000 C   0  0  0  0  0  0  0  0  0  0  0  0
    9.9282    0.5950    0.0000 C   0  0  0  0  0  0  0  0  0  0  0  0
    2.3894   -9.2973    0.0000 H   0  0  0  0  0  0  0  0  0  0  0  0
    2.7880   -9.9876    0.0000 H   0  0  0  0  0  0  0  0  0  0  0  0
    4.4030  -10.2150    0.0000 H   0  0  0  0  0  0  0  0  0  0  0  0
    4.9441   -9.9876    0.0000 H   0  0  0  0  0  0  0  0  0  0  0  0
    5.3426   -9.2973    0.0000 H   0  0  0  0  0  0  0  0  0  0  0  0
    2.0000   -7.7850    0.0000 H   0  0  0  0  0  0  0  0  0  0  0  0
    1.3800   -8.4050    0.0000 H   0  0  0  0  0  0  0  0  0  0  0  0
    3.0369   -7.2290    0.0000 H   0  0  0  0  0  0  0  0  0  0  0  0
    2.1900   -7.0020    0.0000 H   0  0  0  0  0  0  0  0  0  0  0  0
    1.9631   -7.8490    0.0000 H   0  0  0  0  0  0  0  0  0  0  0  0
    2.0000   -9.0250    0.0000 H   0  0  0  0  0  0  0  0  0  0  0  0
    3.3291   -6.5950    0.0000 H   0  0  0  0  0  0  0  0  0  0  0  0
    5.9081   -8.4419    0.0000 H   0  0  0  0  0  0  0  0  0  0  0  0
    6.1350   -7.5950    0.0000 H   0  0  0  0  0  0  0  0  0  0  0  0
    5.2881   -7.3681    0.0000 H   0  0  0  0  0  0  0  0  0  0  0  0
    4.4030  -11.2150    0.0000 H   0  0  0  0  0  0  0  0  0  0  0  0
    5.2690   -6.7150    0.0000 H   0  0  0  0  0  0  0  0  0  0  0  0
    4.1760   -4.3681    0.0000 H   0  0  0  0  0  0  0  0  0  0  0  0
    3.3291   -4.5950    0.0000 H   0  0  0  0  0  0  0  0  0  0  0  0
    3.5560   -5.4419    0.0000 H   0  0  0  0  0  0  0  0  0  0  0  0
    6.1350   -5.2150    0.0000 H   0  0  0  0  0  0  0  0  0  0  0  0
    5.0611   -3.5950    0.0000 H   0  0  0  0  0  0  0  0  0  0  0  0
    7.0010   -3.7150    0.0000 H   0  0  0  0  0  0  0  0  0  0  0  0
   12.8554    9.2850    0.0000 H   0  0  0  0  0  0  0  0  0  0  0  0
   14.2953   11.2710    0.0000 H   0  0  0  0  0  0  0  0  0  0  0  0
   13.4483   11.4980    0.0000 H   0  0  0  0  0  0  0  0  0  0  0  0
   13.2214   10.6510    0.0000 H   0  0  0  0  0  0  0  0  0  0  0  0
   14.2214    8.9190    0.0000 H   0  0  0  0  0  0  0  0  0  0  0  0
   15.0683    8.6920    0.0000 H   0  0  0  0  0  0  0  0  0  0  0  0
   15.2953    9.5390    0.0000 H   0  0  0  0  0  0  0  0  0  0  0  0
   13.9292    8.2850    0.0000 H   0  0  0  0  0  0  0  0  0  0  0  0
   15.1244   11.2150    0.0000 H   0  0  0  0  0  0  0  0  0  0  0  0
   12.5263   10.7150    0.0000 H   0  0  0  0  0  0  0  0  0  0  0  0
   11.9893    8.4050    0.0000 H   0  0  0  0  0  0  0  0  0  0  0  0
    5.9081   -1.3681    0.0000 H   0  0  0  0  0  0  0  0  0  0  0  0
    5.0611   -1.5950    0.0000 H   0  0  0  0  0  0  0  0  0  0  0  0
    5.2881   -2.4419    0.0000 H   0  0  0  0  0  0  0  0  0  0  0  0
    7.8671   -2.2150    0.0000 H   0  0  0  0  0  0  0  0  0  0  0  0
   13.0823    6.0581    0.0000 H   0  0  0  0  0  0  0  0  0  0  0  0
   13.9292    6.2850    0.0000 H   0  0  0  0  0  0  0  0  0  0  0  0
   13.7023    7.1319    0.0000 H   0  0  0  0  0  0  0  0  0  0  0  0
   11.1233    6.9050    0.0000 H   0  0  0  0  0  0  0  0  0  0  0  0
    6.7932   -0.5950    0.0000 H   0  0  0  0  0  0  0  0  0  0  0  0
   12.1972    5.2850    0.0000 H   0  0  0  0  0  0  0  0  0  0  0  0
    8.7331   -0.7150    0.0000 H   0  0  0  0  0  0  0  0  0  0  0  0
   10.2573    5.4050    0.0000 H   0  0  0  0  0  0  0  0  0  0  0  0
    7.6592    0.9050    0.0000 H   0  0  0  0  0  0  0  0  0  0  0  0
    9.3913    3.9050    0.0000 H   0  0  0  0  0  0  0  0  0  0  0  0
   11.3503    3.0581    0.0000 H   0  0  0  0  0  0  0  0  0  0  0  0
   12.1972    3.2850    0.0000 H   0  0  0  0  0  0  0  0  0  0  0  0
   11.9703    4.1319    0.0000 H   0  0  0  0  0  0  0  0  0  0  0  0
    8.5252    2.4050    0.0000 H   0  0  0  0  0  0  0  0  0  0  0  0
   10.4651    2.2850    0.0000 H   0  0  0  0  0  0  0  0  0  0  0  0
    9.6182    0.0581    0.0000 H   0  0  0  0  0  0  0  0  0  0  0  0
   10.4651    0.2850    0.0000 H   0  0  0  0  0  0  0  0  0  0  0  0
   10.2382    1.1319    0.0000 H   0  0  0  0  0  0  0  0  0  0  0  0
  6  1  1  1  0  0  0
  1 59  1  0  0  0  0
  2 19  1  0  0  0  0
  2 75  1  0  0  0  0
 21  3  1  6  0  0  0
  3 76  1  0  0  0  0
  4  5  1  0  0  0  0
  4  7  1  0  0  0  0
  4 10  1  0  0  0  0
  4 11  1  0  0  0  0
  5  6  1  0  0  0  0
  5 44  1  0  0  0  0
  5 45  1  0  0  0  0
  6  8  1  0  0  0  0
  6 46  1  0  0  0  0
  7  9  2  0  0  0  0
  7 12  1  0  0  0  0
  8  9  1  0  0  0  0
  8 47  1  0  0  0  0
  8 48  1  0  0  0  0
  9 13  1  0  0  0  0
 10 49  1  0  0  0  0
 10 50  1  0  0  0  0
 10 54  1  0  0  0  0
 11 51  1  0  0  0  0
 11 52  1  0  0  0  0
 11 53  1  0  0  0  0
 12 14  2  0  0  0  0
 12 55  1  0  0  0  0
 13 56  1  0  0  0  0
 13 57  1  0  0  0  0
 13 58  1  0  0  0  0
 14 15  1  0  0  0  0
 14 60  1  0  0  0  0
 15 16  1  0  0  0  0
 15 17  2  0  0  0  0
 16 61  1  0  0  0  0
 16 62  1  0  0  0  0
 16 63  1  0  0  0  0
 17 18  1  0  0  0  0
 17 64  1  0  0  0  0
 18 20  2  0  0  0  0
 18 65  1  0  0  0  0
 19 21  1  0  0  0  0
 19 22  1  0  0  0  0
 19 23  1  0  0  0  0
 20 24  1  0  0  0  0
 20 66  1  0  0  0  0
 21 25  1  0  0  0  0
 21 67  1  0  0  0  0
 22 68  1  0  0  0  0
 22 69  1  0  0  0  0
 22 70  1  0  0  0  0
 23 71  1  0  0  0  0
 23 72  1  0  0  0  0
 23 73  1  0  0  0  0
 24 27  1  0  0  0  0
 24 28  2  0  0  0  0
 25 26  2  0  0  0  0
 25 74  1  0  0  0  0
 26 29  1  0  0  0  0
 26 77  1  0  0  0  0
 27 78  1  0  0  0  0
 27 79  1  0  0  0  0
 27 80  1  0  0  0  0
 28 32  1  0  0  0  0
 28 81  1  0  0  0  0
 29 30  1  0  0  0  0
 29 31  2  0  0  0  0
 30 82  1  0  0  0  0
 30 83  1  0  0  0  0
 30 84  1  0  0  0  0
 31 33  1  0  0  0  0
 31 85  1  0  0  0  0
 32 34  2  0  0  0  0
 32 86  1  0  0  0  0
 33 35  2  0  0  0  0
 33 87  1  0  0  0  0
 34 37  1  0  0  0  0
 34 88  1  0  0  0  0
 35 36  1  0  0  0  0
 35 89  1  0  0  0  0
 36 39  2  0  0  0  0
 36 40  1  0  0  0  0
 37 38  2  0  0  0  0
 37 90  1  0  0  0  0
 38 41  1  0  0  0  0
 38 43  1  0  0  0  0
 39 42  1  0  0  0  0
 39 91  1  0  0  0  0
 40 92  1  0  0  0  0
 40 93  1  0  0  0  0
 40 94  1  0  0  0  0
 41 42  2  0  0  0  0
 41 95  1  0  0  0  0
 42 96  1  0  0  0  0
 43 97  1  0  0  0  0
 43 98  1  0  0  0  0
 43 99  1  0  0  0  0
M  END
> <PUBCHEM_COMPOUND_CID>
16061290

> <PUBCHEM_COMPOUND_CANONICALIZED>
1

> <PUBCHEM_CACTVS_COMPLEXITY>
1290

> <PUBCHEM_CACTVS_HBOND_ACCEPTOR>
3

> <PUBCHEM_CACTVS_HBOND_DONOR>
3

> <PUBCHEM_CACTVS_ROTATABLE_BOND>
13

> <PUBCHEM_CACTVS_SUBSKEYS>
AAADcfB8MAAAAAAAAAAAAAAAAAAAAAAAAAAgAAAAAAAAAAAAAAAAGgAACAAADlSggAICAAAAAgCAAiBCAAAAAAAgAAAICAAAAAgJFAIAAQAAUAAEwAAJkAOAgMAPAAAAAAAAAAAAAAAAAAAAAAAAAAAAAA==

> <PUBCHEM_IUPAC_OPENEYE_NAME>
(3S,4E,6E,8E,10E,12E,14E,16E,18E,20E,22E,24E)-25-[(4R)-4-hydroxy-2,6,6-trimethyl-cyclohexen-1-yl]-2,6,10,14,19,23-hexamethyl-pentacosa-4,6,8,10,12,14,16,18,20,22,24-undecaene-2,3-diol

> <PUBCHEM_IUPAC_CAS_NAME>
(3S,4E,6E,8E,10E,12E,14E,16E,18E,20E,22E,24E)-25-[(4R)-4-hydroxy-2,6,6-trimethyl-1-cyclohexenyl]-2,6,10,14,19,23-hexamethylpentacosa-4,6,8,10,12,14,16,18,20,22,24-undecaene-2,3-diol

> <PUBCHEM_IUPAC_NAME>
(3S,4E,6E,8E,10E,12E,14E,16E,18E,20E,22E,24E)-25-[(4R)-4-hydroxy-2,6,6-trimethylcyclohexen-1-yl]-2,6,10,14,19,23-hexamethylpentacosa-4,6,8,10,12,14,16,18,20,22,24-undecaene-2,3-diol

> <PUBCHEM_IUPAC_SYSTEMATIC_NAME>
(3S,4E,6E,8E,10E,12E,14E,16E,18E,20E,22E,24E)-2,6,10,14,19,23-hexamethyl-25-[(4R)-2,6,6-trimethyl-4-oxidanyl-cyclohexen-1-yl]pentacosa-4,6,8,10,12,14,16,18,20,22,24-undecaene-2,3-diol

> <PUBCHEM_IUPAC_TRADITIONAL_NAME>
(3S,4E,6E,8E,10E,12E,14E,16E,18E,20E,22E,24E)-25-[(4R)-4-hydroxy-2,6,6-trimethyl-cyclohexen-1-yl]-2,6,10,14,19,23-hexamethyl-pentacosa-4,6,8,10,12,14,16,18,20,22,24-undecaene-2,3-diol

> <PUBCHEM_IUPAC_INCHI>
InChI=1S/C40H56O3/c1-30(18-13-20-32(3)21-15-23-34(5)25-27-38(42)40(9,10)43)16-11-12-17-31(2)19-14-22-33(4)24-26-37-35(6)28-36(41)29-39(37,7)8/h11-27,36,38,41-43H,28-29H2,1-10H3/b12-11+,18-13+,19-14+,21-15+,26-24+,27-25+,30-16+,31-17+,32-20+,33-22+,34-23+/t36-,38+/m1/s1

> <PUBCHEM_IUPAC_INCHIKEY>
JJPMVSRTRMLHST-XDLIQHAKSA-N

> <PUBCHEM_XLOGP3_AA>
10.7

> <PUBCHEM_EXACT_MASS>
584.422946

> <PUBCHEM_MOLECULAR_FORMULA>
C40H56O3

> <PUBCHEM_MOLECULAR_WEIGHT>
584.87084

> <PUBCHEM_OPENEYE_CAN_SMILES>
CC1=C(C(CC(C1)O)(C)C)C=CC(=CC=CC(=CC=CC=C(C)C=CC=C(C)C=CC=C(C)C=CC(C(C)(C)O)O)C)C

> <PUBCHEM_OPENEYE_ISO_SMILES>
CC1=C(C(C[C@@H](C1)O)(C)C)/C=C/C(=C/C=C/C(=C/C=C/C=C(\C)/C=C/C=C(\C)/C=C/C=C(\C)/C=C/[C@@H](C(C)(C)O)O)/C)/C

> <PUBCHEM_CACTVS_TPSA>
60.7

> <PUBCHEM_MONOISOTOPIC_WEIGHT>
584.422946

> <PUBCHEM_TOTAL_CHARGE>
0

> <PUBCHEM_HEAVY_ATOM_COUNT>
43

> <PUBCHEM_ATOM_DEF_STEREO_COUNT>
2

> <PUBCHEM_ATOM_UDEF_STEREO_COUNT>
0

> <PUBCHEM_BOND_DEF_STEREO_COUNT>
11

> <PUBCHEM_BOND_UDEF_STEREO_COUNT>
0

> <PUBCHEM_ISOTOPIC_ATOM_COUNT>
0

> <PUBCHEM_COMPONENT_COUNT>
1

> <PUBCHEM_CACTVS_TAUTO_COUNT>
1

> <PUBCHEM_COORDINATE_TYPE>
1
5
255

> <PUBCHEM_BONDANNOTATIONS>
6  1  5
21  3  6

$$$$

