5006
  -OEChem-06261200282D

 33 34  0     1  0  0  0  0  0999 V2000
    8.6768    2.0944    0.0000 Pr  0  0  0  0  0  0  0  0  0  0  0  0
    7.8282    0.5844    0.0000 N   0  0  3  0  0  0  0  0  0  0  0  0
    7.8167    1.5844    0.0000 N   0  5  0  0  0  0  0  0  0  0  0  0
    4.3083   -1.4849    0.0000 N   0  0  0  0  0  0  0  0  0  0  0  0
    3.4022    0.0706    0.0000 N   0  0  0  0  0  0  0  0  0  0  0  0
    2.5381   -1.4744    0.0000 N   0  0  0  0  0  0  0  0  0  0  0  0
    6.9343   -0.9502    0.0000 C   0  0  3  0  0  0  0  0  0  0  0  0
    6.9343    0.0498    0.0000 C   0  0  3  0  0  0  0  0  0  0  0  0
    7.8282   -1.4849    0.0000 C   0  0  0  0  0  0  0  0  0  0  0  0
    6.0682   -1.4502    0.0000 C   0  0  0  0  0  0  0  0  0  0  0  0
    6.0682    0.5498    0.0000 C   0  0  0  0  0  0  0  0  0  0  0  0
    8.7343   -0.9710    0.0000 C   0  0  0  0  0  0  0  0  0  0  0  0
    8.7343    0.0706    0.0000 C   0  0  0  0  0  0  0  0  0  0  0  0
    5.2022    0.0498    0.0000 C   0  0  0  0  0  0  0  0  0  0  0  0
    5.2022   -0.9502    0.0000 C   0  0  0  0  0  0  0  0  0  0  0  0
    4.3083    0.5844    0.0000 C   0  0  0  0  0  0  0  0  0  0  0  0
    3.4022   -0.9710    0.0000 C   0  0  0  0  0  0  0  0  0  0  0  0
    6.9277   -1.8002    0.0000 H   0  0  0  0  0  0  0  0  0  0  0  0
    6.9277    0.8998    0.0000 H   0  0  0  0  0  0  0  0  0  0  0  0
    7.4236   -1.9547    0.0000 H   0  0  0  0  0  0  0  0  0  0  0  0
    8.2218   -1.9639    0.0000 H   0  0  0  0  0  0  0  0  0  0  0  0
    5.6697   -1.9252    0.0000 H   0  0  0  0  0  0  0  0  0  0  0  0
    6.4668   -1.9252    0.0000 H   0  0  0  0  0  0  0  0  0  0  0  0
    6.4668    1.0247    0.0000 H   0  0  0  0  0  0  0  0  0  0  0  0
    5.6697    1.0247    0.0000 H   0  0  0  0  0  0  0  0  0  0  0  0
    8.9433   -1.5547    0.0000 H   0  0  0  0  0  0  0  0  0  0  0  0
    9.3451   -0.8649    0.0000 H   0  0  0  0  0  0  0  0  0  0  0  0
    9.3451   -0.0355    0.0000 H   0  0  0  0  0  0  0  0  0  0  0  0
    8.9433    0.6543    0.0000 H   0  0  0  0  0  0  0  0  0  0  0  0
    7.2762    1.8882    0.0000 H   0  0  0  0  0  0  0  0  0  0  0  0
    4.3154    1.2044    0.0000 H   0  0  0  0  0  0  0  0  0  0  0  0
    2.0000   -1.1664    0.0000 H   0  0  0  0  0  0  0  0  0  0  0  0
    2.5405   -2.0944    0.0000 H   0  0  0  0  0  0  0  0  0  0  0  0
  2  3  1  0  0  0  0
  2  8  1  0  0  0  0
  2 13  1  0  0  0  0
  3 30  1  0  0  0  0
  4 15  2  0  0  0  0
  4 17  1  0  0  0  0
  5 16  1  0  0  0  0
  5 17  2  0  0  0  0
  6 17  1  0  0  0  0
  6 32  1  0  0  0  0
  6 33  1  0  0  0  0
  7  8  1  0  0  0  0
  7  9  1  0  0  0  0
  7 10  1  0  0  0  0
  7 18  1  0  0  0  0
  8 11  1  0  0  0  0
  8 19  1  0  0  0  0
  9 12  1  0  0  0  0
  9 20  1  0  0  0  0
  9 21  1  0  0  0  0
 10 15  1  0  0  0  0
 10 22  1  0  0  0  0
 10 23  1  0  0  0  0
 11 14  1  0  0  0  0
 11 24  1  0  0  0  0
 11 25  1  0  0  0  0
 12 13  1  0  0  0  0
 12 26  1  0  0  0  0
 12 27  1  0  0  0  0
 13 28  1  0  0  0  0
 13 29  1  0  0  0  0
 14 15  1  0  0  0  0
 14 16  2  0  0  0  0
 16 31  1  0  0  0  0
M  CHG  1   3  -1
M  END
> <PUBCHEM_COMPOUND_CID>
5006

> <PUBCHEM_COMPOUND_CANONICALIZED>
1

> <PUBCHEM_CACTVS_COMPLEXITY>
264

> <PUBCHEM_CACTVS_HBOND_ACCEPTOR>
5

> <PUBCHEM_CACTVS_HBOND_DONOR>
2

> <PUBCHEM_CACTVS_ROTATABLE_BOND>
0

> <PUBCHEM_CACTVS_SUBSKEYS>
AAADceBzgAAAAAAAAAAAAAQAAAAAAAAAAAA8WIAAAAAAAACxgAAAHAAYAAAADSjBHgQtkJZKEACgAxRnZACAgCkxAKAReCA4RBiAKIJA2cGEBAhogALISCMQgMAOAAAAAAAAAACAAQCAAAQAAAAAAAAAAA==

> <PUBCHEM_IUPAC_OPENEYE_NAME>
(2-amino-5a,7,8,9,9a,10-hexahydro-5H-pyrido[2,3-g]quinazolin-6-yl)azanide; praseodymium

> <PUBCHEM_IUPAC_CAS_NAME>
(2-amino-5a,7,8,9,9a,10-hexahydro-5H-pyrido[2,3-g]quinazolin-6-yl)azanide; praseodymium

> <PUBCHEM_IUPAC_NAME>
(2-amino-5a,7,8,9,9a,10-hexahydro-5H-pyrido[2,3-g]quinazolin-6-yl)azanide; praseodymium

> <PUBCHEM_IUPAC_SYSTEMATIC_NAME>
(2-azanyl-5a,7,8,9,9a,10-hexahydro-5H-pyrido[2,3-g]quinazolin-6-yl)azanide; praseodymium

> <PUBCHEM_IUPAC_TRADITIONAL_NAME>
(2-amino-5a,7,8,9,9a,10-hexahydro-5H-pyrido[2,3-g]quinazolin-6-yl)azanide; praseodymium

> <PUBCHEM_IUPAC_INCHI>
InChI=1S/C11H16N5.Pr/c12-11-14-6-8-5-10-7(4-9(8)15-11)2-1-3-16(10)13;/h6-7,10,13H,1-5H2,(H2,12,14,15);/q-1;

> <PUBCHEM_IUPAC_INCHIKEY>
LBUHDRIVSDKHAY-UHFFFAOYSA-N

> <PUBCHEM_EXACT_MASS>
359.048223

> <PUBCHEM_MOLECULAR_FORMULA>
C11H16N5Pr-

> <PUBCHEM_MOLECULAR_WEIGHT>
359.18589

> <PUBCHEM_OPENEYE_CAN_SMILES>
C1CC2CC3=NC(=NC=C3CC2N(C1)[NH-])N.[Pr]

> <PUBCHEM_OPENEYE_ISO_SMILES>
C1CC2CC3=NC(=NC=C3CC2N(C1)[NH-])N.[Pr]

> <PUBCHEM_CACTVS_TPSA>
56

> <PUBCHEM_MONOISOTOPIC_WEIGHT>
359.048223

> <PUBCHEM_TOTAL_CHARGE>
-1

> <PUBCHEM_HEAVY_ATOM_COUNT>
17

> <PUBCHEM_ATOM_DEF_STEREO_COUNT>
0

> <PUBCHEM_ATOM_UDEF_STEREO_COUNT>
2

> <PUBCHEM_BOND_DEF_STEREO_COUNT>
0

> <PUBCHEM_BOND_UDEF_STEREO_COUNT>
0

> <PUBCHEM_ISOTOPIC_ATOM_COUNT>
0

> <PUBCHEM_COMPONENT_COUNT>
2

> <PUBCHEM_CACTVS_TAUTO_COUNT>
6

> <PUBCHEM_NONSTANDARDBOND>
1  3  6

> <PUBCHEM_COORDINATE_TYPE>
1
5
255

> <PUBCHEM_BONDANNOTATIONS>
14  15  8
14  16  8
4  15  8
4  17  8
5  16  8
5  17  8
7  18  3
8  19  3

$$$$

