   Color/Form
        White powder
   from [1]HSDB

   Melting Point
        88.1 deg C
   from [2]HSDB

   Density/Specific Gravity
        1.44 g/cu cm at 20 deg C
   from [3]HSDB

   Octanol/Water Partition Coefficient
        log Kow = 4.65
   from [4]HSDB

   Solubilities

     * Solubility in n-octanol 14.5 g/L, methanol 103 g/L, acetonitrile
       139 g/L, acetone >250 g/kg (all at 25 deg C)
     * In water, 0.20 mg/L at 20 deg C

   from [5]HSDB

   Vapor Pressure
        1.9X10-10 mm Hg at 25 deg C
   from [6]HSDB

   Other Chemical/Physical Properties

     * Henry's Law constant = 6.6X10-10 atm-cu m/mol at 25 deg C
       /Estimated/
     * Hydroxyl radical reaction rate constant = 4.2X10-11 cu cm/molecule
       sec at 25 deg C /Estimated/

   from [7]HSDB

   Computed Properties
   Molecular Weight                  527.83449 [g/mol]
   Molecular Formula                 C[22]H[17]ClF[3]N[3]O[7]
   XLogP3-AA                         4.8
   H-Bond Donor                      0
   H-Bond Acceptor                   11
   Rotatable Bond Count              5
   Exact Mass                        527.070712
   MonoIsotopic Mass                 527.070712
   Topological Polar Surface Area    107
   Heavy Atom Count                  36
   Formal Charge                     0
   Complexity                        912
   Isotope Atom Count                0
   Defined Atom Stereocenter Count   1
   Undefined Atom Stereocenter Count 0
   Defined Bond Stereocenter Count   0
   Undefined Bond Stereocenter Count 0
   Covalently-Bonded Unit Count      1
   Feature 3D Acceptor Count         6
   Feature 3D Ring Count             4
   Effective Rotor Count             9.8
   Conformer Sampling RMSD           1
   CID Conformer Count               [8]48

References

   1. http://toxnet.nlm.nih.gov/cgi-bin/sis/search/r?dbs+hsdb:@term+@rn+@rel+173584-44-6
   2. http://toxnet.nlm.nih.gov/cgi-bin/sis/search/r?dbs+hsdb:@term+@rn+@rel+173584-44-6
   3. http://toxnet.nlm.nih.gov/cgi-bin/sis/search/r?dbs+hsdb:@term+@rn+@rel+173584-44-6
   4. http://toxnet.nlm.nih.gov/cgi-bin/sis/search/r?dbs+hsdb:@term+@rn+@rel+173584-44-6
   5. http://toxnet.nlm.nih.gov/cgi-bin/sis/search/r?dbs+hsdb:@term+@rn+@rel+173584-44-6
   6. http://toxnet.nlm.nih.gov/cgi-bin/sis/search/r?dbs+hsdb:@term+@rn+@rel+173584-44-6
   7. http://toxnet.nlm.nih.gov/cgi-bin/sis/search/r?dbs+hsdb:@term+@rn+@rel+173584-44-6
   8. http://pubchem.ncbi.nlm.nih.gov/vw3d/vw3d.cgi?cid=107720
