   Color/Form
        Colorless liquid
   from [1]HSDB

   Color/Form

     * Platelets from alcohol
     * White crystals

   from [2]HSDB

   Boiling Point
        415 deg F (213 deg C)
   from [3]HSDB

   Boiling Point
        218.5 deg C
   from [4]HSDB

   Melting Point
        51.3 deg C
   from [5]HSDB

   Critical Temperature and Pressure
        Critical temperature: 489.5 deg C; Critical pressure: 3.01 mPa
   from [6]HSDB

   Density/Specific Gravity
        1.4533 g/cu cm at 25 deg C
   from [7]HSDB

   Heat of Vaporization
        291 J/g at 100 deg C; 271.7 J/g at 150 deg C; 251.6 J/g at 200 deg
   C
   from [8]HSDB

   Octanol/Water Partition Coefficient
        log Kow = 4.05
   from [9]HSDB

   Solubilities
        In water, 30 mg/L at 25 deg C
   from [10]HSDB

   Solubilities

     * Slightly soluble in ethanol; very soluble in ether and benzene
     * Sparingly sol in alcohol; freely sol in carbon disulfide
     * In water, 18 mg/L at 25 deg C. [Choi CT et al; Environ Sci Technol
       20: 502-8 (1986)] [11]PubMed Abstract

   from [12]HSDB

   Spectral Properties

     * Max absorption (alcohol): 265 nm (log e = 2.10); 273 nm (log e =
       2.20); 280 nm (log e = 2.10)
     * Intense mass spectral peaks: 180 m/z (100%), 182 m/z (97%), 184 m/z
       (31%), 145 m/z (26%)
     * MASS: 7508 (NIST/EPA/MSDC Mass Spectral database, 1990 version);
       1221 (Atlas of Mass Spectral Data, John Wiley & Sons, New York)
     * IR: 5687 (Coblentz Society Spectral Collection)
     * UV: 1673 (Sadtler Research Laboratories Spectral Collection)
     * 1H NMR: 266 (Sadtler Research Laboratories Spectral Collection)
     * 13C NMR: 146 (Johnson and Jankowski, Cabon-13 NMR Spectra, Jphn
       Wiley & Sons, New York)

   from [13]HSDB

   Vapor Density
        1.460 g/cu m
   from [14]HSDB

   Vapor Pressure
        0.21 mm Hg at 25 deg C
   from [15]HSDB

   Viscosity
        1.68 mPa.s at 50 deg C
   from [16]HSDB

   Other Chemical/Physical Properties

     * Enthalpy of fusion: 17.9 kJ/mol
     * Henry's Law constant = 1.25X10-3 atm-cu m/mol
     * Hydroxyl radical reaction rate constant = 2.8X10-13 cu cm/molec-sec
       at 25 deg C (est)

   from [17]HSDB

   Computed Properties
   Molecular Weight                  181.44702 [g/mol]
   Molecular Formula                 C[6]H[3]Cl[3]
   XLogP3                            4.1
   H-Bond Donor                      0
   H-Bond Acceptor                   0
   Rotatable Bond Count              0
   Exact Mass                        179.930033
   MonoIsotopic Mass                 179.930033
   Topological Polar Surface Area    0
   Heavy Atom Count                  9
   Formal Charge                     0
   Complexity                        84.3
   Isotope Atom Count                0
   Defined Atom Stereocenter Count   0
   Undefined Atom Stereocenter Count 0
   Defined Bond Stereocenter Count   0
   Undefined Bond Stereocenter Count 0
   Covalently-Bonded Unit Count      1
   Feature 3D Ring Count             1
   Effective Rotor Count             0
   Conformer Sampling RMSD           0.4
   CID Conformer Count               [18]1

References

   1. http://toxnet.nlm.nih.gov/cgi-bin/sis/search/r?dbs+hsdb:@term+@rn+@rel+12002-48-1
   2. http://toxnet.nlm.nih.gov/cgi-bin/sis/search/r?dbs+hsdb:@term+@rn+@rel+87-61-6
   3. http://toxnet.nlm.nih.gov/cgi-bin/sis/search/r?dbs+hsdb:@term+@rn+@rel+12002-48-1
   4. http://toxnet.nlm.nih.gov/cgi-bin/sis/search/r?dbs+hsdb:@term+@rn+@rel+87-61-6
   5. http://toxnet.nlm.nih.gov/cgi-bin/sis/search/r?dbs+hsdb:@term+@rn+@rel+87-61-6
   6. http://toxnet.nlm.nih.gov/cgi-bin/sis/search/r?dbs+hsdb:@term+@rn+@rel+87-61-6
   7. http://toxnet.nlm.nih.gov/cgi-bin/sis/search/r?dbs+hsdb:@term+@rn+@rel+87-61-6
   8. http://toxnet.nlm.nih.gov/cgi-bin/sis/search/r?dbs+hsdb:@term+@rn+@rel+87-61-6
   9. http://toxnet.nlm.nih.gov/cgi-bin/sis/search/r?dbs+hsdb:@term+@rn+@rel+87-61-6
  10. http://toxnet.nlm.nih.gov/cgi-bin/sis/search/r?dbs+hsdb:@term+@rn+@rel+12002-48-1
  11. http://www.ncbi.nlm.nih.gov/entrez/query.fcgi?cmd=Retrieve&db=pubmed&dopt=Abstract&list_uids=19994935
  12. http://toxnet.nlm.nih.gov/cgi-bin/sis/search/r?dbs+hsdb:@term+@rn+@rel+87-61-6
  13. http://toxnet.nlm.nih.gov/cgi-bin/sis/search/r?dbs+hsdb:@term+@rn+@rel+87-61-6
  14. http://toxnet.nlm.nih.gov/cgi-bin/sis/search/r?dbs+hsdb:@term+@rn+@rel+12002-48-1
  15. http://toxnet.nlm.nih.gov/cgi-bin/sis/search/r?dbs+hsdb:@term+@rn+@rel+87-61-6
  16. http://toxnet.nlm.nih.gov/cgi-bin/sis/search/r?dbs+hsdb:@term+@rn+@rel+87-61-6
  17. http://toxnet.nlm.nih.gov/cgi-bin/sis/search/r?dbs+hsdb:@term+@rn+@rel+87-61-6
  18. http://pubchem.ncbi.nlm.nih.gov/vw3d/vw3d.cgi?cid=6895
