17395968
  -OEChem-06241222532D

 70 72  0     1  0  0  0  0  0999 V2000
    4.5981    3.0000    0.0000 S   0  0  0  0  0  0  0  0  0  0  0  0
    8.9282   -2.5000    0.0000 O   0  0  0  0  0  0  0  0  0  0  0  0
    5.5981    3.0000    0.0000 O   0  0  0  0  0  0  0  0  0  0  0  0
    3.5981    3.0000    0.0000 O   0  0  0  0  0  0  0  0  0  0  0  0
    5.4641   -1.5000    0.0000 O   0  0  0  0  0  0  0  0  0  0  0  0
    2.8660    2.0000    0.0000 O   0  0  0  0  0  0  0  0  0  0  0  0
    4.5981    4.0000    0.0000 N   0  0  0  0  0  0  0  0  0  0  0  0
    7.1962   -2.5000    0.0000 N   0  0  0  0  0  0  0  0  0  0  0  0
    6.3301    0.0000    0.0000 N   0  0  0  0  0  0  0  0  0  0  0  0
    8.0622   -4.0000    0.0000 C   0  0  0  0  0  0  0  0  0  0  0  0
    7.1962   -4.5000    0.0000 C   0  0  0  0  0  0  0  0  0  0  0  0
    8.9282   -4.5000    0.0000 C   0  0  0  0  0  0  0  0  0  0  0  0
    8.9282   -5.5000    0.0000 C   0  0  0  0  0  0  0  0  0  0  0  0
    7.1962   -5.5000    0.0000 C   0  0  0  0  0  0  0  0  0  0  0  0
    8.0622   -6.0000    0.0000 C   0  0  0  0  0  0  0  0  0  0  0  0
    8.0622   -3.0000    0.0000 C   0  0  0  0  0  0  0  0  0  0  0  0
    5.4641    4.5000    0.0000 C   0  0  0  0  0  0  0  0  0  0  0  0
    3.7320    4.5000    0.0000 C   0  0  0  0  0  0  0  0  0  0  0  0
    3.7320    5.5000    0.0000 C   0  0  0  0  0  0  0  0  0  0  0  0
    5.4641    5.5000    0.0000 C   0  0  0  0  0  0  0  0  0  0  0  0
    4.5981    6.0000    0.0000 C   0  0  0  0  0  0  0  0  0  0  0  0
    7.1962   -1.5000    0.0000 C   0  0  3  0  0  0  0  0  0  0  0  0
    8.0622   -1.0000    0.0000 C   0  0  0  0  0  0  0  0  0  0  0  0
    4.5981    2.0000    0.0000 C   0  0  0  0  0  0  0  0  0  0  0  0
    6.3301   -1.0000    0.0000 C   0  0  0  0  0  0  0  0  0  0  0  0
    8.9282   -1.5000    0.0000 C   0  0  0  0  0  0  0  0  0  0  0  0
    8.0622    0.0000    0.0000 C   0  0  0  0  0  0  0  0  0  0  0  0
    5.4641    1.5000    0.0000 C   0  0  0  0  0  0  0  0  0  0  0  0
    5.4641    0.5000    0.0000 C   0  0  0  0  0  0  0  0  0  0  0  0
    3.7320    1.5000    0.0000 C   0  0  0  0  0  0  0  0  0  0  0  0
    4.5981    0.0000    0.0000 C   0  0  0  0  0  0  0  0  0  0  0  0
    3.7320    0.5000    0.0000 C   0  0  0  0  0  0  0  0  0  0  0  0
    2.0000    1.5000    0.0000 C   0  0  0  0  0  0  0  0  0  0  0  0
    7.5252   -3.6900    0.0000 H   0  0  0  0  0  0  0  0  0  0  0  0
    9.5388   -4.6077    0.0000 H   0  0  0  0  0  0  0  0  0  0  0  0
    9.1403   -3.9174    0.0000 H   0  0  0  0  0  0  0  0  0  0  0  0
    6.9841   -3.9174    0.0000 H   0  0  0  0  0  0  0  0  0  0  0  0
    6.5856   -4.6077    0.0000 H   0  0  0  0  0  0  0  0  0  0  0  0
    9.1403   -6.0826    0.0000 H   0  0  0  0  0  0  0  0  0  0  0  0
    9.5388   -5.3923    0.0000 H   0  0  0  0  0  0  0  0  0  0  0  0
    6.5856   -5.3923    0.0000 H   0  0  0  0  0  0  0  0  0  0  0  0
    6.9841   -6.0826    0.0000 H   0  0  0  0  0  0  0  0  0  0  0  0
    7.6636   -6.4750    0.0000 H   0  0  0  0  0  0  0  0  0  0  0  0
    8.4607   -6.4750    0.0000 H   0  0  0  0  0  0  0  0  0  0  0  0
    3.1215    4.6077    0.0000 H   0  0  0  0  0  0  0  0  0  0  0  0
    3.5200    3.9174    0.0000 H   0  0  0  0  0  0  0  0  0  0  0  0
    5.6762    3.9174    0.0000 H   0  0  0  0  0  0  0  0  0  0  0  0
    6.0747    4.6077    0.0000 H   0  0  0  0  0  0  0  0  0  0  0  0
    3.5200    6.0826    0.0000 H   0  0  0  0  0  0  0  0  0  0  0  0
    3.1215    5.3923    0.0000 H   0  0  0  0  0  0  0  0  0  0  0  0
    6.0747    5.3923    0.0000 H   0  0  0  0  0  0  0  0  0  0  0  0
    5.6762    6.0826    0.0000 H   0  0  0  0  0  0  0  0  0  0  0  0
    4.9966    6.4750    0.0000 H   0  0  0  0  0  0  0  0  0  0  0  0
    4.1996    6.4750    0.0000 H   0  0  0  0  0  0  0  0  0  0  0  0
    6.6592   -1.8100    0.0000 H   0  0  0  0  0  0  0  0  0  0  0  0
    6.6592   -2.8100    0.0000 H   0  0  0  0  0  0  0  0  0  0  0  0
    8.0622   -1.6200    0.0000 H   0  0  0  0  0  0  0  0  0  0  0  0
    8.6822    0.0000    0.0000 H   0  0  0  0  0  0  0  0  0  0  0  0
    8.0622    0.6200    0.0000 H   0  0  0  0  0  0  0  0  0  0  0  0
    7.4422    0.0000    0.0000 H   0  0  0  0  0  0  0  0  0  0  0  0
    8.6182   -2.0369    0.0000 H   0  0  0  0  0  0  0  0  0  0  0  0
    9.4651   -1.8100    0.0000 H   0  0  0  0  0  0  0  0  0  0  0  0
    9.2382   -0.9631    0.0000 H   0  0  0  0  0  0  0  0  0  0  0  0
    6.0010    1.8100    0.0000 H   0  0  0  0  0  0  0  0  0  0  0  0
    6.8671    0.3100    0.0000 H   0  0  0  0  0  0  0  0  0  0  0  0
    4.5981   -0.6200    0.0000 H   0  0  0  0  0  0  0  0  0  0  0  0
    3.1951    0.1900    0.0000 H   0  0  0  0  0  0  0  0  0  0  0  0
    1.6900    2.0369    0.0000 H   0  0  0  0  0  0  0  0  0  0  0  0
    1.4631    1.1900    0.0000 H   0  0  0  0  0  0  0  0  0  0  0  0
    2.3100    0.9631    0.0000 H   0  0  0  0  0  0  0  0  0  0  0  0
  1  3  2  0  0  0  0
  1  4  2  0  0  0  0
  1  7  1  0  0  0  0
  1 24  1  0  0  0  0
  2 16  2  0  0  0  0
  5 25  2  0  0  0  0
  6 30  1  0  0  0  0
  6 33  1  0  0  0  0
  7 17  1  0  0  0  0
  7 18  1  0  0  0  0
  8 16  1  0  0  0  0
  8 22  1  0  0  0  0
  8 56  1  0  0  0  0
  9 25  1  0  0  0  0
  9 29  1  0  0  0  0
  9 65  1  0  0  0  0
 10 11  1  0  0  0  0
 10 12  1  0  0  0  0
 10 16  1  0  0  0  0
 10 34  1  0  0  0  0
 11 14  1  0  0  0  0
 11 37  1  0  0  0  0
 11 38  1  0  0  0  0
 12 13  1  0  0  0  0
 12 35  1  0  0  0  0
 12 36  1  0  0  0  0
 13 15  1  0  0  0  0
 13 39  1  0  0  0  0
 13 40  1  0  0  0  0
 14 15  1  0  0  0  0
 14 41  1  0  0  0  0
 14 42  1  0  0  0  0
 15 43  1  0  0  0  0
 15 44  1  0  0  0  0
 17 20  1  0  0  0  0
 17 47  1  0  0  0  0
 17 48  1  0  0  0  0
 18 19  1  0  0  0  0
 18 45  1  0  0  0  0
 18 46  1  0  0  0  0
 19 21  1  0  0  0  0
 19 49  1  0  0  0  0
 19 50  1  0  0  0  0
 20 21  1  0  0  0  0
 20 51  1  0  0  0  0
 20 52  1  0  0  0  0
 21 53  1  0  0  0  0
 21 54  1  0  0  0  0
 22 23  1  0  0  0  0
 22 25  1  0  0  0  0
 22 55  1  0  0  0  0
 23 26  1  0  0  0  0
 23 27  1  0  0  0  0
 23 57  1  0  0  0  0
 24 28  1  0  0  0  0
 24 30  2  0  0  0  0
 26 61  1  0  0  0  0
 26 62  1  0  0  0  0
 26 63  1  0  0  0  0
 27 58  1  0  0  0  0
 27 59  1  0  0  0  0
 27 60  1  0  0  0  0
 28 29  2  0  0  0  0
 28 64  1  0  0  0  0
 29 31  1  0  0  0  0
 30 32  1  0  0  0  0
 31 32  2  0  0  0  0
 31 66  1  0  0  0  0
 32 67  1  0  0  0  0
 33 68  1  0  0  0  0
 33 69  1  0  0  0  0
 33 70  1  0  0  0  0
M  END
> <PUBCHEM_COMPOUND_CID>
17395968

> <PUBCHEM_COMPOUND_CANONICALIZED>
1

> <PUBCHEM_CACTVS_COMPLEXITY>
755

> <PUBCHEM_CACTVS_HBOND_ACCEPTOR>
6

> <PUBCHEM_CACTVS_HBOND_DONOR>
2

> <PUBCHEM_CACTVS_ROTATABLE_BOND>
8

> <PUBCHEM_CACTVS_SUBSKEYS>
AAADcfB7OABAAAAAAAAAAAAAAAAAAAAAAAA8YIAAAAAAAAABAAAAHgQQQAAADSzB0AYyx4LABAKIACVSUHDCCBAhIgAIiJuObIgMZjLEsbuUMCxk1hHI6Ae4yACOAEAAACAAIAAAgAAAQABAAAAAAAAAAA==

> <PUBCHEM_IUPAC_OPENEYE_NAME>
N-[1-[[4-methoxy-3-(1-piperidylsulfonyl)phenyl]carbamoyl]-2-methyl-propyl]cyclohexanecarboxamide

> <PUBCHEM_IUPAC_CAS_NAME>
N-[1-[4-methoxy-3-(1-piperidinylsulfonyl)anilino]-3-methyl-1-oxobutan-2-yl]cyclohexanecarboxamide

> <PUBCHEM_IUPAC_NAME>
N-[1-(4-methoxy-3-piperidin-1-ylsulfonylanilino)-3-methyl-1-oxobutan-2-yl]cyclohexanecarboxamide

> <PUBCHEM_IUPAC_SYSTEMATIC_NAME>
N-[1-[(4-methoxy-3-piperidin-1-ylsulfonyl-phenyl)amino]-3-methyl-1-oxidanylidene-butan-2-yl]cyclohexanecarboxamide

> <PUBCHEM_IUPAC_TRADITIONAL_NAME>
N-[1-[(4-methoxy-3-piperidinosulfonyl-phenyl)carbamoyl]-2-methyl-propyl]cyclohexanecarboxamide

> <PUBCHEM_IUPAC_INCHI>
InChI=1S/C24H37N3O5S/c1-17(2)22(26-23(28)18-10-6-4-7-11-18)24(29)25-19-12-13-20(32-3)21(16-19)33(30,31)27-14-8-5-9-15-27/h12-13,16-18,22H,4-11,14-15H2,1-3H3,(H,25,29)(H,26,28)

> <PUBCHEM_IUPAC_INCHIKEY>
HVKGUPNPVJAVEQ-UHFFFAOYSA-N

> <PUBCHEM_XLOGP3_AA>
3.9

> <PUBCHEM_EXACT_MASS>
479.245392

> <PUBCHEM_MOLECULAR_FORMULA>
C24H37N3O5S

> <PUBCHEM_MOLECULAR_WEIGHT>
479.63268

> <PUBCHEM_OPENEYE_CAN_SMILES>
CC(C)C(C(=O)NC1=CC(=C(C=C1)OC)S(=O)(=O)N2CCCCC2)NC(=O)C3CCCCC3

> <PUBCHEM_OPENEYE_ISO_SMILES>
CC(C)C(C(=O)NC1=CC(=C(C=C1)OC)S(=O)(=O)N2CCCCC2)NC(=O)C3CCCCC3

> <PUBCHEM_CACTVS_TPSA>
113

> <PUBCHEM_MONOISOTOPIC_WEIGHT>
479.245392

> <PUBCHEM_TOTAL_CHARGE>
0

> <PUBCHEM_HEAVY_ATOM_COUNT>
33

> <PUBCHEM_ATOM_DEF_STEREO_COUNT>
0

> <PUBCHEM_ATOM_UDEF_STEREO_COUNT>
1

> <PUBCHEM_BOND_DEF_STEREO_COUNT>
0

> <PUBCHEM_BOND_UDEF_STEREO_COUNT>
0

> <PUBCHEM_ISOTOPIC_ATOM_COUNT>
0

> <PUBCHEM_COMPONENT_COUNT>
1

> <PUBCHEM_CACTVS_TAUTO_COUNT>
6

> <PUBCHEM_COORDINATE_TYPE>
1
5
255

> <PUBCHEM_BONDANNOTATIONS>
22  23  3
24  28  8
24  30  8
28  29  8
29  31  8
30  32  8
31  32  8

$$$$

