441724
  -OEChem-07051212552D

 75 81  0     1  0  0  0  0  0999 V2000
    7.8725   -1.4890    0.0000 O   0  0  0  0  0  0  0  0  0  0  0  0
    8.5634   -0.0542    0.0000 O   0  0  0  0  0  0  0  0  0  0  0  0
    6.1234   -1.9268    0.0000 O   0  0  0  0  0  0  0  0  0  0  0  0
    4.9163    1.8904    0.0000 O   0  0  0  0  0  0  0  0  0  0  0  0
    8.6327    1.6388    0.0000 O   0  0  0  0  0  0  0  0  0  0  0  0
    9.0340    2.3483    0.0000 O   0  0  0  0  0  0  0  0  0  0  0  0
    4.0503   -2.3448    0.0000 O   0  0  0  0  0  0  0  0  0  0  0  0
    3.7210    0.0613    0.0000 N   0  0  3  0  0  0  0  0  0  0  0  0
    5.6676    0.4566    0.0000 C   0  0  1  0  0  0  0  0  0  0  0  0
    7.1918   -0.7589    0.0000 C   0  0  2  0  0  0  0  0  0  0  0  0
    4.6656    0.3505    0.0000 C   0  0  3  0  0  0  0  0  0  0  0  0
    5.6676   -0.4110    0.0000 C   0  0  2  0  0  0  0  0  0  0  0  0
    6.3459    0.9975    0.0000 C   0  0  1  0  0  0  0  0  0  0  0  0
    7.5682    0.0228    0.0000 C   0  0  1  0  0  0  0  0  0  0  0  0
    7.1918    0.8044    0.0000 C   0  0  1  0  0  0  0  0  0  0  0  0
    6.3459   -0.9519    0.0000 C   0  0  2  0  0  0  0  0  0  0  0  0
    4.9163   -0.8448    0.0000 C   0  0  2  0  0  0  0  0  0  0  0  0
    4.9163    0.8904    0.0000 C   0  0  2  0  0  0  0  0  0  0  0  0
    6.2682    1.8616    0.0000 C   0  0  0  0  0  0  0  0  0  0  0  0
    7.0659    2.2026    0.0000 C   0  0  1  0  0  0  0  0  0  0  0  0
    7.6367    1.5492    0.0000 C   0  0  2  0  0  0  0  0  0  0  0  0
    8.2131    0.2927    0.0000 C   0  0  0  0  0  0  0  0  0  0  0  0
    3.7210   -0.6906    0.0000 C   0  0  0  0  0  0  0  0  0  0  0  0
    8.2131    1.7772    0.0000 C   0  0  2  0  0  0  0  0  0  0  0  0
    4.1649   -0.4110    0.0000 C   0  0  0  0  0  0  0  0  0  0  0  0
    4.1649    0.4566    0.0000 C   0  0  0  0  0  0  0  0  0  0  0  0
    4.9163   -1.8448    0.0000 C   0  0  0  0  0  0  0  0  0  0  0  0
    8.7604   -1.0328    0.0000 C   0  0  0  0  0  0  0  0  0  0  0  0
    2.9170    0.6560    0.0000 C   0  0  0  0  0  0  0  0  0  0  0  0
    2.0000    0.2571    0.0000 C   0  0  0  0  0  0  0  0  0  0  0  0
    4.0502    2.3904    0.0000 C   0  0  0  0  0  0  0  0  0  0  0  0
    9.2083    0.8211    0.0000 C   0  0  0  0  0  0  0  0  0  0  0  0
    8.9498    3.3448    0.0000 C   0  0  0  0  0  0  0  0  0  0  0  0
    4.0503   -3.3448    0.0000 C   0  0  0  0  0  0  0  0  0  0  0  0
    4.5417    0.9580    0.0000 H   0  0  0  0  0  0  0  0  0  0  0  0
    5.6041   -1.2586    0.0000 H   0  0  0  0  0  0  0  0  0  0  0  0
    5.5643    1.3316    0.0000 H   0  0  0  0  0  0  0  0  0  0  0  0
    8.0409    0.7663    0.0000 H   0  0  0  0  0  0  0  0  0  0  0  0
    5.7607   -1.1567    0.0000 H   0  0  0  0  0  0  0  0  0  0  0  0
    5.4532    1.2004    0.0000 H   0  0  0  0  0  0  0  0  0  0  0  0
    6.0854    2.4540    0.0000 H   0  0  0  0  0  0  0  0  0  0  0  0
    5.6598    1.7418    0.0000 H   0  0  0  0  0  0  0  0  0  0  0  0
    7.0452    3.0523    0.0000 H   0  0  0  0  0  0  0  0  0  0  0  0
    7.8676    2.1246    0.0000 H   0  0  0  0  0  0  0  0  0  0  0  0
    8.3750   -0.3058    0.0000 H   0  0  0  0  0  0  0  0  0  0  0  0
    8.8277    0.3744    0.0000 H   0  0  0  0  0  0  0  0  0  0  0  0
    3.1015   -0.6640    0.0000 H   0  0  0  0  0  0  0  0  0  0  0  0
    3.6680   -1.3083    0.0000 H   0  0  0  0  0  0  0  0  0  0  0  0
    8.1349    2.3923    0.0000 H   0  0  0  0  0  0  0  0  0  0  0  0
    3.5544   -0.3033    0.0000 H   0  0  0  0  0  0  0  0  0  0  0  0
    3.9529   -0.9936    0.0000 H   0  0  0  0  0  0  0  0  0  0  0  0
    3.9529    1.0392    0.0000 H   0  0  0  0  0  0  0  0  0  0  0  0
    3.5544    0.3489    0.0000 H   0  0  0  0  0  0  0  0  0  0  0  0
    5.1283   -2.4274    0.0000 H   0  0  0  0  0  0  0  0  0  0  0  0
    5.5269   -1.7371    0.0000 H   0  0  0  0  0  0  0  0  0  0  0  0
    8.9919   -1.6080    0.0000 H   0  0  0  0  0  0  0  0  0  0  0  0
    9.3544   -0.8552    0.0000 H   0  0  0  0  0  0  0  0  0  0  0  0
    6.5779   -2.3486    0.0000 H   0  0  0  0  0  0  0  0  0  0  0  0
    3.3666    1.0829    0.0000 H   0  0  0  0  0  0  0  0  0  0  0  0
    2.5747    1.1730    0.0000 H   0  0  0  0  0  0  0  0  0  0  0  0
    1.7527    0.8256    0.0000 H   0  0  0  0  0  0  0  0  0  0  0  0
    1.4315    0.0098    0.0000 H   0  0  0  0  0  0  0  0  0  0  0  0
    2.2473   -0.3114    0.0000 H   0  0  0  0  0  0  0  0  0  0  0  0
    4.3602    2.9273    0.0000 H   0  0  0  0  0  0  0  0  0  0  0  0
    3.5133    2.7004    0.0000 H   0  0  0  0  0  0  0  0  0  0  0  0
    3.7402    1.8534    0.0000 H   0  0  0  0  0  0  0  0  0  0  0  0
    8.7013    0.4643    0.0000 H   0  0  0  0  0  0  0  0  0  0  0  0
    9.5652    0.3141    0.0000 H   0  0  0  0  0  0  0  0  0  0  0  0
    9.7153    1.1780    0.0000 H   0  0  0  0  0  0  0  0  0  0  0  0
    9.5676    3.3970    0.0000 H   0  0  0  0  0  0  0  0  0  0  0  0
    8.8976    3.9626    0.0000 H   0  0  0  0  0  0  0  0  0  0  0  0
    8.3320    3.2926    0.0000 H   0  0  0  0  0  0  0  0  0  0  0  0
    3.4303   -3.3448    0.0000 H   0  0  0  0  0  0  0  0  0  0  0  0
    4.0503   -3.9648    0.0000 H   0  0  0  0  0  0  0  0  0  0  0  0
    4.6703   -3.3448    0.0000 H   0  0  0  0  0  0  0  0  0  0  0  0
 10  1  1  6  0  0  0
  1 28  1  0  0  0  0
 14  2  1  1  0  0  0
  2 28  1  0  0  0  0
 16  3  1  1  0  0  0
  3 58  1  0  0  0  0
 18  4  1  6  0  0  0
  4 31  1  0  0  0  0
 21  5  1  6  0  0  0
  5 32  1  0  0  0  0
 24  6  1  1  0  0  0
  6 33  1  0  0  0  0
  7 27  1  0  0  0  0
  7 34  1  0  0  0  0
  8 11  1  0  0  0  0
  8 23  1  0  0  0  0
  8 29  1  0  0  0  0
  9 11  1  0  0  0  0
  9 12  1  0  0  0  0
  9 13  1  0  0  0  0
  9 18  1  1  0  0  0
 10 11  1  0  0  0  0
 10 14  1  0  0  0  0
 10 16  1  0  0  0  0
 11 35  1  0  0  0  0
 12 16  1  0  0  0  0
 12 17  1  0  0  0  0
 12 36  1  1  0  0  0
 13 15  1  0  0  0  0
 13 19  1  0  0  0  0
 13 37  1  1  0  0  0
 14 15  1  0  0  0  0
 14 22  1  0  0  0  0
 15 21  1  0  0  0  0
 15 38  1  1  0  0  0
 16 39  1  0  0  0  0
 17 23  1  0  0  0  0
 17 25  1  0  0  0  0
 17 27  1  1  0  0  0
 18 26  1  0  0  0  0
 18 40  1  0  0  0  0
 19 20  1  0  0  0  0
 19 41  1  0  0  0  0
 19 42  1  0  0  0  0
 20 21  1  0  0  0  0
 20 24  1  0  0  0  0
 20 43  1  1  0  0  0
 21 44  1  0  0  0  0
 22 24  1  0  0  0  0
 22 45  1  0  0  0  0
 22 46  1  0  0  0  0
 23 47  1  0  0  0  0
 23 48  1  0  0  0  0
 24 49  1  0  0  0  0
 25 26  1  0  0  0  0
 25 50  1  0  0  0  0
 25 51  1  0  0  0  0
 26 52  1  0  0  0  0
 26 53  1  0  0  0  0
 27 54  1  0  0  0  0
 27 55  1  0  0  0  0
 28 56  1  0  0  0  0
 28 57  1  0  0  0  0
 29 30  1  0  0  0  0
 29 59  1  0  0  0  0
 29 60  1  0  0  0  0
 30 61  1  0  0  0  0
 30 62  1  0  0  0  0
 30 63  1  0  0  0  0
 31 64  1  0  0  0  0
 31 65  1  0  0  0  0
 31 66  1  0  0  0  0
 32 67  1  0  0  0  0
 32 68  1  0  0  0  0
 32 69  1  0  0  0  0
 33 70  1  0  0  0  0
 33 71  1  0  0  0  0
 33 72  1  0  0  0  0
 34 73  1  0  0  0  0
 34 74  1  0  0  0  0
 34 75  1  0  0  0  0
M  END
> <PUBCHEM_COMPOUND_CID>
441724

> <PUBCHEM_COMPOUND_CANONICALIZED>
1

> <PUBCHEM_CACTVS_COMPLEXITY>
859

> <PUBCHEM_CACTVS_HBOND_ACCEPTOR>
8

> <PUBCHEM_CACTVS_HBOND_DONOR>
1

> <PUBCHEM_CACTVS_ROTATABLE_BOND>
6

> <PUBCHEM_CACTVS_SUBSKEYS>
AAADcfB6OAAAAAAAAAAAAAAAAAAAAaIAAAA8YMEAB4gWAGiQAAAAHgAACAAAD3zhgAcCCAMABgAAAAAAAAAAAAAAAAAAAAAIAAATEAIAgAAlQAAHAACXAAHw8P8PgAAAAAAAAADQAAaUADSgAaEADSgAAA==

> <PUBCHEM_IUPAC_INCHI>
InChI=1S/C26H41NO7/c1-6-27-11-23(12-29-2)8-7-17(31-4)25-15-9-14-16(30-3)10-24(18(15)19(14)32-5)26(22(25)27,34-13-33-24)21(28)20(23)25/h14-22,28H,6-13H2,1-5H3/t14-,15-,16+,17+,18-,19+,20-,21+,22?,23+,24-,25+,26-/m1/s1

> <PUBCHEM_IUPAC_INCHIKEY>
XTLROSDJDZHIIK-VIGIWSGCSA-N

> <PUBCHEM_XLOGP3_AA>
0.4

> <PUBCHEM_EXACT_MASS>
479.288303

> <PUBCHEM_MOLECULAR_FORMULA>
C26H41NO7

> <PUBCHEM_MOLECULAR_WEIGHT>
479.60624

> <PUBCHEM_OPENEYE_CAN_SMILES>
CCN1CC2(CCC(C34C2C(C5(C31)C6(CC(C7CC4C6C7OC)OC)OCO5)O)OC)COC

> <PUBCHEM_OPENEYE_ISO_SMILES>
CCN1C[C@@]2(CC[C@@H]([C@@]34[C@@H]2[C@@H]([C@@]5(C31)[C@]6(C[C@@H]([C@H]7C[C@@H]4[C@@H]6[C@H]7OC)OC)OCO5)O)OC)COC

> <PUBCHEM_CACTVS_TPSA>
78.8

> <PUBCHEM_MONOISOTOPIC_WEIGHT>
479.288303

> <PUBCHEM_TOTAL_CHARGE>
0

> <PUBCHEM_HEAVY_ATOM_COUNT>
34

> <PUBCHEM_ATOM_DEF_STEREO_COUNT>
12

> <PUBCHEM_ATOM_UDEF_STEREO_COUNT>
1

> <PUBCHEM_BOND_DEF_STEREO_COUNT>
0

> <PUBCHEM_BOND_UDEF_STEREO_COUNT>
0

> <PUBCHEM_ISOTOPIC_ATOM_COUNT>
0

> <PUBCHEM_COMPONENT_COUNT>
1

> <PUBCHEM_CACTVS_TAUTO_COUNT>
1

> <PUBCHEM_COORDINATE_TYPE>
1
5
255

> <PUBCHEM_BONDANNOTATIONS>
10  1  6
12  36  5
13  37  5
15  38  5
17  27  5
14  2  5
20  43  5
16  3  5
18  4  6
21  5  6
24  6  5
11  8  3
9  18  5

$$$$

