   Color/Form

     * Colorless crystals
     * Needles from benzene

   from [1]HSDB

   Odor
        Weakly pungent
   from [2]HSDB

   Melting Point
        106 deg C
   from [3]HSDB

   Corrosivity
        Non-corrosive in the dry state
   from [4]HSDB

   Density/Specific Gravity
        1.30 at 20 deg C
   from [5]HSDB

   Dissociation Constants
        pKa = 6.29 (est)
   from [6]HSDB

   Octanol/Water Partition Coefficient
        log Kow = 0.63 at pH 7
   from [7]HSDB

   Solubilities

     * SOL IN WATER (0.12% AT 25 DEG C); INSOL IN CARBON TETRACHLORIDE
     * Reacts with water; soluble in ethanol.
     * Organic solvents 0.0 g/100 ml, isopropanol 0.5 g/100 ml, xylene 1.1
       g/100 ml, ethanol 3.0 g/100 ml, ethylene glycol 3.0 g/100 ml,
       ethylene glycol monomethyl ether 5.0 g/100 ml, dioxane 8.0 g/100
       ml, acetone 13.1 g/100 ml, trichloroethylene 30.0 g/100 ml,
       chloroform 30 g/100 ml, dimethyl sulfoxide, 30 g/100 ml, dimethyl
       formamide 30 g/100 ml.
     * Solubility (20 deg C): 400 g/kg cyclohexane; 391 g/kg chloroform;
       173 g/kg acetone; 51 g/kg benzene; 15 g/kg ethanol; 6 g/kg diethyl
       ether.
     * Soluble in alcohol with decomposition. Decomposes in dilute acids.
     * In water, 3 g/kg (3X10+3 mg/L) at 20 deg C
     * In water, 1.2 g/L at 30 deg C

   from [8]HSDB

   Spectral Properties

     * MAX ABSORPTION (CYCLOHEXANE): 243 NM (LOG E= 3.70), 288 NM (LOG E=
       4.11)
     * UV Max absorption (cyclohexane): 289 nm (e= 9900); 242 nm (e= 7150)
     * Intense mass spectral peaks: 42 m/z (100%), 44 m/z (42%), 43 m/z
       (35%), 57 m/z (28%)
     * UV: 1-424 (Organic Electronic Spectral Data, Phillips et al, John
       Wiley & Sons, New York)

   from [9]HSDB

   Vapor Pressure
        2.8X10-6 mm Hg at 20 deg C
   from [10]HSDB

   Other Chemical/Physical Properties

     * Decomposes above 102 deg C.
     * Stable at temperatures up to 35 deg C. Sensitive to temperatures
       >50 deg C and to moisture. In the presence of moisture, degrades to
       methyl isothiocyanate, formaldehyde, hydrogen sulfide, and
       methylamine.
     * Technical: Solid, crystalline, white-slightly gray
     * Henry's Law constant = 2.66X10-10 atm-cu m/mole at 25 deg C
     * Hydroxyl radical reaction rate constant = 2.85X10-10 cu m/molec-sec
       at 25 deg C (est)

   from [11]HSDB

   Computed Properties
   Molecular Weight                  162.2763 [g/mol]
   Molecular Formula                 C[5]H[10]N[2]S[2]
   XLogP3-AA                         1.3
   H-Bond Donor                      0
   H-Bond Acceptor                   3
   Rotatable Bond Count              0
   Exact Mass                        162.02854
   MonoIsotopic Mass                 162.02854
   Topological Polar Surface Area    63.9
   Heavy Atom Count                  9
   Formal Charge                     0
   Complexity                        126
   Isotope Atom Count                0
   Defined Atom Stereocenter Count   0
   Undefined Atom Stereocenter Count 0
   Defined Bond Stereocenter Count   0
   Undefined Bond Stereocenter Count 0
   Covalently-Bonded Unit Count      1
   Feature 3D Acceptor Count         1
   Feature 3D Cation Count           1
   Feature 3D Ring Count             1
   Effective Rotor Count             1
   Conformer Sampling RMSD           0.4
   CID Conformer Count               [12]7

References

   1. http://toxnet.nlm.nih.gov/cgi-bin/sis/search/r?dbs+hsdb:@term+@rn+@rel+533-74-4
   2. http://toxnet.nlm.nih.gov/cgi-bin/sis/search/r?dbs+hsdb:@term+@rn+@rel+533-74-4
   3. http://toxnet.nlm.nih.gov/cgi-bin/sis/search/r?dbs+hsdb:@term+@rn+@rel+533-74-4
   4. http://toxnet.nlm.nih.gov/cgi-bin/sis/search/r?dbs+hsdb:@term+@rn+@rel+533-74-4
   5. http://toxnet.nlm.nih.gov/cgi-bin/sis/search/r?dbs+hsdb:@term+@rn+@rel+533-74-4
   6. http://toxnet.nlm.nih.gov/cgi-bin/sis/search/r?dbs+hsdb:@term+@rn+@rel+533-74-4
   7. http://toxnet.nlm.nih.gov/cgi-bin/sis/search/r?dbs+hsdb:@term+@rn+@rel+533-74-4
   8. http://toxnet.nlm.nih.gov/cgi-bin/sis/search/r?dbs+hsdb:@term+@rn+@rel+533-74-4
   9. http://toxnet.nlm.nih.gov/cgi-bin/sis/search/r?dbs+hsdb:@term+@rn+@rel+533-74-4
  10. http://toxnet.nlm.nih.gov/cgi-bin/sis/search/r?dbs+hsdb:@term+@rn+@rel+533-74-4
  11. http://toxnet.nlm.nih.gov/cgi-bin/sis/search/r?dbs+hsdb:@term+@rn+@rel+533-74-4
  12. http://pubchem.ncbi.nlm.nih.gov/vw3d/vw3d.cgi?cid=10788
