441736
  -OEChem-07051212552D

 51 57  0     1  0  0  0  0  0999 V2000
    7.5328   -0.7268    0.0000 O   0  0  0  0  0  0  0  0  0  0  0  0
    6.7510    2.4877    0.0000 O   0  0  0  0  0  0  0  0  0  0  0  0
    3.8020   -2.4064    0.0000 O   0  0  0  0  0  0  0  0  0  0  0  0
    3.8941    1.6011    0.0000 N   0  0  3  0  0  0  0  0  0  0  0  0
    4.7882    0.0525    0.0000 C   0  0  1  0  0  0  0  0  0  0  0  0
    5.2018    0.6146    0.0000 C   0  0  2  0  0  0  0  0  0  0  0  0
    4.7882    1.0849    0.0000 C   0  0  3  0  0  0  0  0  0  0  0  0
    3.8941   -0.4637    0.0000 C   0  0  2  0  0  0  0  0  0  0  0  0
    5.5954   -0.5912    0.0000 C   0  0  1  0  0  0  0  0  0  0  0  0
    5.5954    1.7286    0.0000 C   0  0  3  0  0  0  0  0  0  0  0  0
    3.5500    0.5916    0.0000 C   0  0  3  0  0  0  0  0  0  0  0  0
    3.0000    0.0525    0.0000 C   0  0  2  0  0  0  0  0  0  0  0  0
    4.2153    0.8210    0.0000 C   0  0  0  0  0  0  0  0  0  0  0  0
    4.7889   -0.9685    0.0000 C   0  0  0  0  0  0  0  0  0  0  0  0
    6.6019   -0.3615    0.0000 C   0  0  1  0  0  0  0  0  0  0  0  0
    3.0000    1.0849    0.0000 C   0  0  0  0  0  0  0  0  0  0  0  0
    6.6019    1.4988    0.0000 C   0  0  2  0  0  0  0  0  0  0  0  0
    7.0499    0.5687    0.0000 C   0  0  2  0  0  0  0  0  0  0  0  0
    5.7295    1.1193    0.0000 C   0  0  0  0  0  0  0  0  0  0  0  0
    2.9993   -0.8767    0.0000 C   0  0  0  0  0  0  0  0  0  0  0  0
    3.8060   -1.4064    0.0000 C   0  0  2  0  0  0  0  0  0  0  0  0
    6.5096    1.1193    0.0000 C   0  0  0  0  0  0  0  0  0  0  0  0
    2.0000    0.0528    0.0000 C   0  0  0  0  0  0  0  0  0  0  0  0
    6.1184    2.0396    0.0000 C   0  0  0  0  0  0  0  0  0  0  0  0
    4.7247    1.9325    0.0000 H   0  0  0  0  0  0  0  0  0  0  0  0
    4.3244   -1.1968    0.0000 H   0  0  0  0  0  0  0  0  0  0  0  0
    5.5910   -1.4412    0.0000 H   0  0  0  0  0  0  0  0  0  0  0  0
    5.4062    2.5573    0.0000 H   0  0  0  0  0  0  0  0  0  0  0  0
    2.7000    0.5973    0.0000 H   0  0  0  0  0  0  0  0  0  0  0  0
    4.5396    1.3495    0.0000 H   0  0  0  0  0  0  0  0  0  0  0  0
    4.2542    0.2023    0.0000 H   0  0  0  0  0  0  0  0  0  0  0  0
    4.9600   -1.5644    0.0000 H   0  0  0  0  0  0  0  0  0  0  0  0
    5.4028   -0.8819    0.0000 H   0  0  0  0  0  0  0  0  0  0  0  0
    6.6943   -0.9746    0.0000 H   0  0  0  0  0  0  0  0  0  0  0  0
    2.7880    1.6675    0.0000 H   0  0  0  0  0  0  0  0  0  0  0  0
    2.3894    0.9772    0.0000 H   0  0  0  0  0  0  0  0  0  0  0  0
    7.1791    1.7254    0.0000 H   0  0  0  0  0  0  0  0  0  0  0  0
    7.8999    0.5687    0.0000 H   0  0  0  0  0  0  0  0  0  0  0  0
    5.8944    1.7170    0.0000 H   0  0  0  0  0  0  0  0  0  0  0  0
    5.1972    1.4372    0.0000 H   0  0  0  0  0  0  0  0  0  0  0  0
    2.3910   -0.7571    0.0000 H   0  0  0  0  0  0  0  0  0  0  0  0
    2.7650   -1.4507    0.0000 H   0  0  0  0  0  0  0  0  0  0  0  0
    3.2598   -1.6997    0.0000 H   0  0  0  0  0  0  0  0  0  0  0  0
    2.0002    0.6728    0.0000 H   0  0  0  0  0  0  0  0  0  0  0  0
    1.3800    0.0531    0.0000 H   0  0  0  0  0  0  0  0  0  0  0  0
    1.9998   -0.5672    0.0000 H   0  0  0  0  0  0  0  0  0  0  0  0
    7.6252   -1.3399    0.0000 H   0  0  0  0  0  0  0  0  0  0  0  0
    7.3281    2.7142    0.0000 H   0  0  0  0  0  0  0  0  0  0  0  0
    6.4912    2.5349    0.0000 H   0  0  0  0  0  0  0  0  0  0  0  0
    5.5030    2.1149    0.0000 H   0  0  0  0  0  0  0  0  0  0  0  0
    3.2638   -2.7142    0.0000 H   0  0  0  0  0  0  0  0  0  0  0  0
 15  1  1  1  0  0  0
  1 47  1  0  0  0  0
 17  2  1  1  0  0  0
  2 48  1  0  0  0  0
 21  3  1  1  0  0  0
  3 51  1  0  0  0  0
  4  7  1  0  0  0  0
  4 11  1  0  0  0  0
  4 16  1  0  0  0  0
  5  7  1  0  0  0  0
  5  8  1  0  0  0  0
  5  9  1  0  0  0  0
  5 14  1  1  0  0  0
  6  9  1  0  0  0  0
  6 10  1  0  0  0  0
  6 13  1  6  0  0  0
  6 19  1  0  0  0  0
  7 10  1  0  0  0  0
  7 25  1  0  0  0  0
  8 11  1  0  0  0  0
  8 12  1  0  0  0  0
  8 26  1  6  0  0  0
  9 15  1  0  0  0  0
  9 27  1  6  0  0  0
 10 17  1  0  0  0  0
 10 28  1  0  0  0  0
 11 13  1  0  0  0  0
 11 29  1  0  0  0  0
 12 16  1  0  0  0  0
 12 20  1  0  0  0  0
 12 23  1  6  0  0  0
 13 30  1  0  0  0  0
 13 31  1  0  0  0  0
 14 21  1  0  0  0  0
 14 32  1  0  0  0  0
 14 33  1  0  0  0  0
 15 18  1  0  0  0  0
 15 34  1  0  0  0  0
 16 35  1  0  0  0  0
 16 36  1  0  0  0  0
 17 18  1  0  0  0  0
 17 37  1  0  0  0  0
 18 22  1  0  0  0  0
 18 38  1  6  0  0  0
 19 22  1  0  0  0  0
 19 39  1  0  0  0  0
 19 40  1  0  0  0  0
 20 21  1  0  0  0  0
 20 41  1  0  0  0  0
 20 42  1  0  0  0  0
 21 43  1  0  0  0  0
 22 24  2  0  0  0  0
 23 44  1  0  0  0  0
 23 45  1  0  0  0  0
 23 46  1  0  0  0  0
 24 49  1  0  0  0  0
 24 50  1  0  0  0  0
M  END
> <PUBCHEM_COMPOUND_CID>
441736

> <PUBCHEM_COMPOUND_CANONICALIZED>
1

> <PUBCHEM_CACTVS_COMPLEXITY>
709

> <PUBCHEM_CACTVS_HBOND_ACCEPTOR>
4

> <PUBCHEM_CACTVS_HBOND_DONOR>
3

> <PUBCHEM_CACTVS_ROTATABLE_BOND>
0

> <PUBCHEM_CACTVS_SUBSKEYS>
AAADceB6MAAAAAAAAAAAAAAAAAAAAeLEAAA8YMGDBgAWAADAAAAAHgAACAAADzzhgAYCAAMAAgCAAgBCAAAAAAAgAAAAAAAIAAgAEAIAgQAEQAAHwACAAAGw8PcPgAAAAAAAAADQAAaQADQAASAACQAAAA==

> <PUBCHEM_IUPAC_INCHI>
InChI=1S/C20H27NO3/c1-8-3-19-6-10-15-18(2)4-9(22)5-20(15)16(19)14(24)11(8)13(23)12(19)17(20)21(10)7-18/h9-17,22-24H,1,3-7H2,2H3/t9-,10?,11-,12?,13-,14+,15+,16+,17?,18-,19-,20-/m0/s1

> <PUBCHEM_IUPAC_INCHIKEY>
PIWJSAMCEMZIDO-WLSCSOIGSA-N

> <PUBCHEM_XLOGP3_AA>
0.5

> <PUBCHEM_EXACT_MASS>
329.199094

> <PUBCHEM_MOLECULAR_FORMULA>
C20H27NO3

> <PUBCHEM_MOLECULAR_WEIGHT>
329.43328

> <PUBCHEM_OPENEYE_CAN_SMILES>
CC12CC(CC34C1C5CC67C3C(C(C(C6C4N5C2)O)C(=C)C7)O)O

> <PUBCHEM_OPENEYE_ISO_SMILES>
C[C@@]12C[C@@H](C[C@]34[C@@H]1C5C[C@]67[C@H]3[C@@H]([C@H]([C@@H](C6C4N5C2)O)C(=C)C7)O)O

> <PUBCHEM_CACTVS_TPSA>
63.9

> <PUBCHEM_MONOISOTOPIC_WEIGHT>
329.199094

> <PUBCHEM_TOTAL_CHARGE>
0

> <PUBCHEM_HEAVY_ATOM_COUNT>
24

> <PUBCHEM_ATOM_DEF_STEREO_COUNT>
9

> <PUBCHEM_ATOM_UDEF_STEREO_COUNT>
3

> <PUBCHEM_BOND_DEF_STEREO_COUNT>
0

> <PUBCHEM_BOND_UDEF_STEREO_COUNT>
0

> <PUBCHEM_ISOTOPIC_ATOM_COUNT>
0

> <PUBCHEM_COMPONENT_COUNT>
1

> <PUBCHEM_CACTVS_TAUTO_COUNT>
1

> <PUBCHEM_COORDINATE_TYPE>
1
5
255

> <PUBCHEM_BONDANNOTATIONS>
15  1  5
10  28  3
11  29  3
12  23  6
18  38  6
17  2  5
21  3  5
5  14  5
6  13  6
7  25  3
8  26  6
9  27  6

$$$$

