4066
  -OEChem-07051213032D

 45 49  0     1  0  0  0  0  0999 V2000
    4.6660   -3.3391    0.0000 S   0  0  0  0  0  0  0  0  0  0  0  0
    6.5069    1.3007    0.0000 N   0  0  0  0  0  0  0  0  0  0  0  0
    4.6660   -1.3391    0.0000 N   0  0  0  0  0  0  0  0  0  0  0  0
    6.0069    2.1667    0.0000 C   0  0  0  0  0  0  0  0  0  0  0  0
    5.5321    0.1609    0.0000 C   0  0  3  0  0  0  0  0  0  0  0  0
    6.4980   -0.0979    0.0000 C   0  0  0  0  0  0  0  0  0  0  0  0
    4.0750    2.6843    0.0000 C   0  0  0  0  0  0  0  0  0  0  0  0
    7.5800    3.3738    0.0000 C   0  0  0  0  0  0  0  0  0  0  0  0
    3.8162    1.7184    0.0000 C   0  0  0  0  0  0  0  0  0  0  0  0
    8.0800    2.5078    0.0000 C   0  0  0  0  0  0  0  0  0  0  0  0
    4.6660   -0.3391    0.0000 C   0  0  0  0  0  0  0  0  0  0  0  0
    5.5321   -1.8391    0.0000 C   0  0  0  0  0  0  0  0  0  0  0  0
    3.8000   -1.8391    0.0000 C   0  0  0  0  0  0  0  0  0  0  0  0
    5.5321   -2.8391    0.0000 C   0  0  0  0  0  0  0  0  0  0  0  0
    3.8000   -2.8391    0.0000 C   0  0  0  0  0  0  0  0  0  0  0  0
    2.9061   -1.3045    0.0000 C   0  0  0  0  0  0  0  0  0  0  0  0
    6.4260   -1.3045    0.0000 C   0  0  0  0  0  0  0  0  0  0  0  0
    2.9061   -3.3738    0.0000 C   0  0  0  0  0  0  0  0  0  0  0  0
    6.4260   -3.3738    0.0000 C   0  0  0  0  0  0  0  0  0  0  0  0
    2.0000   -1.8183    0.0000 C   0  0  0  0  0  0  0  0  0  0  0  0
    7.3321   -1.8183    0.0000 C   0  0  0  0  0  0  0  0  0  0  0  0
    2.0000   -2.8599    0.0000 C   0  0  0  0  0  0  0  0  0  0  0  0
    7.3321   -2.8599    0.0000 C   0  0  0  0  0  0  0  0  0  0  0  0
    6.5274    1.8298    0.0000 H   0  0  0  0  0  0  0  0  0  0  0  0
    5.6130   -0.4538    0.0000 H   0  0  0  0  0  0  0  0  0  0  0  0
    6.3890   -0.7083    0.0000 H   0  0  0  0  0  0  0  0  0  0  0  0
    7.1154   -0.1546    0.0000 H   0  0  0  0  0  0  0  0  0  0  0  0
    8.1029    3.7069    0.0000 H   0  0  0  0  0  0  0  0  0  0  0  0
    7.2244    3.8817    0.0000 H   0  0  0  0  0  0  0  0  0  0  0  0
    4.2355    3.2832    0.0000 H   0  0  0  0  0  0  0  0  0  0  0  0
    3.4762    2.8448    0.0000 H   0  0  0  0  0  0  0  0  0  0  0  0
    8.4356    1.9999    0.0000 H   0  0  0  0  0  0  0  0  0  0  0  0
    8.6029    2.8409    0.0000 H   0  0  0  0  0  0  0  0  0  0  0  0
    3.2120    1.8572    0.0000 H   0  0  0  0  0  0  0  0  0  0  0  0
    3.6992    1.1095    0.0000 H   0  0  0  0  0  0  0  0  0  0  0  0
    4.4540    0.2435    0.0000 H   0  0  0  0  0  0  0  0  0  0  0  0
    4.0555   -0.4468    0.0000 H   0  0  0  0  0  0  0  0  0  0  0  0
    6.4188   -0.6845    0.0000 H   0  0  0  0  0  0  0  0  0  0  0  0
    2.9132   -0.6845    0.0000 H   0  0  0  0  0  0  0  0  0  0  0  0
    6.4188   -3.9938    0.0000 H   0  0  0  0  0  0  0  0  0  0  0  0
    2.9132   -3.9938    0.0000 H   0  0  0  0  0  0  0  0  0  0  0  0
    1.4643   -1.5062    0.0000 H   0  0  0  0  0  0  0  0  0  0  0  0
    7.8678   -1.5062    0.0000 H   0  0  0  0  0  0  0  0  0  0  0  0
    7.8678   -3.1720    0.0000 H   0  0  0  0  0  0  0  0  0  0  0  0
    1.4643   -3.1720    0.0000 H   0  0  0  0  0  0  0  0  0  0  0  0
  1 14  1  0  0  0  0
  1 15  1  0  0  0  0
  2  6  1  0  0  0  0
  2  9  1  0  0  0  0
  2 10  1  0  0  0  0
  3 11  1  0  0  0  0
  3 12  1  0  0  0  0
  3 13  1  0  0  0  0
  4  5  1  0  0  0  0
  4  7  1  0  0  0  0
  4  8  1  0  0  0  0
  4 24  1  0  0  0  0
  5  6  1  0  0  0  0
  5 11  1  0  0  0  0
  5 25  1  0  0  0  0
  6 26  1  0  0  0  0
  6 27  1  0  0  0  0
  7  9  1  0  0  0  0
  7 30  1  0  0  0  0
  7 31  1  0  0  0  0
  8 10  1  0  0  0  0
  8 28  1  0  0  0  0
  8 29  1  0  0  0  0
  9 34  1  0  0  0  0
  9 35  1  0  0  0  0
 10 32  1  0  0  0  0
 10 33  1  0  0  0  0
 11 36  1  0  0  0  0
 11 37  1  0  0  0  0
 12 14  1  0  0  0  0
 12 17  2  0  0  0  0
 13 15  1  0  0  0  0
 13 16  2  0  0  0  0
 14 19  2  0  0  0  0
 15 18  2  0  0  0  0
 16 20  1  0  0  0  0
 16 39  1  0  0  0  0
 17 21  1  0  0  0  0
 17 38  1  0  0  0  0
 18 22  1  0  0  0  0
 18 41  1  0  0  0  0
 19 23  1  0  0  0  0
 19 40  1  0  0  0  0
 20 22  2  0  0  0  0
 20 42  1  0  0  0  0
 21 23  2  0  0  0  0
 21 43  1  0  0  0  0
 22 45  1  0  0  0  0
 23 44  1  0  0  0  0
M  END
> <PUBCHEM_COMPOUND_CID>
4066

> <PUBCHEM_COMPOUND_CANONICALIZED>
1

> <PUBCHEM_CACTVS_COMPLEXITY>
398

> <PUBCHEM_CACTVS_HBOND_ACCEPTOR>
3

> <PUBCHEM_CACTVS_HBOND_DONOR>
0

> <PUBCHEM_CACTVS_ROTATABLE_BOND>
2

> <PUBCHEM_CACTVS_SUBSKEYS>
AAADceB7AABAAAAAAAAAAAAAAAAAAAAAAAA8eLFiAAAAAACxQAAAHAQAAAAADQjBUAQwwYMAAAiAACRCQACCAAAhChAIiBwIZIgIIGLg0ZGEIAhggADoyAcQAAAOgAAAAAAAAQAAAAAAAAACAAAAAAAAAA==

> <PUBCHEM_IUPAC_OPENEYE_NAME>
10-(quinuclidin-3-ylmethyl)phenothiazine

> <PUBCHEM_IUPAC_CAS_NAME>
10-(1-azabicyclo[2.2.2]octan-3-ylmethyl)phenothiazine

> <PUBCHEM_IUPAC_NAME>
10-(1-azabicyclo[2.2.2]octan-3-ylmethyl)phenothiazine

> <PUBCHEM_IUPAC_SYSTEMATIC_NAME>
10-(1-azabicyclo[2.2.2]octan-3-ylmethyl)phenothiazine

> <PUBCHEM_IUPAC_TRADITIONAL_NAME>
10-(quinuclidin-3-ylmethyl)phenothiazine

> <PUBCHEM_IUPAC_INCHI>
InChI=1S/C20H22N2S/c1-3-7-19-17(5-1)22(18-6-2-4-8-20(18)23-19)14-16-13-21-11-9-15(16)10-12-21/h1-8,15-16H,9-14H2

> <PUBCHEM_IUPAC_INCHIKEY>
HOKDBMAJZXIPGC-UHFFFAOYSA-N

> <PUBCHEM_XLOGP3_AA>
4.6

> <PUBCHEM_EXACT_MASS>
322.15037

> <PUBCHEM_MOLECULAR_FORMULA>
C20H22N2S

> <PUBCHEM_MOLECULAR_WEIGHT>
322.46708

> <PUBCHEM_OPENEYE_CAN_SMILES>
C1CN2CCC1C(C2)CN3C4=CC=CC=C4SC5=CC=CC=C53

> <PUBCHEM_OPENEYE_ISO_SMILES>
C1CN2CCC1C(C2)CN3C4=CC=CC=C4SC5=CC=CC=C53

> <PUBCHEM_CACTVS_TPSA>
31.8

> <PUBCHEM_MONOISOTOPIC_WEIGHT>
322.15037

> <PUBCHEM_TOTAL_CHARGE>
0

> <PUBCHEM_HEAVY_ATOM_COUNT>
23

> <PUBCHEM_ATOM_DEF_STEREO_COUNT>
0

> <PUBCHEM_ATOM_UDEF_STEREO_COUNT>
1

> <PUBCHEM_BOND_DEF_STEREO_COUNT>
0

> <PUBCHEM_BOND_UDEF_STEREO_COUNT>
0

> <PUBCHEM_ISOTOPIC_ATOM_COUNT>
0

> <PUBCHEM_COMPONENT_COUNT>
1

> <PUBCHEM_CACTVS_TAUTO_COUNT>
1

> <PUBCHEM_COORDINATE_TYPE>
1
5
255

> <PUBCHEM_BONDANNOTATIONS>
12  14  8
12  17  8
13  15  8
13  16  8
14  19  8
15  18  8
16  20  8
17  21  8
18  22  8
19  23  8
20  22  8
21  23  8
5  11  3

$$$$

