9171
  -OEChem-07051213042D

 30 33  0     0  0  0  0  0  0999 V2000
    2.9847    0.1863    0.0000 C   0  0  0  0  0  0  0  0  0  0  0  0
    3.8507   -0.3137    0.0000 C   0  0  0  0  0  0  0  0  0  0  0  0
    3.8507   -1.3137    0.0000 C   0  0  0  0  0  0  0  0  0  0  0  0
    2.9686    1.2278    0.0000 C   0  0  0  0  0  0  0  0  0  0  0  0
    2.9847   -1.8137    0.0000 C   0  0  0  0  0  0  0  0  0  0  0  0
    3.8667    1.7555    0.0000 C   0  0  0  0  0  0  0  0  0  0  0  0
    2.1187   -0.3137    0.0000 C   0  0  0  0  0  0  0  0  0  0  0  0
    4.7607    0.1931    0.0000 C   0  0  0  0  0  0  0  0  0  0  0  0
    2.1187   -1.3137    0.0000 C   0  0  0  0  0  0  0  0  0  0  0  0
    4.7688    1.2347    0.0000 C   0  0  0  0  0  0  0  0  0  0  0  0
    4.7607   -1.8206    0.0000 C   0  0  0  0  0  0  0  0  0  0  0  0
    2.0167    1.7484    0.0000 C   0  0  0  0  0  0  0  0  0  0  0  0
    2.9686   -2.8552    0.0000 C   0  0  0  0  0  0  0  0  0  0  0  0
    3.8751    2.8405    0.0000 C   0  0  0  0  0  0  0  0  0  0  0  0
    4.7688   -2.8622    0.0000 C   0  0  0  0  0  0  0  0  0  0  0  0
    2.0000    2.8333    0.0000 C   0  0  0  0  0  0  0  0  0  0  0  0
    2.9354    3.3830    0.0000 C   0  0  0  0  0  0  0  0  0  0  0  0
    3.8667   -3.3830    0.0000 C   0  0  0  0  0  0  0  0  0  0  0  0
    1.5818   -0.0037    0.0000 H   0  0  0  0  0  0  0  0  0  0  0  0
    5.2941   -0.1231    0.0000 H   0  0  0  0  0  0  0  0  0  0  0  0
    1.5818   -1.6237    0.0000 H   0  0  0  0  0  0  0  0  0  0  0  0
    5.3069    1.5426    0.0000 H   0  0  0  0  0  0  0  0  0  0  0  0
    5.2941   -1.5044    0.0000 H   0  0  0  0  0  0  0  0  0  0  0  0
    1.4859    1.4281    0.0000 H   0  0  0  0  0  0  0  0  0  0  0  0
    2.4282   -3.1590    0.0000 H   0  0  0  0  0  0  0  0  0  0  0  0
    4.4132    3.1484    0.0000 H   0  0  0  0  0  0  0  0  0  0  0  0
    5.3069   -3.1701    0.0000 H   0  0  0  0  0  0  0  0  0  0  0  0
    1.4595    3.1370    0.0000 H   0  0  0  0  0  0  0  0  0  0  0  0
    3.8643   -4.0030    0.0000 H   0  0  0  0  0  0  0  0  0  0  0  0
    2.9330    4.0030    0.0000 H   0  0  0  0  0  0  0  0  0  0  0  0
  1  2  2  0  0  0  0
  1  4  1  0  0  0  0
  1  7  1  0  0  0  0
  2  3  1  0  0  0  0
  2  8  1  0  0  0  0
  3  5  1  0  0  0  0
  3 11  2  0  0  0  0
  4  6  1  0  0  0  0
  4 12  2  0  0  0  0
  5  9  1  0  0  0  0
  5 13  2  0  0  0  0
  6 10  1  0  0  0  0
  6 14  2  0  0  0  0
  7  9  2  0  0  0  0
  7 19  1  0  0  0  0
  8 10  2  0  0  0  0
  8 20  1  0  0  0  0
  9 21  1  0  0  0  0
 10 22  1  0  0  0  0
 11 15  1  0  0  0  0
 11 23  1  0  0  0  0
 12 16  1  0  0  0  0
 12 24  1  0  0  0  0
 13 18  1  0  0  0  0
 13 25  1  0  0  0  0
 14 17  1  0  0  0  0
 14 26  1  0  0  0  0
 15 18  2  0  0  0  0
 15 27  1  0  0  0  0
 16 17  2  0  0  0  0
 16 28  1  0  0  0  0
 17 30  1  0  0  0  0
 18 29  1  0  0  0  0
M  END
> <PUBCHEM_COMPOUND_CID>
9171

> <PUBCHEM_COMPOUND_CANONICALIZED>
1

> <PUBCHEM_CACTVS_COMPLEXITY>
264

> <PUBCHEM_CACTVS_HBOND_ACCEPTOR>
0

> <PUBCHEM_CACTVS_HBOND_DONOR>
0

> <PUBCHEM_CACTVS_ROTATABLE_BOND>
0

> <PUBCHEM_CACTVS_SUBSKEYS>
AAADccB4AAAAAAAAAAAAAAAAAAAAAAAAAAAwYMGAAAAAAADBVAAAGAAAAAAADACAGAAwAMAAAACAAiBCAAACAAAgAAAIiAAAAIgIICKAERCAIAAggAAIiAcAgMAOwAACAAAQAACAAAQAACAAAAAAAAAAAA==

> <PUBCHEM_IUPAC_OPENEYE_NAME>
chrysene

> <PUBCHEM_IUPAC_CAS_NAME>
chrysene

> <PUBCHEM_IUPAC_NAME>
chrysene

> <PUBCHEM_IUPAC_SYSTEMATIC_NAME>
chrysene

> <PUBCHEM_IUPAC_TRADITIONAL_NAME>
chrysene

> <PUBCHEM_IUPAC_INCHI>
InChI=1S/C18H12/c1-3-7-15-13(5-1)9-11-18-16-8-4-2-6-14(16)10-12-17(15)18/h1-12H

> <PUBCHEM_IUPAC_INCHIKEY>
WDECIBYCCFPHNR-UHFFFAOYSA-N

> <PUBCHEM_XLOGP3>
5.7

> <PUBCHEM_EXACT_MASS>
228.0939

> <PUBCHEM_MOLECULAR_FORMULA>
C18H12

> <PUBCHEM_MOLECULAR_WEIGHT>
228.28788

> <PUBCHEM_OPENEYE_CAN_SMILES>
C1=CC=C2C(=C1)C=CC3=C2C=CC4=CC=CC=C43

> <PUBCHEM_OPENEYE_ISO_SMILES>
C1=CC=C2C(=C1)C=CC3=C2C=CC4=CC=CC=C43

> <PUBCHEM_CACTVS_TPSA>
0

> <PUBCHEM_MONOISOTOPIC_WEIGHT>
228.0939

> <PUBCHEM_TOTAL_CHARGE>
0

> <PUBCHEM_HEAVY_ATOM_COUNT>
18

> <PUBCHEM_ATOM_DEF_STEREO_COUNT>
0

> <PUBCHEM_ATOM_UDEF_STEREO_COUNT>
0

> <PUBCHEM_BOND_DEF_STEREO_COUNT>
0

> <PUBCHEM_BOND_UDEF_STEREO_COUNT>
0

> <PUBCHEM_ISOTOPIC_ATOM_COUNT>
0

> <PUBCHEM_COMPONENT_COUNT>
1

> <PUBCHEM_CACTVS_TAUTO_COUNT>
1

> <PUBCHEM_COORDINATE_TYPE>
1
5
255

> <PUBCHEM_BONDANNOTATIONS>
1  2  8
1  4  8
1  7  8
11  15  8
12  16  8
13  18  8
14  17  8
15  18  8
16  17  8
2  3  8
2  8  8
3  11  8
3  5  8
4  12  8
4  6  8
5  13  8
5  9  8
6  10  8
6  14  8
7  9  8
8  10  8

$$$$

