10365832
  -OEChem-07051213102D

 43 44  0     1  0  0  0  0  0999 V2000
    9.2297   -0.0202    0.0000 S   0  0  0  0  0  0  0  0  0  0  0  0
    3.3048    1.6442    0.0000 S   0  0  0  0  0  0  0  0  0  0  0  0
    4.0105    0.9357    0.0000 O   0  0  0  0  0  0  0  0  0  0  0  0
    4.9770   -1.2329    0.0000 O   0  0  0  0  0  0  0  0  0  0  0  0
    8.9291   -1.9882    0.0000 O   0  0  0  0  0  0  0  0  0  0  0  0
    7.2818   -2.5234    0.0000 O   0  0  0  0  0  0  0  0  0  0  0  0
    2.5992    2.3528    0.0000 O   0  0  0  0  0  0  0  0  0  0  0  0
    2.5963    0.9386    0.0000 O   0  0  0  0  0  0  0  0  0  0  0  0
    4.0134    2.3499    0.0000 O   0  0  0  0  0  0  0  0  0  0  0  0
   12.7297    0.8458    0.0000 O   0  0  0  0  0  0  0  0  0  0  0  0
    6.6909   -0.5202    0.0000 N   0  0  0  0  0  0  0  0  0  0  0  0
   11.2297    1.7118    0.0000 N   0  0  0  0  0  0  0  0  0  0  0  0
    6.6909    0.4798    0.0000 C   0  0  1  0  0  0  0  0  0  0  0  0
    5.6826    0.4839    0.0000 C   0  0  1  0  0  0  0  0  0  0  0  0
    7.6420    0.7888    0.0000 C   0  0  0  0  0  0  0  0  0  0  0  0
    5.6826   -0.5244    0.0000 C   0  0  0  0  0  0  0  0  0  0  0  0
    4.9770    1.1925    0.0000 C   0  0  2  0  0  0  0  0  0  0  0  0
    7.6420   -0.8292    0.0000 C   0  0  0  0  0  0  0  0  0  0  0  0
    8.2297   -0.0202    0.0000 C   0  0  0  0  0  0  0  0  0  0  0  0
    5.2378    2.1579    0.0000 C   0  0  0  0  0  0  0  0  0  0  0  0
    7.9510   -1.7803    0.0000 C   0  0  0  0  0  0  0  0  0  0  0  0
    9.7297    0.8458    0.0000 C   0  0  0  0  0  0  0  0  0  0  0  0
   10.7297    0.8458    0.0000 C   0  0  0  0  0  0  0  0  0  0  0  0
   12.2297    1.7118    0.0000 C   0  0  0  0  0  0  0  0  0  0  0  0
   12.7297    2.5779    0.0000 C   0  0  0  0  0  0  0  0  0  0  0  0
    6.5596    1.3196    0.0000 H   0  0  0  0  0  0  0  0  0  0  0  0
    4.8970    0.1595    0.0000 H   0  0  0  0  0  0  0  0  0  0  0  0
    8.1789    1.0988    0.0000 H   0  0  0  0  0  0  0  0  0  0  0  0
    7.3898    1.3552    0.0000 H   0  0  0  0  0  0  0  0  0  0  0  0
    4.8153    0.5939    0.0000 H   0  0  0  0  0  0  0  0  0  0  0  0
    5.8363    1.9962    0.0000 H   0  0  0  0  0  0  0  0  0  0  0  0
    5.3995    2.7564    0.0000 H   0  0  0  0  0  0  0  0  0  0  0  0
    4.6392    2.3196    0.0000 H   0  0  0  0  0  0  0  0  0  0  0  0
    9.8374    1.4564    0.0000 H   0  0  0  0  0  0  0  0  0  0  0  0
    9.1471    1.0579    0.0000 H   0  0  0  0  0  0  0  0  0  0  0  0
   10.6221    0.2352    0.0000 H   0  0  0  0  0  0  0  0  0  0  0  0
   11.3123    0.6338    0.0000 H   0  0  0  0  0  0  0  0  0  0  0  0
    9.1207   -2.5779    0.0000 H   0  0  0  0  0  0  0  0  0  0  0  0
    2.0000    2.1935    0.0000 H   0  0  0  0  0  0  0  0  0  0  0  0
   10.9197    2.2488    0.0000 H   0  0  0  0  0  0  0  0  0  0  0  0
   13.2667    2.2679    0.0000 H   0  0  0  0  0  0  0  0  0  0  0  0
   13.0397    3.1148    0.0000 H   0  0  0  0  0  0  0  0  0  0  0  0
   12.1928    2.8879    0.0000 H   0  0  0  0  0  0  0  0  0  0  0  0
  1 19  1  0  0  0  0
  1 22  1  0  0  0  0
  2  3  1  0  0  0  0
  2  7  1  0  0  0  0
  2  8  2  0  0  0  0
  2  9  2  0  0  0  0
 17  3  1  1  0  0  0
  4 16  2  0  0  0  0
  5 21  1  0  0  0  0
  5 38  1  0  0  0  0
  6 21  2  0  0  0  0
  7 39  1  0  0  0  0
 10 24  2  0  0  0  0
 11 13  1  0  0  0  0
 11 16  1  0  0  0  0
 11 18  1  0  0  0  0
 12 23  1  0  0  0  0
 12 24  1  0  0  0  0
 12 40  1  0  0  0  0
 13 14  1  0  0  0  0
 13 15  1  0  0  0  0
 13 26  1  6  0  0  0
 14 16  1  0  0  0  0
 14 17  1  0  0  0  0
 14 27  1  6  0  0  0
 15 19  1  0  0  0  0
 15 28  1  0  0  0  0
 15 29  1  0  0  0  0
 17 20  1  0  0  0  0
 17 30  1  0  0  0  0
 18 19  2  0  0  0  0
 18 21  1  0  0  0  0
 20 31  1  0  0  0  0
 20 32  1  0  0  0  0
 20 33  1  0  0  0  0
 22 23  1  0  0  0  0
 22 34  1  0  0  0  0
 22 35  1  0  0  0  0
 23 36  1  0  0  0  0
 23 37  1  0  0  0  0
 24 25  1  0  0  0  0
 25 41  1  0  0  0  0
 25 42  1  0  0  0  0
 25 43  1  0  0  0  0
M  END
> <PUBCHEM_COMPOUND_CID>
10365832

> <PUBCHEM_COMPOUND_CANONICALIZED>
1

> <PUBCHEM_CACTVS_COMPLEXITY>
727

> <PUBCHEM_CACTVS_HBOND_ACCEPTOR>
9

> <PUBCHEM_CACTVS_HBOND_DONOR>
3

> <PUBCHEM_CACTVS_ROTATABLE_BOND>
8

> <PUBCHEM_CACTVS_SUBSKEYS>
AAADceBzPABgAAAAAAAAAAAAAABYAQAAAAAAAAAABAAAAAAAAAAAHgQQCAAADTzlwAaCCAPAAoiIAAXQWDAAAAAgABAACIGIAEgCBB4ggCAEEAAGtgC4EQOYAAAOAAAAAAAAAAAAAAAAAAAAAAAAAAAAAA==

> <PUBCHEM_IUPAC_OPENEYE_NAME>
(5R,6R)-3-(2-acetamidoethylsulfanyl)-7-oxo-6-[(1S)-1-sulfooxyethyl]-1-azabicyclo[3.2.0]hept-2-ene-2-carboxylic acid

> <PUBCHEM_IUPAC_CAS_NAME>
(5R,6R)-3-(2-acetamidoethylthio)-7-oxo-6-[(1S)-1-sulfooxyethyl]-1-azabicyclo[3.2.0]hept-2-ene-2-carboxylic acid

> <PUBCHEM_IUPAC_NAME>
(5R,6R)-3-(2-acetamidoethylsulfanyl)-7-oxo-6-[(1S)-1-sulfooxyethyl]-1-azabicyclo[3.2.0]hept-2-ene-2-carboxylic acid

> <PUBCHEM_IUPAC_SYSTEMATIC_NAME>
(5R,6R)-3-(2-acetamidoethylsulfanyl)-7-oxidanylidene-6-[(1S)-1-sulfooxyethyl]-1-azabicyclo[3.2.0]hept-2-ene-2-carboxylic acid

> <PUBCHEM_IUPAC_TRADITIONAL_NAME>
(5R,6R)-3-(2-acetamidoethylthio)-7-keto-6-[(1S)-1-sulfoxyethyl]-1-azabicyclo[3.2.0]hept-2-ene-2-carboxylic acid

> <PUBCHEM_IUPAC_INCHI>
InChI=1S/C13H18N2O8S2/c1-6(23-25(20,21)22)10-8-5-9(24-4-3-14-7(2)16)11(13(18)19)15(8)12(10)17/h6,8,10H,3-5H2,1-2H3,(H,14,16)(H,18,19)(H,20,21,22)/t6-,8+,10-/m0/s1

> <PUBCHEM_IUPAC_INCHIKEY>
HZYSJDYRQDXUAB-IONOHQLYSA-N

> <PUBCHEM_XLOGP3_AA>
-1.4

> <PUBCHEM_EXACT_MASS>
394.050458

> <PUBCHEM_MOLECULAR_FORMULA>
C13H18N2O8S2

> <PUBCHEM_MOLECULAR_WEIGHT>
394.42062

> <PUBCHEM_OPENEYE_CAN_SMILES>
CC(C1C2CC(=C(N2C1=O)C(=O)O)SCCNC(=O)C)OS(=O)(=O)O

> <PUBCHEM_OPENEYE_ISO_SMILES>
C[C@@H]([C@H]1[C@H]2CC(=C(N2C1=O)C(=O)O)SCCNC(=O)C)OS(=O)(=O)O

> <PUBCHEM_CACTVS_TPSA>
184

> <PUBCHEM_MONOISOTOPIC_WEIGHT>
394.050458

> <PUBCHEM_TOTAL_CHARGE>
0

> <PUBCHEM_HEAVY_ATOM_COUNT>
25

> <PUBCHEM_ATOM_DEF_STEREO_COUNT>
3

> <PUBCHEM_ATOM_UDEF_STEREO_COUNT>
0

> <PUBCHEM_BOND_DEF_STEREO_COUNT>
0

> <PUBCHEM_BOND_UDEF_STEREO_COUNT>
0

> <PUBCHEM_ISOTOPIC_ATOM_COUNT>
0

> <PUBCHEM_COMPONENT_COUNT>
1

> <PUBCHEM_CACTVS_TAUTO_COUNT>
4

> <PUBCHEM_COORDINATE_TYPE>
1
5
255

> <PUBCHEM_BONDANNOTATIONS>
13  26  6
14  27  6
17  3  5

$$$$

