9767970
  -OEChem-07051213072D

 99104  0     1  0  0  0  0  0999 V2000
    7.1297   -2.2605    0.0000 S   0  0  0  0  0  0  0  0  0  0  0  0
    6.3878    0.2302    0.0000 S   0  0  0  0  0  0  0  0  0  0  0  0
    9.3021    1.4448    0.0000 O   0  0  0  0  0  0  0  0  0  0  0  0
    3.9079   -1.2987    0.0000 O   0  0  0  0  0  0  0  0  0  0  0  0
   10.5346   -0.5009    0.0000 O   0  0  0  0  0  0  0  0  0  0  0  0
    2.0636    1.2996    0.0000 O   0  0  0  0  0  0  0  0  0  0  0  0
    6.0758    3.5138    0.0000 O   0  0  0  0  0  0  0  0  0  0  0  0
    5.2441   -0.3988    0.0000 O   0  0  0  0  0  0  0  0  0  0  0  0
    9.0484    0.8373    0.0000 N   0  0  0  0  0  0  0  0  0  0  0  0
    7.7700    3.1537    0.0000 N   0  0  0  0  0  0  0  0  0  0  0  0
    2.2899   -1.2987    0.0000 N   0  0  0  0  0  0  0  0  0  0  0  0
    9.3757   -1.7881    0.0000 N   0  0  0  0  0  0  0  0  0  0  0  0
    4.8283   -2.3550    0.0000 N   0  0  0  0  0  0  0  0  0  0  0  0
    3.7578    0.9395    0.0000 N   0  0  0  0  0  0  0  0  0  0  0  0
    6.7304   -1.7370    0.0000 N   0  0  0  0  0  0  0  0  0  0  0  0
    5.6600    1.5575    0.0000 N   0  0  0  0  0  0  0  0  0  0  0  0
    8.5131    2.4846    0.0000 C   0  0  1  0  0  0  0  0  0  0  0  0
    9.1149    3.2832    0.0000 C   0  0  2  0  0  0  0  0  0  0  0  0
    8.8404   -0.1408    0.0000 C   0  0  1  0  0  0  0  0  0  0  0  0
    9.6107    0.4950    0.0000 C   0  0  1  0  0  0  0  0  0  0  0  0
    8.3052    1.5064    0.0000 C   0  0  0  0  0  0  0  0  0  0  0  0
    8.7242    4.2037    0.0000 C   0  0  0  0  0  0  0  0  0  0  0  0
    3.8420   -2.5556    0.0000 C   0  0  1  0  0  0  0  0  0  0  0  0
    3.3327   -3.4162    0.0000 C   0  0  0  0  0  0  0  0  0  0  0  0
    2.5989   -0.3477    0.0000 C   0  0  1  0  0  0  0  0  0  0  0  0
    3.5989   -0.3477    0.0000 C   0  0  1  0  0  0  0  0  0  0  0  0
   10.1075    3.1614    0.0000 C   0  0  0  0  0  0  0  0  0  0  0  0
    3.0989   -1.8865    0.0000 C   0  0  0  0  0  0  0  0  0  0  0  0
    9.5836   -0.8100    0.0000 C   0  0  0  0  0  0  0  0  0  0  0  0
   10.5708    0.2154    0.0000 C   0  0  0  0  0  0  0  0  0  0  0  0
    8.4246   -2.0971    0.0000 C   0  0  2  0  0  0  0  0  0  0  0  0
    9.3260    5.0024    0.0000 C   0  0  0  0  0  0  0  0  0  0  0  0
    2.3327   -3.4054    0.0000 C   0  0  0  0  0  0  0  0  0  0  0  0
    3.8233   -4.2876    0.0000 C   0  0  0  0  0  0  0  0  0  0  0  0
    2.8068    0.6305    0.0000 C   0  0  0  0  0  0  0  0  0  0  0  0
    4.1030    0.6860    0.0000 C   0  0  0  0  0  0  0  0  0  0  0  0
    6.8189    2.8447    0.0000 C   0  0  0  0  0  0  0  0  0  0  0  0
    8.4770   -3.0958    0.0000 C   0  0  0  0  0  0  0  0  0  0  0  0
    4.5010    0.2704    0.0000 C   0  0  1  0  0  0  0  0  0  0  0  0
    7.6815   -1.4280    0.0000 C   0  0  0  0  0  0  0  0  0  0  0  0
    5.0362   -1.3769    0.0000 C   0  0  0  0  0  0  0  0  0  0  0  0
    6.6110    1.8666    0.0000 C   0  0  0  0  0  0  0  0  0  0  0  0
    5.9873   -1.0679    0.0000 C   0  0  0  0  0  0  0  0  0  0  0  0
    5.4520    0.5794    0.0000 C   0  0  0  0  0  0  0  0  0  0  0  0
    9.3680   -3.5498    0.0000 C   0  0  0  0  0  0  0  0  0  0  0  0
    4.5533   -0.7283    0.0000 C   0  0  0  0  0  0  0  0  0  0  0  0
    6.1528   -2.0528    0.0000 C   0  0  0  0  0  0  0  0  0  0  0  0
    7.0561    0.9724    0.0000 C   0  0  0  0  0  0  0  0  0  0  0  0
    9.4203   -4.5484    0.0000 C   0  0  0  0  0  0  0  0  0  0  0  0
   10.2066   -3.0051    0.0000 C   0  0  0  0  0  0  0  0  0  0  0  0
   10.3113   -5.0024    0.0000 C   0  0  0  0  0  0  0  0  0  0  0  0
   11.0976   -3.4591    0.0000 C   0  0  0  0  0  0  0  0  0  0  0  0
   11.1500   -4.4577    0.0000 C   0  0  0  0  0  0  0  0  0  0  0  0
    9.3620    2.5291    0.0000 H   0  0  0  0  0  0  0  0  0  0  0  0
    9.3572    2.7125    0.0000 H   0  0  0  0  0  0  0  0  0  0  0  0
    8.0320   -0.4035    0.0000 H   0  0  0  0  0  0  0  0  0  0  0  0
   10.0423    0.9401    0.0000 H   0  0  0  0  0  0  0  0  0  0  0  0
    8.3014    4.6572    0.0000 H   0  0  0  0  0  0  0  0  0  0  0  0
    8.2042    3.8661    0.0000 H   0  0  0  0  0  0  0  0  0  0  0  0
    4.1463   -3.0958    0.0000 H   0  0  0  0  0  0  0  0  0  0  0  0
    3.9526   -3.4229    0.0000 H   0  0  0  0  0  0  0  0  0  0  0  0
    1.7778   -0.1277    0.0000 H   0  0  0  0  0  0  0  0  0  0  0  0
    4.2174   -0.3909    0.0000 H   0  0  0  0  0  0  0  0  0  0  0  0
   10.0319    2.5460    0.0000 H   0  0  0  0  0  0  0  0  0  0  0  0
   10.7229    3.0858    0.0000 H   0  0  0  0  0  0  0  0  0  0  0  0
   10.1830    3.7767    0.0000 H   0  0  0  0  0  0  0  0  0  0  0  0
    7.8989    3.7602    0.0000 H   0  0  0  0  0  0  0  0  0  0  0  0
   10.3975   -0.3799    0.0000 H   0  0  0  0  0  0  0  0  0  0  0  0
   11.1661    0.0421    0.0000 H   0  0  0  0  0  0  0  0  0  0  0  0
   10.7441    0.8107    0.0000 H   0  0  0  0  0  0  0  0  0  0  0  0
    7.9712   -2.5200    0.0000 H   0  0  0  0  0  0  0  0  0  0  0  0
    9.8212    4.6292    0.0000 H   0  0  0  0  0  0  0  0  0  0  0  0
    9.6992    5.4975    0.0000 H   0  0  0  0  0  0  0  0  0  0  0  0
    8.8309    5.3755    0.0000 H   0  0  0  0  0  0  0  0  0  0  0  0
    9.8364   -2.2030    0.0000 H   0  0  0  0  0  0  0  0  0  0  0  0
    5.2669   -2.7932    0.0000 H   0  0  0  0  0  0  0  0  0  0  0  0
    2.3394   -2.7854    0.0000 H   0  0  0  0  0  0  0  0  0  0  0  0
    1.7128   -3.3987    0.0000 H   0  0  0  0  0  0  0  0  0  0  0  0
    2.3260   -4.0254    0.0000 H   0  0  0  0  0  0  0  0  0  0  0  0
    3.2830   -4.5918    0.0000 H   0  0  0  0  0  0  0  0  0  0  0  0
    4.1275   -4.8278    0.0000 H   0  0  0  0  0  0  0  0  0  0  0  0
    4.3636   -3.9834    0.0000 H   0  0  0  0  0  0  0  0  0  0  0  0
    4.6602    0.4142    0.0000 H   0  0  0  0  0  0  0  0  0  0  0  0
    4.3748    1.2432    0.0000 H   0  0  0  0  0  0  0  0  0  0  0  0
    3.5458    0.9577    0.0000 H   0  0  0  0  0  0  0  0  0  0  0  0
    7.8616   -3.0202    0.0000 H   0  0  0  0  0  0  0  0  0  0  0  0
    8.2957   -3.6887    0.0000 H   0  0  0  0  0  0  0  0  0  0  0  0
    4.1279   -0.2248    0.0000 H   0  0  0  0  0  0  0  0  0  0  0  0
    3.8868    1.5460    0.0000 H   0  0  0  0  0  0  0  0  0  0  0  0
    3.9342   -0.7607    0.0000 H   0  0  0  0  0  0  0  0  0  0  0  0
    4.5858   -1.3474    0.0000 H   0  0  0  0  0  0  0  0  0  0  0  0
    5.1725   -0.6958    0.0000 H   0  0  0  0  0  0  0  0  0  0  0  0
    5.7050   -2.4817    0.0000 H   0  0  0  0  0  0  0  0  0  0  0  0
    7.6704    0.8886    0.0000 H   0  0  0  0  0  0  0  0  0  0  0  0
    8.9003   -4.8860    0.0000 H   0  0  0  0  0  0  0  0  0  0  0  0
   10.1742   -2.3860    0.0000 H   0  0  0  0  0  0  0  0  0  0  0  0
   10.3438   -5.6215    0.0000 H   0  0  0  0  0  0  0  0  0  0  0  0
   11.6176   -3.1214    0.0000 H   0  0  0  0  0  0  0  0  0  0  0  0
   11.7024   -4.7392    0.0000 H   0  0  0  0  0  0  0  0  0  0  0  0
  1 40  1  0  0  0  0
  1 47  1  0  0  0  0
  2 44  1  0  0  0  0
  2 48  1  0  0  0  0
  3 20  1  0  0  0  0
  3 21  1  0  0  0  0
  4 26  1  0  0  0  0
  4 28  1  0  0  0  0
  5 29  2  0  0  0  0
  6 35  2  0  0  0  0
  7 37  2  0  0  0  0
  8 41  2  0  0  0  0
  9 19  1  0  0  0  0
  9 21  2  0  0  0  0
 10 17  1  0  0  0  0
 10 37  1  0  0  0  0
 10 67  1  0  0  0  0
 11 25  1  0  0  0  0
 11 28  2  0  0  0  0
 12 29  1  0  0  0  0
 12 31  1  0  0  0  0
 12 75  1  0  0  0  0
 13 23  1  0  0  0  0
 13 41  1  0  0  0  0
 13 76  1  0  0  0  0
 14 35  1  0  0  0  0
 14 39  1  0  0  0  0
 14 89  1  0  0  0  0
 15 40  2  0  0  0  0
 15 43  1  0  0  0  0
 16 42  1  0  0  0  0
 16 44  2  0  0  0  0
 17 18  1  0  0  0  0
 17 21  1  0  0  0  0
 17 54  1  6  0  0  0
 18 22  1  0  0  0  0
 18 27  1  6  0  0  0
 18 55  1  0  0  0  0
 19 20  1  0  0  0  0
 19 29  1  0  0  0  0
 19 56  1  6  0  0  0
 20 30  1  6  0  0  0
 20 57  1  0  0  0  0
 22 32  1  0  0  0  0
 22 58  1  0  0  0  0
 22 59  1  0  0  0  0
 23 24  1  1  0  0  0
 23 28  1  0  0  0  0
 23 60  1  0  0  0  0
 24 33  1  0  0  0  0
 24 34  1  0  0  0  0
 24 61  1  0  0  0  0
 25 26  1  0  0  0  0
 25 35  1  0  0  0  0
 25 62  1  1  0  0  0
 26 36  1  1  0  0  0
 26 63  1  0  0  0  0
 27 64  1  0  0  0  0
 27 65  1  0  0  0  0
 27 66  1  0  0  0  0
 30 68  1  0  0  0  0
 30 69  1  0  0  0  0
 30 70  1  0  0  0  0
 31 38  1  6  0  0  0
 31 40  1  0  0  0  0
 31 71  1  0  0  0  0
 32 72  1  0  0  0  0
 32 73  1  0  0  0  0
 32 74  1  0  0  0  0
 33 77  1  0  0  0  0
 33 78  1  0  0  0  0
 33 79  1  0  0  0  0
 34 80  1  0  0  0  0
 34 81  1  0  0  0  0
 34 82  1  0  0  0  0
 36 83  1  0  0  0  0
 36 84  1  0  0  0  0
 36 85  1  0  0  0  0
 37 42  1  0  0  0  0
 38 45  1  0  0  0  0
 38 86  1  0  0  0  0
 38 87  1  0  0  0  0
 39 44  1  0  0  0  0
 39 46  1  1  0  0  0
 39 88  1  0  0  0  0
 41 43  1  0  0  0  0
 42 48  2  0  0  0  0
 43 47  2  0  0  0  0
 45 49  2  0  0  0  0
 45 50  1  0  0  0  0
 46 90  1  0  0  0  0
 46 91  1  0  0  0  0
 46 92  1  0  0  0  0
 47 93  1  0  0  0  0
 48 94  1  0  0  0  0
 49 51  1  0  0  0  0
 49 95  1  0  0  0  0
 50 52  2  0  0  0  0
 50 96  1  0  0  0  0
 51 53  2  0  0  0  0
 51 97  1  0  0  0  0
 52 53  1  0  0  0  0
 52 98  1  0  0  0  0
 53 99  1  0  0  0  0
M  END
> <PUBCHEM_COMPOUND_CID>
9767970

> <PUBCHEM_COMPOUND_CANONICALIZED>
1

> <PUBCHEM_CACTVS_COMPLEXITY>
1430

> <PUBCHEM_CACTVS_HBOND_ACCEPTOR>
12

> <PUBCHEM_CACTVS_HBOND_DONOR>
4

> <PUBCHEM_CACTVS_ROTATABLE_BOND>
5

> <PUBCHEM_CACTVS_SUBSKEYS>
AAADcfB/+ABgAAAAAAAAAAAAAAAAAWLECAAwAAAAAAAAAAAB8AAAHgQQAAAADTzl3gaygZLIFAisAyVyVACC8KBnCjgIiJW4JMgKYDagkTGXIAgmtgC4iIeQgIAOAAAAAAAAAAAAAAAAAAAAAAAAAAAAAA==

> <PUBCHEM_IUPAC_INCHI>
InChI=1S/C37H46N8O6S2/c1-8-18(4)27-35-45-29(21(7)51-35)33(49)39-23(14-22-12-10-9-11-13-22)37-41-25(16-53-37)30(46)42-26(17(2)3)34-44-28(20(6)50-34)32(48)38-19(5)36-40-24(15-52-36)31(47)43-27/h9-13,15-21,23,26-29H,8,14H2,1-7H3,(H,38,48)(H,39,49)(H,42,46)(H,43,47)/t18-,19+,20+,21+,23+,26-,27-,28-,29-/m0/s1

> <PUBCHEM_IUPAC_INCHIKEY>
CFXBLGFMQUFLKS-FUEDQDKVSA-N

> <PUBCHEM_XLOGP3_AA>
5

> <PUBCHEM_EXACT_MASS>
762.298173

> <PUBCHEM_MOLECULAR_FORMULA>
C37H46N8O6S2

> <PUBCHEM_MOLECULAR_WEIGHT>
762.94114

> <PUBCHEM_OPENEYE_CAN_SMILES>
CCC(C)C1C2=NC(C(O2)C)C(=O)NC(C3=NC(=CS3)C(=O)NC(C4=NC(C(O4)C)C(=O)NC(C5=NC(=CS5)C(=O)N1)C)C(C)C)CC6=CC=CC=C6

> <PUBCHEM_OPENEYE_ISO_SMILES>
CC[C@H](C)[C@H]1C2=N[C@@H]([C@H](O2)C)C(=O)N[C@@H](C3=NC(=CS3)C(=O)N[C@H](C4=N[C@@H]([C@H](O4)C)C(=O)N[C@@H](C5=NC(=CS5)C(=O)N1)C)C(C)C)CC6=CC=CC=C6

> <PUBCHEM_CACTVS_TPSA>
242

> <PUBCHEM_MONOISOTOPIC_WEIGHT>
762.298173

> <PUBCHEM_TOTAL_CHARGE>
0

> <PUBCHEM_HEAVY_ATOM_COUNT>
53

> <PUBCHEM_ATOM_DEF_STEREO_COUNT>
9

> <PUBCHEM_ATOM_UDEF_STEREO_COUNT>
0

> <PUBCHEM_BOND_DEF_STEREO_COUNT>
0

> <PUBCHEM_BOND_UDEF_STEREO_COUNT>
0

> <PUBCHEM_ISOTOPIC_ATOM_COUNT>
0

> <PUBCHEM_COMPONENT_COUNT>
1

> <PUBCHEM_CACTVS_TAUTO_COUNT>
16

> <PUBCHEM_COORDINATE_TYPE>
1
5
255

> <PUBCHEM_BONDANNOTATIONS>
1  40  8
1  47  8
15  40  8
15  43  8
16  42  8
16  44  8
17  54  6
18  27  6
19  56  6
2  44  8
2  48  8
20  30  6
23  24  5
25  62  5
26  36  5
31  38  6
39  46  5
42  48  8
43  47  8
45  49  8
45  50  8
49  51  8
50  52  8
51  53  8
52  53  8

$$$$

