332427
  -OEChem-07051213002D

 50 52  0     1  0  0  0  0  0999 V2000
    3.7891   -0.2906    0.0000 O   0  0  0  0  0  0  0  0  0  0  0  0
    7.1013    0.0695    0.0000 O   0  0  0  0  0  0  0  0  0  0  0  0
    2.8660   -3.8784    0.0000 O   0  0  0  0  0  0  0  0  0  0  0  0
    6.0480    4.9146    0.0000 O   0  0  0  0  0  0  0  0  0  0  0  0
    4.5981   -4.8784    0.0000 O   0  0  0  0  0  0  0  0  0  0  0  0
    4.0589    5.1236    0.0000 O   0  0  0  0  0  0  0  0  0  0  0  0
    5.4071   -0.2906    0.0000 C   0  0  1  0  0  0  0  0  0  0  0  0
    5.0981    0.6604    0.0000 C   0  0  2  0  0  0  0  0  0  0  0  0
    4.5981   -0.8784    0.0000 C   0  0  1  0  0  0  0  0  0  0  0  0
    4.0981    0.6604    0.0000 C   0  0  0  0  0  0  0  0  0  0  0  0
    5.6859    1.4694    0.0000 C   0  0  0  0  0  0  0  0  0  0  0  0
    6.3582   -0.5997    0.0000 C   0  0  0  0  0  0  0  0  0  0  0  0
    4.5981   -1.8784    0.0000 C   0  0  0  0  0  0  0  0  0  0  0  0
    5.2791    2.3830    0.0000 C   0  0  0  0  0  0  0  0  0  0  0  0
    3.7320   -2.3784    0.0000 C   0  0  0  0  0  0  0  0  0  0  0  0
    5.4641   -2.3784    0.0000 C   0  0  0  0  0  0  0  0  0  0  0  0
    5.8669    3.1920    0.0000 C   0  0  0  0  0  0  0  0  0  0  0  0
    4.2846    2.4875    0.0000 C   0  0  0  0  0  0  0  0  0  0  0  0
    3.7320   -3.3784    0.0000 C   0  0  0  0  0  0  0  0  0  0  0  0
    5.4641   -3.3784    0.0000 C   0  0  0  0  0  0  0  0  0  0  0  0
    4.5981   -3.8784    0.0000 C   0  0  0  0  0  0  0  0  0  0  0  0
    5.4602    4.1055    0.0000 C   0  0  0  0  0  0  0  0  0  0  0  0
    3.8779    3.4010    0.0000 C   0  0  0  0  0  0  0  0  0  0  0  0
    4.4656    4.2101    0.0000 C   0  0  0  0  0  0  0  0  0  0  0  0
    2.0000   -3.3784    0.0000 C   0  0  0  0  0  0  0  0  0  0  0  0
    7.0425    4.8100    0.0000 C   0  0  0  0  0  0  0  0  0  0  0  0
    5.5041   -0.9030    0.0000 H   0  0  0  0  0  0  0  0  0  0  0  0
    5.7104    0.5634    0.0000 H   0  0  0  0  0  0  0  0  0  0  0  0
    5.1505   -1.1599    0.0000 H   0  0  0  0  0  0  0  0  0  0  0  0
    4.1629    1.2770    0.0000 H   0  0  0  0  0  0  0  0  0  0  0  0
    3.4916    0.7893    0.0000 H   0  0  0  0  0  0  0  0  0  0  0  0
    6.1166    1.0234    0.0000 H   0  0  0  0  0  0  0  0  0  0  0  0
    6.1999    1.8161    0.0000 H   0  0  0  0  0  0  0  0  0  0  0  0
    6.0671   -1.1471    0.0000 H   0  0  0  0  0  0  0  0  0  0  0  0
    6.8467   -0.9814    0.0000 H   0  0  0  0  0  0  0  0  0  0  0  0
    3.1951   -2.0684    0.0000 H   0  0  0  0  0  0  0  0  0  0  0  0
    6.0010   -2.0684    0.0000 H   0  0  0  0  0  0  0  0  0  0  0  0
    7.6910   -0.1221    0.0000 H   0  0  0  0  0  0  0  0  0  0  0  0
    6.4835    3.1272    0.0000 H   0  0  0  0  0  0  0  0  0  0  0  0
    3.9202    1.9859    0.0000 H   0  0  0  0  0  0  0  0  0  0  0  0
    6.0010   -3.6884    0.0000 H   0  0  0  0  0  0  0  0  0  0  0  0
    3.2613    3.4659    0.0000 H   0  0  0  0  0  0  0  0  0  0  0  0
    5.1350   -5.1884    0.0000 H   0  0  0  0  0  0  0  0  0  0  0  0
    3.4423    5.1884    0.0000 H   0  0  0  0  0  0  0  0  0  0  0  0
    2.3100   -2.8415    0.0000 H   0  0  0  0  0  0  0  0  0  0  0  0
    1.4631   -3.0684    0.0000 H   0  0  0  0  0  0  0  0  0  0  0  0
    1.6900   -3.9154    0.0000 H   0  0  0  0  0  0  0  0  0  0  0  0
    6.9777    4.1934    0.0000 H   0  0  0  0  0  0  0  0  0  0  0  0
    7.6591    4.7452    0.0000 H   0  0  0  0  0  0  0  0  0  0  0  0
    7.1073    5.4266    0.0000 H   0  0  0  0  0  0  0  0  0  0  0  0
  1  9  1  0  0  0  0
  1 10  1  0  0  0  0
  2 12  1  0  0  0  0
  2 38  1  0  0  0  0
  3 19  1  0  0  0  0
  3 25  1  0  0  0  0
  4 22  1  0  0  0  0
  4 26  1  0  0  0  0
  5 21  1  0  0  0  0
  5 43  1  0  0  0  0
  6 24  1  0  0  0  0
  6 44  1  0  0  0  0
  7  8  1  0  0  0  0
  7  9  1  0  0  0  0
  7 12  1  6  0  0  0
  7 27  1  0  0  0  0
  8 10  1  0  0  0  0
  8 11  1  6  0  0  0
  8 28  1  0  0  0  0
  9 13  1  1  0  0  0
  9 29  1  0  0  0  0
 10 30  1  0  0  0  0
 10 31  1  0  0  0  0
 11 14  1  0  0  0  0
 11 32  1  0  0  0  0
 11 33  1  0  0  0  0
 12 34  1  0  0  0  0
 12 35  1  0  0  0  0
 13 15  2  0  0  0  0
 13 16  1  0  0  0  0
 14 17  2  0  0  0  0
 14 18  1  0  0  0  0
 15 19  1  0  0  0  0
 15 36  1  0  0  0  0
 16 20  2  0  0  0  0
 16 37  1  0  0  0  0
 17 22  1  0  0  0  0
 17 39  1  0  0  0  0
 18 23  2  0  0  0  0
 18 40  1  0  0  0  0
 19 21  2  0  0  0  0
 20 21  1  0  0  0  0
 20 41  1  0  0  0  0
 22 24  2  0  0  0  0
 23 24  1  0  0  0  0
 23 42  1  0  0  0  0
 25 45  1  0  0  0  0
 25 46  1  0  0  0  0
 25 47  1  0  0  0  0
 26 48  1  0  0  0  0
 26 49  1  0  0  0  0
 26 50  1  0  0  0  0
M  END
> <PUBCHEM_COMPOUND_CID>
332427

> <PUBCHEM_COMPOUND_CANONICALIZED>
1

> <PUBCHEM_CACTVS_COMPLEXITY>
433

> <PUBCHEM_CACTVS_HBOND_ACCEPTOR>
6

> <PUBCHEM_CACTVS_HBOND_DONOR>
3

> <PUBCHEM_CACTVS_ROTATABLE_BOND>
6

> <PUBCHEM_CACTVS_SUBSKEYS>
AAADceB4OAAAAAAAAAAAAAAAAAAAASAAAAAwYAAAAAAAAAABQAAAGgAACAAADRSgmAIyBoAABgCAAiBCAAACCAAgIAAIiAAGiIgNNiKGMRqCcCMlwBELuAfA4PwOoAABAAAAQABAAAIAAACAAAAAAAAAAA==

> <PUBCHEM_IUPAC_OPENEYE_NAME>
4-[[(3R,4R,5S)-5-(4-hydroxy-3-methoxy-phenyl)-4-(hydroxymethyl)tetrahydrofuran-3-yl]methyl]-2-methoxy-phenol

> <PUBCHEM_IUPAC_CAS_NAME>
4-[[(3R,4R,5S)-5-(4-hydroxy-3-methoxyphenyl)-4-(hydroxymethyl)-3-oxolanyl]methyl]-2-methoxyphenol

> <PUBCHEM_IUPAC_NAME>
4-[[(3R,4R,5S)-5-(4-hydroxy-3-methoxyphenyl)-4-(hydroxymethyl)oxolan-3-yl]methyl]-2-methoxyphenol

> <PUBCHEM_IUPAC_SYSTEMATIC_NAME>
4-[[(3R,4R,5S)-4-(hydroxymethyl)-5-(3-methoxy-4-oxidanyl-phenyl)oxolan-3-yl]methyl]-2-methoxy-phenol

> <PUBCHEM_IUPAC_TRADITIONAL_NAME>
4-[[(3R,4R,5S)-5-(4-hydroxy-3-methoxy-phenyl)-4-methylol-tetrahydrofuran-3-yl]methyl]-2-methoxy-phenol

> <PUBCHEM_IUPAC_INCHI>
InChI=1S/C20H24O6/c1-24-18-8-12(3-5-16(18)22)7-14-11-26-20(15(14)10-21)13-4-6-17(23)19(9-13)25-2/h3-6,8-9,14-15,20-23H,7,10-11H2,1-2H3/t14-,15-,20+/m0/s1

> <PUBCHEM_IUPAC_INCHIKEY>
MHXCIKYXNYCMHY-AUSJPIAWSA-N

> <PUBCHEM_XLOGP3_AA>
2.4

> <PUBCHEM_EXACT_MASS>
360.157288

> <PUBCHEM_MOLECULAR_FORMULA>
C20H24O6

> <PUBCHEM_MOLECULAR_WEIGHT>
360.40096

> <PUBCHEM_OPENEYE_CAN_SMILES>
COC1=C(C=CC(=C1)CC2COC(C2CO)C3=CC(=C(C=C3)O)OC)O

> <PUBCHEM_OPENEYE_ISO_SMILES>
COC1=C(C=CC(=C1)C[C@H]2CO[C@@H]([C@H]2CO)C3=CC(=C(C=C3)O)OC)O

> <PUBCHEM_CACTVS_TPSA>
88.4

> <PUBCHEM_MONOISOTOPIC_WEIGHT>
360.157288

> <PUBCHEM_TOTAL_CHARGE>
0

> <PUBCHEM_HEAVY_ATOM_COUNT>
26

> <PUBCHEM_ATOM_DEF_STEREO_COUNT>
3

> <PUBCHEM_ATOM_UDEF_STEREO_COUNT>
0

> <PUBCHEM_BOND_DEF_STEREO_COUNT>
0

> <PUBCHEM_BOND_UDEF_STEREO_COUNT>
0

> <PUBCHEM_ISOTOPIC_ATOM_COUNT>
0

> <PUBCHEM_COMPONENT_COUNT>
1

> <PUBCHEM_CACTVS_TAUTO_COUNT>
8

> <PUBCHEM_COORDINATE_TYPE>
1
5
255

> <PUBCHEM_BONDANNOTATIONS>
13  15  8
13  16  8
14  17  8
14  18  8
15  19  8
16  20  8
17  22  8
18  23  8
19  21  8
20  21  8
22  24  8
23  24  8
7  12  6
8  11  6
9  13  5

$$$$

