17395384
  -OEChem-06241222492D

 41 43  0     0  0  0  0  0  0999 V2000
    5.8046   -0.4030    0.0000 O   0  0  0  0  0  0  0  0  0  0  0  0
    2.9898    0.7994    0.0000 O   0  0  0  0  0  0  0  0  0  0  0  0
    8.4026    2.0970    0.0000 O   0  0  0  0  0  0  0  0  0  0  0  0
    4.9385   -1.9030    0.0000 O   0  0  0  0  0  0  0  0  0  0  0  0
    8.4026   -0.9030    0.0000 N   0  0  0  0  0  0  0  0  0  0  0  0
    7.5366    0.5970    0.0000 N   0  0  0  0  0  0  0  0  0  0  0  0
    2.4898   -0.0666    0.0000 N   0  0  0  0  0  0  0  0  0  0  0  0
    9.2687   -0.4030    0.0000 C   0  0  0  0  0  0  0  0  0  0  0  0
    9.2687    0.5970    0.0000 C   0  0  0  0  0  0  0  0  0  0  0  0
   10.1626   -0.9377    0.0000 C   0  0  0  0  0  0  0  0  0  0  0  0
    7.5366   -0.4030    0.0000 C   0  0  0  0  0  0  0  0  0  0  0  0
    4.0725   -0.4030    0.0000 C   0  0  0  0  0  0  0  0  0  0  0  0
    3.1590   -0.8098    0.0000 C   0  0  0  0  0  0  0  0  0  0  0  0
    6.6706   -0.9030    0.0000 C   0  0  0  0  0  0  0  0  0  0  0  0
    2.9511   -1.7879    0.0000 C   0  0  0  0  0  0  0  0  0  0  0  0
   10.1626    1.1316    0.0000 C   0  0  0  0  0  0  0  0  0  0  0  0
   11.0687   -0.4239    0.0000 C   0  0  0  0  0  0  0  0  0  0  0  0
    8.4026    1.0970    0.0000 C   0  0  0  0  0  0  0  0  0  0  0  0
    3.9680    0.5915    0.0000 C   0  0  0  0  0  0  0  0  0  0  0  0
   11.0687    0.6178    0.0000 C   0  0  0  0  0  0  0  0  0  0  0  0
   10.1510   -1.9376    0.0000 C   0  0  0  0  0  0  0  0  0  0  0  0
    4.9385   -0.9030    0.0000 C   0  0  0  0  0  0  0  0  0  0  0  0
    2.0000   -2.0970    0.0000 C   0  0  0  0  0  0  0  0  0  0  0  0
    4.7111    1.2606    0.0000 C   0  0  0  0  0  0  0  0  0  0  0  0
    8.4026   -1.5230    0.0000 H   0  0  0  0  0  0  0  0  0  0  0  0
    6.2721   -1.3780    0.0000 H   0  0  0  0  0  0  0  0  0  0  0  0
    7.0691   -1.3780    0.0000 H   0  0  0  0  0  0  0  0  0  0  0  0
    3.0373   -2.4019    0.0000 H   0  0  0  0  0  0  0  0  0  0  0  0
    3.5707   -1.8096    0.0000 H   0  0  0  0  0  0  0  0  0  0  0  0
   10.1554    1.7516    0.0000 H   0  0  0  0  0  0  0  0  0  0  0  0
   11.6044   -0.7359    0.0000 H   0  0  0  0  0  0  0  0  0  0  0  0
   11.6044    0.9298    0.0000 H   0  0  0  0  0  0  0  0  0  0  0  0
    9.5311   -1.9305    0.0000 H   0  0  0  0  0  0  0  0  0  0  0  0
   10.1439   -2.5576    0.0000 H   0  0  0  0  0  0  0  0  0  0  0  0
   10.7710   -1.9448    0.0000 H   0  0  0  0  0  0  0  0  0  0  0  0
    1.8084   -1.5073    0.0000 H   0  0  0  0  0  0  0  0  0  0  0  0
    1.4103   -2.2885    0.0000 H   0  0  0  0  0  0  0  0  0  0  0  0
    2.1916   -2.6866    0.0000 H   0  0  0  0  0  0  0  0  0  0  0  0
    5.1260    0.7999    0.0000 H   0  0  0  0  0  0  0  0  0  0  0  0
    5.1719    1.6755    0.0000 H   0  0  0  0  0  0  0  0  0  0  0  0
    4.2963    1.7214    0.0000 H   0  0  0  0  0  0  0  0  0  0  0  0
  1 14  1  0  0  0  0
  1 22  1  0  0  0  0
  2  7  1  0  0  0  0
  2 19  1  0  0  0  0
  3 18  2  0  0  0  0
  4 22  2  0  0  0  0
  5  8  1  0  0  0  0
  5 11  1  0  0  0  0
  5 25  1  0  0  0  0
  6 11  2  0  0  0  0
  6 18  1  0  0  0  0
  7 13  2  0  0  0  0
  8  9  1  0  0  0  0
  8 10  2  0  0  0  0
  9 16  2  0  0  0  0
  9 18  1  0  0  0  0
 10 17  1  0  0  0  0
 10 21  1  0  0  0  0
 11 14  1  0  0  0  0
 12 13  1  0  0  0  0
 12 19  2  0  0  0  0
 12 22  1  0  0  0  0
 13 15  1  0  0  0  0
 14 26  1  0  0  0  0
 14 27  1  0  0  0  0
 15 23  1  0  0  0  0
 15 28  1  0  0  0  0
 15 29  1  0  0  0  0
 16 20  1  0  0  0  0
 16 30  1  0  0  0  0
 17 20  2  0  0  0  0
 17 31  1  0  0  0  0
 19 24  1  0  0  0  0
 20 32  1  0  0  0  0
 21 33  1  0  0  0  0
 21 34  1  0  0  0  0
 21 35  1  0  0  0  0
 23 36  1  0  0  0  0
 23 37  1  0  0  0  0
 23 38  1  0  0  0  0
 24 39  1  0  0  0  0
 24 40  1  0  0  0  0
 24 41  1  0  0  0  0
M  END
> <PUBCHEM_COMPOUND_CID>
17395384

> <PUBCHEM_COMPOUND_CANONICALIZED>
1

> <PUBCHEM_CACTVS_COMPLEXITY>
536

> <PUBCHEM_CACTVS_HBOND_ACCEPTOR>
5

> <PUBCHEM_CACTVS_HBOND_DONOR>
1

> <PUBCHEM_CACTVS_ROTATABLE_BOND>
5

> <PUBCHEM_CACTVS_SUBSKEYS>
AAADceB7OAAAAAAAAAAAAAAAAAAAAWAAAAAwQAAAAAAAAACBwAAAHgAUAAAADAyhngIzzJLQBACpA6fyfgSCAAElIAApmCE0TNoKJz7I/ZuHMchnsBjY6ceYiECOAAACAAACAAAAAAQAAAQAAAAAAAAAAA==

> <PUBCHEM_IUPAC_OPENEYE_NAME>
(8-methyl-4-oxo-1H-quinazolin-2-yl)methyl 3-ethyl-5-methyl-isoxazole-4-carboxylate

> <PUBCHEM_IUPAC_CAS_NAME>
3-ethyl-5-methyl-4-isoxazolecarboxylic acid (8-methyl-4-oxo-1H-quinazolin-2-yl)methyl ester

> <PUBCHEM_IUPAC_NAME>
(8-methyl-4-oxo-1H-quinazolin-2-yl)methyl 3-ethyl-5-methyl-1,2-oxazole-4-carboxylate

> <PUBCHEM_IUPAC_SYSTEMATIC_NAME>
(8-methyl-4-oxidanylidene-1H-quinazolin-2-yl)methyl 3-ethyl-5-methyl-1,2-oxazole-4-carboxylate

> <PUBCHEM_IUPAC_TRADITIONAL_NAME>
3-ethyl-5-methyl-isoxazole-4-carboxylic acid (4-keto-8-methyl-1H-quinazolin-2-yl)methyl ester

> <PUBCHEM_IUPAC_INCHI>
InChI=1S/C17H17N3O4/c1-4-12-14(10(3)24-20-12)17(22)23-8-13-18-15-9(2)6-5-7-11(15)16(21)19-13/h5-7H,4,8H2,1-3H3,(H,18,19,21)

> <PUBCHEM_IUPAC_INCHIKEY>
WRSULCGWGHCSLU-UHFFFAOYSA-N

> <PUBCHEM_XLOGP3_AA>
2.3

> <PUBCHEM_EXACT_MASS>
327.121906

> <PUBCHEM_MOLECULAR_FORMULA>
C17H17N3O4

> <PUBCHEM_MOLECULAR_WEIGHT>
327.33458

> <PUBCHEM_OPENEYE_CAN_SMILES>
CCC1=NOC(=C1C(=O)OCC2=NC(=O)C3=C(N2)C(=CC=C3)C)C

> <PUBCHEM_OPENEYE_ISO_SMILES>
CCC1=NOC(=C1C(=O)OCC2=NC(=O)C3=C(N2)C(=CC=C3)C)C

> <PUBCHEM_CACTVS_TPSA>
93.8

> <PUBCHEM_MONOISOTOPIC_WEIGHT>
327.121906

> <PUBCHEM_TOTAL_CHARGE>
0

> <PUBCHEM_HEAVY_ATOM_COUNT>
24

> <PUBCHEM_ATOM_DEF_STEREO_COUNT>
0

> <PUBCHEM_ATOM_UDEF_STEREO_COUNT>
0

> <PUBCHEM_BOND_DEF_STEREO_COUNT>
0

> <PUBCHEM_BOND_UDEF_STEREO_COUNT>
0

> <PUBCHEM_ISOTOPIC_ATOM_COUNT>
0

> <PUBCHEM_COMPONENT_COUNT>
1

> <PUBCHEM_CACTVS_TAUTO_COUNT>
10

> <PUBCHEM_COORDINATE_TYPE>
1
5
255

> <PUBCHEM_BONDANNOTATIONS>
10  17  8
12  13  8
12  19  8
16  20  8
17  20  8
2  19  8
2  7  8
5  11  8
5  8  8
6  11  8
6  18  8
7  13  8
8  10  8
8  9  8
9  16  8
9  18  8

$$$$

