   Color/Form
        Colorless crystals
   from [1]HSDB

   Odor
        Odorless
   from [2]HSDB

   Melting Point
        177-178 deg C
   from [3]HSDB

   Dissociation Constants
        pKa1 = 7.60; pKa2 = 11.6
   from [4]HSDB

   Octanol/Water Partition Coefficient
        log Kow = 4.26
   from [5]HSDB

   Solubilities

     * Sparingly sol in toluene; 1 g sol in 1 g of 95% ethanol, in less
       than 1 g of ether; sol in methanol, isopropyl ether, petroleum
       ether; sol (with decomp) in alkaline aq solutions
     * In water, 30 mg/L at 25 deg C

   from [6]HSDB

   Spectral Properties

     * Dichlorophene exhibits a lambda max at 281 nm (epsilon 3800
       L/mol-cm) for the non dissociated species and a lambda max of 301
       nm (epsilon 5050 L/mol-cm) for the anionic species.
     * MASS: 80654 (NIST/EPA/MSDC Mass Spectral database, 1990 version)
     * IR: 6258 (Coblentz Society Spectral Collection)
     * NMR: VAR 210

   from [7]HSDB

   Vapor Pressure
        9.75X10-11 mm Hg at 25 deg C
   from [8]HSDB

   Other Chemical/Physical Properties

     * Slight phenolic smell, light tan powder /Technical grade/
     * Henry's Law constant = 1.2X10-12 atm-cu m/mole at 25 deg C (est)
     * Hydroxyl radical reaction rate constant = 2.5X10-11 cu cm/molec-sec
       at 25 deg C (est)

   from [9]HSDB

   Computed Properties
   Molecular Weight                  269.1233 [g/mol]
   Molecular Formula                 C[13]H[10]Cl[2]O[2]
   XLogP3                            4.3
   H-Bond Donor                      2
   H-Bond Acceptor                   2
   Rotatable Bond Count              2
   Tautomer Count                    5
   Exact Mass                        268.005785
   MonoIsotopic Mass                 268.005785
   Topological Polar Surface Area    40.5
   Heavy Atom Count                  17
   Formal Charge                     0
   Complexity                        226
   Isotope Atom Count                0
   Defined Atom Stereocenter Count   0
   Undefined Atom Stereocenter Count 0
   Defined Bond Stereocenter Count   0
   Undefined Bond Stereocenter Count 0
   Covalently-Bonded Unit Count      1
   Feature 3D Donor Count            2
   Feature 3D Ring Count             2
   Effective Rotor Count             2
   Conformer Sampling RMSD           0.6
   CID Conformer Count               [10]12

References

   1. http://toxnet.nlm.nih.gov/cgi-bin/sis/search/r?dbs+hsdb:@term+@rn+@rel+97-23-4
   2. http://toxnet.nlm.nih.gov/cgi-bin/sis/search/r?dbs+hsdb:@term+@rn+@rel+97-23-4
   3. http://toxnet.nlm.nih.gov/cgi-bin/sis/search/r?dbs+hsdb:@term+@rn+@rel+97-23-4
   4. http://toxnet.nlm.nih.gov/cgi-bin/sis/search/r?dbs+hsdb:@term+@rn+@rel+97-23-4
   5. http://toxnet.nlm.nih.gov/cgi-bin/sis/search/r?dbs+hsdb:@term+@rn+@rel+97-23-4
   6. http://toxnet.nlm.nih.gov/cgi-bin/sis/search/r?dbs+hsdb:@term+@rn+@rel+97-23-4
   7. http://toxnet.nlm.nih.gov/cgi-bin/sis/search/r?dbs+hsdb:@term+@rn+@rel+97-23-4
   8. http://toxnet.nlm.nih.gov/cgi-bin/sis/search/r?dbs+hsdb:@term+@rn+@rel+97-23-4
   9. http://toxnet.nlm.nih.gov/cgi-bin/sis/search/r?dbs+hsdb:@term+@rn+@rel+97-23-4
  10. http://pubchem.ncbi.nlm.nih.gov/vw3d/vw3d.cgi?cid=3037
