13936
  -OEChem-06241222412D

 38 37  0     0  0  0  0  0  0999 V2000
    3.3660    9.5000    0.0000 Cl  0  0  0  0  0  0  0  0  0  0  0  0
    6.8301    9.5000    0.0000 Cl  0  0  0  0  0  0  0  0  0  0  0  0
    2.5000    0.0000    0.0000 Na  0  3  0  0  0  0  0  0  0  0  0  0
    3.3660    0.5000    0.0000 O   0  5  0  0  0  0  0  0  0  0  0  0
    2.5000    2.0000    0.0000 O   0  0  0  0  0  0  0  0  0  0  0  0
    5.0981    7.5000    0.0000 N   0  0  0  0  0  0  0  0  0  0  0  0
    5.0981    6.5000    0.0000 C   0  0  0  0  0  0  0  0  0  0  0  0
    5.0981    3.5000    0.0000 C   0  0  0  0  0  0  0  0  0  0  0  0
    5.0981    4.5000    0.0000 C   0  0  0  0  0  0  0  0  0  0  0  0
    4.2321    8.0000    0.0000 C   0  0  0  0  0  0  0  0  0  0  0  0
    5.9641    8.0000    0.0000 C   0  0  0  0  0  0  0  0  0  0  0  0
    4.2321    3.0000    0.0000 C   0  0  0  0  0  0  0  0  0  0  0  0
    4.2321    6.0000    0.0000 C   0  0  0  0  0  0  0  0  0  0  0  0
    5.9641    6.0000    0.0000 C   0  0  0  0  0  0  0  0  0  0  0  0
    4.2321    5.0000    0.0000 C   0  0  0  0  0  0  0  0  0  0  0  0
    5.9641    5.0000    0.0000 C   0  0  0  0  0  0  0  0  0  0  0  0
    4.2321    2.0000    0.0000 C   0  0  0  0  0  0  0  0  0  0  0  0
    4.2321    9.0000    0.0000 C   0  0  0  0  0  0  0  0  0  0  0  0
    5.9641    9.0000    0.0000 C   0  0  0  0  0  0  0  0  0  0  0  0
    3.3660    1.5000    0.0000 C   0  0  0  0  0  0  0  0  0  0  0  0
    5.3101    2.9174    0.0000 H   0  0  0  0  0  0  0  0  0  0  0  0
    5.7087    3.6077    0.0000 H   0  0  0  0  0  0  0  0  0  0  0  0
    3.6215    8.1077    0.0000 H   0  0  0  0  0  0  0  0  0  0  0  0
    4.0200    7.4174    0.0000 H   0  0  0  0  0  0  0  0  0  0  0  0
    6.1762    7.4174    0.0000 H   0  0  0  0  0  0  0  0  0  0  0  0
    6.5747    8.1077    0.0000 H   0  0  0  0  0  0  0  0  0  0  0  0
    4.0200    3.5826    0.0000 H   0  0  0  0  0  0  0  0  0  0  0  0
    3.6215    2.8923    0.0000 H   0  0  0  0  0  0  0  0  0  0  0  0
    3.6951    6.3100    0.0000 H   0  0  0  0  0  0  0  0  0  0  0  0
    6.5010    6.3100    0.0000 H   0  0  0  0  0  0  0  0  0  0  0  0
    3.6951    4.6900    0.0000 H   0  0  0  0  0  0  0  0  0  0  0  0
    6.5010    4.6900    0.0000 H   0  0  0  0  0  0  0  0  0  0  0  0
    4.4441    1.4174    0.0000 H   0  0  0  0  0  0  0  0  0  0  0  0
    4.8426    2.1077    0.0000 H   0  0  0  0  0  0  0  0  0  0  0  0
    4.4441    9.5826    0.0000 H   0  0  0  0  0  0  0  0  0  0  0  0
    4.8426    8.8923    0.0000 H   0  0  0  0  0  0  0  0  0  0  0  0
    5.3535    8.8923    0.0000 H   0  0  0  0  0  0  0  0  0  0  0  0
    5.7520    9.5826    0.0000 H   0  0  0  0  0  0  0  0  0  0  0  0
  1 18  1  0  0  0  0
  2 19  1  0  0  0  0
  4 20  1  0  0  0  0
  5 20  2  0  0  0  0
  6  7  1  0  0  0  0
  6 10  1  0  0  0  0
  6 11  1  0  0  0  0
  7 13  2  0  0  0  0
  7 14  1  0  0  0  0
  8  9  1  0  0  0  0
  8 12  1  0  0  0  0
  8 21  1  0  0  0  0
  8 22  1  0  0  0  0
  9 15  2  0  0  0  0
  9 16  1  0  0  0  0
 10 18  1  0  0  0  0
 10 23  1  0  0  0  0
 10 24  1  0  0  0  0
 11 19  1  0  0  0  0
 11 25  1  0  0  0  0
 11 26  1  0  0  0  0
 12 17  1  0  0  0  0
 12 27  1  0  0  0  0
 12 28  1  0  0  0  0
 13 15  1  0  0  0  0
 13 29  1  0  0  0  0
 14 16  2  0  0  0  0
 14 30  1  0  0  0  0
 15 31  1  0  0  0  0
 16 32  1  0  0  0  0
 17 20  1  0  0  0  0
 17 33  1  0  0  0  0
 17 34  1  0  0  0  0
 18 35  1  0  0  0  0
 18 36  1  0  0  0  0
 19 37  1  0  0  0  0
 19 38  1  0  0  0  0
M  CHG  2   3   1   4  -1
M  END
> <PUBCHEM_COMPOUND_CID>
13936

> <PUBCHEM_COMPOUND_CANONICALIZED>
1

> <PUBCHEM_CACTVS_COMPLEXITY>
244

> <PUBCHEM_CACTVS_HBOND_ACCEPTOR>
3

> <PUBCHEM_CACTVS_HBOND_DONOR>
0

> <PUBCHEM_CACTVS_ROTATABLE_BOND>
8

> <PUBCHEM_CACTVS_SUBSKEYS>
AAADceByMCAGAAAAAAAAAAAAAAAAAAAAAAAwAAAAAAAAAAABAAAAHgIAAAAADAvBmEQwyIMAAACIAiTSSACCAAAhAgAIiAEIZIgIIDLAkZHEIAhkgADIyAeYyLCOCAAAAAAAAAAQAAAAAAAAAAAAAAAAAA==

> <PUBCHEM_IUPAC_OPENEYE_NAME>
sodium 4-[4-[bis(2-chloroethyl)amino]phenyl]butanoate

> <PUBCHEM_IUPAC_CAS_NAME>
sodium 4-[4-[bis(2-chloroethyl)amino]phenyl]butanoate

> <PUBCHEM_IUPAC_NAME>
sodium 4-[4-[bis(2-chloroethyl)amino]phenyl]butanoate

> <PUBCHEM_IUPAC_SYSTEMATIC_NAME>
sodium 4-[4-[bis(2-chloroethyl)amino]phenyl]butanoate

> <PUBCHEM_IUPAC_TRADITIONAL_NAME>
sodium 4-[4-[bis(2-chloroethyl)amino]phenyl]butyrate

> <PUBCHEM_IUPAC_INCHI>
InChI=1S/C14H19Cl2NO2.Na/c15-8-10-17(11-9-16)13-6-4-12(5-7-13)2-1-3-14(18)19;/h4-7H,1-3,8-11H2,(H,18,19);/q;+1/p-1

> <PUBCHEM_IUPAC_INCHIKEY>
MXPCUEIEUDJYAC-UHFFFAOYSA-M

> <PUBCHEM_EXACT_MASS>
325.061228

> <PUBCHEM_MOLECULAR_FORMULA>
C14H18Cl2NNaO2

> <PUBCHEM_MOLECULAR_WEIGHT>
326.193989

> <PUBCHEM_OPENEYE_CAN_SMILES>
C1=CC(=CC=C1CCCC(=O)[O-])N(CCCl)CCCl.[Na+]

> <PUBCHEM_OPENEYE_ISO_SMILES>
C1=CC(=CC=C1CCCC(=O)[O-])N(CCCl)CCCl.[Na+]

> <PUBCHEM_CACTVS_TPSA>
43.4

> <PUBCHEM_MONOISOTOPIC_WEIGHT>
325.061228

> <PUBCHEM_TOTAL_CHARGE>
0

> <PUBCHEM_HEAVY_ATOM_COUNT>
20

> <PUBCHEM_ATOM_DEF_STEREO_COUNT>
0

> <PUBCHEM_ATOM_UDEF_STEREO_COUNT>
0

> <PUBCHEM_BOND_DEF_STEREO_COUNT>
0

> <PUBCHEM_BOND_UDEF_STEREO_COUNT>
0

> <PUBCHEM_ISOTOPIC_ATOM_COUNT>
0

> <PUBCHEM_COMPONENT_COUNT>
2

> <PUBCHEM_CACTVS_TAUTO_COUNT>
1

> <PUBCHEM_COORDINATE_TYPE>
1
5
255

> <PUBCHEM_BONDANNOTATIONS>
13  15  8
14  16  8
7  13  8
7  14  8
9  15  8
9  16  8

$$$$

