   Color/Form

     * White, crystalline powder
     * Brown granules /End-use/

   from [1]HSDB

   Odor
        Musty odor
   from [2]HSDB

   Melting Point
        101-102 deg C
   from [3]HSDB

   Density/Specific Gravity
        1.24 g/cu cm at 20 deg C
   from [4]HSDB

   Octanol/Water Partition Coefficient
        log Kow = 5.59 at 25 deg C
   from [5]HSDB

   pH
        pH = 6.2 /Technical/
   from [6]HSDB

   Solubilities

     * In water, 3.99X10-2 mg/L at 10 deg C; 6.69X10-2 mg/L at 30 deg C
     * In water, 7.54X10-2 mg/L at 20 deg C
     * Solubility in acetone 300, methanol 90, ethanol 90, cyclohexanone
       500, etrahydrofuran 750, acetonitrile 80, ethyl acetate 250, xylene
       250, n-hexane 13, n-heptane 13 (all in g/L, 20 deg C)

   from [7]HSDB

   Vapor Pressure
        1.64X10-8 mm Hg at 25 deg C
   from [8]HSDB

   Other Chemical/Physical Properties

     * Henry's Law constant = 1.0X10-7 atm-cu m/mol at 25 deg C
       /Estimated/
     * Hydroxyl radical reaction rate constant = 7.6X10-11 cu
       cm/molecule-sec at 25 deg C /Estimated/

   from [9]HSDB

   Computed Properties
   Molecular Weight                  359.409626 [g/mol]
   Molecular Formula                 C[21]H[23]F[2]NO[2]
   XLogP3-AA                         5.4
   H-Bond Donor                      0
   H-Bond Acceptor                   5
   Rotatable Bond Count              5
   Exact Mass                        359.169685
   MonoIsotopic Mass                 359.169685
   Topological Polar Surface Area    30.8
   Heavy Atom Count                  26
   Formal Charge                     0
   Complexity                        495
   Isotope Atom Count                0
   Defined Atom Stereocenter Count   0
   Undefined Atom Stereocenter Count 1
   Defined Bond Stereocenter Count   0
   Undefined Bond Stereocenter Count 0
   Covalently-Bonded Unit Count      1
   Feature 3D Acceptor Count         1
   Feature 3D Hydrophobe Count       1
   Feature 3D Ring Count             3
   Effective Rotor Count             5.6
   Conformer Sampling RMSD           0.8
   CID Conformer Count               [10]56

References

   1. http://toxnet.nlm.nih.gov/cgi-bin/sis/search/r?dbs+hsdb:@term+@rn+@rel+153233-91-1
   2. http://toxnet.nlm.nih.gov/cgi-bin/sis/search/r?dbs+hsdb:@term+@rn+@rel+153233-91-1
   3. http://toxnet.nlm.nih.gov/cgi-bin/sis/search/r?dbs+hsdb:@term+@rn+@rel+153233-91-1
   4. http://toxnet.nlm.nih.gov/cgi-bin/sis/search/r?dbs+hsdb:@term+@rn+@rel+153233-91-1
   5. http://toxnet.nlm.nih.gov/cgi-bin/sis/search/r?dbs+hsdb:@term+@rn+@rel+153233-91-1
   6. http://toxnet.nlm.nih.gov/cgi-bin/sis/search/r?dbs+hsdb:@term+@rn+@rel+153233-91-1
   7. http://toxnet.nlm.nih.gov/cgi-bin/sis/search/r?dbs+hsdb:@term+@rn+@rel+153233-91-1
   8. http://toxnet.nlm.nih.gov/cgi-bin/sis/search/r?dbs+hsdb:@term+@rn+@rel+153233-91-1
   9. http://toxnet.nlm.nih.gov/cgi-bin/sis/search/r?dbs+hsdb:@term+@rn+@rel+153233-91-1
  10. http://pubchem.ncbi.nlm.nih.gov/vw3d/vw3d.cgi?cid=153974
