23724665
  -OEChem-07051213082D

 63 67  0     1  0  0  0  0  0999 V2000
    6.1621    0.9728    0.0000 O   0  0  0  0  0  0  0  0  0  0  0  0
   12.2373   -0.4569    0.0000 O   0  0  0  0  0  0  0  0  0  0  0  0
    8.3061    3.0413    0.0000 O   0  0  0  0  0  0  0  0  0  0  0  0
   10.9457    0.6971    0.0000 O   0  0  0  0  0  0  0  0  0  0  0  0
   10.2385   -2.6940    0.0000 O   0  0  0  0  0  0  0  0  0  0  0  0
   12.1964   -3.1023    0.0000 O   0  0  0  0  0  0  0  0  0  0  0  0
    9.6132   -0.7943    0.0000 O   0  0  0  0  0  0  0  0  0  0  0  0
   14.1952   -0.8652    0.0000 O   0  0  0  0  0  0  0  0  0  0  0  0
    2.6726    1.8770    0.0000 O   0  0  0  0  0  0  0  0  0  0  0  0
   15.4868   -2.0192    0.0000 O   0  0  0  0  0  0  0  0  0  0  0  0
   17.4856    0.2180    0.0000 O   0  0  0  0  0  0  0  0  0  0  0  0
   17.1320   -1.4776    0.0000 O   0  0  0  0  0  0  0  0  0  0  0  0
    6.6589    2.5060    0.0000 C   0  0  2  0  0  0  0  0  0  0  0  0
    6.9679    1.5550    0.0000 C   0  0  2  0  0  0  0  0  0  0  0  0
   10.9048   -1.9483    0.0000 C   0  0  1  0  0  0  0  0  0  0  0  0
   11.8837   -2.1525    0.0000 C   0  0  1  0  0  0  0  0  0  0  0  0
   10.5921   -0.9985    0.0000 C   0  0  2  0  0  0  0  0  0  0  0  0
   12.5500   -1.4068    0.0000 C   0  0  1  0  0  0  0  0  0  0  0  0
   11.2584   -0.2528    0.0000 C   0  0  1  0  0  0  0  0  0  0  0  0
    5.6648    2.5035    0.0000 C   0  0  0  0  0  0  0  0  0  0  0  0
    7.9460    1.3471    0.0000 C   0  0  0  0  0  0  0  0  0  0  0  0
    7.3280    3.2492    0.0000 C   0  0  0  0  0  0  0  0  0  0  0  0
    5.3584    1.5578    0.0000 C   0  0  0  0  0  0  0  0  0  0  0  0
    8.6152    2.0902    0.0000 C   0  0  0  0  0  0  0  0  0  0  0  0
   13.5289   -1.6109    0.0000 C   0  0  0  0  0  0  0  0  0  0  0  0
    8.2526    0.3516    0.0000 C   0  0  0  0  0  0  0  0  0  0  0  0
    9.9668    0.9012    0.0000 C   0  0  0  0  0  0  0  0  0  0  0  0
    9.6372    1.8894    0.0000 C   0  0  0  0  0  0  0  0  0  0  0  0
    4.9832    3.2830    0.0000 C   0  0  0  0  0  0  0  0  0  0  0  0
    9.2698    0.1272    0.0000 C   0  0  0  0  0  0  0  0  0  0  0  0
    4.3492    1.3260    0.0000 C   0  0  0  0  0  0  0  0  0  0  0  0
    3.9689    3.0746    0.0000 C   0  0  0  0  0  0  0  0  0  0  0  0
    3.6498    2.0896    0.0000 C   0  0  0  0  0  0  0  0  0  0  0  0
   15.1741   -1.0693    0.0000 C   0  0  0  0  0  0  0  0  0  0  0  0
   15.8404   -0.3236    0.0000 C   0  0  0  0  0  0  0  0  0  0  0  0
    2.0000    2.6170    0.0000 C   0  0  0  0  0  0  0  0  0  0  0  0
   16.8193   -0.5277    0.0000 C   0  0  0  0  0  0  0  0  0  0  0  0
    6.3121    3.2821    0.0000 H   0  0  0  0  0  0  0  0  0  0  0  0
    7.1435    0.7233    0.0000 H   0  0  0  0  0  0  0  0  0  0  0  0
   10.2978   -1.8218    0.0000 H   0  0  0  0  0  0  0  0  0  0  0  0
   12.4907   -2.2790    0.0000 H   0  0  0  0  0  0  0  0  0  0  0  0
   10.1790   -1.4608    0.0000 H   0  0  0  0  0  0  0  0  0  0  0  0
   12.9631   -0.9444    0.0000 H   0  0  0  0  0  0  0  0  0  0  0  0
   10.6514   -0.1262    0.0000 H   0  0  0  0  0  0  0  0  0  0  0  0
    7.5602    3.8240    0.0000 H   0  0  0  0  0  0  0  0  0  0  0  0
    6.8022    3.5777    0.0000 H   0  0  0  0  0  0  0  0  0  0  0  0
   13.2989   -2.1866    0.0000 H   0  0  0  0  0  0  0  0  0  0  0  0
   14.0560   -1.9374    0.0000 H   0  0  0  0  0  0  0  0  0  0  0  0
    7.8324   -0.1043    0.0000 H   0  0  0  0  0  0  0  0  0  0  0  0
   10.0467    2.3549    0.0000 H   0  0  0  0  0  0  0  0  0  0  0  0
    5.1811    3.8705    0.0000 H   0  0  0  0  0  0  0  0  0  0  0  0
    9.4591   -0.4632    0.0000 H   0  0  0  0  0  0  0  0  0  0  0  0
    4.1650    0.7340    0.0000 H   0  0  0  0  0  0  0  0  0  0  0  0
   10.4324   -3.2830    0.0000 H   0  0  0  0  0  0  0  0  0  0  0  0
   12.8034   -3.2289    0.0000 H   0  0  0  0  0  0  0  0  0  0  0  0
    9.2001   -1.2567    0.0000 H   0  0  0  0  0  0  0  0  0  0  0  0
    3.5554    3.5366    0.0000 H   0  0  0  0  0  0  0  0  0  0  0  0
   16.0704    0.2522    0.0000 H   0  0  0  0  0  0  0  0  0  0  0  0
   15.3133    0.0029    0.0000 H   0  0  0  0  0  0  0  0  0  0  0  0
    2.4588    3.0340    0.0000 H   0  0  0  0  0  0  0  0  0  0  0  0
    1.5830    3.0758    0.0000 H   0  0  0  0  0  0  0  0  0  0  0  0
    1.5412    2.2000    0.0000 H   0  0  0  0  0  0  0  0  0  0  0  0
   18.0925    0.0914    0.0000 H   0  0  0  0  0  0  0  0  0  0  0  0
  1 14  1  0  0  0  0
  1 23  1  0  0  0  0
  2 18  1  0  0  0  0
  2 19  1  0  0  0  0
  3 22  1  0  0  0  0
  3 24  1  0  0  0  0
 19  4  1  6  0  0  0
  4 27  1  0  0  0  0
 15  5  1  6  0  0  0
  5 54  1  0  0  0  0
 16  6  1  1  0  0  0
  6 55  1  0  0  0  0
 17  7  1  1  0  0  0
  7 56  1  0  0  0  0
  8 25  1  0  0  0  0
  8 34  1  0  0  0  0
  9 33  1  0  0  0  0
  9 36  1  0  0  0  0
 10 34  2  0  0  0  0
 11 37  1  0  0  0  0
 11 63  1  0  0  0  0
 12 37  2  0  0  0  0
 13 14  1  0  0  0  0
 13 20  1  0  0  0  0
 13 22  1  0  0  0  0
 13 38  1  1  0  0  0
 14 21  1  0  0  0  0
 14 39  1  1  0  0  0
 15 16  1  0  0  0  0
 15 17  1  0  0  0  0
 15 40  1  0  0  0  0
 16 18  1  0  0  0  0
 16 41  1  0  0  0  0
 17 19  1  0  0  0  0
 17 42  1  0  0  0  0
 18 25  1  6  0  0  0
 18 43  1  0  0  0  0
 19 44  1  0  0  0  0
 20 23  2  0  0  0  0
 20 29  1  0  0  0  0
 21 24  2  0  0  0  0
 21 26  1  0  0  0  0
 22 45  1  0  0  0  0
 22 46  1  0  0  0  0
 23 31  1  0  0  0  0
 24 28  1  0  0  0  0
 25 47  1  0  0  0  0
 25 48  1  0  0  0  0
 26 30  2  0  0  0  0
 26 49  1  0  0  0  0
 27 28  2  0  0  0  0
 27 30  1  0  0  0  0
 28 50  1  0  0  0  0
 29 32  2  0  0  0  0
 29 51  1  0  0  0  0
 30 52  1  0  0  0  0
 31 33  2  0  0  0  0
 31 53  1  0  0  0  0
 32 33  1  0  0  0  0
 32 57  1  0  0  0  0
 34 35  1  0  0  0  0
 35 37  1  0  0  0  0
 35 58  1  0  0  0  0
 35 59  1  0  0  0  0
 36 60  1  0  0  0  0
 36 61  1  0  0  0  0
 36 62  1  0  0  0  0
M  END
> <PUBCHEM_COMPOUND_CID>
23724665

> <PUBCHEM_COMPOUND_CANONICALIZED>
1

> <PUBCHEM_CACTVS_COMPLEXITY>
824

> <PUBCHEM_CACTVS_HBOND_ACCEPTOR>
12

> <PUBCHEM_CACTVS_HBOND_DONOR>
4

> <PUBCHEM_CACTVS_ROTATABLE_BOND>
8

> <PUBCHEM_CACTVS_SUBSKEYS>
AAADceB4PAAAAAAAAAAAAAAAAAAAASAAAAA0aIEAAAAAAEiRQAAAGgAACAAADRSwmAMyDoAABgCIAiDSCAACCAAgIAAIiAEGCIgdNyaMMRqieCCl4BUPqAfA4PwOoAAACAAIAABAAAAQABAAAAAAAAAAAA==

> <PUBCHEM_IUPAC_OPENEYE_NAME>
3-[[(2R,3S,4S,5R,6S)-6-[[(6aR,11aR)-9-methoxy-6a,11a-dihydro-6H-benzofuro[3,2-c]chromen-3-yl]oxy]-3,4,5-trihydroxy-tetrahydropyran-2-yl]methoxy]-3-oxo-propanoic acid

> <PUBCHEM_IUPAC_CAS_NAME>
3-[[(2R,3S,4S,5R,6S)-6-[[(6aR,11aR)-9-methoxy-6a,11a-dihydro-6H-benzofuro[3,2-c][1]benzopyran-3-yl]oxy]-3,4,5-trihydroxy-2-oxanyl]methoxy]-3-oxopropanoic acid

> <PUBCHEM_IUPAC_NAME>
3-[[(2R,3S,4S,5R,6S)-6-[[(6aR,11aR)-9-methoxy-6a,11a-dihydro-6H-[1]benzofuro[3,2-c]chromen-3-yl]oxy]-3,4,5-trihydroxyoxan-2-yl]methoxy]-3-oxopropanoic acid

> <PUBCHEM_IUPAC_SYSTEMATIC_NAME>
3-[[(2R,3S,4S,5R,6S)-6-[[(6aR,11aR)-9-methoxy-6a,11a-dihydro-6H-[1]benzofuro[3,2-c]chromen-3-yl]oxy]-3,4,5-tris(oxidanyl)oxan-2-yl]methoxy]-3-oxidanylidene-propanoic acid

> <PUBCHEM_IUPAC_TRADITIONAL_NAME>
3-[[(2R,3S,4S,5R,6S)-6-[[(6aR,11aR)-9-methoxy-6a,11a-dihydro-6H-benzofuro[3,2-c]chromen-3-yl]oxy]-3,4,5-trihydroxy-tetrahydropyran-2-yl]methoxy]-3-keto-propionic acid

> <PUBCHEM_IUPAC_INCHI>
InChI=1S/C25H26O12/c1-32-11-2-4-13-15-9-33-16-7-12(3-5-14(16)24(15)36-17(13)6-11)35-25-23(31)22(30)21(29)18(37-25)10-34-20(28)8-19(26)27/h2-7,15,18,21-25,29-31H,8-10H2,1H3,(H,26,27)/t15-,18+,21+,22-,23+,24-,25+/m0/s1

> <PUBCHEM_IUPAC_INCHIKEY>
BQAJKXKYTQTBDK-PCHDOLKHSA-N

> <PUBCHEM_XLOGP3_AA>
0.5

> <PUBCHEM_EXACT_MASS>
518.142426

> <PUBCHEM_MOLECULAR_FORMULA>
C25H26O12

> <PUBCHEM_MOLECULAR_WEIGHT>
518.46674

> <PUBCHEM_OPENEYE_CAN_SMILES>
COC1=CC2=C(C=C1)C3COC4=C(C3O2)C=CC(=C4)OC5C(C(C(C(O5)COC(=O)CC(=O)O)O)O)O

> <PUBCHEM_OPENEYE_ISO_SMILES>
COC1=CC2=C(C=C1)[C@@H]3COC4=C([C@@H]3O2)C=CC(=C4)O[C@H]5[C@@H]([C@H]([C@@H]([C@H](O5)COC(=O)CC(=O)O)O)O)O

> <PUBCHEM_CACTVS_TPSA>
170

> <PUBCHEM_MONOISOTOPIC_WEIGHT>
518.142426

> <PUBCHEM_TOTAL_CHARGE>
0

> <PUBCHEM_HEAVY_ATOM_COUNT>
37

> <PUBCHEM_ATOM_DEF_STEREO_COUNT>
7

> <PUBCHEM_ATOM_UDEF_STEREO_COUNT>
0

> <PUBCHEM_BOND_DEF_STEREO_COUNT>
0

> <PUBCHEM_BOND_UDEF_STEREO_COUNT>
0

> <PUBCHEM_ISOTOPIC_ATOM_COUNT>
0

> <PUBCHEM_COMPONENT_COUNT>
1

> <PUBCHEM_CACTVS_TAUTO_COUNT>
1

> <PUBCHEM_COORDINATE_TYPE>
1
5
255

> <PUBCHEM_BONDANNOTATIONS>
13  38  5
14  39  5
18  25  6
20  23  8
20  29  8
21  24  8
21  26  8
23  31  8
24  28  8
26  30  8
27  28  8
27  30  8
29  32  8
31  33  8
32  33  8
19  4  6
15  5  6
16  6  5
17  7  5

$$$$

