854297
  -OEChem-06241222472D

 22 22  0     0  0  0  0  0  0999 V2000
    4.0736   -1.6407    0.0000 O   0  0  0  0  0  0  0  0  0  0  0  0
    3.7601    1.7252    0.0000 N   0  0  0  0  0  0  0  0  0  0  0  0
    2.6723   -0.6226    0.0000 N   0  0  0  0  0  0  0  0  0  0  0  0
    4.5691    1.1374    0.0000 N   0  0  0  0  0  0  0  0  0  0  0  0
    3.2601    0.1864    0.0000 C   0  0  0  0  0  0  0  0  0  0  0  0
    2.9511    1.1374    0.0000 C   0  0  0  0  0  0  0  0  0  0  0  0
    4.2601    0.1864    0.0000 C   0  0  0  0  0  0  0  0  0  0  0  0
    2.0000    1.4464    0.0000 C   0  0  0  0  0  0  0  0  0  0  0  0
    4.8479   -0.6226    0.0000 C   0  0  0  0  0  0  0  0  0  0  0  0
    3.0790   -1.5362    0.0000 C   0  0  0  0  0  0  0  0  0  0  0  0
    2.4912   -2.3452    0.0000 C   0  0  0  0  0  0  0  0  0  0  0  0
    3.7601    2.3452    0.0000 H   0  0  0  0  0  0  0  0  0  0  0  0
    2.0557   -0.5578    0.0000 H   0  0  0  0  0  0  0  0  0  0  0  0
    2.1916    2.0361    0.0000 H   0  0  0  0  0  0  0  0  0  0  0  0
    1.4103    1.6380    0.0000 H   0  0  0  0  0  0  0  0  0  0  0  0
    1.8084    0.8568    0.0000 H   0  0  0  0  0  0  0  0  0  0  0  0
    4.3463   -0.9871    0.0000 H   0  0  0  0  0  0  0  0  0  0  0  0
    5.2123   -1.1242    0.0000 H   0  0  0  0  0  0  0  0  0  0  0  0
    5.3494   -0.2582    0.0000 H   0  0  0  0  0  0  0  0  0  0  0  0
    1.9896   -1.9808    0.0000 H   0  0  0  0  0  0  0  0  0  0  0  0
    2.1268   -2.8468    0.0000 H   0  0  0  0  0  0  0  0  0  0  0  0
    2.9928   -2.7096    0.0000 H   0  0  0  0  0  0  0  0  0  0  0  0
  1 10  2  0  0  0  0
  2  4  1  0  0  0  0
  2  6  1  0  0  0  0
  2 12  1  0  0  0  0
  3  5  1  0  0  0  0
  3 10  1  0  0  0  0
  3 13  1  0  0  0  0
  4  7  2  0  0  0  0
  5  6  2  0  0  0  0
  5  7  1  0  0  0  0
  6  8  1  0  0  0  0
  7  9  1  0  0  0  0
  8 14  1  0  0  0  0
  8 15  1  0  0  0  0
  8 16  1  0  0  0  0
  9 17  1  0  0  0  0
  9 18  1  0  0  0  0
  9 19  1  0  0  0  0
 10 11  1  0  0  0  0
 11 20  1  0  0  0  0
 11 21  1  0  0  0  0
 11 22  1  0  0  0  0
M  END
> <PUBCHEM_COMPOUND_CID>
854297

> <PUBCHEM_COMPOUND_CANONICALIZED>
1

> <PUBCHEM_CACTVS_COMPLEXITY>
160

> <PUBCHEM_CACTVS_HBOND_ACCEPTOR>
2

> <PUBCHEM_CACTVS_HBOND_DONOR>
2

> <PUBCHEM_CACTVS_ROTATABLE_BOND>
1

> <PUBCHEM_CACTVS_SUBSKEYS>
AAADccBjIAAAAAAAAAAAAAAAAAAAAWAAAAAAAAAAAAAAAAABgAAAHgAYAAAACAiBlgACwJLjAACqAQVwUACQBAAhEAAQOSAwVBgAYAJAwNAUhABgHADISAIAAAAAAAAAAAAAAAAAAAAAAAAAAAAAAAAAAA==

> <PUBCHEM_IUPAC_OPENEYE_NAME>
N-(3,5-dimethyl-1H-pyrazol-4-yl)acetamide

> <PUBCHEM_IUPAC_CAS_NAME>
N-(3,5-dimethyl-1H-pyrazol-4-yl)acetamide

> <PUBCHEM_IUPAC_NAME>
N-(3,5-dimethyl-1H-pyrazol-4-yl)acetamide

> <PUBCHEM_IUPAC_SYSTEMATIC_NAME>
N-(3,5-dimethyl-1H-pyrazol-4-yl)ethanamide

> <PUBCHEM_IUPAC_TRADITIONAL_NAME>
N-(3,5-dimethyl-1H-pyrazol-4-yl)acetamide

> <PUBCHEM_IUPAC_INCHI>
InChI=1S/C7H11N3O/c1-4-7(8-6(3)11)5(2)10-9-4/h1-3H3,(H,8,11)(H,9,10)

> <PUBCHEM_IUPAC_INCHIKEY>
ILCJEJQTTQLILC-UHFFFAOYSA-N

> <PUBCHEM_XLOGP3_AA>
0.2

> <PUBCHEM_EXACT_MASS>
153.090212

> <PUBCHEM_MOLECULAR_FORMULA>
C7H11N3O

> <PUBCHEM_MOLECULAR_WEIGHT>
153.18174

> <PUBCHEM_OPENEYE_CAN_SMILES>
CC1=C(C(=NN1)C)NC(=O)C

> <PUBCHEM_OPENEYE_ISO_SMILES>
CC1=C(C(=NN1)C)NC(=O)C

> <PUBCHEM_CACTVS_TPSA>
57.8

> <PUBCHEM_MONOISOTOPIC_WEIGHT>
153.090212

> <PUBCHEM_TOTAL_CHARGE>
0

> <PUBCHEM_HEAVY_ATOM_COUNT>
11

> <PUBCHEM_ATOM_DEF_STEREO_COUNT>
0

> <PUBCHEM_ATOM_UDEF_STEREO_COUNT>
0

> <PUBCHEM_BOND_DEF_STEREO_COUNT>
0

> <PUBCHEM_BOND_UDEF_STEREO_COUNT>
0

> <PUBCHEM_ISOTOPIC_ATOM_COUNT>
0

> <PUBCHEM_COMPONENT_COUNT>
1

> <PUBCHEM_CACTVS_TAUTO_COUNT>
3

> <PUBCHEM_COORDINATE_TYPE>
1
5
255

> <PUBCHEM_BONDANNOTATIONS>
2  4  8
2  6  8
4  7  8
5  6  8
5  7  8

$$$$

