   Color/Form

     * Clear, colorless liquid
     * Color: Saybolt units +30 (research, pure & technical grades)

   from [1]HSDB

   Odor

     * Sweet odor; like benzene: characteristicly aromatic
     * Aromatic odor

   from [2]HSDB

   Taste
        Taste threshold: 0.3 ppm
   from [3]HSDB

   Boiling Point
        139.07 deg C
   from [4]HSDB

   Melting Point
        -47.4 deg C
   from [5]HSDB

   Critical Temperature and Pressure
        Critical temperature: 343 deg C; Critical pressure 35.47 bar
   from [6]HSDB

   Density/Specific Gravity
        0.8684 at 15 deg C/4 deg C
   from [7]HSDB

   Heat of Combustion
        1088.4 Kg/cal
   from [8]HSDB

   Heat of Vaporization
        42.65 kJ/mol at 25 deg C
   from [9]HSDB

   Octanol/Water Partition Coefficient
        log Kow = 3.20
   from [10]HSDB

   Solubilities

     * Miscible in acetone, alcohol, ether, benzene; soluble in chloroform
     * In water, 1.61X10+2 mg/L at 25 deg C.

   from [11]HSDB

   Spectral Properties

     * Index of refraction: 1.4973 at 20 deg C/D
     * Negligible absorption above 290 nm
     * IR: 3578 (Coblentz Society Spectral Collection)
     * UV: 317 (Sadtler Research Laboratories Spectral Collection)
     * 1H NMR: 202 (Varian Associates NMR Spectra Catalogue)
     * C13 NMR: 297 (Johnson and Jankowski, Carbon-13 NMR Spectra, John
       Wiley and Sons, New York)
     * Raman 81 (Dollish et al., characteristic Raman Frequencies of
       organic compounds, John Wiley and Sons, New York)
     * MASS: 1349 (NIST/EPA/MSDC Mass Spectral Database, 1990 version);
       326 (Atlas of Mass Spectral Data, John Wiley & Sons, New York)

   from [12]HSDB

   Surface Tension
        28.47 dynes/cm at 25 deg C
   from [13]HSDB

   Vapor Density
        3.66 (Air = 1)
   from [14]HSDB

   Vapor Pressure
        8.29 mm Hg at 25 deg C
   from [15]HSDB

   Relative Evaporation Rate
        EVAPORATION RATE: 9.2 (ETHER= 1)
   from [16]HSDB

   Viscosity
        0.581 mPa at 25 deg C
   from [17]HSDB

   Other Chemical/Physical Properties

     * Ratio of specific heats of vapor (gas): 1.071
     * Liquid-water interfacial tension: 36.4 dynes/ cu m= 0.0364 n/m at
       20 deg C
     * Dielectric constant: 2.367 at 25 deg C
     * Critical density: 2.66 mmol/cu m
     * Critical volume: 376.0 cu m/mol
     * Heat of fusion: 11.56 kJ/mol
     * Heat of formation: (endothermal) at 25 deg C: -25.418 J/mole deg K
     * Entropy of formation 252.2 J/mole deg K
     * ... Combustion characteristics: critical compression ratio 13.6;
       research octane value 117.5 and motor octane number is 8 units
       lower.
     * p-Xylene and m-xylene cannot be separated by distillation because
       their boiling points are too close.
     * Saturation concn in air: 35 g/cu m at 20 deg C: 61 g/cu m at 30 deg
       C
     * Enthalpy of crystallization, kJ/kg: 109
     * Hydroxyl radical reaction rate constant = 2.36X10-11 cu m/molec-sec
       at 25 deg C

   from [18]HSDB

   Computed Properties
   Molecular Weight                  106.165 [g/mol]
   Molecular Formula                 C[8]H[10]
   XLogP3                            3.2
   H-Bond Donor                      0
   H-Bond Acceptor                   0
   Rotatable Bond Count              0
   Exact Mass                        106.07825
   MonoIsotopic Mass                 106.07825
   Topological Polar Surface Area    0
   Heavy Atom Count                  8
   Formal Charge                     0
   Complexity                        58.4
   Isotope Atom Count                0
   Defined Atom Stereocenter Count   0
   Undefined Atom Stereocenter Count 0
   Defined Bond Stereocenter Count   0
   Undefined Bond Stereocenter Count 0
   Covalently-Bonded Unit Count      1
   Feature 3D Ring Count             1
   Effective Rotor Count             0
   Conformer Sampling RMSD           0.4
   CID Conformer Count               [19]1

References

   1. http://toxnet.nlm.nih.gov/cgi-bin/sis/search/r?dbs+hsdb:@term+@rn+@rel+108-38-3
   2. http://toxnet.nlm.nih.gov/cgi-bin/sis/search/r?dbs+hsdb:@term+@rn+@rel+108-38-3
   3. http://toxnet.nlm.nih.gov/cgi-bin/sis/search/r?dbs+hsdb:@term+@rn+@rel+108-38-3
   4. http://toxnet.nlm.nih.gov/cgi-bin/sis/search/r?dbs+hsdb:@term+@rn+@rel+108-38-3
   5. http://toxnet.nlm.nih.gov/cgi-bin/sis/search/r?dbs+hsdb:@term+@rn+@rel+108-38-3
   6. http://toxnet.nlm.nih.gov/cgi-bin/sis/search/r?dbs+hsdb:@term+@rn+@rel+108-38-3
   7. http://toxnet.nlm.nih.gov/cgi-bin/sis/search/r?dbs+hsdb:@term+@rn+@rel+108-38-3
   8. http://toxnet.nlm.nih.gov/cgi-bin/sis/search/r?dbs+hsdb:@term+@rn+@rel+108-38-3
   9. http://toxnet.nlm.nih.gov/cgi-bin/sis/search/r?dbs+hsdb:@term+@rn+@rel+108-38-3
  10. http://toxnet.nlm.nih.gov/cgi-bin/sis/search/r?dbs+hsdb:@term+@rn+@rel+108-38-3
  11. http://toxnet.nlm.nih.gov/cgi-bin/sis/search/r?dbs+hsdb:@term+@rn+@rel+108-38-3
  12. http://toxnet.nlm.nih.gov/cgi-bin/sis/search/r?dbs+hsdb:@term+@rn+@rel+108-38-3
  13. http://toxnet.nlm.nih.gov/cgi-bin/sis/search/r?dbs+hsdb:@term+@rn+@rel+108-38-3
  14. http://toxnet.nlm.nih.gov/cgi-bin/sis/search/r?dbs+hsdb:@term+@rn+@rel+108-38-3
  15. http://toxnet.nlm.nih.gov/cgi-bin/sis/search/r?dbs+hsdb:@term+@rn+@rel+108-38-3
  16. http://toxnet.nlm.nih.gov/cgi-bin/sis/search/r?dbs+hsdb:@term+@rn+@rel+108-38-3
  17. http://toxnet.nlm.nih.gov/cgi-bin/sis/search/r?dbs+hsdb:@term+@rn+@rel+108-38-3
  18. http://toxnet.nlm.nih.gov/cgi-bin/sis/search/r?dbs+hsdb:@term+@rn+@rel+108-38-3
  19. http://pubchem.ncbi.nlm.nih.gov/vw3d/vw3d.cgi?cid=7929
