   Color/Form
        COLORLESS TO STRAW-COLORED LIQUID
   from [1]HSDB

   Odor

     * SHARP, PENETRATING
     * Disagreeable odor

   from [2]HSDB

   Boiling Point
        71-72 DEG C
   from [3]HSDB

   Melting Point
        < -80 deg C
   from [4]HSDB

   Density/Specific Gravity
        0.9210 at 15 deg C/4 deg C; 0.9165 at 20 deg C/4 deg C
   from [5]HSDB

   Heat of Vaporization
        31.8 kJ/mol
   from [6]HSDB

   Solubilities

     * Miscible in alcohol and ether, very soluble in chloroform, and
       soluble in acetone.
     * Solubility in water at 20 deg C is ca. 0.05 wt%; water solubility
       in methylallyl chloride is 0.04 wt%.
     * 1400 mg/l in water at 25 deg C.

   from [7]HSDB

   Spectral Properties

     * INDEX OF REFRACTION: 1.4318 AT 15 DEG C/D; 1.4274 AT 20 DEG C/D
     * INDEX OF REFRACTION: 1.427 @ 25 DEG C/D
     * IR: 4689 (Sadtler Research Laboratories Prism Collection)
     * NMR: 67 (Varian Associates NMR Spectra Catalogue)
     * MASS: 174 (Atlas of Mass Spectral Data, John Wiley & Sons, New
       York)
     * IR: 3:57F (Aldrich Library of Infrared Spectra, Aldrich Chemical
       Co, Milwaukee, WI)
     * NMR: 1:70C (Aldrich Library of Mass Spectra, Aldrich Chemical Co,
       Milwaukee, WI)
     * MASS: 53 (National Bureau of Standards EPA-NIH Mass Spectra Data
       Base, NSRDS-NBS-63)

   from [8]HSDB

   Vapor Density
        3.1 (AIR= 1)
   from [9]HSDB

   Vapor Pressure
        101.7 mm Hg (13.53 x 10 +3 Pa) @ 20 deg C
   from [10]HSDB

   Viscosity
        4.2X10-4 Pa.s
   from [11]HSDB

   Other Chemical/Physical Properties

     * Density of commercial grade = 0.926-0.930 at 20 deg C/20 deg C
     * Heat of Formation = -105.1 kJ/mol at 25 deg C (liquid)
     * Moisture causes samples of methallyl chloride to become markedly
       acidic as a result of hydrolysis.

   from [12]HSDB

   Computed Properties
   Molecular Weight                  90.55138 [g/mol]
   Molecular Formula                 C[4]H[7]Cl
   XLogP3-AA                         2.1
   H-Bond Donor                      0
   H-Bond Acceptor                   0
   Rotatable Bond Count              1
   Exact Mass                        90.023628
   MonoIsotopic Mass                 90.023628
   Topological Polar Surface Area    0
   Heavy Atom Count                  5
   Formal Charge                     0
   Complexity                        38.9
   Isotope Atom Count                0
   Defined Atom Stereocenter Count   0
   Undefined Atom Stereocenter Count 0
   Defined Bond Stereocenter Count   0
   Undefined Bond Stereocenter Count 0
   Covalently-Bonded Unit Count      1
   Effective Rotor Count             1
   Conformer Sampling RMSD           0.4
   CID Conformer Count               [13]3

References

   1. http://toxnet.nlm.nih.gov/cgi-bin/sis/search/r?dbs+hsdb:@term+@rn+@rel+563-47-3
   2. http://toxnet.nlm.nih.gov/cgi-bin/sis/search/r?dbs+hsdb:@term+@rn+@rel+563-47-3
   3. http://toxnet.nlm.nih.gov/cgi-bin/sis/search/r?dbs+hsdb:@term+@rn+@rel+563-47-3
   4. http://toxnet.nlm.nih.gov/cgi-bin/sis/search/r?dbs+hsdb:@term+@rn+@rel+563-47-3
   5. http://toxnet.nlm.nih.gov/cgi-bin/sis/search/r?dbs+hsdb:@term+@rn+@rel+563-47-3
   6. http://toxnet.nlm.nih.gov/cgi-bin/sis/search/r?dbs+hsdb:@term+@rn+@rel+563-47-3
   7. http://toxnet.nlm.nih.gov/cgi-bin/sis/search/r?dbs+hsdb:@term+@rn+@rel+563-47-3
   8. http://toxnet.nlm.nih.gov/cgi-bin/sis/search/r?dbs+hsdb:@term+@rn+@rel+563-47-3
   9. http://toxnet.nlm.nih.gov/cgi-bin/sis/search/r?dbs+hsdb:@term+@rn+@rel+563-47-3
  10. http://toxnet.nlm.nih.gov/cgi-bin/sis/search/r?dbs+hsdb:@term+@rn+@rel+563-47-3
  11. http://toxnet.nlm.nih.gov/cgi-bin/sis/search/r?dbs+hsdb:@term+@rn+@rel+563-47-3
  12. http://toxnet.nlm.nih.gov/cgi-bin/sis/search/r?dbs+hsdb:@term+@rn+@rel+563-47-3
  13. http://pubchem.ncbi.nlm.nih.gov/vw3d/vw3d.cgi?cid=11241
