   Color/Form

     * GREEN PLATES WITH BLUISH LUSTER (FROM BENZENE) OR STEEL-BLUE PRISMS
       OR PLATES (FROM ETHER + WATER)
     * YELLOW LIQUID PLATES
     * Greenish crystals

   from [1]HSDB

   Melting Point
        144-145 DEG C
   from [2]HSDB

   Solubilities
        SLIGHTLY SOL IN WATER OR PETROLEUM ETHER; FREELY SOL IN ALCOHOL,
   ETHER, CHLOROFORM, BENZENE
   from [3]HSDB

   Spectral Properties

     * MAX ABSORPTION (ALCOHOL-HYDROCHLORIC ACID): 259 NM (LOG E= 3.62);
       406 NM (LOG E= 4.31)
     * IR: 9744 (Sadtler Research Laboratories Prism Collection)
     * UV: 17154 (Sadtler Research Laboratories Spectral Collection)
     * MASS: 1156 (National Bureau of Standards EPA-NIH Mass Spectra Data
       Base, NSRDS-NBS-63)

   from [4]HSDB

   Other Chemical/Physical Properties
        UNDERGOES REDUCTION, ALKYLATION AND NITROSATION; FORMS SALTS WITH
   STRONG ACIDS AND BASES; THE BASIC SALTS REARRANGE TO A QUINOID
   STRUCTURE.
   from [5]HSDB

   Computed Properties
   Molecular Weight                  198.2206 [g/mol]
   Molecular Formula                 C[12]H[10]N[2]O
   XLogP3                            2.5
   H-Bond Donor                      1
   H-Bond Acceptor                   3
   Rotatable Bond Count              2
   Tautomer Count                    3
   Exact Mass                        198.079313
   MonoIsotopic Mass                 198.079313
   Topological Polar Surface Area    41.5
   Heavy Atom Count                  15
   Formal Charge                     0
   Complexity                        194
   Isotope Atom Count                0
   Defined Atom Stereocenter Count   0
   Undefined Atom Stereocenter Count 0
   Defined Bond Stereocenter Count   0
   Undefined Bond Stereocenter Count 0
   Covalently-Bonded Unit Count      1
   Feature 3D Donor Count            1
   Feature 3D Cation Count           1
   Feature 3D Ring Count             2
   Effective Rotor Count             3
   Conformer Sampling RMSD           0.6
   CID Conformer Count               [6]5

References

   1. http://toxnet.nlm.nih.gov/cgi-bin/sis/search/r?dbs+hsdb:@term+@rn+@rel+156-10-5
   2. http://toxnet.nlm.nih.gov/cgi-bin/sis/search/r?dbs+hsdb:@term+@rn+@rel+156-10-5
   3. http://toxnet.nlm.nih.gov/cgi-bin/sis/search/r?dbs+hsdb:@term+@rn+@rel+156-10-5
   4. http://toxnet.nlm.nih.gov/cgi-bin/sis/search/r?dbs+hsdb:@term+@rn+@rel+156-10-5
   5. http://toxnet.nlm.nih.gov/cgi-bin/sis/search/r?dbs+hsdb:@term+@rn+@rel+156-10-5
   6. http://pubchem.ncbi.nlm.nih.gov/vw3d/vw3d.cgi?cid=9074
