   Color/Form

     * Monoclinic crystals
     * WHITE CRYSTALS OR WHITE CRYSTALLINE POWDER.

   from [1]HSDB

   Odor
        ODORLESS OR HAS FAINT AROMATIC ODOR.
   from [2]HSDB

   Taste

     * In dil aq soln it is 500 times as sweet as sugar; sweet taste
       detectable in 1:100,000 diln.
     * Bitter, metallic aftertaste

   from [3]HSDB

   Melting Point
        228.8-229.7 deg C
   from [4]HSDB

   Density/Specific Gravity
        0.828
   from [5]HSDB

   Dissociation Constants
        pKa= 1.31 @ 25 deg C for the conjugate acid
   from [6]HSDB

   Heat of Combustion
        @ const vol: 4753.1 cal/g
   from [7]HSDB

   Octanol/Water Partition Coefficient
        log Kow= 0.91.
   from [8]HSDB

   pH
        Acid to litmus; pH of 0.35% aq soln 2.0
   from [9]HSDB

   Solubilities

     * 1 g dissolves in 290 ml water, 25 ml boiling water, 31 ml alc, 12
       ml acetone, & in about 50 ml glycerol; freely sol in soln of alkali
       carbonates; slightly sol in chloroform, ether
     * DISSOLVED BY DIL SOLN OF AMMONIA, SOLN OF ALKALI HYDROXIDES
     * In water, 4300 mg/l at 25 deg C.

   from [10]HSDB

   Spectral Properties

     * MAX ABSORPTION (0.1 N NAOH): BROAD PEAK @ 267.3 NM (E= 1570)
     * SADTLER REF NUMBER: 322 (IR, PRISM); 110 (IR, GRATING)
     * IR: 5038 (Coblentz Society Spectral Collection)
     * UV: 15734 (Sadtler Research Laboratories Spectral Collection)
     * NMR: 6667 (Sadtler Research Laboratories Spectral Collection)
     * MASS: 4335 (National Bureau of Standards EPA-NIH Mass Spectra Data
       Base, NSRDS-NBS-63)

   from [11]HSDB

   Other Chemical/Physical Properties

     * Perfect 100 cleavage; acicular crystals by vacuum sublimation.
     * 1 G SOL IN 2.6 ML WATER, 4.7 ML ALC /CALCIUM SALT/.
     * SOL: 30.5 G/100 G 92.5% ETHANOL-WATER MIXT @ 25 DEG C; 35.1 G/100 G
       PROPYLENE @ 25 DEG C; 36.3 G/100 ML GLYCOL @ 25 DEG C; 13.3 G/100
       ML GLYCERIN @ 25 DEG C. /CALCIUM SALT/
     * FREELY SOL IN WATER. /AMMONIUM SALT/
     * 1 g dissolves in 1.2 ml water, about 50 ml alc. /Sodium salt/
     * SOL: 2.6 G/100 G 92.5% ETHANOL-WATER @ 25 DEG C; 44.7 G/100 G
       PROPYLENE @ 25 DEG C; 46.2 G/100 ML GLYCOL @ 25 DEG C; 55.8 G/100 G
       GLYCERIN @ 25 DEG C. /SODIUM SALT/
     * INDEX OF REFRACTION: 1.480 (ALPHA), GREATER THAN 1.523 (BETA),
       1.692 (GAMMA) /CALCIUM SALT/
     * INDEX OF REFRACTION: 1.560 (ALPHA); 1.642 (BETA); 1.733 (GAMMA).
       /SODIUM SALT/
     * Aq soln are neutral or alkaline to litmus, but not to
       phenolphthalein; effloresces in dry air. /Sodium salt/
     * Sublimes in vacuum.

   from [12]HSDB

   Computed Properties
   Molecular Weight                  183.1845 [g/mol]
   Molecular Formula                 C[7]H[5]NO[3]S
   XLogP3                            0.9
   H-Bond Donor                      1
   H-Bond Acceptor                   3
   Rotatable Bond Count              0
   Tautomer Count                    2
   Exact Mass                        182.999014
   MonoIsotopic Mass                 182.999014
   Topological Polar Surface Area    71.6
   Heavy Atom Count                  12
   Formal Charge                     0
   Complexity                        303
   Isotope Atom Count                0
   Defined Atom Stereocenter Count   0
   Undefined Atom Stereocenter Count 0
   Defined Bond Stereocenter Count   0
   Undefined Bond Stereocenter Count 0
   Covalently-Bonded Unit Count      1
   Feature 3D Acceptor Count         3
   Feature 3D Donor Count            1
   Feature 3D Ring Count             2
   Effective Rotor Count             0.2
   Conformer Sampling RMSD           0.4
   CID Conformer Count               [13]1

References

   1. http://toxnet.nlm.nih.gov/cgi-bin/sis/search/r?dbs+hsdb:@term+@rn+@rel+81-07-2
   2. http://toxnet.nlm.nih.gov/cgi-bin/sis/search/r?dbs+hsdb:@term+@rn+@rel+81-07-2
   3. http://toxnet.nlm.nih.gov/cgi-bin/sis/search/r?dbs+hsdb:@term+@rn+@rel+81-07-2
   4. http://toxnet.nlm.nih.gov/cgi-bin/sis/search/r?dbs+hsdb:@term+@rn+@rel+81-07-2
   5. http://toxnet.nlm.nih.gov/cgi-bin/sis/search/r?dbs+hsdb:@term+@rn+@rel+81-07-2
   6. http://toxnet.nlm.nih.gov/cgi-bin/sis/search/r?dbs+hsdb:@term+@rn+@rel+81-07-2
   7. http://toxnet.nlm.nih.gov/cgi-bin/sis/search/r?dbs+hsdb:@term+@rn+@rel+81-07-2
   8. http://toxnet.nlm.nih.gov/cgi-bin/sis/search/r?dbs+hsdb:@term+@rn+@rel+81-07-2
   9. http://toxnet.nlm.nih.gov/cgi-bin/sis/search/r?dbs+hsdb:@term+@rn+@rel+81-07-2
  10. http://toxnet.nlm.nih.gov/cgi-bin/sis/search/r?dbs+hsdb:@term+@rn+@rel+81-07-2
  11. http://toxnet.nlm.nih.gov/cgi-bin/sis/search/r?dbs+hsdb:@term+@rn+@rel+81-07-2
  12. http://toxnet.nlm.nih.gov/cgi-bin/sis/search/r?dbs+hsdb:@term+@rn+@rel+81-07-2
  13. http://pubchem.ncbi.nlm.nih.gov/vw3d/vw3d.cgi?cid=5143
