   Color/Form
        PRISMS FROM METHANOL + ETHER
   from [1]HSDB

   Melting Point
        235-242 DEG C
   from [2]HSDB

   Solubilities
        SOL IN ALCOHOL, ACETONE; SLIGHTLY SOL IN CHLOROFORM, ETHYL
   ACETATE, & WATER (1:2000); PRACTICALLY INSOL IN ETHER, PETROLEUM ETHER
   from [3]HSDB

   Spectral Properties
        SPECIFIC OPTICAL ROTATION: -1.7 DEG +/- 3 DEG @ 22 DEG C/D (C=
   0.65 IN METHANOL); -9.4 DEG +/- 3 DEG @ 25 DEG C/D (C= 0.65 IN DIOXANE)
   from [4]HSDB

   Other Chemical/Physical Properties
        GIVES LEGAL'S REACTION
   from [5]HSDB

   Computed Properties
   Molecular Weight                  550.63778 [g/mol]
   Molecular Formula                 C[29]H[42]O[10]
   XLogP3                            -0.7
   H-Bond Donor                      5
   H-Bond Acceptor                   10
   Rotatable Bond Count              4
   Exact Mass                        550.277798
   MonoIsotopic Mass                 550.277798
   Topological Polar Surface Area    163
   Heavy Atom Count                  39
   Formal Charge                     0
   Complexity                        1050
   Isotope Atom Count                0
   Defined Atom Stereocenter Count   13
   Undefined Atom Stereocenter Count 0
   Defined Bond Stereocenter Count   0
   Undefined Bond Stereocenter Count 0
   Covalently-Bonded Unit Count      1
   Feature 3D Acceptor Count         9
   Feature 3D Donor Count            5
   Feature 3D Ring Count             6
   Effective Rotor Count             7.8
   Conformer Sampling RMSD           1
   CID Conformer Count               [6]17

References

   1. http://toxnet.nlm.nih.gov/cgi-bin/sis/search/r?dbs+hsdb:@term+@rn+@rel+508-75-8
   2. http://toxnet.nlm.nih.gov/cgi-bin/sis/search/r?dbs+hsdb:@term+@rn+@rel+508-75-8
   3. http://toxnet.nlm.nih.gov/cgi-bin/sis/search/r?dbs+hsdb:@term+@rn+@rel+508-75-8
   4. http://toxnet.nlm.nih.gov/cgi-bin/sis/search/r?dbs+hsdb:@term+@rn+@rel+508-75-8
   5. http://toxnet.nlm.nih.gov/cgi-bin/sis/search/r?dbs+hsdb:@term+@rn+@rel+508-75-8
   6. http://pubchem.ncbi.nlm.nih.gov/vw3d/vw3d.cgi?cid=441852
