592814
  -OEChem-07051213042D

 20 21  0     0  0  0  0  0  0999 V2000
    7.3301   -1.1900    0.0000 O   0  0  0  0  0  0  0  0  0  0  0  0
    5.5981    1.8100    0.0000 O   0  0  0  0  0  0  0  0  0  0  0  0
    3.8660   -1.1900    0.0000 N   0  0  0  0  0  0  0  0  0  0  0  0
    5.5981   -1.1900    0.0000 N   0  0  0  0  0  0  0  0  0  0  0  0
    4.7320    0.3100    0.0000 N   0  0  0  0  0  0  0  0  0  0  0  0
    6.4641    0.3100    0.0000 N   0  0  0  0  0  0  0  0  0  0  0  0
    3.0000   -0.6900    0.0000 C   0  0  0  0  0  0  0  0  0  0  0  0
    2.5000    0.1760    0.0000 C   0  0  0  0  0  0  0  0  0  0  0  0
    2.0000   -0.6900    0.0000 C   0  0  0  0  0  0  0  0  0  0  0  0
    4.7320   -0.6900    0.0000 C   0  0  0  0  0  0  0  0  0  0  0  0
    6.4641   -0.6900    0.0000 C   0  0  0  0  0  0  0  0  0  0  0  0
    5.5981    0.8100    0.0000 C   0  0  0  0  0  0  0  0  0  0  0  0
    3.4384   -0.2516    0.0000 H   0  0  0  0  0  0  0  0  0  0  0  0
    2.9750    0.5746    0.0000 H   0  0  0  0  0  0  0  0  0  0  0  0
    2.0250    0.5746    0.0000 H   0  0  0  0  0  0  0  0  0  0  0  0
    1.4174   -0.4779    0.0000 H   0  0  0  0  0  0  0  0  0  0  0  0
    1.8923   -1.3006    0.0000 H   0  0  0  0  0  0  0  0  0  0  0  0
    3.8660   -1.8100    0.0000 H   0  0  0  0  0  0  0  0  0  0  0  0
    5.5981   -1.8100    0.0000 H   0  0  0  0  0  0  0  0  0  0  0  0
    7.0010    0.6200    0.0000 H   0  0  0  0  0  0  0  0  0  0  0  0
  1 11  2  0  0  0  0
  2 12  2  0  0  0  0
  3  7  1  0  0  0  0
  3 10  1  0  0  0  0
  3 18  1  0  0  0  0
  4 10  1  0  0  0  0
  4 11  1  0  0  0  0
  4 19  1  0  0  0  0
  5 10  2  0  0  0  0
  5 12  1  0  0  0  0
  6 11  1  0  0  0  0
  6 12  1  0  0  0  0
  6 20  1  0  0  0  0
  7  8  1  0  0  0  0
  7  9  1  0  0  0  0
  7 13  1  0  0  0  0
  8  9  1  0  0  0  0
  8 14  1  0  0  0  0
  8 15  1  0  0  0  0
  9 16  1  0  0  0  0
  9 17  1  0  0  0  0
M  END
> <PUBCHEM_COMPOUND_CID>
592814

> <PUBCHEM_COMPOUND_CANONICALIZED>
1

> <PUBCHEM_CACTVS_COMPLEXITY>
269

> <PUBCHEM_CACTVS_HBOND_ACCEPTOR>
2

> <PUBCHEM_CACTVS_HBOND_DONOR>
3

> <PUBCHEM_CACTVS_ROTATABLE_BOND>
2

> <PUBCHEM_CACTVS_SUBSKEYS>
AAADccBjsAAAAAAAAAAAAAAAGAAAAAAAAAAgAAAAAAAAAAAAAAAAHgAQAAAACCjBAAQBAALAAAAoAAAANAAAAAEAAAABAIAIAACAAAAACAAEAAAIESIAAAAAAAAAAAAAAAAAAAAAAAAAAAAAAAAAAAAAAA==

> <PUBCHEM_IUPAC_OPENEYE_NAME>
6-(cyclopropylamino)-1H-1,3,5-triazine-2,4-dione

> <PUBCHEM_IUPAC_CAS_NAME>
6-(cyclopropylamino)-1H-1,3,5-triazine-2,4-dione

> <PUBCHEM_IUPAC_NAME>
6-(cyclopropylamino)-1H-1,3,5-triazine-2,4-dione

> <PUBCHEM_IUPAC_SYSTEMATIC_NAME>
6-(cyclopropylamino)-1H-1,3,5-triazine-2,4-dione

> <PUBCHEM_IUPAC_TRADITIONAL_NAME>
6-(cyclopropylamino)-1H-s-triazine-2,4-quinone

> <PUBCHEM_IUPAC_INCHI>
InChI=1S/C6H8N4O2/c11-5-8-4(7-3-1-2-3)9-6(12)10-5/h3H,1-2H2,(H3,7,8,9,10,11,12)

> <PUBCHEM_IUPAC_INCHIKEY>
BLNVGTGPKHCQME-UHFFFAOYSA-N

> <PUBCHEM_XLOGP3_AA>
-0.5

> <PUBCHEM_EXACT_MASS>
168.064726

> <PUBCHEM_MOLECULAR_FORMULA>
C6H8N4O2

> <PUBCHEM_MOLECULAR_WEIGHT>
168.15332

> <PUBCHEM_OPENEYE_CAN_SMILES>
C1CC1NC2=NC(=O)NC(=O)N2

> <PUBCHEM_OPENEYE_ISO_SMILES>
C1CC1NC2=NC(=O)NC(=O)N2

> <PUBCHEM_CACTVS_TPSA>
82.6

> <PUBCHEM_MONOISOTOPIC_WEIGHT>
168.064726

> <PUBCHEM_TOTAL_CHARGE>
0

> <PUBCHEM_HEAVY_ATOM_COUNT>
12

> <PUBCHEM_ATOM_DEF_STEREO_COUNT>
0

> <PUBCHEM_ATOM_UDEF_STEREO_COUNT>
0

> <PUBCHEM_BOND_DEF_STEREO_COUNT>
0

> <PUBCHEM_BOND_UDEF_STEREO_COUNT>
0

> <PUBCHEM_ISOTOPIC_ATOM_COUNT>
0

> <PUBCHEM_COMPONENT_COUNT>
1

> <PUBCHEM_CACTVS_TAUTO_COUNT>
10

> <PUBCHEM_COORDINATE_TYPE>
1
5
255

> <PUBCHEM_BONDANNOTATIONS>
4  10  8
4  11  8
5  10  8
5  12  8
6  11  8
6  12  8

$$$$

