6326658
  -OEChem-07051212582D

 70 74  0     1  0  0  0  0  0999 V2000
    4.2841   -2.2986    0.0000 O   0  0  0  0  0  0  0  0  0  0  0  0
    4.6501    0.0674    0.0000 O   0  0  0  0  0  0  0  0  0  0  0  0
    4.0054   -2.7758    0.0000 O   0  0  0  0  0  0  0  0  0  0  0  0
    3.9547    2.1112    0.0000 O   0  0  0  0  0  0  0  0  0  0  0  0
    4.6365   -4.3145    0.0000 O   0  0  0  0  0  0  0  0  0  0  0  0
    4.5537    3.6627    0.0000 O   0  0  0  0  0  0  0  0  0  0  0  0
    6.0362    3.9851    0.0000 O   0  0  0  0  0  0  0  0  0  0  0  0
    9.4330    0.3064    0.0000 O   0  0  0  0  0  0  0  0  0  0  0  0
   10.4312   -1.0240    0.0000 O   0  0  0  0  0  0  0  0  0  0  0  0
    2.9180   -0.9326    0.0000 C   0  0  1  0  0  0  0  0  0  0  0  0
    3.7841   -1.4326    0.0000 C   0  0  2  0  0  0  0  0  0  0  0  0
    2.9180    0.0674    0.0000 C   0  0  2  0  0  0  0  0  0  0  0  0
    4.6501   -0.9326    0.0000 C   0  0  1  0  0  0  0  0  0  0  0  0
    3.2847   -1.8616    0.0000 C   0  0  1  0  0  0  0  0  0  0  0  0
    4.7841   -1.4326    0.0000 C   0  0  0  0  0  0  0  0  0  0  0  0
    4.2834   -1.8616    0.0000 C   0  0  0  0  0  0  0  0  0  0  0  0
    3.7841    0.5674    0.0000 C   0  0  1  0  0  0  0  0  0  0  0  0
    2.0520   -0.4326    0.0000 C   0  0  0  0  0  0  0  0  0  0  0  0
    2.0080    0.5743    0.0000 C   0  0  0  0  0  0  0  0  0  0  0  0
    3.2531    1.1823    0.0000 C   0  0  0  0  0  0  0  0  0  0  0  0
    3.8001    1.6089    0.0000 C   0  0  0  0  0  0  0  0  0  0  0  0
    2.0000    1.6159    0.0000 C   0  0  0  0  0  0  0  0  0  0  0  0
    2.9021    2.1367    0.0000 C   0  0  0  0  0  0  0  0  0  0  0  0
    4.9989   -3.3825    0.0000 C   0  0  0  0  0  0  0  0  0  0  0  0
    2.9059    3.1367    0.0000 C   0  0  0  0  0  0  0  0  0  0  0  0
    4.9354    2.7384    0.0000 C   0  0  0  0  0  0  0  0  0  0  0  0
    6.1413   -3.6062    0.0000 C   0  0  0  0  0  0  0  0  0  0  0  0
    6.0729    2.9857    0.0000 C   0  0  2  0  0  0  0  0  0  0  0  0
    7.2254    2.8224    0.0000 C   0  0  1  0  0  0  0  0  0  0  0  0
    7.2902   -3.4190    0.0000 C   0  0  0  0  0  0  0  0  0  0  0  0
    8.2494    2.2687    0.0000 C   0  0  0  0  0  0  0  0  0  0  0  0
    7.5384    3.7722    0.0000 C   0  0  0  0  0  0  0  0  0  0  0  0
    8.3025   -2.8441    0.0000 C   0  0  0  0  0  0  0  0  0  0  0  0
    9.0172    1.3936    0.0000 C   0  0  0  0  0  0  0  0  0  0  0  0
    9.0519   -1.9534    0.0000 C   0  0  0  0  0  0  0  0  0  0  0  0
    9.4451   -0.8577    0.0000 C   0  0  0  0  0  0  0  0  0  0  0  0
    5.5001   -0.9326    0.0000 H   0  0  0  0  0  0  0  0  0  0  0  0
    2.5478   -2.2852    0.0000 H   0  0  0  0  0  0  0  0  0  0  0  0
    5.3667   -1.6446    0.0000 H   0  0  0  0  0  0  0  0  0  0  0  0
    4.8917   -0.8220    0.0000 H   0  0  0  0  0  0  0  0  0  0  0  0
    4.2060   -2.4767    0.0000 H   0  0  0  0  0  0  0  0  0  0  0  0
    4.8841   -2.0154    0.0000 H   0  0  0  0  0  0  0  0  0  0  0  0
    4.5202    0.9924    0.0000 H   0  0  0  0  0  0  0  0  0  0  0  0
    2.3620    0.1044    0.0000 H   0  0  0  0  0  0  0  0  0  0  0  0
    1.5151   -0.1226    0.0000 H   0  0  0  0  0  0  0  0  0  0  0  0
    1.7420   -0.9695    0.0000 H   0  0  0  0  0  0  0  0  0  0  0  0
    1.3964    0.6757    0.0000 H   0  0  0  0  0  0  0  0  0  0  0  0
    1.8035   -0.0110    0.0000 H   0  0  0  0  0  0  0  0  0  0  0  0
    2.9458    1.7207    0.0000 H   0  0  0  0  0  0  0  0  0  0  0  0
    3.8060    0.9018    0.0000 H   0  0  0  0  0  0  0  0  0  0  0  0
    4.3406    1.9127    0.0000 H   0  0  0  0  0  0  0  0  0  0  0  0
    1.7864    2.1979    0.0000 H   0  0  0  0  0  0  0  0  0  0  0  0
    1.3900    1.5051    0.0000 H   0  0  0  0  0  0  0  0  0  0  0  0
    3.5259    3.1343    0.0000 H   0  0  0  0  0  0  0  0  0  0  0  0
    2.9083    3.7567    0.0000 H   0  0  0  0  0  0  0  0  0  0  0  0
    2.2859    3.1391    0.0000 H   0  0  0  0  0  0  0  0  0  0  0  0
    6.1314   -4.2261    0.0000 H   0  0  0  0  0  0  0  0  0  0  0  0
    5.5831    3.3659    0.0000 H   0  0  0  0  0  0  0  0  0  0  0  0
    7.8016    3.0514    0.0000 H   0  0  0  0  0  0  0  0  0  0  0  0
    7.4964   -4.0037    0.0000 H   0  0  0  0  0  0  0  0  0  0  0  0
    6.5614    4.3145    0.0000 H   0  0  0  0  0  0  0  0  0  0  0  0
    8.8389    2.4607    0.0000 H   0  0  0  0  0  0  0  0  0  0  0  0
    7.8629    1.7839    0.0000 H   0  0  0  0  0  0  0  0  0  0  0  0
    8.1272    3.5782    0.0000 H   0  0  0  0  0  0  0  0  0  0  0  0
    7.7324    4.3610    0.0000 H   0  0  0  0  0  0  0  0  0  0  0  0
    6.9495    3.9662    0.0000 H   0  0  0  0  0  0  0  0  0  0  0  0
    8.6990   -3.3208    0.0000 H   0  0  0  0  0  0  0  0  0  0  0  0
    9.6367    1.3688    0.0000 H   0  0  0  0  0  0  0  0  0  0  0  0
    8.4863    1.0734    0.0000 H   0  0  0  0  0  0  0  0  0  0  0  0
    9.5893   -2.2625    0.0000 H   0  0  0  0  0  0  0  0  0  0  0  0
 11  1  1  6  0  0  0
  1 15  1  0  0  0  0
  2 13  1  0  0  0  0
  2 17  1  0  0  0  0
  3 14  1  0  0  0  0
  3 24  1  0  0  0  0
  4 20  1  0  0  0  0
  4 26  1  0  0  0  0
  5 24  2  0  0  0  0
  6 26  2  0  0  0  0
 28  7  1  1  0  0  0
  7 61  1  0  0  0  0
  8 34  1  0  0  0  0
  8 36  1  0  0  0  0
  9 36  2  0  0  0  0
 10 11  1  0  0  0  0
 10 12  1  0  0  0  0
 10 14  1  0  0  0  0
 10 18  1  1  0  0  0
 11 13  1  0  0  0  0
 11 15  1  0  0  0  0
 12 17  1  0  0  0  0
 12 19  1  1  0  0  0
 12 20  1  0  0  0  0
 13 16  1  0  0  0  0
 13 37  1  1  0  0  0
 14 16  1  0  0  0  0
 14 38  1  6  0  0  0
 15 39  1  0  0  0  0
 15 40  1  0  0  0  0
 16 41  1  0  0  0  0
 16 42  1  0  0  0  0
 17 21  1  0  0  0  0
 17 43  1  6  0  0  0
 18 44  1  0  0  0  0
 18 45  1  0  0  0  0
 18 46  1  0  0  0  0
 19 22  1  0  0  0  0
 19 47  1  0  0  0  0
 19 48  1  0  0  0  0
 20 49  1  0  0  0  0
 20 50  1  0  0  0  0
 21 23  2  0  0  0  0
 21 51  1  0  0  0  0
 22 23  1  0  0  0  0
 22 52  1  0  0  0  0
 22 53  1  0  0  0  0
 23 25  1  0  0  0  0
 24 27  1  0  0  0  0
 25 54  1  0  0  0  0
 25 55  1  0  0  0  0
 25 56  1  0  0  0  0
 26 28  1  0  0  0  0
 27 30  2  0  0  0  0
 27 57  1  0  0  0  0
 28 29  1  0  0  0  0
 28 58  1  0  0  0  0
 29 31  1  0  0  0  0
 29 32  1  6  0  0  0
 29 59  1  0  0  0  0
 30 33  1  0  0  0  0
 30 60  1  0  0  0  0
 31 34  1  0  0  0  0
 31 62  1  0  0  0  0
 31 63  1  0  0  0  0
 32 64  1  0  0  0  0
 32 65  1  0  0  0  0
 32 66  1  0  0  0  0
 33 35  2  0  0  0  0
 33 67  1  0  0  0  0
 34 68  1  0  0  0  0
 34 69  1  0  0  0  0
 35 36  1  0  0  0  0
 35 70  1  0  0  0  0
M  END
> <PUBCHEM_COMPOUND_CID>
6326658

> <PUBCHEM_COMPOUND_CANONICALIZED>
1

> <PUBCHEM_CACTVS_COMPLEXITY>
1030

> <PUBCHEM_CACTVS_HBOND_ACCEPTOR>
9

> <PUBCHEM_CACTVS_HBOND_DONOR>
1

> <PUBCHEM_CACTVS_ROTATABLE_BOND>
0

> <PUBCHEM_CACTVS_SUBSKEYS>
AAADcfB4PAAAAAAAAAAAAAAAEgAAAYAAAAAkQAAAAAAAAACAAAAAGgAACAAAD1SggAICCAAABgCIAiDSCAIAAAAgAAAICAFAAEgJFBIAIQACUAAFgAALoYPI5PwPgAAAAAAAAAAAAAAAAAAAAIQADCAAAA==

> <PUBCHEM_IUPAC_INCHI>
InChI=1S/C27H34O9/c1-16-8-10-26-14-33-24(31)23(30)17(2)9-11-32-21(28)6-4-5-7-22(29)36-18-13-20(35-19(26)12-16)27(15-34-27)25(18,26)3/h4-7,12,17-20,23,30H,8-11,13-15H2,1-3H3/b6-4+,7-5-/t17-,18-,19-,20-,23+,25-,26-,27+/m1/s1

> <PUBCHEM_IUPAC_INCHIKEY>
NLUGUZJQJYVUHS-IDXDZYHTSA-N

> <PUBCHEM_XLOGP3_AA>
2.4

> <PUBCHEM_EXACT_MASS>
502.220283

> <PUBCHEM_MOLECULAR_FORMULA>
C27H34O9

> <PUBCHEM_MOLECULAR_WEIGHT>
502.55346

> <PUBCHEM_OPENEYE_CAN_SMILES>
CC1CCOC(=O)C=CC=CC(=O)OC2CC3C4(C2(C5(CCC(=CC5O3)C)COC(=O)C1O)C)CO4

> <PUBCHEM_OPENEYE_ISO_SMILES>
C[C@@H]1CCOC(=O)/C=C/C=C\C(=O)O[C@@H]2C[C@@H]3[C@]4([C@]2([C@]5(CCC(=C[C@H]5O3)C)COC(=O)[C@H]1O)C)CO4

> <PUBCHEM_CACTVS_TPSA>
121

> <PUBCHEM_MONOISOTOPIC_WEIGHT>
502.220283

> <PUBCHEM_TOTAL_CHARGE>
0

> <PUBCHEM_HEAVY_ATOM_COUNT>
36

> <PUBCHEM_ATOM_DEF_STEREO_COUNT>
8

> <PUBCHEM_ATOM_UDEF_STEREO_COUNT>
0

> <PUBCHEM_BOND_DEF_STEREO_COUNT>
2

> <PUBCHEM_BOND_UDEF_STEREO_COUNT>
0

> <PUBCHEM_ISOTOPIC_ATOM_COUNT>
0

> <PUBCHEM_COMPONENT_COUNT>
1

> <PUBCHEM_CACTVS_TAUTO_COUNT>
4

> <PUBCHEM_COORDINATE_TYPE>
1
5
255

> <PUBCHEM_BONDANNOTATIONS>
11  1  6
10  18  5
12  19  5
13  37  5
14  38  6
17  43  6
29  32  6
28  7  5

$$$$

