11326
  -OEChem-06261205322D

 24 25  0     0  0  0  0  0  0999 V2000
    4.5981    0.0000    0.0000 C   0  0  0  0  0  0  0  0  0  0  0  0
    4.5981    1.0000    0.0000 C   0  0  0  0  0  0  0  0  0  0  0  0
    5.4920   -0.5347    0.0000 C   0  0  0  0  0  0  0  0  0  0  0  0
    3.7320   -0.5000    0.0000 C   0  0  0  0  0  0  0  0  0  0  0  0
    2.8660    0.0000    0.0000 C   0  0  0  0  0  0  0  0  0  0  0  0
    3.7320    1.5000    0.0000 C   0  0  0  0  0  0  0  0  0  0  0  0
    5.4920    1.5346    0.0000 C   0  0  0  0  0  0  0  0  0  0  0  0
    2.8660    1.0000    0.0000 C   0  0  0  0  0  0  0  0  0  0  0  0
    6.3981   -0.0208    0.0000 C   0  0  0  0  0  0  0  0  0  0  0  0
    6.3981    1.0208    0.0000 C   0  0  0  0  0  0  0  0  0  0  0  0
    5.4804   -1.5346    0.0000 C   0  0  0  0  0  0  0  0  0  0  0  0
    2.0000   -0.5000    0.0000 C   0  0  0  0  0  0  0  0  0  0  0  0
    3.7320   -1.1200    0.0000 H   0  0  0  0  0  0  0  0  0  0  0  0
    3.7320    2.1200    0.0000 H   0  0  0  0  0  0  0  0  0  0  0  0
    5.4848    2.1546    0.0000 H   0  0  0  0  0  0  0  0  0  0  0  0
    2.3291    1.3100    0.0000 H   0  0  0  0  0  0  0  0  0  0  0  0
    6.9338   -0.3329    0.0000 H   0  0  0  0  0  0  0  0  0  0  0  0
    6.9338    1.3328    0.0000 H   0  0  0  0  0  0  0  0  0  0  0  0
    4.8605   -1.5275    0.0000 H   0  0  0  0  0  0  0  0  0  0  0  0
    5.4733   -2.1546    0.0000 H   0  0  0  0  0  0  0  0  0  0  0  0
    6.1004   -1.5418    0.0000 H   0  0  0  0  0  0  0  0  0  0  0  0
    1.6900    0.0369    0.0000 H   0  0  0  0  0  0  0  0  0  0  0  0
    1.4631   -0.8100    0.0000 H   0  0  0  0  0  0  0  0  0  0  0  0
    2.3100   -1.0370    0.0000 H   0  0  0  0  0  0  0  0  0  0  0  0
  1  2  1  0  0  0  0
  1  3  2  0  0  0  0
  1  4  1  0  0  0  0
  2  6  1  0  0  0  0
  2  7  2  0  0  0  0
  3  9  1  0  0  0  0
  3 11  1  0  0  0  0
  4  5  2  0  0  0  0
  4 13  1  0  0  0  0
  5  8  1  0  0  0  0
  5 12  1  0  0  0  0
  6  8  2  0  0  0  0
  6 14  1  0  0  0  0
  7 10  1  0  0  0  0
  7 15  1  0  0  0  0
  8 16  1  0  0  0  0
  9 10  2  0  0  0  0
  9 17  1  0  0  0  0
 10 18  1  0  0  0  0
 11 19  1  0  0  0  0
 11 20  1  0  0  0  0
 11 21  1  0  0  0  0
 12 22  1  0  0  0  0
 12 23  1  0  0  0  0
 12 24  1  0  0  0  0
M  END
> <PUBCHEM_COMPOUND_CID>
11326

> <PUBCHEM_COMPOUND_CANONICALIZED>
1

> <PUBCHEM_CACTVS_COMPLEXITY>
150

> <PUBCHEM_CACTVS_HBOND_ACCEPTOR>
0

> <PUBCHEM_CACTVS_HBOND_DONOR>
0

> <PUBCHEM_CACTVS_ROTATABLE_BOND>
0

> <PUBCHEM_CACTVS_SUBSKEYS>
AAADccBwAAAAAAAAAAAAAAAAAAAAAAAAAAAwYAAAAAAAAADBUAAAGAAAAAAADACAGAAyAMAAAACAAiBCAAACAAAgAAAIiAAAAIgIICKAERCAIAAggAAIiAcAgMAOwAACAAAQAACAAAQAACAAAAAAAAAAAA==

> <PUBCHEM_IUPAC_OPENEYE_NAME>
1,7-dimethylnaphthalene

> <PUBCHEM_IUPAC_CAS_NAME>
1,7-dimethylnaphthalene

> <PUBCHEM_IUPAC_NAME>
1,7-dimethylnaphthalene

> <PUBCHEM_IUPAC_SYSTEMATIC_NAME>
1,7-dimethylnaphthalene

> <PUBCHEM_IUPAC_TRADITIONAL_NAME>
1,7-dimethylnaphthalene

> <PUBCHEM_IUPAC_INCHI>
InChI=1S/C12H12/c1-9-6-7-11-5-3-4-10(2)12(11)8-9/h3-8H,1-2H3

> <PUBCHEM_IUPAC_INCHIKEY>
SPUWFVKLHHEKGV-UHFFFAOYSA-N

> <PUBCHEM_XLOGP3>
4.4

> <PUBCHEM_EXACT_MASS>
156.0939

> <PUBCHEM_MOLECULAR_FORMULA>
C12H12

> <PUBCHEM_MOLECULAR_WEIGHT>
156.22368

> <PUBCHEM_OPENEYE_CAN_SMILES>
CC1=CC2=C(C=CC=C2C)C=C1

> <PUBCHEM_OPENEYE_ISO_SMILES>
CC1=CC2=C(C=CC=C2C)C=C1

> <PUBCHEM_CACTVS_TPSA>
0

> <PUBCHEM_MONOISOTOPIC_WEIGHT>
156.0939

> <PUBCHEM_TOTAL_CHARGE>
0

> <PUBCHEM_HEAVY_ATOM_COUNT>
12

> <PUBCHEM_ATOM_DEF_STEREO_COUNT>
0

> <PUBCHEM_ATOM_UDEF_STEREO_COUNT>
0

> <PUBCHEM_BOND_DEF_STEREO_COUNT>
0

> <PUBCHEM_BOND_UDEF_STEREO_COUNT>
0

> <PUBCHEM_ISOTOPIC_ATOM_COUNT>
0

> <PUBCHEM_COMPONENT_COUNT>
1

> <PUBCHEM_CACTVS_TAUTO_COUNT>
1

> <PUBCHEM_COORDINATE_TYPE>
1
5
255

> <PUBCHEM_BONDANNOTATIONS>
1  2  8
1  3  8
1  4  8
2  6  8
2  7  8
3  9  8
4  5  8
5  8  8
6  8  8
7  10  8
9  10  8

$$$$

