   Color/Form
        Colorless gas ... [Note: A liquid below 44 degrees F. Shipped as a
   liquefied compressed gas].
   from [1]HSDB

   Odor
        ... Ammonia or fish-like odor ...
   from [2]HSDB

   Boiling Point
        6.8 deg C
   from [3]HSDB

   Melting Point
        -92.2 deg C
   from [4]HSDB

   Corrosivity
        Liquid dimethylamine will attack some forms of plastics, rubber,
   and coatings
   from [5]HSDB

   Critical Temperature and Pressure
        Critical temp = 437.22 K; critical pressure = 5.340 MPa
   from [6]HSDB

   Density/Specific Gravity
        0.6804 at 0 deg C/4 deg C /liquid/
   from [7]HSDB

   Dissociation Constants
        pKa = 10.732 at 25 deg C
   from [8]HSDB

   Heat of Combustion
        1743.5 kJ/mol at 25 deg C /liquid/; 1768.9 kJ/mol at 25 deg C
   /gas/
   from [9]HSDB

   Heat of Vaporization
        25.05 kJ/mol at 25 deg C
   from [10]HSDB

   Octanol/Water Partition Coefficient
        log Kow = -0.38
   from [11]HSDB

   pH
        AQUEOUS SOLN OF DIMETHYLAMINE ARE HIGHLY ALKALINE, LIKE AMMONIA.
   from [12]HSDB

   Solubilities

     * Very soluble in water forming a very strong alklaine solution. Sol
       in alcohol or ether.
     * Solubilities in various solvents at 1 atm and 20 deg C.

       Solvent

   cc/cc

   Solvent cc/cc
   Aniline 520 Ethanol 727
   Anisole 252 Ethylene glycol 860
   Benzyl alcohol 528 Furfuryl alcohol 679
   Isobutanol 598 Methanol 992
   n-Butanol 504 Methylcyclohexanol 439
   Cedrene 106 Monoethanolamine 379
   alpha-Chloronaphthalene 174 Monoethylaniline 324
   Cymene 182 Morpholine 580
   Decahydronaphthalene 116 Nitrobenzene 226
   Diacetone 457 o-Nitrotoluene 221
   Dibenzylether 154 Pinene 156
   o-Dichlorobenzene 252 n-Propanol 600
   Diethanolamine 497 Quinoline 212
   Diethylaniline 230 Tetrahydronaphthalene 170
   Diethylene glycol mono-ethyl ether 488 o-Toluidine 430
   Dimethylaniline 230 Triethylene glycol 488
   Dimethylcyclohexylamine 187 Trimethylene glycol 722
   Dimethylformamide 298

     In water, 163 g/100g water at 40 deg C

   from [13]HSDB

   Spectral Properties

     * MAX ABSORPTION: 190.5 NM (LOG E= 3.51); 222 NM (LOG E= 2.0)
     * Index of refraction: 1.350 at 17 deg C/D
     * IR: 1140 (Sadtler Research Laboratories Prism Collection)
     * MASS: 18878 (NIST/EPA/MSDC Mass Spectral database, 1990 version

   from [14]HSDB

   Surface Tension
        26.34 mN/m at 25 deg C
   from [15]HSDB

   Vapor Density
        1.6 (air= 1)
   from [16]HSDB

   Vapor Pressure
        1520 mm Hg at 25 deg C
   from [17]HSDB

   Relative Evaporation Rate
        Greater than 1 (Butyl acetate= 1)
   from [18]HSDB

   Viscosity
        1.7 mPa.s at 15.5 deg C /40% Dimethylamine aqueous solution/
   from [19]HSDB

   Other Chemical/Physical Properties

     * Conversion factor: 1 ppm equals 1.84 mg/cu m /Air/
     * Bulk density approximately 7.8 lb/gal
     * Deliquesc leaflets; mp: 171 deg C; very sol in water; sol in
       alcohol, chloroform; practically insol in ether /Dimethylamine
       hydrochloride/
     * Heat of fusion = 25.05 kJ/mol at 25 deg C
     * Ratio of specific heats of vapor: 1.139; heat of solution: -515
       Btu/lb= -286 cal/g= -12.0X10+5 J/kg
     * Saturated liquid density: 42.110 lb/cu ft; liquid heat capacity:
       0.731 Btu/lb-F (all at 40 deg F)
     * Saturated vapor pressure: 29.990 lb/sq in; saturated vapor density:
       0.23550 lb/cu ft; ideal gas heat capacity: 0.364 Btu/lb-F (all at
       75 deg F)
     * Amines tend to be fat soluble /Amines/
     * Henry's Law constant = 1.77X10-5 atm-cu m/mol at 25 deg C
     * Hydroxyl radical reaction rate constant = 6.54X10-11 cu
       cm/molecule-sec at 25 deg C

   from [20]HSDB

   Computed Properties
   Molecular Weight                  45.08368 [g/mol]
   Molecular Formula                 C[2]H[7]N
   XLogP3-AA                         -0.2
   H-Bond Donor                      1
   H-Bond Acceptor                   1
   Rotatable Bond Count              0
   Exact Mass                        45.057849
   MonoIsotopic Mass                 45.057849
   Topological Polar Surface Area    12
   Heavy Atom Count                  3
   Formal Charge                     0
   Complexity                        2.8
   Isotope Atom Count                0
   Defined Atom Stereocenter Count   0
   Undefined Atom Stereocenter Count 0
   Defined Bond Stereocenter Count   0
   Undefined Bond Stereocenter Count 0
   Covalently-Bonded Unit Count      1
   Feature 3D Donor Count            1
   Feature 3D Cation Count           1
   Effective Rotor Count             0
   Conformer Sampling RMSD           0.4
   CID Conformer Count               [21]1

References

   1. http://toxnet.nlm.nih.gov/cgi-bin/sis/search/r?dbs+hsdb:@term+@rn+@rel+124-40-3
   2. http://toxnet.nlm.nih.gov/cgi-bin/sis/search/r?dbs+hsdb:@term+@rn+@rel+124-40-3
   3. http://toxnet.nlm.nih.gov/cgi-bin/sis/search/r?dbs+hsdb:@term+@rn+@rel+124-40-3
   4. http://toxnet.nlm.nih.gov/cgi-bin/sis/search/r?dbs+hsdb:@term+@rn+@rel+124-40-3
   5. http://toxnet.nlm.nih.gov/cgi-bin/sis/search/r?dbs+hsdb:@term+@rn+@rel+124-40-3
   6. http://toxnet.nlm.nih.gov/cgi-bin/sis/search/r?dbs+hsdb:@term+@rn+@rel+124-40-3
   7. http://toxnet.nlm.nih.gov/cgi-bin/sis/search/r?dbs+hsdb:@term+@rn+@rel+124-40-3
   8. http://toxnet.nlm.nih.gov/cgi-bin/sis/search/r?dbs+hsdb:@term+@rn+@rel+124-40-3
   9. http://toxnet.nlm.nih.gov/cgi-bin/sis/search/r?dbs+hsdb:@term+@rn+@rel+124-40-3
  10. http://toxnet.nlm.nih.gov/cgi-bin/sis/search/r?dbs+hsdb:@term+@rn+@rel+124-40-3
  11. http://toxnet.nlm.nih.gov/cgi-bin/sis/search/r?dbs+hsdb:@term+@rn+@rel+124-40-3
  12. http://toxnet.nlm.nih.gov/cgi-bin/sis/search/r?dbs+hsdb:@term+@rn+@rel+124-40-3
  13. http://toxnet.nlm.nih.gov/cgi-bin/sis/search/r?dbs+hsdb:@term+@rn+@rel+124-40-3
  14. http://toxnet.nlm.nih.gov/cgi-bin/sis/search/r?dbs+hsdb:@term+@rn+@rel+124-40-3
  15. http://toxnet.nlm.nih.gov/cgi-bin/sis/search/r?dbs+hsdb:@term+@rn+@rel+124-40-3
  16. http://toxnet.nlm.nih.gov/cgi-bin/sis/search/r?dbs+hsdb:@term+@rn+@rel+124-40-3
  17. http://toxnet.nlm.nih.gov/cgi-bin/sis/search/r?dbs+hsdb:@term+@rn+@rel+124-40-3
  18. http://toxnet.nlm.nih.gov/cgi-bin/sis/search/r?dbs+hsdb:@term+@rn+@rel+124-40-3
  19. http://toxnet.nlm.nih.gov/cgi-bin/sis/search/r?dbs+hsdb:@term+@rn+@rel+124-40-3
  20. http://toxnet.nlm.nih.gov/cgi-bin/sis/search/r?dbs+hsdb:@term+@rn+@rel+124-40-3
  21. http://pubchem.ncbi.nlm.nih.gov/vw3d/vw3d.cgi?cid=674
