5281957
  -OEChem-07051213022D

 79 82  0     1  0  0  0  0  0999 V2000
   12.9816   -1.2255    0.0000 O   0  0  0  0  0  0  0  0  0  0  0  0
    6.1491   -4.3944    0.0000 O   0  0  0  0  0  0  0  0  0  0  0  0
    7.4315   -4.3047    0.0000 O   0  0  0  0  0  0  0  0  0  0  0  0
    7.4757    4.4592    0.0000 O   0  0  0  0  0  0  0  0  0  0  0  0
    8.8769    3.4411    0.0000 O   0  0  0  0  0  0  0  0  0  0  0  0
    5.2215   -3.7469    0.0000 O   0  0  0  0  0  0  0  0  0  0  0  0
    9.4951   -1.6309    0.0000 N   0  0  0  0  0  0  0  0  0  0  0  0
   11.3938   -2.0345    0.0000 N   0  0  0  0  0  0  0  0  0  0  0  0
    6.6136   -0.5248    0.0000 N   0  0  0  0  0  0  0  0  0  0  0  0
    5.3147   -1.9673    0.0000 N   0  0  0  0  0  0  0  0  0  0  0  0
   11.0848   -2.9855    0.0000 C   0  0  2  0  0  0  0  0  0  0  0  0
   10.1337   -3.2946    0.0000 C   0  0  0  0  0  0  0  0  0  0  0  0
    9.3906   -2.6254    0.0000 C   0  0  0  0  0  0  0  0  0  0  0  0
    8.4124   -2.8333    0.0000 C   0  0  0  0  0  0  0  0  0  0  0  0
    7.9124   -1.9673    0.0000 C   0  0  0  0  0  0  0  0  0  0  0  0
    8.5816   -1.2242    0.0000 C   0  0  0  0  0  0  0  0  0  0  0  0
   11.8938   -3.5733    0.0000 C   0  0  0  0  0  0  0  0  0  0  0  0
    6.9179   -1.8628    0.0000 C   0  0  0  0  0  0  0  0  0  0  0  0
   12.7028   -2.9855    0.0000 C   0  0  0  0  0  0  0  0  0  0  0  0
    8.3737   -0.2460    0.0000 C   0  0  0  0  0  0  0  0  0  0  0  0
    7.4226    0.0630    0.0000 C   0  0  0  0  0  0  0  0  0  0  0  0
   12.3938   -2.0345    0.0000 C   0  0  0  0  0  0  0  0  0  0  0  0
    7.1136    1.0140    0.0000 C   0  0  0  0  0  0  0  0  0  0  0  0
    8.6881   -3.7946    0.0000 C   0  0  0  0  0  0  0  0  0  0  0  0
   11.8938   -4.5733    0.0000 C   0  0  0  0  0  0  0  0  0  0  0  0
    6.1136    1.0140    0.0000 C   0  0  0  0  0  0  0  0  0  0  0  0
    6.3301   -2.6718    0.0000 C   0  0  0  0  0  0  0  0  0  0  0  0
    5.8046    0.0630    0.0000 C   0  0  0  0  0  0  0  0  0  0  0  0
    7.7014    1.8231    0.0000 C   0  0  0  0  0  0  0  0  0  0  0  0
   13.6539   -3.2946    0.0000 C   0  0  0  0  0  0  0  0  0  0  0  0
    7.2946    2.7366    0.0000 C   0  0  0  0  0  0  0  0  0  0  0  0
    5.5258    1.8231    0.0000 C   0  0  0  0  0  0  0  0  0  0  0  0
    4.8535   -0.2460    0.0000 C   0  0  0  0  0  0  0  0  0  0  0  0
    6.7369   -3.5854    0.0000 C   0  0  0  0  0  0  0  0  0  0  0  0
    4.6456   -1.2242    0.0000 C   0  0  0  0  0  0  0  0  0  0  0  0
   13.8618   -4.2727    0.0000 C   0  0  0  0  0  0  0  0  0  0  0  0
    7.8824    3.5456    0.0000 C   0  0  0  0  0  0  0  0  0  0  0  0
    3.7320   -1.6309    0.0000 C   0  0  0  0  0  0  0  0  0  0  0  0
    3.8366   -2.6254    0.0000 C   0  0  0  0  0  0  0  0  0  0  0  0
    4.8147   -2.8333    0.0000 C   0  0  0  0  0  0  0  0  0  0  0  0
    2.8660   -1.1309    0.0000 C   0  0  0  0  0  0  0  0  0  0  0  0
    3.0934   -3.2946    0.0000 C   0  0  0  0  0  0  0  0  0  0  0  0
    2.0000   -1.6309    0.0000 C   0  0  0  0  0  0  0  0  0  0  0  0
   10.6464   -2.5471    0.0000 H   0  0  0  0  0  0  0  0  0  0  0  0
    9.6452   -3.6763    0.0000 H   0  0  0  0  0  0  0  0  0  0  0  0
   10.4248   -3.8420    0.0000 H   0  0  0  0  0  0  0  0  0  0  0  0
   10.0320   -1.3209    0.0000 H   0  0  0  0  0  0  0  0  0  0  0  0
   11.0294   -1.5329    0.0000 H   0  0  0  0  0  0  0  0  0  0  0  0
    7.0888   -1.2668    0.0000 H   0  0  0  0  0  0  0  0  0  0  0  0
    6.3607   -1.5910    0.0000 H   0  0  0  0  0  0  0  0  0  0  0  0
    8.8344    0.1688    0.0000 H   0  0  0  0  0  0  0  0  0  0  0  0
    8.0922   -3.9655    0.0000 H   0  0  0  0  0  0  0  0  0  0  0  0
    8.8590   -4.3906    0.0000 H   0  0  0  0  0  0  0  0  0  0  0  0
    9.2841   -3.6237    0.0000 H   0  0  0  0  0  0  0  0  0  0  0  0
   11.2738   -4.5733    0.0000 H   0  0  0  0  0  0  0  0  0  0  0  0
   11.8938   -5.1933    0.0000 H   0  0  0  0  0  0  0  0  0  0  0  0
   12.5138   -4.5733    0.0000 H   0  0  0  0  0  0  0  0  0  0  0  0
    5.8994   -2.2258    0.0000 H   0  0  0  0  0  0  0  0  0  0  0  0
    5.8161   -3.0185    0.0000 H   0  0  0  0  0  0  0  0  0  0  0  0
    6.6136   -1.1448    0.0000 H   0  0  0  0  0  0  0  0  0  0  0  0
    8.1321    1.3771    0.0000 H   0  0  0  0  0  0  0  0  0  0  0  0
    8.2154    2.1698    0.0000 H   0  0  0  0  0  0  0  0  0  0  0  0
   14.1146   -2.8797    0.0000 H   0  0  0  0  0  0  0  0  0  0  0  0
    6.8639    3.1826    0.0000 H   0  0  0  0  0  0  0  0  0  0  0  0
    6.7806    2.3899    0.0000 H   0  0  0  0  0  0  0  0  0  0  0  0
    6.0274    2.1875    0.0000 H   0  0  0  0  0  0  0  0  0  0  0  0
    5.1614    2.3247    0.0000 H   0  0  0  0  0  0  0  0  0  0  0  0
    5.0242    1.4586    0.0000 H   0  0  0  0  0  0  0  0  0  0  0  0
    4.3928    0.1688    0.0000 H   0  0  0  0  0  0  0  0  0  0  0  0
   13.4010   -4.6876    0.0000 H   0  0  0  0  0  0  0  0  0  0  0  0
   14.4514   -4.4643    0.0000 H   0  0  0  0  0  0  0  0  0  0  0  0
    6.4013   -4.9608    0.0000 H   0  0  0  0  0  0  0  0  0  0  0  0
    2.8660   -0.5109    0.0000 H   0  0  0  0  0  0  0  0  0  0  0  0
    2.6786   -2.8338    0.0000 H   0  0  0  0  0  0  0  0  0  0  0  0
    2.6327   -3.7094    0.0000 H   0  0  0  0  0  0  0  0  0  0  0  0
    3.5083   -3.7553    0.0000 H   0  0  0  0  0  0  0  0  0  0  0  0
    7.8401    4.9608    0.0000 H   0  0  0  0  0  0  0  0  0  0  0  0
    1.4631   -1.3209    0.0000 H   0  0  0  0  0  0  0  0  0  0  0  0
    2.0000   -2.2509    0.0000 H   0  0  0  0  0  0  0  0  0  0  0  0
  1 22  2  0  0  0  0
  2 34  1  0  0  0  0
  2 72  1  0  0  0  0
  3 34  2  0  0  0  0
  4 37  1  0  0  0  0
  4 77  1  0  0  0  0
  5 37  2  0  0  0  0
  6 40  2  0  0  0  0
  7 13  1  0  0  0  0
  7 16  1  0  0  0  0
  7 47  1  0  0  0  0
  8 11  1  0  0  0  0
  8 22  1  0  0  0  0
  8 48  1  0  0  0  0
  9 21  1  0  0  0  0
  9 28  1  0  0  0  0
  9 60  1  0  0  0  0
 10 35  2  0  0  0  0
 10 40  1  0  0  0  0
 11 12  1  1  0  0  0
 11 17  1  0  0  0  0
 11 44  1  0  0  0  0
 12 13  1  0  0  0  0
 12 45  1  0  0  0  0
 12 46  1  0  0  0  0
 13 14  2  0  0  0  0
 14 15  1  0  0  0  0
 14 24  1  0  0  0  0
 15 16  2  0  0  0  0
 15 18  1  0  0  0  0
 16 20  1  0  0  0  0
 17 19  2  0  0  0  0
 17 25  1  0  0  0  0
 18 27  1  0  0  0  0
 18 49  1  0  0  0  0
 18 50  1  0  0  0  0
 19 22  1  0  0  0  0
 19 30  1  0  0  0  0
 20 21  2  0  0  0  0
 20 51  1  0  0  0  0
 21 23  1  0  0  0  0
 23 26  2  0  0  0  0
 23 29  1  0  0  0  0
 24 52  1  0  0  0  0
 24 53  1  0  0  0  0
 24 54  1  0  0  0  0
 25 55  1  0  0  0  0
 25 56  1  0  0  0  0
 25 57  1  0  0  0  0
 26 28  1  0  0  0  0
 26 32  1  0  0  0  0
 27 34  1  0  0  0  0
 27 58  1  0  0  0  0
 27 59  1  0  0  0  0
 28 33  2  0  0  0  0
 29 31  1  0  0  0  0
 29 61  1  0  0  0  0
 29 62  1  0  0  0  0
 30 36  2  0  0  0  0
 30 63  1  0  0  0  0
 31 37  1  0  0  0  0
 31 64  1  0  0  0  0
 31 65  1  0  0  0  0
 32 66  1  0  0  0  0
 32 67  1  0  0  0  0
 32 68  1  0  0  0  0
 33 35  1  0  0  0  0
 33 69  1  0  0  0  0
 35 38  1  0  0  0  0
 36 70  1  0  0  0  0
 36 71  1  0  0  0  0
 38 39  2  0  0  0  0
 38 41  1  0  0  0  0
 39 40  1  0  0  0  0
 39 42  1  0  0  0  0
 41 43  2  0  0  0  0
 41 73  1  0  0  0  0
 42 74  1  0  0  0  0
 42 75  1  0  0  0  0
 42 76  1  0  0  0  0
 43 78  1  0  0  0  0
 43 79  1  0  0  0  0
M  END
> <PUBCHEM_COMPOUND_CID>
5281957

> <PUBCHEM_COMPOUND_CANONICALIZED>
1

> <PUBCHEM_CACTVS_COMPLEXITY>
1470

> <PUBCHEM_CACTVS_HBOND_ACCEPTOR>
7

> <PUBCHEM_CACTVS_HBOND_DONOR>
5

> <PUBCHEM_CACTVS_ROTATABLE_BOND>
12

> <PUBCHEM_CACTVS_SUBSKEYS>
AAADcfB/uAAAAAAAAAAAAAAAAAAAAWIECAAAAAAAAAAAAAABgAAAHgAQCAAADCjBngQCiJLJkgCoAyXyXACCgCAhAiAImaE4RNgIIHLA0JGEQAhklgDIyQeY2fOegAAAAAAAAAAAAAAAAAAAAAAAAAAAAA==

> <PUBCHEM_IUPAC_OPENEYE_NAME>
3-[(2Z,5Z)-2-[[3-(2-carboxyethyl)-4-methyl-5-[[(2R)-3-methyl-5-oxo-4-vinyl-1,2-dihydropyrrol-2-yl]methyl]-1H-pyrrol-2-yl]methylene]-4-methyl-5-[(4-methyl-5-oxo-3-vinyl-pyrrol-2-yl)methylene]pyrrol-3-yl]propanoic acid

> <PUBCHEM_IUPAC_CAS_NAME>
3-[(2Z,5Z)-2-[[3-(2-carboxyethyl)-5-[[(2R)-4-ethenyl-3-methyl-5-oxo-1,2-dihydropyrrol-2-yl]methyl]-4-methyl-1H-pyrrol-2-yl]methylidene]-5-[(3-ethenyl-4-methyl-5-oxo-2-pyrrolyl)methylidene]-4-methyl-3-pyrrolyl]propanoic acid

> <PUBCHEM_IUPAC_NAME>
3-[(2Z,5Z)-2-[[3-(2-carboxyethyl)-5-[[(2R)-4-ethenyl-3-methyl-5-oxo-1,2-dihydropyrrol-2-yl]methyl]-4-methyl-1H-pyrrol-2-yl]methylidene]-5-[(3-ethenyl-4-methyl-5-oxopyrrol-2-yl)methylidene]-4-methylpyrrol-3-yl]propanoic acid

> <PUBCHEM_IUPAC_SYSTEMATIC_NAME>
3-[(2Z,5Z)-2-[[5-[[(2R)-4-ethenyl-3-methyl-5-oxidanylidene-1,2-dihydropyrrol-2-yl]methyl]-3-(3-hydroxy-3-oxopropyl)-4-methyl-1H-pyrrol-2-yl]methylidene]-5-[(3-ethenyl-4-methyl-5-oxidanylidene-pyrrol-2-yl)methylidene]-4-methyl-pyrrol-3-yl]propanoic acid

> <PUBCHEM_IUPAC_TRADITIONAL_NAME>
3-[(2Z,5Z)-2-[[3-(2-carboxyethyl)-5-[[(2R)-5-keto-3-methyl-4-vinyl-3-pyrrolin-2-yl]methyl]-4-methyl-1H-pyrrol-2-yl]methylene]-5-[(5-keto-4-methyl-3-vinyl-pyrrol-2-yl)methylene]-4-methyl-3-pyrrolin-3-yl]propionic acid

> <PUBCHEM_IUPAC_INCHI>
InChI=1S/C33H36N4O6/c1-7-20-19(6)32(42)37-27(20)14-25-18(5)23(10-12-31(40)41)29(35-25)15-28-22(9-11-30(38)39)17(4)24(34-28)13-26-16(3)21(8-2)33(43)36-26/h7-8,14-15,26,34-35H,1-2,9-13H2,3-6H3,(H,36,43)(H,38,39)(H,40,41)/b25-14-,29-15-/t26-/m1/s1

> <PUBCHEM_IUPAC_INCHIKEY>
CGSPNIOREWHDGG-VDBYBEJGSA-N

> <PUBCHEM_XLOGP3_AA>
2.4

> <PUBCHEM_EXACT_MASS>
584.263485

> <PUBCHEM_MOLECULAR_FORMULA>
C33H36N4O6

> <PUBCHEM_MOLECULAR_WEIGHT>
584.66214

> <PUBCHEM_OPENEYE_CAN_SMILES>
CC1=C(C(=O)NC1CC2=C(C(=C(N2)C=C3C(=C(C(=CC4=NC(=O)C(=C4C=C)C)N3)C)CCC(=O)O)CCC(=O)O)C)C=C

> <PUBCHEM_OPENEYE_ISO_SMILES>
CC1=C(C(=O)N[C@@H]1CC2=C(C(=C(N2)/C=C\3/C(=C(/C(=C/C4=NC(=O)C(=C4C=C)C)/N3)C)CCC(=O)O)CCC(=O)O)C)C=C

> <PUBCHEM_CACTVS_TPSA>
161

> <PUBCHEM_MONOISOTOPIC_WEIGHT>
584.263485

> <PUBCHEM_TOTAL_CHARGE>
0

> <PUBCHEM_HEAVY_ATOM_COUNT>
43

> <PUBCHEM_ATOM_DEF_STEREO_COUNT>
1

> <PUBCHEM_ATOM_UDEF_STEREO_COUNT>
0

> <PUBCHEM_BOND_DEF_STEREO_COUNT>
2

> <PUBCHEM_BOND_UDEF_STEREO_COUNT>
0

> <PUBCHEM_ISOTOPIC_ATOM_COUNT>
0

> <PUBCHEM_COMPONENT_COUNT>
1

> <PUBCHEM_CACTVS_TAUTO_COUNT>
224

> <PUBCHEM_COORDINATE_TYPE>
1
5
255

> <PUBCHEM_BONDANNOTATIONS>
11  12  5
13  14  8
14  15  8
15  16  8
21  23  8
23  26  8
26  28  8
7  13  8
7  16  8
9  21  8
9  28  8

$$$$

