5282364
  -OEChem-07051213042D

 51 54  0     1  0  0  0  0  0999 V2000
    9.5141    2.1128    0.0000 O   0  0  0  0  0  0  0  0  0  0  0  0
   10.5960   -0.2303    0.0000 O   0  0  0  0  0  0  0  0  0  0  0  0
    2.8641   -2.1948    0.0000 O   0  0  0  0  0  0  0  0  0  0  0  0
    8.2572    0.8575    0.0000 C   0  0  1  0  0  0  0  0  0  0  0  0
    8.2572   -0.1425    0.0000 C   0  0  2  0  0  0  0  0  0  0  0  0
    7.3912   -0.6425    0.0000 C   0  0  1  0  0  0  0  0  0  0  0  0
    9.2034    1.1623    0.0000 C   0  0  2  0  0  0  0  0  0  0  0  0
    9.2034   -0.4472    0.0000 C   0  0  0  0  0  0  0  0  0  0  0  0
    9.7870    0.3575    0.0000 C   0  0  2  0  0  0  0  0  0  0  0  0
    6.5251   -0.1425    0.0000 C   0  0  2  0  0  0  0  0  0  0  0  0
    7.3912    1.3575    0.0000 C   0  0  0  0  0  0  0  0  0  0  0  0
    6.5251    0.8575    0.0000 C   0  0  0  0  0  0  0  0  0  0  0  0
    7.4072   -1.6840    0.0000 C   0  0  0  0  0  0  0  0  0  0  0  0
    8.2572    1.8575    0.0000 C   0  0  0  0  0  0  0  0  0  0  0  0
    5.6151   -0.6493    0.0000 C   0  0  0  0  0  0  0  0  0  0  0  0
    6.5092   -2.2117    0.0000 C   0  0  0  0  0  0  0  0  0  0  0  0
   10.5960    0.9453    0.0000 C   0  0  0  0  0  0  0  0  0  0  0  0
    5.6071   -1.6909    0.0000 C   0  0  0  0  0  0  0  0  0  0  0  0
    4.6883   -0.0852    0.0000 C   0  0  0  0  0  0  0  0  0  0  0  0
    4.6717   -2.2406    0.0000 C   0  0  0  0  0  0  0  0  0  0  0  0
    3.7404   -0.6132    0.0000 C   0  0  0  0  0  0  0  0  0  0  0  0
    3.7320   -1.6981    0.0000 C   0  0  0  0  0  0  0  0  0  0  0  0
    2.0000   -1.6915    0.0000 C   0  0  0  0  0  0  0  0  0  0  0  0
    8.3471   -0.9877    0.0000 H   0  0  0  0  0  0  0  0  0  0  0  0
    8.1305   -1.0618    0.0000 H   0  0  0  0  0  0  0  0  0  0  0  0
    9.8159    1.2585    0.0000 H   0  0  0  0  0  0  0  0  0  0  0  0
    8.9524   -1.0141    0.0000 H   0  0  0  0  0  0  0  0  0  0  0  0
    9.7408   -0.7564    0.0000 H   0  0  0  0  0  0  0  0  0  0  0  0
    7.2612    0.2825    0.0000 H   0  0  0  0  0  0  0  0  0  0  0  0
    7.7897    1.8325    0.0000 H   0  0  0  0  0  0  0  0  0  0  0  0
    6.9926    1.8325    0.0000 H   0  0  0  0  0  0  0  0  0  0  0  0
    6.3131    1.4401    0.0000 H   0  0  0  0  0  0  0  0  0  0  0  0
    5.9145    0.7499    0.0000 H   0  0  0  0  0  0  0  0  0  0  0  0
    7.6252   -2.2644    0.0000 H   0  0  0  0  0  0  0  0  0  0  0  0
    8.0164   -1.5685    0.0000 H   0  0  0  0  0  0  0  0  0  0  0  0
    8.8772    1.8575    0.0000 H   0  0  0  0  0  0  0  0  0  0  0  0
    8.2572    2.4775    0.0000 H   0  0  0  0  0  0  0  0  0  0  0  0
    7.6372    1.8575    0.0000 H   0  0  0  0  0  0  0  0  0  0  0  0
    6.1119   -2.6877    0.0000 H   0  0  0  0  0  0  0  0  0  0  0  0
    6.9101   -2.6846    0.0000 H   0  0  0  0  0  0  0  0  0  0  0  0
   10.9604    0.4437    0.0000 H   0  0  0  0  0  0  0  0  0  0  0  0
   11.0976    1.3097    0.0000 H   0  0  0  0  0  0  0  0  0  0  0  0
   10.2316    1.4469    0.0000 H   0  0  0  0  0  0  0  0  0  0  0  0
   10.1207    2.2406    0.0000 H   0  0  0  0  0  0  0  0  0  0  0  0
   11.1624    0.0219    0.0000 H   0  0  0  0  0  0  0  0  0  0  0  0
    4.7002    0.5347    0.0000 H   0  0  0  0  0  0  0  0  0  0  0  0
    4.6741   -2.8606    0.0000 H   0  0  0  0  0  0  0  0  0  0  0  0
    3.2071   -0.2970    0.0000 H   0  0  0  0  0  0  0  0  0  0  0  0
    2.3121   -1.1557    0.0000 H   0  0  0  0  0  0  0  0  0  0  0  0
    1.4643   -1.3794    0.0000 H   0  0  0  0  0  0  0  0  0  0  0  0
    1.6879   -2.2272    0.0000 H   0  0  0  0  0  0  0  0  0  0  0  0
  7  1  1  1  0  0  0
  1 44  1  0  0  0  0
  9  2  1  1  0  0  0
  2 45  1  0  0  0  0
  3 22  1  0  0  0  0
  3 23  1  0  0  0  0
  4  5  1  0  0  0  0
  4  7  1  0  0  0  0
  4 11  1  0  0  0  0
  4 14  1  1  0  0  0
  5  6  1  0  0  0  0
  5  8  1  0  0  0  0
  5 24  1  6  0  0  0
  6 10  1  0  0  0  0
  6 13  1  0  0  0  0
  6 25  1  1  0  0  0
  7  9  1  0  0  0  0
  7 26  1  0  0  0  0
  8  9  1  0  0  0  0
  8 27  1  0  0  0  0
  8 28  1  0  0  0  0
  9 17  1  0  0  0  0
 10 12  1  0  0  0  0
 10 15  1  0  0  0  0
 10 29  1  6  0  0  0
 11 12  1  0  0  0  0
 11 30  1  0  0  0  0
 11 31  1  0  0  0  0
 12 32  1  0  0  0  0
 12 33  1  0  0  0  0
 13 16  1  0  0  0  0
 13 34  1  0  0  0  0
 13 35  1  0  0  0  0
 14 36  1  0  0  0  0
 14 37  1  0  0  0  0
 14 38  1  0  0  0  0
 15 18  2  0  0  0  0
 15 19  1  0  0  0  0
 16 18  1  0  0  0  0
 16 39  1  0  0  0  0
 16 40  1  0  0  0  0
 17 41  1  0  0  0  0
 17 42  1  0  0  0  0
 17 43  1  0  0  0  0
 18 20  1  0  0  0  0
 19 21  2  0  0  0  0
 19 46  1  0  0  0  0
 20 22  2  0  0  0  0
 20 47  1  0  0  0  0
 21 22  1  0  0  0  0
 21 48  1  0  0  0  0
 23 49  1  0  0  0  0
 23 50  1  0  0  0  0
 23 51  1  0  0  0  0
M  END
> <PUBCHEM_COMPOUND_CID>
5282364

> <PUBCHEM_COMPOUND_CANONICALIZED>
1

> <PUBCHEM_CACTVS_COMPLEXITY>
466

> <PUBCHEM_CACTVS_HBOND_ACCEPTOR>
3

> <PUBCHEM_CACTVS_HBOND_DONOR>
2

> <PUBCHEM_CACTVS_ROTATABLE_BOND>
1

> <PUBCHEM_CACTVS_SUBSKEYS>
AAADceB4MAAAAAAAAAAAAAAAAAAAAYAAAAAwYMAAAAAAAGDBAAAAGgAACAAAD1SgmAIyBoAABgCAAiBCAAACCAAgIAAIiAAGCIgNNiKEMRqAcCAkwBEJqAeA4PQPoAABAAAQAADAAAYAACAAAYAADCAAAA==

> <PUBCHEM_IUPAC_OPENEYE_NAME>
(8R,9S,13S,14S,16S,17R)-3-methoxy-13,16-dimethyl-7,8,9,11,12,14,15,17-octahydro-6H-cyclopenta[a]phenanthrene-16,17-diol

> <PUBCHEM_IUPAC_CAS_NAME>
(8R,9S,13S,14S,16S,17R)-3-methoxy-13,16-dimethyl-7,8,9,11,12,14,15,17-octahydro-6H-cyclopenta[a]phenanthrene-16,17-diol

> <PUBCHEM_IUPAC_NAME>
(8R,9S,13S,14S,16S,17R)-3-methoxy-13,16-dimethyl-7,8,9,11,12,14,15,17-octahydro-6H-cyclopenta[a]phenanthrene-16,17-diol

> <PUBCHEM_IUPAC_SYSTEMATIC_NAME>
(8R,9S,13S,14S,16S,17R)-3-methoxy-13,16-dimethyl-7,8,9,11,12,14,15,17-octahydro-6H-cyclopenta[a]phenanthrene-16,17-diol

> <PUBCHEM_IUPAC_TRADITIONAL_NAME>
(8R,9S,13S,14S,16S,17R)-3-methoxy-13,16-dimethyl-7,8,9,11,12,14,15,17-octahydro-6H-cyclopenta[a]phenanthrene-16,17-diol

> <PUBCHEM_IUPAC_INCHI>
InChI=1S/C20H28O3/c1-19-9-8-15-14-7-5-13(23-3)10-12(14)4-6-16(15)17(19)11-20(2,22)18(19)21/h5,7,10,15-18,21-22H,4,6,8-9,11H2,1-3H3/t15-,16-,17+,18-,19+,20+/m1/s1

> <PUBCHEM_IUPAC_INCHIKEY>
OOVXZFCPCSVSEM-NADOGSGZSA-N

> <PUBCHEM_XLOGP3>
2.2

> <PUBCHEM_EXACT_MASS>
316.203845

> <PUBCHEM_MOLECULAR_FORMULA>
C20H28O3

> <PUBCHEM_MOLECULAR_WEIGHT>
316.43452

> <PUBCHEM_OPENEYE_CAN_SMILES>
CC12CCC3C(C1CC(C2O)(C)O)CCC4=C3C=CC(=C4)OC

> <PUBCHEM_OPENEYE_ISO_SMILES>
C[C@]12CC[C@H]3[C@H]([C@@H]1C[C@]([C@@H]2O)(C)O)CCC4=C3C=CC(=C4)OC

> <PUBCHEM_CACTVS_TPSA>
49.7

> <PUBCHEM_MONOISOTOPIC_WEIGHT>
316.203845

> <PUBCHEM_TOTAL_CHARGE>
0

> <PUBCHEM_HEAVY_ATOM_COUNT>
23

> <PUBCHEM_ATOM_DEF_STEREO_COUNT>
6

> <PUBCHEM_ATOM_UDEF_STEREO_COUNT>
0

> <PUBCHEM_BOND_DEF_STEREO_COUNT>
0

> <PUBCHEM_BOND_UDEF_STEREO_COUNT>
0

> <PUBCHEM_ISOTOPIC_ATOM_COUNT>
0

> <PUBCHEM_COMPONENT_COUNT>
1

> <PUBCHEM_CACTVS_TAUTO_COUNT>
1

> <PUBCHEM_COORDINATE_TYPE>
1
5
255

> <PUBCHEM_BONDANNOTATIONS>
7  1  5
10  29  6
15  18  8
15  19  8
18  20  8
19  21  8
9  2  5
20  22  8
21  22  8
4  14  5
5  24  6
6  25  5

$$$$

