254189
  -OEChem-07051213062D

 48 51  0     1  0  0  0  0  0999 V2000
    2.9176   -2.1583    0.0000 O   0  0  0  0  0  0  0  0  0  0  0  0
    9.1931    2.4286    0.0000 O   0  0  0  0  0  0  0  0  0  0  0  0
    3.8000   -0.6237    0.0000 C   0  0  1  0  0  0  0  0  0  0  0  0
    3.8000    0.3763    0.0000 C   0  0  1  0  0  0  0  0  0  0  0  0
    2.9061   -1.1584    0.0000 C   0  0  2  0  0  0  0  0  0  0  0  0
    4.6660   -1.1237    0.0000 C   0  0  0  0  0  0  0  0  0  0  0  0
    2.9061    0.9110    0.0000 C   0  0  0  0  0  0  0  0  0  0  0  0
    4.6660    0.8763    0.0000 C   0  0  0  0  0  0  0  0  0  0  0  0
    2.0000   -0.6445    0.0000 C   0  0  0  0  0  0  0  0  0  0  0  0
    2.0000    0.3971    0.0000 C   0  0  0  0  0  0  0  0  0  0  0  0
    5.5321   -0.6237    0.0000 C   0  0  0  0  0  0  0  0  0  0  0  0
    5.5321    0.3763    0.0000 C   0  0  0  0  0  0  0  0  0  0  0  0
    3.8000   -1.6237    0.0000 C   0  0  0  0  0  0  0  0  0  0  0  0
    4.6500    1.9178    0.0000 C   0  0  0  0  0  0  0  0  0  0  0  0
    6.4421    0.8832    0.0000 C   0  0  0  0  0  0  0  0  0  0  0  0
    5.5480    2.4456    0.0000 C   0  0  0  0  0  0  0  0  0  0  0  0
    6.4501    1.9248    0.0000 C   0  0  0  0  0  0  0  0  0  0  0  0
    7.3689    0.3191    0.0000 C   0  0  0  0  0  0  0  0  0  0  0  0
    7.3855    2.4745    0.0000 C   0  0  0  0  0  0  0  0  0  0  0  0
    8.3168    0.8470    0.0000 C   0  0  0  0  0  0  0  0  0  0  0  0
    8.3252    1.9320    0.0000 C   0  0  0  0  0  0  0  0  0  0  0  0
   10.0572    1.9253    0.0000 C   0  0  0  0  0  0  0  0  0  0  0  0
    3.8066    1.2263    0.0000 H   0  0  0  0  0  0  0  0  0  0  0  0
    2.3721   -1.4735    0.0000 H   0  0  0  0  0  0  0  0  0  0  0  0
    4.2675   -1.5986    0.0000 H   0  0  0  0  0  0  0  0  0  0  0  0
    5.0646   -1.5986    0.0000 H   0  0  0  0  0  0  0  0  0  0  0  0
    3.3107    1.3808    0.0000 H   0  0  0  0  0  0  0  0  0  0  0  0
    2.5124    1.3900    0.0000 H   0  0  0  0  0  0  0  0  0  0  0  0
    1.3891   -0.5384    0.0000 H   0  0  0  0  0  0  0  0  0  0  0  0
    1.7909   -1.2282    0.0000 H   0  0  0  0  0  0  0  0  0  0  0  0
    1.7909    0.9808    0.0000 H   0  0  0  0  0  0  0  0  0  0  0  0
    1.3891    0.2910    0.0000 H   0  0  0  0  0  0  0  0  0  0  0  0
    5.7441   -1.2063    0.0000 H   0  0  0  0  0  0  0  0  0  0  0  0
    6.1426   -0.5160    0.0000 H   0  0  0  0  0  0  0  0  0  0  0  0
    3.1800   -1.6237    0.0000 H   0  0  0  0  0  0  0  0  0  0  0  0
    3.8000   -2.2437    0.0000 H   0  0  0  0  0  0  0  0  0  0  0  0
    4.4200   -1.6237    0.0000 H   0  0  0  0  0  0  0  0  0  0  0  0
    4.4319    2.4982    0.0000 H   0  0  0  0  0  0  0  0  0  0  0  0
    4.0408    1.8023    0.0000 H   0  0  0  0  0  0  0  0  0  0  0  0
    5.9453    2.9215    0.0000 H   0  0  0  0  0  0  0  0  0  0  0  0
    5.1470    2.9185    0.0000 H   0  0  0  0  0  0  0  0  0  0  0  0
    2.3843   -2.4745    0.0000 H   0  0  0  0  0  0  0  0  0  0  0  0
    7.3570   -0.3008    0.0000 H   0  0  0  0  0  0  0  0  0  0  0  0
    7.3831    3.0945    0.0000 H   0  0  0  0  0  0  0  0  0  0  0  0
    8.8501    0.5308    0.0000 H   0  0  0  0  0  0  0  0  0  0  0  0
    9.7451    1.3896    0.0000 H   0  0  0  0  0  0  0  0  0  0  0  0
   10.5929    1.6132    0.0000 H   0  0  0  0  0  0  0  0  0  0  0  0
   10.3693    2.4610    0.0000 H   0  0  0  0  0  0  0  0  0  0  0  0
  5  1  1  1  0  0  0
  1 42  1  0  0  0  0
  2 21  1  0  0  0  0
  2 22  1  0  0  0  0
  3  4  1  0  0  0  0
  3  5  1  0  0  0  0
  3  6  1  0  0  0  0
  3 13  1  1  0  0  0
  4  7  1  0  0  0  0
  4  8  1  0  0  0  0
  4 23  1  6  0  0  0
  5  9  1  0  0  0  0
  5 24  1  0  0  0  0
  6 11  1  0  0  0  0
  6 25  1  0  0  0  0
  6 26  1  0  0  0  0
  7 10  1  0  0  0  0
  7 27  1  0  0  0  0
  7 28  1  0  0  0  0
  8 12  2  0  0  0  0
  8 14  1  0  0  0  0
  9 10  1  0  0  0  0
  9 29  1  0  0  0  0
  9 30  1  0  0  0  0
 10 31  1  0  0  0  0
 10 32  1  0  0  0  0
 11 12  1  0  0  0  0
 11 33  1  0  0  0  0
 11 34  1  0  0  0  0
 12 15  1  0  0  0  0
 13 35  1  0  0  0  0
 13 36  1  0  0  0  0
 13 37  1  0  0  0  0
 14 16  1  0  0  0  0
 14 38  1  0  0  0  0
 14 39  1  0  0  0  0
 15 17  2  0  0  0  0
 15 18  1  0  0  0  0
 16 17  1  0  0  0  0
 16 40  1  0  0  0  0
 16 41  1  0  0  0  0
 17 19  1  0  0  0  0
 18 20  2  0  0  0  0
 18 43  1  0  0  0  0
 19 21  2  0  0  0  0
 19 44  1  0  0  0  0
 20 21  1  0  0  0  0
 20 45  1  0  0  0  0
 22 46  1  0  0  0  0
 22 47  1  0  0  0  0
 22 48  1  0  0  0  0
M  END
> <PUBCHEM_COMPOUND_CID>
254189

> <PUBCHEM_COMPOUND_CANONICALIZED>
1

> <PUBCHEM_CACTVS_COMPLEXITY>
468

> <PUBCHEM_CACTVS_HBOND_ACCEPTOR>
2

> <PUBCHEM_CACTVS_HBOND_DONOR>
1

> <PUBCHEM_CACTVS_ROTATABLE_BOND>
1

> <PUBCHEM_CACTVS_SUBSKEYS>
AAADceB4MAAAAAAAAAAAAAAAAAAAAAAAAAAwYIEAAAAAAADBAAAAGgAACAAADxSgmAIyBoAABgCAAiBCAAACCAAgIAAIiAAGCIgMNiKEMRqAcCAkwBEIqAeAwPAPoAABAAAQAABAAAIAADAAAAAAAAAAAA==

> <PUBCHEM_IUPAC_OPENEYE_NAME>
(1S,4aS,12aS)-8-methoxy-12a-methyl-2,3,4,4a,5,6,11,12-octahydro-1H-chrysen-1-ol

> <PUBCHEM_IUPAC_CAS_NAME>
(1S,4aS,12aS)-8-methoxy-12a-methyl-2,3,4,4a,5,6,11,12-octahydro-1H-chrysen-1-ol

> <PUBCHEM_IUPAC_NAME>
(1S,4aS,12aS)-8-methoxy-12a-methyl-2,3,4,4a,5,6,11,12-octahydro-1H-chrysen-1-ol

> <PUBCHEM_IUPAC_SYSTEMATIC_NAME>
(1S,4aS,12aS)-8-methoxy-12a-methyl-2,3,4,4a,5,6,11,12-octahydro-1H-chrysen-1-ol

> <PUBCHEM_IUPAC_TRADITIONAL_NAME>
(1S,4aS,12aS)-8-methoxy-12a-methyl-2,3,4,4a,5,6,11,12-octahydro-1H-chrysen-1-ol

> <PUBCHEM_IUPAC_INCHI>
InChI=1S/C20H26O2/c1-20-11-10-16-15-9-7-14(22-2)12-13(15)6-8-17(16)18(20)4-3-5-19(20)21/h7,9,12,18-19,21H,3-6,8,10-11H2,1-2H3/t18-,19-,20-/m0/s1

> <PUBCHEM_IUPAC_INCHIKEY>
NVNOGUBWHDSNGO-UFYCRDLUSA-N

> <PUBCHEM_XLOGP3_AA>
3.6

> <PUBCHEM_EXACT_MASS>
298.19328

> <PUBCHEM_MOLECULAR_FORMULA>
C20H26O2

> <PUBCHEM_MOLECULAR_WEIGHT>
298.41924

> <PUBCHEM_OPENEYE_CAN_SMILES>
CC12CCC3=C(C1CCCC2O)CCC4=C3C=CC(=C4)OC

> <PUBCHEM_OPENEYE_ISO_SMILES>
C[C@]12CCC3=C([C@@H]1CCC[C@@H]2O)CCC4=C3C=CC(=C4)OC

> <PUBCHEM_CACTVS_TPSA>
29.5

> <PUBCHEM_MONOISOTOPIC_WEIGHT>
298.19328

> <PUBCHEM_TOTAL_CHARGE>
0

> <PUBCHEM_HEAVY_ATOM_COUNT>
22

> <PUBCHEM_ATOM_DEF_STEREO_COUNT>
3

> <PUBCHEM_ATOM_UDEF_STEREO_COUNT>
0

> <PUBCHEM_BOND_DEF_STEREO_COUNT>
0

> <PUBCHEM_BOND_UDEF_STEREO_COUNT>
0

> <PUBCHEM_ISOTOPIC_ATOM_COUNT>
0

> <PUBCHEM_COMPONENT_COUNT>
1

> <PUBCHEM_CACTVS_TAUTO_COUNT>
1

> <PUBCHEM_COORDINATE_TYPE>
1
5
255

> <PUBCHEM_BONDANNOTATIONS>
5  1  5
15  17  8
15  18  8
17  19  8
18  20  8
19  21  8
20  21  8
3  13  5
4  23  6

$$$$

