4032
  -OEChem-06251223492D

 33 34  0     1  0  0  0  0  0999 V2000
    3.7920   -1.7002    0.0000 N   0  0  0  0  0  0  0  0  0  0  0  0
    2.9336    0.0995    0.0000 C   0  0  0  0  0  0  0  0  0  0  0  0
    3.4336   -0.7666    0.0000 C   0  0  3  0  0  0  0  0  0  0  0  0
    5.4244    1.1994    0.0000 C   0  0  3  0  0  0  0  0  0  0  0  0
    5.1656    0.2334    0.0000 C   0  0  3  0  0  0  0  0  0  0  0  0
    4.6878    2.1820    0.0000 C   0  0  0  0  0  0  0  0  0  0  0  0
    7.2564    0.4405    0.0000 C   0  0  0  0  0  0  0  0  0  0  0  0
    6.9976   -0.5254    0.0000 C   0  0  0  0  0  0  0  0  0  0  0  0
    2.3043    0.8766    0.0000 C   0  0  0  0  0  0  0  0  0  0  0  0
    2.0000   -0.2589    0.0000 C   0  0  0  0  0  0  0  0  0  0  0  0
    2.6564   -1.3959    0.0000 C   0  0  0  0  0  0  0  0  0  0  0  0
    4.7796   -1.8566    0.0000 C   0  0  0  0  0  0  0  0  0  0  0  0
    5.4316    0.5794    0.0000 H   0  0  0  0  0  0  0  0  0  0  0  0
    5.2062   -0.3852    0.0000 H   0  0  0  0  0  0  0  0  0  0  0  0
    5.0056    2.7143    0.0000 H   0  0  0  0  0  0  0  0  0  0  0  0
    4.0747    2.2739    0.0000 H   0  0  0  0  0  0  0  0  0  0  0  0
    7.8477    0.2541    0.0000 H   0  0  0  0  0  0  0  0  0  0  0  0
    7.4684    1.0232    0.0000 H   0  0  0  0  0  0  0  0  0  0  0  0
    6.7855   -1.1080    0.0000 H   0  0  0  0  0  0  0  0  0  0  0  0
    7.5889   -0.7118    0.0000 H   0  0  0  0  0  0  0  0  0  0  0  0
    1.7778    0.3199    0.0000 H   0  0  0  0  0  0  0  0  0  0  0  0
    1.4212   -0.4811    0.0000 H   0  0  0  0  0  0  0  0  0  0  0  0
    2.2222   -0.8377    0.0000 H   0  0  0  0  0  0  0  0  0  0  0  0
    2.7861    1.2668    0.0000 H   0  0  0  0  0  0  0  0  0  0  0  0
    1.9141    1.3584    0.0000 H   0  0  0  0  0  0  0  0  0  0  0  0
    1.8224    0.4864    0.0000 H   0  0  0  0  0  0  0  0  0  0  0  0
    2.2663   -0.9141    0.0000 H   0  0  0  0  0  0  0  0  0  0  0  0
    2.1746   -1.7861    0.0000 H   0  0  0  0  0  0  0  0  0  0  0  0
    3.0466   -1.8777    0.0000 H   0  0  0  0  0  0  0  0  0  0  0  0
    3.4018   -2.1820    0.0000 H   0  0  0  0  0  0  0  0  0  0  0  0
    4.6826   -2.4690    0.0000 H   0  0  0  0  0  0  0  0  0  0  0  0
    5.3920   -1.9536    0.0000 H   0  0  0  0  0  0  0  0  0  0  0  0
    4.8766   -1.2442    0.0000 H   0  0  0  0  0  0  0  0  0  0  0  0
  1  3  1  0  0  0  0
  1 12  1  0  0  0  0
  1 30  1  0  0  0  0
  2  3  1  0  0  0  0
  2  4  1  0  0  0  0
  2  9  1  0  0  0  0
  2 10  1  0  0  0  0
  3  5  1  0  0  0  0
  3 11  1  0  0  0  0
  4  6  1  0  0  0  0
  4  7  1  0  0  0  0
  4 13  1  0  0  0  0
  5  6  1  0  0  0  0
  5  8  1  0  0  0  0
  5 14  1  0  0  0  0
  6 15  1  0  0  0  0
  6 16  1  0  0  0  0
  7  8  1  0  0  0  0
  7 17  1  0  0  0  0
  7 18  1  0  0  0  0
  8 19  1  0  0  0  0
  8 20  1  0  0  0  0
  9 24  1  0  0  0  0
  9 25  1  0  0  0  0
  9 26  1  0  0  0  0
 10 21  1  0  0  0  0
 10 22  1  0  0  0  0
 10 23  1  0  0  0  0
 11 27  1  0  0  0  0
 11 28  1  0  0  0  0
 11 29  1  0  0  0  0
 12 31  1  0  0  0  0
 12 32  1  0  0  0  0
 12 33  1  0  0  0  0
M  END
> <PUBCHEM_COMPOUND_CID>
4032

> <PUBCHEM_COMPOUND_CANONICALIZED>
1

> <PUBCHEM_CACTVS_COMPLEXITY>
197

> <PUBCHEM_CACTVS_HBOND_ACCEPTOR>
1

> <PUBCHEM_CACTVS_HBOND_DONOR>
1

> <PUBCHEM_CACTVS_ROTATABLE_BOND>
1

> <PUBCHEM_CACTVS_SUBSKEYS>
AAADceByAAAAAAAAAAAAAAAAAAAAAYMAAAAwAAAAAAAAAAAAAAAAHAAQAAAAD4iBAAQCAALAAAAAAAAAAAAAAAAAAAAAAIAIAAAAAAIAgAAEAAAAEAAAAAEQgMAPgAAAAAAAAAAAAASAACQAASAACQAAAA==

> <PUBCHEM_IUPAC_OPENEYE_NAME>
N,2,3,3-tetramethylnorbornan-2-amine

> <PUBCHEM_IUPAC_CAS_NAME>
N,2,2,3-tetramethyl-3-bicyclo[2.2.1]heptanamine

> <PUBCHEM_IUPAC_NAME>
N,2,2,3-tetramethylbicyclo[2.2.1]heptan-3-amine

> <PUBCHEM_IUPAC_SYSTEMATIC_NAME>
N,2,2,3-tetramethylbicyclo[2.2.1]heptan-3-amine

> <PUBCHEM_IUPAC_TRADITIONAL_NAME>
methyl-(2,3,3-trimethylnorbornan-2-yl)amine

> <PUBCHEM_IUPAC_INCHI>
InChI=1S/C11H21N/c1-10(2)8-5-6-9(7-8)11(10,3)12-4/h8-9,12H,5-7H2,1-4H3

> <PUBCHEM_IUPAC_INCHIKEY>
IMYZQPCYWPFTAG-UHFFFAOYSA-N

> <PUBCHEM_XLOGP3_AA>
2.6

> <PUBCHEM_EXACT_MASS>
167.1674

> <PUBCHEM_MOLECULAR_FORMULA>
C11H21N

> <PUBCHEM_MOLECULAR_WEIGHT>
167.29114

> <PUBCHEM_OPENEYE_CAN_SMILES>
CC1(C2CCC(C2)C1(C)NC)C

> <PUBCHEM_OPENEYE_ISO_SMILES>
CC1(C2CCC(C2)C1(C)NC)C

> <PUBCHEM_CACTVS_TPSA>
12

> <PUBCHEM_MONOISOTOPIC_WEIGHT>
167.1674

> <PUBCHEM_TOTAL_CHARGE>
0

> <PUBCHEM_HEAVY_ATOM_COUNT>
12

> <PUBCHEM_ATOM_DEF_STEREO_COUNT>
0

> <PUBCHEM_ATOM_UDEF_STEREO_COUNT>
3

> <PUBCHEM_BOND_DEF_STEREO_COUNT>
0

> <PUBCHEM_BOND_UDEF_STEREO_COUNT>
0

> <PUBCHEM_ISOTOPIC_ATOM_COUNT>
0

> <PUBCHEM_COMPONENT_COUNT>
1

> <PUBCHEM_CACTVS_TAUTO_COUNT>
1

> <PUBCHEM_COORDINATE_TYPE>
1
5
255

> <PUBCHEM_BONDANNOTATIONS>
4  2  3
3  11  3
5  6  3

$$$$

