248783
  -OEChem-07051213062D

 57 60  0     1  0  0  0  0  0999 V2000
    3.8114   -3.3582    0.0000 F   0  0  0  0  0  0  0  0  0  0  0  0
    8.6500    1.9952    0.0000 O   0  0  0  0  0  0  0  0  0  0  0  0
    2.0000   -2.3124    0.0000 O   0  0  0  0  0  0  0  0  0  0  0  0
   10.2963    1.4572    0.0000 O   0  0  0  0  0  0  0  0  0  0  0  0
    7.3931   -0.2600    0.0000 C   0  0  2  0  0  0  0  0  0  0  0  0
    7.3931    0.7400    0.0000 C   0  0  2  0  0  0  0  0  0  0  0  0
    6.5271   -0.7600    0.0000 C   0  0  1  0  0  0  0  0  0  0  0  0
    5.6610   -0.2600    0.0000 C   0  0  1  0  0  0  0  0  0  0  0  0
    4.7510   -0.7669    0.0000 C   0  0  2  0  0  0  0  0  0  0  0  0
    6.5271    1.2400    0.0000 C   0  0  0  0  0  0  0  0  0  0  0  0
    5.6610    0.7400    0.0000 C   0  0  0  0  0  0  0  0  0  0  0  0
    8.3393    1.0447    0.0000 C   0  0  2  0  0  0  0  0  0  0  0  0
    8.3393   -0.5648    0.0000 C   0  0  0  0  0  0  0  0  0  0  0  0
    6.5431   -1.8015    0.0000 C   0  0  0  0  0  0  0  0  0  0  0  0
    8.9229    0.2400    0.0000 C   0  0  0  0  0  0  0  0  0  0  0  0
    4.7430   -1.8085    0.0000 C   0  0  0  0  0  0  0  0  0  0  0  0
    7.3931    1.7400    0.0000 C   0  0  0  0  0  0  0  0  0  0  0  0
    5.6451   -2.3293    0.0000 C   0  0  0  0  0  0  0  0  0  0  0  0
    3.8242   -0.2028    0.0000 C   0  0  0  0  0  0  0  0  0  0  0  0
    4.7587    0.2331    0.0000 C   0  0  0  0  0  0  0  0  0  0  0  0
    2.8763   -0.7307    0.0000 C   0  0  0  0  0  0  0  0  0  0  0  0
    3.8076   -2.3582    0.0000 C   0  0  0  0  0  0  0  0  0  0  0  0
    2.8680   -1.8157    0.0000 C   0  0  0  0  0  0  0  0  0  0  0  0
    9.6285    2.2014    0.0000 C   0  0  0  0  0  0  0  0  0  0  0  0
    9.9391    3.1520    0.0000 C   0  0  0  0  0  0  0  0  0  0  0  0
   10.9176    3.3582    0.0000 C   0  0  0  0  0  0  0  0  0  0  0  0
    7.4830   -1.1052    0.0000 H   0  0  0  0  0  0  0  0  0  0  0  0
    7.2664   -1.1793    0.0000 H   0  0  0  0  0  0  0  0  0  0  0  0
    6.3972    0.1650    0.0000 H   0  0  0  0  0  0  0  0  0  0  0  0
    6.9256    1.7149    0.0000 H   0  0  0  0  0  0  0  0  0  0  0  0
    6.1285    1.7149    0.0000 H   0  0  0  0  0  0  0  0  0  0  0  0
    5.4490    1.3226    0.0000 H   0  0  0  0  0  0  0  0  0  0  0  0
    5.0504    0.6323    0.0000 H   0  0  0  0  0  0  0  0  0  0  0  0
    7.9018    1.4841    0.0000 H   0  0  0  0  0  0  0  0  0  0  0  0
    8.0883   -1.1317    0.0000 H   0  0  0  0  0  0  0  0  0  0  0  0
    8.8767   -0.8740    0.0000 H   0  0  0  0  0  0  0  0  0  0  0  0
    6.7612   -2.3819    0.0000 H   0  0  0  0  0  0  0  0  0  0  0  0
    7.1523   -1.6860    0.0000 H   0  0  0  0  0  0  0  0  0  0  0  0
    9.3838   -0.1748    0.0000 H   0  0  0  0  0  0  0  0  0  0  0  0
    9.3838    0.6547    0.0000 H   0  0  0  0  0  0  0  0  0  0  0  0
    8.0131    1.7400    0.0000 H   0  0  0  0  0  0  0  0  0  0  0  0
    7.3931    2.3600    0.0000 H   0  0  0  0  0  0  0  0  0  0  0  0
    6.7731    1.7400    0.0000 H   0  0  0  0  0  0  0  0  0  0  0  0
    5.2478   -2.8052    0.0000 H   0  0  0  0  0  0  0  0  0  0  0  0
    6.0460   -2.8022    0.0000 H   0  0  0  0  0  0  0  0  0  0  0  0
    4.2324    0.2639    0.0000 H   0  0  0  0  0  0  0  0  0  0  0  0
    3.4343    0.2793    0.0000 H   0  0  0  0  0  0  0  0  0  0  0  0
    5.3787    0.2283    0.0000 H   0  0  0  0  0  0  0  0  0  0  0  0
    4.7635    0.8531    0.0000 H   0  0  0  0  0  0  0  0  0  0  0  0
    4.1388    0.2379    0.0000 H   0  0  0  0  0  0  0  0  0  0  0  0
    2.6718   -0.1454    0.0000 H   0  0  0  0  0  0  0  0  0  0  0  0
    2.2647   -0.8321    0.0000 H   0  0  0  0  0  0  0  0  0  0  0  0
    9.9186    3.7716    0.0000 H   0  0  0  0  0  0  0  0  0  0  0  0
    9.3253    3.2393    0.0000 H   0  0  0  0  0  0  0  0  0  0  0  0
   11.0455    2.7515    0.0000 H   0  0  0  0  0  0  0  0  0  0  0  0
   11.5243    3.4860    0.0000 H   0  0  0  0  0  0  0  0  0  0  0  0
   10.7898    3.9649    0.0000 H   0  0  0  0  0  0  0  0  0  0  0  0
  1 22  1  0  0  0  0
 12  2  1  1  0  0  0
  2 24  1  0  0  0  0
  3 23  2  0  0  0  0
  4 24  2  0  0  0  0
  5  6  1  0  0  0  0
  5  7  1  0  0  0  0
  5 13  1  0  0  0  0
  5 27  1  6  0  0  0
  6 10  1  0  0  0  0
  6 12  1  0  0  0  0
  6 17  1  1  0  0  0
  7  8  1  0  0  0  0
  7 14  1  0  0  0  0
  7 28  1  1  0  0  0
  8  9  1  0  0  0  0
  8 11  1  0  0  0  0
  8 29  1  6  0  0  0
  9 16  1  0  0  0  0
  9 19  1  0  0  0  0
  9 20  1  1  0  0  0
 10 11  1  0  0  0  0
 10 30  1  0  0  0  0
 10 31  1  0  0  0  0
 11 32  1  0  0  0  0
 11 33  1  0  0  0  0
 12 15  1  0  0  0  0
 12 34  1  0  0  0  0
 13 15  1  0  0  0  0
 13 35  1  0  0  0  0
 13 36  1  0  0  0  0
 14 18  1  0  0  0  0
 14 37  1  0  0  0  0
 14 38  1  0  0  0  0
 15 39  1  0  0  0  0
 15 40  1  0  0  0  0
 16 18  1  0  0  0  0
 16 22  2  0  0  0  0
 17 41  1  0  0  0  0
 17 42  1  0  0  0  0
 17 43  1  0  0  0  0
 18 44  1  0  0  0  0
 18 45  1  0  0  0  0
 19 21  1  0  0  0  0
 19 46  1  0  0  0  0
 19 47  1  0  0  0  0
 20 48  1  0  0  0  0
 20 49  1  0  0  0  0
 20 50  1  0  0  0  0
 21 23  1  0  0  0  0
 21 51  1  0  0  0  0
 21 52  1  0  0  0  0
 22 23  1  0  0  0  0
 24 25  1  0  0  0  0
 25 26  1  0  0  0  0
 25 53  1  0  0  0  0
 25 54  1  0  0  0  0
 26 55  1  0  0  0  0
 26 56  1  0  0  0  0
 26 57  1  0  0  0  0
M  END
> <PUBCHEM_COMPOUND_CID>
248783

> <PUBCHEM_COMPOUND_CANONICALIZED>
1

> <PUBCHEM_CACTVS_COMPLEXITY>
668

> <PUBCHEM_CACTVS_HBOND_ACCEPTOR>
4

> <PUBCHEM_CACTVS_HBOND_DONOR>
0

> <PUBCHEM_CACTVS_ROTATABLE_BOND>
3

> <PUBCHEM_CACTVS_SUBSKEYS>
AAADceB4MQAAAAAAAAAAAAAAAAAAAYAAAAAwYIAAAAAAAGDAAAAAGwAAAAAADxSggAICCAAABACIAoDQCAAAAAAgAAAACAEAAEgAABIAAAACAAAEgAAIAQOIyPCPgAAAAAAAAACAAAQAACAAAIAADAAAAA==

> <PUBCHEM_IUPAC_OPENEYE_NAME>
[(8R,9S,10R,13S,14S,17S)-4-fluoro-10,13-dimethyl-3-oxo-1,2,6,7,8,9,11,12,14,15,16,17-dodecahydrocyclopenta[a]phenanthren-17-yl] propanoate

> <PUBCHEM_IUPAC_CAS_NAME>
propanoic acid [(8R,9S,10R,13S,14S,17S)-4-fluoro-10,13-dimethyl-3-oxo-1,2,6,7,8,9,11,12,14,15,16,17-dodecahydrocyclopenta[a]phenanthren-17-yl] ester

> <PUBCHEM_IUPAC_NAME>
[(8R,9S,10R,13S,14S,17S)-4-fluoro-10,13-dimethyl-3-oxo-1,2,6,7,8,9,11,12,14,15,16,17-dodecahydrocyclopenta[a]phenanthren-17-yl] propanoate

> <PUBCHEM_IUPAC_SYSTEMATIC_NAME>
[(8R,9S,10R,13S,14S,17S)-4-fluoranyl-10,13-dimethyl-3-oxidanylidene-1,2,6,7,8,9,11,12,14,15,16,17-dodecahydrocyclopenta[a]phenanthren-17-yl] propanoate

> <PUBCHEM_IUPAC_TRADITIONAL_NAME>
propionic acid [(8R,9S,10R,13S,14S,17S)-4-fluoro-3-keto-10,13-dimethyl-1,2,6,7,8,9,11,12,14,15,16,17-dodecahydrocyclopenta[a]phenanthren-17-yl] ester

> <PUBCHEM_IUPAC_INCHI>
InChI=1S/C22H31FO3/c1-4-19(25)26-18-8-7-14-13-5-6-16-20(23)17(24)10-12-21(16,2)15(13)9-11-22(14,18)3/h13-15,18H,4-12H2,1-3H3/t13-,14-,15-,18-,21+,22-/m0/s1

> <PUBCHEM_IUPAC_INCHIKEY>
LUKFSWINVWQMNF-DXODLALXSA-N

> <PUBCHEM_XLOGP3>
4.7

> <PUBCHEM_EXACT_MASS>
362.225723

> <PUBCHEM_MOLECULAR_FORMULA>
C22H31FO3

> <PUBCHEM_MOLECULAR_WEIGHT>
362.478143

> <PUBCHEM_OPENEYE_CAN_SMILES>
CCC(=O)OC1CCC2C1(CCC3C2CCC4=C(C(=O)CCC34C)F)C

> <PUBCHEM_OPENEYE_ISO_SMILES>
CCC(=O)O[C@H]1CC[C@@H]2[C@@]1(CC[C@H]3[C@H]2CCC4=C(C(=O)CC[C@]34C)F)C

> <PUBCHEM_CACTVS_TPSA>
43.4

> <PUBCHEM_MONOISOTOPIC_WEIGHT>
362.225723

> <PUBCHEM_TOTAL_CHARGE>
0

> <PUBCHEM_HEAVY_ATOM_COUNT>
26

> <PUBCHEM_ATOM_DEF_STEREO_COUNT>
6

> <PUBCHEM_ATOM_UDEF_STEREO_COUNT>
0

> <PUBCHEM_BOND_DEF_STEREO_COUNT>
0

> <PUBCHEM_BOND_UDEF_STEREO_COUNT>
0

> <PUBCHEM_ISOTOPIC_ATOM_COUNT>
0

> <PUBCHEM_COMPONENT_COUNT>
1

> <PUBCHEM_CACTVS_TAUTO_COUNT>
5

> <PUBCHEM_COORDINATE_TYPE>
1
5
255

> <PUBCHEM_BONDANNOTATIONS>
12  2  5
5  27  6
6  17  5
7  28  5
8  29  6
9  20  5

$$$$

