   Color/Form
        Colorless liquid
   from [1]HSDB

   Boiling Point
        183.3 deg C
   from [2]HSDB

   Melting Point
        -87.9 deg C
   from [3]HSDB

   Critical Temperature and Pressure
        Critical temperature: 720 K; critical pressure 3.65 MPa
   from [4]HSDB

   Density/Specific Gravity
        0.8601 g/cu cm @ 20 deg C
   from [5]HSDB

   Heat of Combustion
        -5872.50 kJ/mol @ 25 deg C
   from [6]HSDB

   Heat of Vaporization
        51.36 kJ/mol @ 25 deg C; 38.87 kJ/mol @ 183.31 deg C
   from [7]HSDB

   Octanol/Water Partition Coefficient
        log Kow = 4.38
   from [8]HSDB

   Solubilities

     * Miscible with alcohol, ether, benzene
     * In water, 11.8 mg/L @ 25 deg C

   from [9]HSDB

   Spectral Properties

     * Index of refraction = 1.4898 @ 20 deg C
     * MASS: 60800 (NIST/EPA/MSDC Mass Spectral Database 1990 version);
       1051 (Atlas of Mass Spectral Data, John Wiley & Sons, New York)
     * IR: 3597 (Coblentz Society Spectral Collection)
     * UV: 1739 (Sadtler Research Laboratories Spectral Collection)
     * RAMAN: 68 (Dollish et al., Characteristic Raman Frequencies of
       Organic Compounds, John Wiley & Sons, New York)
     * 1H NMR: 3425 (Sadtler Research Laboratories Spectral Collection)
     * 13C NMR: 380 (Johnson and Jankowski, Carbon-13 NMR Spectra, John
       Wiley & Sons, New York)

   from [10]HSDB

   Surface Tension
        0.02923 N/m @ 20 deg C; 0.02822 N/m @ 30 deg C
   from [11]HSDB

   Vapor Density
        4.6 (Air=1)
   from [12]HSDB

   Vapor Pressure
        1.06 mm Hg @ 25 deg C
   from [13]HSDB

   Viscosity
        0.950 mPa-s @ 25 deg C; 0.683 mPa-s @ 50 deg C; 0.515 mPa-s @ 75
   deg C
   from [14]HSDB

   Other Chemical/Physical Properties

     * Standard enthalpy of formation (liquid): -63.2 kJ/mol; molar heat
       capacity: 243.4 J/K-mol
     * Enthalpy of fusion: 11.22 kJ/mol
     * Relative permitivity: 2.359 @ 293.2 K (20 deg C)
     * Wt/vol conversion: 5.49 mg/cu m = 1 ppm @ 1 atm
     * Henry's Law constant = 0.016 atm-cu m/mol @ 25 deg C /Estimated/
     * Hydroxyl radical reaction rate constant = 8.7X10-12 cu
       cm/molecule-sec @ 25 deg C /Estimated/

   from [15]HSDB

   Computed Properties
   Molecular Weight                  134.21816 [g/mol]
   Molecular Formula                 C[10]H[14]
   XLogP3                            4.4
   H-Bond Donor                      0
   H-Bond Acceptor                   0
   Rotatable Bond Count              3
   Exact Mass                        134.10955
   MonoIsotopic Mass                 134.10955
   Topological Polar Surface Area    0
   Heavy Atom Count                  10
   Formal Charge                     0
   Complexity                        70.1
   Isotope Atom Count                0
   Defined Atom Stereocenter Count   0
   Undefined Atom Stereocenter Count 0
   Defined Bond Stereocenter Count   0
   Undefined Bond Stereocenter Count 0
   Covalently-Bonded Unit Count      1
   Feature 3D Hydrophobe Count       1
   Feature 3D Ring Count             1
   Effective Rotor Count             3
   Conformer Sampling RMSD           0.6
   CID Conformer Count               [16]5

References

   1. http://toxnet.nlm.nih.gov/cgi-bin/sis/search/r?dbs+hsdb:@term+@rn+@rel+104-51-8
   2. http://toxnet.nlm.nih.gov/cgi-bin/sis/search/r?dbs+hsdb:@term+@rn+@rel+104-51-8
   3. http://toxnet.nlm.nih.gov/cgi-bin/sis/search/r?dbs+hsdb:@term+@rn+@rel+104-51-8
   4. http://toxnet.nlm.nih.gov/cgi-bin/sis/search/r?dbs+hsdb:@term+@rn+@rel+104-51-8
   5. http://toxnet.nlm.nih.gov/cgi-bin/sis/search/r?dbs+hsdb:@term+@rn+@rel+104-51-8
   6. http://toxnet.nlm.nih.gov/cgi-bin/sis/search/r?dbs+hsdb:@term+@rn+@rel+104-51-8
   7. http://toxnet.nlm.nih.gov/cgi-bin/sis/search/r?dbs+hsdb:@term+@rn+@rel+104-51-8
   8. http://toxnet.nlm.nih.gov/cgi-bin/sis/search/r?dbs+hsdb:@term+@rn+@rel+104-51-8
   9. http://toxnet.nlm.nih.gov/cgi-bin/sis/search/r?dbs+hsdb:@term+@rn+@rel+104-51-8
  10. http://toxnet.nlm.nih.gov/cgi-bin/sis/search/r?dbs+hsdb:@term+@rn+@rel+104-51-8
  11. http://toxnet.nlm.nih.gov/cgi-bin/sis/search/r?dbs+hsdb:@term+@rn+@rel+104-51-8
  12. http://toxnet.nlm.nih.gov/cgi-bin/sis/search/r?dbs+hsdb:@term+@rn+@rel+104-51-8
  13. http://toxnet.nlm.nih.gov/cgi-bin/sis/search/r?dbs+hsdb:@term+@rn+@rel+104-51-8
  14. http://toxnet.nlm.nih.gov/cgi-bin/sis/search/r?dbs+hsdb:@term+@rn+@rel+104-51-8
  15. http://toxnet.nlm.nih.gov/cgi-bin/sis/search/r?dbs+hsdb:@term+@rn+@rel+104-51-8
  16. http://pubchem.ncbi.nlm.nih.gov/vw3d/vw3d.cgi?cid=7705
