   Color/Form

     * WHITE TO OFF-WHITE POWDER
     * Crystals

   from [1]HSDB

   Odor
        ODORLESS
   from [2]HSDB

   Melting Point
        208-213 deg C
   from [3]HSDB

   Octanol/Water Partition Coefficient
        log Kow = 1.27 (est)
   from [4]HSDB

   Solubilities

     * SPARINGLY SOL IN ALC, METHANOL, ETHYL ACETATE. SLIGHTLY SOL IN
       CHLOROFORM, ETHER, ETHYLENE DICHLORIDE. VERY SLIGHTLY SOL IN
       BENZENE.
     * In water, 1.46X10+2 mg/L at 25 deg C (est)

   from [5]HSDB

   Spectral Properties
        Specific optical rotation: +92 deg
   from [6]HSDB

   Vapor Pressure
        1.62X10-13 mm Hg at 25 deg C (est)
   from [7]HSDB

   Other Chemical/Physical Properties

     * Crystals. MP: 235-238 deg C /21-Acetate/
     * Henry's Law constant = 5.39X10-8 atm-cu m/mole at 25 deg C (est)
     * Hydroxyl radical reaction rate constant = 6.31X10-11 cu
       cm/molec-sec at 25 deg C (est)

   from [8]HSDB

   Computed Properties
   Molecular Weight                  378.434483 [g/mol]
   Molecular Formula                 C[21]H[27]FO[5]
   XLogP3                            1.4
   H-Bond Donor                      3
   H-Bond Acceptor                   6
   Rotatable Bond Count              2
   Tautomer Count                    3
   Exact Mass                        378.184252
   MonoIsotopic Mass                 378.184252
   Topological Polar Surface Area    94.8
   Heavy Atom Count                  27
   Formal Charge                     0
   Complexity                        760
   Isotope Atom Count                0
   Defined Atom Stereocenter Count   8
   Undefined Atom Stereocenter Count 0
   Defined Bond Stereocenter Count   0
   Undefined Bond Stereocenter Count 0
   Covalently-Bonded Unit Count      1
   Feature 3D Acceptor Count         5
   Feature 3D Donor Count            3
   Feature 3D Ring Count             4
   Effective Rotor Count             3.4
   Conformer Sampling RMSD           0.8
   CID Conformer Count               [9]2

References

   1. http://toxnet.nlm.nih.gov/cgi-bin/sis/search/r?dbs+hsdb:@term+@rn+@rel+53-34-9
   2. http://toxnet.nlm.nih.gov/cgi-bin/sis/search/r?dbs+hsdb:@term+@rn+@rel+53-34-9
   3. http://toxnet.nlm.nih.gov/cgi-bin/sis/search/r?dbs+hsdb:@term+@rn+@rel+53-34-9
   4. http://toxnet.nlm.nih.gov/cgi-bin/sis/search/r?dbs+hsdb:@term+@rn+@rel+53-34-9
   5. http://toxnet.nlm.nih.gov/cgi-bin/sis/search/r?dbs+hsdb:@term+@rn+@rel+53-34-9
   6. http://toxnet.nlm.nih.gov/cgi-bin/sis/search/r?dbs+hsdb:@term+@rn+@rel+53-34-9
   7. http://toxnet.nlm.nih.gov/cgi-bin/sis/search/r?dbs+hsdb:@term+@rn+@rel+53-34-9
   8. http://toxnet.nlm.nih.gov/cgi-bin/sis/search/r?dbs+hsdb:@term+@rn+@rel+53-34-9
   9. http://pubchem.ncbi.nlm.nih.gov/vw3d/vw3d.cgi?cid=5876
