327
  -OEChem-07051212452D

 32 34  0     0  0  0  0  0  0999 V2000
    8.2479   -1.9265    0.0000 O   0  0  0  0  0  0  0  0  0  0  0  0
    6.5159   -2.9265    0.0000 O   0  0  0  0  0  0  0  0  0  0  0  0
    5.6165    2.6049    0.0000 O   0  0  0  0  0  0  0  0  0  0  0  0
    2.6200   -1.7925    0.0000 O   0  0  0  0  0  0  0  0  0  0  0  0
    4.7679    1.0950    0.0000 O   0  0  0  0  0  0  0  0  0  0  0  0
    9.1717    2.6186    0.0000 O   0  0  0  0  0  0  0  0  0  0  0  0
    2.6200   -0.0605    0.0000 O   0  0  0  0  0  0  0  0  0  0  0  0
   10.0319    1.1153    0.0000 O   0  0  0  0  0  0  0  0  0  0  0  0
    4.7036   -0.1218    0.0000 N   0  0  0  0  0  0  0  0  0  0  0  0
    8.2919    0.0803    0.0000 N   0  0  0  0  0  0  0  0  0  0  0  0
    6.5159    0.0735    0.0000 C   0  0  0  0  0  0  0  0  0  0  0  0
    5.6498   -0.4265    0.0000 C   0  0  0  0  0  0  0  0  0  0  0  0
    5.6498   -1.4265    0.0000 C   0  0  0  0  0  0  0  0  0  0  0  0
    7.3819   -0.4265    0.0000 C   0  0  0  0  0  0  0  0  0  0  0  0
    6.4998    1.1150    0.0000 C   0  0  0  0  0  0  0  0  0  0  0  0
    7.3819   -1.4265    0.0000 C   0  0  0  0  0  0  0  0  0  0  0  0
    6.5159   -1.9265    0.0000 C   0  0  0  0  0  0  0  0  0  0  0  0
    4.7036   -1.7312    0.0000 C   0  0  0  0  0  0  0  0  0  0  0  0
    4.1200   -0.9265    0.0000 C   0  0  0  0  0  0  0  0  0  0  0  0
    8.2999    1.1219    0.0000 C   0  0  0  0  0  0  0  0  0  0  0  0
    7.3978    1.6427    0.0000 C   0  0  0  0  0  0  0  0  0  0  0  0
    5.6280    1.6049    0.0000 C   0  0  0  0  0  0  0  0  0  0  0  0
    3.1200   -0.9265    0.0000 C   0  0  0  0  0  0  0  0  0  0  0  0
    9.1679    1.6186    0.0000 C   0  0  0  0  0  0  0  0  0  0  0  0
    4.5110    0.4675    0.0000 H   0  0  0  0  0  0  0  0  0  0  0  0
    4.5110   -2.3206    0.0000 H   0  0  0  0  0  0  0  0  0  0  0  0
    8.8252   -0.2359    0.0000 H   0  0  0  0  0  0  0  0  0  0  0  0
    7.3954    2.2627    0.0000 H   0  0  0  0  0  0  0  0  0  0  0  0
    8.2479   -2.5465    0.0000 H   0  0  0  0  0  0  0  0  0  0  0  0
    5.0760    2.9087    0.0000 H   0  0  0  0  0  0  0  0  0  0  0  0
    2.0000   -1.7925    0.0000 H   0  0  0  0  0  0  0  0  0  0  0  0
    9.7098    2.9265    0.0000 H   0  0  0  0  0  0  0  0  0  0  0  0
  1 16  1  0  0  0  0
  1 29  1  0  0  0  0
  2 17  2  0  0  0  0
  3 22  1  0  0  0  0
  3 30  1  0  0  0  0
  4 23  1  0  0  0  0
  4 31  1  0  0  0  0
  5 22  2  0  0  0  0
  6 24  1  0  0  0  0
  6 32  1  0  0  0  0
  7 23  2  0  0  0  0
  8 24  2  0  0  0  0
  9 12  1  0  0  0  0
  9 19  1  0  0  0  0
  9 25  1  0  0  0  0
 10 14  1  0  0  0  0
 10 20  1  0  0  0  0
 10 27  1  0  0  0  0
 11 12  1  0  0  0  0
 11 14  1  0  0  0  0
 11 15  2  0  0  0  0
 12 13  2  0  0  0  0
 13 17  1  0  0  0  0
 13 18  1  0  0  0  0
 14 16  2  0  0  0  0
 15 21  1  0  0  0  0
 15 22  1  0  0  0  0
 16 17  1  0  0  0  0
 18 19  2  0  0  0  0
 18 26  1  0  0  0  0
 19 23  1  0  0  0  0
 20 21  2  0  0  0  0
 20 24  1  0  0  0  0
 21 28  1  0  0  0  0
M  END
> <PUBCHEM_COMPOUND_CID>
327

> <PUBCHEM_COMPOUND_CANONICALIZED>
1

> <PUBCHEM_CACTVS_COMPLEXITY>
791

> <PUBCHEM_CACTVS_HBOND_ACCEPTOR>
9

> <PUBCHEM_CACTVS_HBOND_DONOR>
6

> <PUBCHEM_CACTVS_ROTATABLE_BOND>
3

> <PUBCHEM_CACTVS_SUBSKEYS>
AAADccBzPAAAAAAAAAAAAAAAAAAAAWAAAAAgQAAAAAAAAECBgAAAHgAQCAAADAyBngAwiJLJkgCoA6TyTAaCgCAnIiAAmSHwbNgKJvrA1LGEUYhk0AHY2ce83yO+AAAAAAAAAAAAAAAAAAAAAAAAAAAAAA==

> <PUBCHEM_IUPAC_OPENEYE_NAME>
5-hydroxy-4-oxo-1,6-dihydropyrrolo[2,3-f]quinoline-2,7,9-tricarboxylic acid

> <PUBCHEM_IUPAC_CAS_NAME>
5-hydroxy-4-oxo-1,6-dihydropyrrolo[2,3-f]quinoline-2,7,9-tricarboxylic acid

> <PUBCHEM_IUPAC_NAME>
5-hydroxy-4-oxo-1,6-dihydropyrrolo[2,3-f]quinoline-2,7,9-tricarboxylic acid

> <PUBCHEM_IUPAC_SYSTEMATIC_NAME>
5-oxidanyl-4-oxidanylidene-1,6-dihydropyrrolo[2,3-f]quinoline-2,7,9-tricarboxylic acid

> <PUBCHEM_IUPAC_TRADITIONAL_NAME>
5-hydroxy-4-keto-1,6-dihydropyrrolo[2,3-f]quinoline-2,7,9-tricarboxylic acid

> <PUBCHEM_IUPAC_INCHI>
InChI=1S/C14H8N2O8/c17-10-4-2-6(14(23)24)15-8(4)7-3(12(19)20)1-5(13(21)22)16-9(7)11(10)18/h1-2,15-16,18H,(H,19,20)(H,21,22)(H,23,24)

> <PUBCHEM_IUPAC_INCHIKEY>
YGMNKJYNUZEQNJ-UHFFFAOYSA-N

> <PUBCHEM_XLOGP3_AA>
-0.4

> <PUBCHEM_EXACT_MASS>
332.028065

> <PUBCHEM_MOLECULAR_FORMULA>
C14H8N2O8

> <PUBCHEM_MOLECULAR_WEIGHT>
332.22192

> <PUBCHEM_OPENEYE_CAN_SMILES>
C1=C(NC2=C1C(=O)C(=C3C2=C(C=C(N3)C(=O)O)C(=O)O)O)C(=O)O

> <PUBCHEM_OPENEYE_ISO_SMILES>
C1=C(NC2=C1C(=O)C(=C3C2=C(C=C(N3)C(=O)O)C(=O)O)O)C(=O)O

> <PUBCHEM_CACTVS_TPSA>
177

> <PUBCHEM_MONOISOTOPIC_WEIGHT>
332.028065

> <PUBCHEM_TOTAL_CHARGE>
0

> <PUBCHEM_HEAVY_ATOM_COUNT>
24

> <PUBCHEM_ATOM_DEF_STEREO_COUNT>
0

> <PUBCHEM_ATOM_UDEF_STEREO_COUNT>
0

> <PUBCHEM_BOND_DEF_STEREO_COUNT>
0

> <PUBCHEM_BOND_UDEF_STEREO_COUNT>
0

> <PUBCHEM_ISOTOPIC_ATOM_COUNT>
0

> <PUBCHEM_COMPONENT_COUNT>
1

> <PUBCHEM_CACTVS_TAUTO_COUNT>
106

> <PUBCHEM_COORDINATE_TYPE>
1
5
255

> <PUBCHEM_BONDANNOTATIONS>
10  14  8
10  20  8
11  12  8
11  15  8
12  13  8
13  17  8
13  18  8
14  16  8
15  21  8
16  17  8
18  19  8
20  21  8
9  12  8
9  19  8

$$$$

