195787
  -OEChem-07051213122D

 42 44  0     0  0  0  0  0  0999 V2000
    6.0682    0.9728    0.0000 O   0  0  0  0  0  0  0  0  0  0  0  0
    9.5984   -2.0514    0.0000 O   0  0  0  0  0  0  0  0  0  0  0  0
    6.0682   -3.0272    0.0000 O   0  0  0  0  0  0  0  0  0  0  0  0
    4.3198    1.0074    0.0000 O   0  0  0  0  0  0  0  0  0  0  0  0
    2.5381   -2.0514    0.0000 O   0  0  0  0  0  0  0  0  0  0  0  0
    8.6768    1.5173    0.0000 C   0  0  0  0  0  0  0  0  0  0  0  0
    7.8167    1.0074    0.0000 C   0  0  0  0  0  0  0  0  0  0  0  0
    8.6653    2.5173    0.0000 C   0  0  0  0  0  0  0  0  0  0  0  0
    7.8282    0.0074    0.0000 C   0  0  0  0  0  0  0  0  0  0  0  0
    6.9343   -0.5272    0.0000 C   0  0  0  0  0  0  0  0  0  0  0  0
    6.9343   -1.5272    0.0000 C   0  0  0  0  0  0  0  0  0  0  0  0
    6.0682   -0.0272    0.0000 C   0  0  0  0  0  0  0  0  0  0  0  0
    5.2022   -0.5272    0.0000 C   0  0  0  0  0  0  0  0  0  0  0  0
    8.7343   -0.5064    0.0000 C   0  0  0  0  0  0  0  0  0  0  0  0
    9.5255    3.0272    0.0000 C   0  0  0  0  0  0  0  0  0  0  0  0
    7.7935    3.0072    0.0000 C   0  0  0  0  0  0  0  0  0  0  0  0
    5.2022   -1.5272    0.0000 C   0  0  0  0  0  0  0  0  0  0  0  0
    6.0682   -2.0272    0.0000 C   0  0  0  0  0  0  0  0  0  0  0  0
    7.8282   -2.0619    0.0000 C   0  0  0  0  0  0  0  0  0  0  0  0
    8.7343   -1.5481    0.0000 C   0  0  0  0  0  0  0  0  0  0  0  0
    4.3083    0.0074    0.0000 C   0  0  0  0  0  0  0  0  0  0  0  0
    4.3083   -2.0619    0.0000 C   0  0  0  0  0  0  0  0  0  0  0  0
    3.4022   -0.5064    0.0000 C   0  0  0  0  0  0  0  0  0  0  0  0
    3.4022   -1.5481    0.0000 C   0  0  0  0  0  0  0  0  0  0  0  0
    8.8956    0.9372    0.0000 H   0  0  0  0  0  0  0  0  0  0  0  0
    9.2861    1.6320    0.0000 H   0  0  0  0  0  0  0  0  0  0  0  0
    7.5979    1.5875    0.0000 H   0  0  0  0  0  0  0  0  0  0  0  0
    7.2074    0.8926    0.0000 H   0  0  0  0  0  0  0  0  0  0  0  0
    8.6581    3.1372    0.0000 H   0  0  0  0  0  0  0  0  0  0  0  0
    9.2700   -0.1944    0.0000 H   0  0  0  0  0  0  0  0  0  0  0  0
    9.8416    2.4939    0.0000 H   0  0  0  0  0  0  0  0  0  0  0  0
    8.0973    3.5477    0.0000 H   0  0  0  0  0  0  0  0  0  0  0  0
    7.2530    3.3110    0.0000 H   0  0  0  0  0  0  0  0  0  0  0  0
    7.4898    2.4667    0.0000 H   0  0  0  0  0  0  0  0  0  0  0  0
   10.0588    3.3434    0.0000 H   0  0  0  0  0  0  0  0  0  0  0  0
    9.2093    3.5606    0.0000 H   0  0  0  0  0  0  0  0  0  0  0  0
    7.8210   -2.6819    0.0000 H   0  0  0  0  0  0  0  0  0  0  0  0
    4.3154   -2.6819    0.0000 H   0  0  0  0  0  0  0  0  0  0  0  0
    2.8665   -0.1944    0.0000 H   0  0  0  0  0  0  0  0  0  0  0  0
   10.1365   -1.7435    0.0000 H   0  0  0  0  0  0  0  0  0  0  0  0
    3.7865    1.3235    0.0000 H   0  0  0  0  0  0  0  0  0  0  0  0
    2.0000   -1.7435    0.0000 H   0  0  0  0  0  0  0  0  0  0  0  0
  1 12  2  0  0  0  0
  2 20  1  0  0  0  0
  2 40  1  0  0  0  0
  3 18  2  0  0  0  0
  4 21  1  0  0  0  0
  4 41  1  0  0  0  0
  5 24  1  0  0  0  0
  5 42  1  0  0  0  0
  6  7  1  0  0  0  0
  6  8  1  0  0  0  0
  6 25  1  0  0  0  0
  6 26  1  0  0  0  0
  7  9  1  0  0  0  0
  7 27  1  0  0  0  0
  7 28  1  0  0  0  0
  8 15  1  0  0  0  0
  8 16  1  0  0  0  0
  8 29  1  0  0  0  0
  9 10  2  0  0  0  0
  9 14  1  0  0  0  0
 10 11  1  0  0  0  0
 10 12  1  0  0  0  0
 11 18  1  0  0  0  0
 11 19  2  0  0  0  0
 12 13  1  0  0  0  0
 13 17  2  0  0  0  0
 13 21  1  0  0  0  0
 14 20  2  0  0  0  0
 14 30  1  0  0  0  0
 15 31  1  0  0  0  0
 15 35  1  0  0  0  0
 15 36  1  0  0  0  0
 16 32  1  0  0  0  0
 16 33  1  0  0  0  0
 16 34  1  0  0  0  0
 17 18  1  0  0  0  0
 17 22  1  0  0  0  0
 19 20  1  0  0  0  0
 19 37  1  0  0  0  0
 21 23  2  0  0  0  0
 22 24  2  0  0  0  0
 22 38  1  0  0  0  0
 23 24  1  0  0  0  0
 23 39  1  0  0  0  0
M  END
> <PUBCHEM_COMPOUND_CID>
195787

> <PUBCHEM_COMPOUND_CANONICALIZED>
1

> <PUBCHEM_CACTVS_COMPLEXITY>
502

> <PUBCHEM_CACTVS_HBOND_ACCEPTOR>
5

> <PUBCHEM_CACTVS_HBOND_DONOR>
3

> <PUBCHEM_CACTVS_ROTATABLE_BOND>
3

> <PUBCHEM_CACTVS_SUBSKEYS>
AAADceB4OAAAAAAAAAAAAAAAAAAAAAAAAAAwYMAAAAAAAADBQAAAGgAACAAADQSAmAAyBoAAAgCIAqBSAAACAAAkIAAAiAEGCMgIJzaCFRKAcUAl4BUImYeL7PTOoAADCAAYAADAAAYQADAAAAAAAAAAAA==

> <PUBCHEM_IUPAC_OPENEYE_NAME>
1,3,6-trihydroxy-8-isopentyl-anthracene-9,10-dione

> <PUBCHEM_IUPAC_CAS_NAME>
1,3,6-trihydroxy-8-(3-methylbutyl)anthracene-9,10-dione

> <PUBCHEM_IUPAC_NAME>
1,3,6-trihydroxy-8-(3-methylbutyl)anthracene-9,10-dione

> <PUBCHEM_IUPAC_SYSTEMATIC_NAME>
1-(3-methylbutyl)-3,6,8-tris(oxidanyl)anthracene-9,10-dione

> <PUBCHEM_IUPAC_TRADITIONAL_NAME>
1,3,6-trihydroxy-8-isoamyl-9,10-anthraquinone

> <PUBCHEM_IUPAC_INCHI>
InChI=1S/C19H18O5/c1-9(2)3-4-10-5-11(20)6-13-16(10)19(24)17-14(18(13)23)7-12(21)8-15(17)22/h5-9,20-22H,3-4H2,1-2H3

> <PUBCHEM_IUPAC_INCHIKEY>
HQIGXKMUTUJEER-UHFFFAOYSA-N

> <PUBCHEM_XLOGP3_AA>
4.5

> <PUBCHEM_EXACT_MASS>
326.115424

> <PUBCHEM_MOLECULAR_FORMULA>
C19H18O5

> <PUBCHEM_MOLECULAR_WEIGHT>
326.34322

> <PUBCHEM_OPENEYE_CAN_SMILES>
CC(C)CCC1=C2C(=CC(=C1)O)C(=O)C3=CC(=CC(=C3C2=O)O)O

> <PUBCHEM_OPENEYE_ISO_SMILES>
CC(C)CCC1=C2C(=CC(=C1)O)C(=O)C3=CC(=CC(=C3C2=O)O)O

> <PUBCHEM_CACTVS_TPSA>
94.8

> <PUBCHEM_MONOISOTOPIC_WEIGHT>
326.115424

> <PUBCHEM_TOTAL_CHARGE>
0

> <PUBCHEM_HEAVY_ATOM_COUNT>
24

> <PUBCHEM_ATOM_DEF_STEREO_COUNT>
0

> <PUBCHEM_ATOM_UDEF_STEREO_COUNT>
0

> <PUBCHEM_BOND_DEF_STEREO_COUNT>
0

> <PUBCHEM_BOND_UDEF_STEREO_COUNT>
0

> <PUBCHEM_ISOTOPIC_ATOM_COUNT>
0

> <PUBCHEM_COMPONENT_COUNT>
1

> <PUBCHEM_CACTVS_TAUTO_COUNT>
998

> <PUBCHEM_COORDINATE_TYPE>
1
5
255

> <PUBCHEM_BONDANNOTATIONS>
10  11  8
11  19  8
13  17  8
13  21  8
14  20  8
17  22  8
19  20  8
21  23  8
22  24  8
23  24  8
9  10  8
9  14  8

$$$$

