   Color/Form
        COLORLESS TO SLIGHTLY YELLOW LIQUID
   from [1]HSDB

   Odor
        INTENSE LEMON-, CITRONELLA-, ROSE-TYPE
   from [2]HSDB

   Boiling Point
        47 deg C @ 1 mm Hg
   from [3]HSDB

   Density/Specific Gravity
        0.8573 AT 20 DEG C/4 DEG C
   from [4]HSDB

   Solubilities

     * SLIGHTLY SOLUBLE IN WATER, ETHANOL
     * 1:5 IN 70% ALCOHOL

   from [5]HSDB

   Spectral Properties

     * INDEX OF REFRACTION: 1.446 AT 20 DEG C/D; SPECIFIC OPTICAL
       ROTATION: +11.50 DEG AT 25 DEG C/D
     * SPECIFIC OPTICAL ROTATION: +13.09 DEG AT 18 DEG C/D; MAX ABSORPTION
       (ALCOHOL): 235 NM (LOG E= 1.93); 290 NM SHOULDER (LOG E= 1.08)
     * SPECIFIC OPTICAL ROTATION: -1 TO +11 DEG
     * IR: 15514 (Sadtler Research Laboratories IR Grating Collection)
     * UV: 1-364 (Organic Electronic Spectral Data, Phillips et al, John
       Wiley & Sons, New York)
     * NMR: 10936 (Sadtler Research Laboratories Spectral Collection)
     * MASS: 937 (Atlas of Mass Spectral Data, John Wiley & Sons, New
       York)
     * MASS: 4177 (National Bureau of Standards EPA-NIH Mass Spectra Data
       Base, NSRDS-NBS-63)

   from [6]HSDB

   Vapor Pressure
        11 MM HG AT 88 DEG C
   from [7]HSDB

   Other Chemical/Physical Properties

     * CONVERSION FACTORS: 1 MG/LITER= 159 PPM; 1 PPM= 6.3 MG/CU M
     * VOLATILE OILS FREELY DISSOLVE FIXED OILS, FATS, RESINS, CAMPHORS, &
       USUALLY SULFUR & PHOSPHORUS /VOLATILE OILS/
     * INDEX OF REFRACTION: 1.4456 @ 20 DEG C/D; MAX ABSORPTION (ALC): 235
       NM (LOG E= 1.93); 290 NM SHOULDER (LOG E= 1.08) /D FORM/
     * INDEX OF REFRACTION: 1.4479 @ 20 DEG C/D; MAX ABSORPTION (ALC): 235
       NM (LOG E= 1.93; 290 NM SHOULDER (LOG E= 1.08) /L FORM/
     * INDEX OF REFRACTION: 1.4473 @ 20 DEG C/D; MAX ABSORPTION (ALC): 290
       NM SHOULDER (LOG E= 1.08) /DL FORM/
     * ACID VALUE LESS THAN 3.0
     * IR: 15514 (Sadtler Research Laboratories IR Grating Collection)
       /Citronellal (d)/
     * NMR: 10936 (Sadtler Research Laboratories Spectral Collection)
       /Citronellal (d)/
     * MASS: 937 (Atlas of Mass Spectral Data, John Wiley & Sons, New
       York) /Citronellal (d)/
     * IR: 15514 (Sadtler Research Laboratories IR Grating Collection)
       /Citronellal (l)/
     * UV: 1-364 (Organic Electronic Spectral Data, Phillips et al, John
       Wiley & Sons, New York) /Citronellal (l)/
     * NMR: 10936 (Sadtler Research Laboratories Spectral Collection)
       /Citronellal (l)/
     * MASS: 937 (Atlas of Mass Spectral Data, John Wiley & Sons, New
       York) /Citronellal (l)/

   from [8]HSDB

   Computed Properties
   Molecular Weight                  154.24932 [g/mol]
   Molecular Formula                 C[10]H[18]O
   XLogP3-AA                         3
   H-Bond Donor                      0
   H-Bond Acceptor                   1
   Rotatable Bond Count              5
   Tautomer Count                    2
   Exact Mass                        154.135765
   MonoIsotopic Mass                 154.135765
   Topological Polar Surface Area    17.1
   Heavy Atom Count                  11
   Formal Charge                     0
   Complexity                        132
   Isotope Atom Count                0
   Defined Atom Stereocenter Count   0
   Undefined Atom Stereocenter Count 1
   Defined Bond Stereocenter Count   0
   Undefined Bond Stereocenter Count 0
   Covalently-Bonded Unit Count      1
   Feature 3D Acceptor Count         1
   Feature 3D Hydrophobe Count       3
   Effective Rotor Count             5
   Conformer Sampling RMSD           0.6
   CID Conformer Count               [9]123

References

   1. http://toxnet.nlm.nih.gov/cgi-bin/sis/search/r?dbs+hsdb:@term+@rn+@rel+106-23-0
   2. http://toxnet.nlm.nih.gov/cgi-bin/sis/search/r?dbs+hsdb:@term+@rn+@rel+106-23-0
   3. http://toxnet.nlm.nih.gov/cgi-bin/sis/search/r?dbs+hsdb:@term+@rn+@rel+106-23-0
   4. http://toxnet.nlm.nih.gov/cgi-bin/sis/search/r?dbs+hsdb:@term+@rn+@rel+106-23-0
   5. http://toxnet.nlm.nih.gov/cgi-bin/sis/search/r?dbs+hsdb:@term+@rn+@rel+106-23-0
   6. http://toxnet.nlm.nih.gov/cgi-bin/sis/search/r?dbs+hsdb:@term+@rn+@rel+106-23-0
   7. http://toxnet.nlm.nih.gov/cgi-bin/sis/search/r?dbs+hsdb:@term+@rn+@rel+106-23-0
   8. http://toxnet.nlm.nih.gov/cgi-bin/sis/search/r?dbs+hsdb:@term+@rn+@rel+106-23-0
   9. http://pubchem.ncbi.nlm.nih.gov/vw3d/vw3d.cgi?cid=7794
