185611
  -OEChem-07051213092D

 68 72  0     1  0  0  0  0  0999 V2000
    8.1223   -3.1589    0.0000 O   0  0  0  0  0  0  0  0  0  0  0  0
    5.5103    0.3695    0.0000 O   0  0  0  0  0  0  0  0  0  0  0  0
    4.6497   -0.1274    0.0000 O   0  0  0  0  0  0  0  0  0  0  0  0
    9.6855    0.7467    0.0000 O   0  0  0  0  0  0  0  0  0  0  0  0
    9.8438   -3.1917    0.0000 O   0  0  0  0  0  0  0  0  0  0  0  0
    2.8680   -1.1378    0.0000 O   0  0  0  0  0  0  0  0  0  0  0  0
    6.9906    2.7058    0.0000 O   0  0  0  0  0  0  0  0  0  0  0  0
    7.9669    4.1966    0.0000 O   0  0  0  0  0  0  0  0  0  0  0  0
    7.2641   -1.6620    0.0000 C   0  0  2  0  0  0  0  0  0  0  0  0
    6.3981   -1.1620    0.0000 C   0  0  1  0  0  0  0  0  0  0  0  0
    8.1741   -1.1551    0.0000 C   0  0  2  0  0  0  0  0  0  0  0  0
    5.5320   -1.6620    0.0000 C   0  0  1  0  0  0  0  0  0  0  0  0
    7.2641   -2.6620    0.0000 C   0  0  1  0  0  0  0  0  0  0  0  0
    5.5320   -2.6620    0.0000 C   0  0  1  0  0  0  0  0  0  0  0  0
    8.1821   -0.1135    0.0000 C   0  0  2  0  0  0  0  0  0  0  0  0
    6.3820   -0.1205    0.0000 C   0  0  1  0  0  0  0  0  0  0  0  0
    6.3981   -3.1620    0.0000 C   0  0  0  0  0  0  0  0  0  0  0  0
    7.2800    0.4073    0.0000 C   0  0  0  0  0  0  0  0  0  0  0  0
    7.2641   -0.6620    0.0000 C   0  0  0  0  0  0  0  0  0  0  0  0
    9.0134   -1.6834    0.0000 C   0  0  0  0  0  0  0  0  0  0  0  0
    4.6381   -3.1966    0.0000 C   0  0  1  0  0  0  0  0  0  0  0  0
    5.5320   -0.6620    0.0000 C   0  0  0  0  0  0  0  0  0  0  0  0
    4.6381   -1.1273    0.0000 C   0  0  0  0  0  0  0  0  0  0  0  0
    9.1821   -0.1174    0.0000 C   0  0  0  0  0  0  0  0  0  0  0  0
    8.6855    0.7506    0.0000 C   0  0  0  0  0  0  0  0  0  0  0  0
    8.9878   -2.6747    0.0000 C   0  0  0  0  0  0  0  0  0  0  0  0
    3.7320   -2.6828    0.0000 C   0  0  0  0  0  0  0  0  0  0  0  0
    3.7320   -1.6412    0.0000 C   0  0  0  0  0  0  0  0  0  0  0  0
    8.1888    1.6185    0.0000 C   0  0  2  0  0  0  0  0  0  0  0  0
    4.6497   -4.1966    0.0000 C   0  0  0  0  0  0  0  0  0  0  0  0
    8.5991    2.5305    0.0000 C   0  0  0  0  0  0  0  0  0  0  0  0
    7.1947    1.7269    0.0000 C   0  0  0  0  0  0  0  0  0  0  0  0
    7.8585    3.2025    0.0000 C   0  0  0  0  0  0  0  0  0  0  0  0
    2.0000   -1.6345    0.0000 C   0  0  0  0  0  0  0  0  0  0  0  0
    7.1309   -0.7313    0.0000 H   0  0  0  0  0  0  0  0  0  0  0  0
    8.9198   -0.7471    0.0000 H   0  0  0  0  0  0  0  0  0  0  0  0
    7.2636   -3.5120    0.0000 H   0  0  0  0  0  0  0  0  0  0  0  0
    5.5386   -3.5120    0.0000 H   0  0  0  0  0  0  0  0  0  0  0  0
    5.8493   -0.4377    0.0000 H   0  0  0  0  0  0  0  0  0  0  0  0
    5.9995   -3.6369    0.0000 H   0  0  0  0  0  0  0  0  0  0  0  0
    6.7966   -3.6369    0.0000 H   0  0  0  0  0  0  0  0  0  0  0  0
    7.6774    0.8832    0.0000 H   0  0  0  0  0  0  0  0  0  0  0  0
    6.8791    0.8802    0.0000 H   0  0  0  0  0  0  0  0  0  0  0  0
    7.8841   -0.6620    0.0000 H   0  0  0  0  0  0  0  0  0  0  0  0
    7.2641   -0.0420    0.0000 H   0  0  0  0  0  0  0  0  0  0  0  0
    6.6441   -0.6620    0.0000 H   0  0  0  0  0  0  0  0  0  0  0  0
    9.6205   -1.8092    0.0000 H   0  0  0  0  0  0  0  0  0  0  0  0
    9.2452   -1.1083    0.0000 H   0  0  0  0  0  0  0  0  0  0  0  0
    4.1042   -3.5118    0.0000 H   0  0  0  0  0  0  0  0  0  0  0  0
    6.1520   -0.6620    0.0000 H   0  0  0  0  0  0  0  0  0  0  0  0
    5.5320   -0.0420    0.0000 H   0  0  0  0  0  0  0  0  0  0  0  0
    4.9120   -0.6620    0.0000 H   0  0  0  0  0  0  0  0  0  0  0  0
    9.1797   -0.7374    0.0000 H   0  0  0  0  0  0  0  0  0  0  0  0
    9.8021   -0.1198    0.0000 H   0  0  0  0  0  0  0  0  0  0  0  0
    9.1845    0.5026    0.0000 H   0  0  0  0  0  0  0  0  0  0  0  0
    3.1963   -2.9949    0.0000 H   0  0  0  0  0  0  0  0  0  0  0  0
    5.5031    0.9894    0.0000 H   0  0  0  0  0  0  0  0  0  0  0  0
    7.8491    1.0998    0.0000 H   0  0  0  0  0  0  0  0  0  0  0  0
    4.0297   -4.2037    0.0000 H   0  0  0  0  0  0  0  0  0  0  0  0
    4.6568   -4.8165    0.0000 H   0  0  0  0  0  0  0  0  0  0  0  0
    5.2696   -4.1894    0.0000 H   0  0  0  0  0  0  0  0  0  0  0  0
    9.1348    2.2184    0.0000 H   0  0  0  0  0  0  0  0  0  0  0  0
    8.9654    3.0307    0.0000 H   0  0  0  0  0  0  0  0  0  0  0  0
    6.5778    1.6644    0.0000 H   0  0  0  0  0  0  0  0  0  0  0  0
    7.1923    1.1069    0.0000 H   0  0  0  0  0  0  0  0  0  0  0  0
    1.6921   -1.0964    0.0000 H   0  0  0  0  0  0  0  0  0  0  0  0
    1.4619   -1.9424    0.0000 H   0  0  0  0  0  0  0  0  0  0  0  0
    2.3079   -2.1726    0.0000 H   0  0  0  0  0  0  0  0  0  0  0  0
  1 13  1  0  0  0  0
  1 26  1  0  0  0  0
 16  2  1  6  0  0  0
  2 57  1  0  0  0  0
  3 23  2  0  0  0  0
  4 25  2  0  0  0  0
  5 26  2  0  0  0  0
  6 28  1  0  0  0  0
  6 34  1  0  0  0  0
  7 32  1  0  0  0  0
  7 33  1  0  0  0  0
  8 33  2  0  0  0  0
  9 10  1  0  0  0  0
  9 11  1  0  0  0  0
  9 13  1  0  0  0  0
  9 19  1  1  0  0  0
 10 12  1  0  0  0  0
 10 16  1  0  0  0  0
 10 35  1  6  0  0  0
 11 15  1  0  0  0  0
 11 20  1  0  0  0  0
 11 36  1  1  0  0  0
 12 14  1  0  0  0  0
 12 22  1  1  0  0  0
 12 23  1  0  0  0  0
 13 17  1  0  0  0  0
 13 37  1  1  0  0  0
 14 17  1  0  0  0  0
 14 21  1  0  0  0  0
 14 38  1  6  0  0  0
 15 18  1  0  0  0  0
 15 24  1  6  0  0  0
 15 25  1  0  0  0  0
 16 18  1  0  0  0  0
 16 39  1  0  0  0  0
 17 40  1  0  0  0  0
 17 41  1  0  0  0  0
 18 42  1  0  0  0  0
 18 43  1  0  0  0  0
 19 44  1  0  0  0  0
 19 45  1  0  0  0  0
 19 46  1  0  0  0  0
 20 26  1  0  0  0  0
 20 47  1  0  0  0  0
 20 48  1  0  0  0  0
 21 27  1  0  0  0  0
 21 30  1  6  0  0  0
 21 49  1  0  0  0  0
 22 50  1  0  0  0  0
 22 51  1  0  0  0  0
 22 52  1  0  0  0  0
 23 28  1  0  0  0  0
 24 53  1  0  0  0  0
 24 54  1  0  0  0  0
 24 55  1  0  0  0  0
 29 25  1  1  0  0  0
 27 28  2  0  0  0  0
 27 56  1  0  0  0  0
 29 31  1  0  0  0  0
 29 32  1  0  0  0  0
 29 58  1  0  0  0  0
 30 59  1  0  0  0  0
 30 60  1  0  0  0  0
 30 61  1  0  0  0  0
 31 33  1  0  0  0  0
 31 62  1  0  0  0  0
 31 63  1  0  0  0  0
 32 64  1  0  0  0  0
 32 65  1  0  0  0  0
 34 66  1  0  0  0  0
 34 67  1  0  0  0  0
 34 68  1  0  0  0  0
M  END
> <PUBCHEM_COMPOUND_CID>
185611

> <PUBCHEM_COMPOUND_CANONICALIZED>
1

> <PUBCHEM_CACTVS_COMPLEXITY>
1000

> <PUBCHEM_CACTVS_HBOND_ACCEPTOR>
8

> <PUBCHEM_CACTVS_HBOND_DONOR>
1

> <PUBCHEM_CACTVS_ROTATABLE_BOND>
3

> <PUBCHEM_CACTVS_SUBSKEYS>
AAADcfB4PAAAAAAAAAAAAAAAAAAAASAAAAA0YIEAAAAAAADQAAAAGgAACAAADxSggAICCAAABgCIAKDSCAIACAAgIAAACAFAAEgAEBYAAAQCQAAEoAAIAYPL7vzvgAAAAAAAAADAAAYAADAAAAAAAAAAAA==

> <PUBCHEM_IUPAC_INCHI>
InChI=1S/C26H34O8/c1-12-6-16(32-5)23(31)25(3)14(12)8-18-26(4)17(9-20(29)34-18)24(2,10-15(27)21(25)26)22(30)13-7-19(28)33-11-13/h6,12-15,17-18,21,27H,7-11H2,1-5H3/t12-,13-,14+,15-,17+,18-,21-,24-,25+,26-/m1/s1

> <PUBCHEM_IUPAC_INCHIKEY>
BIJFTRIMTHYJOV-QRWZCSJESA-N

> <PUBCHEM_XLOGP3_AA>
1.8

> <PUBCHEM_EXACT_MASS>
474.225368

> <PUBCHEM_MOLECULAR_FORMULA>
C26H34O8

> <PUBCHEM_MOLECULAR_WEIGHT>
474.54336

> <PUBCHEM_OPENEYE_CAN_SMILES>
CC1C=C(C(=O)C2(C1CC3C4(C2C(CC(C4CC(=O)O3)(C)C(=O)C5CC(=O)OC5)O)C)C)OC

> <PUBCHEM_OPENEYE_ISO_SMILES>
C[C@@H]1C=C(C(=O)[C@]2([C@H]1C[C@@H]3[C@@]4([C@@H]2[C@@H](C[C@@]([C@@H]4CC(=O)O3)(C)C(=O)[C@@H]5CC(=O)OC5)O)C)C)OC

> <PUBCHEM_CACTVS_TPSA>
116

> <PUBCHEM_MONOISOTOPIC_WEIGHT>
474.225368

> <PUBCHEM_TOTAL_CHARGE>
0

> <PUBCHEM_HEAVY_ATOM_COUNT>
34

> <PUBCHEM_ATOM_DEF_STEREO_COUNT>
10

> <PUBCHEM_ATOM_UDEF_STEREO_COUNT>
0

> <PUBCHEM_BOND_DEF_STEREO_COUNT>
0

> <PUBCHEM_BOND_UDEF_STEREO_COUNT>
0

> <PUBCHEM_ISOTOPIC_ATOM_COUNT>
0

> <PUBCHEM_COMPONENT_COUNT>
1

> <PUBCHEM_CACTVS_TAUTO_COUNT>
24

> <PUBCHEM_COORDINATE_TYPE>
1
5
255

> <PUBCHEM_BONDANNOTATIONS>
10  35  6
11  36  5
12  22  5
13  37  5
14  38  6
15  24  6
16  2  6
21  30  6
29  25  5
9  19  5

$$$$

