5281902
  -OEChem-07051213012D

127129  0     1  0  0  0  0  0999 V2000
    7.7331   -2.7532    0.0000 O   0  0  0  0  0  0  0  0  0  0  0  0
    7.7331   -3.7532    0.0000 O   0  0  0  0  0  0  0  0  0  0  0  0
    5.1350   -1.2532    0.0000 O   0  0  0  0  0  0  0  0  0  0  0  0
    9.4651   -6.7532    0.0000 O   0  0  0  0  0  0  0  0  0  0  0  0
    6.0010    0.2468    0.0000 O   0  0  0  0  0  0  0  0  0  0  0  0
    2.5369    3.2468    0.0000 O   0  0  0  0  0  0  0  0  0  0  0  0
    7.9919    7.2127    0.0000 O   0  0  0  0  0  0  0  0  0  0  0  0
    4.2690    6.2468    0.0000 O   0  0  0  0  0  0  0  0  0  0  0  0
    9.4651    6.2468    0.0000 O   0  0  0  0  0  0  0  0  0  0  0  0
    3.4030    4.7468    0.0000 O   0  0  0  0  0  0  0  0  0  0  0  0
    6.8671    4.7468    0.0000 O   0  0  0  0  0  0  0  0  0  0  0  0
    6.8671   -3.2532    0.0000 C   0  0  2  0  0  0  0  0  0  0  0  0
    6.0010   -2.7532    0.0000 C   0  0  0  0  0  0  0  0  0  0  0  0
    6.8671   -1.2532    0.0000 C   0  0  1  0  0  0  0  0  0  0  0  0
    6.0010   -3.7532    0.0000 C   0  0  0  0  0  0  0  0  0  0  0  0
    7.7331   -1.7532    0.0000 C   0  0  1  0  0  0  0  0  0  0  0  0
    6.0010   -1.7532    0.0000 C   0  0  2  0  0  0  0  0  0  0  0  0
    6.8671   -5.2532    0.0000 C   0  0  1  0  0  0  0  0  0  0  0  0
    7.7331   -4.7532    0.0000 C   0  0  1  0  0  0  0  0  0  0  0  0
    6.0010   -4.7532    0.0000 C   0  0  0  0  0  0  0  0  0  0  0  0
    8.5991   -1.2532    0.0000 C   0  0  0  0  0  0  0  0  0  0  0  0
    8.5991   -5.2532    0.0000 C   0  0  0  0  0  0  0  0  0  0  0  0
    6.8671   -0.2532    0.0000 C   0  0  0  0  0  0  0  0  0  0  0  0
    6.8671   -6.2532    0.0000 C   0  0  0  0  0  0  0  0  0  0  0  0
    8.5991   -0.2532    0.0000 C   0  0  0  0  0  0  0  0  0  0  0  0
    8.5991   -6.2532    0.0000 C   0  0  2  0  0  0  0  0  0  0  0  0
    9.4651    0.2468    0.0000 C   0  0  2  0  0  0  0  0  0  0  0  0
   10.3312   -0.2532    0.0000 C   0  0  0  0  0  0  0  0  0  0  0  0
    5.1350   -0.2532    0.0000 C   0  0  0  0  0  0  0  0  0  0  0  0
    7.7331   -6.7532    0.0000 C   0  0  0  0  0  0  0  0  0  0  0  0
    9.4651    1.2468    0.0000 C   0  0  0  0  0  0  0  0  0  0  0  0
   10.3312   -1.2532    0.0000 C   0  0  0  0  0  0  0  0  0  0  0  0
    4.2690    0.2468    0.0000 C   0  0  0  0  0  0  0  0  0  0  0  0
   10.3312    1.7468    0.0000 C   0  0  0  0  0  0  0  0  0  0  0  0
    4.2690    1.2468    0.0000 C   0  0  0  0  0  0  0  0  0  0  0  0
    3.4030    1.7468    0.0000 C   0  0  2  0  0  0  0  0  0  0  0  0
    3.4030    2.7468    0.0000 C   0  0  1  0  0  0  0  0  0  0  0  0
    4.2690    3.2468    0.0000 C   0  0  2  0  0  0  0  0  0  0  0  0
    7.7331    6.2468    0.0000 C   0  0  1  0  0  0  0  0  0  0  0  0
    5.1350    4.7468    0.0000 C   0  0  1  0  0  0  0  0  0  0  0  0
    6.0010    6.2468    0.0000 C   0  0  2  0  0  0  0  0  0  0  0  0
    5.1350    5.7468    0.0000 C   0  0  1  0  0  0  0  0  0  0  0  0
    8.5991    5.7468    0.0000 C   0  0  1  0  0  0  0  0  0  0  0  0
    8.5991    4.7468    0.0000 C   0  0  2  0  0  0  0  0  0  0  0  0
   10.3312    2.7468    0.0000 C   0  0  0  0  0  0  0  0  0  0  0  0
    4.2690    4.2468    0.0000 C   0  0  0  0  0  0  0  0  0  0  0  0
    6.8671    5.7468    0.0000 C   0  0  0  0  0  0  0  0  0  0  0  0
    9.4651    4.2468    0.0000 C   0  0  0  0  0  0  0  0  0  0  0  0
    2.5369    1.2468    0.0000 C   0  0  0  0  0  0  0  0  0  0  0  0
    9.4651    3.2468    0.0000 C   0  0  0  0  0  0  0  0  0  0  0  0
    5.1350    2.7468    0.0000 C   0  0  0  0  0  0  0  0  0  0  0  0
    7.1595    7.0660    0.0000 C   0  0  0  0  0  0  0  0  0  0  0  0
    6.0010    7.2468    0.0000 C   0  0  0  0  0  0  0  0  0  0  0  0
    6.0010    4.2468    0.0000 C   0  0  0  0  0  0  0  0  0  0  0  0
    7.7331    4.2468    0.0000 C   0  0  0  0  0  0  0  0  0  0  0  0
    5.3905   -2.6455    0.0000 H   0  0  0  0  0  0  0  0  0  0  0  0
    5.7890   -3.3358    0.0000 H   0  0  0  0  0  0  0  0  0  0  0  0
    6.3301   -0.9432    0.0000 H   0  0  0  0  0  0  0  0  0  0  0  0
    5.7890   -3.1706    0.0000 H   0  0  0  0  0  0  0  0  0  0  0  0
    5.3905   -3.8609    0.0000 H   0  0  0  0  0  0  0  0  0  0  0  0
    8.4692   -2.1782    0.0000 H   0  0  0  0  0  0  0  0  0  0  0  0
    5.2649   -2.1782    0.0000 H   0  0  0  0  0  0  0  0  0  0  0  0
    6.3301   -5.5632    0.0000 H   0  0  0  0  0  0  0  0  0  0  0  0
    8.2700   -4.4432    0.0000 H   0  0  0  0  0  0  0  0  0  0  0  0
    5.3905   -4.6455    0.0000 H   0  0  0  0  0  0  0  0  0  0  0  0
    5.7890   -5.3358    0.0000 H   0  0  0  0  0  0  0  0  0  0  0  0
    8.8112   -1.8358    0.0000 H   0  0  0  0  0  0  0  0  0  0  0  0
    9.2097   -1.1455    0.0000 H   0  0  0  0  0  0  0  0  0  0  0  0
    9.2097   -5.3609    0.0000 H   0  0  0  0  0  0  0  0  0  0  0  0
    8.8112   -4.6706    0.0000 H   0  0  0  0  0  0  0  0  0  0  0  0
    7.4871   -0.2532    0.0000 H   0  0  0  0  0  0  0  0  0  0  0  0
    6.8671    0.3668    0.0000 H   0  0  0  0  0  0  0  0  0  0  0  0
    6.2471   -0.2532    0.0000 H   0  0  0  0  0  0  0  0  0  0  0  0
    6.2471   -6.2532    0.0000 H   0  0  0  0  0  0  0  0  0  0  0  0
    6.8671   -6.8732    0.0000 H   0  0  0  0  0  0  0  0  0  0  0  0
    7.4871   -6.2532    0.0000 H   0  0  0  0  0  0  0  0  0  0  0  0
    8.3871    0.3294    0.0000 H   0  0  0  0  0  0  0  0  0  0  0  0
    7.9885   -0.3609    0.0000 H   0  0  0  0  0  0  0  0  0  0  0  0
    8.5991   -6.8732    0.0000 H   0  0  0  0  0  0  0  0  0  0  0  0
   10.0021    0.5568    0.0000 H   0  0  0  0  0  0  0  0  0  0  0  0
   10.9417   -0.3609    0.0000 H   0  0  0  0  0  0  0  0  0  0  0  0
   10.5432    0.3294    0.0000 H   0  0  0  0  0  0  0  0  0  0  0  0
    7.4231   -6.2163    0.0000 H   0  0  0  0  0  0  0  0  0  0  0  0
    7.1962   -7.0632    0.0000 H   0  0  0  0  0  0  0  0  0  0  0  0
    8.0431   -7.2901    0.0000 H   0  0  0  0  0  0  0  0  0  0  0  0
    8.9282    1.5568    0.0000 H   0  0  0  0  0  0  0  0  0  0  0  0
    9.4651   -7.3732    0.0000 H   0  0  0  0  0  0  0  0  0  0  0  0
    9.7112   -1.2532    0.0000 H   0  0  0  0  0  0  0  0  0  0  0  0
   10.3312   -1.8732    0.0000 H   0  0  0  0  0  0  0  0  0  0  0  0
   10.9512   -1.2532    0.0000 H   0  0  0  0  0  0  0  0  0  0  0  0
    3.7320   -0.0632    0.0000 H   0  0  0  0  0  0  0  0  0  0  0  0
   10.8681    1.4368    0.0000 H   0  0  0  0  0  0  0  0  0  0  0  0
    4.8059    1.5568    0.0000 H   0  0  0  0  0  0  0  0  0  0  0  0
    3.4030    1.1268    0.0000 H   0  0  0  0  0  0  0  0  0  0  0  0
    3.4030    3.3668    0.0000 H   0  0  0  0  0  0  0  0  0  0  0  0
    4.2690    2.6268    0.0000 H   0  0  0  0  0  0  0  0  0  0  0  0
    5.1350    4.1268    0.0000 H   0  0  0  0  0  0  0  0  0  0  0  0
    6.5380    6.5568    0.0000 H   0  0  0  0  0  0  0  0  0  0  0  0
    5.1350    6.3668    0.0000 H   0  0  0  0  0  0  0  0  0  0  0  0
    8.5991    6.3668    0.0000 H   0  0  0  0  0  0  0  0  0  0  0  0
    8.5991    4.1268    0.0000 H   0  0  0  0  0  0  0  0  0  0  0  0
   10.8681    3.0568    0.0000 H   0  0  0  0  0  0  0  0  0  0  0  0
   10.0757    4.1391    0.0000 H   0  0  0  0  0  0  0  0  0  0  0  0
    9.6772    4.8294    0.0000 H   0  0  0  0  0  0  0  0  0  0  0  0
    2.2269    1.7837    0.0000 H   0  0  0  0  0  0  0  0  0  0  0  0
    2.0000    0.9368    0.0000 H   0  0  0  0  0  0  0  0  0  0  0  0
    2.8469    0.7099    0.0000 H   0  0  0  0  0  0  0  0  0  0  0  0
    8.9282    2.9368    0.0000 H   0  0  0  0  0  0  0  0  0  0  0  0
    4.8250    2.2099    0.0000 H   0  0  0  0  0  0  0  0  0  0  0  0
    5.6720    2.4368    0.0000 H   0  0  0  0  0  0  0  0  0  0  0  0
    5.4450    3.2837    0.0000 H   0  0  0  0  0  0  0  0  0  0  0  0
    7.6674    7.4216    0.0000 H   0  0  0  0  0  0  0  0  0  0  0  0
    6.8039    7.5738    0.0000 H   0  0  0  0  0  0  0  0  0  0  0  0
    6.6516    6.7103    0.0000 H   0  0  0  0  0  0  0  0  0  0  0  0
    6.6210    7.2468    0.0000 H   0  0  0  0  0  0  0  0  0  0  0  0
    6.0010    7.8668    0.0000 H   0  0  0  0  0  0  0  0  0  0  0  0
    5.3810    7.2468    0.0000 H   0  0  0  0  0  0  0  0  0  0  0  0
    5.6910    3.7099    0.0000 H   0  0  0  0  0  0  0  0  0  0  0  0
    6.5380    3.9368    0.0000 H   0  0  0  0  0  0  0  0  0  0  0  0
    6.3110    4.7837    0.0000 H   0  0  0  0  0  0  0  0  0  0  0  0
    7.4231    4.7837    0.0000 H   0  0  0  0  0  0  0  0  0  0  0  0
    7.1962    3.9368    0.0000 H   0  0  0  0  0  0  0  0  0  0  0  0
    8.0431    3.7099    0.0000 H   0  0  0  0  0  0  0  0  0  0  0  0
    2.0000    2.9368    0.0000 H   0  0  0  0  0  0  0  0  0  0  0  0
    8.5908    7.3732    0.0000 H   0  0  0  0  0  0  0  0  0  0  0  0
    4.2690    6.8668    0.0000 H   0  0  0  0  0  0  0  0  0  0  0  0
   10.0021    5.9368    0.0000 H   0  0  0  0  0  0  0  0  0  0  0  0
  1 12  1  0  0  0  0
  1 16  1  0  0  0  0
 12  2  1  6  0  0  0
  2 19  1  0  0  0  0
  3 17  1  0  0  0  0
  3 29  1  0  0  0  0
 26  4  1  1  0  0  0
  4 87  1  0  0  0  0
  5 29  2  0  0  0  0
 37  6  1  6  0  0  0
  6124  1  0  0  0  0
 39  7  1  1  0  0  0
  7125  1  0  0  0  0
 42  8  1  6  0  0  0
  8126  1  0  0  0  0
 43  9  1  6  0  0  0
  9127  1  0  0  0  0
 10 46  2  0  0  0  0
 11 47  2  0  0  0  0
 12 13  1  0  0  0  0
 12 15  1  0  0  0  0
 13 17  1  0  0  0  0
 13 56  1  0  0  0  0
 13 57  1  0  0  0  0
 14 16  1  0  0  0  0
 14 17  1  0  0  0  0
 14 23  1  1  0  0  0
 14 58  1  0  0  0  0
 15 20  1  0  0  0  0
 15 59  1  0  0  0  0
 15 60  1  0  0  0  0
 16 21  1  0  0  0  0
 16 61  1  6  0  0  0
 17 62  1  6  0  0  0
 18 19  1  0  0  0  0
 18 20  1  0  0  0  0
 18 24  1  6  0  0  0
 18 63  1  0  0  0  0
 19 22  1  6  0  0  0
 19 64  1  0  0  0  0
 20 65  1  0  0  0  0
 20 66  1  0  0  0  0
 21 25  1  0  0  0  0
 21 67  1  0  0  0  0
 21 68  1  0  0  0  0
 22 26  1  0  0  0  0
 22 69  1  0  0  0  0
 22 70  1  0  0  0  0
 23 71  1  0  0  0  0
 23 72  1  0  0  0  0
 23 73  1  0  0  0  0
 24 74  1  0  0  0  0
 24 75  1  0  0  0  0
 24 76  1  0  0  0  0
 25 27  1  0  0  0  0
 25 77  1  0  0  0  0
 25 78  1  0  0  0  0
 26 30  1  0  0  0  0
 26 79  1  0  0  0  0
 27 28  1  1  0  0  0
 27 31  1  0  0  0  0
 27 80  1  0  0  0  0
 28 32  1  0  0  0  0
 28 81  1  0  0  0  0
 28 82  1  0  0  0  0
 29 33  1  0  0  0  0
 30 83  1  0  0  0  0
 30 84  1  0  0  0  0
 30 85  1  0  0  0  0
 31 34  2  0  0  0  0
 31 86  1  0  0  0  0
 32 88  1  0  0  0  0
 32 89  1  0  0  0  0
 32 90  1  0  0  0  0
 33 35  2  0  0  0  0
 33 91  1  0  0  0  0
 34 45  1  0  0  0  0
 34 92  1  0  0  0  0
 35 36  1  0  0  0  0
 35 93  1  0  0  0  0
 36 37  1  0  0  0  0
 36 49  1  1  0  0  0
 36 94  1  0  0  0  0
 37 38  1  0  0  0  0
 37 95  1  0  0  0  0
 38 46  1  0  0  0  0
 38 51  1  6  0  0  0
 38 96  1  0  0  0  0
 39 43  1  0  0  0  0
 39 47  1  0  0  0  0
 39 52  1  0  0  0  0
 40 42  1  0  0  0  0
 40 46  1  0  0  0  0
 40 54  1  6  0  0  0
 40 97  1  0  0  0  0
 41 42  1  0  0  0  0
 41 47  1  0  0  0  0
 41 53  1  1  0  0  0
 41 98  1  0  0  0  0
 42 99  1  0  0  0  0
 43 44  1  0  0  0  0
 43100  1  0  0  0  0
 44 48  1  0  0  0  0
 44 55  1  6  0  0  0
 44101  1  0  0  0  0
 45 50  2  0  0  0  0
 45102  1  0  0  0  0
 48 50  1  0  0  0  0
 48103  1  0  0  0  0
 48104  1  0  0  0  0
 49105  1  0  0  0  0
 49106  1  0  0  0  0
 49107  1  0  0  0  0
 50108  1  0  0  0  0
 51109  1  0  0  0  0
 51110  1  0  0  0  0
 51111  1  0  0  0  0
 52112  1  0  0  0  0
 52113  1  0  0  0  0
 52114  1  0  0  0  0
 53115  1  0  0  0  0
 53116  1  0  0  0  0
 53117  1  0  0  0  0
 54118  1  0  0  0  0
 54119  1  0  0  0  0
 54120  1  0  0  0  0
 55121  1  0  0  0  0
 55122  1  0  0  0  0
 55123  1  0  0  0  0
M  END
> <PUBCHEM_COMPOUND_CID>
5281902

> <PUBCHEM_COMPOUND_CANONICALIZED>
1

> <PUBCHEM_CACTVS_COMPLEXITY>
1360

> <PUBCHEM_CACTVS_HBOND_ACCEPTOR>
11

> <PUBCHEM_CACTVS_HBOND_DONOR>
5

> <PUBCHEM_CACTVS_ROTATABLE_BOND>
3

> <PUBCHEM_CACTVS_SUBSKEYS>
AAADcfB8PAAAAAAAAAAAAAAAAAAAAAAAAAAkSAAAAAAAAAAAAAAAGgAACAAADVSggAICCAAABgCIAKDSCAIAAAAgAAAICAFAAEgZFBYAIQAiUAAF4AANoYPI6vyuAAAAAAAAAAAAAAAAAAAAAAAAAAAAAA==

> <PUBCHEM_IUPAC_OPENEYE_NAME>
(1R,4S,5E,5'R,6'R,7E,10S,11R,12S,14R,15S,16S,18R,19S,20R,21E,25R,27S,29S)-4-ethyl-11,12,15,19-tetrahydroxy-6'-[(2S)-2-hydroxypropyl]-5',10,12,14,16,18,20,29-octamethyl-spiro[24,28-dioxabicyclo[23.3.1]nonacosa-5,7,21-triene-27,2'-tetrahydropyran]-13,17,23-trione

> <PUBCHEM_IUPAC_CAS_NAME>
(1R,4S,5E,5'R,6'R,7E,10S,11R,12S,14R,15S,16S,18R,19S,20R,21E,25R,27S,29S)-4-ethyl-11,12,15,19-tetrahydroxy-6'-[(2S)-2-hydroxypropyl]-5',10,12,14,16,18,20,29-octamethylspiro[24,28-dioxabicyclo[23.3.1]nonacosa-5,7,21-triene-27,2'-oxane]-13,17,23-trione

> <PUBCHEM_IUPAC_NAME>
(1R,4S,5E,5'R,6'R,7E,10S,11R,12S,14R,15S,16S,18R,19S,20R,21E,25R,27S,29S)-4-ethyl-11,12,15,19-tetrahydroxy-6'-[(2S)-2-hydroxypropyl]-5',10,12,14,16,18,20,29-octamethylspiro[24,28-dioxabicyclo[23.3.1]nonacosa-5,7,21-triene-27,2'-oxane]-13,17,23-trione

> <PUBCHEM_IUPAC_SYSTEMATIC_NAME>
(1R,4S,5E,5'R,6'R,7E,10S,11R,12S,14R,15S,16S,18R,19S,20R,21E,25R,27S,29S)-4-ethyl-5',10,12,14,16,18,20,29-octamethyl-11,12,15,19-tetrakis(oxidanyl)-6'-[(2S)-2-oxidanylpropyl]spiro[24,28-dioxabicyclo[23.3.1]nonacosa-5,7,21-triene-27,2'-oxane]-13,17,23-trione

> <PUBCHEM_IUPAC_TRADITIONAL_NAME>
(1R,4S,5E,5'R,6'R,7E,10S,11R,12S,14R,15S,16S,18R,19S,20R,21E,25R,27S,29S)-4-ethyl-11,12,15,19-tetrahydroxy-6'-[(2S)-2-hydroxypropyl]-5',10,12,14,16,18,20,29-octamethyl-spiro[24,28-dioxabicyclo[23.3.1]nonacosa-5,7,21-triene-27,2'-tetrahydropyran]-13,17,23-trione

> <PUBCHEM_IUPAC_INCHI>
InChI=1S/C44H72O11/c1-11-33-16-14-12-13-15-27(4)41(50)43(10,52)42(51)32(9)40(49)31(8)39(48)30(7)38(47)26(3)17-20-37(46)53-36-24-44(54-34(19-18-33)29(36)6)22-21-25(2)35(55-44)23-28(5)45/h12-14,16-17,20,25-36,38,40-41,45,47,49-50,52H,11,15,18-19,21-24H2,1-10H3/b13-12+,16-14+,20-17+/t25-,26-,27+,28+,29+,30-,31-,32-,33-,34-,35-,36-,38+,40+,41-,43+,44-/m1/s1

> <PUBCHEM_IUPAC_INCHIKEY>
LVWVMRBMGDJZLM-WXPRFNGZSA-N

> <PUBCHEM_XLOGP3_AA>
6.6

> <PUBCHEM_EXACT_MASS>
776.507463

> <PUBCHEM_MOLECULAR_FORMULA>
C44H72O11

> <PUBCHEM_MOLECULAR_WEIGHT>
777.03588

> <PUBCHEM_OPENEYE_CAN_SMILES>
CCC1CCC2C(C(CC3(O2)CCC(C(O3)CC(C)O)C)OC(=O)C=CC(C(C(C(=O)C(C(C(C(=O)C(C(C(CC=CC=C1)C)O)(C)O)C)O)C)C)O)C)C

> <PUBCHEM_OPENEYE_ISO_SMILES>
CC[C@H]\1CC[C@@H]2[C@@H]([C@@H](C[C@@]3(O2)CC[C@H]([C@H](O3)C[C@H](C)O)C)OC(=O)/C=C/[C@H]([C@@H]([C@H](C(=O)[C@H]([C@@H]([C@H](C(=O)[C@@]([C@@H]([C@H](C/C=C/C=C1)C)O)(C)O)C)O)C)C)O)C)C

> <PUBCHEM_CACTVS_TPSA>
180

> <PUBCHEM_MONOISOTOPIC_WEIGHT>
776.507463

> <PUBCHEM_TOTAL_CHARGE>
0

> <PUBCHEM_HEAVY_ATOM_COUNT>
55

> <PUBCHEM_ATOM_DEF_STEREO_COUNT>
17

> <PUBCHEM_ATOM_UDEF_STEREO_COUNT>
0

> <PUBCHEM_BOND_DEF_STEREO_COUNT>
3

> <PUBCHEM_BOND_UDEF_STEREO_COUNT>
0

> <PUBCHEM_ISOTOPIC_ATOM_COUNT>
0

> <PUBCHEM_COMPONENT_COUNT>
1

> <PUBCHEM_CACTVS_TAUTO_COUNT>
6

> <PUBCHEM_COORDINATE_TYPE>
1
5
255

> <PUBCHEM_BONDANNOTATIONS>
14  23  5
16  61  6
17  62  6
18  24  6
19  22  6
12  2  6
27  28  5
36  49  5
38  51  6
26  4  5
40  54  6
41  53  5
44  55  6
37  6  6
39  7  5
42  8  6
43  9  6

$$$$

