125004
  -OEChem-07051212492D

 34 34  0     1  0  0  0  0  0999 V2000
    6.8671    1.7035    0.0000 P   0  0  0  0  0  0  0  0  0  0  0  0
    3.4030   -0.2965    0.0000 P   0  0  0  0  0  0  0  0  0  0  0  0
    6.0010    1.2035    0.0000 O   0  0  0  0  0  0  0  0  0  0  0  0
    4.2690    0.2035    0.0000 O   0  0  0  0  0  0  0  0  0  0  0  0
    7.7331    0.2035    0.0000 O   0  0  0  0  0  0  0  0  0  0  0  0
    4.2690   -1.7965    0.0000 O   0  0  0  0  0  0  0  0  0  0  0  0
    7.7331   -1.7965    0.0000 O   0  0  0  0  0  0  0  0  0  0  0  0
    6.0010   -2.7965    0.0000 O   0  0  0  0  0  0  0  0  0  0  0  0
    7.7331    2.2035    0.0000 O   0  0  0  0  0  0  0  0  0  0  0  0
    6.3671    2.5695    0.0000 O   0  0  0  0  0  0  0  0  0  0  0  0
    2.5369   -0.7965    0.0000 O   0  0  0  0  0  0  0  0  0  0  0  0
    2.9030    0.5695    0.0000 O   0  0  0  0  0  0  0  0  0  0  0  0
    7.3671    0.8375    0.0000 O   0  0  0  0  0  0  0  0  0  0  0  0
    3.9030   -1.1625    0.0000 O   0  0  0  0  0  0  0  0  0  0  0  0
    6.0010    0.2035    0.0000 C   0  0  1  0  0  0  0  0  0  0  0  0
    5.1350   -0.2965    0.0000 C   0  0  1  0  0  0  0  0  0  0  0  0
    6.8671   -0.2965    0.0000 C   0  0  2  0  0  0  0  0  0  0  0  0
    5.1350   -1.2965    0.0000 C   0  0  2  0  0  0  0  0  0  0  0  0
    6.8671   -1.2965    0.0000 C   0  0  2  0  0  0  0  0  0  0  0  0
    6.0010   -1.7965    0.0000 C   0  0  1  0  0  0  0  0  0  0  0  0
    6.5380    0.5135    0.0000 H   0  0  0  0  0  0  0  0  0  0  0  0
    5.1350    0.3235    0.0000 H   0  0  0  0  0  0  0  0  0  0  0  0
    7.4040   -0.6065    0.0000 H   0  0  0  0  0  0  0  0  0  0  0  0
    5.1350   -1.9165    0.0000 H   0  0  0  0  0  0  0  0  0  0  0  0
    7.4040   -0.9865    0.0000 H   0  0  0  0  0  0  0  0  0  0  0  0
    6.5380   -2.1065    0.0000 H   0  0  0  0  0  0  0  0  0  0  0  0
    8.2700   -0.1065    0.0000 H   0  0  0  0  0  0  0  0  0  0  0  0
    4.2690   -2.4165    0.0000 H   0  0  0  0  0  0  0  0  0  0  0  0
    7.7331   -2.4165    0.0000 H   0  0  0  0  0  0  0  0  0  0  0  0
    6.5380   -3.1065    0.0000 H   0  0  0  0  0  0  0  0  0  0  0  0
    6.6771    3.1065    0.0000 H   0  0  0  0  0  0  0  0  0  0  0  0
    7.7331    2.8235    0.0000 H   0  0  0  0  0  0  0  0  0  0  0  0
    2.0000   -0.4865    0.0000 H   0  0  0  0  0  0  0  0  0  0  0  0
    2.2830    0.5695    0.0000 H   0  0  0  0  0  0  0  0  0  0  0  0
  1  3  1  0  0  0  0
  1  9  1  0  0  0  0
  1 10  1  0  0  0  0
  1 13  2  0  0  0  0
  2  4  1  0  0  0  0
  2 11  1  0  0  0  0
  2 12  1  0  0  0  0
  2 14  2  0  0  0  0
 15  3  1  6  0  0  0
 16  4  1  1  0  0  0
 17  5  1  1  0  0  0
  5 27  1  0  0  0  0
 18  6  1  6  0  0  0
  6 28  1  0  0  0  0
 19  7  1  1  0  0  0
  7 29  1  0  0  0  0
 20  8  1  1  0  0  0
  8 30  1  0  0  0  0
  9 32  1  0  0  0  0
 10 31  1  0  0  0  0
 11 33  1  0  0  0  0
 12 34  1  0  0  0  0
 15 16  1  0  0  0  0
 15 17  1  0  0  0  0
 15 21  1  0  0  0  0
 16 18  1  0  0  0  0
 16 22  1  0  0  0  0
 17 19  1  0  0  0  0
 17 23  1  0  0  0  0
 18 20  1  0  0  0  0
 18 24  1  0  0  0  0
 19 20  1  0  0  0  0
 19 25  1  0  0  0  0
 20 26  1  0  0  0  0
M  END
> <PUBCHEM_COMPOUND_CID>
125004

> <PUBCHEM_COMPOUND_CANONICALIZED>
1

> <PUBCHEM_CACTVS_COMPLEXITY>
388

> <PUBCHEM_CACTVS_HBOND_ACCEPTOR>
12

> <PUBCHEM_CACTVS_HBOND_DONOR>
8

> <PUBCHEM_CACTVS_ROTATABLE_BOND>
4

> <PUBCHEM_CACTVS_SUBSKEYS>
AAADccBgPAMAAAAAAAAAAAAAAAAAAAAAAAAwAAAAAAAAAAAAAAAAGgAACCAACBSggAIAAAAAAxAAQAAAAIAAAAAAAAAAAAAAAAABEAIAAAAAQAAFAAABAAHAYAQAAAAAAAAAAAACAAAQAACAAAAAAAAAAA==

> <PUBCHEM_IUPAC_OPENEYE_NAME>
[(1R,2S,3S,4R,5S,6R)-2,3,4,5-tetrahydroxy-6-phosphonooxy-cyclohexyl] dihydrogen phosphate

> <PUBCHEM_IUPAC_CAS_NAME>
[(1R,2S,3S,4R,5S,6R)-2,3,4,5-tetrahydroxy-6-phosphonooxycyclohexyl] dihydrogen phosphate

> <PUBCHEM_IUPAC_NAME>
[(1R,2S,3S,4R,5S,6R)-2,3,4,5-tetrahydroxy-6-phosphonooxycyclohexyl] dihydrogen phosphate

> <PUBCHEM_IUPAC_SYSTEMATIC_NAME>
[(1R,2S,3S,4R,5S,6R)-2,3,4,5-tetrakis(oxidanyl)-6-phosphonooxy-cyclohexyl] dihydrogen phosphate

> <PUBCHEM_IUPAC_TRADITIONAL_NAME>
[(1R,2S,3S,4R,5S,6R)-2,3,4,5-tetrahydroxy-6-phosphonooxy-cyclohexyl] dihydrogen phosphate

> <PUBCHEM_IUPAC_INCHI>
InChI=1S/C6H14O12P2/c7-1-2(8)4(10)6(18-20(14,15)16)5(3(1)9)17-19(11,12)13/h1-10H,(H2,11,12,13)(H2,14,15,16)/t1-,2+,3-,4-,5+,6+/m0/s1

> <PUBCHEM_IUPAC_INCHIKEY>
MCKAJXMRULSUKI-UZAAGFTCSA-N

> <PUBCHEM_XLOGP3_AA>
-5.9

> <PUBCHEM_EXACT_MASS>
339.996049

> <PUBCHEM_MOLECULAR_FORMULA>
C6H14O12P2

> <PUBCHEM_MOLECULAR_WEIGHT>
340.115684

> <PUBCHEM_OPENEYE_CAN_SMILES>
C1(C(C(C(C(C1O)OP(=O)(O)O)OP(=O)(O)O)O)O)O

> <PUBCHEM_OPENEYE_ISO_SMILES>
[C@H]1([C@@H]([C@@H]([C@H]([C@@H]([C@H]1O)OP(=O)(O)O)OP(=O)(O)O)O)O)O

> <PUBCHEM_CACTVS_TPSA>
214

> <PUBCHEM_MONOISOTOPIC_WEIGHT>
339.996049

> <PUBCHEM_TOTAL_CHARGE>
0

> <PUBCHEM_HEAVY_ATOM_COUNT>
20

> <PUBCHEM_ATOM_DEF_STEREO_COUNT>
6

> <PUBCHEM_ATOM_UDEF_STEREO_COUNT>
0

> <PUBCHEM_BOND_DEF_STEREO_COUNT>
0

> <PUBCHEM_BOND_UDEF_STEREO_COUNT>
0

> <PUBCHEM_ISOTOPIC_ATOM_COUNT>
0

> <PUBCHEM_COMPONENT_COUNT>
1

> <PUBCHEM_CACTVS_TAUTO_COUNT>
1

> <PUBCHEM_COORDINATE_TYPE>
1
5
255

> <PUBCHEM_BONDANNOTATIONS>
15  3  6
16  4  5
17  5  5
18  6  6
19  7  5
20  8  5

$$$$

