   Color/Form
        Fine, white, microcrystalline powder
   from [1]HSDB

   Odor
        Odorless
   from [2]HSDB

   Taste
        Bitter
   from [3]HSDB

   Melting Point
        165-168 deg C
   from [4]HSDB

   Octanol/Water Partition Coefficient
        log Kow = 1.65 [Wongo O, McKeown RH; J Pharm Sci 77: 926 (1988)]
   [5]PubMed Abstract
   from [6]HSDB

   Solubilities
        In water, 294 mg/L at 25 deg C (est)
   from [7]HSDB

   Spectral Properties
        Intense mass spectral peaks: 141 m/z, 156 m/z, 183 m/z
   from [8]HSDB

   Vapor Pressure
        2.34X10-10 mm Hg at 25 deg C (est)
   from [9]HSDB

   Other Chemical/Physical Properties

     * Bitter powder; pH (1% aq soln): from 9.0-10.2; 1 g dissolves in 2
       mL water, in about 7 mL alcohol; practically insoluble in ether,
       benzene /Butabarbital sodium salt/
     * MAX ABSORPTION (BORATE BUFFER PH 9.4): 239 NM (A= 440, 1%, 1 CM
       /SODIUM SALT/
     * WHITE POWDER; PRACTICALLY INSOL IN BENZENE & ABS ETHER /SODIUM
       SALT/
     * INDEX OF REFRACTION: 1.465 (ALPHA); 1.529 (BETA); 1.532 (GAMMA)
       /SODIUM SALT/
     * Henry's Law constant = 6.4X10-13 atm-cu m/mol at 25 deg C (est)
     * Hydroxyl radical reaction rate constant = 1.7X10-11 cu cm/molec-sec
       at 25 deg C (est)

   from [10]HSDB

   Computed Properties
   Molecular Weight                  212.24564 [g/mol]
   Molecular Formula                 C[10]H[16]N[2]O[3]
   XLogP3                            1.6
   H-Bond Donor                      2
   H-Bond Acceptor                   3
   Rotatable Bond Count              3
   Tautomer Count                    5
   Exact Mass                        212.116092
   MonoIsotopic Mass                 212.116092
   Topological Polar Surface Area    75.3
   Heavy Atom Count                  15
   Formal Charge                     0
   Complexity                        292
   Isotope Atom Count                0
   Defined Atom Stereocenter Count   0
   Undefined Atom Stereocenter Count 1
   Defined Bond Stereocenter Count   0
   Undefined Bond Stereocenter Count 0
   Covalently-Bonded Unit Count      1
   Feature 3D Acceptor Count         3
   Feature 3D Donor Count            2
   Feature 3D Hydrophobe Count       3
   Feature 3D Ring Count             1
   Effective Rotor Count             3.6
   Conformer Sampling RMSD           0.6
   CID Conformer Count               [11]9

References

   1. http://toxnet.nlm.nih.gov/cgi-bin/sis/search/r?dbs+hsdb:@term+@rn+@rel+125-40-6
   2. http://toxnet.nlm.nih.gov/cgi-bin/sis/search/r?dbs+hsdb:@term+@rn+@rel+125-40-6
   3. http://toxnet.nlm.nih.gov/cgi-bin/sis/search/r?dbs+hsdb:@term+@rn+@rel+125-40-6
   4. http://toxnet.nlm.nih.gov/cgi-bin/sis/search/r?dbs+hsdb:@term+@rn+@rel+125-40-6
   5. http://www.ncbi.nlm.nih.gov/entrez/query.fcgi?cmd=Retrieve&db=pubmed&dopt=Abstract&list_uids=3225751
   6. http://toxnet.nlm.nih.gov/cgi-bin/sis/search/r?dbs+hsdb:@term+@rn+@rel+125-40-6
   7. http://toxnet.nlm.nih.gov/cgi-bin/sis/search/r?dbs+hsdb:@term+@rn+@rel+125-40-6
   8. http://toxnet.nlm.nih.gov/cgi-bin/sis/search/r?dbs+hsdb:@term+@rn+@rel+125-40-6
   9. http://toxnet.nlm.nih.gov/cgi-bin/sis/search/r?dbs+hsdb:@term+@rn+@rel+125-40-6
  10. http://toxnet.nlm.nih.gov/cgi-bin/sis/search/r?dbs+hsdb:@term+@rn+@rel+125-40-6
  11. http://pubchem.ncbi.nlm.nih.gov/vw3d/vw3d.cgi?cid=2479
