439763
  -OEChem-07051212472D

 78 81  0     1  0  0  0  0  0999 V2000
   14.0317    3.5257    0.0000 S   0  0  0  0  0  0  0  0  0  0  0  0
    2.5357   -4.4583    0.0000 O   0  0  0  0  0  0  0  0  0  0  0  0
   12.1212    0.4679    0.0000 O   0  0  0  0  0  0  0  0  0  0  0  0
   15.0102    3.7319    0.0000 O   0  0  0  0  0  0  0  0  0  0  0  0
   13.8255    4.5042    0.0000 O   0  0  0  0  0  0  0  0  0  0  0  0
   14.2379    2.5472    0.0000 O   0  0  0  0  0  0  0  0  0  0  0  0
   11.7640    2.1627    0.0000 N   0  0  0  0  0  0  0  0  0  0  0  0
    7.9288   -1.4060    0.0000 C   0  0  1  0  0  0  0  0  0  0  0  0
    7.9288   -2.4060    0.0000 C   0  0  2  0  0  0  0  0  0  0  0  0
    7.0628   -2.9060    0.0000 C   0  0  1  0  0  0  0  0  0  0  0  0
    6.1968   -2.4060    0.0000 C   0  0  1  0  0  0  0  0  0  0  0  0
    5.2868   -2.9129    0.0000 C   0  0  2  0  0  0  0  0  0  0  0  0
    8.8750   -1.1013    0.0000 C   0  0  2  0  0  0  0  0  0  0  0  0
    7.0628   -0.9060    0.0000 C   0  0  0  0  0  0  0  0  0  0  0  0
    5.2787   -3.9545    0.0000 C   0  0  2  0  0  0  0  0  0  0  0  0
    6.1968   -1.4060    0.0000 C   0  0  0  0  0  0  0  0  0  0  0  0
    8.8750   -2.7107    0.0000 C   0  0  0  0  0  0  0  0  0  0  0  0
    7.0789   -3.9475    0.0000 C   0  0  0  0  0  0  0  0  0  0  0  0
    9.4586   -1.9060    0.0000 C   0  0  0  0  0  0  0  0  0  0  0  0
    6.1808   -4.4753    0.0000 C   0  0  0  0  0  0  0  0  0  0  0  0
    4.3599   -2.3488    0.0000 C   0  0  0  0  0  0  0  0  0  0  0  0
    7.9288   -0.4060    0.0000 C   0  0  0  0  0  0  0  0  0  0  0  0
    9.1857   -0.1508    0.0000 C   0  0  1  0  0  0  0  0  0  0  0  0
    4.3433   -4.5042    0.0000 C   0  0  0  0  0  0  0  0  0  0  0  0
    5.2945   -1.9129    0.0000 C   0  0  0  0  0  0  0  0  0  0  0  0
    3.4120   -2.8767    0.0000 C   0  0  0  0  0  0  0  0  0  0  0  0
    3.4037   -3.9617    0.0000 C   0  0  1  0  0  0  0  0  0  0  0  0
   10.1642    0.0555    0.0000 C   0  0  0  0  0  0  0  0  0  0  0  0
    8.5179    0.5935    0.0000 C   0  0  0  0  0  0  0  0  0  0  0  0
   10.4749    1.0060    0.0000 C   0  0  0  0  0  0  0  0  0  0  0  0
   11.4534    1.2122    0.0000 C   0  0  0  0  0  0  0  0  0  0  0  0
   12.7425    2.3689    0.0000 C   0  0  0  0  0  0  0  0  0  0  0  0
   13.0532    3.3195    0.0000 C   0  0  0  0  0  0  0  0  0  0  0  0
    8.0188   -3.2512    0.0000 H   0  0  0  0  0  0  0  0  0  0  0  0
    7.8022   -3.3253    0.0000 H   0  0  0  0  0  0  0  0  0  0  0  0
    6.9329   -1.9810    0.0000 H   0  0  0  0  0  0  0  0  0  0  0  0
    9.7148   -0.9694    0.0000 H   0  0  0  0  0  0  0  0  0  0  0  0
    7.4613   -0.4311    0.0000 H   0  0  0  0  0  0  0  0  0  0  0  0
    6.6643   -0.4311    0.0000 H   0  0  0  0  0  0  0  0  0  0  0  0
    5.2820   -4.8044    0.0000 H   0  0  0  0  0  0  0  0  0  0  0  0
    5.9847   -0.8234    0.0000 H   0  0  0  0  0  0  0  0  0  0  0  0
    5.5862   -1.5137    0.0000 H   0  0  0  0  0  0  0  0  0  0  0  0
    8.6240   -3.2776    0.0000 H   0  0  0  0  0  0  0  0  0  0  0  0
    9.4124   -3.0200    0.0000 H   0  0  0  0  0  0  0  0  0  0  0  0
    7.2969   -4.5279    0.0000 H   0  0  0  0  0  0  0  0  0  0  0  0
    7.6880   -3.8320    0.0000 H   0  0  0  0  0  0  0  0  0  0  0  0
    9.9195   -2.3207    0.0000 H   0  0  0  0  0  0  0  0  0  0  0  0
    9.9195   -1.4913    0.0000 H   0  0  0  0  0  0  0  0  0  0  0  0
    5.7835   -4.9512    0.0000 H   0  0  0  0  0  0  0  0  0  0  0  0
    6.5818   -4.9482    0.0000 H   0  0  0  0  0  0  0  0  0  0  0  0
    4.7681   -1.8821    0.0000 H   0  0  0  0  0  0  0  0  0  0  0  0
    3.9700   -1.8667    0.0000 H   0  0  0  0  0  0  0  0  0  0  0  0
    8.5488   -0.4060    0.0000 H   0  0  0  0  0  0  0  0  0  0  0  0
    7.9288    0.2140    0.0000 H   0  0  0  0  0  0  0  0  0  0  0  0
    7.3088   -0.4060    0.0000 H   0  0  0  0  0  0  0  0  0  0  0  0
    9.3783    0.4386    0.0000 H   0  0  0  0  0  0  0  0  0  0  0  0
    3.9460   -4.9802    0.0000 H   0  0  0  0  0  0  0  0  0  0  0  0
    4.7443   -4.9771    0.0000 H   0  0  0  0  0  0  0  0  0  0  0  0
    5.9145   -1.9177    0.0000 H   0  0  0  0  0  0  0  0  0  0  0  0
    5.2993   -1.2929    0.0000 H   0  0  0  0  0  0  0  0  0  0  0  0
    4.6745   -1.9081    0.0000 H   0  0  0  0  0  0  0  0  0  0  0  0
    3.2075   -2.2914    0.0000 H   0  0  0  0  0  0  0  0  0  0  0  0
    2.8004   -2.9781    0.0000 H   0  0  0  0  0  0  0  0  0  0  0  0
    3.4025   -4.5817    0.0000 H   0  0  0  0  0  0  0  0  0  0  0  0
   10.1848   -0.5642    0.0000 H   0  0  0  0  0  0  0  0  0  0  0  0
   10.7780   -0.0319    0.0000 H   0  0  0  0  0  0  0  0  0  0  0  0
    8.9793    1.0076    0.0000 H   0  0  0  0  0  0  0  0  0  0  0  0
    8.1038    1.0550    0.0000 H   0  0  0  0  0  0  0  0  0  0  0  0
    8.0564    0.1795    0.0000 H   0  0  0  0  0  0  0  0  0  0  0  0
    2.0000   -4.1463    0.0000 H   0  0  0  0  0  0  0  0  0  0  0  0
   10.4543    1.6256    0.0000 H   0  0  0  0  0  0  0  0  0  0  0  0
    9.8611    1.0933    0.0000 H   0  0  0  0  0  0  0  0  0  0  0  0
   11.3500    2.6242    0.0000 H   0  0  0  0  0  0  0  0  0  0  0  0
   12.7631    1.7493    0.0000 H   0  0  0  0  0  0  0  0  0  0  0  0
   13.3564    2.2816    0.0000 H   0  0  0  0  0  0  0  0  0  0  0  0
   13.0326    3.9391    0.0000 H   0  0  0  0  0  0  0  0  0  0  0  0
   12.4394    3.4068    0.0000 H   0  0  0  0  0  0  0  0  0  0  0  0
   15.2028    4.3212    0.0000 H   0  0  0  0  0  0  0  0  0  0  0  0
  1  4  1  0  0  0  0
  1  5  2  0  0  0  0
  1  6  2  0  0  0  0
  1 33  1  0  0  0  0
 27  2  1  6  0  0  0
  2 70  1  0  0  0  0
  3 31  2  0  0  0  0
  4 78  1  0  0  0  0
  7 31  1  0  0  0  0
  7 32  1  0  0  0  0
  7 73  1  0  0  0  0
  8  9  1  0  0  0  0
  8 13  1  0  0  0  0
  8 14  1  0  0  0  0
  8 22  1  1  0  0  0
  9 10  1  0  0  0  0
  9 17  1  0  0  0  0
  9 34  1  6  0  0  0
 10 11  1  0  0  0  0
 10 18  1  0  0  0  0
 10 35  1  1  0  0  0
 11 12  1  0  0  0  0
 11 16  1  0  0  0  0
 11 36  1  6  0  0  0
 12 15  1  0  0  0  0
 12 21  1  0  0  0  0
 12 25  1  1  0  0  0
 13 19  1  0  0  0  0
 13 23  1  0  0  0  0
 13 37  1  6  0  0  0
 14 16  1  0  0  0  0
 14 38  1  0  0  0  0
 14 39  1  0  0  0  0
 15 20  1  0  0  0  0
 15 24  1  0  0  0  0
 15 40  1  1  0  0  0
 16 41  1  0  0  0  0
 16 42  1  0  0  0  0
 17 19  1  0  0  0  0
 17 43  1  0  0  0  0
 17 44  1  0  0  0  0
 18 20  1  0  0  0  0
 18 45  1  0  0  0  0
 18 46  1  0  0  0  0
 19 47  1  0  0  0  0
 19 48  1  0  0  0  0
 20 49  1  0  0  0  0
 20 50  1  0  0  0  0
 21 26  1  0  0  0  0
 21 51  1  0  0  0  0
 21 52  1  0  0  0  0
 22 53  1  0  0  0  0
 22 54  1  0  0  0  0
 22 55  1  0  0  0  0
 23 28  1  0  0  0  0
 23 29  1  6  0  0  0
 23 56  1  0  0  0  0
 24 27  1  0  0  0  0
 24 57  1  0  0  0  0
 24 58  1  0  0  0  0
 25 59  1  0  0  0  0
 25 60  1  0  0  0  0
 25 61  1  0  0  0  0
 26 27  1  0  0  0  0
 26 62  1  0  0  0  0
 26 63  1  0  0  0  0
 27 64  1  0  0  0  0
 28 30  1  0  0  0  0
 28 65  1  0  0  0  0
 28 66  1  0  0  0  0
 29 67  1  0  0  0  0
 29 68  1  0  0  0  0
 29 69  1  0  0  0  0
 30 31  1  0  0  0  0
 30 71  1  0  0  0  0
 30 72  1  0  0  0  0
 32 33  1  0  0  0  0
 32 74  1  0  0  0  0
 32 75  1  0  0  0  0
 33 76  1  0  0  0  0
 33 77  1  0  0  0  0
M  END
> <PUBCHEM_COMPOUND_CID>
439763

> <PUBCHEM_COMPOUND_CANONICALIZED>
1

> <PUBCHEM_CACTVS_COMPLEXITY>
825

> <PUBCHEM_CACTVS_HBOND_ACCEPTOR>
5

> <PUBCHEM_CACTVS_HBOND_DONOR>
3

> <PUBCHEM_CACTVS_ROTATABLE_BOND>
7

> <PUBCHEM_CACTVS_SUBSKEYS>
AAADcfB6OABAAAAAAAAAAAAAAAAAAYAAAAAwYMAAAAAAAGDAAAAAHgQQCAAADxTlwAaCAALAAoIIAAEQEHBAAAAAAAAAAIEIAAAAEBIAgAAEQAAEFgCAAAGYyPCPgAAAAAAAAADAAAYAACAAAQAACAAAAA==

> <PUBCHEM_IUPAC_OPENEYE_NAME>
2-[[(4R)-4-[(3R,5R,8R,9S,10S,13R,14S,17R)-3-hydroxy-10,13-dimethyl-2,3,4,5,6,7,8,9,11,12,14,15,16,17-tetradecahydro-1H-cyclopenta[a]phenanthren-17-yl]pentanoyl]amino]ethanesulfonic acid

> <PUBCHEM_IUPAC_CAS_NAME>
2-[[(4R)-4-[(3R,5R,8R,9S,10S,13R,14S,17R)-3-hydroxy-10,13-dimethyl-2,3,4,5,6,7,8,9,11,12,14,15,16,17-tetradecahydro-1H-cyclopenta[a]phenanthren-17-yl]-1-oxopentyl]amino]ethanesulfonic acid

> <PUBCHEM_IUPAC_NAME>
2-[[(4R)-4-[(3R,5R,8R,9S,10S,13R,14S,17R)-3-hydroxy-10,13-dimethyl-2,3,4,5,6,7,8,9,11,12,14,15,16,17-tetradecahydro-1H-cyclopenta[a]phenanthren-17-yl]pentanoyl]amino]ethanesulfonic acid

> <PUBCHEM_IUPAC_SYSTEMATIC_NAME>
2-[[(4R)-4-[(3R,5R,8R,9S,10S,13R,14S,17R)-10,13-dimethyl-3-oxidanyl-2,3,4,5,6,7,8,9,11,12,14,15,16,17-tetradecahydro-1H-cyclopenta[a]phenanthren-17-yl]pentanoyl]amino]ethanesulfonic acid

> <PUBCHEM_IUPAC_TRADITIONAL_NAME>
2-[[(4R)-4-[(3R,5R,8R,9S,10S,13R,14S,17R)-3-hydroxy-10,13-dimethyl-2,3,4,5,6,7,8,9,11,12,14,15,16,17-tetradecahydro-1H-cyclopenta[a]phenanthren-17-yl]pentanoyl]amino]ethanesulfonic acid

> <PUBCHEM_IUPAC_INCHI>
InChI=1S/C26H45NO5S/c1-17(4-9-24(29)27-14-15-33(30,31)32)21-7-8-22-20-6-5-18-16-19(28)10-12-25(18,2)23(20)11-13-26(21,22)3/h17-23,28H,4-16H2,1-3H3,(H,27,29)(H,30,31,32)/t17-,18-,19-,20+,21-,22+,23+,25+,26-/m1/s1

> <PUBCHEM_IUPAC_INCHIKEY>
QBYUNVOYXHFVKC-GBURMNQMSA-N

> <PUBCHEM_XLOGP3_AA>
4.9

> <PUBCHEM_EXACT_MASS>
483.301845

> <PUBCHEM_MOLECULAR_FORMULA>
C26H45NO5S

> <PUBCHEM_MOLECULAR_WEIGHT>
483.7042

> <PUBCHEM_OPENEYE_CAN_SMILES>
CC(CCC(=O)NCCS(=O)(=O)O)C1CCC2C1(CCC3C2CCC4C3(CCC(C4)O)C)C

> <PUBCHEM_OPENEYE_ISO_SMILES>
C[C@H](CCC(=O)NCCS(=O)(=O)O)[C@H]1CC[C@@H]2[C@@]1(CC[C@H]3[C@H]2CC[C@H]4[C@@]3(CC[C@H](C4)O)C)C

> <PUBCHEM_CACTVS_TPSA>
112

> <PUBCHEM_MONOISOTOPIC_WEIGHT>
483.301845

> <PUBCHEM_TOTAL_CHARGE>
0

> <PUBCHEM_HEAVY_ATOM_COUNT>
33

> <PUBCHEM_ATOM_DEF_STEREO_COUNT>
9

> <PUBCHEM_ATOM_UDEF_STEREO_COUNT>
0

> <PUBCHEM_BOND_DEF_STEREO_COUNT>
0

> <PUBCHEM_BOND_UDEF_STEREO_COUNT>
0

> <PUBCHEM_ISOTOPIC_ATOM_COUNT>
0

> <PUBCHEM_COMPONENT_COUNT>
1

> <PUBCHEM_CACTVS_TAUTO_COUNT>
2

> <PUBCHEM_COORDINATE_TYPE>
1
5
255

> <PUBCHEM_BONDANNOTATIONS>
10  35  5
11  36  6
12  25  5
13  37  6
15  40  5
27  2  6
23  29  6
8  22  5
9  34  6

$$$$

