4645
  -OEChem-06261200152D

 57 60  0     1  0  0  0  0  0999 V2000
    6.9338    1.9246    0.0000 O   0  0  0  0  0  0  0  0  0  0  0  0
    6.0678   -1.5754    0.0000 O   0  0  0  0  0  0  0  0  0  0  0  0
    9.1837    1.8310    0.0000 O   0  0  0  0  0  0  0  0  0  0  0  0
    6.9338   -2.0754    0.0000 O   0  0  0  0  0  0  0  0  0  0  0  0
    8.6822   -2.1100    0.0000 O   0  0  0  0  0  0  0  0  0  0  0  0
    4.6839   -1.9818    0.0000 O   0  0  0  0  0  0  0  0  0  0  0  0
    3.4037    0.9488    0.0000 O   0  0  0  0  0  0  0  0  0  0  0  0
   10.5194   -2.1530    0.0000 O   0  0  0  0  0  0  0  0  0  0  0  0
    3.4075   -2.0995    0.0000 O   0  0  0  0  0  0  0  0  0  0  0  0
    5.1854    1.9592    0.0000 N   0  0  0  0  0  0  0  0  0  0  0  0
    2.5357   -0.6029    0.0000 N   0  0  0  0  0  0  0  0  0  0  0  0
    6.0678    0.4246    0.0000 C   0  0  3  0  0  0  0  0  0  0  0  0
    7.7998    0.4246    0.0000 C   0  0  3  0  0  0  0  0  0  0  0  0
    6.9338    0.9246    0.0000 C   0  0  3  0  0  0  0  0  0  0  0  0
    6.0678   -0.5754    0.0000 C   0  0  3  0  0  0  0  0  0  0  0  0
    5.1738    0.9593    0.0000 C   0  0  3  0  0  0  0  0  0  0  0  0
    8.6938    0.9593    0.0000 C   0  0  3  0  0  0  0  0  0  0  0  0
    7.7998   -0.5754    0.0000 C   0  0  0  0  0  0  0  0  0  0  0  0
    6.9338   -1.0754    0.0000 C   0  0  0  0  0  0  0  0  0  0  0  0
    5.1738   -1.1100    0.0000 C   0  0  0  0  0  0  0  0  0  0  0  0
    9.5998    0.4455    0.0000 C   0  0  0  0  0  0  0  0  0  0  0  0
    4.2678    0.4455    0.0000 C   0  0  0  0  0  0  0  0  0  0  0  0
    8.6938   -1.1100    0.0000 C   0  0  0  0  0  0  0  0  0  0  0  0
    8.1838    1.8195    0.0000 C   0  0  0  0  0  0  0  0  0  0  0  0
    9.5998   -0.5962    0.0000 C   0  0  0  0  0  0  0  0  0  0  0  0
    4.2678   -0.5962    0.0000 C   0  0  0  0  0  0  0  0  0  0  0  0
   10.5310    1.0024    0.0000 C   0  0  0  0  0  0  0  0  0  0  0  0
    4.3252    2.4692    0.0000 C   0  0  0  0  0  0  0  0  0  0  0  0
    6.0572    2.4492    0.0000 C   0  0  0  0  0  0  0  0  0  0  0  0
   10.5310   -1.1531    0.0000 C   0  0  0  0  0  0  0  0  0  0  0  0
    3.4037   -1.0995    0.0000 C   0  0  0  0  0  0  0  0  0  0  0  0
   11.4748    0.4671    0.0000 C   0  0  0  0  0  0  0  0  0  0  0  0
   11.4748   -0.6179    0.0000 C   0  0  0  0  0  0  0  0  0  0  0  0
    6.0743    1.2746    0.0000 H   0  0  0  0  0  0  0  0  0  0  0  0
    7.7933    1.2746    0.0000 H   0  0  0  0  0  0  0  0  0  0  0  0
    6.1977    1.3496    0.0000 H   0  0  0  0  0  0  0  0  0  0  0  0
    5.9156    1.3743    0.0000 H   0  0  0  0  0  0  0  0  0  0  0  0
    8.7171    2.1357    0.0000 H   0  0  0  0  0  0  0  0  0  0  0  0
    7.8676    2.3528    0.0000 H   0  0  0  0  0  0  0  0  0  0  0  0
    7.6505    1.5033    0.0000 H   0  0  0  0  0  0  0  0  0  0  0  0
    7.4707    2.2346    0.0000 H   0  0  0  0  0  0  0  0  0  0  0  0
    5.7578   -2.1123    0.0000 H   0  0  0  0  0  0  0  0  0  0  0  0
    8.8675    2.3644    0.0000 H   0  0  0  0  0  0  0  0  0  0  0  0
   10.5238    1.6223    0.0000 H   0  0  0  0  0  0  0  0  0  0  0  0
    6.3609    1.9087    0.0000 H   0  0  0  0  0  0  0  0  0  0  0  0
    6.5976    2.7530    0.0000 H   0  0  0  0  0  0  0  0  0  0  0  0
    5.7534    2.9897    0.0000 H   0  0  0  0  0  0  0  0  0  0  0  0
    4.6414    3.0025    0.0000 H   0  0  0  0  0  0  0  0  0  0  0  0
    3.7919    2.7854    0.0000 H   0  0  0  0  0  0  0  0  0  0  0  0
    4.0090    1.9359    0.0000 H   0  0  0  0  0  0  0  0  0  0  0  0
    9.2155   -2.4261    0.0000 H   0  0  0  0  0  0  0  0  0  0  0  0
   12.0105    0.7792    0.0000 H   0  0  0  0  0  0  0  0  0  0  0  0
   12.0105   -0.9299    0.0000 H   0  0  0  0  0  0  0  0  0  0  0  0
    2.0000   -0.9149    0.0000 H   0  0  0  0  0  0  0  0  0  0  0  0
    2.5334    0.0171    0.0000 H   0  0  0  0  0  0  0  0  0  0  0  0
   11.0528   -2.4692    0.0000 H   0  0  0  0  0  0  0  0  0  0  0  0
    2.8718   -2.4116    0.0000 H   0  0  0  0  0  0  0  0  0  0  0  0
  1 14  1  0  0  0  0
  1 41  1  0  0  0  0
  2 15  1  0  0  0  0
  2 42  1  0  0  0  0
  3 17  1  0  0  0  0
  3 43  1  0  0  0  0
  4 19  2  0  0  0  0
  5 23  1  0  0  0  0
  5 51  1  0  0  0  0
  6 20  2  0  0  0  0
  7 22  2  0  0  0  0
  8 30  1  0  0  0  0
  8 56  1  0  0  0  0
  9 31  1  0  0  0  0
  9 57  1  0  0  0  0
 10 16  1  0  0  0  0
 10 28  1  0  0  0  0
 10 29  1  0  0  0  0
 11 31  1  0  0  0  0
 11 54  1  0  0  0  0
 11 55  1  0  0  0  0
 12 14  1  0  0  0  0
 12 15  1  0  0  0  0
 12 16  1  0  0  0  0
 12 34  1  0  0  0  0
 13 14  1  0  0  0  0
 13 17  1  0  0  0  0
 13 18  1  0  0  0  0
 13 35  1  0  0  0  0
 14 36  1  0  0  0  0
 15 19  1  0  0  0  0
 15 20  1  0  0  0  0
 16 22  1  0  0  0  0
 16 37  1  0  0  0  0
 17 21  1  0  0  0  0
 17 24  1  0  0  0  0
 18 19  1  0  0  0  0
 18 23  2  0  0  0  0
 20 26  1  0  0  0  0
 21 25  2  0  0  0  0
 21 27  1  0  0  0  0
 22 26  1  0  0  0  0
 23 25  1  0  0  0  0
 24 38  1  0  0  0  0
 24 39  1  0  0  0  0
 24 40  1  0  0  0  0
 25 30  1  0  0  0  0
 26 31  2  3  0  0  0
 27 32  2  0  0  0  0
 27 44  1  0  0  0  0
 28 48  1  0  0  0  0
 28 49  1  0  0  0  0
 28 50  1  0  0  0  0
 29 45  1  0  0  0  0
 29 46  1  0  0  0  0
 29 47  1  0  0  0  0
 30 33  2  0  0  0  0
 32 33  1  0  0  0  0
 32 52  1  0  0  0  0
 33 53  1  0  0  0  0
M  END
> <PUBCHEM_COMPOUND_CID>
4645

> <PUBCHEM_COMPOUND_CANONICALIZED>
1

> <PUBCHEM_CACTVS_COMPLEXITY>
1000

> <PUBCHEM_CACTVS_HBOND_ACCEPTOR>
11

> <PUBCHEM_CACTVS_HBOND_DONOR>
7

> <PUBCHEM_CACTVS_ROTATABLE_BOND>
1

> <PUBCHEM_CACTVS_SUBSKEYS>
AAADceB7PAAAAAAAAAAAAAAAAAAAAAAAAAAwYMEAAAAAAADBAAAAHgAQCAAADXzhmAYyBoNAAgCIAqBSQAICAAAgIAAIiAHOCMkINzKKkTKEcAAnwBEImUfe+veugAABAAAYAADAAAaUADQAAAAAAAAAAA==

> <PUBCHEM_IUPAC_OPENEYE_NAME>
2-[amino(hydroxy)methylene]-4-(dimethylamino)-5,6,10,11,12a-pentahydroxy-6-methyl-4,4a,5,5a-tetrahydrotetracene-1,3,12-trione

> <PUBCHEM_IUPAC_CAS_NAME>
2-[amino(hydroxy)methylidene]-4-(dimethylamino)-5,6,10,11,12a-pentahydroxy-6-methyl-4,4a,5,5a-tetrahydrotetracene-1,3,12-trione

> <PUBCHEM_IUPAC_NAME>
2-[amino(hydroxy)methylidene]-4-(dimethylamino)-5,6,10,11,12a-pentahydroxy-6-methyl-4,4a,5,5a-tetrahydrotetracene-1,3,12-trione

> <PUBCHEM_IUPAC_SYSTEMATIC_NAME>
2-[azanyl(oxidanyl)methylidene]-4-(dimethylamino)-6-methyl-5,6,10,11,12a-pentakis(oxidanyl)-4,4a,5,5a-tetrahydrotetracene-1,3,12-trione

> <PUBCHEM_IUPAC_TRADITIONAL_NAME>
2-[amino(hydroxy)methylene]-4-(dimethylamino)-5,6,10,11,12a-pentahydroxy-6-methyl-4,4a,5,5a-tetrahydrotetracene-1,3,12-trione

> <PUBCHEM_IUPAC_INCHI>
InChI=1S/C22H24N2O9/c1-21(32)7-5-4-6-8(25)9(7)15(26)10-12(21)17(28)13-14(24(2)3)16(27)11(20(23)31)19(30)22(13,33)18(10)29/h4-6,12-14,17,25-26,28,31-33H,23H2,1-3H3

> <PUBCHEM_IUPAC_INCHIKEY>
FYDOORKXBWEKQM-UHFFFAOYSA-N

> <PUBCHEM_XLOGP3>
-0.9

> <PUBCHEM_EXACT_MASS>
460.14818

> <PUBCHEM_MOLECULAR_FORMULA>
C22H24N2O9

> <PUBCHEM_MOLECULAR_WEIGHT>
460.43396

> <PUBCHEM_OPENEYE_CAN_SMILES>
CC1(C2C(C3C(C(=O)C(=C(N)O)C(=O)C3(C(=O)C2=C(C4=C1C=CC=C4O)O)O)N(C)C)O)O

> <PUBCHEM_OPENEYE_ISO_SMILES>
CC1(C2C(C3C(C(=O)C(=C(N)O)C(=O)C3(C(=O)C2=C(C4=C1C=CC=C4O)O)O)N(C)C)O)O

> <PUBCHEM_CACTVS_TPSA>
202

> <PUBCHEM_MONOISOTOPIC_WEIGHT>
460.14818

> <PUBCHEM_TOTAL_CHARGE>
0

> <PUBCHEM_HEAVY_ATOM_COUNT>
33

> <PUBCHEM_ATOM_DEF_STEREO_COUNT>
0

> <PUBCHEM_ATOM_UDEF_STEREO_COUNT>
6

> <PUBCHEM_BOND_DEF_STEREO_COUNT>
0

> <PUBCHEM_BOND_UDEF_STEREO_COUNT>
1

> <PUBCHEM_ISOTOPIC_ATOM_COUNT>
0

> <PUBCHEM_COMPONENT_COUNT>
1

> <PUBCHEM_CACTVS_TAUTO_COUNT>
168

> <PUBCHEM_COORDINATE_TYPE>
1
5
255

> <PUBCHEM_BONDANNOTATIONS>
12  34  3
13  35  3
14  36  3
16  37  3
17  24  3
15  2  3
21  25  8
21  27  8
25  30  8
26  31  1
27  32  8
30  33  8
32  33  8

$$$$

