14080393
  -OEChem-07051212452D

 49 51  0     1  0  0  0  0  0999 V2000
    3.7981   -0.0427    0.0000 O   0  0  0  0  0  0  0  0  0  0  0  0
    5.5301    1.9573    0.0000 O   0  0  0  0  0  0  0  0  0  0  0  0
    2.9320    1.4573    0.0000 O   0  0  0  0  0  0  0  0  0  0  0  0
    2.9320    3.4573    0.0000 O   0  0  0  0  0  0  0  0  0  0  0  0
    7.2785   -4.0773    0.0000 O   0  0  0  0  0  0  0  0  0  0  0  0
    9.0602   -1.0186    0.0000 O   0  0  0  0  0  0  0  0  0  0  0  0
    5.5301   -1.0427    0.0000 N   0  0  0  0  0  0  0  0  0  0  0  0
    5.5301   -3.0427    0.0000 N   0  0  0  0  0  0  0  0  0  0  0  0
    7.2901   -1.0080    0.0000 N   0  0  0  0  0  0  0  0  0  0  0  0
    8.1962   -2.5635    0.0000 N   0  0  0  0  0  0  0  0  0  0  0  0
    5.5301   -0.0427    0.0000 C   0  0  0  0  0  0  0  0  0  0  0  0
    4.6641    0.4573    0.0000 C   0  0  1  0  0  0  0  0  0  0  0  0
    4.6641    1.4573    0.0000 C   0  0  1  0  0  0  0  0  0  0  0  0
    4.6641   -1.5427    0.0000 C   0  0  0  0  0  0  0  0  0  0  0  0
    6.3961   -1.5427    0.0000 C   0  0  0  0  0  0  0  0  0  0  0  0
    4.6641   -2.5427    0.0000 C   0  0  0  0  0  0  0  0  0  0  0  0
    3.7981    1.9573    0.0000 C   0  0  1  0  0  0  0  0  0  0  0  0
    6.3961   -2.5427    0.0000 C   0  0  0  0  0  0  0  0  0  0  0  0
    3.7702   -1.0080    0.0000 C   0  0  0  0  0  0  0  0  0  0  0  0
    3.7702   -3.0774    0.0000 C   0  0  0  0  0  0  0  0  0  0  0  0
    2.8641   -1.5219    0.0000 C   0  0  0  0  0  0  0  0  0  0  0  0
    2.8641   -2.5635    0.0000 C   0  0  0  0  0  0  0  0  0  0  0  0
    3.7981    2.9573    0.0000 C   0  0  0  0  0  0  0  0  0  0  0  0
    7.2901   -3.0774    0.0000 C   0  0  0  0  0  0  0  0  0  0  0  0
    8.1962   -1.5219    0.0000 C   0  0  0  0  0  0  0  0  0  0  0  0
    2.0000   -1.0186    0.0000 C   0  0  0  0  0  0  0  0  0  0  0  0
    2.0000   -3.0668    0.0000 C   0  0  0  0  0  0  0  0  0  0  0  0
    6.1407   -0.1504    0.0000 H   0  0  0  0  0  0  0  0  0  0  0  0
    5.7422    0.5399    0.0000 H   0  0  0  0  0  0  0  0  0  0  0  0
    4.6641   -0.1627    0.0000 H   0  0  0  0  0  0  0  0  0  0  0  0
    4.6641    2.0773    0.0000 H   0  0  0  0  0  0  0  0  0  0  0  0
    3.7981    1.3373    0.0000 H   0  0  0  0  0  0  0  0  0  0  0  0
    5.5301   -3.6627    0.0000 H   0  0  0  0  0  0  0  0  0  0  0  0
    3.7773   -0.3881    0.0000 H   0  0  0  0  0  0  0  0  0  0  0  0
    3.7773   -3.6973    0.0000 H   0  0  0  0  0  0  0  0  0  0  0  0
    7.2829   -0.3881    0.0000 H   0  0  0  0  0  0  0  0  0  0  0  0
    4.4087    2.8496    0.0000 H   0  0  0  0  0  0  0  0  0  0  0  0
    4.0101    3.5399    0.0000 H   0  0  0  0  0  0  0  0  0  0  0  0
    3.2611    0.2673    0.0000 H   0  0  0  0  0  0  0  0  0  0  0  0
    5.5301    2.5773    0.0000 H   0  0  0  0  0  0  0  0  0  0  0  0
    8.7319   -2.8756    0.0000 H   0  0  0  0  0  0  0  0  0  0  0  0
    2.3121   -0.4828    0.0000 H   0  0  0  0  0  0  0  0  0  0  0  0
    1.4643   -0.7065    0.0000 H   0  0  0  0  0  0  0  0  0  0  0  0
    1.6879   -1.5543    0.0000 H   0  0  0  0  0  0  0  0  0  0  0  0
    1.6879   -2.5311    0.0000 H   0  0  0  0  0  0  0  0  0  0  0  0
    1.4643   -3.3789    0.0000 H   0  0  0  0  0  0  0  0  0  0  0  0
    2.3121   -3.6026    0.0000 H   0  0  0  0  0  0  0  0  0  0  0  0
    2.3951    1.7673    0.0000 H   0  0  0  0  0  0  0  0  0  0  0  0
    2.9320    4.0773    0.0000 H   0  0  0  0  0  0  0  0  0  0  0  0
 12  1  1  6  0  0  0
  1 39  1  0  0  0  0
 13  2  1  1  0  0  0
  2 40  1  0  0  0  0
 17  3  1  6  0  0  0
  3 48  1  0  0  0  0
  4 23  1  0  0  0  0
  4 49  1  0  0  0  0
  5 24  2  0  0  0  0
  6 25  2  0  0  0  0
  7 11  1  0  0  0  0
  7 14  1  0  0  0  0
  7 15  1  0  0  0  0
  8 16  1  0  0  0  0
  8 18  1  0  0  0  0
  8 33  1  0  0  0  0
  9 15  1  0  0  0  0
  9 25  1  0  0  0  0
  9 36  1  0  0  0  0
 10 24  1  0  0  0  0
 10 25  1  0  0  0  0
 10 41  1  0  0  0  0
 11 12  1  0  0  0  0
 11 28  1  0  0  0  0
 11 29  1  0  0  0  0
 12 13  1  0  0  0  0
 12 30  1  0  0  0  0
 13 17  1  0  0  0  0
 13 31  1  0  0  0  0
 14 16  2  0  0  0  0
 14 19  1  0  0  0  0
 15 18  2  0  0  0  0
 16 20  1  0  0  0  0
 17 23  1  0  0  0  0
 17 32  1  0  0  0  0
 18 24  1  0  0  0  0
 19 21  2  0  0  0  0
 19 34  1  0  0  0  0
 20 22  2  0  0  0  0
 20 35  1  0  0  0  0
 21 22  1  0  0  0  0
 21 26  1  0  0  0  0
 22 27  1  0  0  0  0
 23 37  1  0  0  0  0
 23 38  1  0  0  0  0
 26 42  1  0  0  0  0
 26 43  1  0  0  0  0
 26 44  1  0  0  0  0
 27 45  1  0  0  0  0
 27 46  1  0  0  0  0
 27 47  1  0  0  0  0
M  END
> <PUBCHEM_COMPOUND_CID>
14080393

> <PUBCHEM_COMPOUND_CANONICALIZED>
1

> <PUBCHEM_CACTVS_COMPLEXITY>
641

> <PUBCHEM_CACTVS_HBOND_ACCEPTOR>
8

> <PUBCHEM_CACTVS_HBOND_DONOR>
7

> <PUBCHEM_CACTVS_ROTATABLE_BOND>
5

> <PUBCHEM_CACTVS_SUBSKEYS>
AAADceB7uAAAAAAAAAAAAAAAAAAAAAAAAAAwQIAAAAAAAACxAAAAHgAQCAAADBzhmAYzwIPAAgCIAiVSUACCAAAhAgAAiACIdMiLcCLAkbGUYAhvlSLZyGfwkIIOiAAAQAAQACAQAACAACAAQAAAAAAAAA==

> <PUBCHEM_IUPAC_OPENEYE_NAME>
7,8-dimethyl-10-[(2S,3S,4R)-2,3,4,5-tetrahydroxypentyl]-1,5-dihydrobenzo[g]pteridine-2,4-dione

> <PUBCHEM_IUPAC_CAS_NAME>
7,8-dimethyl-10-[(2S,3S,4R)-2,3,4,5-tetrahydroxypentyl]-1,5-dihydrobenzo[g]pteridine-2,4-dione

> <PUBCHEM_IUPAC_NAME>
7,8-dimethyl-10-[(2S,3S,4R)-2,3,4,5-tetrahydroxypentyl]-1,5-dihydrobenzo[g]pteridine-2,4-dione

> <PUBCHEM_IUPAC_SYSTEMATIC_NAME>
7,8-dimethyl-10-[(2S,3S,4R)-2,3,4,5-tetrakis(oxidanyl)pentyl]-1,5-dihydrobenzo[g]pteridine-2,4-dione

> <PUBCHEM_IUPAC_TRADITIONAL_NAME>
7,8-dimethyl-10-[(2S,3S,4R)-2,3,4,5-tetrahydroxypentyl]-1,5-dihydrobenzo[g]pteridine-2,4-quinone

> <PUBCHEM_IUPAC_INCHI>
InChI=1S/C17H22N4O6/c1-7-3-9-10(4-8(7)2)21(5-11(23)14(25)12(24)6-22)15-13(18-9)16(26)20-17(27)19-15/h3-4,11-12,14,18,22-25H,5-6H2,1-2H3,(H2,19,20,26,27)/t11-,12+,14-/m0/s1

> <PUBCHEM_IUPAC_INCHIKEY>
SGSVWAYHEWEQET-SCRDCRAPSA-N

> <PUBCHEM_XLOGP3_AA>
-1.2

> <PUBCHEM_EXACT_MASS>
378.153934

> <PUBCHEM_MOLECULAR_FORMULA>
C17H22N4O6

> <PUBCHEM_MOLECULAR_WEIGHT>
378.37978

> <PUBCHEM_OPENEYE_CAN_SMILES>
CC1=CC2=C(C=C1C)N(C3=C(N2)C(=O)NC(=O)N3)CC(C(C(CO)O)O)O

> <PUBCHEM_OPENEYE_ISO_SMILES>
CC1=CC2=C(C=C1C)N(C3=C(N2)C(=O)NC(=O)N3)C[C@@H]([C@@H]([C@@H](CO)O)O)O

> <PUBCHEM_CACTVS_TPSA>
154

> <PUBCHEM_MONOISOTOPIC_WEIGHT>
378.153934

> <PUBCHEM_TOTAL_CHARGE>
0

> <PUBCHEM_HEAVY_ATOM_COUNT>
27

> <PUBCHEM_ATOM_DEF_STEREO_COUNT>
3

> <PUBCHEM_ATOM_UDEF_STEREO_COUNT>
0

> <PUBCHEM_BOND_DEF_STEREO_COUNT>
0

> <PUBCHEM_BOND_UDEF_STEREO_COUNT>
0

> <PUBCHEM_ISOTOPIC_ATOM_COUNT>
0

> <PUBCHEM_COMPONENT_COUNT>
1

> <PUBCHEM_CACTVS_TAUTO_COUNT>
16

> <PUBCHEM_COORDINATE_TYPE>
1
5
255

> <PUBCHEM_BONDANNOTATIONS>
12  1  6
10  24  8
10  25  8
14  16  8
14  19  8
15  18  8
16  20  8
18  24  8
19  21  8
13  2  5
20  22  8
21  22  8
17  3  6
9  15  8
9  25  8

$$$$

