13417
  -OEChem-06261214042D

 20 20  0     0  0  0  0  0  0999 V2000
    2.0000   -2.4050    0.0000 Cl  0  0  0  0  0  0  0  0  0  0  0  0
    5.4641    0.5950    0.0000 S   0  0  0  0  0  0  0  0  0  0  0  0
    4.5981    2.0950    0.0000 S   0  0  0  0  0  0  0  0  0  0  0  0
    3.7321    0.5950    0.0000 N   0  0  0  0  0  0  0  0  0  0  0  0
    3.7321   -0.4050    0.0000 C   0  0  0  0  0  0  0  0  0  0  0  0
    2.8660   -0.9050    0.0000 C   0  0  0  0  0  0  0  0  0  0  0  0
    4.5981   -0.9050    0.0000 C   0  0  0  0  0  0  0  0  0  0  0  0
    2.8660   -1.9050    0.0000 C   0  0  0  0  0  0  0  0  0  0  0  0
    4.5981   -1.9050    0.0000 C   0  0  0  0  0  0  0  0  0  0  0  0
    3.7321   -2.4050    0.0000 C   0  0  0  0  0  0  0  0  0  0  0  0
    4.5981    1.0950    0.0000 C   0  0  0  0  0  0  0  0  0  0  0  0
    6.3301    1.0950    0.0000 C   0  0  0  0  0  0  0  0  0  0  0  0
    2.3291   -0.5950    0.0000 H   0  0  0  0  0  0  0  0  0  0  0  0
    5.1350   -0.5950    0.0000 H   0  0  0  0  0  0  0  0  0  0  0  0
    5.1350   -2.2150    0.0000 H   0  0  0  0  0  0  0  0  0  0  0  0
    3.7321   -3.0250    0.0000 H   0  0  0  0  0  0  0  0  0  0  0  0
    6.6401    0.5581    0.0000 H   0  0  0  0  0  0  0  0  0  0  0  0
    6.8671    1.4050    0.0000 H   0  0  0  0  0  0  0  0  0  0  0  0
    6.0201    1.6319    0.0000 H   0  0  0  0  0  0  0  0  0  0  0  0
    5.1350    2.4050    0.0000 H   0  0  0  0  0  0  0  0  0  0  0  0
  1  8  1  0  0  0  0
  2 11  1  0  0  0  0
  2 12  1  0  0  0  0
  3 11  1  0  0  0  0
  3 20  1  0  0  0  0
  4  5  1  0  0  0  0
  4 11  2  0  0  0  0
  5  6  2  0  0  0  0
  5  7  1  0  0  0  0
  6  8  1  0  0  0  0
  6 13  1  0  0  0  0
  7  9  2  0  0  0  0
  7 14  1  0  0  0  0
  8 10  2  0  0  0  0
  9 10  1  0  0  0  0
  9 15  1  0  0  0  0
 10 16  1  0  0  0  0
 12 17  1  0  0  0  0
 12 18  1  0  0  0  0
 12 19  1  0  0  0  0
M  END
> <PUBCHEM_COMPOUND_CID>
13417

> <PUBCHEM_COMPOUND_CANONICALIZED>
1

> <PUBCHEM_CACTVS_COMPLEXITY>
172

> <PUBCHEM_CACTVS_HBOND_ACCEPTOR>
3

> <PUBCHEM_CACTVS_HBOND_DONOR>
1

> <PUBCHEM_CACTVS_ROTATABLE_BOND>
2

> <PUBCHEM_CACTVS_SUBSKEYS>
AAADccByAABkAAAAAAAAAAAAAAAAAAAAAAAwAAAAAAAAAAABAAAAHAYAAAAACAqBECCywIIAAAygACRCRACCEQAgBwAIiAAAZogIICKBk5GAIABggAAIyAcQAAAAAAAAAAIAAAAAAAAABAAAAAAAAAAAAA==

> <PUBCHEM_IUPAC_OPENEYE_NAME>
N-(3-chlorophenyl)-1-methylsulfanyl-methanimidothioic acid

> <PUBCHEM_IUPAC_CAS_NAME>
N-(3-chlorophenyl)-1-(methylthio)methanimidothioic acid

> <PUBCHEM_IUPAC_NAME>
N-(3-chlorophenyl)-1-methylsulfanylmethanimidothioic acid

> <PUBCHEM_IUPAC_SYSTEMATIC_NAME>
N-(3-chlorophenyl)-1-methylsulfanyl-methanimidothioic acid

> <PUBCHEM_IUPAC_TRADITIONAL_NAME>
N-(3-chlorophenyl)-1-(methylthio)thioformimidic acid

> <PUBCHEM_IUPAC_INCHI>
InChI=1S/C8H8ClNS2/c1-12-8(11)10-7-4-2-3-6(9)5-7/h2-5H,1H3,(H,10,11)

> <PUBCHEM_IUPAC_INCHIKEY>
AGYSOQFTEABAHV-UHFFFAOYSA-N

> <PUBCHEM_XLOGP3_AA>
3.7

> <PUBCHEM_EXACT_MASS>
216.978669

> <PUBCHEM_MOLECULAR_FORMULA>
C8H8ClNS2

> <PUBCHEM_MOLECULAR_WEIGHT>
217.73882

> <PUBCHEM_OPENEYE_CAN_SMILES>
CSC(=NC1=CC(=CC=C1)Cl)S

> <PUBCHEM_OPENEYE_ISO_SMILES>
CSC(=NC1=CC(=CC=C1)Cl)S

> <PUBCHEM_CACTVS_TPSA>
38.7

> <PUBCHEM_MONOISOTOPIC_WEIGHT>
216.978669

> <PUBCHEM_TOTAL_CHARGE>
0

> <PUBCHEM_HEAVY_ATOM_COUNT>
12

> <PUBCHEM_ATOM_DEF_STEREO_COUNT>
0

> <PUBCHEM_ATOM_UDEF_STEREO_COUNT>
0

> <PUBCHEM_BOND_DEF_STEREO_COUNT>
0

> <PUBCHEM_BOND_UDEF_STEREO_COUNT>
0

> <PUBCHEM_ISOTOPIC_ATOM_COUNT>
0

> <PUBCHEM_COMPONENT_COUNT>
1

> <PUBCHEM_CACTVS_TAUTO_COUNT>
2

> <PUBCHEM_COORDINATE_TYPE>
1
5
255

> <PUBCHEM_BONDANNOTATIONS>
5  6  8
5  7  8
6  8  8
7  9  8
8  10  8
9  10  8

$$$$

