9928
  -OEChem-06261204112D

 45 46  0     0  0  0  0  0  0999 V2000
    3.4724    0.0000    0.0000 Cl  0  0  0  0  0  0  0  0  0  0  0  0
    2.4777    6.7078    0.0000 O   0  0  0  0  0  0  0  0  0  0  0  0
    6.7410    6.7589    0.0000 N   0  0  0  0  0  0  0  0  0  0  0  0
    5.0468    6.3988    0.0000 C   0  0  0  0  0  0  0  0  0  0  0  0
    4.0957    6.7078    0.0000 C   0  0  0  0  0  0  0  0  0  0  0  0
    5.7899    7.0679    0.0000 C   0  0  0  0  0  0  0  0  0  0  0  0
    3.2867    6.1200    0.0000 C   0  0  0  0  0  0  0  0  0  0  0  0
    3.7867    7.6588    0.0000 C   0  0  0  0  0  0  0  0  0  0  0  0
    2.7867    7.6588    0.0000 C   0  0  0  0  0  0  0  0  0  0  0  0
    3.2867    5.1200    0.0000 C   0  0  0  0  0  0  0  0  0  0  0  0
    2.1989    8.4679    0.0000 C   0  0  0  0  0  0  0  0  0  0  0  0
    7.4841    7.4280    0.0000 C   0  0  0  0  0  0  0  0  0  0  0  0
    6.9489    5.7807    0.0000 C   0  0  0  0  0  0  0  0  0  0  0  0
    2.4207    4.6200    0.0000 C   0  0  0  0  0  0  0  0  0  0  0  0
    4.1527    4.6200    0.0000 C   0  0  0  0  0  0  0  0  0  0  0  0
    2.6056    9.3814    0.0000 C   0  0  0  0  0  0  0  0  0  0  0  0
    1.2044    8.3633    0.0000 C   0  0  0  0  0  0  0  0  0  0  0  0
    2.4207    3.6200    0.0000 C   0  0  0  0  0  0  0  0  0  0  0  0
    4.1527    3.6200    0.0000 C   0  0  0  0  0  0  0  0  0  0  0  0
    3.2867    3.1200    0.0000 C   0  0  0  0  0  0  0  0  0  0  0  0
    2.0179   10.1904    0.0000 C   0  0  0  0  0  0  0  0  0  0  0  0
    0.6166    9.1724    0.0000 C   0  0  0  0  0  0  0  0  0  0  0  0
    1.0233   10.0859    0.0000 C   0  0  0  0  0  0  0  0  0  0  0  0
    4.7557    5.8513    0.0000 H   0  0  0  0  0  0  0  0  0  0  0  0
    5.5353    6.0171    0.0000 H   0  0  0  0  0  0  0  0  0  0  0  0
    6.0810    7.6153    0.0000 H   0  0  0  0  0  0  0  0  0  0  0  0
    5.3014    7.4496    0.0000 H   0  0  0  0  0  0  0  0  0  0  0  0
    4.1511    8.1604    0.0000 H   0  0  0  0  0  0  0  0  0  0  0  0
    7.8990    6.9673    0.0000 H   0  0  0  0  0  0  0  0  0  0  0  0
    6.3424    5.6518    0.0000 H   0  0  0  0  0  0  0  0  0  0  0  0
    7.0778    5.1743    0.0000 H   0  0  0  0  0  0  0  0  0  0  0  0
    7.5553    5.9096    0.0000 H   0  0  0  0  0  0  0  0  0  0  0  0
    7.9449    7.8429    0.0000 H   0  0  0  0  0  0  0  0  0  0  0  0
    7.0692    7.8888    0.0000 H   0  0  0  0  0  0  0  0  0  0  0  0
    1.8837    4.9300    0.0000 H   0  0  0  0  0  0  0  0  0  0  0  0
    4.6897    4.9300    0.0000 H   0  0  0  0  0  0  0  0  0  0  0  0
    3.2222    9.4462    0.0000 H   0  0  0  0  0  0  0  0  0  0  0  0
    0.9522    7.7969    0.0000 H   0  0  0  0  0  0  0  0  0  0  0  0
    1.8837    3.3100    0.0000 H   0  0  0  0  0  0  0  0  0  0  0  0
    4.6897    3.3100    0.0000 H   0  0  0  0  0  0  0  0  0  0  0  0
    3.2867    2.5000    0.0000 H   0  0  0  0  0  0  0  0  0  0  0  0
    2.2700   10.7568    0.0000 H   0  0  0  0  0  0  0  0  0  0  0  0
    0.0000    9.1075    0.0000 H   0  0  0  0  0  0  0  0  0  0  0  0
    0.6589   10.5875    0.0000 H   0  0  0  0  0  0  0  0  0  0  0  0
    4.4724    0.0000    0.0000 H   0  0  0  0  0  0  0  0  0  0  0  0
  1 45  1  0  0  0  0
  2  7  1  0  0  0  0
  2  9  1  0  0  0  0
  3  6  1  0  0  0  0
  3 12  1  0  0  0  0
  3 13  1  0  0  0  0
  4  5  1  0  0  0  0
  4  6  1  0  0  0  0
  4 24  1  0  0  0  0
  4 25  1  0  0  0  0
  5  7  2  0  0  0  0
  5  8  1  0  0  0  0
  6 26  1  0  0  0  0
  6 27  1  0  0  0  0
  7 10  1  0  0  0  0
  8  9  2  0  0  0  0
  8 28  1  0  0  0  0
  9 11  1  0  0  0  0
 10 14  2  0  0  0  0
 10 15  1  0  0  0  0
 11 16  2  0  0  0  0
 11 17  1  0  0  0  0
 12 29  1  0  0  0  0
 12 33  1  0  0  0  0
 12 34  1  0  0  0  0
 13 30  1  0  0  0  0
 13 31  1  0  0  0  0
 13 32  1  0  0  0  0
 14 18  1  0  0  0  0
 14 35  1  0  0  0  0
 15 19  2  0  0  0  0
 15 36  1  0  0  0  0
 16 21  1  0  0  0  0
 16 37  1  0  0  0  0
 17 22  2  0  0  0  0
 17 38  1  0  0  0  0
 18 20  2  0  0  0  0
 18 39  1  0  0  0  0
 19 20  1  0  0  0  0
 19 40  1  0  0  0  0
 20 41  1  0  0  0  0
 21 23  2  0  0  0  0
 21 42  1  0  0  0  0
 22 23  1  0  0  0  0
 22 43  1  0  0  0  0
 23 44  1  0  0  0  0
M  END
> <PUBCHEM_COMPOUND_CID>
9928

> <PUBCHEM_COMPOUND_CANONICALIZED>
1

> <PUBCHEM_CACTVS_COMPLEXITY>
318

> <PUBCHEM_CACTVS_HBOND_ACCEPTOR>
2

> <PUBCHEM_CACTVS_HBOND_DONOR>
1

> <PUBCHEM_CACTVS_ROTATABLE_BOND>
5

> <PUBCHEM_CACTVS_SUBSKEYS>
AAADceB6IAAEAAAAAAAAAAAAAAAAASAAAAAwYAAAAAAAAAAB0AAAHgAAAAAADATBmAQyBIMABECIAqBSAAACCAAkIAAIiAEOCMgMJjKEtRuGOSCkwBEIqYe82fKOAAAAAAAAAAAAAAAAAAAAAAAAAAAAAA==

> <PUBCHEM_IUPAC_OPENEYE_NAME>
2-(2,5-diphenyl-3-furyl)-N,N-dimethyl-ethanamine hydrochloride

> <PUBCHEM_IUPAC_CAS_NAME>
2-(2,5-diphenyl-3-furanyl)-N,N-dimethylethanamine hydrochloride

> <PUBCHEM_IUPAC_NAME>
2-(2,5-diphenylfuran-3-yl)-N,N-dimethylethanamine hydrochloride

> <PUBCHEM_IUPAC_SYSTEMATIC_NAME>
2-(2,5-diphenylfuran-3-yl)-N,N-dimethyl-ethanamine hydrochloride

> <PUBCHEM_IUPAC_TRADITIONAL_NAME>
2-(2,5-diphenyl-3-furyl)ethyl-dimethyl-amine hydrochloride

> <PUBCHEM_IUPAC_INCHI>
InChI=1S/C20H21NO.ClH/c1-21(2)14-13-18-15-19(16-9-5-3-6-10-16)22-20(18)17-11-7-4-8-12-17;/h3-12,15H,13-14H2,1-2H3;1H

> <PUBCHEM_IUPAC_INCHIKEY>
KUKAWAIEDBQUCO-UHFFFAOYSA-N

> <PUBCHEM_EXACT_MASS>
327.138992

> <PUBCHEM_MOLECULAR_FORMULA>
C20H22ClNO

> <PUBCHEM_MOLECULAR_WEIGHT>
327.84778

> <PUBCHEM_OPENEYE_CAN_SMILES>
CN(C)CCC1=C(OC(=C1)C2=CC=CC=C2)C3=CC=CC=C3.Cl

> <PUBCHEM_OPENEYE_ISO_SMILES>
CN(C)CCC1=C(OC(=C1)C2=CC=CC=C2)C3=CC=CC=C3.Cl

> <PUBCHEM_CACTVS_TPSA>
16.4

> <PUBCHEM_MONOISOTOPIC_WEIGHT>
327.138992

> <PUBCHEM_TOTAL_CHARGE>
0

> <PUBCHEM_HEAVY_ATOM_COUNT>
23

> <PUBCHEM_ATOM_DEF_STEREO_COUNT>
0

> <PUBCHEM_ATOM_UDEF_STEREO_COUNT>
0

> <PUBCHEM_BOND_DEF_STEREO_COUNT>
0

> <PUBCHEM_BOND_UDEF_STEREO_COUNT>
0

> <PUBCHEM_ISOTOPIC_ATOM_COUNT>
0

> <PUBCHEM_COMPONENT_COUNT>
2

> <PUBCHEM_CACTVS_TAUTO_COUNT>
1

> <PUBCHEM_COORDINATE_TYPE>
1
5
255

> <PUBCHEM_BONDANNOTATIONS>
10  14  8
10  15  8
11  16  8
11  17  8
14  18  8
15  19  8
16  21  8
17  22  8
18  20  8
19  20  8
2  7  8
2  9  8
21  23  8
22  23  8
5  7  8
5  8  8
8  9  8

$$$$

