6576
  -OEChem-06261201232D

  7  6  0     0  0  0  0  0  0999 V2000
    2.0000    0.4400    0.0000 Cl  0  0  0  0  0  0  0  0  0  0  0  0
    2.8660   -1.0600    0.0000 Cl  0  0  0  0  0  0  0  0  0  0  0  0
    4.5981   -0.0600    0.0000 O   0  0  0  0  0  0  0  0  0  0  0  0
    2.8660   -0.0600    0.0000 C   0  0  0  0  0  0  0  0  0  0  0  0
    3.7320    0.4400    0.0000 C   0  0  0  0  0  0  0  0  0  0  0  0
    2.8660    0.5600    0.0000 H   0  0  0  0  0  0  0  0  0  0  0  0
    3.7320    1.0600    0.0000 H   0  0  0  0  0  0  0  0  0  0  0  0
  1  4  1  0  0  0  0
  2  4  1  0  0  0  0
  3  5  2  0  0  0  0
  4  5  1  0  0  0  0
  4  6  1  0  0  0  0
  5  7  1  0  0  0  0
M  END
> <PUBCHEM_COMPOUND_CID>
6576

> <PUBCHEM_COMPOUND_CANONICALIZED>
1

> <PUBCHEM_CACTVS_COMPLEXITY>
34.6

> <PUBCHEM_CACTVS_HBOND_ACCEPTOR>
1

> <PUBCHEM_CACTVS_HBOND_DONOR>
0

> <PUBCHEM_CACTVS_ROTATABLE_BOND>
1

> <PUBCHEM_CACTVS_SUBSKEYS>
AAADcQBAIAAGAAAAAAAAAAAAAAAAAAAAAAAAAAAAAAAAAAAAAAAAGgIAAAAAAAOggMIAAAAAAAAIAAgQgAAAAAAAAAAAAAAAAABAAAAAAAAAAAAAAAAAAAAAAAAAAAAAAAAAAAAAAAAAAAAAAAAAAAAAAA==

> <PUBCHEM_IUPAC_OPENEYE_NAME>
2,2-dichloroacetaldehyde

> <PUBCHEM_IUPAC_CAS_NAME>
2,2-dichloroacetaldehyde

> <PUBCHEM_IUPAC_NAME>
2,2-dichloroacetaldehyde

> <PUBCHEM_IUPAC_SYSTEMATIC_NAME>
2,2-bis(chloranyl)ethanal

> <PUBCHEM_IUPAC_TRADITIONAL_NAME>
2,2-dichloroacetaldehyde

> <PUBCHEM_IUPAC_INCHI>
InChI=1S/C2H2Cl2O/c3-2(4)1-5/h1-2H

> <PUBCHEM_IUPAC_INCHIKEY>
NWQWQKUXRJYXFH-UHFFFAOYSA-N

> <PUBCHEM_XLOGP3_AA>
1.1

> <PUBCHEM_EXACT_MASS>
111.94827

> <PUBCHEM_MOLECULAR_FORMULA>
C2H2Cl2O

> <PUBCHEM_MOLECULAR_WEIGHT>
112.94268

> <PUBCHEM_OPENEYE_CAN_SMILES>
C(=O)C(Cl)Cl

> <PUBCHEM_OPENEYE_ISO_SMILES>
C(=O)C(Cl)Cl

> <PUBCHEM_CACTVS_TPSA>
17.1

> <PUBCHEM_MONOISOTOPIC_WEIGHT>
111.94827

> <PUBCHEM_TOTAL_CHARGE>
0

> <PUBCHEM_HEAVY_ATOM_COUNT>
5

> <PUBCHEM_ATOM_DEF_STEREO_COUNT>
0

> <PUBCHEM_ATOM_UDEF_STEREO_COUNT>
0

> <PUBCHEM_BOND_DEF_STEREO_COUNT>
0

> <PUBCHEM_BOND_UDEF_STEREO_COUNT>
0

> <PUBCHEM_ISOTOPIC_ATOM_COUNT>
0

> <PUBCHEM_COMPONENT_COUNT>
1

> <PUBCHEM_CACTVS_TAUTO_COUNT>
2

> <PUBCHEM_COORDINATE_TYPE>
1
5
255

$$$$

