   Color/Form

     * Needles from petroleum ether
     * Colorless to pinkish crystals
     * White, flaky crystals

   from [1]HSDB

   Odor

     * Mild characteristic odor
     * Sweetish odor
     * Phenolic odor

   from [2]HSDB

   Boiling Point
        286 deg C
   from [3]HSDB

   Melting Point
        59 deg C
   from [4]HSDB

   Density/Specific Gravity
        1.213 g/cu cm at 25 deg C
   from [5]HSDB

   Dissociation Constants
        pKa = 9.55 at 22.5 deg C
   from [6]HSDB

   Octanol/Water Partition Coefficient
        log Kow = 3.09
   from [7]HSDB

   pH
        pH = 6.1 in aqueous solution at 22.7 deg C
   from [8]HSDB

   Solubilities

     * Soluble in fixed alkali hydroxide solutions and most organic
       solvents.
     * Soluble in sodium hydroxide
     * Soluble in ethanol, acetone, benzene, chloroform, and ligroin; very
       soluble in ethyl ether and pyridine.
     * Sol in most organic solvents, including ethanol, ethylene glycol,
       isopropanol, glycolethers, and polyglycols.
     * At 20 deg C, g/kg solvent: in methanol, 500; in acetone, 479; in
       acetonitrile, 532; in octanol, 529; in toluene, 466; in hexane 48.6
     * In water, 700 mg/L at 25 deg C

   from [9]HSDB

   Spectral Properties

     * MAX ABSORPTION (METHANOL): 247 NM (LOG E= 4.1); 286 NM (LOG E=
       3.7); SADTLER REFERENCE NUMBER: 1192 (IR, PRISM, KBR); 341 (UV)
     * Intense mass spectral peaks: 170 m/z (100%), 169 m/z (69%), 141 m/z
       (35%), 115 m/z (26%)
     * IR: 6183 (Coblentz Society Spectral Collection)
     * UV: 341 (Sadtler Research Laboratories Spectral Collection)
     * NMR: 6528 (Sadtler Research Laboratories Spectral Collection)
     * MASS: 52386 (NIST/EPA/MSDC Mass Spectral Database, 1990 Version);
       1127 (Atlas of Mass Spectral Data. John Wiley & Sons, New York)

   from [10]HSDB

   Vapor Pressure
        2.0X10-3 mm Hg at 25 deg C
   from [11]HSDB

   Other Chemical/Physical Properties

     * FORMS SALTS OF WHICH THOSE OF THE ALKALI METALS ARE WATER-SOLUBLE;
       THE SODIUM SALT CRYSTALLIZES AS A TETRAHYDRATE, SOLUBILITY CIRCA
       1.1 KG/KG WATER (35 DEG C), GIVING A SOLUTION OF PH 12.0-13.5.
     * VAPOR PRESSURE: 1 MM HG @ 100.0 DEG C
     * Vapor Pressure: 20 mm Hg at 163 deg C; 100 mm Hg at 206 deg C
     * o-Phenylphenol can be oxidized by air to form the corresponding
       phenylbenzoquinone [363- 03-1]
     * Henry's Law constant = 1.05X10-6 atm-cu m/mol at 25 deg C (est)
     * Hydroxyl radical reaction rate constant = 2.7X10-11 cu cm/molec-sec
       at 25 deg C (est)

   from [12]HSDB

   Computed Properties
   Molecular Weight                  170.2072 [g/mol]
   Molecular Formula                 C[12]H[10]O
   XLogP3                            3.1
   H-Bond Donor                      1
   H-Bond Acceptor                   1
   Rotatable Bond Count              1
   Tautomer Count                    3
   Exact Mass                        170.073165
   MonoIsotopic Mass                 170.073165
   Topological Polar Surface Area    20.2
   Heavy Atom Count                  13
   Formal Charge                     0
   Complexity                        149
   Isotope Atom Count                0
   Defined Atom Stereocenter Count   0
   Undefined Atom Stereocenter Count 0
   Defined Bond Stereocenter Count   0
   Undefined Bond Stereocenter Count 0
   Covalently-Bonded Unit Count      1
   Feature 3D Donor Count            1
   Feature 3D Ring Count             2
   Effective Rotor Count             1
   Conformer Sampling RMSD           0.4
   CID Conformer Count               [13]3

References

   1. http://toxnet.nlm.nih.gov/cgi-bin/sis/search/r?dbs+hsdb:@term+@rn+@rel+90-43-7
   2. http://toxnet.nlm.nih.gov/cgi-bin/sis/search/r?dbs+hsdb:@term+@rn+@rel+90-43-7
   3. http://toxnet.nlm.nih.gov/cgi-bin/sis/search/r?dbs+hsdb:@term+@rn+@rel+90-43-7
   4. http://toxnet.nlm.nih.gov/cgi-bin/sis/search/r?dbs+hsdb:@term+@rn+@rel+90-43-7
   5. http://toxnet.nlm.nih.gov/cgi-bin/sis/search/r?dbs+hsdb:@term+@rn+@rel+90-43-7
   6. http://toxnet.nlm.nih.gov/cgi-bin/sis/search/r?dbs+hsdb:@term+@rn+@rel+90-43-7
   7. http://toxnet.nlm.nih.gov/cgi-bin/sis/search/r?dbs+hsdb:@term+@rn+@rel+90-43-7
   8. http://toxnet.nlm.nih.gov/cgi-bin/sis/search/r?dbs+hsdb:@term+@rn+@rel+90-43-7
   9. http://toxnet.nlm.nih.gov/cgi-bin/sis/search/r?dbs+hsdb:@term+@rn+@rel+90-43-7
  10. http://toxnet.nlm.nih.gov/cgi-bin/sis/search/r?dbs+hsdb:@term+@rn+@rel+90-43-7
  11. http://toxnet.nlm.nih.gov/cgi-bin/sis/search/r?dbs+hsdb:@term+@rn+@rel+90-43-7
  12. http://toxnet.nlm.nih.gov/cgi-bin/sis/search/r?dbs+hsdb:@term+@rn+@rel+90-43-7
  13. http://pubchem.ncbi.nlm.nih.gov/vw3d/vw3d.cgi?cid=7017
