5281487
  -OEChem-07051212572D

 48 50  0     1  0  0  0  0  0999 V2000
    5.7812   -0.4847    0.0000 O   0  0  0  0  0  0  0  0  0  0  0  0
    5.1482    2.7238    0.0000 O   0  0  0  0  0  0  0  0  0  0  0  0
    4.6840   -1.9721    0.0000 O   0  0  0  0  0  0  0  0  0  0  0  0
    3.1645    2.7966    0.0000 O   0  0  0  0  0  0  0  0  0  0  0  0
    6.8881    3.0820    0.0000 O   0  0  0  0  0  0  0  0  0  0  0  0
    7.4789   -0.1415    0.0000 O   0  0  0  0  0  0  0  0  0  0  0  0
    4.0984   -0.2951    0.0000 C   0  0  2  0  0  0  0  0  0  0  0  0
    3.1974    0.1388    0.0000 C   0  0  2  0  0  0  0  0  0  0  0  0
    4.9994    0.1388    0.0000 C   0  0  2  0  0  0  0  0  0  0  0  0
    5.2219    1.1138    0.0000 C   0  0  1  0  0  0  0  0  0  0  0  0
    2.9749    1.1138    0.0000 C   0  0  1  0  0  0  0  0  0  0  0  0
    4.5984    1.8956    0.0000 C   0  0  1  0  0  0  0  0  0  0  0  0
    3.9624   -1.2798    0.0000 C   0  0  0  0  0  0  0  0  0  0  0  0
    3.5984    1.8956    0.0000 C   0  0  0  0  0  0  0  0  0  0  0  0
    4.9994   -0.7289    0.0000 C   0  0  0  0  0  0  0  0  0  0  0  0
    2.5124   -0.5815    0.0000 C   0  0  0  0  0  0  0  0  0  0  0  0
    6.1517    1.4655    0.0000 C   0  0  0  0  0  0  0  0  0  0  0  0
    2.9842   -1.4564    0.0000 C   0  0  0  0  0  0  0  0  0  0  0  0
    2.0000    1.3363    0.0000 C   0  0  0  0  0  0  0  0  0  0  0  0
    6.1062    2.4585    0.0000 C   0  0  0  0  0  0  0  0  0  0  0  0
    7.1449    1.5816    0.0000 C   0  0  0  0  0  0  0  0  0  0  0  0
    6.7292   -0.8032    0.0000 C   0  0  0  0  0  0  0  0  0  0  0  0
    6.9273   -1.7833    0.0000 C   0  0  0  0  0  0  0  0  0  0  0  0
    6.1775   -2.4450    0.0000 C   0  0  0  0  0  0  0  0  0  0  0  0
    7.8752   -2.1018    0.0000 C   0  0  0  0  0  0  0  0  0  0  0  0
    8.0734   -3.0820    0.0000 C   0  0  0  0  0  0  0  0  0  0  0  0
    2.3778    0.3639    0.0000 H   0  0  0  0  0  0  0  0  0  0  0  0
    5.5846    0.3436    0.0000 H   0  0  0  0  0  0  0  0  0  0  0  0
    5.8627    0.5553    0.0000 H   0  0  0  0  0  0  0  0  0  0  0  0
    2.7702    1.6990    0.0000 H   0  0  0  0  0  0  0  0  0  0  0  0
    4.1966    2.6446    0.0000 H   0  0  0  0  0  0  0  0  0  0  0  0
    4.7304   -1.2876    0.0000 H   0  0  0  0  0  0  0  0  0  0  0  0
    5.5580   -0.9980    0.0000 H   0  0  0  0  0  0  0  0  0  0  0  0
    5.2684   -0.1703    0.0000 H   0  0  0  0  0  0  0  0  0  0  0  0
    1.8978   -0.4993    0.0000 H   0  0  0  0  0  0  0  0  0  0  0  0
    2.7152   -2.0150    0.0000 H   0  0  0  0  0  0  0  0  0  0  0  0
    2.1380    1.9407    0.0000 H   0  0  0  0  0  0  0  0  0  0  0  0
    1.3955    1.4742    0.0000 H   0  0  0  0  0  0  0  0  0  0  0  0
    1.8620    0.7318    0.0000 H   0  0  0  0  0  0  0  0  0  0  0  0
    7.5152    1.0843    0.0000 H   0  0  0  0  0  0  0  0  0  0  0  0
    7.3904    2.1509    0.0000 H   0  0  0  0  0  0  0  0  0  0  0  0
    5.7673   -1.9802    0.0000 H   0  0  0  0  0  0  0  0  0  0  0  0
    5.7126   -2.8553    0.0000 H   0  0  0  0  0  0  0  0  0  0  0  0
    6.5878   -2.9099    0.0000 H   0  0  0  0  0  0  0  0  0  0  0  0
    8.3401   -1.6916    0.0000 H   0  0  0  0  0  0  0  0  0  0  0  0
    7.4657   -3.2048    0.0000 H   0  0  0  0  0  0  0  0  0  0  0  0
    8.1962   -3.6897    0.0000 H   0  0  0  0  0  0  0  0  0  0  0  0
    8.6811   -2.9591    0.0000 H   0  0  0  0  0  0  0  0  0  0  0  0
  9  1  1  6  0  0  0
  1 22  1  0  0  0  0
  2 12  1  0  0  0  0
  2 20  1  0  0  0  0
  3 13  2  0  0  0  0
  4 14  2  0  0  0  0
  5 20  2  0  0  0  0
  6 22  2  0  0  0  0
  7  8  1  0  0  0  0
  7  9  1  0  0  0  0
  7 13  1  0  0  0  0
  7 15  1  1  0  0  0
  8 11  1  0  0  0  0
  8 16  1  0  0  0  0
  8 27  1  6  0  0  0
  9 10  1  0  0  0  0
  9 28  1  0  0  0  0
 10 12  1  0  0  0  0
 10 17  1  0  0  0  0
 10 29  1  6  0  0  0
 11 14  1  0  0  0  0
 11 19  1  6  0  0  0
 11 30  1  0  0  0  0
 12 14  1  0  0  0  0
 12 31  1  6  0  0  0
 13 18  1  0  0  0  0
 15 32  1  0  0  0  0
 15 33  1  0  0  0  0
 15 34  1  0  0  0  0
 16 18  2  0  0  0  0
 16 35  1  0  0  0  0
 17 20  1  0  0  0  0
 17 21  2  0  0  0  0
 18 36  1  0  0  0  0
 19 37  1  0  0  0  0
 19 38  1  0  0  0  0
 19 39  1  0  0  0  0
 21 40  1  0  0  0  0
 21 41  1  0  0  0  0
 22 23  1  0  0  0  0
 23 24  1  0  0  0  0
 23 25  2  0  0  0  0
 24 42  1  0  0  0  0
 24 43  1  0  0  0  0
 24 44  1  0  0  0  0
 25 26  1  0  0  0  0
 25 45  1  0  0  0  0
 26 46  1  0  0  0  0
 26 47  1  0  0  0  0
 26 48  1  0  0  0  0
M  END
> <PUBCHEM_COMPOUND_CID>
5281487

> <PUBCHEM_COMPOUND_CANONICALIZED>
1

> <PUBCHEM_CACTVS_COMPLEXITY>
788

> <PUBCHEM_CACTVS_HBOND_ACCEPTOR>
6

> <PUBCHEM_CACTVS_HBOND_DONOR>
0

> <PUBCHEM_CACTVS_ROTATABLE_BOND>
3

> <PUBCHEM_CACTVS_SUBSKEYS>
AAADceB4OAAAAAAAAAAAAAAAAAAAASIAAAAAAAAABgAAAACQAAAAGgAAAAAADxSggAICCAAABACIAqDSCAIAAAAgAAAICAFAAEgABBYAIQQCEAAF4AAIIYPKzvDvgAAAAAAAAAAAAAAAAAAAAAAAAAAAAA==

> <PUBCHEM_IUPAC_OPENEYE_NAME>
[(3aS,5S,5aS,8aR,9S,9aS)-5,8a-dimethyl-1-methylene-2,4,8-trioxo-5,5a,9,9a-tetrahydro-3aH-azuleno[6,5-b]furan-9-yl] (E)-2-methylbut-2-enoate

> <PUBCHEM_IUPAC_CAS_NAME>
(E)-2-methyl-2-butenoic acid [(3aS,5S,5aS,8aR,9S,9aS)-5,8a-dimethyl-1-methylene-2,4,8-trioxo-5,5a,9,9a-tetrahydro-3aH-azuleno[6,5-b]furan-9-yl] ester

> <PUBCHEM_IUPAC_NAME>
[(3aS,5S,5aS,8aR,9S,9aS)-5,8a-dimethyl-1-methylidene-2,4,8-trioxo-5,5a,9,9a-tetrahydro-3aH-azuleno[6,5-b]furan-9-yl] (E)-2-methylbut-2-enoate

> <PUBCHEM_IUPAC_SYSTEMATIC_NAME>
[(3aS,5S,5aS,8aR,9S,9aS)-5,8a-dimethyl-1-methylidene-2,4,8-tris(oxidanylidene)-5,5a,9,9a-tetrahydro-3aH-azuleno[6,5-b]furan-9-yl] (E)-2-methylbut-2-enoate

> <PUBCHEM_IUPAC_TRADITIONAL_NAME>
(E)-2-methylbut-2-enoic acid [(3aS,5S,5aS,8aR,9S,9aS)-2,4,8-triketo-5,8a-dimethyl-1-methylene-5,5a,9,9a-tetrahydro-3aH-azuleno[6,5-b]furan-9-yl] ester

> <PUBCHEM_IUPAC_INCHI>
InChI=1S/C20H22O6/c1-6-9(2)18(23)26-17-14-11(4)19(24)25-16(14)15(22)10(3)12-7-8-13(21)20(12,17)5/h6-8,10,12,14,16-17H,4H2,1-3,5H3/b9-6+/t10-,12-,14+,16-,17-,20-/m0/s1

> <PUBCHEM_IUPAC_INCHIKEY>
YPIMMVOHCVOXKT-SHJUBZLESA-N

> <PUBCHEM_XLOGP3_AA>
2.4

> <PUBCHEM_EXACT_MASS>
358.141638

> <PUBCHEM_MOLECULAR_FORMULA>
C20H22O6

> <PUBCHEM_MOLECULAR_WEIGHT>
358.38508

> <PUBCHEM_OPENEYE_CAN_SMILES>
CC=C(C)C(=O)OC1C2C(C(=O)C(C3C1(C(=O)C=C3)C)C)OC(=O)C2=C

> <PUBCHEM_OPENEYE_ISO_SMILES>
C/C=C(\C)/C(=O)O[C@H]1[C@H]2[C@@H](C(=O)[C@H]([C@H]3[C@]1(C(=O)C=C3)C)C)OC(=O)C2=C

> <PUBCHEM_CACTVS_TPSA>
86.7

> <PUBCHEM_MONOISOTOPIC_WEIGHT>
358.141638

> <PUBCHEM_TOTAL_CHARGE>
0

> <PUBCHEM_HEAVY_ATOM_COUNT>
26

> <PUBCHEM_ATOM_DEF_STEREO_COUNT>
6

> <PUBCHEM_ATOM_UDEF_STEREO_COUNT>
0

> <PUBCHEM_BOND_DEF_STEREO_COUNT>
1

> <PUBCHEM_BOND_UDEF_STEREO_COUNT>
0

> <PUBCHEM_ISOTOPIC_ATOM_COUNT>
0

> <PUBCHEM_COMPONENT_COUNT>
1

> <PUBCHEM_CACTVS_TAUTO_COUNT>
13

> <PUBCHEM_COORDINATE_TYPE>
1
5
255

> <PUBCHEM_BONDANNOTATIONS>
9  1  6
10  29  6
11  19  6
12  31  6
7  15  5
8  27  6

$$$$

