5281372
  -OEChem-07051212562D

 49 51  0     1  0  0  0  0  0999 V2000
    5.1274   -2.6929    0.0000 O   0  0  0  0  0  0  0  0  0  0  0  0
    5.9602   -1.5065    0.0000 O   0  0  0  0  0  0  0  0  0  0  0  0
    2.2457    1.6104    0.0000 O   0  0  0  0  0  0  0  0  0  0  0  0
    3.4380   -0.7404    0.0000 C   0  0  1  0  0  0  0  0  0  0  0  0
    4.3777   -1.0825    0.0000 C   0  0  1  0  0  0  0  0  0  0  0  0
    2.8281   -1.5254    0.0000 C   0  0  0  0  0  0  0  0  0  0  0  0
    3.3847   -2.3490    0.0000 C   0  0  0  0  0  0  0  0  0  0  0  0
    4.3405   -2.0758    0.0000 C   0  0  0  0  0  0  0  0  0  0  0  0
    2.9380    0.1256    0.0000 C   0  0  0  0  0  0  0  0  0  0  0  0
    5.3174   -0.7404    0.0000 C   0  0  0  0  0  0  0  0  0  0  0  0
    5.8174    0.1256    0.0000 C   0  0  1  0  0  0  0  0  0  0  0  0
    5.3174   -1.4245    0.0000 C   0  0  0  0  0  0  0  0  0  0  0  0
    2.0000   -2.0860    0.0000 C   0  0  0  0  0  0  0  0  0  0  0  0
    2.0390   -0.9111    0.0000 C   0  0  0  0  0  0  0  0  0  0  0  0
    6.8022   -0.0102    0.0000 C   0  0  0  0  0  0  0  0  0  0  0  0
    5.6438    1.1104    0.0000 C   0  0  0  0  0  0  0  0  0  0  0  0
    7.2372    0.8836    0.0000 C   0  0  2  0  0  0  0  0  0  0  0  0
    3.1117    1.1104    0.0000 C   0  0  0  0  0  0  0  0  0  0  0  0
    6.5227    1.5748    0.0000 C   0  0  0  0  0  0  0  0  0  0  0  0
    3.8777    1.7532    0.0000 C   0  0  0  0  0  0  0  0  0  0  0  0
    4.8777    1.7532    0.0000 C   0  0  0  0  0  0  0  0  0  0  0  0
    8.2220    1.0573    0.0000 C   0  0  0  0  0  0  0  0  0  0  0  0
    3.5357    2.6929    0.0000 C   0  0  0  0  0  0  0  0  0  0  0  0
    2.5900   -0.6823    0.0000 H   0  0  0  0  0  0  0  0  0  0  0  0
    2.8373   -2.6402    0.0000 H   0  0  0  0  0  0  0  0  0  0  0  0
    3.6168   -2.9239    0.0000 H   0  0  0  0  0  0  0  0  0  0  0  0
    2.3840    0.4038    0.0000 H   0  0  0  0  0  0  0  0  0  0  0  0
    2.5126   -0.3254    0.0000 H   0  0  0  0  0  0  0  0  0  0  0  0
    6.1910   -0.6379    0.0000 H   0  0  0  0  0  0  0  0  0  0  0  0
    5.1054   -2.0071    0.0000 H   0  0  0  0  0  0  0  0  0  0  0  0
    5.9000   -1.6365    0.0000 H   0  0  0  0  0  0  0  0  0  0  0  0
    5.5295   -0.8419    0.0000 H   0  0  0  0  0  0  0  0  0  0  0  0
    1.6524   -1.5726    0.0000 H   0  0  0  0  0  0  0  0  0  0  0  0
    1.4866   -2.4336    0.0000 H   0  0  0  0  0  0  0  0  0  0  0  0
    2.3476   -2.5994    0.0000 H   0  0  0  0  0  0  0  0  0  0  0  0
    2.4199   -0.4219    0.0000 H   0  0  0  0  0  0  0  0  0  0  0  0
    1.5498   -0.5302    0.0000 H   0  0  0  0  0  0  0  0  0  0  0  0
    1.6581   -1.4003    0.0000 H   0  0  0  0  0  0  0  0  0  0  0  0
    6.6534   -0.6121    0.0000 H   0  0  0  0  0  0  0  0  0  0  0  0
    7.3851   -0.2214    0.0000 H   0  0  0  0  0  0  0  0  0  0  0  0
    7.6105    0.3886    0.0000 H   0  0  0  0  0  0  0  0  0  0  0  0
    6.6101    2.1886    0.0000 H   0  0  0  0  0  0  0  0  0  0  0  0
    5.0898    2.3358    0.0000 H   0  0  0  0  0  0  0  0  0  0  0  0
    8.3297    0.4467    0.0000 H   0  0  0  0  0  0  0  0  0  0  0  0
    8.8326    1.1650    0.0000 H   0  0  0  0  0  0  0  0  0  0  0  0
    8.1143    1.6679    0.0000 H   0  0  0  0  0  0  0  0  0  0  0  0
    4.1183    2.9049    0.0000 H   0  0  0  0  0  0  0  0  0  0  0  0
    3.3237    3.2755    0.0000 H   0  0  0  0  0  0  0  0  0  0  0  0
    2.9531    2.4808    0.0000 H   0  0  0  0  0  0  0  0  0  0  0  0
  1  8  2  0  0  0  0
  2 10  2  0  0  0  0
  3 18  2  0  0  0  0
  4  5  1  0  0  0  0
  4  6  1  0  0  0  0
  4  9  1  0  0  0  0
  4 24  1  6  0  0  0
  5  8  1  0  0  0  0
  5 10  1  0  0  0  0
  5 12  1  1  0  0  0
  6  7  1  0  0  0  0
  6 13  1  0  0  0  0
  6 14  1  0  0  0  0
  7  8  1  0  0  0  0
  7 25  1  0  0  0  0
  7 26  1  0  0  0  0
  9 18  1  0  0  0  0
  9 27  1  0  0  0  0
  9 28  1  0  0  0  0
 10 11  1  0  0  0  0
 11 15  1  0  0  0  0
 11 16  1  0  0  0  0
 11 29  1  1  0  0  0
 12 30  1  0  0  0  0
 12 31  1  0  0  0  0
 12 32  1  0  0  0  0
 13 33  1  0  0  0  0
 13 34  1  0  0  0  0
 13 35  1  0  0  0  0
 14 36  1  0  0  0  0
 14 37  1  0  0  0  0
 14 38  1  0  0  0  0
 15 17  1  0  0  0  0
 15 39  1  0  0  0  0
 15 40  1  0  0  0  0
 16 19  2  0  0  0  0
 16 21  1  0  0  0  0
 17 19  1  0  0  0  0
 17 22  1  6  0  0  0
 17 41  1  0  0  0  0
 18 20  1  0  0  0  0
 19 42  1  0  0  0  0
 20 21  2  0  0  0  0
 20 23  1  0  0  0  0
 21 43  1  0  0  0  0
 22 44  1  0  0  0  0
 22 45  1  0  0  0  0
 22 46  1  0  0  0  0
 23 47  1  0  0  0  0
 23 48  1  0  0  0  0
 23 49  1  0  0  0  0
M  END
> <PUBCHEM_COMPOUND_CID>
5281372

> <PUBCHEM_COMPOUND_CANONICALIZED>
1

> <PUBCHEM_CACTVS_COMPLEXITY>
664

> <PUBCHEM_CACTVS_HBOND_ACCEPTOR>
3

> <PUBCHEM_CACTVS_HBOND_DONOR>
0

> <PUBCHEM_CACTVS_ROTATABLE_BOND>
0

> <PUBCHEM_CACTVS_SUBSKEYS>
AAADceB4MAAAAAAAAAAAAAAAAAAAAYIAAAAAAAAAAAAAAEAAAAAAGgAAAAAADwSAgAACAAAAAACIAqBSAAAAAAAgAAAACAEAAEgIABIIAQAAAAAAgAAIgYMIisCvgAAAAAAAAAAAAAAAAAAAAQAACAAAAA==

> <PUBCHEM_IUPAC_INCHI>
InChI=1S/C20H26O3/c1-11-6-13-8-12(2)15(21)9-16-19(3,4)10-17(22)20(16,5)18(23)14(13)7-11/h6,8,11,14,16H,7,9-10H2,1-5H3/b12-8-/t11-,14-,16+,20-/m0/s1

> <PUBCHEM_IUPAC_INCHIKEY>
TYBGBKQPLBAYQG-CJIMKZOCSA-N

> <PUBCHEM_XLOGP3_AA>
3

> <PUBCHEM_EXACT_MASS>
314.188195

> <PUBCHEM_MOLECULAR_FORMULA>
C20H26O3

> <PUBCHEM_MOLECULAR_WEIGHT>
314.41864

> <PUBCHEM_OPENEYE_CAN_SMILES>
CC1CC2C(=C1)C=C(C(=O)CC3C(CC(=O)C3(C2=O)C)(C)C)C

> <PUBCHEM_OPENEYE_ISO_SMILES>
C[C@@H]1C[C@H]2C(=C1)/C=C(\C(=O)C[C@H]3[C@](C2=O)(C(=O)CC3(C)C)C)/C

> <PUBCHEM_CACTVS_TPSA>
51.2

> <PUBCHEM_MONOISOTOPIC_WEIGHT>
314.188195

> <PUBCHEM_TOTAL_CHARGE>
0

> <PUBCHEM_HEAVY_ATOM_COUNT>
23

> <PUBCHEM_ATOM_DEF_STEREO_COUNT>
4

> <PUBCHEM_ATOM_UDEF_STEREO_COUNT>
0

> <PUBCHEM_BOND_DEF_STEREO_COUNT>
1

> <PUBCHEM_BOND_UDEF_STEREO_COUNT>
0

> <PUBCHEM_ISOTOPIC_ATOM_COUNT>
0

> <PUBCHEM_COMPONENT_COUNT>
1

> <PUBCHEM_CACTVS_TAUTO_COUNT>
156

> <PUBCHEM_COORDINATE_TYPE>
1
5
255

> <PUBCHEM_BONDANNOTATIONS>
11  29  5
17  22  6
4  24  6
5  12  5

$$$$

