441753
  -OEChem-07051212562D

 70 75  0     1  0  0  0  0  0999 V2000
    4.8884   -2.5721    0.0000 O   0  0  0  0  0  0  0  0  0  0  0  0
    5.3025   -2.2127    0.0000 O   0  0  0  0  0  0  0  0  0  0  0  0
    4.3766    0.6409    0.0000 O   0  0  0  0  0  0  0  0  0  0  0  0
    2.5664   -0.6739    0.0000 O   0  0  0  0  0  0  0  0  0  0  0  0
    6.1562   -3.2092    0.0000 O   0  0  0  0  0  0  0  0  0  0  0  0
    7.2450   -0.6224    0.0000 O   0  0  0  0  0  0  0  0  0  0  0  0
    5.4919    1.2716    0.0000 O   0  0  0  0  0  0  0  0  0  0  0  0
    4.9073   -3.4653    0.0000 O   0  0  0  0  0  0  0  0  0  0  0  0
    3.7599    1.2746    0.0000 O   0  0  0  0  0  0  0  0  0  0  0  0
    5.4385    3.3595    0.0000 N   0  0  0  0  0  0  0  0  0  0  0  0
    4.9934   -1.2616    0.0000 C   0  0  2  0  0  0  0  0  0  0  0  0
    5.9875   -1.2591    0.0000 C   0  0  1  0  0  0  0  0  0  0  0  0
    4.6844   -0.3106    0.0000 C   0  0  1  0  0  0  0  0  0  0  0  0
    4.1844   -1.8494    0.0000 C   0  0  1  0  0  0  0  0  0  0  0  0
    3.6844   -0.3106    0.0000 C   0  0  2  0  0  0  0  0  0  0  0  0
    3.3754   -1.2616    0.0000 C   0  0  2  0  0  0  0  0  0  0  0  0
    5.8473   -2.2582    0.0000 C   0  0  2  0  0  0  0  0  0  0  0  0
    6.2939   -0.3134    0.0000 C   0  0  1  0  0  0  0  0  0  0  0  0
    5.3281   -0.6600    0.0000 C   0  0  0  0  0  0  0  0  0  0  0  0
    5.4902    0.2716    0.0000 C   0  0  1  0  0  0  0  0  0  0  0  0
    4.0915   -2.8869    0.0000 C   0  0  1  0  0  0  0  0  0  0  0  0
    2.4174   -1.6706    0.0000 C   0  0  0  0  0  0  0  0  0  0  0  0
    6.9875   -1.2565    0.0000 C   0  0  0  0  0  0  0  0  0  0  0  0
    3.0966    0.4984    0.0000 C   0  0  0  0  0  0  0  0  0  0  0  0
    6.8817    0.4956    0.0000 C   0  0  0  0  0  0  0  0  0  0  0  0
    3.1432   -3.3179    0.0000 C   0  0  2  0  0  0  0  0  0  0  0  0
    2.3006   -2.7056    0.0000 C   0  0  0  0  0  0  0  0  0  0  0  0
    7.8762    0.3911    0.0000 C   0  0  0  0  0  0  0  0  0  0  0  0
    6.4749    1.4092    0.0000 C   0  0  0  0  0  0  0  0  0  0  0  0
    3.0426   -4.3128    0.0000 C   0  0  0  0  0  0  0  0  0  0  0  0
    4.6267    1.7731    0.0000 C   0  0  0  0  0  0  0  0  0  0  0  0
    4.6285    2.7731    0.0000 C   0  0  0  0  0  0  0  0  0  0  0  0
    3.8205    3.3623    0.0000 C   0  0  0  0  0  0  0  0  0  0  0  0
    5.1311    4.3111    0.0000 C   0  0  0  0  0  0  0  0  0  0  0  0
    4.1311    4.3128    0.0000 C   0  0  0  0  0  0  0  0  0  0  0  0
    5.9420   -0.5738    0.0000 H   0  0  0  0  0  0  0  0  0  0  0  0
    5.3497   -0.0404    0.0000 H   0  0  0  0  0  0  0  0  0  0  0  0
    6.0430    0.5524    0.0000 H   0  0  0  0  0  0  0  0  0  0  0  0
    4.6545   -2.6271    0.0000 H   0  0  0  0  0  0  0  0  0  0  0  0
    2.2752   -1.0671    0.0000 H   0  0  0  0  0  0  0  0  0  0  0  0
    1.7985   -1.7075    0.0000 H   0  0  0  0  0  0  0  0  0  0  0  0
    6.9891   -1.8765    0.0000 H   0  0  0  0  0  0  0  0  0  0  0  0
    7.6075   -1.2549    0.0000 H   0  0  0  0  0  0  0  0  0  0  0  0
    6.9859   -0.6365    0.0000 H   0  0  0  0  0  0  0  0  0  0  0  0
    3.5982    0.8629    0.0000 H   0  0  0  0  0  0  0  0  0  0  0  0
    2.7322    1.0000    0.0000 H   0  0  0  0  0  0  0  0  0  0  0  0
    2.5951    0.1340    0.0000 H   0  0  0  0  0  0  0  0  0  0  0  0
    6.2651    0.5604    0.0000 H   0  0  0  0  0  0  0  0  0  0  0  0
    2.5773   -3.5712    0.0000 H   0  0  0  0  0  0  0  0  0  0  0  0
    5.4941   -2.8024    0.0000 H   0  0  0  0  0  0  0  0  0  0  0  0
    1.7055   -2.5317    0.0000 H   0  0  0  0  0  0  0  0  0  0  0  0
    2.0273   -3.2622    0.0000 H   0  0  0  0  0  0  0  0  0  0  0  0
    4.7921    1.1011    0.0000 H   0  0  0  0  0  0  0  0  0  0  0  0
    2.0000   -0.9260    0.0000 H   0  0  0  0  0  0  0  0  0  0  0  0
    6.7627   -3.3382    0.0000 H   0  0  0  0  0  0  0  0  0  0  0  0
    7.7057   -0.2075    0.0000 H   0  0  0  0  0  0  0  0  0  0  0  0
    4.8496   -4.0826    0.0000 H   0  0  0  0  0  0  0  0  0  0  0  0
    7.0413    1.6614    0.0000 H   0  0  0  0  0  0  0  0  0  0  0  0
    6.2228    1.9756    0.0000 H   0  0  0  0  0  0  0  0  0  0  0  0
    5.9086    1.1570    0.0000 H   0  0  0  0  0  0  0  0  0  0  0  0
    7.8114   -0.2255    0.0000 H   0  0  0  0  0  0  0  0  0  0  0  0
    8.4928    0.3263    0.0000 H   0  0  0  0  0  0  0  0  0  0  0  0
    7.9410    1.0077    0.0000 H   0  0  0  0  0  0  0  0  0  0  0  0
    2.4257   -4.2504    0.0000 H   0  0  0  0  0  0  0  0  0  0  0  0
    2.9801   -4.9297    0.0000 H   0  0  0  0  0  0  0  0  0  0  0  0
    3.6594   -4.3752    0.0000 H   0  0  0  0  0  0  0  0  0  0  0  0
    6.0278    3.1669    0.0000 H   0  0  0  0  0  0  0  0  0  0  0  0
    3.2305    3.1717    0.0000 H   0  0  0  0  0  0  0  0  0  0  0  0
    5.4964    4.8120    0.0000 H   0  0  0  0  0  0  0  0  0  0  0  0
    3.7676    4.8150    0.0000 H   0  0  0  0  0  0  0  0  0  0  0  0
 14  1  1  6  0  0  0
  1 17  1  0  0  0  0
 11  2  1  1  0  0  0
  2 50  1  0  0  0  0
 13  3  1  1  0  0  0
  3 53  1  0  0  0  0
 16  4  1  1  0  0  0
  4 54  1  0  0  0  0
 17  5  1  6  0  0  0
  5 55  1  0  0  0  0
 18  6  1  1  0  0  0
  6 56  1  0  0  0  0
 20  7  1  6  0  0  0
  7 31  1  0  0  0  0
 21  8  1  6  0  0  0
  8 57  1  0  0  0  0
  9 31  2  0  0  0  0
 10 32  1  0  0  0  0
 10 34  1  0  0  0  0
 10 67  1  0  0  0  0
 11 12  1  0  0  0  0
 11 13  1  0  0  0  0
 11 14  1  0  0  0  0
 12 17  1  0  0  0  0
 12 18  1  0  0  0  0
 12 23  1  1  0  0  0
 13 15  1  0  0  0  0
 13 20  1  0  0  0  0
 14 16  1  0  0  0  0
 14 21  1  0  0  0  0
 15 16  1  0  0  0  0
 15 19  1  0  0  0  0
 15 24  1  6  0  0  0
 16 22  1  0  0  0  0
 17 19  1  0  0  0  0
 18 20  1  0  0  0  0
 18 25  1  0  0  0  0
 19 36  1  0  0  0  0
 19 37  1  0  0  0  0
 20 38  1  0  0  0  0
 21 26  1  0  0  0  0
 21 39  1  0  0  0  0
 22 27  1  0  0  0  0
 22 40  1  0  0  0  0
 22 41  1  0  0  0  0
 23 42  1  0  0  0  0
 23 43  1  0  0  0  0
 23 44  1  0  0  0  0
 24 45  1  0  0  0  0
 24 46  1  0  0  0  0
 24 47  1  0  0  0  0
 25 28  1  0  0  0  0
 25 29  1  0  0  0  0
 25 48  1  0  0  0  0
 26 27  1  0  0  0  0
 26 30  1  1  0  0  0
 26 49  1  0  0  0  0
 27 51  1  0  0  0  0
 27 52  1  0  0  0  0
 28 61  1  0  0  0  0
 28 62  1  0  0  0  0
 28 63  1  0  0  0  0
 29 58  1  0  0  0  0
 29 59  1  0  0  0  0
 29 60  1  0  0  0  0
 30 64  1  0  0  0  0
 30 65  1  0  0  0  0
 30 66  1  0  0  0  0
 31 32  1  0  0  0  0
 32 33  2  0  0  0  0
 33 35  1  0  0  0  0
 33 68  1  0  0  0  0
 34 35  2  0  0  0  0
 34 69  1  0  0  0  0
 35 70  1  0  0  0  0
M  END
> <PUBCHEM_COMPOUND_CID>
441753

> <PUBCHEM_COMPOUND_CANONICALIZED>
1

> <PUBCHEM_CACTVS_COMPLEXITY>
1010

> <PUBCHEM_CACTVS_HBOND_ACCEPTOR>
9

> <PUBCHEM_CACTVS_HBOND_DONOR>
7

> <PUBCHEM_CACTVS_ROTATABLE_BOND>
4

> <PUBCHEM_CACTVS_SUBSKEYS>
AAADcfB6PAAAAAAAAAAAAAAAAAAAAeNECAA0QAAABgAAAGCRgAAAHgAQCAAAD1zhlgY+iJLJlgCoATT3TASCgCA3AiAI2aG4bNgbNvLAtbmHUQhl0AHf6YfY8fwPgAAAAAAAAADCAAYQADCAAYQADCAAAA==

> <PUBCHEM_IUPAC_INCHI>
InChI=1S/C25H35NO9/c1-12(2)22(31)17(34-16(28)14-7-6-10-26-14)23(32)18(4)11-21(30)19(22,5)25(23,33)24(35-21)15(27)13(3)8-9-20(18,24)29/h6-7,10,12-13,15,17,26-27,29-33H,8-9,11H2,1-5H3/t13-,15+,17+,18-,19-,20-,21-,22+,23+,24+,25+/m0/s1

> <PUBCHEM_IUPAC_INCHIKEY>
JJSYXNQGLHBRRK-YSOSZROBSA-N

> <PUBCHEM_XLOGP3_AA>
-0.5

> <PUBCHEM_EXACT_MASS>
493.231182

> <PUBCHEM_MOLECULAR_FORMULA>
C25H35NO9

> <PUBCHEM_MOLECULAR_WEIGHT>
493.5467

> <PUBCHEM_OPENEYE_CAN_SMILES>
CC1CCC2(C3(CC4(C5(C(C(C3(C5(C2(C1O)O4)O)O)OC(=O)C6=CC=CN6)(C(C)C)O)C)O)C)O

> <PUBCHEM_OPENEYE_ISO_SMILES>
C[C@H]1CC[C@@]2([C@@]3(C[C@]4([C@]5([C@]([C@H]([C@@]3([C@]5([C@]2([C@@H]1O)O4)O)O)OC(=O)C6=CC=CN6)(C(C)C)O)C)O)C)O

> <PUBCHEM_CACTVS_TPSA>
173

> <PUBCHEM_MONOISOTOPIC_WEIGHT>
493.231182

> <PUBCHEM_TOTAL_CHARGE>
0

> <PUBCHEM_HEAVY_ATOM_COUNT>
35

> <PUBCHEM_ATOM_DEF_STEREO_COUNT>
11

> <PUBCHEM_ATOM_UDEF_STEREO_COUNT>
0

> <PUBCHEM_BOND_DEF_STEREO_COUNT>
0

> <PUBCHEM_BOND_UDEF_STEREO_COUNT>
0

> <PUBCHEM_ISOTOPIC_ATOM_COUNT>
0

> <PUBCHEM_COMPONENT_COUNT>
1

> <PUBCHEM_CACTVS_TAUTO_COUNT>
4

> <PUBCHEM_COORDINATE_TYPE>
1
5
255

> <PUBCHEM_BONDANNOTATIONS>
14  1  6
10  32  8
10  34  8
12  23  5
15  24  6
11  2  5
26  30  5
13  3  5
32  33  8
33  35  8
34  35  8
16  4  5
17  5  6
18  6  5
20  7  6
21  8  6

$$$$

