   Color/Form
        Colorless liquid [Note: A gas above 91 degrees F].
   from [1]HSDB

   Odor
        Ammonia odor
   from [2]HSDB

   Boiling Point
        31.76 deg C
   from [3]HSDB

   Melting Point
        -95.13 deg C
   from [4]HSDB

   Critical Temperature and Pressure
        Critical temperature: 472.2 K; Critical pressure: 4.55 MPa
   from [5]HSDB

   Density/Specific Gravity
        0.6891 at 20 deg C
   from [6]HSDB

   Dissociation Constants
        pKa = 10.63 [Perrin CL, Fabian MA; Anal Chem 68: 2127-34 (1996)]
   [7]PubMed Abstract
   from [8]HSDB

   Heat of Combustion
        -2345.5 kJ/mol (liquid); -2383.1 kJ/mol (gas)
   from [9]HSDB

   Heat of Vaporization
        28.36 kJ/mol at 25 deg C
   from [10]HSDB

   Octanol/Water Partition Coefficient
        log Kow = 0.26
   from [11]HSDB

   pH
        Strong base
   from [12]HSDB

   Solubilities

     * Miscible in water, ethanol, ether; very soluble in acetone; sol in
       benzene, chloroform
     * In water, 1X10+6 mg/L at 20 deg C /miscible/

   from [13]HSDB

   Spectral Properties

     * Index of refraction: 1.3742 at 20 deg C
     * IR: 3813 (Coblentz Society spectral collection)
     * NMR: 9118 (Sadtler Research Laboratories spectral collection)
     * MASS: 18968 (NIST/EPA/MSDC Mass Spectral Database, 1990 Version)
     * RAMAN: 1053 (Sadtler Research Laboratories spectral collection)

   from [14]HSDB

   Surface Tension
        16.8 dynes/cm= 0.0168 N/m at 20 deg C
   from [15]HSDB

   Vapor Density
        2.04 (Air = 1)
   from [16]HSDB

   Vapor Pressure
        579.6 mm Hg at 25 deg C
   from [17]HSDB

   Other Chemical/Physical Properties

     * Bulk density: 5.7 lb/gal at 20 deg C; flash point (open cup): -37.2
       deg C; autoignition temp: 402 deg C
     * Critical molar volume = 219 cu cm/mol
     * Henry's Law constant = 4.5X10-5 atm-cu m/mol at 25 deg C (est)
     * Hydroxyl radical reaction rate constant = 3.9X10-11 cu cm/molec-sec
       at 25 deg C (est)

   from [18]HSDB

   Computed Properties
   Molecular Weight                  59.11026 [g/mol]
   Molecular Formula                 C[3]H[9]N
   XLogP3-AA                         0.1
   H-Bond Donor                      1
   H-Bond Acceptor                   1
   Rotatable Bond Count              0
   Exact Mass                        59.073499
   MonoIsotopic Mass                 59.073499
   Topological Polar Surface Area    26
   Heavy Atom Count                  4
   Formal Charge                     0
   Complexity                        10.8
   Isotope Atom Count                0
   Defined Atom Stereocenter Count   0
   Undefined Atom Stereocenter Count 0
   Defined Bond Stereocenter Count   0
   Undefined Bond Stereocenter Count 0
   Covalently-Bonded Unit Count      1
   Feature 3D Donor Count            1
   Feature 3D Cation Count           1
   Feature 3D Hydrophobe Count       1
   Effective Rotor Count             0
   Conformer Sampling RMSD           0.4
   CID Conformer Count               [19]1

References

   1. http://toxnet.nlm.nih.gov/cgi-bin/sis/search/r?dbs+hsdb:@term+@rn+@rel+75-31-0
   2. http://toxnet.nlm.nih.gov/cgi-bin/sis/search/r?dbs+hsdb:@term+@rn+@rel+75-31-0
   3. http://toxnet.nlm.nih.gov/cgi-bin/sis/search/r?dbs+hsdb:@term+@rn+@rel+75-31-0
   4. http://toxnet.nlm.nih.gov/cgi-bin/sis/search/r?dbs+hsdb:@term+@rn+@rel+75-31-0
   5. http://toxnet.nlm.nih.gov/cgi-bin/sis/search/r?dbs+hsdb:@term+@rn+@rel+75-31-0
   6. http://toxnet.nlm.nih.gov/cgi-bin/sis/search/r?dbs+hsdb:@term+@rn+@rel+75-31-0
   7. http://www.ncbi.nlm.nih.gov/entrez/query.fcgi?cmd=Retrieve&db=pubmed&dopt=Abstract&list_uids=9027228
   8. http://toxnet.nlm.nih.gov/cgi-bin/sis/search/r?dbs+hsdb:@term+@rn+@rel+75-31-0
   9. http://toxnet.nlm.nih.gov/cgi-bin/sis/search/r?dbs+hsdb:@term+@rn+@rel+75-31-0
  10. http://toxnet.nlm.nih.gov/cgi-bin/sis/search/r?dbs+hsdb:@term+@rn+@rel+75-31-0
  11. http://toxnet.nlm.nih.gov/cgi-bin/sis/search/r?dbs+hsdb:@term+@rn+@rel+75-31-0
  12. http://toxnet.nlm.nih.gov/cgi-bin/sis/search/r?dbs+hsdb:@term+@rn+@rel+75-31-0
  13. http://toxnet.nlm.nih.gov/cgi-bin/sis/search/r?dbs+hsdb:@term+@rn+@rel+75-31-0
  14. http://toxnet.nlm.nih.gov/cgi-bin/sis/search/r?dbs+hsdb:@term+@rn+@rel+75-31-0
  15. http://toxnet.nlm.nih.gov/cgi-bin/sis/search/r?dbs+hsdb:@term+@rn+@rel+75-31-0
  16. http://toxnet.nlm.nih.gov/cgi-bin/sis/search/r?dbs+hsdb:@term+@rn+@rel+75-31-0
  17. http://toxnet.nlm.nih.gov/cgi-bin/sis/search/r?dbs+hsdb:@term+@rn+@rel+75-31-0
  18. http://toxnet.nlm.nih.gov/cgi-bin/sis/search/r?dbs+hsdb:@term+@rn+@rel+75-31-0
  19. http://pubchem.ncbi.nlm.nih.gov/vw3d/vw3d.cgi?cid=6363
