224156
  -OEChem-07051213072D

 55 58  0     1  0  0  0  0  0999 V2000
    8.6500    2.5468    0.0000 O   0  0  0  0  0  0  0  0  0  0  0  0
    2.0000   -1.7608    0.0000 O   0  0  0  0  0  0  0  0  0  0  0  0
    7.3931    0.2915    0.0000 C   0  0  2  0  0  0  0  0  0  0  0  0
    7.3931    1.2915    0.0000 C   0  0  2  0  0  0  0  0  0  0  0  0
    6.5271   -0.2085    0.0000 C   0  0  1  0  0  0  0  0  0  0  0  0
    5.6610    0.2915    0.0000 C   0  0  1  0  0  0  0  0  0  0  0  0
    4.7510   -0.2153    0.0000 C   0  0  2  0  0  0  0  0  0  0  0  0
    6.5271    1.7915    0.0000 C   0  0  0  0  0  0  0  0  0  0  0  0
    5.6610    1.2915    0.0000 C   0  0  0  0  0  0  0  0  0  0  0  0
    8.3393    1.5962    0.0000 C   0  0  2  0  0  0  0  0  0  0  0  0
    8.3393   -0.0132    0.0000 C   0  0  0  0  0  0  0  0  0  0  0  0
    6.5431   -1.2500    0.0000 C   0  0  0  0  0  0  0  0  0  0  0  0
    8.9229    0.7915    0.0000 C   0  0  0  0  0  0  0  0  0  0  0  0
    4.7430   -1.2569    0.0000 C   0  0  0  0  0  0  0  0  0  0  0  0
    3.8242    0.3487    0.0000 C   0  0  0  0  0  0  0  0  0  0  0  0
    7.3931    2.2915    0.0000 C   0  0  0  0  0  0  0  0  0  0  0  0
    5.6451   -1.7778    0.0000 C   0  0  0  0  0  0  0  0  0  0  0  0
    3.8076   -1.8067    0.0000 C   0  0  0  0  0  0  0  0  0  0  0  0
    4.7587    0.7846    0.0000 C   0  0  0  0  0  0  0  0  0  0  0  0
    2.8763   -0.1792    0.0000 C   0  0  0  0  0  0  0  0  0  0  0  0
    2.8680   -1.2642    0.0000 C   0  0  0  0  0  0  0  0  0  0  0  0
    3.3109   -2.6746    0.0000 C   0  0  0  0  0  0  0  0  0  0  0  0
    4.3109   -2.6708    0.0000 C   0  0  0  0  0  0  0  0  0  0  0  0
    7.4830   -0.5537    0.0000 H   0  0  0  0  0  0  0  0  0  0  0  0
    7.2664   -0.6278    0.0000 H   0  0  0  0  0  0  0  0  0  0  0  0
    6.3972    0.7165    0.0000 H   0  0  0  0  0  0  0  0  0  0  0  0
    6.9256    2.2664    0.0000 H   0  0  0  0  0  0  0  0  0  0  0  0
    6.1285    2.2664    0.0000 H   0  0  0  0  0  0  0  0  0  0  0  0
    5.4490    1.8741    0.0000 H   0  0  0  0  0  0  0  0  0  0  0  0
    5.0504    1.1838    0.0000 H   0  0  0  0  0  0  0  0  0  0  0  0
    7.9018    2.0356    0.0000 H   0  0  0  0  0  0  0  0  0  0  0  0
    8.0883   -0.5801    0.0000 H   0  0  0  0  0  0  0  0  0  0  0  0
    8.8767   -0.3225    0.0000 H   0  0  0  0  0  0  0  0  0  0  0  0
    6.7612   -1.8304    0.0000 H   0  0  0  0  0  0  0  0  0  0  0  0
    7.1523   -1.1345    0.0000 H   0  0  0  0  0  0  0  0  0  0  0  0
    9.3838    0.3768    0.0000 H   0  0  0  0  0  0  0  0  0  0  0  0
    9.3838    1.2062    0.0000 H   0  0  0  0  0  0  0  0  0  0  0  0
    4.2324    0.8154    0.0000 H   0  0  0  0  0  0  0  0  0  0  0  0
    3.4343    0.8308    0.0000 H   0  0  0  0  0  0  0  0  0  0  0  0
    8.0131    2.2915    0.0000 H   0  0  0  0  0  0  0  0  0  0  0  0
    7.3931    2.9115    0.0000 H   0  0  0  0  0  0  0  0  0  0  0  0
    6.7731    2.2915    0.0000 H   0  0  0  0  0  0  0  0  0  0  0  0
    5.6475   -2.3978    0.0000 H   0  0  0  0  0  0  0  0  0  0  0  0
    5.3787    0.7798    0.0000 H   0  0  0  0  0  0  0  0  0  0  0  0
    4.7635    1.4046    0.0000 H   0  0  0  0  0  0  0  0  0  0  0  0
    4.1388    0.7894    0.0000 H   0  0  0  0  0  0  0  0  0  0  0  0
    2.6718    0.4061    0.0000 H   0  0  0  0  0  0  0  0  0  0  0  0
    2.2647   -0.2806    0.0000 H   0  0  0  0  0  0  0  0  0  0  0  0
    9.2566    2.6746    0.0000 H   0  0  0  0  0  0  0  0  0  0  0  0
    3.7752   -2.9828    0.0000 H   0  0  0  0  0  0  0  0  0  0  0  0
    4.6230   -3.2065    0.0000 H   0  0  0  0  0  0  0  0  0  0  0  0
    4.8466   -2.3587    0.0000 H   0  0  0  0  0  0  0  0  0  0  0  0
    2.7728   -2.3667    0.0000 H   0  0  0  0  0  0  0  0  0  0  0  0
    3.0030   -3.2127    0.0000 H   0  0  0  0  0  0  0  0  0  0  0  0
    3.8490   -2.9825    0.0000 H   0  0  0  0  0  0  0  0  0  0  0  0
 10  1  1  1  0  0  0
  1 49  1  0  0  0  0
  2 21  2  0  0  0  0
  3  4  1  0  0  0  0
  3  5  1  0  0  0  0
  3 11  1  0  0  0  0
  3 24  1  6  0  0  0
  4  8  1  0  0  0  0
  4 10  1  0  0  0  0
  4 16  1  1  0  0  0
  5  6  1  0  0  0  0
  5 12  1  0  0  0  0
  5 25  1  1  0  0  0
  6  7  1  0  0  0  0
  6  9  1  0  0  0  0
  6 26  1  6  0  0  0
  7 14  1  0  0  0  0
  7 15  1  0  0  0  0
  7 19  1  1  0  0  0
  8  9  1  0  0  0  0
  8 27  1  0  0  0  0
  8 28  1  0  0  0  0
  9 29  1  0  0  0  0
  9 30  1  0  0  0  0
 10 13  1  0  0  0  0
 10 31  1  0  0  0  0
 11 13  1  0  0  0  0
 11 32  1  0  0  0  0
 11 33  1  0  0  0  0
 12 17  1  0  0  0  0
 12 34  1  0  0  0  0
 12 35  1  0  0  0  0
 13 36  1  0  0  0  0
 13 37  1  0  0  0  0
 14 17  2  0  0  0  0
 14 18  1  0  0  0  0
 15 20  1  0  0  0  0
 15 38  1  0  0  0  0
 15 39  1  0  0  0  0
 16 40  1  0  0  0  0
 16 41  1  0  0  0  0
 16 42  1  0  0  0  0
 17 43  1  0  0  0  0
 18 21  1  0  0  0  0
 18 22  1  0  0  0  0
 18 23  1  0  0  0  0
 19 44  1  0  0  0  0
 19 45  1  0  0  0  0
 19 46  1  0  0  0  0
 20 21  1  0  0  0  0
 20 47  1  0  0  0  0
 20 48  1  0  0  0  0
 22 53  1  0  0  0  0
 22 54  1  0  0  0  0
 22 55  1  0  0  0  0
 23 50  1  0  0  0  0
 23 51  1  0  0  0  0
 23 52  1  0  0  0  0
M  END
> <PUBCHEM_COMPOUND_CID>
224156

> <PUBCHEM_COMPOUND_CANONICALIZED>
1

> <PUBCHEM_CACTVS_COMPLEXITY>
574

> <PUBCHEM_CACTVS_HBOND_ACCEPTOR>
2

> <PUBCHEM_CACTVS_HBOND_DONOR>
1

> <PUBCHEM_CACTVS_ROTATABLE_BOND>
0

> <PUBCHEM_CACTVS_SUBSKEYS>
AAADcfB4MAAAAAAAAAAAAAAAAAAAAYAAAAAwYIAAAAAAAGCAAAAAGgAACAAADxSggAICAAAAAgCIAqBSAAAAAAAgAAAACAEAAAgAEBIAAAAAQAAEgAAIAAOIyPCPgAAAAAAAAACAAAQAACAAAIAADAAAAA==

> <PUBCHEM_IUPAC_OPENEYE_NAME>
(8R,9S,10R,13S,14S,17S)-17-hydroxy-4,4,10,13-tetramethyl-2,7,8,9,11,12,14,15,16,17-decahydro-1H-cyclopenta[a]phenanthren-3-one

> <PUBCHEM_IUPAC_CAS_NAME>
(8R,9S,10R,13S,14S,17S)-17-hydroxy-4,4,10,13-tetramethyl-2,7,8,9,11,12,14,15,16,17-decahydro-1H-cyclopenta[a]phenanthren-3-one

> <PUBCHEM_IUPAC_NAME>
(8R,9S,10R,13S,14S,17S)-17-hydroxy-4,4,10,13-tetramethyl-2,7,8,9,11,12,14,15,16,17-decahydro-1H-cyclopenta[a]phenanthren-3-one

> <PUBCHEM_IUPAC_SYSTEMATIC_NAME>
(8R,9S,10R,13S,14S,17S)-4,4,10,13-tetramethyl-17-oxidanyl-2,7,8,9,11,12,14,15,16,17-decahydro-1H-cyclopenta[a]phenanthren-3-one

> <PUBCHEM_IUPAC_TRADITIONAL_NAME>
(8R,9S,10R,13S,14S,17S)-17-hydroxy-4,4,10,13-tetramethyl-2,7,8,9,11,12,14,15,16,17-decahydro-1H-cyclopenta[a]phenanthren-3-one

> <PUBCHEM_IUPAC_INCHI>
InChI=1S/C21H32O2/c1-19(2)16-7-5-13-14-6-8-18(23)21(14,4)11-9-15(13)20(16,3)12-10-17(19)22/h7,13-15,18,23H,5-6,8-12H2,1-4H3/t13-,14-,15-,18-,20+,21-/m0/s1

> <PUBCHEM_IUPAC_INCHIKEY>
YTYDBCHHXXGVEN-KUJXMBTLSA-N

> <PUBCHEM_XLOGP3>
4.1

> <PUBCHEM_EXACT_MASS>
316.24023

> <PUBCHEM_MOLECULAR_FORMULA>
C21H32O2

> <PUBCHEM_MOLECULAR_WEIGHT>
316.47758

> <PUBCHEM_OPENEYE_CAN_SMILES>
CC1(C(=O)CCC2(C1=CCC3C2CCC4(C3CCC4O)C)C)C

> <PUBCHEM_OPENEYE_ISO_SMILES>
C[C@]12CC[C@H]3[C@H]([C@@H]1CC[C@@H]2O)CC=C4[C@@]3(CCC(=O)C4(C)C)C

> <PUBCHEM_CACTVS_TPSA>
37.3

> <PUBCHEM_MONOISOTOPIC_WEIGHT>
316.24023

> <PUBCHEM_TOTAL_CHARGE>
0

> <PUBCHEM_HEAVY_ATOM_COUNT>
23

> <PUBCHEM_ATOM_DEF_STEREO_COUNT>
6

> <PUBCHEM_ATOM_UDEF_STEREO_COUNT>
0

> <PUBCHEM_BOND_DEF_STEREO_COUNT>
0

> <PUBCHEM_BOND_UDEF_STEREO_COUNT>
0

> <PUBCHEM_ISOTOPIC_ATOM_COUNT>
0

> <PUBCHEM_COMPONENT_COUNT>
1

> <PUBCHEM_CACTVS_TAUTO_COUNT>
2

> <PUBCHEM_COORDINATE_TYPE>
1
5
255

> <PUBCHEM_BONDANNOTATIONS>
10  1  5
3  24  6
4  16  5
5  25  5
6  26  6
7  19  5

$$$$

