   Color/Form
        BLUE-VIOLET CRYSTALS
   from [1]HSDB

   Melting Point
        ABOVE 360 DEG C
   from [2]HSDB

   Octanol/Water Partition Coefficient
        logP = -0.40
   from [3]HSDB

   Solubilities

     * SOL IN WATER, METHANOL, BUTYL ACETATE, ACETONE, AND CYCLOHEXANONE;
       SLIGHTLY SOL IN BENZENE, ETHER, AND CARBON TETRACHLORIDE;
       PRACTICALLY INSOL IN PETROLEUM ETHER.
     * Freely soluble in organic solvents

   from [4]HSDB

   Spectral Properties
        MAX ABSORPTION (METHANOL): 216 NM (E= 742, 1%, 1 CM); 360 NM (E=
   742, 1%, 1 CM) 560 NM (E= 0.06, 1%, 1 CM)
   from [5]HSDB

   Other Chemical/Physical Properties
        LogP = -0.38; Henry's Law constant = 2.5X10-10 atm-cu m/mol
   from [6]HSDB

   Computed Properties
   Molecular Weight                  334.32722 [g/mol]
   Molecular Formula                 C[15]H[18]N[4]O[5]
   XLogP3                            -0.4
   H-Bond Donor                      3
   H-Bond Acceptor                   8
   Rotatable Bond Count              4
   Tautomer Count                    42
   Exact Mass                        334.12772
   MonoIsotopic Mass                 334.12772
   Topological Polar Surface Area    147
   Heavy Atom Count                  24
   Formal Charge                     0
   Complexity                        757
   Isotope Atom Count                0
   Defined Atom Stereocenter Count   4
   Undefined Atom Stereocenter Count 0
   Defined Bond Stereocenter Count   0
   Undefined Bond Stereocenter Count 0
   Covalently-Bonded Unit Count      1
   Feature 3D Acceptor Count         4
   Feature 3D Donor Count            3
   Feature 3D Cation Count           3
   Feature 3D Ring Count             3
   Effective Rotor Count             4.6
   Conformer Sampling RMSD           0.8
   CID Conformer Count               [7]5

References

   1. http://toxnet.nlm.nih.gov/cgi-bin/sis/search/r?dbs+hsdb:@term+@rn+@rel+50-07-7
   2. http://toxnet.nlm.nih.gov/cgi-bin/sis/search/r?dbs+hsdb:@term+@rn+@rel+50-07-7
   3. http://toxnet.nlm.nih.gov/cgi-bin/sis/search/r?dbs+hsdb:@term+@rn+@rel+50-07-7
   4. http://toxnet.nlm.nih.gov/cgi-bin/sis/search/r?dbs+hsdb:@term+@rn+@rel+50-07-7
   5. http://toxnet.nlm.nih.gov/cgi-bin/sis/search/r?dbs+hsdb:@term+@rn+@rel+50-07-7
   6. http://toxnet.nlm.nih.gov/cgi-bin/sis/search/r?dbs+hsdb:@term+@rn+@rel+50-07-7
   7. http://pubchem.ncbi.nlm.nih.gov/vw3d/vw3d.cgi?cid=5746
