157629
  -OEChem-07051212592D

 45 46  0     1  0  0  0  0  0999 V2000
    3.7320    0.3450    0.0000 O   0  0  0  0  0  0  0  0  0  0  0  0
    6.3301   -1.1550    0.0000 O   0  0  0  0  0  0  0  0  0  0  0  0
    6.3301    2.8450    0.0000 O   0  0  0  0  0  0  0  0  0  0  0  0
    8.0785   -1.1896    0.0000 O   0  0  0  0  0  0  0  0  0  0  0  0
    8.0785    2.8796    0.0000 O   0  0  0  0  0  0  0  0  0  0  0  0
    2.8660   -1.1550    0.0000 O   0  0  0  0  0  0  0  0  0  0  0  0
    4.5981   -0.1550    0.0000 C   0  0  2  0  0  0  0  0  0  0  0  0
    5.4641    0.3450    0.0000 C   0  0  0  0  0  0  0  0  0  0  0  0
    4.5981   -1.1550    0.0000 C   0  0  0  0  0  0  0  0  0  0  0  0
    6.3301   -0.1550    0.0000 C   0  0  0  0  0  0  0  0  0  0  0  0
    7.1962    0.3450    0.0000 C   0  0  0  0  0  0  0  0  0  0  0  0
    7.1962    1.3450    0.0000 C   0  0  0  0  0  0  0  0  0  0  0  0
    5.4641    1.3450    0.0000 C   0  0  0  0  0  0  0  0  0  0  0  0
    6.3301    1.8450    0.0000 C   0  0  0  0  0  0  0  0  0  0  0  0
    3.7320   -1.6550    0.0000 C   0  0  0  0  0  0  0  0  0  0  0  0
    8.0901   -0.1897    0.0000 C   0  0  0  0  0  0  0  0  0  0  0  0
    8.0901    1.8797    0.0000 C   0  0  0  0  0  0  0  0  0  0  0  0
    3.7320   -2.6550    0.0000 C   0  0  0  0  0  0  0  0  0  0  0  0
    8.9962    0.3242    0.0000 C   0  0  0  0  0  0  0  0  0  0  0  0
    8.9962    1.3658    0.0000 C   0  0  0  0  0  0  0  0  0  0  0  0
    2.8660   -0.1550    0.0000 C   0  0  0  0  0  0  0  0  0  0  0  0
    2.8660   -3.1550    0.0000 C   0  0  0  0  0  0  0  0  0  0  0  0
    4.5981   -3.1550    0.0000 C   0  0  0  0  0  0  0  0  0  0  0  0
    5.4641   -1.6550    0.0000 C   0  0  0  0  0  0  0  0  0  0  0  0
    2.0000    0.3450    0.0000 C   0  0  0  0  0  0  0  0  0  0  0  0
    4.5981    0.4650    0.0000 H   0  0  0  0  0  0  0  0  0  0  0  0
    4.8101   -1.7376    0.0000 H   0  0  0  0  0  0  0  0  0  0  0  0
    5.2087   -1.0473    0.0000 H   0  0  0  0  0  0  0  0  0  0  0  0
    4.9272    1.6550    0.0000 H   0  0  0  0  0  0  0  0  0  0  0  0
    3.1951   -1.3450    0.0000 H   0  0  0  0  0  0  0  0  0  0  0  0
    9.5319    0.0121    0.0000 H   0  0  0  0  0  0  0  0  0  0  0  0
    9.5319    1.6779    0.0000 H   0  0  0  0  0  0  0  0  0  0  0  0
    4.2881   -3.6919    0.0000 H   0  0  0  0  0  0  0  0  0  0  0  0
    2.5560   -2.6181    0.0000 H   0  0  0  0  0  0  0  0  0  0  0  0
    2.3291   -3.4650    0.0000 H   0  0  0  0  0  0  0  0  0  0  0  0
    3.1760   -3.6919    0.0000 H   0  0  0  0  0  0  0  0  0  0  0  0
    5.1350   -3.4650    0.0000 H   0  0  0  0  0  0  0  0  0  0  0  0
    4.9081   -2.6181    0.0000 H   0  0  0  0  0  0  0  0  0  0  0  0
    5.7932    3.1550    0.0000 H   0  0  0  0  0  0  0  0  0  0  0  0
    5.1541   -1.1181    0.0000 H   0  0  0  0  0  0  0  0  0  0  0  0
    4.9272   -1.9650    0.0000 H   0  0  0  0  0  0  0  0  0  0  0  0
    5.7741   -2.1919    0.0000 H   0  0  0  0  0  0  0  0  0  0  0  0
    2.3100    0.8819    0.0000 H   0  0  0  0  0  0  0  0  0  0  0  0
    1.4631    0.6550    0.0000 H   0  0  0  0  0  0  0  0  0  0  0  0
    1.6900   -0.1919    0.0000 H   0  0  0  0  0  0  0  0  0  0  0  0
  7  1  1  6  0  0  0
  1 21  1  0  0  0  0
  2 10  1  0  0  0  0
  2 24  1  0  0  0  0
  3 14  1  0  0  0  0
  3 39  1  0  0  0  0
  4 16  2  0  0  0  0
  5 17  2  0  0  0  0
  6 21  2  0  0  0  0
  7  8  1  0  0  0  0
  7  9  1  0  0  0  0
  7 26  1  0  0  0  0
  8 10  1  0  0  0  0
  8 13  2  0  0  0  0
  9 15  1  0  0  0  0
  9 27  1  0  0  0  0
  9 28  1  0  0  0  0
 10 11  2  0  0  0  0
 11 12  1  0  0  0  0
 11 16  1  0  0  0  0
 12 14  2  0  0  0  0
 12 17  1  0  0  0  0
 13 14  1  0  0  0  0
 13 29  1  0  0  0  0
 15 18  2  0  0  0  0
 15 30  1  0  0  0  0
 16 19  1  0  0  0  0
 17 20  1  0  0  0  0
 18 22  1  0  0  0  0
 18 23  1  0  0  0  0
 19 20  2  0  0  0  0
 19 31  1  0  0  0  0
 20 32  1  0  0  0  0
 21 25  1  0  0  0  0
 22 34  1  0  0  0  0
 22 35  1  0  0  0  0
 22 36  1  0  0  0  0
 23 33  1  0  0  0  0
 23 37  1  0  0  0  0
 23 38  1  0  0  0  0
 24 40  1  0  0  0  0
 24 41  1  0  0  0  0
 24 42  1  0  0  0  0
 25 43  1  0  0  0  0
 25 44  1  0  0  0  0
 25 45  1  0  0  0  0
M  END
> <PUBCHEM_COMPOUND_CID>
157629

> <PUBCHEM_COMPOUND_CANONICALIZED>
1

> <PUBCHEM_CACTVS_COMPLEXITY>
601

> <PUBCHEM_CACTVS_HBOND_ACCEPTOR>
6

> <PUBCHEM_CACTVS_HBOND_DONOR>
1

> <PUBCHEM_CACTVS_ROTATABLE_BOND>
6

> <PUBCHEM_CACTVS_SUBSKEYS>
AAADceB4OAAAAAAAAAAAAAAAAAAAAAAAAAAwQAAAAAAAAACBAAAAGgAACAAADBSgmAIyDoAABgCIAqDSCAACCAAkIAAIiAEGCMgMJzaGNRqCcWAl4BEIuYfLzPDOwQADAAAYAACCAAYAADAAAAAAAAAAAA==

> <PUBCHEM_IUPAC_OPENEYE_NAME>
[(1S)-1-(4-hydroxy-1-methoxy-5,8-dioxo-2-naphthyl)-4-methyl-pent-3-enyl] acetate

> <PUBCHEM_IUPAC_CAS_NAME>
acetic acid [(1S)-1-(4-hydroxy-1-methoxy-5,8-dioxo-2-naphthalenyl)-4-methylpent-3-enyl] ester

> <PUBCHEM_IUPAC_NAME>
[(1S)-1-(4-hydroxy-1-methoxy-5,8-dioxonaphthalen-2-yl)-4-methylpent-3-enyl] acetate

> <PUBCHEM_IUPAC_SYSTEMATIC_NAME>
[(1S)-1-[1-methoxy-4-oxidanyl-5,8-bis(oxidanylidene)naphthalen-2-yl]-4-methyl-pent-3-enyl] ethanoate

> <PUBCHEM_IUPAC_TRADITIONAL_NAME>
acetic acid [(1S)-1-(4-hydroxy-5,8-diketo-1-methoxy-2-naphthyl)-4-methyl-pent-3-enyl] ester

> <PUBCHEM_IUPAC_INCHI>
InChI=1S/C19H20O6/c1-10(2)5-8-16(25-11(3)20)12-9-15(23)17-13(21)6-7-14(22)18(17)19(12)24-4/h5-7,9,16,23H,8H2,1-4H3/t16-/m0/s1

> <PUBCHEM_IUPAC_INCHIKEY>
SCIUCADXFKAPEB-INIZCTEOSA-N

> <PUBCHEM_XLOGP3_AA>
3.3

> <PUBCHEM_EXACT_MASS>
344.125988

> <PUBCHEM_MOLECULAR_FORMULA>
C19H20O6

> <PUBCHEM_MOLECULAR_WEIGHT>
344.3585

> <PUBCHEM_OPENEYE_CAN_SMILES>
CC(=CCC(C1=CC(=C2C(=O)C=CC(=O)C2=C1OC)O)OC(=O)C)C

> <PUBCHEM_OPENEYE_ISO_SMILES>
CC(=CC[C@@H](C1=CC(=C2C(=O)C=CC(=O)C2=C1OC)O)OC(=O)C)C

> <PUBCHEM_CACTVS_TPSA>
89.9

> <PUBCHEM_MONOISOTOPIC_WEIGHT>
344.125988

> <PUBCHEM_TOTAL_CHARGE>
0

> <PUBCHEM_HEAVY_ATOM_COUNT>
25

> <PUBCHEM_ATOM_DEF_STEREO_COUNT>
1

> <PUBCHEM_ATOM_UDEF_STEREO_COUNT>
0

> <PUBCHEM_BOND_DEF_STEREO_COUNT>
0

> <PUBCHEM_BOND_UDEF_STEREO_COUNT>
0

> <PUBCHEM_ISOTOPIC_ATOM_COUNT>
0

> <PUBCHEM_COMPONENT_COUNT>
1

> <PUBCHEM_CACTVS_TAUTO_COUNT>
4

> <PUBCHEM_COORDINATE_TYPE>
1
5
255

> <PUBCHEM_BONDANNOTATIONS>
7  1  6
10  11  8
11  12  8
12  14  8
13  14  8
8  10  8
8  13  8

$$$$

