4679
  -OEChem-07051213022D

 41 43  0     1  0  0  0  0  0999 V2000
    8.8600    0.0000    0.0000 S   0  0  3  0  0  0  0  0  0  0  0  0
    2.0000    1.0000    0.0000 F   0  0  0  0  0  0  0  0  0  0  0  0
    2.8660   -0.5000    0.0000 F   0  0  0  0  0  0  0  0  0  0  0  0
   10.3600    0.8660    0.0000 O   0  0  0  0  0  0  0  0  0  0  0  0
    3.7320    1.0000    0.0000 O   0  0  0  0  0  0  0  0  0  0  0  0
    9.3600    0.8660    0.0000 O   0  0  0  0  0  0  0  0  0  0  0  0
   12.3600    0.8660    0.0000 O   0  0  0  0  0  0  0  0  0  0  0  0
    7.2764    0.8047    0.0000 N   0  0  0  0  0  0  0  0  0  0  0  0
    7.2764   -0.8047    0.0000 N   0  0  0  0  0  0  0  0  0  0  0  0
   10.8600   -1.7320    0.0000 N   0  0  0  0  0  0  0  0  0  0  0  0
    6.3301    0.5000    0.0000 C   0  0  0  0  0  0  0  0  0  0  0  0
    7.8600    0.0000    0.0000 C   0  0  0  0  0  0  0  0  0  0  0  0
    6.3301   -0.5000    0.0000 C   0  0  0  0  0  0  0  0  0  0  0  0
    9.3600   -0.8660    0.0000 C   0  0  0  0  0  0  0  0  0  0  0  0
   10.3600   -0.8660    0.0000 C   0  0  0  0  0  0  0  0  0  0  0  0
    5.4641    1.0000    0.0000 C   0  0  0  0  0  0  0  0  0  0  0  0
    5.4641   -1.0000    0.0000 C   0  0  0  0  0  0  0  0  0  0  0  0
   10.8600    0.0000    0.0000 C   0  0  0  0  0  0  0  0  0  0  0  0
    4.5981    0.5000    0.0000 C   0  0  0  0  0  0  0  0  0  0  0  0
    4.5981   -0.5000    0.0000 C   0  0  0  0  0  0  0  0  0  0  0  0
   11.8600    0.0000    0.0000 C   0  0  0  0  0  0  0  0  0  0  0  0
   12.3600   -0.8660    0.0000 C   0  0  0  0  0  0  0  0  0  0  0  0
   11.8600   -1.7320    0.0000 C   0  0  0  0  0  0  0  0  0  0  0  0
   10.8600    1.7320    0.0000 C   0  0  0  0  0  0  0  0  0  0  0  0
    2.8660    0.5000    0.0000 C   0  0  0  0  0  0  0  0  0  0  0  0
   13.3600    0.8660    0.0000 C   0  0  0  0  0  0  0  0  0  0  0  0
    8.7774   -1.0781    0.0000 H   0  0  0  0  0  0  0  0  0  0  0  0
    9.4676   -1.4766    0.0000 H   0  0  0  0  0  0  0  0  0  0  0  0
    7.4690    1.3940    0.0000 H   0  0  0  0  0  0  0  0  0  0  0  0
    5.4641    1.6200    0.0000 H   0  0  0  0  0  0  0  0  0  0  0  0
    5.4641   -1.6200    0.0000 H   0  0  0  0  0  0  0  0  0  0  0  0
    4.0611   -0.8100    0.0000 H   0  0  0  0  0  0  0  0  0  0  0  0
   12.9800   -0.8660    0.0000 H   0  0  0  0  0  0  0  0  0  0  0  0
   12.1700   -2.2690    0.0000 H   0  0  0  0  0  0  0  0  0  0  0  0
   11.3969    1.4220    0.0000 H   0  0  0  0  0  0  0  0  0  0  0  0
   11.1700    2.2690    0.0000 H   0  0  0  0  0  0  0  0  0  0  0  0
   10.3230    2.0420    0.0000 H   0  0  0  0  0  0  0  0  0  0  0  0
    2.8660    1.1200    0.0000 H   0  0  0  0  0  0  0  0  0  0  0  0
   13.3600    0.2460    0.0000 H   0  0  0  0  0  0  0  0  0  0  0  0
   13.9800    0.8660    0.0000 H   0  0  0  0  0  0  0  0  0  0  0  0
   13.3600    1.4860    0.0000 H   0  0  0  0  0  0  0  0  0  0  0  0
  1  6  2  0  0  0  0
  1 12  1  0  0  0  0
  1 14  1  0  0  0  0
  2 25  1  0  0  0  0
  3 25  1  0  0  0  0
  4 18  1  0  0  0  0
  4 24  1  0  0  0  0
  5 19  1  0  0  0  0
  5 25  1  0  0  0  0
  7 21  1  0  0  0  0
  7 26  1  0  0  0  0
  8 11  1  0  0  0  0
  8 12  1  0  0  0  0
  8 29  1  0  0  0  0
  9 12  2  0  0  0  0
  9 13  1  0  0  0  0
 10 15  2  0  0  0  0
 10 23  1  0  0  0  0
 11 13  2  0  0  0  0
 11 16  1  0  0  0  0
 13 17  1  0  0  0  0
 14 15  1  0  0  0  0
 14 27  1  0  0  0  0
 14 28  1  0  0  0  0
 15 18  1  0  0  0  0
 16 19  2  0  0  0  0
 16 30  1  0  0  0  0
 17 20  2  0  0  0  0
 17 31  1  0  0  0  0
 18 21  2  0  0  0  0
 19 20  1  0  0  0  0
 20 32  1  0  0  0  0
 21 22  1  0  0  0  0
 22 23  2  0  0  0  0
 22 33  1  0  0  0  0
 23 34  1  0  0  0  0
 24 35  1  0  0  0  0
 24 36  1  0  0  0  0
 24 37  1  0  0  0  0
 25 38  1  0  0  0  0
 26 39  1  0  0  0  0
 26 40  1  0  0  0  0
 26 41  1  0  0  0  0
M  END
> <PUBCHEM_COMPOUND_CID>
4679

> <PUBCHEM_COMPOUND_CANONICALIZED>
1

> <PUBCHEM_CACTVS_COMPLEXITY>
490

> <PUBCHEM_CACTVS_HBOND_ACCEPTOR>
9

> <PUBCHEM_CACTVS_HBOND_DONOR>
1

> <PUBCHEM_CACTVS_ROTATABLE_BOND>
7

> <PUBCHEM_CACTVS_SUBSKEYS>
AAADccB7OYBAAAAAAAAAAAAAAAAAAWAAAAA8QAAAAAAAAFgB/AAAHwQQAAAACAzF1ha/1rbJlAqgATRnZETK2i3xcrAJ2SA//JiPbuLkuZuVMCpu0Bva6CewUAMAAEAAAgAAACAAgAAEAAAAQAAAAAAAAA==

> <PUBCHEM_IUPAC_OPENEYE_NAME>
6-(difluoromethoxy)-2-[(3,4-dimethoxy-2-pyridyl)methylsulfinyl]-1H-benzimidazole

> <PUBCHEM_IUPAC_CAS_NAME>
6-(difluoromethoxy)-2-[(3,4-dimethoxy-2-pyridinyl)methylsulfinyl]-1H-benzimidazole

> <PUBCHEM_IUPAC_NAME>
6-(difluoromethoxy)-2-[(3,4-dimethoxypyridin-2-yl)methylsulfinyl]-1H-benzimidazole

> <PUBCHEM_IUPAC_SYSTEMATIC_NAME>
6-[bis(fluoranyl)methoxy]-2-[(3,4-dimethoxypyridin-2-yl)methylsulfinyl]-1H-benzimidazole

> <PUBCHEM_IUPAC_TRADITIONAL_NAME>
6-(difluoromethoxy)-2-[(3,4-dimethoxy-2-pyridyl)methylsulfinyl]-1H-benzimidazole

> <PUBCHEM_IUPAC_INCHI>
InChI=1S/C16H15F2N3O4S/c1-23-13-5-6-19-12(14(13)24-2)8-26(22)16-20-10-4-3-9(25-15(17)18)7-11(10)21-16/h3-7,15H,8H2,1-2H3,(H,20,21)

> <PUBCHEM_IUPAC_INCHIKEY>
IQPSEEYGBUAQFF-UHFFFAOYSA-N

> <PUBCHEM_XLOGP3_AA>
2.4

> <PUBCHEM_EXACT_MASS>
383.075133

> <PUBCHEM_MOLECULAR_FORMULA>
C16H15F2N3O4S

> <PUBCHEM_MOLECULAR_WEIGHT>
383.369806

> <PUBCHEM_OPENEYE_CAN_SMILES>
COC1=C(C(=NC=C1)CS(=O)C2=NC3=C(N2)C=C(C=C3)OC(F)F)OC

> <PUBCHEM_OPENEYE_ISO_SMILES>
COC1=C(C(=NC=C1)CS(=O)C2=NC3=C(N2)C=C(C=C3)OC(F)F)OC

> <PUBCHEM_CACTVS_TPSA>
106

> <PUBCHEM_MONOISOTOPIC_WEIGHT>
383.075133

> <PUBCHEM_TOTAL_CHARGE>
0

> <PUBCHEM_HEAVY_ATOM_COUNT>
26

> <PUBCHEM_ATOM_DEF_STEREO_COUNT>
0

> <PUBCHEM_ATOM_UDEF_STEREO_COUNT>
1

> <PUBCHEM_BOND_DEF_STEREO_COUNT>
0

> <PUBCHEM_BOND_UDEF_STEREO_COUNT>
0

> <PUBCHEM_ISOTOPIC_ATOM_COUNT>
0

> <PUBCHEM_COMPONENT_COUNT>
1

> <PUBCHEM_CACTVS_TAUTO_COUNT>
2

> <PUBCHEM_COORDINATE_TYPE>
1
5
255

> <PUBCHEM_BONDANNOTATIONS>
1  14  3
10  15  8
10  23  8
11  13  8
11  16  8
13  17  8
15  18  8
16  19  8
17  20  8
18  21  8
19  20  8
21  22  8
22  23  8
8  11  8
8  12  8
9  12  8
9  13  8

$$$$

