656717
  -OEChem-07051213042D

 41 43  0     1  0  0  0  0  0999 V2000
    5.4641    2.9050    0.0000 Cl  0  0  0  0  0  0  0  0  0  0  0  0
    3.7320    1.9050    0.0000 Cl  0  0  0  0  0  0  0  0  0  0  0  0
    7.5870    2.6602    0.0000 O   0  0  0  0  0  0  0  0  0  0  0  0
    3.7320   -0.0950    0.0000 O   0  0  0  0  0  0  0  0  0  0  0  0
    2.8660   -2.5950    0.0000 O   0  0  0  0  0  0  0  0  0  0  0  0
    2.0000   -1.0950    0.0000 O   0  0  0  0  0  0  0  0  0  0  0  0
    8.6690    0.3172    0.0000 C   0  0  0  0  0  0  0  0  0  0  0  0
    7.8600    0.9050    0.0000 C   0  0  2  0  0  0  0  0  0  0  0  0
    8.6690   -0.6828    0.0000 C   0  0  0  0  0  0  0  0  0  0  0  0
    9.6200    0.6262    0.0000 C   0  0  0  0  0  0  0  0  0  0  0  0
    7.2764    0.1003    0.0000 C   0  0  0  0  0  0  0  0  0  0  0  0
    9.6200   -0.9918    0.0000 C   0  0  0  0  0  0  0  0  0  0  0  0
   10.2078   -0.1828    0.0000 C   0  0  0  0  0  0  0  0  0  0  0  0
    7.2764    1.7097    0.0000 C   0  0  0  0  0  0  0  0  0  0  0  0
    8.6690    1.4928    0.0000 C   0  0  0  0  0  0  0  0  0  0  0  0
    6.3301    0.4050    0.0000 C   0  0  0  0  0  0  0  0  0  0  0  0
    6.3301    1.4050    0.0000 C   0  0  0  0  0  0  0  0  0  0  0  0
    5.4641   -0.0950    0.0000 C   0  0  0  0  0  0  0  0  0  0  0  0
    5.4641    1.9050    0.0000 C   0  0  0  0  0  0  0  0  0  0  0  0
    4.5981    0.4050    0.0000 C   0  0  0  0  0  0  0  0  0  0  0  0
    4.5981    1.4050    0.0000 C   0  0  0  0  0  0  0  0  0  0  0  0
    3.7320   -1.0950    0.0000 C   0  0  0  0  0  0  0  0  0  0  0  0
    2.8660   -1.5950    0.0000 C   0  0  0  0  0  0  0  0  0  0  0  0
    8.7660    0.9296    0.0000 H   0  0  0  0  0  0  0  0  0  0  0  0
    8.0524   -0.6180    0.0000 H   0  0  0  0  0  0  0  0  0  0  0  0
    8.5401   -1.2892    0.0000 H   0  0  0  0  0  0  0  0  0  0  0  0
   10.1570    0.9362    0.0000 H   0  0  0  0  0  0  0  0  0  0  0  0
    9.3678    1.1926    0.0000 H   0  0  0  0  0  0  0  0  0  0  0  0
    7.0253   -0.4666    0.0000 H   0  0  0  0  0  0  0  0  0  0  0  0
    7.8137   -0.2090    0.0000 H   0  0  0  0  0  0  0  0  0  0  0  0
    9.3678   -1.5582    0.0000 H   0  0  0  0  0  0  0  0  0  0  0  0
   10.1570   -1.3018    0.0000 H   0  0  0  0  0  0  0  0  0  0  0  0
   10.6686   -0.5976    0.0000 H   0  0  0  0  0  0  0  0  0  0  0  0
   10.6686    0.2321    0.0000 H   0  0  0  0  0  0  0  0  0  0  0  0
    9.0334    0.9912    0.0000 H   0  0  0  0  0  0  0  0  0  0  0  0
    9.1706    1.8572    0.0000 H   0  0  0  0  0  0  0  0  0  0  0  0
    8.3046    1.9944    0.0000 H   0  0  0  0  0  0  0  0  0  0  0  0
    5.4641   -0.7150    0.0000 H   0  0  0  0  0  0  0  0  0  0  0  0
    3.9441   -1.6776    0.0000 H   0  0  0  0  0  0  0  0  0  0  0  0
    4.3426   -0.9873    0.0000 H   0  0  0  0  0  0  0  0  0  0  0  0
    2.3291   -2.9050    0.0000 H   0  0  0  0  0  0  0  0  0  0  0  0
  1 19  1  0  0  0  0
  2 21  1  0  0  0  0
  3 14  2  0  0  0  0
  4 20  1  0  0  0  0
  4 22  1  0  0  0  0
  5 23  1  0  0  0  0
  5 41  1  0  0  0  0
  6 23  2  0  0  0  0
  7  8  1  0  0  0  0
  7  9  1  0  0  0  0
  7 10  1  0  0  0  0
  7 24  1  0  0  0  0
  8 11  1  0  0  0  0
  8 14  1  0  0  0  0
  8 15  1  1  0  0  0
  9 12  1  0  0  0  0
  9 25  1  0  0  0  0
  9 26  1  0  0  0  0
 10 13  1  0  0  0  0
 10 27  1  0  0  0  0
 10 28  1  0  0  0  0
 11 16  1  0  0  0  0
 11 29  1  0  0  0  0
 11 30  1  0  0  0  0
 12 13  1  0  0  0  0
 12 31  1  0  0  0  0
 12 32  1  0  0  0  0
 13 33  1  0  0  0  0
 13 34  1  0  0  0  0
 14 17  1  0  0  0  0
 15 35  1  0  0  0  0
 15 36  1  0  0  0  0
 15 37  1  0  0  0  0
 16 17  1  0  0  0  0
 16 18  2  0  0  0  0
 17 19  2  0  0  0  0
 18 20  1  0  0  0  0
 18 38  1  0  0  0  0
 19 21  1  0  0  0  0
 20 21  2  0  0  0  0
 22 23  1  0  0  0  0
 22 39  1  0  0  0  0
 22 40  1  0  0  0  0
M  END
> <PUBCHEM_COMPOUND_CID>
656717

> <PUBCHEM_COMPOUND_CANONICALIZED>
1

> <PUBCHEM_CACTVS_COMPLEXITY>
491

> <PUBCHEM_CACTVS_HBOND_ACCEPTOR>
4

> <PUBCHEM_CACTVS_HBOND_DONOR>
1

> <PUBCHEM_CACTVS_ROTATABLE_BOND>
4

> <PUBCHEM_CACTVS_SUBSKEYS>
AAADceB4OAAGAAAAAAAAAAAAAAAAAYMAAAAwAAAAAAAAAGABAAAAGgIACAAADwagmCIyDoAABgCIAqDSCAICCAAkJEAAikFGC8gNJjOFNx6COSCkwBELrQeIzPDPpAABIQARCARIAAJCACIQCQAACAAAAA==

> <PUBCHEM_IUPAC_OPENEYE_NAME>
2-[(2S)-6,7-dichloro-2-cyclopentyl-2-methyl-1-oxo-indan-5-yl]oxyacetic acid

> <PUBCHEM_IUPAC_CAS_NAME>
2-[[(2S)-6,7-dichloro-2-cyclopentyl-2-methyl-1-oxo-3H-inden-5-yl]oxy]acetic acid

> <PUBCHEM_IUPAC_NAME>
2-[[(2S)-6,7-dichloro-2-cyclopentyl-2-methyl-1-oxo-3H-inden-5-yl]oxy]acetic acid

> <PUBCHEM_IUPAC_SYSTEMATIC_NAME>
2-[[(2S)-6,7-bis(chloranyl)-2-cyclopentyl-2-methyl-1-oxidanylidene-3H-inden-5-yl]oxy]ethanoic acid

> <PUBCHEM_IUPAC_TRADITIONAL_NAME>
2-[(2S)-6,7-dichloro-2-cyclopentyl-1-keto-2-methyl-indan-5-yl]oxyacetic acid

> <PUBCHEM_IUPAC_INCHI>
InChI=1S/C17H18Cl2O4/c1-17(10-4-2-3-5-10)7-9-6-11(23-8-12(20)21)14(18)15(19)13(9)16(17)22/h6,10H,2-5,7-8H2,1H3,(H,20,21)/t17-/m0/s1

> <PUBCHEM_IUPAC_INCHIKEY>
RNOJGTHBMJBOSP-KRWDZBQOSA-N

> <PUBCHEM_XLOGP3_AA>
5.1

> <PUBCHEM_EXACT_MASS>
356.058214

> <PUBCHEM_MOLECULAR_FORMULA>
C17H18Cl2O4

> <PUBCHEM_MOLECULAR_WEIGHT>
357.22842

> <PUBCHEM_OPENEYE_CAN_SMILES>
CC1(CC2=CC(=C(C(=C2C1=O)Cl)Cl)OCC(=O)O)C3CCCC3

> <PUBCHEM_OPENEYE_ISO_SMILES>
C[C@]1(CC2=CC(=C(C(=C2C1=O)Cl)Cl)OCC(=O)O)C3CCCC3

> <PUBCHEM_CACTVS_TPSA>
63.6

> <PUBCHEM_MONOISOTOPIC_WEIGHT>
356.058214

> <PUBCHEM_TOTAL_CHARGE>
0

> <PUBCHEM_HEAVY_ATOM_COUNT>
23

> <PUBCHEM_ATOM_DEF_STEREO_COUNT>
1

> <PUBCHEM_ATOM_UDEF_STEREO_COUNT>
0

> <PUBCHEM_BOND_DEF_STEREO_COUNT>
0

> <PUBCHEM_BOND_UDEF_STEREO_COUNT>
0

> <PUBCHEM_ISOTOPIC_ATOM_COUNT>
0

> <PUBCHEM_COMPONENT_COUNT>
1

> <PUBCHEM_CACTVS_TAUTO_COUNT>
1

> <PUBCHEM_COORDINATE_TYPE>
1
5
255

> <PUBCHEM_BONDANNOTATIONS>
16  17  8
16  18  8
17  19  8
18  20  8
19  21  8
20  21  8
8  15  5

$$$$

