256729
  -OEChem-07051213062D

 57 60  0     1  0  0  0  0  0999 V2000
    3.7320   -2.0032    0.0000 O   0  0  0  0  0  0  0  0  0  0  0  0
   12.1550    1.4151    0.0000 O   0  0  0  0  0  0  0  0  0  0  0  0
    2.8718   -0.4999    0.0000 O   0  0  0  0  0  0  0  0  0  0  0  0
    7.3931    0.0491    0.0000 C   0  0  2  0  0  0  0  0  0  0  0  0
    6.4831   -0.4578    0.0000 C   0  0  2  0  0  0  0  0  0  0  0  0
    8.2591   -0.4509    0.0000 C   0  0  2  0  0  0  0  0  0  0  0  0
    9.1251    0.0491    0.0000 C   0  0  1  0  0  0  0  0  0  0  0  0
    6.4750   -1.4994    0.0000 C   0  0  1  0  0  0  0  0  0  0  0  0
    9.1251    1.0491    0.0000 C   0  0  2  0  0  0  0  0  0  0  0  0
    7.3931    1.0491    0.0000 C   0  0  0  0  0  0  0  0  0  0  0  0
    8.2752   -1.4924    0.0000 C   0  0  0  0  0  0  0  0  0  0  0  0
    7.3771   -2.0202    0.0000 C   0  0  0  0  0  0  0  0  0  0  0  0
    8.2591    1.5491    0.0000 C   0  0  0  0  0  0  0  0  0  0  0  0
    5.5562    0.1063    0.0000 C   0  0  0  0  0  0  0  0  0  0  0  0
    5.5396   -2.0491    0.0000 C   0  0  0  0  0  0  0  0  0  0  0  0
   10.0713   -0.2556    0.0000 C   0  0  0  0  0  0  0  0  0  0  0  0
    6.4908    0.5422    0.0000 C   0  0  0  0  0  0  0  0  0  0  0  0
    4.6084   -0.4216    0.0000 C   0  0  0  0  0  0  0  0  0  0  0  0
    4.6000   -1.5066    0.0000 C   0  0  2  0  0  0  0  0  0  0  0  0
   10.0713    1.3538    0.0000 C   0  0  0  0  0  0  0  0  0  0  0  0
    9.1251    2.0491    0.0000 C   0  0  0  0  0  0  0  0  0  0  0  0
   10.6550    0.5491    0.0000 C   0  0  0  0  0  0  0  0  0  0  0  0
   11.6550    0.5491    0.0000 C   0  0  0  0  0  0  0  0  0  0  0  0
    2.8680   -1.4999    0.0000 C   0  0  0  0  0  0  0  0  0  0  0  0
    2.0000   -1.9966    0.0000 C   0  0  0  0  0  0  0  0  0  0  0  0
    8.1292    0.4741    0.0000 H   0  0  0  0  0  0  0  0  0  0  0  0
    8.9985   -0.8702    0.0000 H   0  0  0  0  0  0  0  0  0  0  0  0
    9.2151   -0.7961    0.0000 H   0  0  0  0  0  0  0  0  0  0  0  0
    6.4783   -2.3494    0.0000 H   0  0  0  0  0  0  0  0  0  0  0  0
    7.1810    1.6317    0.0000 H   0  0  0  0  0  0  0  0  0  0  0  0
    6.7825    0.9414    0.0000 H   0  0  0  0  0  0  0  0  0  0  0  0
    8.4932   -2.0728    0.0000 H   0  0  0  0  0  0  0  0  0  0  0  0
    8.8843   -1.3769    0.0000 H   0  0  0  0  0  0  0  0  0  0  0  0
    6.9798   -2.4962    0.0000 H   0  0  0  0  0  0  0  0  0  0  0  0
    7.7781   -2.4931    0.0000 H   0  0  0  0  0  0  0  0  0  0  0  0
    8.6576    2.0240    0.0000 H   0  0  0  0  0  0  0  0  0  0  0  0
    7.8606    2.0240    0.0000 H   0  0  0  0  0  0  0  0  0  0  0  0
    5.9644    0.5730    0.0000 H   0  0  0  0  0  0  0  0  0  0  0  0
    5.1663    0.5884    0.0000 H   0  0  0  0  0  0  0  0  0  0  0  0
    5.1423   -2.5251    0.0000 H   0  0  0  0  0  0  0  0  0  0  0  0
    5.9406   -2.5220    0.0000 H   0  0  0  0  0  0  0  0  0  0  0  0
    9.8203   -0.8226    0.0000 H   0  0  0  0  0  0  0  0  0  0  0  0
   10.6087   -0.5649    0.0000 H   0  0  0  0  0  0  0  0  0  0  0  0
    7.1108    0.5374    0.0000 H   0  0  0  0  0  0  0  0  0  0  0  0
    6.4956    1.1622    0.0000 H   0  0  0  0  0  0  0  0  0  0  0  0
    5.8708    0.5470    0.0000 H   0  0  0  0  0  0  0  0  0  0  0  0
    4.4038    0.1637    0.0000 H   0  0  0  0  0  0  0  0  0  0  0  0
    3.9967   -0.5230    0.0000 H   0  0  0  0  0  0  0  0  0  0  0  0
    4.0648   -1.1935    0.0000 H   0  0  0  0  0  0  0  0  0  0  0  0
   10.2640    1.9431    0.0000 H   0  0  0  0  0  0  0  0  0  0  0  0
    9.7451    2.0491    0.0000 H   0  0  0  0  0  0  0  0  0  0  0  0
    9.1251    2.6691    0.0000 H   0  0  0  0  0  0  0  0  0  0  0  0
    8.5051    2.0491    0.0000 H   0  0  0  0  0  0  0  0  0  0  0  0
   11.9650    0.0121    0.0000 H   0  0  0  0  0  0  0  0  0  0  0  0
    1.6921   -1.4584    0.0000 H   0  0  0  0  0  0  0  0  0  0  0  0
    1.4619   -2.3045    0.0000 H   0  0  0  0  0  0  0  0  0  0  0  0
    2.3079   -2.5347    0.0000 H   0  0  0  0  0  0  0  0  0  0  0  0
 19  1  1  1  0  0  0
  1 24  1  0  0  0  0
  2 23  2  0  0  0  0
  3 24  2  0  0  0  0
  4  5  1  0  0  0  0
  4  6  1  0  0  0  0
  4 10  1  0  0  0  0
  4 26  1  6  0  0  0
  5  8  1  0  0  0  0
  5 14  1  0  0  0  0
  5 17  1  1  0  0  0
  6  7  1  0  0  0  0
  6 11  1  0  0  0  0
  6 27  1  1  0  0  0
  7  9  1  0  0  0  0
  7 16  1  0  0  0  0
  7 28  1  6  0  0  0
  8 12  1  0  0  0  0
  8 15  1  0  0  0  0
  8 29  1  6  0  0  0
  9 13  1  0  0  0  0
  9 20  1  0  0  0  0
  9 21  1  1  0  0  0
 10 13  1  0  0  0  0
 10 30  1  0  0  0  0
 10 31  1  0  0  0  0
 11 12  1  0  0  0  0
 11 32  1  0  0  0  0
 11 33  1  0  0  0  0
 12 34  1  0  0  0  0
 12 35  1  0  0  0  0
 13 36  1  0  0  0  0
 13 37  1  0  0  0  0
 14 18  1  0  0  0  0
 14 38  1  0  0  0  0
 14 39  1  0  0  0  0
 15 19  1  0  0  0  0
 15 40  1  0  0  0  0
 15 41  1  0  0  0  0
 16 22  1  0  0  0  0
 16 42  1  0  0  0  0
 16 43  1  0  0  0  0
 17 44  1  0  0  0  0
 17 45  1  0  0  0  0
 17 46  1  0  0  0  0
 18 19  1  0  0  0  0
 18 47  1  0  0  0  0
 18 48  1  0  0  0  0
 19 49  1  0  0  0  0
 20 22  2  0  0  0  0
 20 50  1  0  0  0  0
 21 51  1  0  0  0  0
 21 52  1  0  0  0  0
 21 53  1  0  0  0  0
 22 23  1  0  0  0  0
 23 54  1  0  0  0  0
 24 25  1  0  0  0  0
 25 55  1  0  0  0  0
 25 56  1  0  0  0  0
 25 57  1  0  0  0  0
M  END
> <PUBCHEM_COMPOUND_CID>
256729

> <PUBCHEM_COMPOUND_CANONICALIZED>
1

> <PUBCHEM_CACTVS_COMPLEXITY>
608

> <PUBCHEM_CACTVS_HBOND_ACCEPTOR>
3

> <PUBCHEM_CACTVS_HBOND_DONOR>
0

> <PUBCHEM_CACTVS_ROTATABLE_BOND>
3

> <PUBCHEM_CACTVS_SUBSKEYS>
AAADcfB4MAAAAAAAAAAAAAAAAAAAAQAAAAAwYMAAAAAAAEDAAAAAGgAAAAAADxSggAICCAAABACIAijSiAAAAAAgAAAACAEAAEgAABIAAQACAAAEgAAIAYOIyPCPgAAAAAAAAADAAAYAACAAAAAAAAAAAA==

> <PUBCHEM_IUPAC_OPENEYE_NAME>
[(3S,5S,8R,9S,10S,13S,14S)-16-formyl-10,13-dimethyl-2,3,4,5,6,7,8,9,11,12,14,15-dodecahydro-1H-cyclopenta[a]phenanthren-3-yl] acetate

> <PUBCHEM_IUPAC_CAS_NAME>
acetic acid [(3S,5S,8R,9S,10S,13S,14S)-16-formyl-10,13-dimethyl-2,3,4,5,6,7,8,9,11,12,14,15-dodecahydro-1H-cyclopenta[a]phenanthren-3-yl] ester

> <PUBCHEM_IUPAC_NAME>
[(3S,5S,8R,9S,10S,13S,14S)-16-formyl-10,13-dimethyl-2,3,4,5,6,7,8,9,11,12,14,15-dodecahydro-1H-cyclopenta[a]phenanthren-3-yl] acetate

> <PUBCHEM_IUPAC_SYSTEMATIC_NAME>
[(3S,5S,8R,9S,10S,13S,14S)-16-methanoyl-10,13-dimethyl-2,3,4,5,6,7,8,9,11,12,14,15-dodecahydro-1H-cyclopenta[a]phenanthren-3-yl] ethanoate

> <PUBCHEM_IUPAC_TRADITIONAL_NAME>
acetic acid [(3S,5S,8R,9S,10S,13S,14S)-16-formyl-10,13-dimethyl-2,3,4,5,6,7,8,9,11,12,14,15-dodecahydro-1H-cyclopenta[a]phenanthren-3-yl] ester

> <PUBCHEM_IUPAC_INCHI>
InChI=1S/C22H32O3/c1-14(24)25-17-6-9-22(3)16(11-17)4-5-18-19(22)7-8-21(2)12-15(13-23)10-20(18)21/h12-13,16-20H,4-11H2,1-3H3/t16-,17-,18+,19-,20-,21+,22-/m0/s1

> <PUBCHEM_IUPAC_INCHIKEY>
IZJWIBVOSGOTPV-MZLYOWLHSA-N

> <PUBCHEM_XLOGP3_AA>
5.1

> <PUBCHEM_EXACT_MASS>
344.235145

> <PUBCHEM_MOLECULAR_FORMULA>
C22H32O3

> <PUBCHEM_MOLECULAR_WEIGHT>
344.48768

> <PUBCHEM_OPENEYE_CAN_SMILES>
CC(=O)OC1CCC2(C(C1)CCC3C2CCC4(C3CC(=C4)C=O)C)C

> <PUBCHEM_OPENEYE_ISO_SMILES>
CC(=O)O[C@H]1CC[C@]2([C@H](C1)CC[C@@H]3[C@@H]2CC[C@]4([C@H]3CC(=C4)C=O)C)C

> <PUBCHEM_CACTVS_TPSA>
43.4

> <PUBCHEM_MONOISOTOPIC_WEIGHT>
344.235145

> <PUBCHEM_TOTAL_CHARGE>
0

> <PUBCHEM_HEAVY_ATOM_COUNT>
25

> <PUBCHEM_ATOM_DEF_STEREO_COUNT>
7

> <PUBCHEM_ATOM_UDEF_STEREO_COUNT>
0

> <PUBCHEM_BOND_DEF_STEREO_COUNT>
0

> <PUBCHEM_BOND_UDEF_STEREO_COUNT>
0

> <PUBCHEM_ISOTOPIC_ATOM_COUNT>
0

> <PUBCHEM_COMPONENT_COUNT>
1

> <PUBCHEM_CACTVS_TAUTO_COUNT>
1

> <PUBCHEM_COORDINATE_TYPE>
1
5
255

> <PUBCHEM_BONDANNOTATIONS>
19  1  5
4  26  6
5  17  5
6  27  5
7  28  6
8  29  6
9  21  5

$$$$

