5359965
  -OEChem-07051213132D

 35 36  0     0  0  0  0  0  0999 V2000
    5.4860    4.5000    0.0000 Cl  0  0  0  0  0  0  0  0  0  0  0  0
    3.7540   -4.5000    0.0000 Cl  0  0  0  0  0  0  0  0  0  0  0  0
    5.1200   -0.8660    0.0000 S   0  0  0  0  0  0  0  0  0  0  0  0
    4.6200    0.0000    0.0000 P   0  0  0  0  0  0  0  0  0  0  0  0
    5.4860    0.5000    0.0000 O   0  0  0  0  0  0  0  0  0  0  0  0
    3.7540   -0.5000    0.0000 O   0  0  0  0  0  0  0  0  0  0  0  0
    4.1200    0.8660    0.0000 N   0  0  0  0  0  0  0  0  0  0  0  0
    2.6200    1.7321    0.0000 N   0  0  0  0  0  0  0  0  0  0  0  0
    5.4860    1.5000    0.0000 C   0  0  0  0  0  0  0  0  0  0  0  0
    3.7540   -1.5000    0.0000 C   0  0  0  0  0  0  0  0  0  0  0  0
    4.6200    2.0000    0.0000 C   0  0  0  0  0  0  0  0  0  0  0  0
    4.6200   -2.0000    0.0000 C   0  0  0  0  0  0  0  0  0  0  0  0
    6.3521    2.0000    0.0000 C   0  0  0  0  0  0  0  0  0  0  0  0
    2.8879   -2.0000    0.0000 C   0  0  0  0  0  0  0  0  0  0  0  0
    4.6200    3.0000    0.0000 C   0  0  0  0  0  0  0  0  0  0  0  0
    4.6200   -3.0000    0.0000 C   0  0  0  0  0  0  0  0  0  0  0  0
    6.3521    3.0000    0.0000 C   0  0  0  0  0  0  0  0  0  0  0  0
    2.8879   -3.0000    0.0000 C   0  0  0  0  0  0  0  0  0  0  0  0
    3.1200    0.8660    0.0000 C   0  0  0  0  0  0  0  0  0  0  0  0
    5.4860    3.5000    0.0000 C   0  0  0  0  0  0  0  0  0  0  0  0
    3.7540   -3.5000    0.0000 C   0  0  0  0  0  0  0  0  0  0  0  0
    2.6200    0.0000    0.0000 C   0  0  0  0  0  0  0  0  0  0  0  0
    4.0831    1.6900    0.0000 H   0  0  0  0  0  0  0  0  0  0  0  0
    5.1569   -1.6900    0.0000 H   0  0  0  0  0  0  0  0  0  0  0  0
    6.8890    1.6900    0.0000 H   0  0  0  0  0  0  0  0  0  0  0  0
    2.3510   -1.6900    0.0000 H   0  0  0  0  0  0  0  0  0  0  0  0
    4.0831    3.3100    0.0000 H   0  0  0  0  0  0  0  0  0  0  0  0
    5.1569   -3.3100    0.0000 H   0  0  0  0  0  0  0  0  0  0  0  0
    6.8890    3.3100    0.0000 H   0  0  0  0  0  0  0  0  0  0  0  0
    2.3510   -3.3100    0.0000 H   0  0  0  0  0  0  0  0  0  0  0  0
    3.1569   -0.3100    0.0000 H   0  0  0  0  0  0  0  0  0  0  0  0
    2.3100   -0.5369    0.0000 H   0  0  0  0  0  0  0  0  0  0  0  0
    2.0831    0.3100    0.0000 H   0  0  0  0  0  0  0  0  0  0  0  0
    2.9300    2.2690    0.0000 H   0  0  0  0  0  0  0  0  0  0  0  0
    2.0000    1.7321    0.0000 H   0  0  0  0  0  0  0  0  0  0  0  0
  1 20  1  0  0  0  0
  2 21  1  0  0  0  0
  3  4  2  0  0  0  0
  4  5  1  0  0  0  0
  4  6  1  0  0  0  0
  4  7  1  0  0  0  0
  5  9  1  0  0  0  0
  6 10  1  0  0  0  0
  7 19  2  0  0  0  0
  8 19  1  0  0  0  0
  8 34  1  0  0  0  0
  8 35  1  0  0  0  0
  9 11  2  0  0  0  0
  9 13  1  0  0  0  0
 10 12  2  0  0  0  0
 10 14  1  0  0  0  0
 11 15  1  0  0  0  0
 11 23  1  0  0  0  0
 12 16  1  0  0  0  0
 12 24  1  0  0  0  0
 13 17  2  0  0  0  0
 13 25  1  0  0  0  0
 14 18  2  0  0  0  0
 14 26  1  0  0  0  0
 15 20  2  0  0  0  0
 15 27  1  0  0  0  0
 16 21  2  0  0  0  0
 16 28  1  0  0  0  0
 17 20  1  0  0  0  0
 17 29  1  0  0  0  0
 18 21  1  0  0  0  0
 18 30  1  0  0  0  0
 19 22  1  0  0  0  0
 22 31  1  0  0  0  0
 22 32  1  0  0  0  0
 22 33  1  0  0  0  0
M  END
> <PUBCHEM_COMPOUND_CID>
5359965

> <PUBCHEM_COMPOUND_CANONICALIZED>
1

> <PUBCHEM_CACTVS_COMPLEXITY>
409

> <PUBCHEM_CACTVS_HBOND_ACCEPTOR>
4

> <PUBCHEM_CACTVS_HBOND_DONOR>
1

> <PUBCHEM_CACTVS_ROTATABLE_BOND>
5

> <PUBCHEM_CACTVS_SUBSKEYS>
AAADccBzMAJGAAAAAAAAAAAAAAAAAAAAAAAwYAAAAAAAAAABQAAAHgIQgCAACAaBkCAzBoBAARCgACJiIAACAAAgJQAIiAAWCogIJiKBExKAMAAk0BEIiAeAQAAAACAAAAAAAAAAQAAAAAAAAAAAAAAAAA==

> <PUBCHEM_IUPAC_OPENEYE_NAME>
N'-bis(4-chlorophenoxy)phosphinothioylacetamidine

> <PUBCHEM_IUPAC_CAS_NAME>
N'-bis(4-chlorophenoxy)phosphinothioylethanimidamide

> <PUBCHEM_IUPAC_NAME>
N'-bis(4-chlorophenoxy)phosphinothioylethanimidamide

> <PUBCHEM_IUPAC_SYSTEMATIC_NAME>
N'-bis(4-chloranylphenoxy)phosphinothioylethanimidamide

> <PUBCHEM_IUPAC_TRADITIONAL_NAME>
N'-bis(4-chlorophenoxy)thiophosphorylacetamidine

> <PUBCHEM_IUPAC_INCHI>
InChI=1S/C14H13Cl2N2O2PS/c1-10(17)18-21(22,19-13-6-2-11(15)3-7-13)20-14-8-4-12(16)5-9-14/h2-9H,1H3,(H2,17,18,22)

> <PUBCHEM_IUPAC_INCHIKEY>
XIBXUAZIZXDFTG-UHFFFAOYSA-N

> <PUBCHEM_XLOGP3_AA>
5.5

> <PUBCHEM_EXACT_MASS>
373.981241

> <PUBCHEM_MOLECULAR_FORMULA>
C14H13Cl2N2O2PS

> <PUBCHEM_MOLECULAR_WEIGHT>
375.209982

> <PUBCHEM_OPENEYE_CAN_SMILES>
CC(=NP(=S)(OC1=CC=C(C=C1)Cl)OC2=CC=C(C=C2)Cl)N

> <PUBCHEM_OPENEYE_ISO_SMILES>
C/C(=N/P(=S)(OC1=CC=C(C=C1)Cl)OC2=CC=C(C=C2)Cl)/N

> <PUBCHEM_CACTVS_TPSA>
88.9

> <PUBCHEM_MONOISOTOPIC_WEIGHT>
373.981241

> <PUBCHEM_TOTAL_CHARGE>
0

> <PUBCHEM_HEAVY_ATOM_COUNT>
22

> <PUBCHEM_ATOM_DEF_STEREO_COUNT>
0

> <PUBCHEM_ATOM_UDEF_STEREO_COUNT>
0

> <PUBCHEM_BOND_DEF_STEREO_COUNT>
1

> <PUBCHEM_BOND_UDEF_STEREO_COUNT>
0

> <PUBCHEM_ISOTOPIC_ATOM_COUNT>
0

> <PUBCHEM_COMPONENT_COUNT>
1

> <PUBCHEM_CACTVS_TAUTO_COUNT>
3

> <PUBCHEM_COORDINATE_TYPE>
1
5
255

> <PUBCHEM_BONDANNOTATIONS>
10  12  8
10  14  8
11  15  8
12  16  8
13  17  8
14  18  8
15  20  8
16  21  8
17  20  8
18  21  8
9  11  8
9  13  8

$$$$

