   Color/Form
        White crystalline solid
   from [1]HSDB

   Melting Point
        154-155 deg C
   from [2]HSDB

   Density/Specific Gravity
        Bulk density, loose: 0.358 g/cu cm; packed: 0.515 g/cu cm
   from [3]HSDB

   Dissociation Constants
        pKa = 12.3
   from [4]HSDB

   Octanol/Water Partition Coefficient
        log Kow = 1.87 at pH 7, 25 deg C
   from [5]HSDB

   Solubilities

     * Solubility in methanol, chloroform, diethyl ether: >10 g/L; in
       ethyl acetate: >5 g/L; in hexane: <0.5 g/L
     * In water, 12 mg/L at pH 7, 25 deg C [Shiu W et al; Rev Environ
       Contam Toxicol 116: 15-187 (1990)] [6]PubMed Abstract

   from [7]HSDB

   Vapor Pressure
        0.013 mPa (9.8X10-8 mm Hg) at 25 deg C
   from [8]HSDB

   Other Chemical/Physical Properties

     * White to tan crystalline solid /Technical grade/
     * Decomposes at 200-219 deg C. ...Decomposed by u.v. irradiation,
       DT50 23 hr in water.
     * Henry's Law constant = 3.5X10-9 atm-cu m/mol at 25 deg C (est)

   from [9]HSDB

   Computed Properties
   Molecular Weight                  329.31577 [g/mol]
   Molecular Formula                 C[19]H[14]F[3]NO
   XLogP3                            3.2
   H-Bond Donor                      0
   H-Bond Acceptor                   5
   Rotatable Bond Count              2
   Exact Mass                        329.102749
   MonoIsotopic Mass                 329.102749
   Topological Polar Surface Area    20.3
   Heavy Atom Count                  24
   Formal Charge                     0
   Complexity                        543
   Isotope Atom Count                0
   Defined Atom Stereocenter Count   0
   Undefined Atom Stereocenter Count 0
   Defined Bond Stereocenter Count   0
   Undefined Bond Stereocenter Count 0
   Covalently-Bonded Unit Count      1
   Feature 3D Acceptor Count         1
   Feature 3D Cation Count           1
   Feature 3D Ring Count             3
   Effective Rotor Count             3
   Conformer Sampling RMSD           0.6
   CID Conformer Count               [10]12

References

   1. http://toxnet.nlm.nih.gov/cgi-bin/sis/search/r?dbs+hsdb:@term+@rn+@rel+59756-60-4
   2. http://toxnet.nlm.nih.gov/cgi-bin/sis/search/r?dbs+hsdb:@term+@rn+@rel+59756-60-4
   3. http://toxnet.nlm.nih.gov/cgi-bin/sis/search/r?dbs+hsdb:@term+@rn+@rel+59756-60-4
   4. http://toxnet.nlm.nih.gov/cgi-bin/sis/search/r?dbs+hsdb:@term+@rn+@rel+59756-60-4
   5. http://toxnet.nlm.nih.gov/cgi-bin/sis/search/r?dbs+hsdb:@term+@rn+@rel+59756-60-4
   6. http://www.ncbi.nlm.nih.gov/entrez/query.fcgi?cmd=Retrieve&db=pubmed&dopt=Abstract&list_uids=2205893
   7. http://toxnet.nlm.nih.gov/cgi-bin/sis/search/r?dbs+hsdb:@term+@rn+@rel+59756-60-4
   8. http://toxnet.nlm.nih.gov/cgi-bin/sis/search/r?dbs+hsdb:@term+@rn+@rel+59756-60-4
   9. http://toxnet.nlm.nih.gov/cgi-bin/sis/search/r?dbs+hsdb:@term+@rn+@rel+59756-60-4
  10. http://pubchem.ncbi.nlm.nih.gov/vw3d/vw3d.cgi?cid=43079
