46173896
  -OEChem-07051213102D

 68 69  0     1  0  0  0  0  0999 V2000
    7.5576   -1.5877    0.0000 S   0  0  0  0  0  0  0  0  0  0  0  0
    2.5992    0.3335    0.0000 O   0  0  0  0  0  0  0  0  0  0  0  0
    3.3048   -2.8004    0.0000 O   0  0  0  0  0  0  0  0  0  0  0  0
    7.2570   -3.5557    0.0000 O   0  0  0  0  0  0  0  0  0  0  0  0
    5.6097   -4.0909    0.0000 O   0  0  0  0  0  0  0  0  0  0  0  0
   11.0576   -0.7217    0.0000 O   0  0  0  0  0  0  0  0  0  0  0  0
   13.5576    3.6084    0.0000 O   0  0  0  0  0  0  0  0  0  0  0  0
   16.5576    3.6084    0.0000 O   0  0  0  0  0  0  0  0  0  0  0  0
   14.0576    1.0104    0.0000 O   0  0  0  0  0  0  0  0  0  0  0  0
    5.0188   -2.0877    0.0000 N   0  0  0  0  0  0  0  0  0  0  0  0
    9.5576    0.1443    0.0000 N   0  0  0  0  0  0  0  0  0  0  0  0
   12.5576    1.8764    0.0000 N   0  0  0  0  0  0  0  0  0  0  0  0
    5.0188   -1.0877    0.0000 C   0  0  1  0  0  0  0  0  0  0  0  0
    4.0105   -1.0836    0.0000 C   0  0  1  0  0  0  0  0  0  0  0  0
    5.9698   -0.7787    0.0000 C   0  0  0  0  0  0  0  0  0  0  0  0
    5.9698   -2.3967    0.0000 C   0  0  2  0  0  0  0  0  0  0  0  0
    6.5576   -1.5877    0.0000 C   0  0  1  0  0  0  0  0  0  0  0  0
    4.0105   -2.0919    0.0000 C   0  0  0  0  0  0  0  0  0  0  0  0
    3.3048   -0.3750    0.0000 C   0  0  0  0  0  0  0  0  0  0  0  0
    6.2789   -3.3478    0.0000 C   0  0  0  0  0  0  0  0  0  0  0  0
    4.0134    0.3306    0.0000 C   0  0  0  0  0  0  0  0  0  0  0  0
    2.5963   -1.0807    0.0000 C   0  0  0  0  0  0  0  0  0  0  0  0
    8.0576   -0.7217    0.0000 C   0  0  0  0  0  0  0  0  0  0  0  0
    9.0576   -0.7217    0.0000 C   0  0  0  0  0  0  0  0  0  0  0  0
   15.0576    2.7424    0.0000 C   0  0  0  0  0  0  0  0  0  0  0  0
   10.5576    0.1443    0.0000 C   0  0  0  0  0  0  0  0  0  0  0  0
   14.0576    2.7424    0.0000 C   0  0  2  0  0  0  0  0  0  0  0  0
   11.0576    1.0104    0.0000 C   0  0  0  0  0  0  0  0  0  0  0  0
   16.0576    2.7424    0.0000 C   0  0  0  0  0  0  0  0  0  0  0  0
   15.0576    3.7424    0.0000 C   0  0  0  0  0  0  0  0  0  0  0  0
   15.0576    1.7424    0.0000 C   0  0  0  0  0  0  0  0  0  0  0  0
   12.0576    1.0104    0.0000 C   0  0  0  0  0  0  0  0  0  0  0  0
   13.5576    1.8764    0.0000 C   0  0  0  0  0  0  0  0  0  0  0  0
    4.8875   -0.2479    0.0000 H   0  0  0  0  0  0  0  0  0  0  0  0
    3.2249   -1.4080    0.0000 H   0  0  0  0  0  0  0  0  0  0  0  0
    6.5068   -0.4687    0.0000 H   0  0  0  0  0  0  0  0  0  0  0  0
    5.7177   -0.2123    0.0000 H   0  0  0  0  0  0  0  0  0  0  0  0
    5.5314   -2.8352    0.0000 H   0  0  0  0  0  0  0  0  0  0  0  0
    6.8391   -2.1402    0.0000 H   0  0  0  0  0  0  0  0  0  0  0  0
    4.4509   -0.1087    0.0000 H   0  0  0  0  0  0  0  0  0  0  0  0
    4.4527    0.7681    0.0000 H   0  0  0  0  0  0  0  0  0  0  0  0
    3.5759    0.7699    0.0000 H   0  0  0  0  0  0  0  0  0  0  0  0
    2.1588   -0.6414    0.0000 H   0  0  0  0  0  0  0  0  0  0  0  0
    2.1570   -1.5182    0.0000 H   0  0  0  0  0  0  0  0  0  0  0  0
    3.0338   -1.5200    0.0000 H   0  0  0  0  0  0  0  0  0  0  0  0
    2.0000    0.1743    0.0000 H   0  0  0  0  0  0  0  0  0  0  0  0
    8.1653   -0.1111    0.0000 H   0  0  0  0  0  0  0  0  0  0  0  0
    7.4750   -0.5096    0.0000 H   0  0  0  0  0  0  0  0  0  0  0  0
    7.4486   -4.1454    0.0000 H   0  0  0  0  0  0  0  0  0  0  0  0
    8.9500   -1.3323    0.0000 H   0  0  0  0  0  0  0  0  0  0  0  0
    9.6402   -0.9338    0.0000 H   0  0  0  0  0  0  0  0  0  0  0  0
    9.2476    0.6813    0.0000 H   0  0  0  0  0  0  0  0  0  0  0  0
   13.4376    2.7424    0.0000 H   0  0  0  0  0  0  0  0  0  0  0  0
   11.1653    1.6209    0.0000 H   0  0  0  0  0  0  0  0  0  0  0  0
   10.4750    1.2224    0.0000 H   0  0  0  0  0  0  0  0  0  0  0  0
   15.9500    2.1318    0.0000 H   0  0  0  0  0  0  0  0  0  0  0  0
   16.6402    2.5304    0.0000 H   0  0  0  0  0  0  0  0  0  0  0  0
   15.6776    3.7424    0.0000 H   0  0  0  0  0  0  0  0  0  0  0  0
   15.0576    4.3624    0.0000 H   0  0  0  0  0  0  0  0  0  0  0  0
   14.4376    3.7424    0.0000 H   0  0  0  0  0  0  0  0  0  0  0  0
   14.4376    1.7424    0.0000 H   0  0  0  0  0  0  0  0  0  0  0  0
   15.0576    1.1224    0.0000 H   0  0  0  0  0  0  0  0  0  0  0  0
   15.6776    1.7424    0.0000 H   0  0  0  0  0  0  0  0  0  0  0  0
   11.9500    0.3998    0.0000 H   0  0  0  0  0  0  0  0  0  0  0  0
   12.6402    0.7983    0.0000 H   0  0  0  0  0  0  0  0  0  0  0  0
   12.2476    2.4133    0.0000 H   0  0  0  0  0  0  0  0  0  0  0  0
   13.8676    4.1454    0.0000 H   0  0  0  0  0  0  0  0  0  0  0  0
   17.1776    3.6084    0.0000 H   0  0  0  0  0  0  0  0  0  0  0  0
 17  1  1  6  0  0  0
  1 23  1  0  0  0  0
  2 19  1  0  0  0  0
  2 46  1  0  0  0  0
  3 18  2  0  0  0  0
  4 20  1  0  0  0  0
  4 49  1  0  0  0  0
  5 20  2  0  0  0  0
  6 26  2  0  0  0  0
 27  7  1  6  0  0  0
  7 67  1  0  0  0  0
  8 29  1  0  0  0  0
  8 68  1  0  0  0  0
  9 33  2  0  0  0  0
 10 13  1  0  0  0  0
 10 16  1  0  0  0  0
 10 18  1  0  0  0  0
 11 24  1  0  0  0  0
 11 26  1  0  0  0  0
 11 52  1  0  0  0  0
 12 32  1  0  0  0  0
 12 33  1  0  0  0  0
 12 66  1  0  0  0  0
 13 14  1  0  0  0  0
 13 15  1  0  0  0  0
 13 34  1  6  0  0  0
 14 18  1  0  0  0  0
 14 19  1  0  0  0  0
 14 35  1  6  0  0  0
 15 17  1  0  0  0  0
 15 36  1  0  0  0  0
 15 37  1  0  0  0  0
 16 17  1  0  0  0  0
 16 20  1  6  0  0  0
 16 38  1  0  0  0  0
 17 39  1  0  0  0  0
 19 21  1  0  0  0  0
 19 22  1  0  0  0  0
 21 40  1  0  0  0  0
 21 41  1  0  0  0  0
 21 42  1  0  0  0  0
 22 43  1  0  0  0  0
 22 44  1  0  0  0  0
 22 45  1  0  0  0  0
 23 24  1  0  0  0  0
 23 47  1  0  0  0  0
 23 48  1  0  0  0  0
 24 50  1  0  0  0  0
 24 51  1  0  0  0  0
 25 27  1  0  0  0  0
 25 29  1  0  0  0  0
 25 30  1  0  0  0  0
 25 31  1  0  0  0  0
 26 28  1  0  0  0  0
 27 33  1  0  0  0  0
 27 53  1  0  0  0  0
 28 32  1  0  0  0  0
 28 54  1  0  0  0  0
 28 55  1  0  0  0  0
 29 56  1  0  0  0  0
 29 57  1  0  0  0  0
 30 58  1  0  0  0  0
 30 59  1  0  0  0  0
 30 60  1  0  0  0  0
 31 61  1  0  0  0  0
 31 62  1  0  0  0  0
 31 63  1  0  0  0  0
 32 64  1  0  0  0  0
 32 65  1  0  0  0  0
M  END
> <PUBCHEM_COMPOUND_CID>
46173896

> <PUBCHEM_COMPOUND_CANONICALIZED>
1

> <PUBCHEM_CACTVS_COMPLEXITY>
775

> <PUBCHEM_CACTVS_HBOND_ACCEPTOR>
9

> <PUBCHEM_CACTVS_HBOND_DONOR>
6

> <PUBCHEM_CACTVS_ROTATABLE_BOND>
12

> <PUBCHEM_CACTVS_SUBSKEYS>
AAADcfB7PABAAAAAAAAAAAAAAABYAWAAAAAAAAAABYAAAAAAAAAAHgQQCAAAD3zlwAaCCAPAAggIAAGQGAIAAAAAABAAAIHIAAACEB4gwCAEQAAHNgCwAAG62eOfgAAAAAAAAAAAAAAAAAAAAAAAAAAAAA==

> <PUBCHEM_IUPAC_OPENEYE_NAME>
(2S,3S,5R,6R)-3-[2-[3-[[(2R)-2,4-dihydroxy-3,3-dimethyl-butanoyl]amino]propanoylamino]ethylsulfanyl]-6-(1-hydroxy-1-methyl-ethyl)-7-oxo-1-azabicyclo[3.2.0]heptane-2-carboxylic acid

> <PUBCHEM_IUPAC_CAS_NAME>
(2S,3S,5R,6R)-3-[2-[[3-[[(2R)-2,4-dihydroxy-3,3-dimethyl-1-oxobutyl]amino]-1-oxopropyl]amino]ethylthio]-6-(2-hydroxypropan-2-yl)-7-oxo-1-azabicyclo[3.2.0]heptane-2-carboxylic acid

> <PUBCHEM_IUPAC_NAME>
(2S,3S,5R,6R)-3-[2-[3-[[(2R)-2,4-dihydroxy-3,3-dimethylbutanoyl]amino]propanoylamino]ethylsulfanyl]-6-(2-hydroxypropan-2-yl)-7-oxo-1-azabicyclo[3.2.0]heptane-2-carboxylic acid

> <PUBCHEM_IUPAC_SYSTEMATIC_NAME>
(2S,3S,5R,6R)-3-[2-[3-[[(2R)-3,3-dimethyl-2,4-bis(oxidanyl)butanoyl]amino]propanoylamino]ethylsulfanyl]-7-oxidanylidene-6-(2-oxidanylpropan-2-yl)-1-azabicyclo[3.2.0]heptane-2-carboxylic acid

> <PUBCHEM_IUPAC_TRADITIONAL_NAME>
(2S,3S,5R,6R)-3-[2-[3-[[(2R)-2,4-dihydroxy-3,3-dimethyl-butanoyl]amino]propanoylamino]ethylthio]-6-(1-hydroxy-1-methyl-ethyl)-7-keto-1-azabicyclo[3.2.0]heptane-2-carboxylic acid

> <PUBCHEM_IUPAC_INCHI>
InChI=1S/C21H35N3O8S/c1-20(2,10-25)16(27)17(28)23-6-5-13(26)22-7-8-33-12-9-11-14(21(3,4)32)18(29)24(11)15(12)19(30)31/h11-12,14-16,25,27,32H,5-10H2,1-4H3,(H,22,26)(H,23,28)(H,30,31)/t11-,12+,14+,15-,16+/m1/s1

> <PUBCHEM_IUPAC_INCHIKEY>
NSMABMGRXUKVDE-IVCRCZCHSA-N

> <PUBCHEM_XLOGP3_AA>
-1.1

> <PUBCHEM_EXACT_MASS>
489.214486

> <PUBCHEM_MOLECULAR_FORMULA>
C21H35N3O8S

> <PUBCHEM_MOLECULAR_WEIGHT>
489.5829

> <PUBCHEM_OPENEYE_CAN_SMILES>
CC(C)(CO)C(C(=O)NCCC(=O)NCCSC1CC2C(C(=O)N2C1C(=O)O)C(C)(C)O)O

> <PUBCHEM_OPENEYE_ISO_SMILES>
CC(C)(CO)[C@H](C(=O)NCCC(=O)NCCS[C@H]1C[C@@H]2[C@@H](C(=O)N2[C@H]1C(=O)O)C(C)(C)O)O

> <PUBCHEM_CACTVS_TPSA>
202

> <PUBCHEM_MONOISOTOPIC_WEIGHT>
489.214486

> <PUBCHEM_TOTAL_CHARGE>
0

> <PUBCHEM_HEAVY_ATOM_COUNT>
33

> <PUBCHEM_ATOM_DEF_STEREO_COUNT>
5

> <PUBCHEM_ATOM_UDEF_STEREO_COUNT>
0

> <PUBCHEM_BOND_DEF_STEREO_COUNT>
0

> <PUBCHEM_BOND_UDEF_STEREO_COUNT>
0

> <PUBCHEM_ISOTOPIC_ATOM_COUNT>
0

> <PUBCHEM_COMPONENT_COUNT>
1

> <PUBCHEM_CACTVS_TAUTO_COUNT>
8

> <PUBCHEM_COORDINATE_TYPE>
1
5
255

> <PUBCHEM_BONDANNOTATIONS>
17  1  6
13  34  6
14  35  6
16  20  6
27  7  6

$$$$

