   Color/Form

     * OIL OR CRYSTALS
     * NEEDLES

   from [1]HSDB

   Boiling Point
        260 DEG C @ 5 MM HG (PARTIAL CONVERSION TO ISOPILOCARPINE)
   from [2]HSDB

   Melting Point
        34 DEG C
   from [3]HSDB

   Dissociation Constants
        PK1= 7.15; PK2= 12.57 @ 20 DEG C
   from [4]HSDB

   Solubilities

     * SOL IN WATER, ALC, CHLOROFORM; SPARINGLY SOL IN ETHER, BENZENE;
       ALMOST INSOL IN PETROLEUM ETHER
     * SOL IN ETHANOL, DIETHYL ETHER

   from [5]HSDB

   Spectral Properties

     * SPECIFIC OPTICAL ROTATION: +106 DEG @ 18 DEG C/D (2%)
     * MAX ABSORPTION (METHANOL): 216 NM (LOG E= 3.75)

   from [6]HSDB

   Other Chemical/Physical Properties

     * WHITE CRYSTALS; SLIGHTLY BITTER; MP: 195-198 DEG C; ALSO GIVEN AS
       204-205 DEG C; 1 G DISSOLVES IN 0.3 ML WATER, 3 ML ALCOHOL, 366 ML
       CHLOROFORM; INSOL IN ETHER; /HCL/
     * SADTLER REF NUMBER: 7161 (IR, PRISM) /HCL/
     * ODORLESS, FAINTLY BITTER CRYSTALS; SOLN ACID TO LITMUS; PKA1= 6.8,
       PKA2= 1.3 /HCL/
     * MP: 173.5-174.0 DEG C DECOMP; SPECIFIC OPTICAL ROTATION: +77 DEG TO
       +83 DEG FOR D (SODIUM) LINE (10%); 1 G DISSOLVES IN 4 ML WATER, 75
       ML ALCOHOL; INSOL IN CHLOROFORM, ETHER /NITRATE/
     * SOL ARE ACID TO LITMUS /NITRATE/
     * WHITE POWDER OR CRYSTALS FROM ALC /NITRITE/
     * FREELY SOL IN ETHANOL; INSOL IN DIETHYL ETHER /HCL/

   from [7]HSDB

   Computed Properties
   Molecular Weight                  208.25694 [g/mol]
   Molecular Formula                 C[11]H[16]N[2]O[2]
   XLogP3-AA                         1.1
   H-Bond Donor                      0
   H-Bond Acceptor                   3
   Rotatable Bond Count              3
   Tautomer Count                    2
   Exact Mass                        208.121178
   MonoIsotopic Mass                 208.121178
   Topological Polar Surface Area    44.1
   Heavy Atom Count                  15
   Formal Charge                     0
   Complexity                        245
   Isotope Atom Count                0
   Defined Atom Stereocenter Count   2
   Undefined Atom Stereocenter Count 0
   Defined Bond Stereocenter Count   0
   Undefined Bond Stereocenter Count 0
   Covalently-Bonded Unit Count      1
   Feature 3D Acceptor Count         1
   Feature 3D Cation Count           1
   Feature 3D Hydrophobe Count       1
   Feature 3D Ring Count             2
   Effective Rotor Count             3.8
   Conformer Sampling RMSD           0.6
   CID Conformer Count               [8]19

References

   1. http://toxnet.nlm.nih.gov/cgi-bin/sis/search/r?dbs+hsdb:@term+@rn+@rel+92-13-7
   2. http://toxnet.nlm.nih.gov/cgi-bin/sis/search/r?dbs+hsdb:@term+@rn+@rel+92-13-7
   3. http://toxnet.nlm.nih.gov/cgi-bin/sis/search/r?dbs+hsdb:@term+@rn+@rel+92-13-7
   4. http://toxnet.nlm.nih.gov/cgi-bin/sis/search/r?dbs+hsdb:@term+@rn+@rel+92-13-7
   5. http://toxnet.nlm.nih.gov/cgi-bin/sis/search/r?dbs+hsdb:@term+@rn+@rel+92-13-7
   6. http://toxnet.nlm.nih.gov/cgi-bin/sis/search/r?dbs+hsdb:@term+@rn+@rel+92-13-7
   7. http://toxnet.nlm.nih.gov/cgi-bin/sis/search/r?dbs+hsdb:@term+@rn+@rel+92-13-7
   8. http://pubchem.ncbi.nlm.nih.gov/vw3d/vw3d.cgi?cid=5910
