62743
  -OEChem-07051213142D

 34 38  0     0  0  0  0  0  0999 V2000
    2.0000   -3.2448    0.0000 O   0  5  0  0  0  0  0  0  0  0  0  0
    3.7312   -3.3002    0.0000 O   0  0  0  0  0  0  0  0  0  0  0  0
    2.8816   -2.7728    0.0000 N   0  3  0  0  0  0  0  0  0  0  0  0
    3.8067   -0.2690    0.0000 C   0  0  0  0  0  0  0  0  0  0  0  0
    3.8067    1.7310    0.0000 C   0  0  0  0  0  0  0  0  0  0  0  0
    2.9407    0.2310    0.0000 C   0  0  0  0  0  0  0  0  0  0  0  0
    4.6728    0.2310    0.0000 C   0  0  0  0  0  0  0  0  0  0  0  0
    2.9407    1.2310    0.0000 C   0  0  0  0  0  0  0  0  0  0  0  0
    4.6728    1.2310    0.0000 C   0  0  0  0  0  0  0  0  0  0  0  0
    3.7907   -1.3105    0.0000 C   0  0  0  0  0  0  0  0  0  0  0  0
    3.7907    2.7725    0.0000 C   0  0  0  0  0  0  0  0  0  0  0  0
    2.0812   -0.2638    0.0000 C   0  0  0  0  0  0  0  0  0  0  0  0
    5.5828   -0.2759    0.0000 C   0  0  0  0  0  0  0  0  0  0  0  0
    2.9136   -1.7733    0.0000 C   0  0  0  0  0  0  0  0  0  0  0  0
    2.0812    1.7257    0.0000 C   0  0  0  0  0  0  0  0  0  0  0  0
    5.5828    1.7378    0.0000 C   0  0  0  0  0  0  0  0  0  0  0  0
    4.6887   -1.8383    0.0000 C   0  0  0  0  0  0  0  0  0  0  0  0
    2.0678   -1.2554    0.0000 C   0  0  0  0  0  0  0  0  0  0  0  0
    2.9136    3.2352    0.0000 C   0  0  0  0  0  0  0  0  0  0  0  0
    4.6887    3.3002    0.0000 C   0  0  0  0  0  0  0  0  0  0  0  0
    5.5908   -1.3175    0.0000 C   0  0  0  0  0  0  0  0  0  0  0  0
    2.0678    2.7174    0.0000 C   0  0  0  0  0  0  0  0  0  0  0  0
    5.5908    2.7794    0.0000 C   0  0  0  0  0  0  0  0  0  0  0  0
    1.5466    0.0502    0.0000 H   0  0  0  0  0  0  0  0  0  0  0  0
    6.1161    0.0403    0.0000 H   0  0  0  0  0  0  0  0  0  0  0  0
    1.5466    1.4118    0.0000 H   0  0  0  0  0  0  0  0  0  0  0  0
    6.1161    1.4216    0.0000 H   0  0  0  0  0  0  0  0  0  0  0  0
    4.6863   -2.4583    0.0000 H   0  0  0  0  0  0  0  0  0  0  0  0
    1.5249   -1.5548    0.0000 H   0  0  0  0  0  0  0  0  0  0  0  0
    2.8937    3.8549    0.0000 H   0  0  0  0  0  0  0  0  0  0  0  0
    4.6863    3.9202    0.0000 H   0  0  0  0  0  0  0  0  0  0  0  0
    6.1289   -1.6254    0.0000 H   0  0  0  0  0  0  0  0  0  0  0  0
    1.5249    3.0167    0.0000 H   0  0  0  0  0  0  0  0  0  0  0  0
    6.1289    3.0873    0.0000 H   0  0  0  0  0  0  0  0  0  0  0  0
  1  3  1  0  0  0  0
  2  3  2  0  0  0  0
  3 14  1  0  0  0  0
  4  6  1  0  0  0  0
  4  7  2  0  0  0  0
  4 10  1  0  0  0  0
  5  8  1  0  0  0  0
  5  9  1  0  0  0  0
  5 11  2  0  0  0  0
  6  8  1  0  0  0  0
  6 12  2  0  0  0  0
  7  9  1  0  0  0  0
  7 13  1  0  0  0  0
  8 15  2  0  0  0  0
  9 16  2  0  0  0  0
 10 14  1  0  0  0  0
 10 17  2  0  0  0  0
 11 19  1  0  0  0  0
 11 20  1  0  0  0  0
 12 18  1  0  0  0  0
 12 24  1  0  0  0  0
 13 21  2  0  0  0  0
 13 25  1  0  0  0  0
 14 18  2  0  0  0  0
 15 22  1  0  0  0  0
 15 26  1  0  0  0  0
 16 23  1  0  0  0  0
 16 27  1  0  0  0  0
 17 21  1  0  0  0  0
 17 28  1  0  0  0  0
 18 29  1  0  0  0  0
 19 22  2  0  0  0  0
 19 30  1  0  0  0  0
 20 23  2  0  0  0  0
 20 31  1  0  0  0  0
 21 32  1  0  0  0  0
 22 33  1  0  0  0  0
 23 34  1  0  0  0  0
M  CHG  2   1  -1   3   1
M  END
> <PUBCHEM_COMPOUND_CID>
62743

> <PUBCHEM_COMPOUND_CANONICALIZED>
1

> <PUBCHEM_CACTVS_COMPLEXITY>
487

> <PUBCHEM_CACTVS_HBOND_ACCEPTOR>
2

> <PUBCHEM_CACTVS_HBOND_DONOR>
0

> <PUBCHEM_CACTVS_ROTATABLE_BOND>
0

> <PUBCHEM_CACTVS_SUBSKEYS>
AAADccB6MAAAAAAAAAAAAAAAAAAAAAAAAAAwYMGDAAAAAADBVAAAHAAEAAAADAiBGAAwwMAQQACBAiRCQwCCAAAgAgAoiAAAZIoIICKAkZGAIABggAAIyAcQgMAOyAACQAASAACQAASAACQAAAAAAAAAAA==

> <PUBCHEM_IUPAC_OPENEYE_NAME>
3-nitroperylene

> <PUBCHEM_IUPAC_CAS_NAME>
3-nitroperylene

> <PUBCHEM_IUPAC_NAME>
3-nitroperylene

> <PUBCHEM_IUPAC_SYSTEMATIC_NAME>
3-nitroperylene

> <PUBCHEM_IUPAC_TRADITIONAL_NAME>
3-nitroperylene

> <PUBCHEM_IUPAC_INCHI>
InChI=1S/C20H11NO2/c22-21(23)18-11-10-16-14-7-2-5-12-4-1-6-13(19(12)14)15-8-3-9-17(18)20(15)16/h1-11H

> <PUBCHEM_IUPAC_INCHIKEY>
QZJXXFWGAGHMGG-UHFFFAOYSA-N

> <PUBCHEM_XLOGP3>
6.1

> <PUBCHEM_EXACT_MASS>
297.078979

> <PUBCHEM_MOLECULAR_FORMULA>
C20H11NO2

> <PUBCHEM_MOLECULAR_WEIGHT>
297.30684

> <PUBCHEM_OPENEYE_CAN_SMILES>
C1=CC2=C3C(=C1)C4=C5C(=CC=C4)C(=CC=C5C3=CC=C2)[N+](=O)[O-]

> <PUBCHEM_OPENEYE_ISO_SMILES>
C1=CC2=C3C(=C1)C4=C5C(=CC=C4)C(=CC=C5C3=CC=C2)[N+](=O)[O-]

> <PUBCHEM_CACTVS_TPSA>
45.8

> <PUBCHEM_MONOISOTOPIC_WEIGHT>
297.078979

> <PUBCHEM_TOTAL_CHARGE>
0

> <PUBCHEM_HEAVY_ATOM_COUNT>
23

> <PUBCHEM_ATOM_DEF_STEREO_COUNT>
0

> <PUBCHEM_ATOM_UDEF_STEREO_COUNT>
0

> <PUBCHEM_BOND_DEF_STEREO_COUNT>
0

> <PUBCHEM_BOND_UDEF_STEREO_COUNT>
0

> <PUBCHEM_ISOTOPIC_ATOM_COUNT>
0

> <PUBCHEM_COMPONENT_COUNT>
1

> <PUBCHEM_CACTVS_TAUTO_COUNT>
1

> <PUBCHEM_COORDINATE_TYPE>
1
5
255

> <PUBCHEM_BONDANNOTATIONS>
10  14  8
10  17  8
11  19  8
11  20  8
12  18  8
13  21  8
14  18  8
15  22  8
16  23  8
17  21  8
19  22  8
20  23  8
4  10  8
4  6  8
4  7  8
5  11  8
5  8  8
5  9  8
6  12  8
6  8  8
7  13  8
7  9  8
8  15  8
9  16  8

$$$$

