442662
  -OEChem-07051212592D

 42 44  0     0  0  0  0  0  0999 V2000
    6.3580    0.6126    0.0000 O   0  0  0  0  0  0  0  0  0  0  0  0
    4.5981    1.5779    0.0000 O   0  0  0  0  0  0  0  0  0  0  0  0
    2.8660    0.5779    0.0000 O   0  0  0  0  0  0  0  0  0  0  0  0
    4.5981   -2.4221    0.0000 O   0  0  0  0  0  0  0  0  0  0  0  0
    2.8660   -1.4221    0.0000 O   0  0  0  0  0  0  0  0  0  0  0  0
    6.3465   -2.4567    0.0000 O   0  0  0  0  0  0  0  0  0  0  0  0
   10.7282    0.1121    0.0000 O   0  0  0  0  0  0  0  0  0  0  0  0
   10.7205    2.1121    0.0000 O   0  0  0  0  0  0  0  0  0  0  0  0
    5.4641   -0.9221    0.0000 C   0  0  0  0  0  0  0  0  0  0  0  0
    5.4641    0.0779    0.0000 C   0  0  0  0  0  0  0  0  0  0  0  0
    7.2641    0.0987    0.0000 C   0  0  0  0  0  0  0  0  0  0  0  0
    4.5981    0.5779    0.0000 C   0  0  0  0  0  0  0  0  0  0  0  0
    4.5981   -1.4221    0.0000 C   0  0  0  0  0  0  0  0  0  0  0  0
    6.3580   -1.4567    0.0000 C   0  0  0  0  0  0  0  0  0  0  0  0
    3.7320    0.0779    0.0000 C   0  0  0  0  0  0  0  0  0  0  0  0
    8.1282    0.6021    0.0000 C   0  0  0  0  0  0  0  0  0  0  0  0
    7.2641   -0.9429    0.0000 C   0  0  0  0  0  0  0  0  0  0  0  0
    3.7320   -0.9221    0.0000 C   0  0  0  0  0  0  0  0  0  0  0  0
    8.9962    0.1054    0.0000 C   0  0  0  0  0  0  0  0  0  0  0  0
    8.1244    1.6021    0.0000 C   0  0  0  0  0  0  0  0  0  0  0  0
    9.8602    0.6088    0.0000 C   0  0  0  0  0  0  0  0  0  0  0  0
    8.9884    2.1054    0.0000 C   0  0  0  0  0  0  0  0  0  0  0  0
    9.8564    1.6087    0.0000 C   0  0  0  0  0  0  0  0  0  0  0  0
    3.7320    2.0779    0.0000 C   0  0  0  0  0  0  0  0  0  0  0  0
    2.0000    0.0779    0.0000 C   0  0  0  0  0  0  0  0  0  0  0  0
   10.7320   -0.8879    0.0000 C   0  0  0  0  0  0  0  0  0  0  0  0
    7.7998   -1.2550    0.0000 H   0  0  0  0  0  0  0  0  0  0  0  0
    8.9985   -0.5146    0.0000 H   0  0  0  0  0  0  0  0  0  0  0  0
    7.5862    1.9100    0.0000 H   0  0  0  0  0  0  0  0  0  0  0  0
    8.9860    2.7254    0.0000 H   0  0  0  0  0  0  0  0  0  0  0  0
    4.0611   -2.7321    0.0000 H   0  0  0  0  0  0  0  0  0  0  0  0
    2.3291   -1.1121    0.0000 H   0  0  0  0  0  0  0  0  0  0  0  0
    4.0420    2.6149    0.0000 H   0  0  0  0  0  0  0  0  0  0  0  0
    3.1951    2.3879    0.0000 H   0  0  0  0  0  0  0  0  0  0  0  0
    3.4220    1.5410    0.0000 H   0  0  0  0  0  0  0  0  0  0  0  0
    1.6900    0.6149    0.0000 H   0  0  0  0  0  0  0  0  0  0  0  0
    1.4631   -0.2321    0.0000 H   0  0  0  0  0  0  0  0  0  0  0  0
    2.3100   -0.4590    0.0000 H   0  0  0  0  0  0  0  0  0  0  0  0
   10.7181    2.7321    0.0000 H   0  0  0  0  0  0  0  0  0  0  0  0
   10.1120   -0.8903    0.0000 H   0  0  0  0  0  0  0  0  0  0  0  0
   10.7344   -1.5079    0.0000 H   0  0  0  0  0  0  0  0  0  0  0  0
   11.3520   -0.8855    0.0000 H   0  0  0  0  0  0  0  0  0  0  0  0
  1 10  1  0  0  0  0
  1 11  1  0  0  0  0
  2 12  1  0  0  0  0
  2 24  1  0  0  0  0
  3 15  1  0  0  0  0
  3 25  1  0  0  0  0
  4 13  1  0  0  0  0
  4 31  1  0  0  0  0
  5 18  1  0  0  0  0
  5 32  1  0  0  0  0
  6 14  2  0  0  0  0
  7 21  1  0  0  0  0
  7 26  1  0  0  0  0
  8 23  1  0  0  0  0
  8 39  1  0  0  0  0
  9 10  1  0  0  0  0
  9 13  2  0  0  0  0
  9 14  1  0  0  0  0
 10 12  2  0  0  0  0
 11 16  1  0  0  0  0
 11 17  2  0  0  0  0
 12 15  1  0  0  0  0
 13 18  1  0  0  0  0
 14 17  1  0  0  0  0
 15 18  2  0  0  0  0
 16 19  2  0  0  0  0
 16 20  1  0  0  0  0
 17 27  1  0  0  0  0
 19 21  1  0  0  0  0
 19 28  1  0  0  0  0
 20 22  2  0  0  0  0
 20 29  1  0  0  0  0
 21 23  2  0  0  0  0
 22 23  1  0  0  0  0
 22 30  1  0  0  0  0
 24 33  1  0  0  0  0
 24 34  1  0  0  0  0
 24 35  1  0  0  0  0
 25 36  1  0  0  0  0
 25 37  1  0  0  0  0
 25 38  1  0  0  0  0
 26 40  1  0  0  0  0
 26 41  1  0  0  0  0
 26 42  1  0  0  0  0
M  END
> <PUBCHEM_COMPOUND_CID>
442662

> <PUBCHEM_COMPOUND_CANONICALIZED>
1

> <PUBCHEM_CACTVS_COMPLEXITY>
549

> <PUBCHEM_CACTVS_HBOND_ACCEPTOR>
8

> <PUBCHEM_CACTVS_HBOND_DONOR>
3

> <PUBCHEM_CACTVS_ROTATABLE_BOND>
4

> <PUBCHEM_CACTVS_SUBSKEYS>
AAADceB4PAAAAAAAAAAAAAAAAAAAAAAAAAAwYIAAAAAAAACBQAAAGgAACAAADASAmAIyBoAABgCIAqBSAAACCAAkIAAIiAEGiMgNJzaGNRqCeWOl4BULuQfK7LzOIQABCAAIQABCAAIQABCAAAAAAAAAAA==

> <PUBCHEM_IUPAC_OPENEYE_NAME>
5,6-dihydroxy-2-(4-hydroxy-3-methoxy-phenyl)-7,8-dimethoxy-chromen-4-one

> <PUBCHEM_IUPAC_CAS_NAME>
5,6-dihydroxy-2-(4-hydroxy-3-methoxyphenyl)-7,8-dimethoxy-1-benzopyran-4-one

> <PUBCHEM_IUPAC_NAME>
5,6-dihydroxy-2-(4-hydroxy-3-methoxyphenyl)-7,8-dimethoxychromen-4-one

> <PUBCHEM_IUPAC_SYSTEMATIC_NAME>
7,8-dimethoxy-2-(3-methoxy-4-oxidanyl-phenyl)-5,6-bis(oxidanyl)chromen-4-one

> <PUBCHEM_IUPAC_TRADITIONAL_NAME>
5,6-dihydroxy-2-(4-hydroxy-3-methoxy-phenyl)-7,8-dimethoxy-chromone

> <PUBCHEM_IUPAC_INCHI>
InChI=1S/C18H16O8/c1-23-12-6-8(4-5-9(12)19)11-7-10(20)13-14(21)15(22)17(24-2)18(25-3)16(13)26-11/h4-7,19,21-22H,1-3H3

> <PUBCHEM_IUPAC_INCHIKEY>
BAIRXMVFPKLWSE-UHFFFAOYSA-N

> <PUBCHEM_XLOGP3_AA>
2.6

> <PUBCHEM_EXACT_MASS>
360.084517

> <PUBCHEM_MOLECULAR_FORMULA>
C18H16O8

> <PUBCHEM_MOLECULAR_WEIGHT>
360.31484

> <PUBCHEM_OPENEYE_CAN_SMILES>
COC1=C(C=CC(=C1)C2=CC(=O)C3=C(O2)C(=C(C(=C3O)O)OC)OC)O

> <PUBCHEM_OPENEYE_ISO_SMILES>
COC1=C(C=CC(=C1)C2=CC(=O)C3=C(O2)C(=C(C(=C3O)O)OC)OC)O

> <PUBCHEM_CACTVS_TPSA>
115

> <PUBCHEM_MONOISOTOPIC_WEIGHT>
360.084517

> <PUBCHEM_TOTAL_CHARGE>
0

> <PUBCHEM_HEAVY_ATOM_COUNT>
26

> <PUBCHEM_ATOM_DEF_STEREO_COUNT>
0

> <PUBCHEM_ATOM_UDEF_STEREO_COUNT>
0

> <PUBCHEM_BOND_DEF_STEREO_COUNT>
0

> <PUBCHEM_BOND_UDEF_STEREO_COUNT>
0

> <PUBCHEM_ISOTOPIC_ATOM_COUNT>
0

> <PUBCHEM_COMPONENT_COUNT>
1

> <PUBCHEM_CACTVS_TAUTO_COUNT>
46

> <PUBCHEM_COORDINATE_TYPE>
1
5
255

> <PUBCHEM_BONDANNOTATIONS>
1  10  8
1  11  8
10  12  8
11  17  8
12  15  8
13  18  8
14  17  8
15  18  8
16  19  8
16  20  8
19  21  8
20  22  8
21  23  8
22  23  8
9  10  8
9  13  8
9  14  8

$$$$

