   Chemical and Physical Properties References

   [1]USDA ARS - USDA chemical properties
   from [2]ChemIDplus

   Color/Form

     * WHITE TRANSLUCENT CRYSTALS /HEMIHYDRATE/
     * 75% COMMERCIAL GRADE IS A VERY PALE YELLOW, SYRUPY LIQ /COMMERCIAL
       GRADE/
     * Exist only in solution
     * White, crystalline solid

   from [3]HSDB

   Melting Point
        35 deg C
   from [4]HSDB

   Corrosivity
        IT WILL SLOWLY ATTACK MILD STEEL & REACTS WITH GALVANIZED METALS
   AND BRASS
   from [5]HSDB

   Density/Specific Gravity
        Approx 2.2
   from [6]HSDB

   Dissociation Constants
        PK2= 7.089 +/- 0.01 @ 25 DEG C
   from [7]HSDB

   pH
        WEAK ACIDIC PROPERTIES.
   from [8]HSDB

   Solubilities

     * 302 G/100 CC OF WATER @ 12.5 DEG C /HEMIHYDRATE/
     * water solubility = 5.9X10+5 mg/l [Shiu WY et al; Rev Environ Contam
       Toxicol 116: 15-187 (1990)] [9]PubMed Abstract

   from [10]HSDB

   Other Chemical/Physical Properties

     * Exists only as the hemihydrate
     * Freely sol in alcohol, glycerol /Hemihydrate/
     * Boiling point (-H2O): 160 deg C /Hemihydrate/
     * Releases water when heated above 160 deg C forming arsenic
       pentoxide

   from [11]HSDB

   Computed Properties
   Molecular Weight                  141.94302 [g/mol]
   Molecular Formula                 AsH[3]O[4]
   H-Bond Donor                      3
   H-Bond Acceptor                   4
   Rotatable Bond Count              0
   Exact Mass                        141.92473
   MonoIsotopic Mass                 141.92473
   Topological Polar Surface Area    77.8
   Heavy Atom Count                  5
   Formal Charge                     0
   Complexity                        49.8
   Isotope Atom Count                0
   Defined Atom Stereocenter Count   0
   Undefined Atom Stereocenter Count 0
   Defined Bond Stereocenter Count   0
   Undefined Bond Stereocenter Count 0
   Covalently-Bonded Unit Count      1

References

   1. http://www.ars.usda.gov/SP2UserFiles/ad_hoc/12755100DatabaseFiles/PesticidePropertiesDatabase/IndividualPesticideFiles/ARSENIC_ACID.TXT
   2. http://chem.sis.nlm.nih.gov/chemidplus/
   3. http://toxnet.nlm.nih.gov/cgi-bin/sis/search/r?dbs+hsdb:@term+@rn+@rel+7778-39-4
   4. http://toxnet.nlm.nih.gov/cgi-bin/sis/search/r?dbs+hsdb:@term+@rn+@rel+7778-39-4
   5. http://toxnet.nlm.nih.gov/cgi-bin/sis/search/r?dbs+hsdb:@term+@rn+@rel+7778-39-4
   6. http://toxnet.nlm.nih.gov/cgi-bin/sis/search/r?dbs+hsdb:@term+@rn+@rel+7778-39-4
   7. http://toxnet.nlm.nih.gov/cgi-bin/sis/search/r?dbs+hsdb:@term+@rn+@rel+7778-39-4
   8. http://toxnet.nlm.nih.gov/cgi-bin/sis/search/r?dbs+hsdb:@term+@rn+@rel+7778-39-4
   9. http://www.ncbi.nlm.nih.gov/entrez/query.fcgi?cmd=Retrieve&db=pubmed&dopt=Abstract&list_uids=2205893
  10. http://toxnet.nlm.nih.gov/cgi-bin/sis/search/r?dbs+hsdb:@term+@rn+@rel+7778-39-4
  11. http://toxnet.nlm.nih.gov/cgi-bin/sis/search/r?dbs+hsdb:@term+@rn+@rel+7778-39-4
