13286
  -OEChem-06261208312D

 33 33  0     0  0  0  0  0  0999 V2000
    6.0010    2.9050    0.0000 O   0  0  0  0  0  0  0  0  0  0  0  0
    7.7331   -0.0950    0.0000 O   0  0  0  0  0  0  0  0  0  0  0  0
    4.2690   -0.0950    0.0000 O   0  0  0  0  0  0  0  0  0  0  0  0
    9.4651    1.9050    0.0000 O   0  0  0  0  0  0  0  0  0  0  0  0
    2.5369    1.9050    0.0000 O   0  0  0  0  0  0  0  0  0  0  0  0
    5.1350   -2.5950    0.0000 O   0  0  0  0  0  0  0  0  0  0  0  0
    6.8671    1.4050    0.0000 N   0  0  0  0  0  0  0  0  0  0  0  0
    5.1350    1.4050    0.0000 N   0  0  0  0  0  0  0  0  0  0  0  0
    6.0010   -0.0950    0.0000 N   0  0  0  0  0  0  0  0  0  0  0  0
    6.0010    1.9050    0.0000 C   0  0  0  0  0  0  0  0  0  0  0  0
    6.8671    0.4050    0.0000 C   0  0  0  0  0  0  0  0  0  0  0  0
    5.1350    0.4050    0.0000 C   0  0  0  0  0  0  0  0  0  0  0  0
    7.7331    1.9050    0.0000 C   0  0  0  0  0  0  0  0  0  0  0  0
    4.2690    1.9050    0.0000 C   0  0  0  0  0  0  0  0  0  0  0  0
    6.0010   -1.0950    0.0000 C   0  0  0  0  0  0  0  0  0  0  0  0
    8.5991    1.4050    0.0000 C   0  0  0  0  0  0  0  0  0  0  0  0
    3.4030    1.4050    0.0000 C   0  0  0  0  0  0  0  0  0  0  0  0
    5.1350   -1.5950    0.0000 C   0  0  0  0  0  0  0  0  0  0  0  0
    8.1316    2.3800    0.0000 H   0  0  0  0  0  0  0  0  0  0  0  0
    7.3346    2.3800    0.0000 H   0  0  0  0  0  0  0  0  0  0  0  0
    4.6675    2.3800    0.0000 H   0  0  0  0  0  0  0  0  0  0  0  0
    3.8705    2.3800    0.0000 H   0  0  0  0  0  0  0  0  0  0  0  0
    6.2131   -1.6776    0.0000 H   0  0  0  0  0  0  0  0  0  0  0  0
    6.6116   -0.9873    0.0000 H   0  0  0  0  0  0  0  0  0  0  0  0
    4.9230   -1.0124    0.0000 H   0  0  0  0  0  0  0  0  0  0  0  0
    4.5244   -1.7027    0.0000 H   0  0  0  0  0  0  0  0  0  0  0  0
    3.0044    0.9301    0.0000 H   0  0  0  0  0  0  0  0  0  0  0  0
    3.8015    0.9301    0.0000 H   0  0  0  0  0  0  0  0  0  0  0  0
    8.2006    0.9301    0.0000 H   0  0  0  0  0  0  0  0  0  0  0  0
    8.9976    0.9301    0.0000 H   0  0  0  0  0  0  0  0  0  0  0  0
   10.0021    1.5950    0.0000 H   0  0  0  0  0  0  0  0  0  0  0  0
    2.0000    1.5950    0.0000 H   0  0  0  0  0  0  0  0  0  0  0  0
    4.5981   -2.9050    0.0000 H   0  0  0  0  0  0  0  0  0  0  0  0
  1 10  2  0  0  0  0
  2 11  2  0  0  0  0
  3 12  2  0  0  0  0
  4 16  1  0  0  0  0
  4 31  1  0  0  0  0
  5 17  1  0  0  0  0
  5 32  1  0  0  0  0
  6 18  1  0  0  0  0
  6 33  1  0  0  0  0
  7 10  1  0  0  0  0
  7 11  1  0  0  0  0
  7 13  1  0  0  0  0
  8 10  1  0  0  0  0
  8 12  1  0  0  0  0
  8 14  1  0  0  0  0
  9 11  1  0  0  0  0
  9 12  1  0  0  0  0
  9 15  1  0  0  0  0
 13 16  1  0  0  0  0
 13 19  1  0  0  0  0
 13 20  1  0  0  0  0
 14 17  1  0  0  0  0
 14 21  1  0  0  0  0
 14 22  1  0  0  0  0
 15 18  1  0  0  0  0
 15 23  1  0  0  0  0
 15 24  1  0  0  0  0
 16 29  1  0  0  0  0
 16 30  1  0  0  0  0
 17 27  1  0  0  0  0
 17 28  1  0  0  0  0
 18 25  1  0  0  0  0
 18 26  1  0  0  0  0
M  END
> <PUBCHEM_COMPOUND_CID>
13286

> <PUBCHEM_COMPOUND_CANONICALIZED>
1

> <PUBCHEM_CACTVS_COMPLEXITY>
271

> <PUBCHEM_CACTVS_HBOND_ACCEPTOR>
6

> <PUBCHEM_CACTVS_HBOND_DONOR>
3

> <PUBCHEM_CACTVS_ROTATABLE_BOND>
6

> <PUBCHEM_CACTVS_SUBSKEYS>
AAADccBzOAAAAAAAAAAAAAAAAAAAAAAAAAAsAAAAAAAAAAAAAAAAHgAACAAAAADhgAYBAAMAAgAIAAAAEAAAAAAAAAAAAAAIAACCEAAAAAAAAAAIByIQAAAAAAAAAAAAAAAAAAAAAAAAAAAAAAAAAAAAAA==

> <PUBCHEM_IUPAC_OPENEYE_NAME>
1,3,5-tris(2-hydroxyethyl)-1,3,5-triazinane-2,4,6-trione

> <PUBCHEM_IUPAC_CAS_NAME>
1,3,5-tris(2-hydroxyethyl)-1,3,5-triazinane-2,4,6-trione

> <PUBCHEM_IUPAC_NAME>
1,3,5-tris(2-hydroxyethyl)-1,3,5-triazinane-2,4,6-trione

> <PUBCHEM_IUPAC_SYSTEMATIC_NAME>
1,3,5-tris(2-hydroxyethyl)-1,3,5-triazinane-2,4,6-trione

> <PUBCHEM_IUPAC_TRADITIONAL_NAME>
1,3,5-tris(2-hydroxyethyl)isocyanuric acid

> <PUBCHEM_IUPAC_INCHI>
InChI=1S/C9H15N3O6/c13-4-1-10-7(16)11(2-5-14)9(18)12(3-6-15)8(10)17/h13-15H,1-6H2

> <PUBCHEM_IUPAC_INCHIKEY>
BPXVHIRIPLPOPT-UHFFFAOYSA-N

> <PUBCHEM_XLOGP3_AA>
-2.7

> <PUBCHEM_EXACT_MASS>
261.096085

> <PUBCHEM_MOLECULAR_FORMULA>
C9H15N3O6

> <PUBCHEM_MOLECULAR_WEIGHT>
261.2319

> <PUBCHEM_OPENEYE_CAN_SMILES>
C(CO)N1C(=O)N(C(=O)N(C1=O)CCO)CCO

> <PUBCHEM_OPENEYE_ISO_SMILES>
C(CO)N1C(=O)N(C(=O)N(C1=O)CCO)CCO

> <PUBCHEM_CACTVS_TPSA>
122

> <PUBCHEM_MONOISOTOPIC_WEIGHT>
261.096085

> <PUBCHEM_TOTAL_CHARGE>
0

> <PUBCHEM_HEAVY_ATOM_COUNT>
18

> <PUBCHEM_ATOM_DEF_STEREO_COUNT>
0

> <PUBCHEM_ATOM_UDEF_STEREO_COUNT>
0

> <PUBCHEM_BOND_DEF_STEREO_COUNT>
0

> <PUBCHEM_BOND_UDEF_STEREO_COUNT>
0

> <PUBCHEM_ISOTOPIC_ATOM_COUNT>
0

> <PUBCHEM_COMPONENT_COUNT>
1

> <PUBCHEM_CACTVS_TAUTO_COUNT>
1

> <PUBCHEM_COORDINATE_TYPE>
1
5
255

> <PUBCHEM_BONDANNOTATIONS>
7  10  8
7  11  8
8  10  8
8  12  8
9  11  8
9  12  8

$$$$

