   Color/Form

     * COLORLESS OR WHITE PLATE-LIKE CRYSTALS OR WHITE CRYSTALLINE POWDER
     * Crystals

   from [1]HSDB

   Odor
        ODORLESS OR SLIGHT ODOR
   from [2]HSDB

   Melting Point
        212-216 deg C
   from [3]HSDB

   Dissociation Constants
        pKa= 9.2 @ 25 deg C
   from [4]HSDB

   pH
        pH of aq soln between 4.5 and 5.5
   from [5]HSDB

   Solubilities

     * 1 g in 2.5 ml water; 1 g in 12 ml ethanol
     * Practically insoluble in ether, benzene, chloroform.
     * ALMOST INSOL IN CHLOROFORM & ETHER
     * Very soluble in water; practically insoluble in ... benzene ...

   from [6]HSDB

   Spectral Properties
        INDEX OF REFRACTION: 1.5204
   from [7]HSDB

   Computed Properties
   Molecular Weight                  211.25758 [g/mol]
   Molecular Formula                 C[11]H[17]NO[3]
   XLogP3-AA                         0.5
   H-Bond Donor                      2
   H-Bond Acceptor                   4
   Rotatable Bond Count              4
   Exact Mass                        211.120843
   MonoIsotopic Mass                 211.120843
   Topological Polar Surface Area    64.7
   Heavy Atom Count                  15
   Formal Charge                     0
   Complexity                        189
   Isotope Atom Count                0
   Defined Atom Stereocenter Count   0
   Undefined Atom Stereocenter Count 2
   Defined Bond Stereocenter Count   0
   Undefined Bond Stereocenter Count 0
   Covalently-Bonded Unit Count      1
   Feature 3D Acceptor Count         3
   Feature 3D Donor Count            2
   Feature 3D Cation Count           1
   Feature 3D Ring Count             1
   Effective Rotor Count             4
   Conformer Sampling RMSD           0.6
   CID Conformer Count               [8]45

References

   1. http://toxnet.nlm.nih.gov/cgi-bin/sis/search/r?dbs+hsdb:@term+@rn+@rel+61-16-5
   2. http://toxnet.nlm.nih.gov/cgi-bin/sis/search/r?dbs+hsdb:@term+@rn+@rel+61-16-5
   3. http://toxnet.nlm.nih.gov/cgi-bin/sis/search/r?dbs+hsdb:@term+@rn+@rel+61-16-5
   4. http://toxnet.nlm.nih.gov/cgi-bin/sis/search/r?dbs+hsdb:@term+@rn+@rel+61-16-5
   5. http://toxnet.nlm.nih.gov/cgi-bin/sis/search/r?dbs+hsdb:@term+@rn+@rel+61-16-5
   6. http://toxnet.nlm.nih.gov/cgi-bin/sis/search/r?dbs+hsdb:@term+@rn+@rel+61-16-5
   7. http://toxnet.nlm.nih.gov/cgi-bin/sis/search/r?dbs+hsdb:@term+@rn+@rel+61-16-5
   8. http://pubchem.ncbi.nlm.nih.gov/vw3d/vw3d.cgi?cid=6082
