164874
  -OEChem-07051212512D

 83 87  0     1  0  0  0  0  0999 V2000
   11.0476    1.4754    0.0000 O   0  0  0  0  0  0  0  0  0  0  0  0
    6.5251    0.1511    0.0000 C   0  0  1  0  0  0  0  0  0  0  0  0
    5.6591   -0.3489    0.0000 C   0  0  1  0  0  0  0  0  0  0  0  0
    6.5251    1.1511    0.0000 C   0  0  1  0  0  0  0  0  0  0  0  0
    4.7931    0.1511    0.0000 C   0  0  1  0  0  0  0  0  0  0  0  0
    7.4191    1.6858    0.0000 C   0  0  2  0  0  0  0  0  0  0  0  0
    3.8831   -0.3557    0.0000 C   0  0  2  0  0  0  0  0  0  0  0  0
    8.3252    1.1719    0.0000 C   0  0  1  0  0  0  0  0  0  0  0  0
    3.8751   -1.3973    0.0000 C   0  0  1  0  0  0  0  0  0  0  0  0
    7.4191   -0.3835    0.0000 C   0  0  0  0  0  0  0  0  0  0  0  0
    5.6591    1.6511    0.0000 C   0  0  0  0  0  0  0  0  0  0  0  0
    4.7931    1.1511    0.0000 C   0  0  0  0  0  0  0  0  0  0  0  0
    5.6752   -1.3904    0.0000 C   0  0  0  0  0  0  0  0  0  0  0  0
    8.3252    0.1303    0.0000 C   0  0  0  0  0  0  0  0  0  0  0  0
    9.0875    1.8727    0.0000 C   0  0  2  0  0  0  0  0  0  0  0  0
    7.6292    2.6997    0.0000 C   0  0  0  0  0  0  0  0  0  0  0  0
    4.7771   -1.9181    0.0000 C   0  0  0  0  0  0  0  0  0  0  0  0
    2.9396   -1.9470    0.0000 C   0  0  0  0  0  0  0  0  0  0  0  0
    6.8672   -0.7885    0.0000 C   0  0  0  0  0  0  0  0  0  0  0  0
    6.3019   -1.1149    0.0000 C   0  0  0  0  0  0  0  0  0  0  0  0
    2.9562    0.2084    0.0000 C   0  0  0  0  0  0  0  0  0  0  0  0
    8.6582    2.8150    0.0000 C   0  0  0  0  0  0  0  0  0  0  0  0
    6.5492    2.1791    0.0000 C   0  0  0  0  0  0  0  0  0  0  0  0
    3.8908    0.6442    0.0000 C   0  0  0  0  0  0  0  0  0  0  0  0
    2.0000   -1.4046    0.0000 C   0  0  0  0  0  0  0  0  0  0  0  0
    2.0084   -0.3196    0.0000 C   0  0  0  0  0  0  0  0  0  0  0  0
   10.0675    1.6740    0.0000 C   0  0  0  0  0  0  0  0  0  0  0  0
    2.4430   -2.8150    0.0000 C   0  0  0  0  0  0  0  0  0  0  0  0
    3.4430   -2.8111    0.0000 C   0  0  0  0  0  0  0  0  0  0  0  0
   10.2662    2.6541    0.0000 C   0  0  0  0  0  0  0  0  0  0  0  0
    9.8689    0.6940    0.0000 C   0  0  0  0  0  0  0  0  0  0  0  0
    6.5186    2.0011    0.0000 H   0  0  0  0  0  0  0  0  0  0  0  0
    5.5292    0.5761    0.0000 H   0  0  0  0  0  0  0  0  0  0  0  0
    9.1034    0.8302    0.0000 H   0  0  0  0  0  0  0  0  0  0  0  0
    3.8783   -2.2473    0.0000 H   0  0  0  0  0  0  0  0  0  0  0  0
    7.0145   -0.8533    0.0000 H   0  0  0  0  0  0  0  0  0  0  0  0
    7.8127   -0.8626    0.0000 H   0  0  0  0  0  0  0  0  0  0  0  0
    6.0576    2.1261    0.0000 H   0  0  0  0  0  0  0  0  0  0  0  0
    5.2606    2.1261    0.0000 H   0  0  0  0  0  0  0  0  0  0  0  0
    4.5810    1.7337    0.0000 H   0  0  0  0  0  0  0  0  0  0  0  0
    4.1825    1.0435    0.0000 H   0  0  0  0  0  0  0  0  0  0  0  0
    5.8932   -1.9708    0.0000 H   0  0  0  0  0  0  0  0  0  0  0  0
    6.2843   -1.2749    0.0000 H   0  0  0  0  0  0  0  0  0  0  0  0
    8.5342   -0.4534    0.0000 H   0  0  0  0  0  0  0  0  0  0  0  0
    8.9360    0.2364    0.0000 H   0  0  0  0  0  0  0  0  0  0  0  0
    9.6164    2.5381    0.0000 H   0  0  0  0  0  0  0  0  0  0  0  0
    7.6253    3.3197    0.0000 H   0  0  0  0  0  0  0  0  0  0  0  0
    7.0122    2.7610    0.0000 H   0  0  0  0  0  0  0  0  0  0  0  0
    4.3798   -2.3941    0.0000 H   0  0  0  0  0  0  0  0  0  0  0  0
    5.1781   -2.3910    0.0000 H   0  0  0  0  0  0  0  0  0  0  0  0
    6.2847   -1.0006    0.0000 H   0  0  0  0  0  0  0  0  0  0  0  0
    7.0794   -1.3711    0.0000 H   0  0  0  0  0  0  0  0  0  0  0  0
    7.4498   -0.5764    0.0000 H   0  0  0  0  0  0  0  0  0  0  0  0
    5.8270   -1.5134    0.0000 H   0  0  0  0  0  0  0  0  0  0  0  0
    6.7004   -1.5899    0.0000 H   0  0  0  0  0  0  0  0  0  0  0  0
    6.7768   -0.7164    0.0000 H   0  0  0  0  0  0  0  0  0  0  0  0
    3.3645    0.6750    0.0000 H   0  0  0  0  0  0  0  0  0  0  0  0
    2.5663    0.6904    0.0000 H   0  0  0  0  0  0  0  0  0  0  0  0
    9.2463    3.0113    0.0000 H   0  0  0  0  0  0  0  0  0  0  0  0
    8.5248    3.4205    0.0000 H   0  0  0  0  0  0  0  0  0  0  0  0
    6.8551    2.7184    0.0000 H   0  0  0  0  0  0  0  0  0  0  0  0
    6.0099    2.4850    0.0000 H   0  0  0  0  0  0  0  0  0  0  0  0
    6.2434    1.6398    0.0000 H   0  0  0  0  0  0  0  0  0  0  0  0
    4.5108    0.6395    0.0000 H   0  0  0  0  0  0  0  0  0  0  0  0
    3.8956    1.2642    0.0000 H   0  0  0  0  0  0  0  0  0  0  0  0
    3.2708    0.6490    0.0000 H   0  0  0  0  0  0  0  0  0  0  0  0
    1.3900   -1.2938    0.0000 H   0  0  0  0  0  0  0  0  0  0  0  0
    1.7864   -1.9866    0.0000 H   0  0  0  0  0  0  0  0  0  0  0  0
    1.8038    0.2657    0.0000 H   0  0  0  0  0  0  0  0  0  0  0  0
    1.3967   -0.4210    0.0000 H   0  0  0  0  0  0  0  0  0  0  0  0
    1.9048   -2.5071    0.0000 H   0  0  0  0  0  0  0  0  0  0  0  0
    2.1350   -3.3531    0.0000 H   0  0  0  0  0  0  0  0  0  0  0  0
    2.9811   -3.1229    0.0000 H   0  0  0  0  0  0  0  0  0  0  0  0
    2.9072   -3.1232    0.0000 H   0  0  0  0  0  0  0  0  0  0  0  0
    3.7550   -3.3469    0.0000 H   0  0  0  0  0  0  0  0  0  0  0  0
    3.9787   -2.4991    0.0000 H   0  0  0  0  0  0  0  0  0  0  0  0
   10.8738    2.5309    0.0000 H   0  0  0  0  0  0  0  0  0  0  0  0
   10.3894    3.2617    0.0000 H   0  0  0  0  0  0  0  0  0  0  0  0
    9.6586    2.7773    0.0000 H   0  0  0  0  0  0  0  0  0  0  0  0
    9.2612    0.8171    0.0000 H   0  0  0  0  0  0  0  0  0  0  0  0
    9.7457    0.0863    0.0000 H   0  0  0  0  0  0  0  0  0  0  0  0
   10.4765    0.5708    0.0000 H   0  0  0  0  0  0  0  0  0  0  0  0
   11.4581    1.9400    0.0000 H   0  0  0  0  0  0  0  0  0  0  0  0
  1 27  1  0  0  0  0
  1 83  1  0  0  0  0
  2  3  1  0  0  0  0
  2  4  1  0  0  0  0
  2 10  1  0  0  0  0
  2 19  1  6  0  0  0
  3  5  1  0  0  0  0
  3 13  1  0  0  0  0
  3 20  1  1  0  0  0
  4  6  1  0  0  0  0
  4 11  1  0  0  0  0
  4 32  1  1  0  0  0
  5  7  1  0  0  0  0
  5 12  1  0  0  0  0
  5 33  1  6  0  0  0
  6  8  1  0  0  0  0
  6 16  1  0  0  0  0
  6 23  1  6  0  0  0
  7  9  1  0  0  0  0
  7 21  1  0  0  0  0
  7 24  1  1  0  0  0
  8 14  1  0  0  0  0
  8 15  1  0  0  0  0
  8 34  1  1  0  0  0
  9 17  1  0  0  0  0
  9 18  1  0  0  0  0
  9 35  1  6  0  0  0
 10 14  1  0  0  0  0
 10 36  1  0  0  0  0
 10 37  1  0  0  0  0
 11 12  1  0  0  0  0
 11 38  1  0  0  0  0
 11 39  1  0  0  0  0
 12 40  1  0  0  0  0
 12 41  1  0  0  0  0
 13 17  1  0  0  0  0
 13 42  1  0  0  0  0
 13 43  1  0  0  0  0
 14 44  1  0  0  0  0
 14 45  1  0  0  0  0
 15 22  1  0  0  0  0
 15 27  1  0  0  0  0
 15 46  1  1  0  0  0
 16 22  1  0  0  0  0
 16 47  1  0  0  0  0
 16 48  1  0  0  0  0
 17 49  1  0  0  0  0
 17 50  1  0  0  0  0
 18 25  1  0  0  0  0
 18 28  1  0  0  0  0
 18 29  1  0  0  0  0
 19 51  1  0  0  0  0
 19 52  1  0  0  0  0
 19 53  1  0  0  0  0
 20 54  1  0  0  0  0
 20 55  1  0  0  0  0
 20 56  1  0  0  0  0
 21 26  1  0  0  0  0
 21 57  1  0  0  0  0
 21 58  1  0  0  0  0
 22 59  1  0  0  0  0
 22 60  1  0  0  0  0
 23 61  1  0  0  0  0
 23 62  1  0  0  0  0
 23 63  1  0  0  0  0
 24 64  1  0  0  0  0
 24 65  1  0  0  0  0
 24 66  1  0  0  0  0
 25 26  1  0  0  0  0
 25 67  1  0  0  0  0
 25 68  1  0  0  0  0
 26 69  1  0  0  0  0
 26 70  1  0  0  0  0
 27 30  1  0  0  0  0
 27 31  1  0  0  0  0
 28 71  1  0  0  0  0
 28 72  1  0  0  0  0
 28 73  1  0  0  0  0
 29 74  1  0  0  0  0
 29 75  1  0  0  0  0
 29 76  1  0  0  0  0
 30 77  1  0  0  0  0
 30 78  1  0  0  0  0
 30 79  1  0  0  0  0
 31 80  1  0  0  0  0
 31 81  1  0  0  0  0
 31 82  1  0  0  0  0
M  END
> <PUBCHEM_COMPOUND_CID>
164874

> <PUBCHEM_COMPOUND_CANONICALIZED>
1

> <PUBCHEM_CACTVS_COMPLEXITY>
737

> <PUBCHEM_CACTVS_HBOND_ACCEPTOR>
1

> <PUBCHEM_CACTVS_HBOND_DONOR>
1

> <PUBCHEM_CACTVS_ROTATABLE_BOND>
1

> <PUBCHEM_CACTVS_SUBSKEYS>
AAADcfB4IAAAAAAAAAAAAAAAAAAAAYAAAAAwYMGAAAAAAGDAAAAAGgAACAAAD0SAgAACAAAAAgAAAAAAAAAAAAAAAAAAAAAAAAAAAAIAAAAAQAAEAAAAAAGAwPAPgAAAAAAAAACAAAQAACAAAQAACAAAAA==

> <PUBCHEM_IUPAC_OPENEYE_NAME>
2-[(3S,3aS,5aR,5bR,7aS,11aS,11bR,13aR,13bS)-5a,5b,8,8,11a,13b-hexamethyl-1,2,3,3a,4,5,6,7,7a,9,10,11,11b,12,13,13a-hexadecahydrocyclopenta[a]chrysen-3-yl]propan-2-ol

> <PUBCHEM_IUPAC_CAS_NAME>
2-[(3S,3aS,5aR,5bR,7aS,11aS,11bR,13aR,13bS)-5a,5b,8,8,11a,13b-hexamethyl-1,2,3,3a,4,5,6,7,7a,9,10,11,11b,12,13,13a-hexadecahydrocyclopenta[a]chrysen-3-yl]-2-propanol

> <PUBCHEM_IUPAC_NAME>
2-[(3S,3aS,5aR,5bR,7aS,11aS,11bR,13aR,13bS)-5a,5b,8,8,11a,13b-hexamethyl-1,2,3,3a,4,5,6,7,7a,9,10,11,11b,12,13,13a-hexadecahydrocyclopenta[a]chrysen-3-yl]propan-2-ol

> <PUBCHEM_IUPAC_SYSTEMATIC_NAME>
2-[(3S,3aS,5aR,5bR,7aS,11aS,11bR,13aR,13bS)-5a,5b,8,8,11a,13b-hexamethyl-1,2,3,3a,4,5,6,7,7a,9,10,11,11b,12,13,13a-hexadecahydrocyclopenta[a]chrysen-3-yl]propan-2-ol

> <PUBCHEM_IUPAC_TRADITIONAL_NAME>
2-[(3S,3aS,5aR,5bR,7aS,11aS,11bR,13aR,13bS)-5a,5b,8,8,11a,13b-hexamethyl-1,2,3,3a,4,5,6,7,7a,9,10,11,11b,12,13,13a-hexadecahydrocyclopenta[a]chrysen-3-yl]propan-2-ol

> <PUBCHEM_IUPAC_INCHI>
InChI=1S/C30H52O/c1-25(2)15-9-16-28(6)22(25)14-19-30(8)24(28)11-10-23-27(5)17-12-20(26(3,4)31)21(27)13-18-29(23,30)7/h20-24,31H,9-19H2,1-8H3/t20-,21-,22-,23+,24+,27-,28-,29+,30+/m0/s1

> <PUBCHEM_IUPAC_INCHIKEY>
PNJBOAVCVAVRGR-UDCAXGDQSA-N

> <PUBCHEM_XLOGP3_AA>
9.9

> <PUBCHEM_EXACT_MASS>
428.401816

> <PUBCHEM_MOLECULAR_FORMULA>
C30H52O

> <PUBCHEM_MOLECULAR_WEIGHT>
428.73328

> <PUBCHEM_OPENEYE_CAN_SMILES>
CC1(CCCC2(C1CCC3(C2CCC4C3(CCC5C4(CCC5C(C)(C)O)C)C)C)C)C

> <PUBCHEM_OPENEYE_ISO_SMILES>
C[C@]12CC[C@@H]([C@@H]1CC[C@@]3([C@@H]2CC[C@H]4[C@]3(CC[C@@H]5[C@@]4(CCCC5(C)C)C)C)C)C(C)(C)O

> <PUBCHEM_CACTVS_TPSA>
20.2

> <PUBCHEM_MONOISOTOPIC_WEIGHT>
428.401816

> <PUBCHEM_TOTAL_CHARGE>
0

> <PUBCHEM_HEAVY_ATOM_COUNT>
31

> <PUBCHEM_ATOM_DEF_STEREO_COUNT>
9

> <PUBCHEM_ATOM_UDEF_STEREO_COUNT>
0

> <PUBCHEM_BOND_DEF_STEREO_COUNT>
0

> <PUBCHEM_BOND_UDEF_STEREO_COUNT>
0

> <PUBCHEM_ISOTOPIC_ATOM_COUNT>
0

> <PUBCHEM_COMPONENT_COUNT>
1

> <PUBCHEM_CACTVS_TAUTO_COUNT>
1

> <PUBCHEM_COORDINATE_TYPE>
1
5
255

> <PUBCHEM_BONDANNOTATIONS>
15  46  5
2  19  6
3  20  5
4  32  5
5  33  6
6  23  6
7  24  5
8  34  5
9  35  6

$$$$

