6430770
  -OEChem-07051213022D

 52 52  0     1  0  0  0  0  0999 V2000
    5.6200    1.2990    0.0000 C   0  0  3  0  0  0  0  0  0  0  0  0
    6.1200    2.1651    0.0000 C   0  0  0  0  0  0  0  0  0  0  0  0
    6.1200    0.4330    0.0000 C   0  0  0  0  0  0  0  0  0  0  0  0
    7.1200    0.4330    0.0000 C   0  0  0  0  0  0  0  0  0  0  0  0
    4.6200    1.2990    0.0000 C   0  0  0  0  0  0  0  0  0  0  0  0
    5.6200    3.0311    0.0000 C   0  0  0  0  0  0  0  0  0  0  0  0
    7.1200    2.1651    0.0000 C   0  0  0  0  0  0  0  0  0  0  0  0
    7.6200   -0.4330    0.0000 C   0  0  0  0  0  0  0  0  0  0  0  0
    4.1200    0.4330    0.0000 C   0  0  0  0  0  0  0  0  0  0  0  0
    7.1200   -1.2990    0.0000 C   0  0  0  0  0  0  0  0  0  0  0  0
    6.1200   -1.2990    0.0000 C   0  0  0  0  0  0  0  0  0  0  0  0
    8.6200   -0.4330    0.0000 C   0  0  0  0  0  0  0  0  0  0  0  0
    5.6200   -2.1651    0.0000 C   0  0  0  0  0  0  0  0  0  0  0  0
    3.1200    0.4330    0.0000 C   0  0  0  0  0  0  0  0  0  0  0  0
    4.6200   -2.1651    0.0000 C   0  0  0  0  0  0  0  0  0  0  0  0
    3.1200   -1.2990    0.0000 C   0  0  0  0  0  0  0  0  0  0  0  0
    2.6200   -0.4330    0.0000 C   0  0  0  0  0  0  0  0  0  0  0  0
    4.1200   -1.2990    0.0000 C   0  0  0  0  0  0  0  0  0  0  0  0
    2.6200    1.2990    0.0000 C   0  0  0  0  0  0  0  0  0  0  0  0
    4.1200   -3.0311    0.0000 C   0  0  0  0  0  0  0  0  0  0  0  0
    6.2400    1.2990    0.0000 H   0  0  0  0  0  0  0  0  0  0  0  0
    6.4300    2.7020    0.0000 H   0  0  0  0  0  0  0  0  0  0  0  0
    5.5374    0.2210    0.0000 H   0  0  0  0  0  0  0  0  0  0  0  0
    6.2277   -0.1776    0.0000 H   0  0  0  0  0  0  0  0  0  0  0  0
    7.7026    0.6451    0.0000 H   0  0  0  0  0  0  0  0  0  0  0  0
    7.0123    1.0436    0.0000 H   0  0  0  0  0  0  0  0  0  0  0  0
    4.3100    1.8360    0.0000 H   0  0  0  0  0  0  0  0  0  0  0  0
    7.1200    1.5451    0.0000 H   0  0  0  0  0  0  0  0  0  0  0  0
    7.7400    2.1651    0.0000 H   0  0  0  0  0  0  0  0  0  0  0  0
    7.1200    2.7851    0.0000 H   0  0  0  0  0  0  0  0  0  0  0  0
    6.1569    3.3411    0.0000 H   0  0  0  0  0  0  0  0  0  0  0  0
    5.3100    3.5680    0.0000 H   0  0  0  0  0  0  0  0  0  0  0  0
    5.0831    2.7211    0.0000 H   0  0  0  0  0  0  0  0  0  0  0  0
    7.4300   -1.8360    0.0000 H   0  0  0  0  0  0  0  0  0  0  0  0
    4.4300   -0.1039    0.0000 H   0  0  0  0  0  0  0  0  0  0  0  0
    6.2277   -0.6885    0.0000 H   0  0  0  0  0  0  0  0  0  0  0  0
    5.5374   -1.0870    0.0000 H   0  0  0  0  0  0  0  0  0  0  0  0
    8.6200   -1.0530    0.0000 H   0  0  0  0  0  0  0  0  0  0  0  0
    9.2400   -0.4330    0.0000 H   0  0  0  0  0  0  0  0  0  0  0  0
    8.6200    0.1870    0.0000 H   0  0  0  0  0  0  0  0  0  0  0  0
    5.5123   -2.7756    0.0000 H   0  0  0  0  0  0  0  0  0  0  0  0
    6.2026   -2.3771    0.0000 H   0  0  0  0  0  0  0  0  0  0  0  0
    2.5374   -1.5111    0.0000 H   0  0  0  0  0  0  0  0  0  0  0  0
    3.2277   -1.9096    0.0000 H   0  0  0  0  0  0  0  0  0  0  0  0
    2.0000   -0.4330    0.0000 H   0  0  0  0  0  0  0  0  0  0  0  0
    4.4300   -0.7621    0.0000 H   0  0  0  0  0  0  0  0  0  0  0  0
    3.1569    1.6090    0.0000 H   0  0  0  0  0  0  0  0  0  0  0  0
    2.3100    1.8360    0.0000 H   0  0  0  0  0  0  0  0  0  0  0  0
    2.0831    0.9890    0.0000 H   0  0  0  0  0  0  0  0  0  0  0  0
    3.5831   -2.7211    0.0000 H   0  0  0  0  0  0  0  0  0  0  0  0
    3.8100   -3.5680    0.0000 H   0  0  0  0  0  0  0  0  0  0  0  0
    4.6569   -3.3411    0.0000 H   0  0  0  0  0  0  0  0  0  0  0  0
  1  2  1  0  0  0  0
  1  3  1  0  0  0  0
  1  5  1  0  0  0  0
  1 21  1  0  0  0  0
  2  6  1  0  0  0  0
  2  7  1  0  0  0  0
  2 22  1  0  0  0  0
  3  4  1  0  0  0  0
  3 23  1  0  0  0  0
  3 24  1  0  0  0  0
  4  8  1  0  0  0  0
  4 25  1  0  0  0  0
  4 26  1  0  0  0  0
  5  9  2  0  0  0  0
  5 27  1  0  0  0  0
  6 31  1  0  0  0  0
  6 32  1  0  0  0  0
  6 33  1  0  0  0  0
  7 28  1  0  0  0  0
  7 29  1  0  0  0  0
  7 30  1  0  0  0  0
  8 10  2  0  0  0  0
  8 12  1  0  0  0  0
  9 14  1  0  0  0  0
  9 35  1  0  0  0  0
 10 11  1  0  0  0  0
 10 34  1  0  0  0  0
 11 13  1  0  0  0  0
 11 36  1  0  0  0  0
 11 37  1  0  0  0  0
 12 38  1  0  0  0  0
 12 39  1  0  0  0  0
 12 40  1  0  0  0  0
 13 15  1  0  0  0  0
 13 41  1  0  0  0  0
 13 42  1  0  0  0  0
 14 17  2  0  0  0  0
 14 19  1  0  0  0  0
 15 18  2  0  0  0  0
 15 20  1  0  0  0  0
 16 17  1  0  0  0  0
 16 18  1  0  0  0  0
 16 43  1  0  0  0  0
 16 44  1  0  0  0  0
 17 45  1  0  0  0  0
 18 46  1  0  0  0  0
 19 47  1  0  0  0  0
 19 48  1  0  0  0  0
 19 49  1  0  0  0  0
 20 50  1  0  0  0  0
 20 51  1  0  0  0  0
 20 52  1  0  0  0  0
M  END
> <PUBCHEM_COMPOUND_CID>
6430770

> <PUBCHEM_COMPOUND_CANONICALIZED>
1

> <PUBCHEM_CACTVS_COMPLEXITY>
402

> <PUBCHEM_CACTVS_HBOND_ACCEPTOR>
0

> <PUBCHEM_CACTVS_HBOND_DONOR>
0

> <PUBCHEM_CACTVS_ROTATABLE_BOND>
1

> <PUBCHEM_CACTVS_SUBSKEYS>
AAADcfB4AAAAAAAAAAAAAAAAAAAAAAAAAAAAAAAAAAAAAAAAAAAAGAAAAAAADQCAAAACAAAAAACAAiBCAAAAAAAgAAAICAAAAAgIAAIAAQAAAAAAgAAIgAMAgEAOgAAAAAAAAAAAAAAAAAAAAAAAAAAAAA==

> <PUBCHEM_IUPAC_OPENEYE_NAME>
(1E,3Z,6E,10E)-14-isopropyl-3,7,11-trimethyl-cyclotetradeca-1,3,6,10-tetraene

> <PUBCHEM_IUPAC_CAS_NAME>
(1E,3Z,6E,10E)-3,7,11-trimethyl-14-propan-2-ylcyclotetradeca-1,3,6,10-tetraene

> <PUBCHEM_IUPAC_NAME>
(1E,3Z,6E,10E)-3,7,11-trimethyl-14-propan-2-ylcyclotetradeca-1,3,6,10-tetraene

> <PUBCHEM_IUPAC_SYSTEMATIC_NAME>
(1E,3Z,6E,10E)-3,7,11-trimethyl-14-propan-2-yl-cyclotetradeca-1,3,6,10-tetraene

> <PUBCHEM_IUPAC_TRADITIONAL_NAME>
(1E,3Z,6E,10E)-14-isopropyl-3,7,11-trimethyl-cyclotetradeca-1,3,6,10-tetraene

> <PUBCHEM_IUPAC_INCHI>
InChI=1S/C20H32/c1-16(2)20-14-12-18(4)10-6-8-17(3)9-7-11-19(5)13-15-20/h8,10-12,14,16,20H,6-7,9,13,15H2,1-5H3/b14-12+,17-8+,18-10-,19-11+

> <PUBCHEM_IUPAC_INCHIKEY>
DMHADBQKVWXPPM-HPKGDXISSA-N

> <PUBCHEM_XLOGP3_AA>
6

> <PUBCHEM_EXACT_MASS>
272.250401

> <PUBCHEM_MOLECULAR_FORMULA>
C20H32

> <PUBCHEM_MOLECULAR_WEIGHT>
272.46808

> <PUBCHEM_OPENEYE_CAN_SMILES>
CC1=CCCC(=CCC=C(C=CC(CC1)C(C)C)C)C

> <PUBCHEM_OPENEYE_ISO_SMILES>
C/C/1=C\CC/C(=C/C/C=C(\C=C\C(CC1)C(C)C)/C)/C

> <PUBCHEM_CACTVS_TPSA>
0

> <PUBCHEM_MONOISOTOPIC_WEIGHT>
272.250401

> <PUBCHEM_TOTAL_CHARGE>
0

> <PUBCHEM_HEAVY_ATOM_COUNT>
20

> <PUBCHEM_ATOM_DEF_STEREO_COUNT>
0

> <PUBCHEM_ATOM_UDEF_STEREO_COUNT>
1

> <PUBCHEM_BOND_DEF_STEREO_COUNT>
4

> <PUBCHEM_BOND_UDEF_STEREO_COUNT>
0

> <PUBCHEM_ISOTOPIC_ATOM_COUNT>
0

> <PUBCHEM_COMPONENT_COUNT>
1

> <PUBCHEM_CACTVS_TAUTO_COUNT>
1

> <PUBCHEM_COORDINATE_TYPE>
1
5
255

> <PUBCHEM_BONDANNOTATIONS>
1  2  3

$$$$

