   Chemical and Physical Properties References

   [1]USDA ARS - USDA chemical properties
   from [2]ChemIDplus

   Color/Form

     * Off-white crystalline solid
     * Colorless crystals

   from [3]HSDB

   Odor
        OFFENSIVE ODOR
   from [4]HSDB

   Melting Point
        72-72.7 deg C
   from [5]HSDB

   Corrosivity
        SLIGHTLY CORROSIVE TO METALS
   from [6]HSDB

   Density/Specific Gravity
        1.03 at 20 deg C/4 deg C
   from [7]HSDB

   Octanol/Water Partition Coefficient
        log Kow = 2.95
   from [8]HSDB

   Solubilities

     * 100 G/KG IN DICHLOROMETHANE, 4-METHYLPENT-3-EN-2-ONE, BUTANONE
     * At 25 deg C: 25 mg/L water; 650 g/L acetone; 600 g/L benzene; 5 g/L
       kerosene; 50 g/L methanol; 300 g/L toluene, methyl isobutyl ketone;
       250 g/L xylene.
     * In water, 24.4 mg/L at 20 deg C

   from [9]HSDB

   Spectral Properties
        Intense mass spectral peaks: 160 m/z (100%), 77 m/z (34%), 161 m/z
   (33%), 93 m/z (29%)
   from [10]HSDB

   Vapor Pressure
        4.9X10-7 mm Hg at 20-25 deg C
   from [11]HSDB

   Other Chemical/Physical Properties

     * Off-white or pink solid, with an offensive odor. MP of technical
       grade (92% pure): 66-69 deg C /technical imidan/
     * Decomposes below its BP
     * Henry's Law constant = 8.4X10-9 atm-cu m/mole at 25 deg C (est)
     * Hydroxyl radical reaction rate constant = 1.5X10-10 cu cm/molec-sec
       at 25 deg C (est)

   from [12]HSDB

   Computed Properties
   Molecular Weight                  317.321042 [g/mol]
   Molecular Formula                 C[11]H[12]NO[4]PS[2]
   XLogP3                            2.8
   H-Bond Donor                      0
   H-Bond Acceptor                   6
   Rotatable Bond Count              5
   Exact Mass                        316.994536
   MonoIsotopic Mass                 316.994536
   Topological Polar Surface Area    113
   Heavy Atom Count                  19
   Formal Charge                     0
   Complexity                        399
   Isotope Atom Count                0
   Defined Atom Stereocenter Count   0
   Undefined Atom Stereocenter Count 0
   Defined Bond Stereocenter Count   0
   Undefined Bond Stereocenter Count 0
   Covalently-Bonded Unit Count      1
   Feature 3D Acceptor Count         2
   Feature 3D Ring Count             2
   Effective Rotor Count             5.2
   Conformer Sampling RMSD           0.8
   CID Conformer Count               [13]16

References

   1. http://www.ars.usda.gov/SP2UserFiles/ad_hoc/12755100DatabaseFiles/PesticidePropertiesDatabase/IndividualPesticideFiles/PHOSMET.TXT
   2. http://chem.sis.nlm.nih.gov/chemidplus/
   3. http://toxnet.nlm.nih.gov/cgi-bin/sis/search/r?dbs+hsdb:@term+@rn+@rel+732-11-6
   4. http://toxnet.nlm.nih.gov/cgi-bin/sis/search/r?dbs+hsdb:@term+@rn+@rel+732-11-6
   5. http://toxnet.nlm.nih.gov/cgi-bin/sis/search/r?dbs+hsdb:@term+@rn+@rel+732-11-6
   6. http://toxnet.nlm.nih.gov/cgi-bin/sis/search/r?dbs+hsdb:@term+@rn+@rel+732-11-6
   7. http://toxnet.nlm.nih.gov/cgi-bin/sis/search/r?dbs+hsdb:@term+@rn+@rel+732-11-6
   8. http://toxnet.nlm.nih.gov/cgi-bin/sis/search/r?dbs+hsdb:@term+@rn+@rel+732-11-6
   9. http://toxnet.nlm.nih.gov/cgi-bin/sis/search/r?dbs+hsdb:@term+@rn+@rel+732-11-6
  10. http://toxnet.nlm.nih.gov/cgi-bin/sis/search/r?dbs+hsdb:@term+@rn+@rel+732-11-6
  11. http://toxnet.nlm.nih.gov/cgi-bin/sis/search/r?dbs+hsdb:@term+@rn+@rel+732-11-6
  12. http://toxnet.nlm.nih.gov/cgi-bin/sis/search/r?dbs+hsdb:@term+@rn+@rel+732-11-6
  13. http://pubchem.ncbi.nlm.nih.gov/vw3d/vw3d.cgi?cid=12901
