   Color/Form
        Colorless prisms
   from [1]HSDB

   Melting Point
        190 deg C
   from [2]HSDB

   Density/Specific Gravity
        1.4 g/cu cm @ 25 deg C
   from [3]HSDB

   Dissociation Constants
        pKa1 = 4.44
   from [4]HSDB

   Octanol/Water Partition Coefficient
        log Kow = 0.89
   from [5]HSDB

   Solubilities

     * Soluble in benzene and ethanol
     * In water, 380 mg/l @ 25 deg C
     * ... It is soluble in alcohol, ether, and chloroform.

   from [6]HSDB

   Spectral Properties

     * IR: 309 (Coblentz Society Spectral Collection)
     * UV: 7846 (Sadtler Research Laboratories Spectral Collection)

   from [7]HSDB

   Other Chemical/Physical Properties

     * Boiling point: sublimes
     * IR: 21493 (Sadtler Research Laboratories IR Grating Collection);
       UV: 7845 (Sadtler Research Laboratories Spectral Collection); NMR:
       18123 (Sadtler Research Laboratories Spectral Collection)
       /Naphthalene, 1,2-diamino-/
     * IR: 668 (Sadtler Research Laboratories IR Grating Collection); UV:
       9632 (Sadtler Research Laboratories Spectral Collection)
       /Naphthalene, 1,8-diamino-/
     * IR: 12381 (Sadtler Research Laboratories IR Grating Collection);
       UV: 15211 (Sadtler Research Laboratories Spectral Collection); NMR:
       5860 (Sadtler Research Laboratories Spectral Collection)
       /Naphthalene, 2,3-diamino-/

   from [8]HSDB

   Computed Properties
   Molecular Weight                  158.1998 [g/mol]
   Molecular Formula                 C[10]H[10]N[2]
   XLogP3                            2.1
   H-Bond Donor                      2
   H-Bond Acceptor                   2
   Rotatable Bond Count              0
   Exact Mass                        158.084398
   MonoIsotopic Mass                 158.084398
   Topological Polar Surface Area    52
   Heavy Atom Count                  12
   Formal Charge                     0
   Complexity                        140
   Isotope Atom Count                0
   Defined Atom Stereocenter Count   0
   Undefined Atom Stereocenter Count 0
   Defined Bond Stereocenter Count   0
   Undefined Bond Stereocenter Count 0
   Covalently-Bonded Unit Count      1
   Feature 3D Donor Count            2
   Feature 3D Cation Count           2
   Feature 3D Ring Count             2
   Effective Rotor Count             0
   Conformer Sampling RMSD           0.4
   CID Conformer Count               [9]1

References

   1. http://toxnet.nlm.nih.gov/cgi-bin/sis/search/r?dbs+hsdb:@term+@rn+@rel+2243-62-1
   2. http://toxnet.nlm.nih.gov/cgi-bin/sis/search/r?dbs+hsdb:@term+@rn+@rel+2243-62-1
   3. http://toxnet.nlm.nih.gov/cgi-bin/sis/search/r?dbs+hsdb:@term+@rn+@rel+2243-62-1
   4. http://toxnet.nlm.nih.gov/cgi-bin/sis/search/r?dbs+hsdb:@term+@rn+@rel+2243-62-1
   5. http://toxnet.nlm.nih.gov/cgi-bin/sis/search/r?dbs+hsdb:@term+@rn+@rel+2243-62-1
   6. http://toxnet.nlm.nih.gov/cgi-bin/sis/search/r?dbs+hsdb:@term+@rn+@rel+2243-62-1
   7. http://toxnet.nlm.nih.gov/cgi-bin/sis/search/r?dbs+hsdb:@term+@rn+@rel+2243-62-1
   8. http://toxnet.nlm.nih.gov/cgi-bin/sis/search/r?dbs+hsdb:@term+@rn+@rel+2243-62-1
   9. http://pubchem.ncbi.nlm.nih.gov/vw3d/vw3d.cgi?cid=16720
