5460143
  -OEChem-07051212462D

 46 48  0     1  0  0  0  0  0999 V2000
    6.6009   -2.0734    0.0000 O   0  0  0  0  0  0  0  0  0  0  0  0
    2.5369   -1.4486    0.0000 O   0  0  0  0  0  0  0  0  0  0  0  0
    3.4030    0.0514    0.0000 O   0  0  0  0  0  0  0  0  0  0  0  0
    6.3598    1.7586    0.0000 O   0  0  0  0  0  0  0  0  0  0  0  0
    4.2690   -5.4486    0.0000 O   0  0  0  0  0  0  0  0  0  0  0  0
    9.8239    1.7586    0.0000 O   0  0  0  0  0  0  0  0  0  0  0  0
    8.0918    5.7585    0.0000 O   0  0  0  0  0  0  0  0  0  0  0  0
    5.1350   -0.9486    0.0000 N   0  0  0  0  0  0  0  0  0  0  0  0
    7.2258    0.2586    0.0000 N   0  0  0  0  0  0  0  0  0  0  0  0
    8.9578    1.2586    0.0000 N   0  0  0  0  0  0  0  0  0  0  0  0
    6.3598   -0.2414    0.0000 C   0  0  1  0  0  0  0  0  0  0  0  0
    5.3938    0.0174    0.0000 C   0  0  0  0  0  0  0  0  0  0  0  0
    6.1009   -1.2074    0.0000 C   0  0  0  0  0  0  0  0  0  0  0  0
    4.2690   -1.4486    0.0000 C   0  0  2  0  0  0  0  0  0  0  0  0
    4.2690   -2.4486    0.0000 C   0  0  0  0  0  0  0  0  0  0  0  0
    3.4030   -0.9486    0.0000 C   0  0  0  0  0  0  0  0  0  0  0  0
    7.2258    1.2586    0.0000 C   0  0  0  0  0  0  0  0  0  0  0  0
    3.4030   -2.9486    0.0000 C   0  0  0  0  0  0  0  0  0  0  0  0
    5.1350   -2.9486    0.0000 C   0  0  0  0  0  0  0  0  0  0  0  0
    8.0918    1.7586    0.0000 C   0  0  0  0  0  0  0  0  0  0  0  0
    3.4030   -3.9486    0.0000 C   0  0  0  0  0  0  0  0  0  0  0  0
    5.1350   -3.9486    0.0000 C   0  0  0  0  0  0  0  0  0  0  0  0
    4.2690   -4.4486    0.0000 C   0  0  0  0  0  0  0  0  0  0  0  0
    8.0918    2.7586    0.0000 C   0  0  0  0  0  0  0  0  0  0  0  0
    8.9578    3.2586    0.0000 C   0  0  0  0  0  0  0  0  0  0  0  0
    7.2258    3.2586    0.0000 C   0  0  0  0  0  0  0  0  0  0  0  0
    8.9578    4.2585    0.0000 C   0  0  0  0  0  0  0  0  0  0  0  0
    7.2258    4.2585    0.0000 C   0  0  0  0  0  0  0  0  0  0  0  0
    8.0918    4.7585    0.0000 C   0  0  0  0  0  0  0  0  0  0  0  0
    6.2788    0.3732    0.0000 H   0  0  0  0  0  0  0  0  0  0  0  0
    5.5543    0.6162    0.0000 H   0  0  0  0  0  0  0  0  0  0  0  0
    4.7950    0.1778    0.0000 H   0  0  0  0  0  0  0  0  0  0  0  0
    4.2690   -0.8286    0.0000 H   0  0  0  0  0  0  0  0  0  0  0  0
    7.7627   -0.0514    0.0000 H   0  0  0  0  0  0  0  0  0  0  0  0
    2.8660   -2.6386    0.0000 H   0  0  0  0  0  0  0  0  0  0  0  0
    5.6720   -2.6386    0.0000 H   0  0  0  0  0  0  0  0  0  0  0  0
    2.8660   -4.2585    0.0000 H   0  0  0  0  0  0  0  0  0  0  0  0
    5.6720   -4.2585    0.0000 H   0  0  0  0  0  0  0  0  0  0  0  0
    2.0000   -1.1386    0.0000 H   0  0  0  0  0  0  0  0  0  0  0  0
    8.9578    0.6386    0.0000 H   0  0  0  0  0  0  0  0  0  0  0  0
    9.4948    2.9486    0.0000 H   0  0  0  0  0  0  0  0  0  0  0  0
    6.6888    2.9486    0.0000 H   0  0  0  0  0  0  0  0  0  0  0  0
    3.7320   -5.7585    0.0000 H   0  0  0  0  0  0  0  0  0  0  0  0
    9.4948    4.5686    0.0000 H   0  0  0  0  0  0  0  0  0  0  0  0
    6.6888    4.5686    0.0000 H   0  0  0  0  0  0  0  0  0  0  0  0
   10.3608    1.4486    0.0000 H   0  0  0  0  0  0  0  0  0  0  0  0
  1 13  2  0  0  0  0
  2 16  1  0  0  0  0
  2 39  1  0  0  0  0
  3 16  2  0  0  0  0
  4 17  2  0  0  0  0
  5 23  1  0  0  0  0
  5 43  1  0  0  0  0
  6 10  1  0  0  0  0
  6 46  1  0  0  0  0
  7 29  2  0  0  0  0
  8 12  1  0  0  0  0
  8 13  1  0  0  0  0
  8 14  1  0  0  0  0
 11  9  1  6  0  0  0
  9 17  1  0  0  0  0
  9 34  1  0  0  0  0
 10 20  1  0  0  0  0
 10 40  1  0  0  0  0
 11 12  1  0  0  0  0
 11 13  1  0  0  0  0
 11 30  1  0  0  0  0
 12 31  1  0  0  0  0
 12 32  1  0  0  0  0
 14 15  1  0  0  0  0
 14 16  1  6  0  0  0
 14 33  1  0  0  0  0
 15 18  2  0  0  0  0
 15 19  1  0  0  0  0
 17 20  1  0  0  0  0
 18 21  1  0  0  0  0
 18 35  1  0  0  0  0
 19 22  2  0  0  0  0
 19 36  1  0  0  0  0
 20 24  2  0  0  0  0
 21 23  2  0  0  0  0
 21 37  1  0  0  0  0
 22 23  1  0  0  0  0
 22 38  1  0  0  0  0
 24 25  1  0  0  0  0
 24 26  1  0  0  0  0
 25 27  2  0  0  0  0
 25 41  1  0  0  0  0
 26 28  2  0  0  0  0
 26 42  1  0  0  0  0
 27 29  1  0  0  0  0
 27 44  1  0  0  0  0
 28 29  1  0  0  0  0
 28 45  1  0  0  0  0
M  END
> <PUBCHEM_COMPOUND_CID>
5460143

> <PUBCHEM_COMPOUND_CANONICALIZED>
1

> <PUBCHEM_CACTVS_COMPLEXITY>
791

> <PUBCHEM_CACTVS_HBOND_ACCEPTOR>
8

> <PUBCHEM_CACTVS_HBOND_DONOR>
5

> <PUBCHEM_CACTVS_ROTATABLE_BOND>
6

> <PUBCHEM_CACTVS_SUBSKEYS>
AAADceB7OAAAAAAAAAAAAAAAAABYAAAAAAAwQAAAAAAAAAABAAAAHgAUCAAADCzBmAQwDoPQAgCIAqXSWACCAAAgIAAoiIGODMgKZjqClTOUcAhk1hGYmYeY2KOOIAAAAAAAAABAAAAAAAAAAAAAAAAAAA==

> <PUBCHEM_IUPAC_OPENEYE_NAME>
(2R)-2-[(3S)-3-[[2-(hydroxyamino)-2-(4-oxocyclohexa-2,5-dien-1-ylidene)acetyl]amino]-2-oxo-azetidin-1-yl]-2-(4-hydroxyphenyl)acetic acid

> <PUBCHEM_IUPAC_CAS_NAME>
(2R)-2-[(3S)-3-[[2-(hydroxyamino)-1-oxo-2-(4-oxo-1-cyclohexa-2,5-dienylidene)ethyl]amino]-2-oxo-1-azetidinyl]-2-(4-hydroxyphenyl)acetic acid

> <PUBCHEM_IUPAC_NAME>
(2R)-2-[(3S)-3-[[2-(hydroxyamino)-2-(4-oxocyclohexa-2,5-dien-1-ylidene)acetyl]amino]-2-oxoazetidin-1-yl]-2-(4-hydroxyphenyl)acetic acid

> <PUBCHEM_IUPAC_SYSTEMATIC_NAME>
(2R)-2-(4-hydroxyphenyl)-2-[(3S)-3-[[2-(oxidanylamino)-2-(4-oxidanylidenecyclohexa-2,5-dien-1-ylidene)ethanoyl]amino]-2-oxidanylidene-azetidin-1-yl]ethanoic acid

> <PUBCHEM_IUPAC_TRADITIONAL_NAME>
(2R)-2-[(3S)-3-[[2-(hydroxyamino)-2-(4-ketocyclohexa-2,5-dien-1-ylidene)acetyl]amino]-2-keto-azetidin-1-yl]-2-(4-hydroxyphenyl)acetic acid

> <PUBCHEM_IUPAC_INCHI>
InChI=1S/C19H17N3O7/c23-12-5-1-10(2-6-12)15(21-29)17(25)20-14-9-22(18(14)26)16(19(27)28)11-3-7-13(24)8-4-11/h1-8,14,16,21,24,29H,9H2,(H,20,25)(H,27,28)/t14-,16+/m0/s1

> <PUBCHEM_IUPAC_INCHIKEY>
KZFIBFQUCBWFAX-GOEBONIOSA-N

> <PUBCHEM_XLOGP3_AA>
0.7

> <PUBCHEM_EXACT_MASS>
399.10665

> <PUBCHEM_MOLECULAR_FORMULA>
C19H17N3O7

> <PUBCHEM_MOLECULAR_WEIGHT>
399.35418

> <PUBCHEM_OPENEYE_CAN_SMILES>
C1C(C(=O)N1C(C2=CC=C(C=C2)O)C(=O)O)NC(=O)C(=C3C=CC(=O)C=C3)NO

> <PUBCHEM_OPENEYE_ISO_SMILES>
C1[C@@H](C(=O)N1[C@H](C2=CC=C(C=C2)O)C(=O)O)NC(=O)C(=C3C=CC(=O)C=C3)NO

> <PUBCHEM_CACTVS_TPSA>
156

> <PUBCHEM_MONOISOTOPIC_WEIGHT>
399.10665

> <PUBCHEM_TOTAL_CHARGE>
0

> <PUBCHEM_HEAVY_ATOM_COUNT>
29

> <PUBCHEM_ATOM_DEF_STEREO_COUNT>
2

> <PUBCHEM_ATOM_UDEF_STEREO_COUNT>
0

> <PUBCHEM_BOND_DEF_STEREO_COUNT>
0

> <PUBCHEM_BOND_UDEF_STEREO_COUNT>
0

> <PUBCHEM_ISOTOPIC_ATOM_COUNT>
0

> <PUBCHEM_COMPONENT_COUNT>
1

> <PUBCHEM_CACTVS_TAUTO_COUNT>
94

> <PUBCHEM_COORDINATE_TYPE>
1
5
255

> <PUBCHEM_BONDANNOTATIONS>
14  16  6
15  18  8
15  19  8
18  21  8
19  22  8
21  23  8
22  23  8
11  9  6

$$$$

