9571004
  -OEChem-07051213042D

 60 63  0     0  0  0  0  0  0999 V2000
    2.8660   -6.5960    0.0000 Cl  0  0  0  0  0  0  0  0  0  0  0  0
    4.6349    4.0133    0.0000 O   0  0  0  0  0  0  0  0  0  0  0  0
    5.7226    0.6654    0.0000 O   0  0  0  0  0  0  0  0  0  0  0  0
    3.6750   -2.0082    0.0000 O   0  0  0  0  0  0  0  0  0  0  0  0
    8.7129    5.3088    0.0000 N   0  0  0  0  0  0  0  0  0  0  0  0
   10.6150    5.9269    0.0000 N   0  0  0  0  0  0  0  0  0  0  0  0
    5.4439    2.4255    0.0000 N   0  0  0  0  0  0  0  0  0  0  0  0
    4.1349    1.4744    0.0000 N   0  0  0  0  0  0  0  0  0  0  0  0
    3.5471    0.6654    0.0000 N   0  0  0  0  0  0  0  0  0  0  0  0
    9.4560    4.6397    0.0000 C   0  0  0  0  0  0  0  0  0  0  0  0
    8.9208    6.2870    0.0000 C   0  0  0  0  0  0  0  0  0  0  0  0
    7.7618    4.9998    0.0000 C   0  0  0  0  0  0  0  0  0  0  0  0
    9.8718    6.5960    0.0000 C   0  0  0  0  0  0  0  0  0  0  0  0
   10.4071    4.9487    0.0000 C   0  0  0  0  0  0  0  0  0  0  0  0
    7.5539    4.0217    0.0000 C   0  0  0  0  0  0  0  0  0  0  0  0
    6.6028    3.7126    0.0000 C   0  0  0  0  0  0  0  0  0  0  0  0
    6.3949    2.7345    0.0000 C   0  0  0  0  0  0  0  0  0  0  0  0
   11.5660    6.2359    0.0000 C   0  0  0  0  0  0  0  0  0  0  0  0
    4.6349    3.0133    0.0000 C   0  0  0  0  0  0  0  0  0  0  0  0
    5.1349    1.4744    0.0000 C   0  0  0  0  0  0  0  0  0  0  0  0
    3.8258    2.4255    0.0000 C   0  0  0  0  0  0  0  0  0  0  0  0
    3.9538   -0.2481    0.0000 C   0  0  0  0  0  0  0  0  0  0  0  0
    3.3660   -1.0572    0.0000 C   0  0  0  0  0  0  0  0  0  0  0  0
    2.8660   -2.5960    0.0000 C   0  0  0  0  0  0  0  0  0  0  0  0
    2.3660   -1.0572    0.0000 C   0  0  0  0  0  0  0  0  0  0  0  0
    2.0570   -2.0082    0.0000 C   0  0  0  0  0  0  0  0  0  0  0  0
    2.8660   -3.5960    0.0000 C   0  0  0  0  0  0  0  0  0  0  0  0
    2.0000   -4.0960    0.0000 C   0  0  0  0  0  0  0  0  0  0  0  0
    3.7320   -4.0960    0.0000 C   0  0  0  0  0  0  0  0  0  0  0  0
    2.0000   -5.0960    0.0000 C   0  0  0  0  0  0  0  0  0  0  0  0
    3.7320   -5.0960    0.0000 C   0  0  0  0  0  0  0  0  0  0  0  0
    2.8660   -5.5960    0.0000 C   0  0  0  0  0  0  0  0  0  0  0  0
    8.9674    4.2580    0.0000 H   0  0  0  0  0  0  0  0  0  0  0  0
    9.7471    4.0923    0.0000 H   0  0  0  0  0  0  0  0  0  0  0  0
    8.8345    6.9009    0.0000 H   0  0  0  0  0  0  0  0  0  0  0  0
    8.3012    6.3086    0.0000 H   0  0  0  0  0  0  0  0  0  0  0  0
    7.6755    5.6138    0.0000 H   0  0  0  0  0  0  0  0  0  0  0  0
    7.1422    5.0214    0.0000 H   0  0  0  0  0  0  0  0  0  0  0  0
   10.3604    6.9777    0.0000 H   0  0  0  0  0  0  0  0  0  0  0  0
    9.5808    7.1434    0.0000 H   0  0  0  0  0  0  0  0  0  0  0  0
   10.4934    4.3348    0.0000 H   0  0  0  0  0  0  0  0  0  0  0  0
   11.0267    4.9271    0.0000 H   0  0  0  0  0  0  0  0  0  0  0  0
    7.6402    3.4077    0.0000 H   0  0  0  0  0  0  0  0  0  0  0  0
    8.1735    4.0000    0.0000 H   0  0  0  0  0  0  0  0  0  0  0  0
    6.5166    4.3266    0.0000 H   0  0  0  0  0  0  0  0  0  0  0  0
    5.9832    3.7343    0.0000 H   0  0  0  0  0  0  0  0  0  0  0  0
    6.4812    2.1205    0.0000 H   0  0  0  0  0  0  0  0  0  0  0  0
    7.0146    2.7129    0.0000 H   0  0  0  0  0  0  0  0  0  0  0  0
   11.7576    5.6462    0.0000 H   0  0  0  0  0  0  0  0  0  0  0  0
   12.1557    6.4275    0.0000 H   0  0  0  0  0  0  0  0  0  0  0  0
   11.3744    6.8255    0.0000 H   0  0  0  0  0  0  0  0  0  0  0  0
    3.5158    2.9624    0.0000 H   0  0  0  0  0  0  0  0  0  0  0  0
    3.2594    2.1733    0.0000 H   0  0  0  0  0  0  0  0  0  0  0  0
    4.5704   -0.3129    0.0000 H   0  0  0  0  0  0  0  0  0  0  0  0
    2.0016   -0.5556    0.0000 H   0  0  0  0  0  0  0  0  0  0  0  0
    1.4674   -2.1998    0.0000 H   0  0  0  0  0  0  0  0  0  0  0  0
    1.4631   -3.7860    0.0000 H   0  0  0  0  0  0  0  0  0  0  0  0
    4.2690   -3.7860    0.0000 H   0  0  0  0  0  0  0  0  0  0  0  0
    1.4631   -5.4060    0.0000 H   0  0  0  0  0  0  0  0  0  0  0  0
    4.2690   -5.4060    0.0000 H   0  0  0  0  0  0  0  0  0  0  0  0
  1 32  1  0  0  0  0
  2 19  2  0  0  0  0
  3 20  2  0  0  0  0
  4 23  1  0  0  0  0
  4 24  1  0  0  0  0
  5 10  1  0  0  0  0
  5 11  1  0  0  0  0
  5 12  1  0  0  0  0
  6 13  1  0  0  0  0
  6 14  1  0  0  0  0
  6 18  1  0  0  0  0
  7 17  1  0  0  0  0
  7 19  1  0  0  0  0
  7 20  1  0  0  0  0
  8  9  1  0  0  0  0
  8 20  1  0  0  0  0
  8 21  1  0  0  0  0
  9 22  2  0  0  0  0
 10 14  1  0  0  0  0
 10 33  1  0  0  0  0
 10 34  1  0  0  0  0
 11 13  1  0  0  0  0
 11 35  1  0  0  0  0
 11 36  1  0  0  0  0
 12 15  1  0  0  0  0
 12 37  1  0  0  0  0
 12 38  1  0  0  0  0
 13 39  1  0  0  0  0
 13 40  1  0  0  0  0
 14 41  1  0  0  0  0
 14 42  1  0  0  0  0
 15 16  1  0  0  0  0
 15 43  1  0  0  0  0
 15 44  1  0  0  0  0
 16 17  1  0  0  0  0
 16 45  1  0  0  0  0
 16 46  1  0  0  0  0
 17 47  1  0  0  0  0
 17 48  1  0  0  0  0
 18 49  1  0  0  0  0
 18 50  1  0  0  0  0
 18 51  1  0  0  0  0
 19 21  1  0  0  0  0
 21 52  1  0  0  0  0
 21 53  1  0  0  0  0
 22 23  1  0  0  0  0
 22 54  1  0  0  0  0
 23 25  2  0  0  0  0
 24 26  2  0  0  0  0
 24 27  1  0  0  0  0
 25 26  1  0  0  0  0
 25 55  1  0  0  0  0
 26 56  1  0  0  0  0
 27 28  2  0  0  0  0
 27 29  1  0  0  0  0
 28 30  1  0  0  0  0
 28 57  1  0  0  0  0
 29 31  2  0  0  0  0
 29 58  1  0  0  0  0
 30 32  2  0  0  0  0
 30 59  1  0  0  0  0
 31 32  1  0  0  0  0
 31 60  1  0  0  0  0
M  END
> <PUBCHEM_COMPOUND_CID>
9571004

> <PUBCHEM_COMPOUND_CANONICALIZED>
1

> <PUBCHEM_CACTVS_COMPLEXITY>
677

> <PUBCHEM_CACTVS_HBOND_ACCEPTOR>
6

> <PUBCHEM_CACTVS_HBOND_DONOR>
0

> <PUBCHEM_CACTVS_ROTATABLE_BOND>
8

> <PUBCHEM_CACTVS_SUBSKEYS>
AAADceB7sAAEAAAAAAAAAAAAAAAAAWJAAAA8QAAAAAAAAAABwAAAHgIIAAAADAbBmCQzBIMABECoArFzEAQSCAAkJQAeiAGuCtiMZrKFtzqWOSCszzOIqYeIyPCOBAAAAAAAAAAIAAAAAAAAAAAAAAAAAA==

> <PUBCHEM_IUPAC_OPENEYE_NAME>
1-[(E)-[5-(4-chlorophenyl)-2-furyl]methyleneamino]-3-[4-(4-methylpiperazin-1-yl)butyl]imidazolidine-2,4-dione

> <PUBCHEM_IUPAC_CAS_NAME>
1-[(E)-[5-(4-chlorophenyl)-2-furanyl]methylideneamino]-3-[4-(4-methyl-1-piperazinyl)butyl]imidazolidine-2,4-dione

> <PUBCHEM_IUPAC_NAME>
1-[(E)-[5-(4-chlorophenyl)furan-2-yl]methylideneamino]-3-[4-(4-methylpiperazin-1-yl)butyl]imidazolidine-2,4-dione

> <PUBCHEM_IUPAC_SYSTEMATIC_NAME>
1-[(E)-[5-(4-chlorophenyl)furan-2-yl]methylideneamino]-3-[4-(4-methylpiperazin-1-yl)butyl]imidazolidine-2,4-dione

> <PUBCHEM_IUPAC_TRADITIONAL_NAME>
1-[(E)-[5-(4-chlorophenyl)-2-furyl]methyleneamino]-3-[4-(4-methylpiperazino)butyl]hydantoin

> <PUBCHEM_IUPAC_INCHI>
InChI=1S/C23H28ClN5O3/c1-26-12-14-27(15-13-26)10-2-3-11-28-22(30)17-29(23(28)31)25-16-20-8-9-21(32-20)18-4-6-19(24)7-5-18/h4-9,16H,2-3,10-15,17H2,1H3/b25-16+

> <PUBCHEM_IUPAC_INCHIKEY>
MREBEPTUUMTTIA-PCLIKHOPSA-N

> <PUBCHEM_XLOGP3_AA>
3.2

> <PUBCHEM_EXACT_MASS>
457.188067

> <PUBCHEM_MOLECULAR_FORMULA>
C23H28ClN5O3

> <PUBCHEM_MOLECULAR_WEIGHT>
457.95312

> <PUBCHEM_OPENEYE_CAN_SMILES>
CN1CCN(CC1)CCCCN2C(=O)CN(C2=O)N=CC3=CC=C(O3)C4=CC=C(C=C4)Cl

> <PUBCHEM_OPENEYE_ISO_SMILES>
CN1CCN(CC1)CCCCN2C(=O)CN(C2=O)/N=C/C3=CC=C(O3)C4=CC=C(C=C4)Cl

> <PUBCHEM_CACTVS_TPSA>
72.6

> <PUBCHEM_MONOISOTOPIC_WEIGHT>
457.188067

> <PUBCHEM_TOTAL_CHARGE>
0

> <PUBCHEM_HEAVY_ATOM_COUNT>
32

> <PUBCHEM_ATOM_DEF_STEREO_COUNT>
0

> <PUBCHEM_ATOM_UDEF_STEREO_COUNT>
0

> <PUBCHEM_BOND_DEF_STEREO_COUNT>
1

> <PUBCHEM_BOND_UDEF_STEREO_COUNT>
0

> <PUBCHEM_ISOTOPIC_ATOM_COUNT>
0

> <PUBCHEM_COMPONENT_COUNT>
1

> <PUBCHEM_CACTVS_TAUTO_COUNT>
2

> <PUBCHEM_COORDINATE_TYPE>
1
5
255

> <PUBCHEM_BONDANNOTATIONS>
23  25  8
24  26  8
25  26  8
27  28  8
27  29  8
28  30  8
29  31  8
30  32  8
31  32  8
4  23  8
4  24  8

$$$$

