5281513
  -OEChem-07051212572D

 51 53  0     0  0  0  0  0  0999 V2000
    8.5302    3.1771    0.0000 O   0  0  0  0  0  0  0  0  0  0  0  0
    8.5302    1.1288    0.0000 O   0  0  0  0  0  0  0  0  0  0  0  0
    2.6341    2.5191    0.0000 O   0  0  0  0  0  0  0  0  0  0  0  0
    6.0001   -1.5790    0.0000 O   0  0  0  0  0  0  0  0  0  0  0  0
    5.0001   -3.3111    0.0000 O   0  0  0  0  0  0  0  0  0  0  0  0
    3.0000   -3.3111    0.0000 O   0  0  0  0  0  0  0  0  0  0  0  0
    4.1340    1.6530    0.0000 N   0  0  0  0  0  0  0  0  0  0  0  0
    5.0000    3.1530    0.0000 C   0  0  0  0  0  0  0  0  0  0  0  0
    5.8661    2.6530    0.0000 C   0  0  0  0  0  0  0  0  0  0  0  0
    4.1340    2.6530    0.0000 C   0  0  0  0  0  0  0  0  0  0  0  0
    5.8661    1.6530    0.0000 C   0  0  0  0  0  0  0  0  0  0  0  0
    5.0000    1.1530    0.0000 C   0  0  0  0  0  0  0  0  0  0  0  0
    6.7600    3.1876    0.0000 C   0  0  0  0  0  0  0  0  0  0  0  0
    6.7600    1.1183    0.0000 C   0  0  0  0  0  0  0  0  0  0  0  0
    5.0000    0.1530    0.0000 C   0  0  0  0  0  0  0  0  0  0  0  0
    7.6661    2.6738    0.0000 C   0  0  0  0  0  0  0  0  0  0  0  0
    7.6661    1.6322    0.0000 C   0  0  0  0  0  0  0  0  0  0  0  0
    4.5000   -0.7130    0.0000 C   0  0  0  0  0  0  0  0  0  0  0  0
    3.1340    1.6530    0.0000 C   0  0  0  0  0  0  0  0  0  0  0  0
    5.0001   -1.5791    0.0000 C   0  0  0  0  0  0  0  0  0  0  0  0
    3.5000   -0.7129    0.0000 C   0  0  0  0  0  0  0  0  0  0  0  0
    4.5001   -2.4451    0.0000 C   0  0  0  0  0  0  0  0  0  0  0  0
    3.0000   -1.5790    0.0000 C   0  0  0  0  0  0  0  0  0  0  0  0
    3.5000   -2.4451    0.0000 C   0  0  0  0  0  0  0  0  0  0  0  0
    8.5263    4.1771    0.0000 C   0  0  0  0  0  0  0  0  0  0  0  0
    9.3981    1.6255    0.0000 C   0  0  0  0  0  0  0  0  0  0  0  0
    4.5001   -4.1771    0.0000 C   0  0  0  0  0  0  0  0  0  0  0  0
    2.0000   -3.3111    0.0000 C   0  0  0  0  0  0  0  0  0  0  0  0
    5.3986    3.6279    0.0000 H   0  0  0  0  0  0  0  0  0  0  0  0
    4.6015    3.6279    0.0000 H   0  0  0  0  0  0  0  0  0  0  0  0
    3.9220    3.2356    0.0000 H   0  0  0  0  0  0  0  0  0  0  0  0
    3.5234    2.5453    0.0000 H   0  0  0  0  0  0  0  0  0  0  0  0
    6.7528    3.8076    0.0000 H   0  0  0  0  0  0  0  0  0  0  0  0
    6.7528    0.4984    0.0000 H   0  0  0  0  0  0  0  0  0  0  0  0
    5.5370   -0.1570    0.0000 H   0  0  0  0  0  0  0  0  0  0  0  0
    2.8240    1.1160    0.0000 H   0  0  0  0  0  0  0  0  0  0  0  0
    3.1900   -0.1760    0.0000 H   0  0  0  0  0  0  0  0  0  0  0  0
    2.3800   -1.5790    0.0000 H   0  0  0  0  0  0  0  0  0  0  0  0
    9.1463    4.1795    0.0000 H   0  0  0  0  0  0  0  0  0  0  0  0
    8.5239    4.7971    0.0000 H   0  0  0  0  0  0  0  0  0  0  0  0
    7.9063    4.1748    0.0000 H   0  0  0  0  0  0  0  0  0  0  0  0
    9.7060    1.0874    0.0000 H   0  0  0  0  0  0  0  0  0  0  0  0
    9.9362    1.9334    0.0000 H   0  0  0  0  0  0  0  0  0  0  0  0
    9.0902    2.1636    0.0000 H   0  0  0  0  0  0  0  0  0  0  0  0
    6.3101   -2.1159    0.0000 H   0  0  0  0  0  0  0  0  0  0  0  0
    3.9631   -3.8671    0.0000 H   0  0  0  0  0  0  0  0  0  0  0  0
    4.1901   -4.7141    0.0000 H   0  0  0  0  0  0  0  0  0  0  0  0
    5.0370   -4.4871    0.0000 H   0  0  0  0  0  0  0  0  0  0  0  0
    2.0000   -2.6911    0.0000 H   0  0  0  0  0  0  0  0  0  0  0  0
    1.3800   -3.3110    0.0000 H   0  0  0  0  0  0  0  0  0  0  0  0
    2.0000   -3.9311    0.0000 H   0  0  0  0  0  0  0  0  0  0  0  0
  1 16  1  0  0  0  0
  1 25  1  0  0  0  0
  2 17  1  0  0  0  0
  2 26  1  0  0  0  0
  3 19  2  0  0  0  0
  4 20  1  0  0  0  0
  4 45  1  0  0  0  0
  5 22  1  0  0  0  0
  5 27  1  0  0  0  0
  6 24  1  0  0  0  0
  6 28  1  0  0  0  0
  7 10  1  0  0  0  0
  7 12  1  0  0  0  0
  7 19  1  0  0  0  0
  8  9  1  0  0  0  0
  8 10  1  0  0  0  0
  8 29  1  0  0  0  0
  8 30  1  0  0  0  0
  9 11  1  0  0  0  0
  9 13  2  0  0  0  0
 10 31  1  0  0  0  0
 10 32  1  0  0  0  0
 11 12  1  0  0  0  0
 11 14  2  0  0  0  0
 12 15  2  0  0  0  0
 13 16  1  0  0  0  0
 13 33  1  0  0  0  0
 14 17  1  0  0  0  0
 14 34  1  0  0  0  0
 15 18  1  0  0  0  0
 15 35  1  0  0  0  0
 16 17  2  0  0  0  0
 18 20  2  0  0  0  0
 18 21  1  0  0  0  0
 19 36  1  0  0  0  0
 20 22  1  0  0  0  0
 21 23  2  0  0  0  0
 21 37  1  0  0  0  0
 22 24  2  0  0  0  0
 23 24  1  0  0  0  0
 23 38  1  0  0  0  0
 25 39  1  0  0  0  0
 25 40  1  0  0  0  0
 25 41  1  0  0  0  0
 26 42  1  0  0  0  0
 26 43  1  0  0  0  0
 26 44  1  0  0  0  0
 27 46  1  0  0  0  0
 27 47  1  0  0  0  0
 27 48  1  0  0  0  0
 28 49  1  0  0  0  0
 28 50  1  0  0  0  0
 28 51  1  0  0  0  0
M  END
> <PUBCHEM_COMPOUND_CID>
5281513

> <PUBCHEM_COMPOUND_CANONICALIZED>
1

> <PUBCHEM_CACTVS_COMPLEXITY>
555

> <PUBCHEM_CACTVS_HBOND_ACCEPTOR>
6

> <PUBCHEM_CACTVS_HBOND_DONOR>
1

> <PUBCHEM_CACTVS_ROTATABLE_BOND>
5

> <PUBCHEM_CACTVS_SUBSKEYS>
AAADceB6OAAAAAAAAAAAAAAAAAAAAAAAAAA8YIAAAAAAAACxQAAAHgAACAAADAzBmAYyBoMABgCIAiRC0ACCCAAgIgAIiAAOjIgNJyKGsRuEcCtlxhWLuAew8L4OoAABCAAYQABAAAIQADCAAAAAAAAAAA==

> <PUBCHEM_IUPAC_OPENEYE_NAME>
(1Z)-1-[(2-hydroxy-3,4-dimethoxy-phenyl)methylene]-6,7-dimethoxy-3,4-dihydroisoquinoline-2-carbaldehyde

> <PUBCHEM_IUPAC_CAS_NAME>
(1Z)-1-[(2-hydroxy-3,4-dimethoxyphenyl)methylidene]-6,7-dimethoxy-3,4-dihydroisoquinoline-2-carboxaldehyde

> <PUBCHEM_IUPAC_NAME>
(1Z)-1-[(2-hydroxy-3,4-dimethoxyphenyl)methylidene]-6,7-dimethoxy-3,4-dihydroisoquinoline-2-carbaldehyde

> <PUBCHEM_IUPAC_SYSTEMATIC_NAME>
(1Z)-1-[(3,4-dimethoxy-2-oxidanyl-phenyl)methylidene]-6,7-dimethoxy-3,4-dihydroisoquinoline-2-carbaldehyde

> <PUBCHEM_IUPAC_TRADITIONAL_NAME>
(1Z)-1-(2-hydroxy-3,4-dimethoxy-benzylidene)-6,7-dimethoxy-3,4-dihydroisoquinoline-2-carbaldehyde

> <PUBCHEM_IUPAC_INCHI>
InChI=1S/C21H23NO6/c1-25-17-6-5-14(20(24)21(17)28-4)9-16-15-11-19(27-3)18(26-2)10-13(15)7-8-22(16)12-23/h5-6,9-12,24H,7-8H2,1-4H3/b16-9-

> <PUBCHEM_IUPAC_INCHIKEY>
YYHGQOLZRYICRS-SXGWCWSVSA-N

> <PUBCHEM_XLOGP3_AA>
2.9

> <PUBCHEM_EXACT_MASS>
385.152537

> <PUBCHEM_MOLECULAR_FORMULA>
C21H23NO6

> <PUBCHEM_MOLECULAR_WEIGHT>
385.41042

> <PUBCHEM_OPENEYE_CAN_SMILES>
COC1=C(C(=C(C=C1)C=C2C3=CC(=C(C=C3CCN2C=O)OC)OC)O)OC

> <PUBCHEM_OPENEYE_ISO_SMILES>
COC1=C(C(=C(C=C1)/C=C\2/C3=CC(=C(C=C3CCN2C=O)OC)OC)O)OC

> <PUBCHEM_CACTVS_TPSA>
77.5

> <PUBCHEM_MONOISOTOPIC_WEIGHT>
385.152537

> <PUBCHEM_TOTAL_CHARGE>
0

> <PUBCHEM_HEAVY_ATOM_COUNT>
28

> <PUBCHEM_ATOM_DEF_STEREO_COUNT>
0

> <PUBCHEM_ATOM_UDEF_STEREO_COUNT>
0

> <PUBCHEM_BOND_DEF_STEREO_COUNT>
1

> <PUBCHEM_BOND_UDEF_STEREO_COUNT>
0

> <PUBCHEM_ISOTOPIC_ATOM_COUNT>
0

> <PUBCHEM_COMPONENT_COUNT>
1

> <PUBCHEM_CACTVS_TAUTO_COUNT>
3

> <PUBCHEM_COORDINATE_TYPE>
1
5
255

> <PUBCHEM_BONDANNOTATIONS>
11  14  8
13  16  8
14  17  8
16  17  8
18  20  8
18  21  8
20  22  8
21  23  8
22  24  8
23  24  8
9  11  8
9  13  8

$$$$

