   Color/Form
        Colorless liquid
   from [1]HSDB

   Odor
        Garlic odor
   from [2]HSDB

   Taste
        Garlic
   from [3]HSDB

   Boiling Point
        139 deg C
   from [4]HSDB

   Melting Point
        -85 deg C
   from [5]HSDB

   Density/Specific Gravity
        0.888 at 27 deg C/4 deg C
   from [6]HSDB

   Octanol/Water Partition Coefficient
        log Kow = 2.61 (est)
   from [7]HSDB

   Solubilities
        Practically insoluble in water. Miscible with alcohol, chloroform,
   ether, carbon tetrachloride.
   from [8]HSDB

   Spectral Properties

     * Index of refraction = 1.4877 at 27 deg C/D
     * MASS: 63405 (NIST/EPA/MSDC Mass Spectral database, 1990 version);
       787 (Atlas of Mass Spectral Data, John Wiley & Sons, New York)

   from [9]HSDB

   Vapor Pressure
        9.22 mm Hg at 25 deg C
   from [10]HSDB

   Other Chemical/Physical Properties

     * Henry's Law constant = 1.3X10-3 atm-cu m/mol at 25 deg C(est)
     * Hydroxyl radical reaction rate constant = 6.9X10-11 cu cm/molec-sec
       at 25 deg C (est)

   from [11]HSDB

   Computed Properties
   Molecular Weight                  114.2086 [g/mol]
   Molecular Formula                 C[6]H[10]S
   XLogP3-AA                         2.2
   H-Bond Donor                      0
   H-Bond Acceptor                   1
   Rotatable Bond Count              4
   Exact Mass                        114.050321
   MonoIsotopic Mass                 114.050321
   Topological Polar Surface Area    25.3
   Heavy Atom Count                  7
   Formal Charge                     0
   Complexity                        49.2
   Isotope Atom Count                0
   Defined Atom Stereocenter Count   0
   Undefined Atom Stereocenter Count 0
   Defined Bond Stereocenter Count   0
   Undefined Bond Stereocenter Count 0
   Covalently-Bonded Unit Count      1
   Feature 3D Hydrophobe Count       3
   Effective Rotor Count             4
   Conformer Sampling RMSD           0.6
   CID Conformer Count               [12]17

References

   1. http://toxnet.nlm.nih.gov/cgi-bin/sis/search/r?dbs+hsdb:@term+@rn+@rel+592-88-1
   2. http://toxnet.nlm.nih.gov/cgi-bin/sis/search/r?dbs+hsdb:@term+@rn+@rel+592-88-1
   3. http://toxnet.nlm.nih.gov/cgi-bin/sis/search/r?dbs+hsdb:@term+@rn+@rel+592-88-1
   4. http://toxnet.nlm.nih.gov/cgi-bin/sis/search/r?dbs+hsdb:@term+@rn+@rel+592-88-1
   5. http://toxnet.nlm.nih.gov/cgi-bin/sis/search/r?dbs+hsdb:@term+@rn+@rel+592-88-1
   6. http://toxnet.nlm.nih.gov/cgi-bin/sis/search/r?dbs+hsdb:@term+@rn+@rel+592-88-1
   7. http://toxnet.nlm.nih.gov/cgi-bin/sis/search/r?dbs+hsdb:@term+@rn+@rel+592-88-1
   8. http://toxnet.nlm.nih.gov/cgi-bin/sis/search/r?dbs+hsdb:@term+@rn+@rel+592-88-1
   9. http://toxnet.nlm.nih.gov/cgi-bin/sis/search/r?dbs+hsdb:@term+@rn+@rel+592-88-1
  10. http://toxnet.nlm.nih.gov/cgi-bin/sis/search/r?dbs+hsdb:@term+@rn+@rel+592-88-1
  11. http://toxnet.nlm.nih.gov/cgi-bin/sis/search/r?dbs+hsdb:@term+@rn+@rel+592-88-1
  12. http://pubchem.ncbi.nlm.nih.gov/vw3d/vw3d.cgi?cid=11617
