443019
  -OEChem-07051213002D

 47 51  0     1  0  0  0  0  0999 V2000
    8.7180    1.3823    0.0000 O   0  0  0  0  0  0  0  0  0  0  0  0
    6.4375   -0.6711    0.0000 O   0  0  0  0  0  0  0  0  0  0  0  0
    5.4658    0.8160    0.0000 O   0  0  0  0  0  0  0  0  0  0  0  0
   12.3668    0.1925    0.0000 O   0  0  0  0  0  0  0  0  0  0  0  0
   12.3668   -1.4170    0.0000 O   0  0  0  0  0  0  0  0  0  0  0  0
    2.0017    0.8100    0.0000 O   0  0  0  0  0  0  0  0  0  0  0  0
    2.0052   -1.1900    0.0000 O   0  0  0  0  0  0  0  0  0  0  0  0
    7.9089   -0.0190    0.0000 C   0  0  1  0  0  0  0  0  0  0  0  0
    7.2398    0.7242    0.0000 C   0  0  1  0  0  0  0  0  0  0  0  0
    8.8225    0.3878    0.0000 C   0  0  1  0  0  0  0  0  0  0  0  0
    6.3327    0.3175    0.0000 C   0  0  2  0  0  0  0  0  0  0  0  0
    7.7398    1.5902    0.0000 C   0  0  0  0  0  0  0  0  0  0  0  0
    7.4097   -0.8786    0.0000 C   0  0  0  0  0  0  0  0  0  0  0  0
    9.6885   -0.1122    0.0000 C   0  0  0  0  0  0  0  0  0  0  0  0
   10.5545    0.3878    0.0000 C   0  0  0  0  0  0  0  0  0  0  0  0
    9.6885   -1.1122    0.0000 C   0  0  0  0  0  0  0  0  0  0  0  0
    4.6007    0.3145    0.0000 C   0  0  0  0  0  0  0  0  0  0  0  0
   11.4206   -0.1122    0.0000 C   0  0  0  0  0  0  0  0  0  0  0  0
   10.5545   -1.6122    0.0000 C   0  0  0  0  0  0  0  0  0  0  0  0
   11.4206   -1.1122    0.0000 C   0  0  0  0  0  0  0  0  0  0  0  0
    3.7338    0.8130    0.0000 C   0  0  0  0  0  0  0  0  0  0  0  0
    4.6024   -0.6855    0.0000 C   0  0  0  0  0  0  0  0  0  0  0  0
   12.9504   -0.6122    0.0000 C   0  0  0  0  0  0  0  0  0  0  0  0
    2.8686    0.3115    0.0000 C   0  0  0  0  0  0  0  0  0  0  0  0
    3.7372   -1.1870    0.0000 C   0  0  0  0  0  0  0  0  0  0  0  0
    2.8704   -0.6885    0.0000 C   0  0  0  0  0  0  0  0  0  0  0  0
    2.0000    1.8100    0.0000 C   0  0  0  0  0  0  0  0  0  0  0  0
    8.4769   -0.6514    0.0000 H   0  0  0  0  0  0  0  0  0  0  0  0
    6.6702    1.3551    0.0000 H   0  0  0  0  0  0  0  0  0  0  0  0
    9.3424    0.7254    0.0000 H   0  0  0  0  0  0  0  0  0  0  0  0
    6.3638    0.9367    0.0000 H   0  0  0  0  0  0  0  0  0  0  0  0
    7.9314    2.1799    0.0000 H   0  0  0  0  0  0  0  0  0  0  0  0
    7.1734    1.8424    0.0000 H   0  0  0  0  0  0  0  0  0  0  0  0
    7.2172   -1.4680    0.0000 H   0  0  0  0  0  0  0  0  0  0  0  0
    7.9756   -1.1319    0.0000 H   0  0  0  0  0  0  0  0  0  0  0  0
   10.5545    1.0078    0.0000 H   0  0  0  0  0  0  0  0  0  0  0  0
    9.1516   -1.4222    0.0000 H   0  0  0  0  0  0  0  0  0  0  0  0
   10.5545   -2.2322    0.0000 H   0  0  0  0  0  0  0  0  0  0  0  0
    3.7327    1.4330    0.0000 H   0  0  0  0  0  0  0  0  0  0  0  0
    5.1399   -0.9946    0.0000 H   0  0  0  0  0  0  0  0  0  0  0  0
   13.4113   -1.0270    0.0000 H   0  0  0  0  0  0  0  0  0  0  0  0
   13.4113   -0.1975    0.0000 H   0  0  0  0  0  0  0  0  0  0  0  0
    3.7383   -1.8070    0.0000 H   0  0  0  0  0  0  0  0  0  0  0  0
    2.0063   -1.8100    0.0000 H   0  0  0  0  0  0  0  0  0  0  0  0
    2.6200    1.8111    0.0000 H   0  0  0  0  0  0  0  0  0  0  0  0
    1.9989    2.4300    0.0000 H   0  0  0  0  0  0  0  0  0  0  0  0
    1.3800    1.8089    0.0000 H   0  0  0  0  0  0  0  0  0  0  0  0
  1 10  1  0  0  0  0
  1 12  1  0  0  0  0
  2 11  1  0  0  0  0
  2 13  1  0  0  0  0
 11  3  1  6  0  0  0
  3 17  1  0  0  0  0
  4 18  1  0  0  0  0
  4 23  1  0  0  0  0
  5 20  1  0  0  0  0
  5 23  1  0  0  0  0
  6 24  1  0  0  0  0
  6 27  1  0  0  0  0
  7 26  1  0  0  0  0
  7 44  1  0  0  0  0
  8  9  1  0  0  0  0
  8 10  1  0  0  0  0
  8 13  1  0  0  0  0
  8 28  1  6  0  0  0
  9 11  1  0  0  0  0
  9 12  1  0  0  0  0
  9 29  1  6  0  0  0
 10 14  1  6  0  0  0
 10 30  1  0  0  0  0
 11 31  1  0  0  0  0
 12 32  1  0  0  0  0
 12 33  1  0  0  0  0
 13 34  1  0  0  0  0
 13 35  1  0  0  0  0
 14 15  2  0  0  0  0
 14 16  1  0  0  0  0
 15 18  1  0  0  0  0
 15 36  1  0  0  0  0
 16 19  2  0  0  0  0
 16 37  1  0  0  0  0
 17 21  2  0  0  0  0
 17 22  1  0  0  0  0
 18 20  2  0  0  0  0
 19 20  1  0  0  0  0
 19 38  1  0  0  0  0
 21 24  1  0  0  0  0
 21 39  1  0  0  0  0
 22 25  2  0  0  0  0
 22 40  1  0  0  0  0
 23 41  1  0  0  0  0
 23 42  1  0  0  0  0
 24 26  2  0  0  0  0
 25 26  1  0  0  0  0
 25 43  1  0  0  0  0
 27 45  1  0  0  0  0
 27 46  1  0  0  0  0
 27 47  1  0  0  0  0
M  END
> <PUBCHEM_COMPOUND_CID>
443019

> <PUBCHEM_COMPOUND_CANONICALIZED>
1

> <PUBCHEM_CACTVS_COMPLEXITY>
517

> <PUBCHEM_CACTVS_HBOND_ACCEPTOR>
7

> <PUBCHEM_CACTVS_HBOND_DONOR>
1

> <PUBCHEM_CACTVS_ROTATABLE_BOND>
4

> <PUBCHEM_CACTVS_SUBSKEYS>
AAADceB4OAAAAAAAAAAAAAAAAAAAASJEgAAwYAAAAAASAEgBQAAAGgAACAAADRSwmAMyDoAABgCAAiBCAAACCAAgIAAIiAAGiIgdJyKGMRqieCOlwBUPuAfA4PwOoQABCAAAQABCAAIQAACAAAAAAAAAAA==

> <PUBCHEM_IUPAC_OPENEYE_NAME>
4-[[(3S,3aR,6R,6aR)-3-(1,3-benzodioxol-5-yl)-1,3,3a,4,6,6a-hexahydrofuro[3,4-c]furan-6-yl]oxy]-2-methoxy-phenol

> <PUBCHEM_IUPAC_CAS_NAME>
4-[[(3S,3aR,6R,6aR)-3-(1,3-benzodioxol-5-yl)-1,3,3a,4,6,6a-hexahydrofuro[3,4-c]furan-6-yl]oxy]-2-methoxyphenol

> <PUBCHEM_IUPAC_NAME>
4-[[(3S,3aR,6R,6aR)-3-(1,3-benzodioxol-5-yl)-1,3,3a,4,6,6a-hexahydrofuro[3,4-c]furan-6-yl]oxy]-2-methoxyphenol

> <PUBCHEM_IUPAC_SYSTEMATIC_NAME>
4-[[(3S,3aR,6R,6aR)-3-(1,3-benzodioxol-5-yl)-1,3,3a,4,6,6a-hexahydrofuro[3,4-c]furan-6-yl]oxy]-2-methoxy-phenol

> <PUBCHEM_IUPAC_TRADITIONAL_NAME>
4-[[(3S,3aR,6R,6aR)-3-(1,3-benzodioxol-5-yl)-1,3,3a,4,6,6a-hexahydrofuro[3,4-c]furan-6-yl]oxy]-2-methoxy-phenol

> <PUBCHEM_IUPAC_INCHI>
InChI=1S/C20H20O7/c1-22-17-7-12(3-4-15(17)21)27-20-14-9-23-19(13(14)8-24-20)11-2-5-16-18(6-11)26-10-25-16/h2-7,13-14,19-21H,8-10H2,1H3/t13-,14-,19+,20+/m0/s1

> <PUBCHEM_IUPAC_INCHIKEY>
OJVGWDJIYBTWDS-AFHBHXEDSA-N

> <PUBCHEM_XLOGP3_AA>
2.8

> <PUBCHEM_EXACT_MASS>
372.120903

> <PUBCHEM_MOLECULAR_FORMULA>
C20H20O7

> <PUBCHEM_MOLECULAR_WEIGHT>
372.3686

> <PUBCHEM_OPENEYE_CAN_SMILES>
COC1=C(C=CC(=C1)OC2C3COC(C3CO2)C4=CC5=C(C=C4)OCO5)O

> <PUBCHEM_OPENEYE_ISO_SMILES>
COC1=C(C=CC(=C1)O[C@@H]2[C@H]3CO[C@@H]([C@H]3CO2)C4=CC5=C(C=C4)OCO5)O

> <PUBCHEM_CACTVS_TPSA>
75.6

> <PUBCHEM_MONOISOTOPIC_WEIGHT>
372.120903

> <PUBCHEM_TOTAL_CHARGE>
0

> <PUBCHEM_HEAVY_ATOM_COUNT>
27

> <PUBCHEM_ATOM_DEF_STEREO_COUNT>
4

> <PUBCHEM_ATOM_UDEF_STEREO_COUNT>
0

> <PUBCHEM_BOND_DEF_STEREO_COUNT>
0

> <PUBCHEM_BOND_UDEF_STEREO_COUNT>
0

> <PUBCHEM_ISOTOPIC_ATOM_COUNT>
0

> <PUBCHEM_COMPONENT_COUNT>
1

> <PUBCHEM_CACTVS_TAUTO_COUNT>
3

> <PUBCHEM_COORDINATE_TYPE>
1
5
255

> <PUBCHEM_BONDANNOTATIONS>
10  14  6
14  15  8
14  16  8
15  18  8
16  19  8
17  21  8
17  22  8
18  20  8
19  20  8
21  24  8
22  25  8
24  26  8
25  26  8
11  3  6
8  28  6
9  29  6

$$$$

