   Color/Form

     * White crystals
     * Free flowing meal with a slight yellow color
     * Pale yellow crystals from ethanol

   from [1]HSDB

   Odor

     * No noticeable odor
     * Odorless

   from [2]HSDB

   Melting Point
        150-151 deg C
   from [3]HSDB

   Solubilities

     * Soluble in chloroform, acetone; moderately soluble in aromatic
       hydrocarbons. Insoluble in water.
     * In dichloromethane 300-400, chloroform 200-300, methanol 2.3-3.4,
       heavy aromatic naphtha 1.2-1.3 (all in g/l).
     * In water, <0.01 mg/l

   from [4]HSDB

   Vapor Pressure
        9.7X10-8 mm Hg @ 25 deg C
   from [5]HSDB

   Other Chemical/Physical Properties
        Decomposed by UV light
   from [6]HSDB

   Computed Properties
   Molecular Weight                  577.93029 [g/mol]
   Molecular Formula                 C[14]H[7]Br[3]F[3]N[3]O[4]
   XLogP3-AA                         6.2
   H-Bond Donor                      0
   H-Bond Acceptor                   8
   Rotatable Bond Count              2
   Exact Mass                        576.79183
   MonoIsotopic Mass                 574.793877
   Topological Polar Surface Area    94.9
   Heavy Atom Count                  27
   Formal Charge                     0
   Complexity                        563
   Isotope Atom Count                0
   Defined Atom Stereocenter Count   0
   Undefined Atom Stereocenter Count 0
   Defined Bond Stereocenter Count   0
   Undefined Bond Stereocenter Count 0
   Covalently-Bonded Unit Count      1
   Feature 3D Acceptor Count         4
   Feature 3D Anion Count            2
   Feature 3D Cation Count           1
   Feature 3D Hydrophobe Count       3
   Feature 3D Ring Count             2
   Effective Rotor Count             5
   Conformer Sampling RMSD           0.8
   CID Conformer Count               [7]2

References

   1. http://toxnet.nlm.nih.gov/cgi-bin/sis/search/r?dbs+hsdb:@term+@rn+@rel+63333-35-7
   2. http://toxnet.nlm.nih.gov/cgi-bin/sis/search/r?dbs+hsdb:@term+@rn+@rel+63333-35-7
   3. http://toxnet.nlm.nih.gov/cgi-bin/sis/search/r?dbs+hsdb:@term+@rn+@rel+63333-35-7
   4. http://toxnet.nlm.nih.gov/cgi-bin/sis/search/r?dbs+hsdb:@term+@rn+@rel+63333-35-7
   5. http://toxnet.nlm.nih.gov/cgi-bin/sis/search/r?dbs+hsdb:@term+@rn+@rel+63333-35-7
   6. http://toxnet.nlm.nih.gov/cgi-bin/sis/search/r?dbs+hsdb:@term+@rn+@rel+63333-35-7
   7. http://pubchem.ncbi.nlm.nih.gov/vw3d/vw3d.cgi?cid=44465
