   Color/Form

     * Colorless crystals or white granules or powder
     * Cubic crystals

   from [1]HSDB

   Odor
        ODORLESS
   from [2]HSDB

   Taste
        Pungent, strong, bitter, saline
   from [3]HSDB

   Boiling Point
        1435 deg C
   from [4]HSDB

   Melting Point
        730 deg C
   from [5]HSDB

   Critical Temperature and Pressure
        Critical temperature = 3520.00 K; critical pressure = 1.1552X10+7
   Pa
   from [6]HSDB

   Density/Specific Gravity
        2.74 at 25 DEG C
   from [7]HSDB

   Solubilities

     * 1 g dissolves in 1.5 ml water, 1 ml boiling water, 250 ml alc, 21
       ml boiling alc, 4.6 ml glycerol
     * Sparingly sol in ethanol, diethyl ether
     * In water, 67.8 g/100 g at 25 deg C

   from [8]HSDB

   Spectral Properties
        Index of refraction = 1.559
   from [9]HSDB

   Vapor Pressure
        1 mm Hg at 795 deg C
   from [10]HSDB

   Other Chemical/Physical Properties

     * Slightly hygroscopic
     * Aq solution in neutral

   from [11]HSDB

   Computed Properties
   Molecular Weight                  119.0023 [g/mol]
   Molecular Formula                 BrK
   H-Bond Donor                      0
   H-Bond Acceptor                   1
   Rotatable Bond Count              0
   Exact Mass                        117.882044
   MonoIsotopic Mass                 117.882044
   Topological Polar Surface Area    0
   Heavy Atom Count                  2
   Formal Charge                     0
   Complexity                        2
   Isotope Atom Count                0
   Defined Atom Stereocenter Count   0
   Undefined Atom Stereocenter Count 0
   Defined Bond Stereocenter Count   0
   Undefined Bond Stereocenter Count 0
   Covalently-Bonded Unit Count      2

References

   1. http://toxnet.nlm.nih.gov/cgi-bin/sis/search/r?dbs+hsdb:@term+@rn+@rel+7758-02-3
   2. http://toxnet.nlm.nih.gov/cgi-bin/sis/search/r?dbs+hsdb:@term+@rn+@rel+7758-02-3
   3. http://toxnet.nlm.nih.gov/cgi-bin/sis/search/r?dbs+hsdb:@term+@rn+@rel+7758-02-3
   4. http://toxnet.nlm.nih.gov/cgi-bin/sis/search/r?dbs+hsdb:@term+@rn+@rel+7758-02-3
   5. http://toxnet.nlm.nih.gov/cgi-bin/sis/search/r?dbs+hsdb:@term+@rn+@rel+7758-02-3
   6. http://toxnet.nlm.nih.gov/cgi-bin/sis/search/r?dbs+hsdb:@term+@rn+@rel+7758-02-3
   7. http://toxnet.nlm.nih.gov/cgi-bin/sis/search/r?dbs+hsdb:@term+@rn+@rel+7758-02-3
   8. http://toxnet.nlm.nih.gov/cgi-bin/sis/search/r?dbs+hsdb:@term+@rn+@rel+7758-02-3
   9. http://toxnet.nlm.nih.gov/cgi-bin/sis/search/r?dbs+hsdb:@term+@rn+@rel+7758-02-3
  10. http://toxnet.nlm.nih.gov/cgi-bin/sis/search/r?dbs+hsdb:@term+@rn+@rel+7758-02-3
  11. http://toxnet.nlm.nih.gov/cgi-bin/sis/search/r?dbs+hsdb:@term+@rn+@rel+7758-02-3
