227830
  -OEChem-07051212572D

 44 47  0     1  0  0  0  0  0999 V2000
    3.3027   -0.7047    0.0000 O   0  0  0  0  0  0  0  0  0  0  0  0
    6.3030   -0.8334    0.0000 O   0  0  0  0  0  0  0  0  0  0  0  0
    2.8939   -2.0536    0.0000 O   0  0  0  0  0  0  0  0  0  0  0  0
    6.0624   -2.5730    0.0000 O   0  0  0  0  0  0  0  0  0  0  0  0
    2.0000    0.7928    0.0000 O   0  0  0  0  0  0  0  0  0  0  0  0
    4.8888   -0.4183    0.0000 C   0  0  2  0  0  0  0  0  0  0  0  0
    3.9878    0.0156    0.0000 C   0  0  2  0  0  0  0  0  0  0  0  0
    4.7528   -1.4030    0.0000 C   0  0  2  0  0  0  0  0  0  0  0  0
    3.7653    0.9905    0.0000 C   0  0  1  0  0  0  0  0  0  0  0  0
    5.7898    0.0156    0.0000 C   0  0  2  0  0  0  0  0  0  0  0  0
    4.3888    1.7723    0.0000 C   0  0  2  0  0  0  0  0  0  0  0  0
    3.7745   -1.5797    0.0000 C   0  0  3  0  0  0  0  0  0  0  0  0
    5.3888    1.7723    0.0000 C   0  0  1  0  0  0  0  0  0  0  0  0
    6.0123    0.9905    0.0000 C   0  0  0  0  0  0  0  0  0  0  0  0
    5.7175   -1.6344    0.0000 C   0  0  0  0  0  0  0  0  0  0  0  0
    5.0316   -2.3634    0.0000 C   0  0  0  0  0  0  0  0  0  0  0  0
    2.8355    1.3422    0.0000 C   0  0  0  0  0  0  0  0  0  0  0  0
    3.1418    0.2087    0.0000 C   0  0  0  0  0  0  0  0  0  0  0  0
    3.8390    2.6005    0.0000 C   0  0  0  0  0  0  0  0  0  0  0  0
    3.9531   -2.5636    0.0000 C   0  0  0  0  0  0  0  0  0  0  0  0
    5.8227    2.6733    0.0000 C   0  0  0  0  0  0  0  0  0  0  0  0
    2.8810    2.3352    0.0000 C   0  0  0  0  0  0  0  0  0  0  0  0
    4.1230   -0.7871    0.0000 H   0  0  0  0  0  0  0  0  0  0  0  0
    3.1682    0.2406    0.0000 H   0  0  0  0  0  0  0  0  0  0  0  0
    6.6290    0.1507    0.0000 H   0  0  0  0  0  0  0  0  0  0  0  0
    4.7906    2.5214    0.0000 H   0  0  0  0  0  0  0  0  0  0  0  0
    5.0589    2.2973    0.0000 H   0  0  0  0  0  0  0  0  0  0  0  0
    6.5709    0.7215    0.0000 H   0  0  0  0  0  0  0  0  0  0  0  0
    6.3989    1.4752    0.0000 H   0  0  0  0  0  0  0  0  0  0  0  0
    4.4361   -2.5362    0.0000 H   0  0  0  0  0  0  0  0  0  0  0  0
    5.2044   -2.9588    0.0000 H   0  0  0  0  0  0  0  0  0  0  0  0
    5.6270   -2.1906    0.0000 H   0  0  0  0  0  0  0  0  0  0  0  0
    2.6571    0.5952    0.0000 H   0  0  0  0  0  0  0  0  0  0  0  0
    2.7553   -0.2761    0.0000 H   0  0  0  0  0  0  0  0  0  0  0  0
    3.6266   -0.1779    0.0000 H   0  0  0  0  0  0  0  0  0  0  0  0
    4.0559    3.1814    0.0000 H   0  0  0  0  0  0  0  0  0  0  0  0
    3.3431   -2.6743    0.0000 H   0  0  0  0  0  0  0  0  0  0  0  0
    4.0638   -3.1737    0.0000 H   0  0  0  0  0  0  0  0  0  0  0  0
    4.5631   -2.4529    0.0000 H   0  0  0  0  0  0  0  0  0  0  0  0
    6.3813    2.4043    0.0000 H   0  0  0  0  0  0  0  0  0  0  0  0
    6.0917    3.2319    0.0000 H   0  0  0  0  0  0  0  0  0  0  0  0
    5.2641    2.9423    0.0000 H   0  0  0  0  0  0  0  0  0  0  0  0
    2.3963    2.7218    0.0000 H   0  0  0  0  0  0  0  0  0  0  0  0
    2.8754   -2.6733    0.0000 H   0  0  0  0  0  0  0  0  0  0  0  0
  1  7  1  0  0  0  0
  1 12  1  0  0  0  0
  2 10  1  0  0  0  0
  2 15  1  0  0  0  0
  3 12  1  0  0  0  0
  3 44  1  0  0  0  0
  4 15  2  0  0  0  0
  5 17  2  0  0  0  0
  6  7  1  0  0  0  0
  6  8  1  0  0  0  0
  6 10  1  0  0  0  0
  6 23  1  6  0  0  0
  7  9  1  0  0  0  0
  7 24  1  6  0  0  0
  8 12  1  0  0  0  0
  8 15  1  0  0  0  0
  8 16  1  6  0  0  0
  9 11  1  0  0  0  0
  9 17  1  0  0  0  0
  9 18  1  1  0  0  0
 10 14  1  0  0  0  0
 10 25  1  1  0  0  0
 11 13  1  0  0  0  0
 11 19  1  0  0  0  0
 11 26  1  6  0  0  0
 12 20  1  0  0  0  0
 13 14  1  0  0  0  0
 13 21  1  6  0  0  0
 13 27  1  0  0  0  0
 14 28  1  0  0  0  0
 14 29  1  0  0  0  0
 16 30  1  0  0  0  0
 16 31  1  0  0  0  0
 16 32  1  0  0  0  0
 17 22  1  0  0  0  0
 18 33  1  0  0  0  0
 18 34  1  0  0  0  0
 18 35  1  0  0  0  0
 19 22  2  0  0  0  0
 19 36  1  0  0  0  0
 20 37  1  0  0  0  0
 20 38  1  0  0  0  0
 20 39  1  0  0  0  0
 21 40  1  0  0  0  0
 21 41  1  0  0  0  0
 21 42  1  0  0  0  0
 22 43  1  0  0  0  0
M  END
> <PUBCHEM_COMPOUND_CID>
227830

> <PUBCHEM_COMPOUND_CANONICALIZED>
1

> <PUBCHEM_CACTVS_COMPLEXITY>
612

> <PUBCHEM_CACTVS_HBOND_ACCEPTOR>
5

> <PUBCHEM_CACTVS_HBOND_DONOR>
1

> <PUBCHEM_CACTVS_ROTATABLE_BOND>
0

> <PUBCHEM_CACTVS_SUBSKEYS>
AAADceB4OAAAAAAAAAAAAAAAAAAAASJEAAAAAAAABgASAACQAAAAGgAACAAADxSggAICCAAABgCIAKDSCAAAAAAgAAAICAEAAEgQABYAAQACQAAFoAAMAYPKzPDPgAAAAAAAAAAAAAAAAAAAAAAAAAAAAA==

> <PUBCHEM_IUPAC_INCHI>
InChI=1S/C17H22O5/c1-8-7-10-12-13(15(2)9(8)5-6-11(15)18)22-17(4,20)16(12,3)14(19)21-10/h5-6,8-10,12-13,20H,7H2,1-4H3/t8-,9+,10+,12-,13-,15+,16+,17?/m1/s1

> <PUBCHEM_IUPAC_INCHIKEY>
CNIULSUYTFOEHN-MEBIVNBJSA-N

> <PUBCHEM_XLOGP3>
0.3

> <PUBCHEM_EXACT_MASS>
306.146724

> <PUBCHEM_MOLECULAR_FORMULA>
C17H22O5

> <PUBCHEM_MOLECULAR_WEIGHT>
306.35358

> <PUBCHEM_OPENEYE_CAN_SMILES>
CC1CC2C3C(C4(C1C=CC4=O)C)OC(C3(C(=O)O2)C)(C)O

> <PUBCHEM_OPENEYE_ISO_SMILES>
C[C@@H]1C[C@H]2[C@@H]3[C@H]([C@]4([C@H]1C=CC4=O)C)OC([C@@]3(C(=O)O2)C)(C)O

> <PUBCHEM_CACTVS_TPSA>
72.8

> <PUBCHEM_MONOISOTOPIC_WEIGHT>
306.146724

> <PUBCHEM_TOTAL_CHARGE>
0

> <PUBCHEM_HEAVY_ATOM_COUNT>
22

> <PUBCHEM_ATOM_DEF_STEREO_COUNT>
7

> <PUBCHEM_ATOM_UDEF_STEREO_COUNT>
1

> <PUBCHEM_BOND_DEF_STEREO_COUNT>
0

> <PUBCHEM_BOND_UDEF_STEREO_COUNT>
0

> <PUBCHEM_ISOTOPIC_ATOM_COUNT>
0

> <PUBCHEM_COMPONENT_COUNT>
1

> <PUBCHEM_CACTVS_TAUTO_COUNT>
3

> <PUBCHEM_COORDINATE_TYPE>
1
5
255

> <PUBCHEM_BONDANNOTATIONS>
10  25  5
11  26  6
12  20  3
13  21  6
6  23  6
7  24  6
8  16  6
9  18  5

$$$$

