   Color/Form
        HEXAKISTETRAHEDRAL CRYSTALS BY SUBLIMATION
   from [1]HSDB

   Melting Point
        160-190 deg C (closed tube); Also reported as 180-192 deg C
   from [2]HSDB

   Dissociation Constants
        pKa = 10.45 (est)
   from [3]HSDB

   Octanol/Water Partition Coefficient
        log Kow = 2.44
   from [4]HSDB

   Solubilities
        Sparingly sol in water
   from [5]HSDB

   Spectral Properties

     * IR: 7570 (Coblentz Society Infrared Spectral Database)
     * NMR: 15203 (Sadtler Research Laboratories Spectral Collection)
     * MASS: 90068 (NIST/EPA/MSDC Mass Spectral Database, 1990 version

   from [6]HSDB

   Vapor Pressure
        0.13 mm Hg at 25 deg C (est)
   from [7]HSDB

   Other Chemical/Physical Properties

     * Stable, white or nearly white crystalline powder. Crystals from abs
       ethanol+ anhydr ether. Decomp at 360 deg C. Practically insol in
       ether; sol in water (at least 1:20). /Hydrochloride/
     * ODORLESS; BITTER TASTE; DOES NOT MELT UP TO 300 DEG C, BUT SUBLIMES
       SLOWLY; PKA: 10.36 AT 30 DEG C; PH (1 IN 5 SOLN) BETWEEN 3.0 & 5.5.
       WHITE OR NEARLY WHITE CRYSTALLINE POWDER; 1 G IN 2.5 ML WATER, 5.1
       ML ALCOHOL, 18 ML CHLOROFORM, 70 ML POLYETHYLENE GLYCOL 400
       /AMANTADINE HYDROCHLORDIE/
     * IR: 7267 (Coblentz Society Infrared Spectral Database)
       /1-Aminoadamantane hydrochloride/
     * NMR: 11768 (Sadtler Research Laboratories Spectral Collection)
       /1-Aminoadamantane hydrochloride/
     * Henry's Law constant = 8.3X10-6 atm-cu m/mol at 25 deg C (est)
     * Hydroxyl radical reaction rate constant = 4.0X10-11 cu
       cm/molecule-sec at 25 deg C (est)

   from [8]HSDB

   Computed Properties
   Molecular Weight                  187.70962 [g/mol]
   Molecular Formula                 C[10]H[18]ClN
   H-Bond Donor                      2
   H-Bond Acceptor                   1
   Rotatable Bond Count              0
   Exact Mass                        187.112777
   MonoIsotopic Mass                 187.112777
   Topological Polar Surface Area    26
   Heavy Atom Count                  12
   Formal Charge                     0
   Complexity                        144
   Isotope Atom Count                0
   Defined Atom Stereocenter Count   0
   Undefined Atom Stereocenter Count 0
   Defined Bond Stereocenter Count   0
   Undefined Bond Stereocenter Count 0
   Covalently-Bonded Unit Count      2

References

   1. http://toxnet.nlm.nih.gov/cgi-bin/sis/search/r?dbs+hsdb:@term+@rn+@rel+768-94-5
   2. http://toxnet.nlm.nih.gov/cgi-bin/sis/search/r?dbs+hsdb:@term+@rn+@rel+768-94-5
   3. http://toxnet.nlm.nih.gov/cgi-bin/sis/search/r?dbs+hsdb:@term+@rn+@rel+768-94-5
   4. http://toxnet.nlm.nih.gov/cgi-bin/sis/search/r?dbs+hsdb:@term+@rn+@rel+768-94-5
   5. http://toxnet.nlm.nih.gov/cgi-bin/sis/search/r?dbs+hsdb:@term+@rn+@rel+768-94-5
   6. http://toxnet.nlm.nih.gov/cgi-bin/sis/search/r?dbs+hsdb:@term+@rn+@rel+768-94-5
   7. http://toxnet.nlm.nih.gov/cgi-bin/sis/search/r?dbs+hsdb:@term+@rn+@rel+768-94-5
   8. http://toxnet.nlm.nih.gov/cgi-bin/sis/search/r?dbs+hsdb:@term+@rn+@rel+768-94-5
