5280711
  -OEChem-07051212492D

 57 57  0     1  0  0  0  0  0999 V2000
    8.4980   -4.2007    0.0000 O   0  0  0  0  0  0  0  0  0  0  0  0
   11.3459   -2.1316    0.0000 O   0  0  0  0  0  0  0  0  0  0  0  0
    5.9236   -1.5136    0.0000 O   0  0  0  0  0  0  0  0  0  0  0  0
    7.8538    4.1471    0.0000 O   0  0  0  0  0  0  0  0  0  0  0  0
    9.5858    4.1471    0.0000 O   0  0  0  0  0  0  0  0  0  0  0  0
    8.7768   -2.4407    0.0000 C   0  0  2  0  0  0  0  0  0  0  0  0
    9.5858   -1.8529    0.0000 C   0  0  2  0  0  0  0  0  0  0  0  0
    9.0858   -3.3917    0.0000 C   0  0  1  0  0  0  0  0  0  0  0  0
   10.0858   -3.3917    0.0000 C   0  0  0  0  0  0  0  0  0  0  0  0
    7.8258   -2.1316    0.0000 C   0  0  0  0  0  0  0  0  0  0  0  0
   10.3948   -2.4407    0.0000 C   0  0  0  0  0  0  0  0  0  0  0  0
    9.5858   -0.8529    0.0000 C   0  0  0  0  0  0  0  0  0  0  0  0
    7.0826   -2.8008    0.0000 C   0  0  0  0  0  0  0  0  0  0  0  0
   10.4518   -0.3529    0.0000 C   0  0  0  0  0  0  0  0  0  0  0  0
    6.1316   -2.4918    0.0000 C   0  0  0  0  0  0  0  0  0  0  0  0
    5.3884   -3.1609    0.0000 C   0  0  0  0  0  0  0  0  0  0  0  0
   10.4518    0.6471    0.0000 C   0  0  0  0  0  0  0  0  0  0  0  0
    4.4374   -2.8519    0.0000 C   0  0  0  0  0  0  0  0  0  0  0  0
    9.5858    1.1471    0.0000 C   0  0  0  0  0  0  0  0  0  0  0  0
    3.6942   -3.5210    0.0000 C   0  0  0  0  0  0  0  0  0  0  0  0
    9.5858    2.1471    0.0000 C   0  0  0  0  0  0  0  0  0  0  0  0
    2.7431   -3.2120    0.0000 C   0  0  0  0  0  0  0  0  0  0  0  0
    8.7198    2.6471    0.0000 C   0  0  0  0  0  0  0  0  0  0  0  0
    2.0000   -3.8811    0.0000 C   0  0  0  0  0  0  0  0  0  0  0  0
    8.7198    3.6471    0.0000 C   0  0  0  0  0  0  0  0  0  0  0  0
    8.3384   -2.8791    0.0000 H   0  0  0  0  0  0  0  0  0  0  0  0
    9.0334   -1.5714    0.0000 H   0  0  0  0  0  0  0  0  0  0  0  0
    8.4735   -3.2947    0.0000 H   0  0  0  0  0  0  0  0  0  0  0  0
   10.0210   -4.0083    0.0000 H   0  0  0  0  0  0  0  0  0  0  0  0
   10.6923   -3.5206    0.0000 H   0  0  0  0  0  0  0  0  0  0  0  0
    8.1168   -1.5842    0.0000 H   0  0  0  0  0  0  0  0  0  0  0  0
    7.3372   -1.7499    0.0000 H   0  0  0  0  0  0  0  0  0  0  0  0
    9.3738   -0.2703    0.0000 H   0  0  0  0  0  0  0  0  0  0  0  0
    8.9752   -0.9605    0.0000 H   0  0  0  0  0  0  0  0  0  0  0  0
    6.7915   -3.3482    0.0000 H   0  0  0  0  0  0  0  0  0  0  0  0
    7.5712   -3.1825    0.0000 H   0  0  0  0  0  0  0  0  0  0  0  0
    8.7502   -4.7671    0.0000 H   0  0  0  0  0  0  0  0  0  0  0  0
   10.9888   -0.6629    0.0000 H   0  0  0  0  0  0  0  0  0  0  0  0
    5.0973   -3.7083    0.0000 H   0  0  0  0  0  0  0  0  0  0  0  0
    5.8770   -3.5426    0.0000 H   0  0  0  0  0  0  0  0  0  0  0  0
   10.9888    0.9571    0.0000 H   0  0  0  0  0  0  0  0  0  0  0  0
    4.7284   -2.3044    0.0000 H   0  0  0  0  0  0  0  0  0  0  0  0
    3.9488   -2.4702    0.0000 H   0  0  0  0  0  0  0  0  0  0  0  0
    8.9752    1.2548    0.0000 H   0  0  0  0  0  0  0  0  0  0  0  0
    9.3738    0.5645    0.0000 H   0  0  0  0  0  0  0  0  0  0  0  0
    3.4031   -4.0684    0.0000 H   0  0  0  0  0  0  0  0  0  0  0  0
    4.1828   -3.9027    0.0000 H   0  0  0  0  0  0  0  0  0  0  0  0
   10.1964    2.0395    0.0000 H   0  0  0  0  0  0  0  0  0  0  0  0
    9.7979    2.7297    0.0000 H   0  0  0  0  0  0  0  0  0  0  0  0
    3.0342   -2.6646    0.0000 H   0  0  0  0  0  0  0  0  0  0  0  0
    2.2546   -2.8303    0.0000 H   0  0  0  0  0  0  0  0  0  0  0  0
    8.1092    2.7548    0.0000 H   0  0  0  0  0  0  0  0  0  0  0  0
    8.5077    2.0645    0.0000 H   0  0  0  0  0  0  0  0  0  0  0  0
    1.5851   -3.4204    0.0000 H   0  0  0  0  0  0  0  0  0  0  0  0
    1.5392   -4.2960    0.0000 H   0  0  0  0  0  0  0  0  0  0  0  0
    2.4149   -4.3419    0.0000 H   0  0  0  0  0  0  0  0  0  0  0  0
    7.8538    4.7671    0.0000 H   0  0  0  0  0  0  0  0  0  0  0  0
  8  1  1  1  0  0  0
  1 37  1  0  0  0  0
  2 11  2  0  0  0  0
  3 15  2  0  0  0  0
  4 25  1  0  0  0  0
  4 57  1  0  0  0  0
  5 25  2  0  0  0  0
  6  7  1  0  0  0  0
  6  8  1  0  0  0  0
  6 10  1  6  0  0  0
  6 26  1  0  0  0  0
  7 11  1  0  0  0  0
  7 12  1  1  0  0  0
  7 27  1  0  0  0  0
  8  9  1  0  0  0  0
  8 28  1  0  0  0  0
  9 11  1  0  0  0  0
  9 29  1  0  0  0  0
  9 30  1  0  0  0  0
 10 13  1  0  0  0  0
 10 31  1  0  0  0  0
 10 32  1  0  0  0  0
 12 14  1  0  0  0  0
 12 33  1  0  0  0  0
 12 34  1  0  0  0  0
 13 15  1  0  0  0  0
 13 35  1  0  0  0  0
 13 36  1  0  0  0  0
 14 17  2  0  0  0  0
 14 38  1  0  0  0  0
 15 16  1  0  0  0  0
 16 18  1  0  0  0  0
 16 39  1  0  0  0  0
 16 40  1  0  0  0  0
 17 19  1  0  0  0  0
 17 41  1  0  0  0  0
 18 20  1  0  0  0  0
 18 42  1  0  0  0  0
 18 43  1  0  0  0  0
 19 21  1  0  0  0  0
 19 44  1  0  0  0  0
 19 45  1  0  0  0  0
 20 22  1  0  0  0  0
 20 46  1  0  0  0  0
 20 47  1  0  0  0  0
 21 23  1  0  0  0  0
 21 48  1  0  0  0  0
 21 49  1  0  0  0  0
 22 24  1  0  0  0  0
 22 50  1  0  0  0  0
 22 51  1  0  0  0  0
 23 25  1  0  0  0  0
 23 52  1  0  0  0  0
 23 53  1  0  0  0  0
 24 54  1  0  0  0  0
 24 55  1  0  0  0  0
 24 56  1  0  0  0  0
M  END
> <PUBCHEM_COMPOUND_CID>
5280711

> <PUBCHEM_COMPOUND_CANONICALIZED>
1

> <PUBCHEM_CACTVS_COMPLEXITY>
469

> <PUBCHEM_CACTVS_HBOND_ACCEPTOR>
5

> <PUBCHEM_CACTVS_HBOND_DONOR>
2

> <PUBCHEM_CACTVS_ROTATABLE_BOND>
13

> <PUBCHEM_CACTVS_SUBSKEYS>
AAADcfB4OAAAAAAAAAAAAAAAAAAAAYAAAAAAAAAAAAAAAAAAAAAAGgAACAAADRSggAICCAAAAgCIAKDSCAAAAAAgAAAICAEAAAgAEBYAAQAAQAAEoAAIAAOKzODOgAAAAAAAAAAAAAAAAAAAAIAADAAAAA==

> <PUBCHEM_IUPAC_OPENEYE_NAME>
(Z)-7-[(1R,2R,3R)-3-hydroxy-5-oxo-2-(3-oxooctyl)cyclopentyl]hept-5-enoic acid

> <PUBCHEM_IUPAC_CAS_NAME>
(Z)-7-[(1R,2R,3R)-3-hydroxy-5-oxo-2-(3-oxooctyl)cyclopentyl]-5-heptenoic acid

> <PUBCHEM_IUPAC_NAME>
(Z)-7-[(1R,2R,3R)-3-hydroxy-5-oxo-2-(3-oxooctyl)cyclopentyl]hept-5-enoic acid

> <PUBCHEM_IUPAC_SYSTEMATIC_NAME>
(Z)-7-[(1R,2R,3R)-3-oxidanyl-5-oxidanylidene-2-(3-oxidanylideneoctyl)cyclopentyl]hept-5-enoic acid

> <PUBCHEM_IUPAC_TRADITIONAL_NAME>
(Z)-7-[(1R,2R,3R)-3-hydroxy-5-keto-2-(3-ketooctyl)cyclopentyl]hept-5-enoic acid

> <PUBCHEM_IUPAC_INCHI>
InChI=1S/C20H32O5/c1-2-3-6-9-15(21)12-13-17-16(18(22)14-19(17)23)10-7-4-5-8-11-20(24)25/h4,7,16-17,19,23H,2-3,5-6,8-14H2,1H3,(H,24,25)/b7-4-/t16-,17-,19-/m1/s1

> <PUBCHEM_IUPAC_INCHIKEY>
CUJMXIQZWPZMNQ-XYYGWQPLSA-N

> <PUBCHEM_XLOGP3_AA>
2.4

> <PUBCHEM_EXACT_MASS>
352.224974

> <PUBCHEM_MOLECULAR_FORMULA>
C20H32O5

> <PUBCHEM_MOLECULAR_WEIGHT>
352.46508

> <PUBCHEM_OPENEYE_CAN_SMILES>
CCCCCC(=O)CCC1C(CC(=O)C1CC=CCCCC(=O)O)O

> <PUBCHEM_OPENEYE_ISO_SMILES>
CCCCCC(=O)CC[C@H]1[C@@H](CC(=O)[C@@H]1C/C=C\CCCC(=O)O)O

> <PUBCHEM_CACTVS_TPSA>
91.7

> <PUBCHEM_MONOISOTOPIC_WEIGHT>
352.224974

> <PUBCHEM_TOTAL_CHARGE>
0

> <PUBCHEM_HEAVY_ATOM_COUNT>
25

> <PUBCHEM_ATOM_DEF_STEREO_COUNT>
3

> <PUBCHEM_ATOM_UDEF_STEREO_COUNT>
0

> <PUBCHEM_BOND_DEF_STEREO_COUNT>
1

> <PUBCHEM_BOND_UDEF_STEREO_COUNT>
0

> <PUBCHEM_ISOTOPIC_ATOM_COUNT>
0

> <PUBCHEM_COMPONENT_COUNT>
1

> <PUBCHEM_CACTVS_TAUTO_COUNT>
9

> <PUBCHEM_COORDINATE_TYPE>
1
5
255

> <PUBCHEM_BONDANNOTATIONS>
8  1  5
6  10  6
7  12  5

$$$$

