46173836
  -OEChem-07051213092D

 54 59  0     1  0  0  0  0  0999 V2000
    6.3423    1.6778    0.0000 O   0  0  0  0  0  0  0  0  0  0  0  0
    4.6512   -0.7913    0.0000 O   0  0  0  0  0  0  0  0  0  0  0  0
    8.1324    1.0961    0.0000 O   0  0  0  0  0  0  0  0  0  0  0  0
    3.2568    0.1550    0.0000 O   0  0  0  0  0  0  0  0  0  0  0  0
    5.0470   -1.4266    0.0000 O   0  0  0  0  0  0  0  0  0  0  0  0
    6.3423   -2.3678    0.0000 O   0  0  0  0  0  0  0  0  0  0  0  0
    7.6377   -1.4266    0.0000 O   0  0  0  0  0  0  0  0  0  0  0  0
    3.7551    0.8622    0.0000 O   0  0  0  0  0  0  0  0  0  0  0  0
    9.3893   -0.1540    0.0000 O   0  0  0  0  0  0  0  0  0  0  0  0
    2.0000    1.4051    0.0000 O   0  0  0  0  0  0  0  0  0  0  0  0
    5.8475    0.1550    0.0000 C   0  0  3  0  0  0  0  0  0  0  0  0
    6.8371    0.1550    0.0000 C   0  0  3  0  0  0  0  0  0  0  0  0
    5.5418    1.0961    0.0000 C   0  0  2  0  0  0  0  0  0  0  0  0
    5.5418   -0.7861    0.0000 C   0  0  1  0  0  0  0  0  0  0  0  0
    7.1429   -0.7861    0.0000 C   0  0  1  0  0  0  0  0  0  0  0  0
    5.0470   -0.4266    0.0000 C   0  0  3  0  0  0  0  0  0  0  0  0
    4.5522    1.0961    0.0000 C   0  0  2  0  0  0  0  0  0  0  0  0
    7.1429    1.0961    0.0000 C   0  0  2  0  0  0  0  0  0  0  0  0
    6.3423   -1.3678    0.0000 C   0  0  1  0  0  0  0  0  0  0  0  0
    4.2464    0.1550    0.0000 C   0  0  1  0  0  0  0  0  0  0  0  0
    7.6377   -0.4266    0.0000 C   0  0  3  0  0  0  0  0  0  0  0  0
    4.6512    0.4182    0.0000 C   0  0  0  0  0  0  0  0  0  0  0  0
    8.0939   -1.0952    0.0000 C   0  0  0  0  0  0  0  0  0  0  0  0
    3.7516    1.6778    0.0000 C   0  0  1  0  0  0  0  0  0  0  0  0
    8.4382    0.1550    0.0000 C   0  0  0  0  0  0  0  0  0  0  0  0
    2.9511    1.0961    0.0000 C   0  0  0  0  0  0  0  0  0  0  0  0
    9.0450   -1.4042    0.0000 C   0  0  0  0  0  0  0  0  0  0  0  0
    7.7849   -2.0462    0.0000 C   0  0  0  0  0  0  0  0  0  0  0  0
    8.9420   -0.5652    0.0000 C   0  0  0  0  0  0  0  0  0  0  0  0
    3.7516    2.6778    0.0000 C   0  0  0  0  0  0  0  0  0  0  0  0
    5.2814   -1.5953    0.0000 H   0  0  0  0  0  0  0  0  0  0  0  0
    7.5813   -0.3477    0.0000 H   0  0  0  0  0  0  0  0  0  0  0  0
    4.2896   -0.8125    0.0000 H   0  0  0  0  0  0  0  0  0  0  0  0
    4.8149    1.9045    0.0000 H   0  0  0  0  0  0  0  0  0  0  0  0
    7.4056    1.9045    0.0000 H   0  0  0  0  0  0  0  0  0  0  0  0
    5.7899   -1.6492    0.0000 H   0  0  0  0  0  0  0  0  0  0  0  0
    3.9837   -0.6534    0.0000 H   0  0  0  0  0  0  0  0  0  0  0  0
    6.8803   -0.8125    0.0000 H   0  0  0  0  0  0  0  0  0  0  0  0
    4.3040    1.9592    0.0000 H   0  0  0  0  0  0  0  0  0  0  0  0
    4.5100   -1.7366    0.0000 H   0  0  0  0  0  0  0  0  0  0  0  0
    5.8054   -2.6778    0.0000 H   0  0  0  0  0  0  0  0  0  0  0  0
    9.2705   -1.0910    0.0000 H   0  0  0  0  0  0  0  0  0  0  0  0
    9.4678   -0.2367    0.0000 H   0  0  0  0  0  0  0  0  0  0  0  0
    8.6134   -0.0394    0.0000 H   0  0  0  0  0  0  0  0  0  0  0  0
    7.1952   -1.8546    0.0000 H   0  0  0  0  0  0  0  0  0  0  0  0
    7.5933   -2.6359    0.0000 H   0  0  0  0  0  0  0  0  0  0  0  0
    8.3746   -2.2378    0.0000 H   0  0  0  0  0  0  0  0  0  0  0  0
    8.8534   -1.9938    0.0000 H   0  0  0  0  0  0  0  0  0  0  0  0
    9.6346   -1.5958    0.0000 H   0  0  0  0  0  0  0  0  0  0  0  0
    9.2366   -0.8145    0.0000 H   0  0  0  0  0  0  0  0  0  0  0  0
    4.3716    2.6778    0.0000 H   0  0  0  0  0  0  0  0  0  0  0  0
    3.7516    3.2978    0.0000 H   0  0  0  0  0  0  0  0  0  0  0  0
    3.1316    2.6778    0.0000 H   0  0  0  0  0  0  0  0  0  0  0  0
    7.1007   -1.7366    0.0000 H   0  0  0  0  0  0  0  0  0  0  0  0
 13  1  1  1  0  0  0
  1 18  1  0  0  0  0
  2 14  1  0  0  0  0
  2 22  1  0  0  0  0
  3 18  1  0  0  0  0
  3 25  1  0  0  0  0
  4 20  1  0  0  0  0
  4 26  1  0  0  0  0
  5 16  1  0  0  0  0
  5 40  1  0  0  0  0
 19  6  1  1  0  0  0
  6 41  1  0  0  0  0
  7 21  1  0  0  0  0
  7 54  1  0  0  0  0
  8 22  2  0  0  0  0
  9 25  2  0  0  0  0
 10 26  2  0  0  0  0
 11 12  1  0  0  0  0
 11 13  1  0  0  0  0
 11 14  1  0  0  0  0
 11 16  1  0  0  0  0
 12 15  1  0  0  0  0
 12 18  1  0  0  0  0
 12 21  1  0  0  0  0
 13 17  1  0  0  0  0
 13 22  1  0  0  0  0
 14 19  1  0  0  0  0
 14 31  1  6  0  0  0
 15 19  1  0  0  0  0
 15 23  1  0  0  0  0
 15 32  1  0  0  0  0
 16 20  1  0  0  0  0
 16 33  1  0  0  0  0
 17 20  1  0  0  0  0
 17 24  1  0  0  0  0
 17 34  1  1  0  0  0
 18 35  1  1  0  0  0
 19 36  1  0  0  0  0
 20 37  1  1  0  0  0
 21 25  1  0  0  0  0
 21 38  1  0  0  0  0
 23 27  1  0  0  0  0
 23 28  1  0  0  0  0
 23 29  1  0  0  0  0
 24 26  1  0  0  0  0
 24 30  1  1  0  0  0
 24 39  1  0  0  0  0
 27 48  1  0  0  0  0
 27 49  1  0  0  0  0
 27 50  1  0  0  0  0
 28 45  1  0  0  0  0
 28 46  1  0  0  0  0
 28 47  1  0  0  0  0
 29 42  1  0  0  0  0
 29 43  1  0  0  0  0
 29 44  1  0  0  0  0
 30 51  1  0  0  0  0
 30 52  1  0  0  0  0
 30 53  1  0  0  0  0
M  END
> <PUBCHEM_COMPOUND_CID>
46173836

> <PUBCHEM_COMPOUND_CANONICALIZED>
1

> <PUBCHEM_CACTVS_COMPLEXITY>
910

> <PUBCHEM_CACTVS_HBOND_ACCEPTOR>
10

> <PUBCHEM_CACTVS_HBOND_DONOR>
3

> <PUBCHEM_CACTVS_ROTATABLE_BOND>
1

> <PUBCHEM_CACTVS_SUBSKEYS>
AAADceB4PAAAAAAAAAAAAAAAAAAAAaNEiRAAAAAAAAASJAAAAAAAGgAACAAAD1SwgAMCCAAABgAIAACQCAIAAAAAAAAAAAFAAAAREBIAAAQiQAAFAAAHAAHK7vzPgAAAAAAAAAAAAAAAAAAAAYQADCAAAA==

> <PUBCHEM_IUPAC_INCHI>
InChI=1S/C20H24O10/c1-5-6-8(27-13(5)24)10(22)19-12-7(21)9(17(2,3)4)18(19)11(23)14(25)29-16(18)30-20(6,19)15(26)28-12/h5-12,16,21-23H,1-4H3/t5-,6-,7+,8+,9-,10?,11?,12+,16-,18?,19?,20+/m0/s1

> <PUBCHEM_IUPAC_INCHIKEY>
KDKROYXEHCYLJQ-DWAYRYCKSA-N

> <PUBCHEM_XLOGP3_AA>
-0.3

> <PUBCHEM_EXACT_MASS>
424.136947

> <PUBCHEM_MOLECULAR_FORMULA>
C20H24O10

> <PUBCHEM_MOLECULAR_WEIGHT>
424.39856

> <PUBCHEM_OPENEYE_CAN_SMILES>
CC1C2C(C(C34C25C(=O)OC3C(C(C46C(C(=O)OC6O5)O)C(C)(C)C)O)O)OC1=O

> <PUBCHEM_OPENEYE_ISO_SMILES>
C[C@H]1[C@H]2[C@H](C(C34[C@]25C(=O)O[C@@H]3[C@@H]([C@H](C46[C@H](O5)OC(=O)C6O)C(C)(C)C)O)O)OC1=O

> <PUBCHEM_CACTVS_TPSA>
149

> <PUBCHEM_MONOISOTOPIC_WEIGHT>
424.136947

> <PUBCHEM_TOTAL_CHARGE>
0

> <PUBCHEM_HEAVY_ATOM_COUNT>
30

> <PUBCHEM_ATOM_DEF_STEREO_COUNT>
8

> <PUBCHEM_ATOM_UDEF_STEREO_COUNT>
4

> <PUBCHEM_BOND_DEF_STEREO_COUNT>
0

> <PUBCHEM_BOND_UDEF_STEREO_COUNT>
0

> <PUBCHEM_ISOTOPIC_ATOM_COUNT>
0

> <PUBCHEM_COMPONENT_COUNT>
1

> <PUBCHEM_CACTVS_TAUTO_COUNT>
6

> <PUBCHEM_COORDINATE_TYPE>
1
5
255

> <PUBCHEM_BONDANNOTATIONS>
13  1  5
11  16  3
12  15  3
14  31  6
16  33  3
17  34  5
18  35  5
20  37  5
21  38  3
24  30  5
19  6  5

$$$$

