64999
  -OEChem-07051213072D

116119  0     1  0  0  0  0  0999 V2000
    8.9282   -1.2500    0.0000 O   0  0  0  0  0  0  0  0  0  0  0  0
    6.3301   -1.7500    0.0000 O   0  0  0  0  0  0  0  0  0  0  0  0
    9.7942   -1.7500    0.0000 O   0  0  0  0  0  0  0  0  0  0  0  0
    5.4641   -1.2500    0.0000 O   0  0  0  0  0  0  0  0  0  0  0  0
   12.3923   -4.2500    0.0000 O   0  0  0  0  0  0  0  0  0  0  0  0
    2.8660    1.2500    0.0000 O   0  0  0  0  0  0  0  0  0  0  0  0
    8.9282   -3.2500    0.0000 N   0  0  0  0  0  0  0  0  0  0  0  0
    6.3301    0.2500    0.0000 N   0  0  0  0  0  0  0  0  0  0  0  0
   11.5263   -2.7500    0.0000 N   0  0  0  0  0  0  0  0  0  0  0  0
    4.5981    1.2500    0.0000 N   0  0  0  0  0  0  0  0  0  0  0  0
   13.2583   -2.7500    0.0000 N   0  0  0  0  0  0  0  0  0  0  0  0
    3.7320    2.7500    0.0000 N   0  0  0  0  0  0  0  0  0  0  0  0
   14.9904   -1.7500    0.0000 N   0  0  0  0  0  0  0  0  0  0  0  0
    3.7320    4.7500    0.0000 N   0  0  0  0  0  0  0  0  0  0  0  0
    8.0622   -1.7500    0.0000 C   0  0  2  0  0  0  0  0  0  0  0  0
    7.1962   -1.2500    0.0000 C   0  0  1  0  0  0  0  0  0  0  0  0
    8.0622   -2.7500    0.0000 C   0  0  2  0  0  0  0  0  0  0  0  0
    7.1962   -0.2500    0.0000 C   0  0  2  0  0  0  0  0  0  0  0  0
    7.1962   -3.2500    0.0000 C   0  0  0  0  0  0  0  0  0  0  0  0
    8.0622    0.2500    0.0000 C   0  0  0  0  0  0  0  0  0  0  0  0
   10.6603   -3.2500    0.0000 C   0  0  2  0  0  0  0  0  0  0  0  0
    4.5981    0.2500    0.0000 C   0  0  2  0  0  0  0  0  0  0  0  0
    9.7942   -2.7500    0.0000 C   0  0  0  0  0  0  0  0  0  0  0  0
    5.4641   -0.2500    0.0000 C   0  0  0  0  0  0  0  0  0  0  0  0
    7.1962   -4.2500    0.0000 C   0  0  0  0  0  0  0  0  0  0  0  0
    8.0622    1.2500    0.0000 C   0  0  0  0  0  0  0  0  0  0  0  0
   10.6603   -4.2500    0.0000 C   0  0  0  0  0  0  0  0  0  0  0  0
    3.7320   -0.2500    0.0000 C   0  0  0  0  0  0  0  0  0  0  0  0
    6.3301   -4.7500    0.0000 C   0  0  0  0  0  0  0  0  0  0  0  0
    8.0622   -4.7500    0.0000 C   0  0  0  0  0  0  0  0  0  0  0  0
    7.1962    1.7500    0.0000 C   0  0  0  0  0  0  0  0  0  0  0  0
    8.9282    1.7500    0.0000 C   0  0  0  0  0  0  0  0  0  0  0  0
   11.5263   -4.7500    0.0000 C   0  0  0  0  0  0  0  0  0  0  0  0
    9.7942   -4.7500    0.0000 C   0  0  0  0  0  0  0  0  0  0  0  0
    2.8660    0.2500    0.0000 C   0  0  0  0  0  0  0  0  0  0  0  0
    3.7320   -1.2500    0.0000 C   0  0  0  0  0  0  0  0  0  0  0  0
    6.3301   -5.7500    0.0000 C   0  0  0  0  0  0  0  0  0  0  0  0
    8.0622   -5.7500    0.0000 C   0  0  0  0  0  0  0  0  0  0  0  0
    7.1962    2.7500    0.0000 C   0  0  0  0  0  0  0  0  0  0  0  0
    8.9282    2.7500    0.0000 C   0  0  0  0  0  0  0  0  0  0  0  0
   12.3923   -3.2500    0.0000 C   0  0  0  0  0  0  0  0  0  0  0  0
    3.7320    1.7500    0.0000 C   0  0  0  0  0  0  0  0  0  0  0  0
    7.1962   -6.2500    0.0000 C   0  0  0  0  0  0  0  0  0  0  0  0
    8.0622    3.2500    0.0000 C   0  0  0  0  0  0  0  0  0  0  0  0
   14.1244   -3.2500    0.0000 C   0  0  0  0  0  0  0  0  0  0  0  0
    2.8660    3.2500    0.0000 C   0  0  0  0  0  0  0  0  0  0  0  0
   13.2583   -1.7500    0.0000 C   0  0  0  0  0  0  0  0  0  0  0  0
    4.5981    3.2500    0.0000 C   0  0  0  0  0  0  0  0  0  0  0  0
   14.9904   -2.7500    0.0000 C   0  0  0  0  0  0  0  0  0  0  0  0
    2.8660    4.2500    0.0000 C   0  0  0  0  0  0  0  0  0  0  0  0
   15.8564   -3.2500    0.0000 C   0  0  0  0  0  0  0  0  0  0  0  0
    2.0000    4.7500    0.0000 C   0  0  0  0  0  0  0  0  0  0  0  0
   16.7224   -2.7500    0.0000 C   0  0  0  0  0  0  0  0  0  0  0  0
    2.0000    5.7500    0.0000 C   0  0  0  0  0  0  0  0  0  0  0  0
   15.8564   -1.2500    0.0000 C   0  0  0  0  0  0  0  0  0  0  0  0
    3.7320    5.7500    0.0000 C   0  0  0  0  0  0  0  0  0  0  0  0
   16.7224   -1.7500    0.0000 C   0  0  0  0  0  0  0  0  0  0  0  0
    2.8660    6.2500    0.0000 C   0  0  0  0  0  0  0  0  0  0  0  0
    8.0622   -1.1300    0.0000 H   0  0  0  0  0  0  0  0  0  0  0  0
    6.6592   -0.9400    0.0000 H   0  0  0  0  0  0  0  0  0  0  0  0
    8.0622   -3.3700    0.0000 H   0  0  0  0  0  0  0  0  0  0  0  0
    6.6592   -0.5600    0.0000 H   0  0  0  0  0  0  0  0  0  0  0  0
    6.9841   -2.6674    0.0000 H   0  0  0  0  0  0  0  0  0  0  0  0
    6.5856   -3.3577    0.0000 H   0  0  0  0  0  0  0  0  0  0  0  0
    8.2742   -0.3326    0.0000 H   0  0  0  0  0  0  0  0  0  0  0  0
    8.6728    0.3577    0.0000 H   0  0  0  0  0  0  0  0  0  0  0  0
    8.9282   -3.8700    0.0000 H   0  0  0  0  0  0  0  0  0  0  0  0
    6.3301    0.8700    0.0000 H   0  0  0  0  0  0  0  0  0  0  0  0
   11.1972   -3.5600    0.0000 H   0  0  0  0  0  0  0  0  0  0  0  0
    5.1350    0.5600    0.0000 H   0  0  0  0  0  0  0  0  0  0  0  0
    8.9282   -0.6300    0.0000 H   0  0  0  0  0  0  0  0  0  0  0  0
    6.3301   -2.3700    0.0000 H   0  0  0  0  0  0  0  0  0  0  0  0
   11.1972   -3.9400    0.0000 H   0  0  0  0  0  0  0  0  0  0  0  0
    3.7320    0.3700    0.0000 H   0  0  0  0  0  0  0  0  0  0  0  0
   11.5263   -2.1300    0.0000 H   0  0  0  0  0  0  0  0  0  0  0  0
    5.1350    1.5600    0.0000 H   0  0  0  0  0  0  0  0  0  0  0  0
    5.7932   -4.4400    0.0000 H   0  0  0  0  0  0  0  0  0  0  0  0
    8.5991   -4.4400    0.0000 H   0  0  0  0  0  0  0  0  0  0  0  0
    6.6592    1.4400    0.0000 H   0  0  0  0  0  0  0  0  0  0  0  0
    9.4651    1.4400    0.0000 H   0  0  0  0  0  0  0  0  0  0  0  0
    9.4842   -4.2131    0.0000 H   0  0  0  0  0  0  0  0  0  0  0  0
    9.2573   -5.0600    0.0000 H   0  0  0  0  0  0  0  0  0  0  0  0
   10.1042   -5.2869    0.0000 H   0  0  0  0  0  0  0  0  0  0  0  0
   11.2163   -5.2869    0.0000 H   0  0  0  0  0  0  0  0  0  0  0  0
   12.0632   -5.0600    0.0000 H   0  0  0  0  0  0  0  0  0  0  0  0
   11.8363   -4.2131    0.0000 H   0  0  0  0  0  0  0  0  0  0  0  0
    3.1120   -1.2500    0.0000 H   0  0  0  0  0  0  0  0  0  0  0  0
    3.7320   -1.8700    0.0000 H   0  0  0  0  0  0  0  0  0  0  0  0
    4.3520   -1.2500    0.0000 H   0  0  0  0  0  0  0  0  0  0  0  0
    3.1760    0.7869    0.0000 H   0  0  0  0  0  0  0  0  0  0  0  0
    2.3291    0.5600    0.0000 H   0  0  0  0  0  0  0  0  0  0  0  0
    2.5560   -0.2869    0.0000 H   0  0  0  0  0  0  0  0  0  0  0  0
    5.7932   -6.0600    0.0000 H   0  0  0  0  0  0  0  0  0  0  0  0
    8.5991   -6.0600    0.0000 H   0  0  0  0  0  0  0  0  0  0  0  0
    6.6592    3.0600    0.0000 H   0  0  0  0  0  0  0  0  0  0  0  0
    9.4651    3.0600    0.0000 H   0  0  0  0  0  0  0  0  0  0  0  0
    7.1962   -6.8700    0.0000 H   0  0  0  0  0  0  0  0  0  0  0  0
    8.0622    3.8700    0.0000 H   0  0  0  0  0  0  0  0  0  0  0  0
   13.7258   -3.7250    0.0000 H   0  0  0  0  0  0  0  0  0  0  0  0
   14.5229   -3.7250    0.0000 H   0  0  0  0  0  0  0  0  0  0  0  0
    2.2554    3.3577    0.0000 H   0  0  0  0  0  0  0  0  0  0  0  0
    2.6540    2.6674    0.0000 H   0  0  0  0  0  0  0  0  0  0  0  0
   13.8783   -1.7500    0.0000 H   0  0  0  0  0  0  0  0  0  0  0  0
   13.2583   -1.1300    0.0000 H   0  0  0  0  0  0  0  0  0  0  0  0
   12.6383   -1.7500    0.0000 H   0  0  0  0  0  0  0  0  0  0  0  0
    4.9081    2.7131    0.0000 H   0  0  0  0  0  0  0  0  0  0  0  0
    5.1350    3.5600    0.0000 H   0  0  0  0  0  0  0  0  0  0  0  0
    4.2881    3.7869    0.0000 H   0  0  0  0  0  0  0  0  0  0  0  0
   15.8564   -3.8700    0.0000 H   0  0  0  0  0  0  0  0  0  0  0  0
    1.4631    4.4400    0.0000 H   0  0  0  0  0  0  0  0  0  0  0  0
   17.2594   -3.0600    0.0000 H   0  0  0  0  0  0  0  0  0  0  0  0
    1.4631    6.0600    0.0000 H   0  0  0  0  0  0  0  0  0  0  0  0
   15.8564   -0.6300    0.0000 H   0  0  0  0  0  0  0  0  0  0  0  0
    4.2690    6.0600    0.0000 H   0  0  0  0  0  0  0  0  0  0  0  0
   17.2594   -1.4400    0.0000 H   0  0  0  0  0  0  0  0  0  0  0  0
    2.8660    6.8700    0.0000 H   0  0  0  0  0  0  0  0  0  0  0  0
 15  1  1  1  0  0  0
  1 71  1  0  0  0  0
 16  2  1  6  0  0  0
  2 72  1  0  0  0  0
  3 23  2  0  0  0  0
  4 24  2  0  0  0  0
  5 41  2  0  0  0  0
  6 42  2  0  0  0  0
 17  7  1  1  0  0  0
  7 23  1  0  0  0  0
  7 67  1  0  0  0  0
 18  8  1  1  0  0  0
  8 24  1  0  0  0  0
  8 68  1  0  0  0  0
 21  9  1  1  0  0  0
  9 41  1  0  0  0  0
  9 75  1  0  0  0  0
 22 10  1  6  0  0  0
 10 42  1  0  0  0  0
 10 76  1  0  0  0  0
 11 41  1  0  0  0  0
 11 45  1  0  0  0  0
 11 47  1  0  0  0  0
 12 42  1  0  0  0  0
 12 46  1  0  0  0  0
 12 48  1  0  0  0  0
 13 49  1  0  0  0  0
 13 55  2  0  0  0  0
 14 50  1  0  0  0  0
 14 56  2  0  0  0  0
 15 16  1  0  0  0  0
 15 17  1  0  0  0  0
 15 59  1  0  0  0  0
 16 18  1  0  0  0  0
 16 60  1  0  0  0  0
 17 19  1  0  0  0  0
 17 61  1  0  0  0  0
 18 20  1  0  0  0  0
 18 62  1  0  0  0  0
 19 25  1  0  0  0  0
 19 63  1  0  0  0  0
 19 64  1  0  0  0  0
 20 26  1  0  0  0  0
 20 65  1  0  0  0  0
 20 66  1  0  0  0  0
 21 23  1  0  0  0  0
 21 27  1  0  0  0  0
 21 69  1  0  0  0  0
 22 24  1  0  0  0  0
 22 28  1  0  0  0  0
 22 70  1  0  0  0  0
 25 29  2  0  0  0  0
 25 30  1  0  0  0  0
 26 31  2  0  0  0  0
 26 32  1  0  0  0  0
 27 33  1  0  0  0  0
 27 34  1  0  0  0  0
 27 73  1  0  0  0  0
 28 35  1  0  0  0  0
 28 36  1  0  0  0  0
 28 74  1  0  0  0  0
 29 37  1  0  0  0  0
 29 77  1  0  0  0  0
 30 38  2  0  0  0  0
 30 78  1  0  0  0  0
 31 39  1  0  0  0  0
 31 79  1  0  0  0  0
 32 40  2  0  0  0  0
 32 80  1  0  0  0  0
 33 84  1  0  0  0  0
 33 85  1  0  0  0  0
 33 86  1  0  0  0  0
 34 81  1  0  0  0  0
 34 82  1  0  0  0  0
 34 83  1  0  0  0  0
 35 90  1  0  0  0  0
 35 91  1  0  0  0  0
 35 92  1  0  0  0  0
 36 87  1  0  0  0  0
 36 88  1  0  0  0  0
 36 89  1  0  0  0  0
 37 43  2  0  0  0  0
 37 93  1  0  0  0  0
 38 43  1  0  0  0  0
 38 94  1  0  0  0  0
 39 44  2  0  0  0  0
 39 95  1  0  0  0  0
 40 44  1  0  0  0  0
 40 96  1  0  0  0  0
 43 97  1  0  0  0  0
 44 98  1  0  0  0  0
 45 49  1  0  0  0  0
 45 99  1  0  0  0  0
 45100  1  0  0  0  0
 46 50  1  0  0  0  0
 46101  1  0  0  0  0
 46102  1  0  0  0  0
 47103  1  0  0  0  0
 47104  1  0  0  0  0
 47105  1  0  0  0  0
 48106  1  0  0  0  0
 48107  1  0  0  0  0
 48108  1  0  0  0  0
 49 51  2  0  0  0  0
 50 52  2  0  0  0  0
 51 53  1  0  0  0  0
 51109  1  0  0  0  0
 52 54  1  0  0  0  0
 52110  1  0  0  0  0
 53 57  2  0  0  0  0
 53111  1  0  0  0  0
 54 58  2  0  0  0  0
 54112  1  0  0  0  0
 55 57  1  0  0  0  0
 55113  1  0  0  0  0
 56 58  1  0  0  0  0
 56114  1  0  0  0  0
 57115  1  0  0  0  0
 58116  1  0  0  0  0
M  END
> <PUBCHEM_COMPOUND_CID>
64999

> <PUBCHEM_COMPOUND_CANONICALIZED>
1

> <PUBCHEM_CACTVS_COMPLEXITY>
1170

> <PUBCHEM_CACTVS_HBOND_ACCEPTOR>
8

> <PUBCHEM_CACTVS_HBOND_DONOR>
6

> <PUBCHEM_CACTVS_ROTATABLE_BOND>
19

> <PUBCHEM_CACTVS_SUBSKEYS>
AAADcfB/+AAAAAAAAAAAAAAAAAAAAAAAAAA8eIEAAAAAAAAB9AAAHgAQCAAADTzhngY/gJPIEgCoAzV3VACCgCAxAiAI2KG4ZJiLcPLAkbGUYAhulgLZyAeQwPAOAAAAAAAAAAAAAAAAAAAAAAAAAAAAAA==

> <PUBCHEM_IUPAC_OPENEYE_NAME>
(2S)-N-[(1S,2S,3R,4S)-1-benzyl-2,3-dihydroxy-4-[[(2S)-3-methyl-2-[[methyl(2-pyridylmethyl)carbamoyl]amino]butanoyl]amino]-5-phenyl-pentyl]-3-methyl-2-[[methyl(2-pyridylmethyl)carbamoyl]amino]butanamide

> <PUBCHEM_IUPAC_CAS_NAME>
(2S)-N-[(2S,3S,4R,5S)-3,4-dihydroxy-5-[[(2S)-3-methyl-2-[[[methyl(2-pyridinylmethyl)amino]-oxomethyl]amino]-1-oxobutyl]amino]-1,6-diphenylhexan-2-yl]-3-methyl-2-[[[methyl(2-pyridinylmethyl)amino]-oxomethyl]amino]butanamide

> <PUBCHEM_IUPAC_NAME>
(2S)-N-[(2S,3S,4R,5S)-3,4-dihydroxy-5-[[(2S)-3-methyl-2-[[methyl(pyridin-2-ylmethyl)carbamoyl]amino]butanoyl]amino]-1,6-diphenylhexan-2-yl]-3-methyl-2-[[methyl(pyridin-2-ylmethyl)carbamoyl]amino]butanamide

> <PUBCHEM_IUPAC_SYSTEMATIC_NAME>
(2S)-3-methyl-N-[(2S,3S,4R,5S)-5-[[(2S)-3-methyl-2-[[methyl(pyridin-2-ylmethyl)carbamoyl]amino]butanoyl]amino]-3,4-bis(oxidanyl)-1,6-diphenyl-hexan-2-yl]-2-[[methyl(pyridin-2-ylmethyl)carbamoyl]amino]butanamide

> <PUBCHEM_IUPAC_TRADITIONAL_NAME>
(2S)-N-[(1S,2S,3R,4S)-1-benzyl-2,3-dihydroxy-4-[[(2S)-3-methyl-2-[[methyl(2-pyridylmethyl)carbamoyl]amino]butanoyl]amino]-5-phenyl-pentyl]-3-methyl-2-[[methyl(2-pyridylmethyl)carbamoyl]amino]butyramide

> <PUBCHEM_IUPAC_INCHI>
InChI=1S/C44H58N8O6/c1-29(2)37(49-43(57)51(5)27-33-21-13-15-23-45-33)41(55)47-35(25-31-17-9-7-10-18-31)39(53)40(54)36(26-32-19-11-8-12-20-32)48-42(56)38(30(3)4)50-44(58)52(6)28-34-22-14-16-24-46-34/h7-24,29-30,35-40,53-54H,25-28H2,1-6H3,(H,47,55)(H,48,56)(H,49,57)(H,50,58)/t35-,36-,37-,38-,39-,40+/m0/s1

> <PUBCHEM_IUPAC_INCHIKEY>
QPVWMQXBTCSLCB-BYAJYZPISA-N

> <PUBCHEM_XLOGP3_AA>
4

> <PUBCHEM_EXACT_MASS>
794.447932

> <PUBCHEM_MOLECULAR_FORMULA>
C44H58N8O6

> <PUBCHEM_MOLECULAR_WEIGHT>
794.98132

> <PUBCHEM_OPENEYE_CAN_SMILES>
CC(C)C(C(=O)NC(CC1=CC=CC=C1)C(C(C(CC2=CC=CC=C2)NC(=O)C(C(C)C)NC(=O)N(C)CC3=CC=CC=N3)O)O)NC(=O)N(C)CC4=CC=CC=N4

> <PUBCHEM_OPENEYE_ISO_SMILES>
CC(C)[C@@H](C(=O)N[C@@H](CC1=CC=CC=C1)[C@H]([C@H]([C@H](CC2=CC=CC=C2)NC(=O)[C@H](C(C)C)NC(=O)N(C)CC3=CC=CC=N3)O)O)NC(=O)N(C)CC4=CC=CC=N4

> <PUBCHEM_CACTVS_TPSA>
189

> <PUBCHEM_MONOISOTOPIC_WEIGHT>
794.447932

> <PUBCHEM_TOTAL_CHARGE>
0

> <PUBCHEM_HEAVY_ATOM_COUNT>
58

> <PUBCHEM_ATOM_DEF_STEREO_COUNT>
6

> <PUBCHEM_ATOM_UDEF_STEREO_COUNT>
0

> <PUBCHEM_BOND_DEF_STEREO_COUNT>
0

> <PUBCHEM_BOND_UDEF_STEREO_COUNT>
0

> <PUBCHEM_ISOTOPIC_ATOM_COUNT>
0

> <PUBCHEM_COMPONENT_COUNT>
1

> <PUBCHEM_CACTVS_TAUTO_COUNT>
10

> <PUBCHEM_COORDINATE_TYPE>
1
5
255

> <PUBCHEM_BONDANNOTATIONS>
15  1  5
22  10  6
13  49  8
13  55  8
14  50  8
14  56  8
16  2  6
25  29  8
25  30  8
26  31  8
26  32  8
29  37  8
30  38  8
31  39  8
32  40  8
37  43  8
38  43  8
39  44  8
40  44  8
49  51  8
50  52  8
51  53  8
52  54  8
53  57  8
54  58  8
55  57  8
56  58  8
17  7  5
18  8  5
21  9  5

$$$$

