   Color/Form
        COLORLESS LIQUID
   from [1]HSDB

   Odor
        ODOR REMINISCENT OF ANISE (DIFFERING FROM ANETHOLE)
   from [2]HSDB

   Taste
        SWEET TASTE REMINISCENT OF ANISE (DIFFERING FROM ANETHOLE)
   from [3]HSDB

   Boiling Point
        216 DEG AT 764 MM HG
   from [4]HSDB

   Density/Specific Gravity
        0.9645 AT 21 DEG C/4 DEG C
   from [5]HSDB

   Solubilities

     * SOL IN ALCOHOL, CHLOROFORM
     * Solubility in water at 25 deg C is 0.178 g/L.

   from [6]HSDB

   Spectral Properties

     * INDEX OF REFRACTION: 1.51372 AT 22 DEG C; 1.5230 AT 17.5 DEG C
     * IR: 2:564G (Aldrich Library of Infrared Spectra, Aldrich Chemical
       Co, Milwaukee, WI)
     * NMR: 4:97A (Aldrich Library of Mass Spectra, Aldrich Chemical Co,
       Milwaukee, WI)
     * MASS: 437 (National Bureau of Standards EPA-NIH Mass Spectra Data
       Base, NSRDS-NBS-63)

   from [7]HSDB

   Other Chemical/Physical Properties

     * FORMS AZEOTROPIC MIXTURES WITH WATER (18%) & ACETAMIDE (18%)
     * Density = 0.965 at 25 deg C

   from [8]HSDB

   Computed Properties
   Molecular Weight                  148.20168 [g/mol]
   Molecular Formula                 C[10]H[12]O
   XLogP3                            3.4
   H-Bond Donor                      0
   H-Bond Acceptor                   1
   Rotatable Bond Count              3
   Exact Mass                        148.088815
   MonoIsotopic Mass                 148.088815
   Topological Polar Surface Area    9.2
   Heavy Atom Count                  11
   Formal Charge                     0
   Complexity                        112
   Isotope Atom Count                0
   Defined Atom Stereocenter Count   0
   Undefined Atom Stereocenter Count 0
   Defined Bond Stereocenter Count   0
   Undefined Bond Stereocenter Count 0
   Covalently-Bonded Unit Count      1
   Feature 3D Acceptor Count         1
   Feature 3D Hydrophobe Count       1
   Feature 3D Ring Count             1
   Effective Rotor Count             3
   Conformer Sampling RMSD           0.6
   CID Conformer Count               [9]4

References

   1. http://toxnet.nlm.nih.gov/cgi-bin/sis/search/r?dbs+hsdb:@term+@rn+@rel+140-67-0
   2. http://toxnet.nlm.nih.gov/cgi-bin/sis/search/r?dbs+hsdb:@term+@rn+@rel+140-67-0
   3. http://toxnet.nlm.nih.gov/cgi-bin/sis/search/r?dbs+hsdb:@term+@rn+@rel+140-67-0
   4. http://toxnet.nlm.nih.gov/cgi-bin/sis/search/r?dbs+hsdb:@term+@rn+@rel+140-67-0
   5. http://toxnet.nlm.nih.gov/cgi-bin/sis/search/r?dbs+hsdb:@term+@rn+@rel+140-67-0
   6. http://toxnet.nlm.nih.gov/cgi-bin/sis/search/r?dbs+hsdb:@term+@rn+@rel+140-67-0
   7. http://toxnet.nlm.nih.gov/cgi-bin/sis/search/r?dbs+hsdb:@term+@rn+@rel+140-67-0
   8. http://toxnet.nlm.nih.gov/cgi-bin/sis/search/r?dbs+hsdb:@term+@rn+@rel+140-67-0
   9. http://pubchem.ncbi.nlm.nih.gov/vw3d/vw3d.cgi?cid=8815
