128973
  -OEChem-07051212482D

 28 29  0     1  0  0  0  0  0999 V2000
    3.7320   -1.8100    0.0000 O   0  0  0  0  0  0  0  0  0  0  0  0
    7.2125   -1.8446    0.0000 O   0  0  0  0  0  0  0  0  0  0  0  0
    2.8660    0.6900    0.0000 O   0  0  0  0  0  0  0  0  0  0  0  0
    5.4641   -0.8100    0.0000 N   0  0  0  0  0  0  0  0  0  0  0  0
    5.4641    1.1900    0.0000 N   0  0  0  0  0  0  0  0  0  0  0  0
    7.2241    1.2246    0.0000 N   0  0  0  0  0  0  0  0  0  0  0  0
    8.1301   -0.3308    0.0000 N   0  0  0  0  0  0  0  0  0  0  0  0
    8.9942    1.2141    0.0000 N   0  0  0  0  0  0  0  0  0  0  0  0
    4.5981   -0.3100    0.0000 C   0  0  3  0  0  0  0  0  0  0  0  0
    4.5981    0.6900    0.0000 C   0  0  0  0  0  0  0  0  0  0  0  0
    6.3301   -0.3100    0.0000 C   0  0  0  0  0  0  0  0  0  0  0  0
    6.3301    0.6900    0.0000 C   0  0  0  0  0  0  0  0  0  0  0  0
    3.7320   -0.8100    0.0000 C   0  0  0  0  0  0  0  0  0  0  0  0
    7.2241   -0.8447    0.0000 C   0  0  0  0  0  0  0  0  0  0  0  0
    8.1301    0.7108    0.0000 C   0  0  0  0  0  0  0  0  0  0  0  0
    2.8660   -0.3100    0.0000 C   0  0  0  0  0  0  0  0  0  0  0  0
    2.0000   -0.8100    0.0000 C   0  0  0  0  0  0  0  0  0  0  0  0
    4.5981   -1.1600    0.0000 H   0  0  0  0  0  0  0  0  0  0  0  0
    4.3860    1.2726    0.0000 H   0  0  0  0  0  0  0  0  0  0  0  0
    3.9875    0.5823    0.0000 H   0  0  0  0  0  0  0  0  0  0  0  0
    5.4641   -1.4300    0.0000 H   0  0  0  0  0  0  0  0  0  0  0  0
    5.4641    1.8100    0.0000 H   0  0  0  0  0  0  0  0  0  0  0  0
    7.2169    1.8446    0.0000 H   0  0  0  0  0  0  0  0  0  0  0  0
    1.6900   -0.2731    0.0000 H   0  0  0  0  0  0  0  0  0  0  0  0
    1.4631   -1.1200    0.0000 H   0  0  0  0  0  0  0  0  0  0  0  0
    2.3100   -1.3470    0.0000 H   0  0  0  0  0  0  0  0  0  0  0  0
    9.5323    0.9062    0.0000 H   0  0  0  0  0  0  0  0  0  0  0  0
    8.9918    1.8341    0.0000 H   0  0  0  0  0  0  0  0  0  0  0  0
  1 13  2  0  0  0  0
  2 14  2  0  0  0  0
  3 16  2  0  0  0  0
  4  9  1  0  0  0  0
  4 11  1  0  0  0  0
  4 21  1  0  0  0  0
  5 10  1  0  0  0  0
  5 12  1  0  0  0  0
  5 22  1  0  0  0  0
  6 12  1  0  0  0  0
  6 15  1  0  0  0  0
  6 23  1  0  0  0  0
  7 14  1  0  0  0  0
  7 15  2  0  0  0  0
  8 15  1  0  0  0  0
  8 27  1  0  0  0  0
  8 28  1  0  0  0  0
  9 10  1  0  0  0  0
  9 13  1  0  0  0  0
  9 18  1  0  0  0  0
 10 19  1  0  0  0  0
 10 20  1  0  0  0  0
 11 12  2  0  0  0  0
 11 14  1  0  0  0  0
 13 16  1  0  0  0  0
 16 17  1  0  0  0  0
 17 24  1  0  0  0  0
 17 25  1  0  0  0  0
 17 26  1  0  0  0  0
M  END
> <PUBCHEM_COMPOUND_CID>
128973

> <PUBCHEM_COMPOUND_CANONICALIZED>
1

> <PUBCHEM_CACTVS_COMPLEXITY>
479

> <PUBCHEM_CACTVS_HBOND_ACCEPTOR>
5

> <PUBCHEM_CACTVS_HBOND_DONOR>
4

> <PUBCHEM_CACTVS_ROTATABLE_BOND>
2

> <PUBCHEM_CACTVS_SUBSKEYS>
AAADccBzsAAAAAAAAAAAAAAAAAAAAAAAAAAgQAAAAAAAAACAAAAAHgAQAAAACCzBgAQDAALAAACoAIVQdACAAAEAAAABAIGIAECAQBoAgCAUAAAIEAKAAEAUAAAAAAAAAAAAAAAAAAAAAAAAAAAAAAAAAA==

> <PUBCHEM_IUPAC_OPENEYE_NAME>
1-(2-amino-4-oxo-5,6,7,8-tetrahydro-1H-pteridin-6-yl)propane-1,2-dione

> <PUBCHEM_IUPAC_CAS_NAME>
1-(2-amino-4-oxo-5,6,7,8-tetrahydro-1H-pteridin-6-yl)propane-1,2-dione

> <PUBCHEM_IUPAC_NAME>
1-(2-amino-4-oxo-5,6,7,8-tetrahydro-1H-pteridin-6-yl)propane-1,2-dione

> <PUBCHEM_IUPAC_SYSTEMATIC_NAME>
1-(2-azanyl-4-oxidanylidene-5,6,7,8-tetrahydro-1H-pteridin-6-yl)propane-1,2-dione

> <PUBCHEM_IUPAC_TRADITIONAL_NAME>
1-(2-amino-4-keto-5,6,7,8-tetrahydro-1H-pteridin-6-yl)propane-1,2-dione

> <PUBCHEM_IUPAC_INCHI>
InChI=1S/C9H11N5O3/c1-3(15)6(16)4-2-11-7-5(12-4)8(17)14-9(10)13-7/h4,12H,2H2,1H3,(H4,10,11,13,14,17)

> <PUBCHEM_IUPAC_INCHIKEY>
WBJZXBUVECZHCE-UHFFFAOYSA-N

> <PUBCHEM_XLOGP3_AA>
-1.7

> <PUBCHEM_EXACT_MASS>
237.086189

> <PUBCHEM_MOLECULAR_FORMULA>
C9H11N5O3

> <PUBCHEM_MOLECULAR_WEIGHT>
237.21534

> <PUBCHEM_OPENEYE_CAN_SMILES>
CC(=O)C(=O)C1CNC2=C(N1)C(=O)N=C(N2)N

> <PUBCHEM_OPENEYE_ISO_SMILES>
CC(=O)C(=O)C1CNC2=C(N1)C(=O)N=C(N2)N

> <PUBCHEM_CACTVS_TPSA>
126

> <PUBCHEM_MONOISOTOPIC_WEIGHT>
237.086189

> <PUBCHEM_TOTAL_CHARGE>
0

> <PUBCHEM_HEAVY_ATOM_COUNT>
17

> <PUBCHEM_ATOM_DEF_STEREO_COUNT>
0

> <PUBCHEM_ATOM_UDEF_STEREO_COUNT>
1

> <PUBCHEM_BOND_DEF_STEREO_COUNT>
0

> <PUBCHEM_BOND_UDEF_STEREO_COUNT>
0

> <PUBCHEM_ISOTOPIC_ATOM_COUNT>
0

> <PUBCHEM_COMPONENT_COUNT>
1

> <PUBCHEM_CACTVS_TAUTO_COUNT>
301

> <PUBCHEM_COORDINATE_TYPE>
1
5
255

> <PUBCHEM_BONDANNOTATIONS>
11  12  8
11  14  8
6  12  8
6  15  8
7  14  8
7  15  8
9  18  3

$$$$

