442937
  -OEChem-07051213002D

 41 44  0     1  0  0  0  0  0999 V2000
    7.7826    0.0584    0.0000 N   0  0  3  0  0  0  0  0  0  0  0  0
    3.8904   -1.8035    0.0000 N   0  0  0  0  0  0  0  0  0  0  0  0
    5.3007    0.4737    0.0000 C   0  0  2  0  0  0  0  0  0  0  0  0
    5.5596    1.4397    0.0000 C   0  0  2  0  0  0  0  0  0  0  0  0
    7.4242    0.9920    0.0000 C   0  0  1  0  0  0  0  0  0  0  0  0
    4.8229    2.4223    0.0000 C   0  0  0  0  0  0  0  0  0  0  0  0
    3.7656   -0.7694    0.0000 C   0  0  1  0  0  0  0  0  0  0  0  0
    7.0054   -0.5709    0.0000 C   0  0  0  0  0  0  0  0  0  0  0  0
    2.8520   -0.3627    0.0000 C   0  0  0  0  0  0  0  0  0  0  0  0
    8.0672    1.8115    0.0000 C   0  0  0  0  0  0  0  0  0  0  0  0
    2.9566    0.6318    0.0000 C   0  0  0  0  0  0  0  0  0  0  0  0
    8.8088   -0.1204    0.0000 C   0  0  0  0  0  0  0  0  0  0  0  0
    9.0972    1.6565    0.0000 C   0  0  0  0  0  0  0  0  0  0  0  0
    9.4705    0.6840    0.0000 C   0  0  0  0  0  0  0  0  0  0  0  0
    2.0000   -0.9619    0.0000 C   0  0  0  0  0  0  0  0  0  0  0  0
    2.1009   -1.9986    0.0000 C   0  0  0  0  0  0  0  0  0  0  0  0
    3.0525   -2.4223    0.0000 C   0  0  0  0  0  0  0  0  0  0  0  0
    5.0807   -0.3473    0.0000 H   0  0  0  0  0  0  0  0  0  0  0  0
    5.7796    2.2607    0.0000 H   0  0  0  0  0  0  0  0  0  0  0  0
    7.1196    1.7855    0.0000 H   0  0  0  0  0  0  0  0  0  0  0  0
    5.1408    2.9546    0.0000 H   0  0  0  0  0  0  0  0  0  0  0  0
    4.2098    2.5142    0.0000 H   0  0  0  0  0  0  0  0  0  0  0  0
    4.5421   -1.1151    0.0000 H   0  0  0  0  0  0  0  0  0  0  0  0
    6.6237   -1.0595    0.0000 H   0  0  0  0  0  0  0  0  0  0  0  0
    7.4476   -1.0055    0.0000 H   0  0  0  0  0  0  0  0  0  0  0  0
    8.2630    2.3998    0.0000 H   0  0  0  0  0  0  0  0  0  0  0  0
    7.5211    2.1051    0.0000 H   0  0  0  0  0  0  0  0  0  0  0  0
    2.4773    1.0252    0.0000 H   0  0  0  0  0  0  0  0  0  0  0  0
    8.5994   -0.7040    0.0000 H   0  0  0  0  0  0  0  0  0  0  0  0
    9.3479   -0.4265    0.0000 H   0  0  0  0  0  0  0  0  0  0  0  0
    9.7055    1.7764    0.0000 H   0  0  0  0  0  0  0  0  0  0  0  0
    9.0832    2.2763    0.0000 H   0  0  0  0  0  0  0  0  0  0  0  0
    9.8748    0.2140    0.0000 H   0  0  0  0  0  0  0  0  0  0  0  0
   10.0028    1.0020    0.0000 H   0  0  0  0  0  0  0  0  0  0  0  0
    1.7354   -0.4012    0.0000 H   0  0  0  0  0  0  0  0  0  0  0  0
    1.4023   -1.1266    0.0000 H   0  0  0  0  0  0  0  0  0  0  0  0
    4.4597   -2.0492    0.0000 H   0  0  0  0  0  0  0  0  0  0  0  0
    1.4826   -1.9522    0.0000 H   0  0  0  0  0  0  0  0  0  0  0  0
    1.9494   -2.5998    0.0000 H   0  0  0  0  0  0  0  0  0  0  0  0
    2.7071   -2.9372    0.0000 H   0  0  0  0  0  0  0  0  0  0  0  0
    3.5007   -2.8507    0.0000 H   0  0  0  0  0  0  0  0  0  0  0  0
  1  5  1  0  0  0  0
  1  8  1  0  0  0  0
  1 12  1  0  0  0  0
  2  7  1  0  0  0  0
  2 17  1  0  0  0  0
  2 37  1  0  0  0  0
  3  6  1  0  0  0  0
  3  7  1  0  0  0  0
  3  8  1  0  0  0  0
  3 18  1  6  0  0  0
  4  5  1  0  0  0  0
  4  6  1  0  0  0  0
  4 11  1  0  0  0  0
  4 19  1  6  0  0  0
  5 10  1  0  0  0  0
  5 20  1  6  0  0  0
  6 21  1  0  0  0  0
  6 22  1  0  0  0  0
  7  9  1  0  0  0  0
  7 23  1  1  0  0  0
  8 24  1  0  0  0  0
  8 25  1  0  0  0  0
  9 11  2  0  0  0  0
  9 15  1  0  0  0  0
 10 13  1  0  0  0  0
 10 26  1  0  0  0  0
 10 27  1  0  0  0  0
 11 28  1  0  0  0  0
 12 14  1  0  0  0  0
 12 29  1  0  0  0  0
 12 30  1  0  0  0  0
 13 14  1  0  0  0  0
 13 31  1  0  0  0  0
 13 32  1  0  0  0  0
 14 33  1  0  0  0  0
 14 34  1  0  0  0  0
 15 16  1  0  0  0  0
 15 35  1  0  0  0  0
 15 36  1  0  0  0  0
 16 17  1  0  0  0  0
 16 38  1  0  0  0  0
 16 39  1  0  0  0  0
 17 40  1  0  0  0  0
 17 41  1  0  0  0  0
M  END
> <PUBCHEM_COMPOUND_CID>
442937

> <PUBCHEM_COMPOUND_CANONICALIZED>
1

> <PUBCHEM_CACTVS_COMPLEXITY>
336

> <PUBCHEM_CACTVS_HBOND_ACCEPTOR>
2

> <PUBCHEM_CACTVS_HBOND_DONOR>
1

> <PUBCHEM_CACTVS_ROTATABLE_BOND>
0

> <PUBCHEM_CACTVS_SUBSKEYS>
AAADceBzAAAAAAAAAAAAAAAAAAAAAAAAAAAsWLEAAAAQAACwAAAAHAAQAAAADSjBAAQAAAPAAACAAiBCAACAAAAgAAAACIAIAAgAAAIAwQAEAAAAkACIAAMQgMAOAAAAAAAAAAAAAAAAAAAAAAAAAAAAAA==

> <PUBCHEM_IUPAC_INCHI>
InChI=1S/C15H24N2/c1-2-7-17-10-13-9-12(14(17)5-1)8-11-4-3-6-16-15(11)13/h8,12-16H,1-7,9-10H2/t12-,13-,14+,15+/m0/s1

> <PUBCHEM_IUPAC_INCHIKEY>
SKOLRLSBMUGVOY-BYNSBNAKSA-N

> <PUBCHEM_XLOGP3_AA>
1.6

> <PUBCHEM_EXACT_MASS>
232.193949

> <PUBCHEM_MOLECULAR_FORMULA>
C15H24N2

> <PUBCHEM_MOLECULAR_WEIGHT>
232.36446

> <PUBCHEM_OPENEYE_CAN_SMILES>
C1CCN2CC3CC(C2C1)C=C4C3NCCC4

> <PUBCHEM_OPENEYE_ISO_SMILES>
C1CCN2C[C@@H]3C[C@@H]([C@H]2C1)C=C4[C@H]3NCCC4

> <PUBCHEM_CACTVS_TPSA>
15.3

> <PUBCHEM_MONOISOTOPIC_WEIGHT>
232.193949

> <PUBCHEM_TOTAL_CHARGE>
0

> <PUBCHEM_HEAVY_ATOM_COUNT>
17

> <PUBCHEM_ATOM_DEF_STEREO_COUNT>
4

> <PUBCHEM_ATOM_UDEF_STEREO_COUNT>
0

> <PUBCHEM_BOND_DEF_STEREO_COUNT>
0

> <PUBCHEM_BOND_UDEF_STEREO_COUNT>
0

> <PUBCHEM_ISOTOPIC_ATOM_COUNT>
0

> <PUBCHEM_COMPONENT_COUNT>
1

> <PUBCHEM_CACTVS_TAUTO_COUNT>
1

> <PUBCHEM_COORDINATE_TYPE>
1
5
255

> <PUBCHEM_BONDANNOTATIONS>
3  18  6
4  19  6
5  20  6
7  23  5

$$$$

