2762
  -OEChem-07051212542D

 29 31  0     0  0  0  0  0  0999 V2000
    8.7460   -0.5497    0.0000 O   0  0  0  0  0  0  0  0  0  0  0  0
    8.7460    1.0597    0.0000 O   0  0  0  0  0  0  0  0  0  0  0  0
    5.1854    2.2896    0.0000 O   0  0  0  0  0  0  0  0  0  0  0  0
    2.5357    0.7825    0.0000 O   0  0  0  0  0  0  0  0  0  0  0  0
    3.4075    2.2791    0.0000 O   0  0  0  0  0  0  0  0  0  0  0  0
    5.1738   -0.7797    0.0000 N   0  0  0  0  0  0  0  0  0  0  0  0
    4.2678   -0.2658    0.0000 N   0  0  0  0  0  0  0  0  0  0  0  0
    6.0678   -0.2450    0.0000 C   0  0  0  0  0  0  0  0  0  0  0  0
    6.0678    0.7550    0.0000 C   0  0  0  0  0  0  0  0  0  0  0  0
    7.7998   -0.2450    0.0000 C   0  0  0  0  0  0  0  0  0  0  0  0
    6.9338   -0.7450    0.0000 C   0  0  0  0  0  0  0  0  0  0  0  0
    7.7998    0.7550    0.0000 C   0  0  0  0  0  0  0  0  0  0  0  0
    6.9338    1.2550    0.0000 C   0  0  0  0  0  0  0  0  0  0  0  0
    5.1854   -1.7796    0.0000 C   0  0  0  0  0  0  0  0  0  0  0  0
    5.1738    1.2896    0.0000 C   0  0  0  0  0  0  0  0  0  0  0  0
    4.2678    0.7758    0.0000 C   0  0  0  0  0  0  0  0  0  0  0  0
    9.3297    0.2550    0.0000 C   0  0  0  0  0  0  0  0  0  0  0  0
    4.3252   -2.2896    0.0000 C   0  0  0  0  0  0  0  0  0  0  0  0
    3.4037    1.2791    0.0000 C   0  0  0  0  0  0  0  0  0  0  0  0
    6.9338   -1.3650    0.0000 H   0  0  0  0  0  0  0  0  0  0  0  0
    6.9338    1.8750    0.0000 H   0  0  0  0  0  0  0  0  0  0  0  0
    5.4042   -2.3597    0.0000 H   0  0  0  0  0  0  0  0  0  0  0  0
    5.7947   -1.6649    0.0000 H   0  0  0  0  0  0  0  0  0  0  0  0
    9.7905   -0.1597    0.0000 H   0  0  0  0  0  0  0  0  0  0  0  0
    9.7905    0.6697    0.0000 H   0  0  0  0  0  0  0  0  0  0  0  0
    4.0090   -1.7563    0.0000 H   0  0  0  0  0  0  0  0  0  0  0  0
    3.7919   -2.6058    0.0000 H   0  0  0  0  0  0  0  0  0  0  0  0
    4.6414   -2.8229    0.0000 H   0  0  0  0  0  0  0  0  0  0  0  0
    2.0000    1.0946    0.0000 H   0  0  0  0  0  0  0  0  0  0  0  0
  1 10  1  0  0  0  0
  1 17  1  0  0  0  0
  2 12  1  0  0  0  0
  2 17  1  0  0  0  0
  3 15  2  0  0  0  0
  4 19  1  0  0  0  0
  4 29  1  0  0  0  0
  5 19  2  0  0  0  0
  6  7  1  0  0  0  0
  6  8  1  0  0  0  0
  6 14  1  0  0  0  0
  7 16  2  0  0  0  0
  8  9  1  0  0  0  0
  8 11  2  0  0  0  0
  9 13  2  0  0  0  0
  9 15  1  0  0  0  0
 10 11  1  0  0  0  0
 10 12  2  0  0  0  0
 11 20  1  0  0  0  0
 12 13  1  0  0  0  0
 13 21  1  0  0  0  0
 14 18  1  0  0  0  0
 14 22  1  0  0  0  0
 14 23  1  0  0  0  0
 15 16  1  0  0  0  0
 16 19  1  0  0  0  0
 17 24  1  0  0  0  0
 17 25  1  0  0  0  0
 18 26  1  0  0  0  0
 18 27  1  0  0  0  0
 18 28  1  0  0  0  0
M  END
> <PUBCHEM_COMPOUND_CID>
2762

> <PUBCHEM_COMPOUND_CANONICALIZED>
1

> <PUBCHEM_CACTVS_COMPLEXITY>
449

> <PUBCHEM_CACTVS_HBOND_ACCEPTOR>
7

> <PUBCHEM_CACTVS_HBOND_DONOR>
1

> <PUBCHEM_CACTVS_ROTATABLE_BOND>
2

> <PUBCHEM_CACTVS_SUBSKEYS>
AAADccBzOAAAAAAAAAAAAAAAAAAAASAAAAAwQAAAAAAAAEiBAAAAHgAICAAADAzBmAcyzoIABgCoA6TySASSDAAlIgAQiAEu7MgdJj7MtJukcapm6BnO6ce63bPeIEABAgACQABAgAIEAASAAAAAAAAAAA==

> <PUBCHEM_IUPAC_OPENEYE_NAME>
1-ethyl-4-oxo-[1,3]dioxolo[4,5-g]cinnoline-3-carboxylic acid

> <PUBCHEM_IUPAC_CAS_NAME>
1-ethyl-4-oxo-[1,3]dioxolo[4,5-g]cinnoline-3-carboxylic acid

> <PUBCHEM_IUPAC_NAME>
1-ethyl-4-oxo-[1,3]dioxolo[4,5-g]cinnoline-3-carboxylic acid

> <PUBCHEM_IUPAC_SYSTEMATIC_NAME>
1-ethyl-4-oxidanylidene-[1,3]dioxolo[4,5-g]cinnoline-3-carboxylic acid

> <PUBCHEM_IUPAC_TRADITIONAL_NAME>
1-ethyl-4-keto-[1,3]dioxolo[4,5-g]cinnoline-3-carboxylic acid

> <PUBCHEM_IUPAC_INCHI>
InChI=1S/C12H10N2O5/c1-2-14-7-4-9-8(18-5-19-9)3-6(7)11(15)10(13-14)12(16)17/h3-4H,2,5H2,1H3,(H,16,17)

> <PUBCHEM_IUPAC_INCHIKEY>
VDUWPHTZYNWKRN-UHFFFAOYSA-N

> <PUBCHEM_XLOGP3_AA>
2.1

> <PUBCHEM_EXACT_MASS>
262.058971

> <PUBCHEM_MOLECULAR_FORMULA>
C12H10N2O5

> <PUBCHEM_MOLECULAR_WEIGHT>
262.2182

> <PUBCHEM_OPENEYE_CAN_SMILES>
CCN1C2=CC3=C(C=C2C(=O)C(=N1)C(=O)O)OCO3

> <PUBCHEM_OPENEYE_ISO_SMILES>
CCN1C2=CC3=C(C=C2C(=O)C(=N1)C(=O)O)OCO3

> <PUBCHEM_CACTVS_TPSA>
88.4

> <PUBCHEM_MONOISOTOPIC_WEIGHT>
262.058971

> <PUBCHEM_TOTAL_CHARGE>
0

> <PUBCHEM_HEAVY_ATOM_COUNT>
19

> <PUBCHEM_ATOM_DEF_STEREO_COUNT>
0

> <PUBCHEM_ATOM_UDEF_STEREO_COUNT>
0

> <PUBCHEM_BOND_DEF_STEREO_COUNT>
0

> <PUBCHEM_BOND_UDEF_STEREO_COUNT>
0

> <PUBCHEM_ISOTOPIC_ATOM_COUNT>
0

> <PUBCHEM_COMPONENT_COUNT>
1

> <PUBCHEM_CACTVS_TAUTO_COUNT>
1

> <PUBCHEM_COORDINATE_TYPE>
1
5
255

> <PUBCHEM_BONDANNOTATIONS>
10  11  8
10  12  8
12  13  8
15  16  8
6  7  8
6  8  8
7  16  8
8  11  8
8  9  8
9  13  8
9  15  8

$$$$

