94989
  -OEChem-07051213002D

 26 28  0     1  0  0  0  0  0999 V2000
    4.5274    1.5068    0.0000 O   0  0  0  0  0  0  0  0  0  0  0  0
    8.7040   -1.1463    0.0000 O   0  5  0  0  0  0  0  0  0  0  0  0
    8.3374    0.5465    0.0000 O   0  0  0  0  0  0  0  0  0  0  0  0
    8.0321   -0.4058    0.0000 N   0  3  0  0  0  0  0  0  0  0  0  0
    4.5274    0.5068    0.0000 C   0  0  3  0  0  0  0  0  0  0  0  0
    5.3364   -0.0810    0.0000 C   0  0  0  0  0  0  0  0  0  0  0  0
    3.7183   -0.0810    0.0000 C   0  0  0  0  0  0  0  0  0  0  0  0
    5.0274   -1.0320    0.0000 C   0  0  0  0  0  0  0  0  0  0  0  0
    4.0274   -1.0320    0.0000 C   0  0  0  0  0  0  0  0  0  0  0  0
    6.3518    0.1513    0.0000 C   0  0  0  0  0  0  0  0  0  0  0  0
    5.7123   -1.8168    0.0000 C   0  0  0  0  0  0  0  0  0  0  0  0
    2.7029    0.1513    0.0000 C   0  0  0  0  0  0  0  0  0  0  0  0
    3.3424   -1.8168    0.0000 C   0  0  0  0  0  0  0  0  0  0  0  0
    7.0547   -0.6174    0.0000 C   0  0  0  0  0  0  0  0  0  0  0  0
    6.7328   -1.6081    0.0000 C   0  0  0  0  0  0  0  0  0  0  0  0
    2.0000   -0.6174    0.0000 C   0  0  0  0  0  0  0  0  0  0  0  0
    2.3219   -1.6081    0.0000 C   0  0  0  0  0  0  0  0  0  0  0  0
    5.0798    0.7883    0.0000 H   0  0  0  0  0  0  0  0  0  0  0  0
    6.5365    0.7431    0.0000 H   0  0  0  0  0  0  0  0  0  0  0  0
    5.5139   -2.4042    0.0000 H   0  0  0  0  0  0  0  0  0  0  0  0
    2.5182    0.7431    0.0000 H   0  0  0  0  0  0  0  0  0  0  0  0
    3.5408   -2.4042    0.0000 H   0  0  0  0  0  0  0  0  0  0  0  0
    7.1459   -2.0704    0.0000 H   0  0  0  0  0  0  0  0  0  0  0  0
    1.3940   -0.4862    0.0000 H   0  0  0  0  0  0  0  0  0  0  0  0
    1.9088   -2.0704    0.0000 H   0  0  0  0  0  0  0  0  0  0  0  0
    3.9904    1.8168    0.0000 H   0  0  0  0  0  0  0  0  0  0  0  0
  1  5  1  0  0  0  0
  1 26  1  0  0  0  0
  2  4  1  0  0  0  0
  3  4  2  0  0  0  0
  4 14  1  0  0  0  0
  5  6  1  0  0  0  0
  5  7  1  0  0  0  0
  5 18  1  0  0  0  0
  6  8  2  0  0  0  0
  6 10  1  0  0  0  0
  7  9  1  0  0  0  0
  7 12  2  0  0  0  0
  8  9  1  0  0  0  0
  8 11  1  0  0  0  0
  9 13  2  0  0  0  0
 10 14  2  0  0  0  0
 10 19  1  0  0  0  0
 11 15  2  0  0  0  0
 11 20  1  0  0  0  0
 12 16  1  0  0  0  0
 12 21  1  0  0  0  0
 13 17  1  0  0  0  0
 13 22  1  0  0  0  0
 14 15  1  0  0  0  0
 15 23  1  0  0  0  0
 16 17  2  0  0  0  0
 16 24  1  0  0  0  0
 17 25  1  0  0  0  0
M  CHG  2   2  -1   4   1
M  END
> <PUBCHEM_COMPOUND_CID>
94989

> <PUBCHEM_COMPOUND_CANONICALIZED>
1

> <PUBCHEM_CACTVS_COMPLEXITY>
314

> <PUBCHEM_CACTVS_HBOND_ACCEPTOR>
3

> <PUBCHEM_CACTVS_HBOND_DONOR>
1

> <PUBCHEM_CACTVS_ROTATABLE_BOND>
0

> <PUBCHEM_CACTVS_SUBSKEYS>
AAADccByMAAAAAAAAAAAAAAAAAAAAYAAAAAwYAAAAAAAAGABQAAAHgAECAAADByhmAIwwIAQQgCBAiRCQwCCAAAgAgAoiAAAbIoINiKAkZGAcABkwAEI2AewwOAOiAAAQAAQAAAQAACAACAAAYAADAAAAA==

> <PUBCHEM_IUPAC_OPENEYE_NAME>
2-nitro-9H-fluoren-9-ol

> <PUBCHEM_IUPAC_CAS_NAME>
2-nitro-9H-fluoren-9-ol

> <PUBCHEM_IUPAC_NAME>
2-nitro-9H-fluoren-9-ol

> <PUBCHEM_IUPAC_SYSTEMATIC_NAME>
2-nitro-9H-fluoren-9-ol

> <PUBCHEM_IUPAC_TRADITIONAL_NAME>
2-nitro-9H-fluoren-9-ol

> <PUBCHEM_IUPAC_INCHI>
InChI=1S/C13H9NO3/c15-13-11-4-2-1-3-9(11)10-6-5-8(14(16)17)7-12(10)13/h1-7,13,15H

> <PUBCHEM_IUPAC_INCHIKEY>
ZUXWEWNCAHRWBV-UHFFFAOYSA-N

> <PUBCHEM_XLOGP3_AA>
2.3

> <PUBCHEM_EXACT_MASS>
227.058243

> <PUBCHEM_MOLECULAR_FORMULA>
C13H9NO3

> <PUBCHEM_MOLECULAR_WEIGHT>
227.21546

> <PUBCHEM_OPENEYE_CAN_SMILES>
C1=CC=C2C3=C(C=C(C=C3)[N+](=O)[O-])C(C2=C1)O

> <PUBCHEM_OPENEYE_ISO_SMILES>
C1=CC=C2C3=C(C=C(C=C3)[N+](=O)[O-])C(C2=C1)O

> <PUBCHEM_CACTVS_TPSA>
66

> <PUBCHEM_MONOISOTOPIC_WEIGHT>
227.058243

> <PUBCHEM_TOTAL_CHARGE>
0

> <PUBCHEM_HEAVY_ATOM_COUNT>
17

> <PUBCHEM_ATOM_DEF_STEREO_COUNT>
0

> <PUBCHEM_ATOM_UDEF_STEREO_COUNT>
1

> <PUBCHEM_BOND_DEF_STEREO_COUNT>
0

> <PUBCHEM_BOND_UDEF_STEREO_COUNT>
0

> <PUBCHEM_ISOTOPIC_ATOM_COUNT>
0

> <PUBCHEM_COMPONENT_COUNT>
1

> <PUBCHEM_CACTVS_TAUTO_COUNT>
1

> <PUBCHEM_COORDINATE_TYPE>
1
5
255

> <PUBCHEM_BONDANNOTATIONS>
5  1  3
10  14  8
11  15  8
12  16  8
13  17  8
14  15  8
16  17  8
6  10  8
6  8  8
7  12  8
7  9  8
8  11  8
9  13  8

$$$$

