442963
  -OEChem-07051213002D

 38 40  0     1  0  0  0  0  0999 V2000
    2.0000   -0.5446    0.0000 O   0  0  0  0  0  0  0  0  0  0  0  0
    8.6914    0.0584    0.0000 N   0  0  3  0  0  0  0  0  0  0  0  0
    3.7608   -0.3627    0.0000 N   0  0  0  0  0  0  0  0  0  0  0  0
    6.4683    1.4397    0.0000 C   0  0  1  0  0  0  0  0  0  0  0  0
    6.2095    0.4737    0.0000 C   0  0  1  0  0  0  0  0  0  0  0  0
    5.7317    2.4223    0.0000 C   0  0  0  0  0  0  0  0  0  0  0  0
    8.3330    0.9920    0.0000 C   0  0  0  0  0  0  0  0  0  0  0  0
    7.9142   -0.5709    0.0000 C   0  0  0  0  0  0  0  0  0  0  0  0
    3.8654    0.6318    0.0000 C   0  0  0  0  0  0  0  0  0  0  0  0
    4.6744   -0.7694    0.0000 C   0  0  0  0  0  0  0  0  0  0  0  0
    9.6573   -0.2004    0.0000 C   0  0  0  0  0  0  0  0  0  0  0  0
    4.7992   -1.8035    0.0000 C   0  0  0  0  0  0  0  0  0  0  0  0
    2.9088   -0.9619    0.0000 C   0  0  0  0  0  0  0  0  0  0  0  0
   10.3644    0.5067    0.0000 C   0  0  0  0  0  0  0  0  0  0  0  0
    3.9612   -2.4223    0.0000 C   0  0  0  0  0  0  0  0  0  0  0  0
    3.0097   -1.9986    0.0000 C   0  0  0  0  0  0  0  0  0  0  0  0
   11.3303    0.2479    0.0000 C   0  0  0  0  0  0  0  0  0  0  0  0
   12.0374    0.9550    0.0000 C   0  0  0  0  0  0  0  0  0  0  0  0
    6.6883    2.2607    0.0000 H   0  0  0  0  0  0  0  0  0  0  0  0
    5.9895   -0.3473    0.0000 H   0  0  0  0  0  0  0  0  0  0  0  0
    6.0495    2.9546    0.0000 H   0  0  0  0  0  0  0  0  0  0  0  0
    5.1186    2.5142    0.0000 H   0  0  0  0  0  0  0  0  0  0  0  0
    8.9445    1.0943    0.0000 H   0  0  0  0  0  0  0  0  0  0  0  0
    8.3546    1.6116    0.0000 H   0  0  0  0  0  0  0  0  0  0  0  0
    7.5325   -1.0595    0.0000 H   0  0  0  0  0  0  0  0  0  0  0  0
    8.3564   -1.0055    0.0000 H   0  0  0  0  0  0  0  0  0  0  0  0
    3.7631    1.2434    0.0000 H   0  0  0  0  0  0  0  0  0  0  0  0
    3.2456    0.6129    0.0000 H   0  0  0  0  0  0  0  0  0  0  0  0
    9.3953   -0.7623    0.0000 H   0  0  0  0  0  0  0  0  0  0  0  0
   10.1652   -0.5560    0.0000 H   0  0  0  0  0  0  0  0  0  0  0  0
    5.3685   -2.0492    0.0000 H   0  0  0  0  0  0  0  0  0  0  0  0
   10.6264    1.0686    0.0000 H   0  0  0  0  0  0  0  0  0  0  0  0
    9.8565    0.8623    0.0000 H   0  0  0  0  0  0  0  0  0  0  0  0
    4.0284   -3.0386    0.0000 H   0  0  0  0  0  0  0  0  0  0  0  0
    2.5067   -2.3611    0.0000 H   0  0  0  0  0  0  0  0  0  0  0  0
   11.4908   -0.3510    0.0000 H   0  0  0  0  0  0  0  0  0  0  0  0
   12.6363    0.7945    0.0000 H   0  0  0  0  0  0  0  0  0  0  0  0
   11.8770    1.5539    0.0000 H   0  0  0  0  0  0  0  0  0  0  0  0
  1 13  2  0  0  0  0
  2  7  1  0  0  0  0
  2  8  1  0  0  0  0
  2 11  1  0  0  0  0
  3  9  1  0  0  0  0
  3 10  1  0  0  0  0
  3 13  1  0  0  0  0
  4  6  1  0  0  0  0
  4  7  1  0  0  0  0
  4  9  1  0  0  0  0
  4 19  1  6  0  0  0
  5  6  1  0  0  0  0
  5  8  1  0  0  0  0
  5 10  1  0  0  0  0
  5 20  1  6  0  0  0
  6 21  1  0  0  0  0
  6 22  1  0  0  0  0
  7 23  1  0  0  0  0
  7 24  1  0  0  0  0
  8 25  1  0  0  0  0
  8 26  1  0  0  0  0
  9 27  1  0  0  0  0
  9 28  1  0  0  0  0
 10 12  2  0  0  0  0
 11 14  1  0  0  0  0
 11 29  1  0  0  0  0
 11 30  1  0  0  0  0
 12 15  1  0  0  0  0
 12 31  1  0  0  0  0
 13 16  1  0  0  0  0
 14 17  1  0  0  0  0
 14 32  1  0  0  0  0
 14 33  1  0  0  0  0
 15 16  2  0  0  0  0
 15 34  1  0  0  0  0
 16 35  1  0  0  0  0
 17 18  2  0  0  0  0
 17 36  1  0  0  0  0
 18 37  1  0  0  0  0
 18 38  1  0  0  0  0
M  END
> <PUBCHEM_COMPOUND_CID>
442963

> <PUBCHEM_COMPOUND_CANONICALIZED>
1

> <PUBCHEM_CACTVS_COMPLEXITY>
424

> <PUBCHEM_CACTVS_HBOND_ACCEPTOR>
2

> <PUBCHEM_CACTVS_HBOND_DONOR>
0

> <PUBCHEM_CACTVS_ROTATABLE_BOND>
3

> <PUBCHEM_CACTVS_SUBSKEYS>
AAADceBzIAAAAAAAAAAAAAAAAAAAAAAAAAAsWIAAAAAWAACAAAAAHgAAAAAADQjBgAQAAAMAAACIACVSUACAAAAgAgAICAAIAEgIAAIAwQAEAAAAhgCIgYIQAAAMAAAAAAAAAAAAAAAAAAAAAAAAAAAAAA==

> <PUBCHEM_IUPAC_INCHI>
InChI=1S/C15H20N2O/c1-2-3-7-16-9-12-8-13(11-16)14-5-4-6-15(18)17(14)10-12/h2,4-6,12-13H,1,3,7-11H2/t12-,13-/m0/s1

> <PUBCHEM_IUPAC_INCHIKEY>
ZVTFRRVBMAUIQW-STQMWFEESA-N

> <PUBCHEM_XLOGP3_AA>
1.8

> <PUBCHEM_EXACT_MASS>
244.157563

> <PUBCHEM_MOLECULAR_FORMULA>
C15H20N2O

> <PUBCHEM_MOLECULAR_WEIGHT>
244.3321

> <PUBCHEM_OPENEYE_CAN_SMILES>
C=CCCN1CC2CC(C1)C3=CC=CC(=O)N3C2

> <PUBCHEM_OPENEYE_ISO_SMILES>
C=CCCN1C[C@@H]2C[C@@H](C1)C3=CC=CC(=O)N3C2

> <PUBCHEM_CACTVS_TPSA>
23.6

> <PUBCHEM_MONOISOTOPIC_WEIGHT>
244.157563

> <PUBCHEM_TOTAL_CHARGE>
0

> <PUBCHEM_HEAVY_ATOM_COUNT>
18

> <PUBCHEM_ATOM_DEF_STEREO_COUNT>
2

> <PUBCHEM_ATOM_UDEF_STEREO_COUNT>
0

> <PUBCHEM_BOND_DEF_STEREO_COUNT>
0

> <PUBCHEM_BOND_UDEF_STEREO_COUNT>
0

> <PUBCHEM_ISOTOPIC_ATOM_COUNT>
0

> <PUBCHEM_COMPONENT_COUNT>
1

> <PUBCHEM_CACTVS_TAUTO_COUNT>
3

> <PUBCHEM_COORDINATE_TYPE>
1
5
255

> <PUBCHEM_BONDANNOTATIONS>
10  12  8
12  15  8
13  16  8
15  16  8
3  10  8
3  13  8
4  19  6
5  20  6

$$$$

