5281909
  -OEChem-07051213012D

 65 64  0     1  0  0  0  0  0999 V2000
   11.5263   -4.4400    0.0000 P   0  0  3  0  0  0  0  0  0  0  0  0
   13.2583   -4.4400    0.0000 P   0  0  0  0  0  0  0  0  0  0  0  0
   10.6603   -4.9400    0.0000 O   0  0  0  0  0  0  0  0  0  0  0  0
   12.3923   -3.9400    0.0000 O   0  0  0  0  0  0  0  0  0  0  0  0
   11.0263   -3.5740    0.0000 O   0  0  0  0  0  0  0  0  0  0  0  0
   12.0263   -5.3060    0.0000 O   0  0  0  0  0  0  0  0  0  0  0  0
   14.1244   -4.9400    0.0000 O   0  0  0  0  0  0  0  0  0  0  0  0
   13.7583   -3.5740    0.0000 O   0  0  0  0  0  0  0  0  0  0  0  0
   12.7583   -5.3060    0.0000 O   0  0  0  0  0  0  0  0  0  0  0  0
    6.3301   -0.4400    0.0000 C   0  0  0  0  0  0  0  0  0  0  0  0
    5.4641    0.0600    0.0000 C   0  0  0  0  0  0  0  0  0  0  0  0
    6.3301   -1.4400    0.0000 C   0  0  0  0  0  0  0  0  0  0  0  0
    7.1962   -2.9400    0.0000 C   0  0  0  0  0  0  0  0  0  0  0  0
    4.5981    1.5600    0.0000 C   0  0  0  0  0  0  0  0  0  0  0  0
    4.5981    2.5600    0.0000 C   0  0  0  0  0  0  0  0  0  0  0  0
    8.0622   -3.4400    0.0000 C   0  0  0  0  0  0  0  0  0  0  0  0
    5.4641    1.0600    0.0000 C   0  0  0  0  0  0  0  0  0  0  0  0
    7.1962   -1.9400    0.0000 C   0  0  0  0  0  0  0  0  0  0  0  0
    3.7320    3.0600    0.0000 C   0  0  0  0  0  0  0  0  0  0  0  0
    8.0622   -4.4400    0.0000 C   0  0  0  0  0  0  0  0  0  0  0  0
    5.4641   -1.9400    0.0000 C   0  0  0  0  0  0  0  0  0  0  0  0
    3.7320    1.0600    0.0000 C   0  0  0  0  0  0  0  0  0  0  0  0
    3.7320    4.0600    0.0000 C   0  0  0  0  0  0  0  0  0  0  0  0
    8.9282   -4.9400    0.0000 C   0  0  0  0  0  0  0  0  0  0  0  0
    7.1962   -4.9400    0.0000 C   0  0  0  0  0  0  0  0  0  0  0  0
    2.8660    4.5600    0.0000 C   0  0  0  0  0  0  0  0  0  0  0  0
    9.7942   -4.4400    0.0000 C   0  0  0  0  0  0  0  0  0  0  0  0
    2.8660    5.5600    0.0000 C   0  0  0  0  0  0  0  0  0  0  0  0
    2.0000    4.0600    0.0000 C   0  0  0  0  0  0  0  0  0  0  0  0
    6.9407   -0.5477    0.0000 H   0  0  0  0  0  0  0  0  0  0  0  0
    6.5422    0.1426    0.0000 H   0  0  0  0  0  0  0  0  0  0  0  0
    4.8535    0.1677    0.0000 H   0  0  0  0  0  0  0  0  0  0  0  0
    5.2520   -0.5226    0.0000 H   0  0  0  0  0  0  0  0  0  0  0  0
    6.5856   -2.8323    0.0000 H   0  0  0  0  0  0  0  0  0  0  0  0
    6.9841   -3.5226    0.0000 H   0  0  0  0  0  0  0  0  0  0  0  0
    5.2087    2.4523    0.0000 H   0  0  0  0  0  0  0  0  0  0  0  0
    4.8101    3.1426    0.0000 H   0  0  0  0  0  0  0  0  0  0  0  0
    8.6728   -3.5477    0.0000 H   0  0  0  0  0  0  0  0  0  0  0  0
    8.2742   -2.8574    0.0000 H   0  0  0  0  0  0  0  0  0  0  0  0
    6.0010    1.3700    0.0000 H   0  0  0  0  0  0  0  0  0  0  0  0
    7.7331   -1.6300    0.0000 H   0  0  0  0  0  0  0  0  0  0  0  0
    3.1215    3.1677    0.0000 H   0  0  0  0  0  0  0  0  0  0  0  0
    3.5200    2.4774    0.0000 H   0  0  0  0  0  0  0  0  0  0  0  0
    5.1541   -1.4031    0.0000 H   0  0  0  0  0  0  0  0  0  0  0  0
    4.9272   -2.2500    0.0000 H   0  0  0  0  0  0  0  0  0  0  0  0
    5.7741   -2.4769    0.0000 H   0  0  0  0  0  0  0  0  0  0  0  0
    3.4220    1.5969    0.0000 H   0  0  0  0  0  0  0  0  0  0  0  0
    3.1951    0.7500    0.0000 H   0  0  0  0  0  0  0  0  0  0  0  0
    4.0420    0.5231    0.0000 H   0  0  0  0  0  0  0  0  0  0  0  0
    4.2690    4.3700    0.0000 H   0  0  0  0  0  0  0  0  0  0  0  0
    8.9282   -5.5600    0.0000 H   0  0  0  0  0  0  0  0  0  0  0  0
    6.8862   -4.4031    0.0000 H   0  0  0  0  0  0  0  0  0  0  0  0
    6.6592   -5.2500    0.0000 H   0  0  0  0  0  0  0  0  0  0  0  0
    7.5062   -5.4769    0.0000 H   0  0  0  0  0  0  0  0  0  0  0  0
   10.1928   -3.9650    0.0000 H   0  0  0  0  0  0  0  0  0  0  0  0
    9.3957   -3.9650    0.0000 H   0  0  0  0  0  0  0  0  0  0  0  0
    1.6900    4.5969    0.0000 H   0  0  0  0  0  0  0  0  0  0  0  0
    1.4631    3.7500    0.0000 H   0  0  0  0  0  0  0  0  0  0  0  0
    2.3100    3.5231    0.0000 H   0  0  0  0  0  0  0  0  0  0  0  0
    3.4860    5.5600    0.0000 H   0  0  0  0  0  0  0  0  0  0  0  0
    2.8660    6.1800    0.0000 H   0  0  0  0  0  0  0  0  0  0  0  0
    2.2460    5.5600    0.0000 H   0  0  0  0  0  0  0  0  0  0  0  0
   11.3363   -3.0370    0.0000 H   0  0  0  0  0  0  0  0  0  0  0  0
   14.6613   -4.6300    0.0000 H   0  0  0  0  0  0  0  0  0  0  0  0
   13.4483   -3.0370    0.0000 H   0  0  0  0  0  0  0  0  0  0  0  0
  1  3  1  0  0  0  0
  1  4  1  0  0  0  0
  1  5  1  0  0  0  0
  1  6  2  0  0  0  0
  2  4  1  0  0  0  0
  2  7  1  0  0  0  0
  2  8  1  0  0  0  0
  2  9  2  0  0  0  0
  3 27  1  0  0  0  0
  5 63  1  0  0  0  0
  7 64  1  0  0  0  0
  8 65  1  0  0  0  0
 10 11  1  0  0  0  0
 10 12  1  0  0  0  0
 10 30  1  0  0  0  0
 10 31  1  0  0  0  0
 11 17  1  0  0  0  0
 11 32  1  0  0  0  0
 11 33  1  0  0  0  0
 12 18  2  0  0  0  0
 12 21  1  0  0  0  0
 13 16  1  0  0  0  0
 13 18  1  0  0  0  0
 13 34  1  0  0  0  0
 13 35  1  0  0  0  0
 14 15  1  0  0  0  0
 14 17  2  0  0  0  0
 14 22  1  0  0  0  0
 15 19  1  0  0  0  0
 15 36  1  0  0  0  0
 15 37  1  0  0  0  0
 16 20  1  0  0  0  0
 16 38  1  0  0  0  0
 16 39  1  0  0  0  0
 17 40  1  0  0  0  0
 18 41  1  0  0  0  0
 19 23  1  0  0  0  0
 19 42  1  0  0  0  0
 19 43  1  0  0  0  0
 20 24  2  0  0  0  0
 20 25  1  0  0  0  0
 21 44  1  0  0  0  0
 21 45  1  0  0  0  0
 21 46  1  0  0  0  0
 22 47  1  0  0  0  0
 22 48  1  0  0  0  0
 22 49  1  0  0  0  0
 23 26  2  0  0  0  0
 23 50  1  0  0  0  0
 24 27  1  0  0  0  0
 24 51  1  0  0  0  0
 25 52  1  0  0  0  0
 25 53  1  0  0  0  0
 25 54  1  0  0  0  0
 26 28  1  0  0  0  0
 26 29  1  0  0  0  0
 27 55  1  0  0  0  0
 27 56  1  0  0  0  0
 28 60  1  0  0  0  0
 28 61  1  0  0  0  0
 28 62  1  0  0  0  0
 29 57  1  0  0  0  0
 29 58  1  0  0  0  0
 29 59  1  0  0  0  0
M  END
> <PUBCHEM_COMPOUND_CID>
5281909

> <PUBCHEM_COMPOUND_CANONICALIZED>
1

> <PUBCHEM_CACTVS_COMPLEXITY>
710

> <PUBCHEM_CACTVS_HBOND_ACCEPTOR>
7

> <PUBCHEM_CACTVS_HBOND_DONOR>
3

> <PUBCHEM_CACTVS_ROTATABLE_BOND>
14

> <PUBCHEM_CACTVS_SUBSKEYS>
AAADcfB4OAMAAAAAAAAAAAAAAAAAAAAAAAAAAAAAAAAAAAAAAAAAGgAACCAADACggAICAAAAARCAQiBCAIAAAAAgAAAACAAAAAgABAIAAQAAEAAAgAAIAAIAAAAAAAAAAAAAAAAAAAAAAAAAAAAAAAAAAA==

> <PUBCHEM_IUPAC_OPENEYE_NAME>
phosphono [(2Z,6E,10E)-3,7,11,15-tetramethylhexadeca-2,6,10,14-tetraenyl] hydrogen phosphate

> <PUBCHEM_IUPAC_CAS_NAME>
phosphono [(2Z,6E,10E)-3,7,11,15-tetramethylhexadeca-2,6,10,14-tetraenyl] hydrogen phosphate

> <PUBCHEM_IUPAC_NAME>
phosphono [(2Z,6E,10E)-3,7,11,15-tetramethylhexadeca-2,6,10,14-tetraenyl] hydrogen phosphate

> <PUBCHEM_IUPAC_SYSTEMATIC_NAME>
phosphono [(2Z,6E,10E)-3,7,11,15-tetramethylhexadeca-2,6,10,14-tetraenyl] hydrogen phosphate

> <PUBCHEM_IUPAC_TRADITIONAL_NAME>
phosphono [(2Z,6E,10E)-3,7,11,15-tetramethylhexadeca-2,6,10,14-tetraenyl] hydrogen phosphate

> <PUBCHEM_IUPAC_INCHI>
InChI=1S/C20H36O7P2/c1-17(2)9-6-10-18(3)11-7-12-19(4)13-8-14-20(5)15-16-26-29(24,25)27-28(21,22)23/h9,11,13,15H,6-8,10,12,14,16H2,1-5H3,(H,24,25)(H2,21,22,23)/b18-11+,19-13+,20-15-

> <PUBCHEM_IUPAC_INCHIKEY>
OINNEUNVOZHBOX-KWBDAJKESA-N

> <PUBCHEM_XLOGP3_AA>
4.4

> <PUBCHEM_EXACT_MASS>
450.193627

> <PUBCHEM_MOLECULAR_FORMULA>
C20H36O7P2

> <PUBCHEM_MOLECULAR_WEIGHT>
450.443164

> <PUBCHEM_OPENEYE_CAN_SMILES>
CC(=CCCC(=CCCC(=CCCC(=CCOP(=O)(O)OP(=O)(O)O)C)C)C)C

> <PUBCHEM_OPENEYE_ISO_SMILES>
CC(=CCC/C(=C/CC/C(=C/CC/C(=C\COP(=O)(O)OP(=O)(O)O)/C)/C)/C)C

> <PUBCHEM_CACTVS_TPSA>
113

> <PUBCHEM_MONOISOTOPIC_WEIGHT>
450.193627

> <PUBCHEM_TOTAL_CHARGE>
0

> <PUBCHEM_HEAVY_ATOM_COUNT>
29

> <PUBCHEM_ATOM_DEF_STEREO_COUNT>
0

> <PUBCHEM_ATOM_UDEF_STEREO_COUNT>
0

> <PUBCHEM_BOND_DEF_STEREO_COUNT>
3

> <PUBCHEM_BOND_UDEF_STEREO_COUNT>
0

> <PUBCHEM_ISOTOPIC_ATOM_COUNT>
0

> <PUBCHEM_COMPONENT_COUNT>
1

> <PUBCHEM_CACTVS_TAUTO_COUNT>
1

> <PUBCHEM_COORDINATE_TYPE>
1
5
255

$$$$

