5460247
  -OEChem-07051212492D

 54 53  0     1  0  0  0  0  0999 V2000
    4.7690   -4.1160    0.0000 O   0  0  0  0  0  0  0  0  0  0  0  0
    6.8671   -2.7500    0.0000 O   0  0  0  0  0  0  0  0  0  0  0  0
    2.5369   -3.2500    0.0000 O   0  0  0  0  0  0  0  0  0  0  0  0
    6.0010   -4.2500    0.0000 O   0  0  0  0  0  0  0  0  0  0  0  0
    3.4030   -4.7500    0.0000 O   0  0  0  0  0  0  0  0  0  0  0  0
    2.7690   -0.6519    0.0000 O   0  0  0  0  0  0  0  0  0  0  0  0
    4.2690    0.2141    0.0000 O   0  0  0  0  0  0  0  0  0  0  0  0
    5.1350   -2.7500    0.0000 C   0  0  2  0  0  0  0  0  0  0  0  0
    4.2690   -3.2500    0.0000 C   0  0  2  0  0  0  0  0  0  0  0  0
    5.1350   -1.7500    0.0000 C   0  0  0  0  0  0  0  0  0  0  0  0
    6.0010   -1.2500    0.0000 C   0  0  0  0  0  0  0  0  0  0  0  0
    6.0010   -0.2500    0.0000 C   0  0  0  0  0  0  0  0  0  0  0  0
    3.7690   -2.3840    0.0000 C   0  0  0  0  0  0  0  0  0  0  0  0
    6.8671    0.2500    0.0000 C   0  0  0  0  0  0  0  0  0  0  0  0
    6.8671    1.2500    0.0000 C   0  0  0  0  0  0  0  0  0  0  0  0
    7.7331    1.7500    0.0000 C   0  0  0  0  0  0  0  0  0  0  0  0
    6.0010   -3.2500    0.0000 C   0  0  0  0  0  0  0  0  0  0  0  0
    3.4030   -3.7500    0.0000 C   0  0  0  0  0  0  0  0  0  0  0  0
    4.2690   -1.5180    0.0000 C   0  0  0  0  0  0  0  0  0  0  0  0
    7.7331    2.7500    0.0000 C   0  0  0  0  0  0  0  0  0  0  0  0
    8.5991    3.2500    0.0000 C   0  0  0  0  0  0  0  0  0  0  0  0
    8.5991    4.2500    0.0000 C   0  0  0  0  0  0  0  0  0  0  0  0
    3.7690   -0.6519    0.0000 C   0  0  0  0  0  0  0  0  0  0  0  0
    9.4651    4.7500    0.0000 C   0  0  0  0  0  0  0  0  0  0  0  0
    5.1350   -3.3700    0.0000 H   0  0  0  0  0  0  0  0  0  0  0  0
    4.9230   -1.1674    0.0000 H   0  0  0  0  0  0  0  0  0  0  0  0
    4.5244   -1.8577    0.0000 H   0  0  0  0  0  0  0  0  0  0  0  0
    6.2131   -1.8326    0.0000 H   0  0  0  0  0  0  0  0  0  0  0  0
    6.6116   -1.1423    0.0000 H   0  0  0  0  0  0  0  0  0  0  0  0
    5.7890    0.3326    0.0000 H   0  0  0  0  0  0  0  0  0  0  0  0
    5.3905   -0.3577    0.0000 H   0  0  0  0  0  0  0  0  0  0  0  0
    3.2940   -1.9854    0.0000 H   0  0  0  0  0  0  0  0  0  0  0  0
    3.2940   -2.7825    0.0000 H   0  0  0  0  0  0  0  0  0  0  0  0
    7.0791   -0.3326    0.0000 H   0  0  0  0  0  0  0  0  0  0  0  0
    7.4776    0.3577    0.0000 H   0  0  0  0  0  0  0  0  0  0  0  0
    6.6550    1.8326    0.0000 H   0  0  0  0  0  0  0  0  0  0  0  0
    6.2565    1.1423    0.0000 H   0  0  0  0  0  0  0  0  0  0  0  0
    7.9451    1.1674    0.0000 H   0  0  0  0  0  0  0  0  0  0  0  0
    8.3437    1.8577    0.0000 H   0  0  0  0  0  0  0  0  0  0  0  0
    4.7439   -1.9165    0.0000 H   0  0  0  0  0  0  0  0  0  0  0  0
    4.7439   -1.1194    0.0000 H   0  0  0  0  0  0  0  0  0  0  0  0
    7.5210    3.3326    0.0000 H   0  0  0  0  0  0  0  0  0  0  0  0
    7.1225    2.6423    0.0000 H   0  0  0  0  0  0  0  0  0  0  0  0
    4.4590   -4.6530    0.0000 H   0  0  0  0  0  0  0  0  0  0  0  0
    8.8112    2.6674    0.0000 H   0  0  0  0  0  0  0  0  0  0  0  0
    9.2097    3.3577    0.0000 H   0  0  0  0  0  0  0  0  0  0  0  0
    8.3871    4.8326    0.0000 H   0  0  0  0  0  0  0  0  0  0  0  0
    7.9885    4.1423    0.0000 H   0  0  0  0  0  0  0  0  0  0  0  0
    7.4040   -3.0600    0.0000 H   0  0  0  0  0  0  0  0  0  0  0  0
    2.0000   -3.5600    0.0000 H   0  0  0  0  0  0  0  0  0  0  0  0
    9.7751    4.2131    0.0000 H   0  0  0  0  0  0  0  0  0  0  0  0
   10.0021    5.0600    0.0000 H   0  0  0  0  0  0  0  0  0  0  0  0
    9.1551    5.2869    0.0000 H   0  0  0  0  0  0  0  0  0  0  0  0
    2.4590   -0.1150    0.0000 H   0  0  0  0  0  0  0  0  0  0  0  0
  9  1  1  1  0  0  0
  1 44  1  0  0  0  0
  2 17  1  0  0  0  0
  2 49  1  0  0  0  0
  3 18  1  0  0  0  0
  3 50  1  0  0  0  0
  4 17  2  0  0  0  0
  5 18  2  0  0  0  0
  6 23  1  0  0  0  0
  6 54  1  0  0  0  0
  7 23  2  0  0  0  0
  8  9  1  0  0  0  0
  8 10  1  1  0  0  0
  8 17  1  0  0  0  0
  8 25  1  0  0  0  0
  9 13  1  0  0  0  0
  9 18  1  0  0  0  0
 10 11  1  0  0  0  0
 10 26  1  0  0  0  0
 10 27  1  0  0  0  0
 11 12  1  0  0  0  0
 11 28  1  0  0  0  0
 11 29  1  0  0  0  0
 12 14  1  0  0  0  0
 12 30  1  0  0  0  0
 12 31  1  0  0  0  0
 13 19  1  0  0  0  0
 13 32  1  0  0  0  0
 13 33  1  0  0  0  0
 14 15  1  0  0  0  0
 14 34  1  0  0  0  0
 14 35  1  0  0  0  0
 15 16  1  0  0  0  0
 15 36  1  0  0  0  0
 15 37  1  0  0  0  0
 16 20  1  0  0  0  0
 16 38  1  0  0  0  0
 16 39  1  0  0  0  0
 19 23  1  0  0  0  0
 19 40  1  0  0  0  0
 19 41  1  0  0  0  0
 20 21  1  0  0  0  0
 20 42  1  0  0  0  0
 20 43  1  0  0  0  0
 21 22  1  0  0  0  0
 21 45  1  0  0  0  0
 21 46  1  0  0  0  0
 22 24  1  0  0  0  0
 22 47  1  0  0  0  0
 22 48  1  0  0  0  0
 24 51  1  0  0  0  0
 24 52  1  0  0  0  0
 24 53  1  0  0  0  0
M  END
> <PUBCHEM_COMPOUND_CID>
5460247

> <PUBCHEM_COMPOUND_CANONICALIZED>
1

> <PUBCHEM_CACTVS_COMPLEXITY>
408

> <PUBCHEM_CACTVS_HBOND_ACCEPTOR>
7

> <PUBCHEM_CACTVS_HBOND_DONOR>
4

> <PUBCHEM_CACTVS_ROTATABLE_BOND>
15

> <PUBCHEM_CACTVS_SUBSKEYS>
AAADceB4OAAAAAAAAAAAAAAAAAAAAAAAAAAAAAAAAAAAAAAAAAAAGgAACAAADUSAgAACCAAAAgAIAACQCAIAAAAAAAAAAAFAAAABABYAAAAAQAAFIAABAAHL7vCOgAAAAAAAAAAAAAAAAAAAAAAAAAAAAA==

> <PUBCHEM_IUPAC_OPENEYE_NAME>
(3S,4S)-3-hydroxytetradecane-1,3,4-tricarboxylic acid

> <PUBCHEM_IUPAC_CAS_NAME>
(3S,4S)-3-hydroxytetradecane-1,3,4-tricarboxylic acid

> <PUBCHEM_IUPAC_NAME>
(3S,4S)-3-hydroxytetradecane-1,3,4-tricarboxylic acid

> <PUBCHEM_IUPAC_SYSTEMATIC_NAME>
(3S,4S)-3-oxidanyltetradecane-1,3,4-tricarboxylic acid

> <PUBCHEM_IUPAC_TRADITIONAL_NAME>
(3S,4S)-3-hydroxytetradecane-1,3,4-tricarboxylic acid

> <PUBCHEM_IUPAC_INCHI>
InChI=1S/C17H30O7/c1-2-3-4-5-6-7-8-9-10-13(15(20)21)17(24,16(22)23)12-11-14(18)19/h13,24H,2-12H2,1H3,(H,18,19)(H,20,21)(H,22,23)/t13-,17+/m1/s1

> <PUBCHEM_IUPAC_INCHIKEY>
QFOFNCNFUGQWTO-DYVFJYSZSA-N

> <PUBCHEM_XLOGP3_AA>
3.6

> <PUBCHEM_EXACT_MASS>
346.199153

> <PUBCHEM_MOLECULAR_FORMULA>
C17H30O7

> <PUBCHEM_MOLECULAR_WEIGHT>
346.4159

> <PUBCHEM_OPENEYE_CAN_SMILES>
CCCCCCCCCCC(C(=O)O)C(CCC(=O)O)(C(=O)O)O

> <PUBCHEM_OPENEYE_ISO_SMILES>
CCCCCCCCCC[C@H](C(=O)O)[C@@](CCC(=O)O)(C(=O)O)O

> <PUBCHEM_CACTVS_TPSA>
132

> <PUBCHEM_MONOISOTOPIC_WEIGHT>
346.199153

> <PUBCHEM_TOTAL_CHARGE>
0

> <PUBCHEM_HEAVY_ATOM_COUNT>
24

> <PUBCHEM_ATOM_DEF_STEREO_COUNT>
2

> <PUBCHEM_ATOM_UDEF_STEREO_COUNT>
0

> <PUBCHEM_BOND_DEF_STEREO_COUNT>
0

> <PUBCHEM_BOND_UDEF_STEREO_COUNT>
0

> <PUBCHEM_ISOTOPIC_ATOM_COUNT>
0

> <PUBCHEM_COMPONENT_COUNT>
1

> <PUBCHEM_CACTVS_TAUTO_COUNT>
1

> <PUBCHEM_COORDINATE_TYPE>
1
5
255

> <PUBCHEM_BONDANNOTATIONS>
9  1  5
8  10  5

$$$$

