441840
  -OEChem-07051212562D

 81 87  0     1  0  0  0  0  0999 V2000
    4.2100   -2.3638    0.0000 O   0  0  0  0  0  0  0  0  0  0  0  0
    9.6033   -3.4157    0.0000 O   0  0  0  0  0  0  0  0  0  0  0  0
    2.0000    2.1993    0.0000 O   0  0  0  0  0  0  0  0  0  0  0  0
   11.3353   -3.4090    0.0000 O   0  0  0  0  0  0  0  0  0  0  0  0
    3.2579    3.4615    0.0000 O   0  0  0  0  0  0  0  0  0  0  0  0
   11.3238   -0.4090    0.0000 O   0  0  0  0  0  0  0  0  0  0  0  0
   13.0597   -1.4024    0.0000 O   0  0  0  0  0  0  0  0  0  0  0  0
    4.2102   -1.3634    0.0000 C   0  0  1  0  0  0  0  0  0  0  0  0
    5.0762   -1.8634    0.0000 C   0  0  2  0  0  0  0  0  0  0  0  0
    4.2102   -0.3634    0.0000 C   0  0  1  0  0  0  0  0  0  0  0  0
    5.9422   -1.3634    0.0000 C   0  0  1  0  0  0  0  0  0  0  0  0
    6.8522   -1.8702    0.0000 C   0  0  2  0  0  0  0  0  0  0  0  0
    3.2640   -1.6681    0.0000 C   0  0  0  0  0  0  0  0  0  0  0  0
    5.0602   -2.9049    0.0000 C   0  0  0  0  0  0  0  0  0  0  0  0
    3.2640   -0.0586    0.0000 C   0  0  2  0  0  0  0  0  0  0  0  0
    5.0762    0.1366    0.0000 C   0  0  0  0  0  0  0  0  0  0  0  0
    5.9422   -0.3634    0.0000 C   0  0  0  0  0  0  0  0  0  0  0  0
    6.8603   -2.9118    0.0000 C   0  0  2  0  0  0  0  0  0  0  0  0
    2.6804   -0.8634    0.0000 C   0  0  0  0  0  0  0  0  0  0  0  0
    5.9582   -3.4326    0.0000 C   0  0  0  0  0  0  0  0  0  0  0  0
    4.2102    0.6366    0.0000 C   0  0  0  0  0  0  0  0  0  0  0  0
    7.7791   -1.3061    0.0000 C   0  0  0  0  0  0  0  0  0  0  0  0
    7.7957   -3.4615    0.0000 C   0  0  0  0  0  0  0  0  0  0  0  0
    6.8446   -0.8702    0.0000 C   0  0  0  0  0  0  0  0  0  0  0  0
    2.9533    0.8919    0.0000 C   0  0  0  0  0  0  0  0  0  0  0  0
    8.7270   -1.8341    0.0000 C   0  0  0  0  0  0  0  0  0  0  0  0
    8.7353   -2.9190    0.0000 C   0  0  2  0  0  0  0  0  0  0  0  0
    2.0017    1.1993    0.0000 C   0  0  0  0  0  0  0  0  0  0  0  0
    3.5397    1.7019    0.0000 C   0  0  0  0  0  0  0  0  0  0  0  0
    2.9505    2.5099    0.0000 C   0  0  0  0  0  0  0  0  0  0  0  0
   10.4674   -2.9124    0.0000 C   0  0  2  0  0  0  0  0  0  0  0  0
   10.4635   -1.9124    0.0000 C   0  0  0  0  0  0  0  0  0  0  0  0
   11.3276   -1.4090    0.0000 C   0  0  2  0  0  0  0  0  0  0  0  0
   12.1994   -2.9057    0.0000 C   0  0  1  0  0  0  0  0  0  0  0  0
   12.1956   -1.9057    0.0000 C   0  0  2  0  0  0  0  0  0  0  0  0
   13.0674   -3.4023    0.0000 C   0  0  0  0  0  0  0  0  0  0  0  0
   12.1879    0.0943    0.0000 C   0  0  0  0  0  0  0  0  0  0  0  0
    6.6751   -0.9327    0.0000 H   0  0  0  0  0  0  0  0  0  0  0  0
    2.7266   -1.9773    0.0000 H   0  0  0  0  0  0  0  0  0  0  0  0
    3.5150   -2.2350    0.0000 H   0  0  0  0  0  0  0  0  0  0  0  0
    4.4510   -2.7894    0.0000 H   0  0  0  0  0  0  0  0  0  0  0  0
    4.8421   -3.4853    0.0000 H   0  0  0  0  0  0  0  0  0  0  0  0
    2.6515    0.0376    0.0000 H   0  0  0  0  0  0  0  0  0  0  0  0
    5.4748    0.6116    0.0000 H   0  0  0  0  0  0  0  0  0  0  0  0
    4.6777    0.6116    0.0000 H   0  0  0  0  0  0  0  0  0  0  0  0
    6.5528   -0.4710    0.0000 H   0  0  0  0  0  0  0  0  0  0  0  0
    6.1543    0.2193    0.0000 H   0  0  0  0  0  0  0  0  0  0  0  0
    6.8570   -3.7618    0.0000 H   0  0  0  0  0  0  0  0  0  0  0  0
    2.2195   -0.4486    0.0000 H   0  0  0  0  0  0  0  0  0  0  0  0
    2.2195   -1.2781    0.0000 H   0  0  0  0  0  0  0  0  0  0  0  0
    5.5572   -3.9055    0.0000 H   0  0  0  0  0  0  0  0  0  0  0  0
    6.3555   -3.9086    0.0000 H   0  0  0  0  0  0  0  0  0  0  0  0
    4.8302    0.6366    0.0000 H   0  0  0  0  0  0  0  0  0  0  0  0
    4.2102    1.2566    0.0000 H   0  0  0  0  0  0  0  0  0  0  0  0
    3.5902    0.6366    0.0000 H   0  0  0  0  0  0  0  0  0  0  0  0
    8.1690   -0.8241    0.0000 H   0  0  0  0  0  0  0  0  0  0  0  0
    7.3709   -0.8395    0.0000 H   0  0  0  0  0  0  0  0  0  0  0  0
    7.3947   -3.9344    0.0000 H   0  0  0  0  0  0  0  0  0  0  0  0
    8.1930   -3.9375    0.0000 H   0  0  0  0  0  0  0  0  0  0  0  0
    7.4645   -0.8654    0.0000 H   0  0  0  0  0  0  0  0  0  0  0  0
    6.8398   -0.2502    0.0000 H   0  0  0  0  0  0  0  0  0  0  0  0
    6.2246   -0.8750    0.0000 H   0  0  0  0  0  0  0  0  0  0  0  0
    9.3386   -1.9354    0.0000 H   0  0  0  0  0  0  0  0  0  0  0  0
    8.9315   -1.2488    0.0000 H   0  0  0  0  0  0  0  0  0  0  0  0
    8.7365   -3.5390    0.0000 H   0  0  0  0  0  0  0  0  0  0  0  0
    1.3850    1.2630    0.0000 H   0  0  0  0  0  0  0  0  0  0  0  0
    1.8739    0.5926    0.0000 H   0  0  0  0  0  0  0  0  0  0  0  0
    4.1597    1.7030    0.0000 H   0  0  0  0  0  0  0  0  0  0  0  0
   10.4698   -3.5323    0.0000 H   0  0  0  0  0  0  0  0  0  0  0  0
   10.2492   -1.3306    0.0000 H   0  0  0  0  0  0  0  0  0  0  0  0
    9.8534   -2.0224    0.0000 H   0  0  0  0  0  0  0  0  0  0  0  0
   11.8634   -1.0970    0.0000 H   0  0  0  0  0  0  0  0  0  0  0  0
   12.2018   -3.5257    0.0000 H   0  0  0  0  0  0  0  0  0  0  0  0
   12.1932   -1.2857    0.0000 H   0  0  0  0  0  0  0  0  0  0  0  0
   12.7594   -3.9405    0.0000 H   0  0  0  0  0  0  0  0  0  0  0  0
   13.6055   -3.7103    0.0000 H   0  0  0  0  0  0  0  0  0  0  0  0
   13.3753   -2.8642    0.0000 H   0  0  0  0  0  0  0  0  0  0  0  0
   13.5978   -1.7103    0.0000 H   0  0  0  0  0  0  0  0  0  0  0  0
   12.4999   -0.4414    0.0000 H   0  0  0  0  0  0  0  0  0  0  0  0
   12.7236    0.4064    0.0000 H   0  0  0  0  0  0  0  0  0  0  0  0
   11.8758    0.6300    0.0000 H   0  0  0  0  0  0  0  0  0  0  0  0
  8  1  1  6  0  0  0
  9  1  1  6  0  0  0
 27  2  1  6  0  0  0
 31  2  1  1  0  0  0
  3 28  1  0  0  0  0
  3 30  1  0  0  0  0
  4 31  1  0  0  0  0
  4 34  1  0  0  0  0
  5 30  2  0  0  0  0
 33  6  1  1  0  0  0
  6 37  1  0  0  0  0
 35  7  1  1  0  0  0
  7 78  1  0  0  0  0
  8  9  1  0  0  0  0
  8 10  1  0  0  0  0
  8 13  1  0  0  0  0
  9 11  1  0  0  0  0
  9 14  1  0  0  0  0
 10 15  1  0  0  0  0
 10 16  1  0  0  0  0
 10 21  1  6  0  0  0
 11 12  1  0  0  0  0
 11 17  1  0  0  0  0
 11 38  1  1  0  0  0
 12 18  1  0  0  0  0
 12 22  1  0  0  0  0
 12 24  1  6  0  0  0
 13 19  1  0  0  0  0
 13 39  1  0  0  0  0
 13 40  1  0  0  0  0
 14 20  1  0  0  0  0
 14 41  1  0  0  0  0
 14 42  1  0  0  0  0
 15 19  1  0  0  0  0
 15 25  1  6  0  0  0
 15 43  1  0  0  0  0
 16 17  1  0  0  0  0
 16 44  1  0  0  0  0
 16 45  1  0  0  0  0
 17 46  1  0  0  0  0
 17 47  1  0  0  0  0
 18 20  1  0  0  0  0
 18 23  1  0  0  0  0
 18 48  1  6  0  0  0
 19 49  1  0  0  0  0
 19 50  1  0  0  0  0
 20 51  1  0  0  0  0
 20 52  1  0  0  0  0
 21 53  1  0  0  0  0
 21 54  1  0  0  0  0
 21 55  1  0  0  0  0
 22 26  1  0  0  0  0
 22 56  1  0  0  0  0
 22 57  1  0  0  0  0
 23 27  1  0  0  0  0
 23 58  1  0  0  0  0
 23 59  1  0  0  0  0
 24 60  1  0  0  0  0
 24 61  1  0  0  0  0
 24 62  1  0  0  0  0
 25 28  1  0  0  0  0
 25 29  2  0  0  0  0
 26 27  1  0  0  0  0
 26 63  1  0  0  0  0
 26 64  1  0  0  0  0
 27 65  1  0  0  0  0
 28 66  1  0  0  0  0
 28 67  1  0  0  0  0
 29 30  1  0  0  0  0
 29 68  1  0  0  0  0
 31 32  1  0  0  0  0
 31 69  1  0  0  0  0
 32 33  1  0  0  0  0
 32 70  1  0  0  0  0
 32 71  1  0  0  0  0
 33 35  1  0  0  0  0
 33 72  1  0  0  0  0
 34 35  1  0  0  0  0
 34 36  1  1  0  0  0
 34 73  1  0  0  0  0
 35 74  1  0  0  0  0
 36 75  1  0  0  0  0
 36 76  1  0  0  0  0
 36 77  1  0  0  0  0
 37 79  1  0  0  0  0
 37 80  1  0  0  0  0
 37 81  1  0  0  0  0
M  END
> <PUBCHEM_COMPOUND_CID>
441840

> <PUBCHEM_COMPOUND_CANONICALIZED>
1

> <PUBCHEM_CACTVS_COMPLEXITY>
996

> <PUBCHEM_CACTVS_HBOND_ACCEPTOR>
7

> <PUBCHEM_CACTVS_HBOND_DONOR>
1

> <PUBCHEM_CACTVS_ROTATABLE_BOND>
4

> <PUBCHEM_CACTVS_SUBSKEYS>
AAADcfB4OAAAAAAAAAAAAAAAEgAAAYIAAAA0YMEABIAAAGDQAAAAGgAACAAAD1SwgAMCCAAABgCIAiDSCAAAAAAgAAAACAAAAEgRFAIAIQAiUAAFgAAPIQPA4PwPgAAAAAAAAADAAAYAADAAAYAADAAAAA==

> <PUBCHEM_IUPAC_INCHI>
InChI=1S/C30H44O7/c1-17-26(32)22(33-4)15-25(35-17)36-20-6-9-27(2)19(14-20)5-11-29-23(27)8-10-28(3)21(7-12-30(28,29)37-29)18-13-24(31)34-16-18/h13,17,19-23,25-26,32H,5-12,14-16H2,1-4H3/t17-,19-,20+,21-,22-,23-,25+,26+,27+,28-,29+,30-/m1/s1

> <PUBCHEM_IUPAC_INCHIKEY>
BYZQVAOKDQTHHP-QFUJVLJYSA-N

> <PUBCHEM_XLOGP3_AA>
3.1

> <PUBCHEM_EXACT_MASS>
516.308704

> <PUBCHEM_MOLECULAR_FORMULA>
C30H44O7

> <PUBCHEM_MOLECULAR_WEIGHT>
516.66616

> <PUBCHEM_OPENEYE_CAN_SMILES>
CC1C(C(CC(O1)OC2CCC3(C(C2)CCC45C3CCC6(C4(O5)CCC6C7=CC(=O)OC7)C)C)OC)O

> <PUBCHEM_OPENEYE_ISO_SMILES>
C[C@@H]1[C@@H]([C@@H](C[C@@H](O1)O[C@H]2CC[C@]3([C@@H](C2)CC[C@]45[C@@H]3CC[C@]6([C@]4(O5)CC[C@@H]6C7=CC(=O)OC7)C)C)OC)O

> <PUBCHEM_CACTVS_TPSA>
86.8

> <PUBCHEM_MONOISOTOPIC_WEIGHT>
516.308704

> <PUBCHEM_TOTAL_CHARGE>
0

> <PUBCHEM_HEAVY_ATOM_COUNT>
37

> <PUBCHEM_ATOM_DEF_STEREO_COUNT>
12

> <PUBCHEM_ATOM_UDEF_STEREO_COUNT>
0

> <PUBCHEM_BOND_DEF_STEREO_COUNT>
0

> <PUBCHEM_BOND_UDEF_STEREO_COUNT>
0

> <PUBCHEM_ISOTOPIC_ATOM_COUNT>
0

> <PUBCHEM_COMPONENT_COUNT>
1

> <PUBCHEM_CACTVS_TAUTO_COUNT>
1

> <PUBCHEM_COORDINATE_TYPE>
1
5
255

> <PUBCHEM_BONDANNOTATIONS>
8  1  6
9  1  6
10  21  6
11  38  5
12  24  6
15  25  6
18  48  6
27  2  6
31  2  5
34  36  5
33  6  5
35  7  5

$$$$

