11954140
  -OEChem-07051213072D

 50 53  0     1  0  0  0  0  0999 V2000
    7.8286    2.5344    0.0000 O   0  0  0  0  0  0  0  0  0  0  0  0
    2.0000   -1.4728    0.0000 O   0  0  0  0  0  0  0  0  0  0  0  0
    7.2395   -0.4651    0.0000 C   0  0  2  0  0  0  0  0  0  0  0  0
    7.2395    0.5349    0.0000 C   0  0  1  0  0  0  0  0  0  0  0  0
    6.3735   -0.9651    0.0000 C   0  0  1  0  0  0  0  0  0  0  0  0
    5.5075   -0.4651    0.0000 C   0  0  1  0  0  0  0  0  0  0  0  0
    4.5975   -0.9720    0.0000 C   0  0  2  0  0  0  0  0  0  0  0  0
    8.1857    0.8396    0.0000 C   0  0  2  0  0  0  0  0  0  0  0  0
    6.3735    1.0348    0.0000 C   0  0  0  0  0  0  0  0  0  0  0  0
    5.5075    0.5349    0.0000 C   0  0  0  0  0  0  0  0  0  0  0  0
    8.1857   -0.7699    0.0000 C   0  0  0  0  0  0  0  0  0  0  0  0
    6.3895   -2.0066    0.0000 C   0  0  0  0  0  0  0  0  0  0  0  0
    8.7693    0.0349    0.0000 C   0  0  0  0  0  0  0  0  0  0  0  0
    4.5894   -2.0136    0.0000 C   0  0  0  0  0  0  0  0  0  0  0  0
    7.2395    1.5348    0.0000 C   0  0  0  0  0  0  0  0  0  0  0  0
    5.4915   -2.5344    0.0000 C   0  0  0  0  0  0  0  0  0  0  0  0
    3.6143   -0.6470    0.0000 C   0  0  0  0  0  0  0  0  0  0  0  0
    4.6052    0.0280    0.0000 C   0  0  0  0  0  0  0  0  0  0  0  0
    8.4964    1.7901    0.0000 C   0  0  0  0  0  0  0  0  0  0  0  0
    3.6014   -2.3234    0.0000 C   0  0  0  0  0  0  0  0  0  0  0  0
    3.0000   -1.4805    0.0000 C   0  0  0  0  0  0  0  0  0  0  0  0
    9.4749    1.9963    0.0000 C   0  0  0  0  0  0  0  0  0  0  0  0
    7.3294   -1.3104    0.0000 H   0  0  0  0  0  0  0  0  0  0  0  0
    7.1129   -1.3845    0.0000 H   0  0  0  0  0  0  0  0  0  0  0  0
    6.2436   -0.0401    0.0000 H   0  0  0  0  0  0  0  0  0  0  0  0
    7.7483    1.2789    0.0000 H   0  0  0  0  0  0  0  0  0  0  0  0
    6.7720    1.5098    0.0000 H   0  0  0  0  0  0  0  0  0  0  0  0
    5.9750    1.5098    0.0000 H   0  0  0  0  0  0  0  0  0  0  0  0
    5.2954    1.1175    0.0000 H   0  0  0  0  0  0  0  0  0  0  0  0
    4.8969    0.4272    0.0000 H   0  0  0  0  0  0  0  0  0  0  0  0
    7.9347   -1.3368    0.0000 H   0  0  0  0  0  0  0  0  0  0  0  0
    8.7231   -1.0791    0.0000 H   0  0  0  0  0  0  0  0  0  0  0  0
    6.6076   -2.5870    0.0000 H   0  0  0  0  0  0  0  0  0  0  0  0
    6.9987   -1.8912    0.0000 H   0  0  0  0  0  0  0  0  0  0  0  0
    9.2302   -0.3799    0.0000 H   0  0  0  0  0  0  0  0  0  0  0  0
    9.2302    0.4496    0.0000 H   0  0  0  0  0  0  0  0  0  0  0  0
    7.8595    1.5348    0.0000 H   0  0  0  0  0  0  0  0  0  0  0  0
    7.2395    2.1548    0.0000 H   0  0  0  0  0  0  0  0  0  0  0  0
    6.6195    1.5348    0.0000 H   0  0  0  0  0  0  0  0  0  0  0  0
    5.0942   -3.0104    0.0000 H   0  0  0  0  0  0  0  0  0  0  0  0
    5.8925   -3.0073    0.0000 H   0  0  0  0  0  0  0  0  0  0  0  0
    3.8697   -0.0820    0.0000 H   0  0  0  0  0  0  0  0  0  0  0  0
    3.0793   -0.3336    0.0000 H   0  0  0  0  0  0  0  0  0  0  0  0
    5.2252    0.0232    0.0000 H   0  0  0  0  0  0  0  0  0  0  0  0
    4.6099    0.6480    0.0000 H   0  0  0  0  0  0  0  0  0  0  0  0
    3.9852    0.0328    0.0000 H   0  0  0  0  0  0  0  0  0  0  0  0
    3.4042   -2.9112    0.0000 H   0  0  0  0  0  0  0  0  0  0  0  0
    9.6028    1.3896    0.0000 H   0  0  0  0  0  0  0  0  0  0  0  0
   10.0816    2.1242    0.0000 H   0  0  0  0  0  0  0  0  0  0  0  0
    9.3470    2.6030    0.0000 H   0  0  0  0  0  0  0  0  0  0  0  0
  1 19  2  0  0  0  0
  2 21  2  0  0  0  0
  3  4  1  0  0  0  0
  3  5  1  0  0  0  0
  3 11  1  0  0  0  0
  3 23  1  6  0  0  0
  4  8  1  0  0  0  0
  4  9  1  0  0  0  0
  4 15  1  1  0  0  0
  5  6  1  0  0  0  0
  5 12  1  0  0  0  0
  5 24  1  1  0  0  0
  6  7  1  0  0  0  0
  6 10  1  0  0  0  0
  6 25  1  6  0  0  0
  7 14  1  0  0  0  0
  7 17  1  0  0  0  0
  7 18  1  1  0  0  0
  8 13  1  0  0  0  0
  8 19  1  1  0  0  0
  8 26  1  0  0  0  0
  9 10  1  0  0  0  0
  9 27  1  0  0  0  0
  9 28  1  0  0  0  0
 10 29  1  0  0  0  0
 10 30  1  0  0  0  0
 11 13  1  0  0  0  0
 11 31  1  0  0  0  0
 11 32  1  0  0  0  0
 12 16  1  0  0  0  0
 12 33  1  0  0  0  0
 12 34  1  0  0  0  0
 13 35  1  0  0  0  0
 13 36  1  0  0  0  0
 14 16  1  0  0  0  0
 14 20  2  0  0  0  0
 15 37  1  0  0  0  0
 15 38  1  0  0  0  0
 15 39  1  0  0  0  0
 16 40  1  0  0  0  0
 16 41  1  0  0  0  0
 17 21  1  0  0  0  0
 17 42  1  0  0  0  0
 17 43  1  0  0  0  0
 18 44  1  0  0  0  0
 18 45  1  0  0  0  0
 18 46  1  0  0  0  0
 19 22  1  0  0  0  0
 20 21  1  0  0  0  0
 20 47  1  0  0  0  0
 22 48  1  0  0  0  0
 22 49  1  0  0  0  0
 22 50  1  0  0  0  0
M  END
> <PUBCHEM_COMPOUND_CID>
11954140

> <PUBCHEM_COMPOUND_CANONICALIZED>
1

> <PUBCHEM_CACTVS_COMPLEXITY>
574

> <PUBCHEM_CACTVS_HBOND_ACCEPTOR>
2

> <PUBCHEM_CACTVS_HBOND_DONOR>
0

> <PUBCHEM_CACTVS_ROTATABLE_BOND>
1

> <PUBCHEM_CACTVS_SUBSKEYS>
AAADceB4MAAAAAAAAAAAAAAAAAAAAYIAAAAwYAAAAAAAAGDAAAAAGgAAAAAADwSAgAACAAAAAACIAqBSAAAAAAAgAAAACAEAAEgAABIAAQAAAAAAgAAIAQMIiMCPgAAAAAAAAACAAAQAACAAAQAACAAAAA==

> <PUBCHEM_IUPAC_OPENEYE_NAME>
(3aR,3bS,5aS,6S,8aS,8bS)-6-acetyl-3a,5a-dimethyl-3b,4,5,6,7,8,8a,8b,9,10-decahydro-3H-indeno[5,4-e]inden-2-one

> <PUBCHEM_IUPAC_CAS_NAME>
(3aR,3bS,5aS,6S,8aS,8bS)-6-acetyl-3a,5a-dimethyl-3b,4,5,6,7,8,8a,8b,9,10-decahydro-3H-indeno[5,4-e]inden-2-one

> <PUBCHEM_IUPAC_NAME>
(3aR,3bS,5aS,6S,8aS,8bS)-6-acetyl-3a,5a-dimethyl-3b,4,5,6,7,8,8a,8b,9,10-decahydro-3H-indeno[5,4-e]inden-2-one

> <PUBCHEM_IUPAC_SYSTEMATIC_NAME>
(3aR,3bS,5aS,6S,8aS,8bS)-6-ethanoyl-3a,5a-dimethyl-3b,4,5,6,7,8,8a,8b,9,10-decahydro-3H-indeno[5,4-e]inden-2-one

> <PUBCHEM_IUPAC_TRADITIONAL_NAME>
(3aR,3bS,5aS,6S,8aS,8bS)-6-acetyl-3a,5a-dimethyl-3b,4,5,6,7,8,8a,8b,9,10-decahydro-3H-inden[5,4-e]inden-2-one

> <PUBCHEM_IUPAC_INCHI>
InChI=1S/C20H28O2/c1-12(21)16-6-7-17-15-5-4-13-10-14(22)11-20(13,3)18(15)8-9-19(16,17)2/h10,15-18H,4-9,11H2,1-3H3/t15-,16+,17-,18-,19+,20-/m0/s1

> <PUBCHEM_IUPAC_INCHIKEY>
CQNNLXQECGKHEH-APNJTCTJSA-N

> <PUBCHEM_XLOGP3>
3.5

> <PUBCHEM_EXACT_MASS>
300.20893

> <PUBCHEM_MOLECULAR_FORMULA>
C20H28O2

> <PUBCHEM_MOLECULAR_WEIGHT>
300.43512

> <PUBCHEM_OPENEYE_CAN_SMILES>
CC(=O)C1CCC2C1(CCC3C2CCC4=CC(=O)CC34C)C

> <PUBCHEM_OPENEYE_ISO_SMILES>
CC(=O)[C@H]1CC[C@@H]2[C@@]1(CC[C@H]3[C@H]2CCC4=CC(=O)C[C@]34C)C

> <PUBCHEM_CACTVS_TPSA>
34.1

> <PUBCHEM_MONOISOTOPIC_WEIGHT>
300.20893

> <PUBCHEM_TOTAL_CHARGE>
0

> <PUBCHEM_HEAVY_ATOM_COUNT>
22

> <PUBCHEM_ATOM_DEF_STEREO_COUNT>
6

> <PUBCHEM_ATOM_UDEF_STEREO_COUNT>
0

> <PUBCHEM_BOND_DEF_STEREO_COUNT>
0

> <PUBCHEM_BOND_UDEF_STEREO_COUNT>
0

> <PUBCHEM_ISOTOPIC_ATOM_COUNT>
0

> <PUBCHEM_COMPONENT_COUNT>
1

> <PUBCHEM_CACTVS_TAUTO_COUNT>
15

> <PUBCHEM_COORDINATE_TYPE>
1
5
255

> <PUBCHEM_BONDANNOTATIONS>
3  23  6
4  15  5
5  24  5
6  25  6
7  18  5
8  19  5

$$$$

