   Color/Form

     * CRYSTALS FROM METHANOL OR PETROLEUM ETHER
     * PALE YELLOW SOLID

   from [1]HSDB

   Melting Point
        56-57 DEG C
   from [2]HSDB

   Corrosivity
        Non-corrosive
   from [3]HSDB

   Solubilities

     * SOL IN ALIPHATIC HYDROCARBONS, ETHANOL, FATTY OILS; HIGHLY SOL IN
       LOWER ALIPHATIC KETONES, AROMATIC HYDROCARBONS
     * In water, 0.1 mg/100 ml at 20 deg C. In acetone 120, ethanol 8.3,
       xylene 89, n-hexane 1.9 (all in g/100 ml at 20 deg C)

   from [4]HSDB

   Spectral Properties
        Intense mass spectral peaks: 43 m/z (100%), 211 m/z (45%), 41 m/z
   (15%), 163 m/z (9%)
   from [5]HSDB

   Vapor Pressure
        Less than 10-5 mbar at 20 deg C
   from [6]HSDB

   Other Chemical/Physical Properties

     * MP: 58-60 DEG C; NONCORROSIVE /TECHNICAL PRODUCT, 97% PURE/
     * HYDROLYZED BY ALKALI TO PARENT PHENOL DINOSEB

   from [7]HSDB

   Computed Properties
   Molecular Weight                  326.30192 [g/mol]
   Molecular Formula                 C[14]H[18]N[2]O[7]
   XLogP3                            4.3
   H-Bond Donor                      0
   H-Bond Acceptor                   7
   Rotatable Bond Count              6
   Exact Mass                        326.111401
   MonoIsotopic Mass                 326.111401
   Topological Polar Surface Area    127
   Heavy Atom Count                  23
   Formal Charge                     0
   Complexity                        443
   Isotope Atom Count                0
   Defined Atom Stereocenter Count   0
   Undefined Atom Stereocenter Count 1
   Defined Bond Stereocenter Count   0
   Undefined Bond Stereocenter Count 0
   Covalently-Bonded Unit Count      1
   Feature 3D Acceptor Count         4
   Feature 3D Anion Count            2
   Feature 3D Hydrophobe Count       3
   Feature 3D Ring Count             1
   Effective Rotor Count             8
   Conformer Sampling RMSD           0.8
   CID Conformer Count               [8]28

References

   1. http://toxnet.nlm.nih.gov/cgi-bin/sis/search/r?dbs+hsdb:@term+@rn+@rel+973-21-7
   2. http://toxnet.nlm.nih.gov/cgi-bin/sis/search/r?dbs+hsdb:@term+@rn+@rel+973-21-7
   3. http://toxnet.nlm.nih.gov/cgi-bin/sis/search/r?dbs+hsdb:@term+@rn+@rel+973-21-7
   4. http://toxnet.nlm.nih.gov/cgi-bin/sis/search/r?dbs+hsdb:@term+@rn+@rel+973-21-7
   5. http://toxnet.nlm.nih.gov/cgi-bin/sis/search/r?dbs+hsdb:@term+@rn+@rel+973-21-7
   6. http://toxnet.nlm.nih.gov/cgi-bin/sis/search/r?dbs+hsdb:@term+@rn+@rel+973-21-7
   7. http://toxnet.nlm.nih.gov/cgi-bin/sis/search/r?dbs+hsdb:@term+@rn+@rel+973-21-7
   8. http://pubchem.ncbi.nlm.nih.gov/vw3d/vw3d.cgi?cid=13783
