10287
  -OEChem-06261204252D

 34 36  0     0  0  0  0  0  0999 V2000
    6.3301    1.5746    0.0000 O   0  0  0  0  0  0  0  0  0  0  0  0
    4.5981    1.5746    0.0000 O   0  0  0  0  0  0  0  0  0  0  0  0
    6.3301   -1.4254    0.0000 O   0  0  0  0  0  0  0  0  0  0  0  0
    8.0785    2.6092    0.0000 O   0  0  0  0  0  0  0  0  0  0  0  0
    9.8602   -0.4495    0.0000 O   0  0  0  0  0  0  0  0  0  0  0  0
    2.0000   -1.9254    0.0000 O   0  0  0  0  0  0  0  0  0  0  0  0
    5.4641    0.0746    0.0000 C   0  0  0  0  0  0  0  0  0  0  0  0
    7.1962    0.0746    0.0000 C   0  0  0  0  0  0  0  0  0  0  0  0
    7.1962    1.0746    0.0000 C   0  0  0  0  0  0  0  0  0  0  0  0
    6.3301   -0.4254    0.0000 C   0  0  0  0  0  0  0  0  0  0  0  0
    4.5981   -0.4254    0.0000 C   0  0  0  0  0  0  0  0  0  0  0  0
    5.4641    1.0746    0.0000 C   0  0  0  0  0  0  0  0  0  0  0  0
    8.0901   -0.4601    0.0000 C   0  0  0  0  0  0  0  0  0  0  0  0
    8.0901    1.6093    0.0000 C   0  0  0  0  0  0  0  0  0  0  0  0
    3.7320    0.0746    0.0000 C   0  0  0  0  0  0  0  0  0  0  0  0
    4.5981   -1.4254    0.0000 C   0  0  0  0  0  0  0  0  0  0  0  0
    8.9962    0.0538    0.0000 C   0  0  0  0  0  0  0  0  0  0  0  0
    8.9962    1.0954    0.0000 C   0  0  0  0  0  0  0  0  0  0  0  0
    2.8660   -0.4254    0.0000 C   0  0  0  0  0  0  0  0  0  0  0  0
    3.7320   -1.9254    0.0000 C   0  0  0  0  0  0  0  0  0  0  0  0
    2.8660   -1.4254    0.0000 C   0  0  0  0  0  0  0  0  0  0  0  0
    2.0000   -2.9254    0.0000 C   0  0  0  0  0  0  0  0  0  0  0  0
    8.0829   -1.0800    0.0000 H   0  0  0  0  0  0  0  0  0  0  0  0
    3.7320    0.6946    0.0000 H   0  0  0  0  0  0  0  0  0  0  0  0
    5.1350   -1.7354    0.0000 H   0  0  0  0  0  0  0  0  0  0  0  0
    9.5319    1.4075    0.0000 H   0  0  0  0  0  0  0  0  0  0  0  0
    2.3291   -0.1154    0.0000 H   0  0  0  0  0  0  0  0  0  0  0  0
    3.7320   -2.5454    0.0000 H   0  0  0  0  0  0  0  0  0  0  0  0
    4.5981    2.1946    0.0000 H   0  0  0  0  0  0  0  0  0  0  0  0
    8.6118    2.9254    0.0000 H   0  0  0  0  0  0  0  0  0  0  0  0
   10.3984   -0.1416    0.0000 H   0  0  0  0  0  0  0  0  0  0  0  0
    1.3800   -2.9254    0.0000 H   0  0  0  0  0  0  0  0  0  0  0  0
    2.0000   -3.5454    0.0000 H   0  0  0  0  0  0  0  0  0  0  0  0
    2.6200   -2.9254    0.0000 H   0  0  0  0  0  0  0  0  0  0  0  0
  1  9  1  0  0  0  0
  1 12  1  0  0  0  0
  2 12  1  0  0  0  0
  2 29  1  0  0  0  0
  3 10  2  0  0  0  0
  4 14  1  0  0  0  0
  4 30  1  0  0  0  0
  5 17  1  0  0  0  0
  5 31  1  0  0  0  0
  6 21  1  0  0  0  0
  6 22  1  0  0  0  0
  7 10  1  0  0  0  0
  7 11  1  0  0  0  0
  7 12  2  0  0  0  0
  8  9  2  0  0  0  0
  8 10  1  0  0  0  0
  8 13  1  0  0  0  0
  9 14  1  0  0  0  0
 11 15  2  0  0  0  0
 11 16  1  0  0  0  0
 13 17  2  0  0  0  0
 13 23  1  0  0  0  0
 14 18  2  0  0  0  0
 15 19  1  0  0  0  0
 15 24  1  0  0  0  0
 16 20  2  0  0  0  0
 16 25  1  0  0  0  0
 17 18  1  0  0  0  0
 18 26  1  0  0  0  0
 19 21  2  0  0  0  0
 19 27  1  0  0  0  0
 20 21  1  0  0  0  0
 20 28  1  0  0  0  0
 22 32  1  0  0  0  0
 22 33  1  0  0  0  0
 22 34  1  0  0  0  0
M  END
> <PUBCHEM_COMPOUND_CID>
10287

> <PUBCHEM_COMPOUND_CANONICALIZED>
1

> <PUBCHEM_CACTVS_COMPLEXITY>
465

> <PUBCHEM_CACTVS_HBOND_ACCEPTOR>
6

> <PUBCHEM_CACTVS_HBOND_DONOR>
3

> <PUBCHEM_CACTVS_ROTATABLE_BOND>
2

> <PUBCHEM_CACTVS_SUBSKEYS>
AAADccB4OAAAAAAAAAAAAAAAAAAAAAAAAAAwYIAAAAAAAACBQAAAGgAACAAADASAmAIyDoAABgCIAqBSAAACCAAkIAAIiAEGiMgdJzaGNRqAcWMl4BUPuYfK6PSOIQABCAAIQABCAAIQABCAAAAAAAAAAA==

> <PUBCHEM_IUPAC_OPENEYE_NAME>
2,6,8-trihydroxy-3-(4-methoxyphenyl)chromen-4-one

> <PUBCHEM_IUPAC_CAS_NAME>
2,6,8-trihydroxy-3-(4-methoxyphenyl)-1-benzopyran-4-one

> <PUBCHEM_IUPAC_NAME>
2,6,8-trihydroxy-3-(4-methoxyphenyl)chromen-4-one

> <PUBCHEM_IUPAC_SYSTEMATIC_NAME>
3-(4-methoxyphenyl)-2,6,8-tris(oxidanyl)chromen-4-one

> <PUBCHEM_IUPAC_TRADITIONAL_NAME>
2,6,8-trihydroxy-3-(4-methoxyphenyl)chromone

> <PUBCHEM_IUPAC_INCHI>
InChI=1S/C16H12O6/c1-21-10-4-2-8(3-5-10)13-14(19)11-6-9(17)7-12(18)15(11)22-16(13)20/h2-7,17-18,20H,1H3

> <PUBCHEM_IUPAC_INCHIKEY>
WLXFQKVWKPYFHN-UHFFFAOYSA-N

> <PUBCHEM_XLOGP3_AA>
2.3

> <PUBCHEM_EXACT_MASS>
300.063388

> <PUBCHEM_MOLECULAR_FORMULA>
C16H12O6

> <PUBCHEM_MOLECULAR_WEIGHT>
300.26288

> <PUBCHEM_OPENEYE_CAN_SMILES>
COC1=CC=C(C=C1)C2=C(OC3=C(C=C(C=C3C2=O)O)O)O

> <PUBCHEM_OPENEYE_ISO_SMILES>
COC1=CC=C(C=C1)C2=C(OC3=C(C=C(C=C3C2=O)O)O)O

> <PUBCHEM_CACTVS_TPSA>
96.2

> <PUBCHEM_MONOISOTOPIC_WEIGHT>
300.063388

> <PUBCHEM_TOTAL_CHARGE>
0

> <PUBCHEM_HEAVY_ATOM_COUNT>
22

> <PUBCHEM_ATOM_DEF_STEREO_COUNT>
0

> <PUBCHEM_ATOM_UDEF_STEREO_COUNT>
0

> <PUBCHEM_BOND_DEF_STEREO_COUNT>
0

> <PUBCHEM_BOND_UDEF_STEREO_COUNT>
0

> <PUBCHEM_ISOTOPIC_ATOM_COUNT>
0

> <PUBCHEM_COMPONENT_COUNT>
1

> <PUBCHEM_CACTVS_TAUTO_COUNT>
27

> <PUBCHEM_COORDINATE_TYPE>
1
5
255

> <PUBCHEM_BONDANNOTATIONS>
1  12  8
1  9  8
11  15  8
11  16  8
13  17  8
14  18  8
15  19  8
16  20  8
17  18  8
19  21  8
20  21  8
7  10  8
7  12  8
8  10  8
8  13  8
8  9  8
9  14  8

$$$$

