5002
  -OEChem-07051212532D

 52 55  0     0  0  0  0  0  0999 V2000
    4.8830   -5.1737    0.0000 S   0  0  0  0  0  0  0  0  0  0  0  0
    2.7769    2.3480    0.0000 O   0  0  0  0  0  0  0  0  0  0  0  0
    3.4697    4.9014    0.0000 O   0  0  0  0  0  0  0  0  0  0  0  0
    3.0814   -0.2802    0.0000 N   0  0  0  0  0  0  0  0  0  0  0  0
    3.9491   -2.0821    0.0000 N   0  0  0  0  0  0  0  0  0  0  0  0
    5.3830   -2.9831    0.0000 N   0  0  0  0  0  0  0  0  0  0  0  0
    2.5180   -1.1064    0.0000 C   0  0  0  0  0  0  0  0  0  0  0  0
    4.0786   -0.3549    0.0000 C   0  0  0  0  0  0  0  0  0  0  0  0
    2.9519   -2.0074    0.0000 C   0  0  0  0  0  0  0  0  0  0  0  0
    4.5125   -1.2559    0.0000 C   0  0  0  0  0  0  0  0  0  0  0  0
    2.6475    0.6208    0.0000 C   0  0  0  0  0  0  0  0  0  0  0  0
    4.3830   -2.9831    0.0000 C   0  0  0  0  0  0  0  0  0  0  0  0
    3.2108    1.4470    0.0000 C   0  0  0  0  0  0  0  0  0  0  0  0
    3.7595   -3.7649    0.0000 C   0  0  0  0  0  0  0  0  0  0  0  0
    3.9820   -4.7398    0.0000 C   0  0  0  0  0  0  0  0  0  0  0  0
    2.7690   -3.4426    0.0000 C   0  0  0  0  0  0  0  0  0  0  0  0
    6.0065   -3.7649    0.0000 C   0  0  0  0  0  0  0  0  0  0  0  0
    5.7840   -4.7399    0.0000 C   0  0  0  0  0  0  0  0  0  0  0  0
    3.2295   -5.4600    0.0000 C   0  0  0  0  0  0  0  0  0  0  0  0
    3.3403    3.1742    0.0000 C   0  0  0  0  0  0  0  0  0  0  0  0
    2.0000   -4.1452    0.0000 C   0  0  0  0  0  0  0  0  0  0  0  0
    2.2318   -5.1607    0.0000 C   0  0  0  0  0  0  0  0  0  0  0  0
    6.9970   -3.4426    0.0000 C   0  0  0  0  0  0  0  0  0  0  0  0
    6.5365   -5.4600    0.0000 C   0  0  0  0  0  0  0  0  0  0  0  0
    2.9064    4.0752    0.0000 C   0  0  0  0  0  0  0  0  0  0  0  0
    7.7660   -4.1452    0.0000 C   0  0  0  0  0  0  0  0  0  0  0  0
    7.5342   -5.1607    0.0000 C   0  0  0  0  0  0  0  0  0  0  0  0
    2.0742   -0.6735    0.0000 H   0  0  0  0  0  0  0  0  0  0  0  0
    2.0146   -1.4683    0.0000 H   0  0  0  0  0  0  0  0  0  0  0  0
    4.6754   -0.1870    0.0000 H   0  0  0  0  0  0  0  0  0  0  0  0
    4.0168    0.2620    0.0000 H   0  0  0  0  0  0  0  0  0  0  0  0
    4.9563   -1.6888    0.0000 H   0  0  0  0  0  0  0  0  0  0  0  0
    5.0159   -0.8940    0.0000 H   0  0  0  0  0  0  0  0  0  0  0  0
    2.3551   -2.1753    0.0000 H   0  0  0  0  0  0  0  0  0  0  0  0
    3.0137   -2.6243    0.0000 H   0  0  0  0  0  0  0  0  0  0  0  0
    2.2037    1.0537    0.0000 H   0  0  0  0  0  0  0  0  0  0  0  0
    2.1441    0.2589    0.0000 H   0  0  0  0  0  0  0  0  0  0  0  0
    3.6547    1.0141    0.0000 H   0  0  0  0  0  0  0  0  0  0  0  0
    3.7142    1.8090    0.0000 H   0  0  0  0  0  0  0  0  0  0  0  0
    2.6380   -2.8366    0.0000 H   0  0  0  0  0  0  0  0  0  0  0  0
    3.3744   -6.0628    0.0000 H   0  0  0  0  0  0  0  0  0  0  0  0
    3.7841    2.7413    0.0000 H   0  0  0  0  0  0  0  0  0  0  0  0
    3.8437    3.5362    0.0000 H   0  0  0  0  0  0  0  0  0  0  0  0
    1.4083   -3.9601    0.0000 H   0  0  0  0  0  0  0  0  0  0  0  0
    1.7789   -5.5841    0.0000 H   0  0  0  0  0  0  0  0  0  0  0  0
    7.1280   -2.8366    0.0000 H   0  0  0  0  0  0  0  0  0  0  0  0
    6.3916   -6.0629    0.0000 H   0  0  0  0  0  0  0  0  0  0  0  0
    2.4626    4.5081    0.0000 H   0  0  0  0  0  0  0  0  0  0  0  0
    2.4030    3.7133    0.0000 H   0  0  0  0  0  0  0  0  0  0  0  0
    8.3578   -3.9602    0.0000 H   0  0  0  0  0  0  0  0  0  0  0  0
    7.9871   -5.5842    0.0000 H   0  0  0  0  0  0  0  0  0  0  0  0
    3.2007    5.4600    0.0000 H   0  0  0  0  0  0  0  0  0  0  0  0
  1 15  1  0  0  0  0
  1 18  1  0  0  0  0
  2 13  1  0  0  0  0
  2 20  1  0  0  0  0
  3 25  1  0  0  0  0
  3 52  1  0  0  0  0
  4  7  1  0  0  0  0
  4  8  1  0  0  0  0
  4 11  1  0  0  0  0
  5  9  1  0  0  0  0
  5 10  1  0  0  0  0
  5 12  1  0  0  0  0
  6 12  2  0  0  0  0
  6 17  1  0  0  0  0
  7  9  1  0  0  0  0
  7 28  1  0  0  0  0
  7 29  1  0  0  0  0
  8 10  1  0  0  0  0
  8 30  1  0  0  0  0
  8 31  1  0  0  0  0
  9 34  1  0  0  0  0
  9 35  1  0  0  0  0
 10 32  1  0  0  0  0
 10 33  1  0  0  0  0
 11 13  1  0  0  0  0
 11 36  1  0  0  0  0
 11 37  1  0  0  0  0
 12 14  1  0  0  0  0
 13 38  1  0  0  0  0
 13 39  1  0  0  0  0
 14 15  1  0  0  0  0
 14 16  2  0  0  0  0
 15 19  2  0  0  0  0
 16 21  1  0  0  0  0
 16 40  1  0  0  0  0
 17 18  1  0  0  0  0
 17 23  2  0  0  0  0
 18 24  2  0  0  0  0
 19 22  1  0  0  0  0
 19 41  1  0  0  0  0
 20 25  1  0  0  0  0
 20 42  1  0  0  0  0
 20 43  1  0  0  0  0
 21 22  2  0  0  0  0
 21 44  1  0  0  0  0
 22 45  1  0  0  0  0
 23 26  1  0  0  0  0
 23 46  1  0  0  0  0
 24 27  1  0  0  0  0
 24 47  1  0  0  0  0
 25 48  1  0  0  0  0
 25 49  1  0  0  0  0
 26 27  2  0  0  0  0
 26 50  1  0  0  0  0
 27 51  1  0  0  0  0
M  END
> <PUBCHEM_COMPOUND_CID>
5002

> <PUBCHEM_COMPOUND_CANONICALIZED>
1

> <PUBCHEM_CACTVS_COMPLEXITY>
496

> <PUBCHEM_CACTVS_HBOND_ACCEPTOR>
5

> <PUBCHEM_CACTVS_HBOND_DONOR>
1

> <PUBCHEM_CACTVS_ROTATABLE_BOND>
6

> <PUBCHEM_CACTVS_SUBSKEYS>
AAADceB7MABAAAAAAAAAAAAAAAAAAAAAAAA8YIAABAAAAAABQAAAHgQACAAADAjh2AYxwYMABgigAiZiZACCAAEgChAJiBwoZJgLcKKgmZGXIAhggAC7yAcQgAAOAAAAAAAEAQAAAAAAAAgCAAAAAAAAAA==

> <PUBCHEM_IUPAC_OPENEYE_NAME>
2-[2-(4-benzo[b][1,4]benzothiazepin-6-ylpiperazin-1-yl)ethoxy]ethanol

> <PUBCHEM_IUPAC_CAS_NAME>
2-[2-[4-(6-benzo[b][1,4]benzothiazepinyl)-1-piperazinyl]ethoxy]ethanol

> <PUBCHEM_IUPAC_NAME>
2-[2-(4-benzo[b][1,4]benzothiazepin-6-ylpiperazin-1-yl)ethoxy]ethanol

> <PUBCHEM_IUPAC_SYSTEMATIC_NAME>
2-[2-(4-benzo[b][1,4]benzothiazepin-6-ylpiperazin-1-yl)ethoxy]ethanol

> <PUBCHEM_IUPAC_TRADITIONAL_NAME>
2-[2-(4-benzo[b][1,4]benzothiazepin-6-ylpiperazino)ethoxy]ethanol

> <PUBCHEM_IUPAC_INCHI>
InChI=1S/C21H25N3O2S/c25-14-16-26-15-13-23-9-11-24(12-10-23)21-17-5-1-3-7-19(17)27-20-8-4-2-6-18(20)22-21/h1-8,25H,9-16H2

> <PUBCHEM_IUPAC_INCHIKEY>
URKOMYMAXPYINW-UHFFFAOYSA-N

> <PUBCHEM_XLOGP3_AA>
2.1

> <PUBCHEM_EXACT_MASS>
383.166748

> <PUBCHEM_MOLECULAR_FORMULA>
C21H25N3O2S

> <PUBCHEM_MOLECULAR_WEIGHT>
383.5071

> <PUBCHEM_OPENEYE_CAN_SMILES>
C1CN(CCN1CCOCCO)C2=NC3=CC=CC=C3SC4=CC=CC=C42

> <PUBCHEM_OPENEYE_ISO_SMILES>
C1CN(CCN1CCOCCO)C2=NC3=CC=CC=C3SC4=CC=CC=C42

> <PUBCHEM_CACTVS_TPSA>
73.6

> <PUBCHEM_MONOISOTOPIC_WEIGHT>
383.166748

> <PUBCHEM_TOTAL_CHARGE>
0

> <PUBCHEM_HEAVY_ATOM_COUNT>
27

> <PUBCHEM_ATOM_DEF_STEREO_COUNT>
0

> <PUBCHEM_ATOM_UDEF_STEREO_COUNT>
0

> <PUBCHEM_BOND_DEF_STEREO_COUNT>
0

> <PUBCHEM_BOND_UDEF_STEREO_COUNT>
0

> <PUBCHEM_ISOTOPIC_ATOM_COUNT>
0

> <PUBCHEM_COMPONENT_COUNT>
1

> <PUBCHEM_CACTVS_TAUTO_COUNT>
1

> <PUBCHEM_COORDINATE_TYPE>
1
5
255

> <PUBCHEM_BONDANNOTATIONS>
14  15  8
14  16  8
15  19  8
16  21  8
17  18  8
17  23  8
18  24  8
19  22  8
21  22  8
23  26  8
24  27  8
26  27  8

$$$$

