442930
  -OEChem-07051213002D

 41 43  0     1  0  0  0  0  0999 V2000
    6.4783   -0.8793    0.0000 O   0  0  0  0  0  0  0  0  0  0  0  0
    9.0619   -0.0746    0.0000 O   0  0  0  0  0  0  0  0  0  0  0  0
    4.6660    1.9254    0.0000 O   0  0  0  0  0  0  0  0  0  0  0  0
    2.9176   -2.1092    0.0000 O   0  0  0  0  0  0  0  0  0  0  0  0
    4.6660   -1.0746    0.0000 N   0  3  0  0  0  0  0  0  0  0  0  0
    7.0619   -0.0746    0.0000 C   0  0  2  0  0  0  0  0  0  0  0  0
    6.4783    0.7301    0.0000 C   0  0  0  0  0  0  0  0  0  0  0  0
    8.0619   -0.0746    0.0000 C   0  0  0  0  0  0  0  0  0  0  0  0
    5.5321    0.4254    0.0000 C   0  0  0  0  0  0  0  0  0  0  0  0
    5.5321   -0.5746    0.0000 C   0  0  0  0  0  0  0  0  0  0  0  0
    4.6660    0.9254    0.0000 C   0  0  0  0  0  0  0  0  0  0  0  0
    8.0619    0.9254    0.0000 C   0  0  0  0  0  0  0  0  0  0  0  0
    8.0619   -1.0746    0.0000 C   0  0  0  0  0  0  0  0  0  0  0  0
    3.8000   -0.5746    0.0000 C   0  0  0  0  0  0  0  0  0  0  0  0
    3.8000    0.4254    0.0000 C   0  0  0  0  0  0  0  0  0  0  0  0
    4.6660   -2.0746    0.0000 C   0  0  0  0  0  0  0  0  0  0  0  0
    2.9061   -1.1093    0.0000 C   0  0  0  0  0  0  0  0  0  0  0  0
    2.9061    0.9601    0.0000 C   0  0  0  0  0  0  0  0  0  0  0  0
    2.0000   -0.5954    0.0000 C   0  0  0  0  0  0  0  0  0  0  0  0
    2.0000    0.4462    0.0000 C   0  0  0  0  0  0  0  0  0  0  0  0
    5.5321    2.4254    0.0000 C   0  0  0  0  0  0  0  0  0  0  0  0
    7.4481   -0.8318    0.0000 H   0  0  0  0  0  0  0  0  0  0  0  0
    7.0157    1.0394    0.0000 H   0  0  0  0  0  0  0  0  0  0  0  0
    6.2272    1.2970    0.0000 H   0  0  0  0  0  0  0  0  0  0  0  0
    7.4419   -1.0746    0.0000 H   0  0  0  0  0  0  0  0  0  0  0  0
    8.6819    0.9254    0.0000 H   0  0  0  0  0  0  0  0  0  0  0  0
    8.0619    1.5454    0.0000 H   0  0  0  0  0  0  0  0  0  0  0  0
    7.4419    0.9254    0.0000 H   0  0  0  0  0  0  0  0  0  0  0  0
    8.0619   -1.6946    0.0000 H   0  0  0  0  0  0  0  0  0  0  0  0
    8.6819   -1.0746    0.0000 H   0  0  0  0  0  0  0  0  0  0  0  0
    9.3719   -0.6115    0.0000 H   0  0  0  0  0  0  0  0  0  0  0  0
    4.0460   -2.0746    0.0000 H   0  0  0  0  0  0  0  0  0  0  0  0
    4.6660   -2.6946    0.0000 H   0  0  0  0  0  0  0  0  0  0  0  0
    5.2860   -2.0746    0.0000 H   0  0  0  0  0  0  0  0  0  0  0  0
    2.9132    1.5800    0.0000 H   0  0  0  0  0  0  0  0  0  0  0  0
    1.4643   -0.9075    0.0000 H   0  0  0  0  0  0  0  0  0  0  0  0
    1.4643    0.7583    0.0000 H   0  0  0  0  0  0  0  0  0  0  0  0
    5.8421    1.8885    0.0000 H   0  0  0  0  0  0  0  0  0  0  0  0
    6.0690    2.7354    0.0000 H   0  0  0  0  0  0  0  0  0  0  0  0
    5.2221    2.9623    0.0000 H   0  0  0  0  0  0  0  0  0  0  0  0
    2.3843   -2.4254    0.0000 H   0  0  0  0  0  0  0  0  0  0  0  0
  1  6  1  0  0  0  0
  1 10  1  0  0  0  0
  2  8  1  0  0  0  0
  2 31  1  0  0  0  0
  3 11  1  0  0  0  0
  3 21  1  0  0  0  0
  4 17  1  0  0  0  0
  4 41  1  0  0  0  0
  5 10  2  0  0  0  0
  5 14  1  0  0  0  0
  5 16  1  0  0  0  0
  6  7  1  0  0  0  0
  6  8  1  0  0  0  0
  6 22  1  1  0  0  0
  7  9  1  0  0  0  0
  7 23  1  0  0  0  0
  7 24  1  0  0  0  0
  8 12  1  0  0  0  0
  8 13  1  0  0  0  0
  9 10  1  0  0  0  0
  9 11  2  0  0  0  0
 11 15  1  0  0  0  0
 12 26  1  0  0  0  0
 12 27  1  0  0  0  0
 12 28  1  0  0  0  0
 13 25  1  0  0  0  0
 13 29  1  0  0  0  0
 13 30  1  0  0  0  0
 14 15  2  0  0  0  0
 14 17  1  0  0  0  0
 15 18  1  0  0  0  0
 16 32  1  0  0  0  0
 16 33  1  0  0  0  0
 16 34  1  0  0  0  0
 17 19  2  0  0  0  0
 18 20  2  0  0  0  0
 18 35  1  0  0  0  0
 19 20  1  0  0  0  0
 19 36  1  0  0  0  0
 20 37  1  0  0  0  0
 21 38  1  0  0  0  0
 21 39  1  0  0  0  0
 21 40  1  0  0  0  0
M  CHG  1   5   1
M  END
> <PUBCHEM_COMPOUND_CID>
442930

> <PUBCHEM_COMPOUND_CANONICALIZED>
1

> <PUBCHEM_CACTVS_COMPLEXITY>
389

> <PUBCHEM_CACTVS_HBOND_ACCEPTOR>
4

> <PUBCHEM_CACTVS_HBOND_DONOR>
2

> <PUBCHEM_CACTVS_ROTATABLE_BOND>
2

> <PUBCHEM_CACTVS_SUBSKEYS>
AAADceB6OAAAAAAAAAAAAAAAAAAAASAAAAA8QAAAAAAAAFix8AAAHgAACAAADFyhngYyxvMMFgCgAyRiRASCiCAhYCAI2CAvTJgPJ+LWsZuOeCjnwB3b+Afw8P8OAAABAAACEAAAAAIAAAQgAAAAAAAAAA==

> <PUBCHEM_IUPAC_OPENEYE_NAME>
(2R)-2-(1-hydroxy-1-methyl-ethyl)-4-methoxy-9-methyl-2,3-dihydrofuro[2,3-b]quinolin-9-ium-8-ol

> <PUBCHEM_IUPAC_CAS_NAME>
(2R)-2-(2-hydroxypropan-2-yl)-4-methoxy-9-methyl-2,3-dihydrofuro[2,3-b]quinolin-9-ium-8-ol

> <PUBCHEM_IUPAC_NAME>
(2R)-2-(2-hydroxypropan-2-yl)-4-methoxy-9-methyl-2,3-dihydrofuro[2,3-b]quinolin-9-ium-8-ol

> <PUBCHEM_IUPAC_SYSTEMATIC_NAME>
(2R)-4-methoxy-9-methyl-2-(2-oxidanylpropan-2-yl)-2,3-dihydrofuro[2,3-b]quinolin-9-ium-8-ol

> <PUBCHEM_IUPAC_TRADITIONAL_NAME>
(2R)-2-(1-hydroxy-1-methyl-ethyl)-4-methoxy-9-methyl-2,3-dihydrofuro[2,3-b]quinolin-9-ium-8-ol

> <PUBCHEM_IUPAC_INCHI>
InChI=1S/C16H19NO4/c1-16(2,19)12-8-10-14(20-4)9-6-5-7-11(18)13(9)17(3)15(10)21-12/h5-7,12,19H,8H2,1-4H3/p+1/t12-/m1/s1

> <PUBCHEM_IUPAC_INCHIKEY>
LLOFHMBKWRXUBL-GFCCVEGCSA-O

> <PUBCHEM_XLOGP3_AA>
2.3

> <PUBCHEM_EXACT_MASS>
290.139233

> <PUBCHEM_MOLECULAR_FORMULA>
C16H20NO4+

> <PUBCHEM_MOLECULAR_WEIGHT>
290.3343

> <PUBCHEM_OPENEYE_CAN_SMILES>
CC(C)(C1CC2=C(C3=C(C(=CC=C3)O)[N+](=C2O1)C)OC)O

> <PUBCHEM_OPENEYE_ISO_SMILES>
CC(C)([C@H]1CC2=C(C3=C(C(=CC=C3)O)[N+](=C2O1)C)OC)O

> <PUBCHEM_CACTVS_TPSA>
62.8

> <PUBCHEM_MONOISOTOPIC_WEIGHT>
290.139233

> <PUBCHEM_TOTAL_CHARGE>
1

> <PUBCHEM_HEAVY_ATOM_COUNT>
21

> <PUBCHEM_ATOM_DEF_STEREO_COUNT>
1

> <PUBCHEM_ATOM_UDEF_STEREO_COUNT>
0

> <PUBCHEM_BOND_DEF_STEREO_COUNT>
0

> <PUBCHEM_BOND_UDEF_STEREO_COUNT>
0

> <PUBCHEM_ISOTOPIC_ATOM_COUNT>
0

> <PUBCHEM_COMPONENT_COUNT>
1

> <PUBCHEM_CACTVS_TAUTO_COUNT>
8

> <PUBCHEM_COORDINATE_TYPE>
1
5
255

> <PUBCHEM_BONDANNOTATIONS>
11  15  8
14  15  8
14  17  8
15  18  8
17  19  8
18  20  8
19  20  8
5  10  8
5  14  8
6  22  5
9  10  8
9  11  8

$$$$

