656869
  -OEChem-07051213042D

 23 24  0     0  0  0  0  0  0999 V2000
    4.2690   -1.3623    0.0000 O   0  0  0  0  0  0  0  0  0  0  0  0
    2.5369   -0.3623    0.0000 O   0  0  0  0  0  0  0  0  0  0  0  0
    5.1350    0.1377    0.0000 C   0  0  0  0  0  0  0  0  0  0  0  0
    5.1350    1.1377    0.0000 C   0  0  0  0  0  0  0  0  0  0  0  0
    6.0290   -0.3970    0.0000 C   0  0  0  0  0  0  0  0  0  0  0  0
    4.2690   -0.3623    0.0000 C   0  0  0  0  0  0  0  0  0  0  0  0
    6.0290    1.6723    0.0000 C   0  0  0  0  0  0  0  0  0  0  0  0
    4.2690    1.6377    0.0000 C   0  0  0  0  0  0  0  0  0  0  0  0
    6.9350    0.1169    0.0000 C   0  0  0  0  0  0  0  0  0  0  0  0
    3.4030    0.1377    0.0000 C   0  0  0  0  0  0  0  0  0  0  0  0
    6.9350    1.1585    0.0000 C   0  0  0  0  0  0  0  0  0  0  0  0
    6.0174   -1.3969    0.0000 C   0  0  0  0  0  0  0  0  0  0  0  0
    3.4030    1.1377    0.0000 C   0  0  0  0  0  0  0  0  0  0  0  0
    6.0218    2.2923    0.0000 H   0  0  0  0  0  0  0  0  0  0  0  0
    4.2690    2.2577    0.0000 H   0  0  0  0  0  0  0  0  0  0  0  0
    7.4708   -0.1952    0.0000 H   0  0  0  0  0  0  0  0  0  0  0  0
    7.4708    1.4706    0.0000 H   0  0  0  0  0  0  0  0  0  0  0  0
    5.3974   -1.3898    0.0000 H   0  0  0  0  0  0  0  0  0  0  0  0
    6.0102   -2.0169    0.0000 H   0  0  0  0  0  0  0  0  0  0  0  0
    6.6374   -1.4041    0.0000 H   0  0  0  0  0  0  0  0  0  0  0  0
    2.8660    1.4477    0.0000 H   0  0  0  0  0  0  0  0  0  0  0  0
    3.7320   -1.6723    0.0000 H   0  0  0  0  0  0  0  0  0  0  0  0
    2.0000   -0.0523    0.0000 H   0  0  0  0  0  0  0  0  0  0  0  0
  1  6  1  0  0  0  0
  1 22  1  0  0  0  0
  2 10  1  0  0  0  0
  2 23  1  0  0  0  0
  3  4  1  0  0  0  0
  3  5  2  0  0  0  0
  3  6  1  0  0  0  0
  4  7  2  0  0  0  0
  4  8  1  0  0  0  0
  5  9  1  0  0  0  0
  5 12  1  0  0  0  0
  6 10  2  0  0  0  0
  7 11  1  0  0  0  0
  7 14  1  0  0  0  0
  8 13  2  0  0  0  0
  8 15  1  0  0  0  0
  9 11  2  0  0  0  0
  9 16  1  0  0  0  0
 10 13  1  0  0  0  0
 11 17  1  0  0  0  0
 12 18  1  0  0  0  0
 12 19  1  0  0  0  0
 12 20  1  0  0  0  0
 13 21  1  0  0  0  0
M  END
> <PUBCHEM_COMPOUND_CID>
656869

> <PUBCHEM_COMPOUND_CANONICALIZED>
1

> <PUBCHEM_CACTVS_COMPLEXITY>
181

> <PUBCHEM_CACTVS_HBOND_ACCEPTOR>
2

> <PUBCHEM_CACTVS_HBOND_DONOR>
2

> <PUBCHEM_CACTVS_ROTATABLE_BOND>
0

> <PUBCHEM_CACTVS_SUBSKEYS>
AAADccBwMAAAAAAAAAAAAAAAAAAAAAAAAAAwYAAAAAAAAADBUAAAGgAACAAADASAmAAyBsAAAgCAAiBCAAACAAAgIAAIiAAGiIgJJiKCERKAcAEkwBEJmAeAwPAOoAADAAAYQABAAAYAADCAAAAAAAAAAA==

> <PUBCHEM_IUPAC_OPENEYE_NAME>
8-methylnaphthalene-1,2-diol

> <PUBCHEM_IUPAC_CAS_NAME>
8-methylnaphthalene-1,2-diol

> <PUBCHEM_IUPAC_NAME>
8-methylnaphthalene-1,2-diol

> <PUBCHEM_IUPAC_SYSTEMATIC_NAME>
8-methylnaphthalene-1,2-diol

> <PUBCHEM_IUPAC_TRADITIONAL_NAME>
8-methylnaphthalene-1,2-diol

> <PUBCHEM_IUPAC_INCHI>
InChI=1S/C11H10O2/c1-7-3-2-4-8-5-6-9(12)11(13)10(7)8/h2-6,12-13H,1H3

> <PUBCHEM_IUPAC_INCHIKEY>
KYYXBLAPBDWXFX-UHFFFAOYSA-N

> <PUBCHEM_XLOGP3_AA>
2.8

> <PUBCHEM_EXACT_MASS>
174.06808

> <PUBCHEM_MOLECULAR_FORMULA>
C11H10O2

> <PUBCHEM_MOLECULAR_WEIGHT>
174.1959

> <PUBCHEM_OPENEYE_CAN_SMILES>
CC1=CC=CC2=C1C(=C(C=C2)O)O

> <PUBCHEM_OPENEYE_ISO_SMILES>
CC1=CC=CC2=C1C(=C(C=C2)O)O

> <PUBCHEM_CACTVS_TPSA>
40.5

> <PUBCHEM_MONOISOTOPIC_WEIGHT>
174.06808

> <PUBCHEM_TOTAL_CHARGE>
0

> <PUBCHEM_HEAVY_ATOM_COUNT>
13

> <PUBCHEM_ATOM_DEF_STEREO_COUNT>
0

> <PUBCHEM_ATOM_UDEF_STEREO_COUNT>
0

> <PUBCHEM_BOND_DEF_STEREO_COUNT>
0

> <PUBCHEM_BOND_UDEF_STEREO_COUNT>
0

> <PUBCHEM_ISOTOPIC_ATOM_COUNT>
0

> <PUBCHEM_COMPONENT_COUNT>
1

> <PUBCHEM_CACTVS_TAUTO_COUNT>
53

> <PUBCHEM_COORDINATE_TYPE>
1
5
255

> <PUBCHEM_BONDANNOTATIONS>
10  13  8
3  4  8
3  5  8
3  6  8
4  7  8
4  8  8
5  9  8
6  10  8
7  11  8
8  13  8
9  11  8

$$$$

