442860
  -OEChem-07051213002D

 78 81  0     1  0  0  0  0  0999 V2000
    5.0961    0.5925    0.0000 O   0  0  0  0  0  0  0  0  0  0  0  0
   10.9924   -0.5925    0.0000 O   0  0  0  0  0  0  0  0  0  0  0  0
    6.4788    1.5164    0.0000 N   0  0  0  0  0  0  0  0  0  0  0  0
    9.6097   -1.5164    0.0000 N   0  0  0  0  0  0  0  0  0  0  0  0
    5.4788    3.9306    0.0000 N   0  0  3  0  0  0  0  0  0  0  0  0
   10.6097   -3.9306    0.0000 N   0  0  3  0  0  0  0  0  0  0  0  0
    4.7716    3.2234    0.0000 C   0  0  1  0  0  0  0  0  0  0  0  0
   11.3168   -3.2234    0.0000 C   0  0  1  0  0  0  0  0  0  0  0  0
    6.8614    0.5925    0.0000 C   0  0  0  0  0  0  0  0  0  0  0  0
    9.2270   -0.5925    0.0000 C   0  0  0  0  0  0  0  0  0  0  0  0
    8.9026   -2.2234    0.0000 C   0  0  0  0  0  0  0  0  0  0  0  0
    7.1858    2.2234    0.0000 C   0  0  0  0  0  0  0  0  0  0  0  0
    7.8529    0.4619    0.0000 C   0  0  0  0  0  0  0  0  0  0  0  0
    8.2356   -0.4619    0.0000 C   0  0  0  0  0  0  0  0  0  0  0  0
    8.9026   -3.2234    0.0000 C   0  0  0  0  0  0  0  0  0  0  0  0
    7.1858    3.2234    0.0000 C   0  0  0  0  0  0  0  0  0  0  0  0
   11.3168   -2.2234    0.0000 C   0  0  0  0  0  0  0  0  0  0  0  0
    4.7716    2.2234    0.0000 C   0  0  0  0  0  0  0  0  0  0  0  0
    9.6097   -3.9306    0.0000 C   0  0  0  0  0  0  0  0  0  0  0  0
    6.4788    3.9306    0.0000 C   0  0  0  0  0  0  0  0  0  0  0  0
    5.4788    1.5164    0.0000 C   0  0  0  0  0  0  0  0  0  0  0  0
   10.6097   -1.5164    0.0000 C   0  0  0  0  0  0  0  0  0  0  0  0
   12.2407   -3.6061    0.0000 C   0  0  0  0  0  0  0  0  0  0  0  0
    3.8478    3.6061    0.0000 C   0  0  0  0  0  0  0  0  0  0  0  0
   10.9924   -4.8544    0.0000 C   0  0  0  0  0  0  0  0  0  0  0  0
    5.0961    4.8544    0.0000 C   0  0  0  0  0  0  0  0  0  0  0  0
    3.7172    4.5976    0.0000 C   0  0  0  0  0  0  0  0  0  0  0  0
   12.3712   -4.5976    0.0000 C   0  0  0  0  0  0  0  0  0  0  0  0
    3.0544    2.9974    0.0000 C   0  0  0  0  0  0  0  0  0  0  0  0
   13.0340   -2.9974    0.0000 C   0  0  0  0  0  0  0  0  0  0  0  0
   13.2951   -4.9803    0.0000 C   0  0  0  0  0  0  0  0  0  0  0  0
    2.7934    4.9803    0.0000 C   0  0  0  0  0  0  0  0  0  0  0  0
   13.9579   -3.3801    0.0000 C   0  0  0  0  0  0  0  0  0  0  0  0
    2.1305    3.3801    0.0000 C   0  0  0  0  0  0  0  0  0  0  0  0
    2.0000    4.3715    0.0000 C   0  0  0  0  0  0  0  0  0  0  0  0
   14.0884   -4.3715    0.0000 C   0  0  0  0  0  0  0  0  0  0  0  0
    4.6507    3.8315    0.0000 H   0  0  0  0  0  0  0  0  0  0  0  0
   11.4377   -3.8315    0.0000 H   0  0  0  0  0  0  0  0  0  0  0  0
    6.2561    0.4583    0.0000 H   0  0  0  0  0  0  0  0  0  0  0  0
    6.8885   -0.0269    0.0000 H   0  0  0  0  0  0  0  0  0  0  0  0
    9.8323   -0.4583    0.0000 H   0  0  0  0  0  0  0  0  0  0  0  0
    9.2000    0.0269    0.0000 H   0  0  0  0  0  0  0  0  0  0  0  0
    7.4958    1.6865    0.0000 H   0  0  0  0  0  0  0  0  0  0  0  0
    7.7847    2.3839    0.0000 H   0  0  0  0  0  0  0  0  0  0  0  0
    8.5926   -1.6865    0.0000 H   0  0  0  0  0  0  0  0  0  0  0  0
    8.3037   -2.3839    0.0000 H   0  0  0  0  0  0  0  0  0  0  0  0
    8.4582    0.5961    0.0000 H   0  0  0  0  0  0  0  0  0  0  0  0
    7.8258    1.0814    0.0000 H   0  0  0  0  0  0  0  0  0  0  0  0
    7.6302   -0.5961    0.0000 H   0  0  0  0  0  0  0  0  0  0  0  0
    8.2626   -1.0814    0.0000 H   0  0  0  0  0  0  0  0  0  0  0  0
    7.7847    3.0630    0.0000 H   0  0  0  0  0  0  0  0  0  0  0  0
    7.4958    3.7604    0.0000 H   0  0  0  0  0  0  0  0  0  0  0  0
    8.3037   -3.0630    0.0000 H   0  0  0  0  0  0  0  0  0  0  0  0
    8.5926   -3.7604    0.0000 H   0  0  0  0  0  0  0  0  0  0  0  0
   11.9157   -2.3839    0.0000 H   0  0  0  0  0  0  0  0  0  0  0  0
   11.6268   -1.6865    0.0000 H   0  0  0  0  0  0  0  0  0  0  0  0
    4.1728    2.3839    0.0000 H   0  0  0  0  0  0  0  0  0  0  0  0
    4.4616    1.6865    0.0000 H   0  0  0  0  0  0  0  0  0  0  0  0
    9.0727   -4.2406    0.0000 H   0  0  0  0  0  0  0  0  0  0  0  0
    9.7701   -4.5294    0.0000 H   0  0  0  0  0  0  0  0  0  0  0  0
    7.0157    4.2406    0.0000 H   0  0  0  0  0  0  0  0  0  0  0  0
    6.3183    4.5294    0.0000 H   0  0  0  0  0  0  0  0  0  0  0  0
   10.4196   -5.0917    0.0000 H   0  0  0  0  0  0  0  0  0  0  0  0
   11.2296   -5.4272    0.0000 H   0  0  0  0  0  0  0  0  0  0  0  0
   11.5652   -4.6172    0.0000 H   0  0  0  0  0  0  0  0  0  0  0  0
    5.6689    5.0917    0.0000 H   0  0  0  0  0  0  0  0  0  0  0  0
    4.8588    5.4272    0.0000 H   0  0  0  0  0  0  0  0  0  0  0  0
    4.5233    4.6172    0.0000 H   0  0  0  0  0  0  0  0  0  0  0  0
    4.2091    4.9750    0.0000 H   0  0  0  0  0  0  0  0  0  0  0  0
   11.8793   -4.9750    0.0000 H   0  0  0  0  0  0  0  0  0  0  0  0
    3.1353    2.3827    0.0000 H   0  0  0  0  0  0  0  0  0  0  0  0
   12.9531   -2.3827    0.0000 H   0  0  0  0  0  0  0  0  0  0  0  0
   13.3760   -5.5950    0.0000 H   0  0  0  0  0  0  0  0  0  0  0  0
    2.7124    5.5950    0.0000 H   0  0  0  0  0  0  0  0  0  0  0  0
   14.4498   -3.0026    0.0000 H   0  0  0  0  0  0  0  0  0  0  0  0
    1.6386    3.0026    0.0000 H   0  0  0  0  0  0  0  0  0  0  0  0
   14.6612   -4.6088    0.0000 H   0  0  0  0  0  0  0  0  0  0  0  0
    1.4272    4.6088    0.0000 H   0  0  0  0  0  0  0  0  0  0  0  0
  1 21  2  0  0  0  0
  2 22  2  0  0  0  0
  3  9  1  0  0  0  0
  3 12  1  0  0  0  0
  3 21  1  0  0  0  0
  4 10  1  0  0  0  0
  4 11  1  0  0  0  0
  4 22  1  0  0  0  0
  5  7  1  0  0  0  0
  5 20  1  0  0  0  0
  5 26  1  0  0  0  0
  6  8  1  0  0  0  0
  6 19  1  0  0  0  0
  6 25  1  0  0  0  0
  7 18  1  0  0  0  0
  7 24  1  1  0  0  0
  7 37  1  0  0  0  0
  8 17  1  0  0  0  0
  8 23  1  1  0  0  0
  8 38  1  0  0  0  0
  9 13  1  0  0  0  0
  9 39  1  0  0  0  0
  9 40  1  0  0  0  0
 10 14  1  0  0  0  0
 10 41  1  0  0  0  0
 10 42  1  0  0  0  0
 11 15  1  0  0  0  0
 11 45  1  0  0  0  0
 11 46  1  0  0  0  0
 12 16  1  0  0  0  0
 12 43  1  0  0  0  0
 12 44  1  0  0  0  0
 13 14  1  0  0  0  0
 13 47  1  0  0  0  0
 13 48  1  0  0  0  0
 14 49  1  0  0  0  0
 14 50  1  0  0  0  0
 15 19  1  0  0  0  0
 15 53  1  0  0  0  0
 15 54  1  0  0  0  0
 16 20  1  0  0  0  0
 16 51  1  0  0  0  0
 16 52  1  0  0  0  0
 17 22  1  0  0  0  0
 17 55  1  0  0  0  0
 17 56  1  0  0  0  0
 18 21  1  0  0  0  0
 18 57  1  0  0  0  0
 18 58  1  0  0  0  0
 19 59  1  0  0  0  0
 19 60  1  0  0  0  0
 20 61  1  0  0  0  0
 20 62  1  0  0  0  0
 23 28  2  0  0  0  0
 23 30  1  0  0  0  0
 24 27  2  0  0  0  0
 24 29  1  0  0  0  0
 25 63  1  0  0  0  0
 25 64  1  0  0  0  0
 25 65  1  0  0  0  0
 26 66  1  0  0  0  0
 26 67  1  0  0  0  0
 26 68  1  0  0  0  0
 27 32  1  0  0  0  0
 27 69  1  0  0  0  0
 28 31  1  0  0  0  0
 28 70  1  0  0  0  0
 29 34  2  0  0  0  0
 29 71  1  0  0  0  0
 30 33  2  0  0  0  0
 30 72  1  0  0  0  0
 31 36  2  0  0  0  0
 31 73  1  0  0  0  0
 32 35  2  0  0  0  0
 32 74  1  0  0  0  0
 33 36  1  0  0  0  0
 33 75  1  0  0  0  0
 34 35  1  0  0  0  0
 34 76  1  0  0  0  0
 35 78  1  0  0  0  0
 36 77  1  0  0  0  0
M  END
> <PUBCHEM_COMPOUND_CID>
442860

> <PUBCHEM_COMPOUND_CANONICALIZED>
1

> <PUBCHEM_CACTVS_COMPLEXITY>
630

> <PUBCHEM_CACTVS_HBOND_ACCEPTOR>
4

> <PUBCHEM_CACTVS_HBOND_DONOR>
0

> <PUBCHEM_CACTVS_ROTATABLE_BOND>
7

> <PUBCHEM_CACTVS_SUBSKEYS>
AAADcfB7sAAAAAAAAAAAAAAAAAAAAAAAAAAwYAAAAAAWLAABQAAAHgAAAAAADCjBmAQyAIMAAACIAiFSEACCAAAgAAAIiAEIBIgIIDqA0RGEIAhghgCIiAcYiICOAAAAAAAAAAAAAAAAAAAAAAAAAAAAAA==

> <PUBCHEM_IUPAC_OPENEYE_NAME>
(4S)-5-methyl-1-[4-[(4S)-5-methyl-2-oxo-4-phenyl-1,5-diazocan-1-yl]butyl]-4-phenyl-1,5-diazocan-2-one

> <PUBCHEM_IUPAC_CAS_NAME>
(4S)-5-methyl-1-[4-[(4S)-5-methyl-2-oxo-4-phenyl-1,5-diazocan-1-yl]butyl]-4-phenyl-1,5-diazocan-2-one

> <PUBCHEM_IUPAC_NAME>
(4S)-5-methyl-1-[4-[(4S)-5-methyl-2-oxo-4-phenyl-1,5-diazocan-1-yl]butyl]-4-phenyl-1,5-diazocan-2-one

> <PUBCHEM_IUPAC_SYSTEMATIC_NAME>
(4S)-5-methyl-1-[4-[(4S)-5-methyl-2-oxidanylidene-4-phenyl-1,5-diazocan-1-yl]butyl]-4-phenyl-1,5-diazocan-2-one

> <PUBCHEM_IUPAC_TRADITIONAL_NAME>
(4S)-1-[4-[(4S)-2-keto-5-methyl-4-phenyl-1,5-diazocan-1-yl]butyl]-5-methyl-4-phenyl-1,5-diazocan-2-one

> <PUBCHEM_IUPAC_INCHI>
InChI=1S/C30H42N4O2/c1-31-17-11-21-33(29(35)23-27(31)25-13-5-3-6-14-25)19-9-10-20-34-22-12-18-32(2)28(24-30(34)36)26-15-7-4-8-16-26/h3-8,13-16,27-28H,9-12,17-24H2,1-2H3/t27-,28-/m0/s1

> <PUBCHEM_IUPAC_INCHIKEY>
LNCIXDIFZNXBDP-NSOVKSMOSA-N

> <PUBCHEM_XLOGP3_AA>
3.2

> <PUBCHEM_EXACT_MASS>
490.330777

> <PUBCHEM_MOLECULAR_FORMULA>
C30H42N4O2

> <PUBCHEM_MOLECULAR_WEIGHT>
490.68008

> <PUBCHEM_OPENEYE_CAN_SMILES>
CN1CCCN(C(=O)CC1C2=CC=CC=C2)CCCCN3CCCN(C(CC3=O)C4=CC=CC=C4)C

> <PUBCHEM_OPENEYE_ISO_SMILES>
CN1CCCN(C(=O)C[C@H]1C2=CC=CC=C2)CCCCN3CCCN([C@@H](CC3=O)C4=CC=CC=C4)C

> <PUBCHEM_CACTVS_TPSA>
47.1

> <PUBCHEM_MONOISOTOPIC_WEIGHT>
490.330777

> <PUBCHEM_TOTAL_CHARGE>
0

> <PUBCHEM_HEAVY_ATOM_COUNT>
36

> <PUBCHEM_ATOM_DEF_STEREO_COUNT>
2

> <PUBCHEM_ATOM_UDEF_STEREO_COUNT>
0

> <PUBCHEM_BOND_DEF_STEREO_COUNT>
0

> <PUBCHEM_BOND_UDEF_STEREO_COUNT>
0

> <PUBCHEM_ISOTOPIC_ATOM_COUNT>
0

> <PUBCHEM_COMPONENT_COUNT>
1

> <PUBCHEM_CACTVS_TAUTO_COUNT>
3

> <PUBCHEM_COORDINATE_TYPE>
1
5
255

> <PUBCHEM_BONDANNOTATIONS>
23  28  8
23  30  8
24  27  8
24  29  8
27  32  8
28  31  8
29  34  8
30  33  8
31  36  8
32  35  8
33  36  8
34  35  8
7  24  5
8  23  5

$$$$

