312
  -OEChem-07051212442D

  1  0  0     0  0  0  0  0  0999 V2000
    2.0000    0.0000    0.0000 Cl  0  5  0  0  0  0  0  0  0  0  0  0
M  CHG  1   1  -1
M  END
> <PUBCHEM_COMPOUND_CID>
312

> <PUBCHEM_COMPOUND_CANONICALIZED>
1

> <PUBCHEM_CACTVS_COMPLEXITY>
0

> <PUBCHEM_CACTVS_HBOND_ACCEPTOR>
1

> <PUBCHEM_CACTVS_HBOND_DONOR>
0

> <PUBCHEM_CACTVS_ROTATABLE_BOND>
0

> <PUBCHEM_CACTVS_SUBSKEYS>
AAADcQAAAAAEAAAAAAAAAAAAAAAAAAAAAAAAAAAAAAAAAAAAAAAAAAAAAAAAAAAAAAAAAAAAAAAAAAAAAAAAAAAAAAAAAAAAAAAAAAAAAAAAAAAAAAAAAAAAAAAAAAAAAAAAAAAAAAAAAAAAAAAAAAAAAA==

> <PUBCHEM_IUPAC_OPENEYE_NAME>
chloride

> <PUBCHEM_IUPAC_CAS_NAME>
chloride

> <PUBCHEM_IUPAC_NAME>
chloride

> <PUBCHEM_IUPAC_SYSTEMATIC_NAME>
chloride

> <PUBCHEM_IUPAC_TRADITIONAL_NAME>
chloride

> <PUBCHEM_IUPAC_INCHI>
InChI=1S/ClH/h1H/p-1

> <PUBCHEM_IUPAC_INCHIKEY>
VEXZGXHMUGYJMC-UHFFFAOYSA-M

> <PUBCHEM_XLOGP3_AA>
0.8

> <PUBCHEM_EXACT_MASS>
34.968853

> <PUBCHEM_MOLECULAR_FORMULA>
Cl-

> <PUBCHEM_MOLECULAR_WEIGHT>
35.453

> <PUBCHEM_OPENEYE_CAN_SMILES>
[Cl-]

> <PUBCHEM_OPENEYE_ISO_SMILES>
[Cl-]

> <PUBCHEM_CACTVS_TPSA>
0

> <PUBCHEM_MONOISOTOPIC_WEIGHT>
34.968853

> <PUBCHEM_TOTAL_CHARGE>
-1

> <PUBCHEM_HEAVY_ATOM_COUNT>
1

> <PUBCHEM_ATOM_DEF_STEREO_COUNT>
0

> <PUBCHEM_ATOM_UDEF_STEREO_COUNT>
0

> <PUBCHEM_BOND_DEF_STEREO_COUNT>
0

> <PUBCHEM_BOND_UDEF_STEREO_COUNT>
0

> <PUBCHEM_ISOTOPIC_ATOM_COUNT>
0

> <PUBCHEM_COMPONENT_COUNT>
1

> <PUBCHEM_CACTVS_TAUTO_COUNT>
1

> <PUBCHEM_COORDINATE_TYPE>
1
5
255

$$$$

