5462236
  -OEChem-07051212452D

 45 47  0     1  0  0  0  0  0999 V2000
    8.0626    2.3678    0.0000 S   0  0  0  0  0  0  0  0  0  0  0  0
    6.1425    1.8420    0.0000 O   0  0  0  0  0  0  0  0  0  0  0  0
    4.4669    0.7669    0.0000 O   0  0  0  0  0  0  0  0  0  0  0  0
   11.1762   -0.4692    0.0000 O   0  0  0  0  0  0  0  0  0  0  0  0
   11.1762   -2.0787    0.0000 O   0  0  0  0  0  0  0  0  0  0  0  0
    2.2522   -2.0782    0.0000 O   0  0  0  0  0  0  0  0  0  0  0  0
    3.8345   -2.7827    0.0000 O   0  0  0  0  0  0  0  0  0  0  0  0
    6.5492    0.9285    0.0000 N   0  0  3  0  0  0  0  0  0  0  0  0
    4.6480   -0.9556    0.0000 N   0  0  0  0  0  0  0  0  0  0  0  0
    7.6319   -0.2740    0.0000 C   0  0  3  0  0  0  0  0  0  0  0  0
    7.5274    0.7206    0.0000 C   0  0  3  0  0  0  0  0  0  0  0  0
    6.7184   -0.6807    0.0000 C   0  0  0  0  0  0  0  0  0  0  0  0
    6.0492    0.0625    0.0000 C   0  0  1  0  0  0  0  0  0  0  0  0
    8.4979   -0.7740    0.0000 C   0  0  0  0  0  0  0  0  0  0  0  0
    8.2705    1.3897    0.0000 C   0  0  0  0  0  0  0  0  0  0  0  0
    5.0547   -0.0421    0.0000 C   0  0  0  0  0  0  0  0  0  0  0  0
    9.3639   -0.2740    0.0000 C   0  0  0  0  0  0  0  0  0  0  0  0
    8.4979   -1.7740    0.0000 C   0  0  0  0  0  0  0  0  0  0  0  0
   10.2300   -0.7740    0.0000 C   0  0  0  0  0  0  0  0  0  0  0  0
    9.3639   -2.2740    0.0000 C   0  0  0  0  0  0  0  0  0  0  0  0
   10.2300   -1.7740    0.0000 C   0  0  0  0  0  0  0  0  0  0  0  0
    3.6534   -1.0602    0.0000 C   0  0  1  0  0  0  0  0  0  0  0  0
   11.7598   -1.2740    0.0000 C   0  0  0  0  0  0  0  0  0  0  0  0
    3.0657   -0.2511    0.0000 C   0  0  0  0  0  0  0  0  0  0  0  0
    3.2467   -1.9737    0.0000 C   0  0  0  0  0  0  0  0  0  0  0  0
    7.5874   -1.1228    0.0000 H   0  0  0  0  0  0  0  0  0  0  0  0
    7.3074    1.5416    0.0000 H   0  0  0  0  0  0  0  0  0  0  0  0
    6.2168   -1.0451    0.0000 H   0  0  0  0  0  0  0  0  0  0  0  0
    7.0284   -1.2176    0.0000 H   0  0  0  0  0  0  0  0  0  0  0  0
    5.7115    0.5824    0.0000 H   0  0  0  0  0  0  0  0  0  0  0  0
    8.5991    0.8639    0.0000 H   0  0  0  0  0  0  0  0  0  0  0  0
    8.8454    1.6220    0.0000 H   0  0  0  0  0  0  0  0  0  0  0  0
    9.3639    0.3460    0.0000 H   0  0  0  0  0  0  0  0  0  0  0  0
    7.9610   -2.0840    0.0000 H   0  0  0  0  0  0  0  0  0  0  0  0
    5.5259    1.9068    0.0000 H   0  0  0  0  0  0  0  0  0  0  0  0
    5.0124   -1.4572    0.0000 H   0  0  0  0  0  0  0  0  0  0  0  0
    8.5234    2.7827    0.0000 H   0  0  0  0  0  0  0  0  0  0  0  0
    9.3639   -2.8939    0.0000 H   0  0  0  0  0  0  0  0  0  0  0  0
    4.0179   -1.5617    0.0000 H   0  0  0  0  0  0  0  0  0  0  0  0
   12.2207   -1.6887    0.0000 H   0  0  0  0  0  0  0  0  0  0  0  0
   12.2207   -0.8592    0.0000 H   0  0  0  0  0  0  0  0  0  0  0  0
    3.5672    0.1133    0.0000 H   0  0  0  0  0  0  0  0  0  0  0  0
    2.7012    0.2505    0.0000 H   0  0  0  0  0  0  0  0  0  0  0  0
    2.5641   -0.6156    0.0000 H   0  0  0  0  0  0  0  0  0  0  0  0
    2.0000   -2.6446    0.0000 H   0  0  0  0  0  0  0  0  0  0  0  0
  1 15  1  0  0  0  0
  1 37  1  0  0  0  0
  2  8  1  0  0  0  0
  2 35  1  0  0  0  0
  3 16  2  0  0  0  0
  4 19  1  0  0  0  0
  4 23  1  0  0  0  0
  5 21  1  0  0  0  0
  5 23  1  0  0  0  0
  6 25  1  0  0  0  0
  6 45  1  0  0  0  0
  7 25  2  0  0  0  0
  8 11  1  0  0  0  0
  8 13  1  0  0  0  0
  9 16  1  0  0  0  0
 22  9  1  6  0  0  0
  9 36  1  0  0  0  0
 10 11  1  0  0  0  0
 10 12  1  0  0  0  0
 10 14  1  0  0  0  0
 10 26  1  0  0  0  0
 11 15  1  0  0  0  0
 11 27  1  0  0  0  0
 12 13  1  0  0  0  0
 12 28  1  0  0  0  0
 12 29  1  0  0  0  0
 13 16  1  1  0  0  0
 13 30  1  0  0  0  0
 14 17  2  0  0  0  0
 14 18  1  0  0  0  0
 15 31  1  0  0  0  0
 15 32  1  0  0  0  0
 17 19  1  0  0  0  0
 17 33  1  0  0  0  0
 18 20  2  0  0  0  0
 18 34  1  0  0  0  0
 19 21  2  0  0  0  0
 20 21  1  0  0  0  0
 20 38  1  0  0  0  0
 22 24  1  0  0  0  0
 22 25  1  0  0  0  0
 22 39  1  0  0  0  0
 23 40  1  0  0  0  0
 23 41  1  0  0  0  0
 24 42  1  0  0  0  0
 24 43  1  0  0  0  0
 24 44  1  0  0  0  0
M  END
> <PUBCHEM_COMPOUND_CID>
5462236

> <PUBCHEM_COMPOUND_CANONICALIZED>
1

> <PUBCHEM_CACTVS_COMPLEXITY>
521

> <PUBCHEM_CACTVS_HBOND_ACCEPTOR>
8

> <PUBCHEM_CACTVS_HBOND_DONOR>
4

> <PUBCHEM_CACTVS_ROTATABLE_BOND>
5

> <PUBCHEM_CACTVS_SUBSKEYS>
AAADceB7OABAAAAAAAAAAAAAAAAAAWJAAAAwAAAAAAAAAEgBAAAAHgQUCAAADSzF2AeyDoLQBgSIAiHSGAACCAAgIAAoiIGOiIgfZjKEsTu0cCIk1hGeqAeY2fOeoAABAAAAQABAAAIAAACAAAAAAAAAAA==

> <PUBCHEM_IUPAC_OPENEYE_NAME>
(2S)-2-[[(2S)-4-(1,3-benzodioxol-5-yl)-1-hydroxy-5-(sulfanylmethyl)pyrrolidine-2-carbonyl]amino]propanoic acid

> <PUBCHEM_IUPAC_CAS_NAME>
(2S)-2-[[[(2S)-4-(1,3-benzodioxol-5-yl)-1-hydroxy-5-(mercaptomethyl)-2-pyrrolidinyl]-oxomethyl]amino]propanoic acid

> <PUBCHEM_IUPAC_NAME>
(2S)-2-[[(2S)-4-(1,3-benzodioxol-5-yl)-1-hydroxy-5-(sulfanylmethyl)pyrrolidine-2-carbonyl]amino]propanoic acid

> <PUBCHEM_IUPAC_SYSTEMATIC_NAME>
(2S)-2-[[(2S)-4-(1,3-benzodioxol-5-yl)-1-oxidanyl-5-(sulfanylmethyl)pyrrolidin-2-yl]carbonylamino]propanoic acid

> <PUBCHEM_IUPAC_TRADITIONAL_NAME>
(2S)-2-[[(2S)-4-(1,3-benzodioxol-5-yl)-1-hydroxy-5-(mercaptomethyl)prolyl]amino]propionic acid

> <PUBCHEM_IUPAC_INCHI>
InChI=1S/C16H20N2O6S/c1-8(16(20)21)17-15(19)11-5-10(12(6-25)18(11)22)9-2-3-13-14(4-9)24-7-23-13/h2-4,8,10-12,22,25H,5-7H2,1H3,(H,17,19)(H,20,21)/t8-,10?,11-,12?/m0/s1

> <PUBCHEM_IUPAC_INCHIKEY>
LNRYWMBIOOXPID-MLHUMARHSA-N

> <PUBCHEM_XLOGP3_AA>
-0.5

> <PUBCHEM_EXACT_MASS>
368.104207

> <PUBCHEM_MOLECULAR_FORMULA>
C16H20N2O6S

> <PUBCHEM_MOLECULAR_WEIGHT>
368.4048

> <PUBCHEM_OPENEYE_CAN_SMILES>
CC(C(=O)O)NC(=O)C1CC(C(N1O)CS)C2=CC3=C(C=C2)OCO3

> <PUBCHEM_OPENEYE_ISO_SMILES>
C[C@@H](C(=O)O)NC(=O)[C@@H]1CC(C(N1O)CS)C2=CC3=C(C=C2)OCO3

> <PUBCHEM_CACTVS_TPSA>
109

> <PUBCHEM_MONOISOTOPIC_WEIGHT>
368.104207

> <PUBCHEM_TOTAL_CHARGE>
0

> <PUBCHEM_HEAVY_ATOM_COUNT>
25

> <PUBCHEM_ATOM_DEF_STEREO_COUNT>
2

> <PUBCHEM_ATOM_UDEF_STEREO_COUNT>
2

> <PUBCHEM_BOND_DEF_STEREO_COUNT>
0

> <PUBCHEM_BOND_UDEF_STEREO_COUNT>
0

> <PUBCHEM_ISOTOPIC_ATOM_COUNT>
0

> <PUBCHEM_COMPONENT_COUNT>
1

> <PUBCHEM_CACTVS_TAUTO_COUNT>
2

> <PUBCHEM_COORDINATE_TYPE>
1
5
255

> <PUBCHEM_BONDANNOTATIONS>
10  26  3
11  27  3
13  16  5
14  17  8
14  18  8
17  19  8
18  20  8
19  21  8
20  21  8
22  9  6

$$$$

