   Color/Form

     * Clear, yellow liquid
     * Yellow, hygroscopic liquid

   from [1]HSDB

   Odor
        Pungent
   from [2]HSDB

   Boiling Point
        72 deg C at 760 mm Hg
   from [3]HSDB

   Density/Specific Gravity
        1.0455 at 24 deg C
   from [4]HSDB

   Octanol/Water Partition Coefficient
        log Kow = -1.50 (est)
   from [5]HSDB

   Solubilities

     * Soluble in water and alcohol, giving colorless solutions
     * Soluble in ethanol, ether, benzene
     * Miscible (est)

   from [6]HSDB

   Spectral Properties

     * Index of refraction: 1.4002 at 17.5 deg C/D
     * MASS: 305 (NIST/EPA/MSDC Mass Spectral Database, 1990 version)

   from [7]HSDB

   Vapor Pressure
        26.7 mm Hg at 25 deg C (est)
   from [8]HSDB

   Other Chemical/Physical Properties

     * Bulk density: 10 lb/gal at 20 deg C
     * Hygroscopic. Polymerizes very readily, forming a brittle, resinous
       mass.
     * Density: 1.20 at 20 deg C/20 deg C
     * Henry's Law constant = 2.70X10-7 atm-cu m/mol at 25 deg C
     * Hydroxyl radical reaction rate constant = 1.72X10-11 cu
       cm/molec-sec at 25 deg C

   from [9]HSDB

   Computed Properties
   Molecular Weight                  72.06266 [g/mol]
   Molecular Formula                 C[3]H[4]O[2]
   XLogP3-AA                         -0.4
   H-Bond Donor                      0
   H-Bond Acceptor                   2
   Rotatable Bond Count              1
   Tautomer Count                    2
   Exact Mass                        72.021129
   MonoIsotopic Mass                 72.021129
   Topological Polar Surface Area    34.1
   Heavy Atom Count                  5
   Formal Charge                     0
   Complexity                        55.9
   Isotope Atom Count                0
   Defined Atom Stereocenter Count   0
   Undefined Atom Stereocenter Count 0
   Defined Bond Stereocenter Count   0
   Undefined Bond Stereocenter Count 0
   Covalently-Bonded Unit Count      1
   Feature 3D Acceptor Count         2
   Effective Rotor Count             1
   Conformer Sampling RMSD           0.4
   CID Conformer Count               [10]4

References

   1. http://toxnet.nlm.nih.gov/cgi-bin/sis/search/r?dbs+hsdb:@term+@rn+@rel+78-98-8
   2. http://toxnet.nlm.nih.gov/cgi-bin/sis/search/r?dbs+hsdb:@term+@rn+@rel+78-98-8
   3. http://toxnet.nlm.nih.gov/cgi-bin/sis/search/r?dbs+hsdb:@term+@rn+@rel+78-98-8
   4. http://toxnet.nlm.nih.gov/cgi-bin/sis/search/r?dbs+hsdb:@term+@rn+@rel+78-98-8
   5. http://toxnet.nlm.nih.gov/cgi-bin/sis/search/r?dbs+hsdb:@term+@rn+@rel+78-98-8
   6. http://toxnet.nlm.nih.gov/cgi-bin/sis/search/r?dbs+hsdb:@term+@rn+@rel+78-98-8
   7. http://toxnet.nlm.nih.gov/cgi-bin/sis/search/r?dbs+hsdb:@term+@rn+@rel+78-98-8
   8. http://toxnet.nlm.nih.gov/cgi-bin/sis/search/r?dbs+hsdb:@term+@rn+@rel+78-98-8
   9. http://toxnet.nlm.nih.gov/cgi-bin/sis/search/r?dbs+hsdb:@term+@rn+@rel+78-98-8
  10. http://pubchem.ncbi.nlm.nih.gov/vw3d/vw3d.cgi?cid=880
