   Color/Form

     * COLORLESS OR WHITE CRYSTALS, GRANULES, OR CRYSTALLINE MASSES; OR AS
       COLORLESS TO WHITE, TRANSLUCENT, TOUGH MASSES
     * Rhombohedral crystals from alcohol; cubic crystals by melting and
       chilling
     * Colorless or white crystals.

   from [1]HSDB

   Odor

     * Fragrant and penetrating odor
     * Penetrating aromatic odor.

   from [2]HSDB

   Taste
        Slightly bitter and cooling taste
   from [3]HSDB

   Boiling Point
        204 deg C
   from [4]HSDB

   Melting Point
        179 deg C
   from [5]HSDB

   Density/Specific Gravity
        0.992 @ 25 deg C/4 deg C
   from [6]HSDB

   Octanol/Water Partition Coefficient
        log Kow = 2.38
   from [7]HSDB

   Solubilities

     * At 25 deg C one gram dissolves in about 800 ml water, in 1 ml
       alcohol, 1 ml ether, 0.5 ml chloroform. Freely soluble in carbon
       disulfide, petroleum benzin, fixed and volatile oils. Also soluble
       in concentrated mineral acids, in phenol, in liquid ammonia and in
       liquid sulfoxide
     * In water, 1.6X10+3 mg/L @ 25 deg C

   from [8]HSDB

   Spectral Properties

     * Index of refraction: 1.5462 @ 20 deg C/D; max absorption (alcohol):
       290 nm (log epsilon= 1.48)
     * Max absorption (chloroform): 292 nm

   from [9]HSDB

   Vapor Density
        5.24 (Air= 1)
   from [10]HSDB

   Vapor Pressure
        0.65 mm Hg @ 25 deg C
   from [11]HSDB

   Other Chemical/Physical Properties

     * Liquefies when triturated with chloral hydrate, menthol,
       resorcinol, beta-naphthol, salol, thymol, phenol, urethan.
       ...Peculiar tenacity and cannot be powdered in a mortar unless
       moistened with an organic solvent. ...At 80 deg C and 12 mm
       pressure 14% sublimes within 60 min
     * NATURAL FORM-DEXTROROTARY; SYNTHETIC FORM-RACEMIC
     * SUBLIMES @ BOILING POINT
     * SPECIFIC OPTICAL ROTATION: 44.26 DEG @ 20 DEG C/D (D FORM); -44.2
       DEG @ 16 DEG C/D (ALCOHOL, 16.5%) (L FORM)
     * It is precipitated from its alcoholic soln by the addition of
       water; it is precipitated from camphor water by the addition of sol
       salts
     * IR: 6049 (Coblentz Society Spectral Collection) /Camphor (dl)/
     * UV: 96 (Sadtler Research Laboratories Spectral Collection) /Camphor
       (dl)/
     * H-1 NMR: 30 (Sadtler Research Laboratories Spectral Collection)
       /Camphor (dl)/
     * MASS: 912 (Atlas of Mass Spectral Data, John Wiley & Sons, New
       York); 73611 (NIST/EPA/MSDC Mass Spectral Database, 1990 Version)
       /Camphor (dl)/
     * C-13 NMR: 397 (Johnson and Jankowski, Carbon-13 NMR Spectra, John
       Wiley and sons, New York) /Camphor (dl)/
     * IR: 6049 (Coblentz Society Spectral Collection) /Camphor (l)/
     * UV: 96 (Sadtler Research Laboratories Spectral Collection) /Camphor
       (l)/
     * H-1 NMR: 2707 (Sadtler Research Laboratories Spectral Collection)
       /Camphor (l)/
     * MASS: 97024 (NIST/EPA/MSDC Mass Spectral Database, 1990 Version);
       717 (NBS) /Camphor (l)/
     * RAMAN: 586 (Sadtler Research Laboratories spectral collection)
       /Camphor (l)/
     * IR: 6049 (Coblentz Society Spectral Collection) /Camphor (d)/
     * UV: 96 (Sadtler Research Laboratories Spectral Collection) /Camphor
       (d)/
     * H-1 NMR: 30 (Sadtler Research Laboratories Spectral Collection)
       /Camphor (d)/
     * MASS: 912 (Atlas of Mass Spectral Data, John Wiley & Sons, New
       York) /Camphor (d)/
     * RAMAN: 586 (Sadtler Research Laboratories spectral collection)
       /Camphor (d)/
     * MASS: 489 (National Bureau of Standards EPA-NIH Mass Spectra Data
       Base, NSRDS-NBS-63) /Beta-Camphor/
     * Colorless, transparent crystals, mp 179 deg C, sublimes 204 deg C,
       specific optical rotation at 25 deg C/D = +41 to +43 deg (c=10 in
       U.S.P. alcohol) according to U.S.P. specif /Camphor (d)/
     * Henry's Law constant = 8.1X10-5 atm-cu m/mole @ 25 deg C
       /Estimated/
     * Hydroxyl radical reaction rate constant = 9.9X10-12 cu
       cm/molecule-sec @ 25 deg C /Estimated/

   from [12]HSDB

   Computed Properties
   Molecular Weight                  152.23344 [g/mol]
   Molecular Formula                 C[10]H[16]O
   XLogP3-AA                         2.2
   H-Bond Donor                      0
   H-Bond Acceptor                   1
   Rotatable Bond Count              0
   Tautomer Count                    2
   Exact Mass                        152.120115
   MonoIsotopic Mass                 152.120115
   Topological Polar Surface Area    17.1
   Heavy Atom Count                  11
   Formal Charge                     0
   Complexity                        217
   Isotope Atom Count                0
   Defined Atom Stereocenter Count   0
   Undefined Atom Stereocenter Count 2
   Defined Bond Stereocenter Count   0
   Undefined Bond Stereocenter Count 0
   Covalently-Bonded Unit Count      1
   Feature 3D Acceptor Count         1
   Feature 3D Hydrophobe Count       1
   Feature 3D Ring Count             1
   Effective Rotor Count             0.8
   Conformer Sampling RMSD           0.4
   CID Conformer Count               [13]2

References

   1. http://toxnet.nlm.nih.gov/cgi-bin/sis/search/r?dbs+hsdb:@term+@rn+@rel+76-22-2
   2. http://toxnet.nlm.nih.gov/cgi-bin/sis/search/r?dbs+hsdb:@term+@rn+@rel+76-22-2
   3. http://toxnet.nlm.nih.gov/cgi-bin/sis/search/r?dbs+hsdb:@term+@rn+@rel+76-22-2
   4. http://toxnet.nlm.nih.gov/cgi-bin/sis/search/r?dbs+hsdb:@term+@rn+@rel+76-22-2
   5. http://toxnet.nlm.nih.gov/cgi-bin/sis/search/r?dbs+hsdb:@term+@rn+@rel+76-22-2
   6. http://toxnet.nlm.nih.gov/cgi-bin/sis/search/r?dbs+hsdb:@term+@rn+@rel+76-22-2
   7. http://toxnet.nlm.nih.gov/cgi-bin/sis/search/r?dbs+hsdb:@term+@rn+@rel+76-22-2
   8. http://toxnet.nlm.nih.gov/cgi-bin/sis/search/r?dbs+hsdb:@term+@rn+@rel+76-22-2
   9. http://toxnet.nlm.nih.gov/cgi-bin/sis/search/r?dbs+hsdb:@term+@rn+@rel+76-22-2
  10. http://toxnet.nlm.nih.gov/cgi-bin/sis/search/r?dbs+hsdb:@term+@rn+@rel+76-22-2
  11. http://toxnet.nlm.nih.gov/cgi-bin/sis/search/r?dbs+hsdb:@term+@rn+@rel+76-22-2
  12. http://toxnet.nlm.nih.gov/cgi-bin/sis/search/r?dbs+hsdb:@term+@rn+@rel+76-22-2
  13. http://pubchem.ncbi.nlm.nih.gov/vw3d/vw3d.cgi?cid=2537
