442371
  -OEChem-07051212572D

 36 37  0     1  0  0  0  0  0999 V2000
    2.5369   -0.5053    0.0000 O   0  0  0  0  0  0  0  0  0  0  0  0
    2.5369    1.4947    0.0000 O   0  0  0  0  0  0  0  0  0  0  0  0
    5.1350   -0.0053    0.0000 C   0  0  1  0  0  0  0  0  0  0  0  0
    6.0290   -0.5399    0.0000 C   0  0  0  0  0  0  0  0  0  0  0  0
    4.2690   -0.5053    0.0000 C   0  0  1  0  0  0  0  0  0  0  0  0
    6.9350   -0.0261    0.0000 C   0  0  1  0  0  0  0  0  0  0  0  0
    5.1350    0.9947    0.0000 C   0  0  0  0  0  0  0  0  0  0  0  0
    6.9350    1.0156    0.0000 C   0  0  0  0  0  0  0  0  0  0  0  0
    6.0290    1.5294    0.0000 C   0  0  0  0  0  0  0  0  0  0  0  0
    3.4030   -0.0053    0.0000 C   0  0  2  0  0  0  0  0  0  0  0  0
    4.2690    1.4947    0.0000 C   0  0  0  0  0  0  0  0  0  0  0  0
    4.2690   -1.5053    0.0000 C   0  0  0  0  0  0  0  0  0  0  0  0
    3.4030    0.9947    0.0000 C   0  0  0  0  0  0  0  0  0  0  0  0
    7.7991   -0.5294    0.0000 C   0  0  0  0  0  0  0  0  0  0  0  0
    8.6671   -0.0328    0.0000 C   0  0  0  0  0  0  0  0  0  0  0  0
    7.7953   -1.5294    0.0000 C   0  0  0  0  0  0  0  0  0  0  0  0
    5.1285   -0.8552    0.0000 H   0  0  0  0  0  0  0  0  0  0  0  0
    4.8059   -0.8153    0.0000 H   0  0  0  0  0  0  0  0  0  0  0  0
    5.6244   -1.0097    0.0000 H   0  0  0  0  0  0  0  0  0  0  0  0
    6.4226   -1.0189    0.0000 H   0  0  0  0  0  0  0  0  0  0  0  0
    7.4726    0.2829    0.0000 H   0  0  0  0  0  0  0  0  0  0  0  0
    7.5459    0.9095    0.0000 H   0  0  0  0  0  0  0  0  0  0  0  0
    7.1441    1.5992    0.0000 H   0  0  0  0  0  0  0  0  0  0  0  0
    6.4226    2.0084    0.0000 H   0  0  0  0  0  0  0  0  0  0  0  0
    5.6244    1.9992    0.0000 H   0  0  0  0  0  0  0  0  0  0  0  0
    3.4030   -0.6253    0.0000 H   0  0  0  0  0  0  0  0  0  0  0  0
    4.2690    2.1147    0.0000 H   0  0  0  0  0  0  0  0  0  0  0  0
    3.6490   -1.5053    0.0000 H   0  0  0  0  0  0  0  0  0  0  0  0
    4.2690   -2.1253    0.0000 H   0  0  0  0  0  0  0  0  0  0  0  0
    4.8890   -1.5053    0.0000 H   0  0  0  0  0  0  0  0  0  0  0  0
    2.0000   -0.1953    0.0000 H   0  0  0  0  0  0  0  0  0  0  0  0
    8.9750   -0.5709    0.0000 H   0  0  0  0  0  0  0  0  0  0  0  0
    9.2052    0.2752    0.0000 H   0  0  0  0  0  0  0  0  0  0  0  0
    8.3591    0.5054    0.0000 H   0  0  0  0  0  0  0  0  0  0  0  0
    7.2571   -1.8373    0.0000 H   0  0  0  0  0  0  0  0  0  0  0  0
    8.3310   -1.8415    0.0000 H   0  0  0  0  0  0  0  0  0  0  0  0
 10  1  1  1  0  0  0
  1 31  1  0  0  0  0
  2 13  2  0  0  0  0
  3  4  1  0  0  0  0
  3  5  1  0  0  0  0
  3  7  1  0  0  0  0
  3 17  1  6  0  0  0
  4  6  1  0  0  0  0
  4 19  1  0  0  0  0
  4 20  1  0  0  0  0
  5 10  1  0  0  0  0
  5 12  1  6  0  0  0
  5 18  1  0  0  0  0
  6  8  1  0  0  0  0
  6 14  1  1  0  0  0
  6 21  1  0  0  0  0
  7  9  1  0  0  0  0
  7 11  2  0  0  0  0
  8  9  1  0  0  0  0
  8 22  1  0  0  0  0
  8 23  1  0  0  0  0
  9 24  1  0  0  0  0
  9 25  1  0  0  0  0
 10 13  1  0  0  0  0
 10 26  1  0  0  0  0
 11 13  1  0  0  0  0
 11 27  1  0  0  0  0
 12 28  1  0  0  0  0
 12 29  1  0  0  0  0
 12 30  1  0  0  0  0
 14 15  1  0  0  0  0
 14 16  2  0  0  0  0
 15 32  1  0  0  0  0
 15 33  1  0  0  0  0
 15 34  1  0  0  0  0
 16 35  1  0  0  0  0
 16 36  1  0  0  0  0
M  END
> <PUBCHEM_COMPOUND_CID>
442371

> <PUBCHEM_COMPOUND_CANONICALIZED>
1

> <PUBCHEM_CACTVS_COMPLEXITY>
354

> <PUBCHEM_CACTVS_HBOND_ACCEPTOR>
2

> <PUBCHEM_CACTVS_HBOND_DONOR>
1

> <PUBCHEM_CACTVS_ROTATABLE_BOND>
1

> <PUBCHEM_CACTVS_SUBSKEYS>
AAADceBwMAAAAAAAAAAAAAAAAAAAAAAAAAAwQAAAAAAAAACAAAAAGgAACAAADRSggAICAAAAAgCIAqBSAAIAAAAgAAAACAFAAEgAEBIAAQAAQAAEwAAIAQOIyPCOgAAAAAAAAAAAAAQAAAAAAAAAAAAAAA==

> <PUBCHEM_IUPAC_OPENEYE_NAME>
(3R,4S,4aS,6R)-3-hydroxy-6-isopropenyl-4-methyl-4,4a,5,6,7,8-hexahydro-3H-naphthalen-2-one

> <PUBCHEM_IUPAC_CAS_NAME>
(3R,4S,4aS,6R)-3-hydroxy-4-methyl-6-(1-methylethenyl)-4,4a,5,6,7,8-hexahydro-3H-naphthalen-2-one

> <PUBCHEM_IUPAC_NAME>
(3R,4S,4aS,6R)-3-hydroxy-4-methyl-6-prop-1-en-2-yl-4,4a,5,6,7,8-hexahydro-3H-naphthalen-2-one

> <PUBCHEM_IUPAC_SYSTEMATIC_NAME>
(3R,4S,4aS,6R)-4-methyl-3-oxidanyl-6-prop-1-en-2-yl-4,4a,5,6,7,8-hexahydro-3H-naphthalen-2-one

> <PUBCHEM_IUPAC_TRADITIONAL_NAME>
(3R,4S,4aS,6R)-3-hydroxy-6-isopropenyl-4-methyl-4,4a,5,6,7,8-hexahydro-3H-naphthalen-2-one

> <PUBCHEM_IUPAC_INCHI>
InChI=1S/C14H20O2/c1-8(2)10-4-5-11-7-13(15)14(16)9(3)12(11)6-10/h7,9-10,12,14,16H,1,4-6H2,2-3H3/t9-,10+,12-,14+/m0/s1

> <PUBCHEM_IUPAC_INCHIKEY>
AUWWCTMETLOZSD-HEQLZXTPSA-N

> <PUBCHEM_XLOGP3_AA>
2.8

> <PUBCHEM_EXACT_MASS>
220.14633

> <PUBCHEM_MOLECULAR_FORMULA>
C14H20O2

> <PUBCHEM_MOLECULAR_WEIGHT>
220.3074

> <PUBCHEM_OPENEYE_CAN_SMILES>
CC1C2CC(CCC2=CC(=O)C1O)C(=C)C

> <PUBCHEM_OPENEYE_ISO_SMILES>
C[C@H]1[C@@H]2C[C@@H](CCC2=CC(=O)[C@@H]1O)C(=C)C

> <PUBCHEM_CACTVS_TPSA>
37.3

> <PUBCHEM_MONOISOTOPIC_WEIGHT>
220.14633

> <PUBCHEM_TOTAL_CHARGE>
0

> <PUBCHEM_HEAVY_ATOM_COUNT>
16

> <PUBCHEM_ATOM_DEF_STEREO_COUNT>
4

> <PUBCHEM_ATOM_UDEF_STEREO_COUNT>
0

> <PUBCHEM_BOND_DEF_STEREO_COUNT>
0

> <PUBCHEM_BOND_UDEF_STEREO_COUNT>
0

> <PUBCHEM_ISOTOPIC_ATOM_COUNT>
0

> <PUBCHEM_COMPONENT_COUNT>
1

> <PUBCHEM_CACTVS_TAUTO_COUNT>
31

> <PUBCHEM_COORDINATE_TYPE>
1
5
255

> <PUBCHEM_BONDANNOTATIONS>
10  1  5
3  17  6
5  12  6
6  14  5

$$$$

