   Color/Form

     * Mobile liquid
     * Colorless liquid (usually a mixture of the cis & trans isomers) ...

   from [1]HSDB

   Odor

     * Ethereal, slightly acrid
     * Pleasant
     * Sweet, slightly irritating chloroform-like odor
     * ... Slightly acrid, chloroform-like odor.

   from [2]HSDB

   Boiling Point
        Approx 55 deg C
   from [3]HSDB

   Melting Point
        -50 deg C
   from [4]HSDB

   Corrosivity
        1,2-Dichloroethylene will attack some forms of plastics, rubber,
   and coatings.
   from [5]HSDB

   Density/Specific Gravity
        Approx 1.28
   from [6]HSDB

   Heat of Combustion
        -4847.2 Btu/lb= -2692.9 cal/g= -112.67X10+5 J/kg
   from [7]HSDB

   Heat of Vaporization
        130 Btu/lb= 72 cal/g= 3.0X10+5 J/kg
   from [8]HSDB

   Octanol/Water Partition Coefficient
        log Kow = 2.00 /avg cis & trans-isomers/
   from [9]HSDB

   Solubilities

     * Soluble in alcohol, ether, and most other organic solvents
     * In water, 3.50X10+3 mg/l @ 25 deg C.

   from [10]HSDB

   Spectral Properties

     * IR: 3645 (Sadtler Research Laboratories Prism Collection)
     * MASS: 203 (Atlas of Mass Spectral Data, John Wiley & Sons, New
       York)

   from [11]HSDB

   Surface Tension
        24 dynes/cm= 0.024 N/m @ 20 deg C
   from [12]HSDB

   Vapor Density
        3.4 (Air = 1) /cis- and trans-isomers/
   from [13]HSDB

   Vapor Pressure
        2.01X10+2 mm Hg @ 25 deg C
   from [14]HSDB

   Other Chemical/Physical Properties

     * Evaporation from water at 25 deg C of 1 ppm solution: 50% after 24
       min, 90% after 83 min.
     * Henry's Law constant = 4.08X10-3 atm cu m/mol @ 25 deg C
     * Hydroxyl radical reaction rate constant = 2.09x10-12 cu
       cm/molecule-sec @ 25 deg C
     * Colorless /1,2-Dichloroethylene/
     * Sweet pleasant odor /1,2-Dichloroethylene/
     * Heat of combustion: -4,847.2 Btu/lb= -2,692.9 cal/g
       /1,2-Dichloroethylene/
     * Latent heat of vaporization: 130 Btu/lb= 72 cal/g
       /1,2-Dichloroethylene/
     * Liquid-Water Interfacial Tension: (est) 30 dynes/cm= 0.030 N/m @ 20
       deg C; Vapor (Gas) Specific Gravity: 3.34

   from [15]HSDB

   Computed Properties
   Molecular Weight                  96.94328 [g/mol]
   Molecular Formula                 C[2]H[2]Cl[2]
   XLogP3                            1.9
   H-Bond Donor                      0
   H-Bond Acceptor                   0
   Rotatable Bond Count              0
   Exact Mass                        95.953355
   MonoIsotopic Mass                 95.953355
   Topological Polar Surface Area    0
   Heavy Atom Count                  4
   Formal Charge                     0
   Complexity                        19.2
   Isotope Atom Count                0
   Defined Atom Stereocenter Count   0
   Undefined Atom Stereocenter Count 0
   Defined Bond Stereocenter Count   1
   Undefined Bond Stereocenter Count 0
   Covalently-Bonded Unit Count      1
   Effective Rotor Count             0
   Conformer Sampling RMSD           0.4
   CID Conformer Count               [16]1

References

   1. http://toxnet.nlm.nih.gov/cgi-bin/sis/search/r?dbs+hsdb:@term+@rn+@rel+540-59-0
   2. http://toxnet.nlm.nih.gov/cgi-bin/sis/search/r?dbs+hsdb:@term+@rn+@rel+540-59-0
   3. http://toxnet.nlm.nih.gov/cgi-bin/sis/search/r?dbs+hsdb:@term+@rn+@rel+540-59-0
   4. http://toxnet.nlm.nih.gov/cgi-bin/sis/search/r?dbs+hsdb:@term+@rn+@rel+540-59-0
   5. http://toxnet.nlm.nih.gov/cgi-bin/sis/search/r?dbs+hsdb:@term+@rn+@rel+540-59-0
   6. http://toxnet.nlm.nih.gov/cgi-bin/sis/search/r?dbs+hsdb:@term+@rn+@rel+540-59-0
   7. http://toxnet.nlm.nih.gov/cgi-bin/sis/search/r?dbs+hsdb:@term+@rn+@rel+540-59-0
   8. http://toxnet.nlm.nih.gov/cgi-bin/sis/search/r?dbs+hsdb:@term+@rn+@rel+540-59-0
   9. http://toxnet.nlm.nih.gov/cgi-bin/sis/search/r?dbs+hsdb:@term+@rn+@rel+540-59-0
  10. http://toxnet.nlm.nih.gov/cgi-bin/sis/search/r?dbs+hsdb:@term+@rn+@rel+540-59-0
  11. http://toxnet.nlm.nih.gov/cgi-bin/sis/search/r?dbs+hsdb:@term+@rn+@rel+540-59-0
  12. http://toxnet.nlm.nih.gov/cgi-bin/sis/search/r?dbs+hsdb:@term+@rn+@rel+540-59-0
  13. http://toxnet.nlm.nih.gov/cgi-bin/sis/search/r?dbs+hsdb:@term+@rn+@rel+540-59-0
  14. http://toxnet.nlm.nih.gov/cgi-bin/sis/search/r?dbs+hsdb:@term+@rn+@rel+540-59-0
  15. http://toxnet.nlm.nih.gov/cgi-bin/sis/search/r?dbs+hsdb:@term+@rn+@rel+540-59-0
  16. http://pubchem.ncbi.nlm.nih.gov/vw3d/vw3d.cgi?cid=638186
