13186
  -OEChem-06261207522D

 18 16  0     0  0  0  0  0  0999 V2000
    5.1962    1.4750    0.0000 Cl  0  0  0  0  0  0  0  0  0  0  0  0
    0.0000    0.4749    0.0000 Cl  0  0  0  0  0  0  0  0  0  0  0  0
    2.3481    3.9499    0.0000 Cl  0  5  0  0  0  0  0  0  0  0  0  0
    2.5981    0.9749    0.0000 N   0  3  0  0  0  0  0  0  0  0  0  0
    3.4641    1.4750    0.0000 C   0  0  0  0  0  0  0  0  0  0  0  0
    1.7320    0.4749    0.0000 C   0  0  0  0  0  0  0  0  0  0  0  0
    4.3301    0.9749    0.0000 C   0  0  0  0  0  0  0  0  0  0  0  0
    0.8660    0.9749    0.0000 C   0  0  0  0  0  0  0  0  0  0  0  0
    2.2881    1.5119    0.0000 H   0  0  0  0  0  0  0  0  0  0  0  0
    2.9081    0.4380    0.0000 H   0  0  0  0  0  0  0  0  0  0  0  0
    3.8626    1.9499    0.0000 H   0  0  0  0  0  0  0  0  0  0  0  0
    3.0656    1.9499    0.0000 H   0  0  0  0  0  0  0  0  0  0  0  0
    1.3335    0.0000    0.0000 H   0  0  0  0  0  0  0  0  0  0  0  0
    2.1306    0.0000    0.0000 H   0  0  0  0  0  0  0  0  0  0  0  0
    3.9316    0.5000    0.0000 H   0  0  0  0  0  0  0  0  0  0  0  0
    4.7287    0.5000    0.0000 H   0  0  0  0  0  0  0  0  0  0  0  0
    1.2646    1.4499    0.0000 H   0  0  0  0  0  0  0  0  0  0  0  0
    0.4675    1.4499    0.0000 H   0  0  0  0  0  0  0  0  0  0  0  0
  1  7  1  0  0  0  0
  2  8  1  0  0  0  0
  4  5  1  0  0  0  0
  4  6  1  0  0  0  0
  4  9  1  0  0  0  0
  4 10  1  0  0  0  0
  5  7  1  0  0  0  0
  5 11  1  0  0  0  0
  5 12  1  0  0  0  0
  6  8  1  0  0  0  0
  6 13  1  0  0  0  0
  6 14  1  0  0  0  0
  7 15  1  0  0  0  0
  7 16  1  0  0  0  0
  8 17  1  0  0  0  0
  8 18  1  0  0  0  0
M  CHG  2   3  -1   4   1
M  END
> <PUBCHEM_COMPOUND_CID>
13186

> <PUBCHEM_COMPOUND_CANONICALIZED>
1

> <PUBCHEM_CACTVS_COMPLEXITY>
28.9

> <PUBCHEM_CACTVS_HBOND_ACCEPTOR>
1

> <PUBCHEM_CACTVS_HBOND_DONOR>
1

> <PUBCHEM_CACTVS_ROTATABLE_BOND>
4

> <PUBCHEM_CACTVS_SUBSKEYS>
AAADccBiAAAGAAAAAAAAAAAAAAAAAAAAAAAAAAAAAAAAAAAAAAAAHAIQAAAAAAPBAEQAAALAAAAAAAAAAAAAAAAAAAAAAIAIAAAAAAAAAABAAAAAEACAAAAAAAAAAAAAAAAAAAAAAAAAAAAAAAAAAAAAAA==

> <PUBCHEM_IUPAC_OPENEYE_NAME>
bis(2-chloroethyl)ammonium chloride

> <PUBCHEM_IUPAC_CAS_NAME>
bis(2-chloroethyl)ammonium chloride

> <PUBCHEM_IUPAC_NAME>
bis(2-chloroethyl)azanium chloride

> <PUBCHEM_IUPAC_SYSTEMATIC_NAME>
bis(2-chloroethyl)azanium chloride

> <PUBCHEM_IUPAC_TRADITIONAL_NAME>
bis(2-chloroethyl)ammonium chloride

> <PUBCHEM_IUPAC_INCHI>
InChI=1S/C4H9Cl2N.ClH/c5-1-3-7-4-2-6;/h7H,1-4H2;1H

> <PUBCHEM_IUPAC_INCHIKEY>
YMDZDFSUDFLGMX-UHFFFAOYSA-N

> <PUBCHEM_EXACT_MASS>
176.987882

> <PUBCHEM_MOLECULAR_FORMULA>
C4H10Cl3N

> <PUBCHEM_MOLECULAR_WEIGHT>
178.4879

> <PUBCHEM_OPENEYE_CAN_SMILES>
C(CCl)[NH2+]CCCl.[Cl-]

> <PUBCHEM_OPENEYE_ISO_SMILES>
C(CCl)[NH2+]CCCl.[Cl-]

> <PUBCHEM_CACTVS_TPSA>
16.6

> <PUBCHEM_MONOISOTOPIC_WEIGHT>
176.987882

> <PUBCHEM_TOTAL_CHARGE>
0

> <PUBCHEM_HEAVY_ATOM_COUNT>
8

> <PUBCHEM_ATOM_DEF_STEREO_COUNT>
0

> <PUBCHEM_ATOM_UDEF_STEREO_COUNT>
0

> <PUBCHEM_BOND_DEF_STEREO_COUNT>
0

> <PUBCHEM_BOND_UDEF_STEREO_COUNT>
0

> <PUBCHEM_ISOTOPIC_ATOM_COUNT>
0

> <PUBCHEM_COMPONENT_COUNT>
2

> <PUBCHEM_CACTVS_TAUTO_COUNT>
1

> <PUBCHEM_COORDINATE_TYPE>
1
5
255

$$$$

