   Color/Form

     * White, prismatic crystals
     * Prism-like crystals

   from [1]HSDB

   Odor
        ODORLESS
   from [2]HSDB

   Taste
        Slightly bitter taste
   from [3]HSDB

   Boiling Point
        178 deg C (sublimes)
   from [4]HSDB

   Melting Point
        238 DEG C (ANHYD)
   from [5]HSDB

   Density/Specific Gravity
        1.23 at 18 deg C/4 deg C
   from [6]HSDB

   Dissociation Constants
        pKa = 10.4 at 40 deg C (tertiary amine)
   from [7]HSDB

   Octanol/Water Partition Coefficient
        log Kow = -0.07
   from [8]HSDB

   pH
        pH = 6.9 (1% soln)
   from [9]HSDB

   Solubilities

     * SOL IN PYRIDINE.
     * Freely sol in pyrrole; slightly sol in petroleum ether; freely sol
       in tetrahydrofuran containing about 4% water
     * 1 gm dissolves in 46 mL water, 5.5 mL water at 80 deg C, 1.5 mL
       boiling water, 66 mL alcohol, 22 mL alcohol at 60 deg C, 50 mL
       acetone, 5.5 mL chloroform, 530 mL ether, 100 mL benzene, 22 mL
       boiling benzene.
     * In water, 2.16X10+4 mg/L at 25 deg C

   from [10]HSDB

   Spectral Properties

     * MAX ABSORPTION (ALCOHOL): 227 NM (LOG E= 4.3); 235 NM (LOG E= 4.3);
       274 NM (LOG E= 4.3)
     * SADTLER REFERENCE NUMBER: 209 (IR, GRATING)
     * Intense mass spectral peaks: 194 m/z (100%), 109 m/z (88%), 67 m/z
       (88%), 55 m/z (71%)
     * UV: 315 (Sadtler Research Laboratories Spectral Collection)
     * NMR: 204 (Varian Associates NMR Spectra Catalogue)
     * MASS: 22394 (NIST/EPA/MSDC Mass Spectral Database, 1990 version)
     * Intense mass spectral peaks: 82 m/z

   from [11]HSDB

   Vapor Pressure
        7.3X10-9 mm Hg at 25 deg C (est)
   from [12]HSDB

   Other Chemical/Physical Properties

     * Odorless; bitter taste; solution neutral to litmus /Caffeine
       monohydrate/
     * Efflorescent in air /Caffeine monohydrate/
     * Solubility in water is increased by alkali benzoates, cinnamates,
       citrates or salicylates
     * White, fleecy masses or long, flexible, silky crystals /Caffeine
       monohydrate/
     * Aqueous solution of caffeine salts dissociate quickly
     * Fast sublimation is obtained at 160-165 deg C under 1 mmHg pressure
       at 5 mm distance.
     * Henry's Law constant = 3.6X10-11 atm-cu m/mole at 25 deg C(est)
     * Hydroxyl radical reaction rate constant = 1.9X10-11 cu cm/molec-sec
       at 25 deg C (est)

   from [13]HSDB

   Computed Properties
   Molecular Weight                  194.1906 [g/mol]
   Molecular Formula                 C[8]H[10]N[4]O[2]
   XLogP3                            -0.1
   H-Bond Donor                      0
   H-Bond Acceptor                   3
   Rotatable Bond Count              0
   Exact Mass                        194.080376
   MonoIsotopic Mass                 194.080376
   Topological Polar Surface Area    58.4
   Heavy Atom Count                  14
   Formal Charge                     0
   Complexity                        293
   Isotope Atom Count                0
   Defined Atom Stereocenter Count   0
   Undefined Atom Stereocenter Count 0
   Defined Bond Stereocenter Count   0
   Undefined Bond Stereocenter Count 0
   Covalently-Bonded Unit Count      1
   Feature 3D Acceptor Count         2
   Feature 3D Cation Count           1
   Feature 3D Ring Count             2
   Effective Rotor Count             0
   Conformer Sampling RMSD           0.4
   CID Conformer Count               [14]1

References

   1. http://toxnet.nlm.nih.gov/cgi-bin/sis/search/r?dbs+hsdb:@term+@rn+@rel+58-08-2
   2. http://toxnet.nlm.nih.gov/cgi-bin/sis/search/r?dbs+hsdb:@term+@rn+@rel+58-08-2
   3. http://toxnet.nlm.nih.gov/cgi-bin/sis/search/r?dbs+hsdb:@term+@rn+@rel+58-08-2
   4. http://toxnet.nlm.nih.gov/cgi-bin/sis/search/r?dbs+hsdb:@term+@rn+@rel+58-08-2
   5. http://toxnet.nlm.nih.gov/cgi-bin/sis/search/r?dbs+hsdb:@term+@rn+@rel+58-08-2
   6. http://toxnet.nlm.nih.gov/cgi-bin/sis/search/r?dbs+hsdb:@term+@rn+@rel+58-08-2
   7. http://toxnet.nlm.nih.gov/cgi-bin/sis/search/r?dbs+hsdb:@term+@rn+@rel+58-08-2
   8. http://toxnet.nlm.nih.gov/cgi-bin/sis/search/r?dbs+hsdb:@term+@rn+@rel+58-08-2
   9. http://toxnet.nlm.nih.gov/cgi-bin/sis/search/r?dbs+hsdb:@term+@rn+@rel+58-08-2
  10. http://toxnet.nlm.nih.gov/cgi-bin/sis/search/r?dbs+hsdb:@term+@rn+@rel+58-08-2
  11. http://toxnet.nlm.nih.gov/cgi-bin/sis/search/r?dbs+hsdb:@term+@rn+@rel+58-08-2
  12. http://toxnet.nlm.nih.gov/cgi-bin/sis/search/r?dbs+hsdb:@term+@rn+@rel+58-08-2
  13. http://toxnet.nlm.nih.gov/cgi-bin/sis/search/r?dbs+hsdb:@term+@rn+@rel+58-08-2
  14. http://pubchem.ncbi.nlm.nih.gov/vw3d/vw3d.cgi?cid=2519
