   Color/Form
        White powder
   from [1]HSDB

   Odor
        Odorless
   from [2]HSDB

   Melting Point
        151-153 deg C
   from [3]HSDB

   Octanol/Water Partition Coefficient
        log Kow = 0.76 (est)
   from [4]HSDB

   Solubilities

     * Sparingly soluble in water, methanol, ethanol, acetone and
       chloroform; freely soluble in DSMO, 1-methyl-2-pyrrolidinone and
       DMF.
     * In water, 2,600 mg/L at 25 deg C (est)

   from [5]HSDB

   Vapor Pressure
        1.6X10-5 mm Hg at 25 deg C (est)
   from [6]HSDB

   Other Chemical/Physical Properties

     * Henry's Law constant = 4.8X10-12 atm-cu cm/mol at 25 deg C (est)
     * Hydroxyl radical reaction rate constant = 2.4X10-11 cu cm/molec-sec
       at 25 deg C (est)

   from [7]HSDB

   Computed Properties
   Molecular Weight                  238.23986 [g/mol]
   Molecular Formula                 C[11]H[14]N[2]O[4]
   XLogP3-AA                         0.6
   H-Bond Donor                      2
   H-Bond Acceptor                   4
   Rotatable Bond Count              7
   Tautomer Count                    3
   Exact Mass                        238.095357
   MonoIsotopic Mass                 238.095357
   Topological Polar Surface Area    105
   Heavy Atom Count                  17
   Formal Charge                     0
   Complexity                        246
   Isotope Atom Count                0
   Defined Atom Stereocenter Count   0
   Undefined Atom Stereocenter Count 0
   Defined Bond Stereocenter Count   0
   Undefined Bond Stereocenter Count 0
   Covalently-Bonded Unit Count      1
   Feature 3D Acceptor Count         2
   Feature 3D Donor Count            2
   Feature 3D Ring Count             1
   Effective Rotor Count             7
   Conformer Sampling RMSD           0.8
   CID Conformer Count               [8]81

References

   1. http://toxnet.nlm.nih.gov/cgi-bin/sis/search/r?dbs+hsdb:@term+@rn+@rel+25451-15-4
   2. http://toxnet.nlm.nih.gov/cgi-bin/sis/search/r?dbs+hsdb:@term+@rn+@rel+25451-15-4
   3. http://toxnet.nlm.nih.gov/cgi-bin/sis/search/r?dbs+hsdb:@term+@rn+@rel+25451-15-4
   4. http://toxnet.nlm.nih.gov/cgi-bin/sis/search/r?dbs+hsdb:@term+@rn+@rel+25451-15-4
   5. http://toxnet.nlm.nih.gov/cgi-bin/sis/search/r?dbs+hsdb:@term+@rn+@rel+25451-15-4
   6. http://toxnet.nlm.nih.gov/cgi-bin/sis/search/r?dbs+hsdb:@term+@rn+@rel+25451-15-4
   7. http://toxnet.nlm.nih.gov/cgi-bin/sis/search/r?dbs+hsdb:@term+@rn+@rel+25451-15-4
   8. http://pubchem.ncbi.nlm.nih.gov/vw3d/vw3d.cgi?cid=3331
