252381
  -OEChem-07051213062D

 35 37  0     0  0  0  0  0  0999 V2000
   10.3972    1.7568    0.0000 O   0  0  0  0  0  0  0  0  0  0  0  0
    2.5369   -1.7673    0.0000 O   0  0  0  0  0  0  0  0  0  0  0  0
    6.8671    1.7327    0.0000 C   0  0  0  0  0  0  0  0  0  0  0  0
    6.0010    1.2327    0.0000 C   0  0  0  0  0  0  0  0  0  0  0  0
    7.7331    1.2327    0.0000 C   0  0  0  0  0  0  0  0  0  0  0  0
    6.0010    0.2327    0.0000 C   0  0  0  0  0  0  0  0  0  0  0  0
    7.7331    0.2327    0.0000 C   0  0  0  0  0  0  0  0  0  0  0  0
    6.8671   -0.2673    0.0000 C   0  0  0  0  0  0  0  0  0  0  0  0
    5.1350   -0.2673    0.0000 C   0  0  0  0  0  0  0  0  0  0  0  0
    8.6270    1.7673    0.0000 C   0  0  0  0  0  0  0  0  0  0  0  0
    8.6270   -0.3020    0.0000 C   0  0  0  0  0  0  0  0  0  0  0  0
    9.5331    1.2535    0.0000 C   0  0  0  0  0  0  0  0  0  0  0  0
    9.5331    0.2119    0.0000 C   0  0  0  0  0  0  0  0  0  0  0  0
    4.2690    0.2327    0.0000 C   0  0  0  0  0  0  0  0  0  0  0  0
    5.1350   -1.2673    0.0000 C   0  0  0  0  0  0  0  0  0  0  0  0
    3.4030   -0.2673    0.0000 C   0  0  0  0  0  0  0  0  0  0  0  0
    4.2690   -1.7673    0.0000 C   0  0  0  0  0  0  0  0  0  0  0  0
    3.4030   -1.2673    0.0000 C   0  0  0  0  0  0  0  0  0  0  0  0
   11.2651    1.2602    0.0000 C   0  0  0  0  0  0  0  0  0  0  0  0
    7.2656    2.2076    0.0000 H   0  0  0  0  0  0  0  0  0  0  0  0
    6.4685    2.2076    0.0000 H   0  0  0  0  0  0  0  0  0  0  0  0
    5.7890    1.8153    0.0000 H   0  0  0  0  0  0  0  0  0  0  0  0
    5.3905    1.1250    0.0000 H   0  0  0  0  0  0  0  0  0  0  0  0
    6.8671   -0.8873    0.0000 H   0  0  0  0  0  0  0  0  0  0  0  0
    8.6199    2.3873    0.0000 H   0  0  0  0  0  0  0  0  0  0  0  0
    8.6199   -0.9220    0.0000 H   0  0  0  0  0  0  0  0  0  0  0  0
   10.0688   -0.1002    0.0000 H   0  0  0  0  0  0  0  0  0  0  0  0
    4.2690    0.8527    0.0000 H   0  0  0  0  0  0  0  0  0  0  0  0
    5.6720   -1.5773    0.0000 H   0  0  0  0  0  0  0  0  0  0  0  0
    2.8660    0.0427    0.0000 H   0  0  0  0  0  0  0  0  0  0  0  0
    4.2690   -2.3873    0.0000 H   0  0  0  0  0  0  0  0  0  0  0  0
   10.9572    0.7220    0.0000 H   0  0  0  0  0  0  0  0  0  0  0  0
   11.8033    0.9522    0.0000 H   0  0  0  0  0  0  0  0  0  0  0  0
   11.5731    1.7983    0.0000 H   0  0  0  0  0  0  0  0  0  0  0  0
    2.0000   -1.4573    0.0000 H   0  0  0  0  0  0  0  0  0  0  0  0
  1 12  1  0  0  0  0
  1 19  1  0  0  0  0
  2 18  1  0  0  0  0
  2 35  1  0  0  0  0
  3  4  1  0  0  0  0
  3  5  1  0  0  0  0
  3 20  1  0  0  0  0
  3 21  1  0  0  0  0
  4  6  1  0  0  0  0
  4 22  1  0  0  0  0
  4 23  1  0  0  0  0
  5  7  2  0  0  0  0
  5 10  1  0  0  0  0
  6  8  2  0  0  0  0
  6  9  1  0  0  0  0
  7  8  1  0  0  0  0
  7 11  1  0  0  0  0
  8 24  1  0  0  0  0
  9 14  2  0  0  0  0
  9 15  1  0  0  0  0
 10 12  2  0  0  0  0
 10 25  1  0  0  0  0
 11 13  2  0  0  0  0
 11 26  1  0  0  0  0
 12 13  1  0  0  0  0
 13 27  1  0  0  0  0
 14 16  1  0  0  0  0
 14 28  1  0  0  0  0
 15 17  2  0  0  0  0
 15 29  1  0  0  0  0
 16 18  2  0  0  0  0
 16 30  1  0  0  0  0
 17 18  1  0  0  0  0
 17 31  1  0  0  0  0
 19 32  1  0  0  0  0
 19 33  1  0  0  0  0
 19 34  1  0  0  0  0
M  END
> <PUBCHEM_COMPOUND_CID>
252381

> <PUBCHEM_COMPOUND_CANONICALIZED>
1

> <PUBCHEM_CACTVS_COMPLEXITY>
328

> <PUBCHEM_CACTVS_HBOND_ACCEPTOR>
2

> <PUBCHEM_CACTVS_HBOND_DONOR>
1

> <PUBCHEM_CACTVS_ROTATABLE_BOND>
2

> <PUBCHEM_CACTVS_SUBSKEYS>
AAADceB4MAAAAAAAAAAAAAAAAAAAAAAAAAAwYIAAAAAAAACBQAAAGgAACAAADASAmAIyBoAABgCAAiBCAAACCAAgIAAIiAAGCIgMJiKGMRqAcCAkwBEIuAeAwPAOoAABAAAQAABAAAIAACAAAAAAAAAAAA==

> <PUBCHEM_IUPAC_OPENEYE_NAME>
4-(6-methoxy-3,4-dihydronaphthalen-2-yl)phenol

> <PUBCHEM_IUPAC_CAS_NAME>
4-(6-methoxy-3,4-dihydronaphthalen-2-yl)phenol

> <PUBCHEM_IUPAC_NAME>
4-(6-methoxy-3,4-dihydronaphthalen-2-yl)phenol

> <PUBCHEM_IUPAC_SYSTEMATIC_NAME>
4-(6-methoxy-3,4-dihydronaphthalen-2-yl)phenol

> <PUBCHEM_IUPAC_TRADITIONAL_NAME>
4-(6-methoxy-3,4-dihydronaphthalen-2-yl)phenol

> <PUBCHEM_IUPAC_INCHI>
InChI=1S/C17H16O2/c1-19-17-9-6-14-10-13(2-3-15(14)11-17)12-4-7-16(18)8-5-12/h4-11,18H,2-3H2,1H3

> <PUBCHEM_IUPAC_INCHIKEY>
JDCCZPOXMJXBKS-UHFFFAOYSA-N

> <PUBCHEM_XLOGP3_AA>
3.8

> <PUBCHEM_EXACT_MASS>
252.11503

> <PUBCHEM_MOLECULAR_FORMULA>
C17H16O2

> <PUBCHEM_MOLECULAR_WEIGHT>
252.30774

> <PUBCHEM_OPENEYE_CAN_SMILES>
COC1=CC2=C(C=C1)C=C(CC2)C3=CC=C(C=C3)O

> <PUBCHEM_OPENEYE_ISO_SMILES>
COC1=CC2=C(C=C1)C=C(CC2)C3=CC=C(C=C3)O

> <PUBCHEM_CACTVS_TPSA>
29.5

> <PUBCHEM_MONOISOTOPIC_WEIGHT>
252.11503

> <PUBCHEM_TOTAL_CHARGE>
0

> <PUBCHEM_HEAVY_ATOM_COUNT>
19

> <PUBCHEM_ATOM_DEF_STEREO_COUNT>
0

> <PUBCHEM_ATOM_UDEF_STEREO_COUNT>
0

> <PUBCHEM_BOND_DEF_STEREO_COUNT>
0

> <PUBCHEM_BOND_UDEF_STEREO_COUNT>
0

> <PUBCHEM_ISOTOPIC_ATOM_COUNT>
0

> <PUBCHEM_COMPONENT_COUNT>
1

> <PUBCHEM_CACTVS_TAUTO_COUNT>
5

> <PUBCHEM_COORDINATE_TYPE>
1
5
255

> <PUBCHEM_BONDANNOTATIONS>
10  12  8
11  13  8
12  13  8
14  16  8
15  17  8
16  18  8
17  18  8
5  10  8
5  7  8
7  11  8
9  14  8
9  15  8

$$$$

