586043
  -OEChem-06241222452D

 22 23  0     1  0  0  0  0  0999 V2000
    3.7320    1.4827    0.0000 S   0  0  0  0  0  0  0  0  0  0  0  0
    3.7320   -1.5173    0.0000 O   0  0  0  0  0  0  0  0  0  0  0  0
    2.8660   -0.0173    0.0000 C   0  0  3  0  0  0  0  0  0  0  0  0
    2.8660    0.9827    0.0000 C   0  0  0  0  0  0  0  0  0  0  0  0
    3.7320   -0.5173    0.0000 C   0  0  0  0  0  0  0  0  0  0  0  0
    4.5981   -0.0173    0.0000 C   0  0  0  0  0  0  0  0  0  0  0  0
    4.5981    0.9827    0.0000 C   0  0  0  0  0  0  0  0  0  0  0  0
    2.0000   -0.5173    0.0000 C   0  0  0  0  0  0  0  0  0  0  0  0
    5.4920   -0.5520    0.0000 C   0  0  0  0  0  0  0  0  0  0  0  0
    5.4920    1.5173    0.0000 C   0  0  0  0  0  0  0  0  0  0  0  0
    6.3981   -0.0381    0.0000 C   0  0  0  0  0  0  0  0  0  0  0  0
    6.3981    1.0035    0.0000 C   0  0  0  0  0  0  0  0  0  0  0  0
    2.8660   -0.6373    0.0000 H   0  0  0  0  0  0  0  0  0  0  0  0
    2.6540    1.5653    0.0000 H   0  0  0  0  0  0  0  0  0  0  0  0
    2.2554    0.8750    0.0000 H   0  0  0  0  0  0  0  0  0  0  0  0
    1.6900    0.0196    0.0000 H   0  0  0  0  0  0  0  0  0  0  0  0
    1.4631   -0.8273    0.0000 H   0  0  0  0  0  0  0  0  0  0  0  0
    2.3100   -1.0543    0.0000 H   0  0  0  0  0  0  0  0  0  0  0  0
    5.4848   -1.1720    0.0000 H   0  0  0  0  0  0  0  0  0  0  0  0
    5.4848    2.1373    0.0000 H   0  0  0  0  0  0  0  0  0  0  0  0
    6.9338   -0.3502    0.0000 H   0  0  0  0  0  0  0  0  0  0  0  0
    6.9338    1.3156    0.0000 H   0  0  0  0  0  0  0  0  0  0  0  0
  1  4  1  0  0  0  0
  1  7  1  0  0  0  0
  2  5  2  0  0  0  0
  3  4  1  0  0  0  0
  3  5  1  0  0  0  0
  3  8  1  0  0  0  0
  3 13  1  0  0  0  0
  4 14  1  0  0  0  0
  4 15  1  0  0  0  0
  5  6  1  0  0  0  0
  6  7  1  0  0  0  0
  6  9  2  0  0  0  0
  7 10  2  0  0  0  0
  8 16  1  0  0  0  0
  8 17  1  0  0  0  0
  8 18  1  0  0  0  0
  9 11  1  0  0  0  0
  9 19  1  0  0  0  0
 10 12  1  0  0  0  0
 10 20  1  0  0  0  0
 11 12  2  0  0  0  0
 11 21  1  0  0  0  0
 12 22  1  0  0  0  0
M  END
> <PUBCHEM_COMPOUND_CID>
586043

> <PUBCHEM_COMPOUND_CANONICALIZED>
1

> <PUBCHEM_CACTVS_COMPLEXITY>
190

> <PUBCHEM_CACTVS_HBOND_ACCEPTOR>
2

> <PUBCHEM_CACTVS_HBOND_DONOR>
0

> <PUBCHEM_CACTVS_ROTATABLE_BOND>
0

> <PUBCHEM_CACTVS_SUBSKEYS>
AAADccBwIABAAAAAAAAAAAAAAAAAAAAAAAA0QAAAAAAAAACRAAAAGgQAAAAADQSE2ACyAYAAAAiIAqBSAAACAAAkCBAIiBkAAMgIIDKgFRCAIQAggAAoiYcIiMCOAAAAAAAEAAAAAAAAAAgAAAAAAAAAAA==

> <PUBCHEM_IUPAC_OPENEYE_NAME>
3-methylthiochroman-4-one

> <PUBCHEM_IUPAC_CAS_NAME>
3-methyl-2,3-dihydro-1-benzothiopyran-4-one

> <PUBCHEM_IUPAC_NAME>
3-methyl-2,3-dihydrothiochromen-4-one

> <PUBCHEM_IUPAC_SYSTEMATIC_NAME>
3-methyl-2,3-dihydrothiochromen-4-one

> <PUBCHEM_IUPAC_TRADITIONAL_NAME>
3-methylthiochroman-4-one

> <PUBCHEM_IUPAC_INCHI>
InChI=1S/C10H10OS/c1-7-6-12-9-5-3-2-4-8(9)10(7)11/h2-5,7H,6H2,1H3

> <PUBCHEM_IUPAC_INCHIKEY>
XCJJYQRFPYKZAU-UHFFFAOYSA-N

> <PUBCHEM_XLOGP3_AA>
2.5

> <PUBCHEM_EXACT_MASS>
178.045236

> <PUBCHEM_MOLECULAR_FORMULA>
C10H10OS

> <PUBCHEM_MOLECULAR_WEIGHT>
178.2508

> <PUBCHEM_OPENEYE_CAN_SMILES>
CC1CSC2=CC=CC=C2C1=O

> <PUBCHEM_OPENEYE_ISO_SMILES>
CC1CSC2=CC=CC=C2C1=O

> <PUBCHEM_CACTVS_TPSA>
42.4

> <PUBCHEM_MONOISOTOPIC_WEIGHT>
178.045236

> <PUBCHEM_TOTAL_CHARGE>
0

> <PUBCHEM_HEAVY_ATOM_COUNT>
12

> <PUBCHEM_ATOM_DEF_STEREO_COUNT>
0

> <PUBCHEM_ATOM_UDEF_STEREO_COUNT>
1

> <PUBCHEM_BOND_DEF_STEREO_COUNT>
0

> <PUBCHEM_BOND_UDEF_STEREO_COUNT>
0

> <PUBCHEM_ISOTOPIC_ATOM_COUNT>
0

> <PUBCHEM_COMPONENT_COUNT>
1

> <PUBCHEM_CACTVS_TAUTO_COUNT>
2

> <PUBCHEM_COORDINATE_TYPE>
1
5
255

> <PUBCHEM_BONDANNOTATIONS>
10  12  8
11  12  8
3  8  3
6  7  8
6  9  8
7  10  8
9  11  8

$$$$

