5281779
  -OEChem-07051212592D

 32 35  0     0  0  0  0  0  0999 V2000
    6.9006   -1.7844    0.0000 O   0  0  0  0  0  0  0  0  0  0  0  0
   10.4728    0.0550    0.0000 O   0  0  0  0  0  0  0  0  0  0  0  0
   10.4728   -1.5545    0.0000 O   0  0  0  0  0  0  0  0  0  0  0  0
    8.6605    1.2502    0.0000 O   0  0  0  0  0  0  0  0  0  0  0  0
    6.9121    1.2848    0.0000 O   0  0  0  0  0  0  0  0  0  0  0  0
    2.5381    1.7844    0.0000 O   0  0  0  0  0  0  0  0  0  0  0  0
    7.7945   -0.2497    0.0000 C   0  0  0  0  0  0  0  0  0  0  0  0
    7.7945   -1.2498    0.0000 C   0  0  0  0  0  0  0  0  0  0  0  0
    9.5266   -0.2497    0.0000 C   0  0  0  0  0  0  0  0  0  0  0  0
    8.6605    0.2503    0.0000 C   0  0  0  0  0  0  0  0  0  0  0  0
    9.5266   -1.2498    0.0000 C   0  0  0  0  0  0  0  0  0  0  0  0
    6.9006    0.2849    0.0000 C   0  0  0  0  0  0  0  0  0  0  0  0
    5.9945   -0.2289    0.0000 C   0  0  0  0  0  0  0  0  0  0  0  0
    8.6605   -1.7498    0.0000 C   0  0  0  0  0  0  0  0  0  0  0  0
    5.1304    0.2744    0.0000 C   0  0  0  0  0  0  0  0  0  0  0  0
    5.9945   -1.2706    0.0000 C   0  0  0  0  0  0  0  0  0  0  0  0
   11.0564   -0.7497    0.0000 C   0  0  0  0  0  0  0  0  0  0  0  0
    5.1343    1.2744    0.0000 C   0  0  0  0  0  0  0  0  0  0  0  0
    4.2625   -0.2223    0.0000 C   0  0  0  0  0  0  0  0  0  0  0  0
    4.2702    1.7777    0.0000 C   0  0  0  0  0  0  0  0  0  0  0  0
    3.3984    0.2811    0.0000 C   0  0  0  0  0  0  0  0  0  0  0  0
    3.4022    1.2811    0.0000 C   0  0  0  0  0  0  0  0  0  0  0  0
    8.6605   -2.3697    0.0000 H   0  0  0  0  0  0  0  0  0  0  0  0
    5.4588   -1.5826    0.0000 H   0  0  0  0  0  0  0  0  0  0  0  0
   11.5173   -1.1645    0.0000 H   0  0  0  0  0  0  0  0  0  0  0  0
   11.5173   -0.3350    0.0000 H   0  0  0  0  0  0  0  0  0  0  0  0
    5.6724    1.5823    0.0000 H   0  0  0  0  0  0  0  0  0  0  0  0
    4.2601   -0.8422    0.0000 H   0  0  0  0  0  0  0  0  0  0  0  0
    9.1975    1.5602    0.0000 H   0  0  0  0  0  0  0  0  0  0  0  0
    4.2726    2.3977    0.0000 H   0  0  0  0  0  0  0  0  0  0  0  0
    2.8602   -0.0268    0.0000 H   0  0  0  0  0  0  0  0  0  0  0  0
    2.0000    1.4765    0.0000 H   0  0  0  0  0  0  0  0  0  0  0  0
  1  8  1  0  0  0  0
  1 16  1  0  0  0  0
  2  9  1  0  0  0  0
  2 17  1  0  0  0  0
  3 11  1  0  0  0  0
  3 17  1  0  0  0  0
  4 10  1  0  0  0  0
  4 29  1  0  0  0  0
  5 12  2  0  0  0  0
  6 22  1  0  0  0  0
  6 32  1  0  0  0  0
  7  8  1  0  0  0  0
  7 10  2  0  0  0  0
  7 12  1  0  0  0  0
  8 14  2  0  0  0  0
  9 10  1  0  0  0  0
  9 11  2  0  0  0  0
 11 14  1  0  0  0  0
 12 13  1  0  0  0  0
 13 15  1  0  0  0  0
 13 16  2  0  0  0  0
 14 23  1  0  0  0  0
 15 18  2  0  0  0  0
 15 19  1  0  0  0  0
 16 24  1  0  0  0  0
 17 25  1  0  0  0  0
 17 26  1  0  0  0  0
 18 20  1  0  0  0  0
 18 27  1  0  0  0  0
 19 21  2  0  0  0  0
 19 28  1  0  0  0  0
 20 22  2  0  0  0  0
 20 30  1  0  0  0  0
 21 22  1  0  0  0  0
 21 31  1  0  0  0  0
M  END
> <PUBCHEM_COMPOUND_CID>
5281779

> <PUBCHEM_COMPOUND_CANONICALIZED>
1

> <PUBCHEM_CACTVS_COMPLEXITY>
481

> <PUBCHEM_CACTVS_HBOND_ACCEPTOR>
6

> <PUBCHEM_CACTVS_HBOND_DONOR>
2

> <PUBCHEM_CACTVS_ROTATABLE_BOND>
1

> <PUBCHEM_CACTVS_SUBSKEYS>
AAADccB4OAAAAAAAAAAAAAAAAAAAASAAAAAwYIAAAAAAAEiBQAAAGgAACAAADASgmAMwDoAABgCIAqBSAAACCAAkIAAIiAEGiMgdJzaGNRqgcWMl4BUPuYfK7PzOIQABCAAIQABCAAIQABCAAAAAAAAAAA==

> <PUBCHEM_IUPAC_OPENEYE_NAME>
9-hydroxy-7-(4-hydroxyphenyl)-[1,3]dioxolo[4,5-g]chromen-8-one

> <PUBCHEM_IUPAC_CAS_NAME>
9-hydroxy-7-(4-hydroxyphenyl)-[1,3]dioxolo[4,5-g][1]benzopyran-8-one

> <PUBCHEM_IUPAC_NAME>
9-hydroxy-7-(4-hydroxyphenyl)-[1,3]dioxolo[4,5-g]chromen-8-one

> <PUBCHEM_IUPAC_SYSTEMATIC_NAME>
7-(4-hydroxyphenyl)-9-oxidanyl-[1,3]dioxolo[4,5-g]chromen-8-one

> <PUBCHEM_IUPAC_TRADITIONAL_NAME>
9-hydroxy-7-(4-hydroxyphenyl)-[1,3]dioxolo[4,5-g]chromen-8-one

> <PUBCHEM_IUPAC_INCHI>
InChI=1S/C16H10O6/c17-9-3-1-8(2-4-9)10-6-20-11-5-12-16(22-7-21-12)15(19)13(11)14(10)18/h1-6,17,19H,7H2

> <PUBCHEM_IUPAC_INCHIKEY>
NUGRQNBDTZWXTP-UHFFFAOYSA-N

> <PUBCHEM_XLOGP3_AA>
2.8

> <PUBCHEM_EXACT_MASS>
298.047738

> <PUBCHEM_MOLECULAR_FORMULA>
C16H10O6

> <PUBCHEM_MOLECULAR_WEIGHT>
298.247

> <PUBCHEM_OPENEYE_CAN_SMILES>
C1OC2=C(O1)C(=C3C(=C2)OC=C(C3=O)C4=CC=C(C=C4)O)O

> <PUBCHEM_OPENEYE_ISO_SMILES>
C1OC2=C(O1)C(=C3C(=C2)OC=C(C3=O)C4=CC=C(C=C4)O)O

> <PUBCHEM_CACTVS_TPSA>
85.2

> <PUBCHEM_MONOISOTOPIC_WEIGHT>
298.047738

> <PUBCHEM_TOTAL_CHARGE>
0

> <PUBCHEM_HEAVY_ATOM_COUNT>
22

> <PUBCHEM_ATOM_DEF_STEREO_COUNT>
0

> <PUBCHEM_ATOM_UDEF_STEREO_COUNT>
0

> <PUBCHEM_BOND_DEF_STEREO_COUNT>
0

> <PUBCHEM_BOND_UDEF_STEREO_COUNT>
0

> <PUBCHEM_ISOTOPIC_ATOM_COUNT>
0

> <PUBCHEM_COMPONENT_COUNT>
1

> <PUBCHEM_CACTVS_TAUTO_COUNT>
8

> <PUBCHEM_COORDINATE_TYPE>
1
5
255

> <PUBCHEM_BONDANNOTATIONS>
1  16  8
1  8  8
11  14  8
12  13  8
13  16  8
15  18  8
15  19  8
18  20  8
19  21  8
20  22  8
21  22  8
7  10  8
7  12  8
7  8  8
8  14  8
9  10  8
9  11  8

$$$$

