   Color/Form

     * Oily liquid
     * Colorless liquid

   from [1]HSDB

   Boiling Point
        228 deg C
   from [2]HSDB

   Density/Specific Gravity
        1.065 at 25 deg C/25 deg C
   from [3]HSDB

   Octanol/Water Partition Coefficient
        log Kow = 3.38 (est)
   from [4]HSDB

   Solubilities

     * MISCIBLE WITH ETHANOL, ETHER, ACETIC ACID AND BENZENE
     * Somewhat soluble in alcohol
     * Soluble in carbon tetrachloride
     * In water, 56.9 mg/L at 25 deg C (est)

   from [5]HSDB

   Spectral Properties

     * INDEX OF REFRACTION: 1.5187 AT 25 DEG C/D
     * MASS: 71273 (NIST/EPA/MSDC Mass Spectral database, 1990 version)
     * IR: 12429 (Sadtler Research Laboratories prism collection)
     * UV: 18445 (Sadtler Research Laboratories spectral collection)
     * 1H NMR: 11723 (Sadtler Research Laboratories spectral collection)

   from [6]HSDB

   Vapor Pressure
        5.6X10-2 mm Hg at 25 deg C (est)
   from [7]HSDB

   Other Chemical/Physical Properties

     * Hydroxyl radical reaction rate constant = 5.09X10-11 cu
       cm/molec-sec at 25 deg C (est)
     * Hydroxyl radical reaction rate constant = 5.09X10-11 cu
       cm/molec-sec at 25 deg C (est)

   from [8]HSDB

   Computed Properties
   Molecular Weight                  164.20108 [g/mol]
   Molecular Formula                 C[10]H[12]O[2]
   XLogP3                            3.2
   H-Bond Donor                      0
   H-Bond Acceptor                   2
   Rotatable Bond Count              2
   Exact Mass                        164.08373
   MonoIsotopic Mass                 164.08373
   Topological Polar Surface Area    18.5
   Heavy Atom Count                  12
   Formal Charge                     0
   Complexity                        147
   Isotope Atom Count                0
   Defined Atom Stereocenter Count   0
   Undefined Atom Stereocenter Count 0
   Defined Bond Stereocenter Count   0
   Undefined Bond Stereocenter Count 0
   Covalently-Bonded Unit Count      1
   Feature 3D Acceptor Count         2
   Feature 3D Hydrophobe Count       1
   Feature 3D Ring Count             2
   Effective Rotor Count             2.6
   Conformer Sampling RMSD           0.6
   CID Conformer Count               [9]4

References

   1. http://toxnet.nlm.nih.gov/cgi-bin/sis/search/r?dbs+hsdb:@term+@rn+@rel+94-58-6
   2. http://toxnet.nlm.nih.gov/cgi-bin/sis/search/r?dbs+hsdb:@term+@rn+@rel+94-58-6
   3. http://toxnet.nlm.nih.gov/cgi-bin/sis/search/r?dbs+hsdb:@term+@rn+@rel+94-58-6
   4. http://toxnet.nlm.nih.gov/cgi-bin/sis/search/r?dbs+hsdb:@term+@rn+@rel+94-58-6
   5. http://toxnet.nlm.nih.gov/cgi-bin/sis/search/r?dbs+hsdb:@term+@rn+@rel+94-58-6
   6. http://toxnet.nlm.nih.gov/cgi-bin/sis/search/r?dbs+hsdb:@term+@rn+@rel+94-58-6
   7. http://toxnet.nlm.nih.gov/cgi-bin/sis/search/r?dbs+hsdb:@term+@rn+@rel+94-58-6
   8. http://toxnet.nlm.nih.gov/cgi-bin/sis/search/r?dbs+hsdb:@term+@rn+@rel+94-58-6
   9. http://pubchem.ncbi.nlm.nih.gov/vw3d/vw3d.cgi?cid=7197
