17396292
  -OEChem-06241222552D

 38 40  0     1  0  0  0  0  0999 V2000
    2.0000   -5.3505    0.0000 Cl  0  0  0  0  0  0  0  0  0  0  0  0
    4.8198   -0.0027    0.0000 S   0  0  0  0  0  0  0  0  0  0  0  0
    5.9954    1.6154    0.0000 O   0  0  0  0  0  0  0  0  0  0  0  0
    4.5411   -1.7627    0.0000 O   0  0  0  0  0  0  0  0  0  0  0  0
    4.5942    2.6334    0.0000 N   0  0  0  0  0  0  0  0  0  0  0  0
    3.2320   -0.8117    0.0000 N   0  0  0  0  0  0  0  0  0  0  0  0
    2.9230   -1.7627    0.0000 N   0  0  0  0  0  0  0  0  0  0  0  0
    4.7752    4.3560    0.0000 C   0  0  0  0  0  0  0  0  0  0  0  0
    4.8797    5.3505    0.0000 C   0  0  0  0  0  0  0  0  0  0  0  0
    3.9662    4.9438    0.0000 C   0  0  0  0  0  0  0  0  0  0  0  0
    5.1819    3.4425    0.0000 C   0  0  3  0  0  0  0  0  0  0  0  0
    6.1765    3.3379    0.0000 C   0  0  0  0  0  0  0  0  0  0  0  0
    5.0009    1.7199    0.0000 C   0  0  0  0  0  0  0  0  0  0  0  0
    4.4131    0.9109    0.0000 C   0  0  0  0  0  0  0  0  0  0  0  0
    4.2320   -0.8117    0.0000 C   0  0  0  0  0  0  0  0  0  0  0  0
    3.7320   -3.3505    0.0000 C   0  0  0  0  0  0  0  0  0  0  0  0
    3.7320   -2.3505    0.0000 C   0  0  0  0  0  0  0  0  0  0  0  0
    2.8660   -3.8505    0.0000 C   0  0  0  0  0  0  0  0  0  0  0  0
    4.5981   -3.8505    0.0000 C   0  0  0  0  0  0  0  0  0  0  0  0
    2.8660   -4.8505    0.0000 C   0  0  0  0  0  0  0  0  0  0  0  0
    4.5981   -4.8505    0.0000 C   0  0  0  0  0  0  0  0  0  0  0  0
    3.7320   -5.3505    0.0000 C   0  0  0  0  0  0  0  0  0  0  0  0
    4.2934    3.9658    0.0000 H   0  0  0  0  0  0  0  0  0  0  0  0
    3.6195    5.4578    0.0000 H   0  0  0  0  0  0  0  0  0  0  0  0
    3.5202    4.5131    0.0000 H   0  0  0  0  0  0  0  0  0  0  0  0
    5.4982    5.3938    0.0000 H   0  0  0  0  0  0  0  0  0  0  0  0
    4.7297    5.9521    0.0000 H   0  0  0  0  0  0  0  0  0  0  0  0
    5.4341    2.8761    0.0000 H   0  0  0  0  0  0  0  0  0  0  0  0
    6.1116    2.7213    0.0000 H   0  0  0  0  0  0  0  0  0  0  0  0
    6.7931    3.2731    0.0000 H   0  0  0  0  0  0  0  0  0  0  0  0
    6.2413    3.9545    0.0000 H   0  0  0  0  0  0  0  0  0  0  0  0
    3.9775    2.6982    0.0000 H   0  0  0  0  0  0  0  0  0  0  0  0
    3.9824    1.3569    0.0000 H   0  0  0  0  0  0  0  0  0  0  0  0
    3.8991    0.5642    0.0000 H   0  0  0  0  0  0  0  0  0  0  0  0
    2.3291   -3.5405    0.0000 H   0  0  0  0  0  0  0  0  0  0  0  0
    5.1350   -3.5405    0.0000 H   0  0  0  0  0  0  0  0  0  0  0  0
    5.1350   -5.1605    0.0000 H   0  0  0  0  0  0  0  0  0  0  0  0
    3.7320   -5.9705    0.0000 H   0  0  0  0  0  0  0  0  0  0  0  0
  1 20  1  0  0  0  0
  2 14  1  0  0  0  0
  2 15  1  0  0  0  0
  3 13  2  0  0  0  0
  4 15  1  0  0  0  0
  4 17  1  0  0  0  0
  5 11  1  0  0  0  0
  5 13  1  0  0  0  0
  5 32  1  0  0  0  0
  6  7  1  0  0  0  0
  6 15  2  0  0  0  0
  7 17  2  0  0  0  0
  8  9  1  0  0  0  0
  8 10  1  0  0  0  0
  8 11  1  0  0  0  0
  8 23  1  0  0  0  0
  9 10  1  0  0  0  0
  9 26  1  0  0  0  0
  9 27  1  0  0  0  0
 10 24  1  0  0  0  0
 10 25  1  0  0  0  0
 11 12  1  0  0  0  0
 11 28  1  0  0  0  0
 12 29  1  0  0  0  0
 12 30  1  0  0  0  0
 12 31  1  0  0  0  0
 13 14  1  0  0  0  0
 14 33  1  0  0  0  0
 14 34  1  0  0  0  0
 16 17  1  0  0  0  0
 16 18  2  0  0  0  0
 16 19  1  0  0  0  0
 18 20  1  0  0  0  0
 18 35  1  0  0  0  0
 19 21  2  0  0  0  0
 19 36  1  0  0  0  0
 20 22  2  0  0  0  0
 21 22  1  0  0  0  0
 21 37  1  0  0  0  0
 22 38  1  0  0  0  0
M  END
> <PUBCHEM_COMPOUND_CID>
17396292

> <PUBCHEM_COMPOUND_CANONICALIZED>
1

> <PUBCHEM_CACTVS_COMPLEXITY>
397

> <PUBCHEM_CACTVS_HBOND_ACCEPTOR>
5

> <PUBCHEM_CACTVS_HBOND_DONOR>
1

> <PUBCHEM_CACTVS_ROTATABLE_BOND>
6

> <PUBCHEM_CACTVS_SUBSKEYS>
AAADceBzMABEAAAAAAAAAAAAGAAAAWAAAAAwAAAAAAAAAAABwAAAHgYYAAAADSrF2iSyAILABEiqAiFyEACSAABsBRAaiKEoDtgIJrKBtxmMMQBk3gGIqYeYyCCOAAAAIAAAAAAAAABAAAAAAAAAAAAAAA==

> <PUBCHEM_IUPAC_OPENEYE_NAME>
2-[[5-(3-chlorophenyl)-1,3,4-oxadiazol-2-yl]sulfanyl]-N-(1-cyclopropylethyl)acetamide

> <PUBCHEM_IUPAC_CAS_NAME>
2-[[5-(3-chlorophenyl)-1,3,4-oxadiazol-2-yl]thio]-N-(1-cyclopropylethyl)acetamide

> <PUBCHEM_IUPAC_NAME>
2-[[5-(3-chlorophenyl)-1,3,4-oxadiazol-2-yl]sulfanyl]-N-(1-cyclopropylethyl)acetamide

> <PUBCHEM_IUPAC_SYSTEMATIC_NAME>
2-[[5-(3-chlorophenyl)-1,3,4-oxadiazol-2-yl]sulfanyl]-N-(1-cyclopropylethyl)ethanamide

> <PUBCHEM_IUPAC_TRADITIONAL_NAME>
2-[[5-(3-chlorophenyl)-1,3,4-oxadiazol-2-yl]thio]-N-(1-cyclopropylethyl)acetamide

> <PUBCHEM_IUPAC_INCHI>
InChI=1S/C15H16ClN3O2S/c1-9(10-5-6-10)17-13(20)8-22-15-19-18-14(21-15)11-3-2-4-12(16)7-11/h2-4,7,9-10H,5-6,8H2,1H3,(H,17,20)

> <PUBCHEM_IUPAC_INCHIKEY>
YQPKLKVDVACTOI-UHFFFAOYSA-N

> <PUBCHEM_XLOGP3_AA>
3.4

> <PUBCHEM_EXACT_MASS>
337.065175

> <PUBCHEM_MOLECULAR_FORMULA>
C15H16ClN3O2S

> <PUBCHEM_MOLECULAR_WEIGHT>
337.82444

> <PUBCHEM_OPENEYE_CAN_SMILES>
CC(C1CC1)NC(=O)CSC2=NN=C(O2)C3=CC(=CC=C3)Cl

> <PUBCHEM_OPENEYE_ISO_SMILES>
CC(C1CC1)NC(=O)CSC2=NN=C(O2)C3=CC(=CC=C3)Cl

> <PUBCHEM_CACTVS_TPSA>
93.3

> <PUBCHEM_MONOISOTOPIC_WEIGHT>
337.065175

> <PUBCHEM_TOTAL_CHARGE>
0

> <PUBCHEM_HEAVY_ATOM_COUNT>
22

> <PUBCHEM_ATOM_DEF_STEREO_COUNT>
0

> <PUBCHEM_ATOM_UDEF_STEREO_COUNT>
1

> <PUBCHEM_BOND_DEF_STEREO_COUNT>
0

> <PUBCHEM_BOND_UDEF_STEREO_COUNT>
0

> <PUBCHEM_ISOTOPIC_ATOM_COUNT>
0

> <PUBCHEM_COMPONENT_COUNT>
1

> <PUBCHEM_CACTVS_TAUTO_COUNT>
2

> <PUBCHEM_COORDINATE_TYPE>
1
5
255

> <PUBCHEM_BONDANNOTATIONS>
11  12  3
16  18  8
16  19  8
18  20  8
19  21  8
20  22  8
21  22  8
4  15  8
4  17  8
6  15  8
6  7  8
7  17  8

$$$$

