237654
  -OEChem-07051213062D

 39 41  0     1  0  0  0  0  0999 V2000
    8.9942    2.2568    0.0000 O   0  0  0  0  0  0  0  0  0  0  0  0
    2.8660   -2.2673    0.0000 O   0  0  0  0  0  0  0  0  0  0  0  0
    3.7320   -0.7673    0.0000 N   0  0  0  0  0  0  0  0  0  0  0  0
    4.5981    0.7327    0.0000 C   0  0  3  0  0  0  0  0  0  0  0  0
    4.5981    1.7327    0.0000 C   0  0  0  0  0  0  0  0  0  0  0  0
    5.4641    0.2327    0.0000 C   0  0  0  0  0  0  0  0  0  0  0  0
    5.4641    2.2327    0.0000 C   0  0  0  0  0  0  0  0  0  0  0  0
    6.3301    0.7327    0.0000 C   0  0  0  0  0  0  0  0  0  0  0  0
    6.3301    1.7327    0.0000 C   0  0  0  0  0  0  0  0  0  0  0  0
    3.7320    0.2327    0.0000 C   0  0  0  0  0  0  0  0  0  0  0  0
    7.2241    0.1980    0.0000 C   0  0  0  0  0  0  0  0  0  0  0  0
    7.2241    2.2673    0.0000 C   0  0  0  0  0  0  0  0  0  0  0  0
    2.8660    0.7327    0.0000 C   0  0  0  0  0  0  0  0  0  0  0  0
    8.1301    1.7535    0.0000 C   0  0  0  0  0  0  0  0  0  0  0  0
    8.1301    0.7119    0.0000 C   0  0  0  0  0  0  0  0  0  0  0  0
    2.8660   -1.2673    0.0000 C   0  0  0  0  0  0  0  0  0  0  0  0
    4.5981   -1.2673    0.0000 C   0  0  0  0  0  0  0  0  0  0  0  0
    2.0000    0.2327    0.0000 C   0  0  0  0  0  0  0  0  0  0  0  0
    2.0000   -0.7673    0.0000 C   0  0  0  0  0  0  0  0  0  0  0  0
    9.8622    1.7602    0.0000 C   0  0  0  0  0  0  0  0  0  0  0  0
    4.5981   -0.1173    0.0000 H   0  0  0  0  0  0  0  0  0  0  0  0
    4.3860    2.3153    0.0000 H   0  0  0  0  0  0  0  0  0  0  0  0
    3.9875    1.6250    0.0000 H   0  0  0  0  0  0  0  0  0  0  0  0
    5.0656   -0.2423    0.0000 H   0  0  0  0  0  0  0  0  0  0  0  0
    5.8626   -0.2423    0.0000 H   0  0  0  0  0  0  0  0  0  0  0  0
    5.8626    2.7076    0.0000 H   0  0  0  0  0  0  0  0  0  0  0  0
    5.0656    2.7076    0.0000 H   0  0  0  0  0  0  0  0  0  0  0  0
    7.2169   -0.4220    0.0000 H   0  0  0  0  0  0  0  0  0  0  0  0
    7.2169    2.8873    0.0000 H   0  0  0  0  0  0  0  0  0  0  0  0
    2.8660    1.3527    0.0000 H   0  0  0  0  0  0  0  0  0  0  0  0
    8.6659    0.3998    0.0000 H   0  0  0  0  0  0  0  0  0  0  0  0
    4.2881   -1.8043    0.0000 H   0  0  0  0  0  0  0  0  0  0  0  0
    5.1350   -1.5773    0.0000 H   0  0  0  0  0  0  0  0  0  0  0  0
    4.9081   -0.7304    0.0000 H   0  0  0  0  0  0  0  0  0  0  0  0
    1.4631    0.5427    0.0000 H   0  0  0  0  0  0  0  0  0  0  0  0
    1.4631   -1.0773    0.0000 H   0  0  0  0  0  0  0  0  0  0  0  0
    9.5542    1.2220    0.0000 H   0  0  0  0  0  0  0  0  0  0  0  0
   10.4003    1.4522    0.0000 H   0  0  0  0  0  0  0  0  0  0  0  0
   10.1701    2.2983    0.0000 H   0  0  0  0  0  0  0  0  0  0  0  0
  1 14  1  0  0  0  0
  1 20  1  0  0  0  0
  2 16  2  0  0  0  0
  3 10  1  0  0  0  0
  3 16  1  0  0  0  0
  3 17  1  0  0  0  0
  4  5  1  0  0  0  0
  4  6  1  0  0  0  0
  4 10  1  0  0  0  0
  4 21  1  0  0  0  0
  5  7  1  0  0  0  0
  5 22  1  0  0  0  0
  5 23  1  0  0  0  0
  6  8  1  0  0  0  0
  6 24  1  0  0  0  0
  6 25  1  0  0  0  0
  7  9  1  0  0  0  0
  7 26  1  0  0  0  0
  7 27  1  0  0  0  0
  8  9  2  0  0  0  0
  8 11  1  0  0  0  0
  9 12  1  0  0  0  0
 10 13  2  0  0  0  0
 11 15  2  0  0  0  0
 11 28  1  0  0  0  0
 12 14  2  0  0  0  0
 12 29  1  0  0  0  0
 13 18  1  0  0  0  0
 13 30  1  0  0  0  0
 14 15  1  0  0  0  0
 15 31  1  0  0  0  0
 16 19  1  0  0  0  0
 17 32  1  0  0  0  0
 17 33  1  0  0  0  0
 17 34  1  0  0  0  0
 18 19  2  0  0  0  0
 18 35  1  0  0  0  0
 19 36  1  0  0  0  0
 20 37  1  0  0  0  0
 20 38  1  0  0  0  0
 20 39  1  0  0  0  0
M  END
> <PUBCHEM_COMPOUND_CID>
237654

> <PUBCHEM_COMPOUND_CANONICALIZED>
1

> <PUBCHEM_CACTVS_COMPLEXITY>
440

> <PUBCHEM_CACTVS_HBOND_ACCEPTOR>
2

> <PUBCHEM_CACTVS_HBOND_DONOR>
0

> <PUBCHEM_CACTVS_ROTATABLE_BOND>
2

> <PUBCHEM_CACTVS_SUBSKEYS>
AAADceB6MAAAAAAAAAAAAAAAAAAAAAAAAAAwYIAAAAAAAADBAAAAHgAAAAAADQyBmAYyBoMABACIAiVSUACCCAAgIgAIiAAOCMgMJiKEsRqEMCAkxhGIqYeQwPAOoAABAAAQAADAAAYAACAAAAAAAAAAAA==

> <PUBCHEM_IUPAC_OPENEYE_NAME>
6-(6-methoxytetralin-2-yl)-1-methyl-pyridin-2-one

> <PUBCHEM_IUPAC_CAS_NAME>
6-(6-methoxy-1,2,3,4-tetrahydronaphthalen-2-yl)-1-methyl-2-pyridinone

> <PUBCHEM_IUPAC_NAME>
6-(6-methoxy-1,2,3,4-tetrahydronaphthalen-2-yl)-1-methylpyridin-2-one

> <PUBCHEM_IUPAC_SYSTEMATIC_NAME>
6-(6-methoxy-1,2,3,4-tetrahydronaphthalen-2-yl)-1-methyl-pyridin-2-one

> <PUBCHEM_IUPAC_TRADITIONAL_NAME>
6-(6-methoxytetralin-2-yl)-1-methyl-2-pyridone

> <PUBCHEM_IUPAC_INCHI>
InChI=1S/C17H19NO2/c1-18-16(4-3-5-17(18)19)14-7-6-13-11-15(20-2)9-8-12(13)10-14/h3-5,8-9,11,14H,6-7,10H2,1-2H3

> <PUBCHEM_IUPAC_INCHIKEY>
ACFSRZSOLKNILS-UHFFFAOYSA-N

> <PUBCHEM_XLOGP3_AA>
2.8

> <PUBCHEM_EXACT_MASS>
269.141579

> <PUBCHEM_MOLECULAR_FORMULA>
C17H19NO2

> <PUBCHEM_MOLECULAR_WEIGHT>
269.33826

> <PUBCHEM_OPENEYE_CAN_SMILES>
CN1C(=O)C=CC=C1C2CCC3=C(C2)C=CC(=C3)OC

> <PUBCHEM_OPENEYE_ISO_SMILES>
CN1C(=O)C=CC=C1C2CCC3=C(C2)C=CC(=C3)OC

> <PUBCHEM_CACTVS_TPSA>
29.5

> <PUBCHEM_MONOISOTOPIC_WEIGHT>
269.141579

> <PUBCHEM_TOTAL_CHARGE>
0

> <PUBCHEM_HEAVY_ATOM_COUNT>
20

> <PUBCHEM_ATOM_DEF_STEREO_COUNT>
0

> <PUBCHEM_ATOM_UDEF_STEREO_COUNT>
1

> <PUBCHEM_BOND_DEF_STEREO_COUNT>
0

> <PUBCHEM_BOND_UDEF_STEREO_COUNT>
0

> <PUBCHEM_ISOTOPIC_ATOM_COUNT>
0

> <PUBCHEM_COMPONENT_COUNT>
1

> <PUBCHEM_CACTVS_TAUTO_COUNT>
3

> <PUBCHEM_COORDINATE_TYPE>
1
5
255

> <PUBCHEM_BONDANNOTATIONS>
10  13  8
11  15  8
12  14  8
13  18  8
14  15  8
16  19  8
18  19  8
3  10  8
3  16  8
4  21  3
8  11  8
8  9  8
9  12  8

$$$$

