157394
  -OEChem-07051213102D

 60 64  0     1  0  0  0  0  0999 V2000
   13.1870    0.8309    0.0000 Br  0  0  0  0  0  0  0  0  0  0  0  0
    5.4196    4.1092    0.0000 Br  0  0  0  0  0  0  0  0  0  0  0  0
   10.1791   -1.5790    0.0000 O   0  0  0  0  0  0  0  0  0  0  0  0
    9.4462    2.5570    0.0000 O   0  0  0  0  0  0  0  0  0  0  0  0
    9.0201   -0.2918    0.0000 N   0  0  0  0  0  0  0  0  0  0  0  0
    8.1591    1.3980    0.0000 N   0  0  0  0  0  0  0  0  0  0  0  0
    4.2208   -0.4937    0.0000 N   0  0  0  0  0  0  0  0  0  0  0  0
    5.1748   -2.3660    0.0000 N   0  0  0  0  0  0  0  0  0  0  0  0
    3.7208    1.0452    0.0000 N   0  0  0  0  0  0  0  0  0  0  0  0
    6.1259   -3.6750    0.0000 N   0  0  0  0  0  0  0  0  0  0  0  0
    2.4608   -0.2149    0.0000 N   0  0  0  0  0  0  0  0  0  0  0  0
    4.3658   -3.9538    0.0000 N   0  0  0  0  0  0  0  0  0  0  0  0
   10.6098    1.0628    0.0000 N   0  0  0  0  0  0  0  0  0  0  0  0
    8.0069    4.0704    0.0000 N   0  0  0  0  0  0  0  0  0  0  0  0
    7.3259   -0.6519    0.0000 C   0  0  2  0  0  0  0  0  0  0  0  0
    6.8719    0.2391    0.0000 C   0  0  2  0  0  0  0  0  0  0  0  0
    5.9809   -0.2149    0.0000 C   0  0  1  0  0  0  0  0  0  0  0  0
    6.4349   -1.1059    0.0000 C   0  0  1  0  0  0  0  0  0  0  0  0
    8.2770   -0.9610    0.0000 C   0  0  0  0  0  0  0  0  0  0  0  0
    7.1809    1.1901    0.0000 C   0  0  0  0  0  0  0  0  0  0  0  0
    5.0298    0.0941    0.0000 C   0  0  0  0  0  0  0  0  0  0  0  0
    6.1259   -2.0570    0.0000 C   0  0  0  0  0  0  0  0  0  0  0  0
    4.7208    1.0452    0.0000 C   0  0  0  0  0  0  0  0  0  0  0  0
    6.7137   -2.8660    0.0000 C   0  0  0  0  0  0  0  0  0  0  0  0
    3.4118    0.0941    0.0000 C   0  0  0  0  0  0  0  0  0  0  0  0
    5.1748   -3.3660    0.0000 C   0  0  0  0  0  0  0  0  0  0  0  0
    9.9712   -0.6008    0.0000 C   0  0  0  0  0  0  0  0  0  0  0  0
    8.4681    2.3491    0.0000 C   0  0  0  0  0  0  0  0  0  0  0  0
   10.7143    0.0683    0.0000 C   0  0  0  0  0  0  0  0  0  0  0  0
    7.7990    3.0922    0.0000 C   0  0  0  0  0  0  0  0  0  0  0  0
   11.6924   -0.1396    0.0000 C   0  0  0  0  0  0  0  0  0  0  0  0
    6.8044    2.9877    0.0000 C   0  0  0  0  0  0  0  0  0  0  0  0
   12.1924    0.7264    0.0000 C   0  0  0  0  0  0  0  0  0  0  0  0
   11.5233    1.4696    0.0000 C   0  0  0  0  0  0  0  0  0  0  0  0
    6.3977    3.9013    0.0000 C   0  0  0  0  0  0  0  0  0  0  0  0
    7.1408    4.5704    0.0000 C   0  0  0  0  0  0  0  0  0  0  0  0
    7.7286   -0.1805    0.0000 H   0  0  0  0  0  0  0  0  0  0  0  0
    7.4900    0.2877    0.0000 H   0  0  0  0  0  0  0  0  0  0  0  0
    5.5782   -0.6864    0.0000 H   0  0  0  0  0  0  0  0  0  0  0  0
    6.9063   -1.5086    0.0000 H   0  0  0  0  0  0  0  0  0  0  0  0
    7.9859   -1.5084    0.0000 H   0  0  0  0  0  0  0  0  0  0  0  0
    8.7655   -1.3427    0.0000 H   0  0  0  0  0  0  0  0  0  0  0  0
    7.1593    1.8098    0.0000 H   0  0  0  0  0  0  0  0  0  0  0  0
    6.5670    1.2764    0.0000 H   0  0  0  0  0  0  0  0  0  0  0  0
    8.8912    0.3146    0.0000 H   0  0  0  0  0  0  0  0  0  0  0  0
    8.5739    0.9373    0.0000 H   0  0  0  0  0  0  0  0  0  0  0  0
    4.2208   -1.1137    0.0000 H   0  0  0  0  0  0  0  0  0  0  0  0
    4.6732   -2.0016    0.0000 H   0  0  0  0  0  0  0  0  0  0  0  0
    5.0852    1.5467    0.0000 H   0  0  0  0  0  0  0  0  0  0  0  0
    7.3337   -2.8660    0.0000 H   0  0  0  0  0  0  0  0  0  0  0  0
    2.0000    0.1999    0.0000 H   0  0  0  0  0  0  0  0  0  0  0  0
    2.3318   -0.8214    0.0000 H   0  0  0  0  0  0  0  0  0  0  0  0
    4.4306   -4.5704    0.0000 H   0  0  0  0  0  0  0  0  0  0  0  0
    3.7994   -3.7016    0.0000 H   0  0  0  0  0  0  0  0  0  0  0  0
   10.0728    1.3728    0.0000 H   0  0  0  0  0  0  0  0  0  0  0  0
   11.9446   -0.7060    0.0000 H   0  0  0  0  0  0  0  0  0  0  0  0
    8.5733    4.3226    0.0000 H   0  0  0  0  0  0  0  0  0  0  0  0
    6.4944    2.4508    0.0000 H   0  0  0  0  0  0  0  0  0  0  0  0
   11.6522    2.0760    0.0000 H   0  0  0  0  0  0  0  0  0  0  0  0
    7.0760    5.1870    0.0000 H   0  0  0  0  0  0  0  0  0  0  0  0
  1 33  1  0  0  0  0
  2 35  1  0  0  0  0
  3 27  2  0  0  0  0
  4 28  2  0  0  0  0
  5 19  1  0  0  0  0
  5 27  1  0  0  0  0
  5 45  1  0  0  0  0
  6 20  1  0  0  0  0
  6 28  1  0  0  0  0
  6 46  1  0  0  0  0
  7 21  1  0  0  0  0
  7 25  1  0  0  0  0
  7 47  1  0  0  0  0
  8 22  1  0  0  0  0
  8 26  1  0  0  0  0
  8 48  1  0  0  0  0
  9 23  1  0  0  0  0
  9 25  2  0  0  0  0
 10 24  1  0  0  0  0
 10 26  2  0  0  0  0
 11 25  1  0  0  0  0
 11 51  1  0  0  0  0
 11 52  1  0  0  0  0
 12 26  1  0  0  0  0
 12 53  1  0  0  0  0
 12 54  1  0  0  0  0
 13 29  1  0  0  0  0
 13 34  1  0  0  0  0
 13 55  1  0  0  0  0
 14 30  1  0  0  0  0
 14 36  1  0  0  0  0
 14 57  1  0  0  0  0
 15 16  1  0  0  0  0
 15 18  1  0  0  0  0
 15 19  1  1  0  0  0
 15 37  1  0  0  0  0
 16 17  1  0  0  0  0
 16 20  1  6  0  0  0
 16 38  1  0  0  0  0
 17 18  1  0  0  0  0
 17 21  1  1  0  0  0
 17 39  1  0  0  0  0
 18 22  1  6  0  0  0
 18 40  1  0  0  0  0
 19 41  1  0  0  0  0
 19 42  1  0  0  0  0
 20 43  1  0  0  0  0
 20 44  1  0  0  0  0
 21 23  2  0  0  0  0
 22 24  2  0  0  0  0
 23 49  1  0  0  0  0
 24 50  1  0  0  0  0
 27 29  1  0  0  0  0
 28 30  1  0  0  0  0
 29 31  2  0  0  0  0
 30 32  2  0  0  0  0
 31 33  1  0  0  0  0
 31 56  1  0  0  0  0
 32 35  1  0  0  0  0
 32 58  1  0  0  0  0
 33 34  2  0  0  0  0
 34 59  1  0  0  0  0
 35 36  2  0  0  0  0
 36 60  1  0  0  0  0
M  END
> <PUBCHEM_COMPOUND_CID>
157394

> <PUBCHEM_COMPOUND_CANONICALIZED>
1

> <PUBCHEM_CACTVS_COMPLEXITY>
747

> <PUBCHEM_CACTVS_HBOND_ACCEPTOR>
6

> <PUBCHEM_CACTVS_HBOND_DONOR>
8

> <PUBCHEM_CACTVS_ROTATABLE_BOND>
8

> <PUBCHEM_CACTVS_SUBSKEYS>
AAADceB78AAAGAAAAAAAAAAAAABgAWLFiwAAAAAAAAAAAAAB/gAAHgBQAAABrQjBlgQ9kJbJkACoATV3dACCgC23EqQB2aG4dPiIaPLAnbGUAQholgLIy6cYgYAOgAAAAAAAAAAAAAAAAAAAAAAAAAAAAA==

> <PUBCHEM_IUPAC_OPENEYE_NAME>
N-[[(1R,2S,3S,4R)-2,3-bis(2-amino-1H-imidazol-5-yl)-4-[[(4-bromo-1H-pyrrole-2-carbonyl)amino]methyl]cyclobutyl]methyl]-4-bromo-1H-pyrrole-2-carboxamide

> <PUBCHEM_IUPAC_CAS_NAME>
N-[[(1R,2S,3S,4R)-2,3-bis(2-amino-1H-imidazol-5-yl)-4-[[[(4-bromo-1H-pyrrol-2-yl)-oxomethyl]amino]methyl]cyclobutyl]methyl]-4-bromo-1H-pyrrole-2-carboxamide

> <PUBCHEM_IUPAC_NAME>
N-[[(1R,2S,3S,4R)-2,3-bis(2-amino-1H-imidazol-5-yl)-4-[[(4-bromo-1H-pyrrole-2-carbonyl)amino]methyl]cyclobutyl]methyl]-4-bromo-1H-pyrrole-2-carboxamide

> <PUBCHEM_IUPAC_SYSTEMATIC_NAME>
N-[[(1R,2S,3S,4R)-2,3-bis(2-azanyl-1H-imidazol-5-yl)-4-[[(4-bromanyl-1H-pyrrol-2-yl)carbonylamino]methyl]cyclobutyl]methyl]-4-bromanyl-1H-pyrrole-2-carboxamide

> <PUBCHEM_IUPAC_TRADITIONAL_NAME>
N-[[(1R,2S,3S,4R)-2,3-bis(2-amino-1H-imidazol-5-yl)-4-[[(4-bromo-1H-pyrrole-2-carbonyl)amino]methyl]cyclobutyl]methyl]-4-bromo-1H-pyrrole-2-carboxamide

> <PUBCHEM_IUPAC_INCHI>
InChI=1S/C22H24Br2N10O2/c23-9-1-13(27-3-9)19(35)29-5-11-12(6-30-20(36)14-2-10(24)4-28-14)18(16-8-32-22(26)34-16)17(11)15-7-31-21(25)33-15/h1-4,7-8,11-12,17-18,27-28H,5-6H2,(H,29,35)(H,30,36)(H3,25,31,33)(H3,26,32,34)/t11-,12-,17-,18-/m1/s1

> <PUBCHEM_IUPAC_INCHIKEY>
YPZNLFZLPZWWAD-GWIYSAMLSA-N

> <PUBCHEM_XLOGP3_AA>
1.2

> <PUBCHEM_EXACT_MASS>
620.042998

> <PUBCHEM_MOLECULAR_FORMULA>
C22H24Br2N10O2

> <PUBCHEM_MOLECULAR_WEIGHT>
620.29976

> <PUBCHEM_OPENEYE_CAN_SMILES>
C1=C(NC=C1Br)C(=O)NCC2C(C(C2C3=CN=C(N3)N)C4=CN=C(N4)N)CNC(=O)C5=CC(=CN5)Br

> <PUBCHEM_OPENEYE_ISO_SMILES>
C1=C(NC=C1Br)C(=O)NC[C@@H]2[C@H]([C@@H]([C@H]2C3=CN=C(N3)N)C4=CN=C(N4)N)CNC(=O)C5=CC(=CN5)Br

> <PUBCHEM_CACTVS_TPSA>
199

> <PUBCHEM_MONOISOTOPIC_WEIGHT>
618.045044

> <PUBCHEM_TOTAL_CHARGE>
0

> <PUBCHEM_HEAVY_ATOM_COUNT>
36

> <PUBCHEM_ATOM_DEF_STEREO_COUNT>
4

> <PUBCHEM_ATOM_UDEF_STEREO_COUNT>
0

> <PUBCHEM_BOND_DEF_STEREO_COUNT>
0

> <PUBCHEM_BOND_UDEF_STEREO_COUNT>
0

> <PUBCHEM_ISOTOPIC_ATOM_COUNT>
0

> <PUBCHEM_COMPONENT_COUNT>
1

> <PUBCHEM_CACTVS_TAUTO_COUNT>
231

> <PUBCHEM_COORDINATE_TYPE>
1
5
255

> <PUBCHEM_BONDANNOTATIONS>
10  24  8
10  26  8
13  29  8
13  34  8
14  30  8
14  36  8
15  19  5
16  20  6
17  21  5
18  22  6
21  23  8
22  24  8
29  31  8
30  32  8
31  33  8
32  35  8
33  34  8
35  36  8
7  21  8
7  25  8
8  22  8
8  26  8
9  23  8
9  25  8

$$$$

