10630
  -OEChem-06261204462D

 22 22  0     0  0  0  0  0  0999 V2000
    3.2601    1.0194    0.0000 O   0  0  0  0  0  0  0  0  0  0  0  0
    5.5202   -0.2407    0.0000 O   0  0  0  0  0  0  0  0  0  0  0  0
    2.0000   -0.2407    0.0000 O   0  0  0  0  0  0  0  0  0  0  0  0
    3.7601   -0.5194    0.0000 N   0  0  0  0  0  0  0  0  0  0  0  0
    4.2601    1.0194    0.0000 C   0  0  0  0  0  0  0  0  0  0  0  0
    4.5691    0.0684    0.0000 C   0  0  0  0  0  0  0  0  0  0  0  0
    5.2111    1.3284    0.0000 C   0  0  0  0  0  0  0  0  0  0  0  0
    4.2601    2.0194    0.0000 C   0  0  0  0  0  0  0  0  0  0  0  0
    3.7601   -1.5194    0.0000 C   0  0  0  0  0  0  0  0  0  0  0  0
    2.9511    0.0684    0.0000 C   0  0  0  0  0  0  0  0  0  0  0  0
    2.8940   -2.0194    0.0000 C   0  0  0  0  0  0  0  0  0  0  0  0
    5.4027    0.7388    0.0000 H   0  0  0  0  0  0  0  0  0  0  0  0
    5.8008    1.5200    0.0000 H   0  0  0  0  0  0  0  0  0  0  0  0
    5.0195    1.9181    0.0000 H   0  0  0  0  0  0  0  0  0  0  0  0
    4.8801    2.0194    0.0000 H   0  0  0  0  0  0  0  0  0  0  0  0
    4.2601    2.6394    0.0000 H   0  0  0  0  0  0  0  0  0  0  0  0
    3.6401    2.0194    0.0000 H   0  0  0  0  0  0  0  0  0  0  0  0
    3.9721   -2.1020    0.0000 H   0  0  0  0  0  0  0  0  0  0  0  0
    4.3707   -1.4118    0.0000 H   0  0  0  0  0  0  0  0  0  0  0  0
    2.5840   -1.4825    0.0000 H   0  0  0  0  0  0  0  0  0  0  0  0
    2.3571   -2.3294    0.0000 H   0  0  0  0  0  0  0  0  0  0  0  0
    3.2040   -2.5564    0.0000 H   0  0  0  0  0  0  0  0  0  0  0  0
  1  5  1  0  0  0  0
  1 10  1  0  0  0  0
  2  6  2  0  0  0  0
  3 10  2  0  0  0  0
  4  6  1  0  0  0  0
  4  9  1  0  0  0  0
  4 10  1  0  0  0  0
  5  6  1  0  0  0  0
  5  7  1  0  0  0  0
  5  8  1  0  0  0  0
  7 12  1  0  0  0  0
  7 13  1  0  0  0  0
  7 14  1  0  0  0  0
  8 15  1  0  0  0  0
  8 16  1  0  0  0  0
  8 17  1  0  0  0  0
  9 11  1  0  0  0  0
  9 18  1  0  0  0  0
  9 19  1  0  0  0  0
 11 20  1  0  0  0  0
 11 21  1  0  0  0  0
 11 22  1  0  0  0  0
M  END
> <PUBCHEM_COMPOUND_CID>
10630

> <PUBCHEM_COMPOUND_CANONICALIZED>
1

> <PUBCHEM_CACTVS_COMPLEXITY>
210

> <PUBCHEM_CACTVS_HBOND_ACCEPTOR>
3

> <PUBCHEM_CACTVS_HBOND_DONOR>
0

> <PUBCHEM_CACTVS_ROTATABLE_BOND>
1

> <PUBCHEM_CACTVS_SUBSKEYS>
AAADccBiMAAAAAAAAAAAAAAAAAAAAWAAAAAAAAAAAAAAAAAAAAAAHgAAAAAADETBgAQCCAMABAAIAAEQGAIAAAAAAAAAAAFIAAACAAAAAAQNAAAABiCQAAAAAAAAAAAAAAAAAAAAAAAAAAAAAAAAAAAAAA==

> <PUBCHEM_IUPAC_OPENEYE_NAME>
3-ethyl-5,5-dimethyl-oxazolidine-2,4-dione

> <PUBCHEM_IUPAC_CAS_NAME>
3-ethyl-5,5-dimethyloxazolidine-2,4-dione

> <PUBCHEM_IUPAC_NAME>
3-ethyl-5,5-dimethyl-1,3-oxazolidine-2,4-dione

> <PUBCHEM_IUPAC_SYSTEMATIC_NAME>
3-ethyl-5,5-dimethyl-1,3-oxazolidine-2,4-dione

> <PUBCHEM_IUPAC_TRADITIONAL_NAME>
3-ethyl-5,5-dimethyl-oxazolidine-2,4-quinone

> <PUBCHEM_IUPAC_INCHI>
InChI=1S/C7H11NO3/c1-4-8-5(9)7(2,3)11-6(8)10/h4H2,1-3H3

> <PUBCHEM_IUPAC_INCHIKEY>
SIGSNYAYBSJATD-UHFFFAOYSA-N

> <PUBCHEM_XLOGP3_AA>
0.7

> <PUBCHEM_EXACT_MASS>
157.073893

> <PUBCHEM_MOLECULAR_FORMULA>
C7H11NO3

> <PUBCHEM_MOLECULAR_WEIGHT>
157.16714

> <PUBCHEM_OPENEYE_CAN_SMILES>
CCN1C(=O)C(OC1=O)(C)C

> <PUBCHEM_OPENEYE_ISO_SMILES>
CCN1C(=O)C(OC1=O)(C)C

> <PUBCHEM_CACTVS_TPSA>
46.6

> <PUBCHEM_MONOISOTOPIC_WEIGHT>
157.073893

> <PUBCHEM_TOTAL_CHARGE>
0

> <PUBCHEM_HEAVY_ATOM_COUNT>
11

> <PUBCHEM_ATOM_DEF_STEREO_COUNT>
0

> <PUBCHEM_ATOM_UDEF_STEREO_COUNT>
0

> <PUBCHEM_BOND_DEF_STEREO_COUNT>
0

> <PUBCHEM_BOND_UDEF_STEREO_COUNT>
0

> <PUBCHEM_ISOTOPIC_ATOM_COUNT>
0

> <PUBCHEM_COMPONENT_COUNT>
1

> <PUBCHEM_CACTVS_TAUTO_COUNT>
1

> <PUBCHEM_COORDINATE_TYPE>
1
5
255

$$$$

