442473
  -OEChem-07051212582D

 41 44  0     1  0  0  0  0  0999 V2000
    2.0000   -0.3799    0.0000 O   0  0  0  0  0  0  0  0  0  0  0  0
    5.7007    1.1828    0.0000 N   0  0  3  0  0  0  0  0  0  0  0  0
    4.5772   -0.2260    0.0000 C   0  0  1  0  0  0  0  0  0  0  0  0
    4.4413   -1.2107    0.0000 C   0  0  2  0  0  0  0  0  0  0  0  0
    3.6763    0.2079    0.0000 C   0  0  1  0  0  0  0  0  0  0  0  0
    5.4782    0.2079    0.0000 C   0  0  0  0  0  0  0  0  0  0  0  0
    4.4534    0.1974    0.0000 C   0  0  0  0  0  0  0  0  0  0  0  0
    3.4630   -1.3874    0.0000 C   0  0  0  0  0  0  0  0  0  0  0  0
    5.2511   -1.7801    0.0000 C   0  0  0  0  0  0  0  0  0  0  0  0
    2.9912   -0.5124    0.0000 C   0  0  0  0  0  0  0  0  0  0  0  0
    3.4538    1.1828    0.0000 C   0  0  0  0  0  0  0  0  0  0  0  0
    6.1541   -1.3745    0.0000 C   0  0  2  0  0  0  0  0  0  0  0  0
    4.4892    0.9966    0.0000 C   0  0  0  0  0  0  0  0  0  0  0  0
    6.2665   -0.3910    0.0000 C   0  0  0  0  0  0  0  0  0  0  0  0
    5.2604    1.2094    0.0000 C   0  0  0  0  0  0  0  0  0  0  0  0
    4.0772    1.9646    0.0000 C   0  0  0  0  0  0  0  0  0  0  0  0
    5.0772    1.9646    0.0000 C   0  0  0  0  0  0  0  0  0  0  0  0
    6.9615   -1.9646    0.0000 C   0  0  0  0  0  0  0  0  0  0  0  0
    4.2582   -2.0408    0.0000 H   0  0  0  0  0  0  0  0  0  0  0  0
    2.9105    0.5767    0.0000 H   0  0  0  0  0  0  0  0  0  0  0  0
    3.8974    0.4718    0.0000 H   0  0  0  0  0  0  0  0  0  0  0  0
    5.0689    0.2715    0.0000 H   0  0  0  0  0  0  0  0  0  0  0  0
    2.8894   -1.6227    0.0000 H   0  0  0  0  0  0  0  0  0  0  0  0
    3.6367   -1.9826    0.0000 H   0  0  0  0  0  0  0  0  0  0  0  0
    4.8101   -2.2159    0.0000 H   0  0  0  0  0  0  0  0  0  0  0  0
    5.6016   -2.2915    0.0000 H   0  0  0  0  0  0  0  0  0  0  0  0
    3.0672    1.6675    0.0000 H   0  0  0  0  0  0  0  0  0  0  0  0
    2.8952    0.9138    0.0000 H   0  0  0  0  0  0  0  0  0  0  0  0
    6.7220   -1.1257    0.0000 H   0  0  0  0  0  0  0  0  0  0  0  0
    4.3877    1.6082    0.0000 H   0  0  0  0  0  0  0  0  0  0  0  0
    3.8704    0.9595    0.0000 H   0  0  0  0  0  0  0  0  0  0  0  0
    6.8367   -0.1474    0.0000 H   0  0  0  0  0  0  0  0  0  0  0  0
    5.5434    1.7610    0.0000 H   0  0  0  0  0  0  0  0  0  0  0  0
    5.3251    0.5928    0.0000 H   0  0  0  0  0  0  0  0  0  0  0  0
    4.2152    2.5691    0.0000 H   0  0  0  0  0  0  0  0  0  0  0  0
    3.5186    2.2336    0.0000 H   0  0  0  0  0  0  0  0  0  0  0  0
    5.6358    2.2336    0.0000 H   0  0  0  0  0  0  0  0  0  0  0  0
    4.9393    2.5691    0.0000 H   0  0  0  0  0  0  0  0  0  0  0  0
    6.5956   -2.4652    0.0000 H   0  0  0  0  0  0  0  0  0  0  0  0
    7.4620   -2.3305    0.0000 H   0  0  0  0  0  0  0  0  0  0  0  0
    7.3273   -1.4641    0.0000 H   0  0  0  0  0  0  0  0  0  0  0  0
  1 10  2  0  0  0  0
  2  6  1  0  0  0  0
  2 15  1  0  0  0  0
  2 17  1  0  0  0  0
  3  4  1  0  0  0  0
  3  5  1  0  0  0  0
  3  6  1  0  0  0  0
  3  7  1  6  0  0  0
  4  8  1  0  0  0  0
  4  9  1  0  0  0  0
  4 19  1  6  0  0  0
  5 10  1  0  0  0  0
  5 11  1  0  0  0  0
  5 20  1  6  0  0  0
  6 14  2  0  0  0  0
  7 13  1  0  0  0  0
  7 21  1  0  0  0  0
  7 22  1  0  0  0  0
  8 10  1  0  0  0  0
  8 23  1  0  0  0  0
  8 24  1  0  0  0  0
  9 12  1  0  0  0  0
  9 25  1  0  0  0  0
  9 26  1  0  0  0  0
 11 16  1  0  0  0  0
 11 27  1  0  0  0  0
 11 28  1  0  0  0  0
 12 14  1  0  0  0  0
 12 18  1  6  0  0  0
 12 29  1  0  0  0  0
 13 15  1  0  0  0  0
 13 30  1  0  0  0  0
 13 31  1  0  0  0  0
 14 32  1  0  0  0  0
 15 33  1  0  0  0  0
 15 34  1  0  0  0  0
 16 17  1  0  0  0  0
 16 35  1  0  0  0  0
 16 36  1  0  0  0  0
 17 37  1  0  0  0  0
 17 38  1  0  0  0  0
 18 39  1  0  0  0  0
 18 40  1  0  0  0  0
 18 41  1  0  0  0  0
M  END
> <PUBCHEM_COMPOUND_CID>
442473

> <PUBCHEM_COMPOUND_CANONICALIZED>
1

> <PUBCHEM_CACTVS_COMPLEXITY>
427

> <PUBCHEM_CACTVS_HBOND_ACCEPTOR>
2

> <PUBCHEM_CACTVS_HBOND_DONOR>
0

> <PUBCHEM_CACTVS_ROTATABLE_BOND>
0

> <PUBCHEM_CACTVS_SUBSKEYS>
AAADceB6IAAAAAAAAAAAAAAAAAAAAYAAAAAsQAAABYAAAFiwAAAAHgAAAAAADwzBgAQCAAMAAACIAKRSQAAAAAAgAgAACAEIAAgAABIAgAAEAAAAgACIAAMcicCPgAAAAAAAAAAAAAAAAAAAAQAACAAAAA==

> <PUBCHEM_IUPAC_INCHI>
InChI=1S/C16H23NO/c1-11-8-12-10-14(18)13-4-2-6-17-7-3-5-16(12,13)15(17)9-11/h9,11-13H,2-8,10H2,1H3/t11-,12+,13-,16+/m1/s1

> <PUBCHEM_IUPAC_INCHIKEY>
ANHVSCXCALAIQN-IATRGZMQSA-N

> <PUBCHEM_XLOGP3_AA>
2.6

> <PUBCHEM_EXACT_MASS>
245.177964

> <PUBCHEM_MOLECULAR_FORMULA>
C16H23NO

> <PUBCHEM_MOLECULAR_WEIGHT>
245.35992

> <PUBCHEM_OPENEYE_CAN_SMILES>
CC1CC2CC(=O)C3C24CCCN(C4=C1)CCC3

> <PUBCHEM_OPENEYE_ISO_SMILES>
C[C@@H]1C[C@H]2CC(=O)[C@@H]3[C@]24CCCN(C4=C1)CCC3

> <PUBCHEM_CACTVS_TPSA>
20.3

> <PUBCHEM_MONOISOTOPIC_WEIGHT>
245.177964

> <PUBCHEM_TOTAL_CHARGE>
0

> <PUBCHEM_HEAVY_ATOM_COUNT>
18

> <PUBCHEM_ATOM_DEF_STEREO_COUNT>
4

> <PUBCHEM_ATOM_UDEF_STEREO_COUNT>
0

> <PUBCHEM_BOND_DEF_STEREO_COUNT>
0

> <PUBCHEM_BOND_UDEF_STEREO_COUNT>
0

> <PUBCHEM_ISOTOPIC_ATOM_COUNT>
0

> <PUBCHEM_COMPONENT_COUNT>
1

> <PUBCHEM_CACTVS_TAUTO_COUNT>
2

> <PUBCHEM_COORDINATE_TYPE>
1
5
255

> <PUBCHEM_BONDANNOTATIONS>
12  18  6
3  7  6
4  19  6
5  20  6

$$$$

