   Color/Form

     * PALE BUFF, CRYSTALLINE POWDER
     * WHITE TO SLIGHTLY YELLOW, CRYSTALLINE POWDER

   from [1]HSDB

   Odor
        ODORLESS
   from [2]HSDB

   Melting Point
        229-230 DEG C
   from [3]HSDB

   Dissociation Constants
        PKA 8.6
   from [4]HSDB

   Octanol/Water Partition Coefficient
        log Kow= 1.41
   from [5]HSDB

   Solubilities

     * Soly at 23 deg C (mg/ml): chloroform 35; toluene 1.6; methanol 1.3;
       ethanol 0.6; water 0.1; ether 0.1.
     * PRACTICALLY INSOL IN WATER; SOL IN SOLN OF CARBONATES

   from [6]HSDB

   Spectral Properties
        MAX ABSORPTION: 333 NM (A= 1138, 1%, 1 CM)
   from [7]HSDB

   Computed Properties
   Molecular Weight                  232.23528 [g/mol]
   Molecular Formula                 C[12]H[12]N[2]O[3]
   XLogP3                            1.4
   H-Bond Donor                      1
   H-Bond Acceptor                   5
   Rotatable Bond Count              2
   Tautomer Count                    5
   Exact Mass                        232.084792
   MonoIsotopic Mass                 232.084792
   Topological Polar Surface Area    70.5
   Heavy Atom Count                  17
   Formal Charge                     0
   Complexity                        378
   Isotope Atom Count                0
   Defined Atom Stereocenter Count   0
   Undefined Atom Stereocenter Count 0
   Defined Bond Stereocenter Count   0
   Undefined Bond Stereocenter Count 0
   Covalently-Bonded Unit Count      1
   Feature 3D Acceptor Count         4
   Feature 3D Anion Count            2
   Feature 3D Cation Count           1
   Feature 3D Ring Count             2
   Effective Rotor Count             2
   Conformer Sampling RMSD           0.6
   CID Conformer Count               [8]2

References

   1. http://toxnet.nlm.nih.gov/cgi-bin/sis/search/r?dbs+hsdb:@term+@rn+@rel+389-08-2
   2. http://toxnet.nlm.nih.gov/cgi-bin/sis/search/r?dbs+hsdb:@term+@rn+@rel+389-08-2
   3. http://toxnet.nlm.nih.gov/cgi-bin/sis/search/r?dbs+hsdb:@term+@rn+@rel+389-08-2
   4. http://toxnet.nlm.nih.gov/cgi-bin/sis/search/r?dbs+hsdb:@term+@rn+@rel+389-08-2
   5. http://toxnet.nlm.nih.gov/cgi-bin/sis/search/r?dbs+hsdb:@term+@rn+@rel+389-08-2
   6. http://toxnet.nlm.nih.gov/cgi-bin/sis/search/r?dbs+hsdb:@term+@rn+@rel+389-08-2
   7. http://toxnet.nlm.nih.gov/cgi-bin/sis/search/r?dbs+hsdb:@term+@rn+@rel+389-08-2
   8. http://pubchem.ncbi.nlm.nih.gov/vw3d/vw3d.cgi?cid=4421
