   Color/Form

     * Needles from water
     * White powder, as granules, or as crystalline masses
     * White crystalline powder
     * WHITE POWDER, GRANULES, OR FLAKES

   from [1]HSDB

   Odor
        Odorless
   from [2]HSDB

   Taste
        Sweet taste, approx 60% as sweet as sugar (wt/wt)
   from [3]HSDB

   Boiling Point
        295 deg C at 3.5 mm Hg
   from [4]HSDB

   Melting Point
        111 deg C
   from [5]HSDB

   Density/Specific Gravity
        1.489 g/cu cm 20 deg C
   from [6]HSDB

   Dissociation Constants

     * pKa: 13.6 at 17.5 deg C
     * pKa = 13.57

   from [7]HSDB

   Heat of Combustion
        -3025.5 kJ.mol
   from [8]HSDB

   Octanol/Water Partition Coefficient
        log Kow = -2.20
   from [9]HSDB

   pH
        pH: about 7.0
   from [10]HSDB

   Solubilities

     * Very soluble in acetone
     * Freely sol in water (up to 83%); sol in methanol, isopropanol,
       butanol, cyclohexanol, phenol, acetone, acetic acid,
       dimethylformamide, pyridine, acetamide solutions; practically
       insoluble in most other org solvents; quite soluble in hot alcohol,
       sparingly soluble in cold alcohol
     * In water, 6.9X10+5 mg/L at 20 deg C
     * In water, 2.75X10+6 mg/L at 25 deg C

   from [11]HSDB

   Spectral Properties

     * Index of refraction: 1.3330 at 20 deg C
     * Max absorption (water): less than 220 nm; Sadtler ref number: 991
       (IR, Prism)
     * Specific optical rotation: -2.0 deg at 20 deg C/D (water)
     * IR: 200 (Sadtler Research Laboratories IR Grating Collection)
     * 1H NMR: 9664 (Sadtler Research Laboratories Spectral Collection)

   from [12]HSDB

   Vapor Pressure
        9.9X10-9 mm Hg at 25 deg C (est)
   from [13]HSDB

   Other Chemical/Physical Properties

     * Hydrated crystals melt somewhat below 100 deg C; in healthy human
       organism 1 g of sorbitol yields 3.994 calories ...
     * Commercial 70% aq soln: Density: 1.2879 at 20 deg C/20 deg C; Index
       of refraction: 1.45831 at 25 deg C/D; Specific optical rotation:
       -2.10 deg at 20 deg C/D; BP: 105 deg C at 760 mm Hg; pH: 6-7;
       Viscosity at 25 deg C: 110 centipoises (cP)
     * HYGROSCOPICITY: MEDIUM-LOW; SOLVENCY (FOR OILS): POOR; HIGH TEMP
       RESISTANCE: STABLE
     * High % sorbitol solutions are much more viscous than corresponding
       glycerol solutions
     * Henry's Law constant = 7.3X10-13 atm-cu m/mol at 25 deg C (est)
     * Hydroxyl radical reaction rate constant = 5.0X10-11 cu cm/molec-sec
       at 25 deg C (est)

   from [14]HSDB

   Computed Properties
   Molecular Weight                  182.17176 [g/mol]
   Molecular Formula                 C[6]H[14]O[6]
   XLogP3                            -3.1
   H-Bond Donor                      6
   H-Bond Acceptor                   6
   Rotatable Bond Count              5
   Exact Mass                        182.079038
   MonoIsotopic Mass                 182.079038
   Topological Polar Surface Area    121
   Heavy Atom Count                  12
   Formal Charge                     0
   Complexity                        105
   Isotope Atom Count                0
   Defined Atom Stereocenter Count   4
   Undefined Atom Stereocenter Count 0
   Defined Bond Stereocenter Count   0
   Undefined Bond Stereocenter Count 0
   Covalently-Bonded Unit Count      1
   Feature 3D Acceptor Count         6
   Feature 3D Donor Count            6
   Effective Rotor Count             5
   Conformer Sampling RMSD           0.6
   CID Conformer Count               [15]26

References

   1. http://toxnet.nlm.nih.gov/cgi-bin/sis/search/r?dbs+hsdb:@term+@rn+@rel+50-70-4
   2. http://toxnet.nlm.nih.gov/cgi-bin/sis/search/r?dbs+hsdb:@term+@rn+@rel+50-70-4
   3. http://toxnet.nlm.nih.gov/cgi-bin/sis/search/r?dbs+hsdb:@term+@rn+@rel+50-70-4
   4. http://toxnet.nlm.nih.gov/cgi-bin/sis/search/r?dbs+hsdb:@term+@rn+@rel+50-70-4
   5. http://toxnet.nlm.nih.gov/cgi-bin/sis/search/r?dbs+hsdb:@term+@rn+@rel+50-70-4
   6. http://toxnet.nlm.nih.gov/cgi-bin/sis/search/r?dbs+hsdb:@term+@rn+@rel+50-70-4
   7. http://toxnet.nlm.nih.gov/cgi-bin/sis/search/r?dbs+hsdb:@term+@rn+@rel+50-70-4
   8. http://toxnet.nlm.nih.gov/cgi-bin/sis/search/r?dbs+hsdb:@term+@rn+@rel+50-70-4
   9. http://toxnet.nlm.nih.gov/cgi-bin/sis/search/r?dbs+hsdb:@term+@rn+@rel+50-70-4
  10. http://toxnet.nlm.nih.gov/cgi-bin/sis/search/r?dbs+hsdb:@term+@rn+@rel+50-70-4
  11. http://toxnet.nlm.nih.gov/cgi-bin/sis/search/r?dbs+hsdb:@term+@rn+@rel+50-70-4
  12. http://toxnet.nlm.nih.gov/cgi-bin/sis/search/r?dbs+hsdb:@term+@rn+@rel+50-70-4
  13. http://toxnet.nlm.nih.gov/cgi-bin/sis/search/r?dbs+hsdb:@term+@rn+@rel+50-70-4
  14. http://toxnet.nlm.nih.gov/cgi-bin/sis/search/r?dbs+hsdb:@term+@rn+@rel+50-70-4
  15. http://pubchem.ncbi.nlm.nih.gov/vw3d/vw3d.cgi?cid=5780
