47205584
  -OEChem-06241222592D

 40 41  0     1  0  0  0  0  0999 V2000
    3.9311   -3.2111    0.0000 S   0  0  0  0  0  0  0  0  0  0  0  0
    4.9311   -3.2111    0.0000 O   0  0  0  0  0  0  0  0  0  0  0  0
    2.9311   -3.2111    0.0000 O   0  0  0  0  0  0  0  0  0  0  0  0
    2.0000    0.9552    0.0000 O   0  0  0  0  0  0  0  0  0  0  0  0
    3.9311   -2.2111    0.0000 N   0  0  3  0  0  0  0  0  0  0  0  0
    3.4311   -0.0205    0.0000 N   0  0  0  0  0  0  0  0  0  0  0  0
    3.1266    2.6077    0.0000 N   0  0  0  0  0  0  0  0  0  0  0  0
    2.0085    3.7772    0.0000 N   0  0  0  0  0  0  0  0  0  0  0  0
    5.0546   -0.8023    0.0000 C   0  0  0  0  0  0  0  0  0  0  0  0
    4.8321   -1.7772    0.0000 C   0  0  0  0  0  0  0  0  0  0  0  0
    3.0301   -1.7772    0.0000 C   0  0  0  0  0  0  0  0  0  0  0  0
    2.8076   -0.8023    0.0000 C   0  0  0  0  0  0  0  0  0  0  0  0
    4.4311   -0.0205    0.0000 C   0  0  0  0  0  0  0  0  0  0  0  0
    2.9972    0.8805    0.0000 C   0  0  0  0  0  0  0  0  0  0  0  0
    3.5605    1.7068    0.0000 C   0  0  3  0  0  0  0  0  0  0  0  0
    3.9311   -4.2111    0.0000 C   0  0  0  0  0  0  0  0  0  0  0  0
    4.5577    1.6320    0.0000 C   0  0  0  0  0  0  0  0  0  0  0  0
    3.6005    3.4883    0.0000 C   0  0  0  0  0  0  0  0  0  0  0  0
    2.1427    2.7863    0.0000 C   0  0  0  0  0  0  0  0  0  0  0  0
    2.9094    4.2111    0.0000 C   0  0  0  0  0  0  0  0  0  0  0  0
    5.6132   -1.0713    0.0000 H   0  0  0  0  0  0  0  0  0  0  0  0
    5.4411   -0.3176    0.0000 H   0  0  0  0  0  0  0  0  0  0  0  0
    4.9700   -2.3817    0.0000 H   0  0  0  0  0  0  0  0  0  0  0  0
    5.4521   -1.7772    0.0000 H   0  0  0  0  0  0  0  0  0  0  0  0
    2.4101   -1.7772    0.0000 H   0  0  0  0  0  0  0  0  0  0  0  0
    2.8922   -2.3817    0.0000 H   0  0  0  0  0  0  0  0  0  0  0  0
    2.4210   -0.3176    0.0000 H   0  0  0  0  0  0  0  0  0  0  0  0
    2.2490   -1.0713    0.0000 H   0  0  0  0  0  0  0  0  0  0  0  0
    4.9897    0.2485    0.0000 H   0  0  0  0  0  0  0  0  0  0  0  0
    4.2931    0.5840    0.0000 H   0  0  0  0  0  0  0  0  0  0  0  0
    3.9098    2.2190    0.0000 H   0  0  0  0  0  0  0  0  0  0  0  0
    3.3111   -4.2111    0.0000 H   0  0  0  0  0  0  0  0  0  0  0  0
    3.9311   -4.8311    0.0000 H   0  0  0  0  0  0  0  0  0  0  0  0
    4.5511   -4.2111    0.0000 H   0  0  0  0  0  0  0  0  0  0  0  0
    4.5114    1.0138    0.0000 H   0  0  0  0  0  0  0  0  0  0  0  0
    5.1760    1.5857    0.0000 H   0  0  0  0  0  0  0  0  0  0  0  0
    4.6041    2.2503    0.0000 H   0  0  0  0  0  0  0  0  0  0  0  0
    4.2149    3.5715    0.0000 H   0  0  0  0  0  0  0  0  0  0  0  0
    1.6946    2.3578    0.0000 H   0  0  0  0  0  0  0  0  0  0  0  0
    3.0202    4.8211    0.0000 H   0  0  0  0  0  0  0  0  0  0  0  0
  1  2  2  0  0  0  0
  1  3  2  0  0  0  0
  1  5  1  0  0  0  0
  1 16  1  0  0  0  0
  4 14  2  0  0  0  0
  5 10  1  0  0  0  0
  5 11  1  0  0  0  0
  6 12  1  0  0  0  0
  6 13  1  0  0  0  0
  6 14  1  0  0  0  0
  7 15  1  0  0  0  0
  7 18  1  0  0  0  0
  7 19  1  0  0  0  0
  8 19  2  0  0  0  0
  8 20  1  0  0  0  0
  9 10  1  0  0  0  0
  9 13  1  0  0  0  0
  9 21  1  0  0  0  0
  9 22  1  0  0  0  0
 10 23  1  0  0  0  0
 10 24  1  0  0  0  0
 11 12  1  0  0  0  0
 11 25  1  0  0  0  0
 11 26  1  0  0  0  0
 12 27  1  0  0  0  0
 12 28  1  0  0  0  0
 13 29  1  0  0  0  0
 13 30  1  0  0  0  0
 14 15  1  0  0  0  0
 15 17  1  0  0  0  0
 15 31  1  0  0  0  0
 16 32  1  0  0  0  0
 16 33  1  0  0  0  0
 16 34  1  0  0  0  0
 17 35  1  0  0  0  0
 17 36  1  0  0  0  0
 17 37  1  0  0  0  0
 18 20  2  0  0  0  0
 18 38  1  0  0  0  0
 19 39  1  0  0  0  0
 20 40  1  0  0  0  0
M  END
> <PUBCHEM_COMPOUND_CID>
47205584

> <PUBCHEM_COMPOUND_CANONICALIZED>
1

> <PUBCHEM_CACTVS_COMPLEXITY>
448

> <PUBCHEM_CACTVS_HBOND_ACCEPTOR>
5

> <PUBCHEM_CACTVS_HBOND_DONOR>
0

> <PUBCHEM_CACTVS_ROTATABLE_BOND>
3

> <PUBCHEM_CACTVS_SUBSKEYS>
AAADceBzsABAAAAAAAAAAAAAAAAAAWAAAAAAAAAABYAAAAABgAAAHgQAQAAACCjBggSvkBcMEAKoABE3dHAAgC0REqAJQAGYMACASAAASCAUAAAIBgKAACAAAAAAAAAAAAAAAAAAAAAAAAAAAAAAAAAAAA==

> <PUBCHEM_IUPAC_OPENEYE_NAME>
2-imidazol-1-yl-1-(4-methylsulfonyl-1,4-diazepan-1-yl)propan-1-one

> <PUBCHEM_IUPAC_CAS_NAME>
2-(1-imidazolyl)-1-(4-methylsulfonyl-1,4-diazepan-1-yl)-1-propanone

> <PUBCHEM_IUPAC_NAME>
2-imidazol-1-yl-1-(4-methylsulfonyl-1,4-diazepan-1-yl)propan-1-one

> <PUBCHEM_IUPAC_SYSTEMATIC_NAME>
2-imidazol-1-yl-1-(4-methylsulfonyl-1,4-diazepan-1-yl)propan-1-one

> <PUBCHEM_IUPAC_TRADITIONAL_NAME>
2-imidazol-1-yl-1-(4-mesyl-1,4-diazepan-1-yl)propan-1-one

> <PUBCHEM_IUPAC_INCHI>
InChI=1S/C12H20N4O3S/c1-11(15-7-4-13-10-15)12(17)14-5-3-6-16(9-8-14)20(2,18)19/h4,7,10-11H,3,5-6,8-9H2,1-2H3

> <PUBCHEM_IUPAC_INCHIKEY>
SELBNJDUEMMLCE-UHFFFAOYSA-N

> <PUBCHEM_XLOGP3_AA>
-0.5

> <PUBCHEM_EXACT_MASS>
300.125612

> <PUBCHEM_MOLECULAR_FORMULA>
C12H20N4O3S

> <PUBCHEM_MOLECULAR_WEIGHT>
300.3772

> <PUBCHEM_OPENEYE_CAN_SMILES>
CC(C(=O)N1CCCN(CC1)S(=O)(=O)C)N2C=CN=C2

> <PUBCHEM_OPENEYE_ISO_SMILES>
CC(C(=O)N1CCCN(CC1)S(=O)(=O)C)N2C=CN=C2

> <PUBCHEM_CACTVS_TPSA>
83.9

> <PUBCHEM_MONOISOTOPIC_WEIGHT>
300.125612

> <PUBCHEM_TOTAL_CHARGE>
0

> <PUBCHEM_HEAVY_ATOM_COUNT>
20

> <PUBCHEM_ATOM_DEF_STEREO_COUNT>
0

> <PUBCHEM_ATOM_UDEF_STEREO_COUNT>
1

> <PUBCHEM_BOND_DEF_STEREO_COUNT>
0

> <PUBCHEM_BOND_UDEF_STEREO_COUNT>
0

> <PUBCHEM_ISOTOPIC_ATOM_COUNT>
0

> <PUBCHEM_COMPONENT_COUNT>
1

> <PUBCHEM_CACTVS_TAUTO_COUNT>
1

> <PUBCHEM_COORDINATE_TYPE>
1
5
255

> <PUBCHEM_BONDANNOTATIONS>
15  17  3
18  20  8
7  18  8
7  19  8
8  19  8
8  20  8

$$$$

