56339
  -OEChem-07051212542D

 40 42  0     0  0  0  0  0  0999 V2000
    7.6632    2.6102    0.0000 P   0  0  0  0  0  0  0  0  0  0  0  0
    4.2451    0.8972    0.0000 O   0  0  0  0  0  0  0  0  0  0  0  0
    7.3212    1.6705    0.0000 O   0  0  0  0  0  0  0  0  0  0  0  0
    7.5529   -0.3068    0.0000 O   0  0  0  0  0  0  0  0  0  0  0  0
    8.0052    3.5499    0.0000 O   0  0  0  0  0  0  0  0  0  0  0  0
    8.6029    2.2682    0.0000 O   0  0  0  0  0  0  0  0  0  0  0  0
    6.7235    2.9522    0.0000 O   0  0  0  0  0  0  0  0  0  0  0  0
    5.9379   -1.0599    0.0000 N   0  0  0  0  0  0  0  0  0  0  0  0
    5.9943    0.5572    0.0000 N   0  0  0  0  0  0  0  0  0  0  0  0
    4.9982   -0.7179    0.0000 C   0  0  0  0  0  0  0  0  0  0  0  0
    5.0331    0.2815    0.0000 C   0  0  0  0  0  0  0  0  0  0  0  0
    4.6562   -1.6576    0.0000 C   0  0  0  0  0  0  0  0  0  0  0  0
    3.9988   -0.6830    0.0000 C   0  0  0  0  0  0  0  0  0  0  0  0
    6.5535   -0.2719    0.0000 C   0  0  0  0  0  0  0  0  0  0  0  0
    6.3364    1.4969    0.0000 C   0  0  0  0  0  0  0  0  0  0  0  0
    3.7901   -2.1576    0.0000 C   0  0  0  0  0  0  0  0  0  0  0  0
    3.5293    0.2000    0.0000 C   0  0  0  0  0  0  0  0  0  0  0  0
    5.5222   -2.1576    0.0000 C   0  0  0  0  0  0  0  0  0  0  0  0
    3.4689   -1.5309    0.0000 C   0  0  0  0  0  0  0  0  0  0  0  0
    3.7901   -3.1576    0.0000 C   0  0  0  0  0  0  0  0  0  0  0  0
    2.5299    0.2349    0.0000 C   0  0  0  0  0  0  0  0  0  0  0  0
    5.5222   -3.1576    0.0000 C   0  0  0  0  0  0  0  0  0  0  0  0
    2.4695   -1.4960    0.0000 C   0  0  0  0  0  0  0  0  0  0  0  0
    2.0000   -0.6132    0.0000 C   0  0  0  0  0  0  0  0  0  0  0  0
    4.6562   -3.6576    0.0000 C   0  0  0  0  0  0  0  0  0  0  0  0
    6.1088   -1.6559    0.0000 H   0  0  0  0  0  0  0  0  0  0  0  0
    6.3364    2.1169    0.0000 H   0  0  0  0  0  0  0  0  0  0  0  0
    5.7258    1.6045    0.0000 H   0  0  0  0  0  0  0  0  0  0  0  0
    3.2532   -1.8476    0.0000 H   0  0  0  0  0  0  0  0  0  0  0  0
    3.8579    0.7258    0.0000 H   0  0  0  0  0  0  0  0  0  0  0  0
    6.0591   -1.8476    0.0000 H   0  0  0  0  0  0  0  0  0  0  0  0
    3.7599   -2.0784    0.0000 H   0  0  0  0  0  0  0  0  0  0  0  0
    3.2532   -3.4676    0.0000 H   0  0  0  0  0  0  0  0  0  0  0  0
    2.2388    0.7823    0.0000 H   0  0  0  0  0  0  0  0  0  0  0  0
    6.0591   -3.4676    0.0000 H   0  0  0  0  0  0  0  0  0  0  0  0
    2.1409   -2.0218    0.0000 H   0  0  0  0  0  0  0  0  0  0  0  0
    1.3804   -0.5915    0.0000 H   0  0  0  0  0  0  0  0  0  0  0  0
    4.6562   -4.2776    0.0000 H   0  0  0  0  0  0  0  0  0  0  0  0
    8.6158    3.6576    0.0000 H   0  0  0  0  0  0  0  0  0  0  0  0
    8.7105    1.6576    0.0000 H   0  0  0  0  0  0  0  0  0  0  0  0
  1  3  1  0  0  0  0
  1  5  1  0  0  0  0
  1  6  1  0  0  0  0
  1  7  2  0  0  0  0
  2 11  2  0  0  0  0
  3 15  1  0  0  0  0
  4 14  2  0  0  0  0
  5 39  1  0  0  0  0
  6 40  1  0  0  0  0
  8 10  1  0  0  0  0
  8 14  1  0  0  0  0
  8 26  1  0  0  0  0
  9 11  1  0  0  0  0
  9 14  1  0  0  0  0
  9 15  1  0  0  0  0
 10 11  1  0  0  0  0
 10 12  1  0  0  0  0
 10 13  1  0  0  0  0
 12 16  2  0  0  0  0
 12 18  1  0  0  0  0
 13 17  2  0  0  0  0
 13 19  1  0  0  0  0
 15 27  1  0  0  0  0
 15 28  1  0  0  0  0
 16 20  1  0  0  0  0
 16 29  1  0  0  0  0
 17 21  1  0  0  0  0
 17 30  1  0  0  0  0
 18 22  2  0  0  0  0
 18 31  1  0  0  0  0
 19 23  2  0  0  0  0
 19 32  1  0  0  0  0
 20 25  2  0  0  0  0
 20 33  1  0  0  0  0
 21 24  2  0  0  0  0
 21 34  1  0  0  0  0
 22 25  1  0  0  0  0
 22 35  1  0  0  0  0
 23 24  1  0  0  0  0
 23 36  1  0  0  0  0
 24 37  1  0  0  0  0
 25 38  1  0  0  0  0
M  END
> <PUBCHEM_COMPOUND_CID>
56339

> <PUBCHEM_COMPOUND_CANONICALIZED>
1

> <PUBCHEM_CACTVS_COMPLEXITY>
547

> <PUBCHEM_CACTVS_HBOND_ACCEPTOR>
6

> <PUBCHEM_CACTVS_HBOND_DONOR>
3

> <PUBCHEM_CACTVS_ROTATABLE_BOND>
5

> <PUBCHEM_CACTVS_SUBSKEYS>
AAADccB7OAIAAAAAAAAAAAAAAAAAAWAAAAAwYAAAAAAAAAABQAAAHgAQCCAADIiBmAYxAIPAARCIQiFSEICCAAAgAAAIiAGIBIiIYDKAlTGUIAhohyIIiAcYiMCOgAAAAAAAAAAAAAAAAAAAAAAAAAAAAA==

> <PUBCHEM_IUPAC_OPENEYE_NAME>
(2,5-dioxo-4,4-diphenyl-imidazolidin-1-yl)methyl dihydrogen phosphate

> <PUBCHEM_IUPAC_CAS_NAME>
(2,5-dioxo-4,4-diphenyl-1-imidazolidinyl)methyl dihydrogen phosphate

> <PUBCHEM_IUPAC_NAME>
(2,5-dioxo-4,4-diphenylimidazolidin-1-yl)methyl dihydrogen phosphate

> <PUBCHEM_IUPAC_SYSTEMATIC_NAME>
[2,5-bis(oxidanylidene)-4,4-diphenyl-imidazolidin-1-yl]methyl dihydrogen phosphate

> <PUBCHEM_IUPAC_TRADITIONAL_NAME>
(2,5-diketo-4,4-diphenyl-imidazolidin-1-yl)methyl dihydrogen phosphate

> <PUBCHEM_IUPAC_INCHI>
InChI=1S/C16H15N2O6P/c19-14-16(12-7-3-1-4-8-12,13-9-5-2-6-10-13)17-15(20)18(14)11-24-25(21,22)23/h1-10H,11H2,(H,17,20)(H2,21,22,23)

> <PUBCHEM_IUPAC_INCHIKEY>
XWLUWCNOOVRFPX-UHFFFAOYSA-N

> <PUBCHEM_XLOGP3_AA>
0.6

> <PUBCHEM_EXACT_MASS>
362.066773

> <PUBCHEM_MOLECULAR_FORMULA>
C16H15N2O6P

> <PUBCHEM_MOLECULAR_WEIGHT>
362.273862

> <PUBCHEM_OPENEYE_CAN_SMILES>
C1=CC=C(C=C1)C2(C(=O)N(C(=O)N2)COP(=O)(O)O)C3=CC=CC=C3

> <PUBCHEM_OPENEYE_ISO_SMILES>
C1=CC=C(C=C1)C2(C(=O)N(C(=O)N2)COP(=O)(O)O)C3=CC=CC=C3

> <PUBCHEM_CACTVS_TPSA>
116

> <PUBCHEM_MONOISOTOPIC_WEIGHT>
362.066773

> <PUBCHEM_TOTAL_CHARGE>
0

> <PUBCHEM_HEAVY_ATOM_COUNT>
25

> <PUBCHEM_ATOM_DEF_STEREO_COUNT>
0

> <PUBCHEM_ATOM_UDEF_STEREO_COUNT>
0

> <PUBCHEM_BOND_DEF_STEREO_COUNT>
0

> <PUBCHEM_BOND_UDEF_STEREO_COUNT>
0

> <PUBCHEM_ISOTOPIC_ATOM_COUNT>
0

> <PUBCHEM_COMPONENT_COUNT>
1

> <PUBCHEM_CACTVS_TAUTO_COUNT>
2

> <PUBCHEM_COORDINATE_TYPE>
1
5
255

> <PUBCHEM_BONDANNOTATIONS>
12  16  8
12  18  8
13  17  8
13  19  8
16  20  8
17  21  8
18  22  8
19  23  8
20  25  8
21  24  8
22  25  8
23  24  8

$$$$

