5282289
  -OEChem-07051213042D

134133  0     1  0  0  0  0  0999 V2000
   17.5885    4.0000    0.0000 P   0  0  3  0  0  0  0  0  0  0  0  0
   16.7224    3.5000    0.0000 O   0  0  0  0  0  0  0  0  0  0  0  0
   17.0885    4.8660    0.0000 O   0  0  0  0  0  0  0  0  0  0  0  0
   18.0885    3.1340    0.0000 O   0  0  0  0  0  0  0  0  0  0  0  0
   14.1244    4.0000    0.0000 O   0  0  0  0  0  0  0  0  0  0  0  0
   14.1244    2.0000    0.0000 O   0  0  0  0  0  0  0  0  0  0  0  0
   14.9904    0.5000    0.0000 O   0  0  0  0  0  0  0  0  0  0  0  0
   13.2583    2.5000    0.0000 O   0  0  0  0  0  0  0  0  0  0  0  0
   20.1865    4.5000    0.0000 N   0  3  0  0  0  0  0  0  0  0  0  0
   19.3205    4.0000    0.0000 C   0  0  0  0  0  0  0  0  0  0  0  0
   18.4545    4.5000    0.0000 C   0  0  0  0  0  0  0  0  0  0  0  0
   21.0526    5.0000    0.0000 C   0  0  0  0  0  0  0  0  0  0  0  0
   20.6865    3.6340    0.0000 C   0  0  0  0  0  0  0  0  0  0  0  0
   19.6865    5.3660    0.0000 C   0  0  0  0  0  0  0  0  0  0  0  0
   10.6603   -4.0000    0.0000 C   0  0  0  0  0  0  0  0  0  0  0  0
   10.6603   -5.0000    0.0000 C   0  0  0  0  0  0  0  0  0  0  0  0
   11.5263   -3.5000    0.0000 C   0  0  0  0  0  0  0  0  0  0  0  0
    9.7942   -5.5000    0.0000 C   0  0  0  0  0  0  0  0  0  0  0  0
   11.5263   -2.5000    0.0000 C   0  0  0  0  0  0  0  0  0  0  0  0
    9.7942   -6.5000    0.0000 C   0  0  0  0  0  0  0  0  0  0  0  0
   12.3923   -2.0000    0.0000 C   0  0  0  0  0  0  0  0  0  0  0  0
    8.9282   -7.0000    0.0000 C   0  0  0  0  0  0  0  0  0  0  0  0
   12.3923   -1.0000    0.0000 C   0  0  0  0  0  0  0  0  0  0  0  0
    8.9282   -8.0000    0.0000 C   0  0  0  0  0  0  0  0  0  0  0  0
   13.2583   -0.5000    0.0000 C   0  0  0  0  0  0  0  0  0  0  0  0
    8.0622   -8.5000    0.0000 C   0  0  0  0  0  0  0  0  0  0  0  0
   15.8564    4.0000    0.0000 C   0  0  0  0  0  0  0  0  0  0  0  0
   14.9904    3.5000    0.0000 C   0  0  3  0  0  0  0  0  0  0  0  0
   13.2583    0.5000    0.0000 C   0  0  0  0  0  0  0  0  0  0  0  0
    8.0622   -9.5000    0.0000 C   0  0  0  0  0  0  0  0  0  0  0  0
   14.9904    2.5000    0.0000 C   0  0  0  0  0  0  0  0  0  0  0  0
    9.7942    3.5000    0.0000 C   0  0  0  0  0  0  0  0  0  0  0  0
   10.6603    4.0000    0.0000 C   0  0  0  0  0  0  0  0  0  0  0  0
    8.9282    4.0000    0.0000 C   0  0  0  0  0  0  0  0  0  0  0  0
   11.5263    3.5000    0.0000 C   0  0  0  0  0  0  0  0  0  0  0  0
    8.0622    3.5000    0.0000 C   0  0  0  0  0  0  0  0  0  0  0  0
   12.3923    4.0000    0.0000 C   0  0  0  0  0  0  0  0  0  0  0  0
    4.5981    6.5000    0.0000 C   0  0  0  0  0  0  0  0  0  0  0  0
   14.1244    1.0000    0.0000 C   0  0  0  0  0  0  0  0  0  0  0  0
    3.7320    7.0000    0.0000 C   0  0  0  0  0  0  0  0  0  0  0  0
    4.5981    5.5000    0.0000 C   0  0  0  0  0  0  0  0  0  0  0  0
    3.7320    8.0000    0.0000 C   0  0  0  0  0  0  0  0  0  0  0  0
    7.1962    4.0000    0.0000 C   0  0  0  0  0  0  0  0  0  0  0  0
    7.1962  -10.0000    0.0000 C   0  0  0  0  0  0  0  0  0  0  0  0
   13.2583    3.5000    0.0000 C   0  0  0  0  0  0  0  0  0  0  0  0
    5.4641    5.0000    0.0000 C   0  0  0  0  0  0  0  0  0  0  0  0
    2.8660    8.5000    0.0000 C   0  0  0  0  0  0  0  0  0  0  0  0
    6.3301    3.5000    0.0000 C   0  0  0  0  0  0  0  0  0  0  0  0
    5.4641    4.0000    0.0000 C   0  0  0  0  0  0  0  0  0  0  0  0
    2.8660    9.5000    0.0000 C   0  0  0  0  0  0  0  0  0  0  0  0
    2.0000   10.0000    0.0000 C   0  0  0  0  0  0  0  0  0  0  0  0
   18.9220    3.5250    0.0000 H   0  0  0  0  0  0  0  0  0  0  0  0
   19.7190    3.5250    0.0000 H   0  0  0  0  0  0  0  0  0  0  0  0
   18.8530    4.9750    0.0000 H   0  0  0  0  0  0  0  0  0  0  0  0
   18.0560    4.9750    0.0000 H   0  0  0  0  0  0  0  0  0  0  0  0
   20.1496    3.3240    0.0000 H   0  0  0  0  0  0  0  0  0  0  0  0
   20.9965    3.0970    0.0000 H   0  0  0  0  0  0  0  0  0  0  0  0
   21.2235    3.9440    0.0000 H   0  0  0  0  0  0  0  0  0  0  0  0
   21.3626    4.4631    0.0000 H   0  0  0  0  0  0  0  0  0  0  0  0
   21.5895    5.3100    0.0000 H   0  0  0  0  0  0  0  0  0  0  0  0
   20.7426    5.5369    0.0000 H   0  0  0  0  0  0  0  0  0  0  0  0
   20.2235    5.6760    0.0000 H   0  0  0  0  0  0  0  0  0  0  0  0
   19.3765    5.9030    0.0000 H   0  0  0  0  0  0  0  0  0  0  0  0
   19.1496    5.0560    0.0000 H   0  0  0  0  0  0  0  0  0  0  0  0
   10.4482   -3.4174    0.0000 H   0  0  0  0  0  0  0  0  0  0  0  0
   10.0497   -4.1077    0.0000 H   0  0  0  0  0  0  0  0  0  0  0  0
   10.8723   -5.5826    0.0000 H   0  0  0  0  0  0  0  0  0  0  0  0
   11.2708   -4.8923    0.0000 H   0  0  0  0  0  0  0  0  0  0  0  0
   11.7383   -4.0826    0.0000 H   0  0  0  0  0  0  0  0  0  0  0  0
   12.1369   -3.3923    0.0000 H   0  0  0  0  0  0  0  0  0  0  0  0
    9.5822   -4.9174    0.0000 H   0  0  0  0  0  0  0  0  0  0  0  0
    9.1836   -5.6077    0.0000 H   0  0  0  0  0  0  0  0  0  0  0  0
   11.3142   -1.9174    0.0000 H   0  0  0  0  0  0  0  0  0  0  0  0
   10.9157   -2.6077    0.0000 H   0  0  0  0  0  0  0  0  0  0  0  0
   10.0063   -7.0826    0.0000 H   0  0  0  0  0  0  0  0  0  0  0  0
   10.4048   -6.3923    0.0000 H   0  0  0  0  0  0  0  0  0  0  0  0
   12.6044   -2.5826    0.0000 H   0  0  0  0  0  0  0  0  0  0  0  0
   13.0029   -1.8923    0.0000 H   0  0  0  0  0  0  0  0  0  0  0  0
    8.7162   -6.4174    0.0000 H   0  0  0  0  0  0  0  0  0  0  0  0
    8.3176   -7.1077    0.0000 H   0  0  0  0  0  0  0  0  0  0  0  0
   12.1803   -0.4174    0.0000 H   0  0  0  0  0  0  0  0  0  0  0  0
   11.7817   -1.1077    0.0000 H   0  0  0  0  0  0  0  0  0  0  0  0
    9.1403   -8.5826    0.0000 H   0  0  0  0  0  0  0  0  0  0  0  0
    9.5388   -7.8923    0.0000 H   0  0  0  0  0  0  0  0  0  0  0  0
   13.4704   -1.0826    0.0000 H   0  0  0  0  0  0  0  0  0  0  0  0
   13.8689   -0.3923    0.0000 H   0  0  0  0  0  0  0  0  0  0  0  0
    7.8501   -7.9174    0.0000 H   0  0  0  0  0  0  0  0  0  0  0  0
    7.4516   -8.6077    0.0000 H   0  0  0  0  0  0  0  0  0  0  0  0
   16.2549    4.4750    0.0000 H   0  0  0  0  0  0  0  0  0  0  0  0
   15.4579    4.4750    0.0000 H   0  0  0  0  0  0  0  0  0  0  0  0
   14.9904    4.1200    0.0000 H   0  0  0  0  0  0  0  0  0  0  0  0
   13.0463    1.0826    0.0000 H   0  0  0  0  0  0  0  0  0  0  0  0
   12.6477    0.3923    0.0000 H   0  0  0  0  0  0  0  0  0  0  0  0
    8.2742  -10.0826    0.0000 H   0  0  0  0  0  0  0  0  0  0  0  0
    8.6728   -9.3923    0.0000 H   0  0  0  0  0  0  0  0  0  0  0  0
   15.2024    1.9174    0.0000 H   0  0  0  0  0  0  0  0  0  0  0  0
   15.6010    2.6077    0.0000 H   0  0  0  0  0  0  0  0  0  0  0  0
    9.3957    3.0250    0.0000 H   0  0  0  0  0  0  0  0  0  0  0  0
   10.1928    3.0250    0.0000 H   0  0  0  0  0  0  0  0  0  0  0  0
   11.0588    4.4750    0.0000 H   0  0  0  0  0  0  0  0  0  0  0  0
   10.2617    4.4750    0.0000 H   0  0  0  0  0  0  0  0  0  0  0  0
   17.3985    5.4030    0.0000 H   0  0  0  0  0  0  0  0  0  0  0  0
    9.3267    4.4750    0.0000 H   0  0  0  0  0  0  0  0  0  0  0  0
    8.5297    4.4750    0.0000 H   0  0  0  0  0  0  0  0  0  0  0  0
   11.1278    3.0250    0.0000 H   0  0  0  0  0  0  0  0  0  0  0  0
   11.9248    3.0250    0.0000 H   0  0  0  0  0  0  0  0  0  0  0  0
    7.6636    3.0250    0.0000 H   0  0  0  0  0  0  0  0  0  0  0  0
    8.4607    3.0250    0.0000 H   0  0  0  0  0  0  0  0  0  0  0  0
   12.7908    4.4750    0.0000 H   0  0  0  0  0  0  0  0  0  0  0  0
   11.9938    4.4750    0.0000 H   0  0  0  0  0  0  0  0  0  0  0  0
    5.2087    6.3923    0.0000 H   0  0  0  0  0  0  0  0  0  0  0  0
    4.8101    7.0826    0.0000 H   0  0  0  0  0  0  0  0  0  0  0  0
    3.1215    7.1077    0.0000 H   0  0  0  0  0  0  0  0  0  0  0  0
    3.5200    6.4174    0.0000 H   0  0  0  0  0  0  0  0  0  0  0  0
    3.9875    5.6077    0.0000 H   0  0  0  0  0  0  0  0  0  0  0  0
    4.3860    4.9174    0.0000 H   0  0  0  0  0  0  0  0  0  0  0  0
    4.3426    7.8923    0.0000 H   0  0  0  0  0  0  0  0  0  0  0  0
    3.9441    8.5826    0.0000 H   0  0  0  0  0  0  0  0  0  0  0  0
    7.5947    4.4750    0.0000 H   0  0  0  0  0  0  0  0  0  0  0  0
    6.7976    4.4750    0.0000 H   0  0  0  0  0  0  0  0  0  0  0  0
    6.8862   -9.4631    0.0000 H   0  0  0  0  0  0  0  0  0  0  0  0
    6.6592  -10.3100    0.0000 H   0  0  0  0  0  0  0  0  0  0  0  0
    7.5062  -10.5369    0.0000 H   0  0  0  0  0  0  0  0  0  0  0  0
    6.0747    4.8923    0.0000 H   0  0  0  0  0  0  0  0  0  0  0  0
    5.6762    5.5826    0.0000 H   0  0  0  0  0  0  0  0  0  0  0  0
    2.2554    8.6077    0.0000 H   0  0  0  0  0  0  0  0  0  0  0  0
    2.6540    7.9174    0.0000 H   0  0  0  0  0  0  0  0  0  0  0  0
    6.3301    2.8800    0.0000 H   0  0  0  0  0  0  0  0  0  0  0  0
    4.9272    3.6900    0.0000 H   0  0  0  0  0  0  0  0  0  0  0  0
    3.4766    9.3923    0.0000 H   0  0  0  0  0  0  0  0  0  0  0  0
    3.0781   10.0826    0.0000 H   0  0  0  0  0  0  0  0  0  0  0  0
    2.3100   10.5369    0.0000 H   0  0  0  0  0  0  0  0  0  0  0  0
    1.4631   10.3100    0.0000 H   0  0  0  0  0  0  0  0  0  0  0  0
    1.6900    9.4631    0.0000 H   0  0  0  0  0  0  0  0  0  0  0  0
  1  2  1  0  0  0  0
  1  3  1  0  0  0  0
  1  4  2  0  0  0  0
  1 11  1  0  0  0  0
  2 27  1  0  0  0  0
  3102  1  0  0  0  0
  5 28  1  0  0  0  0
  5 45  1  0  0  0  0
  6 31  1  0  0  0  0
  6 39  1  0  0  0  0
  7 39  2  0  0  0  0
  8 45  2  0  0  0  0
  9 10  1  0  0  0  0
  9 12  1  0  0  0  0
  9 13  1  0  0  0  0
  9 14  1  0  0  0  0
 10 11  1  0  0  0  0
 10 52  1  0  0  0  0
 10 53  1  0  0  0  0
 11 54  1  0  0  0  0
 11 55  1  0  0  0  0
 12 59  1  0  0  0  0
 12 60  1  0  0  0  0
 12 61  1  0  0  0  0
 13 56  1  0  0  0  0
 13 57  1  0  0  0  0
 13 58  1  0  0  0  0
 14 62  1  0  0  0  0
 14 63  1  0  0  0  0
 14 64  1  0  0  0  0
 15 16  1  0  0  0  0
 15 17  1  0  0  0  0
 15 65  1  0  0  0  0
 15 66  1  0  0  0  0
 16 18  1  0  0  0  0
 16 67  1  0  0  0  0
 16 68  1  0  0  0  0
 17 19  1  0  0  0  0
 17 69  1  0  0  0  0
 17 70  1  0  0  0  0
 18 20  1  0  0  0  0
 18 71  1  0  0  0  0
 18 72  1  0  0  0  0
 19 21  1  0  0  0  0
 19 73  1  0  0  0  0
 19 74  1  0  0  0  0
 20 22  1  0  0  0  0
 20 75  1  0  0  0  0
 20 76  1  0  0  0  0
 21 23  1  0  0  0  0
 21 77  1  0  0  0  0
 21 78  1  0  0  0  0
 22 24  1  0  0  0  0
 22 79  1  0  0  0  0
 22 80  1  0  0  0  0
 23 25  1  0  0  0  0
 23 81  1  0  0  0  0
 23 82  1  0  0  0  0
 24 26  1  0  0  0  0
 24 83  1  0  0  0  0
 24 84  1  0  0  0  0
 25 29  1  0  0  0  0
 25 85  1  0  0  0  0
 25 86  1  0  0  0  0
 26 30  1  0  0  0  0
 26 87  1  0  0  0  0
 26 88  1  0  0  0  0
 27 28  1  0  0  0  0
 27 89  1  0  0  0  0
 27 90  1  0  0  0  0
 28 31  1  0  0  0  0
 28 91  1  0  0  0  0
 29 39  1  0  0  0  0
 29 92  1  0  0  0  0
 29 93  1  0  0  0  0
 30 44  1  0  0  0  0
 30 94  1  0  0  0  0
 30 95  1  0  0  0  0
 31 96  1  0  0  0  0
 31 97  1  0  0  0  0
 32 33  1  0  0  0  0
 32 34  1  0  0  0  0
 32 98  1  0  0  0  0
 32 99  1  0  0  0  0
 33 35  1  0  0  0  0
 33100  1  0  0  0  0
 33101  1  0  0  0  0
 34 36  1  0  0  0  0
 34103  1  0  0  0  0
 34104  1  0  0  0  0
 35 37  1  0  0  0  0
 35105  1  0  0  0  0
 35106  1  0  0  0  0
 36 43  1  0  0  0  0
 36107  1  0  0  0  0
 36108  1  0  0  0  0
 37 45  1  0  0  0  0
 37109  1  0  0  0  0
 37110  1  0  0  0  0
 38 40  1  0  0  0  0
 38 41  1  0  0  0  0
 38111  1  0  0  0  0
 38112  1  0  0  0  0
 40 42  1  0  0  0  0
 40113  1  0  0  0  0
 40114  1  0  0  0  0
 41 46  1  0  0  0  0
 41115  1  0  0  0  0
 41116  1  0  0  0  0
 42 47  1  0  0  0  0
 42117  1  0  0  0  0
 42118  1  0  0  0  0
 43 48  1  0  0  0  0
 43119  1  0  0  0  0
 43120  1  0  0  0  0
 44121  1  0  0  0  0
 44122  1  0  0  0  0
 44123  1  0  0  0  0
 46 49  1  0  0  0  0
 46124  1  0  0  0  0
 46125  1  0  0  0  0
 47 50  1  0  0  0  0
 47126  1  0  0  0  0
 47127  1  0  0  0  0
 48 49  2  0  0  0  0
 48128  1  0  0  0  0
 49129  1  0  0  0  0
 50 51  1  0  0  0  0
 50130  1  0  0  0  0
 50131  1  0  0  0  0
 51132  1  0  0  0  0
 51133  1  0  0  0  0
 51134  1  0  0  0  0
M  CHG  1   9   1
M  END
> <PUBCHEM_COMPOUND_CID>
5282289

> <PUBCHEM_COMPOUND_CANONICALIZED>
1

> <PUBCHEM_CACTVS_COMPLEXITY>
889

> <PUBCHEM_CACTVS_HBOND_ACCEPTOR>
7

> <PUBCHEM_CACTVS_HBOND_DONOR>
1

> <PUBCHEM_CACTVS_ROTATABLE_BOND>
40

> <PUBCHEM_CACTVS_SUBSKEYS>
AAADcfB+OAIAAAAAAAAAAAAAAAAAAAAAAAAAAAAAAAAAAAAAAAAAHggACCAACBTpgAYCCAMABRCIQCDSCIAAAAAgAAAICAEIAAgBABIAAQACAAAFgAAKAAOIyKCAAAAAAAAAAAAAAAAAAAAAAAAAAAAAAA==

> <PUBCHEM_IUPAC_OPENEYE_NAME>
2-[[3-hexadecanoyloxy-2-[(Z)-octadec-9-enoyl]oxy-propoxy]-hydroxy-phosphoryl]ethyl-trimethyl-ammonium

> <PUBCHEM_IUPAC_CAS_NAME>
2-[hydroxy-[3-(1-oxohexadecoxy)-2-[(Z)-1-oxooctadec-9-enoxy]propoxy]phosphoryl]ethyl-trimethylammonium

> <PUBCHEM_IUPAC_NAME>
2-[[3-hexadecanoyloxy-2-[(Z)-octadec-9-enoyl]oxypropoxy]-hydroxyphosphoryl]ethyl-trimethylazanium

> <PUBCHEM_IUPAC_SYSTEMATIC_NAME>
2-[[3-hexadecanoyloxy-2-[(Z)-octadec-9-enoyl]oxy-propoxy]-oxidanyl-phosphoryl]ethyl-trimethyl-azanium

> <PUBCHEM_IUPAC_TRADITIONAL_NAME>
2-[[3-hexadecanoyloxy-2-[(Z)-octadec-9-enoyl]oxy-propoxy]-hydroxy-phosphoryl]ethyl-trimethyl-ammonium

> <PUBCHEM_IUPAC_INCHI>
InChI=1S/C42H82NO7P/c1-6-8-10-12-14-16-18-20-21-23-25-27-29-31-33-35-42(45)50-40(39-49-51(46,47)37-36-43(3,4)5)38-48-41(44)34-32-30-28-26-24-22-19-17-15-13-11-9-7-2/h20-21,40H,6-19,22-39H2,1-5H3/p+1/b21-20-

> <PUBCHEM_IUPAC_INCHIKEY>
FZBQJTJKBOUFOT-MRCUWXFGSA-O

> <PUBCHEM_XLOGP3_AA>
13.6

> <PUBCHEM_EXACT_MASS>
744.590716

> <PUBCHEM_MOLECULAR_FORMULA>
C42H83NO7P+

> <PUBCHEM_MOLECULAR_WEIGHT>
745.084682

> <PUBCHEM_OPENEYE_CAN_SMILES>
CCCCCCCCCCCCCCCC(=O)OCC(COP(=O)(CC[N+](C)(C)C)O)OC(=O)CCCCCCCC=CCCCCCCCC

> <PUBCHEM_OPENEYE_ISO_SMILES>
CCCCCCCCCCCCCCCC(=O)OCC(COP(=O)(CC[N+](C)(C)C)O)OC(=O)CCCCCCC/C=C\CCCCCCCC

> <PUBCHEM_CACTVS_TPSA>
99.1

> <PUBCHEM_MONOISOTOPIC_WEIGHT>
744.590716

> <PUBCHEM_TOTAL_CHARGE>
1

> <PUBCHEM_HEAVY_ATOM_COUNT>
51

> <PUBCHEM_ATOM_DEF_STEREO_COUNT>
0

> <PUBCHEM_ATOM_UDEF_STEREO_COUNT>
1

> <PUBCHEM_BOND_DEF_STEREO_COUNT>
1

> <PUBCHEM_BOND_UDEF_STEREO_COUNT>
0

> <PUBCHEM_ISOTOPIC_ATOM_COUNT>
0

> <PUBCHEM_COMPONENT_COUNT>
1

> <PUBCHEM_CACTVS_TAUTO_COUNT>
1

> <PUBCHEM_COORDINATE_TYPE>
1
5
255

> <PUBCHEM_BONDANNOTATIONS>
28  27  3

$$$$

