5362440
  -OEChem-07051212522D

 92 96  0     1  0  0  0  0  0999 V2000
    7.6138   -0.2062    0.0000 O   0  0  0  0  0  0  0  0  0  0  0  0
    6.2619   -1.6296    0.0000 O   0  0  0  0  0  0  0  0  0  0  0  0
   10.1921    2.1073    0.0000 O   0  0  0  0  0  0  0  0  0  0  0  0
    6.6353   -0.4124    0.0000 O   0  0  0  0  0  0  0  0  0  0  0  0
    9.5708    0.2062    0.0000 N   0  0  3  0  0  0  0  0  0  0  0  0
   10.9065   -1.2824    0.0000 N   0  0  3  0  0  0  0  0  0  0  0  0
    4.9889    0.1256    0.0000 N   0  0  0  0  0  0  0  0  0  0  0  0
   11.8385    1.5692    0.0000 N   0  0  0  0  0  0  0  0  0  0  0  0
    9.9745   -4.1339    0.0000 N   0  0  0  0  0  0  0  0  0  0  0  0
   10.5493    0.4124    0.0000 C   0  0  1  0  0  0  0  0  0  0  0  0
   11.2171   -0.3319    0.0000 C   0  0  0  0  0  0  0  0  0  0  0  0
    9.2601   -0.7443    0.0000 C   0  0  0  0  0  0  0  0  0  0  0  0
    8.9030    0.9505    0.0000 C   0  0  0  0  0  0  0  0  0  0  0  0
    9.9280   -1.4886    0.0000 C   0  0  0  0  0  0  0  0  0  0  0  0
    7.9244    0.7443    0.0000 C   0  0  2  0  0  0  0  0  0  0  0  0
    7.2566    1.4886    0.0000 C   0  0  0  0  0  0  0  0  0  0  0  0
    6.2781    1.2824    0.0000 C   0  0  2  0  0  0  0  0  0  0  0  0
    4.6783   -0.8249    0.0000 C   0  0  2  0  0  0  0  0  0  0  0  0
   10.8600    1.3630    0.0000 C   0  0  0  0  0  0  0  0  0  0  0  0
    5.2619   -1.6296    0.0000 C   0  0  1  0  0  0  0  0  0  0  0  0
   11.5743   -2.0267    0.0000 C   0  0  0  0  0  0  0  0  0  0  0  0
    4.6783   -2.4343    0.0000 C   0  0  0  0  0  0  0  0  0  0  0  0
    3.7320   -1.1296    0.0000 C   0  0  0  0  0  0  0  0  0  0  0  0
    5.9674    0.3319    0.0000 C   0  0  0  0  0  0  0  0  0  0  0  0
    5.6103    2.0267    0.0000 C   0  0  0  0  0  0  0  0  0  0  0  0
    3.7320   -2.1296    0.0000 C   0  0  0  0  0  0  0  0  0  0  0  0
   12.5063    0.8249    0.0000 C   0  0  0  0  0  0  0  0  0  0  0  0
   11.2637   -2.9772    0.0000 C   0  0  0  0  0  0  0  0  0  0  0  0
    2.8660   -0.6296    0.0000 C   0  0  0  0  0  0  0  0  0  0  0  0
    5.9209    2.9772    0.0000 C   0  0  0  0  0  0  0  0  0  0  0  0
    2.8660   -2.6296    0.0000 C   0  0  0  0  0  0  0  0  0  0  0  0
   13.1742    0.0806    0.0000 C   0  0  0  0  0  0  0  0  0  0  0  0
   13.2506    1.4927    0.0000 C   0  0  0  0  0  0  0  0  0  0  0  0
   11.7620    0.1570    0.0000 C   0  0  0  0  0  0  0  0  0  0  0  0
    2.0000   -1.1296    0.0000 C   0  0  0  0  0  0  0  0  0  0  0  0
    2.0000   -2.1296    0.0000 C   0  0  0  0  0  0  0  0  0  0  0  0
   11.9315   -3.7215    0.0000 C   0  0  0  0  0  0  0  0  0  0  0  0
   10.2852   -3.1834    0.0000 C   0  0  0  0  0  0  0  0  0  0  0  0
    6.8994    3.1834    0.0000 C   0  0  0  0  0  0  0  0  0  0  0  0
    5.2531    3.7215    0.0000 C   0  0  0  0  0  0  0  0  0  0  0  0
   11.6208   -4.6720    0.0000 C   0  0  0  0  0  0  0  0  0  0  0  0
    7.2101    4.1339    0.0000 C   0  0  0  0  0  0  0  0  0  0  0  0
    5.5637    4.6720    0.0000 C   0  0  0  0  0  0  0  0  0  0  0  0
    6.5422    4.8783    0.0000 C   0  0  0  0  0  0  0  0  0  0  0  0
   10.6423   -4.8783    0.0000 C   0  0  0  0  0  0  0  0  0  0  0  0
   10.1352    0.8739    0.0000 H   0  0  0  0  0  0  0  0  0  0  0  0
   11.7641   -0.6239    0.0000 H   0  0  0  0  0  0  0  0  0  0  0  0
   11.5997    0.1560    0.0000 H   0  0  0  0  0  0  0  0  0  0  0  0
    8.7132   -0.4523    0.0000 H   0  0  0  0  0  0  0  0  0  0  0  0
    8.8776   -1.2322    0.0000 H   0  0  0  0  0  0  0  0  0  0  0  0
    9.4293    1.2782    0.0000 H   0  0  0  0  0  0  0  0  0  0  0  0
    8.6717    1.5258    0.0000 H   0  0  0  0  0  0  0  0  0  0  0  0
    9.4016   -1.8162    0.0000 H   0  0  0  0  0  0  0  0  0  0  0  0
   10.1592   -2.0639    0.0000 H   0  0  0  0  0  0  0  0  0  0  0  0
    8.3385    0.2828    0.0000 H   0  0  0  0  0  0  0  0  0  0  0  0
    7.7830    1.8162    0.0000 H   0  0  0  0  0  0  0  0  0  0  0  0
    7.0254    2.0639    0.0000 H   0  0  0  0  0  0  0  0  0  0  0  0
    5.6714    1.1545    0.0000 H   0  0  0  0  0  0  0  0  0  0  0  0
    5.2908   -0.7287    0.0000 H   0  0  0  0  0  0  0  0  0  0  0  0
    5.5436   -2.1819    0.0000 H   0  0  0  0  0  0  0  0  0  0  0  0
   12.1213   -2.3187    0.0000 H   0  0  0  0  0  0  0  0  0  0  0  0
   11.9569   -1.5388    0.0000 H   0  0  0  0  0  0  0  0  0  0  0  0
    4.4272   -3.0013    0.0000 H   0  0  0  0  0  0  0  0  0  0  0  0
    5.2156   -2.7436    0.0000 H   0  0  0  0  0  0  0  0  0  0  0  0
    5.0633    2.3187    0.0000 H   0  0  0  0  0  0  0  0  0  0  0  0
    5.2277    1.5388    0.0000 H   0  0  0  0  0  0  0  0  0  0  0  0
    4.5749    0.5871    0.0000 H   0  0  0  0  0  0  0  0  0  0  0  0
   12.0311    2.1585    0.0000 H   0  0  0  0  0  0  0  0  0  0  0  0
    8.0279   -0.6677    0.0000 H   0  0  0  0  0  0  0  0  0  0  0  0
    2.8660   -0.0096    0.0000 H   0  0  0  0  0  0  0  0  0  0  0  0
    2.8660   -3.2496    0.0000 H   0  0  0  0  0  0  0  0  0  0  0  0
   11.3480    0.6185    0.0000 H   0  0  0  0  0  0  0  0  0  0  0  0
   12.7127   -0.3335    0.0000 H   0  0  0  0  0  0  0  0  0  0  0  0
   13.5882   -0.3809    0.0000 H   0  0  0  0  0  0  0  0  0  0  0  0
   13.6356    0.4946    0.0000 H   0  0  0  0  0  0  0  0  0  0  0  0
   13.6647    1.0312    0.0000 H   0  0  0  0  0  0  0  0  0  0  0  0
   11.3005   -0.2570    0.0000 H   0  0  0  0  0  0  0  0  0  0  0  0
   12.1761   -0.3044    0.0000 H   0  0  0  0  0  0  0  0  0  0  0  0
   13.7121    1.9068    0.0000 H   0  0  0  0  0  0  0  0  0  0  0  0
   12.8366    1.9542    0.0000 H   0  0  0  0  0  0  0  0  0  0  0  0
    6.5719   -2.1665    0.0000 H   0  0  0  0  0  0  0  0  0  0  0  0
    1.4631   -0.8196    0.0000 H   0  0  0  0  0  0  0  0  0  0  0  0
    1.4631   -2.4396    0.0000 H   0  0  0  0  0  0  0  0  0  0  0  0
   12.5382   -3.5936    0.0000 H   0  0  0  0  0  0  0  0  0  0  0  0
    9.8711   -2.7220    0.0000 H   0  0  0  0  0  0  0  0  0  0  0  0
    7.3135    2.7220    0.0000 H   0  0  0  0  0  0  0  0  0  0  0  0
    4.6464    3.5936    0.0000 H   0  0  0  0  0  0  0  0  0  0  0  0
   12.0349   -5.1335    0.0000 H   0  0  0  0  0  0  0  0  0  0  0  0
    7.8168    4.2618    0.0000 H   0  0  0  0  0  0  0  0  0  0  0  0
    5.1497    5.1335    0.0000 H   0  0  0  0  0  0  0  0  0  0  0  0
    6.7349    5.4676    0.0000 H   0  0  0  0  0  0  0  0  0  0  0  0
   10.4497   -5.4676    0.0000 H   0  0  0  0  0  0  0  0  0  0  0  0
 15  1  1  1  0  0  0
  1 69  1  0  0  0  0
 20  2  1  6  0  0  0
  2 81  1  0  0  0  0
  3 19  2  0  0  0  0
  4 24  2  0  0  0  0
  5 10  1  0  0  0  0
  5 12  1  0  0  0  0
  5 13  1  0  0  0  0
  6 11  1  0  0  0  0
  6 14  1  0  0  0  0
  6 21  1  0  0  0  0
 18  7  1  6  0  0  0
  7 24  1  0  0  0  0
  7 67  1  0  0  0  0
  8 19  1  0  0  0  0
  8 27  1  0  0  0  0
  8 68  1  0  0  0  0
  9 38  1  0  0  0  0
  9 45  2  0  0  0  0
 10 11  1  0  0  0  0
 10 19  1  6  0  0  0
 10 46  1  0  0  0  0
 11 47  1  0  0  0  0
 11 48  1  0  0  0  0
 12 14  1  0  0  0  0
 12 49  1  0  0  0  0
 12 50  1  0  0  0  0
 13 15  1  0  0  0  0
 13 51  1  0  0  0  0
 13 52  1  0  0  0  0
 14 53  1  0  0  0  0
 14 54  1  0  0  0  0
 15 16  1  0  0  0  0
 15 55  1  0  0  0  0
 17 16  1  1  0  0  0
 16 56  1  0  0  0  0
 16 57  1  0  0  0  0
 17 24  1  0  0  0  0
 17 25  1  0  0  0  0
 17 58  1  0  0  0  0
 18 20  1  0  0  0  0
 18 23  1  0  0  0  0
 18 59  1  0  0  0  0
 20 22  1  0  0  0  0
 20 60  1  0  0  0  0
 21 28  1  0  0  0  0
 21 61  1  0  0  0  0
 21 62  1  0  0  0  0
 22 26  1  0  0  0  0
 22 63  1  0  0  0  0
 22 64  1  0  0  0  0
 23 26  1  0  0  0  0
 23 29  2  0  0  0  0
 25 30  1  0  0  0  0
 25 65  1  0  0  0  0
 25 66  1  0  0  0  0
 26 31  2  0  0  0  0
 27 32  1  0  0  0  0
 27 33  1  0  0  0  0
 27 34  1  0  0  0  0
 28 37  1  0  0  0  0
 28 38  2  0  0  0  0
 29 35  1  0  0  0  0
 29 70  1  0  0  0  0
 30 39  2  0  0  0  0
 30 40  1  0  0  0  0
 31 36  1  0  0  0  0
 31 71  1  0  0  0  0
 32 73  1  0  0  0  0
 32 74  1  0  0  0  0
 32 75  1  0  0  0  0
 33 76  1  0  0  0  0
 33 79  1  0  0  0  0
 33 80  1  0  0  0  0
 34 72  1  0  0  0  0
 34 77  1  0  0  0  0
 34 78  1  0  0  0  0
 35 36  2  0  0  0  0
 35 82  1  0  0  0  0
 36 83  1  0  0  0  0
 37 41  2  0  0  0  0
 37 84  1  0  0  0  0
 38 85  1  0  0  0  0
 39 42  1  0  0  0  0
 39 86  1  0  0  0  0
 40 43  2  0  0  0  0
 40 87  1  0  0  0  0
 41 45  1  0  0  0  0
 41 88  1  0  0  0  0
 42 44  2  0  0  0  0
 42 89  1  0  0  0  0
 43 44  1  0  0  0  0
 43 90  1  0  0  0  0
 44 91  1  0  0  0  0
 45 92  1  0  0  0  0
M  END
> <PUBCHEM_COMPOUND_CID>
5362440

> <PUBCHEM_COMPOUND_CANONICALIZED>
1

> <PUBCHEM_CACTVS_COMPLEXITY>
952

> <PUBCHEM_CACTVS_HBOND_ACCEPTOR>
7

> <PUBCHEM_CACTVS_HBOND_DONOR>
4

> <PUBCHEM_CACTVS_ROTATABLE_BOND>
12

> <PUBCHEM_CACTVS_SUBSKEYS>
AAADcfB/uAAAAAAAAAAAAAAAAAAAAYAAAAA8eIEAAAAAAGAB0AAAHgAQCAAADbzhmgY+gJPIEgCoAjF3VACCgCAxAiAI2KG4ZJgKcPrA0bGUYAhk1gHYyAe62fKOgAAAAAAQAAAAAAAAACAAAKAACQgAAA==

> <PUBCHEM_IUPAC_OPENEYE_NAME>
(2S)-1-[(2S,4R)-4-benzyl-2-hydroxy-5-[[(1S,2R)-2-hydroxyindan-1-yl]amino]-5-oxo-pentyl]-N-tert-butyl-4-(3-pyridylmethyl)piperazine-2-carboxamide

> <PUBCHEM_IUPAC_CAS_NAME>
(2S)-N-tert-butyl-1-[(2S,4R)-2-hydroxy-5-[[(1S,2R)-2-hydroxy-2,3-dihydro-1H-inden-1-yl]amino]-5-oxo-4-(phenylmethyl)pentyl]-4-(3-pyridinylmethyl)-2-piperazinecarboxamide

> <PUBCHEM_IUPAC_NAME>
(2S)-1-[(2S,4R)-4-benzyl-2-hydroxy-5-[[(1S,2R)-2-hydroxy-2,3-dihydro-1H-inden-1-yl]amino]-5-oxopentyl]-N-tert-butyl-4-(pyridin-3-ylmethyl)piperazine-2-carboxamide

> <PUBCHEM_IUPAC_SYSTEMATIC_NAME>
(2S)-N-tert-butyl-1-[(2S,4R)-2-oxidanyl-5-[[(1S,2R)-2-oxidanyl-2,3-dihydro-1H-inden-1-yl]amino]-5-oxidanylidene-4-(phenylmethyl)pentyl]-4-(pyridin-3-ylmethyl)piperazine-2-carboxamide

> <PUBCHEM_IUPAC_TRADITIONAL_NAME>
(2S)-1-[(2S,4R)-4-benzyl-2-hydroxy-5-[[(1S,2R)-2-hydroxyindan-1-yl]amino]-5-keto-pentyl]-N-tert-butyl-4-(3-pyridylmethyl)piperazine-2-carboxamide

> <PUBCHEM_IUPAC_INCHI>
InChI=1S/C36H47N5O4/c1-36(2,3)39-35(45)31-24-40(22-26-12-9-15-37-21-26)16-17-41(31)23-29(42)19-28(18-25-10-5-4-6-11-25)34(44)38-33-30-14-8-7-13-27(30)20-32(33)43/h4-15,21,28-29,31-33,42-43H,16-20,22-24H2,1-3H3,(H,38,44)(H,39,45)/t28-,29+,31+,32-,33+/m1/s1

> <PUBCHEM_IUPAC_INCHIKEY>
CBVCZFGXHXORBI-PXQQMZJSSA-N

> <PUBCHEM_XLOGP3_AA>
2.8

> <PUBCHEM_EXACT_MASS>
613.362805

> <PUBCHEM_MOLECULAR_FORMULA>
C36H47N5O4

> <PUBCHEM_MOLECULAR_WEIGHT>
613.78948

> <PUBCHEM_OPENEYE_CAN_SMILES>
CC(C)(C)NC(=O)C1CN(CCN1CC(CC(CC2=CC=CC=C2)C(=O)NC3C(CC4=CC=CC=C34)O)O)CC5=CN=CC=C5

> <PUBCHEM_OPENEYE_ISO_SMILES>
CC(C)(C)NC(=O)[C@@H]1CN(CCN1C[C@H](C[C@@H](CC2=CC=CC=C2)C(=O)N[C@@H]3[C@@H](CC4=CC=CC=C34)O)O)CC5=CN=CC=C5

> <PUBCHEM_CACTVS_TPSA>
118

> <PUBCHEM_MONOISOTOPIC_WEIGHT>
613.362805

> <PUBCHEM_TOTAL_CHARGE>
0

> <PUBCHEM_HEAVY_ATOM_COUNT>
45

> <PUBCHEM_ATOM_DEF_STEREO_COUNT>
5

> <PUBCHEM_ATOM_UDEF_STEREO_COUNT>
0

> <PUBCHEM_BOND_DEF_STEREO_COUNT>
0

> <PUBCHEM_BOND_UDEF_STEREO_COUNT>
0

> <PUBCHEM_ISOTOPIC_ATOM_COUNT>
0

> <PUBCHEM_COMPONENT_COUNT>
1

> <PUBCHEM_CACTVS_TAUTO_COUNT>
4

> <PUBCHEM_COORDINATE_TYPE>
1
5
255

> <PUBCHEM_BONDANNOTATIONS>
15  1  5
10  19  6
17  16  5
20  2  6
23  26  8
23  29  8
26  31  8
28  37  8
28  38  8
29  35  8
30  39  8
30  40  8
31  36  8
35  36  8
37  41  8
39  42  8
40  43  8
41  45  8
42  44  8
43  44  8
18  7  6
9  38  8
9  45  8

$$$$

