   Color/Form

     * White or yellowish-white minute, triclinic crystals, often twinned
     * White rhombic needles
     * Pale yellow powder

   from [1]HSDB

   Odor
        ODORLESS
   from [2]HSDB

   Melting Point
        262.5 deg C
   from [3]HSDB

   Density/Specific Gravity
        1.277 @ 32 deg C
   from [4]HSDB

   Dissociation Constants
        pKa = 9.7 at 25 deg C
   from [5]HSDB

   Octanol/Water Partition Coefficient
        log Kow = 2.41
   from [6]HSDB

   Solubilities

     * 1 g dissolves in 12 ml alcohol, in about 100 ml ether; sol in dil
       solutions of Alkali hydroxides and hot solutions of alkali
       carborates forming a red soln
     * Insoluble in benzene and petroleum ether; slightly soluble in
       carbon disulfide; soluble in ethyl ether, chloroform, and toluene;
       very soluble in ethanol, acetone, and pyrene.
     * In water, 400 mg/L @ room temperature

   from [7]HSDB

   Spectral Properties

     * MAX ABSORPTION (ALKALI-ALCOHOL): 550 NM (LOG E= 3.90)
     * IR: 1334 (Coblentz Society Spectral Collection)
     * UV: 2188 (Sadtler Research Laboratories Spectral Collection)
     * NMR: 14709 (Sadtler Research Laboratories Spectral Collection)
     * MASS: 15039 (NIST/EPA/MSDC Mass Spectral Database, 1990 version)
     * UV max (methanol): 205, 229, 276 nm (E 27261.147, 14692.144,
       2006.369)

   from [8]HSDB

   Vapor Pressure
        6.7X10-13 mm Hg @ 25 deg C /Estimated/
   from [9]HSDB

   Other Chemical/Physical Properties

     * Solutions are colorless to pH 8.5; pink to deep-red, above pH 9
     * Forms an almost colorless solution in neutral or acid solution,
       pink to deep red in presence of alkali, but colorless in the
       presence of large amounts of alkali.
     * Henry's Law constant = 9.0X10-16 atm-cu m/mol @ 25 deg C
       /Estimated/
     * Hydroxyl radical reaction rate constant = 8.4X10-11 cu
       cm/molecule-sec @ 25 deg C /Estimated/

   from [10]HSDB

   Computed Properties
   Molecular Weight                  318.32276 [g/mol]
   Molecular Formula                 C[20]H[14]O[4]
   XLogP3                            3.6
   H-Bond Donor                      2
   H-Bond Acceptor                   4
   Rotatable Bond Count              2
   Tautomer Count                    3
   Exact Mass                        318.089209
   MonoIsotopic Mass                 318.089209
   Topological Polar Surface Area    66.8
   Heavy Atom Count                  24
   Formal Charge                     0
   Complexity                        438
   Isotope Atom Count                0
   Defined Atom Stereocenter Count   0
   Undefined Atom Stereocenter Count 0
   Defined Bond Stereocenter Count   0
   Undefined Bond Stereocenter Count 0
   Covalently-Bonded Unit Count      1
   Feature 3D Acceptor Count         1
   Feature 3D Donor Count            2
   Feature 3D Ring Count             4
   Effective Rotor Count             2.4
   Conformer Sampling RMSD           0.6
   CID Conformer Count               [11]2

References

   1. http://toxnet.nlm.nih.gov/cgi-bin/sis/search/r?dbs+hsdb:@term+@rn+@rel+77-09-8
   2. http://toxnet.nlm.nih.gov/cgi-bin/sis/search/r?dbs+hsdb:@term+@rn+@rel+77-09-8
   3. http://toxnet.nlm.nih.gov/cgi-bin/sis/search/r?dbs+hsdb:@term+@rn+@rel+77-09-8
   4. http://toxnet.nlm.nih.gov/cgi-bin/sis/search/r?dbs+hsdb:@term+@rn+@rel+77-09-8
   5. http://toxnet.nlm.nih.gov/cgi-bin/sis/search/r?dbs+hsdb:@term+@rn+@rel+77-09-8
   6. http://toxnet.nlm.nih.gov/cgi-bin/sis/search/r?dbs+hsdb:@term+@rn+@rel+77-09-8
   7. http://toxnet.nlm.nih.gov/cgi-bin/sis/search/r?dbs+hsdb:@term+@rn+@rel+77-09-8
   8. http://toxnet.nlm.nih.gov/cgi-bin/sis/search/r?dbs+hsdb:@term+@rn+@rel+77-09-8
   9. http://toxnet.nlm.nih.gov/cgi-bin/sis/search/r?dbs+hsdb:@term+@rn+@rel+77-09-8
  10. http://toxnet.nlm.nih.gov/cgi-bin/sis/search/r?dbs+hsdb:@term+@rn+@rel+77-09-8
  11. http://pubchem.ncbi.nlm.nih.gov/vw3d/vw3d.cgi?cid=4764
