   Color/Form

     * Crystals
     * White crystalline powder

   from [1]HSDB

   Taste
        Tasteless
   from [2]HSDB

   Dissociation Constants
        pKa = 10.5
   from [3]HSDB

   Octanol/Water Partition Coefficient
        log Kow = 0.54 (est)
   from [4]HSDB

   Solubilities

     * Practically insol in ether, acetone, dil hydrochloric acid; sol in
       propylene glycol (1%) and hot alcohol
     * In water, 556 mg/L at 25 deg C (est)

   from [5]HSDB

   Spectral Properties

     * UV: 989 (Absorption Spectra in the UV and visible Regions, Academic
       Press, New York)
     * Intense mass spectral peaks: 90 m/z, 118 m/z, 190 m/z, 204 m/z.

   from [6]HSDB

   Vapor Pressure
        7.5X10-8 mm Hg at 25 deg C (est)
   from [7]HSDB

   Other Chemical/Physical Properties

     * Decomp: 256-257 deg C
     * Henry's Law constant = 1.6X10-12 atm-cu m/mole at 25 deg C (est)
     * Hydroxyl radical reaction rate constant = 1.6X10-11 cu
       cm/molecule-sec at 25 deg C (est)

   from [8]HSDB

   Computed Properties
   Molecular Weight                  176.17202 [g/mol]
   Molecular Formula                 C[9]H[8]N[2]O[2]
   XLogP3-AA                         0.9
   H-Bond Donor                      1
   H-Bond Acceptor                   2
   Rotatable Bond Count              1
   Tautomer Count                    5
   Exact Mass                        176.058578
   MonoIsotopic Mass                 176.058578
   Topological Polar Surface Area    64.7
   Heavy Atom Count                  13
   Formal Charge                     0
   Complexity                        244
   Isotope Atom Count                0
   Defined Atom Stereocenter Count   0
   Undefined Atom Stereocenter Count 1
   Defined Bond Stereocenter Count   0
   Undefined Bond Stereocenter Count 0
   Covalently-Bonded Unit Count      1
   Feature 3D Acceptor Count         1
   Feature 3D Donor Count            2
   Feature 3D Ring Count             2
   Effective Rotor Count             1.4
   Conformer Sampling RMSD           0.4
   CID Conformer Count               [9]2

References

   1. http://toxnet.nlm.nih.gov/cgi-bin/sis/search/r?dbs+hsdb:@term+@rn+@rel+2152-34-3
   2. http://toxnet.nlm.nih.gov/cgi-bin/sis/search/r?dbs+hsdb:@term+@rn+@rel+2152-34-3
   3. http://toxnet.nlm.nih.gov/cgi-bin/sis/search/r?dbs+hsdb:@term+@rn+@rel+2152-34-3
   4. http://toxnet.nlm.nih.gov/cgi-bin/sis/search/r?dbs+hsdb:@term+@rn+@rel+2152-34-3
   5. http://toxnet.nlm.nih.gov/cgi-bin/sis/search/r?dbs+hsdb:@term+@rn+@rel+2152-34-3
   6. http://toxnet.nlm.nih.gov/cgi-bin/sis/search/r?dbs+hsdb:@term+@rn+@rel+2152-34-3
   7. http://toxnet.nlm.nih.gov/cgi-bin/sis/search/r?dbs+hsdb:@term+@rn+@rel+2152-34-3
   8. http://toxnet.nlm.nih.gov/cgi-bin/sis/search/r?dbs+hsdb:@term+@rn+@rel+2152-34-3
   9. http://pubchem.ncbi.nlm.nih.gov/vw3d/vw3d.cgi?cid=4723
