   Color/Form
        COLORLESS OILY LIQUID
   from [1]HSDB

   Odor
        ODOR REMINISCENT OF AMYL ACETATE
   from [2]HSDB

   Boiling Point
        173 DEG C
   from [3]HSDB

   Melting Point
        Freezing point = -65 deg C
   from [4]HSDB

   Density/Specific Gravity
        0.968 g/cu cm at 20 deg C
   from [5]HSDB

   pH
        ACID VALUE: 0.2 MAX
   from [6]HSDB

   Solubilities
        Very soluble in ethyl ether and ethanol.
   from [7]HSDB

   Spectral Properties

     * SADTLER REFERENCE NUMBER: 10579 (IR, GRATING)
     * IR: 22788 (Sadtler Research Laboratories Prism Collection)
     * Index of Refraction = 1.442 at 20 deg C/D

   from [8]HSDB

   Vapor Density
        4.9 (AIR= 1)
   from [9]HSDB

   Vapor Pressure
        11 mm Hg @ 25 deg C
   from [10]HSDB

   Relative Evaporation Rate
        77 (ETHER= 1)
   from [11]HSDB

   Other Chemical/Physical Properties

     * CONVERSION FACTORS: 1 PPM= 5.8 MG/CU M; 1 MG/L= 156 PPM
     * CAN REACT WITH OXIDIZING MATERIALS
     * VAPOR PRESSURE = 7 MM HG @ 30 DEG C

   from [12]HSDB

   Computed Properties
   Molecular Weight                  142.19556 [g/mol]
   Molecular Formula                 C[8]H[14]O[2]
   XLogP3-AA                         1.9
   H-Bond Donor                      0
   H-Bond Acceptor                   2
   Rotatable Bond Count              2
   Exact Mass                        142.09938
   MonoIsotopic Mass                 142.09938
   Topological Polar Surface Area    26.3
   Heavy Atom Count                  10
   Formal Charge                     0
   Complexity                        114
   Isotope Atom Count                0
   Defined Atom Stereocenter Count   0
   Undefined Atom Stereocenter Count 0
   Defined Bond Stereocenter Count   0
   Undefined Bond Stereocenter Count 0
   Covalently-Bonded Unit Count      1
   Feature 3D Acceptor Count         1
   Feature 3D Ring Count             1
   Effective Rotor Count             3.2
   Conformer Sampling RMSD           0.6
   CID Conformer Count               [13]11

References

   1. http://toxnet.nlm.nih.gov/cgi-bin/sis/search/r?dbs+hsdb:@term+@rn+@rel+622-45-7
   2. http://toxnet.nlm.nih.gov/cgi-bin/sis/search/r?dbs+hsdb:@term+@rn+@rel+622-45-7
   3. http://toxnet.nlm.nih.gov/cgi-bin/sis/search/r?dbs+hsdb:@term+@rn+@rel+622-45-7
   4. http://toxnet.nlm.nih.gov/cgi-bin/sis/search/r?dbs+hsdb:@term+@rn+@rel+622-45-7
   5. http://toxnet.nlm.nih.gov/cgi-bin/sis/search/r?dbs+hsdb:@term+@rn+@rel+622-45-7
   6. http://toxnet.nlm.nih.gov/cgi-bin/sis/search/r?dbs+hsdb:@term+@rn+@rel+622-45-7
   7. http://toxnet.nlm.nih.gov/cgi-bin/sis/search/r?dbs+hsdb:@term+@rn+@rel+622-45-7
   8. http://toxnet.nlm.nih.gov/cgi-bin/sis/search/r?dbs+hsdb:@term+@rn+@rel+622-45-7
   9. http://toxnet.nlm.nih.gov/cgi-bin/sis/search/r?dbs+hsdb:@term+@rn+@rel+622-45-7
  10. http://toxnet.nlm.nih.gov/cgi-bin/sis/search/r?dbs+hsdb:@term+@rn+@rel+622-45-7
  11. http://toxnet.nlm.nih.gov/cgi-bin/sis/search/r?dbs+hsdb:@term+@rn+@rel+622-45-7
  12. http://toxnet.nlm.nih.gov/cgi-bin/sis/search/r?dbs+hsdb:@term+@rn+@rel+622-45-7
  13. http://pubchem.ncbi.nlm.nih.gov/vw3d/vw3d.cgi?cid=12146
