6326954
  -OEChem-07051213072D

  1  0  0     0  0  0  0  0  0999 V2000
    2.0000    0.0000    0.0000 Ge  0  0  0  0  0 15  0  0  0  0  0  0
M  END
> <PUBCHEM_COMPOUND_CID>
6326954

> <PUBCHEM_COMPOUND_CANONICALIZED>
1

> <PUBCHEM_CACTVS_COMPLEXITY>
0

> <PUBCHEM_CACTVS_HBOND_ACCEPTOR>
0

> <PUBCHEM_CACTVS_HBOND_DONOR>
0

> <PUBCHEM_CACTVS_ROTATABLE_BOND>
0

> <PUBCHEM_CACTVS_SUBSKEYS>
AAADcQAAAAAAAAAAgAAAAAAAAAAAAAAAAAAAAAAAAAAAAAAAAAAAAAAAAAAAAAAAAAAAAAAAAAAAAAAAAAAAAAAAAAAAAAAAAAAAAAAAAAAAAAAAAAAAAAAAAAAAAAAAAAAAAAAAAAAAAAAAAAAAAAAAAA==

> <PUBCHEM_IUPAC_OPENEYE_NAME>
germanium

> <PUBCHEM_IUPAC_CAS_NAME>
germanium

> <PUBCHEM_IUPAC_NAME>
germanium

> <PUBCHEM_IUPAC_SYSTEMATIC_NAME>
germanium

> <PUBCHEM_IUPAC_TRADITIONAL_NAME>
germanium

> <PUBCHEM_IUPAC_INCHI>
InChI=1S/Ge

> <PUBCHEM_IUPAC_INCHIKEY>
GNPVGFCGXDBREM-UHFFFAOYSA-N

> <PUBCHEM_EXACT_MASS>
73.921178

> <PUBCHEM_MOLECULAR_FORMULA>
Ge

> <PUBCHEM_MOLECULAR_WEIGHT>
72.64

> <PUBCHEM_OPENEYE_CAN_SMILES>
[Ge]

> <PUBCHEM_OPENEYE_ISO_SMILES>
[Ge]

> <PUBCHEM_CACTVS_TPSA>
0

> <PUBCHEM_MONOISOTOPIC_WEIGHT>
73.921178

> <PUBCHEM_TOTAL_CHARGE>
0

> <PUBCHEM_HEAVY_ATOM_COUNT>
1

> <PUBCHEM_ATOM_DEF_STEREO_COUNT>
0

> <PUBCHEM_ATOM_UDEF_STEREO_COUNT>
0

> <PUBCHEM_BOND_DEF_STEREO_COUNT>
0

> <PUBCHEM_BOND_UDEF_STEREO_COUNT>
0

> <PUBCHEM_ISOTOPIC_ATOM_COUNT>
0

> <PUBCHEM_COMPONENT_COUNT>
1

> <PUBCHEM_CACTVS_TAUTO_COUNT>
1

> <PUBCHEM_COORDINATE_TYPE>
1
5
255

$$$$

