   Color/Form
        Colorless liquid
   from [1]HSDB

   Odor

     * Mild, ether-like odor.
     * Slight, rancid odor.
     * Weak, pleasant odor.
     * Sweet, ester

   from [2]HSDB

   Boiling Point
        168.4 deg C
   from [3]HSDB

   Melting Point
        -74.8 deg C
   from [4]HSDB

   Critical Temperature and Pressure
        Critical temperature: 633.9 K
   from [5]HSDB

   Density/Specific Gravity
        0.9012 @ 20 deg C/4 deg C
   from [6]HSDB

   Heat of Combustion
        -12,915 btu/lb = -7,180 cal/g = -848,000 cal/mol
   from [7]HSDB

   Heat of Vaporization
        13.53 kcal/mol=56.59 kJ/mol
   from [8]HSDB

   Octanol/Water Partition Coefficient
        log Kow= 0.83
   from [9]HSDB

   Solubilities

     * Miscible in ethyl alcohol, ethyl ether. Slightly soluble in carbon
       tetrachloride.
     * Soluble in mineral oil, most organic solvents.
     * Mixes in all proportions with acetone, benzene, carbon
       tetrachloride, ethyl ether, n-heptane and water; miscible in all
       proportions with many ketones, ethers, alcohols, aromatic paraffin
       and halogenated hydrocarbons.
     * Miscible in water.

   from [10]HSDB

   Spectral Properties

     * SADTLER REF NUMBER: 2292 (IR, PRISM); 10979 (IR, GRATING)
     * Index of refraction: 1.4198 @ 20 deg C/D
     * Intense mass spectral peaks: 57 e/m (100%), 45 e/m (38%), 29 e/m
       (35%) 41 m/z (31%), 87 m/z (16%)
     * IR: 1052 (Coblentz Society Spectral Collection)
     * NMR: 4023 (Sadtler Research Laboratories Spectral Collection)

   from [11]HSDB

   Surface Tension
        Surface tension: 26.14 mN/m (=dyn/cm) @ 25 deg C.
   from [12]HSDB

   Vapor Density
        4.1 (Air= 1)
   from [13]HSDB

   Vapor Pressure
        0.88 mm Hg @ 25 deg C
   from [14]HSDB

   Relative Evaporation Rate
        0.08 (Butyl acetate = 1.0)
   from [15]HSDB

   Viscosity
        3.15 centistokes @ 25 deg C
   from [16]HSDB

   Other Chemical/Physical Properties

     * Critical pressure: 3.90 MPa
     * Dipole moment=2.08 debye
     * Acidity (as acetic acid), % by wt (max) 0.01.
     * Blush resistance @ 27 deg C: 96% rh; Coefficient of expansion:
       0.00092 cu cm
     * Henry's Law constant = 1.6X10-6 atm-cu m/mole @ 25 deg C
     * Hydroxyl radical reaction rate constant = 1.86X10-11 cu-cm/molc sec
       @ 25 deg C

   from [17]HSDB

   Computed Properties
   Molecular Weight                  118.17416 [g/mol]
   Molecular Formula                 C[6]H[14]O[2]
   XLogP3                            0.8
   H-Bond Donor                      1
   H-Bond Acceptor                   2
   Rotatable Bond Count              5
   Exact Mass                        118.09938
   MonoIsotopic Mass                 118.09938
   Topological Polar Surface Area    29.5
   Heavy Atom Count                  8
   Formal Charge                     0
   Complexity                        37.5
   Isotope Atom Count                0
   Defined Atom Stereocenter Count   0
   Undefined Atom Stereocenter Count 0
   Defined Bond Stereocenter Count   0
   Undefined Bond Stereocenter Count 0
   Covalently-Bonded Unit Count      1
   Feature 3D Acceptor Count         2
   Feature 3D Donor Count            1
   Feature 3D Hydrophobe Count       1
   Effective Rotor Count             5
   Conformer Sampling RMSD           0.6
   CID Conformer Count               [18]72

References

   1. http://toxnet.nlm.nih.gov/cgi-bin/sis/search/r?dbs+hsdb:@term+@rn+@rel+111-76-2
   2. http://toxnet.nlm.nih.gov/cgi-bin/sis/search/r?dbs+hsdb:@term+@rn+@rel+111-76-2
   3. http://toxnet.nlm.nih.gov/cgi-bin/sis/search/r?dbs+hsdb:@term+@rn+@rel+111-76-2
   4. http://toxnet.nlm.nih.gov/cgi-bin/sis/search/r?dbs+hsdb:@term+@rn+@rel+111-76-2
   5. http://toxnet.nlm.nih.gov/cgi-bin/sis/search/r?dbs+hsdb:@term+@rn+@rel+111-76-2
   6. http://toxnet.nlm.nih.gov/cgi-bin/sis/search/r?dbs+hsdb:@term+@rn+@rel+111-76-2
   7. http://toxnet.nlm.nih.gov/cgi-bin/sis/search/r?dbs+hsdb:@term+@rn+@rel+111-76-2
   8. http://toxnet.nlm.nih.gov/cgi-bin/sis/search/r?dbs+hsdb:@term+@rn+@rel+111-76-2
   9. http://toxnet.nlm.nih.gov/cgi-bin/sis/search/r?dbs+hsdb:@term+@rn+@rel+111-76-2
  10. http://toxnet.nlm.nih.gov/cgi-bin/sis/search/r?dbs+hsdb:@term+@rn+@rel+111-76-2
  11. http://toxnet.nlm.nih.gov/cgi-bin/sis/search/r?dbs+hsdb:@term+@rn+@rel+111-76-2
  12. http://toxnet.nlm.nih.gov/cgi-bin/sis/search/r?dbs+hsdb:@term+@rn+@rel+111-76-2
  13. http://toxnet.nlm.nih.gov/cgi-bin/sis/search/r?dbs+hsdb:@term+@rn+@rel+111-76-2
  14. http://toxnet.nlm.nih.gov/cgi-bin/sis/search/r?dbs+hsdb:@term+@rn+@rel+111-76-2
  15. http://toxnet.nlm.nih.gov/cgi-bin/sis/search/r?dbs+hsdb:@term+@rn+@rel+111-76-2
  16. http://toxnet.nlm.nih.gov/cgi-bin/sis/search/r?dbs+hsdb:@term+@rn+@rel+111-76-2
  17. http://toxnet.nlm.nih.gov/cgi-bin/sis/search/r?dbs+hsdb:@term+@rn+@rel+111-76-2
  18. http://pubchem.ncbi.nlm.nih.gov/vw3d/vw3d.cgi?cid=8133
