5583
  -OEChem-07051213012D

 50 52  0     0  0  0  0  0  0999 V2000
   12.1311    0.6646    0.0000 O   0  0  0  0  0  0  0  0  0  0  0  0
   10.3875   -2.3287    0.0000 O   0  0  0  0  0  0  0  0  0  0  0  0
   12.1234   -1.3354    0.0000 O   0  0  0  0  0  0  0  0  0  0  0  0
    8.6671    0.6779    0.0000 N   0  0  0  0  0  0  0  0  0  0  0  0
    4.2690    2.2054    0.0000 N   0  0  0  0  0  0  0  0  0  0  0  0
    3.4030    0.7054    0.0000 N   0  0  0  0  0  0  0  0  0  0  0  0
    4.2690   -0.7946    0.0000 N   0  0  0  0  0  0  0  0  0  0  0  0
    2.5369    2.2054    0.0000 N   0  0  0  0  0  0  0  0  0  0  0  0
    6.9350    0.6846    0.0000 C   0  0  0  0  0  0  0  0  0  0  0  0
    6.0290    0.1707    0.0000 C   0  0  0  0  0  0  0  0  0  0  0  0
    7.7991    0.1813    0.0000 C   0  0  0  0  0  0  0  0  0  0  0  0
    5.1350    0.7054    0.0000 C   0  0  0  0  0  0  0  0  0  0  0  0
    5.1350    1.7054    0.0000 C   0  0  0  0  0  0  0  0  0  0  0  0
    6.9350    1.7262    0.0000 C   0  0  0  0  0  0  0  0  0  0  0  0
    6.0290    2.2401    0.0000 C   0  0  0  0  0  0  0  0  0  0  0  0
    6.0174   -0.8292    0.0000 C   0  0  0  0  0  0  0  0  0  0  0  0
    9.5312    0.1746    0.0000 C   0  0  0  0  0  0  0  0  0  0  0  0
    4.2690    0.2054    0.0000 C   0  0  0  0  0  0  0  0  0  0  0  0
    9.5273   -0.8254    0.0000 C   0  0  0  0  0  0  0  0  0  0  0  0
   10.3991    0.6712    0.0000 C   0  0  0  0  0  0  0  0  0  0  0  0
   11.2632    0.1679    0.0000 C   0  0  0  0  0  0  0  0  0  0  0  0
   10.3914   -1.3288    0.0000 C   0  0  0  0  0  0  0  0  0  0  0  0
   11.2593   -0.8321    0.0000 C   0  0  0  0  0  0  0  0  0  0  0  0
    3.4030    1.7054    0.0000 C   0  0  0  0  0  0  0  0  0  0  0  0
   12.1350    1.6646    0.0000 C   0  0  0  0  0  0  0  0  0  0  0  0
    9.5196   -2.8254    0.0000 C   0  0  0  0  0  0  0  0  0  0  0  0
   12.9914   -0.8388    0.0000 C   0  0  0  0  0  0  0  0  0  0  0  0
    7.3988   -0.2922    0.0000 H   0  0  0  0  0  0  0  0  0  0  0  0
    8.1958   -0.2952    0.0000 H   0  0  0  0  0  0  0  0  0  0  0  0
    7.4708    2.0383    0.0000 H   0  0  0  0  0  0  0  0  0  0  0  0
    8.6694    1.2979    0.0000 H   0  0  0  0  0  0  0  0  0  0  0  0
    6.0218    2.8600    0.0000 H   0  0  0  0  0  0  0  0  0  0  0  0
    5.3974   -0.8220    0.0000 H   0  0  0  0  0  0  0  0  0  0  0  0
    6.0102   -1.4492    0.0000 H   0  0  0  0  0  0  0  0  0  0  0  0
    6.6374   -0.8364    0.0000 H   0  0  0  0  0  0  0  0  0  0  0  0
    8.9892   -1.1333    0.0000 H   0  0  0  0  0  0  0  0  0  0  0  0
   10.4015    1.2912    0.0000 H   0  0  0  0  0  0  0  0  0  0  0  0
    3.7320   -1.1046    0.0000 H   0  0  0  0  0  0  0  0  0  0  0  0
    4.8059   -1.1046    0.0000 H   0  0  0  0  0  0  0  0  0  0  0  0
    2.5369    2.8254    0.0000 H   0  0  0  0  0  0  0  0  0  0  0  0
    2.0000    1.8954    0.0000 H   0  0  0  0  0  0  0  0  0  0  0  0
   12.7550    1.6622    0.0000 H   0  0  0  0  0  0  0  0  0  0  0  0
   12.1374    2.2846    0.0000 H   0  0  0  0  0  0  0  0  0  0  0  0
   11.5150    1.6669    0.0000 H   0  0  0  0  0  0  0  0  0  0  0  0
    9.2117   -2.2873    0.0000 H   0  0  0  0  0  0  0  0  0  0  0  0
    8.9815   -3.1333    0.0000 H   0  0  0  0  0  0  0  0  0  0  0  0
    9.8275   -3.3635    0.0000 H   0  0  0  0  0  0  0  0  0  0  0  0
   13.2993   -1.3769    0.0000 H   0  0  0  0  0  0  0  0  0  0  0  0
   13.5295   -0.5308    0.0000 H   0  0  0  0  0  0  0  0  0  0  0  0
   12.6834   -0.3006    0.0000 H   0  0  0  0  0  0  0  0  0  0  0  0
  1 21  1  0  0  0  0
  1 25  1  0  0  0  0
  2 22  1  0  0  0  0
  2 26  1  0  0  0  0
  3 23  1  0  0  0  0
  3 27  1  0  0  0  0
  4 11  1  0  0  0  0
  4 17  1  0  0  0  0
  4 31  1  0  0  0  0
  5 13  1  0  0  0  0
  5 24  2  0  0  0  0
  6 18  2  0  0  0  0
  6 24  1  0  0  0  0
  7 18  1  0  0  0  0
  7 38  1  0  0  0  0
  7 39  1  0  0  0  0
  8 24  1  0  0  0  0
  8 40  1  0  0  0  0
  8 41  1  0  0  0  0
  9 10  2  0  0  0  0
  9 11  1  0  0  0  0
  9 14  1  0  0  0  0
 10 12  1  0  0  0  0
 10 16  1  0  0  0  0
 11 28  1  0  0  0  0
 11 29  1  0  0  0  0
 12 13  2  0  0  0  0
 12 18  1  0  0  0  0
 13 15  1  0  0  0  0
 14 15  2  0  0  0  0
 14 30  1  0  0  0  0
 15 32  1  0  0  0  0
 16 33  1  0  0  0  0
 16 34  1  0  0  0  0
 16 35  1  0  0  0  0
 17 19  2  0  0  0  0
 17 20  1  0  0  0  0
 19 22  1  0  0  0  0
 19 36  1  0  0  0  0
 20 21  2  0  0  0  0
 20 37  1  0  0  0  0
 21 23  1  0  0  0  0
 22 23  2  0  0  0  0
 25 42  1  0  0  0  0
 25 43  1  0  0  0  0
 25 44  1  0  0  0  0
 26 45  1  0  0  0  0
 26 46  1  0  0  0  0
 26 47  1  0  0  0  0
 27 48  1  0  0  0  0
 27 49  1  0  0  0  0
 27 50  1  0  0  0  0
M  END
> <PUBCHEM_COMPOUND_CID>
5583

> <PUBCHEM_COMPOUND_CANONICALIZED>
1

> <PUBCHEM_CACTVS_COMPLEXITY>
457

> <PUBCHEM_CACTVS_HBOND_ACCEPTOR>
8

> <PUBCHEM_CACTVS_HBOND_DONOR>
3

> <PUBCHEM_CACTVS_ROTATABLE_BOND>
6

> <PUBCHEM_CACTVS_SUBSKEYS>
AAADceB7sAAAAAAAAAAAAAAAAAAAAAAAAAA8YIAAAAAAAACx9AAAHgAQAAAADAzBngYz9vbIFACgAyZiZACCiCkhIqAJmKA+7JiNL6LE+duENCpv0B/K6Cew8M8OiEACSgASQAAQgASUACSAAAAAAAAAAA==

> <PUBCHEM_IUPAC_OPENEYE_NAME>
5-methyl-6-[(3,4,5-trimethoxyanilino)methyl]quinazoline-2,4-diamine

> <PUBCHEM_IUPAC_CAS_NAME>
5-methyl-6-[(3,4,5-trimethoxyanilino)methyl]quinazoline-2,4-diamine

> <PUBCHEM_IUPAC_NAME>
5-methyl-6-[(3,4,5-trimethoxyanilino)methyl]quinazoline-2,4-diamine

> <PUBCHEM_IUPAC_SYSTEMATIC_NAME>
5-methyl-6-[[(3,4,5-trimethoxyphenyl)amino]methyl]quinazoline-2,4-diamine

> <PUBCHEM_IUPAC_TRADITIONAL_NAME>
(2,4-diamino-5-methyl-quinazolin-6-yl)methyl-(3,4,5-trimethoxyphenyl)amine

> <PUBCHEM_IUPAC_INCHI>
InChI=1S/C19H23N5O3/c1-10-11(5-6-13-16(10)18(20)24-19(21)23-13)9-22-12-7-14(25-2)17(27-4)15(8-12)26-3/h5-8,22H,9H2,1-4H3,(H4,20,21,23,24)

> <PUBCHEM_IUPAC_INCHIKEY>
NOYPYLRCIDNJJB-UHFFFAOYSA-N

> <PUBCHEM_XLOGP3>
2.5

> <PUBCHEM_EXACT_MASS>
369.18009

> <PUBCHEM_MOLECULAR_FORMULA>
C19H23N5O3

> <PUBCHEM_MOLECULAR_WEIGHT>
369.41762

> <PUBCHEM_OPENEYE_CAN_SMILES>
CC1=C(C=CC2=C1C(=NC(=N2)N)N)CNC3=CC(=C(C(=C3)OC)OC)OC

> <PUBCHEM_OPENEYE_ISO_SMILES>
CC1=C(C=CC2=C1C(=NC(=N2)N)N)CNC3=CC(=C(C(=C3)OC)OC)OC

> <PUBCHEM_CACTVS_TPSA>
118

> <PUBCHEM_MONOISOTOPIC_WEIGHT>
369.18009

> <PUBCHEM_TOTAL_CHARGE>
0

> <PUBCHEM_HEAVY_ATOM_COUNT>
27

> <PUBCHEM_ATOM_DEF_STEREO_COUNT>
0

> <PUBCHEM_ATOM_UDEF_STEREO_COUNT>
0

> <PUBCHEM_BOND_DEF_STEREO_COUNT>
0

> <PUBCHEM_BOND_UDEF_STEREO_COUNT>
0

> <PUBCHEM_ISOTOPIC_ATOM_COUNT>
0

> <PUBCHEM_COMPONENT_COUNT>
1

> <PUBCHEM_CACTVS_TAUTO_COUNT>
41

> <PUBCHEM_COORDINATE_TYPE>
1
5
255

> <PUBCHEM_BONDANNOTATIONS>
10  12  8
12  13  8
12  18  8
13  15  8
14  15  8
17  19  8
17  20  8
19  22  8
20  21  8
21  23  8
22  23  8
5  13  8
5  24  8
6  18  8
6  24  8
9  10  8
9  14  8

$$$$

