   Color/Form
        White solid from cyclohexane
   from [1]HSDB

   Melting Point
        68.5-69 deg C
   from [2]HSDB

   Octanol/Water Partition Coefficient
        log Kow = 3.14 (est)
   from [3]HSDB

   Solubilities
        In water, 586 mg/L at 25 deg C (est)
   from [4]HSDB

   Spectral Properties
        Specific optical rotation: +161.4 deg at 20 deg C/589 ( c = 0.038
   g/2 ml ethanol)
   from [5]HSDB

   Vapor Pressure
        7.50X10-5 mm Hg at 25 deg C (est)
   from [6]HSDB

   Other Chemical/Physical Properties

     * MW: 337.37. Crystalline solid; MP: 208.5-210 deg C; Specific
       optical rotation: +114 deg at 20 deg C/D ( c = 0.0128 g/2 ml
       ethanol) /Maleate/
     * White solid from cyclohexane; MP: 68.5-69.5 deg C; Specific optical
       rotation: -160.8 deg at /589 ( c = 0.032 g/2 ml ethanol) /(-) Form/
     * Henry's Law constant = 2.57X10-8 atm-cu m/mol at 25 deg C (est)
     * Hydroxyl radical reaction rate constant = 3.29X10-11 cu
       cm/molec-sec at 25 deg C (est)

   from [7]HSDB

   Computed Properties
   Molecular Weight                  221.297 [g/mol]
   Molecular Formula                 C[16]H[15]N
   XLogP3-AA                         2.8
   H-Bond Donor                      1
   H-Bond Acceptor                   1
   Rotatable Bond Count              0
   Exact Mass                        221.120449
   MonoIsotopic Mass                 221.120449
   Topological Polar Surface Area    12
   Heavy Atom Count                  17
   Formal Charge                     0
   Complexity                        313
   Isotope Atom Count                0
   Defined Atom Stereocenter Count   2
   Undefined Atom Stereocenter Count 0
   Defined Bond Stereocenter Count   0
   Undefined Bond Stereocenter Count 0
   Covalently-Bonded Unit Count      1
   Feature 3D Donor Count            1
   Feature 3D Cation Count           1
   Feature 3D Ring Count             3
   Effective Rotor Count             0.4
   Conformer Sampling RMSD           0.4
   CID Conformer Count               [8]1

References

   1. http://toxnet.nlm.nih.gov/cgi-bin/sis/search/r?dbs+hsdb:@term+@rn+@rel+77086-21-6
   2. http://toxnet.nlm.nih.gov/cgi-bin/sis/search/r?dbs+hsdb:@term+@rn+@rel+77086-21-6
   3. http://toxnet.nlm.nih.gov/cgi-bin/sis/search/r?dbs+hsdb:@term+@rn+@rel+77086-21-6
   4. http://toxnet.nlm.nih.gov/cgi-bin/sis/search/r?dbs+hsdb:@term+@rn+@rel+77086-21-6
   5. http://toxnet.nlm.nih.gov/cgi-bin/sis/search/r?dbs+hsdb:@term+@rn+@rel+77086-21-6
   6. http://toxnet.nlm.nih.gov/cgi-bin/sis/search/r?dbs+hsdb:@term+@rn+@rel+77086-21-6
   7. http://toxnet.nlm.nih.gov/cgi-bin/sis/search/r?dbs+hsdb:@term+@rn+@rel+77086-21-6
   8. http://pubchem.ncbi.nlm.nih.gov/vw3d/vw3d.cgi?cid=180081
