49381
  -OEChem-07051213002D

 43 46  0     0  0  0  0  0  0999 V2000
    8.7204   -1.4271    0.0000 F   0  0  0  0  0  0  0  0  0  0  0  0
    3.9491    0.3375    0.0000 N   0  0  0  0  0  0  0  0  0  0  0  0
    3.0814    2.1394    0.0000 N   0  0  0  0  0  0  0  0  0  0  0  0
    5.3830   -0.5635    0.0000 N   0  0  0  0  0  0  0  0  0  0  0  0
    2.9519    0.4122    0.0000 C   0  0  0  0  0  0  0  0  0  0  0  0
    4.5125    1.1637    0.0000 C   0  0  0  0  0  0  0  0  0  0  0  0
    2.5180    1.3132    0.0000 C   0  0  0  0  0  0  0  0  0  0  0  0
    4.0786    2.0647    0.0000 C   0  0  0  0  0  0  0  0  0  0  0  0
    4.3830   -0.5635    0.0000 C   0  0  0  0  0  0  0  0  0  0  0  0
    3.7595   -1.3453    0.0000 C   0  0  0  0  0  0  0  0  0  0  0  0
    3.9820   -2.3202    0.0000 C   0  0  0  0  0  0  0  0  0  0  0  0
    2.6475    3.0404    0.0000 C   0  0  0  0  0  0  0  0  0  0  0  0
    4.8830   -2.7541    0.0000 C   0  0  0  0  0  0  0  0  0  0  0  0
    5.7840   -2.3202    0.0000 C   0  0  0  0  0  0  0  0  0  0  0  0
    6.0065   -1.3453    0.0000 C   0  0  0  0  0  0  0  0  0  0  0  0
    2.7690   -1.0230    0.0000 C   0  0  0  0  0  0  0  0  0  0  0  0
    3.2295   -3.0404    0.0000 C   0  0  0  0  0  0  0  0  0  0  0  0
    6.5365   -3.0404    0.0000 C   0  0  0  0  0  0  0  0  0  0  0  0
    2.0000   -1.7255    0.0000 C   0  0  0  0  0  0  0  0  0  0  0  0
    6.9970   -1.0230    0.0000 C   0  0  0  0  0  0  0  0  0  0  0  0
    2.2318   -2.7410    0.0000 C   0  0  0  0  0  0  0  0  0  0  0  0
    7.5342   -2.7411    0.0000 C   0  0  0  0  0  0  0  0  0  0  0  0
    7.7660   -1.7256    0.0000 C   0  0  0  0  0  0  0  0  0  0  0  0
    2.3551    0.2443    0.0000 H   0  0  0  0  0  0  0  0  0  0  0  0
    3.0137   -0.2047    0.0000 H   0  0  0  0  0  0  0  0  0  0  0  0
    4.9563    0.7308    0.0000 H   0  0  0  0  0  0  0  0  0  0  0  0
    5.0159    1.5257    0.0000 H   0  0  0  0  0  0  0  0  0  0  0  0
    4.6754    2.2326    0.0000 H   0  0  0  0  0  0  0  0  0  0  0  0
    4.0168    2.6816    0.0000 H   0  0  0  0  0  0  0  0  0  0  0  0
    2.0742    1.7461    0.0000 H   0  0  0  0  0  0  0  0  0  0  0  0
    2.0146    0.9513    0.0000 H   0  0  0  0  0  0  0  0  0  0  0  0
    3.2061    3.3094    0.0000 H   0  0  0  0  0  0  0  0  0  0  0  0
    2.3785    3.5990    0.0000 H   0  0  0  0  0  0  0  0  0  0  0  0
    2.0889    2.7714    0.0000 H   0  0  0  0  0  0  0  0  0  0  0  0
    4.4964   -3.2388    0.0000 H   0  0  0  0  0  0  0  0  0  0  0  0
    5.2696   -3.2388    0.0000 H   0  0  0  0  0  0  0  0  0  0  0  0
    2.6380   -0.4169    0.0000 H   0  0  0  0  0  0  0  0  0  0  0  0
    3.3744   -3.6432    0.0000 H   0  0  0  0  0  0  0  0  0  0  0  0
    6.3916   -3.6432    0.0000 H   0  0  0  0  0  0  0  0  0  0  0  0
    1.4083   -1.5405    0.0000 H   0  0  0  0  0  0  0  0  0  0  0  0
    7.1280   -0.4170    0.0000 H   0  0  0  0  0  0  0  0  0  0  0  0
    1.7789   -3.1645    0.0000 H   0  0  0  0  0  0  0  0  0  0  0  0
    7.9871   -3.1645    0.0000 H   0  0  0  0  0  0  0  0  0  0  0  0
  1 23  1  0  0  0  0
  2  5  1  0  0  0  0
  2  6  1  0  0  0  0
  2  9  1  0  0  0  0
  3  7  1  0  0  0  0
  3  8  1  0  0  0  0
  3 12  1  0  0  0  0
  4  9  2  0  0  0  0
  4 15  1  0  0  0  0
  5  7  1  0  0  0  0
  5 24  1  0  0  0  0
  5 25  1  0  0  0  0
  6  8  1  0  0  0  0
  6 26  1  0  0  0  0
  6 27  1  0  0  0  0
  7 30  1  0  0  0  0
  7 31  1  0  0  0  0
  8 28  1  0  0  0  0
  8 29  1  0  0  0  0
  9 10  1  0  0  0  0
 10 11  1  0  0  0  0
 10 16  2  0  0  0  0
 11 13  1  0  0  0  0
 11 17  2  0  0  0  0
 12 32  1  0  0  0  0
 12 33  1  0  0  0  0
 12 34  1  0  0  0  0
 13 14  1  0  0  0  0
 13 35  1  0  0  0  0
 13 36  1  0  0  0  0
 14 15  2  0  0  0  0
 14 18  1  0  0  0  0
 15 20  1  0  0  0  0
 16 19  1  0  0  0  0
 16 37  1  0  0  0  0
 17 21  1  0  0  0  0
 17 38  1  0  0  0  0
 18 22  2  0  0  0  0
 18 39  1  0  0  0  0
 19 21  2  0  0  0  0
 19 40  1  0  0  0  0
 20 23  2  0  0  0  0
 20 41  1  0  0  0  0
 21 42  1  0  0  0  0
 22 23  1  0  0  0  0
 22 43  1  0  0  0  0
M  END
> <PUBCHEM_COMPOUND_CID>
49381

> <PUBCHEM_COMPOUND_CANONICALIZED>
1

> <PUBCHEM_CACTVS_COMPLEXITY>
444

> <PUBCHEM_CACTVS_HBOND_ACCEPTOR>
3

> <PUBCHEM_CACTVS_HBOND_DONOR>
0

> <PUBCHEM_CACTVS_ROTATABLE_BOND>
1

> <PUBCHEM_CACTVS_SUBSKEYS>
AAADceB7AQAAAAAAAAAAAAAAAAAAAAAAAAA8YIAABAAAAAABQAAAHQAAAAAADAjBGAwzwIMAAACgAiZiZACCAAEgAgAJiAAoZJgIYKKAmZGUIAhggACIyAcQgMAOgAAAAAASAAAAAAAAACQAAAAAAAAAAA==

> <PUBCHEM_IUPAC_OPENEYE_NAME>
3-fluoro-6-(4-methylpiperazin-1-yl)-11H-benzo[c][1]benzazepine

> <PUBCHEM_IUPAC_CAS_NAME>
3-fluoro-6-(4-methyl-1-piperazinyl)-11H-benzo[c][1]benzazepine

> <PUBCHEM_IUPAC_NAME>
3-fluoro-6-(4-methylpiperazin-1-yl)-11H-benzo[c][1]benzazepine

> <PUBCHEM_IUPAC_SYSTEMATIC_NAME>
3-fluoranyl-6-(4-methylpiperazin-1-yl)-11H-benzo[c][1]benzazepine

> <PUBCHEM_IUPAC_TRADITIONAL_NAME>
3-fluoro-6-(4-methylpiperazino)-11H-benzo[c][1]benzazepine

> <PUBCHEM_IUPAC_INCHI>
InChI=1S/C19H20FN3/c1-22-8-10-23(11-9-22)19-17-5-3-2-4-14(17)12-15-6-7-16(20)13-18(15)21-19/h2-7,13H,8-12H2,1H3

> <PUBCHEM_IUPAC_INCHIKEY>
OBWGMKKHCLHVIE-UHFFFAOYSA-N

> <PUBCHEM_XLOGP3_AA>
2.9

> <PUBCHEM_EXACT_MASS>
309.164126

> <PUBCHEM_MOLECULAR_FORMULA>
C19H20FN3

> <PUBCHEM_MOLECULAR_WEIGHT>
309.380603

> <PUBCHEM_OPENEYE_CAN_SMILES>
CN1CCN(CC1)C2=NC3=C(CC4=CC=CC=C42)C=CC(=C3)F

> <PUBCHEM_OPENEYE_ISO_SMILES>
CN1CCN(CC1)C2=NC3=C(CC4=CC=CC=C42)C=CC(=C3)F

> <PUBCHEM_CACTVS_TPSA>
18.8

> <PUBCHEM_MONOISOTOPIC_WEIGHT>
309.164126

> <PUBCHEM_TOTAL_CHARGE>
0

> <PUBCHEM_HEAVY_ATOM_COUNT>
23

> <PUBCHEM_ATOM_DEF_STEREO_COUNT>
0

> <PUBCHEM_ATOM_UDEF_STEREO_COUNT>
0

> <PUBCHEM_BOND_DEF_STEREO_COUNT>
0

> <PUBCHEM_BOND_UDEF_STEREO_COUNT>
0

> <PUBCHEM_ISOTOPIC_ATOM_COUNT>
0

> <PUBCHEM_COMPONENT_COUNT>
1

> <PUBCHEM_CACTVS_TAUTO_COUNT>
1

> <PUBCHEM_COORDINATE_TYPE>
1
5
255

> <PUBCHEM_BONDANNOTATIONS>
10  11  8
10  16  8
11  17  8
14  15  8
14  18  8
15  20  8
16  19  8
17  21  8
18  22  8
19  21  8
20  23  8
22  23  8

$$$$

