   Color/Form
        Colorless oil
   from [1]HSDB

   Odor
        Slight characteristic odor
   from [2]HSDB

   Melting Point
        -3.35 deg C
   from [3]HSDB

   Density/Specific Gravity
        1.195 at 20 deg C
   from [4]HSDB

   Solubilities

     * Miscible with ethyl acetate and ether.
     * Solubility (23 deg C): 40 mg/l water; completely miscible with
       acetone, chloroform, dimethyl sulfoxide, ethanol, hexane, methanol,
       xylene.

   from [5]HSDB

   Spectral Properties
        IR: 1.5068 at 20 deg C/D
   from [6]HSDB

   Vapor Pressure
        6.5x10-5 mm Hg at 20 deg C
   from [7]HSDB

   Other Chemical/Physical Properties

     * Compatible with most other insecticides and fungicides, except
       those which are strongly alkaline.
     * VP: 8.6 mPa (20 deg C)

   from [8]HSDB

   Computed Properties
   Molecular Weight                  292.291742 [g/mol]
   Molecular Formula                 C[10]H[17]N[2]O[4]PS
   XLogP3-AA                         3.2
   H-Bond Donor                      0
   H-Bond Acceptor                   7
   Rotatable Bond Count              7
   Tautomer Count                    3
   Exact Mass                        292.064665
   MonoIsotopic Mass                 292.064665
   Topological Polar Surface Area    94.8
   Heavy Atom Count                  18
   Formal Charge                     0
   Complexity                        287
   Isotope Atom Count                0
   Defined Atom Stereocenter Count   0
   Undefined Atom Stereocenter Count 0
   Defined Bond Stereocenter Count   0
   Undefined Bond Stereocenter Count 0
   Covalently-Bonded Unit Count      1
   Feature 3D Acceptor Count         1
   Feature 3D Cation Count           1
   Feature 3D Hydrophobe Count       1
   Feature 3D Ring Count             1
   Effective Rotor Count             7
   Conformer Sampling RMSD           0.8
   CID Conformer Count               [9]144

References

   1. http://toxnet.nlm.nih.gov/cgi-bin/sis/search/r?dbs+hsdb:@term+@rn+@rel+38260-54-7
   2. http://toxnet.nlm.nih.gov/cgi-bin/sis/search/r?dbs+hsdb:@term+@rn+@rel+38260-54-7
   3. http://toxnet.nlm.nih.gov/cgi-bin/sis/search/r?dbs+hsdb:@term+@rn+@rel+38260-54-7
   4. http://toxnet.nlm.nih.gov/cgi-bin/sis/search/r?dbs+hsdb:@term+@rn+@rel+38260-54-7
   5. http://toxnet.nlm.nih.gov/cgi-bin/sis/search/r?dbs+hsdb:@term+@rn+@rel+38260-54-7
   6. http://toxnet.nlm.nih.gov/cgi-bin/sis/search/r?dbs+hsdb:@term+@rn+@rel+38260-54-7
   7. http://toxnet.nlm.nih.gov/cgi-bin/sis/search/r?dbs+hsdb:@term+@rn+@rel+38260-54-7
   8. http://toxnet.nlm.nih.gov/cgi-bin/sis/search/r?dbs+hsdb:@term+@rn+@rel+38260-54-7
   9. http://pubchem.ncbi.nlm.nih.gov/vw3d/vw3d.cgi?cid=37995
