   Chemical and Physical Properties References

   [1]USDA ARS - USDA chemical properties
   from [2]ChemIDplus

   Color/Form

     * Yellow powder
     * Colorless salt

   from [3]HSDB

   Melting Point
        Decomposes at 165-200 deg C
   from [4]HSDB

   Dissociation Constants
        pKa = 0.64
   from [5]HSDB

   Solubilities

     * In water = 1.2 kg/l at 25 deg C
     * Soluble in ethanol
     * In methanol 232, acetone 7.6, diethyl ether 0.2, benzene 0.07,
       carbon tetrachloride 0.04, heptane 0.02 (all in g/l, at 25 deg C)

   from [6]HSDB

   Vapor Pressure
        <0.1 mPa at 70 deg C
   from [7]HSDB

   Other Chemical/Physical Properties

     * Deliquescent
     * Stable under dry conditions, but decomposes in aqueous, strongly
       alkaline media
     * In aqueous solution at 25 deg C, only 1% of a 50% solution is
       hydrolyzed in 4-6 weeks

   from [8]HSDB

   Computed Properties
   Molecular Weight                  185.368969 [g/mol]
   Molecular Formula                 C[2]Cl[3]NaO[2]
   H-Bond Donor                      0
   H-Bond Acceptor                   2
   Rotatable Bond Count              0
   Exact Mass                        183.886157
   MonoIsotopic Mass                 183.886157
   Topological Polar Surface Area    40.1
   Heavy Atom Count                  8
   Formal Charge                     0
   Complexity                        87.8
   Isotope Atom Count                0
   Defined Atom Stereocenter Count   0
   Undefined Atom Stereocenter Count 0
   Defined Bond Stereocenter Count   0
   Undefined Bond Stereocenter Count 0
   Covalently-Bonded Unit Count      2

References

   1. http://www.ars.usda.gov/SP2UserFiles/ad_hoc/12755100DatabaseFiles/PesticidePropertiesDatabase/IndividualPesticideFiles/TCA-SODIUM.TXT
   2. http://chem.sis.nlm.nih.gov/chemidplus/
   3. http://toxnet.nlm.nih.gov/cgi-bin/sis/search/r?dbs+hsdb:@term+@rn+@rel+650-51-1
   4. http://toxnet.nlm.nih.gov/cgi-bin/sis/search/r?dbs+hsdb:@term+@rn+@rel+650-51-1
   5. http://toxnet.nlm.nih.gov/cgi-bin/sis/search/r?dbs+hsdb:@term+@rn+@rel+650-51-1
   6. http://toxnet.nlm.nih.gov/cgi-bin/sis/search/r?dbs+hsdb:@term+@rn+@rel+650-51-1
   7. http://toxnet.nlm.nih.gov/cgi-bin/sis/search/r?dbs+hsdb:@term+@rn+@rel+650-51-1
   8. http://toxnet.nlm.nih.gov/cgi-bin/sis/search/r?dbs+hsdb:@term+@rn+@rel+650-51-1
