4434
  -OEChem-06261200072D

 61 65  0     1  0  0  0  0  0999 V2000
    8.6500    0.2110    0.0000 O   0  0  0  0  0  0  0  0  0  0  0  0
    2.0000   -4.0966    0.0000 O   0  0  0  0  0  0  0  0  0  0  0  0
   10.2963   -0.3271    0.0000 O   0  0  0  0  0  0  0  0  0  0  0  0
   10.6419    3.3345    0.0000 O   0  0  0  0  0  0  0  0  0  0  0  0
    7.3931   -2.0443    0.0000 C   0  0  3  0  0  0  0  0  0  0  0  0
    7.3931   -1.0443    0.0000 C   0  0  3  0  0  0  0  0  0  0  0  0
    6.5271   -2.5443    0.0000 C   0  0  3  0  0  0  0  0  0  0  0  0
    5.6610   -2.0443    0.0000 C   0  0  3  0  0  0  0  0  0  0  0  0
    6.5271   -0.5443    0.0000 C   0  0  0  0  0  0  0  0  0  0  0  0
    8.3393   -0.7396    0.0000 C   0  0  3  0  0  0  0  0  0  0  0  0
    8.3393   -2.3490    0.0000 C   0  0  0  0  0  0  0  0  0  0  0  0
    5.6610   -1.0443    0.0000 C   0  0  0  0  0  0  0  0  0  0  0  0
    4.7510   -2.5511    0.0000 C   0  0  3  0  0  0  0  0  0  0  0  0
    8.9229   -1.5443    0.0000 C   0  0  0  0  0  0  0  0  0  0  0  0
    6.5431   -3.5858    0.0000 C   0  0  0  0  0  0  0  0  0  0  0  0
    7.3931   -0.0443    0.0000 C   0  0  0  0  0  0  0  0  0  0  0  0
    5.6451   -4.1136    0.0000 C   0  0  0  0  0  0  0  0  0  0  0  0
    4.7430   -3.5927    0.0000 C   0  0  0  0  0  0  0  0  0  0  0  0
    3.8242   -1.9871    0.0000 C   0  0  0  0  0  0  0  0  0  0  0  0
    2.8763   -2.5150    0.0000 C   0  0  0  0  0  0  0  0  0  0  0  0
    3.8076   -4.1425    0.0000 C   0  0  0  0  0  0  0  0  0  0  0  0
    2.8680   -3.6000    0.0000 C   0  0  0  0  0  0  0  0  0  0  0  0
    9.6285    0.4172    0.0000 C   0  0  0  0  0  0  0  0  0  0  0  0
    9.9391    1.3677    0.0000 C   0  0  0  0  0  0  0  0  0  0  0  0
   10.9176    1.5739    0.0000 C   0  0  0  0  0  0  0  0  0  0  0  0
   11.2283    2.5244    0.0000 C   0  0  0  0  0  0  0  0  0  0  0  0
   12.1799    2.8318    0.0000 C   0  0  0  0  0  0  0  0  0  0  0  0
   12.1816    3.8318    0.0000 C   0  0  0  0  0  0  0  0  0  0  0  0
   11.2311    4.1425    0.0000 C   0  0  0  0  0  0  0  0  0  0  0  0
    7.4587   -2.6608    0.0000 H   0  0  0  0  0  0  0  0  0  0  0  0
    7.0664   -2.8502    0.0000 H   0  0  0  0  0  0  0  0  0  0  0  0
    6.1980   -1.7343    0.0000 H   0  0  0  0  0  0  0  0  0  0  0  0
    6.9256   -0.0693    0.0000 H   0  0  0  0  0  0  0  0  0  0  0  0
    6.1285   -0.0693    0.0000 H   0  0  0  0  0  0  0  0  0  0  0  0
    7.9018   -0.3002    0.0000 H   0  0  0  0  0  0  0  0  0  0  0  0
    8.0883   -2.9159    0.0000 H   0  0  0  0  0  0  0  0  0  0  0  0
    8.8767   -2.6582    0.0000 H   0  0  0  0  0  0  0  0  0  0  0  0
    5.4490   -0.4617    0.0000 H   0  0  0  0  0  0  0  0  0  0  0  0
    5.0504   -1.1520    0.0000 H   0  0  0  0  0  0  0  0  0  0  0  0
    4.7630   -1.9313    0.0000 H   0  0  0  0  0  0  0  0  0  0  0  0
    9.3838   -1.9590    0.0000 H   0  0  0  0  0  0  0  0  0  0  0  0
    9.3838   -1.1296    0.0000 H   0  0  0  0  0  0  0  0  0  0  0  0
    6.7612   -4.1662    0.0000 H   0  0  0  0  0  0  0  0  0  0  0  0
    7.1523   -3.4703    0.0000 H   0  0  0  0  0  0  0  0  0  0  0  0
    8.0131   -0.0443    0.0000 H   0  0  0  0  0  0  0  0  0  0  0  0
    7.3931    0.5757    0.0000 H   0  0  0  0  0  0  0  0  0  0  0  0
    6.7731   -0.0443    0.0000 H   0  0  0  0  0  0  0  0  0  0  0  0
    5.2478   -4.5895    0.0000 H   0  0  0  0  0  0  0  0  0  0  0  0
    6.0460   -4.5864    0.0000 H   0  0  0  0  0  0  0  0  0  0  0  0
    4.2324   -1.5204    0.0000 H   0  0  0  0  0  0  0  0  0  0  0  0
    3.4343   -1.5050    0.0000 H   0  0  0  0  0  0  0  0  0  0  0  0
    2.6718   -1.9297    0.0000 H   0  0  0  0  0  0  0  0  0  0  0  0
    2.2647   -2.6164    0.0000 H   0  0  0  0  0  0  0  0  0  0  0  0
    3.8100   -4.7625    0.0000 H   0  0  0  0  0  0  0  0  0  0  0  0
    9.9186    1.9874    0.0000 H   0  0  0  0  0  0  0  0  0  0  0  0
    9.3253    1.4550    0.0000 H   0  0  0  0  0  0  0  0  0  0  0  0
   10.9382    0.9543    0.0000 H   0  0  0  0  0  0  0  0  0  0  0  0
   11.5315    1.4866    0.0000 H   0  0  0  0  0  0  0  0  0  0  0  0
   12.6809    2.4665    0.0000 H   0  0  0  0  0  0  0  0  0  0  0  0
   12.6838    4.1954    0.0000 H   0  0  0  0  0  0  0  0  0  0  0  0
   11.0405    4.7324    0.0000 H   0  0  0  0  0  0  0  0  0  0  0  0
  1 10  1  0  0  0  0
  1 23  1  0  0  0  0
  2 22  2  0  0  0  0
  3 23  2  0  0  0  0
  4 26  1  0  0  0  0
  4 29  1  0  0  0  0
  5  6  1  0  0  0  0
  5  7  1  0  0  0  0
  5 11  1  0  0  0  0
  5 30  1  0  0  0  0
  6  9  1  0  0  0  0
  6 10  1  0  0  0  0
  6 16  1  0  0  0  0
  7  8  1  0  0  0  0
  7 15  1  0  0  0  0
  7 31  1  0  0  0  0
  8 12  1  0  0  0  0
  8 13  1  0  0  0  0
  8 32  1  0  0  0  0
  9 12  1  0  0  0  0
  9 33  1  0  0  0  0
  9 34  1  0  0  0  0
 10 14  1  0  0  0  0
 10 35  1  0  0  0  0
 11 14  1  0  0  0  0
 11 36  1  0  0  0  0
 11 37  1  0  0  0  0
 12 38  1  0  0  0  0
 12 39  1  0  0  0  0
 13 18  1  0  0  0  0
 13 19  1  0  0  0  0
 13 40  1  0  0  0  0
 14 41  1  0  0  0  0
 14 42  1  0  0  0  0
 15 17  1  0  0  0  0
 15 43  1  0  0  0  0
 15 44  1  0  0  0  0
 16 45  1  0  0  0  0
 16 46  1  0  0  0  0
 16 47  1  0  0  0  0
 17 18  1  0  0  0  0
 17 48  1  0  0  0  0
 17 49  1  0  0  0  0
 18 21  2  0  0  0  0
 19 20  1  0  0  0  0
 19 50  1  0  0  0  0
 19 51  1  0  0  0  0
 20 22  1  0  0  0  0
 20 52  1  0  0  0  0
 20 53  1  0  0  0  0
 21 22  1  0  0  0  0
 21 54  1  0  0  0  0
 23 24  1  0  0  0  0
 24 25  1  0  0  0  0
 24 55  1  0  0  0  0
 24 56  1  0  0  0  0
 25 26  1  0  0  0  0
 25 57  1  0  0  0  0
 25 58  1  0  0  0  0
 26 27  2  0  0  0  0
 27 28  1  0  0  0  0
 27 59  1  0  0  0  0
 28 29  2  0  0  0  0
 28 60  1  0  0  0  0
 29 61  1  0  0  0  0
M  END
> <PUBCHEM_COMPOUND_CID>
4434

> <PUBCHEM_COMPOUND_CANONICALIZED>
1

> <PUBCHEM_CACTVS_COMPLEXITY>
697

> <PUBCHEM_CACTVS_HBOND_ACCEPTOR>
4

> <PUBCHEM_CACTVS_HBOND_DONOR>
0

> <PUBCHEM_CACTVS_ROTATABLE_BOND>
5

> <PUBCHEM_CACTVS_SUBSKEYS>
AAADcfB4OAAAAAAAAAAAAAAAAAAAAaIAAAAwYIAAAAAAAGDBgAAAGgAAAAAADxSgkAIyDIAABECIAqjSiAACCAAkIAAIiAEGCMgMJjKENRqCGSCkwBEIqYfLyPCPgAAAAAAAAACAAAQAACAAAIAADAAAAA==

> <PUBCHEM_IUPAC_OPENEYE_NAME>
(13-methyl-3-oxo-2,6,7,8,9,10,11,12,14,15,16,17-dodecahydro-1H-cyclopenta[a]phenanthren-17-yl) 3-(2-furyl)propanoate

> <PUBCHEM_IUPAC_CAS_NAME>
3-(2-furanyl)propanoic acid (13-methyl-3-oxo-2,6,7,8,9,10,11,12,14,15,16,17-dodecahydro-1H-cyclopenta[a]phenanthren-17-yl) ester

> <PUBCHEM_IUPAC_NAME>
(13-methyl-3-oxo-2,6,7,8,9,10,11,12,14,15,16,17-dodecahydro-1H-cyclopenta[a]phenanthren-17-yl) 3-(furan-2-yl)propanoate

> <PUBCHEM_IUPAC_SYSTEMATIC_NAME>
(13-methyl-3-oxidanylidene-2,6,7,8,9,10,11,12,14,15,16,17-dodecahydro-1H-cyclopenta[a]phenanthren-17-yl) 3-(furan-2-yl)propanoate

> <PUBCHEM_IUPAC_TRADITIONAL_NAME>
3-(2-furyl)propionic acid (3-keto-13-methyl-2,6,7,8,9,10,11,12,14,15,16,17-dodecahydro-1H-cyclopenta[a]phenanthren-17-yl) ester

> <PUBCHEM_IUPAC_INCHI>
InChI=1S/C25H32O4/c1-25-13-12-20-19-8-5-17(26)15-16(19)4-7-21(20)22(25)9-10-23(25)29-24(27)11-6-18-3-2-14-28-18/h2-3,14-15,19-23H,4-13H2,1H3

> <PUBCHEM_IUPAC_INCHIKEY>
ICNIVTHKZKRHPD-UHFFFAOYSA-N

> <PUBCHEM_XLOGP3>
4.2

> <PUBCHEM_EXACT_MASS>
396.23006

> <PUBCHEM_MOLECULAR_FORMULA>
C25H32O4

> <PUBCHEM_MOLECULAR_WEIGHT>
396.51918

> <PUBCHEM_OPENEYE_CAN_SMILES>
CC12CCC3C(C1CCC2OC(=O)CCC4=CC=CO4)CCC5=CC(=O)CCC35

> <PUBCHEM_OPENEYE_ISO_SMILES>
CC12CCC3C(C1CCC2OC(=O)CCC4=CC=CO4)CCC5=CC(=O)CCC35

> <PUBCHEM_CACTVS_TPSA>
56.5

> <PUBCHEM_MONOISOTOPIC_WEIGHT>
396.23006

> <PUBCHEM_TOTAL_CHARGE>
0

> <PUBCHEM_HEAVY_ATOM_COUNT>
29

> <PUBCHEM_ATOM_DEF_STEREO_COUNT>
0

> <PUBCHEM_ATOM_UDEF_STEREO_COUNT>
6

> <PUBCHEM_BOND_DEF_STEREO_COUNT>
0

> <PUBCHEM_BOND_UDEF_STEREO_COUNT>
0

> <PUBCHEM_ISOTOPIC_ATOM_COUNT>
0

> <PUBCHEM_COMPONENT_COUNT>
1

> <PUBCHEM_CACTVS_TAUTO_COUNT>
8

> <PUBCHEM_COORDINATE_TYPE>
1
5
255

> <PUBCHEM_BONDANNOTATIONS>
10  1  3
13  19  3
26  27  8
27  28  8
28  29  8
4  26  8
4  29  8
5  11  3
6  16  3
7  15  3
8  12  3

$$$$

