   Color/Form

     * CRYSTALS FROM PETROLEUM ETHER
     * WHITE OR CREAMY WHITE CRYSTALLINE POWDER

   from [1]HSDB

   Odor
        PRACTICALLY ODORLESS
   from [2]HSDB

   Melting Point
        105.5 TO 107.5 DEG C
   from [3]HSDB

   pH
        BETWEEN 7.6 & 8.6 (SATURATED SOLUTION)
   from [4]HSDB

   Solubilities

     * SOL IN ALCOHOL & CHLOROFORM; SLIGHTLY SOL IN WATER
     * FREELY SOL IN ETHER

   from [5]HSDB

   Spectral Properties
        MAX ABSORPTION (ACID): 262, 257 & 269 NM (A= 28, 26 & 21, 1%, 1
   CM); & ANOTHER PEAK AT 224 NM; MAX ABSORPTION (BASE): 259 & 253 NM (A=
   20 & 18, 1%, 1 CM); & ANOTHER PEAK AT 227 NM
   from [6]HSDB

   Other Chemical/Physical Properties

     * ODORLESS OR NEARLY SO & HAS BITTER TASTE; MELTS INDISTINCTLY & WITH
       DECOMP @ 285 DEG C /HYDROCHLORIDE/
     * PH (POTENTIOMETRICALLY DETERMINED, 1 IN 50 SOLN IN MIXT OF 2 VOL
       ALC & 3 VOL H2O) BETWEEN 4.5 & 5.5 /HYDROCHLORIDE/
     * PH BETWEEN 5 & 6 /LACTATE INJECTION/
     * WHITE, CRYSTALLINE POWDER OR SMALL COLORLESS CRYSTALS
       /HYDROCHLORIDE/
     * INSOL IN ETHER 1 G IN ABOUT 115 ML ALC /HYDROCHLORIDE/
     * 1 G IN ABOUT 115 ML H2O & 75 ML CHLOROFORM /HCL/

   from [7]HSDB

   Computed Properties
   Molecular Weight                  266.38068 [g/mol]
   Molecular Formula                 C[18]H[22]N[2]
   XLogP3                            3.6
   H-Bond Donor                      0
   H-Bond Acceptor                   2
   Rotatable Bond Count              3
   Exact Mass                        266.178299
   MonoIsotopic Mass                 266.178299
   Topological Polar Surface Area    6.5
   Heavy Atom Count                  20
   Formal Charge                     0
   Complexity                        253
   Isotope Atom Count                0
   Defined Atom Stereocenter Count   0
   Undefined Atom Stereocenter Count 0
   Defined Bond Stereocenter Count   0
   Undefined Bond Stereocenter Count 0
   Covalently-Bonded Unit Count      1
   Feature 3D Cation Count           2
   Feature 3D Ring Count             3
   Effective Rotor Count             4.2
   Conformer Sampling RMSD           0.6
   CID Conformer Count               [8]6

References

   1. http://toxnet.nlm.nih.gov/cgi-bin/sis/search/r?dbs+hsdb:@term+@rn+@rel+82-92-8
   2. http://toxnet.nlm.nih.gov/cgi-bin/sis/search/r?dbs+hsdb:@term+@rn+@rel+82-92-8
   3. http://toxnet.nlm.nih.gov/cgi-bin/sis/search/r?dbs+hsdb:@term+@rn+@rel+82-92-8
   4. http://toxnet.nlm.nih.gov/cgi-bin/sis/search/r?dbs+hsdb:@term+@rn+@rel+82-92-8
   5. http://toxnet.nlm.nih.gov/cgi-bin/sis/search/r?dbs+hsdb:@term+@rn+@rel+82-92-8
   6. http://toxnet.nlm.nih.gov/cgi-bin/sis/search/r?dbs+hsdb:@term+@rn+@rel+82-92-8
   7. http://toxnet.nlm.nih.gov/cgi-bin/sis/search/r?dbs+hsdb:@term+@rn+@rel+82-92-8
   8. http://pubchem.ncbi.nlm.nih.gov/vw3d/vw3d.cgi?cid=6726
