   Color/Form

     * COLORLESS CRYSTALS
     * WHITE POWDER

   from [1]HSDB

   Odor
        FAINT ODOR
   from [2]HSDB

   Solubilities

     * IN WATER 50%, METHANOL 20%; SLIGHTLY SOL IN ORG SOLVENTS
     * Benzene <0.1%, acetone <0.1%, chloroform 0.2%, methanol ca. 25%,
       hexane <0.1%
     * Water solubility = >500,000 mg/l [Shiu WY et al; Rev Environ Contam
       Toxicol 116: 15-187 (1990)] [3]PubMed Abstract

   from [4]HSDB

   Vapor Pressure
        Practically zero at room temperature
   from [5]HSDB

   Other Chemical/Physical Properties

     * YELLOW CRYSTALLINE SOLID; SOLUBILITY: LESS THAN 1 G/L WATER; ABOUT
       100 G/L ACETONE, CHLOROFORM; GREATER THAN 200 G/L METHANOL
       /FORMETANATE/
     * DECOMP @ 200-202 DEG C
     * Melting Point = 102 deg C /Formetanate/
     * Water Solubility = 6.3 g/L /Formetanate/
     * Water solubility = 100 mg/L /Formetanate/
     * Vapor pressure = 0.027 mPa @ 25 deg C /Formetanate/

   from [6]HSDB

   Computed Properties
   Molecular Weight                  221.2557 [g/mol]
   Molecular Formula                 C[11]H[15]N[3]O[2]
   XLogP3                            1.2
   H-Bond Donor                      1
   H-Bond Acceptor                   3
   Rotatable Bond Count              4
   Tautomer Count                    2
   Exact Mass                        221.116427
   MonoIsotopic Mass                 221.116427
   Topological Polar Surface Area    53.9
   Heavy Atom Count                  16
   Formal Charge                     0
   Complexity                        254
   Isotope Atom Count                0
   Defined Atom Stereocenter Count   0
   Undefined Atom Stereocenter Count 0
   Defined Bond Stereocenter Count   0
   Undefined Bond Stereocenter Count 0
   Covalently-Bonded Unit Count      1
   Feature 3D Acceptor Count         1
   Feature 3D Donor Count            1
   Feature 3D Cation Count           1
   Feature 3D Ring Count             1
   Effective Rotor Count             5
   Conformer Sampling RMSD           0.6
   CID Conformer Count               [7]118

References

   1. http://toxnet.nlm.nih.gov/cgi-bin/sis/search/r?dbs+hsdb:@term+@rn+@rel+23422-53-9
   2. http://toxnet.nlm.nih.gov/cgi-bin/sis/search/r?dbs+hsdb:@term+@rn+@rel+23422-53-9
   3. http://www.ncbi.nlm.nih.gov/entrez/query.fcgi?cmd=Retrieve&db=pubmed&dopt=Abstract&list_uids=2205893
   4. http://toxnet.nlm.nih.gov/cgi-bin/sis/search/r?dbs+hsdb:@term+@rn+@rel+23422-53-9
   5. http://toxnet.nlm.nih.gov/cgi-bin/sis/search/r?dbs+hsdb:@term+@rn+@rel+23422-53-9
   6. http://toxnet.nlm.nih.gov/cgi-bin/sis/search/r?dbs+hsdb:@term+@rn+@rel+23422-53-9
   7. http://pubchem.ncbi.nlm.nih.gov/vw3d/vw3d.cgi?cid=31099
