582775
  -OEChem-06241222442D

 68 71  0     1  0  0  0  0  0999 V2000
    7.2101    1.9924    0.0000 O   0  0  0  0  0  0  0  0  0  0  0  0
    7.2566   -0.6529    0.0000 O   0  0  0  0  0  0  0  0  0  0  0  0
    7.5673    0.2976    0.0000 O   0  0  0  0  0  0  0  0  0  0  0  0
    7.9244   -1.3972    0.0000 O   0  0  0  0  0  0  0  0  0  0  0  0
    5.6103   -0.1148    0.0000 N   0  0  0  0  0  0  0  0  0  0  0  0
    6.6353   -2.5539    0.0000 N   0  0  0  0  0  0  0  0  0  0  0  0
    6.5143    3.8293    0.0000 N   0  0  0  0  0  0  0  0  0  0  0  0
    4.6783   -4.5758    0.0000 N   0  0  0  0  0  0  0  0  0  0  0  0
    5.9209    0.8357    0.0000 C   0  0  3  0  0  0  0  0  0  0  0  0
    5.9674   -1.8096    0.0000 C   0  0  3  0  0  0  0  0  0  0  0  0
    5.2531    1.5800    0.0000 C   0  0  0  0  0  0  0  0  0  0  0  0
    4.9889   -2.0158    0.0000 C   0  0  0  0  0  0  0  0  0  0  0  0
    5.5637    2.5305    0.0000 C   0  0  0  0  0  0  0  0  0  0  0  0
    4.6783   -2.9664    0.0000 C   0  0  0  0  0  0  0  0  0  0  0  0
    6.2781   -0.8591    0.0000 C   0  0  0  0  0  0  0  0  0  0  0  0
    4.9801    3.3353    0.0000 C   0  0  0  0  0  0  0  0  0  0  0  0
    3.7320   -3.2711    0.0000 C   0  0  0  0  0  0  0  0  0  0  0  0
    5.5707    4.1422    0.0000 C   0  0  0  0  0  0  0  0  0  0  0  0
    3.7320   -4.2711    0.0000 C   0  0  0  0  0  0  0  0  0  0  0  0
    6.5100    2.8353    0.0000 C   0  0  0  0  0  0  0  0  0  0  0  0
    6.8994    1.0419    0.0000 C   0  0  0  0  0  0  0  0  0  0  0  0
    5.2619   -3.7711    0.0000 C   0  0  0  0  0  0  0  0  0  0  0  0
    3.9860    3.4432    0.0000 C   0  0  0  0  0  0  0  0  0  0  0  0
    2.8660   -2.7711    0.0000 C   0  0  0  0  0  0  0  0  0  0  0  0
    5.1671    5.0572    0.0000 C   0  0  0  0  0  0  0  0  0  0  0  0
    2.8660   -4.7711    0.0000 C   0  0  0  0  0  0  0  0  0  0  0  0
    7.6138   -2.3477    0.0000 C   0  0  0  0  0  0  0  0  0  0  0  0
    8.1886    2.1987    0.0000 C   0  0  0  0  0  0  0  0  0  0  0  0
    3.5824    4.3582    0.0000 C   0  0  0  0  0  0  0  0  0  0  0  0
    2.0000   -3.2711    0.0000 C   0  0  0  0  0  0  0  0  0  0  0  0
    4.1730    5.1652    0.0000 C   0  0  0  0  0  0  0  0  0  0  0  0
    2.0000   -4.2711    0.0000 C   0  0  0  0  0  0  0  0  0  0  0  0
    8.4993    3.1492    0.0000 C   0  0  0  0  0  0  0  0  0  0  0  0
    9.4778    3.3554    0.0000 C   0  0  0  0  0  0  0  0  0  0  0  0
    8.2816   -3.0920    0.0000 C   0  0  0  0  0  0  0  0  0  0  0  0
    9.7884    4.3059    0.0000 C   0  0  0  0  0  0  0  0  0  0  0  0
    5.3142    0.7079    0.0000 H   0  0  0  0  0  0  0  0  0  0  0  0
    5.7748   -2.3990    0.0000 H   0  0  0  0  0  0  0  0  0  0  0  0
    4.7062    1.8720    0.0000 H   0  0  0  0  0  0  0  0  0  0  0  0
    4.8705    1.0921    0.0000 H   0  0  0  0  0  0  0  0  0  0  0  0
    4.9684   -1.3962    0.0000 H   0  0  0  0  0  0  0  0  0  0  0  0
    4.3751   -1.9285    0.0000 H   0  0  0  0  0  0  0  0  0  0  0  0
    5.0036   -0.2427    0.0000 H   0  0  0  0  0  0  0  0  0  0  0  0
    7.0103    2.4691    0.0000 H   0  0  0  0  0  0  0  0  0  0  0  0
    5.8819   -3.7711    0.0000 H   0  0  0  0  0  0  0  0  0  0  0  0
    6.4427   -3.1433    0.0000 H   0  0  0  0  0  0  0  0  0  0  0  0
    7.0177    4.1912    0.0000 H   0  0  0  0  0  0  0  0  0  0  0  0
    4.8709   -5.1652    0.0000 H   0  0  0  0  0  0  0  0  0  0  0  0
    3.6198    2.9429    0.0000 H   0  0  0  0  0  0  0  0  0  0  0  0
    2.8660   -2.1511    0.0000 H   0  0  0  0  0  0  0  0  0  0  0  0
    5.5333    5.5575    0.0000 H   0  0  0  0  0  0  0  0  0  0  0  0
    2.8660   -5.3911    0.0000 H   0  0  0  0  0  0  0  0  0  0  0  0
    8.2092    1.5790    0.0000 H   0  0  0  0  0  0  0  0  0  0  0  0
    8.8024    2.1113    0.0000 H   0  0  0  0  0  0  0  0  0  0  0  0
    2.9660    4.4251    0.0000 H   0  0  0  0  0  0  0  0  0  0  0  0
    1.4631   -2.9611    0.0000 H   0  0  0  0  0  0  0  0  0  0  0  0
    3.9228    5.7324    0.0000 H   0  0  0  0  0  0  0  0  0  0  0  0
    8.4787    3.7688    0.0000 H   0  0  0  0  0  0  0  0  0  0  0  0
    7.8854    3.2365    0.0000 H   0  0  0  0  0  0  0  0  0  0  0  0
    1.4631   -4.5811    0.0000 H   0  0  0  0  0  0  0  0  0  0  0  0
    9.4983    2.7358    0.0000 H   0  0  0  0  0  0  0  0  0  0  0  0
   10.0916    3.2681    0.0000 H   0  0  0  0  0  0  0  0  0  0  0  0
    7.8202   -3.5061    0.0000 H   0  0  0  0  0  0  0  0  0  0  0  0
    8.6957   -3.5535    0.0000 H   0  0  0  0  0  0  0  0  0  0  0  0
    8.7431   -2.6780    0.0000 H   0  0  0  0  0  0  0  0  0  0  0  0
   10.3777    4.1133    0.0000 H   0  0  0  0  0  0  0  0  0  0  0  0
    9.9810    4.8952    0.0000 H   0  0  0  0  0  0  0  0  0  0  0  0
    9.1991    4.4985    0.0000 H   0  0  0  0  0  0  0  0  0  0  0  0
  1 21  1  0  0  0  0
  1 28  1  0  0  0  0
  2 15  2  0  0  0  0
  3 21  2  0  0  0  0
  4 27  2  0  0  0  0
  5  9  1  0  0  0  0
  5 15  1  0  0  0  0
  5 43  1  0  0  0  0
  6 10  1  0  0  0  0
  6 27  1  0  0  0  0
  6 46  1  0  0  0  0
  7 18  1  0  0  0  0
  7 20  1  0  0  0  0
  7 47  1  0  0  0  0
  8 19  1  0  0  0  0
  8 22  1  0  0  0  0
  8 48  1  0  0  0  0
  9 11  1  0  0  0  0
  9 21  1  0  0  0  0
  9 37  1  0  0  0  0
 10 12  1  0  0  0  0
 10 15  1  0  0  0  0
 10 38  1  0  0  0  0
 11 13  1  0  0  0  0
 11 39  1  0  0  0  0
 11 40  1  0  0  0  0
 12 14  1  0  0  0  0
 12 41  1  0  0  0  0
 12 42  1  0  0  0  0
 13 16  1  0  0  0  0
 13 20  2  0  0  0  0
 14 17  1  0  0  0  0
 14 22  2  0  0  0  0
 16 18  1  0  0  0  0
 16 23  2  0  0  0  0
 17 19  1  0  0  0  0
 17 24  2  0  0  0  0
 18 25  2  0  0  0  0
 19 26  2  0  0  0  0
 20 44  1  0  0  0  0
 22 45  1  0  0  0  0
 23 29  1  0  0  0  0
 23 49  1  0  0  0  0
 24 30  1  0  0  0  0
 24 50  1  0  0  0  0
 25 31  1  0  0  0  0
 25 51  1  0  0  0  0
 26 32  1  0  0  0  0
 26 52  1  0  0  0  0
 27 35  1  0  0  0  0
 28 33  1  0  0  0  0
 28 53  1  0  0  0  0
 28 54  1  0  0  0  0
 29 31  2  0  0  0  0
 29 55  1  0  0  0  0
 30 32  2  0  0  0  0
 30 56  1  0  0  0  0
 31 57  1  0  0  0  0
 32 60  1  0  0  0  0
 33 34  1  0  0  0  0
 33 58  1  0  0  0  0
 33 59  1  0  0  0  0
 34 36  1  0  0  0  0
 34 61  1  0  0  0  0
 34 62  1  0  0  0  0
 35 63  1  0  0  0  0
 35 64  1  0  0  0  0
 35 65  1  0  0  0  0
 36 66  1  0  0  0  0
 36 67  1  0  0  0  0
 36 68  1  0  0  0  0
M  END
> <PUBCHEM_COMPOUND_CID>
582775

> <PUBCHEM_COMPOUND_CANONICALIZED>
1

> <PUBCHEM_CACTVS_COMPLEXITY>
762

> <PUBCHEM_CACTVS_HBOND_ACCEPTOR>
4

> <PUBCHEM_CACTVS_HBOND_DONOR>
4

> <PUBCHEM_CACTVS_ROTATABLE_BOND>
12

> <PUBCHEM_CACTVS_SUBSKEYS>
AAADcfB7uAAAAAAAAAAAAAAAAAAAAWLAAAAwYAAAAAAAAFgB/gAAHgAQAAAADCjhngY+yPLJlACoAzX3XACCgCAxAiAI2aG4ZJgKYPLAkbGXIAhklgDYyAeY2fKOgAAAAAACAAAAAAAAAAQAAAAAAAAAAA==

> <PUBCHEM_IUPAC_OPENEYE_NAME>
butyl 2-[[2-acetamido-3-(1H-indol-3-yl)propanoyl]amino]-3-(1H-indol-3-yl)propanoate

> <PUBCHEM_IUPAC_CAS_NAME>
2-[[2-acetamido-3-(1H-indol-3-yl)-1-oxopropyl]amino]-3-(1H-indol-3-yl)propanoic acid butyl ester

> <PUBCHEM_IUPAC_NAME>
butyl 2-[[2-acetamido-3-(1H-indol-3-yl)propanoyl]amino]-3-(1H-indol-3-yl)propanoate

> <PUBCHEM_IUPAC_SYSTEMATIC_NAME>
butyl 2-[[2-acetamido-3-(1H-indol-3-yl)propanoyl]amino]-3-(1H-indol-3-yl)propanoate

> <PUBCHEM_IUPAC_TRADITIONAL_NAME>
2-[[2-acetamido-3-(1H-indol-3-yl)propanoyl]amino]-3-(1H-indol-3-yl)propionic acid butyl ester

> <PUBCHEM_IUPAC_INCHI>
InChI=1S/C28H32N4O4/c1-3-4-13-36-28(35)26(15-20-17-30-24-12-8-6-10-22(20)24)32-27(34)25(31-18(2)33)14-19-16-29-23-11-7-5-9-21(19)23/h5-12,16-17,25-26,29-30H,3-4,13-15H2,1-2H3,(H,31,33)(H,32,34)

> <PUBCHEM_IUPAC_INCHIKEY>
NUQPOXLFIVIBHF-UHFFFAOYSA-N

> <PUBCHEM_XLOGP3>
3.8

> <PUBCHEM_EXACT_MASS>
488.242356

> <PUBCHEM_MOLECULAR_FORMULA>
C28H32N4O4

> <PUBCHEM_MOLECULAR_WEIGHT>
488.57808

> <PUBCHEM_OPENEYE_CAN_SMILES>
CCCCOC(=O)C(CC1=CNC2=CC=CC=C21)NC(=O)C(CC3=CNC4=CC=CC=C43)NC(=O)C

> <PUBCHEM_OPENEYE_ISO_SMILES>
CCCCOC(=O)C(CC1=CNC2=CC=CC=C21)NC(=O)C(CC3=CNC4=CC=CC=C43)NC(=O)C

> <PUBCHEM_CACTVS_TPSA>
116

> <PUBCHEM_MONOISOTOPIC_WEIGHT>
488.242356

> <PUBCHEM_TOTAL_CHARGE>
0

> <PUBCHEM_HEAVY_ATOM_COUNT>
36

> <PUBCHEM_ATOM_DEF_STEREO_COUNT>
0

> <PUBCHEM_ATOM_UDEF_STEREO_COUNT>
2

> <PUBCHEM_BOND_DEF_STEREO_COUNT>
0

> <PUBCHEM_BOND_UDEF_STEREO_COUNT>
0

> <PUBCHEM_ISOTOPIC_ATOM_COUNT>
0

> <PUBCHEM_COMPONENT_COUNT>
1

> <PUBCHEM_CACTVS_TAUTO_COUNT>
4

> <PUBCHEM_COORDINATE_TYPE>
1
5
255

> <PUBCHEM_BONDANNOTATIONS>
10  12  3
13  16  8
13  20  8
14  17  8
14  22  8
16  18  8
16  23  8
17  19  8
17  24  8
18  25  8
19  26  8
23  29  8
24  30  8
25  31  8
26  32  8
29  31  8
30  32  8
7  18  8
7  20  8
8  19  8
8  22  8
9  11  3

$$$$

