   Color/Form
        NEEDLES FROM DILUTE ALCOHOL
   from [1]HSDB

   Melting Point
        164.5-165.5 DEG C
   from [2]HSDB

   Solubilities
        INSOL IN WATER; VERY SOL IN ALCOHOL & BENZENE
   from [3]HSDB

   Spectral Properties

     * MAX ABSORPTION (ALCOHOL 0.01 N HCL): 237.5 NM (LOG E= 4.21)
     * IR: 1129 (Coblentz Society Spectral Collection)
     * UV: 732 (Sadtler Research Laboratories Spectral Collection)
     * NMR: 158 (Sadtler Research Laboratories Spectral Collection)
     * MASS: 1207 (Atlas of Mass Spectral Data, John Wiley & Sons, New
       York)

   from [4]HSDB

   Computed Properties
   Molecular Weight                  178.22766 [g/mol]
   Molecular Formula                 C[11]H[14]O[2]
   XLogP3                            3.9
   H-Bond Donor                      1
   H-Bond Acceptor                   2
   Rotatable Bond Count              2
   Exact Mass                        178.09938
   MonoIsotopic Mass                 178.09938
   Topological Polar Surface Area    37.3
   Heavy Atom Count                  13
   Formal Charge                     0
   Complexity                        183
   Isotope Atom Count                0
   Defined Atom Stereocenter Count   0
   Undefined Atom Stereocenter Count 0
   Defined Bond Stereocenter Count   0
   Undefined Bond Stereocenter Count 0
   Covalently-Bonded Unit Count      1
   Feature 3D Acceptor Count         2
   Feature 3D Anion Count            1
   Feature 3D Hydrophobe Count       1
   Feature 3D Ring Count             1
   Effective Rotor Count             2
   Conformer Sampling RMSD           0.6
   CID Conformer Count               [5]1

References

   1. http://toxnet.nlm.nih.gov/cgi-bin/sis/search/r?dbs+hsdb:@term+@rn+@rel+98-73-7
   2. http://toxnet.nlm.nih.gov/cgi-bin/sis/search/r?dbs+hsdb:@term+@rn+@rel+98-73-7
   3. http://toxnet.nlm.nih.gov/cgi-bin/sis/search/r?dbs+hsdb:@term+@rn+@rel+98-73-7
   4. http://toxnet.nlm.nih.gov/cgi-bin/sis/search/r?dbs+hsdb:@term+@rn+@rel+98-73-7
   5. http://pubchem.ncbi.nlm.nih.gov/vw3d/vw3d.cgi?cid=7403
