   Color/Form

     * Tan crystalline solid
     * Yellow prisms from petroleum ether

   from [1]HSDB

   Boiling Point
        250 deg C (decomposes)
   from [2]HSDB

   Melting Point
        122-123 deg C
   from [3]HSDB

   Corrosivity
        Non-corrosive under dry conditions
   from [4]HSDB

   Octanol/Water Partition Coefficient
        log Kow = 3.23 at 25 deg C
   from [5]HSDB

   Solubilities

     * SLIGHTLY SOL IN ETHANOL, ACETONE AND ALIPHATIC HYDROCARBONS;
       MODERATELY SOL IN AROMATIC HYDROCARBONS
     * Slightly sol in hot ethanol ... and cyclohexanone. Moderately
       soluble in benzene, xylene
     * In water, 2.50X10-2 mg/L @ 20 deg C

   from [6]HSDB

   Spectral Properties

     * Intense mass spectral peaks: 237 m/z (100%), 239 m/z (64%), 235 m/z
       (62%), 241 m/z (20%)
     * Maximum absorption: 330 nm (molar extinction coefficient= 2950
       g-moles/l)

   from [7]HSDB

   Vapor Pressure
        2.18X10-6 mm Hg at 25 deg C /Extrapolated/
   from [8]HSDB

   Other Chemical/Physical Properties

     * ... light yellow powder, sometimes with faint onion or garlic odor.
       MP: 111-128 deg C; Specific gravity/density: 1.923 (25 deg C);
       Solubility: in iso-octane 7.89, toluene 59.00, acetonitrile 1.16,
       n-octanol 4.77, tetrahydrofuran 98.32 (all in g tech./100 ml);
       Stability: deinochlor was stable when stored at 54 deg C for 14 d,
       and at 42 deg C for 2 yr /Technical formulation/
     * Henry's Law constant = 5.46X10-5 atm-cu m/mol at 25 deg C
       /Estimated/
     * Hydroxyl radical reaction rate constant = 7.86X10-13 cu-cm/molecule
       sec at 25 deg C /Estimated/
     * ... Dienochlor reacts rapidly with 1.0 mM GSH in phosphate buffer
       (pH 7.4) at 37 degrees C (t1/2 approximately 11 min) yielding a
       series of more than a dozen adducts. [Fruetel JA et al; Chem Res
       Toxicol 7 (4): 487-494 (1994)] [9]PubMed Abstract

   from [10]HSDB

   Computed Properties
   Molecular Weight                  474.637 [g/mol]
   Molecular Formula                 C[10]Cl[10]
   XLogP3-AA                         6.3
   H-Bond Donor                      0
   H-Bond Acceptor                   0
   Rotatable Bond Count              1
   Exact Mass                        473.682627
   MonoIsotopic Mass                 469.688527
   Topological Polar Surface Area    0
   Heavy Atom Count                  20
   Formal Charge                     0
   Complexity                        530
   Isotope Atom Count                0
   Defined Atom Stereocenter Count   0
   Undefined Atom Stereocenter Count 0
   Defined Bond Stereocenter Count   0
   Undefined Bond Stereocenter Count 0
   Covalently-Bonded Unit Count      1
   Feature 3D Ring Count             2
   Effective Rotor Count             1.4
   Conformer Sampling RMSD           0.6
   CID Conformer Count               [11]2

References

   1. http://toxnet.nlm.nih.gov/cgi-bin/sis/search/r?dbs+hsdb:@term+@rn+@rel+2227-17-0
   2. http://toxnet.nlm.nih.gov/cgi-bin/sis/search/r?dbs+hsdb:@term+@rn+@rel+2227-17-0
   3. http://toxnet.nlm.nih.gov/cgi-bin/sis/search/r?dbs+hsdb:@term+@rn+@rel+2227-17-0
   4. http://toxnet.nlm.nih.gov/cgi-bin/sis/search/r?dbs+hsdb:@term+@rn+@rel+2227-17-0
   5. http://toxnet.nlm.nih.gov/cgi-bin/sis/search/r?dbs+hsdb:@term+@rn+@rel+2227-17-0
   6. http://toxnet.nlm.nih.gov/cgi-bin/sis/search/r?dbs+hsdb:@term+@rn+@rel+2227-17-0
   7. http://toxnet.nlm.nih.gov/cgi-bin/sis/search/r?dbs+hsdb:@term+@rn+@rel+2227-17-0
   8. http://toxnet.nlm.nih.gov/cgi-bin/sis/search/r?dbs+hsdb:@term+@rn+@rel+2227-17-0
   9. http://www.ncbi.nlm.nih.gov/entrez/query.fcgi?cmd=Retrieve&db=pubmed&dopt=Abstract&list_uids=7981413
  10. http://toxnet.nlm.nih.gov/cgi-bin/sis/search/r?dbs+hsdb:@term+@rn+@rel+2227-17-0
  11. http://pubchem.ncbi.nlm.nih.gov/vw3d/vw3d.cgi?cid=16686
