   Color/Form

     * Crystals from ethanol and benzene
     * White to off-white powder

   from [1]HSDB

   Melting Point
        215-217 deg C; also reported as 209-210 deg C
   from [2]HSDB

   Octanol/Water Partition Coefficient
        log Kow = -1.30
   from [3]HSDB

   Solubilities
        In water, 76,400 mg/l @ 25 deg C
   from [4]HSDB

   Spectral Properties
        UV max = 280 nm (epsilon=17720) 0.1N HCl; UV max = 280 nm
   (epsilon=8410) 0.1N NaOH
   from [5]HSDB

   Vapor Pressure
        5.8X10-8 mm Hg @ 25 deg C /Estimated/
   from [6]HSDB

   Other Chemical/Physical Properties

     * Henry's Law constant = 1.2X10-16 atm-cu m/mol @ 25 deg C
       /Estimated/
     * Hydroxyl radical reaction rate constant = 1.1X10-10 cu cm/molec-sec
       @ 25 deg C /Estimated/

   from [7]HSDB

   Computed Properties
   Molecular Weight                  211.21782 [g/mol]
   Molecular Formula                 C[9]H[13]N[3]O[3]
   XLogP3                            -1.3
   H-Bond Donor                      2
   H-Bond Acceptor                   3
   Rotatable Bond Count              2
   Tautomer Count                    3
   Exact Mass                        211.095691
   MonoIsotopic Mass                 211.095691
   Topological Polar Surface Area    88.2
   Heavy Atom Count                  15
   Formal Charge                     0
   Complexity                        327
   Isotope Atom Count                0
   Defined Atom Stereocenter Count   2
   Undefined Atom Stereocenter Count 0
   Defined Bond Stereocenter Count   0
   Undefined Bond Stereocenter Count 0
   Covalently-Bonded Unit Count      1
   Feature 3D Acceptor Count         3
   Feature 3D Donor Count            3
   Feature 3D Ring Count             2
   Effective Rotor Count             3
   Conformer Sampling RMSD           0.6
   CID Conformer Count               [8]12

References

   1. http://toxnet.nlm.nih.gov/cgi-bin/sis/search/r?dbs+hsdb:@term+@rn+@rel+7481-89-2
   2. http://toxnet.nlm.nih.gov/cgi-bin/sis/search/r?dbs+hsdb:@term+@rn+@rel+7481-89-2
   3. http://toxnet.nlm.nih.gov/cgi-bin/sis/search/r?dbs+hsdb:@term+@rn+@rel+7481-89-2
   4. http://toxnet.nlm.nih.gov/cgi-bin/sis/search/r?dbs+hsdb:@term+@rn+@rel+7481-89-2
   5. http://toxnet.nlm.nih.gov/cgi-bin/sis/search/r?dbs+hsdb:@term+@rn+@rel+7481-89-2
   6. http://toxnet.nlm.nih.gov/cgi-bin/sis/search/r?dbs+hsdb:@term+@rn+@rel+7481-89-2
   7. http://toxnet.nlm.nih.gov/cgi-bin/sis/search/r?dbs+hsdb:@term+@rn+@rel+7481-89-2
   8. http://pubchem.ncbi.nlm.nih.gov/vw3d/vw3d.cgi?cid=24066
