24892799
  -OEChem-07051213092D

 47 48  0     1  0  0  0  0  0999 V2000
    5.4641    0.0600    0.0000 O   0  0  0  0  0  0  0  0  0  0  0  0
    2.0000   -2.9400    0.0000 O   0  0  0  0  0  0  0  0  0  0  0  0
    5.4641    2.0600    0.0000 N   0  0  3  0  0  0  0  0  0  0  0  0
    3.7320    0.0600    0.0000 N   0  0  0  0  0  0  0  0  0  0  0  0
    4.5981    1.5600    0.0000 C   0  0  1  0  0  0  0  0  0  0  0  0
    3.7320    2.0600    0.0000 C   0  0  0  0  0  0  0  0  0  0  0  0
    5.4641    3.0600    0.0000 C   0  0  0  0  0  0  0  0  0  0  0  0
    3.7320    3.0600    0.0000 C   0  0  0  0  0  0  0  0  0  0  0  0
    4.5981    3.5600    0.0000 C   0  0  0  0  0  0  0  0  0  0  0  0
    6.3301    1.5600    0.0000 C   0  0  0  0  0  0  0  0  0  0  0  0
    4.5981    0.5600    0.0000 C   0  0  0  0  0  0  0  0  0  0  0  0
    7.1962    2.0600    0.0000 C   0  0  0  0  0  0  0  0  0  0  0  0
    8.0622    1.5600    0.0000 C   0  0  0  0  0  0  0  0  0  0  0  0
    3.7320   -0.9400    0.0000 C   0  0  0  0  0  0  0  0  0  0  0  0
    2.8660   -1.4400    0.0000 C   0  0  0  0  0  0  0  0  0  0  0  0
    4.5981   -1.4400    0.0000 C   0  0  0  0  0  0  0  0  0  0  0  0
    2.8660   -2.4400    0.0000 C   0  0  0  0  0  0  0  0  0  0  0  0
    4.5981   -2.4400    0.0000 C   0  0  0  0  0  0  0  0  0  0  0  0
    2.0000   -0.9400    0.0000 C   0  0  0  0  0  0  0  0  0  0  0  0
    5.4641   -0.9400    0.0000 C   0  0  0  0  0  0  0  0  0  0  0  0
    3.7320   -2.9400    0.0000 C   0  0  0  0  0  0  0  0  0  0  0  0
    5.1350    1.2500    0.0000 H   0  0  0  0  0  0  0  0  0  0  0  0
    3.1215    2.1677    0.0000 H   0  0  0  0  0  0  0  0  0  0  0  0
    3.5200    1.4774    0.0000 H   0  0  0  0  0  0  0  0  0  0  0  0
    6.0747    2.9523    0.0000 H   0  0  0  0  0  0  0  0  0  0  0  0
    5.6762    3.6426    0.0000 H   0  0  0  0  0  0  0  0  0  0  0  0
    3.5200    3.6426    0.0000 H   0  0  0  0  0  0  0  0  0  0  0  0
    3.1215    2.9523    0.0000 H   0  0  0  0  0  0  0  0  0  0  0  0
    4.9966    4.0350    0.0000 H   0  0  0  0  0  0  0  0  0  0  0  0
    4.1996    4.0350    0.0000 H   0  0  0  0  0  0  0  0  0  0  0  0
    5.9316    1.0850    0.0000 H   0  0  0  0  0  0  0  0  0  0  0  0
    6.7287    1.0850    0.0000 H   0  0  0  0  0  0  0  0  0  0  0  0
    7.5947    2.5349    0.0000 H   0  0  0  0  0  0  0  0  0  0  0  0
    6.7976    2.5349    0.0000 H   0  0  0  0  0  0  0  0  0  0  0  0
    3.1951    0.3700    0.0000 H   0  0  0  0  0  0  0  0  0  0  0  0
    7.7522    1.0231    0.0000 H   0  0  0  0  0  0  0  0  0  0  0  0
    8.5991    1.2500    0.0000 H   0  0  0  0  0  0  0  0  0  0  0  0
    8.3722    2.0969    0.0000 H   0  0  0  0  0  0  0  0  0  0  0  0
    5.1350   -2.7500    0.0000 H   0  0  0  0  0  0  0  0  0  0  0  0
    2.3100   -0.4031    0.0000 H   0  0  0  0  0  0  0  0  0  0  0  0
    1.4631   -0.6300    0.0000 H   0  0  0  0  0  0  0  0  0  0  0  0
    1.6900   -1.4769    0.0000 H   0  0  0  0  0  0  0  0  0  0  0  0
    5.7741   -1.4769    0.0000 H   0  0  0  0  0  0  0  0  0  0  0  0
    6.0010   -0.6300    0.0000 H   0  0  0  0  0  0  0  0  0  0  0  0
    5.1541   -0.4031    0.0000 H   0  0  0  0  0  0  0  0  0  0  0  0
    3.7320   -3.5600    0.0000 H   0  0  0  0  0  0  0  0  0  0  0  0
    2.0000   -3.5600    0.0000 H   0  0  0  0  0  0  0  0  0  0  0  0
  1 11  2  0  0  0  0
  2 17  1  0  0  0  0
  2 47  1  0  0  0  0
  3  5  1  0  0  0  0
  3  7  1  0  0  0  0
  3 10  1  0  0  0  0
  4 11  1  0  0  0  0
  4 14  1  0  0  0  0
  4 35  1  0  0  0  0
  5  6  1  0  0  0  0
  5 11  1  6  0  0  0
  5 22  1  0  0  0  0
  6  8  1  0  0  0  0
  6 23  1  0  0  0  0
  6 24  1  0  0  0  0
  7  9  1  0  0  0  0
  7 25  1  0  0  0  0
  7 26  1  0  0  0  0
  8  9  1  0  0  0  0
  8 27  1  0  0  0  0
  8 28  1  0  0  0  0
  9 29  1  0  0  0  0
  9 30  1  0  0  0  0
 10 12  1  0  0  0  0
 10 31  1  0  0  0  0
 10 32  1  0  0  0  0
 12 13  1  0  0  0  0
 12 33  1  0  0  0  0
 12 34  1  0  0  0  0
 13 36  1  0  0  0  0
 13 37  1  0  0  0  0
 13 38  1  0  0  0  0
 14 15  1  0  0  0  0
 14 16  2  0  0  0  0
 15 17  2  0  0  0  0
 15 19  1  0  0  0  0
 16 18  1  0  0  0  0
 16 20  1  0  0  0  0
 17 21  1  0  0  0  0
 18 21  2  0  0  0  0
 18 39  1  0  0  0  0
 19 40  1  0  0  0  0
 19 41  1  0  0  0  0
 19 42  1  0  0  0  0
 20 43  1  0  0  0  0
 20 44  1  0  0  0  0
 20 45  1  0  0  0  0
 21 46  1  0  0  0  0
M  END
> <PUBCHEM_COMPOUND_CID>
24892799

> <PUBCHEM_COMPOUND_CANONICALIZED>
1

> <PUBCHEM_CACTVS_COMPLEXITY>
348

> <PUBCHEM_CACTVS_HBOND_ACCEPTOR>
3

> <PUBCHEM_CACTVS_HBOND_DONOR>
2

> <PUBCHEM_CACTVS_ROTATABLE_BOND>
4

> <PUBCHEM_CACTVS_SUBSKEYS>
AAADceB7MAAAAAAAAAAAAAAAAAAAAAAAAAA8QAAAAAAAAAABAAAAHgAQCAAADCzBmAQyxoPAAgCIAiVSUACCAAAhIAAIiAGOTIgIZjLCkbOUcAhm1BnI2AeY2GMOIAACAgAKAABAAAQEABQAAAAAAAAAAA==

> <PUBCHEM_IUPAC_OPENEYE_NAME>
(2S)-N-(3-hydroxy-2,6-dimethyl-phenyl)-1-propyl-piperidine-2-carboxamide

> <PUBCHEM_IUPAC_CAS_NAME>
(2S)-N-(3-hydroxy-2,6-dimethylphenyl)-1-propyl-2-piperidinecarboxamide

> <PUBCHEM_IUPAC_NAME>
(2S)-N-(3-hydroxy-2,6-dimethylphenyl)-1-propylpiperidine-2-carboxamide

> <PUBCHEM_IUPAC_SYSTEMATIC_NAME>
(2S)-N-(2,6-dimethyl-3-oxidanyl-phenyl)-1-propyl-piperidine-2-carboxamide

> <PUBCHEM_IUPAC_TRADITIONAL_NAME>
(2S)-N-(3-hydroxy-2,6-dimethyl-phenyl)-1-propyl-pipecolinamide

> <PUBCHEM_IUPAC_INCHI>
InChI=1S/C17H26N2O2/c1-4-10-19-11-6-5-7-14(19)17(21)18-16-12(2)8-9-15(20)13(16)3/h8-9,14,20H,4-7,10-11H2,1-3H3,(H,18,21)/t14-/m0/s1

> <PUBCHEM_IUPAC_INCHIKEY>
IXOVDWXTIIYVOJ-AWEZNQCLSA-N

> <PUBCHEM_XLOGP3>
2.5

> <PUBCHEM_EXACT_MASS>
290.199428

> <PUBCHEM_MOLECULAR_FORMULA>
C17H26N2O2

> <PUBCHEM_MOLECULAR_WEIGHT>
290.40054

> <PUBCHEM_OPENEYE_CAN_SMILES>
CCCN1CCCCC1C(=O)NC2=C(C=CC(=C2C)O)C

> <PUBCHEM_OPENEYE_ISO_SMILES>
CCCN1CCCC[C@H]1C(=O)NC2=C(C=CC(=C2C)O)C

> <PUBCHEM_CACTVS_TPSA>
52.6

> <PUBCHEM_MONOISOTOPIC_WEIGHT>
290.199428

> <PUBCHEM_TOTAL_CHARGE>
0

> <PUBCHEM_HEAVY_ATOM_COUNT>
21

> <PUBCHEM_ATOM_DEF_STEREO_COUNT>
1

> <PUBCHEM_ATOM_UDEF_STEREO_COUNT>
0

> <PUBCHEM_BOND_DEF_STEREO_COUNT>
0

> <PUBCHEM_BOND_UDEF_STEREO_COUNT>
0

> <PUBCHEM_ISOTOPIC_ATOM_COUNT>
0

> <PUBCHEM_COMPONENT_COUNT>
1

> <PUBCHEM_CACTVS_TAUTO_COUNT>
22

> <PUBCHEM_COORDINATE_TYPE>
1
5
255

> <PUBCHEM_BONDANNOTATIONS>
14  15  8
14  16  8
15  17  8
16  18  8
17  21  8
18  21  8
5  11  6

$$$$

