266046
  -OEChem-07051213002D

 40 43  0     0  0  0  0  0  0999 V2000
    4.6258   -2.1593    0.0000 O   0  0  0  0  0  0  0  0  0  0  0  0
    2.8641   -1.0502    0.0000 O   0  0  0  0  0  0  0  0  0  0  0  0
    7.2482    0.4949    0.0000 O   0  0  0  0  0  0  0  0  0  0  0  0
    5.7253    3.4667    0.0000 O   0  0  0  0  0  0  0  0  0  0  0  0
    4.6501    1.9949    0.0000 N   0  0  0  0  0  0  0  0  0  0  0  0
    5.5654   -2.7018    0.0000 C   0  0  0  0  0  0  0  0  0  0  0  0
    5.5322   -0.5466    0.0000 C   0  0  0  0  0  0  0  0  0  0  0  0
    4.6341   -1.0744    0.0000 C   0  0  0  0  0  0  0  0  0  0  0  0
    5.5161    0.4949    0.0000 C   0  0  0  0  0  0  0  0  0  0  0  0
    6.5008   -2.1521    0.0000 C   0  0  0  0  0  0  0  0  0  0  0  0
    6.4841   -1.0672    0.0000 C   0  0  0  0  0  0  0  0  0  0  0  0
    4.6501    0.9949    0.0000 C   0  0  0  0  0  0  0  0  0  0  0  0
    6.0687   -3.5659    0.0000 C   0  0  0  0  0  0  0  0  0  0  0  0
    5.0687   -3.5698    0.0000 C   0  0  0  0  0  0  0  0  0  0  0  0
    3.7320   -0.5535    0.0000 C   0  0  0  0  0  0  0  0  0  0  0  0
    6.3821    0.9949    0.0000 C   0  0  0  0  0  0  0  0  0  0  0  0
    3.7401    0.4881    0.0000 C   0  0  0  0  0  0  0  0  0  0  0  0
    6.3821    1.9949    0.0000 C   0  0  0  0  0  0  0  0  0  0  0  0
    5.5161    2.4949    0.0000 C   0  0  0  0  0  0  0  0  0  0  0  0
    7.1191    2.6620    0.0000 C   0  0  0  0  0  0  0  0  0  0  0  0
    6.7140    3.5698    0.0000 C   0  0  0  0  0  0  0  0  0  0  0  0
    2.0000   -0.5469    0.0000 C   0  0  0  0  0  0  0  0  0  0  0  0
    8.1142    0.9949    0.0000 C   0  0  0  0  0  0  0  0  0  0  0  0
    7.0413   -2.4559    0.0000 H   0  0  0  0  0  0  0  0  0  0  0  0
    7.0149   -0.7469    0.0000 H   0  0  0  0  0  0  0  0  0  0  0  0
    4.5306   -3.2618    0.0000 H   0  0  0  0  0  0  0  0  0  0  0  0
    4.7608   -4.1079    0.0000 H   0  0  0  0  0  0  0  0  0  0  0  0
    5.6068   -3.8777    0.0000 H   0  0  0  0  0  0  0  0  0  0  0  0
    5.5330   -3.8780    0.0000 H   0  0  0  0  0  0  0  0  0  0  0  0
    6.3808   -4.1016    0.0000 H   0  0  0  0  0  0  0  0  0  0  0  0
    6.6045   -3.2538    0.0000 H   0  0  0  0  0  0  0  0  0  0  0  0
    3.2068    0.8042    0.0000 H   0  0  0  0  0  0  0  0  0  0  0  0
    7.7258    2.5341    0.0000 H   0  0  0  0  0  0  0  0  0  0  0  0
    7.0240    4.1067    0.0000 H   0  0  0  0  0  0  0  0  0  0  0  0
    2.3121   -0.0111    0.0000 H   0  0  0  0  0  0  0  0  0  0  0  0
    1.4643   -0.2348    0.0000 H   0  0  0  0  0  0  0  0  0  0  0  0
    1.6879   -1.0826    0.0000 H   0  0  0  0  0  0  0  0  0  0  0  0
    8.4242    0.4580    0.0000 H   0  0  0  0  0  0  0  0  0  0  0  0
    8.6511    1.3049    0.0000 H   0  0  0  0  0  0  0  0  0  0  0  0
    7.8042    1.5318    0.0000 H   0  0  0  0  0  0  0  0  0  0  0  0
  1  6  1  0  0  0  0
  1  8  1  0  0  0  0
  2 15  1  0  0  0  0
  2 22  1  0  0  0  0
  3 16  1  0  0  0  0
  3 23  1  0  0  0  0
  4 19  1  0  0  0  0
  4 21  1  0  0  0  0
  5 12  1  0  0  0  0
  5 19  2  0  0  0  0
  6 10  1  0  0  0  0
  6 13  1  0  0  0  0
  6 14  1  0  0  0  0
  7  8  1  0  0  0  0
  7  9  2  0  0  0  0
  7 11  1  0  0  0  0
  8 15  2  0  0  0  0
  9 12  1  0  0  0  0
  9 16  1  0  0  0  0
 10 11  2  0  0  0  0
 10 24  1  0  0  0  0
 11 25  1  0  0  0  0
 12 17  2  0  0  0  0
 13 29  1  0  0  0  0
 13 30  1  0  0  0  0
 13 31  1  0  0  0  0
 14 26  1  0  0  0  0
 14 27  1  0  0  0  0
 14 28  1  0  0  0  0
 15 17  1  0  0  0  0
 16 18  2  0  0  0  0
 17 32  1  0  0  0  0
 18 19  1  0  0  0  0
 18 20  1  0  0  0  0
 20 21  2  0  0  0  0
 20 33  1  0  0  0  0
 21 34  1  0  0  0  0
 22 35  1  0  0  0  0
 22 36  1  0  0  0  0
 22 37  1  0  0  0  0
 23 38  1  0  0  0  0
 23 39  1  0  0  0  0
 23 40  1  0  0  0  0
M  END
> <PUBCHEM_COMPOUND_CID>
266046

> <PUBCHEM_COMPOUND_CANONICALIZED>
1

> <PUBCHEM_CACTVS_COMPLEXITY>
480

> <PUBCHEM_CACTVS_HBOND_ACCEPTOR>
5

> <PUBCHEM_CACTVS_HBOND_DONOR>
0

> <PUBCHEM_CACTVS_ROTATABLE_BOND>
2

> <PUBCHEM_CACTVS_SUBSKEYS>
AAADceB6OAAAAAAAAAAAAAAAAAAAASAAAAA8QIAAAAAAAFix/gAAHgAAAAAADEyhngIyxvIIFECoAy1y1ACCiCAtIiAImCE27NgNJ/bEtJuOOWrn5B3K6Yf++f+eoEABQgAaQABAgAKEADSAAAAAAAAAAA==

> <PUBCHEM_IUPAC_INCHI>
InChI=1S/C18H17NO4/c1-18(2)7-5-10-14-12(9-13(20-3)15(10)23-18)19-17-11(6-8-22-17)16(14)21-4/h5-9H,1-4H3

> <PUBCHEM_IUPAC_INCHIKEY>
MUJFBNIGLPDCAE-UHFFFAOYSA-N

> <PUBCHEM_XLOGP3_AA>
3.6

> <PUBCHEM_EXACT_MASS>
311.115758

> <PUBCHEM_MOLECULAR_FORMULA>
C18H17NO4

> <PUBCHEM_MOLECULAR_WEIGHT>
311.33188

> <PUBCHEM_OPENEYE_CAN_SMILES>
CC1(C=CC2=C3C(=CC(=C2O1)OC)N=C4C(=C3OC)C=CO4)C

> <PUBCHEM_OPENEYE_ISO_SMILES>
CC1(C=CC2=C3C(=CC(=C2O1)OC)N=C4C(=C3OC)C=CO4)C

> <PUBCHEM_CACTVS_TPSA>
53.7

> <PUBCHEM_MONOISOTOPIC_WEIGHT>
311.115758

> <PUBCHEM_TOTAL_CHARGE>
0

> <PUBCHEM_HEAVY_ATOM_COUNT>
23

> <PUBCHEM_ATOM_DEF_STEREO_COUNT>
0

> <PUBCHEM_ATOM_UDEF_STEREO_COUNT>
0

> <PUBCHEM_BOND_DEF_STEREO_COUNT>
0

> <PUBCHEM_BOND_UDEF_STEREO_COUNT>
0

> <PUBCHEM_ISOTOPIC_ATOM_COUNT>
0

> <PUBCHEM_COMPONENT_COUNT>
1

> <PUBCHEM_CACTVS_TAUTO_COUNT>
1

> <PUBCHEM_COORDINATE_TYPE>
1
5
255

> <PUBCHEM_BONDANNOTATIONS>
12  17  8
15  17  8
16  18  8
18  19  8
18  20  8
20  21  8
4  19  8
4  21  8
5  12  8
5  19  8
7  8  8
7  9  8
8  15  8
9  12  8
9  16  8

$$$$

