10384
  -OEChem-06261204312D

 39 39  0     0  0  0  0  0  0999 V2000
    4.2690    4.5600    0.0000 O   0  0  0  0  0  0  0  0  0  0  0  0
    7.7331    0.5600    0.0000 O   0  0  0  0  0  0  0  0  0  0  0  0
    2.5369    3.5600    0.0000 O   0  0  0  0  0  0  0  0  0  0  0  0
    6.8671   -0.9400    0.0000 N   0  0  0  0  0  0  0  0  0  0  0  0
    9.4651   -4.4400    0.0000 N   0  0  0  0  0  0  0  0  0  0  0  0
    7.7331   -2.4400    0.0000 C   0  0  0  0  0  0  0  0  0  0  0  0
    8.5991   -2.9400    0.0000 C   0  0  0  0  0  0  0  0  0  0  0  0
    7.7331   -1.4400    0.0000 C   0  0  0  0  0  0  0  0  0  0  0  0
    8.5991   -3.9400    0.0000 C   0  0  0  0  0  0  0  0  0  0  0  0
    6.8671    0.0600    0.0000 C   0  0  0  0  0  0  0  0  0  0  0  0
    5.1350    2.0600    0.0000 C   0  0  0  0  0  0  0  0  0  0  0  0
    6.0010    0.5600    0.0000 C   0  0  0  0  0  0  0  0  0  0  0  0
    6.0010    1.5600    0.0000 C   0  0  0  0  0  0  0  0  0  0  0  0
    5.1350    3.0600    0.0000 C   0  0  0  0  0  0  0  0  0  0  0  0
    4.2690    3.5600    0.0000 C   0  0  0  0  0  0  0  0  0  0  0  0
    4.2690    1.5600    0.0000 C   0  0  0  0  0  0  0  0  0  0  0  0
    3.4030    3.0600    0.0000 C   0  0  0  0  0  0  0  0  0  0  0  0
    3.4030    2.0600    0.0000 C   0  0  0  0  0  0  0  0  0  0  0  0
    5.1350    5.0600    0.0000 C   0  0  0  0  0  0  0  0  0  0  0  0
    7.1225   -2.3323    0.0000 H   0  0  0  0  0  0  0  0  0  0  0  0
    7.5210   -3.0226    0.0000 H   0  0  0  0  0  0  0  0  0  0  0  0
    9.2097   -3.0477    0.0000 H   0  0  0  0  0  0  0  0  0  0  0  0
    8.8112   -2.3574    0.0000 H   0  0  0  0  0  0  0  0  0  0  0  0
    8.3437   -1.5477    0.0000 H   0  0  0  0  0  0  0  0  0  0  0  0
    7.9451   -0.8574    0.0000 H   0  0  0  0  0  0  0  0  0  0  0  0
    7.9885   -3.8323    0.0000 H   0  0  0  0  0  0  0  0  0  0  0  0
    8.3871   -4.5226    0.0000 H   0  0  0  0  0  0  0  0  0  0  0  0
    6.3301   -1.2500    0.0000 H   0  0  0  0  0  0  0  0  0  0  0  0
    9.4651   -5.0600    0.0000 H   0  0  0  0  0  0  0  0  0  0  0  0
   10.0021   -4.1300    0.0000 H   0  0  0  0  0  0  0  0  0  0  0  0
    5.4641    0.2500    0.0000 H   0  0  0  0  0  0  0  0  0  0  0  0
    6.5380    1.8700    0.0000 H   0  0  0  0  0  0  0  0  0  0  0  0
    5.6720    3.3700    0.0000 H   0  0  0  0  0  0  0  0  0  0  0  0
    4.2690    0.9400    0.0000 H   0  0  0  0  0  0  0  0  0  0  0  0
    2.8660    1.7500    0.0000 H   0  0  0  0  0  0  0  0  0  0  0  0
    2.0000    3.2500    0.0000 H   0  0  0  0  0  0  0  0  0  0  0  0
    5.4450    4.5231    0.0000 H   0  0  0  0  0  0  0  0  0  0  0  0
    5.6720    5.3700    0.0000 H   0  0  0  0  0  0  0  0  0  0  0  0
    4.8250    5.5969    0.0000 H   0  0  0  0  0  0  0  0  0  0  0  0
  1 15  1  0  0  0  0
  1 19  1  0  0  0  0
  2 10  2  0  0  0  0
  3 17  1  0  0  0  0
  3 36  1  0  0  0  0
  4  8  1  0  0  0  0
  4 10  1  0  0  0  0
  4 28  1  0  0  0  0
  5  9  1  0  0  0  0
  5 29  1  0  0  0  0
  5 30  1  0  0  0  0
  6  7  1  0  0  0  0
  6  8  1  0  0  0  0
  6 20  1  0  0  0  0
  6 21  1  0  0  0  0
  7  9  1  0  0  0  0
  7 22  1  0  0  0  0
  7 23  1  0  0  0  0
  8 24  1  0  0  0  0
  8 25  1  0  0  0  0
  9 26  1  0  0  0  0
  9 27  1  0  0  0  0
 10 12  1  0  0  0  0
 11 13  1  0  0  0  0
 11 14  2  0  0  0  0
 11 16  1  0  0  0  0
 12 13  2  3  0  0  0
 12 31  1  0  0  0  0
 13 32  1  0  0  0  0
 14 15  1  0  0  0  0
 14 33  1  0  0  0  0
 15 17  2  0  0  0  0
 16 18  2  0  0  0  0
 16 34  1  0  0  0  0
 17 18  1  0  0  0  0
 18 35  1  0  0  0  0
 19 37  1  0  0  0  0
 19 38  1  0  0  0  0
 19 39  1  0  0  0  0
M  END
> <PUBCHEM_COMPOUND_CID>
10384

> <PUBCHEM_COMPOUND_CANONICALIZED>
1

> <PUBCHEM_CACTVS_COMPLEXITY>
294

> <PUBCHEM_CACTVS_HBOND_ACCEPTOR>
4

> <PUBCHEM_CACTVS_HBOND_DONOR>
3

> <PUBCHEM_CACTVS_ROTATABLE_BOND>
7

> <PUBCHEM_CACTVS_SUBSKEYS>
AAADceBzMAAAAAAAAAAAAAAAAAAAAAAAAAAwAAAAAAAAAAABAAAAHgAQCAAADATBmAYyBoLABgCIAiFSEACCCAAgIAAIiIAOiMgNJiKGsRqEcCMk1hGLuYeAwBAOIAABAAAAQABAAAIAAACAAAAAAAAAAA==

> <PUBCHEM_IUPAC_OPENEYE_NAME>
N-(4-aminobutyl)-3-(4-hydroxy-3-methoxy-phenyl)prop-2-enamide

> <PUBCHEM_IUPAC_CAS_NAME>
N-(4-aminobutyl)-3-(4-hydroxy-3-methoxyphenyl)-2-propenamide

> <PUBCHEM_IUPAC_NAME>
N-(4-aminobutyl)-3-(4-hydroxy-3-methoxyphenyl)prop-2-enamide

> <PUBCHEM_IUPAC_SYSTEMATIC_NAME>
N-(4-azanylbutyl)-3-(3-methoxy-4-oxidanyl-phenyl)prop-2-enamide

> <PUBCHEM_IUPAC_TRADITIONAL_NAME>
N-(4-aminobutyl)-3-(4-hydroxy-3-methoxy-phenyl)acrylamide

> <PUBCHEM_IUPAC_INCHI>
InChI=1S/C14H20N2O3/c1-19-13-10-11(4-6-12(13)17)5-7-14(18)16-9-3-2-8-15/h4-7,10,17H,2-3,8-9,15H2,1H3,(H,16,18)

> <PUBCHEM_IUPAC_INCHIKEY>
SFUVCMKSYKHYLD-UHFFFAOYSA-N

> <PUBCHEM_XLOGP3>
1

> <PUBCHEM_EXACT_MASS>
264.147393

> <PUBCHEM_MOLECULAR_FORMULA>
C14H20N2O3

> <PUBCHEM_MOLECULAR_WEIGHT>
264.3202

> <PUBCHEM_OPENEYE_CAN_SMILES>
COC1=C(C=CC(=C1)C=CC(=O)NCCCCN)O

> <PUBCHEM_OPENEYE_ISO_SMILES>
COC1=C(C=CC(=C1)C=CC(=O)NCCCCN)O

> <PUBCHEM_CACTVS_TPSA>
84.6

> <PUBCHEM_MONOISOTOPIC_WEIGHT>
264.147393

> <PUBCHEM_TOTAL_CHARGE>
0

> <PUBCHEM_HEAVY_ATOM_COUNT>
19

> <PUBCHEM_ATOM_DEF_STEREO_COUNT>
0

> <PUBCHEM_ATOM_UDEF_STEREO_COUNT>
0

> <PUBCHEM_BOND_DEF_STEREO_COUNT>
0

> <PUBCHEM_BOND_UDEF_STEREO_COUNT>
1

> <PUBCHEM_ISOTOPIC_ATOM_COUNT>
0

> <PUBCHEM_COMPONENT_COUNT>
1

> <PUBCHEM_CACTVS_TAUTO_COUNT>
9

> <PUBCHEM_COORDINATE_TYPE>
1
5
255

> <PUBCHEM_BONDANNOTATIONS>
11  14  8
11  16  8
12  13  1
14  15  8
15  17  8
16  18  8
17  18  8

$$$$

