   Color/Form
        Crystals from methanol
   from [1]HSDB

   Melting Point
        236-251 deg C
   from [2]HSDB

   Dissociation Constants
        pKa = 9.8
   from [3]HSDB

   Octanol/Water Partition Coefficient
        log Kow = 0.60
   from [4]HSDB

   Solubilities

     * Very soluble in methanol, chloroform; slightly soluble in ethanol,
       sparingly soluble in water.
     * Sol in alc: approx 0.76 mg/ml
     * Water solubility: approx 0.08 mg/mL

   from [5]HSDB

   Spectral Properties

     * Specific optical rotation = -110.5 deg C @ 20 deg C/D ( c= 0.6 in
       chloroform).
     * UV max (abs methanol): 283 nm (epsilon 4245)

   from [6]HSDB

   Vapor Pressure
        5.4X10-23 mm Hg at 25 deg C /Estimated/
   from [7]HSDB

   Other Chemical/Physical Properties

     * MW: 668.54. Soluble in water. Practically insoluble in organic
       solvents. /Phosphate/
     * Etoposide differs structurally from podophyllotoxin by having a
       glucoside moiety and the epimeric configuration of the C-4 position
       of the ... /cyclohexane/ ring and by the presence of a hydroxyl
       group, rather than a methoxy group, at the C-4' position of the ...
       /phenolic/ ring.
     * Henry's Law constant = 1.7X10-30 atm-cu m/mol at 25 deg C
       /Estimated/
     * Hydroxyl radical reaction rate constant = 3.0X10-10 cu
       cm/molecule-sec at 25 deg C /Estimated/

   from [8]HSDB

   Computed Properties
   Molecular Weight                  588.55658 [g/mol]
   Molecular Formula                 C[29]H[32]O[13]
   XLogP3                            0.6
   H-Bond Donor                      3
   H-Bond Acceptor                   13
   Rotatable Bond Count              5
   Tautomer Count                    4
   Exact Mass                        588.184291
   MonoIsotopic Mass                 588.184291
   Topological Polar Surface Area    161
   Heavy Atom Count                  42
   Formal Charge                     0
   Complexity                        969
   Isotope Atom Count                0
   Defined Atom Stereocenter Count   10
   Undefined Atom Stereocenter Count 0
   Defined Bond Stereocenter Count   0
   Undefined Bond Stereocenter Count 0
   Covalently-Bonded Unit Count      1
   Feature 3D Acceptor Count         11
   Feature 3D Donor Count            3
   Feature 3D Ring Count             7
   Effective Rotor Count             8
   Conformer Sampling RMSD           1
   CID Conformer Count               [9]6

References

   1. http://toxnet.nlm.nih.gov/cgi-bin/sis/search/r?dbs+hsdb:@term+@rn+@rel+33419-42-0
   2. http://toxnet.nlm.nih.gov/cgi-bin/sis/search/r?dbs+hsdb:@term+@rn+@rel+33419-42-0
   3. http://toxnet.nlm.nih.gov/cgi-bin/sis/search/r?dbs+hsdb:@term+@rn+@rel+33419-42-0
   4. http://toxnet.nlm.nih.gov/cgi-bin/sis/search/r?dbs+hsdb:@term+@rn+@rel+33419-42-0
   5. http://toxnet.nlm.nih.gov/cgi-bin/sis/search/r?dbs+hsdb:@term+@rn+@rel+33419-42-0
   6. http://toxnet.nlm.nih.gov/cgi-bin/sis/search/r?dbs+hsdb:@term+@rn+@rel+33419-42-0
   7. http://toxnet.nlm.nih.gov/cgi-bin/sis/search/r?dbs+hsdb:@term+@rn+@rel+33419-42-0
   8. http://toxnet.nlm.nih.gov/cgi-bin/sis/search/r?dbs+hsdb:@term+@rn+@rel+33419-42-0
   9. http://pubchem.ncbi.nlm.nih.gov/vw3d/vw3d.cgi?cid=36462
