9674
  -OEChem-06261203562D

 19 18  0     0  0  0  0  0  0999 V2000
    5.4641    1.8170    0.0000 F   0  0  0  0  0  0  0  0  0  0  0  0
    5.0981    0.4510    0.0000 F   0  0  0  0  0  0  0  0  0  0  0  0
    4.0981    2.1830    0.0000 F   0  0  0  0  0  0  0  0  0  0  0  0
    2.0000    1.8170    0.0000 F   0  0  0  0  0  0  0  0  0  0  0  0
    2.3660    0.4510    0.0000 F   0  0  0  0  0  0  0  0  0  0  0  0
    3.3660    2.1830    0.0000 F   0  0  0  0  0  0  0  0  0  0  0  0
    4.5981   -0.6830    0.0000 F   0  0  0  0  0  0  0  0  0  0  0  0
    2.8660   -0.6830    0.0000 O   0  0  0  0  0  0  0  0  0  0  0  0
    3.7320    0.8170    0.0000 C   0  0  0  0  0  0  0  0  0  0  0  0
    4.5981    1.3170    0.0000 C   0  0  0  0  0  0  0  0  0  0  0  0
    2.8660    1.3170    0.0000 C   0  0  0  0  0  0  0  0  0  0  0  0
    3.7320   -0.1830    0.0000 C   0  0  0  0  0  0  0  0  0  0  0  0
    2.8660   -1.6830    0.0000 C   0  0  0  0  0  0  0  0  0  0  0  0
    2.0000   -2.1830    0.0000 C   0  0  0  0  0  0  0  0  0  0  0  0
    3.0781   -2.2656    0.0000 H   0  0  0  0  0  0  0  0  0  0  0  0
    3.4766   -1.5754    0.0000 H   0  0  0  0  0  0  0  0  0  0  0  0
    1.6900   -1.6461    0.0000 H   0  0  0  0  0  0  0  0  0  0  0  0
    1.4631   -2.4930    0.0000 H   0  0  0  0  0  0  0  0  0  0  0  0
    2.3100   -2.7200    0.0000 H   0  0  0  0  0  0  0  0  0  0  0  0
  1 10  1  0  0  0  0
  2 10  1  0  0  0  0
  3 10  1  0  0  0  0
  4 11  1  0  0  0  0
  5 11  1  0  0  0  0
  6 11  1  0  0  0  0
  7 12  1  0  0  0  0
  8 12  1  0  0  0  0
  8 13  1  0  0  0  0
  9 10  1  0  0  0  0
  9 11  1  0  0  0  0
  9 12  2  0  0  0  0
 13 14  1  0  0  0  0
 13 15  1  0  0  0  0
 13 16  1  0  0  0  0
 14 17  1  0  0  0  0
 14 18  1  0  0  0  0
 14 19  1  0  0  0  0
M  END
> <PUBCHEM_COMPOUND_CID>
9674

> <PUBCHEM_COMPOUND_CANONICALIZED>
1

> <PUBCHEM_CACTVS_COMPLEXITY>
207

> <PUBCHEM_CACTVS_HBOND_ACCEPTOR>
8

> <PUBCHEM_CACTVS_HBOND_DONOR>
0

> <PUBCHEM_CACTVS_ROTATABLE_BOND>
2

> <PUBCHEM_CACTVS_SUBSKEYS>
AAADcYBgIcAAAAAAAAAAAAAAAAAAAAAAAAAAAAAAAAAAAAAAAAAAGwAAAAAADACggBICAAAABACAAgBAAAAACAAAIAAAAAAAAAAAAAAAAAAAAAAAAAAAAAAAAAAAAAAAAAAAAAAAAAAAAAAAAAAAAAAAAA==

> <PUBCHEM_IUPAC_OPENEYE_NAME>
1-ethoxy-1,3,3,3-tetrafluoro-2-(trifluoromethyl)prop-1-ene

> <PUBCHEM_IUPAC_CAS_NAME>
1-ethoxy-1,3,3,3-tetrafluoro-2-(trifluoromethyl)-1-propene

> <PUBCHEM_IUPAC_NAME>
1-ethoxy-1,3,3,3-tetrafluoro-2-(trifluoromethyl)prop-1-ene

> <PUBCHEM_IUPAC_SYSTEMATIC_NAME>
1-ethoxy-1,3,3,3-tetrakis(fluoranyl)-2-(trifluoromethyl)prop-1-ene

> <PUBCHEM_IUPAC_TRADITIONAL_NAME>
1-ethoxy-1,3,3,3-tetrafluoro-2-(trifluoromethyl)prop-1-ene

> <PUBCHEM_IUPAC_INCHI>
InChI=1S/C6H5F7O/c1-2-14-4(7)3(5(8,9)10)6(11,12)13/h2H2,1H3

> <PUBCHEM_IUPAC_INCHIKEY>
BSZWZZSFVRISOG-UHFFFAOYSA-N

> <PUBCHEM_XLOGP3_AA>
3.4

> <PUBCHEM_EXACT_MASS>
226.022862

> <PUBCHEM_MOLECULAR_FORMULA>
C6H5F7O

> <PUBCHEM_MOLECULAR_WEIGHT>
226.092122

> <PUBCHEM_OPENEYE_CAN_SMILES>
CCOC(=C(C(F)(F)F)C(F)(F)F)F

> <PUBCHEM_OPENEYE_ISO_SMILES>
CCOC(=C(C(F)(F)F)C(F)(F)F)F

> <PUBCHEM_CACTVS_TPSA>
9.2

> <PUBCHEM_MONOISOTOPIC_WEIGHT>
226.022862

> <PUBCHEM_TOTAL_CHARGE>
0

> <PUBCHEM_HEAVY_ATOM_COUNT>
14

> <PUBCHEM_ATOM_DEF_STEREO_COUNT>
0

> <PUBCHEM_ATOM_UDEF_STEREO_COUNT>
0

> <PUBCHEM_BOND_DEF_STEREO_COUNT>
0

> <PUBCHEM_BOND_UDEF_STEREO_COUNT>
0

> <PUBCHEM_ISOTOPIC_ATOM_COUNT>
0

> <PUBCHEM_COMPONENT_COUNT>
1

> <PUBCHEM_CACTVS_TAUTO_COUNT>
1

> <PUBCHEM_COORDINATE_TYPE>
1
5
255

$$$$

