221270
  -OEChem-07051213072D

 72 71  0     1  0  0  0  0  0999 V2000
    9.2942    0.1160    0.0000 O   0  0  0  0  0  0  0  0  0  0  0  0
   12.8923   -0.1160    0.0000 O   0  0  0  0  0  0  0  0  0  0  0  0
   14.1244    0.7500    0.0000 C   0  0  0  0  0  0  0  0  0  0  0  0
    8.0622   -0.7500    0.0000 C   0  0  0  0  0  0  0  0  0  0  0  0
    7.1962   -1.2500    0.0000 C   0  0  0  0  0  0  0  0  0  0  0  0
   14.9904    1.2500    0.0000 C   0  0  0  0  0  0  0  0  0  0  0  0
   13.2583    1.2500    0.0000 C   0  0  0  0  0  0  0  0  0  0  0  0
    8.9282   -1.2500    0.0000 C   0  0  0  0  0  0  0  0  0  0  0  0
    6.3301   -0.7500    0.0000 C   0  0  0  0  0  0  0  0  0  0  0  0
   15.8564    0.7500    0.0000 C   0  0  0  0  0  0  0  0  0  0  0  0
    9.7942   -0.7500    0.0000 C   0  0  3  0  0  0  0  0  0  0  0  0
   12.3923    0.7500    0.0000 C   0  0  3  0  0  0  0  0  0  0  0  0
   16.7224    1.2500    0.0000 C   0  0  0  0  0  0  0  0  0  0  0  0
    5.4641   -1.2500    0.0000 C   0  0  0  0  0  0  0  0  0  0  0  0
   17.5885    0.7500    0.0000 C   0  0  0  0  0  0  0  0  0  0  0  0
    4.5981   -0.7500    0.0000 C   0  0  0  0  0  0  0  0  0  0  0  0
    3.7320   -1.2500    0.0000 C   0  0  0  0  0  0  0  0  0  0  0  0
   18.4545    1.2500    0.0000 C   0  0  0  0  0  0  0  0  0  0  0  0
   11.8923    1.6160    0.0000 C   0  0  0  0  0  0  0  0  0  0  0  0
   10.2942   -1.6160    0.0000 C   0  0  0  0  0  0  0  0  0  0  0  0
   10.6603   -0.2500    0.0000 C   0  0  0  0  0  0  0  0  0  0  0  0
   11.5263    0.2500    0.0000 C   0  0  0  0  0  0  0  0  0  0  0  0
    2.8660   -0.7500    0.0000 C   0  0  0  0  0  0  0  0  0  0  0  0
   19.3205    0.7500    0.0000 C   0  0  0  0  0  0  0  0  0  0  0  0
   20.1865    1.2500    0.0000 C   0  0  0  0  0  0  0  0  0  0  0  0
    2.0000   -1.2500    0.0000 C   0  0  0  0  0  0  0  0  0  0  0  0
    8.4607   -0.2751    0.0000 H   0  0  0  0  0  0  0  0  0  0  0  0
    7.6636   -0.2751    0.0000 H   0  0  0  0  0  0  0  0  0  0  0  0
   13.7258    0.2751    0.0000 H   0  0  0  0  0  0  0  0  0  0  0  0
   14.5229    0.2751    0.0000 H   0  0  0  0  0  0  0  0  0  0  0  0
    6.7976   -1.7250    0.0000 H   0  0  0  0  0  0  0  0  0  0  0  0
    7.5947   -1.7250    0.0000 H   0  0  0  0  0  0  0  0  0  0  0  0
   15.3889    1.7250    0.0000 H   0  0  0  0  0  0  0  0  0  0  0  0
   14.5919    1.7250    0.0000 H   0  0  0  0  0  0  0  0  0  0  0  0
    8.5297   -1.7250    0.0000 H   0  0  0  0  0  0  0  0  0  0  0  0
    9.3267   -1.7250    0.0000 H   0  0  0  0  0  0  0  0  0  0  0  0
   13.6569    1.7250    0.0000 H   0  0  0  0  0  0  0  0  0  0  0  0
   12.8598    1.7250    0.0000 H   0  0  0  0  0  0  0  0  0  0  0  0
   15.4579    0.2751    0.0000 H   0  0  0  0  0  0  0  0  0  0  0  0
   16.2549    0.2751    0.0000 H   0  0  0  0  0  0  0  0  0  0  0  0
    6.7287   -0.2751    0.0000 H   0  0  0  0  0  0  0  0  0  0  0  0
    5.9316   -0.2751    0.0000 H   0  0  0  0  0  0  0  0  0  0  0  0
   17.1210    1.7250    0.0000 H   0  0  0  0  0  0  0  0  0  0  0  0
   16.3239    1.7250    0.0000 H   0  0  0  0  0  0  0  0  0  0  0  0
    5.0656   -1.7250    0.0000 H   0  0  0  0  0  0  0  0  0  0  0  0
    5.8626   -1.7250    0.0000 H   0  0  0  0  0  0  0  0  0  0  0  0
    4.9966   -0.2751    0.0000 H   0  0  0  0  0  0  0  0  0  0  0  0
    4.1996   -0.2751    0.0000 H   0  0  0  0  0  0  0  0  0  0  0  0
   17.1899    0.2751    0.0000 H   0  0  0  0  0  0  0  0  0  0  0  0
   17.9870    0.2751    0.0000 H   0  0  0  0  0  0  0  0  0  0  0  0
   18.8530    1.7250    0.0000 H   0  0  0  0  0  0  0  0  0  0  0  0
   18.0560    1.7250    0.0000 H   0  0  0  0  0  0  0  0  0  0  0  0
    3.3335   -1.7250    0.0000 H   0  0  0  0  0  0  0  0  0  0  0  0
    4.1306   -1.7250    0.0000 H   0  0  0  0  0  0  0  0  0  0  0  0
    9.7573   -1.9260    0.0000 H   0  0  0  0  0  0  0  0  0  0  0  0
   10.6042   -2.1530    0.0000 H   0  0  0  0  0  0  0  0  0  0  0  0
   10.8312   -1.3060    0.0000 H   0  0  0  0  0  0  0  0  0  0  0  0
   12.4292    1.9260    0.0000 H   0  0  0  0  0  0  0  0  0  0  0  0
   11.5823    2.1530    0.0000 H   0  0  0  0  0  0  0  0  0  0  0  0
   11.3554    1.3060    0.0000 H   0  0  0  0  0  0  0  0  0  0  0  0
    3.2646   -0.2751    0.0000 H   0  0  0  0  0  0  0  0  0  0  0  0
    2.4675   -0.2751    0.0000 H   0  0  0  0  0  0  0  0  0  0  0  0
   18.9220    0.2751    0.0000 H   0  0  0  0  0  0  0  0  0  0  0  0
   19.7190    0.2751    0.0000 H   0  0  0  0  0  0  0  0  0  0  0  0
    9.6042    0.6530    0.0000 H   0  0  0  0  0  0  0  0  0  0  0  0
   12.5823   -0.6530    0.0000 H   0  0  0  0  0  0  0  0  0  0  0  0
   20.4965    0.7131    0.0000 H   0  0  0  0  0  0  0  0  0  0  0  0
   20.7235    1.5600    0.0000 H   0  0  0  0  0  0  0  0  0  0  0  0
   19.8765    1.7869    0.0000 H   0  0  0  0  0  0  0  0  0  0  0  0
    1.6900   -0.7131    0.0000 H   0  0  0  0  0  0  0  0  0  0  0  0
    1.4631   -1.5600    0.0000 H   0  0  0  0  0  0  0  0  0  0  0  0
    2.3100   -1.7869    0.0000 H   0  0  0  0  0  0  0  0  0  0  0  0
  1 11  1  0  0  0  0
  1 65  1  0  0  0  0
  2 12  1  0  0  0  0
  2 66  1  0  0  0  0
  3  6  1  0  0  0  0
  3  7  1  0  0  0  0
  3 29  1  0  0  0  0
  3 30  1  0  0  0  0
  4  5  1  0  0  0  0
  4  8  1  0  0  0  0
  4 27  1  0  0  0  0
  4 28  1  0  0  0  0
  5  9  1  0  0  0  0
  5 31  1  0  0  0  0
  5 32  1  0  0  0  0
  6 10  1  0  0  0  0
  6 33  1  0  0  0  0
  6 34  1  0  0  0  0
  7 12  1  0  0  0  0
  7 37  1  0  0  0  0
  7 38  1  0  0  0  0
  8 11  1  0  0  0  0
  8 35  1  0  0  0  0
  8 36  1  0  0  0  0
  9 14  1  0  0  0  0
  9 41  1  0  0  0  0
  9 42  1  0  0  0  0
 10 13  1  0  0  0  0
 10 39  1  0  0  0  0
 10 40  1  0  0  0  0
 11 20  1  0  0  0  0
 11 21  1  0  0  0  0
 12 19  1  0  0  0  0
 12 22  1  0  0  0  0
 13 15  1  0  0  0  0
 13 43  1  0  0  0  0
 13 44  1  0  0  0  0
 14 16  1  0  0  0  0
 14 45  1  0  0  0  0
 14 46  1  0  0  0  0
 15 18  1  0  0  0  0
 15 49  1  0  0  0  0
 15 50  1  0  0  0  0
 16 17  1  0  0  0  0
 16 47  1  0  0  0  0
 16 48  1  0  0  0  0
 17 23  1  0  0  0  0
 17 53  1  0  0  0  0
 17 54  1  0  0  0  0
 18 24  1  0  0  0  0
 18 51  1  0  0  0  0
 18 52  1  0  0  0  0
 19 58  1  0  0  0  0
 19 59  1  0  0  0  0
 19 60  1  0  0  0  0
 20 55  1  0  0  0  0
 20 56  1  0  0  0  0
 20 57  1  0  0  0  0
 21 22  3  0  0  0  0
 23 26  1  0  0  0  0
 23 61  1  0  0  0  0
 23 62  1  0  0  0  0
 24 25  1  0  0  0  0
 24 63  1  0  0  0  0
 24 64  1  0  0  0  0
 25 67  1  0  0  0  0
 25 68  1  0  0  0  0
 25 69  1  0  0  0  0
 26 70  1  0  0  0  0
 26 71  1  0  0  0  0
 26 72  1  0  0  0  0
M  END
> <PUBCHEM_COMPOUND_CID>
221270

> <PUBCHEM_COMPOUND_CANONICALIZED>
1

> <PUBCHEM_CACTVS_COMPLEXITY>
358

> <PUBCHEM_CACTVS_HBOND_ACCEPTOR>
2

> <PUBCHEM_CACTVS_HBOND_DONOR>
2

> <PUBCHEM_CACTVS_ROTATABLE_BOND>
18

> <PUBCHEM_CACTVS_SUBSKEYS>
AAADcfB4MAAAAAAAAAAAAAAAAAAAAAAAAAAAAAAAAAAAAAAAAAAAGgAACAAADESAgAACAAAAAgBAEAAAAAgAAAAAAAAAAAAAAAAAAAIAAAAAQAAEAAAAAAGAwOAMAAAAAAAAAAAAAAAAAAAAAAAAAAAAAA==

> <PUBCHEM_IUPAC_OPENEYE_NAME>
10,13-dimethyldocos-11-yne-10,13-diol

> <PUBCHEM_IUPAC_CAS_NAME>
10,13-dimethyl-11-docosyne-10,13-diol

> <PUBCHEM_IUPAC_NAME>
10,13-dimethyldocos-11-yne-10,13-diol

> <PUBCHEM_IUPAC_SYSTEMATIC_NAME>
10,13-dimethyldocos-11-yne-10,13-diol

> <PUBCHEM_IUPAC_TRADITIONAL_NAME>
10,13-dimethyldocos-11-yne-10,13-diol

> <PUBCHEM_IUPAC_INCHI>
InChI=1S/C24H46O2/c1-5-7-9-11-13-15-17-19-23(3,25)21-22-24(4,26)20-18-16-14-12-10-8-6-2/h25-26H,5-20H2,1-4H3

> <PUBCHEM_IUPAC_INCHIKEY>
SVJREAUWQPERAY-UHFFFAOYSA-N

> <PUBCHEM_XLOGP3_AA>
8.4

> <PUBCHEM_EXACT_MASS>
366.349781

> <PUBCHEM_MOLECULAR_FORMULA>
C24H46O2

> <PUBCHEM_MOLECULAR_WEIGHT>
366.62084

> <PUBCHEM_OPENEYE_CAN_SMILES>
CCCCCCCCCC(C)(C#CC(C)(CCCCCCCCC)O)O

> <PUBCHEM_OPENEYE_ISO_SMILES>
CCCCCCCCCC(C)(C#CC(C)(CCCCCCCCC)O)O

> <PUBCHEM_CACTVS_TPSA>
40.5

> <PUBCHEM_MONOISOTOPIC_WEIGHT>
366.349781

> <PUBCHEM_TOTAL_CHARGE>
0

> <PUBCHEM_HEAVY_ATOM_COUNT>
26

> <PUBCHEM_ATOM_DEF_STEREO_COUNT>
0

> <PUBCHEM_ATOM_UDEF_STEREO_COUNT>
2

> <PUBCHEM_BOND_DEF_STEREO_COUNT>
0

> <PUBCHEM_BOND_UDEF_STEREO_COUNT>
0

> <PUBCHEM_ISOTOPIC_ATOM_COUNT>
0

> <PUBCHEM_COMPONENT_COUNT>
1

> <PUBCHEM_CACTVS_TAUTO_COUNT>
1

> <PUBCHEM_COORDINATE_TYPE>
1
5
255

> <PUBCHEM_BONDANNOTATIONS>
11  1  3
12  2  3

$$$$

