18503
  -OEChem-07051213142D

 22 23  0     0  0  0  0  0  0999 V2000
    2.0000    3.0273    0.0000 O   0  0  0  0  0  0  0  0  0  0  0  0
    7.2008   -3.0273    0.0000 O   0  0  0  0  0  0  0  0  0  0  0  0
    3.7320    2.0273    0.0000 N   0  0  0  0  0  0  0  0  0  0  0  0
    5.4804   -2.0073    0.0000 N   0  0  0  0  0  0  0  0  0  0  0  0
    4.5981   -0.4727    0.0000 C   0  0  0  0  0  0  0  0  0  0  0  0
    4.5981    0.5273    0.0000 C   0  0  0  0  0  0  0  0  0  0  0  0
    3.7320    1.0273    0.0000 C   0  0  0  0  0  0  0  0  0  0  0  0
    5.4920   -1.0074    0.0000 C   0  0  0  0  0  0  0  0  0  0  0  0
    3.7320   -0.9727    0.0000 C   0  0  0  0  0  0  0  0  0  0  0  0
    5.4920    1.0619    0.0000 C   0  0  0  0  0  0  0  0  0  0  0  0
    2.8660    0.5273    0.0000 C   0  0  0  0  0  0  0  0  0  0  0  0
    6.3981   -0.4935    0.0000 C   0  0  0  0  0  0  0  0  0  0  0  0
    2.8660   -0.4727    0.0000 C   0  0  0  0  0  0  0  0  0  0  0  0
    6.3981    0.5481    0.0000 C   0  0  0  0  0  0  0  0  0  0  0  0
    2.8660    2.5273    0.0000 C   0  0  0  0  0  0  0  0  0  0  0  0
    6.3406   -2.5173    0.0000 C   0  0  0  0  0  0  0  0  0  0  0  0
    3.7320   -1.5927    0.0000 H   0  0  0  0  0  0  0  0  0  0  0  0
    5.4848    1.6819    0.0000 H   0  0  0  0  0  0  0  0  0  0  0  0
    2.3291    0.8373    0.0000 H   0  0  0  0  0  0  0  0  0  0  0  0
    6.9338   -0.8056    0.0000 H   0  0  0  0  0  0  0  0  0  0  0  0
    2.3291   -0.7827    0.0000 H   0  0  0  0  0  0  0  0  0  0  0  0
    6.9338    0.8602    0.0000 H   0  0  0  0  0  0  0  0  0  0  0  0
  1 15  2  0  0  0  0
  2 16  2  0  0  0  0
  3  7  1  0  0  0  0
  3 15  2  0  0  0  0
  4  8  1  0  0  0  0
  4 16  2  0  0  0  0
  5  6  2  0  0  0  0
  5  8  1  0  0  0  0
  5  9  1  0  0  0  0
  6  7  1  0  0  0  0
  6 10  1  0  0  0  0
  7 11  2  0  0  0  0
  8 12  2  0  0  0  0
  9 13  2  0  0  0  0
  9 17  1  0  0  0  0
 10 14  2  0  0  0  0
 10 18  1  0  0  0  0
 11 13  1  0  0  0  0
 11 19  1  0  0  0  0
 12 14  1  0  0  0  0
 12 20  1  0  0  0  0
 13 21  1  0  0  0  0
 14 22  1  0  0  0  0
M  END
> <PUBCHEM_COMPOUND_CID>
18503

> <PUBCHEM_COMPOUND_CANONICALIZED>
1

> <PUBCHEM_CACTVS_COMPLEXITY>
309

> <PUBCHEM_CACTVS_HBOND_ACCEPTOR>
4

> <PUBCHEM_CACTVS_HBOND_DONOR>
0

> <PUBCHEM_CACTVS_ROTATABLE_BOND>
2

> <PUBCHEM_CACTVS_SUBSKEYS>
AAADcYBzMAAAAAAAAAAAAAAAAAAAAAAAAAAwYAAAAAAAAADBUAAAHgAAAAAADAiBGAAwwMIAAACoAiRCVACCAAAgAgAIiAAAZIgIICKAkZGAIABggAAIyAcQgIAOgAAAQAASAAAAAACAACQAAAAAAAAAAA==

> <PUBCHEM_IUPAC_OPENEYE_NAME>
1,5-diisocyanatonaphthalene

> <PUBCHEM_IUPAC_CAS_NAME>
1,5-diisocyanatonaphthalene

> <PUBCHEM_IUPAC_NAME>
1,5-diisocyanatonaphthalene

> <PUBCHEM_IUPAC_SYSTEMATIC_NAME>
1,5-diisocyanatonaphthalene

> <PUBCHEM_IUPAC_TRADITIONAL_NAME>
1,5-diisocyanatonaphthalene

> <PUBCHEM_IUPAC_INCHI>
InChI=1S/C12H6N2O2/c15-7-13-11-5-1-3-9-10(11)4-2-6-12(9)14-8-16/h1-6H

> <PUBCHEM_IUPAC_INCHIKEY>
SBJCUZQNHOLYMD-UHFFFAOYSA-N

> <PUBCHEM_XLOGP3_AA>
4.8

> <PUBCHEM_EXACT_MASS>
210.042927

> <PUBCHEM_MOLECULAR_FORMULA>
C12H6N2O2

> <PUBCHEM_MOLECULAR_WEIGHT>
210.18824

> <PUBCHEM_OPENEYE_CAN_SMILES>
C1=CC2=C(C=CC=C2N=C=O)C(=C1)N=C=O

> <PUBCHEM_OPENEYE_ISO_SMILES>
C1=CC2=C(C=CC=C2N=C=O)C(=C1)N=C=O

> <PUBCHEM_CACTVS_TPSA>
58.9

> <PUBCHEM_MONOISOTOPIC_WEIGHT>
210.042927

> <PUBCHEM_TOTAL_CHARGE>
0

> <PUBCHEM_HEAVY_ATOM_COUNT>
16

> <PUBCHEM_ATOM_DEF_STEREO_COUNT>
0

> <PUBCHEM_ATOM_UDEF_STEREO_COUNT>
0

> <PUBCHEM_BOND_DEF_STEREO_COUNT>
0

> <PUBCHEM_BOND_UDEF_STEREO_COUNT>
0

> <PUBCHEM_ISOTOPIC_ATOM_COUNT>
0

> <PUBCHEM_COMPONENT_COUNT>
1

> <PUBCHEM_CACTVS_TAUTO_COUNT>
1

> <PUBCHEM_COORDINATE_TYPE>
1
5
255

> <PUBCHEM_BONDANNOTATIONS>
10  14  8
11  13  8
12  14  8
5  6  8
5  8  8
5  9  8
6  10  8
6  7  8
7  11  8
8  12  8
9  13  8

$$$$

