9671
  -OEChem-06261203562D

 41 41  0     1  0  0  0  0  0999 V2000
    3.3100   -3.7500    0.0000 F   0  0  0  0  0  0  0  0  0  0  0  0
    2.3100    0.2500    0.0000 O   0  0  0  0  0  0  0  0  0  0  0  0
    4.1760    2.7500    0.0000 N   0  3  0  0  0  0  0  0  0  0  0  0
    4.1760    1.7500    0.0000 C   0  0  0  0  0  0  0  0  0  0  0  0
    3.3100    1.2500    0.0000 C   0  0  0  0  0  0  0  0  0  0  0  0
    3.3100    0.2500    0.0000 C   0  0  3  0  0  0  0  0  0  0  0  0
    4.1760    3.7500    0.0000 C   0  0  0  0  0  0  0  0  0  0  0  0
    5.1760    2.7500    0.0000 C   0  0  0  0  0  0  0  0  0  0  0  0
    3.1760    2.7500    0.0000 C   0  0  0  0  0  0  0  0  0  0  0  0
    4.3100    0.2500    0.0000 C   0  0  0  0  0  0  0  0  0  0  0  0
    3.3100   -0.7500    0.0000 C   0  0  0  0  0  0  0  0  0  0  0  0
    2.4440   -1.2500    0.0000 C   0  0  0  0  0  0  0  0  0  0  0  0
    4.1760   -1.2500    0.0000 C   0  0  0  0  0  0  0  0  0  0  0  0
    4.8100    1.1160    0.0000 C   0  0  0  0  0  0  0  0  0  0  0  0
    2.4440   -2.2500    0.0000 C   0  0  0  0  0  0  0  0  0  0  0  0
    4.1760   -2.2500    0.0000 C   0  0  0  0  0  0  0  0  0  0  0  0
    3.3100   -2.7500    0.0000 C   0  0  0  0  0  0  0  0  0  0  0  0
    5.8100    1.1160    0.0000 C   0  0  0  0  0  0  0  0  0  0  0  0
    4.3881    1.1674    0.0000 H   0  0  0  0  0  0  0  0  0  0  0  0
    4.7866    1.8577    0.0000 H   0  0  0  0  0  0  0  0  0  0  0  0
    3.0980    1.8326    0.0000 H   0  0  0  0  0  0  0  0  0  0  0  0
    2.6994    1.1423    0.0000 H   0  0  0  0  0  0  0  0  0  0  0  0
    3.1760    3.3700    0.0000 H   0  0  0  0  0  0  0  0  0  0  0  0
    4.7960    3.7500    0.0000 H   0  0  0  0  0  0  0  0  0  0  0  0
    4.1760    4.3700    0.0000 H   0  0  0  0  0  0  0  0  0  0  0  0
    3.5560    3.7500    0.0000 H   0  0  0  0  0  0  0  0  0  0  0  0
    5.1760    2.1300    0.0000 H   0  0  0  0  0  0  0  0  0  0  0  0
    5.7960    2.7500    0.0000 H   0  0  0  0  0  0  0  0  0  0  0  0
    5.1760    3.3700    0.0000 H   0  0  0  0  0  0  0  0  0  0  0  0
    2.5560    2.7500    0.0000 H   0  0  0  0  0  0  0  0  0  0  0  0
    3.1760    2.1300    0.0000 H   0  0  0  0  0  0  0  0  0  0  0  0
    4.2023   -0.3606    0.0000 H   0  0  0  0  0  0  0  0  0  0  0  0
    4.8926    0.0379    0.0000 H   0  0  0  0  0  0  0  0  0  0  0  0
    2.0000    0.7869    0.0000 H   0  0  0  0  0  0  0  0  0  0  0  0
    1.9070   -0.9400    0.0000 H   0  0  0  0  0  0  0  0  0  0  0  0
    4.7130   -0.9400    0.0000 H   0  0  0  0  0  0  0  0  0  0  0  0
    4.5000    1.6530    0.0000 H   0  0  0  0  0  0  0  0  0  0  0  0
    1.9070   -2.5600    0.0000 H   0  0  0  0  0  0  0  0  0  0  0  0
    4.7130   -2.5600    0.0000 H   0  0  0  0  0  0  0  0  0  0  0  0
    6.1200    0.5791    0.0000 H   0  0  0  0  0  0  0  0  0  0  0  0
    6.1200    1.6530    0.0000 H   0  0  0  0  0  0  0  0  0  0  0  0
  1 17  1  0  0  0  0
  2  6  1  0  0  0  0
  2 34  1  0  0  0  0
  3  4  1  0  0  0  0
  3  7  1  0  0  0  0
  3  8  1  0  0  0  0
  3  9  1  0  0  0  0
  4  5  1  0  0  0  0
  4 19  1  0  0  0  0
  4 20  1  0  0  0  0
  5  6  1  0  0  0  0
  5 21  1  0  0  0  0
  5 22  1  0  0  0  0
  6 10  1  0  0  0  0
  6 11  1  0  0  0  0
  7 24  1  0  0  0  0
  7 25  1  0  0  0  0
  7 26  1  0  0  0  0
  8 27  1  0  0  0  0
  8 28  1  0  0  0  0
  8 29  1  0  0  0  0
  9 23  1  0  0  0  0
  9 30  1  0  0  0  0
  9 31  1  0  0  0  0
 10 14  1  0  0  0  0
 10 32  1  0  0  0  0
 10 33  1  0  0  0  0
 11 12  2  0  0  0  0
 11 13  1  0  0  0  0
 12 15  1  0  0  0  0
 12 35  1  0  0  0  0
 13 16  2  0  0  0  0
 13 36  1  0  0  0  0
 14 18  2  0  0  0  0
 14 37  1  0  0  0  0
 15 17  2  0  0  0  0
 15 38  1  0  0  0  0
 16 17  1  0  0  0  0
 16 39  1  0  0  0  0
 18 40  1  0  0  0  0
 18 41  1  0  0  0  0
M  CHG  1   3   1
M  END
> <PUBCHEM_COMPOUND_CID>
9671

> <PUBCHEM_COMPOUND_CANONICALIZED>
1

> <PUBCHEM_CACTVS_COMPLEXITY>
266

> <PUBCHEM_CACTVS_HBOND_ACCEPTOR>
2

> <PUBCHEM_CACTVS_HBOND_DONOR>
1

> <PUBCHEM_CACTVS_ROTATABLE_BOND>
6

> <PUBCHEM_CACTVS_SUBSKEYS>
AAADceByIQAAAAAAAAAAAAAAAAAAAAAAAAAwAAAAAAAAAAABAAAAHwAACAAADETBmAwyAIMAAgCAAiBCAAACAAAgAAAIiAAICIgIJiKAkRCEcAAmwAEImAeQwOAOgAAAAAAAAAAAAAAAAAAAAAAAAAAAAA==

> <PUBCHEM_IUPAC_OPENEYE_NAME>
[3-(4-fluorophenyl)-3-hydroxy-hex-5-enyl]-trimethyl-ammonium

> <PUBCHEM_IUPAC_CAS_NAME>
[3-(4-fluorophenyl)-3-hydroxyhex-5-enyl]-trimethylammonium

> <PUBCHEM_IUPAC_NAME>
[3-(4-fluorophenyl)-3-hydroxyhex-5-enyl]-trimethylazanium

> <PUBCHEM_IUPAC_SYSTEMATIC_NAME>
[3-(4-fluorophenyl)-3-oxidanyl-hex-5-enyl]-trimethyl-azanium

> <PUBCHEM_IUPAC_TRADITIONAL_NAME>
[3-(4-fluorophenyl)-3-hydroxy-hex-5-enyl]-trimethyl-ammonium

> <PUBCHEM_IUPAC_INCHI>
InChI=1S/C15H23FNO/c1-5-10-15(18,11-12-17(2,3)4)13-6-8-14(16)9-7-13/h5-9,18H,1,10-12H2,2-4H3/q+1

> <PUBCHEM_IUPAC_INCHIKEY>
FKTQMZVVVDGNFM-UHFFFAOYSA-N

> <PUBCHEM_XLOGP3_AA>
2.5

> <PUBCHEM_EXACT_MASS>
252.176368

> <PUBCHEM_MOLECULAR_FORMULA>
C15H23FNO+

> <PUBCHEM_MOLECULAR_WEIGHT>
252.347623

> <PUBCHEM_OPENEYE_CAN_SMILES>
C[N+](C)(C)CCC(CC=C)(C1=CC=C(C=C1)F)O

> <PUBCHEM_OPENEYE_ISO_SMILES>
C[N+](C)(C)CCC(CC=C)(C1=CC=C(C=C1)F)O

> <PUBCHEM_CACTVS_TPSA>
20.2

> <PUBCHEM_MONOISOTOPIC_WEIGHT>
252.176368

> <PUBCHEM_TOTAL_CHARGE>
1

> <PUBCHEM_HEAVY_ATOM_COUNT>
18

> <PUBCHEM_ATOM_DEF_STEREO_COUNT>
0

> <PUBCHEM_ATOM_UDEF_STEREO_COUNT>
1

> <PUBCHEM_BOND_DEF_STEREO_COUNT>
0

> <PUBCHEM_BOND_UDEF_STEREO_COUNT>
0

> <PUBCHEM_ISOTOPIC_ATOM_COUNT>
0

> <PUBCHEM_COMPONENT_COUNT>
1

> <PUBCHEM_CACTVS_TAUTO_COUNT>
1

> <PUBCHEM_COORDINATE_TYPE>
1
5
255

> <PUBCHEM_BONDANNOTATIONS>
11  12  8
11  13  8
12  15  8
13  16  8
15  17  8
16  17  8
6  2  3

$$$$

