10645
  -OEChem-06261204472D

 43 45  0     0  0  0  0  0  0999 V2000
    8.4382    3.4007    0.0000 Cl  0  0  0  0  0  0  0  0  0  0  0  0
    3.2018    0.6546    0.0000 S   0  0  0  0  0  0  0  0  0  0  0  0
    4.0678    5.1546    0.0000 N   0  0  0  0  0  0  0  0  0  0  0  0
    3.2018    2.6546    0.0000 N   0  0  0  0  0  0  0  0  0  0  0  0
    4.8768    5.7424    0.0000 C   0  0  0  0  0  0  0  0  0  0  0  0
    3.2588    5.7424    0.0000 C   0  0  0  0  0  0  0  0  0  0  0  0
    4.5678    6.6935    0.0000 C   0  0  0  0  0  0  0  0  0  0  0  0
    3.5678    6.6935    0.0000 C   0  0  0  0  0  0  0  0  0  0  0  0
    4.0678    4.1546    0.0000 C   0  0  0  0  0  0  0  0  0  0  0  0
    3.2018    3.6546    0.0000 C   0  0  0  0  0  0  0  0  0  0  0  0
    4.0678    2.1546    0.0000 C   0  0  0  0  0  0  0  0  0  0  0  0
    2.3358    2.1546    0.0000 C   0  0  0  0  0  0  0  0  0  0  0  0
    4.0678    1.1546    0.0000 C   0  0  0  0  0  0  0  0  0  0  0  0
    2.3358    1.1546    0.0000 C   0  0  0  0  0  0  0  0  0  0  0  0
    4.9617    2.6893    0.0000 C   0  0  0  0  0  0  0  0  0  0  0  0
    1.4418    2.6893    0.0000 C   0  0  0  0  0  0  0  0  0  0  0  0
    4.9617    0.6200    0.0000 C   0  0  0  0  0  0  0  0  0  0  0  0
    1.4418    0.6200    0.0000 C   0  0  0  0  0  0  0  0  0  0  0  0
    0.5357    2.1754    0.0000 C   0  0  0  0  0  0  0  0  0  0  0  0
    5.8678    2.1754    0.0000 C   0  0  0  0  0  0  0  0  0  0  0  0
    0.5357    1.1338    0.0000 C   0  0  0  0  0  0  0  0  0  0  0  0
    5.8678    1.1338    0.0000 C   0  0  0  0  0  0  0  0  0  0  0  0
    2.6924    5.9946    0.0000 H   0  0  0  0  0  0  0  0  0  0  0  0
    2.9488    5.2055    0.0000 H   0  0  0  0  0  0  0  0  0  0  0  0
    5.1868    5.2055    0.0000 H   0  0  0  0  0  0  0  0  0  0  0  0
    5.4432    5.9946    0.0000 H   0  0  0  0  0  0  0  0  0  0  0  0
    3.6326    7.3101    0.0000 H   0  0  0  0  0  0  0  0  0  0  0  0
    2.9614    6.8224    0.0000 H   0  0  0  0  0  0  0  0  0  0  0  0
    5.1742    6.8224    0.0000 H   0  0  0  0  0  0  0  0  0  0  0  0
    4.5030    7.3101    0.0000 H   0  0  0  0  0  0  0  0  0  0  0  0
    4.2798    3.5720    0.0000 H   0  0  0  0  0  0  0  0  0  0  0  0
    4.6784    4.2623    0.0000 H   0  0  0  0  0  0  0  0  0  0  0  0
    2.9897    4.2372    0.0000 H   0  0  0  0  0  0  0  0  0  0  0  0
    2.5912    3.5470    0.0000 H   0  0  0  0  0  0  0  0  0  0  0  0
    1.4490    3.3092    0.0000 H   0  0  0  0  0  0  0  0  0  0  0  0
    4.9546    3.3092    0.0000 H   0  0  0  0  0  0  0  0  0  0  0  0
    1.4490    0.0000    0.0000 H   0  0  0  0  0  0  0  0  0  0  0  0
    4.9546    0.0000    0.0000 H   0  0  0  0  0  0  0  0  0  0  0  0
    6.4035    2.4875    0.0000 H   0  0  0  0  0  0  0  0  0  0  0  0
    0.0000    2.4875    0.0000 H   0  0  0  0  0  0  0  0  0  0  0  0
    0.0000    0.8217    0.0000 H   0  0  0  0  0  0  0  0  0  0  0  0
    6.4035    0.8217    0.0000 H   0  0  0  0  0  0  0  0  0  0  0  0
    9.4382    3.4007    0.0000 H   0  0  0  0  0  0  0  0  0  0  0  0
  1 43  1  0  0  0  0
  2 13  1  0  0  0  0
  2 14  1  0  0  0  0
  3  5  1  0  0  0  0
  3  6  1  0  0  0  0
  3  9  1  0  0  0  0
  4 10  1  0  0  0  0
  4 11  1  0  0  0  0
  4 12  1  0  0  0  0
  5  7  1  0  0  0  0
  5 25  1  0  0  0  0
  5 26  1  0  0  0  0
  6  8  1  0  0  0  0
  6 23  1  0  0  0  0
  6 24  1  0  0  0  0
  7  8  1  0  0  0  0
  7 29  1  0  0  0  0
  7 30  1  0  0  0  0
  8 27  1  0  0  0  0
  8 28  1  0  0  0  0
  9 10  1  0  0  0  0
  9 31  1  0  0  0  0
  9 32  1  0  0  0  0
 10 33  1  0  0  0  0
 10 34  1  0  0  0  0
 11 13  1  0  0  0  0
 11 15  2  0  0  0  0
 12 14  1  0  0  0  0
 12 16  2  0  0  0  0
 13 17  2  0  0  0  0
 14 18  2  0  0  0  0
 15 20  1  0  0  0  0
 15 36  1  0  0  0  0
 16 19  1  0  0  0  0
 16 35  1  0  0  0  0
 17 22  1  0  0  0  0
 17 38  1  0  0  0  0
 18 21  1  0  0  0  0
 18 37  1  0  0  0  0
 19 21  2  0  0  0  0
 19 40  1  0  0  0  0
 20 22  2  0  0  0  0
 20 39  1  0  0  0  0
 21 41  1  0  0  0  0
 22 42  1  0  0  0  0
M  END
> <PUBCHEM_COMPOUND_CID>
10645

> <PUBCHEM_COMPOUND_CANONICALIZED>
1

> <PUBCHEM_CACTVS_COMPLEXITY>
320

> <PUBCHEM_CACTVS_HBOND_ACCEPTOR>
3

> <PUBCHEM_CACTVS_HBOND_DONOR>
1

> <PUBCHEM_CACTVS_ROTATABLE_BOND>
3

> <PUBCHEM_CACTVS_SUBSKEYS>
AAADceB7AABEAAAAAAAAAAAAAAAAAWAAAAA8YIAAAAAAAACxQAAAHAQAAAAACAjBUAQwwYMAAAiAACRCQACCAAAhChAIiBwIZIgIYGLgkZGUIAhggADoyAcQAAAAAAAAAAAAAQAAAAAAAAACAAAAAAAAAA==

> <PUBCHEM_IUPAC_OPENEYE_NAME>
10-(2-pyrrolidin-1-ylethyl)phenothiazine hydrochloride

> <PUBCHEM_IUPAC_CAS_NAME>
10-[2-(1-pyrrolidinyl)ethyl]phenothiazine hydrochloride

> <PUBCHEM_IUPAC_NAME>
10-(2-pyrrolidin-1-ylethyl)phenothiazine hydrochloride

> <PUBCHEM_IUPAC_SYSTEMATIC_NAME>
10-(2-pyrrolidin-1-ylethyl)phenothiazine hydrochloride

> <PUBCHEM_IUPAC_TRADITIONAL_NAME>
10-(2-pyrrolidinoethyl)phenothiazine hydrochloride

> <PUBCHEM_IUPAC_INCHI>
InChI=1S/C18H20N2S.ClH/c1-3-9-17-15(7-1)20(14-13-19-11-5-6-12-19)16-8-2-4-10-18(16)21-17;/h1-4,7-10H,5-6,11-14H2;1H

> <PUBCHEM_IUPAC_INCHIKEY>
VDOLRBJLUIFCGO-UHFFFAOYSA-N

> <PUBCHEM_EXACT_MASS>
332.111397

> <PUBCHEM_MOLECULAR_FORMULA>
C18H21ClN2S

> <PUBCHEM_MOLECULAR_WEIGHT>
332.89074

> <PUBCHEM_OPENEYE_CAN_SMILES>
C1CCN(C1)CCN2C3=CC=CC=C3SC4=CC=CC=C42.Cl

> <PUBCHEM_OPENEYE_ISO_SMILES>
C1CCN(C1)CCN2C3=CC=CC=C3SC4=CC=CC=C42.Cl

> <PUBCHEM_CACTVS_TPSA>
31.8

> <PUBCHEM_MONOISOTOPIC_WEIGHT>
332.111397

> <PUBCHEM_TOTAL_CHARGE>
0

> <PUBCHEM_HEAVY_ATOM_COUNT>
22

> <PUBCHEM_ATOM_DEF_STEREO_COUNT>
0

> <PUBCHEM_ATOM_UDEF_STEREO_COUNT>
0

> <PUBCHEM_BOND_DEF_STEREO_COUNT>
0

> <PUBCHEM_BOND_UDEF_STEREO_COUNT>
0

> <PUBCHEM_ISOTOPIC_ATOM_COUNT>
0

> <PUBCHEM_COMPONENT_COUNT>
2

> <PUBCHEM_CACTVS_TAUTO_COUNT>
1

> <PUBCHEM_COORDINATE_TYPE>
1
5
255

> <PUBCHEM_BONDANNOTATIONS>
11  13  8
11  15  8
12  14  8
12  16  8
13  17  8
14  18  8
15  20  8
16  19  8
17  22  8
18  21  8
19  21  8
20  22  8

$$$$

