   Color/Form
        Colorless liquid, darkens on exposure to air
   from [1]HSDB

   Boiling Point
        270-272 deg C
   from [2]HSDB

   Melting Point
        FP: 9 deg C
   from [3]HSDB

   Density/Specific Gravity
        1.0455 @ 20 deg C/4 deg C
   from [4]HSDB

   Dissociation Constants
        pKa= 11.0
   from [5]HSDB

   Octanol/Water Partition Coefficient
        log Kow = 0.97 @ pH 7.2
   from [6]HSDB

   Solubilities

     * Soluble in most organic solvents
     * Soluble in alcohol and ether
     * Miscible in water @ 25 deg C [Shiu WY et al; Rev Environ Contam
       Toxicol 116: 15-187 (1990)] [7]PubMed Abstract

   from [8]HSDB

   Spectral Properties

     * Index of refraction: 1.5430 @ 20 deg C/D; specific optical
       rotation: -83.1 deg @ 20 deg C/D
     * Intense mass spectral peaks: 84 m/z (100%), 105 m/z (58%), 106 m/z
       (45%), 133 m/z (42%)
     * IR: 15659 (Sadtler Research Laboratories Prism Collection)
     * MASS: NIST 5877 (NIST/EPA/MSDC Mass Spectral Database, 1990
       Version); ALDN 122 (Aldermaston, Eight Peak Index of Mass Spectra,
       UK)
     * UV: 4703 (Sadtler Research Laboratories spectral collection)

   from [9]HSDB

   Computed Properties
   Molecular Weight                  162.23156 [g/mol]
   Molecular Formula                 C[10]H[14]N[2]
   XLogP3                            1
   H-Bond Donor                      1
   H-Bond Acceptor                   2
   Rotatable Bond Count              1
   Exact Mass                        162.115698
   MonoIsotopic Mass                 162.115698
   Topological Polar Surface Area    24.9
   Heavy Atom Count                  12
   Formal Charge                     0
   Complexity                        136
   Isotope Atom Count                0
   Defined Atom Stereocenter Count   0
   Undefined Atom Stereocenter Count 1
   Defined Bond Stereocenter Count   0
   Undefined Bond Stereocenter Count 0
   Covalently-Bonded Unit Count      1
   Feature 3D Acceptor Count         1
   Feature 3D Donor Count            1
   Feature 3D Cation Count           1
   Feature 3D Ring Count             2
   Effective Rotor Count             2.2
   Conformer Sampling RMSD           0.6
   CID Conformer Count               [10]10

References

   1. http://toxnet.nlm.nih.gov/cgi-bin/sis/search/r?dbs+hsdb:@term+@rn+@rel+494-52-0
   2. http://toxnet.nlm.nih.gov/cgi-bin/sis/search/r?dbs+hsdb:@term+@rn+@rel+494-52-0
   3. http://toxnet.nlm.nih.gov/cgi-bin/sis/search/r?dbs+hsdb:@term+@rn+@rel+494-52-0
   4. http://toxnet.nlm.nih.gov/cgi-bin/sis/search/r?dbs+hsdb:@term+@rn+@rel+494-52-0
   5. http://toxnet.nlm.nih.gov/cgi-bin/sis/search/r?dbs+hsdb:@term+@rn+@rel+494-52-0
   6. http://toxnet.nlm.nih.gov/cgi-bin/sis/search/r?dbs+hsdb:@term+@rn+@rel+494-52-0
   7. http://www.ncbi.nlm.nih.gov/entrez/query.fcgi?cmd=Retrieve&db=pubmed&dopt=Abstract&list_uids=2205893
   8. http://toxnet.nlm.nih.gov/cgi-bin/sis/search/r?dbs+hsdb:@term+@rn+@rel+494-52-0
   9. http://toxnet.nlm.nih.gov/cgi-bin/sis/search/r?dbs+hsdb:@term+@rn+@rel+494-52-0
  10. http://pubchem.ncbi.nlm.nih.gov/vw3d/vw3d.cgi?cid=2181
