119498
  -OEChem-07051213012D

 28 29  0     0  0  0  0  0  0999 V2000
    2.0000   -0.3080    0.0000 Cl  0  0  0  0  0  0  0  0  0  0  0  0
    3.7320   -3.3080    0.0000 Cl  0  0  0  0  0  0  0  0  0  0  0  0
    3.9595    2.8557    0.0000 O   0  0  0  0  0  0  0  0  0  0  0  0
    2.8660    1.1920    0.0000 O   0  0  0  0  0  0  0  0  0  0  0  0
    5.6808    2.3944    0.0000 N   0  0  0  0  0  0  0  0  0  0  0  0
    6.1808    1.5284    0.0000 N   0  0  0  0  0  0  0  0  0  0  0  0
    4.5981    1.1920    0.0000 C   0  0  0  0  0  0  0  0  0  0  0  0
    5.5116    0.7853    0.0000 C   0  0  0  0  0  0  0  0  0  0  0  0
    4.7026    2.1865    0.0000 C   0  0  0  0  0  0  0  0  0  0  0  0
    3.7320    0.6920    0.0000 C   0  0  0  0  0  0  0  0  0  0  0  0
    3.7320   -0.3080    0.0000 C   0  0  0  0  0  0  0  0  0  0  0  0
    5.7195   -0.1929    0.0000 C   0  0  0  0  0  0  0  0  0  0  0  0
    6.0875    3.3080    0.0000 C   0  0  0  0  0  0  0  0  0  0  0  0
    2.8660   -0.8080    0.0000 C   0  0  0  0  0  0  0  0  0  0  0  0
    4.5981   -0.8080    0.0000 C   0  0  0  0  0  0  0  0  0  0  0  0
    2.8660   -1.8080    0.0000 C   0  0  0  0  0  0  0  0  0  0  0  0
    4.5981   -1.8080    0.0000 C   0  0  0  0  0  0  0  0  0  0  0  0
    3.7320   -2.3080    0.0000 C   0  0  0  0  0  0  0  0  0  0  0  0
    6.7974    1.4636    0.0000 H   0  0  0  0  0  0  0  0  0  0  0  0
    5.1131   -0.3218    0.0000 H   0  0  0  0  0  0  0  0  0  0  0  0
    5.8484   -0.7993    0.0000 H   0  0  0  0  0  0  0  0  0  0  0  0
    6.3260   -0.0640    0.0000 H   0  0  0  0  0  0  0  0  0  0  0  0
    6.6539    3.0558    0.0000 H   0  0  0  0  0  0  0  0  0  0  0  0
    6.3397    3.8744    0.0000 H   0  0  0  0  0  0  0  0  0  0  0  0
    5.5211    3.5602    0.0000 H   0  0  0  0  0  0  0  0  0  0  0  0
    5.1350   -0.4980    0.0000 H   0  0  0  0  0  0  0  0  0  0  0  0
    2.3291   -2.1180    0.0000 H   0  0  0  0  0  0  0  0  0  0  0  0
    5.1350   -2.1180    0.0000 H   0  0  0  0  0  0  0  0  0  0  0  0
  1 14  1  0  0  0  0
  2 18  1  0  0  0  0
  3  9  2  0  0  0  0
  4 10  2  0  0  0  0
  5  6  1  0  0  0  0
  5  9  1  0  0  0  0
  5 13  1  0  0  0  0
  6  8  1  0  0  0  0
  6 19  1  0  0  0  0
  7  8  2  0  0  0  0
  7  9  1  0  0  0  0
  7 10  1  0  0  0  0
  8 12  1  0  0  0  0
 10 11  1  0  0  0  0
 11 14  2  0  0  0  0
 11 15  1  0  0  0  0
 12 20  1  0  0  0  0
 12 21  1  0  0  0  0
 12 22  1  0  0  0  0
 13 23  1  0  0  0  0
 13 24  1  0  0  0  0
 13 25  1  0  0  0  0
 14 16  1  0  0  0  0
 15 17  2  0  0  0  0
 15 26  1  0  0  0  0
 16 18  2  0  0  0  0
 16 27  1  0  0  0  0
 17 18  1  0  0  0  0
 17 28  1  0  0  0  0
M  END
> <PUBCHEM_COMPOUND_CID>
119498

> <PUBCHEM_COMPOUND_CANONICALIZED>
1

> <PUBCHEM_CACTVS_COMPLEXITY>
422

> <PUBCHEM_CACTVS_HBOND_ACCEPTOR>
3

> <PUBCHEM_CACTVS_HBOND_DONOR>
1

> <PUBCHEM_CACTVS_ROTATABLE_BOND>
2

> <PUBCHEM_CACTVS_SUBSKEYS>
AAADccBzMAAGAAAAAAAAAAAAAAAAAQAAAAAwAAAAAAAAAAABAAAAHgIYAAAADA6BmCQyAIJiAACIAqVSUACCAAAkBQAaqAEIAsgIIDqJlxCEIQAgkgAIjccYiICOBAAAAACBAAAIAAAAAQIAAAAAAAAAAA==

> <PUBCHEM_IUPAC_OPENEYE_NAME>
4-(2,4-dichlorobenzoyl)-2,5-dimethyl-1H-pyrazol-3-one

> <PUBCHEM_IUPAC_CAS_NAME>
4-[(2,4-dichlorophenyl)-oxomethyl]-2,5-dimethyl-1H-pyrazol-3-one

> <PUBCHEM_IUPAC_NAME>
4-(2,4-dichlorobenzoyl)-2,5-dimethyl-1H-pyrazol-3-one

> <PUBCHEM_IUPAC_SYSTEMATIC_NAME>
4-(2,4-dichlorophenyl)carbonyl-2,5-dimethyl-1H-pyrazol-3-one

> <PUBCHEM_IUPAC_TRADITIONAL_NAME>
4-(2,4-dichlorobenzoyl)-2,5-dimethyl-3-pyrazolin-3-one

> <PUBCHEM_IUPAC_INCHI>
InChI=1S/C12H10Cl2N2O2/c1-6-10(12(18)16(2)15-6)11(17)8-4-3-7(13)5-9(8)14/h3-5,15H,1-2H3

> <PUBCHEM_IUPAC_INCHIKEY>
FRFLVNQIJSMVHI-UHFFFAOYSA-N

> <PUBCHEM_XLOGP3_AA>
3.1

> <PUBCHEM_EXACT_MASS>
284.011933

> <PUBCHEM_MOLECULAR_FORMULA>
C12H10Cl2N2O2

> <PUBCHEM_MOLECULAR_WEIGHT>
285.126

> <PUBCHEM_OPENEYE_CAN_SMILES>
CC1=C(C(=O)N(N1)C)C(=O)C2=C(C=C(C=C2)Cl)Cl

> <PUBCHEM_OPENEYE_ISO_SMILES>
CC1=C(C(=O)N(N1)C)C(=O)C2=C(C=C(C=C2)Cl)Cl

> <PUBCHEM_CACTVS_TPSA>
49.4

> <PUBCHEM_MONOISOTOPIC_WEIGHT>
284.011933

> <PUBCHEM_TOTAL_CHARGE>
0

> <PUBCHEM_HEAVY_ATOM_COUNT>
18

> <PUBCHEM_ATOM_DEF_STEREO_COUNT>
0

> <PUBCHEM_ATOM_UDEF_STEREO_COUNT>
0

> <PUBCHEM_BOND_DEF_STEREO_COUNT>
0

> <PUBCHEM_BOND_UDEF_STEREO_COUNT>
0

> <PUBCHEM_ISOTOPIC_ATOM_COUNT>
0

> <PUBCHEM_COMPONENT_COUNT>
1

> <PUBCHEM_CACTVS_TAUTO_COUNT>
7

> <PUBCHEM_COORDINATE_TYPE>
1
5
255

> <PUBCHEM_BONDANNOTATIONS>
11  14  8
11  15  8
14  16  8
15  17  8
16  18  8
17  18  8
5  6  8
5  9  8
6  8  8
7  8  8
7  9  8

$$$$

