441874
  -OEChem-07051212562D

 76 82  0     1  0  0  0  0  0999 V2000
    7.6032    3.3993    0.0000 O   0  0  0  0  0  0  0  0  0  0  0  0
    9.3586   -1.7828    0.0000 O   0  0  0  0  0  0  0  0  0  0  0  0
   11.2253   -0.7051    0.0000 O   0  0  0  0  0  0  0  0  0  0  0  0
    8.1926   -0.8344    0.0000 O   0  0  0  0  0  0  0  0  0  0  0  0
    2.4774    3.0785    0.0000 O   0  0  0  0  0  0  0  0  0  0  0  0
   12.2210   -2.3400    0.0000 O   0  0  0  0  0  0  0  0  0  0  0  0
    9.4280   -2.8325    0.0000 O   0  0  0  0  0  0  0  0  0  0  0  0
    2.0000    1.3617    0.0000 O   0  0  0  0  0  0  0  0  0  0  0  0
    9.4049   -3.9525    0.0000 O   0  0  0  0  0  0  0  0  0  0  0  0
    6.7334    2.9060    0.0000 C   0  0  1  0  0  0  0  0  0  0  0  0
    7.6273    2.3713    0.0000 C   0  0  1  0  0  0  0  0  0  0  0  0
    7.6273    1.3713    0.0000 C   0  0  1  0  0  0  0  0  0  0  0  0
    5.8273    2.3921    0.0000 C   0  0  2  0  0  0  0  0  0  0  0  0
    8.4934    0.8713    0.0000 C   0  0  2  0  0  0  0  0  0  0  0  0
    9.3594    1.3713    0.0000 C   0  0  1  0  0  0  0  0  0  0  0  0
    6.7334    0.8367    0.0000 C   0  0  0  0  0  0  0  0  0  0  0  0
    5.8273    1.3505    0.0000 C   0  0  0  0  0  0  0  0  0  0  0  0
    5.0650    3.0929    0.0000 C   0  0  2  0  0  0  0  0  0  0  0  0
    8.4934    2.8713    0.0000 C   0  0  0  0  0  0  0  0  0  0  0  0
    6.5233    3.9199    0.0000 C   0  0  0  0  0  0  0  0  0  0  0  0
    9.3594    2.3713    0.0000 C   0  0  0  0  0  0  0  0  0  0  0  0
    5.4943    4.0352    0.0000 C   0  0  0  0  0  0  0  0  0  0  0  0
    8.4773   -0.1702    0.0000 C   0  0  0  0  0  0  0  0  0  0  0  0
   10.2694    0.8645    0.0000 C   0  0  0  0  0  0  0  0  0  0  0  0
    4.9575    1.8988    0.0000 C   0  0  0  0  0  0  0  0  0  0  0  0
    9.3753   -0.6979    0.0000 C   0  0  2  0  0  0  0  0  0  0  0  0
   10.2774   -0.1771    0.0000 C   0  0  2  0  0  0  0  0  0  0  0  0
    7.8506    0.1053    0.0000 C   0  0  0  0  0  0  0  0  0  0  0  0
    4.0850    2.8942    0.0000 C   0  0  0  0  0  0  0  0  0  0  0  0
    3.3482    3.5703    0.0000 C   0  0  0  0  0  0  0  0  0  0  0  0
   10.2940   -2.3325    0.0000 C   0  0  2  0  0  0  0  0  0  0  0  0
   11.2337   -1.7900    0.0000 C   0  0  2  0  0  0  0  0  0  0  0  0
    3.6696    1.9846    0.0000 C   0  0  0  0  0  0  0  0  0  0  0  0
    2.6761    2.0985    0.0000 C   0  0  0  0  0  0  0  0  0  0  0  0
   10.2766   -3.4626    0.0000 C   0  0  0  0  0  0  0  0  0  0  0  0
   11.2510   -4.0352    0.0000 C   0  0  0  0  0  0  0  0  0  0  0  0
   12.2297   -3.4701    0.0000 C   0  0  1  0  0  0  0  0  0  0  0  0
   13.0977   -3.9668    0.0000 C   0  0  0  0  0  0  0  0  0  0  0  0
    8.3635    1.9463    0.0000 H   0  0  0  0  0  0  0  0  0  0  0  0
    7.6339    0.5213    0.0000 H   0  0  0  0  0  0  0  0  0  0  0  0
   10.0922    1.8020    0.0000 H   0  0  0  0  0  0  0  0  0  0  0  0
    6.3398    0.3576    0.0000 H   0  0  0  0  0  0  0  0  0  0  0  0
    7.1380    0.3669    0.0000 H   0  0  0  0  0  0  0  0  0  0  0  0
    5.2165    1.4566    0.0000 H   0  0  0  0  0  0  0  0  0  0  0  0
    5.6183    0.7668    0.0000 H   0  0  0  0  0  0  0  0  0  0  0  0
    4.6792    3.5782    0.0000 H   0  0  0  0  0  0  0  0  0  0  0  0
    8.8919    3.3463    0.0000 H   0  0  0  0  0  0  0  0  0  0  0  0
    8.0948    3.3463    0.0000 H   0  0  0  0  0  0  0  0  0  0  0  0
    7.1403    3.9812    0.0000 H   0  0  0  0  0  0  0  0  0  0  0  0
    6.5272    4.5399    0.0000 H   0  0  0  0  0  0  0  0  0  0  0  0
    9.9700    2.2636    0.0000 H   0  0  0  0  0  0  0  0  0  0  0  0
    9.5714    2.9539    0.0000 H   0  0  0  0  0  0  0  0  0  0  0  0
    5.6277    4.6407    0.0000 H   0  0  0  0  0  0  0  0  0  0  0  0
    4.9062    4.2315    0.0000 H   0  0  0  0  0  0  0  0  0  0  0  0
    7.8682   -0.0547    0.0000 H   0  0  0  0  0  0  0  0  0  0  0  0
    8.2593   -0.7506    0.0000 H   0  0  0  0  0  0  0  0  0  0  0  0
   10.8811    0.7631    0.0000 H   0  0  0  0  0  0  0  0  0  0  0  0
   10.4739    1.4498    0.0000 H   0  0  0  0  0  0  0  0  0  0  0  0
    4.6516    2.4381    0.0000 H   0  0  0  0  0  0  0  0  0  0  0  0
    4.4182    1.5930    0.0000 H   0  0  0  0  0  0  0  0  0  0  0  0
    5.2633    1.3595    0.0000 H   0  0  0  0  0  0  0  0  0  0  0  0
    8.6344   -1.1144    0.0000 H   0  0  0  0  0  0  0  0  0  0  0  0
   11.0086    0.2564    0.0000 H   0  0  0  0  0  0  0  0  0  0  0  0
    7.2400    0.2130    0.0000 H   0  0  0  0  0  0  0  0  0  0  0  0
    7.6080    4.0193    0.0000 H   0  0  0  0  0  0  0  0  0  0  0  0
    3.8128    3.9808    0.0000 H   0  0  0  0  0  0  0  0  0  0  0  0
    2.9885    4.0753    0.0000 H   0  0  0  0  0  0  0  0  0  0  0  0
   11.9648   -1.3566    0.0000 H   0  0  0  0  0  0  0  0  0  0  0  0
    3.9745    1.4447    0.0000 H   0  0  0  0  0  0  0  0  0  0  0  0
   10.8500   -4.5081    0.0000 H   0  0  0  0  0  0  0  0  0  0  0  0
   11.6483   -4.5112    0.0000 H   0  0  0  0  0  0  0  0  0  0  0  0
   12.7649   -3.1570    0.0000 H   0  0  0  0  0  0  0  0  0  0  0  0
    8.8911   -2.5225    0.0000 H   0  0  0  0  0  0  0  0  0  0  0  0
   12.7898   -4.5049    0.0000 H   0  0  0  0  0  0  0  0  0  0  0  0
   13.6358   -4.2747    0.0000 H   0  0  0  0  0  0  0  0  0  0  0  0
   13.4056   -3.4286    0.0000 H   0  0  0  0  0  0  0  0  0  0  0  0
 10  1  1  1  0  0  0
  1 65  1  0  0  0  0
  2 26  1  0  0  0  0
  2 31  1  0  0  0  0
  3 27  1  0  0  0  0
  3 32  1  0  0  0  0
  4 28  2  0  0  0  0
  5 30  1  0  0  0  0
  5 34  1  0  0  0  0
  6 32  1  0  0  0  0
  6 37  1  0  0  0  0
 31  7  1  1  0  0  0
  7 73  1  0  0  0  0
  8 34  2  0  0  0  0
  9 35  2  0  0  0  0
 10 11  1  0  0  0  0
 10 13  1  0  0  0  0
 10 20  1  0  0  0  0
 11 12  1  0  0  0  0
 11 19  1  0  0  0  0
 11 39  1  1  0  0  0
 12 14  1  0  0  0  0
 12 16  1  0  0  0  0
 12 40  1  6  0  0  0
 13 17  1  0  0  0  0
 13 18  1  0  0  0  0
 13 25  1  1  0  0  0
 14 15  1  0  0  0  0
 14 23  1  0  0  0  0
 14 28  1  1  0  0  0
 15 21  1  0  0  0  0
 15 24  1  0  0  0  0
 15 41  1  6  0  0  0
 16 17  1  0  0  0  0
 16 42  1  0  0  0  0
 16 43  1  0  0  0  0
 17 44  1  0  0  0  0
 17 45  1  0  0  0  0
 18 22  1  0  0  0  0
 18 29  1  1  0  0  0
 18 46  1  0  0  0  0
 19 21  1  0  0  0  0
 19 47  1  0  0  0  0
 19 48  1  0  0  0  0
 20 22  1  0  0  0  0
 20 49  1  0  0  0  0
 20 50  1  0  0  0  0
 21 51  1  0  0  0  0
 21 52  1  0  0  0  0
 22 53  1  0  0  0  0
 22 54  1  0  0  0  0
 23 26  1  0  0  0  0
 23 55  1  0  0  0  0
 23 56  1  0  0  0  0
 24 27  1  0  0  0  0
 24 57  1  0  0  0  0
 24 58  1  0  0  0  0
 25 59  1  0  0  0  0
 25 60  1  0  0  0  0
 25 61  1  0  0  0  0
 26 27  1  0  0  0  0
 26 62  1  1  0  0  0
 27 63  1  6  0  0  0
 28 64  1  0  0  0  0
 29 30  1  0  0  0  0
 29 33  2  0  0  0  0
 30 66  1  0  0  0  0
 30 67  1  0  0  0  0
 31 32  1  0  0  0  0
 31 35  1  0  0  0  0
 32 68  1  1  0  0  0
 33 34  1  0  0  0  0
 33 69  1  0  0  0  0
 35 36  1  0  0  0  0
 36 37  1  0  0  0  0
 36 70  1  0  0  0  0
 36 71  1  0  0  0  0
 37 38  1  6  0  0  0
 37 72  1  0  0  0  0
 38 74  1  0  0  0  0
 38 75  1  0  0  0  0
 38 76  1  0  0  0  0
M  END
> <PUBCHEM_COMPOUND_CID>
441874

> <PUBCHEM_COMPOUND_CANONICALIZED>
1

> <PUBCHEM_CACTVS_COMPLEXITY>
1100

> <PUBCHEM_CACTVS_HBOND_ACCEPTOR>
9

> <PUBCHEM_CACTVS_HBOND_DONOR>
2

> <PUBCHEM_CACTVS_ROTATABLE_BOND>
2

> <PUBCHEM_CACTVS_SUBSKEYS>
AAADcfB4PAAAAAAAAAAAAAAAAAAAAYIAAAA0aMECAAAAAGDQAAAAGgAACAAAD1SwgAMCCAAABgCIAqjSiAIAAAAgAAAACAFAAEgRBBYAIQQiUAAEoAAPIQPK7PzPgAAAAAAAAADAAAYAADCAAYAADAAAAA==

> <PUBCHEM_IUPAC_INCHI>
InChI=1S/C29H38O9/c1-15-9-23(31)29(34)25(36-15)37-21-11-17-3-4-20-19(27(17,14-30)12-22(21)38-29)5-7-26(2)18(6-8-28(20,26)33)16-10-24(32)35-13-16/h10,14-15,17-22,25,33-34H,3-9,11-13H2,1-2H3/t15-,17+,18-,19+,20-,21-,22-,25+,26-,27-,28+,29+/m1/s1

> <PUBCHEM_IUPAC_INCHIKEY>
YOCULAYFPPWLRI-OLEQQPCLSA-N

> <PUBCHEM_XLOGP3_AA>
0.9

> <PUBCHEM_EXACT_MASS>
530.251583

> <PUBCHEM_MOLECULAR_FORMULA>
C29H38O9

> <PUBCHEM_MOLECULAR_WEIGHT>
530.60662

> <PUBCHEM_OPENEYE_CAN_SMILES>
CC1CC(=O)C2(C(O1)OC3CC4CCC5C(C4(CC3O2)C=O)CCC6(C5(CCC6C7=CC(=O)OC7)O)C)O

> <PUBCHEM_OPENEYE_ISO_SMILES>
C[C@@H]1CC(=O)[C@]2([C@@H](O1)O[C@@H]3C[C@@H]4CC[C@@H]5[C@@H]([C@]4(C[C@H]3O2)C=O)CC[C@]6([C@@]5(CC[C@@H]6C7=CC(=O)OC7)O)C)O

> <PUBCHEM_CACTVS_TPSA>
129

> <PUBCHEM_MONOISOTOPIC_WEIGHT>
530.251583

> <PUBCHEM_TOTAL_CHARGE>
0

> <PUBCHEM_HEAVY_ATOM_COUNT>
38

> <PUBCHEM_ATOM_DEF_STEREO_COUNT>
12

> <PUBCHEM_ATOM_UDEF_STEREO_COUNT>
0

> <PUBCHEM_BOND_DEF_STEREO_COUNT>
0

> <PUBCHEM_BOND_UDEF_STEREO_COUNT>
0

> <PUBCHEM_ISOTOPIC_ATOM_COUNT>
0

> <PUBCHEM_COMPONENT_COUNT>
1

> <PUBCHEM_CACTVS_TAUTO_COUNT>
2

> <PUBCHEM_COORDINATE_TYPE>
1
5
255

> <PUBCHEM_BONDANNOTATIONS>
10  1  5
11  39  5
12  40  6
13  25  5
14  28  5
15  41  6
18  29  5
26  62  5
27  63  6
32  68  5
37  38  6
31  7  5

$$$$

