94150
  -OEChem-07051212572D

 48 51  0     1  0  0  0  0  0999 V2000
    4.3771   -0.2032    0.0000 O   0  0  0  0  0  0  0  0  0  0  0  0
    2.8804   -1.1161    0.0000 O   0  0  0  0  0  0  0  0  0  0  0  0
    6.5247    3.2428    0.0000 O   0  0  0  0  0  0  0  0  0  0  0  0
    4.4764    3.2428    0.0000 O   0  0  0  0  0  0  0  0  0  0  0  0
    7.2711   -1.7515    0.0000 N   0  0  3  0  0  0  0  0  0  0  0  0
    6.4015   -1.1781    0.0000 C   0  0  2  0  0  0  0  0  0  0  0  0
    5.5006   -1.6120    0.0000 C   0  0  0  0  0  0  0  0  0  0  0  0
    6.6241   -0.2032    0.0000 C   0  0  0  0  0  0  0  0  0  0  0  0
    7.2013   -2.7908    0.0000 C   0  0  0  0  0  0  0  0  0  0  0  0
    5.4067   -2.6494    0.0000 C   0  0  0  0  0  0  0  0  0  0  0  0
    6.2628   -3.2428    0.0000 C   0  0  0  0  0  0  0  0  0  0  0  0
    4.5996   -1.1781    0.0000 C   0  0  0  0  0  0  0  0  0  0  0  0
    6.0006    0.5787    0.0000 C   0  0  0  0  0  0  0  0  0  0  0  0
    8.1670   -1.3073    0.0000 C   0  0  0  0  0  0  0  0  0  0  0  0
    4.5494   -3.1327    0.0000 C   0  0  0  0  0  0  0  0  0  0  0  0
    5.0006    0.5787    0.0000 C   0  0  0  0  0  0  0  0  0  0  0  0
    3.7313   -1.6415    0.0000 C   0  0  0  0  0  0  0  0  0  0  0  0
    3.7060   -2.6253    0.0000 C   0  0  0  0  0  0  0  0  0  0  0  0
    6.5352    1.4726    0.0000 C   0  0  0  0  0  0  0  0  0  0  0  0
    4.4659    1.4726    0.0000 C   0  0  0  0  0  0  0  0  0  0  0  0
    6.0214    2.3787    0.0000 C   0  0  0  0  0  0  0  0  0  0  0  0
    4.9798    2.3787    0.0000 C   0  0  0  0  0  0  0  0  0  0  0  0
    2.0000   -1.5903    0.0000 C   0  0  0  0  0  0  0  0  0  0  0  0
    7.5247    3.2389    0.0000 C   0  0  0  0  0  0  0  0  0  0  0  0
    3.4764    3.2389    0.0000 C   0  0  0  0  0  0  0  0  0  0  0  0
    7.1904   -0.8615    0.0000 H   0  0  0  0  0  0  0  0  0  0  0  0
    7.1827   -0.4722    0.0000 H   0  0  0  0  0  0  0  0  0  0  0  0
    7.0106    0.2816    0.0000 H   0  0  0  0  0  0  0  0  0  0  0  0
    7.3707   -3.3872    0.0000 H   0  0  0  0  0  0  0  0  0  0  0  0
    7.8179   -2.7259    0.0000 H   0  0  0  0  0  0  0  0  0  0  0  0
    5.8276   -3.6844    0.0000 H   0  0  0  0  0  0  0  0  0  0  0  0
    6.6234   -3.7471    0.0000 H   0  0  0  0  0  0  0  0  0  0  0  0
    8.4425   -1.8627    0.0000 H   0  0  0  0  0  0  0  0  0  0  0  0
    8.7225   -1.0318    0.0000 H   0  0  0  0  0  0  0  0  0  0  0  0
    7.8916   -0.7518    0.0000 H   0  0  0  0  0  0  0  0  0  0  0  0
    4.5406   -3.7526    0.0000 H   0  0  0  0  0  0  0  0  0  0  0  0
    3.1624   -2.9235    0.0000 H   0  0  0  0  0  0  0  0  0  0  0  0
    7.1552    1.4654    0.0000 H   0  0  0  0  0  0  0  0  0  0  0  0
    3.8460    1.4654    0.0000 H   0  0  0  0  0  0  0  0  0  0  0  0
    1.7060   -1.0444    0.0000 H   0  0  0  0  0  0  0  0  0  0  0  0
    1.4541   -1.8843    0.0000 H   0  0  0  0  0  0  0  0  0  0  0  0
    2.2940   -2.1361    0.0000 H   0  0  0  0  0  0  0  0  0  0  0  0
    7.5223    2.6189    0.0000 H   0  0  0  0  0  0  0  0  0  0  0  0
    8.1447    3.2365    0.0000 H   0  0  0  0  0  0  0  0  0  0  0  0
    7.5271    3.8589    0.0000 H   0  0  0  0  0  0  0  0  0  0  0  0
    3.4740    3.8589    0.0000 H   0  0  0  0  0  0  0  0  0  0  0  0
    2.8564    3.2365    0.0000 H   0  0  0  0  0  0  0  0  0  0  0  0
    3.4788    2.6189    0.0000 H   0  0  0  0  0  0  0  0  0  0  0  0
  1 12  1  0  0  0  0
  1 16  1  0  0  0  0
  2 17  1  0  0  0  0
  2 23  1  0  0  0  0
  3 21  1  0  0  0  0
  3 24  1  0  0  0  0
  4 22  1  0  0  0  0
  4 25  1  0  0  0  0
  5  6  1  0  0  0  0
  5  9  1  0  0  0  0
  5 14  1  0  0  0  0
  6  7  1  0  0  0  0
  6  8  1  0  0  0  0
  6 26  1  1  0  0  0
  7 10  2  0  0  0  0
  7 12  1  0  0  0  0
  8 13  1  0  0  0  0
  8 27  1  0  0  0  0
  8 28  1  0  0  0  0
  9 11  1  0  0  0  0
  9 29  1  0  0  0  0
  9 30  1  0  0  0  0
 10 11  1  0  0  0  0
 10 15  1  0  0  0  0
 11 31  1  0  0  0  0
 11 32  1  0  0  0  0
 12 17  2  0  0  0  0
 13 16  1  0  0  0  0
 13 19  2  0  0  0  0
 14 33  1  0  0  0  0
 14 34  1  0  0  0  0
 14 35  1  0  0  0  0
 15 18  2  0  0  0  0
 15 36  1  0  0  0  0
 16 20  2  0  0  0  0
 17 18  1  0  0  0  0
 18 37  1  0  0  0  0
 19 21  1  0  0  0  0
 19 38  1  0  0  0  0
 20 22  1  0  0  0  0
 20 39  1  0  0  0  0
 21 22  2  0  0  0  0
 23 40  1  0  0  0  0
 23 41  1  0  0  0  0
 23 42  1  0  0  0  0
 24 43  1  0  0  0  0
 24 44  1  0  0  0  0
 24 45  1  0  0  0  0
 25 46  1  0  0  0  0
 25 47  1  0  0  0  0
 25 48  1  0  0  0  0
M  END
> <PUBCHEM_COMPOUND_CID>
94150

> <PUBCHEM_COMPOUND_CANONICALIZED>
1

> <PUBCHEM_CACTVS_COMPLEXITY>
461

> <PUBCHEM_CACTVS_HBOND_ACCEPTOR>
5

> <PUBCHEM_CACTVS_HBOND_DONOR>
0

> <PUBCHEM_CACTVS_ROTATABLE_BOND>
3

> <PUBCHEM_CACTVS_SUBSKEYS>
AAADceB6OAAAAAAAAAAAAAAAAAAAAAAAAAA8YIAABIAAAACxQAAAHgAAAAAADCzBmAYyBoMABACAAiBCAACCCAAgIAAIiAAOjIgNJyKEsRuGOCrnwBWKqAfw8P8OoQABCAAYQABCAAIQADCAAAAAAAAAAA==

> <PUBCHEM_IUPAC_INCHI>
InChI=1S/C20H23NO4/c1-21-8-7-12-5-6-15(22-2)20-19(12)14(21)9-13-10-17(23-3)18(24-4)11-16(13)25-20/h5-6,10-11,14H,7-9H2,1-4H3/t14-/m0/s1

> <PUBCHEM_IUPAC_INCHIKEY>
DTMXRZMJFCVJQS-AWEZNQCLSA-N

> <PUBCHEM_XLOGP3_AA>
3.3

> <PUBCHEM_EXACT_MASS>
341.162708

> <PUBCHEM_MOLECULAR_FORMULA>
C20H23NO4

> <PUBCHEM_MOLECULAR_WEIGHT>
341.40092

> <PUBCHEM_OPENEYE_CAN_SMILES>
CN1CCC2=C3C1CC4=CC(=C(C=C4OC3=C(C=C2)OC)OC)OC

> <PUBCHEM_OPENEYE_ISO_SMILES>
CN1CCC2=C3[C@@H]1CC4=CC(=C(C=C4OC3=C(C=C2)OC)OC)OC

> <PUBCHEM_CACTVS_TPSA>
40.2

> <PUBCHEM_MONOISOTOPIC_WEIGHT>
341.162708

> <PUBCHEM_TOTAL_CHARGE>
0

> <PUBCHEM_HEAVY_ATOM_COUNT>
25

> <PUBCHEM_ATOM_DEF_STEREO_COUNT>
1

> <PUBCHEM_ATOM_UDEF_STEREO_COUNT>
0

> <PUBCHEM_BOND_DEF_STEREO_COUNT>
0

> <PUBCHEM_BOND_UDEF_STEREO_COUNT>
0

> <PUBCHEM_ISOTOPIC_ATOM_COUNT>
0

> <PUBCHEM_COMPONENT_COUNT>
1

> <PUBCHEM_CACTVS_TAUTO_COUNT>
1

> <PUBCHEM_COORDINATE_TYPE>
1
5
255

> <PUBCHEM_BONDANNOTATIONS>
10  15  8
12  17  8
13  16  8
13  19  8
15  18  8
16  20  8
17  18  8
19  21  8
20  22  8
21  22  8
6  26  5
7  10  8
7  12  8

$$$$

