46173852
  -OEChem-07051213092D

 76 78  0     1  0  0  0  0  0999 V2000
    5.1350    0.6548    0.0000 O   0  0  0  0  0  0  0  0  0  0  0  0
    6.8950    2.6894    0.0000 O   0  0  0  0  0  0  0  0  0  0  0  0
    5.1350    3.6548    0.0000 O   0  0  0  0  0  0  0  0  0  0  0  0
    7.8010    1.1340    0.0000 O   0  0  0  0  0  0  0  0  0  0  0  0
    4.2690   -0.8452    0.0000 O   0  0  0  0  0  0  0  0  0  0  0  0
    9.1022   -1.5395    0.0000 O   0  0  0  0  0  0  0  0  0  0  0  0
    7.7205   -2.8897    0.0000 O   0  0  0  0  0  0  0  0  0  0  0  0
    6.8603   -2.3797    0.0000 O   0  0  0  0  0  0  0  0  0  0  0  0
    2.5369   -1.8452    0.0000 O   0  0  0  0  0  0  0  0  0  0  0  0
    8.6154   -0.3998    0.0000 O   0  0  0  0  0  0  0  0  0  0  0  0
    6.8834   -0.3798    0.0000 N   0  0  0  0  0  0  0  0  0  0  0  0
    4.2690    2.1548    0.0000 C   0  0  0  0  0  0  0  0  0  0  0  0
    5.1350    2.6548    0.0000 C   0  0  1  0  0  0  0  0  0  0  0  0
    4.2690    1.1548    0.0000 C   0  0  3  0  0  0  0  0  0  0  0  0
    6.0010    2.1548    0.0000 C   0  0  2  0  0  0  0  0  0  0  0  0
    6.0010    1.1548    0.0000 C   0  0  1  0  0  0  0  0  0  0  0  0
    3.4030    0.6548    0.0000 C   0  0  0  0  0  0  0  0  0  0  0  0
    6.8950    0.6201    0.0000 C   0  0  2  0  0  0  0  0  0  0  0  0
    3.2690    2.1548    0.0000 C   0  0  0  0  0  0  0  0  0  0  0  0
    3.7690    3.0208    0.0000 C   0  0  0  0  0  0  0  0  0  0  0  0
    3.4030   -0.3452    0.0000 C   0  0  1  0  0  0  0  0  0  0  0  0
    7.8010    2.1756    0.0000 C   0  0  0  0  0  0  0  0  0  0  0  0
    8.5922   -2.3997    0.0000 C   0  0  1  0  0  0  0  0  0  0  0  0
    6.0010    4.1548    0.0000 C   0  0  0  0  0  0  0  0  0  0  0  0
    7.7320   -1.8897    0.0000 C   0  0  1  0  0  0  0  0  0  0  0  0
    2.5369   -0.8452    0.0000 C   0  0  0  0  0  0  0  0  0  0  0  0
    7.7436   -0.8898    0.0000 C   0  0  0  0  0  0  0  0  0  0  0  0
    9.0822   -3.2715    0.0000 C   0  0  0  0  0  0  0  0  0  0  0  0
   10.5921   -2.4228    0.0000 C   0  0  1  0  0  0  0  0  0  0  0  0
   10.1021   -1.5511    0.0000 C   0  0  1  0  0  0  0  0  0  0  0  0
   10.0821   -3.2830    0.0000 C   0  0  0  0  0  0  0  0  0  0  0  0
   11.5920   -2.4344    0.0000 C   0  0  0  0  0  0  0  0  0  0  0  0
   10.6121   -0.6909    0.0000 C   0  0  0  0  0  0  0  0  0  0  0  0
   10.5721   -4.1548    0.0000 C   0  0  0  0  0  0  0  0  0  0  0  0
    7.7089   -3.8896    0.0000 C   0  0  0  0  0  0  0  0  0  0  0  0
    5.6720    2.9648    0.0000 H   0  0  0  0  0  0  0  0  0  0  0  0
    4.2690    0.5348    0.0000 H   0  0  0  0  0  0  0  0  0  0  0  0
    5.9945    3.0048    0.0000 H   0  0  0  0  0  0  0  0  0  0  0  0
    5.9945    0.3048    0.0000 H   0  0  0  0  0  0  0  0  0  0  0  0
    3.1909    1.2374    0.0000 H   0  0  0  0  0  0  0  0  0  0  0  0
    2.7924    0.5471    0.0000 H   0  0  0  0  0  0  0  0  0  0  0  0
    6.3539    0.3174    0.0000 H   0  0  0  0  0  0  0  0  0  0  0  0
    4.3059    3.3308    0.0000 H   0  0  0  0  0  0  0  0  0  0  0  0
    3.4590    3.5577    0.0000 H   0  0  0  0  0  0  0  0  0  0  0  0
    3.2320    2.7108    0.0000 H   0  0  0  0  0  0  0  0  0  0  0  0
    3.2690    2.7748    0.0000 H   0  0  0  0  0  0  0  0  0  0  0  0
    2.6490    2.1548    0.0000 H   0  0  0  0  0  0  0  0  0  0  0  0
    3.2690    1.5348    0.0000 H   0  0  0  0  0  0  0  0  0  0  0  0
    3.4030   -0.9652    0.0000 H   0  0  0  0  0  0  0  0  0  0  0  0
    8.4119    2.0695    0.0000 H   0  0  0  0  0  0  0  0  0  0  0  0
    8.0101    2.7593    0.0000 H   0  0  0  0  0  0  0  0  0  0  0  0
    6.3429   -0.6836    0.0000 H   0  0  0  0  0  0  0  0  0  0  0  0
    7.1987   -1.5735    0.0000 H   0  0  0  0  0  0  0  0  0  0  0  0
    6.3110    3.6178    0.0000 H   0  0  0  0  0  0  0  0  0  0  0  0
    6.5380    4.4648    0.0000 H   0  0  0  0  0  0  0  0  0  0  0  0
    5.6910    4.6917    0.0000 H   0  0  0  0  0  0  0  0  0  0  0  0
    2.3249   -0.2626    0.0000 H   0  0  0  0  0  0  0  0  0  0  0  0
    1.9264   -0.9529    0.0000 H   0  0  0  0  0  0  0  0  0  0  0  0
    8.4972   -3.4768    0.0000 H   0  0  0  0  0  0  0  0  0  0  0  0
    9.1828   -3.8832    0.0000 H   0  0  0  0  0  0  0  0  0  0  0  0
   10.9083   -1.8895    0.0000 H   0  0  0  0  0  0  0  0  0  0  0  0
    9.7984   -1.0106    0.0000 H   0  0  0  0  0  0  0  0  0  0  0  0
    4.2690   -1.4652    0.0000 H   0  0  0  0  0  0  0  0  0  0  0  0
   11.5849   -3.0544    0.0000 H   0  0  0  0  0  0  0  0  0  0  0  0
   12.2120   -2.4416    0.0000 H   0  0  0  0  0  0  0  0  0  0  0  0
   11.5992   -1.8144    0.0000 H   0  0  0  0  0  0  0  0  0  0  0  0
   11.1454   -1.0071    0.0000 H   0  0  0  0  0  0  0  0  0  0  0  0
   10.9283   -0.1576    0.0000 H   0  0  0  0  0  0  0  0  0  0  0  0
   10.0788   -0.3747    0.0000 H   0  0  0  0  0  0  0  0  0  0  0  0
    6.3270   -2.0635    0.0000 H   0  0  0  0  0  0  0  0  0  0  0  0
    2.0000   -2.1552    0.0000 H   0  0  0  0  0  0  0  0  0  0  0  0
   10.2559   -4.6881    0.0000 H   0  0  0  0  0  0  0  0  0  0  0  0
   11.1920   -4.1619    0.0000 H   0  0  0  0  0  0  0  0  0  0  0  0
    7.0890   -3.8824    0.0000 H   0  0  0  0  0  0  0  0  0  0  0  0
    7.7017   -4.5096    0.0000 H   0  0  0  0  0  0  0  0  0  0  0  0
    8.3289   -3.8968    0.0000 H   0  0  0  0  0  0  0  0  0  0  0  0
  1 14  1  0  0  0  0
  1 16  1  0  0  0  0
  2 15  1  0  0  0  0
  2 22  1  0  0  0  0
 13  3  1  6  0  0  0
  3 24  1  0  0  0  0
  4 18  1  0  0  0  0
  4 22  1  0  0  0  0
 21  5  1  6  0  0  0
  5 63  1  0  0  0  0
  6 23  1  0  0  0  0
  6 30  1  0  0  0  0
 23  7  1  1  0  0  0
  7 35  1  0  0  0  0
 25  8  1  6  0  0  0
  8 70  1  0  0  0  0
  9 26  1  0  0  0  0
  9 71  1  0  0  0  0
 10 27  2  0  0  0  0
 18 11  1  6  0  0  0
 11 27  1  0  0  0  0
 11 52  1  0  0  0  0
 12 13  1  0  0  0  0
 12 14  1  0  0  0  0
 12 19  1  0  0  0  0
 12 20  1  0  0  0  0
 13 15  1  0  0  0  0
 13 36  1  0  0  0  0
 14 17  1  0  0  0  0
 14 37  1  0  0  0  0
 15 16  1  0  0  0  0
 15 38  1  6  0  0  0
 16 18  1  0  0  0  0
 16 39  1  6  0  0  0
 17 21  1  0  0  0  0
 17 40  1  0  0  0  0
 17 41  1  0  0  0  0
 18 42  1  0  0  0  0
 19 46  1  0  0  0  0
 19 47  1  0  0  0  0
 19 48  1  0  0  0  0
 20 43  1  0  0  0  0
 20 44  1  0  0  0  0
 20 45  1  0  0  0  0
 21 26  1  0  0  0  0
 21 49  1  0  0  0  0
 22 50  1  0  0  0  0
 22 51  1  0  0  0  0
 23 25  1  0  0  0  0
 23 28  1  0  0  0  0
 24 54  1  0  0  0  0
 24 55  1  0  0  0  0
 24 56  1  0  0  0  0
 25 27  1  0  0  0  0
 25 53  1  0  0  0  0
 26 57  1  0  0  0  0
 26 58  1  0  0  0  0
 28 31  1  0  0  0  0
 28 59  1  0  0  0  0
 28 60  1  0  0  0  0
 29 30  1  0  0  0  0
 29 31  1  0  0  0  0
 29 32  1  6  0  0  0
 29 61  1  0  0  0  0
 30 33  1  6  0  0  0
 30 62  1  0  0  0  0
 31 34  2  0  0  0  0
 32 64  1  0  0  0  0
 32 65  1  0  0  0  0
 32 66  1  0  0  0  0
 33 67  1  0  0  0  0
 33 68  1  0  0  0  0
 33 69  1  0  0  0  0
 34 72  1  0  0  0  0
 34 73  1  0  0  0  0
 35 74  1  0  0  0  0
 35 75  1  0  0  0  0
 35 76  1  0  0  0  0
M  END
> <PUBCHEM_COMPOUND_CID>
46173852

> <PUBCHEM_COMPOUND_CANONICALIZED>
1

> <PUBCHEM_CACTVS_COMPLEXITY>
763

> <PUBCHEM_CACTVS_HBOND_ACCEPTOR>
10

> <PUBCHEM_CACTVS_HBOND_DONOR>
4

> <PUBCHEM_CACTVS_ROTATABLE_BOND>
8

> <PUBCHEM_CACTVS_SUBSKEYS>
AAADcfB6PAAAAAAAAAAAAAAAAAAAAAAAAAAkSJAAAAAAAACQAAAAHgAQCAAADxThgAcCCALABgCIAgFSEAIAAAAgAAAAAIFIAAkTEBYAgQAnQAAH9gCXAAH46PyPAAAAAAAAAAAAAAAAAAAAAAAAAAAAAA==

> <PUBCHEM_IUPAC_OPENEYE_NAME>
(2S)-N-[(4S,4aS,8S,8aR)-6-[(2S)-2,3-dihydroxypropyl]-8-methoxy-7,7-dimethyl-4a,6,8,8a-tetrahydro-4H-pyrano[3,2-d][1,3]dioxin-4-yl]-2-hydroxy-2-[(2R,5R,6R)-2-methoxy-5,6-dimethyl-4-methylene-tetrahydropyran-2-yl]acetamide

> <PUBCHEM_IUPAC_CAS_NAME>
(2S)-N-[(4S,4aS,8S,8aR)-6-[(2S)-2,3-dihydroxypropyl]-8-methoxy-7,7-dimethyl-4a,6,8,8a-tetrahydro-4H-pyrano[3,2-d][1,3]dioxin-4-yl]-2-hydroxy-2-[(2R,5R,6R)-2-methoxy-5,6-dimethyl-4-methylene-2-oxanyl]acetamide

> <PUBCHEM_IUPAC_NAME>
(2S)-N-[(4S,4aS,8S,8aR)-6-[(2S)-2,3-dihydroxypropyl]-8-methoxy-7,7-dimethyl-4a,6,8,8a-tetrahydro-4H-pyrano[3,2-d][1,3]dioxin-4-yl]-2-hydroxy-2-[(2R,5R,6R)-2-methoxy-5,6-dimethyl-4-methylideneoxan-2-yl]acetamide

> <PUBCHEM_IUPAC_SYSTEMATIC_NAME>
(2S)-N-[(4S,4aS,8S,8aR)-6-[(2S)-2,3-bis(oxidanyl)propyl]-8-methoxy-7,7-dimethyl-4a,6,8,8a-tetrahydro-4H-pyrano[3,2-d][1,3]dioxin-4-yl]-2-[(2R,5R,6R)-2-methoxy-5,6-dimethyl-4-methylidene-oxan-2-yl]-2-oxidanyl-ethanamide

> <PUBCHEM_IUPAC_TRADITIONAL_NAME>
(2S)-N-[(4S,4aS,8S,8aR)-6-[(2S)-2,3-dihydroxypropyl]-8-methoxy-7,7-dimethyl-4a,6,8,8a-tetrahydro-4H-pyrano[3,2-d][1,3]dioxin-4-yl]-2-hydroxy-2-[(2R,5R,6R)-2-methoxy-5,6-dimethyl-4-methylene-tetrahydropyran-2-yl]acetamide

> <PUBCHEM_IUPAC_INCHI>
InChI=1S/C24H41NO10/c1-12-9-24(31-7,35-14(3)13(12)2)19(28)21(29)25-22-18-17(32-11-33-22)20(30-6)23(4,5)16(34-18)8-15(27)10-26/h13-20,22,26-28H,1,8-11H2,2-7H3,(H,25,29)/t13-,14-,15+,16?,17+,18+,19-,20-,22+,24-/m1/s1

> <PUBCHEM_IUPAC_INCHIKEY>
IJASURGZDJYQGF-RVCTYALJSA-N

> <PUBCHEM_XLOGP3_AA>
-0.1

> <PUBCHEM_EXACT_MASS>
503.273047

> <PUBCHEM_MOLECULAR_FORMULA>
C24H41NO10

> <PUBCHEM_MOLECULAR_WEIGHT>
503.58304

> <PUBCHEM_OPENEYE_CAN_SMILES>
CC1C(OC(CC1=C)(C(C(=O)NC2C3C(C(C(C(O3)CC(CO)O)(C)C)OC)OCO2)O)OC)C

> <PUBCHEM_OPENEYE_ISO_SMILES>
C[C@H]1[C@H](O[C@](CC1=C)([C@@H](C(=O)N[C@@H]2[C@@H]3[C@@H]([C@H](C(C(O3)C[C@@H](CO)O)(C)C)OC)OCO2)O)OC)C

> <PUBCHEM_CACTVS_TPSA>
145

> <PUBCHEM_MONOISOTOPIC_WEIGHT>
503.273047

> <PUBCHEM_TOTAL_CHARGE>
0

> <PUBCHEM_HEAVY_ATOM_COUNT>
35

> <PUBCHEM_ATOM_DEF_STEREO_COUNT>
9

> <PUBCHEM_ATOM_UDEF_STEREO_COUNT>
1

> <PUBCHEM_BOND_DEF_STEREO_COUNT>
0

> <PUBCHEM_BOND_UDEF_STEREO_COUNT>
0

> <PUBCHEM_ISOTOPIC_ATOM_COUNT>
0

> <PUBCHEM_COMPONENT_COUNT>
1

> <PUBCHEM_CACTVS_TAUTO_COUNT>
2

> <PUBCHEM_COORDINATE_TYPE>
1
5
255

> <PUBCHEM_BONDANNOTATIONS>
18  11  6
14  17  3
15  38  6
16  39  6
29  32  6
13  3  6
30  33  6
21  5  6
23  7  5
25  8  6

$$$$

