   Color/Form

     * White crystalline solid
     * Waxy off-white to buff colored solid (technical); clear amber
       liquid (end-use)

   from [1]HSDB

   Odor
        Faint almond odor (technical); mild aromatic odor (end-use)
   from [2]HSDB

   Boiling Point
        >270 deg C (decomposes)
   from [3]HSDB

   Melting Point
        49.5 deg C
   from [4]HSDB

   Density/Specific Gravity
        Specific gravity = 1.172 at 20 deg C
   from [5]HSDB

   Octanol/Water Partition Coefficient
        log Kow = 3.31 at 25 deg C
   from [6]HSDB

   pH
        pH = 6.73 at 23 deg C (end-use)
   from [7]HSDB

   Solubilities

     * Solubility (g/L at 20 deg C): >250 in acetonitrile, dichloroethane,
       methanol; acetone, ethyl acetate; 6.06 in n-heptane; 16.0 in
       n-octanol
     * Solubility in water (mg/L at 20 deg C): 0.44 (unbuffered); 0.46 (pH
       5); 0.44 (pH 7)

   from [8]HSDB

   Vapor Pressure
        5.3X10-2 mPa /4.0X10-7 mm Hg/ at 25 deg C
   from [9]HSDB

   Other Chemical/Physical Properties

     * Henry's Law constant: 9.51X10-4 Pa cu m/mol /9.4X10-9 atm-cu
       m/mole/ (calculated)
     * Hydroxyl radical reaction rate constant = 2.3X10-11 cu
       cm/molecule-sec at 25 deg C /Estimated/

   from [10]HSDB

   Computed Properties
   Molecular Weight                  357.375503 [g/mol]
   Molecular Formula                 C[20]H[20]FNO[4]
   XLogP3-AA                         4.8
   H-Bond Donor                      0
   H-Bond Acceptor                   6
   Rotatable Bond Count              9
   Exact Mass                        357.137636
   MonoIsotopic Mass                 357.137636
   Topological Polar Surface Area    68.6
   Heavy Atom Count                  26
   Formal Charge                     0
   Complexity                        483
   Isotope Atom Count                0
   Defined Atom Stereocenter Count   1
   Undefined Atom Stereocenter Count 0
   Defined Bond Stereocenter Count   0
   Undefined Bond Stereocenter Count 0
   Covalently-Bonded Unit Count      1
   Feature 3D Acceptor Count         4
   Feature 3D Hydrophobe Count       1
   Feature 3D Ring Count             2
   Effective Rotor Count             9
   Conformer Sampling RMSD           1
   CID Conformer Count               [11]209

References

   1. http://toxnet.nlm.nih.gov/cgi-bin/sis/search/r?dbs+hsdb:@term+@rn+@rel+122008-85-9
   2. http://toxnet.nlm.nih.gov/cgi-bin/sis/search/r?dbs+hsdb:@term+@rn+@rel+122008-85-9
   3. http://toxnet.nlm.nih.gov/cgi-bin/sis/search/r?dbs+hsdb:@term+@rn+@rel+122008-85-9
   4. http://toxnet.nlm.nih.gov/cgi-bin/sis/search/r?dbs+hsdb:@term+@rn+@rel+122008-85-9
   5. http://toxnet.nlm.nih.gov/cgi-bin/sis/search/r?dbs+hsdb:@term+@rn+@rel+122008-85-9
   6. http://toxnet.nlm.nih.gov/cgi-bin/sis/search/r?dbs+hsdb:@term+@rn+@rel+122008-85-9
   7. http://toxnet.nlm.nih.gov/cgi-bin/sis/search/r?dbs+hsdb:@term+@rn+@rel+122008-85-9
   8. http://toxnet.nlm.nih.gov/cgi-bin/sis/search/r?dbs+hsdb:@term+@rn+@rel+122008-85-9
   9. http://toxnet.nlm.nih.gov/cgi-bin/sis/search/r?dbs+hsdb:@term+@rn+@rel+122008-85-9
  10. http://toxnet.nlm.nih.gov/cgi-bin/sis/search/r?dbs+hsdb:@term+@rn+@rel+122008-85-9
  11. http://pubchem.ncbi.nlm.nih.gov/vw3d/vw3d.cgi?cid=180089
