   Melting Point
        200 DEG C
   from [1]HSDB

   Solubilities

     * SLIGHTLY SOL IN WATER AT 20 DEG C, SOL IN HOT WATER
     * SOL IN ALCOHOL

   from [2]HSDB

   Spectral Properties

     * SADTLER REFERENCE NUMBER: 7549 (IR, PRISM)
     * SPECIFIC OPTICAL ROTATION (CONCENTRATION BY VOLUME = 1 G IN 100 ML
       WATER, CALCULATED AS ANHYDROUS FORM): -31 DEG TO -32.5 DEG AT 25
       DEG C/D
     * IR: 18182 (Sadtler Research Laboratories IR Grating Collection)
     * UV: 5-909 (Organic Electronic Spectral Data, Phillips et al, John
       Wiley & Sons, New York)
     * MASS: 3872 (National Bureau of Standards EPA-NIH Mass Spectra Data
       Base, NSRDS-NBS-63)

   from [3]HSDB

   Other Chemical/Physical Properties

     * HYGROSCOPIC
     * DECOMP ABOUT 190 DEG C /ANHYDROUS OUABAIN/.
     * ODORLESS; AQUEOUS SOLUTIONS ARE NEUTRAL TO LITMUS PAPER; MELTS
       INDISTINCTLY & WITH DECOMP AT ABOUT 190 DEG C; WHITE CRYSTALS OR
       CRYSTALLINE POWDER /OUABAIN OCTAHYDRATE/
     * 1 G DISSOLVES IN ABOUT 75 ML WATER, IN 5 ML BOILING WATER, IN 100
       ML ALCOHOL, IN 8 ML BOILING ALCOHOL; SOL IN AMYL ALCOHOL, DIOXANE;
       SLIGHTLY SOL IN ETHER, CHLOROFORM, ETHYL ACETATE; SHINY PLATES
       (FROM WATER) WHICH GIVE UP THEIR WATER OF CRYSTALLIZATION AT 130
       DEG C /OUABAIN OCTAHYDRATE/

   from [4]HSDB

   Computed Properties
   Molecular Weight                  584.65246 [g/mol]
   Molecular Formula                 C[29]H[44]O[12]
   XLogP3                            -1.7
   H-Bond Donor                      8
   H-Bond Acceptor                   12
   Rotatable Bond Count              4
   Exact Mass                        584.283277
   MonoIsotopic Mass                 584.283277
   Topological Polar Surface Area    207
   Heavy Atom Count                  41
   Formal Charge                     0
   Complexity                        1080
   Isotope Atom Count                0
   Defined Atom Stereocenter Count   15
   Undefined Atom Stereocenter Count 0
   Defined Bond Stereocenter Count   0
   Undefined Bond Stereocenter Count 0
   Covalently-Bonded Unit Count      1
   Feature 3D Acceptor Count         11
   Feature 3D Donor Count            8
   Feature 3D Ring Count             6
   Effective Rotor Count             7.8
   Conformer Sampling RMSD           1
   CID Conformer Count               [5]21

References

   1. http://toxnet.nlm.nih.gov/cgi-bin/sis/search/r?dbs+hsdb:@term+@rn+@rel+630-60-4
   2. http://toxnet.nlm.nih.gov/cgi-bin/sis/search/r?dbs+hsdb:@term+@rn+@rel+630-60-4
   3. http://toxnet.nlm.nih.gov/cgi-bin/sis/search/r?dbs+hsdb:@term+@rn+@rel+630-60-4
   4. http://toxnet.nlm.nih.gov/cgi-bin/sis/search/r?dbs+hsdb:@term+@rn+@rel+630-60-4
   5. http://pubchem.ncbi.nlm.nih.gov/vw3d/vw3d.cgi?cid=439501
