   Color/Form
        Crystalline solid [Note: A liquid above 95 degees F].
   from [1]HSDB

   Odor

     * Phenolic odor
     * Sweet, tarry odor.

   from [2]HSDB

   Boiling Point
        201.8 deg C
   from [3]HSDB

   Melting Point
        35.5 deg C
   from [4]HSDB

   Critical Temperature and Pressure
        Critical temperature: 431.4 deg C; Critical pressure: 5.15 MPa
   from [5]HSDB

   Density/Specific Gravity
        1.0185 at 40 deg C/4 deg C
   from [6]HSDB

   Dissociation Constants
        pKa = 10.26
   from [7]HSDB

   Heat of Combustion
        3772.5 kJ/mol at 25 deg C (gas); 3698.6 kJ/mol at 25 deg C
   (crystal)
   from [8]HSDB

   Heat of Vaporization
        47.45 kJ/mol at 201.98 deg C
   from [9]HSDB

   Octanol/Water Partition Coefficient
        log Kow = 1.94
   from [10]HSDB

   Solubilities

     * 2.5 g in 100 ml water at 50 deg C; 5.0 g in 100 ml water at 100 deg
       C. Sol in aqueous alkali hydroxides. Sol in organic solvents.
     * Miscible in ethanol, ether, and acetone
     * Solubility in mineral oil: 0.7%
     * In water, 2.14X10+4 mg/L at 25 deg C

   from [11]HSDB

   Spectral Properties

     * Index of refraction = 1.5395 at 20 deg C/D
     * MAX ABSORPTION (CYCLOHEXANE): 280 NM (LOG E= 3.23)
     * SADTLER REFERENCE NUMBER: 33 (IR, PRISM)
     * MASS: 117 (National Bureau of Standards EPA-NIH Mass Spectra Data
       Base, NSRDS-NBS-63)
     * Intense mass spectral peaks: 107 m/z (100%), 108 m/z (91%), 77 m/z
       (28%), 79 m/z (21%)
     * IR: 8005 (Sadtler Research Laboratories IR Grating Collection)
     * UV: 15 (Sadtler Research Laboratories Spectral Collection)
     * NMR: 9491 (Sadtler Research Laboratories Spectral Collection)
     * MASS: 53610 (NIST/EPA/MSDC Mass Spectral Database, 1990 version);
       335 (Atlas of Mass Spectral Data, John Wiley & Sons, New York)

   from [12]HSDB

   Surface Tension
        41.8 dynes/cm
   from [13]HSDB

   Vapor Density
        3.72 (Air= 1)
   from [14]HSDB

   Vapor Pressure
        0.11 mm Hg at 25 deg C
   from [15]HSDB

   Viscosity
        7.0 cP at 40 deg C
   from [16]HSDB

   Other Chemical/Physical Properties

     * Percent in saturated air at 25 deg C: 0.0142; density of saturated
       air at 25 deg C: 1.00039 (Air= 1)
     * Wt/gal= 8.67
     * Heat of fusion: 26.28 cal/g
     * Henry's Law constant = 1X10-6 atm-cu m/mol at 25 deg C [Gaffney JS
       et al; Environ Sci Technol 21: 519-525 (1987)] [17]PubMed Abstract
     * Hydroxyl radical reaction rate constant = 4.7X10-11 cu
       cm/molecule-sec at 25 deg C

   from [18]HSDB

   Computed Properties
   Molecular Weight                  108.13782 [g/mol]
   Molecular Formula                 C[7]H[8]O
   XLogP3                            1.9
   H-Bond Donor                      1
   H-Bond Acceptor                   1
   Rotatable Bond Count              0
   Tautomer Count                    2
   Exact Mass                        108.057515
   MonoIsotopic Mass                 108.057515
   Topological Polar Surface Area    20.2
   Heavy Atom Count                  8
   Formal Charge                     0
   Complexity                        62.8
   Isotope Atom Count                0
   Defined Atom Stereocenter Count   0
   Undefined Atom Stereocenter Count 0
   Defined Bond Stereocenter Count   0
   Undefined Bond Stereocenter Count 0
   Covalently-Bonded Unit Count      1
   Feature 3D Donor Count            1
   Feature 3D Ring Count             1
   Effective Rotor Count             0
   Conformer Sampling RMSD           0.4
   CID Conformer Count               [19]1

References

   1. http://toxnet.nlm.nih.gov/cgi-bin/sis/search/r?dbs+hsdb:@term+@rn+@rel+106-44-5
   2. http://toxnet.nlm.nih.gov/cgi-bin/sis/search/r?dbs+hsdb:@term+@rn+@rel+106-44-5
   3. http://toxnet.nlm.nih.gov/cgi-bin/sis/search/r?dbs+hsdb:@term+@rn+@rel+106-44-5
   4. http://toxnet.nlm.nih.gov/cgi-bin/sis/search/r?dbs+hsdb:@term+@rn+@rel+106-44-5
   5. http://toxnet.nlm.nih.gov/cgi-bin/sis/search/r?dbs+hsdb:@term+@rn+@rel+106-44-5
   6. http://toxnet.nlm.nih.gov/cgi-bin/sis/search/r?dbs+hsdb:@term+@rn+@rel+106-44-5
   7. http://toxnet.nlm.nih.gov/cgi-bin/sis/search/r?dbs+hsdb:@term+@rn+@rel+106-44-5
   8. http://toxnet.nlm.nih.gov/cgi-bin/sis/search/r?dbs+hsdb:@term+@rn+@rel+106-44-5
   9. http://toxnet.nlm.nih.gov/cgi-bin/sis/search/r?dbs+hsdb:@term+@rn+@rel+106-44-5
  10. http://toxnet.nlm.nih.gov/cgi-bin/sis/search/r?dbs+hsdb:@term+@rn+@rel+106-44-5
  11. http://toxnet.nlm.nih.gov/cgi-bin/sis/search/r?dbs+hsdb:@term+@rn+@rel+106-44-5
  12. http://toxnet.nlm.nih.gov/cgi-bin/sis/search/r?dbs+hsdb:@term+@rn+@rel+106-44-5
  13. http://toxnet.nlm.nih.gov/cgi-bin/sis/search/r?dbs+hsdb:@term+@rn+@rel+106-44-5
  14. http://toxnet.nlm.nih.gov/cgi-bin/sis/search/r?dbs+hsdb:@term+@rn+@rel+106-44-5
  15. http://toxnet.nlm.nih.gov/cgi-bin/sis/search/r?dbs+hsdb:@term+@rn+@rel+106-44-5
  16. http://toxnet.nlm.nih.gov/cgi-bin/sis/search/r?dbs+hsdb:@term+@rn+@rel+106-44-5
  17. http://www.ncbi.nlm.nih.gov/entrez/query.fcgi?cmd=Retrieve&db=pubmed&dopt=Abstract&list_uids=19994967
  18. http://toxnet.nlm.nih.gov/cgi-bin/sis/search/r?dbs+hsdb:@term+@rn+@rel+106-44-5
  19. http://pubchem.ncbi.nlm.nih.gov/vw3d/vw3d.cgi?cid=2879
