443108
  -OEChem-07051213012D

 87 87  0     1  0  0  0  0  0999 V2000
    4.5981    2.4050    0.0000 O   0  0  0  0  0  0  0  0  0  0  0  0
    4.5981    3.4050    0.0000 O   0  0  0  0  0  0  0  0  0  0  0  0
    3.7320   -1.0950    0.0000 O   0  0  0  0  0  0  0  0  0  0  0  0
    3.7320    3.9050    0.0000 O   0  0  0  0  0  0  0  0  0  0  0  0
    6.3301   -3.5950    0.0000 O   0  0  0  0  0  0  0  0  0  0  0  0
    4.5981   -6.5950    0.0000 O   0  0  0  0  0  0  0  0  0  0  0  0
    5.4641    0.9050    0.0000 N   0  0  0  0  0  0  0  0  0  0  0  0
    6.3301    3.4050    0.0000 N   0  0  0  0  0  0  0  0  0  0  0  0
    5.4641   -1.0950    0.0000 N   0  0  0  0  0  0  0  0  0  0  0  0
    4.5981    5.4050    0.0000 N   0  0  0  0  0  0  0  0  0  0  0  0
    7.1962   -2.0950    0.0000 N   0  0  0  0  0  0  0  0  0  0  0  0
    6.3301    2.4050    0.0000 C   0  0  3  0  0  0  0  0  0  0  0  0
    7.1962    1.9050    0.0000 C   0  0  0  0  0  0  0  0  0  0  0  0
    4.5981    0.4050    0.0000 C   0  0  3  0  0  0  0  0  0  0  0  0
    3.7320    0.9050    0.0000 C   0  0  0  0  0  0  0  0  0  0  0  0
    8.0622    2.4050    0.0000 C   0  0  0  0  0  0  0  0  0  0  0  0
    2.8660    0.4050    0.0000 C   0  0  0  0  0  0  0  0  0  0  0  0
    5.4641    4.9050    0.0000 C   0  0  3  0  0  0  0  0  0  0  0  0
    5.4641    1.9050    0.0000 C   0  0  0  0  0  0  0  0  0  0  0  0
    6.3301    5.4050    0.0000 C   0  0  0  0  0  0  0  0  0  0  0  0
    6.3301    6.4050    0.0000 C   0  0  0  0  0  0  0  0  0  0  0  0
    5.4641    3.9050    0.0000 C   0  0  0  0  0  0  0  0  0  0  0  0
    4.5981   -0.5950    0.0000 C   0  0  0  0  0  0  0  0  0  0  0  0
    8.9282    1.9050    0.0000 C   0  0  0  0  0  0  0  0  0  0  0  0
    8.0622    3.4050    0.0000 C   0  0  0  0  0  0  0  0  0  0  0  0
    2.0000    0.9050    0.0000 C   0  0  0  0  0  0  0  0  0  0  0  0
    2.8660   -0.5950    0.0000 C   0  0  0  0  0  0  0  0  0  0  0  0
    5.4641   -2.0950    0.0000 C   0  0  3  0  0  0  0  0  0  0  0  0
    7.1962    6.9050    0.0000 C   0  0  0  0  0  0  0  0  0  0  0  0
    5.4641    6.9050    0.0000 C   0  0  0  0  0  0  0  0  0  0  0  0
    4.5981   -2.5950    0.0000 C   0  0  0  0  0  0  0  0  0  0  0  0
    3.7320    4.9050    0.0000 C   0  0  0  0  0  0  0  0  0  0  0  0
    6.3301   -2.5950    0.0000 C   0  0  0  0  0  0  0  0  0  0  0  0
    4.5981   -3.5950    0.0000 C   0  0  0  0  0  0  0  0  0  0  0  0
    2.8660    5.4050    0.0000 C   0  0  0  0  0  0  0  0  0  0  0  0
    3.7320   -4.0950    0.0000 C   0  0  0  0  0  0  0  0  0  0  0  0
    5.4641   -4.0950    0.0000 C   0  0  0  0  0  0  0  0  0  0  0  0
    3.7320   -5.0950    0.0000 C   0  0  0  0  0  0  0  0  0  0  0  0
    5.4641   -5.0950    0.0000 C   0  0  0  0  0  0  0  0  0  0  0  0
    4.5981   -5.5950    0.0000 C   0  0  0  0  0  0  0  0  0  0  0  0
    6.8671    2.7150    0.0000 H   0  0  0  0  0  0  0  0  0  0  0  0
    6.7976    1.4300    0.0000 H   0  0  0  0  0  0  0  0  0  0  0  0
    7.5947    1.4300    0.0000 H   0  0  0  0  0  0  0  0  0  0  0  0
    4.5981    1.0250    0.0000 H   0  0  0  0  0  0  0  0  0  0  0  0
    4.1306    1.3800    0.0000 H   0  0  0  0  0  0  0  0  0  0  0  0
    3.3335    1.3800    0.0000 H   0  0  0  0  0  0  0  0  0  0  0  0
    8.0622    1.7850    0.0000 H   0  0  0  0  0  0  0  0  0  0  0  0
    2.8660    1.0250    0.0000 H   0  0  0  0  0  0  0  0  0  0  0  0
    5.4641    5.5250    0.0000 H   0  0  0  0  0  0  0  0  0  0  0  0
    6.5422    4.8224    0.0000 H   0  0  0  0  0  0  0  0  0  0  0  0
    6.9407    5.5127    0.0000 H   0  0  0  0  0  0  0  0  0  0  0  0
    6.0010    0.5950    0.0000 H   0  0  0  0  0  0  0  0  0  0  0  0
    6.8671    3.7150    0.0000 H   0  0  0  0  0  0  0  0  0  0  0  0
    6.8671    6.0950    0.0000 H   0  0  0  0  0  0  0  0  0  0  0  0
    8.6182    1.3681    0.0000 H   0  0  0  0  0  0  0  0  0  0  0  0
    9.4651    1.5950    0.0000 H   0  0  0  0  0  0  0  0  0  0  0  0
    9.2382    2.4419    0.0000 H   0  0  0  0  0  0  0  0  0  0  0  0
    8.6822    3.4050    0.0000 H   0  0  0  0  0  0  0  0  0  0  0  0
    8.0622    4.0250    0.0000 H   0  0  0  0  0  0  0  0  0  0  0  0
    7.4422    3.4050    0.0000 H   0  0  0  0  0  0  0  0  0  0  0  0
    2.3100    1.4419    0.0000 H   0  0  0  0  0  0  0  0  0  0  0  0
    1.4631    1.2150    0.0000 H   0  0  0  0  0  0  0  0  0  0  0  0
    1.6900    0.3681    0.0000 H   0  0  0  0  0  0  0  0  0  0  0  0
    2.2460   -0.5950    0.0000 H   0  0  0  0  0  0  0  0  0  0  0  0
    2.8660   -1.2150    0.0000 H   0  0  0  0  0  0  0  0  0  0  0  0
    3.4860   -0.5950    0.0000 H   0  0  0  0  0  0  0  0  0  0  0  0
    6.0010   -0.7850    0.0000 H   0  0  0  0  0  0  0  0  0  0  0  0
    6.0010   -1.7850    0.0000 H   0  0  0  0  0  0  0  0  0  0  0  0
    4.5981    6.0250    0.0000 H   0  0  0  0  0  0  0  0  0  0  0  0
    7.5062    6.3681    0.0000 H   0  0  0  0  0  0  0  0  0  0  0  0
    7.7331    7.2150    0.0000 H   0  0  0  0  0  0  0  0  0  0  0  0
    6.8862    7.4419    0.0000 H   0  0  0  0  0  0  0  0  0  0  0  0
    5.7741    7.4419    0.0000 H   0  0  0  0  0  0  0  0  0  0  0  0
    4.9272    7.2150    0.0000 H   0  0  0  0  0  0  0  0  0  0  0  0
    5.1541    6.3681    0.0000 H   0  0  0  0  0  0  0  0  0  0  0  0
    4.3860   -2.0124    0.0000 H   0  0  0  0  0  0  0  0  0  0  0  0
    3.9875   -2.7027    0.0000 H   0  0  0  0  0  0  0  0  0  0  0  0
    3.1760    5.9419    0.0000 H   0  0  0  0  0  0  0  0  0  0  0  0
    2.3291    5.7150    0.0000 H   0  0  0  0  0  0  0  0  0  0  0  0
    2.5560    4.8681    0.0000 H   0  0  0  0  0  0  0  0  0  0  0  0
    3.1951   -3.7850    0.0000 H   0  0  0  0  0  0  0  0  0  0  0  0
    6.0010   -3.7850    0.0000 H   0  0  0  0  0  0  0  0  0  0  0  0
    7.7331   -2.4050    0.0000 H   0  0  0  0  0  0  0  0  0  0  0  0
    7.1962   -1.4750    0.0000 H   0  0  0  0  0  0  0  0  0  0  0  0
    3.1951   -5.4050    0.0000 H   0  0  0  0  0  0  0  0  0  0  0  0
    6.0010   -5.4050    0.0000 H   0  0  0  0  0  0  0  0  0  0  0  0
    4.0611   -6.9050    0.0000 H   0  0  0  0  0  0  0  0  0  0  0  0
  1 19  2  0  0  0  0
  2 22  2  0  0  0  0
  3 23  2  0  0  0  0
  4 32  2  0  0  0  0
  5 33  2  0  0  0  0
  6 40  1  0  0  0  0
  6 87  1  0  0  0  0
  7 14  1  0  0  0  0
  7 19  1  0  0  0  0
  7 52  1  0  0  0  0
  8 12  1  0  0  0  0
  8 22  1  0  0  0  0
  8 53  1  0  0  0  0
  9 23  1  0  0  0  0
  9 28  1  0  0  0  0
  9 67  1  0  0  0  0
 10 18  1  0  0  0  0
 10 32  1  0  0  0  0
 10 69  1  0  0  0  0
 11 33  1  0  0  0  0
 11 83  1  0  0  0  0
 11 84  1  0  0  0  0
 12 13  1  0  0  0  0
 12 19  1  0  0  0  0
 12 41  1  0  0  0  0
 13 16  1  0  0  0  0
 13 42  1  0  0  0  0
 13 43  1  0  0  0  0
 14 15  1  0  0  0  0
 14 23  1  0  0  0  0
 14 44  1  0  0  0  0
 15 17  1  0  0  0  0
 15 45  1  0  0  0  0
 15 46  1  0  0  0  0
 16 24  1  0  0  0  0
 16 25  1  0  0  0  0
 16 47  1  0  0  0  0
 17 26  1  0  0  0  0
 17 27  1  0  0  0  0
 17 48  1  0  0  0  0
 18 20  1  0  0  0  0
 18 22  1  0  0  0  0
 18 49  1  0  0  0  0
 20 21  1  0  0  0  0
 20 50  1  0  0  0  0
 20 51  1  0  0  0  0
 21 29  1  0  0  0  0
 21 30  1  0  0  0  0
 21 54  1  0  0  0  0
 24 55  1  0  0  0  0
 24 56  1  0  0  0  0
 24 57  1  0  0  0  0
 25 58  1  0  0  0  0
 25 59  1  0  0  0  0
 25 60  1  0  0  0  0
 26 61  1  0  0  0  0
 26 62  1  0  0  0  0
 26 63  1  0  0  0  0
 27 64  1  0  0  0  0
 27 65  1  0  0  0  0
 27 66  1  0  0  0  0
 28 31  1  0  0  0  0
 28 33  1  0  0  0  0
 28 68  1  0  0  0  0
 29 70  1  0  0  0  0
 29 71  1  0  0  0  0
 29 72  1  0  0  0  0
 30 73  1  0  0  0  0
 30 74  1  0  0  0  0
 30 75  1  0  0  0  0
 31 34  1  0  0  0  0
 31 76  1  0  0  0  0
 31 77  1  0  0  0  0
 32 35  1  0  0  0  0
 34 36  2  0  0  0  0
 34 37  1  0  0  0  0
 35 78  1  0  0  0  0
 35 79  1  0  0  0  0
 35 80  1  0  0  0  0
 36 38  1  0  0  0  0
 36 81  1  0  0  0  0
 37 39  2  0  0  0  0
 37 82  1  0  0  0  0
 38 40  2  0  0  0  0
 38 85  1  0  0  0  0
 39 40  1  0  0  0  0
 39 86  1  0  0  0  0
M  END
> <PUBCHEM_COMPOUND_CID>
443108

> <PUBCHEM_COMPOUND_CANONICALIZED>
1

> <PUBCHEM_CACTVS_COMPLEXITY>
854

> <PUBCHEM_CACTVS_HBOND_ACCEPTOR>
6

> <PUBCHEM_CACTVS_HBOND_DONOR>
6

> <PUBCHEM_CACTVS_ROTATABLE_BOND>
16

> <PUBCHEM_CACTVS_SUBSKEYS>
AAADcfB7uAAAAAAAAAAAAAAAAAAAAAAAAAAwAAAAAAAAAAABAAAAHgAQCAAADSzBmAQyBoLAAgCIAiFSEAACAAAgIAAIiIGOCIgIZjKCkTOUcAAk1hGImAeYyKCOIAAAAAAAAABAAAAAAAAAAAAAAAAAAA==

> <PUBCHEM_IUPAC_OPENEYE_NAME>
2-acetamido-N-[1-[[1-[[2-amino-1-[(4-hydroxyphenyl)methyl]-2-oxo-ethyl]carbamoyl]-3-methyl-butyl]carbamoyl]-3-methyl-butyl]-4-methyl-pentanamide

> <PUBCHEM_IUPAC_CAS_NAME>
2-acetamido-N-[1-[[1-[[1-amino-3-(4-hydroxyphenyl)-1-oxopropan-2-yl]amino]-4-methyl-1-oxopentan-2-yl]amino]-4-methyl-1-oxopentan-2-yl]-4-methylpentanamide

> <PUBCHEM_IUPAC_NAME>
2-acetamido-N-[1-[[1-[[1-amino-3-(4-hydroxyphenyl)-1-oxopropan-2-yl]amino]-4-methyl-1-oxopentan-2-yl]amino]-4-methyl-1-oxopentan-2-yl]-4-methylpentanamide

> <PUBCHEM_IUPAC_SYSTEMATIC_NAME>
2-acetamido-N-[1-[[1-[[1-azanyl-3-(4-hydroxyphenyl)-1-oxidanylidene-propan-2-yl]amino]-4-methyl-1-oxidanylidene-pentan-2-yl]amino]-4-methyl-1-oxidanylidene-pentan-2-yl]-4-methyl-pentanamide

> <PUBCHEM_IUPAC_TRADITIONAL_NAME>
2-acetamido-N-[1-[[1-[[2-amino-1-(4-hydroxybenzyl)-2-keto-ethyl]carbamoyl]-3-methyl-butyl]carbamoyl]-3-methyl-butyl]-4-methyl-valeramide

> <PUBCHEM_IUPAC_INCHI>
InChI=1S/C29H47N5O6/c1-16(2)12-23(31-19(7)35)27(38)33-25(14-18(5)6)29(40)34-24(13-17(3)4)28(39)32-22(26(30)37)15-20-8-10-21(36)11-9-20/h8-11,16-18,22-25,36H,12-15H2,1-7H3,(H2,30,37)(H,31,35)(H,32,39)(H,33,38)(H,34,40)

> <PUBCHEM_IUPAC_INCHIKEY>
BYVOPVHMRPAMSI-UHFFFAOYSA-N

> <PUBCHEM_XLOGP3>
2.5

> <PUBCHEM_EXACT_MASS>
561.352634

> <PUBCHEM_MOLECULAR_FORMULA>
C29H47N5O6

> <PUBCHEM_MOLECULAR_WEIGHT>
561.71338

> <PUBCHEM_OPENEYE_CAN_SMILES>
CC(C)CC(C(=O)NC(CC(C)C)C(=O)NC(CC(C)C)C(=O)NC(CC1=CC=C(C=C1)O)C(=O)N)NC(=O)C

> <PUBCHEM_OPENEYE_ISO_SMILES>
CC(C)CC(C(=O)NC(CC(C)C)C(=O)NC(CC(C)C)C(=O)NC(CC1=CC=C(C=C1)O)C(=O)N)NC(=O)C

> <PUBCHEM_CACTVS_TPSA>
180

> <PUBCHEM_MONOISOTOPIC_WEIGHT>
561.352634

> <PUBCHEM_TOTAL_CHARGE>
0

> <PUBCHEM_HEAVY_ATOM_COUNT>
40

> <PUBCHEM_ATOM_DEF_STEREO_COUNT>
0

> <PUBCHEM_ATOM_UDEF_STEREO_COUNT>
4

> <PUBCHEM_BOND_DEF_STEREO_COUNT>
0

> <PUBCHEM_BOND_UDEF_STEREO_COUNT>
0

> <PUBCHEM_ISOTOPIC_ATOM_COUNT>
0

> <PUBCHEM_COMPONENT_COUNT>
1

> <PUBCHEM_CACTVS_TAUTO_COUNT>
96

> <PUBCHEM_COORDINATE_TYPE>
1
5
255

> <PUBCHEM_BONDANNOTATIONS>
12  13  3
14  15  3
18  20  3
28  31  3
34  36  8
34  37  8
36  38  8
37  39  8
38  40  8
39  40  8

$$$$

