5327116
  -OEChem-07051213152D

 57 58  0     1  0  0  0  0  0999 V2000
    2.5369    3.2500    0.0000 S   0  0  0  0  0  0  0  0  0  0  0  0
    5.1350   -0.2500    0.0000 O   0  0  0  0  0  0  0  0  0  0  0  0
    6.8671   -0.2500    0.0000 O   0  0  0  0  0  0  0  0  0  0  0  0
    3.4030   -1.2500    0.0000 O   0  0  0  0  0  0  0  0  0  0  0  0
    6.8671   -1.2500    0.0000 O   0  0  0  0  0  0  0  0  0  0  0  0
    3.4030   -3.2500    0.0000 O   0  0  0  0  0  0  0  0  0  0  0  0
    6.8671   -3.2500    0.0000 O   0  0  0  0  0  0  0  0  0  0  0  0
    5.1350   -4.2500    0.0000 O   0  0  0  0  0  0  0  0  0  0  0  0
    6.8671    2.7500    0.0000 O   0  0  0  0  0  0  0  0  0  0  0  0
    8.5991    1.7500    0.0000 O   0  0  0  0  0  0  0  0  0  0  0  0
    9.4651    0.2500    0.0000 O   0  0  0  0  0  0  0  0  0  0  0  0
    6.0010    3.2500    0.0000 O   0  0  0  0  0  0  0  0  0  0  0  0
    5.1350    1.7500    0.0000 N   0  0  0  0  0  0  0  0  0  0  0  0
    4.2690    4.2500    0.0000 N   0  0  0  0  0  0  0  0  0  0  0  0
    5.1350   -1.2500    0.0000 C   0  0  0  0  0  0  0  0  0  0  0  0
    4.2690   -1.7500    0.0000 C   0  0  1  0  0  0  0  0  0  0  0  0
    6.0010   -1.7500    0.0000 C   0  0  1  0  0  0  0  0  0  0  0  0
    4.2690   -2.7500    0.0000 C   0  0  2  0  0  0  0  0  0  0  0  0
    6.0010   -2.7500    0.0000 C   0  0  1  0  0  0  0  0  0  0  0  0
    6.0010    1.2500    0.0000 C   0  0  1  0  0  0  0  0  0  0  0  0
    5.1350   -3.2500    0.0000 C   0  0  0  0  0  0  0  0  0  0  0  0
    6.0010    0.2500    0.0000 C   0  0  1  0  0  0  0  0  0  0  0  0
    6.8671    1.7500    0.0000 C   0  0  2  0  0  0  0  0  0  0  0  0
    7.7331    1.2500    0.0000 C   0  0  1  0  0  0  0  0  0  0  0  0
    7.7331    0.2500    0.0000 C   0  0  1  0  0  0  0  0  0  0  0  0
    8.5991   -0.2500    0.0000 C   0  0  0  0  0  0  0  0  0  0  0  0
    5.1350    2.7500    0.0000 C   0  0  0  0  0  0  0  0  0  0  0  0
    4.2690    3.2500    0.0000 C   0  0  2  0  0  0  0  0  0  0  0  0
    3.4030    2.7500    0.0000 C   0  0  0  0  0  0  0  0  0  0  0  0
    5.6720   -0.9400    0.0000 H   0  0  0  0  0  0  0  0  0  0  0  0
    4.2690   -1.1300    0.0000 H   0  0  0  0  0  0  0  0  0  0  0  0
    6.5380   -2.0600    0.0000 H   0  0  0  0  0  0  0  0  0  0  0  0
    4.2690   -3.3700    0.0000 H   0  0  0  0  0  0  0  0  0  0  0  0
    6.5380   -2.4400    0.0000 H   0  0  0  0  0  0  0  0  0  0  0  0
    5.4641    0.9400    0.0000 H   0  0  0  0  0  0  0  0  0  0  0  0
    5.4641    0.5600    0.0000 H   0  0  0  0  0  0  0  0  0  0  0  0
    5.6720   -3.5600    0.0000 H   0  0  0  0  0  0  0  0  0  0  0  0
    6.3301    2.0600    0.0000 H   0  0  0  0  0  0  0  0  0  0  0  0
    7.7331    1.8700    0.0000 H   0  0  0  0  0  0  0  0  0  0  0  0
    7.7331   -0.3700    0.0000 H   0  0  0  0  0  0  0  0  0  0  0  0
    4.5981    1.4400    0.0000 H   0  0  0  0  0  0  0  0  0  0  0  0
    8.2006   -0.7249    0.0000 H   0  0  0  0  0  0  0  0  0  0  0  0
    8.9976   -0.7249    0.0000 H   0  0  0  0  0  0  0  0  0  0  0  0
    2.8660   -1.5600    0.0000 H   0  0  0  0  0  0  0  0  0  0  0  0
    7.4040   -1.5600    0.0000 H   0  0  0  0  0  0  0  0  0  0  0  0
    3.4030   -3.8700    0.0000 H   0  0  0  0  0  0  0  0  0  0  0  0
    6.8671   -3.8700    0.0000 H   0  0  0  0  0  0  0  0  0  0  0  0
    4.5981   -4.5600    0.0000 H   0  0  0  0  0  0  0  0  0  0  0  0
    7.4040    3.0600    0.0000 H   0  0  0  0  0  0  0  0  0  0  0  0
    8.5991    2.3700    0.0000 H   0  0  0  0  0  0  0  0  0  0  0  0
    4.8059    3.5600    0.0000 H   0  0  0  0  0  0  0  0  0  0  0  0
   10.0021   -0.0600    0.0000 H   0  0  0  0  0  0  0  0  0  0  0  0
    3.0044    2.2750    0.0000 H   0  0  0  0  0  0  0  0  0  0  0  0
    3.8015    2.2750    0.0000 H   0  0  0  0  0  0  0  0  0  0  0  0
    3.7320    4.5600    0.0000 H   0  0  0  0  0  0  0  0  0  0  0  0
    4.8059    4.5600    0.0000 H   0  0  0  0  0  0  0  0  0  0  0  0
    2.0000    2.9400    0.0000 H   0  0  0  0  0  0  0  0  0  0  0  0
  1 29  1  0  0  0  0
  1 57  1  0  0  0  0
  2 15  1  0  0  0  0
 22  2  1  6  0  0  0
  3 22  1  0  0  0  0
  3 25  1  0  0  0  0
 16  4  1  1  0  0  0
  4 44  1  0  0  0  0
 17  5  1  6  0  0  0
  5 45  1  0  0  0  0
 18  6  1  6  0  0  0
  6 46  1  0  0  0  0
 19  7  1  6  0  0  0
  7 47  1  0  0  0  0
  8 21  1  0  0  0  0
  8 48  1  0  0  0  0
 23  9  1  1  0  0  0
  9 49  1  0  0  0  0
 24 10  1  6  0  0  0
 10 50  1  0  0  0  0
 11 26  1  0  0  0  0
 11 52  1  0  0  0  0
 12 27  2  0  0  0  0
 20 13  1  6  0  0  0
 13 27  1  0  0  0  0
 13 41  1  0  0  0  0
 28 14  1  6  0  0  0
 14 55  1  0  0  0  0
 14 56  1  0  0  0  0
 15 16  1  0  0  0  0
 15 17  1  0  0  0  0
 15 30  1  0  0  0  0
 16 18  1  0  0  0  0
 16 31  1  0  0  0  0
 17 19  1  0  0  0  0
 17 32  1  0  0  0  0
 18 21  1  0  0  0  0
 18 33  1  0  0  0  0
 19 21  1  0  0  0  0
 19 34  1  0  0  0  0
 20 22  1  0  0  0  0
 20 23  1  0  0  0  0
 20 35  1  0  0  0  0
 21 37  1  0  0  0  0
 22 36  1  0  0  0  0
 23 24  1  0  0  0  0
 23 38  1  0  0  0  0
 24 25  1  0  0  0  0
 24 39  1  0  0  0  0
 25 26  1  1  0  0  0
 25 40  1  0  0  0  0
 26 42  1  0  0  0  0
 26 43  1  0  0  0  0
 27 28  1  0  0  0  0
 28 29  1  0  0  0  0
 28 51  1  0  0  0  0
 29 53  1  0  0  0  0
 29 54  1  0  0  0  0
M  END
> <PUBCHEM_COMPOUND_CID>
5327116

> <PUBCHEM_COMPOUND_CANONICALIZED>
1

> <PUBCHEM_CACTVS_COMPLEXITY>
544

> <PUBCHEM_CACTVS_HBOND_ACCEPTOR>
13

> <PUBCHEM_CACTVS_HBOND_DONOR>
11

> <PUBCHEM_CACTVS_ROTATABLE_BOND>
6

> <PUBCHEM_CACTVS_SUBSKEYS>
AAADceBzPABAAAAAAAAAAAAAAAAAAAAAAAA0QAAAAAAAAAAAAAAAHgQQCAAACDz1wAeACALABgQIAAEQEAAAAAAAAAAAAIGIAAATUAIAgAA3QAAHFgCXAAHwcA8AAAAAAAAAAAACAAAQAACAAAAAAAAAAA==

> <PUBCHEM_IUPAC_OPENEYE_NAME>
(2R)-2-amino-N-[(2R,3R,4R,5S,6R)-4,5-dihydroxy-6-(hydroxymethyl)-2-[(2R,3S,5R,6R)-2,3,4,5,6-pentahydroxycyclohexoxy]tetrahydropyran-3-yl]-3-sulfanyl-propanamide

> <PUBCHEM_IUPAC_CAS_NAME>
(2R)-2-amino-N-[(2R,3R,4R,5S,6R)-4,5-dihydroxy-6-(hydroxymethyl)-2-[(2R,3S,5R,6R)-2,3,4,5,6-pentahydroxycyclohexyl]oxy-3-oxanyl]-3-mercaptopropanamide

> <PUBCHEM_IUPAC_NAME>
(2R)-2-amino-N-[(2R,3R,4R,5S,6R)-4,5-dihydroxy-6-(hydroxymethyl)-2-[(2R,3S,5R,6R)-2,3,4,5,6-pentahydroxycyclohexyl]oxyoxan-3-yl]-3-sulfanylpropanamide

> <PUBCHEM_IUPAC_SYSTEMATIC_NAME>
(2R)-2-azanyl-N-[(2R,3R,4R,5S,6R)-6-(hydroxymethyl)-4,5-bis(oxidanyl)-2-[(2R,3S,5R,6R)-2,3,4,5,6-pentakis(oxidanyl)cyclohexyl]oxy-oxan-3-yl]-3-sulfanyl-propanamide

> <PUBCHEM_IUPAC_TRADITIONAL_NAME>
(2R)-2-amino-N-[(2R,3R,4R,5S,6R)-4,5-dihydroxy-6-methylol-2-[(2R,3S,5R,6R)-2,3,4,5,6-pentahydroxycyclohexoxy]tetrahydropyran-3-yl]-3-mercapto-propionamide

> <PUBCHEM_IUPAC_INCHI>
InChI=1S/C15H28N2O11S/c16-3(2-29)14(26)17-5-7(20)6(19)4(1-18)27-15(5)28-13-11(24)9(22)8(21)10(23)12(13)25/h3-13,15,18-25,29H,1-2,16H2,(H,17,26)/t3-,4+,5+,6+,7+,8?,9-,10+,11+,12+,13?,15+/m0/s1

> <PUBCHEM_IUPAC_INCHIKEY>
ZGXSCMBZZVXWGF-GGKYFZEDSA-N

> <PUBCHEM_XLOGP3_AA>
-5.9

> <PUBCHEM_EXACT_MASS>
444.141381

> <PUBCHEM_MOLECULAR_FORMULA>
C15H28N2O11S

> <PUBCHEM_MOLECULAR_WEIGHT>
444.45462

> <PUBCHEM_OPENEYE_CAN_SMILES>
C(C1C(C(C(C(O1)OC2C(C(C(C(C2O)O)O)O)O)NC(=O)C(CS)N)O)O)O

> <PUBCHEM_OPENEYE_ISO_SMILES>
C([C@@H]1[C@H]([C@@H]([C@H]([C@H](O1)OC2[C@@H]([C@H](C([C@H]([C@H]2O)O)O)O)O)NC(=O)[C@H](CS)N)O)O)O

> <PUBCHEM_CACTVS_TPSA>
236

> <PUBCHEM_MONOISOTOPIC_WEIGHT>
444.141381

> <PUBCHEM_TOTAL_CHARGE>
0

> <PUBCHEM_HEAVY_ATOM_COUNT>
29

> <PUBCHEM_ATOM_DEF_STEREO_COUNT>
10

> <PUBCHEM_ATOM_UDEF_STEREO_COUNT>
0

> <PUBCHEM_BOND_DEF_STEREO_COUNT>
0

> <PUBCHEM_BOND_UDEF_STEREO_COUNT>
0

> <PUBCHEM_ISOTOPIC_ATOM_COUNT>
0

> <PUBCHEM_COMPONENT_COUNT>
1

> <PUBCHEM_CACTVS_TAUTO_COUNT>
2

> <PUBCHEM_COORDINATE_TYPE>
1
5
255

> <PUBCHEM_BONDANNOTATIONS>
24  10  6
20  13  6
28  14  6
22  2  6
25  26  5
16  4  5
17  5  6
18  6  6
19  7  6
23  9  5

$$$$

