442899
  -OEChem-07051213002D

 31 34  0     0  0  0  0  0  0999 V2000
    2.5836    0.3820    0.0000 O   0  0  0  0  0  0  0  0  0  0  0  0
    2.5836   -1.2274    0.0000 O   0  0  0  0  0  0  0  0  0  0  0  0
    4.3958    1.5773    0.0000 O   0  0  0  0  0  0  0  0  0  0  0  0
    6.1443    1.6119    0.0000 O   0  0  0  0  0  0  0  0  0  0  0  0
    6.1558   -1.4574    0.0000 N   0  0  0  0  0  0  0  0  0  0  0  0
    5.2619    0.0773    0.0000 C   0  0  0  0  0  0  0  0  0  0  0  0
    5.2619   -0.9227    0.0000 C   0  0  0  0  0  0  0  0  0  0  0  0
    4.3958    0.5773    0.0000 C   0  0  0  0  0  0  0  0  0  0  0  0
    3.5298    0.0773    0.0000 C   0  0  0  0  0  0  0  0  0  0  0  0
    3.5298   -0.9227    0.0000 C   0  0  0  0  0  0  0  0  0  0  0  0
    7.0619    0.0981    0.0000 C   0  0  0  0  0  0  0  0  0  0  0  0
    7.0619   -0.9435    0.0000 C   0  0  0  0  0  0  0  0  0  0  0  0
    6.1558    0.6120    0.0000 C   0  0  0  0  0  0  0  0  0  0  0  0
    4.3958   -1.4227    0.0000 C   0  0  0  0  0  0  0  0  0  0  0  0
    2.0000   -0.4227    0.0000 C   0  0  0  0  0  0  0  0  0  0  0  0
    7.9930    0.6550    0.0000 C   0  0  0  0  0  0  0  0  0  0  0  0
    7.9930   -1.5004    0.0000 C   0  0  0  0  0  0  0  0  0  0  0  0
    8.9368    0.1198    0.0000 C   0  0  0  0  0  0  0  0  0  0  0  0
    8.9368   -0.9652    0.0000 C   0  0  0  0  0  0  0  0  0  0  0  0
    3.5298    2.0773    0.0000 C   0  0  0  0  0  0  0  0  0  0  0  0
    4.3958   -2.0427    0.0000 H   0  0  0  0  0  0  0  0  0  0  0  0
    6.1486   -2.0773    0.0000 H   0  0  0  0  0  0  0  0  0  0  0  0
    1.5391   -0.0080    0.0000 H   0  0  0  0  0  0  0  0  0  0  0  0
    1.5391   -0.8374    0.0000 H   0  0  0  0  0  0  0  0  0  0  0  0
    7.9859    1.2750    0.0000 H   0  0  0  0  0  0  0  0  0  0  0  0
    7.9859   -2.1204    0.0000 H   0  0  0  0  0  0  0  0  0  0  0  0
    9.4726    0.4319    0.0000 H   0  0  0  0  0  0  0  0  0  0  0  0
    9.4726   -1.2772    0.0000 H   0  0  0  0  0  0  0  0  0  0  0  0
    3.8398    2.6143    0.0000 H   0  0  0  0  0  0  0  0  0  0  0  0
    2.9929    2.3873    0.0000 H   0  0  0  0  0  0  0  0  0  0  0  0
    3.2198    1.5404    0.0000 H   0  0  0  0  0  0  0  0  0  0  0  0
  1  9  1  0  0  0  0
  1 15  1  0  0  0  0
  2 10  1  0  0  0  0
  2 15  1  0  0  0  0
  3  8  1  0  0  0  0
  3 20  1  0  0  0  0
  4 13  2  0  0  0  0
  5  7  1  0  0  0  0
  5 12  1  0  0  0  0
  5 22  1  0  0  0  0
  6  7  1  0  0  0  0
  6  8  2  0  0  0  0
  6 13  1  0  0  0  0
  7 14  2  0  0  0  0
  8  9  1  0  0  0  0
  9 10  2  0  0  0  0
 10 14  1  0  0  0  0
 11 12  1  0  0  0  0
 11 13  1  0  0  0  0
 11 16  2  0  0  0  0
 12 17  2  0  0  0  0
 14 21  1  0  0  0  0
 15 23  1  0  0  0  0
 15 24  1  0  0  0  0
 16 18  1  0  0  0  0
 16 25  1  0  0  0  0
 17 19  1  0  0  0  0
 17 26  1  0  0  0  0
 18 19  2  0  0  0  0
 18 27  1  0  0  0  0
 19 28  1  0  0  0  0
 20 29  1  0  0  0  0
 20 30  1  0  0  0  0
 20 31  1  0  0  0  0
M  END
> <PUBCHEM_COMPOUND_CID>
442899

> <PUBCHEM_COMPOUND_CANONICALIZED>
1

> <PUBCHEM_CACTVS_COMPLEXITY>
401

> <PUBCHEM_CACTVS_HBOND_ACCEPTOR>
5

> <PUBCHEM_CACTVS_HBOND_DONOR>
1

> <PUBCHEM_CACTVS_ROTATABLE_BOND>
1

> <PUBCHEM_CACTVS_SUBSKEYS>
AAADccByOAAAAAAAAAAAAAAAAAAAASAAAAA8YIAAAAAAAEixQAAAHgAQAAAADAyBmAMyzoLABACIAqRSQACCCAAlIgAIiAEG7MgdJ37EtZukMepn8B3O6ce6/P/OIEABCgAKQABAgAIUABSAAAAAAAAAAA==

> <PUBCHEM_IUPAC_OPENEYE_NAME>
11-methoxy-5H-[1,3]dioxolo[4,5-b]acridin-10-one

> <PUBCHEM_IUPAC_CAS_NAME>
11-methoxy-5H-[1,3]dioxolo[4,5-b]acridin-10-one

> <PUBCHEM_IUPAC_NAME>
11-methoxy-5H-[1,3]dioxolo[4,5-b]acridin-10-one

> <PUBCHEM_IUPAC_SYSTEMATIC_NAME>
11-methoxy-5H-[1,3]dioxolo[4,5-b]acridin-10-one

> <PUBCHEM_IUPAC_TRADITIONAL_NAME>
11-methoxy-5H-[1,3]dioxol[4,5-b]acridin-10-one

> <PUBCHEM_IUPAC_INCHI>
InChI=1S/C15H11NO4/c1-18-15-12-10(6-11-14(15)20-7-19-11)16-9-5-3-2-4-8(9)13(12)17/h2-6H,7H2,1H3,(H,16,17)

> <PUBCHEM_IUPAC_INCHIKEY>
HHCAZEOWGVDROC-UHFFFAOYSA-N

> <PUBCHEM_XLOGP3_AA>
2.8

> <PUBCHEM_EXACT_MASS>
269.068808

> <PUBCHEM_MOLECULAR_FORMULA>
C15H11NO4

> <PUBCHEM_MOLECULAR_WEIGHT>
269.25214

> <PUBCHEM_OPENEYE_CAN_SMILES>
COC1=C2C(=CC3=C1OCO3)NC4=CC=CC=C4C2=O

> <PUBCHEM_OPENEYE_ISO_SMILES>
COC1=C2C(=CC3=C1OCO3)NC4=CC=CC=C4C2=O

> <PUBCHEM_CACTVS_TPSA>
56.8

> <PUBCHEM_MONOISOTOPIC_WEIGHT>
269.068808

> <PUBCHEM_TOTAL_CHARGE>
0

> <PUBCHEM_HEAVY_ATOM_COUNT>
20

> <PUBCHEM_ATOM_DEF_STEREO_COUNT>
0

> <PUBCHEM_ATOM_UDEF_STEREO_COUNT>
0

> <PUBCHEM_BOND_DEF_STEREO_COUNT>
0

> <PUBCHEM_BOND_UDEF_STEREO_COUNT>
0

> <PUBCHEM_ISOTOPIC_ATOM_COUNT>
0

> <PUBCHEM_COMPONENT_COUNT>
1

> <PUBCHEM_CACTVS_TAUTO_COUNT>
2

> <PUBCHEM_COORDINATE_TYPE>
1
5
255

> <PUBCHEM_BONDANNOTATIONS>
10  14  8
11  12  8
11  13  8
11  16  8
12  17  8
16  18  8
17  19  8
18  19  8
5  12  8
5  7  8
6  13  8
6  7  8
6  8  8
7  14  8
8  9  8
9  10  8

$$$$

