   Color/Form
        Rectangular or six-sided rods from 60% alcohol. Dendritic needles
   from ether
   from [1]HSDB

   Melting Point
        297-298 deg C (slight decomposition)
   from [2]HSDB

   Dissociation Constants
        pKa1 = 7.63; pKa2 = 9.67; pKa3 = 10.80 (est)
   from [3]HSDB

   Octanol/Water Partition Coefficient
        log Kow = 2.84 (est)
   from [4]HSDB

   Solubilities
        Soluble in the usual organic solvents; soluble in dilute alkalies
   with yellow color. Practically insoluble in water.
   from [5]HSDB

   Spectral Properties
        UV max: 262.5 (epsilon 138)
   from [6]HSDB

   Vapor Pressure
        5.2X10-12 mm Hg at 25 deg C (est)
   from [7]HSDB

   Other Chemical/Physical Properties

     * Henry's Law constant = 5.1X10-17 atm-cu m/mole at 25 deg C (est)
     * Hydroxyl radical reaction rate constant = 2.3X10-10 cu
       cm/molecule-sec at 25 deg C (est)
     * Ozone radical reaction rate constant = 1.1X10-15 cu cm/molecule-sec
       at 25 deg C (est)

   from [8]HSDB

   Computed Properties
   Molecular Weight                  270.2369 [g/mol]
   Molecular Formula                 C[15]H[10]O[5]
   XLogP3-AA                         2.7
   H-Bond Donor                      3
   H-Bond Acceptor                   5
   Rotatable Bond Count              1
   Tautomer Count                    24
   Exact Mass                        270.052823
   MonoIsotopic Mass                 270.052823
   Topological Polar Surface Area    87
   Heavy Atom Count                  20
   Formal Charge                     0
   Complexity                        411
   Isotope Atom Count                0
   Defined Atom Stereocenter Count   0
   Undefined Atom Stereocenter Count 0
   Defined Bond Stereocenter Count   0
   Undefined Bond Stereocenter Count 0
   Covalently-Bonded Unit Count      1
   Feature 3D Acceptor Count         2
   Feature 3D Donor Count            3
   Feature 3D Ring Count             3
   Effective Rotor Count             1
   Conformer Sampling RMSD           0.6
   CID Conformer Count               [9]2

References

   1. http://toxnet.nlm.nih.gov/cgi-bin/sis/search/r?dbs+hsdb:@term+@rn+@rel+446-72-0
   2. http://toxnet.nlm.nih.gov/cgi-bin/sis/search/r?dbs+hsdb:@term+@rn+@rel+446-72-0
   3. http://toxnet.nlm.nih.gov/cgi-bin/sis/search/r?dbs+hsdb:@term+@rn+@rel+446-72-0
   4. http://toxnet.nlm.nih.gov/cgi-bin/sis/search/r?dbs+hsdb:@term+@rn+@rel+446-72-0
   5. http://toxnet.nlm.nih.gov/cgi-bin/sis/search/r?dbs+hsdb:@term+@rn+@rel+446-72-0
   6. http://toxnet.nlm.nih.gov/cgi-bin/sis/search/r?dbs+hsdb:@term+@rn+@rel+446-72-0
   7. http://toxnet.nlm.nih.gov/cgi-bin/sis/search/r?dbs+hsdb:@term+@rn+@rel+446-72-0
   8. http://toxnet.nlm.nih.gov/cgi-bin/sis/search/r?dbs+hsdb:@term+@rn+@rel+446-72-0
   9. http://pubchem.ncbi.nlm.nih.gov/vw3d/vw3d.cgi?cid=5280961
