11954147
  -OEChem-07051213072D

 66 69  0     1  0  0  0  0  0999 V2000
    8.6500    1.4952    0.0000 O   0  0  0  0  0  0  0  0  0  0  0  0
    9.9229   -0.2600    0.0000 O   0  0  0  0  0  0  0  0  0  0  0  0
    2.0000   -2.8124    0.0000 O   0  0  0  0  0  0  0  0  0  0  0  0
   10.2963    0.9572    0.0000 O   0  0  0  0  0  0  0  0  0  0  0  0
    9.9229   -1.9921    0.0000 O   0  0  0  0  0  0  0  0  0  0  0  0
    7.3931   -0.7600    0.0000 C   0  0  2  0  0  0  0  0  0  0  0  0
    7.3931    0.2400    0.0000 C   0  0  2  0  0  0  0  0  0  0  0  0
    6.5271   -1.2600    0.0000 C   0  0  1  0  0  0  0  0  0  0  0  0
    5.6610   -0.7600    0.0000 C   0  0  1  0  0  0  0  0  0  0  0  0
    4.7510   -1.2669    0.0000 C   0  0  2  0  0  0  0  0  0  0  0  0
    6.5271    0.7400    0.0000 C   0  0  0  0  0  0  0  0  0  0  0  0
    8.3393    0.5447    0.0000 C   0  0  2  0  0  0  0  0  0  0  0  0
    5.6610    0.2400    0.0000 C   0  0  0  0  0  0  0  0  0  0  0  0
    8.3393   -1.0648    0.0000 C   0  0  0  0  0  0  0  0  0  0  0  0
    8.9229   -0.2600    0.0000 C   0  0  1  0  0  0  0  0  0  0  0  0
    6.5431   -2.3015    0.0000 C   0  0  0  0  0  0  0  0  0  0  0  0
    4.7430   -2.3085    0.0000 C   0  0  0  0  0  0  0  0  0  0  0  0
    7.3931    1.2400    0.0000 C   0  0  0  0  0  0  0  0  0  0  0  0
    5.6451   -2.8293    0.0000 C   0  0  0  0  0  0  0  0  0  0  0  0
    3.8242   -0.7028    0.0000 C   0  0  0  0  0  0  0  0  0  0  0  0
    4.7587   -0.2669    0.0000 C   0  0  0  0  0  0  0  0  0  0  0  0
    2.8763   -1.2307    0.0000 C   0  0  0  0  0  0  0  0  0  0  0  0
    3.8076   -2.8582    0.0000 C   0  0  0  0  0  0  0  0  0  0  0  0
    2.8680   -2.3157    0.0000 C   0  0  0  0  0  0  0  0  0  0  0  0
    9.6285    1.7014    0.0000 C   0  0  0  0  0  0  0  0  0  0  0  0
   10.4229   -1.1260    0.0000 C   0  0  0  0  0  0  0  0  0  0  0  0
    9.9391    2.6520    0.0000 C   0  0  0  0  0  0  0  0  0  0  0  0
   11.4229   -1.1260    0.0000 C   0  0  0  0  0  0  0  0  0  0  0  0
   10.9176    2.8582    0.0000 C   0  0  0  0  0  0  0  0  0  0  0  0
   11.9229   -1.9921    0.0000 C   0  0  0  0  0  0  0  0  0  0  0  0
    7.4830   -1.6052    0.0000 H   0  0  0  0  0  0  0  0  0  0  0  0
    7.2664   -1.6793    0.0000 H   0  0  0  0  0  0  0  0  0  0  0  0
    6.3972   -0.3350    0.0000 H   0  0  0  0  0  0  0  0  0  0  0  0
    6.9256    1.2149    0.0000 H   0  0  0  0  0  0  0  0  0  0  0  0
    6.1285    1.2149    0.0000 H   0  0  0  0  0  0  0  0  0  0  0  0
    7.9018    0.9841    0.0000 H   0  0  0  0  0  0  0  0  0  0  0  0
    5.4490    0.8226    0.0000 H   0  0  0  0  0  0  0  0  0  0  0  0
    5.0504    0.1323    0.0000 H   0  0  0  0  0  0  0  0  0  0  0  0
    8.0883   -1.6317    0.0000 H   0  0  0  0  0  0  0  0  0  0  0  0
    8.8767   -1.3740    0.0000 H   0  0  0  0  0  0  0  0  0  0  0  0
    9.2046   -0.8123    0.0000 H   0  0  0  0  0  0  0  0  0  0  0  0
    6.7612   -2.8819    0.0000 H   0  0  0  0  0  0  0  0  0  0  0  0
    7.1523   -2.1860    0.0000 H   0  0  0  0  0  0  0  0  0  0  0  0
    8.0131    1.2400    0.0000 H   0  0  0  0  0  0  0  0  0  0  0  0
    7.3931    1.8600    0.0000 H   0  0  0  0  0  0  0  0  0  0  0  0
    6.7731    1.2400    0.0000 H   0  0  0  0  0  0  0  0  0  0  0  0
    5.2478   -3.3052    0.0000 H   0  0  0  0  0  0  0  0  0  0  0  0
    6.0460   -3.3022    0.0000 H   0  0  0  0  0  0  0  0  0  0  0  0
    4.2324   -0.2361    0.0000 H   0  0  0  0  0  0  0  0  0  0  0  0
    3.4343   -0.2207    0.0000 H   0  0  0  0  0  0  0  0  0  0  0  0
    5.3787   -0.2717    0.0000 H   0  0  0  0  0  0  0  0  0  0  0  0
    4.7635    0.3531    0.0000 H   0  0  0  0  0  0  0  0  0  0  0  0
    4.1388   -0.2621    0.0000 H   0  0  0  0  0  0  0  0  0  0  0  0
    2.6718   -0.6454    0.0000 H   0  0  0  0  0  0  0  0  0  0  0  0
    2.2647   -1.3321    0.0000 H   0  0  0  0  0  0  0  0  0  0  0  0
    3.8100   -3.4782    0.0000 H   0  0  0  0  0  0  0  0  0  0  0  0
    9.9186    3.2716    0.0000 H   0  0  0  0  0  0  0  0  0  0  0  0
    9.3253    2.7393    0.0000 H   0  0  0  0  0  0  0  0  0  0  0  0
   12.0055   -0.9140    0.0000 H   0  0  0  0  0  0  0  0  0  0  0  0
   11.3153   -0.5155    0.0000 H   0  0  0  0  0  0  0  0  0  0  0  0
   11.0455    2.2515    0.0000 H   0  0  0  0  0  0  0  0  0  0  0  0
   11.5243    2.9860    0.0000 H   0  0  0  0  0  0  0  0  0  0  0  0
   10.7898    3.4649    0.0000 H   0  0  0  0  0  0  0  0  0  0  0  0
   11.3860   -2.3021    0.0000 H   0  0  0  0  0  0  0  0  0  0  0  0
   12.2329   -2.5290    0.0000 H   0  0  0  0  0  0  0  0  0  0  0  0
   12.4598   -1.6821    0.0000 H   0  0  0  0  0  0  0  0  0  0  0  0
 12  1  1  1  0  0  0
  1 25  1  0  0  0  0
 15  2  1  6  0  0  0
  2 26  1  0  0  0  0
  3 24  2  0  0  0  0
  4 25  2  0  0  0  0
  5 26  2  0  0  0  0
  6  7  1  0  0  0  0
  6  8  1  0  0  0  0
  6 14  1  0  0  0  0
  6 31  1  6  0  0  0
  7 11  1  0  0  0  0
  7 12  1  0  0  0  0
  7 18  1  1  0  0  0
  8  9  1  0  0  0  0
  8 16  1  0  0  0  0
  8 32  1  1  0  0  0
  9 10  1  0  0  0  0
  9 13  1  0  0  0  0
  9 33  1  6  0  0  0
 10 17  1  0  0  0  0
 10 20  1  0  0  0  0
 10 21  1  1  0  0  0
 11 13  1  0  0  0  0
 11 34  1  0  0  0  0
 11 35  1  0  0  0  0
 12 15  1  0  0  0  0
 12 36  1  0  0  0  0
 13 37  1  0  0  0  0
 13 38  1  0  0  0  0
 14 15  1  0  0  0  0
 14 39  1  0  0  0  0
 14 40  1  0  0  0  0
 15 41  1  0  0  0  0
 16 19  1  0  0  0  0
 16 42  1  0  0  0  0
 16 43  1  0  0  0  0
 17 19  1  0  0  0  0
 17 23  2  0  0  0  0
 18 44  1  0  0  0  0
 18 45  1  0  0  0  0
 18 46  1  0  0  0  0
 19 47  1  0  0  0  0
 19 48  1  0  0  0  0
 20 22  1  0  0  0  0
 20 49  1  0  0  0  0
 20 50  1  0  0  0  0
 21 51  1  0  0  0  0
 21 52  1  0  0  0  0
 21 53  1  0  0  0  0
 22 24  1  0  0  0  0
 22 54  1  0  0  0  0
 22 55  1  0  0  0  0
 23 24  1  0  0  0  0
 23 56  1  0  0  0  0
 25 27  1  0  0  0  0
 26 28  1  0  0  0  0
 27 29  1  0  0  0  0
 27 57  1  0  0  0  0
 27 58  1  0  0  0  0
 28 30  1  0  0  0  0
 28 59  1  0  0  0  0
 28 60  1  0  0  0  0
 29 61  1  0  0  0  0
 29 62  1  0  0  0  0
 29 63  1  0  0  0  0
 30 64  1  0  0  0  0
 30 65  1  0  0  0  0
 30 66  1  0  0  0  0
M  END
> <PUBCHEM_COMPOUND_CID>
11954147

> <PUBCHEM_COMPOUND_CANONICALIZED>
1

> <PUBCHEM_CACTVS_COMPLEXITY>
770

> <PUBCHEM_CACTVS_HBOND_ACCEPTOR>
5

> <PUBCHEM_CACTVS_HBOND_DONOR>
0

> <PUBCHEM_CACTVS_ROTATABLE_BOND>
6

> <PUBCHEM_CACTVS_SUBSKEYS>
AAADcfB4OAAAAAAAAAAAAAAAAAAAAYAAAAAwYIAAAAAAAGDAAAAAGgAAAAAADxSggAICCAAABACIAqDSCAAAAAAgAAAACAEAAEgBABIAAQACAAAEgAAKAQOI6PiPgAAAAAAAAACAAAQAACAAAIAADCAAAA==

> <PUBCHEM_IUPAC_OPENEYE_NAME>
[(8R,9S,10R,13S,14S,16R,17R)-10,13-dimethyl-3-oxo-17-propanoyloxy-1,2,6,7,8,9,11,12,14,15,16,17-dodecahydrocyclopenta[a]phenanthren-16-yl] propanoate

> <PUBCHEM_IUPAC_CAS_NAME>
propanoic acid [(8R,9S,10R,13S,14S,16R,17R)-10,13-dimethyl-3-oxo-17-(1-oxopropoxy)-1,2,6,7,8,9,11,12,14,15,16,17-dodecahydrocyclopenta[a]phenanthren-16-yl] ester

> <PUBCHEM_IUPAC_NAME>
[(8R,9S,10R,13S,14S,16R,17R)-10,13-dimethyl-3-oxo-17-propanoyloxy-1,2,6,7,8,9,11,12,14,15,16,17-dodecahydrocyclopenta[a]phenanthren-16-yl] propanoate

> <PUBCHEM_IUPAC_SYSTEMATIC_NAME>
[(8R,9S,10R,13S,14S,16R,17R)-10,13-dimethyl-3-oxidanylidene-17-propanoyloxy-1,2,6,7,8,9,11,12,14,15,16,17-dodecahydrocyclopenta[a]phenanthren-16-yl] propanoate

> <PUBCHEM_IUPAC_TRADITIONAL_NAME>
propionic acid [(8R,9S,10R,13S,14S,16R,17R)-3-keto-10,13-dimethyl-17-propionyloxy-1,2,6,7,8,9,11,12,14,15,16,17-dodecahydrocyclopenta[a]phenanthren-16-yl] ester

> <PUBCHEM_IUPAC_INCHI>
InChI=1S/C25H36O5/c1-5-21(27)29-20-14-19-17-8-7-15-13-16(26)9-11-24(15,3)18(17)10-12-25(19,4)23(20)30-22(28)6-2/h13,17-20,23H,5-12,14H2,1-4H3/t17-,18+,19+,20-,23+,24+,25+/m1/s1

> <PUBCHEM_IUPAC_INCHIKEY>
CEJCQFWDKRWGSH-ZJASCOGOSA-N

> <PUBCHEM_XLOGP3>
4.4

> <PUBCHEM_EXACT_MASS>
416.256274

> <PUBCHEM_MOLECULAR_FORMULA>
C25H36O5

> <PUBCHEM_MOLECULAR_WEIGHT>
416.55034

> <PUBCHEM_OPENEYE_CAN_SMILES>
CCC(=O)OC1CC2C3CCC4=CC(=O)CCC4(C3CCC2(C1OC(=O)CC)C)C

> <PUBCHEM_OPENEYE_ISO_SMILES>
CCC(=O)O[C@@H]1C[C@H]2[C@@H]3CCC4=CC(=O)CC[C@@]4([C@H]3CC[C@@]2([C@H]1OC(=O)CC)C)C

> <PUBCHEM_CACTVS_TPSA>
69.7

> <PUBCHEM_MONOISOTOPIC_WEIGHT>
416.256274

> <PUBCHEM_TOTAL_CHARGE>
0

> <PUBCHEM_HEAVY_ATOM_COUNT>
30

> <PUBCHEM_ATOM_DEF_STEREO_COUNT>
7

> <PUBCHEM_ATOM_UDEF_STEREO_COUNT>
0

> <PUBCHEM_BOND_DEF_STEREO_COUNT>
0

> <PUBCHEM_BOND_UDEF_STEREO_COUNT>
0

> <PUBCHEM_ISOTOPIC_ATOM_COUNT>
0

> <PUBCHEM_COMPONENT_COUNT>
1

> <PUBCHEM_CACTVS_TAUTO_COUNT>
5

> <PUBCHEM_COORDINATE_TYPE>
1
5
255

> <PUBCHEM_BONDANNOTATIONS>
12  1  5
10  21  5
15  2  6
6  31  6
7  18  5
8  32  5
9  33  6

$$$$

