30928
  -OEChem-07051212542D

 62 62  0     1  0  0  0  0  0999 V2000
    3.5115    0.8660    0.0000 P   0  0  0  0  0  0  0  0  0  0  0  0
    6.1200    8.7550    0.0000 O   0  0  0  0  0  0  0  0  0  0  0  0
    4.3775    1.3660    0.0000 O   0  0  0  0  0  0  0  0  0  0  0  0
    2.6454    0.3660    0.0000 O   0  0  0  0  0  0  0  0  0  0  0  0
    3.0115    1.7320    0.0000 O   0  0  0  0  0  0  0  0  0  0  0  0
    4.0115    0.0000    0.0000 O   0  0  0  0  0  0  0  0  0  0  0  0
    2.1200    8.7550    0.0000 N   0  0  0  0  0  0  0  0  0  0  0  0
    5.4860    6.3890    0.0000 N   0  0  0  0  0  0  0  0  0  0  0  0
    6.4860    7.3890    0.0000 N   0  0  0  0  0  0  0  0  0  0  0  0
    4.6200    7.8890    0.0000 C   0  0  3  0  0  0  0  0  0  0  0  0
    3.6200    7.8890    0.0000 C   0  0  0  0  0  0  0  0  0  0  0  0
    3.1200    8.7550    0.0000 C   0  0  0  0  0  0  0  0  0  0  0  0
    1.6200    9.6210    0.0000 C   0  0  0  0  0  0  0  0  0  0  0  0
    1.6200    7.8890    0.0000 C   0  0  0  0  0  0  0  0  0  0  0  0
    4.6200    8.8890    0.0000 C   0  0  0  0  0  0  0  0  0  0  0  0
    4.6200    6.8890    0.0000 C   0  0  0  0  0  0  0  0  0  0  0  0
    5.6200    7.8890    0.0000 C   0  0  0  0  0  0  0  0  0  0  0  0
    0.6200    9.6210    0.0000 C   0  0  0  0  0  0  0  0  0  0  0  0
    2.1200   10.4871    0.0000 C   0  0  0  0  0  0  0  0  0  0  0  0
    0.6200    7.8890    0.0000 C   0  0  0  0  0  0  0  0  0  0  0  0
    2.1200    7.0230    0.0000 C   0  0  0  0  0  0  0  0  0  0  0  0
    5.4860    9.3890    0.0000 C   0  0  0  0  0  0  0  0  0  0  0  0
    3.7540    9.3890    0.0000 C   0  0  0  0  0  0  0  0  0  0  0  0
    3.7540    6.3890    0.0000 C   0  0  0  0  0  0  0  0  0  0  0  0
    5.4860   10.3890    0.0000 C   0  0  0  0  0  0  0  0  0  0  0  0
    3.7540   10.3890    0.0000 C   0  0  0  0  0  0  0  0  0  0  0  0
    3.7540    5.3890    0.0000 C   0  0  0  0  0  0  0  0  0  0  0  0
    4.6200   10.8890    0.0000 C   0  0  0  0  0  0  0  0  0  0  0  0
    5.4860    5.3890    0.0000 C   0  0  0  0  0  0  0  0  0  0  0  0
    4.6200    4.8890    0.0000 C   0  0  0  0  0  0  0  0  0  0  0  0
    3.0374    7.6769    0.0000 H   0  0  0  0  0  0  0  0  0  0  0  0
    3.7277    7.2784    0.0000 H   0  0  0  0  0  0  0  0  0  0  0  0
    3.7026    8.9671    0.0000 H   0  0  0  0  0  0  0  0  0  0  0  0
    3.0123    9.3656    0.0000 H   0  0  0  0  0  0  0  0  0  0  0  0
    1.3100    9.0841    0.0000 H   0  0  0  0  0  0  0  0  0  0  0  0
    1.3100    8.4259    0.0000 H   0  0  0  0  0  0  0  0  0  0  0  0
    1.5831    6.7130    0.0000 H   0  0  0  0  0  0  0  0  0  0  0  0
    2.4300    6.4860    0.0000 H   0  0  0  0  0  0  0  0  0  0  0  0
    2.6569    7.3330    0.0000 H   0  0  0  0  0  0  0  0  0  0  0  0
    0.6200    8.5090    0.0000 H   0  0  0  0  0  0  0  0  0  0  0  0
    0.0000    7.8890    0.0000 H   0  0  0  0  0  0  0  0  0  0  0  0
    0.6200    7.2690    0.0000 H   0  0  0  0  0  0  0  0  0  0  0  0
    2.6569   10.1771    0.0000 H   0  0  0  0  0  0  0  0  0  0  0  0
    2.4300   11.0240    0.0000 H   0  0  0  0  0  0  0  0  0  0  0  0
    1.5831   10.7971    0.0000 H   0  0  0  0  0  0  0  0  0  0  0  0
    0.6200   10.2410    0.0000 H   0  0  0  0  0  0  0  0  0  0  0  0
    0.0000    9.6210    0.0000 H   0  0  0  0  0  0  0  0  0  0  0  0
    0.6200    9.0010    0.0000 H   0  0  0  0  0  0  0  0  0  0  0  0
    6.0230    9.0790    0.0000 H   0  0  0  0  0  0  0  0  0  0  0  0
    3.2170    9.0790    0.0000 H   0  0  0  0  0  0  0  0  0  0  0  0
    3.2170    6.6990    0.0000 H   0  0  0  0  0  0  0  0  0  0  0  0
    7.0230    7.6990    0.0000 H   0  0  0  0  0  0  0  0  0  0  0  0
    6.4860    6.7690    0.0000 H   0  0  0  0  0  0  0  0  0  0  0  0
    6.0230   10.6990    0.0000 H   0  0  0  0  0  0  0  0  0  0  0  0
    3.2170   10.6990    0.0000 H   0  0  0  0  0  0  0  0  0  0  0  0
    3.2170    5.0790    0.0000 H   0  0  0  0  0  0  0  0  0  0  0  0
    4.6200   11.5090    0.0000 H   0  0  0  0  0  0  0  0  0  0  0  0
    6.0230    5.0790    0.0000 H   0  0  0  0  0  0  0  0  0  0  0  0
    4.6200    4.2690    0.0000 H   0  0  0  0  0  0  0  0  0  0  0  0
    4.9144    1.0560    0.0000 H   0  0  0  0  0  0  0  0  0  0  0  0
    2.1085    0.6760    0.0000 H   0  0  0  0  0  0  0  0  0  0  0  0
    3.3215    2.2690    0.0000 H   0  0  0  0  0  0  0  0  0  0  0  0
  1  3  1  0  0  0  0
  1  4  1  0  0  0  0
  1  5  1  0  0  0  0
  1  6  2  0  0  0  0
  2 17  2  0  0  0  0
  3 60  1  0  0  0  0
  4 61  1  0  0  0  0
  5 62  1  0  0  0  0
  7 12  1  0  0  0  0
  7 13  1  0  0  0  0
  7 14  1  0  0  0  0
  8 16  1  0  0  0  0
  8 29  2  0  0  0  0
  9 17  1  0  0  0  0
  9 52  1  0  0  0  0
  9 53  1  0  0  0  0
 10 11  1  0  0  0  0
 10 15  1  0  0  0  0
 10 16  1  0  0  0  0
 10 17  1  0  0  0  0
 11 12  1  0  0  0  0
 11 31  1  0  0  0  0
 11 32  1  0  0  0  0
 12 33  1  0  0  0  0
 12 34  1  0  0  0  0
 13 18  1  0  0  0  0
 13 19  1  0  0  0  0
 13 35  1  0  0  0  0
 14 20  1  0  0  0  0
 14 21  1  0  0  0  0
 14 36  1  0  0  0  0
 15 22  2  0  0  0  0
 15 23  1  0  0  0  0
 16 24  2  0  0  0  0
 18 46  1  0  0  0  0
 18 47  1  0  0  0  0
 18 48  1  0  0  0  0
 19 43  1  0  0  0  0
 19 44  1  0  0  0  0
 19 45  1  0  0  0  0
 20 40  1  0  0  0  0
 20 41  1  0  0  0  0
 20 42  1  0  0  0  0
 21 37  1  0  0  0  0
 21 38  1  0  0  0  0
 21 39  1  0  0  0  0
 22 25  1  0  0  0  0
 22 49  1  0  0  0  0
 23 26  2  0  0  0  0
 23 50  1  0  0  0  0
 24 27  1  0  0  0  0
 24 51  1  0  0  0  0
 25 28  2  0  0  0  0
 25 54  1  0  0  0  0
 26 28  1  0  0  0  0
 26 55  1  0  0  0  0
 27 30  2  0  0  0  0
 27 56  1  0  0  0  0
 28 57  1  0  0  0  0
 29 30  1  0  0  0  0
 29 58  1  0  0  0  0
 30 59  1  0  0  0  0
M  END
> <PUBCHEM_COMPOUND_CID>
30928

> <PUBCHEM_COMPOUND_CANONICALIZED>
1

> <PUBCHEM_CACTVS_COMPLEXITY>
459

> <PUBCHEM_CACTVS_HBOND_ACCEPTOR>
7

> <PUBCHEM_CACTVS_HBOND_DONOR>
4

> <PUBCHEM_CACTVS_ROTATABLE_BOND>
8

> <PUBCHEM_CACTVS_SUBSKEYS>
AAADcfB7OAIAAAAAAAAAAAAAAAAAAAAAAAA8QAAAAAAAAAABwAAAHgAQCCAADijBngQ+gJNIEBCoQzV3VICCgCAxAiAI2CE4ZJgIIPrA1ZGEIAhggADIyAcciMCPgAAAAAAAAAAAAAAAAAAAAAAAAAAAAA==

> <PUBCHEM_IUPAC_OPENEYE_NAME>
4-(diisopropylamino)-2-phenyl-2-(2-pyridyl)butanamide; phosphoric acid

> <PUBCHEM_IUPAC_CAS_NAME>
4-[di(propan-2-yl)amino]-2-phenyl-2-(2-pyridinyl)butanamide; phosphoric acid

> <PUBCHEM_IUPAC_NAME>
4-[di(propan-2-yl)amino]-2-phenyl-2-pyridin-2-ylbutanamide; phosphoric acid

> <PUBCHEM_IUPAC_SYSTEMATIC_NAME>
4-[di(propan-2-yl)amino]-2-phenyl-2-pyridin-2-yl-butanamide; phosphoric acid

> <PUBCHEM_IUPAC_TRADITIONAL_NAME>
4-(diisopropylamino)-2-phenyl-2-(2-pyridyl)butyramide; phosphoric acid

> <PUBCHEM_IUPAC_INCHI>
InChI=1S/C21H29N3O.H3O4P/c1-16(2)24(17(3)4)15-13-21(20(22)25,18-10-6-5-7-11-18)19-12-8-9-14-23-19;1-5(2,3)4/h5-12,14,16-17H,13,15H2,1-4H3,(H2,22,25);(H3,1,2,3,4)

> <PUBCHEM_IUPAC_INCHIKEY>
CGDDQFMPGMYYQP-UHFFFAOYSA-N

> <PUBCHEM_EXACT_MASS>
437.207958

> <PUBCHEM_MOLECULAR_FORMULA>
C21H32N3O5P

> <PUBCHEM_MOLECULAR_WEIGHT>
437.469642

> <PUBCHEM_OPENEYE_CAN_SMILES>
CC(C)N(CCC(C1=CC=CC=C1)(C2=CC=CC=N2)C(=O)N)C(C)C.OP(=O)(O)O

> <PUBCHEM_OPENEYE_ISO_SMILES>
CC(C)N(CCC(C1=CC=CC=C1)(C2=CC=CC=N2)C(=O)N)C(C)C.OP(=O)(O)O

> <PUBCHEM_CACTVS_TPSA>
137

> <PUBCHEM_MONOISOTOPIC_WEIGHT>
437.207958

> <PUBCHEM_TOTAL_CHARGE>
0

> <PUBCHEM_HEAVY_ATOM_COUNT>
30

> <PUBCHEM_ATOM_DEF_STEREO_COUNT>
0

> <PUBCHEM_ATOM_UDEF_STEREO_COUNT>
1

> <PUBCHEM_BOND_DEF_STEREO_COUNT>
0

> <PUBCHEM_BOND_UDEF_STEREO_COUNT>
0

> <PUBCHEM_ISOTOPIC_ATOM_COUNT>
0

> <PUBCHEM_COMPONENT_COUNT>
2

> <PUBCHEM_CACTVS_TAUTO_COUNT>
2

> <PUBCHEM_COORDINATE_TYPE>
1
5
255

> <PUBCHEM_BONDANNOTATIONS>
10  11  3
15  22  8
15  23  8
16  24  8
22  25  8
23  26  8
24  27  8
25  28  8
26  28  8
27  30  8
29  30  8
8  16  8
8  29  8

$$$$

