446357
  -OEChem-07051213082D

 18 19  0     0  0  0  0  0  0999 V2000
    4.2690   -1.4571    0.0000 O   0  0  0  0  0  0  0  0  0  0  0  0
    6.0812    1.3476    0.0000 N   0  0  0  0  0  0  0  0  0  0  0  0
    4.2690    1.5429    0.0000 N   0  0  0  0  0  0  0  0  0  0  0  0
    3.4030    0.0429    0.0000 N   0  0  0  0  0  0  0  0  0  0  0  0
    2.5369    1.5429    0.0000 N   0  0  0  0  0  0  0  0  0  0  0  0
    6.7026   -2.1629    0.0000 N   0  0  0  0  0  0  0  0  0  0  0  0
    5.1350    1.0429    0.0000 C   0  0  0  0  0  0  0  0  0  0  0  0
    5.1350    0.0429    0.0000 C   0  0  0  0  0  0  0  0  0  0  0  0
    6.0812   -0.2618    0.0000 C   0  0  0  0  0  0  0  0  0  0  0  0
    6.6648    0.5429    0.0000 C   0  0  0  0  0  0  0  0  0  0  0  0
    4.2690   -0.4571    0.0000 C   0  0  0  0  0  0  0  0  0  0  0  0
    3.4030    1.0429    0.0000 C   0  0  0  0  0  0  0  0  0  0  0  0
    6.3919   -1.2124    0.0000 C   0  0  0  0  0  0  0  0  0  0  0  0
    6.2738    1.9369    0.0000 H   0  0  0  0  0  0  0  0  0  0  0  0
    4.2690    2.1629    0.0000 H   0  0  0  0  0  0  0  0  0  0  0  0
    7.2848    0.5429    0.0000 H   0  0  0  0  0  0  0  0  0  0  0  0
    2.0000    1.2329    0.0000 H   0  0  0  0  0  0  0  0  0  0  0  0
    2.5369    2.1629    0.0000 H   0  0  0  0  0  0  0  0  0  0  0  0
  1 11  2  0  0  0  0
  2  7  1  0  0  0  0
  2 10  1  0  0  0  0
  2 14  1  0  0  0  0
  3  7  1  0  0  0  0
  3 12  1  0  0  0  0
  3 15  1  0  0  0  0
  4 11  1  0  0  0  0
  4 12  2  0  0  0  0
  5 12  1  0  0  0  0
  5 17  1  0  0  0  0
  5 18  1  0  0  0  0
  6 13  3  0  0  0  0
  7  8  2  0  0  0  0
  8  9  1  0  0  0  0
  8 11  1  0  0  0  0
  9 10  2  0  0  0  0
  9 13  1  0  0  0  0
 10 16  1  0  0  0  0
M  END
> <PUBCHEM_COMPOUND_CID>
446357

> <PUBCHEM_COMPOUND_CANONICALIZED>
1

> <PUBCHEM_CACTVS_COMPLEXITY>
327

> <PUBCHEM_CACTVS_HBOND_ACCEPTOR>
2

> <PUBCHEM_CACTVS_HBOND_DONOR>
3

> <PUBCHEM_CACTVS_ROTATABLE_BOND>
0

> <PUBCHEM_CACTVS_SUBSKEYS>
AAADcYBjoAAAAAAAAAAAAAAAAAAAAWAAAAAgAAAAAAAAAEABgAAAHgAQAAAADADBmgQtsJLJkAC4BhN3dACigCm1ACAB2aEoRNiIoFhAzIEEAYhIAALAQWgEAAAIgAAAAAAAAAAAAAAAAAAAAAAAAAAAAA==

> <PUBCHEM_IUPAC_OPENEYE_NAME>
2-amino-4-oxo-1,7-dihydropyrrolo[2,3-d]pyrimidine-5-carbonitrile

> <PUBCHEM_IUPAC_CAS_NAME>
2-amino-4-oxo-1,7-dihydropyrrolo[2,3-d]pyrimidine-5-carbonitrile

> <PUBCHEM_IUPAC_NAME>
2-amino-4-oxo-1,7-dihydropyrrolo[2,3-d]pyrimidine-5-carbonitrile

> <PUBCHEM_IUPAC_SYSTEMATIC_NAME>
2-azanyl-4-oxidanylidene-1,7-dihydropyrrolo[2,3-d]pyrimidine-5-carbonitrile

> <PUBCHEM_IUPAC_TRADITIONAL_NAME>
2-amino-4-keto-1,7-dihydropyrrolo[2,3-d]pyrimidine-5-carbonitrile

> <PUBCHEM_IUPAC_INCHI>
InChI=1S/C7H5N5O/c8-1-3-2-10-5-4(3)6(13)12-7(9)11-5/h2H,(H4,9,10,11,12,13)

> <PUBCHEM_IUPAC_INCHIKEY>
FMKSMYDYKXQYRV-UHFFFAOYSA-N

> <PUBCHEM_XLOGP3_AA>
-1

> <PUBCHEM_EXACT_MASS>
175.04941

> <PUBCHEM_MOLECULAR_FORMULA>
C7H5N5O

> <PUBCHEM_MOLECULAR_WEIGHT>
175.1475

> <PUBCHEM_OPENEYE_CAN_SMILES>
C1=C(C2=C(N1)NC(=NC2=O)N)C#N

> <PUBCHEM_OPENEYE_ISO_SMILES>
C1=C(C2=C(N1)NC(=NC2=O)N)C#N

> <PUBCHEM_CACTVS_TPSA>
107

> <PUBCHEM_MONOISOTOPIC_WEIGHT>
175.04941

> <PUBCHEM_TOTAL_CHARGE>
0

> <PUBCHEM_HEAVY_ATOM_COUNT>
13

> <PUBCHEM_ATOM_DEF_STEREO_COUNT>
0

> <PUBCHEM_ATOM_UDEF_STEREO_COUNT>
0

> <PUBCHEM_BOND_DEF_STEREO_COUNT>
0

> <PUBCHEM_BOND_UDEF_STEREO_COUNT>
0

> <PUBCHEM_ISOTOPIC_ATOM_COUNT>
0

> <PUBCHEM_COMPONENT_COUNT>
1

> <PUBCHEM_CACTVS_TAUTO_COUNT>
17

> <PUBCHEM_COORDINATE_TYPE>
1
5
255

> <PUBCHEM_BONDANNOTATIONS>
2  10  8
2  7  8
3  12  8
3  7  8
4  11  8
4  12  8
7  8  8
8  11  8
8  9  8
9  10  8

$$$$

