5281380
  -OEChem-07051212562D

 39 42  0     0  0  0  0  0  0999 V2000
    2.9789   -2.4641    0.0000 O   0  0  0  0  0  0  0  0  0  0  0  0
   11.8758    1.8723    0.0000 O   0  0  0  0  0  0  0  0  0  0  0  0
    5.8507    0.3964    0.0000 N   0  0  0  0  0  0  0  0  0  0  0  0
    8.3780   -0.7278    0.0000 N   0  0  0  0  0  0  0  0  0  0  0  0
    6.6597   -0.1913    0.0000 C   0  0  0  0  0  0  0  0  0  0  0  0
    6.3507   -1.1424    0.0000 C   0  0  0  0  0  0  0  0  0  0  0  0
    5.3507   -1.1424    0.0000 C   0  0  0  0  0  0  0  0  0  0  0  0
    5.0417   -0.1913    0.0000 C   0  0  0  0  0  0  0  0  0  0  0  0
    7.6751    0.0409    0.0000 C   0  0  0  0  0  0  0  0  0  0  0  0
    7.9731    0.9955    0.0000 C   0  0  0  0  0  0  0  0  0  0  0  0
    7.0356   -1.9271    0.0000 C   0  0  0  0  0  0  0  0  0  0  0  0
    4.6657   -1.9271    0.0000 C   0  0  0  0  0  0  0  0  0  0  0  0
    4.0263    0.0409    0.0000 C   0  0  0  0  0  0  0  0  0  0  0  0
    8.9488    1.2147    0.0000 C   0  0  0  0  0  0  0  0  0  0  0  0
    3.6452   -1.7184    0.0000 C   0  0  0  0  0  0  0  0  0  0  0  0
    8.0562   -1.7184    0.0000 C   0  0  0  0  0  0  0  0  0  0  0  0
    3.3233   -0.7278    0.0000 C   0  0  0  0  0  0  0  0  0  0  0  0
    9.6265    0.4793    0.0000 C   0  0  0  0  0  0  0  0  0  0  0  0
    9.2468    2.1692    0.0000 C   0  0  0  0  0  0  0  0  0  0  0  0
   10.6021    0.6985    0.0000 C   0  0  0  0  0  0  0  0  0  0  0  0
   10.2225    2.3885    0.0000 C   0  0  0  0  0  0  0  0  0  0  0  0
   10.9001    1.6531    0.0000 C   0  0  0  0  0  0  0  0  0  0  0  0
    2.0000   -2.2600    0.0000 C   0  0  0  0  0  0  0  0  0  0  0  0
    5.8507    1.0164    0.0000 H   0  0  0  0  0  0  0  0  0  0  0  0
    7.9443    1.6148    0.0000 H   0  0  0  0  0  0  0  0  0  0  0  0
    7.3582    1.0747    0.0000 H   0  0  0  0  0  0  0  0  0  0  0  0
    6.8372   -2.5145    0.0000 H   0  0  0  0  0  0  0  0  0  0  0  0
    4.8641   -2.5145    0.0000 H   0  0  0  0  0  0  0  0  0  0  0  0
    3.8415    0.6327    0.0000 H   0  0  0  0  0  0  0  0  0  0  0  0
    8.4692   -2.1808    0.0000 H   0  0  0  0  0  0  0  0  0  0  0  0
    2.7174   -0.5965    0.0000 H   0  0  0  0  0  0  0  0  0  0  0  0
    9.4417   -0.1125    0.0000 H   0  0  0  0  0  0  0  0  0  0  0  0
    8.8266    2.6252    0.0000 H   0  0  0  0  0  0  0  0  0  0  0  0
   11.0223    0.2426    0.0000 H   0  0  0  0  0  0  0  0  0  0  0  0
   10.4072    2.9803    0.0000 H   0  0  0  0  0  0  0  0  0  0  0  0
    2.1266   -1.6531    0.0000 H   0  0  0  0  0  0  0  0  0  0  0  0
    1.3931   -2.1334    0.0000 H   0  0  0  0  0  0  0  0  0  0  0  0
    1.8734   -2.8670    0.0000 H   0  0  0  0  0  0  0  0  0  0  0  0
   12.0606    2.4641    0.0000 H   0  0  0  0  0  0  0  0  0  0  0  0
  1 15  1  0  0  0  0
  1 23  1  0  0  0  0
  2 22  1  0  0  0  0
  2 39  1  0  0  0  0
  3  5  1  0  0  0  0
  3  8  1  0  0  0  0
  3 24  1  0  0  0  0
  4  9  2  0  0  0  0
  4 16  1  0  0  0  0
  5  6  2  0  0  0  0
  5  9  1  0  0  0  0
  6  7  1  0  0  0  0
  6 11  1  0  0  0  0
  7  8  2  0  0  0  0
  7 12  1  0  0  0  0
  8 13  1  0  0  0  0
  9 10  1  0  0  0  0
 10 14  1  0  0  0  0
 10 25  1  0  0  0  0
 10 26  1  0  0  0  0
 11 16  2  0  0  0  0
 11 27  1  0  0  0  0
 12 15  2  0  0  0  0
 12 28  1  0  0  0  0
 13 17  2  0  0  0  0
 13 29  1  0  0  0  0
 14 18  2  0  0  0  0
 14 19  1  0  0  0  0
 15 17  1  0  0  0  0
 16 30  1  0  0  0  0
 17 31  1  0  0  0  0
 18 20  1  0  0  0  0
 18 32  1  0  0  0  0
 19 21  2  0  0  0  0
 19 33  1  0  0  0  0
 20 22  2  0  0  0  0
 20 34  1  0  0  0  0
 21 22  1  0  0  0  0
 21 35  1  0  0  0  0
 23 36  1  0  0  0  0
 23 37  1  0  0  0  0
 23 38  1  0  0  0  0
M  END
> <PUBCHEM_COMPOUND_CID>
5281380

> <PUBCHEM_COMPOUND_CANONICALIZED>
1

> <PUBCHEM_CACTVS_COMPLEXITY>
397

> <PUBCHEM_CACTVS_HBOND_ACCEPTOR>
3

> <PUBCHEM_CACTVS_HBOND_DONOR>
2

> <PUBCHEM_CACTVS_ROTATABLE_BOND>
3

> <PUBCHEM_CACTVS_SUBSKEYS>
AAADceB7MAAAAAAAAAAAAAAAAAAAAWAAAAA8YIAAAAAAAFgB/gAAHgAQCAAADAzBngY+xvLJlgCgAzRnRACCiCQxMiAI2SA+fJgMZuLGsZuUcChk0BHI+Aew0PMOoEABAAACAABAgAIAAAQAAAAAAAAAAA==

> <PUBCHEM_IUPAC_OPENEYE_NAME>
4-[(6-methoxy-9H-pyrido[3,4-b]indol-1-yl)methyl]phenol

> <PUBCHEM_IUPAC_CAS_NAME>
4-[(6-methoxy-9H-pyrido[3,4-b]indol-1-yl)methyl]phenol

> <PUBCHEM_IUPAC_NAME>
4-[(6-methoxy-9H-pyrido[3,4-b]indol-1-yl)methyl]phenol

> <PUBCHEM_IUPAC_SYSTEMATIC_NAME>
4-[(6-methoxy-9H-pyrido[3,4-b]indol-1-yl)methyl]phenol

> <PUBCHEM_IUPAC_TRADITIONAL_NAME>
4-[(6-methoxy-9H-$b-carbolin-1-yl)methyl]phenol

> <PUBCHEM_IUPAC_INCHI>
InChI=1S/C19H16N2O2/c1-23-14-6-7-17-16(11-14)15-8-9-20-18(19(15)21-17)10-12-2-4-13(22)5-3-12/h2-9,11,21-22H,10H2,1H3

> <PUBCHEM_IUPAC_INCHIKEY>
BHOQLEQHXKFSAO-UHFFFAOYSA-N

> <PUBCHEM_XLOGP3_AA>
3.9

> <PUBCHEM_EXACT_MASS>
304.121178

> <PUBCHEM_MOLECULAR_FORMULA>
C19H16N2O2

> <PUBCHEM_MOLECULAR_WEIGHT>
304.34254

> <PUBCHEM_OPENEYE_CAN_SMILES>
COC1=CC2=C(C=C1)NC3=C2C=CN=C3CC4=CC=C(C=C4)O

> <PUBCHEM_OPENEYE_ISO_SMILES>
COC1=CC2=C(C=C1)NC3=C2C=CN=C3CC4=CC=C(C=C4)O

> <PUBCHEM_CACTVS_TPSA>
58.1

> <PUBCHEM_MONOISOTOPIC_WEIGHT>
304.121178

> <PUBCHEM_TOTAL_CHARGE>
0

> <PUBCHEM_HEAVY_ATOM_COUNT>
23

> <PUBCHEM_ATOM_DEF_STEREO_COUNT>
0

> <PUBCHEM_ATOM_UDEF_STEREO_COUNT>
0

> <PUBCHEM_BOND_DEF_STEREO_COUNT>
0

> <PUBCHEM_BOND_UDEF_STEREO_COUNT>
0

> <PUBCHEM_ISOTOPIC_ATOM_COUNT>
0

> <PUBCHEM_COMPONENT_COUNT>
1

> <PUBCHEM_CACTVS_TAUTO_COUNT>
6

> <PUBCHEM_COORDINATE_TYPE>
1
5
255

> <PUBCHEM_BONDANNOTATIONS>
11  16  8
12  15  8
13  17  8
14  18  8
14  19  8
15  17  8
18  20  8
19  21  8
20  22  8
21  22  8
3  5  8
3  8  8
4  16  8
4  9  8
5  6  8
5  9  8
6  11  8
6  7  8
7  12  8
7  8  8
8  13  8

$$$$

