   Color/Form

     * White crystalline powder
     * Small plates from benzene

   from [1]HSDB

   Odor
        Odorless
   from [2]HSDB

   Melting Point
        169-172 deg C
   from [3]HSDB

   Octanol/Water Partition Coefficient
        log Kow= 5.07
   from [4]HSDB

   Solubilities

     * Soluble in alcohol, ether, chloroform, fatty oils, dil hydroxides.
     * SOL @ 25 DEG C IN 95% ETHANOL (1 IN 5); SOL @ 25 DEG C IN
       CHLOROFORM (1 IN 200), ETHER (1 IN 3); SOL IN ACETONE, DIOXANE,
       ETHYL ACETATE, METHYL ALCOHOL, SOL IN VEGETABLE OILS & AQUEOUS SOLN
       OF ALKALI HYDROXIDES
     * In water, 12 mg/l @ 25 deg C

   from [5]HSDB

   Spectral Properties

     * INDEX OF REFRACTION: 1.594 (ALPHA), 1.611 (BETA), 1.73 (GAMMA)
     * MAX ABSORPTION (ACID): 232 NM (E= 530); (BASE): 245 NM (E= 510)
     * UV: 1-566 (Organic Electronic Spectral Data, Phillips et al, John
       Wiley & Sons, New York)
     * Intense mass spectral peaks: 107 m/z, 145 m/z, 159 m/z, 239 m/z,
       268 m/z
     * UV max (0.1 N NaOH): 259 nm; E(1%, 1 cm)= 764

   from [6]HSDB

   Other Chemical/Physical Properties
        CIS-ISOMER TENDS TO REVERT TO TRANS-FORM
   from [7]HSDB

   Computed Properties
   Molecular Weight                  268.3502 [g/mol]
   Molecular Formula                 C[18]H[20]O[2]
   XLogP3                            5.1
   H-Bond Donor                      2
   H-Bond Acceptor                   2
   Rotatable Bond Count              4
   Tautomer Count                    9
   Exact Mass                        268.14633
   MonoIsotopic Mass                 268.14633
   Topological Polar Surface Area    40.5
   Heavy Atom Count                  20
   Formal Charge                     0
   Complexity                        286
   Isotope Atom Count                0
   Defined Atom Stereocenter Count   0
   Undefined Atom Stereocenter Count 0
   Defined Bond Stereocenter Count   1
   Undefined Bond Stereocenter Count 0
   Covalently-Bonded Unit Count      1
   Feature 3D Donor Count            2
   Feature 3D Hydrophobe Count       2
   Feature 3D Ring Count             2
   Effective Rotor Count             4
   Conformer Sampling RMSD           0.6
   CID Conformer Count               [8]3

References

   1. http://toxnet.nlm.nih.gov/cgi-bin/sis/search/r?dbs+hsdb:@term+@rn+@rel+56-53-1
   2. http://toxnet.nlm.nih.gov/cgi-bin/sis/search/r?dbs+hsdb:@term+@rn+@rel+56-53-1
   3. http://toxnet.nlm.nih.gov/cgi-bin/sis/search/r?dbs+hsdb:@term+@rn+@rel+56-53-1
   4. http://toxnet.nlm.nih.gov/cgi-bin/sis/search/r?dbs+hsdb:@term+@rn+@rel+56-53-1
   5. http://toxnet.nlm.nih.gov/cgi-bin/sis/search/r?dbs+hsdb:@term+@rn+@rel+56-53-1
   6. http://toxnet.nlm.nih.gov/cgi-bin/sis/search/r?dbs+hsdb:@term+@rn+@rel+56-53-1
   7. http://toxnet.nlm.nih.gov/cgi-bin/sis/search/r?dbs+hsdb:@term+@rn+@rel+56-53-1
   8. http://pubchem.ncbi.nlm.nih.gov/vw3d/vw3d.cgi?cid=448537
