442675
  -OEChem-07051212592D

 53 57  0     1  0  0  0  0  0999 V2000
    5.9816   -0.5871    0.0000 O   0  0  0  0  0  0  0  0  0  0  0  0
    4.2377   -3.6632    0.0000 O   0  0  0  0  0  0  0  0  0  0  0  0
    8.6497   -0.0835    0.0000 O   0  0  0  0  0  0  0  0  0  0  0  0
    7.7298   -3.6286    0.0000 O   0  0  0  0  0  0  0  0  0  0  0  0
    2.4676   -3.6527    0.0000 O   0  0  0  0  0  0  0  0  0  0  0  0
    2.5405    1.4259    0.0000 O   0  0  0  0  0  0  0  0  0  0  0  0
    8.6002    2.9473    0.0000 O   0  0  0  0  0  0  0  0  0  0  0  0
    4.2840    2.4058    0.0000 O   0  0  0  0  0  0  0  0  0  0  0  0
    6.8643    3.9406    0.0000 O   0  0  0  0  0  0  0  0  0  0  0  0
    4.2377   -1.5939    0.0000 C   0  0  2  0  0  0  0  0  0  0  0  0
    7.7818   -0.5801    0.0000 C   0  0  1  0  0  0  0  0  0  0  0  0
    5.1317   -2.1286    0.0000 C   0  0  0  0  0  0  0  0  0  0  0  0
    6.8797   -0.0593    0.0000 C   0  0  1  0  0  0  0  0  0  0  0  0
    5.9977   -1.6286    0.0000 C   0  0  0  0  0  0  0  0  0  0  0  0
    7.7737   -1.6217    0.0000 C   0  0  0  0  0  0  0  0  0  0  0  0
    6.8637   -2.1286    0.0000 C   0  0  0  0  0  0  0  0  0  0  0  0
    3.3317   -2.1078    0.0000 C   0  0  0  0  0  0  0  0  0  0  0  0
    5.1317   -3.1286    0.0000 C   0  0  0  0  0  0  0  0  0  0  0  0
    6.8637   -3.1286    0.0000 C   0  0  0  0  0  0  0  0  0  0  0  0
    4.2493   -0.5940    0.0000 C   0  0  0  0  0  0  0  0  0  0  0  0
    6.8758    0.9407    0.0000 C   0  0  0  0  0  0  0  0  0  0  0  0
    5.9977   -3.6286    0.0000 C   0  0  0  0  0  0  0  0  0  0  0  0
    3.3317   -3.1494    0.0000 C   0  0  0  0  0  0  0  0  0  0  0  0
    3.3891   -0.0840    0.0000 C   0  0  0  0  0  0  0  0  0  0  0  0
    5.1210   -0.1040    0.0000 C   0  0  0  0  0  0  0  0  0  0  0  0
    7.7399    1.4440    0.0000 C   0  0  0  0  0  0  0  0  0  0  0  0
    6.0079    1.4373    0.0000 C   0  0  0  0  0  0  0  0  0  0  0  0
    3.4007    0.9159    0.0000 C   0  0  0  0  0  0  0  0  0  0  0  0
    7.7361    2.4440    0.0000 C   0  0  0  0  0  0  0  0  0  0  0  0
    5.1326    0.8959    0.0000 C   0  0  0  0  0  0  0  0  0  0  0  0
    6.0040    2.4373    0.0000 C   0  0  0  0  0  0  0  0  0  0  0  0
    4.2724    1.4059    0.0000 C   0  0  0  0  0  0  0  0  0  0  0  0
    6.8681    2.9407    0.0000 C   0  0  0  0  0  0  0  0  0  0  0  0
    3.7038   -1.2788    0.0000 H   0  0  0  0  0  0  0  0  0  0  0  0
    8.3169   -0.8932    0.0000 H   0  0  0  0  0  0  0  0  0  0  0  0
    6.3410    0.2476    0.0000 H   0  0  0  0  0  0  0  0  0  0  0  0
    7.9783   -2.2070    0.0000 H   0  0  0  0  0  0  0  0  0  0  0  0
    8.3854   -1.5204    0.0000 H   0  0  0  0  0  0  0  0  0  0  0  0
    3.1226   -1.5241    0.0000 H   0  0  0  0  0  0  0  0  0  0  0  0
    2.7208   -2.2139    0.0000 H   0  0  0  0  0  0  0  0  0  0  0  0
    5.9977   -4.2486    0.0000 H   0  0  0  0  0  0  0  0  0  0  0  0
    9.1854   -0.3955    0.0000 H   0  0  0  0  0  0  0  0  0  0  0  0
    2.8486   -0.3878    0.0000 H   0  0  0  0  0  0  0  0  0  0  0  0
    5.6544   -0.4202    0.0000 H   0  0  0  0  0  0  0  0  0  0  0  0
    8.2780    1.1361    0.0000 H   0  0  0  0  0  0  0  0  0  0  0  0
    5.4721    1.1253    0.0000 H   0  0  0  0  0  0  0  0  0  0  0  0
    7.7298   -4.2486    0.0000 H   0  0  0  0  0  0  0  0  0  0  0  0
    5.6731    1.1997    0.0000 H   0  0  0  0  0  0  0  0  0  0  0  0
    5.4659    2.7452    0.0000 H   0  0  0  0  0  0  0  0  0  0  0  0
    2.0000    1.1221    0.0000 H   0  0  0  0  0  0  0  0  0  0  0  0
    8.5978    3.5673    0.0000 H   0  0  0  0  0  0  0  0  0  0  0  0
    4.8245    2.7096    0.0000 H   0  0  0  0  0  0  0  0  0  0  0  0
    6.3261    4.2486    0.0000 H   0  0  0  0  0  0  0  0  0  0  0  0
  1 13  1  0  0  0  0
  1 14  1  0  0  0  0
  2 18  1  0  0  0  0
  2 23  1  0  0  0  0
 11  3  1  6  0  0  0
  3 42  1  0  0  0  0
  4 19  1  0  0  0  0
  4 47  1  0  0  0  0
  5 23  2  0  0  0  0
  6 28  1  0  0  0  0
  6 50  1  0  0  0  0
  7 29  1  0  0  0  0
  7 51  1  0  0  0  0
  8 32  1  0  0  0  0
  8 52  1  0  0  0  0
  9 33  1  0  0  0  0
  9 53  1  0  0  0  0
 10 12  1  0  0  0  0
 10 17  1  0  0  0  0
 10 20  1  6  0  0  0
 10 34  1  0  0  0  0
 11 13  1  0  0  0  0
 11 15  1  0  0  0  0
 11 35  1  0  0  0  0
 12 14  1  0  0  0  0
 12 18  2  0  0  0  0
 13 21  1  6  0  0  0
 13 36  1  0  0  0  0
 14 16  2  0  0  0  0
 15 16  1  0  0  0  0
 15 37  1  0  0  0  0
 15 38  1  0  0  0  0
 16 19  1  0  0  0  0
 17 23  1  0  0  0  0
 17 39  1  0  0  0  0
 17 40  1  0  0  0  0
 18 22  1  0  0  0  0
 19 22  2  0  0  0  0
 20 24  2  0  0  0  0
 20 25  1  0  0  0  0
 21 26  2  0  0  0  0
 21 27  1  0  0  0  0
 22 41  1  0  0  0  0
 24 28  1  0  0  0  0
 24 43  1  0  0  0  0
 25 30  2  0  0  0  0
 25 44  1  0  0  0  0
 26 29  1  0  0  0  0
 26 45  1  0  0  0  0
 27 31  2  0  0  0  0
 27 46  1  0  0  0  0
 28 32  2  0  0  0  0
 29 33  2  0  0  0  0
 30 32  1  0  0  0  0
 30 48  1  0  0  0  0
 31 33  1  0  0  0  0
 31 49  1  0  0  0  0
M  END
> <PUBCHEM_COMPOUND_CID>
442675

> <PUBCHEM_COMPOUND_CANONICALIZED>
1

> <PUBCHEM_CACTVS_COMPLEXITY>
718

> <PUBCHEM_CACTVS_HBOND_ACCEPTOR>
9

> <PUBCHEM_CACTVS_HBOND_DONOR>
6

> <PUBCHEM_CACTVS_ROTATABLE_BOND>
2

> <PUBCHEM_CACTVS_SUBSKEYS>
AAADceB4PAAAAAAAAAAAAAAAAAAAAAAAAAA0aMECAAAAAACRUAAAGgAACAAADRSgmAIwDoAABgCIAiDSCAACCAAgIAAIiAEGiIgNNzKGMRqCeiGlwBULuAfI7PzOoAADCAAIQABAAAYQABCAAAAAAAAAAA==

> <PUBCHEM_IUPAC_OPENEYE_NAME>
(2R,3R,10R)-2,10-bis(3,4-dihydroxyphenyl)-3,5-dihydroxy-3,4,9,10-tetrahydro-2H-pyrano[2,3-f]chromen-8-one

> <PUBCHEM_IUPAC_CAS_NAME>
(2R,3R,10R)-2,10-bis(3,4-dihydroxyphenyl)-3,5-dihydroxy-3,4,9,10-tetrahydro-2H-pyrano[2,3-f][1]benzopyran-8-one

> <PUBCHEM_IUPAC_NAME>
(2R,3R,10R)-2,10-bis(3,4-dihydroxyphenyl)-3,5-dihydroxy-3,4,9,10-tetrahydro-2H-pyrano[2,3-f]chromen-8-one

> <PUBCHEM_IUPAC_SYSTEMATIC_NAME>
(2R,3R,10R)-2,10-bis[3,4-bis(oxidanyl)phenyl]-3,5-bis(oxidanyl)-3,4,9,10-tetrahydro-2H-pyrano[2,3-f]chromen-8-one

> <PUBCHEM_IUPAC_TRADITIONAL_NAME>
(2R,3R,10R)-2,10-bis(3,4-dihydroxyphenyl)-3,5-dihydroxy-3,4,9,10-tetrahydro-2H-pyrano[2,3-f]chromen-8-one

> <PUBCHEM_IUPAC_INCHI>
InChI=1S/C24H20O9/c25-14-3-1-10(5-17(14)28)12-8-21(31)32-20-9-16(27)13-7-19(30)23(33-24(13)22(12)20)11-2-4-15(26)18(29)6-11/h1-6,9,12,19,23,25-30H,7-8H2/t12-,19-,23-/m1/s1

> <PUBCHEM_IUPAC_INCHIKEY>
LKCOZWLUAKSRQM-UMAWSMADSA-N

> <PUBCHEM_XLOGP3_AA>
2.2

> <PUBCHEM_EXACT_MASS>
452.110732

> <PUBCHEM_MOLECULAR_FORMULA>
C24H20O9

> <PUBCHEM_MOLECULAR_WEIGHT>
452.4102

> <PUBCHEM_OPENEYE_CAN_SMILES>
C1C(C(OC2=C3C(CC(=O)OC3=CC(=C21)O)C4=CC(=C(C=C4)O)O)C5=CC(=C(C=C5)O)O)O

> <PUBCHEM_OPENEYE_ISO_SMILES>
C1[C@H]([C@H](OC2=C3[C@H](CC(=O)OC3=CC(=C21)O)C4=CC(=C(C=C4)O)O)C5=CC(=C(C=C5)O)O)O

> <PUBCHEM_CACTVS_TPSA>
157

> <PUBCHEM_MONOISOTOPIC_WEIGHT>
452.110732

> <PUBCHEM_TOTAL_CHARGE>
0

> <PUBCHEM_HEAVY_ATOM_COUNT>
33

> <PUBCHEM_ATOM_DEF_STEREO_COUNT>
3

> <PUBCHEM_ATOM_UDEF_STEREO_COUNT>
0

> <PUBCHEM_BOND_DEF_STEREO_COUNT>
0

> <PUBCHEM_BOND_UDEF_STEREO_COUNT>
0

> <PUBCHEM_ISOTOPIC_ATOM_COUNT>
0

> <PUBCHEM_COMPONENT_COUNT>
1

> <PUBCHEM_CACTVS_TAUTO_COUNT>
994

> <PUBCHEM_COORDINATE_TYPE>
1
5
255

> <PUBCHEM_BONDANNOTATIONS>
10  20  6
12  14  8
12  18  8
13  21  6
14  16  8
16  19  8
18  22  8
19  22  8
20  24  8
20  25  8
21  26  8
21  27  8
24  28  8
25  30  8
26  29  8
27  31  8
28  32  8
29  33  8
11  3  6
30  32  8
31  33  8

$$$$

