   Boiling Point
        174 deg C; 76 deg C @ 30 mm Hg
   from [1]HSDB

   Density/Specific Gravity
        0.898 @ 20 deg C
   from [2]HSDB

   Octanol/Water Partition Coefficient
        log Kow = 1.37 /Estimated/
   from [3]HSDB

   Solubilities
        In water, 8.1X10+3 mg/L @ 25 deg C /Estimated/
   from [4]HSDB

   Spectral Properties

     * Index of refraction = 1.5384 @ 20 deg C/D
     * UV: 6-83 (Phillip et al., Organic Electronic Spectral Data. John
       Wiley & Sons, New York)
     * MASS: 53575 (NIST/EPA/MSDC Mass Spectral Database, 1990 version)

   from [5]HSDB

   Vapor Pressure
        4.8 mm Hg @ 25 deg C /Estimated/
   from [6]HSDB

   Other Chemical/Physical Properties

     * Henry's Law constant = 9.78X10-6 atm-cu m/mol @ 25 deg C
     * Hydroxyl radical reaction rate constant = 6.5X10-11 cu cm/molec-sec
       @ 25 deg C /Estimated/
     * Ozone reaction rate constant = 8.4X10-16 cu cm/molec-sec @ 25 deg C
       /Estimated/
     * Colorless to yellow liquid; pungent green or citrus odor
       /trans,trans-isomer + cis, trans-isomer-)

   from [7]HSDB

   Computed Properties
   Molecular Weight                  96.12712 [g/mol]
   Molecular Formula                 C[6]H[8]O
   XLogP3-AA                         1.2
   H-Bond Donor                      0
   H-Bond Acceptor                   1
   Rotatable Bond Count              2
   Tautomer Count                    4
   Exact Mass                        96.057515
   MonoIsotopic Mass                 96.057515
   Topological Polar Surface Area    17.1
   Heavy Atom Count                  7
   Formal Charge                     0
   Complexity                        90.4
   Isotope Atom Count                0
   Defined Atom Stereocenter Count   0
   Undefined Atom Stereocenter Count 0
   Defined Bond Stereocenter Count   2
   Undefined Bond Stereocenter Count 0
   Covalently-Bonded Unit Count      1
   Feature 3D Acceptor Count         1
   Feature 3D Hydrophobe Count       1
   Effective Rotor Count             2
   Conformer Sampling RMSD           0.4
   CID Conformer Count               [8]5

References

   1. http://toxnet.nlm.nih.gov/cgi-bin/sis/search/r?dbs+hsdb:@term+@rn+@rel+142-83-6
   2. http://toxnet.nlm.nih.gov/cgi-bin/sis/search/r?dbs+hsdb:@term+@rn+@rel+142-83-6
   3. http://toxnet.nlm.nih.gov/cgi-bin/sis/search/r?dbs+hsdb:@term+@rn+@rel+142-83-6
   4. http://toxnet.nlm.nih.gov/cgi-bin/sis/search/r?dbs+hsdb:@term+@rn+@rel+142-83-6
   5. http://toxnet.nlm.nih.gov/cgi-bin/sis/search/r?dbs+hsdb:@term+@rn+@rel+142-83-6
   6. http://toxnet.nlm.nih.gov/cgi-bin/sis/search/r?dbs+hsdb:@term+@rn+@rel+142-83-6
   7. http://toxnet.nlm.nih.gov/cgi-bin/sis/search/r?dbs+hsdb:@term+@rn+@rel+142-83-6
   8. http://pubchem.ncbi.nlm.nih.gov/vw3d/vw3d.cgi?cid=637564
