11954214
  -OEChem-07051213072D

 38 39  0     1  0  0  0  0  0999 V2000
    4.2690    1.5975    0.0000 O   0  0  0  0  0  0  0  0  0  0  0  0
    6.8834   -2.9371    0.0000 O   0  0  0  0  0  0  0  0  0  0  0  0
    2.5369   -1.4025    0.0000 O   0  0  0  0  0  0  0  0  0  0  0  0
    6.0010    1.5975    0.0000 O   0  0  0  0  0  0  0  0  0  0  0  0
    8.6651   -1.9266    0.0000 O   0  0  0  0  0  0  0  0  0  0  0  0
    3.4030   -2.9025    0.0000 O   0  0  0  0  0  0  0  0  0  0  0  0
    9.5215    2.6250    0.0000 O   0  0  0  0  0  0  0  0  0  0  0  0
   10.3933    1.1284    0.0000 O   0  0  0  0  0  0  0  0  0  0  0  0
    5.1350   -1.9025    0.0000 N   0  0  0  0  0  0  0  0  0  0  0  0
    7.7933    1.6183    0.0000 N   0  0  0  0  0  0  0  0  0  0  0  0
    5.1350    0.0975    0.0000 C   0  0  3  0  0  0  0  0  0  0  0  0
    4.2690   -0.4025    0.0000 C   0  0  0  0  0  0  0  0  0  0  0  0
    4.2690   -1.4025    0.0000 C   0  0  3  0  0  0  0  0  0  0  0  0
    6.0010   -0.4025    0.0000 C   0  0  0  0  0  0  0  0  0  0  0  0
    6.0010   -1.4025    0.0000 C   0  0  0  0  0  0  0  0  0  0  0  0
    6.8950    0.1322    0.0000 C   0  0  0  0  0  0  0  0  0  0  0  0
    7.8010   -0.3817    0.0000 C   0  0  0  0  0  0  0  0  0  0  0  0
    6.8950   -1.9371    0.0000 C   0  0  0  0  0  0  0  0  0  0  0  0
    5.1350    1.0975    0.0000 C   0  0  0  0  0  0  0  0  0  0  0  0
    8.6651    0.1217    0.0000 C   0  0  0  0  0  0  0  0  0  0  0  0
    7.8010   -1.4233    0.0000 C   0  0  0  0  0  0  0  0  0  0  0  0
    3.4030   -1.9025    0.0000 C   0  0  0  0  0  0  0  0  0  0  0  0
    8.6613    1.1217    0.0000 C   0  0  3  0  0  0  0  0  0  0  0  0
    9.5254    1.6250    0.0000 C   0  0  0  0  0  0  0  0  0  0  0  0
    5.8711    0.5225    0.0000 H   0  0  0  0  0  0  0  0  0  0  0  0
    4.0569    0.1801    0.0000 H   0  0  0  0  0  0  0  0  0  0  0  0
    3.6584   -0.5101    0.0000 H   0  0  0  0  0  0  0  0  0  0  0  0
    4.2690   -2.2525    0.0000 H   0  0  0  0  0  0  0  0  0  0  0  0
    5.1350   -2.5225    0.0000 H   0  0  0  0  0  0  0  0  0  0  0  0
    6.8878    0.7521    0.0000 H   0  0  0  0  0  0  0  0  0  0  0  0
    8.8794   -0.4601    0.0000 H   0  0  0  0  0  0  0  0  0  0  0  0
    9.2753    0.2317    0.0000 H   0  0  0  0  0  0  0  0  0  0  0  0
    8.6580    1.9717    0.0000 H   0  0  0  0  0  0  0  0  0  0  0  0
    4.2690    2.2175    0.0000 H   0  0  0  0  0  0  0  0  0  0  0  0
    7.7910    2.2383    0.0000 H   0  0  0  0  0  0  0  0  0  0  0  0
    7.2576    1.3063    0.0000 H   0  0  0  0  0  0  0  0  0  0  0  0
    2.0000   -1.7125    0.0000 H   0  0  0  0  0  0  0  0  0  0  0  0
   10.0573    2.9371    0.0000 H   0  0  0  0  0  0  0  0  0  0  0  0
  1 19  1  0  0  0  0
  1 34  1  0  0  0  0
  2 18  2  0  0  0  0
  3 22  1  0  0  0  0
  3 37  1  0  0  0  0
  4 19  2  0  0  0  0
  5 21  2  0  0  0  0
  6 22  2  0  0  0  0
  7 24  1  0  0  0  0
  7 38  1  0  0  0  0
  8 24  2  0  0  0  0
  9 13  1  0  0  0  0
  9 15  1  0  0  0  0
  9 29  1  0  0  0  0
 10 23  1  0  0  0  0
 10 35  1  0  0  0  0
 10 36  1  0  0  0  0
 11 12  1  0  0  0  0
 11 14  1  0  0  0  0
 11 19  1  0  0  0  0
 11 25  1  0  0  0  0
 12 13  1  0  0  0  0
 12 26  1  0  0  0  0
 12 27  1  0  0  0  0
 13 22  1  0  0  0  0
 13 28  1  0  0  0  0
 14 15  2  0  0  0  0
 14 16  1  0  0  0  0
 15 18  1  0  0  0  0
 16 17  2  0  0  0  0
 16 30  1  0  0  0  0
 17 20  1  0  0  0  0
 17 21  1  0  0  0  0
 18 21  1  0  0  0  0
 20 23  1  0  0  0  0
 20 31  1  0  0  0  0
 20 32  1  0  0  0  0
 23 24  1  0  0  0  0
 23 33  1  0  0  0  0
M  END
> <PUBCHEM_COMPOUND_CID>
11954214

> <PUBCHEM_COMPOUND_CANONICALIZED>
1

> <PUBCHEM_CACTVS_COMPLEXITY>
720

> <PUBCHEM_CACTVS_HBOND_ACCEPTOR>
10

> <PUBCHEM_CACTVS_HBOND_DONOR>
5

> <PUBCHEM_CACTVS_ROTATABLE_BOND>
5

> <PUBCHEM_CACTVS_SUBSKEYS>
AAADccBzPAAAAAAAAAAAAAAAAAAAAAAAAAAgQAAAAAAAAACAAAAAHgAQCAAADSzBgAQACALAAgCIAqTSSAAAAAAgAAAACIGIAEgKABoAgSAEQAAE0ACYgYO87yC+AAAAAAAAAAAAAAAAAAAAAAAAAAAAAA==

> <PUBCHEM_IUPAC_OPENEYE_NAME>
6-(2-amino-2-carboxy-ethyl)-7,8-dioxo-1,2,3,4-tetrahydroquinoline-2,4-dicarboxylic acid

> <PUBCHEM_IUPAC_CAS_NAME>
6-(2-amino-2-carboxyethyl)-7,8-dioxo-1,2,3,4-tetrahydroquinoline-2,4-dicarboxylic acid

> <PUBCHEM_IUPAC_NAME>
6-(2-amino-2-carboxyethyl)-7,8-dioxo-1,2,3,4-tetrahydroquinoline-2,4-dicarboxylic acid

> <PUBCHEM_IUPAC_SYSTEMATIC_NAME>
6-(2-azanyl-3-oxidanyl-3-oxidanylidene-propyl)-7,8-bis(oxidanylidene)-1,2,3,4-tetrahydroquinoline-2,4-dicarboxylic acid

> <PUBCHEM_IUPAC_TRADITIONAL_NAME>
6-(2-amino-2-carboxy-ethyl)-7,8-diketo-1,2,3,4-tetrahydroquinoline-2,4-dicarboxylic acid

> <PUBCHEM_IUPAC_INCHI>
InChI=1S/C14H14N2O8/c15-7(13(21)22)2-4-1-5-6(12(19)20)3-8(14(23)24)16-9(5)11(18)10(4)17/h1,6-8,16H,2-3,15H2,(H,19,20)(H,21,22)(H,23,24)

> <PUBCHEM_IUPAC_INCHIKEY>
UMYDVEVERVKIFT-UHFFFAOYSA-N

> <PUBCHEM_XLOGP3_AA>
-4

> <PUBCHEM_EXACT_MASS>
338.075015

> <PUBCHEM_MOLECULAR_FORMULA>
C14H14N2O8

> <PUBCHEM_MOLECULAR_WEIGHT>
338.26956

> <PUBCHEM_OPENEYE_CAN_SMILES>
C1C(C2=C(C(=O)C(=O)C(=C2)CC(C(=O)O)N)NC1C(=O)O)C(=O)O

> <PUBCHEM_OPENEYE_ISO_SMILES>
C1C(C2=C(C(=O)C(=O)C(=C2)CC(C(=O)O)N)NC1C(=O)O)C(=O)O

> <PUBCHEM_CACTVS_TPSA>
184

> <PUBCHEM_MONOISOTOPIC_WEIGHT>
338.075015

> <PUBCHEM_TOTAL_CHARGE>
0

> <PUBCHEM_HEAVY_ATOM_COUNT>
24

> <PUBCHEM_ATOM_DEF_STEREO_COUNT>
0

> <PUBCHEM_ATOM_UDEF_STEREO_COUNT>
3

> <PUBCHEM_BOND_DEF_STEREO_COUNT>
0

> <PUBCHEM_BOND_UDEF_STEREO_COUNT>
0

> <PUBCHEM_ISOTOPIC_ATOM_COUNT>
0

> <PUBCHEM_COMPONENT_COUNT>
1

> <PUBCHEM_CACTVS_TAUTO_COUNT>
63

> <PUBCHEM_COORDINATE_TYPE>
1
5
255

> <PUBCHEM_BONDANNOTATIONS>
11  25  3
13  28  3
23  33  3

$$$$

