441726
  -OEChem-07051212552D

 88 94  0     1  0  0  0  0  0999 V2000
    5.1598   -0.7929    0.0000 O   0  0  0  0  0  0  0  0  0  0  0  0
    6.6774   -1.9617    0.0000 O   0  0  0  0  0  0  0  0  0  0  0  0
    8.5000    1.8001    0.0000 O   0  0  0  0  0  0  0  0  0  0  0  0
    4.7836    1.5486    0.0000 O   0  0  0  0  0  0  0  0  0  0  0  0
    6.3748    3.1120    0.0000 O   0  0  0  0  0  0  0  0  0  0  0  0
    4.3824    2.2581    0.0000 O   0  0  0  0  0  0  0  0  0  0  0  0
    9.3661   -2.4350    0.0000 O   0  0  0  0  0  0  0  0  0  0  0  0
    3.4756   -0.3886    0.0000 O   0  0  0  0  0  0  0  0  0  0  0  0
    3.7866    0.1323    0.0000 O   0  0  0  0  0  0  0  0  0  0  0  0
    9.6954   -0.0289    0.0000 N   0  0  3  0  0  0  0  0  0  0  0  0
    7.7487    0.3663    0.0000 C   0  0  1  0  0  0  0  0  0  0  0  0
    7.7487   -0.5013    0.0000 C   0  0  2  0  0  0  0  0  0  0  0  0
    7.0704    0.9073    0.0000 C   0  0  1  0  0  0  0  0  0  0  0  0
    8.7507    0.2603    0.0000 C   0  0  3  0  0  0  0  0  0  0  0  0
    6.2246   -0.8491    0.0000 C   0  0  1  0  0  0  0  0  0  0  0  0
    6.2246    0.7142    0.0000 C   0  0  1  0  0  0  0  0  0  0  0  0
    5.8482   -0.0675    0.0000 C   0  0  1  0  0  0  0  0  0  0  0  0
    7.0704   -1.0422    0.0000 C   0  0  2  0  0  0  0  0  0  0  0  0
    8.5000   -0.9350    0.0000 C   0  0  2  0  0  0  0  0  0  0  0  0
    8.5000    0.8001    0.0000 C   0  0  2  0  0  0  0  0  0  0  0  0
    7.1482    1.7713    0.0000 C   0  0  0  0  0  0  0  0  0  0  0  0
    6.3504    2.1123    0.0000 C   0  0  2  0  0  0  0  0  0  0  0  0
    5.7796    1.4590    0.0000 C   0  0  2  0  0  0  0  0  0  0  0  0
    5.2032    0.2025    0.0000 C   0  0  0  0  0  0  0  0  0  0  0  0
    9.6954   -0.7808    0.0000 C   0  0  0  0  0  0  0  0  0  0  0  0
    9.2514   -0.5013    0.0000 C   0  0  0  0  0  0  0  0  0  0  0  0
    5.2032    1.6870    0.0000 C   0  0  2  0  0  0  0  0  0  0  0  0
    9.2514    0.3663    0.0000 C   0  0  0  0  0  0  0  0  0  0  0  0
    8.5000   -1.9350    0.0000 C   0  0  0  0  0  0  0  0  0  0  0  0
   10.4993    0.5658    0.0000 C   0  0  0  0  0  0  0  0  0  0  0  0
    4.2010   -1.0769    0.0000 C   0  0  0  0  0  0  0  0  0  0  0  0
    7.2772   -2.7618    0.0000 C   0  0  0  0  0  0  0  0  0  0  0  0
    9.3661    2.3001    0.0000 C   0  0  0  0  0  0  0  0  0  0  0  0
    3.8763    1.1282    0.0000 C   0  0  0  0  0  0  0  0  0  0  0  0
    4.4665    3.2545    0.0000 C   0  0  0  0  0  0  0  0  0  0  0  0
    3.9676   -2.0493    0.0000 C   0  0  0  0  0  0  0  0  0  0  0  0
    9.3661   -3.4350    0.0000 C   0  0  0  0  0  0  0  0  0  0  0  0
    3.0585    1.7039    0.0000 C   0  0  0  0  0  0  0  0  0  0  0  0
    2.1512    1.2835    0.0000 C   0  0  0  0  0  0  0  0  0  0  0  0
    3.1482    2.6998    0.0000 C   0  0  0  0  0  0  0  0  0  0  0  0
    1.3335    1.8591    0.0000 C   0  0  0  0  0  0  0  0  0  0  0  0
    2.3305    3.2755    0.0000 C   0  0  0  0  0  0  0  0  0  0  0  0
    1.4231    2.8551    0.0000 C   0  0  0  0  0  0  0  0  0  0  0  0
    7.8122   -1.3489    0.0000 H   0  0  0  0  0  0  0  0  0  0  0  0
    7.8520    1.2413    0.0000 H   0  0  0  0  0  0  0  0  0  0  0  0
    8.9206    1.0931    0.0000 H   0  0  0  0  0  0  0  0  0  0  0  0
    5.6946   -1.5137    0.0000 H   0  0  0  0  0  0  0  0  0  0  0  0
    5.3754    0.6761    0.0000 H   0  0  0  0  0  0  0  0  0  0  0  0
    7.2708   -1.6289    0.0000 H   0  0  0  0  0  0  0  0  0  0  0  0
    7.9631    1.1101    0.0000 H   0  0  0  0  0  0  0  0  0  0  0  0
    7.3309    2.3638    0.0000 H   0  0  0  0  0  0  0  0  0  0  0  0
    7.7565    1.6515    0.0000 H   0  0  0  0  0  0  0  0  0  0  0  0
    5.5488    2.0344    0.0000 H   0  0  0  0  0  0  0  0  0  0  0  0
    5.0413   -0.3960    0.0000 H   0  0  0  0  0  0  0  0  0  0  0  0
    4.5886    0.2841    0.0000 H   0  0  0  0  0  0  0  0  0  0  0  0
   10.3148   -0.7543    0.0000 H   0  0  0  0  0  0  0  0  0  0  0  0
    9.7483   -1.3985    0.0000 H   0  0  0  0  0  0  0  0  0  0  0  0
    9.8620   -0.3936    0.0000 H   0  0  0  0  0  0  0  0  0  0  0  0
    9.4634   -1.0839    0.0000 H   0  0  0  0  0  0  0  0  0  0  0  0
    5.2814    2.3020    0.0000 H   0  0  0  0  0  0  0  0  0  0  0  0
    9.4634    0.9489    0.0000 H   0  0  0  0  0  0  0  0  0  0  0  0
    9.8620    0.2587    0.0000 H   0  0  0  0  0  0  0  0  0  0  0  0
    8.2880   -2.5176    0.0000 H   0  0  0  0  0  0  0  0  0  0  0  0
    7.8895   -1.8274    0.0000 H   0  0  0  0  0  0  0  0  0  0  0  0
   10.1306    1.0642    0.0000 H   0  0  0  0  0  0  0  0  0  0  0  0
   10.9978    0.9345    0.0000 H   0  0  0  0  0  0  0  0  0  0  0  0
   10.8680    0.0673    0.0000 H   0  0  0  0  0  0  0  0  0  0  0  0
    5.8456    3.4350    0.0000 H   0  0  0  0  0  0  0  0  0  0  0  0
    7.7733   -2.3899    0.0000 H   0  0  0  0  0  0  0  0  0  0  0  0
    7.6491   -3.2579    0.0000 H   0  0  0  0  0  0  0  0  0  0  0  0
    6.7811   -3.1337    0.0000 H   0  0  0  0  0  0  0  0  0  0  0  0
    9.0561    2.8370    0.0000 H   0  0  0  0  0  0  0  0  0  0  0  0
    9.9030    2.6101    0.0000 H   0  0  0  0  0  0  0  0  0  0  0  0
    9.6761    1.7632    0.0000 H   0  0  0  0  0  0  0  0  0  0  0  0
    3.8487    3.3067    0.0000 H   0  0  0  0  0  0  0  0  0  0  0  0
    4.5187    3.8723    0.0000 H   0  0  0  0  0  0  0  0  0  0  0  0
    5.0843    3.2024    0.0000 H   0  0  0  0  0  0  0  0  0  0  0  0
    4.5705   -2.1940    0.0000 H   0  0  0  0  0  0  0  0  0  0  0  0
    3.8229   -2.6521    0.0000 H   0  0  0  0  0  0  0  0  0  0  0  0
    3.3647   -1.9046    0.0000 H   0  0  0  0  0  0  0  0  0  0  0  0
    9.9861   -3.4350    0.0000 H   0  0  0  0  0  0  0  0  0  0  0  0
    9.3661   -4.0550    0.0000 H   0  0  0  0  0  0  0  0  0  0  0  0
    8.7461   -3.4350    0.0000 H   0  0  0  0  0  0  0  0  0  0  0  0
    2.0956    0.6660    0.0000 H   0  0  0  0  0  0  0  0  0  0  0  0
    3.7107    2.9605    0.0000 H   0  0  0  0  0  0  0  0  0  0  0  0
    0.7709    1.5985    0.0000 H   0  0  0  0  0  0  0  0  0  0  0  0
    2.3860    3.8930    0.0000 H   0  0  0  0  0  0  0  0  0  0  0  0
    0.9161    3.2120    0.0000 H   0  0  0  0  0  0  0  0  0  0  0  0
 17  1  1  6  0  0  0
  1 31  1  0  0  0  0
 18  2  1  1  0  0  0
  2 32  1  0  0  0  0
 20  3  1  1  0  0  0
  3 33  1  0  0  0  0
 23  4  1  1  0  0  0
  4 34  1  0  0  0  0
 22  5  1  6  0  0  0
  5 68  1  0  0  0  0
 27  6  1  6  0  0  0
  6 35  1  0  0  0  0
  7 29  1  0  0  0  0
  7 37  1  0  0  0  0
  8 31  2  0  0  0  0
  9 34  2  0  0  0  0
 10 14  1  0  0  0  0
 10 25  1  0  0  0  0
 10 30  1  0  0  0  0
 11 12  1  0  0  0  0
 11 13  1  0  0  0  0
 11 14  1  0  0  0  0
 11 20  1  6  0  0  0
 12 18  1  0  0  0  0
 12 19  1  0  0  0  0
 12 44  1  6  0  0  0
 13 16  1  0  0  0  0
 13 21  1  0  0  0  0
 13 45  1  6  0  0  0
 14 15  1  0  0  0  0
 14 46  1  0  0  0  0
 15 17  1  0  0  0  0
 15 18  1  0  0  0  0
 15 47  1  1  0  0  0
 16 17  1  0  0  0  0
 16 23  1  0  0  0  0
 16 48  1  6  0  0  0
 17 24  1  0  0  0  0
 18 49  1  0  0  0  0
 19 25  1  0  0  0  0
 19 26  1  0  0  0  0
 19 29  1  6  0  0  0
 20 28  1  0  0  0  0
 20 50  1  0  0  0  0
 21 22  1  0  0  0  0
 21 51  1  0  0  0  0
 21 52  1  0  0  0  0
 22 23  1  0  0  0  0
 22 27  1  0  0  0  0
 23 53  1  0  0  0  0
 24 27  1  0  0  0  0
 24 54  1  0  0  0  0
 24 55  1  0  0  0  0
 25 56  1  0  0  0  0
 25 57  1  0  0  0  0
 26 28  1  0  0  0  0
 26 58  1  0  0  0  0
 26 59  1  0  0  0  0
 27 60  1  0  0  0  0
 28 61  1  0  0  0  0
 28 62  1  0  0  0  0
 29 63  1  0  0  0  0
 29 64  1  0  0  0  0
 30 65  1  0  0  0  0
 30 66  1  0  0  0  0
 30 67  1  0  0  0  0
 31 36  1  0  0  0  0
 32 69  1  0  0  0  0
 32 70  1  0  0  0  0
 32 71  1  0  0  0  0
 33 72  1  0  0  0  0
 33 73  1  0  0  0  0
 33 74  1  0  0  0  0
 34 38  1  0  0  0  0
 35 75  1  0  0  0  0
 35 76  1  0  0  0  0
 35 77  1  0  0  0  0
 36 78  1  0  0  0  0
 36 79  1  0  0  0  0
 36 80  1  0  0  0  0
 37 81  1  0  0  0  0
 37 82  1  0  0  0  0
 37 83  1  0  0  0  0
 38 39  2  0  0  0  0
 38 40  1  0  0  0  0
 39 41  1  0  0  0  0
 39 84  1  0  0  0  0
 40 42  2  0  0  0  0
 40 85  1  0  0  0  0
 41 43  2  0  0  0  0
 41 86  1  0  0  0  0
 42 43  1  0  0  0  0
 42 87  1  0  0  0  0
 43 88  1  0  0  0  0
M  END
> <PUBCHEM_COMPOUND_CID>
441726

> <PUBCHEM_COMPOUND_CANONICALIZED>
1

> <PUBCHEM_CACTVS_COMPLEXITY>
1130

> <PUBCHEM_CACTVS_HBOND_ACCEPTOR>
10

> <PUBCHEM_CACTVS_HBOND_DONOR>
1

> <PUBCHEM_CACTVS_ROTATABLE_BOND>
10

> <PUBCHEM_CACTVS_SUBSKEYS>
AAADcfB+PAAAAAAAAAAAAAAAAAAAAYMAAAA8YMGCB4gWAGABAAAAHgAACAAAD3zhmAYyCIMABgCIAiDSCAACAAAkAAAIiAEICMgJJjKAtRiGcQAnwAGLqYf4+P+PgAAAAAAAAADSAAaUADSAAaEADSAAAA==

> <PUBCHEM_IUPAC_INCHI>
InChI=1S/C33H45NO9/c1-18(35)43-32-15-22(40-5)31(37)14-20(23(32)28(31)42-29(36)19-10-8-7-9-11-19)33-21(39-4)12-13-30(17-38-3)16-34(2)27(33)24(32)25(41-6)26(30)33/h7-11,20-28,37H,12-17H2,1-6H3/t20-,21+,22+,23-,24+,25+,26-,27?,28-,30+,31+,32-,33+/m1/s1

> <PUBCHEM_IUPAC_INCHIKEY>
REVYTWNGZDPRKE-UWZYQZSNSA-N

> <PUBCHEM_XLOGP3_AA>
1.9

> <PUBCHEM_EXACT_MASS>
599.309432

> <PUBCHEM_MOLECULAR_FORMULA>
C33H45NO9

> <PUBCHEM_MOLECULAR_WEIGHT>
599.7117

> <PUBCHEM_OPENEYE_CAN_SMILES>
CC(=O)OC12CC(C3(CC(C1C3OC(=O)C4=CC=CC=C4)C56C(CCC7(C5C(C2C6N(C7)C)OC)COC)OC)O)OC

> <PUBCHEM_OPENEYE_ISO_SMILES>
CC(=O)O[C@]12C[C@@H]([C@]3(C[C@H]([C@@H]1[C@H]3OC(=O)C4=CC=CC=C4)[C@]56[C@H](CC[C@@]7([C@H]5[C@H]([C@H]2C6N(C7)C)OC)COC)OC)O)OC

> <PUBCHEM_CACTVS_TPSA>
113

> <PUBCHEM_MONOISOTOPIC_WEIGHT>
599.309432

> <PUBCHEM_TOTAL_CHARGE>
0

> <PUBCHEM_HEAVY_ATOM_COUNT>
43

> <PUBCHEM_ATOM_DEF_STEREO_COUNT>
12

> <PUBCHEM_ATOM_UDEF_STEREO_COUNT>
1

> <PUBCHEM_BOND_DEF_STEREO_COUNT>
0

> <PUBCHEM_BOND_UDEF_STEREO_COUNT>
0

> <PUBCHEM_ISOTOPIC_ATOM_COUNT>
0

> <PUBCHEM_COMPONENT_COUNT>
1

> <PUBCHEM_CACTVS_TAUTO_COUNT>
1

> <PUBCHEM_COORDINATE_TYPE>
1
5
255

> <PUBCHEM_BONDANNOTATIONS>
17  1  6
11  20  6
12  44  6
13  45  6
14  46  3
15  47  5
16  48  6
19  29  6
18  2  5
20  3  5
38  39  8
38  40  8
39  41  8
23  4  5
40  42  8
41  43  8
42  43  8
22  5  6
27  6  6

$$$$

