   Color/Form

     * Slightly yellow to brown crystalline mass.
     * Solidified oil
     * Brownish oil

   from [1]HSDB

   Boiling Point
        347 deg C
   from [2]HSDB

   Melting Point
        52.7 deg C
   from [3]HSDB

   Density/Specific Gravity
        1.348 g/ml at 26 deg C
   from [4]HSDB

   Dissociation Constants
        pKa = 6.53
   from [5]HSDB

   Octanol/Water Partition Coefficient
        log Kow = 3.82 (pH 9.2 buffer)
   from [6]HSDB

   Solubilities

     * In acetone, dichloromethane, ethanol, methanol, isopropanol,
       xylene, toluene, benzene > 500g/L at 20 deg C. In hexane 19 g/L at
       20 deg C. Also soluble in heptane and petroleum ether.
     * In water, 0.18 g/L at pH 7.6, 20 deg C

   from [7]HSDB

   Spectral Properties
        Index of refraction = 1.5643 at 20 deg C/D
   from [8]HSDB

   Vapor Pressure
        1.2X10-6 mm Hg at 20 deg C
   from [9]HSDB

   Other Chemical/Physical Properties

     * Very stable to hydrolysis in dilute acids and alkalis at room
       temperature, in the absence of light. Stable to temperatures up to
       285 deg C. Stable to light under normal storage conditions.
     * Henry's Law constant = 2.6X10-9 atm-cu m/mol at 25 deg C (est)
     * Hydroxyl radical reaction rate constant = 8.5X10-11 cu cm/molec-sec
       at 25 deg C (est)

   from [10]HSDB

   Computed Properties
   Molecular Weight                  297.17976 [g/mol]
   Molecular Formula                 C[14]H[14]Cl[2]N[2]O
   XLogP3                            3.8
   H-Bond Donor                      0
   H-Bond Acceptor                   2
   Rotatable Bond Count              6
   Exact Mass                        296.048318
   MonoIsotopic Mass                 296.048318
   Topological Polar Surface Area    27
   Heavy Atom Count                  19
   Formal Charge                     0
   Complexity                        291
   Isotope Atom Count                0
   Defined Atom Stereocenter Count   0
   Undefined Atom Stereocenter Count 1
   Defined Bond Stereocenter Count   0
   Undefined Bond Stereocenter Count 0
   Covalently-Bonded Unit Count      1
   Feature 3D Acceptor Count         1
   Feature 3D Cation Count           1
   Feature 3D Hydrophobe Count       1
   Feature 3D Ring Count             2
   Effective Rotor Count             6
   Conformer Sampling RMSD           0.8
   CID Conformer Count               [11]65

References

   1. http://toxnet.nlm.nih.gov/cgi-bin/sis/search/r?dbs+hsdb:@term+@rn+@rel+35554-44-0
   2. http://toxnet.nlm.nih.gov/cgi-bin/sis/search/r?dbs+hsdb:@term+@rn+@rel+35554-44-0
   3. http://toxnet.nlm.nih.gov/cgi-bin/sis/search/r?dbs+hsdb:@term+@rn+@rel+35554-44-0
   4. http://toxnet.nlm.nih.gov/cgi-bin/sis/search/r?dbs+hsdb:@term+@rn+@rel+35554-44-0
   5. http://toxnet.nlm.nih.gov/cgi-bin/sis/search/r?dbs+hsdb:@term+@rn+@rel+35554-44-0
   6. http://toxnet.nlm.nih.gov/cgi-bin/sis/search/r?dbs+hsdb:@term+@rn+@rel+35554-44-0
   7. http://toxnet.nlm.nih.gov/cgi-bin/sis/search/r?dbs+hsdb:@term+@rn+@rel+35554-44-0
   8. http://toxnet.nlm.nih.gov/cgi-bin/sis/search/r?dbs+hsdb:@term+@rn+@rel+35554-44-0
   9. http://toxnet.nlm.nih.gov/cgi-bin/sis/search/r?dbs+hsdb:@term+@rn+@rel+35554-44-0
  10. http://toxnet.nlm.nih.gov/cgi-bin/sis/search/r?dbs+hsdb:@term+@rn+@rel+35554-44-0
  11. http://pubchem.ncbi.nlm.nih.gov/vw3d/vw3d.cgi?cid=37175
