516893
  -OEChem-07051213122D

  6  4  0     0  0  0  0  0  0999 V2000
    5.1350    0.2500    0.0000 K   0  3  0  0  0  0  0  0  0  0  0  0
    4.2690    0.7500    0.0000 O   0  5  0  0  0  0  0  0  0  0  0  0
    2.5369    0.7500    0.0000 O   0  0  0  0  0  0  0  0  0  0  0  0
    3.4030   -0.7500    0.0000 O   0  0  0  0  0  0  0  0  0  0  0  0
    3.4030    0.2500    0.0000 C   0  0  0  0  0  0  0  0  0  0  0  0
    2.0000    0.4400    0.0000 H   0  0  0  0  0  0  0  0  0  0  0  0
  2  5  1  0  0  0  0
  3  5  1  0  0  0  0
  3  6  1  0  0  0  0
  4  5  2  0  0  0  0
M  CHG  2   1   1   2  -1
M  END
> <PUBCHEM_COMPOUND_CID>
516893

> <PUBCHEM_COMPOUND_CANONICALIZED>
1

> <PUBCHEM_CACTVS_COMPLEXITY>
33.9

> <PUBCHEM_CACTVS_HBOND_ACCEPTOR>
3

> <PUBCHEM_CACTVS_HBOND_DONOR>
1

> <PUBCHEM_CACTVS_ROTATABLE_BOND>
0

> <PUBCHEM_CACTVS_SUBSKEYS>
AAADcQAAMAAAQAAAAAAAAAAAAAAAAAAAAAAAAAAAAAAAAAAAAAAAAgAACAAAAAAAAAAACAAAAgAIAAAACAAAAAAAAAAAAAAAAAAAAAAAAAAAAAAAAAAAAAAAAAAAAAAAAAAAAAAAAAAAAAAAAAAAAAAAAA==

> <PUBCHEM_IUPAC_OPENEYE_NAME>
potassium hydrogen carbonate

> <PUBCHEM_IUPAC_CAS_NAME>
potassium hydrogen carbonate

> <PUBCHEM_IUPAC_NAME>
potassium hydrogen carbonate

> <PUBCHEM_IUPAC_SYSTEMATIC_NAME>
potassium hydrogen carbonate

> <PUBCHEM_IUPAC_TRADITIONAL_NAME>
potassium bicarbonate

> <PUBCHEM_IUPAC_INCHI>
InChI=1S/CH2O3.K/c2-1(3)4;/h(H2,2,3,4);/q;+1/p-1

> <PUBCHEM_IUPAC_INCHIKEY>
TYJJADVDDVDEDZ-UHFFFAOYSA-M

> <PUBCHEM_EXACT_MASS>
99.956276

> <PUBCHEM_MOLECULAR_FORMULA>
CHKO3

> <PUBCHEM_MOLECULAR_WEIGHT>
100.11514

> <PUBCHEM_OPENEYE_CAN_SMILES>
C(=O)(O)[O-].[K+]

> <PUBCHEM_OPENEYE_ISO_SMILES>
C(=O)(O)[O-].[K+]

> <PUBCHEM_CACTVS_TPSA>
60.4

> <PUBCHEM_MONOISOTOPIC_WEIGHT>
99.956276

> <PUBCHEM_TOTAL_CHARGE>
0

> <PUBCHEM_HEAVY_ATOM_COUNT>
5

> <PUBCHEM_ATOM_DEF_STEREO_COUNT>
0

> <PUBCHEM_ATOM_UDEF_STEREO_COUNT>
0

> <PUBCHEM_BOND_DEF_STEREO_COUNT>
0

> <PUBCHEM_BOND_UDEF_STEREO_COUNT>
0

> <PUBCHEM_ISOTOPIC_ATOM_COUNT>
0

> <PUBCHEM_COMPONENT_COUNT>
2

> <PUBCHEM_CACTVS_TAUTO_COUNT>
1

> <PUBCHEM_NONSTANDARDBOND>
1  2  7

> <PUBCHEM_COORDINATE_TYPE>
1
5
255

$$$$

