   Color/Form
        Crystals from ethanol
   from [1]HSDB

   Odor
        Odorless
   from [2]HSDB

   Melting Point
        266-267 deg C
   from [3]HSDB

   Dissociation Constants
        pKa = 8.9 (est)
   from [4]HSDB

   Octanol/Water Partition Coefficient
        log Kow = 0.11
   from [5]HSDB

   Solubilities

     * Freely sol in alcohol; very sol in chloroform
     * In water, 1,931 mg/L at 25 deg C

   from [6]HSDB

   Spectral Properties

     * Specific optical rotation: -194 deg at 25 deg C/D (concn = 0.98% in
       dioxane)
     * Intense mass spectral peaks: 228 m/z, 285 m/z

   from [7]HSDB

   Vapor Pressure
        1.9X10-9 mm Hg at 25 deg C (est)
   from [8]HSDB

   Other Chemical/Physical Properties

     * Decomp at 305-315 deg C (evacuated tube); specific optical
       rotation: -133 deg at 25 deg C/D /Hydromorphone hydrochloride/
     * Fine, white or practically white, crystalline powder; freely sol in
       water and sparingly sol in alcohol /Hydromorphone hydrochloride/
     * Hydromorphone is a hydrogenated ketone of morphine.
     * There was loss of clarity when iv soln(s) of hydromorphone
       hydrochloride were mixed with those of sodium bicarbonate or
       thiopentone sodium. /Hydromorphone hydrochloride/
     * Henry's Law constant: 1.1X10-14 atm-cu m/mole at 25 deg C (est)
     * Hydroxyl radical reaction rate constant = 2.0X10-10 cu
       cm/molecule-sec at 25 deg C (est)

   from [9]HSDB

   Computed Properties
   Molecular Weight                  285.33766 [g/mol]
   Molecular Formula                 C[17]H[19]NO[3]
   XLogP3-AA                         1.8
   H-Bond Donor                      1
   H-Bond Acceptor                   4
   Rotatable Bond Count              0
   Tautomer Count                    6
   Exact Mass                        285.136493
   MonoIsotopic Mass                 285.136493
   Topological Polar Surface Area    49.8
   Heavy Atom Count                  21
   Formal Charge                     0
   Complexity                        494
   Isotope Atom Count                0
   Defined Atom Stereocenter Count   4
   Undefined Atom Stereocenter Count 0
   Defined Bond Stereocenter Count   0
   Undefined Bond Stereocenter Count 0
   Covalently-Bonded Unit Count      1
   Feature 3D Acceptor Count         2
   Feature 3D Donor Count            1
   Feature 3D Cation Count           1
   Feature 3D Ring Count             5
   Effective Rotor Count             1.4
   Conformer Sampling RMSD           0.6
   CID Conformer Count               [10]1

References

   1. http://toxnet.nlm.nih.gov/cgi-bin/sis/search/r?dbs+hsdb:@term+@rn+@rel+466-99-9
   2. http://toxnet.nlm.nih.gov/cgi-bin/sis/search/r?dbs+hsdb:@term+@rn+@rel+466-99-9
   3. http://toxnet.nlm.nih.gov/cgi-bin/sis/search/r?dbs+hsdb:@term+@rn+@rel+466-99-9
   4. http://toxnet.nlm.nih.gov/cgi-bin/sis/search/r?dbs+hsdb:@term+@rn+@rel+466-99-9
   5. http://toxnet.nlm.nih.gov/cgi-bin/sis/search/r?dbs+hsdb:@term+@rn+@rel+466-99-9
   6. http://toxnet.nlm.nih.gov/cgi-bin/sis/search/r?dbs+hsdb:@term+@rn+@rel+466-99-9
   7. http://toxnet.nlm.nih.gov/cgi-bin/sis/search/r?dbs+hsdb:@term+@rn+@rel+466-99-9
   8. http://toxnet.nlm.nih.gov/cgi-bin/sis/search/r?dbs+hsdb:@term+@rn+@rel+466-99-9
   9. http://toxnet.nlm.nih.gov/cgi-bin/sis/search/r?dbs+hsdb:@term+@rn+@rel+466-99-9
  10. http://pubchem.ncbi.nlm.nih.gov/vw3d/vw3d.cgi?cid=5284570
