65280
  -OEChem-07051213032D

 33 34  0     0  0  0  0  0  0999 V2000
    3.7320    1.3988    0.0000 S   0  0  0  0  0  0  0  0  0  0  0  0
    4.7320    1.3988    0.0000 O   0  0  0  0  0  0  0  0  0  0  0  0
    2.7320    1.3988    0.0000 O   0  0  0  0  0  0  0  0  0  0  0  0
    5.6808    4.1012    0.0000 O   0  0  0  0  0  0  0  0  0  0  0  0
    2.0000   -2.6012    0.0000 O   0  0  0  0  0  0  0  0  0  0  0  0
    3.7320    2.3988    0.0000 N   0  0  0  0  0  0  0  0  0  0  0  0
    3.7320   -2.6012    0.0000 N   0  0  0  0  0  0  0  0  0  0  0  0
    4.7026    3.8933    0.0000 N   0  0  0  0  0  0  0  0  0  0  0  0
    3.7320    0.3988    0.0000 C   0  0  0  0  0  0  0  0  0  0  0  0
    2.8660   -0.1012    0.0000 C   0  0  0  0  0  0  0  0  0  0  0  0
    4.5981   -0.1012    0.0000 C   0  0  0  0  0  0  0  0  0  0  0  0
    3.7320   -1.6012    0.0000 C   0  0  0  0  0  0  0  0  0  0  0  0
    2.8660   -1.1012    0.0000 C   0  0  0  0  0  0  0  0  0  0  0  0
    4.5981   -1.1012    0.0000 C   0  0  0  0  0  0  0  0  0  0  0  0
    4.5981    2.8988    0.0000 C   0  0  0  0  0  0  0  0  0  0  0  0
    5.5116    2.4920    0.0000 C   0  0  0  0  0  0  0  0  0  0  0  0
    6.1808    3.2352    0.0000 C   0  0  0  0  0  0  0  0  0  0  0  0
    7.1753    3.1307    0.0000 C   0  0  0  0  0  0  0  0  0  0  0  0
    2.8660   -3.1012    0.0000 C   0  0  0  0  0  0  0  0  0  0  0  0
    2.8660   -4.1012    0.0000 C   0  0  0  0  0  0  0  0  0  0  0  0
    3.1951    2.7088    0.0000 H   0  0  0  0  0  0  0  0  0  0  0  0
    2.3291    0.2088    0.0000 H   0  0  0  0  0  0  0  0  0  0  0  0
    5.1350    0.2088    0.0000 H   0  0  0  0  0  0  0  0  0  0  0  0
    2.3291   -1.4112    0.0000 H   0  0  0  0  0  0  0  0  0  0  0  0
    5.1350   -1.4112    0.0000 H   0  0  0  0  0  0  0  0  0  0  0  0
    5.6405    1.8856    0.0000 H   0  0  0  0  0  0  0  0  0  0  0  0
    4.2690   -2.9112    0.0000 H   0  0  0  0  0  0  0  0  0  0  0  0
    7.1105    2.5141    0.0000 H   0  0  0  0  0  0  0  0  0  0  0  0
    7.7919    3.0659    0.0000 H   0  0  0  0  0  0  0  0  0  0  0  0
    7.2401    3.7473    0.0000 H   0  0  0  0  0  0  0  0  0  0  0  0
    2.2460   -4.1012    0.0000 H   0  0  0  0  0  0  0  0  0  0  0  0
    2.8660   -4.7212    0.0000 H   0  0  0  0  0  0  0  0  0  0  0  0
    3.4860   -4.1012    0.0000 H   0  0  0  0  0  0  0  0  0  0  0  0
  1  2  2  0  0  0  0
  1  3  2  0  0  0  0
  1  6  1  0  0  0  0
  1  9  1  0  0  0  0
  4  8  1  0  0  0  0
  4 17  1  0  0  0  0
  5 19  2  0  0  0  0
  6 15  1  0  0  0  0
  6 21  1  0  0  0  0
  7 12  1  0  0  0  0
  7 19  1  0  0  0  0
  7 27  1  0  0  0  0
  8 15  2  0  0  0  0
  9 10  2  0  0  0  0
  9 11  1  0  0  0  0
 10 13  1  0  0  0  0
 10 22  1  0  0  0  0
 11 14  2  0  0  0  0
 11 23  1  0  0  0  0
 12 13  2  0  0  0  0
 12 14  1  0  0  0  0
 13 24  1  0  0  0  0
 14 25  1  0  0  0  0
 15 16  1  0  0  0  0
 16 17  2  0  0  0  0
 16 26  1  0  0  0  0
 17 18  1  0  0  0  0
 18 28  1  0  0  0  0
 18 29  1  0  0  0  0
 18 30  1  0  0  0  0
 19 20  1  0  0  0  0
 20 31  1  0  0  0  0
 20 32  1  0  0  0  0
 20 33  1  0  0  0  0
M  END
> <PUBCHEM_COMPOUND_CID>
65280

> <PUBCHEM_COMPOUND_CANONICALIZED>
1

> <PUBCHEM_CACTVS_COMPLEXITY>
440

> <PUBCHEM_CACTVS_HBOND_ACCEPTOR>
6

> <PUBCHEM_CACTVS_HBOND_DONOR>
2

> <PUBCHEM_CACTVS_ROTATABLE_BOND>
4

> <PUBCHEM_CACTVS_SUBSKEYS>
AAADccBzOABAAAAAAAAAAAAAAAAAAWAAAAAwAAAAAAAAAAABwAAAHgQUQAAACAyB0gAz9ZLQAAKpAKdycnDCABAlIgAomDk2bNoIJCrAkZGEIIhilAjIyEcQAAAAAAQAAAAAAAAACAAAAAAAAAAAAAAAAA==

> <PUBCHEM_IUPAC_OPENEYE_NAME>
N-[4-[(5-methylisoxazol-3-yl)sulfamoyl]phenyl]acetamide

> <PUBCHEM_IUPAC_CAS_NAME>
N-[4-[(5-methyl-3-isoxazolyl)sulfamoyl]phenyl]acetamide

> <PUBCHEM_IUPAC_NAME>
N-[4-[(5-methyl-1,2-oxazol-3-yl)sulfamoyl]phenyl]acetamide

> <PUBCHEM_IUPAC_SYSTEMATIC_NAME>
N-[4-[(5-methyl-1,2-oxazol-3-yl)sulfamoyl]phenyl]ethanamide

> <PUBCHEM_IUPAC_TRADITIONAL_NAME>
N-[4-[(5-methylisoxazol-3-yl)sulfamoyl]phenyl]acetamide

> <PUBCHEM_IUPAC_INCHI>
InChI=1S/C12H13N3O4S/c1-8-7-12(14-19-8)15-20(17,18)11-5-3-10(4-6-11)13-9(2)16/h3-7H,1-2H3,(H,13,16)(H,14,15)

> <PUBCHEM_IUPAC_INCHIKEY>
GXPIUNZCALHVBA-UHFFFAOYSA-N

> <PUBCHEM_XLOGP3>
0.7

> <PUBCHEM_EXACT_MASS>
295.062677

> <PUBCHEM_MOLECULAR_FORMULA>
C12H13N3O4S

> <PUBCHEM_MOLECULAR_WEIGHT>
295.31432

> <PUBCHEM_OPENEYE_CAN_SMILES>
CC1=CC(=NO1)NS(=O)(=O)C2=CC=C(C=C2)NC(=O)C

> <PUBCHEM_OPENEYE_ISO_SMILES>
CC1=CC(=NO1)NS(=O)(=O)C2=CC=C(C=C2)NC(=O)C

> <PUBCHEM_CACTVS_TPSA>
110

> <PUBCHEM_MONOISOTOPIC_WEIGHT>
295.062677

> <PUBCHEM_TOTAL_CHARGE>
0

> <PUBCHEM_HEAVY_ATOM_COUNT>
20

> <PUBCHEM_ATOM_DEF_STEREO_COUNT>
0

> <PUBCHEM_ATOM_UDEF_STEREO_COUNT>
0

> <PUBCHEM_BOND_DEF_STEREO_COUNT>
0

> <PUBCHEM_BOND_UDEF_STEREO_COUNT>
0

> <PUBCHEM_ISOTOPIC_ATOM_COUNT>
0

> <PUBCHEM_COMPONENT_COUNT>
1

> <PUBCHEM_CACTVS_TAUTO_COUNT>
6

> <PUBCHEM_COORDINATE_TYPE>
1
5
255

> <PUBCHEM_BONDANNOTATIONS>
10  13  8
11  14  8
12  13  8
12  14  8
15  16  8
16  17  8
4  17  8
4  8  8
8  15  8
9  10  8
9  11  8

$$$$

