12157
  -OEChem-06261206362D

 18 17  0     0  0  0  0  0  0999 V2000
    4.4030    0.0000    0.0000 Br  0  0  0  0  0  0  0  0  0  0  0  0
    0.0000    2.3100    0.0000 Cl  0  0  0  0  0  0  0  0  0  0  0  0
    4.4030    4.0000    0.0000 N   0  0  0  0  0  0  0  0  0  0  0  0
    5.2690    4.5000    0.0000 N   0  0  0  0  0  0  0  0  0  0  0  0
    4.4030    3.0000    0.0000 C   0  0  0  0  0  0  0  0  0  0  0  0
    3.5369    2.5000    0.0000 C   0  0  0  0  0  0  0  0  0  0  0  0
    5.2690    2.5000    0.0000 C   0  0  0  0  0  0  0  0  0  0  0  0
    3.5369    1.5000    0.0000 C   0  0  0  0  0  0  0  0  0  0  0  0
    5.2690    1.5000    0.0000 C   0  0  0  0  0  0  0  0  0  0  0  0
    4.4030    1.0000    0.0000 C   0  0  0  0  0  0  0  0  0  0  0  0
    3.0000    2.8100    0.0000 H   0  0  0  0  0  0  0  0  0  0  0  0
    5.8059    2.8100    0.0000 H   0  0  0  0  0  0  0  0  0  0  0  0
    3.0000    1.1900    0.0000 H   0  0  0  0  0  0  0  0  0  0  0  0
    5.8059    1.1900    0.0000 H   0  0  0  0  0  0  0  0  0  0  0  0
    3.8660    4.3100    0.0000 H   0  0  0  0  0  0  0  0  0  0  0  0
    5.2690    5.1200    0.0000 H   0  0  0  0  0  0  0  0  0  0  0  0
    5.8059    4.1900    0.0000 H   0  0  0  0  0  0  0  0  0  0  0  0
    1.0000    2.3100    0.0000 H   0  0  0  0  0  0  0  0  0  0  0  0
  1 10  1  0  0  0  0
  2 18  1  0  0  0  0
  3  4  1  0  0  0  0
  3  5  1  0  0  0  0
  3 15  1  0  0  0  0
  4 16  1  0  0  0  0
  4 17  1  0  0  0  0
  5  6  2  0  0  0  0
  5  7  1  0  0  0  0
  6  8  1  0  0  0  0
  6 11  1  0  0  0  0
  7  9  2  0  0  0  0
  7 12  1  0  0  0  0
  8 10  2  0  0  0  0
  8 13  1  0  0  0  0
  9 10  1  0  0  0  0
  9 14  1  0  0  0  0
M  END
> <PUBCHEM_COMPOUND_CID>
12157

> <PUBCHEM_COMPOUND_CANONICALIZED>
1

> <PUBCHEM_CACTVS_COMPLEXITY>
79.1

> <PUBCHEM_CACTVS_HBOND_ACCEPTOR>
2

> <PUBCHEM_CACTVS_HBOND_DONOR>
3

> <PUBCHEM_CACTVS_ROTATABLE_BOND>
1

> <PUBCHEM_CACTVS_SUBSKEYS>
AAADccBjAAAEEAAAAAAAAAAAAAAAAAAAAAAwAAAAAAAAAAABAAAAHABYAAABqAiBEAAwwIBiAACAACRCQACCBAAgAgYYqAAAZKgIICKAkZGAIABgkAAIyhcQAAAAAAAgAAAAAAAAAEAAAAAAAAAAAAAAAA==

> <PUBCHEM_IUPAC_OPENEYE_NAME>
(4-bromophenyl)hydrazine hydrochloride

> <PUBCHEM_IUPAC_CAS_NAME>
(4-bromophenyl)hydrazine hydrochloride

> <PUBCHEM_IUPAC_NAME>
(4-bromophenyl)hydrazine hydrochloride

> <PUBCHEM_IUPAC_SYSTEMATIC_NAME>
(4-bromophenyl)diazane hydrochloride

> <PUBCHEM_IUPAC_TRADITIONAL_NAME>
(4-bromophenyl)hydrazine hydrochloride

> <PUBCHEM_IUPAC_INCHI>
InChI=1S/C6H7BrN2.ClH/c7-5-1-3-6(9-8)4-2-5;/h1-4,9H,8H2;1H

> <PUBCHEM_IUPAC_INCHIKEY>
RGGOWBBBHWTTRE-UHFFFAOYSA-N

> <PUBCHEM_EXACT_MASS>
221.955938

> <PUBCHEM_MOLECULAR_FORMULA>
C6H8BrClN2

> <PUBCHEM_MOLECULAR_WEIGHT>
223.49812

> <PUBCHEM_OPENEYE_CAN_SMILES>
C1=CC(=CC=C1NN)Br.Cl

> <PUBCHEM_OPENEYE_ISO_SMILES>
C1=CC(=CC=C1NN)Br.Cl

> <PUBCHEM_CACTVS_TPSA>
38

> <PUBCHEM_MONOISOTOPIC_WEIGHT>
221.955938

> <PUBCHEM_TOTAL_CHARGE>
0

> <PUBCHEM_HEAVY_ATOM_COUNT>
10

> <PUBCHEM_ATOM_DEF_STEREO_COUNT>
0

> <PUBCHEM_ATOM_UDEF_STEREO_COUNT>
0

> <PUBCHEM_BOND_DEF_STEREO_COUNT>
0

> <PUBCHEM_BOND_UDEF_STEREO_COUNT>
0

> <PUBCHEM_ISOTOPIC_ATOM_COUNT>
0

> <PUBCHEM_COMPONENT_COUNT>
2

> <PUBCHEM_CACTVS_TAUTO_COUNT>
1

> <PUBCHEM_COORDINATE_TYPE>
1
5
255

> <PUBCHEM_BONDANNOTATIONS>
5  6  8
5  7  8
6  8  8
7  9  8
8  10  8
9  10  8

$$$$

