   Color/Form
        SOLID
   from [1]HSDB

   Melting Point
        36.5 DEG C
   from [2]HSDB

   Solubilities

     * SOL IN CYCLOHEXANONE
     * SOL IN WATER, ACETONE, BENZENE, ETHANOL, CYCLOHEXANE, TOLUENE;
       SLIGHTLY SOL IN ETHER; SPARINGLY SOL IN HEXANE
     * Water solubility 650,000 mg/L at 25 deg

   from [3]HSDB

   Spectral Properties
        Intense mass spectral peaks: 92 m/z (100%), 140 m/z (61%), 196 m/z
   (51%), 60 m/z (49%)
   from [4]HSDB

   Other Chemical/Physical Properties
        BP: 115-118 DEG C @ 1X10-3 MM HG; COLORLESS TO YELLOW SOLID;
   SOLUBILITY: 650 G/L WATER; SOL IN ACETONE, BENZENE, CYCLOHEXANE,
   ETHANOL, TOLUENE; SLIGHTLY SOL IN ETHER; SPARINGLY SOL IN HEXANE
   /TECHNICAL/
   from [5]HSDB

   Computed Properties
   Molecular Weight                  255.294722 [g/mol]
   Molecular Formula                 C[7]H[14]NO[3]PS[2]
   XLogP3                            0.6
   H-Bond Donor                      0
   H-Bond Acceptor                   6
   Rotatable Bond Count              5
   Exact Mass                        255.015272
   MonoIsotopic Mass                 255.015272
   Topological Polar Surface Area    98.5
   Heavy Atom Count                  14
   Formal Charge                     0
   Complexity                        241
   Isotope Atom Count                0
   Defined Atom Stereocenter Count   0
   Undefined Atom Stereocenter Count 0
   Defined Bond Stereocenter Count   0
   Undefined Bond Stereocenter Count 0
   Covalently-Bonded Unit Count      1
   Feature 3D Acceptor Count         2
   Feature 3D Ring Count             1
   Effective Rotor Count             5.8
   Conformer Sampling RMSD           0.6
   CID Conformer Count               [6]83

References

   1. http://toxnet.nlm.nih.gov/cgi-bin/sis/search/r?dbs+hsdb:@term+@rn+@rel+947-02-4
   2. http://toxnet.nlm.nih.gov/cgi-bin/sis/search/r?dbs+hsdb:@term+@rn+@rel+947-02-4
   3. http://toxnet.nlm.nih.gov/cgi-bin/sis/search/r?dbs+hsdb:@term+@rn+@rel+947-02-4
   4. http://toxnet.nlm.nih.gov/cgi-bin/sis/search/r?dbs+hsdb:@term+@rn+@rel+947-02-4
   5. http://toxnet.nlm.nih.gov/cgi-bin/sis/search/r?dbs+hsdb:@term+@rn+@rel+947-02-4
   6. http://pubchem.ncbi.nlm.nih.gov/vw3d/vw3d.cgi?cid=13689
