   Color/Form
        White or grayish-white powder
   from [1]HSDB

   Taste
        SALTY TASTE
   from [2]HSDB

   Density/Specific Gravity
        1.87
   from [3]HSDB

   Solubilities
        Freely sol in water; slightly sol in alcohol
   from [4]HSDB

   Other Chemical/Physical Properties

     * Somewhat hygroscopic; absorbs CO2 from air
     * Arsenites are more soluble and more rapidly toxic than other forms
       of arsenic. /Arsenites/
     * ARSENITES OF ALKALI METALS ARE SLOWLY CONVERTED IN SOLN TO
       ARSENATES BY ATMOSPHERIC OXYGEN; & DECOMPOSED BY ATMOSPHERIC CARBON
       DIOXIDE

   from [5]HSDB

   Computed Properties
   Molecular Weight                  129.910169 [g/mol]
   Molecular Formula                 AsNaO[2]
   H-Bond Donor                      0
   H-Bond Acceptor                   2
   Rotatable Bond Count              0
   Exact Mass                        129.901195
   MonoIsotopic Mass                 129.901195
   Topological Polar Surface Area    40.1
   Heavy Atom Count                  4
   Formal Charge                     0
   Complexity                        13.5
   Isotope Atom Count                0
   Defined Atom Stereocenter Count   0
   Undefined Atom Stereocenter Count 0
   Defined Bond Stereocenter Count   0
   Undefined Bond Stereocenter Count 0
   Covalently-Bonded Unit Count      2

References

   1. http://toxnet.nlm.nih.gov/cgi-bin/sis/search/r?dbs+hsdb:@term+@rn+@rel+7784-46-5
   2. http://toxnet.nlm.nih.gov/cgi-bin/sis/search/r?dbs+hsdb:@term+@rn+@rel+7784-46-5
   3. http://toxnet.nlm.nih.gov/cgi-bin/sis/search/r?dbs+hsdb:@term+@rn+@rel+7784-46-5
   4. http://toxnet.nlm.nih.gov/cgi-bin/sis/search/r?dbs+hsdb:@term+@rn+@rel+7784-46-5
   5. http://toxnet.nlm.nih.gov/cgi-bin/sis/search/r?dbs+hsdb:@term+@rn+@rel+7784-46-5
