   Color/Form
        Liquid
   from [1]HSDB

   Odor
        Pleasant lemon-like odor
   from [2]HSDB

   Taste
        FRESH, CITRUS TASTE
   from [3]HSDB

   Boiling Point
        175.5-176 deg C at 763 mm Hg
   from [4]HSDB

   Melting Point
        -95.5 deg C
   from [5]HSDB

   Density/Specific Gravity
        0.8402 at 25 deg C/4 deg C
   from [6]HSDB

   Heat of Combustion
        19,250 Btu/lb = -10,840 cal/g = -454X10+5 J/kg
   from [7]HSDB

   Heat of Vaporization
        140 Btu/lb
   from [8]HSDB

   Octanol/Water Partition Coefficient
        log Kow = 4.57
   from [9]HSDB

   Solubilities

     * In water, 13.8 mg/L at 25 deg C
     * Miscible in ethanol and ether; soluble in carbon tetrachloride

   from [10]HSDB

   Spectral Properties

     * Index of refraction: 1.4743 at 21 deg C/D; specific optical
       rotation: +123.8 deg at 19.5 deg C/D
     * MAX ABSORPTION (ISOOCTANE): 220 NM (LOG E= 2.41), 250 NM (LOG E=
       1.36)
     * IR: 10018 (Sadtler Research Laboratories IR Grating Collection)
     * NMR: 2852 (Sadtler Research Laboratories Spectral Collection)
     * MASS: 704 (Atlas of Mass Spectral Data, John Wiley & Sons, New
       York)

   from [11]HSDB

   Surface Tension
        26 dynes/cm
   from [12]HSDB

   Vapor Density
        4.7 (Air = 1)
   from [13]HSDB

   Vapor Pressure
        1.98 mm Hg at 25 deg C
   from [14]HSDB

   Other Chemical/Physical Properties

     * Henry's Law constant= 0.026 atm-cu m/mole at 25 deg C
     * Hydroxyl radical reaction rate constant = 1.71X10-10 cu
       cm/molecule-sec at 25 deg C
     * Ozone reaction rate constant constant = 4.4X10-18 cu
       cm/molecule-sec at 25 deg C

   from [15]HSDB

   Computed Properties
   Molecular Weight                  136.23404 [g/mol]
   Molecular Formula                 C[10]H[16]
   XLogP3-AA                         3.4
   H-Bond Donor                      0
   H-Bond Acceptor                   0
   Rotatable Bond Count              1
   Exact Mass                        136.125201
   MonoIsotopic Mass                 136.125201
   Topological Polar Surface Area    0
   Heavy Atom Count                  10
   Formal Charge                     0
   Complexity                        163
   Isotope Atom Count                0
   Defined Atom Stereocenter Count   1
   Undefined Atom Stereocenter Count 0
   Defined Bond Stereocenter Count   0
   Undefined Bond Stereocenter Count 0
   Covalently-Bonded Unit Count      1
   Feature 3D Ring Count             1
   Effective Rotor Count             1.8
   Conformer Sampling RMSD           0.4
   CID Conformer Count               [16]6

References

   1. http://toxnet.nlm.nih.gov/cgi-bin/sis/search/r?dbs+hsdb:@term+@rn+@rel+5989-27-5
   2. http://toxnet.nlm.nih.gov/cgi-bin/sis/search/r?dbs+hsdb:@term+@rn+@rel+5989-27-5
   3. http://toxnet.nlm.nih.gov/cgi-bin/sis/search/r?dbs+hsdb:@term+@rn+@rel+5989-27-5
   4. http://toxnet.nlm.nih.gov/cgi-bin/sis/search/r?dbs+hsdb:@term+@rn+@rel+5989-27-5
   5. http://toxnet.nlm.nih.gov/cgi-bin/sis/search/r?dbs+hsdb:@term+@rn+@rel+5989-27-5
   6. http://toxnet.nlm.nih.gov/cgi-bin/sis/search/r?dbs+hsdb:@term+@rn+@rel+5989-27-5
   7. http://toxnet.nlm.nih.gov/cgi-bin/sis/search/r?dbs+hsdb:@term+@rn+@rel+5989-27-5
   8. http://toxnet.nlm.nih.gov/cgi-bin/sis/search/r?dbs+hsdb:@term+@rn+@rel+5989-27-5
   9. http://toxnet.nlm.nih.gov/cgi-bin/sis/search/r?dbs+hsdb:@term+@rn+@rel+5989-27-5
  10. http://toxnet.nlm.nih.gov/cgi-bin/sis/search/r?dbs+hsdb:@term+@rn+@rel+5989-27-5
  11. http://toxnet.nlm.nih.gov/cgi-bin/sis/search/r?dbs+hsdb:@term+@rn+@rel+5989-27-5
  12. http://toxnet.nlm.nih.gov/cgi-bin/sis/search/r?dbs+hsdb:@term+@rn+@rel+5989-27-5
  13. http://toxnet.nlm.nih.gov/cgi-bin/sis/search/r?dbs+hsdb:@term+@rn+@rel+5989-27-5
  14. http://toxnet.nlm.nih.gov/cgi-bin/sis/search/r?dbs+hsdb:@term+@rn+@rel+5989-27-5
  15. http://toxnet.nlm.nih.gov/cgi-bin/sis/search/r?dbs+hsdb:@term+@rn+@rel+5989-27-5
  16. http://pubchem.ncbi.nlm.nih.gov/vw3d/vw3d.cgi?cid=440917
