440770
  -OEChem-07051212502D

 17 16  0     1  0  0  0  0  0999 V2000
    5.1350    1.0000    0.0000 O   0  0  0  0  0  0  0  0  0  0  0  0
    4.2690    2.5000    0.0000 O   0  0  0  0  0  0  0  0  0  0  0  0
    2.5369    1.5000    0.0000 N   0  0  0  0  0  0  0  0  0  0  0  0
    2.5369   -2.5000    0.0000 N   0  0  0  0  0  0  0  0  0  0  0  0
    3.4030    1.0000    0.0000 C   0  0  3  0  0  0  0  0  0  0  0  0
    3.4030    0.0000    0.0000 C   0  0  0  0  0  0  0  0  0  0  0  0
    2.5369   -0.5000    0.0000 C   0  0  0  0  0  0  0  0  0  0  0  0
    4.2690    1.5000    0.0000 C   0  0  0  0  0  0  0  0  0  0  0  0
    2.5369   -1.5000    0.0000 C   0  0  0  0  0  0  0  0  0  0  0  0
    3.4030    1.6200    0.0000 H   0  0  0  0  0  0  0  0  0  0  0  0
    3.6150   -0.5826    0.0000 H   0  0  0  0  0  0  0  0  0  0  0  0
    4.0135    0.1077    0.0000 H   0  0  0  0  0  0  0  0  0  0  0  0
    2.3249    0.0826    0.0000 H   0  0  0  0  0  0  0  0  0  0  0  0
    1.9264   -0.6077    0.0000 H   0  0  0  0  0  0  0  0  0  0  0  0
    2.0000    1.1900    0.0000 H   0  0  0  0  0  0  0  0  0  0  0  0
    2.5369    2.1200    0.0000 H   0  0  0  0  0  0  0  0  0  0  0  0
    5.6720    1.3100    0.0000 H   0  0  0  0  0  0  0  0  0  0  0  0
  1  8  1  0  0  0  0
  1 17  1  0  0  0  0
  2  8  2  0  0  0  0
  3  5  1  0  0  0  0
  3 15  1  0  0  0  0
  3 16  1  0  0  0  0
  4  9  3  0  0  0  0
  5  6  1  0  0  0  0
  5  8  1  0  0  0  0
  5 10  1  0  0  0  0
  6  7  1  0  0  0  0
  6 11  1  0  0  0  0
  6 12  1  0  0  0  0
  7  9  1  0  0  0  0
  7 13  1  0  0  0  0
  7 14  1  0  0  0  0
M  END
> <PUBCHEM_COMPOUND_CID>
440770

> <PUBCHEM_COMPOUND_CANONICALIZED>
1

> <PUBCHEM_CACTVS_COMPLEXITY>
146

> <PUBCHEM_CACTVS_HBOND_ACCEPTOR>
4

> <PUBCHEM_CACTVS_HBOND_DONOR>
2

> <PUBCHEM_CACTVS_ROTATABLE_BOND>
3

> <PUBCHEM_CACTVS_SUBSKEYS>
AAADccBjMAAAAAAAAAAAAAAAAAAAAAAAAAAAAAAAAAAAAAAAAAAAHgAQCAAACCjBgAQACABAAgAYBACQCAAAAAAAAAAAAIGAAAACgBIAgAAAQAAEEAAAAAiIAAAAAAAAAAAAAAAAAAAAAAAAAAAAAAAAAA==

> <PUBCHEM_IUPAC_OPENEYE_NAME>
2-amino-4-cyano-butanoic acid

> <PUBCHEM_IUPAC_CAS_NAME>
2-amino-4-cyanobutanoic acid

> <PUBCHEM_IUPAC_NAME>
2-amino-4-cyanobutanoic acid

> <PUBCHEM_IUPAC_SYSTEMATIC_NAME>
2-azanyl-4-cyano-butanoic acid

> <PUBCHEM_IUPAC_TRADITIONAL_NAME>
2-amino-4-cyano-butyric acid

> <PUBCHEM_IUPAC_INCHI>
InChI=1S/C5H8N2O2/c6-3-1-2-4(7)5(8)9/h4H,1-2,7H2,(H,8,9)

> <PUBCHEM_IUPAC_INCHIKEY>
VZSTVUJXUYNIOQ-UHFFFAOYSA-N

> <PUBCHEM_XLOGP3>
-3.5

> <PUBCHEM_EXACT_MASS>
128.058578

> <PUBCHEM_MOLECULAR_FORMULA>
C5H8N2O2

> <PUBCHEM_MOLECULAR_WEIGHT>
128.12922

> <PUBCHEM_OPENEYE_CAN_SMILES>
C(CC(C(=O)O)N)C#N

> <PUBCHEM_OPENEYE_ISO_SMILES>
C(CC(C(=O)O)N)C#N

> <PUBCHEM_CACTVS_TPSA>
87.1

> <PUBCHEM_MONOISOTOPIC_WEIGHT>
128.058578

> <PUBCHEM_TOTAL_CHARGE>
0

> <PUBCHEM_HEAVY_ATOM_COUNT>
9

> <PUBCHEM_ATOM_DEF_STEREO_COUNT>
0

> <PUBCHEM_ATOM_UDEF_STEREO_COUNT>
1

> <PUBCHEM_BOND_DEF_STEREO_COUNT>
0

> <PUBCHEM_BOND_UDEF_STEREO_COUNT>
0

> <PUBCHEM_ISOTOPIC_ATOM_COUNT>
0

> <PUBCHEM_COMPONENT_COUNT>
1

> <PUBCHEM_CACTVS_TAUTO_COUNT>
1

> <PUBCHEM_COORDINATE_TYPE>
1
5
255

> <PUBCHEM_BONDANNOTATIONS>
5  3  3

$$$$

