9966640
  -OEChem-07051213062D

 56 55  0     1  0  0  0  0  0999 V2000
    7.1962   -0.0950    0.0000 O   0  0  0  0  0  0  0  0  0  0  0  0
    6.3301   -2.5950    0.0000 O   0  0  0  0  0  0  0  0  0  0  0  0
   14.9904   -1.5950    0.0000 O   0  0  0  0  0  0  0  0  0  0  0  0
   14.1244   -0.0950    0.0000 O   0  0  0  0  0  0  0  0  0  0  0  0
    8.0622   -1.5950    0.0000 C   0  0  0  0  0  0  0  0  0  0  0  0
    8.9282   -1.0950    0.0000 C   0  0  0  0  0  0  0  0  0  0  0  0
    7.1962   -1.0950    0.0000 C   0  0  3  0  0  0  0  0  0  0  0  0
    9.7942   -1.5950    0.0000 C   0  0  0  0  0  0  0  0  0  0  0  0
    6.3301   -1.5950    0.0000 C   0  0  3  0  0  0  0  0  0  0  0  0
   10.6603   -1.0950    0.0000 C   0  0  0  0  0  0  0  0  0  0  0  0
   11.5263   -1.5950    0.0000 C   0  0  0  0  0  0  0  0  0  0  0  0
    5.4641   -1.0950    0.0000 C   0  0  0  0  0  0  0  0  0  0  0  0
   12.3923   -1.0950    0.0000 C   0  0  0  0  0  0  0  0  0  0  0  0
    4.5981   -1.5950    0.0000 C   0  0  0  0  0  0  0  0  0  0  0  0
   13.2583   -1.5950    0.0000 C   0  0  0  0  0  0  0  0  0  0  0  0
    3.7320   -0.0950    0.0000 C   0  0  0  0  0  0  0  0  0  0  0  0
    2.8660    0.4050    0.0000 C   0  0  0  0  0  0  0  0  0  0  0  0
    3.7320   -1.0950    0.0000 C   0  0  0  0  0  0  0  0  0  0  0  0
    2.8660    1.4050    0.0000 C   0  0  0  0  0  0  0  0  0  0  0  0
    2.0000    1.9050    0.0000 C   0  0  0  0  0  0  0  0  0  0  0  0
   14.1244   -1.0950    0.0000 C   0  0  0  0  0  0  0  0  0  0  0  0
    2.0000    2.9050    0.0000 C   0  0  0  0  0  0  0  0  0  0  0  0
    7.6636   -2.0700    0.0000 H   0  0  0  0  0  0  0  0  0  0  0  0
    8.4607   -2.0700    0.0000 H   0  0  0  0  0  0  0  0  0  0  0  0
    9.3267   -0.6201    0.0000 H   0  0  0  0  0  0  0  0  0  0  0  0
    8.5297   -0.6201    0.0000 H   0  0  0  0  0  0  0  0  0  0  0  0
    6.4600   -0.6700    0.0000 H   0  0  0  0  0  0  0  0  0  0  0  0
    9.3957   -2.0700    0.0000 H   0  0  0  0  0  0  0  0  0  0  0  0
   10.1928   -2.0700    0.0000 H   0  0  0  0  0  0  0  0  0  0  0  0
    7.0662   -2.0200    0.0000 H   0  0  0  0  0  0  0  0  0  0  0  0
   11.0588   -0.6201    0.0000 H   0  0  0  0  0  0  0  0  0  0  0  0
   10.2617   -0.6201    0.0000 H   0  0  0  0  0  0  0  0  0  0  0  0
   11.1278   -2.0700    0.0000 H   0  0  0  0  0  0  0  0  0  0  0  0
   11.9248   -2.0700    0.0000 H   0  0  0  0  0  0  0  0  0  0  0  0
    5.8626   -0.6201    0.0000 H   0  0  0  0  0  0  0  0  0  0  0  0
    5.0656   -0.6201    0.0000 H   0  0  0  0  0  0  0  0  0  0  0  0
   12.7908   -0.6201    0.0000 H   0  0  0  0  0  0  0  0  0  0  0  0
   11.9938   -0.6201    0.0000 H   0  0  0  0  0  0  0  0  0  0  0  0
    4.5981   -2.2150    0.0000 H   0  0  0  0  0  0  0  0  0  0  0  0
    7.7331    0.2150    0.0000 H   0  0  0  0  0  0  0  0  0  0  0  0
   12.8598   -2.0700    0.0000 H   0  0  0  0  0  0  0  0  0  0  0  0
   13.6569   -2.0700    0.0000 H   0  0  0  0  0  0  0  0  0  0  0  0
    4.3426   -0.2027    0.0000 H   0  0  0  0  0  0  0  0  0  0  0  0
    3.9441    0.4876    0.0000 H   0  0  0  0  0  0  0  0  0  0  0  0
    2.2554    0.5127    0.0000 H   0  0  0  0  0  0  0  0  0  0  0  0
    2.6540   -0.1776    0.0000 H   0  0  0  0  0  0  0  0  0  0  0  0
    5.7932   -2.9050    0.0000 H   0  0  0  0  0  0  0  0  0  0  0  0
    3.1951   -1.4050    0.0000 H   0  0  0  0  0  0  0  0  0  0  0  0
    3.4766    1.2973    0.0000 H   0  0  0  0  0  0  0  0  0  0  0  0
    3.0781    1.9876    0.0000 H   0  0  0  0  0  0  0  0  0  0  0  0
    1.3894    2.0127    0.0000 H   0  0  0  0  0  0  0  0  0  0  0  0
    1.7880    1.3224    0.0000 H   0  0  0  0  0  0  0  0  0  0  0  0
    2.6200    2.9050    0.0000 H   0  0  0  0  0  0  0  0  0  0  0  0
    2.0000    3.5250    0.0000 H   0  0  0  0  0  0  0  0  0  0  0  0
    1.3800    2.9050    0.0000 H   0  0  0  0  0  0  0  0  0  0  0  0
   15.5273   -1.2850    0.0000 H   0  0  0  0  0  0  0  0  0  0  0  0
  1  7  1  0  0  0  0
  1 40  1  0  0  0  0
  2  9  1  0  0  0  0
  2 47  1  0  0  0  0
  3 21  1  0  0  0  0
  3 56  1  0  0  0  0
  4 21  2  0  0  0  0
  5  6  1  0  0  0  0
  5  7  1  0  0  0  0
  5 23  1  0  0  0  0
  5 24  1  0  0  0  0
  6  8  1  0  0  0  0
  6 25  1  0  0  0  0
  6 26  1  0  0  0  0
  7  9  1  0  0  0  0
  7 27  1  0  0  0  0
  8 10  1  0  0  0  0
  8 28  1  0  0  0  0
  8 29  1  0  0  0  0
  9 12  1  0  0  0  0
  9 30  1  0  0  0  0
 10 11  1  0  0  0  0
 10 31  1  0  0  0  0
 10 32  1  0  0  0  0
 11 13  1  0  0  0  0
 11 33  1  0  0  0  0
 11 34  1  0  0  0  0
 12 14  1  0  0  0  0
 12 35  1  0  0  0  0
 12 36  1  0  0  0  0
 13 15  1  0  0  0  0
 13 37  1  0  0  0  0
 13 38  1  0  0  0  0
 14 18  2  0  0  0  0
 14 39  1  0  0  0  0
 15 21  1  0  0  0  0
 15 41  1  0  0  0  0
 15 42  1  0  0  0  0
 16 17  1  0  0  0  0
 16 18  1  0  0  0  0
 16 43  1  0  0  0  0
 16 44  1  0  0  0  0
 17 19  1  0  0  0  0
 17 45  1  0  0  0  0
 17 46  1  0  0  0  0
 18 48  1  0  0  0  0
 19 20  1  0  0  0  0
 19 49  1  0  0  0  0
 19 50  1  0  0  0  0
 20 22  1  0  0  0  0
 20 51  1  0  0  0  0
 20 52  1  0  0  0  0
 22 53  1  0  0  0  0
 22 54  1  0  0  0  0
 22 55  1  0  0  0  0
M  END
> <PUBCHEM_COMPOUND_CID>
9966640

> <PUBCHEM_COMPOUND_CANONICALIZED>
1

> <PUBCHEM_CACTVS_COMPLEXITY>
289

> <PUBCHEM_CACTVS_HBOND_ACCEPTOR>
4

> <PUBCHEM_CACTVS_HBOND_DONOR>
3

> <PUBCHEM_CACTVS_ROTATABLE_BOND>
15

> <PUBCHEM_CACTVS_SUBSKEYS>
AAADcfB4OAAAAAAAAAAAAAAAAAAAAAAAAAAAAAAAAAAAAAAAAAAAGgAACAAACBSggAICCAAAAgCIACDSCAAAAAAgAAAICAEAAAgBEBIAAQAAQAAEwAAJAAOIyKCAAAAAAAAAAAAAAAAAAAAAAAAAAAAAAA==

> <PUBCHEM_IUPAC_OPENEYE_NAME>
(Z)-9,10-dihydroxyoctadec-12-enoic acid

> <PUBCHEM_IUPAC_CAS_NAME>
(Z)-9,10-dihydroxy-12-octadecenoic acid

> <PUBCHEM_IUPAC_NAME>
(Z)-9,10-dihydroxyoctadec-12-enoic acid

> <PUBCHEM_IUPAC_SYSTEMATIC_NAME>
(Z)-9,10-bis(oxidanyl)octadec-12-enoic acid

> <PUBCHEM_IUPAC_TRADITIONAL_NAME>
(Z)-9,10-dihydroxyoctadec-12-enoic acid

> <PUBCHEM_IUPAC_INCHI>
InChI=1S/C18H34O4/c1-2-3-4-5-7-10-13-16(19)17(20)14-11-8-6-9-12-15-18(21)22/h7,10,16-17,19-20H,2-6,8-9,11-15H2,1H3,(H,21,22)/b10-7-

> <PUBCHEM_IUPAC_INCHIKEY>
XEBKSQSGNGRGDW-YFHOEESVSA-N

> <PUBCHEM_XLOGP3_AA>
4.6

> <PUBCHEM_EXACT_MASS>
314.24571

> <PUBCHEM_MOLECULAR_FORMULA>
C18H34O4

> <PUBCHEM_MOLECULAR_WEIGHT>
314.46016

> <PUBCHEM_OPENEYE_CAN_SMILES>
CCCCCC=CCC(C(CCCCCCCC(=O)O)O)O

> <PUBCHEM_OPENEYE_ISO_SMILES>
CCCCC/C=C\CC(C(CCCCCCCC(=O)O)O)O

> <PUBCHEM_CACTVS_TPSA>
77.8

> <PUBCHEM_MONOISOTOPIC_WEIGHT>
314.24571

> <PUBCHEM_TOTAL_CHARGE>
0

> <PUBCHEM_HEAVY_ATOM_COUNT>
22

> <PUBCHEM_ATOM_DEF_STEREO_COUNT>
0

> <PUBCHEM_ATOM_UDEF_STEREO_COUNT>
2

> <PUBCHEM_BOND_DEF_STEREO_COUNT>
1

> <PUBCHEM_BOND_UDEF_STEREO_COUNT>
0

> <PUBCHEM_ISOTOPIC_ATOM_COUNT>
0

> <PUBCHEM_COMPONENT_COUNT>
1

> <PUBCHEM_CACTVS_TAUTO_COUNT>
1

> <PUBCHEM_COORDINATE_TYPE>
1
5
255

> <PUBCHEM_BONDANNOTATIONS>
7  27  3
9  30  3

$$$$

