   Color/Form
        Clear liquid
   from [1]HSDB

   Odor

     * Slight aromatic odor
     * Sweet and mildly garlic odor

   from [2]HSDB

   Boiling Point
        149-150 deg C at 30 mm Hg
   from [3]HSDB

   Corrosivity
        Non-corrosive
   from [4]HSDB

   Density/Specific Gravity
        0.952 at 20 deg C/20 deg C
   from [5]HSDB

   Octanol/Water Partition Coefficient
        log Kow = 3.84 at 20 deg C
   from [6]HSDB

   Solubilities

     * Miscible with common organic solvents, e.g. xylene, methyl isobutyl
       ketone, kerosene, acetone, ethanol
     * In water, 90 mg/L at 25 deg C

   from [7]HSDB

   Spectral Properties

     * Index of refraction = 1.4736 at 30 deg C/D
     * Intense mass spectral peaks: 43 m/z (100%), 86 m/z (56%), 128 m/z
       (48%), 41 m/z (44%)

   from [8]HSDB

   Vapor Pressure
        1.04X10-2 mm Hg at 25 deg C
   from [9]HSDB

   Other Chemical/Physical Properties

     * Clear yellow liquid /technical/
     * Henry's Law constant = 3.09X10-5 atm-cu m/mol at 25 deg C (est)
     * Hydroxyl radical reaction rate constant = 3.00X10-11 cu
       cm/molecule-sec at 25 deg C (est)
     * Decomposed by sunlight. Stable in neutral media, and relatively
       stable in acidic and alkaline media. Stable up to 200 deg C.

   from [10]HSDB

   Computed Properties
   Molecular Weight                  203.34484 [g/mol]
   Molecular Formula                 C[10]H[21]NOS
   XLogP3                            3.8
   H-Bond Donor                      0
   H-Bond Acceptor                   2
   Rotatable Bond Count              7
   Exact Mass                        203.134385
   MonoIsotopic Mass                 203.134385
   Topological Polar Surface Area    45.6
   Heavy Atom Count                  13
   Formal Charge                     0
   Complexity                        133
   Isotope Atom Count                0
   Defined Atom Stereocenter Count   0
   Undefined Atom Stereocenter Count 0
   Defined Bond Stereocenter Count   0
   Undefined Bond Stereocenter Count 0
   Covalently-Bonded Unit Count      1
   Feature 3D Hydrophobe Count       3
   Effective Rotor Count             8
   Conformer Sampling RMSD           0.8
   CID Conformer Count               [11]153

References

   1. http://toxnet.nlm.nih.gov/cgi-bin/sis/search/r?dbs+hsdb:@term+@rn+@rel+1929-77-7
   2. http://toxnet.nlm.nih.gov/cgi-bin/sis/search/r?dbs+hsdb:@term+@rn+@rel+1929-77-7
   3. http://toxnet.nlm.nih.gov/cgi-bin/sis/search/r?dbs+hsdb:@term+@rn+@rel+1929-77-7
   4. http://toxnet.nlm.nih.gov/cgi-bin/sis/search/r?dbs+hsdb:@term+@rn+@rel+1929-77-7
   5. http://toxnet.nlm.nih.gov/cgi-bin/sis/search/r?dbs+hsdb:@term+@rn+@rel+1929-77-7
   6. http://toxnet.nlm.nih.gov/cgi-bin/sis/search/r?dbs+hsdb:@term+@rn+@rel+1929-77-7
   7. http://toxnet.nlm.nih.gov/cgi-bin/sis/search/r?dbs+hsdb:@term+@rn+@rel+1929-77-7
   8. http://toxnet.nlm.nih.gov/cgi-bin/sis/search/r?dbs+hsdb:@term+@rn+@rel+1929-77-7
   9. http://toxnet.nlm.nih.gov/cgi-bin/sis/search/r?dbs+hsdb:@term+@rn+@rel+1929-77-7
  10. http://toxnet.nlm.nih.gov/cgi-bin/sis/search/r?dbs+hsdb:@term+@rn+@rel+1929-77-7
  11. http://pubchem.ncbi.nlm.nih.gov/vw3d/vw3d.cgi?cid=16003
