5856
  -OEChem-06261200562D

 54 57  0     1  0  0  0  0  0999 V2000
    3.3270   -0.1519    0.0000 O   0  0  0  0  0  0  0  0  0  0  0  0
   10.7098    1.3573    0.0000 O   0  0  0  0  0  0  0  0  0  0  0  0
    6.6389    0.2695    0.0000 C   0  0  3  0  0  0  0  0  0  0  0  0
    5.7289   -0.2374    0.0000 C   0  0  3  0  0  0  0  0  0  0  0  0
    7.5049   -0.2305    0.0000 C   0  0  3  0  0  0  0  0  0  0  0  0
    8.3710    0.2695    0.0000 C   0  0  3  0  0  0  0  0  0  0  0  0
    8.3710    1.2695    0.0000 C   0  0  3  0  0  0  0  0  0  0  0  0
    5.7209   -1.2790    0.0000 C   0  0  3  0  0  0  0  0  0  0  0  0
    6.6389    1.2695    0.0000 C   0  0  0  0  0  0  0  0  0  0  0  0
    7.5210   -1.2720    0.0000 C   0  0  0  0  0  0  0  0  0  0  0  0
    7.5049    1.7695    0.0000 C   0  0  0  0  0  0  0  0  0  0  0  0
    4.7458    0.0876    0.0000 C   0  0  0  0  0  0  0  0  0  0  0  0
    6.6230   -1.7998    0.0000 C   0  0  0  0  0  0  0  0  0  0  0  0
    9.3172   -0.0352    0.0000 C   0  0  0  0  0  0  0  0  0  0  0  0
    9.3172    1.5742    0.0000 C   0  0  0  0  0  0  0  0  0  0  0  0
    4.7329   -1.5888    0.0000 C   0  0  0  0  0  0  0  0  0  0  0  0
    4.1314   -0.7459    0.0000 C   0  0  1  0  0  0  0  0  0  0  0  0
    9.9008    0.7695    0.0000 C   0  0  1  0  0  0  0  0  0  0  0  0
    5.7366    0.7626    0.0000 C   0  0  0  0  0  0  0  0  0  0  0  0
    8.3710    2.2695    0.0000 C   0  0  0  0  0  0  0  0  0  0  0  0
    3.3179   -1.3274    0.0000 C   0  0  0  0  0  0  0  0  0  0  0  0
   10.7098    0.1817    0.0000 C   0  0  0  0  0  0  0  0  0  0  0  0
    2.5044   -1.9089    0.0000 C   0  0  0  0  0  0  0  0  0  0  0  0
   11.5188   -0.4061    0.0000 C   0  0  0  0  0  0  0  0  0  0  0  0
    7.1758    0.5795    0.0000 H   0  0  0  0  0  0  0  0  0  0  0  0
    8.0442   -0.5364    0.0000 H   0  0  0  0  0  0  0  0  0  0  0  0
    8.4366   -0.3470    0.0000 H   0  0  0  0  0  0  0  0  0  0  0  0
    5.6529   -1.8952    0.0000 H   0  0  0  0  0  0  0  0  0  0  0  0
    6.4269    1.8521    0.0000 H   0  0  0  0  0  0  0  0  0  0  0  0
    6.0283    1.1618    0.0000 H   0  0  0  0  0  0  0  0  0  0  0  0
    7.7390   -1.8524    0.0000 H   0  0  0  0  0  0  0  0  0  0  0  0
    8.1302   -1.1565    0.0000 H   0  0  0  0  0  0  0  0  0  0  0  0
    7.9035    2.2444    0.0000 H   0  0  0  0  0  0  0  0  0  0  0  0
    7.1064    2.2444    0.0000 H   0  0  0  0  0  0  0  0  0  0  0  0
    5.0012    0.6526    0.0000 H   0  0  0  0  0  0  0  0  0  0  0  0
    4.2108    0.4010    0.0000 H   0  0  0  0  0  0  0  0  0  0  0  0
    6.2257   -2.2757    0.0000 H   0  0  0  0  0  0  0  0  0  0  0  0
    7.0239   -2.2727    0.0000 H   0  0  0  0  0  0  0  0  0  0  0  0
    9.0662   -0.6022    0.0000 H   0  0  0  0  0  0  0  0  0  0  0  0
    9.8546   -0.3445    0.0000 H   0  0  0  0  0  0  0  0  0  0  0  0
    9.8546    1.8834    0.0000 H   0  0  0  0  0  0  0  0  0  0  0  0
    9.0662    2.1411    0.0000 H   0  0  0  0  0  0  0  0  0  0  0  0
    4.1931   -1.8938    0.0000 H   0  0  0  0  0  0  0  0  0  0  0  0
    4.9795   -2.1576    0.0000 H   0  0  0  0  0  0  0  0  0  0  0  0
    6.3566    0.7578    0.0000 H   0  0  0  0  0  0  0  0  0  0  0  0
    5.7414    1.3826    0.0000 H   0  0  0  0  0  0  0  0  0  0  0  0
    5.1166    0.7674    0.0000 H   0  0  0  0  0  0  0  0  0  0  0  0
    8.9910    2.2695    0.0000 H   0  0  0  0  0  0  0  0  0  0  0  0
    8.3710    2.8895    0.0000 H   0  0  0  0  0  0  0  0  0  0  0  0
    7.7510    2.2695    0.0000 H   0  0  0  0  0  0  0  0  0  0  0  0
    3.3965    0.4642    0.0000 H   0  0  0  0  0  0  0  0  0  0  0  0
   10.6450    1.9739    0.0000 H   0  0  0  0  0  0  0  0  0  0  0  0
    2.0000   -2.2695    0.0000 H   0  0  0  0  0  0  0  0  0  0  0  0
   12.0204   -0.7705    0.0000 H   0  0  0  0  0  0  0  0  0  0  0  0
 17  1  1  1  0  0  0
  1 51  1  0  0  0  0
 18  2  1  1  0  0  0
  2 52  1  0  0  0  0
  3  4  1  0  0  0  0
  3  5  1  0  0  0  0
  3  9  1  0  0  0  0
  3 25  1  0  0  0  0
  4  8  1  0  0  0  0
  4 12  1  0  0  0  0
  4 19  1  0  0  0  0
  5  6  1  0  0  0  0
  5 10  1  0  0  0  0
  5 26  1  0  0  0  0
  6  7  1  0  0  0  0
  6 14  1  0  0  0  0
  6 27  1  0  0  0  0
  7 11  1  0  0  0  0
  7 15  1  0  0  0  0
  7 20  1  0  0  0  0
  8 13  1  0  0  0  0
  8 16  1  0  0  0  0
  8 28  1  0  0  0  0
  9 11  1  0  0  0  0
  9 29  1  0  0  0  0
  9 30  1  0  0  0  0
 10 13  1  0  0  0  0
 10 31  1  0  0  0  0
 10 32  1  0  0  0  0
 11 33  1  0  0  0  0
 11 34  1  0  0  0  0
 12 17  1  0  0  0  0
 12 35  1  0  0  0  0
 12 36  1  0  0  0  0
 13 37  1  0  0  0  0
 13 38  1  0  0  0  0
 14 18  1  0  0  0  0
 14 39  1  0  0  0  0
 14 40  1  0  0  0  0
 15 18  1  0  0  0  0
 15 41  1  0  0  0  0
 15 42  1  0  0  0  0
 16 17  1  0  0  0  0
 16 43  1  0  0  0  0
 16 44  1  0  0  0  0
 17 21  1  0  0  0  0
 18 22  1  0  0  0  0
 19 45  1  0  0  0  0
 19 46  1  0  0  0  0
 19 47  1  0  0  0  0
 20 48  1  0  0  0  0
 20 49  1  0  0  0  0
 20 50  1  0  0  0  0
 21 23  3  0  0  0  0
 22 24  3  0  0  0  0
 23 53  1  0  0  0  0
 24 54  1  0  0  0  0
M  END
> <PUBCHEM_COMPOUND_CID>
5856

> <PUBCHEM_COMPOUND_CANONICALIZED>
1

> <PUBCHEM_CACTVS_COMPLEXITY>
664

> <PUBCHEM_CACTVS_HBOND_ACCEPTOR>
2

> <PUBCHEM_CACTVS_HBOND_DONOR>
2

> <PUBCHEM_CACTVS_ROTATABLE_BOND>
2

> <PUBCHEM_CACTVS_SUBSKEYS>
AAADceB4MAAAAAAAAAAAAAAAAAAAAYMAAAAwYAAAAAAAAGDAAAAAGgAACAAAD0SAgAACAAAAAgBAGAAAAAgAAAAAAAAAAAAAAAAAAAIAAAAAQAAEAAAAAAGAwPAPgAAAAAAAAACAAAQAACAAAYAACAAAAA==

> <PUBCHEM_IUPAC_OPENEYE_NAME>
(2S,7R)-2,7-diethynyl-8a,10a-dimethyl-1,3,3a,3b,4,5,5a,6,8,8b,9,10-dodecahydroindeno[5,4-e]indene-2,7-diol

> <PUBCHEM_IUPAC_CAS_NAME>
(2S,7R)-2,7-diethynyl-8a,10a-dimethyl-1,3,3a,3b,4,5,5a,6,8,8b,9,10-dodecahydroindeno[5,4-e]indene-2,7-diol

> <PUBCHEM_IUPAC_NAME>
(2S,7R)-2,7-diethynyl-8a,10a-dimethyl-1,3,3a,3b,4,5,5a,6,8,8b,9,10-dodecahydroindeno[5,4-e]indene-2,7-diol

> <PUBCHEM_IUPAC_SYSTEMATIC_NAME>
(2S,7R)-2,7-diethynyl-8a,10a-dimethyl-1,3,3a,3b,4,5,5a,6,8,8b,9,10-dodecahydroindeno[5,4-e]indene-2,7-diol

> <PUBCHEM_IUPAC_TRADITIONAL_NAME>
(2S,7R)-2,7-diethynyl-8a,10a-dimethyl-1,3,3a,3b,4,5,5a,6,8,8b,9,10-dodecahydroinden[5,4-e]indene-2,7-diol

> <PUBCHEM_IUPAC_INCHI>
InChI=1S/C22H30O2/c1-5-21(23)11-15-7-8-16-17(20(15,4)14-21)9-10-19(3)13-22(24,6-2)12-18(16)19/h1-2,15-18,23-24H,7-14H2,3-4H3/t15?,16?,17?,18?,19?,20?,21-,22+/m1/s1

> <PUBCHEM_IUPAC_INCHIKEY>
ZTKWJYSIMKRYLD-YSKXXEDASA-N

> <PUBCHEM_XLOGP3_AA>
3.8

> <PUBCHEM_EXACT_MASS>
326.22458

> <PUBCHEM_MOLECULAR_FORMULA>
C22H30O2

> <PUBCHEM_MOLECULAR_WEIGHT>
326.4724

> <PUBCHEM_OPENEYE_CAN_SMILES>
CC12CCC3C(C1CC(C2)(C#C)O)CCC4C3(CC(C4)(C#C)O)C

> <PUBCHEM_OPENEYE_ISO_SMILES>
CC12CCC3C(C1C[C@](C2)(C#C)O)CCC4C3(C[C@](C4)(C#C)O)C

> <PUBCHEM_CACTVS_TPSA>
40.5

> <PUBCHEM_MONOISOTOPIC_WEIGHT>
326.22458

> <PUBCHEM_TOTAL_CHARGE>
0

> <PUBCHEM_HEAVY_ATOM_COUNT>
24

> <PUBCHEM_ATOM_DEF_STEREO_COUNT>
2

> <PUBCHEM_ATOM_UDEF_STEREO_COUNT>
6

> <PUBCHEM_BOND_DEF_STEREO_COUNT>
0

> <PUBCHEM_BOND_UDEF_STEREO_COUNT>
0

> <PUBCHEM_ISOTOPIC_ATOM_COUNT>
0

> <PUBCHEM_COMPONENT_COUNT>
1

> <PUBCHEM_CACTVS_TAUTO_COUNT>
1

> <PUBCHEM_COORDINATE_TYPE>
1
5
255

> <PUBCHEM_BONDANNOTATIONS>
17  1  5
18  2  5
3  9  3
4  19  3
5  10  3
6  14  3
7  20  3
8  16  3

$$$$

