   Color/Form

     * White powder
     * Grayish-white powder or lumps containing up to 99% sodium
       carbonate.

   from [1]HSDB

   Odor
        Odorless
   from [2]HSDB

   Taste
        Alkaline /taste/
   from [3]HSDB

   Melting Point
        851 deg C
   from [4]HSDB

   Density/Specific Gravity
        2.53
   from [5]HSDB

   pH
        Aqueous solutions are strongly alkaline. At 25 deg C, the pH of 1,
   5 and 10 wt% sodium carbonate solutions are 11.37, 11.58 and 11.70,
   respectively.
   from [6]HSDB

   Solubilities

     * Sol in 3.5 parts water at room temp; 2.2 parts at 35 deg C; sol in
       glycerol; insol in alc
     * Insol in acetone
     * Solubility in water at 0, 10, 20 and 30 deg C is 6, 8.5, 17 and 28
       wt %, respectively.
     * Spar sol in ethanol; insol in Me2CO.

   from [7]HSDB

   Spectral Properties
        Index of Refraction: 1.535
   from [8]HSDB

   Other Chemical/Physical Properties

     * Begins to lose carbon dioxide @ 400 deg C; hygroscopic; on exposure
       to air it will gradually absorb 1 mole water--about 15%. Decomposed
       by acids with effervescence. Combines with water with evolution of
       heat.
     * Readily effloresces on exposure to air; transparent crystals;
       density 1.46; MP 34 deg C; sol in 2 parts cold, 0.25 parts boiling
       water, in glycerol; insol in alcohol; aq soln is strongly alkaline
       /Sodium carbonate decahydrate/
     * Odorless; small crystals or crystalline powder; alkaline taste;
       density 2.25; Also reported at 1.55; Becomes anhyd at 100 deg C;
       sol in 3 parts water, 1.8 parts boiling water, 7 parts glycerol;
       insol in alcohol /Sodium carbonate monohydrate/
     * Index of Refraction: 1.405, 1.425, 1.440; Density 1.44 @ 15 deg C;
       BP 33.5 deg C, minus water /Sodium carbonate decahydrate/
     * Rhombic bipyramidal crystals; density 1.51; MP 32 deg C, minus
       water, solubility 16.90 g/100 cc cold water, 33.9 g/100 cc @ 35 deg
       C /Sodium carbonate heptahydrate/
     * Noncombustible
     * Enthalpy of fusion: 29.70 kJ/mol @ 858.1 deg C
     * Othogonal crystals; density 2.25 g/cu cm; index of refraction:
       1.420, 1.506, 1.524 /Thermonatrite (monohydrate)/
     * Bulk density: 0.59-1.04 g/ml
     * Incompatibilities: acids, acid salts, & acidic prepn cause its
       decomp.

   from [9]HSDB

   Computed Properties
   Molecular Weight                  62.02478 [g/mol]
   Molecular Formula                 CH[2]O[3]
   XLogP3-AA                         -0.1
   H-Bond Donor                      2
   H-Bond Acceptor                   3
   Rotatable Bond Count              0
   Exact Mass                        62.000394
   MonoIsotopic Mass                 62.000394
   Topological Polar Surface Area    57.5
   Heavy Atom Count                  4
   Formal Charge                     0
   Complexity                        26.3
   Isotope Atom Count                0
   Defined Atom Stereocenter Count   0
   Undefined Atom Stereocenter Count 0
   Defined Bond Stereocenter Count   0
   Undefined Bond Stereocenter Count 0
   Covalently-Bonded Unit Count      1
   Feature 3D Acceptor Count         3
   Feature 3D Anion Count            1
   Effective Rotor Count             0
   Conformer Sampling RMSD           0.4
   CID Conformer Count               [10]1

References

   1. http://toxnet.nlm.nih.gov/cgi-bin/sis/search/r?dbs+hsdb:@term+@rn+@rel+497-19-8
   2. http://toxnet.nlm.nih.gov/cgi-bin/sis/search/r?dbs+hsdb:@term+@rn+@rel+497-19-8
   3. http://toxnet.nlm.nih.gov/cgi-bin/sis/search/r?dbs+hsdb:@term+@rn+@rel+497-19-8
   4. http://toxnet.nlm.nih.gov/cgi-bin/sis/search/r?dbs+hsdb:@term+@rn+@rel+497-19-8
   5. http://toxnet.nlm.nih.gov/cgi-bin/sis/search/r?dbs+hsdb:@term+@rn+@rel+497-19-8
   6. http://toxnet.nlm.nih.gov/cgi-bin/sis/search/r?dbs+hsdb:@term+@rn+@rel+497-19-8
   7. http://toxnet.nlm.nih.gov/cgi-bin/sis/search/r?dbs+hsdb:@term+@rn+@rel+497-19-8
   8. http://toxnet.nlm.nih.gov/cgi-bin/sis/search/r?dbs+hsdb:@term+@rn+@rel+497-19-8
   9. http://toxnet.nlm.nih.gov/cgi-bin/sis/search/r?dbs+hsdb:@term+@rn+@rel+497-19-8
  10. http://pubchem.ncbi.nlm.nih.gov/vw3d/vw3d.cgi?cid=767
