   Color/Form
        ORTHORHOMBIC, PALE YELLOW TO GREEN CRYSTALS FROM 90% ETHANOL.
   from [1]HSDB

   Melting Point
        About 157 deg
   from [2]HSDB

   Dissociation Constants
        PKA 8.55
   from [3]HSDB

   Solubilities

     * SLIGHTLY SOL IN METHANOL, ABSOLUTE ETHANOL ACETONE; SOL IN WARM AQ
       SOLN OF METHANOL, ABSOLUTE ETHANOL ACETONE
     * Water solubility of 1.36X10+5 mg/l at 25 deg C (est).

   from [4]HSDB

   Spectral Properties
        SPECIFIC OPTICAL ROTATION: -0.5 DEG @ 27.5 DEG C/D (WATER @ PH
   5.18, 8.46%) MAX ABSORPTION (WATER @ PH 7): 250.5 NM (E= 1140, /FOR/ 1%
   /SOLUTION/, 1 CM /PATH/); (0.1 N SODIUM HYDROXIDE): 252 NM (E= 1230,
   1%, 1 CM)
   from [5]HSDB

   Vapor Pressure
        1.53X10-10 mmHg at 25 deg C.
   from [6]HSDB

   Other Chemical/Physical Properties
        Henry's Law constant: 2.56X10-16 atm-cu m/mole at 25 deg C (est,
   SRC)
   from [7]HSDB

   Computed Properties
   Molecular Weight                  173.12678 [g/mol]
   Molecular Formula                 C[5]H[7]N[3]O[4]
   XLogP3-AA                         -2
   H-Bond Donor                      2
   H-Bond Acceptor                   6
   Rotatable Bond Count              4
   Exact Mass                        173.043656
   MonoIsotopic Mass                 173.043656
   Topological Polar Surface Area    124
   Heavy Atom Count                  12
   Formal Charge                     0
   Complexity                        240
   Isotope Atom Count                0
   Defined Atom Stereocenter Count   1
   Undefined Atom Stereocenter Count 0
   Defined Bond Stereocenter Count   1
   Undefined Bond Stereocenter Count 0
   Covalently-Bonded Unit Count      1
   Feature 3D Acceptor Count         3
   Feature 3D Donor Count            1
   Feature 3D Anion Count            1
   Feature 3D Cation Count           1
   Effective Rotor Count             4
   Conformer Sampling RMSD           0.6
   CID Conformer Count               [8]48

References

   1. http://toxnet.nlm.nih.gov/cgi-bin/sis/search/r?dbs+hsdb:@term+@rn+@rel+115-02-6
   2. http://toxnet.nlm.nih.gov/cgi-bin/sis/search/r?dbs+hsdb:@term+@rn+@rel+115-02-6
   3. http://toxnet.nlm.nih.gov/cgi-bin/sis/search/r?dbs+hsdb:@term+@rn+@rel+115-02-6
   4. http://toxnet.nlm.nih.gov/cgi-bin/sis/search/r?dbs+hsdb:@term+@rn+@rel+115-02-6
   5. http://toxnet.nlm.nih.gov/cgi-bin/sis/search/r?dbs+hsdb:@term+@rn+@rel+115-02-6
   6. http://toxnet.nlm.nih.gov/cgi-bin/sis/search/r?dbs+hsdb:@term+@rn+@rel+115-02-6
   7. http://toxnet.nlm.nih.gov/cgi-bin/sis/search/r?dbs+hsdb:@term+@rn+@rel+115-02-6
   8. http://pubchem.ncbi.nlm.nih.gov/vw3d/vw3d.cgi?cid=5284344
