4741
  -OEChem-06261200192D

190196  0     1  0  0  0  0  0999 V2000
   14.3683   -4.5538    0.0000 S   0  0  0  0  0  0  0  0  0  0  0  0
   11.6376   -6.1078    0.0000 S   0  0  0  0  0  0  0  0  0  0  0  0
   27.2917    1.3239    0.0000 O   0  0  0  0  0  0  0  0  0  0  0  0
   26.4256   -1.1761    0.0000 O   0  0  0  0  0  0  0  0  0  0  0  0
   29.0237    1.3239    0.0000 O   0  0  0  0  0  0  0  0  0  0  0  0
   25.5596    0.3239    0.0000 O   0  0  0  0  0  0  0  0  0  0  0  0
   29.0237    0.3239    0.0000 O   0  0  0  0  0  0  0  0  0  0  0  0
   29.0237   -1.6761    0.0000 O   0  0  0  0  0  0  0  0  0  0  0  0
   29.0237    4.3239    0.0000 O   0  0  0  0  0  0  0  0  0  0  0  0
   27.2917    3.3239    0.0000 O   0  0  0  0  0  0  0  0  0  0  0  0
   30.7558    3.3239    0.0000 O   0  0  0  0  0  0  0  0  0  0  0  0
   26.4256   -3.1761    0.0000 O   0  0  0  0  0  0  0  0  0  0  0  0
   30.7558    0.3239    0.0000 O   0  0  0  0  0  0  0  0  0  0  0  0
   22.6196   -1.1158    0.0000 O   0  0  0  0  0  0  0  0  0  0  0  0
   30.7558    4.3239    0.0000 O   0  0  0  0  0  0  0  0  0  0  0  0
   19.9615    1.5559    0.0000 O   0  0  0  0  0  0  0  0  0  0  0  0
   25.5596    1.3239    0.0000 O   0  0  0  0  0  0  0  0  0  0  0  0
   18.4615    0.6899    0.0000 O   0  0  0  0  0  0  0  0  0  0  0  0
   15.9615   -0.1761    0.0000 O   0  0  0  0  0  0  0  0  0  0  0  0
   17.4615   -2.7742    0.0000 O   0  0  0  0  0  0  0  0  0  0  0  0
   21.2295    5.8239    0.0000 O   0  0  0  0  0  0  0  0  0  0  0  0
   20.3635    7.3239    0.0000 O   0  0  0  0  0  0  0  0  0  0  0  0
    8.9492   -4.1398    0.0000 O   0  0  0  0  0  0  0  0  0  0  0  0
   23.8276    1.3239    0.0000 N   0  0  0  0  0  0  0  0  0  0  0  0
   23.8846   -1.7639    0.0000 N   0  0  0  0  0  0  0  0  0  0  0  0
   21.9615   -0.1761    0.0000 N   0  0  0  0  0  0  0  0  0  0  0  0
   25.1936   -2.7150    0.0000 N   0  0  0  0  0  0  0  0  0  0  0  0
   29.8897    5.8239    0.0000 N   0  0  0  0  0  0  0  0  0  0  0  0
   18.4615   -1.0421    0.0000 N   0  0  0  0  0  0  0  0  0  0  0  0
   23.8276    3.3239    0.0000 N   0  0  0  0  0  0  0  0  0  0  0  0
   24.6936    4.8239    0.0000 N   0  0  0  0  0  0  0  0  0  0  0  0
   22.9615    5.8239    0.0000 N   0  0  0  0  0  0  0  0  0  0  0  0
   26.4256    4.8239    0.0000 N   0  0  0  0  0  0  0  0  0  0  0  0
   15.9615   -1.9082    0.0000 N   0  0  0  0  0  0  0  0  0  0  0  0
   20.3635    4.3239    0.0000 N   0  0  0  0  0  0  0  0  0  0  0  0
   22.9615    7.8239    0.0000 N   0  0  0  0  0  0  0  0  0  0  0  0
   21.2295    8.8239    0.0000 N   0  0  0  0  0  0  0  0  0  0  0  0
   12.9670   -3.7447    0.0000 N   0  0  0  0  0  0  0  0  0  0  0  0
   10.9795   -4.6296    0.0000 N   0  0  0  0  0  0  0  0  0  0  0  0
    5.2946   -6.9044    0.0000 N   0  0  0  0  0  0  0  0  0  0  0  0
    8.5891   -5.8340    0.0000 N   0  0  0  0  0  0  0  0  0  0  0  0
   27.2917    0.3239    0.0000 C   0  0  3  0  0  0  0  0  0  0  0  0
   28.1577   -0.1761    0.0000 C   0  0  3  0  0  0  0  0  0  0  0  0
   28.1577   -1.1761    0.0000 C   0  0  3  0  0  0  0  0  0  0  0  0
   26.4256   -0.1761    0.0000 C   0  0  3  0  0  0  0  0  0  0  0  0
   28.1577    1.8239    0.0000 C   0  0  3  0  0  0  0  0  0  0  0  0
   27.2917   -1.6761    0.0000 C   0  0  3  0  0  0  0  0  0  0  0  0
   28.1577    2.8239    0.0000 C   0  0  3  0  0  0  0  0  0  0  0  0
   29.0237    3.3239    0.0000 C   0  0  3  0  0  0  0  0  0  0  0  0
   29.8897    2.8239    0.0000 C   0  0  3  0  0  0  0  0  0  0  0  0
   29.8897    1.8239    0.0000 C   0  0  3  0  0  0  0  0  0  0  0  0
   27.2917   -2.6761    0.0000 C   0  0  0  0  0  0  0  0  0  0  0  0
   24.6936   -0.1761    0.0000 C   0  0  3  0  0  0  0  0  0  0  0  0
   30.7558    1.3239    0.0000 C   0  0  0  0  0  0  0  0  0  0  0  0
   23.8276    0.3239    0.0000 C   0  0  3  0  0  0  0  0  0  0  0  0
   24.6936   -1.1761    0.0000 C   0  0  0  0  0  0  0  0  0  0  0  0
   22.9615   -0.1761    0.0000 C   0  0  0  0  0  0  0  0  0  0  0  0
   29.8897    4.8239    0.0000 C   0  0  0  0  0  0  0  0  0  0  0  0
   25.5026   -1.7639    0.0000 C   0  0  0  0  0  0  0  0  0  0  0  0
   21.4615    0.6899    0.0000 C   0  0  3  0  0  0  0  0  0  0  0  0
   20.4615    0.6899    0.0000 C   0  0  3  0  0  0  0  0  0  0  0  0
   24.6936    1.8239    0.0000 C   0  0  0  0  0  0  0  0  0  0  0  0
   24.1936   -2.7150    0.0000 C   0  0  0  0  0  0  0  0  0  0  0  0
   19.9615   -0.1761    0.0000 C   0  0  3  0  0  0  0  0  0  0  0  0
   21.9615    1.5559    0.0000 C   0  0  0  0  0  0  0  0  0  0  0  0
   24.6936    2.8239    0.0000 C   0  0  0  0  0  0  0  0  0  0  0  0
   20.4615   -1.0421    0.0000 C   0  0  0  0  0  0  0  0  0  0  0  0
   18.9615   -0.1761    0.0000 C   0  0  0  0  0  0  0  0  0  0  0  0
   25.5596    3.3239    0.0000 C   0  0  0  0  0  0  0  0  0  0  0  0
   17.4615   -1.0421    0.0000 C   0  0  3  0  0  0  0  0  0  0  0  0
   23.8276    4.3239    0.0000 C   0  0  0  0  0  0  0  0  0  0  0  0
   25.5596    4.3239    0.0000 C   0  0  0  0  0  0  0  0  0  0  0  0
   26.4256    2.8239    0.0000 C   0  0  0  0  0  0  0  0  0  0  0  0
   16.9615   -0.1761    0.0000 C   0  0  3  0  0  0  0  0  0  0  0  0
   22.9615    4.8239    0.0000 C   0  0  3  0  0  0  0  0  0  0  0  0
   16.9615   -1.9082    0.0000 C   0  0  0  0  0  0  0  0  0  0  0  0
   22.0955    4.3239    0.0000 C   0  0  0  0  0  0  0  0  0  0  0  0
   17.4615    0.6899    0.0000 C   0  0  0  0  0  0  0  0  0  0  0  0
   22.0955    6.3239    0.0000 C   0  0  0  0  0  0  0  0  0  0  0  0
   15.4615   -2.7742    0.0000 C   0  0  0  0  0  0  0  0  0  0  0  0
   21.2295    4.8239    0.0000 C   0  0  0  0  0  0  0  0  0  0  0  0
   22.0955    7.3239    0.0000 C   0  0  3  0  0  0  0  0  0  0  0  0
   14.4615   -2.7742    0.0000 C   0  0  0  0  0  0  0  0  0  0  0  0
   21.2295    7.8239    0.0000 C   0  0  0  0  0  0  0  0  0  0  0  0
   13.9615   -3.6402    0.0000 C   0  0  0  0  0  0  0  0  0  0  0  0
   12.7591   -4.7229    0.0000 C   0  0  0  0  0  0  0  0  0  0  0  0
   13.6251   -5.2229    0.0000 C   0  0  0  0  0  0  0  0  0  0  0  0
   11.8456   -5.1296    0.0000 C   0  0  0  0  0  0  0  0  0  0  0  0
    4.3164   -6.6965    0.0000 C   0  0  3  0  0  0  0  0  0  0  0  0
    5.9637   -6.1613    0.0000 C   0  0  0  0  0  0  0  0  0  0  0  0
    6.9418   -6.3692    0.0000 C   0  0  0  0  0  0  0  0  0  0  0  0
   10.2364   -5.2988    0.0000 C   0  0  0  0  0  0  0  0  0  0  0  0
    7.6110   -5.6261    0.0000 C   0  0  0  0  0  0  0  0  0  0  0  0
   10.6431   -6.2123    0.0000 C   0  0  0  0  0  0  0  0  0  0  0  0
    3.6473   -7.4397    0.0000 C   0  0  0  0  0  0  0  0  0  0  0  0
    4.0074   -5.7455    0.0000 C   0  0  0  0  0  0  0  0  0  0  0  0
    9.2582   -5.0908    0.0000 C   0  0  0  0  0  0  0  0  0  0  0  0
    2.6691   -7.2318    0.0000 C   0  0  0  0  0  0  0  0  0  0  0  0
    3.9563   -8.3907    0.0000 C   0  0  0  0  0  0  0  0  0  0  0  0
    2.0000   -7.9749    0.0000 C   0  0  0  0  0  0  0  0  0  0  0  0
    3.2872   -9.1339    0.0000 C   0  0  0  0  0  0  0  0  0  0  0  0
    2.3090   -8.9260    0.0000 C   0  0  0  0  0  0  0  0  0  0  0  0
   27.8286    0.6339    0.0000 H   0  0  0  0  0  0  0  0  0  0  0  0
   28.6946   -0.4861    0.0000 H   0  0  0  0  0  0  0  0  0  0  0  0
   28.6946   -0.8661    0.0000 H   0  0  0  0  0  0  0  0  0  0  0  0
   26.4256    0.4439    0.0000 H   0  0  0  0  0  0  0  0  0  0  0  0
   27.6208    2.1339    0.0000 H   0  0  0  0  0  0  0  0  0  0  0  0
   26.7547   -1.9861    0.0000 H   0  0  0  0  0  0  0  0  0  0  0  0
   27.6208    2.5139    0.0000 H   0  0  0  0  0  0  0  0  0  0  0  0
   29.5607    3.6339    0.0000 H   0  0  0  0  0  0  0  0  0  0  0  0
   29.8897    3.4439    0.0000 H   0  0  0  0  0  0  0  0  0  0  0  0
   29.8897    1.2039    0.0000 H   0  0  0  0  0  0  0  0  0  0  0  0
   27.5037   -3.2587    0.0000 H   0  0  0  0  0  0  0  0  0  0  0  0
   27.9022   -2.5684    0.0000 H   0  0  0  0  0  0  0  0  0  0  0  0
   25.2305   -0.4861    0.0000 H   0  0  0  0  0  0  0  0  0  0  0  0
   31.3664    1.2162    0.0000 H   0  0  0  0  0  0  0  0  0  0  0  0
   30.9678    1.9065    0.0000 H   0  0  0  0  0  0  0  0  0  0  0  0
   29.5607    0.0139    0.0000 H   0  0  0  0  0  0  0  0  0  0  0  0
   29.0237   -2.2961    0.0000 H   0  0  0  0  0  0  0  0  0  0  0  0
   24.3645    0.6339    0.0000 H   0  0  0  0  0  0  0  0  0  0  0  0
   27.2917    3.9439    0.0000 H   0  0  0  0  0  0  0  0  0  0  0  0
   31.2927    3.0139    0.0000 H   0  0  0  0  0  0  0  0  0  0  0  0
   26.4256   -3.7961    0.0000 H   0  0  0  0  0  0  0  0  0  0  0  0
   23.2906    1.6339    0.0000 H   0  0  0  0  0  0  0  0  0  0  0  0
   31.2927    0.0139    0.0000 H   0  0  0  0  0  0  0  0  0  0  0  0
   23.2650   -1.7855    0.0000 H   0  0  0  0  0  0  0  0  0  0  0  0
   26.0923   -1.5723    0.0000 H   0  0  0  0  0  0  0  0  0  0  0  0
   22.0815    0.6899    0.0000 H   0  0  0  0  0  0  0  0  0  0  0  0
   21.6515   -0.7130    0.0000 H   0  0  0  0  0  0  0  0  0  0  0  0
   19.8415    0.6899    0.0000 H   0  0  0  0  0  0  0  0  0  0  0  0
   23.8292   -3.2165    0.0000 H   0  0  0  0  0  0  0  0  0  0  0  0
   19.6515   -0.7130    0.0000 H   0  0  0  0  0  0  0  0  0  0  0  0
   30.4267    6.1339    0.0000 H   0  0  0  0  0  0  0  0  0  0  0  0
   29.3528    6.1339    0.0000 H   0  0  0  0  0  0  0  0  0  0  0  0
   22.4985    1.2459    0.0000 H   0  0  0  0  0  0  0  0  0  0  0  0
   22.2715    2.0929    0.0000 H   0  0  0  0  0  0  0  0  0  0  0  0
   21.4246    1.8659    0.0000 H   0  0  0  0  0  0  0  0  0  0  0  0
   19.9246   -1.3521    0.0000 H   0  0  0  0  0  0  0  0  0  0  0  0
   20.7715   -1.5791    0.0000 H   0  0  0  0  0  0  0  0  0  0  0  0
   20.9985   -0.7321    0.0000 H   0  0  0  0  0  0  0  0  0  0  0  0
   19.3415    1.5559    0.0000 H   0  0  0  0  0  0  0  0  0  0  0  0
   18.7715   -1.5791    0.0000 H   0  0  0  0  0  0  0  0  0  0  0  0
   17.7715   -0.5052    0.0000 H   0  0  0  0  0  0  0  0  0  0  0  0
   26.1156    2.2870    0.0000 H   0  0  0  0  0  0  0  0  0  0  0  0
   26.9626    2.5139    0.0000 H   0  0  0  0  0  0  0  0  0  0  0  0
   26.7356    3.3608    0.0000 H   0  0  0  0  0  0  0  0  0  0  0  0
   16.6515   -0.7130    0.0000 H   0  0  0  0  0  0  0  0  0  0  0  0
   23.4985    5.1339    0.0000 H   0  0  0  0  0  0  0  0  0  0  0  0
   21.6970    3.8489    0.0000 H   0  0  0  0  0  0  0  0  0  0  0  0
   22.4940    3.8489    0.0000 H   0  0  0  0  0  0  0  0  0  0  0  0
   17.9985    0.3799    0.0000 H   0  0  0  0  0  0  0  0  0  0  0  0
   17.7715    1.2268    0.0000 H   0  0  0  0  0  0  0  0  0  0  0  0
   16.9246    0.9999    0.0000 H   0  0  0  0  0  0  0  0  0  0  0  0
   23.4985    6.1339    0.0000 H   0  0  0  0  0  0  0  0  0  0  0  0
   26.4256    5.4439    0.0000 H   0  0  0  0  0  0  0  0  0  0  0  0
   26.9626    4.5139    0.0000 H   0  0  0  0  0  0  0  0  0  0  0  0
   15.6515   -1.3712    0.0000 H   0  0  0  0  0  0  0  0  0  0  0  0
   21.4849    6.4316    0.0000 H   0  0  0  0  0  0  0  0  0  0  0  0
   21.8835    5.7413    0.0000 H   0  0  0  0  0  0  0  0  0  0  0  0
   15.6515    0.3608    0.0000 H   0  0  0  0  0  0  0  0  0  0  0  0
   15.3539   -3.3848    0.0000 H   0  0  0  0  0  0  0  0  0  0  0  0
   16.0441   -2.9862    0.0000 H   0  0  0  0  0  0  0  0  0  0  0  0
   22.6325    7.0139    0.0000 H   0  0  0  0  0  0  0  0  0  0  0  0
   14.5692   -2.1636    0.0000 H   0  0  0  0  0  0  0  0  0  0  0  0
   13.8789   -2.5621    0.0000 H   0  0  0  0  0  0  0  0  0  0  0  0
   19.8265    4.6339    0.0000 H   0  0  0  0  0  0  0  0  0  0  0  0
   20.3635    3.7039    0.0000 H   0  0  0  0  0  0  0  0  0  0  0  0
   22.9615    8.4439    0.0000 H   0  0  0  0  0  0  0  0  0  0  0  0
   23.4985    7.5139    0.0000 H   0  0  0  0  0  0  0  0  0  0  0  0
   20.6926    9.1339    0.0000 H   0  0  0  0  0  0  0  0  0  0  0  0
   21.7664    9.1339    0.0000 H   0  0  0  0  0  0  0  0  0  0  0  0
   13.6899   -5.8395    0.0000 H   0  0  0  0  0  0  0  0  0  0  0  0
    4.5080   -7.2862    0.0000 H   0  0  0  0  0  0  0  0  0  0  0  0
    6.1959   -5.5865    0.0000 H   0  0  0  0  0  0  0  0  0  0  0  0
    5.4379   -5.8328    0.0000 H   0  0  0  0  0  0  0  0  0  0  0  0
    6.7096   -6.9441    0.0000 H   0  0  0  0  0  0  0  0  0  0  0  0
    7.4676   -6.6978    0.0000 H   0  0  0  0  0  0  0  0  0  0  0  0
    5.4862   -7.4941    0.0000 H   0  0  0  0  0  0  0  0  0  0  0  0
    7.8432   -5.0512    0.0000 H   0  0  0  0  0  0  0  0  0  0  0  0
    7.0852   -5.2975    0.0000 H   0  0  0  0  0  0  0  0  0  0  0  0
   10.3331   -6.7492    0.0000 H   0  0  0  0  0  0  0  0  0  0  0  0
    4.5970   -5.5539    0.0000 H   0  0  0  0  0  0  0  0  0  0  0  0
    3.8158   -5.1558    0.0000 H   0  0  0  0  0  0  0  0  0  0  0  0
    3.4177   -5.9371    0.0000 H   0  0  0  0  0  0  0  0  0  0  0  0
    8.7807   -6.4236    0.0000 H   0  0  0  0  0  0  0  0  0  0  0  0
    2.4775   -6.6421    0.0000 H   0  0  0  0  0  0  0  0  0  0  0  0
    4.5628   -8.5196    0.0000 H   0  0  0  0  0  0  0  0  0  0  0  0
    1.3936   -7.8460    0.0000 H   0  0  0  0  0  0  0  0  0  0  0  0
    3.4788   -9.7235    0.0000 H   0  0  0  0  0  0  0  0  0  0  0  0
    1.8942   -9.3867    0.0000 H   0  0  0  0  0  0  0  0  0  0  0  0
  1 85  1  0  0  0  0
  1 87  1  0  0  0  0
  2 88  1  0  0  0  0
  2 94  1  0  0  0  0
  3 42  1  0  0  0  0
  3 46  1  0  0  0  0
  4 45  1  0  0  0  0
  4 47  1  0  0  0  0
  5 46  1  0  0  0  0
  5 51  1  0  0  0  0
  6 45  1  0  0  0  0
  6 53  1  0  0  0  0
  7 43  1  0  0  0  0
  7118  1  0  0  0  0
  8 44  1  0  0  0  0
  8119  1  0  0  0  0
  9 49  1  0  0  0  0
  9 58  1  0  0  0  0
 10 48  1  0  0  0  0
 10121  1  0  0  0  0
 11 50  1  0  0  0  0
 11122  1  0  0  0  0
 12 52  1  0  0  0  0
 12123  1  0  0  0  0
 13 54  1  0  0  0  0
 13125  1  0  0  0  0
 14 57  2  0  0  0  0
 15 58  2  0  0  0  0
 16 61  1  0  0  0  0
 16141  1  0  0  0  0
 17 62  2  0  0  0  0
 18 68  2  0  0  0  0
 19 74  1  0  0  0  0
 19160  1  0  0  0  0
 20 76  2  0  0  0  0
 21 81  2  0  0  0  0
 22 84  2  0  0  0  0
 23 97  2  0  0  0  0
 24 55  1  0  0  0  0
 24 62  1  0  0  0  0
 24124  1  0  0  0  0
 25 56  1  0  0  0  0
 25 63  1  0  0  0  0
 25126  1  0  0  0  0
 26 57  1  0  0  0  0
 26 60  1  0  0  0  0
 26129  1  0  0  0  0
 27 59  1  0  0  0  0
 27 63  2  0  0  0  0
 28 58  1  0  0  0  0
 28133  1  0  0  0  0
 28134  1  0  0  0  0
 29 68  1  0  0  0  0
 29 70  1  0  0  0  0
 29142  1  0  0  0  0
 30 66  1  0  0  0  0
 30 71  2  0  0  0  0
 31 71  1  0  0  0  0
 31 72  2  0  0  0  0
 32 75  1  0  0  0  0
 32 79  1  0  0  0  0
 32154  1  0  0  0  0
 33 72  1  0  0  0  0
 33155  1  0  0  0  0
 33156  1  0  0  0  0
 34 76  1  0  0  0  0
 34 80  1  0  0  0  0
 34157  1  0  0  0  0
 35 81  1  0  0  0  0
 35166  1  0  0  0  0
 35167  1  0  0  0  0
 36 82  1  0  0  0  0
 36168  1  0  0  0  0
 36169  1  0  0  0  0
 37 84  1  0  0  0  0
 37170  1  0  0  0  0
 37171  1  0  0  0  0
 38 85  2  0  0  0  0
 38 86  1  0  0  0  0
 39 88  2  0  0  0  0
 39 92  1  0  0  0  0
 40 89  1  0  0  0  0
 40 90  1  0  0  0  0
 40178  1  0  0  0  0
 41 93  1  0  0  0  0
 41 97  1  0  0  0  0
 41185  1  0  0  0  0
 42 43  1  0  0  0  0
 42 45  1  0  0  0  0
 42103  1  0  0  0  0
 43 44  1  0  0  0  0
 43104  1  0  0  0  0
 44 47  1  0  0  0  0
 44105  1  0  0  0  0
 45106  1  0  0  0  0
 46 48  1  0  0  0  0
 46107  1  0  0  0  0
 47 52  1  0  0  0  0
 47108  1  0  0  0  0
 48 49  1  0  0  0  0
 48109  1  0  0  0  0
 49 50  1  0  0  0  0
 49110  1  0  0  0  0
 50 51  1  0  0  0  0
 50111  1  0  0  0  0
 51 54  1  0  0  0  0
 51112  1  0  0  0  0
 52113  1  0  0  0  0
 52114  1  0  0  0  0
 53 55  1  0  0  0  0
 53 56  1  0  0  0  0
 53115  1  0  0  0  0
 54116  1  0  0  0  0
 54117  1  0  0  0  0
 55 57  1  0  0  0  0
 55120  1  0  0  0  0
 56 59  2  0  0  0  0
 59127  1  0  0  0  0
 60 61  1  0  0  0  0
 60 65  1  0  0  0  0
 60128  1  0  0  0  0
 61 64  1  0  0  0  0
 61130  1  0  0  0  0
 62 66  1  0  0  0  0
 63131  1  0  0  0  0
 64 67  1  0  0  0  0
 64 68  1  0  0  0  0
 64132  1  0  0  0  0
 65135  1  0  0  0  0
 65136  1  0  0  0  0
 65137  1  0  0  0  0
 66 69  2  0  0  0  0
 67138  1  0  0  0  0
 67139  1  0  0  0  0
 67140  1  0  0  0  0
 69 72  1  0  0  0  0
 69 73  1  0  0  0  0
 70 74  1  0  0  0  0
 70 76  1  0  0  0  0
 70143  1  0  0  0  0
 71 75  1  0  0  0  0
 73144  1  0  0  0  0
 73145  1  0  0  0  0
 73146  1  0  0  0  0
 74 78  1  0  0  0  0
 74147  1  0  0  0  0
 75 77  1  0  0  0  0
 75148  1  0  0  0  0
 77 81  1  0  0  0  0
 77149  1  0  0  0  0
 77150  1  0  0  0  0
 78151  1  0  0  0  0
 78152  1  0  0  0  0
 78153  1  0  0  0  0
 79 82  1  0  0  0  0
 79158  1  0  0  0  0
 79159  1  0  0  0  0
 80 83  1  0  0  0  0
 80161  1  0  0  0  0
 80162  1  0  0  0  0
 82 84  1  0  0  0  0
 82163  1  0  0  0  0
 83 85  1  0  0  0  0
 83164  1  0  0  0  0
 83165  1  0  0  0  0
 86 87  2  0  0  0  0
 86 88  1  0  0  0  0
 87172  1  0  0  0  0
 89 95  1  0  0  0  0
 89 96  1  0  0  0  0
 89173  1  0  0  0  0
 90 91  1  0  0  0  0
 90174  1  0  0  0  0
 90175  1  0  0  0  0
 91 93  1  0  0  0  0
 91176  1  0  0  0  0
 91177  1  0  0  0  0
 92 94  2  0  0  0  0
 92 97  1  0  0  0  0
 93179  1  0  0  0  0
 93180  1  0  0  0  0
 94181  1  0  0  0  0
 95 98  2  0  0  0  0
 95 99  1  0  0  0  0
 96182  1  0  0  0  0
 96183  1  0  0  0  0
 96184  1  0  0  0  0
 98100  1  0  0  0  0
 98186  1  0  0  0  0
 99101  2  0  0  0  0
 99187  1  0  0  0  0
100102  2  0  0  0  0
100188  1  0  0  0  0
101102  1  0  0  0  0
101189  1  0  0  0  0
102190  1  0  0  0  0
M  END
> <PUBCHEM_COMPOUND_CID>
4741

> <PUBCHEM_COMPOUND_CANONICALIZED>
1

> <PUBCHEM_CACTVS_COMPLEXITY>
2740

> <PUBCHEM_CACTVS_HBOND_ACCEPTOR>
32

> <PUBCHEM_CACTVS_HBOND_DONOR>
21

> <PUBCHEM_CACTVS_ROTATABLE_BOND>
38

> <PUBCHEM_CACTVS_SUBSKEYS>
AAADcfB//gBgAAAAAAAAAAAAAAAAAWLFgAA8SJEAAAAAAAAB/gAAHgQQCAAADTz13we/uZbJlgisAzd3fASC8K33GrgJ2bW4fNmbfL7g/fm/ZQhvtgL/6afc4YwOAAAAAAAAAAAAAAAAAAAAAAAAAAAAAA==

> <PUBCHEM_IUPAC_OPENEYE_NAME>
[2-[2-[2-[[6-amino-2-[3-amino-1-[(2,3-diamino-3-oxo-propyl)amino]-3-oxo-propyl]-5-methyl-pyrimidine-4-carbonyl]amino]-3-[[2-hydroxy-4-[[2-hydroxy-1-[2-[4-[4-[3-(1-phenylethylamino)propylcarbamoyl]thiazol-2-yl]thiazol-2-yl]ethylcarbamoyl]propyl]amino]-1,3-dimethyl-4-oxo-butyl]amino]-1-(1H-imidazol-5-yl)-3-oxo-propoxy]-4,5-dihydroxy-6-(hydroxymethyl)tetrahydropyran-3-yl]oxy-3,5-dihydroxy-6-(hydroxymethyl)tetrahydropyran-4-yl] carbamate

> <PUBCHEM_IUPAC_CAS_NAME>
carbamic acid [2-[[2-[2-[[[6-amino-2-[3-amino-1-[(2,3-diamino-3-oxopropyl)amino]-3-oxopropyl]-5-methyl-4-pyrimidinyl]-oxomethyl]amino]-3-[[3-hydroxy-5-[[3-hydroxy-1-oxo-1-[2-[4-[4-[oxo-[3-(1-phenylethylamino)propylamino]methyl]-2-thiazolyl]-2-thiazolyl]ethylamino]butan-2-yl]amino]-4-methyl-5-oxopentan-2-yl]amino]-1-(1H-imidazol-5-yl)-3-oxopropoxy]-4,5-dihydroxy-6-(hydroxymethyl)-3-oxanyl]oxy]-3,5-dihydroxy-6-(hydroxymethyl)-4-oxanyl] ester

> <PUBCHEM_IUPAC_NAME>
[2-[2-[2-[[6-amino-2-[3-amino-1-[(2,3-diamino-3-oxopropyl)amino]-3-oxopropyl]-5-methylpyrimidine-4-carbonyl]amino]-3-[[3-hydroxy-5-[[3-hydroxy-1-oxo-1-[2-[4-[4-[3-(1-phenylethylamino)propylcarbamoyl]-1,3-thiazol-2-yl]-1,3-thiazol-2-yl]ethylamino]butan-2-yl]amino]-4-methyl-5-oxopentan-2-yl]amino]-1-(1H-imidazol-5-yl)-3-oxopropoxy]-4,5-dihydroxy-6-(hydroxymethyl)oxan-3-yl]oxy-3,5-dihydroxy-6-(hydroxymethyl)oxan-4-yl] carbamate

> <PUBCHEM_IUPAC_SYSTEMATIC_NAME>
[2-[2-[2-[[6-azanyl-2-[3-azanyl-1-[[2,3-bis(azanyl)-3-oxidanylidene-propyl]amino]-3-oxidanylidene-propyl]-5-methyl-pyrimidin-4-yl]carbonylamino]-1-(1H-imidazol-5-yl)-3-[[4-methyl-3-oxidanyl-5-oxidanylidene-5-[[3-oxidanyl-1-oxidanylidene-1-[2-[4-[4-[3-(1-phenylethylamino)propylcarbamoyl]-1,3-thiazol-2-yl]-1,3-thiazol-2-yl]ethylamino]butan-2-yl]amino]pentan-2-yl]amino]-3-oxidanylidene-propoxy]-6-(hydroxymethyl)-4,5-bis(oxidanyl)oxan-3-yl]oxy-6-(hydroxymethyl)-3,5-bis(oxidanyl)oxan-4-yl] carbamate

> <PUBCHEM_IUPAC_TRADITIONAL_NAME>
carbamic acid [2-[2-[2-[[6-amino-2-[3-amino-1-[(2,3-diamino-3-keto-propyl)amino]-3-keto-propyl]-5-methyl-pyrimidine-4-carbonyl]amino]-3-[[2-hydroxy-4-[[2-hydroxy-1-[2-[4-[4-[3-(1-phenylethylamino)propylcarbamoyl]thiazol-2-yl]thiazol-2-yl]ethylcarbamoyl]propyl]amino]-4-keto-1,3-dimethyl-butyl]amino]-1-(1H-imidazol-5-yl)-3-keto-propoxy]-4,5-dihydroxy-6-methylol-tetrahydropyran-3-yl]oxy-3,5-dihydroxy-6-methylol-tetrahydropyran-4-yl] ester

> <PUBCHEM_IUPAC_INCHI>
InChI=1S/C61H88N18O21S2/c1-24-39(76-52(79-50(24)64)31(16-37(63)83)71-17-30(62)51(65)89)56(93)78-41(47(32-18-67-23-72-32)98-60-49(45(87)43(85)35(19-80)97-60)99-59-46(88)48(100-61(66)95)44(86)36(20-81)96-59)57(94)73-27(4)42(84)25(2)53(90)77-40(28(5)82)55(92)70-15-12-38-74-34(22-101-38)58-75-33(21-102-58)54(91)69-14-9-13-68-26(3)29-10-7-6-8-11-29/h6-8,10-11,18,21-23,25-28,30-31,35-36,40-49,59-60,68,71,80-82,84-88H,9,12-17,19-20,62H2,1-5H3,(H2,63,83)(H2,65,89)(H2,66,95)(H,67,72)(H,69,91)(H,70,92)(H,73,94)(H,77,90)(H,78,93)(H2,64,76,79)

> <PUBCHEM_IUPAC_INCHIKEY>
QIMGFXOHTOXMQP-UHFFFAOYSA-N

> <PUBCHEM_XLOGP3_AA>
-6.7

> <PUBCHEM_EXACT_MASS>
1472.581284

> <PUBCHEM_MOLECULAR_FORMULA>
C61H88N18O21S2

> <PUBCHEM_MOLECULAR_WEIGHT>
1473.58942

> <PUBCHEM_OPENEYE_CAN_SMILES>
CC1=C(N=C(N=C1N)C(CC(=O)N)NCC(C(=O)N)N)C(=O)NC(C(C2=CN=CN2)OC3C(C(C(C(O3)CO)O)O)OC4C(C(C(C(O4)CO)O)OC(=O)N)O)C(=O)NC(C)C(C(C)C(=O)NC(C(C)O)C(=O)NCCC5=NC(=CS5)C6=NC(=CS6)C(=O)NCCCNC(C)C7=CC=CC=C7)O

> <PUBCHEM_OPENEYE_ISO_SMILES>
CC1=C(N=C(N=C1N)C(CC(=O)N)NCC(C(=O)N)N)C(=O)NC(C(C2=CN=CN2)OC3C(C(C(C(O3)CO)O)O)OC4C(C(C(C(O4)CO)O)OC(=O)N)O)C(=O)NC(C)C(C(C)C(=O)NC(C(C)O)C(=O)NCCC5=NC(=CS5)C6=NC(=CS6)C(=O)NCCCNC(C)C7=CC=CC=C7)O

> <PUBCHEM_CACTVS_TPSA>
696

> <PUBCHEM_MONOISOTOPIC_WEIGHT>
1472.581284

> <PUBCHEM_TOTAL_CHARGE>
0

> <PUBCHEM_HEAVY_ATOM_COUNT>
102

> <PUBCHEM_ATOM_DEF_STEREO_COUNT>
0

> <PUBCHEM_ATOM_UDEF_STEREO_COUNT>
20

> <PUBCHEM_BOND_DEF_STEREO_COUNT>
0

> <PUBCHEM_BOND_UDEF_STEREO_COUNT>
0

> <PUBCHEM_ISOTOPIC_ATOM_COUNT>
0

> <PUBCHEM_COMPONENT_COUNT>
1

> <PUBCHEM_CACTVS_TAUTO_COUNT>
1000

> <PUBCHEM_COORDINATE_TYPE>
1
5
255

> <PUBCHEM_BONDANNOTATIONS>
1  85  8
1  87  8
48  10  3
100  102  8
101  102  8
50  11  3
61  16  3
74  19  3
2  88  8
2  94  8
25  56  8
25  63  8
27  59  8
27  63  8
42  3  3
46  3  3
30  66  8
30  71  8
31  71  8
31  72  8
82  36  3
38  85  8
38  86  8
39  88  8
39  92  8
47  52  3
51  54  3
55  57  3
56  59  8
45  6  3
53  6  3
60  65  3
64  67  3
66  69  8
69  72  8
43  7  3
70  76  3
75  77  3
44  8  3
86  87  8
89  96  3
49  9  3
92  94  8
95  98  8
95  99  8
98  100  8
99  101  8

$$$$

