   Chemical and Physical Properties References

   [1]USDA ARS - USDA chemical properties
   from [2]ChemIDplus

   Color/Form
        COLORLESS CRYSTALS
   from [3]HSDB

   Odor
        AMINE-LIKE
   from [4]HSDB

   Boiling Point
        163-165 deg C at 14 mm Hg
   from [5]HSDB

   Melting Point
        35 DEG C
   from [6]HSDB

   Corrosivity
        The hydrochloride is corrosive in the presence of water.
   /Chlordimeform hydrochloride/
   from [7]HSDB

   Density/Specific Gravity
        1.105 @ 25 DEG C/4 DEG C
   from [8]HSDB

   Solubilities

     * SOL IN ORGANIC SOLVENTS
     * GREATER THAN 200 G/L IN ACETONE, BENZENE, CHLOROFORM, ETHYL
       ACETATE, HEXANE, METHANOL; 250 MG/L WATER (ALL AT 20 DEG C)

   from [9]HSDB

   Spectral Properties

     * INDEX OF REFRACTION: 1.5885 @ 25 DEG C/D
     * Intense mass spectral peaks: 196 m/z (100%), 44 m/z (90%), 181 m/z
       (65%), 117 m/z (64%)
     * MASS: 4401 (National Bureau of Standards EPA-NIH Mass Spectra Data
       Base, NSRDS-NBS-63)

   from [10]HSDB

   Vapor Pressure
        3.5X10-4 MM HG @ 20 DEG C
   from [11]HSDB

   Other Chemical/Physical Properties

     * YELLOW LIQ OR PARTIALLY CRYSTALLINE; WATER SOLUBILITY 250 PPM @ 25
       DEG C; DISSOLVES IN AQ ACIDS UNDER SALIFICATION /TECHNICAL
       CHLORDIMEFORM/
     * COLORLESS CRYSTALS WITH FAINT AMINE-LIKE ODOR; MP 225-227 DEG C
       WITH DECOMP; SOL IN WATER GREATER THAN 50%, CHLOROFORM (1-2%),
       BENZENE (0.1%) /CHLORDIMEFORM HYDROCHLORIDE/
     * Solubility in methanol >300 g/l /Chlordimeform hydrochloride/
     * Forms salts with acids
     * Vapor pressure: 0.029 mPa at 20 deg C /Chlordimeform hydrochloride/
     * The technical grade is >96% pure

   from [12]HSDB

   Computed Properties
   Molecular Weight                  196.67662 [g/mol]
   Molecular Formula                 C[10]H[13]ClN[2]
   XLogP3                            2.9
   H-Bond Donor                      0
   H-Bond Acceptor                   1
   Rotatable Bond Count              2
   Exact Mass                        196.076726
   MonoIsotopic Mass                 196.076726
   Topological Polar Surface Area    15.6
   Heavy Atom Count                  13
   Formal Charge                     0
   Complexity                        180
   Isotope Atom Count                0
   Defined Atom Stereocenter Count   0
   Undefined Atom Stereocenter Count 0
   Defined Bond Stereocenter Count   0
   Undefined Bond Stereocenter Count 0
   Covalently-Bonded Unit Count      1
   Feature 3D Cation Count           1
   Feature 3D Ring Count             1
   Effective Rotor Count             2
   Conformer Sampling RMSD           0.6
   CID Conformer Count               [13]4

References

   1. http://www.ars.usda.gov/SP2UserFiles/ad_hoc/12755100DatabaseFiles/PesticidePropertiesDatabase/IndividualPesticideFiles/CHLORDIMEFORM.TXT
   2. http://chem.sis.nlm.nih.gov/chemidplus/
   3. http://toxnet.nlm.nih.gov/cgi-bin/sis/search/r?dbs+hsdb:@term+@rn+@rel+6164-98-3
   4. http://toxnet.nlm.nih.gov/cgi-bin/sis/search/r?dbs+hsdb:@term+@rn+@rel+6164-98-3
   5. http://toxnet.nlm.nih.gov/cgi-bin/sis/search/r?dbs+hsdb:@term+@rn+@rel+6164-98-3
   6. http://toxnet.nlm.nih.gov/cgi-bin/sis/search/r?dbs+hsdb:@term+@rn+@rel+6164-98-3
   7. http://toxnet.nlm.nih.gov/cgi-bin/sis/search/r?dbs+hsdb:@term+@rn+@rel+6164-98-3
   8. http://toxnet.nlm.nih.gov/cgi-bin/sis/search/r?dbs+hsdb:@term+@rn+@rel+6164-98-3
   9. http://toxnet.nlm.nih.gov/cgi-bin/sis/search/r?dbs+hsdb:@term+@rn+@rel+6164-98-3
  10. http://toxnet.nlm.nih.gov/cgi-bin/sis/search/r?dbs+hsdb:@term+@rn+@rel+6164-98-3
  11. http://toxnet.nlm.nih.gov/cgi-bin/sis/search/r?dbs+hsdb:@term+@rn+@rel+6164-98-3
  12. http://toxnet.nlm.nih.gov/cgi-bin/sis/search/r?dbs+hsdb:@term+@rn+@rel+6164-98-3
  13. http://pubchem.ncbi.nlm.nih.gov/vw3d/vw3d.cgi?cid=22544
