582689
  -OEChem-06241222432D

 34 35  0     1  0  0  0  0  0999 V2000
    7.9244    0.6388    0.0000 O   0  0  0  0  0  0  0  0  0  0  0  0
    6.2781    1.1769    0.0000 N   0  0  0  0  0  0  0  0  0  0  0  0
    4.6783   -2.5398    0.0000 N   0  0  0  0  0  0  0  0  0  0  0  0
    8.5458    2.5398    0.0000 N   0  0  0  0  0  0  0  0  0  0  0  0
    4.9889    0.0201    0.0000 C   0  0  0  0  0  0  0  0  0  0  0  0
    5.9674    0.2264    0.0000 C   0  0  3  0  0  0  0  0  0  0  0  0
    4.6783   -0.9304    0.0000 C   0  0  0  0  0  0  0  0  0  0  0  0
    3.7320   -1.2351    0.0000 C   0  0  0  0  0  0  0  0  0  0  0  0
    3.7320   -2.2351    0.0000 C   0  0  0  0  0  0  0  0  0  0  0  0
    5.2619   -1.7351    0.0000 C   0  0  0  0  0  0  0  0  0  0  0  0
    6.6353   -0.5179    0.0000 C   0  0  0  0  0  0  0  0  0  0  0  0
    2.8660   -0.7351    0.0000 C   0  0  0  0  0  0  0  0  0  0  0  0
    2.8660   -2.7351    0.0000 C   0  0  0  0  0  0  0  0  0  0  0  0
    7.2566    1.3831    0.0000 C   0  0  0  0  0  0  0  0  0  0  0  0
    2.0000   -1.2351    0.0000 C   0  0  0  0  0  0  0  0  0  0  0  0
    2.0000   -2.2351    0.0000 C   0  0  0  0  0  0  0  0  0  0  0  0
    7.5673    2.3336    0.0000 C   0  0  0  0  0  0  0  0  0  0  0  0
    4.9684    0.6398    0.0000 H   0  0  0  0  0  0  0  0  0  0  0  0
    4.3751    0.1075    0.0000 H   0  0  0  0  0  0  0  0  0  0  0  0
    5.5534    0.6878    0.0000 H   0  0  0  0  0  0  0  0  0  0  0  0
    5.8819   -1.7351    0.0000 H   0  0  0  0  0  0  0  0  0  0  0  0
    6.1738   -0.9320    0.0000 H   0  0  0  0  0  0  0  0  0  0  0  0
    7.0494   -0.9794    0.0000 H   0  0  0  0  0  0  0  0  0  0  0  0
    7.0968   -0.1039    0.0000 H   0  0  0  0  0  0  0  0  0  0  0  0
    5.8640    1.6384    0.0000 H   0  0  0  0  0  0  0  0  0  0  0  0
    4.8709   -3.1292    0.0000 H   0  0  0  0  0  0  0  0  0  0  0  0
    2.8660   -0.1151    0.0000 H   0  0  0  0  0  0  0  0  0  0  0  0
    2.8660   -3.3551    0.0000 H   0  0  0  0  0  0  0  0  0  0  0  0
    1.4631   -0.9251    0.0000 H   0  0  0  0  0  0  0  0  0  0  0  0
    1.4631   -2.5451    0.0000 H   0  0  0  0  0  0  0  0  0  0  0  0
    7.5467    2.9533    0.0000 H   0  0  0  0  0  0  0  0  0  0  0  0
    6.9534    2.4210    0.0000 H   0  0  0  0  0  0  0  0  0  0  0  0
    8.7384    3.1292    0.0000 H   0  0  0  0  0  0  0  0  0  0  0  0
    8.9598    2.0784    0.0000 H   0  0  0  0  0  0  0  0  0  0  0  0
  1 14  2  0  0  0  0
  2  6  1  0  0  0  0
  2 14  1  0  0  0  0
  2 25  1  0  0  0  0
  3  9  1  0  0  0  0
  3 10  1  0  0  0  0
  3 26  1  0  0  0  0
  4 17  1  0  0  0  0
  4 33  1  0  0  0  0
  4 34  1  0  0  0  0
  5  6  1  0  0  0  0
  5  7  1  0  0  0  0
  5 18  1  0  0  0  0
  5 19  1  0  0  0  0
  6 11  1  0  0  0  0
  6 20  1  0  0  0  0
  7  8  1  0  0  0  0
  7 10  2  0  0  0  0
  8  9  1  0  0  0  0
  8 12  2  0  0  0  0
  9 13  2  0  0  0  0
 10 21  1  0  0  0  0
 11 22  1  0  0  0  0
 11 23  1  0  0  0  0
 11 24  1  0  0  0  0
 12 15  1  0  0  0  0
 12 27  1  0  0  0  0
 13 16  1  0  0  0  0
 13 28  1  0  0  0  0
 14 17  1  0  0  0  0
 15 16  2  0  0  0  0
 15 29  1  0  0  0  0
 16 30  1  0  0  0  0
 17 31  1  0  0  0  0
 17 32  1  0  0  0  0
M  END
> <PUBCHEM_COMPOUND_CID>
582689

> <PUBCHEM_COMPOUND_CANONICALIZED>
1

> <PUBCHEM_CACTVS_COMPLEXITY>
269

> <PUBCHEM_CACTVS_HBOND_ACCEPTOR>
2

> <PUBCHEM_CACTVS_HBOND_DONOR>
3

> <PUBCHEM_CACTVS_ROTATABLE_BOND>
4

> <PUBCHEM_CACTVS_SUBSKEYS>
AAADceBzIAAAAAAAAAAAAAAAAAAAAWAAAAAwAAAAAAAAAFgB8AAAHgAQAAAADCjBngQ+wPLJkACoAzV3VACCgCAxAiAI2aC4ZJgIYOLAkZGUIAhglgDIyAcQgMAOgAAAAAACAAAAAAAAAAQAAAAAAAAAAA==

> <PUBCHEM_IUPAC_OPENEYE_NAME>
2-amino-N-[2-(1H-indol-3-yl)-1-methyl-ethyl]acetamide

> <PUBCHEM_IUPAC_CAS_NAME>
2-amino-N-[1-(1H-indol-3-yl)propan-2-yl]acetamide

> <PUBCHEM_IUPAC_NAME>
2-amino-N-[1-(1H-indol-3-yl)propan-2-yl]acetamide

> <PUBCHEM_IUPAC_SYSTEMATIC_NAME>
2-azanyl-N-[1-(1H-indol-3-yl)propan-2-yl]ethanamide

> <PUBCHEM_IUPAC_TRADITIONAL_NAME>
2-amino-N-[2-(1H-indol-3-yl)-1-methyl-ethyl]acetamide

> <PUBCHEM_IUPAC_INCHI>
InChI=1S/C13H17N3O/c1-9(16-13(17)7-14)6-10-8-15-12-5-3-2-4-11(10)12/h2-5,8-9,15H,6-7,14H2,1H3,(H,16,17)

> <PUBCHEM_IUPAC_INCHIKEY>
SFTSSVCRTXAUQR-UHFFFAOYSA-N

> <PUBCHEM_XLOGP3>
1.3

> <PUBCHEM_EXACT_MASS>
231.137162

> <PUBCHEM_MOLECULAR_FORMULA>
C13H17N3O

> <PUBCHEM_MOLECULAR_WEIGHT>
231.29358

> <PUBCHEM_OPENEYE_CAN_SMILES>
CC(CC1=CNC2=CC=CC=C21)NC(=O)CN

> <PUBCHEM_OPENEYE_ISO_SMILES>
CC(CC1=CNC2=CC=CC=C21)NC(=O)CN

> <PUBCHEM_CACTVS_TPSA>
70.9

> <PUBCHEM_MONOISOTOPIC_WEIGHT>
231.137162

> <PUBCHEM_TOTAL_CHARGE>
0

> <PUBCHEM_HEAVY_ATOM_COUNT>
17

> <PUBCHEM_ATOM_DEF_STEREO_COUNT>
0

> <PUBCHEM_ATOM_UDEF_STEREO_COUNT>
1

> <PUBCHEM_BOND_DEF_STEREO_COUNT>
0

> <PUBCHEM_BOND_UDEF_STEREO_COUNT>
0

> <PUBCHEM_ISOTOPIC_ATOM_COUNT>
0

> <PUBCHEM_COMPONENT_COUNT>
1

> <PUBCHEM_CACTVS_TAUTO_COUNT>
2

> <PUBCHEM_COORDINATE_TYPE>
1
5
255

> <PUBCHEM_BONDANNOTATIONS>
12  15  8
13  16  8
15  16  8
3  10  8
3  9  8
6  11  3
7  10  8
7  8  8
8  12  8
8  9  8
9  13  8

$$$$

