582836
  -OEChem-06241222442D

 27 27  0     1  0  0  0  0  0999 V2000
    2.0000   -0.7500    0.0000 Cl  0  0  0  0  0  0  0  0  0  0  0  0
    3.5981    1.7500    0.0000 F   0  0  0  0  0  0  0  0  0  0  0  0
    4.5981    3.7500    0.0000 F   0  0  0  0  0  0  0  0  0  0  0  0
    5.5981    2.7500    0.0000 F   0  0  0  0  0  0  0  0  0  0  0  0
    3.5981    2.7500    0.0000 F   0  0  0  0  0  0  0  0  0  0  0  0
    5.5981    1.7500    0.0000 O   0  0  0  0  0  0  0  0  0  0  0  0
    3.7320    0.2500    0.0000 O   0  0  0  0  0  0  0  0  0  0  0  0
    5.4641    0.2500    0.0000 O   0  0  0  0  0  0  0  0  0  0  0  0
    5.4641   -3.7500    0.0000 O   0  5  0  0  0  0  0  0  0  0  0  0
    6.3301   -2.2500    0.0000 O   0  0  0  0  0  0  0  0  0  0  0  0
    5.4641   -2.7500    0.0000 N   0  3  0  0  0  0  0  0  0  0  0  0
    4.5981    1.7500    0.0000 C   0  0  3  0  0  0  0  0  0  0  0  0
    4.5981    2.7500    0.0000 C   0  0  0  0  0  0  0  0  0  0  0  0
    4.5981    0.7500    0.0000 C   0  0  0  0  0  0  0  0  0  0  0  0
    3.7320   -0.7500    0.0000 C   0  0  0  0  0  0  0  0  0  0  0  0
    4.5981   -1.2500    0.0000 C   0  0  0  0  0  0  0  0  0  0  0  0
    4.5981   -2.2500    0.0000 C   0  0  0  0  0  0  0  0  0  0  0  0
    2.8660   -1.2500    0.0000 C   0  0  0  0  0  0  0  0  0  0  0  0
    3.7320   -2.7500    0.0000 C   0  0  0  0  0  0  0  0  0  0  0  0
    2.8660   -2.2500    0.0000 C   0  0  0  0  0  0  0  0  0  0  0  0
    6.0981    0.8840    0.0000 C   0  0  0  0  0  0  0  0  0  0  0  0
    5.1350   -0.9400    0.0000 H   0  0  0  0  0  0  0  0  0  0  0  0
    3.7320   -3.3700    0.0000 H   0  0  0  0  0  0  0  0  0  0  0  0
    2.3291   -2.5600    0.0000 H   0  0  0  0  0  0  0  0  0  0  0  0
    5.5611    0.5740    0.0000 H   0  0  0  0  0  0  0  0  0  0  0  0
    6.4081    0.3470    0.0000 H   0  0  0  0  0  0  0  0  0  0  0  0
    6.6350    1.1940    0.0000 H   0  0  0  0  0  0  0  0  0  0  0  0
  1 18  1  0  0  0  0
  2 12  1  0  0  0  0
  3 13  1  0  0  0  0
  4 13  1  0  0  0  0
  5 13  1  0  0  0  0
  6 12  1  0  0  0  0
  6 21  1  0  0  0  0
  7 14  1  0  0  0  0
  7 15  1  0  0  0  0
  8 14  2  0  0  0  0
  9 11  1  0  0  0  0
 10 11  2  0  0  0  0
 11 17  1  0  0  0  0
 12 13  1  0  0  0  0
 12 14  1  0  0  0  0
 15 16  1  0  0  0  0
 15 18  2  0  0  0  0
 16 17  2  0  0  0  0
 16 22  1  0  0  0  0
 17 19  1  0  0  0  0
 18 20  1  0  0  0  0
 19 20  2  0  0  0  0
 19 23  1  0  0  0  0
 20 24  1  0  0  0  0
 21 25  1  0  0  0  0
 21 26  1  0  0  0  0
 21 27  1  0  0  0  0
M  CHG  2   9  -1  11   1
M  END
> <PUBCHEM_COMPOUND_CID>
582836

> <PUBCHEM_COMPOUND_CANONICALIZED>
1

> <PUBCHEM_CACTVS_COMPLEXITY>
415

> <PUBCHEM_CACTVS_HBOND_ACCEPTOR>
9

> <PUBCHEM_CACTVS_HBOND_DONOR>
0

> <PUBCHEM_CACTVS_ROTATABLE_BOND>
4

> <PUBCHEM_CACTVS_SUBSKEYS>
AAADcYByOcAEAAAAAAAAAAAAAAAAAAAAAAAwAAAAAAAAAAABAAAAHwIEAAAACA6BkDIyzoAQRACJACTSSwKCCAAgJ0AoiAFGb4oNJiOFs5+COiDmwBkK6AeQUAEAAABAAgAACAAAAIAEAAAQAAAAAAAAAA==

> <PUBCHEM_IUPAC_OPENEYE_NAME>
(2-chloro-5-nitro-phenyl) 2,3,3,3-tetrafluoro-2-methoxy-propanoate

> <PUBCHEM_IUPAC_CAS_NAME>
2,3,3,3-tetrafluoro-2-methoxypropanoic acid (2-chloro-5-nitrophenyl) ester

> <PUBCHEM_IUPAC_NAME>
(2-chloro-5-nitrophenyl) 2,3,3,3-tetrafluoro-2-methoxypropanoate

> <PUBCHEM_IUPAC_SYSTEMATIC_NAME>
(2-chloranyl-5-nitro-phenyl) 2,3,3,3-tetrakis(fluoranyl)-2-methoxy-propanoate

> <PUBCHEM_IUPAC_TRADITIONAL_NAME>
2,3,3,3-tetrafluoro-2-methoxy-propionic acid (2-chloro-5-nitro-phenyl) ester

> <PUBCHEM_IUPAC_INCHI>
InChI=1S/C10H6ClF4NO5/c1-20-9(12,10(13,14)15)8(17)21-7-4-5(16(18)19)2-3-6(7)11/h2-4H,1H3

> <PUBCHEM_IUPAC_INCHIKEY>
MSNGATMYWBRSHI-UHFFFAOYSA-N

> <PUBCHEM_XLOGP3_AA>
3.4

> <PUBCHEM_EXACT_MASS>
330.987063

> <PUBCHEM_MOLECULAR_FORMULA>
C10H6ClF4NO5

> <PUBCHEM_MOLECULAR_WEIGHT>
331.604953

> <PUBCHEM_OPENEYE_CAN_SMILES>
COC(C(=O)OC1=C(C=CC(=C1)[N+](=O)[O-])Cl)(C(F)(F)F)F

> <PUBCHEM_OPENEYE_ISO_SMILES>
COC(C(=O)OC1=C(C=CC(=C1)[N+](=O)[O-])Cl)(C(F)(F)F)F

> <PUBCHEM_CACTVS_TPSA>
81.4

> <PUBCHEM_MONOISOTOPIC_WEIGHT>
330.987063

> <PUBCHEM_TOTAL_CHARGE>
0

> <PUBCHEM_HEAVY_ATOM_COUNT>
21

> <PUBCHEM_ATOM_DEF_STEREO_COUNT>
0

> <PUBCHEM_ATOM_UDEF_STEREO_COUNT>
1

> <PUBCHEM_BOND_DEF_STEREO_COUNT>
0

> <PUBCHEM_BOND_UDEF_STEREO_COUNT>
0

> <PUBCHEM_ISOTOPIC_ATOM_COUNT>
0

> <PUBCHEM_COMPONENT_COUNT>
1

> <PUBCHEM_CACTVS_TAUTO_COUNT>
1

> <PUBCHEM_COORDINATE_TYPE>
1
5
255

> <PUBCHEM_BONDANNOTATIONS>
15  16  8
15  18  8
16  17  8
17  19  8
18  20  8
19  20  8
12  2  3

$$$$

