   Chemical and Physical Properties References

   [1]USDA ARS - USDA chemical properties
   from [2]ChemIDplus

   Color/Form

     * Colorless crystals
     * Colorless prisms
     * Colorless crystalline solid

   from [3]HSDB

   Melting Point
        172 deg C (decomposes)
   from [4]HSDB

   Dissociation Constants
        pKa = 7.28
   from [5]HSDB

   Octanol/Water Partition Coefficient
        log Kow = 1.40
   from [6]HSDB

   Solubilities

     * Sparingly soluble in most organic solvents at 25 deg C (2.9 g/100
       mL acetone; 7.8X10-1 g/100 mL methanol; 8.4X10-1 g/100 mL ethyl
       acetate; 7.3X10-2 g/100 mL dichloromethane; 1.8X10-2 g/100 mL
       n-octanol; 1.1X10-2 g/100 mL xylene; and 4.7X10-5 g/100 mL
       n-hexane)
     * In acetone 58.1, cyclohexanone 43, methanol 29.2, acetonitrile
       24.4, ethyl acetate 11.9 (all in g/kg, 23 deg C). Slightly soluble
       in hexane.
     * Thiophanate methyl is slightly soluble in most organic solvents...
       .
     * Soluble in acetone, methanol, chloroform and acetonitrile.
     * Sparingly soluble in most organic solvents.
     * In water, 26.6 mg/L at 20 deg C

   from [7]HSDB

   Vapor Pressure
        7.13X10-8 mm Hg at 25 deg C
   from [8]HSDB

   Other Chemical/Physical Properties

     * Unique thioallophanate structure
     * MP: 181.5 - 182.5 deg C
     * Colorless plates from acetone, decomposes at 194 deg C
       /Thiophanate/
     * Pale brown color ... begins to decompose at approximately 163 deg C
       /Technical/
     * Henry's Law constant = 1.21X10-9 atm-cu m/mol at 25 deg C (est)
     * Hydroxyl radical reaction rate constant = 7.6X10-11 cu cm/molec-sec
       at 25 deg C (est)

   from [9]HSDB

   Computed Properties
   Molecular Weight                  342.39396 [g/mol]
   Molecular Formula                 C[12]H[14]N[4]O[4]S[2]
   XLogP3-AA                         2.6
   H-Bond Donor                      4
   H-Bond Acceptor                   6
   Rotatable Bond Count              4
   Tautomer Count                    15
   Exact Mass                        342.045647
   MonoIsotopic Mass                 342.045647
   Topological Polar Surface Area    165
   Heavy Atom Count                  22
   Formal Charge                     0
   Complexity                        407
   Isotope Atom Count                0
   Defined Atom Stereocenter Count   0
   Undefined Atom Stereocenter Count 0
   Defined Bond Stereocenter Count   0
   Undefined Bond Stereocenter Count 0
   Covalently-Bonded Unit Count      1
   Feature 3D Acceptor Count         4
   Feature 3D Donor Count            4
   Feature 3D Ring Count             1
   Effective Rotor Count             10
   Conformer Sampling RMSD           1
   CID Conformer Count               [10]45

References

   1. http://www.ars.usda.gov/SP2UserFiles/ad_hoc/12755100DatabaseFiles/PesticidePropertiesDatabase/IndividualPesticideFiles/THIOPHANATE-ME.TXT
   2. http://chem.sis.nlm.nih.gov/chemidplus/
   3. http://toxnet.nlm.nih.gov/cgi-bin/sis/search/r?dbs+hsdb:@term+@rn+@rel+23564-05-8
   4. http://toxnet.nlm.nih.gov/cgi-bin/sis/search/r?dbs+hsdb:@term+@rn+@rel+23564-05-8
   5. http://toxnet.nlm.nih.gov/cgi-bin/sis/search/r?dbs+hsdb:@term+@rn+@rel+23564-05-8
   6. http://toxnet.nlm.nih.gov/cgi-bin/sis/search/r?dbs+hsdb:@term+@rn+@rel+23564-05-8
   7. http://toxnet.nlm.nih.gov/cgi-bin/sis/search/r?dbs+hsdb:@term+@rn+@rel+23564-05-8
   8. http://toxnet.nlm.nih.gov/cgi-bin/sis/search/r?dbs+hsdb:@term+@rn+@rel+23564-05-8
   9. http://toxnet.nlm.nih.gov/cgi-bin/sis/search/r?dbs+hsdb:@term+@rn+@rel+23564-05-8
  10. http://pubchem.ncbi.nlm.nih.gov/vw3d/vw3d.cgi?cid=3032791
