132430
  -OEChem-07051213152D

 30 29  0     1  0  0  0  0  0999 V2000
    3.7320   -1.5000    0.0000 Br  0  0  0  0  0  0  0  0  0  0  0  0
    4.8301    0.8660    0.0000 Br  0  0  0  0  0  0  0  0  0  0  0  0
    2.0000    0.5000    0.0000 Cl  0  0  0  0  0  0  0  0  0  0  0  0
    6.8301   -0.8660    0.0000 Cl  0  0  0  0  0  0  0  0  0  0  0  0
    8.0622    0.0000    0.0000 Cl  0  0  0  0  0  0  0  0  0  0  0  0
    4.5981    0.0000    0.0000 C   0  0  0  0  0  0  0  0  0  0  0  0
    3.7320   -0.5000    0.0000 C   0  0  2  0  0  0  0  0  0  0  0  0
    5.4641   -0.5000    0.0000 C   0  0  0  0  0  0  0  0  0  0  0  0
    2.8660    0.0000    0.0000 C   0  0  0  0  0  0  0  0  0  0  0  0
    6.3301    0.0000    0.0000 C   0  0  2  0  0  0  0  0  0  0  0  0
    2.3660   -0.8660    0.0000 C   0  0  0  0  0  0  0  0  0  0  0  0
    3.3660    0.8660    0.0000 C   0  0  0  0  0  0  0  0  0  0  0  0
    5.8301    0.8660    0.0000 C   0  0  0  0  0  0  0  0  0  0  0  0
    7.1962    0.5000    0.0000 C   0  0  0  0  0  0  0  0  0  0  0  0
    7.1962    1.5000    0.0000 C   0  0  0  0  0  0  0  0  0  0  0  0
    4.9966    0.4749    0.0000 H   0  0  0  0  0  0  0  0  0  0  0  0
    4.1996    0.4749    0.0000 H   0  0  0  0  0  0  0  0  0  0  0  0
    4.2690   -0.8100    0.0000 H   0  0  0  0  0  0  0  0  0  0  0  0
    5.0656   -0.9749    0.0000 H   0  0  0  0  0  0  0  0  0  0  0  0
    5.8626   -0.9749    0.0000 H   0  0  0  0  0  0  0  0  0  0  0  0
    1.8291   -0.5560    0.0000 H   0  0  0  0  0  0  0  0  0  0  0  0
    2.0560   -1.4030    0.0000 H   0  0  0  0  0  0  0  0  0  0  0  0
    2.9030   -1.1760    0.0000 H   0  0  0  0  0  0  0  0  0  0  0  0
    3.9030    0.5560    0.0000 H   0  0  0  0  0  0  0  0  0  0  0  0
    3.6760    1.4030    0.0000 H   0  0  0  0  0  0  0  0  0  0  0  0
    2.8291    1.1760    0.0000 H   0  0  0  0  0  0  0  0  0  0  0  0
    6.4127    1.0781    0.0000 H   0  0  0  0  0  0  0  0  0  0  0  0
    5.7225    1.4766    0.0000 H   0  0  0  0  0  0  0  0  0  0  0  0
    7.7331    1.8100    0.0000 H   0  0  0  0  0  0  0  0  0  0  0  0
    6.6592    1.8100    0.0000 H   0  0  0  0  0  0  0  0  0  0  0  0
  7  1  1  1  0  0  0
  2 13  1  0  0  0  0
  3  9  1  0  0  0  0
 10  4  1  6  0  0  0
  5 14  1  0  0  0  0
  6  7  1  0  0  0  0
  6  8  1  0  0  0  0
  6 16  1  0  0  0  0
  6 17  1  0  0  0  0
  7  9  1  0  0  0  0
  7 18  1  0  0  0  0
  8 10  1  0  0  0  0
  8 19  1  0  0  0  0
  8 20  1  0  0  0  0
  9 11  1  0  0  0  0
  9 12  1  0  0  0  0
 10 13  1  0  0  0  0
 10 14  1  0  0  0  0
 11 21  1  0  0  0  0
 11 22  1  0  0  0  0
 11 23  1  0  0  0  0
 12 24  1  0  0  0  0
 12 25  1  0  0  0  0
 12 26  1  0  0  0  0
 13 27  1  0  0  0  0
 13 28  1  0  0  0  0
 14 15  2  0  0  0  0
 15 29  1  0  0  0  0
 15 30  1  0  0  0  0
M  END
> <PUBCHEM_COMPOUND_CID>
132430

> <PUBCHEM_COMPOUND_CANONICALIZED>
1

> <PUBCHEM_CACTVS_COMPLEXITY>
231

> <PUBCHEM_CACTVS_HBOND_ACCEPTOR>
0

> <PUBCHEM_CACTVS_HBOND_DONOR>
0

> <PUBCHEM_CACTVS_ROTATABLE_BOND>
6

> <PUBCHEM_CACTVS_SUBSKEYS>
AAADccBwAAAGGAAAAAAAAAAAAAAAAAAAAAAAAAAAAAAAAAAAAAAAGAJAAAABzAKAAAACAAAAAACAAABCAAAAAAAgAAAAAEAAAigAAAIBAAAAAAAAgAAAAAEAgEAMAAAAAAAAAAAAAAAAAAAAAAAAAAAAAA==

> <PUBCHEM_IUPAC_OPENEYE_NAME>
(3S,6R)-6-bromo-3-(bromomethyl)-2,3,7-trichloro-7-methyl-oct-1-ene

> <PUBCHEM_IUPAC_CAS_NAME>
(3S,6R)-6-bromo-3-(bromomethyl)-2,3,7-trichloro-7-methyl-1-octene

> <PUBCHEM_IUPAC_NAME>
(3S,6R)-6-bromo-3-(bromomethyl)-2,3,7-trichloro-7-methyloct-1-ene

> <PUBCHEM_IUPAC_SYSTEMATIC_NAME>
(3S,6R)-6-bromanyl-3-(bromomethyl)-2,3,7-tris(chloranyl)-7-methyl-oct-1-ene

> <PUBCHEM_IUPAC_TRADITIONAL_NAME>
(3S,6R)-6-bromo-3-(bromomethyl)-2,3,7-trichloro-7-methyl-oct-1-ene

> <PUBCHEM_IUPAC_INCHI>
InChI=1S/C10H15Br2Cl3/c1-7(13)10(15,6-11)5-4-8(12)9(2,3)14/h8H,1,4-6H2,2-3H3/t8-,10-/m1/s1

> <PUBCHEM_IUPAC_INCHIKEY>
OVLCIYBVQSJPKK-PSASIEDQSA-N

> <PUBCHEM_XLOGP3_AA>
5.2

> <PUBCHEM_EXACT_MASS>
399.858561

> <PUBCHEM_MOLECULAR_FORMULA>
C10H15Br2Cl3

> <PUBCHEM_MOLECULAR_WEIGHT>
401.3931

> <PUBCHEM_OPENEYE_CAN_SMILES>
CC(C)(C(CCC(CBr)(C(=C)Cl)Cl)Br)Cl

> <PUBCHEM_OPENEYE_ISO_SMILES>
CC(C)([C@@H](CC[C@@](CBr)(C(=C)Cl)Cl)Br)Cl

> <PUBCHEM_CACTVS_TPSA>
0

> <PUBCHEM_MONOISOTOPIC_WEIGHT>
397.860608

> <PUBCHEM_TOTAL_CHARGE>
0

> <PUBCHEM_HEAVY_ATOM_COUNT>
15

> <PUBCHEM_ATOM_DEF_STEREO_COUNT>
2

> <PUBCHEM_ATOM_UDEF_STEREO_COUNT>
0

> <PUBCHEM_BOND_DEF_STEREO_COUNT>
0

> <PUBCHEM_BOND_UDEF_STEREO_COUNT>
0

> <PUBCHEM_ISOTOPIC_ATOM_COUNT>
0

> <PUBCHEM_COMPONENT_COUNT>
1

> <PUBCHEM_CACTVS_TAUTO_COUNT>
1

> <PUBCHEM_COORDINATE_TYPE>
1
5
255

> <PUBCHEM_BONDANNOTATIONS>
7  1  5
10  4  6

$$$$

