17396160
  -OEChem-06241222542D

 34 36  0     0  0  0  0  0  0999 V2000
    9.9851   -2.9983    0.0000 S   0  0  0  0  0  0  0  0  0  0  0  0
    6.5000   -0.4615    0.0000 O   0  0  0  0  0  0  0  0  0  0  0  0
    3.5000    3.0026    0.0000 O   0  0  0  0  0  0  0  0  0  0  0  0
    9.0388   -1.6936    0.0000 N   0  0  0  0  0  0  0  0  0  0  0  0
    8.0878   -3.0026    0.0000 N   0  0  0  0  0  0  0  0  0  0  0  0
    5.0000   -1.3275    0.0000 N   0  0  0  0  0  0  0  0  0  0  0  0
    7.5000   -2.1936    0.0000 C   0  0  0  0  0  0  0  0  0  0  0  0
    6.5000   -2.1936    0.0000 C   0  0  0  0  0  0  0  0  0  0  0  0
    8.0878   -1.3846    0.0000 C   0  0  0  0  0  0  0  0  0  0  0  0
    9.0388   -2.6936    0.0000 C   0  0  0  0  0  0  0  0  0  0  0  0
    6.0000   -1.3275    0.0000 C   0  0  0  0  0  0  0  0  0  0  0  0
    9.9851   -1.3888    0.0000 C   0  0  0  0  0  0  0  0  0  0  0  0
    4.5000   -0.4615    0.0000 C   0  0  0  0  0  0  0  0  0  0  0  0
   10.5687   -2.1936    0.0000 C   0  0  0  0  0  0  0  0  0  0  0  0
    5.0000    0.4045    0.0000 C   0  0  0  0  0  0  0  0  0  0  0  0
    3.5000   -0.4615    0.0000 C   0  0  0  0  0  0  0  0  0  0  0  0
    3.5000    1.2705    0.0000 C   0  0  0  0  0  0  0  0  0  0  0  0
    4.5000    1.2705    0.0000 C   0  0  0  0  0  0  0  0  0  0  0  0
    3.0000    0.4045    0.0000 C   0  0  0  0  0  0  0  0  0  0  0  0
    3.0000    2.1366    0.0000 C   0  0  0  0  0  0  0  0  0  0  0  0
    2.0000    2.1366    0.0000 C   0  0  0  0  0  0  0  0  0  0  0  0
    5.9174   -2.4056    0.0000 H   0  0  0  0  0  0  0  0  0  0  0  0
    6.6077   -2.8042    0.0000 H   0  0  0  0  0  0  0  0  0  0  0  0
    7.8962   -0.7949    0.0000 H   0  0  0  0  0  0  0  0  0  0  0  0
   10.1777   -0.7995    0.0000 H   0  0  0  0  0  0  0  0  0  0  0  0
    4.6900   -1.8645    0.0000 H   0  0  0  0  0  0  0  0  0  0  0  0
   11.1887   -2.1936    0.0000 H   0  0  0  0  0  0  0  0  0  0  0  0
    5.6200    0.4045    0.0000 H   0  0  0  0  0  0  0  0  0  0  0  0
    3.1900   -0.9985    0.0000 H   0  0  0  0  0  0  0  0  0  0  0  0
    4.8100    1.8075    0.0000 H   0  0  0  0  0  0  0  0  0  0  0  0
    2.3800    0.4045    0.0000 H   0  0  0  0  0  0  0  0  0  0  0  0
    2.0000    2.7566    0.0000 H   0  0  0  0  0  0  0  0  0  0  0  0
    1.3800    2.1366    0.0000 H   0  0  0  0  0  0  0  0  0  0  0  0
    2.0000    1.5166    0.0000 H   0  0  0  0  0  0  0  0  0  0  0  0
  1 10  1  0  0  0  0
  1 14  1  0  0  0  0
  2 11  2  0  0  0  0
  3 20  2  0  0  0  0
  4  9  1  0  0  0  0
  4 10  1  0  0  0  0
  4 12  1  0  0  0  0
  5  7  1  0  0  0  0
  5 10  2  0  0  0  0
  6 11  1  0  0  0  0
  6 13  1  0  0  0  0
  6 26  1  0  0  0  0
  7  8  1  0  0  0  0
  7  9  2  0  0  0  0
  8 11  1  0  0  0  0
  8 22  1  0  0  0  0
  8 23  1  0  0  0  0
  9 24  1  0  0  0  0
 12 14  2  0  0  0  0
 12 25  1  0  0  0  0
 13 15  2  0  0  0  0
 13 16  1  0  0  0  0
 14 27  1  0  0  0  0
 15 18  1  0  0  0  0
 15 28  1  0  0  0  0
 16 19  2  0  0  0  0
 16 29  1  0  0  0  0
 17 18  2  0  0  0  0
 17 19  1  0  0  0  0
 17 20  1  0  0  0  0
 18 30  1  0  0  0  0
 19 31  1  0  0  0  0
 20 21  1  0  0  0  0
 21 32  1  0  0  0  0
 21 33  1  0  0  0  0
 21 34  1  0  0  0  0
M  END
> <PUBCHEM_COMPOUND_CID>
17396160

> <PUBCHEM_COMPOUND_CANONICALIZED>
1

> <PUBCHEM_CACTVS_COMPLEXITY>
410

> <PUBCHEM_CACTVS_HBOND_ACCEPTOR>
4

> <PUBCHEM_CACTVS_HBOND_DONOR>
1

> <PUBCHEM_CACTVS_ROTATABLE_BOND>
4

> <PUBCHEM_CACTVS_SUBSKEYS>
AAADccBzMABAAAAAAAAAAAAAAAAAAWLAAAAwAAAAAAAWAAAB8AAAHgQQAAAADAzF3gS/0ZfMGAisA7V3dACC8K11GrhJ2A04dMiIaHrA3ZGUIQholALIyacciYCeCAAAAAAAAAAQAAAAAAAAAAAAAAAAAA==

> <PUBCHEM_IUPAC_OPENEYE_NAME>
N-(4-acetylphenyl)-2-imidazo[2,1-b]thiazol-6-yl-acetamide

> <PUBCHEM_IUPAC_CAS_NAME>
N-(4-acetylphenyl)-2-(6-imidazo[2,1-b]thiazolyl)acetamide

> <PUBCHEM_IUPAC_NAME>
N-(4-acetylphenyl)-2-imidazo[2,1-b][1,3]thiazol-6-ylacetamide

> <PUBCHEM_IUPAC_SYSTEMATIC_NAME>
N-(4-ethanoylphenyl)-2-imidazo[2,1-b][1,3]thiazol-6-yl-ethanamide

> <PUBCHEM_IUPAC_TRADITIONAL_NAME>
N-(4-acetylphenyl)-2-imidazo[2,1-b]thiazol-6-yl-acetamide

> <PUBCHEM_IUPAC_INCHI>
InChI=1S/C15H13N3O2S/c1-10(19)11-2-4-12(5-3-11)16-14(20)8-13-9-18-6-7-21-15(18)17-13/h2-7,9H,8H2,1H3,(H,16,20)

> <PUBCHEM_IUPAC_INCHIKEY>
CWUOBTHMYBRTMC-UHFFFAOYSA-N

> <PUBCHEM_XLOGP3_AA>
2.4

> <PUBCHEM_EXACT_MASS>
299.072848

> <PUBCHEM_MOLECULAR_FORMULA>
C15H13N3O2S

> <PUBCHEM_MOLECULAR_WEIGHT>
299.34762

> <PUBCHEM_OPENEYE_CAN_SMILES>
CC(=O)C1=CC=C(C=C1)NC(=O)CC2=CN3C=CSC3=N2

> <PUBCHEM_OPENEYE_ISO_SMILES>
CC(=O)C1=CC=C(C=C1)NC(=O)CC2=CN3C=CSC3=N2

> <PUBCHEM_CACTVS_TPSA>
91.7

> <PUBCHEM_MONOISOTOPIC_WEIGHT>
299.072848

> <PUBCHEM_TOTAL_CHARGE>
0

> <PUBCHEM_HEAVY_ATOM_COUNT>
21

> <PUBCHEM_ATOM_DEF_STEREO_COUNT>
0

> <PUBCHEM_ATOM_UDEF_STEREO_COUNT>
0

> <PUBCHEM_BOND_DEF_STEREO_COUNT>
0

> <PUBCHEM_BOND_UDEF_STEREO_COUNT>
0

> <PUBCHEM_ISOTOPIC_ATOM_COUNT>
0

> <PUBCHEM_COMPONENT_COUNT>
1

> <PUBCHEM_CACTVS_TAUTO_COUNT>
16

> <PUBCHEM_COORDINATE_TYPE>
1
5
255

> <PUBCHEM_BONDANNOTATIONS>
1  10  8
1  14  8
12  14  8
13  15  8
13  16  8
15  18  8
16  19  8
17  18  8
17  19  8
4  10  8
4  12  8
4  9  8
5  10  8
5  7  8
7  9  8

$$$$

