11953940
  -OEChem-07051212582D

 79 80  0     1  0  0  0  0  0999 V2000
    8.0622   -1.2141    0.0000 O   0  0  0  0  0  0  0  0  0  0  0  0
    4.5981   -1.2141    0.0000 O   0  0  0  0  0  0  0  0  0  0  0  0
    6.3301   -4.2141    0.0000 O   0  0  0  0  0  0  0  0  0  0  0  0
    4.5981   -4.2141    0.0000 O   0  0  0  0  0  0  0  0  0  0  0  0
    6.3301   -1.2141    0.0000 C   0  0  2  0  0  0  0  0  0  0  0  0
    6.8301   -0.3481    0.0000 C   0  0  0  0  0  0  0  0  0  0  0  0
    5.8301   -0.3481    0.0000 C   0  0  0  0  0  0  0  0  0  0  0  0
    7.1962   -1.7141    0.0000 C   0  0  0  0  0  0  0  0  0  0  0  0
    5.4641   -1.7141    0.0000 C   0  0  0  0  0  0  0  0  0  0  0  0
    7.1962   -2.7141    0.0000 C   0  0  0  0  0  0  0  0  0  0  0  0
    5.4641   -2.7141    0.0000 C   0  0  0  0  0  0  0  0  0  0  0  0
    6.3301   -3.2141    0.0000 C   0  0  0  0  0  0  0  0  0  0  0  0
    6.3301    0.5179    0.0000 C   0  0  0  0  0  0  0  0  0  0  0  0
    4.8301   -0.3481    0.0000 C   0  0  0  0  0  0  0  0  0  0  0  0
    8.0622   -3.2141    0.0000 C   0  0  0  0  0  0  0  0  0  0  0  0
    6.8301    1.3840    0.0000 C   0  0  0  0  0  0  0  0  0  0  0  0
    4.5981   -3.2141    0.0000 C   0  0  0  0  0  0  0  0  0  0  0  0
    4.3301    0.5179    0.0000 C   0  0  0  0  0  0  0  0  0  0  0  0
    6.3301    2.2500    0.0000 C   0  0  0  0  0  0  0  0  0  0  0  0
    8.0622   -4.2141    0.0000 C   0  0  0  0  0  0  0  0  0  0  0  0
    7.8301    1.3840    0.0000 C   0  0  0  0  0  0  0  0  0  0  0  0
    3.7320   -2.7141    0.0000 C   0  0  0  0  0  0  0  0  0  0  0  0
    6.8301    3.1160    0.0000 C   0  0  0  0  0  0  0  0  0  0  0  0
    3.3301    0.5179    0.0000 C   0  0  0  0  0  0  0  0  0  0  0  0
    4.8301    1.3840    0.0000 C   0  0  0  0  0  0  0  0  0  0  0  0
    8.9282   -4.7141    0.0000 C   0  0  0  0  0  0  0  0  0  0  0  0
    3.7320   -1.7141    0.0000 C   0  0  0  0  0  0  0  0  0  0  0  0
    2.8660   -3.2141    0.0000 C   0  0  0  0  0  0  0  0  0  0  0  0
    6.3301    3.9820    0.0000 C   0  0  0  0  0  0  0  0  0  0  0  0
    8.9282   -5.7141    0.0000 C   0  0  0  0  0  0  0  0  0  0  0  0
    9.7942   -4.2141    0.0000 C   0  0  0  0  0  0  0  0  0  0  0  0
    2.8660   -1.2141    0.0000 C   0  0  0  0  0  0  0  0  0  0  0  0
    2.0000   -2.7141    0.0000 C   0  0  0  0  0  0  0  0  0  0  0  0
    6.8301    4.8481    0.0000 C   0  0  0  0  0  0  0  0  0  0  0  0
    2.0000   -1.7141    0.0000 C   0  0  0  0  0  0  0  0  0  0  0  0
    6.3301    5.7141    0.0000 C   0  0  0  0  0  0  0  0  0  0  0  0
    7.8301    4.8481    0.0000 C   0  0  0  0  0  0  0  0  0  0  0  0
    7.3051   -0.7466    0.0000 H   0  0  0  0  0  0  0  0  0  0  0  0
    7.3051    0.0505    0.0000 H   0  0  0  0  0  0  0  0  0  0  0  0
    6.4127   -0.1360    0.0000 H   0  0  0  0  0  0  0  0  0  0  0  0
    5.7225    0.2625    0.0000 H   0  0  0  0  0  0  0  0  0  0  0  0
    5.7101    0.5179    0.0000 H   0  0  0  0  0  0  0  0  0  0  0  0
    4.5201   -0.8850    0.0000 H   0  0  0  0  0  0  0  0  0  0  0  0
    8.6728   -3.3218    0.0000 H   0  0  0  0  0  0  0  0  0  0  0  0
    8.2742   -2.6315    0.0000 H   0  0  0  0  0  0  0  0  0  0  0  0
    5.8552    2.6485    0.0000 H   0  0  0  0  0  0  0  0  0  0  0  0
    5.8552    1.8515    0.0000 H   0  0  0  0  0  0  0  0  0  0  0  0
    7.5252   -4.5241    0.0000 H   0  0  0  0  0  0  0  0  0  0  0  0
    7.8301    0.7640    0.0000 H   0  0  0  0  0  0  0  0  0  0  0  0
    8.4501    1.3840    0.0000 H   0  0  0  0  0  0  0  0  0  0  0  0
    7.8301    2.0040    0.0000 H   0  0  0  0  0  0  0  0  0  0  0  0
    6.8671   -4.5241    0.0000 H   0  0  0  0  0  0  0  0  0  0  0  0
    7.3051    2.7175    0.0000 H   0  0  0  0  0  0  0  0  0  0  0  0
    7.3051    3.5146    0.0000 H   0  0  0  0  0  0  0  0  0  0  0  0
    5.3671    1.0740    0.0000 H   0  0  0  0  0  0  0  0  0  0  0  0
    5.1401    1.9209    0.0000 H   0  0  0  0  0  0  0  0  0  0  0  0
    4.2932    1.6940    0.0000 H   0  0  0  0  0  0  0  0  0  0  0  0
    3.3301    1.1380    0.0000 H   0  0  0  0  0  0  0  0  0  0  0  0
    2.7101    0.5179    0.0000 H   0  0  0  0  0  0  0  0  0  0  0  0
    3.3301   -0.1021    0.0000 H   0  0  0  0  0  0  0  0  0  0  0  0
    4.0611   -4.5241    0.0000 H   0  0  0  0  0  0  0  0  0  0  0  0
    4.2690   -1.4041    0.0000 H   0  0  0  0  0  0  0  0  0  0  0  0
    2.8660   -3.8341    0.0000 H   0  0  0  0  0  0  0  0  0  0  0  0
    5.7101    3.9820    0.0000 H   0  0  0  0  0  0  0  0  0  0  0  0
   10.1042   -4.7510    0.0000 H   0  0  0  0  0  0  0  0  0  0  0  0
   10.3312   -3.9041    0.0000 H   0  0  0  0  0  0  0  0  0  0  0  0
    9.4842   -3.6772    0.0000 H   0  0  0  0  0  0  0  0  0  0  0  0
    8.3082   -5.7141    0.0000 H   0  0  0  0  0  0  0  0  0  0  0  0
    8.9282   -6.3341    0.0000 H   0  0  0  0  0  0  0  0  0  0  0  0
    9.5482   -5.7141    0.0000 H   0  0  0  0  0  0  0  0  0  0  0  0
    2.8660   -0.5941    0.0000 H   0  0  0  0  0  0  0  0  0  0  0  0
    1.4631   -3.0241    0.0000 H   0  0  0  0  0  0  0  0  0  0  0  0
    1.4631   -1.4041    0.0000 H   0  0  0  0  0  0  0  0  0  0  0  0
    7.8301    4.2281    0.0000 H   0  0  0  0  0  0  0  0  0  0  0  0
    8.4501    4.8481    0.0000 H   0  0  0  0  0  0  0  0  0  0  0  0
    7.8301    5.4681    0.0000 H   0  0  0  0  0  0  0  0  0  0  0  0
    6.8671    6.0241    0.0000 H   0  0  0  0  0  0  0  0  0  0  0  0
    6.0201    6.2510    0.0000 H   0  0  0  0  0  0  0  0  0  0  0  0
    5.7932    5.4041    0.0000 H   0  0  0  0  0  0  0  0  0  0  0  0
  1  8  2  0  0  0  0
  2  9  2  0  0  0  0
  3 12  1  0  0  0  0
  3 52  1  0  0  0  0
  4 17  1  0  0  0  0
  4 61  1  0  0  0  0
  5  6  1  6  0  0  0
  5  7  1  0  0  0  0
  5  8  1  0  0  0  0
  5  9  1  0  0  0  0
  6 13  1  0  0  0  0
  6 38  1  0  0  0  0
  6 39  1  0  0  0  0
  7 14  1  0  0  0  0
  7 40  1  0  0  0  0
  7 41  1  0  0  0  0
  8 10  1  0  0  0  0
  9 11  1  0  0  0  0
 10 12  2  0  0  0  0
 10 15  1  0  0  0  0
 11 12  1  0  0  0  0
 11 17  2  0  0  0  0
 13 16  2  0  0  0  0
 13 42  1  0  0  0  0
 14 18  2  0  0  0  0
 14 43  1  0  0  0  0
 15 20  1  0  0  0  0
 15 44  1  0  0  0  0
 15 45  1  0  0  0  0
 16 19  1  0  0  0  0
 16 21  1  0  0  0  0
 17 22  1  0  0  0  0
 18 24  1  0  0  0  0
 18 25  1  0  0  0  0
 19 23  1  0  0  0  0
 19 46  1  0  0  0  0
 19 47  1  0  0  0  0
 20 26  2  0  0  0  0
 20 48  1  0  0  0  0
 21 49  1  0  0  0  0
 21 50  1  0  0  0  0
 21 51  1  0  0  0  0
 22 27  2  0  0  0  0
 22 28  1  0  0  0  0
 23 29  1  0  0  0  0
 23 53  1  0  0  0  0
 23 54  1  0  0  0  0
 24 58  1  0  0  0  0
 24 59  1  0  0  0  0
 24 60  1  0  0  0  0
 25 55  1  0  0  0  0
 25 56  1  0  0  0  0
 25 57  1  0  0  0  0
 26 30  1  0  0  0  0
 26 31  1  0  0  0  0
 27 32  1  0  0  0  0
 27 62  1  0  0  0  0
 28 33  2  0  0  0  0
 28 63  1  0  0  0  0
 29 34  2  0  0  0  0
 29 64  1  0  0  0  0
 30 68  1  0  0  0  0
 30 69  1  0  0  0  0
 30 70  1  0  0  0  0
 31 65  1  0  0  0  0
 31 66  1  0  0  0  0
 31 67  1  0  0  0  0
 32 35  2  0  0  0  0
 32 71  1  0  0  0  0
 33 35  1  0  0  0  0
 33 72  1  0  0  0  0
 34 36  1  0  0  0  0
 34 37  1  0  0  0  0
 35 73  1  0  0  0  0
 36 77  1  0  0  0  0
 36 78  1  0  0  0  0
 36 79  1  0  0  0  0
 37 74  1  0  0  0  0
 37 75  1  0  0  0  0
 37 76  1  0  0  0  0
M  END
> <PUBCHEM_COMPOUND_CID>
11953940

> <PUBCHEM_COMPOUND_CANONICALIZED>
1

> <PUBCHEM_CACTVS_COMPLEXITY>
1040

> <PUBCHEM_CACTVS_HBOND_ACCEPTOR>
4

> <PUBCHEM_CACTVS_HBOND_DONOR>
2

> <PUBCHEM_CACTVS_ROTATABLE_BOND>
10

> <PUBCHEM_CACTVS_SUBSKEYS>
AAADcfB8OAAAAAAAAAAAAAAAAAAAAAAAAAAwQAAAAAAAAAABAAAAGgAACAAADgSAmAAyAIAAAgCIAqBSAAACAAAgIAAIiAEACMgIJjaIERCAcAAk4AEImQeIzKAPAAAAAAAAAAAAAAAAAAAAAAAAAAAAAA==

> <PUBCHEM_IUPAC_OPENEYE_NAME>
(2R,6E)-2-[(2E)-3,7-dimethylocta-2,6-dienyl]-5-hydroxy-6-[hydroxy(phenyl)methylene]-2,4-bis(3-methylbut-2-enyl)cyclohex-4-ene-1,3-dione

> <PUBCHEM_IUPAC_CAS_NAME>
(2R,6E)-2-[(2E)-3,7-dimethylocta-2,6-dienyl]-5-hydroxy-6-[hydroxy(phenyl)methylidene]-2,4-bis(3-methylbut-2-enyl)cyclohex-4-ene-1,3-dione

> <PUBCHEM_IUPAC_NAME>
(2R,6E)-2-[(2E)-3,7-dimethylocta-2,6-dienyl]-5-hydroxy-6-[hydroxy(phenyl)methylidene]-2,4-bis(3-methylbut-2-enyl)cyclohex-4-ene-1,3-dione

> <PUBCHEM_IUPAC_SYSTEMATIC_NAME>
(2R,6E)-2-[(2E)-3,7-dimethylocta-2,6-dienyl]-2,4-bis(3-methylbut-2-enyl)-5-oxidanyl-6-[oxidanyl(phenyl)methylidene]cyclohex-4-ene-1,3-dione

> <PUBCHEM_IUPAC_TRADITIONAL_NAME>
(2R,6E)-2-[(2E)-3,7-dimethylocta-2,6-dienyl]-5-hydroxy-6-[hydroxy(phenyl)methylene]-2,4-bis(3-methylbut-2-enyl)cyclohex-4-ene-1,3-quinone

> <PUBCHEM_IUPAC_INCHI>
InChI=1S/C33H42O4/c1-22(2)12-11-13-25(7)19-21-33(20-18-24(5)6)31(36)27(17-16-23(3)4)30(35)28(32(33)37)29(34)26-14-9-8-10-15-26/h8-10,12,14-16,18-19,34-35H,11,13,17,20-21H2,1-7H3/b25-19+,29-28+/t33-/m1/s1

> <PUBCHEM_IUPAC_INCHIKEY>
CXUWMKJZOJXGIU-VFJUAXEESA-N

> <PUBCHEM_XLOGP3_AA>
9.2

> <PUBCHEM_EXACT_MASS>
502.30831

> <PUBCHEM_MOLECULAR_FORMULA>
C33H42O4

> <PUBCHEM_MOLECULAR_WEIGHT>
502.68418

> <PUBCHEM_OPENEYE_CAN_SMILES>
CC(=CCCC(=CCC1(C(=O)C(=C(C(=C(C2=CC=CC=C2)O)C1=O)O)CC=C(C)C)CC=C(C)C)C)C

> <PUBCHEM_OPENEYE_ISO_SMILES>
CC(=CCC/C(=C/C[C@@]1(C(=O)C(=C(/C(=C(/C2=CC=CC=C2)\O)/C1=O)O)CC=C(C)C)CC=C(C)C)/C)C

> <PUBCHEM_CACTVS_TPSA>
74.6

> <PUBCHEM_MONOISOTOPIC_WEIGHT>
502.30831

> <PUBCHEM_TOTAL_CHARGE>
0

> <PUBCHEM_HEAVY_ATOM_COUNT>
37

> <PUBCHEM_ATOM_DEF_STEREO_COUNT>
1

> <PUBCHEM_ATOM_UDEF_STEREO_COUNT>
0

> <PUBCHEM_BOND_DEF_STEREO_COUNT>
2

> <PUBCHEM_BOND_UDEF_STEREO_COUNT>
0

> <PUBCHEM_ISOTOPIC_ATOM_COUNT>
0

> <PUBCHEM_COMPONENT_COUNT>
1

> <PUBCHEM_CACTVS_TAUTO_COUNT>
11

> <PUBCHEM_COORDINATE_TYPE>
1
5
255

> <PUBCHEM_BONDANNOTATIONS>
22  27  8
22  28  8
27  32  8
28  33  8
32  35  8
33  35  8
5  6  6

$$$$

