9556529
  -OEChem-07051212542D

 44 45  0     0  0  0  0  0  0999 V2000
    5.6720    3.0000    0.0000 Cl  0  0  0  0  0  0  0  0  0  0  0  0
    7.4040    0.0000    0.0000 Cl  0  0  0  0  0  0  0  0  0  0  0  0
    7.4040    7.0000    0.0000 Cl  0  0  0  0  0  0  0  0  0  0  0  0
    5.6720   10.0000    0.0000 Cl  0  0  0  0  0  0  0  0  0  0  0  0
    6.5380    5.5000    0.0000 O   0  0  0  0  0  0  0  0  0  0  0  0
    1.7320    5.7500    0.0000 O   0  0  0  0  0  0  0  0  0  0  0  0
    0.0000    5.7500    0.0000 O   0  5  0  0  0  0  0  0  0  0  0  0
    0.8660    4.2500    0.0000 O   0  0  0  0  0  0  0  0  0  0  0  0
    9.1360    4.0000    0.0000 N   0  0  0  0  0  0  0  0  0  0  0  0
    6.5380    4.5000    0.0000 N   0  0  0  0  0  0  0  0  0  0  0  0
   10.2187    2.7976    0.0000 N   0  0  0  0  0  0  0  0  0  0  0  0
    0.8660    5.2500    0.0000 N   0  3  0  0  0  0  0  0  0  0  0  0
    8.2700    4.5000    0.0000 C   0  0  0  0  0  0  0  0  0  0  0  0
    7.4040    4.0000    0.0000 C   0  0  0  0  0  0  0  0  0  0  0  0
    7.4040    3.0000    0.0000 C   0  0  0  0  0  0  0  0  0  0  0  0
    6.5380    2.5000    0.0000 C   0  0  0  0  0  0  0  0  0  0  0  0
    8.2700    2.5000    0.0000 C   0  0  0  0  0  0  0  0  0  0  0  0
   10.0496    4.4067    0.0000 C   0  0  0  0  0  0  0  0  0  0  0  0
    9.2406    3.0055    0.0000 C   0  0  0  0  0  0  0  0  0  0  0  0
    5.6720    6.0000    0.0000 C   0  0  0  0  0  0  0  0  0  0  0  0
    5.6720    7.0000    0.0000 C   0  0  0  0  0  0  0  0  0  0  0  0
    6.5380    1.5000    0.0000 C   0  0  0  0  0  0  0  0  0  0  0  0
    8.2700    1.5000    0.0000 C   0  0  0  0  0  0  0  0  0  0  0  0
   10.7187    3.6636    0.0000 C   0  0  0  0  0  0  0  0  0  0  0  0
    7.4040    1.0000    0.0000 C   0  0  0  0  0  0  0  0  0  0  0  0
    6.5380    7.5000    0.0000 C   0  0  0  0  0  0  0  0  0  0  0  0
    4.8059    7.5000    0.0000 C   0  0  0  0  0  0  0  0  0  0  0  0
    6.5380    8.5000    0.0000 C   0  0  0  0  0  0  0  0  0  0  0  0
    4.8059    8.5000    0.0000 C   0  0  0  0  0  0  0  0  0  0  0  0
    5.6720    9.0000    0.0000 C   0  0  0  0  0  0  0  0  0  0  0  0
    8.6686    4.9750    0.0000 H   0  0  0  0  0  0  0  0  0  0  0  0
    7.8715    4.9750    0.0000 H   0  0  0  0  0  0  0  0  0  0  0  0
    8.8070    2.8100    0.0000 H   0  0  0  0  0  0  0  0  0  0  0  0
   10.1785    5.0132    0.0000 H   0  0  0  0  0  0  0  0  0  0  0  0
    8.7798    2.5906    0.0000 H   0  0  0  0  0  0  0  0  0  0  0  0
    5.0614    6.1077    0.0000 H   0  0  0  0  0  0  0  0  0  0  0  0
    5.4599    5.4174    0.0000 H   0  0  0  0  0  0  0  0  0  0  0  0
    6.0010    1.1900    0.0000 H   0  0  0  0  0  0  0  0  0  0  0  0
    8.8070    1.1900    0.0000 H   0  0  0  0  0  0  0  0  0  0  0  0
   11.3353    3.7284    0.0000 H   0  0  0  0  0  0  0  0  0  0  0  0
    4.2690    7.1900    0.0000 H   0  0  0  0  0  0  0  0  0  0  0  0
    7.0749    8.8100    0.0000 H   0  0  0  0  0  0  0  0  0  0  0  0
    4.2690    8.8100    0.0000 H   0  0  0  0  0  0  0  0  0  0  0  0
    2.2690    5.4400    0.0000 H   0  0  0  0  0  0  0  0  0  0  0  0
  1 16  1  0  0  0  0
  2 25  1  0  0  0  0
  3 26  1  0  0  0  0
  4 30  1  0  0  0  0
  5 10  1  0  0  0  0
  5 20  1  0  0  0  0
  6 12  1  0  0  0  0
  6 44  1  0  0  0  0
  7 12  1  0  0  0  0
  8 12  2  0  0  0  0
  9 13  1  0  0  0  0
  9 18  1  0  0  0  0
  9 19  1  0  0  0  0
 10 14  2  0  0  0  0
 11 19  2  0  0  0  0
 11 24  1  0  0  0  0
 13 14  1  0  0  0  0
 13 31  1  0  0  0  0
 13 32  1  0  0  0  0
 14 15  1  0  0  0  0
 15 16  2  0  0  0  0
 15 17  1  0  0  0  0
 16 22  1  0  0  0  0
 17 23  2  0  0  0  0
 17 33  1  0  0  0  0
 18 24  2  0  0  0  0
 18 34  1  0  0  0  0
 19 35  1  0  0  0  0
 20 21  1  0  0  0  0
 20 36  1  0  0  0  0
 20 37  1  0  0  0  0
 21 26  2  0  0  0  0
 21 27  1  0  0  0  0
 22 25  2  0  0  0  0
 22 38  1  0  0  0  0
 23 25  1  0  0  0  0
 23 39  1  0  0  0  0
 24 40  1  0  0  0  0
 26 28  1  0  0  0  0
 27 29  2  0  0  0  0
 27 41  1  0  0  0  0
 28 30  2  0  0  0  0
 28 42  1  0  0  0  0
 29 30  1  0  0  0  0
 29 43  1  0  0  0  0
M  CHG  2   7  -1  12   1
M  END
> <PUBCHEM_COMPOUND_CID>
9556529

> <PUBCHEM_COMPOUND_CANONICALIZED>
1

> <PUBCHEM_CACTVS_COMPLEXITY>
506

> <PUBCHEM_CACTVS_HBOND_ACCEPTOR>
6

> <PUBCHEM_CACTVS_HBOND_DONOR>
1

> <PUBCHEM_CACTVS_ROTATABLE_BOND>
6

> <PUBCHEM_CACTVS_SUBSKEYS>
AAADccB7uAAHAAAAAAAAAAAAAAAAAWAAAAAwYAAAAAAAAAAB0AAAHgIECAAADArhmiY9kJccUAChAzBnZQACgC0xF6AJyAA4OpiIbqKBmxGUMAAswAOIiCeQwKAOBAAAAACBAAAIAAAAAQIAAAAAAAAAAA==

> <PUBCHEM_IUPAC_OPENEYE_NAME>
1-(2,4-dichlorophenyl)-N-[(2,4-dichlorophenyl)methoxy]-2-imidazol-1-yl-ethanimine; nitric acid

> <PUBCHEM_IUPAC_CAS_NAME>
1-(2,4-dichlorophenyl)-N-[(2,4-dichlorophenyl)methoxy]-2-(1-imidazolyl)ethanimine; nitric acid

> <PUBCHEM_IUPAC_NAME>
1-(2,4-dichlorophenyl)-N-[(2,4-dichlorophenyl)methoxy]-2-imidazol-1-ylethanimine; nitric acid

> <PUBCHEM_IUPAC_SYSTEMATIC_NAME>
1-(2,4-dichlorophenyl)-N-[(2,4-dichlorophenyl)methoxy]-2-imidazol-1-yl-ethanimine; nitric acid

> <PUBCHEM_IUPAC_TRADITIONAL_NAME>
(Z)-(2,4-dichlorobenzyl)oxy-[1-(2,4-dichlorophenyl)-2-imidazol-1-yl-ethylidene]amine; nitric acid

> <PUBCHEM_IUPAC_INCHI>
InChI=1S/C18H13Cl4N3O.HNO3/c19-13-2-1-12(16(21)7-13)10-26-24-18(9-25-6-5-23-11-25)15-4-3-14(20)8-17(15)22;2-1(3)4/h1-8,11H,9-10H2;(H,2,3,4)/b24-18+;

> <PUBCHEM_IUPAC_INCHIKEY>
WVNOAGNOIPTWPT-NDUABGMUSA-N

> <PUBCHEM_EXACT_MASS>
491.973966

> <PUBCHEM_MOLECULAR_FORMULA>
C18H14Cl4N4O4

> <PUBCHEM_MOLECULAR_WEIGHT>
492.14016

> <PUBCHEM_OPENEYE_CAN_SMILES>
C1=CC(=C(C=C1Cl)Cl)CON=C(CN2C=CN=C2)C3=C(C=C(C=C3)Cl)Cl.[N+](=O)(O)[O-]

> <PUBCHEM_OPENEYE_ISO_SMILES>
C1=CC(=C(C=C1Cl)Cl)CO/N=C(\CN2C=CN=C2)/C3=C(C=C(C=C3)Cl)Cl.[N+](=O)(O)[O-]

> <PUBCHEM_CACTVS_TPSA>
106

> <PUBCHEM_MONOISOTOPIC_WEIGHT>
489.976916

> <PUBCHEM_TOTAL_CHARGE>
0

> <PUBCHEM_HEAVY_ATOM_COUNT>
30

> <PUBCHEM_ATOM_DEF_STEREO_COUNT>
0

> <PUBCHEM_ATOM_UDEF_STEREO_COUNT>
0

> <PUBCHEM_BOND_DEF_STEREO_COUNT>
1

> <PUBCHEM_BOND_UDEF_STEREO_COUNT>
0

> <PUBCHEM_ISOTOPIC_ATOM_COUNT>
0

> <PUBCHEM_COMPONENT_COUNT>
2

> <PUBCHEM_CACTVS_TAUTO_COUNT>
2

> <PUBCHEM_COORDINATE_TYPE>
1
5
255

> <PUBCHEM_BONDANNOTATIONS>
11  19  8
11  24  8
15  16  8
15  17  8
16  22  8
17  23  8
18  24  8
21  26  8
21  27  8
22  25  8
23  25  8
26  28  8
27  29  8
28  30  8
29  30  8
9  18  8
9  19  8

$$$$

