11679
  -OEChem-06261205592D

 17 16  0     0  0  0  0  0  0999 V2000
    4.2057   -0.9330    0.0000 F   0  0  0  0  0  0  0  0  0  0  0  0
    4.3981    1.4178    0.0000 F   0  0  0  0  0  0  0  0  0  0  0  0
    5.0718   -0.4330    0.0000 F   0  0  0  0  0  0  0  0  0  0  0  0
    2.1736    1.2186    0.0000 F   0  0  0  0  0  0  0  0  0  0  0  0
    3.5825    1.3419    0.0000 F   0  0  0  0  0  0  0  0  0  0  0  0
    2.0000    0.2338    0.0000 F   0  0  0  0  0  0  0  0  0  0  0  0
    2.7057   -1.7990    0.0000 F   0  0  0  0  0  0  0  0  0  0  0  0
    2.3397   -0.4330    0.0000 F   0  0  0  0  0  0  0  0  0  0  0  0
    3.7058   -1.7990    0.0000 F   0  0  0  0  0  0  0  0  0  0  0  0
    6.3038    1.4330    0.0000 F   0  0  0  0  0  0  0  0  0  0  0  0
    5.9378    0.0670    0.0000 F   0  0  0  0  0  0  0  0  0  0  0  0
    4.9378    1.7990    0.0000 F   0  0  0  0  0  0  0  0  0  0  0  0
    3.7057   -0.0670    0.0000 C   0  0  0  0  0  0  0  0  0  0  0  0
    4.5718    0.4330    0.0000 C   0  0  0  0  0  0  0  0  0  0  0  0
    3.2057   -0.9330    0.0000 C   0  0  0  0  0  0  0  0  0  0  0  0
    2.9397    0.5758    0.0000 C   0  0  0  0  0  0  0  0  0  0  0  0
    5.4378    0.9330    0.0000 C   0  0  0  0  0  0  0  0  0  0  0  0
  1 13  1  0  0  0  0
  2 14  1  0  0  0  0
  3 14  1  0  0  0  0
  4 16  1  0  0  0  0
  5 16  1  0  0  0  0
  6 16  1  0  0  0  0
  7 15  1  0  0  0  0
  8 15  1  0  0  0  0
  9 15  1  0  0  0  0
 10 17  1  0  0  0  0
 11 17  1  0  0  0  0
 12 17  1  0  0  0  0
 13 14  1  0  0  0  0
 13 15  1  0  0  0  0
 13 16  1  0  0  0  0
 14 17  1  0  0  0  0
M  END
> <PUBCHEM_COMPOUND_CID>
11679

> <PUBCHEM_COMPOUND_CANONICALIZED>
1

> <PUBCHEM_CACTVS_COMPLEXITY>
261

> <PUBCHEM_CACTVS_HBOND_ACCEPTOR>
12

> <PUBCHEM_CACTVS_HBOND_DONOR>
0

> <PUBCHEM_CACTVS_ROTATABLE_BOND>
1

> <PUBCHEM_CACTVS_SUBSKEYS>
AAADcQBgAcAAAAAAAAAAAAAAAAAAAAAAAAAAAAAAAAAAAAAAAAAACQAAAAAADAAAABAAAAAAAAAAAAAAAAAAAAAAAAAAAAAAAAAAAAAAAAAAAAAAAAAAAAAAAAAIAAAAAAAAAAAAAAAAAAAAAAAAAAAAAA==

> <PUBCHEM_IUPAC_OPENEYE_NAME>
1,1,1,2,2,3,4,4,4-nonafluoro-3-(trifluoromethyl)butane

> <PUBCHEM_IUPAC_CAS_NAME>
1,1,1,2,2,3,4,4,4-nonafluoro-3-(trifluoromethyl)butane

> <PUBCHEM_IUPAC_NAME>
1,1,1,2,2,3,4,4,4-nonafluoro-3-(trifluoromethyl)butane

> <PUBCHEM_IUPAC_SYSTEMATIC_NAME>
1,1,1,2,2,3,4,4,4-nonakis(fluoranyl)-3-(trifluoromethyl)butane

> <PUBCHEM_IUPAC_TRADITIONAL_NAME>
1,1,1,2,2,3,4,4,4-nonafluoro-3-(trifluoromethyl)butane

> <PUBCHEM_IUPAC_INCHI>
InChI=1S/C5F12/c6-1(3(9,10)11,4(12,13)14)2(7,8)5(15,16)17

> <PUBCHEM_IUPAC_INCHIKEY>
MPEFSWGYIJNMCW-UHFFFAOYSA-N

> <PUBCHEM_XLOGP3_AA>
4.5

> <PUBCHEM_EXACT_MASS>
287.980839

> <PUBCHEM_MOLECULAR_FORMULA>
C5F12

> <PUBCHEM_MOLECULAR_WEIGHT>
288.034338

> <PUBCHEM_OPENEYE_CAN_SMILES>
C(C(C(F)(F)F)(F)F)(C(F)(F)F)(C(F)(F)F)F

> <PUBCHEM_OPENEYE_ISO_SMILES>
C(C(C(F)(F)F)(F)F)(C(F)(F)F)(C(F)(F)F)F

> <PUBCHEM_CACTVS_TPSA>
0

> <PUBCHEM_MONOISOTOPIC_WEIGHT>
287.980839

> <PUBCHEM_TOTAL_CHARGE>
0

> <PUBCHEM_HEAVY_ATOM_COUNT>
17

> <PUBCHEM_ATOM_DEF_STEREO_COUNT>
0

> <PUBCHEM_ATOM_UDEF_STEREO_COUNT>
0

> <PUBCHEM_BOND_DEF_STEREO_COUNT>
0

> <PUBCHEM_BOND_UDEF_STEREO_COUNT>
0

> <PUBCHEM_ISOTOPIC_ATOM_COUNT>
0

> <PUBCHEM_COMPONENT_COUNT>
1

> <PUBCHEM_CACTVS_TAUTO_COUNT>
1

> <PUBCHEM_COORDINATE_TYPE>
1
5
255

$$$$

