   Color/Form

     * Yellow viscous oil
     * Viscous oil
     * Viscous hygroscopic liquid

   from [1]HSDB

   Octanol/Water Partition Coefficient
        log Kow = -1.69 (est)
   from [2]HSDB

   Solubilities

     * Very soluble in water, benzene, ethyl ether
     * Freely soluble in water, ethyl acetate, dioxane, glacial acetic
       acid; Moderately soluble in ether, amyl alcohol. Practically
       insoluble in benzene, chloroform.

   from [3]HSDB

   Spectral Properties
        Specific optical rotation: 37.5 deg at 25 deg C/D
   from [4]HSDB

   Vapor Pressure
        5.14X10-9 mm Hg at 25 deg C (est)
   from [5]HSDB

   Other Chemical/Physical Properties

     * 1 G EQUALS 70,000-75,000 CHICK UNITS
     * MELTING POINT: 170-172 DEG C /CA SALT/
     * Very hygroscopic crystals. Specific optical rotation: + 27.1 deg at
       25 deg C/D (C = 2) /Pantothenic acid, sodium salt/
     * Minute needles from methyl alcohol; sweetish taste with slightly
       bitter aftertaste; decomposes 195-196 deg C; moderately
       hygroscopic. Specific optical rotation: +28.2 deg at 25 deg C/D (c
       = 5). 1 g dissolves in 2.8 mL water. Soluble in glycerol; slightly
       soluble in alcohol, acetone. pH of 5% aq soln: 7.2 - 8.0; pH in
       CO2-free water: 8.7 /Calcium salt/
     * Extremely hygroscopic
     * Henry's Law constant = 4.3X10-15 atm-cu m/mol at 25 deg C (est)
     * Hydroxyl radical reaction rate constant = 2.25X10-11 cu
       cm/molec-sec at 25 deg C (est)

   from [6]HSDB

   Computed Properties
   Molecular Weight                  219.23498 [g/mol]
   Molecular Formula                 C[9]H[17]NO[5]
   XLogP3-AA                         -1.1
   H-Bond Donor                      4
   H-Bond Acceptor                   5
   Rotatable Bond Count              6
   Tautomer Count                    2
   Exact Mass                        219.110673
   MonoIsotopic Mass                 219.110673
   Topological Polar Surface Area    107
   Heavy Atom Count                  15
   Formal Charge                     0
   Complexity                        239
   Isotope Atom Count                0
   Defined Atom Stereocenter Count   1
   Undefined Atom Stereocenter Count 0
   Defined Bond Stereocenter Count   0
   Undefined Bond Stereocenter Count 0
   Covalently-Bonded Unit Count      1
   Feature 3D Acceptor Count         5
   Feature 3D Donor Count            3
   Feature 3D Anion Count            1
   Feature 3D Hydrophobe Count       1
   Effective Rotor Count             7
   Conformer Sampling RMSD           0.8
   CID Conformer Count               [7]99

References

   1. http://toxnet.nlm.nih.gov/cgi-bin/sis/search/r?dbs+hsdb:@term+@rn+@rel+79-83-4
   2. http://toxnet.nlm.nih.gov/cgi-bin/sis/search/r?dbs+hsdb:@term+@rn+@rel+79-83-4
   3. http://toxnet.nlm.nih.gov/cgi-bin/sis/search/r?dbs+hsdb:@term+@rn+@rel+79-83-4
   4. http://toxnet.nlm.nih.gov/cgi-bin/sis/search/r?dbs+hsdb:@term+@rn+@rel+79-83-4
   5. http://toxnet.nlm.nih.gov/cgi-bin/sis/search/r?dbs+hsdb:@term+@rn+@rel+79-83-4
   6. http://toxnet.nlm.nih.gov/cgi-bin/sis/search/r?dbs+hsdb:@term+@rn+@rel+79-83-4
   7. http://pubchem.ncbi.nlm.nih.gov/vw3d/vw3d.cgi?cid=6613
