   Color/Form

     * Pale yellow needles
     * Yellow needles, recrystallized from ethanol

   from [1]HSDB

   Odor
        Odorless
   from [2]HSDB

   Boiling Point
        304 deg C (sublime)
   from [3]HSDB

   Melting Point
        61 deg C
   from [4]HSDB

   Density/Specific Gravity
        1.332 @ 20 deg C
   from [5]HSDB

   Octanol/Water Partition Coefficient
        log Kow= 3.19
   from [6]HSDB

   Solubilities

     * Sol in alc; freely sol in chloroform, ether, carbon disulfide
     * Very sol in benzene and pyridine
     * In water, 9.18 mg/l @ 25 deg C

   from [7]HSDB

   Spectral Properties

     * MAX ABSORPTION (ALCOHOL): 243 NM (LOG E= 4.02); 343 NM (LOG E=
       3.60); SADTLER REFERENCE NUMBER: 5850 (IR, PRISM); 1636 (UV)
     * IR: 499 (Sadtler Research Laboratories IR Grating Collection)
     * UV: 1632 (Sadtler Research Laboratories Spectral Collection)
     * NMR: 263 (Sadtler Research Laboratories Spectral Collection)
     * MASS: 22090 (NIST/EPA/MSDC Mass Spectral Database, 1990 Version)

   from [8]HSDB

   Vapor Pressure
        4.8X10-4 mm Hg @ 25 deg C
   from [9]HSDB

   Other Chemical/Physical Properties

     * Gives dark red soln with concn sulfuric acid
     * Heat of fusion: 25.44 cal/g= 106.44 J/g= 18,432 J/mol
     * Enthalpy of formation: 10.2 kcal/mole
     * BP: 180 deg C @ 14 mm Hg
     * Henry's Law constant = 1.76X10-6 atm-cu m/mol @ 25 deg C
     * Hydroxyl radical reaction rate constant = 5.40X10-12 cu cm/molecule
       sec @ 25 deg C

   from [10]HSDB

   Computed Properties
   Molecular Weight                  173.16808 [g/mol]
   Molecular Formula                 C[10]H[7]NO[2]
   XLogP3                            3.2
   H-Bond Donor                      0
   H-Bond Acceptor                   2
   Rotatable Bond Count              0
   Exact Mass                        173.047678
   MonoIsotopic Mass                 173.047678
   Topological Polar Surface Area    45.8
   Heavy Atom Count                  13
   Formal Charge                     0
   Complexity                        200
   Isotope Atom Count                0
   Defined Atom Stereocenter Count   0
   Undefined Atom Stereocenter Count 0
   Defined Bond Stereocenter Count   0
   Undefined Bond Stereocenter Count 0
   Covalently-Bonded Unit Count      1
   Feature 3D Acceptor Count         2
   Feature 3D Anion Count            1
   Feature 3D Ring Count             2
   Effective Rotor Count             1
   Conformer Sampling RMSD           0.4
   CID Conformer Count               [11]1

References

   1. http://toxnet.nlm.nih.gov/cgi-bin/sis/search/r?dbs+hsdb:@term+@rn+@rel+86-57-7
   2. http://toxnet.nlm.nih.gov/cgi-bin/sis/search/r?dbs+hsdb:@term+@rn+@rel+86-57-7
   3. http://toxnet.nlm.nih.gov/cgi-bin/sis/search/r?dbs+hsdb:@term+@rn+@rel+86-57-7
   4. http://toxnet.nlm.nih.gov/cgi-bin/sis/search/r?dbs+hsdb:@term+@rn+@rel+86-57-7
   5. http://toxnet.nlm.nih.gov/cgi-bin/sis/search/r?dbs+hsdb:@term+@rn+@rel+86-57-7
   6. http://toxnet.nlm.nih.gov/cgi-bin/sis/search/r?dbs+hsdb:@term+@rn+@rel+86-57-7
   7. http://toxnet.nlm.nih.gov/cgi-bin/sis/search/r?dbs+hsdb:@term+@rn+@rel+86-57-7
   8. http://toxnet.nlm.nih.gov/cgi-bin/sis/search/r?dbs+hsdb:@term+@rn+@rel+86-57-7
   9. http://toxnet.nlm.nih.gov/cgi-bin/sis/search/r?dbs+hsdb:@term+@rn+@rel+86-57-7
  10. http://toxnet.nlm.nih.gov/cgi-bin/sis/search/r?dbs+hsdb:@term+@rn+@rel+86-57-7
  11. http://pubchem.ncbi.nlm.nih.gov/vw3d/vw3d.cgi?cid=6849
