442201
  -OEChem-07051212572D

 40 44  0     1  0  0  0  0  0999 V2000
    4.0425   -0.5679    0.0000 O   0  0  0  0  0  0  0  0  0  0  0  0
    6.0042    2.9996    0.0000 O   0  0  0  0  0  0  0  0  0  0  0  0
    4.3278    2.9996    0.0000 O   0  0  0  0  0  0  0  0  0  0  0  0
    2.5459   -1.4808    0.0000 O   0  0  0  0  0  0  0  0  0  0  0  0
    6.9366   -2.1162    0.0000 N   0  0  3  0  0  0  0  0  0  0  0  0
    6.0670   -1.5428    0.0000 C   0  0  2  0  0  0  0  0  0  0  0  0
    5.1660   -1.9767    0.0000 C   0  0  0  0  0  0  0  0  0  0  0  0
    6.2895   -0.5679    0.0000 C   0  0  0  0  0  0  0  0  0  0  0  0
    6.8667   -3.1555    0.0000 C   0  0  0  0  0  0  0  0  0  0  0  0
    5.0722   -3.0141    0.0000 C   0  0  0  0  0  0  0  0  0  0  0  0
    5.9282   -3.6075    0.0000 C   0  0  0  0  0  0  0  0  0  0  0  0
    5.6660    0.2140    0.0000 C   0  0  0  0  0  0  0  0  0  0  0  0
    4.2650   -1.5428    0.0000 C   0  0  0  0  0  0  0  0  0  0  0  0
    7.8324   -1.6720    0.0000 C   0  0  0  0  0  0  0  0  0  0  0  0
    4.6660    0.2140    0.0000 C   0  0  0  0  0  0  0  0  0  0  0  0
    4.2148   -3.4974    0.0000 C   0  0  0  0  0  0  0  0  0  0  0  0
    3.3967   -2.0062    0.0000 C   0  0  0  0  0  0  0  0  0  0  0  0
    6.2007    1.1079    0.0000 C   0  0  0  0  0  0  0  0  0  0  0  0
    3.3714   -2.9900    0.0000 C   0  0  0  0  0  0  0  0  0  0  0  0
    4.1314    1.1079    0.0000 C   0  0  0  0  0  0  0  0  0  0  0  0
    5.6868    2.0140    0.0000 C   0  0  0  0  0  0  0  0  0  0  0  0
    4.6452    2.0140    0.0000 C   0  0  0  0  0  0  0  0  0  0  0  0
    5.1660    3.6075    0.0000 C   0  0  0  0  0  0  0  0  0  0  0  0
    6.8558   -1.2262    0.0000 H   0  0  0  0  0  0  0  0  0  0  0  0
    6.8481   -0.8369    0.0000 H   0  0  0  0  0  0  0  0  0  0  0  0
    6.6761   -0.0831    0.0000 H   0  0  0  0  0  0  0  0  0  0  0  0
    7.0362   -3.7519    0.0000 H   0  0  0  0  0  0  0  0  0  0  0  0
    7.4833   -3.0906    0.0000 H   0  0  0  0  0  0  0  0  0  0  0  0
    5.4931   -4.0491    0.0000 H   0  0  0  0  0  0  0  0  0  0  0  0
    6.2889   -4.1118    0.0000 H   0  0  0  0  0  0  0  0  0  0  0  0
    8.1079   -2.2274    0.0000 H   0  0  0  0  0  0  0  0  0  0  0  0
    8.3879   -1.3965    0.0000 H   0  0  0  0  0  0  0  0  0  0  0  0
    7.5570   -1.1165    0.0000 H   0  0  0  0  0  0  0  0  0  0  0  0
    4.2060   -4.1173    0.0000 H   0  0  0  0  0  0  0  0  0  0  0  0
    6.8206    1.1007    0.0000 H   0  0  0  0  0  0  0  0  0  0  0  0
    2.8279   -3.2882    0.0000 H   0  0  0  0  0  0  0  0  0  0  0  0
    3.5114    1.1007    0.0000 H   0  0  0  0  0  0  0  0  0  0  0  0
    5.5807    4.0684    0.0000 H   0  0  0  0  0  0  0  0  0  0  0  0
    4.7513    4.0684    0.0000 H   0  0  0  0  0  0  0  0  0  0  0  0
    2.0000   -1.7748    0.0000 H   0  0  0  0  0  0  0  0  0  0  0  0
  1 13  1  0  0  0  0
  1 15  1  0  0  0  0
  2 21  1  0  0  0  0
  2 23  1  0  0  0  0
  3 22  1  0  0  0  0
  3 23  1  0  0  0  0
  4 17  1  0  0  0  0
  4 40  1  0  0  0  0
  5  6  1  0  0  0  0
  5  9  1  0  0  0  0
  5 14  1  0  0  0  0
  6  7  1  0  0  0  0
  6  8  1  0  0  0  0
  6 24  1  1  0  0  0
  7 10  2  0  0  0  0
  7 13  1  0  0  0  0
  8 12  1  0  0  0  0
  8 25  1  0  0  0  0
  8 26  1  0  0  0  0
  9 11  1  0  0  0  0
  9 27  1  0  0  0  0
  9 28  1  0  0  0  0
 10 11  1  0  0  0  0
 10 16  1  0  0  0  0
 11 29  1  0  0  0  0
 11 30  1  0  0  0  0
 12 15  1  0  0  0  0
 12 18  2  0  0  0  0
 13 17  2  0  0  0  0
 14 31  1  0  0  0  0
 14 32  1  0  0  0  0
 14 33  1  0  0  0  0
 15 20  2  0  0  0  0
 16 19  2  0  0  0  0
 16 34  1  0  0  0  0
 17 19  1  0  0  0  0
 18 21  1  0  0  0  0
 18 35  1  0  0  0  0
 19 36  1  0  0  0  0
 20 22  1  0  0  0  0
 20 37  1  0  0  0  0
 21 22  2  0  0  0  0
 23 38  1  0  0  0  0
 23 39  1  0  0  0  0
M  END
> <PUBCHEM_COMPOUND_CID>
442201

> <PUBCHEM_COMPOUND_CANONICALIZED>
1

> <PUBCHEM_CACTVS_COMPLEXITY>
460

> <PUBCHEM_CACTVS_HBOND_ACCEPTOR>
5

> <PUBCHEM_CACTVS_HBOND_DONOR>
1

> <PUBCHEM_CACTVS_ROTATABLE_BOND>
0

> <PUBCHEM_CACTVS_SUBSKEYS>
AAADceB6OAAAAAAAAAAAAAAAAAAAASAAAAA8YIAABIAAAEixQAAAHgAACAAADCzBmAcyDoMABgCAAiBCAACCCAAgIAAIiAAOjIgdJyKGsRumeCvnwBWPuAfw8P8OoQABCAAYQABCAAIQADCAAAAAAAAAAA==

> <PUBCHEM_IUPAC_INCHI>
InChI=1S/C18H17NO4/c1-19-5-4-10-2-3-13(20)18-17(10)12(19)6-11-7-15-16(22-9-21-15)8-14(11)23-18/h2-3,7-8,12,20H,4-6,9H2,1H3/t12-/m0/s1

> <PUBCHEM_IUPAC_INCHIKEY>
RUNKBNVIYGVBMW-LBPRGKRZSA-N

> <PUBCHEM_XLOGP3_AA>
2.8

> <PUBCHEM_EXACT_MASS>
311.115758

> <PUBCHEM_MOLECULAR_FORMULA>
C18H17NO4

> <PUBCHEM_MOLECULAR_WEIGHT>
311.33188

> <PUBCHEM_OPENEYE_CAN_SMILES>
CN1CCC2=C3C1CC4=CC5=C(C=C4OC3=C(C=C2)O)OCO5

> <PUBCHEM_OPENEYE_ISO_SMILES>
CN1CCC2=C3[C@@H]1CC4=CC5=C(C=C4OC3=C(C=C2)O)OCO5

> <PUBCHEM_CACTVS_TPSA>
51.2

> <PUBCHEM_MONOISOTOPIC_WEIGHT>
311.115758

> <PUBCHEM_TOTAL_CHARGE>
0

> <PUBCHEM_HEAVY_ATOM_COUNT>
23

> <PUBCHEM_ATOM_DEF_STEREO_COUNT>
1

> <PUBCHEM_ATOM_UDEF_STEREO_COUNT>
0

> <PUBCHEM_BOND_DEF_STEREO_COUNT>
0

> <PUBCHEM_BOND_UDEF_STEREO_COUNT>
0

> <PUBCHEM_ISOTOPIC_ATOM_COUNT>
0

> <PUBCHEM_COMPONENT_COUNT>
1

> <PUBCHEM_CACTVS_TAUTO_COUNT>
2

> <PUBCHEM_COORDINATE_TYPE>
1
5
255

> <PUBCHEM_BONDANNOTATIONS>
10  16  8
12  15  8
12  18  8
13  17  8
15  20  8
16  19  8
17  19  8
18  21  8
20  22  8
21  22  8
6  24  5
7  10  8
7  13  8

$$$$

