441901
  -OEChem-07051212562D

113120  0     1  0  0  0  0  0999 V2000
    5.5954   -4.3916    0.0000 O   0  0  0  0  0  0  0  0  0  0  0  0
    3.9300   -3.3104    0.0000 O   0  0  0  0  0  0  0  0  0  0  0  0
   12.0027    0.9876    0.0000 O   0  0  0  0  0  0  0  0  0  0  0  0
   12.8630    2.4909    0.0000 O   0  0  0  0  0  0  0  0  0  0  0  0
   10.2668    1.9809    0.0000 O   0  0  0  0  0  0  0  0  0  0  0  0
   10.2591    3.9809    0.0000 O   0  0  0  0  0  0  0  0  0  0  0  0
   11.9873    4.9876    0.0000 O   0  0  0  0  0  0  0  0  0  0  0  0
    9.3950    3.4776    0.0000 O   0  0  0  0  0  0  0  0  0  0  0  0
   14.5912    3.4976    0.0000 O   0  0  0  0  0  0  0  0  0  0  0  0
    8.5387    0.9743    0.0000 O   0  0  0  0  0  0  0  0  0  0  0  0
    6.8028    1.9676    0.0000 O   0  0  0  0  0  0  0  0  0  0  0  0
    6.7951    3.9676    0.0000 O   0  0  0  0  0  0  0  0  0  0  0  0
    6.6628   -2.1568    0.0000 C   0  0  1  0  0  0  0  0  0  0  0  0
    7.5288   -2.6568    0.0000 C   0  0  2  0  0  0  0  0  0  0  0  0
    5.9258   -2.8239    0.0000 C   0  0  2  0  0  0  0  0  0  0  0  0
    8.3948   -2.1568    0.0000 C   0  0  1  0  0  0  0  0  0  0  0  0
    6.3309   -3.7316    0.0000 C   0  0  2  0  0  0  0  0  0  0  0  0
    8.3948   -1.1568    0.0000 C   0  0  2  0  0  0  0  0  0  0  0  0
    7.3196   -3.6286    0.0000 C   0  0  0  0  0  0  0  0  0  0  0  0
    6.6628   -1.1568    0.0000 C   0  0  0  0  0  0  0  0  0  0  0  0
    4.9434   -2.9306    0.0000 C   0  0  1  0  0  0  0  0  0  0  0  0
    7.5288   -0.6568    0.0000 C   0  0  0  0  0  0  0  0  0  0  0  0
    9.2888   -0.6221    0.0000 C   0  0  2  0  0  0  0  0  0  0  0  0
    4.7396   -3.8975    0.0000 C   0  0  1  0  0  0  0  0  0  0  0  0
    5.7968   -1.6568    0.0000 C   0  0  0  0  0  0  0  0  0  0  0  0
    9.2888   -2.6914    0.0000 C   0  0  0  0  0  0  0  0  0  0  0  0
   10.1949   -1.1360    0.0000 C   0  0  0  0  0  0  0  0  0  0  0  0
    9.2637    0.4626    0.0000 C   0  0  0  0  0  0  0  0  0  0  0  0
    4.2723   -2.1892    0.0000 C   0  0  0  0  0  0  0  0  0  0  0  0
    4.6359   -4.8921    0.0000 C   0  0  0  0  0  0  0  0  0  0  0  0
   10.1949   -2.1776    0.0000 C   0  0  0  0  0  0  0  0  0  0  0  0
    8.4189   -0.1288    0.0000 C   0  0  0  0  0  0  0  0  0  0  0  0
   11.1386   -0.6007    0.0000 C   0  0  0  0  0  0  0  0  0  0  0  0
   10.1949    1.0195    0.0000 C   0  0  0  0  0  0  0  0  0  0  0  0
   11.1386    0.4843    0.0000 C   0  0  2  0  0  0  0  0  0  0  0  0
    3.7227   -5.2996    0.0000 C   0  0  0  0  0  0  0  0  0  0  0  0
    2.9132   -4.7126    0.0000 C   0  0  1  0  0  0  0  0  0  0  0  0
    3.0169   -3.7180    0.0000 C   0  0  0  0  0  0  0  0  0  0  0  0
    2.0000   -5.1201    0.0000 C   0  0  0  0  0  0  0  0  0  0  0  0
   11.9989    1.9876    0.0000 C   0  0  2  0  0  0  0  0  0  0  0  0
   11.1309    2.4843    0.0000 C   0  0  1  0  0  0  0  0  0  0  0  0
   11.1271    3.4842    0.0000 C   0  0  2  0  0  0  0  0  0  0  0  0
   12.8591    3.4909    0.0000 C   0  0  1  0  0  0  0  0  0  0  0  0
   11.9912    3.9876    0.0000 C   0  0  1  0  0  0  0  0  0  0  0  0
   13.7232    3.9943    0.0000 C   0  0  0  0  0  0  0  0  0  0  0  0
    9.3989    2.4776    0.0000 C   0  0  2  0  0  0  0  0  0  0  0  0
    8.5348    1.9742    0.0000 C   0  0  1  0  0  0  0  0  0  0  0  0
    7.6669    2.4709    0.0000 C   0  0  1  0  0  0  0  0  0  0  0  0
    8.5271    3.9742    0.0000 C   0  0  2  0  0  0  0  0  0  0  0  0
    7.6630    3.4709    0.0000 C   0  0  2  0  0  0  0  0  0  0  0  0
    8.5232    4.9742    0.0000 C   0  0  0  0  0  0  0  0  0  0  0  0
    8.2158   -3.1573    0.0000 H   0  0  0  0  0  0  0  0  0  0  0  0
    5.5777   -2.0484    0.0000 H   0  0  0  0  0  0  0  0  0  0  0  0
    8.3883   -3.0067    0.0000 H   0  0  0  0  0  0  0  0  0  0  0  0
    6.6756   -4.5086    0.0000 H   0  0  0  0  0  0  0  0  0  0  0  0
    8.3883   -0.3068    0.0000 H   0  0  0  0  0  0  0  0  0  0  0  0
    7.3187   -4.2486    0.0000 H   0  0  0  0  0  0  0  0  0  0  0  0
    7.9361   -3.6946    0.0000 H   0  0  0  0  0  0  0  0  0  0  0  0
    6.4507   -0.5742    0.0000 H   0  0  0  0  0  0  0  0  0  0  0  0
    6.0522   -1.2644    0.0000 H   0  0  0  0  0  0  0  0  0  0  0  0
    4.3448   -3.0923    0.0000 H   0  0  0  0  0  0  0  0  0  0  0  0
    7.9274   -0.1818    0.0000 H   0  0  0  0  0  0  0  0  0  0  0  0
    7.1303   -0.1818    0.0000 H   0  0  0  0  0  0  0  0  0  0  0  0
    6.1068   -1.1198    0.0000 H   0  0  0  0  0  0  0  0  0  0  0  0
    5.2598   -1.3468    0.0000 H   0  0  0  0  0  0  0  0  0  0  0  0
    5.4868   -2.1937    0.0000 H   0  0  0  0  0  0  0  0  0  0  0  0
    8.8842   -3.1612    0.0000 H   0  0  0  0  0  0  0  0  0  0  0  0
    9.6824   -3.1705    0.0000 H   0  0  0  0  0  0  0  0  0  0  0  0
    9.0412    1.0413    0.0000 H   0  0  0  0  0  0  0  0  0  0  0  0
    8.6555    0.3424    0.0000 H   0  0  0  0  0  0  0  0  0  0  0  0
    4.7320   -1.7731    0.0000 H   0  0  0  0  0  0  0  0  0  0  0  0
    3.8562   -1.7295    0.0000 H   0  0  0  0  0  0  0  0  0  0  0  0
    3.8126   -2.6052    0.0000 H   0  0  0  0  0  0  0  0  0  0  0  0
    4.7864   -5.4936    0.0000 H   0  0  0  0  0  0  0  0  0  0  0  0
    5.2544   -4.8483    0.0000 H   0  0  0  0  0  0  0  0  0  0  0  0
   10.7306   -2.4897    0.0000 H   0  0  0  0  0  0  0  0  0  0  0  0
    8.7248    0.4105    0.0000 H   0  0  0  0  0  0  0  0  0  0  0  0
    7.8796    0.1770    0.0000 H   0  0  0  0  0  0  0  0  0  0  0  0
    8.1131   -0.6681    0.0000 H   0  0  0  0  0  0  0  0  0  0  0  0
   11.3477   -1.1844    0.0000 H   0  0  0  0  0  0  0  0  0  0  0  0
   11.7495   -0.4946    0.0000 H   0  0  0  0  0  0  0  0  0  0  0  0
   10.5885    1.4985    0.0000 H   0  0  0  0  0  0  0  0  0  0  0  0
    9.7903    1.4893    0.0000 H   0  0  0  0  0  0  0  0  0  0  0  0
   11.1351    1.1043    0.0000 H   0  0  0  0  0  0  0  0  0  0  0  0
    3.2771   -5.7307    0.0000 H   0  0  0  0  0  0  0  0  0  0  0  0
    4.0699   -5.8134    0.0000 H   0  0  0  0  0  0  0  0  0  0  0  0
    2.4113   -4.3486    0.0000 H   0  0  0  0  0  0  0  0  0  0  0  0
    2.8664   -3.1165    0.0000 H   0  0  0  0  0  0  0  0  0  0  0  0
    2.3984   -3.7617    0.0000 H   0  0  0  0  0  0  0  0  0  0  0  0
    1.7473   -4.5539    0.0000 H   0  0  0  0  0  0  0  0  0  0  0  0
    1.4338   -5.3728    0.0000 H   0  0  0  0  0  0  0  0  0  0  0  0
    2.2527   -5.6863    0.0000 H   0  0  0  0  0  0  0  0  0  0  0  0
   11.4631    1.6755    0.0000 H   0  0  0  0  0  0  0  0  0  0  0  0
   10.5928    2.7922    0.0000 H   0  0  0  0  0  0  0  0  0  0  0  0
   11.1247    4.1043    0.0000 H   0  0  0  0  0  0  0  0  0  0  0  0
   13.3972    3.1830    0.0000 H   0  0  0  0  0  0  0  0  0  0  0  0
   11.4530    4.2955    0.0000 H   0  0  0  0  0  0  0  0  0  0  0  0
   14.1199    4.4707    0.0000 H   0  0  0  0  0  0  0  0  0  0  0  0
   13.3229    4.4677    0.0000 H   0  0  0  0  0  0  0  0  0  0  0  0
    9.4013    1.8576    0.0000 H   0  0  0  0  0  0  0  0  0  0  0  0
   10.2567    4.6009    0.0000 H   0  0  0  0  0  0  0  0  0  0  0  0
   12.5231    5.2996    0.0000 H   0  0  0  0  0  0  0  0  0  0  0  0
    7.9991    1.6622    0.0000 H   0  0  0  0  0  0  0  0  0  0  0  0
    7.1287    2.7788    0.0000 H   0  0  0  0  0  0  0  0  0  0  0  0
   15.1269    3.8097    0.0000 H   0  0  0  0  0  0  0  0  0  0  0  0
    9.0628    4.2863    0.0000 H   0  0  0  0  0  0  0  0  0  0  0  0
    7.6606    4.0909    0.0000 H   0  0  0  0  0  0  0  0  0  0  0  0
    8.0029    0.6622    0.0000 H   0  0  0  0  0  0  0  0  0  0  0  0
    9.1432    4.9766    0.0000 H   0  0  0  0  0  0  0  0  0  0  0  0
    8.5208    5.5942    0.0000 H   0  0  0  0  0  0  0  0  0  0  0  0
    7.9032    4.9718    0.0000 H   0  0  0  0  0  0  0  0  0  0  0  0
    6.2646    2.2755    0.0000 H   0  0  0  0  0  0  0  0  0  0  0  0
    6.7927    4.5876    0.0000 H   0  0  0  0  0  0  0  0  0  0  0  0
  1 17  1  0  0  0  0
 24  1  1  1  0  0  0
  2 24  1  0  0  0  0
  2 38  1  0  0  0  0
 35  3  1  6  0  0  0
 40  3  1  1  0  0  0
  4 40  1  0  0  0  0
  4 43  1  0  0  0  0
 41  5  1  6  0  0  0
 46  5  1  1  0  0  0
 42  6  1  1  0  0  0
  6101  1  0  0  0  0
 44  7  1  6  0  0  0
  7102  1  0  0  0  0
  8 46  1  0  0  0  0
  8 49  1  0  0  0  0
  9 45  1  0  0  0  0
  9105  1  0  0  0  0
 47 10  1  6  0  0  0
 10108  1  0  0  0  0
 48 11  1  6  0  0  0
 11112  1  0  0  0  0
 50 12  1  1  0  0  0
 12113  1  0  0  0  0
 13 14  1  0  0  0  0
 13 15  1  0  0  0  0
 13 20  1  0  0  0  0
 13 25  1  6  0  0  0
 14 16  1  0  0  0  0
 14 19  1  0  0  0  0
 14 52  1  1  0  0  0
 15 17  1  0  0  0  0
 15 21  1  0  0  0  0
 15 53  1  1  0  0  0
 16 18  1  0  0  0  0
 16 26  1  0  0  0  0
 16 54  1  6  0  0  0
 17 19  1  0  0  0  0
 17 55  1  1  0  0  0
 18 22  1  0  0  0  0
 18 23  1  0  0  0  0
 18 56  1  1  0  0  0
 19 57  1  0  0  0  0
 19 58  1  0  0  0  0
 20 22  1  0  0  0  0
 20 59  1  0  0  0  0
 20 60  1  0  0  0  0
 21 24  1  0  0  0  0
 21 29  1  1  0  0  0
 21 61  1  0  0  0  0
 22 62  1  0  0  0  0
 22 63  1  0  0  0  0
 23 27  1  0  0  0  0
 23 28  1  0  0  0  0
 23 32  1  6  0  0  0
 24 30  1  0  0  0  0
 25 64  1  0  0  0  0
 25 65  1  0  0  0  0
 25 66  1  0  0  0  0
 26 31  1  0  0  0  0
 26 67  1  0  0  0  0
 26 68  1  0  0  0  0
 27 31  2  0  0  0  0
 27 33  1  0  0  0  0
 28 34  1  0  0  0  0
 28 69  1  0  0  0  0
 28 70  1  0  0  0  0
 29 71  1  0  0  0  0
 29 72  1  0  0  0  0
 29 73  1  0  0  0  0
 30 36  1  0  0  0  0
 30 74  1  0  0  0  0
 30 75  1  0  0  0  0
 31 76  1  0  0  0  0
 32 77  1  0  0  0  0
 32 78  1  0  0  0  0
 32 79  1  0  0  0  0
 33 35  1  0  0  0  0
 33 80  1  0  0  0  0
 33 81  1  0  0  0  0
 34 35  1  0  0  0  0
 34 82  1  0  0  0  0
 34 83  1  0  0  0  0
 35 84  1  0  0  0  0
 36 37  1  0  0  0  0
 36 85  1  0  0  0  0
 36 86  1  0  0  0  0
 37 38  1  0  0  0  0
 37 39  1  6  0  0  0
 37 87  1  0  0  0  0
 38 88  1  0  0  0  0
 38 89  1  0  0  0  0
 39 90  1  0  0  0  0
 39 91  1  0  0  0  0
 39 92  1  0  0  0  0
 40 41  1  0  0  0  0
 40 93  1  0  0  0  0
 41 42  1  0  0  0  0
 41 94  1  0  0  0  0
 42 44  1  0  0  0  0
 42 95  1  0  0  0  0
 43 44  1  0  0  0  0
 43 45  1  1  0  0  0
 43 96  1  0  0  0  0
 44 97  1  0  0  0  0
 45 98  1  0  0  0  0
 45 99  1  0  0  0  0
 46 47  1  0  0  0  0
 46100  1  0  0  0  0
 47 48  1  0  0  0  0
 47103  1  0  0  0  0
 48 50  1  0  0  0  0
 48104  1  0  0  0  0
 49 50  1  0  0  0  0
 49 51  1  6  0  0  0
 49106  1  0  0  0  0
 50107  1  0  0  0  0
 51109  1  0  0  0  0
 51110  1  0  0  0  0
 51111  1  0  0  0  0
M  END
> <PUBCHEM_COMPOUND_CID>
441901

> <PUBCHEM_COMPOUND_CANONICALIZED>
1

> <PUBCHEM_CACTVS_COMPLEXITY>
1310

> <PUBCHEM_CACTVS_HBOND_ACCEPTOR>
12

> <PUBCHEM_CACTVS_HBOND_DONOR>
6

> <PUBCHEM_CACTVS_ROTATABLE_BOND>
5

> <PUBCHEM_CACTVS_SUBSKEYS>
AAADcfB8PAAAAAAAAAAAAAAAAAAAAaIAAAA0aJECAAASAGCAAAAAGgAACAAADxSwgAMCCAAABgCAAiBCAAAAAAAgAAAACAAAAAgREAIAAQAiQAAFwAAPAAPA4PwPgAAAAAAAAADAAAQAACAAAYAADAAAAA==

> <PUBCHEM_IUPAC_INCHI>
InChI=1S/C39H62O12/c1-18-8-13-39(46-17-18)19(2)28-26(51-39)15-25-23-7-6-21-14-22(9-11-37(21,4)24(23)10-12-38(25,28)5)48-36-34(32(44)30(42)27(16-40)49-36)50-35-33(45)31(43)29(41)20(3)47-35/h6,18-20,22-36,40-45H,7-17H2,1-5H3/t18-,19-,20-,22-,23+,24-,25-,26-,27+,28-,29-,30+,31+,32-,33+,34+,35-,36+,37-,38-,39+/m0/s1

> <PUBCHEM_IUPAC_INCHIKEY>
HDXIQHTUNGFJIC-SFYWSABLSA-N

> <PUBCHEM_XLOGP3_AA>
3

> <PUBCHEM_EXACT_MASS>
722.424127

> <PUBCHEM_MOLECULAR_FORMULA>
C39H62O12

> <PUBCHEM_MOLECULAR_WEIGHT>
722.90238

> <PUBCHEM_OPENEYE_CAN_SMILES>
CC1CCC2(C(C3C(O2)CC4C3(CCC5C4CC=C6C5(CCC(C6)OC7C(C(C(C(O7)CO)O)O)OC8C(C(C(C(O8)C)O)O)O)C)C)C)OC1

> <PUBCHEM_OPENEYE_ISO_SMILES>
C[C@H]1CC[C@@]2([C@H]([C@H]3[C@@H](O2)C[C@@H]4[C@@]3(CC[C@H]5[C@H]4CC=C6[C@@]5(CC[C@@H](C6)O[C@H]7[C@@H]([C@H]([C@@H]([C@H](O7)CO)O)O)O[C@H]8[C@@H]([C@@H]([C@H]([C@@H](O8)C)O)O)O)C)C)C)OC1

> <PUBCHEM_CACTVS_TPSA>
177

> <PUBCHEM_MONOISOTOPIC_WEIGHT>
722.424127

> <PUBCHEM_TOTAL_CHARGE>
0

> <PUBCHEM_HEAVY_ATOM_COUNT>
51

> <PUBCHEM_ATOM_DEF_STEREO_COUNT>
21

> <PUBCHEM_ATOM_UDEF_STEREO_COUNT>
0

> <PUBCHEM_BOND_DEF_STEREO_COUNT>
0

> <PUBCHEM_BOND_UDEF_STEREO_COUNT>
0

> <PUBCHEM_ISOTOPIC_ATOM_COUNT>
0

> <PUBCHEM_COMPONENT_COUNT>
1

> <PUBCHEM_CACTVS_TAUTO_COUNT>
1

> <PUBCHEM_COORDINATE_TYPE>
1
5
255

> <PUBCHEM_BONDANNOTATIONS>
24  1  5
47  10  6
48  11  6
50  12  5
13  25  6
14  52  5
15  53  5
16  54  6
17  55  5
18  56  5
21  29  5
23  32  6
35  3  6
40  3  5
37  39  6
43  45  5
49  51  6
41  5  6
46  5  5
42  6  5
44  7  6

$$$$

