243356
  -OEChem-07051213062D

 60 63  0     1  0  0  0  0  0999 V2000
   10.5383    2.0991    0.0000 O   0  0  0  0  0  0  0  0  0  0  0  0
    3.3889   -1.8443    0.0000 O   0  0  0  0  0  0  0  0  0  0  0  0
    2.5333   -0.2427    0.0000 O   0  0  0  0  0  0  0  0  0  0  0  0
    7.0500    0.2080    0.0000 C   0  0  1  0  0  0  0  0  0  0  0  0
    7.9160   -0.2920    0.0000 C   0  0  2  0  0  0  0  0  0  0  0  0
    8.7820    0.2080    0.0000 C   0  0  1  0  0  0  0  0  0  0  0  0
    8.7820    1.2080    0.0000 C   0  0  1  0  0  0  0  0  0  0  0  0
    6.1400   -0.2988    0.0000 C   0  0  2  0  0  0  0  0  0  0  0  0
    6.1319   -1.3404    0.0000 C   0  0  1  0  0  0  0  0  0  0  0  0
    7.0500    1.2080    0.0000 C   0  0  0  0  0  0  0  0  0  0  0  0
    9.7282    1.5127    0.0000 C   0  0  2  0  0  0  0  0  0  0  0  0
    7.9160    1.7080    0.0000 C   0  0  0  0  0  0  0  0  0  0  0  0
    7.9321   -1.3335    0.0000 C   0  0  0  0  0  0  0  0  0  0  0  0
    9.7282   -0.0967    0.0000 C   0  0  0  0  0  0  0  0  0  0  0  0
    7.0340   -1.8613    0.0000 C   0  0  0  0  0  0  0  0  0  0  0  0
    5.2131    0.2652    0.0000 C   0  0  0  0  0  0  0  0  0  0  0  0
   10.3119    0.7080    0.0000 C   0  0  0  0  0  0  0  0  0  0  0  0
    5.1965   -1.8902    0.0000 C   0  0  0  0  0  0  0  0  0  0  0  0
    4.2652   -0.2627    0.0000 C   0  0  2  0  0  0  0  0  0  0  0  0
    8.7820    2.2080    0.0000 C   0  0  0  0  0  0  0  0  0  0  0  0
    6.1477    0.7011    0.0000 C   0  0  0  0  0  0  0  0  0  0  0  0
    4.2569   -1.3477    0.0000 C   0  0  2  0  0  0  0  0  0  0  0  0
    9.4209    2.4643    0.0000 C   0  0  0  0  0  0  0  0  0  0  0  0
    3.4051    0.2473    0.0000 C   0  0  0  0  0  0  0  0  0  0  0  0
    7.7861    0.6330    0.0000 H   0  0  0  0  0  0  0  0  0  0  0  0
    8.6554   -0.7113    0.0000 H   0  0  0  0  0  0  0  0  0  0  0  0
    8.8720   -0.6372    0.0000 H   0  0  0  0  0  0  0  0  0  0  0  0
    6.1352   -2.1904    0.0000 H   0  0  0  0  0  0  0  0  0  0  0  0
    6.8379    1.7906    0.0000 H   0  0  0  0  0  0  0  0  0  0  0  0
    6.4394    1.1003    0.0000 H   0  0  0  0  0  0  0  0  0  0  0  0
    8.3145    2.1830    0.0000 H   0  0  0  0  0  0  0  0  0  0  0  0
    7.5175    2.1830    0.0000 H   0  0  0  0  0  0  0  0  0  0  0  0
    8.1501   -1.9139    0.0000 H   0  0  0  0  0  0  0  0  0  0  0  0
    8.5412   -1.2180    0.0000 H   0  0  0  0  0  0  0  0  0  0  0  0
    9.4772   -0.6636    0.0000 H   0  0  0  0  0  0  0  0  0  0  0  0
   10.2656   -0.4060    0.0000 H   0  0  0  0  0  0  0  0  0  0  0  0
    6.6367   -2.3372    0.0000 H   0  0  0  0  0  0  0  0  0  0  0  0
    7.4350   -2.3342    0.0000 H   0  0  0  0  0  0  0  0  0  0  0  0
    5.6213    0.7319    0.0000 H   0  0  0  0  0  0  0  0  0  0  0  0
    4.8232    0.7473    0.0000 H   0  0  0  0  0  0  0  0  0  0  0  0
   10.7727    0.2933    0.0000 H   0  0  0  0  0  0  0  0  0  0  0  0
   10.7727    1.1227    0.0000 H   0  0  0  0  0  0  0  0  0  0  0  0
    4.7992   -2.3661    0.0000 H   0  0  0  0  0  0  0  0  0  0  0  0
    5.5975   -2.3631    0.0000 H   0  0  0  0  0  0  0  0  0  0  0  0
    4.2736    0.3572    0.0000 H   0  0  0  0  0  0  0  0  0  0  0  0
    9.4020    2.2080    0.0000 H   0  0  0  0  0  0  0  0  0  0  0  0
    8.7820    2.8280    0.0000 H   0  0  0  0  0  0  0  0  0  0  0  0
    8.1620    2.2080    0.0000 H   0  0  0  0  0  0  0  0  0  0  0  0
    6.7677    0.6963    0.0000 H   0  0  0  0  0  0  0  0  0  0  0  0
    6.1525    1.3211    0.0000 H   0  0  0  0  0  0  0  0  0  0  0  0
    5.5277    0.7059    0.0000 H   0  0  0  0  0  0  0  0  0  0  0  0
    3.7218   -1.0346    0.0000 H   0  0  0  0  0  0  0  0  0  0  0  0
   10.0109    2.6549    0.0000 H   0  0  0  0  0  0  0  0  0  0  0  0
    9.2303    3.0543    0.0000 H   0  0  0  0  0  0  0  0  0  0  0  0
    8.8309    2.2738    0.0000 H   0  0  0  0  0  0  0  0  0  0  0  0
   11.1042    1.8460    0.0000 H   0  0  0  0  0  0  0  0  0  0  0  0
    3.8091    0.7176    0.0000 H   0  0  0  0  0  0  0  0  0  0  0  0
    3.0120    0.7268    0.0000 H   0  0  0  0  0  0  0  0  0  0  0  0
    3.3866   -2.4643    0.0000 H   0  0  0  0  0  0  0  0  0  0  0  0
    2.0000    0.0735    0.0000 H   0  0  0  0  0  0  0  0  0  0  0  0
 11  1  1  1  0  0  0
  1 56  1  0  0  0  0
 22  2  1  1  0  0  0
  2 59  1  0  0  0  0
  3 24  1  0  0  0  0
  3 60  1  0  0  0  0
  4  5  1  0  0  0  0
  4  8  1  0  0  0  0
  4 10  1  0  0  0  0
  4 25  1  6  0  0  0
  5  6  1  0  0  0  0
  5 13  1  0  0  0  0
  5 26  1  1  0  0  0
  6  7  1  0  0  0  0
  6 14  1  0  0  0  0
  6 27  1  6  0  0  0
  7 11  1  0  0  0  0
  7 12  1  0  0  0  0
  7 20  1  1  0  0  0
  8  9  1  0  0  0  0
  8 16  1  0  0  0  0
  8 21  1  1  0  0  0
  9 15  1  0  0  0  0
  9 18  1  0  0  0  0
  9 28  1  6  0  0  0
 10 12  1  0  0  0  0
 10 29  1  0  0  0  0
 10 30  1  0  0  0  0
 11 17  1  0  0  0  0
 11 23  1  0  0  0  0
 12 31  1  0  0  0  0
 12 32  1  0  0  0  0
 13 15  1  0  0  0  0
 13 33  1  0  0  0  0
 13 34  1  0  0  0  0
 14 17  1  0  0  0  0
 14 35  1  0  0  0  0
 14 36  1  0  0  0  0
 15 37  1  0  0  0  0
 15 38  1  0  0  0  0
 16 19  1  0  0  0  0
 16 39  1  0  0  0  0
 16 40  1  0  0  0  0
 17 41  1  0  0  0  0
 17 42  1  0  0  0  0
 18 22  1  0  0  0  0
 18 43  1  0  0  0  0
 18 44  1  0  0  0  0
 19 22  1  0  0  0  0
 19 24  1  6  0  0  0
 19 45  1  0  0  0  0
 20 46  1  0  0  0  0
 20 47  1  0  0  0  0
 20 48  1  0  0  0  0
 21 49  1  0  0  0  0
 21 50  1  0  0  0  0
 21 51  1  0  0  0  0
 22 52  1  0  0  0  0
 23 53  1  0  0  0  0
 23 54  1  0  0  0  0
 23 55  1  0  0  0  0
 24 57  1  0  0  0  0
 24 58  1  0  0  0  0
M  END
> <PUBCHEM_COMPOUND_CID>
243356

> <PUBCHEM_COMPOUND_CANONICALIZED>
1

> <PUBCHEM_CACTVS_COMPLEXITY>
507

> <PUBCHEM_CACTVS_HBOND_ACCEPTOR>
3

> <PUBCHEM_CACTVS_HBOND_DONOR>
3

> <PUBCHEM_CACTVS_ROTATABLE_BOND>
1

> <PUBCHEM_CACTVS_SUBSKEYS>
AAADcfB4MAAAAAAAAAAAAAAAAAAAAYAAAAAwYMAAAAAAAGDAAAAAGgAACAAAD1SggAICAAAAAgAAAAAAAAAAAAAAAAAAAAAAAAAAEAIAAAAAQAAFAAAAAAGAwPAPgAAAAAAAAADAAAYAADAAAYAADAAAAA==

> <PUBCHEM_IUPAC_OPENEYE_NAME>
(2S,3R,5S,8R,9S,10S,13S,14S,17S)-2-(hydroxymethyl)-10,13,17-trimethyl-1,2,3,4,5,6,7,8,9,11,12,14,15,16-tetradecahydrocyclopenta[a]phenanthrene-3,17-diol

> <PUBCHEM_IUPAC_CAS_NAME>
(2S,3R,5S,8R,9S,10S,13S,14S,17S)-2-(hydroxymethyl)-10,13,17-trimethyl-1,2,3,4,5,6,7,8,9,11,12,14,15,16-tetradecahydrocyclopenta[a]phenanthrene-3,17-diol

> <PUBCHEM_IUPAC_NAME>
(2S,3R,5S,8R,9S,10S,13S,14S,17S)-2-(hydroxymethyl)-10,13,17-trimethyl-1,2,3,4,5,6,7,8,9,11,12,14,15,16-tetradecahydrocyclopenta[a]phenanthrene-3,17-diol

> <PUBCHEM_IUPAC_SYSTEMATIC_NAME>
(2S,3R,5S,8R,9S,10S,13S,14S,17S)-2-(hydroxymethyl)-10,13,17-trimethyl-1,2,3,4,5,6,7,8,9,11,12,14,15,16-tetradecahydrocyclopenta[a]phenanthrene-3,17-diol

> <PUBCHEM_IUPAC_TRADITIONAL_NAME>
(2S,3R,5S,8R,9S,10S,13S,14S,17S)-10,13,17-trimethyl-2-methylol-1,2,3,4,5,6,7,8,9,11,12,14,15,16-tetradecahydrocyclopenta[a]phenanthrene-3,17-diol

> <PUBCHEM_IUPAC_INCHI>
InChI=1S/C21H36O3/c1-19-11-13(12-22)18(23)10-14(19)4-5-15-16(19)6-8-20(2)17(15)7-9-21(20,3)24/h13-18,22-24H,4-12H2,1-3H3/t13-,14-,15+,16-,17-,18+,19-,20-,21-/m0/s1

> <PUBCHEM_IUPAC_INCHIKEY>
FJEQNAVGFPKKSD-KWHXHVTNSA-N

> <PUBCHEM_XLOGP3_AA>
4.1

> <PUBCHEM_EXACT_MASS>
336.266445

> <PUBCHEM_MOLECULAR_FORMULA>
C21H36O3

> <PUBCHEM_MOLECULAR_WEIGHT>
336.50874

> <PUBCHEM_OPENEYE_CAN_SMILES>
CC12CCC3C(C1CCC2(C)O)CCC4C3(CC(C(C4)O)CO)C

> <PUBCHEM_OPENEYE_ISO_SMILES>
C[C@]12CC[C@H]3[C@H]([C@@H]1CC[C@]2(C)O)CC[C@@H]4[C@@]3(C[C@H]([C@@H](C4)O)CO)C

> <PUBCHEM_CACTVS_TPSA>
60.7

> <PUBCHEM_MONOISOTOPIC_WEIGHT>
336.266445

> <PUBCHEM_TOTAL_CHARGE>
0

> <PUBCHEM_HEAVY_ATOM_COUNT>
24

> <PUBCHEM_ATOM_DEF_STEREO_COUNT>
9

> <PUBCHEM_ATOM_UDEF_STEREO_COUNT>
0

> <PUBCHEM_BOND_DEF_STEREO_COUNT>
0

> <PUBCHEM_BOND_UDEF_STEREO_COUNT>
0

> <PUBCHEM_ISOTOPIC_ATOM_COUNT>
0

> <PUBCHEM_COMPONENT_COUNT>
1

> <PUBCHEM_CACTVS_TAUTO_COUNT>
1

> <PUBCHEM_COORDINATE_TYPE>
1
5
255

> <PUBCHEM_BONDANNOTATIONS>
11  1  5
19  24  6
22  2  5
4  25  6
5  26  5
6  27  6
7  20  5
8  21  5
9  28  6

$$$$

