14059
  -OEChem-06241222412D

 35 33  0     0  0  0  0  0  0999 V2000
    2.6350    0.0000    0.0000 Cl  0  0  0  0  0  0  0  0  0  0  0  0
    4.0010    4.4030    0.0000 N   0  0  0  0  0  0  0  0  0  0  0  0
    5.7331    4.4030    0.0000 N   0  0  0  0  0  0  0  0  0  0  0  0
    4.8671    2.9030    0.0000 N   0  0  0  0  0  0  0  0  0  0  0  0
    1.4030    3.9030    0.0000 C   0  0  0  0  0  0  0  0  0  0  0  0
    2.2690    3.4030    0.0000 C   0  0  0  0  0  0  0  0  0  0  0  0
    3.1350    3.9030    0.0000 C   0  0  0  0  0  0  0  0  0  0  0  0
    0.5369    4.4030    0.0000 C   0  0  0  0  0  0  0  0  0  0  0  0
    0.9030    3.0369    0.0000 C   0  0  0  0  0  0  0  0  0  0  0  0
    1.9030    4.7690    0.0000 C   0  0  0  0  0  0  0  0  0  0  0  0
    2.6350    4.7690    0.0000 C   0  0  0  0  0  0  0  0  0  0  0  0
    3.6350    3.0369    0.0000 C   0  0  0  0  0  0  0  0  0  0  0  0
    4.8671    3.9030    0.0000 C   0  0  0  0  0  0  0  0  0  0  0  0
    1.8705    2.9280    0.0000 H   0  0  0  0  0  0  0  0  0  0  0  0
    2.6675    2.9280    0.0000 H   0  0  0  0  0  0  0  0  0  0  0  0
    0.8469    4.9399    0.0000 H   0  0  0  0  0  0  0  0  0  0  0  0
    0.0000    4.7130    0.0000 H   0  0  0  0  0  0  0  0  0  0  0  0
    0.2269    3.8660    0.0000 H   0  0  0  0  0  0  0  0  0  0  0  0
    0.3660    3.3469    0.0000 H   0  0  0  0  0  0  0  0  0  0  0  0
    0.5930    2.5000    0.0000 H   0  0  0  0  0  0  0  0  0  0  0  0
    1.4399    2.7269    0.0000 H   0  0  0  0  0  0  0  0  0  0  0  0
    2.4399    4.4590    0.0000 H   0  0  0  0  0  0  0  0  0  0  0  0
    2.2130    5.3059    0.0000 H   0  0  0  0  0  0  0  0  0  0  0  0
    1.3660    5.0790    0.0000 H   0  0  0  0  0  0  0  0  0  0  0  0
    3.0981    2.7269    0.0000 H   0  0  0  0  0  0  0  0  0  0  0  0
    3.9450    2.5000    0.0000 H   0  0  0  0  0  0  0  0  0  0  0  0
    4.1720    3.3469    0.0000 H   0  0  0  0  0  0  0  0  0  0  0  0
    3.1720    5.0790    0.0000 H   0  0  0  0  0  0  0  0  0  0  0  0
    2.3250    5.3059    0.0000 H   0  0  0  0  0  0  0  0  0  0  0  0
    2.0981    4.4590    0.0000 H   0  0  0  0  0  0  0  0  0  0  0  0
    5.4040    2.5930    0.0000 H   0  0  0  0  0  0  0  0  0  0  0  0
    4.3301    2.5930    0.0000 H   0  0  0  0  0  0  0  0  0  0  0  0
    6.2700    4.0930    0.0000 H   0  0  0  0  0  0  0  0  0  0  0  0
    5.7331    5.0230    0.0000 H   0  0  0  0  0  0  0  0  0  0  0  0
    3.6350    0.0000    0.0000 H   0  0  0  0  0  0  0  0  0  0  0  0
  1 35  1  0  0  0  0
  2  7  1  0  0  0  0
  2 13  2  0  0  0  0
  3 13  1  0  0  0  0
  3 33  1  0  0  0  0
  3 34  1  0  0  0  0
  4 13  1  0  0  0  0
  4 31  1  0  0  0  0
  4 32  1  0  0  0  0
  5  6  1  0  0  0  0
  5  8  1  0  0  0  0
  5  9  1  0  0  0  0
  5 10  1  0  0  0  0
  6  7  1  0  0  0  0
  6 14  1  0  0  0  0
  6 15  1  0  0  0  0
  7 11  1  0  0  0  0
  7 12  1  0  0  0  0
  8 16  1  0  0  0  0
  8 17  1  0  0  0  0
  8 18  1  0  0  0  0
  9 19  1  0  0  0  0
  9 20  1  0  0  0  0
  9 21  1  0  0  0  0
 10 22  1  0  0  0  0
 10 23  1  0  0  0  0
 10 24  1  0  0  0  0
 11 28  1  0  0  0  0
 11 29  1  0  0  0  0
 11 30  1  0  0  0  0
 12 25  1  0  0  0  0
 12 26  1  0  0  0  0
 12 27  1  0  0  0  0
M  END
> <PUBCHEM_COMPOUND_CID>
14059

> <PUBCHEM_COMPOUND_CANONICALIZED>
1

> <PUBCHEM_CACTVS_COMPLEXITY>
171

> <PUBCHEM_CACTVS_HBOND_ACCEPTOR>
1

> <PUBCHEM_CACTVS_HBOND_DONOR>
3

> <PUBCHEM_CACTVS_ROTATABLE_BOND>
3

> <PUBCHEM_CACTVS_SUBSKEYS>
AAADceBzAAAEAAAAAAAAAAAAAAAAAAAAAAAAAAAAAAAAAAAAAAAAHAAQAAAADoiBAAADAAJAAAAgAAAAJAAAAAEAAAAAAAAAAAAAAAIAgAAAAAAAAAAAAAAAAAANAAAAAAAAAAAAAAAAAAAAAAAAAAAAAA==

> <PUBCHEM_IUPAC_OPENEYE_NAME>
2-(1,1,3,3-tetramethylbutyl)guanidine hydrochloride

> <PUBCHEM_IUPAC_CAS_NAME>
2-(2,4,4-trimethylpentan-2-yl)guanidine hydrochloride

> <PUBCHEM_IUPAC_NAME>
2-(2,4,4-trimethylpentan-2-yl)guanidine hydrochloride

> <PUBCHEM_IUPAC_SYSTEMATIC_NAME>
2-(2,4,4-trimethylpentan-2-yl)guanidine hydrochloride

> <PUBCHEM_IUPAC_TRADITIONAL_NAME>
2-(1,1,3,3-tetramethylbutyl)guanidine hydrochloride

> <PUBCHEM_IUPAC_INCHI>
InChI=1S/C9H21N3.ClH/c1-8(2,3)6-9(4,5)12-7(10)11;/h6H2,1-5H3,(H4,10,11,12);1H

> <PUBCHEM_IUPAC_INCHIKEY>
QRFSLMLESAIOMB-UHFFFAOYSA-N

> <PUBCHEM_EXACT_MASS>
207.150225

> <PUBCHEM_MOLECULAR_FORMULA>
C9H22ClN3

> <PUBCHEM_MOLECULAR_WEIGHT>
207.74408

> <PUBCHEM_OPENEYE_CAN_SMILES>
CC(C)(C)CC(C)(C)N=C(N)N.Cl

> <PUBCHEM_OPENEYE_ISO_SMILES>
CC(C)(C)CC(C)(C)N=C(N)N.Cl

> <PUBCHEM_CACTVS_TPSA>
64.4

> <PUBCHEM_MONOISOTOPIC_WEIGHT>
207.150225

> <PUBCHEM_TOTAL_CHARGE>
0

> <PUBCHEM_HEAVY_ATOM_COUNT>
13

> <PUBCHEM_ATOM_DEF_STEREO_COUNT>
0

> <PUBCHEM_ATOM_UDEF_STEREO_COUNT>
0

> <PUBCHEM_BOND_DEF_STEREO_COUNT>
0

> <PUBCHEM_BOND_UDEF_STEREO_COUNT>
0

> <PUBCHEM_ISOTOPIC_ATOM_COUNT>
0

> <PUBCHEM_COMPONENT_COUNT>
2

> <PUBCHEM_CACTVS_TAUTO_COUNT>
2

> <PUBCHEM_COORDINATE_TYPE>
1
5
255

$$$$

