   Melting Point
        79-80 deg C
   from [1]HSDB

   Dissociation Constants
        pKa = 4.8 (50% aqueous ethanol)
   from [2]HSDB

   Octanol/Water Partition Coefficient
        log Kow = 13.17 (est)
   from [3]HSDB

   Solubilities
        In water, 2.34X10-9 mg/L at 25 deg C (est)
   from [4]HSDB

   Spectral Properties

     * Specific optical rotation: +41 deg at 18 deg C/D (in ethanol)
     * uv max (methanol): 27.5 nm (log epsilon 3.95)

   from [5]HSDB

   Vapor Pressure
        2.6X10-17 mm Hg at 25 deg C
   from [6]HSDB

   Other Chemical/Physical Properties

     * Henry's Law constant = 2.27X10-12 atm-cu m/mol at 25 deg C (est)
     * Hydroxyl radical reaction rate constant = 4.69X10-14 cu
       cm/molec-sec at 25 deg C (est)
     * Ozone reaction rate constant = 1.73X10-19 cu cm/molec-sec at 25 deg
       C (est)
     * Unstable when exposed to air and light

   from [7]HSDB

   Computed Properties
   Molecular Weight                  536.78498 [g/mol]
   Molecular Formula                 C[35]H[52]O[4]
   XLogP3-AA                         9.6
   H-Bond Donor                      1
   H-Bond Acceptor                   4
   Rotatable Bond Count              11
   Tautomer Count                    6
   Exact Mass                        536.38656
   MonoIsotopic Mass                 536.38656
   Topological Polar Surface Area    71.4
   Heavy Atom Count                  39
   Formal Charge                     0
   Complexity                        1140
   Isotope Atom Count                0
   Defined Atom Stereocenter Count   4
   Undefined Atom Stereocenter Count 0
   Defined Bond Stereocenter Count   0
   Undefined Bond Stereocenter Count 0
   Covalently-Bonded Unit Count      1
   Feature 3D Acceptor Count         3
   Feature 3D Donor Count            1
   Feature 3D Hydrophobe Count       5
   Feature 3D Ring Count             2
   Effective Rotor Count             11.6
   Conformer Sampling RMSD           1.2
   CID Conformer Count               [8]13

References

   1. http://toxnet.nlm.nih.gov/cgi-bin/sis/search/r?dbs+hsdb:@term+@rn+@rel+11079-53-1
   2. http://toxnet.nlm.nih.gov/cgi-bin/sis/search/r?dbs+hsdb:@term+@rn+@rel+11079-53-1
   3. http://toxnet.nlm.nih.gov/cgi-bin/sis/search/r?dbs+hsdb:@term+@rn+@rel+11079-53-1
   4. http://toxnet.nlm.nih.gov/cgi-bin/sis/search/r?dbs+hsdb:@term+@rn+@rel+11079-53-1
   5. http://toxnet.nlm.nih.gov/cgi-bin/sis/search/r?dbs+hsdb:@term+@rn+@rel+11079-53-1
   6. http://toxnet.nlm.nih.gov/cgi-bin/sis/search/r?dbs+hsdb:@term+@rn+@rel+11079-53-1
   7. http://toxnet.nlm.nih.gov/cgi-bin/sis/search/r?dbs+hsdb:@term+@rn+@rel+11079-53-1
   8. http://pubchem.ncbi.nlm.nih.gov/vw3d/vw3d.cgi?cid=441298
