657309
  -OEChem-07051212522D

 54 56  0     1  0  0  0  0  0999 V2000
    7.2366   -0.1836    0.0000 O   0  0  0  0  0  0  0  0  0  0  0  0
    6.3706   -1.6836    0.0000 O   0  0  0  0  0  0  0  0  0  0  0  0
    9.8347   -1.6836    0.0000 O   0  0  0  0  0  0  0  0  0  0  0  0
    4.3997    3.1013    0.0000 N   0  3  0  0  0  0  0  0  0  0  0  0
    3.9219    1.1528    0.0000 C   0  0  1  0  0  0  0  0  0  0  0  0
    3.6631    2.1187    0.0000 C   0  0  2  0  0  0  0  0  0  0  0  0
    2.0900    0.3940    0.0000 C   0  0  0  0  0  0  0  0  0  0  0  0
    1.8311    1.3599    0.0000 C   0  0  0  0  0  0  0  0  0  0  0  0
    5.4571   -0.0904    0.0000 C   0  0  0  0  0  0  0  0  0  0  0  0
    6.2661    1.3109    0.0000 C   0  0  0  0  0  0  0  0  0  0  0  0
    4.2952    4.0958    0.0000 C   0  0  0  0  0  0  0  0  0  0  0  0
    6.3706    0.3164    0.0000 C   0  0  0  0  0  0  0  0  0  0  0  0
    5.3132    3.5081    0.0000 C   0  0  0  0  0  0  0  0  0  0  0  0
    3.3816    4.5026    0.0000 C   0  0  0  0  0  0  0  0  0  0  0  0
    5.1042    4.6836    0.0000 C   0  0  0  0  0  0  0  0  0  0  0  0
    7.2366   -1.1836    0.0000 C   0  0  0  0  0  0  0  0  0  0  0  0
    8.1027   -1.6836    0.0000 C   0  0  3  0  0  0  0  0  0  0  0  0
    8.9687   -1.1836    0.0000 C   0  0  0  0  0  0  0  0  0  0  0  0
    8.1027   -2.6836    0.0000 C   0  0  0  0  0  0  0  0  0  0  0  0
    8.9687   -3.1836    0.0000 C   0  0  0  0  0  0  0  0  0  0  0  0
    7.2366   -3.1836    0.0000 C   0  0  0  0  0  0  0  0  0  0  0  0
    8.9687   -4.1836    0.0000 C   0  0  0  0  0  0  0  0  0  0  0  0
    7.2366   -4.1836    0.0000 C   0  0  0  0  0  0  0  0  0  0  0  0
    8.1027   -4.6836    0.0000 C   0  0  0  0  0  0  0  0  0  0  0  0
    4.1419    0.3317    0.0000 H   0  0  0  0  0  0  0  0  0  0  0  0
    3.4431    2.9397    0.0000 H   0  0  0  0  0  0  0  0  0  0  0  0
    2.3020   -0.1886    0.0000 H   0  0  0  0  0  0  0  0  0  0  0  0
    1.4987    0.2075    0.0000 H   0  0  0  0  0  0  0  0  0  0  0  0
    1.2398    1.1735    0.0000 H   0  0  0  0  0  0  0  0  0  0  0  0
    1.6191    1.9425    0.0000 H   0  0  0  0  0  0  0  0  0  0  0  0
    5.7947   -0.6103    0.0000 H   0  0  0  0  0  0  0  0  0  0  0  0
    4.9963   -0.5052    0.0000 H   0  0  0  0  0  0  0  0  0  0  0  0
    6.3684    1.9224    0.0000 H   0  0  0  0  0  0  0  0  0  0  0  0
    6.8858    1.2920    0.0000 H   0  0  0  0  0  0  0  0  0  0  0  0
    3.7936    3.7314    0.0000 H   0  0  0  0  0  0  0  0  0  0  0  0
    6.8906    0.6540    0.0000 H   0  0  0  0  0  0  0  0  0  0  0  0
    5.0611    4.0745    0.0000 H   0  0  0  0  0  0  0  0  0  0  0  0
    5.8796    3.7602    0.0000 H   0  0  0  0  0  0  0  0  0  0  0  0
    5.5654    2.9417    0.0000 H   0  0  0  0  0  0  0  0  0  0  0  0
    3.1295    3.9362    0.0000 H   0  0  0  0  0  0  0  0  0  0  0  0
    2.8152    4.7548    0.0000 H   0  0  0  0  0  0  0  0  0  0  0  0
    3.6338    5.0690    0.0000 H   0  0  0  0  0  0  0  0  0  0  0  0
    4.7398    5.1852    0.0000 H   0  0  0  0  0  0  0  0  0  0  0  0
    5.6058    5.0480    0.0000 H   0  0  0  0  0  0  0  0  0  0  0  0
    5.4686    4.1820    0.0000 H   0  0  0  0  0  0  0  0  0  0  0  0
    8.1027   -0.8336    0.0000 H   0  0  0  0  0  0  0  0  0  0  0  0
    8.5702   -0.7087    0.0000 H   0  0  0  0  0  0  0  0  0  0  0  0
    9.3672   -0.7087    0.0000 H   0  0  0  0  0  0  0  0  0  0  0  0
    9.5056   -2.8736    0.0000 H   0  0  0  0  0  0  0  0  0  0  0  0
    6.6997   -2.8736    0.0000 H   0  0  0  0  0  0  0  0  0  0  0  0
   10.3717   -1.3736    0.0000 H   0  0  0  0  0  0  0  0  0  0  0  0
    9.5056   -4.4936    0.0000 H   0  0  0  0  0  0  0  0  0  0  0  0
    6.6997   -4.4936    0.0000 H   0  0  0  0  0  0  0  0  0  0  0  0
    8.1027   -5.3036    0.0000 H   0  0  0  0  0  0  0  0  0  0  0  0
  1 12  1  0  0  0  0
  1 16  1  0  0  0  0
  2 16  2  0  0  0  0
  3 18  1  0  0  0  0
  3 51  1  0  0  0  0
  4  5  1  0  0  0  0
  4  6  1  0  0  0  0
  4 11  1  0  0  0  0
  4 13  1  0  0  0  0
  5  7  1  0  0  0  0
  5  9  1  0  0  0  0
  5 25  1  1  0  0  0
  6  8  1  0  0  0  0
  6 10  1  0  0  0  0
  6 26  1  6  0  0  0
  7  8  1  0  0  0  0
  7 27  1  0  0  0  0
  7 28  1  0  0  0  0
  8 29  1  0  0  0  0
  8 30  1  0  0  0  0
  9 12  1  0  0  0  0
  9 31  1  0  0  0  0
  9 32  1  0  0  0  0
 10 12  1  0  0  0  0
 10 33  1  0  0  0  0
 10 34  1  0  0  0  0
 11 14  1  0  0  0  0
 11 15  1  0  0  0  0
 11 35  1  0  0  0  0
 12 36  1  0  0  0  0
 13 37  1  0  0  0  0
 13 38  1  0  0  0  0
 13 39  1  0  0  0  0
 14 40  1  0  0  0  0
 14 41  1  0  0  0  0
 14 42  1  0  0  0  0
 15 43  1  0  0  0  0
 15 44  1  0  0  0  0
 15 45  1  0  0  0  0
 16 17  1  0  0  0  0
 17 18  1  0  0  0  0
 17 19  1  0  0  0  0
 17 46  1  0  0  0  0
 18 47  1  0  0  0  0
 18 48  1  0  0  0  0
 19 20  2  0  0  0  0
 19 21  1  0  0  0  0
 20 22  1  0  0  0  0
 20 49  1  0  0  0  0
 21 23  2  0  0  0  0
 21 50  1  0  0  0  0
 22 24  2  0  0  0  0
 22 52  1  0  0  0  0
 23 24  1  0  0  0  0
 23 53  1  0  0  0  0
 24 54  1  0  0  0  0
M  CHG  1   4   1
M  END
> <PUBCHEM_COMPOUND_CID>
657309

> <PUBCHEM_COMPOUND_CANONICALIZED>
1

> <PUBCHEM_CACTVS_COMPLEXITY>
430

> <PUBCHEM_CACTVS_HBOND_ACCEPTOR>
3

> <PUBCHEM_CACTVS_HBOND_DONOR>
1

> <PUBCHEM_CACTVS_ROTATABLE_BOND>
6

> <PUBCHEM_CACTVS_SUBSKEYS>
AAADceB6MAAAAAAAAAAAAAAAAAAAAWAAAAA8QAAABgAAAAABAAAAHgAACAAADTzhmAYyCIMABgCIAiDSCAACAAAgAAAIiAEIAIgIMDaAlRCGYAAn4AGIiAeYyOCOgAAAAAAAAAAAAAAAAAAAAAAAAAAAAA==

> <PUBCHEM_IUPAC_OPENEYE_NAME>
[(1S,5R)-8-isopropyl-8-methyl-8-azoniabicyclo[3.2.1]octan-3-yl] 3-hydroxy-2-phenyl-propanoate

> <PUBCHEM_IUPAC_CAS_NAME>
3-hydroxy-2-phenylpropanoic acid [(1S,5R)-8-methyl-8-propan-2-yl-8-azoniabicyclo[3.2.1]octan-3-yl] ester

> <PUBCHEM_IUPAC_NAME>
[(1S,5R)-8-methyl-8-propan-2-yl-8-azoniabicyclo[3.2.1]octan-3-yl] 3-hydroxy-2-phenylpropanoate

> <PUBCHEM_IUPAC_SYSTEMATIC_NAME>
[(1S,5R)-8-methyl-8-propan-2-yl-8-azoniabicyclo[3.2.1]octan-3-yl] 3-oxidanyl-2-phenyl-propanoate

> <PUBCHEM_IUPAC_TRADITIONAL_NAME>
3-hydroxy-2-phenyl-propionic acid [(1S,5R)-8-isopropyl-8-methyl-8-azoniabicyclo[3.2.1]octan-3-yl] ester

> <PUBCHEM_IUPAC_INCHI>
InChI=1S/C20H30NO3/c1-14(2)21(3)16-9-10-17(21)12-18(11-16)24-20(23)19(13-22)15-7-5-4-6-8-15/h4-8,14,16-19,22H,9-13H2,1-3H3/q+1/t16-,17+,18?,19?,21?

> <PUBCHEM_IUPAC_INCHIKEY>
OEXHQOGQTVQTAT-BZQJJPTISA-N

> <PUBCHEM_XLOGP3>
2.6

> <PUBCHEM_EXACT_MASS>
332.222569

> <PUBCHEM_MOLECULAR_FORMULA>
C20H30NO3+

> <PUBCHEM_MOLECULAR_WEIGHT>
332.4571

> <PUBCHEM_OPENEYE_CAN_SMILES>
CC(C)[N+]1(C2CCC1CC(C2)OC(=O)C(CO)C3=CC=CC=C3)C

> <PUBCHEM_OPENEYE_ISO_SMILES>
CC(C)[N+]1([C@@H]2CC[C@H]1CC(C2)OC(=O)C(CO)C3=CC=CC=C3)C

> <PUBCHEM_CACTVS_TPSA>
46.5

> <PUBCHEM_MONOISOTOPIC_WEIGHT>
332.222569

> <PUBCHEM_TOTAL_CHARGE>
1

> <PUBCHEM_HEAVY_ATOM_COUNT>
24

> <PUBCHEM_ATOM_DEF_STEREO_COUNT>
2

> <PUBCHEM_ATOM_UDEF_STEREO_COUNT>
1

> <PUBCHEM_BOND_DEF_STEREO_COUNT>
0

> <PUBCHEM_BOND_UDEF_STEREO_COUNT>
0

> <PUBCHEM_ISOTOPIC_ATOM_COUNT>
0

> <PUBCHEM_COMPONENT_COUNT>
1

> <PUBCHEM_CACTVS_TAUTO_COUNT>
1

> <PUBCHEM_COORDINATE_TYPE>
1
5
255

> <PUBCHEM_BONDANNOTATIONS>
17  46  3
19  20  8
19  21  8
20  22  8
21  23  8
22  24  8
23  24  8
5  25  5
6  26  6

$$$$

