6290
  -OEChem-06261201132D

 53 56  0     1  0  0  0  0  0999 V2000
    4.7950    0.7792    0.0000 O   0  0  0  0  0  0  0  0  0  0  0  0
    7.9821    2.2787    0.0000 O   0  0  0  0  0  0  0  0  0  0  0  0
    2.0000   -2.7732    0.0000 O   0  0  0  0  0  0  0  0  0  0  0  0
    9.9391    2.6912    0.0000 O   0  0  0  0  0  0  0  0  0  0  0  0
    7.3931   -0.7208    0.0000 C   0  0  3  0  0  0  0  0  0  0  0  0
    7.3931    0.2792    0.0000 C   0  0  3  0  0  0  0  0  0  0  0  0
    6.5271   -1.2208    0.0000 C   0  0  3  0  0  0  0  0  0  0  0  0
    5.6610   -0.7208    0.0000 C   0  0  3  0  0  0  0  0  0  0  0  0
    8.3393    0.5839    0.0000 C   0  0  3  0  0  0  0  0  0  0  0  0
    4.7510   -1.2277    0.0000 C   0  0  3  0  0  0  0  0  0  0  0  0
    8.3393   -1.0256    0.0000 C   0  0  0  0  0  0  0  0  0  0  0  0
    6.5271    0.7792    0.0000 C   0  0  0  0  0  0  0  0  0  0  0  0
    8.9229   -0.2208    0.0000 C   0  0  0  0  0  0  0  0  0  0  0  0
    6.5431   -2.2624    0.0000 C   0  0  0  0  0  0  0  0  0  0  0  0
    5.6610    0.2792    0.0000 C   0  0  0  0  0  0  0  0  0  0  0  0
    7.3931    1.2792    0.0000 C   0  0  0  0  0  0  0  0  0  0  0  0
    4.7430   -2.2693    0.0000 C   0  0  0  0  0  0  0  0  0  0  0  0
    5.6451   -2.7901    0.0000 C   0  0  0  0  0  0  0  0  0  0  0  0
    3.8242   -0.6636    0.0000 C   0  0  0  0  0  0  0  0  0  0  0  0
    4.7587   -0.2277    0.0000 C   0  0  0  0  0  0  0  0  0  0  0  0
    8.6500    1.5344    0.0000 C   0  0  0  0  0  0  0  0  0  0  0  0
    2.8763   -1.1916    0.0000 C   0  0  0  0  0  0  0  0  0  0  0  0
    3.8076   -2.8190    0.0000 C   0  0  0  0  0  0  0  0  0  0  0  0
    2.8680   -2.2765    0.0000 C   0  0  0  0  0  0  0  0  0  0  0  0
    9.6285    1.7406    0.0000 C   0  0  0  0  0  0  0  0  0  0  0  0
    7.4830   -1.5661    0.0000 H   0  0  0  0  0  0  0  0  0  0  0  0
    7.2664   -1.6402    0.0000 H   0  0  0  0  0  0  0  0  0  0  0  0
    6.3972   -0.2958    0.0000 H   0  0  0  0  0  0  0  0  0  0  0  0
    7.7396    1.1862    0.0000 H   0  0  0  0  0  0  0  0  0  0  0  0
    8.0883   -1.5925    0.0000 H   0  0  0  0  0  0  0  0  0  0  0  0
    8.8767   -1.3348    0.0000 H   0  0  0  0  0  0  0  0  0  0  0  0
    6.9256    1.2541    0.0000 H   0  0  0  0  0  0  0  0  0  0  0  0
    6.1285    1.2541    0.0000 H   0  0  0  0  0  0  0  0  0  0  0  0
    9.3838   -0.6356    0.0000 H   0  0  0  0  0  0  0  0  0  0  0  0
    9.3838    0.1939    0.0000 H   0  0  0  0  0  0  0  0  0  0  0  0
    6.7612   -2.8427    0.0000 H   0  0  0  0  0  0  0  0  0  0  0  0
    7.1523   -2.1468    0.0000 H   0  0  0  0  0  0  0  0  0  0  0  0
    8.0131    1.2792    0.0000 H   0  0  0  0  0  0  0  0  0  0  0  0
    7.3931    1.8992    0.0000 H   0  0  0  0  0  0  0  0  0  0  0  0
    6.7731    1.2792    0.0000 H   0  0  0  0  0  0  0  0  0  0  0  0
    5.2478   -3.2661    0.0000 H   0  0  0  0  0  0  0  0  0  0  0  0
    6.0460   -3.2630    0.0000 H   0  0  0  0  0  0  0  0  0  0  0  0
    4.2324   -0.1969    0.0000 H   0  0  0  0  0  0  0  0  0  0  0  0
    3.4343   -0.1816    0.0000 H   0  0  0  0  0  0  0  0  0  0  0  0
    5.3787   -0.2325    0.0000 H   0  0  0  0  0  0  0  0  0  0  0  0
    4.7635    0.3923    0.0000 H   0  0  0  0  0  0  0  0  0  0  0  0
    4.1388   -0.2229    0.0000 H   0  0  0  0  0  0  0  0  0  0  0  0
    2.6718   -0.6063    0.0000 H   0  0  0  0  0  0  0  0  0  0  0  0
    2.2647   -1.2929    0.0000 H   0  0  0  0  0  0  0  0  0  0  0  0
    3.8100   -3.4390    0.0000 H   0  0  0  0  0  0  0  0  0  0  0  0
    9.6490    1.1210    0.0000 H   0  0  0  0  0  0  0  0  0  0  0  0
   10.2423    1.6533    0.0000 H   0  0  0  0  0  0  0  0  0  0  0  0
   10.5458    2.8190    0.0000 H   0  0  0  0  0  0  0  0  0  0  0  0
  1 15  2  0  0  0  0
  2 21  2  0  0  0  0
  3 24  2  0  0  0  0
  4 25  1  0  0  0  0
  4 53  1  0  0  0  0
  5  6  1  0  0  0  0
  5  7  1  0  0  0  0
  5 11  1  0  0  0  0
  5 26  1  0  0  0  0
  6  9  1  0  0  0  0
  6 12  1  0  0  0  0
  6 16  1  0  0  0  0
  7  8  1  0  0  0  0
  7 14  1  0  0  0  0
  7 27  1  0  0  0  0
  8 10  1  0  0  0  0
  8 15  1  0  0  0  0
  8 28  1  0  0  0  0
  9 13  1  0  0  0  0
  9 21  1  0  0  0  0
  9 29  1  0  0  0  0
 10 17  1  0  0  0  0
 10 19  1  0  0  0  0
 10 20  1  0  0  0  0
 11 13  1  0  0  0  0
 11 30  1  0  0  0  0
 11 31  1  0  0  0  0
 12 15  1  0  0  0  0
 12 32  1  0  0  0  0
 12 33  1  0  0  0  0
 13 34  1  0  0  0  0
 13 35  1  0  0  0  0
 14 18  1  0  0  0  0
 14 36  1  0  0  0  0
 14 37  1  0  0  0  0
 16 38  1  0  0  0  0
 16 39  1  0  0  0  0
 16 40  1  0  0  0  0
 17 18  1  0  0  0  0
 17 23  2  0  0  0  0
 18 41  1  0  0  0  0
 18 42  1  0  0  0  0
 19 22  1  0  0  0  0
 19 43  1  0  0  0  0
 19 44  1  0  0  0  0
 20 45  1  0  0  0  0
 20 46  1  0  0  0  0
 20 47  1  0  0  0  0
 21 25  1  0  0  0  0
 22 24  1  0  0  0  0
 22 48  1  0  0  0  0
 22 49  1  0  0  0  0
 23 24  1  0  0  0  0
 23 50  1  0  0  0  0
 25 51  1  0  0  0  0
 25 52  1  0  0  0  0
M  END
> <PUBCHEM_COMPOUND_CID>
6290

> <PUBCHEM_COMPOUND_CANONICALIZED>
1

> <PUBCHEM_CACTVS_COMPLEXITY>
677

> <PUBCHEM_CACTVS_HBOND_ACCEPTOR>
4

> <PUBCHEM_CACTVS_HBOND_DONOR>
1

> <PUBCHEM_CACTVS_ROTATABLE_BOND>
2

> <PUBCHEM_CACTVS_SUBSKEYS>
AAADceB4OAAAAAAAAAAAAAAAAAAAAYAAAAAwYIAAAAAAAGDAAAAAGgAACAAADwSggAICAAAAAgCIAqBSAAIAAAAgAAAACAFAAEgAEBIAAQAAQAAEgAAIAQOIyvCvgAAAAAAAAACAAAQAACAAAQAACAAAAA==

> <PUBCHEM_IUPAC_OPENEYE_NAME>
17-(2-hydroxyacetyl)-10,13-dimethyl-2,6,7,8,9,12,14,15,16,17-decahydro-1H-cyclopenta[a]phenanthrene-3,11-dione

> <PUBCHEM_IUPAC_CAS_NAME>
17-(2-hydroxy-1-oxoethyl)-10,13-dimethyl-2,6,7,8,9,12,14,15,16,17-decahydro-1H-cyclopenta[a]phenanthrene-3,11-dione

> <PUBCHEM_IUPAC_NAME>
17-(2-hydroxyacetyl)-10,13-dimethyl-2,6,7,8,9,12,14,15,16,17-decahydro-1H-cyclopenta[a]phenanthrene-3,11-dione

> <PUBCHEM_IUPAC_SYSTEMATIC_NAME>
10,13-dimethyl-17-(2-oxidanylethanoyl)-2,6,7,8,9,12,14,15,16,17-decahydro-1H-cyclopenta[a]phenanthrene-3,11-dione

> <PUBCHEM_IUPAC_TRADITIONAL_NAME>
17-glycoloyl-10,13-dimethyl-2,6,7,8,9,12,14,15,16,17-decahydro-1H-cyclopenta[a]phenanthrene-3,11-quinone

> <PUBCHEM_IUPAC_INCHI>
InChI=1S/C21H28O4/c1-20-8-7-13(23)9-12(20)3-4-14-15-5-6-16(18(25)11-22)21(15,2)10-17(24)19(14)20/h9,14-16,19,22H,3-8,10-11H2,1-2H3

> <PUBCHEM_IUPAC_INCHIKEY>
FUFLCEKSBBHCMO-UHFFFAOYSA-N

> <PUBCHEM_XLOGP3>
1.8

> <PUBCHEM_EXACT_MASS>
344.198759

> <PUBCHEM_MOLECULAR_FORMULA>
C21H28O4

> <PUBCHEM_MOLECULAR_WEIGHT>
344.44462

> <PUBCHEM_OPENEYE_CAN_SMILES>
CC12CCC(=O)C=C1CCC3C2C(=O)CC4(C3CCC4C(=O)CO)C

> <PUBCHEM_OPENEYE_ISO_SMILES>
CC12CCC(=O)C=C1CCC3C2C(=O)CC4(C3CCC4C(=O)CO)C

> <PUBCHEM_CACTVS_TPSA>
71.4

> <PUBCHEM_MONOISOTOPIC_WEIGHT>
344.198759

> <PUBCHEM_TOTAL_CHARGE>
0

> <PUBCHEM_HEAVY_ATOM_COUNT>
25

> <PUBCHEM_ATOM_DEF_STEREO_COUNT>
0

> <PUBCHEM_ATOM_UDEF_STEREO_COUNT>
6

> <PUBCHEM_BOND_DEF_STEREO_COUNT>
0

> <PUBCHEM_BOND_UDEF_STEREO_COUNT>
0

> <PUBCHEM_ISOTOPIC_ATOM_COUNT>
0

> <PUBCHEM_COMPONENT_COUNT>
1

> <PUBCHEM_CACTVS_TAUTO_COUNT>
60

> <PUBCHEM_COORDINATE_TYPE>
1
5
255

> <PUBCHEM_BONDANNOTATIONS>
10  20  3
5  26  3
6  16  3
7  27  3
8  28  3
9  29  3

$$$$

