47205594
  -OEChem-06241222592D

 40 40  0     1  0  0  0  0  0999 V2000
    6.7500    0.7672    0.0000 O   0  0  0  0  0  0  0  0  0  0  0  0
    4.3126   -0.2620    0.0000 O   0  0  0  0  0  0  0  0  0  0  0  0
    2.2788    1.6943    0.0000 O   0  0  0  0  0  0  0  0  0  0  0  0
    6.2147   -0.8800    0.0000 N   0  0  0  0  0  0  0  0  0  0  0  0
    4.8479    1.3853    0.0000 N   0  0  0  0  0  0  0  0  0  0  0  0
    3.0878    1.1065    0.0000 N   0  0  0  0  0  0  0  0  0  0  0  0
    7.1658   -1.1890    0.0000 C   0  0  3  0  0  0  0  0  0  0  0  0
    7.3737   -2.1672    0.0000 C   0  0  0  0  0  0  0  0  0  0  0  0
    8.3248   -2.4762    0.0000 C   0  0  0  0  0  0  0  0  0  0  0  0
    7.9089   -0.5199    0.0000 C   0  0  0  0  0  0  0  0  0  0  0  0
    8.5327   -3.4544    0.0000 C   0  0  0  0  0  0  0  0  0  0  0  0
    9.0679   -1.8071    0.0000 C   0  0  0  0  0  0  0  0  0  0  0  0
    5.4716   -1.5492    0.0000 C   0  0  0  0  0  0  0  0  0  0  0  0
    6.0068    0.0981    0.0000 C   0  0  0  0  0  0  0  0  0  0  0  0
    5.0558    0.4071    0.0000 C   0  0  0  0  0  0  0  0  0  0  0  0
    3.8968    1.6943    0.0000 C   0  0  0  0  0  0  0  0  0  0  0  0
    3.5878    2.6454    0.0000 C   0  0  0  0  0  0  0  0  0  0  0  0
    2.5878    2.6454    0.0000 C   0  0  0  0  0  0  0  0  0  0  0  0
    2.0000    3.4544    0.0000 C   0  0  0  0  0  0  0  0  0  0  0  0
    6.7050   -1.6039    0.0000 H   0  0  0  0  0  0  0  0  0  0  0  0
    6.7541   -2.1888    0.0000 H   0  0  0  0  0  0  0  0  0  0  0  0
    7.2874   -2.7812    0.0000 H   0  0  0  0  0  0  0  0  0  0  0  0
    8.9144   -2.6678    0.0000 H   0  0  0  0  0  0  0  0  0  0  0  0
    8.3238   -0.9807    0.0000 H   0  0  0  0  0  0  0  0  0  0  0  0
    8.3697   -0.1051    0.0000 H   0  0  0  0  0  0  0  0  0  0  0  0
    7.4941   -0.0592    0.0000 H   0  0  0  0  0  0  0  0  0  0  0  0
    9.4828   -2.2678    0.0000 H   0  0  0  0  0  0  0  0  0  0  0  0
    9.5287   -1.3922    0.0000 H   0  0  0  0  0  0  0  0  0  0  0  0
    8.6530   -1.3463    0.0000 H   0  0  0  0  0  0  0  0  0  0  0  0
    7.9262   -3.5833    0.0000 H   0  0  0  0  0  0  0  0  0  0  0  0
    8.6616   -4.0608    0.0000 H   0  0  0  0  0  0  0  0  0  0  0  0
    9.1391   -3.3255    0.0000 H   0  0  0  0  0  0  0  0  0  0  0  0
    5.0567   -1.0884    0.0000 H   0  0  0  0  0  0  0  0  0  0  0  0
    5.0108   -1.9640    0.0000 H   0  0  0  0  0  0  0  0  0  0  0  0
    5.8864   -2.0099    0.0000 H   0  0  0  0  0  0  0  0  0  0  0  0
    5.3086    1.8001    0.0000 H   0  0  0  0  0  0  0  0  0  0  0  0
    3.9522    3.1469    0.0000 H   0  0  0  0  0  0  0  0  0  0  0  0
    2.5016    3.8188    0.0000 H   0  0  0  0  0  0  0  0  0  0  0  0
    1.6356    3.9560    0.0000 H   0  0  0  0  0  0  0  0  0  0  0  0
    1.4984    3.0899    0.0000 H   0  0  0  0  0  0  0  0  0  0  0  0
  1 14  2  0  0  0  0
  2 15  2  0  0  0  0
  3  6  1  0  0  0  0
  3 18  1  0  0  0  0
  4  7  1  0  0  0  0
  4 13  1  0  0  0  0
  4 14  1  0  0  0  0
  5 15  1  0  0  0  0
  5 16  1  0  0  0  0
  5 36  1  0  0  0  0
  6 16  2  0  0  0  0
  7  8  1  0  0  0  0
  7 10  1  0  0  0  0
  7 20  1  0  0  0  0
  8  9  1  0  0  0  0
  8 21  1  0  0  0  0
  8 22  1  0  0  0  0
  9 11  1  0  0  0  0
  9 12  1  0  0  0  0
  9 23  1  0  0  0  0
 10 24  1  0  0  0  0
 10 25  1  0  0  0  0
 10 26  1  0  0  0  0
 11 30  1  0  0  0  0
 11 31  1  0  0  0  0
 11 32  1  0  0  0  0
 12 27  1  0  0  0  0
 12 28  1  0  0  0  0
 12 29  1  0  0  0  0
 13 33  1  0  0  0  0
 13 34  1  0  0  0  0
 13 35  1  0  0  0  0
 14 15  1  0  0  0  0
 16 17  1  0  0  0  0
 17 18  2  0  0  0  0
 17 37  1  0  0  0  0
 18 19  1  0  0  0  0
 19 38  1  0  0  0  0
 19 39  1  0  0  0  0
 19 40  1  0  0  0  0
M  END
> <PUBCHEM_COMPOUND_CID>
47205594

> <PUBCHEM_COMPOUND_CANONICALIZED>
1

> <PUBCHEM_CACTVS_COMPLEXITY>
333

> <PUBCHEM_CACTVS_HBOND_ACCEPTOR>
4

> <PUBCHEM_CACTVS_HBOND_DONOR>
1

> <PUBCHEM_CACTVS_ROTATABLE_BOND>
4

> <PUBCHEM_CACTVS_SUBSKEYS>
AAADceBzMAAAAAAAAAAAAAAAAAAAAWAAAAAAAAAAAAAAAAABgAAAHgAUAAAADSzBkgQztJPQAACpAKNycgCAAAAlIgAhGCG+bFqAZApAiaAUAIhCFwrAQEAAAAAMAAAAAAAAAAAAAAAAAAAAAAAAAAAAAA==

> <PUBCHEM_IUPAC_OPENEYE_NAME>
N'-(1,3-dimethylbutyl)-N'-methyl-N-(5-methylisoxazol-3-yl)oxamide

> <PUBCHEM_IUPAC_CAS_NAME>
N'-methyl-N-(5-methyl-3-isoxazolyl)-N'-(4-methylpentan-2-yl)oxamide

> <PUBCHEM_IUPAC_NAME>
N'-methyl-N-(5-methyl-1,2-oxazol-3-yl)-N'-(4-methylpentan-2-yl)oxamide

> <PUBCHEM_IUPAC_SYSTEMATIC_NAME>
N'-methyl-N-(5-methyl-1,2-oxazol-3-yl)-N'-(4-methylpentan-2-yl)ethanediamide

> <PUBCHEM_IUPAC_TRADITIONAL_NAME>
N'-(1,3-dimethylbutyl)-N'-methyl-N-(5-methylisoxazol-3-yl)oxamide

> <PUBCHEM_IUPAC_INCHI>
InChI=1S/C13H21N3O3/c1-8(2)6-9(3)16(5)13(18)12(17)14-11-7-10(4)19-15-11/h7-9H,6H2,1-5H3,(H,14,15,17)

> <PUBCHEM_IUPAC_INCHIKEY>
LRUHPGJAMUMJIS-UHFFFAOYSA-N

> <PUBCHEM_XLOGP3_AA>
2.3

> <PUBCHEM_EXACT_MASS>
267.158292

> <PUBCHEM_MOLECULAR_FORMULA>
C13H21N3O3

> <PUBCHEM_MOLECULAR_WEIGHT>
267.32414

> <PUBCHEM_OPENEYE_CAN_SMILES>
CC1=CC(=NO1)NC(=O)C(=O)N(C)C(C)CC(C)C

> <PUBCHEM_OPENEYE_ISO_SMILES>
CC1=CC(=NO1)NC(=O)C(=O)N(C)C(C)CC(C)C

> <PUBCHEM_CACTVS_TPSA>
75.4

> <PUBCHEM_MONOISOTOPIC_WEIGHT>
267.158292

> <PUBCHEM_TOTAL_CHARGE>
0

> <PUBCHEM_HEAVY_ATOM_COUNT>
19

> <PUBCHEM_ATOM_DEF_STEREO_COUNT>
0

> <PUBCHEM_ATOM_UDEF_STEREO_COUNT>
1

> <PUBCHEM_BOND_DEF_STEREO_COUNT>
0

> <PUBCHEM_BOND_UDEF_STEREO_COUNT>
0

> <PUBCHEM_ISOTOPIC_ATOM_COUNT>
0

> <PUBCHEM_COMPONENT_COUNT>
1

> <PUBCHEM_CACTVS_TAUTO_COUNT>
8

> <PUBCHEM_COORDINATE_TYPE>
1
5
255

> <PUBCHEM_BONDANNOTATIONS>
16  17  8
17  18  8
3  18  8
3  6  8
6  16  8
7  10  3

$$$$

