17396076
  -OEChem-06241222542D

 42 45  0     0  0  0  0  0  0999 V2000
    6.2160    1.5989    0.0000 S   0  0  0  0  0  0  0  0  0  0  0  0
    4.6456   -1.0284    0.0000 S   0  0  0  0  0  0  0  0  0  0  0  0
    7.6009    2.7204    0.0000 N   0  0  0  0  0  0  0  0  0  0  0  0
    7.7054    3.7149    0.0000 N   0  0  0  0  0  0  0  0  0  0  0  0
    6.1227    3.3785    0.0000 N   0  0  0  0  0  0  0  0  0  0  0  0
    6.7918    4.1216    0.0000 N   0  0  0  0  0  0  0  0  0  0  0  0
    3.8366    0.3729    0.0000 N   0  0  0  0  0  0  0  0  0  0  0  0
    2.8660   -1.1216    0.0000 N   0  0  0  0  0  0  0  0  0  0  0  0
    8.3440    2.0512    0.0000 C   0  0  0  0  0  0  0  0  0  0  0  0
    8.2395    1.0567    0.0000 C   0  0  0  0  0  0  0  0  0  0  0  0
    9.3222    2.2591    0.0000 C   0  0  0  0  0  0  0  0  0  0  0  0
    9.1530    0.6500    0.0000 C   0  0  0  0  0  0  0  0  0  0  0  0
    9.8222    1.3931    0.0000 C   0  0  0  0  0  0  0  0  0  0  0  0
    6.6227    2.5124    0.0000 C   0  0  0  0  0  0  0  0  0  0  0  0
    5.2215    1.4944    0.0000 C   0  0  0  0  0  0  0  0  0  0  0  0
    4.8147    0.5808    0.0000 C   0  0  0  0  0  0  0  0  0  0  0  0
    5.3147   -0.2852    0.0000 C   0  0  0  0  0  0  0  0  0  0  0  0
    3.7320   -0.6216    0.0000 C   0  0  0  0  0  0  0  0  0  0  0  0
    2.8660   -2.1216    0.0000 C   0  0  0  0  0  0  0  0  0  0  0  0
    2.0000   -2.6216    0.0000 C   0  0  0  0  0  0  0  0  0  0  0  0
    3.7320   -2.6216    0.0000 C   0  0  0  0  0  0  0  0  0  0  0  0
    2.0000   -3.6216    0.0000 C   0  0  0  0  0  0  0  0  0  0  0  0
    3.7320   -3.6216    0.0000 C   0  0  0  0  0  0  0  0  0  0  0  0
    2.8660   -4.1216    0.0000 C   0  0  0  0  0  0  0  0  0  0  0  0
    7.7652    1.8290    0.0000 H   0  0  0  0  0  0  0  0  0  0  0  0
    7.6330    1.1856    0.0000 H   0  0  0  0  0  0  0  0  0  0  0  0
    8.0479    0.4670    0.0000 H   0  0  0  0  0  0  0  0  0  0  0  0
    9.8886    2.5113    0.0000 H   0  0  0  0  0  0  0  0  0  0  0  0
    9.1306    2.8488    0.0000 H   0  0  0  0  0  0  0  0  0  0  0  0
    8.8430    0.1130    0.0000 H   0  0  0  0  0  0  0  0  0  0  0  0
    9.6546    0.2855    0.0000 H   0  0  0  0  0  0  0  0  0  0  0  0
   10.2370    0.9324    0.0000 H   0  0  0  0  0  0  0  0  0  0  0  0
   10.3238    1.7575    0.0000 H   0  0  0  0  0  0  0  0  0  0  0  0
    5.2647    2.1129    0.0000 H   0  0  0  0  0  0  0  0  0  0  0  0
    4.6199    1.6444    0.0000 H   0  0  0  0  0  0  0  0  0  0  0  0
    5.9313   -0.3500    0.0000 H   0  0  0  0  0  0  0  0  0  0  0  0
    2.3291   -0.8116    0.0000 H   0  0  0  0  0  0  0  0  0  0  0  0
    1.4631   -2.3116    0.0000 H   0  0  0  0  0  0  0  0  0  0  0  0
    4.2690   -2.3116    0.0000 H   0  0  0  0  0  0  0  0  0  0  0  0
    1.4631   -3.9316    0.0000 H   0  0  0  0  0  0  0  0  0  0  0  0
    4.2690   -3.9316    0.0000 H   0  0  0  0  0  0  0  0  0  0  0  0
    2.8660   -4.7416    0.0000 H   0  0  0  0  0  0  0  0  0  0  0  0
  1 14  1  0  0  0  0
  1 15  1  0  0  0  0
  2 17  1  0  0  0  0
  2 18  1  0  0  0  0
  3  4  1  0  0  0  0
  3  9  1  0  0  0  0
  3 14  1  0  0  0  0
  4  6  2  0  0  0  0
  5  6  1  0  0  0  0
  5 14  2  0  0  0  0
  7 16  1  0  0  0  0
  7 18  2  0  0  0  0
  8 18  1  0  0  0  0
  8 19  1  0  0  0  0
  8 37  1  0  0  0  0
  9 10  1  0  0  0  0
  9 11  1  0  0  0  0
  9 25  1  0  0  0  0
 10 12  1  0  0  0  0
 10 26  1  0  0  0  0
 10 27  1  0  0  0  0
 11 13  1  0  0  0  0
 11 28  1  0  0  0  0
 11 29  1  0  0  0  0
 12 13  1  0  0  0  0
 12 30  1  0  0  0  0
 12 31  1  0  0  0  0
 13 32  1  0  0  0  0
 13 33  1  0  0  0  0
 15 16  1  0  0  0  0
 15 34  1  0  0  0  0
 15 35  1  0  0  0  0
 16 17  2  0  0  0  0
 17 36  1  0  0  0  0
 19 20  2  0  0  0  0
 19 21  1  0  0  0  0
 20 22  1  0  0  0  0
 20 38  1  0  0  0  0
 21 23  2  0  0  0  0
 21 39  1  0  0  0  0
 22 24  2  0  0  0  0
 22 40  1  0  0  0  0
 23 24  1  0  0  0  0
 23 41  1  0  0  0  0
 24 42  1  0  0  0  0
M  END
> <PUBCHEM_COMPOUND_CID>
17396076

> <PUBCHEM_COMPOUND_CANONICALIZED>
1

> <PUBCHEM_CACTVS_COMPLEXITY>
389

> <PUBCHEM_CACTVS_HBOND_ACCEPTOR>
7

> <PUBCHEM_CACTVS_HBOND_DONOR>
1

> <PUBCHEM_CACTVS_ROTATABLE_BOND>
6

> <PUBCHEM_CACTVS_SUBSKEYS>
AAADceB7gABgAAAAAAAAAAAAAAAAAeLEAAAwAAAAAAAAAAAB8AAAHAQYAAAACCjFVgSx0ZbIEAimASRiZACC8KthirkdyBQYZIiIICLgmZGEIAhokAJIyCcQAAAAAAAAAAAAAAAAAAAAAAAAAAAAAAAAAA==

> <PUBCHEM_IUPAC_OPENEYE_NAME>
4-[(1-cyclopentyltetrazol-5-yl)sulfanylmethyl]-N-phenyl-thiazol-2-amine

> <PUBCHEM_IUPAC_CAS_NAME>
4-[[(1-cyclopentyl-5-tetrazolyl)thio]methyl]-N-phenyl-2-thiazolamine

> <PUBCHEM_IUPAC_NAME>
4-[(1-cyclopentyltetrazol-5-yl)sulfanylmethyl]-N-phenyl-1,3-thiazol-2-amine

> <PUBCHEM_IUPAC_SYSTEMATIC_NAME>
4-[(1-cyclopentyl-1,2,3,4-tetrazol-5-yl)sulfanylmethyl]-N-phenyl-1,3-thiazol-2-amine

> <PUBCHEM_IUPAC_TRADITIONAL_NAME>
[4-[[(1-cyclopentyltetrazol-5-yl)thio]methyl]thiazol-2-yl]-phenyl-amine

> <PUBCHEM_IUPAC_INCHI>
InChI=1S/C16H18N6S2/c1-2-6-12(7-3-1)17-15-18-13(10-23-15)11-24-16-19-20-21-22(16)14-8-4-5-9-14/h1-3,6-7,10,14H,4-5,8-9,11H2,(H,17,18)

> <PUBCHEM_IUPAC_INCHIKEY>
XHKWNCXEAGLTMJ-UHFFFAOYSA-N

> <PUBCHEM_XLOGP3_AA>
4

> <PUBCHEM_EXACT_MASS>
358.103437

> <PUBCHEM_MOLECULAR_FORMULA>
C16H18N6S2

> <PUBCHEM_MOLECULAR_WEIGHT>
358.48432

> <PUBCHEM_OPENEYE_CAN_SMILES>
C1CCC(C1)N2C(=NN=N2)SCC3=CSC(=N3)NC4=CC=CC=C4

> <PUBCHEM_OPENEYE_ISO_SMILES>
C1CCC(C1)N2C(=NN=N2)SCC3=CSC(=N3)NC4=CC=CC=C4

> <PUBCHEM_CACTVS_TPSA>
122

> <PUBCHEM_MONOISOTOPIC_WEIGHT>
358.103437

> <PUBCHEM_TOTAL_CHARGE>
0

> <PUBCHEM_HEAVY_ATOM_COUNT>
24

> <PUBCHEM_ATOM_DEF_STEREO_COUNT>
0

> <PUBCHEM_ATOM_UDEF_STEREO_COUNT>
0

> <PUBCHEM_BOND_DEF_STEREO_COUNT>
0

> <PUBCHEM_BOND_UDEF_STEREO_COUNT>
0

> <PUBCHEM_ISOTOPIC_ATOM_COUNT>
0

> <PUBCHEM_COMPONENT_COUNT>
1

> <PUBCHEM_CACTVS_TAUTO_COUNT>
2

> <PUBCHEM_COORDINATE_TYPE>
1
5
255

> <PUBCHEM_BONDANNOTATIONS>
16  17  8
19  20  8
19  21  8
2  17  8
2  18  8
20  22  8
21  23  8
22  24  8
23  24  8
3  14  8
3  4  8
4  6  8
5  14  8
5  6  8
7  16  8
7  18  8

$$$$

