104756
  -OEChem-07051213152D

 36 41  0     1  0  0  0  0  0999 V2000
    6.0147   -3.1716    0.0000 O   0  0  0  0  0  0  0  0  0  0  0  0
    7.8101   -2.3702    0.0000 O   0  0  0  0  0  0  0  0  0  0  0  0
    8.0115   -0.4954    0.0000 O   0  0  0  0  0  0  0  0  0  0  0  0
    4.6485   -0.3630    0.0000 O   0  0  0  0  0  0  0  0  0  0  0  0
    6.4084    2.6716    0.0000 O   0  0  0  0  0  0  0  0  0  0  0  0
    2.8783   -0.3525    0.0000 O   0  0  0  0  0  0  0  0  0  0  0  0
    2.0000    1.6945    0.0000 O   0  0  0  0  0  0  0  0  0  0  0  0
    6.2188   -2.2043    0.0000 C   0  0  2  0  0  0  0  0  0  0  0  0
    6.6176   -1.3002    0.0000 C   0  0  2  0  0  0  0  0  0  0  0  0
    6.9543   -2.8643    0.0000 C   0  0  1  0  0  0  0  0  0  0  0  0
    7.6064   -1.4032    0.0000 C   0  0  2  0  0  0  0  0  0  0  0  0
    6.4084   -0.3284    0.0000 C   0  0  0  0  0  0  0  0  0  0  0  0
    7.2744    0.1716    0.0000 C   0  0  0  0  0  0  0  0  0  0  0  0
    5.5424    0.1716    0.0000 C   0  0  0  0  0  0  0  0  0  0  0  0
    5.5424    1.1716    0.0000 C   0  0  0  0  0  0  0  0  0  0  0  0
    7.2744    1.1716    0.0000 C   0  0  0  0  0  0  0  0  0  0  0  0
    4.6485    1.7063    0.0000 C   0  0  0  0  0  0  0  0  0  0  0  0
    6.4084    1.6716    0.0000 C   0  0  0  0  0  0  0  0  0  0  0  0
    4.4384    2.7202    0.0000 C   0  0  0  0  0  0  0  0  0  0  0  0
    3.7424    1.1925    0.0000 C   0  0  0  0  0  0  0  0  0  0  0  0
    3.4093    2.8355    0.0000 C   0  0  0  0  0  0  0  0  0  0  0  0
    3.7424    0.1508    0.0000 C   0  0  0  0  0  0  0  0  0  0  0  0
    2.9801    1.8932    0.0000 C   0  0  0  0  0  0  0  0  0  0  0  0
    7.2744    3.1716    0.0000 C   0  0  0  0  0  0  0  0  0  0  0  0
    5.6287   -2.0142    0.0000 H   0  0  0  0  0  0  0  0  0  0  0  0
    5.7720   -1.2139    0.0000 H   0  0  0  0  0  0  0  0  0  0  0  0
    7.2071   -3.4304    0.0000 H   0  0  0  0  0  0  0  0  0  0  0  0
    8.4516   -1.4932    0.0000 H   0  0  0  0  0  0  0  0  0  0  0  0
    7.8114    1.4816    0.0000 H   0  0  0  0  0  0  0  0  0  0  0  0
    5.0553    2.7815    0.0000 H   0  0  0  0  0  0  0  0  0  0  0  0
    4.4422    3.3402    0.0000 H   0  0  0  0  0  0  0  0  0  0  0  0
    3.5427    3.4410    0.0000 H   0  0  0  0  0  0  0  0  0  0  0  0
    2.8212    3.0318    0.0000 H   0  0  0  0  0  0  0  0  0  0  0  0
    7.5844    2.6347    0.0000 H   0  0  0  0  0  0  0  0  0  0  0  0
    7.8114    3.4816    0.0000 H   0  0  0  0  0  0  0  0  0  0  0  0
    6.9644    3.7086    0.0000 H   0  0  0  0  0  0  0  0  0  0  0  0
  8  1  1  6  0  0  0
 10  1  1  6  0  0  0
  2 10  1  0  0  0  0
  2 11  1  0  0  0  0
  3 11  1  0  0  0  0
  3 13  1  0  0  0  0
  4 14  1  0  0  0  0
  4 22  1  0  0  0  0
  5 18  1  0  0  0  0
  5 24  1  0  0  0  0
  6 22  2  0  0  0  0
  7 23  2  0  0  0  0
  8  9  1  0  0  0  0
  8 10  1  0  0  0  0
  8 25  1  0  0  0  0
  9 11  1  0  0  0  0
  9 12  1  0  0  0  0
  9 26  1  6  0  0  0
 10 27  1  0  0  0  0
 11 28  1  6  0  0  0
 12 13  1  0  0  0  0
 12 14  2  0  0  0  0
 13 16  2  0  0  0  0
 14 15  1  0  0  0  0
 15 17  1  0  0  0  0
 15 18  2  0  0  0  0
 16 18  1  0  0  0  0
 16 29  1  0  0  0  0
 17 19  1  0  0  0  0
 17 20  2  0  0  0  0
 19 21  1  0  0  0  0
 19 30  1  0  0  0  0
 19 31  1  0  0  0  0
 20 22  1  0  0  0  0
 20 23  1  0  0  0  0
 21 23  1  0  0  0  0
 21 32  1  0  0  0  0
 21 33  1  0  0  0  0
 24 34  1  0  0  0  0
 24 35  1  0  0  0  0
 24 36  1  0  0  0  0
M  END
> <PUBCHEM_COMPOUND_CID>
104756

> <PUBCHEM_COMPOUND_CANONICALIZED>
1

> <PUBCHEM_CACTVS_COMPLEXITY>
684

> <PUBCHEM_CACTVS_HBOND_ACCEPTOR>
7

> <PUBCHEM_CACTVS_HBOND_DONOR>
0

> <PUBCHEM_CACTVS_ROTATABLE_BOND>
1

> <PUBCHEM_CACTVS_SUBSKEYS>
AAADccB4OAAAAAAAAAAAAAAAEgAAASJEAAA0QIAAAAASAEiBAAAAGgAAAAAADRSwmAMyDoAABACIAqDSCAACCAAgIAAAiAEGCMgdJzaMMBqiOiCl4BUOqQfI6PyOoAACCAAIAABAAAQQABAAAAAAAAAAAA==

> <PUBCHEM_IUPAC_INCHI>
InChI=1S/C17H12O7/c1-20-7-4-8-11(12-14-17(23-14)24-16(12)21-8)13-10(7)5-2-3-6(18)9(5)15(19)22-13/h4,12,14,16-17H,2-3H2,1H3/t12-,14-,16+,17+/m1/s1

> <PUBCHEM_IUPAC_INCHIKEY>
KHBXRZGALJGBPA-IRWJRLHMSA-N

> <PUBCHEM_XLOGP3_AA>
0.8

> <PUBCHEM_EXACT_MASS>
328.058303

> <PUBCHEM_MOLECULAR_FORMULA>
C17H12O7

> <PUBCHEM_MOLECULAR_WEIGHT>
328.27298

> <PUBCHEM_OPENEYE_CAN_SMILES>
COC1=C2C3=C(C(=O)CC3)C(=O)OC2=C4C5C6C(O6)OC5OC4=C1

> <PUBCHEM_OPENEYE_ISO_SMILES>
COC1=C2C3=C(C(=O)CC3)C(=O)OC2=C4[C@@H]5[C@@H]6[C@@H](O6)O[C@@H]5OC4=C1

> <PUBCHEM_CACTVS_TPSA>
83.6

> <PUBCHEM_MONOISOTOPIC_WEIGHT>
328.058303

> <PUBCHEM_TOTAL_CHARGE>
0

> <PUBCHEM_HEAVY_ATOM_COUNT>
24

> <PUBCHEM_ATOM_DEF_STEREO_COUNT>
4

> <PUBCHEM_ATOM_UDEF_STEREO_COUNT>
0

> <PUBCHEM_BOND_DEF_STEREO_COUNT>
0

> <PUBCHEM_BOND_UDEF_STEREO_COUNT>
0

> <PUBCHEM_ISOTOPIC_ATOM_COUNT>
0

> <PUBCHEM_COMPONENT_COUNT>
1

> <PUBCHEM_CACTVS_TAUTO_COUNT>
10

> <PUBCHEM_COORDINATE_TYPE>
1
5
255

> <PUBCHEM_BONDANNOTATIONS>
10  1  6
8  1  6
11  28  6
12  13  8
12  14  8
13  16  8
14  15  8
15  17  8
15  18  8
16  18  8
17  20  8
20  22  8
4  14  8
4  22  8
9  26  6

$$$$

