185992
  -OEChem-07051212482D

 15 14  0     1  0  0  0  0  0999 V2000
    3.4030   -0.3170    0.0000 P   0  0  0  0  0  0  0  0  0  0  0  0
    2.5369   -0.8170    0.0000 O   0  0  0  0  0  0  0  0  0  0  0  0
    2.9030    0.5490    0.0000 O   0  0  0  0  0  0  0  0  0  0  0  0
    3.9030   -1.1830    0.0000 O   0  0  0  0  0  0  0  0  0  0  0  0
    5.1350   -0.3170    0.0000 N   0  0  0  0  0  0  0  0  0  0  0  0
    4.2690    0.1830    0.0000 C   0  0  1  0  0  0  0  0  0  0  0  0
    4.2690    1.1830    0.0000 C   0  0  0  0  0  0  0  0  0  0  0  0
    4.2690   -0.4370    0.0000 H   0  0  0  0  0  0  0  0  0  0  0  0
    4.8890    1.1830    0.0000 H   0  0  0  0  0  0  0  0  0  0  0  0
    4.2690    1.8030    0.0000 H   0  0  0  0  0  0  0  0  0  0  0  0
    3.6490    1.1830    0.0000 H   0  0  0  0  0  0  0  0  0  0  0  0
    5.6720   -0.0070    0.0000 H   0  0  0  0  0  0  0  0  0  0  0  0
    5.1350   -0.9370    0.0000 H   0  0  0  0  0  0  0  0  0  0  0  0
    2.0000   -0.5070    0.0000 H   0  0  0  0  0  0  0  0  0  0  0  0
    2.2830    0.5490    0.0000 H   0  0  0  0  0  0  0  0  0  0  0  0
  1  2  1  0  0  0  0
  1  3  1  0  0  0  0
  1  4  2  0  0  0  0
  1  6  1  0  0  0  0
  2 14  1  0  0  0  0
  3 15  1  0  0  0  0
  6  5  1  6  0  0  0
  5 12  1  0  0  0  0
  5 13  1  0  0  0  0
  6  7  1  0  0  0  0
  6  8  1  0  0  0  0
  7  9  1  0  0  0  0
  7 10  1  0  0  0  0
  7 11  1  0  0  0  0
M  END
> <PUBCHEM_COMPOUND_CID>
185992

> <PUBCHEM_COMPOUND_CANONICALIZED>
1

> <PUBCHEM_CACTVS_COMPLEXITY>
97.1

> <PUBCHEM_CACTVS_HBOND_ACCEPTOR>
4

> <PUBCHEM_CACTVS_HBOND_DONOR>
3

> <PUBCHEM_CACTVS_ROTATABLE_BOND>
1

> <PUBCHEM_CACTVS_SUBSKEYS>
AAADccBCMAIAAAAAAAAAAAAAAAAAAAAAAAAAAAAAAAAAAAAAAAAAHAgQCCAAAADJAAQCAABAABAAQAAAAIAAAAAAAAAAAIAAAAAAAAAAAAAAAAAAEAAAAAAAAAAAAAAAAAAAAAAAAAAAAAAAAAAAAAAAAA==

> <PUBCHEM_IUPAC_OPENEYE_NAME>
[(1R)-1-aminoethyl]phosphonic acid

> <PUBCHEM_IUPAC_CAS_NAME>
[(1R)-1-aminoethyl]phosphonic acid

> <PUBCHEM_IUPAC_NAME>
[(1R)-1-aminoethyl]phosphonic acid

> <PUBCHEM_IUPAC_SYSTEMATIC_NAME>
[(1R)-1-azanylethyl]phosphonic acid

> <PUBCHEM_IUPAC_TRADITIONAL_NAME>
[(1R)-1-aminoethyl]phosphonic acid

> <PUBCHEM_IUPAC_INCHI>
InChI=1S/C2H8NO3P/c1-2(3)7(4,5)6/h2H,3H2,1H3,(H2,4,5,6)/t2-/m1/s1

> <PUBCHEM_IUPAC_INCHIKEY>
UIQSKEDQPSEGAU-UWTATZPHSA-N

> <PUBCHEM_XLOGP3_AA>
-4.3

> <PUBCHEM_EXACT_MASS>
125.02418

> <PUBCHEM_MOLECULAR_FORMULA>
C2H8NO3P

> <PUBCHEM_MOLECULAR_WEIGHT>
125.063582

> <PUBCHEM_OPENEYE_CAN_SMILES>
CC(N)P(=O)(O)O

> <PUBCHEM_OPENEYE_ISO_SMILES>
C[C@H](N)P(=O)(O)O

> <PUBCHEM_CACTVS_TPSA>
83.6

> <PUBCHEM_MONOISOTOPIC_WEIGHT>
125.02418

> <PUBCHEM_TOTAL_CHARGE>
0

> <PUBCHEM_HEAVY_ATOM_COUNT>
7

> <PUBCHEM_ATOM_DEF_STEREO_COUNT>
1

> <PUBCHEM_ATOM_UDEF_STEREO_COUNT>
0

> <PUBCHEM_BOND_DEF_STEREO_COUNT>
0

> <PUBCHEM_BOND_UDEF_STEREO_COUNT>
0

> <PUBCHEM_ISOTOPIC_ATOM_COUNT>
0

> <PUBCHEM_COMPONENT_COUNT>
1

> <PUBCHEM_CACTVS_TAUTO_COUNT>
1

> <PUBCHEM_COORDINATE_TYPE>
1
5
255

> <PUBCHEM_BONDANNOTATIONS>
6  5  6

$$$$

