91270
  -OEChem-07051212542D

 70 72  0     1  0  0  0  0  0999 V2000
    3.7320    1.8450    0.0000 O   0  0  0  0  0  0  0  0  0  0  0  0
    4.5981    4.3450    0.0000 O   0  0  0  0  0  0  0  0  0  0  0  0
    9.8602    3.3692    0.0000 O   0  0  0  0  0  0  0  0  0  0  0  0
    9.8602    1.3208    0.0000 O   0  0  0  0  0  0  0  0  0  0  0  0
    3.7320    2.8450    0.0000 O   0  0  0  0  0  0  0  0  0  0  0  0
    2.8660   -2.6550    0.0000 O   0  0  0  0  0  0  0  0  0  0  0  0
    2.0000   -1.1550    0.0000 O   0  0  0  0  0  0  0  0  0  0  0  0
    5.4641    1.8450    0.0000 N   0  0  0  0  0  0  0  0  0  0  0  0
    3.7320   -0.1550    0.0000 N   0  0  0  0  0  0  0  0  0  0  0  0
    5.4641    2.8450    0.0000 C   0  0  1  0  0  0  0  0  0  0  0  0
    6.3301    3.3450    0.0000 C   0  0  0  0  0  0  0  0  0  0  0  0
    6.3301    1.3450    0.0000 C   0  0  0  0  0  0  0  0  0  0  0  0
    7.1962    2.8450    0.0000 C   0  0  0  0  0  0  0  0  0  0  0  0
    7.1962    1.8450    0.0000 C   0  0  0  0  0  0  0  0  0  0  0  0
    4.5981    0.3450    0.0000 C   0  0  2  0  0  0  0  0  0  0  0  0
    4.5981    1.3450    0.0000 C   0  0  0  0  0  0  0  0  0  0  0  0
    3.7320   -1.1550    0.0000 C   0  0  1  0  0  0  0  0  0  0  0  0
    8.0901    3.3797    0.0000 C   0  0  0  0  0  0  0  0  0  0  0  0
    4.5981    3.3450    0.0000 C   0  0  0  0  0  0  0  0  0  0  0  0
    8.0901    1.3103    0.0000 C   0  0  0  0  0  0  0  0  0  0  0  0
    4.5981   -1.6550    0.0000 C   0  0  0  0  0  0  0  0  0  0  0  0
    5.4641   -0.1550    0.0000 C   0  0  0  0  0  0  0  0  0  0  0  0
    8.9962    2.8658    0.0000 C   0  0  0  0  0  0  0  0  0  0  0  0
    8.9962    1.8242    0.0000 C   0  0  0  0  0  0  0  0  0  0  0  0
    4.5981   -2.6550    0.0000 C   0  0  0  0  0  0  0  0  0  0  0  0
    2.8660   -1.6550    0.0000 C   0  0  0  0  0  0  0  0  0  0  0  0
    5.4641   -3.1550    0.0000 C   0  0  0  0  0  0  0  0  0  0  0  0
    5.4641   -4.1550    0.0000 C   0  0  0  0  0  0  0  0  0  0  0  0
    6.3301   -2.6550    0.0000 C   0  0  0  0  0  0  0  0  0  0  0  0
    9.8564    4.3691    0.0000 C   0  0  0  0  0  0  0  0  0  0  0  0
    9.8564    0.3209    0.0000 C   0  0  0  0  0  0  0  0  0  0  0  0
    2.0000   -3.1550    0.0000 C   0  0  0  0  0  0  0  0  0  0  0  0
    6.3301   -4.6550    0.0000 C   0  0  0  0  0  0  0  0  0  0  0  0
    7.1962   -3.1550    0.0000 C   0  0  0  0  0  0  0  0  0  0  0  0
    7.1962   -4.1550    0.0000 C   0  0  0  0  0  0  0  0  0  0  0  0
    2.0000   -4.1550    0.0000 C   0  0  0  0  0  0  0  0  0  0  0  0
    4.9272    2.5350    0.0000 H   0  0  0  0  0  0  0  0  0  0  0  0
    6.7287    3.8200    0.0000 H   0  0  0  0  0  0  0  0  0  0  0  0
    5.9316    3.8200    0.0000 H   0  0  0  0  0  0  0  0  0  0  0  0
    5.9316    0.8701    0.0000 H   0  0  0  0  0  0  0  0  0  0  0  0
    6.7287    0.8701    0.0000 H   0  0  0  0  0  0  0  0  0  0  0  0
    4.5981   -0.2750    0.0000 H   0  0  0  0  0  0  0  0  0  0  0  0
    4.2690   -0.8450    0.0000 H   0  0  0  0  0  0  0  0  0  0  0  0
    3.1951    0.1550    0.0000 H   0  0  0  0  0  0  0  0  0  0  0  0
    8.0829    3.9996    0.0000 H   0  0  0  0  0  0  0  0  0  0  0  0
    8.0829    0.6904    0.0000 H   0  0  0  0  0  0  0  0  0  0  0  0
    5.2087   -1.7627    0.0000 H   0  0  0  0  0  0  0  0  0  0  0  0
    4.8101   -1.0724    0.0000 H   0  0  0  0  0  0  0  0  0  0  0  0
    5.1541   -0.6919    0.0000 H   0  0  0  0  0  0  0  0  0  0  0  0
    6.0010   -0.4650    0.0000 H   0  0  0  0  0  0  0  0  0  0  0  0
    5.7741    0.3819    0.0000 H   0  0  0  0  0  0  0  0  0  0  0  0
    3.9875   -2.5473    0.0000 H   0  0  0  0  0  0  0  0  0  0  0  0
    4.3860   -3.2376    0.0000 H   0  0  0  0  0  0  0  0  0  0  0  0
    4.0611    4.6550    0.0000 H   0  0  0  0  0  0  0  0  0  0  0  0
    4.9272   -4.4650    0.0000 H   0  0  0  0  0  0  0  0  0  0  0  0
    6.3301   -2.0350    0.0000 H   0  0  0  0  0  0  0  0  0  0  0  0
   10.4764    4.3715    0.0000 H   0  0  0  0  0  0  0  0  0  0  0  0
    9.8540    4.9891    0.0000 H   0  0  0  0  0  0  0  0  0  0  0  0
    9.2364    4.3668    0.0000 H   0  0  0  0  0  0  0  0  0  0  0  0
    9.2364    0.3232    0.0000 H   0  0  0  0  0  0  0  0  0  0  0  0
    9.8540   -0.2991    0.0000 H   0  0  0  0  0  0  0  0  0  0  0  0
   10.4764    0.3185    0.0000 H   0  0  0  0  0  0  0  0  0  0  0  0
    1.7880   -2.5724    0.0000 H   0  0  0  0  0  0  0  0  0  0  0  0
    1.3894   -3.2627    0.0000 H   0  0  0  0  0  0  0  0  0  0  0  0
    6.3301   -5.2750    0.0000 H   0  0  0  0  0  0  0  0  0  0  0  0
    7.7331   -2.8450    0.0000 H   0  0  0  0  0  0  0  0  0  0  0  0
    7.7331   -4.4650    0.0000 H   0  0  0  0  0  0  0  0  0  0  0  0
    1.3800   -4.1550    0.0000 H   0  0  0  0  0  0  0  0  0  0  0  0
    2.0000   -4.7750    0.0000 H   0  0  0  0  0  0  0  0  0  0  0  0
    2.6200   -4.1550    0.0000 H   0  0  0  0  0  0  0  0  0  0  0  0
  1 16  2  0  0  0  0
  2 19  1  0  0  0  0
  2 54  1  0  0  0  0
  3 23  1  0  0  0  0
  3 30  1  0  0  0  0
  4 24  1  0  0  0  0
  4 31  1  0  0  0  0
  5 19  2  0  0  0  0
  6 26  1  0  0  0  0
  6 32  1  0  0  0  0
  7 26  2  0  0  0  0
  8 10  1  0  0  0  0
  8 12  1  0  0  0  0
  8 16  1  0  0  0  0
 15  9  1  6  0  0  0
 17  9  1  1  0  0  0
  9 44  1  0  0  0  0
 10 11  1  0  0  0  0
 10 19  1  6  0  0  0
 10 37  1  0  0  0  0
 11 13  1  0  0  0  0
 11 38  1  0  0  0  0
 11 39  1  0  0  0  0
 12 14  1  0  0  0  0
 12 40  1  0  0  0  0
 12 41  1  0  0  0  0
 13 14  1  0  0  0  0
 13 18  2  0  0  0  0
 14 20  2  0  0  0  0
 15 16  1  0  0  0  0
 15 22  1  0  0  0  0
 15 42  1  0  0  0  0
 17 21  1  0  0  0  0
 17 26  1  0  0  0  0
 17 43  1  0  0  0  0
 18 23  1  0  0  0  0
 18 45  1  0  0  0  0
 20 24  1  0  0  0  0
 20 46  1  0  0  0  0
 21 25  1  0  0  0  0
 21 47  1  0  0  0  0
 21 48  1  0  0  0  0
 22 49  1  0  0  0  0
 22 50  1  0  0  0  0
 22 51  1  0  0  0  0
 23 24  2  0  0  0  0
 25 27  1  0  0  0  0
 25 52  1  0  0  0  0
 25 53  1  0  0  0  0
 27 28  2  0  0  0  0
 27 29  1  0  0  0  0
 28 33  1  0  0  0  0
 28 55  1  0  0  0  0
 29 34  2  0  0  0  0
 29 56  1  0  0  0  0
 30 57  1  0  0  0  0
 30 58  1  0  0  0  0
 30 59  1  0  0  0  0
 31 60  1  0  0  0  0
 31 61  1  0  0  0  0
 31 62  1  0  0  0  0
 32 36  1  0  0  0  0
 32 63  1  0  0  0  0
 32 64  1  0  0  0  0
 33 35  2  0  0  0  0
 33 65  1  0  0  0  0
 34 35  1  0  0  0  0
 34 66  1  0  0  0  0
 35 67  1  0  0  0  0
 36 68  1  0  0  0  0
 36 69  1  0  0  0  0
 36 70  1  0  0  0  0
M  END
> <PUBCHEM_COMPOUND_CID>
91270

> <PUBCHEM_COMPOUND_CANONICALIZED>
1

> <PUBCHEM_CACTVS_COMPLEXITY>
742

> <PUBCHEM_CACTVS_HBOND_ACCEPTOR>
8

> <PUBCHEM_CACTVS_HBOND_DONOR>
2

> <PUBCHEM_CACTVS_ROTATABLE_BOND>
12

> <PUBCHEM_CACTVS_SUBSKEYS>
AAADcfB7OAAAAAAAAAAAAAAAAAAAAAAAAAA8YIAAAAAAAACxQAAAHgAQCAAADCzhmAYyDoPABgCIAiHSGACCCAAgIAAIiIGOjIgPZjKEsTuXcCpk1hGaqAe42LOOoAABAAAQQABAAAIAACCAAAAAAAAAAA==

> <PUBCHEM_IUPAC_OPENEYE_NAME>
(3S)-2-[(2S)-2-[[(1S)-1-ethoxycarbonyl-3-phenyl-propyl]amino]propanoyl]-6,7-dimethoxy-3,4-dihydro-1H-isoquinoline-3-carboxylic acid

> <PUBCHEM_IUPAC_CAS_NAME>
(3S)-2-[(2S)-2-[[(2S)-1-ethoxy-1-oxo-4-phenylbutan-2-yl]amino]-1-oxopropyl]-6,7-dimethoxy-3,4-dihydro-1H-isoquinoline-3-carboxylic acid

> <PUBCHEM_IUPAC_NAME>
(3S)-2-[(2S)-2-[[(2S)-1-ethoxy-1-oxo-4-phenylbutan-2-yl]amino]propanoyl]-6,7-dimethoxy-3,4-dihydro-1H-isoquinoline-3-carboxylic acid

> <PUBCHEM_IUPAC_SYSTEMATIC_NAME>
(3S)-2-[(2S)-2-[[(2S)-1-ethoxy-1-oxidanylidene-4-phenyl-butan-2-yl]amino]propanoyl]-6,7-dimethoxy-3,4-dihydro-1H-isoquinoline-3-carboxylic acid

> <PUBCHEM_IUPAC_TRADITIONAL_NAME>
(3S)-2-[(2S)-2-[[(1S)-1-carbethoxy-3-phenyl-propyl]amino]propanoyl]-6,7-dimethoxy-3,4-dihydro-1H-isoquinoline-3-carboxylic acid

> <PUBCHEM_IUPAC_INCHI>
InChI=1S/C27H34N2O7/c1-5-36-27(33)21(12-11-18-9-7-6-8-10-18)28-17(2)25(30)29-16-20-15-24(35-4)23(34-3)14-19(20)13-22(29)26(31)32/h6-10,14-15,17,21-22,28H,5,11-13,16H2,1-4H3,(H,31,32)/t17-,21-,22-/m0/s1

> <PUBCHEM_IUPAC_INCHIKEY>
UWWDHYUMIORJTA-HSQYWUDLSA-N

> <PUBCHEM_XLOGP3_AA>
1.2

> <PUBCHEM_EXACT_MASS>
498.236601

> <PUBCHEM_MOLECULAR_FORMULA>
C27H34N2O7

> <PUBCHEM_MOLECULAR_WEIGHT>
498.56806

> <PUBCHEM_OPENEYE_CAN_SMILES>
CCOC(=O)C(CCC1=CC=CC=C1)NC(C)C(=O)N2CC3=CC(=C(C=C3CC2C(=O)O)OC)OC

> <PUBCHEM_OPENEYE_ISO_SMILES>
CCOC(=O)[C@H](CCC1=CC=CC=C1)N[C@@H](C)C(=O)N2CC3=CC(=C(C=C3C[C@H]2C(=O)O)OC)OC

> <PUBCHEM_CACTVS_TPSA>
114

> <PUBCHEM_MONOISOTOPIC_WEIGHT>
498.236601

> <PUBCHEM_TOTAL_CHARGE>
0

> <PUBCHEM_HEAVY_ATOM_COUNT>
36

> <PUBCHEM_ATOM_DEF_STEREO_COUNT>
3

> <PUBCHEM_ATOM_UDEF_STEREO_COUNT>
0

> <PUBCHEM_BOND_DEF_STEREO_COUNT>
0

> <PUBCHEM_BOND_UDEF_STEREO_COUNT>
0

> <PUBCHEM_ISOTOPIC_ATOM_COUNT>
0

> <PUBCHEM_COMPONENT_COUNT>
1

> <PUBCHEM_CACTVS_TAUTO_COUNT>
1

> <PUBCHEM_COORDINATE_TYPE>
1
5
255

> <PUBCHEM_BONDANNOTATIONS>
10  19  6
13  14  8
13  18  8
14  20  8
18  23  8
20  24  8
23  24  8
27  28  8
27  29  8
28  33  8
29  34  8
33  35  8
34  35  8
15  9  6
17  9  5

$$$$

