   Color/Form

     * White crystalline solid
     * Colorless crystals
     * WHITE NEEDLES FROM ALCOHOL

   from [1]HSDB

   Odor
        Odorless when pure
   from [2]HSDB

   Melting Point
        90 deg C
   from [3]HSDB

   Corrosivity
        NON-CORROSIVE
   from [4]HSDB

   Density/Specific Gravity
        1.09 at 20 deg C
   from [5]HSDB

   Octanol/Water Partition Coefficient
        log Kow = 2.60
   from [6]HSDB

   Solubilities

     * Soluble in most organic solvents
     * Soluble in esters, alcohols, acetone, benzene, cyclohexane and
       xylene.
     * SOL IN CARBON DISULFIDE; SLIGHTLY SOL IN KEROSENE OR DIESEL OIL;
       VERY SOL IN ETHYL OR ISOPROPYL ALCOHOL
     * In water, 179 mg/L at 25 deg C

   from [7]HSDB

   Spectral Properties

     * Index of refraction = 1.4989 at 91 deg C/D
     * MAX ABSORPTION (ALCOHOL): 235.5 NM (LOG E= 4.23); 274 NM (LOG E=
       2.92)
     * Intense mass spectral peaks: 43 m/z (100%), 93 m/z (89%), 41 m/z
       (57%), 179 m/z (36%)
     * IR: 1229 (Coblentz Society Spectral Collection)
     * MASS: 52344 (NIST/EPA/MSDC Mass Spectral Database, 1990 Version)

   from [8]HSDB

   Vapor Pressure
        1.4X10-4 mm Hg at 25 deg C
   from [9]HSDB

   Other Chemical/Physical Properties

     * Sublimes upon heating; decomposition at 150 deg C.
     * Considerable vapor pressure at 85 deg C. Sublimes slowly at room
       temperature.
     * Henry's Law constant = 1.8X10-7 atm cu m/mol at 25 deg C (est)
     * Hydroxyl radical reaction rate constant = 5.2X10-11 cu cm/molec-sec
       at 25 deg C (est)

   from [10]HSDB

   Computed Properties
   Molecular Weight                  179.21572 [g/mol]
   Molecular Formula                 C[10]H[13]NO[2]
   XLogP3                            2.6
   H-Bond Donor                      1
   H-Bond Acceptor                   2
   Rotatable Bond Count              3
   Tautomer Count                    2
   Exact Mass                        179.094629
   MonoIsotopic Mass                 179.094629
   Topological Polar Surface Area    38.3
   Heavy Atom Count                  13
   Formal Charge                     0
   Complexity                        162
   Isotope Atom Count                0
   Defined Atom Stereocenter Count   0
   Undefined Atom Stereocenter Count 0
   Defined Bond Stereocenter Count   0
   Undefined Bond Stereocenter Count 0
   Covalently-Bonded Unit Count      1
   Feature 3D Acceptor Count         1
   Feature 3D Donor Count            1
   Feature 3D Hydrophobe Count       1
   Feature 3D Ring Count             1
   Effective Rotor Count             4
   Conformer Sampling RMSD           0.6
   CID Conformer Count               [11]17

References

   1. http://toxnet.nlm.nih.gov/cgi-bin/sis/search/r?dbs+hsdb:@term+@rn+@rel+122-42-9
   2. http://toxnet.nlm.nih.gov/cgi-bin/sis/search/r?dbs+hsdb:@term+@rn+@rel+122-42-9
   3. http://toxnet.nlm.nih.gov/cgi-bin/sis/search/r?dbs+hsdb:@term+@rn+@rel+122-42-9
   4. http://toxnet.nlm.nih.gov/cgi-bin/sis/search/r?dbs+hsdb:@term+@rn+@rel+122-42-9
   5. http://toxnet.nlm.nih.gov/cgi-bin/sis/search/r?dbs+hsdb:@term+@rn+@rel+122-42-9
   6. http://toxnet.nlm.nih.gov/cgi-bin/sis/search/r?dbs+hsdb:@term+@rn+@rel+122-42-9
   7. http://toxnet.nlm.nih.gov/cgi-bin/sis/search/r?dbs+hsdb:@term+@rn+@rel+122-42-9
   8. http://toxnet.nlm.nih.gov/cgi-bin/sis/search/r?dbs+hsdb:@term+@rn+@rel+122-42-9
   9. http://toxnet.nlm.nih.gov/cgi-bin/sis/search/r?dbs+hsdb:@term+@rn+@rel+122-42-9
  10. http://toxnet.nlm.nih.gov/cgi-bin/sis/search/r?dbs+hsdb:@term+@rn+@rel+122-42-9
  11. http://pubchem.ncbi.nlm.nih.gov/vw3d/vw3d.cgi?cid=24685
