9954185
  -OEChem-07051213122D

 51 52  0     0  0  0  0  0  0999 V2000
    2.0000   -3.3170    0.0000 F   0  0  0  0  0  0  0  0  0  0  0  0
    2.3660   -1.9510    0.0000 F   0  0  0  0  0  0  0  0  0  0  0  0
    3.3660   -3.6830    0.0000 F   0  0  0  0  0  0  0  0  0  0  0  0
    4.5981    0.1830    0.0000 O   0  0  0  0  0  0  0  0  0  0  0  0
    6.3301   -2.8170    0.0000 O   0  0  0  0  0  0  0  0  0  0  0  0
    8.9282    1.6830    0.0000 O   0  0  0  0  0  0  0  0  0  0  0  0
    6.3301    0.1830    0.0000 O   0  0  0  0  0  0  0  0  0  0  0  0
    8.0622    3.1830    0.0000 O   0  0  0  0  0  0  0  0  0  0  0  0
    5.4641   -1.3170    0.0000 N   0  0  0  0  0  0  0  0  0  0  0  0
    4.5981   -2.8170    0.0000 N   0  0  0  0  0  0  0  0  0  0  0  0
    5.4641    1.6830    0.0000 C   0  0  0  0  0  0  0  0  0  0  0  0
    6.3301    2.1830    0.0000 C   0  0  0  0  0  0  0  0  0  0  0  0
    5.4641    0.6830    0.0000 C   0  0  0  0  0  0  0  0  0  0  0  0
    4.5981    2.1830    0.0000 C   0  0  0  0  0  0  0  0  0  0  0  0
    7.1962   -2.3170    0.0000 C   0  0  0  0  0  0  0  0  0  0  0  0
    6.3301    3.1830    0.0000 C   0  0  0  0  0  0  0  0  0  0  0  0
    7.1962    1.6830    0.0000 C   0  0  0  0  0  0  0  0  0  0  0  0
    4.5981    3.1830    0.0000 C   0  0  0  0  0  0  0  0  0  0  0  0
    5.4641    3.6830    0.0000 C   0  0  0  0  0  0  0  0  0  0  0  0
    4.5981   -0.8170    0.0000 C   0  0  0  0  0  0  0  0  0  0  0  0
    8.0622   -2.8170    0.0000 C   0  0  0  0  0  0  0  0  0  0  0  0
    7.1962   -1.3170    0.0000 C   0  0  0  0  0  0  0  0  0  0  0  0
    5.4641   -2.3170    0.0000 C   0  0  0  0  0  0  0  0  0  0  0  0
    3.7320   -1.3170    0.0000 C   0  0  0  0  0  0  0  0  0  0  0  0
    3.7320   -2.3170    0.0000 C   0  0  0  0  0  0  0  0  0  0  0  0
    8.0622    2.1830    0.0000 C   0  0  0  0  0  0  0  0  0  0  0  0
    7.1962    0.6830    0.0000 C   0  0  0  0  0  0  0  0  0  0  0  0
    2.8660   -2.8170    0.0000 C   0  0  0  0  0  0  0  0  0  0  0  0
    9.7942    2.1830    0.0000 C   0  0  0  0  0  0  0  0  0  0  0  0
    6.3301   -0.8170    0.0000 C   0  0  0  0  0  0  0  0  0  0  0  0
    5.6762    0.1004    0.0000 H   0  0  0  0  0  0  0  0  0  0  0  0
    6.0747    0.7907    0.0000 H   0  0  0  0  0  0  0  0  0  0  0  0
    4.0611    1.8730    0.0000 H   0  0  0  0  0  0  0  0  0  0  0  0
    6.6592   -2.0070    0.0000 H   0  0  0  0  0  0  0  0  0  0  0  0
    6.8671    3.4930    0.0000 H   0  0  0  0  0  0  0  0  0  0  0  0
    4.0611    3.4930    0.0000 H   0  0  0  0  0  0  0  0  0  0  0  0
    5.4641    4.3030    0.0000 H   0  0  0  0  0  0  0  0  0  0  0  0
    7.8162   -1.3170    0.0000 H   0  0  0  0  0  0  0  0  0  0  0  0
    7.7522   -3.3539    0.0000 H   0  0  0  0  0  0  0  0  0  0  0  0
    8.5991   -3.1270    0.0000 H   0  0  0  0  0  0  0  0  0  0  0  0
    8.3722   -2.2800    0.0000 H   0  0  0  0  0  0  0  0  0  0  0  0
    7.1962   -0.6970    0.0000 H   0  0  0  0  0  0  0  0  0  0  0  0
    6.5762   -1.3170    0.0000 H   0  0  0  0  0  0  0  0  0  0  0  0
    3.1951   -1.0070    0.0000 H   0  0  0  0  0  0  0  0  0  0  0  0
    7.7331    0.3730    0.0000 H   0  0  0  0  0  0  0  0  0  0  0  0
   10.1042    1.6461    0.0000 H   0  0  0  0  0  0  0  0  0  0  0  0
   10.3312    2.4930    0.0000 H   0  0  0  0  0  0  0  0  0  0  0  0
    9.4842    2.7200    0.0000 H   0  0  0  0  0  0  0  0  0  0  0  0
    5.7101   -0.8170    0.0000 H   0  0  0  0  0  0  0  0  0  0  0  0
    6.3301   -1.4370    0.0000 H   0  0  0  0  0  0  0  0  0  0  0  0
    6.9501   -0.8170    0.0000 H   0  0  0  0  0  0  0  0  0  0  0  0
  1 28  1  0  0  0  0
  2 28  1  0  0  0  0
  3 28  1  0  0  0  0
  4 13  1  0  0  0  0
  4 20  1  0  0  0  0
  5 15  1  0  0  0  0
  5 23  1  0  0  0  0
  6 26  1  0  0  0  0
  6 29  1  0  0  0  0
  7 27  1  0  0  0  0
  7 30  1  0  0  0  0
  8 26  2  0  0  0  0
  9 20  2  0  0  0  0
  9 23  1  0  0  0  0
 10 23  2  0  0  0  0
 10 25  1  0  0  0  0
 11 12  1  0  0  0  0
 11 13  1  0  0  0  0
 11 14  2  0  0  0  0
 12 16  2  0  0  0  0
 12 17  1  0  0  0  0
 13 31  1  0  0  0  0
 13 32  1  0  0  0  0
 14 18  1  0  0  0  0
 14 33  1  0  0  0  0
 15 21  1  0  0  0  0
 15 22  1  0  0  0  0
 15 34  1  0  0  0  0
 16 19  1  0  0  0  0
 16 35  1  0  0  0  0
 17 26  1  0  0  0  0
 17 27  2  0  0  0  0
 18 19  2  0  0  0  0
 18 36  1  0  0  0  0
 19 37  1  0  0  0  0
 20 24  1  0  0  0  0
 21 39  1  0  0  0  0
 21 40  1  0  0  0  0
 21 41  1  0  0  0  0
 22 38  1  0  0  0  0
 22 42  1  0  0  0  0
 22 43  1  0  0  0  0
 24 25  2  0  0  0  0
 24 44  1  0  0  0  0
 25 28  1  0  0  0  0
 27 45  1  0  0  0  0
 29 46  1  0  0  0  0
 29 47  1  0  0  0  0
 29 48  1  0  0  0  0
 30 49  1  0  0  0  0
 30 50  1  0  0  0  0
 30 51  1  0  0  0  0
M  END
> <PUBCHEM_COMPOUND_CID>
9954185

> <PUBCHEM_COMPOUND_CANONICALIZED>
1

> <PUBCHEM_CACTVS_COMPLEXITY>
585

> <PUBCHEM_CACTVS_HBOND_ACCEPTOR>
10

> <PUBCHEM_CACTVS_HBOND_DONOR>
0

> <PUBCHEM_CACTVS_ROTATABLE_BOND>
9

> <PUBCHEM_CACTVS_SUBSKEYS>
AAADceB7OYAAAAAAAAAAAAAAAAAAAAAAAAA8QAAAAAAAAAABwAAAHwAAAAAADByhnhIznJYIFACoAyTybACCiCkhIqAJmCE2bNiMLjLE/dqOPCjuwBtI6KeI7KiOgAAAAAAQAAAAAAAAACAAAAAAAAAAAA==

> <PUBCHEM_IUPAC_OPENEYE_NAME>
methyl (E)-2-[2-[[2-isopropoxy-6-(trifluoromethyl)pyrimidin-4-yl]oxymethyl]phenyl]-3-methoxy-prop-2-enoate

> <PUBCHEM_IUPAC_CAS_NAME>
(E)-3-methoxy-2-[2-[[2-propan-2-yloxy-6-(trifluoromethyl)-4-pyrimidinyl]oxymethyl]phenyl]-2-propenoic acid methyl ester

> <PUBCHEM_IUPAC_NAME>
methyl (E)-3-methoxy-2-[2-[[2-propan-2-yloxy-6-(trifluoromethyl)pyrimidin-4-yl]oxymethyl]phenyl]prop-2-enoate

> <PUBCHEM_IUPAC_SYSTEMATIC_NAME>
methyl (E)-3-methoxy-2-[2-[[2-propan-2-yloxy-6-(trifluoromethyl)pyrimidin-4-yl]oxymethyl]phenyl]prop-2-enoate

> <PUBCHEM_IUPAC_TRADITIONAL_NAME>
(E)-2-[2-[[2-isopropoxy-6-(trifluoromethyl)pyrimidin-4-yl]oxymethyl]phenyl]-3-methoxy-acrylic acid methyl ester

> <PUBCHEM_IUPAC_INCHI>
InChI=1S/C20H21F3N2O5/c1-12(2)30-19-24-16(20(21,22)23)9-17(25-19)29-10-13-7-5-6-8-14(13)15(11-27-3)18(26)28-4/h5-9,11-12H,10H2,1-4H3/b15-11+

> <PUBCHEM_IUPAC_INCHIKEY>
MXWAGQASUDSFBG-RVDMUPIBSA-N

> <PUBCHEM_XLOGP3_AA>
4.1

> <PUBCHEM_EXACT_MASS>
426.140256

> <PUBCHEM_MOLECULAR_FORMULA>
C20H21F3N2O5

> <PUBCHEM_MOLECULAR_WEIGHT>
426.38635

> <PUBCHEM_OPENEYE_CAN_SMILES>
CC(C)OC1=NC(=CC(=N1)OCC2=CC=CC=C2C(=COC)C(=O)OC)C(F)(F)F

> <PUBCHEM_OPENEYE_ISO_SMILES>
CC(C)OC1=NC(=CC(=N1)OCC2=CC=CC=C2/C(=C\OC)/C(=O)OC)C(F)(F)F

> <PUBCHEM_CACTVS_TPSA>
79.8

> <PUBCHEM_MONOISOTOPIC_WEIGHT>
426.140256

> <PUBCHEM_TOTAL_CHARGE>
0

> <PUBCHEM_HEAVY_ATOM_COUNT>
30

> <PUBCHEM_ATOM_DEF_STEREO_COUNT>
0

> <PUBCHEM_ATOM_UDEF_STEREO_COUNT>
0

> <PUBCHEM_BOND_DEF_STEREO_COUNT>
1

> <PUBCHEM_BOND_UDEF_STEREO_COUNT>
0

> <PUBCHEM_ISOTOPIC_ATOM_COUNT>
0

> <PUBCHEM_COMPONENT_COUNT>
1

> <PUBCHEM_CACTVS_TAUTO_COUNT>
1

> <PUBCHEM_COORDINATE_TYPE>
1
5
255

> <PUBCHEM_BONDANNOTATIONS>
10  23  8
10  25  8
11  12  8
11  14  8
12  16  8
14  18  8
16  19  8
18  19  8
20  24  8
24  25  8
9  20  8
9  23  8

$$$$

