   Color/Form
        Colorless needles
   from [1]HSDB

   Boiling Point
        254 DEG C @ 760 MM HG
   from [2]HSDB

   Melting Point
        47.5 DEG C
   from [3]HSDB

   Critical Temperature and Pressure
        Critical Temperature: 450 deg C; Critical Pressure: 3380 kPa
   from [4]HSDB

   Density/Specific Gravity
        1.70 kg/l
   from [5]HSDB

   Heat of Vaporization
        268.9 J/g
   from [6]HSDB

   Octanol/Water Partition Coefficient
        log Kow= 4.64
   from [7]HSDB

   Solubilities

     * Slightly soluble in ethanol; very soluble in ether and carbon
       disulfide.
     * In water, 5.92 mg/l at 25 deg C.

   from [8]HSDB

   Spectral Properties

     * MAX ABSORPTION (ALCOHOL): 274 NM (LOG E= 2.42); 280 NM (LOG E=
       2.52); 291 NM (LOG E= 2.46)
     * IR: 2244 (Coblentz Society Spectral Collection)
     * UV: 1672 (Sadtler Research Laboratories Spectral Collection)
     * NMR: 19480 (Sadtler Research Laboratories Spectral Collection)
     * MASS: 1520 (Atlas of Mass Spectral Data, John Wiley & Sons, New
       York)

   from [9]HSDB

   Vapor Pressure
        3.9X10-2 mm Hg at 25 deg C
   from [10]HSDB

   Other Chemical/Physical Properties
        Henry's Law constant= 6.9X10-4 atm-cu m/mol at 25 deg C
   from [11]HSDB

   Computed Properties
   Molecular Weight                  215.89208 [g/mol]
   Molecular Formula                 C[6]H[2]Cl[4]
   XLogP3                            4.6
   H-Bond Donor                      0
   H-Bond Acceptor                   0
   Rotatable Bond Count              0
   Exact Mass                        215.888111
   MonoIsotopic Mass                 213.891061
   Topological Polar Surface Area    0
   Heavy Atom Count                  10
   Formal Charge                     0
   Complexity                        102
   Isotope Atom Count                0
   Defined Atom Stereocenter Count   0
   Undefined Atom Stereocenter Count 0
   Defined Bond Stereocenter Count   0
   Undefined Bond Stereocenter Count 0
   Covalently-Bonded Unit Count      1
   Feature 3D Ring Count             1
   Effective Rotor Count             0
   Conformer Sampling RMSD           0.4
   CID Conformer Count               [12]1

References

   1. http://toxnet.nlm.nih.gov/cgi-bin/sis/search/r?dbs+hsdb:@term+@rn+@rel+634-66-2
   2. http://toxnet.nlm.nih.gov/cgi-bin/sis/search/r?dbs+hsdb:@term+@rn+@rel+634-66-2
   3. http://toxnet.nlm.nih.gov/cgi-bin/sis/search/r?dbs+hsdb:@term+@rn+@rel+634-66-2
   4. http://toxnet.nlm.nih.gov/cgi-bin/sis/search/r?dbs+hsdb:@term+@rn+@rel+634-66-2
   5. http://toxnet.nlm.nih.gov/cgi-bin/sis/search/r?dbs+hsdb:@term+@rn+@rel+634-66-2
   6. http://toxnet.nlm.nih.gov/cgi-bin/sis/search/r?dbs+hsdb:@term+@rn+@rel+634-66-2
   7. http://toxnet.nlm.nih.gov/cgi-bin/sis/search/r?dbs+hsdb:@term+@rn+@rel+634-66-2
   8. http://toxnet.nlm.nih.gov/cgi-bin/sis/search/r?dbs+hsdb:@term+@rn+@rel+634-66-2
   9. http://toxnet.nlm.nih.gov/cgi-bin/sis/search/r?dbs+hsdb:@term+@rn+@rel+634-66-2
  10. http://toxnet.nlm.nih.gov/cgi-bin/sis/search/r?dbs+hsdb:@term+@rn+@rel+634-66-2
  11. http://toxnet.nlm.nih.gov/cgi-bin/sis/search/r?dbs+hsdb:@term+@rn+@rel+634-66-2
  12. http://pubchem.ncbi.nlm.nih.gov/vw3d/vw3d.cgi?cid=12463
