10487
  -OEChem-06261204362D

  5  4  0     0  0  0  0  0  0999 V2000
    3.7320    0.5000    0.0000 I   0  0  0  0  0  0  0  0  0  0  0  0
    2.0000   -0.5000    0.0000 I   0  0  0  0  0  0  0  0  0  0  0  0
    2.3660    0.8660    0.0000 I   0  0  0  0  0  0  0  0  0  0  0  0
    3.3660   -0.8660    0.0000 I   0  0  0  0  0  0  0  0  0  0  0  0
    2.8660    0.0000    0.0000 C   0  0  0  0  0  0  0  0  0  0  0  0
  1  5  1  0  0  0  0
  2  5  1  0  0  0  0
  3  5  1  0  0  0  0
  4  5  1  0  0  0  0
M  END
> <PUBCHEM_COMPOUND_CID>
10487

> <PUBCHEM_COMPOUND_CANONICALIZED>
1

> <PUBCHEM_CACTVS_COMPLEXITY>
19.1

> <PUBCHEM_CACTVS_HBOND_ACCEPTOR>
0

> <PUBCHEM_CACTVS_HBOND_DONOR>
0

> <PUBCHEM_CACTVS_ROTATABLE_BOND>
0

> <PUBCHEM_CACTVS_SUBSKEYS>
AAADcQAAAAAAA4AAAAAAAAAAAAAAAAAAAAAAAAAAAAAAAAAAAAAAAAAgAAAAAAAAAAAAAAAAAAAAAAAAAAAAAAAAAAAAAAAAAAAAAAAAAAAAAAAAAAAAAAAAAAAAAAAAAAAAAAAAAAAAAAAAAAAAAAAAAA==

> <PUBCHEM_IUPAC_OPENEYE_NAME>
tetraiodomethane

> <PUBCHEM_IUPAC_CAS_NAME>
tetraiodomethane

> <PUBCHEM_IUPAC_NAME>
tetraiodomethane

> <PUBCHEM_IUPAC_SYSTEMATIC_NAME>
tetrakis(iodanyl)methane

> <PUBCHEM_IUPAC_TRADITIONAL_NAME>
tetraiodomethane

> <PUBCHEM_IUPAC_INCHI>
InChI=1S/CI4/c2-1(3,4)5

> <PUBCHEM_IUPAC_INCHIKEY>
JOHCVVJGGSABQY-UHFFFAOYSA-N

> <PUBCHEM_XLOGP3_AA>
3.3

> <PUBCHEM_EXACT_MASS>
519.617892

> <PUBCHEM_MOLECULAR_FORMULA>
CI4

> <PUBCHEM_MOLECULAR_WEIGHT>
519.62858

> <PUBCHEM_OPENEYE_CAN_SMILES>
C(I)(I)(I)I

> <PUBCHEM_OPENEYE_ISO_SMILES>
C(I)(I)(I)I

> <PUBCHEM_CACTVS_TPSA>
0

> <PUBCHEM_MONOISOTOPIC_WEIGHT>
519.617892

> <PUBCHEM_TOTAL_CHARGE>
0

> <PUBCHEM_HEAVY_ATOM_COUNT>
5

> <PUBCHEM_ATOM_DEF_STEREO_COUNT>
0

> <PUBCHEM_ATOM_UDEF_STEREO_COUNT>
0

> <PUBCHEM_BOND_DEF_STEREO_COUNT>
0

> <PUBCHEM_BOND_UDEF_STEREO_COUNT>
0

> <PUBCHEM_ISOTOPIC_ATOM_COUNT>
0

> <PUBCHEM_COMPONENT_COUNT>
1

> <PUBCHEM_CACTVS_TAUTO_COUNT>
1

> <PUBCHEM_COORDINATE_TYPE>
1
5
255

$$$$

