443313
  -OEChem-07051213022D

 52 55  0     0  0  0  0  0  0999 V2000
    7.2641    3.7621    0.0000 Cl  0  0  0  0  0  0  0  0  0  0  0  0
    6.3981   -2.7379    0.0000 O   0  0  0  0  0  0  0  0  0  0  0  0
    9.9282   -2.7621    0.0000 N   0  3  0  0  0  0  0  0  0  0  0  0
    2.8680   -2.7621    0.0000 N   0  0  0  0  0  0  0  0  0  0  0  0
    6.3981   -0.7379    0.0000 C   0  0  0  0  0  0  0  0  0  0  0  0
    7.2641   -1.2379    0.0000 C   0  0  0  0  0  0  0  0  0  0  0  0
    5.5320   -1.2379    0.0000 C   0  0  0  0  0  0  0  0  0  0  0  0
    7.2641   -2.2379    0.0000 C   0  0  0  0  0  0  0  0  0  0  0  0
    5.5320   -2.2379    0.0000 C   0  0  0  0  0  0  0  0  0  0  0  0
    6.3981    0.2621    0.0000 C   0  0  0  0  0  0  0  0  0  0  0  0
    8.1580   -0.7033    0.0000 C   0  0  0  0  0  0  0  0  0  0  0  0
    4.6381   -0.7033    0.0000 C   0  0  0  0  0  0  0  0  0  0  0  0
    8.1580   -2.7726    0.0000 C   0  0  0  0  0  0  0  0  0  0  0  0
    4.6381   -2.7726    0.0000 C   0  0  0  0  0  0  0  0  0  0  0  0
    9.0641   -2.2587    0.0000 C   0  0  0  0  0  0  0  0  0  0  0  0
    3.7320   -2.2587    0.0000 C   0  0  0  0  0  0  0  0  0  0  0  0
    9.0641   -1.2171    0.0000 C   0  0  0  0  0  0  0  0  0  0  0  0
    3.7320   -1.2171    0.0000 C   0  0  0  0  0  0  0  0  0  0  0  0
    7.2641    0.7621    0.0000 C   0  0  0  0  0  0  0  0  0  0  0  0
    5.5320    0.7621    0.0000 C   0  0  0  0  0  0  0  0  0  0  0  0
    6.3981    2.2621    0.0000 C   0  0  0  0  0  0  0  0  0  0  0  0
    7.2641    1.7621    0.0000 C   0  0  0  0  0  0  0  0  0  0  0  0
    5.5320    1.7621    0.0000 C   0  0  0  0  0  0  0  0  0  0  0  0
   10.7961   -2.2654    0.0000 C   0  0  0  0  0  0  0  0  0  0  0  0
    9.9243   -3.7621    0.0000 C   0  0  0  0  0  0  0  0  0  0  0  0
    2.0000   -2.2654    0.0000 C   0  0  0  0  0  0  0  0  0  0  0  0
    2.8718   -3.7621    0.0000 C   0  0  0  0  0  0  0  0  0  0  0  0
    6.3981    3.2621    0.0000 C   0  0  0  0  0  0  0  0  0  0  0  0
    8.1509   -0.0833    0.0000 H   0  0  0  0  0  0  0  0  0  0  0  0
    4.6453   -0.0833    0.0000 H   0  0  0  0  0  0  0  0  0  0  0  0
    8.1509   -3.3926    0.0000 H   0  0  0  0  0  0  0  0  0  0  0  0
    4.6453   -3.3926    0.0000 H   0  0  0  0  0  0  0  0  0  0  0  0
    9.5998   -0.9050    0.0000 H   0  0  0  0  0  0  0  0  0  0  0  0
    3.1963   -0.9050    0.0000 H   0  0  0  0  0  0  0  0  0  0  0  0
    7.8010    0.4521    0.0000 H   0  0  0  0  0  0  0  0  0  0  0  0
    4.9951    0.4521    0.0000 H   0  0  0  0  0  0  0  0  0  0  0  0
    7.8010    2.0721    0.0000 H   0  0  0  0  0  0  0  0  0  0  0  0
    4.9951    2.0721    0.0000 H   0  0  0  0  0  0  0  0  0  0  0  0
    9.3044   -3.7597    0.0000 H   0  0  0  0  0  0  0  0  0  0  0  0
    9.9220   -4.3821    0.0000 H   0  0  0  0  0  0  0  0  0  0  0  0
   11.1041   -2.8036    0.0000 H   0  0  0  0  0  0  0  0  0  0  0  0
   11.3343   -1.9575    0.0000 H   0  0  0  0  0  0  0  0  0  0  0  0
   10.4882   -1.7273    0.0000 H   0  0  0  0  0  0  0  0  0  0  0  0
   10.5443   -3.7645    0.0000 H   0  0  0  0  0  0  0  0  0  0  0  0
    2.3079   -1.7273    0.0000 H   0  0  0  0  0  0  0  0  0  0  0  0
    1.4619   -1.9575    0.0000 H   0  0  0  0  0  0  0  0  0  0  0  0
    2.2518   -3.7645    0.0000 H   0  0  0  0  0  0  0  0  0  0  0  0
    2.8742   -4.3821    0.0000 H   0  0  0  0  0  0  0  0  0  0  0  0
    3.4918   -3.7597    0.0000 H   0  0  0  0  0  0  0  0  0  0  0  0
    1.6921   -2.8036    0.0000 H   0  0  0  0  0  0  0  0  0  0  0  0
    6.1860    3.8447    0.0000 H   0  0  0  0  0  0  0  0  0  0  0  0
    5.7875    3.1544    0.0000 H   0  0  0  0  0  0  0  0  0  0  0  0
  1 28  1  0  0  0  0
  2  8  1  0  0  0  0
  2  9  1  0  0  0  0
  3 15  2  0  0  0  0
  3 24  1  0  0  0  0
  3 25  1  0  0  0  0
  4 16  1  0  0  0  0
  4 26  1  0  0  0  0
  4 27  1  0  0  0  0
  5  6  2  0  0  0  0
  5  7  1  0  0  0  0
  5 10  1  0  0  0  0
  6  8  1  0  0  0  0
  6 11  1  0  0  0  0
  7  9  2  0  0  0  0
  7 12  1  0  0  0  0
  8 13  2  0  0  0  0
  9 14  1  0  0  0  0
 10 19  2  0  0  0  0
 10 20  1  0  0  0  0
 11 17  2  0  0  0  0
 11 29  1  0  0  0  0
 12 18  2  0  0  0  0
 12 30  1  0  0  0  0
 13 15  1  0  0  0  0
 13 31  1  0  0  0  0
 14 16  2  0  0  0  0
 14 32  1  0  0  0  0
 15 17  1  0  0  0  0
 16 18  1  0  0  0  0
 17 33  1  0  0  0  0
 18 34  1  0  0  0  0
 19 22  1  0  0  0  0
 19 35  1  0  0  0  0
 20 23  2  0  0  0  0
 20 36  1  0  0  0  0
 21 22  2  0  0  0  0
 21 23  1  0  0  0  0
 21 28  1  0  0  0  0
 22 37  1  0  0  0  0
 23 38  1  0  0  0  0
 24 41  1  0  0  0  0
 24 42  1  0  0  0  0
 24 43  1  0  0  0  0
 25 39  1  0  0  0  0
 25 40  1  0  0  0  0
 25 44  1  0  0  0  0
 26 45  1  0  0  0  0
 26 46  1  0  0  0  0
 26 50  1  0  0  0  0
 27 47  1  0  0  0  0
 27 48  1  0  0  0  0
 27 49  1  0  0  0  0
 28 51  1  0  0  0  0
 28 52  1  0  0  0  0
M  CHG  1   3   1
M  END
> <PUBCHEM_COMPOUND_CID>
443313

> <PUBCHEM_COMPOUND_CANONICALIZED>
1

> <PUBCHEM_CACTVS_COMPLEXITY>
677

> <PUBCHEM_CACTVS_HBOND_ACCEPTOR>
2

> <PUBCHEM_CACTVS_HBOND_DONOR>
0

> <PUBCHEM_CACTVS_ROTATABLE_BOND>
3

> <PUBCHEM_CACTVS_SUBSKEYS>
AAADceB7IAAEAAAAAAAAAAAAAAAAAAAAAAAwYIEAAAAAAACBQAAAHgIAAAAADA+BmEQyxoMABACgAyRiRACCCAAhIgAIiAAebpgMJiLFsZuGOCjmwBlI6AeQ0OMOSAAAAgAIAACQAAAEABAAAAAAAAAAAA==

> <PUBCHEM_IUPAC_OPENEYE_NAME>
[9-[4-(chloromethyl)phenyl]-6-(dimethylamino)xanthen-3-ylidene]-dimethyl-ammonium

> <PUBCHEM_IUPAC_CAS_NAME>
[9-[4-(chloromethyl)phenyl]-6-(dimethylamino)-3-xanthenylidene]-dimethylammonium

> <PUBCHEM_IUPAC_NAME>
[9-[4-(chloromethyl)phenyl]-6-(dimethylamino)xanthen-3-ylidene]-dimethylazanium

> <PUBCHEM_IUPAC_SYSTEMATIC_NAME>
[9-[4-(chloromethyl)phenyl]-6-(dimethylamino)xanthen-3-ylidene]-dimethyl-azanium

> <PUBCHEM_IUPAC_TRADITIONAL_NAME>
[9-[4-(chloromethyl)phenyl]-6-(dimethylamino)xanthen-3-ylidene]-dimethyl-ammonium

> <PUBCHEM_IUPAC_INCHI>
InChI=1S/C24H24ClN2O/c1-26(2)18-9-11-20-22(13-18)28-23-14-19(27(3)4)10-12-21(23)24(20)17-7-5-16(15-25)6-8-17/h5-14H,15H2,1-4H3/q+1

> <PUBCHEM_IUPAC_INCHIKEY>
XUDZMIGAJMGETI-UHFFFAOYSA-N

> <PUBCHEM_XLOGP3_AA>
3.9

> <PUBCHEM_EXACT_MASS>
391.157716

> <PUBCHEM_MOLECULAR_FORMULA>
C24H24ClN2O+

> <PUBCHEM_MOLECULAR_WEIGHT>
391.91316

> <PUBCHEM_OPENEYE_CAN_SMILES>
CN(C)C1=CC2=C(C=C1)C(=C3C=CC(=[N+](C)C)C=C3O2)C4=CC=C(C=C4)CCl

> <PUBCHEM_OPENEYE_ISO_SMILES>
CN(C)C1=CC2=C(C=C1)C(=C3C=CC(=[N+](C)C)C=C3O2)C4=CC=C(C=C4)CCl

> <PUBCHEM_CACTVS_TPSA>
15.5

> <PUBCHEM_MONOISOTOPIC_WEIGHT>
391.157716

> <PUBCHEM_TOTAL_CHARGE>
1

> <PUBCHEM_HEAVY_ATOM_COUNT>
28

> <PUBCHEM_ATOM_DEF_STEREO_COUNT>
0

> <PUBCHEM_ATOM_UDEF_STEREO_COUNT>
0

> <PUBCHEM_BOND_DEF_STEREO_COUNT>
0

> <PUBCHEM_BOND_UDEF_STEREO_COUNT>
0

> <PUBCHEM_ISOTOPIC_ATOM_COUNT>
0

> <PUBCHEM_COMPONENT_COUNT>
1

> <PUBCHEM_CACTVS_TAUTO_COUNT>
1

> <PUBCHEM_COORDINATE_TYPE>
1
5
255

> <PUBCHEM_BONDANNOTATIONS>
10  19  8
10  20  8
11  17  8
12  18  8
13  15  8
14  16  8
15  17  8
16  18  8
19  22  8
2  8  8
2  9  8
20  23  8
21  22  8
21  23  8
5  6  8
5  7  8
6  11  8
7  12  8
7  9  8
8  13  8
9  14  8

$$$$

