   Color/Form
        Crystals from ethyl acetate
   from [1]HSDB

   Melting Point
        228-228.5 deg C
   from [2]HSDB

   Octanol/Water Partition Coefficient
        log Kow = 2.12
   from [3]HSDB

   Solubilities

     * Soluble in alcohol; insoluble in water
     * In water, 13.1 mg/L @ 25 deg C /Estimated/

   from [4]HSDB

   Spectral Properties
        UV max (ethanol): 222 nm (Epsilon = 40250)
   from [5]HSDB

   Vapor Pressure
        1.6X10-8 mm Hg @ 25 deg C /Estimated/
   from [6]HSDB

   Other Chemical/Physical Properties

     * Henry's Law constant = 9.8X10-12 atm-cu cm/mol @ 25 deg C
       /Estimated/
     * Hydroxyl radical reaction rate constant = 7.6X10-12 cu cm/molec-sec
       @ 25 deg C /Estimated/

   from [7]HSDB

   Computed Properties
   Molecular Weight                  308.76492 [g/mol]
   Molecular Formula                 C[17]H[13]ClN[4]
   XLogP3                            2.1
   H-Bond Donor                      0
   H-Bond Acceptor                   3
   Rotatable Bond Count              1
   Exact Mass                        308.082874
   MonoIsotopic Mass                 308.082874
   Topological Polar Surface Area    43.1
   Heavy Atom Count                  22
   Formal Charge                     0
   Complexity                        434
   Isotope Atom Count                0
   Defined Atom Stereocenter Count   0
   Undefined Atom Stereocenter Count 0
   Defined Bond Stereocenter Count   0
   Undefined Bond Stereocenter Count 0
   Covalently-Bonded Unit Count      1
   Feature 3D Acceptor Count         1
   Feature 3D Cation Count           2
   Feature 3D Ring Count             4
   Effective Rotor Count             1.2
   Conformer Sampling RMSD           0.6
   CID Conformer Count               [8]1

References

   1. http://toxnet.nlm.nih.gov/cgi-bin/sis/search/r?dbs+hsdb:@term+@rn+@rel+28981-97-7
   2. http://toxnet.nlm.nih.gov/cgi-bin/sis/search/r?dbs+hsdb:@term+@rn+@rel+28981-97-7
   3. http://toxnet.nlm.nih.gov/cgi-bin/sis/search/r?dbs+hsdb:@term+@rn+@rel+28981-97-7
   4. http://toxnet.nlm.nih.gov/cgi-bin/sis/search/r?dbs+hsdb:@term+@rn+@rel+28981-97-7
   5. http://toxnet.nlm.nih.gov/cgi-bin/sis/search/r?dbs+hsdb:@term+@rn+@rel+28981-97-7
   6. http://toxnet.nlm.nih.gov/cgi-bin/sis/search/r?dbs+hsdb:@term+@rn+@rel+28981-97-7
   7. http://toxnet.nlm.nih.gov/cgi-bin/sis/search/r?dbs+hsdb:@term+@rn+@rel+28981-97-7
   8. http://pubchem.ncbi.nlm.nih.gov/vw3d/vw3d.cgi?cid=2118
