   Color/Form

     * Crystals
     * Colorless

   from [1]HSDB

   Boiling Point
        83-84 deg C at 0.0024 mm Hg
   from [2]HSDB

   Melting Point
        75-76 deg C
   from [3]HSDB

   Corrosivity
        Non-corrosive
   from [4]HSDB

   Density/Specific Gravity
        1.4210 @ 25 deg C/4 deg C
   from [5]HSDB

   Solubilities

     * About 2.9 percent in ethanol; 5-7.5 percent in kerosene; soluble in
       acetone, benzene, toluene, xylene, petroleum ether.
     * Less than 1:5000 in water

   from [6]HSDB

   Spectral Properties

     * Max absorption (95% ethanol): 262 nm
     * Intense mass spectral peaks: 125 m/z (100%), 127 m/z (34%), 89 m/z
       (19%), 63 m/z (15%)

   from [7]HSDB

   Vapor Pressure
        1.21X10-5 mm Hg at 30 deg C
   from [8]HSDB

   Other Chemical/Physical Properties

     * Resistant to acid & alkaline hydrolysis; strong oxidizing agents
       convert it to corresponding sulfoxide and sulfone
     * May have almond-like odor /technical grades/
     * Henry's Law constant = 6.96X10-6 atm-cu m/mol at 25 deg C
       /Estimated/
     * Hydroxyl radical reaction rate constant = 1.26X10-11 cu-cm/molecule
       sec at 25 deg C /Estimated/

   from [9]HSDB

   Computed Properties
   Molecular Weight                  269.1895 [g/mol]
   Molecular Formula                 C[13]H[10]Cl[2]S
   XLogP3-AA                         5.2
   H-Bond Donor                      0
   H-Bond Acceptor                   1
   Rotatable Bond Count              3
   Exact Mass                        267.988027
   MonoIsotopic Mass                 267.988027
   Topological Polar Surface Area    25.3
   Heavy Atom Count                  16
   Formal Charge                     0
   Complexity                        194
   Isotope Atom Count                0
   Defined Atom Stereocenter Count   0
   Undefined Atom Stereocenter Count 0
   Defined Bond Stereocenter Count   0
   Undefined Bond Stereocenter Count 0
   Covalently-Bonded Unit Count      1
   Feature 3D Ring Count             2
   Effective Rotor Count             3
   Conformer Sampling RMSD           0.6
   CID Conformer Count               [10]8

References

   1. http://toxnet.nlm.nih.gov/cgi-bin/sis/search/r?dbs+hsdb:@term+@rn+@rel+103-17-3
   2. http://toxnet.nlm.nih.gov/cgi-bin/sis/search/r?dbs+hsdb:@term+@rn+@rel+103-17-3
   3. http://toxnet.nlm.nih.gov/cgi-bin/sis/search/r?dbs+hsdb:@term+@rn+@rel+103-17-3
   4. http://toxnet.nlm.nih.gov/cgi-bin/sis/search/r?dbs+hsdb:@term+@rn+@rel+103-17-3
   5. http://toxnet.nlm.nih.gov/cgi-bin/sis/search/r?dbs+hsdb:@term+@rn+@rel+103-17-3
   6. http://toxnet.nlm.nih.gov/cgi-bin/sis/search/r?dbs+hsdb:@term+@rn+@rel+103-17-3
   7. http://toxnet.nlm.nih.gov/cgi-bin/sis/search/r?dbs+hsdb:@term+@rn+@rel+103-17-3
   8. http://toxnet.nlm.nih.gov/cgi-bin/sis/search/r?dbs+hsdb:@term+@rn+@rel+103-17-3
   9. http://toxnet.nlm.nih.gov/cgi-bin/sis/search/r?dbs+hsdb:@term+@rn+@rel+103-17-3
  10. http://pubchem.ncbi.nlm.nih.gov/vw3d/vw3d.cgi?cid=7639
