   Color/Form
        Colorless gas [Note: A liquid below 38 degrees F. Shipped as a
   liquefied compressed gas].
   from [1]HSDB

   Odor

     * Usually odorless; sweetish, chloroform-like odor at high concn
     * Methyl bromide has practically no odor or irritating effects in low
       concentration and therefore does not provide any warning of
       physiologically dangerous concentrations.

   from [2]HSDB

   Taste
        Burning taste
   from [3]HSDB

   Boiling Point
        3.5 deg C
   from [4]HSDB

   Melting Point
        -93.66 deg C
   from [5]HSDB

   Corrosivity

     * Corrosive to aluminum, magnesium & their alloys
     * In presence of moisture, corrosive to tin, zinc, & other alloys.
     * When dry (<100 ppm water), methyl bromide is inert toward most
       materials of construction. Aluminum, magnesium, zinc, and alloys of
       these metals should not be used because under some conditions
       dangerous pyrophoric compounds may be formed. Many nonmetallic
       materials are also useful for handling methyl bromide, but nylon
       and polyvinyl chloride should be avoided.

   from [6]HSDB

   Critical Temperature and Pressure
        Critical temp: 194 deg C; Critical pressure: 83.4 atm
   from [7]HSDB

   Density/Specific Gravity
        1.730 @ 0 deg C/4 deg C (liq); 3.974 g/l @ 20 deg C (gas)
   from [8]HSDB

   Heat of Combustion
        -787.0 kJ/mol
   from [9]HSDB

   Heat of Vaporization
        23.26 kJ/mol @ 25 deg C
   from [10]HSDB

   Octanol/Water Partition Coefficient
        log Kow= 1.19
   from [11]HSDB

   Solubilities

     * 13.4 G/L WATER @ 25 DEG C
     * Sol in ether
     * Freely sol in benzene, carbon tetrachloride, carbon disulfide.
     * Miscible in ethanol, chloroform
     * In water, 15,200 mg/l @ 25 deg C

   from [12]HSDB

   Spectral Properties

     * MAX ABSORPTION (GAS): 204 NM (LOG E= 2.26)
     * Index of refraction: 1.4218 @ 20 deg C
     * IR: 10972 (Sadtler Research Laboratories IR Grating Collection)
     * UV: 5-2 (Organic Electronic Spectral Data, Phillips et al, John
       Wiley & Sons, New York)
     * MASS: 821 (NIST/EPA/MSDC Mass Spectral Database 1990 Version); 548
       (Atlas of Mass Spectral Data, J Wiley and Sons, NY)

   from [13]HSDB

   Surface Tension
        24.5 dynes/cm= 0.0245 N/m at 15 deg C
   from [14]HSDB

   Vapor Density
        3.3 (Air= 1)
   from [15]HSDB

   Vapor Pressure
        1620 mm Hg @ 25 deg C
   from [16]HSDB

   Relative Evaporation Rate
        Greater than 1 (butyl acetate= 1)
   from [17]HSDB

   Viscosity
        0.397 cP @ 0 deg C
   from [18]HSDB

   Other Chemical/Physical Properties

     * 1 MG/L= APPROX 257 PPM & 1 PPM= APPROX 3.89 MG/CU M @ 25 DEG C, 760
       TORR
     * Specific heat @ -96.6 deg C: 0.165 cal/g/deg C; @ -13.0 deg C: 1.97
       cal/g/deg C; @ 25 deg C: 0.107 cal/g/deg C; forms cryst hydrate
       below 4 deg C
     * Heat of fusion: 15.05 cal/g= 62.97 J/g= 5,978 J/mol
     * Ratio of specific heats of vapor: 1.247
     * It weighs 14.45 lb/gal at 0 deg C
     * Dielectric constant: 1.0068 @ 100 deg C (gas); 9.82 @ 0 deg C
     * Thermal conductivity: 0.574 at 0 deg C
     * Specific heat of liquid at 0 deg C: 0.12 cal/g
     * Transition Point: -99.4 deg C; Absolute density of gas at 101.325
       kPa at 25 deg C: 3.974 kg/cu m; Critical volume: 1.639 d cu m/kg;
       Critical density: 0.610 kg/d cu m; Critical compressibility factor:
       0.209; Heat of transition at -99.4 deg C = 1.195 kcal/kg
     * Reacts with some metals (aluminum); alkylating agent
     * Dipole moment: 1.79 (gas)
     * Heat of formation (Gibbs): -6.75 kcal/mole; Heat of formation
       (enthalpy): -9.02 kcal/mole
     * Saturated liquid density: 107.700 lb/cu ft at 35 deg F; Liquid heat
       capacity: 0.198 Btu/lb-feet at 35 deg F; Liquid thermal
       conductivity: 0.700 Btu-inch/hr-sq ft-F at 30 deg F; Saturated
       vapor pressure: 27.710 lb/sq in at 70 deg F; Saturated vapor
       density: 0.46270 lb/cu ft at 70 deg F; Ideal gas heat capacity:
       0.106 Btu/lb-F at 75 deg F
     * ... It forms a crystalline hydrate with ice water.
     * Viscosity= 0.22 centistokes at 0 deg C
     * Easily liquefied gas or volatile liquid
     * Heat of vaporization: 23.91 kJ/mol at 3.5 deg C; 22.81 kJ/mol at 25
       deg C (extrapolated)
     * Hydroxyl radical reaction rate constant = 4.02X10-14 cu cm/molecule
       sec @ 25 deg C
     * Henry's Law constant = 7.34X10-3 atm-cu m/mole @ 25 deg C [Yates
       SR, Gan J; J Agric Food Chem 46: 755-61 (1998)] [19]PubMed Abstract

   from [20]HSDB

   Computed Properties
   Molecular Weight                  94.93852 [g/mol]
   Molecular Formula                 CH[3]Br
   XLogP3-AA                         1
   H-Bond Donor                      0
   H-Bond Acceptor                   0
   Rotatable Bond Count              0
   Exact Mass                        93.941812
   MonoIsotopic Mass                 93.941812
   Topological Polar Surface Area    0
   Heavy Atom Count                  2
   Formal Charge                     0
   Complexity                        2
   Isotope Atom Count                0
   Defined Atom Stereocenter Count   0
   Undefined Atom Stereocenter Count 0
   Defined Bond Stereocenter Count   0
   Undefined Bond Stereocenter Count 0
   Covalently-Bonded Unit Count      1
   Feature 3D Hydrophobe Count       1
   Effective Rotor Count             0
   Conformer Sampling RMSD           0.4
   CID Conformer Count               [21]1

References

   1. http://toxnet.nlm.nih.gov/cgi-bin/sis/search/r?dbs+hsdb:@term+@rn+@rel+74-83-9
   2. http://toxnet.nlm.nih.gov/cgi-bin/sis/search/r?dbs+hsdb:@term+@rn+@rel+74-83-9
   3. http://toxnet.nlm.nih.gov/cgi-bin/sis/search/r?dbs+hsdb:@term+@rn+@rel+74-83-9
   4. http://toxnet.nlm.nih.gov/cgi-bin/sis/search/r?dbs+hsdb:@term+@rn+@rel+74-83-9
   5. http://toxnet.nlm.nih.gov/cgi-bin/sis/search/r?dbs+hsdb:@term+@rn+@rel+74-83-9
   6. http://toxnet.nlm.nih.gov/cgi-bin/sis/search/r?dbs+hsdb:@term+@rn+@rel+74-83-9
   7. http://toxnet.nlm.nih.gov/cgi-bin/sis/search/r?dbs+hsdb:@term+@rn+@rel+74-83-9
   8. http://toxnet.nlm.nih.gov/cgi-bin/sis/search/r?dbs+hsdb:@term+@rn+@rel+74-83-9
   9. http://toxnet.nlm.nih.gov/cgi-bin/sis/search/r?dbs+hsdb:@term+@rn+@rel+74-83-9
  10. http://toxnet.nlm.nih.gov/cgi-bin/sis/search/r?dbs+hsdb:@term+@rn+@rel+74-83-9
  11. http://toxnet.nlm.nih.gov/cgi-bin/sis/search/r?dbs+hsdb:@term+@rn+@rel+74-83-9
  12. http://toxnet.nlm.nih.gov/cgi-bin/sis/search/r?dbs+hsdb:@term+@rn+@rel+74-83-9
  13. http://toxnet.nlm.nih.gov/cgi-bin/sis/search/r?dbs+hsdb:@term+@rn+@rel+74-83-9
  14. http://toxnet.nlm.nih.gov/cgi-bin/sis/search/r?dbs+hsdb:@term+@rn+@rel+74-83-9
  15. http://toxnet.nlm.nih.gov/cgi-bin/sis/search/r?dbs+hsdb:@term+@rn+@rel+74-83-9
  16. http://toxnet.nlm.nih.gov/cgi-bin/sis/search/r?dbs+hsdb:@term+@rn+@rel+74-83-9
  17. http://toxnet.nlm.nih.gov/cgi-bin/sis/search/r?dbs+hsdb:@term+@rn+@rel+74-83-9
  18. http://toxnet.nlm.nih.gov/cgi-bin/sis/search/r?dbs+hsdb:@term+@rn+@rel+74-83-9
  19. http://www.ncbi.nlm.nih.gov/entrez/query.fcgi?cmd=Retrieve&db=pubmed&dopt=Abstract&list_uids=10554310
  20. http://toxnet.nlm.nih.gov/cgi-bin/sis/search/r?dbs+hsdb:@term+@rn+@rel+74-83-9
  21. http://pubchem.ncbi.nlm.nih.gov/vw3d/vw3d.cgi?cid=6323
