8875
  -OEChem-06261203122D

 64 63  0     0  0  0  0  0  0999 V2000
    3.4030    0.0670    0.0000 S   0  0  0  0  0  0  0  0  0  0  0  0
    6.0010    0.5670    0.0000 O   0  0  0  0  0  0  0  0  0  0  0  0
    6.8671   -0.9330    0.0000 O   0  0  0  0  0  0  0  0  0  0  0  0
    2.5369   -0.4330    0.0000 O   0  0  0  0  0  0  0  0  0  0  0  0
    2.9030    0.9330    0.0000 O   0  0  0  0  0  0  0  0  0  0  0  0
    3.9030   -0.7990    0.0000 O   0  0  0  0  0  0  0  0  0  0  0  0
   18.1254    0.5670    0.0000 C   0  0  0  0  0  0  0  0  0  0  0  0
   17.2594    0.0670    0.0000 C   0  0  0  0  0  0  0  0  0  0  0  0
   10.3312    0.0670    0.0000 C   0  0  0  0  0  0  0  0  0  0  0  0
   11.1972    0.5670    0.0000 C   0  0  0  0  0  0  0  0  0  0  0  0
   18.9914    0.0670    0.0000 C   0  0  0  0  0  0  0  0  0  0  0  0
    9.4651    0.5670    0.0000 C   0  0  0  0  0  0  0  0  0  0  0  0
   16.3933    0.5670    0.0000 C   0  0  0  0  0  0  0  0  0  0  0  0
   12.0632    0.0670    0.0000 C   0  0  0  0  0  0  0  0  0  0  0  0
   19.8574    0.5670    0.0000 C   0  0  0  0  0  0  0  0  0  0  0  0
    8.5991    0.0670    0.0000 C   0  0  0  0  0  0  0  0  0  0  0  0
   15.5273    0.0670    0.0000 C   0  0  0  0  0  0  0  0  0  0  0  0
   12.9292    0.5670    0.0000 C   0  0  0  0  0  0  0  0  0  0  0  0
   20.7235    0.0670    0.0000 C   0  0  0  0  0  0  0  0  0  0  0  0
   14.6613    0.5670    0.0000 C   0  0  0  0  0  0  0  0  0  0  0  0
   13.7953    0.0670    0.0000 C   0  0  0  0  0  0  0  0  0  0  0  0
    7.7331    0.5670    0.0000 C   0  0  0  0  0  0  0  0  0  0  0  0
   21.5895    0.5670    0.0000 C   0  0  0  0  0  0  0  0  0  0  0  0
    6.8671    0.0670    0.0000 C   0  0  0  0  0  0  0  0  0  0  0  0
    5.1350    0.0670    0.0000 C   0  0  0  0  0  0  0  0  0  0  0  0
    4.2690    0.5670    0.0000 C   0  0  0  0  0  0  0  0  0  0  0  0
   18.5239    1.0419    0.0000 H   0  0  0  0  0  0  0  0  0  0  0  0
   17.7269    1.0419    0.0000 H   0  0  0  0  0  0  0  0  0  0  0  0
   16.8608   -0.4080    0.0000 H   0  0  0  0  0  0  0  0  0  0  0  0
   17.6579   -0.4080    0.0000 H   0  0  0  0  0  0  0  0  0  0  0  0
    9.9326   -0.4080    0.0000 H   0  0  0  0  0  0  0  0  0  0  0  0
   10.7297   -0.4080    0.0000 H   0  0  0  0  0  0  0  0  0  0  0  0
   11.5957    1.0419    0.0000 H   0  0  0  0  0  0  0  0  0  0  0  0
   10.7987    1.0419    0.0000 H   0  0  0  0  0  0  0  0  0  0  0  0
   18.5929   -0.4080    0.0000 H   0  0  0  0  0  0  0  0  0  0  0  0
   19.3899   -0.4080    0.0000 H   0  0  0  0  0  0  0  0  0  0  0  0
    9.8637    1.0419    0.0000 H   0  0  0  0  0  0  0  0  0  0  0  0
    9.0666    1.0419    0.0000 H   0  0  0  0  0  0  0  0  0  0  0  0
   16.7919    1.0419    0.0000 H   0  0  0  0  0  0  0  0  0  0  0  0
   15.9948    1.0419    0.0000 H   0  0  0  0  0  0  0  0  0  0  0  0
   11.6647   -0.4080    0.0000 H   0  0  0  0  0  0  0  0  0  0  0  0
   12.4617   -0.4080    0.0000 H   0  0  0  0  0  0  0  0  0  0  0  0
   20.2560    1.0419    0.0000 H   0  0  0  0  0  0  0  0  0  0  0  0
   19.4589    1.0419    0.0000 H   0  0  0  0  0  0  0  0  0  0  0  0
    8.2006   -0.4080    0.0000 H   0  0  0  0  0  0  0  0  0  0  0  0
    8.9976   -0.4080    0.0000 H   0  0  0  0  0  0  0  0  0  0  0  0
   15.1288   -0.4080    0.0000 H   0  0  0  0  0  0  0  0  0  0  0  0
   15.9258   -0.4080    0.0000 H   0  0  0  0  0  0  0  0  0  0  0  0
   13.3278    1.0419    0.0000 H   0  0  0  0  0  0  0  0  0  0  0  0
   12.5307    1.0419    0.0000 H   0  0  0  0  0  0  0  0  0  0  0  0
   20.3249   -0.4080    0.0000 H   0  0  0  0  0  0  0  0  0  0  0  0
   21.1220   -0.4080    0.0000 H   0  0  0  0  0  0  0  0  0  0  0  0
   14.6613    1.1870    0.0000 H   0  0  0  0  0  0  0  0  0  0  0  0
   13.7953   -0.5530    0.0000 H   0  0  0  0  0  0  0  0  0  0  0  0
    8.1316    1.0419    0.0000 H   0  0  0  0  0  0  0  0  0  0  0  0
    7.3346    1.0419    0.0000 H   0  0  0  0  0  0  0  0  0  0  0  0
   21.8995    0.0301    0.0000 H   0  0  0  0  0  0  0  0  0  0  0  0
   22.1264    0.8770    0.0000 H   0  0  0  0  0  0  0  0  0  0  0  0
   21.2795    1.1039    0.0000 H   0  0  0  0  0  0  0  0  0  0  0  0
    4.7365   -0.4080    0.0000 H   0  0  0  0  0  0  0  0  0  0  0  0
    5.5335   -0.4080    0.0000 H   0  0  0  0  0  0  0  0  0  0  0  0
    4.6675    1.0419    0.0000 H   0  0  0  0  0  0  0  0  0  0  0  0
    3.8705    1.0419    0.0000 H   0  0  0  0  0  0  0  0  0  0  0  0
    2.0000   -0.1230    0.0000 H   0  0  0  0  0  0  0  0  0  0  0  0
  1  4  1  0  0  0  0
  1  5  2  0  0  0  0
  1  6  2  0  0  0  0
  1 26  1  0  0  0  0
  2 24  1  0  0  0  0
  2 25  1  0  0  0  0
  3 24  2  0  0  0  0
  4 64  1  0  0  0  0
  7  8  1  0  0  0  0
  7 11  1  0  0  0  0
  7 27  1  0  0  0  0
  7 28  1  0  0  0  0
  8 13  1  0  0  0  0
  8 29  1  0  0  0  0
  8 30  1  0  0  0  0
  9 10  1  0  0  0  0
  9 12  1  0  0  0  0
  9 31  1  0  0  0  0
  9 32  1  0  0  0  0
 10 14  1  0  0  0  0
 10 33  1  0  0  0  0
 10 34  1  0  0  0  0
 11 15  1  0  0  0  0
 11 35  1  0  0  0  0
 11 36  1  0  0  0  0
 12 16  1  0  0  0  0
 12 37  1  0  0  0  0
 12 38  1  0  0  0  0
 13 17  1  0  0  0  0
 13 39  1  0  0  0  0
 13 40  1  0  0  0  0
 14 18  1  0  0  0  0
 14 41  1  0  0  0  0
 14 42  1  0  0  0  0
 15 19  1  0  0  0  0
 15 43  1  0  0  0  0
 15 44  1  0  0  0  0
 16 22  1  0  0  0  0
 16 45  1  0  0  0  0
 16 46  1  0  0  0  0
 17 20  1  0  0  0  0
 17 47  1  0  0  0  0
 17 48  1  0  0  0  0
 18 21  1  0  0  0  0
 18 49  1  0  0  0  0
 18 50  1  0  0  0  0
 19 23  1  0  0  0  0
 19 51  1  0  0  0  0
 19 52  1  0  0  0  0
 20 21  2  3  0  0  0
 20 53  1  0  0  0  0
 21 54  1  0  0  0  0
 22 24  1  0  0  0  0
 22 55  1  0  0  0  0
 22 56  1  0  0  0  0
 23 57  1  0  0  0  0
 23 58  1  0  0  0  0
 23 59  1  0  0  0  0
 25 26  1  0  0  0  0
 25 60  1  0  0  0  0
 25 61  1  0  0  0  0
 26 62  1  0  0  0  0
 26 63  1  0  0  0  0
M  END
> <PUBCHEM_COMPOUND_CID>
8875

> <PUBCHEM_COMPOUND_CANONICALIZED>
1

> <PUBCHEM_CACTVS_COMPLEXITY>
451

> <PUBCHEM_CACTVS_HBOND_ACCEPTOR>
5

> <PUBCHEM_CACTVS_HBOND_DONOR>
1

> <PUBCHEM_CACTVS_ROTATABLE_BOND>
19

> <PUBCHEM_CACTVS_SUBSKEYS>
AAADcfB4OABAAAAAAAAAAAAAAAAAAAAAAAAAAAAAAAAAAAAAAAAAGgQACAAACACkwAKCCAAABIKIACDSCHBAAAAgAAAICAEAAAgAABIAAQACAAAEgAAIAAOIyKCAAAAAAAAAAAAAAAAAAAAAAAAAAAAAAA==

> <PUBCHEM_IUPAC_OPENEYE_NAME>
2-octadec-9-enoyloxyethanesulfonic acid

> <PUBCHEM_IUPAC_CAS_NAME>
2-(1-oxooctadec-9-enoxy)ethanesulfonic acid

> <PUBCHEM_IUPAC_NAME>
2-octadec-9-enoyloxyethanesulfonic acid

> <PUBCHEM_IUPAC_SYSTEMATIC_NAME>
2-octadec-9-enoyloxyethanesulfonic acid

> <PUBCHEM_IUPAC_TRADITIONAL_NAME>
2-octadec-9-enoyloxyethanesulfonic acid

> <PUBCHEM_IUPAC_INCHI>
InChI=1S/C20H38O5S/c1-2-3-4-5-6-7-8-9-10-11-12-13-14-15-16-17-20(21)25-18-19-26(22,23)24/h9-10H,2-8,11-19H2,1H3,(H,22,23,24)

> <PUBCHEM_IUPAC_INCHIKEY>
DHNWFKDQGWAXQE-UHFFFAOYSA-N

> <PUBCHEM_XLOGP3_AA>
6.5

> <PUBCHEM_EXACT_MASS>
390.243995

> <PUBCHEM_MOLECULAR_FORMULA>
C20H38O5S

> <PUBCHEM_MOLECULAR_WEIGHT>
390.57772

> <PUBCHEM_OPENEYE_CAN_SMILES>
CCCCCCCCC=CCCCCCCCC(=O)OCCS(=O)(=O)O

> <PUBCHEM_OPENEYE_ISO_SMILES>
CCCCCCCCC=CCCCCCCCC(=O)OCCS(=O)(=O)O

> <PUBCHEM_CACTVS_TPSA>
89

> <PUBCHEM_MONOISOTOPIC_WEIGHT>
390.243995

> <PUBCHEM_TOTAL_CHARGE>
0

> <PUBCHEM_HEAVY_ATOM_COUNT>
26

> <PUBCHEM_ATOM_DEF_STEREO_COUNT>
0

> <PUBCHEM_ATOM_UDEF_STEREO_COUNT>
0

> <PUBCHEM_BOND_DEF_STEREO_COUNT>
0

> <PUBCHEM_BOND_UDEF_STEREO_COUNT>
1

> <PUBCHEM_ISOTOPIC_ATOM_COUNT>
0

> <PUBCHEM_COMPONENT_COUNT>
1

> <PUBCHEM_CACTVS_TAUTO_COUNT>
1

> <PUBCHEM_COORDINATE_TYPE>
1
5
255

> <PUBCHEM_BONDANNOTATIONS>
20  21  1

$$$$

