13985
  -OEChem-06241222412D

 68 68  0     0  0  0  0  0  0999 V2000
   10.0832    6.3267    0.0000 Cl  0  0  0  0  0  0  0  0  0  0  0  0
    4.8671    8.0369    0.0000 O   0  0  0  0  0  0  0  0  0  0  0  0
    4.0010    3.5369    0.0000 N   0  0  0  0  0  0  0  0  0  0  0  0
    5.7331    3.5369    0.0000 N   0  0  0  0  0  0  0  0  0  0  0  0
    4.0010    2.5369    0.0000 C   0  0  0  0  0  0  0  0  0  0  0  0
    3.1350    4.0369    0.0000 C   0  0  0  0  0  0  0  0  0  0  0  0
    3.1350    2.0369    0.0000 C   0  0  0  0  0  0  0  0  0  0  0  0
    2.2690    3.5369    0.0000 C   0  0  0  0  0  0  0  0  0  0  0  0
    4.8671    4.0369    0.0000 C   0  0  0  0  0  0  0  0  0  0  0  0
    4.8671    5.0369    0.0000 C   0  0  0  0  0  0  0  0  0  0  0  0
    5.7331    5.5369    0.0000 C   0  0  0  0  0  0  0  0  0  0  0  0
    3.1350    1.0369    0.0000 C   0  0  0  0  0  0  0  0  0  0  0  0
    1.4030    4.0369    0.0000 C   0  0  0  0  0  0  0  0  0  0  0  0
    5.7331    6.5369    0.0000 C   0  0  0  0  0  0  0  0  0  0  0  0
    3.1350   10.0369    0.0000 C   0  0  0  0  0  0  0  0  0  0  0  0
    4.0010    9.5369    0.0000 C   0  0  0  0  0  0  0  0  0  0  0  0
    4.8671    7.0369    0.0000 C   0  0  0  0  0  0  0  0  0  0  0  0
    3.1350   11.0369    0.0000 C   0  0  0  0  0  0  0  0  0  0  0  0
    4.0010    5.5369    0.0000 C   0  0  0  0  0  0  0  0  0  0  0  0
    4.0010    8.5369    0.0000 C   0  0  0  0  0  0  0  0  0  0  0  0
    4.0010    6.5369    0.0000 C   0  0  0  0  0  0  0  0  0  0  0  0
    2.2690   11.5369    0.0000 C   0  0  0  0  0  0  0  0  0  0  0  0
    6.6270    5.0023    0.0000 C   0  0  0  0  0  0  0  0  0  0  0  0
    0.5369    3.5369    0.0000 C   0  0  0  0  0  0  0  0  0  0  0  0
    2.2690    0.5369    0.0000 C   0  0  0  0  0  0  0  0  0  0  0  0
    6.6270    7.0716    0.0000 C   0  0  0  0  0  0  0  0  0  0  0  0
    7.5331    5.5161    0.0000 C   0  0  0  0  0  0  0  0  0  0  0  0
    7.5331    6.5578    0.0000 C   0  0  0  0  0  0  0  0  0  0  0  0
    2.2690   12.5369    0.0000 C   0  0  0  0  0  0  0  0  0  0  0  0
    4.2131    1.9543    0.0000 H   0  0  0  0  0  0  0  0  0  0  0  0
    4.6116    2.6446    0.0000 H   0  0  0  0  0  0  0  0  0  0  0  0
    3.5335    4.5119    0.0000 H   0  0  0  0  0  0  0  0  0  0  0  0
    2.7365    4.5119    0.0000 H   0  0  0  0  0  0  0  0  0  0  0  0
    2.9230    2.6196    0.0000 H   0  0  0  0  0  0  0  0  0  0  0  0
    1.8705    3.0620    0.0000 H   0  0  0  0  0  0  0  0  0  0  0  0
    2.6675    3.0620    0.0000 H   0  0  0  0  0  0  0  0  0  0  0  0
    2.5244    1.9293    0.0000 H   0  0  0  0  0  0  0  0  0  0  0  0
    3.3471    0.4543    0.0000 H   0  0  0  0  0  0  0  0  0  0  0  0
    3.7456    1.1446    0.0000 H   0  0  0  0  0  0  0  0  0  0  0  0
    1.8015    4.5119    0.0000 H   0  0  0  0  0  0  0  0  0  0  0  0
    1.0044    4.5119    0.0000 H   0  0  0  0  0  0  0  0  0  0  0  0
    2.5244   10.1446    0.0000 H   0  0  0  0  0  0  0  0  0  0  0  0
    2.9230    9.4543    0.0000 H   0  0  0  0  0  0  0  0  0  0  0  0
    4.6116    9.4293    0.0000 H   0  0  0  0  0  0  0  0  0  0  0  0
    4.2131   10.1195    0.0000 H   0  0  0  0  0  0  0  0  0  0  0  0
    3.7456   10.9293    0.0000 H   0  0  0  0  0  0  0  0  0  0  0  0
    3.3471   11.6195    0.0000 H   0  0  0  0  0  0  0  0  0  0  0  0
    3.4641    5.2269    0.0000 H   0  0  0  0  0  0  0  0  0  0  0  0
    3.3905    8.6446    0.0000 H   0  0  0  0  0  0  0  0  0  0  0  0
    3.7890    7.9543    0.0000 H   0  0  0  0  0  0  0  0  0  0  0  0
    3.4641    6.8469    0.0000 H   0  0  0  0  0  0  0  0  0  0  0  0
    1.6584   11.6446    0.0000 H   0  0  0  0  0  0  0  0  0  0  0  0
    2.0569   10.9543    0.0000 H   0  0  0  0  0  0  0  0  0  0  0  0
    6.6199    4.3823    0.0000 H   0  0  0  0  0  0  0  0  0  0  0  0
    0.2269    4.0739    0.0000 H   0  0  0  0  0  0  0  0  0  0  0  0
    0.0000    3.2269    0.0000 H   0  0  0  0  0  0  0  0  0  0  0  0
    0.8469    3.0000    0.0000 H   0  0  0  0  0  0  0  0  0  0  0  0
    1.9590    1.0739    0.0000 H   0  0  0  0  0  0  0  0  0  0  0  0
    1.7320    0.2269    0.0000 H   0  0  0  0  0  0  0  0  0  0  0  0
    2.5790    0.0000    0.0000 H   0  0  0  0  0  0  0  0  0  0  0  0
    6.6199    7.6916    0.0000 H   0  0  0  0  0  0  0  0  0  0  0  0
    5.7331    2.9169    0.0000 H   0  0  0  0  0  0  0  0  0  0  0  0
    8.0688    5.2040    0.0000 H   0  0  0  0  0  0  0  0  0  0  0  0
    8.0688    6.8698    0.0000 H   0  0  0  0  0  0  0  0  0  0  0  0
    2.8890   12.5369    0.0000 H   0  0  0  0  0  0  0  0  0  0  0  0
    2.2690   13.1569    0.0000 H   0  0  0  0  0  0  0  0  0  0  0  0
    1.6490   12.5369    0.0000 H   0  0  0  0  0  0  0  0  0  0  0  0
   11.0832    6.3267    0.0000 H   0  0  0  0  0  0  0  0  0  0  0  0
  1 68  1  0  0  0  0
  2 17  1  0  0  0  0
  2 20  1  0  0  0  0
  3  5  1  0  0  0  0
  3  6  1  0  0  0  0
  3  9  1  0  0  0  0
  4  9  2  0  0  0  0
  4 62  1  0  0  0  0
  5  7  1  0  0  0  0
  5 30  1  0  0  0  0
  5 31  1  0  0  0  0
  6  8  1  0  0  0  0
  6 32  1  0  0  0  0
  6 33  1  0  0  0  0
  7 12  1  0  0  0  0
  7 34  1  0  0  0  0
  7 37  1  0  0  0  0
  8 13  1  0  0  0  0
  8 35  1  0  0  0  0
  8 36  1  0  0  0  0
  9 10  1  0  0  0  0
 10 11  1  0  0  0  0
 10 19  2  0  0  0  0
 11 14  1  0  0  0  0
 11 23  2  0  0  0  0
 12 25  1  0  0  0  0
 12 38  1  0  0  0  0
 12 39  1  0  0  0  0
 13 24  1  0  0  0  0
 13 40  1  0  0  0  0
 13 41  1  0  0  0  0
 14 17  1  0  0  0  0
 14 26  2  0  0  0  0
 15 16  1  0  0  0  0
 15 18  1  0  0  0  0
 15 42  1  0  0  0  0
 15 43  1  0  0  0  0
 16 20  1  0  0  0  0
 16 44  1  0  0  0  0
 16 45  1  0  0  0  0
 17 21  2  0  0  0  0
 18 22  1  0  0  0  0
 18 46  1  0  0  0  0
 18 47  1  0  0  0  0
 19 21  1  0  0  0  0
 19 48  1  0  0  0  0
 20 49  1  0  0  0  0
 20 50  1  0  0  0  0
 21 51  1  0  0  0  0
 22 29  1  0  0  0  0
 22 52  1  0  0  0  0
 22 53  1  0  0  0  0
 23 27  1  0  0  0  0
 23 54  1  0  0  0  0
 24 55  1  0  0  0  0
 24 56  1  0  0  0  0
 24 57  1  0  0  0  0
 25 58  1  0  0  0  0
 25 59  1  0  0  0  0
 25 60  1  0  0  0  0
 26 28  1  0  0  0  0
 26 61  1  0  0  0  0
 27 28  2  0  0  0  0
 27 63  1  0  0  0  0
 28 64  1  0  0  0  0
 29 65  1  0  0  0  0
 29 66  1  0  0  0  0
 29 67  1  0  0  0  0
M  END
> <PUBCHEM_COMPOUND_CID>
13985

> <PUBCHEM_COMPOUND_CANONICALIZED>
1

> <PUBCHEM_CACTVS_COMPLEXITY>
417

> <PUBCHEM_CACTVS_HBOND_ACCEPTOR>
2

> <PUBCHEM_CACTVS_HBOND_DONOR>
2

> <PUBCHEM_CACTVS_ROTATABLE_BOND>
14

> <PUBCHEM_CACTVS_SUBSKEYS>
AAADcfB7IAAEAAAAAAAAAAAAAAAAAAAAAAAwYAAAAAAAAADBUAAAHgAQAAAADAThmAYzBsNABACgAiJiIACCCACgIAAJiAAuDJgMJqKEuRuGOCjkwBGIqAeQ0PIOoAADAAAYAABAAAYAADAAAAAAAAAAAA==

> <PUBCHEM_IUPAC_OPENEYE_NAME>
N,N-dibutyl-4-hexoxy-naphthalene-1-carboxamidine hydrochloride

> <PUBCHEM_IUPAC_CAS_NAME>
N,N-dibutyl-4-hexoxy-1-naphthalenecarboximidamide hydrochloride

> <PUBCHEM_IUPAC_NAME>
N,N-dibutyl-4-hexoxynaphthalene-1-carboximidamide hydrochloride

> <PUBCHEM_IUPAC_SYSTEMATIC_NAME>
N,N-dibutyl-4-hexoxy-naphthalene-1-carboximidamide hydrochloride

> <PUBCHEM_IUPAC_TRADITIONAL_NAME>
N,N-dibutyl-4-hexoxy-1-naphthamidine hydrochloride

> <PUBCHEM_IUPAC_INCHI>
InChI=1S/C25H38N2O.ClH/c1-4-7-10-13-20-28-24-17-16-23(21-14-11-12-15-22(21)24)25(26)27(18-8-5-2)19-9-6-3;/h11-12,14-17,26H,4-10,13,18-20H2,1-3H3;1H

> <PUBCHEM_IUPAC_INCHIKEY>
PBYJDHRFPFHVKZ-UHFFFAOYSA-N

> <PUBCHEM_EXACT_MASS>
418.275092

> <PUBCHEM_MOLECULAR_FORMULA>
C25H39ClN2O

> <PUBCHEM_MOLECULAR_WEIGHT>
419.04296

> <PUBCHEM_OPENEYE_CAN_SMILES>
CCCCCCOC1=CC=C(C2=CC=CC=C21)C(=N)N(CCCC)CCCC.Cl

> <PUBCHEM_OPENEYE_ISO_SMILES>
CCCCCCOC1=CC=C(C2=CC=CC=C21)C(=N)N(CCCC)CCCC.Cl

> <PUBCHEM_CACTVS_TPSA>
36.3

> <PUBCHEM_MONOISOTOPIC_WEIGHT>
418.275092

> <PUBCHEM_TOTAL_CHARGE>
0

> <PUBCHEM_HEAVY_ATOM_COUNT>
29

> <PUBCHEM_ATOM_DEF_STEREO_COUNT>
0

> <PUBCHEM_ATOM_UDEF_STEREO_COUNT>
0

> <PUBCHEM_BOND_DEF_STEREO_COUNT>
0

> <PUBCHEM_BOND_UDEF_STEREO_COUNT>
0

> <PUBCHEM_ISOTOPIC_ATOM_COUNT>
0

> <PUBCHEM_COMPONENT_COUNT>
2

> <PUBCHEM_CACTVS_TAUTO_COUNT>
1

> <PUBCHEM_COORDINATE_TYPE>
1
5
255

> <PUBCHEM_BONDANNOTATIONS>
10  11  8
10  19  8
11  14  8
11  23  8
14  17  8
14  26  8
17  21  8
19  21  8
23  27  8
26  28  8
27  28  8

$$$$

