   Color/Form

     * Prisms from acetone
     * White crystals
     * Colorless crystals

   from [1]HSDB

   Odor
        Odorless
   from [2]HSDB

   Taste
        Medications associated with a metallic or bitter taste include ...
   vitamin D.
   from [3]HSDB

   Boiling Point
        Sublimes
   from [4]HSDB

   Melting Point
        116.5 deg C
   from [5]HSDB

   Octanol/Water Partition Coefficient
        log Kow = 10.44 /Estimated/
   from [6]HSDB

   Solubilities

     * Soluble in alcohol, chloroform, ether, and fatty oils.
     * SOL IN FATTY ACIDS
     * Solubility in acetone 69.5, benzene 10, hexane 1 (all in g/L, room
       temperature)
     * In water, 50 mg/L at 25 deg C

   from [7]HSDB

   Spectral Properties

     * Specific optical rotation: +82.6 @ 25 deg C/D (c= 3 in acetone);
       +102.5 @ 20 deg C/D (alcohol); specific optical rotation: +52 @ 20
       deg C/D (chloroform); UV max absorption (hexane): 264.5 nm (e=
       458.9 +/- 7.5, 1%, 1 cm)
     * MAX ABSORPTION (ALCOHOL): 265 NM (LOG E= 4.27)
     * IR: 14471 (Sadtler Research Laboratories Prism Collection)
     * UV: 5-899 (Organic Electronic Spectral Data, Phillips et al, John
       Wiley & Sons, New York)
     * NMR: 364 (Varian Associates NMR Spectra Catalogue)
     * MASS: 33088 (NIST/EPA/MSDC Mass Spectral Database, 1990 version)

   from [8]HSDB

   Other Chemical/Physical Properties

     * Stable in alkaline media. Unstable to light and air, and in acidic
       media.
     * Sublimes in very high vacuum (0.0006 mm) without decomposition; not
       precipitated by digitonin (different from ergosterol)
     * Hydroxyl radical reaction rate constant = 3.53X10-10 cu
       cm/molec-sec at 25 deg C /Estimated/

   from [9]HSDB

   Computed Properties
   Molecular Weight                  396.64836 [g/mol]
   Molecular Formula                 C[28]H[44]O
   XLogP3-AA                         7.4
   H-Bond Donor                      1
   H-Bond Acceptor                   1
   Rotatable Bond Count              5
   Exact Mass                        396.339216
   MonoIsotopic Mass                 396.339216
   Topological Polar Surface Area    20.2
   Heavy Atom Count                  29
   Formal Charge                     0
   Complexity                        678
   Isotope Atom Count                0
   Defined Atom Stereocenter Count   6
   Undefined Atom Stereocenter Count 0
   Defined Bond Stereocenter Count   3
   Undefined Bond Stereocenter Count 0
   Covalently-Bonded Unit Count      1
   Feature 3D Acceptor Count         1
   Feature 3D Donor Count            1
   Feature 3D Hydrophobe Count       3
   Feature 3D Ring Count             3
   Effective Rotor Count             7
   Conformer Sampling RMSD           0.8
   CID Conformer Count               [10]20

References

   1. http://toxnet.nlm.nih.gov/cgi-bin/sis/search/r?dbs+hsdb:@term+@rn+@rel+50-14-6
   2. http://toxnet.nlm.nih.gov/cgi-bin/sis/search/r?dbs+hsdb:@term+@rn+@rel+50-14-6
   3. http://toxnet.nlm.nih.gov/cgi-bin/sis/search/r?dbs+hsdb:@term+@rn+@rel+50-14-6
   4. http://toxnet.nlm.nih.gov/cgi-bin/sis/search/r?dbs+hsdb:@term+@rn+@rel+50-14-6
   5. http://toxnet.nlm.nih.gov/cgi-bin/sis/search/r?dbs+hsdb:@term+@rn+@rel+50-14-6
   6. http://toxnet.nlm.nih.gov/cgi-bin/sis/search/r?dbs+hsdb:@term+@rn+@rel+50-14-6
   7. http://toxnet.nlm.nih.gov/cgi-bin/sis/search/r?dbs+hsdb:@term+@rn+@rel+50-14-6
   8. http://toxnet.nlm.nih.gov/cgi-bin/sis/search/r?dbs+hsdb:@term+@rn+@rel+50-14-6
   9. http://toxnet.nlm.nih.gov/cgi-bin/sis/search/r?dbs+hsdb:@term+@rn+@rel+50-14-6
  10. http://pubchem.ncbi.nlm.nih.gov/vw3d/vw3d.cgi?cid=5280793
