948
  -OEChem-07051212452D

  3  2  0     0  0  0  0  0  0999 V2000
    3.7320    0.5000    0.0000 O   0  5  0  0  0  0  0  0  0  0  0  0
    2.8660    0.0000    0.0000 N   0  3  0  0  0  0  0  0  0  0  0  0
    2.0000   -0.5000    0.0000 N   0  0  0  0  0  0  0  0  0  0  0  0
  1  2  1  0  0  0  0
  2  3  3  0  0  0  0
M  CHG  2   1  -1   2   1
M  END
> <PUBCHEM_COMPOUND_CID>
948

> <PUBCHEM_COMPOUND_CANONICALIZED>
1

> <PUBCHEM_CACTVS_COMPLEXITY>
29.3

> <PUBCHEM_CACTVS_HBOND_ACCEPTOR>
2

> <PUBCHEM_CACTVS_HBOND_DONOR>
0

> <PUBCHEM_CACTVS_ROTATABLE_BOND>
0

> <PUBCHEM_CACTVS_SUBSKEYS>
AAADcQADIAAAAAAAAAAAAAAAAAAAAAAAAAAAAAAAAAAAAAAAAAAAAAAMAAAAAAAAAAAAAAAAAAAAAAAAAAAAAAAAAAAAAAAAAAAAAAAAAAAAAAAAAAAAAAAAAAAAAAAAAAAAAAAAAAAAAAAAAAAAAAAAAA==

> <PUBCHEM_IUPAC_OPENEYE_NAME>
nitrous oxide

> <PUBCHEM_IUPAC_CAS_NAME>
nitrous oxide

> <PUBCHEM_IUPAC_NAME>
nitrous oxide

> <PUBCHEM_IUPAC_SYSTEMATIC_NAME>
nitrous oxide

> <PUBCHEM_IUPAC_TRADITIONAL_NAME>
nitrous oxide

> <PUBCHEM_IUPAC_INCHI>
InChI=1S/N2O/c1-2-3

> <PUBCHEM_IUPAC_INCHIKEY>
GQPLMRYTRLFLPF-UHFFFAOYSA-N

> <PUBCHEM_XLOGP3_AA>
0.5

> <PUBCHEM_EXACT_MASS>
44.001063

> <PUBCHEM_MOLECULAR_FORMULA>
N2O

> <PUBCHEM_MOLECULAR_WEIGHT>
44.0128

> <PUBCHEM_OPENEYE_CAN_SMILES>
N#[N+][O-]

> <PUBCHEM_OPENEYE_ISO_SMILES>
N#[N+][O-]

> <PUBCHEM_CACTVS_TPSA>
54.5

> <PUBCHEM_MONOISOTOPIC_WEIGHT>
44.001063

> <PUBCHEM_TOTAL_CHARGE>
0

> <PUBCHEM_HEAVY_ATOM_COUNT>
3

> <PUBCHEM_ATOM_DEF_STEREO_COUNT>
0

> <PUBCHEM_ATOM_UDEF_STEREO_COUNT>
0

> <PUBCHEM_BOND_DEF_STEREO_COUNT>
0

> <PUBCHEM_BOND_UDEF_STEREO_COUNT>
0

> <PUBCHEM_ISOTOPIC_ATOM_COUNT>
0

> <PUBCHEM_COMPONENT_COUNT>
1

> <PUBCHEM_CACTVS_TAUTO_COUNT>
1

> <PUBCHEM_COORDINATE_TYPE>
1
5
255

$$$$

