443585
  -OEChem-07051213022D

 34 33  0     1  0  0  0  0  0999 V2000
    6.0010    3.1550    0.0000 O   0  0  0  0  0  0  0  0  0  0  0  0
    2.5369   -2.8450    0.0000 O   0  0  0  0  0  0  0  0  0  0  0  0
    8.5991    1.6550    0.0000 O   0  0  0  0  0  0  0  0  0  0  0  0
    4.2690   -2.8450    0.0000 O   0  0  0  0  0  0  0  0  0  0  0  0
    7.7331    3.1550    0.0000 O   0  0  0  0  0  0  0  0  0  0  0  0
    4.2690    2.1550    0.0000 N   0  0  0  0  0  0  0  0  0  0  0  0
    2.5369   -0.8450    0.0000 N   0  0  0  0  0  0  0  0  0  0  0  0
    5.1350    1.6550    0.0000 C   0  0  3  0  0  0  0  0  0  0  0  0
    5.1350    0.6550    0.0000 C   0  0  0  0  0  0  0  0  0  0  0  0
    4.2690    0.1550    0.0000 C   0  0  0  0  0  0  0  0  0  0  0  0
    6.0010    2.1550    0.0000 C   0  0  3  0  0  0  0  0  0  0  0  0
    4.2690   -0.8450    0.0000 C   0  0  0  0  0  0  0  0  0  0  0  0
    3.4030   -1.3450    0.0000 C   0  0  3  0  0  0  0  0  0  0  0  0
    6.8671    1.6550    0.0000 C   0  0  0  0  0  0  0  0  0  0  0  0
    3.4030   -2.3450    0.0000 C   0  0  0  0  0  0  0  0  0  0  0  0
    7.7331    2.1550    0.0000 C   0  0  0  0  0  0  0  0  0  0  0  0
    5.1350    2.5050    0.0000 H   0  0  0  0  0  0  0  0  0  0  0  0
    5.3471    0.0724    0.0000 H   0  0  0  0  0  0  0  0  0  0  0  0
    5.7456    0.7627    0.0000 H   0  0  0  0  0  0  0  0  0  0  0  0
    4.0569    0.7376    0.0000 H   0  0  0  0  0  0  0  0  0  0  0  0
    3.6584    0.0473    0.0000 H   0  0  0  0  0  0  0  0  0  0  0  0
    6.7372    2.5800    0.0000 H   0  0  0  0  0  0  0  0  0  0  0  0
    4.4810   -1.4276    0.0000 H   0  0  0  0  0  0  0  0  0  0  0  0
    4.8796   -0.7373    0.0000 H   0  0  0  0  0  0  0  0  0  0  0  0
    3.4030   -0.4950    0.0000 H   0  0  0  0  0  0  0  0  0  0  0  0
    6.4685    1.1800    0.0000 H   0  0  0  0  0  0  0  0  0  0  0  0
    7.2656    1.1800    0.0000 H   0  0  0  0  0  0  0  0  0  0  0  0
    3.7320    1.8450    0.0000 H   0  0  0  0  0  0  0  0  0  0  0  0
    4.2690    2.7750    0.0000 H   0  0  0  0  0  0  0  0  0  0  0  0
    6.5380    3.4650    0.0000 H   0  0  0  0  0  0  0  0  0  0  0  0
    2.0000   -1.1550    0.0000 H   0  0  0  0  0  0  0  0  0  0  0  0
    2.5369   -0.2250    0.0000 H   0  0  0  0  0  0  0  0  0  0  0  0
    2.5369   -3.4650    0.0000 H   0  0  0  0  0  0  0  0  0  0  0  0
    9.1360    1.9650    0.0000 H   0  0  0  0  0  0  0  0  0  0  0  0
  1 11  1  0  0  0  0
  1 30  1  0  0  0  0
  2 15  1  0  0  0  0
  2 33  1  0  0  0  0
  3 16  1  0  0  0  0
  3 34  1  0  0  0  0
  4 15  2  0  0  0  0
  5 16  2  0  0  0  0
  6  8  1  0  0  0  0
  6 28  1  0  0  0  0
  6 29  1  0  0  0  0
  7 13  1  0  0  0  0
  7 31  1  0  0  0  0
  7 32  1  0  0  0  0
  8  9  1  0  0  0  0
  8 11  1  0  0  0  0
  8 17  1  0  0  0  0
  9 10  1  0  0  0  0
  9 18  1  0  0  0  0
  9 19  1  0  0  0  0
 10 12  1  0  0  0  0
 10 20  1  0  0  0  0
 10 21  1  0  0  0  0
 11 14  1  0  0  0  0
 11 22  1  0  0  0  0
 12 13  1  0  0  0  0
 12 23  1  0  0  0  0
 12 24  1  0  0  0  0
 13 15  1  0  0  0  0
 13 25  1  0  0  0  0
 14 16  1  0  0  0  0
 14 26  1  0  0  0  0
 14 27  1  0  0  0  0
M  END
> <PUBCHEM_COMPOUND_CID>
443585

> <PUBCHEM_COMPOUND_CANONICALIZED>
1

> <PUBCHEM_CACTVS_COMPLEXITY>
246

> <PUBCHEM_CACTVS_HBOND_ACCEPTOR>
7

> <PUBCHEM_CACTVS_HBOND_DONOR>
5

> <PUBCHEM_CACTVS_ROTATABLE_BOND>
8

> <PUBCHEM_CACTVS_SUBSKEYS>
AAADceBzOAAAAAAAAAAAAAAAAAAAAAAAAAAAAAAAAAAAAAAAAAAAHgAQCAAACDzhgAYACABAAgAIAACQCAAAAAAAAAAAAIGAAAACEBYAgAAAQAAFMAAAAAG8yKCAAAAAAAAAAAAAAAAAAAAAAAAAAAAAAA==

> <PUBCHEM_IUPAC_OPENEYE_NAME>
2,6-diamino-7-hydroxy-nonanedioic acid

> <PUBCHEM_IUPAC_CAS_NAME>
2,6-diamino-7-hydroxynonanedioic acid

> <PUBCHEM_IUPAC_NAME>
2,6-diamino-7-hydroxynonanedioic acid

> <PUBCHEM_IUPAC_SYSTEMATIC_NAME>
2,6-bis(azanyl)-7-oxidanyl-nonanedioic acid

> <PUBCHEM_IUPAC_TRADITIONAL_NAME>
2,6-diamino-7-hydroxy-azelaic acid

> <PUBCHEM_IUPAC_INCHI>
InChI=1S/C9H18N2O5/c10-5(7(12)4-8(13)14)2-1-3-6(11)9(15)16/h5-7,12H,1-4,10-11H2,(H,13,14)(H,15,16)

> <PUBCHEM_IUPAC_INCHIKEY>
XMYUTJGBCFJNFF-UHFFFAOYSA-N

> <PUBCHEM_XLOGP3_AA>
-6.6

> <PUBCHEM_EXACT_MASS>
234.121572

> <PUBCHEM_MOLECULAR_FORMULA>
C9H18N2O5

> <PUBCHEM_MOLECULAR_WEIGHT>
234.24962

> <PUBCHEM_OPENEYE_CAN_SMILES>
C(CC(C(CC(=O)O)O)N)CC(C(=O)O)N

> <PUBCHEM_OPENEYE_ISO_SMILES>
C(CC(C(CC(=O)O)O)N)CC(C(=O)O)N

> <PUBCHEM_CACTVS_TPSA>
147

> <PUBCHEM_MONOISOTOPIC_WEIGHT>
234.121572

> <PUBCHEM_TOTAL_CHARGE>
0

> <PUBCHEM_HEAVY_ATOM_COUNT>
16

> <PUBCHEM_ATOM_DEF_STEREO_COUNT>
0

> <PUBCHEM_ATOM_UDEF_STEREO_COUNT>
3

> <PUBCHEM_BOND_DEF_STEREO_COUNT>
0

> <PUBCHEM_BOND_UDEF_STEREO_COUNT>
0

> <PUBCHEM_ISOTOPIC_ATOM_COUNT>
0

> <PUBCHEM_COMPONENT_COUNT>
1

> <PUBCHEM_CACTVS_TAUTO_COUNT>
1

> <PUBCHEM_COORDINATE_TYPE>
1
5
255

> <PUBCHEM_BONDANNOTATIONS>
11  22  3
13  25  3
8  17  3

$$$$

