13816
  -OEChem-06241222402D

 76 79  0     0  0  0  0  0  0999 V2000
    4.6660    4.2500    0.0000 S   0  0  0  0  0  0  0  0  0  0  0  0
   15.9244   -4.2500    0.0000 S   0  0  0  0  0  0  0  0  0  0  0  0
    3.8000    5.7500    0.0000 Na  0  3  0  0  0  0  0  0  0  0  0  0
   15.0583   -5.7500    0.0000 Na  0  3  0  0  0  0  0  0  0  0  0  0
    4.6660    5.2500    0.0000 O   0  5  0  0  0  0  0  0  0  0  0  0
   15.9244   -5.2500    0.0000 O   0  5  0  0  0  0  0  0  0  0  0  0
    5.6660    4.2500    0.0000 O   0  0  0  0  0  0  0  0  0  0  0  0
    3.6660    4.2500    0.0000 O   0  0  0  0  0  0  0  0  0  0  0  0
   14.9244   -4.2500    0.0000 O   0  0  0  0  0  0  0  0  0  0  0  0
   16.9244   -4.2500    0.0000 O   0  0  0  0  0  0  0  0  0  0  0  0
    6.3981    1.2500    0.0000 N   0  0  0  0  0  0  0  0  0  0  0  0
   14.1923   -1.2500    0.0000 N   0  0  0  0  0  0  0  0  0  0  0  0
    4.6660    0.2500    0.0000 N   0  0  0  0  0  0  0  0  0  0  0  0
   15.9244   -0.2500    0.0000 N   0  0  0  0  0  0  0  0  0  0  0  0
    7.2641    1.7500    0.0000 N   0  0  0  0  0  0  0  0  0  0  0  0
   13.3263   -1.7500    0.0000 N   0  0  0  0  0  0  0  0  0  0  0  0
   16.7904   -2.7500    0.0000 C   0  0  0  0  0  0  0  0  0  0  0  0
    3.8000    2.7500    0.0000 C   0  0  0  0  0  0  0  0  0  0  0  0
   16.7904   -1.7500    0.0000 C   0  0  0  0  0  0  0  0  0  0  0  0
    3.8000    1.7500    0.0000 C   0  0  0  0  0  0  0  0  0  0  0  0
    4.6660    3.2500    0.0000 C   0  0  0  0  0  0  0  0  0  0  0  0
   15.9244   -3.2500    0.0000 C   0  0  0  0  0  0  0  0  0  0  0  0
    4.6660    1.2500    0.0000 C   0  0  0  0  0  0  0  0  0  0  0  0
   15.9244   -1.2500    0.0000 C   0  0  0  0  0  0  0  0  0  0  0  0
   15.0583   -1.7500    0.0000 C   0  0  0  0  0  0  0  0  0  0  0  0
    5.5321    1.7500    0.0000 C   0  0  0  0  0  0  0  0  0  0  0  0
    5.5321    2.7500    0.0000 C   0  0  0  0  0  0  0  0  0  0  0  0
   15.0583   -2.7500    0.0000 C   0  0  0  0  0  0  0  0  0  0  0  0
    9.8622    0.2500    0.0000 C   0  0  0  0  0  0  0  0  0  0  0  0
   10.7282   -0.2500    0.0000 C   0  0  0  0  0  0  0  0  0  0  0  0
    2.9061    3.2847    0.0000 C   0  0  0  0  0  0  0  0  0  0  0  0
   17.6843   -3.2847    0.0000 C   0  0  0  0  0  0  0  0  0  0  0  0
    2.9061    1.2153    0.0000 C   0  0  0  0  0  0  0  0  0  0  0  0
   17.6843   -1.2153    0.0000 C   0  0  0  0  0  0  0  0  0  0  0  0
    8.9962    1.7500    0.0000 C   0  0  0  0  0  0  0  0  0  0  0  0
   11.5942   -1.7500    0.0000 C   0  0  0  0  0  0  0  0  0  0  0  0
    9.8622    1.2500    0.0000 C   0  0  0  0  0  0  0  0  0  0  0  0
   10.7282   -1.2500    0.0000 C   0  0  0  0  0  0  0  0  0  0  0  0
   12.4603   -1.2500    0.0000 C   0  0  0  0  0  0  0  0  0  0  0  0
    8.1301    1.2500    0.0000 C   0  0  0  0  0  0  0  0  0  0  0  0
    8.9962   -0.2500    0.0000 C   0  0  0  0  0  0  0  0  0  0  0  0
   11.5942    0.2500    0.0000 C   0  0  0  0  0  0  0  0  0  0  0  0
   18.5904   -2.7708    0.0000 C   0  0  0  0  0  0  0  0  0  0  0  0
    2.0000    2.7708    0.0000 C   0  0  0  0  0  0  0  0  0  0  0  0
   18.5904   -1.7292    0.0000 C   0  0  0  0  0  0  0  0  0  0  0  0
    2.0000    1.7292    0.0000 C   0  0  0  0  0  0  0  0  0  0  0  0
    8.1301    0.2500    0.0000 C   0  0  0  0  0  0  0  0  0  0  0  0
   12.4603   -0.2500    0.0000 C   0  0  0  0  0  0  0  0  0  0  0  0
    8.9962    2.7500    0.0000 C   0  0  0  0  0  0  0  0  0  0  0  0
   11.5942   -2.7500    0.0000 C   0  0  0  0  0  0  0  0  0  0  0  0
    6.0690    3.0600    0.0000 H   0  0  0  0  0  0  0  0  0  0  0  0
   14.5214   -3.0600    0.0000 H   0  0  0  0  0  0  0  0  0  0  0  0
    2.9132    3.9046    0.0000 H   0  0  0  0  0  0  0  0  0  0  0  0
   17.6772   -3.9046    0.0000 H   0  0  0  0  0  0  0  0  0  0  0  0
    2.9132    0.5954    0.0000 H   0  0  0  0  0  0  0  0  0  0  0  0
   17.6772   -0.5954    0.0000 H   0  0  0  0  0  0  0  0  0  0  0  0
   10.3991    1.5600    0.0000 H   0  0  0  0  0  0  0  0  0  0  0  0
   10.1913   -1.5600    0.0000 H   0  0  0  0  0  0  0  0  0  0  0  0
    8.9962   -0.8700    0.0000 H   0  0  0  0  0  0  0  0  0  0  0  0
   11.5942    0.8700    0.0000 H   0  0  0  0  0  0  0  0  0  0  0  0
    1.4643    3.0829    0.0000 H   0  0  0  0  0  0  0  0  0  0  0  0
   19.1261   -3.0829    0.0000 H   0  0  0  0  0  0  0  0  0  0  0  0
    1.4643    1.4171    0.0000 H   0  0  0  0  0  0  0  0  0  0  0  0
   19.1261   -1.4171    0.0000 H   0  0  0  0  0  0  0  0  0  0  0  0
    7.5932   -0.0600    0.0000 H   0  0  0  0  0  0  0  0  0  0  0  0
   12.9972    0.0600    0.0000 H   0  0  0  0  0  0  0  0  0  0  0  0
    4.1291   -0.0600    0.0000 H   0  0  0  0  0  0  0  0  0  0  0  0
    5.2030   -0.0600    0.0000 H   0  0  0  0  0  0  0  0  0  0  0  0
   15.3874    0.0600    0.0000 H   0  0  0  0  0  0  0  0  0  0  0  0
   16.4613    0.0600    0.0000 H   0  0  0  0  0  0  0  0  0  0  0  0
   10.9742   -2.7500    0.0000 H   0  0  0  0  0  0  0  0  0  0  0  0
   11.5942   -3.3700    0.0000 H   0  0  0  0  0  0  0  0  0  0  0  0
   12.2142   -2.7500    0.0000 H   0  0  0  0  0  0  0  0  0  0  0  0
    9.6162    2.7500    0.0000 H   0  0  0  0  0  0  0  0  0  0  0  0
    8.9962    3.3700    0.0000 H   0  0  0  0  0  0  0  0  0  0  0  0
    8.3762    2.7500    0.0000 H   0  0  0  0  0  0  0  0  0  0  0  0
  1  5  1  0  0  0  0
  1  7  2  0  0  0  0
  1  8  2  0  0  0  0
  1 21  1  0  0  0  0
  2  6  1  0  0  0  0
  2  9  2  0  0  0  0
  2 10  2  0  0  0  0
  2 22  1  0  0  0  0
 11 15  2  0  0  0  0
 11 26  1  0  0  0  0
 12 16  2  0  0  0  0
 12 25  1  0  0  0  0
 13 23  1  0  0  0  0
 13 67  1  0  0  0  0
 13 68  1  0  0  0  0
 14 24  1  0  0  0  0
 14 69  1  0  0  0  0
 14 70  1  0  0  0  0
 15 40  1  0  0  0  0
 16 39  1  0  0  0  0
 17 19  1  0  0  0  0
 17 22  1  0  0  0  0
 17 32  2  0  0  0  0
 18 20  1  0  0  0  0
 18 21  1  0  0  0  0
 18 31  2  0  0  0  0
 19 24  1  0  0  0  0
 19 34  2  0  0  0  0
 20 23  1  0  0  0  0
 20 33  2  0  0  0  0
 21 27  2  0  0  0  0
 22 28  2  0  0  0  0
 23 26  2  0  0  0  0
 24 25  2  0  0  0  0
 25 28  1  0  0  0  0
 26 27  1  0  0  0  0
 27 51  1  0  0  0  0
 28 52  1  0  0  0  0
 29 30  1  0  0  0  0
 29 37  2  0  0  0  0
 29 41  1  0  0  0  0
 30 38  2  0  0  0  0
 30 42  1  0  0  0  0
 31 44  1  0  0  0  0
 31 53  1  0  0  0  0
 32 43  1  0  0  0  0
 32 54  1  0  0  0  0
 33 46  1  0  0  0  0
 33 55  1  0  0  0  0
 34 45  1  0  0  0  0
 34 56  1  0  0  0  0
 35 37  1  0  0  0  0
 35 40  2  0  0  0  0
 35 49  1  0  0  0  0
 36 38  1  0  0  0  0
 36 39  2  0  0  0  0
 36 50  1  0  0  0  0
 37 57  1  0  0  0  0
 38 58  1  0  0  0  0
 39 48  1  0  0  0  0
 40 47  1  0  0  0  0
 41 47  2  0  0  0  0
 41 59  1  0  0  0  0
 42 48  2  0  0  0  0
 42 60  1  0  0  0  0
 43 45  2  0  0  0  0
 43 62  1  0  0  0  0
 44 46  2  0  0  0  0
 44 61  1  0  0  0  0
 45 64  1  0  0  0  0
 46 63  1  0  0  0  0
 47 65  1  0  0  0  0
 48 66  1  0  0  0  0
 49 74  1  0  0  0  0
 49 75  1  0  0  0  0
 49 76  1  0  0  0  0
 50 71  1  0  0  0  0
 50 72  1  0  0  0  0
 50 73  1  0  0  0  0
M  CHG  4   3   1   4   1   5  -1   6  -1
M  END
> <PUBCHEM_COMPOUND_CID>
13816

> <PUBCHEM_COMPOUND_CANONICALIZED>
1

> <PUBCHEM_CACTVS_COMPLEXITY>
1250

> <PUBCHEM_CACTVS_HBOND_ACCEPTOR>
12

> <PUBCHEM_CACTVS_HBOND_DONOR>
2

> <PUBCHEM_CACTVS_ROTATABLE_BOND>
5

> <PUBCHEM_CACTVS_SUBSKEYS>
AAADceB/uDBgAAAAAAAAAAAAAAAAAAAAAAAwYMGDAAAAAADBVAAAHAQYAAAADAiBWAAywcBAAAKCAiRCQHDCAEAgAgAIiBgAdIgIYCKAkZGAIARggAAIyAcQgMAOiAQCwCAWACAQCAWAQCwAQAAAAAAAAA==

> <PUBCHEM_IUPAC_OPENEYE_NAME>
disodium 4-amino-3-[4-[4-[(1-amino-4-sulfonato-2-naphthyl)azo]-3-methyl-phenyl]-2-methyl-phenyl]azo-naphthalene-1-sulfonate

> <PUBCHEM_IUPAC_CAS_NAME>
disodium 4-amino-3-[4-[4-[(1-amino-4-sulfonato-2-naphthalenyl)azo]-3-methylphenyl]-2-methylphenyl]azo-1-naphthalenesulfonate

> <PUBCHEM_IUPAC_NAME>
disodium 4-amino-3-[[4-[4-[(1-amino-4-sulfonatonaphthalen-2-yl)diazenyl]-3-methylphenyl]-2-methylphenyl]diazenyl]naphthalene-1-sulfonate

> <PUBCHEM_IUPAC_SYSTEMATIC_NAME>
disodium 4-azanyl-3-[[4-[4-[(1-azanyl-4-sulfonato-naphthalen-2-yl)diazenyl]-3-methyl-phenyl]-2-methyl-phenyl]diazenyl]naphthalene-1-sulfonate

> <PUBCHEM_IUPAC_TRADITIONAL_NAME>
disodium 4-amino-3-[4-[4-[(1-amino-4-sulfonato-2-naphthyl)azo]-3-methyl-phenyl]-2-methyl-phenyl]azo-naphthalene-1-sulfonate

> <PUBCHEM_IUPAC_INCHI>
InChI=1S/C34H28N6O6S2.2Na/c1-19-15-21(11-13-27(19)37-39-29-17-31(47(41,42)43)23-7-3-5-9-25(23)33(29)35)22-12-14-28(20(2)16-22)38-40-30-18-32(48(44,45)46)24-8-4-6-10-26(24)34(30)36;;/h3-18H,35-36H2,1-2H3,(H,41,42,43)(H,44,45,46);;/q;2*+1/p-2

> <PUBCHEM_IUPAC_INCHIKEY>
SUXCALIDMIIJCK-UHFFFAOYSA-L

> <PUBCHEM_EXACT_MASS>
724.115063

> <PUBCHEM_MOLECULAR_FORMULA>
C34H26N6Na2O6S2

> <PUBCHEM_MOLECULAR_WEIGHT>
724.716379

> <PUBCHEM_OPENEYE_CAN_SMILES>
CC1=C(C=CC(=C1)C2=CC(=C(C=C2)N=NC3=C(C4=CC=CC=C4C(=C3)S(=O)(=O)[O-])N)C)N=NC5=C(C6=CC=CC=C6C(=C5)S(=O)(=O)[O-])N.[Na+].[Na+]

> <PUBCHEM_OPENEYE_ISO_SMILES>
CC1=C(C=CC(=C1)C2=CC(=C(C=C2)N=NC3=C(C4=CC=CC=C4C(=C3)S(=O)(=O)[O-])N)C)N=NC5=C(C6=CC=CC=C6C(=C5)S(=O)(=O)[O-])N.[Na+].[Na+]

> <PUBCHEM_CACTVS_TPSA>
233

> <PUBCHEM_MONOISOTOPIC_WEIGHT>
724.115063

> <PUBCHEM_TOTAL_CHARGE>
0

> <PUBCHEM_HEAVY_ATOM_COUNT>
50

> <PUBCHEM_ATOM_DEF_STEREO_COUNT>
0

> <PUBCHEM_ATOM_UDEF_STEREO_COUNT>
0

> <PUBCHEM_BOND_DEF_STEREO_COUNT>
0

> <PUBCHEM_BOND_UDEF_STEREO_COUNT>
0

> <PUBCHEM_ISOTOPIC_ATOM_COUNT>
0

> <PUBCHEM_COMPONENT_COUNT>
3

> <PUBCHEM_CACTVS_TAUTO_COUNT>
3

> <PUBCHEM_COORDINATE_TYPE>
1
5
255

> <PUBCHEM_BONDANNOTATIONS>
17  19  8
17  22  8
17  32  8
18  20  8
18  21  8
18  31  8
19  24  8
19  34  8
20  23  8
20  33  8
21  27  8
22  28  8
23  26  8
24  25  8
25  28  8
26  27  8
29  37  8
29  41  8
30  38  8
30  42  8
31  44  8
32  43  8
33  46  8
34  45  8
35  37  8
35  40  8
36  38  8
36  39  8
39  48  8
40  47  8
41  47  8
42  48  8
43  45  8
44  46  8

$$$$

