   Color/Form

     * Dimorphous crystals
     * Crystals from petroleum ether
     * WHITE OR SLIGHTLY PINK CRYSTALS

   from [1]HSDB

   Odor
        Said to be odorless when very pure, but usually a phenolic odor
   persists.
   from [2]HSDB

   Boiling Point
        235 deg C
   from [3]HSDB

   Melting Point
        67 deg C
   from [4]HSDB

   Density/Specific Gravity
        1.37 g/cu cm
   from [5]HSDB

   Dissociation Constants
        pKa = 9.55
   from [6]HSDB

   Octanol/Water Partition Coefficient
        log Kow = 3.10
   from [7]HSDB

   pH
        pH = 5.6 in saturated aqueous solution
   from [8]HSDB

   Solubilities

     * Sol in alkalies, organic solvents, fats, and oils
     * More sol in hot than in cold water; freely sol in alcohol, benzene,
       chloroform, ether, fixed oils, terpenes, acetone, aq alkaline soln,
       petroleum ether
     * In water, 3,830 mg/l @ 25 deg C

   from [9]HSDB

   Spectral Properties

     * Intense mass spectral peaks: 142 m/z (100%), 107 m/z (80%), 144 m/z
       (32%), 77 m/z (24%)
     * MASS: 3931 (NIST/EPA/MSDC Mass Spectral Database, 1990 version);
       1126 (Atlas of Mass Spectral Data, John Wiley and Sons, New York)
     * RAMAN: 224 (Sadtler Research Laboratories Spectral Collection)
     * IR: 5721 (Coblentz Society Spectral Collection)
     * UV: 1303 (Sadtler Research Laboratores Spectral Collection)
     * NMR: 10933(Sadtler Research Laboratories Spectral Collection); 236
       (Johnson and Jankowski, Carbon-13 NMR Spectra, John Wiley and Sons,
       New York)

   from [10]HSDB

   Vapor Pressure
        5.00X10-2 mm Hg @ 20 deg C
   from [11]HSDB

   Other Chemical/Physical Properties

     * Volatile with steam
     * Hexane/water partition coefficient 0.34 (log); Oleyl alcohol/water
       partition coefficient 2.46 (log); Dodecane/water partition
       coefficient 0.36 (log); Cell membrane/water partition coefficient
       2.12 (log); Cyclohexane/water partition coefficient 0.15 (log);
       Chloroform/water partition coefficient 1.50 (log); Methyl
       decanoate/water partition coefficient 2.65 (log)

   from [12]HSDB

   Computed Properties
   Molecular Weight                  142.58288 [g/mol]
   Molecular Formula                 C[7]H[7]ClO
   XLogP3                            3.1
   H-Bond Donor                      1
   H-Bond Acceptor                   1
   Rotatable Bond Count              0
   Tautomer Count                    6
   Exact Mass                        142.018543
   MonoIsotopic Mass                 142.018543
   Topological Polar Surface Area    20.2
   Heavy Atom Count                  9
   Formal Charge                     0
   Complexity                        94.9
   Isotope Atom Count                0
   Defined Atom Stereocenter Count   0
   Undefined Atom Stereocenter Count 0
   Defined Bond Stereocenter Count   0
   Undefined Bond Stereocenter Count 0
   Covalently-Bonded Unit Count      1
   Feature 3D Donor Count            1
   Feature 3D Ring Count             1
   Effective Rotor Count             0
   Conformer Sampling RMSD           0.4
   CID Conformer Count               [13]1

References

   1. http://toxnet.nlm.nih.gov/cgi-bin/sis/search/r?dbs+hsdb:@term+@rn+@rel+59-50-7
   2. http://toxnet.nlm.nih.gov/cgi-bin/sis/search/r?dbs+hsdb:@term+@rn+@rel+59-50-7
   3. http://toxnet.nlm.nih.gov/cgi-bin/sis/search/r?dbs+hsdb:@term+@rn+@rel+59-50-7
   4. http://toxnet.nlm.nih.gov/cgi-bin/sis/search/r?dbs+hsdb:@term+@rn+@rel+59-50-7
   5. http://toxnet.nlm.nih.gov/cgi-bin/sis/search/r?dbs+hsdb:@term+@rn+@rel+59-50-7
   6. http://toxnet.nlm.nih.gov/cgi-bin/sis/search/r?dbs+hsdb:@term+@rn+@rel+59-50-7
   7. http://toxnet.nlm.nih.gov/cgi-bin/sis/search/r?dbs+hsdb:@term+@rn+@rel+59-50-7
   8. http://toxnet.nlm.nih.gov/cgi-bin/sis/search/r?dbs+hsdb:@term+@rn+@rel+59-50-7
   9. http://toxnet.nlm.nih.gov/cgi-bin/sis/search/r?dbs+hsdb:@term+@rn+@rel+59-50-7
  10. http://toxnet.nlm.nih.gov/cgi-bin/sis/search/r?dbs+hsdb:@term+@rn+@rel+59-50-7
  11. http://toxnet.nlm.nih.gov/cgi-bin/sis/search/r?dbs+hsdb:@term+@rn+@rel+59-50-7
  12. http://toxnet.nlm.nih.gov/cgi-bin/sis/search/r?dbs+hsdb:@term+@rn+@rel+59-50-7
  13. http://pubchem.ncbi.nlm.nih.gov/vw3d/vw3d.cgi?cid=1732
