   Color/Form
        Liquid
   from [1]HSDB

   Boiling Point
        80-81.5 deg C @ 5 mm Hg
   from [2]HSDB

   Melting Point
        Solidifies @ 36.4 deg C
   from [3]HSDB

   Density/Specific Gravity
        0.935 @ 20 deg C/4 deg C
   from [4]HSDB

   Spectral Properties
        Index of refraction: 1.4820 @ 20 deg C/D; specific optical
   rotation: -100 deg @ 20 deg C/D (c= 20 in alc)
   from [5]HSDB

   Vapor Pressure
        5 mm Hg @ 80 to 81 mm Hg
   from [6]HSDB

   Other Chemical/Physical Properties
        BP: 81-82 deg C @ 4.5 mm Hg; density: 0.9338 @ 20 deg C/4 deg C;
   index of refraction: 1.4818; specific optical rotation: +92.45 deg @ 20
   deg C/D; solidifies @ 31 deg C /d-Form/
   from [7]HSDB

   Computed Properties
   Molecular Weight                  154.24932 [g/mol]
   Molecular Formula                 C[10]H[18]O
   XLogP3-AA                         1.8
   H-Bond Donor                      1
   H-Bond Acceptor                   1
   Rotatable Bond Count              1
   Exact Mass                        154.135765
   MonoIsotopic Mass                 154.135765
   Topological Polar Surface Area    20.2
   Heavy Atom Count                  11
   Formal Charge                     0
   Complexity                        168
   Isotope Atom Count                0
   Defined Atom Stereocenter Count   1
   Undefined Atom Stereocenter Count 0
   Defined Bond Stereocenter Count   0
   Undefined Bond Stereocenter Count 0
   Covalently-Bonded Unit Count      1
   Feature 3D Acceptor Count         1
   Feature 3D Donor Count            1
   Feature 3D Hydrophobe Count       1
   Feature 3D Ring Count             1
   Effective Rotor Count             1.8
   Conformer Sampling RMSD           0.4
   CID Conformer Count               [8]4

References

   1. http://toxnet.nlm.nih.gov/cgi-bin/sis/search/r?dbs+hsdb:@term+@rn+@rel+10482-56-1
   2. http://toxnet.nlm.nih.gov/cgi-bin/sis/search/r?dbs+hsdb:@term+@rn+@rel+10482-56-1
   3. http://toxnet.nlm.nih.gov/cgi-bin/sis/search/r?dbs+hsdb:@term+@rn+@rel+10482-56-1
   4. http://toxnet.nlm.nih.gov/cgi-bin/sis/search/r?dbs+hsdb:@term+@rn+@rel+10482-56-1
   5. http://toxnet.nlm.nih.gov/cgi-bin/sis/search/r?dbs+hsdb:@term+@rn+@rel+10482-56-1
   6. http://toxnet.nlm.nih.gov/cgi-bin/sis/search/r?dbs+hsdb:@term+@rn+@rel+10482-56-1
   7. http://toxnet.nlm.nih.gov/cgi-bin/sis/search/r?dbs+hsdb:@term+@rn+@rel+10482-56-1
   8. http://pubchem.ncbi.nlm.nih.gov/vw3d/vw3d.cgi?cid=442501
