23724625
  -OEChem-07051213082D

 61 62  0     1  0  0  0  0  0999 V2000
    6.2177    1.3079    0.0000 S   0  0  0  0  0  0  0  0  0  0  0  0
    9.8823    1.8508    0.0000 P   0  0  3  0  0  0  0  0  0  0  0  0
   11.4646    2.5553    0.0000 P   0  0  0  0  0  0  0  0  0  0  0  0
    3.5453    1.4601    0.0000 O   0  0  0  0  0  0  0  0  0  0  0  0
    9.2945    1.0418    0.0000 O   0  0  0  0  0  0  0  0  0  0  0  0
   10.4701    2.6599    0.0000 O   0  0  0  0  0  0  0  0  0  0  0  0
   10.6913    1.2631    0.0000 O   0  0  0  0  0  0  0  0  0  0  0  0
    9.0733    2.4386    0.0000 O   0  0  0  0  0  0  0  0  0  0  0  0
   12.4591    2.4508    0.0000 O   0  0  0  0  0  0  0  0  0  0  0  0
   11.5691    3.5499    0.0000 O   0  0  0  0  0  0  0  0  0  0  0  0
   11.3601    1.5608    0.0000 O   0  0  0  0  0  0  0  0  0  0  0  0
    5.1350    0.1055    0.0000 N   0  3  0  0  0  0  0  0  0  0  0  0
    3.4030   -2.8945    0.0000 N   0  0  0  0  0  0  0  0  0  0  0  0
    5.1350   -2.8945    0.0000 N   0  0  0  0  0  0  0  0  0  0  0  0
    2.5369   -1.3945    0.0000 N   0  0  0  0  0  0  0  0  0  0  0  0
    4.4964    1.7691    0.0000 C   0  0  3  0  0  0  0  0  0  0  0  0
    4.7043    2.7473    0.0000 C   0  0  0  0  0  0  0  0  0  0  0  0
    5.2395    1.1000    0.0000 C   0  0  0  0  0  0  0  0  0  0  0  0
    3.9612    3.4164    0.0000 C   0  0  0  0  0  0  0  0  0  0  0  0
    6.0486   -0.3013    0.0000 C   0  0  0  0  0  0  0  0  0  0  0  0
    6.7177    0.4419    0.0000 C   0  0  0  0  0  0  0  0  0  0  0  0
    4.2690   -0.3945    0.0000 C   0  0  0  0  0  0  0  0  0  0  0  0
    7.7122    0.3373    0.0000 C   0  0  0  0  0  0  0  0  0  0  0  0
    4.1691    4.3945    0.0000 C   0  0  0  0  0  0  0  0  0  0  0  0
    3.0101    3.1074    0.0000 C   0  0  0  0  0  0  0  0  0  0  0  0
    6.2565   -1.2794    0.0000 C   0  0  0  0  0  0  0  0  0  0  0  0
    4.2690   -1.3945    0.0000 C   0  0  0  0  0  0  0  0  0  0  0  0
    8.3000    1.1464    0.0000 C   0  0  0  0  0  0  0  0  0  0  0  0
    3.4030   -1.8945    0.0000 C   0  0  0  0  0  0  0  0  0  0  0  0
    5.1350   -1.8945    0.0000 C   0  0  0  0  0  0  0  0  0  0  0  0
    4.2690   -3.3945    0.0000 C   0  0  0  0  0  0  0  0  0  0  0  0
    4.2690   -4.3945    0.0000 C   0  0  0  0  0  0  0  0  0  0  0  0
    4.3675    1.1627    0.0000 H   0  0  0  0  0  0  0  0  0  0  0  0
    5.2792    2.5150    0.0000 H   0  0  0  0  0  0  0  0  0  0  0  0
    5.0329    3.2730    0.0000 H   0  0  0  0  0  0  0  0  0  0  0  0
    4.5508    3.6080    0.0000 H   0  0  0  0  0  0  0  0  0  0  0  0
    4.0569    0.1881    0.0000 H   0  0  0  0  0  0  0  0  0  0  0  0
    3.6584   -0.5022    0.0000 H   0  0  0  0  0  0  0  0  0  0  0  0
    7.5413   -0.2586    0.0000 H   0  0  0  0  0  0  0  0  0  0  0  0
    8.2695    0.0656    0.0000 H   0  0  0  0  0  0  0  0  0  0  0  0
    4.7755    4.2656    0.0000 H   0  0  0  0  0  0  0  0  0  0  0  0
    4.2980    5.0010    0.0000 H   0  0  0  0  0  0  0  0  0  0  0  0
    3.5626    4.5234    0.0000 H   0  0  0  0  0  0  0  0  0  0  0  0
    2.8185    3.6970    0.0000 H   0  0  0  0  0  0  0  0  0  0  0  0
    2.4205    2.9158    0.0000 H   0  0  0  0  0  0  0  0  0  0  0  0
    3.2017    2.5177    0.0000 H   0  0  0  0  0  0  0  0  0  0  0  0
    5.6500   -1.4083    0.0000 H   0  0  0  0  0  0  0  0  0  0  0  0
    6.3854   -1.8859    0.0000 H   0  0  0  0  0  0  0  0  0  0  0  0
    6.8629   -1.1505    0.0000 H   0  0  0  0  0  0  0  0  0  0  0  0
    3.0846    1.8750    0.0000 H   0  0  0  0  0  0  0  0  0  0  0  0
    8.4709    1.7423    0.0000 H   0  0  0  0  0  0  0  0  0  0  0  0
    7.7427    1.4182    0.0000 H   0  0  0  0  0  0  0  0  0  0  0  0
    5.6720   -1.5845    0.0000 H   0  0  0  0  0  0  0  0  0  0  0  0
    2.0000   -1.7045    0.0000 H   0  0  0  0  0  0  0  0  0  0  0  0
    2.5369   -0.7745    0.0000 H   0  0  0  0  0  0  0  0  0  0  0  0
    3.6490   -4.3945    0.0000 H   0  0  0  0  0  0  0  0  0  0  0  0
    4.2690   -5.0145    0.0000 H   0  0  0  0  0  0  0  0  0  0  0  0
    4.8890   -4.3945    0.0000 H   0  0  0  0  0  0  0  0  0  0  0  0
   10.6265    0.6465    0.0000 H   0  0  0  0  0  0  0  0  0  0  0  0
   12.8236    2.9524    0.0000 H   0  0  0  0  0  0  0  0  0  0  0  0
   11.0675    3.9143    0.0000 H   0  0  0  0  0  0  0  0  0  0  0  0
  1 18  1  0  0  0  0
  1 21  1  0  0  0  0
  2  5  1  0  0  0  0
  2  6  1  0  0  0  0
  2  7  1  0  0  0  0
  2  8  2  0  0  0  0
  3  6  1  0  0  0  0
  3  9  1  0  0  0  0
  3 10  1  0  0  0  0
  3 11  2  0  0  0  0
  4 16  1  0  0  0  0
  4 50  1  0  0  0  0
  5 28  1  0  0  0  0
  7 59  1  0  0  0  0
  9 60  1  0  0  0  0
 10 61  1  0  0  0  0
 12 18  2  0  0  0  0
 12 20  1  0  0  0  0
 12 22  1  0  0  0  0
 13 29  2  0  0  0  0
 13 31  1  0  0  0  0
 14 30  1  0  0  0  0
 14 31  2  0  0  0  0
 15 29  1  0  0  0  0
 15 54  1  0  0  0  0
 15 55  1  0  0  0  0
 16 17  1  0  0  0  0
 16 18  1  0  0  0  0
 16 33  1  0  0  0  0
 17 19  1  0  0  0  0
 17 34  1  0  0  0  0
 17 35  1  0  0  0  0
 19 24  1  0  0  0  0
 19 25  1  0  0  0  0
 19 36  1  0  0  0  0
 20 21  2  0  0  0  0
 20 26  1  0  0  0  0
 21 23  1  0  0  0  0
 22 27  1  0  0  0  0
 22 37  1  0  0  0  0
 22 38  1  0  0  0  0
 23 28  1  0  0  0  0
 23 39  1  0  0  0  0
 23 40  1  0  0  0  0
 24 41  1  0  0  0  0
 24 42  1  0  0  0  0
 24 43  1  0  0  0  0
 25 44  1  0  0  0  0
 25 45  1  0  0  0  0
 25 46  1  0  0  0  0
 26 47  1  0  0  0  0
 26 48  1  0  0  0  0
 26 49  1  0  0  0  0
 27 29  1  0  0  0  0
 27 30  2  0  0  0  0
 28 51  1  0  0  0  0
 28 52  1  0  0  0  0
 30 53  1  0  0  0  0
 31 32  1  0  0  0  0
 32 56  1  0  0  0  0
 32 57  1  0  0  0  0
 32 58  1  0  0  0  0
M  CHG  1  12   1
M  END
> <PUBCHEM_COMPOUND_CID>
23724625

> <PUBCHEM_COMPOUND_CANONICALIZED>
1

> <PUBCHEM_CACTVS_COMPLEXITY>
702

> <PUBCHEM_CACTVS_HBOND_ACCEPTOR>
12

> <PUBCHEM_CACTVS_HBOND_DONOR>
5

> <PUBCHEM_CACTVS_ROTATABLE_BOND>
11

> <PUBCHEM_CACTVS_SUBSKEYS>
AAADceB7vANAAAAAAAAAAAAAAAAAAWAAAAAsAAAAAAAAAAAB4AAAHgQQCCAADRzh3wYvsZdMExikQxZnZISA8KlxCLgBWDQ4RBiCOIJgyUAERAgsQAP4SCKwAAAMAAAAAAAAAAAAAAAAAAAAAAAAAAAAAA==

> <PUBCHEM_IUPAC_OPENEYE_NAME>
2-[3-[(4-amino-2-methyl-pyrimidin-5-yl)methyl]-2-(1-hydroxy-3-methyl-butyl)-4-methyl-thiazol-3-ium-5-yl]ethyl phosphono hydrogen phosphate

> <PUBCHEM_IUPAC_CAS_NAME>
2-[3-[(4-amino-2-methyl-5-pyrimidinyl)methyl]-2-(1-hydroxy-3-methylbutyl)-4-methyl-5-thiazol-3-iumyl]ethyl phosphono hydrogen phosphate

> <PUBCHEM_IUPAC_NAME>
2-[3-[(4-amino-2-methylpyrimidin-5-yl)methyl]-2-(1-hydroxy-3-methylbutyl)-4-methyl-1,3-thiazol-3-ium-5-yl]ethyl phosphono hydrogen phosphate

> <PUBCHEM_IUPAC_SYSTEMATIC_NAME>
2-[3-[(4-azanyl-2-methyl-pyrimidin-5-yl)methyl]-4-methyl-2-(3-methyl-1-oxidanyl-butyl)-1,3-thiazol-3-ium-5-yl]ethyl phosphono hydrogen phosphate

> <PUBCHEM_IUPAC_TRADITIONAL_NAME>
2-[3-[(4-amino-2-methyl-pyrimidin-5-yl)methyl]-2-(1-hydroxy-3-methyl-butyl)-4-methyl-thiazol-3-ium-5-yl]ethyl phosphono hydrogen phosphate

> <PUBCHEM_IUPAC_INCHI>
InChI=1S/C17H28N4O8P2S/c1-10(2)7-14(22)17-21(9-13-8-19-12(4)20-16(13)18)11(3)15(32-17)5-6-28-31(26,27)29-30(23,24)25/h8,10,14,22H,5-7,9H2,1-4H3,(H4-,18,19,20,23,24,25,26,27)/p+1

> <PUBCHEM_IUPAC_INCHIKEY>
OZAWOYZVNPQFFO-UHFFFAOYSA-O

> <PUBCHEM_XLOGP3_AA>
-0.3

> <PUBCHEM_EXACT_MASS>
511.118133

> <PUBCHEM_MOLECULAR_FORMULA>
C17H29N4O8P2S+

> <PUBCHEM_MOLECULAR_WEIGHT>
511.446684

> <PUBCHEM_OPENEYE_CAN_SMILES>
CC1=C(SC(=[N+]1CC2=CN=C(N=C2N)C)C(CC(C)C)O)CCOP(=O)(O)OP(=O)(O)O

> <PUBCHEM_OPENEYE_ISO_SMILES>
CC1=C(SC(=[N+]1CC2=CN=C(N=C2N)C)C(CC(C)C)O)CCOP(=O)(O)OP(=O)(O)O

> <PUBCHEM_CACTVS_TPSA>
217

> <PUBCHEM_MONOISOTOPIC_WEIGHT>
511.118133

> <PUBCHEM_TOTAL_CHARGE>
1

> <PUBCHEM_HEAVY_ATOM_COUNT>
32

> <PUBCHEM_ATOM_DEF_STEREO_COUNT>
0

> <PUBCHEM_ATOM_UDEF_STEREO_COUNT>
1

> <PUBCHEM_BOND_DEF_STEREO_COUNT>
0

> <PUBCHEM_BOND_UDEF_STEREO_COUNT>
0

> <PUBCHEM_ISOTOPIC_ATOM_COUNT>
0

> <PUBCHEM_COMPONENT_COUNT>
1

> <PUBCHEM_CACTVS_TAUTO_COUNT>
3

> <PUBCHEM_COORDINATE_TYPE>
1
5
255

> <PUBCHEM_BONDANNOTATIONS>
1  18  8
1  21  8
12  18  8
12  20  8
13  29  8
13  31  8
14  30  8
14  31  8
20  21  8
27  29  8
27  30  8
16  4  3

$$$$

