9916
  -OEChem-06261204112D

 37 38  0     1  0  0  0  0  0999 V2000
    8.6755    4.2150    0.0000 Cl  0  0  0  0  0  0  0  0  0  0  0  0
    0.0000    3.6695    0.0000 Cl  0  0  0  0  0  0  0  0  0  0  0  0
    3.6312    4.8736    0.0000 O   0  0  0  0  0  0  0  0  0  0  0  0
    4.2547    4.0918    0.0000 N   0  0  3  0  0  0  0  0  0  0  0  0
    5.2296    2.0673    0.0000 N   0  0  0  0  0  0  0  0  0  0  0  0
    3.6312    1.5080    0.0000 N   0  0  0  0  0  0  0  0  0  0  0  0
    5.2296    4.3143    0.0000 C   0  0  0  0  0  0  0  0  0  0  0  0
    6.0114    3.6908    0.0000 C   0  0  0  0  0  0  0  0  0  0  0  0
    3.8208    3.1908    0.0000 C   0  0  0  0  0  0  0  0  0  0  0  0
    5.4521    5.2892    0.0000 C   0  0  0  0  0  0  0  0  0  0  0  0
    6.0114    2.6908    0.0000 C   0  0  0  0  0  0  0  0  0  0  0  0
    4.2547    2.2898    0.0000 C   0  0  0  0  0  0  0  0  0  0  0  0
    6.9054    4.2255    0.0000 C   0  0  0  0  0  0  0  0  0  0  0  0
    6.9054    2.1561    0.0000 C   0  0  0  0  0  0  0  0  0  0  0  0
    6.4077    5.5840    0.0000 C   0  0  0  0  0  0  0  0  0  0  0  0
    4.7191    5.9694    0.0000 C   0  0  0  0  0  0  0  0  0  0  0  0
    7.8114    3.7116    0.0000 C   0  0  0  0  0  0  0  0  0  0  0  0
    7.8114    2.6700    0.0000 C   0  0  0  0  0  0  0  0  0  0  0  0
    6.6302    6.5589    0.0000 C   0  0  0  0  0  0  0  0  0  0  0  0
    4.9416    6.9443    0.0000 C   0  0  0  0  0  0  0  0  0  0  0  0
    5.8972    7.2391    0.0000 C   0  0  0  0  0  0  0  0  0  0  0  0
    3.9965    0.5771    0.0000 C   0  0  0  0  0  0  0  0  0  0  0  0
    3.3360    3.5774    0.0000 H   0  0  0  0  0  0  0  0  0  0  0  0
    3.3360    2.8042    0.0000 H   0  0  0  0  0  0  0  0  0  0  0  0
    6.8982    4.8454    0.0000 H   0  0  0  0  0  0  0  0  0  0  0  0
    6.8982    1.5362    0.0000 H   0  0  0  0  0  0  0  0  0  0  0  0
    6.8622    5.1623    0.0000 H   0  0  0  0  0  0  0  0  0  0  0  0
    4.1266    5.7867    0.0000 H   0  0  0  0  0  0  0  0  0  0  0  0
    8.3472    2.3579    0.0000 H   0  0  0  0  0  0  0  0  0  0  0  0
    7.2227    6.7417    0.0000 H   0  0  0  0  0  0  0  0  0  0  0  0
    4.4871    7.3660    0.0000 H   0  0  0  0  0  0  0  0  0  0  0  0
    3.0181    4.7812    0.0000 H   0  0  0  0  0  0  0  0  0  0  0  0
    6.0351    7.8435    0.0000 H   0  0  0  0  0  0  0  0  0  0  0  0
    3.4194    0.3506    0.0000 H   0  0  0  0  0  0  0  0  0  0  0  0
    4.2230    0.0000    0.0000 H   0  0  0  0  0  0  0  0  0  0  0  0
    4.5737    0.8037    0.0000 H   0  0  0  0  0  0  0  0  0  0  0  0
    1.0000    3.6695    0.0000 H   0  0  0  0  0  0  0  0  0  0  0  0
  1 17  1  0  0  0  0
  2 37  1  0  0  0  0
  3  4  1  0  0  0  0
  3 32  1  0  0  0  0
  4  7  1  0  0  0  0
  4  9  1  0  0  0  0
  5 11  2  0  0  0  0
  5 12  1  0  0  0  0
  6 12  2  0  0  0  0
  6 22  1  0  0  0  0
  7  8  2  0  0  0  0
  7 10  1  0  0  0  0
  8 11  1  0  0  0  0
  8 13  1  0  0  0  0
  9 12  1  0  0  0  0
  9 23  1  0  0  0  0
  9 24  1  0  0  0  0
 10 15  2  0  0  0  0
 10 16  1  0  0  0  0
 11 14  1  0  0  0  0
 13 17  2  0  0  0  0
 13 25  1  0  0  0  0
 14 18  2  0  0  0  0
 14 26  1  0  0  0  0
 15 19  1  0  0  0  0
 15 27  1  0  0  0  0
 16 20  2  0  0  0  0
 16 28  1  0  0  0  0
 17 18  1  0  0  0  0
 18 29  1  0  0  0  0
 19 21  2  0  0  0  0
 19 30  1  0  0  0  0
 20 21  1  0  0  0  0
 20 31  1  0  0  0  0
 21 33  1  0  0  0  0
 22 34  1  0  0  0  0
 22 35  1  0  0  0  0
 22 36  1  0  0  0  0
M  END
> <PUBCHEM_COMPOUND_CID>
9916

> <PUBCHEM_COMPOUND_CANONICALIZED>
1

> <PUBCHEM_CACTVS_COMPLEXITY>
580

> <PUBCHEM_CACTVS_HBOND_ACCEPTOR>
3

> <PUBCHEM_CACTVS_HBOND_DONOR>
2

> <PUBCHEM_CACTVS_ROTATABLE_BOND>
1

> <PUBCHEM_CACTVS_SUBSKEYS>
AAADccB7IAAGAAAAAAAAAAAAAAAAAAAAAAAwQAAABAAAAAABAAAAHAIECAAADArBGAQzAIIQAACgAyZiZACCAAEgAAAoiAA4BJgIYCKAkRGUIAhggACIiAcQgAAOAAAAAAAAAAAAAAAAAAAAAAAAAAAAAA==

> <PUBCHEM_IUPAC_OPENEYE_NAME>
7-chloro-4-hydroxy-N-methyl-5-phenyl-3H-1,4-benzodiazepin-2-imine hydrochloride

> <PUBCHEM_IUPAC_CAS_NAME>
7-chloro-4-hydroxy-N-methyl-5-phenyl-3H-1,4-benzodiazepin-2-imine hydrochloride

> <PUBCHEM_IUPAC_NAME>
7-chloro-4-hydroxy-N-methyl-5-phenyl-3H-1,4-benzodiazepin-2-imine hydrochloride

> <PUBCHEM_IUPAC_SYSTEMATIC_NAME>
7-chloranyl-N-methyl-4-oxidanyl-5-phenyl-3H-1,4-benzodiazepin-2-imine hydrochloride

> <PUBCHEM_IUPAC_TRADITIONAL_NAME>
(7-chloro-4-hydroxy-5-phenyl-3H-1,4-benzodiazepin-2-ylidene)-methyl-amine hydrochloride

> <PUBCHEM_IUPAC_INCHI>
InChI=1S/C16H14ClN3O.ClH/c1-18-15-10-20(21)16(11-5-3-2-4-6-11)13-9-12(17)7-8-14(13)19-15;/h2-9,21H,10H2,1H3;1H

> <PUBCHEM_IUPAC_INCHIKEY>
PRNVHVUEIITLRV-UHFFFAOYSA-N

> <PUBCHEM_EXACT_MASS>
335.059217

> <PUBCHEM_MOLECULAR_FORMULA>
C16H15Cl2N3O

> <PUBCHEM_MOLECULAR_WEIGHT>
336.2158

> <PUBCHEM_OPENEYE_CAN_SMILES>
CN=C1CN(C(=C2C=C(C=CC2=N1)Cl)C3=CC=CC=C3)O.Cl

> <PUBCHEM_OPENEYE_ISO_SMILES>
CN=C1CN(C(=C2C=C(C=CC2=N1)Cl)C3=CC=CC=C3)O.Cl

> <PUBCHEM_CACTVS_TPSA>
48.2

> <PUBCHEM_MONOISOTOPIC_WEIGHT>
335.059217

> <PUBCHEM_TOTAL_CHARGE>
0

> <PUBCHEM_HEAVY_ATOM_COUNT>
22

> <PUBCHEM_ATOM_DEF_STEREO_COUNT>
0

> <PUBCHEM_ATOM_UDEF_STEREO_COUNT>
0

> <PUBCHEM_BOND_DEF_STEREO_COUNT>
0

> <PUBCHEM_BOND_UDEF_STEREO_COUNT>
0

> <PUBCHEM_ISOTOPIC_ATOM_COUNT>
0

> <PUBCHEM_COMPONENT_COUNT>
2

> <PUBCHEM_CACTVS_TAUTO_COUNT>
1

> <PUBCHEM_COORDINATE_TYPE>
1
5
255

> <PUBCHEM_BONDANNOTATIONS>
10  15  8
10  16  8
11  14  8
13  17  8
14  18  8
15  19  8
16  20  8
17  18  8
19  21  8
20  21  8
8  11  8
8  13  8

$$$$

