   Color/Form

     * Amber liquid
     * Colorless to straw-colored liquid

   from [1]HSDB

   Odor

     * Pungent odor
     * Sharp, sweet, irritating, chloroform-like odor.

   from [2]HSDB

   Boiling Point
        108 deg C
   from [3]HSDB

   Melting Point
        <-50 deg C
   from [4]HSDB

   Corrosivity

     * Corrosive to aluminum, magnesium, and alloys of these metals
     * IT APPARENTLY REACTS WITH CERTAIN MATERIALS SUCH AS RUBBER,
       LEATHER, & FUR TO FORM A STRONG ODOR.

   from [5]HSDB

   Density/Specific Gravity
        1.220 @ 25 deg C
   from [6]HSDB

   Heat of Combustion
        6900 BTU/lb= 3900 cal/g= 160x10+5 J/kg (est)
   from [7]HSDB

   Heat of Vaporization
        113 BTu/lb= 62.8 cal/g= 2.63x10+5 J/kg (est latent heat)
   from [8]HSDB

   Octanol/Water Partition Coefficient
        log Kow = 1.82
   from [9]HSDB

   Solubilities

     * Miscible with hydrocarbons, halogenated solvents, esters, and
       ketones.
     * Soluble in toluene, acetone, octane.
     * In water, 2,800 mg/l @ 20 deg C

   from [10]HSDB

   Spectral Properties
        Index of refraction: 1.4735 @ 22 deg C/D
   from [11]HSDB

   Surface Tension
        31.2 dynes/cm= 0.0312 N/m @ 24 deg C
   from [12]HSDB

   Vapor Density
        3.8 (AIR= 1)
   from [13]HSDB

   Vapor Pressure
        34 mm Hg @ 25 deg C
   from [14]HSDB

   Relative Evaporation Rate
        50% after 31 minutes from water at 25 deg C of 1 ppm solution
   from [15]HSDB

   Other Chemical/Physical Properties

     * Conversion factor: 1 ppm = 4.54 mg/cu m
     * Specific gravity = 1.209 mg/l @ 25 deg C
     * Colorless to straw-colored liquid, pungent, sweet, penetrating
       odor; boiling point 104 deg C; specific gravity 1.211 (25 deg C0;
       vapor pressure 28 mm Hg (20 deg C); solubility in water approx
       0.1%. /Technical/
     * Soluble in hydrocarbon, halogenated solvents; esters, ketones.
       /DD-92 (trade name)/
     * Henry's Law constant = 3.55X10-3 atm-cu m/mole @ 20 deg C
     * Hydroxyl radical reaction rate constant = 1.12X10-11 cu
       cm/molecule-sec @ 25 deg C /isomer avg/

   from [16]HSDB

   Computed Properties
   Molecular Weight                  110.96986 [g/mol]
   Molecular Formula                 C[3]H[4]Cl[2]
   XLogP3-AA                         1.7
   H-Bond Donor                      0
   H-Bond Acceptor                   0
   Rotatable Bond Count              1
   Exact Mass                        109.969005
   MonoIsotopic Mass                 109.969005
   Topological Polar Surface Area    0
   Heavy Atom Count                  5
   Formal Charge                     0
   Complexity                        31.9
   Isotope Atom Count                0
   Defined Atom Stereocenter Count   0
   Undefined Atom Stereocenter Count 0
   Defined Bond Stereocenter Count   1
   Undefined Bond Stereocenter Count 0
   Covalently-Bonded Unit Count      1
   Effective Rotor Count             1
   Conformer Sampling RMSD           0.4
   CID Conformer Count               [17]3

References

   1. http://toxnet.nlm.nih.gov/cgi-bin/sis/search/r?dbs+hsdb:@term+@rn+@rel+542-75-6
   2. http://toxnet.nlm.nih.gov/cgi-bin/sis/search/r?dbs+hsdb:@term+@rn+@rel+542-75-6
   3. http://toxnet.nlm.nih.gov/cgi-bin/sis/search/r?dbs+hsdb:@term+@rn+@rel+542-75-6
   4. http://toxnet.nlm.nih.gov/cgi-bin/sis/search/r?dbs+hsdb:@term+@rn+@rel+542-75-6
   5. http://toxnet.nlm.nih.gov/cgi-bin/sis/search/r?dbs+hsdb:@term+@rn+@rel+542-75-6
   6. http://toxnet.nlm.nih.gov/cgi-bin/sis/search/r?dbs+hsdb:@term+@rn+@rel+542-75-6
   7. http://toxnet.nlm.nih.gov/cgi-bin/sis/search/r?dbs+hsdb:@term+@rn+@rel+542-75-6
   8. http://toxnet.nlm.nih.gov/cgi-bin/sis/search/r?dbs+hsdb:@term+@rn+@rel+542-75-6
   9. http://toxnet.nlm.nih.gov/cgi-bin/sis/search/r?dbs+hsdb:@term+@rn+@rel+542-75-6
  10. http://toxnet.nlm.nih.gov/cgi-bin/sis/search/r?dbs+hsdb:@term+@rn+@rel+542-75-6
  11. http://toxnet.nlm.nih.gov/cgi-bin/sis/search/r?dbs+hsdb:@term+@rn+@rel+542-75-6
  12. http://toxnet.nlm.nih.gov/cgi-bin/sis/search/r?dbs+hsdb:@term+@rn+@rel+542-75-6
  13. http://toxnet.nlm.nih.gov/cgi-bin/sis/search/r?dbs+hsdb:@term+@rn+@rel+542-75-6
  14. http://toxnet.nlm.nih.gov/cgi-bin/sis/search/r?dbs+hsdb:@term+@rn+@rel+542-75-6
  15. http://toxnet.nlm.nih.gov/cgi-bin/sis/search/r?dbs+hsdb:@term+@rn+@rel+542-75-6
  16. http://toxnet.nlm.nih.gov/cgi-bin/sis/search/r?dbs+hsdb:@term+@rn+@rel+542-75-6
  17. http://pubchem.ncbi.nlm.nih.gov/vw3d/vw3d.cgi?cid=24726
