24755534
  -OEChem-07051213152D

 71 73  0     1  0  0  0  0  0999 V2000
    8.0622   -0.8683    0.0000 P   0  0  3  0  0  0  0  0  0  0  0  0
    9.7942   -0.8683    0.0000 P   0  0  3  0  0  0  0  0  0  0  0  0
    6.3301   -1.8683    0.0000 O   0  0  0  0  0  0  0  0  0  0  0  0
   12.4968    0.6262    0.0000 O   0  0  0  0  0  0  0  0  0  0  0  0
    7.1962   -0.3683    0.0000 O   0  0  0  0  0  0  0  0  0  0  0  0
    3.7320   -2.3683    0.0000 O   0  0  0  0  0  0  0  0  0  0  0  0
   13.5138   -1.7532    0.0000 O   0  0  0  0  0  0  0  0  0  0  0  0
   14.9695   -0.1364    0.0000 O   0  0  0  0  0  0  0  0  0  0  0  0
   10.6603   -0.3683    0.0000 O   0  0  0  0  0  0  0  0  0  0  0  0
    8.9282   -1.3683    0.0000 O   0  0  0  0  0  0  0  0  0  0  0  0
    6.3301   -3.8683    0.0000 O   0  0  0  0  0  0  0  0  0  0  0  0
    4.5981   -3.8683    0.0000 O   0  0  0  0  0  0  0  0  0  0  0  0
    8.5622   -0.0023    0.0000 O   0  0  0  0  0  0  0  0  0  0  0  0
    7.5622   -1.7343    0.0000 O   0  0  0  0  0  0  0  0  0  0  0  0
    2.8660   -1.8683    0.0000 O   0  0  0  0  0  0  0  0  0  0  0  0
    7.1962    0.6317    0.0000 O   0  0  0  0  0  0  0  0  0  0  0  0
   10.2942   -1.7343    0.0000 O   0  0  0  0  0  0  0  0  0  0  0  0
   15.4640    1.0432    0.0000 O   0  0  0  0  0  0  0  0  0  0  0  0
    9.2942   -0.0023    0.0000 O   0  0  0  0  0  0  0  0  0  0  0  0
   15.1019    4.4883    0.0000 O   0  0  0  0  0  0  0  0  0  0  0  0
    3.7320   -0.3683    0.0000 N   0  0  0  0  0  0  0  0  0  0  0  0
    5.4641    0.6317    0.0000 N   0  0  0  0  0  0  0  0  0  0  0  0
   13.8817    1.7477    0.0000 N   0  0  0  0  0  0  0  0  0  0  0  0
   15.2830    2.7658    0.0000 N   0  0  0  0  0  0  0  0  0  0  0  0
    4.5981   -0.8683    0.0000 C   0  0  2  0  0  0  0  0  0  0  0  0
    5.4641   -0.3683    0.0000 C   0  0  1  0  0  0  0  0  0  0  0  0
    4.5981   -1.8683    0.0000 C   0  0  1  0  0  0  0  0  0  0  0  0
    6.3301   -0.8683    0.0000 C   0  0  2  0  0  0  0  0  0  0  0  0
   13.3059   -0.7750    0.0000 C   0  0  1  0  0  0  0  0  0  0  0  0
    5.4641   -2.3683    0.0000 C   0  0  1  0  0  0  0  0  0  0  0  0
   13.9750   -0.0319    0.0000 C   0  0  2  0  0  0  0  0  0  0  0  0
   12.3923   -0.3683    0.0000 C   0  0  1  0  0  0  0  0  0  0  0  0
   13.4750    0.8341    0.0000 C   0  0  1  0  0  0  0  0  0  0  0  0
   11.5263   -0.8683    0.0000 C   0  0  0  0  0  0  0  0  0  0  0  0
    5.4641   -3.3683    0.0000 C   0  0  0  0  0  0  0  0  0  0  0  0
    2.8660   -0.8683    0.0000 C   0  0  0  0  0  0  0  0  0  0  0  0
    6.3301    1.1317    0.0000 C   0  0  0  0  0  0  0  0  0  0  0  0
   14.8762    1.8522    0.0000 C   0  0  0  0  0  0  0  0  0  0  0  0
   13.2939    2.5567    0.0000 C   0  0  0  0  0  0  0  0  0  0  0  0
    2.0000   -0.3683    0.0000 C   0  0  0  0  0  0  0  0  0  0  0  0
    6.3301    2.1317    0.0000 C   0  0  0  0  0  0  0  0  0  0  0  0
   13.7007    3.4702    0.0000 C   0  0  0  0  0  0  0  0  0  0  0  0
   14.6952    3.5748    0.0000 C   0  0  0  0  0  0  0  0  0  0  0  0
    4.5981   -0.2483    0.0000 H   0  0  0  0  0  0  0  0  0  0  0  0
    6.0010   -0.0583    0.0000 H   0  0  0  0  0  0  0  0  0  0  0  0
    4.5981   -2.4883    0.0000 H   0  0  0  0  0  0  0  0  0  0  0  0
    6.3301   -0.2483    0.0000 H   0  0  0  0  0  0  0  0  0  0  0  0
   12.8240   -1.1652    0.0000 H   0  0  0  0  0  0  0  0  0  0  0  0
    6.0010   -2.6783    0.0000 H   0  0  0  0  0  0  0  0  0  0  0  0
   14.1972   -0.6107    0.0000 H   0  0  0  0  0  0  0  0  0  0  0  0
   11.8723   -0.0306    0.0000 H   0  0  0  0  0  0  0  0  0  0  0  0
   14.0941    0.8666    0.0000 H   0  0  0  0  0  0  0  0  0  0  0  0
    3.7320    0.2517    0.0000 H   0  0  0  0  0  0  0  0  0  0  0  0
    4.9272    0.9417    0.0000 H   0  0  0  0  0  0  0  0  0  0  0  0
   11.1278   -1.3433    0.0000 H   0  0  0  0  0  0  0  0  0  0  0  0
   11.9248   -1.3433    0.0000 H   0  0  0  0  0  0  0  0  0  0  0  0
    3.7320   -2.9883    0.0000 H   0  0  0  0  0  0  0  0  0  0  0  0
   14.1034   -1.9448    0.0000 H   0  0  0  0  0  0  0  0  0  0  0  0
   15.2217   -0.7028    0.0000 H   0  0  0  0  0  0  0  0  0  0  0  0
   12.6773    2.4919    0.0000 H   0  0  0  0  0  0  0  0  0  0  0  0
    2.3100    0.1686    0.0000 H   0  0  0  0  0  0  0  0  0  0  0  0
    1.4631   -0.0583    0.0000 H   0  0  0  0  0  0  0  0  0  0  0  0
    1.6900   -0.9052    0.0000 H   0  0  0  0  0  0  0  0  0  0  0  0
    6.9501    2.1317    0.0000 H   0  0  0  0  0  0  0  0  0  0  0  0
    6.3301    2.7517    0.0000 H   0  0  0  0  0  0  0  0  0  0  0  0
    5.7101    2.1317    0.0000 H   0  0  0  0  0  0  0  0  0  0  0  0
   15.8996    2.8306    0.0000 H   0  0  0  0  0  0  0  0  0  0  0  0
   13.3362    3.9718    0.0000 H   0  0  0  0  0  0  0  0  0  0  0  0
    6.3301   -4.4883    0.0000 H   0  0  0  0  0  0  0  0  0  0  0  0
    8.2522    0.5347    0.0000 H   0  0  0  0  0  0  0  0  0  0  0  0
    9.9842   -2.2713    0.0000 H   0  0  0  0  0  0  0  0  0  0  0  0
  1  5  1  0  0  0  0
  1 10  1  0  0  0  0
  1 13  1  0  0  0  0
  1 14  2  0  0  0  0
  2  9  1  0  0  0  0
  2 10  1  0  0  0  0
  2 17  1  0  0  0  0
  2 19  2  0  0  0  0
  3 28  1  0  0  0  0
  3 30  1  0  0  0  0
  4 32  1  0  0  0  0
  4 33  1  0  0  0  0
 28  5  1  1  0  0  0
 27  6  1  1  0  0  0
  6 57  1  0  0  0  0
 29  7  1  6  0  0  0
  7 58  1  0  0  0  0
 31  8  1  6  0  0  0
  8 59  1  0  0  0  0
  9 34  1  0  0  0  0
 11 35  1  0  0  0  0
 11 69  1  0  0  0  0
 12 35  2  0  0  0  0
 13 70  1  0  0  0  0
 15 36  2  0  0  0  0
 16 37  2  0  0  0  0
 17 71  1  0  0  0  0
 18 38  2  0  0  0  0
 20 43  2  0  0  0  0
 25 21  1  6  0  0  0
 21 36  1  0  0  0  0
 21 53  1  0  0  0  0
 26 22  1  6  0  0  0
 22 37  1  0  0  0  0
 22 54  1  0  0  0  0
 33 23  1  1  0  0  0
 23 38  1  0  0  0  0
 23 39  1  0  0  0  0
 24 38  1  0  0  0  0
 24 43  1  0  0  0  0
 24 67  1  0  0  0  0
 25 26  1  0  0  0  0
 25 27  1  0  0  0  0
 25 44  1  0  0  0  0
 26 28  1  0  0  0  0
 26 45  1  0  0  0  0
 27 30  1  0  0  0  0
 27 46  1  0  0  0  0
 28 47  1  0  0  0  0
 29 31  1  0  0  0  0
 29 32  1  0  0  0  0
 29 48  1  0  0  0  0
 30 35  1  6  0  0  0
 30 49  1  0  0  0  0
 31 33  1  0  0  0  0
 31 50  1  0  0  0  0
 32 34  1  1  0  0  0
 32 51  1  0  0  0  0
 33 52  1  0  0  0  0
 34 55  1  0  0  0  0
 34 56  1  0  0  0  0
 36 40  1  0  0  0  0
 37 41  1  0  0  0  0
 39 42  2  0  0  0  0
 39 60  1  0  0  0  0
 40 61  1  0  0  0  0
 40 62  1  0  0  0  0
 40 63  1  0  0  0  0
 41 64  1  0  0  0  0
 41 65  1  0  0  0  0
 41 66  1  0  0  0  0
 42 43  1  0  0  0  0
 42 68  1  0  0  0  0
M  END
> <PUBCHEM_COMPOUND_CID>
24755534

> <PUBCHEM_COMPOUND_CANONICALIZED>
1

> <PUBCHEM_CACTVS_COMPLEXITY>
1260

> <PUBCHEM_CACTVS_HBOND_ACCEPTOR>
18

> <PUBCHEM_CACTVS_HBOND_DONOR>
9

> <PUBCHEM_CACTVS_ROTATABLE_BOND>
11

> <PUBCHEM_CACTVS_SUBSKEYS>
AAADceB7vgMAAAAAAAAAAAAAAAAAASAAAAAkQAAAAAAAAAAAAAAAHgAQCCAACDzxgAcDCAPABxCIQCHWWIKAAAAAAgAIAIFIAECTUBYAgAQfQAAPNyKXAMH8eQcQAAAAAAAAAAAAAAAAAAAAAAAAAAAAAA==

> <PUBCHEM_IUPAC_OPENEYE_NAME>
(2S,3S,4R,5S,6R)-4,5-diacetamido-6-[[[(2R,3S,4R,5R)-5-(2,4-dioxopyrimidin-1-yl)-3,4-dihydroxy-tetrahydrofuran-2-yl]methoxy-hydroxy-phosphoryl]oxy-hydroxy-phosphoryl]oxy-3-hydroxy-tetrahydropyran-2-carboxylic acid

> <PUBCHEM_IUPAC_CAS_NAME>
(2S,3S,4R,5S,6R)-4,5-diacetamido-6-[[[(2R,3S,4R,5R)-5-(2,4-dioxo-1-pyrimidinyl)-3,4-dihydroxy-2-oxolanyl]methoxy-hydroxyphosphoryl]oxy-hydroxyphosphoryl]oxy-3-hydroxy-2-oxanecarboxylic acid

> <PUBCHEM_IUPAC_NAME>
(2S,3S,4R,5S,6R)-4,5-diacetamido-6-[[[(2R,3S,4R,5R)-5-(2,4-dioxopyrimidin-1-yl)-3,4-dihydroxyoxolan-2-yl]methoxy-hydroxyphosphoryl]oxy-hydroxyphosphoryl]oxy-3-hydroxyoxane-2-carboxylic acid

> <PUBCHEM_IUPAC_SYSTEMATIC_NAME>
(2S,3S,4R,5S,6R)-4,5-diacetamido-6-[[[(2R,3S,4R,5R)-5-[2,4-bis(oxidanylidene)pyrimidin-1-yl]-3,4-bis(oxidanyl)oxolan-2-yl]methoxy-oxidanyl-phosphoryl]oxy-oxidanyl-phosphoryl]oxy-3-oxidanyl-oxane-2-carboxylic acid

> <PUBCHEM_IUPAC_TRADITIONAL_NAME>
(2S,3S,4R,5S,6R)-4,5-diacetamido-6-[[[(2R,3S,4R,5R)-5-(2,4-diketopyrimidin-1-yl)-3,4-dihydroxy-tetrahydrofuran-2-yl]methoxy-hydroxy-phosphoryl]oxy-hydroxy-phosphoryl]oxy-3-hydroxy-tetrahydropyran-2-carboxylic acid

> <PUBCHEM_IUPAC_INCHI>
InChI=1S/C19H28N4O18P2/c1-6(24)20-10-11(21-7(2)25)18(39-15(13(10)28)17(30)31)40-43(35,36)41-42(33,34)37-5-8-12(27)14(29)16(38-8)23-4-3-9(26)22-19(23)32/h3-4,8,10-16,18,27-29H,5H2,1-2H3,(H,20,24)(H,21,25)(H,30,31)(H,33,34)(H,35,36)(H,22,26,32)/t8-,10-,11+,12-,13+,14-,15+,16-,18-/m1/s1

> <PUBCHEM_IUPAC_INCHIKEY>
GZLIMKLKXDFTJR-ZVWGYSLJSA-N

> <PUBCHEM_XLOGP3_AA>
-6.4

> <PUBCHEM_EXACT_MASS>
662.087383

> <PUBCHEM_MOLECULAR_FORMULA>
C19H28N4O18P2

> <PUBCHEM_MOLECULAR_WEIGHT>
662.389144

> <PUBCHEM_OPENEYE_CAN_SMILES>
CC(=O)NC1C(C(OC(C1O)C(=O)O)OP(=O)(O)OP(=O)(O)OCC2C(C(C(O2)N3C=CC(=O)NC3=O)O)O)NC(=O)C

> <PUBCHEM_OPENEYE_ISO_SMILES>
CC(=O)N[C@@H]1[C@@H]([C@H](O[C@@H]([C@H]1O)C(=O)O)OP(=O)(O)OP(=O)(O)OC[C@@H]2[C@H]([C@H]([C@@H](O2)N3C=CC(=O)NC3=O)O)O)NC(=O)C

> <PUBCHEM_CACTVS_TPSA>
326

> <PUBCHEM_MONOISOTOPIC_WEIGHT>
662.087383

> <PUBCHEM_TOTAL_CHARGE>
0

> <PUBCHEM_HEAVY_ATOM_COUNT>
43

> <PUBCHEM_ATOM_DEF_STEREO_COUNT>
9

> <PUBCHEM_ATOM_UDEF_STEREO_COUNT>
0

> <PUBCHEM_BOND_DEF_STEREO_COUNT>
0

> <PUBCHEM_BOND_UDEF_STEREO_COUNT>
0

> <PUBCHEM_ISOTOPIC_ATOM_COUNT>
0

> <PUBCHEM_COMPONENT_COUNT>
1

> <PUBCHEM_CACTVS_TAUTO_COUNT>
12

> <PUBCHEM_COORDINATE_TYPE>
1
5
255

> <PUBCHEM_BONDANNOTATIONS>
25  21  6
26  22  6
33  23  5
23  38  8
23  39  8
24  38  8
24  43  8
30  35  6
32  34  5
39  42  8
42  43  8
28  5  5
27  6  5
29  7  6
31  8  6

$$$$

