23666879
  -OEChem-07051212532D

 63 65  0     1  0  0  0  0  0999 V2000
    9.2365   -1.4181    0.0000 S   0  0  0  0  0  0  0  0  0  0  0  0
    9.1854   -5.6814    0.0000 Na  0  3  0  0  0  0  0  0  0  0  0  0
    6.5715   -3.4398    0.0000 O   0  0  0  0  0  0  0  0  0  0  0  0
    8.8764   -4.7303    0.0000 O   0  5  0  0  0  0  0  0  0  0  0  0
   10.5236   -4.1951    0.0000 O   0  0  0  0  0  0  0  0  0  0  0  0
    5.3442   -2.2366    0.0000 O   0  0  0  0  0  0  0  0  0  0  0  0
    3.4881    0.8544    0.0000 O   0  0  0  0  0  0  0  0  0  0  0  0
    6.3874    1.6249    0.0000 O   0  0  0  0  0  0  0  0  0  0  0  0
    6.9090    3.5557    0.0000 O   0  0  0  0  0  0  0  0  0  0  0  0
    8.2854   -2.7271    0.0000 N   0  0  0  0  0  0  0  0  0  0  0  0
    6.5715   -1.0144    0.0000 N   0  0  0  0  0  0  0  0  0  0  0  0
    5.1602    0.4027    0.0000 N   0  0  0  0  0  0  0  0  0  0  0  0
    4.7153    2.0767    0.0000 N   0  0  0  0  0  0  0  0  0  0  0  0
    5.2369    4.0074    0.0000 N   0  0  0  0  0  0  0  0  0  0  0  0
    8.2854   -1.7271    0.0000 C   0  0  1  0  0  0  0  0  0  0  0  0
    9.8242   -2.2271    0.0000 C   0  0  0  0  0  0  0  0  0  0  0  0
    9.2365   -3.0361    0.0000 C   0  0  2  0  0  0  0  0  0  0  0  0
    7.2771   -1.7230    0.0000 C   0  0  1  0  0  0  0  0  0  0  0  0
    7.2771   -2.7313    0.0000 C   0  0  0  0  0  0  0  0  0  0  0  0
   10.6333   -1.6393    0.0000 C   0  0  0  0  0  0  0  0  0  0  0  0
   10.6333   -2.8149    0.0000 C   0  0  0  0  0  0  0  0  0  0  0  0
    9.5455   -3.9872    0.0000 C   0  0  0  0  0  0  0  0  0  0  0  0
    5.6050   -1.2712    0.0000 C   0  0  0  0  0  0  0  0  0  0  0  0
    4.8994   -0.5627    0.0000 C   0  0  1  0  0  0  0  0  0  0  0  0
    3.9329   -0.8195    0.0000 C   0  0  0  0  0  0  0  0  0  0  0  0
    4.4545    1.1113    0.0000 C   0  0  0  0  0  0  0  0  0  0  0  0
    3.2273   -0.1110    0.0000 C   0  0  0  0  0  0  0  0  0  0  0  0
    3.6721   -1.7849    0.0000 C   0  0  0  0  0  0  0  0  0  0  0  0
    4.0097    2.7852    0.0000 C   0  0  0  0  0  0  0  0  0  0  0  0
    4.2705    3.7506    0.0000 C   0  0  0  0  0  0  0  0  0  0  0  0
    5.6818    2.3335    0.0000 C   0  0  0  0  0  0  0  0  0  0  0  0
    2.2608   -0.3678    0.0000 C   0  0  0  0  0  0  0  0  0  0  0  0
    2.7056   -2.0418    0.0000 C   0  0  0  0  0  0  0  0  0  0  0  0
    5.9426    3.2989    0.0000 C   0  0  0  0  0  0  0  0  0  0  0  0
    5.4977    4.9728    0.0000 C   0  0  0  0  0  0  0  0  0  0  0  0
    2.0000   -1.3332    0.0000 C   0  0  0  0  0  0  0  0  0  0  0  0
    4.7921    5.6814    0.0000 C   0  0  0  0  0  0  0  0  0  0  0  0
    8.1542   -0.8873    0.0000 H   0  0  0  0  0  0  0  0  0  0  0  0
    8.7981   -3.4745    0.0000 H   0  0  0  0  0  0  0  0  0  0  0  0
    6.7041   -1.9596    0.0000 H   0  0  0  0  0  0  0  0  0  0  0  0
   10.9977   -2.1409    0.0000 H   0  0  0  0  0  0  0  0  0  0  0  0
   11.1349   -1.2749    0.0000 H   0  0  0  0  0  0  0  0  0  0  0  0
   10.2688   -1.1377    0.0000 H   0  0  0  0  0  0  0  0  0  0  0  0
   10.2688   -3.3165    0.0000 H   0  0  0  0  0  0  0  0  0  0  0  0
   11.1349   -3.1793    0.0000 H   0  0  0  0  0  0  0  0  0  0  0  0
   10.9977   -2.3133    0.0000 H   0  0  0  0  0  0  0  0  0  0  0  0
    6.7332   -0.4159    0.0000 H   0  0  0  0  0  0  0  0  0  0  0  0
    4.4619   -0.1234    0.0000 H   0  0  0  0  0  0  0  0  0  0  0  0
    5.7594    0.5619    0.0000 H   0  0  0  0  0  0  0  0  0  0  0  0
    3.3890    0.4876    0.0000 H   0  0  0  0  0  0  0  0  0  0  0  0
    4.1096   -2.2242    0.0000 H   0  0  0  0  0  0  0  0  0  0  0  0
    3.4483    3.0484    0.0000 H   0  0  0  0  0  0  0  0  0  0  0  0
    3.6530    2.2781    0.0000 H   0  0  0  0  0  0  0  0  0  0  0  0
    4.2177    4.3684    0.0000 H   0  0  0  0  0  0  0  0  0  0  0  0
    3.6530    3.8059    0.0000 H   0  0  0  0  0  0  0  0  0  0  0  0
    1.8233    0.0715    0.0000 H   0  0  0  0  0  0  0  0  0  0  0  0
    2.5440   -2.6403    0.0000 H   0  0  0  0  0  0  0  0  0  0  0  0
    6.0591    4.7096    0.0000 H   0  0  0  0  0  0  0  0  0  0  0  0
    5.8544    5.4800    0.0000 H   0  0  0  0  0  0  0  0  0  0  0  0
    1.4008   -1.4924    0.0000 H   0  0  0  0  0  0  0  0  0  0  0  0
    5.2314    6.1189    0.0000 H   0  0  0  0  0  0  0  0  0  0  0  0
    4.3546    6.1207    0.0000 H   0  0  0  0  0  0  0  0  0  0  0  0
    4.3528    5.2439    0.0000 H   0  0  0  0  0  0  0  0  0  0  0  0
  1 15  1  0  0  0  0
  1 16  1  0  0  0  0
  3 19  2  0  0  0  0
  4 22  1  0  0  0  0
  5 22  2  0  0  0  0
  6 23  2  0  0  0  0
  7 26  2  0  0  0  0
  8 31  2  0  0  0  0
  9 34  2  0  0  0  0
 10 15  1  0  0  0  0
 10 17  1  0  0  0  0
 10 19  1  0  0  0  0
 18 11  1  1  0  0  0
 11 23  1  0  0  0  0
 11 47  1  0  0  0  0
 24 12  1  1  0  0  0
 12 26  1  0  0  0  0
 12 49  1  0  0  0  0
 13 26  1  0  0  0  0
 13 29  1  0  0  0  0
 13 31  1  0  0  0  0
 14 30  1  0  0  0  0
 14 34  1  0  0  0  0
 14 35  1  0  0  0  0
 15 18  1  0  0  0  0
 15 38  1  6  0  0  0
 16 17  1  0  0  0  0
 16 20  1  0  0  0  0
 16 21  1  0  0  0  0
 17 22  1  6  0  0  0
 17 39  1  0  0  0  0
 18 19  1  0  0  0  0
 18 40  1  0  0  0  0
 20 41  1  0  0  0  0
 20 42  1  0  0  0  0
 20 43  1  0  0  0  0
 21 44  1  0  0  0  0
 21 45  1  0  0  0  0
 21 46  1  0  0  0  0
 23 24  1  0  0  0  0
 24 25  1  0  0  0  0
 24 48  1  0  0  0  0
 25 27  2  0  0  0  0
 25 28  1  0  0  0  0
 27 32  1  0  0  0  0
 27 50  1  0  0  0  0
 28 33  2  0  0  0  0
 28 51  1  0  0  0  0
 29 30  1  0  0  0  0
 29 52  1  0  0  0  0
 29 53  1  0  0  0  0
 30 54  1  0  0  0  0
 30 55  1  0  0  0  0
 31 34  1  0  0  0  0
 32 36  2  0  0  0  0
 32 56  1  0  0  0  0
 33 36  1  0  0  0  0
 33 57  1  0  0  0  0
 35 37  1  0  0  0  0
 35 58  1  0  0  0  0
 35 59  1  0  0  0  0
 36 60  1  0  0  0  0
 37 61  1  0  0  0  0
 37 62  1  0  0  0  0
 37 63  1  0  0  0  0
M  CHG  2   2   1   4  -1
M  END
> <PUBCHEM_COMPOUND_CID>
23666879

> <PUBCHEM_COMPOUND_CANONICALIZED>
1

> <PUBCHEM_CACTVS_COMPLEXITY>
989

> <PUBCHEM_CACTVS_HBOND_ACCEPTOR>
8

> <PUBCHEM_CACTVS_HBOND_DONOR>
2

> <PUBCHEM_CACTVS_ROTATABLE_BOND>
6

> <PUBCHEM_CACTVS_SUBSKEYS>
AAADceB7uCBAAAAAAAAAAAAAAABYAWAAAAA8QAAABYAAAAABAAAAHgQQAAAADCjF2ASzCIPAAAiIAiHSGACCAABgABAIiIGIBIiKYDqglTGUIAhslyK4iAcYiICOAAAAAAAAAAAAAAAAAAAAAAAAAAAAAA==

> <PUBCHEM_IUPAC_OPENEYE_NAME>
sodium (2S,5R,6R)-6-[[(2R)-2-[(4-ethyl-2,3-dioxo-piperazine-1-carbonyl)amino]-2-phenyl-acetyl]amino]-3,3-dimethyl-7-oxo-4-thia-1-azabicyclo[3.2.0]heptane-2-carboxylate

> <PUBCHEM_IUPAC_CAS_NAME>
sodium (2S,5R,6R)-6-[[(2R)-2-[[(4-ethyl-2,3-dioxo-1-piperazinyl)-oxomethyl]amino]-1-oxo-2-phenylethyl]amino]-3,3-dimethyl-7-oxo-4-thia-1-azabicyclo[3.2.0]heptane-2-carboxylate

> <PUBCHEM_IUPAC_NAME>
sodium (2S,5R,6R)-6-[[(2R)-2-[(4-ethyl-2,3-dioxopiperazine-1-carbonyl)amino]-2-phenylacetyl]amino]-3,3-dimethyl-7-oxo-4-thia-1-azabicyclo[3.2.0]heptane-2-carboxylate

> <PUBCHEM_IUPAC_SYSTEMATIC_NAME>
sodium (2S,5R,6R)-6-[[(2R)-2-[[4-ethyl-2,3-bis(oxidanylidene)piperazin-1-yl]carbonylamino]-2-phenyl-ethanoyl]amino]-3,3-dimethyl-7-oxidanylidene-4-thia-1-azabicyclo[3.2.0]heptane-2-carboxylate

> <PUBCHEM_IUPAC_TRADITIONAL_NAME>
sodium (2S,5R,6R)-6-[[(2R)-2-[(4-ethyl-2,3-diketo-piperazine-1-carbonyl)amino]-2-phenyl-acetyl]amino]-7-keto-3,3-dimethyl-4-thia-1-azabicyclo[3.2.0]heptane-2-carboxylate

> <PUBCHEM_IUPAC_INCHI>
InChI=1S/C23H27N5O7S.Na/c1-4-26-10-11-27(19(32)18(26)31)22(35)25-13(12-8-6-5-7-9-12)16(29)24-14-17(30)28-15(21(33)34)23(2,3)36-20(14)28;/h5-9,13-15,20H,4,10-11H2,1-3H3,(H,24,29)(H,25,35)(H,33,34);/q;+1/p-1/t13-,14-,15+,20-;/m1./s1

> <PUBCHEM_IUPAC_INCHIKEY>
WCMIIGXFCMNQDS-IDYPWDAWSA-M

> <PUBCHEM_EXACT_MASS>
539.145063

> <PUBCHEM_MOLECULAR_FORMULA>
C23H26N5NaO7S

> <PUBCHEM_MOLECULAR_WEIGHT>
539.536609

> <PUBCHEM_OPENEYE_CAN_SMILES>
CCN1CCN(C(=O)C1=O)C(=O)NC(C2=CC=CC=C2)C(=O)NC3C4N(C3=O)C(C(S4)(C)C)C(=O)[O-].[Na+]

> <PUBCHEM_OPENEYE_ISO_SMILES>
CCN1CCN(C(=O)C1=O)C(=O)N[C@H](C2=CC=CC=C2)C(=O)N[C@H]3[C@@H]4N(C3=O)[C@H](C(S4)(C)C)C(=O)[O-].[Na+]

> <PUBCHEM_CACTVS_TPSA>
185

> <PUBCHEM_MONOISOTOPIC_WEIGHT>
539.145063

> <PUBCHEM_TOTAL_CHARGE>
0

> <PUBCHEM_HEAVY_ATOM_COUNT>
37

> <PUBCHEM_ATOM_DEF_STEREO_COUNT>
4

> <PUBCHEM_ATOM_UDEF_STEREO_COUNT>
0

> <PUBCHEM_BOND_DEF_STEREO_COUNT>
0

> <PUBCHEM_BOND_UDEF_STEREO_COUNT>
0

> <PUBCHEM_ISOTOPIC_ATOM_COUNT>
0

> <PUBCHEM_COMPONENT_COUNT>
2

> <PUBCHEM_CACTVS_TAUTO_COUNT>
8

> <PUBCHEM_NONSTANDARDBOND>
2  4  7

> <PUBCHEM_COORDINATE_TYPE>
1
5
255

> <PUBCHEM_BONDANNOTATIONS>
18  11  5
24  12  5
15  38  6
17  22  6
25  27  8
25  28  8
27  32  8
28  33  8
32  36  8
33  36  8

$$$$

