   Color/Form
        Dimorphous. Needles from acetone; crystals from hexane
   from [1]HSDB

   Melting Point
        173-174 deg C (crystals)
   from [2]HSDB

   Octanol/Water Partition Coefficient
        log Kow = 2.75
   from [3]HSDB

   Solubilities
        In water, 57.2 mg/L at 25 deg C
   from [4]HSDB

   Spectral Properties

     * Specific optical rotation = +191 deg C/D at 30 deg C (alcohol)
     * UV max = 235 nm
     * MASS: 62023 (NIST/EPA/MSDC Mass Spectral Data Base, 1990 Version)
     * IR: 5443 (Coblentz Society Spectral Collection)
     * UV: 7-847 (Phillip et al., Organic Electronic Spectral Data, John
       Wiley & Sons, New York)
     * 1H NMR: 9959 (Sadler Research Laboratories Spectral Collection)
     * 13 C NMR: 482 (Johnson and Jankowski, Carbon 13 NMR Spectra, John
       Wiley & Sons, New York)

   from [5]HSDB

   Vapor Pressure
        1.8X10-6 mm Hg at 25 deg C (est)
   from [6]HSDB

   Other Chemical/Physical Properties

     * Henry's Law constant = 3.7X10-8 atm-cu m/mole at 25 deg C (est)
     * Hydroxy radical reaction rate constant = 1.1X10-10 cu
       cm/molecule-sec at 25 deg C (est)
     * Ozone reaction rate constant = 1.1X10-17 cu cm/molecule-sec at 25
       deg C (est)

   from [7]HSDB

   Computed Properties
   Molecular Weight                  286.40854 [g/mol]
   Molecular Formula                 C[19]H[26]O[2]
   XLogP3                            2.7
   H-Bond Donor                      0
   H-Bond Acceptor                   2
   Rotatable Bond Count              0
   Tautomer Count                    10
   Exact Mass                        286.19328
   MonoIsotopic Mass                 286.19328
   Topological Polar Surface Area    34.1
   Heavy Atom Count                  21
   Formal Charge                     0
   Complexity                        546
   Isotope Atom Count                0
   Defined Atom Stereocenter Count   5
   Undefined Atom Stereocenter Count 0
   Defined Bond Stereocenter Count   0
   Undefined Bond Stereocenter Count 0
   Covalently-Bonded Unit Count      1
   Feature 3D Acceptor Count         2
   Feature 3D Ring Count             4
   Effective Rotor Count             1.6
   Conformer Sampling RMSD           0.6
   CID Conformer Count               [8]1

References

   1. http://toxnet.nlm.nih.gov/cgi-bin/sis/search/r?dbs+hsdb:@term+@rn+@rel+63-05-8
   2. http://toxnet.nlm.nih.gov/cgi-bin/sis/search/r?dbs+hsdb:@term+@rn+@rel+63-05-8
   3. http://toxnet.nlm.nih.gov/cgi-bin/sis/search/r?dbs+hsdb:@term+@rn+@rel+63-05-8
   4. http://toxnet.nlm.nih.gov/cgi-bin/sis/search/r?dbs+hsdb:@term+@rn+@rel+63-05-8
   5. http://toxnet.nlm.nih.gov/cgi-bin/sis/search/r?dbs+hsdb:@term+@rn+@rel+63-05-8
   6. http://toxnet.nlm.nih.gov/cgi-bin/sis/search/r?dbs+hsdb:@term+@rn+@rel+63-05-8
   7. http://toxnet.nlm.nih.gov/cgi-bin/sis/search/r?dbs+hsdb:@term+@rn+@rel+63-05-8
   8. http://pubchem.ncbi.nlm.nih.gov/vw3d/vw3d.cgi?cid=6128
