   Color/Form

     * Crystals from aq methanol
     * White, crystalline

   from [1]HSDB

   Odor
        Odorless
   from [2]HSDB

   Melting Point
        169-170 deg C
   from [3]HSDB

   Solubilities

     * PRACTICALLY INSOL IN WATER; SOL IN ACETONE & METHANOL; SOL @ 25 DEG
       C IN: 95% ETHANOL (1 IN 30), ETHER (1 IN 60), CHLOROFORM (1 IN 7)
     * Very slightly soluble in water; freely soluble in chloroform;
       soluble in acetone; sparingly soluble in ethanol.
     * VERY SLIGHTLY SOL IN SOLVENT HEXANE

   from [4]HSDB

   Spectral Properties
        Specific optical rotation: +108 deg (chloroform, 1%)
   from [5]HSDB

   Computed Properties
   Molecular Weight                  298.41924 [g/mol]
   Molecular Formula                 C[20]H[26]O[2]
   XLogP3-AA                         2.1
   H-Bond Donor                      1
   H-Bond Acceptor                   2
   Rotatable Bond Count              1
   Tautomer Count                    8
   Exact Mass                        298.19328
   MonoIsotopic Mass                 298.19328
   Topological Polar Surface Area    37.3
   Heavy Atom Count                  22
   Formal Charge                     0
   Complexity                        606
   Isotope Atom Count                0
   Defined Atom Stereocenter Count   5
   Undefined Atom Stereocenter Count 0
   Defined Bond Stereocenter Count   0
   Undefined Bond Stereocenter Count 0
   Covalently-Bonded Unit Count      1
   Feature 3D Acceptor Count         2
   Feature 3D Donor Count            1
   Feature 3D Hydrophobe Count       1
   Feature 3D Ring Count             4
   Effective Rotor Count             2
   Conformer Sampling RMSD           0.6
   CID Conformer Count               [6]1

References

   1. http://toxnet.nlm.nih.gov/cgi-bin/sis/search/r?dbs+hsdb:@term+@rn+@rel+68-23-5
   2. http://toxnet.nlm.nih.gov/cgi-bin/sis/search/r?dbs+hsdb:@term+@rn+@rel+68-23-5
   3. http://toxnet.nlm.nih.gov/cgi-bin/sis/search/r?dbs+hsdb:@term+@rn+@rel+68-23-5
   4. http://toxnet.nlm.nih.gov/cgi-bin/sis/search/r?dbs+hsdb:@term+@rn+@rel+68-23-5
   5. http://toxnet.nlm.nih.gov/cgi-bin/sis/search/r?dbs+hsdb:@term+@rn+@rel+68-23-5
   6. http://pubchem.ncbi.nlm.nih.gov/vw3d/vw3d.cgi?cid=6231
