   Color/Form

     * Clear, colorless liquid
     * Colorless to pale-yellow liquid

   from [1]HSDB

   Odor

     * PRACTICALLY ODORLESS, OR WITH A VERY SLIGHT ODOR OF PEACH KERNELS
     * Sweet odor
     * Irritating odor
     * Unpleasant odor.
     * Onion, garlic, pungent

   from [2]HSDB

   Boiling Point
        77.3 deg C @ 760 mm Hg
   from [3]HSDB

   Melting Point
        -82 deg C
   from [4]HSDB

   Corrosivity
        Attacks copper and copper alloys ... attacks aluminum in high
   conc.
   from [5]HSDB

   Critical Temperature and Pressure
        Critical temperature: 246 deg C; critical pressure: 3.54 MPa
   from [6]HSDB

   Density/Specific Gravity
        0.8004 @ 25 deg C/4 deg C
   from [7]HSDB

   Heat of Combustion
        1761.5 kJ/mol @ 25 deg C (liquid)
   from [8]HSDB

   Heat of Vaporization
        32.65 kJ/mol @ 25 deg C
   from [9]HSDB

   Octanol/Water Partition Coefficient
        log Kow= 0.25
   from [10]HSDB

   pH
        6.0-7.5 (5% aqueous solution)
   from [11]HSDB

   Solubilities

     * SOL IN ISOPROPYL ALCOHOL
     * Sol in ethanol
     * Acrylonitrile is ... miscible with ethanol, carbon tetrachloride,
       ethyl acetate, ethylene cyanohydrin, liquid carbon dioxide, ...
       toluene, petroleum ether, and xylene.
     * In water, 7.45X10+4 mg/l @ 25 deg C

   from [12]HSDB

   Spectral Properties

     * Index of refraction: 1.3888 @ 25 deg C/D
     * MAX ABSORPTION (ALCOHOL): 203 NM (LOG E= 3.79); SADTLER REF NUMBER:
       386 (IR, PRISM); V15 (NMR)

   from [13]HSDB

   Surface Tension
        26.6 dyn/cm @ 25 deg C
   from [14]HSDB

   Vapor Density
        1.8 (Air =1)
   from [15]HSDB

   Vapor Pressure
        109 mm Hg @ 25 deg C
   from [16]HSDB

   Relative Evaporation Rate
        4.54 (Butyl Acetate= 1)
   from [17]HSDB

   Viscosity
        0.34 cP at 25 deg C
   from [18]HSDB

   Other Chemical/Physical Properties

     * ... Yellowing upon exposure to light indicates photo-alteration to
       saturated derivatives.
     * Solubility of water in acrylonitrile: 3.1 parts water/100 parts
       acrylonitrile
     * Henry's Law constant = 1.38X10-4 atm cu m/mole @ 25 deg C [Bocek K;
       Experientia Suppl 23: 231-40 (1976)] [19]PubMed Abstract
     * Hydroxyl radical rate constant = 4.10X10-12 cu cm/molecule-sec at
       25 deg C
     * Saturated concn = 257 g/cu m @ 20 deg C, 383 g/cu m @ 30 deg C
     * Dielectric constant @ 33.5 MHz = 38; dipole moment = 1.17X10-29 C-m
       (liquid phase), 1.924X10-29 C-m (vapor phase); molar refractivity
       (D line) = 15.67; molar heat of fusion = 6.61 kJ/mol; ionization
       potential = 10.75 eV; free energy of formation = 195 kJ/mol @ 25
       deg C; enthalpy of formation (@ 25 deg C): 185 kJ/mol (gas), 150
       kJ/mol (liquid); molar heat capacity: 2.09 kJ/kg K (liquid), 1.204
       kJ/kg K (gas @ 50 deg C and 1 atm); entropy (gas @ 25 deg C, 1 atm)
       = 274 kJ/mol K
     * Forms azeotropes with tetrachlorosilane, water, isopropyl alcohol,
       benzene, methanol, carbon tetrachloride, chlorotrimethylsilane.

   from [20]HSDB

   Computed Properties
   Molecular Weight                  53.06262 [g/mol]
   Molecular Formula                 C[3]H[3]N
   XLogP3                            0.2
   H-Bond Donor                      0
   H-Bond Acceptor                   1
   Rotatable Bond Count              0
   Exact Mass                        53.026549
   MonoIsotopic Mass                 53.026549
   Topological Polar Surface Area    23.8
   Heavy Atom Count                  4
   Formal Charge                     0
   Complexity                        54.9
   Isotope Atom Count                0
   Defined Atom Stereocenter Count   0
   Undefined Atom Stereocenter Count 0
   Defined Bond Stereocenter Count   0
   Undefined Bond Stereocenter Count 0
   Covalently-Bonded Unit Count      1
   Feature 3D Acceptor Count         1
   Feature 3D Hydrophobe Count       1
   Effective Rotor Count             0
   Conformer Sampling RMSD           0.4
   CID Conformer Count               [21]1

References

   1. http://toxnet.nlm.nih.gov/cgi-bin/sis/search/r?dbs+hsdb:@term+@rn+@rel+107-13-1
   2. http://toxnet.nlm.nih.gov/cgi-bin/sis/search/r?dbs+hsdb:@term+@rn+@rel+107-13-1
   3. http://toxnet.nlm.nih.gov/cgi-bin/sis/search/r?dbs+hsdb:@term+@rn+@rel+107-13-1
   4. http://toxnet.nlm.nih.gov/cgi-bin/sis/search/r?dbs+hsdb:@term+@rn+@rel+107-13-1
   5. http://toxnet.nlm.nih.gov/cgi-bin/sis/search/r?dbs+hsdb:@term+@rn+@rel+107-13-1
   6. http://toxnet.nlm.nih.gov/cgi-bin/sis/search/r?dbs+hsdb:@term+@rn+@rel+107-13-1
   7. http://toxnet.nlm.nih.gov/cgi-bin/sis/search/r?dbs+hsdb:@term+@rn+@rel+107-13-1
   8. http://toxnet.nlm.nih.gov/cgi-bin/sis/search/r?dbs+hsdb:@term+@rn+@rel+107-13-1
   9. http://toxnet.nlm.nih.gov/cgi-bin/sis/search/r?dbs+hsdb:@term+@rn+@rel+107-13-1
  10. http://toxnet.nlm.nih.gov/cgi-bin/sis/search/r?dbs+hsdb:@term+@rn+@rel+107-13-1
  11. http://toxnet.nlm.nih.gov/cgi-bin/sis/search/r?dbs+hsdb:@term+@rn+@rel+107-13-1
  12. http://toxnet.nlm.nih.gov/cgi-bin/sis/search/r?dbs+hsdb:@term+@rn+@rel+107-13-1
  13. http://toxnet.nlm.nih.gov/cgi-bin/sis/search/r?dbs+hsdb:@term+@rn+@rel+107-13-1
  14. http://toxnet.nlm.nih.gov/cgi-bin/sis/search/r?dbs+hsdb:@term+@rn+@rel+107-13-1
  15. http://toxnet.nlm.nih.gov/cgi-bin/sis/search/r?dbs+hsdb:@term+@rn+@rel+107-13-1
  16. http://toxnet.nlm.nih.gov/cgi-bin/sis/search/r?dbs+hsdb:@term+@rn+@rel+107-13-1
  17. http://toxnet.nlm.nih.gov/cgi-bin/sis/search/r?dbs+hsdb:@term+@rn+@rel+107-13-1
  18. http://toxnet.nlm.nih.gov/cgi-bin/sis/search/r?dbs+hsdb:@term+@rn+@rel+107-13-1
  19. http://www.ncbi.nlm.nih.gov/entrez/query.fcgi?cmd=Retrieve&db=pubmed&dopt=Abstract&list_uids=954938
  20. http://toxnet.nlm.nih.gov/cgi-bin/sis/search/r?dbs+hsdb:@term+@rn+@rel+107-13-1
  21. http://pubchem.ncbi.nlm.nih.gov/vw3d/vw3d.cgi?cid=7855
