85154
  -OEChem-07051213042D

 37 37  0     0  0  0  0  0  0999 V2000
    5.4641   -0.0600    0.0000 O   0  0  0  0  0  0  0  0  0  0  0  0
    6.3301    4.4400    0.0000 O   0  0  0  0  0  0  0  0  0  0  0  0
    4.5981    4.4400    0.0000 O   0  0  0  0  0  0  0  0  0  0  0  0
    3.7320   -3.0600    0.0000 C   0  0  0  0  0  0  0  0  0  0  0  0
    3.7320   -2.0600    0.0000 C   0  0  0  0  0  0  0  0  0  0  0  0
    2.8660   -3.5600    0.0000 C   0  0  0  0  0  0  0  0  0  0  0  0
    4.5981   -1.5600    0.0000 C   0  0  0  0  0  0  0  0  0  0  0  0
    2.8660   -4.5600    0.0000 C   0  0  0  0  0  0  0  0  0  0  0  0
    4.5981   -0.5600    0.0000 C   0  0  0  0  0  0  0  0  0  0  0  0
    2.0000   -5.0600    0.0000 C   0  0  0  0  0  0  0  0  0  0  0  0
    5.4641    0.9400    0.0000 C   0  0  0  0  0  0  0  0  0  0  0  0
    6.3301    1.4400    0.0000 C   0  0  0  0  0  0  0  0  0  0  0  0
    4.5981    1.4400    0.0000 C   0  0  0  0  0  0  0  0  0  0  0  0
    5.4641    2.9400    0.0000 C   0  0  0  0  0  0  0  0  0  0  0  0
    6.3301    2.4400    0.0000 C   0  0  0  0  0  0  0  0  0  0  0  0
    4.5981    2.4400    0.0000 C   0  0  0  0  0  0  0  0  0  0  0  0
    5.4641    3.9400    0.0000 C   0  0  0  0  0  0  0  0  0  0  0  0
    3.9441   -3.6426    0.0000 H   0  0  0  0  0  0  0  0  0  0  0  0
    4.3426   -2.9523    0.0000 H   0  0  0  0  0  0  0  0  0  0  0  0
    3.5200   -1.4774    0.0000 H   0  0  0  0  0  0  0  0  0  0  0  0
    3.1215   -2.1677    0.0000 H   0  0  0  0  0  0  0  0  0  0  0  0
    2.6540   -2.9774    0.0000 H   0  0  0  0  0  0  0  0  0  0  0  0
    2.2554   -3.6677    0.0000 H   0  0  0  0  0  0  0  0  0  0  0  0
    4.8101   -2.1426    0.0000 H   0  0  0  0  0  0  0  0  0  0  0  0
    5.2087   -1.4523    0.0000 H   0  0  0  0  0  0  0  0  0  0  0  0
    3.0781   -5.1426    0.0000 H   0  0  0  0  0  0  0  0  0  0  0  0
    3.4766   -4.4523    0.0000 H   0  0  0  0  0  0  0  0  0  0  0  0
    4.3860    0.0226    0.0000 H   0  0  0  0  0  0  0  0  0  0  0  0
    3.9875   -0.6677    0.0000 H   0  0  0  0  0  0  0  0  0  0  0  0
    1.6900   -4.5231    0.0000 H   0  0  0  0  0  0  0  0  0  0  0  0
    1.4631   -5.3700    0.0000 H   0  0  0  0  0  0  0  0  0  0  0  0
    2.3100   -5.5969    0.0000 H   0  0  0  0  0  0  0  0  0  0  0  0
    6.8671    1.1300    0.0000 H   0  0  0  0  0  0  0  0  0  0  0  0
    4.0611    1.1300    0.0000 H   0  0  0  0  0  0  0  0  0  0  0  0
    6.8671    2.7500    0.0000 H   0  0  0  0  0  0  0  0  0  0  0  0
    4.0611    2.7500    0.0000 H   0  0  0  0  0  0  0  0  0  0  0  0
    6.3301    5.0600    0.0000 H   0  0  0  0  0  0  0  0  0  0  0  0
  1  9  1  0  0  0  0
  1 11  1  0  0  0  0
  2 17  1  0  0  0  0
  2 37  1  0  0  0  0
  3 17  2  0  0  0  0
  4  5  1  0  0  0  0
  4  6  1  0  0  0  0
  4 18  1  0  0  0  0
  4 19  1  0  0  0  0
  5  7  1  0  0  0  0
  5 20  1  0  0  0  0
  5 21  1  0  0  0  0
  6  8  1  0  0  0  0
  6 22  1  0  0  0  0
  6 23  1  0  0  0  0
  7  9  1  0  0  0  0
  7 24  1  0  0  0  0
  7 25  1  0  0  0  0
  8 10  1  0  0  0  0
  8 26  1  0  0  0  0
  8 27  1  0  0  0  0
  9 28  1  0  0  0  0
  9 29  1  0  0  0  0
 10 30  1  0  0  0  0
 10 31  1  0  0  0  0
 10 32  1  0  0  0  0
 11 12  2  0  0  0  0
 11 13  1  0  0  0  0
 12 15  1  0  0  0  0
 12 33  1  0  0  0  0
 13 16  2  0  0  0  0
 13 34  1  0  0  0  0
 14 15  2  0  0  0  0
 14 16  1  0  0  0  0
 14 17  1  0  0  0  0
 15 35  1  0  0  0  0
 16 36  1  0  0  0  0
M  END
> <PUBCHEM_COMPOUND_CID>
85154

> <PUBCHEM_COMPOUND_CANONICALIZED>
1

> <PUBCHEM_CACTVS_COMPLEXITY>
208

> <PUBCHEM_CACTVS_HBOND_ACCEPTOR>
3

> <PUBCHEM_CACTVS_HBOND_DONOR>
1

> <PUBCHEM_CACTVS_ROTATABLE_BOND>
8

> <PUBCHEM_CACTVS_SUBSKEYS>
AAADceBwMAAAAAAAAAAAAAAAAAAAAAAAAAAwAAAAAAAAAAABAAAAGgAACAAADASgmAIyDoAABgCIAiDSCAACCAAkIAAIiAEGCMgMJjKENRqCeSCkwBEIuYeI7CzOIAAAAAAAAABAAAAAAAAAAAAAAAAAAA==

> <PUBCHEM_IUPAC_OPENEYE_NAME>
4-heptoxybenzoic acid

> <PUBCHEM_IUPAC_CAS_NAME>
4-heptoxybenzoic acid

> <PUBCHEM_IUPAC_NAME>
4-heptoxybenzoic acid

> <PUBCHEM_IUPAC_SYSTEMATIC_NAME>
4-heptoxybenzoic acid

> <PUBCHEM_IUPAC_TRADITIONAL_NAME>
4-heptoxybenzoic acid

> <PUBCHEM_IUPAC_INCHI>
InChI=1S/C14H20O3/c1-2-3-4-5-6-11-17-13-9-7-12(8-10-13)14(15)16/h7-10H,2-6,11H2,1H3,(H,15,16)

> <PUBCHEM_IUPAC_INCHIKEY>
ZRVIYEJYXIDATJ-UHFFFAOYSA-N

> <PUBCHEM_XLOGP3>
4.4

> <PUBCHEM_EXACT_MASS>
236.141245

> <PUBCHEM_MOLECULAR_FORMULA>
C14H20O3

> <PUBCHEM_MOLECULAR_WEIGHT>
236.3068

> <PUBCHEM_OPENEYE_CAN_SMILES>
CCCCCCCOC1=CC=C(C=C1)C(=O)O

> <PUBCHEM_OPENEYE_ISO_SMILES>
CCCCCCCOC1=CC=C(C=C1)C(=O)O

> <PUBCHEM_CACTVS_TPSA>
46.5

> <PUBCHEM_MONOISOTOPIC_WEIGHT>
236.141245

> <PUBCHEM_TOTAL_CHARGE>
0

> <PUBCHEM_HEAVY_ATOM_COUNT>
17

> <PUBCHEM_ATOM_DEF_STEREO_COUNT>
0

> <PUBCHEM_ATOM_UDEF_STEREO_COUNT>
0

> <PUBCHEM_BOND_DEF_STEREO_COUNT>
0

> <PUBCHEM_BOND_UDEF_STEREO_COUNT>
0

> <PUBCHEM_ISOTOPIC_ATOM_COUNT>
0

> <PUBCHEM_COMPONENT_COUNT>
1

> <PUBCHEM_CACTVS_TAUTO_COUNT>
1

> <PUBCHEM_COORDINATE_TYPE>
1
5
255

> <PUBCHEM_BONDANNOTATIONS>
11  12  8
11  13  8
12  15  8
13  16  8
14  15  8
14  16  8

$$$$

