   Color/Form

     * NEEDLES FROM ALC; RHOMBIC PYRAMIDS FROM CHLOROFORM OR CARBON
       TETRACHLORIDE
     * COLORLESS OR LIGHT-COLORED NEEDLES OR FLAKES
     * Orthorhombic prisms from abs alc.
     * Succinic anhydride forms rhombic pyramidal or bipyramidal crystals.

   from [1]HSDB

   Odor
        ODORLESS
   from [2]HSDB

   Taste
        BURNING TART TASTE
   from [3]HSDB

   Boiling Point
        261 deg C at 760 mm Hg
   from [4]HSDB

   Melting Point
        119.6 deg C
   from [5]HSDB

   Density/Specific Gravity
        1.503 (also given as 1.104 and 1.234)
   from [6]HSDB

   Heat of Combustion
        -1537.9 kJ/mol
   from [7]HSDB

   Octanol/Water Partition Coefficient
        log Kow = 0.81 (est)
   from [8]HSDB

   Solubilities

     * Insoluble in water
     * IN ETHANOL AT 25 DEG C: 2.56 G/100 ML; IN ETHER AT 25 DEG C: 0.64
       G/100 ML; IN CHLOROFORM AT 25 DEG C: 0.87 G/100 ML
     * Soluble in chloroform, carbon tetrachloride, alcohol; very slightly
       soluble in ether and water.
     * In water, 2.4X10+4 mg/L at 25 deg C (est)

   from [9]HSDB

   Spectral Properties

     * MAX ABSORPTION (BENZENE): 278 NM (LOG E= 3.15); SADTLER REF NUMBER:
       5150 (IR, PRISM)
     * MASS: 1122 (NIST/EPA/MSDC Mass Spectral Database, 1990 Version)
     * IR: 449 (Sadtler Research Laboratories IR grating collection)
     * NMR: 6779 (Sadtler Research Laboratories spectral collection)

   from [10]HSDB

   Vapor Pressure
        1.5X10-3 mm Hg at 25 deg C (estrapolated)
   from [11]HSDB

   Other Chemical/Physical Properties

     * Sublimes at 115 deg C and 5 mm pressure, at 92 deg C and 1.0 mm
       pressure, respectively.
     * Reacts with sulfydryl group of cysteine in neutral aqueous solution
     * Bulk density: 47.2 lb/cu ft
     * Hydrolyzes very slowly, requiring more than 30 min to convert
       agitated aqueous suspension to succinic acid at 21 deg C
     * Sublimes at 115 deg C and 5 mmHg pressure, at 92 deg C and 1.0 mmHg
       pressure
     * Vapor pressure = 1 mm Hg at 92 deg C
     * Henry's Law constant = 1.6X10-5 atm-cu m/mol at 25 deg C (est)
     * Hydroxyl radical reaction rate constant = 4.6X10-13 cu
       cm/molecule-sec at 25 deg C (est)

   from [12]HSDB

   Computed Properties
   Molecular Weight                  100.07276 [g/mol]
   Molecular Formula                 C[4]H[4]O[3]
   XLogP3-AA                         -0.5
   H-Bond Donor                      0
   H-Bond Acceptor                   3
   Rotatable Bond Count              0
   Tautomer Count                    3
   Exact Mass                        100.016044
   MonoIsotopic Mass                 100.016044
   Topological Polar Surface Area    43.4
   Heavy Atom Count                  7
   Formal Charge                     0
   Complexity                        102
   Isotope Atom Count                0
   Defined Atom Stereocenter Count   0
   Undefined Atom Stereocenter Count 0
   Defined Bond Stereocenter Count   0
   Undefined Bond Stereocenter Count 0
   Covalently-Bonded Unit Count      1
   Feature 3D Acceptor Count         2
   Feature 3D Ring Count             1
   Effective Rotor Count             0.6
   Conformer Sampling RMSD           0.4
   CID Conformer Count               [13]1

References

   1. http://toxnet.nlm.nih.gov/cgi-bin/sis/search/r?dbs+hsdb:@term+@rn+@rel+108-30-5
   2. http://toxnet.nlm.nih.gov/cgi-bin/sis/search/r?dbs+hsdb:@term+@rn+@rel+108-30-5
   3. http://toxnet.nlm.nih.gov/cgi-bin/sis/search/r?dbs+hsdb:@term+@rn+@rel+108-30-5
   4. http://toxnet.nlm.nih.gov/cgi-bin/sis/search/r?dbs+hsdb:@term+@rn+@rel+108-30-5
   5. http://toxnet.nlm.nih.gov/cgi-bin/sis/search/r?dbs+hsdb:@term+@rn+@rel+108-30-5
   6. http://toxnet.nlm.nih.gov/cgi-bin/sis/search/r?dbs+hsdb:@term+@rn+@rel+108-30-5
   7. http://toxnet.nlm.nih.gov/cgi-bin/sis/search/r?dbs+hsdb:@term+@rn+@rel+108-30-5
   8. http://toxnet.nlm.nih.gov/cgi-bin/sis/search/r?dbs+hsdb:@term+@rn+@rel+108-30-5
   9. http://toxnet.nlm.nih.gov/cgi-bin/sis/search/r?dbs+hsdb:@term+@rn+@rel+108-30-5
  10. http://toxnet.nlm.nih.gov/cgi-bin/sis/search/r?dbs+hsdb:@term+@rn+@rel+108-30-5
  11. http://toxnet.nlm.nih.gov/cgi-bin/sis/search/r?dbs+hsdb:@term+@rn+@rel+108-30-5
  12. http://toxnet.nlm.nih.gov/cgi-bin/sis/search/r?dbs+hsdb:@term+@rn+@rel+108-30-5
  13. http://pubchem.ncbi.nlm.nih.gov/vw3d/vw3d.cgi?cid=7922
