   Color/Form

     * Crystalline powder
     * Crystals

   from [1]HSDB

   Odor
        Menthol odor
   from [2]HSDB

   Boiling Point
        115 deg C (sublimes)
   from [3]HSDB

   Melting Point
        246.2 deg C (closed capillary)
   from [4]HSDB

   Density/Specific Gravity
        1.27 at 20 deg C
   from [5]HSDB

   Heat of Combustion
        3370 kJ/mol
   from [6]HSDB

   Octanol/Water Partition Coefficient
        log Kow = 0.12
   from [7]HSDB

   Solubilities

     * Moderately soluble in water, fairly soluble in toluene, readily
       soluble in methanol, very soluble in benzene and chloroform,
       insoluble in acetic acid, and slightly soluble in ethanol.
     * Insoluble in water, acetone, acetic acid, and carbon disulfide.
     * In toluene 530 mg/L at 20 deg C, in methanol 1730 mg/L at 20 deg C
     * In water, 222 mg/L at 20 deg C

   from [8]HSDB

   Vapor Pressure
        6.6X10+3 mPa (5.0X10-2 mm Hg) at 25 deg C
   from [9]HSDB

   Other Chemical/Physical Properties

     * Vapor pressure is negligible at room temperature.
     * Depolymerization of metaldehyde to acetaldehyde begins at 80 deg C
       and is complete above 200 deg C.
     * Flammable solid
     * Molecular weight is variable; physical form: tetragonal needles or
       prisms (from alcohol); melting point: 246 deg C; boiling point: 115
       (sublimes); insoluble in water, acetone; slightly soluble in
       ethanol, diethyl ether, benzene, chloroform /Polymer/
     * Molecular weights in the range of 800,000 to 3,000,000 have been
       reported. Polyacetaldehyde is unstable and depolymerizes in a few
       days to acetaldehyde. /Polymer/
     * Rubber-like consistency. Soluble in common organic solvents.
       Depolymerizes at room temperature. /Polymer/
     * In water, 200 mg/L at 17 deg C /Polymer/
     * SADTLER REFERENCE NUMBER: 6400 (IR, PRISM); 8469 (IR, GRATING)
       /Polymer/
     * Intense mass spectral peaks: 89 m/z, 117 m/z, 131 m/z /Polymer/
     * Henry's Law constant = 5.22X10-5 atm-cu m/mol at 25 deg C (est)
     * Hydroxyl radical reaction rate constant = 2.9X10-11 cu cm/molec-sec
       at 25 deg C (est)

   from [10]HSDB

   Computed Properties
   Molecular Weight                  176.21024 [g/mol]
   Molecular Formula                 C[8]H[16]O[4]
   XLogP3                            1.1
   H-Bond Donor                      0
   H-Bond Acceptor                   4
   Rotatable Bond Count              0
   Exact Mass                        176.104859
   MonoIsotopic Mass                 176.104859
   Topological Polar Surface Area    36.9
   Heavy Atom Count                  12
   Formal Charge                     0
   Complexity                        91
   Isotope Atom Count                0
   Defined Atom Stereocenter Count   0
   Undefined Atom Stereocenter Count 0
   Defined Bond Stereocenter Count   0
   Undefined Bond Stereocenter Count 0
   Covalently-Bonded Unit Count      1
   Feature 3D Acceptor Count         4
   Effective Rotor Count             1.6
   Conformer Sampling RMSD           0.4
   CID Conformer Count               [11]3

References

   1. http://toxnet.nlm.nih.gov/cgi-bin/sis/search/r?dbs+hsdb:@term+@rn+@rel+108-62-3
   2. http://toxnet.nlm.nih.gov/cgi-bin/sis/search/r?dbs+hsdb:@term+@rn+@rel+108-62-3
   3. http://toxnet.nlm.nih.gov/cgi-bin/sis/search/r?dbs+hsdb:@term+@rn+@rel+108-62-3
   4. http://toxnet.nlm.nih.gov/cgi-bin/sis/search/r?dbs+hsdb:@term+@rn+@rel+108-62-3
   5. http://toxnet.nlm.nih.gov/cgi-bin/sis/search/r?dbs+hsdb:@term+@rn+@rel+108-62-3
   6. http://toxnet.nlm.nih.gov/cgi-bin/sis/search/r?dbs+hsdb:@term+@rn+@rel+108-62-3
   7. http://toxnet.nlm.nih.gov/cgi-bin/sis/search/r?dbs+hsdb:@term+@rn+@rel+108-62-3
   8. http://toxnet.nlm.nih.gov/cgi-bin/sis/search/r?dbs+hsdb:@term+@rn+@rel+108-62-3
   9. http://toxnet.nlm.nih.gov/cgi-bin/sis/search/r?dbs+hsdb:@term+@rn+@rel+108-62-3
  10. http://toxnet.nlm.nih.gov/cgi-bin/sis/search/r?dbs+hsdb:@term+@rn+@rel+108-62-3
  11. http://pubchem.ncbi.nlm.nih.gov/vw3d/vw3d.cgi?cid=61021
