14265
  -OEChem-06241222422D

 17 17  0     1  0  0  0  0  0999 V2000
    2.0000   -0.0093    0.0000 O   0  0  0  0  0  0  0  0  0  0  0  0
    3.7601    0.2694    0.0000 C   0  0  3  0  0  0  0  0  0  0  0  0
    4.5691   -0.3184    0.0000 C   0  0  0  0  0  0  0  0  0  0  0  0
    4.2601   -1.2694    0.0000 C   0  0  0  0  0  0  0  0  0  0  0  0
    3.2601   -1.2694    0.0000 C   0  0  0  0  0  0  0  0  0  0  0  0
    2.9511   -0.3184    0.0000 C   0  0  0  0  0  0  0  0  0  0  0  0
    3.7601    1.2694    0.0000 C   0  0  0  0  0  0  0  0  0  0  0  0
    4.5174    0.6553    0.0000 H   0  0  0  0  0  0  0  0  0  0  0  0
    5.1355   -0.5705    0.0000 H   0  0  0  0  0  0  0  0  0  0  0  0
    4.8791    0.2186    0.0000 H   0  0  0  0  0  0  0  0  0  0  0  0
    4.1953   -1.8860    0.0000 H   0  0  0  0  0  0  0  0  0  0  0  0
    4.8665   -1.3983    0.0000 H   0  0  0  0  0  0  0  0  0  0  0  0
    2.6536   -1.3983    0.0000 H   0  0  0  0  0  0  0  0  0  0  0  0
    3.3249   -1.8860    0.0000 H   0  0  0  0  0  0  0  0  0  0  0  0
    4.3801    1.2694    0.0000 H   0  0  0  0  0  0  0  0  0  0  0  0
    3.7601    1.8894    0.0000 H   0  0  0  0  0  0  0  0  0  0  0  0
    3.1401    1.2694    0.0000 H   0  0  0  0  0  0  0  0  0  0  0  0
  1  6  2  0  0  0  0
  2  3  1  0  0  0  0
  2  6  1  0  0  0  0
  2  7  1  0  0  0  0
  2  8  1  0  0  0  0
  3  4  1  0  0  0  0
  3  9  1  0  0  0  0
  3 10  1  0  0  0  0
  4  5  1  0  0  0  0
  4 11  1  0  0  0  0
  4 12  1  0  0  0  0
  5  6  1  0  0  0  0
  5 13  1  0  0  0  0
  5 14  1  0  0  0  0
  7 15  1  0  0  0  0
  7 16  1  0  0  0  0
  7 17  1  0  0  0  0
M  END
> <PUBCHEM_COMPOUND_CID>
14265

> <PUBCHEM_COMPOUND_CANONICALIZED>
1

> <PUBCHEM_CACTVS_COMPLEXITY>
86.2

> <PUBCHEM_CACTVS_HBOND_ACCEPTOR>
1

> <PUBCHEM_CACTVS_HBOND_DONOR>
0

> <PUBCHEM_CACTVS_ROTATABLE_BOND>
0

> <PUBCHEM_CACTVS_SUBSKEYS>
AAADccBgIAAAAAAAAAAAAAAAAAAAAYAAAAAAAAAAAAAAAAAAAAAAGgAAAAAADQSAgAACAAAAAAAIAIAQAAAAAAAAAAAAAAEAAAAAABIAAAAAAAAAAAAAAAEICAAOAAAAAAAAAAAAAAAAAAAAAAAAAAAAAA==

> <PUBCHEM_IUPAC_OPENEYE_NAME>
2-methylcyclopentanone

> <PUBCHEM_IUPAC_CAS_NAME>
2-methyl-1-cyclopentanone

> <PUBCHEM_IUPAC_NAME>
2-methylcyclopentan-1-one

> <PUBCHEM_IUPAC_SYSTEMATIC_NAME>
2-methylcyclopentan-1-one

> <PUBCHEM_IUPAC_TRADITIONAL_NAME>
2-methylcyclopentanone

> <PUBCHEM_IUPAC_INCHI>
InChI=1S/C6H10O/c1-5-3-2-4-6(5)7/h5H,2-4H2,1H3

> <PUBCHEM_IUPAC_INCHIKEY>
ZIXLDMFVRPABBX-UHFFFAOYSA-N

> <PUBCHEM_XLOGP3_AA>
1

> <PUBCHEM_EXACT_MASS>
98.073165

> <PUBCHEM_MOLECULAR_FORMULA>
C6H10O

> <PUBCHEM_MOLECULAR_WEIGHT>
98.143

> <PUBCHEM_OPENEYE_CAN_SMILES>
CC1CCCC1=O

> <PUBCHEM_OPENEYE_ISO_SMILES>
CC1CCCC1=O

> <PUBCHEM_CACTVS_TPSA>
17.1

> <PUBCHEM_MONOISOTOPIC_WEIGHT>
98.073165

> <PUBCHEM_TOTAL_CHARGE>
0

> <PUBCHEM_HEAVY_ATOM_COUNT>
7

> <PUBCHEM_ATOM_DEF_STEREO_COUNT>
0

> <PUBCHEM_ATOM_UDEF_STEREO_COUNT>
1

> <PUBCHEM_BOND_DEF_STEREO_COUNT>
0

> <PUBCHEM_BOND_UDEF_STEREO_COUNT>
0

> <PUBCHEM_ISOTOPIC_ATOM_COUNT>
0

> <PUBCHEM_COMPONENT_COUNT>
1

> <PUBCHEM_CACTVS_TAUTO_COUNT>
3

> <PUBCHEM_COORDINATE_TYPE>
1
5
255

> <PUBCHEM_BONDANNOTATIONS>
2  8  3

$$$$

