   Color/Form

     * Minute, brownish-yellow crystals
     * Light brownish yellow to bright yellow fine powder

   from [1]HSDB

   Odor
        Odorless
   from [2]HSDB

   Taste
        Tasteless
   from [3]HSDB

   Melting Point
        220 deg C (decomposes)
   from [4]HSDB

   Dissociation Constants
        pKa1 = 2.3 (carboxylic acid); pKa2 = 6.5 (sulfonamide nitrogen)
   (est)
   from [5]HSDB

   Octanol/Water Partition Coefficient
        log Kow = 3.8 (est)
   from [6]HSDB

   Solubilities

     * Very slightly soluble in ethanol; practically insoluble in water,
       diethyl ether, chloroform, and benzene; soluble in aqueous solution
       of alkali hydroxides
     * In water, 1.3X10+1 mg/L at 25 deg C (est)

   from [7]HSDB

   Spectral Properties

     * UV max = 237 nm, 359 nm (Epsilon at 1% and 1 cm = approximately
       658)
     * UV: 2510 (Absorption Spectra in the UV and Visible Region, Academic
       Press, New York)

   from [8]HSDB

   Vapor Pressure
        2.3X10-14 mm Hg at 25 deg C (est)
   from [9]HSDB

   Other Chemical/Physical Properties

     * Henry's Law constant = 2.2X10-18 atm-cu m/mol at 25 deg C (est)
     * Hydroxyl radical reaction rate constant = 1.4X10-11 cu
       cm/molecule-sec at 25 deg C (est)

   from [10]HSDB

   Computed Properties
   Molecular Weight                  398.39256 [g/mol]
   Molecular Formula                 C[18]H[14]N[4]O[5]S
   XLogP3-AA                         2.3
   H-Bond Donor                      3
   H-Bond Acceptor                   9
   Rotatable Bond Count              6
   Tautomer Count                    10
   Exact Mass                        398.068491
   MonoIsotopic Mass                 398.068491
   Topological Polar Surface Area    146
   Heavy Atom Count                  28
   Formal Charge                     0
   Complexity                        804
   Isotope Atom Count                0
   Defined Atom Stereocenter Count   0
   Undefined Atom Stereocenter Count 0
   Defined Bond Stereocenter Count   1
   Undefined Bond Stereocenter Count 0
   Covalently-Bonded Unit Count      1
   Feature 3D Acceptor Count         7
   Feature 3D Donor Count            2
   Feature 3D Anion Count            2
   Feature 3D Ring Count             3
   Effective Rotor Count             6
   Conformer Sampling RMSD           0.8
   CID Conformer Count               [11]111

References

   1. http://toxnet.nlm.nih.gov/cgi-bin/sis/search/r?dbs+hsdb:@term+@rn+@rel+599-79-1
   2. http://toxnet.nlm.nih.gov/cgi-bin/sis/search/r?dbs+hsdb:@term+@rn+@rel+599-79-1
   3. http://toxnet.nlm.nih.gov/cgi-bin/sis/search/r?dbs+hsdb:@term+@rn+@rel+599-79-1
   4. http://toxnet.nlm.nih.gov/cgi-bin/sis/search/r?dbs+hsdb:@term+@rn+@rel+599-79-1
   5. http://toxnet.nlm.nih.gov/cgi-bin/sis/search/r?dbs+hsdb:@term+@rn+@rel+599-79-1
   6. http://toxnet.nlm.nih.gov/cgi-bin/sis/search/r?dbs+hsdb:@term+@rn+@rel+599-79-1
   7. http://toxnet.nlm.nih.gov/cgi-bin/sis/search/r?dbs+hsdb:@term+@rn+@rel+599-79-1
   8. http://toxnet.nlm.nih.gov/cgi-bin/sis/search/r?dbs+hsdb:@term+@rn+@rel+599-79-1
   9. http://toxnet.nlm.nih.gov/cgi-bin/sis/search/r?dbs+hsdb:@term+@rn+@rel+599-79-1
  10. http://toxnet.nlm.nih.gov/cgi-bin/sis/search/r?dbs+hsdb:@term+@rn+@rel+599-79-1
  11. http://pubchem.ncbi.nlm.nih.gov/vw3d/vw3d.cgi?cid=5359476
