   Color/Form
        CLEAR, COLORLESS LIQUID
   from [1]HSDB

   Odor

     * AMINE-LIKE ODOR
     * HEAVY, SWEET, FLORAL, ANIMAL ODOR
     * Odor of pepper

   from [2]HSDB

   Taste
        BURNING PEPPERY TASTE
   from [3]HSDB

   Boiling Point
        106 deg C at 760 mm Hg
   from [4]HSDB

   Melting Point
        -7 deg C
   from [5]HSDB

   Density/Specific Gravity
        0.8622 at 20 deg C/4 deg C
   from [6]HSDB

   Dissociation Constants

     * pKb at 25 deg C: 2.80
     * pKa = 11.28

   from [7]HSDB

   Heat of Combustion
        3453.2 kJ/mol (liquid) at 25 deg C
   from [8]HSDB

   Octanol/Water Partition Coefficient
        log Kow = 0.84
   from [9]HSDB

   pH
        Strong base
   from [10]HSDB

   Solubilities

     * Miscible in ethanol; soluble in ethyl ether, acetone, benzene,
       chloroform
     * Miscible in water

   from [11]HSDB

   Spectral Properties

     * MAX ABSORPTION (GAS): 198 NM (LOG E= 3.5); SADTLER REF NUMBER: 135
       (NMR)
     * Index of refraction: 1.4534 at 20 degC/D
     * IR: 5991 (Sadtler Research Laboratories Spectral Collection)
     * UV: 6-55 (Organic Electronic Spectral Data, Phillips et al, John
       Wiley & Sons, New York)
     * MASS: 34698 (NIST/EPA/MSDC Mass Spectral database, 1990 version)
     * Raman: 242 (Sadtler Research Laboratories spectral collection)

   from [12]HSDB

   Vapor Density
        3.0 (Air = 1)
   from [13]HSDB

   Vapor Pressure
        32.1 mm Hg at 25 deg C
   from [14]HSDB

   Other Chemical/Physical Properties

     * VP: 40 mm Hg at 29.2 deg C
     * Soapy feel; solidifies at -13 deg C to -17 deg C. Forms complexes
       with salts of heavy metals
     * Piperidine behaves chemically like a typical aliphatic secondary
       amine.
     * CONVERSION FACTORS: 1 MG/L IS EQUIV TO 287 PPM & 1 PPM IS EQUIV TO
       3.5 MG/CU M
     * Blush resistance 80 % rh (@ 27 deg C); coefficient of expansion:
       0.0011 cu cm/deg C
     * Heat capacity: 179.9 J/mol K (liquid) at 25 deg C
     * Orthorhombic prisms from alcohol; mp: 247 deg C; freely sol in
       water, alcohol /Piperidine hydrochloride/
     * Henry's Law constant = 4.45X10-6 atm-cu m/mol at 25 deg C
     * Hydroxyl radical reaction rate constant = 8.86X10-11 cu
       cm/molec-sec at 25 deg C (est)

   from [15]HSDB

   Computed Properties
   Molecular Weight                  85.14754 [g/mol]
   Molecular Formula                 C[5]H[11]N
   XLogP3                            0.8
   H-Bond Donor                      1
   H-Bond Acceptor                   1
   Rotatable Bond Count              0
   Exact Mass                        85.089149
   MonoIsotopic Mass                 85.089149
   Topological Polar Surface Area    12
   Heavy Atom Count                  6
   Formal Charge                     0
   Complexity                        30.9
   Isotope Atom Count                0
   Defined Atom Stereocenter Count   0
   Undefined Atom Stereocenter Count 0
   Defined Bond Stereocenter Count   0
   Undefined Bond Stereocenter Count 0
   Covalently-Bonded Unit Count      1
   Feature 3D Donor Count            1
   Feature 3D Cation Count           1
   Feature 3D Ring Count             1
   Effective Rotor Count             1.2
   Conformer Sampling RMSD           0.4
   CID Conformer Count               [16]1

References

   1. http://toxnet.nlm.nih.gov/cgi-bin/sis/search/r?dbs+hsdb:@term+@rn+@rel+110-89-4
   2. http://toxnet.nlm.nih.gov/cgi-bin/sis/search/r?dbs+hsdb:@term+@rn+@rel+110-89-4
   3. http://toxnet.nlm.nih.gov/cgi-bin/sis/search/r?dbs+hsdb:@term+@rn+@rel+110-89-4
   4. http://toxnet.nlm.nih.gov/cgi-bin/sis/search/r?dbs+hsdb:@term+@rn+@rel+110-89-4
   5. http://toxnet.nlm.nih.gov/cgi-bin/sis/search/r?dbs+hsdb:@term+@rn+@rel+110-89-4
   6. http://toxnet.nlm.nih.gov/cgi-bin/sis/search/r?dbs+hsdb:@term+@rn+@rel+110-89-4
   7. http://toxnet.nlm.nih.gov/cgi-bin/sis/search/r?dbs+hsdb:@term+@rn+@rel+110-89-4
   8. http://toxnet.nlm.nih.gov/cgi-bin/sis/search/r?dbs+hsdb:@term+@rn+@rel+110-89-4
   9. http://toxnet.nlm.nih.gov/cgi-bin/sis/search/r?dbs+hsdb:@term+@rn+@rel+110-89-4
  10. http://toxnet.nlm.nih.gov/cgi-bin/sis/search/r?dbs+hsdb:@term+@rn+@rel+110-89-4
  11. http://toxnet.nlm.nih.gov/cgi-bin/sis/search/r?dbs+hsdb:@term+@rn+@rel+110-89-4
  12. http://toxnet.nlm.nih.gov/cgi-bin/sis/search/r?dbs+hsdb:@term+@rn+@rel+110-89-4
  13. http://toxnet.nlm.nih.gov/cgi-bin/sis/search/r?dbs+hsdb:@term+@rn+@rel+110-89-4
  14. http://toxnet.nlm.nih.gov/cgi-bin/sis/search/r?dbs+hsdb:@term+@rn+@rel+110-89-4
  15. http://toxnet.nlm.nih.gov/cgi-bin/sis/search/r?dbs+hsdb:@term+@rn+@rel+110-89-4
  16. http://pubchem.ncbi.nlm.nih.gov/vw3d/vw3d.cgi?cid=8082
