17395275
  -OEChem-06241222492D

 28 30  0     0  0  0  0  0  0999 V2000
    4.9889   -0.1513    0.0000 S   0  0  0  0  0  0  0  0  0  0  0  0
    8.5458    2.3684    0.0000 F   0  0  0  0  0  0  0  0  0  0  0  0
    3.7320   -1.4065    0.0000 N   0  0  0  0  0  0  0  0  0  0  0  0
    5.2619   -1.9065    0.0000 N   0  0  0  0  0  0  0  0  0  0  0  0
    4.6783   -2.7112    0.0000 N   0  0  0  0  0  0  0  0  0  0  0  0
    4.6783   -1.1018    0.0000 C   0  0  0  0  0  0  0  0  0  0  0  0
    3.7320   -2.4065    0.0000 C   0  0  0  0  0  0  0  0  0  0  0  0
    5.9674    0.0550    0.0000 C   0  0  0  0  0  0  0  0  0  0  0  0
    6.2781    1.0055    0.0000 C   0  0  0  0  0  0  0  0  0  0  0  0
    2.8660   -0.9065    0.0000 C   0  0  0  0  0  0  0  0  0  0  0  0
    2.8660   -2.9065    0.0000 C   0  0  0  0  0  0  0  0  0  0  0  0
    7.2566    1.2117    0.0000 C   0  0  0  0  0  0  0  0  0  0  0  0
    5.6103    1.7498    0.0000 C   0  0  0  0  0  0  0  0  0  0  0  0
    2.0000   -1.4065    0.0000 C   0  0  0  0  0  0  0  0  0  0  0  0
    2.0000   -2.4065    0.0000 C   0  0  0  0  0  0  0  0  0  0  0  0
    7.5673    2.1622    0.0000 C   0  0  0  0  0  0  0  0  0  0  0  0
    5.9209    2.7003    0.0000 C   0  0  0  0  0  0  0  0  0  0  0  0
    6.8994    2.9065    0.0000 C   0  0  0  0  0  0  0  0  0  0  0  0
    5.9880   -0.5647    0.0000 H   0  0  0  0  0  0  0  0  0  0  0  0
    6.5812   -0.0324    0.0000 H   0  0  0  0  0  0  0  0  0  0  0  0
    2.8660   -0.2865    0.0000 H   0  0  0  0  0  0  0  0  0  0  0  0
    2.8660   -3.5265    0.0000 H   0  0  0  0  0  0  0  0  0  0  0  0
    7.6707    0.7502    0.0000 H   0  0  0  0  0  0  0  0  0  0  0  0
    5.0036    1.6219    0.0000 H   0  0  0  0  0  0  0  0  0  0  0  0
    1.4631   -1.0965    0.0000 H   0  0  0  0  0  0  0  0  0  0  0  0
    1.4631   -2.7165    0.0000 H   0  0  0  0  0  0  0  0  0  0  0  0
    5.5069    3.1618    0.0000 H   0  0  0  0  0  0  0  0  0  0  0  0
    7.0920    3.4958    0.0000 H   0  0  0  0  0  0  0  0  0  0  0  0
  1  6  1  0  0  0  0
  1  8  1  0  0  0  0
  2 16  1  0  0  0  0
  3  6  1  0  0  0  0
  3  7  1  0  0  0  0
  3 10  1  0  0  0  0
  4  5  1  0  0  0  0
  4  6  2  0  0  0  0
  5  7  2  0  0  0  0
  7 11  1  0  0  0  0
  8  9  1  0  0  0  0
  8 19  1  0  0  0  0
  8 20  1  0  0  0  0
  9 12  2  0  0  0  0
  9 13  1  0  0  0  0
 10 14  2  0  0  0  0
 10 21  1  0  0  0  0
 11 15  2  0  0  0  0
 11 22  1  0  0  0  0
 12 16  1  0  0  0  0
 12 23  1  0  0  0  0
 13 17  2  0  0  0  0
 13 24  1  0  0  0  0
 14 15  1  0  0  0  0
 14 25  1  0  0  0  0
 15 26  1  0  0  0  0
 16 18  2  0  0  0  0
 17 18  1  0  0  0  0
 17 27  1  0  0  0  0
 18 28  1  0  0  0  0
M  END
> <PUBCHEM_COMPOUND_CID>
17395275

> <PUBCHEM_COMPOUND_CANONICALIZED>
1

> <PUBCHEM_CACTVS_COMPLEXITY>
279

> <PUBCHEM_CACTVS_HBOND_ACCEPTOR>
4

> <PUBCHEM_CACTVS_HBOND_DONOR>
0

> <PUBCHEM_CACTVS_ROTATABLE_BOND>
3

> <PUBCHEM_CACTVS_SUBSKEYS>
AAADccBzAQBAAAAAAAAAAAAAAAAAAWAAAAA8QAAAAAAAAFgB8AAAHQQIAAAADADFWwy9sJ8MGAiiAjJnZACS1CtxArAd2CA4ZJiIKOLgmZGEoAhgiALIyCcQgAAOAAAAAAAAAAAAAAAAAAAAAAAAAAAAAA==

> <PUBCHEM_IUPAC_OPENEYE_NAME>
3-[(3-fluorophenyl)methylsulfanyl]-[1,2,4]triazolo[4,3-a]pyridine

> <PUBCHEM_IUPAC_CAS_NAME>
3-[(3-fluorophenyl)methylthio]-[1,2,4]triazolo[4,3-a]pyridine

> <PUBCHEM_IUPAC_NAME>
3-[(3-fluorophenyl)methylsulfanyl]-[1,2,4]triazolo[4,3-a]pyridine

> <PUBCHEM_IUPAC_SYSTEMATIC_NAME>
3-[(3-fluorophenyl)methylsulfanyl]-[1,2,4]triazolo[4,3-a]pyridine

> <PUBCHEM_IUPAC_TRADITIONAL_NAME>
3-[(3-fluorobenzyl)thio]-[1,2,4]triazolo[4,3-a]pyridine

> <PUBCHEM_IUPAC_INCHI>
InChI=1S/C13H10FN3S/c14-11-5-3-4-10(8-11)9-18-13-16-15-12-6-1-2-7-17(12)13/h1-8H,9H2

> <PUBCHEM_IUPAC_INCHIKEY>
GCQYTSKUNYITPX-UHFFFAOYSA-N

> <PUBCHEM_XLOGP3_AA>
3.6

> <PUBCHEM_EXACT_MASS>
259.057947

> <PUBCHEM_MOLECULAR_FORMULA>
C13H10FN3S

> <PUBCHEM_MOLECULAR_WEIGHT>
259.302003

> <PUBCHEM_OPENEYE_CAN_SMILES>
C1=CC2=NN=C(N2C=C1)SCC3=CC(=CC=C3)F

> <PUBCHEM_OPENEYE_ISO_SMILES>
C1=CC2=NN=C(N2C=C1)SCC3=CC(=CC=C3)F

> <PUBCHEM_CACTVS_TPSA>
55.5

> <PUBCHEM_MONOISOTOPIC_WEIGHT>
259.057947

> <PUBCHEM_TOTAL_CHARGE>
0

> <PUBCHEM_HEAVY_ATOM_COUNT>
18

> <PUBCHEM_ATOM_DEF_STEREO_COUNT>
0

> <PUBCHEM_ATOM_UDEF_STEREO_COUNT>
0

> <PUBCHEM_BOND_DEF_STEREO_COUNT>
0

> <PUBCHEM_BOND_UDEF_STEREO_COUNT>
0

> <PUBCHEM_ISOTOPIC_ATOM_COUNT>
0

> <PUBCHEM_COMPONENT_COUNT>
1

> <PUBCHEM_CACTVS_TAUTO_COUNT>
1

> <PUBCHEM_COORDINATE_TYPE>
1
5
255

> <PUBCHEM_BONDANNOTATIONS>
10  14  8
11  15  8
12  16  8
13  17  8
14  15  8
16  18  8
17  18  8
3  10  8
3  6  8
3  7  8
4  5  8
4  6  8
5  7  8
7  11  8
9  12  8
9  13  8

$$$$

