   Color/Form

     * COLORLESS, MOBILE LIQUID
     * Clear, colorless liquid [Note: A solid below 43 degrees F].

   from [1]HSDB

   Odor

     * AROMATIC ODOR
     * SPICY ODOR
     * Aromatic or mild, amine-like odor.

   from [2]HSDB

   Boiling Point
        233 DEG C @ 760 MM HG
   from [3]HSDB

   Melting Point
        FP: 5-7 DEG C
   from [4]HSDB

   Density/Specific Gravity
        1.03 @ 20 DEG C
   from [5]HSDB

   Solubilities
        MISCIBLE WITH WATER & WITH MOST ORG LIQ; IMMISCIBLE WITH
   HIGH-BOILING SATURATED HYDROCARBONS
   from [6]HSDB

   Spectral Properties

     * INDEX OF REFRACTION: 1.4572 @ 21 DEG C/D
     * Intense mass spectral peaks: 44 m/z (100%), 135 m/z (73%), 45 m/z
       (67%), 42 m/z (25%)
     * IR: 1551 (Documentation of Molecular Spectroscopy Collection)
     * MASS: 1217 (Atlas of Mass Spectral Data, John Wiley & Sons, New
       York)

   from [7]HSDB

   Vapor Density
        6.18 (Air= 1)
   from [8]HSDB

   Vapor Pressure
        0.03 MM HG @ ROOM TEMP
   from [9]HSDB

   Other Chemical/Physical Properties
        DOES NOT HYDROLYZE IN ALKALINE MEDIA BUT HYDROLYZES SLOWLY IN
   ACIDS
   from [10]HSDB

   Computed Properties
   Molecular Weight                  179.200382 [g/mol]
   Molecular Formula                 C[6]H[18]N[3]OP
   XLogP3                            0.3
   H-Bond Donor                      0
   H-Bond Acceptor                   4
   Rotatable Bond Count              3
   Exact Mass                        179.118749
   MonoIsotopic Mass                 179.118749
   Topological Polar Surface Area    26.8
   Heavy Atom Count                  11
   Formal Charge                     0
   Complexity                        139
   Isotope Atom Count                0
   Defined Atom Stereocenter Count   0
   Undefined Atom Stereocenter Count 0
   Defined Bond Stereocenter Count   0
   Undefined Bond Stereocenter Count 0
   Covalently-Bonded Unit Count      1
   Feature 3D Acceptor Count         1
   Effective Rotor Count             3
   Conformer Sampling RMSD           0.6
   CID Conformer Count               [11]2

References

   1. http://toxnet.nlm.nih.gov/cgi-bin/sis/search/r?dbs+hsdb:@term+@rn+@rel+680-31-9
   2. http://toxnet.nlm.nih.gov/cgi-bin/sis/search/r?dbs+hsdb:@term+@rn+@rel+680-31-9
   3. http://toxnet.nlm.nih.gov/cgi-bin/sis/search/r?dbs+hsdb:@term+@rn+@rel+680-31-9
   4. http://toxnet.nlm.nih.gov/cgi-bin/sis/search/r?dbs+hsdb:@term+@rn+@rel+680-31-9
   5. http://toxnet.nlm.nih.gov/cgi-bin/sis/search/r?dbs+hsdb:@term+@rn+@rel+680-31-9
   6. http://toxnet.nlm.nih.gov/cgi-bin/sis/search/r?dbs+hsdb:@term+@rn+@rel+680-31-9
   7. http://toxnet.nlm.nih.gov/cgi-bin/sis/search/r?dbs+hsdb:@term+@rn+@rel+680-31-9
   8. http://toxnet.nlm.nih.gov/cgi-bin/sis/search/r?dbs+hsdb:@term+@rn+@rel+680-31-9
   9. http://toxnet.nlm.nih.gov/cgi-bin/sis/search/r?dbs+hsdb:@term+@rn+@rel+680-31-9
  10. http://toxnet.nlm.nih.gov/cgi-bin/sis/search/r?dbs+hsdb:@term+@rn+@rel+680-31-9
  11. http://pubchem.ncbi.nlm.nih.gov/vw3d/vw3d.cgi?cid=12679
