   Color/Form
        Crystals. ... Takes up CO2 from the air and forms crystalline
   carbonate
   from [1]HSDB

   Boiling Point
        180 deg C at 12 mm Hg
   from [2]HSDB

   Melting Point
        35-36 deg C
   from [3]HSDB

   Dissociation Constants
        pKa = 9.56
   from [4]HSDB

   Octanol/Water Partition Coefficient
        log Kow = 0.78
   from [5]HSDB

   Solubilities

     * Moderately soluble in water; soluble in chloroform, benzene.
       Practically insoluble in ether, petroleum ether.
     * Soluble in ethanol; slightly soluble in lignin
     * In water, 8.41X10+4 mg/L at 25 deg C (est)

   from [6]HSDB

   Spectral Properties

     * MASS: 1327 (NIST/EPA/MSDC Mass Spectral database, 1990 version)
     * UV: 3-311 (Phillip et al., Organic Electronic Spectra Data, John
       Wiley & Sons, New York)

   from [7]HSDB

   Vapor Pressure
        3.22X10-4 mm Hg at 25 deg C (est)
   from [8]HSDB

   Other Chemical/Physical Properties

     * Needles, mp 181 deg C. Soluble in water, alcohol /Hydrochloride/
     * Prisms, mp 183-186 deg C. Soluble in hot water, methanol; sparingly
       soluble in cold water, ethanol. /Sodium dihydrate/
     * Crystals, mp 158 deg C /Acid sulfate/
     * Needles from aqueous alcohol, mp 121 deg C. Very soluble in
       alcohol, ether /N-Benzoylmescaline/
     * Occurs naturally, bp 130-140 deg C /N-Methylmescaline/
     * Occurs naturally, mp 94 deg C /N-Acetylmescaline/
     * Henry's Law constant = 1.68X10-10 atm-cu m/mol at 25 deg C (est)
     * Hydroxyl radical reaction rate constant = 2.35X10-10 cu
       cm/molec-sec at 25 deg C (est)

   from [9]HSDB

   Computed Properties
   Molecular Weight                  211.25758 [g/mol]
   Molecular Formula                 C[11]H[17]NO[3]
   XLogP3                            0.7
   H-Bond Donor                      1
   H-Bond Acceptor                   4
   Rotatable Bond Count              5
   Exact Mass                        211.120843
   MonoIsotopic Mass                 211.120843
   Topological Polar Surface Area    53.7
   Heavy Atom Count                  15
   Formal Charge                     0
   Complexity                        163
   Isotope Atom Count                0
   Defined Atom Stereocenter Count   0
   Undefined Atom Stereocenter Count 0
   Defined Bond Stereocenter Count   0
   Undefined Bond Stereocenter Count 0
   Covalently-Bonded Unit Count      1
   Feature 3D Acceptor Count         3
   Feature 3D Donor Count            1
   Feature 3D Cation Count           1
   Feature 3D Ring Count             1
   Effective Rotor Count             5
   Conformer Sampling RMSD           0.6
   CID Conformer Count               [10]24

References

   1. http://toxnet.nlm.nih.gov/cgi-bin/sis/search/r?dbs+hsdb:@term+@rn+@rel+54-04-6
   2. http://toxnet.nlm.nih.gov/cgi-bin/sis/search/r?dbs+hsdb:@term+@rn+@rel+54-04-6
   3. http://toxnet.nlm.nih.gov/cgi-bin/sis/search/r?dbs+hsdb:@term+@rn+@rel+54-04-6
   4. http://toxnet.nlm.nih.gov/cgi-bin/sis/search/r?dbs+hsdb:@term+@rn+@rel+54-04-6
   5. http://toxnet.nlm.nih.gov/cgi-bin/sis/search/r?dbs+hsdb:@term+@rn+@rel+54-04-6
   6. http://toxnet.nlm.nih.gov/cgi-bin/sis/search/r?dbs+hsdb:@term+@rn+@rel+54-04-6
   7. http://toxnet.nlm.nih.gov/cgi-bin/sis/search/r?dbs+hsdb:@term+@rn+@rel+54-04-6
   8. http://toxnet.nlm.nih.gov/cgi-bin/sis/search/r?dbs+hsdb:@term+@rn+@rel+54-04-6
   9. http://toxnet.nlm.nih.gov/cgi-bin/sis/search/r?dbs+hsdb:@term+@rn+@rel+54-04-6
  10. http://pubchem.ncbi.nlm.nih.gov/vw3d/vw3d.cgi?cid=4076
