   Color/Form

     * YELLOW SOLID
     * Yellow crystals

   from [1]HSDB

   Odor
        Phenol-like
   from [2]HSDB

   Melting Point
        125.5-126.5 DEG C
   from [3]HSDB

   Corrosivity
        Corrosive to metals
   from [4]HSDB

   Octanol/Water Partition Coefficient
        3.51 (log P)
   from [5]HSDB

   Solubilities

     * Practically insol in water; 100 g/kg alcohols, glycols, aliphatic
       hydrocarbons; 200 g/kg cyclohexanone, dimethyl sulfoxide, ethyl
       acetate
     * Sol in aqueous alkalis /with the formation of salts/.

   from [6]HSDB

   Vapor Pressure
        1.5x10-6 mbar @ 20 deg C
   from [7]HSDB

   Computed Properties
   Molecular Weight                  240.21268 [g/mol]
   Molecular Formula                 C[10]H[12]N[2]O[5]
   XLogP3                            3.4
   H-Bond Donor                      1
   H-Bond Acceptor                   5
   Rotatable Bond Count              1
   Tautomer Count                    4
   Exact Mass                        240.074621
   MonoIsotopic Mass                 240.074621
   Topological Polar Surface Area    112
   Heavy Atom Count                  17
   Formal Charge                     0
   Complexity                        314
   Isotope Atom Count                0
   Defined Atom Stereocenter Count   0
   Undefined Atom Stereocenter Count 0
   Defined Bond Stereocenter Count   0
   Undefined Bond Stereocenter Count 0
   Covalently-Bonded Unit Count      1
   Feature 3D Acceptor Count         4
   Feature 3D Donor Count            1
   Feature 3D Anion Count            2
   Feature 3D Hydrophobe Count       1
   Feature 3D Ring Count             1
   Effective Rotor Count             3
   Conformer Sampling RMSD           0.6
   CID Conformer Count               [8]1

References

   1. http://toxnet.nlm.nih.gov/cgi-bin/sis/search/r?dbs+hsdb:@term+@rn+@rel+1420-07-1
   2. http://toxnet.nlm.nih.gov/cgi-bin/sis/search/r?dbs+hsdb:@term+@rn+@rel+1420-07-1
   3. http://toxnet.nlm.nih.gov/cgi-bin/sis/search/r?dbs+hsdb:@term+@rn+@rel+1420-07-1
   4. http://toxnet.nlm.nih.gov/cgi-bin/sis/search/r?dbs+hsdb:@term+@rn+@rel+1420-07-1
   5. http://toxnet.nlm.nih.gov/cgi-bin/sis/search/r?dbs+hsdb:@term+@rn+@rel+1420-07-1
   6. http://toxnet.nlm.nih.gov/cgi-bin/sis/search/r?dbs+hsdb:@term+@rn+@rel+1420-07-1
   7. http://toxnet.nlm.nih.gov/cgi-bin/sis/search/r?dbs+hsdb:@term+@rn+@rel+1420-07-1
   8. http://pubchem.ncbi.nlm.nih.gov/vw3d/vw3d.cgi?cid=14994
