   Color/Form
        YELLOW LIQUID
   from [1]HSDB

   Boiling Point
        163 DEG C @ 747 MM HG
   from [2]HSDB

   Density/Specific Gravity
        0.9448 @ 18 DEG C/4 DEG C
   from [3]HSDB

   Octanol/Water Partition Coefficient
        log Kow = 0.04 [Vera A et al; J Pharm Sci 81: 791-6 (1992)]
   [4]PubMed Abstract
   from [5]HSDB

   Solubilities
        SOL IN WATER (30%) & IN ORG SOLVENTS & LIPIDS
   from [6]HSDB

   Spectral Properties
        MAX ABSORPTION (WATER): 230 NM (E= 886, 1%, 1 CM); 335 NM (E= 9,
   1%, 1 CM); PHOTOCHEMICALLY REACTIVE
   from [7]HSDB

   Computed Properties
   Molecular Weight                  88.10842 [g/mol]
   Molecular Formula                 C[3]H[8]N[2]O
   XLogP3-AA                         0.6
   H-Bond Donor                      0
   H-Bond Acceptor                   3
   Rotatable Bond Count              1
   Exact Mass                        88.063663
   MonoIsotopic Mass                 88.063663
   Topological Polar Surface Area    32.7
   Heavy Atom Count                  6
   Formal Charge                     0
   Complexity                        46.1
   Isotope Atom Count                0
   Defined Atom Stereocenter Count   0
   Undefined Atom Stereocenter Count 0
   Defined Bond Stereocenter Count   0
   Undefined Bond Stereocenter Count 0
   Covalently-Bonded Unit Count      1
   Effective Rotor Count             2
   Conformer Sampling RMSD           0.4
   CID Conformer Count               [8]25

References

   1. http://toxnet.nlm.nih.gov/cgi-bin/sis/search/r?dbs+hsdb:@term+@rn+@rel+10595-95-6
   2. http://toxnet.nlm.nih.gov/cgi-bin/sis/search/r?dbs+hsdb:@term+@rn+@rel+10595-95-6
   3. http://toxnet.nlm.nih.gov/cgi-bin/sis/search/r?dbs+hsdb:@term+@rn+@rel+10595-95-6
   4. http://www.ncbi.nlm.nih.gov/entrez/query.fcgi?cmd=Retrieve&db=pubmed&dopt=Abstract&list_uids=1403725
   5. http://toxnet.nlm.nih.gov/cgi-bin/sis/search/r?dbs+hsdb:@term+@rn+@rel+10595-95-6
   6. http://toxnet.nlm.nih.gov/cgi-bin/sis/search/r?dbs+hsdb:@term+@rn+@rel+10595-95-6
   7. http://toxnet.nlm.nih.gov/cgi-bin/sis/search/r?dbs+hsdb:@term+@rn+@rel+10595-95-6
   8. http://pubchem.ncbi.nlm.nih.gov/vw3d/vw3d.cgi?cid=25418
