11954095
  -OEChem-07051213062D

 54 58  0     1  0  0  0  0  0999 V2000
    4.5695   -2.7418    0.0000 O   0  0  0  0  0  0  0  0  0  0  0  0
    5.9525   -3.8657    0.0000 O   0  0  0  0  0  0  0  0  0  0  0  0
    3.8372    4.3239    0.0000 O   0  0  0  0  0  0  0  0  0  0  0  0
    3.7841   -1.8728    0.0000 C   0  0  1  0  0  0  0  0  0  0  0  0
    2.9180   -1.3728    0.0000 C   0  0  2  0  0  0  0  0  0  0  0  0
    2.9180   -0.3728    0.0000 C   0  0  1  0  0  0  0  0  0  0  0  0
    3.7841    0.1272    0.0000 C   0  0  1  0  0  0  0  0  0  0  0  0
    3.5748   -2.8446    0.0000 C   0  0  2  0  0  0  0  0  0  0  0  0
    4.6501   -1.3728    0.0000 C   0  0  0  0  0  0  0  0  0  0  0  0
    2.1810   -2.0399    0.0000 C   0  0  0  0  0  0  0  0  0  0  0  0
    3.8001    1.1687    0.0000 C   0  0  2  0  0  0  0  0  0  0  0  0
    4.6501   -0.3728    0.0000 C   0  0  0  0  0  0  0  0  0  0  0  0
    2.5861   -2.9477    0.0000 C   0  0  0  0  0  0  0  0  0  0  0  0
    2.0080    0.1340    0.0000 C   0  0  0  0  0  0  0  0  0  0  0  0
    2.9021    1.6964    0.0000 C   0  0  2  0  0  0  0  0  0  0  0  0
    2.0000    1.1756    0.0000 C   0  0  0  0  0  0  0  0  0  0  0  0
    4.7689   -2.0464    0.0000 C   0  0  0  0  0  0  0  0  0  0  0  0
    3.3652   -3.8224    0.0000 C   0  0  0  0  0  0  0  0  0  0  0  0
    4.7520    1.6893    0.0000 C   0  0  0  0  0  0  0  0  0  0  0  0
    2.8937    2.7814    0.0000 C   0  0  0  0  0  0  0  0  0  0  0  0
    4.2304   -4.3239    0.0000 C   0  0  0  0  0  0  0  0  0  0  0  0
    4.7688    2.7742    0.0000 C   0  0  0  0  0  0  0  0  0  0  0  0
    4.9747   -3.6561    0.0000 C   0  0  0  0  0  0  0  0  0  0  0  0
    3.8334    3.3239    0.0000 C   0  0  0  0  0  0  0  0  0  0  0  0
    2.1411   -1.0281    0.0000 H   0  0  0  0  0  0  0  0  0  0  0  0
    2.1852   -0.8035    0.0000 H   0  0  0  0  0  0  0  0  0  0  0  0
    4.5234    0.5465    0.0000 H   0  0  0  0  0  0  0  0  0  0  0  0
    4.8621   -1.9554    0.0000 H   0  0  0  0  0  0  0  0  0  0  0  0
    5.2607   -1.2651    0.0000 H   0  0  0  0  0  0  0  0  0  0  0  0
    1.8156   -1.5390    0.0000 H   0  0  0  0  0  0  0  0  0  0  0  0
    1.6445   -2.3507    0.0000 H   0  0  0  0  0  0  0  0  0  0  0  0
    4.5279    0.7296    0.0000 H   0  0  0  0  0  0  0  0  0  0  0  0
    5.2607   -0.4805    0.0000 H   0  0  0  0  0  0  0  0  0  0  0  0
    4.8621    0.2098    0.0000 H   0  0  0  0  0  0  0  0  0  0  0  0
    1.9965   -3.1394    0.0000 H   0  0  0  0  0  0  0  0  0  0  0  0
    2.7149   -3.5542    0.0000 H   0  0  0  0  0  0  0  0  0  0  0  0
    1.3964    0.2354    0.0000 H   0  0  0  0  0  0  0  0  0  0  0  0
    1.8035   -0.4512    0.0000 H   0  0  0  0  0  0  0  0  0  0  0  0
    2.1643    2.1186    0.0000 H   0  0  0  0  0  0  0  0  0  0  0  0
    1.7864    1.7577    0.0000 H   0  0  0  0  0  0  0  0  0  0  0  0
    1.3900    1.0648    0.0000 H   0  0  0  0  0  0  0  0  0  0  0  0
    4.6612   -2.6570    0.0000 H   0  0  0  0  0  0  0  0  0  0  0  0
    5.3794   -2.1541    0.0000 H   0  0  0  0  0  0  0  0  0  0  0  0
    4.8765   -1.4359    0.0000 H   0  0  0  0  0  0  0  0  0  0  0  0
    2.7759   -3.6298    0.0000 H   0  0  0  0  0  0  0  0  0  0  0  0
    3.1121   -4.3884    0.0000 H   0  0  0  0  0  0  0  0  0  0  0  0
    4.9521    1.1025    0.0000 H   0  0  0  0  0  0  0  0  0  0  0  0
    5.3645    1.7860    0.0000 H   0  0  0  0  0  0  0  0  0  0  0  0
    2.6802    3.3635    0.0000 H   0  0  0  0  0  0  0  0  0  0  0  0
    2.2837    2.6706    0.0000 H   0  0  0  0  0  0  0  0  0  0  0  0
    3.8651   -4.8249    0.0000 H   0  0  0  0  0  0  0  0  0  0  0  0
    4.6904   -4.7396    0.0000 H   0  0  0  0  0  0  0  0  0  0  0  0
    5.3779    2.6587    0.0000 H   0  0  0  0  0  0  0  0  0  0  0  0
    4.9868    3.3546    0.0000 H   0  0  0  0  0  0  0  0  0  0  0  0
  8  1  1  1  0  0  0
  1 23  1  0  0  0  0
  2 23  2  0  0  0  0
  3 24  2  0  0  0  0
  4  5  1  0  0  0  0
  4  8  1  0  0  0  0
  4  9  1  0  0  0  0
  4 17  1  1  0  0  0
  5  6  1  0  0  0  0
  5 10  1  0  0  0  0
  5 25  1  6  0  0  0
  6  7  1  0  0  0  0
  6 14  1  0  0  0  0
  6 26  1  1  0  0  0
  7 11  1  0  0  0  0
  7 12  1  0  0  0  0
  7 27  1  6  0  0  0
  8 13  1  0  0  0  0
  8 18  1  0  0  0  0
  9 12  1  0  0  0  0
  9 28  1  0  0  0  0
  9 29  1  0  0  0  0
 10 13  1  0  0  0  0
 10 30  1  0  0  0  0
 10 31  1  0  0  0  0
 11 15  1  0  0  0  0
 11 19  1  0  0  0  0
 11 32  1  1  0  0  0
 12 33  1  0  0  0  0
 12 34  1  0  0  0  0
 13 35  1  0  0  0  0
 13 36  1  0  0  0  0
 14 16  1  0  0  0  0
 14 37  1  0  0  0  0
 14 38  1  0  0  0  0
 15 16  1  0  0  0  0
 15 20  1  0  0  0  0
 15 39  1  1  0  0  0
 16 40  1  0  0  0  0
 16 41  1  0  0  0  0
 17 42  1  0  0  0  0
 17 43  1  0  0  0  0
 17 44  1  0  0  0  0
 18 21  1  0  0  0  0
 18 45  1  0  0  0  0
 18 46  1  0  0  0  0
 19 22  1  0  0  0  0
 19 47  1  0  0  0  0
 19 48  1  0  0  0  0
 20 24  1  0  0  0  0
 20 49  1  0  0  0  0
 20 50  1  0  0  0  0
 21 23  1  0  0  0  0
 21 51  1  0  0  0  0
 21 52  1  0  0  0  0
 22 24  1  0  0  0  0
 22 53  1  0  0  0  0
 22 54  1  0  0  0  0
M  END
> <PUBCHEM_COMPOUND_CID>
11954095

> <PUBCHEM_COMPOUND_CANONICALIZED>
1

> <PUBCHEM_CACTVS_COMPLEXITY>
584

> <PUBCHEM_CACTVS_HBOND_ACCEPTOR>
3

> <PUBCHEM_CACTVS_HBOND_DONOR>
0

> <PUBCHEM_CACTVS_ROTATABLE_BOND>
0

> <PUBCHEM_CACTVS_SUBSKEYS>
AAADceB4MAAAAAAAAAAAAAAAAAAAAaIAAAAwYMAAAAAAAGDAAAAAGgAAAAAAD0SAgAACCAAABAAIAICQCAAAAAAAAAAAAAEAAAAAABIAAAACAAAEAAAAAAGKyPCPgAAAAAAAAACAAAQAACAAAYAADAAAAA==

> <PUBCHEM_IUPAC_OPENEYE_NAME>
(5R,8R,9R,10S,13S,14S,17R)-13-methylspiro[1,2,4,5,6,7,8,9,10,11,12,14,15,16-tetradecahydrocyclopenta[a]phenanthrene-17,5'-tetrahydrofuran]-2',3-dione

> <PUBCHEM_IUPAC_CAS_NAME>
(5R,8R,9R,10S,13S,14S,17R)-13-methylspiro[1,2,4,5,6,7,8,9,10,11,12,14,15,16-tetradecahydrocyclopenta[a]phenanthrene-17,5'-oxolane]-2',3-dione

> <PUBCHEM_IUPAC_NAME>
(5R,8R,9R,10S,13S,14S,17R)-13-methylspiro[1,2,4,5,6,7,8,9,10,11,12,14,15,16-tetradecahydrocyclopenta[a]phenanthrene-17,5'-oxolane]-2',3-dione

> <PUBCHEM_IUPAC_SYSTEMATIC_NAME>
(5R,8R,9R,10S,13S,14S,17R)-13-methylspiro[1,2,4,5,6,7,8,9,10,11,12,14,15,16-tetradecahydrocyclopenta[a]phenanthrene-17,5'-oxolane]-2',3-dione

> <PUBCHEM_IUPAC_TRADITIONAL_NAME>
(5R,8R,9R,10S,13S,14S,17R)-13-methylspiro[1,2,4,5,6,7,8,9,10,11,12,14,15,16-tetradecahydrocyclopenta[a]phenanthrene-17,5'-tetrahydrofuran]-2',3-quinone

> <PUBCHEM_IUPAC_INCHI>
InChI=1S/C21H30O3/c1-20-9-6-16-15-5-3-14(22)12-13(15)2-4-17(16)18(20)7-10-21(20)11-8-19(23)24-21/h13,15-18H,2-12H2,1H3/t13-,15+,16-,17-,18+,20+,21-/m1/s1

> <PUBCHEM_IUPAC_INCHIKEY>
JSXFOYUNEYPEME-PEPVMSLBSA-N

> <PUBCHEM_XLOGP3_AA>
3.8

> <PUBCHEM_EXACT_MASS>
330.219495

> <PUBCHEM_MOLECULAR_FORMULA>
C21H30O3

> <PUBCHEM_MOLECULAR_WEIGHT>
330.4611

> <PUBCHEM_OPENEYE_CAN_SMILES>
CC12CCC3C(C1CCC24CCC(=O)O4)CCC5C3CCC(=O)C5

> <PUBCHEM_OPENEYE_ISO_SMILES>
C[C@]12CC[C@H]3[C@H]([C@@H]1CC[C@@]24CCC(=O)O4)CC[C@H]5[C@@H]3CCC(=O)C5

> <PUBCHEM_CACTVS_TPSA>
43.4

> <PUBCHEM_MONOISOTOPIC_WEIGHT>
330.219495

> <PUBCHEM_TOTAL_CHARGE>
0

> <PUBCHEM_HEAVY_ATOM_COUNT>
24

> <PUBCHEM_ATOM_DEF_STEREO_COUNT>
7

> <PUBCHEM_ATOM_UDEF_STEREO_COUNT>
0

> <PUBCHEM_BOND_DEF_STEREO_COUNT>
0

> <PUBCHEM_BOND_UDEF_STEREO_COUNT>
0

> <PUBCHEM_ISOTOPIC_ATOM_COUNT>
0

> <PUBCHEM_COMPONENT_COUNT>
1

> <PUBCHEM_CACTVS_TAUTO_COUNT>
6

> <PUBCHEM_COORDINATE_TYPE>
1
5
255

> <PUBCHEM_BONDANNOTATIONS>
8  1  5
11  32  5
15  39  5
4  17  5
5  25  6
6  26  5
7  27  6

$$$$

