   Color/Form

     * Viscous liquid
     * Colorless
     * Pale-yellow

   from [1]HSDB

   Odor
        Slight ammonical odor
   from [2]HSDB

   Boiling Point
        335.4 de C @ 760 mm Hg
   from [3]HSDB

   Melting Point
        20.5 deg C
   from [4]HSDB

   Critical Temperature and Pressure
        Critical temperature = 514.3 deg C; critical pressure = 24.2 mm Hg
   from [5]HSDB

   Density/Specific Gravity
        1.1242 @ 20 deg C/4 deg C; 1.0985 @ 60 deg C/4 deg C
   from [6]HSDB

   Dissociation Constants
        pKa = 7.76 @ 25 deg C
   from [7]HSDB

   Heat of Vaporization
        16.127 kcal/mol @ boiling point
   from [8]HSDB

   Octanol/Water Partition Coefficient
        log Kow = -1.00
   from [9]HSDB

   pH
        pH = 10.5 (0.1 N aqueous solution); strong base
   from [10]HSDB

   Solubilities

     * Miscible in methanol, acetone; soluble in benzene (4.2%), ether
       (1.6%), carbon tetrachloride (0.4%), n-heptane (<0.1%).
     * Sol in chloroform
     * SLIGHTLY SOL IN PETROLEUM ETHER
     * Miscible in water

   from [11]HSDB

   Spectral Properties

     * Index of refraction: 1.4852 @ 20 deg C
     * IR: 6371 (Coblentz Society Spectral Collection)
     * NMR: 7209 (Sadtler Research Laboratories Spectral Collection)
     * MASS: 4612 (NIST/EPA/MSDC Mass Spectral Database, 1990 version);
       103 (Aldermaston, Eight Peak Index of Mass Spectra, UK)

   from [12]HSDB

   Surface Tension
        0.0484 N/m @ 20 deg C
   from [13]HSDB

   Vapor Density
        5.1 (Air= 1)
   from [14]HSDB

   Vapor Pressure
        3.59X10-6 mm Hg @ 25 deg C /Extrapolated/
   from [15]HSDB

   Viscosity
        590.5 cP @ 25 deg C; 65.7 cP @ 60 deg C
   from [16]HSDB

   Other Chemical/Physical Properties

     * Crystals from ethanol; mp: 177 deg C /Triethanolamine
       hydrochloride/
     * Heat of fusion = 6.500 kcal/mol
     * Heat capacity = 74.1 cal/K-mol
     * Hydroscopic; vapor pressure: 10 mm Hg @ 205 deg C
     * Slightly less alkaline than ammonia.
     * One gallon weighs 9.37 lbs; turns brown on exposure to air and
       light.
     * Henry's Law constant: 7.05X10-13 atm-cu m/mole @ 25 deg C
       /Estimated/
     * Hydroxyl radical reaction rate constant: 1.11X10-10 cu
       cm/molecule-sec @ 25 deg C /Estimated/

   from [17]HSDB

   Computed Properties
   Molecular Weight                  149.1882 [g/mol]
   Molecular Formula                 C[6]H[15]NO[3]
   XLogP3                            -1
   H-Bond Donor                      3
   H-Bond Acceptor                   4
   Rotatable Bond Count              6
   Exact Mass                        149.105193
   MonoIsotopic Mass                 149.105193
   Topological Polar Surface Area    63.9
   Heavy Atom Count                  10
   Formal Charge                     0
   Complexity                        55.7
   Isotope Atom Count                0
   Defined Atom Stereocenter Count   0
   Undefined Atom Stereocenter Count 0
   Defined Bond Stereocenter Count   0
   Undefined Bond Stereocenter Count 0
   Covalently-Bonded Unit Count      1
   Feature 3D Acceptor Count         3
   Feature 3D Donor Count            3
   Feature 3D Cation Count           1
   Effective Rotor Count             6
   Conformer Sampling RMSD           0.6
   CID Conformer Count               [18]30

References

   1. http://toxnet.nlm.nih.gov/cgi-bin/sis/search/r?dbs+hsdb:@term+@rn+@rel+102-71-6
   2. http://toxnet.nlm.nih.gov/cgi-bin/sis/search/r?dbs+hsdb:@term+@rn+@rel+102-71-6
   3. http://toxnet.nlm.nih.gov/cgi-bin/sis/search/r?dbs+hsdb:@term+@rn+@rel+102-71-6
   4. http://toxnet.nlm.nih.gov/cgi-bin/sis/search/r?dbs+hsdb:@term+@rn+@rel+102-71-6
   5. http://toxnet.nlm.nih.gov/cgi-bin/sis/search/r?dbs+hsdb:@term+@rn+@rel+102-71-6
   6. http://toxnet.nlm.nih.gov/cgi-bin/sis/search/r?dbs+hsdb:@term+@rn+@rel+102-71-6
   7. http://toxnet.nlm.nih.gov/cgi-bin/sis/search/r?dbs+hsdb:@term+@rn+@rel+102-71-6
   8. http://toxnet.nlm.nih.gov/cgi-bin/sis/search/r?dbs+hsdb:@term+@rn+@rel+102-71-6
   9. http://toxnet.nlm.nih.gov/cgi-bin/sis/search/r?dbs+hsdb:@term+@rn+@rel+102-71-6
  10. http://toxnet.nlm.nih.gov/cgi-bin/sis/search/r?dbs+hsdb:@term+@rn+@rel+102-71-6
  11. http://toxnet.nlm.nih.gov/cgi-bin/sis/search/r?dbs+hsdb:@term+@rn+@rel+102-71-6
  12. http://toxnet.nlm.nih.gov/cgi-bin/sis/search/r?dbs+hsdb:@term+@rn+@rel+102-71-6
  13. http://toxnet.nlm.nih.gov/cgi-bin/sis/search/r?dbs+hsdb:@term+@rn+@rel+102-71-6
  14. http://toxnet.nlm.nih.gov/cgi-bin/sis/search/r?dbs+hsdb:@term+@rn+@rel+102-71-6
  15. http://toxnet.nlm.nih.gov/cgi-bin/sis/search/r?dbs+hsdb:@term+@rn+@rel+102-71-6
  16. http://toxnet.nlm.nih.gov/cgi-bin/sis/search/r?dbs+hsdb:@term+@rn+@rel+102-71-6
  17. http://toxnet.nlm.nih.gov/cgi-bin/sis/search/r?dbs+hsdb:@term+@rn+@rel+102-71-6
  18. http://pubchem.ncbi.nlm.nih.gov/vw3d/vw3d.cgi?cid=7618
