53297396
  -OEChem-07051213122D

 57 61  0     1  0  0  0  0  0999 V2000
    3.4056    3.2022    0.0000 O   0  0  0  0  0  0  0  0  0  0  0  0
    4.2889    1.7123    0.0000 O   0  0  0  0  0  0  0  0  0  0  0  0
    5.9861    4.7322    0.0000 O   0  0  0  0  0  0  0  0  0  0  0  0
    4.2426    5.7121    0.0000 O   0  0  0  0  0  0  0  0  0  0  0  0
    2.5405   -1.3160    0.0000 O   0  0  0  0  0  0  0  0  0  0  0  0
    3.4446    0.1809    0.0000 O   0  0  0  0  0  0  0  0  0  0  0  0
    6.9088   -1.8191    0.0000 O   0  0  0  0  0  0  0  0  0  0  0  0
    7.0009   -2.8647    0.0000 O   0  0  0  0  0  0  0  0  0  0  0  0
    5.1259    4.2222    0.0000 C   0  0  1  0  0  0  0  0  0  0  0  0
    4.2542    4.7121    0.0000 C   0  0  1  0  0  0  0  0  0  0  0  0
    5.1375    3.2222    0.0000 C   0  0  0  0  0  0  0  0  0  0  0  0
    3.3940    4.2021    0.0000 C   0  0  1  0  0  0  0  0  0  0  0  0
    4.2773    2.7123    0.0000 C   0  0  1  0  0  0  0  0  0  0  0  0
    3.4007   -1.8260    0.0000 C   0  0  1  0  0  0  0  0  0  0  0  0
    4.3107   -1.3191    0.0000 C   0  0  0  0  0  0  0  0  0  0  0  0
    5.1767   -1.8191    0.0000 C   0  0  0  0  0  0  0  0  0  0  0  0
    3.3926   -2.8676    0.0000 C   0  0  0  0  0  0  0  0  0  0  0  0
    5.1928   -2.8606    0.0000 C   0  0  0  0  0  0  0  0  0  0  0  0
    4.2947   -3.3884    0.0000 C   0  0  0  0  0  0  0  0  0  0  0  0
    5.1767    0.1809    0.0000 C   0  0  0  0  0  0  0  0  0  0  0  0
    2.5223    4.6921    0.0000 C   0  0  0  0  0  0  0  0  0  0  0  0
    4.3107   -0.3191    0.0000 C   0  0  0  0  0  0  0  0  0  0  0  0
    5.1606    1.2224    0.0000 C   0  0  0  0  0  0  0  0  0  0  0  0
    6.0427   -0.3191    0.0000 C   0  0  0  0  0  0  0  0  0  0  0  0
    6.0427   -1.3191    0.0000 C   0  0  0  0  0  0  0  0  0  0  0  0
    4.2864   -4.4734    0.0000 C   0  0  0  0  0  0  0  0  0  0  0  0
    6.1447   -3.3812    0.0000 C   0  0  0  0  0  0  0  0  0  0  0  0
    6.0587    1.7501    0.0000 C   0  0  0  0  0  0  0  0  0  0  0  0
    6.9527    0.1877    0.0000 C   0  0  0  0  0  0  0  0  0  0  0  0
    5.2260   -5.0158    0.0000 C   0  0  0  0  0  0  0  0  0  0  0  0
    6.1614   -4.4661    0.0000 C   0  0  0  0  0  0  0  0  0  0  0  0
    6.9608    1.2293    0.0000 C   0  0  0  0  0  0  0  0  0  0  0  0
    5.2298   -6.0158    0.0000 C   0  0  0  0  0  0  0  0  0  0  0  0
    5.6664    3.9184    0.0000 H   0  0  0  0  0  0  0  0  0  0  0  0
    3.7137    5.0159    0.0000 H   0  0  0  0  0  0  0  0  0  0  0  0
    5.3563    2.6421    0.0000 H   0  0  0  0  0  0  0  0  0  0  0  0
    5.7468    3.3370    0.0000 H   0  0  0  0  0  0  0  0  0  0  0  0
    2.8607    3.8860    0.0000 H   0  0  0  0  0  0  0  0  0  0  0  0
    3.7440    2.3961    0.0000 H   0  0  0  0  0  0  0  0  0  0  0  0
    2.8608   -2.1308    0.0000 H   0  0  0  0  0  0  0  0  0  0  0  0
    2.7826   -2.7568    0.0000 H   0  0  0  0  0  0  0  0  0  0  0  0
    3.1791   -3.4496    0.0000 H   0  0  0  0  0  0  0  0  0  0  0  0
    2.8260    5.2326    0.0000 H   0  0  0  0  0  0  0  0  0  0  0  0
    1.9818    4.9959    0.0000 H   0  0  0  0  0  0  0  0  0  0  0  0
    2.2185    4.1516    0.0000 H   0  0  0  0  0  0  0  0  0  0  0  0
    3.7482   -4.7813    0.0000 H   0  0  0  0  0  0  0  0  0  0  0  0
    5.9790    5.3521    0.0000 H   0  0  0  0  0  0  0  0  0  0  0  0
    3.7022    6.0158    0.0000 H   0  0  0  0  0  0  0  0  0  0  0  0
    7.4860   -0.1285    0.0000 H   0  0  0  0  0  0  0  0  0  0  0  0
    6.0563    2.3701    0.0000 H   0  0  0  0  0  0  0  0  0  0  0  0
    6.7019   -4.7699    0.0000 H   0  0  0  0  0  0  0  0  0  0  0  0
    2.0000   -1.6198    0.0000 H   0  0  0  0  0  0  0  0  0  0  0  0
    7.4989    1.5372    0.0000 H   0  0  0  0  0  0  0  0  0  0  0  0
    4.6098   -6.0182    0.0000 H   0  0  0  0  0  0  0  0  0  0  0  0
    5.2322   -6.6358    0.0000 H   0  0  0  0  0  0  0  0  0  0  0  0
    5.8498   -6.0134    0.0000 H   0  0  0  0  0  0  0  0  0  0  0  0
    7.5437   -3.1642    0.0000 H   0  0  0  0  0  0  0  0  0  0  0  0
  1 12  1  0  0  0  0
  1 13  1  0  0  0  0
 13  2  1  6  0  0  0
  2 23  1  0  0  0  0
  9  3  1  6  0  0  0
  3 47  1  0  0  0  0
 10  4  1  1  0  0  0
  4 48  1  0  0  0  0
 14  5  1  1  0  0  0
  5 52  1  0  0  0  0
  6 22  2  0  0  0  0
  7 25  2  0  0  0  0
  8 27  1  0  0  0  0
  8 57  1  0  0  0  0
  9 10  1  0  0  0  0
  9 11  1  0  0  0  0
  9 34  1  0  0  0  0
 10 12  1  0  0  0  0
 10 35  1  0  0  0  0
 11 13  1  0  0  0  0
 11 36  1  0  0  0  0
 11 37  1  0  0  0  0
 12 21  1  6  0  0  0
 12 38  1  0  0  0  0
 13 39  1  0  0  0  0
 14 15  1  0  0  0  0
 14 17  1  0  0  0  0
 14 40  1  0  0  0  0
 15 16  2  0  0  0  0
 15 22  1  0  0  0  0
 16 18  1  0  0  0  0
 16 25  1  0  0  0  0
 17 19  1  0  0  0  0
 17 41  1  0  0  0  0
 17 42  1  0  0  0  0
 18 19  2  0  0  0  0
 18 27  1  0  0  0  0
 19 26  1  0  0  0  0
 20 22  1  0  0  0  0
 20 23  1  0  0  0  0
 20 24  2  0  0  0  0
 21 43  1  0  0  0  0
 21 44  1  0  0  0  0
 21 45  1  0  0  0  0
 23 28  2  0  0  0  0
 24 25  1  0  0  0  0
 24 29  1  0  0  0  0
 26 30  2  0  0  0  0
 26 46  1  0  0  0  0
 27 31  2  0  0  0  0
 28 32  1  0  0  0  0
 28 50  1  0  0  0  0
 29 32  2  0  0  0  0
 29 49  1  0  0  0  0
 30 31  1  0  0  0  0
 30 33  1  0  0  0  0
 31 51  1  0  0  0  0
 32 53  1  0  0  0  0
 33 54  1  0  0  0  0
 33 55  1  0  0  0  0
 33 56  1  0  0  0  0
M  END
> <PUBCHEM_COMPOUND_CID>
53297396

> <PUBCHEM_COMPOUND_CANONICALIZED>
1

> <PUBCHEM_CACTVS_COMPLEXITY>
838

> <PUBCHEM_CACTVS_HBOND_ACCEPTOR>
8

> <PUBCHEM_CACTVS_HBOND_DONOR>
4

> <PUBCHEM_CACTVS_ROTATABLE_BOND>
2

> <PUBCHEM_CACTVS_SUBSKEYS>
AAADceB4PAAAAAAAAAAAAAAAAAAAAAAAAAA0YIECAAAAAADBQAAAGgAACAAADBSwmAMyDoAABgCIAqBSAAACCAAkIAAIiAEGCMgdNjaGNRqieWCl4BEPuYfL6PyOwAADAAAYAACAAAYAADAAAAAAAAAAAA==

> <PUBCHEM_IUPAC_OPENEYE_NAME>
(6R)-8-[(2S,4R,5S,6R)-4,5-dihydroxy-6-methyl-tetrahydropyran-2-yl]oxy-1,6-dihydroxy-3-methyl-5,6-dihydrobenzo[a]anthracene-7,12-dione

> <PUBCHEM_IUPAC_CAS_NAME>
(6R)-8-[[(2S,4R,5S,6R)-4,5-dihydroxy-6-methyl-2-oxanyl]oxy]-1,6-dihydroxy-3-methyl-5,6-dihydrobenzo[a]anthracene-7,12-dione

> <PUBCHEM_IUPAC_NAME>
(6R)-8-[(2S,4R,5S,6R)-4,5-dihydroxy-6-methyloxan-2-yl]oxy-1,6-dihydroxy-3-methyl-5,6-dihydrobenzo[a]anthracene-7,12-dione

> <PUBCHEM_IUPAC_SYSTEMATIC_NAME>
(6R)-3-methyl-8-[(2S,4R,5S,6R)-6-methyl-4,5-bis(oxidanyl)oxan-2-yl]oxy-1,6-bis(oxidanyl)-5,6-dihydrobenzo[a]anthracene-7,12-dione

> <PUBCHEM_IUPAC_TRADITIONAL_NAME>
(6R)-8-[(2S,4R,5S,6R)-4,5-dihydroxy-6-methyl-tetrahydropyran-2-yl]oxy-1,6-dihydroxy-3-methyl-5,6-dihydrobenz[a]anthracene-7,12-quinone

> <PUBCHEM_IUPAC_INCHI>
InChI=1S/C25H24O8/c1-10-6-12-8-15(27)21-22(19(12)14(26)7-10)24(30)13-4-3-5-17(20(13)25(21)31)33-18-9-16(28)23(29)11(2)32-18/h3-7,11,15-16,18,23,26-29H,8-9H2,1-2H3/t11-,15-,16-,18+,23-/m1/s1

> <PUBCHEM_IUPAC_INCHIKEY>
KQMFSFYTGVMRPL-PJLSVRSMSA-N

> <PUBCHEM_XLOGP3_AA>
1.6

> <PUBCHEM_EXACT_MASS>
452.147118

> <PUBCHEM_MOLECULAR_FORMULA>
C25H24O8

> <PUBCHEM_MOLECULAR_WEIGHT>
452.45326

> <PUBCHEM_OPENEYE_CAN_SMILES>
CC1C(C(CC(O1)OC2=CC=CC3=C2C(=O)C4=C(C3=O)C5=C(C=C(C=C5CC4O)C)O)O)O

> <PUBCHEM_OPENEYE_ISO_SMILES>
C[C@@H]1[C@H]([C@@H](C[C@@H](O1)OC2=CC=CC3=C2C(=O)C4=C(C3=O)C5=C(C=C(C=C5C[C@H]4O)C)O)O)O

> <PUBCHEM_CACTVS_TPSA>
134

> <PUBCHEM_MONOISOTOPIC_WEIGHT>
452.147118

> <PUBCHEM_TOTAL_CHARGE>
0

> <PUBCHEM_HEAVY_ATOM_COUNT>
33

> <PUBCHEM_ATOM_DEF_STEREO_COUNT>
5

> <PUBCHEM_ATOM_UDEF_STEREO_COUNT>
0

> <PUBCHEM_BOND_DEF_STEREO_COUNT>
0

> <PUBCHEM_BOND_UDEF_STEREO_COUNT>
0

> <PUBCHEM_ISOTOPIC_ATOM_COUNT>
0

> <PUBCHEM_COMPONENT_COUNT>
1

> <PUBCHEM_CACTVS_TAUTO_COUNT>
33

> <PUBCHEM_COORDINATE_TYPE>
1
5
255

> <PUBCHEM_BONDANNOTATIONS>
12  21  6
18  19  8
18  27  8
19  26  8
13  2  6
20  23  8
20  24  8
23  28  8
24  29  8
26  30  8
27  31  8
28  32  8
29  32  8
9  3  6
30  31  8
10  4  5
14  5  5

$$$$

