442103
  -OEChem-07051212572D

 88 97  0     1  0  0  0  0  0999 V2000
   10.3598   -1.0026    0.0000 O   0  0  0  0  0  0  0  0  0  0  0  0
   12.2432   -2.0832    0.0000 O   0  0  0  0  0  0  0  0  0  0  0  0
    7.0350    3.2641    0.0000 O   0  0  0  0  0  0  0  0  0  0  0  0
    5.3595    2.2968    0.0000 O   0  0  0  0  0  0  0  0  0  0  0  0
    4.4111   -1.6082    0.0000 O   0  0  0  0  0  0  0  0  0  0  0  0
    3.6323   -3.4866    0.0000 O   0  0  0  0  0  0  0  0  0  0  0  0
    5.1230   -3.3810    0.0000 O   0  0  0  0  0  0  0  0  0  0  0  0
   10.2730   -0.5400    0.0000 N   0  0  3  0  0  0  0  0  0  0  0  0
    8.6540    2.2641    0.0000 N   0  0  3  0  0  0  0  0  0  0  0  0
    3.8898   -1.5533    0.0000 N   0  0  0  0  0  0  0  0  0  0  0  0
    2.9659    0.0469    0.0000 N   0  0  3  0  0  0  0  0  0  0  0  0
   10.2730    0.3947    0.0000 C   0  0  2  0  0  0  0  0  0  0  0  0
    9.4635    0.8620    0.0000 C   0  0  2  0  0  0  0  0  0  0  0  0
   11.0824    0.8620    0.0000 C   0  0  1  0  0  0  0  0  0  0  0  0
    9.4635    1.7967    0.0000 C   0  0  1  0  0  0  0  0  0  0  0  0
    8.5305    0.2700    0.0000 C   0  0  0  0  0  0  0  0  0  0  0  0
    9.4635   -1.0074    0.0000 C   0  0  0  0  0  0  0  0  0  0  0  0
    7.8445    0.8620    0.0000 C   0  0  0  0  0  0  0  0  0  0  0  0
   11.8919    0.3947    0.0000 C   0  0  0  0  0  0  0  0  0  0  0  0
   12.2492    0.0882    0.0000 C   0  0  0  0  0  0  0  0  0  0  0  0
   11.0824    1.7967    0.0000 C   0  0  0  0  0  0  0  0  0  0  0  0
   11.0824   -1.0074    0.0000 C   0  0  0  0  0  0  0  0  0  0  0  0
   11.8919   -0.5400    0.0000 C   0  0  0  0  0  0  0  0  0  0  0  0
   10.2730    2.2641    0.0000 C   0  0  0  0  0  0  0  0  0  0  0  0
    7.8445    1.7967    0.0000 C   0  0  0  0  0  0  0  0  0  0  0  0
   11.7432   -1.2172    0.0000 C   0  0  0  0  0  0  0  0  0  0  0  0
    7.0350    0.3947    0.0000 C   0  0  0  0  0  0  0  0  0  0  0  0
    6.2255    0.8620    0.0000 C   0  0  0  0  0  0  0  0  0  0  0  0
    7.0350    2.2641    0.0000 C   0  0  0  0  0  0  0  0  0  0  0  0
    8.6540    3.2641    0.0000 C   0  0  0  0  0  0  0  0  0  0  0  0
    5.3595    0.3620    0.0000 C   0  0  2  0  0  0  0  0  0  0  0  0
    6.2255    1.7967    0.0000 C   0  0  0  0  0  0  0  0  0  0  0  0
    3.0964   -0.9445    0.0000 C   0  0  2  0  0  0  0  0  0  0  0  0
    4.5661    0.9708    0.0000 C   0  0  0  0  0  0  0  0  0  0  0  0
    4.4110   -0.6082    0.0000 C   0  0  0  0  0  0  0  0  0  0  0  0
    5.4900   -0.6294    0.0000 C   0  0  0  0  0  0  0  0  0  0  0  0
    3.5747    0.8403    0.0000 C   0  0  0  0  0  0  0  0  0  0  0  0
    2.2787   -1.5097    0.0000 C   0  0  0  0  0  0  0  0  0  0  0  0
    4.8812   -1.4228    0.0000 C   0  0  0  0  0  0  0  0  0  0  0  0
    2.5618   -2.4626    0.0000 C   0  0  0  0  0  0  0  0  0  0  0  0
    3.5555   -2.4895    0.0000 C   0  0  0  0  0  0  0  0  0  0  0  0
    6.5247   -0.7494    0.0000 C   0  0  0  0  0  0  0  0  0  0  0  0
    2.0000    0.3057    0.0000 C   0  0  0  0  0  0  0  0  0  0  0  0
    5.2650   -2.3912    0.0000 C   0  0  0  0  0  0  0  0  0  0  0  0
    7.9010    3.7641    0.0000 C   0  0  0  0  0  0  0  0  0  0  0  0
    6.9307   -1.7087    0.0000 C   0  0  0  0  0  0  0  0  0  0  0  0
    5.3595    3.2968    0.0000 C   0  0  0  0  0  0  0  0  0  0  0  0
    6.2966   -2.5351    0.0000 C   0  0  0  0  0  0  0  0  0  0  0  0
    9.4635    2.6467    0.0000 H   0  0  0  0  0  0  0  0  0  0  0  0
    8.1870    0.7862    0.0000 H   0  0  0  0  0  0  0  0  0  0  0  0
    8.0220   -0.0846    0.0000 H   0  0  0  0  0  0  0  0  0  0  0  0
    8.9500   -1.3550    0.0000 H   0  0  0  0  0  0  0  0  0  0  0  0
    9.7924   -1.5329    0.0000 H   0  0  0  0  0  0  0  0  0  0  0  0
   12.5025    0.2870    0.0000 H   0  0  0  0  0  0  0  0  0  0  0  0
   12.1040    0.9773    0.0000 H   0  0  0  0  0  0  0  0  0  0  0  0
   12.8096   -0.1768    0.0000 H   0  0  0  0  0  0  0  0  0  0  0  0
   12.5538    0.6282    0.0000 H   0  0  0  0  0  0  0  0  0  0  0  0
   11.6194    2.1067    0.0000 H   0  0  0  0  0  0  0  0  0  0  0  0
   10.6839   -1.4824    0.0000 H   0  0  0  0  0  0  0  0  0  0  0  0
   11.4810   -1.4824    0.0000 H   0  0  0  0  0  0  0  0  0  0  0  0
   12.1040   -1.1227    0.0000 H   0  0  0  0  0  0  0  0  0  0  0  0
   12.5025   -0.4324    0.0000 H   0  0  0  0  0  0  0  0  0  0  0  0
   10.2730    2.8841    0.0000 H   0  0  0  0  0  0  0  0  0  0  0  0
    7.0350   -0.2253    0.0000 H   0  0  0  0  0  0  0  0  0  0  0  0
    9.2740    3.2641    0.0000 H   0  0  0  0  0  0  0  0  0  0  0  0
    8.6540    3.8841    0.0000 H   0  0  0  0  0  0  0  0  0  0  0  0
    8.0340    3.2641    0.0000 H   0  0  0  0  0  0  0  0  0  0  0  0
    5.0580    1.3482    0.0000 H   0  0  0  0  0  0  0  0  0  0  0  0
    4.3289    1.5436    0.0000 H   0  0  0  0  0  0  0  0  0  0  0  0
    3.6556    1.4550    0.0000 H   0  0  0  0  0  0  0  0  0  0  0  0
    3.0019    1.0775    0.0000 H   0  0  0  0  0  0  0  0  0  0  0  0
    1.9817   -0.9654    0.0000 H   0  0  0  0  0  0  0  0  0  0  0  0
    1.7062   -1.7478    0.0000 H   0  0  0  0  0  0  0  0  0  0  0  0
    1.9522   -2.5758    0.0000 H   0  0  0  0  0  0  0  0  0  0  0  0
    2.6103   -3.0807    0.0000 H   0  0  0  0  0  0  0  0  0  0  0  0
    6.8964   -0.2532    0.0000 H   0  0  0  0  0  0  0  0  0  0  0  0
    2.1605    0.9046    0.0000 H   0  0  0  0  0  0  0  0  0  0  0  0
    1.4011    0.4662    0.0000 H   0  0  0  0  0  0  0  0  0  0  0  0
    1.8395   -0.2931    0.0000 H   0  0  0  0  0  0  0  0  0  0  0  0
    8.2110    3.2272    0.0000 H   0  0  0  0  0  0  0  0  0  0  0  0
    8.4380    4.0741    0.0000 H   0  0  0  0  0  0  0  0  0  0  0  0
    7.5910    4.3010    0.0000 H   0  0  0  0  0  0  0  0  0  0  0  0
    7.5457   -1.7872    0.0000 H   0  0  0  0  0  0  0  0  0  0  0  0
    5.9795    3.2967    0.0000 H   0  0  0  0  0  0  0  0  0  0  0  0
    5.3595    3.9168    0.0000 H   0  0  0  0  0  0  0  0  0  0  0  0
    4.7395    3.2968    0.0000 H   0  0  0  0  0  0  0  0  0  0  0  0
    6.5317   -3.1088    0.0000 H   0  0  0  0  0  0  0  0  0  0  0  0
    5.6105   -3.7641    0.0000 H   0  0  0  0  0  0  0  0  0  0  0  0
 12  1  1  6  0  0  0
  1 26  1  0  0  0  0
  2 26  2  0  0  0  0
  3 29  1  0  0  0  0
  3 45  1  0  0  0  0
  4 32  1  0  0  0  0
  4 47  1  0  0  0  0
  5 35  2  0  0  0  0
  6 41  2  0  0  0  0
  7 44  1  0  0  0  0
  7 88  1  0  0  0  0
  8 12  1  0  0  0  0
  8 17  1  0  0  0  0
  8 22  1  0  0  0  0
  9 15  1  0  0  0  0
  9 25  1  0  0  0  0
  9 30  1  0  0  0  0
 10 33  1  0  0  0  0
 10 39  1  0  0  0  0
 10 41  1  0  0  0  0
 11 33  1  0  0  0  0
 11 37  1  0  0  0  0
 11 43  1  0  0  0  0
 12 13  1  0  0  0  0
 12 14  1  0  0  0  0
 13 15  1  0  0  0  0
 13 16  1  1  0  0  0
 13 18  1  0  0  0  0
 14 19  1  1  0  0  0
 14 20  1  0  0  0  0
 14 21  1  0  0  0  0
 15 24  1  0  0  0  0
 15 49  1  1  0  0  0
 16 17  1  0  0  0  0
 16 50  1  0  0  0  0
 16 51  1  0  0  0  0
 17 52  1  0  0  0  0
 17 53  1  0  0  0  0
 18 25  1  0  0  0  0
 18 27  2  0  0  0  0
 19 23  1  0  0  0  0
 19 54  1  0  0  0  0
 19 55  1  0  0  0  0
 20 26  1  0  0  0  0
 20 56  1  0  0  0  0
 20 57  1  0  0  0  0
 21 24  2  0  0  0  0
 21 58  1  0  0  0  0
 22 23  1  0  0  0  0
 22 59  1  0  0  0  0
 22 60  1  0  0  0  0
 23 61  1  0  0  0  0
 23 62  1  0  0  0  0
 24 63  1  0  0  0  0
 25 29  2  0  0  0  0
 27 28  1  0  0  0  0
 27 64  1  0  0  0  0
 31 28  1  1  0  0  0
 28 32  2  0  0  0  0
 29 32  1  0  0  0  0
 30 65  1  0  0  0  0
 30 66  1  0  0  0  0
 30 67  1  0  0  0  0
 31 34  1  0  0  0  0
 31 35  1  0  0  0  0
 31 36  1  0  0  0  0
 33 35  1  0  0  0  0
 33 38  1  1  0  0  0
 34 37  1  0  0  0  0
 34 68  1  0  0  0  0
 34 69  1  0  0  0  0
 36 39  2  0  0  0  0
 36 42  1  0  0  0  0
 37 70  1  0  0  0  0
 37 71  1  0  0  0  0
 38 40  1  0  0  0  0
 38 72  1  0  0  0  0
 38 73  1  0  0  0  0
 39 44  1  0  0  0  0
 40 41  1  0  0  0  0
 40 74  1  0  0  0  0
 40 75  1  0  0  0  0
 42 46  2  0  0  0  0
 42 76  1  0  0  0  0
 43 77  1  0  0  0  0
 43 78  1  0  0  0  0
 43 79  1  0  0  0  0
 44 48  2  0  0  0  0
 45 80  1  0  0  0  0
 45 81  1  0  0  0  0
 45 82  1  0  0  0  0
 46 48  1  0  0  0  0
 46 83  1  0  0  0  0
 47 84  1  0  0  0  0
 47 85  1  0  0  0  0
 47 86  1  0  0  0  0
 48 87  1  0  0  0  0
M  END
> <PUBCHEM_COMPOUND_CID>
442103

> <PUBCHEM_COMPOUND_CANONICALIZED>
1

> <PUBCHEM_CACTVS_COMPLEXITY>
1510

> <PUBCHEM_CACTVS_HBOND_ACCEPTOR>
10

> <PUBCHEM_CACTVS_HBOND_DONOR>
1

> <PUBCHEM_CACTVS_ROTATABLE_BOND>
3

> <PUBCHEM_CACTVS_SUBSKEYS>
AAADcfB/uAAAAAAAAAAAAAAAAAAAAWLFiQA8eLECAAAWAFixQAAAHgAACAAADizBmAYzzoMABgCIAqXSWACCCAAhIAAIiAGPzIiPJjLW9buPcCpuxRva+Ce+///vqAADAgAKUABQAAYEABSgAAAAAAAAAA==

> <PUBCHEM_IUPAC_INCHI>
InChI=1S/C37H40N4O7/c1-38-17-14-34(21-7-5-8-24(42)28(21)41-26(43)10-13-36(38,41)32(34)45)23-19-22-29(31(47-4)30(23)46-3)39(2)25-9-12-33-11-6-16-40-18-15-35(22,25)37(33,40)48-27(44)20-33/h5,7-9,12,19,25,42H,6,10-11,13-18,20H2,1-4H3/t25-,33-,34-,35-,36+,37+/m1/s1

> <PUBCHEM_IUPAC_INCHIKEY>
SFSFAWRKKRGBKI-ZLEWMSNTSA-N

> <PUBCHEM_XLOGP3_AA>
2.8

> <PUBCHEM_EXACT_MASS>
652.2897

> <PUBCHEM_MOLECULAR_FORMULA>
C37H40N4O7

> <PUBCHEM_MOLECULAR_WEIGHT>
652.7361

> <PUBCHEM_OPENEYE_CAN_SMILES>
CN1CCC2(C3=C(C(=CC=C3)O)N4C1(C2=O)CCC4=O)C5=C(C(=C6C(=C5)C78CCN9C71C(CCC9)(CC(=O)O1)C=CC8N6C)OC)OC

> <PUBCHEM_OPENEYE_ISO_SMILES>
CN1CC[C@@]2(C3=C(C(=CC=C3)O)N4[C@]1(C2=O)CCC4=O)C5=C(C(=C6C(=C5)[C@@]78CCN9[C@]71[C@@](CCC9)(CC(=O)O1)C=C[C@H]8N6C)OC)OC

> <PUBCHEM_CACTVS_TPSA>
112

> <PUBCHEM_MONOISOTOPIC_WEIGHT>
652.2897

> <PUBCHEM_TOTAL_CHARGE>
0

> <PUBCHEM_HEAVY_ATOM_COUNT>
48

> <PUBCHEM_ATOM_DEF_STEREO_COUNT>
6

> <PUBCHEM_ATOM_UDEF_STEREO_COUNT>
0

> <PUBCHEM_BOND_DEF_STEREO_COUNT>
0

> <PUBCHEM_BOND_UDEF_STEREO_COUNT>
0

> <PUBCHEM_ISOTOPIC_ATOM_COUNT>
0

> <PUBCHEM_COMPONENT_COUNT>
1

> <PUBCHEM_CACTVS_TAUTO_COUNT>
8

> <PUBCHEM_COORDINATE_TYPE>
1
5
255

> <PUBCHEM_BONDANNOTATIONS>
12  1  6
13  16  5
14  19  5
15  49  5
18  25  8
18  27  8
25  29  8
27  28  8
31  28  5
28  32  8
29  32  8
33  38  5
36  39  8
36  42  8
39  44  8
42  46  8
44  48  8
46  48  8

$$$$

