56928136
  -OEChem-07051213152D

 40 42  0     1  0  0  0  0  0999 V2000
    2.9307    2.3518    0.0000 O   0  0  0  0  0  0  0  0  0  0  0  0
    3.6117   -0.9096    0.0000 C   0  0  3  0  0  0  0  0  0  0  0  0
    4.4207   -0.3218    0.0000 C   0  0  1  0  0  0  0  0  0  0  0  0
    2.8027   -0.3218    0.0000 C   0  0  1  0  0  0  0  0  0  0  0  0
    3.9214   -1.8542    0.0000 C   0  0  0  0  0  0  0  0  0  0  0  0
    3.3021   -1.8542    0.0000 C   0  0  1  0  0  0  0  0  0  0  0  0
    4.9154   -1.8534    0.0000 C   0  0  0  0  0  0  0  0  0  0  0  0
    5.2234   -0.9082    0.0000 C   0  0  0  0  0  0  0  0  0  0  0  0
    2.0000   -0.9082    0.0000 C   0  0  0  0  0  0  0  0  0  0  0  0
    2.3080   -1.8534    0.0000 C   0  0  0  0  0  0  0  0  0  0  0  0
    3.1117    0.6292    0.0000 C   0  0  0  0  0  0  0  0  0  0  0  0
    4.1117    0.6292    0.0000 C   0  0  0  0  0  0  0  0  0  0  0  0
    3.8885   -2.6643    0.0000 C   0  0  0  0  0  0  0  0  0  0  0  0
    5.8665   -2.1624    0.0000 C   0  0  0  0  0  0  0  0  0  0  0  0
    4.9154   -2.8534    0.0000 C   0  0  0  0  0  0  0  0  0  0  0  0
    2.5239    1.4382    0.0000 C   0  0  0  0  0  0  0  0  0  0  0  0
    5.1090    0.1769    0.0000 H   0  0  0  0  0  0  0  0  0  0  0  0
    2.1144    0.1769    0.0000 H   0  0  0  0  0  0  0  0  0  0  0  0
    3.3152   -1.9844    0.0000 H   0  0  0  0  0  0  0  0  0  0  0  0
    3.9871   -2.4707    0.0000 H   0  0  0  0  0  0  0  0  0  0  0  0
    3.9147   -1.7586    0.0000 H   0  0  0  0  0  0  0  0  0  0  0  0
    5.7895   -1.1612    0.0000 H   0  0  0  0  0  0  0  0  0  0  0  0
    5.5345   -0.3719    0.0000 H   0  0  0  0  0  0  0  0  0  0  0  0
    1.6889   -0.3719    0.0000 H   0  0  0  0  0  0  0  0  0  0  0  0
    1.4340   -1.1612    0.0000 H   0  0  0  0  0  0  0  0  0  0  0  0
    1.7016   -1.9825    0.0000 H   0  0  0  0  0  0  0  0  0  0  0  0
    2.3726   -2.4700    0.0000 H   0  0  0  0  0  0  0  0  0  0  0  0
    4.4761    1.1308    0.0000 H   0  0  0  0  0  0  0  0  0  0  0  0
    3.3862   -3.0278    0.0000 H   0  0  0  0  0  0  0  0  0  0  0  0
    4.2520   -3.1665    0.0000 H   0  0  0  0  0  0  0  0  0  0  0  0
    4.3907   -2.3007    0.0000 H   0  0  0  0  0  0  0  0  0  0  0  0
    5.6749   -2.7520    0.0000 H   0  0  0  0  0  0  0  0  0  0  0  0
    6.4562   -2.3540    0.0000 H   0  0  0  0  0  0  0  0  0  0  0  0
    6.0581   -1.5727    0.0000 H   0  0  0  0  0  0  0  0  0  0  0  0
    4.2954   -2.8534    0.0000 H   0  0  0  0  0  0  0  0  0  0  0  0
    4.9154   -3.4734    0.0000 H   0  0  0  0  0  0  0  0  0  0  0  0
    5.5354   -2.8534    0.0000 H   0  0  0  0  0  0  0  0  0  0  0  0
    2.0099    1.7849    0.0000 H   0  0  0  0  0  0  0  0  0  0  0  0
    2.0932    0.9923    0.0000 H   0  0  0  0  0  0  0  0  0  0  0  0
    2.5662    2.8534    0.0000 H   0  0  0  0  0  0  0  0  0  0  0  0
  1 16  1  0  0  0  0
  1 40  1  0  0  0  0
  2  3  1  0  0  0  0
  2  4  1  0  0  0  0
  2  5  1  0  0  0  0
  2  6  1  0  0  0  0
  3  8  1  0  0  0  0
  3 12  1  0  0  0  0
  3 17  1  1  0  0  0
  4  9  1  0  0  0  0
  4 11  1  0  0  0  0
  4 18  1  6  0  0  0
  5  7  1  0  0  0  0
  5 19  1  0  0  0  0
  5 20  1  0  0  0  0
  6 10  1  0  0  0  0
  6 13  1  6  0  0  0
  6 21  1  0  0  0  0
  7  8  1  0  0  0  0
  7 14  1  0  0  0  0
  7 15  1  0  0  0  0
  8 22  1  0  0  0  0
  8 23  1  0  0  0  0
  9 10  1  0  0  0  0
  9 24  1  0  0  0  0
  9 25  1  0  0  0  0
 10 26  1  0  0  0  0
 10 27  1  0  0  0  0
 11 12  2  0  0  0  0
 11 16  1  0  0  0  0
 12 28  1  0  0  0  0
 13 29  1  0  0  0  0
 13 30  1  0  0  0  0
 13 31  1  0  0  0  0
 14 32  1  0  0  0  0
 14 33  1  0  0  0  0
 14 34  1  0  0  0  0
 15 35  1  0  0  0  0
 15 36  1  0  0  0  0
 15 37  1  0  0  0  0
 16 38  1  0  0  0  0
 16 39  1  0  0  0  0
M  END
> <PUBCHEM_COMPOUND_CID>
56928136

> <PUBCHEM_COMPOUND_CANONICALIZED>
1

> <PUBCHEM_CACTVS_COMPLEXITY>
341

> <PUBCHEM_CACTVS_HBOND_ACCEPTOR>
1

> <PUBCHEM_CACTVS_HBOND_DONOR>
1

> <PUBCHEM_CACTVS_ROTATABLE_BOND>
1

> <PUBCHEM_CACTVS_SUBSKEYS>
AAADceBwIAAAAAAAAAAAAAAAAAAAAYMEAAAAAAAAAAAQIAAAAAAAGgAACAAADwCggAICAAAAAgCAAiBCAAAAAAAgAAAACAAAAAgAFAIAAQAAUAAEgAAIEAOAwPAPgAAAAAAAAAAAAAAAAAAAAQAACAAAAA==

> <PUBCHEM_IUPAC_INCHI>
InChI=1S/C15H24O/c1-10-4-5-13-11(8-16)6-12-7-14(2,3)9-15(10,12)13/h6,10,12-13,16H,4-5,7-9H2,1-3H3/t10-,12-,13+,15?/m1/s1

> <PUBCHEM_IUPAC_INCHIKEY>
UUWZJPBRBCIXLA-HJIFLFLRSA-N

> <PUBCHEM_XLOGP3_AA>
3.4

> <PUBCHEM_EXACT_MASS>
220.182715

> <PUBCHEM_MOLECULAR_FORMULA>
C15H24O

> <PUBCHEM_MOLECULAR_WEIGHT>
220.35046

> <PUBCHEM_OPENEYE_CAN_SMILES>
CC1CCC2C13CC(CC3C=C2CO)(C)C

> <PUBCHEM_OPENEYE_ISO_SMILES>
C[C@@H]1CC[C@@H]2C13CC(C[C@H]3C=C2CO)(C)C

> <PUBCHEM_CACTVS_TPSA>
20.2

> <PUBCHEM_MONOISOTOPIC_WEIGHT>
220.182715

> <PUBCHEM_TOTAL_CHARGE>
0

> <PUBCHEM_HEAVY_ATOM_COUNT>
16

> <PUBCHEM_ATOM_DEF_STEREO_COUNT>
3

> <PUBCHEM_ATOM_UDEF_STEREO_COUNT>
1

> <PUBCHEM_BOND_DEF_STEREO_COUNT>
0

> <PUBCHEM_BOND_UDEF_STEREO_COUNT>
0

> <PUBCHEM_ISOTOPIC_ATOM_COUNT>
0

> <PUBCHEM_COMPONENT_COUNT>
1

> <PUBCHEM_CACTVS_TAUTO_COUNT>
1

> <PUBCHEM_COORDINATE_TYPE>
1
5
255

> <PUBCHEM_BONDANNOTATIONS>
2  5  3
3  17  5
4  18  6
6  13  6

$$$$

