11954125
  -OEChem-07051213072D

 22 24  0     0  0  0  0  0  0999 V2000
    7.6271    1.7298    0.0000 Cl  0  0  0  0  0  0  0  0  0  0  0  0
    3.3823    1.7298    0.0000 Cl  0  0  0  0  0  0  0  0  0  0  0  0
    2.0000    0.2182    0.0000 Cl  0  0  0  0  0  0  0  0  0  0  0  0
    5.5047    1.1308    0.0000 O   0  0  0  0  0  0  0  0  0  0  0  0
    8.3764   -1.7298    0.0000 O   0  0  0  0  0  0  0  0  0  0  0  0
    6.0047   -0.4081    0.0000 C   0  0  0  0  0  0  0  0  0  0  0  0
    5.0047   -0.4081    0.0000 C   0  0  0  0  0  0  0  0  0  0  0  0
    6.3137    0.5430    0.0000 C   0  0  0  0  0  0  0  0  0  0  0  0
    4.6957    0.5430    0.0000 C   0  0  0  0  0  0  0  0  0  0  0  0
    6.6897   -1.1928    0.0000 C   0  0  0  0  0  0  0  0  0  0  0  0
    4.3197   -1.1928    0.0000 C   0  0  0  0  0  0  0  0  0  0  0  0
    7.3291    0.7752    0.0000 C   0  0  0  0  0  0  0  0  0  0  0  0
    3.6803    0.7752    0.0000 C   0  0  0  0  0  0  0  0  0  0  0  0
    7.7102   -0.9841    0.0000 C   0  0  0  0  0  0  0  0  0  0  0  0
    3.2992   -0.9841    0.0000 C   0  0  0  0  0  0  0  0  0  0  0  0
    8.0321    0.0066    0.0000 C   0  0  0  0  0  0  0  0  0  0  0  0
    2.9773    0.0066    0.0000 C   0  0  0  0  0  0  0  0  0  0  0  0
    6.4913   -1.7802    0.0000 H   0  0  0  0  0  0  0  0  0  0  0  0
    4.5181   -1.7802    0.0000 H   0  0  0  0  0  0  0  0  0  0  0  0
    2.8861   -1.4464    0.0000 H   0  0  0  0  0  0  0  0  0  0  0  0
    8.6380    0.1378    0.0000 H   0  0  0  0  0  0  0  0  0  0  0  0
    8.9834   -1.6032    0.0000 H   0  0  0  0  0  0  0  0  0  0  0  0
  1 12  1  0  0  0  0
  2 13  1  0  0  0  0
  3 17  1  0  0  0  0
  4  8  1  0  0  0  0
  4  9  1  0  0  0  0
  5 14  1  0  0  0  0
  5 22  1  0  0  0  0
  6  7  1  0  0  0  0
  6  8  2  0  0  0  0
  6 10  1  0  0  0  0
  7  9  2  0  0  0  0
  7 11  1  0  0  0  0
  8 12  1  0  0  0  0
  9 13  1  0  0  0  0
 10 14  2  0  0  0  0
 10 18  1  0  0  0  0
 11 15  2  0  0  0  0
 11 19  1  0  0  0  0
 12 16  2  0  0  0  0
 13 17  2  0  0  0  0
 14 16  1  0  0  0  0
 15 17  1  0  0  0  0
 15 20  1  0  0  0  0
 16 21  1  0  0  0  0
M  END
> <PUBCHEM_COMPOUND_CID>
11954125

> <PUBCHEM_COMPOUND_CANONICALIZED>
1

> <PUBCHEM_CACTVS_COMPLEXITY>
302

> <PUBCHEM_CACTVS_HBOND_ACCEPTOR>
2

> <PUBCHEM_CACTVS_HBOND_DONOR>
1

> <PUBCHEM_CACTVS_ROTATABLE_BOND>
0

> <PUBCHEM_CACTVS_SUBSKEYS>
AAADcYBwMAAGAAAAAAAAAAAAAAAAASAAAAAwYAAAAAAAAEgB/AAAGgIACAAADAaAmCAwBsAABkCIAqBSAAACCAAkJUAIikEGC8hMJjOHNxqCeSCkwBEIvYfK7PzOhQABIQAICAQKAAJCABAQCAAAAAAAAA==

> <PUBCHEM_IUPAC_OPENEYE_NAME>
4,6,7-trichlorodibenzofuran-2-ol

> <PUBCHEM_IUPAC_CAS_NAME>
4,6,7-trichloro-2-dibenzofuranol

> <PUBCHEM_IUPAC_NAME>
4,6,7-trichlorodibenzofuran-2-ol

> <PUBCHEM_IUPAC_SYSTEMATIC_NAME>
4,6,7-tris(chloranyl)dibenzofuran-2-ol

> <PUBCHEM_IUPAC_TRADITIONAL_NAME>
4,6,7-trichlorodibenzofuran-2-ol

> <PUBCHEM_IUPAC_INCHI>
InChI=1S/C12H5Cl3O2/c13-8-2-1-6-7-3-5(16)4-9(14)11(7)17-12(6)10(8)15/h1-4,16H

> <PUBCHEM_IUPAC_INCHIKEY>
YLPGDDLRALHEGY-UHFFFAOYSA-N

> <PUBCHEM_XLOGP3>
5.3

> <PUBCHEM_EXACT_MASS>
285.935512

> <PUBCHEM_MOLECULAR_FORMULA>
C12H5Cl3O2

> <PUBCHEM_MOLECULAR_WEIGHT>
287.5259

> <PUBCHEM_OPENEYE_CAN_SMILES>
C1=CC(=C(C2=C1C3=CC(=CC(=C3O2)Cl)O)Cl)Cl

> <PUBCHEM_OPENEYE_ISO_SMILES>
C1=CC(=C(C2=C1C3=CC(=CC(=C3O2)Cl)O)Cl)Cl

> <PUBCHEM_CACTVS_TPSA>
33.4

> <PUBCHEM_MONOISOTOPIC_WEIGHT>
285.935512

> <PUBCHEM_TOTAL_CHARGE>
0

> <PUBCHEM_HEAVY_ATOM_COUNT>
17

> <PUBCHEM_ATOM_DEF_STEREO_COUNT>
0

> <PUBCHEM_ATOM_UDEF_STEREO_COUNT>
0

> <PUBCHEM_BOND_DEF_STEREO_COUNT>
0

> <PUBCHEM_BOND_UDEF_STEREO_COUNT>
0

> <PUBCHEM_ISOTOPIC_ATOM_COUNT>
0

> <PUBCHEM_COMPONENT_COUNT>
1

> <PUBCHEM_CACTVS_TAUTO_COUNT>
3

> <PUBCHEM_COORDINATE_TYPE>
1
5
255

> <PUBCHEM_BONDANNOTATIONS>
10  14  8
11  15  8
12  16  8
13  17  8
14  16  8
15  17  8
4  8  8
4  9  8
6  10  8
6  7  8
6  8  8
7  11  8
7  9  8
8  12  8
9  13  8

$$$$

