5280823
  -OEChem-07051212502D

 91 91  0     0  0  0  0  0  0999 V2000
    2.5369   -8.0000    0.0000 O   0  0  0  0  0  0  0  0  0  0  0  0
    9.4651    1.0000    0.0000 C   0  0  0  0  0  0  0  0  0  0  0  0
    9.4651    2.0000    0.0000 C   0  0  0  0  0  0  0  0  0  0  0  0
    7.7331   -2.0000    0.0000 C   0  0  0  0  0  0  0  0  0  0  0  0
    7.7331   -1.0000    0.0000 C   0  0  0  0  0  0  0  0  0  0  0  0
    8.5991    0.5000    0.0000 C   0  0  0  0  0  0  0  0  0  0  0  0
   11.1972    4.0000    0.0000 C   0  0  0  0  0  0  0  0  0  0  0  0
   10.3312    3.5000    0.0000 C   0  0  0  0  0  0  0  0  0  0  0  0
    6.8671   -2.5000    0.0000 C   0  0  0  0  0  0  0  0  0  0  0  0
   11.1972    5.0000    0.0000 C   0  0  0  0  0  0  0  0  0  0  0  0
    8.5991   -0.5000    0.0000 C   0  0  0  0  0  0  0  0  0  0  0  0
   10.3312    2.5000    0.0000 C   0  0  0  0  0  0  0  0  0  0  0  0
    6.0010   -4.0000    0.0000 C   0  0  0  0  0  0  0  0  0  0  0  0
    6.0010   -5.0000    0.0000 C   0  0  0  0  0  0  0  0  0  0  0  0
    6.8671   -3.5000    0.0000 C   0  0  0  0  0  0  0  0  0  0  0  0
   12.0632    6.5000    0.0000 C   0  0  0  0  0  0  0  0  0  0  0  0
   12.0632    5.5000    0.0000 C   0  0  0  0  0  0  0  0  0  0  0  0
   12.9292    7.0000    0.0000 C   0  0  0  0  0  0  0  0  0  0  0  0
    5.1350   -5.5000    0.0000 C   0  0  0  0  0  0  0  0  0  0  0  0
    7.7331    1.0000    0.0000 C   0  0  0  0  0  0  0  0  0  0  0  0
    9.4651    4.0000    0.0000 C   0  0  0  0  0  0  0  0  0  0  0  0
    6.0010   -2.0000    0.0000 C   0  0  0  0  0  0  0  0  0  0  0  0
   12.9292    8.0000    0.0000 C   0  0  0  0  0  0  0  0  0  0  0  0
    5.1350   -6.5000    0.0000 C   0  0  0  0  0  0  0  0  0  0  0  0
   11.1972    7.0000    0.0000 C   0  0  0  0  0  0  0  0  0  0  0  0
    4.2690   -7.0000    0.0000 C   0  0  0  0  0  0  0  0  0  0  0  0
    4.2690   -5.0000    0.0000 C   0  0  0  0  0  0  0  0  0  0  0  0
   13.7953    8.5000    0.0000 C   0  0  0  0  0  0  0  0  0  0  0  0
    4.2690   -8.0000    0.0000 C   0  0  0  0  0  0  0  0  0  0  0  0
   13.7953    9.5000    0.0000 C   0  0  0  0  0  0  0  0  0  0  0  0
    3.4030   -8.5000    0.0000 C   0  0  0  0  0  0  0  0  0  0  0  0
    5.1350   -8.5000    0.0000 C   0  0  0  0  0  0  0  0  0  0  0  0
   14.6613   10.0000    0.0000 C   0  0  0  0  0  0  0  0  0  0  0  0
   12.9292   10.0000    0.0000 C   0  0  0  0  0  0  0  0  0  0  0  0
    3.4030   -9.5000    0.0000 C   0  0  0  0  0  0  0  0  0  0  0  0
    5.1350   -9.5000    0.0000 C   0  0  0  0  0  0  0  0  0  0  0  0
    4.2690  -10.0000    0.0000 C   0  0  0  0  0  0  0  0  0  0  0  0
    9.6772    0.4174    0.0000 H   0  0  0  0  0  0  0  0  0  0  0  0
   10.0757    1.1077    0.0000 H   0  0  0  0  0  0  0  0  0  0  0  0
    9.2531    2.5826    0.0000 H   0  0  0  0  0  0  0  0  0  0  0  0
    8.8546    1.8923    0.0000 H   0  0  0  0  0  0  0  0  0  0  0  0
    7.9451   -2.5826    0.0000 H   0  0  0  0  0  0  0  0  0  0  0  0
    8.3437   -1.8923    0.0000 H   0  0  0  0  0  0  0  0  0  0  0  0
    7.5210   -0.4174    0.0000 H   0  0  0  0  0  0  0  0  0  0  0  0
    7.1225   -1.1077    0.0000 H   0  0  0  0  0  0  0  0  0  0  0  0
   11.4092    3.4174    0.0000 H   0  0  0  0  0  0  0  0  0  0  0  0
   11.8078    4.1077    0.0000 H   0  0  0  0  0  0  0  0  0  0  0  0
   10.9851    5.5826    0.0000 H   0  0  0  0  0  0  0  0  0  0  0  0
   10.5866    4.8923    0.0000 H   0  0  0  0  0  0  0  0  0  0  0  0
    9.1360   -0.8100    0.0000 H   0  0  0  0  0  0  0  0  0  0  0  0
   10.8681    2.1900    0.0000 H   0  0  0  0  0  0  0  0  0  0  0  0
    5.7890   -3.4174    0.0000 H   0  0  0  0  0  0  0  0  0  0  0  0
    5.3905   -4.1077    0.0000 H   0  0  0  0  0  0  0  0  0  0  0  0
    6.2131   -5.5826    0.0000 H   0  0  0  0  0  0  0  0  0  0  0  0
    6.6116   -4.8923    0.0000 H   0  0  0  0  0  0  0  0  0  0  0  0
    7.4040   -3.8100    0.0000 H   0  0  0  0  0  0  0  0  0  0  0  0
   12.6002    5.1900    0.0000 H   0  0  0  0  0  0  0  0  0  0  0  0
   13.1413    6.4174    0.0000 H   0  0  0  0  0  0  0  0  0  0  0  0
   13.5398    7.1077    0.0000 H   0  0  0  0  0  0  0  0  0  0  0  0
    8.0431    1.5369    0.0000 H   0  0  0  0  0  0  0  0  0  0  0  0
    7.1962    1.3100    0.0000 H   0  0  0  0  0  0  0  0  0  0  0  0
    7.4231    0.4631    0.0000 H   0  0  0  0  0  0  0  0  0  0  0  0
    9.7751    4.5369    0.0000 H   0  0  0  0  0  0  0  0  0  0  0  0
    8.9282    4.3100    0.0000 H   0  0  0  0  0  0  0  0  0  0  0  0
    9.1551    3.4631    0.0000 H   0  0  0  0  0  0  0  0  0  0  0  0
    6.3110   -1.4631    0.0000 H   0  0  0  0  0  0  0  0  0  0  0  0
    5.4641   -1.6900    0.0000 H   0  0  0  0  0  0  0  0  0  0  0  0
    5.6910   -2.5369    0.0000 H   0  0  0  0  0  0  0  0  0  0  0  0
   12.7172    8.5826    0.0000 H   0  0  0  0  0  0  0  0  0  0  0  0
   12.3187    7.8923    0.0000 H   0  0  0  0  0  0  0  0  0  0  0  0
    5.6720   -6.8100    0.0000 H   0  0  0  0  0  0  0  0  0  0  0  0
   11.5072    7.5369    0.0000 H   0  0  0  0  0  0  0  0  0  0  0  0
   10.6603    7.3100    0.0000 H   0  0  0  0  0  0  0  0  0  0  0  0
   10.8872    6.4631    0.0000 H   0  0  0  0  0  0  0  0  0  0  0  0
    4.0569   -6.4174    0.0000 H   0  0  0  0  0  0  0  0  0  0  0  0
    3.6584   -7.1077    0.0000 H   0  0  0  0  0  0  0  0  0  0  0  0
    4.5790   -4.4631    0.0000 H   0  0  0  0  0  0  0  0  0  0  0  0
    3.7320   -4.6900    0.0000 H   0  0  0  0  0  0  0  0  0  0  0  0
    3.9590   -5.5369    0.0000 H   0  0  0  0  0  0  0  0  0  0  0  0
   14.3322    8.1900    0.0000 H   0  0  0  0  0  0  0  0  0  0  0  0
    5.6720   -8.1900    0.0000 H   0  0  0  0  0  0  0  0  0  0  0  0
   14.9713    9.4631    0.0000 H   0  0  0  0  0  0  0  0  0  0  0  0
   15.1982   10.3100    0.0000 H   0  0  0  0  0  0  0  0  0  0  0  0
   14.3513   10.5369    0.0000 H   0  0  0  0  0  0  0  0  0  0  0  0
   13.2392   10.5369    0.0000 H   0  0  0  0  0  0  0  0  0  0  0  0
   12.3923   10.3100    0.0000 H   0  0  0  0  0  0  0  0  0  0  0  0
   12.6192    9.4631    0.0000 H   0  0  0  0  0  0  0  0  0  0  0  0
    2.8660   -9.8100    0.0000 H   0  0  0  0  0  0  0  0  0  0  0  0
    5.6720   -9.8100    0.0000 H   0  0  0  0  0  0  0  0  0  0  0  0
    4.2690  -10.6200    0.0000 H   0  0  0  0  0  0  0  0  0  0  0  0
    2.0000   -8.3100    0.0000 H   0  0  0  0  0  0  0  0  0  0  0  0
  1 31  1  0  0  0  0
  1 91  1  0  0  0  0
  2  3  1  0  0  0  0
  2  6  1  0  0  0  0
  2 38  1  0  0  0  0
  2 39  1  0  0  0  0
  3 12  1  0  0  0  0
  3 40  1  0  0  0  0
  3 41  1  0  0  0  0
  4  5  1  0  0  0  0
  4  9  1  0  0  0  0
  4 42  1  0  0  0  0
  4 43  1  0  0  0  0
  5 11  1  0  0  0  0
  5 44  1  0  0  0  0
  5 45  1  0  0  0  0
  6 11  2  0  0  0  0
  6 20  1  0  0  0  0
  7  8  1  0  0  0  0
  7 10  1  0  0  0  0
  7 46  1  0  0  0  0
  7 47  1  0  0  0  0
  8 12  2  0  0  0  0
  8 21  1  0  0  0  0
  9 15  2  0  0  0  0
  9 22  1  0  0  0  0
 10 17  1  0  0  0  0
 10 48  1  0  0  0  0
 10 49  1  0  0  0  0
 11 50  1  0  0  0  0
 12 51  1  0  0  0  0
 13 14  1  0  0  0  0
 13 15  1  0  0  0  0
 13 52  1  0  0  0  0
 13 53  1  0  0  0  0
 14 19  1  0  0  0  0
 14 54  1  0  0  0  0
 14 55  1  0  0  0  0
 15 56  1  0  0  0  0
 16 17  2  0  0  0  0
 16 18  1  0  0  0  0
 16 25  1  0  0  0  0
 17 57  1  0  0  0  0
 18 23  1  0  0  0  0
 18 58  1  0  0  0  0
 18 59  1  0  0  0  0
 19 24  2  0  0  0  0
 19 27  1  0  0  0  0
 20 60  1  0  0  0  0
 20 61  1  0  0  0  0
 20 62  1  0  0  0  0
 21 63  1  0  0  0  0
 21 64  1  0  0  0  0
 21 65  1  0  0  0  0
 22 66  1  0  0  0  0
 22 67  1  0  0  0  0
 22 68  1  0  0  0  0
 23 28  1  0  0  0  0
 23 69  1  0  0  0  0
 23 70  1  0  0  0  0
 24 26  1  0  0  0  0
 24 71  1  0  0  0  0
 25 72  1  0  0  0  0
 25 73  1  0  0  0  0
 25 74  1  0  0  0  0
 26 29  1  0  0  0  0
 26 75  1  0  0  0  0
 26 76  1  0  0  0  0
 27 77  1  0  0  0  0
 27 78  1  0  0  0  0
 27 79  1  0  0  0  0
 28 30  2  0  0  0  0
 28 80  1  0  0  0  0
 29 31  1  0  0  0  0
 29 32  2  0  0  0  0
 30 33  1  0  0  0  0
 30 34  1  0  0  0  0
 31 35  2  0  0  0  0
 32 36  1  0  0  0  0
 32 81  1  0  0  0  0
 33 82  1  0  0  0  0
 33 83  1  0  0  0  0
 33 84  1  0  0  0  0
 34 85  1  0  0  0  0
 34 86  1  0  0  0  0
 34 87  1  0  0  0  0
 35 37  1  0  0  0  0
 35 88  1  0  0  0  0
 36 37  2  0  0  0  0
 36 89  1  0  0  0  0
 37 90  1  0  0  0  0
M  END
> <PUBCHEM_COMPOUND_CID>
5280823

> <PUBCHEM_COMPOUND_CANONICALIZED>
1

> <PUBCHEM_CACTVS_COMPLEXITY>
810

> <PUBCHEM_CACTVS_HBOND_ACCEPTOR>
1

> <PUBCHEM_CACTVS_HBOND_DONOR>
1

> <PUBCHEM_CACTVS_ROTATABLE_BOND>
17

> <PUBCHEM_CACTVS_SUBSKEYS>
AAADcfB8IAAAAAAAAAAAAAAAAAAAAAAAAAAwAAAAAAAAAAABAAAAGgAACAAADASAmAAyBoAAAgCAAiBCAAACAAAgIAAIiAAGCIgIJiKCERKAcAAkwBEImAeAwKAOAAAAAAAIAAAAAAAAABAAAAAAAAAAAA==

> <PUBCHEM_IUPAC_OPENEYE_NAME>
2-[(2E,6E,10E,14E,18E)-3,7,11,15,19,23-hexamethyltetracosa-2,6,10,14,18,22-hexaenyl]phenol

> <PUBCHEM_IUPAC_CAS_NAME>
2-[(2E,6E,10E,14E,18E)-3,7,11,15,19,23-hexamethyltetracosa-2,6,10,14,18,22-hexaenyl]phenol

> <PUBCHEM_IUPAC_NAME>
2-[(2E,6E,10E,14E,18E)-3,7,11,15,19,23-hexamethyltetracosa-2,6,10,14,18,22-hexaenyl]phenol

> <PUBCHEM_IUPAC_SYSTEMATIC_NAME>
2-[(2E,6E,10E,14E,18E)-3,7,11,15,19,23-hexamethyltetracosa-2,6,10,14,18,22-hexaenyl]phenol

> <PUBCHEM_IUPAC_TRADITIONAL_NAME>
2-[(2E,6E,10E,14E,18E)-3,7,11,15,19,23-hexamethyltetracosa-2,6,10,14,18,22-hexaenyl]phenol

> <PUBCHEM_IUPAC_INCHI>
InChI=1S/C36H54O/c1-29(2)15-10-16-30(3)17-11-18-31(4)19-12-20-32(5)21-13-22-33(6)23-14-24-34(7)27-28-35-25-8-9-26-36(35)37/h8-9,15,17,19,21,23,25-27,37H,10-14,16,18,20,22,24,28H2,1-7H3/b30-17+,31-19+,32-21+,33-23+,34-27+

> <PUBCHEM_IUPAC_INCHIKEY>
SWYAYSXDWCPYPJ-DUBIXASGSA-N

> <PUBCHEM_XLOGP3>
12.9

> <PUBCHEM_EXACT_MASS>
502.417466

> <PUBCHEM_MOLECULAR_FORMULA>
C36H54O

> <PUBCHEM_MOLECULAR_WEIGHT>
502.81336

> <PUBCHEM_OPENEYE_CAN_SMILES>
CC(=CCCC(=CCCC(=CCCC(=CCCC(=CCCC(=CCC1=CC=CC=C1O)C)C)C)C)C)C

> <PUBCHEM_OPENEYE_ISO_SMILES>
CC(=CCC/C(=C/CC/C(=C/CC/C(=C/CC/C(=C/CC/C(=C/CC1=CC=CC=C1O)/C)/C)/C)/C)/C)C

> <PUBCHEM_CACTVS_TPSA>
20.2

> <PUBCHEM_MONOISOTOPIC_WEIGHT>
502.417466

> <PUBCHEM_TOTAL_CHARGE>
0

> <PUBCHEM_HEAVY_ATOM_COUNT>
37

> <PUBCHEM_ATOM_DEF_STEREO_COUNT>
0

> <PUBCHEM_ATOM_UDEF_STEREO_COUNT>
0

> <PUBCHEM_BOND_DEF_STEREO_COUNT>
5

> <PUBCHEM_BOND_UDEF_STEREO_COUNT>
0

> <PUBCHEM_ISOTOPIC_ATOM_COUNT>
0

> <PUBCHEM_COMPONENT_COUNT>
1

> <PUBCHEM_CACTVS_TAUTO_COUNT>
3

> <PUBCHEM_COORDINATE_TYPE>
1
5
255

> <PUBCHEM_BONDANNOTATIONS>
29  31  8
29  32  8
31  35  8
32  36  8
35  37  8
36  37  8

$$$$

