5360315
  -OEChem-07051212542D

  3  0  0     0  0  0  0  0  0999 V2000
    3.7320    0.2500    0.0000 Cl  0  5  0  0  0  0  0  0  0  0  0  0
    2.0000    0.2500    0.0000 Cl  0  5  0  0  0  0  0  0  0  0  0  0
    2.8660   -0.2500    0.0000 Mg  0  2  0  0  0  0  0  0  0  0  0  0
M  CHG  3   1  -1   2  -1   3   2
M  END
> <PUBCHEM_COMPOUND_CID>
5360315

> <PUBCHEM_COMPOUND_CANONICALIZED>
1

> <PUBCHEM_CACTVS_COMPLEXITY>
0

> <PUBCHEM_CACTVS_HBOND_ACCEPTOR>
2

> <PUBCHEM_CACTVS_HBOND_DONOR>
0

> <PUBCHEM_CACTVS_ROTATABLE_BOND>
0

> <PUBCHEM_CACTVS_SUBSKEYS>
AAADcQAAAAAGACAAAAAAAAAAAAAAAAAAAAAAAAAAAAAAAAAAAAAAAAAAAAAAAAAAAAAAAAAAAAAAAAAAAAAAAAAAAAAAAAAAAAAAAAAAAAAAAAAAAAAAAAAAAAAAAAAAAAAAAAAAAAAAAAAAAAAAAAAAAA==

> <PUBCHEM_IUPAC_OPENEYE_NAME>
magnesium dichloride

> <PUBCHEM_IUPAC_CAS_NAME>
magnesium dichloride

> <PUBCHEM_IUPAC_NAME>
magnesium dichloride

> <PUBCHEM_IUPAC_SYSTEMATIC_NAME>
magnesium dichloride

> <PUBCHEM_IUPAC_TRADITIONAL_NAME>
magnesium dichloride

> <PUBCHEM_IUPAC_INCHI>
InChI=1S/2ClH.Mg/h2*1H;/q;;+2/p-2

> <PUBCHEM_IUPAC_INCHIKEY>
TWRXJAOTZQYOKJ-UHFFFAOYSA-L

> <PUBCHEM_EXACT_MASS>
93.922747

> <PUBCHEM_MOLECULAR_FORMULA>
Cl2Mg

> <PUBCHEM_MOLECULAR_WEIGHT>
95.211

> <PUBCHEM_OPENEYE_CAN_SMILES>
[Mg+2].[Cl-].[Cl-]

> <PUBCHEM_OPENEYE_ISO_SMILES>
[Mg+2].[Cl-].[Cl-]

> <PUBCHEM_CACTVS_TPSA>
0

> <PUBCHEM_MONOISOTOPIC_WEIGHT>
93.922747

> <PUBCHEM_TOTAL_CHARGE>
0

> <PUBCHEM_HEAVY_ATOM_COUNT>
3

> <PUBCHEM_ATOM_DEF_STEREO_COUNT>
0

> <PUBCHEM_ATOM_UDEF_STEREO_COUNT>
0

> <PUBCHEM_BOND_DEF_STEREO_COUNT>
0

> <PUBCHEM_BOND_UDEF_STEREO_COUNT>
0

> <PUBCHEM_ISOTOPIC_ATOM_COUNT>
0

> <PUBCHEM_COMPONENT_COUNT>
3

> <PUBCHEM_CACTVS_TAUTO_COUNT>
1

> <PUBCHEM_COORDINATE_TYPE>
1
5
255

$$$$

