9552083
  -OEChem-07051212552D

 89 90  0     1  0  0  0  0  0999 V2000
    6.5911    0.9812    0.0000 S   0  0  1  0  0  0  0  0  0  0  0  0
    7.7991   -2.4585    0.0000 O   0  0  0  0  0  0  0  0  0  0  0  0
    5.0677    0.5762    0.0000 O   0  0  0  0  0  0  0  0  0  0  0  0
   10.6997    0.4822    0.0000 O   0  0  0  0  0  0  0  0  0  0  0  0
    9.6651   -3.6905    0.0000 O   0  0  0  0  0  0  0  0  0  0  0  0
    7.5567    2.5642    0.0000 O   0  0  0  0  0  0  0  0  0  0  0  0
    8.2991   -2.3245    0.0000 O   0  0  0  0  0  0  0  0  0  0  0  0
    5.9070    2.8606    0.0000 O   0  0  0  0  0  0  0  0  0  0  0  0
    7.2338    1.7473    0.0000 O   0  0  0  0  0  0  0  0  0  0  0  0
   13.1651   -4.5566    0.0000 O   0  0  0  0  0  0  0  0  0  0  0  0
   13.1651   -2.8245    0.0000 O   0  0  0  0  0  0  0  0  0  0  0  0
    2.6106    4.3212    0.0000 O   0  0  0  0  0  0  0  0  0  0  0  0
    2.3098    2.6155    0.0000 O   0  0  0  0  0  0  0  0  0  0  0  0
   10.1651   -1.0924    0.0000 N   0  0  0  0  0  0  0  0  0  0  0  0
    8.7815    1.3394    0.0000 N   0  0  0  0  0  0  0  0  0  0  0  0
   11.1651   -2.8245    0.0000 N   0  0  0  0  0  0  0  0  0  0  0  0
    7.7914    0.1607    0.0000 N   0  0  0  0  0  0  0  0  0  0  0  0
    4.5802    3.9739    0.0000 N   0  0  0  0  0  0  0  0  0  0  0  0
    8.6651   -1.9585    0.0000 C   0  0  1  0  0  0  0  0  0  0  0  0
    9.6651   -1.9585    0.0000 C   0  0  1  0  0  0  0  0  0  0  0  0
    8.6651   -0.9585    0.0000 C   0  0  0  0  0  0  0  0  0  0  0  0
    9.0403    0.3735    0.0000 C   0  0  1  0  0  0  0  0  0  0  0  0
    8.1651   -1.0924    0.0000 C   0  0  0  0  0  0  0  0  0  0  0  0
    8.3647   -0.3638    0.0000 C   0  0  0  0  0  0  0  0  0  0  0  0
    9.9063   -0.1265    0.0000 C   0  0  0  0  0  0  0  0  0  0  0  0
    7.1084    0.8911    0.0000 C   0  0  1  0  0  0  0  0  0  0  0  0
    6.0671    0.5415    0.0000 C   0  0  1  0  0  0  0  0  0  0  0  0
   10.1651   -2.8245    0.0000 C   0  0  0  0  0  0  0  0  0  0  0  0
    6.0671   -0.4585    0.0000 C   0  0  0  0  0  0  0  0  0  0  0  0
    6.9331   -1.9585    0.0000 C   0  0  0  0  0  0  0  0  0  0  0  0
    9.3079   -0.1924    0.0000 C   0  0  0  0  0  0  0  0  0  0  0  0
    7.8156    1.5982    0.0000 C   0  0  0  0  0  0  0  0  0  0  0  0
    6.0671   -1.4585    0.0000 C   0  0  0  0  0  0  0  0  0  0  0  0
    6.9331    0.0415    0.0000 C   0  0  0  0  0  0  0  0  0  0  0  0
    7.0955   -0.0823    0.0000 C   0  0  0  0  0  0  0  0  0  0  0  0
    9.2082   -0.9011    0.0000 C   0  0  0  0  0  0  0  0  0  0  0  0
    7.7991   -1.4585    0.0000 C   0  0  0  0  0  0  0  0  0  0  0  0
    7.7991   -0.4585    0.0000 C   0  0  0  0  0  0  0  0  0  0  0  0
    5.6063    1.1549    0.0000 C   0  0  0  0  0  0  0  0  0  0  0  0
    5.2642    2.0946    0.0000 C   0  0  2  0  0  0  0  0  0  0  0  0
    4.2794    2.2682    0.0000 C   0  0  0  0  0  0  0  0  0  0  0  0
   11.6651   -3.6905    0.0000 C   0  0  0  0  0  0  0  0  0  0  0  0
    7.1907   -0.6388    0.0000 C   0  0  0  0  0  0  0  0  0  0  0  0
    3.9374    3.2079    0.0000 C   0  0  1  0  0  0  0  0  0  0  0  0
   12.6651   -3.6905    0.0000 C   0  0  0  0  0  0  0  0  0  0  0  0
    2.9526    3.3816    0.0000 C   0  0  0  0  0  0  0  0  0  0  0  0
   10.2851   -1.9585    0.0000 H   0  0  0  0  0  0  0  0  0  0  0  0
    8.3244   -0.4405    0.0000 H   0  0  0  0  0  0  0  0  0  0  0  0
    8.0712   -1.1363    0.0000 H   0  0  0  0  0  0  0  0  0  0  0  0
    8.4381    0.5208    0.0000 H   0  0  0  0  0  0  0  0  0  0  0  0
    8.7021   -0.7824    0.0000 H   0  0  0  0  0  0  0  0  0  0  0  0
    7.8551   -0.5555    0.0000 H   0  0  0  0  0  0  0  0  0  0  0  0
    7.6282   -1.4024    0.0000 H   0  0  0  0  0  0  0  0  0  0  0  0
   10.7798   -1.1734    0.0000 H   0  0  0  0  0  0  0  0  0  0  0  0
    8.1274   -0.9366    0.0000 H   0  0  0  0  0  0  0  0  0  0  0  0
    6.9565    0.2900    0.0000 H   0  0  0  0  0  0  0  0  0  0  0  0
    5.9777    1.1550    0.0000 H   0  0  0  0  0  0  0  0  0  0  0  0
    9.2199    1.7778    0.0000 H   0  0  0  0  0  0  0  0  0  0  0  0
    9.7829   -0.5910    0.0000 H   0  0  0  0  0  0  0  0  0  0  0  0
    9.7064    0.2825    0.0000 H   0  0  0  0  0  0  0  0  0  0  0  0
    8.8330    0.2061    0.0000 H   0  0  0  0  0  0  0  0  0  0  0  0
    5.5301   -1.7685    0.0000 H   0  0  0  0  0  0  0  0  0  0  0  0
    7.2297    0.5230    0.0000 H   0  0  0  0  0  0  0  0  0  0  0  0
    6.4902    0.0519    0.0000 H   0  0  0  0  0  0  0  0  0  0  0  0
    6.9613   -0.6876    0.0000 H   0  0  0  0  0  0  0  0  0  0  0  0
    8.8750   -1.4240    0.0000 H   0  0  0  0  0  0  0  0  0  0  0  0
    9.7311   -1.2342    0.0000 H   0  0  0  0  0  0  0  0  0  0  0  0
    9.5412   -0.3781    0.0000 H   0  0  0  0  0  0  0  0  0  0  0  0
    8.3360   -0.1485    0.0000 H   0  0  0  0  0  0  0  0  0  0  0  0
   11.4751   -2.2876    0.0000 H   0  0  0  0  0  0  0  0  0  0  0  0
    8.3953    0.3009    0.0000 H   0  0  0  0  0  0  0  0  0  0  0  0
    4.9957    1.0472    0.0000 H   0  0  0  0  0  0  0  0  0  0  0  0
    5.6063    0.5349    0.0000 H   0  0  0  0  0  0  0  0  0  0  0  0
    5.0522    2.6772    0.0000 H   0  0  0  0  0  0  0  0  0  0  0  0
    4.7392    0.0503    0.0000 H   0  0  0  0  0  0  0  0  0  0  0  0
    3.6688    2.1605    0.0000 H   0  0  0  0  0  0  0  0  0  0  0  0
    4.2794    1.6482    0.0000 H   0  0  0  0  0  0  0  0  0  0  0  0
   11.0825   -3.9026    0.0000 H   0  0  0  0  0  0  0  0  0  0  0  0
   11.7728   -4.3011    0.0000 H   0  0  0  0  0  0  0  0  0  0  0  0
    6.6950   -0.2664    0.0000 H   0  0  0  0  0  0  0  0  0  0  0  0
    6.8183   -1.1345    0.0000 H   0  0  0  0  0  0  0  0  0  0  0  0
    7.6864   -1.0112    0.0000 H   0  0  0  0  0  0  0  0  0  0  0  0
    3.7254    3.7905    0.0000 H   0  0  0  0  0  0  0  0  0  0  0  0
    8.2992   -2.9445    0.0000 H   0  0  0  0  0  0  0  0  0  0  0  0
    5.6950    3.4432    0.0000 H   0  0  0  0  0  0  0  0  0  0  0  0
    4.3681    4.5566    0.0000 H   0  0  0  0  0  0  0  0  0  0  0  0
    5.1908    3.8663    0.0000 H   0  0  0  0  0  0  0  0  0  0  0  0
   13.7851   -4.5566    0.0000 H   0  0  0  0  0  0  0  0  0  0  0  0
    2.0000    4.4289    0.0000 H   0  0  0  0  0  0  0  0  0  0  0  0
  1  9  2  0  0  0  0
  1 34  1  0  0  0  0
  1 39  1  1  0  0  0
  2 19  1  0  0  0  0
  2 30  1  0  0  0  0
 27  3  1  1  0  0  0
  3 75  1  0  0  0  0
  4 25  2  0  0  0  0
  5 28  2  0  0  0  0
  6 32  2  0  0  0  0
  7 37  1  0  0  0  0
  7 84  1  0  0  0  0
 40  8  1  6  0  0  0
  8 85  1  0  0  0  0
 10 45  1  0  0  0  0
 10 88  1  0  0  0  0
 11 45  2  0  0  0  0
 12 46  1  0  0  0  0
 12 89  1  0  0  0  0
 13 46  2  0  0  0  0
 14 20  1  0  0  0  0
 14 25  1  0  0  0  0
 14 54  1  0  0  0  0
 15 22  1  0  0  0  0
 15 32  1  0  0  0  0
 15 58  1  0  0  0  0
 16 28  1  0  0  0  0
 16 42  1  0  0  0  0
 16 70  1  0  0  0  0
 26 17  1  1  0  0  0
 17 43  1  0  0  0  0
 17 71  1  0  0  0  0
 44 18  1  1  0  0  0
 18 86  1  0  0  0  0
 18 87  1  0  0  0  0
 19 20  1  0  0  0  0
 19 21  1  0  0  0  0
 19 23  1  1  0  0  0
 20 28  1  6  0  0  0
 20 47  1  0  0  0  0
 21 31  1  0  0  0  0
 21 48  1  0  0  0  0
 21 49  1  0  0  0  0
 22 24  1  6  0  0  0
 22 25  1  0  0  0  0
 22 50  1  0  0  0  0
 23 51  1  0  0  0  0
 23 52  1  0  0  0  0
 23 53  1  0  0  0  0
 24 35  1  0  0  0  0
 24 36  1  0  0  0  0
 24 55  1  0  0  0  0
 26 27  1  0  0  0  0
 26 32  1  0  0  0  0
 26 56  1  0  0  0  0
 27 29  1  0  0  0  0
 27 57  1  0  0  0  0
 29 33  2  0  0  0  0
 29 34  1  0  0  0  0
 30 33  1  0  0  0  0
 30 37  2  0  0  0  0
 31 59  1  0  0  0  0
 31 60  1  0  0  0  0
 31 61  1  0  0  0  0
 33 62  1  0  0  0  0
 34 38  2  0  0  0  0
 35 63  1  0  0  0  0
 35 64  1  0  0  0  0
 35 65  1  0  0  0  0
 36 66  1  0  0  0  0
 36 67  1  0  0  0  0
 36 68  1  0  0  0  0
 37 38  1  0  0  0  0
 38 69  1  0  0  0  0
 39 40  1  0  0  0  0
 39 72  1  0  0  0  0
 39 73  1  0  0  0  0
 40 41  1  0  0  0  0
 40 74  1  0  0  0  0
 41 44  1  0  0  0  0
 41 76  1  0  0  0  0
 41 77  1  0  0  0  0
 42 45  1  0  0  0  0
 42 78  1  0  0  0  0
 42 79  1  0  0  0  0
 43 80  1  0  0  0  0
 43 81  1  0  0  0  0
 43 82  1  0  0  0  0
 44 46  1  0  0  0  0
 44 83  1  0  0  0  0
M  END
> <PUBCHEM_COMPOUND_CID>
9552083

> <PUBCHEM_COMPOUND_CANONICALIZED>
1

> <PUBCHEM_CACTVS_COMPLEXITY>
1140

> <PUBCHEM_CACTVS_HBOND_ACCEPTOR>
15

> <PUBCHEM_CACTVS_HBOND_DONOR>
10

> <PUBCHEM_CACTVS_ROTATABLE_BOND>
12

> <PUBCHEM_CACTVS_SUBSKEYS>
AAADcfB7vABAAAAAAAAAAAAAAAAAAAAAAAAwAAAAAAAAAAABAAAAHgQQCAAADXzl2AayD4LABgqIAiHSGEBCCAAgKBAAiJmOiIgPdjamsTuXeCOm9hG7uAfa+LeOIIABBAAEQABBAAIIAAiAAAAAAAAAAA==

> <PUBCHEM_IUPAC_OPENEYE_NAME>
(2S,4S)-2-amino-5-[(R)-[(2R,3S,6S,9S,10R)-9-(carboxymethylcarbamoyl)-10-ethyl-2,13-dihydroxy-6-isopropyl-10-methyl-3-(methylamino)-4,7-dioxo-11-oxa-5,8-diazabicyclo[10.3.1]hexadeca-1(16),12,14-trien-15-yl]sulfinyl]-4-hydroxy-pentanoic acid

> <PUBCHEM_IUPAC_CAS_NAME>
(2S,4S)-2-amino-5-[(R)-[(2R,3S,6S,9S,10R)-9-[(carboxymethylamino)-oxomethyl]-10-ethyl-2,13-dihydroxy-10-methyl-3-(methylamino)-4,7-dioxo-6-propan-2-yl-11-oxa-5,8-diazabicyclo[10.3.1]hexadeca-1(16),12,14-trien-15-yl]sulfinyl]-4-hydroxypentanoic acid

> <PUBCHEM_IUPAC_NAME>
(2S,4S)-2-amino-5-[(R)-[(2R,3S,6S,9S,10R)-9-(carboxymethylcarbamoyl)-10-ethyl-2,13-dihydroxy-10-methyl-3-(methylamino)-4,7-dioxo-6-propan-2-yl-11-oxa-5,8-diazabicyclo[10.3.1]hexadeca-1(16),12,14-trien-15-yl]sulfinyl]-4-hydroxypentanoic acid

> <PUBCHEM_IUPAC_SYSTEMATIC_NAME>
(2S,4S)-2-azanyl-5-[(R)-[(2R,3S,6S,9S,10R)-10-ethyl-9-(2-hydroxy-2-oxoethylcarbamoyl)-10-methyl-3-(methylamino)-2,13-bis(oxidanyl)-4,7-bis(oxidanylidene)-6-propan-2-yl-11-oxa-5,8-diazabicyclo[10.3.1]hexadeca-1(16),12,14-trien-15-yl]sulfinyl]-4-oxidanyl-pentanoic acid

> <PUBCHEM_IUPAC_TRADITIONAL_NAME>
(2S,4S)-2-amino-5-[(R)-[(2R,3S,6S,9S,10R)-9-(carboxymethylcarbamoyl)-10-ethyl-2,13-dihydroxy-6-isopropyl-4,7-diketo-10-methyl-3-(methylamino)-11-oxa-5,8-diazabicyclo[10.3.1]hexadeca-1(16),12,14-trien-15-yl]sulfinyl]-4-hydroxy-valeric acid

> <PUBCHEM_IUPAC_INCHI>
InChI=1S/C28H43N5O12S/c1-6-28(4)23(26(41)31-10-19(36)37)33-24(39)20(12(2)3)32-25(40)21(30-5)22(38)14-8-17(45-28)16(35)9-18(14)46(44)11-13(34)7-15(29)27(42)43/h8-9,12-13,15,20-23,30,34-35,38H,6-7,10-11,29H2,1-5H3,(H,31,41)(H,32,40)(H,33,39)(H,36,37)(H,42,43)/t13-,15-,20-,21-,22+,23+,28+,46+/m0/s1

> <PUBCHEM_IUPAC_INCHIKEY>
QRLBQXQEGMBXFM-JHIHKWCFSA-N

> <PUBCHEM_XLOGP3_AA>
-6.8

> <PUBCHEM_EXACT_MASS>
673.262893

> <PUBCHEM_MOLECULAR_FORMULA>
C28H43N5O12S

> <PUBCHEM_MOLECULAR_WEIGHT>
673.73232

> <PUBCHEM_OPENEYE_CAN_SMILES>
CCC1(C(NC(=O)C(NC(=O)C(C(C2=CC(=C(C=C2S(=O)CC(CC(C(=O)O)N)O)O)O1)O)NC)C(C)C)C(=O)NCC(=O)O)C

> <PUBCHEM_OPENEYE_ISO_SMILES>
CC[C@@]1([C@H](NC(=O)[C@@H](NC(=O)[C@H]([C@@H](C2=CC(=C(C=C2[S@](=O)C[C@H](C[C@@H](C(=O)O)N)O)O)O1)O)NC)C(C)C)C(=O)NCC(=O)O)C

> <PUBCHEM_CACTVS_TPSA>
306

> <PUBCHEM_MONOISOTOPIC_WEIGHT>
673.262893

> <PUBCHEM_TOTAL_CHARGE>
0

> <PUBCHEM_HEAVY_ATOM_COUNT>
46

> <PUBCHEM_ATOM_DEF_STEREO_COUNT>
8

> <PUBCHEM_ATOM_UDEF_STEREO_COUNT>
0

> <PUBCHEM_BOND_DEF_STEREO_COUNT>
0

> <PUBCHEM_BOND_UDEF_STEREO_COUNT>
0

> <PUBCHEM_ISOTOPIC_ATOM_COUNT>
0

> <PUBCHEM_COMPONENT_COUNT>
1

> <PUBCHEM_CACTVS_TAUTO_COUNT>
18

> <PUBCHEM_COORDINATE_TYPE>
1
5
255

> <PUBCHEM_BONDANNOTATIONS>
1  39  5
26  17  5
44  18  5
19  23  5
20  28  6
22  24  6
29  33  8
29  34  8
27  3  5
30  33  8
30  37  8
34  38  8
37  38  8
40  8  6

$$$$

