91613
  -OEChem-07051213112D

 20 20  0     0  0  0  0  0  0999 V2000
    3.7601   -0.4594    0.0000 N   0  0  0  0  0  0  0  0  0  0  0  0
    3.2601    1.0794    0.0000 N   0  0  0  0  0  0  0  0  0  0  0  0
    7.2144    0.1795    0.0000 N   0  0  0  0  0  0  0  0  0  0  0  0
    5.5202   -0.1807    0.0000 C   0  0  0  0  0  0  0  0  0  0  0  0
    4.5691    0.1284    0.0000 C   0  0  0  0  0  0  0  0  0  0  0  0
    6.2633    0.4885    0.0000 C   0  0  0  0  0  0  0  0  0  0  0  0
    2.9511    0.1284    0.0000 C   0  0  0  0  0  0  0  0  0  0  0  0
    4.2601    1.0794    0.0000 C   0  0  0  0  0  0  0  0  0  0  0  0
    2.0000   -0.1807    0.0000 C   0  0  0  0  0  0  0  0  0  0  0  0
    5.2291   -0.7281    0.0000 H   0  0  0  0  0  0  0  0  0  0  0  0
    6.0087   -0.5624    0.0000 H   0  0  0  0  0  0  0  0  0  0  0  0
    6.5544    1.0359    0.0000 H   0  0  0  0  0  0  0  0  0  0  0  0
    5.7747    0.8702    0.0000 H   0  0  0  0  0  0  0  0  0  0  0  0
    3.7601   -1.0794    0.0000 H   0  0  0  0  0  0  0  0  0  0  0  0
    4.6245    1.5810    0.0000 H   0  0  0  0  0  0  0  0  0  0  0  0
    1.8084    0.4090    0.0000 H   0  0  0  0  0  0  0  0  0  0  0  0
    1.4103   -0.3722    0.0000 H   0  0  0  0  0  0  0  0  0  0  0  0
    2.1916   -0.7703    0.0000 H   0  0  0  0  0  0  0  0  0  0  0  0
    7.6751    0.5943    0.0000 H   0  0  0  0  0  0  0  0  0  0  0  0
    7.3432   -0.4270    0.0000 H   0  0  0  0  0  0  0  0  0  0  0  0
  1  5  1  0  0  0  0
  1  7  1  0  0  0  0
  1 14  1  0  0  0  0
  2  7  2  0  0  0  0
  2  8  1  0  0  0  0
  3  6  1  0  0  0  0
  3 19  1  0  0  0  0
  3 20  1  0  0  0  0
  4  5  1  0  0  0  0
  4  6  1  0  0  0  0
  4 10  1  0  0  0  0
  4 11  1  0  0  0  0
  5  8  2  0  0  0  0
  6 12  1  0  0  0  0
  6 13  1  0  0  0  0
  7  9  1  0  0  0  0
  8 15  1  0  0  0  0
  9 16  1  0  0  0  0
  9 17  1  0  0  0  0
  9 18  1  0  0  0  0
M  END
> <PUBCHEM_COMPOUND_CID>
91613

> <PUBCHEM_COMPOUND_CANONICALIZED>
1

> <PUBCHEM_CACTVS_COMPLEXITY>
84.4

> <PUBCHEM_CACTVS_HBOND_ACCEPTOR>
2

> <PUBCHEM_CACTVS_HBOND_DONOR>
2

> <PUBCHEM_CACTVS_ROTATABLE_BOND>
2

> <PUBCHEM_CACTVS_SUBSKEYS>
AAADccBjAAAAAAAAAAAAAAAAAAAAAWAAAAAAAAAAAAAAAAABgAAAHAAQAAAACAjBFwQvkBbJkACgARZnZAAAgC2xEqABUYA4cAiAaABAyQEUAAAIEALAQCAAAAAAAAAAAAAAAAAAAAAAAAAAAAAAAAAAAA==

> <PUBCHEM_IUPAC_OPENEYE_NAME>
2-(2-methyl-1H-imidazol-5-yl)ethanamine

> <PUBCHEM_IUPAC_CAS_NAME>
2-(2-methyl-1H-imidazol-5-yl)ethanamine

> <PUBCHEM_IUPAC_NAME>
2-(2-methyl-1H-imidazol-5-yl)ethanamine

> <PUBCHEM_IUPAC_SYSTEMATIC_NAME>
2-(2-methyl-1H-imidazol-5-yl)ethanamine

> <PUBCHEM_IUPAC_TRADITIONAL_NAME>
2-(2-methyl-1H-imidazol-5-yl)ethylamine

> <PUBCHEM_IUPAC_INCHI>
InChI=1S/C6H11N3/c1-5-8-4-6(9-5)2-3-7/h4H,2-3,7H2,1H3,(H,8,9)

> <PUBCHEM_IUPAC_INCHIKEY>
XDKYTXBAVJELDQ-UHFFFAOYSA-N

> <PUBCHEM_XLOGP3_AA>
-0.2

> <PUBCHEM_EXACT_MASS>
125.095297

> <PUBCHEM_MOLECULAR_FORMULA>
C6H11N3

> <PUBCHEM_MOLECULAR_WEIGHT>
125.17164

> <PUBCHEM_OPENEYE_CAN_SMILES>
CC1=NC=C(N1)CCN

> <PUBCHEM_OPENEYE_ISO_SMILES>
CC1=NC=C(N1)CCN

> <PUBCHEM_CACTVS_TPSA>
54.7

> <PUBCHEM_MONOISOTOPIC_WEIGHT>
125.095297

> <PUBCHEM_TOTAL_CHARGE>
0

> <PUBCHEM_HEAVY_ATOM_COUNT>
9

> <PUBCHEM_ATOM_DEF_STEREO_COUNT>
0

> <PUBCHEM_ATOM_UDEF_STEREO_COUNT>
0

> <PUBCHEM_BOND_DEF_STEREO_COUNT>
0

> <PUBCHEM_BOND_UDEF_STEREO_COUNT>
0

> <PUBCHEM_ISOTOPIC_ATOM_COUNT>
0

> <PUBCHEM_COMPONENT_COUNT>
1

> <PUBCHEM_CACTVS_TAUTO_COUNT>
2

> <PUBCHEM_COORDINATE_TYPE>
1
5
255

> <PUBCHEM_BONDANNOTATIONS>
1  5  8
1  7  8
2  7  8
2  8  8
5  8  8

$$$$

