439361
  -OEChem-07051212452D

 35 35  0     1  0  0  0  0  0999 V2000
    5.3100   -1.4890    0.0000 O   0  0  0  0  0  0  0  0  0  0  0  0
    6.8100    2.3770    0.0000 O   0  0  0  0  0  0  0  0  0  0  0  0
    5.3100    3.2430    0.0000 O   0  0  0  0  0  0  0  0  0  0  0  0
    3.3100    1.5110    0.0000 O   0  0  0  0  0  0  0  0  0  0  0  0
    3.5780   -3.4890    0.0000 O   0  0  0  0  0  0  0  0  0  0  0  0
    3.5780   -1.4890    0.0000 O   0  0  0  0  0  0  0  0  0  0  0  0
    2.3100    3.2430    0.0000 O   0  0  0  0  0  0  0  0  0  0  0  0
    3.8100    4.1090    0.0000 O   0  0  0  0  0  0  0  0  0  0  0  0
    5.3100    1.5110    0.0000 C   0  0  0  0  0  0  0  0  0  0  0  0
    4.8100    2.3770    0.0000 C   0  0  0  0  0  0  0  0  0  0  0  0
    4.4440    1.0110    0.0000 C   0  0  0  0  0  0  0  0  0  0  0  0
    6.1760    1.0110    0.0000 C   0  0  0  0  0  0  0  0  0  0  0  0
    5.3100   -0.4890    0.0000 C   0  0  0  0  0  0  0  0  0  0  0  0
    4.4440    0.0110    0.0000 C   0  0  0  0  0  0  0  0  0  0  0  0
    6.1760    0.0110    0.0000 C   0  0  0  0  0  0  0  0  0  0  0  0
    5.8100    2.3770    0.0000 C   0  0  0  0  0  0  0  0  0  0  0  0
    3.8100    2.3770    0.0000 C   0  0  0  0  0  0  0  0  0  0  0  0
    4.4440   -1.9890    0.0000 C   0  0  0  0  0  0  0  0  0  0  0  0
    4.4440   -2.9890    0.0000 C   0  0  1  0  0  0  0  0  0  0  0  0
    3.3100    3.2430    0.0000 C   0  0  0  0  0  0  0  0  0  0  0  0
    5.3100   -3.4890    0.0000 C   0  0  0  0  0  0  0  0  0  0  0  0
    5.3926    2.5890    0.0000 H   0  0  0  0  0  0  0  0  0  0  0  0
    4.7023    2.9876    0.0000 H   0  0  0  0  0  0  0  0  0  0  0  0
    3.9070    1.3210    0.0000 H   0  0  0  0  0  0  0  0  0  0  0  0
    6.7130    1.3210    0.0000 H   0  0  0  0  0  0  0  0  0  0  0  0
    5.8469   -0.7990    0.0000 H   0  0  0  0  0  0  0  0  0  0  0  0
    3.9070   -0.2990    0.0000 H   0  0  0  0  0  0  0  0  0  0  0  0
    6.7130   -0.2990    0.0000 H   0  0  0  0  0  0  0  0  0  0  0  0
    3.9070   -2.6790    0.0000 H   0  0  0  0  0  0  0  0  0  0  0  0
    7.1200    2.9139    0.0000 H   0  0  0  0  0  0  0  0  0  0  0  0
    5.0000   -4.0260    0.0000 H   0  0  0  0  0  0  0  0  0  0  0  0
    5.8469   -3.7990    0.0000 H   0  0  0  0  0  0  0  0  0  0  0  0
    5.6200   -2.9521    0.0000 H   0  0  0  0  0  0  0  0  0  0  0  0
    3.5780   -4.1090    0.0000 H   0  0  0  0  0  0  0  0  0  0  0  0
    2.0000    3.7800    0.0000 H   0  0  0  0  0  0  0  0  0  0  0  0
  1 13  1  0  0  0  0
  1 18  1  0  0  0  0
  2 16  1  0  0  0  0
  2 30  1  0  0  0  0
  3 16  2  0  0  0  0
  4 17  2  0  0  0  0
 19  5  1  1  0  0  0
  5 34  1  0  0  0  0
  6 18  2  0  0  0  0
  7 20  1  0  0  0  0
  7 35  1  0  0  0  0
  8 20  2  0  0  0  0
  9 10  1  0  0  0  0
  9 11  1  0  0  0  0
  9 12  1  0  0  0  0
  9 16  1  0  0  0  0
 10 17  1  0  0  0  0
 10 22  1  0  0  0  0
 10 23  1  0  0  0  0
 11 14  2  0  0  0  0
 11 24  1  0  0  0  0
 12 15  2  0  0  0  0
 12 25  1  0  0  0  0
 13 14  1  0  0  0  0
 13 15  1  0  0  0  0
 13 26  1  0  0  0  0
 14 27  1  0  0  0  0
 15 28  1  0  0  0  0
 17 20  1  0  0  0  0
 18 19  1  0  0  0  0
 19 21  1  0  0  0  0
 19 29  1  0  0  0  0
 21 31  1  0  0  0  0
 21 32  1  0  0  0  0
 21 33  1  0  0  0  0
M  END
> <PUBCHEM_COMPOUND_CID>
439361

> <PUBCHEM_COMPOUND_CANONICALIZED>
1

> <PUBCHEM_CACTVS_COMPLEXITY>
516

> <PUBCHEM_CACTVS_HBOND_ACCEPTOR>
8

> <PUBCHEM_CACTVS_HBOND_DONOR>
3

> <PUBCHEM_CACTVS_ROTATABLE_BOND>
7

> <PUBCHEM_CACTVS_SUBSKEYS>
AAADccBwPAAAAAAAAAAAAAAAAAAAAAAAAAAgAAAAAAAAAAAAAAAAGgAACAAADhSggAICCAAABgCIAKDSCAIAAAAgAAAICAFAAAgBFBIAIQACUAAEwAALIAKLJgANAAAAAAAAAAAAAAAAAAAAAAAAAAAAAA==

> <PUBCHEM_IUPAC_OPENEYE_NAME>
1-(2-carboxy-2-oxo-ethyl)-4-[(2R)-2-hydroxypropanoyl]oxy-cyclohexa-2,5-diene-1-carboxylic acid

> <PUBCHEM_IUPAC_CAS_NAME>
1-(2-carboxy-2-oxoethyl)-4-[(2R)-2-hydroxy-1-oxopropoxy]-1-cyclohexa-2,5-dienecarboxylic acid

> <PUBCHEM_IUPAC_NAME>
1-(2-carboxy-2-oxoethyl)-4-[(2R)-2-hydroxypropanoyl]oxycyclohexa-2,5-diene-1-carboxylic acid

> <PUBCHEM_IUPAC_SYSTEMATIC_NAME>
1-[3-oxidanyl-2,3-bis(oxidanylidene)propyl]-4-[(2R)-2-oxidanylpropanoyl]oxy-cyclohexa-2,5-diene-1-carboxylic acid

> <PUBCHEM_IUPAC_TRADITIONAL_NAME>
1-(2-carboxy-2-keto-ethyl)-4-[(2R)-2-hydroxypropanoyl]oxy-cyclohexa-2,5-diene-1-carboxylic acid

> <PUBCHEM_IUPAC_INCHI>
InChI=1S/C13H14O8/c1-7(14)11(18)21-8-2-4-13(5-3-8,12(19)20)6-9(15)10(16)17/h2-5,7-8,14H,6H2,1H3,(H,16,17)(H,19,20)/t7-,8?,13?/m1/s1

> <PUBCHEM_IUPAC_INCHIKEY>
LNGMWZFHTXFDNM-UYVLXELHSA-N

> <PUBCHEM_XLOGP3_AA>
-0.2

> <PUBCHEM_EXACT_MASS>
298.068867

> <PUBCHEM_MOLECULAR_FORMULA>
C13H14O8

> <PUBCHEM_MOLECULAR_WEIGHT>
298.24546

> <PUBCHEM_OPENEYE_CAN_SMILES>
CC(C(=O)OC1C=CC(C=C1)(CC(=O)C(=O)O)C(=O)O)O

> <PUBCHEM_OPENEYE_ISO_SMILES>
C[C@H](C(=O)OC1C=CC(C=C1)(CC(=O)C(=O)O)C(=O)O)O

> <PUBCHEM_CACTVS_TPSA>
138

> <PUBCHEM_MONOISOTOPIC_WEIGHT>
298.068867

> <PUBCHEM_TOTAL_CHARGE>
0

> <PUBCHEM_HEAVY_ATOM_COUNT>
21

> <PUBCHEM_ATOM_DEF_STEREO_COUNT>
1

> <PUBCHEM_ATOM_UDEF_STEREO_COUNT>
0

> <PUBCHEM_BOND_DEF_STEREO_COUNT>
0

> <PUBCHEM_BOND_UDEF_STEREO_COUNT>
0

> <PUBCHEM_ISOTOPIC_ATOM_COUNT>
0

> <PUBCHEM_COMPONENT_COUNT>
1

> <PUBCHEM_CACTVS_TAUTO_COUNT>
2

> <PUBCHEM_COORDINATE_TYPE>
1
5
255

> <PUBCHEM_BONDANNOTATIONS>
19  5  5

$$$$

