442976
  -OEChem-07051213002D

 79 85  0     1  0  0  0  0  0999 V2000
    3.9782   -0.4223    0.0000 O   0  0  0  0  0  0  0  0  0  0  0  0
    5.2667    2.0727    0.0000 O   0  0  0  0  0  0  0  0  0  0  0  0
    2.3121   -1.8806    0.0000 O   0  0  0  0  0  0  0  0  0  0  0  0
    3.7474    1.6807    0.0000 O   0  0  0  0  0  0  0  0  0  0  0  0
    5.0435    2.8067    0.0000 O   0  0  0  0  0  0  0  0  0  0  0  0
    6.7755    3.8067    0.0000 O   0  0  0  0  0  0  0  0  0  0  0  0
    3.1677   -3.6812    0.0000 O   0  0  0  0  0  0  0  0  0  0  0  0
    9.0254    3.7131    0.0000 O   0  0  0  0  0  0  0  0  0  0  0  0
    9.4416    1.2859    0.0000 N   0  0  3  0  0  0  0  0  0  0  0  0
    5.5776   -0.2682    0.0000 C   0  0  2  0  0  0  0  0  0  0  0  0
    5.1725    0.6396    0.0000 C   0  0  2  0  0  0  0  0  0  0  0  0
    4.9827   -1.1157    0.0000 C   0  0  2  0  0  0  0  0  0  0  0  0
    5.9095    1.3067    0.0000 C   0  0  2  0  0  0  0  0  0  0  0  0
    6.7755    0.8067    0.0000 C   0  0  1  0  0  0  0  0  0  0  0  0
    3.9520   -1.0163    0.0000 C   0  0  1  0  0  0  0  0  0  0  0  0
    6.5663   -0.1651    0.0000 C   0  0  0  0  0  0  0  0  0  0  0  0
    3.3121   -1.8845    0.0000 C   0  0  1  0  0  0  0  0  0  0  0  0
    7.6415    1.3067    0.0000 C   0  0  1  0  0  0  0  0  0  0  0  0
    4.1444    0.7628    0.0000 C   0  0  1  0  0  0  0  0  0  0  0  0
    3.5300   -0.0707    0.0000 C   0  0  0  0  0  0  0  0  0  0  0  0
    5.9095    2.3067    0.0000 C   0  0  2  0  0  0  0  0  0  0  0  0
    5.4449   -2.0902    0.0000 C   0  0  0  0  0  0  0  0  0  0  0  0
    7.6415    2.3067    0.0000 C   0  0  2  0  0  0  0  0  0  0  0  0
    6.7755    2.8067    0.0000 C   0  0  1  0  0  0  0  0  0  0  0  0
    3.7516   -2.8694    0.0000 C   0  0  2  0  0  0  0  0  0  0  0  0
    5.9781   -1.2117    0.0000 C   0  0  0  0  0  0  0  0  0  0  0  0
    4.8252   -2.9730    0.0000 C   0  0  0  0  0  0  0  0  0  0  0  0
    8.5355    2.8414    0.0000 C   0  0  1  0  0  0  0  0  0  0  0  0
    8.5355    0.7720    0.0000 C   0  0  0  0  0  0  0  0  0  0  0  0
    9.4416    2.3275    0.0000 C   0  0  2  0  0  0  0  0  0  0  0  0
   10.3727    2.8844    0.0000 C   0  0  0  0  0  0  0  0  0  0  0  0
    8.0255    3.7016    0.0000 C   0  0  0  0  0  0  0  0  0  0  0  0
   10.3727    0.7290    0.0000 C   0  0  0  0  0  0  0  0  0  0  0  0
   11.3165    1.2642    0.0000 C   0  0  2  0  0  0  0  0  0  0  0  0
   11.3165    2.3492    0.0000 C   0  0  0  0  0  0  0  0  0  0  0  0
   12.1806    0.7609    0.0000 C   0  0  0  0  0  0  0  0  0  0  0  0
    4.8261    1.4158    0.0000 H   0  0  0  0  0  0  0  0  0  0  0  0
    7.4625    0.3062    0.0000 H   0  0  0  0  0  0  0  0  0  0  0  0
    3.1059   -0.9347    0.0000 H   0  0  0  0  0  0  0  0  0  0  0  0
    6.5654   -0.7851    0.0000 H   0  0  0  0  0  0  0  0  0  0  0  0
    7.1828   -0.2312    0.0000 H   0  0  0  0  0  0  0  0  0  0  0  0
    7.6350    0.4567    0.0000 H   0  0  0  0  0  0  0  0  0  0  0  0
    3.5284    0.8330    0.0000 H   0  0  0  0  0  0  0  0  0  0  0  0
    3.1012    0.3771    0.0000 H   0  0  0  0  0  0  0  0  0  0  0  0
    3.0154   -0.4165    0.0000 H   0  0  0  0  0  0  0  0  0  0  0  0
    5.9095    2.9267    0.0000 H   0  0  0  0  0  0  0  0  0  0  0  0
    5.8839   -2.5280    0.0000 H   0  0  0  0  0  0  0  0  0  0  0  0
    5.9513   -1.7326    0.0000 H   0  0  0  0  0  0  0  0  0  0  0  0
    7.6350    3.1567    0.0000 H   0  0  0  0  0  0  0  0  0  0  0  0
    7.3124    3.1167    0.0000 H   0  0  0  0  0  0  0  0  0  0  0  0
    4.0076   -3.4342    0.0000 H   0  0  0  0  0  0  0  0  0  0  0  0
    5.9185   -1.8288    0.0000 H   0  0  0  0  0  0  0  0  0  0  0  0
    6.5952   -1.2712    0.0000 H   0  0  0  0  0  0  0  0  0  0  0  0
    6.0376   -0.5945    0.0000 H   0  0  0  0  0  0  0  0  0  0  0  0
    4.6610   -3.5708    0.0000 H   0  0  0  0  0  0  0  0  0  0  0  0
    5.3861   -3.2371    0.0000 H   0  0  0  0  0  0  0  0  0  0  0  0
    8.1309    0.3023    0.0000 H   0  0  0  0  0  0  0  0  0  0  0  0
    8.9291    0.2930    0.0000 H   0  0  0  0  0  0  0  0  0  0  0  0
    9.4317    3.1775    0.0000 H   0  0  0  0  0  0  0  0  0  0  0  0
    4.6561    1.9651    0.0000 H   0  0  0  0  0  0  0  0  0  0  0  0
    2.0000   -2.4164    0.0000 H   0  0  0  0  0  0  0  0  0  0  0  0
    3.1316    1.7521    0.0000 H   0  0  0  0  0  0  0  0  0  0  0  0
    5.0435    3.4267    0.0000 H   0  0  0  0  0  0  0  0  0  0  0  0
   10.7663    3.3634    0.0000 H   0  0  0  0  0  0  0  0  0  0  0  0
    9.9681    3.3542    0.0000 H   0  0  0  0  0  0  0  0  0  0  0  0
    8.5588    4.0177    0.0000 H   0  0  0  0  0  0  0  0  0  0  0  0
    7.7093    4.2349    0.0000 H   0  0  0  0  0  0  0  0  0  0  0  0
    7.4922    3.3854    0.0000 H   0  0  0  0  0  0  0  0  0  0  0  0
    9.9681    0.2592    0.0000 H   0  0  0  0  0  0  0  0  0  0  0  0
   10.7663    0.2499    0.0000 H   0  0  0  0  0  0  0  0  0  0  0  0
    6.2386    4.1167    0.0000 H   0  0  0  0  0  0  0  0  0  0  0  0
    3.4225   -4.2464    0.0000 H   0  0  0  0  0  0  0  0  0  0  0  0
    8.7093    4.2464    0.0000 H   0  0  0  0  0  0  0  0  0  0  0  0
   11.3129    0.6442    0.0000 H   0  0  0  0  0  0  0  0  0  0  0  0
   11.9274    2.2431    0.0000 H   0  0  0  0  0  0  0  0  0  0  0  0
   11.5255    2.9329    0.0000 H   0  0  0  0  0  0  0  0  0  0  0  0
   11.8685    0.2251    0.0000 H   0  0  0  0  0  0  0  0  0  0  0  0
   12.7163    0.4488    0.0000 H   0  0  0  0  0  0  0  0  0  0  0  0
   12.4927    1.2966    0.0000 H   0  0  0  0  0  0  0  0  0  0  0  0
  1 10  1  0  0  0  0
  1 17  1  0  0  0  0
 13  2  1  1  0  0  0
  2 60  1  0  0  0  0
 17  3  1  6  0  0  0
  3 61  1  0  0  0  0
 19  4  1  1  0  0  0
  4 62  1  0  0  0  0
 21  5  1  1  0  0  0
  5 63  1  0  0  0  0
 24  6  1  6  0  0  0
  6 71  1  0  0  0  0
 25  7  1  6  0  0  0
  7 72  1  0  0  0  0
 28  8  1  6  0  0  0
  8 73  1  0  0  0  0
  9 29  1  0  0  0  0
  9 30  1  0  0  0  0
  9 33  1  0  0  0  0
 10 11  1  0  0  0  0
 10 12  1  0  0  0  0
 10 16  1  1  0  0  0
 11 13  1  0  0  0  0
 11 19  1  0  0  0  0
 11 37  1  6  0  0  0
 12 15  1  0  0  0  0
 12 22  1  0  0  0  0
 12 26  1  6  0  0  0
 13 14  1  0  0  0  0
 13 21  1  0  0  0  0
 14 16  1  0  0  0  0
 14 18  1  0  0  0  0
 14 38  1  1  0  0  0
 15 17  1  0  0  0  0
 15 20  1  0  0  0  0
 15 39  1  6  0  0  0
 16 40  1  0  0  0  0
 16 41  1  0  0  0  0
 17 25  1  0  0  0  0
 18 23  1  0  0  0  0
 18 29  1  0  0  0  0
 18 42  1  6  0  0  0
 19 20  1  0  0  0  0
 19 43  1  0  0  0  0
 20 44  1  0  0  0  0
 20 45  1  0  0  0  0
 21 24  1  0  0  0  0
 21 46  1  0  0  0  0
 22 27  1  0  0  0  0
 22 47  1  0  0  0  0
 22 48  1  0  0  0  0
 23 24  1  0  0  0  0
 23 28  1  0  0  0  0
 23 49  1  1  0  0  0
 24 50  1  0  0  0  0
 25 27  1  0  0  0  0
 25 51  1  0  0  0  0
 26 52  1  0  0  0  0
 26 53  1  0  0  0  0
 26 54  1  0  0  0  0
 27 55  1  0  0  0  0
 27 56  1  0  0  0  0
 28 30  1  0  0  0  0
 28 32  1  0  0  0  0
 29 57  1  0  0  0  0
 29 58  1  0  0  0  0
 30 31  1  0  0  0  0
 30 59  1  1  0  0  0
 31 35  1  0  0  0  0
 31 64  1  0  0  0  0
 31 65  1  0  0  0  0
 32 66  1  0  0  0  0
 32 67  1  0  0  0  0
 32 68  1  0  0  0  0
 33 34  1  0  0  0  0
 33 69  1  0  0  0  0
 33 70  1  0  0  0  0
 34 35  1  0  0  0  0
 34 36  1  6  0  0  0
 34 74  1  0  0  0  0
 35 75  1  0  0  0  0
 35 76  1  0  0  0  0
 36 77  1  0  0  0  0
 36 78  1  0  0  0  0
 36 79  1  0  0  0  0
M  END
> <PUBCHEM_COMPOUND_CID>
442976

> <PUBCHEM_COMPOUND_CANONICALIZED>
1

> <PUBCHEM_CACTVS_COMPLEXITY>
968

> <PUBCHEM_CACTVS_HBOND_ACCEPTOR>
9

> <PUBCHEM_CACTVS_HBOND_DONOR>
7

> <PUBCHEM_CACTVS_ROTATABLE_BOND>
0

> <PUBCHEM_CACTVS_SUBSKEYS>
AAADcfB6PAAAAAAAAAAAAAAAAAAAAaIAAAA8eMECBIkAAGCwAAAAHgAACAAAD3zhgAYCCAMABgAAAAAAAAAAAAAAAAAAAAAIAAATEAIAgAAGQAAFAACXAAHw8P8PgAAAAAAAAADAAAYQADCAAYQADAAAAA==

> <PUBCHEM_IUPAC_INCHI>
InChI=1S/C27H43NO8/c1-12-4-5-17-24(3,33)19-13(11-28(17)10-12)14-9-25-21(26(14,34)22(32)20(19)31)15(29)8-16-23(25,2)7-6-18(30)27(16,35)36-25/h12-22,29-35H,4-11H2,1-3H3/t12-,13-,14-,15+,16-,17-,18-,19+,20+,21+,22-,23-,24+,25+,26-,27-/m0/s1

> <PUBCHEM_IUPAC_INCHIKEY>
RNPABQVCNAUEIY-GUQYYFCISA-N

> <PUBCHEM_XLOGP3_AA>
-1

> <PUBCHEM_EXACT_MASS>
509.298867

> <PUBCHEM_MOLECULAR_FORMULA>
C27H43NO8

> <PUBCHEM_MOLECULAR_WEIGHT>
509.63222

> <PUBCHEM_OPENEYE_CAN_SMILES>
CC1CCC2C(C3C(CN2C1)C4CC56C(C4(C(C3O)O)O)C(CC7C5(CCC(C7(O6)O)O)C)O)(C)O

> <PUBCHEM_OPENEYE_ISO_SMILES>
C[C@H]1CC[C@H]2[C@@]([C@@H]3[C@@H](CN2C1)[C@@H]4C[C@@]56[C@H]([C@@]4([C@H]([C@@H]3O)O)O)[C@@H](C[C@H]7[C@@]5(CC[C@@H]([C@]7(O6)O)O)C)O)(C)O

> <PUBCHEM_CACTVS_TPSA>
154

> <PUBCHEM_MONOISOTOPIC_WEIGHT>
509.298867

> <PUBCHEM_TOTAL_CHARGE>
0

> <PUBCHEM_HEAVY_ATOM_COUNT>
36

> <PUBCHEM_ATOM_DEF_STEREO_COUNT>
16

> <PUBCHEM_ATOM_UDEF_STEREO_COUNT>
0

> <PUBCHEM_BOND_DEF_STEREO_COUNT>
0

> <PUBCHEM_BOND_UDEF_STEREO_COUNT>
0

> <PUBCHEM_ISOTOPIC_ATOM_COUNT>
0

> <PUBCHEM_COMPONENT_COUNT>
1

> <PUBCHEM_CACTVS_TAUTO_COUNT>
1

> <PUBCHEM_COORDINATE_TYPE>
1
5
255

> <PUBCHEM_BONDANNOTATIONS>
10  16  5
11  37  6
12  26  6
14  38  5
15  39  6
18  42  6
13  2  5
23  49  5
17  3  6
30  59  5
34  36  6
19  4  5
21  5  5
24  6  6
25  7  6
28  8  6

$$$$

