13327
  -OEChem-07051213112D

 54 57  0     1  0  0  0  0  0999 V2000
    3.8114   -3.2551    0.0000 Cl  0  0  0  0  0  0  0  0  0  0  0  0
    8.6500    2.0983    0.0000 O   0  0  0  0  0  0  0  0  0  0  0  0
    2.0000   -2.2092    0.0000 O   0  0  0  0  0  0  0  0  0  0  0  0
   10.2963    1.5603    0.0000 O   0  0  0  0  0  0  0  0  0  0  0  0
    7.3931   -0.1569    0.0000 C   0  0  2  0  0  0  0  0  0  0  0  0
    7.3931    0.8431    0.0000 C   0  0  2  0  0  0  0  0  0  0  0  0
    6.5271   -0.6569    0.0000 C   0  0  1  0  0  0  0  0  0  0  0  0
    5.6610   -0.1569    0.0000 C   0  0  1  0  0  0  0  0  0  0  0  0
    4.7510   -0.6638    0.0000 C   0  0  2  0  0  0  0  0  0  0  0  0
    6.5271    1.3431    0.0000 C   0  0  0  0  0  0  0  0  0  0  0  0
    5.6610    0.8431    0.0000 C   0  0  0  0  0  0  0  0  0  0  0  0
    8.3393    1.1478    0.0000 C   0  0  2  0  0  0  0  0  0  0  0  0
    8.3393   -0.4616    0.0000 C   0  0  0  0  0  0  0  0  0  0  0  0
    6.5431   -1.6984    0.0000 C   0  0  0  0  0  0  0  0  0  0  0  0
    8.9229    0.3431    0.0000 C   0  0  0  0  0  0  0  0  0  0  0  0
    4.7430   -1.7054    0.0000 C   0  0  0  0  0  0  0  0  0  0  0  0
    7.3931    1.8431    0.0000 C   0  0  0  0  0  0  0  0  0  0  0  0
    5.6451   -2.2262    0.0000 C   0  0  0  0  0  0  0  0  0  0  0  0
    3.8242   -0.0997    0.0000 C   0  0  0  0  0  0  0  0  0  0  0  0
    4.7587    0.3362    0.0000 C   0  0  0  0  0  0  0  0  0  0  0  0
    2.8763   -0.6276    0.0000 C   0  0  0  0  0  0  0  0  0  0  0  0
    3.8076   -2.2551    0.0000 C   0  0  0  0  0  0  0  0  0  0  0  0
    2.8680   -1.7126    0.0000 C   0  0  0  0  0  0  0  0  0  0  0  0
    9.6285    2.3046    0.0000 C   0  0  0  0  0  0  0  0  0  0  0  0
    9.9391    3.2551    0.0000 C   0  0  0  0  0  0  0  0  0  0  0  0
    7.4830   -1.0021    0.0000 H   0  0  0  0  0  0  0  0  0  0  0  0
    7.2664   -1.0762    0.0000 H   0  0  0  0  0  0  0  0  0  0  0  0
    6.3972    0.2681    0.0000 H   0  0  0  0  0  0  0  0  0  0  0  0
    6.9256    1.8180    0.0000 H   0  0  0  0  0  0  0  0  0  0  0  0
    6.1285    1.8180    0.0000 H   0  0  0  0  0  0  0  0  0  0  0  0
    5.4490    1.4257    0.0000 H   0  0  0  0  0  0  0  0  0  0  0  0
    5.0504    0.7354    0.0000 H   0  0  0  0  0  0  0  0  0  0  0  0
    7.9018    1.5872    0.0000 H   0  0  0  0  0  0  0  0  0  0  0  0
    8.0883   -1.0286    0.0000 H   0  0  0  0  0  0  0  0  0  0  0  0
    8.8767   -0.7709    0.0000 H   0  0  0  0  0  0  0  0  0  0  0  0
    6.7612   -2.2788    0.0000 H   0  0  0  0  0  0  0  0  0  0  0  0
    7.1523   -1.5829    0.0000 H   0  0  0  0  0  0  0  0  0  0  0  0
    9.3838   -0.0716    0.0000 H   0  0  0  0  0  0  0  0  0  0  0  0
    9.3838    0.7578    0.0000 H   0  0  0  0  0  0  0  0  0  0  0  0
    5.2478   -2.7022    0.0000 H   0  0  0  0  0  0  0  0  0  0  0  0
    6.0460   -2.6991    0.0000 H   0  0  0  0  0  0  0  0  0  0  0  0
    8.0131    1.8431    0.0000 H   0  0  0  0  0  0  0  0  0  0  0  0
    7.3931    2.4631    0.0000 H   0  0  0  0  0  0  0  0  0  0  0  0
    6.7731    1.8431    0.0000 H   0  0  0  0  0  0  0  0  0  0  0  0
    4.2324    0.3670    0.0000 H   0  0  0  0  0  0  0  0  0  0  0  0
    3.4343    0.3824    0.0000 H   0  0  0  0  0  0  0  0  0  0  0  0
    5.3787    0.3314    0.0000 H   0  0  0  0  0  0  0  0  0  0  0  0
    4.7635    0.9562    0.0000 H   0  0  0  0  0  0  0  0  0  0  0  0
    4.1388    0.3410    0.0000 H   0  0  0  0  0  0  0  0  0  0  0  0
    2.6718   -0.0423    0.0000 H   0  0  0  0  0  0  0  0  0  0  0  0
    2.2647   -0.7290    0.0000 H   0  0  0  0  0  0  0  0  0  0  0  0
   10.5285    3.0625    0.0000 H   0  0  0  0  0  0  0  0  0  0  0  0
   10.1317    3.8444    0.0000 H   0  0  0  0  0  0  0  0  0  0  0  0
    9.3498    3.4477    0.0000 H   0  0  0  0  0  0  0  0  0  0  0  0
  1 22  1  0  0  0  0
 12  2  1  1  0  0  0
  2 24  1  0  0  0  0
  3 23  2  0  0  0  0
  4 24  2  0  0  0  0
  5  6  1  0  0  0  0
  5  7  1  0  0  0  0
  5 13  1  0  0  0  0
  5 26  1  6  0  0  0
  6 10  1  0  0  0  0
  6 12  1  0  0  0  0
  6 17  1  1  0  0  0
  7  8  1  0  0  0  0
  7 14  1  0  0  0  0
  7 27  1  1  0  0  0
  8  9  1  0  0  0  0
  8 11  1  0  0  0  0
  8 28  1  6  0  0  0
  9 16  1  0  0  0  0
  9 19  1  0  0  0  0
  9 20  1  1  0  0  0
 10 11  1  0  0  0  0
 10 29  1  0  0  0  0
 10 30  1  0  0  0  0
 11 31  1  0  0  0  0
 11 32  1  0  0  0  0
 12 15  1  0  0  0  0
 12 33  1  0  0  0  0
 13 15  1  0  0  0  0
 13 34  1  0  0  0  0
 13 35  1  0  0  0  0
 14 18  1  0  0  0  0
 14 36  1  0  0  0  0
 14 37  1  0  0  0  0
 15 38  1  0  0  0  0
 15 39  1  0  0  0  0
 16 18  1  0  0  0  0
 16 22  2  0  0  0  0
 17 42  1  0  0  0  0
 17 43  1  0  0  0  0
 17 44  1  0  0  0  0
 18 40  1  0  0  0  0
 18 41  1  0  0  0  0
 19 21  1  0  0  0  0
 19 45  1  0  0  0  0
 19 46  1  0  0  0  0
 20 47  1  0  0  0  0
 20 48  1  0  0  0  0
 20 49  1  0  0  0  0
 21 23  1  0  0  0  0
 21 50  1  0  0  0  0
 21 51  1  0  0  0  0
 22 23  1  0  0  0  0
 24 25  1  0  0  0  0
 25 52  1  0  0  0  0
 25 53  1  0  0  0  0
 25 54  1  0  0  0  0
M  END
> <PUBCHEM_COMPOUND_CID>
13327

> <PUBCHEM_COMPOUND_CANONICALIZED>
1

> <PUBCHEM_CACTVS_COMPLEXITY>
654

> <PUBCHEM_CACTVS_HBOND_ACCEPTOR>
3

> <PUBCHEM_CACTVS_HBOND_DONOR>
0

> <PUBCHEM_CACTVS_ROTATABLE_BOND>
2

> <PUBCHEM_CACTVS_SUBSKEYS>
AAADceB4MAAEAAAAAAAAAAAAAAAAAYAAAAAwYIAAAAAAAGDAAAAAGgIAAAAADxaggAICCAAABACIAoDQCAAAAAAgAAAACAEAAkhAABIBAAACAAAEgAAIAQOIyPCPgAAAAAAAAACAAAQAACAAAIAADAAAAA==

> <PUBCHEM_IUPAC_OPENEYE_NAME>
[(8R,9S,10R,13S,14S,17S)-4-chloro-10,13-dimethyl-3-oxo-1,2,6,7,8,9,11,12,14,15,16,17-dodecahydrocyclopenta[a]phenanthren-17-yl] acetate

> <PUBCHEM_IUPAC_CAS_NAME>
acetic acid [(8R,9S,10R,13S,14S,17S)-4-chloro-10,13-dimethyl-3-oxo-1,2,6,7,8,9,11,12,14,15,16,17-dodecahydrocyclopenta[a]phenanthren-17-yl] ester

> <PUBCHEM_IUPAC_NAME>
[(8R,9S,10R,13S,14S,17S)-4-chloro-10,13-dimethyl-3-oxo-1,2,6,7,8,9,11,12,14,15,16,17-dodecahydrocyclopenta[a]phenanthren-17-yl] acetate

> <PUBCHEM_IUPAC_SYSTEMATIC_NAME>
[(8R,9S,10R,13S,14S,17S)-4-chloranyl-10,13-dimethyl-3-oxidanylidene-1,2,6,7,8,9,11,12,14,15,16,17-dodecahydrocyclopenta[a]phenanthren-17-yl] ethanoate

> <PUBCHEM_IUPAC_TRADITIONAL_NAME>
acetic acid [(8R,9S,10R,13S,14S,17S)-4-chloro-3-keto-10,13-dimethyl-1,2,6,7,8,9,11,12,14,15,16,17-dodecahydrocyclopenta[a]phenanthren-17-yl] ester

> <PUBCHEM_IUPAC_INCHI>
InChI=1S/C21H29ClO3/c1-12(23)25-18-7-6-14-13-4-5-16-19(22)17(24)9-11-20(16,2)15(13)8-10-21(14,18)3/h13-15,18H,4-11H2,1-3H3/t13-,14-,15-,18-,20+,21-/m0/s1

> <PUBCHEM_IUPAC_INCHIKEY>
XYGMEFJSKQEBTO-KUJXMBTLSA-N

> <PUBCHEM_XLOGP3>
4.7

> <PUBCHEM_EXACT_MASS>
364.180522

> <PUBCHEM_MOLECULAR_FORMULA>
C21H29ClO3

> <PUBCHEM_MOLECULAR_WEIGHT>
364.90616

> <PUBCHEM_OPENEYE_CAN_SMILES>
CC(=O)OC1CCC2C1(CCC3C2CCC4=C(C(=O)CCC34C)Cl)C

> <PUBCHEM_OPENEYE_ISO_SMILES>
CC(=O)O[C@H]1CC[C@@H]2[C@@]1(CC[C@H]3[C@H]2CCC4=C(C(=O)CC[C@]34C)Cl)C

> <PUBCHEM_CACTVS_TPSA>
43.4

> <PUBCHEM_MONOISOTOPIC_WEIGHT>
364.180522

> <PUBCHEM_TOTAL_CHARGE>
0

> <PUBCHEM_HEAVY_ATOM_COUNT>
25

> <PUBCHEM_ATOM_DEF_STEREO_COUNT>
6

> <PUBCHEM_ATOM_UDEF_STEREO_COUNT>
0

> <PUBCHEM_BOND_DEF_STEREO_COUNT>
0

> <PUBCHEM_BOND_UDEF_STEREO_COUNT>
0

> <PUBCHEM_ISOTOPIC_ATOM_COUNT>
0

> <PUBCHEM_COMPONENT_COUNT>
1

> <PUBCHEM_CACTVS_TAUTO_COUNT>
5

> <PUBCHEM_COORDINATE_TYPE>
1
5
255

> <PUBCHEM_BONDANNOTATIONS>
12  2  5
5  26  6
6  17  5
7  27  5
8  28  6
9  20  5

$$$$

