   Color/Form
        White powder
   from [1]HSDB

   Odor
        Odorless
   from [2]HSDB

   Melting Point
        Occurs in two steps 143-164 deg C and 189-223 deg C
   from [3]HSDB

   Dissociation Constants
        pKa1 = 2.18 (monophosphate); pKa2 = 5.77 (carboxylic acid)
   from [4]HSDB

   Octanol/Water Partition Coefficient
        log Kow = -5.4
   from [5]HSDB

   Solubilities
        In water, 1.05X10+6 mg/L at 25 deg C
   from [6]HSDB

   Vapor Pressure
        1.58X10-8 mm Hg at 25 deg C
   from [7]HSDB

   Computed Properties
   Molecular Weight                  228.183342 [g/mol]
   Molecular Formula                 C[6]H[17]N[2]O[5]P
   H-Bond Donor                      5
   H-Bond Acceptor                   7
   Rotatable Bond Count              4
   Exact Mass                        228.087508
   MonoIsotopic Mass                 228.087508
   Topological Polar Surface Area    133
   Heavy Atom Count                  14
   Formal Charge                     0
   Complexity                        173
   Isotope Atom Count                0
   Defined Atom Stereocenter Count   0
   Undefined Atom Stereocenter Count 0
   Defined Bond Stereocenter Count   0
   Undefined Bond Stereocenter Count 0
   Covalently-Bonded Unit Count      2

References

   1. http://toxnet.nlm.nih.gov/cgi-bin/sis/search/r?dbs+hsdb:@term+@rn+@rel+38641-94-0
   2. http://toxnet.nlm.nih.gov/cgi-bin/sis/search/r?dbs+hsdb:@term+@rn+@rel+38641-94-0
   3. http://toxnet.nlm.nih.gov/cgi-bin/sis/search/r?dbs+hsdb:@term+@rn+@rel+38641-94-0
   4. http://toxnet.nlm.nih.gov/cgi-bin/sis/search/r?dbs+hsdb:@term+@rn+@rel+38641-94-0
   5. http://toxnet.nlm.nih.gov/cgi-bin/sis/search/r?dbs+hsdb:@term+@rn+@rel+38641-94-0
   6. http://toxnet.nlm.nih.gov/cgi-bin/sis/search/r?dbs+hsdb:@term+@rn+@rel+38641-94-0
   7. http://toxnet.nlm.nih.gov/cgi-bin/sis/search/r?dbs+hsdb:@term+@rn+@rel+38641-94-0
