10733
  -OEChem-06261204532D

 35 34  0     1  0  0  0  0  0999 V2000
    5.8890    3.3285    0.0000 Cl  0  5  0  0  0  0  0  0  0  0  0  0
    0.5369    4.1200    0.0000 O   0  0  0  0  0  0  0  0  0  0  0  0
    2.2690    5.1200    0.0000 N   0  3  3  0  0  0  0  0  0  0  0  0
    2.2690    4.1200    0.0000 C   0  0  3  0  0  0  0  0  0  0  0  0
    1.4030    3.6200    0.0000 C   0  0  3  0  0  0  0  0  0  0  0  0
    2.2690    6.1200    0.0000 C   0  0  0  0  0  0  0  0  0  0  0  0
    3.1350    3.6200    0.0000 C   0  0  0  0  0  0  0  0  0  0  0  0
    3.2690    5.1200    0.0000 C   0  0  0  0  0  0  0  0  0  0  0  0
    1.4030    2.6200    0.0000 C   0  0  0  0  0  0  0  0  0  0  0  0
    3.1350    6.6200    0.0000 C   0  0  0  0  0  0  0  0  0  0  0  0
    0.5369    2.1200    0.0000 C   0  0  0  0  0  0  0  0  0  0  0  0
    2.2690    2.1200    0.0000 C   0  0  0  0  0  0  0  0  0  0  0  0
    0.5369    1.1200    0.0000 C   0  0  0  0  0  0  0  0  0  0  0  0
    2.2690    1.1200    0.0000 C   0  0  0  0  0  0  0  0  0  0  0  0
    1.4030    0.6200    0.0000 C   0  0  0  0  0  0  0  0  0  0  0  0
    3.0051    4.5450    0.0000 H   0  0  0  0  0  0  0  0  0  0  0  0
    1.6490    5.1200    0.0000 H   0  0  0  0  0  0  0  0  0  0  0  0
    1.4030    4.4700    0.0000 H   0  0  0  0  0  0  0  0  0  0  0  0
    2.0569    6.7026    0.0000 H   0  0  0  0  0  0  0  0  0  0  0  0
    1.6584    6.0123    0.0000 H   0  0  0  0  0  0  0  0  0  0  0  0
    2.8250    3.0831    0.0000 H   0  0  0  0  0  0  0  0  0  0  0  0
    3.6720    3.3100    0.0000 H   0  0  0  0  0  0  0  0  0  0  0  0
    3.4450    4.1569    0.0000 H   0  0  0  0  0  0  0  0  0  0  0  0
    3.2690    4.5000    0.0000 H   0  0  0  0  0  0  0  0  0  0  0  0
    3.8890    5.1200    0.0000 H   0  0  0  0  0  0  0  0  0  0  0  0
    3.2690    5.7400    0.0000 H   0  0  0  0  0  0  0  0  0  0  0  0
    3.4450    6.0831    0.0000 H   0  0  0  0  0  0  0  0  0  0  0  0
    3.6720    6.9300    0.0000 H   0  0  0  0  0  0  0  0  0  0  0  0
    2.8250    7.1569    0.0000 H   0  0  0  0  0  0  0  0  0  0  0  0
    0.5369    4.7400    0.0000 H   0  0  0  0  0  0  0  0  0  0  0  0
    0.0000    2.4300    0.0000 H   0  0  0  0  0  0  0  0  0  0  0  0
    2.8059    2.4300    0.0000 H   0  0  0  0  0  0  0  0  0  0  0  0
    0.0000    0.8100    0.0000 H   0  0  0  0  0  0  0  0  0  0  0  0
    2.8059    0.8100    0.0000 H   0  0  0  0  0  0  0  0  0  0  0  0
    1.4030    0.0000    0.0000 H   0  0  0  0  0  0  0  0  0  0  0  0
  2  5  1  0  0  0  0
  2 30  1  0  0  0  0
  3  4  1  0  0  0  0
  3  6  1  0  0  0  0
  3  8  1  0  0  0  0
  3 17  1  0  0  0  0
  4  5  1  0  0  0  0
  4  7  1  0  0  0  0
  4 16  1  0  0  0  0
  5  9  1  0  0  0  0
  5 18  1  0  0  0  0
  6 10  1  0  0  0  0
  6 19  1  0  0  0  0
  6 20  1  0  0  0  0
  7 21  1  0  0  0  0
  7 22  1  0  0  0  0
  7 23  1  0  0  0  0
  8 24  1  0  0  0  0
  8 25  1  0  0  0  0
  8 26  1  0  0  0  0
  9 11  2  0  0  0  0
  9 12  1  0  0  0  0
 10 27  1  0  0  0  0
 10 28  1  0  0  0  0
 10 29  1  0  0  0  0
 11 13  1  0  0  0  0
 11 31  1  0  0  0  0
 12 14  2  0  0  0  0
 12 32  1  0  0  0  0
 13 15  2  0  0  0  0
 13 33  1  0  0  0  0
 14 15  1  0  0  0  0
 14 34  1  0  0  0  0
 15 35  1  0  0  0  0
M  CHG  2   1  -1   3   1
M  END
> <PUBCHEM_COMPOUND_CID>
10733

> <PUBCHEM_COMPOUND_CANONICALIZED>
1

> <PUBCHEM_CACTVS_COMPLEXITY>
154

> <PUBCHEM_CACTVS_HBOND_ACCEPTOR>
2

> <PUBCHEM_CACTVS_HBOND_DONOR>
2

> <PUBCHEM_CACTVS_ROTATABLE_BOND>
4

> <PUBCHEM_CACTVS_SUBSKEYS>
AAADceByIAAEAAAAAAAAAAAAAAAAAAAAAAAwAAAAAAAAAAABAAAAHgAQCAAADDzhmAYyAIPAAgCAAiBCAAACAAAgAAAIiIAICIgKNiKAkRGEcAAk0AGYmAeQwKAOAAAAAAAAAAAAAAAAAAAAAAAAAAAAAA==

> <PUBCHEM_IUPAC_OPENEYE_NAME>
ethyl-(2-hydroxy-1-methyl-2-phenyl-ethyl)-methyl-ammonium chloride

> <PUBCHEM_IUPAC_CAS_NAME>
ethyl-(1-hydroxy-1-phenylpropan-2-yl)-methylammonium chloride

> <PUBCHEM_IUPAC_NAME>
ethyl-(1-hydroxy-1-phenylpropan-2-yl)-methylazanium chloride

> <PUBCHEM_IUPAC_SYSTEMATIC_NAME>
ethyl-methyl-(1-oxidanyl-1-phenyl-propan-2-yl)azanium chloride

> <PUBCHEM_IUPAC_TRADITIONAL_NAME>
ethyl-(2-hydroxy-1-methyl-2-phenyl-ethyl)-methyl-ammonium chloride

> <PUBCHEM_IUPAC_INCHI>
InChI=1S/C12H19NO.ClH/c1-4-13(3)10(2)12(14)11-8-6-5-7-9-11;/h5-10,12,14H,4H2,1-3H3;1H

> <PUBCHEM_IUPAC_INCHIKEY>
WRONACHIHQGZSD-UHFFFAOYSA-N

> <PUBCHEM_EXACT_MASS>
229.123342

> <PUBCHEM_MOLECULAR_FORMULA>
C12H20ClNO

> <PUBCHEM_MOLECULAR_WEIGHT>
229.7463

> <PUBCHEM_OPENEYE_CAN_SMILES>
CC[NH+](C)C(C)C(C1=CC=CC=C1)O.[Cl-]

> <PUBCHEM_OPENEYE_ISO_SMILES>
CC[NH+](C)C(C)C(C1=CC=CC=C1)O.[Cl-]

> <PUBCHEM_CACTVS_TPSA>
24.7

> <PUBCHEM_MONOISOTOPIC_WEIGHT>
229.123342

> <PUBCHEM_TOTAL_CHARGE>
0

> <PUBCHEM_HEAVY_ATOM_COUNT>
15

> <PUBCHEM_ATOM_DEF_STEREO_COUNT>
0

> <PUBCHEM_ATOM_UDEF_STEREO_COUNT>
2

> <PUBCHEM_BOND_DEF_STEREO_COUNT>
0

> <PUBCHEM_BOND_UDEF_STEREO_COUNT>
0

> <PUBCHEM_ISOTOPIC_ATOM_COUNT>
0

> <PUBCHEM_COMPONENT_COUNT>
2

> <PUBCHEM_CACTVS_TAUTO_COUNT>
1

> <PUBCHEM_COORDINATE_TYPE>
1
5
255

> <PUBCHEM_BONDANNOTATIONS>
11  13  8
12  14  8
13  15  8
14  15  8
4  16  3
5  18  3
9  11  8
9  12  8

$$$$

