17395447
  -OEChem-06241222502D

 46 48  0     1  0  0  0  0  0999 V2000
    6.6962    4.0194    0.0000 S   0  0  0  0  0  0  0  0  0  0  0  0
    6.6962    5.0194    0.0000 O   0  0  0  0  0  0  0  0  0  0  0  0
    5.7451    4.3284    0.0000 O   0  0  0  0  0  0  0  0  0  0  0  0
    5.4641    1.4806    0.0000 O   0  0  0  0  0  0  0  0  0  0  0  0
    4.5981   -2.0194    0.0000 O   0  0  0  0  0  0  0  0  0  0  0  0
    7.1962    1.4806    0.0000 N   0  0  0  0  0  0  0  0  0  0  0  0
    7.1962    2.4806    0.0000 C   0  0  3  0  0  0  0  0  0  0  0  0
    6.3871    3.0684    0.0000 C   0  0  0  0  0  0  0  0  0  0  0  0
    8.0052    3.0684    0.0000 C   0  0  0  0  0  0  0  0  0  0  0  0
    7.6962    4.0194    0.0000 C   0  0  0  0  0  0  0  0  0  0  0  0
    8.0622    0.9806    0.0000 C   0  0  0  0  0  0  0  0  0  0  0  0
    6.3301    0.9806    0.0000 C   0  0  0  0  0  0  0  0  0  0  0  0
    6.3301   -0.0194    0.0000 C   0  0  0  0  0  0  0  0  0  0  0  0
    5.4641   -0.5194    0.0000 C   0  0  0  0  0  0  0  0  0  0  0  0
    7.1962   -0.5194    0.0000 C   0  0  0  0  0  0  0  0  0  0  0  0
    5.4641   -1.5194    0.0000 C   0  0  0  0  0  0  0  0  0  0  0  0
    7.1962   -1.5194    0.0000 C   0  0  0  0  0  0  0  0  0  0  0  0
    6.3301   -2.0194    0.0000 C   0  0  0  0  0  0  0  0  0  0  0  0
    4.5981   -3.0194    0.0000 C   0  0  0  0  0  0  0  0  0  0  0  0
    3.7320   -3.5194    0.0000 C   0  0  0  0  0  0  0  0  0  0  0  0
    2.8660   -3.0194    0.0000 C   0  0  0  0  0  0  0  0  0  0  0  0
    3.7320   -4.5194    0.0000 C   0  0  0  0  0  0  0  0  0  0  0  0
    2.0000   -3.5194    0.0000 C   0  0  0  0  0  0  0  0  0  0  0  0
    2.8660   -5.0194    0.0000 C   0  0  0  0  0  0  0  0  0  0  0  0
    2.0000   -4.5194    0.0000 C   0  0  0  0  0  0  0  0  0  0  0  0
    6.6437    2.1991    0.0000 H   0  0  0  0  0  0  0  0  0  0  0  0
    5.8207    3.3205    0.0000 H   0  0  0  0  0  0  0  0  0  0  0  0
    6.0771    2.5314    0.0000 H   0  0  0  0  0  0  0  0  0  0  0  0
    8.3152    2.5314    0.0000 H   0  0  0  0  0  0  0  0  0  0  0  0
    8.5716    3.3205    0.0000 H   0  0  0  0  0  0  0  0  0  0  0  0
    8.3026    4.1483    0.0000 H   0  0  0  0  0  0  0  0  0  0  0  0
    7.6313    4.6360    0.0000 H   0  0  0  0  0  0  0  0  0  0  0  0
    7.7522    0.4436    0.0000 H   0  0  0  0  0  0  0  0  0  0  0  0
    8.5991    0.6706    0.0000 H   0  0  0  0  0  0  0  0  0  0  0  0
    8.3722    1.5175    0.0000 H   0  0  0  0  0  0  0  0  0  0  0  0
    4.9272   -0.2094    0.0000 H   0  0  0  0  0  0  0  0  0  0  0  0
    7.7331   -0.2094    0.0000 H   0  0  0  0  0  0  0  0  0  0  0  0
    7.7331   -1.8294    0.0000 H   0  0  0  0  0  0  0  0  0  0  0  0
    6.3301   -2.6394    0.0000 H   0  0  0  0  0  0  0  0  0  0  0  0
    4.8101   -3.6020    0.0000 H   0  0  0  0  0  0  0  0  0  0  0  0
    5.2087   -2.9118    0.0000 H   0  0  0  0  0  0  0  0  0  0  0  0
    2.8660   -2.3994    0.0000 H   0  0  0  0  0  0  0  0  0  0  0  0
    4.2690   -4.8294    0.0000 H   0  0  0  0  0  0  0  0  0  0  0  0
    1.4631   -3.2094    0.0000 H   0  0  0  0  0  0  0  0  0  0  0  0
    2.8660   -5.6394    0.0000 H   0  0  0  0  0  0  0  0  0  0  0  0
    1.4631   -4.8294    0.0000 H   0  0  0  0  0  0  0  0  0  0  0  0
  1  2  2  0  0  0  0
  1  3  2  0  0  0  0
  1  8  1  0  0  0  0
  1 10  1  0  0  0  0
  4 12  2  0  0  0  0
  5 16  1  0  0  0  0
  5 19  1  0  0  0  0
  6  7  1  0  0  0  0
  6 11  1  0  0  0  0
  6 12  1  0  0  0  0
  7  8  1  0  0  0  0
  7  9  1  0  0  0  0
  7 26  1  0  0  0  0
  8 27  1  0  0  0  0
  8 28  1  0  0  0  0
  9 10  1  0  0  0  0
  9 29  1  0  0  0  0
  9 30  1  0  0  0  0
 10 31  1  0  0  0  0
 10 32  1  0  0  0  0
 11 33  1  0  0  0  0
 11 34  1  0  0  0  0
 11 35  1  0  0  0  0
 12 13  1  0  0  0  0
 13 14  2  0  0  0  0
 13 15  1  0  0  0  0
 14 16  1  0  0  0  0
 14 36  1  0  0  0  0
 15 17  2  0  0  0  0
 15 37  1  0  0  0  0
 16 18  2  0  0  0  0
 17 18  1  0  0  0  0
 17 38  1  0  0  0  0
 18 39  1  0  0  0  0
 19 20  1  0  0  0  0
 19 40  1  0  0  0  0
 19 41  1  0  0  0  0
 20 21  2  0  0  0  0
 20 22  1  0  0  0  0
 21 23  1  0  0  0  0
 21 42  1  0  0  0  0
 22 24  2  0  0  0  0
 22 43  1  0  0  0  0
 23 25  2  0  0  0  0
 23 44  1  0  0  0  0
 24 25  1  0  0  0  0
 24 45  1  0  0  0  0
 25 46  1  0  0  0  0
M  END
> <PUBCHEM_COMPOUND_CID>
17395447

> <PUBCHEM_COMPOUND_CANONICALIZED>
1

> <PUBCHEM_CACTVS_COMPLEXITY>
550

> <PUBCHEM_CACTVS_HBOND_ACCEPTOR>
4

> <PUBCHEM_CACTVS_HBOND_DONOR>
0

> <PUBCHEM_CACTVS_ROTATABLE_BOND>
5

> <PUBCHEM_CACTVS_SUBSKEYS>
AAADceB6OABAAAAAAAAAAAAAAAAAASAAAAAwYAAAAAAAAAABQAAAHgQAAAAADCzl2AayBoMABAqIAiFSEHDCCAAkIBAIiAEODMgMJjKktRuGOSjkxhGoqYe6yDCOAAABAAAAAAAAAAIAAAAAAAAAAAAAAA==

> <PUBCHEM_IUPAC_OPENEYE_NAME>
3-benzyloxy-N-(1,1-dioxothiolan-3-yl)-N-methyl-benzamide

> <PUBCHEM_IUPAC_CAS_NAME>
N-(1,1-dioxo-3-thiolanyl)-N-methyl-3-phenylmethoxybenzamide

> <PUBCHEM_IUPAC_NAME>
N-(1,1-dioxothiolan-3-yl)-N-methyl-3-phenylmethoxybenzamide

> <PUBCHEM_IUPAC_SYSTEMATIC_NAME>
N-[1,1-bis(oxidanylidene)thiolan-3-yl]-N-methyl-3-phenylmethoxy-benzamide

> <PUBCHEM_IUPAC_TRADITIONAL_NAME>
3-benzoxy-N-(1,1-diketothiolan-3-yl)-N-methyl-benzamide

> <PUBCHEM_IUPAC_INCHI>
InChI=1S/C19H21NO4S/c1-20(17-10-11-25(22,23)14-17)19(21)16-8-5-9-18(12-16)24-13-15-6-3-2-4-7-15/h2-9,12,17H,10-11,13-14H2,1H3

> <PUBCHEM_IUPAC_INCHIKEY>
ZIPWBVACTPCXGT-UHFFFAOYSA-N

> <PUBCHEM_XLOGP3_AA>
2.4

> <PUBCHEM_EXACT_MASS>
359.119129

> <PUBCHEM_MOLECULAR_FORMULA>
C19H21NO4S

> <PUBCHEM_MOLECULAR_WEIGHT>
359.43934

> <PUBCHEM_OPENEYE_CAN_SMILES>
CN(C1CCS(=O)(=O)C1)C(=O)C2=CC(=CC=C2)OCC3=CC=CC=C3

> <PUBCHEM_OPENEYE_ISO_SMILES>
CN(C1CCS(=O)(=O)C1)C(=O)C2=CC(=CC=C2)OCC3=CC=CC=C3

> <PUBCHEM_CACTVS_TPSA>
72.1

> <PUBCHEM_MONOISOTOPIC_WEIGHT>
359.119129

> <PUBCHEM_TOTAL_CHARGE>
0

> <PUBCHEM_HEAVY_ATOM_COUNT>
25

> <PUBCHEM_ATOM_DEF_STEREO_COUNT>
0

> <PUBCHEM_ATOM_UDEF_STEREO_COUNT>
1

> <PUBCHEM_BOND_DEF_STEREO_COUNT>
0

> <PUBCHEM_BOND_UDEF_STEREO_COUNT>
0

> <PUBCHEM_ISOTOPIC_ATOM_COUNT>
0

> <PUBCHEM_COMPONENT_COUNT>
1

> <PUBCHEM_CACTVS_TAUTO_COUNT>
1

> <PUBCHEM_COORDINATE_TYPE>
1
5
255

> <PUBCHEM_BONDANNOTATIONS>
13  14  8
13  15  8
14  16  8
15  17  8
16  18  8
17  18  8
20  21  8
20  22  8
21  23  8
22  24  8
23  25  8
24  25  8
7  6  3

$$$$

