   Dissociation Constants
        pKa = 10.92 (tertiary imidazoline nitrogen) (est)
   from [1]HSDB

   Octanol/Water Partition Coefficient
        log Kow = 3.69 (est)
   from [2]HSDB

   Solubilities
        In water, 3.1X10+1 mg/L at 25 deg C (est)
   from [3]HSDB

   Vapor Pressure
        6.5X10-7 mm Hg at 25 deg C (est)
   from [4]HSDB

   Other Chemical/Physical Properties

     * Henry's Law constant = 4.4X10-8 atm-cu m/mol at 25 deg C (est)
     * Hydroxyl radical reaction rate constant = 8.3X10-11 cu
       cm/molecule-sec at 25 deg C (est)
     * Mol wt 236.75. Crystals from alcohol, dec 256-257 deg C. UV max:
       264.5, 271.5 nm (A 1% 1cm = 17.5, 15.5). Freely sol in water,
       alcohol. Very slightly sol in chloroform. Practically insol in
       ether. pH of a 1% aq soln 5.0 to 6.5. /Hydrochloride/

   from [5]HSDB

   Computed Properties
   Molecular Weight                  200.27954 [g/mol]
   Molecular Formula                 C[13]H[16]N[2]
   XLogP3-AA                         1.8
   H-Bond Donor                      1
   H-Bond Acceptor                   1
   Rotatable Bond Count              1
   Exact Mass                        200.131349
   MonoIsotopic Mass                 200.131349
   Topological Polar Surface Area    24.4
   Heavy Atom Count                  15
   Formal Charge                     0
   Complexity                        259
   Isotope Atom Count                0
   Defined Atom Stereocenter Count   0
   Undefined Atom Stereocenter Count 1
   Defined Bond Stereocenter Count   0
   Undefined Bond Stereocenter Count 0
   Covalently-Bonded Unit Count      1
   Feature 3D Donor Count            1
   Feature 3D Cation Count           1
   Feature 3D Ring Count             3
   Effective Rotor Count             2.4
   Conformer Sampling RMSD           0.6
   CID Conformer Count               [6]4

References

   1. http://toxnet.nlm.nih.gov/cgi-bin/sis/search/r?dbs+hsdb:@term+@rn+@rel+84-22-0
   2. http://toxnet.nlm.nih.gov/cgi-bin/sis/search/r?dbs+hsdb:@term+@rn+@rel+84-22-0
   3. http://toxnet.nlm.nih.gov/cgi-bin/sis/search/r?dbs+hsdb:@term+@rn+@rel+84-22-0
   4. http://toxnet.nlm.nih.gov/cgi-bin/sis/search/r?dbs+hsdb:@term+@rn+@rel+84-22-0
   5. http://toxnet.nlm.nih.gov/cgi-bin/sis/search/r?dbs+hsdb:@term+@rn+@rel+84-22-0
   6. http://pubchem.ncbi.nlm.nih.gov/vw3d/vw3d.cgi?cid=5419
