   Color/Form

     * White hexagonal crystal
     * COLORLESS, TRIGONAL CRYSTALS

   from [1]HSDB

   Melting Point
        About 350 deg C
   from [2]HSDB

   Density/Specific Gravity
        3.27 g/cu m
   from [3]HSDB

   Solubilities

     * Solubility (g/100 g water): 3.1 at 0 deg C; 6.9 at 20 deg C; 13.1
       at 40 deg C; 22.2 at 60 deg C; 33.9 at 80 deg C; 49.7 at 100 deg C
     * Insoluble in ethanol

   from [4]HSDB

   Other Chemical/Physical Properties

     * Standard molar enthalpy of formation at 298.15 K: -360.2 kJ/mol;
       molar heat capacity at constant pressure at 298.15 K: 105.2 J/mol K
     * Decomposes at 370 deg C with evolution of oxygen.
     * Strong oxidizing agent
     * The enthalpy (heat content) difference for KBr03 (crystalline
       solid) between 298.15 deg K (25 deg C) and 0 deg K is 5.593 deg K.
     * The virtual or "thermal" entropy of KBr03 (crystalline solid) in
       the standard state at 298.15 K (25 deg C) is 35.65 cal/deg mol
     * The enthalpy (heat content) and Gibbs energy (formerly the free
       energy) of formation of KBr03 when one gram formula weight in the
       crystalline solid state is formed isothermally at 298.15K (25 deg
       C) is -86.10 kcal/mole and -64.82 kcal/mole, respectively.

   from [5]HSDB

   Computed Properties
   Molecular Weight                  167.0005 [g/mol]
   Molecular Formula                 BrKO[3]
   H-Bond Donor                      0
   H-Bond Acceptor                   3
   Rotatable Bond Count              0
   Exact Mass                        165.866788
   MonoIsotopic Mass                 165.866788
   Topological Polar Surface Area    57.2
   Heavy Atom Count                  5
   Formal Charge                     0
   Complexity                        49.8
   Isotope Atom Count                0
   Defined Atom Stereocenter Count   0
   Undefined Atom Stereocenter Count 0
   Defined Bond Stereocenter Count   0
   Undefined Bond Stereocenter Count 0
   Covalently-Bonded Unit Count      2

References

   1. http://toxnet.nlm.nih.gov/cgi-bin/sis/search/r?dbs+hsdb:@term+@rn+@rel+7758-01-2
   2. http://toxnet.nlm.nih.gov/cgi-bin/sis/search/r?dbs+hsdb:@term+@rn+@rel+7758-01-2
   3. http://toxnet.nlm.nih.gov/cgi-bin/sis/search/r?dbs+hsdb:@term+@rn+@rel+7758-01-2
   4. http://toxnet.nlm.nih.gov/cgi-bin/sis/search/r?dbs+hsdb:@term+@rn+@rel+7758-01-2
   5. http://toxnet.nlm.nih.gov/cgi-bin/sis/search/r?dbs+hsdb:@term+@rn+@rel+7758-01-2
