   Color/Form
        Colorless crystals
   from [1]HSDB

   Odor
        Musty odor
   from [2]HSDB

   Boiling Point
        268 deg C
   from [3]HSDB

   Melting Point
        133-135 deg C
   from [4]HSDB

   Density/Specific Gravity
        1.66
   from [5]HSDB

   Octanol/Water Partition Coefficient
        log Kow = 3.44 /Estimated/
   from [6]HSDB

   Solubilities

     * At 25 deg C: 115 g/kg acetone, 89 g/kg xylene, 118 g/kg
       dimethylformamide, 133 g/kg dichloromethane
     * In water, 8.0 mg/L @ 25 deg C

   from [7]HSDB

   Vapor Pressure
        3X10-3 mm Hg @ 25 deg C
   from [8]HSDB

   Other Chemical/Physical Properties

     * Henry's Law constant = 1.02X10-4 atm-cu m/mole @ 25 deg C
       /Estimated/
     * Hydroxyl radical reaction rate constant = 5.48X10-12 cu
       cm/molecule-sec @ 25 deg C /Estimated/

   from [9]HSDB

   Computed Properties
   Molecular Weight                  207.05392 [g/mol]
   Molecular Formula                 C[8]H[8]Cl[2]O[2]
   XLogP3-AA                         3.1
   H-Bond Donor                      0
   H-Bond Acceptor                   2
   Rotatable Bond Count              2
   Exact Mass                        205.990135
   MonoIsotopic Mass                 205.990135
   Topological Polar Surface Area    18.5
   Heavy Atom Count                  12
   Formal Charge                     0
   Complexity                        127
   Isotope Atom Count                0
   Defined Atom Stereocenter Count   0
   Undefined Atom Stereocenter Count 0
   Defined Bond Stereocenter Count   0
   Undefined Bond Stereocenter Count 0
   Covalently-Bonded Unit Count      1
   Feature 3D Acceptor Count         2
   Feature 3D Ring Count             1
   Effective Rotor Count             2
   Conformer Sampling RMSD           0.6
   CID Conformer Count               [10]1

References

   1. http://toxnet.nlm.nih.gov/cgi-bin/sis/search/r?dbs+hsdb:@term+@rn+@rel+2675-77-6
   2. http://toxnet.nlm.nih.gov/cgi-bin/sis/search/r?dbs+hsdb:@term+@rn+@rel+2675-77-6
   3. http://toxnet.nlm.nih.gov/cgi-bin/sis/search/r?dbs+hsdb:@term+@rn+@rel+2675-77-6
   4. http://toxnet.nlm.nih.gov/cgi-bin/sis/search/r?dbs+hsdb:@term+@rn+@rel+2675-77-6
   5. http://toxnet.nlm.nih.gov/cgi-bin/sis/search/r?dbs+hsdb:@term+@rn+@rel+2675-77-6
   6. http://toxnet.nlm.nih.gov/cgi-bin/sis/search/r?dbs+hsdb:@term+@rn+@rel+2675-77-6
   7. http://toxnet.nlm.nih.gov/cgi-bin/sis/search/r?dbs+hsdb:@term+@rn+@rel+2675-77-6
   8. http://toxnet.nlm.nih.gov/cgi-bin/sis/search/r?dbs+hsdb:@term+@rn+@rel+2675-77-6
   9. http://toxnet.nlm.nih.gov/cgi-bin/sis/search/r?dbs+hsdb:@term+@rn+@rel+2675-77-6
  10. http://pubchem.ncbi.nlm.nih.gov/vw3d/vw3d.cgi?cid=17581
