   Color/Form
        Colorless, viscous liquid
   from [1]HSDB

   Odor

     * Odor of amyl alcohol, somewhat like peppermint
     * Pleasant odor

   from [2]HSDB

   Boiling Point
        140.4 DEG C @ 760 MM HG
   from [3]HSDB

   Melting Point
        -19 DEG C
   from [4]HSDB

   Density/Specific Gravity
        0.9478 @ 20 DEG C/4 DEG C
   from [5]HSDB

   Octanol/Water Partition Coefficient
        log Kow = 0.71 [Abraham MH et al; J Pharm Sci 83: 1085-100 (1994)]
   [6]PubMed Abstract
   from [7]HSDB

   Solubilities

     * SOL IN ALCOHOL, ETHER, ACETONE; SLIGHTLY SOL IN WATER
     * Sparingly soluble in water. Soluble in ethanol.

   from [8]HSDB

   Spectral Properties

     * INDEX OF REFRACTION: 1.4530 @ 20 DEG C; SADTLER REFERENCE NUMBER:
       376 (IR, PRISM)
     * IR: 12974 (Sadtler Research Laboratories IR Grating Collection)
     * NMR: 44 (Sadtler Research Laboratories Spectral Collection)
     * MASS: 143 (Atlas of Mass Spectral Data, John Wiley & Sons, New
       York)

   from [9]HSDB

   Vapor Density
        2.97 (AIR= 1)
   from [10]HSDB

   Vapor Pressure
        1892 mm Hg @ 25 deg C
   from [11]HSDB

   Computed Properties
   Molecular Weight                  86.1323 [g/mol]
   Molecular Formula                 C[5]H[10]O
   XLogP3-AA                         0.8
   H-Bond Donor                      1
   H-Bond Acceptor                   1
   Rotatable Bond Count              0
   Exact Mass                        86.073165
   MonoIsotopic Mass                 86.073165
   Topological Polar Surface Area    20.2
   Heavy Atom Count                  6
   Formal Charge                     0
   Complexity                        37.2
   Isotope Atom Count                0
   Defined Atom Stereocenter Count   0
   Undefined Atom Stereocenter Count 0
   Defined Bond Stereocenter Count   0
   Undefined Bond Stereocenter Count 0
   Covalently-Bonded Unit Count      1
   Feature 3D Acceptor Count         1
   Feature 3D Donor Count            1
   Feature 3D Ring Count             1
   Effective Rotor Count             1
   Conformer Sampling RMSD           0.4
   CID Conformer Count               [12]2

References

   1. http://toxnet.nlm.nih.gov/cgi-bin/sis/search/r?dbs+hsdb:@term+@rn+@rel+96-41-3
   2. http://toxnet.nlm.nih.gov/cgi-bin/sis/search/r?dbs+hsdb:@term+@rn+@rel+96-41-3
   3. http://toxnet.nlm.nih.gov/cgi-bin/sis/search/r?dbs+hsdb:@term+@rn+@rel+96-41-3
   4. http://toxnet.nlm.nih.gov/cgi-bin/sis/search/r?dbs+hsdb:@term+@rn+@rel+96-41-3
   5. http://toxnet.nlm.nih.gov/cgi-bin/sis/search/r?dbs+hsdb:@term+@rn+@rel+96-41-3
   6. http://www.ncbi.nlm.nih.gov/entrez/query.fcgi?cmd=Retrieve&db=pubmed&dopt=Abstract&list_uids=7983591
   7. http://toxnet.nlm.nih.gov/cgi-bin/sis/search/r?dbs+hsdb:@term+@rn+@rel+96-41-3
   8. http://toxnet.nlm.nih.gov/cgi-bin/sis/search/r?dbs+hsdb:@term+@rn+@rel+96-41-3
   9. http://toxnet.nlm.nih.gov/cgi-bin/sis/search/r?dbs+hsdb:@term+@rn+@rel+96-41-3
  10. http://toxnet.nlm.nih.gov/cgi-bin/sis/search/r?dbs+hsdb:@term+@rn+@rel+96-41-3
  11. http://toxnet.nlm.nih.gov/cgi-bin/sis/search/r?dbs+hsdb:@term+@rn+@rel+96-41-3
  12. http://pubchem.ncbi.nlm.nih.gov/vw3d/vw3d.cgi?cid=7298
