15161496
  -OEChem-07051213112D

 52 55  0     1  0  0  0  0  0999 V2000
    3.7706    0.2605    0.0000 C   0  0  1  0  0  0  0  0  0  0  0  0
    3.8644   -0.7769    0.0000 C   0  0  2  0  0  0  0  0  0  0  0  0
    3.0083   -1.3703    0.0000 C   0  0  2  0  0  0  0  0  0  0  0  0
    2.8696    0.6944    0.0000 C   0  0  1  0  0  0  0  0  0  0  0  0
    3.6637    1.4373    0.0000 C   0  0  0  0  0  0  0  0  0  0  0  0
    4.6715    0.6944    0.0000 C   0  0  0  0  0  0  0  0  0  0  0  0
    3.0810   -2.4528    0.0000 C   0  0  0  0  0  0  0  0  0  0  0  0
    4.2706    2.4512    0.0000 C   0  0  1  0  0  0  0  0  0  0  0  0
    4.8526   -1.2249    0.0000 C   0  0  0  0  0  0  0  0  0  0  0  0
    2.0698   -0.9183    0.0000 C   0  0  0  0  0  0  0  0  0  0  0  0
    2.0000    0.1210    0.0000 C   0  0  0  0  0  0  0  0  0  0  0  0
    4.8940    1.6693    0.0000 C   0  0  0  0  0  0  0  0  0  0  0  0
    4.6863   -0.2072    0.0000 C   0  0  0  0  0  0  0  0  0  0  0  0
    4.0586   -2.9236    0.0000 C   0  0  0  0  0  0  0  0  0  0  0  0
    4.9503   -2.3055    0.0000 C   0  0  0  0  0  0  0  0  0  0  0  0
    2.6471    1.6693    0.0000 C   0  0  0  0  0  0  0  0  0  0  0  0
    3.2706    2.4512    0.0000 C   0  0  0  0  0  0  0  0  0  0  0  0
    2.6437   -3.3521    0.0000 C   0  0  0  0  0  0  0  0  0  0  0  0
    2.0836   -2.5237    0.0000 C   0  0  0  0  0  0  0  0  0  0  0  0
    2.8367    3.3521    0.0000 C   0  0  0  0  0  0  0  0  0  0  0  0
    2.3042   -1.8464    0.0000 H   0  0  0  0  0  0  0  0  0  0  0  0
    2.1038    1.0632    0.0000 H   0  0  0  0  0  0  0  0  0  0  0  0
    3.2559    1.9043    0.0000 H   0  0  0  0  0  0  0  0  0  0  0  0
    3.0937    1.1934    0.0000 H   0  0  0  0  0  0  0  0  0  0  0  0
    4.8095    0.0899    0.0000 H   0  0  0  0  0  0  0  0  0  0  0  0
    5.2915    0.6944    0.0000 H   0  0  0  0  0  0  0  0  0  0  0  0
    4.4597    3.2798    0.0000 H   0  0  0  0  0  0  0  0  0  0  0  0
    5.4705   -1.2755    0.0000 H   0  0  0  0  0  0  0  0  0  0  0  0
    5.0082   -0.6248    0.0000 H   0  0  0  0  0  0  0  0  0  0  0  0
    1.4532   -0.8534    0.0000 H   0  0  0  0  0  0  0  0  0  0  0  0
    1.9004   -1.5147    0.0000 H   0  0  0  0  0  0  0  0  0  0  0  0
    1.7523    0.6893    0.0000 H   0  0  0  0  0  0  0  0  0  0  0  0
    1.3976   -0.0258    0.0000 H   0  0  0  0  0  0  0  0  0  0  0  0
    5.4526    1.4003    0.0000 H   0  0  0  0  0  0  0  0  0  0  0  0
    5.2806    2.1540    0.0000 H   0  0  0  0  0  0  0  0  0  0  0  0
    5.0395   -0.7168    0.0000 H   0  0  0  0  0  0  0  0  0  0  0  0
    5.1958    0.1460    0.0000 H   0  0  0  0  0  0  0  0  0  0  0  0
    4.3331    0.3023    0.0000 H   0  0  0  0  0  0  0  0  0  0  0  0
    3.6980   -3.4279    0.0000 H   0  0  0  0  0  0  0  0  0  0  0  0
    4.4938   -3.3652    0.0000 H   0  0  0  0  0  0  0  0  0  0  0  0
    5.2111   -2.8680    0.0000 H   0  0  0  0  0  0  0  0  0  0  0  0
    5.5491   -2.1448    0.0000 H   0  0  0  0  0  0  0  0  0  0  0  0
    2.0426    1.8073    0.0000 H   0  0  0  0  0  0  0  0  0  0  0  0
    2.0396   -1.9053    0.0000 H   0  0  0  0  0  0  0  0  0  0  0  0
    1.4651   -2.5677    0.0000 H   0  0  0  0  0  0  0  0  0  0  0  0
    2.1275   -3.1422    0.0000 H   0  0  0  0  0  0  0  0  0  0  0  0
    2.0861   -3.0810    0.0000 H   0  0  0  0  0  0  0  0  0  0  0  0
    2.3725   -3.9097    0.0000 H   0  0  0  0  0  0  0  0  0  0  0  0
    3.2012   -3.6233    0.0000 H   0  0  0  0  0  0  0  0  0  0  0  0
    3.3953    3.6211    0.0000 H   0  0  0  0  0  0  0  0  0  0  0  0
    2.5677    3.9107    0.0000 H   0  0  0  0  0  0  0  0  0  0  0  0
    2.2781    3.0831    0.0000 H   0  0  0  0  0  0  0  0  0  0  0  0
  1  2  1  0  0  0  0
  1  4  1  0  0  0  0
  1  5  1  1  0  0  0
  1  6  1  0  0  0  0
  2  3  1  0  0  0  0
  2  9  1  0  0  0  0
  2 13  1  6  0  0  0
  3  7  1  0  0  0  0
  3 10  1  0  0  0  0
  3 21  1  1  0  0  0
  4 11  1  0  0  0  0
  4 16  1  0  0  0  0
  4 22  1  6  0  0  0
  5  8  1  0  0  0  0
  5 23  1  0  0  0  0
  5 24  1  0  0  0  0
  6 12  1  0  0  0  0
  6 25  1  0  0  0  0
  6 26  1  0  0  0  0
  7 14  1  0  0  0  0
  7 18  1  0  0  0  0
  7 19  1  0  0  0  0
  8 12  1  0  0  0  0
  8 17  1  0  0  0  0
  8 27  1  1  0  0  0
  9 15  1  0  0  0  0
  9 28  1  0  0  0  0
  9 29  1  0  0  0  0
 10 11  1  0  0  0  0
 10 30  1  0  0  0  0
 10 31  1  0  0  0  0
 11 32  1  0  0  0  0
 11 33  1  0  0  0  0
 12 34  1  0  0  0  0
 12 35  1  0  0  0  0
 13 36  1  0  0  0  0
 13 37  1  0  0  0  0
 13 38  1  0  0  0  0
 14 15  1  0  0  0  0
 14 39  1  0  0  0  0
 14 40  1  0  0  0  0
 15 41  1  0  0  0  0
 15 42  1  0  0  0  0
 16 17  2  0  0  0  0
 16 43  1  0  0  0  0
 17 20  1  0  0  0  0
 18 47  1  0  0  0  0
 18 48  1  0  0  0  0
 18 49  1  0  0  0  0
 19 44  1  0  0  0  0
 19 45  1  0  0  0  0
 19 46  1  0  0  0  0
 20 50  1  0  0  0  0
 20 51  1  0  0  0  0
 20 52  1  0  0  0  0
M  END
> <PUBCHEM_COMPOUND_CID>
15161496

> <PUBCHEM_COMPOUND_CANONICALIZED>
1

> <PUBCHEM_CACTVS_COMPLEXITY>
457

> <PUBCHEM_CACTVS_HBOND_ACCEPTOR>
0

> <PUBCHEM_CACTVS_HBOND_DONOR>
0

> <PUBCHEM_CACTVS_ROTATABLE_BOND>
0

> <PUBCHEM_CACTVS_SUBSKEYS>
AAADcfB4AAAAAAAAAAAAAAAAAAAAAYAAAAAwYIAABAAAAADAAAAAGAAAAAAADwCAAAACAAAAAACAAiBCAAAAAAAgAAAACAAAAAgAAAIAAQAAAAAAgAAIAAMAgMAPgAAAAAAAAACAAAQAACAAAQAAAAAAAA==

> <PUBCHEM_IUPAC_INCHI>
InChI=1S/C20H32/c1-14-12-16-6-7-17-18(2,3)9-5-10-19(17,4)20(16)11-8-15(14)13-20/h12,15-17H,5-11,13H2,1-4H3/t15-,16+,17+,19+,20-/m1/s1

> <PUBCHEM_IUPAC_INCHIKEY>
MCRAOCBPZAIHJQ-QBYKVAOYSA-N

> <PUBCHEM_XLOGP3_AA>
6.7

> <PUBCHEM_EXACT_MASS>
272.250401

> <PUBCHEM_MOLECULAR_FORMULA>
C20H32

> <PUBCHEM_MOLECULAR_WEIGHT>
272.46808

> <PUBCHEM_OPENEYE_CAN_SMILES>
CC1=CC2CCC3C(CCCC3(C24CCC1C4)C)(C)C

> <PUBCHEM_OPENEYE_ISO_SMILES>
CC1=C[C@@H]2CC[C@@H]3[C@@]([C@@]24CC[C@@H]1C4)(CCCC3(C)C)C

> <PUBCHEM_CACTVS_TPSA>
0

> <PUBCHEM_MONOISOTOPIC_WEIGHT>
272.250401

> <PUBCHEM_TOTAL_CHARGE>
0

> <PUBCHEM_HEAVY_ATOM_COUNT>
20

> <PUBCHEM_ATOM_DEF_STEREO_COUNT>
5

> <PUBCHEM_ATOM_UDEF_STEREO_COUNT>
0

> <PUBCHEM_BOND_DEF_STEREO_COUNT>
0

> <PUBCHEM_BOND_UDEF_STEREO_COUNT>
0

> <PUBCHEM_ISOTOPIC_ATOM_COUNT>
0

> <PUBCHEM_COMPONENT_COUNT>
1

> <PUBCHEM_CACTVS_TAUTO_COUNT>
1

> <PUBCHEM_COORDINATE_TYPE>
1
5
255

> <PUBCHEM_BONDANNOTATIONS>
1  5  5
2  13  6
3  21  5
4  22  6
8  27  5

$$$$

