6437378
  -OEChem-07051213092D

 60 62  0     1  0  0  0  0  0999 V2000
   10.2719    1.0000    0.0000 S   0  0  0  0  0  0  0  0  0  0  0  0
    6.8671    1.0000    0.0000 O   0  0  0  0  0  0  0  0  0  0  0  0
    8.2331    1.3660    0.0000 O   0  0  0  0  0  0  0  0  0  0  0  0
    6.8671   -2.0000    0.0000 O   0  0  0  0  0  0  0  0  0  0  0  0
   11.0809   -0.5878    0.0000 O   0  0  0  0  0  0  0  0  0  0  0  0
    6.0010   -3.5000    0.0000 O   0  0  0  0  0  0  0  0  0  0  0  0
    9.3209   -0.3090    0.0000 N   0  0  0  0  0  0  0  0  0  0  0  0
    7.7331    0.5000    0.0000 C   0  0  2  0  0  0  0  0  0  0  0  0
    6.0010    0.5000    0.0000 C   0  0  1  0  0  0  0  0  0  0  0  0
    7.7331   -0.5000    0.0000 C   0  0  0  0  0  0  0  0  0  0  0  0
    6.8671   -1.0000    0.0000 C   0  0  1  0  0  0  0  0  0  0  0  0
    6.0010   -0.5000    0.0000 C   0  0  0  0  0  0  0  0  0  0  0  0
    8.7331    0.5000    0.0000 C   0  0  2  0  0  0  0  0  0  0  0  0
    5.1350    1.0000    0.0000 C   0  0  0  0  0  0  0  0  0  0  0  0
    9.3209    1.3090    0.0000 C   0  0  0  0  0  0  0  0  0  0  0  0
    5.1350    2.0000    0.0000 C   0  0  0  0  0  0  0  0  0  0  0  0
    4.2690    2.5000    0.0000 C   0  0  2  0  0  0  0  0  0  0  0  0
   10.2719    0.0000    0.0000 C   0  0  0  0  0  0  0  0  0  0  0  0
    4.2690    3.5000    0.0000 C   0  0  0  0  0  0  0  0  0  0  0  0
    6.0010   -2.5000    0.0000 C   0  0  0  0  0  0  0  0  0  0  0  0
    3.4030    2.0000    0.0000 C   0  0  0  0  0  0  0  0  0  0  0  0
    5.1350   -2.0000    0.0000 C   0  0  0  0  0  0  0  0  0  0  0  0
    3.4030    1.0000    0.0000 C   0  0  0  0  0  0  0  0  0  0  0  0
    4.2690   -2.5000    0.0000 C   0  0  0  0  0  0  0  0  0  0  0  0
    3.4030   -2.0000    0.0000 C   0  0  0  0  0  0  0  0  0  0  0  0
    2.5369    0.5000    0.0000 C   0  0  0  0  0  0  0  0  0  0  0  0
    3.4030   -1.0000    0.0000 C   0  0  0  0  0  0  0  0  0  0  0  0
    2.5369   -0.5000    0.0000 C   0  0  0  0  0  0  0  0  0  0  0  0
    4.2690   -3.5000    0.0000 C   0  0  0  0  0  0  0  0  0  0  0  0
    6.0010    1.3500    0.0000 H   0  0  0  0  0  0  0  0  0  0  0  0
    7.9451   -1.0826    0.0000 H   0  0  0  0  0  0  0  0  0  0  0  0
    8.3437   -0.3923    0.0000 H   0  0  0  0  0  0  0  0  0  0  0  0
    7.6032   -1.4250    0.0000 H   0  0  0  0  0  0  0  0  0  0  0  0
    5.3905   -0.3923    0.0000 H   0  0  0  0  0  0  0  0  0  0  0  0
    5.7890   -1.0826    0.0000 H   0  0  0  0  0  0  0  0  0  0  0  0
    9.5831    0.5000    0.0000 H   0  0  0  0  0  0  0  0  0  0  0  0
    4.5244    1.1077    0.0000 H   0  0  0  0  0  0  0  0  0  0  0  0
    4.9230    0.4174    0.0000 H   0  0  0  0  0  0  0  0  0  0  0  0
    9.5730    1.8754    0.0000 H   0  0  0  0  0  0  0  0  0  0  0  0
    8.7839    1.6190    0.0000 H   0  0  0  0  0  0  0  0  0  0  0  0
    5.7456    1.8923    0.0000 H   0  0  0  0  0  0  0  0  0  0  0  0
    5.3471    2.5826    0.0000 H   0  0  0  0  0  0  0  0  0  0  0  0
    9.1293   -0.8987    0.0000 H   0  0  0  0  0  0  0  0  0  0  0  0
    7.9231    1.9030    0.0000 H   0  0  0  0  0  0  0  0  0  0  0  0
    4.8059    2.8100    0.0000 H   0  0  0  0  0  0  0  0  0  0  0  0
    4.8890    3.5000    0.0000 H   0  0  0  0  0  0  0  0  0  0  0  0
    4.2690    4.1200    0.0000 H   0  0  0  0  0  0  0  0  0  0  0  0
    3.6490    3.5000    0.0000 H   0  0  0  0  0  0  0  0  0  0  0  0
    2.8660    2.3100    0.0000 H   0  0  0  0  0  0  0  0  0  0  0  0
    5.1350   -1.3800    0.0000 H   0  0  0  0  0  0  0  0  0  0  0  0
    3.9399    0.6900    0.0000 H   0  0  0  0  0  0  0  0  0  0  0  0
    2.7924   -1.8923    0.0000 H   0  0  0  0  0  0  0  0  0  0  0  0
    3.1909   -2.5826    0.0000 H   0  0  0  0  0  0  0  0  0  0  0  0
    2.0000    0.8100    0.0000 H   0  0  0  0  0  0  0  0  0  0  0  0
    4.0135   -1.1077    0.0000 H   0  0  0  0  0  0  0  0  0  0  0  0
    3.6150   -0.4174    0.0000 H   0  0  0  0  0  0  0  0  0  0  0  0
    2.0000   -0.8100    0.0000 H   0  0  0  0  0  0  0  0  0  0  0  0
    3.6490   -3.5000    0.0000 H   0  0  0  0  0  0  0  0  0  0  0  0
    4.2690   -4.1200    0.0000 H   0  0  0  0  0  0  0  0  0  0  0  0
    4.8890   -3.5000    0.0000 H   0  0  0  0  0  0  0  0  0  0  0  0
  1 15  1  0  0  0  0
  1 18  1  0  0  0  0
  2  8  1  0  0  0  0
  2  9  1  0  0  0  0
  8  3  1  6  0  0  0
  3 44  1  0  0  0  0
  4 11  1  0  0  0  0
  4 20  1  0  0  0  0
  5 18  2  0  0  0  0
  6 20  2  0  0  0  0
  7 13  1  0  0  0  0
  7 18  1  0  0  0  0
  7 43  1  0  0  0  0
  8 10  1  0  0  0  0
  8 13  1  0  0  0  0
  9 12  1  0  0  0  0
  9 14  1  0  0  0  0
  9 30  1  6  0  0  0
 10 11  1  0  0  0  0
 10 31  1  0  0  0  0
 10 32  1  0  0  0  0
 11 12  1  0  0  0  0
 11 33  1  1  0  0  0
 12 34  1  0  0  0  0
 12 35  1  0  0  0  0
 13 15  1  0  0  0  0
 13 36  1  1  0  0  0
 14 16  1  0  0  0  0
 14 37  1  0  0  0  0
 14 38  1  0  0  0  0
 15 39  1  0  0  0  0
 15 40  1  0  0  0  0
 16 17  1  0  0  0  0
 16 41  1  0  0  0  0
 16 42  1  0  0  0  0
 17 19  1  1  0  0  0
 17 21  1  0  0  0  0
 17 45  1  0  0  0  0
 19 46  1  0  0  0  0
 19 47  1  0  0  0  0
 19 48  1  0  0  0  0
 20 22  1  0  0  0  0
 21 23  2  0  0  0  0
 21 49  1  0  0  0  0
 22 24  2  0  0  0  0
 22 50  1  0  0  0  0
 23 26  1  0  0  0  0
 23 51  1  0  0  0  0
 24 25  1  0  0  0  0
 24 29  1  0  0  0  0
 25 27  1  0  0  0  0
 25 52  1  0  0  0  0
 25 53  1  0  0  0  0
 26 28  2  0  0  0  0
 26 54  1  0  0  0  0
 27 28  1  0  0  0  0
 27 55  1  0  0  0  0
 27 56  1  0  0  0  0
 28 57  1  0  0  0  0
 29 58  1  0  0  0  0
 29 59  1  0  0  0  0
 29 60  1  0  0  0  0
M  END
> <PUBCHEM_COMPOUND_CID>
6437378

> <PUBCHEM_COMPOUND_CANONICALIZED>
1

> <PUBCHEM_CACTVS_COMPLEXITY>
703

> <PUBCHEM_CACTVS_HBOND_ACCEPTOR>
6

> <PUBCHEM_CACTVS_HBOND_DONOR>
2

> <PUBCHEM_CACTVS_ROTATABLE_BOND>
1

> <PUBCHEM_CACTVS_SUBSKEYS>
AAADceB6OABAAAAAAAAAAAAAAAAAAWAAAAAkAAAAAAAAAAAAAAAAHgQQCAAADTzlwAaCCALABgiIAiDSGAAAAABgABAICIAIAEgaBAIgoQAHUAAFlgAcoQOw4OQMAAAAAAAAAAAAAAAAAAAAAAAAAAAAAA==

> <PUBCHEM_IUPAC_OPENEYE_NAME>
(4R)-4-[(1R,4S,5E,7Z,11E,15R,17R)-17-hydroxy-4,11-dimethyl-13-oxo-14,18-dioxabicyclo[13.3.1]nonadeca-5,7,11-trien-17-yl]thiazolidin-2-one

> <PUBCHEM_IUPAC_CAS_NAME>
(4R)-4-[(1R,4S,5E,7Z,11E,15R,17R)-17-hydroxy-4,11-dimethyl-13-oxo-14,18-dioxabicyclo[13.3.1]nonadeca-5,7,11-trien-17-yl]-2-thiazolidinone

> <PUBCHEM_IUPAC_NAME>
(4R)-4-[(1R,4S,5E,7Z,11E,15R,17R)-17-hydroxy-4,11-dimethyl-13-oxo-14,18-dioxabicyclo[13.3.1]nonadeca-5,7,11-trien-17-yl]-1,3-thiazolidin-2-one

> <PUBCHEM_IUPAC_SYSTEMATIC_NAME>
(4R)-4-[(1R,4S,5E,7Z,11E,15R,17R)-4,11-dimethyl-17-oxidanyl-13-oxidanylidene-14,18-dioxabicyclo[13.3.1]nonadeca-5,7,11-trien-17-yl]-1,3-thiazolidin-2-one

> <PUBCHEM_IUPAC_TRADITIONAL_NAME>
(4R)-4-[(1R,4S,5E,7Z,11E,15R,17R)-17-hydroxy-13-keto-4,11-dimethyl-14,18-dioxabicyclo[13.3.1]nonadeca-5,7,11-trien-17-yl]thiazolidin-2-one

> <PUBCHEM_IUPAC_INCHI>
InChI=1S/C22H31NO5S/c1-15-7-5-3-4-6-8-16(2)11-20(24)27-18-12-17(10-9-15)28-22(26,13-18)19-14-29-21(25)23-19/h3-5,7,11,15,17-19,26H,6,8-10,12-14H2,1-2H3,(H,23,25)/b4-3-,7-5+,16-11+/t15-,17-,18-,19+,22-/m1/s1

> <PUBCHEM_IUPAC_INCHIKEY>
DDVBPZROPPMBLW-VREWCFMQSA-N

> <PUBCHEM_XLOGP3_AA>
3.7

> <PUBCHEM_EXACT_MASS>
421.192294

> <PUBCHEM_MOLECULAR_FORMULA>
C22H31NO5S

> <PUBCHEM_MOLECULAR_WEIGHT>
421.55024

> <PUBCHEM_OPENEYE_CAN_SMILES>
CC1CCC2CC(CC(O2)(C3CSC(=O)N3)O)OC(=O)C=C(CCC=CC=C1)C

> <PUBCHEM_OPENEYE_ISO_SMILES>
C[C@H]/1CC[C@@H]2C[C@H](C[C@@](O2)([C@@H]3CSC(=O)N3)O)OC(=O)/C=C(/CC/C=C\C=C1)\C

> <PUBCHEM_CACTVS_TPSA>
110

> <PUBCHEM_MONOISOTOPIC_WEIGHT>
421.192294

> <PUBCHEM_TOTAL_CHARGE>
0

> <PUBCHEM_HEAVY_ATOM_COUNT>
29

> <PUBCHEM_ATOM_DEF_STEREO_COUNT>
5

> <PUBCHEM_ATOM_UDEF_STEREO_COUNT>
0

> <PUBCHEM_BOND_DEF_STEREO_COUNT>
3

> <PUBCHEM_BOND_UDEF_STEREO_COUNT>
0

> <PUBCHEM_ISOTOPIC_ATOM_COUNT>
0

> <PUBCHEM_COMPONENT_COUNT>
1

> <PUBCHEM_CACTVS_TAUTO_COUNT>
2

> <PUBCHEM_COORDINATE_TYPE>
1
5
255

> <PUBCHEM_BONDANNOTATIONS>
11  33  5
13  36  5
17  19  5
8  3  6
9  30  6

$$$$

