11040809
  -OEChem-07051213152D

 27 27  0     1  0  0  0  0  0999 V2000
    2.5369    0.2500    0.0000 O   0  0  0  0  0  0  0  0  0  0  0  0
    5.1350   -0.2500    0.0000 N   0  0  0  0  0  0  0  0  0  0  0  0
    4.2690    0.2500    0.0000 C   0  0  2  0  0  0  0  0  0  0  0  0
    4.2690    1.2500    0.0000 C   0  0  0  0  0  0  0  0  0  0  0  0
    5.1350    1.7500    0.0000 C   0  0  0  0  0  0  0  0  0  0  0  0
    3.4030   -0.2500    0.0000 C   0  0  1  0  0  0  0  0  0  0  0  0
    6.0010    1.2500    0.0000 C   0  0  0  0  0  0  0  0  0  0  0  0
    6.0010    0.2500    0.0000 C   0  0  0  0  0  0  0  0  0  0  0  0
    3.4030   -1.2500    0.0000 C   0  0  0  0  0  0  0  0  0  0  0  0
    2.5369   -1.7500    0.0000 C   0  0  0  0  0  0  0  0  0  0  0  0
    4.2690   -0.6000    0.0000 H   0  0  0  0  0  0  0  0  0  0  0  0
    4.0569    1.8326    0.0000 H   0  0  0  0  0  0  0  0  0  0  0  0
    3.6584    1.1423    0.0000 H   0  0  0  0  0  0  0  0  0  0  0  0
    3.4030    0.3700    0.0000 H   0  0  0  0  0  0  0  0  0  0  0  0
    5.5335    2.2250    0.0000 H   0  0  0  0  0  0  0  0  0  0  0  0
    4.7365    2.2250    0.0000 H   0  0  0  0  0  0  0  0  0  0  0  0
    6.6116    1.1423    0.0000 H   0  0  0  0  0  0  0  0  0  0  0  0
    6.2131    1.8326    0.0000 H   0  0  0  0  0  0  0  0  0  0  0  0
    5.1350   -0.8700    0.0000 H   0  0  0  0  0  0  0  0  0  0  0  0
    6.2131   -0.3326    0.0000 H   0  0  0  0  0  0  0  0  0  0  0  0
    6.6116    0.3577    0.0000 H   0  0  0  0  0  0  0  0  0  0  0  0
    3.6150   -1.8326    0.0000 H   0  0  0  0  0  0  0  0  0  0  0  0
    4.0135   -1.1423    0.0000 H   0  0  0  0  0  0  0  0  0  0  0  0
    2.2269   -1.2131    0.0000 H   0  0  0  0  0  0  0  0  0  0  0  0
    2.0000   -2.0600    0.0000 H   0  0  0  0  0  0  0  0  0  0  0  0
    2.8469   -2.2869    0.0000 H   0  0  0  0  0  0  0  0  0  0  0  0
    2.0000   -0.0600    0.0000 H   0  0  0  0  0  0  0  0  0  0  0  0
  6  1  1  1  0  0  0
  1 27  1  0  0  0  0
  2  3  1  0  0  0  0
  2  8  1  0  0  0  0
  2 19  1  0  0  0  0
  3  4  1  0  0  0  0
  3  6  1  0  0  0  0
  3 11  1  6  0  0  0
  4  5  1  0  0  0  0
  4 12  1  0  0  0  0
  4 13  1  0  0  0  0
  5  7  1  0  0  0  0
  5 15  1  0  0  0  0
  5 16  1  0  0  0  0
  6  9  1  0  0  0  0
  6 14  1  0  0  0  0
  7  8  1  0  0  0  0
  7 17  1  0  0  0  0
  7 18  1  0  0  0  0
  8 20  1  0  0  0  0
  8 21  1  0  0  0  0
  9 10  1  0  0  0  0
  9 22  1  0  0  0  0
  9 23  1  0  0  0  0
 10 24  1  0  0  0  0
 10 25  1  0  0  0  0
 10 26  1  0  0  0  0
M  END
> <PUBCHEM_COMPOUND_CID>
11040809

> <PUBCHEM_COMPOUND_CANONICALIZED>
1

> <PUBCHEM_CACTVS_COMPLEXITY>
95.3

> <PUBCHEM_CACTVS_HBOND_ACCEPTOR>
2

> <PUBCHEM_CACTVS_HBOND_DONOR>
2

> <PUBCHEM_CACTVS_ROTATABLE_BOND>
2

> <PUBCHEM_CACTVS_SUBSKEYS>
AAADceByIAAAAAAAAAAAAAAAAAAAAAAAAAAsAAAAAAAAAAAAAAAAHgAQCAAACDzhgAYCAALAAgAAAAAAAAAAAAAAAAAAAIAIAAACEAIAgAAEQAAEEACQAAGQwIAAAAAAAAAAAAAAAAAAAAAAAAAAAAAAAA==

> <PUBCHEM_IUPAC_OPENEYE_NAME>
(1R)-1-[(2R)-2-piperidyl]propan-1-ol

> <PUBCHEM_IUPAC_CAS_NAME>
(1R)-1-[(2R)-2-piperidinyl]-1-propanol

> <PUBCHEM_IUPAC_NAME>
(1R)-1-[(2R)-piperidin-2-yl]propan-1-ol

> <PUBCHEM_IUPAC_SYSTEMATIC_NAME>
(1R)-1-[(2R)-piperidin-2-yl]propan-1-ol

> <PUBCHEM_IUPAC_TRADITIONAL_NAME>
(1R)-1-[(2R)-2-piperidyl]propan-1-ol

> <PUBCHEM_IUPAC_INCHI>
InChI=1S/C8H17NO/c1-2-8(10)7-5-3-4-6-9-7/h7-10H,2-6H2,1H3/t7-,8-/m1/s1

> <PUBCHEM_IUPAC_INCHIKEY>
VCCAAURNBULZRR-HTQZYQBOSA-N

> <PUBCHEM_XLOGP3_AA>
1

> <PUBCHEM_EXACT_MASS>
143.131014

> <PUBCHEM_MOLECULAR_FORMULA>
C8H17NO

> <PUBCHEM_MOLECULAR_WEIGHT>
143.22668

> <PUBCHEM_OPENEYE_CAN_SMILES>
CCC(C1CCCCN1)O

> <PUBCHEM_OPENEYE_ISO_SMILES>
CC[C@H]([C@H]1CCCCN1)O

> <PUBCHEM_CACTVS_TPSA>
32.3

> <PUBCHEM_MONOISOTOPIC_WEIGHT>
143.131014

> <PUBCHEM_TOTAL_CHARGE>
0

> <PUBCHEM_HEAVY_ATOM_COUNT>
10

> <PUBCHEM_ATOM_DEF_STEREO_COUNT>
2

> <PUBCHEM_ATOM_UDEF_STEREO_COUNT>
0

> <PUBCHEM_BOND_DEF_STEREO_COUNT>
0

> <PUBCHEM_BOND_UDEF_STEREO_COUNT>
0

> <PUBCHEM_ISOTOPIC_ATOM_COUNT>
0

> <PUBCHEM_COMPONENT_COUNT>
1

> <PUBCHEM_CACTVS_TAUTO_COUNT>
1

> <PUBCHEM_COORDINATE_TYPE>
1
5
255

> <PUBCHEM_BONDANNOTATIONS>
6  1  5
3  11  6

$$$$

