227671
  -OEChem-07051213062D

 54 57  0     1  0  0  0  0  0999 V2000
    9.9391    2.7551    0.0000 F   0  0  0  0  0  0  0  0  0  0  0  0
    4.7950    0.8431    0.0000 O   0  0  0  0  0  0  0  0  0  0  0  0
    7.9821    2.3426    0.0000 O   0  0  0  0  0  0  0  0  0  0  0  0
    2.0000   -2.7092    0.0000 O   0  0  0  0  0  0  0  0  0  0  0  0
    7.3931   -0.6569    0.0000 C   0  0  2  0  0  0  0  0  0  0  0  0
    7.3931    0.3431    0.0000 C   0  0  2  0  0  0  0  0  0  0  0  0
    6.5271   -1.1569    0.0000 C   0  0  1  0  0  0  0  0  0  0  0  0
    5.6610   -0.6569    0.0000 C   0  0  1  0  0  0  0  0  0  0  0  0
    4.7510   -1.1638    0.0000 C   0  0  2  0  0  0  0  0  0  0  0  0
    6.5271    0.8431    0.0000 C   0  0  0  0  0  0  0  0  0  0  0  0
    8.3393    0.6478    0.0000 C   0  0  2  0  0  0  0  0  0  0  0  0
    5.6610    0.3431    0.0000 C   0  0  2  0  0  0  0  0  0  0  0  0
    8.3393   -0.9616    0.0000 C   0  0  0  0  0  0  0  0  0  0  0  0
    6.5431   -2.1984    0.0000 C   0  0  0  0  0  0  0  0  0  0  0  0
    8.9229   -0.1569    0.0000 C   0  0  0  0  0  0  0  0  0  0  0  0
    4.7430   -2.2054    0.0000 C   0  0  0  0  0  0  0  0  0  0  0  0
    7.3931    1.3431    0.0000 C   0  0  0  0  0  0  0  0  0  0  0  0
    5.6451   -2.7262    0.0000 C   0  0  0  0  0  0  0  0  0  0  0  0
    3.8242   -0.5997    0.0000 C   0  0  0  0  0  0  0  0  0  0  0  0
    4.7587   -0.1638    0.0000 C   0  0  0  0  0  0  0  0  0  0  0  0
    8.6500    1.5983    0.0000 C   0  0  0  0  0  0  0  0  0  0  0  0
    2.8763   -1.1276    0.0000 C   0  0  0  0  0  0  0  0  0  0  0  0
    3.8076   -2.7551    0.0000 C   0  0  0  0  0  0  0  0  0  0  0  0
    2.8680   -2.2126    0.0000 C   0  0  0  0  0  0  0  0  0  0  0  0
    9.6285    1.8046    0.0000 C   0  0  0  0  0  0  0  0  0  0  0  0
    7.4830   -1.5021    0.0000 H   0  0  0  0  0  0  0  0  0  0  0  0
    7.2664   -1.5762    0.0000 H   0  0  0  0  0  0  0  0  0  0  0  0
    6.3972   -0.2319    0.0000 H   0  0  0  0  0  0  0  0  0  0  0  0
    6.9256    1.3180    0.0000 H   0  0  0  0  0  0  0  0  0  0  0  0
    6.1285    1.3180    0.0000 H   0  0  0  0  0  0  0  0  0  0  0  0
    7.9018    1.0872    0.0000 H   0  0  0  0  0  0  0  0  0  0  0  0
    5.6610    0.9631    0.0000 H   0  0  0  0  0  0  0  0  0  0  0  0
    8.0883   -1.5286    0.0000 H   0  0  0  0  0  0  0  0  0  0  0  0
    8.8767   -1.2709    0.0000 H   0  0  0  0  0  0  0  0  0  0  0  0
    6.7612   -2.7788    0.0000 H   0  0  0  0  0  0  0  0  0  0  0  0
    7.1523   -2.0829    0.0000 H   0  0  0  0  0  0  0  0  0  0  0  0
    9.3838   -0.5716    0.0000 H   0  0  0  0  0  0  0  0  0  0  0  0
    9.3838    0.2578    0.0000 H   0  0  0  0  0  0  0  0  0  0  0  0
    8.0131    1.3431    0.0000 H   0  0  0  0  0  0  0  0  0  0  0  0
    7.3931    1.9631    0.0000 H   0  0  0  0  0  0  0  0  0  0  0  0
    6.7731    1.3431    0.0000 H   0  0  0  0  0  0  0  0  0  0  0  0
    5.2478   -3.2021    0.0000 H   0  0  0  0  0  0  0  0  0  0  0  0
    6.0460   -3.1991    0.0000 H   0  0  0  0  0  0  0  0  0  0  0  0
    4.2324   -0.1330    0.0000 H   0  0  0  0  0  0  0  0  0  0  0  0
    3.4343   -0.1176    0.0000 H   0  0  0  0  0  0  0  0  0  0  0  0
    5.3787   -0.1686    0.0000 H   0  0  0  0  0  0  0  0  0  0  0  0
    4.7635    0.4562    0.0000 H   0  0  0  0  0  0  0  0  0  0  0  0
    4.1388   -0.1590    0.0000 H   0  0  0  0  0  0  0  0  0  0  0  0
    2.6718   -0.5423    0.0000 H   0  0  0  0  0  0  0  0  0  0  0  0
    2.2647   -1.2290    0.0000 H   0  0  0  0  0  0  0  0  0  0  0  0
    4.7950    1.4631    0.0000 H   0  0  0  0  0  0  0  0  0  0  0  0
    3.8100   -3.3751    0.0000 H   0  0  0  0  0  0  0  0  0  0  0  0
    9.6490    1.1849    0.0000 H   0  0  0  0  0  0  0  0  0  0  0  0
   10.2423    1.7172    0.0000 H   0  0  0  0  0  0  0  0  0  0  0  0
  1 25  1  0  0  0  0
 12  2  1  1  0  0  0
  2 51  1  0  0  0  0
  3 21  2  0  0  0  0
  4 24  2  0  0  0  0
  5  6  1  0  0  0  0
  5  7  1  0  0  0  0
  5 13  1  0  0  0  0
  5 26  1  6  0  0  0
  6 10  1  0  0  0  0
  6 11  1  0  0  0  0
  6 17  1  1  0  0  0
  7  8  1  0  0  0  0
  7 14  1  0  0  0  0
  7 27  1  1  0  0  0
  8  9  1  0  0  0  0
  8 12  1  0  0  0  0
  8 28  1  6  0  0  0
  9 16  1  0  0  0  0
  9 19  1  0  0  0  0
  9 20  1  1  0  0  0
 10 12  1  0  0  0  0
 10 29  1  0  0  0  0
 10 30  1  0  0  0  0
 11 15  1  0  0  0  0
 11 21  1  1  0  0  0
 11 31  1  0  0  0  0
 12 32  1  0  0  0  0
 13 15  1  0  0  0  0
 13 33  1  0  0  0  0
 13 34  1  0  0  0  0
 14 18  1  0  0  0  0
 14 35  1  0  0  0  0
 14 36  1  0  0  0  0
 15 37  1  0  0  0  0
 15 38  1  0  0  0  0
 16 18  1  0  0  0  0
 16 23  2  0  0  0  0
 17 39  1  0  0  0  0
 17 40  1  0  0  0  0
 17 41  1  0  0  0  0
 18 42  1  0  0  0  0
 18 43  1  0  0  0  0
 19 22  1  0  0  0  0
 19 44  1  0  0  0  0
 19 45  1  0  0  0  0
 20 46  1  0  0  0  0
 20 47  1  0  0  0  0
 20 48  1  0  0  0  0
 21 25  1  0  0  0  0
 22 24  1  0  0  0  0
 22 49  1  0  0  0  0
 22 50  1  0  0  0  0
 23 24  1  0  0  0  0
 23 52  1  0  0  0  0
 25 53  1  0  0  0  0
 25 54  1  0  0  0  0
M  END
> <PUBCHEM_COMPOUND_CID>
227671

> <PUBCHEM_COMPOUND_CANONICALIZED>
1

> <PUBCHEM_CACTVS_COMPLEXITY>
641

> <PUBCHEM_CACTVS_HBOND_ACCEPTOR>
4

> <PUBCHEM_CACTVS_HBOND_DONOR>
1

> <PUBCHEM_CACTVS_ROTATABLE_BOND>
2

> <PUBCHEM_CACTVS_SUBSKEYS>
AAADceB4MQAAAAAAAAAAAAAAAAAAAYAAAAAwYIAAAAAAAGDAAAAAGwAACAAADxSggAICAAAAAgCIAqBSAAAAAAAgAAAACAEAAEgAEBIAAQAAQAAEgAAIAQOIzPDPgAAAAAAAAADAAAYAADAAAQAACAAAAA==

> <PUBCHEM_IUPAC_OPENEYE_NAME>
(8S,9S,10R,11S,13S,14S,17S)-17-(2-fluoroacetyl)-11-hydroxy-10,13-dimethyl-1,2,6,7,8,9,11,12,14,15,16,17-dodecahydrocyclopenta[a]phenanthren-3-one

> <PUBCHEM_IUPAC_CAS_NAME>
(8S,9S,10R,11S,13S,14S,17S)-17-(2-fluoro-1-oxoethyl)-11-hydroxy-10,13-dimethyl-1,2,6,7,8,9,11,12,14,15,16,17-dodecahydrocyclopenta[a]phenanthren-3-one

> <PUBCHEM_IUPAC_NAME>
(8S,9S,10R,11S,13S,14S,17S)-17-(2-fluoroacetyl)-11-hydroxy-10,13-dimethyl-1,2,6,7,8,9,11,12,14,15,16,17-dodecahydrocyclopenta[a]phenanthren-3-one

> <PUBCHEM_IUPAC_SYSTEMATIC_NAME>
(8S,9S,10R,11S,13S,14S,17S)-17-(2-fluoranylethanoyl)-10,13-dimethyl-11-oxidanyl-1,2,6,7,8,9,11,12,14,15,16,17-dodecahydrocyclopenta[a]phenanthren-3-one

> <PUBCHEM_IUPAC_TRADITIONAL_NAME>
(8S,9S,10R,11S,13S,14S,17S)-17-(2-fluoroacetyl)-11-hydroxy-10,13-dimethyl-1,2,6,7,8,9,11,12,14,15,16,17-dodecahydrocyclopenta[a]phenanthren-3-one

> <PUBCHEM_IUPAC_INCHI>
InChI=1S/C21H29FO3/c1-20-8-7-13(23)9-12(20)3-4-14-15-5-6-16(18(25)11-22)21(15,2)10-17(24)19(14)20/h9,14-17,19,24H,3-8,10-11H2,1-2H3/t14-,15-,16+,17-,19+,20-,21-/m0/s1

> <PUBCHEM_IUPAC_INCHIKEY>
UXQRVGWQURFJGJ-HJTSIMOOSA-N

> <PUBCHEM_XLOGP3>
3

> <PUBCHEM_EXACT_MASS>
348.210073

> <PUBCHEM_MOLECULAR_FORMULA>
C21H29FO3

> <PUBCHEM_MOLECULAR_WEIGHT>
348.451563

> <PUBCHEM_OPENEYE_CAN_SMILES>
CC12CCC(=O)C=C1CCC3C2C(CC4(C3CCC4C(=O)CF)C)O

> <PUBCHEM_OPENEYE_ISO_SMILES>
C[C@]12CCC(=O)C=C1CC[C@@H]3[C@@H]2[C@H](C[C@]4([C@H]3CC[C@@H]4C(=O)CF)C)O

> <PUBCHEM_CACTVS_TPSA>
54.4

> <PUBCHEM_MONOISOTOPIC_WEIGHT>
348.210073

> <PUBCHEM_TOTAL_CHARGE>
0

> <PUBCHEM_HEAVY_ATOM_COUNT>
25

> <PUBCHEM_ATOM_DEF_STEREO_COUNT>
7

> <PUBCHEM_ATOM_UDEF_STEREO_COUNT>
0

> <PUBCHEM_BOND_DEF_STEREO_COUNT>
0

> <PUBCHEM_BOND_UDEF_STEREO_COUNT>
0

> <PUBCHEM_ISOTOPIC_ATOM_COUNT>
0

> <PUBCHEM_COMPONENT_COUNT>
1

> <PUBCHEM_CACTVS_TAUTO_COUNT>
15

> <PUBCHEM_COORDINATE_TYPE>
1
5
255

> <PUBCHEM_BONDANNOTATIONS>
11  21  5
12  2  5
5  26  6
6  17  5
7  27  5
8  28  6
9  20  5

$$$$

