252376
  -OEChem-07051213072D

 51 54  0     1  0  0  0  0  0999 V2000
   10.0134    1.4410    0.0000 O   0  0  0  0  0  0  0  0  0  0  0  0
    2.8641   -2.5024    0.0000 O   0  0  0  0  0  0  0  0  0  0  0  0
    8.2572    0.5499    0.0000 C   0  0  1  0  0  0  0  0  0  0  0  0
    8.2572   -0.4501    0.0000 C   0  0  2  0  0  0  0  0  0  0  0  0
    7.3912   -0.9501    0.0000 C   0  0  1  0  0  0  0  0  0  0  0  0
    9.2034    0.8547    0.0000 C   0  0  2  0  0  0  0  0  0  0  0  0
    6.5251   -0.4501    0.0000 C   0  0  2  0  0  0  0  0  0  0  0  0
    7.3912    1.0499    0.0000 C   0  0  0  0  0  0  0  0  0  0  0  0
    9.2034   -0.7548    0.0000 C   0  0  0  0  0  0  0  0  0  0  0  0
    9.7870    0.0499    0.0000 C   0  0  0  0  0  0  0  0  0  0  0  0
    6.5251    0.5499    0.0000 C   0  0  0  0  0  0  0  0  0  0  0  0
    7.4072   -1.9916    0.0000 C   0  0  0  0  0  0  0  0  0  0  0  0
    8.2572    1.5499    0.0000 C   0  0  0  0  0  0  0  0  0  0  0  0
    5.6151   -0.9569    0.0000 C   0  0  0  0  0  0  0  0  0  0  0  0
    6.5092   -2.5193    0.0000 C   0  0  0  0  0  0  0  0  0  0  0  0
    8.8960    1.8062    0.0000 C   0  0  0  0  0  0  0  0  0  0  0  0
    5.6071   -1.9985    0.0000 C   0  0  0  0  0  0  0  0  0  0  0  0
    4.6883   -0.3928    0.0000 C   0  0  0  0  0  0  0  0  0  0  0  0
    4.6717   -2.5482    0.0000 C   0  0  0  0  0  0  0  0  0  0  0  0
    9.5664    2.5482    0.0000 C   0  0  0  0  0  0  0  0  0  0  0  0
    3.7404   -0.9208    0.0000 C   0  0  0  0  0  0  0  0  0  0  0  0
    3.7320   -2.0057    0.0000 C   0  0  0  0  0  0  0  0  0  0  0  0
    2.0000   -1.9991    0.0000 C   0  0  0  0  0  0  0  0  0  0  0  0
    8.3471   -1.2953    0.0000 H   0  0  0  0  0  0  0  0  0  0  0  0
    8.1305   -1.3694    0.0000 H   0  0  0  0  0  0  0  0  0  0  0  0
    7.2612   -0.0251    0.0000 H   0  0  0  0  0  0  0  0  0  0  0  0
    7.7897    1.5249    0.0000 H   0  0  0  0  0  0  0  0  0  0  0  0
    6.9926    1.5249    0.0000 H   0  0  0  0  0  0  0  0  0  0  0  0
    8.9524   -1.3217    0.0000 H   0  0  0  0  0  0  0  0  0  0  0  0
    9.7408   -1.0640    0.0000 H   0  0  0  0  0  0  0  0  0  0  0  0
   10.2479   -0.3648    0.0000 H   0  0  0  0  0  0  0  0  0  0  0  0
   10.2479    0.4647    0.0000 H   0  0  0  0  0  0  0  0  0  0  0  0
    6.3131    1.1325    0.0000 H   0  0  0  0  0  0  0  0  0  0  0  0
    5.9145    0.4423    0.0000 H   0  0  0  0  0  0  0  0  0  0  0  0
    7.6252   -2.5720    0.0000 H   0  0  0  0  0  0  0  0  0  0  0  0
    8.0164   -1.8761    0.0000 H   0  0  0  0  0  0  0  0  0  0  0  0
    8.8772    1.5499    0.0000 H   0  0  0  0  0  0  0  0  0  0  0  0
    8.2572    2.1699    0.0000 H   0  0  0  0  0  0  0  0  0  0  0  0
    7.6372    1.5499    0.0000 H   0  0  0  0  0  0  0  0  0  0  0  0
    6.1119   -2.9953    0.0000 H   0  0  0  0  0  0  0  0  0  0  0  0
    6.9101   -2.9922    0.0000 H   0  0  0  0  0  0  0  0  0  0  0  0
    8.2898    1.9362    0.0000 H   0  0  0  0  0  0  0  0  0  0  0  0
   10.5794    1.1879    0.0000 H   0  0  0  0  0  0  0  0  0  0  0  0
    4.7002    0.2271    0.0000 H   0  0  0  0  0  0  0  0  0  0  0  0
    4.6741   -3.1682    0.0000 H   0  0  0  0  0  0  0  0  0  0  0  0
   10.1727    2.4183    0.0000 H   0  0  0  0  0  0  0  0  0  0  0  0
    9.3759    3.1382    0.0000 H   0  0  0  0  0  0  0  0  0  0  0  0
    3.2071   -0.6046    0.0000 H   0  0  0  0  0  0  0  0  0  0  0  0
    2.3121   -1.4633    0.0000 H   0  0  0  0  0  0  0  0  0  0  0  0
    1.4643   -1.6870    0.0000 H   0  0  0  0  0  0  0  0  0  0  0  0
    1.6879   -2.5348    0.0000 H   0  0  0  0  0  0  0  0  0  0  0  0
  6  1  1  1  0  0  0
  1 43  1  0  0  0  0
  2 22  1  0  0  0  0
  2 23  1  0  0  0  0
  3  4  1  0  0  0  0
  3  6  1  0  0  0  0
  3  8  1  0  0  0  0
  3 13  1  1  0  0  0
  4  5  1  0  0  0  0
  4  9  1  0  0  0  0
  4 24  1  6  0  0  0
  5  7  1  0  0  0  0
  5 12  1  0  0  0  0
  5 25  1  1  0  0  0
  6 10  1  0  0  0  0
  6 16  1  0  0  0  0
  7 11  1  0  0  0  0
  7 14  1  0  0  0  0
  7 26  1  6  0  0  0
  8 11  1  0  0  0  0
  8 27  1  0  0  0  0
  8 28  1  0  0  0  0
  9 10  1  0  0  0  0
  9 29  1  0  0  0  0
  9 30  1  0  0  0  0
 10 31  1  0  0  0  0
 10 32  1  0  0  0  0
 11 33  1  0  0  0  0
 11 34  1  0  0  0  0
 12 15  1  0  0  0  0
 12 35  1  0  0  0  0
 12 36  1  0  0  0  0
 13 37  1  0  0  0  0
 13 38  1  0  0  0  0
 13 39  1  0  0  0  0
 14 17  2  0  0  0  0
 14 18  1  0  0  0  0
 15 17  1  0  0  0  0
 15 40  1  0  0  0  0
 15 41  1  0  0  0  0
 16 20  2  0  0  0  0
 16 42  1  0  0  0  0
 17 19  1  0  0  0  0
 18 21  2  0  0  0  0
 18 44  1  0  0  0  0
 19 22  2  0  0  0  0
 19 45  1  0  0  0  0
 20 46  1  0  0  0  0
 20 47  1  0  0  0  0
 21 22  1  0  0  0  0
 21 48  1  0  0  0  0
 23 49  1  0  0  0  0
 23 50  1  0  0  0  0
 23 51  1  0  0  0  0
M  END
> <PUBCHEM_COMPOUND_CID>
252376

> <PUBCHEM_COMPOUND_CANONICALIZED>
1

> <PUBCHEM_CACTVS_COMPLEXITY>
475

> <PUBCHEM_CACTVS_HBOND_ACCEPTOR>
2

> <PUBCHEM_CACTVS_HBOND_DONOR>
1

> <PUBCHEM_CACTVS_ROTATABLE_BOND>
2

> <PUBCHEM_CACTVS_SUBSKEYS>
AAADceB4MAAAAAAAAAAAAAAAAAAAAYAAAAAwYMAAAAAAAGDBAAAAGgAACAAAD0SAmAIyBoAABgCAAiBCAAACCAAgIAAIiAAGCIgMJiKEMRqAcCAkwBEIuAeAwPAPoAABAAAQAADAAAYAACAAAYAADAAAAA==

> <PUBCHEM_IUPAC_OPENEYE_NAME>
(8R,9S,13S,14S,17R)-3-methoxy-13-methyl-17-vinyl-7,8,9,11,12,14,15,16-octahydro-6H-cyclopenta[a]phenanthren-17-ol

> <PUBCHEM_IUPAC_CAS_NAME>
(8R,9S,13S,14S,17R)-17-ethenyl-3-methoxy-13-methyl-7,8,9,11,12,14,15,16-octahydro-6H-cyclopenta[a]phenanthren-17-ol

> <PUBCHEM_IUPAC_NAME>
(8R,9S,13S,14S,17R)-17-ethenyl-3-methoxy-13-methyl-7,8,9,11,12,14,15,16-octahydro-6H-cyclopenta[a]phenanthren-17-ol

> <PUBCHEM_IUPAC_SYSTEMATIC_NAME>
(8R,9S,13S,14S,17R)-17-ethenyl-3-methoxy-13-methyl-7,8,9,11,12,14,15,16-octahydro-6H-cyclopenta[a]phenanthren-17-ol

> <PUBCHEM_IUPAC_TRADITIONAL_NAME>
(8R,9S,13S,14S,17R)-3-methoxy-13-methyl-17-vinyl-7,8,9,11,12,14,15,16-octahydro-6H-cyclopenta[a]phenanthren-17-ol

> <PUBCHEM_IUPAC_INCHI>
InChI=1S/C21H28O2/c1-4-21(22)12-10-19-18-7-5-14-13-15(23-3)6-8-16(14)17(18)9-11-20(19,21)2/h4,6,8,13,17-19,22H,1,5,7,9-12H2,2-3H3/t17-,18-,19+,20+,21+/m1/s1

> <PUBCHEM_IUPAC_INCHIKEY>
BFJGDRRSEQORFA-MJCUULBUSA-N

> <PUBCHEM_XLOGP3>
4.5

> <PUBCHEM_EXACT_MASS>
312.20893

> <PUBCHEM_MOLECULAR_FORMULA>
C21H28O2

> <PUBCHEM_MOLECULAR_WEIGHT>
312.44582

> <PUBCHEM_OPENEYE_CAN_SMILES>
CC12CCC3C(C1CCC2(C=C)O)CCC4=C3C=CC(=C4)OC

> <PUBCHEM_OPENEYE_ISO_SMILES>
C[C@]12CC[C@H]3[C@H]([C@@H]1CC[C@]2(C=C)O)CCC4=C3C=CC(=C4)OC

> <PUBCHEM_CACTVS_TPSA>
29.5

> <PUBCHEM_MONOISOTOPIC_WEIGHT>
312.20893

> <PUBCHEM_TOTAL_CHARGE>
0

> <PUBCHEM_HEAVY_ATOM_COUNT>
23

> <PUBCHEM_ATOM_DEF_STEREO_COUNT>
5

> <PUBCHEM_ATOM_UDEF_STEREO_COUNT>
0

> <PUBCHEM_BOND_DEF_STEREO_COUNT>
0

> <PUBCHEM_BOND_UDEF_STEREO_COUNT>
0

> <PUBCHEM_ISOTOPIC_ATOM_COUNT>
0

> <PUBCHEM_COMPONENT_COUNT>
1

> <PUBCHEM_CACTVS_TAUTO_COUNT>
1

> <PUBCHEM_COORDINATE_TYPE>
1
5
255

> <PUBCHEM_BONDANNOTATIONS>
6  1  5
14  17  8
14  18  8
17  19  8
18  21  8
19  22  8
21  22  8
3  13  5
4  24  6
5  25  5
7  26  6

$$$$

