10984266
  -OEChem-07051213112D

 58 60  0     1  0  0  0  0  0999 V2000
    6.4021   -1.5036    0.0000 P   0  0  3  0  0  0  0  0  0  0  0  0
    7.9844   -2.2081    0.0000 P   0  0  3  0  0  0  0  0  0  0  0  0
    4.5411    0.9609    0.0000 O   0  0  0  0  0  0  0  0  0  0  0  0
    2.6443   -0.7991    0.0000 O   0  0  0  0  0  0  0  0  0  0  0  0
    5.8144   -0.6946    0.0000 O   0  0  0  0  0  0  0  0  0  0  0  0
    9.1600   -3.8262    0.0000 O   0  0  0  0  0  0  0  0  0  0  0  0
    8.9790   -2.1036    0.0000 O   0  0  0  0  0  0  0  0  0  0  0  0
    6.9899   -2.3126    0.0000 O   0  0  0  0  0  0  0  0  0  0  0  0
   11.3301   -5.3397    0.0000 O   0  0  0  0  0  0  0  0  0  0  0  0
    2.0000    2.5487    0.0000 O   0  0  0  0  0  0  0  0  0  0  0  0
    7.2112   -0.9158    0.0000 O   0  0  0  0  0  0  0  0  0  0  0  0
   12.1436   -3.5126    0.0000 O   0  0  0  0  0  0  0  0  0  0  0  0
    5.5931   -2.0914    0.0000 O   0  0  0  0  0  0  0  0  0  0  0  0
    3.7320    5.5487    0.0000 O   0  0  0  0  0  0  0  0  0  0  0  0
    8.0890   -3.2026    0.0000 O   0  0  0  0  0  0  0  0  0  0  0  0
    7.8799   -1.2136    0.0000 O   0  0  0  0  0  0  0  0  0  0  0  0
    3.7320    2.5487    0.0000 N   0  0  0  0  0  0  0  0  0  0  0  0
    2.8660    4.0487    0.0000 N   0  0  0  0  0  0  0  0  0  0  0  0
    3.2320    0.0099    0.0000 C   0  0  2  0  0  0  0  0  0  0  0  0
    4.2320    0.0099    0.0000 C   0  0  1  0  0  0  0  0  0  0  0  0
    2.9230    0.9609    0.0000 C   0  0  0  0  0  0  0  0  0  0  0  0
    3.7320    1.5487    0.0000 C   0  0  1  0  0  0  0  0  0  0  0  0
    4.8198   -0.7991    0.0000 C   0  0  0  0  0  0  0  0  0  0  0  0
    4.5981    3.0487    0.0000 C   0  0  0  0  0  0  0  0  0  0  0  0
    2.8660    3.0487    0.0000 C   0  0  0  0  0  0  0  0  0  0  0  0
    9.7478   -4.6352    0.0000 C   0  0  1  0  0  0  0  0  0  0  0  0
   10.7423   -4.5306    0.0000 C   0  0  2  0  0  0  0  0  0  0  0  0
    9.5668   -2.9126    0.0000 C   0  0  2  0  0  0  0  0  0  0  0  0
   10.5613   -2.8081    0.0000 C   0  0  0  0  0  0  0  0  0  0  0  0
    4.5981    4.0487    0.0000 C   0  0  0  0  0  0  0  0  0  0  0  0
   11.1491   -3.6171    0.0000 C   0  0  0  0  0  0  0  0  0  0  0  0
    3.7320    4.5487    0.0000 C   0  0  0  0  0  0  0  0  0  0  0  0
    9.3411   -5.5487    0.0000 C   0  0  0  0  0  0  0  0  0  0  0  0
    5.4641    4.5487    0.0000 C   0  0  0  0  0  0  0  0  0  0  0  0
    3.5135   -0.5426    0.0000 H   0  0  0  0  0  0  0  0  0  0  0  0
    4.8444    0.1069    0.0000 H   0  0  0  0  0  0  0  0  0  0  0  0
    2.6130    1.4979    0.0000 H   0  0  0  0  0  0  0  0  0  0  0  0
    2.3566    0.7088    0.0000 H   0  0  0  0  0  0  0  0  0  0  0  0
    4.2845    1.8302    0.0000 H   0  0  0  0  0  0  0  0  0  0  0  0
    4.2626   -1.0709    0.0000 H   0  0  0  0  0  0  0  0  0  0  0  0
    4.9907   -1.3951    0.0000 H   0  0  0  0  0  0  0  0  0  0  0  0
    2.0277   -0.7343    0.0000 H   0  0  0  0  0  0  0  0  0  0  0  0
    5.1350    2.7387    0.0000 H   0  0  0  0  0  0  0  0  0  0  0  0
    9.1312   -4.7000    0.0000 H   0  0  0  0  0  0  0  0  0  0  0  0
   10.4902   -5.0970    0.0000 H   0  0  0  0  0  0  0  0  0  0  0  0
    8.9502   -2.9774    0.0000 H   0  0  0  0  0  0  0  0  0  0  0  0
   11.1185   -2.5363    0.0000 H   0  0  0  0  0  0  0  0  0  0  0  0
   10.3904   -2.2121    0.0000 H   0  0  0  0  0  0  0  0  0  0  0  0
    2.3291    4.3587    0.0000 H   0  0  0  0  0  0  0  0  0  0  0  0
    8.7747   -5.2965    0.0000 H   0  0  0  0  0  0  0  0  0  0  0  0
    9.0889   -6.1151    0.0000 H   0  0  0  0  0  0  0  0  0  0  0  0
    9.9075   -5.8009    0.0000 H   0  0  0  0  0  0  0  0  0  0  0  0
    5.7741    4.0118    0.0000 H   0  0  0  0  0  0  0  0  0  0  0  0
    6.0010    4.8587    0.0000 H   0  0  0  0  0  0  0  0  0  0  0  0
    5.1541    5.0856    0.0000 H   0  0  0  0  0  0  0  0  0  0  0  0
   11.9467   -5.2748    0.0000 H   0  0  0  0  0  0  0  0  0  0  0  0
    7.1464   -0.2992    0.0000 H   0  0  0  0  0  0  0  0  0  0  0  0
    7.5874   -3.5671    0.0000 H   0  0  0  0  0  0  0  0  0  0  0  0
  1  5  1  0  0  0  0
  1  8  1  0  0  0  0
  1 11  1  0  0  0  0
  1 13  2  0  0  0  0
  2  7  1  0  0  0  0
  2  8  1  0  0  0  0
  2 15  1  0  0  0  0
  2 16  2  0  0  0  0
  3 20  1  0  0  0  0
  3 22  1  0  0  0  0
 19  4  1  1  0  0  0
  4 42  1  0  0  0  0
  5 23  1  0  0  0  0
  6 26  1  0  0  0  0
  6 28  1  0  0  0  0
 28  7  1  6  0  0  0
 27  9  1  6  0  0  0
  9 56  1  0  0  0  0
 10 25  2  0  0  0  0
 11 57  1  0  0  0  0
 12 31  2  0  0  0  0
 14 32  2  0  0  0  0
 15 58  1  0  0  0  0
 22 17  1  6  0  0  0
 17 24  1  0  0  0  0
 17 25  1  0  0  0  0
 18 25  1  0  0  0  0
 18 32  1  0  0  0  0
 18 49  1  0  0  0  0
 19 20  1  0  0  0  0
 19 21  1  0  0  0  0
 19 35  1  0  0  0  0
 20 23  1  6  0  0  0
 20 36  1  0  0  0  0
 21 22  1  0  0  0  0
 21 37  1  0  0  0  0
 21 38  1  0  0  0  0
 22 39  1  0  0  0  0
 23 40  1  0  0  0  0
 23 41  1  0  0  0  0
 24 30  2  0  0  0  0
 24 43  1  0  0  0  0
 26 27  1  0  0  0  0
 26 33  1  1  0  0  0
 26 44  1  0  0  0  0
 27 31  1  0  0  0  0
 27 45  1  0  0  0  0
 28 29  1  0  0  0  0
 28 46  1  0  0  0  0
 29 31  1  0  0  0  0
 29 47  1  0  0  0  0
 29 48  1  0  0  0  0
 30 32  1  0  0  0  0
 30 34  1  0  0  0  0
 33 50  1  0  0  0  0
 33 51  1  0  0  0  0
 33 52  1  0  0  0  0
 34 53  1  0  0  0  0
 34 54  1  0  0  0  0
 34 55  1  0  0  0  0
M  END
> <PUBCHEM_COMPOUND_CID>
10984266

> <PUBCHEM_COMPOUND_CANONICALIZED>
1

> <PUBCHEM_CACTVS_COMPLEXITY>
971

> <PUBCHEM_CACTVS_HBOND_ACCEPTOR>
14

> <PUBCHEM_CACTVS_HBOND_DONOR>
5

> <PUBCHEM_CACTVS_ROTATABLE_BOND>
8

> <PUBCHEM_CACTVS_SUBSKEYS>
AAADceB7PAMAAAAAAAAAAAAAAAAAASAAAAAkQAAAAAAAAAAAAAAAHgAQCCAADBTxgAcDCAPABxCIQoFWUIKAAAAAAAAAAAFIAECREBYAgQAOQAAPJyIHAMHwcAYAAAAAAAAAAAAAAAAAAAAAAAAAAAAAAA==

> <PUBCHEM_IUPAC_OPENEYE_NAME>
[hydroxy-[[(2R,3S,5R)-3-hydroxy-5-(5-methyl-2,4-dioxo-pyrimidin-1-yl)tetrahydrofuran-2-yl]methoxy]phosphoryl] [(2R,5R,6R)-5-hydroxy-6-methyl-4-oxo-tetrahydropyran-2-yl] hydrogen phosphate

> <PUBCHEM_IUPAC_CAS_NAME>
[hydroxy-[[(2R,3S,5R)-3-hydroxy-5-(5-methyl-2,4-dioxo-1-pyrimidinyl)-2-oxolanyl]methoxy]phosphoryl] [(2R,5R,6R)-5-hydroxy-6-methyl-4-oxo-2-oxanyl] hydrogen phosphate

> <PUBCHEM_IUPAC_NAME>
[hydroxy-[[(2R,3S,5R)-3-hydroxy-5-(5-methyl-2,4-dioxopyrimidin-1-yl)oxolan-2-yl]methoxy]phosphoryl] [(2R,5R,6R)-5-hydroxy-6-methyl-4-oxooxan-2-yl] hydrogen phosphate

> <PUBCHEM_IUPAC_SYSTEMATIC_NAME>
[[(2R,3S,5R)-5-[5-methyl-2,4-bis(oxidanylidene)pyrimidin-1-yl]-3-oxidanyl-oxolan-2-yl]methoxy-oxidanyl-phosphoryl] [(2R,5R,6R)-6-methyl-5-oxidanyl-4-oxidanylidene-oxan-2-yl] hydrogen phosphate

> <PUBCHEM_IUPAC_TRADITIONAL_NAME>
[[(2R,3S,5R)-5-(2,4-diketo-5-methyl-pyrimidin-1-yl)-3-hydroxy-tetrahydrofuran-2-yl]methoxy-hydroxy-phosphoryl] [(2R,5R,6R)-5-hydroxy-4-keto-6-methyl-tetrahydropyran-2-yl] hydrogen phosphate

> <PUBCHEM_IUPAC_INCHI>
InChI=1S/C16H24N2O14P2/c1-7-5-18(16(23)17-15(7)22)12-3-9(19)11(30-12)6-28-33(24,25)32-34(26,27)31-13-4-10(20)14(21)8(2)29-13/h5,8-9,11-14,19,21H,3-4,6H2,1-2H3,(H,24,25)(H,26,27)(H,17,22,23)/t8-,9+,11-,12-,13-,14-/m1/s1

> <PUBCHEM_IUPAC_INCHIKEY>
CZNNQWMLAHSKRA-RRLVPJIRSA-N

> <PUBCHEM_XLOGP3_AA>
-3.8

> <PUBCHEM_EXACT_MASS>
530.070277

> <PUBCHEM_MOLECULAR_FORMULA>
C16H24N2O14P2

> <PUBCHEM_MOLECULAR_WEIGHT>
530.314284

> <PUBCHEM_OPENEYE_CAN_SMILES>
CC1C(C(=O)CC(O1)OP(=O)(O)OP(=O)(O)OCC2C(CC(O2)N3C=C(C(=O)NC3=O)C)O)O

> <PUBCHEM_OPENEYE_ISO_SMILES>
C[C@@H]1[C@H](C(=O)C[C@H](O1)OP(=O)(O)OP(=O)(O)OC[C@@H]2[C@H](C[C@@H](O2)N3C=C(C(=O)NC3=O)C)O)O

> <PUBCHEM_CACTVS_TPSA>
228

> <PUBCHEM_MONOISOTOPIC_WEIGHT>
530.070277

> <PUBCHEM_TOTAL_CHARGE>
0

> <PUBCHEM_HEAVY_ATOM_COUNT>
34

> <PUBCHEM_ATOM_DEF_STEREO_COUNT>
6

> <PUBCHEM_ATOM_UDEF_STEREO_COUNT>
0

> <PUBCHEM_BOND_DEF_STEREO_COUNT>
0

> <PUBCHEM_BOND_UDEF_STEREO_COUNT>
0

> <PUBCHEM_ISOTOPIC_ATOM_COUNT>
0

> <PUBCHEM_COMPONENT_COUNT>
1

> <PUBCHEM_CACTVS_TAUTO_COUNT>
15

> <PUBCHEM_COORDINATE_TYPE>
1
5
255

> <PUBCHEM_BONDANNOTATIONS>
22  17  6
17  24  8
17  25  8
18  25  8
18  32  8
20  23  6
24  30  8
26  33  5
30  32  8
19  4  5
28  7  6
27  9  6

$$$$

