5281626
  -OEChem-07051212582D

 27 29  0     0  0  0  0  0  0999 V2000
    6.0682   -1.0000    0.0000 O   0  0  0  0  0  0  0  0  0  0  0  0
    6.0682    2.0000    0.0000 O   0  0  0  0  0  0  0  0  0  0  0  0
    4.3198    2.0346    0.0000 O   0  0  0  0  0  0  0  0  0  0  0  0
    7.8167    2.0346    0.0000 O   0  0  0  0  0  0  0  0  0  0  0  0
    7.8167   -2.0346    0.0000 O   0  0  0  0  0  0  0  0  0  0  0  0
    2.5381   -1.0241    0.0000 O   0  0  0  0  0  0  0  0  0  0  0  0
    6.9343    0.5000    0.0000 C   0  0  0  0  0  0  0  0  0  0  0  0
    5.2022    0.5000    0.0000 C   0  0  0  0  0  0  0  0  0  0  0  0
    6.9343   -0.5000    0.0000 C   0  0  0  0  0  0  0  0  0  0  0  0
    5.2022   -0.5000    0.0000 C   0  0  0  0  0  0  0  0  0  0  0  0
    6.0682    1.0000    0.0000 C   0  0  0  0  0  0  0  0  0  0  0  0
    4.3083    1.0347    0.0000 C   0  0  0  0  0  0  0  0  0  0  0  0
    7.8282    1.0347    0.0000 C   0  0  0  0  0  0  0  0  0  0  0  0
    7.8282   -1.0347    0.0000 C   0  0  0  0  0  0  0  0  0  0  0  0
    4.3083   -1.0347    0.0000 C   0  0  0  0  0  0  0  0  0  0  0  0
    3.4022    0.5208    0.0000 C   0  0  0  0  0  0  0  0  0  0  0  0
    3.4022   -0.5208    0.0000 C   0  0  0  0  0  0  0  0  0  0  0  0
    8.7343    0.5208    0.0000 C   0  0  0  0  0  0  0  0  0  0  0  0
    8.7343   -0.5208    0.0000 C   0  0  0  0  0  0  0  0  0  0  0  0
    4.3154   -1.6546    0.0000 H   0  0  0  0  0  0  0  0  0  0  0  0
    2.8665    0.8329    0.0000 H   0  0  0  0  0  0  0  0  0  0  0  0
    9.2700    0.8329    0.0000 H   0  0  0  0  0  0  0  0  0  0  0  0
    9.2700   -0.8329    0.0000 H   0  0  0  0  0  0  0  0  0  0  0  0
    3.7865    2.3508    0.0000 H   0  0  0  0  0  0  0  0  0  0  0  0
    8.3500    2.3508    0.0000 H   0  0  0  0  0  0  0  0  0  0  0  0
    8.3500   -2.3508    0.0000 H   0  0  0  0  0  0  0  0  0  0  0  0
    2.0000   -0.7162    0.0000 H   0  0  0  0  0  0  0  0  0  0  0  0
  1  9  1  0  0  0  0
  1 10  1  0  0  0  0
  2 11  2  0  0  0  0
  3 12  1  0  0  0  0
  3 24  1  0  0  0  0
  4 13  1  0  0  0  0
  4 25  1  0  0  0  0
  5 14  1  0  0  0  0
  5 26  1  0  0  0  0
  6 17  1  0  0  0  0
  6 27  1  0  0  0  0
  7  9  1  0  0  0  0
  7 11  1  0  0  0  0
  7 13  2  0  0  0  0
  8 10  1  0  0  0  0
  8 11  1  0  0  0  0
  8 12  2  0  0  0  0
  9 14  2  0  0  0  0
 10 15  2  0  0  0  0
 12 16  1  0  0  0  0
 13 18  1  0  0  0  0
 14 19  1  0  0  0  0
 15 17  1  0  0  0  0
 15 20  1  0  0  0  0
 16 17  2  0  0  0  0
 16 21  1  0  0  0  0
 18 19  2  0  0  0  0
 18 22  1  0  0  0  0
 19 23  1  0  0  0  0
M  END
> <PUBCHEM_COMPOUND_CID>
5281626

> <PUBCHEM_COMPOUND_CANONICALIZED>
1

> <PUBCHEM_CACTVS_COMPLEXITY>
372

> <PUBCHEM_CACTVS_HBOND_ACCEPTOR>
6

> <PUBCHEM_CACTVS_HBOND_DONOR>
4

> <PUBCHEM_CACTVS_ROTATABLE_BOND>
0

> <PUBCHEM_CACTVS_SUBSKEYS>
AAADccBwOAAAAAAAAAAAAAAAAAAAAAAAAAA0YIAAAAAAAACRQAAAGgAACAAADASAmAAwBoAABgCIAqBSAAACCAAkIAAIiAEGiMgNJzaGNRqCeWOl4BULuQfK7PzOIQABCAAIQABCAAIQABCAAAAAAAAAAA==

> <PUBCHEM_IUPAC_OPENEYE_NAME>
1,3,5,8-tetrahydroxyxanthen-9-one

> <PUBCHEM_IUPAC_CAS_NAME>
1,3,5,8-tetrahydroxy-9-xanthenone

> <PUBCHEM_IUPAC_NAME>
1,3,5,8-tetrahydroxyxanthen-9-one

> <PUBCHEM_IUPAC_SYSTEMATIC_NAME>
1,3,5,8-tetrakis(oxidanyl)xanthen-9-one

> <PUBCHEM_IUPAC_TRADITIONAL_NAME>
1,3,5,8-tetrahydroxyxanthone

> <PUBCHEM_IUPAC_INCHI>
InChI=1S/C13H8O6/c14-5-3-8(17)10-9(4-5)19-13-7(16)2-1-6(15)11(13)12(10)18/h1-4,14-17H

> <PUBCHEM_IUPAC_INCHIKEY>
MPXAWSABMVLIBU-UHFFFAOYSA-N

> <PUBCHEM_XLOGP3_AA>
2.1

> <PUBCHEM_EXACT_MASS>
260.032088

> <PUBCHEM_MOLECULAR_FORMULA>
C13H8O6

> <PUBCHEM_MOLECULAR_WEIGHT>
260.19902

> <PUBCHEM_OPENEYE_CAN_SMILES>
C1=CC(=C2C(=C1O)C(=O)C3=C(C=C(C=C3O2)O)O)O

> <PUBCHEM_OPENEYE_ISO_SMILES>
C1=CC(=C2C(=C1O)C(=O)C3=C(C=C(C=C3O2)O)O)O

> <PUBCHEM_CACTVS_TPSA>
107

> <PUBCHEM_MONOISOTOPIC_WEIGHT>
260.032088

> <PUBCHEM_TOTAL_CHARGE>
0

> <PUBCHEM_HEAVY_ATOM_COUNT>
19

> <PUBCHEM_ATOM_DEF_STEREO_COUNT>
0

> <PUBCHEM_ATOM_UDEF_STEREO_COUNT>
0

> <PUBCHEM_BOND_DEF_STEREO_COUNT>
0

> <PUBCHEM_BOND_UDEF_STEREO_COUNT>
0

> <PUBCHEM_ISOTOPIC_ATOM_COUNT>
0

> <PUBCHEM_COMPONENT_COUNT>
1

> <PUBCHEM_CACTVS_TAUTO_COUNT>
102

> <PUBCHEM_COORDINATE_TYPE>
1
5
255

> <PUBCHEM_BONDANNOTATIONS>
1  10  8
1  9  8
10  15  8
12  16  8
13  18  8
14  19  8
15  17  8
16  17  8
18  19  8
7  11  8
7  13  8
7  9  8
8  10  8
8  11  8
8  12  8
9  14  8

$$$$

