97588
  -OEChem-07051212502D

 21 20  0     0  0  0  0  0  0999 V2000
    3.4030   -0.3170    0.0000 P   0  0  0  0  0  0  0  0  0  0  0  0
    2.5369   -0.8170    0.0000 O   0  0  0  0  0  0  0  0  0  0  0  0
    2.9030    0.5490    0.0000 O   0  0  0  0  0  0  0  0  0  0  0  0
    3.9030   -1.1830    0.0000 O   0  0  0  0  0  0  0  0  0  0  0  0
    6.0010    0.1830    0.0000 N   0  0  0  0  0  0  0  0  0  0  0  0
    5.1350   -0.3170    0.0000 C   0  0  0  0  0  0  0  0  0  0  0  0
    4.2690    0.1830    0.0000 C   0  0  0  0  0  0  0  0  0  0  0  0
    6.8671   -0.3170    0.0000 C   0  0  0  0  0  0  0  0  0  0  0  0
    6.0010    1.1830    0.0000 C   0  0  0  0  0  0  0  0  0  0  0  0
    4.7365   -0.7919    0.0000 H   0  0  0  0  0  0  0  0  0  0  0  0
    5.5335   -0.7919    0.0000 H   0  0  0  0  0  0  0  0  0  0  0  0
    4.6675    0.6580    0.0000 H   0  0  0  0  0  0  0  0  0  0  0  0
    3.8705    0.6580    0.0000 H   0  0  0  0  0  0  0  0  0  0  0  0
    6.5571   -0.8539    0.0000 H   0  0  0  0  0  0  0  0  0  0  0  0
    7.4040   -0.6270    0.0000 H   0  0  0  0  0  0  0  0  0  0  0  0
    7.1771    0.2199    0.0000 H   0  0  0  0  0  0  0  0  0  0  0  0
    6.6210    1.1830    0.0000 H   0  0  0  0  0  0  0  0  0  0  0  0
    6.0010    1.8030    0.0000 H   0  0  0  0  0  0  0  0  0  0  0  0
    5.3810    1.1830    0.0000 H   0  0  0  0  0  0  0  0  0  0  0  0
    3.2130    1.0860    0.0000 H   0  0  0  0  0  0  0  0  0  0  0  0
    2.0000   -0.5070    0.0000 H   0  0  0  0  0  0  0  0  0  0  0  0
  1  2  1  0  0  0  0
  1  3  1  0  0  0  0
  1  4  2  0  0  0  0
  1  7  1  0  0  0  0
  2 21  1  0  0  0  0
  3 20  1  0  0  0  0
  5  6  1  0  0  0  0
  5  8  1  0  0  0  0
  5  9  1  0  0  0  0
  6  7  1  0  0  0  0
  6 10  1  0  0  0  0
  6 11  1  0  0  0  0
  7 12  1  0  0  0  0
  7 13  1  0  0  0  0
  8 14  1  0  0  0  0
  8 15  1  0  0  0  0
  8 16  1  0  0  0  0
  9 17  1  0  0  0  0
  9 18  1  0  0  0  0
  9 19  1  0  0  0  0
M  END
> <PUBCHEM_COMPOUND_CID>
97588

> <PUBCHEM_COMPOUND_CANONICALIZED>
1

> <PUBCHEM_CACTVS_COMPLEXITY>
119

> <PUBCHEM_CACTVS_HBOND_ACCEPTOR>
4

> <PUBCHEM_CACTVS_HBOND_DONOR>
2

> <PUBCHEM_CACTVS_ROTATABLE_BOND>
3

> <PUBCHEM_CACTVS_SUBSKEYS>
AAADccBiMAIAAAAAAAAAAAAAAAAAAAAAAAAAAAAAAAAAAAAAAAAAHAgACCAAAADJAAQCAAMAABAAQAAAAIAAAAAAAAAAAAAIAAAAAAAAAAAAAAAAAAAAAAAAAAAAAAAAAAAAAAAAAAAAAAAAAAAAAAAAAA==

> <PUBCHEM_IUPAC_OPENEYE_NAME>
2-(dimethylamino)ethylphosphonic acid

> <PUBCHEM_IUPAC_CAS_NAME>
2-(dimethylamino)ethylphosphonic acid

> <PUBCHEM_IUPAC_NAME>
2-(dimethylamino)ethylphosphonic acid

> <PUBCHEM_IUPAC_SYSTEMATIC_NAME>
2-(dimethylamino)ethylphosphonic acid

> <PUBCHEM_IUPAC_TRADITIONAL_NAME>
2-(dimethylamino)ethylphosphonic acid

> <PUBCHEM_IUPAC_INCHI>
InChI=1S/C4H12NO3P/c1-5(2)3-4-9(6,7)8/h3-4H2,1-2H3,(H2,6,7,8)

> <PUBCHEM_IUPAC_INCHIKEY>
QVUUJUCAEDDQDR-UHFFFAOYSA-N

> <PUBCHEM_XLOGP3_AA>
-3.8

> <PUBCHEM_EXACT_MASS>
153.05548

> <PUBCHEM_MOLECULAR_FORMULA>
C4H12NO3P

> <PUBCHEM_MOLECULAR_WEIGHT>
153.116742

> <PUBCHEM_OPENEYE_CAN_SMILES>
CN(C)CCP(=O)(O)O

> <PUBCHEM_OPENEYE_ISO_SMILES>
CN(C)CCP(=O)(O)O

> <PUBCHEM_CACTVS_TPSA>
60.8

> <PUBCHEM_MONOISOTOPIC_WEIGHT>
153.05548

> <PUBCHEM_TOTAL_CHARGE>
0

> <PUBCHEM_HEAVY_ATOM_COUNT>
9

> <PUBCHEM_ATOM_DEF_STEREO_COUNT>
0

> <PUBCHEM_ATOM_UDEF_STEREO_COUNT>
0

> <PUBCHEM_BOND_DEF_STEREO_COUNT>
0

> <PUBCHEM_BOND_UDEF_STEREO_COUNT>
0

> <PUBCHEM_ISOTOPIC_ATOM_COUNT>
0

> <PUBCHEM_COMPONENT_COUNT>
1

> <PUBCHEM_CACTVS_TAUTO_COUNT>
1

> <PUBCHEM_COORDINATE_TYPE>
1
5
255

$$$$

