   Color/Form

     * Colorless, translucent solid
     * Solid glycolic acid forms colorless, monoclinic, prismatic
       crystals.
     * Orthorhombic needles from water; leaves from diethyl ether

   from [1]HSDB

   Odor
        Odorless
   from [2]HSDB

   Boiling Point
        100 deg C
   from [3]HSDB

   Melting Point
        78-80 deg C (alpha-modification); 63 deg C (beta-modification,
   metastable)
   from [4]HSDB

   Corrosivity
        Corrosive
   from [5]HSDB

   Density/Specific Gravity
        1.49 at 25 deg C
   from [6]HSDB

   Dissociation Constants

     * Ka= 1.48X10-4 @ 25 DEG C
     * pKa = 3.83 at 25 deg C

   from [7]HSDB

   Heat of Combustion
        -697.23 kJ/mole
   from [8]HSDB

   Octanol/Water Partition Coefficient
        log Kow = -1.11
   from [9]HSDB

   pH
        pH = 2.5 (0.5%); 2.33 (1.0%); 2.16 (2.0%); 1.91 (5.0%); 1.73
   (10.0%)
   from [10]HSDB

   Solubilities

     * Soluble in water, methanol, alcohol, acetone, acetic acid, ether.
     * In water, 1X10+6 mg/L at 25 deg C (est)

   from [11]HSDB

   Spectral Properties

     * IR: 6254 (Coblentz Society Spectral Collection)
     * 1H NMR: 6411 (Sadtler Research Laboratories Spectral Collection)
     * MASS: 381 (NIST/EPA/MSDC Mass Spectral Database, 1990 Version)

   from [12]HSDB

   Vapor Pressure
        2.0X10-2 mm Hg at 25 deg C (extrapolated)
   from [13]HSDB

   Other Chemical/Physical Properties

     * HYGROSCOPIC; DELIQUESCENT
     * LIGHT, STRAW-COLORED LIQUID. ODOR LIKE BURNT SUGAR; SP GRAVITY:
       1.27; MP: 10 DEG C /70% SOLN/
     * Heat of combustion: 697.1kJ/mole; heat of solution: -11.5 kJ/mole
     * When heated to decomposition it emits acrid smoke and irritating
       fumes.
     * Henry's Law constant = 8.5X10-8 atm-cu m/mole at 25 deg C (est)
     * Hydroxyl radical reaction rate constant = 3.1X10-12 cu
       cm/molecule-sec at 25 deg C (est)

   from [14]HSDB

   Computed Properties
   Molecular Weight                  76.05136 [g/mol]
   Molecular Formula                 C[2]H[4]O[3]
   XLogP3                            -1.1
   H-Bond Donor                      2
   H-Bond Acceptor                   3
   Rotatable Bond Count              1
   Exact Mass                        76.016044
   MonoIsotopic Mass                 76.016044
   Topological Polar Surface Area    57.5
   Heavy Atom Count                  5
   Formal Charge                     0
   Complexity                        40.2
   Isotope Atom Count                0
   Defined Atom Stereocenter Count   0
   Undefined Atom Stereocenter Count 0
   Defined Bond Stereocenter Count   0
   Undefined Bond Stereocenter Count 0
   Covalently-Bonded Unit Count      1
   Feature 3D Acceptor Count         3
   Feature 3D Donor Count            1
   Feature 3D Anion Count            1
   Effective Rotor Count             1
   Conformer Sampling RMSD           0.4
   CID Conformer Count               [15]2

References

   1. http://toxnet.nlm.nih.gov/cgi-bin/sis/search/r?dbs+hsdb:@term+@rn+@rel+79-14-1
   2. http://toxnet.nlm.nih.gov/cgi-bin/sis/search/r?dbs+hsdb:@term+@rn+@rel+79-14-1
   3. http://toxnet.nlm.nih.gov/cgi-bin/sis/search/r?dbs+hsdb:@term+@rn+@rel+79-14-1
   4. http://toxnet.nlm.nih.gov/cgi-bin/sis/search/r?dbs+hsdb:@term+@rn+@rel+79-14-1
   5. http://toxnet.nlm.nih.gov/cgi-bin/sis/search/r?dbs+hsdb:@term+@rn+@rel+79-14-1
   6. http://toxnet.nlm.nih.gov/cgi-bin/sis/search/r?dbs+hsdb:@term+@rn+@rel+79-14-1
   7. http://toxnet.nlm.nih.gov/cgi-bin/sis/search/r?dbs+hsdb:@term+@rn+@rel+79-14-1
   8. http://toxnet.nlm.nih.gov/cgi-bin/sis/search/r?dbs+hsdb:@term+@rn+@rel+79-14-1
   9. http://toxnet.nlm.nih.gov/cgi-bin/sis/search/r?dbs+hsdb:@term+@rn+@rel+79-14-1
  10. http://toxnet.nlm.nih.gov/cgi-bin/sis/search/r?dbs+hsdb:@term+@rn+@rel+79-14-1
  11. http://toxnet.nlm.nih.gov/cgi-bin/sis/search/r?dbs+hsdb:@term+@rn+@rel+79-14-1
  12. http://toxnet.nlm.nih.gov/cgi-bin/sis/search/r?dbs+hsdb:@term+@rn+@rel+79-14-1
  13. http://toxnet.nlm.nih.gov/cgi-bin/sis/search/r?dbs+hsdb:@term+@rn+@rel+79-14-1
  14. http://toxnet.nlm.nih.gov/cgi-bin/sis/search/r?dbs+hsdb:@term+@rn+@rel+79-14-1
  15. http://pubchem.ncbi.nlm.nih.gov/vw3d/vw3d.cgi?cid=757
