11953891
  -OEChem-07051212532D

 13  6  0     0  0  0  0  0  0999 V2000
    3.7320    0.0000    0.0000 Fe  0  0  0  0  0  0  0  0  0  0  0  0
    5.4641    0.0000    0.0000 O   0  0  0  0  0  0  0  0  0  0  0  0
    4.5981    0.5000    0.0000 N   0  5  0  0  0  0  0  0  0  0  0  0
    3.7320   -2.0000    0.0000 N   0  0  0  0  0  0  0  0  0  0  0  0
    2.0000   -1.0000    0.0000 N   0  0  0  0  0  0  0  0  0  0  0  0
    2.0000    1.0000    0.0000 N   0  0  0  0  0  0  0  0  0  0  0  0
    3.7320    2.0000    0.0000 N   0  0  0  0  0  0  0  0  0  0  0  0
    5.4641   -1.0000    0.0000 N   0  0  0  0  0  0  0  0  0  0  0  0
    2.8660   -0.5000    0.0000 C   0  5  0  0  0  0  0  0  0  0  0  0
    2.8660    0.5000    0.0000 C   0  5  0  0  0  0  0  0  0  0  0  0
    3.7320   -1.0000    0.0000 C   0  5  0  0  0  0  0  0  0  0  0  0
    3.7320    1.0000    0.0000 C   0  5  0  0  0  0  0  0  0  0  0  0
    4.5981   -0.5000    0.0000 C   0  5  0  0  0  0  0  0  0  0  0  0
  2  3  2  0  0  0  0
  4 11  3  0  0  0  0
  5  9  3  0  0  0  0
  6 10  3  0  0  0  0
  7 12  3  0  0  0  0
  8 13  3  0  0  0  0
M  CHG  7   1   6   3  -1   9  -1  10  -1  11  -1  12  -1  13  -1
M  END
> <PUBCHEM_COMPOUND_CID>
11953891

> <PUBCHEM_COMPOUND_CANONICALIZED>
1

> <PUBCHEM_CACTVS_COMPLEXITY>
119

> <PUBCHEM_CACTVS_HBOND_ACCEPTOR>
12

> <PUBCHEM_CACTVS_HBOND_DONOR>
0

> <PUBCHEM_CACTVS_ROTATABLE_BOND>
0

> <PUBCHEM_CACTVS_SUBSKEYS>
AAADcQBjoAAAAAAgAAAAAAAAAAAAAAAAAAAAAAAAAAAAAAAAAAAABAAEAAAAAAAAAAAAAAAAAAARAAAAAAAAAAAAAAAAAAAAAAAAAAAAAAAAAAAAAAAAAAAAAAAAAAAAAAAAAAAAAAAAAAAAAAAAAAAAAA==

> <PUBCHEM_IUPAC_OPENEYE_NAME>
iron(6+); nitroxyl anion; pentacyanide

> <PUBCHEM_IUPAC_CAS_NAME>
iron(6+); nitroxyl anion; pentacyanide

> <PUBCHEM_IUPAC_NAME>
iron(6+); nitroxyl anion; pentacyanide

> <PUBCHEM_IUPAC_SYSTEMATIC_NAME>
iron(6+); oxoazanide; pentacyanide

> <PUBCHEM_IUPAC_TRADITIONAL_NAME>
iron(6+); nitroxyl anion; pentacyanide

> <PUBCHEM_IUPAC_INCHI>
InChI=1S/5CN.Fe.NO/c5*1-2;;1-2/q5*-1;+6;-1

> <PUBCHEM_IUPAC_INCHIKEY>
CDLSWOALPINAJL-UHFFFAOYSA-N

> <PUBCHEM_EXACT_MASS>
215.948296

> <PUBCHEM_MOLECULAR_FORMULA>
C5FeN6O

> <PUBCHEM_MOLECULAR_WEIGHT>
215.9381

> <PUBCHEM_OPENEYE_CAN_SMILES>
[C-]#N.[C-]#N.[C-]#N.[C-]#N.[C-]#N.[N-]=O.[Fe+6]

> <PUBCHEM_OPENEYE_ISO_SMILES>
[C-]#N.[C-]#N.[C-]#N.[C-]#N.[C-]#N.[N-]=O.[Fe+6]

> <PUBCHEM_CACTVS_TPSA>
137

> <PUBCHEM_MONOISOTOPIC_WEIGHT>
215.948296

> <PUBCHEM_TOTAL_CHARGE>
0

> <PUBCHEM_HEAVY_ATOM_COUNT>
13

> <PUBCHEM_ATOM_DEF_STEREO_COUNT>
0

> <PUBCHEM_ATOM_UDEF_STEREO_COUNT>
0

> <PUBCHEM_BOND_DEF_STEREO_COUNT>
0

> <PUBCHEM_BOND_UDEF_STEREO_COUNT>
0

> <PUBCHEM_ISOTOPIC_ATOM_COUNT>
0

> <PUBCHEM_COMPONENT_COUNT>
7

> <PUBCHEM_CACTVS_TAUTO_COUNT>
1

> <PUBCHEM_NONSTANDARDBOND>
1  10  6
1  11  6
1  12  6
1  13  6
1  3  6
1  9  6

> <PUBCHEM_COORDINATE_TYPE>
1
5
255

$$$$

