441433
  -OEChem-07051212542D

 66 68  0     1  0  0  0  0  0999 V2000
    5.8517   -0.0950    0.0000 O   0  0  0  0  0  0  0  0  0  0  0  0
    4.3165   -1.3381    0.0000 O   0  0  0  0  0  0  0  0  0  0  0  0
    6.7177   -1.5950    0.0000 O   0  0  0  0  0  0  0  0  0  0  0  0
    7.5837    0.9050    0.0000 O   0  0  0  0  0  0  0  0  0  0  0  0
    9.3158    0.9050    0.0000 O   0  0  0  0  0  0  0  0  0  0  0  0
    4.8924    1.1846    0.0000 O   0  0  0  0  0  0  0  0  0  0  0  0
    9.3158   -0.0950    0.0000 O   0  0  0  0  0  0  0  0  0  0  0  0
    2.7643    0.7322    0.0000 O   0  0  0  0  0  0  0  0  0  0  0  0
    9.3158   -2.0950    0.0000 O   0  0  0  0  0  0  0  0  0  0  0  0
    7.5837    2.9050    0.0000 O   0  0  0  0  0  0  0  0  0  0  0  0
    5.5209   -2.2423    0.0000 O   0  0  0  0  0  0  0  0  0  0  0  0
    9.3158    3.9050    0.0000 O   0  0  0  0  0  0  0  0  0  0  0  0
   11.0478    2.9050    0.0000 O   0  0  0  0  0  0  0  0  0  0  0  0
    2.5369   -2.4314    0.0000 O   0  0  0  0  0  0  0  0  0  0  0  0
    8.4497   -3.5950    0.0000 O   0  0  0  0  0  0  0  0  0  0  0  0
   11.9138    1.4050    0.0000 O   0  0  0  0  0  0  0  0  0  0  0  0
    4.9856   -0.5950    0.0000 C   0  0  2  0  0  0  0  0  0  0  0  0
    7.5837   -0.0950    0.0000 C   0  0  1  0  0  0  0  0  0  0  0  0
    6.7177   -0.5950    0.0000 C   0  0  1  0  0  0  0  0  0  0  0  0
    4.4856    0.2710    0.0000 C   0  0  2  0  0  0  0  0  0  0  0  0
    8.4497   -0.5950    0.0000 C   0  0  2  0  0  0  0  0  0  0  0  0
    3.5075    0.0631    0.0000 C   0  0  1  0  0  0  0  0  0  0  0  0
    8.4497   -1.5950    0.0000 C   0  0  1  0  0  0  0  0  0  0  0  0
    3.4030   -0.9314    0.0000 C   0  0  1  0  0  0  0  0  0  0  0  0
    7.5837   -2.0950    0.0000 C   0  0  1  0  0  0  0  0  0  0  0  0
    8.4497    1.4050    0.0000 C   0  0  1  0  0  0  0  0  0  0  0  0
    8.4497    2.4050    0.0000 C   0  0  1  0  0  0  0  0  0  0  0  0
    5.7288   -1.2641    0.0000 C   0  0  0  0  0  0  0  0  0  0  0  0
    9.3158    2.9050    0.0000 C   0  0  2  0  0  0  0  0  0  0  0  0
   10.1818    2.4050    0.0000 C   0  0  2  0  0  0  0  0  0  0  0  0
   10.1818    1.4050    0.0000 C   0  0  1  0  0  0  0  0  0  0  0  0
    2.5369   -1.4314    0.0000 C   0  0  0  0  0  0  0  0  0  0  0  0
    7.5837   -3.0950    0.0000 C   0  0  0  0  0  0  0  0  0  0  0  0
   11.0478    0.9050    0.0000 C   0  0  0  0  0  0  0  0  0  0  0  0
    8.1206    0.2150    0.0000 H   0  0  0  0  0  0  0  0  0  0  0  0
    6.7177    0.0250    0.0000 H   0  0  0  0  0  0  0  0  0  0  0  0
    4.0955    0.7529    0.0000 H   0  0  0  0  0  0  0  0  0  0  0  0
    8.4497    0.0250    0.0000 H   0  0  0  0  0  0  0  0  0  0  0  0
    3.6680    0.6620    0.0000 H   0  0  0  0  0  0  0  0  0  0  0  0
    8.4497   -2.2150    0.0000 H   0  0  0  0  0  0  0  0  0  0  0  0
    3.4354   -1.5506    0.0000 H   0  0  0  0  0  0  0  0  0  0  0  0
    7.0468   -2.4050    0.0000 H   0  0  0  0  0  0  0  0  0  0  0  0
    7.9128    1.7150    0.0000 H   0  0  0  0  0  0  0  0  0  0  0  0
    7.9128    2.0950    0.0000 H   0  0  0  0  0  0  0  0  0  0  0  0
    6.3036   -1.4964    0.0000 H   0  0  0  0  0  0  0  0  0  0  0  0
    6.0573   -0.7383    0.0000 H   0  0  0  0  0  0  0  0  0  0  0  0
    9.8527    3.2150    0.0000 H   0  0  0  0  0  0  0  0  0  0  0  0
   10.1818    3.0250    0.0000 H   0  0  0  0  0  0  0  0  0  0  0  0
   10.1818    0.7850    0.0000 H   0  0  0  0  0  0  0  0  0  0  0  0
    2.3249   -0.8488    0.0000 H   0  0  0  0  0  0  0  0  0  0  0  0
    1.9264   -1.5391    0.0000 H   0  0  0  0  0  0  0  0  0  0  0  0
    6.9731   -2.9873    0.0000 H   0  0  0  0  0  0  0  0  0  0  0  0
    7.3717   -3.6776    0.0000 H   0  0  0  0  0  0  0  0  0  0  0  0
    4.5280    1.6862    0.0000 H   0  0  0  0  0  0  0  0  0  0  0  0
    9.8527   -0.4050    0.0000 H   0  0  0  0  0  0  0  0  0  0  0  0
    2.1747    0.5407    0.0000 H   0  0  0  0  0  0  0  0  0  0  0  0
   10.6493    0.4301    0.0000 H   0  0  0  0  0  0  0  0  0  0  0  0
   11.4463    0.4301    0.0000 H   0  0  0  0  0  0  0  0  0  0  0  0
    9.8527   -1.7850    0.0000 H   0  0  0  0  0  0  0  0  0  0  0  0
    7.5837    3.5250    0.0000 H   0  0  0  0  0  0  0  0  0  0  0  0
    5.9816   -2.6571    0.0000 H   0  0  0  0  0  0  0  0  0  0  0  0
    9.8527    4.2150    0.0000 H   0  0  0  0  0  0  0  0  0  0  0  0
   11.0478    3.5250    0.0000 H   0  0  0  0  0  0  0  0  0  0  0  0
    2.0000   -2.7414    0.0000 H   0  0  0  0  0  0  0  0  0  0  0  0
    8.4497   -4.2150    0.0000 H   0  0  0  0  0  0  0  0  0  0  0  0
   12.4508    1.0950    0.0000 H   0  0  0  0  0  0  0  0  0  0  0  0
 17  1  1  6  0  0  0
 19  1  1  6  0  0  0
  2 17  1  0  0  0  0
  2 24  1  0  0  0  0
  3 19  1  0  0  0  0
  3 25  1  0  0  0  0
 18  4  1  6  0  0  0
 26  4  1  6  0  0  0
  5 26  1  0  0  0  0
  5 31  1  0  0  0  0
 20  6  1  6  0  0  0
  6 54  1  0  0  0  0
 21  7  1  1  0  0  0
  7 55  1  0  0  0  0
 22  8  1  1  0  0  0
  8 56  1  0  0  0  0
 23  9  1  6  0  0  0
  9 59  1  0  0  0  0
 27 10  1  6  0  0  0
 10 60  1  0  0  0  0
 11 28  1  0  0  0  0
 11 61  1  0  0  0  0
 29 12  1  1  0  0  0
 12 62  1  0  0  0  0
 30 13  1  1  0  0  0
 13 63  1  0  0  0  0
 14 32  1  0  0  0  0
 14 64  1  0  0  0  0
 15 33  1  0  0  0  0
 15 65  1  0  0  0  0
 16 34  1  0  0  0  0
 16 66  1  0  0  0  0
 17 20  1  0  0  0  0
 17 28  1  0  0  0  0
 18 19  1  0  0  0  0
 18 21  1  0  0  0  0
 18 35  1  0  0  0  0
 19 36  1  0  0  0  0
 20 22  1  0  0  0  0
 20 37  1  0  0  0  0
 21 23  1  0  0  0  0
 21 38  1  0  0  0  0
 22 24  1  0  0  0  0
 22 39  1  0  0  0  0
 23 25  1  0  0  0  0
 23 40  1  0  0  0  0
 24 32  1  6  0  0  0
 24 41  1  0  0  0  0
 25 33  1  1  0  0  0
 25 42  1  0  0  0  0
 26 27  1  0  0  0  0
 26 43  1  0  0  0  0
 27 29  1  0  0  0  0
 27 44  1  0  0  0  0
 28 45  1  0  0  0  0
 28 46  1  0  0  0  0
 29 30  1  0  0  0  0
 29 47  1  0  0  0  0
 30 31  1  0  0  0  0
 30 48  1  0  0  0  0
 31 34  1  1  0  0  0
 31 49  1  0  0  0  0
 32 50  1  0  0  0  0
 32 51  1  0  0  0  0
 33 52  1  0  0  0  0
 33 53  1  0  0  0  0
 34 57  1  0  0  0  0
 34 58  1  0  0  0  0
M  END
> <PUBCHEM_COMPOUND_CID>
441433

> <PUBCHEM_COMPOUND_CANONICALIZED>
1

> <PUBCHEM_CACTVS_COMPLEXITY>
655

> <PUBCHEM_CACTVS_HBOND_ACCEPTOR>
16

> <PUBCHEM_CACTVS_HBOND_DONOR>
11

> <PUBCHEM_CACTVS_ROTATABLE_BOND>
8

> <PUBCHEM_CACTVS_SUBSKEYS>
AAADcfB4PgAAAAAAAAAAAAAAAAAAASAAAAAkSAAAAAAAAAAAAAAAGgAACAAACBSwgAMACAAABgAAAAAAAAAAAAAAAAAAAAAAAAAREAIAAAAiQAAFAAAHAAHAYAwAAAAAAAAAAAAAAAAAAAAAAAAAAAAAAA==

> <PUBCHEM_IUPAC_OPENEYE_NAME>
(2R,3R,4S,5R,6R)-2-[(2R,3R,4S,5S,6R)-2-[(2S,3S,4S,5R)-3,4-dihydroxy-2,5-bis(hydroxymethyl)tetrahydrofuran-2-yl]oxy-4,5-dihydroxy-6-(hydroxymethyl)tetrahydropyran-3-yl]oxy-6-(hydroxymethyl)tetrahydropyran-3,4,5-triol

> <PUBCHEM_IUPAC_CAS_NAME>
(2R,3R,4S,5R,6R)-2-[[(2R,3R,4S,5S,6R)-2-[[(2S,3S,4S,5R)-3,4-dihydroxy-2,5-bis(hydroxymethyl)-2-oxolanyl]oxy]-4,5-dihydroxy-6-(hydroxymethyl)-3-oxanyl]oxy]-6-(hydroxymethyl)oxane-3,4,5-triol

> <PUBCHEM_IUPAC_NAME>
(2R,3R,4S,5R,6R)-2-[(2R,3R,4S,5S,6R)-2-[(2S,3S,4S,5R)-3,4-dihydroxy-2,5-bis(hydroxymethyl)oxolan-2-yl]oxy-4,5-dihydroxy-6-(hydroxymethyl)oxan-3-yl]oxy-6-(hydroxymethyl)oxane-3,4,5-triol

> <PUBCHEM_IUPAC_SYSTEMATIC_NAME>
(2R,3R,4S,5R,6R)-2-[(2R,3R,4S,5S,6R)-2-[(2S,3S,4S,5R)-2,5-bis(hydroxymethyl)-3,4-bis(oxidanyl)oxolan-2-yl]oxy-6-(hydroxymethyl)-4,5-bis(oxidanyl)oxan-3-yl]oxy-6-(hydroxymethyl)oxane-3,4,5-triol

> <PUBCHEM_IUPAC_TRADITIONAL_NAME>
(2R,3R,4S,5R,6R)-2-[(2R,3R,4S,5S,6R)-2-[(2S,3S,4S,5R)-3,4-dihydroxy-2,5-dimethylol-tetrahydrofuran-2-yl]oxy-4,5-dihydroxy-6-methylol-tetrahydropyran-3-yl]oxy-6-methylol-tetrahydropyran-3,4,5-triol

> <PUBCHEM_IUPAC_INCHI>
InChI=1S/C18H32O16/c19-1-5-8(23)11(26)13(28)16(30-5)32-14-12(27)9(24)6(2-20)31-17(14)34-18(4-22)15(29)10(25)7(3-21)33-18/h5-17,19-29H,1-4H2/t5-,6-,7-,8+,9-,10-,11+,12+,13-,14-,15+,16-,17-,18+/m1/s1

> <PUBCHEM_IUPAC_INCHIKEY>
LNRUEZIDUKQGRH-DOQKTTIXSA-N

> <PUBCHEM_XLOGP3>
-5.3

> <PUBCHEM_EXACT_MASS>
504.169035

> <PUBCHEM_MOLECULAR_FORMULA>
C18H32O16

> <PUBCHEM_MOLECULAR_WEIGHT>
504.43708

> <PUBCHEM_OPENEYE_CAN_SMILES>
C(C1C(C(C(C(O1)OC2C(C(C(OC2OC3(C(C(C(O3)CO)O)O)CO)CO)O)O)O)O)O)O

> <PUBCHEM_OPENEYE_ISO_SMILES>
C([C@@H]1[C@@H]([C@@H]([C@H]([C@H](O1)O[C@@H]2[C@H]([C@@H]([C@H](O[C@@H]2O[C@]3([C@H]([C@@H]([C@H](O3)CO)O)O)CO)CO)O)O)O)O)O)O

> <PUBCHEM_CACTVS_TPSA>
269

> <PUBCHEM_MONOISOTOPIC_WEIGHT>
504.169035

> <PUBCHEM_TOTAL_CHARGE>
0

> <PUBCHEM_HEAVY_ATOM_COUNT>
34

> <PUBCHEM_ATOM_DEF_STEREO_COUNT>
14

> <PUBCHEM_ATOM_UDEF_STEREO_COUNT>
0

> <PUBCHEM_BOND_DEF_STEREO_COUNT>
0

> <PUBCHEM_BOND_UDEF_STEREO_COUNT>
0

> <PUBCHEM_ISOTOPIC_ATOM_COUNT>
0

> <PUBCHEM_COMPONENT_COUNT>
1

> <PUBCHEM_CACTVS_TAUTO_COUNT>
1

> <PUBCHEM_COORDINATE_TYPE>
1
5
255

> <PUBCHEM_BONDANNOTATIONS>
17  1  6
19  1  6
27  10  6
29  12  5
30  13  5
24  32  6
25  33  5
31  34  5
18  4  6
26  4  6
20  6  6
21  7  5
22  8  5
23  9  6

$$$$

