   Color/Form

     * White, crystalline solid
     * Orthorhombic bisphenoidal leaflets or rods

   from [1]HSDB

   Taste

     * Acidic/neutral
     * Sour

   from [2]HSDB

   Melting Point
        270-271 deg C
   from [3]HSDB

   Density/Specific Gravity
        1.6603 at 13 deg C
   from [4]HSDB

   Dissociation Constants
        pK1 = 1.92 (COOH); pK2 =3.87 (COOH); pK3 = 9.87 (amine)
   from [5]HSDB

   Octanol/Water Partition Coefficient
        log Kow = -3.89
   from [6]HSDB

   Solubilities

     * 1 g in 222.2 ml water at 20 deg C; 1 g in 149.9 ml water at 30 deg
       C; more sol in salt soln; sol in acids, alkalies
     * Insoluble in ethanol, ethyl ether, benzene; soluble in dilute HCl,
       pyridine
     * In water, 5,360 mg/L at 25 deg C

   from [7]HSDB

   Spectral Properties

     * Specific optical rotation: +25.0 deg (c= 1.97 g in 100 ml 6 N
       hydrochloric acid) at 20 deg C/D
     * SPECIFIC OPTICAL ROTATION (WATER): +4.36 DEG @ 20 DEG C/D
     * IR: 18085 (Sadtler Research Laboratories IR Grating Collection)
     * MASS: 30615 (NIST/EPA/MSDC Mass Spectral Database, 1990 version)
     * UV: 1-30 (Phillip et al., Organic Electronic Spectral Data, John
       Wiley & Sons, NY)

   from [8]HSDB

   Vapor Pressure
        2.6X10-7 mm Hg at 25 deg C (est)
   from [9]HSDB

   Other Chemical/Physical Properties

     * ASPARTIC ACID HAS RELATIVELY HIGH SOUR, RELATIVELY LOW MSG-LIKE
       TASTE INTENSITIES /ASPARTIC ACID/
     * DECOMPOSES AT 324 DEG C (RAPID HEATING)
     * Isoelectric point = 2.98
     * Forms supersaturated soln easily
     * 13C NMR: 479 (Stothers. Carbon-13 NMR Spectroscopy, Academic Press,
       New York) /DL-Aspartic Acid)
     * UV: 1-30 (Organic Electronic Spectral Data, Phillips et al, John
       Wiley & Sons, New York) /dl-Aspartic acid/
     * MASS: 76392 (NIST/EPA/MSDC Mass Spectral Database, 1990 version);
       290 (National Bureau of Standards EPA-NIH Mass Spectra Data Base,
       NSRDS-NBS-63) /DL-Aspartic acid/
     * Specific optical rotation: -2.0 deg at 25 deg C (c=3.93 in 5N HCl)
       /d-Aspartic acid/
     * Henry's Law constant = 1.1X10-14 atm-cu m/mol at 25 deg C (est)
     * Hydroxyl radical reaction rate constant = 4.0X10-11 cm3/molc-sec at
       25 deg C (est)

   from [10]HSDB

   Computed Properties
   Molecular Weight                  133.10268 [g/mol]
   Molecular Formula                 C[4]H[7]NO[4]
   XLogP3                            -2.8
   H-Bond Donor                      3
   H-Bond Acceptor                   5
   Rotatable Bond Count              3
   Exact Mass                        133.037508
   MonoIsotopic Mass                 133.037508
   Topological Polar Surface Area    101
   Heavy Atom Count                  9
   Formal Charge                     0
   Complexity                        133
   Isotope Atom Count                0
   Defined Atom Stereocenter Count   1
   Undefined Atom Stereocenter Count 0
   Defined Bond Stereocenter Count   0
   Undefined Bond Stereocenter Count 0
   Covalently-Bonded Unit Count      1
   Feature 3D Acceptor Count         4
   Feature 3D Donor Count            1
   Feature 3D Anion Count            2
   Feature 3D Cation Count           1
   Effective Rotor Count             3
   Conformer Sampling RMSD           0.6
   CID Conformer Count               [11]12

References

   1. http://toxnet.nlm.nih.gov/cgi-bin/sis/search/r?dbs+hsdb:@term+@rn+@rel+56-84-8
   2. http://toxnet.nlm.nih.gov/cgi-bin/sis/search/r?dbs+hsdb:@term+@rn+@rel+56-84-8
   3. http://toxnet.nlm.nih.gov/cgi-bin/sis/search/r?dbs+hsdb:@term+@rn+@rel+56-84-8
   4. http://toxnet.nlm.nih.gov/cgi-bin/sis/search/r?dbs+hsdb:@term+@rn+@rel+56-84-8
   5. http://toxnet.nlm.nih.gov/cgi-bin/sis/search/r?dbs+hsdb:@term+@rn+@rel+56-84-8
   6. http://toxnet.nlm.nih.gov/cgi-bin/sis/search/r?dbs+hsdb:@term+@rn+@rel+56-84-8
   7. http://toxnet.nlm.nih.gov/cgi-bin/sis/search/r?dbs+hsdb:@term+@rn+@rel+56-84-8
   8. http://toxnet.nlm.nih.gov/cgi-bin/sis/search/r?dbs+hsdb:@term+@rn+@rel+56-84-8
   9. http://toxnet.nlm.nih.gov/cgi-bin/sis/search/r?dbs+hsdb:@term+@rn+@rel+56-84-8
  10. http://toxnet.nlm.nih.gov/cgi-bin/sis/search/r?dbs+hsdb:@term+@rn+@rel+56-84-8
  11. http://pubchem.ncbi.nlm.nih.gov/vw3d/vw3d.cgi?cid=5960
