105092
  -OEChem-07051213132D

 32 36  0     0  0  0  0  0  0999 V2000
    3.4968    0.3137    0.0000 C   0  0  0  0  0  0  0  0  0  0  0  0
    4.3628   -0.1863    0.0000 C   0  0  0  0  0  0  0  0  0  0  0  0
    3.4968    1.3137    0.0000 C   0  0  0  0  0  0  0  0  0  0  0  0
    5.2289    0.3137    0.0000 C   0  0  0  0  0  0  0  0  0  0  0  0
    4.3628    1.8137    0.0000 C   0  0  0  0  0  0  0  0  0  0  0  0
    4.3468   -1.2278    0.0000 C   0  0  0  0  0  0  0  0  0  0  0  0
    2.5868    1.8206    0.0000 C   0  0  0  0  0  0  0  0  0  0  0  0
    5.2289    1.3137    0.0000 C   0  0  0  0  0  0  0  0  0  0  0  0
    2.5138    0.1678    0.0000 C   0  0  0  0  0  0  0  0  0  0  0  0
    5.2448   -1.7555    0.0000 C   0  0  0  0  0  0  0  0  0  0  0  0
    2.0000    1.0185    0.0000 C   0  0  0  0  0  0  0  0  0  0  0  0
    6.1388   -0.1931    0.0000 C   0  0  0  0  0  0  0  0  0  0  0  0
    4.3789    2.8552    0.0000 C   0  0  0  0  0  0  0  0  0  0  0  0
    6.1469   -1.2347    0.0000 C   0  0  0  0  0  0  0  0  0  0  0  0
    2.5788    2.8622    0.0000 C   0  0  0  0  0  0  0  0  0  0  0  0
    3.3948   -1.7484    0.0000 C   0  0  0  0  0  0  0  0  0  0  0  0
    3.4808    3.3830    0.0000 C   0  0  0  0  0  0  0  0  0  0  0  0
    5.2532   -2.8405    0.0000 C   0  0  0  0  0  0  0  0  0  0  0  0
    3.3781   -2.8333    0.0000 C   0  0  0  0  0  0  0  0  0  0  0  0
    4.3135   -3.3830    0.0000 C   0  0  0  0  0  0  0  0  0  0  0  0
    5.7658    1.6237    0.0000 H   0  0  0  0  0  0  0  0  0  0  0  0
    2.2496   -0.3932    0.0000 H   0  0  0  0  0  0  0  0  0  0  0  0
    1.3806    1.0459    0.0000 H   0  0  0  0  0  0  0  0  0  0  0  0
    6.6722    0.1231    0.0000 H   0  0  0  0  0  0  0  0  0  0  0  0
    4.9194    3.1590    0.0000 H   0  0  0  0  0  0  0  0  0  0  0  0
    6.6850   -1.5426    0.0000 H   0  0  0  0  0  0  0  0  0  0  0  0
    2.0406    3.1701    0.0000 H   0  0  0  0  0  0  0  0  0  0  0  0
    2.8640   -1.4281    0.0000 H   0  0  0  0  0  0  0  0  0  0  0  0
    3.4832    4.0030    0.0000 H   0  0  0  0  0  0  0  0  0  0  0  0
    5.7913   -3.1484    0.0000 H   0  0  0  0  0  0  0  0  0  0  0  0
    2.8376   -3.1370    0.0000 H   0  0  0  0  0  0  0  0  0  0  0  0
    4.3111   -4.0030    0.0000 H   0  0  0  0  0  0  0  0  0  0  0  0
  1  2  1  0  0  0  0
  1  3  2  0  0  0  0
  1  9  1  0  0  0  0
  2  4  2  0  0  0  0
  2  6  1  0  0  0  0
  3  5  1  0  0  0  0
  3  7  1  0  0  0  0
  4  8  1  0  0  0  0
  4 12  1  0  0  0  0
  5  8  2  0  0  0  0
  5 13  1  0  0  0  0
  6 10  1  0  0  0  0
  6 16  2  0  0  0  0
  7 11  1  0  0  0  0
  7 15  2  0  0  0  0
  8 21  1  0  0  0  0
  9 11  2  0  0  0  0
  9 22  1  0  0  0  0
 10 14  1  0  0  0  0
 10 18  2  0  0  0  0
 11 23  1  0  0  0  0
 12 14  2  0  0  0  0
 12 24  1  0  0  0  0
 13 17  2  0  0  0  0
 13 25  1  0  0  0  0
 14 26  1  0  0  0  0
 15 17  1  0  0  0  0
 15 27  1  0  0  0  0
 16 19  1  0  0  0  0
 16 28  1  0  0  0  0
 17 29  1  0  0  0  0
 18 20  1  0  0  0  0
 18 30  1  0  0  0  0
 19 20  2  0  0  0  0
 19 31  1  0  0  0  0
 20 32  1  0  0  0  0
M  END
> <PUBCHEM_COMPOUND_CID>
105092

> <PUBCHEM_COMPOUND_CANONICALIZED>
1

> <PUBCHEM_CACTVS_COMPLEXITY>
408

> <PUBCHEM_CACTVS_HBOND_ACCEPTOR>
0

> <PUBCHEM_CACTVS_HBOND_DONOR>
0

> <PUBCHEM_CACTVS_ROTATABLE_BOND>
0

> <PUBCHEM_CACTVS_SUBSKEYS>
AAADccB4AAAAAAAAAAAAAAAAAAAAAQAAAAAwYMGAAAAAAEDBVAAAGAAAAAAADACAGAAwAMAAAACAAiBCAAACAAAgAAAIiAAAAIgIICKAERCAIAAggAAIiAcAgMAOwAACAAAQAACAAAQAACAAAAAAAAAAAA==

> <PUBCHEM_IUPAC_INCHI>
InChI=1S/C20H12/c1-2-7-17-13(4-1)8-9-16-12-15-6-3-5-14-10-11-18(19(14)15)20(16)17/h1-12H

> <PUBCHEM_IUPAC_INCHIKEY>
ICRHCNSZHYPRNZ-UHFFFAOYSA-N

> <PUBCHEM_XLOGP3_AA>
6.2

> <PUBCHEM_EXACT_MASS>
252.0939

> <PUBCHEM_MOLECULAR_FORMULA>
C20H12

> <PUBCHEM_MOLECULAR_WEIGHT>
252.30928

> <PUBCHEM_OPENEYE_CAN_SMILES>
C1=CC=C2C(=C1)C=CC3=C2C4=C5C(=CC=CC5=C3)C=C4

> <PUBCHEM_OPENEYE_ISO_SMILES>
C1=CC=C2C(=C1)C=CC3=C2C4=C5C(=CC=CC5=C3)C=C4

> <PUBCHEM_CACTVS_TPSA>
0

> <PUBCHEM_MONOISOTOPIC_WEIGHT>
252.0939

> <PUBCHEM_TOTAL_CHARGE>
0

> <PUBCHEM_HEAVY_ATOM_COUNT>
20

> <PUBCHEM_ATOM_DEF_STEREO_COUNT>
0

> <PUBCHEM_ATOM_UDEF_STEREO_COUNT>
0

> <PUBCHEM_BOND_DEF_STEREO_COUNT>
0

> <PUBCHEM_BOND_UDEF_STEREO_COUNT>
0

> <PUBCHEM_ISOTOPIC_ATOM_COUNT>
0

> <PUBCHEM_COMPONENT_COUNT>
1

> <PUBCHEM_CACTVS_TAUTO_COUNT>
1

> <PUBCHEM_COORDINATE_TYPE>
1
5
255

> <PUBCHEM_BONDANNOTATIONS>
1  2  8
1  3  8
10  14  8
10  18  8
12  14  8
13  17  8
15  17  8
16  19  8
18  20  8
19  20  8
2  4  8
2  6  8
3  5  8
3  7  8
4  12  8
4  8  8
5  13  8
5  8  8
6  10  8
6  16  8
7  15  8

$$$$

