13384041
  -OEChem-07051213112D

 35 35  0     0  0  0  0  0  0999 V2000
    6.0010   -0.7500    0.0000 S   0  0  0  0  0  0  0  0  0  0  0  0
    6.8671   -2.2500    0.0000 Na  0  3  0  0  0  0  0  0  0  0  0  0
    5.5010   -1.6160    0.0000 O   0  0  0  0  0  0  0  0  0  0  0  0
    6.5010    0.1160    0.0000 O   0  0  0  0  0  0  0  0  0  0  0  0
    8.5991    1.7500    0.0000 O   0  0  0  0  0  0  0  0  0  0  0  0
   10.3312   -1.2500    0.0000 O   0  0  0  0  0  0  0  0  0  0  0  0
    6.8671   -1.2500    0.0000 N   0  5  0  0  0  0  0  0  0  0  0  0
    8.5991   -1.2500    0.0000 N   0  0  0  0  0  0  0  0  0  0  0  0
    2.5369    1.2500    0.0000 N   0  0  0  0  0  0  0  0  0  0  0  0
    9.4651    0.2500    0.0000 N   0  0  0  0  0  0  0  0  0  0  0  0
    5.1350   -0.2500    0.0000 C   0  0  0  0  0  0  0  0  0  0  0  0
    5.1350    0.7500    0.0000 C   0  0  0  0  0  0  0  0  0  0  0  0
    4.2690   -0.7500    0.0000 C   0  0  0  0  0  0  0  0  0  0  0  0
    7.7331   -0.7500    0.0000 C   0  0  0  0  0  0  0  0  0  0  0  0
    3.4030    0.7500    0.0000 C   0  0  0  0  0  0  0  0  0  0  0  0
    4.2690    1.2500    0.0000 C   0  0  0  0  0  0  0  0  0  0  0  0
    3.4030   -0.2500    0.0000 C   0  0  0  0  0  0  0  0  0  0  0  0
    7.7331    0.2500    0.0000 C   0  0  0  0  0  0  0  0  0  0  0  0
    8.5991    0.7500    0.0000 C   0  0  0  0  0  0  0  0  0  0  0  0
    9.4651   -0.7500    0.0000 C   0  0  0  0  0  0  0  0  0  0  0  0
    9.4651    2.2500    0.0000 C   0  0  0  0  0  0  0  0  0  0  0  0
   11.1972   -0.7500    0.0000 C   0  0  0  0  0  0  0  0  0  0  0  0
    5.6720    1.0600    0.0000 H   0  0  0  0  0  0  0  0  0  0  0  0
    4.2690   -1.3700    0.0000 H   0  0  0  0  0  0  0  0  0  0  0  0
    4.2690    1.8700    0.0000 H   0  0  0  0  0  0  0  0  0  0  0  0
    2.8660   -0.5600    0.0000 H   0  0  0  0  0  0  0  0  0  0  0  0
    7.1962    0.5600    0.0000 H   0  0  0  0  0  0  0  0  0  0  0  0
    2.0000    0.9400    0.0000 H   0  0  0  0  0  0  0  0  0  0  0  0
    2.5369    1.8700    0.0000 H   0  0  0  0  0  0  0  0  0  0  0  0
    9.7751    1.7131    0.0000 H   0  0  0  0  0  0  0  0  0  0  0  0
   10.0021    2.5600    0.0000 H   0  0  0  0  0  0  0  0  0  0  0  0
    9.1551    2.7869    0.0000 H   0  0  0  0  0  0  0  0  0  0  0  0
   11.5072   -1.2869    0.0000 H   0  0  0  0  0  0  0  0  0  0  0  0
   11.7341   -0.4400    0.0000 H   0  0  0  0  0  0  0  0  0  0  0  0
   10.8872   -0.2131    0.0000 H   0  0  0  0  0  0  0  0  0  0  0  0
  1  3  2  0  0  0  0
  1  4  2  0  0  0  0
  1  7  1  0  0  0  0
  1 11  1  0  0  0  0
  5 19  1  0  0  0  0
  5 21  1  0  0  0  0
  6 20  1  0  0  0  0
  6 22  1  0  0  0  0
  7 14  1  0  0  0  0
  8 14  1  0  0  0  0
  8 20  2  0  0  0  0
  9 15  1  0  0  0  0
  9 28  1  0  0  0  0
  9 29  1  0  0  0  0
 10 19  2  0  0  0  0
 10 20  1  0  0  0  0
 11 12  2  0  0  0  0
 11 13  1  0  0  0  0
 12 16  1  0  0  0  0
 12 23  1  0  0  0  0
 13 17  2  0  0  0  0
 13 24  1  0  0  0  0
 14 18  2  0  0  0  0
 15 16  2  0  0  0  0
 15 17  1  0  0  0  0
 16 25  1  0  0  0  0
 17 26  1  0  0  0  0
 18 19  1  0  0  0  0
 18 27  1  0  0  0  0
 21 30  1  0  0  0  0
 21 31  1  0  0  0  0
 21 32  1  0  0  0  0
 22 33  1  0  0  0  0
 22 34  1  0  0  0  0
 22 35  1  0  0  0  0
M  CHG  2   2   1   7  -1
M  END
> <PUBCHEM_COMPOUND_CID>
13384041

> <PUBCHEM_COMPOUND_CANONICALIZED>
1

> <PUBCHEM_CACTVS_COMPLEXITY>
425

> <PUBCHEM_CACTVS_HBOND_ACCEPTOR>
8

> <PUBCHEM_CACTVS_HBOND_DONOR>
1

> <PUBCHEM_CACTVS_ROTATABLE_BOND>
5

> <PUBCHEM_CACTVS_SUBSKEYS>
AAADccBzuCBAAAAAAAAAAAAAAAAAAAAAAAA8QAAAAAAAAAABwAAAHgQQQAAACAiB0gIz9ZZIFAKgACZiZHDCiDkhIqAJmDg2bJiMLCLE+dmEJChqkApI6CcQAAAAAAQAAAAAAAAACAAAAAAAAAAAAAAAAA==

> <PUBCHEM_IUPAC_OPENEYE_NAME>
sodium (4-aminophenyl)sulfonyl-(2,6-dimethoxypyrimidin-4-yl)azanide

> <PUBCHEM_IUPAC_CAS_NAME>
sodium (4-aminophenyl)sulfonyl-(2,6-dimethoxy-4-pyrimidinyl)azanide

> <PUBCHEM_IUPAC_NAME>
sodium (4-aminophenyl)sulfonyl-(2,6-dimethoxypyrimidin-4-yl)azanide

> <PUBCHEM_IUPAC_SYSTEMATIC_NAME>
sodium (4-aminophenyl)sulfonyl-(2,6-dimethoxypyrimidin-4-yl)azanide

> <PUBCHEM_IUPAC_TRADITIONAL_NAME>
sodium (2,6-dimethoxypyrimidin-4-yl)-sulfanilyl-azanide

> <PUBCHEM_IUPAC_INCHI>
InChI=1S/C12H13N4O4S.Na/c1-19-11-7-10(14-12(15-11)20-2)16-21(17,18)9-5-3-8(13)4-6-9;/h3-7H,13H2,1-2H3;/q-1;+1

> <PUBCHEM_IUPAC_INCHIKEY>
DQDZQHMCPDUUPC-UHFFFAOYSA-N

> <PUBCHEM_EXACT_MASS>
332.05552

> <PUBCHEM_MOLECULAR_FORMULA>
C12H13N4NaO4S

> <PUBCHEM_MOLECULAR_WEIGHT>
332.310789

> <PUBCHEM_OPENEYE_CAN_SMILES>
COC1=NC(=NC(=C1)[N-]S(=O)(=O)C2=CC=C(C=C2)N)OC.[Na+]

> <PUBCHEM_OPENEYE_ISO_SMILES>
COC1=NC(=NC(=C1)[N-]S(=O)(=O)C2=CC=C(C=C2)N)OC.[Na+]

> <PUBCHEM_CACTVS_TPSA>
114

> <PUBCHEM_MONOISOTOPIC_WEIGHT>
332.05552

> <PUBCHEM_TOTAL_CHARGE>
0

> <PUBCHEM_HEAVY_ATOM_COUNT>
22

> <PUBCHEM_ATOM_DEF_STEREO_COUNT>
0

> <PUBCHEM_ATOM_UDEF_STEREO_COUNT>
0

> <PUBCHEM_BOND_DEF_STEREO_COUNT>
0

> <PUBCHEM_BOND_UDEF_STEREO_COUNT>
0

> <PUBCHEM_ISOTOPIC_ATOM_COUNT>
0

> <PUBCHEM_COMPONENT_COUNT>
2

> <PUBCHEM_CACTVS_TAUTO_COUNT>
1

> <PUBCHEM_NONSTANDARDBOND>
2  7  7

> <PUBCHEM_COORDINATE_TYPE>
1
5
255

> <PUBCHEM_BONDANNOTATIONS>
10  19  8
10  20  8
11  12  8
11  13  8
12  16  8
13  17  8
14  18  8
15  16  8
15  17  8
18  19  8
8  14  8
8  20  8

$$$$

