44260117
  -OEChem-07051212492D

 68 73  0     1  0  0  0  0  0999 V2000
    8.2838    1.5388    0.0000 O   0  0  0  0  0  0  0  0  0  0  0  0
   12.0452   -0.7733    0.0000 O   0  0  0  0  0  0  0  0  0  0  0  0
    5.3391    0.4382    0.0000 O   0  0  0  0  0  0  0  0  0  0  0  0
    5.8620    2.0954    0.0000 O   0  0  0  0  0  0  0  0  0  0  0  0
    9.3606    2.7672    0.0000 O   0  0  0  0  0  0  0  0  0  0  0  0
    7.6347    2.6217    0.0000 O   0  0  0  0  0  0  0  0  0  0  0  0
    3.6805   -0.0606    0.0000 O   0  0  0  0  0  0  0  0  0  0  0  0
    5.9151   -1.4771    0.0000 O   0  0  0  0  0  0  0  0  0  0  0  0
    4.5444   -2.9335    0.0000 O   0  0  0  0  0  0  0  0  0  0  0  0
    2.5978   -2.4747    0.0000 O   0  0  0  0  0  0  0  0  0  0  0  0
    1.7338    0.3982    0.0000 O   0  0  0  0  0  0  0  0  0  0  0  0
    9.3519    0.6506    0.0000 C   0  0  1  0  0  0  0  0  0  0  0  0
    9.0499   -0.2167    0.0000 C   0  0  2  0  0  0  0  0  0  0  0  0
    7.8749    0.6789    0.0000 C   0  0  2  0  0  0  0  0  0  0  0  0
    8.1379   -0.1951    0.0000 C   0  0  2  0  0  0  0  0  0  0  0  0
    8.6237    1.1998    0.0000 C   0  0  2  0  0  0  0  0  0  0  0  0
   10.0479   -0.1819    0.0000 C   0  0  0  0  0  0  0  0  0  0  0  0
    6.9576    0.8950    0.0000 C   0  0  3  0  0  0  0  0  0  0  0  0
   11.1008   -0.4444    0.0000 C   0  0  2  0  0  0  0  0  0  0  0  0
   10.2188    0.9552    0.0000 C   0  0  0  0  0  0  0  0  0  0  0  0
    9.5402   -0.9932    0.0000 C   0  0  0  0  0  0  0  0  0  0  0  0
   10.4525   -1.0945    0.0000 C   0  0  0  0  0  0  0  0  0  0  0  0
   10.9964    0.4681    0.0000 C   0  0  0  0  0  0  0  0  0  0  0  0
    7.5001   -0.9096    0.0000 C   0  0  0  0  0  0  0  0  0  0  0  0
    6.3125    0.2088    0.0000 C   0  0  2  0  0  0  0  0  0  0  0  0
    6.6928    1.5388    0.0000 C   0  0  0  0  0  0  0  0  0  0  0  0
    8.5397    2.1962    0.0000 C   0  0  0  0  0  0  0  0  0  0  0  0
    5.9742    1.0761    0.0000 C   0  0  0  0  0  0  0  0  0  0  0  0
    6.5840   -0.6939    0.0000 C   0  0  0  0  0  0  0  0  0  0  0  0
   11.8000    1.0633    0.0000 C   0  0  0  0  0  0  0  0  0  0  0  0
    4.6538   -0.2900    0.0000 C   0  0  2  0  0  0  0  0  0  0  0  0
    4.9418   -1.2477    0.0000 C   0  0  1  0  0  0  0  0  0  0  0  0
    4.2564   -1.9759    0.0000 C   0  0  2  0  0  0  0  0  0  0  0  0
    2.9951   -0.7888    0.0000 C   0  0  1  0  0  0  0  0  0  0  0  0
    3.2831   -1.7465    0.0000 C   0  0  1  0  0  0  0  0  0  0  0  0
    2.0218   -0.5594    0.0000 C   0  0  0  0  0  0  0  0  0  0  0  0
    8.6308   -0.9561    0.0000 H   0  0  0  0  0  0  0  0  0  0  0  0
    7.4398    1.4092    0.0000 H   0  0  0  0  0  0  0  0  0  0  0  0
    9.1665    1.4994    0.0000 H   0  0  0  0  0  0  0  0  0  0  0  0
   10.0908   -0.8004    0.0000 H   0  0  0  0  0  0  0  0  0  0  0  0
    9.4728   -0.4134    0.0000 H   0  0  0  0  0  0  0  0  0  0  0  0
    9.8882    1.4797    0.0000 H   0  0  0  0  0  0  0  0  0  0  0  0
   10.6565    1.3942    0.0000 H   0  0  0  0  0  0  0  0  0  0  0  0
    9.6107   -1.6092    0.0000 H   0  0  0  0  0  0  0  0  0  0  0  0
    8.9554   -1.1991    0.0000 H   0  0  0  0  0  0  0  0  0  0  0  0
   10.9780   -1.4236    0.0000 H   0  0  0  0  0  0  0  0  0  0  0  0
   10.2486   -1.6800    0.0000 H   0  0  0  0  0  0  0  0  0  0  0  0
    7.6865   -1.5010    0.0000 H   0  0  0  0  0  0  0  0  0  0  0  0
    5.8876   -0.2427    0.0000 H   0  0  0  0  0  0  0  0  0  0  0  0
    5.8618    0.4664    0.0000 H   0  0  0  0  0  0  0  0  0  0  0  0
    5.3644    1.1884    0.0000 H   0  0  0  0  0  0  0  0  0  0  0  0
    6.0865    1.6859    0.0000 H   0  0  0  0  0  0  0  0  0  0  0  0
    6.1591   -1.1454    0.0000 H   0  0  0  0  0  0  0  0  0  0  0  0
   12.1614   -1.3823    0.0000 H   0  0  0  0  0  0  0  0  0  0  0  0
   11.7295    1.6793    0.0000 H   0  0  0  0  0  0  0  0  0  0  0  0
   12.3687    0.8163    0.0000 H   0  0  0  0  0  0  0  0  0  0  0  0
    9.3085    3.3850    0.0000 H   0  0  0  0  0  0  0  0  0  0  0  0
    4.4752    0.3037    0.0000 H   0  0  0  0  0  0  0  0  0  0  0  0
    5.3667   -0.7962    0.0000 H   0  0  0  0  0  0  0  0  0  0  0  0
    3.8315   -2.4274    0.0000 H   0  0  0  0  0  0  0  0  0  0  0  0
    2.8166   -0.1951    0.0000 H   0  0  0  0  0  0  0  0  0  0  0  0
    3.4616   -2.3402    0.0000 H   0  0  0  0  0  0  0  0  0  0  0  0
    6.0936   -2.0708    0.0000 H   0  0  0  0  0  0  0  0  0  0  0  0
    1.9865   -1.1784    0.0000 H   0  0  0  0  0  0  0  0  0  0  0  0
    1.4061   -0.6321    0.0000 H   0  0  0  0  0  0  0  0  0  0  0  0
    4.1195   -3.3850    0.0000 H   0  0  0  0  0  0  0  0  0  0  0  0
    1.9943   -2.3324    0.0000 H   0  0  0  0  0  0  0  0  0  0  0  0
    1.1304    0.5405    0.0000 H   0  0  0  0  0  0  0  0  0  0  0  0
 15  1  1  1  0  0  0
  1 26  1  0  0  0  0
 19  2  1  1  0  0  0
  2 54  1  0  0  0  0
 25  3  1  6  0  0  0
 31  3  1  1  0  0  0
  4 26  2  0  0  0  0
  5 27  1  0  0  0  0
  5 57  1  0  0  0  0
  6 27  2  0  0  0  0
  7 31  1  0  0  0  0
  7 34  1  0  0  0  0
 32  8  1  6  0  0  0
  8 63  1  0  0  0  0
 33  9  1  1  0  0  0
  9 66  1  0  0  0  0
 35 10  1  6  0  0  0
 10 67  1  0  0  0  0
 11 36  1  0  0  0  0
 11 68  1  0  0  0  0
 12 13  1  0  0  0  0
 12 16  1  0  0  0  0
 12 17  1  1  0  0  0
 12 20  1  0  0  0  0
 13 15  1  0  0  0  0
 13 21  1  0  0  0  0
 13 37  1  6  0  0  0
 14 15  1  0  0  0  0
 14 16  1  0  0  0  0
 14 18  1  0  0  0  0
 14 38  1  6  0  0  0
 15 24  1  0  0  0  0
 16 27  1  6  0  0  0
 16 39  1  0  0  0  0
 17 19  1  0  0  0  0
 17 40  1  0  0  0  0
 17 41  1  0  0  0  0
 18 25  1  0  0  0  0
 18 26  1  0  0  0  0
 18 28  1  0  0  0  0
 19 22  1  0  0  0  0
 19 23  1  0  0  0  0
 20 23  1  0  0  0  0
 20 42  1  0  0  0  0
 20 43  1  0  0  0  0
 21 22  1  0  0  0  0
 21 44  1  0  0  0  0
 21 45  1  0  0  0  0
 22 46  1  0  0  0  0
 22 47  1  0  0  0  0
 23 30  2  0  0  0  0
 24 29  2  0  0  0  0
 24 48  1  0  0  0  0
 25 29  1  0  0  0  0
 25 49  1  0  0  0  0
 28 50  1  0  0  0  0
 28 51  1  0  0  0  0
 28 52  1  0  0  0  0
 29 53  1  0  0  0  0
 30 55  1  0  0  0  0
 30 56  1  0  0  0  0
 31 32  1  0  0  0  0
 31 58  1  0  0  0  0
 32 33  1  0  0  0  0
 32 59  1  0  0  0  0
 33 35  1  0  0  0  0
 33 60  1  0  0  0  0
 34 35  1  0  0  0  0
 34 36  1  1  0  0  0
 34 61  1  0  0  0  0
 35 62  1  0  0  0  0
 36 64  1  0  0  0  0
 36 65  1  0  0  0  0
M  END
> <PUBCHEM_COMPOUND_CID>
44260117

> <PUBCHEM_COMPOUND_CANONICALIZED>
1

> <PUBCHEM_CACTVS_COMPLEXITY>
1060

> <PUBCHEM_CACTVS_HBOND_ACCEPTOR>
11

> <PUBCHEM_CACTVS_HBOND_DONOR>
6

> <PUBCHEM_CACTVS_ROTATABLE_BOND>
4

> <PUBCHEM_CACTVS_SUBSKEYS>
AAADcfB4PAAAAAAAAAAAAAAAAAAAAaMEAAA0QIAABggSAGDAAAAAGgAACAAAD1SwgAMCCAAABgCIAiDSCAAAAAAgAAAICAEAAAgRFBYAIQAiUAAFoAAPMAPK7vzPgAAAAAAAAADAAAYAACAAAYAADAAAAA==

> <PUBCHEM_IUPAC_INCHI>
InChI=1S/C25H32O11/c1-10-7-23-9-24(10,33)5-3-12(23)25-6-4-13(22(2,21(32)36-25)18(25)14(23)19(30)31)35-20-17(29)16(28)15(27)11(8-26)34-20/h4,6,11-18,20,26-29,33H,1,3,5,7-9H2,2H3,(H,30,31)/t11-,12-,13+,14-,15-,16+,17-,18-,20+,22?,23+,24+,25-/m1/s1

> <PUBCHEM_IUPAC_INCHIKEY>
WUTOEZVIPGBMEA-OQFKCVJCSA-N

> <PUBCHEM_XLOGP3>
-1.4

> <PUBCHEM_EXACT_MASS>
508.194462

> <PUBCHEM_MOLECULAR_FORMULA>
C25H32O11

> <PUBCHEM_MOLECULAR_WEIGHT>
508.51498

> <PUBCHEM_OPENEYE_CAN_SMILES>
CC12C(C=CC3(C1C(C45C3CCC(C4)(C(=C)C5)O)C(=O)O)OC2=O)OC6C(C(C(C(O6)CO)O)O)O

> <PUBCHEM_OPENEYE_ISO_SMILES>
CC12[C@H](C=C[C@@]3([C@@H]1[C@@H]([C@]45[C@H]3CC[C@](C4)(C(=C)C5)O)C(=O)O)OC2=O)O[C@H]6[C@@H]([C@H]([C@@H]([C@H](O6)CO)O)O)O

> <PUBCHEM_CACTVS_TPSA>
183

> <PUBCHEM_MONOISOTOPIC_WEIGHT>
508.194462

> <PUBCHEM_TOTAL_CHARGE>
0

> <PUBCHEM_HEAVY_ATOM_COUNT>
36

> <PUBCHEM_ATOM_DEF_STEREO_COUNT>
12

> <PUBCHEM_ATOM_UDEF_STEREO_COUNT>
1

> <PUBCHEM_BOND_DEF_STEREO_COUNT>
0

> <PUBCHEM_BOND_UDEF_STEREO_COUNT>
0

> <PUBCHEM_ISOTOPIC_ATOM_COUNT>
0

> <PUBCHEM_COMPONENT_COUNT>
1

> <PUBCHEM_CACTVS_TAUTO_COUNT>
1

> <PUBCHEM_COORDINATE_TYPE>
1
5
255

> <PUBCHEM_BONDANNOTATIONS>
15  1  5
35  10  6
12  17  5
13  37  6
14  38  6
16  27  6
18  28  3
19  2  5
25  3  6
31  3  5
34  36  5
32  8  6
33  9  5

$$$$

