   Color/Form
        Colorless to white crystalline solid.
   from [1]HSDB

   Odor
        Odorless.
   from [2]HSDB

   Melting Point
        245 DEG C DECOMP
   from [3]HSDB

   Density/Specific Gravity
        1.70 @ 20 DEG C
   from [4]HSDB

   Solubilities

     * SOLUBILITY IN HARD WATER CONTAINING 260 PPM CALCIUM CARBONATE: 4%
     * SOLUBILITY IN WATER: 25.5% @ 25 DEG C; INSOL IN MOST ORG SOLVENTS
       EXCEPT METHANOL
     * VERY SOL IN BENZENE; SLIGHTLY SOL IN ACETONE
     * In water, 2.5X10+5 mg/l at 25 deg C

   from [5]HSDB

   Other Chemical/Physical Properties

     * PRECIPITATED BY SOLUBLE CALCIUM SALTS
     * READILY HYDROLYZED AT PH VALUES BELOW 5.5

   from [6]HSDB

   Computed Properties
   Molecular Weight                  287.11712 [g/mol]
   Molecular Formula                 C[8]H[8]Cl[2]O[5]S
   XLogP3                            2.6
   H-Bond Donor                      1
   H-Bond Acceptor                   5
   Rotatable Bond Count              5
   Exact Mass                        285.94695
   MonoIsotopic Mass                 285.94695
   Topological Polar Surface Area    81.2
   Heavy Atom Count                  16
   Formal Charge                     0
   Complexity                        302
   Isotope Atom Count                0
   Defined Atom Stereocenter Count   0
   Undefined Atom Stereocenter Count 0
   Defined Bond Stereocenter Count   0
   Undefined Bond Stereocenter Count 0
   Covalently-Bonded Unit Count      1
   Feature 3D Acceptor Count         4
   Feature 3D Anion Count            1
   Feature 3D Ring Count             1
   Effective Rotor Count             5
   Conformer Sampling RMSD           0.6
   CID Conformer Count               [7]106

References

   1. http://toxnet.nlm.nih.gov/cgi-bin/sis/search/r?dbs+hsdb:@term+@rn+@rel+136-78-7
   2. http://toxnet.nlm.nih.gov/cgi-bin/sis/search/r?dbs+hsdb:@term+@rn+@rel+136-78-7
   3. http://toxnet.nlm.nih.gov/cgi-bin/sis/search/r?dbs+hsdb:@term+@rn+@rel+136-78-7
   4. http://toxnet.nlm.nih.gov/cgi-bin/sis/search/r?dbs+hsdb:@term+@rn+@rel+136-78-7
   5. http://toxnet.nlm.nih.gov/cgi-bin/sis/search/r?dbs+hsdb:@term+@rn+@rel+136-78-7
   6. http://toxnet.nlm.nih.gov/cgi-bin/sis/search/r?dbs+hsdb:@term+@rn+@rel+136-78-7
   7. http://pubchem.ncbi.nlm.nih.gov/vw3d/vw3d.cgi?cid=8701
