   Melting Point
        182-184 DEG C
   from [1]HSDB

   Octanol/Water Partition Coefficient
        log Kow= 6.72
   from [2]HSDB

   Solubilities
        18.0X10-2 MG/L WATER
   from [3]HSDB

   Spectral Properties
        MAX ABSORPTION: 211 NM (E= 1260, 1%, 1 CM); 290 NM (E= 44.3, 1%, 1
   CM); 290 NM (E= 31, 1%, 1 CM)
   from [4]HSDB

   Computed Properties
   Molecular Weight                  291.98804 [g/mol]
   Molecular Formula                 C[12]H[6]Cl[4]
   XLogP3                            6.6
   H-Bond Donor                      0
   H-Bond Acceptor                   0
   Rotatable Bond Count              1
   Exact Mass                        291.919411
   MonoIsotopic Mass                 289.922361
   Topological Polar Surface Area    0
   Heavy Atom Count                  16
   Formal Charge                     0
   Complexity                        209
   Isotope Atom Count                0
   Defined Atom Stereocenter Count   0
   Undefined Atom Stereocenter Count 0
   Defined Bond Stereocenter Count   0
   Undefined Bond Stereocenter Count 0
   Covalently-Bonded Unit Count      1
   Feature 3D Ring Count             2
   Effective Rotor Count             1
   Conformer Sampling RMSD           0.6
   CID Conformer Count               [5]4

References

   1. http://toxnet.nlm.nih.gov/cgi-bin/sis/search/r?dbs+hsdb:@term+@rn+@rel+32598-13-3
   2. http://toxnet.nlm.nih.gov/cgi-bin/sis/search/r?dbs+hsdb:@term+@rn+@rel+32598-13-3
   3. http://toxnet.nlm.nih.gov/cgi-bin/sis/search/r?dbs+hsdb:@term+@rn+@rel+32598-13-3
   4. http://toxnet.nlm.nih.gov/cgi-bin/sis/search/r?dbs+hsdb:@term+@rn+@rel+32598-13-3
   5. http://pubchem.ncbi.nlm.nih.gov/vw3d/vw3d.cgi?cid=36187
