   Color/Form
        Colorless liquid
   from [1]HSDB

   Boiling Point
        168 deg C
   from [2]HSDB

   Density/Specific Gravity
        1.088 g/cu cm at 25 deg C
   from [3]HSDB

   Dissociation Constants
        pKa = 7.8 (tertiary amine) (est)
   from [4]HSDB

   Octanol/Water Partition Coefficient
        log Kow = -1.05 (est)
   from [5]HSDB

   Solubilities

     * Miscible in organic solvents
     * Miscible with water

   from [6]HSDB

   Spectral Properties

     * Index of refraction = 1.4560 at 20 deg C
     * MASS: 70840 (NIST/EPA/MSDC Mass Spectral Database, 1990 Version);
       146 (National Bureau of Standards)
     * IR: 2:186H (Aldrich Library of Infrared Spectra, Aldrich Chemical
       Co, Milwaukee, WI)

   from [7]HSDB

   Vapor Pressure
        0.49 mm Hg at 25 deg C (est)
   from [8]HSDB

   Other Chemical/Physical Properties

     * Henry's Law constant = 7.8x10-10 atm-cu m/mol at 25 deg C (est)
     * Hydroxyl radical reaction rate constant = 2.1x10-11 cu
       cm/molecule-sec at 25 deg C (est)

   from [9]HSDB

   Computed Properties
   Molecular Weight                  87.12036 [g/mol]
   Molecular Formula                 C[4]H[9]NO
   XLogP3-AA                         -0.6
   H-Bond Donor                      1
   H-Bond Acceptor                   2
   Rotatable Bond Count              2
   Exact Mass                        87.068414
   MonoIsotopic Mass                 87.068414
   Topological Polar Surface Area    23.2
   Heavy Atom Count                  6
   Formal Charge                     0
   Complexity                        42.8
   Isotope Atom Count                0
   Defined Atom Stereocenter Count   0
   Undefined Atom Stereocenter Count 0
   Defined Bond Stereocenter Count   0
   Undefined Bond Stereocenter Count 0
   Covalently-Bonded Unit Count      1
   Feature 3D Acceptor Count         1
   Feature 3D Donor Count            1
   Feature 3D Cation Count           1
   Effective Rotor Count             2.6
   Conformer Sampling RMSD           0.4
   CID Conformer Count               [10]6

References

   1. http://toxnet.nlm.nih.gov/cgi-bin/sis/search/r?dbs+hsdb:@term+@rn+@rel+1072-52-2
   2. http://toxnet.nlm.nih.gov/cgi-bin/sis/search/r?dbs+hsdb:@term+@rn+@rel+1072-52-2
   3. http://toxnet.nlm.nih.gov/cgi-bin/sis/search/r?dbs+hsdb:@term+@rn+@rel+1072-52-2
   4. http://toxnet.nlm.nih.gov/cgi-bin/sis/search/r?dbs+hsdb:@term+@rn+@rel+1072-52-2
   5. http://toxnet.nlm.nih.gov/cgi-bin/sis/search/r?dbs+hsdb:@term+@rn+@rel+1072-52-2
   6. http://toxnet.nlm.nih.gov/cgi-bin/sis/search/r?dbs+hsdb:@term+@rn+@rel+1072-52-2
   7. http://toxnet.nlm.nih.gov/cgi-bin/sis/search/r?dbs+hsdb:@term+@rn+@rel+1072-52-2
   8. http://toxnet.nlm.nih.gov/cgi-bin/sis/search/r?dbs+hsdb:@term+@rn+@rel+1072-52-2
   9. http://toxnet.nlm.nih.gov/cgi-bin/sis/search/r?dbs+hsdb:@term+@rn+@rel+1072-52-2
  10. http://pubchem.ncbi.nlm.nih.gov/vw3d/vw3d.cgi?cid=14074
