   Color/Form
        BRICK-RED CRYSTALS (LEAFLETS FROM ETHANOL)
   from [1]HSDB

   Melting Point
        134 DEG C
   from [2]HSDB

   Solubilities

     * SOL IN ETHANOL, ACETONE, ETHER & BENZENE; INSOL IN WATER
     * SOL IN PETROLEUM ETHER, CARBON DISULFIDE, CONCN HYDROCHLORIC ACID

   from [3]HSDB

   Spectral Properties

     * MAX ABSORPTION (ETHANOL): 514-516 NM
     * MAX ABSORPTION (ALCOHOL): 315 NM (LOG E= 3.9); 422 NM (LOG E= 4.1);
       480 NM (LOG E= 4.3)

   from [4]HSDB

   Computed Properties
   Molecular Weight                  248.27928 [g/mol]
   Molecular Formula                 C[16]H[12]N[2]O
   XLogP3-AA                         3.6
   H-Bond Donor                      1
   H-Bond Acceptor                   3
   Rotatable Bond Count              2
   Tautomer Count                    4
   Exact Mass                        248.094963
   MonoIsotopic Mass                 248.094963
   Topological Polar Surface Area    41.5
   Heavy Atom Count                  19
   Formal Charge                     0
   Complexity                        394
   Isotope Atom Count                0
   Defined Atom Stereocenter Count   0
   Undefined Atom Stereocenter Count 0
   Defined Bond Stereocenter Count   1
   Undefined Bond Stereocenter Count 0
   Covalently-Bonded Unit Count      1
   Feature 3D Acceptor Count         2
   Feature 3D Donor Count            1
   Feature 3D Ring Count             3
   Effective Rotor Count             2
   Conformer Sampling RMSD           0.6
   CID Conformer Count               [5]4

References

   1. http://toxnet.nlm.nih.gov/cgi-bin/sis/search/r?dbs+hsdb:@term+@rn+@rel+842-07-9
   2. http://toxnet.nlm.nih.gov/cgi-bin/sis/search/r?dbs+hsdb:@term+@rn+@rel+842-07-9
   3. http://toxnet.nlm.nih.gov/cgi-bin/sis/search/r?dbs+hsdb:@term+@rn+@rel+842-07-9
   4. http://toxnet.nlm.nih.gov/cgi-bin/sis/search/r?dbs+hsdb:@term+@rn+@rel+842-07-9
   5. http://pubchem.ncbi.nlm.nih.gov/vw3d/vw3d.cgi?cid=5858445
