441812
  -OEChem-07051212562D

 64 69  0     1  0  0  0  0  0999 V2000
    5.6604   -1.5203    0.0000 O   0  0  0  0  0  0  0  0  0  0  0  0
    8.3550   -2.0619    0.0000 O   0  0  0  0  0  0  0  0  0  0  0  0
    6.5709    1.9865    0.0000 O   0  0  0  0  0  0  0  0  0  0  0  0
    4.8225   -2.0480    0.0000 O   0  0  0  0  0  0  0  0  0  0  0  0
    2.6697    1.8740    0.0000 O   0  0  0  0  0  0  0  0  0  0  0  0
    7.4490   -3.5827    0.0000 O   0  0  0  0  0  0  0  0  0  0  0  0
   10.2758    0.7046    0.0000 O   0  0  0  0  0  0  0  0  0  0  0  0
    2.7595    3.5827    0.0000 O   0  0  0  0  0  0  0  0  0  0  0  0
    6.5709   -1.0135    0.0000 C   0  0  1  0  0  0  0  0  0  0  0  0
    5.7049   -0.5135    0.0000 C   0  0  1  0  0  0  0  0  0  0  0  0
    7.4369   -0.5135    0.0000 C   0  0  1  0  0  0  0  0  0  0  0  0
    5.7049    0.4865    0.0000 C   0  0  1  0  0  0  0  0  0  0  0  0
    6.5548   -2.0550    0.0000 C   0  0  1  0  0  0  0  0  0  0  0  0
    4.8109    1.0212    0.0000 C   0  0  1  0  0  0  0  0  0  0  0  0
    7.4369    0.4865    0.0000 C   0  0  0  0  0  0  0  0  0  0  0  0
    6.5709    0.9865    0.0000 C   0  0  2  0  0  0  0  0  0  0  0  0
    8.3469   -1.0203    0.0000 C   0  0  2  0  0  0  0  0  0  0  0  0
    3.9049    0.5074    0.0000 C   0  0  1  0  0  0  0  0  0  0  0  0
    4.8109   -1.0481    0.0000 C   0  0  0  0  0  0  0  0  0  0  0  0
    6.3550   -1.6392    0.0000 C   0  0  0  0  0  0  0  0  0  0  0  0
    3.9049   -0.5343    0.0000 C   0  0  0  0  0  0  0  0  0  0  0  0
    8.3029   -0.0135    0.0000 C   0  0  0  0  0  0  0  0  0  0  0  0
    7.4529   -2.5827    0.0000 C   0  0  0  0  0  0  0  0  0  0  0  0
    2.9594    0.8943    0.0000 C   0  0  0  0  0  0  0  0  0  0  0  0
    5.6808    1.5145    0.0000 C   0  0  0  0  0  0  0  0  0  0  0  0
    4.9642    2.0313    0.0000 C   0  0  0  0  0  0  0  0  0  0  0  0
    9.2071   -0.5103    0.0000 C   0  0  0  0  0  0  0  0  0  0  0  0
    2.0000    0.6121    0.0000 C   0  0  0  0  0  0  0  0  0  0  0  0
    2.5819   -0.0317    0.0000 C   0  0  0  0  0  0  0  0  0  0  0  0
    4.2721    2.7827    0.0000 C   0  0  0  0  0  0  0  0  0  0  0  0
   10.1253   -0.9065    0.0000 C   0  0  0  0  0  0  0  0  0  0  0  0
    9.3001    0.4853    0.0000 C   0  0  0  0  0  0  0  0  0  0  0  0
    3.2528    2.7129    0.0000 C   0  0  0  0  0  0  0  0  0  0  0  0
   10.7858   -0.1556    0.0000 C   0  0  0  0  0  0  0  0  0  0  0  0
    6.4410    0.0615    0.0000 H   0  0  0  0  0  0  0  0  0  0  0  0
    6.1214   -2.7862    0.0000 H   0  0  0  0  0  0  0  0  0  0  0  0
    8.0475    0.3789    0.0000 H   0  0  0  0  0  0  0  0  0  0  0  0
    7.6490    1.0692    0.0000 H   0  0  0  0  0  0  0  0  0  0  0  0
    7.1078    1.2965    0.0000 H   0  0  0  0  0  0  0  0  0  0  0  0
    8.8868   -1.3251    0.0000 H   0  0  0  0  0  0  0  0  0  0  0  0
    3.1991    0.0336    0.0000 H   0  0  0  0  0  0  0  0  0  0  0  0
    5.8181   -1.9493    0.0000 H   0  0  0  0  0  0  0  0  0  0  0  0
    6.6650   -2.1761    0.0000 H   0  0  0  0  0  0  0  0  0  0  0  0
    6.8919   -1.3292    0.0000 H   0  0  0  0  0  0  0  0  0  0  0  0
    3.2940   -0.4282    0.0000 H   0  0  0  0  0  0  0  0  0  0  0  0
    3.6958   -1.1180    0.0000 H   0  0  0  0  0  0  0  0  0  0  0  0
    8.6130   -0.5504    0.0000 H   0  0  0  0  0  0  0  0  0  0  0  0
    8.8399    0.2965    0.0000 H   0  0  0  0  0  0  0  0  0  0  0  0
    7.9930    0.5235    0.0000 H   0  0  0  0  0  0  0  0  0  0  0  0
    5.9866    0.9752    0.0000 H   0  0  0  0  0  0  0  0  0  0  0  0
    6.2201    1.8204    0.0000 H   0  0  0  0  0  0  0  0  0  0  0  0
    5.3749    2.0538    0.0000 H   0  0  0  0  0  0  0  0  0  0  0  0
    5.5571    2.2126    0.0000 H   0  0  0  0  0  0  0  0  0  0  0  0
    7.1078    2.2965    0.0000 H   0  0  0  0  0  0  0  0  0  0  0  0
    1.8250    1.2069    0.0000 H   0  0  0  0  0  0  0  0  0  0  0  0
    1.4052    0.4371    0.0000 H   0  0  0  0  0  0  0  0  0  0  0  0
    2.1750    0.0173    0.0000 H   0  0  0  0  0  0  0  0  0  0  0  0
    2.0077    0.2023    0.0000 H   0  0  0  0  0  0  0  0  0  0  0  0
    2.3478   -0.6058    0.0000 H   0  0  0  0  0  0  0  0  0  0  0  0
    3.1560   -0.2658    0.0000 H   0  0  0  0  0  0  0  0  0  0  0  0
    4.5015    3.3587    0.0000 H   0  0  0  0  0  0  0  0  0  0  0  0
   10.2612   -1.5114    0.0000 H   0  0  0  0  0  0  0  0  0  0  0  0
    8.8346    0.8948    0.0000 H   0  0  0  0  0  0  0  0  0  0  0  0
   11.4031   -0.2133    0.0000 H   0  0  0  0  0  0  0  0  0  0  0  0
  9  1  1  1  0  0  0
  1 13  1  0  0  0  0
  2 17  1  0  0  0  0
  2 23  1  0  0  0  0
 16  3  1  1  0  0  0
  3 54  1  0  0  0  0
  4 19  2  0  0  0  0
  5 24  1  0  0  0  0
  5 33  1  0  0  0  0
  6 23  2  0  0  0  0
  7 32  1  0  0  0  0
  7 34  1  0  0  0  0
  8 33  2  0  0  0  0
  9 10  1  0  0  0  0
  9 11  1  0  0  0  0
  9 13  1  0  0  0  0
 10 12  1  0  0  0  0
 10 19  1  0  0  0  0
 10 20  1  1  0  0  0
 11 15  1  0  0  0  0
 11 17  1  0  0  0  0
 11 22  1  6  0  0  0
 12 14  1  0  0  0  0
 12 16  1  0  0  0  0
 12 35  1  6  0  0  0
 13 23  1  0  0  0  0
 13 36  1  6  0  0  0
 14 18  1  0  0  0  0
 14 25  1  1  0  0  0
 14 26  1  0  0  0  0
 15 16  1  0  0  0  0
 15 37  1  0  0  0  0
 15 38  1  0  0  0  0
 16 39  1  0  0  0  0
 17 27  1  6  0  0  0
 17 40  1  0  0  0  0
 18 21  1  0  0  0  0
 18 24  1  0  0  0  0
 18 41  1  6  0  0  0
 19 21  1  0  0  0  0
 20 42  1  0  0  0  0
 20 43  1  0  0  0  0
 20 44  1  0  0  0  0
 21 45  1  0  0  0  0
 21 46  1  0  0  0  0
 22 47  1  0  0  0  0
 22 48  1  0  0  0  0
 22 49  1  0  0  0  0
 24 28  1  0  0  0  0
 24 29  1  0  0  0  0
 25 50  1  0  0  0  0
 25 51  1  0  0  0  0
 25 52  1  0  0  0  0
 26 30  2  0  0  0  0
 26 53  1  0  0  0  0
 27 31  1  0  0  0  0
 27 32  2  0  0  0  0
 28 55  1  0  0  0  0
 28 56  1  0  0  0  0
 28 57  1  0  0  0  0
 29 58  1  0  0  0  0
 29 59  1  0  0  0  0
 29 60  1  0  0  0  0
 30 33  1  0  0  0  0
 30 61  1  0  0  0  0
 31 34  2  0  0  0  0
 31 62  1  0  0  0  0
 32 63  1  0  0  0  0
 34 64  1  0  0  0  0
M  END
> <PUBCHEM_COMPOUND_CID>
441812

> <PUBCHEM_COMPOUND_CANONICALIZED>
1

> <PUBCHEM_CACTVS_COMPLEXITY>
1020

> <PUBCHEM_CACTVS_HBOND_ACCEPTOR>
8

> <PUBCHEM_CACTVS_HBOND_DONOR>
1

> <PUBCHEM_CACTVS_ROTATABLE_BOND>
1

> <PUBCHEM_CACTVS_SUBSKEYS>
AAADceB4PAAAAAAAAAAAAAAAEgAAASAAAAA0YIAABIgAAADRgAAAGgAACAAAD1SgmAIyDIAABkCIAqjSiAICCAAkIAAIiAFGCMgNNxYENQ6CWSCl4BEKKYPK7vzvgAAAAAAAAADCAAYAADAAAAAAAAAAAA==

> <PUBCHEM_IUPAC_INCHI>
InChI=1S/C26H30O8/c1-22(2)15-10-16(28)25(5)18(23(15,3)8-6-17(29)33-22)14(27)11-24(4)19(13-7-9-31-12-13)32-21(30)20-26(24,25)34-20/h6-9,12,14-15,18-20,27H,10-11H2,1-5H3/t14-,15-,18+,19-,20+,23-,24-,25+,26+/m0/s1

> <PUBCHEM_IUPAC_INCHIKEY>
OZGKITZRRFNYRV-CHALWBKJSA-N

> <PUBCHEM_XLOGP3_AA>
2

> <PUBCHEM_EXACT_MASS>
470.194068

> <PUBCHEM_MOLECULAR_FORMULA>
C26H30O8

> <PUBCHEM_MOLECULAR_WEIGHT>
470.5116

> <PUBCHEM_OPENEYE_CAN_SMILES>
CC1(C2CC(=O)C3(C(C2(C=CC(=O)O1)C)C(CC4(C35C(O5)C(=O)OC4C6=COC=C6)C)O)C)C

> <PUBCHEM_OPENEYE_ISO_SMILES>
C[C@@]12C[C@@H]([C@@H]3[C@]4(C=CC(=O)OC([C@@H]4CC(=O)[C@]3([C@@]15[C@H](O5)C(=O)O[C@H]2C6=COC=C6)C)(C)C)C)O

> <PUBCHEM_CACTVS_TPSA>
116

> <PUBCHEM_MONOISOTOPIC_WEIGHT>
470.194068

> <PUBCHEM_TOTAL_CHARGE>
0

> <PUBCHEM_HEAVY_ATOM_COUNT>
34

> <PUBCHEM_ATOM_DEF_STEREO_COUNT>
9

> <PUBCHEM_ATOM_UDEF_STEREO_COUNT>
0

> <PUBCHEM_BOND_DEF_STEREO_COUNT>
0

> <PUBCHEM_BOND_UDEF_STEREO_COUNT>
0

> <PUBCHEM_ISOTOPIC_ATOM_COUNT>
0

> <PUBCHEM_COMPONENT_COUNT>
1

> <PUBCHEM_CACTVS_TAUTO_COUNT>
4

> <PUBCHEM_COORDINATE_TYPE>
1
5
255

> <PUBCHEM_BONDANNOTATIONS>
9  1  5
10  20  5
11  22  6
12  35  6
13  36  6
14  25  5
17  27  6
18  41  6
27  31  8
27  32  8
16  3  5
31  34  8
7  32  8
7  34  8

$$$$

