5281456
  -OEChem-07051212572D

 56 59  0     1  0  0  0  0  0999 V2000
    5.0718   -1.9842    0.0000 O   0  0  0  0  0  0  0  0  0  0  0  0
    4.2258    1.2656    0.0000 O   0  0  0  0  0  0  0  0  0  0  0  0
    4.7671    2.0187    0.0000 O   0  0  0  0  0  0  0  0  0  0  0  0
    3.7248   -2.1877    0.0000 O   0  0  0  0  0  0  0  0  0  0  0  0
    7.6702    0.5132    0.0000 O   0  0  0  0  0  0  0  0  0  0  0  0
    5.5718    3.6023    0.0000 O   0  0  0  0  0  0  0  0  0  0  0  0
    2.0000   -2.0295    0.0000 O   0  0  0  0  0  0  0  0  0  0  0  0
    8.0557   -1.1754    0.0000 O   0  0  0  0  0  0  0  0  0  0  0  0
    5.5718   -1.1181    0.0000 C   0  0  1  0  0  0  0  0  0  0  0  0
    4.6709   -0.6843    0.0000 C   0  0  1  0  0  0  0  0  0  0  0  0
    4.4483    0.2907    0.0000 C   0  0  2  0  0  0  0  0  0  0  0  0
    6.4728   -0.6843    0.0000 C   0  0  0  0  0  0  0  0  0  0  0  0
    5.0718    1.0725    0.0000 C   0  0  2  0  0  0  0  0  0  0  0  0
    6.0718   -1.9842    0.0000 C   0  0  0  0  0  0  0  0  0  0  0  0
    6.0718    1.0725    0.0000 C   0  0  1  0  0  0  0  0  0  0  0  0
    3.8162   -1.1919    0.0000 C   0  0  1  0  0  0  0  0  0  0  0  0
    6.6953    0.2907    0.0000 C   0  0  2  0  0  0  0  0  0  0  0  0
    3.4580    0.3772    0.0000 C   0  0  0  0  0  0  0  0  0  0  0  0
    3.0681   -0.5372    0.0000 C   0  0  0  0  0  0  0  0  0  0  0  0
    6.3766    2.0187    0.0000 C   0  0  0  0  0  0  0  0  0  0  0  0
    2.9436    1.2348    0.0000 C   0  0  0  0  0  0  0  0  0  0  0  0
    5.5718    2.6023    0.0000 C   0  0  0  0  0  0  0  0  0  0  0  0
    7.3271    2.3294    0.0000 C   0  0  0  0  0  0  0  0  0  0  0  0
    2.8167   -2.6065    0.0000 C   0  0  0  0  0  0  0  0  0  0  0  0
    8.3504   -0.2199    0.0000 C   0  0  0  0  0  0  0  0  0  0  0  0
    2.7254   -3.6023    0.0000 C   0  0  0  0  0  0  0  0  0  0  0  0
    9.3253    0.0027    0.0000 C   0  0  0  0  0  0  0  0  0  0  0  0
    9.6201    0.9582    0.0000 C   0  0  0  0  0  0  0  0  0  0  0  0
   10.0055   -0.7304    0.0000 C   0  0  0  0  0  0  0  0  0  0  0  0
    9.7108   -1.6860    0.0000 C   0  0  0  0  0  0  0  0  0  0  0  0
    4.7079   -1.5334    0.0000 H   0  0  0  0  0  0  0  0  0  0  0  0
    6.6108   -1.2887    0.0000 H   0  0  0  0  0  0  0  0  0  0  0  0
    7.0928   -0.6843    0.0000 H   0  0  0  0  0  0  0  0  0  0  0  0
    4.2357    1.2254    0.0000 H   0  0  0  0  0  0  0  0  0  0  0  0
    6.1795   -2.5948    0.0000 H   0  0  0  0  0  0  0  0  0  0  0  0
    6.6544   -1.7721    0.0000 H   0  0  0  0  0  0  0  0  0  0  0  0
    6.9080    1.2254    0.0000 H   0  0  0  0  0  0  0  0  0  0  0  0
    3.2404   -1.4220    0.0000 H   0  0  0  0  0  0  0  0  0  0  0  0
    6.9001    0.8759    0.0000 H   0  0  0  0  0  0  0  0  0  0  0  0
    2.4637   -0.6752    0.0000 H   0  0  0  0  0  0  0  0  0  0  0  0
    3.6334    1.4483    0.0000 H   0  0  0  0  0  0  0  0  0  0  0  0
    3.4753    1.5537    0.0000 H   0  0  0  0  0  0  0  0  0  0  0  0
    2.6247    1.7664    0.0000 H   0  0  0  0  0  0  0  0  0  0  0  0
    2.4120    0.9158    0.0000 H   0  0  0  0  0  0  0  0  0  0  0  0
    7.7886    1.9153    0.0000 H   0  0  0  0  0  0  0  0  0  0  0  0
    7.4549    2.9360    0.0000 H   0  0  0  0  0  0  0  0  0  0  0  0
    2.1080   -3.5457    0.0000 H   0  0  0  0  0  0  0  0  0  0  0  0
    2.6687   -4.2197    0.0000 H   0  0  0  0  0  0  0  0  0  0  0  0
    3.3428   -3.6590    0.0000 H   0  0  0  0  0  0  0  0  0  0  0  0
   10.2126    0.7755    0.0000 H   0  0  0  0  0  0  0  0  0  0  0  0
    9.8028    1.5507    0.0000 H   0  0  0  0  0  0  0  0  0  0  0  0
    9.0276    1.1410    0.0000 H   0  0  0  0  0  0  0  0  0  0  0  0
   10.6100   -0.5924    0.0000 H   0  0  0  0  0  0  0  0  0  0  0  0
    9.1183   -1.5032    0.0000 H   0  0  0  0  0  0  0  0  0  0  0  0
    9.5280   -2.2784    0.0000 H   0  0  0  0  0  0  0  0  0  0  0  0
   10.3032   -1.8687    0.0000 H   0  0  0  0  0  0  0  0  0  0  0  0
  9  1  1  1  0  0  0
  1 14  1  0  0  0  0
 11  2  1  1  0  0  0
  2 41  1  0  0  0  0
  3 13  1  0  0  0  0
  3 22  1  0  0  0  0
 16  4  1  6  0  0  0
  4 24  1  0  0  0  0
 17  5  1  6  0  0  0
  5 25  1  0  0  0  0
  6 22  2  0  0  0  0
  7 24  2  0  0  0  0
  8 25  2  0  0  0  0
  9 10  1  0  0  0  0
  9 12  1  0  0  0  0
  9 14  1  0  0  0  0
 10 11  1  0  0  0  0
 10 16  1  0  0  0  0
 10 31  1  1  0  0  0
 11 13  1  0  0  0  0
 11 18  1  0  0  0  0
 12 17  1  0  0  0  0
 12 32  1  0  0  0  0
 12 33  1  0  0  0  0
 13 15  1  0  0  0  0
 13 34  1  6  0  0  0
 14 35  1  0  0  0  0
 14 36  1  0  0  0  0
 15 17  1  0  0  0  0
 15 20  1  0  0  0  0
 15 37  1  1  0  0  0
 16 19  1  0  0  0  0
 16 38  1  0  0  0  0
 17 39  1  0  0  0  0
 18 19  2  0  0  0  0
 18 21  1  0  0  0  0
 19 40  1  0  0  0  0
 20 22  1  0  0  0  0
 20 23  2  0  0  0  0
 21 42  1  0  0  0  0
 21 43  1  0  0  0  0
 21 44  1  0  0  0  0
 23 45  1  0  0  0  0
 23 46  1  0  0  0  0
 24 26  1  0  0  0  0
 25 27  1  0  0  0  0
 26 47  1  0  0  0  0
 26 48  1  0  0  0  0
 26 49  1  0  0  0  0
 27 28  1  0  0  0  0
 27 29  2  0  0  0  0
 28 50  1  0  0  0  0
 28 51  1  0  0  0  0
 28 52  1  0  0  0  0
 29 30  1  0  0  0  0
 29 53  1  0  0  0  0
 30 54  1  0  0  0  0
 30 55  1  0  0  0  0
 30 56  1  0  0  0  0
M  END
> <PUBCHEM_COMPOUND_CID>
5281456

> <PUBCHEM_COMPOUND_CANONICALIZED>
1

> <PUBCHEM_CACTVS_COMPLEXITY>
901

> <PUBCHEM_CACTVS_HBOND_ACCEPTOR>
8

> <PUBCHEM_CACTVS_HBOND_DONOR>
1

> <PUBCHEM_CACTVS_ROTATABLE_BOND>
5

> <PUBCHEM_CACTVS_SUBSKEYS>
AAADceB4PAAAAAAAAAAAAAAAEgAAASIAAAAAAAAABgAAAACQAAAAGgAACAAADVSggAICCAAABgCIAiDSCAAAAAAgAAAACAEAAEgBBBIAIQACUAAFwAALMYPK7PzOgAAAAAAAAAAAAAAAAAAAAAAAAAAAAA==

> <PUBCHEM_IUPAC_OPENEYE_NAME>
[(3aR,4R,6R,6aR,7R,9aS,9bS)-7-acetoxy-9a-hydroxy-9-methyl-3-methylene-2-oxo-spiro[3a,4,5,6a,7,9b-hexahydroazuleno[4,5-b]furan-6,2'-oxirane]-4-yl] (Z)-2-methylbut-2-enoate

> <PUBCHEM_IUPAC_CAS_NAME>
(Z)-2-methyl-2-butenoic acid [(3aR,4R,6R,6aR,7R,9aS,9bS)-7-acetyloxy-9a-hydroxy-9-methyl-3-methylene-2-oxo-4-spiro[3a,4,5,6a,7,9b-hexahydroazuleno[4,5-b]furan-6,2'-oxirane]yl] ester

> <PUBCHEM_IUPAC_NAME>
[(3aR,4R,6R,6aR,7R,9aS,9bS)-7-acetyloxy-9a-hydroxy-9-methyl-3-methylidene-2-oxospiro[3a,4,5,6a,7,9b-hexahydroazuleno[4,5-b]furan-6,2'-oxirane]-4-yl] (Z)-2-methylbut-2-enoate

> <PUBCHEM_IUPAC_SYSTEMATIC_NAME>
[(3aR,4R,6R,6aR,7R,9aS,9bS)-7-acetyloxy-9-methyl-3-methylidene-9a-oxidanyl-2-oxidanylidene-spiro[3a,4,5,6a,7,9b-hexahydroazuleno[4,5-b]furan-6,2'-oxirane]-4-yl] (Z)-2-methylbut-2-enoate

> <PUBCHEM_IUPAC_TRADITIONAL_NAME>
(Z)-2-methylbut-2-enoic acid [(3aR,4R,6R,6aR,7R,9aS,9bS)-7-acetoxy-9a-hydroxy-2-keto-9-methyl-3-methylene-spiro[3a,4,5,6a,7,9b-hexahydroazuleno[4,5-b]furan-6,2'-oxirane]-4-yl] ester

> <PUBCHEM_IUPAC_INCHI>
InChI=1S/C22H26O8/c1-6-10(2)19(24)29-15-8-21(9-27-21)17-14(28-13(5)23)7-11(3)22(17,26)18-16(15)12(4)20(25)30-18/h6-7,14-18,26H,4,8-9H2,1-3,5H3/b10-6-/t14-,15-,16-,17+,18+,21+,22-/m1/s1

> <PUBCHEM_IUPAC_INCHIKEY>
RGPNOZYPJYBPCP-UPVVJIFBSA-N

> <PUBCHEM_XLOGP3_AA>
0.9

> <PUBCHEM_EXACT_MASS>
418.162768

> <PUBCHEM_MOLECULAR_FORMULA>
C22H26O8

> <PUBCHEM_MOLECULAR_WEIGHT>
418.43704

> <PUBCHEM_OPENEYE_CAN_SMILES>
CC=C(C)C(=O)OC1CC2(CO2)C3C(C=C(C3(C4C1C(=C)C(=O)O4)O)C)OC(=O)C

> <PUBCHEM_OPENEYE_ISO_SMILES>
C/C=C(/C)\C(=O)O[C@@H]1C[C@]2(CO2)[C@@H]3[C@@H](C=C([C@@]3([C@@H]4[C@@H]1C(=C)C(=O)O4)O)C)OC(=O)C

> <PUBCHEM_CACTVS_TPSA>
112

> <PUBCHEM_MONOISOTOPIC_WEIGHT>
418.162768

> <PUBCHEM_TOTAL_CHARGE>
0

> <PUBCHEM_HEAVY_ATOM_COUNT>
30

> <PUBCHEM_ATOM_DEF_STEREO_COUNT>
7

> <PUBCHEM_ATOM_UDEF_STEREO_COUNT>
0

> <PUBCHEM_BOND_DEF_STEREO_COUNT>
1

> <PUBCHEM_BOND_UDEF_STEREO_COUNT>
0

> <PUBCHEM_ISOTOPIC_ATOM_COUNT>
0

> <PUBCHEM_COMPONENT_COUNT>
1

> <PUBCHEM_CACTVS_TAUTO_COUNT>
1

> <PUBCHEM_COORDINATE_TYPE>
1
5
255

> <PUBCHEM_BONDANNOTATIONS>
9  1  5
10  31  5
13  34  6
15  37  5
11  2  5
16  4  6
17  5  6

$$$$

