17395931
  -OEChem-06241222532D

 39 41  0     0  0  0  0  0  0999 V2000
    6.3301   -1.7621    0.0000 Cl  0  0  0  0  0  0  0  0  0  0  0  0
    2.0000   -2.2621    0.0000 F   0  0  0  0  0  0  0  0  0  0  0  0
   11.5923   -0.7862    0.0000 O   0  0  0  0  0  0  0  0  0  0  0  0
   11.5923    1.2621    0.0000 O   0  0  0  0  0  0  0  0  0  0  0  0
    8.0622    2.2379    0.0000 O   0  0  0  0  0  0  0  0  0  0  0  0
    8.0622   -0.7621    0.0000 N   0  0  0  0  0  0  0  0  0  0  0  0
    7.1962    0.7379    0.0000 N   0  0  0  0  0  0  0  0  0  0  0  0
    8.9282   -0.2621    0.0000 C   0  0  0  0  0  0  0  0  0  0  0  0
    8.9282    0.7379    0.0000 C   0  0  0  0  0  0  0  0  0  0  0  0
    9.8222   -0.7967    0.0000 C   0  0  0  0  0  0  0  0  0  0  0  0
    9.8222    1.2726    0.0000 C   0  0  0  0  0  0  0  0  0  0  0  0
   10.7282   -0.2829    0.0000 C   0  0  0  0  0  0  0  0  0  0  0  0
   10.7282    0.7587    0.0000 C   0  0  0  0  0  0  0  0  0  0  0  0
    7.1962   -0.2621    0.0000 C   0  0  0  0  0  0  0  0  0  0  0  0
    8.0622    1.2379    0.0000 C   0  0  0  0  0  0  0  0  0  0  0  0
    6.3301   -0.7621    0.0000 C   0  0  0  0  0  0  0  0  0  0  0  0
    5.4641   -0.2621    0.0000 C   0  0  0  0  0  0  0  0  0  0  0  0
    4.5981   -0.7621    0.0000 C   0  0  0  0  0  0  0  0  0  0  0  0
    3.7320   -0.2621    0.0000 C   0  0  0  0  0  0  0  0  0  0  0  0
    4.5981   -1.7621    0.0000 C   0  0  0  0  0  0  0  0  0  0  0  0
   11.5884   -1.7862    0.0000 C   0  0  0  0  0  0  0  0  0  0  0  0
   11.5884    2.2621    0.0000 C   0  0  0  0  0  0  0  0  0  0  0  0
    2.8660   -0.7621    0.0000 C   0  0  0  0  0  0  0  0  0  0  0  0
    3.7320   -2.2621    0.0000 C   0  0  0  0  0  0  0  0  0  0  0  0
    2.8660   -1.7621    0.0000 C   0  0  0  0  0  0  0  0  0  0  0  0
    9.8150   -1.4167    0.0000 H   0  0  0  0  0  0  0  0  0  0  0  0
    8.0622   -1.3821    0.0000 H   0  0  0  0  0  0  0  0  0  0  0  0
    9.8150    1.8926    0.0000 H   0  0  0  0  0  0  0  0  0  0  0  0
    5.4641    0.3579    0.0000 H   0  0  0  0  0  0  0  0  0  0  0  0
    3.7320    0.3579    0.0000 H   0  0  0  0  0  0  0  0  0  0  0  0
    5.1350   -2.0721    0.0000 H   0  0  0  0  0  0  0  0  0  0  0  0
   10.9685   -1.7838    0.0000 H   0  0  0  0  0  0  0  0  0  0  0  0
   11.5861   -2.4062    0.0000 H   0  0  0  0  0  0  0  0  0  0  0  0
   12.2084   -1.7886    0.0000 H   0  0  0  0  0  0  0  0  0  0  0  0
   12.2084    2.2645    0.0000 H   0  0  0  0  0  0  0  0  0  0  0  0
   11.5861    2.8821    0.0000 H   0  0  0  0  0  0  0  0  0  0  0  0
   10.9685    2.2597    0.0000 H   0  0  0  0  0  0  0  0  0  0  0  0
    2.3291   -0.4521    0.0000 H   0  0  0  0  0  0  0  0  0  0  0  0
    3.7320   -2.8821    0.0000 H   0  0  0  0  0  0  0  0  0  0  0  0
  1 16  1  0  0  0  0
  2 25  1  0  0  0  0
  3 12  1  0  0  0  0
  3 21  1  0  0  0  0
  4 13  1  0  0  0  0
  4 22  1  0  0  0  0
  5 15  2  0  0  0  0
  6  8  1  0  0  0  0
  6 14  1  0  0  0  0
  6 27  1  0  0  0  0
  7 14  2  0  0  0  0
  7 15  1  0  0  0  0
  8  9  1  0  0  0  0
  8 10  2  0  0  0  0
  9 11  2  0  0  0  0
  9 15  1  0  0  0  0
 10 12  1  0  0  0  0
 10 26  1  0  0  0  0
 11 13  1  0  0  0  0
 11 28  1  0  0  0  0
 12 13  2  0  0  0  0
 14 16  1  0  0  0  0
 16 17  2  0  0  0  0
 17 18  1  0  0  0  0
 17 29  1  0  0  0  0
 18 19  2  0  0  0  0
 18 20  1  0  0  0  0
 19 23  1  0  0  0  0
 19 30  1  0  0  0  0
 20 24  2  0  0  0  0
 20 31  1  0  0  0  0
 21 32  1  0  0  0  0
 21 33  1  0  0  0  0
 21 34  1  0  0  0  0
 22 35  1  0  0  0  0
 22 36  1  0  0  0  0
 22 37  1  0  0  0  0
 23 25  2  0  0  0  0
 23 38  1  0  0  0  0
 24 25  1  0  0  0  0
 24 39  1  0  0  0  0
M  END
> <PUBCHEM_COMPOUND_CID>
17395931

> <PUBCHEM_COMPOUND_CANONICALIZED>
1

> <PUBCHEM_CACTVS_COMPLEXITY>
561

> <PUBCHEM_CACTVS_HBOND_ACCEPTOR>
4

> <PUBCHEM_CACTVS_HBOND_DONOR>
1

> <PUBCHEM_CACTVS_ROTATABLE_BOND>
4

> <PUBCHEM_CACTVS_SUBSKEYS>
AAADccB7MQAEAAAAAAAAAAAAAAAAAAAAAAAwYIAAAAAAAACBQAAAHwIQAAAADA6BmAozxoLABACoAidydACCCAElIgAJiAEG7NgNJjrE/ZvEMapm0BnK6ce63BPOIEABAgACQABAgAIEAASAAAAAAAAAAA==

> <PUBCHEM_IUPAC_OPENEYE_NAME>
2-[(Z)-1-chloro-2-(4-fluorophenyl)vinyl]-6,7-dimethoxy-1H-quinazolin-4-one

> <PUBCHEM_IUPAC_CAS_NAME>
2-[(Z)-1-chloro-2-(4-fluorophenyl)ethenyl]-6,7-dimethoxy-1H-quinazolin-4-one

> <PUBCHEM_IUPAC_NAME>
2-[(Z)-1-chloro-2-(4-fluorophenyl)ethenyl]-6,7-dimethoxy-1H-quinazolin-4-one

> <PUBCHEM_IUPAC_SYSTEMATIC_NAME>
2-[(Z)-1-chloranyl-2-(4-fluorophenyl)ethenyl]-6,7-dimethoxy-1H-quinazolin-4-one

> <PUBCHEM_IUPAC_TRADITIONAL_NAME>
2-[(Z)-1-chloro-2-(4-fluorophenyl)vinyl]-6,7-dimethoxy-1H-quinazolin-4-one

> <PUBCHEM_IUPAC_INCHI>
InChI=1S/C18H14ClFN2O3/c1-24-15-8-12-14(9-16(15)25-2)21-17(22-18(12)23)13(19)7-10-3-5-11(20)6-4-10/h3-9H,1-2H3,(H,21,22,23)/b13-7-

> <PUBCHEM_IUPAC_INCHIKEY>
QAEPDHFOSWTDTO-QPEQYQDCSA-N

> <PUBCHEM_XLOGP3_AA>
3.7

> <PUBCHEM_EXACT_MASS>
360.067698

> <PUBCHEM_MOLECULAR_FORMULA>
C18H14ClFN2O3

> <PUBCHEM_MOLECULAR_WEIGHT>
360.766763

> <PUBCHEM_OPENEYE_CAN_SMILES>
COC1=C(C=C2C(=C1)C(=O)N=C(N2)C(=CC3=CC=C(C=C3)F)Cl)OC

> <PUBCHEM_OPENEYE_ISO_SMILES>
COC1=C(C=C2C(=C1)C(=O)N=C(N2)/C(=C/C3=CC=C(C=C3)F)/Cl)OC

> <PUBCHEM_CACTVS_TPSA>
59.9

> <PUBCHEM_MONOISOTOPIC_WEIGHT>
360.067698

> <PUBCHEM_TOTAL_CHARGE>
0

> <PUBCHEM_HEAVY_ATOM_COUNT>
25

> <PUBCHEM_ATOM_DEF_STEREO_COUNT>
0

> <PUBCHEM_ATOM_UDEF_STEREO_COUNT>
0

> <PUBCHEM_BOND_DEF_STEREO_COUNT>
1

> <PUBCHEM_BOND_UDEF_STEREO_COUNT>
0

> <PUBCHEM_ISOTOPIC_ATOM_COUNT>
0

> <PUBCHEM_COMPONENT_COUNT>
1

> <PUBCHEM_CACTVS_TAUTO_COUNT>
3

> <PUBCHEM_COORDINATE_TYPE>
1
5
255

> <PUBCHEM_BONDANNOTATIONS>
10  12  8
11  13  8
12  13  8
18  19  8
18  20  8
19  23  8
20  24  8
23  25  8
24  25  8
6  14  8
6  8  8
7  14  8
7  15  8
8  10  8
8  9  8
9  11  8
9  15  8

$$$$

