   Color/Form
        Colorless liquid
   from [1]HSDB

   Odor

     * FRESH, ORANGE-ROSE ODOR
     * Penetrating aromatic odor

   from [2]HSDB

   Taste
        OILY, SWEET, SLIGHTLY HERBACEOUS TASTE
   from [3]HSDB

   Boiling Point
        194-195 deg C
   from [4]HSDB

   Melting Point
        -16 to -17 deg C
   from [5]HSDB

   Critical Temperature and Pressure
        CRITICAL TEMP: 385.5 DEG C; CRITICAL PRESSURE: 26.5 ATM
   from [6]HSDB

   Density/Specific Gravity
        0.827 at 20 deg C/4 deg C
   from [7]HSDB

   Octanol/Water Partition Coefficient
        log Kow = 3.00
   from [8]HSDB

   Solubilities

     * Miscible in ethanol, ether; soluble in carbon tetrachloride
     * Miscible with chloroform, mineral oil; immiscible with glycerol
     * SOL IN PROPYLENE GLYCOL.
     * In water, 540 mg/L at 25 deg C

   from [9]HSDB

   Spectral Properties

     * SADTLER REFERENCE NUMBER: 161 (IR, PRISM); MAX ABSORPTION (VAPOR):
       197 NM
     * Index of refraction = 1.4230 at 20 deg C/D
     * IR: 15016 (Sadtler Research Laboratories IR Grating Collection)
     * 1H NMR: 6392 (Sadtler Research Laboratories Spectral Collection)
     * MASS: 20775 (NIST/EPA/MSDC Mass Spectral Database, 1990 version);
       605 (Atlas of Mass Spectral Data, John Wiley & Sons, New York)
     * Raman: 183 (Sadtler Research Laboratories Spectral Collection)

   from [10]HSDB

   Surface Tension
        27.53 DYNES/CM AT 20 DEG C (IN CONTACT WITH AIR)
   from [11]HSDB

   Vapor Density
        4.5 (AIR= 1)
   from [12]HSDB

   Vapor Pressure
        7.94X10-2 mm Hg at 25 deg C (est)
   from [13]HSDB

   Viscosity
        10.6 CP AT 15 DEG C
   from [14]HSDB

   Other Chemical/Physical Properties

     * PERCENT COMPOSITION IN AZEOTROPE: 87.0% 1-OCTANOL & 13% PHENOL; BP=
       195.4 DEG C
     * PERCENT COMPOSITION IN AZEOTROPE: 10% 1-OCTANOL & 90.0% WATER; BP=
       99.4 DEG C.
     * DIELECTRIC CONSTANT: 10.3 @ 20 DEG C
     * ISOTHERMAL COMPRESSIBILITY: 6.82 @ 1 ATM & 0 DEG C
     * Acid value: not more than 1
     * Henry's Law constant = 2.45X10-5 atm-cu m/mol at 25 deg C
     * Hydroxyl radical reaction rate constant = 1.44X10-11 cu
       cm/molec-sec at 25 deg C

   from [15]HSDB

   Computed Properties
   Molecular Weight                  130.22792 [g/mol]
   Molecular Formula                 C[8]H[18]O
   XLogP3                            3
   H-Bond Donor                      1
   H-Bond Acceptor                   1
   Rotatable Bond Count              6
   Exact Mass                        130.135765
   MonoIsotopic Mass                 130.135765
   Topological Polar Surface Area    20.2
   Heavy Atom Count                  9
   Formal Charge                     0
   Complexity                        43.8
   Isotope Atom Count                0
   Defined Atom Stereocenter Count   0
   Undefined Atom Stereocenter Count 0
   Defined Bond Stereocenter Count   0
   Undefined Bond Stereocenter Count 0
   Covalently-Bonded Unit Count      1
   Feature 3D Acceptor Count         1
   Feature 3D Donor Count            1
   Feature 3D Hydrophobe Count       3
   Effective Rotor Count             6
   Conformer Sampling RMSD           0.6
   CID Conformer Count               [16]171

References

   1. http://toxnet.nlm.nih.gov/cgi-bin/sis/search/r?dbs+hsdb:@term+@rn+@rel+111-87-5
   2. http://toxnet.nlm.nih.gov/cgi-bin/sis/search/r?dbs+hsdb:@term+@rn+@rel+111-87-5
   3. http://toxnet.nlm.nih.gov/cgi-bin/sis/search/r?dbs+hsdb:@term+@rn+@rel+111-87-5
   4. http://toxnet.nlm.nih.gov/cgi-bin/sis/search/r?dbs+hsdb:@term+@rn+@rel+111-87-5
   5. http://toxnet.nlm.nih.gov/cgi-bin/sis/search/r?dbs+hsdb:@term+@rn+@rel+111-87-5
   6. http://toxnet.nlm.nih.gov/cgi-bin/sis/search/r?dbs+hsdb:@term+@rn+@rel+111-87-5
   7. http://toxnet.nlm.nih.gov/cgi-bin/sis/search/r?dbs+hsdb:@term+@rn+@rel+111-87-5
   8. http://toxnet.nlm.nih.gov/cgi-bin/sis/search/r?dbs+hsdb:@term+@rn+@rel+111-87-5
   9. http://toxnet.nlm.nih.gov/cgi-bin/sis/search/r?dbs+hsdb:@term+@rn+@rel+111-87-5
  10. http://toxnet.nlm.nih.gov/cgi-bin/sis/search/r?dbs+hsdb:@term+@rn+@rel+111-87-5
  11. http://toxnet.nlm.nih.gov/cgi-bin/sis/search/r?dbs+hsdb:@term+@rn+@rel+111-87-5
  12. http://toxnet.nlm.nih.gov/cgi-bin/sis/search/r?dbs+hsdb:@term+@rn+@rel+111-87-5
  13. http://toxnet.nlm.nih.gov/cgi-bin/sis/search/r?dbs+hsdb:@term+@rn+@rel+111-87-5
  14. http://toxnet.nlm.nih.gov/cgi-bin/sis/search/r?dbs+hsdb:@term+@rn+@rel+111-87-5
  15. http://toxnet.nlm.nih.gov/cgi-bin/sis/search/r?dbs+hsdb:@term+@rn+@rel+111-87-5
  16. http://pubchem.ncbi.nlm.nih.gov/vw3d/vw3d.cgi?cid=957
