5281221
  -OEChem-07051212552D

 32 34  0     0  0  0  0  0  0999 V2000
    6.0812    0.0408    0.0000 O   0  0  0  0  0  0  0  0  0  0  0  0
    4.2690    2.8455    0.0000 O   0  0  0  0  0  0  0  0  0  0  0  0
    6.3919    2.6008    0.0000 O   0  0  0  0  0  0  0  0  0  0  0  0
    2.5369   -0.1545    0.0000 O   0  0  0  0  0  0  0  0  0  0  0  0
   10.6648   -0.8865    0.0000 O   0  0  0  0  0  0  0  0  0  0  0  0
    7.6648   -2.6186    0.0000 O   0  0  0  0  0  0  0  0  0  0  0  0
    9.6648   -2.6186    0.0000 O   0  0  0  0  0  0  0  0  0  0  0  0
    5.1350    1.3455    0.0000 C   0  0  0  0  0  0  0  0  0  0  0  0
    5.1350    0.3455    0.0000 C   0  0  0  0  0  0  0  0  0  0  0  0
    6.6648    0.8455    0.0000 C   0  0  0  0  0  0  0  0  0  0  0  0
    6.0812    1.6502    0.0000 C   0  0  0  0  0  0  0  0  0  0  0  0
    4.2690    1.8455    0.0000 C   0  0  0  0  0  0  0  0  0  0  0  0
    7.6648    0.8455    0.0000 C   0  0  0  0  0  0  0  0  0  0  0  0
    8.1648   -0.0205    0.0000 C   0  0  0  0  0  0  0  0  0  0  0  0
    4.2690   -0.1545    0.0000 C   0  0  0  0  0  0  0  0  0  0  0  0
    3.4030    1.3455    0.0000 C   0  0  0  0  0  0  0  0  0  0  0  0
    3.4030    0.3455    0.0000 C   0  0  0  0  0  0  0  0  0  0  0  0
    7.6648   -0.8865    0.0000 C   0  0  0  0  0  0  0  0  0  0  0  0
    9.1648   -0.0205    0.0000 C   0  0  0  0  0  0  0  0  0  0  0  0
    9.6648   -0.8865    0.0000 C   0  0  0  0  0  0  0  0  0  0  0  0
    8.1648   -1.7526    0.0000 C   0  0  0  0  0  0  0  0  0  0  0  0
    9.1648   -1.7526    0.0000 C   0  0  0  0  0  0  0  0  0  0  0  0
    7.9748    1.3824    0.0000 H   0  0  0  0  0  0  0  0  0  0  0  0
    4.2690   -0.7745    0.0000 H   0  0  0  0  0  0  0  0  0  0  0  0
    2.8660    1.6555    0.0000 H   0  0  0  0  0  0  0  0  0  0  0  0
    7.0448   -0.8865    0.0000 H   0  0  0  0  0  0  0  0  0  0  0  0
    9.4748    0.5164    0.0000 H   0  0  0  0  0  0  0  0  0  0  0  0
    3.7320    3.1555    0.0000 H   0  0  0  0  0  0  0  0  0  0  0  0
    2.0000    0.1555    0.0000 H   0  0  0  0  0  0  0  0  0  0  0  0
   10.9748   -0.3496    0.0000 H   0  0  0  0  0  0  0  0  0  0  0  0
    7.9748   -3.1555    0.0000 H   0  0  0  0  0  0  0  0  0  0  0  0
   10.2848   -2.6186    0.0000 H   0  0  0  0  0  0  0  0  0  0  0  0
  1  9  1  0  0  0  0
  1 10  1  0  0  0  0
  2 12  1  0  0  0  0
  2 28  1  0  0  0  0
  3 11  2  0  0  0  0
  4 17  1  0  0  0  0
  4 29  1  0  0  0  0
  5 20  1  0  0  0  0
  5 30  1  0  0  0  0
  6 21  1  0  0  0  0
  6 31  1  0  0  0  0
  7 22  1  0  0  0  0
  7 32  1  0  0  0  0
  8  9  1  0  0  0  0
  8 11  1  0  0  0  0
  8 12  2  0  0  0  0
  9 15  2  0  0  0  0
 10 11  1  0  0  0  0
 10 13  2  0  0  0  0
 12 16  1  0  0  0  0
 13 14  1  0  0  0  0
 13 23  1  0  0  0  0
 14 18  2  0  0  0  0
 14 19  1  0  0  0  0
 15 17  1  0  0  0  0
 15 24  1  0  0  0  0
 16 17  2  0  0  0  0
 16 25  1  0  0  0  0
 18 21  1  0  0  0  0
 18 26  1  0  0  0  0
 19 20  2  0  0  0  0
 19 27  1  0  0  0  0
 20 22  1  0  0  0  0
 21 22  2  0  0  0  0
M  END
> <PUBCHEM_COMPOUND_CID>
5281221

> <PUBCHEM_COMPOUND_CANONICALIZED>
1

> <PUBCHEM_CACTVS_COMPLEXITY>
465

> <PUBCHEM_CACTVS_HBOND_ACCEPTOR>
7

> <PUBCHEM_CACTVS_HBOND_DONOR>
5

> <PUBCHEM_CACTVS_ROTATABLE_BOND>
1

> <PUBCHEM_CACTVS_SUBSKEYS>
AAADccBwOAAAAAAAAAAAAAAAAAAAASAAAAAwYAAAAAAAAEgBQAAAGgAACAAADASAmAAwBoAABgCIAqBSAAICCAAkIAAAiAFGiMgNJzaGNR6CeWGl4BUJuYfI7LzOIAABCAAIQABAAAIQABCAAAAAAAAAAA==

> <PUBCHEM_IUPAC_OPENEYE_NAME>
(2Z)-4,6-dihydroxy-2-[(3,4,5-trihydroxyphenyl)methylene]benzofuran-3-one

> <PUBCHEM_IUPAC_CAS_NAME>
(2Z)-4,6-dihydroxy-2-[(3,4,5-trihydroxyphenyl)methylidene]-3-benzofuranone

> <PUBCHEM_IUPAC_NAME>
(2Z)-4,6-dihydroxy-2-[(3,4,5-trihydroxyphenyl)methylidene]-1-benzofuran-3-one

> <PUBCHEM_IUPAC_SYSTEMATIC_NAME>
(2Z)-4,6-bis(oxidanyl)-2-[[3,4,5-tris(oxidanyl)phenyl]methylidene]-1-benzofuran-3-one

> <PUBCHEM_IUPAC_TRADITIONAL_NAME>
(2Z)-4,6-dihydroxy-2-(3,4,5-trihydroxybenzylidene)coumaran-3-one

> <PUBCHEM_IUPAC_INCHI>
InChI=1S/C15H10O7/c16-7-4-8(17)13-11(5-7)22-12(15(13)21)3-6-1-9(18)14(20)10(19)2-6/h1-5,16-20H/b12-3-

> <PUBCHEM_IUPAC_INCHIKEY>
ACAAVKGSTVOIQB-BASWHVEKSA-N

> <PUBCHEM_XLOGP3_AA>
2.4

> <PUBCHEM_EXACT_MASS>
302.042653

> <PUBCHEM_MOLECULAR_FORMULA>
C15H10O7

> <PUBCHEM_MOLECULAR_WEIGHT>
302.2357

> <PUBCHEM_OPENEYE_CAN_SMILES>
C1=C(C=C(C(=C1O)O)O)C=C2C(=O)C3=C(C=C(C=C3O2)O)O

> <PUBCHEM_OPENEYE_ISO_SMILES>
C1=C(C=C(C(=C1O)O)O)/C=C\2/C(=O)C3=C(C=C(C=C3O2)O)O

> <PUBCHEM_CACTVS_TPSA>
127

> <PUBCHEM_MONOISOTOPIC_WEIGHT>
302.042653

> <PUBCHEM_TOTAL_CHARGE>
0

> <PUBCHEM_HEAVY_ATOM_COUNT>
22

> <PUBCHEM_ATOM_DEF_STEREO_COUNT>
0

> <PUBCHEM_ATOM_UDEF_STEREO_COUNT>
0

> <PUBCHEM_BOND_DEF_STEREO_COUNT>
1

> <PUBCHEM_BOND_UDEF_STEREO_COUNT>
0

> <PUBCHEM_ISOTOPIC_ATOM_COUNT>
0

> <PUBCHEM_COMPONENT_COUNT>
1

> <PUBCHEM_CACTVS_TAUTO_COUNT>
237

> <PUBCHEM_COORDINATE_TYPE>
1
5
255

> <PUBCHEM_BONDANNOTATIONS>
12  16  8
14  18  8
14  19  8
15  17  8
16  17  8
18  21  8
19  20  8
20  22  8
21  22  8
8  12  8
8  9  8
9  15  8

$$$$

