   Color/Form
        Nearly colorless gas [Note: Often used in an aqueous solution].
   /Pure formaldehyde/
   from [1]HSDB

   Odor
        Pungent, suffocating odor.
   from [2]HSDB

   Boiling Point
        -19.5 deg C
   from [3]HSDB

   Melting Point
        -92 deg C
   from [4]HSDB

   Corrosivity
        Aqueous formaldehyde is corrosive to carbon steel, but
   formaldehyde in gas phase is not.
   from [5]HSDB

   Critical Temperature and Pressure
        Critical temperature: 137.2-141.2 deg C; critical pressure:
   6.784-6.637 MPa (to convert MPa to atm, divide by 0.101)
   from [6]HSDB

   Density/Specific Gravity
        1.067 (Air= 1)
   from [7]HSDB

   Dissociation Constants
        pKa = 13.27 at 25 deg C
   from [8]HSDB

   Heat of Combustion
        570.7 kJ/mol (gas)
   from [9]HSDB

   Heat of Vaporization
        5,917.9 gcal/gmole (to convert to J/g mole, multiply by 4.184)
   from [10]HSDB

   Octanol/Water Partition Coefficient
        log Kow = 0.35
   from [11]HSDB

   pH
        pH: 2.8 to 4.0 /Formaldehyde soln/
   from [12]HSDB

   Solubilities

     * Soluble in alcohol, ether, acetone
     * SOL IN BENZENE
     * In water, 4.00X10+5 mg/L at 20 deg C

   from [13]HSDB

   Spectral Properties

     * MAX ABSORPTION (GAS): 155.5 NM (LOG E= 4.37); 175 NM (LOG E= 4.26)
     * Index of refraction: 1.3746 at 20 deg C/D /Formaldehyde soln/
     * IR: 2538 (Sadtler Research Laboratories Prism Collection)
     * UV: 3-1 (Organic Electronic Spectral Data, Phillips et al, John
       Wiley & Sons, New York)
     * MASS: 37883 (NIST/EPA/MSDC Mass Spectral database, 1990 version);
       74 (Atlas of Mass Spectral Data, John Wiley and Sons, NY)

   from [14]HSDB

   Vapor Pressure
        3,890 mm Hg at 25 deg C /100% formadlehyde/
   from [15]HSDB

   Other Chemical/Physical Properties

     * Clear, water-white, very slightly acid, gas or liquid.
     * Freezing point: -117 deg C /Formaldehyde, 37% uninhibited/
     * Formaldehyde solution is a clear, colorless or nearly colorless
       liquid having a pungent, irritating odor. /Formaldehyde soln/
     * Specified gravity: 0.816 g at 20/20 deg C /Formaldehyde, 37%
       uninhibited/
     * Vapor pressure: 1 mm Hg /Formalin/
     * In the presence of air and moisture, polymerization readily takes
       place in concentrated solutions at room temperatures to form
       paraformaldehyde, a solid mixture of linear polyoxymethylene
       glycols containing 90-99% formaldehyde.
     * Boiling point: - 19.1 deg C /Formaldehyde 37% uninhibited/
     * In the presence of air, formaldehyde is oxidized to formic acid.
     * Henry's Law constant = 3.37X10-7 atm-cu m/mol at 25 deg C
     * Hydroxyl radical reaction rate constant = 9.37X10-12 cu
       cm/molecule-sec at 25 deg C
     * Formaldehyde solution is a clear, colorless or nearly colorless
       liquid ... /37% by wt solution/

   from [16]HSDB

   Computed Properties
   Molecular Weight                  30.02598 [g/mol]
   Molecular Formula                 CH[2]O
   XLogP3-AA                         1.2
   H-Bond Donor                      0
   H-Bond Acceptor                   1
   Rotatable Bond Count              0
   Exact Mass                        30.010565
   MonoIsotopic Mass                 30.010565
   Topological Polar Surface Area    17.1
   Heavy Atom Count                  2
   Formal Charge                     0
   Complexity                        2
   Isotope Atom Count                0
   Defined Atom Stereocenter Count   0
   Undefined Atom Stereocenter Count 0
   Defined Bond Stereocenter Count   0
   Undefined Bond Stereocenter Count 0
   Covalently-Bonded Unit Count      1
   Feature 3D Acceptor Count         1
   Effective Rotor Count             0
   Conformer Sampling RMSD           0.4
   CID Conformer Count               [17]1

References

   1. http://toxnet.nlm.nih.gov/cgi-bin/sis/search/r?dbs+hsdb:@term+@rn+@rel+50-00-0
   2. http://toxnet.nlm.nih.gov/cgi-bin/sis/search/r?dbs+hsdb:@term+@rn+@rel+50-00-0
   3. http://toxnet.nlm.nih.gov/cgi-bin/sis/search/r?dbs+hsdb:@term+@rn+@rel+50-00-0
   4. http://toxnet.nlm.nih.gov/cgi-bin/sis/search/r?dbs+hsdb:@term+@rn+@rel+50-00-0
   5. http://toxnet.nlm.nih.gov/cgi-bin/sis/search/r?dbs+hsdb:@term+@rn+@rel+50-00-0
   6. http://toxnet.nlm.nih.gov/cgi-bin/sis/search/r?dbs+hsdb:@term+@rn+@rel+50-00-0
   7. http://toxnet.nlm.nih.gov/cgi-bin/sis/search/r?dbs+hsdb:@term+@rn+@rel+50-00-0
   8. http://toxnet.nlm.nih.gov/cgi-bin/sis/search/r?dbs+hsdb:@term+@rn+@rel+50-00-0
   9. http://toxnet.nlm.nih.gov/cgi-bin/sis/search/r?dbs+hsdb:@term+@rn+@rel+50-00-0
  10. http://toxnet.nlm.nih.gov/cgi-bin/sis/search/r?dbs+hsdb:@term+@rn+@rel+50-00-0
  11. http://toxnet.nlm.nih.gov/cgi-bin/sis/search/r?dbs+hsdb:@term+@rn+@rel+50-00-0
  12. http://toxnet.nlm.nih.gov/cgi-bin/sis/search/r?dbs+hsdb:@term+@rn+@rel+50-00-0
  13. http://toxnet.nlm.nih.gov/cgi-bin/sis/search/r?dbs+hsdb:@term+@rn+@rel+50-00-0
  14. http://toxnet.nlm.nih.gov/cgi-bin/sis/search/r?dbs+hsdb:@term+@rn+@rel+50-00-0
  15. http://toxnet.nlm.nih.gov/cgi-bin/sis/search/r?dbs+hsdb:@term+@rn+@rel+50-00-0
  16. http://toxnet.nlm.nih.gov/cgi-bin/sis/search/r?dbs+hsdb:@term+@rn+@rel+50-00-0
  17. http://pubchem.ncbi.nlm.nih.gov/vw3d/vw3d.cgi?cid=712
