   Color/Form
        Colorless liquid
   from [1]HSDB

   Boiling Point
        216.3 deg C
   from [2]HSDB

   Melting Point
        -9.6 deg C
   from [3]HSDB

   Critical Temperature and Pressure
        Critical temperature: 658 K; critical pressure: 1.82 MPa
   from [4]HSDB

   Density/Specific Gravity
        0.7495 g/cu cm
   from [5]HSDB

   Heat of Vaporization
        44.09 kJ/mol at boiling point; 61.52 kJ/mol at 25 deg C
   from [6]HSDB

   Octanol/Water Partition Coefficient
        log Kow = 6.10
   from [7]HSDB

   Solubilities

     * Very sol in ethyl alcohol, ethyl ether, acetone, chloroform, and
       carbon tetrachloride
     * In salt water, 0.005 mg/L at 20 deg C; in sea water, 0.0029 mg/L;
       in distilled water at 25 deg C, 0.0037 mg/L
     * In water, 3.7X10-3 mg/L at 25 deg C

   from [8]HSDB

   Spectral Properties

     * Index of refraction: 1.4216 at 20 deg C
     * SADTLER REF NUMBER: 7103 (IR, PRISM)
     * IR: 8492 (Sadtler Research Laboratories IR Grating Collection)
     * Raman: 364 (Sadtler Research Laboratories Spectral Collection)
     * 1H NMR: 3433 (Sadtler Research Laboratories Spectral Collection)
     * 13C NMR: 56 (Stothers, Carbon-13 NMR Spectroscopy, Academic Press,
       New York)
     * MASS: 36181 (NIST/EPA/MSDC Mass Spectral Database, 1990 version);
       1741 (Atlas of Mass Spectral Data, John Wiley & Sons, New York)

   from [9]HSDB

   Vapor Density
        5.9 (AIR= 1)
   from [10]HSDB

   Vapor Pressure
        0.135 mm Hg at 25 deg C
   from [11]HSDB

   Viscosity
        Less than 32 SUS (Saybolt Universal Seconds)
   from [12]HSDB

   Other Chemical/Physical Properties

     * Heat of fusion: 36.8 kJ/mol at melting point
     * Henry's Law constant = 8.18 atm-cu m/mol at 25 deg C (est)
     * Hydroxyl radical reaction rate constant = 1.42X10-11 cu
       cm/molecule-sec at 25 deg C

   from [13]HSDB

   Computed Properties
   Molecular Weight                  170.33484 [g/mol]
   Molecular Formula                 C[12]H[26]
   XLogP3                            6.1
   H-Bond Donor                      0
   H-Bond Acceptor                   0
   Rotatable Bond Count              9
   Exact Mass                        170.203451
   MonoIsotopic Mass                 170.203451
   Topological Polar Surface Area    0
   Heavy Atom Count                  12
   Formal Charge                     0
   Complexity                        56.4
   Isotope Atom Count                0
   Defined Atom Stereocenter Count   0
   Undefined Atom Stereocenter Count 0
   Defined Bond Stereocenter Count   0
   Undefined Bond Stereocenter Count 0
   Covalently-Bonded Unit Count      1
   Feature 3D Hydrophobe Count       2
   Effective Rotor Count             9
   Conformer Sampling RMSD           0.8
   CID Conformer Count               [14]214

References

   1. http://toxnet.nlm.nih.gov/cgi-bin/sis/search/r?dbs+hsdb:@term+@rn+@rel+112-40-3
   2. http://toxnet.nlm.nih.gov/cgi-bin/sis/search/r?dbs+hsdb:@term+@rn+@rel+112-40-3
   3. http://toxnet.nlm.nih.gov/cgi-bin/sis/search/r?dbs+hsdb:@term+@rn+@rel+112-40-3
   4. http://toxnet.nlm.nih.gov/cgi-bin/sis/search/r?dbs+hsdb:@term+@rn+@rel+112-40-3
   5. http://toxnet.nlm.nih.gov/cgi-bin/sis/search/r?dbs+hsdb:@term+@rn+@rel+112-40-3
   6. http://toxnet.nlm.nih.gov/cgi-bin/sis/search/r?dbs+hsdb:@term+@rn+@rel+112-40-3
   7. http://toxnet.nlm.nih.gov/cgi-bin/sis/search/r?dbs+hsdb:@term+@rn+@rel+112-40-3
   8. http://toxnet.nlm.nih.gov/cgi-bin/sis/search/r?dbs+hsdb:@term+@rn+@rel+112-40-3
   9. http://toxnet.nlm.nih.gov/cgi-bin/sis/search/r?dbs+hsdb:@term+@rn+@rel+112-40-3
  10. http://toxnet.nlm.nih.gov/cgi-bin/sis/search/r?dbs+hsdb:@term+@rn+@rel+112-40-3
  11. http://toxnet.nlm.nih.gov/cgi-bin/sis/search/r?dbs+hsdb:@term+@rn+@rel+112-40-3
  12. http://toxnet.nlm.nih.gov/cgi-bin/sis/search/r?dbs+hsdb:@term+@rn+@rel+112-40-3
  13. http://toxnet.nlm.nih.gov/cgi-bin/sis/search/r?dbs+hsdb:@term+@rn+@rel+112-40-3
  14. http://pubchem.ncbi.nlm.nih.gov/vw3d/vw3d.cgi?cid=8182
