24892815
  -OEChem-07051213092D

 39 39  0     1  0  0  0  0  0999 V2000
    2.8660    1.7035    0.0000 P   0  0  0  0  0  0  0  0  0  0  0  0
    5.4641    0.2035    0.0000 O   0  0  0  0  0  0  0  0  0  0  0  0
    7.1962    0.2035    0.0000 O   0  0  0  0  0  0  0  0  0  0  0  0
    3.7320   -1.7965    0.0000 O   0  0  0  0  0  0  0  0  0  0  0  0
    5.4641   -2.7965    0.0000 O   0  0  0  0  0  0  0  0  0  0  0  0
    7.1962   -1.7965    0.0000 O   0  0  0  0  0  0  0  0  0  0  0  0
    3.7320    1.2035    0.0000 O   0  0  0  0  0  0  0  0  0  0  0  0
    6.3301    2.7035    0.0000 O   0  0  0  0  0  0  0  0  0  0  0  0
    2.0000    2.2035    0.0000 O   0  0  0  0  0  0  0  0  0  0  0  0
    3.3660    2.5695    0.0000 O   0  0  0  0  0  0  0  0  0  0  0  0
    8.0622    2.7035    0.0000 O   0  0  0  0  0  0  0  0  0  0  0  0
    2.3660    0.8375    0.0000 O   0  0  0  0  0  0  0  0  0  0  0  0
    8.9282    1.2035    0.0000 O   0  0  0  0  0  0  0  0  0  0  0  0
    4.5981   -1.2965    0.0000 C   0  0  1  0  0  0  0  0  0  0  0  0
    5.4641   -1.7965    0.0000 C   0  0  1  0  0  0  0  0  0  0  0  0
    4.5981   -0.2965    0.0000 C   0  0  1  0  0  0  0  0  0  0  0  0
    6.3301   -1.2965    0.0000 C   0  0  1  0  0  0  0  0  0  0  0  0
    6.3301   -0.2965    0.0000 C   0  0  2  0  0  0  0  0  0  0  0  0
    3.7320    0.2035    0.0000 C   0  0  0  0  0  0  0  0  0  0  0  0
    7.1962    1.2035    0.0000 C   0  0  2  0  0  0  0  0  0  0  0  0
    6.3301    1.7035    0.0000 C   0  0  0  0  0  0  0  0  0  0  0  0
    8.0622    1.7035    0.0000 C   0  0  0  0  0  0  0  0  0  0  0  0
    4.5981   -1.9165    0.0000 H   0  0  0  0  0  0  0  0  0  0  0  0
    6.0010   -2.1065    0.0000 H   0  0  0  0  0  0  0  0  0  0  0  0
    4.5981    0.3235    0.0000 H   0  0  0  0  0  0  0  0  0  0  0  0
    6.8671   -0.9865    0.0000 H   0  0  0  0  0  0  0  0  0  0  0  0
    6.8671   -0.6065    0.0000 H   0  0  0  0  0  0  0  0  0  0  0  0
    3.1215    0.3112    0.0000 H   0  0  0  0  0  0  0  0  0  0  0  0
    3.5200   -0.3791    0.0000 H   0  0  0  0  0  0  0  0  0  0  0  0
    3.1951   -1.4865    0.0000 H   0  0  0  0  0  0  0  0  0  0  0  0
    4.9272   -3.1065    0.0000 H   0  0  0  0  0  0  0  0  0  0  0  0
    7.7331   -1.4865    0.0000 H   0  0  0  0  0  0  0  0  0  0  0  0
    6.6592    0.8935    0.0000 H   0  0  0  0  0  0  0  0  0  0  0  0
    5.7196    1.8112    0.0000 H   0  0  0  0  0  0  0  0  0  0  0  0
    6.1181    1.1209    0.0000 H   0  0  0  0  0  0  0  0  0  0  0  0
    5.7932    3.0135    0.0000 H   0  0  0  0  0  0  0  0  0  0  0  0
    3.0560    3.1065    0.0000 H   0  0  0  0  0  0  0  0  0  0  0  0
    2.0000    2.8235    0.0000 H   0  0  0  0  0  0  0  0  0  0  0  0
    8.5991    3.0135    0.0000 H   0  0  0  0  0  0  0  0  0  0  0  0
  1  7  1  0  0  0  0
  1  9  1  0  0  0  0
  1 10  1  0  0  0  0
  1 12  2  0  0  0  0
  2 16  1  0  0  0  0
  2 18  1  0  0  0  0
 18  3  1  6  0  0  0
 20  3  1  6  0  0  0
 14  4  1  6  0  0  0
  4 30  1  0  0  0  0
 15  5  1  1  0  0  0
  5 31  1  0  0  0  0
 17  6  1  1  0  0  0
  6 32  1  0  0  0  0
  7 19  1  0  0  0  0
  8 21  1  0  0  0  0
  8 36  1  0  0  0  0
  9 38  1  0  0  0  0
 10 37  1  0  0  0  0
 11 22  1  0  0  0  0
 11 39  1  0  0  0  0
 13 22  2  0  0  0  0
 14 15  1  0  0  0  0
 14 16  1  0  0  0  0
 14 23  1  0  0  0  0
 15 17  1  0  0  0  0
 15 24  1  0  0  0  0
 16 19  1  1  0  0  0
 16 25  1  0  0  0  0
 17 18  1  0  0  0  0
 17 26  1  0  0  0  0
 18 27  1  0  0  0  0
 19 28  1  0  0  0  0
 19 29  1  0  0  0  0
 20 21  1  0  0  0  0
 20 22  1  0  0  0  0
 20 33  1  0  0  0  0
 21 34  1  0  0  0  0
 21 35  1  0  0  0  0
M  END
> <PUBCHEM_COMPOUND_CID>
24892815

> <PUBCHEM_COMPOUND_CANONICALIZED>
1

> <PUBCHEM_CACTVS_COMPLEXITY>
423

> <PUBCHEM_CACTVS_HBOND_ACCEPTOR>
12

> <PUBCHEM_CACTVS_HBOND_DONOR>
7

> <PUBCHEM_CACTVS_ROTATABLE_BOND>
7

> <PUBCHEM_CACTVS_SUBSKEYS>
AAADceBwPAIAAAAAAAAAAAAAAAAAAAAAAAAkAAAAAAAAAAAAAAAAGgAACCAACBSwgAMACAAABxAIQACQCIIAAAAAAAAAAAFAAAAREAYAAAQiQAAFIAAHAAHAYAwAAAAAAAAAAAAAAAAAAAAAAAAAAAAAAA==

> <PUBCHEM_IUPAC_OPENEYE_NAME>
(2R)-3-hydroxy-2-[(2R,3S,4S,5S,6R)-3,4,5-trihydroxy-6-(phosphonooxymethyl)tetrahydropyran-2-yl]oxy-propanoic acid

> <PUBCHEM_IUPAC_CAS_NAME>
(2R)-3-hydroxy-2-[[(2R,3S,4S,5S,6R)-3,4,5-trihydroxy-6-(phosphonooxymethyl)-2-oxanyl]oxy]propanoic acid

> <PUBCHEM_IUPAC_NAME>
(2R)-3-hydroxy-2-[(2R,3S,4S,5S,6R)-3,4,5-trihydroxy-6-(phosphonooxymethyl)oxan-2-yl]oxypropanoic acid

> <PUBCHEM_IUPAC_SYSTEMATIC_NAME>
(2R)-3-oxidanyl-2-[(2R,3S,4S,5S,6R)-3,4,5-tris(oxidanyl)-6-(phosphonooxymethyl)oxan-2-yl]oxy-propanoic acid

> <PUBCHEM_IUPAC_TRADITIONAL_NAME>
(2R)-3-hydroxy-2-[(2R,3S,4S,5S,6R)-3,4,5-trihydroxy-6-(phosphonooxymethyl)tetrahydropyran-2-yl]oxy-propionic acid

> <PUBCHEM_IUPAC_INCHI>
InChI=1S/C9H17O12P/c10-1-3(8(14)15)20-9-7(13)6(12)5(11)4(21-9)2-19-22(16,17)18/h3-7,9-13H,1-2H2,(H,14,15)(H2,16,17,18)/t3-,4-,5-,6+,7+,9+/m1/s1

> <PUBCHEM_IUPAC_INCHIKEY>
BOLXAGHGKNGVBE-MTXRGOKVSA-N

> <PUBCHEM_XLOGP3_AA>
-4.8

> <PUBCHEM_EXACT_MASS>
348.045763

> <PUBCHEM_MOLECULAR_FORMULA>
C9H17O12P

> <PUBCHEM_MOLECULAR_WEIGHT>
348.197842

> <PUBCHEM_OPENEYE_CAN_SMILES>
C(C1C(C(C(C(O1)OC(CO)C(=O)O)O)O)O)OP(=O)(O)O

> <PUBCHEM_OPENEYE_ISO_SMILES>
C([C@@H]1[C@H]([C@@H]([C@@H]([C@H](O1)O[C@H](CO)C(=O)O)O)O)O)OP(=O)(O)O

> <PUBCHEM_CACTVS_TPSA>
203

> <PUBCHEM_MONOISOTOPIC_WEIGHT>
348.045763

> <PUBCHEM_TOTAL_CHARGE>
0

> <PUBCHEM_HEAVY_ATOM_COUNT>
22

> <PUBCHEM_ATOM_DEF_STEREO_COUNT>
6

> <PUBCHEM_ATOM_UDEF_STEREO_COUNT>
0

> <PUBCHEM_BOND_DEF_STEREO_COUNT>
0

> <PUBCHEM_BOND_UDEF_STEREO_COUNT>
0

> <PUBCHEM_ISOTOPIC_ATOM_COUNT>
0

> <PUBCHEM_COMPONENT_COUNT>
1

> <PUBCHEM_CACTVS_TAUTO_COUNT>
1

> <PUBCHEM_COORDINATE_TYPE>
1
5
255

> <PUBCHEM_BONDANNOTATIONS>
16  19  5
18  3  6
20  3  6
14  4  6
15  5  5
17  6  5

$$$$

