   Color/Form

     * Colorless crystals
     * Pale yellow liquid

   from [1]HSDB

   Melting Point
        45-47 deg C
   from [2]HSDB

   Density/Specific Gravity
        1.23 @ 20 deg C
   from [3]HSDB

   Solubilities
        In hexane 400, methanol 200, xylene 500 (all g/kg @ 20-25 deg C)
   from [4]HSDB

   Spectral Properties
        Index of refraction = 1.5823 for 20.5 deg C and sodium light
   from [5]HSDB

   Other Chemical/Physical Properties
        Solidifies upon standing to give crystals (with mp @ 49.7 deg C)
   from [6]HSDB

   Computed Properties
   Molecular Weight                  321.36976 [g/mol]
   Molecular Formula                 C[20]H[19]NO[3]
   XLogP3-AA                         4.8
   H-Bond Donor                      0
   H-Bond Acceptor                   4
   Rotatable Bond Count              7
   Exact Mass                        321.136493
   MonoIsotopic Mass                 321.136493
   Topological Polar Surface Area    40.6
   Heavy Atom Count                  24
   Formal Charge                     0
   Complexity                        338
   Isotope Atom Count                0
   Defined Atom Stereocenter Count   0
   Undefined Atom Stereocenter Count 1
   Defined Bond Stereocenter Count   0
   Undefined Bond Stereocenter Count 0
   Covalently-Bonded Unit Count      1
   Feature 3D Acceptor Count         4
   Feature 3D Ring Count             3
   Effective Rotor Count             7
   Conformer Sampling RMSD           1
   CID Conformer Count               [7]202

References

   1. http://toxnet.nlm.nih.gov/cgi-bin/sis/search/r?dbs+hsdb:@term+@rn+@rel+95737-68-1
   2. http://toxnet.nlm.nih.gov/cgi-bin/sis/search/r?dbs+hsdb:@term+@rn+@rel+95737-68-1
   3. http://toxnet.nlm.nih.gov/cgi-bin/sis/search/r?dbs+hsdb:@term+@rn+@rel+95737-68-1
   4. http://toxnet.nlm.nih.gov/cgi-bin/sis/search/r?dbs+hsdb:@term+@rn+@rel+95737-68-1
   5. http://toxnet.nlm.nih.gov/cgi-bin/sis/search/r?dbs+hsdb:@term+@rn+@rel+95737-68-1
   6. http://toxnet.nlm.nih.gov/cgi-bin/sis/search/r?dbs+hsdb:@term+@rn+@rel+95737-68-1
   7. http://pubchem.ncbi.nlm.nih.gov/vw3d/vw3d.cgi?cid=91753
