   Color/Form
        Colorless to faintly yellow crystalline powder
   from [1]HSDB

   Odor
        Odorless
   from [2]HSDB

   Boiling Point
        154 deg C at 0.02 mm Hg
   from [3]HSDB

   Melting Point
        177-178 deg C
   from [4]HSDB

   Solubilities
        Very slightly soluble in water and sparingly soluble in alcohol.
   from [5]HSDB

   Spectral Properties
        Intense mass spectral peaks: 84 m/z, 128 m/z, 179 m/z, 214 m/z,
   217 m/z.
   from [6]HSDB

   Other Chemical/Physical Properties
        154 deg C at 0.02 mm Hg (free base)
   from [7]HSDB

   Computed Properties
   Molecular Weight                  343.89024 [g/mol]
   Molecular Formula                 C[21]H[26]ClNO
   XLogP3-AA                         5
   H-Bond Donor                      0
   H-Bond Acceptor                   2
   Rotatable Bond Count              6
   Exact Mass                        343.170292
   MonoIsotopic Mass                 343.170292
   Topological Polar Surface Area    12.5
   Heavy Atom Count                  24
   Formal Charge                     0
   Complexity                        376
   Isotope Atom Count                0
   Defined Atom Stereocenter Count   1
   Undefined Atom Stereocenter Count 1
   Defined Bond Stereocenter Count   0
   Undefined Bond Stereocenter Count 0
   Covalently-Bonded Unit Count      1
   Feature 3D Acceptor Count         1
   Feature 3D Cation Count           1
   Feature 3D Ring Count             3
   Effective Rotor Count             7
   Conformer Sampling RMSD           0.8
   CID Conformer Count               [8]53

References

   1. http://toxnet.nlm.nih.gov/cgi-bin/sis/search/r?dbs+hsdb:@term+@rn+@rel+14976-57-9
   2. http://toxnet.nlm.nih.gov/cgi-bin/sis/search/r?dbs+hsdb:@term+@rn+@rel+14976-57-9
   3. http://toxnet.nlm.nih.gov/cgi-bin/sis/search/r?dbs+hsdb:@term+@rn+@rel+14976-57-9
   4. http://toxnet.nlm.nih.gov/cgi-bin/sis/search/r?dbs+hsdb:@term+@rn+@rel+14976-57-9
   5. http://toxnet.nlm.nih.gov/cgi-bin/sis/search/r?dbs+hsdb:@term+@rn+@rel+14976-57-9
   6. http://toxnet.nlm.nih.gov/cgi-bin/sis/search/r?dbs+hsdb:@term+@rn+@rel+14976-57-9
   7. http://toxnet.nlm.nih.gov/cgi-bin/sis/search/r?dbs+hsdb:@term+@rn+@rel+14976-57-9
   8. http://pubchem.ncbi.nlm.nih.gov/vw3d/vw3d.cgi?cid=6337863
