442893
  -OEChem-07051213002D

 40 43  0     0  0  0  0  0  0999 V2000
    2.5836    0.6953    0.0000 O   0  0  0  0  0  0  0  0  0  0  0  0
    2.5836    2.3047    0.0000 O   0  0  0  0  0  0  0  0  0  0  0  0
    8.7260   -2.0000    0.0000 O   0  0  0  0  0  0  0  0  0  0  0  0
    8.7260    1.0000    0.0000 N   0  0  0  0  0  0  0  0  0  0  0  0
    6.1279    0.5000    0.0000 C   0  0  0  0  0  0  0  0  0  0  0  0
    6.9939    1.0000    0.0000 C   0  0  0  0  0  0  0  0  0  0  0  0
    5.2619    1.0000    0.0000 C   0  0  0  0  0  0  0  0  0  0  0  0
    7.8600    0.5000    0.0000 C   0  0  0  0  0  0  0  0  0  0  0  0
    4.3958    0.5000    0.0000 C   0  0  0  0  0  0  0  0  0  0  0  0
    3.5298    1.0000    0.0000 C   0  0  0  0  0  0  0  0  0  0  0  0
    5.2619    2.0000    0.0000 C   0  0  0  0  0  0  0  0  0  0  0  0
    9.5920   -0.5000    0.0000 C   0  0  0  0  0  0  0  0  0  0  0  0
    7.8600   -0.5000    0.0000 C   0  0  0  0  0  0  0  0  0  0  0  0
    3.5298    2.0000    0.0000 C   0  0  0  0  0  0  0  0  0  0  0  0
    9.5920    0.5000    0.0000 C   0  0  0  0  0  0  0  0  0  0  0  0
    8.7260   -1.0000    0.0000 C   0  0  0  0  0  0  0  0  0  0  0  0
    4.3958    2.5000    0.0000 C   0  0  0  0  0  0  0  0  0  0  0  0
    2.0000    1.5000    0.0000 C   0  0  0  0  0  0  0  0  0  0  0  0
   10.4859   -1.0347    0.0000 C   0  0  0  0  0  0  0  0  0  0  0  0
   10.4859    1.0347    0.0000 C   0  0  0  0  0  0  0  0  0  0  0  0
   11.3920   -0.5208    0.0000 C   0  0  0  0  0  0  0  0  0  0  0  0
   11.3920    0.5208    0.0000 C   0  0  0  0  0  0  0  0  0  0  0  0
    7.8600   -2.5000    0.0000 C   0  0  0  0  0  0  0  0  0  0  0  0
    5.7294    0.0251    0.0000 H   0  0  0  0  0  0  0  0  0  0  0  0
    6.5264    0.0251    0.0000 H   0  0  0  0  0  0  0  0  0  0  0  0
    7.3925    1.4750    0.0000 H   0  0  0  0  0  0  0  0  0  0  0  0
    6.5954    1.4750    0.0000 H   0  0  0  0  0  0  0  0  0  0  0  0
    4.3958   -0.1200    0.0000 H   0  0  0  0  0  0  0  0  0  0  0  0
    5.7988    2.3100    0.0000 H   0  0  0  0  0  0  0  0  0  0  0  0
    7.3230   -0.8100    0.0000 H   0  0  0  0  0  0  0  0  0  0  0  0
    4.3958    3.1200    0.0000 H   0  0  0  0  0  0  0  0  0  0  0  0
    1.5391    1.9147    0.0000 H   0  0  0  0  0  0  0  0  0  0  0  0
    1.5391    1.0853    0.0000 H   0  0  0  0  0  0  0  0  0  0  0  0
   10.4788   -1.6546    0.0000 H   0  0  0  0  0  0  0  0  0  0  0  0
   10.4788    1.6546    0.0000 H   0  0  0  0  0  0  0  0  0  0  0  0
   11.9278   -0.8329    0.0000 H   0  0  0  0  0  0  0  0  0  0  0  0
   11.9278    0.8329    0.0000 H   0  0  0  0  0  0  0  0  0  0  0  0
    7.5500   -1.9631    0.0000 H   0  0  0  0  0  0  0  0  0  0  0  0
    7.3230   -2.8100    0.0000 H   0  0  0  0  0  0  0  0  0  0  0  0
    8.1700   -3.0369    0.0000 H   0  0  0  0  0  0  0  0  0  0  0  0
  1 10  1  0  0  0  0
  1 18  1  0  0  0  0
  2 14  1  0  0  0  0
  2 18  1  0  0  0  0
  3 16  1  0  0  0  0
  3 23  1  0  0  0  0
  4  8  2  0  0  0  0
  4 15  1  0  0  0  0
  5  6  1  0  0  0  0
  5  7  1  0  0  0  0
  5 24  1  0  0  0  0
  5 25  1  0  0  0  0
  6  8  1  0  0  0  0
  6 26  1  0  0  0  0
  6 27  1  0  0  0  0
  7  9  2  0  0  0  0
  7 11  1  0  0  0  0
  8 13  1  0  0  0  0
  9 10  1  0  0  0  0
  9 28  1  0  0  0  0
 10 14  2  0  0  0  0
 11 17  2  0  0  0  0
 11 29  1  0  0  0  0
 12 15  1  0  0  0  0
 12 16  1  0  0  0  0
 12 19  2  0  0  0  0
 13 16  2  0  0  0  0
 13 30  1  0  0  0  0
 14 17  1  0  0  0  0
 15 20  2  0  0  0  0
 17 31  1  0  0  0  0
 18 32  1  0  0  0  0
 18 33  1  0  0  0  0
 19 21  1  0  0  0  0
 19 34  1  0  0  0  0
 20 22  1  0  0  0  0
 20 35  1  0  0  0  0
 21 22  2  0  0  0  0
 21 36  1  0  0  0  0
 22 37  1  0  0  0  0
 23 38  1  0  0  0  0
 23 39  1  0  0  0  0
 23 40  1  0  0  0  0
M  END
> <PUBCHEM_COMPOUND_CID>
442893

> <PUBCHEM_COMPOUND_CANONICALIZED>
1

> <PUBCHEM_CACTVS_COMPLEXITY>
391

> <PUBCHEM_CACTVS_HBOND_ACCEPTOR>
4

> <PUBCHEM_CACTVS_HBOND_DONOR>
0

> <PUBCHEM_CACTVS_ROTATABLE_BOND>
4

> <PUBCHEM_CACTVS_SUBSKEYS>
AAADceB6MAAAAAAAAAAAAAAAAAAAASAAAAA8YIAAAAAAAEix9AAAHgAAAAAADAyBngMyzvIIFACgAyRiRACCiCAhIiAImCA27JgdJuLEsZukMCpmwBnO6AeQwPAOIAABAAACQABAAAIAAASAAAAAAAAAAA==

> <PUBCHEM_IUPAC_OPENEYE_NAME>
2-[2-(1,3-benzodioxol-5-yl)ethyl]-4-methoxy-quinoline

> <PUBCHEM_IUPAC_CAS_NAME>
2-[2-(1,3-benzodioxol-5-yl)ethyl]-4-methoxyquinoline

> <PUBCHEM_IUPAC_NAME>
2-[2-(1,3-benzodioxol-5-yl)ethyl]-4-methoxyquinoline

> <PUBCHEM_IUPAC_SYSTEMATIC_NAME>
2-[2-(1,3-benzodioxol-5-yl)ethyl]-4-methoxy-quinoline

> <PUBCHEM_IUPAC_TRADITIONAL_NAME>
2-homopiperonyl-4-methoxy-quinoline

> <PUBCHEM_IUPAC_INCHI>
InChI=1S/C19H17NO3/c1-21-18-11-14(20-16-5-3-2-4-15(16)18)8-6-13-7-9-17-19(10-13)23-12-22-17/h2-5,7,9-11H,6,8,12H2,1H3

> <PUBCHEM_IUPAC_INCHIKEY>
RIXOVHWIYRZQDC-UHFFFAOYSA-N

> <PUBCHEM_XLOGP3_AA>
4.2

> <PUBCHEM_EXACT_MASS>
307.120843

> <PUBCHEM_MOLECULAR_FORMULA>
C19H17NO3

> <PUBCHEM_MOLECULAR_WEIGHT>
307.34318

> <PUBCHEM_OPENEYE_CAN_SMILES>
COC1=CC(=NC2=CC=CC=C21)CCC3=CC4=C(C=C3)OCO4

> <PUBCHEM_OPENEYE_ISO_SMILES>
COC1=CC(=NC2=CC=CC=C21)CCC3=CC4=C(C=C3)OCO4

> <PUBCHEM_CACTVS_TPSA>
40.6

> <PUBCHEM_MONOISOTOPIC_WEIGHT>
307.120843

> <PUBCHEM_TOTAL_CHARGE>
0

> <PUBCHEM_HEAVY_ATOM_COUNT>
23

> <PUBCHEM_ATOM_DEF_STEREO_COUNT>
0

> <PUBCHEM_ATOM_UDEF_STEREO_COUNT>
0

> <PUBCHEM_BOND_DEF_STEREO_COUNT>
0

> <PUBCHEM_BOND_UDEF_STEREO_COUNT>
0

> <PUBCHEM_ISOTOPIC_ATOM_COUNT>
0

> <PUBCHEM_COMPONENT_COUNT>
1

> <PUBCHEM_CACTVS_TAUTO_COUNT>
2

> <PUBCHEM_COORDINATE_TYPE>
1
5
255

> <PUBCHEM_BONDANNOTATIONS>
10  14  8
11  17  8
12  15  8
12  16  8
12  19  8
13  16  8
14  17  8
15  20  8
19  21  8
20  22  8
21  22  8
4  15  8
4  8  8
7  11  8
7  9  8
8  13  8
9  10  8

$$$$

