9802
  -OEChem-06261204042D

 37 39  0     0  0  0  0  0  0999 V2000
   14.2627    0.0729    0.0000 F   0  0  0  0  0  0  0  0  0  0  0  0
   13.4971   -1.1161    0.0000 F   0  0  0  0  0  0  0  0  0  0  0  0
   13.0737    0.8386    0.0000 F   0  0  0  0  0  0  0  0  0  0  0  0
    2.0000    0.0729    0.0000 F   0  0  0  0  0  0  0  0  0  0  0  0
    2.7657   -1.1161    0.0000 F   0  0  0  0  0  0  0  0  0  0  0  0
    3.1890    0.8386    0.0000 F   0  0  0  0  0  0  0  0  0  0  0  0
   12.0027   -1.3027    0.0000 O   0  0  0  0  0  0  0  0  0  0  0  0
    4.2600   -1.3027    0.0000 O   0  0  0  0  0  0  0  0  0  0  0  0
    4.6267    0.3901    0.0000 N   0  0  0  0  0  0  0  0  0  0  0  0
   11.6361    0.3901    0.0000 N   0  0  0  0  0  0  0  0  0  0  0  0
    8.1314    1.3027    0.0000 C   0  0  0  0  0  0  0  0  0  0  0  0
    8.9404    0.7149    0.0000 C   0  0  0  0  0  0  0  0  0  0  0  0
    7.3224    0.7149    0.0000 C   0  0  0  0  0  0  0  0  0  0  0  0
    8.6314   -0.2362    0.0000 C   0  0  0  0  0  0  0  0  0  0  0  0
    7.6314   -0.2362    0.0000 C   0  0  0  0  0  0  0  0  0  0  0  0
    9.9558    0.9471    0.0000 C   0  0  0  0  0  0  0  0  0  0  0  0
    6.3069    0.9471    0.0000 C   0  0  0  0  0  0  0  0  0  0  0  0
    9.3163   -1.0209    0.0000 C   0  0  0  0  0  0  0  0  0  0  0  0
    6.9464   -1.0209    0.0000 C   0  0  0  0  0  0  0  0  0  0  0  0
   10.6587    0.1784    0.0000 C   0  0  0  0  0  0  0  0  0  0  0  0
    5.6040    0.1784    0.0000 C   0  0  0  0  0  0  0  0  0  0  0  0
   10.3368   -0.8122    0.0000 C   0  0  0  0  0  0  0  0  0  0  0  0
    5.9259   -0.8122    0.0000 C   0  0  0  0  0  0  0  0  0  0  0  0
   12.3081   -0.3504    0.0000 C   0  0  0  0  0  0  0  0  0  0  0  0
    3.9547   -0.3504    0.0000 C   0  0  0  0  0  0  0  0  0  0  0  0
   13.2854   -0.1388    0.0000 C   0  0  0  0  0  0  0  0  0  0  0  0
    2.9773   -0.1388    0.0000 C   0  0  0  0  0  0  0  0  0  0  0  0
    8.5462    1.7634    0.0000 H   0  0  0  0  0  0  0  0  0  0  0  0
    7.7165    1.7634    0.0000 H   0  0  0  0  0  0  0  0  0  0  0  0
   10.1406    1.5390    0.0000 H   0  0  0  0  0  0  0  0  0  0  0  0
    6.1222    1.5390    0.0000 H   0  0  0  0  0  0  0  0  0  0  0  0
    9.1179   -1.6083    0.0000 H   0  0  0  0  0  0  0  0  0  0  0  0
    7.1448   -1.6083    0.0000 H   0  0  0  0  0  0  0  0  0  0  0  0
   10.7499   -1.2746    0.0000 H   0  0  0  0  0  0  0  0  0  0  0  0
    5.5128   -1.2746    0.0000 H   0  0  0  0  0  0  0  0  0  0  0  0
    4.4374    0.9805    0.0000 H   0  0  0  0  0  0  0  0  0  0  0  0
   11.8254    0.9805    0.0000 H   0  0  0  0  0  0  0  0  0  0  0  0
  1 26  1  0  0  0  0
  2 26  1  0  0  0  0
  3 26  1  0  0  0  0
  4 27  1  0  0  0  0
  5 27  1  0  0  0  0
  6 27  1  0  0  0  0
  7 24  2  0  0  0  0
  8 25  2  0  0  0  0
  9 21  1  0  0  0  0
  9 25  1  0  0  0  0
  9 36  1  0  0  0  0
 10 20  1  0  0  0  0
 10 24  1  0  0  0  0
 10 37  1  0  0  0  0
 11 12  1  0  0  0  0
 11 13  1  0  0  0  0
 11 28  1  0  0  0  0
 11 29  1  0  0  0  0
 12 14  2  0  0  0  0
 12 16  1  0  0  0  0
 13 15  2  0  0  0  0
 13 17  1  0  0  0  0
 14 15  1  0  0  0  0
 14 18  1  0  0  0  0
 15 19  1  0  0  0  0
 16 20  2  0  0  0  0
 16 30  1  0  0  0  0
 17 21  2  0  0  0  0
 17 31  1  0  0  0  0
 18 22  2  0  0  0  0
 18 32  1  0  0  0  0
 19 23  2  0  0  0  0
 19 33  1  0  0  0  0
 20 22  1  0  0  0  0
 21 23  1  0  0  0  0
 22 34  1  0  0  0  0
 23 35  1  0  0  0  0
 24 26  1  0  0  0  0
 25 27  1  0  0  0  0
M  END
> <PUBCHEM_COMPOUND_CID>
9802

> <PUBCHEM_COMPOUND_CANONICALIZED>
1

> <PUBCHEM_CACTVS_COMPLEXITY>
541

> <PUBCHEM_CACTVS_HBOND_ACCEPTOR>
8

> <PUBCHEM_CACTVS_HBOND_DONOR>
2

> <PUBCHEM_CACTVS_ROTATABLE_BOND>
2

> <PUBCHEM_CACTVS_SUBSKEYS>
AAADccB7McAAAAAAAAAAAAAAAAAAAYAAAAAwYAAAAAAAAGABQAAAHwAQAAAADAiBmBAwwILAAACIAiVSUACCAAAhAgAIiAAAZIgIICLAkZGEIAhglADIyAcQgMAOiAAAQAAQAAAQAACAACAAAQAACAAAAA==

> <PUBCHEM_IUPAC_OPENEYE_NAME>
2,2,2-trifluoro-N-[7-[(2,2,2-trifluoroacetyl)amino]-9H-fluoren-2-yl]acetamide

> <PUBCHEM_IUPAC_CAS_NAME>
2,2,2-trifluoro-N-[7-[(2,2,2-trifluoro-1-oxoethyl)amino]-9H-fluoren-2-yl]acetamide

> <PUBCHEM_IUPAC_NAME>
2,2,2-trifluoro-N-[7-[(2,2,2-trifluoroacetyl)amino]-9H-fluoren-2-yl]acetamide

> <PUBCHEM_IUPAC_SYSTEMATIC_NAME>
2,2,2-tris(fluoranyl)-N-[7-[2,2,2-tris(fluoranyl)ethanoylamino]-9H-fluoren-2-yl]ethanamide

> <PUBCHEM_IUPAC_TRADITIONAL_NAME>
2,2,2-trifluoro-N-[7-[(2,2,2-trifluoroacetyl)amino]-9H-fluoren-2-yl]acetamide

> <PUBCHEM_IUPAC_INCHI>
InChI=1S/C17H10F6N2O2/c18-16(19,20)14(26)24-10-1-3-12-8(6-10)5-9-7-11(2-4-13(9)12)25-15(27)17(21,22)23/h1-4,6-7H,5H2,(H,24,26)(H,25,27)

> <PUBCHEM_IUPAC_INCHIKEY>
LUYZKFBCCKSBKV-UHFFFAOYSA-N

> <PUBCHEM_XLOGP3>
4.7

> <PUBCHEM_EXACT_MASS>
388.064647

> <PUBCHEM_MOLECULAR_FORMULA>
C17H10F6N2O2

> <PUBCHEM_MOLECULAR_WEIGHT>
388.263919

> <PUBCHEM_OPENEYE_CAN_SMILES>
C1C2=C(C=CC(=C2)NC(=O)C(F)(F)F)C3=C1C=C(C=C3)NC(=O)C(F)(F)F

> <PUBCHEM_OPENEYE_ISO_SMILES>
C1C2=C(C=CC(=C2)NC(=O)C(F)(F)F)C3=C1C=C(C=C3)NC(=O)C(F)(F)F

> <PUBCHEM_CACTVS_TPSA>
58.2

> <PUBCHEM_MONOISOTOPIC_WEIGHT>
388.064647

> <PUBCHEM_TOTAL_CHARGE>
0

> <PUBCHEM_HEAVY_ATOM_COUNT>
27

> <PUBCHEM_ATOM_DEF_STEREO_COUNT>
0

> <PUBCHEM_ATOM_UDEF_STEREO_COUNT>
0

> <PUBCHEM_BOND_DEF_STEREO_COUNT>
0

> <PUBCHEM_BOND_UDEF_STEREO_COUNT>
0

> <PUBCHEM_ISOTOPIC_ATOM_COUNT>
0

> <PUBCHEM_COMPONENT_COUNT>
1

> <PUBCHEM_CACTVS_TAUTO_COUNT>
3

> <PUBCHEM_COORDINATE_TYPE>
1
5
255

> <PUBCHEM_BONDANNOTATIONS>
12  14  8
12  16  8
13  15  8
13  17  8
14  18  8
15  19  8
16  20  8
17  21  8
18  22  8
19  23  8
20  22  8
21  23  8

$$$$

