9548599
  -OEChem-07051212502D

 62 64  0     1  0  0  0  0  0999 V2000
    6.8909   -4.6938    0.0000 P   0  0  0  0  0  0  0  0  0  0  0  0
   10.5941    4.3331    0.0000 P   0  0  0  0  0  0  0  0  0  0  0  0
    5.0298   -2.2293    0.0000 O   0  0  0  0  0  0  0  0  0  0  0  0
    8.3137    1.6611    0.0000 O   0  0  0  0  0  0  0  0  0  0  0  0
    2.4608   -1.9202    0.0000 O   0  0  0  0  0  0  0  0  0  0  0  0
    3.1330   -3.9893    0.0000 O   0  0  0  0  0  0  0  0  0  0  0  0
    6.3031   -3.8848    0.0000 O   0  0  0  0  0  0  0  0  0  0  0  0
   10.8909    1.4292    0.0000 O   0  0  0  0  0  0  0  0  0  0  0  0
    9.8031   -0.4549    0.0000 O   0  0  0  0  0  0  0  0  0  0  0  0
   10.3862    3.3550    0.0000 O   0  0  0  0  0  0  0  0  0  0  0  0
    7.4787   -5.5028    0.0000 O   0  0  0  0  0  0  0  0  0  0  0  0
    7.6999   -4.1060    0.0000 O   0  0  0  0  0  0  0  0  0  0  0  0
    6.0819   -5.2816    0.0000 O   0  0  0  0  0  0  0  0  0  0  0  0
    6.3031    1.6018    0.0000 O   0  0  0  0  0  0  0  0  0  0  0  0
   10.8021    5.3112    0.0000 O   0  0  0  0  0  0  0  0  0  0  0  0
   11.5723    4.1252    0.0000 O   0  0  0  0  0  0  0  0  0  0  0  0
    9.6160    4.5410    0.0000 O   0  0  0  0  0  0  0  0  0  0  0  0
    4.2208   -0.6415    0.0000 N   0  0  0  0  0  0  0  0  0  0  0  0
    7.6751   -0.0026    0.0000 N   0  0  0  0  0  0  0  0  0  0  0  0
    5.9809   -0.3627    0.0000 N   0  0  0  0  0  0  0  0  0  0  0  0
    3.7208    0.8974    0.0000 N   0  0  0  0  0  0  0  0  0  0  0  0
    4.9019    2.6199    0.0000 N   0  0  0  0  0  0  0  0  0  0  0  0
    3.4118   -2.2293    0.0000 C   0  0  1  0  0  0  0  0  0  0  0  0
    4.2208   -1.6415    0.0000 C   0  0  1  0  0  0  0  0  0  0  0  0
    3.7208   -3.1803    0.0000 C   0  0  1  0  0  0  0  0  0  0  0  0
    4.7208   -3.1803    0.0000 C   0  0  1  0  0  0  0  0  0  0  0  0
    9.8964    1.3247    0.0000 C   0  0  2  0  0  0  0  0  0  0  0  0
    9.2273    2.0678    0.0000 C   0  0  1  0  0  0  0  0  0  0  0  0
    9.3964    0.4586    0.0000 C   0  0  2  0  0  0  0  0  0  0  0  0
    5.3086   -3.9893    0.0000 C   0  0  0  0  0  0  0  0  0  0  0  0
    8.4182    0.6665    0.0000 C   0  0  1  0  0  0  0  0  0  0  0  0
    5.0298   -0.0537    0.0000 C   0  0  0  0  0  0  0  0  0  0  0  0
    9.4352    3.0459    0.0000 C   0  0  0  0  0  0  0  0  0  0  0  0
    3.4118   -0.0537    0.0000 C   0  0  0  0  0  0  0  0  0  0  0  0
    4.7208    0.8974    0.0000 C   0  0  0  0  0  0  0  0  0  0  0  0
    6.7240    0.3064    0.0000 C   0  0  0  0  0  0  0  0  0  0  0  0
    5.3086    1.7064    0.0000 C   0  0  0  0  0  0  0  0  0  0  0  0
    3.3148   -1.6169    0.0000 H   0  0  0  0  0  0  0  0  0  0  0  0
    3.6684   -1.3600    0.0000 H   0  0  0  0  0  0  0  0  0  0  0  0
    4.0023   -3.7327    0.0000 H   0  0  0  0  0  0  0  0  0  0  0  0
    5.3332   -3.0833    0.0000 H   0  0  0  0  0  0  0  0  0  0  0  0
   10.1186    1.9035    0.0000 H   0  0  0  0  0  0  0  0  0  0  0  0
    8.7454    2.4580    0.0000 H   0  0  0  0  0  0  0  0  0  0  0  0
   10.0155    0.4262    0.0000 H   0  0  0  0  0  0  0  0  0  0  0  0
    4.7514   -4.2611    0.0000 H   0  0  0  0  0  0  0  0  0  0  0  0
    5.4795   -4.5853    0.0000 H   0  0  0  0  0  0  0  0  0  0  0  0
    8.5787    0.0677    0.0000 H   0  0  0  0  0  0  0  0  0  0  0  0
    9.3489    3.6599    0.0000 H   0  0  0  0  0  0  0  0  0  0  0  0
    8.8156    3.0676    0.0000 H   0  0  0  0  0  0  0  0  0  0  0  0
    2.0000   -2.3351    0.0000 H   0  0  0  0  0  0  0  0  0  0  0  0
    3.3852   -4.5557    0.0000 H   0  0  0  0  0  0  0  0  0  0  0  0
    2.8222   -0.2453    0.0000 H   0  0  0  0  0  0  0  0  0  0  0  0
    6.1098   -0.9692    0.0000 H   0  0  0  0  0  0  0  0  0  0  0  0
   11.2553    0.9276    0.0000 H   0  0  0  0  0  0  0  0  0  0  0  0
   10.4197   -0.5197    0.0000 H   0  0  0  0  0  0  0  0  0  0  0  0
    6.5951    0.9129    0.0000 H   0  0  0  0  0  0  0  0  0  0  0  0
    5.2663    3.1215    0.0000 H   0  0  0  0  0  0  0  0  0  0  0  0
    4.2853    2.6847    0.0000 H   0  0  0  0  0  0  0  0  0  0  0  0
    8.0953   -5.4380    0.0000 H   0  0  0  0  0  0  0  0  0  0  0  0
    8.2663   -4.3582    0.0000 H   0  0  0  0  0  0  0  0  0  0  0  0
   11.3917    5.5028    0.0000 H   0  0  0  0  0  0  0  0  0  0  0  0
   11.9871    4.5859    0.0000 H   0  0  0  0  0  0  0  0  0  0  0  0
  1  7  1  0  0  0  0
  1 11  1  0  0  0  0
  1 12  1  0  0  0  0
  1 13  2  0  0  0  0
  2 10  1  0  0  0  0
  2 15  1  0  0  0  0
  2 16  1  0  0  0  0
  2 17  2  0  0  0  0
  3 24  1  0  0  0  0
  3 26  1  0  0  0  0
  4 28  1  0  0  0  0
  4 31  1  0  0  0  0
 23  5  1  1  0  0  0
  5 50  1  0  0  0  0
 25  6  1  1  0  0  0
  6 51  1  0  0  0  0
  7 30  1  0  0  0  0
 27  8  1  1  0  0  0
  8 54  1  0  0  0  0
 29  9  1  1  0  0  0
  9 55  1  0  0  0  0
 10 33  1  0  0  0  0
 11 59  1  0  0  0  0
 12 60  1  0  0  0  0
 14 37  2  0  0  0  0
 15 61  1  0  0  0  0
 16 62  1  0  0  0  0
 24 18  1  6  0  0  0
 18 32  1  0  0  0  0
 18 34  1  0  0  0  0
 31 19  1  6  0  0  0
 19 36  2  0  0  0  0
 20 32  1  0  0  0  0
 20 36  1  0  0  0  0
 20 53  1  0  0  0  0
 21 34  2  0  0  0  0
 21 35  1  0  0  0  0
 22 37  1  0  0  0  0
 22 57  1  0  0  0  0
 22 58  1  0  0  0  0
 23 24  1  0  0  0  0
 23 25  1  0  0  0  0
 23 38  1  0  0  0  0
 24 39  1  0  0  0  0
 25 26  1  0  0  0  0
 25 40  1  0  0  0  0
 26 30  1  6  0  0  0
 26 41  1  0  0  0  0
 27 28  1  0  0  0  0
 27 29  1  0  0  0  0
 27 42  1  0  0  0  0
 28 33  1  6  0  0  0
 28 43  1  0  0  0  0
 29 31  1  0  0  0  0
 29 44  1  0  0  0  0
 30 45  1  0  0  0  0
 30 46  1  0  0  0  0
 31 47  1  0  0  0  0
 32 35  2  0  0  0  0
 33 48  1  0  0  0  0
 33 49  1  0  0  0  0
 34 52  1  0  0  0  0
 35 37  1  0  0  0  0
 36 56  1  0  0  0  0
M  END
> <PUBCHEM_COMPOUND_CID>
9548599

> <PUBCHEM_COMPOUND_CANONICALIZED>
1

> <PUBCHEM_CACTVS_COMPLEXITY>
934

> <PUBCHEM_CACTVS_HBOND_ACCEPTOR>
17

> <PUBCHEM_CACTVS_HBOND_DONOR>
10

> <PUBCHEM_CACTVS_ROTATABLE_BOND>
11

> <PUBCHEM_CACTVS_SUBSKEYS>
AAADceBzvAMAAAAAAAAAAAAAAAAAAWJEgAAAAAAAAAAAAAABgAAAHgAQCCAACBzhlgYFsBfMFxCoQQdxdICAgC0XEKABUIGoVECDWApAyCAeQIAPAALTAGDwMAIAAAAAAAAAAAAAAAAAAAAAAAAAAAAAAA==

> <PUBCHEM_IUPAC_OPENEYE_NAME>
[(2R,3S,4R,5R)-5-[(E)-[[5-carbamoyl-3-[(2R,3R,4S,5R)-3,4-dihydroxy-5-(phosphonooxymethyl)tetrahydrofuran-2-yl]imidazol-4-yl]amino]methyleneamino]-3,4-dihydroxy-tetrahydrofuran-2-yl]methyl dihydrogen phosphate

> <PUBCHEM_IUPAC_CAS_NAME>
[(2R,3S,4R,5R)-5-[(E)-[[5-carbamoyl-3-[(2R,3R,4S,5R)-3,4-dihydroxy-5-(phosphonooxymethyl)-2-oxolanyl]-4-imidazolyl]amino]methylideneamino]-3,4-dihydroxy-2-oxolanyl]methyl dihydrogen phosphate

> <PUBCHEM_IUPAC_NAME>
[(2R,3S,4R,5R)-5-[(E)-[[5-carbamoyl-3-[(2R,3R,4S,5R)-3,4-dihydroxy-5-(phosphonooxymethyl)oxolan-2-yl]imidazol-4-yl]amino]methylideneamino]-3,4-dihydroxyoxolan-2-yl]methyl dihydrogen phosphate

> <PUBCHEM_IUPAC_SYSTEMATIC_NAME>
[(2R,3S,4R,5R)-5-[(E)-[[5-aminocarbonyl-3-[(2R,3R,4S,5R)-3,4-bis(oxidanyl)-5-(phosphonooxymethyl)oxolan-2-yl]imidazol-4-yl]amino]methylideneamino]-3,4-bis(oxidanyl)oxolan-2-yl]methyl dihydrogen phosphate

> <PUBCHEM_IUPAC_TRADITIONAL_NAME>
[(2R,3S,4R,5R)-5-[(E)-[[5-carbamoyl-3-[(2R,3R,4S,5R)-3,4-dihydroxy-5-(phosphonooxymethyl)tetrahydrofuran-2-yl]imidazol-4-yl]amino]methyleneamino]-3,4-dihydroxy-tetrahydrofuran-2-yl]methyl dihydrogen phosphate

> <PUBCHEM_IUPAC_INCHI>
InChI=1S/C15H25N5O15P2/c16-12(25)7-13(17-3-18-14-10(23)8(21)5(34-14)1-32-36(26,27)28)20(4-19-7)15-11(24)9(22)6(35-15)2-33-37(29,30)31/h3-6,8-11,14-15,21-24H,1-2H2,(H2,16,25)(H,17,18)(H2,26,27,28)(H2,29,30,31)/t5-,6-,8-,9-,10-,11-,14-,15-/m1/s1

> <PUBCHEM_IUPAC_INCHIKEY>
QOUSHGMTBIIAHR-KEOHHSTQSA-N

> <PUBCHEM_XLOGP3_AA>
-7

> <PUBCHEM_EXACT_MASS>
577.082238

> <PUBCHEM_MOLECULAR_FORMULA>
C15H25N5O15P2

> <PUBCHEM_MOLECULAR_WEIGHT>
577.331024

> <PUBCHEM_OPENEYE_CAN_SMILES>
C1=NC(=C(N1C2C(C(C(O2)COP(=O)(O)O)O)O)NC=NC3C(C(C(O3)COP(=O)(O)O)O)O)C(=O)N

> <PUBCHEM_OPENEYE_ISO_SMILES>
C1=NC(=C(N1[C@H]2[C@@H]([C@@H]([C@H](O2)COP(=O)(O)O)O)O)N/C=N/[C@H]3[C@@H]([C@@H]([C@H](O3)COP(=O)(O)O)O)O)C(=O)N

> <PUBCHEM_CACTVS_TPSA>
318

> <PUBCHEM_MONOISOTOPIC_WEIGHT>
577.082238

> <PUBCHEM_TOTAL_CHARGE>
0

> <PUBCHEM_HEAVY_ATOM_COUNT>
37

> <PUBCHEM_ATOM_DEF_STEREO_COUNT>
8

> <PUBCHEM_ATOM_UDEF_STEREO_COUNT>
0

> <PUBCHEM_BOND_DEF_STEREO_COUNT>
1

> <PUBCHEM_BOND_UDEF_STEREO_COUNT>
0

> <PUBCHEM_ISOTOPIC_ATOM_COUNT>
0

> <PUBCHEM_COMPONENT_COUNT>
1

> <PUBCHEM_CACTVS_TAUTO_COUNT>
7

> <PUBCHEM_COORDINATE_TYPE>
1
5
255

> <PUBCHEM_BONDANNOTATIONS>
24  18  6
18  32  8
18  34  8
31  19  6
21  34  8
21  35  8
26  30  6
28  33  6
32  35  8
23  5  5
25  6  5
27  8  5
29  9  5

$$$$

