442931
  -OEChem-07051213002D

 41 43  0     1  0  0  0  0  0999 V2000
    7.8805   -1.0547    0.0000 O   0  0  0  0  0  0  0  0  0  0  0  0
   10.4641   -0.2500    0.0000 O   0  0  0  0  0  0  0  0  0  0  0  0
    6.0682    1.7500    0.0000 O   0  0  0  0  0  0  0  0  0  0  0  0
    2.5381    0.7742    0.0000 O   0  0  0  0  0  0  0  0  0  0  0  0
    6.0682   -1.2500    0.0000 N   0  3  0  0  0  0  0  0  0  0  0  0
    8.4641   -0.2500    0.0000 C   0  0  2  0  0  0  0  0  0  0  0  0
    7.8805    0.5547    0.0000 C   0  0  0  0  0  0  0  0  0  0  0  0
    9.4641   -0.2500    0.0000 C   0  0  0  0  0  0  0  0  0  0  0  0
    6.9343    0.2500    0.0000 C   0  0  0  0  0  0  0  0  0  0  0  0
    6.9343   -0.7500    0.0000 C   0  0  0  0  0  0  0  0  0  0  0  0
    6.0682    0.7500    0.0000 C   0  0  0  0  0  0  0  0  0  0  0  0
    9.4641   -1.2500    0.0000 C   0  0  0  0  0  0  0  0  0  0  0  0
    9.4641    0.7500    0.0000 C   0  0  0  0  0  0  0  0  0  0  0  0
    5.2022   -0.7500    0.0000 C   0  0  0  0  0  0  0  0  0  0  0  0
    5.2022    0.2500    0.0000 C   0  0  0  0  0  0  0  0  0  0  0  0
    6.0682   -2.2500    0.0000 C   0  0  0  0  0  0  0  0  0  0  0  0
    4.3083    0.7847    0.0000 C   0  0  0  0  0  0  0  0  0  0  0  0
    4.3083   -1.2847    0.0000 C   0  0  0  0  0  0  0  0  0  0  0  0
    3.4022    0.2708    0.0000 C   0  0  0  0  0  0  0  0  0  0  0  0
    3.4022   -0.7708    0.0000 C   0  0  0  0  0  0  0  0  0  0  0  0
    5.2022    2.2500    0.0000 C   0  0  0  0  0  0  0  0  0  0  0  0
    8.8503   -1.0072    0.0000 H   0  0  0  0  0  0  0  0  0  0  0  0
    8.4179    0.8640    0.0000 H   0  0  0  0  0  0  0  0  0  0  0  0
    7.6295    1.1216    0.0000 H   0  0  0  0  0  0  0  0  0  0  0  0
   10.0841    0.7500    0.0000 H   0  0  0  0  0  0  0  0  0  0  0  0
    8.8441   -1.2500    0.0000 H   0  0  0  0  0  0  0  0  0  0  0  0
    9.4641   -1.8700    0.0000 H   0  0  0  0  0  0  0  0  0  0  0  0
   10.0841   -1.2500    0.0000 H   0  0  0  0  0  0  0  0  0  0  0  0
    9.4641    1.3700    0.0000 H   0  0  0  0  0  0  0  0  0  0  0  0
    8.8441    0.7500    0.0000 H   0  0  0  0  0  0  0  0  0  0  0  0
   10.7741   -0.7869    0.0000 H   0  0  0  0  0  0  0  0  0  0  0  0
    5.4482   -2.2500    0.0000 H   0  0  0  0  0  0  0  0  0  0  0  0
    6.0682   -2.8700    0.0000 H   0  0  0  0  0  0  0  0  0  0  0  0
    6.6882   -2.2500    0.0000 H   0  0  0  0  0  0  0  0  0  0  0  0
    4.3154    1.4046    0.0000 H   0  0  0  0  0  0  0  0  0  0  0  0
    4.3154   -1.9046    0.0000 H   0  0  0  0  0  0  0  0  0  0  0  0
    2.8665   -1.0829    0.0000 H   0  0  0  0  0  0  0  0  0  0  0  0
    5.5122    2.7869    0.0000 H   0  0  0  0  0  0  0  0  0  0  0  0
    4.6653    2.5600    0.0000 H   0  0  0  0  0  0  0  0  0  0  0  0
    4.8922    1.7131    0.0000 H   0  0  0  0  0  0  0  0  0  0  0  0
    2.0000    0.4662    0.0000 H   0  0  0  0  0  0  0  0  0  0  0  0
  1  6  1  0  0  0  0
  1 10  1  0  0  0  0
  2  8  1  0  0  0  0
  2 31  1  0  0  0  0
  3 11  1  0  0  0  0
  3 21  1  0  0  0  0
  4 19  1  0  0  0  0
  4 41  1  0  0  0  0
  5 10  2  0  0  0  0
  5 14  1  0  0  0  0
  5 16  1  0  0  0  0
  6  7  1  0  0  0  0
  6  8  1  0  0  0  0
  6 22  1  1  0  0  0
  7  9  1  0  0  0  0
  7 23  1  0  0  0  0
  7 24  1  0  0  0  0
  8 12  1  0  0  0  0
  8 13  1  0  0  0  0
  9 10  1  0  0  0  0
  9 11  2  0  0  0  0
 11 15  1  0  0  0  0
 12 26  1  0  0  0  0
 12 27  1  0  0  0  0
 12 28  1  0  0  0  0
 13 25  1  0  0  0  0
 13 29  1  0  0  0  0
 13 30  1  0  0  0  0
 14 15  2  0  0  0  0
 14 18  1  0  0  0  0
 15 17  1  0  0  0  0
 16 32  1  0  0  0  0
 16 33  1  0  0  0  0
 16 34  1  0  0  0  0
 17 19  2  0  0  0  0
 17 35  1  0  0  0  0
 18 20  2  0  0  0  0
 18 36  1  0  0  0  0
 19 20  1  0  0  0  0
 20 37  1  0  0  0  0
 21 38  1  0  0  0  0
 21 39  1  0  0  0  0
 21 40  1  0  0  0  0
M  CHG  1   5   1
M  END
> <PUBCHEM_COMPOUND_CID>
442931

> <PUBCHEM_COMPOUND_CANONICALIZED>
1

> <PUBCHEM_CACTVS_COMPLEXITY>
389

> <PUBCHEM_CACTVS_HBOND_ACCEPTOR>
4

> <PUBCHEM_CACTVS_HBOND_DONOR>
2

> <PUBCHEM_CACTVS_ROTATABLE_BOND>
2

> <PUBCHEM_CACTVS_SUBSKEYS>
AAADceB6OAAAAAAAAAAAAAAAAAAAASAAAAA8QAAAAAAAAFix8AAAHgAACAAADFyhngYyxvMMFgCgAyRiRACCiCAhIiAI2CA+bJgNJ+LGsZuOeCjnwB3L+Afw8P8OAEABAAACAAAAgAIAAAQAAAAAAAAAAA==

> <PUBCHEM_IUPAC_OPENEYE_NAME>
(2R)-2-(1-hydroxy-1-methyl-ethyl)-4-methoxy-9-methyl-2,3-dihydrofuro[2,3-b]quinolin-9-ium-6-ol

> <PUBCHEM_IUPAC_CAS_NAME>
(2R)-2-(2-hydroxypropan-2-yl)-4-methoxy-9-methyl-2,3-dihydrofuro[2,3-b]quinolin-9-ium-6-ol

> <PUBCHEM_IUPAC_NAME>
(2R)-2-(2-hydroxypropan-2-yl)-4-methoxy-9-methyl-2,3-dihydrofuro[2,3-b]quinolin-9-ium-6-ol

> <PUBCHEM_IUPAC_SYSTEMATIC_NAME>
(2R)-4-methoxy-9-methyl-2-(2-oxidanylpropan-2-yl)-2,3-dihydrofuro[2,3-b]quinolin-9-ium-6-ol

> <PUBCHEM_IUPAC_TRADITIONAL_NAME>
(2R)-2-(1-hydroxy-1-methyl-ethyl)-4-methoxy-9-methyl-2,3-dihydrofuro[2,3-b]quinolin-9-ium-6-ol

> <PUBCHEM_IUPAC_INCHI>
InChI=1S/C16H19NO4/c1-16(2,19)13-8-11-14(20-4)10-7-9(18)5-6-12(10)17(3)15(11)21-13/h5-7,13,19H,8H2,1-4H3/p+1/t13-/m1/s1

> <PUBCHEM_IUPAC_INCHIKEY>
RUZDYQSFFIVRRP-CYBMUJFWSA-O

> <PUBCHEM_XLOGP3_AA>
2.3

> <PUBCHEM_EXACT_MASS>
290.139233

> <PUBCHEM_MOLECULAR_FORMULA>
C16H20NO4+

> <PUBCHEM_MOLECULAR_WEIGHT>
290.3343

> <PUBCHEM_OPENEYE_CAN_SMILES>
CC(C)(C1CC2=C(C3=C(C=CC(=C3)O)[N+](=C2O1)C)OC)O

> <PUBCHEM_OPENEYE_ISO_SMILES>
CC(C)([C@H]1CC2=C(C3=C(C=CC(=C3)O)[N+](=C2O1)C)OC)O

> <PUBCHEM_CACTVS_TPSA>
62.8

> <PUBCHEM_MONOISOTOPIC_WEIGHT>
290.139233

> <PUBCHEM_TOTAL_CHARGE>
1

> <PUBCHEM_HEAVY_ATOM_COUNT>
21

> <PUBCHEM_ATOM_DEF_STEREO_COUNT>
1

> <PUBCHEM_ATOM_UDEF_STEREO_COUNT>
0

> <PUBCHEM_BOND_DEF_STEREO_COUNT>
0

> <PUBCHEM_BOND_UDEF_STEREO_COUNT>
0

> <PUBCHEM_ISOTOPIC_ATOM_COUNT>
0

> <PUBCHEM_COMPONENT_COUNT>
1

> <PUBCHEM_CACTVS_TAUTO_COUNT>
6

> <PUBCHEM_COORDINATE_TYPE>
1
5
255

> <PUBCHEM_BONDANNOTATIONS>
11  15  8
14  15  8
14  18  8
15  17  8
17  19  8
18  20  8
19  20  8
5  10  8
5  14  8
6  22  5
9  10  8
9  11  8

$$$$

