656706
  -OEChem-07051213042D

 25 25  0     1  0  0  0  0  0999 V2000
    6.0010    2.3100    0.0000 F   0  0  0  0  0  0  0  0  0  0  0  0
    2.5369    0.3100    0.0000 O   0  0  0  0  0  0  0  0  0  0  0  0
    6.0010   -2.6900    0.0000 O   0  0  0  0  0  0  0  0  0  0  0  0
    4.2690    3.3100    0.0000 O   0  0  0  0  0  0  0  0  0  0  0  0
    4.2690   -2.6900    0.0000 O   0  0  0  0  0  0  0  0  0  0  0  0
    4.2690    0.3100    0.0000 N   0  0  3  0  0  0  0  0  0  0  0  0
    3.4030    1.8100    0.0000 N   0  0  0  0  0  0  0  0  0  0  0  0
    6.0010   -0.6900    0.0000 N   0  0  0  0  0  0  0  0  0  0  0  0
    4.2690   -0.6900    0.0000 C   0  0  0  0  0  0  0  0  0  0  0  0
    3.4030    0.8100    0.0000 C   0  0  3  0  0  0  0  0  0  0  0  0
    5.1350   -1.1900    0.0000 C   0  0  1  0  0  0  0  0  0  0  0  0
    5.1350    0.8100    0.0000 C   0  0  0  0  0  0  0  0  0  0  0  0
    5.1350    1.8100    0.0000 C   0  0  0  0  0  0  0  0  0  0  0  0
    4.2690    2.3100    0.0000 C   0  0  0  0  0  0  0  0  0  0  0  0
    5.1350   -2.1900    0.0000 C   0  0  0  0  0  0  0  0  0  0  0  0
    3.6584   -0.5823    0.0000 H   0  0  0  0  0  0  0  0  0  0  0  0
    4.0569   -1.2726    0.0000 H   0  0  0  0  0  0  0  0  0  0  0  0
    3.4030    0.1900    0.0000 H   0  0  0  0  0  0  0  0  0  0  0  0
    5.6720   -1.5000    0.0000 H   0  0  0  0  0  0  0  0  0  0  0  0
    5.6720    0.5000    0.0000 H   0  0  0  0  0  0  0  0  0  0  0  0
    2.8660    2.1200    0.0000 H   0  0  0  0  0  0  0  0  0  0  0  0
    6.5380   -1.0000    0.0000 H   0  0  0  0  0  0  0  0  0  0  0  0
    6.0010   -0.0700    0.0000 H   0  0  0  0  0  0  0  0  0  0  0  0
    2.0000    0.6200    0.0000 H   0  0  0  0  0  0  0  0  0  0  0  0
    6.0010   -3.3100    0.0000 H   0  0  0  0  0  0  0  0  0  0  0  0
  1 13  1  0  0  0  0
  2 10  1  0  0  0  0
  2 24  1  0  0  0  0
  3 15  1  0  0  0  0
  3 25  1  0  0  0  0
  4 14  2  0  0  0  0
  5 15  2  0  0  0  0
  6  9  1  0  0  0  0
  6 10  1  0  0  0  0
  6 12  1  0  0  0  0
  7 10  1  0  0  0  0
  7 14  1  0  0  0  0
  7 21  1  0  0  0  0
 11  8  1  6  0  0  0
  8 22  1  0  0  0  0
  8 23  1  0  0  0  0
  9 11  1  0  0  0  0
  9 16  1  0  0  0  0
  9 17  1  0  0  0  0
 10 18  1  0  0  0  0
 11 15  1  0  0  0  0
 11 19  1  0  0  0  0
 12 13  2  0  0  0  0
 12 20  1  0  0  0  0
 13 14  1  0  0  0  0
M  END
> <PUBCHEM_COMPOUND_CID>
656706

> <PUBCHEM_COMPOUND_CANONICALIZED>
1

> <PUBCHEM_CACTVS_COMPLEXITY>
319

> <PUBCHEM_CACTVS_HBOND_ACCEPTOR>
7

> <PUBCHEM_CACTVS_HBOND_DONOR>
4

> <PUBCHEM_CACTVS_ROTATABLE_BOND>
3

> <PUBCHEM_CACTVS_SUBSKEYS>
AAADccBjOQAAAAAAAAAAAAAAAAAAAAAAAAAgAAAAAAAAAAAAAAAAHwAQCAAACCjBgAYBCAPAAgCIAAHWWACAAAAAAAAAAIGIAEGCUAgAAAAUQAAKEwIAAMAAAAAAAAAAAAAAAAAAAAAAAAAAAAAAAAAAAA==

> <PUBCHEM_IUPAC_OPENEYE_NAME>
(2S)-2-amino-3-(5-fluoro-2-hydroxy-6-oxo-1,2-dihydropyrimidin-3-yl)propanoic acid

> <PUBCHEM_IUPAC_CAS_NAME>
(2S)-2-amino-3-(5-fluoro-2-hydroxy-6-oxo-1,2-dihydropyrimidin-3-yl)propanoic acid

> <PUBCHEM_IUPAC_NAME>
(2S)-2-amino-3-(5-fluoro-2-hydroxy-6-oxo-1,2-dihydropyrimidin-3-yl)propanoic acid

> <PUBCHEM_IUPAC_SYSTEMATIC_NAME>
(2S)-2-azanyl-3-(5-fluoranyl-2-oxidanyl-6-oxidanylidene-1,2-dihydropyrimidin-3-yl)propanoic acid

> <PUBCHEM_IUPAC_TRADITIONAL_NAME>
(2S)-2-amino-3-(5-fluoro-2-hydroxy-6-keto-1,2-dihydropyrimidin-3-yl)propionic acid

> <PUBCHEM_IUPAC_INCHI>
InChI=1S/C7H10FN3O4/c8-3-1-11(2-4(9)6(13)14)7(15)10-5(3)12/h1,4,7,15H,2,9H2,(H,10,12)(H,13,14)/t4-,7?/m0/s1

> <PUBCHEM_IUPAC_INCHIKEY>
YIBVSVWKLVBIKS-LRYVRFSDSA-N

> <PUBCHEM_XLOGP3_AA>
-4

> <PUBCHEM_EXACT_MASS>
219.065534

> <PUBCHEM_MOLECULAR_FORMULA>
C7H10FN3O4

> <PUBCHEM_MOLECULAR_WEIGHT>
219.170403

> <PUBCHEM_OPENEYE_CAN_SMILES>
C1=C(C(=O)NC(N1CC(C(=O)O)N)O)F

> <PUBCHEM_OPENEYE_ISO_SMILES>
C1=C(C(=O)NC(N1C[C@@H](C(=O)O)N)O)F

> <PUBCHEM_CACTVS_TPSA>
116

> <PUBCHEM_MONOISOTOPIC_WEIGHT>
219.065534

> <PUBCHEM_TOTAL_CHARGE>
0

> <PUBCHEM_HEAVY_ATOM_COUNT>
15

> <PUBCHEM_ATOM_DEF_STEREO_COUNT>
1

> <PUBCHEM_ATOM_UDEF_STEREO_COUNT>
1

> <PUBCHEM_BOND_DEF_STEREO_COUNT>
0

> <PUBCHEM_BOND_UDEF_STEREO_COUNT>
0

> <PUBCHEM_ISOTOPIC_ATOM_COUNT>
0

> <PUBCHEM_COMPONENT_COUNT>
1

> <PUBCHEM_CACTVS_TAUTO_COUNT>
2

> <PUBCHEM_COORDINATE_TYPE>
1
5
255

> <PUBCHEM_BONDANNOTATIONS>
10  2  3
11  8  6

$$$$

