442490
  -OEChem-07051212582D

 53 57  0     1  0  0  0  0  0999 V2000
    4.8924   -2.0096    0.0000 O   0  0  0  0  0  0  0  0  0  0  0  0
    2.4492   -0.1951    0.0000 O   0  0  0  0  0  0  0  0  0  0  0  0
    3.1218   -2.0555    0.0000 O   0  0  0  0  0  0  0  0  0  0  0  0
    7.8142    1.2737    0.0000 N   0  0  3  0  0  0  0  0  0  0  0  0
    6.6907   -0.1352    0.0000 C   0  0  2  0  0  0  0  0  0  0  0  0
    5.7898    0.2987    0.0000 C   0  0  1  0  0  0  0  0  0  0  0  0
    6.5548   -1.1199    0.0000 C   0  0  2  0  0  0  0  0  0  0  0  0
    5.1047   -0.4216    0.0000 C   0  0  2  0  0  0  0  0  0  0  0  0
    5.5765   -1.2965    0.0000 C   0  0  1  0  0  0  0  0  0  0  0  0
    7.5917    0.2987    0.0000 C   0  0  0  0  0  0  0  0  0  0  0  0
    6.5668    0.2882    0.0000 C   0  0  0  0  0  0  0  0  0  0  0  0
    4.1330   -0.6014    0.0000 C   0  0  1  0  0  0  0  0  0  0  0  0
    7.3646   -1.6892    0.0000 C   0  0  0  0  0  0  0  0  0  0  0  0
    5.5672    1.2737    0.0000 C   0  0  0  0  0  0  0  0  0  0  0  0
    8.2676   -1.2837    0.0000 C   0  0  2  0  0  0  0  0  0  0  0  0
    6.6027    1.0874    0.0000 C   0  0  0  0  0  0  0  0  0  0  0  0
    8.3800   -0.3001    0.0000 C   0  0  0  0  0  0  0  0  0  0  0  0
    6.1907    2.0555    0.0000 C   0  0  0  0  0  0  0  0  0  0  0  0
    7.3739    1.3002    0.0000 C   0  0  0  0  0  0  0  0  0  0  0  0
    7.1907    2.0555    0.0000 C   0  0  0  0  0  0  0  0  0  0  0  0
    4.0020   -1.5809    0.0000 C   0  0  0  0  0  0  0  0  0  0  0  0
    3.4084    0.0878    0.0000 C   0  0  1  0  0  0  0  0  0  0  0  0
    9.0750   -1.8738    0.0000 C   0  0  0  0  0  0  0  0  0  0  0  0
    3.6430    1.0599    0.0000 C   0  0  0  0  0  0  0  0  0  0  0  0
    5.0240    0.6675    0.0000 H   0  0  0  0  0  0  0  0  0  0  0  0
    6.3717   -1.9499    0.0000 H   0  0  0  0  0  0  0  0  0  0  0  0
    4.6996    0.3257    0.0000 H   0  0  0  0  0  0  0  0  0  0  0  0
    5.9783   -2.0456    0.0000 H   0  0  0  0  0  0  0  0  0  0  0  0
    6.0109    0.5627    0.0000 H   0  0  0  0  0  0  0  0  0  0  0  0
    7.1824    0.3624    0.0000 H   0  0  0  0  0  0  0  0  0  0  0  0
    3.3313   -0.8839    0.0000 H   0  0  0  0  0  0  0  0  0  0  0  0
    6.9236   -2.1250    0.0000 H   0  0  0  0  0  0  0  0  0  0  0  0
    7.7151   -2.2007    0.0000 H   0  0  0  0  0  0  0  0  0  0  0  0
    5.1807    1.7584    0.0000 H   0  0  0  0  0  0  0  0  0  0  0  0
    5.0086    1.0046    0.0000 H   0  0  0  0  0  0  0  0  0  0  0  0
    8.8355   -1.0349    0.0000 H   0  0  0  0  0  0  0  0  0  0  0  0
    6.5012    1.6990    0.0000 H   0  0  0  0  0  0  0  0  0  0  0  0
    5.9838    1.0503    0.0000 H   0  0  0  0  0  0  0  0  0  0  0  0
    8.9502   -0.0565    0.0000 H   0  0  0  0  0  0  0  0  0  0  0  0
    6.3287    2.6599    0.0000 H   0  0  0  0  0  0  0  0  0  0  0  0
    5.6321    2.3245    0.0000 H   0  0  0  0  0  0  0  0  0  0  0  0
    7.6569    1.8519    0.0000 H   0  0  0  0  0  0  0  0  0  0  0  0
    7.4386    0.6836    0.0000 H   0  0  0  0  0  0  0  0  0  0  0  0
    7.7493    2.3245    0.0000 H   0  0  0  0  0  0  0  0  0  0  0  0
    7.0528    2.6599    0.0000 H   0  0  0  0  0  0  0  0  0  0  0  0
    2.9591    0.5151    0.0000 H   0  0  0  0  0  0  0  0  0  0  0  0
    8.7091   -2.3743    0.0000 H   0  0  0  0  0  0  0  0  0  0  0  0
    9.5755   -2.2396    0.0000 H   0  0  0  0  0  0  0  0  0  0  0  0
    9.4408   -1.3732    0.0000 H   0  0  0  0  0  0  0  0  0  0  0  0
    4.2457    0.9145    0.0000 H   0  0  0  0  0  0  0  0  0  0  0  0
    3.7884    1.6626    0.0000 H   0  0  0  0  0  0  0  0  0  0  0  0
    3.0402    1.2053    0.0000 H   0  0  0  0  0  0  0  0  0  0  0  0
    2.0000    0.2322    0.0000 H   0  0  0  0  0  0  0  0  0  0  0  0
  1  9  1  0  0  0  0
  1 21  1  0  0  0  0
 22  2  1  6  0  0  0
  2 53  1  0  0  0  0
  3 21  2  0  0  0  0
  4 10  1  0  0  0  0
  4 19  1  0  0  0  0
  4 20  1  0  0  0  0
  5  6  1  0  0  0  0
  5  7  1  0  0  0  0
  5 10  1  0  0  0  0
  5 11  1  6  0  0  0
  6  8  1  0  0  0  0
  6 14  1  0  0  0  0
  6 25  1  6  0  0  0
  7  9  1  0  0  0  0
  7 13  1  0  0  0  0
  7 26  1  6  0  0  0
  8  9  1  0  0  0  0
  8 12  1  0  0  0  0
  8 27  1  1  0  0  0
  9 28  1  1  0  0  0
 10 17  2  0  0  0  0
 11 16  1  0  0  0  0
 11 29  1  0  0  0  0
 11 30  1  0  0  0  0
 12 21  1  0  0  0  0
 12 22  1  0  0  0  0
 12 31  1  6  0  0  0
 13 15  1  0  0  0  0
 13 32  1  0  0  0  0
 13 33  1  0  0  0  0
 14 18  1  0  0  0  0
 14 34  1  0  0  0  0
 14 35  1  0  0  0  0
 15 17  1  0  0  0  0
 15 23  1  6  0  0  0
 15 36  1  0  0  0  0
 16 19  1  0  0  0  0
 16 37  1  0  0  0  0
 16 38  1  0  0  0  0
 17 39  1  0  0  0  0
 18 20  1  0  0  0  0
 18 40  1  0  0  0  0
 18 41  1  0  0  0  0
 19 42  1  0  0  0  0
 19 43  1  0  0  0  0
 20 44  1  0  0  0  0
 20 45  1  0  0  0  0
 22 24  1  0  0  0  0
 22 46  1  0  0  0  0
 23 47  1  0  0  0  0
 23 48  1  0  0  0  0
 23 49  1  0  0  0  0
 24 50  1  0  0  0  0
 24 51  1  0  0  0  0
 24 52  1  0  0  0  0
M  END
> <PUBCHEM_COMPOUND_CID>
442490

> <PUBCHEM_COMPOUND_CANONICALIZED>
1

> <PUBCHEM_CACTVS_COMPLEXITY>
602

> <PUBCHEM_CACTVS_HBOND_ACCEPTOR>
4

> <PUBCHEM_CACTVS_HBOND_DONOR>
1

> <PUBCHEM_CACTVS_ROTATABLE_BOND>
1

> <PUBCHEM_CACTVS_SUBSKEYS>
AAADceB6MAAAAAAAAAAAAAAAAAAAAaIAAAAsQAAABYASAFiwAAAAHgAACAAADxzhgAYCCAMABgCIACTSSAAAAAAgAgAACAEIAAgAEBYAgAAGQAAFoACIAAP62PKPgAAAAAAAAAAAAAAAAAAAAYAADAAAAA==

> <PUBCHEM_IUPAC_INCHI>
InChI=1S/C20H29NO3/c1-11-9-14-18-17(16(12(2)22)19(23)24-18)13-5-3-7-21-8-4-6-20(13,14)15(21)10-11/h10-14,16-18,22H,3-9H2,1-2H3/t11-,12-,13-,14+,16+,17+,18+,20-/m1/s1

> <PUBCHEM_IUPAC_INCHIKEY>
PONWUQDRLFXKSM-GSNPUYSQSA-N

> <PUBCHEM_XLOGP3_AA>
3.2

> <PUBCHEM_EXACT_MASS>
331.214744

> <PUBCHEM_MOLECULAR_FORMULA>
C20H29NO3

> <PUBCHEM_MOLECULAR_WEIGHT>
331.44916

> <PUBCHEM_OPENEYE_CAN_SMILES>
CC1CC2C3C(C4C25CCCN(C5=C1)CCC4)C(C(=O)O3)C(C)O

> <PUBCHEM_OPENEYE_ISO_SMILES>
C[C@@H]1C[C@H]2[C@H]3[C@@H]([C@@H]4[C@]25CCCN(C5=C1)CCC4)[C@@H](C(=O)O3)[C@@H](C)O

> <PUBCHEM_CACTVS_TPSA>
49.8

> <PUBCHEM_MONOISOTOPIC_WEIGHT>
331.214744

> <PUBCHEM_TOTAL_CHARGE>
0

> <PUBCHEM_HEAVY_ATOM_COUNT>
24

> <PUBCHEM_ATOM_DEF_STEREO_COUNT>
8

> <PUBCHEM_ATOM_UDEF_STEREO_COUNT>
0

> <PUBCHEM_BOND_DEF_STEREO_COUNT>
0

> <PUBCHEM_BOND_UDEF_STEREO_COUNT>
0

> <PUBCHEM_ISOTOPIC_ATOM_COUNT>
0

> <PUBCHEM_COMPONENT_COUNT>
1

> <PUBCHEM_CACTVS_TAUTO_COUNT>
2

> <PUBCHEM_COORDINATE_TYPE>
1
5
255

> <PUBCHEM_BONDANNOTATIONS>
12  31  6
15  23  6
22  2  6
5  11  6
6  25  6
7  26  6
8  27  5
9  28  5

$$$$

