   Color/Form

     * Off white to pale pink solid
     * Colorless solid

   from [1]HSDB

   Odor

     * Faint burnt odor
     * Odorless

   from [2]HSDB

   Melting Point
        106 deg C
   from [3]HSDB

   Corrosivity
        Non-corrosive
   from [4]HSDB

   Density/Specific Gravity
        1.16 g/cu cm (dry); 1.13 g/cu cm (wet)
   from [5]HSDB

   Dissociation Constants
        pKa = 4.98 @ 25 deg C
   from [6]HSDB

   Octanol/Water Partition Coefficient
        log Kow = 4.46 (non-ionized)
   from [7]HSDB

   pH
        pH = 5.3 at 22 deg C
   from [8]HSDB

   Solubilities

     * In organic solvents at 24 deg C (g/l): methanol = 25, acetone = 89,
       toluene = 213, hexane = 18, ethyl acetate = 100, dichloromethane =
       >500
     * In water (20 deg C) = 5 mg/l (pH 5), 6.7 mg/l (pH 6.5), 9800 mg/l
       (pH 9)

   from [9]HSDB

   Vapor Pressure
        2.78X10-9 mm Hg @ 20 deg C
   from [10]HSDB

   Other Chemical/Physical Properties

     * Hydrolysis half-life of 6.3 days (pH 5), 114 days (pH 7), 1594 days
       (pH 9)
     * MP: 99-104 deg C /Technical/

   from [11]HSDB

   Computed Properties
   Molecular Weight                  329.43328 [g/mol]
   Molecular Formula                 C[20]H[27]NO[3]
   XLogP3-AA                         4.5
   H-Bond Donor                      1
   H-Bond Acceptor                   4
   Rotatable Bond Count              5
   Tautomer Count                    13
   Exact Mass                        329.199094
   MonoIsotopic Mass                 329.199094
   Topological Polar Surface Area    55.4
   Heavy Atom Count                  24
   Formal Charge                     0
   Complexity                        479
   Isotope Atom Count                0
   Defined Atom Stereocenter Count   0
   Undefined Atom Stereocenter Count 0
   Defined Bond Stereocenter Count   0
   Undefined Bond Stereocenter Count 0
   Covalently-Bonded Unit Count      1
   Feature 3D Acceptor Count         2
   Feature 3D Anion Count            1
   Feature 3D Hydrophobe Count       1
   Feature 3D Ring Count             2
   Effective Rotor Count             5.6
   Conformer Sampling RMSD           0.8
   CID Conformer Count               [12]3

References

   1. http://toxnet.nlm.nih.gov/cgi-bin/sis/search/r?dbs+hsdb:@term+@rn+@rel+87820-88-0
   2. http://toxnet.nlm.nih.gov/cgi-bin/sis/search/r?dbs+hsdb:@term+@rn+@rel+87820-88-0
   3. http://toxnet.nlm.nih.gov/cgi-bin/sis/search/r?dbs+hsdb:@term+@rn+@rel+87820-88-0
   4. http://toxnet.nlm.nih.gov/cgi-bin/sis/search/r?dbs+hsdb:@term+@rn+@rel+87820-88-0
   5. http://toxnet.nlm.nih.gov/cgi-bin/sis/search/r?dbs+hsdb:@term+@rn+@rel+87820-88-0
   6. http://toxnet.nlm.nih.gov/cgi-bin/sis/search/r?dbs+hsdb:@term+@rn+@rel+87820-88-0
   7. http://toxnet.nlm.nih.gov/cgi-bin/sis/search/r?dbs+hsdb:@term+@rn+@rel+87820-88-0
   8. http://toxnet.nlm.nih.gov/cgi-bin/sis/search/r?dbs+hsdb:@term+@rn+@rel+87820-88-0
   9. http://toxnet.nlm.nih.gov/cgi-bin/sis/search/r?dbs+hsdb:@term+@rn+@rel+87820-88-0
  10. http://toxnet.nlm.nih.gov/cgi-bin/sis/search/r?dbs+hsdb:@term+@rn+@rel+87820-88-0
  11. http://toxnet.nlm.nih.gov/cgi-bin/sis/search/r?dbs+hsdb:@term+@rn+@rel+87820-88-0
  12. http://pubchem.ncbi.nlm.nih.gov/vw3d/vw3d.cgi?cid=91746
