443395
  -OEChem-07051213022D

 60 60  0     1  0  0  0  0  0999 V2000
    8.0135    3.2975    0.0000 Br  0  5  0  0  0  0  0  0  0  0  0  0
    0.4766    3.4750    0.0000 O   0  0  0  0  0  0  0  0  0  0  0  0
    3.9766    2.6089    0.0000 N   0  3  0  0  0  0  0  0  0  0  0  0
    1.4766    2.4750    0.0000 C   0  0  0  0  0  0  0  0  0  0  0  0
    1.4766    3.4750    0.0000 C   0  0  3  0  0  0  0  0  0  0  0  0
    2.4766    3.4750    0.0000 C   0  0  0  0  0  0  0  0  0  0  0  0
    2.9766    2.6089    0.0000 C   0  0  0  0  0  0  0  0  0  0  0  0
    0.6106    1.9750    0.0000 C   0  0  0  0  0  0  0  0  0  0  0  0
    2.3426    1.9750    0.0000 C   0  0  0  0  0  0  0  0  0  0  0  0
    2.3426    0.9749    0.0000 C   0  0  0  0  0  0  0  0  0  0  0  0
    0.6106    0.9749    0.0000 C   0  0  0  0  0  0  0  0  0  0  0  0
    1.4766    0.4749    0.0000 C   0  0  0  0  0  0  0  0  0  0  0  0
    4.9766    2.6089    0.0000 C   0  0  0  0  0  0  0  0  0  0  0  0
    3.9766    1.6089    0.0000 C   0  0  0  0  0  0  0  0  0  0  0  0
    3.9766    3.6089    0.0000 C   0  0  0  0  0  0  0  0  0  0  0  0
    1.4766    4.4750    0.0000 C   0  0  0  0  0  0  0  0  0  0  0  0
    5.4766    1.7429    0.0000 C   0  0  0  0  0  0  0  0  0  0  0  0
    4.8426    1.1089    0.0000 C   0  0  0  0  0  0  0  0  0  0  0  0
    4.8426    4.1089    0.0000 C   0  0  0  0  0  0  0  0  0  0  0  0
    2.3426    4.9750    0.0000 C   0  0  0  0  0  0  0  0  0  0  0  0
    0.6106    4.9750    0.0000 C   0  0  0  0  0  0  0  0  0  0  0  0
    2.3426    5.9750    0.0000 C   0  0  0  0  0  0  0  0  0  0  0  0
    0.6106    5.9750    0.0000 C   0  0  0  0  0  0  0  0  0  0  0  0
    1.4766    6.4750    0.0000 C   0  0  0  0  0  0  0  0  0  0  0  0
    2.0135    2.7849    0.0000 H   0  0  0  0  0  0  0  0  0  0  0  0
    3.0592    3.6870    0.0000 H   0  0  0  0  0  0  0  0  0  0  0  0
    2.3689    4.0855    0.0000 H   0  0  0  0  0  0  0  0  0  0  0  0
    2.3940    2.3969    0.0000 H   0  0  0  0  0  0  0  0  0  0  0  0
    3.0843    1.9983    0.0000 H   0  0  0  0  0  0  0  0  0  0  0  0
    2.9532    1.8673    0.0000 H   0  0  0  0  0  0  0  0  0  0  0  0
    2.5547    2.5576    0.0000 H   0  0  0  0  0  0  0  0  0  0  0  0
    0.3985    2.5576    0.0000 H   0  0  0  0  0  0  0  0  0  0  0  0
    0.0000    1.8673    0.0000 H   0  0  0  0  0  0  0  0  0  0  0  0
    0.0000    1.0826    0.0000 H   0  0  0  0  0  0  0  0  0  0  0  0
    0.3985    0.3923    0.0000 H   0  0  0  0  0  0  0  0  0  0  0  0
    2.5547    0.3923    0.0000 H   0  0  0  0  0  0  0  0  0  0  0  0
    2.9532    1.0826    0.0000 H   0  0  0  0  0  0  0  0  0  0  0  0
    1.0781    0.0000    0.0000 H   0  0  0  0  0  0  0  0  0  0  0  0
    1.8751    0.0000    0.0000 H   0  0  0  0  0  0  0  0  0  0  0  0
    5.5592    2.8210    0.0000 H   0  0  0  0  0  0  0  0  0  0  0  0
    4.8689    3.2195    0.0000 H   0  0  0  0  0  0  0  0  0  0  0  0
    3.3660    1.7166    0.0000 H   0  0  0  0  0  0  0  0  0  0  0  0
    3.7646    1.0263    0.0000 H   0  0  0  0  0  0  0  0  0  0  0  0
    3.7646    4.1915    0.0000 H   0  0  0  0  0  0  0  0  0  0  0  0
    3.3660    3.5013    0.0000 H   0  0  0  0  0  0  0  0  0  0  0  0
    0.1666    4.0119    0.0000 H   0  0  0  0  0  0  0  0  0  0  0  0
    5.1526    3.5720    0.0000 H   0  0  0  0  0  0  0  0  0  0  0  0
    5.3796    4.4189    0.0000 H   0  0  0  0  0  0  0  0  0  0  0  0
    4.5326    4.6459    0.0000 H   0  0  0  0  0  0  0  0  0  0  0  0
    4.5326    0.5720    0.0000 H   0  0  0  0  0  0  0  0  0  0  0  0
    5.3796    0.7989    0.0000 H   0  0  0  0  0  0  0  0  0  0  0  0
    5.1526    1.6459    0.0000 H   0  0  0  0  0  0  0  0  0  0  0  0
    4.9397    1.4329    0.0000 H   0  0  0  0  0  0  0  0  0  0  0  0
    5.7866    1.2060    0.0000 H   0  0  0  0  0  0  0  0  0  0  0  0
    6.0135    2.0529    0.0000 H   0  0  0  0  0  0  0  0  0  0  0  0
    2.8796    4.6650    0.0000 H   0  0  0  0  0  0  0  0  0  0  0  0
    0.0736    4.6650    0.0000 H   0  0  0  0  0  0  0  0  0  0  0  0
    2.8796    6.2850    0.0000 H   0  0  0  0  0  0  0  0  0  0  0  0
    0.0736    6.2850    0.0000 H   0  0  0  0  0  0  0  0  0  0  0  0
    1.4766    7.0950    0.0000 H   0  0  0  0  0  0  0  0  0  0  0  0
  2  5  1  0  0  0  0
  2 46  1  0  0  0  0
  3  7  1  0  0  0  0
  3 13  1  0  0  0  0
  3 14  1  0  0  0  0
  3 15  1  0  0  0  0
  4  5  1  0  0  0  0
  4  8  1  0  0  0  0
  4  9  1  0  0  0  0
  4 25  1  0  0  0  0
  5  6  1  0  0  0  0
  5 16  1  0  0  0  0
  6  7  1  0  0  0  0
  6 26  1  0  0  0  0
  6 27  1  0  0  0  0
  7 28  1  0  0  0  0
  7 29  1  0  0  0  0
  8 11  1  0  0  0  0
  8 32  1  0  0  0  0
  8 33  1  0  0  0  0
  9 10  1  0  0  0  0
  9 30  1  0  0  0  0
  9 31  1  0  0  0  0
 10 12  1  0  0  0  0
 10 36  1  0  0  0  0
 10 37  1  0  0  0  0
 11 12  1  0  0  0  0
 11 34  1  0  0  0  0
 11 35  1  0  0  0  0
 12 38  1  0  0  0  0
 12 39  1  0  0  0  0
 13 17  1  0  0  0  0
 13 40  1  0  0  0  0
 13 41  1  0  0  0  0
 14 18  1  0  0  0  0
 14 42  1  0  0  0  0
 14 43  1  0  0  0  0
 15 19  1  0  0  0  0
 15 44  1  0  0  0  0
 15 45  1  0  0  0  0
 16 20  2  0  0  0  0
 16 21  1  0  0  0  0
 17 53  1  0  0  0  0
 17 54  1  0  0  0  0
 17 55  1  0  0  0  0
 18 50  1  0  0  0  0
 18 51  1  0  0  0  0
 18 52  1  0  0  0  0
 19 47  1  0  0  0  0
 19 48  1  0  0  0  0
 19 49  1  0  0  0  0
 20 22  1  0  0  0  0
 20 56  1  0  0  0  0
 21 23  2  0  0  0  0
 21 57  1  0  0  0  0
 22 24  2  0  0  0  0
 22 58  1  0  0  0  0
 23 24  1  0  0  0  0
 23 59  1  0  0  0  0
 24 60  1  0  0  0  0
M  CHG  2   1  -1   3   1
M  END
> <PUBCHEM_COMPOUND_CID>
443395

> <PUBCHEM_COMPOUND_CANONICALIZED>
1

> <PUBCHEM_CACTVS_COMPLEXITY>
319

> <PUBCHEM_CACTVS_HBOND_ACCEPTOR>
2

> <PUBCHEM_CACTVS_HBOND_DONOR>
1

> <PUBCHEM_CACTVS_ROTATABLE_BOND>
8

> <PUBCHEM_CACTVS_SUBSKEYS>
AAADcfB6IAAAEAAAAAAAAAAAAAAAAAAAAAAwYAAAAAAAAAABAAAAHgAACAAADUTBmAQyAIMAAgCAAiBCAAACAAAgAAAIiAAICIgIJiKAkRCEcAAmwAGImAeQwOAOgAAAAAAAAAAAAAAAAAAAAAAAAAAAAA==

> <PUBCHEM_IUPAC_OPENEYE_NAME>
(3-cyclohexyl-3-hydroxy-3-phenyl-propyl)-triethyl-ammonium bromide

> <PUBCHEM_IUPAC_CAS_NAME>
(3-cyclohexyl-3-hydroxy-3-phenylpropyl)-triethylammonium bromide

> <PUBCHEM_IUPAC_NAME>
(3-cyclohexyl-3-hydroxy-3-phenylpropyl)-triethylazanium bromide

> <PUBCHEM_IUPAC_SYSTEMATIC_NAME>
(3-cyclohexyl-3-oxidanyl-3-phenyl-propyl)-triethyl-azanium bromide

> <PUBCHEM_IUPAC_TRADITIONAL_NAME>
(3-cyclohexyl-3-hydroxy-3-phenyl-propyl)-triethyl-ammonium bromide

> <PUBCHEM_IUPAC_INCHI>
InChI=1S/C21H36NO.BrH/c1-4-22(5-2,6-3)18-17-21(23,19-13-9-7-10-14-19)20-15-11-8-12-16-20;/h7,9-10,13-14,20,23H,4-6,8,11-12,15-18H2,1-3H3;1H/q+1;/p-1

> <PUBCHEM_IUPAC_INCHIKEY>
NXKAZKHSCKBZCB-UHFFFAOYSA-M

> <PUBCHEM_EXACT_MASS>
397.198027

> <PUBCHEM_MOLECULAR_FORMULA>
C21H36BrNO

> <PUBCHEM_MOLECULAR_WEIGHT>
398.42064

> <PUBCHEM_OPENEYE_CAN_SMILES>
CC[N+](CC)(CC)CCC(C1CCCCC1)(C2=CC=CC=C2)O.[Br-]

> <PUBCHEM_OPENEYE_ISO_SMILES>
CC[N+](CC)(CC)CCC(C1CCCCC1)(C2=CC=CC=C2)O.[Br-]

> <PUBCHEM_CACTVS_TPSA>
20.2

> <PUBCHEM_MONOISOTOPIC_WEIGHT>
397.198027

> <PUBCHEM_TOTAL_CHARGE>
0

> <PUBCHEM_HEAVY_ATOM_COUNT>
24

> <PUBCHEM_ATOM_DEF_STEREO_COUNT>
0

> <PUBCHEM_ATOM_UDEF_STEREO_COUNT>
1

> <PUBCHEM_BOND_DEF_STEREO_COUNT>
0

> <PUBCHEM_BOND_UDEF_STEREO_COUNT>
0

> <PUBCHEM_ISOTOPIC_ATOM_COUNT>
0

> <PUBCHEM_COMPONENT_COUNT>
2

> <PUBCHEM_CACTVS_TAUTO_COUNT>
1

> <PUBCHEM_COORDINATE_TYPE>
1
5
255

> <PUBCHEM_BONDANNOTATIONS>
16  20  8
16  21  8
20  22  8
21  23  8
22  24  8
23  24  8
5  6  3

$$$$

