   Color/Form
        Yellow crystals from ethanol
   from [1]HSDB

   Odor
        Faint to moderate sulfide odor
   from [2]HSDB

   Melting Point
        164-166 deg C (decomposes)
   from [3]HSDB

   Dissociation Constants
        pKa = 4.49 (pyridyl nitrogen) (est)
   from [4]HSDB

   Octanol/Water Partition Coefficient
        log Kow = 0.3699
   from [5]HSDB

   Solubilities

     * Very sparingly soluble in ether. Sparingly soluble in methanol,
       ethanol, propylene glycol. Soluble in hot acetone, dichloroethane.
       Freely soluble in pyridine.
     * In water, 3.2X10+5 mg/L at 25 deg C (est)

   from [6]HSDB

   Spectral Properties
        UV: 665 (Absorption Spectra in the UV and Visible Region, Academic
   Press, New York)
   from [7]HSDB

   Vapor Pressure
        1.3X10-4 mm Hg at 25 deg C (est)
   from [8]HSDB

   Other Chemical/Physical Properties

     * Henry's Law constant = 7.5X10-10 atm-cu m/mol at 25 deg C (est)
     * Hydroxyl radical reaction rate constant = 7.5X10-10 cu
       cm/molecule-sec at 25 deg C (est)

   from [9]HSDB

   Computed Properties
   Molecular Weight                  166.2434 [g/mol]
   Molecular Formula                 C[8]H[10]N[2]S
   XLogP3                            1.1
   H-Bond Donor                      1
   H-Bond Acceptor                   2
   Rotatable Bond Count              2
   Tautomer Count                    7
   Exact Mass                        166.056469
   MonoIsotopic Mass                 166.056469
   Topological Polar Surface Area    71
   Heavy Atom Count                  11
   Formal Charge                     0
   Complexity                        147
   Isotope Atom Count                0
   Defined Atom Stereocenter Count   0
   Undefined Atom Stereocenter Count 0
   Defined Bond Stereocenter Count   0
   Undefined Bond Stereocenter Count 0
   Covalently-Bonded Unit Count      1
   Feature 3D Acceptor Count         2
   Feature 3D Hydrophobe Count       1
   Feature 3D Ring Count             1
   Effective Rotor Count             2
   Conformer Sampling RMSD           0.4
   CID Conformer Count               [10]24

References

   1. http://toxnet.nlm.nih.gov/cgi-bin/sis/search/r?dbs+hsdb:@term+@rn+@rel+536-33-4
   2. http://toxnet.nlm.nih.gov/cgi-bin/sis/search/r?dbs+hsdb:@term+@rn+@rel+536-33-4
   3. http://toxnet.nlm.nih.gov/cgi-bin/sis/search/r?dbs+hsdb:@term+@rn+@rel+536-33-4
   4. http://toxnet.nlm.nih.gov/cgi-bin/sis/search/r?dbs+hsdb:@term+@rn+@rel+536-33-4
   5. http://toxnet.nlm.nih.gov/cgi-bin/sis/search/r?dbs+hsdb:@term+@rn+@rel+536-33-4
   6. http://toxnet.nlm.nih.gov/cgi-bin/sis/search/r?dbs+hsdb:@term+@rn+@rel+536-33-4
   7. http://toxnet.nlm.nih.gov/cgi-bin/sis/search/r?dbs+hsdb:@term+@rn+@rel+536-33-4
   8. http://toxnet.nlm.nih.gov/cgi-bin/sis/search/r?dbs+hsdb:@term+@rn+@rel+536-33-4
   9. http://toxnet.nlm.nih.gov/cgi-bin/sis/search/r?dbs+hsdb:@term+@rn+@rel+536-33-4
  10. http://pubchem.ncbi.nlm.nih.gov/vw3d/vw3d.cgi?cid=2761171
