17395784
  -OEChem-06241222522D

 47 49  0     1  0  0  0  0  0999 V2000
    8.0622   -1.5173    0.0000 O   0  0  0  0  0  0  0  0  0  0  0  0
    8.9282   -0.0173    0.0000 N   0  0  0  0  0  0  0  0  0  0  0  0
    6.3301   -0.5173    0.0000 N   0  0  0  0  0  0  0  0  0  0  0  0
    8.9282    0.9827    0.0000 C   0  0  0  0  0  0  0  0  0  0  0  0
    9.7942   -0.5173    0.0000 C   0  0  0  0  0  0  0  0  0  0  0  0
    9.7942    1.4827    0.0000 C   0  0  0  0  0  0  0  0  0  0  0  0
   10.6603   -0.0173    0.0000 C   0  0  0  0  0  0  0  0  0  0  0  0
   10.6603    0.9827    0.0000 C   0  0  0  0  0  0  0  0  0  0  0  0
    8.0622   -0.5173    0.0000 C   0  0  0  0  0  0  0  0  0  0  0  0
    7.1962   -0.0173    0.0000 C   0  0  3  0  0  0  0  0  0  0  0  0
   11.5542   -0.5520    0.0000 C   0  0  0  0  0  0  0  0  0  0  0  0
   11.5542    1.5173    0.0000 C   0  0  0  0  0  0  0  0  0  0  0  0
    7.1962    0.9827    0.0000 C   0  0  0  0  0  0  0  0  0  0  0  0
   12.4603   -0.0381    0.0000 C   0  0  0  0  0  0  0  0  0  0  0  0
   12.4603    1.0035    0.0000 C   0  0  0  0  0  0  0  0  0  0  0  0
    5.4641   -0.0173    0.0000 C   0  0  0  0  0  0  0  0  0  0  0  0
    5.4641    0.9827    0.0000 C   0  0  0  0  0  0  0  0  0  0  0  0
    4.5981   -0.5173    0.0000 C   0  0  0  0  0  0  0  0  0  0  0  0
    3.7320    0.9827    0.0000 C   0  0  0  0  0  0  0  0  0  0  0  0
    4.5981    1.4827    0.0000 C   0  0  0  0  0  0  0  0  0  0  0  0
    3.7320   -0.0173    0.0000 C   0  0  0  0  0  0  0  0  0  0  0  0
    2.8660    1.4827    0.0000 C   0  0  0  0  0  0  0  0  0  0  0  0
    2.0000    0.9827    0.0000 C   0  0  0  0  0  0  0  0  0  0  0  0
    8.7162    1.5653    0.0000 H   0  0  0  0  0  0  0  0  0  0  0  0
    8.3176    0.8750    0.0000 H   0  0  0  0  0  0  0  0  0  0  0  0
    9.3957   -0.9923    0.0000 H   0  0  0  0  0  0  0  0  0  0  0  0
   10.1928   -0.9923    0.0000 H   0  0  0  0  0  0  0  0  0  0  0  0
   10.1928    1.9576    0.0000 H   0  0  0  0  0  0  0  0  0  0  0  0
    9.3957    1.9576    0.0000 H   0  0  0  0  0  0  0  0  0  0  0  0
    6.6592    0.2927    0.0000 H   0  0  0  0  0  0  0  0  0  0  0  0
   11.5470   -1.1720    0.0000 H   0  0  0  0  0  0  0  0  0  0  0  0
   11.5470    2.1373    0.0000 H   0  0  0  0  0  0  0  0  0  0  0  0
    6.3301   -1.1373    0.0000 H   0  0  0  0  0  0  0  0  0  0  0  0
    7.8162    0.9827    0.0000 H   0  0  0  0  0  0  0  0  0  0  0  0
    7.1962    1.6027    0.0000 H   0  0  0  0  0  0  0  0  0  0  0  0
    6.5762    0.9827    0.0000 H   0  0  0  0  0  0  0  0  0  0  0  0
   12.9960   -0.3502    0.0000 H   0  0  0  0  0  0  0  0  0  0  0  0
   12.9960    1.3156    0.0000 H   0  0  0  0  0  0  0  0  0  0  0  0
    6.0010    1.2927    0.0000 H   0  0  0  0  0  0  0  0  0  0  0  0
    4.5981   -1.1373    0.0000 H   0  0  0  0  0  0  0  0  0  0  0  0
    4.5981    2.1027    0.0000 H   0  0  0  0  0  0  0  0  0  0  0  0
    3.1951   -0.3273    0.0000 H   0  0  0  0  0  0  0  0  0  0  0  0
    3.2646    1.9576    0.0000 H   0  0  0  0  0  0  0  0  0  0  0  0
    2.4675    1.9576    0.0000 H   0  0  0  0  0  0  0  0  0  0  0  0
    1.6900    1.5196    0.0000 H   0  0  0  0  0  0  0  0  0  0  0  0
    1.4631    0.6727    0.0000 H   0  0  0  0  0  0  0  0  0  0  0  0
    2.3100    0.4457    0.0000 H   0  0  0  0  0  0  0  0  0  0  0  0
  1  9  2  0  0  0  0
  2  4  1  0  0  0  0
  2  5  1  0  0  0  0
  2  9  1  0  0  0  0
  3 10  1  0  0  0  0
  3 16  1  0  0  0  0
  3 33  1  0  0  0  0
  4  6  1  0  0  0  0
  4 24  1  0  0  0  0
  4 25  1  0  0  0  0
  5  7  1  0  0  0  0
  5 26  1  0  0  0  0
  5 27  1  0  0  0  0
  6  8  1  0  0  0  0
  6 28  1  0  0  0  0
  6 29  1  0  0  0  0
  7  8  1  0  0  0  0
  7 11  2  0  0  0  0
  8 12  2  0  0  0  0
  9 10  1  0  0  0  0
 10 13  1  0  0  0  0
 10 30  1  0  0  0  0
 11 14  1  0  0  0  0
 11 31  1  0  0  0  0
 12 15  1  0  0  0  0
 12 32  1  0  0  0  0
 13 34  1  0  0  0  0
 13 35  1  0  0  0  0
 13 36  1  0  0  0  0
 14 15  2  0  0  0  0
 14 37  1  0  0  0  0
 15 38  1  0  0  0  0
 16 17  2  0  0  0  0
 16 18  1  0  0  0  0
 17 20  1  0  0  0  0
 17 39  1  0  0  0  0
 18 21  2  0  0  0  0
 18 40  1  0  0  0  0
 19 20  2  0  0  0  0
 19 21  1  0  0  0  0
 19 22  1  0  0  0  0
 20 41  1  0  0  0  0
 21 42  1  0  0  0  0
 22 23  1  0  0  0  0
 22 43  1  0  0  0  0
 22 44  1  0  0  0  0
 23 45  1  0  0  0  0
 23 46  1  0  0  0  0
 23 47  1  0  0  0  0
M  END
> <PUBCHEM_COMPOUND_CID>
17395784

> <PUBCHEM_COMPOUND_CANONICALIZED>
1

> <PUBCHEM_CACTVS_COMPLEXITY>
389

> <PUBCHEM_CACTVS_HBOND_ACCEPTOR>
2

> <PUBCHEM_CACTVS_HBOND_DONOR>
1

> <PUBCHEM_CACTVS_ROTATABLE_BOND>
4

> <PUBCHEM_CACTVS_SUBSKEYS>
AAADceB7IAAAAAAAAAAAAAAAAAAAAAAAAAA8YIAAAAAAAACxQAAAHgAQAAAADCjBmAQywIPAAACIAiVSUACCAAAhAgAIiIGIZIgIYCLAkbGUIAhglgDIyAcQgIAOiAAAAAAQAAAQAAAAACAAAAAAAAAAAA==

> <PUBCHEM_IUPAC_OPENEYE_NAME>
1-(3,4-dihydro-1H-isoquinolin-2-yl)-2-(4-ethylanilino)propan-1-one

> <PUBCHEM_IUPAC_CAS_NAME>
1-(3,4-dihydro-1H-isoquinolin-2-yl)-2-(4-ethylanilino)-1-propanone

> <PUBCHEM_IUPAC_NAME>
1-(3,4-dihydro-1H-isoquinolin-2-yl)-2-(4-ethylanilino)propan-1-one

> <PUBCHEM_IUPAC_SYSTEMATIC_NAME>
1-(3,4-dihydro-1H-isoquinolin-2-yl)-2-[(4-ethylphenyl)amino]propan-1-one

> <PUBCHEM_IUPAC_TRADITIONAL_NAME>
1-(3,4-dihydro-1H-isoquinolin-2-yl)-2-(4-ethylanilino)propan-1-one

> <PUBCHEM_IUPAC_INCHI>
InChI=1S/C20H24N2O/c1-3-16-8-10-19(11-9-16)21-15(2)20(23)22-13-12-17-6-4-5-7-18(17)14-22/h4-11,15,21H,3,12-14H2,1-2H3

> <PUBCHEM_IUPAC_INCHIKEY>
NFNQUNCRYQEBDB-UHFFFAOYSA-N

> <PUBCHEM_XLOGP3_AA>
4.2

> <PUBCHEM_EXACT_MASS>
308.188863

> <PUBCHEM_MOLECULAR_FORMULA>
C20H24N2O

> <PUBCHEM_MOLECULAR_WEIGHT>
308.41736

> <PUBCHEM_OPENEYE_CAN_SMILES>
CCC1=CC=C(C=C1)NC(C)C(=O)N2CCC3=CC=CC=C3C2

> <PUBCHEM_OPENEYE_ISO_SMILES>
CCC1=CC=C(C=C1)NC(C)C(=O)N2CCC3=CC=CC=C3C2

> <PUBCHEM_CACTVS_TPSA>
32.3

> <PUBCHEM_MONOISOTOPIC_WEIGHT>
308.188863

> <PUBCHEM_TOTAL_CHARGE>
0

> <PUBCHEM_HEAVY_ATOM_COUNT>
23

> <PUBCHEM_ATOM_DEF_STEREO_COUNT>
0

> <PUBCHEM_ATOM_UDEF_STEREO_COUNT>
1

> <PUBCHEM_BOND_DEF_STEREO_COUNT>
0

> <PUBCHEM_BOND_UDEF_STEREO_COUNT>
0

> <PUBCHEM_ISOTOPIC_ATOM_COUNT>
0

> <PUBCHEM_COMPONENT_COUNT>
1

> <PUBCHEM_CACTVS_TAUTO_COUNT>
1

> <PUBCHEM_COORDINATE_TYPE>
1
5
255

> <PUBCHEM_BONDANNOTATIONS>
10  13  3
11  14  8
12  15  8
14  15  8
16  17  8
16  18  8
17  20  8
18  21  8
19  20  8
19  21  8
7  11  8
7  8  8
8  12  8

$$$$

