   Color/Form
        Colorless volatile liquid
   from [1]HSDB

   Odor
        Fruity odor
   from [2]HSDB

   Taste
        Pungent, sweetish
   from [3]HSDB

   Boiling Point
        56.05 deg C at 760 mm Hg
   from [4]HSDB

   Melting Point
        -94.7 deg C
   from [5]HSDB

   Critical Temperature and Pressure
        Critical temperature: 455 deg F= 235 deg C= 508 deg K; critical
   pressure: 46.4 atm
   from [6]HSDB

   Density/Specific Gravity
        0.7845 at 20 deg C/4 deg C
   from [7]HSDB

   Dissociation Constants
        pKa = 20
   from [8]HSDB

   Heat of Combustion
        Liquid: -1787 kJ/mol (-427 kcal/mol)
   from [9]HSDB

   Heat of Vaporization
        220 Btu/lb= 122 cal/g
   from [10]HSDB

   Octanol/Water Partition Coefficient
        Log Kow= -0.24
   from [11]HSDB

   Solubilities

     * Miscible with benzene
     * Miscible with water, alcohol, dimethylformamide, ether
     * Miscible with chloroform, most oils

   from [12]HSDB

   Spectral Properties

     * Index of refraction: 1.3588 at 20 deg C/D
     * IR: 77 (Sadtler Research Laboratories IR Grating Collection)
     * UV: 89 (Sadtler Research Laboratories Spectral Collection)
     * NMR: 9288 (Sadtler Research Laboratories Spectral Collection)
     * MASS: 61291 (NIST/EPA/MSDC Mass Spectral database, 1990 version)
     * Raman: 162 (Sadtler Research Laboratories spectral collection)
     * Intense mass spectral peaks: 43 m/z, 58 m/z

   from [13]HSDB

   Surface Tension
        0 deg C: 26.2 mN/m; 20 deg C: 23.7 mN/m; 40 deg C: 21.2 mN/m
   from [14]HSDB

   Vapor Pressure
        231 mm Hg at 25 deg C [Alarie Y et al; Toxicol Appl Pharmacol 134:
   92-99 (1995)] [15]PubMed Abstract
   from [16]HSDB

   Viscosity
        0.32 cP at 20 deg C
   from [17]HSDB

   Other Chemical/Physical Properties

     * Saturation concentration: 553 g/cu m
     * Specific heat of liquid: 2.6 J/g (0.62 cal/g) at 20 deg C; specific
       heat of vapor: 92.1 J/(mol x k) (22.0 cal/mol x k) at 102 deg C;
       electric conductivity: 5.5x10-8 sec/cm at 25 deg C; heat of
       formation at 25 deg C: gas -216.5 kJ/mol, liquid: -248 kJ/mol.
     * Heat of fusion: 23.42 cal/g
     * Partition coefficients at 37 deg C for acetone into blood = 245;
       into oil = 86. [Sato A, Nakajima T; Scand J Work Environ Health 13:
       81-93 (1987)] [18]PubMed Abstract
     * Henry's Law constant = 3.97X10-5 atm-cu m/mole at 25 deg C
     * Hydroxyl radical reaction rate constant = 2.26X10-13 cu
       cm/molecule-sec at 25 deg C

   from [19]HSDB

   Computed Properties
   Molecular Weight                  58.07914 [g/mol]
   Molecular Formula                 C[3]H[6]O
   XLogP3-AA                         -0.1
   H-Bond Donor                      0
   H-Bond Acceptor                   1
   Rotatable Bond Count              0
   Tautomer Count                    2
   Exact Mass                        58.041865
   MonoIsotopic Mass                 58.041865
   Topological Polar Surface Area    17.1
   Heavy Atom Count                  4
   Formal Charge                     0
   Complexity                        26.3
   Isotope Atom Count                0
   Defined Atom Stereocenter Count   0
   Undefined Atom Stereocenter Count 0
   Defined Bond Stereocenter Count   0
   Undefined Bond Stereocenter Count 0
   Covalently-Bonded Unit Count      1
   Feature 3D Acceptor Count         1
   Effective Rotor Count             0
   Conformer Sampling RMSD           0.4
   CID Conformer Count               [20]1

References

   1. http://toxnet.nlm.nih.gov/cgi-bin/sis/search/r?dbs+hsdb:@term+@rn+@rel+67-64-1
   2. http://toxnet.nlm.nih.gov/cgi-bin/sis/search/r?dbs+hsdb:@term+@rn+@rel+67-64-1
   3. http://toxnet.nlm.nih.gov/cgi-bin/sis/search/r?dbs+hsdb:@term+@rn+@rel+67-64-1
   4. http://toxnet.nlm.nih.gov/cgi-bin/sis/search/r?dbs+hsdb:@term+@rn+@rel+67-64-1
   5. http://toxnet.nlm.nih.gov/cgi-bin/sis/search/r?dbs+hsdb:@term+@rn+@rel+67-64-1
   6. http://toxnet.nlm.nih.gov/cgi-bin/sis/search/r?dbs+hsdb:@term+@rn+@rel+67-64-1
   7. http://toxnet.nlm.nih.gov/cgi-bin/sis/search/r?dbs+hsdb:@term+@rn+@rel+67-64-1
   8. http://toxnet.nlm.nih.gov/cgi-bin/sis/search/r?dbs+hsdb:@term+@rn+@rel+67-64-1
   9. http://toxnet.nlm.nih.gov/cgi-bin/sis/search/r?dbs+hsdb:@term+@rn+@rel+67-64-1
  10. http://toxnet.nlm.nih.gov/cgi-bin/sis/search/r?dbs+hsdb:@term+@rn+@rel+67-64-1
  11. http://toxnet.nlm.nih.gov/cgi-bin/sis/search/r?dbs+hsdb:@term+@rn+@rel+67-64-1
  12. http://toxnet.nlm.nih.gov/cgi-bin/sis/search/r?dbs+hsdb:@term+@rn+@rel+67-64-1
  13. http://toxnet.nlm.nih.gov/cgi-bin/sis/search/r?dbs+hsdb:@term+@rn+@rel+67-64-1
  14. http://toxnet.nlm.nih.gov/cgi-bin/sis/search/r?dbs+hsdb:@term+@rn+@rel+67-64-1
  15. http://www.ncbi.nlm.nih.gov/entrez/query.fcgi?cmd=Retrieve&db=pubmed&dopt=Abstract&list_uids=7676461
  16. http://toxnet.nlm.nih.gov/cgi-bin/sis/search/r?dbs+hsdb:@term+@rn+@rel+67-64-1
  17. http://toxnet.nlm.nih.gov/cgi-bin/sis/search/r?dbs+hsdb:@term+@rn+@rel+67-64-1
  18. http://www.ncbi.nlm.nih.gov/entrez/query.fcgi?cmd=Retrieve&db=pubmed&dopt=Abstract&list_uids=3299685
  19. http://toxnet.nlm.nih.gov/cgi-bin/sis/search/r?dbs+hsdb:@term+@rn+@rel+67-64-1
  20. http://pubchem.ncbi.nlm.nih.gov/vw3d/vw3d.cgi?cid=180
