8324
  -OEChem-06261202442D

 72 80  0     0  0  0  0  0  0999 V2000
    6.4084    2.0000    0.0000 O   0  0  0  0  0  0  0  0  0  0  0  0
    6.4084   -2.0000    0.0000 O   0  0  0  0  0  0  0  0  0  0  0  0
    7.2774    3.5461    0.0000 O   0  0  0  0  0  0  0  0  0  0  0  0
    5.5394   -3.5461    0.0000 O   0  0  0  0  0  0  0  0  0  0  0  0
   10.6943    5.6257    0.0000 O   0  0  0  0  0  0  0  0  0  0  0  0
    2.1225   -5.6257    0.0000 O   0  0  0  0  0  0  0  0  0  0  0  0
    8.1568    2.0346    0.0000 N   0  0  0  0  0  0  0  0  0  0  0  0
    4.6600   -2.0346    0.0000 N   0  0  0  0  0  0  0  0  0  0  0  0
    7.2744    0.5000    0.0000 C   0  0  0  0  0  0  0  0  0  0  0  0
    5.5424   -0.5000    0.0000 C   0  0  0  0  0  0  0  0  0  0  0  0
    5.5424    0.5000    0.0000 C   0  0  0  0  0  0  0  0  0  0  0  0
    7.2744   -0.5000    0.0000 C   0  0  0  0  0  0  0  0  0  0  0  0
    8.1684    1.0347    0.0000 C   0  0  0  0  0  0  0  0  0  0  0  0
    4.6484   -1.0347    0.0000 C   0  0  0  0  0  0  0  0  0  0  0  0
    6.4084    1.0000    0.0000 C   0  0  0  0  0  0  0  0  0  0  0  0
    6.4084   -1.0000    0.0000 C   0  0  0  0  0  0  0  0  0  0  0  0
    3.8078   -3.5862    0.0000 C   0  0  0  0  0  0  0  0  0  0  0  0
    9.0089    3.5862    0.0000 C   0  0  0  0  0  0  0  0  0  0  0  0
    9.0170    2.5446    0.0000 C   0  0  0  0  0  0  0  0  0  0  0  0
    3.7998   -2.5446    0.0000 C   0  0  0  0  0  0  0  0  0  0  0  0
    2.9536   -4.1061    0.0000 C   0  0  0  0  0  0  0  0  0  0  0  0
    9.8632    4.1061    0.0000 C   0  0  0  0  0  0  0  0  0  0  0  0
    8.1684   -1.0347    0.0000 C   0  0  0  0  0  0  0  0  0  0  0  0
    4.6484    1.0347    0.0000 C   0  0  0  0  0  0  0  0  0  0  0  0
    9.0744    0.5208    0.0000 C   0  0  0  0  0  0  0  0  0  0  0  0
    3.7424   -0.5208    0.0000 C   0  0  0  0  0  0  0  0  0  0  0  0
    8.1316    4.0660    0.0000 C   0  0  0  0  0  0  0  0  0  0  0  0
    4.6852   -4.0660    0.0000 C   0  0  0  0  0  0  0  0  0  0  0  0
    4.7083   -5.0658    0.0000 C   0  0  0  0  0  0  0  0  0  0  0  0
    8.1085    5.0658    0.0000 C   0  0  0  0  0  0  0  0  0  0  0  0
    3.8541   -5.5856    0.0000 C   0  0  0  0  0  0  0  0  0  0  0  0
    8.9627    5.5856    0.0000 C   0  0  0  0  0  0  0  0  0  0  0  0
    9.0744   -0.5208    0.0000 C   0  0  0  0  0  0  0  0  0  0  0  0
    3.7424    0.5208    0.0000 C   0  0  0  0  0  0  0  0  0  0  0  0
    9.8400    5.1058    0.0000 C   0  0  0  0  0  0  0  0  0  0  0  0
    2.9767   -5.1058    0.0000 C   0  0  0  0  0  0  0  0  0  0  0  0
    9.9270    2.0377    0.0000 C   0  0  0  0  0  0  0  0  0  0  0  0
    2.8898   -2.0377    0.0000 C   0  0  0  0  0  0  0  0  0  0  0  0
   10.7847    3.6204    0.0000 C   0  0  0  0  0  0  0  0  0  0  0  0
    2.0321   -3.6204    0.0000 C   0  0  0  0  0  0  0  0  0  0  0  0
   10.8168    2.5793    0.0000 C   0  0  0  0  0  0  0  0  0  0  0  0
    2.0000   -2.5793    0.0000 C   0  0  0  0  0  0  0  0  0  0  0  0
    7.1870    5.5514    0.0000 C   0  0  0  0  0  0  0  0  0  0  0  0
    5.6298   -5.5514    0.0000 C   0  0  0  0  0  0  0  0  0  0  0  0
    8.9547    6.6272    0.0000 C   0  0  0  0  0  0  0  0  0  0  0  0
    3.8621   -6.6272    0.0000 C   0  0  0  0  0  0  0  0  0  0  0  0
    7.1549    6.5926    0.0000 C   0  0  0  0  0  0  0  0  0  0  0  0
    5.6619   -6.5926    0.0000 C   0  0  0  0  0  0  0  0  0  0  0  0
    8.0447    7.1341    0.0000 C   0  0  0  0  0  0  0  0  0  0  0  0
    4.7721   -7.1341    0.0000 C   0  0  0  0  0  0  0  0  0  0  0  0
    7.6163    2.3384    0.0000 H   0  0  0  0  0  0  0  0  0  0  0  0
    5.2005   -2.3384    0.0000 H   0  0  0  0  0  0  0  0  0  0  0  0
    4.6556    1.6546    0.0000 H   0  0  0  0  0  0  0  0  0  0  0  0
    8.1612   -1.6546    0.0000 H   0  0  0  0  0  0  0  0  0  0  0  0
    9.6102    0.8329    0.0000 H   0  0  0  0  0  0  0  0  0  0  0  0
    3.2066   -0.8329    0.0000 H   0  0  0  0  0  0  0  0  0  0  0  0
    3.2066    0.8329    0.0000 H   0  0  0  0  0  0  0  0  0  0  0  0
    9.6102   -0.8329    0.0000 H   0  0  0  0  0  0  0  0  0  0  0  0
    2.8778   -1.4178    0.0000 H   0  0  0  0  0  0  0  0  0  0  0  0
    9.9389    1.4178    0.0000 H   0  0  0  0  0  0  0  0  0  0  0  0
    1.5062   -3.9488    0.0000 H   0  0  0  0  0  0  0  0  0  0  0  0
   11.3105    3.9488    0.0000 H   0  0  0  0  0  0  0  0  0  0  0  0
    1.4549   -2.2839    0.0000 H   0  0  0  0  0  0  0  0  0  0  0  0
   11.3619    2.2839    0.0000 H   0  0  0  0  0  0  0  0  0  0  0  0
    6.1556   -5.2230    0.0000 H   0  0  0  0  0  0  0  0  0  0  0  0
    6.6611    5.2230    0.0000 H   0  0  0  0  0  0  0  0  0  0  0  0
    3.3288   -6.9434    0.0000 H   0  0  0  0  0  0  0  0  0  0  0  0
    9.4880    6.9434    0.0000 H   0  0  0  0  0  0  0  0  0  0  0  0
    6.6098    6.8880    0.0000 H   0  0  0  0  0  0  0  0  0  0  0  0
    6.2070   -6.8880    0.0000 H   0  0  0  0  0  0  0  0  0  0  0  0
    8.0327    7.7540    0.0000 H   0  0  0  0  0  0  0  0  0  0  0  0
    4.7840   -7.7540    0.0000 H   0  0  0  0  0  0  0  0  0  0  0  0
  1 15  2  0  0  0  0
  2 16  2  0  0  0  0
  3 27  2  0  0  0  0
  4 28  2  0  0  0  0
  5 35  2  0  0  0  0
  6 36  2  0  0  0  0
  7 13  1  0  0  0  0
  7 19  1  0  0  0  0
  7 51  1  0  0  0  0
  8 14  1  0  0  0  0
  8 20  1  0  0  0  0
  8 52  1  0  0  0  0
  9 12  2  0  0  0  0
  9 13  1  0  0  0  0
  9 15  1  0  0  0  0
 10 11  2  0  0  0  0
 10 14  1  0  0  0  0
 10 16  1  0  0  0  0
 11 15  1  0  0  0  0
 11 24  1  0  0  0  0
 12 16  1  0  0  0  0
 12 23  1  0  0  0  0
 13 25  2  0  0  0  0
 14 26  2  0  0  0  0
 17 20  1  0  0  0  0
 17 21  2  0  0  0  0
 17 28  1  0  0  0  0
 18 19  1  0  0  0  0
 18 22  2  0  0  0  0
 18 27  1  0  0  0  0
 19 37  2  0  0  0  0
 20 38  2  0  0  0  0
 21 36  1  0  0  0  0
 21 40  1  0  0  0  0
 22 35  1  0  0  0  0
 22 39  1  0  0  0  0
 23 33  2  0  0  0  0
 23 54  1  0  0  0  0
 24 34  2  0  0  0  0
 24 53  1  0  0  0  0
 25 33  1  0  0  0  0
 25 55  1  0  0  0  0
 26 34  1  0  0  0  0
 26 56  1  0  0  0  0
 27 30  1  0  0  0  0
 28 29  1  0  0  0  0
 29 31  1  0  0  0  0
 29 44  2  0  0  0  0
 30 32  1  0  0  0  0
 30 43  2  0  0  0  0
 31 36  1  0  0  0  0
 31 46  2  0  0  0  0
 32 35  1  0  0  0  0
 32 45  2  0  0  0  0
 33 58  1  0  0  0  0
 34 57  1  0  0  0  0
 37 41  1  0  0  0  0
 37 60  1  0  0  0  0
 38 42  1  0  0  0  0
 38 59  1  0  0  0  0
 39 41  2  0  0  0  0
 39 62  1  0  0  0  0
 40 42  2  0  0  0  0
 40 61  1  0  0  0  0
 41 64  1  0  0  0  0
 42 63  1  0  0  0  0
 43 47  1  0  0  0  0
 43 66  1  0  0  0  0
 44 48  1  0  0  0  0
 44 65  1  0  0  0  0
 45 49  1  0  0  0  0
 45 68  1  0  0  0  0
 46 50  1  0  0  0  0
 46 67  1  0  0  0  0
 47 49  2  0  0  0  0
 47 69  1  0  0  0  0
 48 50  2  0  0  0  0
 48 70  1  0  0  0  0
 49 71  1  0  0  0  0
 50 72  1  0  0  0  0
M  END
> <PUBCHEM_COMPOUND_CID>
8324

> <PUBCHEM_COMPOUND_CANONICALIZED>
1

> <PUBCHEM_CACTVS_COMPLEXITY>
1330

> <PUBCHEM_CACTVS_HBOND_ACCEPTOR>
8

> <PUBCHEM_CACTVS_HBOND_DONOR>
2

> <PUBCHEM_CACTVS_ROTATABLE_BOND>
4

> <PUBCHEM_CACTVS_SUBSKEYS>
AAADceB/OAAAAAAAAAAAAAAAAAAAAAAAAAAwYMGDAAAAAADBVAAAHgAQAAAADAyBmAAwwILAAACIAqRSQACCAAAlAgAIiAEAZMgIIHrAlZGEIYhgkADIyccdiMCOgAAAQAASAACAAASAACQAAAAAAAAAAA==

> <PUBCHEM_IUPAC_OPENEYE_NAME>
1,5-bis[(9,10-dioxo-1-anthryl)amino]anthracene-9,10-dione

> <PUBCHEM_IUPAC_CAS_NAME>
1,5-bis[(9,10-dioxo-1-anthracenyl)amino]anthracene-9,10-dione

> <PUBCHEM_IUPAC_NAME>
1,5-bis[(9,10-dioxoanthracen-1-yl)amino]anthracene-9,10-dione

> <PUBCHEM_IUPAC_SYSTEMATIC_NAME>
1,5-bis[[9,10-bis(oxidanylidene)anthracen-1-yl]amino]anthracene-9,10-dione

> <PUBCHEM_IUPAC_TRADITIONAL_NAME>
1,5-bis[(9,10-diketo-1-anthryl)amino]-9,10-anthraquinone

> <PUBCHEM_IUPAC_INCHI>
InChI=1S/C42H22N2O6/c45-37-21-9-1-3-11-23(21)39(47)33-25(37)13-5-17-29(33)43-31-19-7-15-27-35(31)41(49)28-16-8-20-32(36(28)42(27)50)44-30-18-6-14-26-34(30)40(48)24-12-4-2-10-22(24)38(26)46/h1-20,43-44H

> <PUBCHEM_IUPAC_INCHIKEY>
DGJRQADQCOOLLL-UHFFFAOYSA-N

> <PUBCHEM_XLOGP3_AA>
8.9

> <PUBCHEM_EXACT_MASS>
650.147786

> <PUBCHEM_MOLECULAR_FORMULA>
C42H22N2O6

> <PUBCHEM_MOLECULAR_WEIGHT>
650.63388

> <PUBCHEM_OPENEYE_CAN_SMILES>
C1=CC=C2C(=C1)C(=O)C3=C(C2=O)C(=CC=C3)NC4=CC=CC5=C4C(=O)C6=C(C5=O)C(=CC=C6)NC7=CC=CC8=C7C(=O)C9=CC=CC=C9C8=O

> <PUBCHEM_OPENEYE_ISO_SMILES>
C1=CC=C2C(=C1)C(=O)C3=C(C2=O)C(=CC=C3)NC4=CC=CC5=C4C(=O)C6=C(C5=O)C(=CC=C6)NC7=CC=CC8=C7C(=O)C9=CC=CC=C9C8=O

> <PUBCHEM_CACTVS_TPSA>
127

> <PUBCHEM_MONOISOTOPIC_WEIGHT>
650.147786

> <PUBCHEM_TOTAL_CHARGE>
0

> <PUBCHEM_HEAVY_ATOM_COUNT>
50

> <PUBCHEM_ATOM_DEF_STEREO_COUNT>
0

> <PUBCHEM_ATOM_UDEF_STEREO_COUNT>
0

> <PUBCHEM_BOND_DEF_STEREO_COUNT>
0

> <PUBCHEM_BOND_UDEF_STEREO_COUNT>
0

> <PUBCHEM_ISOTOPIC_ATOM_COUNT>
0

> <PUBCHEM_COMPONENT_COUNT>
1

> <PUBCHEM_CACTVS_TAUTO_COUNT>
45

> <PUBCHEM_COORDINATE_TYPE>
1
5
255

> <PUBCHEM_BONDANNOTATIONS>
10  11  8
10  14  8
11  24  8
12  23  8
13  25  8
14  26  8
17  20  8
17  21  8
18  19  8
18  22  8
19  37  8
20  38  8
21  40  8
22  39  8
23  33  8
24  34  8
25  33  8
26  34  8
29  31  8
29  44  8
30  32  8
30  43  8
31  46  8
32  45  8
37  41  8
38  42  8
39  41  8
40  42  8
43  47  8
44  48  8
45  49  8
46  50  8
47  49  8
48  50  8
9  12  8
9  13  8

$$$$

