242669
  -OEChem-07051213072D

 38 40  0     1  0  0  0  0  0999 V2000
    2.5357   -1.2880    0.0000 O   0  0  0  0  0  0  0  0  0  0  0  0
    3.4075   -2.7846    0.0000 O   0  0  0  0  0  0  0  0  0  0  0  0
    9.5858    1.7846    0.0000 O   0  0  0  0  0  0  0  0  0  0  0  0
    6.0678   -1.2605    0.0000 N   0  0  3  0  0  0  0  0  0  0  0  0
    6.0678   -0.2605    0.0000 C   0  0  1  0  0  0  0  0  0  0  0  0
    5.1738    0.2742    0.0000 C   0  0  0  0  0  0  0  0  0  0  0  0
    5.1738   -1.7951    0.0000 C   0  0  0  0  0  0  0  0  0  0  0  0
    4.2678   -1.2813    0.0000 C   0  0  1  0  0  0  0  0  0  0  0  0
    4.2678   -0.2397    0.0000 C   0  0  0  0  0  0  0  0  0  0  0  0
    6.9338   -1.7605    0.0000 C   0  0  0  0  0  0  0  0  0  0  0  0
    6.9338    0.2395    0.0000 C   0  0  0  0  0  0  0  0  0  0  0  0
    7.7998   -1.2605    0.0000 C   0  0  0  0  0  0  0  0  0  0  0  0
    7.7998   -0.2605    0.0000 C   0  0  0  0  0  0  0  0  0  0  0  0
    6.9178    1.2810    0.0000 C   0  0  0  0  0  0  0  0  0  0  0  0
    3.4037   -1.7846    0.0000 C   0  0  0  0  0  0  0  0  0  0  0  0
    8.7098    0.2464    0.0000 C   0  0  0  0  0  0  0  0  0  0  0  0
    7.8158    1.8088    0.0000 C   0  0  0  0  0  0  0  0  0  0  0  0
    8.7179    1.2880    0.0000 C   0  0  0  0  0  0  0  0  0  0  0  0
    9.5897    2.7846    0.0000 C   0  0  0  0  0  0  0  0  0  0  0  0
    6.0743    0.5895    0.0000 H   0  0  0  0  0  0  0  0  0  0  0  0
    5.5784    0.7440    0.0000 H   0  0  0  0  0  0  0  0  0  0  0  0
    4.7802    0.7532    0.0000 H   0  0  0  0  0  0  0  0  0  0  0  0
    4.7802   -2.2742    0.0000 H   0  0  0  0  0  0  0  0  0  0  0  0
    5.5784   -2.2649    0.0000 H   0  0  0  0  0  0  0  0  0  0  0  0
    3.7302   -0.9723    0.0000 H   0  0  0  0  0  0  0  0  0  0  0  0
    4.0587    0.3440    0.0000 H   0  0  0  0  0  0  0  0  0  0  0  0
    3.6569   -0.3458    0.0000 H   0  0  0  0  0  0  0  0  0  0  0  0
    6.5353   -2.2354    0.0000 H   0  0  0  0  0  0  0  0  0  0  0  0
    7.3323   -2.2354    0.0000 H   0  0  0  0  0  0  0  0  0  0  0  0
    8.0119   -1.8431    0.0000 H   0  0  0  0  0  0  0  0  0  0  0  0
    8.4104   -1.1528    0.0000 H   0  0  0  0  0  0  0  0  0  0  0  0
    6.3773    1.5848    0.0000 H   0  0  0  0  0  0  0  0  0  0  0  0
    9.2432   -0.0698    0.0000 H   0  0  0  0  0  0  0  0  0  0  0  0
    7.8134    2.4288    0.0000 H   0  0  0  0  0  0  0  0  0  0  0  0
    2.0000   -1.6000    0.0000 H   0  0  0  0  0  0  0  0  0  0  0  0
   10.2097    2.7822    0.0000 H   0  0  0  0  0  0  0  0  0  0  0  0
    9.5921    3.4046    0.0000 H   0  0  0  0  0  0  0  0  0  0  0  0
    8.9697    2.7870    0.0000 H   0  0  0  0  0  0  0  0  0  0  0  0
  1 15  1  0  0  0  0
  1 35  1  0  0  0  0
  2 15  2  0  0  0  0
  3 18  1  0  0  0  0
  3 19  1  0  0  0  0
  4  5  1  0  0  0  0
  4  7  1  0  0  0  0
  4 10  1  0  0  0  0
  5  6  1  0  0  0  0
  5 11  1  0  0  0  0
  5 20  1  6  0  0  0
  6  9  1  0  0  0  0
  6 21  1  0  0  0  0
  6 22  1  0  0  0  0
  7  8  1  0  0  0  0
  7 23  1  0  0  0  0
  7 24  1  0  0  0  0
  8  9  1  0  0  0  0
  8 15  1  6  0  0  0
  8 25  1  0  0  0  0
  9 26  1  0  0  0  0
  9 27  1  0  0  0  0
 10 12  1  0  0  0  0
 10 28  1  0  0  0  0
 10 29  1  0  0  0  0
 11 13  2  0  0  0  0
 11 14  1  0  0  0  0
 12 13  1  0  0  0  0
 12 30  1  0  0  0  0
 12 31  1  0  0  0  0
 13 16  1  0  0  0  0
 14 17  2  0  0  0  0
 14 32  1  0  0  0  0
 16 18  2  0  0  0  0
 16 33  1  0  0  0  0
 17 18  1  0  0  0  0
 17 34  1  0  0  0  0
 19 36  1  0  0  0  0
 19 37  1  0  0  0  0
 19 38  1  0  0  0  0
M  END
> <PUBCHEM_COMPOUND_CID>
242669

> <PUBCHEM_COMPOUND_CANONICALIZED>
1

> <PUBCHEM_CACTVS_COMPLEXITY>
346

> <PUBCHEM_CACTVS_HBOND_ACCEPTOR>
4

> <PUBCHEM_CACTVS_HBOND_DONOR>
1

> <PUBCHEM_CACTVS_ROTATABLE_BOND>
2

> <PUBCHEM_CACTVS_SUBSKEYS>
AAADceByMAAAAAAAAAAAAAAAAAAAAAAAAAA8WIAAAAAAAACxAAAAHgAACAAADSzBmAYyDoMABgCIAiDSCACCCAAgIAAIiAEODIgMJjqEsRuEcChmwBGIqAeY2fOeoAABAAAQAABAAAIAACAAAAAAAAAAAA==

> <PUBCHEM_IUPAC_OPENEYE_NAME>
(3R,11bS)-9-methoxy-2,3,4,6,7,11b-hexahydro-1H-benzo[a]quinolizine-3-carboxylic acid

> <PUBCHEM_IUPAC_CAS_NAME>
(3R,11bS)-9-methoxy-2,3,4,6,7,11b-hexahydro-1H-benzo[a]quinolizine-3-carboxylic acid

> <PUBCHEM_IUPAC_NAME>
(3R,11bS)-9-methoxy-2,3,4,6,7,11b-hexahydro-1H-benzo[a]quinolizine-3-carboxylic acid

> <PUBCHEM_IUPAC_SYSTEMATIC_NAME>
(3R,11bS)-9-methoxy-2,3,4,6,7,11b-hexahydro-1H-benzo[a]quinolizine-3-carboxylic acid

> <PUBCHEM_IUPAC_TRADITIONAL_NAME>
(3R,11bS)-9-methoxy-2,3,4,6,7,11b-hexahydro-1H-benzo[a]quinolizine-3-carboxylic acid

> <PUBCHEM_IUPAC_INCHI>
InChI=1S/C15H19NO3/c1-19-12-3-4-13-10(8-12)6-7-16-9-11(15(17)18)2-5-14(13)16/h3-4,8,11,14H,2,5-7,9H2,1H3,(H,17,18)/t11-,14+/m1/s1

> <PUBCHEM_IUPAC_INCHIKEY>
CMZIZIPSUFOSEU-RISCZKNCSA-N

> <PUBCHEM_XLOGP3_AA>
-0.5

> <PUBCHEM_EXACT_MASS>
261.136493

> <PUBCHEM_MOLECULAR_FORMULA>
C15H19NO3

> <PUBCHEM_MOLECULAR_WEIGHT>
261.31626

> <PUBCHEM_OPENEYE_CAN_SMILES>
COC1=CC2=C(C=C1)C3CCC(CN3CC2)C(=O)O

> <PUBCHEM_OPENEYE_ISO_SMILES>
COC1=CC2=C(C=C1)[C@@H]3CC[C@H](CN3CC2)C(=O)O

> <PUBCHEM_CACTVS_TPSA>
49.8

> <PUBCHEM_MONOISOTOPIC_WEIGHT>
261.136493

> <PUBCHEM_TOTAL_CHARGE>
0

> <PUBCHEM_HEAVY_ATOM_COUNT>
19

> <PUBCHEM_ATOM_DEF_STEREO_COUNT>
2

> <PUBCHEM_ATOM_UDEF_STEREO_COUNT>
0

> <PUBCHEM_BOND_DEF_STEREO_COUNT>
0

> <PUBCHEM_BOND_UDEF_STEREO_COUNT>
0

> <PUBCHEM_ISOTOPIC_ATOM_COUNT>
0

> <PUBCHEM_COMPONENT_COUNT>
1

> <PUBCHEM_CACTVS_TAUTO_COUNT>
1

> <PUBCHEM_COORDINATE_TYPE>
1
5
255

> <PUBCHEM_BONDANNOTATIONS>
11  13  8
11  14  8
13  16  8
14  17  8
16  18  8
17  18  8
5  20  6
8  15  6

$$$$

