   Color/Form
        Pale yellow orthorhombic crystals from ethanol
   from [1]HSDB

   Melting Point
        152-156 deg C (decomposes)
   from [2]HSDB

   Density/Specific Gravity
        1.3448 g/cu cm
   from [3]HSDB

   Dissociation Constants
        pKa1 = 4.3 (coumarin hydroxyl)
   from [4]HSDB

   Octanol/Water Partition Coefficient
        log Kow = 2.5 (est)
   from [5]HSDB

   Solubilities

     * Sol in aq soln above pH 7.5. Practically insol in more acidic
       solns. Sol in acetone, ethyl acetate, amyl acetate, lower alcohols,
       pyridine.
     * In water, 4.0 mg/L at 25 deg C (est)

   from [6]HSDB

   Spectral Properties

     * UV max = 307 nm (0.1N NaOH; E at 1% and 1cm = 600), 324 nm (0.1N
       methanolic HCl; E at 1% and 1cm = 390), 390 nm (pH 7 phosphate
       buffer; E at 1% and 1cm = 350)
     * Specific optical rotation at 24 deg C for D (sodium) line = -63.0
       deg (c = 1 in ethanol)

   from [7]HSDB

   Vapor Pressure
        4.9X10-27 mm Hg at 25 deg C (est)
   from [8]HSDB

   Other Chemical/Physical Properties

     * Mol wt: 634.60. Minute crystals, dec 220 deg C. Specific optical
       rotation at 24 deg C for D (sodium) line = -38 deg (c = 2.5 in 95%
       ethanol); Specific optical rotation at 24 deg C for D (sodium) line
       = -33 deg (c = 2.5 in water). Freely sol in water. A 100 mg/ml soln
       has a pH of 7.5 and a half-life of about 30 days at 25 deg C and
       several months at 4 deg C /Monosodium salt/
     * Henry's Law constant = 1.3X10-28 atm-cu m/mol at 25 deg C (est)
     * Hydroxyl radical reaction rate constant = 2.7X10-10 cu
       cm/molecule-sec at 25 deg C (est)
     * Ozone reaction rate constant = 4.5X10-16 cu cm/molecule-sec at 25
       deg C (est)

   from [9]HSDB

   Computed Properties
   Molecular Weight                  612.62434 [g/mol]
   Molecular Formula                 C[31]H[36]N[2]O[11]
   XLogP3-AA                         3.3
   H-Bond Donor                      5
   H-Bond Acceptor                   11
   Rotatable Bond Count              9
   Tautomer Count                    82
   Exact Mass                        612.23191
   MonoIsotopic Mass                 612.23191
   Topological Polar Surface Area    196
   Heavy Atom Count                  44
   Formal Charge                     0
   Complexity                        1150
   Isotope Atom Count                0
   Defined Atom Stereocenter Count   4
   Undefined Atom Stereocenter Count 0
   Defined Bond Stereocenter Count   0
   Undefined Bond Stereocenter Count 0
   Covalently-Bonded Unit Count      1
   Feature 3D Acceptor Count         7
   Feature 3D Donor Count            5
   Feature 3D Hydrophobe Count       2
   Feature 3D Ring Count             4
   Effective Rotor Count             11.2
   Conformer Sampling RMSD           1.2
   CID Conformer Count               [10]140

References

   1. http://toxnet.nlm.nih.gov/cgi-bin/sis/search/r?dbs+hsdb:@term+@rn+@rel+303-81-1
   2. http://toxnet.nlm.nih.gov/cgi-bin/sis/search/r?dbs+hsdb:@term+@rn+@rel+303-81-1
   3. http://toxnet.nlm.nih.gov/cgi-bin/sis/search/r?dbs+hsdb:@term+@rn+@rel+303-81-1
   4. http://toxnet.nlm.nih.gov/cgi-bin/sis/search/r?dbs+hsdb:@term+@rn+@rel+303-81-1
   5. http://toxnet.nlm.nih.gov/cgi-bin/sis/search/r?dbs+hsdb:@term+@rn+@rel+303-81-1
   6. http://toxnet.nlm.nih.gov/cgi-bin/sis/search/r?dbs+hsdb:@term+@rn+@rel+303-81-1
   7. http://toxnet.nlm.nih.gov/cgi-bin/sis/search/r?dbs+hsdb:@term+@rn+@rel+303-81-1
   8. http://toxnet.nlm.nih.gov/cgi-bin/sis/search/r?dbs+hsdb:@term+@rn+@rel+303-81-1
   9. http://toxnet.nlm.nih.gov/cgi-bin/sis/search/r?dbs+hsdb:@term+@rn+@rel+303-81-1
  10. http://pubchem.ncbi.nlm.nih.gov/vw3d/vw3d.cgi?cid=54675769
