   Color/Form
        Crystals from methanol
   from [1]HSDB

   Melting Point
        160.5 to 161.5 deg C
   from [2]HSDB

   Dissociation Constants
        pKa = 4.3
   from [3]HSDB

   Octanol/Water Partition Coefficient
        log Kow = 4.19
   from [4]HSDB

   Solubilities

     * Slightly soluble in alcohol. Insoluble in water
     * In water, 8.8 mg/L at 25 deg C (est)

   from [5]HSDB

   Vapor Pressure
        1.8X10-9 mm Hg at 25 deg C (est)
   from [6]HSDB

   Other Chemical/Physical Properties

     * Henry's Law constant = 3.5X10-13 atm-cu m/mole at 25 deg C (est)
     * Hydroxyl radical reaction rate constant = 1.8X10-11 cu
       cm/molecule-sec at 25 deg C (est)

   from [7]HSDB

   Computed Properties
   Molecular Weight                  293.3166 [g/mol]
   Molecular Formula                 C[18]H[15]NO[3]
   XLogP3                            4.2
   H-Bond Donor                      1
   H-Bond Acceptor                   4
   Rotatable Bond Count              5
   Tautomer Count                    2
   Exact Mass                        293.105193
   MonoIsotopic Mass                 293.105193
   Topological Polar Surface Area    63.3
   Heavy Atom Count                  22
   Formal Charge                     0
   Complexity                        361
   Isotope Atom Count                0
   Defined Atom Stereocenter Count   0
   Undefined Atom Stereocenter Count 0
   Defined Bond Stereocenter Count   0
   Undefined Bond Stereocenter Count 0
   Covalently-Bonded Unit Count      1
   Feature 3D Acceptor Count         2
   Feature 3D Anion Count            1
   Feature 3D Ring Count             3
   Effective Rotor Count             5
   Conformer Sampling RMSD           0.8
   CID Conformer Count               [8]18

References

   1. http://toxnet.nlm.nih.gov/cgi-bin/sis/search/r?dbs+hsdb:@term+@rn+@rel+21256-18-8
   2. http://toxnet.nlm.nih.gov/cgi-bin/sis/search/r?dbs+hsdb:@term+@rn+@rel+21256-18-8
   3. http://toxnet.nlm.nih.gov/cgi-bin/sis/search/r?dbs+hsdb:@term+@rn+@rel+21256-18-8
   4. http://toxnet.nlm.nih.gov/cgi-bin/sis/search/r?dbs+hsdb:@term+@rn+@rel+21256-18-8
   5. http://toxnet.nlm.nih.gov/cgi-bin/sis/search/r?dbs+hsdb:@term+@rn+@rel+21256-18-8
   6. http://toxnet.nlm.nih.gov/cgi-bin/sis/search/r?dbs+hsdb:@term+@rn+@rel+21256-18-8
   7. http://toxnet.nlm.nih.gov/cgi-bin/sis/search/r?dbs+hsdb:@term+@rn+@rel+21256-18-8
   8. http://pubchem.ncbi.nlm.nih.gov/vw3d/vw3d.cgi?cid=4614
