47205106
  -OEChem-06241222582D

 29 31  0     0  0  0  0  0  0999 V2000
    4.6783    0.3526    0.0000 S   0  0  0  0  0  0  0  0  0  0  0  0
    6.7619    2.0234    0.0000 O   0  0  0  0  0  0  0  0  0  0  0  0
    6.7619    0.2913    0.0000 N   0  0  0  0  0  0  0  0  0  0  0  0
    7.8551   -1.4882    0.0000 N   0  0  0  0  0  0  0  0  0  0  0  0
    8.5983   -2.1574    0.0000 N   0  0  0  0  0  0  0  0  0  0  0  0
    3.7320    1.6574    0.0000 C   0  0  0  0  0  0  0  0  0  0  0  0
    3.7320    0.6574    0.0000 C   0  0  0  0  0  0  0  0  0  0  0  0
    5.2619    1.1574    0.0000 C   0  0  0  0  0  0  0  0  0  0  0  0
    7.7619    0.2913    0.0000 C   0  0  0  0  0  0  0  0  0  0  0  0
    4.6783    1.9621    0.0000 C   0  0  0  0  0  0  0  0  0  0  0  0
    8.2619   -0.5747    0.0000 C   0  0  0  0  0  0  0  0  0  0  0  0
    6.2619    1.1574    0.0000 C   0  0  0  0  0  0  0  0  0  0  0  0
    2.8660    2.1574    0.0000 C   0  0  0  0  0  0  0  0  0  0  0  0
    2.8660    0.1574    0.0000 C   0  0  0  0  0  0  0  0  0  0  0  0
    2.0000    1.6574    0.0000 C   0  0  0  0  0  0  0  0  0  0  0  0
    2.0000    0.6574    0.0000 C   0  0  0  0  0  0  0  0  0  0  0  0
    9.2564   -0.6792    0.0000 C   0  0  0  0  0  0  0  0  0  0  0  0
    9.4643   -1.6574    0.0000 C   0  0  0  0  0  0  0  0  0  0  0  0
    8.3445    0.5034    0.0000 H   0  0  0  0  0  0  0  0  0  0  0  0
    7.6542    0.9019    0.0000 H   0  0  0  0  0  0  0  0  0  0  0  0
    4.8709    2.5514    0.0000 H   0  0  0  0  0  0  0  0  0  0  0  0
    6.4519   -0.2456    0.0000 H   0  0  0  0  0  0  0  0  0  0  0  0
    2.8660    2.7774    0.0000 H   0  0  0  0  0  0  0  0  0  0  0  0
    2.8660   -0.4626    0.0000 H   0  0  0  0  0  0  0  0  0  0  0  0
    1.4631    1.9674    0.0000 H   0  0  0  0  0  0  0  0  0  0  0  0
    9.6713   -0.2185    0.0000 H   0  0  0  0  0  0  0  0  0  0  0  0
    1.4631    0.3474    0.0000 H   0  0  0  0  0  0  0  0  0  0  0  0
    7.2487   -1.6171    0.0000 H   0  0  0  0  0  0  0  0  0  0  0  0
   10.0307   -1.9095    0.0000 H   0  0  0  0  0  0  0  0  0  0  0  0
  1  7  1  0  0  0  0
  1  8  1  0  0  0  0
  2 12  2  0  0  0  0
  3  9  1  0  0  0  0
  3 12  1  0  0  0  0
  3 22  1  0  0  0  0
  4  5  1  0  0  0  0
  4 11  1  0  0  0  0
  4 28  1  0  0  0  0
  5 18  2  0  0  0  0
  6  7  1  0  0  0  0
  6 10  1  0  0  0  0
  6 13  2  0  0  0  0
  7 14  2  0  0  0  0
  8 10  2  0  0  0  0
  8 12  1  0  0  0  0
  9 11  1  0  0  0  0
  9 19  1  0  0  0  0
  9 20  1  0  0  0  0
 10 21  1  0  0  0  0
 11 17  2  0  0  0  0
 13 15  1  0  0  0  0
 13 23  1  0  0  0  0
 14 16  1  0  0  0  0
 14 24  1  0  0  0  0
 15 16  2  0  0  0  0
 15 25  1  0  0  0  0
 16 27  1  0  0  0  0
 17 18  1  0  0  0  0
 17 26  1  0  0  0  0
 18 29  1  0  0  0  0
M  END
> <PUBCHEM_COMPOUND_CID>
47205106

> <PUBCHEM_COMPOUND_CANONICALIZED>
1

> <PUBCHEM_CACTVS_COMPLEXITY>
313

> <PUBCHEM_CACTVS_HBOND_ACCEPTOR>
3

> <PUBCHEM_CACTVS_HBOND_DONOR>
2

> <PUBCHEM_CACTVS_ROTATABLE_BOND>
3

> <PUBCHEM_CACTVS_SUBSKEYS>
AAADccBzIABAAAAAAAAAAAAAAAAAAWJAAAAwAAAAAAAAAEgB/AAAHgQYAAAADAjB3gQ8gdLjAAiuAzV3UACTBIAkihBYubk4ZNgIYLKg1dGUpQhgngCoyYcYiICOAAAAAAAEAAAAAAAAAAgAAAAAAAAAAA==

> <PUBCHEM_IUPAC_OPENEYE_NAME>
N-(1H-pyrazol-5-ylmethyl)benzothiophene-2-carboxamide

> <PUBCHEM_IUPAC_CAS_NAME>
N-(1H-pyrazol-5-ylmethyl)-1-benzothiophene-2-carboxamide

> <PUBCHEM_IUPAC_NAME>
N-(1H-pyrazol-5-ylmethyl)-1-benzothiophene-2-carboxamide

> <PUBCHEM_IUPAC_SYSTEMATIC_NAME>
N-(1H-pyrazol-5-ylmethyl)-1-benzothiophene-2-carboxamide

> <PUBCHEM_IUPAC_TRADITIONAL_NAME>
N-(1H-pyrazol-5-ylmethyl)benzothiophene-2-carboxamide

> <PUBCHEM_IUPAC_INCHI>
InChI=1S/C13H11N3OS/c17-13(14-8-10-5-6-15-16-10)12-7-9-3-1-2-4-11(9)18-12/h1-7H,8H2,(H,14,17)(H,15,16)

> <PUBCHEM_IUPAC_INCHIKEY>
LKJOBMPGGJLKPU-UHFFFAOYSA-N

> <PUBCHEM_XLOGP3_AA>
2.4

> <PUBCHEM_EXACT_MASS>
257.062283

> <PUBCHEM_MOLECULAR_FORMULA>
C13H11N3OS

> <PUBCHEM_MOLECULAR_WEIGHT>
257.31094

> <PUBCHEM_OPENEYE_CAN_SMILES>
C1=CC=C2C(=C1)C=C(S2)C(=O)NCC3=CC=NN3

> <PUBCHEM_OPENEYE_ISO_SMILES>
C1=CC=C2C(=C1)C=C(S2)C(=O)NCC3=CC=NN3

> <PUBCHEM_CACTVS_TPSA>
86

> <PUBCHEM_MONOISOTOPIC_WEIGHT>
257.062283

> <PUBCHEM_TOTAL_CHARGE>
0

> <PUBCHEM_HEAVY_ATOM_COUNT>
18

> <PUBCHEM_ATOM_DEF_STEREO_COUNT>
0

> <PUBCHEM_ATOM_UDEF_STEREO_COUNT>
0

> <PUBCHEM_BOND_DEF_STEREO_COUNT>
0

> <PUBCHEM_BOND_UDEF_STEREO_COUNT>
0

> <PUBCHEM_ISOTOPIC_ATOM_COUNT>
0

> <PUBCHEM_COMPONENT_COUNT>
1

> <PUBCHEM_CACTVS_TAUTO_COUNT>
4

> <PUBCHEM_COORDINATE_TYPE>
1
5
255

> <PUBCHEM_BONDANNOTATIONS>
1  7  8
1  8  8
11  17  8
13  15  8
14  16  8
15  16  8
17  18  8
4  11  8
4  5  8
5  18  8
6  10  8
6  13  8
6  7  8
7  14  8
8  10  8

$$$$

