9003
  -OEChem-06261203192D

 57 59  0     1  0  0  0  0  0999 V2000
   11.9216    5.0559    0.0000 Br  0  5  0  0  0  0  0  0  0  0  0  0
    0.0000    4.3953    0.0000 O   0  0  0  0  0  0  0  0  0  0  0  0
    6.1803    4.7214    0.0000 O   0  0  0  0  0  0  0  0  0  0  0  0
    5.7320    3.0484    0.0000 O   0  0  0  0  0  0  0  0  0  0  0  0
    9.0780    3.9449    0.0000 O   0  0  0  0  0  0  0  0  0  0  0  0
    2.2547    7.3441    0.0000 N   0  3  0  0  0  0  0  0  0  0  0  0
    2.9913    6.3615    0.0000 C   0  0  2  0  0  0  0  0  0  0  0  0
    2.7325    5.3955    0.0000 C   0  0  2  0  0  0  0  0  0  0  0  0
    0.5004    5.2616    0.0000 C   0  0  2  0  0  0  0  0  0  0  0  0
    1.0004    4.3955    0.0000 C   0  0  1  0  0  0  0  0  0  0  0  0
    4.4372    4.3509    0.0000 C   0  0  0  0  0  0  0  0  0  0  0  0
    4.8560    5.9138    0.0000 C   0  0  0  0  0  0  0  0  0  0  0  0
    5.2143    4.9802    0.0000 C   0  0  0  0  0  0  0  0  0  0  0  0
    2.3592    8.3386    0.0000 C   0  0  0  0  0  0  0  0  0  0  0  0
    1.3412    7.7508    0.0000 C   0  0  0  0  0  0  0  0  0  0  0  0
    3.2728    8.7453    0.0000 C   0  0  0  0  0  0  0  0  0  0  0  0
    3.3773    9.7398    0.0000 C   0  0  0  0  0  0  0  0  0  0  0  0
    6.4391    3.7555    0.0000 C   0  0  0  0  0  0  0  0  0  0  0  0
    4.2908   10.1466    0.0000 C   0  0  0  0  0  0  0  0  0  0  0  0
    7.4050    3.4966    0.0000 C   0  0  3  0  0  0  0  0  0  0  0  0
    8.1121    4.2038    0.0000 C   0  0  0  0  0  0  0  0  0  0  0  0
    7.6638    2.5307    0.0000 C   0  0  0  0  0  0  0  0  0  0  0  0
    6.9567    1.8236    0.0000 C   0  0  0  0  0  0  0  0  0  0  0  0
    8.6298    2.2719    0.0000 C   0  0  0  0  0  0  0  0  0  0  0  0
    7.2155    0.8577    0.0000 C   0  0  0  0  0  0  0  0  0  0  0  0
    8.8886    1.3060    0.0000 C   0  0  0  0  0  0  0  0  0  0  0  0
    8.1815    0.5989    0.0000 C   0  0  0  0  0  0  0  0  0  0  0  0
    3.2113    7.1825    0.0000 H   0  0  0  0  0  0  0  0  0  0  0  0
    2.5125    4.5745    0.0000 H   0  0  0  0  0  0  0  0  0  0  0  0
    0.1904    5.7985    0.0000 H   0  0  0  0  0  0  0  0  0  0  0  0
    1.3104    3.8586    0.0000 H   0  0  0  0  0  0  0  0  0  0  0  0
    4.0555    3.8623    0.0000 H   0  0  0  0  0  0  0  0  0  0  0  0
    4.8794    3.9163    0.0000 H   0  0  0  0  0  0  0  0  0  0  0  0
    5.4675    6.0161    0.0000 H   0  0  0  0  0  0  0  0  0  0  0  0
    4.8776    6.5334    0.0000 H   0  0  0  0  0  0  0  0  0  0  0  0
    5.6292    5.4410    0.0000 H   0  0  0  0  0  0  0  0  0  0  0  0
    2.2092    8.9402    0.0000 H   0  0  0  0  0  0  0  0  0  0  0  0
    1.7407    8.2953    0.0000 H   0  0  0  0  0  0  0  0  0  0  0  0
    1.5933    8.3172    0.0000 H   0  0  0  0  0  0  0  0  0  0  0  0
    0.7748    8.0030    0.0000 H   0  0  0  0  0  0  0  0  0  0  0  0
    1.0890    7.1844    0.0000 H   0  0  0  0  0  0  0  0  0  0  0  0
    3.4228    8.1438    0.0000 H   0  0  0  0  0  0  0  0  0  0  0  0
    3.8913    8.7886    0.0000 H   0  0  0  0  0  0  0  0  0  0  0  0
    3.2273   10.3414    0.0000 H   0  0  0  0  0  0  0  0  0  0  0  0
    2.7588    9.6966    0.0000 H   0  0  0  0  0  0  0  0  0  0  0  0
    4.5430    9.5802    0.0000 H   0  0  0  0  0  0  0  0  0  0  0  0
    4.8572   10.3988    0.0000 H   0  0  0  0  0  0  0  0  0  0  0  0
    4.0387   10.7130    0.0000 H   0  0  0  0  0  0  0  0  0  0  0  0
    8.0039    3.3362    0.0000 H   0  0  0  0  0  0  0  0  0  0  0  0
    8.3741    4.7657    0.0000 H   0  0  0  0  0  0  0  0  0  0  0  0
    7.6042    4.5594    0.0000 H   0  0  0  0  0  0  0  0  0  0  0  0
    6.3578    1.9841    0.0000 H   0  0  0  0  0  0  0  0  0  0  0  0
    9.0682    2.7103    0.0000 H   0  0  0  0  0  0  0  0  0  0  0  0
    9.5165    4.3834    0.0000 H   0  0  0  0  0  0  0  0  0  0  0  0
    6.7771    0.4193    0.0000 H   0  0  0  0  0  0  0  0  0  0  0  0
    9.4874    1.1455    0.0000 H   0  0  0  0  0  0  0  0  0  0  0  0
    8.3419    0.0000    0.0000 H   0  0  0  0  0  0  0  0  0  0  0  0
  9  2  1  6  0  0  0
 10  2  1  6  0  0  0
  3 13  1  0  0  0  0
  3 18  1  0  0  0  0
  4 18  2  0  0  0  0
  5 21  1  0  0  0  0
  5 54  1  0  0  0  0
  6  7  1  0  0  0  0
  6  8  1  0  0  0  0
  6 14  1  0  0  0  0
  6 15  1  0  0  0  0
  7  9  1  0  0  0  0
  7 12  1  0  0  0  0
  7 28  1  6  0  0  0
  8 10  1  0  0  0  0
  8 11  1  0  0  0  0
  8 29  1  6  0  0  0
  9 10  1  0  0  0  0
  9 30  1  0  0  0  0
 10 31  1  0  0  0  0
 11 13  1  0  0  0  0
 11 32  1  0  0  0  0
 11 33  1  0  0  0  0
 12 13  1  0  0  0  0
 12 34  1  0  0  0  0
 12 35  1  0  0  0  0
 13 36  1  0  0  0  0
 14 16  1  0  0  0  0
 14 37  1  0  0  0  0
 14 38  1  0  0  0  0
 15 39  1  0  0  0  0
 15 40  1  0  0  0  0
 15 41  1  0  0  0  0
 16 17  1  0  0  0  0
 16 42  1  0  0  0  0
 16 43  1  0  0  0  0
 17 19  1  0  0  0  0
 17 44  1  0  0  0  0
 17 45  1  0  0  0  0
 18 20  1  0  0  0  0
 19 46  1  0  0  0  0
 19 47  1  0  0  0  0
 19 48  1  0  0  0  0
 20 21  1  0  0  0  0
 20 22  1  0  0  0  0
 20 49  1  0  0  0  0
 21 50  1  0  0  0  0
 21 51  1  0  0  0  0
 22 23  2  0  0  0  0
 22 24  1  0  0  0  0
 23 25  1  0  0  0  0
 23 52  1  0  0  0  0
 24 26  2  0  0  0  0
 24 53  1  0  0  0  0
 25 27  2  0  0  0  0
 25 55  1  0  0  0  0
 26 27  1  0  0  0  0
 26 56  1  0  0  0  0
 27 57  1  0  0  0  0
M  CHG  2   1  -1   6   1
M  END
> <PUBCHEM_COMPOUND_CID>
9003

> <PUBCHEM_COMPOUND_CANONICALIZED>
1

> <PUBCHEM_CACTVS_COMPLEXITY>
500

> <PUBCHEM_CACTVS_HBOND_ACCEPTOR>
5

> <PUBCHEM_CACTVS_HBOND_DONOR>
1

> <PUBCHEM_CACTVS_ROTATABLE_BOND>
8

> <PUBCHEM_CACTVS_SUBSKEYS>
AAADceB6OAAAEAAAAAAAAAAAEgAAAWAAAAA8WIAABgAAAAABAAAAHgAACAAADTzhmAYyCIMABgCIAiDSCAACAAAgAAAIiAEIAIgKMDaAlRCHYAAn4AGYiAfY6OyOgAAAAAAAAAAAAAAAAAAAAAAAAAAAAA==

> <PUBCHEM_IUPAC_INCHI>
InChI=1S/C21H30NO4.BrH/c1-3-4-10-22(2)17-11-15(12-18(22)20-19(17)26-20)25-21(24)16(13-23)14-8-6-5-7-9-14;/h5-9,15-20,23H,3-4,10-13H2,1-2H3;1H/q+1;/p-1/t15?,16?,17-,18-,19-,20+,22?;/m0./s1

> <PUBCHEM_IUPAC_INCHIKEY>
HOZOZZFCZRXYEK-GXLSIKBRSA-M

> <PUBCHEM_EXACT_MASS>
439.135821

> <PUBCHEM_MOLECULAR_FORMULA>
C21H30BrNO4

> <PUBCHEM_MOLECULAR_WEIGHT>
440.3712

> <PUBCHEM_OPENEYE_CAN_SMILES>
CCCC[N+]1(C2CC(CC1C3C2O3)OC(=O)C(CO)C4=CC=CC=C4)C.[Br-]

> <PUBCHEM_OPENEYE_ISO_SMILES>
CCCC[N+]1([C@H]2CC(C[C@H]1[C@H]3[C@@H]2O3)OC(=O)C(CO)C4=CC=CC=C4)C.[Br-]

> <PUBCHEM_CACTVS_TPSA>
59.1

> <PUBCHEM_MONOISOTOPIC_WEIGHT>
439.135821

> <PUBCHEM_TOTAL_CHARGE>
0

> <PUBCHEM_HEAVY_ATOM_COUNT>
27

> <PUBCHEM_ATOM_DEF_STEREO_COUNT>
4

> <PUBCHEM_ATOM_UDEF_STEREO_COUNT>
1

> <PUBCHEM_BOND_DEF_STEREO_COUNT>
0

> <PUBCHEM_BOND_UDEF_STEREO_COUNT>
0

> <PUBCHEM_ISOTOPIC_ATOM_COUNT>
0

> <PUBCHEM_COMPONENT_COUNT>
2

> <PUBCHEM_CACTVS_TAUTO_COUNT>
1

> <PUBCHEM_COORDINATE_TYPE>
1
5
255

> <PUBCHEM_BONDANNOTATIONS>
10  2  6
9  2  6
20  21  3
22  23  8
22  24  8
23  25  8
24  26  8
25  27  8
26  27  8
7  28  6
8  29  6

$$$$

