   Color/Form

     * Monoclinic leaf from water crystallization
     * Monoclinic leaflets, plates from benzene crystallization
     * Colorless crystals
     * Yellow-white crystals

   from [1]HSDB

   Melting Point
        Sublimes
   from [2]HSDB

   Density/Specific Gravity
        1.5997
   from [3]HSDB

   Dissociation Constants
        pKa = 3.44
   from [4]HSDB

   Heat of Combustion
        3881 kJ/mol
   from [5]HSDB

   Octanol/Water Partition Coefficient
        log Kow = 1.89
   from [6]HSDB

   pH
        pH = 2.80
   from [7]HSDB

   Solubilities

     * SOL IN ALCOHOL, HOT WATER
     * Insoluble in cold water
     * One gram dissolves in 2380 mL water, 110 mL alcohol, 12 mL
       methanol, 150 mL chloroform, 45 mL ether, 20 mL acetone; slightly
       soluble in benzene, carbon disulfide; insol in petroleum ether.
     * In water, 200 mg/L at 25 deg C

   from [8]HSDB

   Spectral Properties

     * MAX ABSORPTION (ALCOHOL): 258 NM (LOG E= 4.08); 294 NM SHOULDER
       (LOG E= 3.40)
     * SADTLER REFERENCE NUMBER: 1826 (IR, PRISM)
     * Intense mass spectral peaks at 65 m/z, 121 m/z, and 167 m/z
     * IR: 8203 (Sadtler Research Laboratories IR Grating Collection)
     * UV: 513 (Sadtler Research Laboratories Spectral Collection)
     * 1H NMR: 17047 (Sadtler Research Laboratories Spectral Collection)
     * MASS: 6402 (NIST/EPA/MSDC Mass Spectral Database, 1990 version)

   from [9]HSDB

   Vapor Pressure
        2.53X10-6 mm Hg at 25 deg C (est)
   from [10]HSDB

   Other Chemical/Physical Properties

     * Heat of fusion = 37.02 kJ/mol; heat of fusion = 37.02 kJ/mol
     * Henry's Law constant = 3.79X10-10 atm-cu m/mole at 25 deg C (est)
     * Hydroxyl radical reaction rate constant = 5.86X10-13 cu
       cm/molec-sec at 25 deg C (est)

   from [11]HSDB

   Computed Properties
   Molecular Weight                  167.1189 [g/mol]
   Molecular Formula                 C[7]H[5]NO[4]
   XLogP3                            1.9
   H-Bond Donor                      1
   H-Bond Acceptor                   4
   Rotatable Bond Count              1
   Exact Mass                        167.021858
   MonoIsotopic Mass                 167.021858
   Topological Polar Surface Area    83.1
   Heavy Atom Count                  12
   Formal Charge                     0
   Complexity                        190
   Isotope Atom Count                0
   Defined Atom Stereocenter Count   0
   Undefined Atom Stereocenter Count 0
   Defined Bond Stereocenter Count   0
   Undefined Bond Stereocenter Count 0
   Covalently-Bonded Unit Count      1
   Feature 3D Acceptor Count         4
   Feature 3D Anion Count            2
   Feature 3D Ring Count             1
   Effective Rotor Count             2
   Conformer Sampling RMSD           0.6
   CID Conformer Count               [12]2

References

   1. http://toxnet.nlm.nih.gov/cgi-bin/sis/search/r?dbs+hsdb:@term+@rn+@rel+62-23-7
   2. http://toxnet.nlm.nih.gov/cgi-bin/sis/search/r?dbs+hsdb:@term+@rn+@rel+62-23-7
   3. http://toxnet.nlm.nih.gov/cgi-bin/sis/search/r?dbs+hsdb:@term+@rn+@rel+62-23-7
   4. http://toxnet.nlm.nih.gov/cgi-bin/sis/search/r?dbs+hsdb:@term+@rn+@rel+62-23-7
   5. http://toxnet.nlm.nih.gov/cgi-bin/sis/search/r?dbs+hsdb:@term+@rn+@rel+62-23-7
   6. http://toxnet.nlm.nih.gov/cgi-bin/sis/search/r?dbs+hsdb:@term+@rn+@rel+62-23-7
   7. http://toxnet.nlm.nih.gov/cgi-bin/sis/search/r?dbs+hsdb:@term+@rn+@rel+62-23-7
   8. http://toxnet.nlm.nih.gov/cgi-bin/sis/search/r?dbs+hsdb:@term+@rn+@rel+62-23-7
   9. http://toxnet.nlm.nih.gov/cgi-bin/sis/search/r?dbs+hsdb:@term+@rn+@rel+62-23-7
  10. http://toxnet.nlm.nih.gov/cgi-bin/sis/search/r?dbs+hsdb:@term+@rn+@rel+62-23-7
  11. http://toxnet.nlm.nih.gov/cgi-bin/sis/search/r?dbs+hsdb:@term+@rn+@rel+62-23-7
  12. http://pubchem.ncbi.nlm.nih.gov/vw3d/vw3d.cgi?cid=6108
