   Chemical and Physical Properties References

   [1]USDA ARS - USDA chemical properties
   from [2]ChemIDplus

   Color/Form

     * COLORLESS CRYSTALS
     * Light-tan, flaked solid
     * White, crystalline substance
     * Colorless to light-tan crystals.

   from [3]HSDB

   Odor
        Mild, chemical odor.
   from [4]HSDB

   Melting Point
        175.5 deg C
   from [5]HSDB

   Corrosivity
        Slightly corrosive to metals
   from [6]HSDB

   Density/Specific Gravity
        1.75
   from [7]HSDB

   Octanol/Water Partition Coefficient
        log Kow= 5.40
   from [8]HSDB

   Solubilities

     * SLIGHTLY SOL IN MINERAL OILS, MODERATELY SOL IN ACETONE
     * Soluble in aromatic solvents; moderately soluble in acetone
     * Insol in methanol, aliphatic hydrocarbons; soluble in benzene
     * 48 g/100 ml ethylene dichloride at 20 deg C
     * In acetone 220, ethanol 40, dichloromethane 480, benzene 400,
       toluene 410, carbon tetrachloride 380, methanol 10 (all in g/l at
       20 deg C)
     * In water, 0.195 mg/l @ 25 deg C

   from [9]HSDB

   Spectral Properties

     * Intense mass spectral peaks: 79 m/z (100%), 82 m/z (42%), 81 m/z
       (35%), 108 m/z (21%)
     * IR: 15769 (Sadtler Research Laboratories Prism Collection)
     * MASS: 2951 (National Bureau of Standards EPA-NIH Mass Spectra Data
       Base, NSRDS-NBS-63)
     * Strong absorbance @ 220 nm; weak absorbance @ 280 nm

   from [10]HSDB

   Vapor Density
        13.2 (Air=1)
   from [11]HSDB

   Vapor Pressure
        5.89X10-6 mm Hg @ 25 deg C
   from [12]HSDB

   Other Chemical/Physical Properties

     * BUFF TO LIGHT BROWN FLAKES /TECHNICAL GRADE/
     * ... Reacts with anhydrous hydrogen bromide to give the bromohydrin.
     * A stereoisomer of endrin.
     * Vapor pressure at 20 deg C: 3.1X10-6 mm Hg
     * Compatible with most fertilizers, herbicides, fungicides, and
       insecticides.
     * Henry's Law Constant = 1X10-5 atm-cu m/mole @ 25 deg C

   from [13]HSDB

   Computed Properties
   Molecular Weight                  380.90932 [g/mol]
   Molecular Formula                 C[12]H[8]Cl[6]O
   XLogP3-AA                         3.7
   H-Bond Donor                      0
   H-Bond Acceptor                   1
   Rotatable Bond Count              0
   Exact Mass                        379.867681
   MonoIsotopic Mass                 377.870631
   Topological Polar Surface Area    12.5
   Heavy Atom Count                  19
   Formal Charge                     0
   Complexity                        516
   Isotope Atom Count                0
   Defined Atom Stereocenter Count   8
   Undefined Atom Stereocenter Count 0
   Defined Bond Stereocenter Count   0
   Undefined Bond Stereocenter Count 0
   Covalently-Bonded Unit Count      1
   Feature 3D Acceptor Count         1
   Feature 3D Ring Count             2
   Effective Rotor Count             0.6
   Conformer Sampling RMSD           0.6
   CID Conformer Count               [14]1

References

   1. http://www.ars.usda.gov/SP2UserFiles/ad_hoc/12755100DatabaseFiles/PesticidePropertiesDatabase/IndividualPesticideFiles/DIELDRIN.TXT
   2. http://chem.sis.nlm.nih.gov/chemidplus/
   3. http://toxnet.nlm.nih.gov/cgi-bin/sis/search/r?dbs+hsdb:@term+@rn+@rel+60-57-1
   4. http://toxnet.nlm.nih.gov/cgi-bin/sis/search/r?dbs+hsdb:@term+@rn+@rel+60-57-1
   5. http://toxnet.nlm.nih.gov/cgi-bin/sis/search/r?dbs+hsdb:@term+@rn+@rel+60-57-1
   6. http://toxnet.nlm.nih.gov/cgi-bin/sis/search/r?dbs+hsdb:@term+@rn+@rel+60-57-1
   7. http://toxnet.nlm.nih.gov/cgi-bin/sis/search/r?dbs+hsdb:@term+@rn+@rel+60-57-1
   8. http://toxnet.nlm.nih.gov/cgi-bin/sis/search/r?dbs+hsdb:@term+@rn+@rel+60-57-1
   9. http://toxnet.nlm.nih.gov/cgi-bin/sis/search/r?dbs+hsdb:@term+@rn+@rel+60-57-1
  10. http://toxnet.nlm.nih.gov/cgi-bin/sis/search/r?dbs+hsdb:@term+@rn+@rel+60-57-1
  11. http://toxnet.nlm.nih.gov/cgi-bin/sis/search/r?dbs+hsdb:@term+@rn+@rel+60-57-1
  12. http://toxnet.nlm.nih.gov/cgi-bin/sis/search/r?dbs+hsdb:@term+@rn+@rel+60-57-1
  13. http://toxnet.nlm.nih.gov/cgi-bin/sis/search/r?dbs+hsdb:@term+@rn+@rel+60-57-1
  14. http://pubchem.ncbi.nlm.nih.gov/vw3d/vw3d.cgi?cid=969491
