51090885
  -OEChem-06241223002D

 41 42  0     0  0  0  0  0  0999 V2000
    4.5981    4.7327    0.0000 Cl  0  0  0  0  0  0  0  0  0  0  0  0
    3.7320   -1.7673    0.0000 O   0  0  0  0  0  0  0  0  0  0  0  0
    7.1962    1.2327    0.0000 O   0  0  0  0  0  0  0  0  0  0  0  0
    2.8660   -4.2673    0.0000 O   0  0  0  0  0  0  0  0  0  0  0  0
    5.4641    1.2327    0.0000 N   0  0  0  0  0  0  0  0  0  0  0  0
    8.0901    2.6980    0.0000 N   0  0  0  0  0  0  0  0  0  0  0  0
    4.5981   -0.2673    0.0000 C   0  0  0  0  0  0  0  0  0  0  0  0
    5.4641    0.2327    0.0000 C   0  0  0  0  0  0  0  0  0  0  0  0
    4.5981   -1.2673    0.0000 C   0  0  0  0  0  0  0  0  0  0  0  0
    6.3301    2.7327    0.0000 C   0  0  0  0  0  0  0  0  0  0  0  0
    7.1962    3.2327    0.0000 C   0  0  0  0  0  0  0  0  0  0  0  0
    6.3301    1.7327    0.0000 C   0  0  0  0  0  0  0  0  0  0  0  0
    7.1962    4.2327    0.0000 C   0  0  0  0  0  0  0  0  0  0  0  0
    5.4641    3.2327    0.0000 C   0  0  0  0  0  0  0  0  0  0  0  0
    3.7320   -2.7673    0.0000 C   0  0  0  0  0  0  0  0  0  0  0  0
    6.3301    4.7327    0.0000 C   0  0  0  0  0  0  0  0  0  0  0  0
    5.4641    4.2327    0.0000 C   0  0  0  0  0  0  0  0  0  0  0  0
    8.0901    4.7673    0.0000 C   0  0  0  0  0  0  0  0  0  0  0  0
    2.8660   -3.2673    0.0000 C   0  0  0  0  0  0  0  0  0  0  0  0
    8.9962    4.2535    0.0000 C   0  0  0  0  0  0  0  0  0  0  0  0
    8.9962    3.2118    0.0000 C   0  0  0  0  0  0  0  0  0  0  0  0
    2.0000   -4.7673    0.0000 C   0  0  0  0  0  0  0  0  0  0  0  0
    4.3860    0.3153    0.0000 H   0  0  0  0  0  0  0  0  0  0  0  0
    3.9875   -0.3750    0.0000 H   0  0  0  0  0  0  0  0  0  0  0  0
    5.6762   -0.3499    0.0000 H   0  0  0  0  0  0  0  0  0  0  0  0
    6.0747    0.3403    0.0000 H   0  0  0  0  0  0  0  0  0  0  0  0
    4.8101   -1.8499    0.0000 H   0  0  0  0  0  0  0  0  0  0  0  0
    5.2087   -1.1597    0.0000 H   0  0  0  0  0  0  0  0  0  0  0  0
    4.9272    1.5427    0.0000 H   0  0  0  0  0  0  0  0  0  0  0  0
    3.9441   -3.3499    0.0000 H   0  0  0  0  0  0  0  0  0  0  0  0
    4.3426   -2.6597    0.0000 H   0  0  0  0  0  0  0  0  0  0  0  0
    4.9272    2.9227    0.0000 H   0  0  0  0  0  0  0  0  0  0  0  0
    6.3301    5.3527    0.0000 H   0  0  0  0  0  0  0  0  0  0  0  0
    8.0829    5.3873    0.0000 H   0  0  0  0  0  0  0  0  0  0  0  0
    2.6540   -2.6847    0.0000 H   0  0  0  0  0  0  0  0  0  0  0  0
    2.2554   -3.3750    0.0000 H   0  0  0  0  0  0  0  0  0  0  0  0
    9.5319    4.5656    0.0000 H   0  0  0  0  0  0  0  0  0  0  0  0
    9.5319    2.8998    0.0000 H   0  0  0  0  0  0  0  0  0  0  0  0
    1.6900   -4.2304    0.0000 H   0  0  0  0  0  0  0  0  0  0  0  0
    1.4631   -5.0773    0.0000 H   0  0  0  0  0  0  0  0  0  0  0  0
    2.3100   -5.3043    0.0000 H   0  0  0  0  0  0  0  0  0  0  0  0
  1 17  1  0  0  0  0
  2  9  1  0  0  0  0
  2 15  1  0  0  0  0
  3 12  2  0  0  0  0
  4 19  1  0  0  0  0
  4 22  1  0  0  0  0
  5  8  1  0  0  0  0
  5 12  1  0  0  0  0
  5 29  1  0  0  0  0
  6 11  1  0  0  0  0
  6 21  2  0  0  0  0
  7  8  1  0  0  0  0
  7  9  1  0  0  0  0
  7 23  1  0  0  0  0
  7 24  1  0  0  0  0
  8 25  1  0  0  0  0
  8 26  1  0  0  0  0
  9 27  1  0  0  0  0
  9 28  1  0  0  0  0
 10 11  2  0  0  0  0
 10 12  1  0  0  0  0
 10 14  1  0  0  0  0
 11 13  1  0  0  0  0
 13 16  2  0  0  0  0
 13 18  1  0  0  0  0
 14 17  2  0  0  0  0
 14 32  1  0  0  0  0
 15 19  1  0  0  0  0
 15 30  1  0  0  0  0
 15 31  1  0  0  0  0
 16 17  1  0  0  0  0
 16 33  1  0  0  0  0
 18 20  2  0  0  0  0
 18 34  1  0  0  0  0
 19 35  1  0  0  0  0
 19 36  1  0  0  0  0
 20 21  1  0  0  0  0
 20 37  1  0  0  0  0
 21 38  1  0  0  0  0
 22 39  1  0  0  0  0
 22 40  1  0  0  0  0
 22 41  1  0  0  0  0
M  END
> <PUBCHEM_COMPOUND_CID>
51090885

> <PUBCHEM_COMPOUND_CANONICALIZED>
1

> <PUBCHEM_CACTVS_COMPLEXITY>
343

> <PUBCHEM_CACTVS_HBOND_ACCEPTOR>
4

> <PUBCHEM_CACTVS_HBOND_DONOR>
1

> <PUBCHEM_CACTVS_ROTATABLE_BOND>
8

> <PUBCHEM_CACTVS_SUBSKEYS>
AAADceB7MAAEAAAAAAAAAAAAAAAAAAAAAAA8QAAAAAAAAACx8AAAHgIQAAAADArhniY+wPLIFACoAzV3VACCgCA1ByAI2KE4ZtgJIPrB15GGIYhilgDKyccYiMCOAABCIAACAAAAAIRAAAQAAAAAAAAAAA==

> <PUBCHEM_IUPAC_OPENEYE_NAME>
6-chloro-N-[3-(2-methoxyethoxy)propyl]quinoline-8-carboxamide

> <PUBCHEM_IUPAC_CAS_NAME>
6-chloro-N-[3-(2-methoxyethoxy)propyl]-8-quinolinecarboxamide

> <PUBCHEM_IUPAC_NAME>
6-chloro-N-[3-(2-methoxyethoxy)propyl]quinoline-8-carboxamide

> <PUBCHEM_IUPAC_SYSTEMATIC_NAME>
6-chloranyl-N-[3-(2-methoxyethoxy)propyl]quinoline-8-carboxamide

> <PUBCHEM_IUPAC_TRADITIONAL_NAME>
6-chloro-N-[3-(2-methoxyethoxy)propyl]quinoline-8-carboxamide

> <PUBCHEM_IUPAC_INCHI>
InChI=1S/C16H19ClN2O3/c1-21-8-9-22-7-3-6-19-16(20)14-11-13(17)10-12-4-2-5-18-15(12)14/h2,4-5,10-11H,3,6-9H2,1H3,(H,19,20)

> <PUBCHEM_IUPAC_INCHIKEY>
AAPMPVSBALQHHU-UHFFFAOYSA-N

> <PUBCHEM_XLOGP3_AA>
2.2

> <PUBCHEM_EXACT_MASS>
322.10842

> <PUBCHEM_MOLECULAR_FORMULA>
C16H19ClN2O3

> <PUBCHEM_MOLECULAR_WEIGHT>
322.78666

> <PUBCHEM_OPENEYE_CAN_SMILES>
COCCOCCCNC(=O)C1=C2C(=CC(=C1)Cl)C=CC=N2

> <PUBCHEM_OPENEYE_ISO_SMILES>
COCCOCCCNC(=O)C1=C2C(=CC(=C1)Cl)C=CC=N2

> <PUBCHEM_CACTVS_TPSA>
60.4

> <PUBCHEM_MONOISOTOPIC_WEIGHT>
322.10842

> <PUBCHEM_TOTAL_CHARGE>
0

> <PUBCHEM_HEAVY_ATOM_COUNT>
22

> <PUBCHEM_ATOM_DEF_STEREO_COUNT>
0

> <PUBCHEM_ATOM_UDEF_STEREO_COUNT>
0

> <PUBCHEM_BOND_DEF_STEREO_COUNT>
0

> <PUBCHEM_BOND_UDEF_STEREO_COUNT>
0

> <PUBCHEM_ISOTOPIC_ATOM_COUNT>
0

> <PUBCHEM_COMPONENT_COUNT>
1

> <PUBCHEM_CACTVS_TAUTO_COUNT>
2

> <PUBCHEM_COORDINATE_TYPE>
1
5
255

> <PUBCHEM_BONDANNOTATIONS>
10  11  8
10  14  8
11  13  8
13  16  8
13  18  8
14  17  8
16  17  8
18  20  8
20  21  8
6  11  8
6  21  8

$$$$

