10143
  -OEChem-07051212572D

 48 51  0     1  0  0  0  0  0999 V2000
    5.5103    1.4936    0.0000 O   0  0  0  0  0  0  0  0  0  0  0  0
    7.2762    2.5314    0.0000 O   0  0  0  0  0  0  0  0  0  0  0  0
    4.6497    0.9968    0.0000 O   0  0  0  0  0  0  0  0  0  0  0  0
    2.8680   -0.0137    0.0000 O   0  0  0  0  0  0  0  0  0  0  0  0
    8.1223   -2.0348    0.0000 N   0  0  3  0  0  0  0  0  0  0  0  0
    7.2641   -1.5378    0.0000 C   0  0  2  0  0  0  0  0  0  0  0  0
    7.2641   -0.5378    0.0000 C   0  0  0  0  0  0  0  0  0  0  0  0
    6.3981   -2.0378    0.0000 C   0  0  0  0  0  0  0  0  0  0  0  0
    8.1741   -0.0310    0.0000 C   0  0  0  0  0  0  0  0  0  0  0  0
    8.9878   -1.5506    0.0000 C   0  0  0  0  0  0  0  0  0  0  0  0
    6.3981   -0.0378    0.0000 C   0  0  0  0  0  0  0  0  0  0  0  0
    9.0134   -0.5592    0.0000 C   0  0  0  0  0  0  0  0  0  0  0  0
    5.5320   -1.5378    0.0000 C   0  0  0  0  0  0  0  0  0  0  0  0
    5.5320   -0.5378    0.0000 C   0  0  0  0  0  0  0  0  0  0  0  0
    6.3820    1.0037    0.0000 C   0  0  0  0  0  0  0  0  0  0  0  0
    8.1821    1.0106    0.0000 C   0  0  0  0  0  0  0  0  0  0  0  0
    8.1149   -3.0348    0.0000 C   0  0  0  0  0  0  0  0  0  0  0  0
    7.2800    1.5314    0.0000 C   0  0  0  0  0  0  0  0  0  0  0  0
    4.6381   -0.0032    0.0000 C   0  0  0  0  0  0  0  0  0  0  0  0
    4.6381   -2.0725    0.0000 C   0  0  0  0  0  0  0  0  0  0  0  0
    3.7320   -0.5170    0.0000 C   0  0  0  0  0  0  0  0  0  0  0  0
    3.7320   -1.5587    0.0000 C   0  0  0  0  0  0  0  0  0  0  0  0
    5.4987    2.4936    0.0000 C   0  0  0  0  0  0  0  0  0  0  0  0
    8.1403    3.0348    0.0000 C   0  0  0  0  0  0  0  0  0  0  0  0
    2.0000   -0.5104    0.0000 C   0  0  0  0  0  0  0  0  0  0  0  0
    7.2636   -2.3878    0.0000 H   0  0  0  0  0  0  0  0  0  0  0  0
    5.9995   -2.5128    0.0000 H   0  0  0  0  0  0  0  0  0  0  0  0
    6.7966   -2.5128    0.0000 H   0  0  0  0  0  0  0  0  0  0  0  0
    9.1895   -2.1369    0.0000 H   0  0  0  0  0  0  0  0  0  0  0  0
    9.6006   -1.4562    0.0000 H   0  0  0  0  0  0  0  0  0  0  0  0
    9.6205   -0.6851    0.0000 H   0  0  0  0  0  0  0  0  0  0  0  0
    9.2452    0.0158    0.0000 H   0  0  0  0  0  0  0  0  0  0  0  0
    8.7203    1.3185    0.0000 H   0  0  0  0  0  0  0  0  0  0  0  0
    7.4949   -3.0302    0.0000 H   0  0  0  0  0  0  0  0  0  0  0  0
    8.1103   -3.6547    0.0000 H   0  0  0  0  0  0  0  0  0  0  0  0
    8.7349   -3.0393    0.0000 H   0  0  0  0  0  0  0  0  0  0  0  0
    4.6453   -2.6925    0.0000 H   0  0  0  0  0  0  0  0  0  0  0  0
    3.1963   -1.8707    0.0000 H   0  0  0  0  0  0  0  0  0  0  0  0
    4.1164    1.3129    0.0000 H   0  0  0  0  0  0  0  0  0  0  0  0
    6.1187    2.5007    0.0000 H   0  0  0  0  0  0  0  0  0  0  0  0
    5.4915    3.1135    0.0000 H   0  0  0  0  0  0  0  0  0  0  0  0
    4.8787    2.4864    0.0000 H   0  0  0  0  0  0  0  0  0  0  0  0
    8.4523    2.4990    0.0000 H   0  0  0  0  0  0  0  0  0  0  0  0
    8.6760    3.3468    0.0000 H   0  0  0  0  0  0  0  0  0  0  0  0
    7.8282    3.5705    0.0000 H   0  0  0  0  0  0  0  0  0  0  0  0
    1.6921    0.0278    0.0000 H   0  0  0  0  0  0  0  0  0  0  0  0
    1.4619   -0.8183    0.0000 H   0  0  0  0  0  0  0  0  0  0  0  0
    2.3079   -1.0485    0.0000 H   0  0  0  0  0  0  0  0  0  0  0  0
  1 15  1  0  0  0  0
  1 23  1  0  0  0  0
  2 18  1  0  0  0  0
  2 24  1  0  0  0  0
  3 19  1  0  0  0  0
  3 39  1  0  0  0  0
  4 21  1  0  0  0  0
  4 25  1  0  0  0  0
  5  6  1  0  0  0  0
  5 10  1  0  0  0  0
  5 17  1  0  0  0  0
  6  7  1  0  0  0  0
  6  8  1  0  0  0  0
  6 26  1  6  0  0  0
  7  9  1  0  0  0  0
  7 11  2  0  0  0  0
  8 13  1  0  0  0  0
  8 27  1  0  0  0  0
  8 28  1  0  0  0  0
  9 12  1  0  0  0  0
  9 16  2  0  0  0  0
 10 12  1  0  0  0  0
 10 29  1  0  0  0  0
 10 30  1  0  0  0  0
 11 14  1  0  0  0  0
 11 15  1  0  0  0  0
 12 31  1  0  0  0  0
 12 32  1  0  0  0  0
 13 14  2  0  0  0  0
 13 20  1  0  0  0  0
 14 19  1  0  0  0  0
 15 18  2  0  0  0  0
 16 18  1  0  0  0  0
 16 33  1  0  0  0  0
 17 34  1  0  0  0  0
 17 35  1  0  0  0  0
 17 36  1  0  0  0  0
 19 21  2  0  0  0  0
 20 22  2  0  0  0  0
 20 37  1  0  0  0  0
 21 22  1  0  0  0  0
 22 38  1  0  0  0  0
 23 40  1  0  0  0  0
 23 41  1  0  0  0  0
 23 42  1  0  0  0  0
 24 43  1  0  0  0  0
 24 44  1  0  0  0  0
 24 45  1  0  0  0  0
 25 46  1  0  0  0  0
 25 47  1  0  0  0  0
 25 48  1  0  0  0  0
M  END
> <PUBCHEM_COMPOUND_CID>
10143

> <PUBCHEM_COMPOUND_CANONICALIZED>
1

> <PUBCHEM_CACTVS_COMPLEXITY>
475

> <PUBCHEM_CACTVS_HBOND_ACCEPTOR>
5

> <PUBCHEM_CACTVS_HBOND_DONOR>
1

> <PUBCHEM_CACTVS_ROTATABLE_BOND>
3

> <PUBCHEM_CACTVS_SUBSKEYS>
AAADceB6OAAAAAAAAAAAAAAAAAAAAAAAAAA8YMEAAAAAAADxQAAAHgAACAAADCzBmAYyBoMABgCAAiBCAACCCAAgIAAIiAAOjIgNJiKGsRuEcCtkwBGLuAfw8P8OoAADAAAYQADQAAaAADSAAAAAAAAAAA==

> <PUBCHEM_IUPAC_OPENEYE_NAME>
(8S)-1,2,13-trimethoxy-7-methyl-5,6,6a,7-tetrahydro-4H-dibenzo[de,g]quinoline-14-ol

> <PUBCHEM_IUPAC_CAS_NAME>
(8S)-1,2,13-trimethoxy-7-methyl-5,6,6a,7-tetrahydro-4H-dibenzo[de,g]quinoline-14-ol

> <PUBCHEM_IUPAC_NAME>
(8S)-1,2,13-trimethoxy-7-methyl-5,6,6a,7-tetrahydro-4H-dibenzo[de,g]quinoline-14-ol

> <PUBCHEM_IUPAC_SYSTEMATIC_NAME>
(8S)-1,2,13-trimethoxy-7-methyl-5,6,6a,7-tetrahydro-4H-dibenzo[de,g]quinoline-14-ol

> <PUBCHEM_IUPAC_TRADITIONAL_NAME>
(8S)-1,2,13-trimethoxy-7-methyl-5,6,6a,7-tetrahydro-4H-dibenzo[de,g]quinoline-14-ol

> <PUBCHEM_IUPAC_INCHI>
InChI=1S/C20H23NO4/c1-21-8-7-12-10-15(24-3)20(25-4)18-16(12)13(21)9-11-5-6-14(23-2)19(22)17(11)18/h5-6,10,13,22H,7-9H2,1-4H3/t13-/m0/s1

> <PUBCHEM_IUPAC_INCHIKEY>
QELDJEKNFOQJOY-ZDUSSCGKSA-N

> <PUBCHEM_XLOGP3>
2.6

> <PUBCHEM_EXACT_MASS>
341.162708

> <PUBCHEM_MOLECULAR_FORMULA>
C20H23NO4

> <PUBCHEM_MOLECULAR_WEIGHT>
341.40092

> <PUBCHEM_OPENEYE_CAN_SMILES>
CN1CCC2=CC(=C(C3=C2C1CC4=C3C(=C(C=C4)OC)O)OC)OC

> <PUBCHEM_OPENEYE_ISO_SMILES>
CN1CCC2=CC(=C(C3=C2[C@@H]1CC4=C3C(=C(C=C4)OC)O)OC)OC

> <PUBCHEM_CACTVS_TPSA>
51.2

> <PUBCHEM_MONOISOTOPIC_WEIGHT>
341.162708

> <PUBCHEM_TOTAL_CHARGE>
0

> <PUBCHEM_HEAVY_ATOM_COUNT>
25

> <PUBCHEM_ATOM_DEF_STEREO_COUNT>
1

> <PUBCHEM_ATOM_UDEF_STEREO_COUNT>
0

> <PUBCHEM_BOND_DEF_STEREO_COUNT>
0

> <PUBCHEM_BOND_UDEF_STEREO_COUNT>
0

> <PUBCHEM_ISOTOPIC_ATOM_COUNT>
0

> <PUBCHEM_COMPONENT_COUNT>
1

> <PUBCHEM_CACTVS_TAUTO_COUNT>
9

> <PUBCHEM_COORDINATE_TYPE>
1
5
255

> <PUBCHEM_BONDANNOTATIONS>
11  15  8
13  14  8
13  20  8
14  19  8
15  18  8
16  18  8
19  21  8
20  22  8
21  22  8
6  26  6
7  11  8
7  9  8
9  16  8

$$$$

