   Color/Form

     * PALE, YELLOW MONOCLINIC NEEDLES OR LEAFLETS
     * YELLOWISH POWDER
     * NEEDLES FROM ALC OR DILUTE METHANOL
     * Yellowish to tan crystalline powder

   from [1]HSDB

   Odor

     * DISAGREEABLE ODOR
     * DISTINCTIVE ODOR (DEPENDS ON DEGREE OF PURIFICATION)

   from [2]HSDB

   Melting Point
        180.2-181.7 DEG C
   from [3]HSDB

   Density/Specific Gravity
        1.42
   from [4]HSDB

   Dissociation Constants
        The dissociation constant for 2-mercaptobenzothiazole is between
   6.7 and 7.2.
   from [5]HSDB

   Octanol/Water Partition Coefficient
        log Kow = 2.41
   from [6]HSDB

   Solubilities

     * PRACTICALLY INSOL IN WATER; SOLUBILITY @ 25 DEG C (G/100 ML): ALC
       2.0; ETHER 1.0; ACETONE 10.0; BENZENE 1.0; CARBON TETRACHLORIDE
       LESS THAN 0.2; NAPHTHA LESS THAN 0.5; MODERATELY SOL IN GLACIAL
       ACETIC ACID; SOL IN ALKALIES & ALKALI CARBONATE SOLN
     * SOL IN DIL CAUSTIC SODA, ALCOHOL, CHLOROFORM; INSOL IN GASOLINE
     * SOL IN HOT ACETIC ACID
     * MORE SOL IN CRUDE SWEAT THAN IN WATER

   from [7]HSDB

   Spectral Properties

     * MAX ABSORPTION (METHANOL): 235 NM (LOG E= 4.12); 282 NM SHOULDER
       (LOG E= 3.34); 320 NM (LOG E= 4.43); SADTLER REF NUMBER: 11493 (IR,
       PRISM); 8139 (IR, GRATING)
     * Intense mass spectral peaks: 167 m/z (100%), 69 m/z (33%), 45 m/z
       (23%), 63 m/z (20%)
     * IR: 6034 (Coblentz Society Spectral Collection)
     * UV: 390 (Sadtler Research Laboratories Spectral Collection)
     * NMR: 10149 (Sadtler Research Laboratories Spectral Collection)
     * MASS: 1092 (Atlas of Mass Spectral Data, John Wiley & Sons, New
       York)

   from [8]HSDB

   Other Chemical/Physical Properties

     * CONVERSION FACTOR: 6.83 MG/CU M= 1 PPM
     * MP: 170-173 deg C /Technical mercaptobenzothiazole/
     * Light yellow powder; specific gravity: 1.70 @ 25 deg C/4 deg C.
       /Zinc salt of mercaptobenzothiazole/

   from [9]HSDB

   Computed Properties
   Molecular Weight                  167.2513 [g/mol]
   Molecular Formula                 C[7]H[5]NS[2]
   XLogP3                            2.4
   H-Bond Donor                      1
   H-Bond Acceptor                   2
   Rotatable Bond Count              0
   Tautomer Count                    2
   Exact Mass                        166.986341
   MonoIsotopic Mass                 166.986341
   Topological Polar Surface Area    69.4
   Heavy Atom Count                  10
   Formal Charge                     0
   Complexity                        158
   Isotope Atom Count                0
   Defined Atom Stereocenter Count   0
   Undefined Atom Stereocenter Count 0
   Defined Bond Stereocenter Count   0
   Undefined Bond Stereocenter Count 0
   Covalently-Bonded Unit Count      1
   Feature 3D Acceptor Count         1
   Feature 3D Ring Count             2
   Effective Rotor Count             0
   Conformer Sampling RMSD           0.4
   CID Conformer Count               [10]1

References

   1. http://toxnet.nlm.nih.gov/cgi-bin/sis/search/r?dbs+hsdb:@term+@rn+@rel+149-30-4
   2. http://toxnet.nlm.nih.gov/cgi-bin/sis/search/r?dbs+hsdb:@term+@rn+@rel+149-30-4
   3. http://toxnet.nlm.nih.gov/cgi-bin/sis/search/r?dbs+hsdb:@term+@rn+@rel+149-30-4
   4. http://toxnet.nlm.nih.gov/cgi-bin/sis/search/r?dbs+hsdb:@term+@rn+@rel+149-30-4
   5. http://toxnet.nlm.nih.gov/cgi-bin/sis/search/r?dbs+hsdb:@term+@rn+@rel+149-30-4
   6. http://toxnet.nlm.nih.gov/cgi-bin/sis/search/r?dbs+hsdb:@term+@rn+@rel+149-30-4
   7. http://toxnet.nlm.nih.gov/cgi-bin/sis/search/r?dbs+hsdb:@term+@rn+@rel+149-30-4
   8. http://toxnet.nlm.nih.gov/cgi-bin/sis/search/r?dbs+hsdb:@term+@rn+@rel+149-30-4
   9. http://toxnet.nlm.nih.gov/cgi-bin/sis/search/r?dbs+hsdb:@term+@rn+@rel+149-30-4
  10. http://pubchem.ncbi.nlm.nih.gov/vw3d/vw3d.cgi?cid=697993
