47205298
  -OEChem-06241222582D

 30 32  0     0  0  0  0  0  0999 V2000
    9.8164   -0.6428    0.0000 O   0  0  0  0  0  0  0  0  0  0  0  0
    6.5662    1.7521    0.0000 O   0  0  0  0  0  0  0  0  0  0  0  0
    5.1650    0.7340    0.0000 N   0  0  0  0  0  0  0  0  0  0  0  0
    7.2473   -1.5093    0.0000 N   0  0  0  0  0  0  0  0  0  0  0  0
    6.4383   -0.9216    0.0000 N   0  0  0  0  0  0  0  0  0  0  0  0
    3.0827    0.5725    0.0000 N   0  0  0  0  0  0  0  0  0  0  0  0
    2.1045    0.7804    0.0000 N   0  0  0  0  0  0  0  0  0  0  0  0
    4.5772    1.5430    0.0000 C   0  0  0  0  0  0  0  0  0  0  0  0
    8.0563   -0.9216    0.0000 C   0  0  0  0  0  0  0  0  0  0  0  0
    6.7473    0.0295    0.0000 C   0  0  0  0  0  0  0  0  0  0  0  0
    3.5827    1.4385    0.0000 C   0  0  0  0  0  0  0  0  0  0  0  0
    7.7473    0.0295    0.0000 C   0  0  0  0  0  0  0  0  0  0  0  0
    9.0074   -1.2306    0.0000 C   0  0  0  0  0  0  0  0  0  0  0  0
    6.1595    0.8385    0.0000 C   0  0  0  0  0  0  0  0  0  0  0  0
    2.9136    2.1816    0.0000 C   0  0  0  0  0  0  0  0  0  0  0  0
    9.3164   -2.1816    0.0000 C   0  0  0  0  0  0  0  0  0  0  0  0
   10.3164   -2.1816    0.0000 C   0  0  0  0  0  0  0  0  0  0  0  0
    2.0000    1.7749    0.0000 C   0  0  0  0  0  0  0  0  0  0  0  0
   10.6254   -1.2306    0.0000 C   0  0  0  0  0  0  0  0  0  0  0  0
    5.1344    1.8148    0.0000 H   0  0  0  0  0  0  0  0  0  0  0  0
    4.4063    2.1390    0.0000 H   0  0  0  0  0  0  0  0  0  0  0  0
    8.1117    0.5311    0.0000 H   0  0  0  0  0  0  0  0  0  0  0  0
    4.9128    0.1676    0.0000 H   0  0  0  0  0  0  0  0  0  0  0  0
    7.2473   -2.1293    0.0000 H   0  0  0  0  0  0  0  0  0  0  0  0
    3.0424    2.7881    0.0000 H   0  0  0  0  0  0  0  0  0  0  0  0
    8.9520   -2.6832    0.0000 H   0  0  0  0  0  0  0  0  0  0  0  0
    3.3348    0.0061    0.0000 H   0  0  0  0  0  0  0  0  0  0  0  0
   10.6808   -2.6832    0.0000 H   0  0  0  0  0  0  0  0  0  0  0  0
    1.4631    2.0849    0.0000 H   0  0  0  0  0  0  0  0  0  0  0  0
   11.2151   -1.0390    0.0000 H   0  0  0  0  0  0  0  0  0  0  0  0
  1 13  1  0  0  0  0
  1 19  1  0  0  0  0
  2 14  2  0  0  0  0
  3  8  1  0  0  0  0
  3 14  1  0  0  0  0
  3 23  1  0  0  0  0
  4  5  1  0  0  0  0
  4  9  1  0  0  0  0
  4 24  1  0  0  0  0
  5 10  2  0  0  0  0
  6  7  1  0  0  0  0
  6 11  1  0  0  0  0
  6 27  1  0  0  0  0
  7 18  2  0  0  0  0
  8 11  1  0  0  0  0
  8 20  1  0  0  0  0
  8 21  1  0  0  0  0
  9 12  2  0  0  0  0
  9 13  1  0  0  0  0
 10 12  1  0  0  0  0
 10 14  1  0  0  0  0
 11 15  2  0  0  0  0
 12 22  1  0  0  0  0
 13 16  2  0  0  0  0
 15 18  1  0  0  0  0
 15 25  1  0  0  0  0
 16 17  1  0  0  0  0
 16 26  1  0  0  0  0
 17 19  2  0  0  0  0
 17 28  1  0  0  0  0
 18 29  1  0  0  0  0
 19 30  1  0  0  0  0
M  END
> <PUBCHEM_COMPOUND_CID>
47205298

> <PUBCHEM_COMPOUND_CANONICALIZED>
1

> <PUBCHEM_CACTVS_COMPLEXITY>
327

> <PUBCHEM_CACTVS_HBOND_ACCEPTOR>
4

> <PUBCHEM_CACTVS_HBOND_DONOR>
3

> <PUBCHEM_CACTVS_ROTATABLE_BOND>
4

> <PUBCHEM_CACTVS_SUBSKEYS>
AAADccBzsAAAAAAAAAAAAAAAAAAAAWLEgAAAAAAAAAAAAAAB+AAAHgAYAAAACAzhlgY8hJLjBECqAb130ASSDAAmogAYuaG+bNgOZrKE9duXvSjk3hGI6Ye836PwAAAAAAAAAAAAAAAAAAAAAAAAAAAAAA==

> <PUBCHEM_IUPAC_OPENEYE_NAME>
5-(2-furyl)-N-(1H-pyrazol-5-ylmethyl)-1H-pyrazole-3-carboxamide

> <PUBCHEM_IUPAC_CAS_NAME>
5-(2-furanyl)-N-(1H-pyrazol-5-ylmethyl)-1H-pyrazole-3-carboxamide

> <PUBCHEM_IUPAC_NAME>
5-(furan-2-yl)-N-(1H-pyrazol-5-ylmethyl)-1H-pyrazole-3-carboxamide

> <PUBCHEM_IUPAC_SYSTEMATIC_NAME>
5-(furan-2-yl)-N-(1H-pyrazol-5-ylmethyl)-1H-pyrazole-3-carboxamide

> <PUBCHEM_IUPAC_TRADITIONAL_NAME>
5-(2-furyl)-N-(1H-pyrazol-5-ylmethyl)-1H-pyrazole-3-carboxamide

> <PUBCHEM_IUPAC_INCHI>
InChI=1S/C12H11N5O2/c18-12(13-7-8-3-4-14-15-8)10-6-9(16-17-10)11-2-1-5-19-11/h1-6H,7H2,(H,13,18)(H,14,15)(H,16,17)

> <PUBCHEM_IUPAC_INCHIKEY>
SJBTVAOYHFSLRJ-UHFFFAOYSA-N

> <PUBCHEM_XLOGP3_AA>
0.4

> <PUBCHEM_EXACT_MASS>
257.091275

> <PUBCHEM_MOLECULAR_FORMULA>
C12H11N5O2

> <PUBCHEM_MOLECULAR_WEIGHT>
257.24804

> <PUBCHEM_OPENEYE_CAN_SMILES>
C1=COC(=C1)C2=CC(=NN2)C(=O)NCC3=CC=NN3

> <PUBCHEM_OPENEYE_ISO_SMILES>
C1=COC(=C1)C2=CC(=NN2)C(=O)NCC3=CC=NN3

> <PUBCHEM_CACTVS_TPSA>
99.6

> <PUBCHEM_MONOISOTOPIC_WEIGHT>
257.091275

> <PUBCHEM_TOTAL_CHARGE>
0

> <PUBCHEM_HEAVY_ATOM_COUNT>
19

> <PUBCHEM_ATOM_DEF_STEREO_COUNT>
0

> <PUBCHEM_ATOM_UDEF_STEREO_COUNT>
0

> <PUBCHEM_BOND_DEF_STEREO_COUNT>
0

> <PUBCHEM_BOND_UDEF_STEREO_COUNT>
0

> <PUBCHEM_ISOTOPIC_ATOM_COUNT>
0

> <PUBCHEM_COMPONENT_COUNT>
1

> <PUBCHEM_CACTVS_TAUTO_COUNT>
14

> <PUBCHEM_COORDINATE_TYPE>
1
5
255

> <PUBCHEM_BONDANNOTATIONS>
1  13  8
1  19  8
10  12  8
11  15  8
13  16  8
15  18  8
16  17  8
17  19  8
4  5  8
4  9  8
5  10  8
6  11  8
6  7  8
7  18  8
9  12  8

$$$$

