   Color/Form

     * LEAFLETS OR NEEDLES FROM WATER
     * Colorless crystals that turn a violet color on standing.

   from [1]HSDB

   Melting Point
        137 deg C
   from [2]HSDB

   Octanol/Water Partition Coefficient
        log Kow = 1.81 [Debnath AK et al; Environ Mol Mutagen 20: 140-44
   (1992)] [3]PubMed Abstract
   from [4]HSDB

   pH
        WEAK BASE
   from [5]HSDB

   Solubilities

     * Sol in alc, benzene, ether
     * Sol in chloroform, acetone
     * PROBABLY SOL IN MOST ORG SOLVENTS AND LIPIDS
     * In water, 60 mg/l @ 25 deg C

   from [6]HSDB

   Spectral Properties

     * IR: 717 (Sadtler Research Laboratories IR Grating Collection)
     * UV: 1738 (Sadtler Research Laboratories Spectral Collection)
     * NMR: 3193 (Sadtler Research Laboratories Spectral Collection)
     * MASS: 70844 (NIST/EPA/MSDC Mass Spectral Database, 1990 version)

   from [7]HSDB

   Vapor Density
        8.43 (air= 1)
   from [8]HSDB

   Other Chemical/Physical Properties
        HAS GENERAL CHARACTERISTICS OF PRIMARY AROMATIC AMINES
   from [9]HSDB

   Computed Properties
   Molecular Weight                  244.28904 [g/mol]
   Molecular Formula                 C[14]H[16]N[2]O[2]
   XLogP3                            2.2
   H-Bond Donor                      2
   H-Bond Acceptor                   4
   Rotatable Bond Count              3
   Exact Mass                        244.121178
   MonoIsotopic Mass                 244.121178
   Topological Polar Surface Area    70.5
   Heavy Atom Count                  18
   Formal Charge                     0
   Complexity                        236
   Isotope Atom Count                0
   Defined Atom Stereocenter Count   0
   Undefined Atom Stereocenter Count 0
   Defined Bond Stereocenter Count   0
   Undefined Bond Stereocenter Count 0
   Covalently-Bonded Unit Count      1
   Feature 3D Acceptor Count         2
   Feature 3D Donor Count            2
   Feature 3D Cation Count           2
   Feature 3D Ring Count             2
   Effective Rotor Count             3
   Conformer Sampling RMSD           0.6
   CID Conformer Count               [10]8

References

   1. http://toxnet.nlm.nih.gov/cgi-bin/sis/search/r?dbs+hsdb:@term+@rn+@rel+119-90-4
   2. http://toxnet.nlm.nih.gov/cgi-bin/sis/search/r?dbs+hsdb:@term+@rn+@rel+119-90-4
   3. http://www.ncbi.nlm.nih.gov/entrez/query.fcgi?cmd=Retrieve&db=pubmed&dopt=Abstract&list_uids=1505530
   4. http://toxnet.nlm.nih.gov/cgi-bin/sis/search/r?dbs+hsdb:@term+@rn+@rel+119-90-4
   5. http://toxnet.nlm.nih.gov/cgi-bin/sis/search/r?dbs+hsdb:@term+@rn+@rel+119-90-4
   6. http://toxnet.nlm.nih.gov/cgi-bin/sis/search/r?dbs+hsdb:@term+@rn+@rel+119-90-4
   7. http://toxnet.nlm.nih.gov/cgi-bin/sis/search/r?dbs+hsdb:@term+@rn+@rel+119-90-4
   8. http://toxnet.nlm.nih.gov/cgi-bin/sis/search/r?dbs+hsdb:@term+@rn+@rel+119-90-4
   9. http://toxnet.nlm.nih.gov/cgi-bin/sis/search/r?dbs+hsdb:@term+@rn+@rel+119-90-4
  10. http://pubchem.ncbi.nlm.nih.gov/vw3d/vw3d.cgi?cid=8411
