9543281
  -OEChem-07051213112D

 28 31  0     0  0  0  0  0  0999 V2000
    2.5369    1.0000    0.0000 O   0  0  0  0  0  0  0  0  0  0  0  0
    2.5369   -1.0000    0.0000 O   0  0  0  0  0  0  0  0  0  0  0  0
    5.1350   -0.5000    0.0000 C   0  0  0  0  0  0  0  0  0  0  0  0
    5.1350    0.5000    0.0000 C   0  0  0  0  0  0  0  0  0  0  0  0
    4.2690   -1.0000    0.0000 C   0  0  0  0  0  0  0  0  0  0  0  0
    4.2690    1.0000    0.0000 C   0  0  0  0  0  0  0  0  0  0  0  0
    6.0290   -1.0347    0.0000 C   0  0  0  0  0  0  0  0  0  0  0  0
    6.0290    1.0347    0.0000 C   0  0  0  0  0  0  0  0  0  0  0  0
    3.4030   -0.5000    0.0000 C   0  0  0  0  0  0  0  0  0  0  0  0
    3.4030    0.5000    0.0000 C   0  0  0  0  0  0  0  0  0  0  0  0
    6.9350   -0.5208    0.0000 C   0  0  0  0  0  0  0  0  0  0  0  0
    6.9350    0.5208    0.0000 C   0  0  0  0  0  0  0  0  0  0  0  0
    4.2677   -1.9917    0.0000 C   0  0  0  0  0  0  0  0  0  0  0  0
    4.2677    1.9917    0.0000 C   0  0  0  0  0  0  0  0  0  0  0  0
    5.9912   -2.0256    0.0000 C   0  0  0  0  0  0  0  0  0  0  0  0
    5.9912    2.0256    0.0000 C   0  0  0  0  0  0  0  0  0  0  0  0
    5.1198    2.4991    0.0000 C   0  0  0  0  0  0  0  0  0  0  0  0
    5.1198   -2.4991    0.0000 C   0  0  0  0  0  0  0  0  0  0  0  0
    7.4708   -0.8329    0.0000 H   0  0  0  0  0  0  0  0  0  0  0  0
    7.4708    0.8329    0.0000 H   0  0  0  0  0  0  0  0  0  0  0  0
    3.7285   -2.2977    0.0000 H   0  0  0  0  0  0  0  0  0  0  0  0
    3.7285    2.2977    0.0000 H   0  0  0  0  0  0  0  0  0  0  0  0
    6.5179   -2.3527    0.0000 H   0  0  0  0  0  0  0  0  0  0  0  0
    6.5179    2.3527    0.0000 H   0  0  0  0  0  0  0  0  0  0  0  0
    5.1076   -3.1190    0.0000 H   0  0  0  0  0  0  0  0  0  0  0  0
    5.1076    3.1190    0.0000 H   0  0  0  0  0  0  0  0  0  0  0  0
    2.5369   -1.6200    0.0000 H   0  0  0  0  0  0  0  0  0  0  0  0
    2.0000    0.6900    0.0000 H   0  0  0  0  0  0  0  0  0  0  0  0
  1 10  1  0  0  0  0
  1 28  1  0  0  0  0
  2  9  1  0  0  0  0
  2 27  1  0  0  0  0
  3  4  1  0  0  0  0
  3  5  1  0  0  0  0
  3  7  2  0  0  0  0
  4  6  1  0  0  0  0
  4  8  2  0  0  0  0
  5  9  1  0  0  0  0
  5 13  2  0  0  0  0
  6 10  1  0  0  0  0
  6 14  2  0  0  0  0
  7 11  1  0  0  0  0
  7 15  1  0  0  0  0
  8 12  1  0  0  0  0
  8 16  1  0  0  0  0
  9 10  2  0  0  0  0
 11 12  2  0  0  0  0
 11 19  1  0  0  0  0
 12 20  1  0  0  0  0
 13 18  1  0  0  0  0
 13 21  1  0  0  0  0
 14 17  1  0  0  0  0
 14 22  1  0  0  0  0
 15 18  2  0  0  0  0
 15 23  1  0  0  0  0
 16 17  2  0  0  0  0
 16 24  1  0  0  0  0
 17 26  1  0  0  0  0
 18 25  1  0  0  0  0
M  END
> <PUBCHEM_COMPOUND_CID>
9543281

> <PUBCHEM_COMPOUND_CANONICALIZED>
1

> <PUBCHEM_CACTVS_COMPLEXITY>
297

> <PUBCHEM_CACTVS_HBOND_ACCEPTOR>
2

> <PUBCHEM_CACTVS_HBOND_DONOR>
2

> <PUBCHEM_CACTVS_ROTATABLE_BOND>
0

> <PUBCHEM_CACTVS_SUBSKEYS>
AAADccB4MAAAAAAAAAAAAAAAAAAAAAAAAAAwYMGAAAAAAADBVAAAGgAACAAADASAmAAwBsAAAgCAAiBCAAACAAAgIAAIiAAEiIgJJiKCERKAcAEkwBEJmAeAwPAO4AADAAAYQADAAAYAADCAAAAAAAAAAA==

> <PUBCHEM_IUPAC_OPENEYE_NAME>
pyrene-4,5-diol

> <PUBCHEM_IUPAC_CAS_NAME>
pyrene-4,5-diol

> <PUBCHEM_IUPAC_NAME>
pyrene-4,5-diol

> <PUBCHEM_IUPAC_SYSTEMATIC_NAME>
pyrene-4,5-diol

> <PUBCHEM_IUPAC_TRADITIONAL_NAME>
pyrene-4,5-diol

> <PUBCHEM_IUPAC_INCHI>
InChI=1S/C16H10O2/c17-15-11-5-1-3-9-7-8-10-4-2-6-12(16(15)18)14(10)13(9)11/h1-8,17-18H

> <PUBCHEM_IUPAC_INCHIKEY>
UKDSXSFLFJKPSJ-UHFFFAOYSA-N

> <PUBCHEM_XLOGP3_AA>
4.3

> <PUBCHEM_EXACT_MASS>
234.06808

> <PUBCHEM_MOLECULAR_FORMULA>
C16H10O2

> <PUBCHEM_MOLECULAR_WEIGHT>
234.2494

> <PUBCHEM_OPENEYE_CAN_SMILES>
C1=CC2=C3C(=C1)C(=C(C4=CC=CC(=C43)C=C2)O)O

> <PUBCHEM_OPENEYE_ISO_SMILES>
C1=CC2=C3C(=C1)C(=C(C4=CC=CC(=C43)C=C2)O)O

> <PUBCHEM_CACTVS_TPSA>
40.5

> <PUBCHEM_MONOISOTOPIC_WEIGHT>
234.06808

> <PUBCHEM_TOTAL_CHARGE>
0

> <PUBCHEM_HEAVY_ATOM_COUNT>
18

> <PUBCHEM_ATOM_DEF_STEREO_COUNT>
0

> <PUBCHEM_ATOM_UDEF_STEREO_COUNT>
0

> <PUBCHEM_BOND_DEF_STEREO_COUNT>
0

> <PUBCHEM_BOND_UDEF_STEREO_COUNT>
0

> <PUBCHEM_ISOTOPIC_ATOM_COUNT>
0

> <PUBCHEM_COMPONENT_COUNT>
1

> <PUBCHEM_CACTVS_TAUTO_COUNT>
2

> <PUBCHEM_COORDINATE_TYPE>
1
5
255

> <PUBCHEM_BONDANNOTATIONS>
11  12  8
13  18  8
14  17  8
15  18  8
16  17  8
3  4  8
3  5  8
3  7  8
4  6  8
4  8  8
5  13  8
5  9  8
6  10  8
6  14  8
7  11  8
7  15  8
8  12  8
8  16  8
9  10  8

$$$$

