10545
  -OEChem-07051212582D

 28 29  0     1  0  0  0  0  0999 V2000
    2.5000   -1.3208    0.0000 O   0  0  0  0  0  0  0  0  0  0  0  0
    2.0000   -0.4547    0.0000 O   0  0  0  0  0  0  0  0  0  0  0  0
    4.2320   -0.3208    0.0000 C   0  0  3  0  0  0  0  0  0  0  0  0
    6.0640   -1.0796    0.0000 C   0  0  0  0  0  0  0  0  0  0  0  0
    4.4909    0.6452    0.0000 C   0  0  3  0  0  0  0  0  0  0  0  0
    6.3228   -0.1137    0.0000 C   0  0  0  0  0  0  0  0  0  0  0  0
    3.9732   -1.2867    0.0000 C   0  0  0  0  0  0  0  0  0  0  0  0
    3.2543    1.4938    0.0000 C   0  0  0  0  0  0  0  0  0  0  0  0
    4.1203    1.9938    0.0000 C   0  0  0  0  0  0  0  0  0  0  0  0
    4.7497    1.6111    0.0000 C   0  0  0  0  0  0  0  0  0  0  0  0
    4.6803   -1.9938    0.0000 C   0  0  0  0  0  0  0  0  0  0  0  0
    3.2661   -1.9938    0.0000 C   0  0  0  0  0  0  0  0  0  0  0  0
    5.8520   -1.6622    0.0000 H   0  0  0  0  0  0  0  0  0  0  0  0
    6.6553   -1.2660    0.0000 H   0  0  0  0  0  0  0  0  0  0  0  0
    6.9141   -0.3001    0.0000 H   0  0  0  0  0  0  0  0  0  0  0  0
    6.5349    0.4690    0.0000 H   0  0  0  0  0  0  0  0  0  0  0  0
    3.4363   -0.9767    0.0000 H   0  0  0  0  0  0  0  0  0  0  0  0
    2.6578    1.6630    0.0000 H   0  0  0  0  0  0  0  0  0  0  0  0
    4.3557    2.5674    0.0000 H   0  0  0  0  0  0  0  0  0  0  0  0
    5.3486    1.4506    0.0000 H   0  0  0  0  0  0  0  0  0  0  0  0
    4.9102    2.2100    0.0000 H   0  0  0  0  0  0  0  0  0  0  0  0
    4.1508    1.7716    0.0000 H   0  0  0  0  0  0  0  0  0  0  0  0
    4.2419   -2.4322    0.0000 H   0  0  0  0  0  0  0  0  0  0  0  0
    5.1187   -2.4322    0.0000 H   0  0  0  0  0  0  0  0  0  0  0  0
    5.1187   -1.5554    0.0000 H   0  0  0  0  0  0  0  0  0  0  0  0
    2.8277   -1.5553    0.0000 H   0  0  0  0  0  0  0  0  0  0  0  0
    2.8276   -2.4321    0.0000 H   0  0  0  0  0  0  0  0  0  0  0  0
    3.7044   -2.4322    0.0000 H   0  0  0  0  0  0  0  0  0  0  0  0
  1  2  1  0  0  0  0
  1  3  1  0  0  0  0
  2  5  1  0  0  0  0
  3  4  1  0  0  0  0
  3  7  1  0  0  0  0
  3  8  1  0  0  0  0
  4  6  1  0  0  0  0
  4 13  1  0  0  0  0
  4 14  1  0  0  0  0
  5  6  1  0  0  0  0
  5  9  1  0  0  0  0
  5 10  1  0  0  0  0
  6 15  1  0  0  0  0
  6 16  1  0  0  0  0
  7 11  1  0  0  0  0
  7 12  1  0  0  0  0
  7 17  1  0  0  0  0
  8  9  2  0  0  0  0
  8 18  1  0  0  0  0
  9 19  1  0  0  0  0
 10 20  1  0  0  0  0
 10 21  1  0  0  0  0
 10 22  1  0  0  0  0
 11 23  1  0  0  0  0
 11 24  1  0  0  0  0
 11 25  1  0  0  0  0
 12 26  1  0  0  0  0
 12 27  1  0  0  0  0
 12 28  1  0  0  0  0
M  END
> <PUBCHEM_COMPOUND_CID>
10545

> <PUBCHEM_COMPOUND_CANONICALIZED>
1

> <PUBCHEM_CACTVS_COMPLEXITY>
222

> <PUBCHEM_CACTVS_HBOND_ACCEPTOR>
2

> <PUBCHEM_CACTVS_HBOND_DONOR>
0

> <PUBCHEM_CACTVS_ROTATABLE_BOND>
1

> <PUBCHEM_CACTVS_SUBSKEYS>
AAADceBwMAAAAAAAAAAAAAAAAAAAAAAAAAAkQIAAAAAAAAAAAAAAGgAABAAADUSAgAACAAAAAACAACBCAAAAAAAgAAAICAAAAAgABAIAAAAAEAAEgAAIAAPAwFAOgAAAAAAAAAAAAAAAAAAAAAAAAAAAAA==

> <PUBCHEM_IUPAC_OPENEYE_NAME>
4-isopropyl-1-methyl-2,3-dioxabicyclo[2.2.2]oct-5-ene

> <PUBCHEM_IUPAC_CAS_NAME>
1-methyl-4-propan-2-yl-2,3-dioxabicyclo[2.2.2]oct-5-ene

> <PUBCHEM_IUPAC_NAME>
1-methyl-4-propan-2-yl-2,3-dioxabicyclo[2.2.2]oct-5-ene

> <PUBCHEM_IUPAC_SYSTEMATIC_NAME>
1-methyl-4-propan-2-yl-2,3-dioxabicyclo[2.2.2]oct-5-ene

> <PUBCHEM_IUPAC_TRADITIONAL_NAME>
4-isopropyl-1-methyl-2,3-dioxabicyclo[2.2.2]oct-5-ene

> <PUBCHEM_IUPAC_INCHI>
InChI=1S/C10H16O2/c1-8(2)10-6-4-9(3,5-7-10)11-12-10/h4,6,8H,5,7H2,1-3H3

> <PUBCHEM_IUPAC_INCHIKEY>
MGYMHQJELJYRQS-UHFFFAOYSA-N

> <PUBCHEM_XLOGP3_AA>
2.3

> <PUBCHEM_EXACT_MASS>
168.11503

> <PUBCHEM_MOLECULAR_FORMULA>
C10H16O2

> <PUBCHEM_MOLECULAR_WEIGHT>
168.23284

> <PUBCHEM_OPENEYE_CAN_SMILES>
CC(C)C12CCC(C=C1)(OO2)C

> <PUBCHEM_OPENEYE_ISO_SMILES>
CC(C)C12CCC(C=C1)(OO2)C

> <PUBCHEM_CACTVS_TPSA>
18.5

> <PUBCHEM_MONOISOTOPIC_WEIGHT>
168.11503

> <PUBCHEM_TOTAL_CHARGE>
0

> <PUBCHEM_HEAVY_ATOM_COUNT>
12

> <PUBCHEM_ATOM_DEF_STEREO_COUNT>
0

> <PUBCHEM_ATOM_UDEF_STEREO_COUNT>
2

> <PUBCHEM_BOND_DEF_STEREO_COUNT>
0

> <PUBCHEM_BOND_UDEF_STEREO_COUNT>
0

> <PUBCHEM_ISOTOPIC_ATOM_COUNT>
0

> <PUBCHEM_COMPONENT_COUNT>
1

> <PUBCHEM_CACTVS_TAUTO_COUNT>
1

> <PUBCHEM_COORDINATE_TYPE>
1
5
255

> <PUBCHEM_BONDANNOTATIONS>
3  7  3
5  10  3

$$$$

