124143
  -OEChem-07051213082D

 31 30  0     0  0  0  0  0  0999 V2000
    8.9282   -1.8735    0.0000 Cl  0  0  0  0  0  0  0  0  0  0  0  0
    2.0000   -1.8735    0.0000 Cl  0  0  0  0  0  0  0  0  0  0  0  0
    5.4641   -1.8735    0.0000 P   0  0  0  0  0  0  0  0  0  0  0  0
    4.9641   -1.0075    0.0000 O   0  0  0  0  0  0  0  0  0  0  0  0
    5.9641   -2.7396    0.0000 O   0  0  0  0  0  0  0  0  0  0  0  0
    4.9641    2.4566    0.0000 O   0  0  0  0  0  0  0  0  0  0  0  0
    6.4641    1.5906    0.0000 O   0  0  0  0  0  0  0  0  0  0  0  0
    6.3301   -1.3735    0.0000 N   0  0  0  0  0  0  0  0  0  0  0  0
    4.5981   -2.3735    0.0000 N   0  0  0  0  0  0  0  0  0  0  0  0
    3.7320   -1.8735    0.0000 C   0  0  0  0  0  0  0  0  0  0  0  0
    7.1962   -1.8735    0.0000 C   0  0  0  0  0  0  0  0  0  0  0  0
    5.4641   -0.1415    0.0000 C   0  0  0  0  0  0  0  0  0  0  0  0
    4.9641    0.7245    0.0000 C   0  0  0  0  0  0  0  0  0  0  0  0
    8.0622   -1.3735    0.0000 C   0  0  0  0  0  0  0  0  0  0  0  0
    2.8660   -2.3735    0.0000 C   0  0  0  0  0  0  0  0  0  0  0  0
    5.4641    1.5906    0.0000 C   0  0  0  0  0  0  0  0  0  0  0  0
    6.3301   -0.7535    0.0000 H   0  0  0  0  0  0  0  0  0  0  0  0
    4.5981   -2.9935    0.0000 H   0  0  0  0  0  0  0  0  0  0  0  0
    4.1306   -1.3986    0.0000 H   0  0  0  0  0  0  0  0  0  0  0  0
    3.3335   -1.3986    0.0000 H   0  0  0  0  0  0  0  0  0  0  0  0
    6.7976   -2.3485    0.0000 H   0  0  0  0  0  0  0  0  0  0  0  0
    7.5947   -2.3485    0.0000 H   0  0  0  0  0  0  0  0  0  0  0  0
    5.9390   -0.5400    0.0000 H   0  0  0  0  0  0  0  0  0  0  0  0
    5.9390    0.2570    0.0000 H   0  0  0  0  0  0  0  0  0  0  0  0
    4.4892    1.1231    0.0000 H   0  0  0  0  0  0  0  0  0  0  0  0
    4.4892    0.3260    0.0000 H   0  0  0  0  0  0  0  0  0  0  0  0
    8.4607   -0.8986    0.0000 H   0  0  0  0  0  0  0  0  0  0  0  0
    7.6636   -0.8986    0.0000 H   0  0  0  0  0  0  0  0  0  0  0  0
    2.4675   -2.8485    0.0000 H   0  0  0  0  0  0  0  0  0  0  0  0
    3.2646   -2.8485    0.0000 H   0  0  0  0  0  0  0  0  0  0  0  0
    5.2741    2.9935    0.0000 H   0  0  0  0  0  0  0  0  0  0  0  0
  1 14  1  0  0  0  0
  2 15  1  0  0  0  0
  3  4  1  0  0  0  0
  3  5  2  0  0  0  0
  3  8  1  0  0  0  0
  3  9  1  0  0  0  0
  4 12  1  0  0  0  0
  6 16  1  0  0  0  0
  6 31  1  0  0  0  0
  7 16  2  0  0  0  0
  8 11  1  0  0  0  0
  8 17  1  0  0  0  0
  9 10  1  0  0  0  0
  9 18  1  0  0  0  0
 10 15  1  0  0  0  0
 10 19  1  0  0  0  0
 10 20  1  0  0  0  0
 11 14  1  0  0  0  0
 11 21  1  0  0  0  0
 11 22  1  0  0  0  0
 12 13  1  0  0  0  0
 12 23  1  0  0  0  0
 12 24  1  0  0  0  0
 13 16  1  0  0  0  0
 13 25  1  0  0  0  0
 13 26  1  0  0  0  0
 14 27  1  0  0  0  0
 14 28  1  0  0  0  0
 15 29  1  0  0  0  0
 15 30  1  0  0  0  0
M  END
> <PUBCHEM_COMPOUND_CID>
124143

> <PUBCHEM_COMPOUND_CANONICALIZED>
1

> <PUBCHEM_CACTVS_COMPLEXITY>
243

> <PUBCHEM_CACTVS_HBOND_ACCEPTOR>
6

> <PUBCHEM_CACTVS_HBOND_DONOR>
3

> <PUBCHEM_CACTVS_ROTATABLE_BOND>
10

> <PUBCHEM_CACTVS_SUBSKEYS>
AAADccBjOAIGAAAAAAAAAAAAAAAAAAAAAAAAAAAAAAAAAAAAAAAAHgIQiCAACAPhgEYACABAAxAIQACQCIAAAAAAAAAAAIEAAAAAAAQAAAAAQAABMAAAAAAAAAAAAAAAAAAAAAAAAAAAAAAAAAAAAAAAAA==

> <PUBCHEM_IUPAC_OPENEYE_NAME>
3-bis(2-chloroethylamino)phosphoryloxypropanoic acid

> <PUBCHEM_IUPAC_CAS_NAME>
3-bis(2-chloroethylamino)phosphoryloxypropanoic acid

> <PUBCHEM_IUPAC_NAME>
3-bis(2-chloroethylamino)phosphoryloxypropanoic acid

> <PUBCHEM_IUPAC_SYSTEMATIC_NAME>
3-bis(2-chloroethylamino)phosphoryloxypropanoic acid

> <PUBCHEM_IUPAC_TRADITIONAL_NAME>
3-bis(2-chloroethylamino)phosphoryloxypropionic acid

> <PUBCHEM_IUPAC_INCHI>
InChI=1S/C7H15Cl2N2O4P/c8-2-4-10-16(14,11-5-3-9)15-6-1-7(12)13/h1-6H2,(H,12,13)(H2,10,11,14)

> <PUBCHEM_IUPAC_INCHIKEY>
DNDBVHDNSYHKLI-UHFFFAOYSA-N

> <PUBCHEM_XLOGP3_AA>
-0.4

> <PUBCHEM_EXACT_MASS>
292.014649

> <PUBCHEM_MOLECULAR_FORMULA>
C7H15Cl2N2O4P

> <PUBCHEM_MOLECULAR_WEIGHT>
293.084762

> <PUBCHEM_OPENEYE_CAN_SMILES>
C(COP(=O)(NCCCl)NCCCl)C(=O)O

> <PUBCHEM_OPENEYE_ISO_SMILES>
C(COP(=O)(NCCCl)NCCCl)C(=O)O

> <PUBCHEM_CACTVS_TPSA>
87.7

> <PUBCHEM_MONOISOTOPIC_WEIGHT>
292.014649

> <PUBCHEM_TOTAL_CHARGE>
0

> <PUBCHEM_HEAVY_ATOM_COUNT>
16

> <PUBCHEM_ATOM_DEF_STEREO_COUNT>
0

> <PUBCHEM_ATOM_UDEF_STEREO_COUNT>
0

> <PUBCHEM_BOND_DEF_STEREO_COUNT>
0

> <PUBCHEM_BOND_UDEF_STEREO_COUNT>
0

> <PUBCHEM_ISOTOPIC_ATOM_COUNT>
0

> <PUBCHEM_COMPONENT_COUNT>
1

> <PUBCHEM_CACTVS_TAUTO_COUNT>
2

> <PUBCHEM_COORDINATE_TYPE>
1
5
255

$$$$

