   Color/Form

     * Clear, slightly viscous, pale yellow to dark green aqueous liquid
     * White to tan powder
     * Crystals from acetone + hexane

   from [1]HSDB

   Odor

     * Slight ammonical odor
     * Slight odor of acetic acid

   from [2]HSDB

   Melting Point
        171 deg C
   from [3]HSDB

   Corrosivity
        Corrosive to iron, mild steel, and brass, but not to #304
   stainless steel
   from [4]HSDB

   Density/Specific Gravity
        0.34 g/ml
   from [5]HSDB

   Dissociation Constants

     * pKa= 1.81
     * pKa1= 1.9; pKa2= 3.6; pKa3 = 11

   from [6]HSDB

   Octanol/Water Partition Coefficient
        log Kow = 0.22
   from [7]HSDB

   Solubilities

     * In acetone 3.39, dimethyl sulfoxide 47.1, hexane 0.00095, methanol
       10.5, methylene chloride 8.72, toluene 0.180 (25 deg C, all in
       g/100 ml.
     * In water, 1.13X10+4 mg/l @ 25 deg C

   from [8]HSDB

   Other Chemical/Physical Properties

     * VP: <0.013 mPa @ 60 deg C
     * Stable for at least 2 yrs at 25 deg C, 1 year at 37 deg C, and 3
       months at 45 deg C. Stable in aqueous media at pH 5 to pH 9 in the
       dark... In solution, the acid is decomposed in simulated sunlight
     * Reacts with acids or bases and strong oxidants

   from [9]HSDB

   Computed Properties
   Molecular Weight                  261.2765 [g/mol]
   Molecular Formula                 C[13]H[15]N[3]O[3]
   XLogP3-AA                         1.2
   H-Bond Donor                      2
   H-Bond Acceptor                   5
   Rotatable Bond Count              3
   Tautomer Count                    3
   Exact Mass                        261.111341
   MonoIsotopic Mass                 261.111341
   Topological Polar Surface Area    91.6
   Heavy Atom Count                  19
   Formal Charge                     0
   Complexity                        433
   Isotope Atom Count                0
   Defined Atom Stereocenter Count   0
   Undefined Atom Stereocenter Count 1
   Defined Bond Stereocenter Count   0
   Undefined Bond Stereocenter Count 0
   Covalently-Bonded Unit Count      1
   Feature 3D Acceptor Count         4
   Feature 3D Donor Count            1
   Feature 3D Anion Count            1
   Feature 3D Hydrophobe Count       1
   Feature 3D Ring Count             2
   Effective Rotor Count             3.4
   Conformer Sampling RMSD           0.6
   CID Conformer Count               [10]27

References

   1. http://toxnet.nlm.nih.gov/cgi-bin/sis/search/r?dbs+hsdb:@term+@rn+@rel+81334-34-1
   2. http://toxnet.nlm.nih.gov/cgi-bin/sis/search/r?dbs+hsdb:@term+@rn+@rel+81334-34-1
   3. http://toxnet.nlm.nih.gov/cgi-bin/sis/search/r?dbs+hsdb:@term+@rn+@rel+81334-34-1
   4. http://toxnet.nlm.nih.gov/cgi-bin/sis/search/r?dbs+hsdb:@term+@rn+@rel+81334-34-1
   5. http://toxnet.nlm.nih.gov/cgi-bin/sis/search/r?dbs+hsdb:@term+@rn+@rel+81334-34-1
   6. http://toxnet.nlm.nih.gov/cgi-bin/sis/search/r?dbs+hsdb:@term+@rn+@rel+81334-34-1
   7. http://toxnet.nlm.nih.gov/cgi-bin/sis/search/r?dbs+hsdb:@term+@rn+@rel+81334-34-1
   8. http://toxnet.nlm.nih.gov/cgi-bin/sis/search/r?dbs+hsdb:@term+@rn+@rel+81334-34-1
   9. http://toxnet.nlm.nih.gov/cgi-bin/sis/search/r?dbs+hsdb:@term+@rn+@rel+81334-34-1
  10. http://pubchem.ncbi.nlm.nih.gov/vw3d/vw3d.cgi?cid=54738
