13311
  -OEChem-06261208512D

 26 26  0     0  0  0  0  0  0999 V2000
    8.1282   -1.0241    0.0000 S   0  0  0  0  0  0  0  0  0  0  0  0
    5.4641   -2.5000    0.0000 Na  0  3  0  0  0  0  0  0  0  0  0  0
    4.5981   -2.0000    0.0000 O   0  5  0  0  0  0  0  0  0  0  0  0
    8.9923   -1.5275    0.0000 O   0  5  0  0  0  0  0  0  0  0  0  0
    8.6315   -0.1601    0.0000 O   0  0  0  0  0  0  0  0  0  0  0  0
    7.6249   -1.8882    0.0000 O   0  0  0  0  0  0  0  0  0  0  0  0
    3.7320    2.5000    0.0000 O   0  5  0  0  0  0  0  0  0  0  0  0
    5.4641    2.5000    0.0000 O   0  0  0  0  0  0  0  0  0  0  0  0
    2.0000   -0.5000    0.0000 O   0  5  0  0  0  0  0  0  0  0  0  0
    2.8660   -2.0000    0.0000 O   0  0  0  0  0  0  0  0  0  0  0  0
    4.5981    2.0000    0.0000 N   0  3  0  0  0  0  0  0  0  0  0  0
    2.8660   -1.0000    0.0000 N   0  3  0  0  0  0  0  0  0  0  0  0
    5.4641    0.5000    0.0000 C   0  0  0  0  0  0  0  0  0  0  0  0
    5.4641   -0.5000    0.0000 C   0  0  0  0  0  0  0  0  0  0  0  0
    4.5981    1.0000    0.0000 C   0  0  0  0  0  0  0  0  0  0  0  0
    6.3580   -1.0347    0.0000 C   0  0  0  0  0  0  0  0  0  0  0  0
    7.2641   -0.5208    0.0000 C   0  0  0  0  0  0  0  0  0  0  0  0
    6.3580    1.0347    0.0000 C   0  0  0  0  0  0  0  0  0  0  0  0
    4.5981   -1.0000    0.0000 C   0  0  0  0  0  0  0  0  0  0  0  0
    7.2641    0.5208    0.0000 C   0  0  0  0  0  0  0  0  0  0  0  0
    3.7320   -0.5000    0.0000 C   0  0  0  0  0  0  0  0  0  0  0  0
    3.7320    0.5000    0.0000 C   0  0  0  0  0  0  0  0  0  0  0  0
    6.3509   -1.6546    0.0000 H   0  0  0  0  0  0  0  0  0  0  0  0
    6.3509    1.6546    0.0000 H   0  0  0  0  0  0  0  0  0  0  0  0
    7.7998    0.8329    0.0000 H   0  0  0  0  0  0  0  0  0  0  0  0
    3.1951    0.8100    0.0000 H   0  0  0  0  0  0  0  0  0  0  0  0
  1  4  1  0  0  0  0
  1  5  2  0  0  0  0
  1  6  2  0  0  0  0
  1 17  1  0  0  0  0
  3 19  1  0  0  0  0
  7 11  1  0  0  0  0
  8 11  2  0  0  0  0
  9 12  1  0  0  0  0
 10 12  2  0  0  0  0
 11 15  1  0  0  0  0
 12 21  1  0  0  0  0
 13 14  2  0  0  0  0
 13 15  1  0  0  0  0
 13 18  1  0  0  0  0
 14 16  1  0  0  0  0
 14 19  1  0  0  0  0
 15 22  2  0  0  0  0
 16 17  2  0  0  0  0
 16 23  1  0  0  0  0
 17 20  1  0  0  0  0
 18 20  2  0  0  0  0
 18 24  1  0  0  0  0
 19 21  2  0  0  0  0
 20 25  1  0  0  0  0
 21 22  1  0  0  0  0
 22 26  1  0  0  0  0
M  CHG  7   2   1   3  -1   4  -1   7  -1   9  -1  11   1  12   1
M  END
> <PUBCHEM_COMPOUND_CID>
13311

> <PUBCHEM_COMPOUND_CANONICALIZED>
1

> <PUBCHEM_CACTVS_COMPLEXITY>
519

> <PUBCHEM_CACTVS_HBOND_ACCEPTOR>
8

> <PUBCHEM_CACTVS_HBOND_DONOR>
0

> <PUBCHEM_CACTVS_ROTATABLE_BOND>
0

> <PUBCHEM_CACTVS_SUBSKEYS>
AAADcYBzPCBAAAAAAAAAAAAAAAAAAAAAAAAwYAAAAAAAAADBUAAAHgQEAAAADAyB2AAwx8AQQAKBAiRCQ3DCAEAgIgAoiBgFbIoKJiKA0dOAMABkwFEIyAewwLAOmEABwAQaEAAwgAOACDQgAAAAAAAAAA==

> <PUBCHEM_IUPAC_OPENEYE_NAME>
sodium 5,7-dinitro-8-oxido-naphthalene-2-sulfonate

> <PUBCHEM_IUPAC_CAS_NAME>
sodium 5,7-dinitro-8-oxido-2-naphthalenesulfonate

> <PUBCHEM_IUPAC_NAME>
sodium 5,7-dinitro-8-oxidonaphthalene-2-sulfonate

> <PUBCHEM_IUPAC_SYSTEMATIC_NAME>
sodium 5,7-dinitro-8-oxidanidyl-naphthalene-2-sulfonate

> <PUBCHEM_IUPAC_TRADITIONAL_NAME>
sodium 5,7-dinitro-8-oxido-naphthalene-2-sulfonate

> <PUBCHEM_IUPAC_INCHI>
InChI=1S/C10H6N2O8S.Na/c13-10-7-3-5(21(18,19)20)1-2-6(7)8(11(14)15)4-9(10)12(16)17;/h1-4,13H,(H,18,19,20);/q;+1/p-2

> <PUBCHEM_IUPAC_INCHIKEY>
CGXSFOUXEQBDCJ-UHFFFAOYSA-L

> <PUBCHEM_EXACT_MASS>
334.958605

> <PUBCHEM_MOLECULAR_FORMULA>
C10H4N2NaO8S-

> <PUBCHEM_MOLECULAR_WEIGHT>
335.202129

> <PUBCHEM_OPENEYE_CAN_SMILES>
C1=CC2=C(C=C1S(=O)(=O)[O-])C(=C(C=C2[N+](=O)[O-])[N+](=O)[O-])[O-].[Na+]

> <PUBCHEM_OPENEYE_ISO_SMILES>
C1=CC2=C(C=C1S(=O)(=O)[O-])C(=C(C=C2[N+](=O)[O-])[N+](=O)[O-])[O-].[Na+]

> <PUBCHEM_CACTVS_TPSA>
180

> <PUBCHEM_MONOISOTOPIC_WEIGHT>
334.958605

> <PUBCHEM_TOTAL_CHARGE>
-1

> <PUBCHEM_HEAVY_ATOM_COUNT>
22

> <PUBCHEM_ATOM_DEF_STEREO_COUNT>
0

> <PUBCHEM_ATOM_UDEF_STEREO_COUNT>
0

> <PUBCHEM_BOND_DEF_STEREO_COUNT>
0

> <PUBCHEM_BOND_UDEF_STEREO_COUNT>
0

> <PUBCHEM_ISOTOPIC_ATOM_COUNT>
0

> <PUBCHEM_COMPONENT_COUNT>
2

> <PUBCHEM_CACTVS_TAUTO_COUNT>
1

> <PUBCHEM_COORDINATE_TYPE>
1
5
255

> <PUBCHEM_BONDANNOTATIONS>
13  14  8
13  15  8
13  18  8
14  16  8
14  19  8
15  22  8
16  17  8
17  20  8
18  20  8
19  21  8
21  22  8

$$$$

