441170
  -OEChem-07051212522D

 60 64  0     1  0  0  0  0  0999 V2000
    2.5405    0.9825    0.0000 O   0  0  0  0  0  0  0  0  0  0  0  0
    2.5247   -1.0658    0.0000 O   0  0  0  0  0  0  0  0  0  0  0  0
    6.9088    0.4793    0.0000 O   0  0  0  0  0  0  0  0  0  0  0  0
    7.0009   -0.5662    0.0000 O   0  0  0  0  0  0  0  0  0  0  0  0
    7.8129    1.9762    0.0000 O   0  0  0  0  0  0  0  0  0  0  0  0
    4.2889    4.0108    0.0000 O   0  0  0  0  0  0  0  0  0  0  0  0
    7.8934   -2.1476    0.0000 O   0  0  0  0  0  0  0  0  0  0  0  0
    5.1702    5.6234    0.0000 O   0  0  0  0  0  0  0  0  0  0  0  0
    8.7850    5.6374    0.0000 O   0  0  0  0  0  0  0  0  0  0  0  0
    8.7998   -5.6374    0.0000 O   0  0  0  0  0  0  0  0  0  0  0  0
    7.0678   -5.6574    0.0000 O   0  0  0  0  0  0  0  0  0  0  0  0
    7.0447   -3.6576    0.0000 N   0  0  0  0  0  0  0  0  0  0  0  0
    3.4007    0.4725    0.0000 C   0  0  2  0  0  0  0  0  0  0  0  0
    3.3926   -0.5691    0.0000 C   0  0  2  0  0  0  0  0  0  0  0  0
    4.3107    0.9793    0.0000 C   0  0  0  0  0  0  0  0  0  0  0  0
    5.1767    0.4793    0.0000 C   0  0  0  0  0  0  0  0  0  0  0  0
    4.2947   -1.0899    0.0000 C   0  0  0  0  0  0  0  0  0  0  0  0
    5.1928   -0.5622    0.0000 C   0  0  0  0  0  0  0  0  0  0  0  0
    6.0427    0.9793    0.0000 C   0  0  0  0  0  0  0  0  0  0  0  0
    4.3107    1.9793    0.0000 C   0  0  0  0  0  0  0  0  0  0  0  0
    6.0427    1.9793    0.0000 C   0  0  0  0  0  0  0  0  0  0  0  0
    5.1767    2.4793    0.0000 C   0  0  0  0  0  0  0  0  0  0  0  0
    6.1447   -1.0828    0.0000 C   0  0  0  0  0  0  0  0  0  0  0  0
    4.2864   -2.1749    0.0000 C   0  0  0  0  0  0  0  0  0  0  0  0
    5.2260   -2.7174    0.0000 C   0  0  0  0  0  0  0  0  0  0  0  0
    6.1614   -2.1677    0.0000 C   0  0  0  0  0  0  0  0  0  0  0  0
    6.9527    2.4862    0.0000 C   0  0  0  0  0  0  0  0  0  0  0  0
    5.1606    3.5208    0.0000 C   0  0  0  0  0  0  0  0  0  0  0  0
    6.0587    4.0486    0.0000 C   0  0  0  0  0  0  0  0  0  0  0  0
    6.9608    3.5278    0.0000 C   0  0  0  0  0  0  0  0  0  0  0  0
    5.2298   -3.7174    0.0000 C   0  0  0  0  0  0  0  0  0  0  0  0
    7.0332   -2.6576    0.0000 C   0  0  0  0  0  0  0  0  0  0  0  0
    6.0420    5.1335    0.0000 C   0  0  0  0  0  0  0  0  0  0  0  0
    7.9086    4.0557    0.0000 C   0  0  0  0  0  0  0  0  0  0  0  0
    7.9170    5.1407    0.0000 C   0  0  0  0  0  0  0  0  0  0  0  0
    6.9774    5.6832    0.0000 C   0  0  0  0  0  0  0  0  0  0  0  0
    7.9165   -4.1475    0.0000 C   0  0  3  0  0  0  0  0  0  0  0  0
    8.7767   -3.6375    0.0000 C   0  0  0  0  0  0  0  0  0  0  0  0
    7.9280   -5.1474    0.0000 C   0  0  0  0  0  0  0  0  0  0  0  0
    3.4090    1.0924    0.0000 H   0  0  0  0  0  0  0  0  0  0  0  0
    2.8575   -0.2560    0.0000 H   0  0  0  0  0  0  0  0  0  0  0  0
    3.7737    2.2893    0.0000 H   0  0  0  0  0  0  0  0  0  0  0  0
    3.7482   -2.4828    0.0000 H   0  0  0  0  0  0  0  0  0  0  0  0
    2.0000    0.6787    0.0000 H   0  0  0  0  0  0  0  0  0  0  0  0
    2.5223   -1.6858    0.0000 H   0  0  0  0  0  0  0  0  0  0  0  0
    4.6098   -3.7198    0.0000 H   0  0  0  0  0  0  0  0  0  0  0  0
    5.2322   -4.3374    0.0000 H   0  0  0  0  0  0  0  0  0  0  0  0
    5.8498   -3.7150    0.0000 H   0  0  0  0  0  0  0  0  0  0  0  0
    7.4457    0.7893    0.0000 H   0  0  0  0  0  0  0  0  0  0  0  0
    7.5437   -0.8658    0.0000 H   0  0  0  0  0  0  0  0  0  0  0  0
    8.4420    3.7395    0.0000 H   0  0  0  0  0  0  0  0  0  0  0  0
    6.5114   -3.9737    0.0000 H   0  0  0  0  0  0  0  0  0  0  0  0
    6.9750    6.3032    0.0000 H   0  0  0  0  0  0  0  0  0  0  0  0
    7.9093   -3.5275    0.0000 H   0  0  0  0  0  0  0  0  0  0  0  0
    9.0928   -4.1708    0.0000 H   0  0  0  0  0  0  0  0  0  0  0  0
    9.3100   -3.3213    0.0000 H   0  0  0  0  0  0  0  0  0  0  0  0
    8.4605   -3.1042    0.0000 H   0  0  0  0  0  0  0  0  0  0  0  0
    5.1630    6.2434    0.0000 H   0  0  0  0  0  0  0  0  0  0  0  0
    8.7873    6.2573    0.0000 H   0  0  0  0  0  0  0  0  0  0  0  0
    8.8070   -6.2573    0.0000 H   0  0  0  0  0  0  0  0  0  0  0  0
 13  1  1  1  0  0  0
  1 44  1  0  0  0  0
 14  2  1  6  0  0  0
  2 45  1  0  0  0  0
  3 19  1  0  0  0  0
  3 49  1  0  0  0  0
  4 23  1  0  0  0  0
  4 50  1  0  0  0  0
  5 27  2  0  0  0  0
  6 28  2  0  0  0  0
  7 32  2  0  0  0  0
  8 33  1  0  0  0  0
  8 58  1  0  0  0  0
  9 35  1  0  0  0  0
  9 59  1  0  0  0  0
 10 39  1  0  0  0  0
 10 60  1  0  0  0  0
 11 39  2  0  0  0  0
 12 32  1  0  0  0  0
 12 37  1  0  0  0  0
 12 52  1  0  0  0  0
 13 14  1  0  0  0  0
 13 15  1  0  0  0  0
 13 40  1  0  0  0  0
 14 17  1  0  0  0  0
 14 41  1  0  0  0  0
 15 16  1  0  0  0  0
 15 20  2  0  0  0  0
 16 18  1  0  0  0  0
 16 19  2  0  0  0  0
 17 18  2  0  0  0  0
 17 24  1  0  0  0  0
 18 23  1  0  0  0  0
 19 21  1  0  0  0  0
 20 22  1  0  0  0  0
 20 42  1  0  0  0  0
 21 22  2  0  0  0  0
 21 27  1  0  0  0  0
 22 28  1  0  0  0  0
 23 26  2  0  0  0  0
 24 25  2  0  0  0  0
 24 43  1  0  0  0  0
 25 26  1  0  0  0  0
 25 31  1  0  0  0  0
 26 32  1  0  0  0  0
 27 30  1  0  0  0  0
 28 29  1  0  0  0  0
 29 30  2  0  0  0  0
 29 33  1  0  0  0  0
 30 34  1  0  0  0  0
 31 46  1  0  0  0  0
 31 47  1  0  0  0  0
 31 48  1  0  0  0  0
 33 36  2  0  0  0  0
 34 35  2  0  0  0  0
 34 51  1  0  0  0  0
 35 36  1  0  0  0  0
 36 53  1  0  0  0  0
 37 38  1  0  0  0  0
 37 39  1  0  0  0  0
 37 54  1  0  0  0  0
 38 55  1  0  0  0  0
 38 56  1  0  0  0  0
 38 57  1  0  0  0  0
M  END
> <PUBCHEM_COMPOUND_CID>
441170

> <PUBCHEM_COMPOUND_CANONICALIZED>
1

> <PUBCHEM_CACTVS_COMPLEXITY>
1040

> <PUBCHEM_CACTVS_HBOND_ACCEPTOR>
11

> <PUBCHEM_CACTVS_HBOND_DONOR>
8

> <PUBCHEM_CACTVS_ROTATABLE_BOND>
3

> <PUBCHEM_CACTVS_SUBSKEYS>
AAADceB6PAAAAAAAAAAAAAAAAAAAAAAAAAAwYMGDAAAAAADBUAAAHgAQCAAADDzhmAYyDoLAAgCIAqHSGACCAAAkIAAAiIGODMgLNzaClTOEcUhn9hWZmYfb7PTO4AADCAAYAADAAAYQADCAAAAAAAAAAA==

> <PUBCHEM_IUPAC_OPENEYE_NAME>
2-[[(5S,6S)-1,5,6,9,11,14-hexahydroxy-3-methyl-8,13-dioxo-5,6-dihydrobenzo[a]tetracene-2-carbonyl]amino]propanoic acid

> <PUBCHEM_IUPAC_CAS_NAME>
2-[[[(5S,6S)-1,5,6,9,11,14-hexahydroxy-3-methyl-8,13-dioxo-5,6-dihydrobenzo[a]tetracen-2-yl]-oxomethyl]amino]propanoic acid

> <PUBCHEM_IUPAC_NAME>
2-[[(5S,6S)-1,5,6,9,11,14-hexahydroxy-3-methyl-8,13-dioxo-5,6-dihydrobenzo[a]tetracene-2-carbonyl]amino]propanoic acid

> <PUBCHEM_IUPAC_SYSTEMATIC_NAME>
2-[[(5S,6S)-3-methyl-1,5,6,9,11,14-hexakis(oxidanyl)-8,13-bis(oxidanylidene)-5,6-dihydrobenzo[a]tetracen-2-yl]carbonylamino]propanoic acid

> <PUBCHEM_IUPAC_TRADITIONAL_NAME>
2-[[(5S,6S)-1,5,6,9,11,14-hexahydroxy-8,13-diketo-3-methyl-5,6-dihydrobenzo[a]tetracene-2-carbonyl]amino]propionic acid

> <PUBCHEM_IUPAC_INCHI>
InChI=1S/C27H21NO11/c1-7-3-10-17(24(35)15(7)26(37)28-8(2)27(38)39)18-12(23(34)22(10)33)6-13-19(25(18)36)21(32)11-4-9(29)5-14(30)16(11)20(13)31/h3-6,8,22-23,29-30,33-36H,1-2H3,(H,28,37)(H,38,39)/t8?,22-,23-/m0/s1

> <PUBCHEM_IUPAC_INCHIKEY>
IJJFUQHXTUKIGS-KADLPKKJSA-N

> <PUBCHEM_XLOGP3_AA>
2.4

> <PUBCHEM_EXACT_MASS>
535.11146

> <PUBCHEM_MOLECULAR_FORMULA>
C27H21NO11

> <PUBCHEM_MOLECULAR_WEIGHT>
535.45574

> <PUBCHEM_OPENEYE_CAN_SMILES>
CC1=C(C(=C2C(=C1)C(C(C3=C2C(=C4C(=C3)C(=O)C5=C(C=C(C=C5C4=O)O)O)O)O)O)O)C(=O)NC(C)C(=O)O

> <PUBCHEM_OPENEYE_ISO_SMILES>
CC1=C(C(=C2C(=C1)[C@@H]([C@H](C3=C2C(=C4C(=C3)C(=O)C5=C(C=C(C=C5C4=O)O)O)O)O)O)O)C(=O)NC(C)C(=O)O

> <PUBCHEM_CACTVS_TPSA>
222

> <PUBCHEM_MONOISOTOPIC_WEIGHT>
535.11146

> <PUBCHEM_TOTAL_CHARGE>
0

> <PUBCHEM_HEAVY_ATOM_COUNT>
39

> <PUBCHEM_ATOM_DEF_STEREO_COUNT>
2

> <PUBCHEM_ATOM_UDEF_STEREO_COUNT>
1

> <PUBCHEM_BOND_DEF_STEREO_COUNT>
0

> <PUBCHEM_BOND_UDEF_STEREO_COUNT>
0

> <PUBCHEM_ISOTOPIC_ATOM_COUNT>
0

> <PUBCHEM_COMPONENT_COUNT>
1

> <PUBCHEM_CACTVS_TAUTO_COUNT>
994

> <PUBCHEM_COORDINATE_TYPE>
1
5
255

> <PUBCHEM_BONDANNOTATIONS>
13  1  5
15  16  8
15  20  8
16  19  8
17  18  8
17  24  8
18  23  8
19  21  8
14  2  6
20  22  8
21  22  8
23  26  8
24  25  8
25  26  8
29  30  8
29  33  8
30  34  8
33  36  8
34  35  8
35  36  8
37  38  3

$$$$

