156247
  -OEChem-07051213102D

 40 41  0     1  0  0  0  0  0999 V2000
    5.5981   -1.5670    0.0000 Br  0  0  0  0  0  0  0  0  0  0  0  0
    2.1340    2.4330    0.0000 Br  0  0  0  0  0  0  0  0  0  0  0  0
    4.3660   -2.4330    0.0000 Cl  0  0  0  0  0  0  0  0  0  0  0  0
    5.5981    0.4330    0.0000 O   0  0  0  0  0  0  0  0  0  0  0  0
    3.8660    0.4330    0.0000 C   0  0  1  0  0  0  0  0  0  0  0  0
    3.0000    0.9330    0.0000 C   0  0  0  0  0  0  0  0  0  0  0  0
    4.7320   -0.0670    0.0000 C   0  0  0  0  0  0  0  0  0  0  0  0
    3.0000   -0.0670    0.0000 C   0  0  0  0  0  0  0  0  0  0  0  0
    3.8660   -1.5670    0.0000 C   0  0  1  0  0  0  0  0  0  0  0  0
    4.7320   -1.0670    0.0000 C   0  0  2  0  0  0  0  0  0  0  0  0
    3.0000   -1.0670    0.0000 C   0  0  0  0  0  0  0  0  0  0  0  0
    4.7320    0.9330    0.0000 C   0  0  0  0  0  0  0  0  0  0  0  0
    4.7320    1.9330    0.0000 C   0  0  1  0  0  0  0  0  0  0  0  0
    3.0000    1.9330    0.0000 C   0  0  0  0  0  0  0  0  0  0  0  0
    2.0000    0.9330    0.0000 C   0  0  0  0  0  0  0  0  0  0  0  0
    2.2340    0.2902    0.0000 C   0  0  0  0  0  0  0  0  0  0  0  0
    3.8660    2.4330    0.0000 C   0  0  0  0  0  0  0  0  0  0  0  0
    3.3660   -2.4330    0.0000 C   0  0  0  0  0  0  0  0  0  0  0  0
    5.5981    2.4330    0.0000 C   0  0  0  0  0  0  0  0  0  0  0  0
    5.3426   -0.1746    0.0000 H   0  0  0  0  0  0  0  0  0  0  0  0
    4.9441    0.5156    0.0000 H   0  0  0  0  0  0  0  0  0  0  0  0
    2.7880    0.5156    0.0000 H   0  0  0  0  0  0  0  0  0  0  0  0
    2.3894   -0.1746    0.0000 H   0  0  0  0  0  0  0  0  0  0  0  0
    4.7320   -1.6870    0.0000 H   0  0  0  0  0  0  0  0  0  0  0  0
    2.3894   -0.9593    0.0000 H   0  0  0  0  0  0  0  0  0  0  0  0
    2.7880   -1.6496    0.0000 H   0  0  0  0  0  0  0  0  0  0  0  0
    4.7320    2.5530    0.0000 H   0  0  0  0  0  0  0  0  0  0  0  0
    2.0000    1.5530    0.0000 H   0  0  0  0  0  0  0  0  0  0  0  0
    1.3800    0.9330    0.0000 H   0  0  0  0  0  0  0  0  0  0  0  0
    2.0000    0.3130    0.0000 H   0  0  0  0  0  0  0  0  0  0  0  0
    1.8354    0.7651    0.0000 H   0  0  0  0  0  0  0  0  0  0  0  0
    1.7590   -0.1083    0.0000 H   0  0  0  0  0  0  0  0  0  0  0  0
    2.6325   -0.1847    0.0000 H   0  0  0  0  0  0  0  0  0  0  0  0
    3.8660    3.0530    0.0000 H   0  0  0  0  0  0  0  0  0  0  0  0
    2.8291   -2.1230    0.0000 H   0  0  0  0  0  0  0  0  0  0  0  0
    3.0560   -2.9700    0.0000 H   0  0  0  0  0  0  0  0  0  0  0  0
    3.9030   -2.7430    0.0000 H   0  0  0  0  0  0  0  0  0  0  0  0
    5.9081    1.8961    0.0000 H   0  0  0  0  0  0  0  0  0  0  0  0
    6.1350    2.7430    0.0000 H   0  0  0  0  0  0  0  0  0  0  0  0
    5.2881    2.9700    0.0000 H   0  0  0  0  0  0  0  0  0  0  0  0
 10  1  1  1  0  0  0
  2 14  1  0  0  0  0
  9  3  1  6  0  0  0
  4 12  2  0  0  0  0
  5  6  1  0  0  0  0
  5  7  1  1  0  0  0
  5  8  1  0  0  0  0
  5 12  1  0  0  0  0
  6 14  1  0  0  0  0
  6 15  1  0  0  0  0
  6 16  1  0  0  0  0
  7 10  1  0  0  0  0
  7 20  1  0  0  0  0
  7 21  1  0  0  0  0
  8 11  1  0  0  0  0
  8 22  1  0  0  0  0
  8 23  1  0  0  0  0
  9 10  1  0  0  0  0
  9 11  1  0  0  0  0
  9 18  1  0  0  0  0
 10 24  1  0  0  0  0
 11 25  1  0  0  0  0
 11 26  1  0  0  0  0
 12 13  1  0  0  0  0
 13 17  1  0  0  0  0
 13 19  1  1  0  0  0
 13 27  1  0  0  0  0
 14 17  2  0  0  0  0
 15 28  1  0  0  0  0
 15 29  1  0  0  0  0
 15 30  1  0  0  0  0
 16 31  1  0  0  0  0
 16 32  1  0  0  0  0
 16 33  1  0  0  0  0
 17 34  1  0  0  0  0
 18 35  1  0  0  0  0
 18 36  1  0  0  0  0
 18 37  1  0  0  0  0
 19 38  1  0  0  0  0
 19 39  1  0  0  0  0
 19 40  1  0  0  0  0
M  END
> <PUBCHEM_COMPOUND_CID>
156247

> <PUBCHEM_COMPOUND_CANONICALIZED>
1

> <PUBCHEM_CACTVS_COMPLEXITY>
445

> <PUBCHEM_CACTVS_HBOND_ACCEPTOR>
1

> <PUBCHEM_CACTVS_HBOND_DONOR>
0

> <PUBCHEM_CACTVS_ROTATABLE_BOND>
0

> <PUBCHEM_CACTVS_SUBSKEYS>
AAADceBwIAAEGAAAAAAAAAAAAAAAAAAAAAAwQAAAAAAAAAAAAAAAGgJAAAABzwaAgAACAAAAAACIAKBSAAAAAAAgAAAACAEAAigAABIBAAAAAAAAgAAIAAMIiMCPgAAAAAAAAACIAAAgAAEABAAAAAAAAA==

> <PUBCHEM_IUPAC_OPENEYE_NAME>
(2R,6S,9R,10R)-4,10-dibromo-9-chloro-2,5,5,9-tetramethyl-spiro[5.5]undec-3-en-1-one

> <PUBCHEM_IUPAC_CAS_NAME>
(2R,6S,9R,10R)-4,10-dibromo-9-chloro-2,5,5,9-tetramethyl-1-spiro[5.5]undec-3-enone

> <PUBCHEM_IUPAC_NAME>
(2R,6S,9R,10R)-4,10-dibromo-9-chloro-2,5,5,9-tetramethylspiro[5.5]undec-3-en-1-one

> <PUBCHEM_IUPAC_SYSTEMATIC_NAME>
(2R,6S,9R,10R)-4,10-bis(bromanyl)-9-chloranyl-2,5,5,9-tetramethyl-spiro[5.5]undec-3-en-1-one

> <PUBCHEM_IUPAC_TRADITIONAL_NAME>
(2R,6S,9R,10R)-4,10-dibromo-9-chloro-2,5,5,9-tetramethyl-spiro[5.5]undec-3-en-1-one

> <PUBCHEM_IUPAC_INCHI>
InChI=1S/C15H21Br2ClO/c1-9-7-10(16)13(2,3)15(12(9)19)6-5-14(4,18)11(17)8-15/h7,9,11H,5-6,8H2,1-4H3/t9-,11-,14-,15-/m1/s1

> <PUBCHEM_IUPAC_INCHIKEY>
HMWLZIQJSYGFHO-NZQZLILVSA-N

> <PUBCHEM_XLOGP3_AA>
5

> <PUBCHEM_EXACT_MASS>
411.962721

> <PUBCHEM_MOLECULAR_FORMULA>
C15H21Br2ClO

> <PUBCHEM_MOLECULAR_WEIGHT>
412.58764

> <PUBCHEM_OPENEYE_CAN_SMILES>
CC1C=C(C(C2(C1=O)CCC(C(C2)Br)(C)Cl)(C)C)Br

> <PUBCHEM_OPENEYE_ISO_SMILES>
C[C@@H]1C=C(C([C@]2(C1=O)CC[C@@]([C@@H](C2)Br)(C)Cl)(C)C)Br

> <PUBCHEM_CACTVS_TPSA>
17.1

> <PUBCHEM_MONOISOTOPIC_WEIGHT>
409.964767

> <PUBCHEM_TOTAL_CHARGE>
0

> <PUBCHEM_HEAVY_ATOM_COUNT>
19

> <PUBCHEM_ATOM_DEF_STEREO_COUNT>
4

> <PUBCHEM_ATOM_UDEF_STEREO_COUNT>
0

> <PUBCHEM_BOND_DEF_STEREO_COUNT>
0

> <PUBCHEM_BOND_UDEF_STEREO_COUNT>
0

> <PUBCHEM_ISOTOPIC_ATOM_COUNT>
0

> <PUBCHEM_COMPONENT_COUNT>
1

> <PUBCHEM_CACTVS_TAUTO_COUNT>
2

> <PUBCHEM_COORDINATE_TYPE>
1
5
255

> <PUBCHEM_BONDANNOTATIONS>
10  1  5
13  19  5
9  3  6
5  7  5

$$$$

