   Color/Form

     * Orthorhombic crystals from water
     * White crystalline powder

   from [1]HSDB

   Odor
        Odorless
   from [2]HSDB

   Taste
        Sweet taste
   from [3]HSDB

   Boiling Point
        250 deg C (sublimes)
   from [4]HSDB

   Melting Point
        297 deg C (decomposes)
   from [5]HSDB

   Density/Specific Gravity
        1.432 g/cu cm at 22 deg C
   from [6]HSDB

   Dissociation Constants
        pKa1 = 2.34 /carboxylic acid/; pKa2 = 9.69 /primary amine/
   from [7]HSDB

   Octanol/Water Partition Coefficient
        log Kow = -2.85
   from [8]HSDB

   Solubilities

     * Solubility in cold 80% ethanol = 0.2%
     * Slightly soluble in ethanol, pyridine; insoluble in ether, acetone
     * In water, 1.64X10+5 mg/L at 25 deg C

   from [9]HSDB

   Spectral Properties

     * Specific optical rotation= +2.42 deg for D-sodium line at 25 deg C
       (c = 10 in H2O); +13.7 deg for D sodium line at 25 deg C (c = 2.063
       in 6N HCl)
     * SPECIFIC OPTICAL ROTATION: +2.8 DEG @ 25 DEG C/D (WATER, CONCN=
       6%); SPECIFIC OPTICAL ROTATION: +9.55 DEG @ 25 DEG C/D
       (HYDROCHLORIC ACID)
     * MASS: 30598 (NIST/EPA/MSDC Mass Spectral Database, 1990 Version)
     * IR: 164 (Sadtler Research Laboratories IR grating collection)
     * UV: 2-10 (Phillip et al., Organic Electronic Spectral Data, John
       Wiley and Sons, New York)
     * Raman: 425 (Sadtler Research Laboratories spectral collection)
     * H1 NMR: 7553 (Sadtler Research Laboratories spectral collection)
     * C13 NMR: 36 (Johnson and Jankowski, Carbon-13 NMR Spectra, John
       Wiley and Sons, New York)

   from [10]HSDB

   Vapor Pressure
        1.05X10-7 mm Hg at 25 deg C (est)
   from [11]HSDB

   Other Chemical/Physical Properties

     * PRISMS; DECOMP @ 204 DEG C /L-ALANINE HYDROCHLORIDE/
     * IR: 164 (Sadtler Research Laboratories IR Grating Collection)
       /Alpha-alanine (dl)/
     * UV: 2-10 (Organic Electronic Spectral Data, Phillips et al, John
       Wiley & Sons, New York) /Alpha-alanine (dl)/
     * NMR: 7552 (Sadtler Research Laboratories Spectral Collection)
       /Alpha-alanine (dl)/
     * Henry's Law constant = 1.5X10-9 atm-cu m/mol at 25 deg C (est)
     * Hydroxyl radical reaction rate constant = 3.5X10-11 cu
       cm/molecule-sec at 25 deg C (est)

   from [12]HSDB

   Computed Properties
   Molecular Weight                  89.09318 [g/mol]
   Molecular Formula                 C[3]H[7]NO[2]
   XLogP3                            -3
   H-Bond Donor                      2
   H-Bond Acceptor                   3
   Rotatable Bond Count              1
   Exact Mass                        89.047678
   MonoIsotopic Mass                 89.047678
   Topological Polar Surface Area    63.3
   Heavy Atom Count                  6
   Formal Charge                     0
   Complexity                        61.8
   Isotope Atom Count                0
   Defined Atom Stereocenter Count   1
   Undefined Atom Stereocenter Count 0
   Defined Bond Stereocenter Count   0
   Undefined Bond Stereocenter Count 0
   Covalently-Bonded Unit Count      1
   Feature 3D Acceptor Count         2
   Feature 3D Donor Count            1
   Feature 3D Anion Count            1
   Feature 3D Cation Count           1
   Effective Rotor Count             1
   Conformer Sampling RMSD           0.4
   CID Conformer Count               [13]3

References

   1. http://toxnet.nlm.nih.gov/cgi-bin/sis/search/r?dbs+hsdb:@term+@rn+@rel+56-41-7
   2. http://toxnet.nlm.nih.gov/cgi-bin/sis/search/r?dbs+hsdb:@term+@rn+@rel+56-41-7
   3. http://toxnet.nlm.nih.gov/cgi-bin/sis/search/r?dbs+hsdb:@term+@rn+@rel+56-41-7
   4. http://toxnet.nlm.nih.gov/cgi-bin/sis/search/r?dbs+hsdb:@term+@rn+@rel+56-41-7
   5. http://toxnet.nlm.nih.gov/cgi-bin/sis/search/r?dbs+hsdb:@term+@rn+@rel+56-41-7
   6. http://toxnet.nlm.nih.gov/cgi-bin/sis/search/r?dbs+hsdb:@term+@rn+@rel+56-41-7
   7. http://toxnet.nlm.nih.gov/cgi-bin/sis/search/r?dbs+hsdb:@term+@rn+@rel+56-41-7
   8. http://toxnet.nlm.nih.gov/cgi-bin/sis/search/r?dbs+hsdb:@term+@rn+@rel+56-41-7
   9. http://toxnet.nlm.nih.gov/cgi-bin/sis/search/r?dbs+hsdb:@term+@rn+@rel+56-41-7
  10. http://toxnet.nlm.nih.gov/cgi-bin/sis/search/r?dbs+hsdb:@term+@rn+@rel+56-41-7
  11. http://toxnet.nlm.nih.gov/cgi-bin/sis/search/r?dbs+hsdb:@term+@rn+@rel+56-41-7
  12. http://toxnet.nlm.nih.gov/cgi-bin/sis/search/r?dbs+hsdb:@term+@rn+@rel+56-41-7
  13. http://pubchem.ncbi.nlm.nih.gov/vw3d/vw3d.cgi?cid=5950
