14283
  -OEChem-06241222422D

 22 22  0     0  0  0  0  0  0999 V2000
    2.0000    1.4400    0.0000 O   0  0  0  0  0  0  0  0  0  0  0  0
    3.7320    1.4400    0.0000 N   0  0  0  0  0  0  0  0  0  0  0  0
    2.8660   -0.0600    0.0000 C   0  0  0  0  0  0  0  0  0  0  0  0
    2.0000   -0.5600    0.0000 C   0  0  0  0  0  0  0  0  0  0  0  0
    3.7320   -0.5600    0.0000 C   0  0  0  0  0  0  0  0  0  0  0  0
    2.0000   -1.5600    0.0000 C   0  0  0  0  0  0  0  0  0  0  0  0
    3.7320   -1.5600    0.0000 C   0  0  0  0  0  0  0  0  0  0  0  0
    2.8660   -2.0600    0.0000 C   0  0  0  0  0  0  0  0  0  0  0  0
    2.8660    0.9400    0.0000 C   0  0  0  0  0  0  0  0  0  0  0  0
    3.4030    0.2500    0.0000 H   0  0  0  0  0  0  0  0  0  0  0  0
    1.7880    0.0226    0.0000 H   0  0  0  0  0  0  0  0  0  0  0  0
    1.3894   -0.6677    0.0000 H   0  0  0  0  0  0  0  0  0  0  0  0
    4.3426   -0.6677    0.0000 H   0  0  0  0  0  0  0  0  0  0  0  0
    3.9441    0.0226    0.0000 H   0  0  0  0  0  0  0  0  0  0  0  0
    1.3894   -1.4523    0.0000 H   0  0  0  0  0  0  0  0  0  0  0  0
    1.7880   -2.1426    0.0000 H   0  0  0  0  0  0  0  0  0  0  0  0
    3.9441   -2.1426    0.0000 H   0  0  0  0  0  0  0  0  0  0  0  0
    4.3426   -1.4523    0.0000 H   0  0  0  0  0  0  0  0  0  0  0  0
    2.4675   -2.5349    0.0000 H   0  0  0  0  0  0  0  0  0  0  0  0
    3.2646   -2.5349    0.0000 H   0  0  0  0  0  0  0  0  0  0  0  0
    3.7320    2.0600    0.0000 H   0  0  0  0  0  0  0  0  0  0  0  0
    4.2690    1.1300    0.0000 H   0  0  0  0  0  0  0  0  0  0  0  0
  1  9  2  0  0  0  0
  2  9  1  0  0  0  0
  2 21  1  0  0  0  0
  2 22  1  0  0  0  0
  3  4  1  0  0  0  0
  3  5  1  0  0  0  0
  3  9  1  0  0  0  0
  3 10  1  0  0  0  0
  4  6  1  0  0  0  0
  4 11  1  0  0  0  0
  4 12  1  0  0  0  0
  5  7  1  0  0  0  0
  5 13  1  0  0  0  0
  5 14  1  0  0  0  0
  6  8  1  0  0  0  0
  6 15  1  0  0  0  0
  6 16  1  0  0  0  0
  7  8  1  0  0  0  0
  7 17  1  0  0  0  0
  7 18  1  0  0  0  0
  8 19  1  0  0  0  0
  8 20  1  0  0  0  0
M  END
> <PUBCHEM_COMPOUND_CID>
14283

> <PUBCHEM_COMPOUND_CANONICALIZED>
1

> <PUBCHEM_CACTVS_COMPLEXITY>
106

> <PUBCHEM_CACTVS_HBOND_ACCEPTOR>
1

> <PUBCHEM_CACTVS_HBOND_DONOR>
1

> <PUBCHEM_CACTVS_ROTATABLE_BOND>
1

> <PUBCHEM_CACTVS_SUBSKEYS>
AAADccBiIAAAAAAAAAAAAAAAAAAAAAAAAAAwAAAAAAAAAAAAAAAAHgAQAAAADQCBgAAAAABAAAAIAAEQEAAAAAAAAAAAAAEAAAAAABIAgAAAAAAAEAAAAAEYiACOAAAAAAAAAAAAAAAAAAAAAAAAAAAAAA==

> <PUBCHEM_IUPAC_OPENEYE_NAME>
cyclohexanecarboxamide

> <PUBCHEM_IUPAC_CAS_NAME>
cyclohexanecarboxamide

> <PUBCHEM_IUPAC_NAME>
cyclohexanecarboxamide

> <PUBCHEM_IUPAC_SYSTEMATIC_NAME>
cyclohexanecarboxamide

> <PUBCHEM_IUPAC_TRADITIONAL_NAME>
cyclohexanecarboxamide

> <PUBCHEM_IUPAC_INCHI>
InChI=1S/C7H13NO/c8-7(9)6-4-2-1-3-5-6/h6H,1-5H2,(H2,8,9)

> <PUBCHEM_IUPAC_INCHIKEY>
PNZXMIKHJXIPEK-UHFFFAOYSA-N

> <PUBCHEM_XLOGP3_AA>
1.2

> <PUBCHEM_EXACT_MASS>
127.099714

> <PUBCHEM_MOLECULAR_FORMULA>
C7H13NO

> <PUBCHEM_MOLECULAR_WEIGHT>
127.18422

> <PUBCHEM_OPENEYE_CAN_SMILES>
C1CCC(CC1)C(=O)N

> <PUBCHEM_OPENEYE_ISO_SMILES>
C1CCC(CC1)C(=O)N

> <PUBCHEM_CACTVS_TPSA>
43.1

> <PUBCHEM_MONOISOTOPIC_WEIGHT>
127.099714

> <PUBCHEM_TOTAL_CHARGE>
0

> <PUBCHEM_HEAVY_ATOM_COUNT>
9

> <PUBCHEM_ATOM_DEF_STEREO_COUNT>
0

> <PUBCHEM_ATOM_UDEF_STEREO_COUNT>
0

> <PUBCHEM_BOND_DEF_STEREO_COUNT>
0

> <PUBCHEM_BOND_UDEF_STEREO_COUNT>
0

> <PUBCHEM_ISOTOPIC_ATOM_COUNT>
0

> <PUBCHEM_COMPONENT_COUNT>
1

> <PUBCHEM_CACTVS_TAUTO_COUNT>
3

> <PUBCHEM_COORDINATE_TYPE>
1
5
255

$$$$

