5281455
  -OEChem-07051212572D

 51 54  0     1  0  0  0  0  0999 V2000
    4.1282   -2.5617    0.0000 O   0  0  0  0  0  0  0  0  0  0  0  0
    3.8234    1.4412    0.0000 O   0  0  0  0  0  0  0  0  0  0  0  0
    3.2822    0.6881    0.0000 O   0  0  0  0  0  0  0  0  0  0  0  0
    6.7266   -0.0643    0.0000 O   0  0  0  0  0  0  0  0  0  0  0  0
    2.7812   -2.7652    0.0000 O   0  0  0  0  0  0  0  0  0  0  0  0
    4.6282    3.0248    0.0000 O   0  0  0  0  0  0  0  0  0  0  0  0
    7.1120   -1.7529    0.0000 O   0  0  0  0  0  0  0  0  0  0  0  0
    4.6282   -1.6956    0.0000 C   0  0  1  0  0  0  0  0  0  0  0  0
    3.7272   -1.2617    0.0000 C   0  0  1  0  0  0  0  0  0  0  0  0
    3.5047   -0.2868    0.0000 C   0  0  2  0  0  0  0  0  0  0  0  0
    5.5291   -1.2617    0.0000 C   0  0  0  0  0  0  0  0  0  0  0  0
    4.1282    0.4950    0.0000 C   0  0  2  0  0  0  0  0  0  0  0  0
    5.1282   -2.5617    0.0000 C   0  0  0  0  0  0  0  0  0  0  0  0
    5.1282    0.4950    0.0000 C   0  0  1  0  0  0  0  0  0  0  0  0
    2.8725   -1.7694    0.0000 C   0  0  1  0  0  0  0  0  0  0  0  0
    5.7517   -0.2868    0.0000 C   0  0  2  0  0  0  0  0  0  0  0  0
    2.5144   -0.2003    0.0000 C   0  0  0  0  0  0  0  0  0  0  0  0
    2.1245   -1.1147    0.0000 C   0  0  0  0  0  0  0  0  0  0  0  0
    5.4329    1.4412    0.0000 C   0  0  0  0  0  0  0  0  0  0  0  0
    2.0000    0.6573    0.0000 C   0  0  0  0  0  0  0  0  0  0  0  0
    4.6282    2.0248    0.0000 C   0  0  0  0  0  0  0  0  0  0  0  0
    6.3834    1.7519    0.0000 C   0  0  0  0  0  0  0  0  0  0  0  0
    7.4068   -0.7973    0.0000 C   0  0  0  0  0  0  0  0  0  0  0  0
    8.3817   -0.5748    0.0000 C   0  0  0  0  0  0  0  0  0  0  0  0
    8.6765    0.3808    0.0000 C   0  0  0  0  0  0  0  0  0  0  0  0
    9.0619   -1.3079    0.0000 C   0  0  0  0  0  0  0  0  0  0  0  0
    8.7671   -2.2635    0.0000 C   0  0  0  0  0  0  0  0  0  0  0  0
    3.7642   -2.1109    0.0000 H   0  0  0  0  0  0  0  0  0  0  0  0
    5.6671   -1.8662    0.0000 H   0  0  0  0  0  0  0  0  0  0  0  0
    6.1492   -1.2617    0.0000 H   0  0  0  0  0  0  0  0  0  0  0  0
    3.2920    0.6479    0.0000 H   0  0  0  0  0  0  0  0  0  0  0  0
    5.2358   -3.1722    0.0000 H   0  0  0  0  0  0  0  0  0  0  0  0
    5.7108   -2.3496    0.0000 H   0  0  0  0  0  0  0  0  0  0  0  0
    5.9643    0.6479    0.0000 H   0  0  0  0  0  0  0  0  0  0  0  0
    2.2968   -1.9995    0.0000 H   0  0  0  0  0  0  0  0  0  0  0  0
    5.9564    0.2984    0.0000 H   0  0  0  0  0  0  0  0  0  0  0  0
    1.5200   -1.2527    0.0000 H   0  0  0  0  0  0  0  0  0  0  0  0
    2.6897    0.8709    0.0000 H   0  0  0  0  0  0  0  0  0  0  0  0
    2.5317    0.9762    0.0000 H   0  0  0  0  0  0  0  0  0  0  0  0
    1.6811    1.1890    0.0000 H   0  0  0  0  0  0  0  0  0  0  0  0
    1.4683    0.3384    0.0000 H   0  0  0  0  0  0  0  0  0  0  0  0
    2.2182   -3.0248    0.0000 H   0  0  0  0  0  0  0  0  0  0  0  0
    6.8449    1.3378    0.0000 H   0  0  0  0  0  0  0  0  0  0  0  0
    6.5113    2.3586    0.0000 H   0  0  0  0  0  0  0  0  0  0  0  0
    9.2689    0.1980    0.0000 H   0  0  0  0  0  0  0  0  0  0  0  0
    8.8592    0.9732    0.0000 H   0  0  0  0  0  0  0  0  0  0  0  0
    8.0840    0.5635    0.0000 H   0  0  0  0  0  0  0  0  0  0  0  0
    9.6663   -1.1699    0.0000 H   0  0  0  0  0  0  0  0  0  0  0  0
    8.1747   -2.0807    0.0000 H   0  0  0  0  0  0  0  0  0  0  0  0
    8.5844   -2.8559    0.0000 H   0  0  0  0  0  0  0  0  0  0  0  0
    9.3596   -2.4462    0.0000 H   0  0  0  0  0  0  0  0  0  0  0  0
  8  1  1  1  0  0  0
  1 13  1  0  0  0  0
  2 12  1  0  0  0  0
  2 21  1  0  0  0  0
 10  3  1  1  0  0  0
  3 38  1  0  0  0  0
 16  4  1  6  0  0  0
  4 23  1  0  0  0  0
 15  5  1  6  0  0  0
  5 42  1  0  0  0  0
  6 21  2  0  0  0  0
  7 23  2  0  0  0  0
  8  9  1  0  0  0  0
  8 11  1  0  0  0  0
  8 13  1  0  0  0  0
  9 10  1  0  0  0  0
  9 15  1  0  0  0  0
  9 28  1  1  0  0  0
 10 12  1  0  0  0  0
 10 17  1  0  0  0  0
 11 16  1  0  0  0  0
 11 29  1  0  0  0  0
 11 30  1  0  0  0  0
 12 14  1  0  0  0  0
 12 31  1  6  0  0  0
 13 32  1  0  0  0  0
 13 33  1  0  0  0  0
 14 16  1  0  0  0  0
 14 19  1  0  0  0  0
 14 34  1  1  0  0  0
 15 18  1  0  0  0  0
 15 35  1  0  0  0  0
 16 36  1  0  0  0  0
 17 18  2  0  0  0  0
 17 20  1  0  0  0  0
 18 37  1  0  0  0  0
 19 21  1  0  0  0  0
 19 22  2  0  0  0  0
 20 39  1  0  0  0  0
 20 40  1  0  0  0  0
 20 41  1  0  0  0  0
 22 43  1  0  0  0  0
 22 44  1  0  0  0  0
 23 24  1  0  0  0  0
 24 25  1  0  0  0  0
 24 26  2  0  0  0  0
 25 45  1  0  0  0  0
 25 46  1  0  0  0  0
 25 47  1  0  0  0  0
 26 27  1  0  0  0  0
 26 48  1  0  0  0  0
 27 49  1  0  0  0  0
 27 50  1  0  0  0  0
 27 51  1  0  0  0  0
M  END
> <PUBCHEM_COMPOUND_CID>
5281455

> <PUBCHEM_COMPOUND_CANONICALIZED>
1

> <PUBCHEM_CACTVS_COMPLEXITY>
796

> <PUBCHEM_CACTVS_HBOND_ACCEPTOR>
7

> <PUBCHEM_CACTVS_HBOND_DONOR>
2

> <PUBCHEM_CACTVS_ROTATABLE_BOND>
3

> <PUBCHEM_CACTVS_SUBSKEYS>
AAADceB4OAAAAAAAAAAAAAAAEgAAASIAAAAAAAAABgAAAACQAAAAGgAACAAADVSggAICCAAABgCIAiDSCAAAAAAgAAAACAEAAEgBFBIAIQACUAAFwAALMYPK7PzOgAAAAAAAAAAAAAAAAAAAAAAAAAAAAA==

> <PUBCHEM_IUPAC_OPENEYE_NAME>
[(3aR,4R,6R,6aR,7R,9aS,9bS)-7,9a-dihydroxy-9-methyl-3-methylene-2-oxo-spiro[3a,4,5,6a,7,9b-hexahydroazuleno[4,5-b]furan-6,2'-oxirane]-4-yl] (Z)-2-methylbut-2-enoate

> <PUBCHEM_IUPAC_CAS_NAME>
(Z)-2-methyl-2-butenoic acid [(3aR,4R,6R,6aR,7R,9aS,9bS)-7,9a-dihydroxy-9-methyl-3-methylene-2-oxo-4-spiro[3a,4,5,6a,7,9b-hexahydroazuleno[4,5-b]furan-6,2'-oxirane]yl] ester

> <PUBCHEM_IUPAC_NAME>
[(3aR,4R,6R,6aR,7R,9aS,9bS)-7,9a-dihydroxy-9-methyl-3-methylidene-2-oxospiro[3a,4,5,6a,7,9b-hexahydroazuleno[4,5-b]furan-6,2'-oxirane]-4-yl] (Z)-2-methylbut-2-enoate

> <PUBCHEM_IUPAC_SYSTEMATIC_NAME>
[(3aR,4R,6R,6aR,7R,9aS,9bS)-9-methyl-3-methylidene-7,9a-bis(oxidanyl)-2-oxidanylidene-spiro[3a,4,5,6a,7,9b-hexahydroazuleno[4,5-b]furan-6,2'-oxirane]-4-yl] (Z)-2-methylbut-2-enoate

> <PUBCHEM_IUPAC_TRADITIONAL_NAME>
(Z)-2-methylbut-2-enoic acid [(3aR,4R,6R,6aR,7R,9aS,9bS)-7,9a-dihydroxy-2-keto-9-methyl-3-methylene-spiro[3a,4,5,6a,7,9b-hexahydroazuleno[4,5-b]furan-6,2'-oxirane]-4-yl] ester

> <PUBCHEM_IUPAC_INCHI>
InChI=1S/C20H24O7/c1-5-9(2)17(22)26-13-7-19(8-25-19)15-12(21)6-10(3)20(15,24)16-14(13)11(4)18(23)27-16/h5-6,12-16,21,24H,4,7-8H2,1-3H3/b9-5-/t12-,13-,14-,15+,16+,19+,20-/m1/s1

> <PUBCHEM_IUPAC_INCHIKEY>
ADBOAFOIAMBXJT-WBNZXOOCSA-N

> <PUBCHEM_XLOGP3_AA>
0.3

> <PUBCHEM_EXACT_MASS>
376.152203

> <PUBCHEM_MOLECULAR_FORMULA>
C20H24O7

> <PUBCHEM_MOLECULAR_WEIGHT>
376.40036

> <PUBCHEM_OPENEYE_CAN_SMILES>
CC=C(C)C(=O)OC1CC2(CO2)C3C(C=C(C3(C4C1C(=C)C(=O)O4)O)C)O

> <PUBCHEM_OPENEYE_ISO_SMILES>
C/C=C(/C)\C(=O)O[C@@H]1C[C@]2(CO2)[C@@H]3[C@@H](C=C([C@@]3([C@@H]4[C@@H]1C(=C)C(=O)O4)O)C)O

> <PUBCHEM_CACTVS_TPSA>
106

> <PUBCHEM_MONOISOTOPIC_WEIGHT>
376.152203

> <PUBCHEM_TOTAL_CHARGE>
0

> <PUBCHEM_HEAVY_ATOM_COUNT>
27

> <PUBCHEM_ATOM_DEF_STEREO_COUNT>
7

> <PUBCHEM_ATOM_UDEF_STEREO_COUNT>
0

> <PUBCHEM_BOND_DEF_STEREO_COUNT>
1

> <PUBCHEM_BOND_UDEF_STEREO_COUNT>
0

> <PUBCHEM_ISOTOPIC_ATOM_COUNT>
0

> <PUBCHEM_COMPONENT_COUNT>
1

> <PUBCHEM_CACTVS_TAUTO_COUNT>
1

> <PUBCHEM_COORDINATE_TYPE>
1
5
255

> <PUBCHEM_BONDANNOTATIONS>
8  1  5
12  31  6
14  34  5
10  3  5
16  4  6
15  5  6
9  28  5

$$$$

