128921
  -OEChem-07051212472D

 84 86  0     1  0  0  0  0  0999 V2000
   10.6603    3.0600    0.0000 O   0  0  0  0  0  0  0  0  0  0  0  0
    8.9282    3.0600    0.0000 O   0  0  0  0  0  0  0  0  0  0  0  0
   15.8843    2.0947    0.0000 O   0  0  0  0  0  0  0  0  0  0  0  0
    5.4641    2.0600    0.0000 O   0  0  0  0  0  0  0  0  0  0  0  0
    6.3301    0.5600    0.0000 O   0  0  0  0  0  0  0  0  0  0  0  0
   17.6545    2.0842    0.0000 O   0  0  0  0  0  0  0  0  0  0  0  0
   12.3923    2.0600    0.0000 N   0  0  0  0  0  0  0  0  0  0  0  0
    9.7942    1.5600    0.0000 N   0  0  0  0  0  0  0  0  0  0  0  0
    7.1962    2.0600    0.0000 N   0  0  0  0  0  0  0  0  0  0  0  0
    9.7942   -1.4400    0.0000 N   0  0  0  0  0  0  0  0  0  0  0  0
    6.3301   -1.4400    0.0000 N   0  0  0  0  0  0  0  0  0  0  0  0
    8.9282   -2.9400    0.0000 N   0  0  0  0  0  0  0  0  0  0  0  0
   10.6603   -2.9400    0.0000 N   0  0  0  0  0  0  0  0  0  0  0  0
    5.4641   -2.9400    0.0000 N   0  0  0  0  0  0  0  0  0  0  0  0
    7.1962   -2.9400    0.0000 N   0  0  0  0  0  0  0  0  0  0  0  0
   11.5263    1.5600    0.0000 C   0  0  1  0  0  0  0  0  0  0  0  0
   11.5263    0.5600    0.0000 C   0  0  0  0  0  0  0  0  0  0  0  0
    8.0622    1.5600    0.0000 C   0  0  1  0  0  0  0  0  0  0  0  0
   10.6603    0.0600    0.0000 C   0  0  0  0  0  0  0  0  0  0  0  0
    8.0622    0.5600    0.0000 C   0  0  0  0  0  0  0  0  0  0  0  0
   10.6603    2.0600    0.0000 C   0  0  0  0  0  0  0  0  0  0  0  0
    7.1962    0.0600    0.0000 C   0  0  0  0  0  0  0  0  0  0  0  0
    8.9282    2.0600    0.0000 C   0  0  0  0  0  0  0  0  0  0  0  0
   13.2583    1.5600    0.0000 C   0  0  0  0  0  0  0  0  0  0  0  0
   10.6603   -0.9400    0.0000 C   0  0  0  0  0  0  0  0  0  0  0  0
    7.1962   -0.9400    0.0000 C   0  0  0  0  0  0  0  0  0  0  0  0
   14.1244    2.0600    0.0000 C   0  0  0  0  0  0  0  0  0  0  0  0
   13.2583    0.5600    0.0000 C   0  0  0  0  0  0  0  0  0  0  0  0
   14.9904    0.5600    0.0000 C   0  0  0  0  0  0  0  0  0  0  0  0
   14.9904    1.5600    0.0000 C   0  0  0  0  0  0  0  0  0  0  0  0
   14.1244    0.0600    0.0000 C   0  0  0  0  0  0  0  0  0  0  0  0
   15.8843    0.0253    0.0000 C   0  0  0  0  0  0  0  0  0  0  0  0
    6.3301    1.5600    0.0000 C   0  0  0  0  0  0  0  0  0  0  0  0
   16.7904    0.5392    0.0000 C   0  0  0  0  0  0  0  0  0  0  0  0
   15.8728   -0.9746    0.0000 C   0  0  0  0  0  0  0  0  0  0  0  0
   16.7904    1.5808    0.0000 C   0  0  0  0  0  0  0  0  0  0  0  0
    9.7942   -2.4400    0.0000 C   0  0  0  0  0  0  0  0  0  0  0  0
    4.5981    1.5600    0.0000 C   0  0  0  0  0  0  0  0  0  0  0  0
    6.3301   -2.4400    0.0000 C   0  0  0  0  0  0  0  0  0  0  0  0
    3.7320    2.0600    0.0000 C   0  0  0  0  0  0  0  0  0  0  0  0
    3.7320    3.0600    0.0000 C   0  0  0  0  0  0  0  0  0  0  0  0
    2.8660    1.5600    0.0000 C   0  0  0  0  0  0  0  0  0  0  0  0
    2.8660    3.5600    0.0000 C   0  0  0  0  0  0  0  0  0  0  0  0
    2.0000    2.0600    0.0000 C   0  0  0  0  0  0  0  0  0  0  0  0
    2.0000    3.0600    0.0000 C   0  0  0  0  0  0  0  0  0  0  0  0
   12.0632    1.2500    0.0000 H   0  0  0  0  0  0  0  0  0  0  0  0
   11.7383   -0.0226    0.0000 H   0  0  0  0  0  0  0  0  0  0  0  0
   12.1369    0.6677    0.0000 H   0  0  0  0  0  0  0  0  0  0  0  0
    8.0622    2.1800    0.0000 H   0  0  0  0  0  0  0  0  0  0  0  0
   10.4482    0.6426    0.0000 H   0  0  0  0  0  0  0  0  0  0  0  0
   10.0497   -0.0477    0.0000 H   0  0  0  0  0  0  0  0  0  0  0  0
    8.2742   -0.0226    0.0000 H   0  0  0  0  0  0  0  0  0  0  0  0
    8.6728    0.6677    0.0000 H   0  0  0  0  0  0  0  0  0  0  0  0
   12.3923    2.6800    0.0000 H   0  0  0  0  0  0  0  0  0  0  0  0
    6.9841    0.6426    0.0000 H   0  0  0  0  0  0  0  0  0  0  0  0
    6.5856   -0.0477    0.0000 H   0  0  0  0  0  0  0  0  0  0  0  0
    9.7942    0.9400    0.0000 H   0  0  0  0  0  0  0  0  0  0  0  0
   10.8723   -1.5226    0.0000 H   0  0  0  0  0  0  0  0  0  0  0  0
   11.2708   -0.8323    0.0000 H   0  0  0  0  0  0  0  0  0  0  0  0
    7.1962    2.6800    0.0000 H   0  0  0  0  0  0  0  0  0  0  0  0
    7.4082   -1.5226    0.0000 H   0  0  0  0  0  0  0  0  0  0  0  0
    7.8067   -0.8323    0.0000 H   0  0  0  0  0  0  0  0  0  0  0  0
   14.1244    2.6800    0.0000 H   0  0  0  0  0  0  0  0  0  0  0  0
   12.7214    0.2500    0.0000 H   0  0  0  0  0  0  0  0  0  0  0  0
   14.1244   -0.5600    0.0000 H   0  0  0  0  0  0  0  0  0  0  0  0
   17.3261    0.2271    0.0000 H   0  0  0  0  0  0  0  0  0  0  0  0
   15.2528   -0.9674    0.0000 H   0  0  0  0  0  0  0  0  0  0  0  0
   15.8656   -1.5946    0.0000 H   0  0  0  0  0  0  0  0  0  0  0  0
   16.4927   -0.9818    0.0000 H   0  0  0  0  0  0  0  0  0  0  0  0
    4.1996    1.0850    0.0000 H   0  0  0  0  0  0  0  0  0  0  0  0
    4.9966    1.0850    0.0000 H   0  0  0  0  0  0  0  0  0  0  0  0
    8.9282   -3.5600    0.0000 H   0  0  0  0  0  0  0  0  0  0  0  0
   10.6603   -3.5600    0.0000 H   0  0  0  0  0  0  0  0  0  0  0  0
   11.1972   -2.6300    0.0000 H   0  0  0  0  0  0  0  0  0  0  0  0
    8.3913   -2.6300    0.0000 H   0  0  0  0  0  0  0  0  0  0  0  0
    7.1962   -3.5600    0.0000 H   0  0  0  0  0  0  0  0  0  0  0  0
    7.7331   -2.6300    0.0000 H   0  0  0  0  0  0  0  0  0  0  0  0
    5.4641   -3.5600    0.0000 H   0  0  0  0  0  0  0  0  0  0  0  0
    4.9272   -2.6300    0.0000 H   0  0  0  0  0  0  0  0  0  0  0  0
    4.2690    3.3700    0.0000 H   0  0  0  0  0  0  0  0  0  0  0  0
    2.8660    0.9400    0.0000 H   0  0  0  0  0  0  0  0  0  0  0  0
    2.8660    4.1800    0.0000 H   0  0  0  0  0  0  0  0  0  0  0  0
    1.4631    1.7500    0.0000 H   0  0  0  0  0  0  0  0  0  0  0  0
    1.4631    3.3700    0.0000 H   0  0  0  0  0  0  0  0  0  0  0  0
  1 21  2  0  0  0  0
  2 23  2  0  0  0  0
  3 30  1  0  0  0  0
  3 36  1  0  0  0  0
  4 33  1  0  0  0  0
  4 38  1  0  0  0  0
  5 33  2  0  0  0  0
  6 36  2  0  0  0  0
 16  7  1  1  0  0  0
  7 24  1  0  0  0  0
  7 54  1  0  0  0  0
  8 21  1  0  0  0  0
  8 23  1  0  0  0  0
  8 57  1  0  0  0  0
 18  9  1  6  0  0  0
  9 33  1  0  0  0  0
  9 60  1  0  0  0  0
 10 25  1  0  0  0  0
 10 37  2  0  0  0  0
 11 26  1  0  0  0  0
 11 39  2  0  0  0  0
 12 37  1  0  0  0  0
 12 72  1  0  0  0  0
 12 75  1  0  0  0  0
 13 37  1  0  0  0  0
 13 73  1  0  0  0  0
 13 74  1  0  0  0  0
 14 39  1  0  0  0  0
 14 78  1  0  0  0  0
 14 79  1  0  0  0  0
 15 39  1  0  0  0  0
 15 76  1  0  0  0  0
 15 77  1  0  0  0  0
 16 17  1  0  0  0  0
 16 21  1  0  0  0  0
 16 46  1  0  0  0  0
 17 19  1  0  0  0  0
 17 47  1  0  0  0  0
 17 48  1  0  0  0  0
 18 20  1  0  0  0  0
 18 23  1  0  0  0  0
 18 49  1  0  0  0  0
 19 25  1  0  0  0  0
 19 50  1  0  0  0  0
 19 51  1  0  0  0  0
 20 22  1  0  0  0  0
 20 52  1  0  0  0  0
 20 53  1  0  0  0  0
 22 26  1  0  0  0  0
 22 55  1  0  0  0  0
 22 56  1  0  0  0  0
 24 27  2  0  0  0  0
 24 28  1  0  0  0  0
 25 58  1  0  0  0  0
 25 59  1  0  0  0  0
 26 61  1  0  0  0  0
 26 62  1  0  0  0  0
 27 30  1  0  0  0  0
 27 63  1  0  0  0  0
 28 31  2  0  0  0  0
 28 64  1  0  0  0  0
 29 30  2  0  0  0  0
 29 31  1  0  0  0  0
 29 32  1  0  0  0  0
 31 65  1  0  0  0  0
 32 34  2  0  0  0  0
 32 35  1  0  0  0  0
 34 36  1  0  0  0  0
 34 66  1  0  0  0  0
 35 67  1  0  0  0  0
 35 68  1  0  0  0  0
 35 69  1  0  0  0  0
 38 40  1  0  0  0  0
 38 70  1  0  0  0  0
 38 71  1  0  0  0  0
 40 41  2  0  0  0  0
 40 42  1  0  0  0  0
 41 43  1  0  0  0  0
 41 80  1  0  0  0  0
 42 44  2  0  0  0  0
 42 81  1  0  0  0  0
 43 45  2  0  0  0  0
 43 82  1  0  0  0  0
 44 45  1  0  0  0  0
 44 83  1  0  0  0  0
 45 84  1  0  0  0  0
M  END
> <PUBCHEM_COMPOUND_CID>
128921

> <PUBCHEM_COMPOUND_CANONICALIZED>
1

> <PUBCHEM_CACTVS_COMPLEXITY>
1110

> <PUBCHEM_CACTVS_HBOND_ACCEPTOR>
9

> <PUBCHEM_CACTVS_HBOND_DONOR>
7

> <PUBCHEM_CACTVS_ROTATABLE_BOND>
16

> <PUBCHEM_CACTVS_SUBSKEYS>
AAADcfB7+AAAAAAAAAAAAAAAAAAAAAAAAAAwYIAAAAAAAACBQAAAHgAQAAAADCzhmAYzzoLABACoAiXSfACCCAEhIgAIiIGObMkMZjLEsbueOijm1jnI6QeY0aMOCAAAAgAIAAAQAAAEABAAAAAAAAAAAA==

> <PUBCHEM_IUPAC_OPENEYE_NAME>
benzyl N-[(1S)-4-guanidino-1-[[(2S)-5-guanidino-2-[(4-methyl-2-oxo-chromen-7-yl)amino]pentanoyl]carbamoyl]butyl]carbamate

> <PUBCHEM_IUPAC_CAS_NAME>
N-[(2S)-5-(diaminomethylideneamino)-1-[[(2S)-5-(diaminomethylideneamino)-2-[(4-methyl-2-oxo-1-benzopyran-7-yl)amino]-1-oxopentyl]amino]-1-oxopentan-2-yl]carbamic acid (phenylmethyl) ester

> <PUBCHEM_IUPAC_NAME>
benzyl N-[(2S)-5-(diaminomethylideneamino)-1-[[(2S)-5-(diaminomethylideneamino)-2-[(4-methyl-2-oxochromen-7-yl)amino]pentanoyl]amino]-1-oxopentan-2-yl]carbamate

> <PUBCHEM_IUPAC_SYSTEMATIC_NAME>
(phenylmethyl) N-[(2S)-5-[bis(azanyl)methylideneamino]-1-[[(2S)-5-[bis(azanyl)methylideneamino]-2-[(4-methyl-2-oxidanylidene-chromen-7-yl)amino]pentanoyl]amino]-1-oxidanylidene-pentan-2-yl]carbamate

> <PUBCHEM_IUPAC_TRADITIONAL_NAME>
N-[(1S)-4-guanidino-1-[[(2S)-5-guanidino-2-[(2-keto-4-methyl-chromen-7-yl)amino]pentanoyl]carbamoyl]butyl]carbamic acid benzyl ester

> <PUBCHEM_IUPAC_INCHI>
InChI=1S/C30H39N9O6/c1-18-15-25(40)45-24-16-20(11-12-21(18)24)37-22(9-5-13-35-28(31)32)26(41)39-27(42)23(10-6-14-36-29(33)34)38-30(43)44-17-19-7-3-2-4-8-19/h2-4,7-8,11-12,15-16,22-23,37H,5-6,9-10,13-14,17H2,1H3,(H,38,43)(H4,31,32,35)(H4,33,34,36)(H,39,41,42)/t22-,23-/m0/s1

> <PUBCHEM_IUPAC_INCHIKEY>
MPTXQKPPFWMRPT-GOTSBHOMSA-N

> <PUBCHEM_XLOGP3_AA>
0.6

> <PUBCHEM_EXACT_MASS>
621.30233

> <PUBCHEM_MOLECULAR_FORMULA>
C30H39N9O6

> <PUBCHEM_MOLECULAR_WEIGHT>
621.68736

> <PUBCHEM_OPENEYE_CAN_SMILES>
CC1=CC(=O)OC2=C1C=CC(=C2)NC(CCCN=C(N)N)C(=O)NC(=O)C(CCCN=C(N)N)NC(=O)OCC3=CC=CC=C3

> <PUBCHEM_OPENEYE_ISO_SMILES>
CC1=CC(=O)OC2=C1C=CC(=C2)N[C@@H](CCCN=C(N)N)C(=O)NC(=O)[C@H](CCCN=C(N)N)NC(=O)OCC3=CC=CC=C3

> <PUBCHEM_CACTVS_TPSA>
252

> <PUBCHEM_MONOISOTOPIC_WEIGHT>
621.30233

> <PUBCHEM_TOTAL_CHARGE>
0

> <PUBCHEM_HEAVY_ATOM_COUNT>
45

> <PUBCHEM_ATOM_DEF_STEREO_COUNT>
2

> <PUBCHEM_ATOM_UDEF_STEREO_COUNT>
0

> <PUBCHEM_BOND_DEF_STEREO_COUNT>
0

> <PUBCHEM_BOND_UDEF_STEREO_COUNT>
0

> <PUBCHEM_ISOTOPIC_ATOM_COUNT>
0

> <PUBCHEM_COMPONENT_COUNT>
1

> <PUBCHEM_CACTVS_TAUTO_COUNT>
168

> <PUBCHEM_COORDINATE_TYPE>
1
5
255

> <PUBCHEM_BONDANNOTATIONS>
24  27  8
24  28  8
27  30  8
28  31  8
29  30  8
29  31  8
29  32  8
3  30  8
3  36  8
32  34  8
34  36  8
40  41  8
40  42  8
41  43  8
42  44  8
43  45  8
44  45  8
16  7  5
18  9  6

$$$$

