   Chemical and Physical Properties References

   [1]USDA ARS - USDA chemical properties
   from [2]ChemIDplus

   Color/Form

     * Clear colorless liquid when pure
     * Deep brown to yellow liquid
     * Deep-brown to yellow liquid ... [Note: A solid below 37 degrees F].

   from [3]HSDB

   Odor

     * SKUNK-LIKE ODOR
     * ... Garlic-like odor ...
     * Mercaptan odor

   from [4]HSDB

   Boiling Point
        156-157 deg C @ 0.7 mm Hg
   from [5]HSDB

   Melting Point
        2.9 deg C
   from [6]HSDB

   Corrosivity

     * Corrosive to iron & some other metals
     * Malathion will attack some forms of plastics, rubber, and coatings
     * Corrosive to metals

   from [7]HSDB

   Density/Specific Gravity
        1.23 @ 25 deg C/4 deg C
   from [8]HSDB

   Octanol/Water Partition Coefficient
        log Kow= 2.36
   from [9]HSDB

   Solubilities

     * 145 ppm in water @ 20 deg C
     * Miscible with alcohols, esters, ketones, ethers, aromatic and
       alkylated aromatic hydrocarbons and vegetable oils. Limited
       solubility in paraffin hydrocarbons
     * Soluble in ethanol and acetone; very soluble in ethyl ether
     * > 10% in ethanol
     * > 10% in ethyl ether
     * > 10% in benzene

   from [10]HSDB

   Spectral Properties

     * Index of refraction: 1.4985 @ 25 deg C/D
     * Index of refraction: 1.4960 @ 20 deg C/D
     * IR: H587 (Sadtler Research Laboratories Prism Collection)
     * MASS: 239 (Aldermaston, Eight Peak Index of Mass Spectra, UK)
     * Malathion absorbs light at wavelengths > 290 nm [Gore RC et al; J
       Assoc Off Anal Chem 54: 1040-82 (1971)] [11]PubMed Abstract
     * Intense mass spectral peaks: 125 m/z (100%), 173 m/z (98%), 93 m/z
       (96%), 158 m/z (54%)
     * Intense mass spectral peaks: 127 m/z, 285 m/z, 330 m/z

   from [12]HSDB

   Surface Tension
        37.1 DYNES/CM @ 24 DEG C
   from [13]HSDB

   Vapor Pressure
        1.78X10-4 mm Hg @ 25 deg C
   from [14]HSDB

   Other Chemical/Physical Properties

     * LIQUID WATER INTERFACIAL TENSION: 19 DYNES/CM @ 24 DEG C
     * Hydrolyzed at pH >7.0 or <5.0. Stable in an aqueous solution
       buffered to pH 5.26.
     * Henry's Law constant= 4.9X10-9 atm cu-m/mole @ 25 deg C

   from [15]HSDB

   Computed Properties
   Molecular Weight                  330.358022 [g/mol]
   Molecular Formula                 C[10]H[19]O[6]PS[2]
   XLogP3                            2.4
   H-Bond Donor                      0
   H-Bond Acceptor                   8
   Rotatable Bond Count              11
   Exact Mass                        330.036067
   MonoIsotopic Mass                 330.036067
   Topological Polar Surface Area    128
   Heavy Atom Count                  19
   Formal Charge                     0
   Complexity                        341
   Isotope Atom Count                0
   Defined Atom Stereocenter Count   0
   Undefined Atom Stereocenter Count 1
   Defined Bond Stereocenter Count   0
   Undefined Bond Stereocenter Count 0
   Covalently-Bonded Unit Count      1
   Feature 3D Acceptor Count         2
   Effective Rotor Count             11
   Conformer Sampling RMSD           1
   CID Conformer Count               [16]168

References

   1. http://www.ars.usda.gov/SP2UserFiles/ad_hoc/12755100DatabaseFiles/PesticidePropertiesDatabase/IndividualPesticideFiles/MALATHION.TXT
   2. http://chem.sis.nlm.nih.gov/chemidplus/
   3. http://toxnet.nlm.nih.gov/cgi-bin/sis/search/r?dbs+hsdb:@term+@rn+@rel+121-75-5
   4. http://toxnet.nlm.nih.gov/cgi-bin/sis/search/r?dbs+hsdb:@term+@rn+@rel+121-75-5
   5. http://toxnet.nlm.nih.gov/cgi-bin/sis/search/r?dbs+hsdb:@term+@rn+@rel+121-75-5
   6. http://toxnet.nlm.nih.gov/cgi-bin/sis/search/r?dbs+hsdb:@term+@rn+@rel+121-75-5
   7. http://toxnet.nlm.nih.gov/cgi-bin/sis/search/r?dbs+hsdb:@term+@rn+@rel+121-75-5
   8. http://toxnet.nlm.nih.gov/cgi-bin/sis/search/r?dbs+hsdb:@term+@rn+@rel+121-75-5
   9. http://toxnet.nlm.nih.gov/cgi-bin/sis/search/r?dbs+hsdb:@term+@rn+@rel+121-75-5
  10. http://toxnet.nlm.nih.gov/cgi-bin/sis/search/r?dbs+hsdb:@term+@rn+@rel+121-75-5
  11. http://www.ncbi.nlm.nih.gov/entrez/query.fcgi?cmd=Retrieve&db=pubmed&dopt=Abstract&list_uids=5151664
  12. http://toxnet.nlm.nih.gov/cgi-bin/sis/search/r?dbs+hsdb:@term+@rn+@rel+121-75-5
  13. http://toxnet.nlm.nih.gov/cgi-bin/sis/search/r?dbs+hsdb:@term+@rn+@rel+121-75-5
  14. http://toxnet.nlm.nih.gov/cgi-bin/sis/search/r?dbs+hsdb:@term+@rn+@rel+121-75-5
  15. http://toxnet.nlm.nih.gov/cgi-bin/sis/search/r?dbs+hsdb:@term+@rn+@rel+121-75-5
  16. http://pubchem.ncbi.nlm.nih.gov/vw3d/vw3d.cgi?cid=4004
