3036760
  -OEChem-07051213062D

 13 14  0     1  0  0  0  0  0999 V2000
    2.8660    1.5000    0.0000 Br  0  0  0  0  0  0  0  0  0  0  0  0
    4.5986   -0.5000    0.0000 O   0  0  0  0  0  0  0  0  0  0  0  0
    3.7320    0.0000    0.0000 C   0  0  3  0  0  0  0  0  0  0  0  0
    3.7320   -1.0000    0.0000 C   0  0  3  0  0  0  0  0  0  0  0  0
    2.8660    0.5000    0.0000 C   0  0  0  0  0  0  0  0  0  0  0  0
    2.8660   -1.5000    0.0000 C   0  0  0  0  0  0  0  0  0  0  0  0
    2.0000    0.0000    0.0000 C   0  0  0  0  0  0  0  0  0  0  0  0
    2.0000   -1.0000    0.0000 C   0  0  0  0  0  0  0  0  0  0  0  0
    4.1570    0.7362    0.0000 H   0  0  0  0  0  0  0  0  0  0  0  0
    4.1570   -1.7362    0.0000 H   0  0  0  0  0  0  0  0  0  0  0  0
    2.8660   -2.1200    0.0000 H   0  0  0  0  0  0  0  0  0  0  0  0
    1.4631    0.3100    0.0000 H   0  0  0  0  0  0  0  0  0  0  0  0
    1.4631   -1.3100    0.0000 H   0  0  0  0  0  0  0  0  0  0  0  0
  1  5  1  0  0  0  0
  2  3  1  0  0  0  0
  2  4  1  0  0  0  0
  3  4  1  0  0  0  0
  3  5  1  0  0  0  0
  3  9  1  0  0  0  0
  4  6  1  0  0  0  0
  4 10  1  0  0  0  0
  5  7  2  0  0  0  0
  6  8  2  0  0  0  0
  6 11  1  0  0  0  0
  7  8  1  0  0  0  0
  7 12  1  0  0  0  0
  8 13  1  0  0  0  0
M  END
> <PUBCHEM_COMPOUND_CID>
3036760

> <PUBCHEM_COMPOUND_CANONICALIZED>
1

> <PUBCHEM_CACTVS_COMPLEXITY>
171

> <PUBCHEM_CACTVS_HBOND_ACCEPTOR>
1

> <PUBCHEM_CACTVS_HBOND_DONOR>
0

> <PUBCHEM_CACTVS_ROTATABLE_BOND>
0

> <PUBCHEM_CACTVS_SUBSKEYS>
AAADcYBgIAAAEAAAAAAAAAAAEgAAAAAAAAAgAAAABAAAAAAAAAAAGgBAAAABiBSggAIAAAAABACAACBCAAAAAAAgAAAICAAAACgIBAAAIQACEAAAwAAIoAIAAAAAAAAAAAAAAAAAAAAAAAAAAAAAAAAAAA==

> <PUBCHEM_IUPAC_OPENEYE_NAME>
5-bromo-7-oxabicyclo[4.1.0]hepta-2,4-diene

> <PUBCHEM_IUPAC_CAS_NAME>
5-bromo-7-oxabicyclo[4.1.0]hepta-2,4-diene

> <PUBCHEM_IUPAC_NAME>
5-bromo-7-oxabicyclo[4.1.0]hepta-2,4-diene

> <PUBCHEM_IUPAC_SYSTEMATIC_NAME>
5-bromanyl-7-oxabicyclo[4.1.0]hepta-2,4-diene

> <PUBCHEM_IUPAC_TRADITIONAL_NAME>
5-bromo-7-oxabicyclo[4.1.0]hepta-2,4-diene

> <PUBCHEM_IUPAC_INCHI>
InChI=1S/C6H5BrO/c7-4-2-1-3-5-6(4)8-5/h1-3,5-6H

> <PUBCHEM_IUPAC_INCHIKEY>
RLBVUCNBWFGERE-UHFFFAOYSA-N

> <PUBCHEM_XLOGP3_AA>
1.4

> <PUBCHEM_EXACT_MASS>
171.952377

> <PUBCHEM_MOLECULAR_FORMULA>
C6H5BrO

> <PUBCHEM_MOLECULAR_WEIGHT>
173.0073

> <PUBCHEM_OPENEYE_CAN_SMILES>
C1=CC2C(O2)C(=C1)Br

> <PUBCHEM_OPENEYE_ISO_SMILES>
C1=CC2C(O2)C(=C1)Br

> <PUBCHEM_CACTVS_TPSA>
12.5

> <PUBCHEM_MONOISOTOPIC_WEIGHT>
171.952377

> <PUBCHEM_TOTAL_CHARGE>
0

> <PUBCHEM_HEAVY_ATOM_COUNT>
8

> <PUBCHEM_ATOM_DEF_STEREO_COUNT>
0

> <PUBCHEM_ATOM_UDEF_STEREO_COUNT>
2

> <PUBCHEM_BOND_DEF_STEREO_COUNT>
0

> <PUBCHEM_BOND_UDEF_STEREO_COUNT>
0

> <PUBCHEM_ISOTOPIC_ATOM_COUNT>
0

> <PUBCHEM_COMPONENT_COUNT>
1

> <PUBCHEM_CACTVS_TAUTO_COUNT>
1

> <PUBCHEM_COORDINATE_TYPE>
1
5
255

> <PUBCHEM_BONDANNOTATIONS>
3  9  3
4  10  3

$$$$

