   Color/Form

     * Long, thin needles from water
     * Colorless, crystalline

   from [1]HSDB

   Melting Point
        232 deg C (decomposes)
   from [2]HSDB

   Octanol/Water Partition Coefficient
        log Kow = 0.39 (est)
   from [3]HSDB

   Solubilities

     * Insol in naphtha
     * Slightly sol in chloroform and ether
     * Biotin is slightly soluble in water and alcohol (its salts are
       quite soluble).

   from [4]HSDB

   Spectral Properties

     * Specific optical rotation: +92 deg at 22 deg C (c=1 at 0.4% NaOH)
     * The specific optical rotation is +91.1 deg at 18 deg C (c=1, 0.1 N
       NaOH) for 99% pure (+)-biotin.
     * IR: 1601 (Sadtler Research Laboratories IR Grating Collection)
     * MASS: 31424 (NIST/EPA/MSDC Mass Spectral database, 1990 version)

   from [5]HSDB

   Vapor Pressure
        1.07X10-8 mm Hg at 25 deg C (est)
   from [6]HSDB

   Other Chemical/Physical Properties

     * CRYSTALS. MELTING POINT 166.5 DEG C; SPECIFIC OPTICAL ROTATION +82
       DEG @ 15 DEG C/D (7.5 MG IN 1.28 G METHANOL) /METHYL ESTER/
     * SOL IN ACETONE; DISSOLVES ABOUT 1 PART/100 IN METHANOL; SOL IN
       METHYL ETHYL KETONE, BENZENE, CYCLOHEXENE; INSOL IN SATURATED &
       PARAFFIN HYDROCARBONS /METHYL ESTER/
     * Fine long needles. Melting point: 232-3 deg C. pH 0.01% aq soln:
       4.5. Isoelectric point pH: 3.5. Solubility in water, 2.20X10+2 mg/L
       at 25 deg C. More sol in hot water and dil alkali; in 95% alc about
       80 mg/100 ml at 25 deg C; insol in other common org solvents.
       Specific optical rotation +91 deg at 21 deg C (c=1, 0.1 N NaOH).
       The pure compd is stable to air and temp /Milk or liver biotin/
     * Water solutions are stable at 100 deg C, and the dry substance is
       both thermostable and photostable. Biotin is unstable, however, in
       strong acids and alkaline solutions and in oxidizing agents.
     * HIGHLY SOL IN WATER /SODIUM SALT/
     * Melting point = 231-233 deg C for 99% pure (+)-biotin
     * Henry's Law constant = 1.1X10-16 atm-cu m/mol at 25 deg C (est)
     * Hydroxyl radical reaction rate constant = 4.0X10-11 cu cm/molec-sec
       at 25 deg C (est)

   from [7]HSDB

   Computed Properties
   Molecular Weight                  244.31064 [g/mol]
   Molecular Formula                 C[10]H[16]N[2]O[3]S
   XLogP3-AA                         0.3
   H-Bond Donor                      3
   H-Bond Acceptor                   4
   Rotatable Bond Count              5
   Tautomer Count                    3
   Exact Mass                        244.088163
   MonoIsotopic Mass                 244.088163
   Topological Polar Surface Area    104
   Heavy Atom Count                  16
   Formal Charge                     0
   Complexity                        298
   Isotope Atom Count                0
   Defined Atom Stereocenter Count   3
   Undefined Atom Stereocenter Count 0
   Defined Bond Stereocenter Count   0
   Undefined Bond Stereocenter Count 0
   Covalently-Bonded Unit Count      1
   Feature 3D Acceptor Count         3
   Feature 3D Donor Count            2
   Feature 3D Anion Count            1
   Feature 3D Hydrophobe Count       1
   Feature 3D Ring Count             2
   Effective Rotor Count             6
   Conformer Sampling RMSD           0.8
   CID Conformer Count               [8]37

References

   1. http://toxnet.nlm.nih.gov/cgi-bin/sis/search/r?dbs+hsdb:@term+@rn+@rel+58-85-5
   2. http://toxnet.nlm.nih.gov/cgi-bin/sis/search/r?dbs+hsdb:@term+@rn+@rel+58-85-5
   3. http://toxnet.nlm.nih.gov/cgi-bin/sis/search/r?dbs+hsdb:@term+@rn+@rel+58-85-5
   4. http://toxnet.nlm.nih.gov/cgi-bin/sis/search/r?dbs+hsdb:@term+@rn+@rel+58-85-5
   5. http://toxnet.nlm.nih.gov/cgi-bin/sis/search/r?dbs+hsdb:@term+@rn+@rel+58-85-5
   6. http://toxnet.nlm.nih.gov/cgi-bin/sis/search/r?dbs+hsdb:@term+@rn+@rel+58-85-5
   7. http://toxnet.nlm.nih.gov/cgi-bin/sis/search/r?dbs+hsdb:@term+@rn+@rel+58-85-5
   8. http://pubchem.ncbi.nlm.nih.gov/vw3d/vw3d.cgi?cid=171548
