2812
  -OEChem-07051212522D

 42 45  0     0  0  0  0  0  0999 V2000
    3.2680   -1.7694    0.0000 Cl  0  0  0  0  0  0  0  0  0  0  0  0
    5.0000    1.2306    0.0000 N   0  0  0  0  0  0  0  0  0  0  0  0
    5.5000    2.7694    0.0000 N   0  0  0  0  0  0  0  0  0  0  0  0
    5.0000    0.2306    0.0000 C   0  0  0  0  0  0  0  0  0  0  0  0
    5.0000   -0.7694    0.0000 C   0  0  0  0  0  0  0  0  0  0  0  0
    6.0000    0.2306    0.0000 C   0  0  0  0  0  0  0  0  0  0  0  0
    4.0000    0.2306    0.0000 C   0  0  0  0  0  0  0  0  0  0  0  0
    4.1340   -1.2694    0.0000 C   0  0  0  0  0  0  0  0  0  0  0  0
    5.8660   -1.2694    0.0000 C   0  0  0  0  0  0  0  0  0  0  0  0
    6.5000    1.0966    0.0000 C   0  0  0  0  0  0  0  0  0  0  0  0
    3.5000    1.0966    0.0000 C   0  0  0  0  0  0  0  0  0  0  0  0
    6.5000   -0.6354    0.0000 C   0  0  0  0  0  0  0  0  0  0  0  0
    3.5000   -0.6354    0.0000 C   0  0  0  0  0  0  0  0  0  0  0  0
    4.1910    1.8184    0.0000 C   0  0  0  0  0  0  0  0  0  0  0  0
    5.8090    1.8184    0.0000 C   0  0  0  0  0  0  0  0  0  0  0  0
    4.5000    2.7694    0.0000 C   0  0  0  0  0  0  0  0  0  0  0  0
    4.1340   -2.2694    0.0000 C   0  0  0  0  0  0  0  0  0  0  0  0
    5.8660   -2.2694    0.0000 C   0  0  0  0  0  0  0  0  0  0  0  0
    2.5000    1.0966    0.0000 C   0  0  0  0  0  0  0  0  0  0  0  0
    7.5000    1.0966    0.0000 C   0  0  0  0  0  0  0  0  0  0  0  0
    7.5000   -0.6354    0.0000 C   0  0  0  0  0  0  0  0  0  0  0  0
    2.5000   -0.6354    0.0000 C   0  0  0  0  0  0  0  0  0  0  0  0
    5.0000   -2.7694    0.0000 C   0  0  0  0  0  0  0  0  0  0  0  0
    8.0000    0.2306    0.0000 C   0  0  0  0  0  0  0  0  0  0  0  0
    2.0000    0.2306    0.0000 C   0  0  0  0  0  0  0  0  0  0  0  0
    6.4030   -0.9594    0.0000 H   0  0  0  0  0  0  0  0  0  0  0  0
    3.8100    1.6335    0.0000 H   0  0  0  0  0  0  0  0  0  0  0  0
    6.1900    1.6335    0.0000 H   0  0  0  0  0  0  0  0  0  0  0  0
    3.8100   -1.1724    0.0000 H   0  0  0  0  0  0  0  0  0  0  0  0
    6.1900   -1.1724    0.0000 H   0  0  0  0  0  0  0  0  0  0  0  0
    3.6013    1.6268    0.0000 H   0  0  0  0  0  0  0  0  0  0  0  0
    6.3987    1.6268    0.0000 H   0  0  0  0  0  0  0  0  0  0  0  0
    4.1356    3.2710    0.0000 H   0  0  0  0  0  0  0  0  0  0  0  0
    3.5970   -2.5794    0.0000 H   0  0  0  0  0  0  0  0  0  0  0  0
    6.4030   -2.5794    0.0000 H   0  0  0  0  0  0  0  0  0  0  0  0
    2.1900    1.6335    0.0000 H   0  0  0  0  0  0  0  0  0  0  0  0
    7.8100    1.6335    0.0000 H   0  0  0  0  0  0  0  0  0  0  0  0
    2.1900   -1.1724    0.0000 H   0  0  0  0  0  0  0  0  0  0  0  0
    7.8100   -1.1724    0.0000 H   0  0  0  0  0  0  0  0  0  0  0  0
    5.0000   -3.3894    0.0000 H   0  0  0  0  0  0  0  0  0  0  0  0
    8.6200    0.2306    0.0000 H   0  0  0  0  0  0  0  0  0  0  0  0
    1.3800    0.2306    0.0000 H   0  0  0  0  0  0  0  0  0  0  0  0
  1  8  1  0  0  0  0
  2  4  1  0  0  0  0
  2 14  1  0  0  0  0
  2 15  1  0  0  0  0
  3 15  2  0  0  0  0
  3 16  1  0  0  0  0
  4  5  1  0  0  0  0
  4  6  1  0  0  0  0
  4  7  1  0  0  0  0
  5  8  1  0  0  0  0
  5  9  2  0  0  0  0
  6 10  2  0  0  0  0
  6 12  1  0  0  0  0
  7 11  2  0  0  0  0
  7 13  1  0  0  0  0
  8 17  2  0  0  0  0
  9 18  1  0  0  0  0
  9 26  1  0  0  0  0
 10 20  1  0  0  0  0
 10 28  1  0  0  0  0
 11 19  1  0  0  0  0
 11 27  1  0  0  0  0
 12 21  2  0  0  0  0
 12 30  1  0  0  0  0
 13 22  2  0  0  0  0
 13 29  1  0  0  0  0
 14 16  2  0  0  0  0
 14 31  1  0  0  0  0
 15 32  1  0  0  0  0
 16 33  1  0  0  0  0
 17 23  1  0  0  0  0
 17 34  1  0  0  0  0
 18 23  2  0  0  0  0
 18 35  1  0  0  0  0
 19 25  2  0  0  0  0
 19 36  1  0  0  0  0
 20 24  2  0  0  0  0
 20 37  1  0  0  0  0
 21 24  1  0  0  0  0
 21 39  1  0  0  0  0
 22 25  1  0  0  0  0
 22 38  1  0  0  0  0
 23 40  1  0  0  0  0
 24 41  1  0  0  0  0
 25 42  1  0  0  0  0
M  END
> <PUBCHEM_COMPOUND_CID>
2812

> <PUBCHEM_COMPOUND_CANONICALIZED>
1

> <PUBCHEM_CACTVS_COMPLEXITY>
396

> <PUBCHEM_CACTVS_HBOND_ACCEPTOR>
1

> <PUBCHEM_CACTVS_HBOND_DONOR>
0

> <PUBCHEM_CACTVS_ROTATABLE_BOND>
4

> <PUBCHEM_CACTVS_SUBSKEYS>
AAADceB7AAAEAAAAAAAAAAAAAAAAAWAAAAAwYMAAAAAAAAAB1AAAHAIAAAAADIrBGiQ9kJcMEACgAjBnZACCgC0xF6AJyAAYNoiIaCKBmxGUIAhogAKIiCcQgMAOgAAAAAABAAAAAAAAAAIAAAAAAAAAAA==

> <PUBCHEM_IUPAC_OPENEYE_NAME>
1-[(2-chlorophenyl)-diphenyl-methyl]imidazole

> <PUBCHEM_IUPAC_CAS_NAME>
1-[(2-chlorophenyl)-diphenylmethyl]imidazole

> <PUBCHEM_IUPAC_NAME>
1-[(2-chlorophenyl)-diphenylmethyl]imidazole

> <PUBCHEM_IUPAC_SYSTEMATIC_NAME>
1-[(2-chlorophenyl)-diphenyl-methyl]imidazole

> <PUBCHEM_IUPAC_TRADITIONAL_NAME>
1-[(2-chlorophenyl)-diphenyl-methyl]imidazole

> <PUBCHEM_IUPAC_INCHI>
InChI=1S/C22H17ClN2/c23-21-14-8-7-13-20(21)22(25-16-15-24-17-25,18-9-3-1-4-10-18)19-11-5-2-6-12-19/h1-17H

> <PUBCHEM_IUPAC_INCHIKEY>
VNFPBHJOKIVQEB-UHFFFAOYSA-N

> <PUBCHEM_XLOGP3>
5

> <PUBCHEM_EXACT_MASS>
344.108026

> <PUBCHEM_MOLECULAR_FORMULA>
C22H17ClN2

> <PUBCHEM_MOLECULAR_WEIGHT>
344.83678

> <PUBCHEM_OPENEYE_CAN_SMILES>
C1=CC=C(C=C1)C(C2=CC=CC=C2)(C3=CC=CC=C3Cl)N4C=CN=C4

> <PUBCHEM_OPENEYE_ISO_SMILES>
C1=CC=C(C=C1)C(C2=CC=CC=C2)(C3=CC=CC=C3Cl)N4C=CN=C4

> <PUBCHEM_CACTVS_TPSA>
17.8

> <PUBCHEM_MONOISOTOPIC_WEIGHT>
344.108026

> <PUBCHEM_TOTAL_CHARGE>
0

> <PUBCHEM_HEAVY_ATOM_COUNT>
25

> <PUBCHEM_ATOM_DEF_STEREO_COUNT>
0

> <PUBCHEM_ATOM_UDEF_STEREO_COUNT>
0

> <PUBCHEM_BOND_DEF_STEREO_COUNT>
0

> <PUBCHEM_BOND_UDEF_STEREO_COUNT>
0

> <PUBCHEM_ISOTOPIC_ATOM_COUNT>
0

> <PUBCHEM_COMPONENT_COUNT>
1

> <PUBCHEM_CACTVS_TAUTO_COUNT>
1

> <PUBCHEM_COORDINATE_TYPE>
1
3

> <PUBCHEM_BONDANNOTATIONS>
10  20  8
11  19  8
12  21  8
13  22  8
14  16  8
17  23  8
18  23  8
19  25  8
2  14  8
2  15  8
20  24  8
21  24  8
22  25  8
3  15  8
3  16  8
5  8  8
5  9  8
6  10  8
6  12  8
7  11  8
7  13  8
8  17  8
9  18  8

$$$$

