5281579
  -OEChem-07051212582D

 97102  0     1  0  0  0  0  0999 V2000
    8.3187    0.5864    0.0000 O   0  0  0  0  0  0  0  0  0  0  0  0
    6.9641    0.4440    0.0000 O   0  0  0  0  0  0  0  0  0  0  0  0
    2.8660    0.8100    0.0000 O   0  0  0  0  0  0  0  0  0  0  0  0
    3.7226    0.2933    0.0000 O   0  0  0  0  0  0  0  0  0  0  0  0
    3.7118   -2.6532    0.0000 O   0  0  0  0  0  0  0  0  0  0  0  0
    7.9586    2.2806    0.0000 N   0  0  0  0  0  0  0  0  0  0  0  0
    5.4641    1.3100    0.0000 N   0  0  0  0  0  0  0  0  0  0  0  0
    9.9149    2.6964    0.0000 N   0  0  0  0  0  0  0  0  0  0  0  0
    5.4641   -0.6900    0.0000 N   0  0  0  0  0  0  0  0  0  0  0  0
    4.5981   -3.1900    0.0000 N   0  0  0  0  0  0  0  0  0  0  0  0
    6.9641    2.1760    0.0000 C   0  0  1  0  0  0  0  0  0  0  0  0
    6.5574    3.0896    0.0000 C   0  0  0  0  0  0  0  0  0  0  0  0
    7.3005    3.7587    0.0000 C   0  0  0  0  0  0  0  0  0  0  0  0
    8.1665    3.2587    0.0000 C   0  0  0  0  0  0  0  0  0  0  0  0
    8.6278    1.5374    0.0000 C   0  0  0  0  0  0  0  0  0  0  0  0
    6.4641    1.3100    0.0000 C   0  0  0  0  0  0  0  0  0  0  0  0
    9.6059    1.7453    0.0000 C   0  0  2  0  0  0  0  0  0  0  0  0
    4.5981    0.8100    0.0000 C   0  0  1  0  0  0  0  0  0  0  0  0
   10.2750    1.0022    0.0000 C   0  0  0  0  0  0  0  0  0  0  0  0
    3.7320    1.3100    0.0000 C   0  0  1  0  0  0  0  0  0  0  0  0
   11.2532    1.2101    0.0000 C   0  0  0  0  0  0  0  0  0  0  0  0
    4.5981   -0.1900    0.0000 C   0  0  0  0  0  0  0  0  0  0  0  0
   10.8931    2.9043    0.0000 C   0  0  0  0  0  0  0  0  0  0  0  0
    9.2458    3.4395    0.0000 C   0  0  0  0  0  0  0  0  0  0  0  0
    3.7320    2.3100    0.0000 C   0  0  0  0  0  0  0  0  0  0  0  0
    5.4641   -1.6900    0.0000 C   0  0  1  0  0  0  0  0  0  0  0  0
   11.5622    2.1612    0.0000 C   0  0  0  0  0  0  0  0  0  0  0  0
   11.9223    0.4670    0.0000 C   0  0  0  0  0  0  0  0  0  0  0  0
    4.5981    2.8100    0.0000 C   0  0  0  0  0  0  0  0  0  0  0  0
    2.8660    2.8100    0.0000 C   0  0  0  0  0  0  0  0  0  0  0  0
    6.3301   -2.1900    0.0000 C   0  0  0  0  0  0  0  0  0  0  0  0
    2.8660   -0.1900    0.0000 C   0  0  0  0  0  0  0  0  0  0  0  0
   12.5403    2.3691    0.0000 C   0  0  0  0  0  0  0  0  0  0  0  0
   12.9005    0.6749    0.0000 C   0  0  0  0  0  0  0  0  0  0  0  0
    4.5981   -2.1900    0.0000 C   0  0  0  0  0  0  0  0  0  0  0  0
   13.2095    1.6259    0.0000 C   0  0  0  0  0  0  0  0  0  0  0  0
    4.5981    3.8100    0.0000 C   0  0  0  0  0  0  0  0  0  0  0  0
    2.8660    3.8100    0.0000 C   0  0  0  0  0  0  0  0  0  0  0  0
    7.1962   -1.6900    0.0000 C   0  0  0  0  0  0  0  0  0  0  0  0
    3.7320    4.3100    0.0000 C   0  0  0  0  0  0  0  0  0  0  0  0
    3.7320   -0.6900    0.0000 C   0  0  0  0  0  0  0  0  0  0  0  0
    2.0000   -0.6900    0.0000 C   0  0  0  0  0  0  0  0  0  0  0  0
    2.8660   -2.1900    0.0000 C   0  0  0  0  0  0  0  0  0  0  0  0
    3.7320   -1.6900    0.0000 C   0  0  0  0  0  0  0  0  0  0  0  0
    2.0000   -1.6900    0.0000 C   0  0  0  0  0  0  0  0  0  0  0  0
    8.0622   -2.1900    0.0000 C   0  0  0  0  0  0  0  0  0  0  0  0
    7.1962   -0.6900    0.0000 C   0  0  0  0  0  0  0  0  0  0  0  0
    3.7320   -3.6900    0.0000 C   0  0  0  0  0  0  0  0  0  0  0  0
    2.8660   -3.1900    0.0000 C   0  0  0  0  0  0  0  0  0  0  0  0
    8.9282   -1.6900    0.0000 C   0  0  0  0  0  0  0  0  0  0  0  0
    8.0622   -0.1900    0.0000 C   0  0  0  0  0  0  0  0  0  0  0  0
    8.9282   -0.6900    0.0000 C   0  0  0  0  0  0  0  0  0  0  0  0
    7.3018    1.6560    0.0000 H   0  0  0  0  0  0  0  0  0  0  0  0
    6.1929    3.5912    0.0000 H   0  0  0  0  0  0  0  0  0  0  0  0
    6.0204    2.7796    0.0000 H   0  0  0  0  0  0  0  0  0  0  0  0
    7.6649    4.2603    0.0000 H   0  0  0  0  0  0  0  0  0  0  0  0
    6.8398    4.1736    0.0000 H   0  0  0  0  0  0  0  0  0  0  0  0
    8.7562    3.0671    0.0000 H   0  0  0  0  0  0  0  0  0  0  0  0
    8.4187    3.8251    0.0000 H   0  0  0  0  0  0  0  0  0  0  0  0
   10.2124    1.8742    0.0000 H   0  0  0  0  0  0  0  0  0  0  0  0
    5.4641    1.9300    0.0000 H   0  0  0  0  0  0  0  0  0  0  0  0
    5.1350    0.5000    0.0000 H   0  0  0  0  0  0  0  0  0  0  0  0
    9.7492    0.6736    0.0000 H   0  0  0  0  0  0  0  0  0  0  0  0
   10.5073    0.4273    0.0000 H   0  0  0  0  0  0  0  0  0  0  0  0
    4.2690    1.6200    0.0000 H   0  0  0  0  0  0  0  0  0  0  0  0
   11.0220    2.2978    0.0000 H   0  0  0  0  0  0  0  0  0  0  0  0
   11.4995    3.0332    0.0000 H   0  0  0  0  0  0  0  0  0  0  0  0
   10.7642    3.5108    0.0000 H   0  0  0  0  0  0  0  0  0  0  0  0
    9.7065    3.8544    0.0000 H   0  0  0  0  0  0  0  0  0  0  0  0
    8.8309    3.9003    0.0000 H   0  0  0  0  0  0  0  0  0  0  0  0
    8.7850    3.0247    0.0000 H   0  0  0  0  0  0  0  0  0  0  0  0
    6.0841   -0.6900    0.0000 H   0  0  0  0  0  0  0  0  0  0  0  0
    6.0010   -1.3800    0.0000 H   0  0  0  0  0  0  0  0  0  0  0  0
   11.1473    2.6219    0.0000 H   0  0  0  0  0  0  0  0  0  0  0  0
   11.7307   -0.1227    0.0000 H   0  0  0  0  0  0  0  0  0  0  0  0
    5.1350    2.5000    0.0000 H   0  0  0  0  0  0  0  0  0  0  0  0
    2.3291    2.5000    0.0000 H   0  0  0  0  0  0  0  0  0  0  0  0
    5.9316   -2.6650    0.0000 H   0  0  0  0  0  0  0  0  0  0  0  0
    6.7287   -2.6649    0.0000 H   0  0  0  0  0  0  0  0  0  0  0  0
   12.7319    2.9587    0.0000 H   0  0  0  0  0  0  0  0  0  0  0  0
   13.3153    0.2141    0.0000 H   0  0  0  0  0  0  0  0  0  0  0  0
   13.8159    1.7548    0.0000 H   0  0  0  0  0  0  0  0  0  0  0  0
    5.1350    4.1200    0.0000 H   0  0  0  0  0  0  0  0  0  0  0  0
    2.3291    4.1200    0.0000 H   0  0  0  0  0  0  0  0  0  0  0  0
    3.7320    4.9300    0.0000 H   0  0  0  0  0  0  0  0  0  0  0  0
    4.2690   -0.3800    0.0000 H   0  0  0  0  0  0  0  0  0  0  0  0
    1.4631   -0.3800    0.0000 H   0  0  0  0  0  0  0  0  0  0  0  0
    5.1350   -3.5000    0.0000 H   0  0  0  0  0  0  0  0  0  0  0  0
    4.2690   -2.0000    0.0000 H   0  0  0  0  0  0  0  0  0  0  0  0
    1.4631   -2.0000    0.0000 H   0  0  0  0  0  0  0  0  0  0  0  0
    8.0622   -2.8100    0.0000 H   0  0  0  0  0  0  0  0  0  0  0  0
    6.6592   -0.3800    0.0000 H   0  0  0  0  0  0  0  0  0  0  0  0
    3.7320   -4.3100    0.0000 H   0  0  0  0  0  0  0  0  0  0  0  0
    2.3291   -3.5000    0.0000 H   0  0  0  0  0  0  0  0  0  0  0  0
    9.4651   -2.0000    0.0000 H   0  0  0  0  0  0  0  0  0  0  0  0
    8.0622    0.4300    0.0000 H   0  0  0  0  0  0  0  0  0  0  0  0
    9.4651   -0.3800    0.0000 H   0  0  0  0  0  0  0  0  0  0  0  0
  1 15  2  0  0  0  0
  2 16  2  0  0  0  0
  3 20  1  0  0  0  0
  3 32  1  0  0  0  0
  4 22  2  0  0  0  0
  5 35  2  0  0  0  0
  6 11  1  0  0  0  0
  6 14  1  0  0  0  0
  6 15  1  0  0  0  0
  7 16  1  0  0  0  0
 18  7  1  6  0  0  0
  7 61  1  0  0  0  0
 17  8  1  1  0  0  0
  8 23  1  0  0  0  0
  8 24  1  0  0  0  0
  9 22  1  0  0  0  0
  9 26  1  0  0  0  0
  9 72  1  0  0  0  0
 10 35  1  0  0  0  0
 10 48  1  0  0  0  0
 10 88  1  0  0  0  0
 11 12  1  0  0  0  0
 11 16  1  6  0  0  0
 11 53  1  0  0  0  0
 12 13  1  0  0  0  0
 12 54  1  0  0  0  0
 12 55  1  0  0  0  0
 13 14  1  0  0  0  0
 13 56  1  0  0  0  0
 13 57  1  0  0  0  0
 14 58  1  0  0  0  0
 14 59  1  0  0  0  0
 15 17  1  0  0  0  0
 17 19  1  0  0  0  0
 17 60  1  0  0  0  0
 18 20  1  0  0  0  0
 18 22  1  0  0  0  0
 18 62  1  0  0  0  0
 19 21  1  0  0  0  0
 19 63  1  0  0  0  0
 19 64  1  0  0  0  0
 20 25  1  6  0  0  0
 20 65  1  0  0  0  0
 21 27  2  0  0  0  0
 21 28  1  0  0  0  0
 23 66  1  0  0  0  0
 23 67  1  0  0  0  0
 23 68  1  0  0  0  0
 24 69  1  0  0  0  0
 24 70  1  0  0  0  0
 24 71  1  0  0  0  0
 25 29  2  0  0  0  0
 25 30  1  0  0  0  0
 26 31  1  1  0  0  0
 26 35  1  0  0  0  0
 26 73  1  0  0  0  0
 27 33  1  0  0  0  0
 27 74  1  0  0  0  0
 28 34  2  0  0  0  0
 28 75  1  0  0  0  0
 29 37  1  0  0  0  0
 29 76  1  0  0  0  0
 30 38  2  0  0  0  0
 30 77  1  0  0  0  0
 31 39  1  0  0  0  0
 31 78  1  0  0  0  0
 31 79  1  0  0  0  0
 32 41  2  0  0  0  0
 32 42  1  0  0  0  0
 33 36  2  0  0  0  0
 33 80  1  0  0  0  0
 34 36  1  0  0  0  0
 34 81  1  0  0  0  0
 36 82  1  0  0  0  0
 37 40  2  0  0  0  0
 37 83  1  0  0  0  0
 38 40  1  0  0  0  0
 38 84  1  0  0  0  0
 39 46  2  0  0  0  0
 39 47  1  0  0  0  0
 40 85  1  0  0  0  0
 41 44  1  0  0  0  0
 41 86  1  0  0  0  0
 42 45  2  0  0  0  0
 42 87  1  0  0  0  0
 43 44  2  0  0  0  0
 43 45  1  0  0  0  0
 43 49  1  0  0  0  0
 44 89  1  0  0  0  0
 45 90  1  0  0  0  0
 46 50  1  0  0  0  0
 46 91  1  0  0  0  0
 47 51  2  0  0  0  0
 47 92  1  0  0  0  0
 48 49  2  0  0  0  0
 48 93  1  0  0  0  0
 49 94  1  0  0  0  0
 50 52  2  0  0  0  0
 50 95  1  0  0  0  0
 51 52  1  0  0  0  0
 51 96  1  0  0  0  0
 52 97  1  0  0  0  0
M  END
> <PUBCHEM_COMPOUND_CID>
5281579

> <PUBCHEM_COMPOUND_CANONICALIZED>
1

> <PUBCHEM_CACTVS_COMPLEXITY>
1220

> <PUBCHEM_CACTVS_HBOND_ACCEPTOR>
6

> <PUBCHEM_CACTVS_HBOND_DONOR>
3

> <PUBCHEM_CACTVS_ROTATABLE_BOND>
9

> <PUBCHEM_CACTVS_SUBSKEYS>
AAADcfB/uAAAAAAAAAAAAAAAAAAAAWAAAAAwYMGAAAAAAAABVAAAHgAQAAAADDzhmAYyBoPABACIAiFWUAACCAAgIgAIiIGOCIgOZjaEsTuXOCCm9hGYqAeYyaCOIAAAAAAAAABAAAAAAAAAAAAAAAAAAA==

> <PUBCHEM_IUPAC_OPENEYE_NAME>
(2S)-N-[(2Z,6S,9S,10R)-6-benzyl-5,8-dioxo-10-phenyl-11-oxa-4,7-diazabicyclo[10.2.2]hexadeca-1(14),2,12,15-tetraen-9-yl]-1-[(2S)-2-(dimethylamino)-3-phenyl-propanoyl]pyrrolidine-2-carboxamide

> <PUBCHEM_IUPAC_CAS_NAME>
(2S)-1-[(2S)-2-(dimethylamino)-1-oxo-3-phenylpropyl]-N-[(2Z,6S,9S,10R)-5,8-dioxo-10-phenyl-6-(phenylmethyl)-11-oxa-4,7-diazabicyclo[10.2.2]hexadeca-1(14),2,12,15-tetraen-9-yl]-2-pyrrolidinecarboxamide

> <PUBCHEM_IUPAC_NAME>
(2S)-N-[(2Z,6S,9S,10R)-6-benzyl-5,8-dioxo-10-phenyl-11-oxa-4,7-diazabicyclo[10.2.2]hexadeca-1(14),2,12,15-tetraen-9-yl]-1-[(2S)-2-(dimethylamino)-3-phenylpropanoyl]pyrrolidine-2-carboxamide

> <PUBCHEM_IUPAC_SYSTEMATIC_NAME>
(2S)-N-[(2Z,6S,9S,10R)-5,8-bis(oxidanylidene)-10-phenyl-6-(phenylmethyl)-11-oxa-4,7-diazabicyclo[10.2.2]hexadeca-1(14),2,12,15-tetraen-9-yl]-1-[(2S)-2-(dimethylamino)-3-phenyl-propanoyl]pyrrolidine-2-carboxamide

> <PUBCHEM_IUPAC_TRADITIONAL_NAME>
(2S)-N-[(2Z,6S,9S,10R)-6-benzyl-5,8-diketo-10-phenyl-11-oxa-4,7-diazabicyclo[10.2.2]hexadeca-1(14),2,12,15-tetraen-9-yl]-1-[(2S)-2-(dimethylamino)-3-phenyl-propanoyl]pyrrolidine-2-carboxamide

> <PUBCHEM_IUPAC_INCHI>
InChI=1S/C42H45N5O5/c1-46(2)36(28-31-15-8-4-9-16-31)42(51)47-26-12-19-35(47)40(49)45-37-38(32-17-10-5-11-18-32)52-33-22-20-29(21-23-33)24-25-43-39(48)34(44-41(37)50)27-30-13-6-3-7-14-30/h3-11,13-18,20-25,34-38H,12,19,26-28H2,1-2H3,(H,43,48)(H,44,50)(H,45,49)/b25-24-/t34-,35-,36-,37-,38+/m0/s1

> <PUBCHEM_IUPAC_INCHIKEY>
WQGSMNQYDWWZGF-RLLMKXODSA-N

> <PUBCHEM_XLOGP3_AA>
5.7

> <PUBCHEM_EXACT_MASS>
699.34207

> <PUBCHEM_MOLECULAR_FORMULA>
C42H45N5O5

> <PUBCHEM_MOLECULAR_WEIGHT>
699.8372

> <PUBCHEM_OPENEYE_CAN_SMILES>
CN(C)C(CC1=CC=CC=C1)C(=O)N2CCCC2C(=O)NC3C(OC4=CC=C(C=C4)C=CNC(=O)C(NC3=O)CC5=CC=CC=C5)C6=CC=CC=C6

> <PUBCHEM_OPENEYE_ISO_SMILES>
CN(C)[C@@H](CC1=CC=CC=C1)C(=O)N2CCC[C@H]2C(=O)N[C@H]3[C@H](OC4=CC=C(C=C4)/C=C\NC(=O)[C@@H](NC3=O)CC5=CC=CC=C5)C6=CC=CC=C6

> <PUBCHEM_CACTVS_TPSA>
120

> <PUBCHEM_MONOISOTOPIC_WEIGHT>
699.34207

> <PUBCHEM_TOTAL_CHARGE>
0

> <PUBCHEM_HEAVY_ATOM_COUNT>
52

> <PUBCHEM_ATOM_DEF_STEREO_COUNT>
5

> <PUBCHEM_ATOM_UDEF_STEREO_COUNT>
0

> <PUBCHEM_BOND_DEF_STEREO_COUNT>
1

> <PUBCHEM_BOND_UDEF_STEREO_COUNT>
0

> <PUBCHEM_ISOTOPIC_ATOM_COUNT>
0

> <PUBCHEM_COMPONENT_COUNT>
1

> <PUBCHEM_CACTVS_TAUTO_COUNT>
18

> <PUBCHEM_COORDINATE_TYPE>
1
5
255

> <PUBCHEM_BONDANNOTATIONS>
11  16  6
20  25  6
21  27  8
21  28  8
25  29  8
25  30  8
26  31  5
27  33  8
28  34  8
29  37  8
30  38  8
32  41  8
32  42  8
33  36  8
34  36  8
37  40  8
38  40  8
39  46  8
39  47  8
41  44  8
42  45  8
43  44  8
43  45  8
46  50  8
47  51  8
50  52  8
51  52  8
18  7  6
17  8  5

$$$$

