53297391
  -OEChem-07051213122D

 48 51  0     1  0  0  0  0  0999 V2000
    2.3121    0.0507    0.0000 O   0  0  0  0  0  0  0  0  0  0  0  0
    4.2297    2.6099    0.0000 O   0  0  0  0  0  0  0  0  0  0  0  0
    3.3695   -1.9692    0.0000 O   0  0  0  0  0  0  0  0  0  0  0  0
    5.9781    2.5753    0.0000 O   0  0  0  0  0  0  0  0  0  0  0  0
    5.1014   -1.9492    0.0000 O   0  0  0  0  0  0  0  0  0  0  0  0
    7.7265   -1.4593    0.0000 O   0  0  0  0  0  0  0  0  0  0  0  0
    7.7265    2.6099    0.0000 O   0  0  0  0  0  0  0  0  0  0  0  0
    9.5637   -1.5023    0.0000 O   0  0  0  0  0  0  0  0  0  0  0  0
    9.5637    2.6530    0.0000 O   0  0  0  0  0  0  0  0  0  0  0  0
    3.3121    0.0545    0.0000 C   0  0  2  0  0  0  0  0  0  0  0  0
    4.2181   -0.4593    0.0000 C   0  0  1  0  0  0  0  0  0  0  0  0
    3.3121    1.0961    0.0000 C   0  0  0  0  0  0  0  0  0  0  0  0
    4.2181    1.6100    0.0000 C   0  0  1  0  0  0  0  0  0  0  0  0
    5.1121    0.0753    0.0000 C   0  0  0  0  0  0  0  0  0  0  0  0
    5.1121    1.0753    0.0000 C   0  0  0  0  0  0  0  0  0  0  0  0
    2.8154   -0.8134    0.0000 C   0  0  0  0  0  0  0  0  0  0  0  0
    5.9781   -0.4247    0.0000 C   0  0  0  0  0  0  0  0  0  0  0  0
    5.9781    1.5753    0.0000 C   0  0  0  0  0  0  0  0  0  0  0  0
    4.2297   -1.4593    0.0000 C   0  0  0  0  0  0  0  0  0  0  0  0
    6.8441    0.0753    0.0000 C   0  0  0  0  0  0  0  0  0  0  0  0
    6.8441    1.0753    0.0000 C   0  0  0  0  0  0  0  0  0  0  0  0
    7.7381   -0.4593    0.0000 C   0  0  0  0  0  0  0  0  0  0  0  0
    7.7381    1.6100    0.0000 C   0  0  0  0  0  0  0  0  0  0  0  0
    8.6441    0.0545    0.0000 C   0  0  0  0  0  0  0  0  0  0  0  0
    8.6441    1.0961    0.0000 C   0  0  0  0  0  0  0  0  0  0  0  0
    9.5753   -0.5024    0.0000 C   0  0  0  0  0  0  0  0  0  0  0  0
    9.5753    1.6531    0.0000 C   0  0  0  0  0  0  0  0  0  0  0  0
    3.3811   -2.9692    0.0000 C   0  0  0  0  0  0  0  0  0  0  0  0
   10.5191    0.0328    0.0000 C   0  0  0  0  0  0  0  0  0  0  0  0
   10.5191    1.1178    0.0000 C   0  0  0  0  0  0  0  0  0  0  0  0
    3.6842   -0.7745    0.0000 H   0  0  0  0  0  0  0  0  0  0  0  0
    3.1030    1.6798    0.0000 H   0  0  0  0  0  0  0  0  0  0  0  0
    2.7012    0.9900    0.0000 H   0  0  0  0  0  0  0  0  0  0  0  0
    4.7592    1.9127    0.0000 H   0  0  0  0  0  0  0  0  0  0  0  0
    2.2773   -0.5055    0.0000 H   0  0  0  0  0  0  0  0  0  0  0  0
    2.5075   -1.3516    0.0000 H   0  0  0  0  0  0  0  0  0  0  0  0
    3.3535   -1.1214    0.0000 H   0  0  0  0  0  0  0  0  0  0  0  0
    5.9781   -1.0447    0.0000 H   0  0  0  0  0  0  0  0  0  0  0  0
    2.0000    0.5864    0.0000 H   0  0  0  0  0  0  0  0  0  0  0  0
    3.6964    2.9261    0.0000 H   0  0  0  0  0  0  0  0  0  0  0  0
    5.4412    2.8853    0.0000 H   0  0  0  0  0  0  0  0  0  0  0  0
    2.7611   -2.9764    0.0000 H   0  0  0  0  0  0  0  0  0  0  0  0
    3.3882   -3.5891    0.0000 H   0  0  0  0  0  0  0  0  0  0  0  0
    4.0010   -2.9620    0.0000 H   0  0  0  0  0  0  0  0  0  0  0  0
   11.0548   -0.2792    0.0000 H   0  0  0  0  0  0  0  0  0  0  0  0
   11.0548    1.4299    0.0000 H   0  0  0  0  0  0  0  0  0  0  0  0
   10.0970   -1.8185    0.0000 H   0  0  0  0  0  0  0  0  0  0  0  0
   10.0970    2.9692    0.0000 H   0  0  0  0  0  0  0  0  0  0  0  0
 10  1  1  1  0  0  0
  1 39  1  0  0  0  0
 13  2  1  6  0  0  0
  2 40  1  0  0  0  0
  3 19  1  0  0  0  0
  3 28  1  0  0  0  0
  4 18  1  0  0  0  0
  4 41  1  0  0  0  0
  5 19  2  0  0  0  0
  6 22  2  0  0  0  0
  7 23  2  0  0  0  0
  8 26  1  0  0  0  0
  8 47  1  0  0  0  0
  9 27  1  0  0  0  0
  9 48  1  0  0  0  0
 10 11  1  0  0  0  0
 10 12  1  0  0  0  0
 10 16  1  0  0  0  0
 11 14  1  0  0  0  0
 11 19  1  1  0  0  0
 11 31  1  0  0  0  0
 12 13  1  0  0  0  0
 12 32  1  0  0  0  0
 12 33  1  0  0  0  0
 13 15  1  0  0  0  0
 13 34  1  0  0  0  0
 14 15  1  0  0  0  0
 14 17  2  0  0  0  0
 15 18  2  0  0  0  0
 16 35  1  0  0  0  0
 16 36  1  0  0  0  0
 16 37  1  0  0  0  0
 17 20  1  0  0  0  0
 17 38  1  0  0  0  0
 18 21  1  0  0  0  0
 20 21  2  0  0  0  0
 20 22  1  0  0  0  0
 21 23  1  0  0  0  0
 22 24  1  0  0  0  0
 23 25  1  0  0  0  0
 24 25  1  0  0  0  0
 24 26  2  0  0  0  0
 25 27  2  0  0  0  0
 26 29  1  0  0  0  0
 27 30  1  0  0  0  0
 28 42  1  0  0  0  0
 28 43  1  0  0  0  0
 28 44  1  0  0  0  0
 29 30  2  0  0  0  0
 29 45  1  0  0  0  0
 30 46  1  0  0  0  0
M  END
> <PUBCHEM_COMPOUND_CID>
53297391

> <PUBCHEM_COMPOUND_CANONICALIZED>
1

> <PUBCHEM_CACTVS_COMPLEXITY>
753

> <PUBCHEM_CACTVS_HBOND_ACCEPTOR>
9

> <PUBCHEM_CACTVS_HBOND_DONOR>
5

> <PUBCHEM_CACTVS_ROTATABLE_BOND>
2

> <PUBCHEM_CACTVS_SUBSKEYS>
AAADceB4PAAAAAAAAAAAAAAAAAAAAAAAAAAwYMGAAAAAAADBQAAAGgAACAAADVSgmAIyDoAABgCIAqDSCAACAAAkIAAIiAEGCMgINzaCFRKAcUAl4BEImYfL7PzOwQADAAAYAADCAAYQADAAAAAAAAAAAA==

> <PUBCHEM_IUPAC_OPENEYE_NAME>
methyl (1R,2S,4S)-2,4,5,7,10-pentahydroxy-2-methyl-6,11-dioxo-3,4-dihydro-1H-tetracene-1-carboxylate

> <PUBCHEM_IUPAC_CAS_NAME>
(1R,2S,4S)-2,4,5,7,10-pentahydroxy-2-methyl-6,11-dioxo-3,4-dihydro-1H-tetracene-1-carboxylic acid methyl ester

> <PUBCHEM_IUPAC_NAME>
methyl (1R,2S,4S)-2,4,5,7,10-pentahydroxy-2-methyl-6,11-dioxo-3,4-dihydro-1H-tetracene-1-carboxylate

> <PUBCHEM_IUPAC_SYSTEMATIC_NAME>
methyl (1R,2S,4S)-2-methyl-2,4,5,7,10-pentakis(oxidanyl)-6,11-bis(oxidanylidene)-3,4-dihydro-1H-tetracene-1-carboxylate

> <PUBCHEM_IUPAC_TRADITIONAL_NAME>
(1R,2S,4S)-2,4,5,7,10-pentahydroxy-6,11-diketo-2-methyl-3,4-dihydro-1H-tetracene-1-carboxylic acid methyl ester

> <PUBCHEM_IUPAC_INCHI>
InChI=1S/C21H18O9/c1-21(29)6-11(24)12-7(16(21)20(28)30-2)5-8-13(18(12)26)19(27)15-10(23)4-3-9(22)14(15)17(8)25/h3-5,11,16,22-24,26,29H,6H2,1-2H3/t11-,16-,21-/m0/s1

> <PUBCHEM_IUPAC_INCHIKEY>
ZBSRQGXAWDQXFX-VQDICGIKSA-N

> <PUBCHEM_XLOGP3_AA>
2.1

> <PUBCHEM_EXACT_MASS>
414.095082

> <PUBCHEM_MOLECULAR_FORMULA>
C21H18O9

> <PUBCHEM_MOLECULAR_WEIGHT>
414.36222

> <PUBCHEM_OPENEYE_CAN_SMILES>
CC1(CC(C2=C(C1C(=O)OC)C=C3C(=C2O)C(=O)C4=C(C=CC(=C4C3=O)O)O)O)O

> <PUBCHEM_OPENEYE_ISO_SMILES>
C[C@@]1(C[C@@H](C2=C([C@H]1C(=O)OC)C=C3C(=C2O)C(=O)C4=C(C=CC(=C4C3=O)O)O)O)O

> <PUBCHEM_CACTVS_TPSA>
162

> <PUBCHEM_MONOISOTOPIC_WEIGHT>
414.095082

> <PUBCHEM_TOTAL_CHARGE>
0

> <PUBCHEM_HEAVY_ATOM_COUNT>
30

> <PUBCHEM_ATOM_DEF_STEREO_COUNT>
3

> <PUBCHEM_ATOM_UDEF_STEREO_COUNT>
0

> <PUBCHEM_BOND_DEF_STEREO_COUNT>
0

> <PUBCHEM_BOND_UDEF_STEREO_COUNT>
0

> <PUBCHEM_ISOTOPIC_ATOM_COUNT>
0

> <PUBCHEM_COMPONENT_COUNT>
1

> <PUBCHEM_CACTVS_TAUTO_COUNT>
240

> <PUBCHEM_COORDINATE_TYPE>
1
5
255

> <PUBCHEM_BONDANNOTATIONS>
10  1  5
11  19  5
14  15  8
14  17  8
15  18  8
17  20  8
18  21  8
13  2  6
20  21  8
24  25  8
24  26  8
25  27  8
26  29  8
27  30  8
29  30  8

$$$$

