25245902
  -OEChem-07051213082D

 35 36  0     1  0  0  0  0  0999 V2000
    6.2781    0.9078    0.0000 S   0  0  0  0  0  0  0  0  0  0  0  0
    8.8564    3.2213    0.0000 O   0  0  0  0  0  0  0  0  0  0  0  0
    7.6138   -0.5808    0.0000 O   0  0  0  0  0  0  0  0  0  0  0  0
    9.2136    1.5265    0.0000 O   0  0  0  0  0  0  0  0  0  0  0  0
    4.6783   -2.8089    0.0000 N   0  0  0  0  0  0  0  0  0  0  0  0
    6.8994    2.8089    0.0000 N   0  0  0  0  0  0  0  0  0  0  0  0
    6.6353   -0.7870    0.0000 N   0  0  0  0  0  0  0  0  0  0  0  0
    4.6783   -1.1994    0.0000 C   0  0  0  0  0  0  0  0  0  0  0  0
    3.7320   -1.5042    0.0000 C   0  0  0  0  0  0  0  0  0  0  0  0
    3.7320   -2.5042    0.0000 C   0  0  0  0  0  0  0  0  0  0  0  0
    4.9889   -0.2489    0.0000 C   0  0  0  0  0  0  0  0  0  0  0  0
    5.2619   -2.0042    0.0000 C   0  0  0  0  0  0  0  0  0  0  0  0
    2.8660   -1.0042    0.0000 C   0  0  0  0  0  0  0  0  0  0  0  0
    5.9674   -0.0427    0.0000 C   0  0  0  0  0  0  0  0  0  0  0  0
    2.8660   -3.0042    0.0000 C   0  0  0  0  0  0  0  0  0  0  0  0
    7.2566    1.1141    0.0000 C   0  0  0  0  0  0  0  0  0  0  0  0
    7.5673    2.0646    0.0000 C   0  0  1  0  0  0  0  0  0  0  0  0
    2.0000   -1.5042    0.0000 C   0  0  0  0  0  0  0  0  0  0  0  0
    2.0000   -2.5042    0.0000 C   0  0  0  0  0  0  0  0  0  0  0  0
    8.5458    2.2708    0.0000 C   0  0  0  0  0  0  0  0  0  0  0  0
    4.9684    0.3708    0.0000 H   0  0  0  0  0  0  0  0  0  0  0  0
    4.3751   -0.1615    0.0000 H   0  0  0  0  0  0  0  0  0  0  0  0
    5.8819   -2.0042    0.0000 H   0  0  0  0  0  0  0  0  0  0  0  0
    4.8709   -3.3982    0.0000 H   0  0  0  0  0  0  0  0  0  0  0  0
    2.8660   -0.3842    0.0000 H   0  0  0  0  0  0  0  0  0  0  0  0
    2.8660   -3.6242    0.0000 H   0  0  0  0  0  0  0  0  0  0  0  0
    7.2772    0.4944    0.0000 H   0  0  0  0  0  0  0  0  0  0  0  0
    7.8704    1.0267    0.0000 H   0  0  0  0  0  0  0  0  0  0  0  0
    6.9606    1.9367    0.0000 H   0  0  0  0  0  0  0  0  0  0  0  0
    1.4631   -1.1942    0.0000 H   0  0  0  0  0  0  0  0  0  0  0  0
    1.4631   -2.8142    0.0000 H   0  0  0  0  0  0  0  0  0  0  0  0
    7.0920    3.3982    0.0000 H   0  0  0  0  0  0  0  0  0  0  0  0
    6.2928    2.6810    0.0000 H   0  0  0  0  0  0  0  0  0  0  0  0
    9.4631    3.3492    0.0000 H   0  0  0  0  0  0  0  0  0  0  0  0
    8.0279   -1.0422    0.0000 H   0  0  0  0  0  0  0  0  0  0  0  0
  1 14  1  0  0  0  0
  1 16  1  0  0  0  0
  2 20  1  0  0  0  0
  2 34  1  0  0  0  0
  3  7  1  0  0  0  0
  3 35  1  0  0  0  0
  4 20  2  0  0  0  0
  5 10  1  0  0  0  0
  5 12  1  0  0  0  0
  5 24  1  0  0  0  0
 17  6  1  6  0  0  0
  6 32  1  0  0  0  0
  6 33  1  0  0  0  0
  7 14  2  0  0  0  0
  8  9  1  0  0  0  0
  8 11  1  0  0  0  0
  8 12  2  0  0  0  0
  9 10  1  0  0  0  0
  9 13  2  0  0  0  0
 10 15  2  0  0  0  0
 11 14  1  0  0  0  0
 11 21  1  0  0  0  0
 11 22  1  0  0  0  0
 12 23  1  0  0  0  0
 13 18  1  0  0  0  0
 13 25  1  0  0  0  0
 15 19  1  0  0  0  0
 15 26  1  0  0  0  0
 16 17  1  0  0  0  0
 16 27  1  0  0  0  0
 16 28  1  0  0  0  0
 17 20  1  0  0  0  0
 17 29  1  0  0  0  0
 18 19  2  0  0  0  0
 18 30  1  0  0  0  0
 19 31  1  0  0  0  0
M  END
> <PUBCHEM_COMPOUND_CID>
25245902

> <PUBCHEM_COMPOUND_CANONICALIZED>
1

> <PUBCHEM_CACTVS_COMPLEXITY>
378

> <PUBCHEM_CACTVS_HBOND_ACCEPTOR>
6

> <PUBCHEM_CACTVS_HBOND_DONOR>
4

> <PUBCHEM_CACTVS_ROTATABLE_BOND>
6

> <PUBCHEM_CACTVS_SUBSKEYS>
AAADccBzMABAAAAAAAAAAAAAAAAAAWAAAAAwAAAAAAAAAFgB8AAAHgQUCAAADCjF3gS8yPLZkgioAzT3TACCgCAxAjAI2aG4ZJgKIOLgkZGEYAhgkADoyAcQgMAOgAAAAAACAAAAAAAAAAQAAAAAAAAAAA==

> <PUBCHEM_IUPAC_OPENEYE_NAME>
(2R)-2-amino-3-[(Z)-N-hydroxy-C-(1H-indol-3-ylmethyl)carbonimidoyl]sulfanyl-propanoic acid

> <PUBCHEM_IUPAC_CAS_NAME>
(2R)-2-amino-3-[[(1Z)-1-hydroxyimino-2-(1H-indol-3-yl)ethyl]thio]propanoic acid

> <PUBCHEM_IUPAC_NAME>
(2R)-2-amino-3-[(Z)-N-hydroxy-C-(1H-indol-3-ylmethyl)carbonimidoyl]sulfanylpropanoic acid

> <PUBCHEM_IUPAC_SYSTEMATIC_NAME>
(2R)-2-azanyl-3-[(Z)-C-(1H-indol-3-ylmethyl)-N-oxidanyl-carbonimidoyl]sulfanyl-propanoic acid

> <PUBCHEM_IUPAC_TRADITIONAL_NAME>
(2R)-2-amino-3-[[2-(1H-indol-3-yl)acetohydroximoyl]thio]propionic acid

> <PUBCHEM_IUPAC_INCHI>
InChI=1S/C13H15N3O3S/c14-10(13(17)18)7-20-12(16-19)5-8-6-15-11-4-2-1-3-9(8)11/h1-4,6,10,15,19H,5,7,14H2,(H,17,18)/b16-12-/t10-/m0/s1

> <PUBCHEM_IUPAC_INCHIKEY>
GREVXYZKHGJYAU-HPCMQXCGSA-N

> <PUBCHEM_XLOGP3>
-1.1

> <PUBCHEM_EXACT_MASS>
293.083412

> <PUBCHEM_MOLECULAR_FORMULA>
C13H15N3O3S

> <PUBCHEM_MOLECULAR_WEIGHT>
293.3415

> <PUBCHEM_OPENEYE_CAN_SMILES>
C1=CC=C2C(=C1)C(=CN2)CC(=NO)SCC(C(=O)O)N

> <PUBCHEM_OPENEYE_ISO_SMILES>
C1=CC=C2C(=C1)C(=CN2)C/C(=N/O)/SC[C@@H](C(=O)O)N

> <PUBCHEM_CACTVS_TPSA>
137

> <PUBCHEM_MONOISOTOPIC_WEIGHT>
293.083412

> <PUBCHEM_TOTAL_CHARGE>
0

> <PUBCHEM_HEAVY_ATOM_COUNT>
20

> <PUBCHEM_ATOM_DEF_STEREO_COUNT>
1

> <PUBCHEM_ATOM_UDEF_STEREO_COUNT>
0

> <PUBCHEM_BOND_DEF_STEREO_COUNT>
1

> <PUBCHEM_BOND_UDEF_STEREO_COUNT>
0

> <PUBCHEM_ISOTOPIC_ATOM_COUNT>
0

> <PUBCHEM_COMPONENT_COUNT>
1

> <PUBCHEM_CACTVS_TAUTO_COUNT>
3

> <PUBCHEM_COORDINATE_TYPE>
1
5
255

> <PUBCHEM_BONDANNOTATIONS>
10  15  8
13  18  8
15  19  8
18  19  8
5  10  8
5  12  8
17  6  6
8  12  8
8  9  8
9  10  8
9  13  8

$$$$

