443334
  -OEChem-07051213022D

 28 29  0     1  0  0  0  0  0999 V2000
    2.0000    0.3450    0.0000 O   0  0  0  0  0  0  0  0  0  0  0  0
    2.8660    1.8450    0.0000 O   0  0  0  0  0  0  0  0  0  0  0  0
    3.7320    0.3450    0.0000 C   0  0  1  0  0  0  0  0  0  0  0  0
    3.7320   -0.6550    0.0000 C   0  0  2  0  0  0  0  0  0  0  0  0
    4.6783    0.6497    0.0000 C   0  0  1  0  0  0  0  0  0  0  0  0
    4.6783   -0.9597    0.0000 C   0  0  0  0  0  0  0  0  0  0  0  0
    5.2619   -0.1550    0.0000 C   0  0  0  0  0  0  0  0  0  0  0  0
    2.8660    0.8450    0.0000 C   0  0  1  0  0  0  0  0  0  0  0  0
    2.8660   -1.1550    0.0000 C   0  0  0  0  0  0  0  0  0  0  0  0
    4.9889    1.6002    0.0000 C   0  0  0  0  0  0  0  0  0  0  0  0
    2.0000   -0.6550    0.0000 C   0  0  0  0  0  0  0  0  0  0  0  0
    2.8660   -2.1550    0.0000 C   0  0  0  0  0  0  0  0  0  0  0  0
    3.8220    1.1902    0.0000 H   0  0  0  0  0  0  0  0  0  0  0  0
    3.8220   -1.5002    0.0000 H   0  0  0  0  0  0  0  0  0  0  0  0
    5.2908    0.7459    0.0000 H   0  0  0  0  0  0  0  0  0  0  0  0
    4.4272   -1.5266    0.0000 H   0  0  0  0  0  0  0  0  0  0  0  0
    5.2156   -1.2690    0.0000 H   0  0  0  0  0  0  0  0  0  0  0  0
    5.7227   -0.5697    0.0000 H   0  0  0  0  0  0  0  0  0  0  0  0
    5.7227    0.2597    0.0000 H   0  0  0  0  0  0  0  0  0  0  0  0
    3.4030    1.1550    0.0000 H   0  0  0  0  0  0  0  0  0  0  0  0
    5.5783    1.4076    0.0000 H   0  0  0  0  0  0  0  0  0  0  0  0
    5.1815    2.1896    0.0000 H   0  0  0  0  0  0  0  0  0  0  0  0
    4.3996    1.7929    0.0000 H   0  0  0  0  0  0  0  0  0  0  0  0
    1.4631   -0.9650    0.0000 H   0  0  0  0  0  0  0  0  0  0  0  0
    2.2460   -2.1550    0.0000 H   0  0  0  0  0  0  0  0  0  0  0  0
    2.8660   -2.7750    0.0000 H   0  0  0  0  0  0  0  0  0  0  0  0
    3.4860   -2.1550    0.0000 H   0  0  0  0  0  0  0  0  0  0  0  0
    2.3291    2.1550    0.0000 H   0  0  0  0  0  0  0  0  0  0  0  0
  1  8  1  0  0  0  0
  1 11  1  0  0  0  0
  8  2  1  1  0  0  0
  2 28  1  0  0  0  0
  3  4  1  0  0  0  0
  3  5  1  0  0  0  0
  3  8  1  0  0  0  0
  3 13  1  1  0  0  0
  4  6  1  0  0  0  0
  4  9  1  0  0  0  0
  4 14  1  1  0  0  0
  5  7  1  0  0  0  0
  5 10  1  6  0  0  0
  5 15  1  0  0  0  0
  6  7  1  0  0  0  0
  6 16  1  0  0  0  0
  6 17  1  0  0  0  0
  7 18  1  0  0  0  0
  7 19  1  0  0  0  0
  8 20  1  0  0  0  0
  9 11  2  0  0  0  0
  9 12  1  0  0  0  0
 10 21  1  0  0  0  0
 10 22  1  0  0  0  0
 10 23  1  0  0  0  0
 11 24  1  0  0  0  0
 12 25  1  0  0  0  0
 12 26  1  0  0  0  0
 12 27  1  0  0  0  0
M  END
> <PUBCHEM_COMPOUND_CID>
443334

> <PUBCHEM_COMPOUND_CANONICALIZED>
1

> <PUBCHEM_CACTVS_COMPLEXITY>
210

> <PUBCHEM_CACTVS_HBOND_ACCEPTOR>
2

> <PUBCHEM_CACTVS_HBOND_DONOR>
1

> <PUBCHEM_CACTVS_ROTATABLE_BOND>
0

> <PUBCHEM_CACTVS_SUBSKEYS>
AAADceBwMAAAAAAAAAAAAAAAAAAAAYAAAAAgAAAAAAAAAEAAAAAAGgAACAAADQCwgAMCCAAABgCAAgBCAAAACAAgIAAAAAAAAAgQEAIAAQAAQAAEgAAAAAGAwOAOgAAAAAAAAAAAAAAAAAAAAQAACAAAAA==

> <PUBCHEM_IUPAC_OPENEYE_NAME>
(1R,4aS,7R,7aR)-4,7-dimethyl-1,4a,5,6,7,7a-hexahydrocyclopenta[c]pyran-1-ol

> <PUBCHEM_IUPAC_CAS_NAME>
(1R,4aS,7R,7aR)-4,7-dimethyl-1,4a,5,6,7,7a-hexahydrocyclopenta[c]pyran-1-ol

> <PUBCHEM_IUPAC_NAME>
(1R,4aS,7R,7aR)-4,7-dimethyl-1,4a,5,6,7,7a-hexahydrocyclopenta[c]pyran-1-ol

> <PUBCHEM_IUPAC_SYSTEMATIC_NAME>
(1R,4aS,7R,7aR)-4,7-dimethyl-1,4a,5,6,7,7a-hexahydrocyclopenta[c]pyran-1-ol

> <PUBCHEM_IUPAC_TRADITIONAL_NAME>
(1R,4aS,7R,7aR)-4,7-dimethyl-1,4a,5,6,7,7a-hexahydrocyclopenta[c]pyran-1-ol

> <PUBCHEM_IUPAC_INCHI>
InChI=1S/C10H16O2/c1-6-3-4-8-7(2)5-12-10(11)9(6)8/h5-6,8-11H,3-4H2,1-2H3/t6-,8-,9-,10-/m1/s1

> <PUBCHEM_IUPAC_INCHIKEY>
OJGPEAXUHQRLNC-PEBGCTIMSA-N

> <PUBCHEM_XLOGP3_AA>
1.9

> <PUBCHEM_EXACT_MASS>
168.11503

> <PUBCHEM_MOLECULAR_FORMULA>
C10H16O2

> <PUBCHEM_MOLECULAR_WEIGHT>
168.23284

> <PUBCHEM_OPENEYE_CAN_SMILES>
CC1CCC2C1C(OC=C2C)O

> <PUBCHEM_OPENEYE_ISO_SMILES>
C[C@@H]1CC[C@H]2[C@@H]1[C@@H](OC=C2C)O

> <PUBCHEM_CACTVS_TPSA>
29.5

> <PUBCHEM_MONOISOTOPIC_WEIGHT>
168.11503

> <PUBCHEM_TOTAL_CHARGE>
0

> <PUBCHEM_HEAVY_ATOM_COUNT>
12

> <PUBCHEM_ATOM_DEF_STEREO_COUNT>
4

> <PUBCHEM_ATOM_UDEF_STEREO_COUNT>
0

> <PUBCHEM_BOND_DEF_STEREO_COUNT>
0

> <PUBCHEM_BOND_UDEF_STEREO_COUNT>
0

> <PUBCHEM_ISOTOPIC_ATOM_COUNT>
0

> <PUBCHEM_COMPONENT_COUNT>
1

> <PUBCHEM_CACTVS_TAUTO_COUNT>
1

> <PUBCHEM_COORDINATE_TYPE>
1
5
255

> <PUBCHEM_BONDANNOTATIONS>
8  2  5
3  13  5
4  14  5
5  10  6

$$$$

