443027
  -OEChem-07051213002D

 52 56  0     1  0  0  0  0  0999 V2000
    2.2408    0.2184    0.0000 O   0  0  0  0  0  0  0  0  0  0  0  0
    8.5528   -2.3961    0.0000 O   0  0  0  0  0  0  0  0  0  0  0  0
    2.8824   -1.3304    0.0000 O   0  0  0  0  0  0  0  0  0  0  0  0
    7.0040   -3.0376    0.0000 O   0  0  0  0  0  0  0  0  0  0  0  0
    4.4156   -1.7451    0.0000 O   0  0  0  0  0  0  0  0  0  0  0  0
    5.6265   -2.2467    0.0000 O   0  0  0  0  0  0  0  0  0  0  0  0
    6.2504    2.2785    0.0000 C   0  0  1  0  0  0  0  0  0  0  0  0
    7.1743    1.8958    0.0000 C   0  0  2  0  0  0  0  0  0  0  0  0
    7.5570    0.9719    0.0000 C   0  0  0  0  0  0  0  0  0  0  0  0
    5.3266    1.8958    0.0000 C   0  0  0  0  0  0  0  0  0  0  0  0
    4.9439    0.9719    0.0000 C   0  0  0  0  0  0  0  0  0  0  0  0
    7.1743    0.0481    0.0000 C   0  0  0  0  0  0  0  0  0  0  0  0
    5.3266    0.0481    0.0000 C   0  0  0  0  0  0  0  0  0  0  0  0
    6.2504   -0.3346    0.0000 C   0  0  0  0  0  0  0  0  0  0  0  0
    7.8814    2.6029    0.0000 C   0  0  0  0  0  0  0  0  0  0  0  0
    6.2504    3.2785    0.0000 C   0  0  0  0  0  0  0  0  0  0  0  0
    3.9134    1.1238    0.0000 C   0  0  0  0  0  0  0  0  0  0  0  0
    8.0104   -0.5732    0.0000 C   0  0  0  0  0  0  0  0  0  0  0  0
    6.0986   -1.3651    0.0000 C   0  0  0  0  0  0  0  0  0  0  0  0
    4.7053   -0.7880    0.0000 C   0  0  0  0  0  0  0  0  0  0  0  0
    3.2729    0.3023    0.0000 C   0  0  0  0  0  0  0  0  0  0  0  0
    7.8824   -1.6070    0.0000 C   0  0  0  0  0  0  0  0  0  0  0  0
    6.9200   -2.0056    0.0000 C   0  0  0  0  0  0  0  0  0  0  0  0
    3.6715   -0.6600    0.0000 C   0  0  0  0  0  0  0  0  0  0  0  0
    8.0110   -3.2785    0.0000 C   0  0  0  0  0  0  0  0  0  0  0  0
    2.0000   -0.7887    0.0000 C   0  0  0  0  0  0  0  0  0  0  0  0
    6.1541   -3.0963    0.0000 C   0  0  0  0  0  0  0  0  0  0  0  0
    3.4419   -1.9729    0.0000 C   0  0  0  0  0  0  0  0  0  0  0  0
    6.7659    2.6230    0.0000 H   0  0  0  0  0  0  0  0  0  0  0  0
    7.7824    1.7749    0.0000 H   0  0  0  0  0  0  0  0  0  0  0  0
    8.0489    0.5945    0.0000 H   0  0  0  0  0  0  0  0  0  0  0  0
    8.0489    1.3494    0.0000 H   0  0  0  0  0  0  0  0  0  0  0  0
    5.2456    2.5105    0.0000 H   0  0  0  0  0  0  0  0  0  0  0  0
    4.7118    1.9767    0.0000 H   0  0  0  0  0  0  0  0  0  0  0  0
    6.8704    3.2785    0.0000 H   0  0  0  0  0  0  0  0  0  0  0  0
    6.2504    3.8985    0.0000 H   0  0  0  0  0  0  0  0  0  0  0  0
    5.6304    3.2785    0.0000 H   0  0  0  0  0  0  0  0  0  0  0  0
    8.3198    2.1645    0.0000 H   0  0  0  0  0  0  0  0  0  0  0  0
    8.3198    3.0413    0.0000 H   0  0  0  0  0  0  0  0  0  0  0  0
    7.4430    3.0413    0.0000 H   0  0  0  0  0  0  0  0  0  0  0  0
    3.6827    1.6993    0.0000 H   0  0  0  0  0  0  0  0  0  0  0  0
    8.5804   -0.3294    0.0000 H   0  0  0  0  0  0  0  0  0  0  0  0
    7.8042   -3.8630    0.0000 H   0  0  0  0  0  0  0  0  0  0  0  0
    8.5705   -3.5456    0.0000 H   0  0  0  0  0  0  0  0  0  0  0  0
    1.4155   -0.5819    0.0000 H   0  0  0  0  0  0  0  0  0  0  0  0
    1.7329   -1.3482    0.0000 H   0  0  0  0  0  0  0  0  0  0  0  0
    3.3007   -1.3692    0.0000 H   0  0  0  0  0  0  0  0  0  0  0  0
    2.8382   -2.1141    0.0000 H   0  0  0  0  0  0  0  0  0  0  0  0
    3.5832   -2.5766    0.0000 H   0  0  0  0  0  0  0  0  0  0  0  0
    5.6274   -3.4234    0.0000 H   0  0  0  0  0  0  0  0  0  0  0  0
    6.4812   -3.6230    0.0000 H   0  0  0  0  0  0  0  0  0  0  0  0
    6.6808   -2.7692    0.0000 H   0  0  0  0  0  0  0  0  0  0  0  0
  1 21  1  0  0  0  0
  1 26  1  0  0  0  0
  2 22  1  0  0  0  0
  2 25  1  0  0  0  0
  3 24  1  0  0  0  0
  3 26  1  0  0  0  0
  4 23  1  0  0  0  0
  4 25  1  0  0  0  0
  5 20  1  0  0  0  0
  5 28  1  0  0  0  0
  6 19  1  0  0  0  0
  6 27  1  0  0  0  0
  7  8  1  0  0  0  0
  7 10  1  0  0  0  0
  7 16  1  1  0  0  0
  7 29  1  0  0  0  0
  8  9  1  0  0  0  0
  8 15  1  1  0  0  0
  8 30  1  0  0  0  0
  9 12  1  0  0  0  0
  9 31  1  0  0  0  0
  9 32  1  0  0  0  0
 10 11  1  0  0  0  0
 10 33  1  0  0  0  0
 10 34  1  0  0  0  0
 11 13  1  0  0  0  0
 11 17  2  0  0  0  0
 12 14  1  0  0  0  0
 12 18  2  0  0  0  0
 13 14  1  0  0  0  0
 13 20  2  0  0  0  0
 14 19  2  0  0  0  0
 15 38  1  0  0  0  0
 15 39  1  0  0  0  0
 15 40  1  0  0  0  0
 16 35  1  0  0  0  0
 16 36  1  0  0  0  0
 16 37  1  0  0  0  0
 17 21  1  0  0  0  0
 17 41  1  0  0  0  0
 18 22  1  0  0  0  0
 18 42  1  0  0  0  0
 19 23  1  0  0  0  0
 20 24  1  0  0  0  0
 21 24  2  0  0  0  0
 22 23  2  0  0  0  0
 25 43  1  0  0  0  0
 25 44  1  0  0  0  0
 26 45  1  0  0  0  0
 26 46  1  0  0  0  0
 27 50  1  0  0  0  0
 27 51  1  0  0  0  0
 27 52  1  0  0  0  0
 28 47  1  0  0  0  0
 28 48  1  0  0  0  0
 28 49  1  0  0  0  0
M  END
> <PUBCHEM_COMPOUND_CID>
443027

> <PUBCHEM_COMPOUND_CANONICALIZED>
1

> <PUBCHEM_CACTVS_COMPLEXITY>
509

> <PUBCHEM_CACTVS_HBOND_ACCEPTOR>
6

> <PUBCHEM_CACTVS_HBOND_DONOR>
0

> <PUBCHEM_CACTVS_ROTATABLE_BOND>
2

> <PUBCHEM_CACTVS_SUBSKEYS>
AAADceB4OAAAAAAAAAAAAAAAAAAAASJAAAAwYAAAAAAYAEgBQAAAGgAAAAAADQSAmAMyDoAABACAAiBCAAACCAAgIAAAiAAGiIgdJyKEMRqgMCIlwBUOqAfA4PwOoAABCAAYQABAAAIQADCAAAAAAAAAAA==

> <PUBCHEM_IUPAC_INCHI>
InChI=1S/C22H24O6/c1-11-5-13-7-15-19(27-9-25-15)21(23-3)17(13)18-14(6-12(11)2)8-16-20(22(18)24-4)28-10-26-16/h7-8,11-12H,5-6,9-10H2,1-4H3/t11-,12+

> <PUBCHEM_IUPAC_INCHIKEY>
HTBWBWWADZJXID-TXEJJXNPSA-N

> <PUBCHEM_XLOGP3_AA>
5

> <PUBCHEM_EXACT_MASS>
384.157288

> <PUBCHEM_MOLECULAR_FORMULA>
C22H24O6

> <PUBCHEM_MOLECULAR_WEIGHT>
384.42236

> <PUBCHEM_OPENEYE_CAN_SMILES>
CC1CC2=CC3=C(C(=C2C4=C(C5=C(C=C4CC1C)OCO5)OC)OC)OCO3

> <PUBCHEM_OPENEYE_ISO_SMILES>
C[C@@H]1CC2=CC3=C(C(=C2C4=C(C5=C(C=C4C[C@@H]1C)OCO5)OC)OC)OCO3

> <PUBCHEM_CACTVS_TPSA>
55.4

> <PUBCHEM_MONOISOTOPIC_WEIGHT>
384.157288

> <PUBCHEM_TOTAL_CHARGE>
0

> <PUBCHEM_HEAVY_ATOM_COUNT>
28

> <PUBCHEM_ATOM_DEF_STEREO_COUNT>
2

> <PUBCHEM_ATOM_UDEF_STEREO_COUNT>
0

> <PUBCHEM_BOND_DEF_STEREO_COUNT>
0

> <PUBCHEM_BOND_UDEF_STEREO_COUNT>
0

> <PUBCHEM_ISOTOPIC_ATOM_COUNT>
0

> <PUBCHEM_COMPONENT_COUNT>
1

> <PUBCHEM_CACTVS_TAUTO_COUNT>
1

> <PUBCHEM_COORDINATE_TYPE>
1
5
255

> <PUBCHEM_BONDANNOTATIONS>
11  13  8
11  17  8
12  14  8
12  18  8
13  20  8
14  19  8
17  21  8
18  22  8
19  23  8
20  24  8
21  24  8
22  23  8
7  16  5
8  15  5

$$$$

