441313
  -OEChem-07051212542D

 74 74  0     1  0  0  0  0  0999 V2000
   10.0395    3.4364    0.0000 O   0  0  0  0  0  0  0  0  0  0  0  0
   10.8339    0.6089    0.0000 O   0  0  0  0  0  0  0  0  0  0  0  0
   10.8339    2.3410    0.0000 O   0  0  0  0  0  0  0  0  0  0  0  0
    7.6787    7.3642    0.0000 O   0  0  0  0  0  0  0  0  0  0  0  0
    9.3251    6.8261    0.0000 O   0  0  0  0  0  0  0  0  0  0  0  0
    8.7503    2.2797    0.0000 N   0  0  0  0  0  0  0  0  0  0  0  0
    8.7038    4.9250    0.0000 N   0  0  0  0  0  0  0  0  0  0  0  0
    2.2690    5.2602    0.0000 N   0  0  0  0  0  0  0  0  0  0  0  0
    7.8041    0.9749    0.0000 C   0  0  2  0  0  0  0  0  0  0  0  0
    7.8041    1.9750    0.0000 C   0  0  2  0  0  0  0  0  0  0  0  0
    8.7503    0.6702    0.0000 C   0  0  0  0  0  0  0  0  0  0  0  0
    9.3339    1.4750    0.0000 C   0  0  1  0  0  0  0  0  0  0  0  0
    6.9380    0.4749    0.0000 C   0  0  0  0  0  0  0  0  0  0  0  0
    6.9380    2.4750    0.0000 C   0  0  0  0  0  0  0  0  0  0  0  0
    6.0720    0.9749    0.0000 C   0  0  0  0  0  0  0  0  0  0  0  0
    6.0720    1.9750    0.0000 C   0  0  0  0  0  0  0  0  0  0  0  0
    9.0610    3.2302    0.0000 C   0  0  0  0  0  0  0  0  0  0  0  0
   10.3339    1.4750    0.0000 C   0  0  0  0  0  0  0  0  0  0  0  0
    8.3931    3.9745    0.0000 C   0  0  2  0  0  0  0  0  0  0  0  0
    7.4146    3.7683    0.0000 C   0  0  0  0  0  0  0  0  0  0  0  0
    8.0359    5.6693    0.0000 C   0  0  1  0  0  0  0  0  0  0  0  0
    7.0574    5.4631    0.0000 C   0  0  0  0  0  0  0  0  0  0  0  0
    8.3466    6.6198    0.0000 C   0  0  0  0  0  0  0  0  0  0  0  0
    6.3896    6.2074    0.0000 C   0  0  0  0  0  0  0  0  0  0  0  0
    5.4111    6.0012    0.0000 C   0  0  0  0  0  0  0  0  0  0  0  0
    7.9894    8.3147    0.0000 C   0  0  0  0  0  0  0  0  0  0  0  0
    7.3216    9.0590    0.0000 C   0  0  0  0  0  0  0  0  0  0  0  0
    1.4030    4.7602    0.0000 C   0  0  0  0  0  0  0  0  0  0  0  0
    0.5369    4.2602    0.0000 C   0  0  0  0  0  0  0  0  0  0  0  0
    0.9030    5.6262    0.0000 C   0  0  0  0  0  0  0  0  0  0  0  0
    1.9030    3.8942    0.0000 C   0  0  0  0  0  0  0  0  0  0  0  0
    7.8940    0.1297    0.0000 H   0  0  0  0  0  0  0  0  0  0  0  0
    7.8940    2.8202    0.0000 H   0  0  0  0  0  0  0  0  0  0  0  0
    8.4992    0.1033    0.0000 H   0  0  0  0  0  0  0  0  0  0  0  0
    9.2877    0.3610    0.0000 H   0  0  0  0  0  0  0  0  0  0  0  0
    9.6156    2.0272    0.0000 H   0  0  0  0  0  0  0  0  0  0  0  0
    6.5395    0.0000    0.0000 H   0  0  0  0  0  0  0  0  0  0  0  0
    7.3366    0.0000    0.0000 H   0  0  0  0  0  0  0  0  0  0  0  0
    7.3366    2.9499    0.0000 H   0  0  0  0  0  0  0  0  0  0  0  0
    6.5395    2.9499    0.0000 H   0  0  0  0  0  0  0  0  0  0  0  0
    5.4614    1.0826    0.0000 H   0  0  0  0  0  0  0  0  0  0  0  0
    5.8600    0.3923    0.0000 H   0  0  0  0  0  0  0  0  0  0  0  0
    5.8600    2.5576    0.0000 H   0  0  0  0  0  0  0  0  0  0  0  0
    5.4614    1.8673    0.0000 H   0  0  0  0  0  0  0  0  0  0  0  0
    7.9790    4.4360    0.0000 H   0  0  0  0  0  0  0  0  0  0  0  0
    9.3104    5.0529    0.0000 H   0  0  0  0  0  0  0  0  0  0  0  0
    7.2867    4.3750    0.0000 H   0  0  0  0  0  0  0  0  0  0  0  0
    6.8079    3.6404    0.0000 H   0  0  0  0  0  0  0  0  0  0  0  0
    7.5424    3.1616    0.0000 H   0  0  0  0  0  0  0  0  0  0  0  0
   11.4539    0.6089    0.0000 H   0  0  0  0  0  0  0  0  0  0  0  0
    8.6426    5.7972    0.0000 H   0  0  0  0  0  0  0  0  0  0  0  0
    6.5311    5.1355    0.0000 H   0  0  0  0  0  0  0  0  0  0  0  0
    7.2887    4.8878    0.0000 H   0  0  0  0  0  0  0  0  0  0  0  0
    6.9159    6.5350    0.0000 H   0  0  0  0  0  0  0  0  0  0  0  0
    6.1583    6.7827    0.0000 H   0  0  0  0  0  0  0  0  0  0  0  0
    5.2832    6.6079    0.0000 H   0  0  0  0  0  0  0  0  0  0  0  0
    4.8044    5.8733    0.0000 H   0  0  0  0  0  0  0  0  0  0  0  0
    5.5389    5.3945    0.0000 H   0  0  0  0  0  0  0  0  0  0  0  0
    8.5363    8.0226    0.0000 H   0  0  0  0  0  0  0  0  0  0  0  0
    8.3720    8.8026    0.0000 H   0  0  0  0  0  0  0  0  0  0  0  0
    7.7830    9.4730    0.0000 H   0  0  0  0  0  0  0  0  0  0  0  0
    6.9075    9.5204    0.0000 H   0  0  0  0  0  0  0  0  0  0  0  0
    6.8601    8.6449    0.0000 H   0  0  0  0  0  0  0  0  0  0  0  0
    0.2269    4.7972    0.0000 H   0  0  0  0  0  0  0  0  0  0  0  0
    0.0000    3.9502    0.0000 H   0  0  0  0  0  0  0  0  0  0  0  0
    0.8469    3.7233    0.0000 H   0  0  0  0  0  0  0  0  0  0  0  0
    1.4399    5.9362    0.0000 H   0  0  0  0  0  0  0  0  0  0  0  0
    0.5930    6.1632    0.0000 H   0  0  0  0  0  0  0  0  0  0  0  0
    0.3660    5.3162    0.0000 H   0  0  0  0  0  0  0  0  0  0  0  0
    1.3660    3.5842    0.0000 H   0  0  0  0  0  0  0  0  0  0  0  0
    2.2130    3.3573    0.0000 H   0  0  0  0  0  0  0  0  0  0  0  0
    2.4399    4.2042    0.0000 H   0  0  0  0  0  0  0  0  0  0  0  0
    2.8059    4.9502    0.0000 H   0  0  0  0  0  0  0  0  0  0  0  0
    2.2690    5.8802    0.0000 H   0  0  0  0  0  0  0  0  0  0  0  0
  1 17  2  0  0  0  0
  2 18  1  0  0  0  0
  2 50  1  0  0  0  0
  3 18  2  0  0  0  0
  4 23  1  0  0  0  0
  4 26  1  0  0  0  0
  5 23  2  0  0  0  0
  6 10  1  0  0  0  0
  6 12  1  0  0  0  0
  6 17  1  0  0  0  0
 19  7  1  6  0  0  0
 21  7  1  1  0  0  0
  7 46  1  0  0  0  0
  8 28  1  0  0  0  0
  8 73  1  0  0  0  0
  8 74  1  0  0  0  0
  9 10  1  0  0  0  0
  9 11  1  0  0  0  0
  9 13  1  0  0  0  0
  9 32  1  1  0  0  0
 10 14  1  0  0  0  0
 10 33  1  1  0  0  0
 11 12  1  0  0  0  0
 11 34  1  0  0  0  0
 11 35  1  0  0  0  0
 12 18  1  6  0  0  0
 12 36  1  0  0  0  0
 13 15  1  0  0  0  0
 13 37  1  0  0  0  0
 13 38  1  0  0  0  0
 14 16  1  0  0  0  0
 14 39  1  0  0  0  0
 14 40  1  0  0  0  0
 15 16  1  0  0  0  0
 15 41  1  0  0  0  0
 15 42  1  0  0  0  0
 16 43  1  0  0  0  0
 16 44  1  0  0  0  0
 17 19  1  0  0  0  0
 19 20  1  0  0  0  0
 19 45  1  0  0  0  0
 20 47  1  0  0  0  0
 20 48  1  0  0  0  0
 20 49  1  0  0  0  0
 21 22  1  0  0  0  0
 21 23  1  0  0  0  0
 21 51  1  0  0  0  0
 22 24  1  0  0  0  0
 22 52  1  0  0  0  0
 22 53  1  0  0  0  0
 24 25  1  0  0  0  0
 24 54  1  0  0  0  0
 24 55  1  0  0  0  0
 25 56  1  0  0  0  0
 25 57  1  0  0  0  0
 25 58  1  0  0  0  0
 26 27  1  0  0  0  0
 26 59  1  0  0  0  0
 26 60  1  0  0  0  0
 27 61  1  0  0  0  0
 27 62  1  0  0  0  0
 27 63  1  0  0  0  0
 28 29  1  0  0  0  0
 28 30  1  0  0  0  0
 28 31  1  0  0  0  0
 29 64  1  0  0  0  0
 29 65  1  0  0  0  0
 29 66  1  0  0  0  0
 30 67  1  0  0  0  0
 30 68  1  0  0  0  0
 30 69  1  0  0  0  0
 31 70  1  0  0  0  0
 31 71  1  0  0  0  0
 31 72  1  0  0  0  0
M  END
> <PUBCHEM_COMPOUND_CID>
441313

> <PUBCHEM_COMPOUND_CANONICALIZED>
1

> <PUBCHEM_CACTVS_COMPLEXITY>
549

> <PUBCHEM_CACTVS_HBOND_ACCEPTOR>
7

> <PUBCHEM_CACTVS_HBOND_DONOR>
3

> <PUBCHEM_CACTVS_ROTATABLE_BOND>
9

> <PUBCHEM_CACTVS_SUBSKEYS>
AAADcfB7OAAAAAAAAAAAAAAAAAAAAWAAAAAwAAAAAAAAAFgAAAAAHgAQCAAADajhgAYCCAPABgAIAAGQGAAAAAAAAAAAAIGIAAACQBIAgCAXQAAEFgCQAAGY2aOeAAAAAAAAAAAAAAAAAAQAAAAAAAAAAA==

> <PUBCHEM_IUPAC_OPENEYE_NAME>
(2S,3aS,7aS)-1-[(2S)-2-[[(1S)-1-ethoxycarbonylbutyl]amino]propanoyl]-2,3,3a,4,5,6,7,7a-octahydroindole-2-carboxylic acid; 2-methylpropan-2-amine

> <PUBCHEM_IUPAC_CAS_NAME>
(2S,3aS,7aS)-1-[(2S)-2-[[(2S)-1-ethoxy-1-oxopentan-2-yl]amino]-1-oxopropyl]-2,3,3a,4,5,6,7,7a-octahydroindole-2-carboxylic acid; 2-methyl-2-propanamine

> <PUBCHEM_IUPAC_NAME>
(2S,3aS,7aS)-1-[(2S)-2-[[(2S)-1-ethoxy-1-oxopentan-2-yl]amino]propanoyl]-2,3,3a,4,5,6,7,7a-octahydroindole-2-carboxylic acid; 2-methylpropan-2-amine

> <PUBCHEM_IUPAC_SYSTEMATIC_NAME>
(2S,3aS,7aS)-1-[(2S)-2-[[(2S)-1-ethoxy-1-oxidanylidene-pentan-2-yl]amino]propanoyl]-2,3,3a,4,5,6,7,7a-octahydroindole-2-carboxylic acid; 2-methylpropan-2-amine

> <PUBCHEM_IUPAC_TRADITIONAL_NAME>
(2S,3aS,7aS)-1-[(2S)-2-[[(1S)-1-carbethoxybutyl]amino]propanoyl]-2,3,3a,4,5,6,7,7a-octahydroindole-2-carboxylic acid; tert-butylamine

> <PUBCHEM_IUPAC_INCHI>
InChI=1S/C19H32N2O5.C4H11N/c1-4-8-14(19(25)26-5-2)20-12(3)17(22)21-15-10-7-6-9-13(15)11-16(21)18(23)24;1-4(2,3)5/h12-16,20H,4-11H2,1-3H3,(H,23,24);5H2,1-3H3/t12-,13-,14-,15-,16-;/m0./s1

> <PUBCHEM_IUPAC_INCHIKEY>
IYNMDWMQHSMDDE-MHXJNQAMSA-N

> <PUBCHEM_EXACT_MASS>
441.320271

> <PUBCHEM_MOLECULAR_FORMULA>
C23H43N3O5

> <PUBCHEM_MOLECULAR_WEIGHT>
441.60462

> <PUBCHEM_OPENEYE_CAN_SMILES>
CCCC(C(=O)OCC)NC(C)C(=O)N1C2CCCCC2CC1C(=O)O.CC(C)(C)N

> <PUBCHEM_OPENEYE_ISO_SMILES>
CCC[C@@H](C(=O)OCC)N[C@@H](C)C(=O)N1[C@H]2CCCC[C@H]2C[C@H]1C(=O)O.CC(C)(C)N

> <PUBCHEM_CACTVS_TPSA>
122

> <PUBCHEM_MONOISOTOPIC_WEIGHT>
441.320271

> <PUBCHEM_TOTAL_CHARGE>
0

> <PUBCHEM_HEAVY_ATOM_COUNT>
31

> <PUBCHEM_ATOM_DEF_STEREO_COUNT>
5

> <PUBCHEM_ATOM_UDEF_STEREO_COUNT>
0

> <PUBCHEM_BOND_DEF_STEREO_COUNT>
0

> <PUBCHEM_BOND_UDEF_STEREO_COUNT>
0

> <PUBCHEM_ISOTOPIC_ATOM_COUNT>
0

> <PUBCHEM_COMPONENT_COUNT>
2

> <PUBCHEM_CACTVS_TAUTO_COUNT>
1

> <PUBCHEM_COORDINATE_TYPE>
1
5
255

> <PUBCHEM_BONDANNOTATIONS>
10  33  5
12  18  6
19  7  6
21  7  5
9  32  5

$$$$

