5282023
  -OEChem-07051213022D

 89 92  0     1  0  0  0  0  0999 V2000
    8.1282   -1.7500    0.0000 O   0  0  0  0  0  0  0  0  0  0  0  0
    8.1282   -0.7500    0.0000 O   0  0  0  0  0  0  0  0  0  0  0  0
    5.5301    0.7500    0.0000 O   0  0  0  0  0  0  0  0  0  0  0  0
    4.6641    4.2500    0.0000 O   0  0  0  0  0  0  0  0  0  0  0  0
    6.5301    1.7500    0.0000 O   0  0  0  0  0  0  0  0  0  0  0  0
   10.7263    3.7500    0.0000 O   0  0  0  0  0  0  0  0  0  0  0  0
    2.0000    3.7742    0.0000 O   0  0  0  0  0  0  0  0  0  0  0  0
    7.2622   -1.2500    0.0000 C   0  0  1  0  0  0  0  0  0  0  0  0
    6.3961   -0.7500    0.0000 C   0  0  0  0  0  0  0  0  0  0  0  0
    8.1282   -2.7500    0.0000 C   0  0  1  0  0  0  0  0  0  0  0  0
    6.3961    0.2500    0.0000 C   0  0  2  0  0  0  0  0  0  0  0  0
    8.1282    0.2500    0.0000 C   0  0  1  0  0  0  0  0  0  0  0  0
    7.2622    0.7500    0.0000 C   0  0  0  0  0  0  0  0  0  0  0  0
    7.2622   -3.2500    0.0000 C   0  0  2  0  0  0  0  0  0  0  0  0
    8.9942   -3.2500    0.0000 C   0  0  3  0  0  0  0  0  0  0  0  0
    6.3961   -1.7500    0.0000 C   0  0  0  0  0  0  0  0  0  0  0  0
    6.3961   -2.7500    0.0000 C   0  0  0  0  0  0  0  0  0  0  0  0
    8.9942    0.7500    0.0000 C   0  0  0  0  0  0  0  0  0  0  0  0
    8.9942   -4.2500    0.0000 C   0  0  0  0  0  0  0  0  0  0  0  0
    7.2622   -4.2500    0.0000 C   0  0  0  0  0  0  0  0  0  0  0  0
    9.8602   -2.7500    0.0000 C   0  0  0  0  0  0  0  0  0  0  0  0
    4.6641    2.2500    0.0000 C   0  0  2  0  0  0  0  0  0  0  0  0
    4.6641    3.2500    0.0000 C   0  0  2  0  0  0  0  0  0  0  0  0
    5.5301    1.7500    0.0000 C   0  0  0  0  0  0  0  0  0  0  0  0
    8.9942    1.7500    0.0000 C   0  0  0  0  0  0  0  0  0  0  0  0
    3.7702    3.7847    0.0000 C   0  0  0  0  0  0  0  0  0  0  0  0
    9.8602   -4.7500    0.0000 C   0  0  0  0  0  0  0  0  0  0  0  0
    3.7702    1.7153    0.0000 C   0  0  0  0  0  0  0  0  0  0  0  0
    5.5301    3.7500    0.0000 C   0  0  0  0  0  0  0  0  0  0  0  0
    9.8602    2.2500    0.0000 C   0  0  0  0  0  0  0  0  0  0  0  0
    2.8641    2.2292    0.0000 C   0  0  0  0  0  0  0  0  0  0  0  0
    2.8641    3.2708    0.0000 C   0  0  0  0  0  0  0  0  0  0  0  0
    9.8602    3.2500    0.0000 C   0  0  2  0  0  0  0  0  0  0  0  0
    8.9942    3.7500    0.0000 C   0  0  2  0  0  0  0  0  0  0  0  0
    6.3961    3.2500    0.0000 C   0  0  0  0  0  0  0  0  0  0  0  0
    5.5301    4.7500    0.0000 C   0  0  0  0  0  0  0  0  0  0  0  0
   10.7263    1.7500    0.0000 C   0  0  0  0  0  0  0  0  0  0  0  0
    2.0000    1.7258    0.0000 C   0  0  0  0  0  0  0  0  0  0  0  0
    8.1282    3.2500    0.0000 C   0  0  0  0  0  0  0  0  0  0  0  0
    7.2622    3.7500    0.0000 C   0  0  0  0  0  0  0  0  0  0  0  0
    8.9942    4.7500    0.0000 C   0  0  0  0  0  0  0  0  0  0  0  0
    5.7856   -0.6423    0.0000 H   0  0  0  0  0  0  0  0  0  0  0  0
    6.1841   -1.3326    0.0000 H   0  0  0  0  0  0  0  0  0  0  0  0
    8.6651   -2.4400    0.0000 H   0  0  0  0  0  0  0  0  0  0  0  0
    5.6600   -0.1750    0.0000 H   0  0  0  0  0  0  0  0  0  0  0  0
    8.8643   -0.1750    0.0000 H   0  0  0  0  0  0  0  0  0  0  0  0
    7.6607    1.2250    0.0000 H   0  0  0  0  0  0  0  0  0  0  0  0
    6.8636    1.2250    0.0000 H   0  0  0  0  0  0  0  0  0  0  0  0
    6.7252   -3.5600    0.0000 H   0  0  0  0  0  0  0  0  0  0  0  0
    8.9942   -2.4000    0.0000 H   0  0  0  0  0  0  0  0  0  0  0  0
    5.8592   -1.4400    0.0000 H   0  0  0  0  0  0  0  0  0  0  0  0
    5.8592   -3.0600    0.0000 H   0  0  0  0  0  0  0  0  0  0  0  0
    9.2063    0.1674    0.0000 H   0  0  0  0  0  0  0  0  0  0  0  0
    9.6048    0.8577    0.0000 H   0  0  0  0  0  0  0  0  0  0  0  0
    8.3836   -4.1423    0.0000 H   0  0  0  0  0  0  0  0  0  0  0  0
    8.7822   -4.8326    0.0000 H   0  0  0  0  0  0  0  0  0  0  0  0
    6.6422   -4.2500    0.0000 H   0  0  0  0  0  0  0  0  0  0  0  0
    7.2622   -4.8700    0.0000 H   0  0  0  0  0  0  0  0  0  0  0  0
    7.8822   -4.2500    0.0000 H   0  0  0  0  0  0  0  0  0  0  0  0
   10.1703   -3.2869    0.0000 H   0  0  0  0  0  0  0  0  0  0  0  0
   10.3972   -2.4400    0.0000 H   0  0  0  0  0  0  0  0  0  0  0  0
    9.5502   -2.2131    0.0000 H   0  0  0  0  0  0  0  0  0  0  0  0
    4.6641    1.4000    0.0000 H   0  0  0  0  0  0  0  0  0  0  0  0
    8.4573    2.0600    0.0000 H   0  0  0  0  0  0  0  0  0  0  0  0
    4.1748    4.2544    0.0000 H   0  0  0  0  0  0  0  0  0  0  0  0
    3.3765    4.2637    0.0000 H   0  0  0  0  0  0  0  0  0  0  0  0
    9.5502   -5.2869    0.0000 H   0  0  0  0  0  0  0  0  0  0  0  0
   10.3972   -5.0600    0.0000 H   0  0  0  0  0  0  0  0  0  0  0  0
   10.1703   -4.2131    0.0000 H   0  0  0  0  0  0  0  0  0  0  0  0
    3.7773    1.0954    0.0000 H   0  0  0  0  0  0  0  0  0  0  0  0
   10.3972    2.9400    0.0000 H   0  0  0  0  0  0  0  0  0  0  0  0
    4.1272    4.5600    0.0000 H   0  0  0  0  0  0  0  0  0  0  0  0
    8.4573    4.0600    0.0000 H   0  0  0  0  0  0  0  0  0  0  0  0
    6.7062    2.7131    0.0000 H   0  0  0  0  0  0  0  0  0  0  0  0
    6.1501    4.7500    0.0000 H   0  0  0  0  0  0  0  0  0  0  0  0
    5.5301    5.3700    0.0000 H   0  0  0  0  0  0  0  0  0  0  0  0
    4.9101    4.7500    0.0000 H   0  0  0  0  0  0  0  0  0  0  0  0
   10.4163    1.2131    0.0000 H   0  0  0  0  0  0  0  0  0  0  0  0
   11.2632    1.4400    0.0000 H   0  0  0  0  0  0  0  0  0  0  0  0
   11.0363    2.2869    0.0000 H   0  0  0  0  0  0  0  0  0  0  0  0
    1.6879    2.2616    0.0000 H   0  0  0  0  0  0  0  0  0  0  0  0
    1.4643    1.4138    0.0000 H   0  0  0  0  0  0  0  0  0  0  0  0
    2.3121    1.1901    0.0000 H   0  0  0  0  0  0  0  0  0  0  0  0
    8.1282    2.6300    0.0000 H   0  0  0  0  0  0  0  0  0  0  0  0
    7.2622    4.3700    0.0000 H   0  0  0  0  0  0  0  0  0  0  0  0
    9.6142    4.7500    0.0000 H   0  0  0  0  0  0  0  0  0  0  0  0
    8.9942    5.3700    0.0000 H   0  0  0  0  0  0  0  0  0  0  0  0
    8.3742    4.7500    0.0000 H   0  0  0  0  0  0  0  0  0  0  0  0
   11.2632    3.4400    0.0000 H   0  0  0  0  0  0  0  0  0  0  0  0
  8  1  1  6  0  0  0
  1 10  1  0  0  0  0
  2  8  1  0  0  0  0
  2 12  1  0  0  0  0
  3 11  1  0  0  0  0
  3 24  1  0  0  0  0
 23  4  1  6  0  0  0
  4 72  1  0  0  0  0
  5 24  2  0  0  0  0
 33  6  1  6  0  0  0
  6 89  1  0  0  0  0
  7 32  2  0  0  0  0
  8  9  1  0  0  0  0
  8 16  1  0  0  0  0
  9 11  1  0  0  0  0
  9 42  1  0  0  0  0
  9 43  1  0  0  0  0
 10 14  1  0  0  0  0
 10 15  1  6  0  0  0
 10 44  1  0  0  0  0
 11 13  1  0  0  0  0
 11 45  1  6  0  0  0
 12 13  1  0  0  0  0
 12 18  1  0  0  0  0
 12 46  1  6  0  0  0
 13 47  1  0  0  0  0
 13 48  1  0  0  0  0
 14 17  1  0  0  0  0
 14 20  1  1  0  0  0
 14 49  1  0  0  0  0
 15 19  1  0  0  0  0
 15 21  1  0  0  0  0
 15 50  1  0  0  0  0
 16 17  2  0  0  0  0
 16 51  1  0  0  0  0
 17 52  1  0  0  0  0
 18 25  1  0  0  0  0
 18 53  1  0  0  0  0
 18 54  1  0  0  0  0
 19 27  1  0  0  0  0
 19 55  1  0  0  0  0
 19 56  1  0  0  0  0
 20 57  1  0  0  0  0
 20 58  1  0  0  0  0
 20 59  1  0  0  0  0
 21 60  1  0  0  0  0
 21 61  1  0  0  0  0
 21 62  1  0  0  0  0
 22 23  1  0  0  0  0
 22 24  1  0  0  0  0
 22 28  1  0  0  0  0
 22 63  1  1  0  0  0
 23 26  1  0  0  0  0
 23 29  1  0  0  0  0
 25 30  2  0  0  0  0
 25 64  1  0  0  0  0
 26 32  1  0  0  0  0
 26 65  1  0  0  0  0
 26 66  1  0  0  0  0
 27 67  1  0  0  0  0
 27 68  1  0  0  0  0
 27 69  1  0  0  0  0
 28 31  2  0  0  0  0
 28 70  1  0  0  0  0
 29 35  2  0  0  0  0
 29 36  1  0  0  0  0
 30 33  1  0  0  0  0
 30 37  1  0  0  0  0
 31 32  1  0  0  0  0
 31 38  1  0  0  0  0
 33 34  1  0  0  0  0
 33 71  1  0  0  0  0
 34 39  1  0  0  0  0
 34 41  1  6  0  0  0
 34 73  1  0  0  0  0
 35 40  1  0  0  0  0
 35 74  1  0  0  0  0
 36 75  1  0  0  0  0
 36 76  1  0  0  0  0
 36 77  1  0  0  0  0
 37 78  1  0  0  0  0
 37 79  1  0  0  0  0
 37 80  1  0  0  0  0
 38 81  1  0  0  0  0
 38 82  1  0  0  0  0
 38 83  1  0  0  0  0
 39 40  2  0  0  0  0
 39 84  1  0  0  0  0
 40 85  1  0  0  0  0
 41 86  1  0  0  0  0
 41 87  1  0  0  0  0
 41 88  1  0  0  0  0
M  END
> <PUBCHEM_COMPOUND_CID>
5282023

> <PUBCHEM_COMPOUND_CANONICALIZED>
1

> <PUBCHEM_CACTVS_COMPLEXITY>
1160

> <PUBCHEM_CACTVS_HBOND_ACCEPTOR>
7

> <PUBCHEM_CACTVS_HBOND_DONOR>
2

> <PUBCHEM_CACTVS_ROTATABLE_BOND>
2

> <PUBCHEM_CACTVS_SUBSKEYS>
AAADcfB8OAAAAAAAAAAAAAAAAAAAAAAAAAAkQIAAAAAAAAAAAAAAGgAACAAADVSggAICCAAABgCIAqDSCAAAAAAgAAAICAEAAEgYFBYAIQAiUAAF4AAMsYOI7uyugAAAAAAAAAAAAAAAAAAAAAAAAAAAAA==

> <PUBCHEM_IUPAC_INCHI>
InChI=1S/C34H48O7/c1-8-20(2)31-23(5)14-15-33(41-31)18-27-17-26(40-33)13-12-22(4)30(36)21(3)10-9-11-25(7)34(38)19-29(35)24(6)16-28(34)32(37)39-27/h9-12,14-16,20-21,23,26-28,30-31,36,38H,8,13,17-19H2,1-7H3/b10-9+,22-12+,25-11+/t20?,21-,23-,26+,27-,28-,30-,31+,33+,34+/m0/s1

> <PUBCHEM_IUPAC_INCHIKEY>
WMIUFIWIPJRLMD-AUPSCVIISA-N

> <PUBCHEM_XLOGP3_AA>
4.6

> <PUBCHEM_EXACT_MASS>
568.340004

> <PUBCHEM_MOLECULAR_FORMULA>
C34H48O7

> <PUBCHEM_MOLECULAR_WEIGHT>
568.74072

> <PUBCHEM_OPENEYE_CAN_SMILES>
CCC(C)C1C(C=CC2(O1)CC3CC(O2)CC=C(C(C(C=CC=C(C4(CC(=O)C(=CC4C(=O)O3)C)O)C)C)O)C)C

> <PUBCHEM_OPENEYE_ISO_SMILES>
CCC(C)[C@@H]1[C@H](C=C[C@@]2(O1)C[C@@H]3C[C@H](O2)C/C=C(/[C@H]([C@H](/C=C/C=C(/[C@@]4(CC(=O)C(=C[C@H]4C(=O)O3)C)O)\C)C)O)\C)C

> <PUBCHEM_CACTVS_TPSA>
102

> <PUBCHEM_MONOISOTOPIC_WEIGHT>
568.340004

> <PUBCHEM_TOTAL_CHARGE>
0

> <PUBCHEM_HEAVY_ATOM_COUNT>
41

> <PUBCHEM_ATOM_DEF_STEREO_COUNT>
9

> <PUBCHEM_ATOM_UDEF_STEREO_COUNT>
1

> <PUBCHEM_BOND_DEF_STEREO_COUNT>
3

> <PUBCHEM_BOND_UDEF_STEREO_COUNT>
0

> <PUBCHEM_ISOTOPIC_ATOM_COUNT>
0

> <PUBCHEM_COMPONENT_COUNT>
1

> <PUBCHEM_CACTVS_TAUTO_COUNT>
7

> <PUBCHEM_COORDINATE_TYPE>
1
5
255

> <PUBCHEM_BONDANNOTATIONS>
8  1  6
10  15  6
11  45  6
12  46  6
14  20  5
15  50  3
22  63  5
34  41  6
23  4  6
33  6  6

$$$$

