10369168
  -OEChem-07051213092D

 96 95  0     1  0  0  0  0  0999 V2000
   16.7224    0.8100    0.0000 O   0  0  0  0  0  0  0  0  0  0  0  0
   14.1244    0.3100    0.0000 O   0  0  0  0  0  0  0  0  0  0  0  0
   17.5885   -0.6900    0.0000 O   0  0  0  0  0  0  0  0  0  0  0  0
   13.2583    1.8100    0.0000 O   0  0  0  0  0  0  0  0  0  0  0  0
   14.9904   -1.1900    0.0000 O   0  0  0  0  0  0  0  0  0  0  0  0
   22.7846    0.3100    0.0000 C   0  0  0  0  0  0  0  0  0  0  0  0
   23.6506    0.8100    0.0000 C   0  0  0  0  0  0  0  0  0  0  0  0
    8.0622    0.8100    0.0000 C   0  0  0  0  0  0  0  0  0  0  0  0
    7.1962    0.3100    0.0000 C   0  0  0  0  0  0  0  0  0  0  0  0
   21.9186    0.8100    0.0000 C   0  0  0  0  0  0  0  0  0  0  0  0
   24.5167    0.3100    0.0000 C   0  0  0  0  0  0  0  0  0  0  0  0
    8.9282    0.3100    0.0000 C   0  0  0  0  0  0  0  0  0  0  0  0
    6.3301    0.8100    0.0000 C   0  0  0  0  0  0  0  0  0  0  0  0
   21.0526    0.3100    0.0000 C   0  0  0  0  0  0  0  0  0  0  0  0
   25.3827    0.8100    0.0000 C   0  0  0  0  0  0  0  0  0  0  0  0
    5.4641    0.3100    0.0000 C   0  0  0  0  0  0  0  0  0  0  0  0
    9.7942    0.8100    0.0000 C   0  0  0  0  0  0  0  0  0  0  0  0
   20.1865    0.8100    0.0000 C   0  0  0  0  0  0  0  0  0  0  0  0
   26.2487    0.3100    0.0000 C   0  0  0  0  0  0  0  0  0  0  0  0
    4.5981    0.8100    0.0000 C   0  0  0  0  0  0  0  0  0  0  0  0
   10.6603    0.3100    0.0000 C   0  0  0  0  0  0  0  0  0  0  0  0
   19.3205    0.3100    0.0000 C   0  0  0  0  0  0  0  0  0  0  0  0
   27.1147    0.8100    0.0000 C   0  0  0  0  0  0  0  0  0  0  0  0
    3.7320    0.3100    0.0000 C   0  0  0  0  0  0  0  0  0  0  0  0
   11.5263    0.8100    0.0000 C   0  0  0  0  0  0  0  0  0  0  0  0
   18.4545    0.8100    0.0000 C   0  0  0  0  0  0  0  0  0  0  0  0
   27.9808    0.3100    0.0000 C   0  0  0  0  0  0  0  0  0  0  0  0
    2.8660    0.8100    0.0000 C   0  0  0  0  0  0  0  0  0  0  0  0
   12.3923    0.3100    0.0000 C   0  0  0  0  0  0  0  0  0  0  0  0
   28.8468    0.8100    0.0000 C   0  0  0  0  0  0  0  0  0  0  0  0
    2.0000    0.3100    0.0000 C   0  0  0  0  0  0  0  0  0  0  0  0
   17.5885    0.3100    0.0000 C   0  0  0  0  0  0  0  0  0  0  0  0
   13.2583    0.8100    0.0000 C   0  0  0  0  0  0  0  0  0  0  0  0
   15.8564    0.3100    0.0000 C   0  0  2  0  0  0  0  0  0  0  0  0
   14.9904    0.8100    0.0000 C   0  0  0  0  0  0  0  0  0  0  0  0
   15.8564   -0.6900    0.0000 C   0  0  0  0  0  0  0  0  0  0  0  0
   22.3861   -0.1649    0.0000 H   0  0  0  0  0  0  0  0  0  0  0  0
   23.1831   -0.1649    0.0000 H   0  0  0  0  0  0  0  0  0  0  0  0
   24.0492    1.2850    0.0000 H   0  0  0  0  0  0  0  0  0  0  0  0
   23.2521    1.2850    0.0000 H   0  0  0  0  0  0  0  0  0  0  0  0
    8.4607    1.2850    0.0000 H   0  0  0  0  0  0  0  0  0  0  0  0
    7.6636    1.2850    0.0000 H   0  0  0  0  0  0  0  0  0  0  0  0
    6.7976   -0.1649    0.0000 H   0  0  0  0  0  0  0  0  0  0  0  0
    7.5947   -0.1649    0.0000 H   0  0  0  0  0  0  0  0  0  0  0  0
   22.3171    1.2850    0.0000 H   0  0  0  0  0  0  0  0  0  0  0  0
   21.5201    1.2850    0.0000 H   0  0  0  0  0  0  0  0  0  0  0  0
   24.1181   -0.1649    0.0000 H   0  0  0  0  0  0  0  0  0  0  0  0
   24.9152   -0.1649    0.0000 H   0  0  0  0  0  0  0  0  0  0  0  0
    8.5297   -0.1649    0.0000 H   0  0  0  0  0  0  0  0  0  0  0  0
    9.3267   -0.1649    0.0000 H   0  0  0  0  0  0  0  0  0  0  0  0
    6.7287    1.2850    0.0000 H   0  0  0  0  0  0  0  0  0  0  0  0
    5.9316    1.2850    0.0000 H   0  0  0  0  0  0  0  0  0  0  0  0
   20.6540   -0.1649    0.0000 H   0  0  0  0  0  0  0  0  0  0  0  0
   21.4511   -0.1649    0.0000 H   0  0  0  0  0  0  0  0  0  0  0  0
   25.7812    1.2850    0.0000 H   0  0  0  0  0  0  0  0  0  0  0  0
   24.9842    1.2850    0.0000 H   0  0  0  0  0  0  0  0  0  0  0  0
    5.0656   -0.1649    0.0000 H   0  0  0  0  0  0  0  0  0  0  0  0
    5.8626   -0.1649    0.0000 H   0  0  0  0  0  0  0  0  0  0  0  0
   10.1928    1.2850    0.0000 H   0  0  0  0  0  0  0  0  0  0  0  0
    9.3957    1.2850    0.0000 H   0  0  0  0  0  0  0  0  0  0  0  0
   20.5851    1.2850    0.0000 H   0  0  0  0  0  0  0  0  0  0  0  0
   19.7880    1.2850    0.0000 H   0  0  0  0  0  0  0  0  0  0  0  0
   25.8502   -0.1649    0.0000 H   0  0  0  0  0  0  0  0  0  0  0  0
   26.6472   -0.1649    0.0000 H   0  0  0  0  0  0  0  0  0  0  0  0
    4.9966    1.2850    0.0000 H   0  0  0  0  0  0  0  0  0  0  0  0
    4.1996    1.2850    0.0000 H   0  0  0  0  0  0  0  0  0  0  0  0
   10.2617   -0.1649    0.0000 H   0  0  0  0  0  0  0  0  0  0  0  0
   11.0588   -0.1649    0.0000 H   0  0  0  0  0  0  0  0  0  0  0  0
   18.9220   -0.1649    0.0000 H   0  0  0  0  0  0  0  0  0  0  0  0
   19.7190   -0.1649    0.0000 H   0  0  0  0  0  0  0  0  0  0  0  0
   27.5133    1.2850    0.0000 H   0  0  0  0  0  0  0  0  0  0  0  0
   26.7162    1.2850    0.0000 H   0  0  0  0  0  0  0  0  0  0  0  0
    3.3335   -0.1649    0.0000 H   0  0  0  0  0  0  0  0  0  0  0  0
    4.1306   -0.1649    0.0000 H   0  0  0  0  0  0  0  0  0  0  0  0
   11.9248    1.2850    0.0000 H   0  0  0  0  0  0  0  0  0  0  0  0
   11.1278    1.2850    0.0000 H   0  0  0  0  0  0  0  0  0  0  0  0
   18.8530    1.2850    0.0000 H   0  0  0  0  0  0  0  0  0  0  0  0
   18.0560    1.2850    0.0000 H   0  0  0  0  0  0  0  0  0  0  0  0
   27.5822   -0.1649    0.0000 H   0  0  0  0  0  0  0  0  0  0  0  0
   28.3793   -0.1649    0.0000 H   0  0  0  0  0  0  0  0  0  0  0  0
    3.2646    1.2850    0.0000 H   0  0  0  0  0  0  0  0  0  0  0  0
    2.4675    1.2850    0.0000 H   0  0  0  0  0  0  0  0  0  0  0  0
   11.9938   -0.1649    0.0000 H   0  0  0  0  0  0  0  0  0  0  0  0
   12.7908   -0.1649    0.0000 H   0  0  0  0  0  0  0  0  0  0  0  0
   29.1568    0.2731    0.0000 H   0  0  0  0  0  0  0  0  0  0  0  0
   29.3837    1.1200    0.0000 H   0  0  0  0  0  0  0  0  0  0  0  0
   28.5368    1.3469    0.0000 H   0  0  0  0  0  0  0  0  0  0  0  0
    1.6900    0.8469    0.0000 H   0  0  0  0  0  0  0  0  0  0  0  0
    1.4631    0.0000    0.0000 H   0  0  0  0  0  0  0  0  0  0  0  0
    2.3100   -0.2269    0.0000 H   0  0  0  0  0  0  0  0  0  0  0  0
   16.3933    0.0000    0.0000 H   0  0  0  0  0  0  0  0  0  0  0  0
   15.3889    1.2850    0.0000 H   0  0  0  0  0  0  0  0  0  0  0  0
   14.5919    1.2850    0.0000 H   0  0  0  0  0  0  0  0  0  0  0  0
   16.0685   -1.2726    0.0000 H   0  0  0  0  0  0  0  0  0  0  0  0
   16.4670   -0.5823    0.0000 H   0  0  0  0  0  0  0  0  0  0  0  0
   14.9904   -1.8100    0.0000 H   0  0  0  0  0  0  0  0  0  0  0  0
  1 32  1  0  0  0  0
 34  1  1  1  0  0  0
  2 33  1  0  0  0  0
  2 35  1  0  0  0  0
  3 32  2  0  0  0  0
  4 33  2  0  0  0  0
  5 36  1  0  0  0  0
  5 96  1  0  0  0  0
  6  7  1  0  0  0  0
  6 10  1  0  0  0  0
  6 37  1  0  0  0  0
  6 38  1  0  0  0  0
  7 11  1  0  0  0  0
  7 39  1  0  0  0  0
  7 40  1  0  0  0  0
  8  9  1  0  0  0  0
  8 12  1  0  0  0  0
  8 41  1  0  0  0  0
  8 42  1  0  0  0  0
  9 13  1  0  0  0  0
  9 43  1  0  0  0  0
  9 44  1  0  0  0  0
 10 14  1  0  0  0  0
 10 45  1  0  0  0  0
 10 46  1  0  0  0  0
 11 15  1  0  0  0  0
 11 47  1  0  0  0  0
 11 48  1  0  0  0  0
 12 17  1  0  0  0  0
 12 49  1  0  0  0  0
 12 50  1  0  0  0  0
 13 16  1  0  0  0  0
 13 51  1  0  0  0  0
 13 52  1  0  0  0  0
 14 18  1  0  0  0  0
 14 53  1  0  0  0  0
 14 54  1  0  0  0  0
 15 19  1  0  0  0  0
 15 55  1  0  0  0  0
 15 56  1  0  0  0  0
 16 20  1  0  0  0  0
 16 57  1  0  0  0  0
 16 58  1  0  0  0  0
 17 21  1  0  0  0  0
 17 59  1  0  0  0  0
 17 60  1  0  0  0  0
 18 22  1  0  0  0  0
 18 61  1  0  0  0  0
 18 62  1  0  0  0  0
 19 23  1  0  0  0  0
 19 63  1  0  0  0  0
 19 64  1  0  0  0  0
 20 24  1  0  0  0  0
 20 65  1  0  0  0  0
 20 66  1  0  0  0  0
 21 25  1  0  0  0  0
 21 67  1  0  0  0  0
 21 68  1  0  0  0  0
 22 26  1  0  0  0  0
 22 69  1  0  0  0  0
 22 70  1  0  0  0  0
 23 27  1  0  0  0  0
 23 71  1  0  0  0  0
 23 72  1  0  0  0  0
 24 28  1  0  0  0  0
 24 73  1  0  0  0  0
 24 74  1  0  0  0  0
 25 29  1  0  0  0  0
 25 75  1  0  0  0  0
 25 76  1  0  0  0  0
 26 32  1  0  0  0  0
 26 77  1  0  0  0  0
 26 78  1  0  0  0  0
 27 30  1  0  0  0  0
 27 79  1  0  0  0  0
 27 80  1  0  0  0  0
 28 31  1  0  0  0  0
 28 81  1  0  0  0  0
 28 82  1  0  0  0  0
 29 33  1  0  0  0  0
 29 83  1  0  0  0  0
 29 84  1  0  0  0  0
 30 85  1  0  0  0  0
 30 86  1  0  0  0  0
 30 87  1  0  0  0  0
 31 88  1  0  0  0  0
 31 89  1  0  0  0  0
 31 90  1  0  0  0  0
 34 35  1  0  0  0  0
 34 36  1  0  0  0  0
 34 91  1  0  0  0  0
 35 92  1  0  0  0  0
 35 93  1  0  0  0  0
 36 94  1  0  0  0  0
 36 95  1  0  0  0  0
M  END
> <PUBCHEM_COMPOUND_CID>
10369168

> <PUBCHEM_COMPOUND_CANONICALIZED>
1

> <PUBCHEM_CACTVS_COMPLEXITY>
480

> <PUBCHEM_CACTVS_HBOND_ACCEPTOR>
5

> <PUBCHEM_CACTVS_HBOND_DONOR>
1

> <PUBCHEM_CACTVS_ROTATABLE_BOND>
30

> <PUBCHEM_CACTVS_SUBSKEYS>
AAADcfB4OAAAAAAAAAAAAAAAAAAAAAAAAAAAAAAAAAAAAAAAAAAAGgAACAAACBSggAICCAAABgAIAACQCAAAAAAAAAAAAAEAAAABEBIAAAACQAAFAAADAAGIyKCAAAAAAAAAAAAAAAAAAAAAAAAAAAAAAA==

> <PUBCHEM_IUPAC_OPENEYE_NAME>
[(2S)-3-hydroxy-2-tetradecanoyloxy-propyl] tetradecanoate

> <PUBCHEM_IUPAC_CAS_NAME>
tetradecanoic acid [(2S)-3-hydroxy-2-(1-oxotetradecoxy)propyl] ester

> <PUBCHEM_IUPAC_NAME>
[(2S)-3-hydroxy-2-tetradecanoyloxypropyl] tetradecanoate

> <PUBCHEM_IUPAC_SYSTEMATIC_NAME>
[(2S)-3-oxidanyl-2-tetradecanoyloxy-propyl] tetradecanoate

> <PUBCHEM_IUPAC_TRADITIONAL_NAME>
myristic acid [(2S)-3-hydroxy-2-tetradecanoyloxy-propyl] ester

> <PUBCHEM_IUPAC_INCHI>
InChI=1S/C31H60O5/c1-3-5-7-9-11-13-15-17-19-21-23-25-30(33)35-28-29(27-32)36-31(34)26-24-22-20-18-16-14-12-10-8-6-4-2/h29,32H,3-28H2,1-2H3/t29-/m0/s1

> <PUBCHEM_IUPAC_INCHIKEY>
JFBCSFJKETUREV-LJAQVGFWSA-N

> <PUBCHEM_XLOGP3_AA>
11.9

> <PUBCHEM_EXACT_MASS>
512.444075

> <PUBCHEM_MOLECULAR_FORMULA>
C31H60O5

> <PUBCHEM_MOLECULAR_WEIGHT>
512.8051

> <PUBCHEM_OPENEYE_CAN_SMILES>
CCCCCCCCCCCCCC(=O)OCC(CO)OC(=O)CCCCCCCCCCCCC

> <PUBCHEM_OPENEYE_ISO_SMILES>
CCCCCCCCCCCCCC(=O)OC[C@H](CO)OC(=O)CCCCCCCCCCCCC

> <PUBCHEM_CACTVS_TPSA>
72.8

> <PUBCHEM_MONOISOTOPIC_WEIGHT>
512.444075

> <PUBCHEM_TOTAL_CHARGE>
0

> <PUBCHEM_HEAVY_ATOM_COUNT>
36

> <PUBCHEM_ATOM_DEF_STEREO_COUNT>
1

> <PUBCHEM_ATOM_UDEF_STEREO_COUNT>
0

> <PUBCHEM_BOND_DEF_STEREO_COUNT>
0

> <PUBCHEM_BOND_UDEF_STEREO_COUNT>
0

> <PUBCHEM_ISOTOPIC_ATOM_COUNT>
0

> <PUBCHEM_COMPONENT_COUNT>
1

> <PUBCHEM_CACTVS_TAUTO_COUNT>
1

> <PUBCHEM_COORDINATE_TYPE>
1
5
255

> <PUBCHEM_BONDANNOTATIONS>
34  1  5

$$$$

