   Color/Form
        WHITE CRYSTALLINE POWDER
   from [1]HSDB

   Taste
        Sweet-sour
   from [2]HSDB

   Melting Point
        169.5 deg C
   from [3]HSDB

   pH
        Fairly strong acid
   from [4]HSDB

   Solubilities

     * 1 G DISSOLVES IN ABOUT 7.5 ML OF WATER, 4 ML OF ALC, 4 ML OF
       PROPYLENE GLYCOL, OR 6 ML OF ACETONE; SLIGHTLY SOL IN CHLOROFORM
       AND INSOL IN HEXANE
     * Very sol in alkali

   from [5]HSDB

   Spectral Properties

     * SADTLER REFERENCE NUMBER: 19478 (IR, PRISM); 9000 (IR, GRATING)
     * INDEX OF REFRACTION @ 20 DEG C: 1.548 (MONOCLINIC), 1.550
       (TRICLINIC), 1.559 (ORTHORHOMBIC); OPTIC SIGN: POS; ELONGATION: POS
       & NEG; AXIAL ANGLE SMALL
     * IR: 889 (Coblentz Society Spectral Collection)

   from [6]HSDB

   Other Chemical/Physical Properties

     * Slowly hydrolyzed by hot water
     * NONHYGROSCOPIC, NONCORROSIVE, PRACTICALLY ODORLESS /NA SALT/
     * Sweetness perceptible @ dilution 1:10,000; pH 10% aq soln 5.5-7.5
       /Na salt/
     * NEUTRAL TO LITMUS /NA & CA SALT/
     * DILUTE AQ SOLN IS ABOUT 30 TIMES SWEETER THAN A SOLN CONTAINING
       EQUAL CONCN BY WT OF SUCROSE /CA & NA SALTS/
     * Practically insol in alcohol, ether, benzene, chloroform; freely
       sol in water /sodium salt/

   from [7]HSDB

   Computed Properties
   Molecular Weight                  179.23732 [g/mol]
   Molecular Formula                 C[6]H[13]NO[3]S
   XLogP3-AA                         0.6
   H-Bond Donor                      2
   H-Bond Acceptor                   4
   Rotatable Bond Count              2
   Exact Mass                        179.061614
   MonoIsotopic Mass                 179.061614
   Topological Polar Surface Area    74.8
   Heavy Atom Count                  11
   Formal Charge                     0
   Complexity                        200
   Isotope Atom Count                0
   Defined Atom Stereocenter Count   0
   Undefined Atom Stereocenter Count 0
   Defined Bond Stereocenter Count   0
   Undefined Bond Stereocenter Count 0
   Covalently-Bonded Unit Count      1
   Feature 3D Acceptor Count         3
   Feature 3D Donor Count            1
   Feature 3D Anion Count            1
   Feature 3D Ring Count             1
   Effective Rotor Count             3.2
   Conformer Sampling RMSD           0.6
   CID Conformer Count               [8]9

References

   1. http://toxnet.nlm.nih.gov/cgi-bin/sis/search/r?dbs+hsdb:@term+@rn+@rel+100-88-9
   2. http://toxnet.nlm.nih.gov/cgi-bin/sis/search/r?dbs+hsdb:@term+@rn+@rel+100-88-9
   3. http://toxnet.nlm.nih.gov/cgi-bin/sis/search/r?dbs+hsdb:@term+@rn+@rel+100-88-9
   4. http://toxnet.nlm.nih.gov/cgi-bin/sis/search/r?dbs+hsdb:@term+@rn+@rel+100-88-9
   5. http://toxnet.nlm.nih.gov/cgi-bin/sis/search/r?dbs+hsdb:@term+@rn+@rel+100-88-9
   6. http://toxnet.nlm.nih.gov/cgi-bin/sis/search/r?dbs+hsdb:@term+@rn+@rel+100-88-9
   7. http://toxnet.nlm.nih.gov/cgi-bin/sis/search/r?dbs+hsdb:@term+@rn+@rel+100-88-9
   8. http://pubchem.ncbi.nlm.nih.gov/vw3d/vw3d.cgi?cid=7533
