   Color/Form

     * Solid
     * Yellow powder

   from [1]HSDB

   Melting Point
        90 deg C
   from [2]HSDB

   Octanol/Water Partition Coefficient
        log Kow = 2.83
   from [3]HSDB

   Solubilities

     * Soluble in ethanol
     * Freely soluble in chloroform; soluble in acetone.
     * Solubility in water, 0.1N NaOH, 0.1N HCl, or 10% ethanol: <0.05
       mg/mL; in absolute ethanol: 70 mg/mL
     * In water, 111 mg/L at 25 deg C (est)

   from [4]HSDB

   Vapor Pressure
        1.01X10-5 mm Hg at 25 deg C (est)
   from [5]HSDB

   Other Chemical/Physical Properties

     * Henry's Law constant = 1.9X10-10 atm-cu m/mole at 25 deg C (est)
     * Hydroxyl radical reaction rate constant = 2.2X10-11 cu
       cm/molecule-sec at 25 deg C (est)

   from [6]HSDB

   Computed Properties
   Molecular Weight                  233.69524 [g/mol]
   Molecular Formula                 C[9]H[16]ClN[3]O[2]
   XLogP3                            2.8
   H-Bond Donor                      1
   H-Bond Acceptor                   3
   Rotatable Bond Count              3
   Tautomer Count                    2
   Exact Mass                        233.093104
   MonoIsotopic Mass                 233.093104
   Topological Polar Surface Area    61.8
   Heavy Atom Count                  15
   Formal Charge                     0
   Complexity                        219
   Isotope Atom Count                0
   Defined Atom Stereocenter Count   0
   Undefined Atom Stereocenter Count 0
   Defined Bond Stereocenter Count   0
   Undefined Bond Stereocenter Count 0
   Covalently-Bonded Unit Count      1
   Feature 3D Acceptor Count         1
   Feature 3D Donor Count            1
   Feature 3D Ring Count             1
   Effective Rotor Count             7.2
   Conformer Sampling RMSD           0.8
   CID Conformer Count               [7]72

References

   1. http://toxnet.nlm.nih.gov/cgi-bin/sis/search/r?dbs+hsdb:@term+@rn+@rel+13010-47-4
   2. http://toxnet.nlm.nih.gov/cgi-bin/sis/search/r?dbs+hsdb:@term+@rn+@rel+13010-47-4
   3. http://toxnet.nlm.nih.gov/cgi-bin/sis/search/r?dbs+hsdb:@term+@rn+@rel+13010-47-4
   4. http://toxnet.nlm.nih.gov/cgi-bin/sis/search/r?dbs+hsdb:@term+@rn+@rel+13010-47-4
   5. http://toxnet.nlm.nih.gov/cgi-bin/sis/search/r?dbs+hsdb:@term+@rn+@rel+13010-47-4
   6. http://toxnet.nlm.nih.gov/cgi-bin/sis/search/r?dbs+hsdb:@term+@rn+@rel+13010-47-4
   7. http://pubchem.ncbi.nlm.nih.gov/vw3d/vw3d.cgi?cid=3950
