71365
  -OEChem-07051213102D

 39 40  0     1  0  0  0  0  0999 V2000
    9.6813    1.0715    0.0000 S   0  0  0  0  0  0  0  0  0  0  0  0
    4.3778    1.6701    0.0000 S   0  0  0  0  0  0  0  0  0  0  0  0
    7.0163   -0.9502    0.0000 O   0  0  0  0  0  0  0  0  0  0  0  0
    9.3212   -2.2407    0.0000 O   0  0  0  0  0  0  0  0  0  0  0  0
   10.9685   -1.7055    0.0000 O   0  0  0  0  0  0  0  0  0  0  0  0
    5.7891    0.2530    0.0000 O   0  0  0  0  0  0  0  0  0  0  0  0
    8.7303   -0.2375    0.0000 N   0  0  0  0  0  0  0  0  0  0  0  0
    7.0163    1.4752    0.0000 N   0  0  0  0  0  0  0  0  0  0  0  0
    8.7303    0.7625    0.0000 C   0  0  1  0  0  0  0  0  0  0  0  0
   10.2691    0.2625    0.0000 C   0  0  0  0  0  0  0  0  0  0  0  0
    9.6813   -0.5465    0.0000 C   0  0  2  0  0  0  0  0  0  0  0  0
    7.7220    0.7666    0.0000 C   0  0  1  0  0  0  0  0  0  0  0  0
    7.7220   -0.2416    0.0000 C   0  0  0  0  0  0  0  0  0  0  0  0
   11.0781    0.8503    0.0000 C   0  0  0  0  0  0  0  0  0  0  0  0
   11.0781   -0.3253    0.0000 C   0  0  0  0  0  0  0  0  0  0  0  0
    9.9903   -1.4976    0.0000 C   0  0  0  0  0  0  0  0  0  0  0  0
    6.0499    1.2184    0.0000 C   0  0  0  0  0  0  0  0  0  0  0  0
    5.3442    1.9269    0.0000 C   0  0  0  0  0  0  0  0  0  0  0  0
    3.6721    2.3786    0.0000 C   0  0  0  0  0  0  0  0  0  0  0  0
    2.7056    2.1218    0.0000 C   0  0  0  0  0  0  0  0  0  0  0  0
    2.0000    2.8304    0.0000 C   0  0  0  0  0  0  0  0  0  0  0  0
    8.5990    1.6023    0.0000 H   0  0  0  0  0  0  0  0  0  0  0  0
    9.2429   -0.9849    0.0000 H   0  0  0  0  0  0  0  0  0  0  0  0
    7.1489    0.5300    0.0000 H   0  0  0  0  0  0  0  0  0  0  0  0
   11.4425    0.3487    0.0000 H   0  0  0  0  0  0  0  0  0  0  0  0
   11.5797    1.2147    0.0000 H   0  0  0  0  0  0  0  0  0  0  0  0
   10.7137    1.3519    0.0000 H   0  0  0  0  0  0  0  0  0  0  0  0
   10.7137   -0.8269    0.0000 H   0  0  0  0  0  0  0  0  0  0  0  0
   11.5797   -0.6897    0.0000 H   0  0  0  0  0  0  0  0  0  0  0  0
   11.4425    0.1763    0.0000 H   0  0  0  0  0  0  0  0  0  0  0  0
    7.1780    2.0737    0.0000 H   0  0  0  0  0  0  0  0  0  0  0  0
    9.5128   -2.8304    0.0000 H   0  0  0  0  0  0  0  0  0  0  0  0
    5.8528    2.2815    0.0000 H   0  0  0  0  0  0  0  0  0  0  0  0
    5.0834    2.4894    0.0000 H   0  0  0  0  0  0  0  0  0  0  0  0
    4.1807    2.7332    0.0000 H   0  0  0  0  0  0  0  0  0  0  0  0
    3.4112    2.9411    0.0000 H   0  0  0  0  0  0  0  0  0  0  0  0
    2.5440    1.5233    0.0000 H   0  0  0  0  0  0  0  0  0  0  0  0
    2.1617    3.4289    0.0000 H   0  0  0  0  0  0  0  0  0  0  0  0
    1.4008    2.6711    0.0000 H   0  0  0  0  0  0  0  0  0  0  0  0
  1  9  1  0  0  0  0
  1 10  1  0  0  0  0
  2 18  1  0  0  0  0
  2 19  1  0  0  0  0
  3 13  2  0  0  0  0
  4 16  1  0  0  0  0
  4 32  1  0  0  0  0
  5 16  2  0  0  0  0
  6 17  2  0  0  0  0
  7  9  1  0  0  0  0
  7 11  1  0  0  0  0
  7 13  1  0  0  0  0
 12  8  1  1  0  0  0
  8 17  1  0  0  0  0
  8 31  1  0  0  0  0
  9 12  1  0  0  0  0
  9 22  1  6  0  0  0
 10 11  1  0  0  0  0
 10 14  1  0  0  0  0
 10 15  1  0  0  0  0
 11 16  1  6  0  0  0
 11 23  1  0  0  0  0
 12 13  1  0  0  0  0
 12 24  1  0  0  0  0
 14 25  1  0  0  0  0
 14 26  1  0  0  0  0
 14 27  1  0  0  0  0
 15 28  1  0  0  0  0
 15 29  1  0  0  0  0
 15 30  1  0  0  0  0
 17 18  1  0  0  0  0
 18 33  1  0  0  0  0
 18 34  1  0  0  0  0
 19 20  1  0  0  0  0
 19 35  1  0  0  0  0
 19 36  1  0  0  0  0
 20 21  2  0  0  0  0
 20 37  1  0  0  0  0
 21 38  1  0  0  0  0
 21 39  1  0  0  0  0
M  END
> <PUBCHEM_COMPOUND_CID>
71365

> <PUBCHEM_COMPOUND_CANONICALIZED>
1

> <PUBCHEM_CACTVS_COMPLEXITY>
495

> <PUBCHEM_CACTVS_HBOND_ACCEPTOR>
6

> <PUBCHEM_CACTVS_HBOND_DONOR>
2

> <PUBCHEM_CACTVS_ROTATABLE_BOND>
6

> <PUBCHEM_CACTVS_SUBSKEYS>
AAADceBzOABgAAAAAAAAAAAAAABYAWAAAAAAAAAABYAAAAAAAAAAHgQQCAAADCjFwASCCAPAAgiIACHSGAAAAABAABAIAIGIAAACQBggASAUQAAEFgCwAAAAAAAIAAAAAAAAAAAAAAAAAAAAAAAAAAAAAA==

> <PUBCHEM_IUPAC_OPENEYE_NAME>
(2S,5R,6R)-6-[(2-allylsulfanylacetyl)amino]-3,3-dimethyl-7-oxo-4-thia-1-azabicyclo[3.2.0]heptane-2-carboxylic acid

> <PUBCHEM_IUPAC_CAS_NAME>
(2S,5R,6R)-3,3-dimethyl-7-oxo-6-[[1-oxo-2-(prop-2-enylthio)ethyl]amino]-4-thia-1-azabicyclo[3.2.0]heptane-2-carboxylic acid

> <PUBCHEM_IUPAC_NAME>
(2S,5R,6R)-3,3-dimethyl-7-oxo-6-[(2-prop-2-enylsulfanylacetyl)amino]-4-thia-1-azabicyclo[3.2.0]heptane-2-carboxylic acid

> <PUBCHEM_IUPAC_SYSTEMATIC_NAME>
(2S,5R,6R)-3,3-dimethyl-7-oxidanylidene-6-(2-prop-2-enylsulfanylethanoylamino)-4-thia-1-azabicyclo[3.2.0]heptane-2-carboxylic acid

> <PUBCHEM_IUPAC_TRADITIONAL_NAME>
(2S,5R,6R)-6-[[2-(allylthio)acetyl]amino]-7-keto-3,3-dimethyl-4-thia-1-azabicyclo[3.2.0]heptane-2-carboxylic acid

> <PUBCHEM_IUPAC_INCHI>
InChI=1S/C13H18N2O4S2/c1-4-5-20-6-7(16)14-8-10(17)15-9(12(18)19)13(2,3)21-11(8)15/h4,8-9,11H,1,5-6H2,2-3H3,(H,14,16)(H,18,19)/t8-,9+,11-/m1/s1

> <PUBCHEM_IUPAC_INCHIKEY>
QULKGELYPOJSLP-WCABBAIRSA-N

> <PUBCHEM_XLOGP3>
1.8

> <PUBCHEM_EXACT_MASS>
330.070799

> <PUBCHEM_MOLECULAR_FORMULA>
C13H18N2O4S2

> <PUBCHEM_MOLECULAR_WEIGHT>
330.42302

> <PUBCHEM_OPENEYE_CAN_SMILES>
CC1(C(N2C(S1)C(C2=O)NC(=O)CSCC=C)C(=O)O)C

> <PUBCHEM_OPENEYE_ISO_SMILES>
CC1([C@@H](N2[C@H](S1)[C@@H](C2=O)NC(=O)CSCC=C)C(=O)O)C

> <PUBCHEM_CACTVS_TPSA>
137

> <PUBCHEM_MONOISOTOPIC_WEIGHT>
330.070799

> <PUBCHEM_TOTAL_CHARGE>
0

> <PUBCHEM_HEAVY_ATOM_COUNT>
21

> <PUBCHEM_ATOM_DEF_STEREO_COUNT>
3

> <PUBCHEM_ATOM_UDEF_STEREO_COUNT>
0

> <PUBCHEM_BOND_DEF_STEREO_COUNT>
0

> <PUBCHEM_BOND_UDEF_STEREO_COUNT>
0

> <PUBCHEM_ISOTOPIC_ATOM_COUNT>
0

> <PUBCHEM_COMPONENT_COUNT>
1

> <PUBCHEM_CACTVS_TAUTO_COUNT>
4

> <PUBCHEM_COORDINATE_TYPE>
1
5
255

> <PUBCHEM_BONDANNOTATIONS>
11  16  6
12  8  5
9  22  6

$$$$

