   Color/Form
        Colourless crystals.
   from [1]HSDB

   Odor
        Mercaptan-like odor.
   from [2]HSDB

   Boiling Point
        Decomposes on distillation
   from [3]HSDB

   Melting Point
        33.4 deg C
   from [4]HSDB

   Density/Specific Gravity
        1.231 (20 deg C)
   from [5]HSDB

   Octanol/Water Partition Coefficient
        log Kow = 2.04
   from [6]HSDB

   Solubilities

     * In dichloromethane, isopropanol and toluene >200, hexane 5-10 (all
       in g/l, 20 deg C).
     * In water, 1.82 g/l at 20 deg C

   from [7]HSDB

   Vapor Pressure
        0.94 mPa (7.1X10-6 mm Hg) at 25 deg C
   from [8]HSDB

   Other Chemical/Physical Properties
        Yellow oil /Technical/
   from [9]HSDB

   Computed Properties
   Molecular Weight                  225.3073 [g/mol]
   Molecular Formula                 C[11]H[15]NO[2]S
   XLogP3                            1.9
   H-Bond Donor                      1
   H-Bond Acceptor                   3
   Rotatable Bond Count              5
   Tautomer Count                    2
   Exact Mass                        225.08235
   MonoIsotopic Mass                 225.08235
   Topological Polar Surface Area    63.6
   Heavy Atom Count                  15
   Formal Charge                     0
   Complexity                        199
   Isotope Atom Count                0
   Defined Atom Stereocenter Count   0
   Undefined Atom Stereocenter Count 0
   Defined Bond Stereocenter Count   0
   Undefined Bond Stereocenter Count 0
   Covalently-Bonded Unit Count      1
   Feature 3D Acceptor Count         1
   Feature 3D Donor Count            1
   Feature 3D Hydrophobe Count       1
   Feature 3D Ring Count             1
   Effective Rotor Count             6
   Conformer Sampling RMSD           0.8
   CID Conformer Count               [10]77

References

   1. http://toxnet.nlm.nih.gov/cgi-bin/sis/search/r?dbs+hsdb:@term+@rn+@rel+29973-13-5
   2. http://toxnet.nlm.nih.gov/cgi-bin/sis/search/r?dbs+hsdb:@term+@rn+@rel+29973-13-5
   3. http://toxnet.nlm.nih.gov/cgi-bin/sis/search/r?dbs+hsdb:@term+@rn+@rel+29973-13-5
   4. http://toxnet.nlm.nih.gov/cgi-bin/sis/search/r?dbs+hsdb:@term+@rn+@rel+29973-13-5
   5. http://toxnet.nlm.nih.gov/cgi-bin/sis/search/r?dbs+hsdb:@term+@rn+@rel+29973-13-5
   6. http://toxnet.nlm.nih.gov/cgi-bin/sis/search/r?dbs+hsdb:@term+@rn+@rel+29973-13-5
   7. http://toxnet.nlm.nih.gov/cgi-bin/sis/search/r?dbs+hsdb:@term+@rn+@rel+29973-13-5
   8. http://toxnet.nlm.nih.gov/cgi-bin/sis/search/r?dbs+hsdb:@term+@rn+@rel+29973-13-5
   9. http://toxnet.nlm.nih.gov/cgi-bin/sis/search/r?dbs+hsdb:@term+@rn+@rel+29973-13-5
  10. http://pubchem.ncbi.nlm.nih.gov/vw3d/vw3d.cgi?cid=34766
