53262310
  -OEChem-07051213152D

 60 61  0     1  0  0  0  0  0999 V2000
    3.4030   -0.0950    0.0000 P   0  0  0  0  0  0  0  0  0  0  0  0
    8.5991    0.9050    0.0000 O   0  0  0  0  0  0  0  0  0  0  0  0
    7.7331   -1.5950    0.0000 O   0  0  0  0  0  0  0  0  0  0  0  0
   10.3312    0.9050    0.0000 O   0  0  0  0  0  0  0  0  0  0  0  0
    6.8671   -0.0950    0.0000 O   0  0  0  0  0  0  0  0  0  0  0  0
   10.3312   -0.0950    0.0000 O   0  0  0  0  0  0  0  0  0  0  0  0
   10.3312   -2.0950    0.0000 O   0  0  0  0  0  0  0  0  0  0  0  0
    8.5991    2.9050    0.0000 O   0  0  0  0  0  0  0  0  0  0  0  0
   10.3312    3.9050    0.0000 O   0  0  0  0  0  0  0  0  0  0  0  0
   12.0632    2.9050    0.0000 O   0  0  0  0  0  0  0  0  0  0  0  0
    7.7331   -3.5950    0.0000 O   0  0  0  0  0  0  0  0  0  0  0  0
   12.9292    1.4050    0.0000 O   0  0  0  0  0  0  0  0  0  0  0  0
    4.2690   -0.5950    0.0000 O   0  0  0  0  0  0  0  0  0  0  0  0
    5.1350   -2.0950    0.0000 O   0  0  0  0  0  0  0  0  0  0  0  0
    6.8671   -2.0950    0.0000 O   0  0  0  0  0  0  0  0  0  0  0  0
    2.5369    0.4050    0.0000 O   0  0  0  0  0  0  0  0  0  0  0  0
    2.9030   -0.9610    0.0000 O   0  0  0  0  0  0  0  0  0  0  0  0
    3.9030    0.7710    0.0000 O   0  0  0  0  0  0  0  0  0  0  0  0
    8.5991   -0.0950    0.0000 C   0  0  2  0  0  0  0  0  0  0  0  0
    9.4651   -0.5950    0.0000 C   0  0  2  0  0  0  0  0  0  0  0  0
    9.4651   -1.5950    0.0000 C   0  0  1  0  0  0  0  0  0  0  0  0
    9.4651    1.4050    0.0000 C   0  0  1  0  0  0  0  0  0  0  0  0
    7.7331   -0.5950    0.0000 C   0  0  2  0  0  0  0  0  0  0  0  0
    9.4651    2.4050    0.0000 C   0  0  2  0  0  0  0  0  0  0  0  0
    8.5991   -2.0950    0.0000 C   0  0  1  0  0  0  0  0  0  0  0  0
   10.3312    2.9050    0.0000 C   0  0  2  0  0  0  0  0  0  0  0  0
   11.1972    2.4050    0.0000 C   0  0  1  0  0  0  0  0  0  0  0  0
   11.1972    1.4050    0.0000 C   0  0  1  0  0  0  0  0  0  0  0  0
    8.5991   -3.0950    0.0000 C   0  0  0  0  0  0  0  0  0  0  0  0
   12.0632    0.9050    0.0000 C   0  0  0  0  0  0  0  0  0  0  0  0
    6.0010   -0.5950    0.0000 C   0  0  2  0  0  0  0  0  0  0  0  0
    5.1350   -0.0950    0.0000 C   0  0  0  0  0  0  0  0  0  0  0  0
    6.0010   -1.5950    0.0000 C   0  0  0  0  0  0  0  0  0  0  0  0
    8.0622    0.2150    0.0000 H   0  0  0  0  0  0  0  0  0  0  0  0
   10.0021   -0.9050    0.0000 H   0  0  0  0  0  0  0  0  0  0  0  0
   10.0021   -1.2850    0.0000 H   0  0  0  0  0  0  0  0  0  0  0  0
    9.4651    0.7850    0.0000 H   0  0  0  0  0  0  0  0  0  0  0  0
    7.7331    0.0250    0.0000 H   0  0  0  0  0  0  0  0  0  0  0  0
    9.4651    3.0250    0.0000 H   0  0  0  0  0  0  0  0  0  0  0  0
    8.0622   -2.4050    0.0000 H   0  0  0  0  0  0  0  0  0  0  0  0
   10.8681    3.2150    0.0000 H   0  0  0  0  0  0  0  0  0  0  0  0
   11.1972    3.0250    0.0000 H   0  0  0  0  0  0  0  0  0  0  0  0
   11.1972    0.7850    0.0000 H   0  0  0  0  0  0  0  0  0  0  0  0
    8.8112   -3.6776    0.0000 H   0  0  0  0  0  0  0  0  0  0  0  0
    9.2097   -2.9873    0.0000 H   0  0  0  0  0  0  0  0  0  0  0  0
   11.6647    0.4301    0.0000 H   0  0  0  0  0  0  0  0  0  0  0  0
   12.4617    0.4301    0.0000 H   0  0  0  0  0  0  0  0  0  0  0  0
   10.8681   -0.4050    0.0000 H   0  0  0  0  0  0  0  0  0  0  0  0
   10.3312   -2.7150    0.0000 H   0  0  0  0  0  0  0  0  0  0  0  0
    8.5991    3.5250    0.0000 H   0  0  0  0  0  0  0  0  0  0  0  0
    6.5380   -0.9050    0.0000 H   0  0  0  0  0  0  0  0  0  0  0  0
   10.8681    4.2150    0.0000 H   0  0  0  0  0  0  0  0  0  0  0  0
   12.0632    3.5250    0.0000 H   0  0  0  0  0  0  0  0  0  0  0  0
    5.5335    0.3799    0.0000 H   0  0  0  0  0  0  0  0  0  0  0  0
    4.7365    0.3799    0.0000 H   0  0  0  0  0  0  0  0  0  0  0  0
    7.7331   -4.2150    0.0000 H   0  0  0  0  0  0  0  0  0  0  0  0
   13.4662    1.0950    0.0000 H   0  0  0  0  0  0  0  0  0  0  0  0
    5.1350   -2.7150    0.0000 H   0  0  0  0  0  0  0  0  0  0  0  0
    2.0000    0.0950    0.0000 H   0  0  0  0  0  0  0  0  0  0  0  0
    2.2830   -0.9610    0.0000 H   0  0  0  0  0  0  0  0  0  0  0  0
  1 13  1  0  0  0  0
  1 16  1  0  0  0  0
  1 17  1  0  0  0  0
  1 18  2  0  0  0  0
 19  2  1  6  0  0  0
 22  2  1  6  0  0  0
  3 23  1  0  0  0  0
  3 25  1  0  0  0  0
  4 22  1  0  0  0  0
  4 28  1  0  0  0  0
 23  5  1  6  0  0  0
 31  5  1  1  0  0  0
 20  6  1  1  0  0  0
  6 48  1  0  0  0  0
 21  7  1  6  0  0  0
  7 49  1  0  0  0  0
 24  8  1  1  0  0  0
  8 50  1  0  0  0  0
 26  9  1  1  0  0  0
  9 52  1  0  0  0  0
 27 10  1  6  0  0  0
 10 53  1  0  0  0  0
 11 29  1  0  0  0  0
 11 56  1  0  0  0  0
 12 30  1  0  0  0  0
 12 57  1  0  0  0  0
 13 32  1  0  0  0  0
 14 33  1  0  0  0  0
 14 58  1  0  0  0  0
 15 33  2  0  0  0  0
 16 59  1  0  0  0  0
 17 60  1  0  0  0  0
 19 20  1  0  0  0  0
 19 23  1  0  0  0  0
 19 34  1  0  0  0  0
 20 21  1  0  0  0  0
 20 35  1  0  0  0  0
 21 25  1  0  0  0  0
 21 36  1  0  0  0  0
 22 24  1  0  0  0  0
 22 37  1  0  0  0  0
 23 38  1  0  0  0  0
 24 26  1  0  0  0  0
 24 39  1  0  0  0  0
 25 29  1  1  0  0  0
 25 40  1  0  0  0  0
 26 27  1  0  0  0  0
 26 41  1  0  0  0  0
 27 28  1  0  0  0  0
 27 42  1  0  0  0  0
 28 30  1  1  0  0  0
 28 43  1  0  0  0  0
 29 44  1  0  0  0  0
 29 45  1  0  0  0  0
 30 46  1  0  0  0  0
 30 47  1  0  0  0  0
 31 32  1  0  0  0  0
 31 33  1  0  0  0  0
 31 51  1  0  0  0  0
 32 54  1  0  0  0  0
 32 55  1  0  0  0  0
M  END
> <PUBCHEM_COMPOUND_CID>
53262310

> <PUBCHEM_COMPOUND_CANONICALIZED>
1

> <PUBCHEM_CACTVS_COMPLEXITY>
687

> <PUBCHEM_CACTVS_HBOND_ACCEPTOR>
17

> <PUBCHEM_CACTVS_HBOND_DONOR>
10

> <PUBCHEM_CACTVS_ROTATABLE_BOND>
10

> <PUBCHEM_CACTVS_SUBSKEYS>
AAADceBwPgIAAAAAAAAAAAAAAAAAAAAAAAAkSAAAAAAAAAAAAAAAGgAACCAACBSwgAMACAAABxAIQACQCIIAAAAAAAAAAAFAAAAREAYAAAQiQAAFIAAHAAHAYAwAAAAAAAAAAAAAAAAAAAAAAAAAAAAAAA==

> <PUBCHEM_IUPAC_OPENEYE_NAME>
(2R)-2-[(2R,3R,4S,5S,6R)-4,5-dihydroxy-6-(hydroxymethyl)-3-[(2R,3S,4S,5S,6R)-3,4,5-trihydroxy-6-(hydroxymethyl)tetrahydropyran-2-yl]oxy-tetrahydropyran-2-yl]oxy-3-phosphonooxy-propanoic acid

> <PUBCHEM_IUPAC_CAS_NAME>
(2R)-2-[[(2R,3R,4S,5S,6R)-4,5-dihydroxy-6-(hydroxymethyl)-3-[[(2R,3S,4S,5S,6R)-3,4,5-trihydroxy-6-(hydroxymethyl)-2-oxanyl]oxy]-2-oxanyl]oxy]-3-phosphonooxypropanoic acid

> <PUBCHEM_IUPAC_NAME>
(2R)-2-[(2R,3R,4S,5S,6R)-4,5-dihydroxy-6-(hydroxymethyl)-3-[(2R,3S,4S,5S,6R)-3,4,5-trihydroxy-6-(hydroxymethyl)oxan-2-yl]oxyoxan-2-yl]oxy-3-phosphonooxypropanoic acid

> <PUBCHEM_IUPAC_SYSTEMATIC_NAME>
(2R)-2-[(2R,3R,4S,5S,6R)-6-(hydroxymethyl)-3-[(2R,3S,4S,5S,6R)-6-(hydroxymethyl)-3,4,5-tris(oxidanyl)oxan-2-yl]oxy-4,5-bis(oxidanyl)oxan-2-yl]oxy-3-phosphonooxy-propanoic acid

> <PUBCHEM_IUPAC_TRADITIONAL_NAME>
(2R)-2-[(2R,3R,4S,5S,6R)-4,5-dihydroxy-6-methylol-3-[(2R,3S,4S,5S,6R)-3,4,5-trihydroxy-6-methylol-tetrahydropyran-2-yl]oxy-tetrahydropyran-2-yl]oxy-3-phosphonooxy-propionic acid

> <PUBCHEM_IUPAC_INCHI>
InChI=1S/C15H27O17P/c16-1-4-7(18)9(20)11(22)14(29-4)32-12-10(21)8(19)5(2-17)30-15(12)31-6(13(23)24)3-28-33(25,26)27/h4-12,14-22H,1-3H2,(H,23,24)(H2,25,26,27)/t4-,5-,6-,7-,8-,9+,10+,11+,12-,14-,15-/m1/s1

> <PUBCHEM_IUPAC_INCHIKEY>
JGKAZLJSKYSZED-MQZSKFSESA-N

> <PUBCHEM_XLOGP3_AA>
-5.8

> <PUBCHEM_EXACT_MASS>
510.098586

> <PUBCHEM_MOLECULAR_FORMULA>
C15H27O17P

> <PUBCHEM_MOLECULAR_WEIGHT>
510.338442

> <PUBCHEM_OPENEYE_CAN_SMILES>
C(C1C(C(C(C(O1)OC2C(C(C(OC2OC(COP(=O)(O)O)C(=O)O)CO)O)O)O)O)O)O

> <PUBCHEM_OPENEYE_ISO_SMILES>
C([C@@H]1[C@H]([C@@H]([C@@H]([C@H](O1)O[C@@H]2[C@H]([C@@H]([C@H](O[C@@H]2O[C@H](COP(=O)(O)O)C(=O)O)CO)O)O)O)O)O)O

> <PUBCHEM_CACTVS_TPSA>
283

> <PUBCHEM_MONOISOTOPIC_WEIGHT>
510.098586

> <PUBCHEM_TOTAL_CHARGE>
0

> <PUBCHEM_HEAVY_ATOM_COUNT>
33

> <PUBCHEM_ATOM_DEF_STEREO_COUNT>
11

> <PUBCHEM_ATOM_UDEF_STEREO_COUNT>
0

> <PUBCHEM_BOND_DEF_STEREO_COUNT>
0

> <PUBCHEM_BOND_UDEF_STEREO_COUNT>
0

> <PUBCHEM_ISOTOPIC_ATOM_COUNT>
0

> <PUBCHEM_COMPONENT_COUNT>
1

> <PUBCHEM_CACTVS_TAUTO_COUNT>
1

> <PUBCHEM_COORDINATE_TYPE>
1
5
255

> <PUBCHEM_BONDANNOTATIONS>
27  10  6
19  2  6
22  2  6
25  29  5
28  30  5
23  5  6
31  5  5
20  6  5
21  7  6
24  8  5
26  9  5

$$$$

