10684
  -OEChem-06261204502D

 28 29  0     1  0  0  0  0  0999 V2000
    7.6138    0.4337    0.0000 O   0  0  0  0  0  0  0  0  0  0  0  0
    4.6783   -1.7944    0.0000 N   0  0  0  0  0  0  0  0  0  0  0  0
    6.2781    1.9223    0.0000 N   0  0  0  0  0  0  0  0  0  0  0  0
    4.9889    0.7656    0.0000 C   0  0  0  0  0  0  0  0  0  0  0  0
    4.6783   -0.1850    0.0000 C   0  0  0  0  0  0  0  0  0  0  0  0
    5.9674    0.9718    0.0000 C   0  0  3  0  0  0  0  0  0  0  0  0
    3.7320   -0.4897    0.0000 C   0  0  0  0  0  0  0  0  0  0  0  0
    3.7320   -1.4897    0.0000 C   0  0  0  0  0  0  0  0  0  0  0  0
    5.2619   -0.9897    0.0000 C   0  0  0  0  0  0  0  0  0  0  0  0
    6.6353    0.2275    0.0000 C   0  0  0  0  0  0  0  0  0  0  0  0
    2.8660    0.0103    0.0000 C   0  0  0  0  0  0  0  0  0  0  0  0
    2.8660   -1.9897    0.0000 C   0  0  0  0  0  0  0  0  0  0  0  0
    2.0000   -0.4897    0.0000 C   0  0  0  0  0  0  0  0  0  0  0  0
    2.0000   -1.4897    0.0000 C   0  0  0  0  0  0  0  0  0  0  0  0
    4.9684    1.3852    0.0000 H   0  0  0  0  0  0  0  0  0  0  0  0
    4.3751    0.8529    0.0000 H   0  0  0  0  0  0  0  0  0  0  0  0
    5.5534    1.4332    0.0000 H   0  0  0  0  0  0  0  0  0  0  0  0
    5.8819   -0.9897    0.0000 H   0  0  0  0  0  0  0  0  0  0  0  0
    6.1089   -0.1002    0.0000 H   0  0  0  0  0  0  0  0  0  0  0  0
    6.8665   -0.3478    0.0000 H   0  0  0  0  0  0  0  0  0  0  0  0
    4.8709   -2.3838    0.0000 H   0  0  0  0  0  0  0  0  0  0  0  0
    2.8660    0.6303    0.0000 H   0  0  0  0  0  0  0  0  0  0  0  0
    2.8660   -2.6097    0.0000 H   0  0  0  0  0  0  0  0  0  0  0  0
    6.8848    2.0502    0.0000 H   0  0  0  0  0  0  0  0  0  0  0  0
    5.8640    2.3838    0.0000 H   0  0  0  0  0  0  0  0  0  0  0  0
    1.4631   -0.1797    0.0000 H   0  0  0  0  0  0  0  0  0  0  0  0
    1.4631   -1.7997    0.0000 H   0  0  0  0  0  0  0  0  0  0  0  0
    8.0279   -0.0278    0.0000 H   0  0  0  0  0  0  0  0  0  0  0  0
  1 10  1  0  0  0  0
  1 28  1  0  0  0  0
  2  8  1  0  0  0  0
  2  9  1  0  0  0  0
  2 21  1  0  0  0  0
  3  6  1  0  0  0  0
  3 24  1  0  0  0  0
  3 25  1  0  0  0  0
  4  5  1  0  0  0  0
  4  6  1  0  0  0  0
  4 15  1  0  0  0  0
  4 16  1  0  0  0  0
  5  7  1  0  0  0  0
  5  9  2  0  0  0  0
  6 10  1  0  0  0  0
  6 17  1  0  0  0  0
  7  8  1  0  0  0  0
  7 11  2  0  0  0  0
  8 12  2  0  0  0  0
  9 18  1  0  0  0  0
 10 19  1  0  0  0  0
 10 20  1  0  0  0  0
 11 13  1  0  0  0  0
 11 22  1  0  0  0  0
 12 14  1  0  0  0  0
 12 23  1  0  0  0  0
 13 14  2  0  0  0  0
 13 26  1  0  0  0  0
 14 27  1  0  0  0  0
M  END
> <PUBCHEM_COMPOUND_CID>
10684

> <PUBCHEM_COMPOUND_CANONICALIZED>
1

> <PUBCHEM_CACTVS_COMPLEXITY>
186

> <PUBCHEM_CACTVS_HBOND_ACCEPTOR>
2

> <PUBCHEM_CACTVS_HBOND_DONOR>
3

> <PUBCHEM_CACTVS_ROTATABLE_BOND>
3

> <PUBCHEM_CACTVS_SUBSKEYS>
AAADccBzIAAAAAAAAAAAAAAAAAAAAWAAAAAwAAAAAAAAAFgB8AAAHgAQCAAADCjhngY8wPLJkgCgAzRnRACCgCAxAiAI2aA4ZJgKMOLAkZGEYAhkkADIyAeQ0PIOgAAAAAACAAAAAAAAAAQAAAAAAAAAAA==

> <PUBCHEM_IUPAC_OPENEYE_NAME>
2-amino-3-(1H-indol-3-yl)propan-1-ol

> <PUBCHEM_IUPAC_CAS_NAME>
2-amino-3-(1H-indol-3-yl)-1-propanol

> <PUBCHEM_IUPAC_NAME>
2-amino-3-(1H-indol-3-yl)propan-1-ol

> <PUBCHEM_IUPAC_SYSTEMATIC_NAME>
2-azanyl-3-(1H-indol-3-yl)propan-1-ol

> <PUBCHEM_IUPAC_TRADITIONAL_NAME>
2-amino-3-(1H-indol-3-yl)propan-1-ol

> <PUBCHEM_IUPAC_INCHI>
InChI=1S/C11H14N2O/c12-9(7-14)5-8-6-13-11-4-2-1-3-10(8)11/h1-4,6,9,13-14H,5,7,12H2

> <PUBCHEM_IUPAC_INCHIKEY>
UDQCRUSSQAXPJY-UHFFFAOYSA-N

> <PUBCHEM_XLOGP3>
0.9

> <PUBCHEM_EXACT_MASS>
190.110613

> <PUBCHEM_MOLECULAR_FORMULA>
C11H14N2O

> <PUBCHEM_MOLECULAR_WEIGHT>
190.24166

> <PUBCHEM_OPENEYE_CAN_SMILES>
C1=CC=C2C(=C1)C(=CN2)CC(CO)N

> <PUBCHEM_OPENEYE_ISO_SMILES>
C1=CC=C2C(=C1)C(=CN2)CC(CO)N

> <PUBCHEM_CACTVS_TPSA>
62

> <PUBCHEM_MONOISOTOPIC_WEIGHT>
190.110613

> <PUBCHEM_TOTAL_CHARGE>
0

> <PUBCHEM_HEAVY_ATOM_COUNT>
14

> <PUBCHEM_ATOM_DEF_STEREO_COUNT>
0

> <PUBCHEM_ATOM_UDEF_STEREO_COUNT>
1

> <PUBCHEM_BOND_DEF_STEREO_COUNT>
0

> <PUBCHEM_BOND_UDEF_STEREO_COUNT>
0

> <PUBCHEM_ISOTOPIC_ATOM_COUNT>
0

> <PUBCHEM_COMPONENT_COUNT>
1

> <PUBCHEM_CACTVS_TAUTO_COUNT>
1

> <PUBCHEM_COORDINATE_TYPE>
1
5
255

> <PUBCHEM_BONDANNOTATIONS>
11  13  8
12  14  8
13  14  8
2  8  8
2  9  8
6  3  3
5  7  8
5  9  8
7  11  8
7  8  8
8  12  8

$$$$

