23657838
  -OEChem-07051213152D

 29 30  0     1  0  0  0  0  0999 V2000
    7.2566    1.6924    0.0000 O   0  0  0  0  0  0  0  0  0  0  0  0
    5.6103    2.2305    0.0000 O   0  0  0  0  0  0  0  0  0  0  0  0
    7.6138   -0.0024    0.0000 O   0  0  0  0  0  0  0  0  0  0  0  0
    6.3246   -1.1591    0.0000 O   0  0  0  0  0  0  0  0  0  0  0  0
    4.6783   -2.2305    0.0000 N   0  0  0  0  0  0  0  0  0  0  0  0
    6.2781    1.4862    0.0000 N   0  0  0  0  0  0  0  0  0  0  0  0
    4.9889    0.3295    0.0000 C   0  0  0  0  0  0  0  0  0  0  0  0
    4.6783   -0.6210    0.0000 C   0  0  0  0  0  0  0  0  0  0  0  0
    3.7320   -0.9258    0.0000 C   0  0  0  0  0  0  0  0  0  0  0  0
    5.9674    0.5357    0.0000 C   0  0  1  0  0  0  0  0  0  0  0  0
    3.7320   -1.9258    0.0000 C   0  0  0  0  0  0  0  0  0  0  0  0
    5.2619   -1.4258    0.0000 C   0  0  0  0  0  0  0  0  0  0  0  0
    2.8660   -0.4258    0.0000 C   0  0  0  0  0  0  0  0  0  0  0  0
    2.8660   -2.4258    0.0000 C   0  0  0  0  0  0  0  0  0  0  0  0
    6.6353   -0.2086    0.0000 C   0  0  0  0  0  0  0  0  0  0  0  0
    2.0000   -0.9258    0.0000 C   0  0  0  0  0  0  0  0  0  0  0  0
    2.0000   -1.9258    0.0000 C   0  0  0  0  0  0  0  0  0  0  0  0
    4.9684    0.9491    0.0000 H   0  0  0  0  0  0  0  0  0  0  0  0
    4.3751    0.4168    0.0000 H   0  0  0  0  0  0  0  0  0  0  0  0
    5.5534    0.9972    0.0000 H   0  0  0  0  0  0  0  0  0  0  0  0
    5.8819   -1.4258    0.0000 H   0  0  0  0  0  0  0  0  0  0  0  0
    4.8709   -2.8198    0.0000 H   0  0  0  0  0  0  0  0  0  0  0  0
    2.8660    0.1942    0.0000 H   0  0  0  0  0  0  0  0  0  0  0  0
    2.8660   -3.0458    0.0000 H   0  0  0  0  0  0  0  0  0  0  0  0
    1.4631   -0.6158    0.0000 H   0  0  0  0  0  0  0  0  0  0  0  0
    1.4631   -2.2358    0.0000 H   0  0  0  0  0  0  0  0  0  0  0  0
    7.4492    2.2818    0.0000 H   0  0  0  0  0  0  0  0  0  0  0  0
    5.8029    2.8198    0.0000 H   0  0  0  0  0  0  0  0  0  0  0  0
    8.0279   -0.4639    0.0000 H   0  0  0  0  0  0  0  0  0  0  0  0
  1  6  1  0  0  0  0
  1 27  1  0  0  0  0
  2  6  1  0  0  0  0
  2 28  1  0  0  0  0
  3 15  1  0  0  0  0
  3 29  1  0  0  0  0
  4 15  2  0  0  0  0
  5 11  1  0  0  0  0
  5 12  1  0  0  0  0
  5 22  1  0  0  0  0
 10  6  1  6  0  0  0
  7  8  1  0  0  0  0
  7 10  1  0  0  0  0
  7 18  1  0  0  0  0
  7 19  1  0  0  0  0
  8  9  1  0  0  0  0
  8 12  2  0  0  0  0
  9 11  1  0  0  0  0
  9 13  2  0  0  0  0
 10 15  1  0  0  0  0
 10 20  1  0  0  0  0
 11 14  2  0  0  0  0
 12 21  1  0  0  0  0
 13 16  1  0  0  0  0
 13 23  1  0  0  0  0
 14 17  1  0  0  0  0
 14 24  1  0  0  0  0
 16 17  2  0  0  0  0
 16 25  1  0  0  0  0
 17 26  1  0  0  0  0
M  END
> <PUBCHEM_COMPOUND_CID>
23657838

> <PUBCHEM_COMPOUND_CANONICALIZED>
1

> <PUBCHEM_CACTVS_COMPLEXITY>
285

> <PUBCHEM_CACTVS_HBOND_ACCEPTOR>
5

> <PUBCHEM_CACTVS_HBOND_DONOR>
4

> <PUBCHEM_CACTVS_ROTATABLE_BOND>
4

> <PUBCHEM_CACTVS_SUBSKEYS>
AAADccBzOAAAAAAAAAAAAAAAAAAAAWAAAAAwAAAAAAAAAFgB8AAAHgAUCAAADCjBngQ8yPLZ0gCoAzT3TACCgCAxAiAo2aG4ZJgKIPLAkZGEYAhkkADIyAeY2fKOgAAAAAACAAAAAAAAAAQAAAAAAAAAAA==

> <PUBCHEM_IUPAC_OPENEYE_NAME>
(2S)-2-(dihydroxyamino)-3-(1H-indol-3-yl)propanoic acid

> <PUBCHEM_IUPAC_CAS_NAME>
(2S)-2-(dihydroxyamino)-3-(1H-indol-3-yl)propanoic acid

> <PUBCHEM_IUPAC_NAME>
(2S)-2-(dihydroxyamino)-3-(1H-indol-3-yl)propanoic acid

> <PUBCHEM_IUPAC_SYSTEMATIC_NAME>
(2S)-2-[bis(oxidanyl)amino]-3-(1H-indol-3-yl)propanoic acid

> <PUBCHEM_IUPAC_TRADITIONAL_NAME>
(2S)-2-(dihydroxyamino)-3-(1H-indol-3-yl)propionic acid

> <PUBCHEM_IUPAC_INCHI>
InChI=1S/C11H12N2O4/c14-11(15)10(13(16)17)5-7-6-12-9-4-2-1-3-8(7)9/h1-4,6,10,12,16-17H,5H2,(H,14,15)/t10-/m0/s1

> <PUBCHEM_IUPAC_INCHIKEY>
FKJQZUQEYSGYFZ-JTQLQIEISA-N

> <PUBCHEM_XLOGP3>
-1.1

> <PUBCHEM_EXACT_MASS>
236.079707

> <PUBCHEM_MOLECULAR_FORMULA>
C11H12N2O4

> <PUBCHEM_MOLECULAR_WEIGHT>
236.22398

> <PUBCHEM_OPENEYE_CAN_SMILES>
C1=CC=C2C(=C1)C(=CN2)CC(C(=O)O)N(O)O

> <PUBCHEM_OPENEYE_ISO_SMILES>
C1=CC=C2C(=C1)C(=CN2)C[C@@H](C(=O)O)N(O)O

> <PUBCHEM_CACTVS_TPSA>
96.8

> <PUBCHEM_MONOISOTOPIC_WEIGHT>
236.079707

> <PUBCHEM_TOTAL_CHARGE>
0

> <PUBCHEM_HEAVY_ATOM_COUNT>
17

> <PUBCHEM_ATOM_DEF_STEREO_COUNT>
1

> <PUBCHEM_ATOM_UDEF_STEREO_COUNT>
0

> <PUBCHEM_BOND_DEF_STEREO_COUNT>
0

> <PUBCHEM_BOND_UDEF_STEREO_COUNT>
0

> <PUBCHEM_ISOTOPIC_ATOM_COUNT>
0

> <PUBCHEM_COMPONENT_COUNT>
1

> <PUBCHEM_CACTVS_TAUTO_COUNT>
1

> <PUBCHEM_COORDINATE_TYPE>
1
5
255

> <PUBCHEM_BONDANNOTATIONS>
11  14  8
13  16  8
14  17  8
16  17  8
5  11  8
5  12  8
10  6  6
8  12  8
8  9  8
9  11  8
9  13  8

$$$$

