5742
  -OEChem-06261200512D

 11  9  0     0  0  0  0  0  0999 V2000
    0.9030    0.0000    0.0000 Cl  0  0  0  0  0  0  0  0  0  0  0  0
    2.2690    4.3100    0.0000 N   0  0  0  0  0  0  0  0  0  0  0  0
    0.5369    4.3100    0.0000 N   0  0  0  0  0  0  0  0  0  0  0  0
    1.4030    2.8100    0.0000 N   0  0  0  0  0  0  0  0  0  0  0  0
    1.4030    3.8100    0.0000 C   0  0  0  0  0  0  0  0  0  0  0  0
    2.8059    4.0000    0.0000 H   0  0  0  0  0  0  0  0  0  0  0  0
    2.2690    4.9300    0.0000 H   0  0  0  0  0  0  0  0  0  0  0  0
    0.0000    4.0000    0.0000 H   0  0  0  0  0  0  0  0  0  0  0  0
    0.5369    4.9300    0.0000 H   0  0  0  0  0  0  0  0  0  0  0  0
    0.8660    2.5000    0.0000 H   0  0  0  0  0  0  0  0  0  0  0  0
    1.9030    0.0000    0.0000 H   0  0  0  0  0  0  0  0  0  0  0  0
  1 11  1  0  0  0  0
  2  5  1  0  0  0  0
  2  6  1  0  0  0  0
  2  7  1  0  0  0  0
  3  5  1  0  0  0  0
  3  8  1  0  0  0  0
  3  9  1  0  0  0  0
  4  5  2  0  0  0  0
  4 10  1  0  0  0  0
M  END
> <PUBCHEM_COMPOUND_CID>
5742

> <PUBCHEM_COMPOUND_CANONICALIZED>
1

> <PUBCHEM_CACTVS_COMPLEXITY>
26.3

> <PUBCHEM_CACTVS_HBOND_ACCEPTOR>
1

> <PUBCHEM_CACTVS_HBOND_DONOR>
4

> <PUBCHEM_CACTVS_ROTATABLE_BOND>
0

> <PUBCHEM_CACTVS_SUBSKEYS>
AAADcYADAAAEAAAAAAAAAAAAAAAAAAAAAAAAAAAAAAAAAAAAAAAABAAQAAAAAAAAAAABAABAAAAgAAAAIAAAAACAAAAAAAAAAAAAAAAAAAAAAAAAAAAAAAAAAAAAAAAAAAAAAAAAAAAAAAAAAAAAAAAAAA==

> <PUBCHEM_IUPAC_OPENEYE_NAME>
guanidine hydrochloride

> <PUBCHEM_IUPAC_CAS_NAME>
guanidine hydrochloride

> <PUBCHEM_IUPAC_NAME>
guanidine hydrochloride

> <PUBCHEM_IUPAC_SYSTEMATIC_NAME>
guanidine hydrochloride

> <PUBCHEM_IUPAC_TRADITIONAL_NAME>
guanidine hydrochloride

> <PUBCHEM_IUPAC_INCHI>
InChI=1S/CH5N3.ClH/c2-1(3)4;/h(H5,2,3,4);1H

> <PUBCHEM_IUPAC_INCHIKEY>
PJJJBBJSCAKJQF-UHFFFAOYSA-N

> <PUBCHEM_EXACT_MASS>
95.025025

> <PUBCHEM_MOLECULAR_FORMULA>
CH6ClN3

> <PUBCHEM_MOLECULAR_WEIGHT>
95.53144

> <PUBCHEM_OPENEYE_CAN_SMILES>
C(=N)(N)N.Cl

> <PUBCHEM_OPENEYE_ISO_SMILES>
C(=N)(N)N.Cl

> <PUBCHEM_CACTVS_TPSA>
75.9

> <PUBCHEM_MONOISOTOPIC_WEIGHT>
95.025025

> <PUBCHEM_TOTAL_CHARGE>
0

> <PUBCHEM_HEAVY_ATOM_COUNT>
5

> <PUBCHEM_ATOM_DEF_STEREO_COUNT>
0

> <PUBCHEM_ATOM_UDEF_STEREO_COUNT>
0

> <PUBCHEM_BOND_DEF_STEREO_COUNT>
0

> <PUBCHEM_BOND_UDEF_STEREO_COUNT>
0

> <PUBCHEM_ISOTOPIC_ATOM_COUNT>
0

> <PUBCHEM_COMPONENT_COUNT>
2

> <PUBCHEM_CACTVS_TAUTO_COUNT>
1

> <PUBCHEM_COORDINATE_TYPE>
1
5
255

$$$$

