   Color/Form

     * LEAFLETS FROM ALCOHOL
     * COLORLESS

   from [1]HSDB

   Boiling Point
        250-251 DEG C AT 12 MM HG
   from [2]HSDB

   Melting Point
        109 DEG C
   from [3]HSDB

   Solubilities
        INSOL IN WATER; SOL IN ETHER, CHLOROFORM, HOT ETHANOL; SLIGHTLY
   SOL IN ACETONE, BENZENE
   from [4]HSDB

   Spectral Properties

     * SADTLER REFERENCE NUMBER: 17362 (IR, PRISM)
     * IR: 2025 (Coblentz Society Spectral Collection)
     * NMR: 9674 (Sadtler Research Laboratories Spectral Collection)
     * MASS: 219 (Aldermaston, Eight Peak Index of Mass Spectra, UK)

   from [5]HSDB

   Computed Properties
   Molecular Weight                  283.49248 [g/mol]
   Molecular Formula                 C[18]H[37]NO
   XLogP3                            6.8
   H-Bond Donor                      1
   H-Bond Acceptor                   1
   Rotatable Bond Count              16
   Tautomer Count                    3
   Exact Mass                        283.287515
   MonoIsotopic Mass                 283.287515
   Topological Polar Surface Area    43.1
   Heavy Atom Count                  20
   Formal Charge                     0
   Complexity                        204
   Isotope Atom Count                0
   Defined Atom Stereocenter Count   0
   Undefined Atom Stereocenter Count 0
   Defined Bond Stereocenter Count   0
   Undefined Bond Stereocenter Count 0
   Covalently-Bonded Unit Count      1

References

   1. http://toxnet.nlm.nih.gov/cgi-bin/sis/search/r?dbs+hsdb:@term+@rn+@rel+124-26-5
   2. http://toxnet.nlm.nih.gov/cgi-bin/sis/search/r?dbs+hsdb:@term+@rn+@rel+124-26-5
   3. http://toxnet.nlm.nih.gov/cgi-bin/sis/search/r?dbs+hsdb:@term+@rn+@rel+124-26-5
   4. http://toxnet.nlm.nih.gov/cgi-bin/sis/search/r?dbs+hsdb:@term+@rn+@rel+124-26-5
   5. http://toxnet.nlm.nih.gov/cgi-bin/sis/search/r?dbs+hsdb:@term+@rn+@rel+124-26-5
