17396006
  -OEChem-06241222532D

 35 36  0     0  0  0  0  0  0999 V2000
    3.3987   -3.1551    0.0000 Cl  0  0  0  0  0  0  0  0  0  0  0  0
   11.1924    1.8950    0.0000 F   0  0  0  0  0  0  0  0  0  0  0  0
   10.5504    3.1551    0.0000 F   0  0  0  0  0  0  0  0  0  0  0  0
    9.9323    1.2530    0.0000 F   0  0  0  0  0  0  0  0  0  0  0  0
    5.9019    1.7928    0.0000 O   0  0  0  0  0  0  0  0  0  0  0  0
    5.3667    0.1455    0.0000 O   0  0  0  0  0  0  0  0  0  0  0  0
    7.3882    3.1311    0.0000 O   0  0  0  0  0  0  0  0  0  0  0  0
    2.5896    1.4327    0.0000 N   0  0  0  0  0  0  0  0  0  0  0  0
    8.5472    1.8439    0.0000 N   0  0  0  0  0  0  0  0  0  0  0  0
    2.8987    2.3838    0.0000 N   0  0  0  0  0  0  0  0  0  0  0  0
    3.3987    0.8449    0.0000 C   0  0  0  0  0  0  0  0  0  0  0  0
    3.3987   -0.1551    0.0000 C   0  0  0  0  0  0  0  0  0  0  0  0
    4.2077    1.4327    0.0000 C   0  0  0  0  0  0  0  0  0  0  0  0
    3.8987    2.3838    0.0000 C   0  0  0  0  0  0  0  0  0  0  0  0
    2.5326   -0.6551    0.0000 C   0  0  0  0  0  0  0  0  0  0  0  0
    4.2647   -0.6551    0.0000 C   0  0  0  0  0  0  0  0  0  0  0  0
    5.1588    1.1237    0.0000 C   0  0  0  0  0  0  0  0  0  0  0  0
    6.8530    1.4838    0.0000 C   0  0  0  0  0  0  0  0  0  0  0  0
    9.2903    2.5130    0.0000 C   0  0  0  0  0  0  0  0  0  0  0  0
    7.5961    2.1529    0.0000 C   0  0  0  0  0  0  0  0  0  0  0  0
    2.5326   -1.6551    0.0000 C   0  0  0  0  0  0  0  0  0  0  0  0
    4.2647   -1.6551    0.0000 C   0  0  0  0  0  0  0  0  0  0  0  0
    3.3987   -2.1551    0.0000 C   0  0  0  0  0  0  0  0  0  0  0  0
   10.2413    2.2040    0.0000 C   0  0  0  0  0  0  0  0  0  0  0  0
    2.0000    1.2411    0.0000 H   0  0  0  0  0  0  0  0  0  0  0  0
    4.2631    2.8854    0.0000 H   0  0  0  0  0  0  0  0  0  0  0  0
    1.9957   -0.3451    0.0000 H   0  0  0  0  0  0  0  0  0  0  0  0
    4.8016   -0.3451    0.0000 H   0  0  0  0  0  0  0  0  0  0  0  0
    9.5814    3.0605    0.0000 H   0  0  0  0  0  0  0  0  0  0  0  0
    8.8017    2.8948    0.0000 H   0  0  0  0  0  0  0  0  0  0  0  0
    6.5619    0.9364    0.0000 H   0  0  0  0  0  0  0  0  0  0  0  0
    7.3415    1.1021    0.0000 H   0  0  0  0  0  0  0  0  0  0  0  0
    8.6760    1.2375    0.0000 H   0  0  0  0  0  0  0  0  0  0  0  0
    1.9957   -1.9651    0.0000 H   0  0  0  0  0  0  0  0  0  0  0  0
    4.8016   -1.9651    0.0000 H   0  0  0  0  0  0  0  0  0  0  0  0
  1 23  1  0  0  0  0
  2 24  1  0  0  0  0
  3 24  1  0  0  0  0
  4 24  1  0  0  0  0
  5 17  1  0  0  0  0
  5 18  1  0  0  0  0
  6 17  2  0  0  0  0
  7 20  2  0  0  0  0
  8 10  1  0  0  0  0
  8 11  1  0  0  0  0
  8 25  1  0  0  0  0
  9 19  1  0  0  0  0
  9 20  1  0  0  0  0
  9 33  1  0  0  0  0
 10 14  2  0  0  0  0
 11 12  1  0  0  0  0
 11 13  2  0  0  0  0
 12 15  2  0  0  0  0
 12 16  1  0  0  0  0
 13 14  1  0  0  0  0
 13 17  1  0  0  0  0
 14 26  1  0  0  0  0
 15 21  1  0  0  0  0
 15 27  1  0  0  0  0
 16 22  2  0  0  0  0
 16 28  1  0  0  0  0
 18 20  1  0  0  0  0
 18 31  1  0  0  0  0
 18 32  1  0  0  0  0
 19 24  1  0  0  0  0
 19 29  1  0  0  0  0
 19 30  1  0  0  0  0
 21 23  2  0  0  0  0
 21 34  1  0  0  0  0
 22 23  1  0  0  0  0
 22 35  1  0  0  0  0
M  END
> <PUBCHEM_COMPOUND_CID>
17396006

> <PUBCHEM_COMPOUND_CANONICALIZED>
1

> <PUBCHEM_CACTVS_COMPLEXITY>
456

> <PUBCHEM_CACTVS_HBOND_ACCEPTOR>
7

> <PUBCHEM_CACTVS_HBOND_DONOR>
2

> <PUBCHEM_CACTVS_ROTATABLE_BOND>
6

> <PUBCHEM_CACTVS_SUBSKEYS>
AAADccBzMYAEAAAAAAAAAAAAAAAAAWAAAAAwAAAAAAAAAAABwAAAHwIYAAAADArhnjY8iJLjBACqAzX3WAKSBAAkhQAYuaFoTtgKJrqB892DtYBmngCY6ceYyOCOBAAAAAAAAAAIAAAAAAAAAAAAAAAAAA==

> <PUBCHEM_IUPAC_OPENEYE_NAME>
[2-oxo-2-(2,2,2-trifluoroethylamino)ethyl] 5-(4-chlorophenyl)-1H-pyrazole-4-carboxylate

> <PUBCHEM_IUPAC_CAS_NAME>
5-(4-chlorophenyl)-1H-pyrazole-4-carboxylic acid [2-oxo-2-(2,2,2-trifluoroethylamino)ethyl] ester

> <PUBCHEM_IUPAC_NAME>
[2-oxo-2-(2,2,2-trifluoroethylamino)ethyl] 5-(4-chlorophenyl)-1H-pyrazole-4-carboxylate

> <PUBCHEM_IUPAC_SYSTEMATIC_NAME>
[2-oxidanylidene-2-[2,2,2-tris(fluoranyl)ethylamino]ethyl] 5-(4-chlorophenyl)-1H-pyrazole-4-carboxylate

> <PUBCHEM_IUPAC_TRADITIONAL_NAME>
5-(4-chlorophenyl)-1H-pyrazole-4-carboxylic acid [2-keto-2-(2,2,2-trifluoroethylamino)ethyl] ester

> <PUBCHEM_IUPAC_INCHI>
InChI=1S/C14H11ClF3N3O3/c15-9-3-1-8(2-4-9)12-10(5-20-21-12)13(23)24-6-11(22)19-7-14(16,17)18/h1-5H,6-7H2,(H,19,22)(H,20,21)

> <PUBCHEM_IUPAC_INCHIKEY>
BGOMUEDPLZAULP-UHFFFAOYSA-N

> <PUBCHEM_XLOGP3_AA>
2.8

> <PUBCHEM_EXACT_MASS>
361.044104

> <PUBCHEM_MOLECULAR_FORMULA>
C14H11ClF3N3O3

> <PUBCHEM_MOLECULAR_WEIGHT>
361.70365

> <PUBCHEM_OPENEYE_CAN_SMILES>
C1=CC(=CC=C1C2=C(C=NN2)C(=O)OCC(=O)NCC(F)(F)F)Cl

> <PUBCHEM_OPENEYE_ISO_SMILES>
C1=CC(=CC=C1C2=C(C=NN2)C(=O)OCC(=O)NCC(F)(F)F)Cl

> <PUBCHEM_CACTVS_TPSA>
84.1

> <PUBCHEM_MONOISOTOPIC_WEIGHT>
361.044104

> <PUBCHEM_TOTAL_CHARGE>
0

> <PUBCHEM_HEAVY_ATOM_COUNT>
24

> <PUBCHEM_ATOM_DEF_STEREO_COUNT>
0

> <PUBCHEM_ATOM_UDEF_STEREO_COUNT>
0

> <PUBCHEM_BOND_DEF_STEREO_COUNT>
0

> <PUBCHEM_BOND_UDEF_STEREO_COUNT>
0

> <PUBCHEM_ISOTOPIC_ATOM_COUNT>
0

> <PUBCHEM_COMPONENT_COUNT>
1

> <PUBCHEM_CACTVS_TAUTO_COUNT>
8

> <PUBCHEM_COORDINATE_TYPE>
1
5
255

> <PUBCHEM_BONDANNOTATIONS>
10  14  8
11  13  8
12  15  8
12  16  8
13  14  8
15  21  8
16  22  8
21  23  8
22  23  8
8  10  8
8  11  8

$$$$

