   Color/Form
        COLORLESS LIQ
   from [1]HSDB

   Odor
        MINTY LIME OIL ODOR
   from [2]HSDB

   Taste
        MINTY LIME OIL TASTE
   from [3]HSDB

   Boiling Point
        173-174 DEG C
   from [4]HSDB

   Melting Point
        1 DEG C
   from [5]HSDB

   Density/Specific Gravity
        0.8997 @ 20 DEG C
   from [6]HSDB

   Solubilities
        SLIGHTLY SOL IN WATER; SOL IN BENZENE, PETROLEUM ETHER; SOL IN ALL
   PROPORTION IN ETHER, ALC
   from [7]HSDB

   Spectral Properties

     * INDEX OF REFRACTION: 1.4562 @ 20 DEG C/D
     * IR: 8580 (Sadtler Research Laboratories Prism Collection)
     * MASS: 4178 (National Bureau of Standards EPA-NIH Mass Spectra Data
       Base, NSRDS-NBS-63)

   from [8]HSDB

   Other Chemical/Physical Properties
        TERPENE ETHER HAVING A CAMPHOR-LIKE ODOR AND PUNGENT, COOLING,
   SPICY TASTE; CONGEALING POINT: NOT BELOW 0 DEG C; MISCIBLE WITH
   CHLOROFORM, GLACIAL ACETIC ACID, & FIXED OR VOLATILE OILS /EUCALYPTOL/
   from [9]HSDB

   Computed Properties
   Molecular Weight                  154.24932 [g/mol]
   Molecular Formula                 C[10]H[18]O
   XLogP3-AA                         2.5
   H-Bond Donor                      0
   H-Bond Acceptor                   1
   Rotatable Bond Count              1
   Exact Mass                        154.135765
   MonoIsotopic Mass                 154.135765
   Topological Polar Surface Area    9.2
   Heavy Atom Count                  11
   Formal Charge                     0
   Complexity                        164
   Isotope Atom Count                0
   Defined Atom Stereocenter Count   0
   Undefined Atom Stereocenter Count 0
   Defined Bond Stereocenter Count   0
   Undefined Bond Stereocenter Count 0
   Covalently-Bonded Unit Count      1
   Feature 3D Acceptor Count         1
   Feature 3D Hydrophobe Count       1
   Feature 3D Ring Count             1
   Effective Rotor Count             2
   Conformer Sampling RMSD           0.4
   CID Conformer Count               [10]3

References

   1. http://toxnet.nlm.nih.gov/cgi-bin/sis/search/r?dbs+hsdb:@term+@rn+@rel+470-67-7
   2. http://toxnet.nlm.nih.gov/cgi-bin/sis/search/r?dbs+hsdb:@term+@rn+@rel+470-67-7
   3. http://toxnet.nlm.nih.gov/cgi-bin/sis/search/r?dbs+hsdb:@term+@rn+@rel+470-67-7
   4. http://toxnet.nlm.nih.gov/cgi-bin/sis/search/r?dbs+hsdb:@term+@rn+@rel+470-67-7
   5. http://toxnet.nlm.nih.gov/cgi-bin/sis/search/r?dbs+hsdb:@term+@rn+@rel+470-67-7
   6. http://toxnet.nlm.nih.gov/cgi-bin/sis/search/r?dbs+hsdb:@term+@rn+@rel+470-67-7
   7. http://toxnet.nlm.nih.gov/cgi-bin/sis/search/r?dbs+hsdb:@term+@rn+@rel+470-67-7
   8. http://toxnet.nlm.nih.gov/cgi-bin/sis/search/r?dbs+hsdb:@term+@rn+@rel+470-67-7
   9. http://toxnet.nlm.nih.gov/cgi-bin/sis/search/r?dbs+hsdb:@term+@rn+@rel+470-67-7
  10. http://pubchem.ncbi.nlm.nih.gov/vw3d/vw3d.cgi?cid=10106
