56928135
  -OEChem-07051213152D

 71 75  0     1  0  0  0  0  0999 V2000
   15.6717    2.1280    0.0000 S   0  0  0  0  0  0  0  0  0  0  0  0
   16.5377   -0.3720    0.0000 S   0  0  0  0  0  0  0  0  0  0  0  0
   10.4755    1.1280    0.0000 P   0  0  3  0  0  0  0  0  0  0  0  0
   12.2076    1.1280    0.0000 P   0  0  3  0  0  0  0  0  0  0  0  0
    6.9639    1.0347    0.0000 O   0  0  0  0  0  0  0  0  0  0  0  0
    6.3880   -1.4880    0.0000 O   0  0  0  0  0  0  0  0  0  0  0  0
    8.5161   -1.0357    0.0000 O   0  0  0  0  0  0  0  0  0  0  0  0
    9.6095    0.6280    0.0000 O   0  0  0  0  0  0  0  0  0  0  0  0
   11.3415    1.6280    0.0000 O   0  0  0  0  0  0  0  0  0  0  0  0
    9.9755    1.9940    0.0000 O   0  0  0  0  0  0  0  0  0  0  0  0
   10.9755    0.2619    0.0000 O   0  0  0  0  0  0  0  0  0  0  0  0
    2.0000   -0.1130    0.0000 O   0  0  0  0  0  0  0  0  0  0  0  0
   13.0736    0.6280    0.0000 O   0  0  0  0  0  0  0  0  0  0  0  0
   11.7076    0.2619    0.0000 O   0  0  0  0  0  0  0  0  0  0  0  0
   12.7076    1.9940    0.0000 O   0  0  0  0  0  0  0  0  0  0  0  0
   14.8056   -0.3720    0.0000 O   0  0  0  0  0  0  0  0  0  0  0  0
   20.0182   -0.4066    0.0000 O   0  0  0  0  0  0  0  0  0  0  0  0
    5.3002    0.3961    0.0000 N   0  0  0  0  0  0  0  0  0  0  0  0
    4.7385   -1.3379    0.0000 N   0  0  0  0  0  0  0  0  0  0  0  0
    3.8311    1.0532    0.0000 N   0  0  0  0  0  0  0  0  0  0  0  0
    3.0156   -1.5160    0.0000 N   0  0  0  0  0  0  0  0  0  0  0  0
    4.0313   -2.9190    0.0000 N   0  0  0  0  0  0  0  0  0  0  0  0
   18.2697    0.6280    0.0000 N   0  0  0  0  0  0  0  0  0  0  0  0
   18.2697    2.6280    0.0000 N   0  0  0  0  0  0  0  0  0  0  0  0
   20.0297    2.6626    0.0000 N   0  0  0  0  0  0  0  0  0  0  0  0
   20.9358    1.1072    0.0000 N   0  0  0  0  0  0  0  0  0  0  0  0
   21.7999    2.6521    0.0000 N   0  0  0  0  0  0  0  0  0  0  0  0
    6.7948   -0.5745    0.0000 C   0  0  2  0  0  0  0  0  0  0  0  0
    7.7729   -0.3666    0.0000 C   0  0  1  0  0  0  0  0  0  0  0  0
    6.2948    0.2916    0.0000 C   0  0  1  0  0  0  0  0  0  0  0  0
    7.8774    0.6280    0.0000 C   0  0  1  0  0  0  0  0  0  0  0  0
    8.7435    1.1280    0.0000 C   0  0  0  0  0  0  0  0  0  0  0  0
    4.6357   -0.3432    0.0000 C   0  0  0  0  0  0  0  0  0  0  0  0
    4.8040    1.2574    0.0000 C   0  0  0  0  0  0  0  0  0  0  0  0
    3.7229    0.0651    0.0000 C   0  0  0  0  0  0  0  0  0  0  0  0
    2.9128   -0.5213    0.0000 C   0  0  0  0  0  0  0  0  0  0  0  0
    3.9285   -1.9243    0.0000 C   0  0  0  0  0  0  0  0  0  0  0  0
   13.9396    1.1280    0.0000 C   0  0  0  0  0  0  0  0  0  0  0  0
   14.8056    0.6280    0.0000 C   0  0  3  0  0  0  0  0  0  0  0  0
   15.6717    1.1280    0.0000 C   0  0  0  0  0  0  0  0  0  0  0  0
   17.4037    1.1280    0.0000 C   0  0  0  0  0  0  0  0  0  0  0  0
   19.1358    1.1280    0.0000 C   0  0  0  0  0  0  0  0  0  0  0  0
   19.1358    2.1280    0.0000 C   0  0  0  0  0  0  0  0  0  0  0  0
   16.5377    0.6280    0.0000 C   0  0  0  0  0  0  0  0  0  0  0  0
   17.4037    2.1280    0.0000 C   0  0  0  0  0  0  0  0  0  0  0  0
   20.0297    0.5933    0.0000 C   0  0  0  0  0  0  0  0  0  0  0  0
   20.9358    2.1488    0.0000 C   0  0  0  0  0  0  0  0  0  0  0  0
    6.1756   -0.6069    0.0000 H   0  0  0  0  0  0  0  0  0  0  0  0
    8.3517   -0.1444    0.0000 H   0  0  0  0  0  0  0  0  0  0  0  0
    6.0726    0.8704    0.0000 H   0  0  0  0  0  0  0  0  0  0  0  0
    7.8450    1.2471    0.0000 H   0  0  0  0  0  0  0  0  0  0  0  0
    9.1420    1.6029    0.0000 H   0  0  0  0  0  0  0  0  0  0  0  0
    8.3449    1.6029    0.0000 H   0  0  0  0  0  0  0  0  0  0  0  0
    6.7524   -1.9896    0.0000 H   0  0  0  0  0  0  0  0  0  0  0  0
    8.3872   -1.6421    0.0000 H   0  0  0  0  0  0  0  0  0  0  0  0
    5.0571    1.8234    0.0000 H   0  0  0  0  0  0  0  0  0  0  0  0
    5.3045   -1.5911    0.0000 H   0  0  0  0  0  0  0  0  0  0  0  0
    3.5291   -3.2826    0.0000 H   0  0  0  0  0  0  0  0  0  0  0  0
    4.5973   -3.1722    0.0000 H   0  0  0  0  0  0  0  0  0  0  0  0
   10.2855    2.5309    0.0000 H   0  0  0  0  0  0  0  0  0  0  0  0
   14.3381    1.6029    0.0000 H   0  0  0  0  0  0  0  0  0  0  0  0
   13.5411    1.6029    0.0000 H   0  0  0  0  0  0  0  0  0  0  0  0
   14.2687    0.3180    0.0000 H   0  0  0  0  0  0  0  0  0  0  0  0
   12.0176   -0.2750    0.0000 H   0  0  0  0  0  0  0  0  0  0  0  0
   18.2697    0.0080    0.0000 H   0  0  0  0  0  0  0  0  0  0  0  0
   16.8668    2.4380    0.0000 H   0  0  0  0  0  0  0  0  0  0  0  0
   18.2697    3.2480    0.0000 H   0  0  0  0  0  0  0  0  0  0  0  0
   20.0225    3.2826    0.0000 H   0  0  0  0  0  0  0  0  0  0  0  0
   14.2687   -0.6820    0.0000 H   0  0  0  0  0  0  0  0  0  0  0  0
   22.3380    2.3442    0.0000 H   0  0  0  0  0  0  0  0  0  0  0  0
   21.7975    3.2721    0.0000 H   0  0  0  0  0  0  0  0  0  0  0  0
  1 40  2  0  0  0  0
  2 44  2  0  0  0  0
  3  8  1  0  0  0  0
  3  9  1  0  0  0  0
  3 10  1  0  0  0  0
  3 11  2  0  0  0  0
  4  9  1  0  0  0  0
  4 13  1  0  0  0  0
  4 14  1  0  0  0  0
  4 15  2  0  0  0  0
  5 30  1  0  0  0  0
  5 31  1  0  0  0  0
 28  6  1  1  0  0  0
  6 54  1  0  0  0  0
 29  7  1  1  0  0  0
  7 55  1  0  0  0  0
  8 32  1  0  0  0  0
 10 60  1  0  0  0  0
 12 36  2  0  0  0  0
 13 38  1  0  0  0  0
 14 64  1  0  0  0  0
 16 39  1  0  0  0  0
 16 69  1  0  0  0  0
 17 46  2  0  0  0  0
 30 18  1  6  0  0  0
 18 33  1  0  0  0  0
 18 34  1  0  0  0  0
 19 33  1  0  0  0  0
 19 37  1  0  0  0  0
 19 57  1  0  0  0  0
 20 34  2  0  0  0  0
 20 35  1  0  0  0  0
 21 36  1  0  0  0  0
 21 37  2  0  0  0  0
 22 37  1  0  0  0  0
 22 58  1  0  0  0  0
 22 59  1  0  0  0  0
 23 41  1  0  0  0  0
 23 42  1  0  0  0  0
 23 65  1  0  0  0  0
 24 43  1  0  0  0  0
 24 45  1  0  0  0  0
 24 67  1  0  0  0  0
 25 43  1  0  0  0  0
 25 47  1  0  0  0  0
 25 68  1  0  0  0  0
 26 46  1  0  0  0  0
 26 47  2  0  0  0  0
 27 47  1  0  0  0  0
 27 70  1  0  0  0  0
 27 71  1  0  0  0  0
 28 29  1  0  0  0  0
 28 30  1  0  0  0  0
 28 48  1  0  0  0  0
 29 31  1  0  0  0  0
 29 49  1  0  0  0  0
 30 50  1  0  0  0  0
 31 32  1  6  0  0  0
 31 51  1  0  0  0  0
 32 52  1  0  0  0  0
 32 53  1  0  0  0  0
 33 35  2  0  0  0  0
 34 56  1  0  0  0  0
 35 36  1  0  0  0  0
 38 39  1  0  0  0  0
 38 61  1  0  0  0  0
 38 62  1  0  0  0  0
 39 40  1  0  0  0  0
 39 63  1  0  0  0  0
 40 44  1  0  0  0  0
 41 44  1  0  0  0  0
 41 45  2  0  0  0  0
 42 43  2  0  0  0  0
 42 46  1  0  0  0  0
 45 66  1  0  0  0  0
M  END
> <PUBCHEM_COMPOUND_CID>
56928135

> <PUBCHEM_COMPOUND_CANONICALIZED>
1

> <PUBCHEM_CACTVS_COMPLEXITY>
1610

> <PUBCHEM_CACTVS_HBOND_ACCEPTOR>
18

> <PUBCHEM_CACTVS_HBOND_DONOR>
11

> <PUBCHEM_CACTVS_ROTATABLE_BOND>
12

> <PUBCHEM_CACTVS_SUBSKEYS>
AAADceB7/ANgAAAAAAAAAAAAAAAAAWJAAAAgQIAAAAAAAECBgAAAHgQQCCAACBzh1gYFsBfMFxCsQQd3dICAgC03EqABUIGoVEiDWApAyCAeQIAPgALTAGDwMAIAAAAAAAAAAAAAAAAAAAAAAAAAAAAAAA==

> <PUBCHEM_IUPAC_OPENEYE_NAME>
[[4-(2-amino-4-oxo-5,8-dihydro-1H-pteridin-6-yl)-2-hydroxy-3,4-dithioxo-butoxy]-hydroxy-phosphoryl] [(2R,3S,4R,5R)-5-(2-amino-6-oxo-3H-purin-9-yl)-3,4-dihydroxy-tetrahydrofuran-2-yl]methyl hydrogen phosphate

> <PUBCHEM_IUPAC_CAS_NAME>
[[4-(2-amino-4-oxo-5,8-dihydro-1H-pteridin-6-yl)-2-hydroxy-3,4-bis(sulfanylidene)butoxy]-hydroxyphosphoryl] [(2R,3S,4R,5R)-5-(2-amino-6-oxo-3H-purin-9-yl)-3,4-dihydroxy-2-oxolanyl]methyl hydrogen phosphate

> <PUBCHEM_IUPAC_NAME>
[[4-(2-amino-4-oxo-5,8-dihydro-1H-pteridin-6-yl)-2-hydroxy-3,4-bis(sulfanylidene)butoxy]-hydroxyphosphoryl] [(2R,3S,4R,5R)-5-(2-amino-6-oxo-3H-purin-9-yl)-3,4-dihydroxyoxolan-2-yl]methyl hydrogen phosphate

> <PUBCHEM_IUPAC_SYSTEMATIC_NAME>
[[4-(2-azanyl-4-oxidanylidene-5,8-dihydro-1H-pteridin-6-yl)-2-oxidanyl-3,4-bis(sulfanylidene)butoxy]-oxidanyl-phosphoryl] [(2R,3S,4R,5R)-5-(2-azanyl-6-oxidanylidene-3H-purin-9-yl)-3,4-bis(oxidanyl)oxolan-2-yl]methyl hydrogen phosphate

> <PUBCHEM_IUPAC_TRADITIONAL_NAME>
[[4-(2-amino-4-keto-5,8-dihydro-1H-pteridin-6-yl)-2-hydroxy-3,4-dithioxo-butoxy]-hydroxy-phosphoryl] [(2R,3S,4R,5R)-5-(2-amino-6-keto-3H-purin-9-yl)-3,4-dihydroxy-tetrahydrofuran-2-yl]methyl hydrogen phosphate

> <PUBCHEM_IUPAC_INCHI>
InChI=1S/C20H24N10O13P2S2/c21-19-26-14-8(16(34)28-19)25-5(1-23-14)12(46)13(47)6(31)2-40-44(36,37)43-45(38,39)41-3-7-10(32)11(33)18(42-7)30-4-24-9-15(30)27-20(22)29-17(9)35/h1,4,6-7,10-11,18,25,31-33H,2-3H2,(H,36,37)(H,38,39)(H3,22,27,29,35)(H4,21,23,26,28,34)/t6?,7-,10-,11-,18-/m1/s1

> <PUBCHEM_IUPAC_INCHIKEY>
MNEQOJMCKOBWNR-CQMDFURTSA-N

> <PUBCHEM_XLOGP3_AA>
-5.9

> <PUBCHEM_EXACT_MASS>
738.044096

> <PUBCHEM_MOLECULAR_FORMULA>
C20H24N10O13P2S2

> <PUBCHEM_MOLECULAR_WEIGHT>
738.541284

> <PUBCHEM_OPENEYE_CAN_SMILES>
C1=C(NC2=C(N1)NC(=NC2=O)N)C(=S)C(=S)C(COP(=O)(O)OP(=O)(O)OCC3C(C(C(O3)N4C=NC5=C4NC(=NC5=O)N)O)O)O

> <PUBCHEM_OPENEYE_ISO_SMILES>
C1=C(NC2=C(N1)NC(=NC2=O)N)C(=S)C(=S)C(COP(=O)(O)OP(=O)(O)OC[C@@H]3[C@H]([C@H]([C@@H](O3)N4C=NC5=C4NC(=NC5=O)N)O)O)O

> <PUBCHEM_CACTVS_TPSA>
413

> <PUBCHEM_MONOISOTOPIC_WEIGHT>
738.044096

> <PUBCHEM_TOTAL_CHARGE>
0

> <PUBCHEM_HEAVY_ATOM_COUNT>
47

> <PUBCHEM_ATOM_DEF_STEREO_COUNT>
4

> <PUBCHEM_ATOM_UDEF_STEREO_COUNT>
1

> <PUBCHEM_BOND_DEF_STEREO_COUNT>
0

> <PUBCHEM_BOND_UDEF_STEREO_COUNT>
0

> <PUBCHEM_ISOTOPIC_ATOM_COUNT>
0

> <PUBCHEM_COMPONENT_COUNT>
1

> <PUBCHEM_CACTVS_TAUTO_COUNT>
1001

> <PUBCHEM_COORDINATE_TYPE>
1
5
255

> <PUBCHEM_BONDANNOTATIONS>
39  16  3
30  18  6
18  33  8
18  34  8
19  33  8
19  37  8
20  34  8
20  35  8
21  36  8
21  37  8
25  43  8
25  47  8
26  46  8
26  47  8
31  32  6
33  35  8
35  36  8
42  43  8
42  46  8
28  6  5
29  7  5

$$$$

