   Color/Form

     * GOLDEN CRYSTALS
     * REDDISH-BROWN TO YELLOW CRYSTALS
     * YELLOW LEAVES FROM ALCOHOL

   from [1]HSDB

   Melting Point
        101-102 DEG C
   from [2]HSDB

   Octanol/Water Partition Coefficient
        log Kow= 3.92 (est)
   from [3]HSDB

   Solubilities

     * SOL IN ALCOHOL, ETHER, CHLOROFORM
     * SOL IN OILS & FATS
     * SOL IN ACETONE, CELLOSOLVE & TOLUENE
     * Water solubility= 7.64 mg/l at 25 deg C (est)

   from [4]HSDB

   Spectral Properties

     * MAX ABSORPTION (50% ALCOHOLIC 1 N HYDROGEN CHLORIDE: 326, 490 NM
       (LOG E= 19,000; 2,500)
     * Intense mass spectral peaks: 225 m/z (100%), 134 m/z (41%), 79 m/z
       (38%), 107 m/z (28%)
     * MASS: 1495 (National Bureau of Standards EPA-NIH Mass Spectra Data
       Base, NSRDS-NBS-63)

   from [5]HSDB

   Vapor Pressure
        7.5X10-7 mm Hg at 25 deg C (extrapolated)
   from [6]HSDB

   Other Chemical/Physical Properties
        Henry's Law constant= 2.91X10-8 atm cu-m/mole at 25 deg C (est)
   from [7]HSDB

   Computed Properties
   Molecular Weight                  225.289 [g/mol]
   Molecular Formula                 C[14]H[15]N[3]
   XLogP3-AA                         3.7
   H-Bond Donor                      1
   H-Bond Acceptor                   3
   Rotatable Bond Count              2
   Tautomer Count                    2
   Exact Mass                        225.126597
   MonoIsotopic Mass                 225.126597
   Topological Polar Surface Area    50.7
   Heavy Atom Count                  17
   Formal Charge                     0
   Complexity                        264
   Isotope Atom Count                0
   Defined Atom Stereocenter Count   0
   Undefined Atom Stereocenter Count 0
   Defined Bond Stereocenter Count   0
   Undefined Bond Stereocenter Count 0
   Covalently-Bonded Unit Count      1
   Feature 3D Donor Count            1
   Feature 3D Cation Count           1
   Feature 3D Ring Count             2
   Effective Rotor Count             2
   Conformer Sampling RMSD           0.6
   CID Conformer Count               [8]8

References

   1. http://toxnet.nlm.nih.gov/cgi-bin/sis/search/r?dbs+hsdb:@term+@rn+@rel+97-56-3
   2. http://toxnet.nlm.nih.gov/cgi-bin/sis/search/r?dbs+hsdb:@term+@rn+@rel+97-56-3
   3. http://toxnet.nlm.nih.gov/cgi-bin/sis/search/r?dbs+hsdb:@term+@rn+@rel+97-56-3
   4. http://toxnet.nlm.nih.gov/cgi-bin/sis/search/r?dbs+hsdb:@term+@rn+@rel+97-56-3
   5. http://toxnet.nlm.nih.gov/cgi-bin/sis/search/r?dbs+hsdb:@term+@rn+@rel+97-56-3
   6. http://toxnet.nlm.nih.gov/cgi-bin/sis/search/r?dbs+hsdb:@term+@rn+@rel+97-56-3
   7. http://toxnet.nlm.nih.gov/cgi-bin/sis/search/r?dbs+hsdb:@term+@rn+@rel+97-56-3
   8. http://pubchem.ncbi.nlm.nih.gov/vw3d/vw3d.cgi?cid=7340
