   Color/Form

     * Off-white powder
     * Light brown solid

   from [1]HSDB

   Odor
        Slightly pungent odor
   from [2]HSDB

   Density/Specific Gravity
        1.46 at 20 deg C
   from [3]HSDB

   Dissociation Constants
        pKa = 4.7
   from [4]HSDB

   Octanol/Water Partition Coefficient
        log Kow = 0.78 at pH 7 and 25 deg C
   from [5]HSDB

   Solubilities

     * Low solubility in organic solvents
     * Solubility in acetone, 3.91X107 mg/L; acetonitrile, 4.64X10+7 mg/L;
       ethylhexane, 1.63X10+7 mg/L; ethyl acetate, 1.63X10+7 mg/L;
       n-heptane, 20800 mg/L; methanol, 2.59X10+6 mg/L, all at 20 deg C
     * In water, 50 mg/L at pH 5; 2,040 mg/L at pH 7 and 18,300 mg/L at pH
       9, all at 20 deg C

   from [6]HSDB

   Vapor Pressure
        3.9X10-10 mm Hg at 25 deg C
   from [7]HSDB

   Other Chemical/Physical Properties

     * /This herbicide belongs to the/ sulfonylurea family.
     * Henry's Law constant = 1.02X10-13 atm-cu m/mol at 25 deg C
     * Hydroxyl radical reaction rate constant = 2.96X10-12 cu
       cm/molec-sec at 25 deg C (est)

   from [8]HSDB

   Computed Properties
   Molecular Weight                  395.39038 [g/mol]
   Molecular Formula                 C[15]H[17]N[5]O[6]S
   XLogP3-AA                         1.2
   H-Bond Donor                      1
   H-Bond Acceptor                   9
   Rotatable Bond Count              6
   Tautomer Count                    2
   Exact Mass                        395.089954
   MonoIsotopic Mass                 395.089954
   Topological Polar Surface Area    149
   Heavy Atom Count                  27
   Formal Charge                     0
   Complexity                        639
   Isotope Atom Count                0
   Defined Atom Stereocenter Count   0
   Undefined Atom Stereocenter Count 0
   Defined Bond Stereocenter Count   0
   Undefined Bond Stereocenter Count 0
   Covalently-Bonded Unit Count      1
   Feature 3D Acceptor Count         4
   Feature 3D Donor Count            1
   Feature 3D Cation Count           2
   Feature 3D Ring Count             2
   Effective Rotor Count             8
   Conformer Sampling RMSD           1
   CID Conformer Count               [9]346

References

   1. http://toxnet.nlm.nih.gov/cgi-bin/sis/search/r?dbs+hsdb:@term+@rn+@rel+101200-48-0
   2. http://toxnet.nlm.nih.gov/cgi-bin/sis/search/r?dbs+hsdb:@term+@rn+@rel+101200-48-0
   3. http://toxnet.nlm.nih.gov/cgi-bin/sis/search/r?dbs+hsdb:@term+@rn+@rel+101200-48-0
   4. http://toxnet.nlm.nih.gov/cgi-bin/sis/search/r?dbs+hsdb:@term+@rn+@rel+101200-48-0
   5. http://toxnet.nlm.nih.gov/cgi-bin/sis/search/r?dbs+hsdb:@term+@rn+@rel+101200-48-0
   6. http://toxnet.nlm.nih.gov/cgi-bin/sis/search/r?dbs+hsdb:@term+@rn+@rel+101200-48-0
   7. http://toxnet.nlm.nih.gov/cgi-bin/sis/search/r?dbs+hsdb:@term+@rn+@rel+101200-48-0
   8. http://toxnet.nlm.nih.gov/cgi-bin/sis/search/r?dbs+hsdb:@term+@rn+@rel+101200-48-0
   9. http://pubchem.ncbi.nlm.nih.gov/vw3d/vw3d.cgi?cid=153909
