   Color/Form
        Solvated crystals
   from [1]HSDB

   Melting Point
        183 deg C
   from [2]HSDB

   Octanol/Water Partition Coefficient
        log Kow = 2.01
   from [3]HSDB

   Solubilities

     * Insoluble in ethyl ether, ligroin; slightly soluble in water;
       soluble in acetone, benzene; very soluble in ethanol, chloroform.
     * In water, 150 mg/L at 25 deg C /Estimated/

   from [4]HSDB

   Spectral Properties

     * Specific optical rotation = -132.7 deg @ 20 deg C/D, chloroform, 2%
     * MASS: 28163 (NIST/EPA/MSDC Mass Spectral Database, 1990 version)
     * IR: u 1343 (Sadtler Research Laboratories IR prism collection)
     * UV: 6-982 (Phillip et al., Organic Electronic Spectral Data, John
       Wiley & Sons, New York)

   from [5]HSDB

   Vapor Pressure
        8.3X10-15 mm Hg at 25 deg C /Estimated/
   from [6]HSDB

   Other Chemical/Physical Properties

     * MP: 114-118 deg C (effervescence)
     * Several polymorphic modifications. After drying up: mp =
       183.3-184.0 deg C. Specific optical rotation = -132.7 deg @ 20 deg
       C/D (chloroform). Solubility in water at 23 deg C = 12- mg/L.
       Soluble in alcohol, chloroform, acetone, warm benzene, glacial
       acetic acid.
     * Hygroscopic amorphos white flakes, mp = 152-154 deg C. Specific
       optical rotation = -76.4 deg (c=0.576 in methanol); specific
       optical rotation = -117.0 deg (c=0.668 in pyridine)
       /Podophyllotoxin-beta-D-glucoside/
     * MW: 414.40. Crystals from acetone. MP = 214 deg C. Higher-melting
       modification from abs ethanol, mp 228 deg C. Specific optical
       rotation = +9.4 deg (c=0.7 in chloroform). Solubility in water at
       25 deg C approx 100 mg/L. Fairly soluble in chloroform, hot
       ethanol, acetic acid, acetone, dilute caustic; less soluble in
       benzene ether, carbon tetrachloride, propylene glycol.
       /Picropodophyllin/
     * Henry's Law constant = 3.8X10-18 atm-cu m/mol at 25 deg C
       /Estimated/
     * Hydroxyl radical reaction rate constant = 2.2X10-10 cu
       cm/molecule-sec at 25 deg C /Estimated/

   from [7]HSDB

   Computed Properties
   Molecular Weight                  414.40528 [g/mol]
   Molecular Formula                 C[22]H[22]O[8]
   XLogP3                            2
   H-Bond Donor                      1
   H-Bond Acceptor                   8
   Rotatable Bond Count              4
   Tautomer Count                    2
   Exact Mass                        414.131468
   MonoIsotopic Mass                 414.131468
   Topological Polar Surface Area    92.7
   Heavy Atom Count                  30
   Formal Charge                     0
   Complexity                        629
   Isotope Atom Count                0
   Defined Atom Stereocenter Count   4
   Undefined Atom Stereocenter Count 0
   Defined Bond Stereocenter Count   0
   Undefined Bond Stereocenter Count 0
   Covalently-Bonded Unit Count      1
   Feature 3D Acceptor Count         7
   Feature 3D Donor Count            1
   Feature 3D Ring Count             5
   Effective Rotor Count             5.4
   Conformer Sampling RMSD           0.8
   CID Conformer Count               [8]4

References

   1. http://toxnet.nlm.nih.gov/cgi-bin/sis/search/r?dbs+hsdb:@term+@rn+@rel+518-28-5
   2. http://toxnet.nlm.nih.gov/cgi-bin/sis/search/r?dbs+hsdb:@term+@rn+@rel+518-28-5
   3. http://toxnet.nlm.nih.gov/cgi-bin/sis/search/r?dbs+hsdb:@term+@rn+@rel+518-28-5
   4. http://toxnet.nlm.nih.gov/cgi-bin/sis/search/r?dbs+hsdb:@term+@rn+@rel+518-28-5
   5. http://toxnet.nlm.nih.gov/cgi-bin/sis/search/r?dbs+hsdb:@term+@rn+@rel+518-28-5
   6. http://toxnet.nlm.nih.gov/cgi-bin/sis/search/r?dbs+hsdb:@term+@rn+@rel+518-28-5
   7. http://toxnet.nlm.nih.gov/cgi-bin/sis/search/r?dbs+hsdb:@term+@rn+@rel+518-28-5
   8. http://pubchem.ncbi.nlm.nih.gov/vw3d/vw3d.cgi?cid=10607
