13818693
  -OEChem-07051213092D

 23 24  0     1  0  0  0  0  0999 V2000
    4.9889   -1.3776    0.0000 O   0  0  0  0  0  0  0  0  0  0  0  0
    3.7320    0.8776    0.0000 N   0  0  3  0  0  0  0  0  0  0  0  0
    3.7320   -0.1224    0.0000 C   0  0  1  0  0  0  0  0  0  0  0  0
    2.8660   -0.6224    0.0000 C   0  0  0  0  0  0  0  0  0  0  0  0
    2.8660    1.3776    0.0000 C   0  0  0  0  0  0  0  0  0  0  0  0
    4.6783    1.1824    0.0000 C   0  0  0  0  0  0  0  0  0  0  0  0
    2.0000   -0.1224    0.0000 C   0  0  0  0  0  0  0  0  0  0  0  0
    2.0000    0.8776    0.0000 C   0  0  0  0  0  0  0  0  0  0  0  0
    5.2619    0.3776    0.0000 C   0  0  0  0  0  0  0  0  0  0  0  0
    4.6783   -0.4271    0.0000 C   0  0  0  0  0  0  0  0  0  0  0  0
    3.8220   -0.9676    0.0000 H   0  0  0  0  0  0  0  0  0  0  0  0
    2.4675   -1.0973    0.0000 H   0  0  0  0  0  0  0  0  0  0  0  0
    3.2646   -1.0973    0.0000 H   0  0  0  0  0  0  0  0  0  0  0  0
    3.2646    1.8526    0.0000 H   0  0  0  0  0  0  0  0  0  0  0  0
    2.4675    1.8526    0.0000 H   0  0  0  0  0  0  0  0  0  0  0  0
    5.2156    1.4916    0.0000 H   0  0  0  0  0  0  0  0  0  0  0  0
    4.4272    1.7493    0.0000 H   0  0  0  0  0  0  0  0  0  0  0  0
    1.3894   -0.0147    0.0000 H   0  0  0  0  0  0  0  0  0  0  0  0
    1.7880   -0.7050    0.0000 H   0  0  0  0  0  0  0  0  0  0  0  0
    1.7880    1.4602    0.0000 H   0  0  0  0  0  0  0  0  0  0  0  0
    1.3894    0.7700    0.0000 H   0  0  0  0  0  0  0  0  0  0  0  0
    5.7227   -0.0371    0.0000 H   0  0  0  0  0  0  0  0  0  0  0  0
    5.7227    0.7924    0.0000 H   0  0  0  0  0  0  0  0  0  0  0  0
  1 10  2  0  0  0  0
  2  3  1  0  0  0  0
  2  5  1  0  0  0  0
  2  6  1  0  0  0  0
  3  4  1  0  0  0  0
  3 10  1  0  0  0  0
  3 11  1  1  0  0  0
  4  7  1  0  0  0  0
  4 12  1  0  0  0  0
  4 13  1  0  0  0  0
  5  8  1  0  0  0  0
  5 14  1  0  0  0  0
  5 15  1  0  0  0  0
  6  9  1  0  0  0  0
  6 16  1  0  0  0  0
  6 17  1  0  0  0  0
  7  8  1  0  0  0  0
  7 18  1  0  0  0  0
  7 19  1  0  0  0  0
  8 20  1  0  0  0  0
  8 21  1  0  0  0  0
  9 10  1  0  0  0  0
  9 22  1  0  0  0  0
  9 23  1  0  0  0  0
M  END
> <PUBCHEM_COMPOUND_CID>
13818693

> <PUBCHEM_COMPOUND_CANONICALIZED>
1

> <PUBCHEM_CACTVS_COMPLEXITY>
155

> <PUBCHEM_CACTVS_HBOND_ACCEPTOR>
2

> <PUBCHEM_CACTVS_HBOND_DONOR>
0

> <PUBCHEM_CACTVS_ROTATABLE_BOND>
0

> <PUBCHEM_CACTVS_SUBSKEYS>
AAADccByIAAAAAAAAAAAAAAAAAAAAWAAAAAsAAAAAAAAAFgAAAAAHgAAAAAACCzBgAQAAAMAAAAIAIAQAAAAAAAAAAAAAAGIAAAAABoAgCAEAAAAAACAAAEYiIAAAAAAAAAAAAAAAAAAAAAAAAAAAAAAAA==

> <PUBCHEM_IUPAC_OPENEYE_NAME>
(8aS)-3,5,6,7,8,8a-hexahydro-2H-indolizin-1-one

> <PUBCHEM_IUPAC_CAS_NAME>
(8aS)-3,5,6,7,8,8a-hexahydro-2H-indolizin-1-one

> <PUBCHEM_IUPAC_NAME>
(8aS)-3,5,6,7,8,8a-hexahydro-2H-indolizin-1-one

> <PUBCHEM_IUPAC_SYSTEMATIC_NAME>
(8aS)-3,5,6,7,8,8a-hexahydro-2H-indolizin-1-one

> <PUBCHEM_IUPAC_TRADITIONAL_NAME>
(8aS)-indolizidin-1-one

> <PUBCHEM_IUPAC_INCHI>
InChI=1S/C8H13NO/c10-8-4-6-9-5-2-1-3-7(8)9/h7H,1-6H2/t7-/m0/s1

> <PUBCHEM_IUPAC_INCHIKEY>
GSQLNIVPNDDIHU-ZETCQYMHSA-N

> <PUBCHEM_XLOGP3_AA>
0.7

> <PUBCHEM_EXACT_MASS>
139.099714

> <PUBCHEM_MOLECULAR_FORMULA>
C8H13NO

> <PUBCHEM_MOLECULAR_WEIGHT>
139.19492

> <PUBCHEM_OPENEYE_CAN_SMILES>
C1CCN2CCC(=O)C2C1

> <PUBCHEM_OPENEYE_ISO_SMILES>
C1CCN2CCC(=O)[C@@H]2C1

> <PUBCHEM_CACTVS_TPSA>
20.3

> <PUBCHEM_MONOISOTOPIC_WEIGHT>
139.099714

> <PUBCHEM_TOTAL_CHARGE>
0

> <PUBCHEM_HEAVY_ATOM_COUNT>
10

> <PUBCHEM_ATOM_DEF_STEREO_COUNT>
1

> <PUBCHEM_ATOM_UDEF_STEREO_COUNT>
0

> <PUBCHEM_BOND_DEF_STEREO_COUNT>
0

> <PUBCHEM_BOND_UDEF_STEREO_COUNT>
0

> <PUBCHEM_ISOTOPIC_ATOM_COUNT>
0

> <PUBCHEM_COMPONENT_COUNT>
1

> <PUBCHEM_CACTVS_TAUTO_COUNT>
3

> <PUBCHEM_COORDINATE_TYPE>
1
5
255

> <PUBCHEM_BONDANNOTATIONS>
3  11  5

$$$$

