   Color/Form
        Needles from alcohol
   from [1]HSDB

   Boiling Point
        265 deg C at 15 mm Hg
   from [2]HSDB

   Melting Point
        33.8 deg C
   from [3]HSDB

   Density/Specific Gravity
        0.860 at 55 deg C/4 deg C
   from [4]HSDB

   Dissociation Constants
        pKa = 4.74 (est)
   from [5]HSDB

   Octanol/Water Partition Coefficient
        log Koc = 9.69 (est)
   from [6]HSDB

   Solubilities

     * Soluble in ethanol, carbon tetrachloride; very soluble in ethyl
       ether, methanol
     * Insol in water; about 175 g dissolve in 100 ml ethanol; about 160 g
       dissolve in 100 ml methanol; very sol in ether
     * In water, 2.66X10-4 mg/L at 25 deg C (est)

   from [7]HSDB

   Spectral Properties

     * Index of refraction: 1.4534 at 45 deg C/D; 1.44794 at 65 deg C/D
     * SADTLER REF NUMBER: 3504 (IR, PRISM); 379 (IR, GRATING)
     * IR: 6745 (Coblentz Society Spectral Collection)
     * 1H NMR: 711 (Sadtler Research Laboratories Spectral Collection)

   from [8]HSDB

   Vapor Pressure
        1.15X10-6 mm Hg at 25 deg C (est)
   from [9]HSDB

   Other Chemical/Physical Properties

     * Iodine value 74.98; neutralization value 165.72; bp: 381.5 deg C
       (decomp) at 760 mm hg; 358.8 deg C at 400 mm Hg; 314.4 deg C at 100
       mm Hg; 206.7 deg C at 1.0 mm Hg
     * A C22 (SOLID) FATTY ACID WITH 1 DOUBLE BOND; A HOMOLOGUE OF OLEIC
       ACID WITH 4 MORE CARBONS
     * Henry's Law constant = 1.39X10-4 atm-cu m/mol at 25 deg C (est)
     * Hydroxyl radical reaction rate constant = 8.12X10-11 cu
       cm/molec-sec at 25 deg C (est)

   from [10]HSDB

   Computed Properties
   Molecular Weight                  338.56768 [g/mol]
   Molecular Formula                 C[22]H[42]O[2]
   XLogP3                            8.7
   H-Bond Donor                      1
   H-Bond Acceptor                   2
   Rotatable Bond Count              19
   Exact Mass                        338.318481
   MonoIsotopic Mass                 338.318481
   Topological Polar Surface Area    37.3
   Heavy Atom Count                  24
   Formal Charge                     0
   Complexity                        284
   Isotope Atom Count                0
   Defined Atom Stereocenter Count   0
   Undefined Atom Stereocenter Count 0
   Defined Bond Stereocenter Count   1
   Undefined Bond Stereocenter Count 0
   Covalently-Bonded Unit Count      1

References

   1. http://toxnet.nlm.nih.gov/cgi-bin/sis/search/r?dbs+hsdb:@term+@rn+@rel+112-86-7
   2. http://toxnet.nlm.nih.gov/cgi-bin/sis/search/r?dbs+hsdb:@term+@rn+@rel+112-86-7
   3. http://toxnet.nlm.nih.gov/cgi-bin/sis/search/r?dbs+hsdb:@term+@rn+@rel+112-86-7
   4. http://toxnet.nlm.nih.gov/cgi-bin/sis/search/r?dbs+hsdb:@term+@rn+@rel+112-86-7
   5. http://toxnet.nlm.nih.gov/cgi-bin/sis/search/r?dbs+hsdb:@term+@rn+@rel+112-86-7
   6. http://toxnet.nlm.nih.gov/cgi-bin/sis/search/r?dbs+hsdb:@term+@rn+@rel+112-86-7
   7. http://toxnet.nlm.nih.gov/cgi-bin/sis/search/r?dbs+hsdb:@term+@rn+@rel+112-86-7
   8. http://toxnet.nlm.nih.gov/cgi-bin/sis/search/r?dbs+hsdb:@term+@rn+@rel+112-86-7
   9. http://toxnet.nlm.nih.gov/cgi-bin/sis/search/r?dbs+hsdb:@term+@rn+@rel+112-86-7
  10. http://toxnet.nlm.nih.gov/cgi-bin/sis/search/r?dbs+hsdb:@term+@rn+@rel+112-86-7
