440850
  -OEChem-07051212512D

 20 19  0     0  0  0  0  0  0999 V2000
    7.1962    1.0600    0.0000 O   0  0  0  0  0  0  0  0  0  0  0  0
    2.0000    0.0600    0.0000 O   0  0  0  0  0  0  0  0  0  0  0  0
    6.3301   -0.4400    0.0000 N   0  0  0  0  0  0  0  0  0  0  0  0
    4.5981   -0.4400    0.0000 C   0  0  0  0  0  0  0  0  0  0  0  0
    5.4641    0.0600    0.0000 C   0  0  0  0  0  0  0  0  0  0  0  0
    3.7320    0.0600    0.0000 C   0  0  0  0  0  0  0  0  0  0  0  0
    7.1962    0.0600    0.0000 C   0  0  0  0  0  0  0  0  0  0  0  0
    2.8660   -0.4400    0.0000 C   0  0  0  0  0  0  0  0  0  0  0  0
    8.0622   -0.4400    0.0000 C   0  0  0  0  0  0  0  0  0  0  0  0
    4.1996   -0.9149    0.0000 H   0  0  0  0  0  0  0  0  0  0  0  0
    4.9966   -0.9149    0.0000 H   0  0  0  0  0  0  0  0  0  0  0  0
    5.8626    0.5349    0.0000 H   0  0  0  0  0  0  0  0  0  0  0  0
    5.0656    0.5349    0.0000 H   0  0  0  0  0  0  0  0  0  0  0  0
    4.1306    0.5349    0.0000 H   0  0  0  0  0  0  0  0  0  0  0  0
    3.3335    0.5349    0.0000 H   0  0  0  0  0  0  0  0  0  0  0  0
    6.3301   -1.0600    0.0000 H   0  0  0  0  0  0  0  0  0  0  0  0
    2.8660   -1.0600    0.0000 H   0  0  0  0  0  0  0  0  0  0  0  0
    7.7522   -0.9769    0.0000 H   0  0  0  0  0  0  0  0  0  0  0  0
    8.5991   -0.7500    0.0000 H   0  0  0  0  0  0  0  0  0  0  0  0
    8.3722    0.0969    0.0000 H   0  0  0  0  0  0  0  0  0  0  0  0
  1  7  2  0  0  0  0
  2  8  2  0  0  0  0
  3  5  1  0  0  0  0
  3  7  1  0  0  0  0
  3 16  1  0  0  0  0
  4  5  1  0  0  0  0
  4  6  1  0  0  0  0
  4 10  1  0  0  0  0
  4 11  1  0  0  0  0
  5 12  1  0  0  0  0
  5 13  1  0  0  0  0
  6  8  1  0  0  0  0
  6 14  1  0  0  0  0
  6 15  1  0  0  0  0
  7  9  1  0  0  0  0
  8 17  1  0  0  0  0
  9 18  1  0  0  0  0
  9 19  1  0  0  0  0
  9 20  1  0  0  0  0
M  END
> <PUBCHEM_COMPOUND_CID>
440850

> <PUBCHEM_COMPOUND_CANONICALIZED>
1

> <PUBCHEM_CACTVS_COMPLEXITY>
101

> <PUBCHEM_CACTVS_HBOND_ACCEPTOR>
2

> <PUBCHEM_CACTVS_HBOND_DONOR>
1

> <PUBCHEM_CACTVS_ROTATABLE_BOND>
4

> <PUBCHEM_CACTVS_SUBSKEYS>
AAADccBiMAAAAAAAAAAAAAAAAAAAAAAAAAAAAAAAAAAAAAAAAAAAHgAQAAAACADhgAYCAALAAAAIAAkQkAAAAAAAAAAAAIEIAAAAABAAgAAEAAAAFgCAAAAEAAAAAAAAAAAAAAAAAAAAAAAAAAAAAAAAAA==

> <PUBCHEM_IUPAC_OPENEYE_NAME>
N-(4-oxobutyl)acetamide

> <PUBCHEM_IUPAC_CAS_NAME>
N-(4-oxobutyl)acetamide

> <PUBCHEM_IUPAC_NAME>
N-(4-oxobutyl)acetamide

> <PUBCHEM_IUPAC_SYSTEMATIC_NAME>
N-(4-oxidanylidenebutyl)ethanamide

> <PUBCHEM_IUPAC_TRADITIONAL_NAME>
N-(4-ketobutyl)acetamide

> <PUBCHEM_IUPAC_INCHI>
InChI=1S/C6H11NO2/c1-6(9)7-4-2-3-5-8/h5H,2-4H2,1H3,(H,7,9)

> <PUBCHEM_IUPAC_INCHIKEY>
DDSLGZOYEPKPSJ-UHFFFAOYSA-N

> <PUBCHEM_XLOGP3_AA>
-0.7

> <PUBCHEM_EXACT_MASS>
129.078979

> <PUBCHEM_MOLECULAR_FORMULA>
C6H11NO2

> <PUBCHEM_MOLECULAR_WEIGHT>
129.15704

> <PUBCHEM_OPENEYE_CAN_SMILES>
CC(=O)NCCCC=O

> <PUBCHEM_OPENEYE_ISO_SMILES>
CC(=O)NCCCC=O

> <PUBCHEM_CACTVS_TPSA>
46.2

> <PUBCHEM_MONOISOTOPIC_WEIGHT>
129.078979

> <PUBCHEM_TOTAL_CHARGE>
0

> <PUBCHEM_HEAVY_ATOM_COUNT>
9

> <PUBCHEM_ATOM_DEF_STEREO_COUNT>
0

> <PUBCHEM_ATOM_UDEF_STEREO_COUNT>
0

> <PUBCHEM_BOND_DEF_STEREO_COUNT>
0

> <PUBCHEM_BOND_UDEF_STEREO_COUNT>
0

> <PUBCHEM_ISOTOPIC_ATOM_COUNT>
0

> <PUBCHEM_COMPONENT_COUNT>
1

> <PUBCHEM_CACTVS_TAUTO_COUNT>
4

> <PUBCHEM_COORDINATE_TYPE>
1
5
255

$$$$

