   Color/Form

     * Crystals from isopropanol
     * White solid

   from [1]HSDB

   Melting Point
        80-81 deg C
   from [2]HSDB

   Octanol/Water Partition Coefficient
        log Kow = 5.19 (est)
   from [3]HSDB

   Solubilities

     * In water, 0.42 mg/L at 25 deg C (est)
     * Practically insoluble in water; slightly soluble in methanol,
       ethanol; soluble in acetone, ether, benzene, chloroform

   from [4]HSDB

   Vapor Pressure
        6.2X10-7 mm Hg at 25 deg C (est)
   from [5]HSDB

   Other Chemical/Physical Properties

     * Stable under ordinary conditions
     * Henry's Law constant = 4.5X10-9 atm-cu m/mol at 25 deg C (est)
     * Hydroxyl radical reaction rate constant = 2.5X10-11 cu cm/molec-sec
       at 25 deg C (est)

   from [6]HSDB

   Computed Properties
   Molecular Weight                  360.83134 [g/mol]
   Molecular Formula                 C[20]H[21]ClO[4]
   XLogP3-AA                         5.2
   H-Bond Donor                      0
   H-Bond Acceptor                   4
   Rotatable Bond Count              7
   Exact Mass                        360.112837
   MonoIsotopic Mass                 360.112837
   Topological Polar Surface Area    52.6
   Heavy Atom Count                  25
   Formal Charge                     0
   Complexity                        458
   Isotope Atom Count                0
   Defined Atom Stereocenter Count   0
   Undefined Atom Stereocenter Count 0
   Defined Bond Stereocenter Count   0
   Undefined Bond Stereocenter Count 0
   Covalently-Bonded Unit Count      1
   Feature 3D Acceptor Count         3
   Feature 3D Hydrophobe Count       2
   Feature 3D Ring Count             2
   Effective Rotor Count             7
   Conformer Sampling RMSD           0.8
   CID Conformer Count               [7]259

References

   1. http://toxnet.nlm.nih.gov/cgi-bin/sis/search/r?dbs+hsdb:@term+@rn+@rel+49562-28-9
   2. http://toxnet.nlm.nih.gov/cgi-bin/sis/search/r?dbs+hsdb:@term+@rn+@rel+49562-28-9
   3. http://toxnet.nlm.nih.gov/cgi-bin/sis/search/r?dbs+hsdb:@term+@rn+@rel+49562-28-9
   4. http://toxnet.nlm.nih.gov/cgi-bin/sis/search/r?dbs+hsdb:@term+@rn+@rel+49562-28-9
   5. http://toxnet.nlm.nih.gov/cgi-bin/sis/search/r?dbs+hsdb:@term+@rn+@rel+49562-28-9
   6. http://toxnet.nlm.nih.gov/cgi-bin/sis/search/r?dbs+hsdb:@term+@rn+@rel+49562-28-9
   7. http://pubchem.ncbi.nlm.nih.gov/vw3d/vw3d.cgi?cid=3339
