114859
  -OEChem-07051213082D

 39 40  0     0  0  0  0  0  0999 V2000
    3.7320    0.2500    0.0000 O   0  5  0  0  0  0  0  0  0  0  0  0
    2.8660   -4.2500    0.0000 O   0  5  0  0  0  0  0  0  0  0  0  0
    2.0000   -2.7500    0.0000 O   0  0  0  0  0  0  0  0  0  0  0  0
    3.7320    4.2500    0.0000 O   0  5  0  0  0  0  0  0  0  0  0  0
    2.8660    2.7500    0.0000 O   0  0  0  0  0  0  0  0  0  0  0  0
    6.3301   -4.2500    0.0000 O   0  5  0  0  0  0  0  0  0  0  0  0
    7.1962   -2.7500    0.0000 O   0  0  0  0  0  0  0  0  0  0  0  0
    7.1962    4.2500    0.0000 O   0  5  0  0  0  0  0  0  0  0  0  0
    8.0622    2.7500    0.0000 O   0  0  0  0  0  0  0  0  0  0  0  0
    4.5981   -0.2500    0.0000 N   0  3  0  0  0  0  0  0  0  0  0  0
    5.4641    0.2500    0.0000 N   0  0  0  0  0  0  0  0  0  0  0  0
    2.8660   -3.2500    0.0000 N   0  3  0  0  0  0  0  0  0  0  0  0
    3.7320    3.2500    0.0000 N   0  3  0  0  0  0  0  0  0  0  0  0
    6.3301   -3.2500    0.0000 N   0  3  0  0  0  0  0  0  0  0  0  0
    7.1962    3.2500    0.0000 N   0  3  0  0  0  0  0  0  0  0  0  0
    3.7320   -1.7500    0.0000 C   0  0  0  0  0  0  0  0  0  0  0  0
    4.5981   -1.2500    0.0000 C   0  0  0  0  0  0  0  0  0  0  0  0
    4.5981    1.7500    0.0000 C   0  0  0  0  0  0  0  0  0  0  0  0
    5.4641    1.2500    0.0000 C   0  0  0  0  0  0  0  0  0  0  0  0
    3.7320   -2.7500    0.0000 C   0  0  0  0  0  0  0  0  0  0  0  0
    5.4641   -1.7500    0.0000 C   0  0  0  0  0  0  0  0  0  0  0  0
    4.5981    2.7500    0.0000 C   0  0  0  0  0  0  0  0  0  0  0  0
    5.4641   -2.7500    0.0000 C   0  0  0  0  0  0  0  0  0  0  0  0
    4.5981   -3.2500    0.0000 C   0  0  0  0  0  0  0  0  0  0  0  0
    6.3301    1.7500    0.0000 C   0  0  0  0  0  0  0  0  0  0  0  0
    2.8660   -1.2500    0.0000 C   0  0  0  0  0  0  0  0  0  0  0  0
    6.3301    2.7500    0.0000 C   0  0  0  0  0  0  0  0  0  0  0  0
    5.4641    3.2500    0.0000 C   0  0  0  0  0  0  0  0  0  0  0  0
    3.7320    1.2500    0.0000 C   0  0  0  0  0  0  0  0  0  0  0  0
    6.0010   -1.4400    0.0000 H   0  0  0  0  0  0  0  0  0  0  0  0
    4.5981   -3.8700    0.0000 H   0  0  0  0  0  0  0  0  0  0  0  0
    6.8671    1.4400    0.0000 H   0  0  0  0  0  0  0  0  0  0  0  0
    3.1760   -0.7131    0.0000 H   0  0  0  0  0  0  0  0  0  0  0  0
    2.3291   -0.9400    0.0000 H   0  0  0  0  0  0  0  0  0  0  0  0
    2.5560   -1.7869    0.0000 H   0  0  0  0  0  0  0  0  0  0  0  0
    5.4641    3.8700    0.0000 H   0  0  0  0  0  0  0  0  0  0  0  0
    3.4220    1.7869    0.0000 H   0  0  0  0  0  0  0  0  0  0  0  0
    3.1951    0.9400    0.0000 H   0  0  0  0  0  0  0  0  0  0  0  0
    4.0420    0.7131    0.0000 H   0  0  0  0  0  0  0  0  0  0  0  0
  1 10  1  0  0  0  0
  2 12  1  0  0  0  0
  3 12  2  0  0  0  0
  4 13  1  0  0  0  0
  5 13  2  0  0  0  0
  6 14  1  0  0  0  0
  7 14  2  0  0  0  0
  8 15  1  0  0  0  0
  9 15  2  0  0  0  0
 10 11  2  0  0  0  0
 10 17  1  0  0  0  0
 11 19  1  0  0  0  0
 12 20  1  0  0  0  0
 13 22  1  0  0  0  0
 14 23  1  0  0  0  0
 15 27  1  0  0  0  0
 16 17  2  0  0  0  0
 16 20  1  0  0  0  0
 16 26  1  0  0  0  0
 17 21  1  0  0  0  0
 18 19  2  0  0  0  0
 18 22  1  0  0  0  0
 18 29  1  0  0  0  0
 19 25  1  0  0  0  0
 20 24  2  0  0  0  0
 21 23  2  0  0  0  0
 21 30  1  0  0  0  0
 22 28  2  0  0  0  0
 23 24  1  0  0  0  0
 24 31  1  0  0  0  0
 25 27  2  0  0  0  0
 25 32  1  0  0  0  0
 26 33  1  0  0  0  0
 26 34  1  0  0  0  0
 26 35  1  0  0  0  0
 27 28  1  0  0  0  0
 28 36  1  0  0  0  0
 29 37  1  0  0  0  0
 29 38  1  0  0  0  0
 29 39  1  0  0  0  0
M  CHG  8   1  -1   2  -1   4  -1   6  -1   8  -1  10   1  12   1  13   1
M  CHG  2  14   1  15   1
M  END
> <PUBCHEM_COMPOUND_CID>
114859

> <PUBCHEM_COMPOUND_CANONICALIZED>
1

> <PUBCHEM_CACTVS_COMPLEXITY>
708

> <PUBCHEM_CACTVS_HBOND_ACCEPTOR>
10

> <PUBCHEM_CACTVS_HBOND_DONOR>
0

> <PUBCHEM_CACTVS_ROTATABLE_BOND>
2

> <PUBCHEM_CACTVS_SUBSKEYS>
AAADccBzvAAAAAAAAAAAAAAAAAAAAAAAAAAwYAAAAAAAAAABQAAAHAAMAAAADAiBGAAywIAQQACDAiRCQwCCAAAgAgAgiAAAZIoIICKA0dGAIABggAAIyAcQgAAOCAAAAAQCAAAQAAAACAQAAAAAAAAAAA==

> <PUBCHEM_IUPAC_OPENEYE_NAME>
(2-methyl-3,5-dinitro-phenyl)-(2-methyl-3,5-dinitro-phenyl)imino-oxido-ammonium

> <PUBCHEM_IUPAC_CAS_NAME>
(2-methyl-3,5-dinitrophenyl)-(2-methyl-3,5-dinitrophenyl)imino-oxidoammonium

> <PUBCHEM_IUPAC_NAME>
(2-methyl-3,5-dinitrophenyl)-(2-methyl-3,5-dinitrophenyl)imino-oxidoazanium

> <PUBCHEM_IUPAC_SYSTEMATIC_NAME>
(2-methyl-3,5-dinitro-phenyl)-(2-methyl-3,5-dinitro-phenyl)imino-oxidanidyl-azanium

> <PUBCHEM_IUPAC_TRADITIONAL_NAME>
(2-methyl-3,5-dinitro-phenyl)-(2-methyl-3,5-dinitro-phenyl)imino-oxido-ammonium

> <PUBCHEM_IUPAC_INCHI>
InChI=1S/C14H10N6O9/c1-7-11(3-9(17(22)23)5-13(7)19(26)27)15-16(21)12-4-10(18(24)25)6-14(8(12)2)20(28)29/h3-6H,1-2H3

> <PUBCHEM_IUPAC_INCHIKEY>
CSQSPVBKKCHHDS-UHFFFAOYSA-N

> <PUBCHEM_XLOGP3_AA>
3.2

> <PUBCHEM_EXACT_MASS>
406.050926

> <PUBCHEM_MOLECULAR_FORMULA>
C14H10N6O9

> <PUBCHEM_MOLECULAR_WEIGHT>
406.264

> <PUBCHEM_OPENEYE_CAN_SMILES>
CC1=C(C=C(C=C1N=[N+](C2=C(C(=CC(=C2)[N+](=O)[O-])[N+](=O)[O-])C)[O-])[N+](=O)[O-])[N+](=O)[O-]

> <PUBCHEM_OPENEYE_ISO_SMILES>
CC1=C(C=C(C=C1N=[N+](C2=C(C(=CC(=C2)[N+](=O)[O-])[N+](=O)[O-])C)[O-])[N+](=O)[O-])[N+](=O)[O-]

> <PUBCHEM_CACTVS_TPSA>
224

> <PUBCHEM_MONOISOTOPIC_WEIGHT>
406.050926

> <PUBCHEM_TOTAL_CHARGE>
0

> <PUBCHEM_HEAVY_ATOM_COUNT>
29

> <PUBCHEM_ATOM_DEF_STEREO_COUNT>
0

> <PUBCHEM_ATOM_UDEF_STEREO_COUNT>
0

> <PUBCHEM_BOND_DEF_STEREO_COUNT>
0

> <PUBCHEM_BOND_UDEF_STEREO_COUNT>
0

> <PUBCHEM_ISOTOPIC_ATOM_COUNT>
0

> <PUBCHEM_COMPONENT_COUNT>
1

> <PUBCHEM_CACTVS_TAUTO_COUNT>
1

> <PUBCHEM_COORDINATE_TYPE>
1
5
255

> <PUBCHEM_BONDANNOTATIONS>
16  17  8
16  20  8
17  21  8
18  19  8
18  22  8
19  25  8
20  24  8
21  23  8
22  28  8
23  24  8
25  27  8
27  28  8

$$$$

