23724484
  -OEChem-07051212502D

 75 78  0     1  0  0  0  0  0999 V2000
    2.5357   -3.1598    0.0000 O   0  0  0  0  0  0  0  0  0  0  0  0
    7.9288   -0.1074    0.0000 C   0  0  1  0  0  0  0  0  0  0  0  0
    7.9288   -1.1074    0.0000 C   0  0  3  0  0  0  0  0  0  0  0  0
    8.8750    0.1973    0.0000 C   0  0  3  0  0  0  0  0  0  0  0  0
    5.2868   -1.6143    0.0000 C   0  0  2  0  0  0  0  0  0  0  0  0
    7.0628   -1.6074    0.0000 C   0  0  0  0  0  0  0  0  0  0  0  0
    6.1968   -1.1074    0.0000 C   0  0  0  0  0  0  0  0  0  0  0  0
    5.2787   -2.6559    0.0000 C   0  0  1  0  0  0  0  0  0  0  0  0
    7.0628    0.3926    0.0000 C   0  0  0  0  0  0  0  0  0  0  0  0
    8.8750   -1.4122    0.0000 C   0  0  0  0  0  0  0  0  0  0  0  0
    9.4586   -0.6074    0.0000 C   0  0  0  0  0  0  0  0  0  0  0  0
    6.1968   -0.1074    0.0000 C   0  0  0  0  0  0  0  0  0  0  0  0
    7.0789   -2.6489    0.0000 C   0  0  0  0  0  0  0  0  0  0  0  0
    6.1808   -3.1767    0.0000 C   0  0  0  0  0  0  0  0  0  0  0  0
    4.3433   -3.2056    0.0000 C   0  0  3  0  0  0  0  0  0  0  0  0
    4.3599   -1.0502    0.0000 C   0  0  0  0  0  0  0  0  0  0  0  0
    9.1857    1.1478    0.0000 C   0  0  1  0  0  0  0  0  0  0  0  0
    7.9288    0.8926    0.0000 C   0  0  0  0  0  0  0  0  0  0  0  0
    3.4037   -2.6631    0.0000 C   0  0  2  0  0  0  0  0  0  0  0  0
    3.4120   -1.5782    0.0000 C   0  0  0  0  0  0  0  0  0  0  0  0
    5.2945   -0.6143    0.0000 C   0  0  0  0  0  0  0  0  0  0  0  0
   10.1642    1.3540    0.0000 C   0  0  0  0  0  0  0  0  0  0  0  0
    4.3472   -4.2056    0.0000 C   0  0  0  0  0  0  0  0  0  0  0  0
    8.5179    1.8921    0.0000 C   0  0  0  0  0  0  0  0  0  0  0  0
   10.4749    2.3046    0.0000 C   0  0  0  0  0  0  0  0  0  0  0  0
   11.4534    2.5108    0.0000 C   0  0  0  0  0  0  0  0  0  0  0  0
   11.7640    3.4613    0.0000 C   0  0  0  0  0  0  0  0  0  0  0  0
   12.7425    3.6675    0.0000 C   0  0  0  0  0  0  0  0  0  0  0  0
   11.0962    4.2056    0.0000 C   0  0  0  0  0  0  0  0  0  0  0  0
    7.9944   -1.7240    0.0000 H   0  0  0  0  0  0  0  0  0  0  0  0
    9.4875    0.2935    0.0000 H   0  0  0  0  0  0  0  0  0  0  0  0
    5.2820   -3.5059    0.0000 H   0  0  0  0  0  0  0  0  0  0  0  0
    7.4613    0.8675    0.0000 H   0  0  0  0  0  0  0  0  0  0  0  0
    6.6643    0.8675    0.0000 H   0  0  0  0  0  0  0  0  0  0  0  0
    8.6240   -1.9791    0.0000 H   0  0  0  0  0  0  0  0  0  0  0  0
    9.4124   -1.7214    0.0000 H   0  0  0  0  0  0  0  0  0  0  0  0
    9.9195   -1.0222    0.0000 H   0  0  0  0  0  0  0  0  0  0  0  0
    9.9195   -0.1927    0.0000 H   0  0  0  0  0  0  0  0  0  0  0  0
    5.9847    0.4752    0.0000 H   0  0  0  0  0  0  0  0  0  0  0  0
    5.5862   -0.2151    0.0000 H   0  0  0  0  0  0  0  0  0  0  0  0
    7.2969   -3.2293    0.0000 H   0  0  0  0  0  0  0  0  0  0  0  0
    7.6880   -2.5334    0.0000 H   0  0  0  0  0  0  0  0  0  0  0  0
    5.7835   -3.6527    0.0000 H   0  0  0  0  0  0  0  0  0  0  0  0
    6.5818   -3.6496    0.0000 H   0  0  0  0  0  0  0  0  0  0  0  0
    3.8070   -3.5166    0.0000 H   0  0  0  0  0  0  0  0  0  0  0  0
    4.7681   -0.5835    0.0000 H   0  0  0  0  0  0  0  0  0  0  0  0
    3.9700   -0.5682    0.0000 H   0  0  0  0  0  0  0  0  0  0  0  0
    9.3783    1.7371    0.0000 H   0  0  0  0  0  0  0  0  0  0  0  0
    8.5488    0.8926    0.0000 H   0  0  0  0  0  0  0  0  0  0  0  0
    7.9288    1.5126    0.0000 H   0  0  0  0  0  0  0  0  0  0  0  0
    7.3088    0.8926    0.0000 H   0  0  0  0  0  0  0  0  0  0  0  0
    3.4025   -3.2831    0.0000 H   0  0  0  0  0  0  0  0  0  0  0  0
    3.2075   -0.9929    0.0000 H   0  0  0  0  0  0  0  0  0  0  0  0
    2.8004   -1.6795    0.0000 H   0  0  0  0  0  0  0  0  0  0  0  0
    5.9145   -0.6191    0.0000 H   0  0  0  0  0  0  0  0  0  0  0  0
    5.2993    0.0057    0.0000 H   0  0  0  0  0  0  0  0  0  0  0  0
    4.6745   -0.6095    0.0000 H   0  0  0  0  0  0  0  0  0  0  0  0
   10.1848    0.7344    0.0000 H   0  0  0  0  0  0  0  0  0  0  0  0
   10.7780    1.2667    0.0000 H   0  0  0  0  0  0  0  0  0  0  0  0
    3.7272   -4.2080    0.0000 H   0  0  0  0  0  0  0  0  0  0  0  0
    4.3496   -4.8256    0.0000 H   0  0  0  0  0  0  0  0  0  0  0  0
    4.9672   -4.2032    0.0000 H   0  0  0  0  0  0  0  0  0  0  0  0
    8.9793    2.3062    0.0000 H   0  0  0  0  0  0  0  0  0  0  0  0
    8.1038    2.3536    0.0000 H   0  0  0  0  0  0  0  0  0  0  0  0
    8.0564    1.4781    0.0000 H   0  0  0  0  0  0  0  0  0  0  0  0
   10.4543    2.9242    0.0000 H   0  0  0  0  0  0  0  0  0  0  0  0
    9.8611    2.3919    0.0000 H   0  0  0  0  0  0  0  0  0  0  0  0
    2.0000   -2.8477    0.0000 H   0  0  0  0  0  0  0  0  0  0  0  0
   11.8674    2.0493    0.0000 H   0  0  0  0  0  0  0  0  0  0  0  0
   11.5577    4.6197    0.0000 H   0  0  0  0  0  0  0  0  0  0  0  0
   12.8704    3.0608    0.0000 H   0  0  0  0  0  0  0  0  0  0  0  0
   13.3492    3.7954    0.0000 H   0  0  0  0  0  0  0  0  0  0  0  0
   12.6147    4.2742    0.0000 H   0  0  0  0  0  0  0  0  0  0  0  0
   10.6821    4.6671    0.0000 H   0  0  0  0  0  0  0  0  0  0  0  0
   10.6347    3.7915    0.0000 H   0  0  0  0  0  0  0  0  0  0  0  0
 19  1  1  1  0  0  0
  1 68  1  0  0  0  0
  2  3  1  0  0  0  0
  2  4  1  0  0  0  0
  2  9  1  0  0  0  0
  2 18  1  1  0  0  0
  3  6  1  0  0  0  0
  3 10  1  0  0  0  0
  3 30  1  0  0  0  0
  4 11  1  0  0  0  0
  4 17  1  0  0  0  0
  4 31  1  0  0  0  0
  5  7  1  0  0  0  0
  5  8  1  0  0  0  0
  5 16  1  0  0  0  0
  5 21  1  1  0  0  0
  6  7  2  0  0  0  0
  6 13  1  0  0  0  0
  7 12  1  0  0  0  0
  8 14  1  0  0  0  0
  8 15  1  0  0  0  0
  8 32  1  6  0  0  0
  9 12  1  0  0  0  0
  9 33  1  0  0  0  0
  9 34  1  0  0  0  0
 10 11  1  0  0  0  0
 10 35  1  0  0  0  0
 10 36  1  0  0  0  0
 11 37  1  0  0  0  0
 11 38  1  0  0  0  0
 12 39  1  0  0  0  0
 12 40  1  0  0  0  0
 13 14  1  0  0  0  0
 13 41  1  0  0  0  0
 13 42  1  0  0  0  0
 14 43  1  0  0  0  0
 14 44  1  0  0  0  0
 15 19  1  0  0  0  0
 15 23  1  0  0  0  0
 15 45  1  0  0  0  0
 16 20  1  0  0  0  0
 16 46  1  0  0  0  0
 16 47  1  0  0  0  0
 17 22  1  0  0  0  0
 17 24  1  6  0  0  0
 17 48  1  0  0  0  0
 18 49  1  0  0  0  0
 18 50  1  0  0  0  0
 18 51  1  0  0  0  0
 19 20  1  0  0  0  0
 19 52  1  0  0  0  0
 20 53  1  0  0  0  0
 20 54  1  0  0  0  0
 21 55  1  0  0  0  0
 21 56  1  0  0  0  0
 21 57  1  0  0  0  0
 22 25  1  0  0  0  0
 22 58  1  0  0  0  0
 22 59  1  0  0  0  0
 23 60  1  0  0  0  0
 23 61  1  0  0  0  0
 23 62  1  0  0  0  0
 24 63  1  0  0  0  0
 24 64  1  0  0  0  0
 24 65  1  0  0  0  0
 25 26  1  0  0  0  0
 25 66  1  0  0  0  0
 25 67  1  0  0  0  0
 26 27  2  0  0  0  0
 26 69  1  0  0  0  0
 27 28  1  0  0  0  0
 27 29  1  0  0  0  0
 28 71  1  0  0  0  0
 28 72  1  0  0  0  0
 28 73  1  0  0  0  0
 29 70  1  0  0  0  0
 29 74  1  0  0  0  0
 29 75  1  0  0  0  0
M  END
> <PUBCHEM_COMPOUND_CID>
23724484

> <PUBCHEM_COMPOUND_CANONICALIZED>
1

> <PUBCHEM_CACTVS_COMPLEXITY>
682

> <PUBCHEM_CACTVS_HBOND_ACCEPTOR>
1

> <PUBCHEM_CACTVS_HBOND_DONOR>
1

> <PUBCHEM_CACTVS_ROTATABLE_BOND>
4

> <PUBCHEM_CACTVS_SUBSKEYS>
AAADcfB4IAAAAAAAAAAAAAAAAAAAAYAAAAAwQIAAAAAAAEDAAAAAGgAACAAADxSggAICAAAAAgCAAiBCAAAAAAAgAAAACAAAAAgAEAIAAQAAQAAEgAAIAAOAwPAPgAAAAAAAAABAAAYAADAAAQAACAAAAA==

> <PUBCHEM_IUPAC_OPENEYE_NAME>
(3S,5S,10S,13R)-17-[(1R)-1,5-dimethylhex-4-enyl]-4,10,13-trimethyl-2,3,4,5,6,7,11,12,14,15,16,17-dodecahydro-1H-cyclopenta[a]phenanthren-3-ol

> <PUBCHEM_IUPAC_CAS_NAME>
(3S,5S,10S,13R)-4,10,13-trimethyl-17-[(2R)-6-methylhept-5-en-2-yl]-2,3,4,5,6,7,11,12,14,15,16,17-dodecahydro-1H-cyclopenta[a]phenanthren-3-ol

> <PUBCHEM_IUPAC_NAME>
(3S,5S,10S,13R)-4,10,13-trimethyl-17-[(2R)-6-methylhept-5-en-2-yl]-2,3,4,5,6,7,11,12,14,15,16,17-dodecahydro-1H-cyclopenta[a]phenanthren-3-ol

> <PUBCHEM_IUPAC_SYSTEMATIC_NAME>
(3S,5S,10S,13R)-4,10,13-trimethyl-17-[(2R)-6-methylhept-5-en-2-yl]-2,3,4,5,6,7,11,12,14,15,16,17-dodecahydro-1H-cyclopenta[a]phenanthren-3-ol

> <PUBCHEM_IUPAC_TRADITIONAL_NAME>
(3S,5S,10S,13R)-17-[(1R)-1,5-dimethylhex-4-enyl]-4,10,13-trimethyl-2,3,4,5,6,7,11,12,14,15,16,17-dodecahydro-1H-cyclopenta[a]phenanthren-3-ol

> <PUBCHEM_IUPAC_INCHI>
InChI=1S/C28H46O/c1-18(2)8-7-9-19(3)22-12-13-24-21-10-11-23-20(4)26(29)15-17-28(23,6)25(21)14-16-27(22,24)5/h8,19-20,22-24,26,29H,7,9-17H2,1-6H3/t19-,20?,22?,23+,24?,26+,27-,28+/m1/s1

> <PUBCHEM_IUPAC_INCHIKEY>
FOUJWBXBKVVHCJ-GXYLSVPFSA-N

> <PUBCHEM_XLOGP3_AA>
8

> <PUBCHEM_EXACT_MASS>
398.354866

> <PUBCHEM_MOLECULAR_FORMULA>
C28H46O

> <PUBCHEM_MOLECULAR_WEIGHT>
398.66424

> <PUBCHEM_OPENEYE_CAN_SMILES>
CC1C2CCC3=C(C2(CCC1O)C)CCC4(C3CCC4C(C)CCC=C(C)C)C

> <PUBCHEM_OPENEYE_ISO_SMILES>
CC1[C@@H]2CCC3=C([C@]2(CC[C@@H]1O)C)CC[C@]4(C3CCC4[C@H](C)CCC=C(C)C)C

> <PUBCHEM_CACTVS_TPSA>
20.2

> <PUBCHEM_MONOISOTOPIC_WEIGHT>
398.354866

> <PUBCHEM_TOTAL_CHARGE>
0

> <PUBCHEM_HEAVY_ATOM_COUNT>
29

> <PUBCHEM_ATOM_DEF_STEREO_COUNT>
5

> <PUBCHEM_ATOM_UDEF_STEREO_COUNT>
3

> <PUBCHEM_BOND_DEF_STEREO_COUNT>
0

> <PUBCHEM_BOND_UDEF_STEREO_COUNT>
0

> <PUBCHEM_ISOTOPIC_ATOM_COUNT>
0

> <PUBCHEM_COMPONENT_COUNT>
1

> <PUBCHEM_CACTVS_TAUTO_COUNT>
1

> <PUBCHEM_COORDINATE_TYPE>
1
5
255

> <PUBCHEM_BONDANNOTATIONS>
19  1  5
15  23  3
17  24  6
2  18  5
3  10  3
4  11  3
5  21  5
8  32  6

$$$$

