   Color/Form
        Stout prisms
   from [1]HSDB

   Dissociation Constants

     * pKa = 8.93
     * pKa1 = 8.71 (phenol); pKa2 = 10.90 (amine); pKa3 = 13.68 (phenol)
       (est)

   from [2]HSDB

   Octanol/Water Partition Coefficient
        log Kow = -0.98
   from [3]HSDB

   Solubilities

     * Freely soluble in water, methanol, and hot 95% ethanol but is
       practically insoluble in ether, petroleum ether, chloroform,
       benzene, and toluene.
     * In water, 1X10+6 mg/L at 25 deg C (miscible) (est)

   from [4]HSDB

   Vapor Pressure
        1.6X10-5 mm Hg at 25 deg C (est)
   from [5]HSDB

   Other Chemical/Physical Properties

     * Free base; highly sensitive to oxygen; discolors quickly
     * Rosettes of needles from water; decomp at 241 deg C; may be
       recrystallized from methanol + ether /Hydrochloride/
     * Freely sol in water; sol in methanol, in hot 95% ethanol, in aq
       soln of alkali hydroxides; practically insol in petroleum ether,
       ether, benzene, chloroform, toluene /Hydrochloride/
     * Crystals; decomp at 210-214 deg C /Hydrobromide/
     * WHITE CRYSTALLINE POWDER /HYDROCHLORIDE/
     * ODORLESS, BITTER-TASTING; DOES NOT EXHIBIT POLYMORPHISM
       /HYDROCHLORIDE/
     * Henry's Law constant = 8.8X10-15 atm-cu m/mol at 25 deg C (est)
     * Hydroxyl radical reaction rate constant = 9.0X10-11 cu m/molec-sec
       at 25 deg C (est)

   from [6]HSDB

   Computed Properties
   Molecular Weight                  153.17844 [g/mol]
   Molecular Formula                 C[8]H[11]NO[2]
   XLogP3                            -1
   H-Bond Donor                      3
   H-Bond Acceptor                   3
   Rotatable Bond Count              2
   Tautomer Count                    18
   Exact Mass                        153.078979
   MonoIsotopic Mass                 153.078979
   Topological Polar Surface Area    66.5
   Heavy Atom Count                  11
   Formal Charge                     0
   Complexity                        119
   Isotope Atom Count                0
   Defined Atom Stereocenter Count   0
   Undefined Atom Stereocenter Count 0
   Defined Bond Stereocenter Count   0
   Undefined Bond Stereocenter Count 0
   Covalently-Bonded Unit Count      1
   Feature 3D Donor Count            3
   Feature 3D Cation Count           1
   Feature 3D Ring Count             1
   Effective Rotor Count             2
   Conformer Sampling RMSD           0.4
   CID Conformer Count               [7]12

References

   1. http://toxnet.nlm.nih.gov/cgi-bin/sis/search/r?dbs+hsdb:@term+@rn+@rel+51-61-6
   2. http://toxnet.nlm.nih.gov/cgi-bin/sis/search/r?dbs+hsdb:@term+@rn+@rel+51-61-6
   3. http://toxnet.nlm.nih.gov/cgi-bin/sis/search/r?dbs+hsdb:@term+@rn+@rel+51-61-6
   4. http://toxnet.nlm.nih.gov/cgi-bin/sis/search/r?dbs+hsdb:@term+@rn+@rel+51-61-6
   5. http://toxnet.nlm.nih.gov/cgi-bin/sis/search/r?dbs+hsdb:@term+@rn+@rel+51-61-6
   6. http://toxnet.nlm.nih.gov/cgi-bin/sis/search/r?dbs+hsdb:@term+@rn+@rel+51-61-6
   7. http://pubchem.ncbi.nlm.nih.gov/vw3d/vw3d.cgi?cid=681
