5282007
  -OEChem-07051213022D

 86 89  0     1  0  0  0  0  0999 V2000
    8.1282   -2.0000    0.0000 O   0  0  0  0  0  0  0  0  0  0  0  0
    8.1282   -1.0000    0.0000 O   0  0  0  0  0  0  0  0  0  0  0  0
    5.5301    0.5000    0.0000 O   0  0  0  0  0  0  0  0  0  0  0  0
    4.6641    4.0000    0.0000 O   0  0  0  0  0  0  0  0  0  0  0  0
    6.5301    1.5000    0.0000 O   0  0  0  0  0  0  0  0  0  0  0  0
   10.7263    3.5000    0.0000 O   0  0  0  0  0  0  0  0  0  0  0  0
    2.0000    3.5242    0.0000 O   0  0  0  0  0  0  0  0  0  0  0  0
    7.2622   -1.5000    0.0000 C   0  0  1  0  0  0  0  0  0  0  0  0
    6.3961   -1.0000    0.0000 C   0  0  0  0  0  0  0  0  0  0  0  0
    6.3961    0.0000    0.0000 C   0  0  2  0  0  0  0  0  0  0  0  0
    8.1282   -3.0000    0.0000 C   0  0  1  0  0  0  0  0  0  0  0  0
    8.1282    0.0000    0.0000 C   0  0  1  0  0  0  0  0  0  0  0  0
    7.2622    0.5000    0.0000 C   0  0  0  0  0  0  0  0  0  0  0  0
    7.2622   -3.5000    0.0000 C   0  0  2  0  0  0  0  0  0  0  0  0
    6.3961   -2.0000    0.0000 C   0  0  0  0  0  0  0  0  0  0  0  0
    8.9942   -3.5000    0.0000 C   0  0  0  0  0  0  0  0  0  0  0  0
    6.3961   -3.0000    0.0000 C   0  0  0  0  0  0  0  0  0  0  0  0
    8.9942    0.5000    0.0000 C   0  0  0  0  0  0  0  0  0  0  0  0
    7.2622   -4.5000    0.0000 C   0  0  0  0  0  0  0  0  0  0  0  0
    4.6641    2.0000    0.0000 C   0  0  2  0  0  0  0  0  0  0  0  0
    4.6641    3.0000    0.0000 C   0  0  2  0  0  0  0  0  0  0  0  0
    8.9942   -4.5000    0.0000 C   0  0  0  0  0  0  0  0  0  0  0  0
    9.8602   -3.0000    0.0000 C   0  0  0  0  0  0  0  0  0  0  0  0
    5.5301    1.5000    0.0000 C   0  0  0  0  0  0  0  0  0  0  0  0
    8.9942    1.5000    0.0000 C   0  0  0  0  0  0  0  0  0  0  0  0
    3.7702    3.5347    0.0000 C   0  0  0  0  0  0  0  0  0  0  0  0
    3.7702    1.4653    0.0000 C   0  0  0  0  0  0  0  0  0  0  0  0
    5.5301    3.5000    0.0000 C   0  0  0  0  0  0  0  0  0  0  0  0
    9.8602    2.0000    0.0000 C   0  0  0  0  0  0  0  0  0  0  0  0
    2.8641    1.9792    0.0000 C   0  0  0  0  0  0  0  0  0  0  0  0
    2.8641    3.0208    0.0000 C   0  0  0  0  0  0  0  0  0  0  0  0
    9.8602    3.0000    0.0000 C   0  0  2  0  0  0  0  0  0  0  0  0
    8.9942    3.5000    0.0000 C   0  0  2  0  0  0  0  0  0  0  0  0
    6.3961    3.0000    0.0000 C   0  0  0  0  0  0  0  0  0  0  0  0
    5.5301    4.5000    0.0000 C   0  0  0  0  0  0  0  0  0  0  0  0
   10.7263    1.5000    0.0000 C   0  0  0  0  0  0  0  0  0  0  0  0
    2.0000    1.4759    0.0000 C   0  0  0  0  0  0  0  0  0  0  0  0
    8.1282    3.0000    0.0000 C   0  0  0  0  0  0  0  0  0  0  0  0
    7.2622    3.5000    0.0000 C   0  0  0  0  0  0  0  0  0  0  0  0
    8.9942    4.5000    0.0000 C   0  0  0  0  0  0  0  0  0  0  0  0
    5.7856   -0.8923    0.0000 H   0  0  0  0  0  0  0  0  0  0  0  0
    6.1841   -1.5826    0.0000 H   0  0  0  0  0  0  0  0  0  0  0  0
    5.6600   -0.4250    0.0000 H   0  0  0  0  0  0  0  0  0  0  0  0
    8.6651   -2.6900    0.0000 H   0  0  0  0  0  0  0  0  0  0  0  0
    8.8643   -0.4250    0.0000 H   0  0  0  0  0  0  0  0  0  0  0  0
    7.6607    0.9749    0.0000 H   0  0  0  0  0  0  0  0  0  0  0  0
    6.8636    0.9749    0.0000 H   0  0  0  0  0  0  0  0  0  0  0  0
    6.7252   -3.8100    0.0000 H   0  0  0  0  0  0  0  0  0  0  0  0
    5.8592   -1.6900    0.0000 H   0  0  0  0  0  0  0  0  0  0  0  0
    8.4573   -3.8100    0.0000 H   0  0  0  0  0  0  0  0  0  0  0  0
    5.8592   -3.3100    0.0000 H   0  0  0  0  0  0  0  0  0  0  0  0
    9.2063   -0.0826    0.0000 H   0  0  0  0  0  0  0  0  0  0  0  0
    9.6048    0.6077    0.0000 H   0  0  0  0  0  0  0  0  0  0  0  0
    6.6422   -4.5000    0.0000 H   0  0  0  0  0  0  0  0  0  0  0  0
    7.2622   -5.1200    0.0000 H   0  0  0  0  0  0  0  0  0  0  0  0
    7.8822   -4.5000    0.0000 H   0  0  0  0  0  0  0  0  0  0  0  0
    4.6641    1.1500    0.0000 H   0  0  0  0  0  0  0  0  0  0  0  0
    8.3742   -4.5000    0.0000 H   0  0  0  0  0  0  0  0  0  0  0  0
    8.9942   -5.1200    0.0000 H   0  0  0  0  0  0  0  0  0  0  0  0
    9.6142   -4.5000    0.0000 H   0  0  0  0  0  0  0  0  0  0  0  0
   10.1703   -3.5369    0.0000 H   0  0  0  0  0  0  0  0  0  0  0  0
   10.3972   -2.6900    0.0000 H   0  0  0  0  0  0  0  0  0  0  0  0
    9.5502   -2.4631    0.0000 H   0  0  0  0  0  0  0  0  0  0  0  0
    8.4573    1.8100    0.0000 H   0  0  0  0  0  0  0  0  0  0  0  0
    4.1748    4.0044    0.0000 H   0  0  0  0  0  0  0  0  0  0  0  0
    3.3765    4.0137    0.0000 H   0  0  0  0  0  0  0  0  0  0  0  0
    3.7773    0.8454    0.0000 H   0  0  0  0  0  0  0  0  0  0  0  0
   10.3972    2.6900    0.0000 H   0  0  0  0  0  0  0  0  0  0  0  0
    4.1272    4.3100    0.0000 H   0  0  0  0  0  0  0  0  0  0  0  0
    8.4573    3.8100    0.0000 H   0  0  0  0  0  0  0  0  0  0  0  0
    6.7062    2.4631    0.0000 H   0  0  0  0  0  0  0  0  0  0  0  0
    6.1501    4.5000    0.0000 H   0  0  0  0  0  0  0  0  0  0  0  0
    5.5301    5.1200    0.0000 H   0  0  0  0  0  0  0  0  0  0  0  0
    4.9101    4.5000    0.0000 H   0  0  0  0  0  0  0  0  0  0  0  0
   10.4163    0.9631    0.0000 H   0  0  0  0  0  0  0  0  0  0  0  0
   11.2632    1.1900    0.0000 H   0  0  0  0  0  0  0  0  0  0  0  0
   11.0363    2.0369    0.0000 H   0  0  0  0  0  0  0  0  0  0  0  0
    1.6879    2.0116    0.0000 H   0  0  0  0  0  0  0  0  0  0  0  0
    1.4643    1.1638    0.0000 H   0  0  0  0  0  0  0  0  0  0  0  0
    2.3121    0.9401    0.0000 H   0  0  0  0  0  0  0  0  0  0  0  0
    8.1282    2.3800    0.0000 H   0  0  0  0  0  0  0  0  0  0  0  0
    7.2622    4.1200    0.0000 H   0  0  0  0  0  0  0  0  0  0  0  0
    9.6142    4.5000    0.0000 H   0  0  0  0  0  0  0  0  0  0  0  0
    8.9942    5.1200    0.0000 H   0  0  0  0  0  0  0  0  0  0  0  0
    8.3742    4.5000    0.0000 H   0  0  0  0  0  0  0  0  0  0  0  0
   11.2632    3.1900    0.0000 H   0  0  0  0  0  0  0  0  0  0  0  0
  8  1  1  6  0  0  0
  1 11  1  0  0  0  0
  2  8  1  0  0  0  0
  2 12  1  0  0  0  0
  3 10  1  0  0  0  0
  3 24  1  0  0  0  0
 21  4  1  6  0  0  0
  4 69  1  0  0  0  0
  5 24  2  0  0  0  0
 32  6  1  6  0  0  0
  6 86  1  0  0  0  0
  7 31  2  0  0  0  0
  8  9  1  0  0  0  0
  8 15  1  0  0  0  0
  9 10  1  0  0  0  0
  9 41  1  0  0  0  0
  9 42  1  0  0  0  0
 10 13  1  0  0  0  0
 10 43  1  6  0  0  0
 11 14  1  0  0  0  0
 11 16  1  6  0  0  0
 11 44  1  0  0  0  0
 12 13  1  0  0  0  0
 12 18  1  0  0  0  0
 12 45  1  6  0  0  0
 13 46  1  0  0  0  0
 13 47  1  0  0  0  0
 14 17  1  0  0  0  0
 14 19  1  1  0  0  0
 14 48  1  0  0  0  0
 15 17  2  0  0  0  0
 15 49  1  0  0  0  0
 16 22  1  0  0  0  0
 16 23  1  0  0  0  0
 16 50  1  0  0  0  0
 17 51  1  0  0  0  0
 18 25  1  0  0  0  0
 18 52  1  0  0  0  0
 18 53  1  0  0  0  0
 19 54  1  0  0  0  0
 19 55  1  0  0  0  0
 19 56  1  0  0  0  0
 20 21  1  0  0  0  0
 20 24  1  0  0  0  0
 20 27  1  0  0  0  0
 20 57  1  1  0  0  0
 21 26  1  0  0  0  0
 21 28  1  0  0  0  0
 22 58  1  0  0  0  0
 22 59  1  0  0  0  0
 22 60  1  0  0  0  0
 23 61  1  0  0  0  0
 23 62  1  0  0  0  0
 23 63  1  0  0  0  0
 25 29  2  0  0  0  0
 25 64  1  0  0  0  0
 26 31  1  0  0  0  0
 26 65  1  0  0  0  0
 26 66  1  0  0  0  0
 27 30  2  0  0  0  0
 27 67  1  0  0  0  0
 28 34  2  0  0  0  0
 28 35  1  0  0  0  0
 29 32  1  0  0  0  0
 29 36  1  0  0  0  0
 30 31  1  0  0  0  0
 30 37  1  0  0  0  0
 32 33  1  0  0  0  0
 32 68  1  0  0  0  0
 33 38  1  0  0  0  0
 33 40  1  6  0  0  0
 33 70  1  0  0  0  0
 34 39  1  0  0  0  0
 34 71  1  0  0  0  0
 35 72  1  0  0  0  0
 35 73  1  0  0  0  0
 35 74  1  0  0  0  0
 36 75  1  0  0  0  0
 36 76  1  0  0  0  0
 36 77  1  0  0  0  0
 37 78  1  0  0  0  0
 37 79  1  0  0  0  0
 37 80  1  0  0  0  0
 38 39  2  0  0  0  0
 38 81  1  0  0  0  0
 39 82  1  0  0  0  0
 40 83  1  0  0  0  0
 40 84  1  0  0  0  0
 40 85  1  0  0  0  0
M  END
> <PUBCHEM_COMPOUND_CID>
5282007

> <PUBCHEM_COMPOUND_CANONICALIZED>
1

> <PUBCHEM_CACTVS_COMPLEXITY>
1140

> <PUBCHEM_CACTVS_HBOND_ACCEPTOR>
7

> <PUBCHEM_CACTVS_HBOND_DONOR>
2

> <PUBCHEM_CACTVS_ROTATABLE_BOND>
1

> <PUBCHEM_CACTVS_SUBSKEYS>
AAADcfB8OAAAAAAAAAAAAAAAAAAAAAAAAAAkQIAAAAAAAAAAAAAAGgAACAAADVSggAICCAAABgCIAqDSCAAAAAAgAAAICAEAAEgYFBYAIQAiUAAF4AAMsYOI7uyugAAAAAAAAAAAAAAAAAAAAAAAAAAAAA==

> <PUBCHEM_IUPAC_INCHI>
InChI=1S/C33H46O7/c1-19(2)30-22(5)13-14-32(40-30)17-26-16-25(39-32)12-11-21(4)29(35)20(3)9-8-10-24(7)33(37)18-28(34)23(6)15-27(33)31(36)38-26/h8-11,13-15,19-20,22,25-27,29-30,35,37H,12,16-18H2,1-7H3/b9-8+,21-11+,24-10+/t20-,22-,25+,26-,27-,29-,30+,32+,33+/m0/s1

> <PUBCHEM_IUPAC_INCHIKEY>
LJZCBZHTBRRKCW-HJKYXOAMSA-N

> <PUBCHEM_XLOGP3_AA>
4.3

> <PUBCHEM_EXACT_MASS>
554.324354

> <PUBCHEM_MOLECULAR_FORMULA>
C33H46O7

> <PUBCHEM_MOLECULAR_WEIGHT>
554.71414

> <PUBCHEM_OPENEYE_CAN_SMILES>
CC1C=CC=C(C2(CC(=O)C(=CC2C(=O)OC3CC(CC=C(C1O)C)OC4(C3)C=CC(C(O4)C(C)C)C)C)O)C

> <PUBCHEM_OPENEYE_ISO_SMILES>
C[C@H]1/C=C/C=C(/[C@@]2(CC(=O)C(=C[C@H]2C(=O)O[C@H]3C[C@@H](C/C=C(/[C@H]1O)\C)O[C@]4(C3)C=C[C@@H]([C@H](O4)C(C)C)C)C)O)\C

> <PUBCHEM_CACTVS_TPSA>
102

> <PUBCHEM_MONOISOTOPIC_WEIGHT>
554.324354

> <PUBCHEM_TOTAL_CHARGE>
0

> <PUBCHEM_HEAVY_ATOM_COUNT>
40

> <PUBCHEM_ATOM_DEF_STEREO_COUNT>
9

> <PUBCHEM_ATOM_UDEF_STEREO_COUNT>
0

> <PUBCHEM_BOND_DEF_STEREO_COUNT>
3

> <PUBCHEM_BOND_UDEF_STEREO_COUNT>
0

> <PUBCHEM_ISOTOPIC_ATOM_COUNT>
0

> <PUBCHEM_COMPONENT_COUNT>
1

> <PUBCHEM_CACTVS_TAUTO_COUNT>
7

> <PUBCHEM_COORDINATE_TYPE>
1
5
255

> <PUBCHEM_BONDANNOTATIONS>
8  1  6
10  43  6
11  16  6
12  45  6
14  19  5
20  57  5
33  40  6
21  4  6
32  6  6

$$$$

