443745
  -OEChem-07051213032D

 50 52  0     1  0  0  0  0  0999 V2000
    3.5000    2.5981    0.0000 O   0  0  0  0  0  0  0  0  0  0  0  0
    2.5000    0.8660    0.0000 O   0  0  0  0  0  0  0  0  0  0  0  0
    9.1260    2.4007    0.0000 N   0  0  0  0  0  0  0  0  0  0  0  0
    6.0000   -1.7320    0.0000 N   0  0  0  0  0  0  0  0  0  0  0  0
    6.5000    0.8660    0.0000 C   0  0  2  0  0  0  0  0  0  0  0  0
    6.5000    1.8660    0.0000 C   0  0  0  0  0  0  0  0  0  0  0  0
    7.3660    0.3660    0.0000 C   0  0  0  0  0  0  0  0  0  0  0  0
    6.0000    0.0000    0.0000 C   0  0  0  0  0  0  0  0  0  0  0  0
    7.3660    2.3660    0.0000 C   0  0  0  0  0  0  0  0  0  0  0  0
    5.5000    0.8660    0.0000 C   0  0  0  0  0  0  0  0  0  0  0  0
    8.2320    0.8660    0.0000 C   0  0  0  0  0  0  0  0  0  0  0  0
    8.2320    1.8660    0.0000 C   0  0  0  0  0  0  0  0  0  0  0  0
    6.5000   -0.8660    0.0000 C   0  0  0  0  0  0  0  0  0  0  0  0
    5.0000    1.7320    0.0000 C   0  0  0  0  0  0  0  0  0  0  0  0
    5.0000    0.0000    0.0000 C   0  0  0  0  0  0  0  0  0  0  0  0
    9.1260    0.3314    0.0000 C   0  0  0  0  0  0  0  0  0  0  0  0
    4.0000    1.7320    0.0000 C   0  0  0  0  0  0  0  0  0  0  0  0
    4.0000    0.0000    0.0000 C   0  0  0  0  0  0  0  0  0  0  0  0
   10.0321    0.8452    0.0000 C   0  0  0  0  0  0  0  0  0  0  0  0
    3.5000    0.8660    0.0000 C   0  0  0  0  0  0  0  0  0  0  0  0
   10.0321    1.8868    0.0000 C   0  0  0  0  0  0  0  0  0  0  0  0
    6.5000   -2.5981    0.0000 C   0  0  0  0  0  0  0  0  0  0  0  0
    2.5000    2.5981    0.0000 C   0  0  0  0  0  0  0  0  0  0  0  0
    2.0000    0.0000    0.0000 C   0  0  0  0  0  0  0  0  0  0  0  0
    6.2880    2.4486    0.0000 H   0  0  0  0  0  0  0  0  0  0  0  0
    5.8894    1.7584    0.0000 H   0  0  0  0  0  0  0  0  0  0  0  0
    6.9675   -0.1089    0.0000 H   0  0  0  0  0  0  0  0  0  0  0  0
    7.7646   -0.1089    0.0000 H   0  0  0  0  0  0  0  0  0  0  0  0
    5.5250    0.3985    0.0000 H   0  0  0  0  0  0  0  0  0  0  0  0
    5.5250   -0.3985    0.0000 H   0  0  0  0  0  0  0  0  0  0  0  0
    7.7646    2.8410    0.0000 H   0  0  0  0  0  0  0  0  0  0  0  0
    6.9675    2.8410    0.0000 H   0  0  0  0  0  0  0  0  0  0  0  0
    6.9750   -1.2646    0.0000 H   0  0  0  0  0  0  0  0  0  0  0  0
    6.9750   -0.4675    0.0000 H   0  0  0  0  0  0  0  0  0  0  0  0
    5.3100    2.2690    0.0000 H   0  0  0  0  0  0  0  0  0  0  0  0
    5.3100   -0.5369    0.0000 H   0  0  0  0  0  0  0  0  0  0  0  0
    9.1188   -0.2886    0.0000 H   0  0  0  0  0  0  0  0  0  0  0  0
    5.3800   -1.7320    0.0000 H   0  0  0  0  0  0  0  0  0  0  0  0
    3.6900   -0.5369    0.0000 H   0  0  0  0  0  0  0  0  0  0  0  0
   10.5678    0.5331    0.0000 H   0  0  0  0  0  0  0  0  0  0  0  0
   10.5678    2.1989    0.0000 H   0  0  0  0  0  0  0  0  0  0  0  0
    5.9631   -2.9081    0.0000 H   0  0  0  0  0  0  0  0  0  0  0  0
    6.8100   -3.1350    0.0000 H   0  0  0  0  0  0  0  0  0  0  0  0
    7.0369   -2.2881    0.0000 H   0  0  0  0  0  0  0  0  0  0  0  0
    2.5000    3.2181    0.0000 H   0  0  0  0  0  0  0  0  0  0  0  0
    1.8800    2.5981    0.0000 H   0  0  0  0  0  0  0  0  0  0  0  0
    2.5000    1.9781    0.0000 H   0  0  0  0  0  0  0  0  0  0  0  0
    1.4631    0.3100    0.0000 H   0  0  0  0  0  0  0  0  0  0  0  0
    1.6900   -0.5369    0.0000 H   0  0  0  0  0  0  0  0  0  0  0  0
    2.5369   -0.3100    0.0000 H   0  0  0  0  0  0  0  0  0  0  0  0
  1 17  1  0  0  0  0
  1 23  1  0  0  0  0
  2 20  1  0  0  0  0
  2 24  1  0  0  0  0
  3 12  1  0  0  0  0
  3 21  2  0  0  0  0
  4 13  1  0  0  0  0
  4 22  1  0  0  0  0
  4 38  1  0  0  0  0
  5  6  1  0  0  0  0
  5  7  1  0  0  0  0
  5  8  1  6  0  0  0
  5 10  1  0  0  0  0
  6  9  1  0  0  0  0
  6 25  1  0  0  0  0
  6 26  1  0  0  0  0
  7 11  1  0  0  0  0
  7 27  1  0  0  0  0
  7 28  1  0  0  0  0
  8 13  1  0  0  0  0
  8 29  1  0  0  0  0
  8 30  1  0  0  0  0
  9 12  1  0  0  0  0
  9 31  1  0  0  0  0
  9 32  1  0  0  0  0
 10 14  2  0  0  0  0
 10 15  1  0  0  0  0
 11 12  2  0  0  0  0
 11 16  1  0  0  0  0
 13 33  1  0  0  0  0
 13 34  1  0  0  0  0
 14 17  1  0  0  0  0
 14 35  1  0  0  0  0
 15 18  2  0  0  0  0
 15 36  1  0  0  0  0
 16 19  2  0  0  0  0
 16 37  1  0  0  0  0
 17 20  2  0  0  0  0
 18 20  1  0  0  0  0
 18 39  1  0  0  0  0
 19 21  1  0  0  0  0
 19 40  1  0  0  0  0
 21 41  1  0  0  0  0
 22 42  1  0  0  0  0
 22 43  1  0  0  0  0
 22 44  1  0  0  0  0
 23 45  1  0  0  0  0
 23 46  1  0  0  0  0
 23 47  1  0  0  0  0
 24 48  1  0  0  0  0
 24 49  1  0  0  0  0
 24 50  1  0  0  0  0
M  END
> <PUBCHEM_COMPOUND_CID>
443745

> <PUBCHEM_COMPOUND_CANONICALIZED>
1

> <PUBCHEM_CACTVS_COMPLEXITY>
392

> <PUBCHEM_CACTVS_HBOND_ACCEPTOR>
4

> <PUBCHEM_CACTVS_HBOND_DONOR>
1

> <PUBCHEM_CACTVS_ROTATABLE_BOND>
6

> <PUBCHEM_CACTVS_SUBSKEYS>
AAADceB7MAAAAAAAAAAAAAAAAAAAAAAAAAA8YIAAAAAAAACxwAAAHgAQAAAADgzBngY+hpLIFACgAzRnRACCiCAxIiAI2KA+7JgNJuLEsZuEMCpk0BHK6AeQwPAPoAABAAAAQABQAAYAAASAAAAAAAAAAA==

> <PUBCHEM_IUPAC_OPENEYE_NAME>
2-[(6S)-6-(3,4-dimethoxyphenyl)-7,8-dihydro-5H-quinolin-6-yl]-N-methyl-ethanamine

> <PUBCHEM_IUPAC_CAS_NAME>
2-[(6S)-6-(3,4-dimethoxyphenyl)-7,8-dihydro-5H-quinolin-6-yl]-N-methylethanamine

> <PUBCHEM_IUPAC_NAME>
2-[(6S)-6-(3,4-dimethoxyphenyl)-7,8-dihydro-5H-quinolin-6-yl]-N-methylethanamine

> <PUBCHEM_IUPAC_SYSTEMATIC_NAME>
2-[(6S)-6-(3,4-dimethoxyphenyl)-7,8-dihydro-5H-quinolin-6-yl]-N-methyl-ethanamine

> <PUBCHEM_IUPAC_TRADITIONAL_NAME>
2-[(6S)-6-(3,4-dimethoxyphenyl)-7,8-dihydro-5H-quinolin-6-yl]ethyl-methyl-amine

> <PUBCHEM_IUPAC_INCHI>
InChI=1S/C20H26N2O2/c1-21-12-10-20(9-8-17-15(14-20)5-4-11-22-17)16-6-7-18(23-2)19(13-16)24-3/h4-7,11,13,21H,8-10,12,14H2,1-3H3/t20-/m1/s1

> <PUBCHEM_IUPAC_INCHIKEY>
QFRVOGLOHJOHAY-HXUWFJFHSA-N

> <PUBCHEM_XLOGP3_AA>
3.2

> <PUBCHEM_EXACT_MASS>
326.199428

> <PUBCHEM_MOLECULAR_FORMULA>
C20H26N2O2

> <PUBCHEM_MOLECULAR_WEIGHT>
326.43264

> <PUBCHEM_OPENEYE_CAN_SMILES>
CNCCC1(CCC2=C(C1)C=CC=N2)C3=CC(=C(C=C3)OC)OC

> <PUBCHEM_OPENEYE_ISO_SMILES>
CNCC[C@@]1(CCC2=C(C1)C=CC=N2)C3=CC(=C(C=C3)OC)OC

> <PUBCHEM_CACTVS_TPSA>
43.4

> <PUBCHEM_MONOISOTOPIC_WEIGHT>
326.199428

> <PUBCHEM_TOTAL_CHARGE>
0

> <PUBCHEM_HEAVY_ATOM_COUNT>
24

> <PUBCHEM_ATOM_DEF_STEREO_COUNT>
1

> <PUBCHEM_ATOM_UDEF_STEREO_COUNT>
0

> <PUBCHEM_BOND_DEF_STEREO_COUNT>
0

> <PUBCHEM_BOND_UDEF_STEREO_COUNT>
0

> <PUBCHEM_ISOTOPIC_ATOM_COUNT>
0

> <PUBCHEM_COMPONENT_COUNT>
1

> <PUBCHEM_CACTVS_TAUTO_COUNT>
1

> <PUBCHEM_COORDINATE_TYPE>
1
5
255

> <PUBCHEM_BONDANNOTATIONS>
10  14  8
10  15  8
11  12  8
11  16  8
14  17  8
15  18  8
16  19  8
17  20  8
18  20  8
19  21  8
3  12  8
3  21  8
5  8  6

$$$$

