151529
  -OEChem-07051213002D

 71 75  0     1  0  0  0  0  0999 V2000
    6.7303    1.8671    0.0000 O   0  0  0  0  0  0  0  0  0  0  0  0
    4.7166    1.2677    0.0000 O   0  0  0  0  0  0  0  0  0  0  0  0
    8.6500   -3.7313    0.0000 O   0  0  0  0  0  0  0  0  0  0  0  0
    5.4506   -3.3674    0.0000 O   0  0  0  0  0  0  0  0  0  0  0  0
    7.1011   -4.3729    0.0000 O   0  0  0  0  0  0  0  0  0  0  0  0
    4.8576   -3.1217    0.0000 O   0  0  0  0  0  0  0  0  0  0  0  0
    2.3791   -0.8986    0.0000 O   0  0  0  0  0  0  0  0  0  0  0  0
    3.1630   -2.7910    0.0000 O   0  0  0  0  0  0  0  0  0  0  0  0
    5.9413    2.4924    0.0000 O   0  0  0  0  0  0  0  0  0  0  0  0
    6.3476    0.9433    0.0000 C   0  0  1  0  0  0  0  0  0  0  0  0
    7.2714    0.5606    0.0000 C   0  0  2  0  0  0  0  0  0  0  0  0
    5.4237    0.5606    0.0000 C   0  0  2  0  0  0  0  0  0  0  0  0
    7.6541   -0.3633    0.0000 C   0  0  0  0  0  0  0  0  0  0  0  0
    5.0410   -0.3633    0.0000 C   0  0  0  0  0  0  0  0  0  0  0  0
    7.2714   -1.2872    0.0000 C   0  0  0  0  0  0  0  0  0  0  0  0
    5.9649    1.8671    0.0000 C   0  0  0  0  0  0  0  0  0  0  0  0
    7.9786    1.2677    0.0000 C   0  0  0  0  0  0  0  0  0  0  0  0
    5.4237   -1.2872    0.0000 C   0  0  0  0  0  0  0  0  0  0  0  0
    6.3476   -1.6699    0.0000 C   0  0  0  0  0  0  0  0  0  0  0  0
    4.0105   -0.2114    0.0000 C   0  0  0  0  0  0  0  0  0  0  0  0
    8.1075   -1.9085    0.0000 C   0  0  0  0  0  0  0  0  0  0  0  0
    6.1957   -2.7004    0.0000 C   0  0  0  0  0  0  0  0  0  0  0  0
    4.8024   -2.1232    0.0000 C   0  0  0  0  0  0  0  0  0  0  0  0
    7.9795   -2.9422    0.0000 C   0  0  0  0  0  0  0  0  0  0  0  0
    7.0172   -3.3408    0.0000 C   0  0  0  0  0  0  0  0  0  0  0  0
    3.3700   -1.0329    0.0000 C   0  0  0  0  0  0  0  0  0  0  0  0
    3.7687   -1.9952    0.0000 C   0  0  0  0  0  0  0  0  0  0  0  0
    4.9754    2.2336    0.0000 C   0  0  0  0  0  0  0  0  0  0  0  0
    8.1082   -4.6137    0.0000 C   0  0  0  0  0  0  0  0  0  0  0  0
    4.2683    2.9407    0.0000 C   0  0  0  0  0  0  0  0  0  0  0  0
    5.6558   -4.3461    0.0000 C   0  0  0  0  0  0  0  0  0  0  0  0
    4.0205   -3.6688    0.0000 C   0  0  0  0  0  0  0  0  0  0  0  0
    2.0000    0.0268    0.0000 C   0  0  0  0  0  0  0  0  0  0  0  0
    2.1710   -2.6642    0.0000 C   0  0  0  0  0  0  0  0  0  0  0  0
    4.5271    3.9066    0.0000 C   0  0  0  0  0  0  0  0  0  0  0  0
    3.3024    2.6819    0.0000 C   0  0  0  0  0  0  0  0  0  0  0  0
    3.8200    4.6137    0.0000 C   0  0  0  0  0  0  0  0  0  0  0  0
    2.5953    3.3890    0.0000 C   0  0  0  0  0  0  0  0  0  0  0  0
    2.8541    4.3549    0.0000 C   0  0  0  0  0  0  0  0  0  0  0  0
    7.8795    0.4396    0.0000 H   0  0  0  0  0  0  0  0  0  0  0  0
    4.8156    0.4396    0.0000 H   0  0  0  0  0  0  0  0  0  0  0  0
    8.1460   -0.7407    0.0000 H   0  0  0  0  0  0  0  0  0  0  0  0
    8.1460    0.0141    0.0000 H   0  0  0  0  0  0  0  0  0  0  0  0
    6.5377    2.1044    0.0000 H   0  0  0  0  0  0  0  0  0  0  0  0
    5.7276    2.4399    0.0000 H   0  0  0  0  0  0  0  0  0  0  0  0
    5.3921    1.6299    0.0000 H   0  0  0  0  0  0  0  0  0  0  0  0
    8.4170    0.8293    0.0000 H   0  0  0  0  0  0  0  0  0  0  0  0
    8.4170    1.7061    0.0000 H   0  0  0  0  0  0  0  0  0  0  0  0
    7.5402    1.7061    0.0000 H   0  0  0  0  0  0  0  0  0  0  0  0
    7.3450    1.9481    0.0000 H   0  0  0  0  0  0  0  0  0  0  0  0
    3.7799    0.3641    0.0000 H   0  0  0  0  0  0  0  0  0  0  0  0
    8.6775   -1.6646    0.0000 H   0  0  0  0  0  0  0  0  0  0  0  0
    7.9014   -5.1982    0.0000 H   0  0  0  0  0  0  0  0  0  0  0  0
    8.6677   -4.8808    0.0000 H   0  0  0  0  0  0  0  0  0  0  0  0
    5.0490   -4.4733    0.0000 H   0  0  0  0  0  0  0  0  0  0  0  0
    5.7830   -4.9529    0.0000 H   0  0  0  0  0  0  0  0  0  0  0  0
    6.2626   -4.2189    0.0000 H   0  0  0  0  0  0  0  0  0  0  0  0
    3.6813   -3.1498    0.0000 H   0  0  0  0  0  0  0  0  0  0  0  0
    3.5015   -4.0080    0.0000 H   0  0  0  0  0  0  0  0  0  0  0  0
    4.3597   -4.1878    0.0000 H   0  0  0  0  0  0  0  0  0  0  0  0
    2.5737    0.2618    0.0000 H   0  0  0  0  0  0  0  0  0  0  0  0
    1.7650    0.6005    0.0000 H   0  0  0  0  0  0  0  0  0  0  0  0
    1.4263   -0.2083    0.0000 H   0  0  0  0  0  0  0  0  0  0  0  0
    2.2496   -2.0492    0.0000 H   0  0  0  0  0  0  0  0  0  0  0  0
    1.5560   -2.5857    0.0000 H   0  0  0  0  0  0  0  0  0  0  0  0
    2.0925   -3.2792    0.0000 H   0  0  0  0  0  0  0  0  0  0  0  0
    5.1260    4.0671    0.0000 H   0  0  0  0  0  0  0  0  0  0  0  0
    3.1419    2.0830    0.0000 H   0  0  0  0  0  0  0  0  0  0  0  0
    3.9805    5.2126    0.0000 H   0  0  0  0  0  0  0  0  0  0  0  0
    1.9964    3.2285    0.0000 H   0  0  0  0  0  0  0  0  0  0  0  0
    2.4157    4.7933    0.0000 H   0  0  0  0  0  0  0  0  0  0  0  0
 10  1  1  1  0  0  0
  1 50  1  0  0  0  0
 12  2  1  6  0  0  0
  2 28  1  0  0  0  0
  3 24  1  0  0  0  0
  3 29  1  0  0  0  0
  4 22  1  0  0  0  0
  4 31  1  0  0  0  0
  5 25  1  0  0  0  0
  5 29  1  0  0  0  0
  6 23  1  0  0  0  0
  6 32  1  0  0  0  0
  7 26  1  0  0  0  0
  7 33  1  0  0  0  0
  8 27  1  0  0  0  0
  8 34  1  0  0  0  0
  9 28  2  0  0  0  0
 10 11  1  0  0  0  0
 10 12  1  0  0  0  0
 10 16  1  0  0  0  0
 11 13  1  0  0  0  0
 11 17  1  1  0  0  0
 11 40  1  0  0  0  0
 12 14  1  0  0  0  0
 12 41  1  0  0  0  0
 13 15  1  0  0  0  0
 13 42  1  0  0  0  0
 13 43  1  0  0  0  0
 14 18  1  0  0  0  0
 14 20  2  0  0  0  0
 15 19  1  0  0  0  0
 15 21  2  0  0  0  0
 16 44  1  0  0  0  0
 16 45  1  0  0  0  0
 16 46  1  0  0  0  0
 17 47  1  0  0  0  0
 17 48  1  0  0  0  0
 17 49  1  0  0  0  0
 18 19  1  0  0  0  0
 18 23  2  0  0  0  0
 19 22  2  0  0  0  0
 20 26  1  0  0  0  0
 20 51  1  0  0  0  0
 21 24  1  0  0  0  0
 21 52  1  0  0  0  0
 22 25  1  0  0  0  0
 23 27  1  0  0  0  0
 24 25  2  0  0  0  0
 26 27  2  0  0  0  0
 28 30  1  0  0  0  0
 29 53  1  0  0  0  0
 29 54  1  0  0  0  0
 30 35  2  0  0  0  0
 30 36  1  0  0  0  0
 31 55  1  0  0  0  0
 31 56  1  0  0  0  0
 31 57  1  0  0  0  0
 32 58  1  0  0  0  0
 32 59  1  0  0  0  0
 32 60  1  0  0  0  0
 33 61  1  0  0  0  0
 33 62  1  0  0  0  0
 33 63  1  0  0  0  0
 34 64  1  0  0  0  0
 34 65  1  0  0  0  0
 34 66  1  0  0  0  0
 35 37  1  0  0  0  0
 35 67  1  0  0  0  0
 36 38  2  0  0  0  0
 36 68  1  0  0  0  0
 37 39  2  0  0  0  0
 37 69  1  0  0  0  0
 38 39  1  0  0  0  0
 38 70  1  0  0  0  0
 39 71  1  0  0  0  0
M  END
> <PUBCHEM_COMPOUND_CID>
151529

> <PUBCHEM_COMPOUND_CANONICALIZED>
1

> <PUBCHEM_CACTVS_COMPLEXITY>
833

> <PUBCHEM_CACTVS_HBOND_ACCEPTOR>
9

> <PUBCHEM_CACTVS_HBOND_DONOR>
1

> <PUBCHEM_CACTVS_ROTATABLE_BOND>
7

> <PUBCHEM_CACTVS_SUBSKEYS>
AAADcfB4PAAAAAAAAAAAAAAAAAAAASAAAAAwYMAAAAAYAEgBUAAAGgAACAAADVSgmAMyDoAABgCIAiDSCAACCAAkIAAIiAEGiMgdJzKENRqicSIlwBUPqYfI6PyOoAABCAAYQABAAAIQADCAAAAAAAAAAA==

> <PUBCHEM_IUPAC_INCHI>
InChI=1S/C30H32O9/c1-16-12-18-13-21-25(38-15-37-21)26(35-5)22(18)23-19(14-20(33-3)24(34-4)27(23)36-6)28(30(16,2)32)39-29(31)17-10-8-7-9-11-17/h7-11,13-14,16,28,32H,12,15H2,1-6H3/t16-,28-,30-/m0/s1

> <PUBCHEM_IUPAC_INCHIKEY>
UFCGDBKFOKKVAC-DSASHONVSA-N

> <PUBCHEM_XLOGP3_AA>
5

> <PUBCHEM_EXACT_MASS>
536.204633

> <PUBCHEM_MOLECULAR_FORMULA>
C30H32O9

> <PUBCHEM_MOLECULAR_WEIGHT>
536.56968

> <PUBCHEM_OPENEYE_CAN_SMILES>
CC1CC2=CC3=C(C(=C2C4=C(C(=C(C=C4C(C1(C)O)OC(=O)C5=CC=CC=C5)OC)OC)OC)OC)OCO3

> <PUBCHEM_OPENEYE_ISO_SMILES>
C[C@H]1CC2=CC3=C(C(=C2C4=C(C(=C(C=C4[C@@H]([C@@]1(C)O)OC(=O)C5=CC=CC=C5)OC)OC)OC)OC)OCO3

> <PUBCHEM_CACTVS_TPSA>
102

> <PUBCHEM_MONOISOTOPIC_WEIGHT>
536.204633

> <PUBCHEM_TOTAL_CHARGE>
0

> <PUBCHEM_HEAVY_ATOM_COUNT>
39

> <PUBCHEM_ATOM_DEF_STEREO_COUNT>
3

> <PUBCHEM_ATOM_UDEF_STEREO_COUNT>
0

> <PUBCHEM_BOND_DEF_STEREO_COUNT>
0

> <PUBCHEM_BOND_UDEF_STEREO_COUNT>
0

> <PUBCHEM_ISOTOPIC_ATOM_COUNT>
0

> <PUBCHEM_COMPONENT_COUNT>
1

> <PUBCHEM_CACTVS_TAUTO_COUNT>
1

> <PUBCHEM_COORDINATE_TYPE>
1
5
255

> <PUBCHEM_BONDANNOTATIONS>
10  1  5
11  17  5
14  18  8
14  20  8
15  19  8
15  21  8
18  23  8
19  22  8
12  2  6
20  26  8
21  24  8
22  25  8
23  27  8
24  25  8
26  27  8
30  35  8
30  36  8
35  37  8
36  38  8
37  39  8
38  39  8

$$$$

