9092
  -OEChem-06261203242D

 27 28  0     0  0  0  0  0  0999 V2000
    4.5878    0.5427    0.0000 N   0  0  0  0  0  0  0  0  0  0  0  0
    4.0000   -0.2663    0.0000 C   0  0  0  0  0  0  0  0  0  0  0  0
    4.5878   -1.0753    0.0000 C   0  0  0  0  0  0  0  0  0  0  0  0
    3.5000   -1.1324    0.0000 C   0  0  0  0  0  0  0  0  0  0  0  0
    3.5000    0.5997    0.0000 C   0  0  0  0  0  0  0  0  0  0  0  0
    5.5388   -0.7663    0.0000 C   0  0  0  0  0  0  0  0  0  0  0  0
    2.5000    0.5997    0.0000 C   0  0  0  0  0  0  0  0  0  0  0  0
    2.5000   -1.1324    0.0000 C   0  0  0  0  0  0  0  0  0  0  0  0
    5.5388    0.2337    0.0000 C   0  0  0  0  0  0  0  0  0  0  0  0
    2.0000   -0.2663    0.0000 C   0  0  0  0  0  0  0  0  0  0  0  0
    4.0508   -1.3853    0.0000 H   0  0  0  0  0  0  0  0  0  0  0  0
    4.8400   -1.6417    0.0000 H   0  0  0  0  0  0  0  0  0  0  0  0
    4.0826    0.8118    0.0000 H   0  0  0  0  0  0  0  0  0  0  0  0
    3.3923    1.2103    0.0000 H   0  0  0  0  0  0  0  0  0  0  0  0
    3.3923   -1.7429    0.0000 H   0  0  0  0  0  0  0  0  0  0  0  0
    4.0826   -1.3444    0.0000 H   0  0  0  0  0  0  0  0  0  0  0  0
    4.3962    1.1324    0.0000 H   0  0  0  0  0  0  0  0  0  0  0  0
    5.6678   -1.3728    0.0000 H   0  0  0  0  0  0  0  0  0  0  0  0
    6.1554   -0.7015    0.0000 H   0  0  0  0  0  0  0  0  0  0  0  0
    2.6077    1.2103    0.0000 H   0  0  0  0  0  0  0  0  0  0  0  0
    1.9174    0.8118    0.0000 H   0  0  0  0  0  0  0  0  0  0  0  0
    1.9174   -1.3444    0.0000 H   0  0  0  0  0  0  0  0  0  0  0  0
    2.6077   -1.7429    0.0000 H   0  0  0  0  0  0  0  0  0  0  0  0
    6.1554    0.1689    0.0000 H   0  0  0  0  0  0  0  0  0  0  0  0
    5.6678    0.8401    0.0000 H   0  0  0  0  0  0  0  0  0  0  0  0
    1.5250    0.1322    0.0000 H   0  0  0  0  0  0  0  0  0  0  0  0
    1.5250   -0.6649    0.0000 H   0  0  0  0  0  0  0  0  0  0  0  0
  1  2  1  0  0  0  0
  1  9  1  0  0  0  0
  1 17  1  0  0  0  0
  2  3  1  0  0  0  0
  2  4  1  0  0  0  0
  2  5  1  0  0  0  0
  3  6  1  0  0  0  0
  3 11  1  0  0  0  0
  3 12  1  0  0  0  0
  4  8  1  0  0  0  0
  4 15  1  0  0  0  0
  4 16  1  0  0  0  0
  5  7  1  0  0  0  0
  5 13  1  0  0  0  0
  5 14  1  0  0  0  0
  6  9  1  0  0  0  0
  6 18  1  0  0  0  0
  6 19  1  0  0  0  0
  7 10  1  0  0  0  0
  7 20  1  0  0  0  0
  7 21  1  0  0  0  0
  8 10  1  0  0  0  0
  8 22  1  0  0  0  0
  8 23  1  0  0  0  0
  9 24  1  0  0  0  0
  9 25  1  0  0  0  0
 10 26  1  0  0  0  0
 10 27  1  0  0  0  0
M  END
> <PUBCHEM_COMPOUND_CID>
9092

> <PUBCHEM_COMPOUND_CANONICALIZED>
1

> <PUBCHEM_CACTVS_COMPLEXITY>
114

> <PUBCHEM_CACTVS_HBOND_ACCEPTOR>
1

> <PUBCHEM_CACTVS_HBOND_DONOR>
1

> <PUBCHEM_CACTVS_ROTATABLE_BOND>
0

> <PUBCHEM_CACTVS_SUBSKEYS>
AAADceByAAAAAAAAAAAAAAAAAAAAAWAAAAAwAAAAAAAAAAAAAAAAHAAQAAAADIjBAAQAAALAAAAAAAAAAAAAAAAAAAAAAIAIAAAAAAIAgAAEAAAAEACAAAEQgIAOAAAAAAAAAAAAAAAAAAAAAAAAAAAAAA==

> <PUBCHEM_IUPAC_OPENEYE_NAME>
1-azaspiro[4.5]decane

> <PUBCHEM_IUPAC_CAS_NAME>
1-azaspiro[4.5]decane

> <PUBCHEM_IUPAC_NAME>
1-azaspiro[4.5]decane

> <PUBCHEM_IUPAC_SYSTEMATIC_NAME>
1-azaspiro[4.5]decane

> <PUBCHEM_IUPAC_TRADITIONAL_NAME>
1-azaspiro[4.5]decane

> <PUBCHEM_IUPAC_INCHI>
InChI=1S/C9H17N/c1-2-5-9(6-3-1)7-4-8-10-9/h10H,1-8H2

> <PUBCHEM_IUPAC_INCHIKEY>
LGKNCSVHCNCJQG-UHFFFAOYSA-N

> <PUBCHEM_XLOGP3_AA>
1.9

> <PUBCHEM_EXACT_MASS>
139.1361

> <PUBCHEM_MOLECULAR_FORMULA>
C9H17N

> <PUBCHEM_MOLECULAR_WEIGHT>
139.23798

> <PUBCHEM_OPENEYE_CAN_SMILES>
C1CCC2(CC1)CCCN2

> <PUBCHEM_OPENEYE_ISO_SMILES>
C1CCC2(CC1)CCCN2

> <PUBCHEM_CACTVS_TPSA>
12

> <PUBCHEM_MONOISOTOPIC_WEIGHT>
139.1361

> <PUBCHEM_TOTAL_CHARGE>
0

> <PUBCHEM_HEAVY_ATOM_COUNT>
10

> <PUBCHEM_ATOM_DEF_STEREO_COUNT>
0

> <PUBCHEM_ATOM_UDEF_STEREO_COUNT>
0

> <PUBCHEM_BOND_DEF_STEREO_COUNT>
0

> <PUBCHEM_BOND_UDEF_STEREO_COUNT>
0

> <PUBCHEM_ISOTOPIC_ATOM_COUNT>
0

> <PUBCHEM_COMPONENT_COUNT>
1

> <PUBCHEM_CACTVS_TAUTO_COUNT>
1

> <PUBCHEM_COORDINATE_TYPE>
1
5
255

$$$$

