   Color/Form
        LEAFLETS IN WATER
   from [1]HSDB

   Melting Point
        164 DEG C
   from [2]HSDB

   Solubilities
        SLIGHTLY SOL IN WATER, SOL IN HOT WATER, ALCOHOL, ETHER; SOL IN
   CHLOROFORM
   from [3]HSDB

   Spectral Properties

     * MAX ABSORPTION (0.5 N NAOH): 230 NM (LOG E= 4.27), 331 NM (LOG E=
       3.63)
     * IR: 10876 (Sadtler Research Laboratories Prism Collection)
     * MASS: 498 (National Bureau of Standards EPA-NIH Mass Spectra Data
       Base, NSRDS-NBS-63)

   from [4]HSDB

   Computed Properties
   Molecular Weight                  153.13538 [g/mol]
   Molecular Formula                 C[7]H[7]NO[3]
   XLogP3                            0.9
   H-Bond Donor                      3
   H-Bond Acceptor                   4
   Rotatable Bond Count              1
   Tautomer Count                    10
   Exact Mass                        153.042593
   MonoIsotopic Mass                 153.042593
   Topological Polar Surface Area    83.6
   Heavy Atom Count                  11
   Formal Charge                     0
   Complexity                        160
   Isotope Atom Count                0
   Defined Atom Stereocenter Count   0
   Undefined Atom Stereocenter Count 0
   Defined Bond Stereocenter Count   0
   Undefined Bond Stereocenter Count 0
   Covalently-Bonded Unit Count      1
   Feature 3D Acceptor Count         2
   Feature 3D Donor Count            2
   Feature 3D Anion Count            1
   Feature 3D Cation Count           1
   Feature 3D Ring Count             1
   Effective Rotor Count             1
   Conformer Sampling RMSD           0.4
   CID Conformer Count               [5]3

References

   1. http://toxnet.nlm.nih.gov/cgi-bin/sis/search/r?dbs+hsdb:@term+@rn+@rel+548-93-6
   2. http://toxnet.nlm.nih.gov/cgi-bin/sis/search/r?dbs+hsdb:@term+@rn+@rel+548-93-6
   3. http://toxnet.nlm.nih.gov/cgi-bin/sis/search/r?dbs+hsdb:@term+@rn+@rel+548-93-6
   4. http://toxnet.nlm.nih.gov/cgi-bin/sis/search/r?dbs+hsdb:@term+@rn+@rel+548-93-6
   5. http://pubchem.ncbi.nlm.nih.gov/vw3d/vw3d.cgi?cid=86
