25163995
  -OEChem-07051212482D

 30 29  0     1  0  0  0  0  0999 V2000
    3.4030    0.1550    0.0000 P   0  0  0  0  0  0  0  0  0  0  0  0
    4.2690    0.6550    0.0000 O   0  0  0  0  0  0  0  0  0  0  0  0
    9.4651    0.6550    0.0000 O   0  0  0  0  0  0  0  0  0  0  0  0
    2.5369   -0.3450    0.0000 O   0  0  0  0  0  0  0  0  0  0  0  0
    2.9030    1.0210    0.0000 O   0  0  0  0  0  0  0  0  0  0  0  0
    8.5991   -0.8450    0.0000 O   0  0  0  0  0  0  0  0  0  0  0  0
    3.9030   -0.7110    0.0000 O   0  0  0  0  0  0  0  0  0  0  0  0
    7.7331    1.6550    0.0000 N   0  0  0  0  0  0  0  0  0  0  0  0
    6.0010   -1.3450    0.0000 N   0  0  0  0  0  0  0  0  0  0  0  0
    6.0010    0.6550    0.0000 C   0  0  0  0  0  0  0  0  0  0  0  0
    5.1350    0.1550    0.0000 C   0  0  2  0  0  0  0  0  0  0  0  0
    6.8671    0.1550    0.0000 C   0  0  0  0  0  0  0  0  0  0  0  0
    7.7331    0.6550    0.0000 C   0  0  1  0  0  0  0  0  0  0  0  0
    5.1350   -0.8450    0.0000 C   0  0  0  0  0  0  0  0  0  0  0  0
    8.5991    0.1550    0.0000 C   0  0  0  0  0  0  0  0  0  0  0  0
    6.3996    1.1300    0.0000 H   0  0  0  0  0  0  0  0  0  0  0  0
    5.6025    1.1300    0.0000 H   0  0  0  0  0  0  0  0  0  0  0  0
    5.1350    0.7750    0.0000 H   0  0  0  0  0  0  0  0  0  0  0  0
    6.4685   -0.3199    0.0000 H   0  0  0  0  0  0  0  0  0  0  0  0
    7.2656   -0.3199    0.0000 H   0  0  0  0  0  0  0  0  0  0  0  0
    8.2700    0.9650    0.0000 H   0  0  0  0  0  0  0  0  0  0  0  0
    4.5244   -0.7373    0.0000 H   0  0  0  0  0  0  0  0  0  0  0  0
    4.9230   -1.4276    0.0000 H   0  0  0  0  0  0  0  0  0  0  0  0
    8.2700    1.9650    0.0000 H   0  0  0  0  0  0  0  0  0  0  0  0
    7.1962    1.9650    0.0000 H   0  0  0  0  0  0  0  0  0  0  0  0
    6.0010   -1.9650    0.0000 H   0  0  0  0  0  0  0  0  0  0  0  0
    6.5380   -1.0350    0.0000 H   0  0  0  0  0  0  0  0  0  0  0  0
   10.0021    0.3450    0.0000 H   0  0  0  0  0  0  0  0  0  0  0  0
    3.2130    1.5580    0.0000 H   0  0  0  0  0  0  0  0  0  0  0  0
    2.0000   -0.0350    0.0000 H   0  0  0  0  0  0  0  0  0  0  0  0
  1  2  1  0  0  0  0
  1  4  1  0  0  0  0
  1  5  1  0  0  0  0
  1  7  2  0  0  0  0
 11  2  1  6  0  0  0
  3 15  1  0  0  0  0
  3 28  1  0  0  0  0
  4 30  1  0  0  0  0
  5 29  1  0  0  0  0
  6 15  2  0  0  0  0
 13  8  1  6  0  0  0
  8 24  1  0  0  0  0
  8 25  1  0  0  0  0
  9 14  1  0  0  0  0
  9 26  1  0  0  0  0
  9 27  1  0  0  0  0
 10 11  1  0  0  0  0
 10 12  1  0  0  0  0
 10 16  1  0  0  0  0
 10 17  1  0  0  0  0
 11 14  1  0  0  0  0
 11 18  1  0  0  0  0
 12 13  1  0  0  0  0
 12 19  1  0  0  0  0
 12 20  1  0  0  0  0
 13 15  1  0  0  0  0
 13 21  1  0  0  0  0
 14 22  1  0  0  0  0
 14 23  1  0  0  0  0
M  END
> <PUBCHEM_COMPOUND_CID>
25163995

> <PUBCHEM_COMPOUND_CANONICALIZED>
1

> <PUBCHEM_CACTVS_COMPLEXITY>
254

> <PUBCHEM_CACTVS_HBOND_ACCEPTOR>
8

> <PUBCHEM_CACTVS_HBOND_DONOR>
5

> <PUBCHEM_CACTVS_ROTATABLE_BOND>
7

> <PUBCHEM_CACTVS_SUBSKEYS>
AAADccBjOAIAAAAAAAAAAAAAAAAAAAAAAAAAAAAAAAAAAAAAAAAAHgAQCCAACDzhgAYACABAAxAIQACQCIAAAAAAAAAAAIGAAAACABIAgAAAQAAEEAAAAAG4bARAAAAAAAAAAAAAAAAAAAAAAAAAAAAAAA==

> <PUBCHEM_IUPAC_OPENEYE_NAME>
(2S,5R)-2,6-diamino-5-phosphonooxy-hexanoic acid

> <PUBCHEM_IUPAC_CAS_NAME>
(2S,5R)-2,6-diamino-5-phosphonooxyhexanoic acid

> <PUBCHEM_IUPAC_NAME>
(2S,5R)-2,6-diamino-5-phosphonooxyhexanoic acid

> <PUBCHEM_IUPAC_SYSTEMATIC_NAME>
(2S,5R)-2,6-bis(azanyl)-5-phosphonooxy-hexanoic acid

> <PUBCHEM_IUPAC_TRADITIONAL_NAME>
(2S,5R)-2,6-diamino-5-phosphonooxy-hexanoic acid

> <PUBCHEM_IUPAC_INCHI>
InChI=1S/C6H15N2O6P/c7-3-4(14-15(11,12)13)1-2-5(8)6(9)10/h4-5H,1-3,7-8H2,(H,9,10)(H2,11,12,13)/t4-,5+/m1/s1

> <PUBCHEM_IUPAC_INCHIKEY>
WLPXLNNUXMDSPG-UHNVWZDZSA-N

> <PUBCHEM_XLOGP3_AA>
-7.6

> <PUBCHEM_EXACT_MASS>
242.066773

> <PUBCHEM_MOLECULAR_FORMULA>
C6H15N2O6P

> <PUBCHEM_MOLECULAR_WEIGHT>
242.166862

> <PUBCHEM_OPENEYE_CAN_SMILES>
C(CC(C(=O)O)N)C(CN)OP(=O)(O)O

> <PUBCHEM_OPENEYE_ISO_SMILES>
C(C[C@@H](C(=O)O)N)[C@H](CN)OP(=O)(O)O

> <PUBCHEM_CACTVS_TPSA>
156

> <PUBCHEM_MONOISOTOPIC_WEIGHT>
242.066773

> <PUBCHEM_TOTAL_CHARGE>
0

> <PUBCHEM_HEAVY_ATOM_COUNT>
15

> <PUBCHEM_ATOM_DEF_STEREO_COUNT>
2

> <PUBCHEM_ATOM_UDEF_STEREO_COUNT>
0

> <PUBCHEM_BOND_DEF_STEREO_COUNT>
0

> <PUBCHEM_BOND_UDEF_STEREO_COUNT>
0

> <PUBCHEM_ISOTOPIC_ATOM_COUNT>
0

> <PUBCHEM_COMPONENT_COUNT>
1

> <PUBCHEM_CACTVS_TAUTO_COUNT>
1

> <PUBCHEM_COORDINATE_TYPE>
1
5
255

> <PUBCHEM_BONDANNOTATIONS>
11  2  6
13  8  6

$$$$

