   Color/Form
        COLORLESS LIQUID
   from [1]HSDB

   Boiling Point
        164-169 DEG C @ 0.1 MM HG
   from [2]HSDB

   Density/Specific Gravity
        1.300 @ 20 DEG C
   from [3]HSDB

   Octanol/Water Partition Coefficient
        LogP= 5.14
   from [4]HSDB

   Solubilities

     * MISCIBLE WITH MOST ORGANIC SOLVENTS; SLIGHTLY SOLUBLE IN WATER.
     * SOL IN ETHANOL, ETHER, BENZENE
     * SOLUBILITY IN WATER: 0.245 MG/L @ 25 DEG C; MISCIBLE WITH KEROSENE

   from [5]HSDB

   Spectral Properties

     * INDEX OF REFRACTION: 1.5291 @ 25 DEG C/D
     * Intense mass spectral peaks: 279 m/z (100%), 223 m/z (50%), 281 m/z
       (42%), 162 m/z (42%)

   from [6]HSDB

   Vapor Pressure
        5.6X10-4 mm Hg at 20 deg C
   from [7]HSDB

   Other Chemical/Physical Properties

     * ON HEATING @ 175 DEG C FOR 8 HR, 42% IS CONVERTED INTO THE
       O,S-DIETHYL ISOMER
     * DENSITY: 1.30-1.32 @ 20 DEG C/4 DEG C; INDEX OF REFRACTION:
       1.530-1.533 @ 25 DEG C/D /TECHNICAL PRODUCT/

   from [8]HSDB

   Computed Properties
   Molecular Weight                  315.153182 [g/mol]
   Molecular Formula                 C[10]H[13]Cl[2]O[3]PS
   XLogP3                            5.1
   H-Bond Donor                      0
   H-Bond Acceptor                   4
   Rotatable Bond Count              6
   Exact Mass                        313.970007
   MonoIsotopic Mass                 313.970007
   Topological Polar Surface Area    59.8
   Heavy Atom Count                  17
   Formal Charge                     0
   Complexity                        270
   Isotope Atom Count                0
   Defined Atom Stereocenter Count   0
   Undefined Atom Stereocenter Count 0
   Defined Bond Stereocenter Count   0
   Undefined Bond Stereocenter Count 0
   Covalently-Bonded Unit Count      1
   Feature 3D Ring Count             1
   Effective Rotor Count             6
   Conformer Sampling RMSD           0.8
   CID Conformer Count               [9]26

References

   1. http://toxnet.nlm.nih.gov/cgi-bin/sis/search/r?dbs+hsdb:@term+@rn+@rel+97-17-6
   2. http://toxnet.nlm.nih.gov/cgi-bin/sis/search/r?dbs+hsdb:@term+@rn+@rel+97-17-6
   3. http://toxnet.nlm.nih.gov/cgi-bin/sis/search/r?dbs+hsdb:@term+@rn+@rel+97-17-6
   4. http://toxnet.nlm.nih.gov/cgi-bin/sis/search/r?dbs+hsdb:@term+@rn+@rel+97-17-6
   5. http://toxnet.nlm.nih.gov/cgi-bin/sis/search/r?dbs+hsdb:@term+@rn+@rel+97-17-6
   6. http://toxnet.nlm.nih.gov/cgi-bin/sis/search/r?dbs+hsdb:@term+@rn+@rel+97-17-6
   7. http://toxnet.nlm.nih.gov/cgi-bin/sis/search/r?dbs+hsdb:@term+@rn+@rel+97-17-6
   8. http://toxnet.nlm.nih.gov/cgi-bin/sis/search/r?dbs+hsdb:@term+@rn+@rel+97-17-6
   9. http://pubchem.ncbi.nlm.nih.gov/vw3d/vw3d.cgi?cid=7328
