   Color/Form

     * CRYSTALS FROM BENZENE OR ALCOHOL
     * PLATES OR NEEDLES FROM BENZENE, NEEDLES FROM WATER

   from [1]HSDB

   Boiling Point
        166 DEG C @ 2 MM HG
   from [2]HSDB

   Melting Point
        164-165 DEG C
   from [3]HSDB

   Octanol/Water Partition Coefficient
        Log Kow = 0.72
   from [4]HSDB

   Solubilities

     * 1 G DISSOLVES IN 10 ML BOILING ALCOHOL
     * SPARINGLY SOL IN BENZENE, XYLENE
     * Slightly soluble in water, benzene; soluble in ethanol, xylene
     * Water solubility = 10.4E+3 mg/L @ 15 deg C

   from [5]HSDB

   Spectral Properties

     * MAX ABSORPTION: 535 NM (LOG E= 2.78); SADTLER REF NUMBER: 7501 (IR,
       PRISM)
     * MASS: 325 (National Bureau of Standards EPA-NIH Mass Spectra Data
       Base, NSRDS-NBS-63)
     * Intense mass spectral peaks: 77 m/z, 108 m/z, 137 m/z

   from [6]HSDB

   Other Chemical/Physical Properties

     * MP: 269 DEG C /TYRAMINE HYDROCHLORIDE/
     * CRYSTALS FROM ALCOHOL + ETHER /TYRAMINE HYDROCHLORIDE/
     * SOL IN WATER /TYRAMINE HYDROCHLORIDE/

   from [7]HSDB

   Computed Properties
   Molecular Weight                  137.17904 [g/mol]
   Molecular Formula                 C[8]H[11]NO
   XLogP3                            1.1
   H-Bond Donor                      2
   H-Bond Acceptor                   2
   Rotatable Bond Count              2
   Tautomer Count                    2
   Exact Mass                        137.084064
   MonoIsotopic Mass                 137.084064
   Topological Polar Surface Area    46.2
   Heavy Atom Count                  10
   Formal Charge                     0
   Complexity                        87.3
   Isotope Atom Count                0
   Defined Atom Stereocenter Count   0
   Undefined Atom Stereocenter Count 0
   Defined Bond Stereocenter Count   0
   Undefined Bond Stereocenter Count 0
   Covalently-Bonded Unit Count      1
   Feature 3D Donor Count            2
   Feature 3D Cation Count           1
   Feature 3D Ring Count             1
   Effective Rotor Count             2
   Conformer Sampling RMSD           0.4
   CID Conformer Count               [8]5

References

   1. http://toxnet.nlm.nih.gov/cgi-bin/sis/search/r?dbs+hsdb:@term+@rn+@rel+51-67-2
   2. http://toxnet.nlm.nih.gov/cgi-bin/sis/search/r?dbs+hsdb:@term+@rn+@rel+51-67-2
   3. http://toxnet.nlm.nih.gov/cgi-bin/sis/search/r?dbs+hsdb:@term+@rn+@rel+51-67-2
   4. http://toxnet.nlm.nih.gov/cgi-bin/sis/search/r?dbs+hsdb:@term+@rn+@rel+51-67-2
   5. http://toxnet.nlm.nih.gov/cgi-bin/sis/search/r?dbs+hsdb:@term+@rn+@rel+51-67-2
   6. http://toxnet.nlm.nih.gov/cgi-bin/sis/search/r?dbs+hsdb:@term+@rn+@rel+51-67-2
   7. http://toxnet.nlm.nih.gov/cgi-bin/sis/search/r?dbs+hsdb:@term+@rn+@rel+51-67-2
   8. http://pubchem.ncbi.nlm.nih.gov/vw3d/vw3d.cgi?cid=5610
