   Color/Form
        VERY LIGHT YELLOW LIQUID
   from [1]HSDB

   Odor
        MUSTY ODOR
   from [2]HSDB

   Boiling Point
        202-204 DEG C
   from [3]HSDB

   Melting Point
        -2 DEG C
   from [4]HSDB

   Density/Specific Gravity
        1.444 AT 12 DEG C/12 DEG C
   from [5]HSDB

   Octanol/Water Partition Coefficient
        log Kow= 3.490 (est).
   from [6]HSDB

   Solubilities

     * Slightly sol in water; sol in acetone
     * MISCIBLE WITH ALIPHATIC HYDROCARBONS, VEGETABLE OILS, 2-PROPANOL AT
       25 DEG C
     * MISCIBLE WITH METHANOL, AROMATIC HYDROCARBONS, MONOCHLOROBENZENE,
       ISOPROPANOL AT 25 DEG C
     * Sol in benzene

   from [7]HSDB

   Spectral Properties

     * INDEX OF REFRACTION: 1.5112 AT 20 DEG C/D
     * IR: 15347 (Sadtler Research Laboratories Prism Collection)

   from [8]HSDB

   Vapor Density
        9.2 (AIR= 1)
   from [9]HSDB

   Vapor Pressure
        0.376 MM HG AT 20 DEG C
   from [10]HSDB

   Other Chemical/Physical Properties

     * MP: 15 DEG C /HEXACHLOROACETONE HYDRATE/
     * 14.4 LB/US GALLON
     * DECOMP IN HOT WATER

   from [11]HSDB

   Computed Properties
   Molecular Weight                  264.7495 [g/mol]
   Molecular Formula                 C[3]Cl[6]O
   XLogP3-AA                         3.7
   H-Bond Donor                      0
   H-Bond Acceptor                   1
   Rotatable Bond Count              0
   Exact Mass                        263.805081
   MonoIsotopic Mass                 261.808031
   Topological Polar Surface Area    17.1
   Heavy Atom Count                  10
   Formal Charge                     0
   Complexity                        124
   Isotope Atom Count                0
   Defined Atom Stereocenter Count   0
   Undefined Atom Stereocenter Count 0
   Defined Bond Stereocenter Count   0
   Undefined Bond Stereocenter Count 0
   Covalently-Bonded Unit Count      1
   Feature 3D Acceptor Count         1
   Effective Rotor Count             2
   Conformer Sampling RMSD           0.4
   CID Conformer Count               [12]3

References

   1. http://toxnet.nlm.nih.gov/cgi-bin/sis/search/r?dbs+hsdb:@term+@rn+@rel+116-16-5
   2. http://toxnet.nlm.nih.gov/cgi-bin/sis/search/r?dbs+hsdb:@term+@rn+@rel+116-16-5
   3. http://toxnet.nlm.nih.gov/cgi-bin/sis/search/r?dbs+hsdb:@term+@rn+@rel+116-16-5
   4. http://toxnet.nlm.nih.gov/cgi-bin/sis/search/r?dbs+hsdb:@term+@rn+@rel+116-16-5
   5. http://toxnet.nlm.nih.gov/cgi-bin/sis/search/r?dbs+hsdb:@term+@rn+@rel+116-16-5
   6. http://toxnet.nlm.nih.gov/cgi-bin/sis/search/r?dbs+hsdb:@term+@rn+@rel+116-16-5
   7. http://toxnet.nlm.nih.gov/cgi-bin/sis/search/r?dbs+hsdb:@term+@rn+@rel+116-16-5
   8. http://toxnet.nlm.nih.gov/cgi-bin/sis/search/r?dbs+hsdb:@term+@rn+@rel+116-16-5
   9. http://toxnet.nlm.nih.gov/cgi-bin/sis/search/r?dbs+hsdb:@term+@rn+@rel+116-16-5
  10. http://toxnet.nlm.nih.gov/cgi-bin/sis/search/r?dbs+hsdb:@term+@rn+@rel+116-16-5
  11. http://toxnet.nlm.nih.gov/cgi-bin/sis/search/r?dbs+hsdb:@term+@rn+@rel+116-16-5
  12. http://pubchem.ncbi.nlm.nih.gov/vw3d/vw3d.cgi?cid=8303
