114857
  -OEChem-07051212462D

 39 40  0     1  0  0  0  0  0999 V2000
    3.7796    1.1417    0.0000 C   0  0  1  0  0  0  0  0  0  0  0  0
    3.2796    0.2756    0.0000 C   0  0  1  0  0  0  0  0  0  0  0  0
    4.5227    1.8108    0.0000 C   0  0  0  0  0  0  0  0  0  0  0  0
    2.4136   -0.2244    0.0000 C   0  0  0  0  0  0  0  0  0  0  0  0
    2.9136    1.6417    0.0000 C   0  0  0  0  0  0  0  0  0  0  0  0
    4.1456   -0.2244    0.0000 C   0  0  0  0  0  0  0  0  0  0  0  0
    4.1160    2.7244    0.0000 C   0  0  0  0  0  0  0  0  0  0  0  0
    3.1215    2.6198    0.0000 C   0  0  0  0  0  0  0  0  0  0  0  0
    4.4487    0.3985    0.0000 C   0  0  0  0  0  0  0  0  0  0  0  0
    2.4136    0.7756    0.0000 C   0  0  0  0  0  0  0  0  0  0  0  0
    2.4136   -1.2244    0.0000 C   0  0  0  0  0  0  0  0  0  0  0  0
    4.1456   -1.2244    0.0000 C   0  0  0  0  0  0  0  0  0  0  0  0
    3.2796   -1.7244    0.0000 C   0  0  0  0  0  0  0  0  0  0  0  0
    2.0000    1.2349    0.0000 C   0  0  0  0  0  0  0  0  0  0  0  0
    3.2796   -2.7244    0.0000 C   0  0  0  0  0  0  0  0  0  0  0  0
    4.8871    1.3092    0.0000 H   0  0  0  0  0  0  0  0  0  0  0  0
    5.0597    2.1208    0.0000 H   0  0  0  0  0  0  0  0  0  0  0  0
    2.2015    0.3583    0.0000 H   0  0  0  0  0  0  0  0  0  0  0  0
    1.8030   -0.3320    0.0000 H   0  0  0  0  0  0  0  0  0  0  0  0
    4.7562   -0.3320    0.0000 H   0  0  0  0  0  0  0  0  0  0  0  0
    4.3576    0.3583    0.0000 H   0  0  0  0  0  0  0  0  0  0  0  0
    4.7056    2.9159    0.0000 H   0  0  0  0  0  0  0  0  0  0  0  0
    3.9871    3.3308    0.0000 H   0  0  0  0  0  0  0  0  0  0  0  0
    3.1215    3.2398    0.0000 H   0  0  0  0  0  0  0  0  0  0  0  0
    2.5048    2.6846    0.0000 H   0  0  0  0  0  0  0  0  0  0  0  0
    3.9880   -0.0163    0.0000 H   0  0  0  0  0  0  0  0  0  0  0  0
    4.8636   -0.0622    0.0000 H   0  0  0  0  0  0  0  0  0  0  0  0
    4.9094    0.8134    0.0000 H   0  0  0  0  0  0  0  0  0  0  0  0
    2.7236    1.3126    0.0000 H   0  0  0  0  0  0  0  0  0  0  0  0
    1.8766    1.0856    0.0000 H   0  0  0  0  0  0  0  0  0  0  0  0
    2.1035    0.2387    0.0000 H   0  0  0  0  0  0  0  0  0  0  0  0
    1.8030   -1.1167    0.0000 H   0  0  0  0  0  0  0  0  0  0  0  0
    2.2015   -1.8070    0.0000 H   0  0  0  0  0  0  0  0  0  0  0  0
    4.6825   -1.5344    0.0000 H   0  0  0  0  0  0  0  0  0  0  0  0
    1.4984    1.5994    0.0000 H   0  0  0  0  0  0  0  0  0  0  0  0
    1.9352    0.6183    0.0000 H   0  0  0  0  0  0  0  0  0  0  0  0
    2.6596   -2.7244    0.0000 H   0  0  0  0  0  0  0  0  0  0  0  0
    3.2796   -3.3444    0.0000 H   0  0  0  0  0  0  0  0  0  0  0  0
    3.8996   -2.7244    0.0000 H   0  0  0  0  0  0  0  0  0  0  0  0
  1  2  1  0  0  0  0
  1  3  1  0  0  0  0
  1  5  1  0  0  0  0
  1  9  1  1  0  0  0
  2  4  1  0  0  0  0
  2  6  1  0  0  0  0
  2 10  1  1  0  0  0
  3  7  1  0  0  0  0
  3 16  1  0  0  0  0
  3 17  1  0  0  0  0
  4 11  1  0  0  0  0
  4 18  1  0  0  0  0
  4 19  1  0  0  0  0
  5  8  1  0  0  0  0
  5 14  2  0  0  0  0
  6 12  1  0  0  0  0
  6 20  1  0  0  0  0
  6 21  1  0  0  0  0
  7  8  1  0  0  0  0
  7 22  1  0  0  0  0
  7 23  1  0  0  0  0
  8 24  1  0  0  0  0
  8 25  1  0  0  0  0
  9 26  1  0  0  0  0
  9 27  1  0  0  0  0
  9 28  1  0  0  0  0
 10 29  1  0  0  0  0
 10 30  1  0  0  0  0
 10 31  1  0  0  0  0
 11 13  1  0  0  0  0
 11 32  1  0  0  0  0
 11 33  1  0  0  0  0
 12 13  2  0  0  0  0
 12 34  1  0  0  0  0
 13 15  1  0  0  0  0
 14 35  1  0  0  0  0
 14 36  1  0  0  0  0
 15 37  1  0  0  0  0
 15 38  1  0  0  0  0
 15 39  1  0  0  0  0
M  END
> <PUBCHEM_COMPOUND_CID>
114857

> <PUBCHEM_COMPOUND_CANONICALIZED>
1

> <PUBCHEM_CACTVS_COMPLEXITY>
310

> <PUBCHEM_CACTVS_HBOND_ACCEPTOR>
0

> <PUBCHEM_CACTVS_HBOND_DONOR>
0

> <PUBCHEM_CACTVS_ROTATABLE_BOND>
1

> <PUBCHEM_CACTVS_SUBSKEYS>
AAADceBwAAAAAAAAAAAAAAAAAAAAAYAAAAAgAAAAAAAAAAAAAAAAGAAAAAAADgCAAAACAAAAAACAAiBCAAAAAAAgAAAACAAAAAgAAAIAAQAAAAAAgAAIAAMAgMAPgAAAAAAAAAAAAAAAAAAAAAAAAAAAAA==

> <PUBCHEM_IUPAC_OPENEYE_NAME>
(4S)-1,4-dimethyl-4-[(1S)-1-methyl-2-methylene-cyclopentyl]cyclohexene

> <PUBCHEM_IUPAC_CAS_NAME>
(4S)-1,4-dimethyl-4-[(1S)-1-methyl-2-methylenecyclopentyl]cyclohexene

> <PUBCHEM_IUPAC_NAME>
(4S)-1,4-dimethyl-4-[(1S)-1-methyl-2-methylidenecyclopentyl]cyclohexene

> <PUBCHEM_IUPAC_SYSTEMATIC_NAME>
(4S)-1,4-dimethyl-4-[(1S)-1-methyl-2-methylidene-cyclopentyl]cyclohexene

> <PUBCHEM_IUPAC_TRADITIONAL_NAME>
(4S)-1,4-dimethyl-4-[(1S)-1-methyl-2-methylene-cyclopentyl]cyclohexene

> <PUBCHEM_IUPAC_INCHI>
InChI=1S/C15H24/c1-12-7-10-14(3,11-8-12)15(4)9-5-6-13(15)2/h7H,2,5-6,8-11H2,1,3-4H3/t14-,15+/m1/s1

> <PUBCHEM_IUPAC_INCHIKEY>
YFLSTROSSKYYNK-CABCVRRESA-N

> <PUBCHEM_XLOGP3_AA>
4.7

> <PUBCHEM_EXACT_MASS>
204.187801

> <PUBCHEM_MOLECULAR_FORMULA>
C15H24

> <PUBCHEM_MOLECULAR_WEIGHT>
204.35106

> <PUBCHEM_OPENEYE_CAN_SMILES>
CC1=CCC(CC1)(C)C2(CCCC2=C)C

> <PUBCHEM_OPENEYE_ISO_SMILES>
CC1=CC[C@@](CC1)(C)[C@]2(CCCC2=C)C

> <PUBCHEM_CACTVS_TPSA>
0

> <PUBCHEM_MONOISOTOPIC_WEIGHT>
204.187801

> <PUBCHEM_TOTAL_CHARGE>
0

> <PUBCHEM_HEAVY_ATOM_COUNT>
15

> <PUBCHEM_ATOM_DEF_STEREO_COUNT>
2

> <PUBCHEM_ATOM_UDEF_STEREO_COUNT>
0

> <PUBCHEM_BOND_DEF_STEREO_COUNT>
0

> <PUBCHEM_BOND_UDEF_STEREO_COUNT>
0

> <PUBCHEM_ISOTOPIC_ATOM_COUNT>
0

> <PUBCHEM_COMPONENT_COUNT>
1

> <PUBCHEM_CACTVS_TAUTO_COUNT>
1

> <PUBCHEM_COORDINATE_TYPE>
1
5
255

> <PUBCHEM_BONDANNOTATIONS>
1  9  5
2  10  5

$$$$

