125128
  -OEChem-07051212502D

 88 90  0     1  0  0  0  0  0999 V2000
    6.0010   -2.0701    0.0000 O   0  0  0  0  0  0  0  0  0  0  0  0
    5.3671    1.0280    0.0000 O   0  0  0  0  0  0  0  0  0  0  0  0
    5.3671    2.7601    0.0000 O   0  0  0  0  0  0  0  0  0  0  0  0
    6.3671   -0.7040    0.0000 O   0  0  0  0  0  0  0  0  0  0  0  0
    7.0991    4.7601    0.0000 O   0  0  0  0  0  0  0  0  0  0  0  0
    8.5991   -3.5701    0.0000 O   0  0  0  0  0  0  0  0  0  0  0  0
    3.3671   -0.7040    0.0000 O   0  0  0  0  0  0  0  0  0  0  0  0
    3.3671    2.7601    0.0000 O   0  0  0  0  0  0  0  0  0  0  0  0
    2.3671    1.0280    0.0000 O   0  0  0  0  0  0  0  0  0  0  0  0
    7.0991    1.7601    0.0000 O   0  0  0  0  0  0  0  0  0  0  0  0
    5.1350   -4.5701    0.0000 O   0  0  0  0  0  0  0  0  0  0  0  0
    8.8312    4.7601    0.0000 O   0  0  0  0  0  0  0  0  0  0  0  0
    4.2690   -2.0701    0.0000 O   0  0  0  0  0  0  0  0  0  0  0  0
    8.3671   -0.7040    0.0000 O   0  0  0  0  0  0  0  0  0  0  0  0
    5.3671    5.7601    0.0000 O   0  0  0  0  0  0  0  0  0  0  0  0
    6.8671    0.1620    0.0000 O   0  0  0  0  0  0  0  0  0  0  0  0
    2.5369   -3.0701    0.0000 O   0  0  0  0  0  0  0  0  0  0  0  0
    8.5991   -4.5701    0.0000 O   0  0  0  0  0  0  0  0  0  0  0  0
    9.6972    4.2601    0.0000 O   0  0  0  0  0  0  0  0  0  0  0  0
    6.8671   -4.5701    0.0000 N   0  0  0  0  0  0  0  0  0  0  0  0
    8.8312    2.7601    0.0000 N   0  0  0  0  0  0  0  0  0  0  0  0
    6.8671   -3.5701    0.0000 C   0  0  1  0  0  0  0  0  0  0  0  0
    6.0010   -3.0701    0.0000 C   0  0  2  0  0  0  0  0  0  0  0  0
    6.8671   -1.5701    0.0000 C   0  0  2  0  0  0  0  0  0  0  0  0
    7.7331   -3.0701    0.0000 C   0  0  2  0  0  0  0  0  0  0  0  0
    7.7331   -2.0701    0.0000 C   0  0  0  0  0  0  0  0  0  0  0  0
    4.8671    0.1620    0.0000 C   0  0  1  0  0  0  0  0  0  0  0  0
    6.2331    3.2601    0.0000 C   0  0  1  0  0  0  0  0  0  0  0  0
    4.8671    1.8940    0.0000 C   0  0  1  0  0  0  0  0  0  0  0  0
    3.8671    0.1620    0.0000 C   0  0  1  0  0  0  0  0  0  0  0  0
    3.8671    1.8940    0.0000 C   0  0  1  0  0  0  0  0  0  0  0  0
    3.3671    1.0280    0.0000 C   0  0  1  0  0  0  0  0  0  0  0  0
    7.0991    2.7601    0.0000 C   0  0  1  0  0  0  0  0  0  0  0  0
    5.1350   -3.5701    0.0000 C   0  0  1  0  0  0  0  0  0  0  0  0
    6.2331    4.2601    0.0000 C   0  0  1  0  0  0  0  0  0  0  0  0
    7.9651    3.2601    0.0000 C   0  0  2  0  0  0  0  0  0  0  0  0
    5.3671   -0.7040    0.0000 C   0  0  0  0  0  0  0  0  0  0  0  0
    7.9651    4.2601    0.0000 C   0  0  1  0  0  0  0  0  0  0  0  0
    4.2690   -3.0701    0.0000 C   0  0  1  0  0  0  0  0  0  0  0  0
    7.3671   -0.7040    0.0000 C   0  0  0  0  0  0  0  0  0  0  0  0
    5.3671    4.7601    0.0000 C   0  0  0  0  0  0  0  0  0  0  0  0
    3.4030   -3.5701    0.0000 C   0  0  0  0  0  0  0  0  0  0  0  0
    7.7331   -5.0701    0.0000 C   0  0  0  0  0  0  0  0  0  0  0  0
    9.6972    3.2601    0.0000 C   0  0  0  0  0  0  0  0  0  0  0  0
    7.7331   -6.0701    0.0000 C   0  0  0  0  0  0  0  0  0  0  0  0
   10.5632    2.7601    0.0000 C   0  0  0  0  0  0  0  0  0  0  0  0
    6.3301   -3.8801    0.0000 H   0  0  0  0  0  0  0  0  0  0  0  0
    5.2649   -2.6451    0.0000 H   0  0  0  0  0  0  0  0  0  0  0  0
    7.7331   -3.6901    0.0000 H   0  0  0  0  0  0  0  0  0  0  0  0
    8.3437   -2.1777    0.0000 H   0  0  0  0  0  0  0  0  0  0  0  0
    7.9451   -1.4874    0.0000 H   0  0  0  0  0  0  0  0  0  0  0  0
    5.4871    0.1620    0.0000 H   0  0  0  0  0  0  0  0  0  0  0  0
    6.2331    2.6401    0.0000 H   0  0  0  0  0  0  0  0  0  0  0  0
    4.5571    2.4310    0.0000 H   0  0  0  0  0  0  0  0  0  0  0  0
    3.2471    0.1620    0.0000 H   0  0  0  0  0  0  0  0  0  0  0  0
    4.1771    2.4310    0.0000 H   0  0  0  0  0  0  0  0  0  0  0  0
    3.0571    1.5650    0.0000 H   0  0  0  0  0  0  0  0  0  0  0  0
    7.6360    2.4501    0.0000 H   0  0  0  0  0  0  0  0  0  0  0  0
    5.6720   -3.8801    0.0000 H   0  0  0  0  0  0  0  0  0  0  0  0
    6.2331    4.8801    0.0000 H   0  0  0  0  0  0  0  0  0  0  0  0
    7.9651    2.6401    0.0000 H   0  0  0  0  0  0  0  0  0  0  0  0
    4.7844   -0.9161    0.0000 H   0  0  0  0  0  0  0  0  0  0  0  0
    5.4747   -1.3146    0.0000 H   0  0  0  0  0  0  0  0  0  0  0  0
    7.9651    4.8801    0.0000 H   0  0  0  0  0  0  0  0  0  0  0  0
    6.3301   -4.8801    0.0000 H   0  0  0  0  0  0  0  0  0  0  0  0
    4.8059   -2.7601    0.0000 H   0  0  0  0  0  0  0  0  0  0  0  0
    4.7565    4.8677    0.0000 H   0  0  0  0  0  0  0  0  0  0  0  0
    5.1550    4.1774    0.0000 H   0  0  0  0  0  0  0  0  0  0  0  0
    9.1360   -3.2601    0.0000 H   0  0  0  0  0  0  0  0  0  0  0  0
    8.8312    2.1401    0.0000 H   0  0  0  0  0  0  0  0  0  0  0  0
    2.7471   -0.7040    0.0000 H   0  0  0  0  0  0  0  0  0  0  0  0
    2.7471    2.7601    0.0000 H   0  0  0  0  0  0  0  0  0  0  0  0
    2.0571    1.5650    0.0000 H   0  0  0  0  0  0  0  0  0  0  0  0
    6.5622    1.4501    0.0000 H   0  0  0  0  0  0  0  0  0  0  0  0
    3.0044   -4.0450    0.0000 H   0  0  0  0  0  0  0  0  0  0  0  0
    3.8015   -4.0450    0.0000 H   0  0  0  0  0  0  0  0  0  0  0  0
    4.5981   -4.8801    0.0000 H   0  0  0  0  0  0  0  0  0  0  0  0
    8.8312    5.3801    0.0000 H   0  0  0  0  0  0  0  0  0  0  0  0
    3.7320   -1.7601    0.0000 H   0  0  0  0  0  0  0  0  0  0  0  0
    8.6771   -0.1671    0.0000 H   0  0  0  0  0  0  0  0  0  0  0  0
    4.8301    6.0701    0.0000 H   0  0  0  0  0  0  0  0  0  0  0  0
    7.1131   -6.0701    0.0000 H   0  0  0  0  0  0  0  0  0  0  0  0
    7.7331   -6.6901    0.0000 H   0  0  0  0  0  0  0  0  0  0  0  0
    8.3531   -6.0701    0.0000 H   0  0  0  0  0  0  0  0  0  0  0  0
    2.0000   -3.3801    0.0000 H   0  0  0  0  0  0  0  0  0  0  0  0
   10.2532    2.2231    0.0000 H   0  0  0  0  0  0  0  0  0  0  0  0
   11.1002    2.4501    0.0000 H   0  0  0  0  0  0  0  0  0  0  0  0
   10.8732    3.2970    0.0000 H   0  0  0  0  0  0  0  0  0  0  0  0
  1 23  1  0  0  0  0
  1 24  1  0  0  0  0
  2 27  1  0  0  0  0
  2 29  1  0  0  0  0
 28  3  1  6  0  0  0
 29  3  1  6  0  0  0
 24  4  1  6  0  0  0
  4 37  1  0  0  0  0
  5 35  1  0  0  0  0
  5 38  1  0  0  0  0
 25  6  1  6  0  0  0
  6 69  1  0  0  0  0
 30  7  1  6  0  0  0
  7 71  1  0  0  0  0
 31  8  1  1  0  0  0
  8 72  1  0  0  0  0
 32  9  1  6  0  0  0
  9 73  1  0  0  0  0
 33 10  1  1  0  0  0
 10 74  1  0  0  0  0
 34 11  1  6  0  0  0
 11 77  1  0  0  0  0
 38 12  1  1  0  0  0
 12 78  1  0  0  0  0
 39 13  1  1  0  0  0
 13 79  1  0  0  0  0
 14 40  1  0  0  0  0
 14 80  1  0  0  0  0
 15 41  1  0  0  0  0
 15 81  1  0  0  0  0
 16 40  2  0  0  0  0
 17 42  1  0  0  0  0
 17 85  1  0  0  0  0
 18 43  2  0  0  0  0
 19 44  2  0  0  0  0
 22 20  1  1  0  0  0
 20 43  1  0  0  0  0
 20 65  1  0  0  0  0
 36 21  1  6  0  0  0
 21 44  1  0  0  0  0
 21 70  1  0  0  0  0
 22 23  1  0  0  0  0
 22 25  1  0  0  0  0
 22 47  1  0  0  0  0
 23 34  1  0  0  0  0
 23 48  1  1  0  0  0
 24 26  1  0  0  0  0
 24 40  1  0  0  0  0
 25 26  1  0  0  0  0
 25 49  1  0  0  0  0
 26 50  1  0  0  0  0
 26 51  1  0  0  0  0
 27 30  1  0  0  0  0
 27 37  1  6  0  0  0
 27 52  1  0  0  0  0
 28 33  1  0  0  0  0
 28 35  1  0  0  0  0
 28 53  1  0  0  0  0
 29 31  1  0  0  0  0
 29 54  1  0  0  0  0
 30 32  1  0  0  0  0
 30 55  1  0  0  0  0
 31 32  1  0  0  0  0
 31 56  1  0  0  0  0
 32 57  1  0  0  0  0
 33 36  1  0  0  0  0
 33 58  1  0  0  0  0
 34 39  1  0  0  0  0
 34 59  1  0  0  0  0
 35 41  1  1  0  0  0
 35 60  1  0  0  0  0
 36 38  1  0  0  0  0
 36 61  1  0  0  0  0
 37 62  1  0  0  0  0
 37 63  1  0  0  0  0
 38 64  1  0  0  0  0
 39 42  1  0  0  0  0
 39 66  1  0  0  0  0
 41 67  1  0  0  0  0
 41 68  1  0  0  0  0
 42 75  1  0  0  0  0
 42 76  1  0  0  0  0
 43 45  1  0  0  0  0
 44 46  1  0  0  0  0
 45 82  1  0  0  0  0
 45 83  1  0  0  0  0
 45 84  1  0  0  0  0
 46 86  1  0  0  0  0
 46 87  1  0  0  0  0
 46 88  1  0  0  0  0
M  END
> <PUBCHEM_COMPOUND_CID>
125128

> <PUBCHEM_COMPOUND_CANONICALIZED>
1

> <PUBCHEM_CACTVS_COMPLEXITY>
1050

> <PUBCHEM_CACTVS_HBOND_ACCEPTOR>
19

> <PUBCHEM_CACTVS_HBOND_DONOR>
13

> <PUBCHEM_CACTVS_ROTATABLE_BOND>
12

> <PUBCHEM_CACTVS_SUBSKEYS>
AAADcfB7PgAAAAAAAAAAAAAAAAAAAAAAAAAkSJAAAAAAAAAAAAAAHgAQCAAACDzxgAcCCALABgAIAAGQGAIAAAAAAAAAAIFIAAATEBIAgAQnQAAHFgCXAAH6+a+QAAAAAAAAAAAAAAAAAAAAAAAAAAAAAA==

> <PUBCHEM_IUPAC_OPENEYE_NAME>
(2R,4S,5R,6R)-5-acetamido-2-[[(2R,3R,4S,5R,6S)-6-[(2R,3S,4R,5R,6R)-5-acetamido-4,6-dihydroxy-2-(hydroxymethyl)tetrahydropyran-3-yl]oxy-3,4,5-trihydroxy-tetrahydropyran-2-yl]methoxy]-4-hydroxy-6-[(1R,2R)-1,2,3-trihydroxypropyl]tetrahydropyran-2-carboxylic acid

> <PUBCHEM_IUPAC_CAS_NAME>
(2R,4S,5R,6R)-5-acetamido-2-[[(2R,3R,4S,5R,6S)-6-[[(2R,3S,4R,5R,6R)-5-acetamido-4,6-dihydroxy-2-(hydroxymethyl)-3-oxanyl]oxy]-3,4,5-trihydroxy-2-oxanyl]methoxy]-4-hydroxy-6-[(1R,2R)-1,2,3-trihydroxypropyl]-2-oxanecarboxylic acid

> <PUBCHEM_IUPAC_NAME>
(2R,4S,5R,6R)-5-acetamido-2-[[(2R,3R,4S,5R,6S)-6-[(2R,3S,4R,5R,6R)-5-acetamido-4,6-dihydroxy-2-(hydroxymethyl)oxan-3-yl]oxy-3,4,5-trihydroxyoxan-2-yl]methoxy]-4-hydroxy-6-[(1R,2R)-1,2,3-trihydroxypropyl]oxane-2-carboxylic acid

> <PUBCHEM_IUPAC_SYSTEMATIC_NAME>
(2R,4S,5R,6R)-5-acetamido-2-[[(2R,3R,4S,5R,6S)-6-[(2R,3S,4R,5R,6R)-5-acetamido-2-(hydroxymethyl)-4,6-bis(oxidanyl)oxan-3-yl]oxy-3,4,5-tris(oxidanyl)oxan-2-yl]methoxy]-4-oxidanyl-6-[(1R,2R)-1,2,3-tris(oxidanyl)propyl]oxane-2-carboxylic acid

> <PUBCHEM_IUPAC_TRADITIONAL_NAME>
(2R,4S,5R,6R)-5-acetamido-2-[[(2R,3R,4S,5R,6S)-6-[(2R,3S,4R,5R,6R)-5-acetamido-4,6-dihydroxy-2-methylol-tetrahydropyran-3-yl]oxy-3,4,5-trihydroxy-tetrahydropyran-2-yl]methoxy]-4-hydroxy-6-[(1R,2R)-1,2,3-trihydroxypropyl]tetrahydropyran-2-carboxylic acid

> <PUBCHEM_IUPAC_INCHI>
InChI=1S/C25H42N2O19/c1-7(30)26-13-9(32)3-25(24(40)41,46-21(13)15(34)10(33)4-28)42-6-12-16(35)18(37)19(38)23(44-12)45-20-11(5-29)43-22(39)14(17(20)36)27-8(2)31/h9-23,28-29,32-39H,3-6H2,1-2H3,(H,26,30)(H,27,31)(H,40,41)/t9-,10+,11+,12+,13+,14+,15+,16-,17+,18-,19+,20+,21+,22+,23-,25+/m0/s1

> <PUBCHEM_IUPAC_INCHIKEY>
RPSBVJXBTXEJJG-LURNZOHQSA-N

> <PUBCHEM_XLOGP3_AA>
-7.8

> <PUBCHEM_EXACT_MASS>
674.238177

> <PUBCHEM_MOLECULAR_FORMULA>
C25H42N2O19

> <PUBCHEM_MOLECULAR_WEIGHT>
674.60298

> <PUBCHEM_OPENEYE_CAN_SMILES>
CC(=O)NC1C(CC(OC1C(C(CO)O)O)(C(=O)O)OCC2C(C(C(C(O2)OC3C(OC(C(C3O)NC(=O)C)O)CO)O)O)O)O

> <PUBCHEM_OPENEYE_ISO_SMILES>
CC(=O)N[C@@H]1[C@H](C[C@@](O[C@H]1[C@@H]([C@@H](CO)O)O)(C(=O)O)OC[C@@H]2[C@@H]([C@@H]([C@H]([C@@H](O2)O[C@@H]3[C@H](O[C@H]([C@@H]([C@H]3O)NC(=O)C)O)CO)O)O)O)O

> <PUBCHEM_CACTVS_TPSA>
344

> <PUBCHEM_MONOISOTOPIC_WEIGHT>
674.238177

> <PUBCHEM_TOTAL_CHARGE>
0

> <PUBCHEM_HEAVY_ATOM_COUNT>
46

> <PUBCHEM_ATOM_DEF_STEREO_COUNT>
16

> <PUBCHEM_ATOM_UDEF_STEREO_COUNT>
0

> <PUBCHEM_BOND_DEF_STEREO_COUNT>
0

> <PUBCHEM_BOND_UDEF_STEREO_COUNT>
0

> <PUBCHEM_ISOTOPIC_ATOM_COUNT>
0

> <PUBCHEM_COMPONENT_COUNT>
1

> <PUBCHEM_CACTVS_TAUTO_COUNT>
4

> <PUBCHEM_COORDINATE_TYPE>
1
5
255

> <PUBCHEM_BONDANNOTATIONS>
33  10  5
34  11  6
38  12  5
39  13  5
22  20  5
36  21  6
23  48  5
27  37  6
28  3  6
29  3  6
35  41  5
24  4  6
25  6  6
30  7  6
31  8  5
32  9  6

$$$$

