   Color/Form

     * COLORLESS CRYSTALS
     * white powder

   from [1]HSDB

   Odor
        ODORLESS
   from [2]HSDB

   Melting Point
        147-148 DEG C
   from [3]HSDB

   Corrosivity
        Noncorrosive
   from [4]HSDB

   Density/Specific Gravity
        140 g/cu cm
   from [5]HSDB

   Octanol/Water Partition Coefficient
        Log Kow = 2.41
   from [6]HSDB

   Solubilities

     * IT IS SOLUBLE IN MOST ORGANIC SOLVENTS
     * In acetone 5%, ethyl acetate 2%, benzene 2.4%, isopropanol 1.5%,
       methylene chloride 4.3% w/v
     * In water, 70 mg/L at 25 deg C
     * In acetone 54, dichloromethane 51, ethanol 48, toluene 3.0, hexane
       0.06, n-octanol 24, ethyl acetate 21 (all in g/L at 25 deg C)

   from [7]HSDB

   Vapor Pressure
        3.6X10-8 MM HG @ 20 DEG C
   from [8]HSDB

   Other Chemical/Physical Properties
        Stable to heat and UV light. Slowly hydrolyzed by strong acids and
   alkalis. DT50 (calculated) > 200 days (pH 5,7,9 and at 30 deg C)
   from [9]HSDB

   Computed Properties
   Molecular Weight                  212.67602 [g/mol]
   Molecular Formula                 C[10]H[13]ClN[2]O
   XLogP3                            2.4
   H-Bond Donor                      1
   H-Bond Acceptor                   1
   Rotatable Bond Count              1
   Tautomer Count                    2
   Exact Mass                        212.071641
   MonoIsotopic Mass                 212.071641
   Topological Polar Surface Area    32.3
   Heavy Atom Count                  14
   Formal Charge                     0
   Complexity                        208
   Isotope Atom Count                0
   Defined Atom Stereocenter Count   0
   Undefined Atom Stereocenter Count 0
   Defined Bond Stereocenter Count   0
   Undefined Bond Stereocenter Count 0
   Covalently-Bonded Unit Count      1
   Feature 3D Acceptor Count         1
   Feature 3D Donor Count            1
   Feature 3D Ring Count             1
   Effective Rotor Count             3
   Conformer Sampling RMSD           0.6
   CID Conformer Count               [10]10

References

   1. http://toxnet.nlm.nih.gov/cgi-bin/sis/search/r?dbs+hsdb:@term+@rn+@rel+15545-48-9
   2. http://toxnet.nlm.nih.gov/cgi-bin/sis/search/r?dbs+hsdb:@term+@rn+@rel+15545-48-9
   3. http://toxnet.nlm.nih.gov/cgi-bin/sis/search/r?dbs+hsdb:@term+@rn+@rel+15545-48-9
   4. http://toxnet.nlm.nih.gov/cgi-bin/sis/search/r?dbs+hsdb:@term+@rn+@rel+15545-48-9
   5. http://toxnet.nlm.nih.gov/cgi-bin/sis/search/r?dbs+hsdb:@term+@rn+@rel+15545-48-9
   6. http://toxnet.nlm.nih.gov/cgi-bin/sis/search/r?dbs+hsdb:@term+@rn+@rel+15545-48-9
   7. http://toxnet.nlm.nih.gov/cgi-bin/sis/search/r?dbs+hsdb:@term+@rn+@rel+15545-48-9
   8. http://toxnet.nlm.nih.gov/cgi-bin/sis/search/r?dbs+hsdb:@term+@rn+@rel+15545-48-9
   9. http://toxnet.nlm.nih.gov/cgi-bin/sis/search/r?dbs+hsdb:@term+@rn+@rel+15545-48-9
  10. http://pubchem.ncbi.nlm.nih.gov/vw3d/vw3d.cgi?cid=27375
