15868
  -OEChem-07051213142D

 55 55  0     1  0  0  0  0  0999 V2000
   10.8312    0.6160    0.0000 O   0  0  0  0  0  0  0  0  0  0  0  0
    2.5369   -0.7500    0.0000 O   0  0  0  0  0  0  0  0  0  0  0  0
    3.4030    0.7500    0.0000 O   0  0  0  0  0  0  0  0  0  0  0  0
   11.3312   -0.2500    0.0000 C   0  0  3  0  0  0  0  0  0  0  0  0
   10.3312   -0.2500    0.0000 C   0  0  3  0  0  0  0  0  0  0  0  0
   12.1972   -0.7500    0.0000 C   0  0  0  0  0  0  0  0  0  0  0  0
    9.4651   -0.7500    0.0000 C   0  0  0  0  0  0  0  0  0  0  0  0
   13.0632   -0.2500    0.0000 C   0  0  0  0  0  0  0  0  0  0  0  0
    8.5991   -0.2500    0.0000 C   0  0  0  0  0  0  0  0  0  0  0  0
   13.9292   -0.7500    0.0000 C   0  0  0  0  0  0  0  0  0  0  0  0
    7.7331   -0.7500    0.0000 C   0  0  0  0  0  0  0  0  0  0  0  0
   14.7953   -0.2500    0.0000 C   0  0  0  0  0  0  0  0  0  0  0  0
    6.8671   -0.2500    0.0000 C   0  0  0  0  0  0  0  0  0  0  0  0
   15.6613   -0.7500    0.0000 C   0  0  0  0  0  0  0  0  0  0  0  0
    6.0010   -0.7500    0.0000 C   0  0  0  0  0  0  0  0  0  0  0  0
   16.5273   -0.2500    0.0000 C   0  0  0  0  0  0  0  0  0  0  0  0
    5.1350   -0.2500    0.0000 C   0  0  0  0  0  0  0  0  0  0  0  0
   17.3933   -0.7500    0.0000 C   0  0  0  0  0  0  0  0  0  0  0  0
    4.2690   -0.7500    0.0000 C   0  0  0  0  0  0  0  0  0  0  0  0
   18.2594   -0.2500    0.0000 C   0  0  0  0  0  0  0  0  0  0  0  0
    3.4030   -0.2500    0.0000 C   0  0  0  0  0  0  0  0  0  0  0  0
   11.9322    0.3510    0.0000 H   0  0  0  0  0  0  0  0  0  0  0  0
    9.7301    0.3510    0.0000 H   0  0  0  0  0  0  0  0  0  0  0  0
   11.7987   -1.2250    0.0000 H   0  0  0  0  0  0  0  0  0  0  0  0
   12.5957   -1.2250    0.0000 H   0  0  0  0  0  0  0  0  0  0  0  0
    9.0666   -1.2250    0.0000 H   0  0  0  0  0  0  0  0  0  0  0  0
    9.8637   -1.2250    0.0000 H   0  0  0  0  0  0  0  0  0  0  0  0
   13.4617    0.2249    0.0000 H   0  0  0  0  0  0  0  0  0  0  0  0
   12.6647    0.2249    0.0000 H   0  0  0  0  0  0  0  0  0  0  0  0
    8.9976    0.2249    0.0000 H   0  0  0  0  0  0  0  0  0  0  0  0
    8.2006    0.2249    0.0000 H   0  0  0  0  0  0  0  0  0  0  0  0
   13.5307   -1.2250    0.0000 H   0  0  0  0  0  0  0  0  0  0  0  0
   14.3278   -1.2250    0.0000 H   0  0  0  0  0  0  0  0  0  0  0  0
    7.3346   -1.2250    0.0000 H   0  0  0  0  0  0  0  0  0  0  0  0
    8.1316   -1.2250    0.0000 H   0  0  0  0  0  0  0  0  0  0  0  0
   15.1938    0.2249    0.0000 H   0  0  0  0  0  0  0  0  0  0  0  0
   14.3967    0.2249    0.0000 H   0  0  0  0  0  0  0  0  0  0  0  0
    7.2656    0.2249    0.0000 H   0  0  0  0  0  0  0  0  0  0  0  0
    6.4685    0.2249    0.0000 H   0  0  0  0  0  0  0  0  0  0  0  0
   15.2628   -1.2250    0.0000 H   0  0  0  0  0  0  0  0  0  0  0  0
   16.0598   -1.2250    0.0000 H   0  0  0  0  0  0  0  0  0  0  0  0
    5.6025   -1.2250    0.0000 H   0  0  0  0  0  0  0  0  0  0  0  0
    6.3996   -1.2250    0.0000 H   0  0  0  0  0  0  0  0  0  0  0  0
   16.9258    0.2249    0.0000 H   0  0  0  0  0  0  0  0  0  0  0  0
   16.1288    0.2249    0.0000 H   0  0  0  0  0  0  0  0  0  0  0  0
    5.5335    0.2249    0.0000 H   0  0  0  0  0  0  0  0  0  0  0  0
    4.7365    0.2249    0.0000 H   0  0  0  0  0  0  0  0  0  0  0  0
   16.9948   -1.2250    0.0000 H   0  0  0  0  0  0  0  0  0  0  0  0
   17.7919   -1.2250    0.0000 H   0  0  0  0  0  0  0  0  0  0  0  0
    3.8705   -1.2250    0.0000 H   0  0  0  0  0  0  0  0  0  0  0  0
    4.6675   -1.2250    0.0000 H   0  0  0  0  0  0  0  0  0  0  0  0
   18.5694   -0.7869    0.0000 H   0  0  0  0  0  0  0  0  0  0  0  0
   18.7963    0.0600    0.0000 H   0  0  0  0  0  0  0  0  0  0  0  0
   17.9494    0.2869    0.0000 H   0  0  0  0  0  0  0  0  0  0  0  0
    2.0000   -0.4400    0.0000 H   0  0  0  0  0  0  0  0  0  0  0  0
  1  4  1  0  0  0  0
  1  5  1  0  0  0  0
  2 21  1  0  0  0  0
  2 55  1  0  0  0  0
  3 21  2  0  0  0  0
  4  5  1  0  0  0  0
  4  6  1  0  0  0  0
  4 22  1  0  0  0  0
  5  7  1  0  0  0  0
  5 23  1  0  0  0  0
  6  8  1  0  0  0  0
  6 24  1  0  0  0  0
  6 25  1  0  0  0  0
  7  9  1  0  0  0  0
  7 26  1  0  0  0  0
  7 27  1  0  0  0  0
  8 10  1  0  0  0  0
  8 28  1  0  0  0  0
  8 29  1  0  0  0  0
  9 11  1  0  0  0  0
  9 30  1  0  0  0  0
  9 31  1  0  0  0  0
 10 12  1  0  0  0  0
 10 32  1  0  0  0  0
 10 33  1  0  0  0  0
 11 13  1  0  0  0  0
 11 34  1  0  0  0  0
 11 35  1  0  0  0  0
 12 14  1  0  0  0  0
 12 36  1  0  0  0  0
 12 37  1  0  0  0  0
 13 15  1  0  0  0  0
 13 38  1  0  0  0  0
 13 39  1  0  0  0  0
 14 16  1  0  0  0  0
 14 40  1  0  0  0  0
 14 41  1  0  0  0  0
 15 17  1  0  0  0  0
 15 42  1  0  0  0  0
 15 43  1  0  0  0  0
 16 18  1  0  0  0  0
 16 44  1  0  0  0  0
 16 45  1  0  0  0  0
 17 19  1  0  0  0  0
 17 46  1  0  0  0  0
 17 47  1  0  0  0  0
 18 20  1  0  0  0  0
 18 48  1  0  0  0  0
 18 49  1  0  0  0  0
 19 21  1  0  0  0  0
 19 50  1  0  0  0  0
 19 51  1  0  0  0  0
 20 52  1  0  0  0  0
 20 53  1  0  0  0  0
 20 54  1  0  0  0  0
M  END
> <PUBCHEM_COMPOUND_CID>
15868

> <PUBCHEM_COMPOUND_CANONICALIZED>
1

> <PUBCHEM_CACTVS_COMPLEXITY>
265

> <PUBCHEM_CACTVS_HBOND_ACCEPTOR>
3

> <PUBCHEM_CACTVS_HBOND_DONOR>
1

> <PUBCHEM_CACTVS_ROTATABLE_BOND>
15

> <PUBCHEM_CACTVS_SUBSKEYS>
AAADcfB4MAAAAAAAAAAAAAAAEgAAAAAAAAAAAAAAAAAAAAAAAAAAGgAACAAACBSggAICCAAABgAIAACQCAAAAAAAAAAAAAEAAAAAABIAAAACQAAEAAAAAAGIyKCAAAAAAAAAAAAAAAAAAAAAAAAAAAAAAA==

> <PUBCHEM_IUPAC_OPENEYE_NAME>
8-(3-octyloxiran-2-yl)octanoic acid

> <PUBCHEM_IUPAC_CAS_NAME>
8-(3-octyl-2-oxiranyl)octanoic acid

> <PUBCHEM_IUPAC_NAME>
8-(3-octyloxiran-2-yl)octanoic acid

> <PUBCHEM_IUPAC_SYSTEMATIC_NAME>
8-(3-octyloxiran-2-yl)octanoic acid

> <PUBCHEM_IUPAC_TRADITIONAL_NAME>
8-(3-octyloxiran-2-yl)caprylic acid

> <PUBCHEM_IUPAC_INCHI>
InChI=1S/C18H34O3/c1-2-3-4-5-7-10-13-16-17(21-16)14-11-8-6-9-12-15-18(19)20/h16-17H,2-15H2,1H3,(H,19,20)

> <PUBCHEM_IUPAC_INCHIKEY>
IMYZYCNQZDBZBQ-UHFFFAOYSA-N

> <PUBCHEM_XLOGP3_AA>
6.1

> <PUBCHEM_EXACT_MASS>
298.250795

> <PUBCHEM_MOLECULAR_FORMULA>
C18H34O3

> <PUBCHEM_MOLECULAR_WEIGHT>
298.46076

> <PUBCHEM_OPENEYE_CAN_SMILES>
CCCCCCCCC1C(O1)CCCCCCCC(=O)O

> <PUBCHEM_OPENEYE_ISO_SMILES>
CCCCCCCCC1C(O1)CCCCCCCC(=O)O

> <PUBCHEM_CACTVS_TPSA>
49.8

> <PUBCHEM_MONOISOTOPIC_WEIGHT>
298.250795

> <PUBCHEM_TOTAL_CHARGE>
0

> <PUBCHEM_HEAVY_ATOM_COUNT>
21

> <PUBCHEM_ATOM_DEF_STEREO_COUNT>
0

> <PUBCHEM_ATOM_UDEF_STEREO_COUNT>
2

> <PUBCHEM_BOND_DEF_STEREO_COUNT>
0

> <PUBCHEM_BOND_UDEF_STEREO_COUNT>
0

> <PUBCHEM_ISOTOPIC_ATOM_COUNT>
0

> <PUBCHEM_COMPONENT_COUNT>
1

> <PUBCHEM_CACTVS_TAUTO_COUNT>
1

> <PUBCHEM_COORDINATE_TYPE>
1
5
255

> <PUBCHEM_BONDANNOTATIONS>
4  22  3
5  23  3

$$$$

