   Color/Form

     * CLEAR, COLORLESS LIQUID
     * Colorless liquid

   from [1]HSDB

   Odor
        Characteristic ammonia like fishy odor of aliphatic hydrazines
   from [2]HSDB

   Boiling Point
        63.9 deg C at 760 mm Hg
   from [3]HSDB

   Melting Point
        -58 deg C
   from [4]HSDB

   Corrosivity
        Highly corrosive.
   from [5]HSDB

   Critical Temperature and Pressure
        Critical temperature: 250 deg C; Critical pressure: 5.42 MPa
   from [6]HSDB

   Density/Specific Gravity
        0.782 at 25 deg C/25 deg C; 0.791 at 22 deg C/4 deg C
   from [7]HSDB

   Dissociation Constants
        pKa= 7.21 at 25 deg C
   from [8]HSDB

   Heat of Combustion
        -1979 kJ/mol
   from [9]HSDB

   Heat of Vaporization
        32.623 kJ/mol
   from [10]HSDB

   Octanol/Water Partition Coefficient
        log Kow = -1.19 /Estimated/
   from [11]HSDB

   pH
        STRONGLY ALKALINE LIQ
   from [12]HSDB

   Solubilities

     * Very sol in methanol and ethanol
     * >10% in water
     * Miscible with dimethylformamide, hydrocarbons, alcohol, ether
     * Miscible in water at 25 deg C

   from [13]HSDB

   Spectral Properties

     * Index of refraction: 1.40753 @ 22.3 deg C/D
     * MASS: 64423 (NIST/EPA/MSDC Mass Spectral Database, 1990 version)
     * NMR: 18721 (Sadtler Research Laboratories Spectral Collection)
     * IR: 7647 (Sadtler Research Laboratories Prism Collection)
     * Raman: 256 (Sadtler Research Laboratories Spectral Collection)

   from [14]HSDB

   Surface Tension
        24.09 dynes/cm at 25 deg C
   from [15]HSDB

   Vapor Density
        1.94 (Air= 1)
   from [16]HSDB

   Vapor Pressure
        167 mm Hg at 25 deg C
   from [17]HSDB

   Viscosity
        0.492 millipascal second @ 25 deg C
   from [18]HSDB

   Other Chemical/Physical Properties

     * CONVERSION FACTORS: 1 MG/L= 4.07 PPM AND 1 PPM= 2.5 MG/CU M
     * CMPD IS HIGHLY REACTIVE; EASILY OXIDIZABLE AND FORMS SALTS
     * Hygroscopic /1,1-Dimethylhydrazine hydrochloride/
     * VAPOR (GAS) SPECIFIC GRAVITY: 2.1; RATIO OF SPECIFIC HEATS OF VAPOR
       (GAS): (EST) 1.152; HEAT OF SOLUTION: (EST) -10 CAL/G
     * Crystals from absolute ethanol /1,1-Dimethylhydrazine
       hydrochloride/
     * Soluble in water, ethanol. Practically insoluble in ether.
       /1,1-Dimethylhydrazine hydrochloride/
     * Fumes in air and gradually turns yellow.
     * DISSOLVES, SWELLS, AND DISINTEGRATES MANY PLASTICS
     * Ionization potential: 7.46 eV
     * Heat of fusion: 10.07 kJ/mole; heat capacity: 2.045 J/g.deg C @ 25
       deg C; heat of formation: 51.63 kJ/mole; free energy of formation:
       206.69 kJ/mole; entropy of formation: 197.99 J/mole.deg C
     * Heat of sublimation: 8.37 kcal/mole @ 298 deg K
     * Henry's Law constant = 1.3X10-5 atm-cu m/mol at 25 deg C
       /Estimated/
     * Hydroxyl radical reaction rate constant = 2.5X10-12 cu cm/molec-sec
       at 25 deg C /Estimated/

   from [19]HSDB

   Computed Properties
   Molecular Weight                  60.09832 [g/mol]
   Molecular Formula                 C[2]H[8]N[2]
   XLogP3-AA                         -0.5
   H-Bond Donor                      1
   H-Bond Acceptor                   2
   Rotatable Bond Count              0
   Exact Mass                        60.068748
   MonoIsotopic Mass                 60.068748
   Topological Polar Surface Area    29.3
   Heavy Atom Count                  4
   Formal Charge                     0
   Complexity                        11.5
   Isotope Atom Count                0
   Defined Atom Stereocenter Count   0
   Undefined Atom Stereocenter Count 0
   Defined Bond Stereocenter Count   0
   Undefined Bond Stereocenter Count 0
   Covalently-Bonded Unit Count      1
   Feature 3D Donor Count            1
   Effective Rotor Count             0
   Conformer Sampling RMSD           0.4
   CID Conformer Count               [20]1

References

   1. http://toxnet.nlm.nih.gov/cgi-bin/sis/search/r?dbs+hsdb:@term+@rn+@rel+57-14-7
   2. http://toxnet.nlm.nih.gov/cgi-bin/sis/search/r?dbs+hsdb:@term+@rn+@rel+57-14-7
   3. http://toxnet.nlm.nih.gov/cgi-bin/sis/search/r?dbs+hsdb:@term+@rn+@rel+57-14-7
   4. http://toxnet.nlm.nih.gov/cgi-bin/sis/search/r?dbs+hsdb:@term+@rn+@rel+57-14-7
   5. http://toxnet.nlm.nih.gov/cgi-bin/sis/search/r?dbs+hsdb:@term+@rn+@rel+57-14-7
   6. http://toxnet.nlm.nih.gov/cgi-bin/sis/search/r?dbs+hsdb:@term+@rn+@rel+57-14-7
   7. http://toxnet.nlm.nih.gov/cgi-bin/sis/search/r?dbs+hsdb:@term+@rn+@rel+57-14-7
   8. http://toxnet.nlm.nih.gov/cgi-bin/sis/search/r?dbs+hsdb:@term+@rn+@rel+57-14-7
   9. http://toxnet.nlm.nih.gov/cgi-bin/sis/search/r?dbs+hsdb:@term+@rn+@rel+57-14-7
  10. http://toxnet.nlm.nih.gov/cgi-bin/sis/search/r?dbs+hsdb:@term+@rn+@rel+57-14-7
  11. http://toxnet.nlm.nih.gov/cgi-bin/sis/search/r?dbs+hsdb:@term+@rn+@rel+57-14-7
  12. http://toxnet.nlm.nih.gov/cgi-bin/sis/search/r?dbs+hsdb:@term+@rn+@rel+57-14-7
  13. http://toxnet.nlm.nih.gov/cgi-bin/sis/search/r?dbs+hsdb:@term+@rn+@rel+57-14-7
  14. http://toxnet.nlm.nih.gov/cgi-bin/sis/search/r?dbs+hsdb:@term+@rn+@rel+57-14-7
  15. http://toxnet.nlm.nih.gov/cgi-bin/sis/search/r?dbs+hsdb:@term+@rn+@rel+57-14-7
  16. http://toxnet.nlm.nih.gov/cgi-bin/sis/search/r?dbs+hsdb:@term+@rn+@rel+57-14-7
  17. http://toxnet.nlm.nih.gov/cgi-bin/sis/search/r?dbs+hsdb:@term+@rn+@rel+57-14-7
  18. http://toxnet.nlm.nih.gov/cgi-bin/sis/search/r?dbs+hsdb:@term+@rn+@rel+57-14-7
  19. http://toxnet.nlm.nih.gov/cgi-bin/sis/search/r?dbs+hsdb:@term+@rn+@rel+57-14-7
  20. http://pubchem.ncbi.nlm.nih.gov/vw3d/vw3d.cgi?cid=5976
