365489
  -OEChem-07051213002D

 76 80  0     0  0  0  0  0  0999 V2000
   10.8836   -1.1744    0.0000 Cl  0  0  0  0  0  0  0  0  0  0  0  0
    8.7861    1.2008    0.0000 Cl  0  0  0  0  0  0  0  0  0  0  0  0
    5.0995   -0.8681    0.0000 S   0  0  0  0  0  0  0  0  0  0  0  0
   14.4196    0.8604    0.0000 S   0  0  0  0  0  0  0  0  0  0  0  0
    4.5961   -1.7322    0.0000 P   0  0  0  0  0  0  0  0  0  0  0  0
   14.9162    1.7283    0.0000 P   0  0  0  0  0  0  0  0  0  0  0  0
    9.1283   -2.2567    0.0000 O   0  0  0  0  0  0  0  0  0  0  0  0
   10.5182    2.2008    0.0000 O   0  0  0  0  0  0  0  0  0  0  0  0
   10.9056   -2.2145    0.0000 O   0  0  0  0  0  0  0  0  0  0  0  0
    8.7861    2.2008    0.0000 O   0  0  0  0  0  0  0  0  0  0  0  0
   14.0483    2.2250    0.0000 O   0  0  0  0  0  0  0  0  0  0  0  0
    5.4602   -2.2355    0.0000 O   0  0  0  0  0  0  0  0  0  0  0  0
   15.7842    1.2317    0.0000 O   0  0  0  0  0  0  0  0  0  0  0  0
   15.4129    2.5963    0.0000 O   0  0  0  0  0  0  0  0  0  0  0  0
    3.7320   -1.2288    0.0000 O   0  0  0  0  0  0  0  0  0  0  0  0
    4.0928   -2.5963    0.0000 O   0  0  0  0  0  0  0  0  0  0  0  0
   10.5182    0.2008    0.0000 C   0  0  0  0  0  0  0  0  0  0  0  0
    9.1444   -0.1703    0.0000 C   0  0  0  0  0  0  0  0  0  0  0  0
    9.6521    0.7008    0.0000 C   0  0  0  0  0  0  0  0  0  0  0  0
   10.0176   -0.6744    0.0000 C   0  0  0  0  0  0  0  0  0  0  0  0
   11.3842    0.7008    0.0000 C   0  0  0  0  0  0  0  0  0  0  0  0
    8.2269   -0.6813    0.0000 C   0  0  0  0  0  0  0  0  0  0  0  0
   11.3842   -0.2992    0.0000 C   0  0  0  0  0  0  0  0  0  0  0  0
    8.2784    0.3297    0.0000 C   0  0  0  0  0  0  0  0  0  0  0  0
    9.6521    1.7008    0.0000 C   0  0  0  0  0  0  0  0  0  0  0  0
   10.0338   -1.7246    0.0000 C   0  0  0  0  0  0  0  0  0  0  0  0
    8.2188   -1.7316    0.0000 C   0  0  0  0  0  0  0  0  0  0  0  0
   11.3842    1.7008    0.0000 C   0  0  0  0  0  0  0  0  0  0  0  0
   12.2781    0.1662    0.0000 C   0  0  0  0  0  0  0  0  0  0  0  0
    7.2923   -0.1126    0.0000 C   0  0  0  0  0  0  0  0  0  0  0  0
    7.2756   -2.2858    0.0000 C   0  0  0  0  0  0  0  0  0  0  0  0
   12.2781    2.2355    0.0000 C   0  0  0  0  0  0  0  0  0  0  0  0
   13.1842    0.6800    0.0000 C   0  0  0  0  0  0  0  0  0  0  0  0
    6.3366   -0.6449    0.0000 C   0  0  0  0  0  0  0  0  0  0  0  0
   13.1842    1.7216    0.0000 C   0  0  0  0  0  0  0  0  0  0  0  0
    6.3282   -1.7389    0.0000 C   0  0  0  0  0  0  0  0  0  0  0  0
   16.6483    1.7350    0.0000 C   0  0  0  0  0  0  0  0  0  0  0  0
   14.9096    3.4604    0.0000 C   0  0  0  0  0  0  0  0  0  0  0  0
    2.8641   -1.7255    0.0000 C   0  0  0  0  0  0  0  0  0  0  0  0
    4.5894   -3.4642    0.0000 C   0  0  0  0  0  0  0  0  0  0  0  0
    4.0861   -4.3283    0.0000 C   0  0  0  0  0  0  0  0  0  0  0  0
    2.0000   -1.2222    0.0000 C   0  0  0  0  0  0  0  0  0  0  0  0
   15.4062    4.3283    0.0000 C   0  0  0  0  0  0  0  0  0  0  0  0
   17.5162    1.2383    0.0000 C   0  0  0  0  0  0  0  0  0  0  0  0
    8.5884    0.8666    0.0000 H   0  0  0  0  0  0  0  0  0  0  0  0
    7.7414    0.6397    0.0000 H   0  0  0  0  0  0  0  0  0  0  0  0
    7.9684   -0.2072    0.0000 H   0  0  0  0  0  0  0  0  0  0  0  0
   11.0742   -0.8361    0.0000 H   0  0  0  0  0  0  0  0  0  0  0  0
   11.9211   -0.6092    0.0000 H   0  0  0  0  0  0  0  0  0  0  0  0
   11.6942    0.2378    0.0000 H   0  0  0  0  0  0  0  0  0  0  0  0
   12.2710   -0.4538    0.0000 H   0  0  0  0  0  0  0  0  0  0  0  0
    7.3043    0.5073    0.0000 H   0  0  0  0  0  0  0  0  0  0  0  0
   12.2710    2.8554    0.0000 H   0  0  0  0  0  0  0  0  0  0  0  0
    7.2780   -2.9058    0.0000 H   0  0  0  0  0  0  0  0  0  0  0  0
   13.7199    0.3680    0.0000 H   0  0  0  0  0  0  0  0  0  0  0  0
    5.8033   -0.3287    0.0000 H   0  0  0  0  0  0  0  0  0  0  0  0
    5.0629   -3.8646    0.0000 H   0  0  0  0  0  0  0  0  0  0  0  0
    5.0659   -3.0675    0.0000 H   0  0  0  0  0  0  0  0  0  0  0  0
    2.4637   -2.1989    0.0000 H   0  0  0  0  0  0  0  0  0  0  0  0
    3.2608   -2.2020    0.0000 H   0  0  0  0  0  0  0  0  0  0  0  0
   14.4331    3.8571    0.0000 H   0  0  0  0  0  0  0  0  0  0  0  0
   14.4361    3.0600    0.0000 H   0  0  0  0  0  0  0  0  0  0  0  0
   17.0450    2.2115    0.0000 H   0  0  0  0  0  0  0  0  0  0  0  0
   16.2479    2.2084    0.0000 H   0  0  0  0  0  0  0  0  0  0  0  0
   17.2083    0.7002    0.0000 H   0  0  0  0  0  0  0  0  0  0  0  0
   18.0543    0.9304    0.0000 H   0  0  0  0  0  0  0  0  0  0  0  0
   17.8241    1.7765    0.0000 H   0  0  0  0  0  0  0  0  0  0  0  0
   15.9443    4.0204    0.0000 H   0  0  0  0  0  0  0  0  0  0  0  0
   15.7141    4.8664    0.0000 H   0  0  0  0  0  0  0  0  0  0  0  0
   14.8681    4.6362    0.0000 H   0  0  0  0  0  0  0  0  0  0  0  0
    2.3121   -0.6864    0.0000 H   0  0  0  0  0  0  0  0  0  0  0  0
    1.4643   -0.9101    0.0000 H   0  0  0  0  0  0  0  0  0  0  0  0
    3.5504   -4.0162    0.0000 H   0  0  0  0  0  0  0  0  0  0  0  0
    3.7740   -4.8640    0.0000 H   0  0  0  0  0  0  0  0  0  0  0  0
    4.6219   -4.6404    0.0000 H   0  0  0  0  0  0  0  0  0  0  0  0
    1.6879   -1.7579    0.0000 H   0  0  0  0  0  0  0  0  0  0  0  0
  1 20  1  0  0  0  0
  2 19  1  0  0  0  0
  3  5  2  0  0  0  0
  4  6  2  0  0  0  0
  5 12  1  0  0  0  0
  5 15  1  0  0  0  0
  5 16  1  0  0  0  0
  6 11  1  0  0  0  0
  6 13  1  0  0  0  0
  6 14  1  0  0  0  0
  7 26  1  0  0  0  0
  7 27  1  0  0  0  0
  8 25  1  0  0  0  0
  8 28  1  0  0  0  0
  9 26  2  0  0  0  0
 10 25  2  0  0  0  0
 11 35  1  0  0  0  0
 12 36  1  0  0  0  0
 13 37  1  0  0  0  0
 14 38  1  0  0  0  0
 15 39  1  0  0  0  0
 16 40  1  0  0  0  0
 17 19  1  0  0  0  0
 17 20  1  0  0  0  0
 17 21  1  0  0  0  0
 17 23  1  0  0  0  0
 18 19  1  0  0  0  0
 18 20  1  0  0  0  0
 18 22  1  0  0  0  0
 18 24  1  0  0  0  0
 19 25  1  0  0  0  0
 20 26  1  0  0  0  0
 21 28  2  0  0  0  0
 21 29  1  0  0  0  0
 22 27  2  0  0  0  0
 22 30  1  0  0  0  0
 23 48  1  0  0  0  0
 23 49  1  0  0  0  0
 23 50  1  0  0  0  0
 24 45  1  0  0  0  0
 24 46  1  0  0  0  0
 24 47  1  0  0  0  0
 27 31  1  0  0  0  0
 28 32  1  0  0  0  0
 29 33  2  0  0  0  0
 29 51  1  0  0  0  0
 30 34  2  0  0  0  0
 30 52  1  0  0  0  0
 31 36  2  0  0  0  0
 31 54  1  0  0  0  0
 32 35  2  0  0  0  0
 32 53  1  0  0  0  0
 33 35  1  0  0  0  0
 33 55  1  0  0  0  0
 34 36  1  0  0  0  0
 34 56  1  0  0  0  0
 37 44  1  0  0  0  0
 37 63  1  0  0  0  0
 37 64  1  0  0  0  0
 38 43  1  0  0  0  0
 38 61  1  0  0  0  0
 38 62  1  0  0  0  0
 39 42  1  0  0  0  0
 39 59  1  0  0  0  0
 39 60  1  0  0  0  0
 40 41  1  0  0  0  0
 40 57  1  0  0  0  0
 40 58  1  0  0  0  0
 41 73  1  0  0  0  0
 41 74  1  0  0  0  0
 41 75  1  0  0  0  0
 42 71  1  0  0  0  0
 42 72  1  0  0  0  0
 42 76  1  0  0  0  0
 43 68  1  0  0  0  0
 43 69  1  0  0  0  0
 43 70  1  0  0  0  0
 44 65  1  0  0  0  0
 44 66  1  0  0  0  0
 44 67  1  0  0  0  0
M  END
> <PUBCHEM_COMPOUND_CID>
365489

> <PUBCHEM_COMPOUND_CANONICALIZED>
1

> <PUBCHEM_CACTVS_COMPLEXITY>
1130

> <PUBCHEM_CACTVS_HBOND_ACCEPTOR>
12

> <PUBCHEM_CACTVS_HBOND_DONOR>
0

> <PUBCHEM_CACTVS_ROTATABLE_BOND>
12

> <PUBCHEM_CACTVS_SUBSKEYS>
AAADcfB4PANmAAAAAAAAAAAAAABgAAAAAAA0aIEAAAASJACRQAAAGgIAACAADgagmAIyDoAABRCIAiDSCAACCAAgIAAIiAEGC4hMJzKFMRqCOiClwBUIqAeI7vzPoAAACAAIAABAAAAQABAAAAAAAAAAAA==

> <PUBCHEM_IUPAC_INCHI>
InChI=1S/C28H32Cl2O10P2S2/c1-7-33-41(43,34-8-2)39-17-11-13-19-21(15-17)37-23(31)27(29)25(19,5)28(30)24(32)38-22-16-18(12-14-20(22)26(27,28)6)40-42(44,35-9-3)36-10-4/h11-16H,7-10H2,1-6H3

> <PUBCHEM_IUPAC_INCHIKEY>
KPPSNIXPCINDBZ-UHFFFAOYSA-N

> <PUBCHEM_XLOGP3_AA>
8.3

> <PUBCHEM_EXACT_MASS>
724.028918

> <PUBCHEM_MOLECULAR_FORMULA>
C28H32Cl2O10P2S2

> <PUBCHEM_MOLECULAR_WEIGHT>
725.531204

> <PUBCHEM_OPENEYE_CAN_SMILES>
CCOP(=S)(OCC)OC1=CC2=C(C=C1)C3(C(C(=O)O2)(C4(C3(C(=O)OC5=C4C=CC(=C5)OP(=S)(OCC)OCC)Cl)C)Cl)C

> <PUBCHEM_OPENEYE_ISO_SMILES>
CCOP(=S)(OCC)OC1=CC2=C(C=C1)C3(C(C(=O)O2)(C4(C3(C(=O)OC5=C4C=CC(=C5)OP(=S)(OCC)OCC)Cl)C)Cl)C

> <PUBCHEM_CACTVS_TPSA>
172

> <PUBCHEM_MONOISOTOPIC_WEIGHT>
724.028918

> <PUBCHEM_TOTAL_CHARGE>
0

> <PUBCHEM_HEAVY_ATOM_COUNT>
44

> <PUBCHEM_ATOM_DEF_STEREO_COUNT>
0

> <PUBCHEM_ATOM_UDEF_STEREO_COUNT>
0

> <PUBCHEM_BOND_DEF_STEREO_COUNT>
0

> <PUBCHEM_BOND_UDEF_STEREO_COUNT>
0

> <PUBCHEM_ISOTOPIC_ATOM_COUNT>
0

> <PUBCHEM_COMPONENT_COUNT>
1

> <PUBCHEM_CACTVS_TAUTO_COUNT>
1

> <PUBCHEM_COORDINATE_TYPE>
1
5
255

> <PUBCHEM_BONDANNOTATIONS>
21  28  8
21  29  8
22  27  8
22  30  8
27  31  8
28  32  8
29  33  8
30  34  8
31  36  8
32  35  8
33  35  8
34  36  8

$$$$

