51090958
  -OEChem-06241223012D

 45 46  0     1  0  0  0  0  0999 V2000
    9.5416    1.8724    0.0000 S   0  0  0  0  0  0  0  0  0  0  0  0
    3.0000   -1.5937    0.0000 O   0  0  0  0  0  0  0  0  0  0  0  0
    5.8340   -0.7931    0.0000 O   0  0  0  0  0  0  0  0  0  0  0  0
    4.7320   -1.5937    0.0000 O   0  0  0  0  0  0  0  0  0  0  0  0
    3.8660   -0.0937    0.0000 N   0  0  0  0  0  0  0  0  0  0  0  0
    6.3692    0.8542    0.0000 N   0  0  0  0  0  0  0  0  0  0  0  0
    7.9589    2.2088    0.0000 N   0  0  0  0  0  0  0  0  0  0  0  0
    4.6750    0.4941    0.0000 C   0  0  1  0  0  0  0  0  0  0  0  0
    4.3660    1.4451    0.0000 C   0  0  0  0  0  0  0  0  0  0  0  0
    3.3660    1.4451    0.0000 C   0  0  0  0  0  0  0  0  0  0  0  0
    3.0570    0.4941    0.0000 C   0  0  0  0  0  0  0  0  0  0  0  0
    5.6261    0.1851    0.0000 C   0  0  0  0  0  0  0  0  0  0  0  0
    3.8660   -1.0937    0.0000 C   0  0  0  0  0  0  0  0  0  0  0  0
    3.0000   -2.5937    0.0000 C   0  0  0  0  0  0  0  0  0  0  0  0
    7.3203    0.5452    0.0000 C   0  0  0  0  0  0  0  0  0  0  0  0
    3.0000   -3.5937    0.0000 C   0  0  0  0  0  0  0  0  0  0  0  0
    2.0000   -2.5937    0.0000 C   0  0  0  0  0  0  0  0  0  0  0  0
    4.0000   -2.5937    0.0000 C   0  0  0  0  0  0  0  0  0  0  0  0
    8.0634    1.2143    0.0000 C   0  0  0  0  0  0  0  0  0  0  0  0
    9.0416    1.0064    0.0000 C   0  0  0  0  0  0  0  0  0  0  0  0
    8.8725    2.6156    0.0000 C   0  0  0  0  0  0  0  0  0  0  0  0
    9.0804    3.5937    0.0000 C   0  0  0  0  0  0  0  0  0  0  0  0
    4.7720   -0.1183    0.0000 H   0  0  0  0  0  0  0  0  0  0  0  0
    4.9725    1.5740    0.0000 H   0  0  0  0  0  0  0  0  0  0  0  0
    4.3012    2.0617    0.0000 H   0  0  0  0  0  0  0  0  0  0  0  0
    3.4308    2.0617    0.0000 H   0  0  0  0  0  0  0  0  0  0  0  0
    2.7596    1.5740    0.0000 H   0  0  0  0  0  0  0  0  0  0  0  0
    2.4906    0.7463    0.0000 H   0  0  0  0  0  0  0  0  0  0  0  0
    2.7470   -0.0429    0.0000 H   0  0  0  0  0  0  0  0  0  0  0  0
    6.2403    1.4606    0.0000 H   0  0  0  0  0  0  0  0  0  0  0  0
    7.0292   -0.0023    0.0000 H   0  0  0  0  0  0  0  0  0  0  0  0
    7.8089    0.1635    0.0000 H   0  0  0  0  0  0  0  0  0  0  0  0
    2.3800   -3.5937    0.0000 H   0  0  0  0  0  0  0  0  0  0  0  0
    3.0000   -4.2137    0.0000 H   0  0  0  0  0  0  0  0  0  0  0  0
    3.6200   -3.5937    0.0000 H   0  0  0  0  0  0  0  0  0  0  0  0
    2.0000   -1.9737    0.0000 H   0  0  0  0  0  0  0  0  0  0  0  0
    1.3800   -2.5937    0.0000 H   0  0  0  0  0  0  0  0  0  0  0  0
    2.0000   -3.2137    0.0000 H   0  0  0  0  0  0  0  0  0  0  0  0
    4.0000   -3.2137    0.0000 H   0  0  0  0  0  0  0  0  0  0  0  0
    4.6200   -2.5937    0.0000 H   0  0  0  0  0  0  0  0  0  0  0  0
    4.0000   -1.9737    0.0000 H   0  0  0  0  0  0  0  0  0  0  0  0
    9.2938    0.4400    0.0000 H   0  0  0  0  0  0  0  0  0  0  0  0
    9.6868    3.4648    0.0000 H   0  0  0  0  0  0  0  0  0  0  0  0
    9.2093    4.2002    0.0000 H   0  0  0  0  0  0  0  0  0  0  0  0
    8.4739    3.7226    0.0000 H   0  0  0  0  0  0  0  0  0  0  0  0
  1 20  1  0  0  0  0
  1 21  1  0  0  0  0
  2 13  1  0  0  0  0
  2 14  1  0  0  0  0
  3 12  2  0  0  0  0
  4 13  2  0  0  0  0
  5  8  1  0  0  0  0
  5 11  1  0  0  0  0
  5 13  1  0  0  0  0
  6 12  1  0  0  0  0
  6 15  1  0  0  0  0
  6 30  1  0  0  0  0
  7 19  1  0  0  0  0
  7 21  2  0  0  0  0
  8  9  1  0  0  0  0
  8 12  1  1  0  0  0
  8 23  1  0  0  0  0
  9 10  1  0  0  0  0
  9 24  1  0  0  0  0
  9 25  1  0  0  0  0
 10 11  1  0  0  0  0
 10 26  1  0  0  0  0
 10 27  1  0  0  0  0
 11 28  1  0  0  0  0
 11 29  1  0  0  0  0
 14 16  1  0  0  0  0
 14 17  1  0  0  0  0
 14 18  1  0  0  0  0
 15 19  1  0  0  0  0
 15 31  1  0  0  0  0
 15 32  1  0  0  0  0
 16 33  1  0  0  0  0
 16 34  1  0  0  0  0
 16 35  1  0  0  0  0
 17 36  1  0  0  0  0
 17 37  1  0  0  0  0
 17 38  1  0  0  0  0
 18 39  1  0  0  0  0
 18 40  1  0  0  0  0
 18 41  1  0  0  0  0
 19 20  2  0  0  0  0
 20 42  1  0  0  0  0
 21 22  1  0  0  0  0
 22 43  1  0  0  0  0
 22 44  1  0  0  0  0
 22 45  1  0  0  0  0
M  END
> <PUBCHEM_COMPOUND_CID>
51090958

> <PUBCHEM_COMPOUND_CANONICALIZED>
1

> <PUBCHEM_CACTVS_COMPLEXITY>
425

> <PUBCHEM_CACTVS_HBOND_ACCEPTOR>
5

> <PUBCHEM_CACTVS_HBOND_DONOR>
1

> <PUBCHEM_CACTVS_ROTATABLE_BOND>
5

> <PUBCHEM_CACTVS_SUBSKEYS>
AAADceBzMABAAAAAAAAAAAAAAAAAAWLAAAAAAAAAAAAAAAABgAAAHgQQAAAADGzF1gSiiRPIFAisAQVyXACA8KBBCjgAAJWYJAAAQBIggSAcAAgAFgCgAAAYAQAAAAAAAAAAAAAAAAAAAAAAAAAAAAAAAA==

> <PUBCHEM_IUPAC_OPENEYE_NAME>
tert-butyl (2S)-2-[(2-methylthiazol-4-yl)methylcarbamoyl]pyrrolidine-1-carboxylate

> <PUBCHEM_IUPAC_CAS_NAME>
(2S)-2-[[(2-methyl-4-thiazolyl)methylamino]-oxomethyl]-1-pyrrolidinecarboxylic acid tert-butyl ester

> <PUBCHEM_IUPAC_NAME>
tert-butyl (2S)-2-[(2-methyl-1,3-thiazol-4-yl)methylcarbamoyl]pyrrolidine-1-carboxylate

> <PUBCHEM_IUPAC_SYSTEMATIC_NAME>
tert-butyl (2S)-2-[(2-methyl-1,3-thiazol-4-yl)methylcarbamoyl]pyrrolidine-1-carboxylate

> <PUBCHEM_IUPAC_TRADITIONAL_NAME>
(2S)-2-[(2-methylthiazol-4-yl)methylcarbamoyl]pyrrolidine-1-carboxylic acid tert-butyl ester

> <PUBCHEM_IUPAC_INCHI>
InChI=1S/C15H23N3O3S/c1-10-17-11(9-22-10)8-16-13(19)12-6-5-7-18(12)14(20)21-15(2,3)4/h9,12H,5-8H2,1-4H3,(H,16,19)/t12-/m0/s1

> <PUBCHEM_IUPAC_INCHIKEY>
CRYONKGCMQUTGF-LBPRGKRZSA-N

> <PUBCHEM_XLOGP3_AA>
1.9

> <PUBCHEM_EXACT_MASS>
325.146013

> <PUBCHEM_MOLECULAR_FORMULA>
C15H23N3O3S

> <PUBCHEM_MOLECULAR_WEIGHT>
325.42642

> <PUBCHEM_OPENEYE_CAN_SMILES>
CC1=NC(=CS1)CNC(=O)C2CCCN2C(=O)OC(C)(C)C

> <PUBCHEM_OPENEYE_ISO_SMILES>
CC1=NC(=CS1)CNC(=O)[C@@H]2CCCN2C(=O)OC(C)(C)C

> <PUBCHEM_CACTVS_TPSA>
99.8

> <PUBCHEM_MONOISOTOPIC_WEIGHT>
325.146013

> <PUBCHEM_TOTAL_CHARGE>
0

> <PUBCHEM_HEAVY_ATOM_COUNT>
22

> <PUBCHEM_ATOM_DEF_STEREO_COUNT>
1

> <PUBCHEM_ATOM_UDEF_STEREO_COUNT>
0

> <PUBCHEM_BOND_DEF_STEREO_COUNT>
0

> <PUBCHEM_BOND_UDEF_STEREO_COUNT>
0

> <PUBCHEM_ISOTOPIC_ATOM_COUNT>
0

> <PUBCHEM_COMPONENT_COUNT>
1

> <PUBCHEM_CACTVS_TAUTO_COUNT>
2

> <PUBCHEM_COORDINATE_TYPE>
1
5
255

> <PUBCHEM_BONDANNOTATIONS>
1  20  8
1  21  8
19  20  8
7  19  8
7  21  8
8  12  5

$$$$

