   Color/Form
        Yellow needles from dilute alcohol
   from [1]HSDB

   Melting Point
        357 deg C
   from [2]HSDB

   Octanol/Water Partition Coefficient
        log Kow = 1.42 (est)
   from [3]HSDB

   Solubilities

     * Sparingly soluble in boiling water; soluble in alcohol. Practically
       insoluble in chloroform, acetic acid
     * In water, 54.9 mg/L at 25 deg C (est)

   from [4]HSDB

   Spectral Properties
        UV max (ethanol): 375, 255 nm
   from [5]HSDB

   Vapor Pressure
        6.84X10-17 mm Hg at 25 deg C (est)
   from [6]HSDB

   Other Chemical/Physical Properties

     * Crystals, mp 213 deg C /Hexaacetate/
     * Needles from alcohol, mp 149-151 deg C /Hexaethyl ether/
     * Henry's Law constant = 6.86X10-25 atm-cu m/mol at 25 deg C (est)
     * Hydroxyl radical reaction rate constant = 2.39X10-10 cu
       cm/molec-sec at 25 deg C (est)

   from [7]HSDB

   Computed Properties
   Molecular Weight                  318.2351 [g/mol]
   Molecular Formula                 C[15]H[10]O[8]
   XLogP3                            1.2
   H-Bond Donor                      6
   H-Bond Acceptor                   8
   Rotatable Bond Count              1
   Tautomer Count                    516
   Exact Mass                        318.037567
   MonoIsotopic Mass                 318.037567
   Topological Polar Surface Area    148
   Heavy Atom Count                  23
   Formal Charge                     0
   Complexity                        506
   Isotope Atom Count                0
   Defined Atom Stereocenter Count   0
   Undefined Atom Stereocenter Count 0
   Defined Bond Stereocenter Count   0
   Undefined Bond Stereocenter Count 0
   Covalently-Bonded Unit Count      1
   Feature 3D Acceptor Count         2
   Feature 3D Donor Count            6
   Feature 3D Ring Count             3
   Effective Rotor Count             1
   Conformer Sampling RMSD           0.6
   CID Conformer Count               [8]2

References

   1. http://toxnet.nlm.nih.gov/cgi-bin/sis/search/r?dbs+hsdb:@term+@rn+@rel+529-44-2
   2. http://toxnet.nlm.nih.gov/cgi-bin/sis/search/r?dbs+hsdb:@term+@rn+@rel+529-44-2
   3. http://toxnet.nlm.nih.gov/cgi-bin/sis/search/r?dbs+hsdb:@term+@rn+@rel+529-44-2
   4. http://toxnet.nlm.nih.gov/cgi-bin/sis/search/r?dbs+hsdb:@term+@rn+@rel+529-44-2
   5. http://toxnet.nlm.nih.gov/cgi-bin/sis/search/r?dbs+hsdb:@term+@rn+@rel+529-44-2
   6. http://toxnet.nlm.nih.gov/cgi-bin/sis/search/r?dbs+hsdb:@term+@rn+@rel+529-44-2
   7. http://toxnet.nlm.nih.gov/cgi-bin/sis/search/r?dbs+hsdb:@term+@rn+@rel+529-44-2
   8. http://pubchem.ncbi.nlm.nih.gov/vw3d/vw3d.cgi?cid=5281672
