11953984
  -OEChem-07051213022D

115120  0     1  0  0  0  0  0999 V2000
    8.6663   -1.7500    0.0000 O   0  0  0  0  0  0  0  0  0  0  0  0
    8.6663   -0.7500    0.0000 O   0  0  0  0  0  0  0  0  0  0  0  0
    6.0682    0.7500    0.0000 O   0  0  0  0  0  0  0  0  0  0  0  0
    6.0682   -3.2500    0.0000 O   0  0  0  0  0  0  0  0  0  0  0  0
    4.7095    4.6939    0.0000 O   0  0  0  0  0  0  0  0  0  0  0  0
    4.8602    4.1897    0.0000 O   0  0  0  0  0  0  0  0  0  0  0  0
    2.5381    3.7742    0.0000 O   0  0  0  0  0  0  0  0  0  0  0  0
    7.0682    1.7500    0.0000 O   0  0  0  0  0  0  0  0  0  0  0  0
   11.2644    3.7500    0.0000 O   0  0  0  0  0  0  0  0  0  0  0  0
   12.1304    2.2500    0.0000 O   0  0  0  0  0  0  0  0  0  0  0  0
   14.7285    3.7500    0.0000 O   0  0  0  0  0  0  0  0  0  0  0  0
   14.7285    1.7500    0.0000 O   0  0  0  0  0  0  0  0  0  0  0  0
    7.8003   -1.2500    0.0000 C   0  0  2  0  0  0  0  0  0  0  0  0
    8.6663   -2.7500    0.0000 C   0  0  1  0  0  0  0  0  0  0  0  0
    7.8003   -3.2500    0.0000 C   0  0  2  0  0  0  0  0  0  0  0  0
    6.9343   -1.7500    0.0000 C   0  0  0  0  0  0  0  0  0  0  0  0
    6.9343   -0.7500    0.0000 C   0  0  0  0  0  0  0  0  0  0  0  0
    6.9343   -2.7500    0.0000 C   0  0  2  0  0  0  0  0  0  0  0  0
    6.9343    0.2500    0.0000 C   0  0  2  0  0  0  0  0  0  0  0  0
    8.6663    0.2500    0.0000 C   0  0  1  0  0  0  0  0  0  0  0  0
    9.5323   -3.2500    0.0000 C   0  0  3  0  0  0  0  0  0  0  0  0
    7.8003    0.7500    0.0000 C   0  0  0  0  0  0  0  0  0  0  0  0
    5.2022    3.2500    0.0000 C   0  0  2  0  0  0  0  0  0  0  0  0
    5.2022    2.2500    0.0000 C   0  0  2  0  0  0  0  0  0  0  0  0
    7.8003   -4.2500    0.0000 C   0  0  0  0  0  0  0  0  0  0  0  0
    4.3083    3.7847    0.0000 C   0  0  1  0  0  0  0  0  0  0  0  0
    9.5323    0.7500    0.0000 C   0  0  0  0  0  0  0  0  0  0  0  0
    9.5323   -4.2500    0.0000 C   0  0  0  0  0  0  0  0  0  0  0  0
    3.4022    3.2708    0.0000 C   0  0  1  0  0  0  0  0  0  0  0  0
   10.3984   -2.7500    0.0000 C   0  0  0  0  0  0  0  0  0  0  0  0
    6.0682    3.7500    0.0000 C   0  0  0  0  0  0  0  0  0  0  0  0
    6.0682    1.7500    0.0000 C   0  0  0  0  0  0  0  0  0  0  0  0
    4.3083    1.7153    0.0000 C   0  0  0  0  0  0  0  0  0  0  0  0
    3.4022    2.2292    0.0000 C   0  0  0  0  0  0  0  0  0  0  0  0
    5.7031    4.6743    0.0000 C   0  0  0  0  0  0  0  0  0  0  0  0
    9.5323    1.7500    0.0000 C   0  0  0  0  0  0  0  0  0  0  0  0
   10.3984   -4.7500    0.0000 C   0  0  0  0  0  0  0  0  0  0  0  0
    6.9343    3.2500    0.0000 C   0  0  0  0  0  0  0  0  0  0  0  0
   10.3984    2.2500    0.0000 C   0  0  0  0  0  0  0  0  0  0  0  0
    2.5381    1.7258    0.0000 C   0  0  0  0  0  0  0  0  0  0  0  0
   10.3984    3.2500    0.0000 C   0  0  2  0  0  0  0  0  0  0  0  0
    9.5323    3.7500    0.0000 C   0  0  2  0  0  0  0  0  0  0  0  0
    7.8003    3.7500    0.0000 C   0  0  0  0  0  0  0  0  0  0  0  0
    8.6663    3.2500    0.0000 C   0  0  0  0  0  0  0  0  0  0  0  0
   11.2644    1.7500    0.0000 C   0  0  0  0  0  0  0  0  0  0  0  0
   12.1304    3.2500    0.0000 C   0  0  2  0  0  0  0  0  0  0  0  0
   12.9965    3.7500    0.0000 C   0  0  0  0  0  0  0  0  0  0  0  0
    9.5323    4.7500    0.0000 C   0  0  0  0  0  0  0  0  0  0  0  0
   13.8625    3.2500    0.0000 C   0  0  1  0  0  0  0  0  0  0  0  0
   13.8625    2.2500    0.0000 C   0  0  2  0  0  0  0  0  0  0  0  0
   12.9965    1.7500    0.0000 C   0  0  2  0  0  0  0  0  0  0  0  0
   12.9965    0.7500    0.0000 C   0  0  0  0  0  0  0  0  0  0  0  0
   14.7285    4.7500    0.0000 C   0  0  0  0  0  0  0  0  0  0  0  0
    9.2033   -2.4400    0.0000 H   0  0  0  0  0  0  0  0  0  0  0  0
    8.3372   -3.5600    0.0000 H   0  0  0  0  0  0  0  0  0  0  0  0
    6.7222   -1.1674    0.0000 H   0  0  0  0  0  0  0  0  0  0  0  0
    6.3237   -1.8577    0.0000 H   0  0  0  0  0  0  0  0  0  0  0  0
    6.3237   -0.6423    0.0000 H   0  0  0  0  0  0  0  0  0  0  0  0
    6.7222   -1.3326    0.0000 H   0  0  0  0  0  0  0  0  0  0  0  0
    6.9343   -3.3700    0.0000 H   0  0  0  0  0  0  0  0  0  0  0  0
    6.1982   -0.1750    0.0000 H   0  0  0  0  0  0  0  0  0  0  0  0
    9.4024   -0.1750    0.0000 H   0  0  0  0  0  0  0  0  0  0  0  0
   10.2685   -3.6750    0.0000 H   0  0  0  0  0  0  0  0  0  0  0  0
    8.1988    1.2250    0.0000 H   0  0  0  0  0  0  0  0  0  0  0  0
    7.4018    1.2250    0.0000 H   0  0  0  0  0  0  0  0  0  0  0  0
    5.2022    1.4000    0.0000 H   0  0  0  0  0  0  0  0  0  0  0  0
    7.1803   -4.2500    0.0000 H   0  0  0  0  0  0  0  0  0  0  0  0
    7.8003   -4.8700    0.0000 H   0  0  0  0  0  0  0  0  0  0  0  0
    8.4203   -4.2500    0.0000 H   0  0  0  0  0  0  0  0  0  0  0  0
    3.6779    4.3548    0.0000 H   0  0  0  0  0  0  0  0  0  0  0  0
    9.7444    0.1674    0.0000 H   0  0  0  0  0  0  0  0  0  0  0  0
   10.1429    0.8577    0.0000 H   0  0  0  0  0  0  0  0  0  0  0  0
    8.9218   -4.1423    0.0000 H   0  0  0  0  0  0  0  0  0  0  0  0
    9.3203   -4.8326    0.0000 H   0  0  0  0  0  0  0  0  0  0  0  0
    2.8647    2.9618    0.0000 H   0  0  0  0  0  0  0  0  0  0  0  0
   10.7084   -3.2869    0.0000 H   0  0  0  0  0  0  0  0  0  0  0  0
   10.9353   -2.4400    0.0000 H   0  0  0  0  0  0  0  0  0  0  0  0
   10.0884   -2.2131    0.0000 H   0  0  0  0  0  0  0  0  0  0  0  0
    6.0682   -3.8700    0.0000 H   0  0  0  0  0  0  0  0  0  0  0  0
    4.3154    1.0954    0.0000 H   0  0  0  0  0  0  0  0  0  0  0  0
    6.3047    4.8242    0.0000 H   0  0  0  0  0  0  0  0  0  0  0  0
    5.6337    5.2904    0.0000 H   0  0  0  0  0  0  0  0  0  0  0  0
    8.9954    2.0600    0.0000 H   0  0  0  0  0  0  0  0  0  0  0  0
   10.0884   -5.2869    0.0000 H   0  0  0  0  0  0  0  0  0  0  0  0
   10.9353   -5.0600    0.0000 H   0  0  0  0  0  0  0  0  0  0  0  0
   10.7084   -4.2131    0.0000 H   0  0  0  0  0  0  0  0  0  0  0  0
    4.2776    4.4018    0.0000 H   0  0  0  0  0  0  0  0  0  0  0  0
    7.2444    2.7131    0.0000 H   0  0  0  0  0  0  0  0  0  0  0  0
    2.2261    2.2616    0.0000 H   0  0  0  0  0  0  0  0  0  0  0  0
    2.0024    1.4138    0.0000 H   0  0  0  0  0  0  0  0  0  0  0  0
    2.8502    1.1901    0.0000 H   0  0  0  0  0  0  0  0  0  0  0  0
   10.3984    3.8700    0.0000 H   0  0  0  0  0  0  0  0  0  0  0  0
    2.0000    3.4662    0.0000 H   0  0  0  0  0  0  0  0  0  0  0  0
   10.0693    4.0600    0.0000 H   0  0  0  0  0  0  0  0  0  0  0  0
    7.8003    4.3700    0.0000 H   0  0  0  0  0  0  0  0  0  0  0  0
    8.6663    2.6300    0.0000 H   0  0  0  0  0  0  0  0  0  0  0  0
   10.9544    1.2131    0.0000 H   0  0  0  0  0  0  0  0  0  0  0  0
   11.8013    1.4400    0.0000 H   0  0  0  0  0  0  0  0  0  0  0  0
   11.5744    2.2869    0.0000 H   0  0  0  0  0  0  0  0  0  0  0  0
   11.5935    2.9400    0.0000 H   0  0  0  0  0  0  0  0  0  0  0  0
   13.3950    4.2250    0.0000 H   0  0  0  0  0  0  0  0  0  0  0  0
   12.5979    4.2250    0.0000 H   0  0  0  0  0  0  0  0  0  0  0  0
   10.1524    4.7500    0.0000 H   0  0  0  0  0  0  0  0  0  0  0  0
    9.5323    5.3700    0.0000 H   0  0  0  0  0  0  0  0  0  0  0  0
    8.9124    4.7500    0.0000 H   0  0  0  0  0  0  0  0  0  0  0  0
   13.8625    3.8700    0.0000 H   0  0  0  0  0  0  0  0  0  0  0  0
   13.8625    1.6300    0.0000 H   0  0  0  0  0  0  0  0  0  0  0  0
   12.4595    1.4400    0.0000 H   0  0  0  0  0  0  0  0  0  0  0  0
   12.3765    0.7500    0.0000 H   0  0  0  0  0  0  0  0  0  0  0  0
   12.9965    0.1300    0.0000 H   0  0  0  0  0  0  0  0  0  0  0  0
   13.6165    0.7500    0.0000 H   0  0  0  0  0  0  0  0  0  0  0  0
   15.2654    2.0600    0.0000 H   0  0  0  0  0  0  0  0  0  0  0  0
   15.3485    4.7500    0.0000 H   0  0  0  0  0  0  0  0  0  0  0  0
   14.7285    5.3700    0.0000 H   0  0  0  0  0  0  0  0  0  0  0  0
   14.1085    4.7500    0.0000 H   0  0  0  0  0  0  0  0  0  0  0  0
 13  1  1  6  0  0  0
  1 14  1  0  0  0  0
  2 13  1  0  0  0  0
  2 20  1  0  0  0  0
  3 19  1  0  0  0  0
  3 32  1  0  0  0  0
 18  4  1  1  0  0  0
  4 79  1  0  0  0  0
  5 26  1  0  0  0  0
  5 35  1  0  0  0  0
 23  6  1  6  0  0  0
  6 87  1  0  0  0  0
 29  7  1  1  0  0  0
  7 93  1  0  0  0  0
  8 32  2  0  0  0  0
 41  9  1  6  0  0  0
 46  9  1  1  0  0  0
 10 46  1  0  0  0  0
 10 51  1  0  0  0  0
 49 11  1  6  0  0  0
 11 53  1  0  0  0  0
 50 12  1  1  0  0  0
 12112  1  0  0  0  0
 13 16  1  0  0  0  0
 13 17  1  0  0  0  0
 14 15  1  0  0  0  0
 14 21  1  6  0  0  0
 14 54  1  0  0  0  0
 15 18  1  0  0  0  0
 15 25  1  1  0  0  0
 15 55  1  0  0  0  0
 16 18  1  0  0  0  0
 16 56  1  0  0  0  0
 16 57  1  0  0  0  0
 17 19  1  0  0  0  0
 17 58  1  0  0  0  0
 17 59  1  0  0  0  0
 18 60  1  0  0  0  0
 19 22  1  0  0  0  0
 19 61  1  6  0  0  0
 20 22  1  0  0  0  0
 20 27  1  0  0  0  0
 20 62  1  6  0  0  0
 21 28  1  0  0  0  0
 21 30  1  0  0  0  0
 21 63  1  0  0  0  0
 22 64  1  0  0  0  0
 22 65  1  0  0  0  0
 23 24  1  0  0  0  0
 23 26  1  0  0  0  0
 23 31  1  0  0  0  0
 24 32  1  0  0  0  0
 24 33  1  0  0  0  0
 24 66  1  1  0  0  0
 25 67  1  0  0  0  0
 25 68  1  0  0  0  0
 25 69  1  0  0  0  0
 26 29  1  0  0  0  0
 26 70  1  6  0  0  0
 27 36  1  0  0  0  0
 27 71  1  0  0  0  0
 27 72  1  0  0  0  0
 28 37  1  0  0  0  0
 28 73  1  0  0  0  0
 28 74  1  0  0  0  0
 29 34  1  0  0  0  0
 29 75  1  0  0  0  0
 30 76  1  0  0  0  0
 30 77  1  0  0  0  0
 30 78  1  0  0  0  0
 31 35  1  0  0  0  0
 31 38  2  0  0  0  0
 33 34  2  0  0  0  0
 33 80  1  0  0  0  0
 34 40  1  0  0  0  0
 35 81  1  0  0  0  0
 35 82  1  0  0  0  0
 36 39  2  0  0  0  0
 36 83  1  0  0  0  0
 37 84  1  0  0  0  0
 37 85  1  0  0  0  0
 37 86  1  0  0  0  0
 38 43  1  0  0  0  0
 38 88  1  0  0  0  0
 39 41  1  0  0  0  0
 39 45  1  0  0  0  0
 40 89  1  0  0  0  0
 40 90  1  0  0  0  0
 40 91  1  0  0  0  0
 41 42  1  0  0  0  0
 41 92  1  0  0  0  0
 42 44  1  0  0  0  0
 42 48  1  6  0  0  0
 42 94  1  0  0  0  0
 43 44  2  0  0  0  0
 43 95  1  0  0  0  0
 44 96  1  0  0  0  0
 45 97  1  0  0  0  0
 45 98  1  0  0  0  0
 45 99  1  0  0  0  0
 46 47  1  0  0  0  0
 46100  1  0  0  0  0
 47 49  1  0  0  0  0
 47101  1  0  0  0  0
 47102  1  0  0  0  0
 48103  1  0  0  0  0
 48104  1  0  0  0  0
 48105  1  0  0  0  0
 49 50  1  0  0  0  0
 49106  1  0  0  0  0
 50 51  1  0  0  0  0
 50107  1  0  0  0  0
 51 52  1  6  0  0  0
 51108  1  0  0  0  0
 52109  1  0  0  0  0
 52110  1  0  0  0  0
 52111  1  0  0  0  0
 53113  1  0  0  0  0
 53114  1  0  0  0  0
 53115  1  0  0  0  0
M  END
> <PUBCHEM_COMPOUND_CID>
11953984

> <PUBCHEM_COMPOUND_CANONICALIZED>
1

> <PUBCHEM_CACTVS_COMPLEXITY>
1440

> <PUBCHEM_CACTVS_HBOND_ACCEPTOR>
12

> <PUBCHEM_CACTVS_HBOND_DONOR>
4

> <PUBCHEM_CACTVS_ROTATABLE_BOND>
5

> <PUBCHEM_CACTVS_SUBSKEYS>
AAADcfB8PAAAAAAAAAAAAAAAAAAAASAAAAAkSJEAAAAAAEAAAAAAGgAACAAADVSwgAMCCAAABgCIAiDSCAAAAAAgAAAICAEAAAgZFBYAIQAiUAAF4AAPsAPK7OzOgAAAAAAAAAAAAAAAAAAAAAAAAAAAAA==

> <PUBCHEM_IUPAC_INCHI>
InChI=1S/C41H62O12/c1-9-21(2)37-25(6)31(42)19-40(53-37)18-29-16-28(52-40)14-13-23(4)36(51-33-17-32(47-8)35(44)26(7)49-33)22(3)11-10-12-27-20-48-38-34(43)24(5)15-30(39(45)50-29)41(27,38)46/h10-13,15,21-22,25-26,28-38,42-44,46H,9,14,16-20H2,1-8H3/b11-10+,23-13+,27-12+/t21?,22-,25-,26-,28+,29-,30-,31-,32-,33-,34+,35-,36-,37+,38+,40-,41+/m0/s1

> <PUBCHEM_IUPAC_INCHIKEY>
AIAMVBSMPZPBPX-QPBPBONSSA-N

> <PUBCHEM_XLOGP3_AA>
2.7

> <PUBCHEM_EXACT_MASS>
746.424127

> <PUBCHEM_MOLECULAR_FORMULA>
C41H62O12

> <PUBCHEM_MOLECULAR_WEIGHT>
746.92378

> <PUBCHEM_OPENEYE_CAN_SMILES>
CCC(C)C1C(C(CC2(O1)CC3CC(O2)CC=C(C(C(C=CC=C4COC5C4(C(C=C(C5O)C)C(=O)O3)O)C)OC6CC(C(C(O6)C)O)OC)C)O)C

> <PUBCHEM_OPENEYE_ISO_SMILES>
CCC(C)[C@@H]1[C@H]([C@H](C[C@@]2(O1)C[C@@H]3C[C@H](O2)C/C=C(/[C@H]([C@H](/C=C/C=C/4\CO[C@H]5[C@@]4([C@@H](C=C([C@H]5O)C)C(=O)O3)O)C)O[C@H]6C[C@@H]([C@H]([C@@H](O6)C)O)OC)\C)O)C

> <PUBCHEM_CACTVS_TPSA>
163

> <PUBCHEM_MONOISOTOPIC_WEIGHT>
746.424127

> <PUBCHEM_TOTAL_CHARGE>
0

> <PUBCHEM_HEAVY_ATOM_COUNT>
53

> <PUBCHEM_ATOM_DEF_STEREO_COUNT>
16

> <PUBCHEM_ATOM_UDEF_STEREO_COUNT>
1

> <PUBCHEM_BOND_DEF_STEREO_COUNT>
3

> <PUBCHEM_BOND_UDEF_STEREO_COUNT>
0

> <PUBCHEM_ISOTOPIC_ATOM_COUNT>
0

> <PUBCHEM_COMPONENT_COUNT>
1

> <PUBCHEM_CACTVS_TAUTO_COUNT>
1

> <PUBCHEM_COORDINATE_TYPE>
1
5
255

> <PUBCHEM_BONDANNOTATIONS>
13  1  6
49  11  6
50  12  5
14  21  6
15  25  5
19  61  6
20  62  6
21  63  3
24  66  5
26  70  6
18  4  5
42  48  6
51  52  6
23  6  6
29  7  5
41  9  6
46  9  5

$$$$

