   Color/Form

     * White crystalline solid
     * Light tan granule

   from [1]HSDB

   Odor
        Mild aromatic odor
   from [2]HSDB

   Melting Point
        176-179 deg C
   from [3]HSDB

   Octanol/Water Partition Coefficient
        log Kow = 3.94 at 25 deg C
   from [4]HSDB

   Solubilities

     * Slight solubility in organic solvents (methanol, ethyl acetate,
       dichloromethane, acetonitrile)
     * At 25 deg C, methanol and ethyl acetate 50-100 mg/mL; acetonitrile
       30-35 mg/mL; toluene 4-5mg/mL; hexane 0.07-0.08 mg/mL; and water
       0.001-0.002 mg/mL
     * In water, 1.42 mg/L at pH 7 and 20 deg C

   from [5]HSDB

   Vapor Pressure
        4.13X10-9 mm Hg at 25 deg C
   from [6]HSDB

   Other Chemical/Physical Properties

     * Henry's Law constant = 1.27X10-9 atm-cu m/mol at 25 deg C (calc)
     * Hydroxy radical reaction rate constant = 2.0X10-10 cu cm/molec-sec
       at 25 deg C (est)

   from [7]HSDB

   Computed Properties
   Molecular Weight                  332.39416 [g/mol]
   Molecular Formula                 C[18]H[24]N[2]O[4]
   XLogP3-AA                         3.9
   H-Bond Donor                      1
   H-Bond Acceptor                   5
   Rotatable Bond Count              7
   Tautomer Count                    4
   Exact Mass                        332.173607
   MonoIsotopic Mass                 332.173607
   Topological Polar Surface Area    73.6
   Heavy Atom Count                  24
   Formal Charge                     0
   Complexity                        402
   Isotope Atom Count                0
   Defined Atom Stereocenter Count   0
   Undefined Atom Stereocenter Count 0
   Defined Bond Stereocenter Count   0
   Undefined Bond Stereocenter Count 0
   Covalently-Bonded Unit Count      1
   Feature 3D Acceptor Count         4
   Feature 3D Donor Count            1
   Feature 3D Hydrophobe Count       3
   Feature 3D Ring Count             2
   Effective Rotor Count             8
   Conformer Sampling RMSD           0.8
   CID Conformer Count               [8]70

References

   1. http://toxnet.nlm.nih.gov/cgi-bin/sis/search/r?dbs+hsdb:@term+@rn+@rel+82558-50-7
   2. http://toxnet.nlm.nih.gov/cgi-bin/sis/search/r?dbs+hsdb:@term+@rn+@rel+82558-50-7
   3. http://toxnet.nlm.nih.gov/cgi-bin/sis/search/r?dbs+hsdb:@term+@rn+@rel+82558-50-7
   4. http://toxnet.nlm.nih.gov/cgi-bin/sis/search/r?dbs+hsdb:@term+@rn+@rel+82558-50-7
   5. http://toxnet.nlm.nih.gov/cgi-bin/sis/search/r?dbs+hsdb:@term+@rn+@rel+82558-50-7
   6. http://toxnet.nlm.nih.gov/cgi-bin/sis/search/r?dbs+hsdb:@term+@rn+@rel+82558-50-7
   7. http://toxnet.nlm.nih.gov/cgi-bin/sis/search/r?dbs+hsdb:@term+@rn+@rel+82558-50-7
   8. http://pubchem.ncbi.nlm.nih.gov/vw3d/vw3d.cgi?cid=73672
