23725056
  -OEChem-07051213092D

 97105  0     1  0  0  0  0  0999 V2000
    5.9559   -0.8499    0.0000 S   0  0  0  0  0  0  0  0  0  0  0  0
    8.8868    3.0080    0.0000 O   0  0  0  0  0  0  0  0  0  0  0  0
   10.2682   -0.7841    0.0000 O   0  0  0  0  0  0  0  0  0  0  0  0
   10.1426   -0.0161    0.0000 O   0  0  0  0  0  0  0  0  0  0  0  0
    6.1634   -1.4150    0.0000 O   0  0  0  0  0  0  0  0  0  0  0  0
    3.8712    1.9278    0.0000 O   0  0  0  0  0  0  0  0  0  0  0  0
    9.9280   -1.7492    0.0000 O   0  0  0  0  0  0  0  0  0  0  0  0
    2.6118    3.5432    0.0000 O   0  0  0  0  0  0  0  0  0  0  0  0
   10.5761   -2.5096    0.0000 O   0  0  0  0  0  0  0  0  0  0  0  0
   11.6724   -2.7676    0.0000 O   0  0  0  0  0  0  0  0  0  0  0  0
    4.8016   -0.3447    0.0000 O   0  0  0  0  0  0  0  0  0  0  0  0
   11.7036   -4.8156    0.0000 O   0  0  0  0  0  0  0  0  0  0  0  0
    7.5042    2.0841    0.0000 N   0  0  3  0  0  0  0  0  0  0  0  0
    5.7049    1.0836    0.0000 N   0  0  3  0  0  0  0  0  0  0  0  0
    7.2847   -3.3587    0.0000 N   0  0  0  0  0  0  0  0  0  0  0  0
    6.5803    1.7014    0.0000 C   0  0  2  0  0  0  0  0  0  0  0  0
    5.6564    2.0841    0.0000 C   0  0  2  0  0  0  0  0  0  0  0  0
    7.5042    3.9318    0.0000 C   0  0  1  0  0  0  0  0  0  0  0  0
    7.8868    3.0080    0.0000 C   0  0  2  0  0  0  0  0  0  0  0  0
    6.4284    0.6709    0.0000 C   0  0  1  0  0  0  0  0  0  0  0  0
    8.3402    1.4628    0.0000 C   0  0  2  0  0  0  0  0  0  0  0  0
    6.5803    4.3145    0.0000 C   0  0  0  0  0  0  0  0  0  0  0  0
    5.2737    3.0080    0.0000 C   0  0  0  0  0  0  0  0  0  0  0  0
    7.2499    0.0304    0.0000 C   0  0  0  0  0  0  0  0  0  0  0  0
    8.2122    0.4290    0.0000 C   0  0  0  0  0  0  0  0  0  0  0  0
    5.6564    3.9318    0.0000 C   0  0  0  0  0  0  0  0  0  0  0  0
    9.7496    0.7215    0.0000 C   0  0  0  0  0  0  0  0  0  0  0  0
    4.8554    0.5559    0.0000 C   0  0  0  0  0  0  0  0  0  0  0  0
    4.2432    2.8561    0.0000 C   0  0  0  0  0  0  0  0  0  0  0  0
    9.0831   -0.2181    0.0000 C   0  0  0  0  0  0  0  0  0  0  0  0
    7.0917   -1.0430    0.0000 C   0  0  0  0  0  0  0  0  0  0  0  0
    5.0351    4.7679    0.0000 C   0  0  0  0  0  0  0  0  0  0  0  0
    6.6539   -2.2812    0.0000 C   0  0  0  0  0  0  0  0  0  0  0  0
    8.1430   -2.8455    0.0000 C   0  0  1  0  0  0  0  0  0  0  0  0
    8.9498   -1.2949    0.0000 C   0  0  0  0  0  0  0  0  0  0  0  0
    7.9474   -1.7101    0.0000 C   0  0  0  0  0  0  0  0  0  0  0  0
    3.6028    3.6776    0.0000 C   0  0  0  0  0  0  0  0  0  0  0  0
    4.0014    4.6399    0.0000 C   0  0  0  0  0  0  0  0  0  0  0  0
    9.6143   -2.2361    0.0000 C   0  0  0  0  0  0  0  0  0  0  0  0
    9.0166   -3.3323    0.0000 C   0  0  0  0  0  0  0  0  0  0  0  0
   10.6637   -0.9605    0.0000 C   0  0  0  0  0  0  0  0  0  0  0  0
    7.2438   -2.6198    0.0000 C   0  0  0  0  0  0  0  0  0  0  0  0
    7.3000   -4.3586    0.0000 C   0  0  0  0  0  0  0  0  0  0  0  0
    9.0318   -4.3322    0.0000 C   0  0  0  0  0  0  0  0  0  0  0  0
    3.3957    5.4356    0.0000 C   0  0  0  0  0  0  0  0  0  0  0  0
    8.1735   -4.8453    0.0000 C   0  0  0  0  0  0  0  0  0  0  0  0
    9.9022   -2.7840    0.0000 C   0  0  0  0  0  0  0  0  0  0  0  0
    5.1736   -1.2730    0.0000 C   0  0  0  0  0  0  0  0  0  0  0  0
    9.9338   -4.8531    0.0000 C   0  0  0  0  0  0  0  0  0  0  0  0
   10.8160   -3.2840    0.0000 C   0  0  0  0  0  0  0  0  0  0  0  0
    2.0000    4.3342    0.0000 C   0  0  0  0  0  0  0  0  0  0  0  0
   10.8319   -4.3255    0.0000 C   0  0  0  0  0  0  0  0  0  0  0  0
    4.5557   -2.0592    0.0000 C   0  0  0  0  0  0  0  0  0  0  0  0
   12.5478   -3.2509    0.0000 C   0  0  0  0  0  0  0  0  0  0  0  0
    6.9056    0.9161    0.0000 H   0  0  0  0  0  0  0  0  0  0  0  0
    6.1131    1.3672    0.0000 H   0  0  0  0  0  0  0  0  0  0  0  0
    8.1052    4.5329    0.0000 H   0  0  0  0  0  0  0  0  0  0  0  0
    8.2313    3.5235    0.0000 H   0  0  0  0  0  0  0  0  0  0  0  0
    5.6394    0.3547    0.0000 H   0  0  0  0  0  0  0  0  0  0  0  0
    8.4447    2.3063    0.0000 H   0  0  0  0  0  0  0  0  0  0  0  0
    6.9577    4.8064    0.0000 H   0  0  0  0  0  0  0  0  0  0  0  0
    6.2028    4.8064    0.0000 H   0  0  0  0  0  0  0  0  0  0  0  0
   10.3685    0.7585    0.0000 H   0  0  0  0  0  0  0  0  0  0  0  0
    9.8802    1.3276    0.0000 H   0  0  0  0  0  0  0  0  0  0  0  0
    4.5283    1.0826    0.0000 H   0  0  0  0  0  0  0  0  0  0  0  0
    4.3288    0.2288    0.0000 H   0  0  0  0  0  0  0  0  0  0  0  0
    5.1826    0.0293    0.0000 H   0  0  0  0  0  0  0  0  0  0  0  0
    9.1968    3.5449    0.0000 H   0  0  0  0  0  0  0  0  0  0  0  0
    5.2790    5.3379    0.0000 H   0  0  0  0  0  0  0  0  0  0  0  0
    6.0441   -2.3933    0.0000 H   0  0  0  0  0  0  0  0  0  0  0  0
    6.5980   -2.8987    0.0000 H   0  0  0  0  0  0  0  0  0  0  0  0
    6.7431   -3.0569    0.0000 H   0  0  0  0  0  0  0  0  0  0  0  0
    3.2575    1.8398    0.0000 H   0  0  0  0  0  0  0  0  0  0  0  0
   11.0701   -1.4287    0.0000 H   0  0  0  0  0  0  0  0  0  0  0  0
   11.1720   -0.6055    0.0000 H   0  0  0  0  0  0  0  0  0  0  0  0
    6.7534   -2.2405    0.0000 H   0  0  0  0  0  0  0  0  0  0  0  0
    6.8646   -3.1103    0.0000 H   0  0  0  0  0  0  0  0  0  0  0  0
    7.7343   -2.9991    0.0000 H   0  0  0  0  0  0  0  0  0  0  0  0
    6.6878   -4.2602    0.0000 H   0  0  0  0  0  0  0  0  0  0  0  0
    7.0968   -4.9443    0.0000 H   0  0  0  0  0  0  0  0  0  0  0  0
    3.8890    5.8111    0.0000 H   0  0  0  0  0  0  0  0  0  0  0  0
    3.0201    5.9289    0.0000 H   0  0  0  0  0  0  0  0  0  0  0  0
    2.9023    5.0601    0.0000 H   0  0  0  0  0  0  0  0  0  0  0  0
    7.7823   -5.3263    0.0000 H   0  0  0  0  0  0  0  0  0  0  0  0
    8.5792   -5.3141    0.0000 H   0  0  0  0  0  0  0  0  0  0  0  0
    9.8856   -2.1643    0.0000 H   0  0  0  0  0  0  0  0  0  0  0  0
    9.9361   -5.4731    0.0000 H   0  0  0  0  0  0  0  0  0  0  0  0
    2.4904    4.7135    0.0000 H   0  0  0  0  0  0  0  0  0  0  0  0
    1.6207    4.8246    0.0000 H   0  0  0  0  0  0  0  0  0  0  0  0
    1.5096    3.9549    0.0000 H   0  0  0  0  0  0  0  0  0  0  0  0
    4.0682   -1.6761    0.0000 H   0  0  0  0  0  0  0  0  0  0  0  0
    4.1726   -2.5467    0.0000 H   0  0  0  0  0  0  0  0  0  0  0  0
    5.0432   -2.4423    0.0000 H   0  0  0  0  0  0  0  0  0  0  0  0
   11.7107   -5.4356    0.0000 H   0  0  0  0  0  0  0  0  0  0  0  0
   12.2481   -3.7937    0.0000 H   0  0  0  0  0  0  0  0  0  0  0  0
   13.0905   -3.5506    0.0000 H   0  0  0  0  0  0  0  0  0  0  0  0
   12.8475   -2.7082    0.0000 H   0  0  0  0  0  0  0  0  0  0  0  0
  1 20  1  0  0  0  0
  1 33  1  0  0  0  0
 19  2  1  6  0  0  0
  2 68  1  0  0  0  0
  3 27  1  0  0  0  0
  3 39  1  0  0  0  0
  4 30  1  0  0  0  0
  4 41  1  0  0  0  0
  5 31  1  0  0  0  0
  5 48  1  0  0  0  0
  6 29  1  0  0  0  0
  6 73  1  0  0  0  0
  7 35  1  0  0  0  0
  7 41  1  0  0  0  0
  8 37  1  0  0  0  0
  8 51  1  0  0  0  0
  9 39  2  0  0  0  0
 10 50  1  0  0  0  0
 10 54  1  0  0  0  0
 11 48  2  0  0  0  0
 12 52  1  0  0  0  0
 12 94  1  0  0  0  0
 13 16  1  0  0  0  0
 13 19  1  0  0  0  0
 13 21  1  0  0  0  0
 14 17  1  0  0  0  0
 14 18  1  0  0  0  0
 14 28  1  0  0  0  0
 34 15  1  1  0  0  0
 15 43  1  0  0  0  0
 15 72  1  0  0  0  0
 16 17  1  0  0  0  0
 16 20  1  0  0  0  0
 16 55  1  6  0  0  0
 17 23  1  0  0  0  0
 17 56  1  6  0  0  0
 18 19  1  0  0  0  0
 18 22  1  0  0  0  0
 18 57  1  1  0  0  0
 19 58  1  0  0  0  0
 20 24  1  0  0  0  0
 20 59  1  6  0  0  0
 21 25  1  0  0  0  0
 21 27  1  0  0  0  0
 21 60  1  6  0  0  0
 22 26  1  0  0  0  0
 22 61  1  0  0  0  0
 22 62  1  0  0  0  0
 23 26  2  0  0  0  0
 23 29  1  0  0  0  0
 24 25  1  0  0  0  0
 24 31  2  0  0  0  0
 25 30  2  0  0  0  0
 26 32  1  0  0  0  0
 27 63  1  0  0  0  0
 27 64  1  0  0  0  0
 28 65  1  0  0  0  0
 28 66  1  0  0  0  0
 28 67  1  0  0  0  0
 29 37  2  0  0  0  0
 30 35  1  0  0  0  0
 31 36  1  0  0  0  0
 32 38  2  0  0  0  0
 32 69  1  0  0  0  0
 33 34  1  0  0  0  0
 33 70  1  0  0  0  0
 33 71  1  0  0  0  0
 34 39  1  0  0  0  0
 34 40  1  0  0  0  0
 35 36  2  0  0  0  0
 36 42  1  0  0  0  0
 37 38  1  0  0  0  0
 38 45  1  0  0  0  0
 40 44  1  0  0  0  0
 40 47  2  0  0  0  0
 41 74  1  0  0  0  0
 41 75  1  0  0  0  0
 42 76  1  0  0  0  0
 42 77  1  0  0  0  0
 42 78  1  0  0  0  0
 43 46  1  0  0  0  0
 43 79  1  0  0  0  0
 43 80  1  0  0  0  0
 44 46  1  0  0  0  0
 44 49  2  0  0  0  0
 45 81  1  0  0  0  0
 45 82  1  0  0  0  0
 45 83  1  0  0  0  0
 46 84  1  0  0  0  0
 46 85  1  0  0  0  0
 47 50  1  0  0  0  0
 47 86  1  0  0  0  0
 48 53  1  0  0  0  0
 49 52  1  0  0  0  0
 49 87  1  0  0  0  0
 50 52  2  0  0  0  0
 51 88  1  0  0  0  0
 51 89  1  0  0  0  0
 51 90  1  0  0  0  0
 53 91  1  0  0  0  0
 53 92  1  0  0  0  0
 53 93  1  0  0  0  0
 54 95  1  0  0  0  0
 54 96  1  0  0  0  0
 54 97  1  0  0  0  0
M  END
> <PUBCHEM_COMPOUND_CID>
23725056

> <PUBCHEM_COMPOUND_CANONICALIZED>
1

> <PUBCHEM_CACTVS_COMPLEXITY>
1450

> <PUBCHEM_CACTVS_HBOND_ACCEPTOR>
15

> <PUBCHEM_CACTVS_HBOND_DONOR>
4

> <PUBCHEM_CACTVS_ROTATABLE_BOND>
4

> <PUBCHEM_CACTVS_SUBSKEYS>
AAADcfB/PABAAAAAAAAAAAAAAAAAASAAAAA8ePFiAAAWAEixUAAAHgQQCAAADKzl2AeyDoPABgiIAiDSCACCCAAgIBAAiIGOjIgfdzKmtTu3eivn0BW/uAf4/P/O4QADCAAYQADCAAYQADCAAAAAAAAAAA==

> <PUBCHEM_IUPAC_INCHI>
InChI=1S/C39H43N3O11S/c1-16-9-20-10-22-37(46)42-23-13-50-38(47)39(21-12-25(48-5)24(44)11-19(21)7-8-40-39)14-54-36(30(42)29(41(22)4)26(20)31(45)32(16)49-6)28-27(23)35-34(51-15-52-35)17(2)33(28)53-18(3)43/h9,11-12,22-23,29-30,36-37,40,44-46H,7-8,10,13-15H2,1-6H3/t22-,23+,29+,30-,36-,37+,39-/m1/s1

> <PUBCHEM_IUPAC_INCHIKEY>
PKVRCIRHQMSYJX-FRLHEMLTSA-N

> <PUBCHEM_XLOGP3_AA>
3.4

> <PUBCHEM_EXACT_MASS>
761.26183

> <PUBCHEM_MOLECULAR_FORMULA>
C39H43N3O11S

> <PUBCHEM_MOLECULAR_WEIGHT>
761.83722

> <PUBCHEM_OPENEYE_CAN_SMILES>
CC1=C(C(=C2C3C4C5C6=C(C(N4C(C(N3C)CC2=C1)O)COC(=O)C7(CS5)C8=CC(=C(C=C8CCN7)O)OC)C9=C(C(=C6OC(=O)C)C)OCO9)O)OC

> <PUBCHEM_OPENEYE_ISO_SMILES>
CC1=C(C(=C2[C@H]3[C@@H]4[C@H]5C6=C([C@@H](N4[C@H]([C@H](N3C)CC2=C1)O)COC(=O)[C@@]7(CS5)C8=CC(=C(C=C8CCN7)O)OC)C9=C(C(=C6OC(=O)C)C)OCO9)O)OC

> <PUBCHEM_CACTVS_TPSA>
194

> <PUBCHEM_MONOISOTOPIC_WEIGHT>
761.26183

> <PUBCHEM_TOTAL_CHARGE>
0

> <PUBCHEM_HEAVY_ATOM_COUNT>
54

> <PUBCHEM_ATOM_DEF_STEREO_COUNT>
7

> <PUBCHEM_ATOM_UDEF_STEREO_COUNT>
0

> <PUBCHEM_BOND_DEF_STEREO_COUNT>
0

> <PUBCHEM_BOND_UDEF_STEREO_COUNT>
0

> <PUBCHEM_ISOTOPIC_ATOM_COUNT>
0

> <PUBCHEM_COMPONENT_COUNT>
1

> <PUBCHEM_CACTVS_TAUTO_COUNT>
153

> <PUBCHEM_COORDINATE_TYPE>
1
5
255

> <PUBCHEM_BONDANNOTATIONS>
34  15  5
16  55  6
17  56  6
18  57  5
19  2  6
20  59  6
21  60  6
23  26  8
23  29  8
24  25  8
24  31  8
25  30  8
26  32  8
29  37  8
30  35  8
31  36  8
32  38  8
35  36  8
37  38  8
40  44  8
40  47  8
44  49  8
47  50  8
49  52  8
50  52  8

$$$$

