442752
  -OEChem-07051212592D

 29 31  0     1  0  0  0  0  0999 V2000
    6.4783    0.6293    0.0000 O   0  0  0  0  0  0  0  0  0  0  0  0
    8.5619   -1.0414    0.0000 O   0  0  0  0  0  0  0  0  0  0  0  0
    4.6660   -2.1754    0.0000 O   0  0  0  0  0  0  0  0  0  0  0  0
    4.6660    1.8246    0.0000 O   0  0  0  0  0  0  0  0  0  0  0  0
    2.9176    1.8592    0.0000 O   0  0  0  0  0  0  0  0  0  0  0  0
    5.5321   -0.6754    0.0000 C   0  0  0  0  0  0  0  0  0  0  0  0
    5.5321    0.3246    0.0000 C   0  0  0  0  0  0  0  0  0  0  0  0
    7.0619   -0.1754    0.0000 C   0  0  0  0  0  0  0  0  0  0  0  0
    3.8000    0.3246    0.0000 C   0  0  0  0  0  0  0  0  0  0  0  0
    3.8000   -0.6754    0.0000 C   0  0  0  0  0  0  0  0  0  0  0  0
    6.4783   -0.9801    0.0000 C   0  0  0  0  0  0  0  0  0  0  0  0
    4.6660   -1.1754    0.0000 C   0  0  0  0  0  0  0  0  0  0  0  0
    4.6660    0.8246    0.0000 C   0  0  0  0  0  0  0  0  0  0  0  0
    8.0619   -0.1754    0.0000 C   0  0  2  0  0  0  0  0  0  0  0  0
    2.9061    0.8593    0.0000 C   0  0  0  0  0  0  0  0  0  0  0  0
    2.9061   -1.2100    0.0000 C   0  0  0  0  0  0  0  0  0  0  0  0
    8.5619    0.6906    0.0000 C   0  0  0  0  0  0  0  0  0  0  0  0
    2.0000    0.3454    0.0000 C   0  0  0  0  0  0  0  0  0  0  0  0
    2.0000   -0.6962    0.0000 C   0  0  0  0  0  0  0  0  0  0  0  0
    6.6709   -1.5694    0.0000 H   0  0  0  0  0  0  0  0  0  0  0  0
    8.6819   -0.1754    0.0000 H   0  0  0  0  0  0  0  0  0  0  0  0
    2.9132   -1.8300    0.0000 H   0  0  0  0  0  0  0  0  0  0  0  0
    9.0988    0.3806    0.0000 H   0  0  0  0  0  0  0  0  0  0  0  0
    8.8719    1.2276    0.0000 H   0  0  0  0  0  0  0  0  0  0  0  0
    8.0250    1.0006    0.0000 H   0  0  0  0  0  0  0  0  0  0  0  0
    1.4643    0.6575    0.0000 H   0  0  0  0  0  0  0  0  0  0  0  0
    1.4643   -1.0083    0.0000 H   0  0  0  0  0  0  0  0  0  0  0  0
    9.1819   -1.0414    0.0000 H   0  0  0  0  0  0  0  0  0  0  0  0
    2.3843    2.1754    0.0000 H   0  0  0  0  0  0  0  0  0  0  0  0
  1  7  1  0  0  0  0
  1  8  1  0  0  0  0
 14  2  1  6  0  0  0
  2 28  1  0  0  0  0
  3 12  2  0  0  0  0
  4 13  2  0  0  0  0
  5 15  1  0  0  0  0
  5 29  1  0  0  0  0
  6  7  2  0  0  0  0
  6 11  1  0  0  0  0
  6 12  1  0  0  0  0
  7 13  1  0  0  0  0
  8 11  2  0  0  0  0
  8 14  1  0  0  0  0
  9 10  2  0  0  0  0
  9 13  1  0  0  0  0
  9 15  1  0  0  0  0
 10 12  1  0  0  0  0
 10 16  1  0  0  0  0
 11 20  1  0  0  0  0
 14 17  1  0  0  0  0
 14 21  1  0  0  0  0
 15 18  2  0  0  0  0
 16 19  2  0  0  0  0
 16 22  1  0  0  0  0
 17 23  1  0  0  0  0
 17 24  1  0  0  0  0
 17 25  1  0  0  0  0
 18 19  1  0  0  0  0
 18 26  1  0  0  0  0
 19 27  1  0  0  0  0
M  END
> <PUBCHEM_COMPOUND_CID>
442752

> <PUBCHEM_COMPOUND_CANONICALIZED>
1

> <PUBCHEM_CACTVS_COMPLEXITY>
407

> <PUBCHEM_CACTVS_HBOND_ACCEPTOR>
5

> <PUBCHEM_CACTVS_HBOND_DONOR>
2

> <PUBCHEM_CACTVS_ROTATABLE_BOND>
1

> <PUBCHEM_CACTVS_SUBSKEYS>
AAADccBwOAAAAAAAAAAAAAAAAAAAASAAAAAwYAAAAAAAAEjBwAAAGgAACAAADBSgmAIyBoAABkCIAqBSAAICCAAkIAAIiAFGCMgNNjaONR6CeWCk4BELuYfL7vTugAABAAAYAADAAAYAADAAAAAAAAAAAA==

> <PUBCHEM_IUPAC_OPENEYE_NAME>
8-hydroxy-2-[(1S)-1-hydroxyethyl]benzo[f]benzofuran-4,9-dione

> <PUBCHEM_IUPAC_CAS_NAME>
8-hydroxy-2-[(1S)-1-hydroxyethyl]benzo[f]benzofuran-4,9-dione

> <PUBCHEM_IUPAC_NAME>
8-hydroxy-2-[(1S)-1-hydroxyethyl]benzo[f][1]benzofuran-4,9-dione

> <PUBCHEM_IUPAC_SYSTEMATIC_NAME>
8-oxidanyl-2-[(1S)-1-oxidanylethyl]benzo[f][1]benzofuran-4,9-dione

> <PUBCHEM_IUPAC_TRADITIONAL_NAME>
8-hydroxy-2-[(1S)-1-hydroxyethyl]benzo[f]benzofuran-4,9-quinone

> <PUBCHEM_IUPAC_INCHI>
InChI=1S/C14H10O5/c1-6(15)10-5-8-12(17)7-3-2-4-9(16)11(7)13(18)14(8)19-10/h2-6,15-16H,1H3/t6-/m0/s1

> <PUBCHEM_IUPAC_INCHIKEY>
CKCXAMWUYPZVFL-LURJTMIESA-N

> <PUBCHEM_XLOGP3_AA>
2

> <PUBCHEM_EXACT_MASS>
258.052823

> <PUBCHEM_MOLECULAR_FORMULA>
C14H10O5

> <PUBCHEM_MOLECULAR_WEIGHT>
258.2262

> <PUBCHEM_OPENEYE_CAN_SMILES>
CC(C1=CC2=C(O1)C(=O)C3=C(C2=O)C=CC=C3O)O

> <PUBCHEM_OPENEYE_ISO_SMILES>
C[C@@H](C1=CC2=C(O1)C(=O)C3=C(C2=O)C=CC=C3O)O

> <PUBCHEM_CACTVS_TPSA>
87.7

> <PUBCHEM_MONOISOTOPIC_WEIGHT>
258.052823

> <PUBCHEM_TOTAL_CHARGE>
0

> <PUBCHEM_HEAVY_ATOM_COUNT>
19

> <PUBCHEM_ATOM_DEF_STEREO_COUNT>
1

> <PUBCHEM_ATOM_UDEF_STEREO_COUNT>
0

> <PUBCHEM_BOND_DEF_STEREO_COUNT>
0

> <PUBCHEM_BOND_UDEF_STEREO_COUNT>
0

> <PUBCHEM_ISOTOPIC_ATOM_COUNT>
0

> <PUBCHEM_COMPONENT_COUNT>
1

> <PUBCHEM_CACTVS_TAUTO_COUNT>
5

> <PUBCHEM_COORDINATE_TYPE>
1
5
255

> <PUBCHEM_BONDANNOTATIONS>
1  7  8
1  8  8
10  16  8
15  18  8
16  19  8
18  19  8
14  2  6
6  11  8
6  7  8
8  11  8
9  10  8
9  15  8

$$$$

