582805
  -OEChem-06241222442D

 43 44  0     1  0  0  0  0  0999 V2000
    6.4641    2.8100    0.0000 Cl  0  0  0  0  0  0  0  0  0  0  0  0
    5.4641    3.8100    0.0000 Cl  0  0  0  0  0  0  0  0  0  0  0  0
    4.4641    2.8100    0.0000 Cl  0  0  0  0  0  0  0  0  0  0  0  0
    5.4641   -0.1900    0.0000 S   0  0  0  0  0  0  0  0  0  0  0  0
    7.1962    2.8100    0.0000 O   0  0  0  0  0  0  0  0  0  0  0  0
    2.0000   -3.1900    0.0000 O   0  0  0  0  0  0  0  0  0  0  0  0
    6.3301    1.3100    0.0000 N   0  0  0  0  0  0  0  0  0  0  0  0
    4.5981    1.3100    0.0000 N   0  0  0  0  0  0  0  0  0  0  0  0
    3.7321   -0.1900    0.0000 N   0  0  0  0  0  0  0  0  0  0  0  0
    5.4641    1.8100    0.0000 C   0  0  3  0  0  0  0  0  0  0  0  0
    5.4641    2.8100    0.0000 C   0  0  0  0  0  0  0  0  0  0  0  0
    3.7321   -1.1900    0.0000 C   0  0  0  0  0  0  0  0  0  0  0  0
    7.1962    1.8100    0.0000 C   0  0  0  0  0  0  0  0  0  0  0  0
    4.5981    0.3100    0.0000 C   0  0  0  0  0  0  0  0  0  0  0  0
    9.7942    1.3100    0.0000 C   0  0  0  0  0  0  0  0  0  0  0  0
    2.8660   -1.6900    0.0000 C   0  0  0  0  0  0  0  0  0  0  0  0
    8.0622    1.3100    0.0000 C   0  0  0  0  0  0  0  0  0  0  0  0
    4.5981   -1.6900    0.0000 C   0  0  0  0  0  0  0  0  0  0  0  0
    8.9282    1.8100    0.0000 C   0  0  0  0  0  0  0  0  0  0  0  0
    2.8660   -2.6900    0.0000 C   0  0  0  0  0  0  0  0  0  0  0  0
    4.5981   -2.6900    0.0000 C   0  0  0  0  0  0  0  0  0  0  0  0
    3.7321   -3.1900    0.0000 C   0  0  0  0  0  0  0  0  0  0  0  0
   10.6603    1.8100    0.0000 C   0  0  0  0  0  0  0  0  0  0  0  0
    9.7942    0.3100    0.0000 C   0  0  0  0  0  0  0  0  0  0  0  0
   11.5263    1.3100    0.0000 C   0  0  0  0  0  0  0  0  0  0  0  0
   10.6603   -0.1900    0.0000 C   0  0  0  0  0  0  0  0  0  0  0  0
   11.5263    0.3100    0.0000 C   0  0  0  0  0  0  0  0  0  0  0  0
    6.0010    2.1200    0.0000 H   0  0  0  0  0  0  0  0  0  0  0  0
    6.3301    0.6900    0.0000 H   0  0  0  0  0  0  0  0  0  0  0  0
    3.1951    0.1200    0.0000 H   0  0  0  0  0  0  0  0  0  0  0  0
    2.3291   -1.3800    0.0000 H   0  0  0  0  0  0  0  0  0  0  0  0
    8.0622    0.6900    0.0000 H   0  0  0  0  0  0  0  0  0  0  0  0
    5.1350   -1.3800    0.0000 H   0  0  0  0  0  0  0  0  0  0  0  0
    8.9282    2.4300    0.0000 H   0  0  0  0  0  0  0  0  0  0  0  0
    5.1350   -3.0000    0.0000 H   0  0  0  0  0  0  0  0  0  0  0  0
    3.7321   -3.8100    0.0000 H   0  0  0  0  0  0  0  0  0  0  0  0
   10.6603    2.4300    0.0000 H   0  0  0  0  0  0  0  0  0  0  0  0
    9.2573   -0.0000    0.0000 H   0  0  0  0  0  0  0  0  0  0  0  0
   12.0632    1.6200    0.0000 H   0  0  0  0  0  0  0  0  0  0  0  0
   10.6603   -0.8100    0.0000 H   0  0  0  0  0  0  0  0  0  0  0  0
   12.0632    0.0000    0.0000 H   0  0  0  0  0  0  0  0  0  0  0  0
    6.0010    0.1200    0.0000 H   0  0  0  0  0  0  0  0  0  0  0  0
    2.0000   -3.8100    0.0000 H   0  0  0  0  0  0  0  0  0  0  0  0
  1 11  1  0  0  0  0
  2 11  1  0  0  0  0
  3 11  1  0  0  0  0
  4 14  1  0  0  0  0
  4 42  1  0  0  0  0
  5 13  2  0  0  0  0
  6 20  1  0  0  0  0
  6 43  1  0  0  0  0
  7 10  1  0  0  0  0
  7 13  1  0  0  0  0
  7 29  1  0  0  0  0
  8 10  1  0  0  0  0
  8 14  2  3  0  0  0
  9 12  1  0  0  0  0
  9 14  1  0  0  0  0
  9 30  1  0  0  0  0
 10 11  1  0  0  0  0
 10 28  1  0  0  0  0
 12 16  2  0  0  0  0
 12 18  1  0  0  0  0
 13 17  1  0  0  0  0
 15 19  1  0  0  0  0
 15 23  2  0  0  0  0
 15 24  1  0  0  0  0
 16 20  1  0  0  0  0
 16 31  1  0  0  0  0
 17 19  2  3  0  0  0
 17 32  1  0  0  0  0
 18 21  2  0  0  0  0
 18 33  1  0  0  0  0
 19 34  1  0  0  0  0
 20 22  2  0  0  0  0
 21 22  1  0  0  0  0
 21 35  1  0  0  0  0
 22 36  1  0  0  0  0
 23 25  1  0  0  0  0
 23 37  1  0  0  0  0
 24 26  2  0  0  0  0
 24 38  1  0  0  0  0
 25 27  2  0  0  0  0
 25 39  1  0  0  0  0
 26 27  1  0  0  0  0
 26 40  1  0  0  0  0
 27 41  1  0  0  0  0
M  END
> <PUBCHEM_COMPOUND_CID>
582805

> <PUBCHEM_COMPOUND_CANONICALIZED>
1

> <PUBCHEM_CACTVS_COMPLEXITY>
549

> <PUBCHEM_CACTVS_HBOND_ACCEPTOR>
4

> <PUBCHEM_CACTVS_HBOND_DONOR>
4

> <PUBCHEM_CACTVS_ROTATABLE_BOND>
6

> <PUBCHEM_CACTVS_SUBSKEYS>
AAADceB7MABGAAAAAAAAAAAAAAAAAAAAAAAwYAAAAAAAAAABQAAAHgYQCAAADA7BmIQxxoLAAgSoAiVSdACCEAEhIgAJiIAObMiIJiLCmZPEcAhm1xvI2YeQ0AMOAAAAAgAAAAAAAAAEAAAAAAAAAAAAAA==

> <PUBCHEM_IUPAC_OPENEYE_NAME>
3-phenyl-N-[2,2,2-trichloro-1-[[(3-hydroxyanilino)-sulfanyl-methylene]amino]ethyl]prop-2-enamide

> <PUBCHEM_IUPAC_CAS_NAME>
N-(3-hydroxyphenyl)-N'-[2,2,2-trichloro-1-[(1-oxo-3-phenylprop-2-enyl)amino]ethyl]carbamimidothioic acid

> <PUBCHEM_IUPAC_NAME>
N-(3-hydroxyphenyl)-N'-[2,2,2-trichloro-1-(3-phenylprop-2-enoylamino)ethyl]carbamimidothioic acid

> <PUBCHEM_IUPAC_SYSTEMATIC_NAME>
N-(3-hydroxyphenyl)-N'-[2,2,2-tris(chloranyl)-1-(3-phenylprop-2-enoylamino)ethyl]carbamimidothioic acid

> <PUBCHEM_IUPAC_TRADITIONAL_NAME>
3-phenyl-N-[2,2,2-trichloro-1-[[(3-hydroxyanilino)-mercapto-methylene]amino]ethyl]acrylamide

> <PUBCHEM_IUPAC_INCHI>
InChI=1S/C18H16Cl3N3O2S/c19-18(20,21)16(23-15(26)10-9-12-5-2-1-3-6-12)24-17(27)22-13-7-4-8-14(25)11-13/h1-11,16,25H,(H,23,26)(H2,22,24,27)

> <PUBCHEM_IUPAC_INCHIKEY>
DJPDDSIKUXLTGV-UHFFFAOYSA-N

> <PUBCHEM_XLOGP3_AA>
4.8

> <PUBCHEM_EXACT_MASS>
443.002881

> <PUBCHEM_MOLECULAR_FORMULA>
C18H16Cl3N3O2S

> <PUBCHEM_MOLECULAR_WEIGHT>
444.76254

> <PUBCHEM_OPENEYE_CAN_SMILES>
C1=CC=C(C=C1)C=CC(=O)NC(C(Cl)(Cl)Cl)N=C(NC2=CC(=CC=C2)O)S

> <PUBCHEM_OPENEYE_ISO_SMILES>
C1=CC=C(C=C1)C=CC(=O)NC(C(Cl)(Cl)Cl)N=C(NC2=CC(=CC=C2)O)S

> <PUBCHEM_CACTVS_TPSA>
74.7

> <PUBCHEM_MONOISOTOPIC_WEIGHT>
443.002881

> <PUBCHEM_TOTAL_CHARGE>
0

> <PUBCHEM_HEAVY_ATOM_COUNT>
27

> <PUBCHEM_ATOM_DEF_STEREO_COUNT>
0

> <PUBCHEM_ATOM_UDEF_STEREO_COUNT>
1

> <PUBCHEM_BOND_DEF_STEREO_COUNT>
0

> <PUBCHEM_BOND_UDEF_STEREO_COUNT>
2

> <PUBCHEM_ISOTOPIC_ATOM_COUNT>
0

> <PUBCHEM_COMPONENT_COUNT>
1

> <PUBCHEM_CACTVS_TAUTO_COUNT>
44

> <PUBCHEM_COORDINATE_TYPE>
1
5
255

> <PUBCHEM_BONDANNOTATIONS>
10  28  3
12  16  8
12  18  8
15  23  8
15  24  8
16  20  8
17  19  1
18  21  8
20  22  8
21  22  8
23  25  8
24  26  8
25  27  8
26  27  8
8  14  1

$$$$

