10529
  -OEChem-06261204392D

 32 31  0     1  0  0  0  0  0999 V2000
    4.5981   -2.6440    0.0000 S   0  0  0  0  0  0  0  0  0  0  0  0
    2.0000   -0.1440    0.0000 Na  0  3  0  0  0  0  0  0  0  0  0  0
    2.8660    0.3560    0.0000 O   0  5  0  0  0  0  0  0  0  0  0  0
    6.3301    0.3560    0.0000 O   0  0  0  0  0  0  0  0  0  0  0  0
    3.7321   -1.1440    0.0000 N   0  0  0  0  0  0  0  0  0  0  0  0
    5.4641   -1.1440    0.0000 N   0  0  0  0  0  0  0  0  0  0  0  0
    4.5981    0.3560    0.0000 C   0  0  3  0  0  0  0  0  0  0  0  0
    5.0981    1.2220    0.0000 C   0  0  0  0  0  0  0  0  0  0  0  0
    4.5981    2.0880    0.0000 C   0  0  0  0  0  0  0  0  0  0  0  0
    4.0981    1.2220    0.0000 C   0  0  0  0  0  0  0  0  0  0  0  0
    3.7321   -0.1440    0.0000 C   0  0  0  0  0  0  0  0  0  0  0  0
    5.4641   -0.1440    0.0000 C   0  0  0  0  0  0  0  0  0  0  0  0
    5.0981    2.9540    0.0000 C   0  0  0  0  0  0  0  0  0  0  0  0
    3.5981    2.0880    0.0000 C   0  0  0  0  0  0  0  0  0  0  0  0
    3.0981    1.2220    0.0000 C   0  0  0  0  0  0  0  0  0  0  0  0
    4.5981   -1.6440    0.0000 C   0  0  0  0  0  0  0  0  0  0  0  0
    2.5981    2.0880    0.0000 C   0  0  0  0  0  0  0  0  0  0  0  0
    5.5730    0.8235    0.0000 H   0  0  0  0  0  0  0  0  0  0  0  0
    5.5730    1.6205    0.0000 H   0  0  0  0  0  0  0  0  0  0  0  0
    5.2181    2.0880    0.0000 H   0  0  0  0  0  0  0  0  0  0  0  0
    4.6807    1.4340    0.0000 H   0  0  0  0  0  0  0  0  0  0  0  0
    3.9904    1.8326    0.0000 H   0  0  0  0  0  0  0  0  0  0  0  0
    5.6350    2.6440    0.0000 H   0  0  0  0  0  0  0  0  0  0  0  0
    5.4081    3.4910    0.0000 H   0  0  0  0  0  0  0  0  0  0  0  0
    4.5611    3.2640    0.0000 H   0  0  0  0  0  0  0  0  0  0  0  0
    3.5981    2.7080    0.0000 H   0  0  0  0  0  0  0  0  0  0  0  0
    2.9781    2.0880    0.0000 H   0  0  0  0  0  0  0  0  0  0  0  0
    3.5981    1.4680    0.0000 H   0  0  0  0  0  0  0  0  0  0  0  0
    2.7881    0.6851    0.0000 H   0  0  0  0  0  0  0  0  0  0  0  0
    2.9081    2.6249    0.0000 H   0  0  0  0  0  0  0  0  0  0  0  0
    1.9781    2.0880    0.0000 H   0  0  0  0  0  0  0  0  0  0  0  0
    5.1350   -2.9540    0.0000 H   0  0  0  0  0  0  0  0  0  0  0  0
  1 16  1  0  0  0  0
  1 32  1  0  0  0  0
  3 11  1  0  0  0  0
  4 12  2  0  0  0  0
  5 11  2  0  0  0  0
  5 16  1  0  0  0  0
  6 12  1  0  0  0  0
  6 16  2  0  0  0  0
  7  8  1  0  0  0  0
  7 10  1  0  0  0  0
  7 11  1  0  0  0  0
  7 12  1  0  0  0  0
  8  9  1  0  0  0  0
  8 18  1  0  0  0  0
  8 19  1  0  0  0  0
  9 13  1  0  0  0  0
  9 14  1  0  0  0  0
  9 20  1  0  0  0  0
 10 15  1  0  0  0  0
 10 21  1  0  0  0  0
 10 22  1  0  0  0  0
 13 23  1  0  0  0  0
 13 24  1  0  0  0  0
 13 25  1  0  0  0  0
 14 26  1  0  0  0  0
 14 27  1  0  0  0  0
 14 28  1  0  0  0  0
 15 17  2  0  0  0  0
 15 29  1  0  0  0  0
 17 30  1  0  0  0  0
 17 31  1  0  0  0  0
M  CHG  2   2   1   3  -1
M  END
> <PUBCHEM_COMPOUND_CID>
10529

> <PUBCHEM_COMPOUND_CANONICALIZED>
1

> <PUBCHEM_CACTVS_COMPLEXITY>
351

> <PUBCHEM_CACTVS_HBOND_ACCEPTOR>
3

> <PUBCHEM_CACTVS_HBOND_DONOR>
1

> <PUBCHEM_CACTVS_ROTATABLE_BOND>
4

> <PUBCHEM_CACTVS_SUBSKEYS>
AAADccBzMCBAAAAAAAAAAAAAAAAAAAAAAAAgAAAAAAAAAAAAAAAAHgQAAAAADwCBgAADAAIAAASoACFyNAAAEAEgAAAIAAEgAAgAABYAgQAAAAAGoAAAAAGYAAAPAAAAAAAAAAAAAAAAAAAAAAAAAAAAAA==

> <PUBCHEM_IUPAC_OPENEYE_NAME>
sodium 5-allyl-5-isobutyl-6-oxo-2-sulfanyl-pyrimidin-4-olate

> <PUBCHEM_IUPAC_CAS_NAME>
sodium 2-mercapto-5-(2-methylpropyl)-6-oxo-5-prop-2-enyl-4-pyrimidinolate

> <PUBCHEM_IUPAC_NAME>
sodium 5-(2-methylpropyl)-6-oxo-5-prop-2-enyl-2-sulfanylpyrimidin-4-olate

> <PUBCHEM_IUPAC_SYSTEMATIC_NAME>
sodium 5-(2-methylpropyl)-6-oxidanylidene-5-prop-2-enyl-2-sulfanyl-pyrimidin-4-olate

> <PUBCHEM_IUPAC_TRADITIONAL_NAME>
sodium 5-allyl-5-isobutyl-6-keto-2-mercapto-pyrimidin-4-olate

> <PUBCHEM_IUPAC_INCHI>
InChI=1S/C11H16N2O2S.Na/c1-4-5-11(6-7(2)3)8(14)12-10(16)13-9(11)15;/h4,7H,1,5-6H2,2-3H3,(H2,12,13,14,15,16);/q;+1/p-1

> <PUBCHEM_IUPAC_INCHIKEY>
APSWQQYXFMUODF-UHFFFAOYSA-M

> <PUBCHEM_EXACT_MASS>
262.075193

> <PUBCHEM_MOLECULAR_FORMULA>
C11H15N2NaO2S

> <PUBCHEM_MOLECULAR_WEIGHT>
262.303769

> <PUBCHEM_OPENEYE_CAN_SMILES>
CC(C)CC1(C(=NC(=NC1=O)S)[O-])CC=C.[Na+]

> <PUBCHEM_OPENEYE_ISO_SMILES>
CC(C)CC1(C(=NC(=NC1=O)S)[O-])CC=C.[Na+]

> <PUBCHEM_CACTVS_TPSA>
65.8

> <PUBCHEM_MONOISOTOPIC_WEIGHT>
262.075193

> <PUBCHEM_TOTAL_CHARGE>
0

> <PUBCHEM_HEAVY_ATOM_COUNT>
17

> <PUBCHEM_ATOM_DEF_STEREO_COUNT>
0

> <PUBCHEM_ATOM_UDEF_STEREO_COUNT>
1

> <PUBCHEM_BOND_DEF_STEREO_COUNT>
0

> <PUBCHEM_BOND_UDEF_STEREO_COUNT>
0

> <PUBCHEM_ISOTOPIC_ATOM_COUNT>
0

> <PUBCHEM_COMPONENT_COUNT>
2

> <PUBCHEM_CACTVS_TAUTO_COUNT>
3

> <PUBCHEM_COORDINATE_TYPE>
1
5
255

> <PUBCHEM_BONDANNOTATIONS>
7  8  3

$$$$

