   Color/Form
        Dark brown viscous oil
   from [1]HSDB

   Boiling Point
        250-252 deg C @ 0.3 mm Hg; 268-274 deg C @ 0.5 mm Hg
   from [2]HSDB

   Octanol/Water Partition Coefficient
        log Kow = 4.36
   from [3]HSDB

   Solubilities

     * Sol in water.
     * In water, 31.3 mg/l @ 37 deg C

   from [4]HSDB

   Spectral Properties
        Intense mass spectral peaks: 70 m/z, 113 m/z, 143 m/z, 280 m/z,
   437 m/z
   from [5]HSDB

   Other Chemical/Physical Properties

     * MP: 224.5-226 deg C /Fluphenazine dihydrochloride/
     * CHARACTERISTIC ODOR /FLUPHENAZINE DECANOATE, ENANTHATE/
     * MP: 165-166 deg C /Fluphenazine dimaleate/
     * SOL IN ALC, ACETONE, BENZENE, & ETHER /FLUPHENAZINE DECANOATE/
     * INSOL IN WATER /FLUPHENAZINE DECANOATE/
     * FREELY SOL IN ALC, ETHER, BENZENE, CHLOROFORM /FLUPHENAZINE
       ENANTHATE/
     * INSOL IN WATER /FLUPHENAZINE ENANTHATE/
     * FREELY SOL IN WATER; SLIGHTLY SOL IN ACETONE /FLUPHENAZINE HYDROGEN
       CHLORIDE/
     * SLIGHTLY SOL IN ALC, CHLOROFORM /FLUPHENAZINE HYDROGEN CHLORIDE/
     * PRACTICALLY INSOL IN BENZENE & ETHER /FLUPHENAZINE HYDROGEN
       CHLORIDE/
     * Crystals from absolute ethanol /fluphenzine dihydrochloride/
     * Crystals from methyl ethyl ketone /Fluphenazine dimaleate/
     * PALE YELLOW TO YELLOWISH ORANGE VISCOUS LIQ /FLUPHENAZINE
       DECANOATE/
     * PALE-YELLOW TO YELLOW-ORANGE VISCOUS LIQ /FLUPHENAZINE ENANTHATE/
     * WHITE OR NEARLY WHITE, CRYSTALLINE POWDER /FLUPHENAZINE
       HYDROCHLORIDE/

   from [6]HSDB

   Computed Properties
   Molecular Weight                  437.52155 [g/mol]
   Molecular Formula                 C[22]H[26]F[3]N[3]OS
   XLogP3                            4.4
   H-Bond Donor                      1
   H-Bond Acceptor                   8
   Rotatable Bond Count              6
   Exact Mass                        437.174868
   MonoIsotopic Mass                 437.174868
   Topological Polar Surface Area    55.2
   Heavy Atom Count                  30
   Formal Charge                     0
   Complexity                        544
   Isotope Atom Count                0
   Defined Atom Stereocenter Count   0
   Undefined Atom Stereocenter Count 0
   Defined Bond Stereocenter Count   0
   Undefined Bond Stereocenter Count 0
   Covalently-Bonded Unit Count      1
   Feature 3D Acceptor Count         1
   Feature 3D Donor Count            1
   Feature 3D Cation Count           3
   Feature 3D Ring Count             4
   Effective Rotor Count             8.6
   Conformer Sampling RMSD           1
   CID Conformer Count               [7]42

References

   1. http://toxnet.nlm.nih.gov/cgi-bin/sis/search/r?dbs+hsdb:@term+@rn+@rel+69-23-8
   2. http://toxnet.nlm.nih.gov/cgi-bin/sis/search/r?dbs+hsdb:@term+@rn+@rel+69-23-8
   3. http://toxnet.nlm.nih.gov/cgi-bin/sis/search/r?dbs+hsdb:@term+@rn+@rel+69-23-8
   4. http://toxnet.nlm.nih.gov/cgi-bin/sis/search/r?dbs+hsdb:@term+@rn+@rel+69-23-8
   5. http://toxnet.nlm.nih.gov/cgi-bin/sis/search/r?dbs+hsdb:@term+@rn+@rel+69-23-8
   6. http://toxnet.nlm.nih.gov/cgi-bin/sis/search/r?dbs+hsdb:@term+@rn+@rel+69-23-8
   7. http://pubchem.ncbi.nlm.nih.gov/vw3d/vw3d.cgi?cid=3372
