49787007
  -OEChem-07051212512D

 32 33  0     1  0  0  0  0  0999 V2000
    6.3919   -1.1093    0.0000 O   0  0  0  0  0  0  0  0  0  0  0  0
    8.0382   -0.5712    0.0000 O   0  0  0  0  0  0  0  0  0  0  0  0
    5.1350    1.1460    0.0000 N   0  0  3  0  0  0  0  0  0  0  0  0
    2.5369    1.6460    0.0000 N   0  0  0  0  0  0  0  0  0  0  0  0
    5.1350    0.1460    0.0000 C   0  0  3  0  0  0  0  0  0  0  0  0
    6.0812   -0.1587    0.0000 C   0  0  2  0  0  0  0  0  0  0  0  0
    4.2690   -0.3540    0.0000 C   0  0  0  0  0  0  0  0  0  0  0  0
    6.0812    1.4507    0.0000 C   0  0  0  0  0  0  0  0  0  0  0  0
    6.6648    0.6460    0.0000 C   0  0  0  0  0  0  0  0  0  0  0  0
    4.2690    1.6460    0.0000 C   0  0  0  0  0  0  0  0  0  0  0  0
    3.4030    1.1460    0.0000 C   0  0  2  0  0  0  0  0  0  0  0  0
    3.4030    0.1460    0.0000 C   0  0  0  0  0  0  0  0  0  0  0  0
    7.3704   -1.3155    0.0000 C   0  0  0  0  0  0  0  0  0  0  0  0
    7.6811   -2.2660    0.0000 C   0  0  0  0  0  0  0  0  0  0  0  0
    5.2006   -0.4705    0.0000 H   0  0  0  0  0  0  0  0  0  0  0  0
    5.6438   -0.5981    0.0000 H   0  0  0  0  0  0  0  0  0  0  0  0
    3.8705   -0.8290    0.0000 H   0  0  0  0  0  0  0  0  0  0  0  0
    4.6675   -0.8290    0.0000 H   0  0  0  0  0  0  0  0  0  0  0  0
    6.6186    1.7600    0.0000 H   0  0  0  0  0  0  0  0  0  0  0  0
    5.8302    2.0176    0.0000 H   0  0  0  0  0  0  0  0  0  0  0  0
    7.1257    0.2313    0.0000 H   0  0  0  0  0  0  0  0  0  0  0  0
    7.1257    1.0607    0.0000 H   0  0  0  0  0  0  0  0  0  0  0  0
    4.6675    2.1209    0.0000 H   0  0  0  0  0  0  0  0  0  0  0  0
    3.8705    2.1209    0.0000 H   0  0  0  0  0  0  0  0  0  0  0  0
    3.4030    1.7660    0.0000 H   0  0  0  0  0  0  0  0  0  0  0  0
    2.7924    0.2537    0.0000 H   0  0  0  0  0  0  0  0  0  0  0  0
    3.1909   -0.4366    0.0000 H   0  0  0  0  0  0  0  0  0  0  0  0
    2.0000    1.3360    0.0000 H   0  0  0  0  0  0  0  0  0  0  0  0
    2.5369    2.2660    0.0000 H   0  0  0  0  0  0  0  0  0  0  0  0
    7.0917   -2.4586    0.0000 H   0  0  0  0  0  0  0  0  0  0  0  0
    7.8737   -2.8553    0.0000 H   0  0  0  0  0  0  0  0  0  0  0  0
    8.2704   -2.0734    0.0000 H   0  0  0  0  0  0  0  0  0  0  0  0
  6  1  1  6  0  0  0
  1 13  1  0  0  0  0
  2 13  2  0  0  0  0
  3  5  1  0  0  0  0
  3  8  1  0  0  0  0
  3 10  1  0  0  0  0
 11  4  1  6  0  0  0
  4 28  1  0  0  0  0
  4 29  1  0  0  0  0
  5  6  1  0  0  0  0
  5  7  1  0  0  0  0
  5 15  1  0  0  0  0
  6  9  1  0  0  0  0
  6 16  1  0  0  0  0
  7 12  1  0  0  0  0
  7 17  1  0  0  0  0
  7 18  1  0  0  0  0
  8  9  1  0  0  0  0
  8 19  1  0  0  0  0
  8 20  1  0  0  0  0
  9 21  1  0  0  0  0
  9 22  1  0  0  0  0
 10 11  1  0  0  0  0
 10 23  1  0  0  0  0
 10 24  1  0  0  0  0
 11 12  1  0  0  0  0
 11 25  1  0  0  0  0
 12 26  1  0  0  0  0
 12 27  1  0  0  0  0
 13 14  1  0  0  0  0
 14 30  1  0  0  0  0
 14 31  1  0  0  0  0
 14 32  1  0  0  0  0
M  END
> <PUBCHEM_COMPOUND_CID>
49787007

> <PUBCHEM_COMPOUND_CANONICALIZED>
1

> <PUBCHEM_CACTVS_COMPLEXITY>
232

> <PUBCHEM_CACTVS_HBOND_ACCEPTOR>
4

> <PUBCHEM_CACTVS_HBOND_DONOR>
1

> <PUBCHEM_CACTVS_ROTATABLE_BOND>
2

> <PUBCHEM_CACTVS_SUBSKEYS>
AAADceBzMAAAAAAAAAAAAAAAAAAAAWAAAAAsAAAAAAAAAFgAAAAAHgAQAAAACDzhgAYCCANABAAIAACQCAAAAAAAAAAAAIAIAAACQAIAgAAXAAAGEACQAAGQ0IEAAAAAAAAAAAAAAAAAAAAAAAAAAAAAAA==

> <PUBCHEM_IUPAC_OPENEYE_NAME>
[(1S,6S)-6-amino-1,2,3,5,6,7,8,8a-octahydroindolizin-1-yl] acetate

> <PUBCHEM_IUPAC_CAS_NAME>
acetic acid [(1S,6S)-6-amino-1,2,3,5,6,7,8,8a-octahydroindolizin-1-yl] ester

> <PUBCHEM_IUPAC_NAME>
[(1S,6S)-6-amino-1,2,3,5,6,7,8,8a-octahydroindolizin-1-yl] acetate

> <PUBCHEM_IUPAC_SYSTEMATIC_NAME>
[(1S,6S)-6-azanyl-1,2,3,5,6,7,8,8a-octahydroindolizin-1-yl] ethanoate

> <PUBCHEM_IUPAC_TRADITIONAL_NAME>
acetic acid [(1S,6S)-6-aminoindolizidin-1-yl] ester

> <PUBCHEM_IUPAC_INCHI>
InChI=1S/C10H18N2O2/c1-7(13)14-10-4-5-12-6-8(11)2-3-9(10)12/h8-10H,2-6,11H2,1H3/t8-,9?,10-/m0/s1

> <PUBCHEM_IUPAC_INCHIKEY>
YYIUHLPAZILPSG-SMILAEQMSA-N

> <PUBCHEM_XLOGP3_AA>
0

> <PUBCHEM_EXACT_MASS>
198.136828

> <PUBCHEM_MOLECULAR_FORMULA>
C10H18N2O2

> <PUBCHEM_MOLECULAR_WEIGHT>
198.26212

> <PUBCHEM_OPENEYE_CAN_SMILES>
CC(=O)OC1CCN2C1CCC(C2)N

> <PUBCHEM_OPENEYE_ISO_SMILES>
CC(=O)O[C@H]1CCN2C1CC[C@@H](C2)N

> <PUBCHEM_CACTVS_TPSA>
55.6

> <PUBCHEM_MONOISOTOPIC_WEIGHT>
198.136828

> <PUBCHEM_TOTAL_CHARGE>
0

> <PUBCHEM_HEAVY_ATOM_COUNT>
14

> <PUBCHEM_ATOM_DEF_STEREO_COUNT>
2

> <PUBCHEM_ATOM_UDEF_STEREO_COUNT>
1

> <PUBCHEM_BOND_DEF_STEREO_COUNT>
0

> <PUBCHEM_BOND_UDEF_STEREO_COUNT>
0

> <PUBCHEM_ISOTOPIC_ATOM_COUNT>
0

> <PUBCHEM_COMPONENT_COUNT>
1

> <PUBCHEM_CACTVS_TAUTO_COUNT>
1

> <PUBCHEM_COORDINATE_TYPE>
1
5
255

> <PUBCHEM_BONDANNOTATIONS>
6  1  6
11  4  6
5  7  3

$$$$

