5281266
  -OEChem-07051212552D

 70 72  0     1  0  0  0  0  0999 V2000
    7.8003   -3.5677    0.0000 O   0  0  0  0  0  0  0  0  0  0  0  0
    2.5381   -3.5918    0.0000 O   0  0  0  0  0  0  0  0  0  0  0  0
    9.5921    1.4741    0.0000 O   0  0  0  0  0  0  0  0  0  0  0  0
    7.8600    1.4808    0.0000 O   0  0  0  0  0  0  0  0  0  0  0  0
   10.4677    3.9707    0.0000 N   0  0  0  0  0  0  0  0  0  0  0  0
    5.2022   -2.0677    0.0000 C   0  0  1  0  0  0  0  0  0  0  0  0
    5.2022   -3.0677    0.0000 C   0  0  2  0  0  0  0  0  0  0  0  0
    6.0682   -1.5677    0.0000 C   0  0  2  0  0  0  0  0  0  0  0  0
    6.9343   -2.0677    0.0000 C   0  0  1  0  0  0  0  0  0  0  0  0
    4.3083   -3.6023    0.0000 C   0  0  0  0  0  0  0  0  0  0  0  0
    6.0682   -3.5677    0.0000 C   0  0  0  0  0  0  0  0  0  0  0  0
    4.3083   -1.5330    0.0000 C   0  0  0  0  0  0  0  0  0  0  0  0
    6.9343   -3.0677    0.0000 C   0  0  2  0  0  0  0  0  0  0  0  0
    3.4022   -3.0885    0.0000 C   0  0  2  0  0  0  0  0  0  0  0  0
    6.0522   -0.5262    0.0000 C   0  0  0  0  0  0  0  0  0  0  0  0
    7.8443   -1.5608    0.0000 C   0  0  2  0  0  0  0  0  0  0  0  0
    3.4022   -2.0468    0.0000 C   0  0  0  0  0  0  0  0  0  0  0  0
    5.2022   -1.0677    0.0000 C   0  0  0  0  0  0  0  0  0  0  0  0
    6.9502    0.0016    0.0000 C   0  0  0  0  0  0  0  0  0  0  0  0
    3.8183   -4.4741    0.0000 C   0  0  0  0  0  0  0  0  0  0  0  0
    4.8183   -4.4625    0.0000 C   0  0  0  0  0  0  0  0  0  0  0  0
    7.8523   -0.5192    0.0000 C   0  0  0  0  0  0  0  0  0  0  0  0
    8.7045   -2.0708    0.0000 C   0  0  0  0  0  0  0  0  0  0  0  0
    8.7202   -0.0226    0.0000 C   0  0  0  0  0  0  0  0  0  0  0  0
    8.7241    0.9774    0.0000 C   0  0  0  0  0  0  0  0  0  0  0  0
    9.5959    2.4741    0.0000 C   0  0  0  0  0  0  0  0  0  0  0  0
   10.4639    2.9707    0.0000 C   0  0  0  0  0  0  0  0  0  0  0  0
   11.3357    4.4674    0.0000 C   0  0  0  0  0  0  0  0  0  0  0  0
    9.6036    4.4741    0.0000 C   0  0  0  0  0  0  0  0  0  0  0  0
    5.2088   -3.9176    0.0000 H   0  0  0  0  0  0  0  0  0  0  0  0
    6.8011   -1.1370    0.0000 H   0  0  0  0  0  0  0  0  0  0  0  0
    7.6671   -2.4983    0.0000 H   0  0  0  0  0  0  0  0  0  0  0  0
    5.6697   -4.0426    0.0000 H   0  0  0  0  0  0  0  0  0  0  0  0
    6.4668   -4.0426    0.0000 H   0  0  0  0  0  0  0  0  0  0  0  0
    4.7129   -1.0632    0.0000 H   0  0  0  0  0  0  0  0  0  0  0  0
    3.9147   -1.0540    0.0000 H   0  0  0  0  0  0  0  0  0  0  0  0
    6.9343   -3.6877    0.0000 H   0  0  0  0  0  0  0  0  0  0  0  0
    3.4058   -3.7085    0.0000 H   0  0  0  0  0  0  0  0  0  0  0  0
    5.8342    0.0542    0.0000 H   0  0  0  0  0  0  0  0  0  0  0  0
    5.4431   -0.6417    0.0000 H   0  0  0  0  0  0  0  0  0  0  0  0
    8.3842   -1.2560    0.0000 H   0  0  0  0  0  0  0  0  0  0  0  0
    3.1932   -1.4632    0.0000 H   0  0  0  0  0  0  0  0  0  0  0  0
    2.7914   -2.1529    0.0000 H   0  0  0  0  0  0  0  0  0  0  0  0
    5.8222   -1.0677    0.0000 H   0  0  0  0  0  0  0  0  0  0  0  0
    5.2022   -0.4477    0.0000 H   0  0  0  0  0  0  0  0  0  0  0  0
    4.5822   -1.0677    0.0000 H   0  0  0  0  0  0  0  0  0  0  0  0
    7.3475    0.4776    0.0000 H   0  0  0  0  0  0  0  0  0  0  0  0
    6.5493    0.4745    0.0000 H   0  0  0  0  0  0  0  0  0  0  0  0
    3.2778   -4.1703    0.0000 H   0  0  0  0  0  0  0  0  0  0  0  0
    3.5146   -5.0146    0.0000 H   0  0  0  0  0  0  0  0  0  0  0  0
    4.3588   -4.7778    0.0000 H   0  0  0  0  0  0  0  0  0  0  0  0
    4.2850   -4.7787    0.0000 H   0  0  0  0  0  0  0  0  0  0  0  0
    5.1344   -4.9958    0.0000 H   0  0  0  0  0  0  0  0  0  0  0  0
    5.3516   -4.1463    0.0000 H   0  0  0  0  0  0  0  0  0  0  0  0
    8.3883   -2.6041    0.0000 H   0  0  0  0  0  0  0  0  0  0  0  0
    9.2378   -2.3870    0.0000 H   0  0  0  0  0  0  0  0  0  0  0  0
    9.0206   -1.5375    0.0000 H   0  0  0  0  0  0  0  0  0  0  0  0
    7.8003   -4.1877    0.0000 H   0  0  0  0  0  0  0  0  0  0  0  0
    2.0000   -3.2839    0.0000 H   0  0  0  0  0  0  0  0  0  0  0  0
    9.2560   -0.3346    0.0000 H   0  0  0  0  0  0  0  0  0  0  0  0
    9.3861    3.0575    0.0000 H   0  0  0  0  0  0  0  0  0  0  0  0
    8.9849    2.3688    0.0000 H   0  0  0  0  0  0  0  0  0  0  0  0
   10.6737    2.3873    0.0000 H   0  0  0  0  0  0  0  0  0  0  0  0
   11.0748    3.0760    0.0000 H   0  0  0  0  0  0  0  0  0  0  0  0
   11.6436    3.9293    0.0000 H   0  0  0  0  0  0  0  0  0  0  0  0
   11.8738    4.7753    0.0000 H   0  0  0  0  0  0  0  0  0  0  0  0
   11.0277    5.0055    0.0000 H   0  0  0  0  0  0  0  0  0  0  0  0
    9.9157    5.0098    0.0000 H   0  0  0  0  0  0  0  0  0  0  0  0
    9.0679    4.7861    0.0000 H   0  0  0  0  0  0  0  0  0  0  0  0
    9.2916    3.9383    0.0000 H   0  0  0  0  0  0  0  0  0  0  0  0
 13  1  1  1  0  0  0
  1 58  1  0  0  0  0
 14  2  1  1  0  0  0
  2 59  1  0  0  0  0
  3 25  1  0  0  0  0
  3 26  1  0  0  0  0
  4 25  2  0  0  0  0
  5 27  1  0  0  0  0
  5 28  1  0  0  0  0
  5 29  1  0  0  0  0
  6  7  1  0  0  0  0
  6  8  1  0  0  0  0
  6 12  1  0  0  0  0
  6 18  1  1  0  0  0
  7 10  1  0  0  0  0
  7 11  1  0  0  0  0
  7 30  1  6  0  0  0
  8  9  1  0  0  0  0
  8 15  1  0  0  0  0
  8 31  1  6  0  0  0
  9 13  1  0  0  0  0
  9 16  1  0  0  0  0
  9 32  1  1  0  0  0
 10 14  1  0  0  0  0
 10 20  1  0  0  0  0
 10 21  1  0  0  0  0
 11 13  1  0  0  0  0
 11 33  1  0  0  0  0
 11 34  1  0  0  0  0
 12 17  1  0  0  0  0
 12 35  1  0  0  0  0
 12 36  1  0  0  0  0
 13 37  1  0  0  0  0
 14 17  1  0  0  0  0
 14 38  1  0  0  0  0
 15 19  1  0  0  0  0
 15 39  1  0  0  0  0
 15 40  1  0  0  0  0
 16 22  1  0  0  0  0
 16 23  1  6  0  0  0
 16 41  1  0  0  0  0
 17 42  1  0  0  0  0
 17 43  1  0  0  0  0
 18 44  1  0  0  0  0
 18 45  1  0  0  0  0
 18 46  1  0  0  0  0
 19 22  1  0  0  0  0
 19 47  1  0  0  0  0
 19 48  1  0  0  0  0
 20 49  1  0  0  0  0
 20 50  1  0  0  0  0
 20 51  1  0  0  0  0
 21 52  1  0  0  0  0
 21 53  1  0  0  0  0
 21 54  1  0  0  0  0
 22 24  2  0  0  0  0
 23 55  1  0  0  0  0
 23 56  1  0  0  0  0
 23 57  1  0  0  0  0
 24 25  1  0  0  0  0
 24 60  1  0  0  0  0
 26 27  1  0  0  0  0
 26 61  1  0  0  0  0
 26 62  1  0  0  0  0
 27 63  1  0  0  0  0
 27 64  1  0  0  0  0
 28 65  1  0  0  0  0
 28 66  1  0  0  0  0
 28 67  1  0  0  0  0
 29 68  1  0  0  0  0
 29 69  1  0  0  0  0
 29 70  1  0  0  0  0
M  END
> <PUBCHEM_COMPOUND_CID>
5281266

> <PUBCHEM_COMPOUND_CANONICALIZED>
1

> <PUBCHEM_CACTVS_COMPLEXITY>
643

> <PUBCHEM_CACTVS_HBOND_ACCEPTOR>
5

> <PUBCHEM_CACTVS_HBOND_DONOR>
2

> <PUBCHEM_CACTVS_ROTATABLE_BOND>
5

> <PUBCHEM_CACTVS_SUBSKEYS>
AAADcfB6OAAAAAAAAAAAAAAAAAAAAAAAAAAwYMAAAAAAAADAAAAAHgAACAAADxThgAYCCAMABgCIAiDSCAAAAAAgAAAACAAIAEgCFAIAIQADUAAEgAAYIQOA4PQPgAAAAAAAAADAAAYAADAAAAAAAAAAAA==

> <PUBCHEM_IUPAC_OPENEYE_NAME>
2-(dimethylamino)ethyl (2E)-2-[(1R,4aS,4bR,7S,8aR,10S,10aS)-7,10-dihydroxy-1,4b,8,8-tetramethyl-3,4,4a,5,6,7,8a,9,10,10a-decahydro-1H-phenanthren-2-ylidene]acetate

> <PUBCHEM_IUPAC_CAS_NAME>
(2E)-2-[(1R,4aS,4bR,7S,8aR,10S,10aS)-7,10-dihydroxy-1,4b,8,8-tetramethyl-3,4,4a,5,6,7,8a,9,10,10a-decahydro-1H-phenanthren-2-ylidene]acetic acid 2-(dimethylamino)ethyl ester

> <PUBCHEM_IUPAC_NAME>
2-(dimethylamino)ethyl (2E)-2-[(1R,4aS,4bR,7S,8aR,10S,10aS)-7,10-dihydroxy-1,4b,8,8-tetramethyl-3,4,4a,5,6,7,8a,9,10,10a-decahydro-1H-phenanthren-2-ylidene]acetate

> <PUBCHEM_IUPAC_SYSTEMATIC_NAME>
2-(dimethylamino)ethyl (2E)-2-[(1R,4aS,4bR,7S,8aR,10S,10aS)-1,4b,8,8-tetramethyl-7,10-bis(oxidanyl)-3,4,4a,5,6,7,8a,9,10,10a-decahydro-1H-phenanthren-2-ylidene]ethanoate

> <PUBCHEM_IUPAC_TRADITIONAL_NAME>
(2E)-2-[(1R,4aS,4bR,7S,8aR,10S,10aS)-7,10-dihydroxy-1,4b,8,8-tetramethyl-3,4,4a,5,6,7,8a,9,10,10a-decahydro-1H-phenanthren-2-ylidene]acetic acid 2-(dimethylamino)ethyl ester

> <PUBCHEM_IUPAC_INCHI>
InChI=1S/C24H41NO4/c1-15-16(13-21(28)29-12-11-25(5)6)7-8-17-22(15)18(26)14-19-23(2,3)20(27)9-10-24(17,19)4/h13,15,17-20,22,26-27H,7-12,14H2,1-6H3/b16-13+/t15-,17-,18-,19-,20-,22-,24+/m0/s1

> <PUBCHEM_IUPAC_INCHIKEY>
JKPVSFQJGXEMSU-CHEGSHICSA-N

> <PUBCHEM_XLOGP3_AA>
3.4

> <PUBCHEM_EXACT_MASS>
407.303559

> <PUBCHEM_MOLECULAR_FORMULA>
C24H41NO4

> <PUBCHEM_MOLECULAR_WEIGHT>
407.58664

> <PUBCHEM_OPENEYE_CAN_SMILES>
CC1C2C(CCC1=CC(=O)OCCN(C)C)C3(CCC(C(C3CC2O)(C)C)O)C

> <PUBCHEM_OPENEYE_ISO_SMILES>
C[C@@H]\1[C@H]2[C@H](CC/C1=C\C(=O)OCCN(C)C)[C@]3(CC[C@@H](C([C@@H]3C[C@@H]2O)(C)C)O)C

> <PUBCHEM_CACTVS_TPSA>
70

> <PUBCHEM_MONOISOTOPIC_WEIGHT>
407.303559

> <PUBCHEM_TOTAL_CHARGE>
0

> <PUBCHEM_HEAVY_ATOM_COUNT>
29

> <PUBCHEM_ATOM_DEF_STEREO_COUNT>
7

> <PUBCHEM_ATOM_UDEF_STEREO_COUNT>
0

> <PUBCHEM_BOND_DEF_STEREO_COUNT>
1

> <PUBCHEM_BOND_UDEF_STEREO_COUNT>
0

> <PUBCHEM_ISOTOPIC_ATOM_COUNT>
0

> <PUBCHEM_COMPONENT_COUNT>
1

> <PUBCHEM_CACTVS_TAUTO_COUNT>
1

> <PUBCHEM_COORDINATE_TYPE>
1
5
255

> <PUBCHEM_BONDANNOTATIONS>
13  1  5
16  23  6
14  2  5
6  18  5
7  30  6
8  31  6
9  32  5

$$$$

