439476
  -OEChem-07051212452D

 28 28  0     0  0  0  0  0  0999 V2000
    6.3301   -1.1900    0.0000 O   0  0  0  0  0  0  0  0  0  0  0  0
    2.0000   -2.6900    0.0000 O   0  0  0  0  0  0  0  0  0  0  0  0
    7.1962    2.3100    0.0000 N   0  0  0  0  0  0  0  0  0  0  0  0
    3.7320   -2.6900    0.0000 N   0  0  0  0  0  0  0  0  0  0  0  0
    6.3301    0.8100    0.0000 C   0  0  0  0  0  0  0  0  0  0  0  0
    5.4641    0.3100    0.0000 C   0  0  0  0  0  0  0  0  0  0  0  0
    6.3301    1.8100    0.0000 C   0  0  0  0  0  0  0  0  0  0  0  0
    5.4641   -0.6900    0.0000 C   0  0  0  0  0  0  0  0  0  0  0  0
    4.5981   -1.1900    0.0000 C   0  0  0  0  0  0  0  0  0  0  0  0
    4.5981   -2.1900    0.0000 C   0  0  0  0  0  0  0  0  0  0  0  0
    3.7320   -0.6900    0.0000 C   0  0  0  0  0  0  0  0  0  0  0  0
    7.1962    3.3100    0.0000 C   0  0  0  0  0  0  0  0  0  0  0  0
    2.8660   -1.1900    0.0000 C   0  0  0  0  0  0  0  0  0  0  0  0
    2.8660   -2.1900    0.0000 C   0  0  0  0  0  0  0  0  0  0  0  0
    6.5422    0.2274    0.0000 H   0  0  0  0  0  0  0  0  0  0  0  0
    6.9407    0.9177    0.0000 H   0  0  0  0  0  0  0  0  0  0  0  0
    5.2520    0.8926    0.0000 H   0  0  0  0  0  0  0  0  0  0  0  0
    4.8535    0.2023    0.0000 H   0  0  0  0  0  0  0  0  0  0  0  0
    6.1181    2.3926    0.0000 H   0  0  0  0  0  0  0  0  0  0  0  0
    5.7196    1.7023    0.0000 H   0  0  0  0  0  0  0  0  0  0  0  0
    7.7331    2.0000    0.0000 H   0  0  0  0  0  0  0  0  0  0  0  0
    5.1350   -2.5000    0.0000 H   0  0  0  0  0  0  0  0  0  0  0  0
    3.7320   -0.0700    0.0000 H   0  0  0  0  0  0  0  0  0  0  0  0
    7.8162    3.3100    0.0000 H   0  0  0  0  0  0  0  0  0  0  0  0
    7.1962    3.9300    0.0000 H   0  0  0  0  0  0  0  0  0  0  0  0
    6.5762    3.3100    0.0000 H   0  0  0  0  0  0  0  0  0  0  0  0
    3.7320   -3.3100    0.0000 H   0  0  0  0  0  0  0  0  0  0  0  0
    2.3291   -0.8800    0.0000 H   0  0  0  0  0  0  0  0  0  0  0  0
  1  8  2  0  0  0  0
  2 14  2  0  0  0  0
  3  7  1  0  0  0  0
  3 12  1  0  0  0  0
  3 21  1  0  0  0  0
  4 10  1  0  0  0  0
  4 14  1  0  0  0  0
  4 27  1  0  0  0  0
  5  6  1  0  0  0  0
  5  7  1  0  0  0  0
  5 15  1  0  0  0  0
  5 16  1  0  0  0  0
  6  8  1  0  0  0  0
  6 17  1  0  0  0  0
  6 18  1  0  0  0  0
  7 19  1  0  0  0  0
  7 20  1  0  0  0  0
  8  9  1  0  0  0  0
  9 10  2  0  0  0  0
  9 11  1  0  0  0  0
 10 22  1  0  0  0  0
 11 13  2  0  0  0  0
 11 23  1  0  0  0  0
 12 24  1  0  0  0  0
 12 25  1  0  0  0  0
 12 26  1  0  0  0  0
 13 14  1  0  0  0  0
 13 28  1  0  0  0  0
M  END
> <PUBCHEM_COMPOUND_CID>
439476

> <PUBCHEM_COMPOUND_CANONICALIZED>
1

> <PUBCHEM_CACTVS_COMPLEXITY>
293

> <PUBCHEM_CACTVS_HBOND_ACCEPTOR>
3

> <PUBCHEM_CACTVS_HBOND_DONOR>
2

> <PUBCHEM_CACTVS_ROTATABLE_BOND>
5

> <PUBCHEM_CACTVS_SUBSKEYS>
AAADccBzMAAAAAAAAAAAAAAAAAAAAAAAAAAgAAAAAAAAAAAAAAAAHgAQAAAADATBgAQCAALAAACIAqFWUACAAAAgAAAICIEIAEgIABIAgQAEAAAAkgAIgcMUAAAAAAAAAAAAAAAAAAAAAAAAAAAAAAAAAA==

> <PUBCHEM_IUPAC_OPENEYE_NAME>
5-[4-(methylamino)butanoyl]-1H-pyridin-2-one

> <PUBCHEM_IUPAC_CAS_NAME>
5-[4-(methylamino)-1-oxobutyl]-1H-pyridin-2-one

> <PUBCHEM_IUPAC_NAME>
5-[4-(methylamino)butanoyl]-1H-pyridin-2-one

> <PUBCHEM_IUPAC_SYSTEMATIC_NAME>
5-[4-(methylamino)butanoyl]-1H-pyridin-2-one

> <PUBCHEM_IUPAC_TRADITIONAL_NAME>
5-[4-(methylamino)butanoyl]-2-pyridone

> <PUBCHEM_IUPAC_INCHI>
InChI=1S/C10H14N2O2/c1-11-6-2-3-9(13)8-4-5-10(14)12-7-8/h4-5,7,11H,2-3,6H2,1H3,(H,12,14)

> <PUBCHEM_IUPAC_INCHIKEY>
UMLOUOBDBGOHHR-UHFFFAOYSA-N

> <PUBCHEM_XLOGP3_AA>
-0.5

> <PUBCHEM_EXACT_MASS>
194.105528

> <PUBCHEM_MOLECULAR_FORMULA>
C10H14N2O2

> <PUBCHEM_MOLECULAR_WEIGHT>
194.23036

> <PUBCHEM_OPENEYE_CAN_SMILES>
CNCCCC(=O)C1=CNC(=O)C=C1

> <PUBCHEM_OPENEYE_ISO_SMILES>
CNCCCC(=O)C1=CNC(=O)C=C1

> <PUBCHEM_CACTVS_TPSA>
58.2

> <PUBCHEM_MONOISOTOPIC_WEIGHT>
194.105528

> <PUBCHEM_TOTAL_CHARGE>
0

> <PUBCHEM_HEAVY_ATOM_COUNT>
14

> <PUBCHEM_ATOM_DEF_STEREO_COUNT>
0

> <PUBCHEM_ATOM_UDEF_STEREO_COUNT>
0

> <PUBCHEM_BOND_DEF_STEREO_COUNT>
0

> <PUBCHEM_BOND_UDEF_STEREO_COUNT>
0

> <PUBCHEM_ISOTOPIC_ATOM_COUNT>
0

> <PUBCHEM_COMPONENT_COUNT>
1

> <PUBCHEM_CACTVS_TAUTO_COUNT>
9

> <PUBCHEM_COORDINATE_TYPE>
1
5
255

> <PUBCHEM_BONDANNOTATIONS>
11  13  8
13  14  8
4  10  8
4  14  8
9  10  8
9  11  8

$$$$

