   Color/Form

     * White powder
     * Off-white to fawn powder
     * Cream
     * Fine powdery solid

   from [1]HSDB

   Odor
        Odorless
   from [2]HSDB

   Melting Point
        201-205 deg C (dec)
   from [3]HSDB

   Dissociation Constants
        A very weak acid which is too lipophilic to form water-soluble
   salts.
   from [4]HSDB

   Octanol/Water Partition Coefficient
        log Kow = 8.5
   from [5]HSDB

   Solubilities

     * In acetone 20 mg/l; chloroform 3 mg/l; benzene <6 mg/l @ 20 deg C
     * Moderately soluble in ethyl acetate.
     * Insoluble in petroleum ether. Soluble in ethanol.
     * In water, 0.24 mg/l @ 20 deg C and pH 7.4

   from [6]HSDB

   Vapor Pressure
        Less than 1.33X10-7 kPa (1X10-6 mm Hg) at 25 deg C.
   from [7]HSDB

   Other Chemical/Physical Properties

     * Density: 1.42 @ 25 deg C /Technical/
     * Forms amine salts of limited solubility in water.

   from [8]HSDB

   Computed Properties
   Molecular Weight                  523.41652 [g/mol]
   Molecular Formula                 C[31]H[23]BrO[3]
   XLogP3-AA                         7.6
   H-Bond Donor                      1
   H-Bond Acceptor                   3
   Rotatable Bond Count              3
   Tautomer Count                    3
   Exact Mass                        522.083057
   MonoIsotopic Mass                 522.083057
   Topological Polar Surface Area    46.5
   Heavy Atom Count                  35
   Formal Charge                     0
   Complexity                        791
   Isotope Atom Count                0
   Defined Atom Stereocenter Count   0
   Undefined Atom Stereocenter Count 2
   Defined Bond Stereocenter Count   0
   Undefined Bond Stereocenter Count 0
   Covalently-Bonded Unit Count      1
   Feature 3D Acceptor Count         1
   Feature 3D Donor Count            1
   Feature 3D Hydrophobe Count       1
   Feature 3D Ring Count             6
   Effective Rotor Count             3.8
   Conformer Sampling RMSD           0.8
   CID Conformer Count               [9]23

References

   1. http://toxnet.nlm.nih.gov/cgi-bin/sis/search/r?dbs+hsdb:@term+@rn+@rel+56073-10-0
   2. http://toxnet.nlm.nih.gov/cgi-bin/sis/search/r?dbs+hsdb:@term+@rn+@rel+56073-10-0
   3. http://toxnet.nlm.nih.gov/cgi-bin/sis/search/r?dbs+hsdb:@term+@rn+@rel+56073-10-0
   4. http://toxnet.nlm.nih.gov/cgi-bin/sis/search/r?dbs+hsdb:@term+@rn+@rel+56073-10-0
   5. http://toxnet.nlm.nih.gov/cgi-bin/sis/search/r?dbs+hsdb:@term+@rn+@rel+56073-10-0
   6. http://toxnet.nlm.nih.gov/cgi-bin/sis/search/r?dbs+hsdb:@term+@rn+@rel+56073-10-0
   7. http://toxnet.nlm.nih.gov/cgi-bin/sis/search/r?dbs+hsdb:@term+@rn+@rel+56073-10-0
   8. http://toxnet.nlm.nih.gov/cgi-bin/sis/search/r?dbs+hsdb:@term+@rn+@rel+56073-10-0
   9. http://pubchem.ncbi.nlm.nih.gov/vw3d/vw3d.cgi?cid=54680676
