440570
  -OEChem-07051212502D

 16 16  0     1  0  0  0  0  0999 V2000
    4.5691   -1.7296    0.0000 O   0  0  0  0  0  0  0  0  0  0  0  0
    4.0778    2.0620    0.0000 O   0  0  0  0  0  0  0  0  0  0  0  0
    2.4955    1.3575    0.0000 O   0  0  0  0  0  0  0  0  0  0  0  0
    2.3090   -0.4696    0.0000 N   0  0  0  0  0  0  0  0  0  0  0  0
    2.8090   -2.0084    0.0000 N   0  0  0  0  0  0  0  0  0  0  0  0
    3.3090   -0.4696    0.0000 C   0  0  3  0  0  0  0  0  0  0  0  0
    3.8968    0.3394    0.0000 C   0  0  0  0  0  0  0  0  0  0  0  0
    3.6180   -1.4206    0.0000 C   0  0  0  0  0  0  0  0  0  0  0  0
    2.0000   -1.4206    0.0000 C   0  0  0  0  0  0  0  0  0  0  0  0
    3.4901    1.2530    0.0000 C   0  0  0  0  0  0  0  0  0  0  0  0
    3.0275    0.0829    0.0000 H   0  0  0  0  0  0  0  0  0  0  0  0
    4.3275   -0.1065    0.0000 H   0  0  0  0  0  0  0  0  0  0  0  0
    4.4108    0.6861    0.0000 H   0  0  0  0  0  0  0  0  0  0  0  0
    2.8090   -2.6284    0.0000 H   0  0  0  0  0  0  0  0  0  0  0  0
    1.4103   -1.6122    0.0000 H   0  0  0  0  0  0  0  0  0  0  0  0
    3.8257    2.6284    0.0000 H   0  0  0  0  0  0  0  0  0  0  0  0
  1  8  2  0  0  0  0
  2 10  1  0  0  0  0
  2 16  1  0  0  0  0
  3 10  2  0  0  0  0
  4  6  1  0  0  0  0
  4  9  2  0  0  0  0
  5  8  1  0  0  0  0
  5  9  1  0  0  0  0
  5 14  1  0  0  0  0
  6  7  1  0  0  0  0
  6  8  1  0  0  0  0
  6 11  1  0  0  0  0
  7 10  1  0  0  0  0
  7 12  1  0  0  0  0
  7 13  1  0  0  0  0
  9 15  1  0  0  0  0
M  END
> <PUBCHEM_COMPOUND_CID>
440570

> <PUBCHEM_COMPOUND_CANONICALIZED>
1

> <PUBCHEM_CACTVS_COMPLEXITY>
199

> <PUBCHEM_CACTVS_HBOND_ACCEPTOR>
4

> <PUBCHEM_CACTVS_HBOND_DONOR>
2

> <PUBCHEM_CACTVS_ROTATABLE_BOND>
2

> <PUBCHEM_CACTVS_SUBSKEYS>
AAADcYBjMAAAAAAAAAAAAAAAAAAAAQAAAAAAAAAAAAAAAAAAAAAAHgAQCAAACCjBgAQBCALAAgAoAAGRPAAAAAEAAAABAIGIAAAAQBgAiAAUQAAGEgAAAAAnAAAAAAAAAAAAAAAAAAAAAAAAAAAAAAAAAA==

> <PUBCHEM_IUPAC_OPENEYE_NAME>
2-(5-oxo-1,4-dihydroimidazol-4-yl)acetic acid

> <PUBCHEM_IUPAC_CAS_NAME>
2-(5-oxo-1,4-dihydroimidazol-4-yl)acetic acid

> <PUBCHEM_IUPAC_NAME>
2-(5-oxo-1,4-dihydroimidazol-4-yl)acetic acid

> <PUBCHEM_IUPAC_SYSTEMATIC_NAME>
2-(5-oxidanylidene-1,4-dihydroimidazol-4-yl)ethanoic acid

> <PUBCHEM_IUPAC_TRADITIONAL_NAME>
2-(5-keto-2-imidazolin-4-yl)acetic acid

> <PUBCHEM_IUPAC_INCHI>
InChI=1S/C5H6N2O3/c8-4(9)1-3-5(10)7-2-6-3/h2-3H,1H2,(H,8,9)(H,6,7,10)

> <PUBCHEM_IUPAC_INCHIKEY>
HSZJBFGOEAJYFT-UHFFFAOYSA-N

> <PUBCHEM_XLOGP3_AA>
-1.3

> <PUBCHEM_EXACT_MASS>
142.037842

> <PUBCHEM_MOLECULAR_FORMULA>
C5H6N2O3

> <PUBCHEM_MOLECULAR_WEIGHT>
142.11274

> <PUBCHEM_OPENEYE_CAN_SMILES>
C1=NC(C(=O)N1)CC(=O)O

> <PUBCHEM_OPENEYE_ISO_SMILES>
C1=NC(C(=O)N1)CC(=O)O

> <PUBCHEM_CACTVS_TPSA>
78.8

> <PUBCHEM_MONOISOTOPIC_WEIGHT>
142.037842

> <PUBCHEM_TOTAL_CHARGE>
0

> <PUBCHEM_HEAVY_ATOM_COUNT>
10

> <PUBCHEM_ATOM_DEF_STEREO_COUNT>
0

> <PUBCHEM_ATOM_UDEF_STEREO_COUNT>
1

> <PUBCHEM_BOND_DEF_STEREO_COUNT>
0

> <PUBCHEM_BOND_UDEF_STEREO_COUNT>
0

> <PUBCHEM_ISOTOPIC_ATOM_COUNT>
0

> <PUBCHEM_COMPONENT_COUNT>
1

> <PUBCHEM_CACTVS_TAUTO_COUNT>
5

> <PUBCHEM_COORDINATE_TYPE>
1
5
255

> <PUBCHEM_BONDANNOTATIONS>
6  7  3

$$$$

