   Color/Form
        COLORLESS OILY LIQUID
   from [1]HSDB

   Odor

     * PUNGENT ODOR
     * FAINT AROMATIC ODOR

   from [2]HSDB

   Boiling Point
        205 DEG C
   from [3]HSDB

   Melting Point
        -16.4 DEG C
   from [4]HSDB

   Density/Specific Gravity
        1.26
   from [5]HSDB

   Heat of Vaporization
        11,075.9 G CAL/G MOLE
   from [6]HSDB

   Octanol/Water Partition Coefficient
        log Kow= 3.217 (calculated)
   from [7]HSDB

   Solubilities

     * INSOL IN WATER
     * SOL IN DILUTE ALKALI
     * > 10% in ethanol
     * > 10% in ether
     * Soluble in most org solvents.

   from [8]HSDB

   Spectral Properties

     * INDEX OF REFRACTION: 1.5502 AT 20 DEG C
     * MASS: 597 (National Bureau of Standards EPA-NIH Mass Spectra Data
       Base, NSRDS-NBS-63)
     * Very refractive liquid
     * Max absorption: 260, 265, 272 nm (in cyclohexane)
     * IR: 2489 (Sadtler Research Laboratories Prism Collection)
     * UV: 657 (Sadtler Research Laboratories Spectral Collection)
     * NMR: 685 (Sadtler Research Laboratories Spectral Collection)
     * MASS: 1002 (Atlas of Mass Spectral Data, John Wiley & Sons, New
       York)

   from [9]HSDB

   Surface Tension
        20.20 mN/m at 203.5 deg C
   from [10]HSDB

   Vapor Pressure
        1 MM HG AT 35.4 DEG C
   from [11]HSDB

   Other Chemical/Physical Properties

     * Undergoes reactions both at the sidechain containing the chlorines
       & at the aromatic ring; conversion factor: 1 ppm= 0.152 mg/cu m.
     * Dipole moment: 6.9x10-30 coulomb m (in dilute soln)

   from [12]HSDB

   Computed Properties
   Molecular Weight                  161.02854 [g/mol]
   Molecular Formula                 C[7]H[6]Cl[2]
   XLogP3                            3
   H-Bond Donor                      0
   H-Bond Acceptor                   0
   Rotatable Bond Count              1
   Exact Mass                        159.984656
   MonoIsotopic Mass                 159.984656
   Topological Polar Surface Area    0
   Heavy Atom Count                  9
   Formal Charge                     0
   Complexity                        75
   Isotope Atom Count                0
   Defined Atom Stereocenter Count   0
   Undefined Atom Stereocenter Count 0
   Defined Bond Stereocenter Count   0
   Undefined Bond Stereocenter Count 0
   Covalently-Bonded Unit Count      1
   Feature 3D Ring Count             1
   Effective Rotor Count             1
   Conformer Sampling RMSD           0.4
   CID Conformer Count               [13]3

References

   1. http://toxnet.nlm.nih.gov/cgi-bin/sis/search/r?dbs+hsdb:@term+@rn+@rel+98-87-3
   2. http://toxnet.nlm.nih.gov/cgi-bin/sis/search/r?dbs+hsdb:@term+@rn+@rel+98-87-3
   3. http://toxnet.nlm.nih.gov/cgi-bin/sis/search/r?dbs+hsdb:@term+@rn+@rel+98-87-3
   4. http://toxnet.nlm.nih.gov/cgi-bin/sis/search/r?dbs+hsdb:@term+@rn+@rel+98-87-3
   5. http://toxnet.nlm.nih.gov/cgi-bin/sis/search/r?dbs+hsdb:@term+@rn+@rel+98-87-3
   6. http://toxnet.nlm.nih.gov/cgi-bin/sis/search/r?dbs+hsdb:@term+@rn+@rel+98-87-3
   7. http://toxnet.nlm.nih.gov/cgi-bin/sis/search/r?dbs+hsdb:@term+@rn+@rel+98-87-3
   8. http://toxnet.nlm.nih.gov/cgi-bin/sis/search/r?dbs+hsdb:@term+@rn+@rel+98-87-3
   9. http://toxnet.nlm.nih.gov/cgi-bin/sis/search/r?dbs+hsdb:@term+@rn+@rel+98-87-3
  10. http://toxnet.nlm.nih.gov/cgi-bin/sis/search/r?dbs+hsdb:@term+@rn+@rel+98-87-3
  11. http://toxnet.nlm.nih.gov/cgi-bin/sis/search/r?dbs+hsdb:@term+@rn+@rel+98-87-3
  12. http://toxnet.nlm.nih.gov/cgi-bin/sis/search/r?dbs+hsdb:@term+@rn+@rel+98-87-3
  13. http://pubchem.ncbi.nlm.nih.gov/vw3d/vw3d.cgi?cid=7411
