11954108
  -OEChem-07051213062D

 55 58  0     1  0  0  0  0  0999 V2000
    7.9821    3.0489    0.0000 O   0  0  0  0  0  0  0  0  0  0  0  0
    2.0000   -2.0030    0.0000 O   0  0  0  0  0  0  0  0  0  0  0  0
    3.8076   -2.0489    0.0000 N   0  0  0  0  0  0  0  0  0  0  0  0
    7.3931    1.0493    0.0000 C   0  0  1  0  0  0  0  0  0  0  0  0
    7.3931    0.0493    0.0000 C   0  0  2  0  0  0  0  0  0  0  0  0
    6.5271   -0.4507    0.0000 C   0  0  1  0  0  0  0  0  0  0  0  0
    5.6610    0.0493    0.0000 C   0  0  1  0  0  0  0  0  0  0  0  0
    8.3393    1.3540    0.0000 C   0  0  2  0  0  0  0  0  0  0  0  0
    6.5271    1.5493    0.0000 C   0  0  0  0  0  0  0  0  0  0  0  0
    4.7510   -0.4575    0.0000 C   0  0  2  0  0  0  0  0  0  0  0  0
    5.6610    1.0493    0.0000 C   0  0  0  0  0  0  0  0  0  0  0  0
    8.3393   -0.2554    0.0000 C   0  0  0  0  0  0  0  0  0  0  0  0
    8.9229    0.5493    0.0000 C   0  0  0  0  0  0  0  0  0  0  0  0
    6.5431   -1.4922    0.0000 C   0  0  0  0  0  0  0  0  0  0  0  0
    7.3931    2.0493    0.0000 C   0  0  0  0  0  0  0  0  0  0  0  0
    4.7430   -1.4991    0.0000 C   0  0  0  0  0  0  0  0  0  0  0  0
    3.8242    0.1065    0.0000 C   0  0  0  0  0  0  0  0  0  0  0  0
    5.6451   -2.0200    0.0000 C   0  0  0  0  0  0  0  0  0  0  0  0
    4.7587    0.5424    0.0000 C   0  0  0  0  0  0  0  0  0  0  0  0
    8.6500    2.3046    0.0000 C   0  0  0  0  0  0  0  0  0  0  0  0
    2.8763   -0.4214    0.0000 C   0  0  0  0  0  0  0  0  0  0  0  0
    2.8680   -1.5064    0.0000 C   0  0  0  0  0  0  0  0  0  0  0  0
    9.6285    2.5108    0.0000 C   0  0  0  0  0  0  0  0  0  0  0  0
    3.8114   -3.0489    0.0000 C   0  0  0  0  0  0  0  0  0  0  0  0
    7.4830   -0.7959    0.0000 H   0  0  0  0  0  0  0  0  0  0  0  0
    7.2664   -0.8700    0.0000 H   0  0  0  0  0  0  0  0  0  0  0  0
    6.3972    0.4743    0.0000 H   0  0  0  0  0  0  0  0  0  0  0  0
    7.9018    1.7934    0.0000 H   0  0  0  0  0  0  0  0  0  0  0  0
    6.9256    2.0242    0.0000 H   0  0  0  0  0  0  0  0  0  0  0  0
    6.1285    2.0242    0.0000 H   0  0  0  0  0  0  0  0  0  0  0  0
    5.4490    1.6319    0.0000 H   0  0  0  0  0  0  0  0  0  0  0  0
    5.0504    0.9416    0.0000 H   0  0  0  0  0  0  0  0  0  0  0  0
    8.0883   -0.8223    0.0000 H   0  0  0  0  0  0  0  0  0  0  0  0
    8.8767   -0.5647    0.0000 H   0  0  0  0  0  0  0  0  0  0  0  0
    9.3838    0.1346    0.0000 H   0  0  0  0  0  0  0  0  0  0  0  0
    9.3838    0.9640    0.0000 H   0  0  0  0  0  0  0  0  0  0  0  0
    6.7612   -2.0726    0.0000 H   0  0  0  0  0  0  0  0  0  0  0  0
    7.1523   -1.3767    0.0000 H   0  0  0  0  0  0  0  0  0  0  0  0
    8.0131    2.0493    0.0000 H   0  0  0  0  0  0  0  0  0  0  0  0
    7.3931    2.6693    0.0000 H   0  0  0  0  0  0  0  0  0  0  0  0
    6.7731    2.0493    0.0000 H   0  0  0  0  0  0  0  0  0  0  0  0
    4.2324    0.5732    0.0000 H   0  0  0  0  0  0  0  0  0  0  0  0
    3.4343    0.5886    0.0000 H   0  0  0  0  0  0  0  0  0  0  0  0
    5.6475   -2.6399    0.0000 H   0  0  0  0  0  0  0  0  0  0  0  0
    5.3787    0.5376    0.0000 H   0  0  0  0  0  0  0  0  0  0  0  0
    4.7635    1.1624    0.0000 H   0  0  0  0  0  0  0  0  0  0  0  0
    4.1388    0.5472    0.0000 H   0  0  0  0  0  0  0  0  0  0  0  0
    2.6718    0.1639    0.0000 H   0  0  0  0  0  0  0  0  0  0  0  0
    2.2647   -0.5228    0.0000 H   0  0  0  0  0  0  0  0  0  0  0  0
    9.7563    1.9041    0.0000 H   0  0  0  0  0  0  0  0  0  0  0  0
   10.2351    2.6386    0.0000 H   0  0  0  0  0  0  0  0  0  0  0  0
    9.5006    3.1174    0.0000 H   0  0  0  0  0  0  0  0  0  0  0  0
    3.1914   -3.0512    0.0000 H   0  0  0  0  0  0  0  0  0  0  0  0
    3.8138   -3.6688    0.0000 H   0  0  0  0  0  0  0  0  0  0  0  0
    4.4314   -3.0465    0.0000 H   0  0  0  0  0  0  0  0  0  0  0  0
  1 20  2  0  0  0  0
  2 22  2  0  0  0  0
  3 16  1  0  0  0  0
  3 22  1  0  0  0  0
  3 24  1  0  0  0  0
  4  5  1  0  0  0  0
  4  8  1  0  0  0  0
  4  9  1  0  0  0  0
  4 15  1  1  0  0  0
  5  6  1  0  0  0  0
  5 12  1  0  0  0  0
  5 25  1  6  0  0  0
  6  7  1  0  0  0  0
  6 14  1  0  0  0  0
  6 26  1  1  0  0  0
  7 10  1  0  0  0  0
  7 11  1  0  0  0  0
  7 27  1  6  0  0  0
  8 13  1  0  0  0  0
  8 20  1  1  0  0  0
  8 28  1  0  0  0  0
  9 11  1  0  0  0  0
  9 29  1  0  0  0  0
  9 30  1  0  0  0  0
 10 16  1  0  0  0  0
 10 17  1  0  0  0  0
 10 19  1  1  0  0  0
 11 31  1  0  0  0  0
 11 32  1  0  0  0  0
 12 13  1  0  0  0  0
 12 33  1  0  0  0  0
 12 34  1  0  0  0  0
 13 35  1  0  0  0  0
 13 36  1  0  0  0  0
 14 18  1  0  0  0  0
 14 37  1  0  0  0  0
 14 38  1  0  0  0  0
 15 39  1  0  0  0  0
 15 40  1  0  0  0  0
 15 41  1  0  0  0  0
 16 18  2  0  0  0  0
 17 21  1  0  0  0  0
 17 42  1  0  0  0  0
 17 43  1  0  0  0  0
 18 44  1  0  0  0  0
 19 45  1  0  0  0  0
 19 46  1  0  0  0  0
 19 47  1  0  0  0  0
 20 23  1  0  0  0  0
 21 22  1  0  0  0  0
 21 48  1  0  0  0  0
 21 49  1  0  0  0  0
 23 50  1  0  0  0  0
 23 51  1  0  0  0  0
 23 52  1  0  0  0  0
 24 53  1  0  0  0  0
 24 54  1  0  0  0  0
 24 55  1  0  0  0  0
M  END
> <PUBCHEM_COMPOUND_CID>
11954108

> <PUBCHEM_COMPOUND_CANONICALIZED>
1

> <PUBCHEM_CACTVS_COMPLEXITY>
623

> <PUBCHEM_CACTVS_HBOND_ACCEPTOR>
2

> <PUBCHEM_CACTVS_HBOND_DONOR>
0

> <PUBCHEM_CACTVS_ROTATABLE_BOND>
1

> <PUBCHEM_CACTVS_SUBSKEYS>
AAADceB6MAAAAAAAAAAAAAAAAAAAAYAAAAA8QIAAAAAAAGCAAAAAHgAAAAAADwyBgAQCAAMAAACIAKVSUAAAAAAgAgAACAEIAAgAABIAgAAEAAAAhgCIAAMYicCPgAAAAAAAAACAAAQAACAAAQAACAAAAA==

> <PUBCHEM_IUPAC_OPENEYE_NAME>
(1S,3aS,3bS,9aR,9bS,11aS)-1-acetyl-6,9a,11a-trimethyl-2,3,3a,3b,4,8,9,9b,10,11-decahydro-1H-indeno[5,4-f]quinolin-7-one

> <PUBCHEM_IUPAC_CAS_NAME>
(1S,3aS,3bS,9aR,9bS,11aS)-1-acetyl-6,9a,11a-trimethyl-2,3,3a,3b,4,8,9,9b,10,11-decahydro-1H-indeno[5,4-f]quinolin-7-one

> <PUBCHEM_IUPAC_NAME>
(1S,3aS,3bS,9aR,9bS,11aS)-1-acetyl-6,9a,11a-trimethyl-2,3,3a,3b,4,8,9,9b,10,11-decahydro-1H-indeno[5,4-f]quinolin-7-one

> <PUBCHEM_IUPAC_SYSTEMATIC_NAME>
(1S,3aS,3bS,9aR,9bS,11aS)-1-ethanoyl-6,9a,11a-trimethyl-2,3,3a,3b,4,8,9,9b,10,11-decahydro-1H-indeno[5,4-f]quinolin-7-one

> <PUBCHEM_IUPAC_TRADITIONAL_NAME>
(1S,3aS,3bS,9aR,9bS,11aS)-1-acetyl-6,9a,11a-trimethyl-2,3,3a,3b,4,8,9,9b,10,11-decahydro-1H-indeno[5,4-f]quinolin-7-one

> <PUBCHEM_IUPAC_INCHI>
InChI=1S/C21H31NO2/c1-13(23)15-6-7-16-14-5-8-18-21(3,12-10-19(24)22(18)4)17(14)9-11-20(15,16)2/h8,14-17H,5-7,9-12H2,1-4H3/t14-,15+,16-,17-,20+,21+/m0/s1

> <PUBCHEM_IUPAC_INCHIKEY>
HQWPPVLSHLFTDY-HGUQNLGYSA-N

> <PUBCHEM_XLOGP3_AA>
3.5

> <PUBCHEM_EXACT_MASS>
329.235479

> <PUBCHEM_MOLECULAR_FORMULA>
C21H31NO2

> <PUBCHEM_MOLECULAR_WEIGHT>
329.47634

> <PUBCHEM_OPENEYE_CAN_SMILES>
CC(=O)C1CCC2C1(CCC3C2CC=C4C3(CCC(=O)N4C)C)C

> <PUBCHEM_OPENEYE_ISO_SMILES>
CC(=O)[C@H]1CC[C@@H]2[C@@]1(CC[C@H]3[C@H]2CC=C4[C@@]3(CCC(=O)N4C)C)C

> <PUBCHEM_CACTVS_TPSA>
37.4

> <PUBCHEM_MONOISOTOPIC_WEIGHT>
329.235479

> <PUBCHEM_TOTAL_CHARGE>
0

> <PUBCHEM_HEAVY_ATOM_COUNT>
24

> <PUBCHEM_ATOM_DEF_STEREO_COUNT>
6

> <PUBCHEM_ATOM_UDEF_STEREO_COUNT>
0

> <PUBCHEM_BOND_DEF_STEREO_COUNT>
0

> <PUBCHEM_BOND_UDEF_STEREO_COUNT>
0

> <PUBCHEM_ISOTOPIC_ATOM_COUNT>
0

> <PUBCHEM_COMPONENT_COUNT>
1

> <PUBCHEM_CACTVS_TAUTO_COUNT>
6

> <PUBCHEM_COORDINATE_TYPE>
1
5
255

> <PUBCHEM_BONDANNOTATIONS>
10  19  5
4  15  5
5  25  6
6  26  5
7  27  6
8  20  5

$$$$

