7846976
  -OEChem-06241222482D

 47 50  0     0  0  0  0  0  0999 V2000
    4.9718   -3.2241    0.0000 S   0  0  0  0  0  0  0  0  0  0  0  0
    7.6730    4.2646    0.0000 O   0  0  0  0  0  0  0  0  0  0  0  0
    6.8069    0.7646    0.0000 O   0  0  0  0  0  0  0  0  0  0  0  0
    5.9409    4.2646    0.0000 O   0  0  0  0  0  0  0  0  0  0  0  0
    7.6730   -0.7354    0.0000 O   0  0  0  0  0  0  0  0  0  0  0  0
    4.1671   -1.8302    0.0000 N   0  0  0  0  0  0  0  0  0  0  0  0
    8.5390    2.7646    0.0000 C   0  0  0  0  0  0  0  0  0  0  0  0
    7.6730    2.2646    0.0000 C   0  0  0  0  0  0  0  0  0  0  0  0
    8.5390    3.7646    0.0000 C   0  0  0  0  0  0  0  0  0  0  0  0
   10.3390    2.7438    0.0000 C   0  0  0  0  0  0  0  0  0  0  0  0
   10.3390    3.7855    0.0000 C   0  0  0  0  0  0  0  0  0  0  0  0
    9.4329    2.2300    0.0000 C   0  0  0  0  0  0  0  0  0  0  0  0
    7.6730    1.2646    0.0000 C   0  0  0  0  0  0  0  0  0  0  0  0
    9.4329    4.2993    0.0000 C   0  0  0  0  0  0  0  0  0  0  0  0
    5.9409   -1.7354    0.0000 C   0  0  0  0  0  0  0  0  0  0  0  0
    5.9409   -0.7354    0.0000 C   0  0  0  0  0  0  0  0  0  0  0  0
    6.8069    2.7646    0.0000 C   0  0  0  0  0  0  0  0  0  0  0  0
    5.0749   -2.2354    0.0000 C   0  0  0  0  0  0  0  0  0  0  0  0
   11.2031    2.2405    0.0000 C   0  0  0  0  0  0  0  0  0  0  0  0
   11.2031    4.2888    0.0000 C   0  0  0  0  0  0  0  0  0  0  0  0
    6.8069    3.7646    0.0000 C   0  0  0  0  0  0  0  0  0  0  0  0
    6.8069   -0.2354    0.0000 C   0  0  0  0  0  0  0  0  0  0  0  0
    4.0000   -3.4333    0.0000 C   0  0  0  0  0  0  0  0  0  0  0  0
    3.5000   -2.5673    0.0000 C   0  0  0  0  0  0  0  0  0  0  0  0
    3.5000   -4.2993    0.0000 C   0  0  0  0  0  0  0  0  0  0  0  0
    2.5000   -2.5673    0.0000 C   0  0  0  0  0  0  0  0  0  0  0  0
    2.5000   -4.2993    0.0000 C   0  0  0  0  0  0  0  0  0  0  0  0
    2.0000   -3.4333    0.0000 C   0  0  0  0  0  0  0  0  0  0  0  0
    9.4258    1.6100    0.0000 H   0  0  0  0  0  0  0  0  0  0  0  0
    7.8850    0.6820    0.0000 H   0  0  0  0  0  0  0  0  0  0  0  0
    8.2835    1.3723    0.0000 H   0  0  0  0  0  0  0  0  0  0  0  0
    9.4258    4.9193    0.0000 H   0  0  0  0  0  0  0  0  0  0  0  0
    6.1530   -2.3180    0.0000 H   0  0  0  0  0  0  0  0  0  0  0  0
    6.5515   -1.6277    0.0000 H   0  0  0  0  0  0  0  0  0  0  0  0
    5.7288   -0.1527    0.0000 H   0  0  0  0  0  0  0  0  0  0  0  0
    5.3303   -0.8430    0.0000 H   0  0  0  0  0  0  0  0  0  0  0  0
    6.2700    2.4546    0.0000 H   0  0  0  0  0  0  0  0  0  0  0  0
   10.8910    1.7048    0.0000 H   0  0  0  0  0  0  0  0  0  0  0  0
   11.7388    1.9284    0.0000 H   0  0  0  0  0  0  0  0  0  0  0  0
   11.5151    2.7762    0.0000 H   0  0  0  0  0  0  0  0  0  0  0  0
   11.5151    3.7531    0.0000 H   0  0  0  0  0  0  0  0  0  0  0  0
   11.7388    4.6009    0.0000 H   0  0  0  0  0  0  0  0  0  0  0  0
   10.8910    4.8245    0.0000 H   0  0  0  0  0  0  0  0  0  0  0  0
    3.8100   -4.8362    0.0000 H   0  0  0  0  0  0  0  0  0  0  0  0
    2.1900   -2.0303    0.0000 H   0  0  0  0  0  0  0  0  0  0  0  0
    2.1900   -4.8362    0.0000 H   0  0  0  0  0  0  0  0  0  0  0  0
    1.3800   -3.4333    0.0000 H   0  0  0  0  0  0  0  0  0  0  0  0
  1 18  1  0  0  0  0
  1 23  1  0  0  0  0
  2  9  1  0  0  0  0
  2 21  1  0  0  0  0
  3 13  1  0  0  0  0
  3 22  1  0  0  0  0
  4 21  2  0  0  0  0
  5 22  2  0  0  0  0
  6 18  2  0  0  0  0
  6 24  1  0  0  0  0
  7  8  1  0  0  0  0
  7  9  2  0  0  0  0
  7 12  1  0  0  0  0
  8 13  1  0  0  0  0
  8 17  2  0  0  0  0
  9 14  1  0  0  0  0
 10 11  1  0  0  0  0
 10 12  2  0  0  0  0
 10 19  1  0  0  0  0
 11 14  2  0  0  0  0
 11 20  1  0  0  0  0
 12 29  1  0  0  0  0
 13 30  1  0  0  0  0
 13 31  1  0  0  0  0
 14 32  1  0  0  0  0
 15 16  1  0  0  0  0
 15 18  1  0  0  0  0
 15 33  1  0  0  0  0
 15 34  1  0  0  0  0
 16 22  1  0  0  0  0
 16 35  1  0  0  0  0
 16 36  1  0  0  0  0
 17 21  1  0  0  0  0
 17 37  1  0  0  0  0
 19 38  1  0  0  0  0
 19 39  1  0  0  0  0
 19 40  1  0  0  0  0
 20 41  1  0  0  0  0
 20 42  1  0  0  0  0
 20 43  1  0  0  0  0
 23 24  1  0  0  0  0
 23 25  2  0  0  0  0
 24 26  2  0  0  0  0
 25 27  1  0  0  0  0
 25 44  1  0  0  0  0
 26 28  1  0  0  0  0
 26 45  1  0  0  0  0
 27 28  2  0  0  0  0
 27 46  1  0  0  0  0
 28 47  1  0  0  0  0
M  END
> <PUBCHEM_COMPOUND_CID>
7846976

> <PUBCHEM_COMPOUND_CANONICALIZED>
1

> <PUBCHEM_CACTVS_COMPLEXITY>
636

> <PUBCHEM_CACTVS_HBOND_ACCEPTOR>
6

> <PUBCHEM_CACTVS_HBOND_DONOR>
0

> <PUBCHEM_CACTVS_ROTATABLE_BOND>
6

> <PUBCHEM_CACTVS_SUBSKEYS>
AAADceB6OABAAAAAAAAAAAAAAAAAAWAAAAAwYIAAAAAAAFiB9AAAHgQAAAAADAyh3gIyz7IIFAisAyTyTACD+KBhKjhImD02bNgMJrLksZuGOijkwBHo6Qf0wPAO4AADAAAYAQDAAAYAADACAAAAAAAAAA==

> <PUBCHEM_IUPAC_OPENEYE_NAME>
(6,7-dimethyl-2-oxo-chromen-4-yl)methyl 3-(1,3-benzothiazol-2-yl)propanoate

> <PUBCHEM_IUPAC_CAS_NAME>
3-(1,3-benzothiazol-2-yl)propanoic acid (6,7-dimethyl-2-oxo-1-benzopyran-4-yl)methyl ester

> <PUBCHEM_IUPAC_NAME>
(6,7-dimethyl-2-oxochromen-4-yl)methyl 3-(1,3-benzothiazol-2-yl)propanoate

> <PUBCHEM_IUPAC_SYSTEMATIC_NAME>
(6,7-dimethyl-2-oxidanylidene-chromen-4-yl)methyl 3-(1,3-benzothiazol-2-yl)propanoate

> <PUBCHEM_IUPAC_TRADITIONAL_NAME>
3-(1,3-benzothiazol-2-yl)propionic acid (2-keto-6,7-dimethyl-chromen-4-yl)methyl ester

> <PUBCHEM_IUPAC_INCHI>
InChI=1S/C22H19NO4S/c1-13-9-16-15(11-22(25)27-18(16)10-14(13)2)12-26-21(24)8-7-20-23-17-5-3-4-6-19(17)28-20/h3-6,9-11H,7-8,12H2,1-2H3

> <PUBCHEM_IUPAC_INCHIKEY>
LHWDELDAXULKKF-UHFFFAOYSA-N

> <PUBCHEM_XLOGP3_AA>
4.3

> <PUBCHEM_EXACT_MASS>
393.103479

> <PUBCHEM_MOLECULAR_FORMULA>
C22H19NO4S

> <PUBCHEM_MOLECULAR_WEIGHT>
393.45556

> <PUBCHEM_OPENEYE_CAN_SMILES>
CC1=C(C=C2C(=C1)C(=CC(=O)O2)COC(=O)CCC3=NC4=CC=CC=C4S3)C

> <PUBCHEM_OPENEYE_ISO_SMILES>
CC1=C(C=C2C(=C1)C(=CC(=O)O2)COC(=O)CCC3=NC4=CC=CC=C4S3)C

> <PUBCHEM_CACTVS_TPSA>
93.7

> <PUBCHEM_MONOISOTOPIC_WEIGHT>
393.103479

> <PUBCHEM_TOTAL_CHARGE>
0

> <PUBCHEM_HEAVY_ATOM_COUNT>
28

> <PUBCHEM_ATOM_DEF_STEREO_COUNT>
0

> <PUBCHEM_ATOM_UDEF_STEREO_COUNT>
0

> <PUBCHEM_BOND_DEF_STEREO_COUNT>
0

> <PUBCHEM_BOND_UDEF_STEREO_COUNT>
0

> <PUBCHEM_ISOTOPIC_ATOM_COUNT>
0

> <PUBCHEM_COMPONENT_COUNT>
1

> <PUBCHEM_CACTVS_TAUTO_COUNT>
2

> <PUBCHEM_COORDINATE_TYPE>
1
5
255

> <PUBCHEM_BONDANNOTATIONS>
1  18  8
1  23  8
10  11  8
10  12  8
11  14  8
17  21  8
2  21  8
2  9  8
23  24  8
23  25  8
24  26  8
25  27  8
26  28  8
27  28  8
6  18  8
6  24  8
7  12  8
7  8  8
7  9  8
8  17  8
9  14  8

$$$$

