12863
  -OEChem-06261207282D

 32 33  0     0  0  0  0  0  0999 V2000
    4.4694   -2.1316    0.0000 O   0  0  0  0  0  0  0  0  0  0  0  0
    6.5385    0.7162    0.0000 O   0  0  0  0  0  0  0  0  0  0  0  0
    3.4913    1.5964    0.0000 O   0  0  0  0  0  0  0  0  0  0  0  0
    4.7784    0.4374    0.0000 N   0  0  0  0  0  0  0  0  0  0  0  0
    5.7295   -0.8716    0.0000 N   0  0  0  0  0  0  0  0  0  0  0  0
    4.1906   -0.3716    0.0000 C   0  0  0  0  0  0  0  0  0  0  0  0
    3.7568   -1.2725    0.0000 C   0  0  0  0  0  0  0  0  0  0  0  0
    3.7568    0.5294    0.0000 C   0  0  0  0  0  0  0  0  0  0  0  0
    2.7818   -1.4951    0.0000 C   0  0  0  0  0  0  0  0  0  0  0  0
    2.7818    0.7519    0.0000 C   0  0  0  0  0  0  0  0  0  0  0  0
    2.0000   -0.8716    0.0000 C   0  0  0  0  0  0  0  0  0  0  0  0
    2.0000    0.1284    0.0000 C   0  0  0  0  0  0  0  0  0  0  0  0
    4.7784   -1.1806    0.0000 C   0  0  0  0  0  0  0  0  0  0  0  0
    5.7295    0.1284    0.0000 C   0  0  0  0  0  0  0  0  0  0  0  0
    4.4694    1.3885    0.0000 C   0  0  0  0  0  0  0  0  0  0  0  0
    5.1385    2.1316    0.0000 C   0  0  0  0  0  0  0  0  0  0  0  0
    3.7568   -1.8925    0.0000 H   0  0  0  0  0  0  0  0  0  0  0  0
    4.3612   -1.4105    0.0000 H   0  0  0  0  0  0  0  0  0  0  0  0
    4.3612    0.6674    0.0000 H   0  0  0  0  0  0  0  0  0  0  0  0
    3.7568    1.1494    0.0000 H   0  0  0  0  0  0  0  0  0  0  0  0
    2.2971   -1.8816    0.0000 H   0  0  0  0  0  0  0  0  0  0  0  0
    3.0508   -2.0537    0.0000 H   0  0  0  0  0  0  0  0  0  0  0  0
    3.0508    1.3105    0.0000 H   0  0  0  0  0  0  0  0  0  0  0  0
    2.2971    1.1385    0.0000 H   0  0  0  0  0  0  0  0  0  0  0  0
    1.3955   -0.7336    0.0000 H   0  0  0  0  0  0  0  0  0  0  0  0
    1.7310   -1.4302    0.0000 H   0  0  0  0  0  0  0  0  0  0  0  0
    1.7310    0.6870    0.0000 H   0  0  0  0  0  0  0  0  0  0  0  0
    1.3955   -0.0095    0.0000 H   0  0  0  0  0  0  0  0  0  0  0  0
    6.2311   -1.2360    0.0000 H   0  0  0  0  0  0  0  0  0  0  0  0
    5.5993    1.7168    0.0000 H   0  0  0  0  0  0  0  0  0  0  0  0
    5.5534    2.5924    0.0000 H   0  0  0  0  0  0  0  0  0  0  0  0
    4.6778    2.5465    0.0000 H   0  0  0  0  0  0  0  0  0  0  0  0
  1 13  2  0  0  0  0
  2 14  2  0  0  0  0
  3 15  2  0  0  0  0
  4  6  1  0  0  0  0
  4 14  1  0  0  0  0
  4 15  1  0  0  0  0
  5 13  1  0  0  0  0
  5 14  1  0  0  0  0
  5 29  1  0  0  0  0
  6  7  1  0  0  0  0
  6  8  1  0  0  0  0
  6 13  1  0  0  0  0
  7  9  1  0  0  0  0
  7 17  1  0  0  0  0
  7 18  1  0  0  0  0
  8 10  1  0  0  0  0
  8 19  1  0  0  0  0
  8 20  1  0  0  0  0
  9 11  1  0  0  0  0
  9 21  1  0  0  0  0
  9 22  1  0  0  0  0
 10 12  1  0  0  0  0
 10 23  1  0  0  0  0
 10 24  1  0  0  0  0
 11 12  1  0  0  0  0
 11 25  1  0  0  0  0
 11 26  1  0  0  0  0
 12 27  1  0  0  0  0
 12 28  1  0  0  0  0
 15 16  1  0  0  0  0
 16 30  1  0  0  0  0
 16 31  1  0  0  0  0
 16 32  1  0  0  0  0
M  END
> <PUBCHEM_COMPOUND_CID>
12863

> <PUBCHEM_COMPOUND_CANONICALIZED>
1

> <PUBCHEM_CACTVS_COMPLEXITY>
343

> <PUBCHEM_CACTVS_HBOND_ACCEPTOR>
3

> <PUBCHEM_CACTVS_HBOND_DONOR>
1

> <PUBCHEM_CACTVS_ROTATABLE_BOND>
0

> <PUBCHEM_CACTVS_SUBSKEYS>
AAADceBzMAAAAAAAAAAAAAAAAAAAAWAAAAAAAAAABgAAAAAAAAAAHgAQAAAADIiBgAADAAPAAAAIAAEQEAAAAAAAAAAAAAGAAACAQBIAgCAUAAAIBSKAAAEYiMCOAAAAAAAAAAAAAAAAAAAAAAAAAAAAAA==

> <PUBCHEM_IUPAC_OPENEYE_NAME>
1-acetyl-1,3-diazaspiro[4.6]undecane-2,4-dione

> <PUBCHEM_IUPAC_CAS_NAME>
1-acetyl-1,3-diazaspiro[4.6]undecane-2,4-dione

> <PUBCHEM_IUPAC_NAME>
1-acetyl-1,3-diazaspiro[4.6]undecane-2,4-dione

> <PUBCHEM_IUPAC_SYSTEMATIC_NAME>
1-ethanoyl-1,3-diazaspiro[4.6]undecane-2,4-dione

> <PUBCHEM_IUPAC_TRADITIONAL_NAME>
1-acetyl-1,3-diazaspiro[4.6]undecane-2,4-quinone

> <PUBCHEM_IUPAC_INCHI>
InChI=1S/C11H16N2O3/c1-8(14)13-10(16)12-9(15)11(13)6-4-2-3-5-7-11/h2-7H2,1H3,(H,12,15,16)

> <PUBCHEM_IUPAC_INCHIKEY>
GXDCUEJMKJVHSB-UHFFFAOYSA-N

> <PUBCHEM_XLOGP3_AA>
1.1

> <PUBCHEM_EXACT_MASS>
224.116092

> <PUBCHEM_MOLECULAR_FORMULA>
C11H16N2O3

> <PUBCHEM_MOLECULAR_WEIGHT>
224.25634

> <PUBCHEM_OPENEYE_CAN_SMILES>
CC(=O)N1C(=O)NC(=O)C12CCCCCC2

> <PUBCHEM_OPENEYE_ISO_SMILES>
CC(=O)N1C(=O)NC(=O)C12CCCCCC2

> <PUBCHEM_CACTVS_TPSA>
66.5

> <PUBCHEM_MONOISOTOPIC_WEIGHT>
224.116092

> <PUBCHEM_TOTAL_CHARGE>
0

> <PUBCHEM_HEAVY_ATOM_COUNT>
16

> <PUBCHEM_ATOM_DEF_STEREO_COUNT>
0

> <PUBCHEM_ATOM_UDEF_STEREO_COUNT>
0

> <PUBCHEM_BOND_DEF_STEREO_COUNT>
0

> <PUBCHEM_BOND_UDEF_STEREO_COUNT>
0

> <PUBCHEM_ISOTOPIC_ATOM_COUNT>
0

> <PUBCHEM_COMPONENT_COUNT>
1

> <PUBCHEM_CACTVS_TAUTO_COUNT>
3

> <PUBCHEM_COORDINATE_TYPE>
1
5
255

$$$$

