17395457
  -OEChem-06241222502D

 41 42  0     1  0  0  0  0  0999 V2000
    2.0000   -3.2125    0.0000 Cl  0  0  0  0  0  0  0  0  0  0  0  0
    4.8255    3.4512    0.0000 O   0  0  0  0  0  0  0  0  0  0  0  0
    6.5856    0.4026    0.0000 O   0  0  0  0  0  0  0  0  0  0  0  0
    5.4641   -0.2125    0.0000 O   0  0  0  0  0  0  0  0  0  0  0  0
    3.7320   -4.2125    0.0000 O   0  0  0  0  0  0  0  0  0  0  0  0
    7.0468    2.1239    0.0000 N   0  0  0  0  0  0  0  0  0  0  0  0
    5.4641    1.7875    0.0000 N   0  0  0  0  0  0  0  0  0  0  0  0
    3.7320   -0.2125    0.0000 N   0  0  0  0  0  0  0  0  0  0  0  0
    6.5468    2.9899    0.0000 C   0  0  3  0  0  0  0  0  0  0  0  0
    6.9535    3.9035    0.0000 C   0  0  0  0  0  0  0  0  0  0  0  0
    5.5686    2.7820    0.0000 C   0  0  0  0  0  0  0  0  0  0  0  0
    7.9480    4.0080    0.0000 C   0  0  0  0  0  0  0  0  0  0  0  0
    6.3657    4.7125    0.0000 C   0  0  0  0  0  0  0  0  0  0  0  0
    6.3776    1.3808    0.0000 C   0  0  0  0  0  0  0  0  0  0  0  0
    4.5981    1.2875    0.0000 C   0  0  0  0  0  0  0  0  0  0  0  0
    4.5981    0.2875    0.0000 C   0  0  0  0  0  0  0  0  0  0  0  0
    3.7320   -1.2125    0.0000 C   0  0  0  0  0  0  0  0  0  0  0  0
    2.8660   -1.7125    0.0000 C   0  0  0  0  0  0  0  0  0  0  0  0
    4.5981   -1.7125    0.0000 C   0  0  0  0  0  0  0  0  0  0  0  0
    2.8660   -2.7125    0.0000 C   0  0  0  0  0  0  0  0  0  0  0  0
    4.5981   -2.7125    0.0000 C   0  0  0  0  0  0  0  0  0  0  0  0
    3.7320   -3.2125    0.0000 C   0  0  0  0  0  0  0  0  0  0  0  0
    4.5981   -4.7125    0.0000 C   0  0  0  0  0  0  0  0  0  0  0  0
    7.1659    3.0224    0.0000 H   0  0  0  0  0  0  0  0  0  0  0  0
    6.3369    3.8387    0.0000 H   0  0  0  0  0  0  0  0  0  0  0  0
    7.6634    2.0591    0.0000 H   0  0  0  0  0  0  0  0  0  0  0  0
    6.8673    5.0769    0.0000 H   0  0  0  0  0  0  0  0  0  0  0  0
    8.0128    3.3914    0.0000 H   0  0  0  0  0  0  0  0  0  0  0  0
    8.5646    4.0728    0.0000 H   0  0  0  0  0  0  0  0  0  0  0  0
    7.8832    4.6246    0.0000 H   0  0  0  0  0  0  0  0  0  0  0  0
    6.0013    5.2141    0.0000 H   0  0  0  0  0  0  0  0  0  0  0  0
    5.8641    4.3481    0.0000 H   0  0  0  0  0  0  0  0  0  0  0  0
    4.3860    1.8701    0.0000 H   0  0  0  0  0  0  0  0  0  0  0  0
    3.9875    1.1798    0.0000 H   0  0  0  0  0  0  0  0  0  0  0  0
    3.1951    0.0975    0.0000 H   0  0  0  0  0  0  0  0  0  0  0  0
    2.3291   -1.4025    0.0000 H   0  0  0  0  0  0  0  0  0  0  0  0
    5.1350   -1.4025    0.0000 H   0  0  0  0  0  0  0  0  0  0  0  0
    5.1350   -3.0225    0.0000 H   0  0  0  0  0  0  0  0  0  0  0  0
    4.2881   -5.2494    0.0000 H   0  0  0  0  0  0  0  0  0  0  0  0
    5.1350   -5.0225    0.0000 H   0  0  0  0  0  0  0  0  0  0  0  0
    4.9081   -4.1756    0.0000 H   0  0  0  0  0  0  0  0  0  0  0  0
  1 20  1  0  0  0  0
  2 11  2  0  0  0  0
  3 14  2  0  0  0  0
  4 16  2  0  0  0  0
  5 22  1  0  0  0  0
  5 23  1  0  0  0  0
  6  9  1  0  0  0  0
  6 14  1  0  0  0  0
  6 26  1  0  0  0  0
  7 11  1  0  0  0  0
  7 14  1  0  0  0  0
  7 15  1  0  0  0  0
  8 16  1  0  0  0  0
  8 17  1  0  0  0  0
  8 35  1  0  0  0  0
  9 10  1  0  0  0  0
  9 11  1  0  0  0  0
  9 24  1  0  0  0  0
 10 12  1  0  0  0  0
 10 13  1  0  0  0  0
 10 25  1  0  0  0  0
 12 28  1  0  0  0  0
 12 29  1  0  0  0  0
 12 30  1  0  0  0  0
 13 27  1  0  0  0  0
 13 31  1  0  0  0  0
 13 32  1  0  0  0  0
 15 16  1  0  0  0  0
 15 33  1  0  0  0  0
 15 34  1  0  0  0  0
 17 18  2  0  0  0  0
 17 19  1  0  0  0  0
 18 20  1  0  0  0  0
 18 36  1  0  0  0  0
 19 21  2  0  0  0  0
 19 37  1  0  0  0  0
 20 22  2  0  0  0  0
 21 22  1  0  0  0  0
 21 38  1  0  0  0  0
 23 39  1  0  0  0  0
 23 40  1  0  0  0  0
 23 41  1  0  0  0  0
M  END
> <PUBCHEM_COMPOUND_CID>
17395457

> <PUBCHEM_COMPOUND_CANONICALIZED>
1

> <PUBCHEM_CACTVS_COMPLEXITY>
485

> <PUBCHEM_CACTVS_HBOND_ACCEPTOR>
4

> <PUBCHEM_CACTVS_HBOND_DONOR>
2

> <PUBCHEM_CACTVS_ROTATABLE_BOND>
5

> <PUBCHEM_CACTVS_SUBSKEYS>
AAADceBzOAAEAAAAAAAAAAAAAAAAAWAAAAAwAAAAAAAAAAABAAAAHgIQAAAADS7BkCYzxoPABACIACVSUACCCAAhJ0AIiIGOb4iMZjPFs7uUMChs1zPI6AewQAAIAEAAAAIACAAAgAAABAAQAAAAAAAAAA==

> <PUBCHEM_IUPAC_OPENEYE_NAME>
N-(3-chloro-4-methoxy-phenyl)-2-(4-isopropyl-2,5-dioxo-imidazolidin-1-yl)acetamide

> <PUBCHEM_IUPAC_CAS_NAME>
N-(3-chloro-4-methoxyphenyl)-2-(2,5-dioxo-4-propan-2-yl-1-imidazolidinyl)acetamide

> <PUBCHEM_IUPAC_NAME>
N-(3-chloro-4-methoxyphenyl)-2-(2,5-dioxo-4-propan-2-ylimidazolidin-1-yl)acetamide

> <PUBCHEM_IUPAC_SYSTEMATIC_NAME>
2-[2,5-bis(oxidanylidene)-4-propan-2-yl-imidazolidin-1-yl]-N-(3-chloranyl-4-methoxy-phenyl)ethanamide

> <PUBCHEM_IUPAC_TRADITIONAL_NAME>
N-(3-chloro-4-methoxy-phenyl)-2-(4-isopropyl-2,5-diketo-imidazolidin-1-yl)acetamide

> <PUBCHEM_IUPAC_INCHI>
InChI=1S/C15H18ClN3O4/c1-8(2)13-14(21)19(15(22)18-13)7-12(20)17-9-4-5-11(23-3)10(16)6-9/h4-6,8,13H,7H2,1-3H3,(H,17,20)(H,18,22)

> <PUBCHEM_IUPAC_INCHIKEY>
AKEXXVDPWZEXRC-UHFFFAOYSA-N

> <PUBCHEM_XLOGP3_AA>
2

> <PUBCHEM_EXACT_MASS>
339.098584

> <PUBCHEM_MOLECULAR_FORMULA>
C15H18ClN3O4

> <PUBCHEM_MOLECULAR_WEIGHT>
339.77412

> <PUBCHEM_OPENEYE_CAN_SMILES>
CC(C)C1C(=O)N(C(=O)N1)CC(=O)NC2=CC(=C(C=C2)OC)Cl

> <PUBCHEM_OPENEYE_ISO_SMILES>
CC(C)C1C(=O)N(C(=O)N1)CC(=O)NC2=CC(=C(C=C2)OC)Cl

> <PUBCHEM_CACTVS_TPSA>
87.7

> <PUBCHEM_MONOISOTOPIC_WEIGHT>
339.098584

> <PUBCHEM_TOTAL_CHARGE>
0

> <PUBCHEM_HEAVY_ATOM_COUNT>
23

> <PUBCHEM_ATOM_DEF_STEREO_COUNT>
0

> <PUBCHEM_ATOM_UDEF_STEREO_COUNT>
1

> <PUBCHEM_BOND_DEF_STEREO_COUNT>
0

> <PUBCHEM_BOND_UDEF_STEREO_COUNT>
0

> <PUBCHEM_ISOTOPIC_ATOM_COUNT>
0

> <PUBCHEM_COMPONENT_COUNT>
1

> <PUBCHEM_CACTVS_TAUTO_COUNT>
12

> <PUBCHEM_COORDINATE_TYPE>
1
5
255

> <PUBCHEM_BONDANNOTATIONS>
17  18  8
17  19  8
18  20  8
19  21  8
20  22  8
21  22  8
9  10  3

$$$$

