5874
  -OEChem-06261200572D

 58 61  0     1  0  0  0  0  0999 V2000
    4.9641    3.3364    0.0000 O   0  0  0  0  0  0  0  0  0  0  0  0
    6.3301   -2.0296    0.0000 O   0  0  0  0  0  0  0  0  0  0  0  0
    4.6551   -4.1174    0.0000 O   0  0  0  0  0  0  0  0  0  0  0  0
    5.4641    0.4704    0.0000 N   0  0  0  0  0  0  0  0  0  0  0  0
    4.5981   -2.0296    0.0000 N   0  0  0  0  0  0  0  0  0  0  0  0
    5.4641    2.4704    0.0000 C   0  0  0  0  0  0  0  0  0  0  0  0
    6.3301    1.9704    0.0000 C   0  0  0  0  0  0  0  0  0  0  0  0
    4.5981    1.9704    0.0000 C   0  0  0  0  0  0  0  0  0  0  0  0
    6.3301    0.9704    0.0000 C   0  0  0  0  0  0  0  0  0  0  0  0
    4.5981    0.9704    0.0000 C   0  0  0  0  0  0  0  0  0  0  0  0
    5.4641   -0.5296    0.0000 C   0  0  0  0  0  0  0  0  0  0  0  0
    5.9641    3.3364    0.0000 C   0  0  0  0  0  0  0  0  0  0  0  0
    4.5981   -1.0296    0.0000 C   0  0  3  0  0  0  0  0  0  0  0  0
    3.7320   -0.5296    0.0000 C   0  0  0  0  0  0  0  0  0  0  0  0
    6.9641    3.3364    0.0000 C   0  0  0  0  0  0  0  0  0  0  0  0
    5.4641    4.2024    0.0000 C   0  0  0  0  0  0  0  0  0  0  0  0
    3.7320   -2.5296    0.0000 C   0  0  0  0  0  0  0  0  0  0  0  0
    7.4641    4.2024    0.0000 C   0  0  0  0  0  0  0  0  0  0  0  0
    5.9641    5.0685    0.0000 C   0  0  0  0  0  0  0  0  0  0  0  0
    5.4641   -2.5296    0.0000 C   0  0  0  0  0  0  0  0  0  0  0  0
    6.9641    5.0685    0.0000 C   0  0  0  0  0  0  0  0  0  0  0  0
    2.8660   -2.0296    0.0000 C   0  0  0  0  0  0  0  0  0  0  0  0
    3.7320   -3.5296    0.0000 C   0  0  0  0  0  0  0  0  0  0  0  0
    5.4641   -3.5296    0.0000 C   0  0  0  0  0  0  0  0  0  0  0  0
    2.0000   -2.5296    0.0000 C   0  0  0  0  0  0  0  0  0  0  0  0
    2.8660   -4.0296    0.0000 C   0  0  0  0  0  0  0  0  0  0  0  0
    6.2731   -4.1174    0.0000 C   0  0  0  0  0  0  0  0  0  0  0  0
    2.0000   -3.5296    0.0000 C   0  0  0  0  0  0  0  0  0  0  0  0
    5.9641   -5.0685    0.0000 C   0  0  0  0  0  0  0  0  0  0  0  0
    4.9641   -5.0685    0.0000 C   0  0  0  0  0  0  0  0  0  0  0  0
    4.3860    2.5530    0.0000 H   0  0  0  0  0  0  0  0  0  0  0  0
    3.9875    1.8627    0.0000 H   0  0  0  0  0  0  0  0  0  0  0  0
    6.9407    1.8627    0.0000 H   0  0  0  0  0  0  0  0  0  0  0  0
    6.5422    2.5530    0.0000 H   0  0  0  0  0  0  0  0  0  0  0  0
    6.5422    0.3878    0.0000 H   0  0  0  0  0  0  0  0  0  0  0  0
    6.9407    1.0780    0.0000 H   0  0  0  0  0  0  0  0  0  0  0  0
    3.9875    1.0780    0.0000 H   0  0  0  0  0  0  0  0  0  0  0  0
    4.3860    0.3878    0.0000 H   0  0  0  0  0  0  0  0  0  0  0  0
    5.6762   -1.1122    0.0000 H   0  0  0  0  0  0  0  0  0  0  0  0
    6.0747   -0.4220    0.0000 H   0  0  0  0  0  0  0  0  0  0  0  0
    5.3342   -1.4546    0.0000 H   0  0  0  0  0  0  0  0  0  0  0  0
    4.3441    3.3364    0.0000 H   0  0  0  0  0  0  0  0  0  0  0  0
    4.0420    0.0073    0.0000 H   0  0  0  0  0  0  0  0  0  0  0  0
    3.1951   -0.2196    0.0000 H   0  0  0  0  0  0  0  0  0  0  0  0
    3.4220   -1.0666    0.0000 H   0  0  0  0  0  0  0  0  0  0  0  0
    7.2741    2.7995    0.0000 H   0  0  0  0  0  0  0  0  0  0  0  0
    4.8441    4.2024    0.0000 H   0  0  0  0  0  0  0  0  0  0  0  0
    8.0841    4.2024    0.0000 H   0  0  0  0  0  0  0  0  0  0  0  0
    5.6541    5.6054    0.0000 H   0  0  0  0  0  0  0  0  0  0  0  0
    7.2741    5.6054    0.0000 H   0  0  0  0  0  0  0  0  0  0  0  0
    2.8660   -1.4096    0.0000 H   0  0  0  0  0  0  0  0  0  0  0  0
    4.2690   -3.8396    0.0000 H   0  0  0  0  0  0  0  0  0  0  0  0
    1.4631   -2.2196    0.0000 H   0  0  0  0  0  0  0  0  0  0  0  0
    2.8660   -4.6496    0.0000 H   0  0  0  0  0  0  0  0  0  0  0  0
    6.8628   -3.9258    0.0000 H   0  0  0  0  0  0  0  0  0  0  0  0
    1.4631   -3.8396    0.0000 H   0  0  0  0  0  0  0  0  0  0  0  0
    6.3285   -5.5700    0.0000 H   0  0  0  0  0  0  0  0  0  0  0  0
    4.5997   -5.5700    0.0000 H   0  0  0  0  0  0  0  0  0  0  0  0
  1  6  1  0  0  0  0
  1 42  1  0  0  0  0
  2 20  2  0  0  0  0
  3 24  1  0  0  0  0
  3 30  1  0  0  0  0
  4  9  1  0  0  0  0
  4 10  1  0  0  0  0
  4 11  1  0  0  0  0
  5 13  1  0  0  0  0
  5 17  1  0  0  0  0
  5 20  1  0  0  0  0
  6  7  1  0  0  0  0
  6  8  1  0  0  0  0
  6 12  1  0  0  0  0
  7  9  1  0  0  0  0
  7 33  1  0  0  0  0
  7 34  1  0  0  0  0
  8 10  1  0  0  0  0
  8 31  1  0  0  0  0
  8 32  1  0  0  0  0
  9 35  1  0  0  0  0
  9 36  1  0  0  0  0
 10 37  1  0  0  0  0
 10 38  1  0  0  0  0
 11 13  1  0  0  0  0
 11 39  1  0  0  0  0
 11 40  1  0  0  0  0
 12 15  2  0  0  0  0
 12 16  1  0  0  0  0
 13 14  1  0  0  0  0
 13 41  1  0  0  0  0
 14 43  1  0  0  0  0
 14 44  1  0  0  0  0
 14 45  1  0  0  0  0
 15 18  1  0  0  0  0
 15 46  1  0  0  0  0
 16 19  2  0  0  0  0
 16 47  1  0  0  0  0
 17 22  2  0  0  0  0
 17 23  1  0  0  0  0
 18 21  2  0  0  0  0
 18 48  1  0  0  0  0
 19 21  1  0  0  0  0
 19 49  1  0  0  0  0
 20 24  1  0  0  0  0
 21 50  1  0  0  0  0
 22 25  1  0  0  0  0
 22 51  1  0  0  0  0
 23 26  2  0  0  0  0
 23 52  1  0  0  0  0
 24 27  2  0  0  0  0
 25 28  2  0  0  0  0
 25 53  1  0  0  0  0
 26 28  1  0  0  0  0
 26 54  1  0  0  0  0
 27 29  1  0  0  0  0
 27 55  1  0  0  0  0
 28 56  1  0  0  0  0
 29 30  2  0  0  0  0
 29 57  1  0  0  0  0
 30 58  1  0  0  0  0
M  END
> <PUBCHEM_COMPOUND_CID>
5874

> <PUBCHEM_COMPOUND_CANONICALIZED>
1

> <PUBCHEM_CACTVS_COMPLEXITY>
549

> <PUBCHEM_CACTVS_HBOND_ACCEPTOR>
4

> <PUBCHEM_CACTVS_HBOND_DONOR>
1

> <PUBCHEM_CACTVS_ROTATABLE_BOND>
6

> <PUBCHEM_CACTVS_SUBSKEYS>
AAADceB7MAAAAAAAAAAAAAAAAAAAASAAAAA8YIAAAAAAAAAB0AAAHgAACAAADGzhmAYyxIMABkCIAq1S0AKCCAAlIgAIiAHObMgOZjLEtb+XeSjmxhHY+YeY1+IOgAAAAAAAAAAAAAAAAAAAAAAAAAAAAA==

> <PUBCHEM_IUPAC_OPENEYE_NAME>
N-[2-(4-hydroxy-4-phenyl-1-piperidyl)-1-methyl-ethyl]-N-phenyl-furan-2-carboxamide

> <PUBCHEM_IUPAC_CAS_NAME>
N-[1-(4-hydroxy-4-phenyl-1-piperidinyl)propan-2-yl]-N-phenyl-2-furancarboxamide

> <PUBCHEM_IUPAC_NAME>
N-[1-(4-hydroxy-4-phenylpiperidin-1-yl)propan-2-yl]-N-phenylfuran-2-carboxamide

> <PUBCHEM_IUPAC_SYSTEMATIC_NAME>
N-[1-(4-oxidanyl-4-phenyl-piperidin-1-yl)propan-2-yl]-N-phenyl-furan-2-carboxamide

> <PUBCHEM_IUPAC_TRADITIONAL_NAME>
N-[2-(4-hydroxy-4-phenyl-piperidino)-1-methyl-ethyl]-N-phenyl-2-furamide

> <PUBCHEM_IUPAC_INCHI>
InChI=1S/C25H28N2O3/c1-20(19-26-16-14-25(29,15-17-26)21-9-4-2-5-10-21)27(22-11-6-3-7-12-22)24(28)23-13-8-18-30-23/h2-13,18,20,29H,14-17,19H2,1H3

> <PUBCHEM_IUPAC_INCHIKEY>
WNAOBZSKUPIRIX-UHFFFAOYSA-N

> <PUBCHEM_XLOGP3_AA>
4

> <PUBCHEM_EXACT_MASS>
404.209993

> <PUBCHEM_MOLECULAR_FORMULA>
C25H28N2O3

> <PUBCHEM_MOLECULAR_WEIGHT>
404.50142

> <PUBCHEM_OPENEYE_CAN_SMILES>
CC(CN1CCC(CC1)(C2=CC=CC=C2)O)N(C3=CC=CC=C3)C(=O)C4=CC=CO4

> <PUBCHEM_OPENEYE_ISO_SMILES>
CC(CN1CCC(CC1)(C2=CC=CC=C2)O)N(C3=CC=CC=C3)C(=O)C4=CC=CO4

> <PUBCHEM_CACTVS_TPSA>
56.9

> <PUBCHEM_MONOISOTOPIC_WEIGHT>
404.209993

> <PUBCHEM_TOTAL_CHARGE>
0

> <PUBCHEM_HEAVY_ATOM_COUNT>
30

> <PUBCHEM_ATOM_DEF_STEREO_COUNT>
0

> <PUBCHEM_ATOM_UDEF_STEREO_COUNT>
1

> <PUBCHEM_BOND_DEF_STEREO_COUNT>
0

> <PUBCHEM_BOND_UDEF_STEREO_COUNT>
0

> <PUBCHEM_ISOTOPIC_ATOM_COUNT>
0

> <PUBCHEM_COMPONENT_COUNT>
1

> <PUBCHEM_CACTVS_TAUTO_COUNT>
1

> <PUBCHEM_COORDINATE_TYPE>
1
5
255

> <PUBCHEM_BONDANNOTATIONS>
12  15  8
12  16  8
13  41  3
15  18  8
16  19  8
17  22  8
17  23  8
18  21  8
19  21  8
22  25  8
23  26  8
24  27  8
25  28  8
26  28  8
27  29  8
29  30  8
3  24  8
3  30  8

$$$$

