441689
  -OEChem-07051212552D

 96101  0     1  0  0  0  0  0999 V2000
    5.1350    1.2500    0.0000 O   0  0  0  0  0  0  0  0  0  0  0  0
    9.4651    2.7500    0.0000 O   0  0  0  0  0  0  0  0  0  0  0  0
    7.7331   -3.2500    0.0000 O   0  0  0  0  0  0  0  0  0  0  0  0
    6.0010   -0.2500    0.0000 O   0  0  0  0  0  0  0  0  0  0  0  0
    7.7331    2.7500    0.0000 O   0  0  0  0  0  0  0  0  0  0  0  0
    8.5991   -1.7500    0.0000 O   0  0  0  0  0  0  0  0  0  0  0  0
    2.5369   -0.2500    0.0000 O   0  0  0  0  0  0  0  0  0  0  0  0
    9.4651    5.7500    0.0000 O   0  0  0  0  0  0  0  0  0  0  0  0
    2.5369    1.7500    0.0000 O   0  0  0  0  0  0  0  0  0  0  0  0
   11.1972    4.7500    0.0000 O   0  0  0  0  0  0  0  0  0  0  0  0
   10.3312   -4.7500    0.0000 O   0  0  0  0  0  0  0  0  0  0  0  0
    8.5991   -5.7500    0.0000 O   0  0  0  0  0  0  0  0  0  0  0  0
    4.2690   -1.2500    0.0000 O   0  0  0  0  0  0  0  0  0  0  0  0
    7.7331    4.7500    0.0000 O   0  0  0  0  0  0  0  0  0  0  0  0
   10.3312   -2.7500    0.0000 O   0  0  0  0  0  0  0  0  0  0  0  0
    5.1350    3.2500    0.0000 O   0  0  0  0  0  0  0  0  0  0  0  0
   12.0632    3.2500    0.0000 O   0  0  0  0  0  0  0  0  0  0  0  0
    6.8671   -5.7500    0.0000 O   0  0  0  0  0  0  0  0  0  0  0  0
   10.3312    0.2500    0.0000 O   0  3  0  0  0  0  0  0  0  0  0  0
    6.0010    1.7500    0.0000 O   0  0  0  0  0  0  0  0  0  0  0  0
   12.0796   -2.7846    0.0000 O   0  0  0  0  0  0  0  0  0  0  0  0
   13.8613    0.2742    0.0000 O   0  0  0  0  0  0  0  0  0  0  0  0
    3.4030    0.2500    0.0000 C   0  0  1  0  0  0  0  0  0  0  0  0
    9.4651    4.7500    0.0000 C   0  0  1  0  0  0  0  0  0  0  0  0
    3.4030    1.2500    0.0000 C   0  0  1  0  0  0  0  0  0  0  0  0
   10.3312    4.2500    0.0000 C   0  0  1  0  0  0  0  0  0  0  0  0
    9.4651   -4.2500    0.0000 C   0  0  1  0  0  0  0  0  0  0  0  0
    8.5991   -4.7500    0.0000 C   0  0  1  0  0  0  0  0  0  0  0  0
    4.2690   -0.2500    0.0000 C   0  0  2  0  0  0  0  0  0  0  0  0
    8.5991    4.2500    0.0000 C   0  0  2  0  0  0  0  0  0  0  0  0
    4.2690    1.7500    0.0000 C   0  0  1  0  0  0  0  0  0  0  0  0
   10.3312    3.2500    0.0000 C   0  0  1  0  0  0  0  0  0  0  0  0
    9.4651   -3.2500    0.0000 C   0  0  2  0  0  0  0  0  0  0  0  0
    7.7331   -4.2500    0.0000 C   0  0  1  0  0  0  0  0  0  0  0  0
    5.1350    0.2500    0.0000 C   0  0  1  0  0  0  0  0  0  0  0  0
    8.5991    3.2500    0.0000 C   0  0  1  0  0  0  0  0  0  0  0  0
    8.5991   -2.7500    0.0000 C   0  0  1  0  0  0  0  0  0  0  0  0
    4.2690    2.7500    0.0000 C   0  0  0  0  0  0  0  0  0  0  0  0
   11.1972    2.7500    0.0000 C   0  0  0  0  0  0  0  0  0  0  0  0
    6.8671   -4.7500    0.0000 C   0  0  0  0  0  0  0  0  0  0  0  0
    6.8671    0.2500    0.0000 C   0  0  0  0  0  0  0  0  0  0  0  0
    7.7331    1.7500    0.0000 C   0  0  0  0  0  0  0  0  0  0  0  0
    9.4651   -1.2500    0.0000 C   0  0  0  0  0  0  0  0  0  0  0  0
    8.5991    0.2500    0.0000 C   0  0  0  0  0  0  0  0  0  0  0  0
    6.8671    1.2500    0.0000 C   0  0  0  0  0  0  0  0  0  0  0  0
    9.4651   -0.2500    0.0000 C   0  0  0  0  0  0  0  0  0  0  0  0
    7.7331   -0.2500    0.0000 C   0  0  0  0  0  0  0  0  0  0  0  0
    8.5991    1.2500    0.0000 C   0  0  0  0  0  0  0  0  0  0  0  0
   10.3312   -1.7500    0.0000 C   0  0  0  0  0  0  0  0  0  0  0  0
   11.1972   -1.2500    0.0000 C   0  0  0  0  0  0  0  0  0  0  0  0
   11.1972   -0.2500    0.0000 C   0  0  0  0  0  0  0  0  0  0  0  0
   12.0911   -1.7847    0.0000 C   0  0  0  0  0  0  0  0  0  0  0  0
   12.0911    0.2847    0.0000 C   0  0  0  0  0  0  0  0  0  0  0  0
   12.9972   -1.2708    0.0000 C   0  0  0  0  0  0  0  0  0  0  0  0
   12.9972   -0.2292    0.0000 C   0  0  0  0  0  0  0  0  0  0  0  0
    3.4030   -0.3700    0.0000 H   0  0  0  0  0  0  0  0  0  0  0  0
   10.0021    5.0600    0.0000 H   0  0  0  0  0  0  0  0  0  0  0  0
    3.4030    1.8700    0.0000 H   0  0  0  0  0  0  0  0  0  0  0  0
   10.8681    3.9400    0.0000 H   0  0  0  0  0  0  0  0  0  0  0  0
   10.0021   -3.9400    0.0000 H   0  0  0  0  0  0  0  0  0  0  0  0
    8.0622   -5.0600    0.0000 H   0  0  0  0  0  0  0  0  0  0  0  0
    4.8059   -0.5600    0.0000 H   0  0  0  0  0  0  0  0  0  0  0  0
    8.5991    4.8700    0.0000 H   0  0  0  0  0  0  0  0  0  0  0  0
    4.8059    2.0600    0.0000 H   0  0  0  0  0  0  0  0  0  0  0  0
   10.3312    2.6300    0.0000 H   0  0  0  0  0  0  0  0  0  0  0  0
   10.0021   -3.5600    0.0000 H   0  0  0  0  0  0  0  0  0  0  0  0
    7.1962   -3.9400    0.0000 H   0  0  0  0  0  0  0  0  0  0  0  0
    5.1350   -0.3700    0.0000 H   0  0  0  0  0  0  0  0  0  0  0  0
    8.5991    2.6300    0.0000 H   0  0  0  0  0  0  0  0  0  0  0  0
    8.0622   -2.4400    0.0000 H   0  0  0  0  0  0  0  0  0  0  0  0
    4.0569    3.3326    0.0000 H   0  0  0  0  0  0  0  0  0  0  0  0
    3.6584    2.6423    0.0000 H   0  0  0  0  0  0  0  0  0  0  0  0
   10.7987    2.2750    0.0000 H   0  0  0  0  0  0  0  0  0  0  0  0
   11.5957    2.2750    0.0000 H   0  0  0  0  0  0  0  0  0  0  0  0
    6.6550   -4.1674    0.0000 H   0  0  0  0  0  0  0  0  0  0  0  0
    6.2565   -4.8577    0.0000 H   0  0  0  0  0  0  0  0  0  0  0  0
    2.0000    0.0600    0.0000 H   0  0  0  0  0  0  0  0  0  0  0  0
   10.0021    6.0600    0.0000 H   0  0  0  0  0  0  0  0  0  0  0  0
    2.5369    2.3700    0.0000 H   0  0  0  0  0  0  0  0  0  0  0  0
   11.1972    5.3700    0.0000 H   0  0  0  0  0  0  0  0  0  0  0  0
   10.3312   -5.3700    0.0000 H   0  0  0  0  0  0  0  0  0  0  0  0
    9.1360   -6.0600    0.0000 H   0  0  0  0  0  0  0  0  0  0  0  0
    3.7320   -1.5600    0.0000 H   0  0  0  0  0  0  0  0  0  0  0  0
    7.7331    5.3700    0.0000 H   0  0  0  0  0  0  0  0  0  0  0  0
   10.8681   -3.0600    0.0000 H   0  0  0  0  0  0  0  0  0  0  0  0
    7.7331   -0.8700    0.0000 H   0  0  0  0  0  0  0  0  0  0  0  0
    9.1360    1.5600    0.0000 H   0  0  0  0  0  0  0  0  0  0  0  0
   10.3312   -2.3700    0.0000 H   0  0  0  0  0  0  0  0  0  0  0  0
    5.1350    3.8700    0.0000 H   0  0  0  0  0  0  0  0  0  0  0  0
   12.6002    2.9400    0.0000 H   0  0  0  0  0  0  0  0  0  0  0  0
    6.3301   -6.0600    0.0000 H   0  0  0  0  0  0  0  0  0  0  0  0
    6.0010    2.3700    0.0000 H   0  0  0  0  0  0  0  0  0  0  0  0
   12.0840    0.9046    0.0000 H   0  0  0  0  0  0  0  0  0  0  0  0
   13.5329   -1.5829    0.0000 H   0  0  0  0  0  0  0  0  0  0  0  0
   12.6129   -3.1008    0.0000 H   0  0  0  0  0  0  0  0  0  0  0  0
   14.3994   -0.0338    0.0000 H   0  0  0  0  0  0  0  0  0  0  0  0
  1 31  1  0  0  0  0
  1 35  1  0  0  0  0
  2 32  1  0  0  0  0
  2 36  1  0  0  0  0
  3 34  1  0  0  0  0
  3 37  1  0  0  0  0
 35  4  1  1  0  0  0
  4 41  1  0  0  0  0
 36  5  1  1  0  0  0
  5 42  1  0  0  0  0
 37  6  1  1  0  0  0
  6 43  1  0  0  0  0
 23  7  1  1  0  0  0
  7 77  1  0  0  0  0
 24  8  1  1  0  0  0
  8 78  1  0  0  0  0
 25  9  1  6  0  0  0
  9 79  1  0  0  0  0
 26 10  1  6  0  0  0
 10 80  1  0  0  0  0
 27 11  1  1  0  0  0
 11 81  1  0  0  0  0
 28 12  1  6  0  0  0
 12 82  1  0  0  0  0
 29 13  1  6  0  0  0
 13 83  1  0  0  0  0
 30 14  1  6  0  0  0
 14 84  1  0  0  0  0
 33 15  1  6  0  0  0
 15 85  1  0  0  0  0
 16 38  1  0  0  0  0
 16 89  1  0  0  0  0
 17 39  1  0  0  0  0
 17 90  1  0  0  0  0
 18 40  1  0  0  0  0
 18 91  1  0  0  0  0
 19 46  2  0  0  0  0
 19 51  1  0  0  0  0
 20 45  1  0  0  0  0
 20 92  1  0  0  0  0
 21 52  1  0  0  0  0
 21 95  1  0  0  0  0
 22 55  1  0  0  0  0
 22 96  1  0  0  0  0
 23 25  1  0  0  0  0
 23 29  1  0  0  0  0
 23 56  1  0  0  0  0
 24 26  1  0  0  0  0
 24 30  1  0  0  0  0
 24 57  1  0  0  0  0
 25 31  1  0  0  0  0
 25 58  1  0  0  0  0
 26 32  1  0  0  0  0
 26 59  1  0  0  0  0
 27 28  1  0  0  0  0
 27 33  1  0  0  0  0
 27 60  1  0  0  0  0
 28 34  1  0  0  0  0
 28 61  1  0  0  0  0
 29 35  1  0  0  0  0
 29 62  1  0  0  0  0
 30 36  1  0  0  0  0
 30 63  1  0  0  0  0
 31 38  1  1  0  0  0
 31 64  1  0  0  0  0
 32 39  1  1  0  0  0
 32 65  1  0  0  0  0
 33 37  1  0  0  0  0
 33 66  1  0  0  0  0
 34 40  1  1  0  0  0
 34 67  1  0  0  0  0
 35 68  1  0  0  0  0
 36 69  1  0  0  0  0
 37 70  1  0  0  0  0
 38 71  1  0  0  0  0
 38 72  1  0  0  0  0
 39 73  1  0  0  0  0
 39 74  1  0  0  0  0
 40 75  1  0  0  0  0
 40 76  1  0  0  0  0
 41 45  2  0  0  0  0
 41 47  1  0  0  0  0
 42 45  1  0  0  0  0
 42 48  2  0  0  0  0
 43 46  1  0  0  0  0
 43 49  2  0  0  0  0
 44 46  1  0  0  0  0
 44 47  2  0  0  0  0
 44 48  1  0  0  0  0
 47 86  1  0  0  0  0
 48 87  1  0  0  0  0
 49 50  1  0  0  0  0
 49 88  1  0  0  0  0
 50 51  1  0  0  0  0
 50 52  2  0  0  0  0
 51 53  2  0  0  0  0
 52 54  1  0  0  0  0
 53 55  1  0  0  0  0
 53 93  1  0  0  0  0
 54 55  2  0  0  0  0
 54 94  1  0  0  0  0
M  CHG  1  19   1
M  END
> <PUBCHEM_COMPOUND_CID>
441689

> <PUBCHEM_COMPOUND_CANONICALIZED>
1

> <PUBCHEM_CACTVS_COMPLEXITY>
1170

> <PUBCHEM_CACTVS_HBOND_ACCEPTOR>
21

> <PUBCHEM_CACTVS_HBOND_DONOR>
15

> <PUBCHEM_CACTVS_ROTATABLE_BOND>
10

> <PUBCHEM_CACTVS_SUBSKEYS>
AAADcfB8PgAAAAAAAAAAAAAAAAAAAAAAAAA0aJEiAAAAAACR9AAAGgAACAAADBSwmAMwDsAABkCIAqBSAAICCAAkIAAAiAFGiMgdNzaGNR6ieWOl4BUPuYfK7PzOIAABCAAIQABAAAIQABCAAAAAAAAAAA==

> <PUBCHEM_IUPAC_OPENEYE_NAME>
(2S,3R,4S,5S,6R)-2-[5-[5,7-dihydroxy-3-[(2S,3R,4S,5S,6R)-3,4,5-trihydroxy-6-(hydroxymethyl)tetrahydropyran-2-yl]oxy-chromenylium-2-yl]-2-hydroxy-3-[(2S,3R,4S,5S,6R)-3,4,5-trihydroxy-6-(hydroxymethyl)tetrahydropyran-2-yl]oxy-phenoxy]-6-(hydroxymethyl)tetrahydropyran-3,4,5-triol

> <PUBCHEM_IUPAC_CAS_NAME>
(2S,3R,4S,5S,6R)-2-[5-[5,7-dihydroxy-3-[[(2S,3R,4S,5S,6R)-3,4,5-trihydroxy-6-(hydroxymethyl)-2-oxanyl]oxy]-1-benzopyrylium-2-yl]-2-hydroxy-3-[[(2S,3R,4S,5S,6R)-3,4,5-trihydroxy-6-(hydroxymethyl)-2-oxanyl]oxy]phenoxy]-6-(hydroxymethyl)oxane-3,4,5-triol

> <PUBCHEM_IUPAC_NAME>
(2S,3R,4S,5S,6R)-2-[5-[5,7-dihydroxy-3-[(2S,3R,4S,5S,6R)-3,4,5-trihydroxy-6-(hydroxymethyl)oxan-2-yl]oxychromenylium-2-yl]-2-hydroxy-3-[(2S,3R,4S,5S,6R)-3,4,5-trihydroxy-6-(hydroxymethyl)oxan-2-yl]oxyphenoxy]-6-(hydroxymethyl)oxane-3,4,5-triol

> <PUBCHEM_IUPAC_SYSTEMATIC_NAME>
(2R,3S,4S,5R,6S)-2-(hydroxymethyl)-6-[3-[(2S,3R,4S,5S,6R)-6-(hydroxymethyl)-3,4,5-tris(oxidanyl)oxan-2-yl]oxy-5-[3-[(2S,3R,4S,5S,6R)-6-(hydroxymethyl)-3,4,5-tris(oxidanyl)oxan-2-yl]oxy-5,7-bis(oxidanyl)chromenylium-2-yl]-2-oxidanyl-phenoxy]oxane-3,4,5-triol

> <PUBCHEM_IUPAC_TRADITIONAL_NAME>
(2S,3R,4S,5S,6R)-2-[5-[5,7-dihydroxy-3-[(2S,3R,4S,5S,6R)-3,4,5-trihydroxy-6-methylol-tetrahydropyran-2-yl]oxy-1-benzopyrylium-2-yl]-2-hydroxy-3-[(2S,3R,4S,5S,6R)-3,4,5-trihydroxy-6-methylol-tetrahydropyran-2-yl]oxy-phenoxy]-6-methylol-tetrahydropyran-3,4,5-triol

> <PUBCHEM_IUPAC_INCHI>
InChI=1S/C33H40O22/c34-6-17-21(40)24(43)27(46)31(53-17)50-14-1-9(2-15(20(14)39)51-32-28(47)25(44)22(41)18(7-35)54-32)30-16(5-11-12(38)3-10(37)4-13(11)49-30)52-33-29(48)26(45)23(42)19(8-36)55-33/h1-5,17-19,21-29,31-36,40-48H,6-8H2,(H2-,37,38,39)/p+1/t17-,18-,19-,21-,22-,23-,24+,25+,26+,27-,28-,29-,31-,32-,33-/m1/s1

> <PUBCHEM_IUPAC_INCHIKEY>
QLGDRYVFMZAWDU-KCRRSQHJSA-O

> <PUBCHEM_EXACT_MASS>
789.208948

> <PUBCHEM_MOLECULAR_FORMULA>
C33H41O22+

> <PUBCHEM_MOLECULAR_WEIGHT>
789.66544

> <PUBCHEM_OPENEYE_CAN_SMILES>
C1=C(C=C(C(=C1OC2C(C(C(C(O2)CO)O)O)O)O)OC3C(C(C(C(O3)CO)O)O)O)C4=C(C=C5C(=CC(=CC5=[O+]4)O)O)OC6C(C(C(C(O6)CO)O)O)O

> <PUBCHEM_OPENEYE_ISO_SMILES>
C1=C(C=C(C(=C1O[C@H]2[C@@H]([C@H]([C@@H]([C@H](O2)CO)O)O)O)O)O[C@H]3[C@@H]([C@H]([C@@H]([C@H](O3)CO)O)O)O)C4=C(C=C5C(=CC(=CC5=[O+]4)O)O)O[C@H]6[C@@H]([C@H]([C@@H]([C@H](O6)CO)O)O)O

> <PUBCHEM_CACTVS_TPSA>
360

> <PUBCHEM_MONOISOTOPIC_WEIGHT>
789.208948

> <PUBCHEM_TOTAL_CHARGE>
1

> <PUBCHEM_HEAVY_ATOM_COUNT>
55

> <PUBCHEM_ATOM_DEF_STEREO_COUNT>
15

> <PUBCHEM_ATOM_UDEF_STEREO_COUNT>
0

> <PUBCHEM_BOND_DEF_STEREO_COUNT>
0

> <PUBCHEM_BOND_UDEF_STEREO_COUNT>
0

> <PUBCHEM_ISOTOPIC_ATOM_COUNT>
0

> <PUBCHEM_COMPONENT_COUNT>
1

> <PUBCHEM_CACTVS_TAUTO_COUNT>
53

> <PUBCHEM_COORDINATE_TYPE>
1
5
255

> <PUBCHEM_BONDANNOTATIONS>
26  10  6
27  11  5
28  12  6
29  13  6
30  14  6
33  15  6
19  46  8
19  51  8
31  38  5
32  39  5
34  40  5
35  4  5
41  45  8
41  47  8
42  45  8
42  48  8
43  46  8
43  49  8
44  47  8
44  48  8
49  50  8
36  5  5
50  51  8
50  52  8
51  53  8
52  54  8
53  55  8
54  55  8
37  6  5
23  7  5
24  8  5
25  9  6

$$$$

