240051
  -OEChem-07051213062D

 52 54  0     1  0  0  0  0  0999 V2000
    2.3038   -2.6273    0.0000 O   0  0  0  0  0  0  0  0  0  0  0  0
    6.4318    2.8599    0.0000 O   0  0  0  0  0  0  0  0  0  0  0  0
    4.6876   -1.2094    0.0000 C   0  0  3  0  0  0  0  0  0  0  0  0
    4.6876   -0.2094    0.0000 C   0  0  3  0  0  0  0  0  0  0  0  0
    3.7937   -1.7440    0.0000 C   0  0  3  0  0  0  0  0  0  0  0  0
    3.7937    0.3253    0.0000 C   0  0  0  0  0  0  0  0  0  0  0  0
    2.8876   -1.2302    0.0000 C   0  0  0  0  0  0  0  0  0  0  0  0
    5.5536   -1.7094    0.0000 C   0  0  0  0  0  0  0  0  0  0  0  0
    2.8876   -0.1885    0.0000 C   0  0  0  0  0  0  0  0  0  0  0  0
    5.5536    0.2906    0.0000 C   0  0  0  0  0  0  0  0  0  0  0  0
    6.4196   -1.2094    0.0000 C   0  0  0  0  0  0  0  0  0  0  0  0
    4.6876    0.7906    0.0000 C   0  0  0  0  0  0  0  0  0  0  0  0
    3.3037   -2.6158    0.0000 C   0  0  0  0  0  0  0  0  0  0  0  0
    4.3036   -2.6042    0.0000 C   0  0  0  0  0  0  0  0  0  0  0  0
    6.4196   -0.2094    0.0000 C   0  0  0  0  0  0  0  0  0  0  0  0
    5.5376    1.3322    0.0000 C   0  0  0  0  0  0  0  0  0  0  0  0
    7.3296    0.2975    0.0000 C   0  0  0  0  0  0  0  0  0  0  0  0
    7.3377    1.3391    0.0000 C   0  0  0  0  0  0  0  0  0  0  0  0
    6.4356    1.8599    0.0000 C   0  0  0  0  0  0  0  0  0  0  0  0
    8.2056    1.8357    0.0000 C   0  0  0  0  0  0  0  0  0  0  0  0
    9.0697    1.3324    0.0000 C   0  0  0  0  0  0  0  0  0  0  0  0
    8.2095    2.8357    0.0000 C   0  0  0  0  0  0  0  0  0  0  0  0
    4.6924   -1.8293    0.0000 H   0  0  0  0  0  0  0  0  0  0  0  0
    4.1982    0.7951    0.0000 H   0  0  0  0  0  0  0  0  0  0  0  0
    3.4000    0.8043    0.0000 H   0  0  0  0  0  0  0  0  0  0  0  0
    2.2767   -1.1241    0.0000 H   0  0  0  0  0  0  0  0  0  0  0  0
    2.6785   -1.8139    0.0000 H   0  0  0  0  0  0  0  0  0  0  0  0
    5.1551   -2.1843    0.0000 H   0  0  0  0  0  0  0  0  0  0  0  0
    5.9521   -2.1843    0.0000 H   0  0  0  0  0  0  0  0  0  0  0  0
    2.6785    0.3951    0.0000 H   0  0  0  0  0  0  0  0  0  0  0  0
    2.2767   -0.2946    0.0000 H   0  0  0  0  0  0  0  0  0  0  0  0
    6.6317   -1.7920    0.0000 H   0  0  0  0  0  0  0  0  0  0  0  0
    7.0302   -1.1017    0.0000 H   0  0  0  0  0  0  0  0  0  0  0  0
    5.3076    0.7906    0.0000 H   0  0  0  0  0  0  0  0  0  0  0  0
    4.6876    1.4106    0.0000 H   0  0  0  0  0  0  0  0  0  0  0  0
    4.0676    0.7906    0.0000 H   0  0  0  0  0  0  0  0  0  0  0  0
    3.2031   -3.2276    0.0000 H   0  0  0  0  0  0  0  0  0  0  0  0
    3.8887   -2.8211    0.0000 H   0  0  0  0  0  0  0  0  0  0  0  0
    3.7703   -2.9204    0.0000 H   0  0  0  0  0  0  0  0  0  0  0  0
    4.6198   -3.1375    0.0000 H   0  0  0  0  0  0  0  0  0  0  0  0
    4.8370   -2.2880    0.0000 H   0  0  0  0  0  0  0  0  0  0  0  0
    4.9971    1.6359    0.0000 H   0  0  0  0  0  0  0  0  0  0  0  0
    7.8630   -0.0187    0.0000 H   0  0  0  0  0  0  0  0  0  0  0  0
    2.0000   -3.1678    0.0000 H   0  0  0  0  0  0  0  0  0  0  0  0
    8.7438    2.1437    0.0000 H   0  0  0  0  0  0  0  0  0  0  0  0
    5.8936    3.1678    0.0000 H   0  0  0  0  0  0  0  0  0  0  0  0
    8.7576    0.7967    0.0000 H   0  0  0  0  0  0  0  0  0  0  0  0
    9.6054    1.0203    0.0000 H   0  0  0  0  0  0  0  0  0  0  0  0
    9.3818    1.8681    0.0000 H   0  0  0  0  0  0  0  0  0  0  0  0
    8.8295    2.8333    0.0000 H   0  0  0  0  0  0  0  0  0  0  0  0
    8.2119    3.4557    0.0000 H   0  0  0  0  0  0  0  0  0  0  0  0
    7.5895    2.8381    0.0000 H   0  0  0  0  0  0  0  0  0  0  0  0
  1 13  1  0  0  0  0
  1 44  1  0  0  0  0
  2 19  1  0  0  0  0
  2 46  1  0  0  0  0
  3  4  1  0  0  0  0
  3  5  1  0  0  0  0
  3  8  1  0  0  0  0
  3 23  1  0  0  0  0
  4  6  1  0  0  0  0
  4 10  1  0  0  0  0
  4 12  1  0  0  0  0
  5  7  1  0  0  0  0
  5 13  1  0  0  0  0
  5 14  1  0  0  0  0
  6  9  1  0  0  0  0
  6 24  1  0  0  0  0
  6 25  1  0  0  0  0
  7  9  1  0  0  0  0
  7 26  1  0  0  0  0
  7 27  1  0  0  0  0
  8 11  1  0  0  0  0
  8 28  1  0  0  0  0
  8 29  1  0  0  0  0
  9 30  1  0  0  0  0
  9 31  1  0  0  0  0
 10 15  1  0  0  0  0
 10 16  2  0  0  0  0
 11 15  1  0  0  0  0
 11 32  1  0  0  0  0
 11 33  1  0  0  0  0
 12 34  1  0  0  0  0
 12 35  1  0  0  0  0
 12 36  1  0  0  0  0
 13 37  1  0  0  0  0
 13 38  1  0  0  0  0
 14 39  1  0  0  0  0
 14 40  1  0  0  0  0
 14 41  1  0  0  0  0
 15 17  2  0  0  0  0
 16 19  1  0  0  0  0
 16 42  1  0  0  0  0
 17 18  1  0  0  0  0
 17 43  1  0  0  0  0
 18 19  2  0  0  0  0
 18 20  1  0  0  0  0
 20 21  1  0  0  0  0
 20 22  1  0  0  0  0
 20 45  1  0  0  0  0
 21 47  1  0  0  0  0
 21 48  1  0  0  0  0
 21 49  1  0  0  0  0
 22 50  1  0  0  0  0
 22 51  1  0  0  0  0
 22 52  1  0  0  0  0
M  END
> <PUBCHEM_COMPOUND_CID>
240051

> <PUBCHEM_COMPOUND_CANONICALIZED>
1

> <PUBCHEM_CACTVS_COMPLEXITY>
407

> <PUBCHEM_CACTVS_HBOND_ACCEPTOR>
2

> <PUBCHEM_CACTVS_HBOND_DONOR>
2

> <PUBCHEM_CACTVS_ROTATABLE_BOND>
2

> <PUBCHEM_CACTVS_SUBSKEYS>
AAADceB4MAAAAAAAAAAAAAAAAAAAAAAAAAAwYMAAAAAAAADBAAAAGgAACAAADwSgmAIyBoAAAgCAAiBCAAACAAAgIAAAiAAGCIgINiKCERKAcAAkwBEImAeAwPAP4AADAAAYAADAAAYAADAAAAAAAAAAAA==

> <PUBCHEM_IUPAC_OPENEYE_NAME>
8-(hydroxymethyl)-2-isopropyl-4b,8-dimethyl-5,6,7,8a,9,10-hexahydrophenanthren-3-ol

> <PUBCHEM_IUPAC_CAS_NAME>
8-(hydroxymethyl)-4b,8-dimethyl-2-propan-2-yl-5,6,7,8a,9,10-hexahydrophenanthren-3-ol

> <PUBCHEM_IUPAC_NAME>
8-(hydroxymethyl)-4b,8-dimethyl-2-propan-2-yl-5,6,7,8a,9,10-hexahydrophenanthren-3-ol

> <PUBCHEM_IUPAC_SYSTEMATIC_NAME>
8-(hydroxymethyl)-4b,8-dimethyl-2-propan-2-yl-5,6,7,8a,9,10-hexahydrophenanthren-3-ol

> <PUBCHEM_IUPAC_TRADITIONAL_NAME>
2-isopropyl-4b,8-dimethyl-8-methylol-5,6,7,8a,9,10-hexahydrophenanthren-3-ol

> <PUBCHEM_IUPAC_INCHI>
InChI=1S/C20H30O2/c1-13(2)15-10-14-6-7-18-19(3,12-21)8-5-9-20(18,4)16(14)11-17(15)22/h10-11,13,18,21-22H,5-9,12H2,1-4H3

> <PUBCHEM_IUPAC_INCHIKEY>
ZSMYLYMVTJVQIR-UHFFFAOYSA-N

> <PUBCHEM_XLOGP3_AA>
5.3

> <PUBCHEM_EXACT_MASS>
302.22458

> <PUBCHEM_MOLECULAR_FORMULA>
C20H30O2

> <PUBCHEM_MOLECULAR_WEIGHT>
302.451

> <PUBCHEM_OPENEYE_CAN_SMILES>
CC(C)C1=C(C=C2C(=C1)CCC3C2(CCCC3(C)CO)C)O

> <PUBCHEM_OPENEYE_ISO_SMILES>
CC(C)C1=C(C=C2C(=C1)CCC3C2(CCCC3(C)CO)C)O

> <PUBCHEM_CACTVS_TPSA>
40.5

> <PUBCHEM_MONOISOTOPIC_WEIGHT>
302.22458

> <PUBCHEM_TOTAL_CHARGE>
0

> <PUBCHEM_HEAVY_ATOM_COUNT>
22

> <PUBCHEM_ATOM_DEF_STEREO_COUNT>
0

> <PUBCHEM_ATOM_UDEF_STEREO_COUNT>
3

> <PUBCHEM_BOND_DEF_STEREO_COUNT>
0

> <PUBCHEM_BOND_UDEF_STEREO_COUNT>
0

> <PUBCHEM_ISOTOPIC_ATOM_COUNT>
0

> <PUBCHEM_COMPONENT_COUNT>
1

> <PUBCHEM_CACTVS_TAUTO_COUNT>
3

> <PUBCHEM_COORDINATE_TYPE>
1
5
255

> <PUBCHEM_BONDANNOTATIONS>
10  15  8
10  16  8
15  17  8
16  19  8
17  18  8
18  19  8
3  8  3
4  12  3
5  14  3

$$$$

