   Color/Form

     * HEXAGONAL PLATES OR PRISMS
     * COLORLESS CRYSTALS

   from [1]HSDB

   Taste

     * SWEETISH TASTE, INSIPID AFTERTASTE
     * Sweet

   from [2]HSDB

   Melting Point
        228 deg C (decomposes)
   from [3]HSDB

   Density/Specific Gravity
        1.6 g/cu cm @ 22 deg C
   from [4]HSDB

   Dissociation Constants
        pKa = 2.21; pKb = 9.15
   from [5]HSDB

   Octanol/Water Partition Coefficient
        LogP = -3.07
   from [6]HSDB

   Solubilities

     * SOL IN WATER; PRACTICALLY INSOL IN ABSOLUTE ALCOHOL, ETHER
     * INSOL IN BENZENE, ETHER, ETHANOL
     * Water solubility = 425 g/L at 25 deg C

   from [7]HSDB

   Spectral Properties

     * SPECIFIC OPTICAL ROTATION: -6.83 DEG @ 20 DEG C/D (1.5 G IN 15 G AQ
       SOLN); +14.45 DEG @ 25 DEG C/D (C= 0.5 G IN 5.6 NORMAL HCL)
     * IR: 1593 (Sadtler Research Laboratories IR Grating Collection)
     * NMR: 9189 (Sadtler Research Laboratories Spectral Collection)
     * MASS: 4017 (National Bureau of Standards EPA-NIH Mass Spectra Data
       Base, NSRDS-NBS-63)

   from [8]HSDB

   Other Chemical/Physical Properties

     * DECOMPOSES @ 228 DEG C; SUBLIMES @ 150 DEG C IN HIGH VACUUM (10-4
       MM HG); MOLECULAR ROTATION IN 5 N HCL +15.0 DEG
     * OPTICALLY ACTIVE
     * IR: 5566 (Sadtler Research Laboratories Prism Collection) /Serine
       (D)/
     * MASS: 4017 (National Bureau of Standards EPA-NIH Mass Spectra Data
       Base, NSRDS-NBS-63) /Serine (D)/
     * IR: 3338 (Coblentz Society Spectral Collection) /Serine (DL)/
     * UV: 1-14 (Organic Electronic Spectral Data, Phillips et al, John
       Wiley & Sons, New York) /Serine (DL)/
     * MASS: 109 (National Bureau of Standards EPA-NIH Mass Spectra Data
       Base, NSRDS-NBS-63) /Serine (DL)/
     * Water solubility (g/L) = 22.04 at 0 deg C, 50.23 at 25 deg C, 103
       at 50 deg C, 322 at 100 deg C /DL-serine/

   from [9]HSDB

   Computed Properties
   Molecular Weight                  105.09258 [g/mol]
   Molecular Formula                 C[3]H[7]NO[3]
   XLogP3                            -3.1
   H-Bond Donor                      3
   H-Bond Acceptor                   4
   Rotatable Bond Count              2
   Exact Mass                        105.042593
   MonoIsotopic Mass                 105.042593
   Topological Polar Surface Area    83.6
   Heavy Atom Count                  7
   Formal Charge                     0
   Complexity                        72.6
   Isotope Atom Count                0
   Defined Atom Stereocenter Count   1
   Undefined Atom Stereocenter Count 0
   Defined Bond Stereocenter Count   0
   Undefined Bond Stereocenter Count 0
   Covalently-Bonded Unit Count      1
   Feature 3D Acceptor Count         3
   Feature 3D Donor Count            2
   Feature 3D Anion Count            1
   Feature 3D Cation Count           1
   Effective Rotor Count             2
   Conformer Sampling RMSD           0.4
   CID Conformer Count               [10]9

References

   1. http://toxnet.nlm.nih.gov/cgi-bin/sis/search/r?dbs+hsdb:@term+@rn+@rel+56-45-1
   2. http://toxnet.nlm.nih.gov/cgi-bin/sis/search/r?dbs+hsdb:@term+@rn+@rel+56-45-1
   3. http://toxnet.nlm.nih.gov/cgi-bin/sis/search/r?dbs+hsdb:@term+@rn+@rel+56-45-1
   4. http://toxnet.nlm.nih.gov/cgi-bin/sis/search/r?dbs+hsdb:@term+@rn+@rel+56-45-1
   5. http://toxnet.nlm.nih.gov/cgi-bin/sis/search/r?dbs+hsdb:@term+@rn+@rel+56-45-1
   6. http://toxnet.nlm.nih.gov/cgi-bin/sis/search/r?dbs+hsdb:@term+@rn+@rel+56-45-1
   7. http://toxnet.nlm.nih.gov/cgi-bin/sis/search/r?dbs+hsdb:@term+@rn+@rel+56-45-1
   8. http://toxnet.nlm.nih.gov/cgi-bin/sis/search/r?dbs+hsdb:@term+@rn+@rel+56-45-1
   9. http://toxnet.nlm.nih.gov/cgi-bin/sis/search/r?dbs+hsdb:@term+@rn+@rel+56-45-1
  10. http://pubchem.ncbi.nlm.nih.gov/vw3d/vw3d.cgi?cid=5951
