854129
  -OEChem-06241222472D

 60 63  0     1  0  0  0  0  0999 V2000
   10.4586    0.0237    0.0000 O   0  0  0  0  0  0  0  0  0  0  0  0
   10.1642    1.9852    0.0000 O   0  0  0  0  0  0  0  0  0  0  0  0
    2.5357   -2.5286    0.0000 O   0  0  0  0  0  0  0  0  0  0  0  0
    7.9288   -0.4763    0.0000 C   0  0  2  0  0  0  0  0  0  0  0  0
    7.0628   -0.9763    0.0000 C   0  0  1  0  0  0  0  0  0  0  0  0
    7.9288    0.5237    0.0000 C   0  0  1  0  0  0  0  0  0  0  0  0
    6.1968   -0.4763    0.0000 C   0  0  2  0  0  0  0  0  0  0  0  0
    5.2868   -0.9832    0.0000 C   0  0  2  0  0  0  0  0  0  0  0  0
    8.8750    0.8284    0.0000 C   0  0  1  0  0  0  0  0  0  0  0  0
    5.2787   -2.0248    0.0000 C   0  0  2  0  0  0  0  0  0  0  0  0
    7.0628    1.0237    0.0000 C   0  0  0  0  0  0  0  0  0  0  0  0
    6.1968    0.5237    0.0000 C   0  0  0  0  0  0  0  0  0  0  0  0
    8.8750   -0.7810    0.0000 C   0  0  0  0  0  0  0  0  0  0  0  0
    7.0789   -2.0178    0.0000 C   0  0  0  0  0  0  0  0  0  0  0  0
    9.4586    0.0237    0.0000 C   0  0  2  0  0  0  0  0  0  0  0  0
    6.1808   -2.5456    0.0000 C   0  0  0  0  0  0  0  0  0  0  0  0
    4.3599   -0.4191    0.0000 C   0  0  0  0  0  0  0  0  0  0  0  0
    7.9288    1.5237    0.0000 C   0  0  0  0  0  0  0  0  0  0  0  0
    4.3433   -2.5745    0.0000 C   0  0  0  0  0  0  0  0  0  0  0  0
    5.2945    0.0168    0.0000 C   0  0  0  0  0  0  0  0  0  0  0  0
    9.1857    1.7789    0.0000 C   0  0  2  0  0  0  0  0  0  0  0  0
    3.4120   -0.9470    0.0000 C   0  0  0  0  0  0  0  0  0  0  0  0
    3.4037   -2.0320    0.0000 C   0  0  2  0  0  0  0  0  0  0  0  0
    8.5179    2.5232    0.0000 C   0  0  0  0  0  0  0  0  0  0  0  0
    8.0135   -1.2718    0.0000 H   0  0  0  0  0  0  0  0  0  0  0  0
    7.7587   -1.3710    0.0000 H   0  0  0  0  0  0  0  0  0  0  0  0
    6.8896   -0.0763    0.0000 H   0  0  0  0  0  0  0  0  0  0  0  0
    9.6654    0.9525    0.0000 H   0  0  0  0  0  0  0  0  0  0  0  0
    5.2818   -2.8248    0.0000 H   0  0  0  0  0  0  0  0  0  0  0  0
    7.4613    1.4986    0.0000 H   0  0  0  0  0  0  0  0  0  0  0  0
    6.6643    1.4986    0.0000 H   0  0  0  0  0  0  0  0  0  0  0  0
    5.5862    0.4160    0.0000 H   0  0  0  0  0  0  0  0  0  0  0  0
    5.9847    1.1063    0.0000 H   0  0  0  0  0  0  0  0  0  0  0  0
    8.6240   -1.3480    0.0000 H   0  0  0  0  0  0  0  0  0  0  0  0
    9.4124   -1.0903    0.0000 H   0  0  0  0  0  0  0  0  0  0  0  0
    7.6880   -1.9023    0.0000 H   0  0  0  0  0  0  0  0  0  0  0  0
    7.2969   -2.5982    0.0000 H   0  0  0  0  0  0  0  0  0  0  0  0
    9.7404    0.5760    0.0000 H   0  0  0  0  0  0  0  0  0  0  0  0
    6.5818   -3.0185    0.0000 H   0  0  0  0  0  0  0  0  0  0  0  0
    5.7835   -3.0215    0.0000 H   0  0  0  0  0  0  0  0  0  0  0  0
    3.9700    0.0630    0.0000 H   0  0  0  0  0  0  0  0  0  0  0  0
    4.7681    0.0476    0.0000 H   0  0  0  0  0  0  0  0  0  0  0  0
    7.3088    1.5237    0.0000 H   0  0  0  0  0  0  0  0  0  0  0  0
    7.9288    2.1437    0.0000 H   0  0  0  0  0  0  0  0  0  0  0  0
    8.5488    1.5237    0.0000 H   0  0  0  0  0  0  0  0  0  0  0  0
    3.9460   -3.0505    0.0000 H   0  0  0  0  0  0  0  0  0  0  0  0
    4.7443   -3.0474    0.0000 H   0  0  0  0  0  0  0  0  0  0  0  0
    4.6745    0.0216    0.0000 H   0  0  0  0  0  0  0  0  0  0  0  0
    5.2993    0.6368    0.0000 H   0  0  0  0  0  0  0  0  0  0  0  0
    5.9145    0.0120    0.0000 H   0  0  0  0  0  0  0  0  0  0  0  0
    9.3783    2.3683    0.0000 H   0  0  0  0  0  0  0  0  0  0  0  0
    2.8004   -1.0484    0.0000 H   0  0  0  0  0  0  0  0  0  0  0  0
    3.2075   -0.3617    0.0000 H   0  0  0  0  0  0  0  0  0  0  0  0
    2.8685   -1.7189    0.0000 H   0  0  0  0  0  0  0  0  0  0  0  0
   10.7687   -0.5132    0.0000 H   0  0  0  0  0  0  0  0  0  0  0  0
    8.9793    2.9373    0.0000 H   0  0  0  0  0  0  0  0  0  0  0  0
    8.1038    2.9847    0.0000 H   0  0  0  0  0  0  0  0  0  0  0  0
    8.0564    2.1092    0.0000 H   0  0  0  0  0  0  0  0  0  0  0  0
   10.3568    2.5745    0.0000 H   0  0  0  0  0  0  0  0  0  0  0  0
    2.0000   -2.2166    0.0000 H   0  0  0  0  0  0  0  0  0  0  0  0
 15  1  1  1  0  0  0
  1 55  1  0  0  0  0
 21  2  1  6  0  0  0
  2 59  1  0  0  0  0
 23  3  1  1  0  0  0
  3 60  1  0  0  0  0
  4  5  1  0  0  0  0
  4  6  1  0  0  0  0
  4 13  1  0  0  0  0
  4 25  1  1  0  0  0
  5  7  1  0  0  0  0
  5 14  1  0  0  0  0
  5 26  1  1  0  0  0
  6  9  1  0  0  0  0
  6 11  1  0  0  0  0
  6 18  1  1  0  0  0
  7  8  1  0  0  0  0
  7 12  1  0  0  0  0
  7 27  1  1  0  0  0
  8 10  1  0  0  0  0
  8 17  1  0  0  0  0
  8 20  1  1  0  0  0
  9 15  1  0  0  0  0
  9 21  1  0  0  0  0
  9 28  1  1  0  0  0
 10 16  1  0  0  0  0
 10 19  1  0  0  0  0
 10 29  1  1  0  0  0
 11 12  1  0  0  0  0
 11 30  1  0  0  0  0
 11 31  1  0  0  0  0
 12 32  1  0  0  0  0
 12 33  1  0  0  0  0
 13 15  1  0  0  0  0
 13 34  1  0  0  0  0
 13 35  1  0  0  0  0
 14 16  1  0  0  0  0
 14 36  1  0  0  0  0
 14 37  1  0  0  0  0
 15 38  1  0  0  0  0
 16 39  1  0  0  0  0
 16 40  1  0  0  0  0
 17 22  1  0  0  0  0
 17 41  1  0  0  0  0
 17 42  1  0  0  0  0
 18 43  1  0  0  0  0
 18 44  1  0  0  0  0
 18 45  1  0  0  0  0
 19 23  1  0  0  0  0
 19 46  1  0  0  0  0
 19 47  1  0  0  0  0
 20 48  1  0  0  0  0
 20 49  1  0  0  0  0
 20 50  1  0  0  0  0
 21 24  1  0  0  0  0
 21 51  1  0  0  0  0
 22 23  1  0  0  0  0
 22 52  1  0  0  0  0
 22 53  1  0  0  0  0
 23 54  1  0  0  0  0
 24 56  1  0  0  0  0
 24 57  1  0  0  0  0
 24 58  1  0  0  0  0
M  END
> <PUBCHEM_COMPOUND_CID>
854129

> <PUBCHEM_COMPOUND_CANONICALIZED>
1

> <PUBCHEM_CACTVS_COMPLEXITY>
494

> <PUBCHEM_CACTVS_HBOND_ACCEPTOR>
3

> <PUBCHEM_CACTVS_HBOND_DONOR>
3

> <PUBCHEM_CACTVS_ROTATABLE_BOND>
1

> <PUBCHEM_CACTVS_SUBSKEYS>
AAADcfB4MAAAAAAAAAAAAAAAAAAAAYAAAAAwYMAAAAAAAGDAAAAAGgAACAAADxSggAICAAAAAgAAAAAAAAAAAAAAAAAAAAAAAAAAEAIAAAAAQAAFAAAAAAGAwPAPgAAAAAAAAADAAAYAACAAAYAADAAAAA==

> <PUBCHEM_IUPAC_OPENEYE_NAME>
(3S,5R,8R,9R,10S,13S,14R,16S,17R)-17-[(1S)-1-hydroxyethyl]-10,13-dimethyl-2,3,4,5,6,7,8,9,11,12,14,15,16,17-tetradecahydro-1H-cyclopenta[a]phenanthrene-3,16-diol

> <PUBCHEM_IUPAC_CAS_NAME>
(3S,5R,8R,9R,10S,13S,14R,16S,17R)-17-[(1S)-1-hydroxyethyl]-10,13-dimethyl-2,3,4,5,6,7,8,9,11,12,14,15,16,17-tetradecahydro-1H-cyclopenta[a]phenanthrene-3,16-diol

> <PUBCHEM_IUPAC_NAME>
(3S,5R,8R,9R,10S,13S,14R,16S,17R)-17-[(1S)-1-hydroxyethyl]-10,13-dimethyl-2,3,4,5,6,7,8,9,11,12,14,15,16,17-tetradecahydro-1H-cyclopenta[a]phenanthrene-3,16-diol

> <PUBCHEM_IUPAC_SYSTEMATIC_NAME>
(3S,5R,8R,9R,10S,13S,14R,16S,17R)-10,13-dimethyl-17-[(1S)-1-oxidanylethyl]-2,3,4,5,6,7,8,9,11,12,14,15,16,17-tetradecahydro-1H-cyclopenta[a]phenanthrene-3,16-diol

> <PUBCHEM_IUPAC_TRADITIONAL_NAME>
(3S,5R,8R,9R,10S,13S,14R,16S,17R)-17-[(1S)-1-hydroxyethyl]-10,13-dimethyl-2,3,4,5,6,7,8,9,11,12,14,15,16,17-tetradecahydro-1H-cyclopenta[a]phenanthrene-3,16-diol

> <PUBCHEM_IUPAC_INCHI>
InChI=1S/C21H36O3/c1-12(22)19-18(24)11-17-15-5-4-13-10-14(23)6-8-20(13,2)16(15)7-9-21(17,19)3/h12-19,22-24H,4-11H2,1-3H3/t12-,13+,14-,15+,16+,17+,18-,19+,20-,21-/m0/s1

> <PUBCHEM_IUPAC_INCHIKEY>
PYSDRYREDSFAKC-HZNTUHISSA-N

> <PUBCHEM_XLOGP3_AA>
4.6

> <PUBCHEM_EXACT_MASS>
336.266445

> <PUBCHEM_MOLECULAR_FORMULA>
C21H36O3

> <PUBCHEM_MOLECULAR_WEIGHT>
336.50874

> <PUBCHEM_OPENEYE_CAN_SMILES>
CC(C1C(CC2C1(CCC3C2CCC4C3(CCC(C4)O)C)C)O)O

> <PUBCHEM_OPENEYE_ISO_SMILES>
C[C@@H]([C@@H]1[C@H](C[C@H]2[C@@]1(CC[C@@H]3[C@H]2CC[C@H]4[C@@]3(CC[C@@H](C4)O)C)C)O)O

> <PUBCHEM_CACTVS_TPSA>
60.7

> <PUBCHEM_MONOISOTOPIC_WEIGHT>
336.266445

> <PUBCHEM_TOTAL_CHARGE>
0

> <PUBCHEM_HEAVY_ATOM_COUNT>
24

> <PUBCHEM_ATOM_DEF_STEREO_COUNT>
10

> <PUBCHEM_ATOM_UDEF_STEREO_COUNT>
0

> <PUBCHEM_BOND_DEF_STEREO_COUNT>
0

> <PUBCHEM_BOND_UDEF_STEREO_COUNT>
0

> <PUBCHEM_ISOTOPIC_ATOM_COUNT>
0

> <PUBCHEM_COMPONENT_COUNT>
1

> <PUBCHEM_CACTVS_TAUTO_COUNT>
1

> <PUBCHEM_COORDINATE_TYPE>
1
5
255

> <PUBCHEM_BONDANNOTATIONS>
15  1  5
10  29  5
21  2  6
23  3  5
4  25  5
5  26  5
6  18  5
7  27  5
8  20  5
9  28  5

$$$$

