   Color/Form

     * CRYSTALS FROM DIL ALCOHOL
     * WHITE OR NEARLY WHITE, FINE, CRYSTALLINE POWDER

   from [1]HSDB

   Odor
        PRACTICALLY ODORLESS
   from [2]HSDB

   Taste
        SLIGHTLY BITTER; PLEASANT AFTERTASTE
   from [3]HSDB

   Melting Point
        194-196 DEG C
   from [4]HSDB

   Dissociation Constants

     * pKa= 5.8
     * pKa= 3.4

   from [5]HSDB

   Solubilities
        SOL IN DIL ALKALI, ALCOHOL, CHLOROFORM & ACETONE; PRACTICALLY
   INSOL IN WATER & DIL ACIDS
   from [6]HSDB

   Spectral Properties
        MAX ABSORPTION (BASE): 243 NM (A= 360, 1%, 1 CM), (ETHANOL): 227
   NM & 247 NM
   from [7]HSDB

   Other Chemical/Physical Properties
        FREELY SOL IN WATER /SODIUM SALT/
   from [8]HSDB

   Computed Properties
   Molecular Weight                  285.35926 [g/mol]
   Molecular Formula                 C[13]H[19]NO[4]S
   XLogP3                            3.2
   H-Bond Donor                      1
   H-Bond Acceptor                   5
   Rotatable Bond Count              7
   Exact Mass                        285.103479
   MonoIsotopic Mass                 285.103479
   Topological Polar Surface Area    83.1
   Heavy Atom Count                  19
   Formal Charge                     0
   Complexity                        374
   Isotope Atom Count                0
   Defined Atom Stereocenter Count   0
   Undefined Atom Stereocenter Count 0
   Defined Bond Stereocenter Count   0
   Undefined Bond Stereocenter Count 0
   Covalently-Bonded Unit Count      1
   Feature 3D Acceptor Count         4
   Feature 3D Anion Count            1
   Feature 3D Hydrophobe Count       2
   Feature 3D Ring Count             1
   Effective Rotor Count             7
   Conformer Sampling RMSD           0.8
   CID Conformer Count               [9]17

References

   1. http://toxnet.nlm.nih.gov/cgi-bin/sis/search/r?dbs+hsdb:@term+@rn+@rel+57-66-9
   2. http://toxnet.nlm.nih.gov/cgi-bin/sis/search/r?dbs+hsdb:@term+@rn+@rel+57-66-9
   3. http://toxnet.nlm.nih.gov/cgi-bin/sis/search/r?dbs+hsdb:@term+@rn+@rel+57-66-9
   4. http://toxnet.nlm.nih.gov/cgi-bin/sis/search/r?dbs+hsdb:@term+@rn+@rel+57-66-9
   5. http://toxnet.nlm.nih.gov/cgi-bin/sis/search/r?dbs+hsdb:@term+@rn+@rel+57-66-9
   6. http://toxnet.nlm.nih.gov/cgi-bin/sis/search/r?dbs+hsdb:@term+@rn+@rel+57-66-9
   7. http://toxnet.nlm.nih.gov/cgi-bin/sis/search/r?dbs+hsdb:@term+@rn+@rel+57-66-9
   8. http://toxnet.nlm.nih.gov/cgi-bin/sis/search/r?dbs+hsdb:@term+@rn+@rel+57-66-9
   9. http://pubchem.ncbi.nlm.nih.gov/vw3d/vw3d.cgi?cid=4911
