   Color/Form

     * White glistening hexagonal plates from aqueous alcohol
     * White crystals

   from [1]HSDB

   Boiling Point
        Sublimes at 145-148 deg C. Decomposes at 293-295 deg C (rapid
   heating, sealed tube)
   from [2]HSDB

   Melting Point
        293 deg C
   from [3]HSDB

   Density/Specific Gravity
        1.293 g/cu cm at 18 deg C
   from [4]HSDB

   Dissociation Constants

     * pKa = 2.35
     * pKa1 = 2.36 (carboxylic acid); pKa2 = 9.63 (amine) (est)

   from [5]HSDB

   Octanol/Water Partition Coefficient
        log Kow = -1.52
   from [6]HSDB

   Solubilities

     * Solubility in 99% alcohol: 0.72; in acetic acid: 10.9. Insoluble in
       ether.
     * Solubility in water (g/L): 22.7 (0 deg C); 24.26 (25 deg C); 28.87
       (50 deg C); 38.23 (75 deg C); 56.38 (100 deg C)
     * In water, 2.15X10+4 mg/L at 25 deg C

   from [7]HSDB

   Spectral Properties

     * Specific optical rotation: -10.8 at 25 deg C/D (c = 2.2); +15.1 deg
       at 26 deg C/D in 6N HCl (38 mols HCl per mol leucine); +7.6 deg at
       20 deg C/D in 3N NaOH (30 mols NaOH per mol leucine). Molecular
       rotation: +21.0 deg at /D (5NHCl); +29.5 deg /D (glacial acetic
       acid)
     * MASS: 27147 (NIST/EPA/MSDC Mass Spectral Database, 1990 version)
     * UV: 1-113 (Phillip et al., Organic Electronic Spectral Data, John
       Wiley & Sons, New York))
     * Raman: 427 (Sadtler Research Laboratories spectral collection)

   from [8]HSDB

   Vapor Pressure
        5.52X10-9 mm Hg at 25 deg C (est)
   from [9]HSDB

   Other Chemical/Physical Properties

     * Leaflets from water. Sweet taste. Decomposes at 232 deg C (also
       reported as 290 deg C). Sublimes. pK1 = 2.36; pK2 = 9.60.
       Solubility in water (g/L): 7.97 (0 deg C); 9.91 (25 deg C); 14.06
       (50 deg C); 22.76 (75 deg C); 42.06 (100 deg C); in 90% alcohol:
       1.3. Insoluble in ether. /Leucine DL-form/
     * Crystals. Freely soluble in water. /Leucine hydrochloride/
     * Henry's Law constant = 3.49X10-9 atm-cu m/mol at 25 deg C (est)
     * Hydroxyl radical reaction rate constant = 4.23X10-11 cu
       cm/molec-sec at 25 deg C (est)

   from [10]HSDB

   Computed Properties
   Molecular Weight                  131.17292 [g/mol]
   Molecular Formula                 C[6]H[13]NO[2]
   XLogP3                            -1.5
   H-Bond Donor                      2
   H-Bond Acceptor                   3
   Rotatable Bond Count              3
   Exact Mass                        131.094629
   MonoIsotopic Mass                 131.094629
   Topological Polar Surface Area    63.3
   Heavy Atom Count                  9
   Formal Charge                     0
   Complexity                        101
   Isotope Atom Count                0
   Defined Atom Stereocenter Count   1
   Undefined Atom Stereocenter Count 0
   Defined Bond Stereocenter Count   0
   Undefined Bond Stereocenter Count 0
   Covalently-Bonded Unit Count      1
   Feature 3D Acceptor Count         2
   Feature 3D Donor Count            1
   Feature 3D Anion Count            1
   Feature 3D Cation Count           1
   Feature 3D Hydrophobe Count       1
   Effective Rotor Count             3
   Conformer Sampling RMSD           0.6
   CID Conformer Count               [11]3

References

   1. http://toxnet.nlm.nih.gov/cgi-bin/sis/search/r?dbs+hsdb:@term+@rn+@rel+61-90-5
   2. http://toxnet.nlm.nih.gov/cgi-bin/sis/search/r?dbs+hsdb:@term+@rn+@rel+61-90-5
   3. http://toxnet.nlm.nih.gov/cgi-bin/sis/search/r?dbs+hsdb:@term+@rn+@rel+61-90-5
   4. http://toxnet.nlm.nih.gov/cgi-bin/sis/search/r?dbs+hsdb:@term+@rn+@rel+61-90-5
   5. http://toxnet.nlm.nih.gov/cgi-bin/sis/search/r?dbs+hsdb:@term+@rn+@rel+61-90-5
   6. http://toxnet.nlm.nih.gov/cgi-bin/sis/search/r?dbs+hsdb:@term+@rn+@rel+61-90-5
   7. http://toxnet.nlm.nih.gov/cgi-bin/sis/search/r?dbs+hsdb:@term+@rn+@rel+61-90-5
   8. http://toxnet.nlm.nih.gov/cgi-bin/sis/search/r?dbs+hsdb:@term+@rn+@rel+61-90-5
   9. http://toxnet.nlm.nih.gov/cgi-bin/sis/search/r?dbs+hsdb:@term+@rn+@rel+61-90-5
  10. http://toxnet.nlm.nih.gov/cgi-bin/sis/search/r?dbs+hsdb:@term+@rn+@rel+61-90-5
  11. http://pubchem.ncbi.nlm.nih.gov/vw3d/vw3d.cgi?cid=6106
