47205014
  -OEChem-06241222572D

 32 33  0     0  0  0  0  0  0999 V2000
   10.4607    1.2834    0.0000 S   0  0  0  0  0  0  0  0  0  0  0  0
    6.4712   -1.0027    0.0000 O   0  0  0  0  0  0  0  0  0  0  0  0
    5.3122    0.2845    0.0000 N   0  0  0  0  0  0  0  0  0  0  0  0
    2.8090   -0.6634    0.0000 N   0  0  0  0  0  0  0  0  0  0  0  0
    2.0000   -0.0757    0.0000 N   0  0  0  0  0  0  0  0  0  0  0  0
    7.9575    0.3355    0.0000 C   0  0  0  0  0  0  0  0  0  0  0  0
    8.7006    1.0047    0.0000 C   0  0  0  0  0  0  0  0  0  0  0  0
    7.0064    0.6446    0.0000 C   0  0  0  0  0  0  0  0  0  0  0  0
    9.6517    0.6957    0.0000 C   0  0  0  0  0  0  0  0  0  0  0  0
    6.2633   -0.0246    0.0000 C   0  0  0  0  0  0  0  0  0  0  0  0
    4.5691   -0.3847    0.0000 C   0  0  0  0  0  0  0  0  0  0  0  0
    3.6180   -0.0757    0.0000 C   0  0  0  0  0  0  0  0  0  0  0  0
    9.9607   -0.2554    0.0000 C   0  0  0  0  0  0  0  0  0  0  0  0
    3.3090    0.8754    0.0000 C   0  0  0  0  0  0  0  0  0  0  0  0
   10.9607   -0.2554    0.0000 C   0  0  0  0  0  0  0  0  0  0  0  0
   11.2697    0.6957    0.0000 C   0  0  0  0  0  0  0  0  0  0  0  0
    2.3090    0.8754    0.0000 C   0  0  0  0  0  0  0  0  0  0  0  0
    7.6664   -0.2119    0.0000 H   0  0  0  0  0  0  0  0  0  0  0  0
    8.4461   -0.0462    0.0000 H   0  0  0  0  0  0  0  0  0  0  0  0
    8.9917    1.5521    0.0000 H   0  0  0  0  0  0  0  0  0  0  0  0
    8.2121    1.3864    0.0000 H   0  0  0  0  0  0  0  0  0  0  0  0
    7.2975    1.1920    0.0000 H   0  0  0  0  0  0  0  0  0  0  0  0
    6.5179    1.0263    0.0000 H   0  0  0  0  0  0  0  0  0  0  0  0
    4.2780   -0.9321    0.0000 H   0  0  0  0  0  0  0  0  0  0  0  0
    5.0577   -0.7664    0.0000 H   0  0  0  0  0  0  0  0  0  0  0  0
    5.1833    0.8909    0.0000 H   0  0  0  0  0  0  0  0  0  0  0  0
    9.5963   -0.7570    0.0000 H   0  0  0  0  0  0  0  0  0  0  0  0
    3.6734    1.3770    0.0000 H   0  0  0  0  0  0  0  0  0  0  0  0
   11.3251   -0.7570    0.0000 H   0  0  0  0  0  0  0  0  0  0  0  0
    2.8090   -1.2834    0.0000 H   0  0  0  0  0  0  0  0  0  0  0  0
   11.8594    0.8873    0.0000 H   0  0  0  0  0  0  0  0  0  0  0  0
    1.9446    1.3770    0.0000 H   0  0  0  0  0  0  0  0  0  0  0  0
  1  9  1  0  0  0  0
  1 16  1  0  0  0  0
  2 10  2  0  0  0  0
  3 10  1  0  0  0  0
  3 11  1  0  0  0  0
  3 26  1  0  0  0  0
  4  5  1  0  0  0  0
  4 12  1  0  0  0  0
  4 30  1  0  0  0  0
  5 17  2  0  0  0  0
  6  7  1  0  0  0  0
  6  8  1  0  0  0  0
  6 18  1  0  0  0  0
  6 19  1  0  0  0  0
  7  9  1  0  0  0  0
  7 20  1  0  0  0  0
  7 21  1  0  0  0  0
  8 10  1  0  0  0  0
  8 22  1  0  0  0  0
  8 23  1  0  0  0  0
  9 13  2  0  0  0  0
 11 12  1  0  0  0  0
 11 24  1  0  0  0  0
 11 25  1  0  0  0  0
 12 14  2  0  0  0  0
 13 15  1  0  0  0  0
 13 27  1  0  0  0  0
 14 17  1  0  0  0  0
 14 28  1  0  0  0  0
 15 16  2  0  0  0  0
 15 29  1  0  0  0  0
 16 31  1  0  0  0  0
 17 32  1  0  0  0  0
M  END
> <PUBCHEM_COMPOUND_CID>
47205014

> <PUBCHEM_COMPOUND_CANONICALIZED>
1

> <PUBCHEM_CACTVS_COMPLEXITY>
250

> <PUBCHEM_CACTVS_HBOND_ACCEPTOR>
3

> <PUBCHEM_CACTVS_HBOND_DONOR>
2

> <PUBCHEM_CACTVS_ROTATABLE_BOND>
6

> <PUBCHEM_CACTVS_SUBSKEYS>
AAADccBzIABAAAAAAAAAAAAAAAAAAWJAAAAAAAAAAAAAAAAB4AAAHgQYAAAACAjF1gS8gZLjAAiuATV3UACTBIAgihBYubk4ZJgIYLKg0dGUhAhgngCoyAcYiICAAAAAAAAAAAAAAAAAAAAAAAAAAAAAAA==

> <PUBCHEM_IUPAC_OPENEYE_NAME>
N-(1H-pyrazol-5-ylmethyl)-4-(2-thienyl)butanamide

> <PUBCHEM_IUPAC_CAS_NAME>
N-(1H-pyrazol-5-ylmethyl)-4-thiophen-2-ylbutanamide

> <PUBCHEM_IUPAC_NAME>
N-(1H-pyrazol-5-ylmethyl)-4-thiophen-2-ylbutanamide

> <PUBCHEM_IUPAC_SYSTEMATIC_NAME>
N-(1H-pyrazol-5-ylmethyl)-4-thiophen-2-yl-butanamide

> <PUBCHEM_IUPAC_TRADITIONAL_NAME>
N-(1H-pyrazol-5-ylmethyl)-4-(2-thienyl)butyramide

> <PUBCHEM_IUPAC_INCHI>
InChI=1S/C12H15N3OS/c16-12(13-9-10-6-7-14-15-10)5-1-3-11-4-2-8-17-11/h2,4,6-8H,1,3,5,9H2,(H,13,16)(H,14,15)

> <PUBCHEM_IUPAC_INCHIKEY>
YYRCHJAYUJZFPI-UHFFFAOYSA-N

> <PUBCHEM_XLOGP3_AA>
1.3

> <PUBCHEM_EXACT_MASS>
249.093583

> <PUBCHEM_MOLECULAR_FORMULA>
C12H15N3OS

> <PUBCHEM_MOLECULAR_WEIGHT>
249.332

> <PUBCHEM_OPENEYE_CAN_SMILES>
C1=CSC(=C1)CCCC(=O)NCC2=CC=NN2

> <PUBCHEM_OPENEYE_ISO_SMILES>
C1=CSC(=C1)CCCC(=O)NCC2=CC=NN2

> <PUBCHEM_CACTVS_TPSA>
86

> <PUBCHEM_MONOISOTOPIC_WEIGHT>
249.093583

> <PUBCHEM_TOTAL_CHARGE>
0

> <PUBCHEM_HEAVY_ATOM_COUNT>
17

> <PUBCHEM_ATOM_DEF_STEREO_COUNT>
0

> <PUBCHEM_ATOM_UDEF_STEREO_COUNT>
0

> <PUBCHEM_BOND_DEF_STEREO_COUNT>
0

> <PUBCHEM_BOND_UDEF_STEREO_COUNT>
0

> <PUBCHEM_ISOTOPIC_ATOM_COUNT>
0

> <PUBCHEM_COMPONENT_COUNT>
1

> <PUBCHEM_CACTVS_TAUTO_COUNT>
4

> <PUBCHEM_COORDINATE_TYPE>
1
5
255

> <PUBCHEM_BONDANNOTATIONS>
1  16  8
1  9  8
12  14  8
13  15  8
14  17  8
15  16  8
4  12  8
4  5  8
5  17  8
9  13  8

$$$$

