52998
  -OEChem-07051213132D

 38 39  0     0  0  0  0  0  0999 V2000
    5.1350   -1.2500    0.0000 S   0  0  0  0  0  0  0  0  0  0  0  0
    6.1350   -1.2500    0.0000 O   0  0  0  0  0  0  0  0  0  0  0  0
    4.1350   -1.2500    0.0000 O   0  0  0  0  0  0  0  0  0  0  0  0
    2.5369   -2.7500    0.0000 O   0  0  0  0  0  0  0  0  0  0  0  0
    6.8671   -0.2500    0.0000 O   0  0  0  0  0  0  0  0  0  0  0  0
    3.4030   -1.2500    0.0000 O   0  0  0  0  0  0  0  0  0  0  0  0
    5.1350   -0.2500    0.0000 N   0  0  0  0  0  0  0  0  0  0  0  0
    6.0010    1.2500    0.0000 N   0  0  0  0  0  0  0  0  0  0  0  0
    7.7331    1.2500    0.0000 N   0  0  0  0  0  0  0  0  0  0  0  0
    6.8671    2.7500    0.0000 N   0  0  0  0  0  0  0  0  0  0  0  0
    5.1350   -2.2500    0.0000 C   0  0  0  0  0  0  0  0  0  0  0  0
    4.2690   -2.7500    0.0000 C   0  0  0  0  0  0  0  0  0  0  0  0
    6.0010   -2.7500    0.0000 C   0  0  0  0  0  0  0  0  0  0  0  0
    4.2690   -3.7500    0.0000 C   0  0  0  0  0  0  0  0  0  0  0  0
    6.0010   -3.7500    0.0000 C   0  0  0  0  0  0  0  0  0  0  0  0
    5.1350   -4.2500    0.0000 C   0  0  0  0  0  0  0  0  0  0  0  0
    6.0010    0.2500    0.0000 C   0  0  0  0  0  0  0  0  0  0  0  0
    6.8671    1.7500    0.0000 C   0  0  0  0  0  0  0  0  0  0  0  0
    3.4030   -2.2500    0.0000 C   0  0  0  0  0  0  0  0  0  0  0  0
    8.5991    1.7500    0.0000 C   0  0  0  0  0  0  0  0  0  0  0  0
    7.7331    3.2500    0.0000 C   0  0  0  0  0  0  0  0  0  0  0  0
    8.5991    2.7500    0.0000 C   0  0  0  0  0  0  0  0  0  0  0  0
    9.4651    1.2500    0.0000 C   0  0  0  0  0  0  0  0  0  0  0  0
    7.7331    4.2500    0.0000 C   0  0  0  0  0  0  0  0  0  0  0  0
    6.5380   -2.4400    0.0000 H   0  0  0  0  0  0  0  0  0  0  0  0
    4.5981    0.0600    0.0000 H   0  0  0  0  0  0  0  0  0  0  0  0
    3.7320   -4.0600    0.0000 H   0  0  0  0  0  0  0  0  0  0  0  0
    6.5380   -4.0600    0.0000 H   0  0  0  0  0  0  0  0  0  0  0  0
    5.1350   -4.8700    0.0000 H   0  0  0  0  0  0  0  0  0  0  0  0
    5.4641    1.5600    0.0000 H   0  0  0  0  0  0  0  0  0  0  0  0
    9.1360    3.0600    0.0000 H   0  0  0  0  0  0  0  0  0  0  0  0
    9.1551    0.7131    0.0000 H   0  0  0  0  0  0  0  0  0  0  0  0
   10.0021    0.9400    0.0000 H   0  0  0  0  0  0  0  0  0  0  0  0
    9.7751    1.7869    0.0000 H   0  0  0  0  0  0  0  0  0  0  0  0
    8.3531    4.2500    0.0000 H   0  0  0  0  0  0  0  0  0  0  0  0
    7.7331    4.8700    0.0000 H   0  0  0  0  0  0  0  0  0  0  0  0
    7.1131    4.2500    0.0000 H   0  0  0  0  0  0  0  0  0  0  0  0
    2.0000   -2.4400    0.0000 H   0  0  0  0  0  0  0  0  0  0  0  0
  1  2  2  0  0  0  0
  1  3  2  0  0  0  0
  1  7  1  0  0  0  0
  1 11  1  0  0  0  0
  4 19  1  0  0  0  0
  4 38  1  0  0  0  0
  5 17  2  0  0  0  0
  6 19  2  0  0  0  0
  7 17  1  0  0  0  0
  7 26  1  0  0  0  0
  8 17  1  0  0  0  0
  8 18  1  0  0  0  0
  8 30  1  0  0  0  0
  9 18  1  0  0  0  0
  9 20  2  0  0  0  0
 10 18  2  0  0  0  0
 10 21  1  0  0  0  0
 11 12  1  0  0  0  0
 11 13  2  0  0  0  0
 12 14  2  0  0  0  0
 12 19  1  0  0  0  0
 13 15  1  0  0  0  0
 13 25  1  0  0  0  0
 14 16  1  0  0  0  0
 14 27  1  0  0  0  0
 15 16  2  0  0  0  0
 15 28  1  0  0  0  0
 16 29  1  0  0  0  0
 20 22  1  0  0  0  0
 20 23  1  0  0  0  0
 21 22  2  0  0  0  0
 21 24  1  0  0  0  0
 22 31  1  0  0  0  0
 23 32  1  0  0  0  0
 23 33  1  0  0  0  0
 23 34  1  0  0  0  0
 24 35  1  0  0  0  0
 24 36  1  0  0  0  0
 24 37  1  0  0  0  0
M  END
> <PUBCHEM_COMPOUND_CID>
52998

> <PUBCHEM_COMPOUND_CANONICALIZED>
1

> <PUBCHEM_CACTVS_COMPLEXITY>
566

> <PUBCHEM_CACTVS_HBOND_ACCEPTOR>
7

> <PUBCHEM_CACTVS_HBOND_DONOR>
3

> <PUBCHEM_CACTVS_ROTATABLE_BOND>
4

> <PUBCHEM_CACTVS_SUBSKEYS>
AAADccBzuABAAAAAAAAAAAAAAAAAAAAAAAA8QAAAAAAAAAABwAAAHgQQSAAADAiB3gAzmZbIEgKoAyTyfHDCgDklAqAJmDkwbNiILjLA3dCEdQhswQNI2aeIyCCOAAAAAAAEAAAAAAAAAAgAAAAAAAAAAA==

> <PUBCHEM_IUPAC_OPENEYE_NAME>
2-[(4,6-dimethylpyrimidin-2-yl)carbamoylsulfamoyl]benzoic acid

> <PUBCHEM_IUPAC_CAS_NAME>
2-[[[(4,6-dimethyl-2-pyrimidinyl)amino]-oxomethyl]sulfamoyl]benzoic acid

> <PUBCHEM_IUPAC_NAME>
2-[(4,6-dimethylpyrimidin-2-yl)carbamoylsulfamoyl]benzoic acid

> <PUBCHEM_IUPAC_SYSTEMATIC_NAME>
2-[(4,6-dimethylpyrimidin-2-yl)carbamoylsulfamoyl]benzoic acid

> <PUBCHEM_IUPAC_TRADITIONAL_NAME>
2-[(4,6-dimethylpyrimidin-2-yl)carbamoylsulfamoyl]benzoic acid

> <PUBCHEM_IUPAC_INCHI>
InChI=1S/C14H14N4O5S/c1-8-7-9(2)16-13(15-8)17-14(21)18-24(22,23)11-6-4-3-5-10(11)12(19)20/h3-7H,1-2H3,(H,19,20)(H2,15,16,17,18,21)

> <PUBCHEM_IUPAC_INCHIKEY>
FZMKKCQHDROFNI-UHFFFAOYSA-N

> <PUBCHEM_XLOGP3_AA>
1.5

> <PUBCHEM_EXACT_MASS>
350.068491

> <PUBCHEM_MOLECULAR_FORMULA>
C14H14N4O5S

> <PUBCHEM_MOLECULAR_WEIGHT>
350.34976

> <PUBCHEM_OPENEYE_CAN_SMILES>
CC1=CC(=NC(=N1)NC(=O)NS(=O)(=O)C2=CC=CC=C2C(=O)O)C

> <PUBCHEM_OPENEYE_ISO_SMILES>
CC1=CC(=NC(=N1)NC(=O)NS(=O)(=O)C2=CC=CC=C2C(=O)O)C

> <PUBCHEM_CACTVS_TPSA>
147

> <PUBCHEM_MONOISOTOPIC_WEIGHT>
350.068491

> <PUBCHEM_TOTAL_CHARGE>
0

> <PUBCHEM_HEAVY_ATOM_COUNT>
24

> <PUBCHEM_ATOM_DEF_STEREO_COUNT>
0

> <PUBCHEM_ATOM_UDEF_STEREO_COUNT>
0

> <PUBCHEM_BOND_DEF_STEREO_COUNT>
0

> <PUBCHEM_BOND_UDEF_STEREO_COUNT>
0

> <PUBCHEM_ISOTOPIC_ATOM_COUNT>
0

> <PUBCHEM_COMPONENT_COUNT>
1

> <PUBCHEM_CACTVS_TAUTO_COUNT>
13

> <PUBCHEM_COORDINATE_TYPE>
1
5
255

> <PUBCHEM_BONDANNOTATIONS>
10  18  8
10  21  8
11  12  8
11  13  8
12  14  8
13  15  8
14  16  8
15  16  8
20  22  8
21  22  8
9  18  8
9  20  8

$$$$

