   Color/Form
        COLORLESS LIQUID
   from [1]HSDB

   Boiling Point
        219 DEG C
   from [2]HSDB

   Density/Specific Gravity
        2.120 @ 20 DEG C/4 DEG C
   from [3]HSDB

   Solubilities

     * SOL IN ACETONE, ALCOHOL, ETHER, BENZENE
     * In water, 5.20X10+4 mg/l @ 25 deg C.

   from [4]HSDB

   Vapor Pressure
        0.09 mm Hg @ 25 deg C
   from [5]HSDB

   Computed Properties
   Molecular Weight                  217.88714 [g/mol]
   Molecular Formula                 C[3]H[6]Br[2]O
   XLogP3-AA                         1.1
   H-Bond Donor                      1
   H-Bond Acceptor                   1
   Rotatable Bond Count              2
   Exact Mass                        217.876493
   MonoIsotopic Mass                 215.878539
   Topological Polar Surface Area    20.2
   Heavy Atom Count                  6
   Formal Charge                     0
   Complexity                        32
   Isotope Atom Count                0
   Defined Atom Stereocenter Count   0
   Undefined Atom Stereocenter Count 1
   Defined Bond Stereocenter Count   0
   Undefined Bond Stereocenter Count 0
   Covalently-Bonded Unit Count      1
   Feature 3D Acceptor Count         1
   Feature 3D Donor Count            1
   Feature 3D Hydrophobe Count       2
   Effective Rotor Count             2
   Conformer Sampling RMSD           0.4
   CID Conformer Count               [6]18

References

   1. http://toxnet.nlm.nih.gov/cgi-bin/sis/search/r?dbs+hsdb:@term+@rn+@rel+96-13-9
   2. http://toxnet.nlm.nih.gov/cgi-bin/sis/search/r?dbs+hsdb:@term+@rn+@rel+96-13-9
   3. http://toxnet.nlm.nih.gov/cgi-bin/sis/search/r?dbs+hsdb:@term+@rn+@rel+96-13-9
   4. http://toxnet.nlm.nih.gov/cgi-bin/sis/search/r?dbs+hsdb:@term+@rn+@rel+96-13-9
   5. http://toxnet.nlm.nih.gov/cgi-bin/sis/search/r?dbs+hsdb:@term+@rn+@rel+96-13-9
   6. http://pubchem.ncbi.nlm.nih.gov/vw3d/vw3d.cgi?cid=7281
