23697355
  -OEChem-07051212482D

 24 24  0     0  0  0  0  0  0999 V2000
    2.0000   -2.5000    0.0000 Cl  0  0  0  0  0  0  0  0  0  0  0  0
    5.4641   -2.5000    0.0000 Cl  0  0  0  0  0  0  0  0  0  0  0  0
    7.1962    3.5000    0.0000 Na  0  3  0  0  0  0  0  0  0  0  0  0
    7.1962    2.5000    0.0000 O   0  5  0  0  0  0  0  0  0  0  0  0
    3.7320   -3.5000    0.0000 O   0  0  0  0  0  0  0  0  0  0  0  0
    3.7320    0.5000    0.0000 N   0  0  0  0  0  0  0  0  0  0  0  0
    3.7320   -0.5000    0.0000 C   0  0  0  0  0  0  0  0  0  0  0  0
    4.5981    1.0000    0.0000 C   0  0  0  0  0  0  0  0  0  0  0  0
    4.5981   -1.0000    0.0000 C   0  0  0  0  0  0  0  0  0  0  0  0
    2.8660   -1.0000    0.0000 C   0  0  0  0  0  0  0  0  0  0  0  0
    5.4641    0.5000    0.0000 C   0  0  0  0  0  0  0  0  0  0  0  0
    4.5981    2.0000    0.0000 C   0  0  0  0  0  0  0  0  0  0  0  0
    4.5981   -2.0000    0.0000 C   0  0  0  0  0  0  0  0  0  0  0  0
    2.8660   -2.0000    0.0000 C   0  0  0  0  0  0  0  0  0  0  0  0
    6.3301    1.0000    0.0000 C   0  0  0  0  0  0  0  0  0  0  0  0
    5.4641    2.5000    0.0000 C   0  0  0  0  0  0  0  0  0  0  0  0
    6.3301    2.0000    0.0000 C   0  0  0  0  0  0  0  0  0  0  0  0
    3.7320   -2.5000    0.0000 C   0  0  0  0  0  0  0  0  0  0  0  0
    5.1350   -0.6900    0.0000 H   0  0  0  0  0  0  0  0  0  0  0  0
    2.3291   -0.6900    0.0000 H   0  0  0  0  0  0  0  0  0  0  0  0
    5.4641   -0.1200    0.0000 H   0  0  0  0  0  0  0  0  0  0  0  0
    4.0611    2.3100    0.0000 H   0  0  0  0  0  0  0  0  0  0  0  0
    6.8671    0.6900    0.0000 H   0  0  0  0  0  0  0  0  0  0  0  0
    5.4641    3.1200    0.0000 H   0  0  0  0  0  0  0  0  0  0  0  0
  1 14  1  0  0  0  0
  2 13  1  0  0  0  0
  4 17  1  0  0  0  0
  5 18  2  0  0  0  0
  6  7  2  0  0  0  0
  6  8  1  0  0  0  0
  7  9  1  0  0  0  0
  7 10  1  0  0  0  0
  8 11  2  0  0  0  0
  8 12  1  0  0  0  0
  9 13  2  0  0  0  0
  9 19  1  0  0  0  0
 10 14  2  0  0  0  0
 10 20  1  0  0  0  0
 11 15  1  0  0  0  0
 11 21  1  0  0  0  0
 12 16  2  0  0  0  0
 12 22  1  0  0  0  0
 13 18  1  0  0  0  0
 14 18  1  0  0  0  0
 15 17  2  0  0  0  0
 15 23  1  0  0  0  0
 16 17  1  0  0  0  0
 16 24  1  0  0  0  0
M  CHG  2   3   1   4  -1
M  END
> <PUBCHEM_COMPOUND_CID>
23697355

> <PUBCHEM_COMPOUND_CANONICALIZED>
1

> <PUBCHEM_CACTVS_COMPLEXITY>
400

> <PUBCHEM_CACTVS_HBOND_ACCEPTOR>
3

> <PUBCHEM_CACTVS_HBOND_DONOR>
0

> <PUBCHEM_CACTVS_ROTATABLE_BOND>
1

> <PUBCHEM_CACTVS_SUBSKEYS>
AAADcYByMCAGAAAAAAAAAAAAAAAAAAAAAAAwQAAAAAAAAAABAAAAHgIAAAAACA6BkAAwxoIAAACoAaRyRACCAAAgIgAIiAAWbthIJiKAkZOAMABkwBEIyYewQAAAAEAAAAAAAAAAgAAAAAAAAAAAAAAAAA==

> <PUBCHEM_IUPAC_OPENEYE_NAME>
sodium 4-[(3,5-dichloro-4-oxo-cyclohexa-2,5-dien-1-ylidene)amino]phenolate

> <PUBCHEM_IUPAC_CAS_NAME>
sodium 4-[(3,5-dichloro-4-oxo-1-cyclohexa-2,5-dienylidene)amino]phenolate

> <PUBCHEM_IUPAC_NAME>
sodium 4-[(3,5-dichloro-4-oxocyclohexa-2,5-dien-1-ylidene)amino]phenolate

> <PUBCHEM_IUPAC_SYSTEMATIC_NAME>
sodium 4-[[3,5-bis(chloranyl)-4-oxidanylidene-cyclohexa-2,5-dien-1-ylidene]amino]phenolate

> <PUBCHEM_IUPAC_TRADITIONAL_NAME>
sodium 4-[(3,5-dichloro-4-keto-cyclohexa-2,5-dien-1-ylidene)amino]phenolate

> <PUBCHEM_IUPAC_INCHI>
InChI=1S/C12H7Cl2NO2.Na/c13-10-5-8(6-11(14)12(10)17)15-7-1-3-9(16)4-2-7;/h1-6,16H;/q;+1/p-1

> <PUBCHEM_IUPAC_INCHIKEY>
CVSUAFOWIXUYQA-UHFFFAOYSA-M

> <PUBCHEM_EXACT_MASS>
288.967328

> <PUBCHEM_MOLECULAR_FORMULA>
C12H6Cl2NNaO2

> <PUBCHEM_MOLECULAR_WEIGHT>
290.077309

> <PUBCHEM_OPENEYE_CAN_SMILES>
C1=CC(=CC=C1N=C2C=C(C(=O)C(=C2)Cl)Cl)[O-].[Na+]

> <PUBCHEM_OPENEYE_ISO_SMILES>
C1=CC(=CC=C1N=C2C=C(C(=O)C(=C2)Cl)Cl)[O-].[Na+]

> <PUBCHEM_CACTVS_TPSA>
52.5

> <PUBCHEM_MONOISOTOPIC_WEIGHT>
288.967328

> <PUBCHEM_TOTAL_CHARGE>
0

> <PUBCHEM_HEAVY_ATOM_COUNT>
18

> <PUBCHEM_ATOM_DEF_STEREO_COUNT>
0

> <PUBCHEM_ATOM_UDEF_STEREO_COUNT>
0

> <PUBCHEM_BOND_DEF_STEREO_COUNT>
0

> <PUBCHEM_BOND_UDEF_STEREO_COUNT>
0

> <PUBCHEM_ISOTOPIC_ATOM_COUNT>
0

> <PUBCHEM_COMPONENT_COUNT>
2

> <PUBCHEM_CACTVS_TAUTO_COUNT>
1

> <PUBCHEM_NONSTANDARDBOND>
3  4  7

> <PUBCHEM_COORDINATE_TYPE>
1
5
255

> <PUBCHEM_BONDANNOTATIONS>
11  15  8
12  16  8
15  17  8
16  17  8
8  11  8
8  12  8

$$$$

