20712
  -OEChem-07051213112D

 37 37  0     1  0  0  0  0  0999 V2000
    5.0474    3.3174    0.0000 P   0  0  0  0  0  0  0  0  0  0  0  0
    5.4104    5.0110    0.0000 Na  0  3  0  0  0  0  0  0  0  0  0  0
    6.7410    2.9544    0.0000 Na  0  3  0  0  0  0  0  0  0  0  0  0
    4.4026   -0.1357    0.0000 O   0  0  0  0  0  0  0  0  0  0  0  0
    6.7485   -1.2276    0.0000 O   0  0  0  0  0  0  0  0  0  0  0  0
    6.7523    0.9480    0.0000 O   0  0  0  0  0  0  0  0  0  0  0  0
    5.3548    2.3658    0.0000 O   0  0  0  0  0  0  0  0  0  0  0  0
    4.7400    4.2690    0.0000 O   0  5  0  0  0  0  0  0  0  0  0  0
    5.9990    3.6248    0.0000 O   0  5  0  0  0  0  0  0  0  0  0  0
    4.0958    3.0101    0.0000 O   0  0  0  0  0  0  0  0  0  0  0  0
    4.6783   -1.8963    0.0000 N   0  0  0  0  0  0  0  0  0  0  0  0
    4.6783   -3.5057    0.0000 N   0  0  0  0  0  0  0  0  0  0  0  0
    2.8660   -1.7010    0.0000 N   0  0  0  0  0  0  0  0  0  0  0  0
    2.0000   -3.2010    0.0000 N   0  0  0  0  0  0  0  0  0  0  0  0
    2.8660   -4.7010    0.0000 N   0  0  0  0  0  0  0  0  0  0  0  0
    5.9405   -0.6384    0.0000 C   0  0  2  0  0  0  0  0  0  0  0  0
    5.9422    0.3616    0.0000 C   0  0  1  0  0  0  0  0  0  0  0  0
    4.9889   -0.9458    0.0000 C   0  0  1  0  0  0  0  0  0  0  0  0
    4.9917    0.6723    0.0000 C   0  0  1  0  0  0  0  0  0  0  0  0
    4.6844    1.6239    0.0000 C   0  0  0  0  0  0  0  0  0  0  0  0
    3.7320   -2.2010    0.0000 C   0  0  0  0  0  0  0  0  0  0  0  0
    5.2619   -2.7010    0.0000 C   0  0  0  0  0  0  0  0  0  0  0  0
    3.7320   -3.2010    0.0000 C   0  0  0  0  0  0  0  0  0  0  0  0
    2.8660   -3.7010    0.0000 C   0  0  0  0  0  0  0  0  0  0  0  0
    2.0000   -2.2010    0.0000 C   0  0  0  0  0  0  0  0  0  0  0  0
    6.4934   -0.3579    0.0000 H   0  0  0  0  0  0  0  0  0  0  0  0
    6.4942    0.0792    0.0000 H   0  0  0  0  0  0  0  0  0  0  0  0
    5.4266   -1.3849    0.0000 H   0  0  0  0  0  0  0  0  0  0  0  0
    4.3795    0.7703    0.0000 H   0  0  0  0  0  0  0  0  0  0  0  0
    4.3035    2.1131    0.0000 H   0  0  0  0  0  0  0  0  0  0  0  0
    4.1364    1.3337    0.0000 H   0  0  0  0  0  0  0  0  0  0  0  0
    7.3154   -0.9764    0.0000 H   0  0  0  0  0  0  0  0  0  0  0  0
    7.3182    0.6948    0.0000 H   0  0  0  0  0  0  0  0  0  0  0  0
    5.8819   -2.7010    0.0000 H   0  0  0  0  0  0  0  0  0  0  0  0
    1.4631   -1.8910    0.0000 H   0  0  0  0  0  0  0  0  0  0  0  0
    2.3291   -5.0110    0.0000 H   0  0  0  0  0  0  0  0  0  0  0  0
    3.4030   -5.0110    0.0000 H   0  0  0  0  0  0  0  0  0  0  0  0
  1  7  1  0  0  0  0
  1  8  1  0  0  0  0
  1  9  1  0  0  0  0
  1 10  2  0  0  0  0
  4 18  1  0  0  0  0
  4 19  1  0  0  0  0
 16  5  1  1  0  0  0
  5 32  1  0  0  0  0
 17  6  1  1  0  0  0
  6 33  1  0  0  0  0
  7 20  1  0  0  0  0
 18 11  1  6  0  0  0
 11 21  1  0  0  0  0
 11 22  1  0  0  0  0
 12 22  2  0  0  0  0
 12 23  1  0  0  0  0
 13 21  1  0  0  0  0
 13 25  2  0  0  0  0
 14 24  2  0  0  0  0
 14 25  1  0  0  0  0
 15 24  1  0  0  0  0
 15 36  1  0  0  0  0
 15 37  1  0  0  0  0
 16 17  1  0  0  0  0
 16 18  1  0  0  0  0
 16 26  1  0  0  0  0
 17 19  1  0  0  0  0
 17 27  1  0  0  0  0
 18 28  1  0  0  0  0
 19 20  1  6  0  0  0
 19 29  1  0  0  0  0
 20 30  1  0  0  0  0
 20 31  1  0  0  0  0
 21 23  2  0  0  0  0
 22 34  1  0  0  0  0
 23 24  1  0  0  0  0
 25 35  1  0  0  0  0
M  CHG  4   2   1   3   1   8  -1   9  -1
M  END
> <PUBCHEM_COMPOUND_CID>
20712

> <PUBCHEM_COMPOUND_CANONICALIZED>
1

> <PUBCHEM_CACTVS_COMPLEXITY>
469

> <PUBCHEM_CACTVS_HBOND_ACCEPTOR>
11

> <PUBCHEM_CACTVS_HBOND_DONOR>
3

> <PUBCHEM_CACTVS_ROTATABLE_BOND>
3

> <PUBCHEM_CACTVS_SUBSKEYS>
AAADccBzuDIAAAAAAAAAAAAAAAAAAWJAAAAsAAAAAAAAAFgB+AAAHgAQCCAACBzhlwYF8L9MFxCgQQZhZICAgC0REKABUCAoVBCDWAJAyEAeRAgPAALTACDwMAIAAAAAAAAAAAAAAAAAAAAAAAAAAAAAAA==

> <PUBCHEM_IUPAC_OPENEYE_NAME>
disodium [(2R,3S,4R,5R)-5-(6-aminopurin-9-yl)-3,4-dihydroxy-tetrahydrofuran-2-yl]methyl phosphate

> <PUBCHEM_IUPAC_CAS_NAME>
disodium [(2R,3S,4R,5R)-5-(6-aminopurin-9-yl)-3,4-dihydroxy-2-oxolanyl]methyl phosphate

> <PUBCHEM_IUPAC_NAME>
disodium [(2R,3S,4R,5R)-5-(6-aminopurin-9-yl)-3,4-dihydroxyoxolan-2-yl]methyl phosphate

> <PUBCHEM_IUPAC_SYSTEMATIC_NAME>
disodium [(2R,3S,4R,5R)-5-(6-aminopurin-9-yl)-3,4-bis(oxidanyl)oxolan-2-yl]methyl phosphate

> <PUBCHEM_IUPAC_TRADITIONAL_NAME>
disodium [(2R,3S,4R,5R)-5-adenin-9-yl-3,4-dihydroxy-tetrahydrofuran-2-yl]methyl phosphate

> <PUBCHEM_IUPAC_INCHI>
InChI=1S/C10H14N5O7P.2Na/c11-8-5-9(13-2-12-8)15(3-14-5)10-7(17)6(16)4(22-10)1-21-23(18,19)20;;/h2-4,6-7,10,16-17H,1H2,(H2,11,12,13)(H2,18,19,20);;/q;2*+1/p-2/t4-,6-,7-,10-;;/m1../s1

> <PUBCHEM_IUPAC_INCHIKEY>
QGXLVXZRPRRCRP-IDIVVRGQSA-L

> <PUBCHEM_EXACT_MASS>
391.026973

> <PUBCHEM_MOLECULAR_FORMULA>
C10H12N5Na2O7P

> <PUBCHEM_MOLECULAR_WEIGHT>
391.184881

> <PUBCHEM_OPENEYE_CAN_SMILES>
C1=NC2=C(C(=N1)N)N=CN2C3C(C(C(O3)COP(=O)([O-])[O-])O)O.[Na+].[Na+]

> <PUBCHEM_OPENEYE_ISO_SMILES>
C1=NC2=C(C(=N1)N)N=CN2[C@H]3[C@@H]([C@@H]([C@H](O3)COP(=O)([O-])[O-])O)O.[Na+].[Na+]

> <PUBCHEM_CACTVS_TPSA>
192

> <PUBCHEM_MONOISOTOPIC_WEIGHT>
391.026973

> <PUBCHEM_TOTAL_CHARGE>
0

> <PUBCHEM_HEAVY_ATOM_COUNT>
25

> <PUBCHEM_ATOM_DEF_STEREO_COUNT>
4

> <PUBCHEM_ATOM_UDEF_STEREO_COUNT>
0

> <PUBCHEM_BOND_DEF_STEREO_COUNT>
0

> <PUBCHEM_BOND_UDEF_STEREO_COUNT>
0

> <PUBCHEM_ISOTOPIC_ATOM_COUNT>
0

> <PUBCHEM_COMPONENT_COUNT>
3

> <PUBCHEM_CACTVS_TAUTO_COUNT>
3

> <PUBCHEM_COORDINATE_TYPE>
1
5
255

> <PUBCHEM_BONDANNOTATIONS>
18  11  6
11  21  8
11  22  8
12  22  8
12  23  8
13  21  8
13  25  8
14  24  8
14  25  8
19  20  6
21  23  8
23  24  8
16  5  5
17  6  5

$$$$

