   Color/Form
        White, crystalline, hygroscopic powder
   from [1]HSDB

   Melting Point
        197 deg C (dec)
   from [2]HSDB

   Octanol/Water Partition Coefficient
        log Kow = -5.48 (est)
   from [3]HSDB

   Solubilities

     * Readily soluble in water and hot alcohol. Practically insoluble in
       acetone, ether and benzene
     * In water, 1.0X10+6 mg/L at 25 deg C (est)

   from [4]HSDB

   Spectral Properties
        The specific optical rotation is between -29 and -32
   from [5]HSDB

   Other Chemical/Physical Properties
        Hydroxyl radical reaction rate constant = 2.7X10-11 cu
   cm/molecule-sec at 25 deg C (est)
   from [6]HSDB

   Computed Properties
   Molecular Weight                  161.1989 [g/mol]
   Molecular Formula                 C[7]H[15]NO[3]
   XLogP3-AA                         -0.2
   H-Bond Donor                      1
   H-Bond Acceptor                   3
   Rotatable Bond Count              3
   Exact Mass                        161.105193
   MonoIsotopic Mass                 161.105193
   Topological Polar Surface Area    60.4
   Heavy Atom Count                  11
   Formal Charge                     0
   Complexity                        134
   Isotope Atom Count                0
   Defined Atom Stereocenter Count   1
   Undefined Atom Stereocenter Count 0
   Defined Bond Stereocenter Count   0
   Undefined Bond Stereocenter Count 0
   Covalently-Bonded Unit Count      1
   Feature 3D Acceptor Count         3
   Feature 3D Donor Count            1
   Feature 3D Anion Count            1
   Feature 3D Cation Count           1
   Effective Rotor Count             4
   Conformer Sampling RMSD           0.6
   CID Conformer Count               [7]5

References

   1. http://toxnet.nlm.nih.gov/cgi-bin/sis/search/r?dbs+hsdb:@term+@rn+@rel+541-15-1
   2. http://toxnet.nlm.nih.gov/cgi-bin/sis/search/r?dbs+hsdb:@term+@rn+@rel+541-15-1
   3. http://toxnet.nlm.nih.gov/cgi-bin/sis/search/r?dbs+hsdb:@term+@rn+@rel+541-15-1
   4. http://toxnet.nlm.nih.gov/cgi-bin/sis/search/r?dbs+hsdb:@term+@rn+@rel+541-15-1
   5. http://toxnet.nlm.nih.gov/cgi-bin/sis/search/r?dbs+hsdb:@term+@rn+@rel+541-15-1
   6. http://toxnet.nlm.nih.gov/cgi-bin/sis/search/r?dbs+hsdb:@term+@rn+@rel+541-15-1
   7. http://pubchem.ncbi.nlm.nih.gov/vw3d/vw3d.cgi?cid=10917
