13507
  -OEChem-06241222392D

 49 52  0     0  0  0  0  0  0999 V2000
    3.8000    3.8450    0.0000 S   0  0  0  0  0  0  0  0  0  0  0  0
    9.0622    3.8691    0.0000 S   0  0  0  0  0  0  0  0  0  0  0  0
    4.6660   -3.6550    0.0000 S   0  0  0  0  0  0  0  0  0  0  0  0
    3.8000    1.8450    0.0000 O   0  0  0  0  0  0  0  0  0  0  0  0
    2.9340    4.3450    0.0000 O   0  0  0  0  0  0  0  0  0  0  0  0
    9.9263    4.3725    0.0000 O   0  0  0  0  0  0  0  0  0  0  0  0
    4.3000    4.7110    0.0000 O   0  0  0  0  0  0  0  0  0  0  0  0
    3.3000    2.9790    0.0000 O   0  0  0  0  0  0  0  0  0  0  0  0
    4.6660   -4.6550    0.0000 O   0  0  0  0  0  0  0  0  0  0  0  0
    9.5655    3.0051    0.0000 O   0  0  0  0  0  0  0  0  0  0  0  0
    8.5589    4.7332    0.0000 O   0  0  0  0  0  0  0  0  0  0  0  0
    5.6660   -3.6550    0.0000 O   0  0  0  0  0  0  0  0  0  0  0  0
    3.6660   -3.6550    0.0000 O   0  0  0  0  0  0  0  0  0  0  0  0
    5.5321    0.8450    0.0000 N   0  0  0  0  0  0  0  0  0  0  0  0
    4.6660    0.3450    0.0000 N   0  0  0  0  0  0  0  0  0  0  0  0
    6.3981    2.3450    0.0000 C   0  0  0  0  0  0  0  0  0  0  0  0
    6.3981    3.3450    0.0000 C   0  0  0  0  0  0  0  0  0  0  0  0
    5.5321    1.8450    0.0000 C   0  0  0  0  0  0  0  0  0  0  0  0
    4.6660    3.3450    0.0000 C   0  0  0  0  0  0  0  0  0  0  0  0
    5.5321    3.8450    0.0000 C   0  0  0  0  0  0  0  0  0  0  0  0
    4.6660    2.3450    0.0000 C   0  0  0  0  0  0  0  0  0  0  0  0
    7.2920    3.8797    0.0000 C   0  0  0  0  0  0  0  0  0  0  0  0
    3.8000   -2.1550    0.0000 C   0  0  0  0  0  0  0  0  0  0  0  0
    8.1981    3.3658    0.0000 C   0  0  0  0  0  0  0  0  0  0  0  0
    3.8000   -1.1550    0.0000 C   0  0  0  0  0  0  0  0  0  0  0  0
    7.2920    1.8103    0.0000 C   0  0  0  0  0  0  0  0  0  0  0  0
    4.6660   -2.6550    0.0000 C   0  0  0  0  0  0  0  0  0  0  0  0
    4.6660   -0.6550    0.0000 C   0  0  0  0  0  0  0  0  0  0  0  0
    8.1981    2.3242    0.0000 C   0  0  0  0  0  0  0  0  0  0  0  0
    5.5321   -2.1550    0.0000 C   0  0  0  0  0  0  0  0  0  0  0  0
    5.5321   -1.1550    0.0000 C   0  0  0  0  0  0  0  0  0  0  0  0
    2.9061   -2.6897    0.0000 C   0  0  0  0  0  0  0  0  0  0  0  0
    2.9061   -0.6203    0.0000 C   0  0  0  0  0  0  0  0  0  0  0  0
    2.0000   -2.1758    0.0000 C   0  0  0  0  0  0  0  0  0  0  0  0
    2.0000   -1.1342    0.0000 C   0  0  0  0  0  0  0  0  0  0  0  0
    5.5321    4.4650    0.0000 H   0  0  0  0  0  0  0  0  0  0  0  0
    7.2849    4.4996    0.0000 H   0  0  0  0  0  0  0  0  0  0  0  0
    7.2849    1.1904    0.0000 H   0  0  0  0  0  0  0  0  0  0  0  0
    8.7338    2.0121    0.0000 H   0  0  0  0  0  0  0  0  0  0  0  0
    6.0690   -2.4650    0.0000 H   0  0  0  0  0  0  0  0  0  0  0  0
    6.0690   -0.8450    0.0000 H   0  0  0  0  0  0  0  0  0  0  0  0
    2.9132   -3.3096    0.0000 H   0  0  0  0  0  0  0  0  0  0  0  0
    2.9132   -0.0004    0.0000 H   0  0  0  0  0  0  0  0  0  0  0  0
    1.4643   -2.4879    0.0000 H   0  0  0  0  0  0  0  0  0  0  0  0
    1.4643   -0.8221    0.0000 H   0  0  0  0  0  0  0  0  0  0  0  0
    3.8000    1.2250    0.0000 H   0  0  0  0  0  0  0  0  0  0  0  0
    2.9340    4.9650    0.0000 H   0  0  0  0  0  0  0  0  0  0  0  0
   10.4644    4.0646    0.0000 H   0  0  0  0  0  0  0  0  0  0  0  0
    5.2030   -4.9650    0.0000 H   0  0  0  0  0  0  0  0  0  0  0  0
  1  5  1  0  0  0  0
  1  7  2  0  0  0  0
  1  8  2  0  0  0  0
  1 19  1  0  0  0  0
  2  6  1  0  0  0  0
  2 10  2  0  0  0  0
  2 11  2  0  0  0  0
  2 24  1  0  0  0  0
  3  9  1  0  0  0  0
  3 12  2  0  0  0  0
  3 13  2  0  0  0  0
  3 27  1  0  0  0  0
  4 21  1  0  0  0  0
  4 46  1  0  0  0  0
  5 47  1  0  0  0  0
  6 48  1  0  0  0  0
  9 49  1  0  0  0  0
 14 15  2  0  0  0  0
 14 18  1  0  0  0  0
 15 28  1  0  0  0  0
 16 17  1  0  0  0  0
 16 18  2  0  0  0  0
 16 26  1  0  0  0  0
 17 20  2  0  0  0  0
 17 22  1  0  0  0  0
 18 21  1  0  0  0  0
 19 20  1  0  0  0  0
 19 21  2  0  0  0  0
 20 36  1  0  0  0  0
 22 24  2  0  0  0  0
 22 37  1  0  0  0  0
 23 25  1  0  0  0  0
 23 27  1  0  0  0  0
 23 32  2  0  0  0  0
 24 29  1  0  0  0  0
 25 28  1  0  0  0  0
 25 33  2  0  0  0  0
 26 29  2  0  0  0  0
 26 38  1  0  0  0  0
 27 30  2  0  0  0  0
 28 31  2  0  0  0  0
 29 39  1  0  0  0  0
 30 31  1  0  0  0  0
 30 40  1  0  0  0  0
 31 41  1  0  0  0  0
 32 34  1  0  0  0  0
 32 42  1  0  0  0  0
 33 35  1  0  0  0  0
 33 43  1  0  0  0  0
 34 35  2  0  0  0  0
 34 44  1  0  0  0  0
 35 45  1  0  0  0  0
M  END
> <PUBCHEM_COMPOUND_CID>
13507

> <PUBCHEM_COMPOUND_CANONICALIZED>
1

> <PUBCHEM_CACTVS_COMPLEXITY>
1120

> <PUBCHEM_CACTVS_HBOND_ACCEPTOR>
12

> <PUBCHEM_CACTVS_HBOND_DONOR>
4

> <PUBCHEM_CACTVS_ROTATABLE_BOND>
5

> <PUBCHEM_CACTVS_SUBSKEYS>
AAADccB7PABgAAAAAAAAAAAAAAAAAAAAAAAwYMGAAAAAAADBVAAAHgQICAAADAyB2AAwx8AAAoKCAiRCQHDCAEAgIgAIiBoFbIgKJiKSkZOAcARkwBEI2AeQwLAOsAQBwCAWMABgCAOAQCxgAAAAAAAAAA==

> <PUBCHEM_IUPAC_OPENEYE_NAME>
3-hydroxy-4-[(4-sulfo-1-naphthyl)azo]naphthalene-2,7-disulfonic acid

> <PUBCHEM_IUPAC_CAS_NAME>
3-hydroxy-4-[(4-sulfo-1-naphthalenyl)azo]naphthalene-2,7-disulfonic acid

> <PUBCHEM_IUPAC_NAME>
3-hydroxy-4-[(4-sulfonaphthalen-1-yl)diazenyl]naphthalene-2,7-disulfonic acid

> <PUBCHEM_IUPAC_SYSTEMATIC_NAME>
3-oxidanyl-4-[(4-sulfonaphthalen-1-yl)diazenyl]naphthalene-2,7-disulfonic acid

> <PUBCHEM_IUPAC_TRADITIONAL_NAME>
3-hydroxy-4-[(4-sulfo-1-naphthyl)azo]naphthalene-2,7-disulfonic acid

> <PUBCHEM_IUPAC_INCHI>
InChI=1S/C20H14N2O10S3/c23-20-18(35(30,31)32)10-11-9-12(33(24,25)26)5-6-13(11)19(20)22-21-16-7-8-17(34(27,28)29)15-4-2-1-3-14(15)16/h1-10,23H,(H,24,25,26)(H,27,28,29)(H,30,31,32)

> <PUBCHEM_IUPAC_INCHIKEY>
IRPXADUBAQAOKL-UHFFFAOYSA-N

> <PUBCHEM_XLOGP3_AA>
2.6

> <PUBCHEM_EXACT_MASS>
537.981058

> <PUBCHEM_MOLECULAR_FORMULA>
C20H14N2O10S3

> <PUBCHEM_MOLECULAR_WEIGHT>
538.52756

> <PUBCHEM_OPENEYE_CAN_SMILES>
C1=CC=C2C(=C1)C(=CC=C2S(=O)(=O)O)N=NC3=C4C=CC(=CC4=CC(=C3O)S(=O)(=O)O)S(=O)(=O)O

> <PUBCHEM_OPENEYE_ISO_SMILES>
C1=CC=C2C(=C1)C(=CC=C2S(=O)(=O)O)N=NC3=C4C=CC(=CC4=CC(=C3O)S(=O)(=O)O)S(=O)(=O)O

> <PUBCHEM_CACTVS_TPSA>
233

> <PUBCHEM_MONOISOTOPIC_WEIGHT>
537.981058

> <PUBCHEM_TOTAL_CHARGE>
0

> <PUBCHEM_HEAVY_ATOM_COUNT>
35

> <PUBCHEM_ATOM_DEF_STEREO_COUNT>
0

> <PUBCHEM_ATOM_UDEF_STEREO_COUNT>
0

> <PUBCHEM_BOND_DEF_STEREO_COUNT>
0

> <PUBCHEM_BOND_UDEF_STEREO_COUNT>
0

> <PUBCHEM_ISOTOPIC_ATOM_COUNT>
0

> <PUBCHEM_COMPONENT_COUNT>
1

> <PUBCHEM_CACTVS_TAUTO_COUNT>
3

> <PUBCHEM_COORDINATE_TYPE>
1
5
255

> <PUBCHEM_BONDANNOTATIONS>
16  17  8
16  18  8
16  26  8
17  20  8
17  22  8
18  21  8
19  20  8
19  21  8
22  24  8
23  25  8
23  27  8
23  32  8
24  29  8
25  28  8
25  33  8
26  29  8
27  30  8
28  31  8
30  31  8
32  34  8
33  35  8
34  35  8

$$$$

