   Color/Form
        NEEDLES FROM ETHANOL
   from [1]HSDB

   Melting Point
        158 DEG C
   from [2]HSDB

   Solubilities

     * SOL IN COMMON ORG SOLVENTS, INSOL IN PETROLEUM ETHER
     * 63 ug/L

   from [3]HSDB

   Vapor Pressure
        Vapor pressure: 3.4X10-9 mm Hg at 25 deg C(est)
   from [4]HSDB

   Other Chemical/Physical Properties
        Absorption coefficients at 313 and 366.0 nm are 4210 and 13,000
   L/mol-cm, respectively. /5% acetonitrile, 95% water at pH 4.5/
   from [5]HSDB

   Computed Properties
   Molecular Weight                  267.32392 [g/mol]
   Molecular Formula                 C[20]H[13]N
   XLogP3-AA                         5.9
   H-Bond Donor                      1
   H-Bond Acceptor                   0
   Rotatable Bond Count              0
   Exact Mass                        267.104799
   MonoIsotopic Mass                 267.104799
   Topological Polar Surface Area    15.8
   Heavy Atom Count                  21
   Formal Charge                     0
   Complexity                        355
   Isotope Atom Count                0
   Defined Atom Stereocenter Count   0
   Undefined Atom Stereocenter Count 0
   Defined Bond Stereocenter Count   0
   Undefined Bond Stereocenter Count 0
   Covalently-Bonded Unit Count      1
   Feature 3D Donor Count            1
   Feature 3D Cation Count           1
   Feature 3D Ring Count             5
   Effective Rotor Count             0
   Conformer Sampling RMSD           0.6
   CID Conformer Count               [6]2

References

   1. http://toxnet.nlm.nih.gov/cgi-bin/sis/search/r?dbs+hsdb:@term+@rn+@rel+194-59-2
   2. http://toxnet.nlm.nih.gov/cgi-bin/sis/search/r?dbs+hsdb:@term+@rn+@rel+194-59-2
   3. http://toxnet.nlm.nih.gov/cgi-bin/sis/search/r?dbs+hsdb:@term+@rn+@rel+194-59-2
   4. http://toxnet.nlm.nih.gov/cgi-bin/sis/search/r?dbs+hsdb:@term+@rn+@rel+194-59-2
   5. http://toxnet.nlm.nih.gov/cgi-bin/sis/search/r?dbs+hsdb:@term+@rn+@rel+194-59-2
   6. http://pubchem.ncbi.nlm.nih.gov/vw3d/vw3d.cgi?cid=9134
