   Color/Form

     * White to beige, crystalline solid
     * Needles from petroleum ether

   from [1]HSDB

   Odor
        Odorless
   from [2]HSDB

   Melting Point
        106-112 deg C
   from [3]HSDB

   Octanol/Water Partition Coefficient
        log Kow = 0.05
   from [4]HSDB

   Solubilities

     * 71 mg/ml in alc @ 25 deg C
     * In water, 20,000 mg/l @ 25 deg C

   from [5]HSDB

   Spectral Properties
        UV max in water = 226 nm (epsilon=11,650)
   from [6]HSDB

   Vapor Pressure
        5.2X10-20 mm Hg @ 25 deg C /Estimated/
   from [7]HSDB

   Other Chemical/Physical Properties

     * Zidovudine is a thymidine analog which differs structurally from
       thymidine in that zidovudine contains a 3'-azide group rather than
       a 3'-hydroxyl group.
     * Henry's Law constant = 2.0X10-22 atm-cu m/mol @ 25 deg C
       /Estimated/
     * Hydroxyl radical reaction rate constant = 7.7X10-11 cu cm/molec-sec
       @ 25 deg C /Estimated/

   from [8]HSDB

   Computed Properties
   Molecular Weight                  267.24132 [g/mol]
   Molecular Formula                 C[10]H[13]N[5]O[4]
   XLogP3                            0
   H-Bond Donor                      2
   H-Bond Acceptor                   6
   Rotatable Bond Count              3
   Tautomer Count                    3
   Exact Mass                        267.096754
   MonoIsotopic Mass                 267.096754
   Topological Polar Surface Area    93.2
   Heavy Atom Count                  19
   Formal Charge                     0
   Complexity                        484
   Isotope Atom Count                0
   Defined Atom Stereocenter Count   3
   Undefined Atom Stereocenter Count 0
   Defined Bond Stereocenter Count   0
   Undefined Bond Stereocenter Count 0
   Covalently-Bonded Unit Count      1
   Feature 3D Acceptor Count         4
   Feature 3D Donor Count            2
   Feature 3D Ring Count             2
   Effective Rotor Count             4
   Conformer Sampling RMSD           0.6
   CID Conformer Count               [9]54

References

   1. http://toxnet.nlm.nih.gov/cgi-bin/sis/search/r?dbs+hsdb:@term+@rn+@rel+30516-87-1
   2. http://toxnet.nlm.nih.gov/cgi-bin/sis/search/r?dbs+hsdb:@term+@rn+@rel+30516-87-1
   3. http://toxnet.nlm.nih.gov/cgi-bin/sis/search/r?dbs+hsdb:@term+@rn+@rel+30516-87-1
   4. http://toxnet.nlm.nih.gov/cgi-bin/sis/search/r?dbs+hsdb:@term+@rn+@rel+30516-87-1
   5. http://toxnet.nlm.nih.gov/cgi-bin/sis/search/r?dbs+hsdb:@term+@rn+@rel+30516-87-1
   6. http://toxnet.nlm.nih.gov/cgi-bin/sis/search/r?dbs+hsdb:@term+@rn+@rel+30516-87-1
   7. http://toxnet.nlm.nih.gov/cgi-bin/sis/search/r?dbs+hsdb:@term+@rn+@rel+30516-87-1
   8. http://toxnet.nlm.nih.gov/cgi-bin/sis/search/r?dbs+hsdb:@term+@rn+@rel+30516-87-1
   9. http://pubchem.ncbi.nlm.nih.gov/vw3d/vw3d.cgi?cid=35370
