441472
  -OEChem-07051212552D

 37 38  0     1  0  0  0  0  0999 V2000
    7.8671    1.0670    0.0000 O   0  0  0  0  0  0  0  0  0  0  0  0
    4.2690   -0.4330    0.0000 O   0  0  0  0  0  0  0  0  0  0  0  0
    6.0010   -0.4330    0.0000 O   0  0  0  0  0  0  0  0  0  0  0  0
    6.0010   -2.4330    0.0000 O   0  0  0  0  0  0  0  0  0  0  0  0
    4.2690   -3.4330    0.0000 O   0  0  0  0  0  0  0  0  0  0  0  0
    2.5369   -2.4330    0.0000 O   0  0  0  0  0  0  0  0  0  0  0  0
    8.2331    3.4330    0.0000 O   0  0  0  0  0  0  0  0  0  0  0  0
    2.5369    0.5670    0.0000 O   0  0  0  0  0  0  0  0  0  0  0  0
    5.6350    2.9330    0.0000 N   0  0  0  0  0  0  0  0  0  0  0  0
    6.8671    1.0670    0.0000 C   0  0  3  0  0  0  0  0  0  0  0  0
    7.3671    1.9330    0.0000 C   0  0  3  0  0  0  0  0  0  0  0  0
    5.1350   -1.9330    0.0000 C   0  0  1  0  0  0  0  0  0  0  0  0
    5.1350   -0.9330    0.0000 C   0  0  1  0  0  0  0  0  0  0  0  0
    4.2690   -2.4330    0.0000 C   0  0  2  0  0  0  0  0  0  0  0  0
    3.4030   -1.9330    0.0000 C   0  0  1  0  0  0  0  0  0  0  0  0
    6.0010    0.5670    0.0000 C   0  0  0  0  0  0  0  0  0  0  0  0
    3.4030   -0.9330    0.0000 C   0  0  1  0  0  0  0  0  0  0  0  0
    8.2331    2.4330    0.0000 C   0  0  0  0  0  0  0  0  0  0  0  0
    2.5369   -0.4330    0.0000 C   0  0  0  0  0  0  0  0  0  0  0  0
    6.5010    2.4330    0.0000 C   0  0  0  0  0  0  0  0  0  0  0  0
    7.0871    0.2460    0.0000 H   0  0  0  0  0  0  0  0  0  0  0  0
    5.1350   -2.5530    0.0000 H   0  0  0  0  0  0  0  0  0  0  0  0
    5.1350   -0.3130    0.0000 H   0  0  0  0  0  0  0  0  0  0  0  0
    4.8059   -2.7430    0.0000 H   0  0  0  0  0  0  0  0  0  0  0  0
    3.4030   -2.5530    0.0000 H   0  0  0  0  0  0  0  0  0  0  0  0
    3.4030   -0.3130    0.0000 H   0  0  0  0  0  0  0  0  0  0  0  0
    5.7890    1.1496    0.0000 H   0  0  0  0  0  0  0  0  0  0  0  0
    5.3905    0.4593    0.0000 H   0  0  0  0  0  0  0  0  0  0  0  0
    8.4451    1.8504    0.0000 H   0  0  0  0  0  0  0  0  0  0  0  0
    8.8437    2.5407    0.0000 H   0  0  0  0  0  0  0  0  0  0  0  0
    1.9264   -0.3254    0.0000 H   0  0  0  0  0  0  0  0  0  0  0  0
    2.3249   -1.0156    0.0000 H   0  0  0  0  0  0  0  0  0  0  0  0
    6.5380   -2.1230    0.0000 H   0  0  0  0  0  0  0  0  0  0  0  0
    3.7320   -3.7430    0.0000 H   0  0  0  0  0  0  0  0  0  0  0  0
    2.0000   -2.1230    0.0000 H   0  0  0  0  0  0  0  0  0  0  0  0
    8.7700    3.7430    0.0000 H   0  0  0  0  0  0  0  0  0  0  0  0
    2.0000    0.8770    0.0000 H   0  0  0  0  0  0  0  0  0  0  0  0
  1 10  1  0  0  0  0
  1 11  1  0  0  0  0
  2 13  1  0  0  0  0
  2 17  1  0  0  0  0
 13  3  1  1  0  0  0
  3 16  1  0  0  0  0
 12  4  1  6  0  0  0
  4 33  1  0  0  0  0
 14  5  1  1  0  0  0
  5 34  1  0  0  0  0
 15  6  1  6  0  0  0
  6 35  1  0  0  0  0
  7 18  1  0  0  0  0
  7 36  1  0  0  0  0
  8 19  1  0  0  0  0
  8 37  1  0  0  0  0
  9 20  3  0  0  0  0
 10 11  1  0  0  0  0
 10 16  1  0  0  0  0
 10 21  1  0  0  0  0
 11 18  1  0  0  0  0
 11 20  1  0  0  0  0
 12 13  1  0  0  0  0
 12 14  1  0  0  0  0
 12 22  1  0  0  0  0
 13 23  1  0  0  0  0
 14 15  1  0  0  0  0
 14 24  1  0  0  0  0
 15 17  1  0  0  0  0
 15 25  1  0  0  0  0
 16 27  1  0  0  0  0
 16 28  1  0  0  0  0
 17 19  1  1  0  0  0
 17 26  1  0  0  0  0
 18 29  1  0  0  0  0
 18 30  1  0  0  0  0
 19 31  1  0  0  0  0
 19 32  1  0  0  0  0
M  END
> <PUBCHEM_COMPOUND_CID>
441472

> <PUBCHEM_COMPOUND_CANONICALIZED>
1

> <PUBCHEM_CACTVS_COMPLEXITY>
397

> <PUBCHEM_CACTVS_HBOND_ACCEPTOR>
9

> <PUBCHEM_CACTVS_HBOND_DONOR>
5

> <PUBCHEM_CACTVS_ROTATABLE_BOND>
5

> <PUBCHEM_CACTVS_SUBSKEYS>
AAADceByPAAAAAAAAAAAAAAAEgAAAAAAAAAkAAAAAAAAAAAAAAAAHgAACAAADFSxgAMACAAABgAQBAAAAAAAAAAAAAAAAAAAAAARkAIAAAAiQAAFAAAHAAnAYAwIAAAAAAAAAAAAAAAAAAAAAAAAAAAAAA==

> <PUBCHEM_IUPAC_OPENEYE_NAME>
2-(hydroxymethyl)-3-[[(2R,3R,4S,5S,6R)-3,4,5-trihydroxy-6-(hydroxymethyl)tetrahydropyran-2-yl]oxymethyl]oxirane-2-carbonitrile

> <PUBCHEM_IUPAC_CAS_NAME>
2-(hydroxymethyl)-3-[[(2R,3R,4S,5S,6R)-3,4,5-trihydroxy-6-(hydroxymethyl)-2-oxanyl]oxymethyl]-2-oxiranecarbonitrile

> <PUBCHEM_IUPAC_NAME>
2-(hydroxymethyl)-3-[[(2R,3R,4S,5S,6R)-3,4,5-trihydroxy-6-(hydroxymethyl)oxan-2-yl]oxymethyl]oxirane-2-carbonitrile

> <PUBCHEM_IUPAC_SYSTEMATIC_NAME>
2-(hydroxymethyl)-3-[[(2R,3R,4S,5S,6R)-6-(hydroxymethyl)-3,4,5-tris(oxidanyl)oxan-2-yl]oxymethyl]oxirane-2-carbonitrile

> <PUBCHEM_IUPAC_TRADITIONAL_NAME>
2-methylol-3-[[(2R,3R,4S,5S,6R)-3,4,5-trihydroxy-6-methylol-tetrahydropyran-2-yl]oxymethyl]oxirane-2-carbonitrile

> <PUBCHEM_IUPAC_INCHI>
InChI=1S/C11H17NO8/c12-3-11(4-14)6(20-11)2-18-10-9(17)8(16)7(15)5(1-13)19-10/h5-10,13-17H,1-2,4H2/t5-,6?,7-,8+,9-,10-,11?/m1/s1

> <PUBCHEM_IUPAC_INCHIKEY>
MGWCXJDKHMCXRL-YMGPVYFXSA-N

> <PUBCHEM_XLOGP3_AA>
-3.4

> <PUBCHEM_EXACT_MASS>
291.095417

> <PUBCHEM_MOLECULAR_FORMULA>
C11H17NO8

> <PUBCHEM_MOLECULAR_WEIGHT>
291.25458

> <PUBCHEM_OPENEYE_CAN_SMILES>
C(C1C(C(C(C(O1)OCC2C(O2)(CO)C#N)O)O)O)O

> <PUBCHEM_OPENEYE_ISO_SMILES>
C([C@@H]1[C@H]([C@@H]([C@H]([C@@H](O1)OCC2C(O2)(CO)C#N)O)O)O)O

> <PUBCHEM_CACTVS_TPSA>
156

> <PUBCHEM_MONOISOTOPIC_WEIGHT>
291.095417

> <PUBCHEM_TOTAL_CHARGE>
0

> <PUBCHEM_HEAVY_ATOM_COUNT>
20

> <PUBCHEM_ATOM_DEF_STEREO_COUNT>
5

> <PUBCHEM_ATOM_UDEF_STEREO_COUNT>
2

> <PUBCHEM_BOND_DEF_STEREO_COUNT>
0

> <PUBCHEM_BOND_UDEF_STEREO_COUNT>
0

> <PUBCHEM_ISOTOPIC_ATOM_COUNT>
0

> <PUBCHEM_COMPONENT_COUNT>
1

> <PUBCHEM_CACTVS_TAUTO_COUNT>
1

> <PUBCHEM_COORDINATE_TYPE>
1
5
255

> <PUBCHEM_BONDANNOTATIONS>
10  21  3
11  18  3
17  19  5
13  3  5
12  4  6
14  5  5
15  6  6

$$$$

