246883
  -OEChem-07051213072D

 54 57  0     1  0  0  0  0  0999 V2000
    7.1142    2.5489    0.0000 O   0  0  0  0  0  0  0  0  0  0  0  0
    6.5251   -0.4507    0.0000 C   0  0  1  0  0  0  0  0  0  0  0  0
    5.6591   -0.9507    0.0000 C   0  0  1  0  0  0  0  0  0  0  0  0
    6.5251    0.5493    0.0000 C   0  0  2  0  0  0  0  0  0  0  0  0
    4.7931   -0.4507    0.0000 C   0  0  1  0  0  0  0  0  0  0  0  0
    3.8831   -0.9575    0.0000 C   0  0  2  0  0  0  0  0  0  0  0  0
    5.6591    1.0493    0.0000 C   0  0  0  0  0  0  0  0  0  0  0  0
    4.7931    0.5493    0.0000 C   0  0  0  0  0  0  0  0  0  0  0  0
    7.4714    0.8540    0.0000 C   0  0  2  0  0  0  0  0  0  0  0  0
    3.8751   -1.9991    0.0000 C   0  0  1  0  0  0  0  0  0  0  0  0
    7.4714   -0.7554    0.0000 C   0  0  0  0  0  0  0  0  0  0  0  0
    5.6752   -1.9922    0.0000 C   0  0  0  0  0  0  0  0  0  0  0  0
    8.0550    0.0493    0.0000 C   0  0  0  0  0  0  0  0  0  0  0  0
    4.7771   -2.5200    0.0000 C   0  0  0  0  0  0  0  0  0  0  0  0
    2.9562   -0.3935    0.0000 C   0  0  0  0  0  0  0  0  0  0  0  0
    6.5251    1.5493    0.0000 C   0  0  0  0  0  0  0  0  0  0  0  0
    3.8908    0.0424    0.0000 C   0  0  0  0  0  0  0  0  0  0  0  0
    2.9396   -2.5489    0.0000 C   0  0  0  0  0  0  0  0  0  0  0  0
    7.7820    1.8046    0.0000 C   0  0  0  0  0  0  0  0  0  0  0  0
    2.0084   -0.9214    0.0000 C   0  0  0  0  0  0  0  0  0  0  0  0
    2.0000   -2.0064    0.0000 C   0  0  0  0  0  0  0  0  0  0  0  0
    8.7605    2.0108    0.0000 C   0  0  0  0  0  0  0  0  0  0  0  0
    6.6151   -1.2959    0.0000 H   0  0  0  0  0  0  0  0  0  0  0  0
    6.3985   -1.3700    0.0000 H   0  0  0  0  0  0  0  0  0  0  0  0
    5.5292   -0.0257    0.0000 H   0  0  0  0  0  0  0  0  0  0  0  0
    6.0576    1.5243    0.0000 H   0  0  0  0  0  0  0  0  0  0  0  0
    5.2606    1.5243    0.0000 H   0  0  0  0  0  0  0  0  0  0  0  0
    4.5810    1.1319    0.0000 H   0  0  0  0  0  0  0  0  0  0  0  0
    4.1825    0.4416    0.0000 H   0  0  0  0  0  0  0  0  0  0  0  0
    8.0838    0.9502    0.0000 H   0  0  0  0  0  0  0  0  0  0  0  0
    3.8783   -2.8491    0.0000 H   0  0  0  0  0  0  0  0  0  0  0  0
    7.2203   -1.3223    0.0000 H   0  0  0  0  0  0  0  0  0  0  0  0
    8.0087   -1.0647    0.0000 H   0  0  0  0  0  0  0  0  0  0  0  0
    5.8932   -2.5726    0.0000 H   0  0  0  0  0  0  0  0  0  0  0  0
    6.2843   -1.8767    0.0000 H   0  0  0  0  0  0  0  0  0  0  0  0
    8.5158   -0.3654    0.0000 H   0  0  0  0  0  0  0  0  0  0  0  0
    8.5158    0.4640    0.0000 H   0  0  0  0  0  0  0  0  0  0  0  0
    4.3798   -2.9959    0.0000 H   0  0  0  0  0  0  0  0  0  0  0  0
    5.1781   -2.9928    0.0000 H   0  0  0  0  0  0  0  0  0  0  0  0
    3.3645    0.0732    0.0000 H   0  0  0  0  0  0  0  0  0  0  0  0
    2.5663    0.0886    0.0000 H   0  0  0  0  0  0  0  0  0  0  0  0
    7.1451    1.5493    0.0000 H   0  0  0  0  0  0  0  0  0  0  0  0
    6.5251    2.1693    0.0000 H   0  0  0  0  0  0  0  0  0  0  0  0
    5.9051    1.5493    0.0000 H   0  0  0  0  0  0  0  0  0  0  0  0
    4.5108    0.0377    0.0000 H   0  0  0  0  0  0  0  0  0  0  0  0
    3.8956    0.6624    0.0000 H   0  0  0  0  0  0  0  0  0  0  0  0
    3.2708    0.0472    0.0000 H   0  0  0  0  0  0  0  0  0  0  0  0
    2.5423   -3.0248    0.0000 H   0  0  0  0  0  0  0  0  0  0  0  0
    3.3406   -3.0218    0.0000 H   0  0  0  0  0  0  0  0  0  0  0  0
    1.4750   -0.6052    0.0000 H   0  0  0  0  0  0  0  0  0  0  0  0
    1.4619   -2.3143    0.0000 H   0  0  0  0  0  0  0  0  0  0  0  0
    8.8884    1.4041    0.0000 H   0  0  0  0  0  0  0  0  0  0  0  0
    9.3672    2.1386    0.0000 H   0  0  0  0  0  0  0  0  0  0  0  0
    8.6327    2.6174    0.0000 H   0  0  0  0  0  0  0  0  0  0  0  0
  1 19  2  0  0  0  0
  2  3  1  0  0  0  0
  2  4  1  0  0  0  0
  2 11  1  0  0  0  0
  2 23  1  6  0  0  0
  3  5  1  0  0  0  0
  3 12  1  0  0  0  0
  3 24  1  1  0  0  0
  4  7  1  0  0  0  0
  4  9  1  0  0  0  0
  4 16  1  1  0  0  0
  5  6  1  0  0  0  0
  5  8  1  0  0  0  0
  5 25  1  6  0  0  0
  6 10  1  0  0  0  0
  6 15  1  0  0  0  0
  6 17  1  1  0  0  0
  7  8  1  0  0  0  0
  7 26  1  0  0  0  0
  7 27  1  0  0  0  0
  8 28  1  0  0  0  0
  8 29  1  0  0  0  0
  9 13  1  0  0  0  0
  9 19  1  1  0  0  0
  9 30  1  0  0  0  0
 10 14  1  0  0  0  0
 10 18  1  0  0  0  0
 10 31  1  6  0  0  0
 11 13  1  0  0  0  0
 11 32  1  0  0  0  0
 11 33  1  0  0  0  0
 12 14  1  0  0  0  0
 12 34  1  0  0  0  0
 12 35  1  0  0  0  0
 13 36  1  0  0  0  0
 13 37  1  0  0  0  0
 14 38  1  0  0  0  0
 14 39  1  0  0  0  0
 15 20  1  0  0  0  0
 15 40  1  0  0  0  0
 15 41  1  0  0  0  0
 16 42  1  0  0  0  0
 16 43  1  0  0  0  0
 16 44  1  0  0  0  0
 17 45  1  0  0  0  0
 17 46  1  0  0  0  0
 17 47  1  0  0  0  0
 18 21  1  0  0  0  0
 18 48  1  0  0  0  0
 18 49  1  0  0  0  0
 19 22  1  0  0  0  0
 20 21  2  0  0  0  0
 20 50  1  0  0  0  0
 21 51  1  0  0  0  0
 22 52  1  0  0  0  0
 22 53  1  0  0  0  0
 22 54  1  0  0  0  0
M  END
> <PUBCHEM_COMPOUND_CID>
246883

> <PUBCHEM_COMPOUND_CANONICALIZED>
1

> <PUBCHEM_CACTVS_COMPLEXITY>
506

> <PUBCHEM_CACTVS_HBOND_ACCEPTOR>
1

> <PUBCHEM_CACTVS_HBOND_DONOR>
0

> <PUBCHEM_CACTVS_ROTATABLE_BOND>
1

> <PUBCHEM_CACTVS_SUBSKEYS>
AAADcfB4IAAAAAAAAAAAAAAAAAAAAYAAAAAwYIAAAAAAAGDAAAAAGgAAAAAADwSAgAACAAAAAACIAKBSAAAAAAAgAAAICAEAAAgAABIAAQAAAAAAgAAIAAMIiMCPgAAAAAAAAACAAAQAACAAAQAACAAAAA==

> <PUBCHEM_IUPAC_OPENEYE_NAME>
1-[(5S,8R,9S,10S,13S,14S,17S)-10,13-dimethyl-4,5,6,7,8,9,11,12,14,15,16,17-dodecahydro-1H-cyclopenta[a]phenanthren-17-yl]ethanone

> <PUBCHEM_IUPAC_CAS_NAME>
1-[(5S,8R,9S,10S,13S,14S,17S)-10,13-dimethyl-4,5,6,7,8,9,11,12,14,15,16,17-dodecahydro-1H-cyclopenta[a]phenanthren-17-yl]ethanone

> <PUBCHEM_IUPAC_NAME>
1-[(5S,8R,9S,10S,13S,14S,17S)-10,13-dimethyl-4,5,6,7,8,9,11,12,14,15,16,17-dodecahydro-1H-cyclopenta[a]phenanthren-17-yl]ethanone

> <PUBCHEM_IUPAC_SYSTEMATIC_NAME>
1-[(5S,8R,9S,10S,13S,14S,17S)-10,13-dimethyl-4,5,6,7,8,9,11,12,14,15,16,17-dodecahydro-1H-cyclopenta[a]phenanthren-17-yl]ethanone

> <PUBCHEM_IUPAC_TRADITIONAL_NAME>
1-[(5S,8R,9S,10S,13S,14S,17S)-10,13-dimethyl-4,5,6,7,8,9,11,12,14,15,16,17-dodecahydro-1H-cyclopenta[a]phenanthren-17-yl]ethanone

> <PUBCHEM_IUPAC_INCHI>
InChI=1S/C21H32O/c1-14(22)17-9-10-18-16-8-7-15-6-4-5-12-20(15,2)19(16)11-13-21(17,18)3/h4-5,15-19H,6-13H2,1-3H3/t15-,16+,17-,18+,19+,20+,21-/m1/s1

> <PUBCHEM_IUPAC_INCHIKEY>
PERPPAKFLWZECF-QYYVTAPASA-N

> <PUBCHEM_XLOGP3_AA>
5.8

> <PUBCHEM_EXACT_MASS>
300.245316

> <PUBCHEM_MOLECULAR_FORMULA>
C21H32O

> <PUBCHEM_MOLECULAR_WEIGHT>
300.47818

> <PUBCHEM_OPENEYE_CAN_SMILES>
CC(=O)C1CCC2C1(CCC3C2CCC4C3(CC=CC4)C)C

> <PUBCHEM_OPENEYE_ISO_SMILES>
CC(=O)[C@H]1CC[C@@H]2[C@@]1(CC[C@H]3[C@H]2CC[C@@H]4[C@@]3(CC=CC4)C)C

> <PUBCHEM_CACTVS_TPSA>
17.1

> <PUBCHEM_MONOISOTOPIC_WEIGHT>
300.245316

> <PUBCHEM_TOTAL_CHARGE>
0

> <PUBCHEM_HEAVY_ATOM_COUNT>
22

> <PUBCHEM_ATOM_DEF_STEREO_COUNT>
7

> <PUBCHEM_ATOM_UDEF_STEREO_COUNT>
0

> <PUBCHEM_BOND_DEF_STEREO_COUNT>
0

> <PUBCHEM_BOND_UDEF_STEREO_COUNT>
0

> <PUBCHEM_ISOTOPIC_ATOM_COUNT>
0

> <PUBCHEM_COMPONENT_COUNT>
1

> <PUBCHEM_CACTVS_TAUTO_COUNT>
3

> <PUBCHEM_COORDINATE_TYPE>
1
5
255

> <PUBCHEM_BONDANNOTATIONS>
10  31  6
2  23  6
3  24  5
4  16  5
5  25  6
6  17  5
9  19  5

$$$$

