11953943
  -OEChem-07051212592D

 94 98  0     1  0  0  0  0  0999 V2000
    8.9282   -1.0000    0.0000 O   0  0  0  0  0  0  0  0  0  0  0  0
    8.9282    2.0000    0.0000 O   0  0  0  0  0  0  0  0  0  0  0  0
   10.6603   -1.0000    0.0000 O   0  0  0  0  0  0  0  0  0  0  0  0
   12.3923   -2.0000    0.0000 O   0  0  0  0  0  0  0  0  0  0  0  0
    7.1962    1.0000    0.0000 O   0  0  0  0  0  0  0  0  0  0  0  0
   10.6603    1.0000    0.0000 O   0  0  0  0  0  0  0  0  0  0  0  0
   10.6603    2.0000    0.0000 O   0  0  0  0  0  0  0  0  0  0  0  0
   10.6603   -4.0000    0.0000 O   0  0  0  0  0  0  0  0  0  0  0  0
   14.1244   -2.0000    0.0000 O   0  0  0  0  0  0  0  0  0  0  0  0
   12.3923   -5.0000    0.0000 O   0  0  0  0  0  0  0  0  0  0  0  0
    8.9282    4.0000    0.0000 O   0  0  0  0  0  0  0  0  0  0  0  0
   14.1244   -4.0000    0.0000 O   0  0  0  0  0  0  0  0  0  0  0  0
   10.6603    5.0000    0.0000 O   0  0  0  0  0  0  0  0  0  0  0  0
   12.3923    4.0000    0.0000 O   0  0  0  0  0  0  0  0  0  0  0  0
    6.3301   -0.5000    0.0000 O   0  0  0  0  0  0  0  0  0  0  0  0
   19.3205   -4.0000    0.0000 O   0  0  0  0  0  0  0  0  0  0  0  0
    8.9282    1.0000    0.0000 C   0  0  2  0  0  0  0  0  0  0  0  0
    8.0622    0.5000    0.0000 C   0  0  2  0  0  0  0  0  0  0  0  0
    9.7942    0.5000    0.0000 C   0  0  2  0  0  0  0  0  0  0  0  0
    9.7942   -0.5000    0.0000 C   0  0  1  0  0  0  0  0  0  0  0  0
    8.0622   -0.5000    0.0000 C   0  0  2  0  0  0  0  0  0  0  0  0
   11.5263   -2.5000    0.0000 C   0  0  1  0  0  0  0  0  0  0  0  0
   11.5263   -3.5000    0.0000 C   0  0  2  0  0  0  0  0  0  0  0  0
    9.7942    2.5000    0.0000 C   0  0  2  0  0  0  0  0  0  0  0  0
   12.3923   -4.0000    0.0000 C   0  0  1  0  0  0  0  0  0  0  0  0
   10.6603   -2.0000    0.0000 C   0  0  0  0  0  0  0  0  0  0  0  0
    9.7942    3.5000    0.0000 C   0  0  1  0  0  0  0  0  0  0  0  0
   13.2583   -3.5000    0.0000 C   0  0  2  0  0  0  0  0  0  0  0  0
   10.6603    4.0000    0.0000 C   0  0  2  0  0  0  0  0  0  0  0  0
   13.2583   -2.5000    0.0000 C   0  0  1  0  0  0  0  0  0  0  0  0
    7.1962   -1.0000    0.0000 C   0  0  0  0  0  0  0  0  0  0  0  0
   11.5263    3.5000    0.0000 C   0  0  1  0  0  0  0  0  0  0  0  0
   11.5263    2.5000    0.0000 C   0  0  0  0  0  0  0  0  0  0  0  0
    6.3301    0.5000    0.0000 C   0  0  0  0  0  0  0  0  0  0  0  0
   14.9904   -2.5000    0.0000 C   0  0  0  0  0  0  0  0  0  0  0  0
   15.8564   -2.0000    0.0000 C   0  0  0  0  0  0  0  0  0  0  0  0
    5.4641    1.0000    0.0000 C   0  0  0  0  0  0  0  0  0  0  0  0
   16.7224   -2.5000    0.0000 C   0  0  0  0  0  0  0  0  0  0  0  0
    4.5981    0.5000    0.0000 C   0  0  0  0  0  0  0  0  0  0  0  0
   16.7224   -3.5000    0.0000 C   0  0  0  0  0  0  0  0  0  0  0  0
   17.5885   -2.0000    0.0000 C   0  0  0  0  0  0  0  0  0  0  0  0
    3.7320    1.0000    0.0000 C   0  0  0  0  0  0  0  0  0  0  0  0
   17.5885   -4.0000    0.0000 C   0  0  0  0  0  0  0  0  0  0  0  0
   18.4545   -2.5000    0.0000 C   0  0  0  0  0  0  0  0  0  0  0  0
   18.4545   -3.5000    0.0000 C   0  0  0  0  0  0  0  0  0  0  0  0
    3.7320    2.0000    0.0000 C   0  0  0  0  0  0  0  0  0  0  0  0
    2.8660    0.5000    0.0000 C   0  0  0  0  0  0  0  0  0  0  0  0
    2.8660    2.5000    0.0000 C   0  0  0  0  0  0  0  0  0  0  0  0
    2.0000    1.0000    0.0000 C   0  0  0  0  0  0  0  0  0  0  0  0
    2.0000    2.0000    0.0000 C   0  0  0  0  0  0  0  0  0  0  0  0
    9.4651    1.3100    0.0000 H   0  0  0  0  0  0  0  0  0  0  0  0
    8.0622    1.1200    0.0000 H   0  0  0  0  0  0  0  0  0  0  0  0
    9.7942    1.1200    0.0000 H   0  0  0  0  0  0  0  0  0  0  0  0
    9.7942   -1.1200    0.0000 H   0  0  0  0  0  0  0  0  0  0  0  0
    8.0622   -1.1200    0.0000 H   0  0  0  0  0  0  0  0  0  0  0  0
   11.5263   -1.8800    0.0000 H   0  0  0  0  0  0  0  0  0  0  0  0
   10.9893   -3.1900    0.0000 H   0  0  0  0  0  0  0  0  0  0  0  0
    9.2573    2.8100    0.0000 H   0  0  0  0  0  0  0  0  0  0  0  0
   11.8554   -4.3100    0.0000 H   0  0  0  0  0  0  0  0  0  0  0  0
   10.0497   -1.8923    0.0000 H   0  0  0  0  0  0  0  0  0  0  0  0
   10.4482   -2.5826    0.0000 H   0  0  0  0  0  0  0  0  0  0  0  0
    9.2573    3.1900    0.0000 H   0  0  0  0  0  0  0  0  0  0  0  0
   13.7953   -3.1900    0.0000 H   0  0  0  0  0  0  0  0  0  0  0  0
   13.7953   -2.8100    0.0000 H   0  0  0  0  0  0  0  0  0  0  0  0
   11.1972    4.3100    0.0000 H   0  0  0  0  0  0  0  0  0  0  0  0
    6.8862   -0.4631    0.0000 H   0  0  0  0  0  0  0  0  0  0  0  0
    6.6592   -1.3100    0.0000 H   0  0  0  0  0  0  0  0  0  0  0  0
    7.5062   -1.5369    0.0000 H   0  0  0  0  0  0  0  0  0  0  0  0
   12.0632    3.1900    0.0000 H   0  0  0  0  0  0  0  0  0  0  0  0
   11.7383    1.9174    0.0000 H   0  0  0  0  0  0  0  0  0  0  0  0
   12.1369    2.6077    0.0000 H   0  0  0  0  0  0  0  0  0  0  0  0
   11.1972    0.6900    0.0000 H   0  0  0  0  0  0  0  0  0  0  0  0
   10.6603   -4.6200    0.0000 H   0  0  0  0  0  0  0  0  0  0  0  0
   12.9292   -5.3100    0.0000 H   0  0  0  0  0  0  0  0  0  0  0  0
    8.9282    4.6200    0.0000 H   0  0  0  0  0  0  0  0  0  0  0  0
   14.1244   -4.6200    0.0000 H   0  0  0  0  0  0  0  0  0  0  0  0
   11.1972    5.3100    0.0000 H   0  0  0  0  0  0  0  0  0  0  0  0
   12.9292    3.6900    0.0000 H   0  0  0  0  0  0  0  0  0  0  0  0
   14.5919   -2.9750    0.0000 H   0  0  0  0  0  0  0  0  0  0  0  0
   15.3889   -2.9750    0.0000 H   0  0  0  0  0  0  0  0  0  0  0  0
   16.2549   -1.5250    0.0000 H   0  0  0  0  0  0  0  0  0  0  0  0
   15.4579   -1.5250    0.0000 H   0  0  0  0  0  0  0  0  0  0  0  0
    5.4641    1.6200    0.0000 H   0  0  0  0  0  0  0  0  0  0  0  0
    4.5981   -0.1200    0.0000 H   0  0  0  0  0  0  0  0  0  0  0  0
   16.1855   -3.8100    0.0000 H   0  0  0  0  0  0  0  0  0  0  0  0
   17.5885   -1.3800    0.0000 H   0  0  0  0  0  0  0  0  0  0  0  0
   17.5885   -4.6200    0.0000 H   0  0  0  0  0  0  0  0  0  0  0  0
   18.9914   -2.1900    0.0000 H   0  0  0  0  0  0  0  0  0  0  0  0
    4.2690    2.3100    0.0000 H   0  0  0  0  0  0  0  0  0  0  0  0
    2.8660   -0.1200    0.0000 H   0  0  0  0  0  0  0  0  0  0  0  0
    2.8660    3.1200    0.0000 H   0  0  0  0  0  0  0  0  0  0  0  0
    1.4631    0.6900    0.0000 H   0  0  0  0  0  0  0  0  0  0  0  0
    1.4631    2.3100    0.0000 H   0  0  0  0  0  0  0  0  0  0  0  0
   19.8574   -3.6900    0.0000 H   0  0  0  0  0  0  0  0  0  0  0  0
  1 20  1  0  0  0  0
  1 21  1  0  0  0  0
 17  2  1  1  0  0  0
 24  2  1  1  0  0  0
 20  3  1  6  0  0  0
  3 26  1  0  0  0  0
  4 22  1  0  0  0  0
  4 30  1  0  0  0  0
 18  5  1  6  0  0  0
  5 34  1  0  0  0  0
 19  6  1  1  0  0  0
  6 72  1  0  0  0  0
  7 24  1  0  0  0  0
  7 33  1  0  0  0  0
 23  8  1  6  0  0  0
  8 73  1  0  0  0  0
 30  9  1  1  0  0  0
  9 35  1  0  0  0  0
 25 10  1  1  0  0  0
 10 74  1  0  0  0  0
 27 11  1  6  0  0  0
 11 75  1  0  0  0  0
 28 12  1  6  0  0  0
 12 76  1  0  0  0  0
 29 13  1  1  0  0  0
 13 77  1  0  0  0  0
 32 14  1  6  0  0  0
 14 78  1  0  0  0  0
 15 34  2  0  0  0  0
 16 45  1  0  0  0  0
 16 94  1  0  0  0  0
 17 18  1  0  0  0  0
 17 19  1  0  0  0  0
 17 51  1  0  0  0  0
 18 21  1  0  0  0  0
 18 52  1  0  0  0  0
 19 20  1  0  0  0  0
 19 53  1  0  0  0  0
 20 54  1  0  0  0  0
 21 31  1  1  0  0  0
 21 55  1  0  0  0  0
 22 23  1  0  0  0  0
 22 26  1  1  0  0  0
 22 56  1  0  0  0  0
 23 25  1  0  0  0  0
 23 57  1  0  0  0  0
 24 27  1  0  0  0  0
 24 58  1  0  0  0  0
 25 28  1  0  0  0  0
 25 59  1  0  0  0  0
 26 60  1  0  0  0  0
 26 61  1  0  0  0  0
 27 29  1  0  0  0  0
 27 62  1  0  0  0  0
 28 30  1  0  0  0  0
 28 63  1  0  0  0  0
 29 32  1  0  0  0  0
 29 65  1  0  0  0  0
 30 64  1  0  0  0  0
 31 66  1  0  0  0  0
 31 67  1  0  0  0  0
 31 68  1  0  0  0  0
 32 33  1  0  0  0  0
 32 69  1  0  0  0  0
 33 70  1  0  0  0  0
 33 71  1  0  0  0  0
 34 37  1  0  0  0  0
 35 36  1  0  0  0  0
 35 79  1  0  0  0  0
 35 80  1  0  0  0  0
 36 38  1  0  0  0  0
 36 81  1  0  0  0  0
 36 82  1  0  0  0  0
 37 39  2  0  0  0  0
 37 83  1  0  0  0  0
 38 40  2  0  0  0  0
 38 41  1  0  0  0  0
 39 42  1  0  0  0  0
 39 84  1  0  0  0  0
 40 43  1  0  0  0  0
 40 85  1  0  0  0  0
 41 44  2  0  0  0  0
 41 86  1  0  0  0  0
 42 46  2  0  0  0  0
 42 47  1  0  0  0  0
 43 45  2  0  0  0  0
 43 87  1  0  0  0  0
 44 45  1  0  0  0  0
 44 88  1  0  0  0  0
 46 48  1  0  0  0  0
 46 89  1  0  0  0  0
 47 49  2  0  0  0  0
 47 90  1  0  0  0  0
 48 50  2  0  0  0  0
 48 91  1  0  0  0  0
 49 50  1  0  0  0  0
 49 92  1  0  0  0  0
 50 93  1  0  0  0  0
M  END
> <PUBCHEM_COMPOUND_CID>
11953943

> <PUBCHEM_COMPOUND_CANONICALIZED>
1

> <PUBCHEM_CACTVS_COMPLEXITY>
1070

> <PUBCHEM_CACTVS_HBOND_ACCEPTOR>
16

> <PUBCHEM_CACTVS_HBOND_DONOR>
8

> <PUBCHEM_CACTVS_ROTATABLE_BOND>
13

> <PUBCHEM_CACTVS_SUBSKEYS>
AAADcfB8PgAAAAAAAAAAAAAAAAAAAAAAAAA0aJECAAAAAAABQAAAGgAACAAADBSwmAMyDoAABgCIAiDSCAACAAAgIAAIiAAGCMgZNiKCMRKicAAlwBEPuYfA4KwOIAAAAAAAAABAAAAAAAAAAAAAAAAAAA==

> <PUBCHEM_IUPAC_OPENEYE_NAME>
[(2S,3S,4S,5R,6R)-5-hydroxy-2-methyl-6-[[(2R,3S,4S,5R,6R)-3,4,5-trihydroxy-6-[2-(4-hydroxyphenyl)ethoxy]tetrahydropyran-2-yl]methoxy]-4-[(2S,3R,4S,5R)-3,4,5-trihydroxytetrahydropyran-2-yl]oxy-tetrahydropyran-3-yl] (E)-3-phenylprop-2-enoate

> <PUBCHEM_IUPAC_CAS_NAME>
(E)-3-phenyl-2-propenoic acid [(2S,3S,4S,5R,6R)-5-hydroxy-2-methyl-6-[[(2R,3S,4S,5R,6R)-3,4,5-trihydroxy-6-[2-(4-hydroxyphenyl)ethoxy]-2-oxanyl]methoxy]-4-[[(2S,3R,4S,5R)-3,4,5-trihydroxy-2-oxanyl]oxy]-3-oxanyl] ester

> <PUBCHEM_IUPAC_NAME>
[(2S,3S,4S,5R,6R)-5-hydroxy-2-methyl-6-[[(2R,3S,4S,5R,6R)-3,4,5-trihydroxy-6-[2-(4-hydroxyphenyl)ethoxy]oxan-2-yl]methoxy]-4-[(2S,3R,4S,5R)-3,4,5-trihydroxyoxan-2-yl]oxyoxan-3-yl] (E)-3-phenylprop-2-enoate

> <PUBCHEM_IUPAC_SYSTEMATIC_NAME>
[(2S,3S,4S,5R,6R)-6-[[(2R,3S,4S,5R,6R)-6-[2-(4-hydroxyphenyl)ethoxy]-3,4,5-tris(oxidanyl)oxan-2-yl]methoxy]-2-methyl-5-oxidanyl-4-[(2S,3R,4S,5R)-3,4,5-tris(oxidanyl)oxan-2-yl]oxy-oxan-3-yl] (E)-3-phenylprop-2-enoate

> <PUBCHEM_IUPAC_TRADITIONAL_NAME>
(E)-3-phenylacrylic acid [(2S,3S,4S,5R,6R)-5-hydroxy-2-methyl-6-[[(2R,3S,4S,5R,6R)-3,4,5-trihydroxy-6-[2-(4-hydroxyphenyl)ethoxy]tetrahydropyran-2-yl]methoxy]-4-[(2S,3R,4S,5R)-3,4,5-trihydroxytetrahydropyran-2-yl]oxy-tetrahydropyran-3-yl] ester

> <PUBCHEM_IUPAC_INCHI>
InChI=1S/C34H44O16/c1-17-30(49-23(37)12-9-18-5-3-2-4-6-18)31(50-33-27(41)24(38)21(36)15-45-33)29(43)34(47-17)46-16-22-25(39)26(40)28(42)32(48-22)44-14-13-19-7-10-20(35)11-8-19/h2-12,17,21-22,24-36,38-43H,13-16H2,1H3/b12-9+/t17-,21+,22+,24-,25+,26-,27+,28+,29+,30-,31-,32+,33-,34+/m0/s1

> <PUBCHEM_IUPAC_INCHIKEY>
YQECXCJMTXVAQP-VFGRUNSYSA-N

> <PUBCHEM_XLOGP3_AA>
-1

> <PUBCHEM_EXACT_MASS>
708.262935

> <PUBCHEM_MOLECULAR_FORMULA>
C34H44O16

> <PUBCHEM_MOLECULAR_WEIGHT>
708.70356

> <PUBCHEM_OPENEYE_CAN_SMILES>
CC1C(C(C(C(O1)OCC2C(C(C(C(O2)OCCC3=CC=C(C=C3)O)O)O)O)O)OC4C(C(C(CO4)O)O)O)OC(=O)C=CC5=CC=CC=C5

> <PUBCHEM_OPENEYE_ISO_SMILES>
C[C@H]1[C@@H]([C@H]([C@H]([C@@H](O1)OC[C@@H]2[C@H]([C@@H]([C@H]([C@@H](O2)OCCC3=CC=C(C=C3)O)O)O)O)O)O[C@H]4[C@@H]([C@H]([C@@H](CO4)O)O)O)OC(=O)/C=C/C5=CC=CC=C5

> <PUBCHEM_CACTVS_TPSA>
244

> <PUBCHEM_MONOISOTOPIC_WEIGHT>
708.262935

> <PUBCHEM_TOTAL_CHARGE>
0

> <PUBCHEM_HEAVY_ATOM_COUNT>
50

> <PUBCHEM_ATOM_DEF_STEREO_COUNT>
14

> <PUBCHEM_ATOM_UDEF_STEREO_COUNT>
0

> <PUBCHEM_BOND_DEF_STEREO_COUNT>
1

> <PUBCHEM_BOND_UDEF_STEREO_COUNT>
0

> <PUBCHEM_ISOTOPIC_ATOM_COUNT>
0

> <PUBCHEM_COMPONENT_COUNT>
1

> <PUBCHEM_CACTVS_TAUTO_COUNT>
2

> <PUBCHEM_COORDINATE_TYPE>
1
5
255

> <PUBCHEM_BONDANNOTATIONS>
25  10  5
27  11  6
28  12  6
29  13  5
32  14  6
17  2  5
24  2  5
21  31  5
22  26  5
20  3  6
38  40  8
38  41  8
40  43  8
41  44  8
42  46  8
42  47  8
43  45  8
44  45  8
46  48  8
47  49  8
48  50  8
49  50  8
18  5  6
19  6  5
23  8  6
30  9  5

$$$$

