47205208
  -OEChem-06241222582D

 25 26  0     0  0  0  0  0  0999 V2000
    3.0878    0.6239    0.0000 O   0  0  0  0  0  0  0  0  0  0  0  0
    5.5910    1.5718    0.0000 O   0  0  0  0  0  0  0  0  0  0  0  0
    5.0558   -0.0755    0.0000 N   0  0  0  0  0  0  0  0  0  0  0  0
    5.5456   -2.1058    0.0000 N   0  0  0  0  0  0  0  0  0  0  0  0
    6.0456   -2.9718    0.0000 N   0  0  0  0  0  0  0  0  0  0  0  0
    2.2788    1.2117    0.0000 N   0  0  0  0  0  0  0  0  0  0  0  0
    6.0068   -0.3845    0.0000 C   0  0  0  0  0  0  0  0  0  0  0  0
    6.2147   -1.3626    0.0000 C   0  0  0  0  0  0  0  0  0  0  0  0
    3.8968    1.2117    0.0000 C   0  0  0  0  0  0  0  0  0  0  0  0
    4.8479    0.9027    0.0000 C   0  0  0  0  0  0  0  0  0  0  0  0
    7.1283   -1.7694    0.0000 C   0  0  0  0  0  0  0  0  0  0  0  0
    3.5878    2.1628    0.0000 C   0  0  0  0  0  0  0  0  0  0  0  0
    2.5878    2.1628    0.0000 C   0  0  0  0  0  0  0  0  0  0  0  0
    7.0238   -2.7639    0.0000 C   0  0  0  0  0  0  0  0  0  0  0  0
    2.0000    2.9718    0.0000 C   0  0  0  0  0  0  0  0  0  0  0  0
    6.6264   -0.3628    0.0000 H   0  0  0  0  0  0  0  0  0  0  0  0
    6.0931    0.2295    0.0000 H   0  0  0  0  0  0  0  0  0  0  0  0
    4.5950   -0.4903    0.0000 H   0  0  0  0  0  0  0  0  0  0  0  0
    7.6652   -1.4594    0.0000 H   0  0  0  0  0  0  0  0  0  0  0  0
    3.9522    2.6644    0.0000 H   0  0  0  0  0  0  0  0  0  0  0  0
    4.9290   -2.0410    0.0000 H   0  0  0  0  0  0  0  0  0  0  0  0
    7.4845   -3.1787    0.0000 H   0  0  0  0  0  0  0  0  0  0  0  0
    2.5016    3.3362    0.0000 H   0  0  0  0  0  0  0  0  0  0  0  0
    1.6356    3.4734    0.0000 H   0  0  0  0  0  0  0  0  0  0  0  0
    1.4984    2.6074    0.0000 H   0  0  0  0  0  0  0  0  0  0  0  0
  1  6  1  0  0  0  0
  1  9  1  0  0  0  0
  2 10  2  0  0  0  0
  3  7  1  0  0  0  0
  3 10  1  0  0  0  0
  3 18  1  0  0  0  0
  4  5  1  0  0  0  0
  4  8  1  0  0  0  0
  4 21  1  0  0  0  0
  5 14  2  0  0  0  0
  6 13  2  0  0  0  0
  7  8  1  0  0  0  0
  7 16  1  0  0  0  0
  7 17  1  0  0  0  0
  8 11  2  0  0  0  0
  9 10  1  0  0  0  0
  9 12  2  0  0  0  0
 11 14  1  0  0  0  0
 11 19  1  0  0  0  0
 12 13  1  0  0  0  0
 12 20  1  0  0  0  0
 13 15  1  0  0  0  0
 14 22  1  0  0  0  0
 15 23  1  0  0  0  0
 15 24  1  0  0  0  0
 15 25  1  0  0  0  0
M  END
> <PUBCHEM_COMPOUND_CID>
47205208

> <PUBCHEM_COMPOUND_CANONICALIZED>
1

> <PUBCHEM_CACTVS_COMPLEXITY>
236

> <PUBCHEM_CACTVS_HBOND_ACCEPTOR>
4

> <PUBCHEM_CACTVS_HBOND_DONOR>
2

> <PUBCHEM_CACTVS_ROTATABLE_BOND>
3

> <PUBCHEM_CACTVS_SUBSKEYS>
AAADccBzsAAAAAAAAAAAAAAAAAAAAWLAAAAAAAAAAAAAAAAB4AAAHgAcAAAACAzBlgQ+hJLzAACrAbV3UgKQBAAkogA4OaH+bFoCZpoAxfMUlYhmHhiYScIcAAAAAAAAAAAAAAAAAAAAAAAAAAAAAAAAAA==

> <PUBCHEM_IUPAC_OPENEYE_NAME>
3-methyl-N-(1H-pyrazol-5-ylmethyl)isoxazole-5-carboxamide

> <PUBCHEM_IUPAC_CAS_NAME>
3-methyl-N-(1H-pyrazol-5-ylmethyl)-5-isoxazolecarboxamide

> <PUBCHEM_IUPAC_NAME>
3-methyl-N-(1H-pyrazol-5-ylmethyl)-1,2-oxazole-5-carboxamide

> <PUBCHEM_IUPAC_SYSTEMATIC_NAME>
3-methyl-N-(1H-pyrazol-5-ylmethyl)-1,2-oxazole-5-carboxamide

> <PUBCHEM_IUPAC_TRADITIONAL_NAME>
3-methyl-N-(1H-pyrazol-5-ylmethyl)isoxazole-5-carboxamide

> <PUBCHEM_IUPAC_INCHI>
InChI=1S/C9H10N4O2/c1-6-4-8(15-13-6)9(14)10-5-7-2-3-11-12-7/h2-4H,5H2,1H3,(H,10,14)(H,11,12)

> <PUBCHEM_IUPAC_INCHIKEY>
WYSWQWBCZOXFFM-UHFFFAOYSA-N

> <PUBCHEM_XLOGP3_AA>
0.2

> <PUBCHEM_EXACT_MASS>
206.080376

> <PUBCHEM_MOLECULAR_FORMULA>
C9H10N4O2

> <PUBCHEM_MOLECULAR_WEIGHT>
206.2013

> <PUBCHEM_OPENEYE_CAN_SMILES>
CC1=NOC(=C1)C(=O)NCC2=CC=NN2

> <PUBCHEM_OPENEYE_ISO_SMILES>
CC1=NOC(=C1)C(=O)NCC2=CC=NN2

> <PUBCHEM_CACTVS_TPSA>
83.8

> <PUBCHEM_MONOISOTOPIC_WEIGHT>
206.080376

> <PUBCHEM_TOTAL_CHARGE>
0

> <PUBCHEM_HEAVY_ATOM_COUNT>
15

> <PUBCHEM_ATOM_DEF_STEREO_COUNT>
0

> <PUBCHEM_ATOM_UDEF_STEREO_COUNT>
0

> <PUBCHEM_BOND_DEF_STEREO_COUNT>
0

> <PUBCHEM_BOND_UDEF_STEREO_COUNT>
0

> <PUBCHEM_ISOTOPIC_ATOM_COUNT>
0

> <PUBCHEM_COMPONENT_COUNT>
1

> <PUBCHEM_CACTVS_TAUTO_COUNT>
4

> <PUBCHEM_COORDINATE_TYPE>
1
5
255

> <PUBCHEM_BONDANNOTATIONS>
1  6  8
1  9  8
11  14  8
12  13  8
4  5  8
4  8  8
5  14  8
6  13  8
8  11  8
9  12  8

$$$$

