   Color/Form

     * Plates from benzene and ethyl acetate
     * White, orthorhombic crystals
     * WHITE TO LIGHT YELLOW
     * Yellow scaley solid at 20 deg C and 1,013 hPa

   from [1]HSDB

   Boiling Point
        238 deg C
   from [2]HSDB

   Melting Point
        50 deg C
   from [3]HSDB

   Density/Specific Gravity
        Relative density = 1.115 at 20 deg C
   from [4]HSDB

   Octanol/Water Partition Coefficient
        log Kow = -0.93 (est)
   from [5]HSDB

   Solubilities

     * Insoluble in benzene; slightly soluble in ethyl ether, choroform;
       very soluble in ethanol, acetone, methanol
     * Soluble in aqueous acids.
     * In water, 3.74X10+6 mg/L at 25 deg C

   from [6]HSDB

   Spectral Properties

     * SADTLER REFERENCE NUMBER: 5332 (IR, PRISM)
     * Iindex of refraction: 1.4804 at 20 deg C/D
     * IR: 5650 (Coblentz Society Spectral Collection)
     * 1H NMR: 18702 (Sadtler Research Laboratories Spectral Collection)
     * MASS: 63579 (NIST/EPA/MSDC Mass Spectral Database, 1990 version)

   from [7]HSDB

   Surface Tension
        58.9 mN/m at 30.8 deg C (50% aqueous solution)
   from [8]HSDB

   Vapor Pressure
        5.56X10-4 mm Hg at 25 deg C
   from [9]HSDB

   Other Chemical/Physical Properties

     * SOLN IS STRAW TO AMBER COLOR
     * Henry's Law constant = 1.684X10-11 atm-cu m/mol at 25 deg C (est)
     * Hydroxyl radical reaction rate constant = 3.38X10-11 cu
       cm/molec-sec at 25 deg C (est)

   from [10]HSDB

   Computed Properties
   Molecular Weight                  86.08924 [g/mol]
   Molecular Formula                 C[4]H[6]O[2]
   XLogP3-AA                         -1.1
   H-Bond Donor                      2
   H-Bond Acceptor                   2
   Rotatable Bond Count              0
   Exact Mass                        86.036779
   MonoIsotopic Mass                 86.036779
   Topological Polar Surface Area    40.5
   Heavy Atom Count                  6
   Formal Charge                     0
   Complexity                        66
   Isotope Atom Count                0
   Defined Atom Stereocenter Count   0
   Undefined Atom Stereocenter Count 0
   Defined Bond Stereocenter Count   0
   Undefined Bond Stereocenter Count 0
   Covalently-Bonded Unit Count      1
   Feature 3D Acceptor Count         2
   Feature 3D Donor Count            2
   Effective Rotor Count             0
   Conformer Sampling RMSD           0.4
   CID Conformer Count               [11]1

References

   1. http://toxnet.nlm.nih.gov/cgi-bin/sis/search/r?dbs+hsdb:@term+@rn+@rel+110-65-6
   2. http://toxnet.nlm.nih.gov/cgi-bin/sis/search/r?dbs+hsdb:@term+@rn+@rel+110-65-6
   3. http://toxnet.nlm.nih.gov/cgi-bin/sis/search/r?dbs+hsdb:@term+@rn+@rel+110-65-6
   4. http://toxnet.nlm.nih.gov/cgi-bin/sis/search/r?dbs+hsdb:@term+@rn+@rel+110-65-6
   5. http://toxnet.nlm.nih.gov/cgi-bin/sis/search/r?dbs+hsdb:@term+@rn+@rel+110-65-6
   6. http://toxnet.nlm.nih.gov/cgi-bin/sis/search/r?dbs+hsdb:@term+@rn+@rel+110-65-6
   7. http://toxnet.nlm.nih.gov/cgi-bin/sis/search/r?dbs+hsdb:@term+@rn+@rel+110-65-6
   8. http://toxnet.nlm.nih.gov/cgi-bin/sis/search/r?dbs+hsdb:@term+@rn+@rel+110-65-6
   9. http://toxnet.nlm.nih.gov/cgi-bin/sis/search/r?dbs+hsdb:@term+@rn+@rel+110-65-6
  10. http://toxnet.nlm.nih.gov/cgi-bin/sis/search/r?dbs+hsdb:@term+@rn+@rel+110-65-6
  11. http://pubchem.ncbi.nlm.nih.gov/vw3d/vw3d.cgi?cid=8066
