   Color/Form
        Colorless liquid
   from [1]HSDB

   Odor
        DISAGREEABLE ODOR
   from [2]HSDB

   Boiling Point
        63.3 deg C
   from [3]HSDB

   Melting Point
        -150 deg C
   from [4]HSDB

   Density/Specific Gravity
        0.8297 @ 20 deg C
   from [5]HSDB

   Heat of Combustion
        -15,200 btu/lb (-8,470 cal/g or -3.54X10+7 J/kg)
   from [6]HSDB

   Heat of Vaporization
        180 btu/lb (est; 100 cal/g or 4.2X10+5 J/kg)
   from [7]HSDB

   Solubilities

     * Sol in alcohol, ether, acetone, organic solvents
     * Miscible with common aliphatic and aromatic solvents
     * In water, 95,000 ppm at 25 deg C

   from [8]HSDB

   Spectral Properties

     * Index of refraction: 1.3851 @ 20 deg C
     * IR: SAD 15718 (Sadtler Research Laboratories Prism Collection)
     * NMR: SAD 18401 (Sadtler Research Laboratories Spectral Collection)
     * MS: WILEY 72 (Atlas of Mass Spectral Data, John Wiley & Sons, New
       York)

   from [9]HSDB

   Vapor Density
        2.2 (AIR= 1)
   from [10]HSDB

   Vapor Pressure
        180 mm Hg @ 25 deg C
   from [11]HSDB

   Other Chemical/Physical Properties

     * Liquid is lighter than water, vapor is heavier than air
     * MS: NIST 46213 (NIST/EPA/MSDC. Mass Spectral Database, 1990
       Version); WILEY 72 (Atlas of Mass Spectral Data, John Wiley & Sons,
       New York) /Butane, 2,3-epoxy (cis)/
     * IR: u COB 1758 (Coblentz Society Spectral Collection) /Butane,
       2,3-epoxy (trans)/
     * MS: NIST 296 (NIST/EPA/MSDC. Mass Spectral Database, 1990 Version)
       /Butane, 2,3-epoxy (trans)/
     * Hydroxyl radical rate constant = 1.91X10-12 cu-cm/mol-sec @ 25 deg
       C

   from [12]HSDB

   Computed Properties
   Molecular Weight                  72.10572 [g/mol]
   Molecular Formula                 C[4]H[8]O
   XLogP3-AA                         0.8
   H-Bond Donor                      0
   H-Bond Acceptor                   1
   Rotatable Bond Count              1
   Exact Mass                        72.057515
   MonoIsotopic Mass                 72.057515
   Topological Polar Surface Area    12.5
   Heavy Atom Count                  5
   Formal Charge                     0
   Complexity                        34.6
   Isotope Atom Count                0
   Defined Atom Stereocenter Count   0
   Undefined Atom Stereocenter Count 1
   Defined Bond Stereocenter Count   0
   Undefined Bond Stereocenter Count 0
   Covalently-Bonded Unit Count      1
   Feature 3D Acceptor Count         1
   Feature 3D Hydrophobe Count       1
   Effective Rotor Count             1.6
   Conformer Sampling RMSD           0.4
   CID Conformer Count               [13]4

References

   1. http://toxnet.nlm.nih.gov/cgi-bin/sis/search/r?dbs+hsdb:@term+@rn+@rel+106-88-7
   2. http://toxnet.nlm.nih.gov/cgi-bin/sis/search/r?dbs+hsdb:@term+@rn+@rel+106-88-7
   3. http://toxnet.nlm.nih.gov/cgi-bin/sis/search/r?dbs+hsdb:@term+@rn+@rel+106-88-7
   4. http://toxnet.nlm.nih.gov/cgi-bin/sis/search/r?dbs+hsdb:@term+@rn+@rel+106-88-7
   5. http://toxnet.nlm.nih.gov/cgi-bin/sis/search/r?dbs+hsdb:@term+@rn+@rel+106-88-7
   6. http://toxnet.nlm.nih.gov/cgi-bin/sis/search/r?dbs+hsdb:@term+@rn+@rel+106-88-7
   7. http://toxnet.nlm.nih.gov/cgi-bin/sis/search/r?dbs+hsdb:@term+@rn+@rel+106-88-7
   8. http://toxnet.nlm.nih.gov/cgi-bin/sis/search/r?dbs+hsdb:@term+@rn+@rel+106-88-7
   9. http://toxnet.nlm.nih.gov/cgi-bin/sis/search/r?dbs+hsdb:@term+@rn+@rel+106-88-7
  10. http://toxnet.nlm.nih.gov/cgi-bin/sis/search/r?dbs+hsdb:@term+@rn+@rel+106-88-7
  11. http://toxnet.nlm.nih.gov/cgi-bin/sis/search/r?dbs+hsdb:@term+@rn+@rel+106-88-7
  12. http://toxnet.nlm.nih.gov/cgi-bin/sis/search/r?dbs+hsdb:@term+@rn+@rel+106-88-7
  13. http://pubchem.ncbi.nlm.nih.gov/vw3d/vw3d.cgi?cid=7834
