129648
  -OEChem-07051212452D

 32 35  0     1  0  0  0  0  0999 V2000
    5.9065   -1.0402    0.0000 O   0  0  0  0  0  0  0  0  0  0  0  0
    8.0505    1.0283    0.0000 O   0  0  0  0  0  0  0  0  0  0  0  0
    6.0942    1.4441    0.0000 O   0  0  0  0  0  0  0  0  0  0  0  0
    2.4170   -0.1360    0.0000 O   0  0  0  0  0  0  0  0  0  0  0  0
   10.6901   -1.3159    0.0000 O   0  0  0  0  0  0  0  0  0  0  0  0
    6.4033    0.4930    0.0000 C   0  0  1  0  0  0  0  0  0  0  0  0
    6.7123   -0.4580    0.0000 C   0  0  2  0  0  0  0  0  0  0  0  0
    5.4092    0.4904    0.0000 C   0  0  0  0  0  0  0  0  0  0  0  0
    7.0724    1.2362    0.0000 C   0  0  0  0  0  0  0  0  0  0  0  0
    7.6904   -0.6659    0.0000 C   0  0  0  0  0  0  0  0  0  0  0  0
    5.1028   -0.4553    0.0000 C   0  0  0  0  0  0  0  0  0  0  0  0
    8.3596    0.0772    0.0000 C   0  0  0  0  0  0  0  0  0  0  0  0
    4.7276    1.2699    0.0000 C   0  0  0  0  0  0  0  0  0  0  0  0
    7.9970   -1.6614    0.0000 C   0  0  0  0  0  0  0  0  0  0  0  0
    4.0936   -0.6870    0.0000 C   0  0  0  0  0  0  0  0  0  0  0  0
    9.3816   -0.1236    0.0000 C   0  0  0  0  0  0  0  0  0  0  0  0
    3.7133    1.0616    0.0000 C   0  0  0  0  0  0  0  0  0  0  0  0
    3.3942    0.0765    0.0000 C   0  0  0  0  0  0  0  0  0  0  0  0
    9.0142   -1.8859    0.0000 C   0  0  0  0  0  0  0  0  0  0  0  0
    9.7112   -1.1118    0.0000 C   0  0  0  0  0  0  0  0  0  0  0  0
    6.8879   -1.2897    0.0000 H   0  0  0  0  0  0  0  0  0  0  0  0
    7.3046    1.8110    0.0000 H   0  0  0  0  0  0  0  0  0  0  0  0
    6.5466    1.5647    0.0000 H   0  0  0  0  0  0  0  0  0  0  0  0
    4.9255    1.8575    0.0000 H   0  0  0  0  0  0  0  0  0  0  0  0
    6.5091    1.9048    0.0000 H   0  0  0  0  0  0  0  0  0  0  0  0
    7.5768   -2.1174    0.0000 H   0  0  0  0  0  0  0  0  0  0  0  0
    3.9094   -1.2790    0.0000 H   0  0  0  0  0  0  0  0  0  0  0  0
    9.7912    0.3419    0.0000 H   0  0  0  0  0  0  0  0  0  0  0  0
    3.2998    1.5236    0.0000 H   0  0  0  0  0  0  0  0  0  0  0  0
    9.2035   -2.4762    0.0000 H   0  0  0  0  0  0  0  0  0  0  0  0
    2.0000    0.3228    0.0000 H   0  0  0  0  0  0  0  0  0  0  0  0
   10.8840   -1.9048    0.0000 H   0  0  0  0  0  0  0  0  0  0  0  0
  1  7  1  0  0  0  0
  1 11  1  0  0  0  0
  2  9  1  0  0  0  0
  2 12  1  0  0  0  0
  6  3  1  1  0  0  0
  3 25  1  0  0  0  0
  4 18  1  0  0  0  0
  4 31  1  0  0  0  0
  5 20  1  0  0  0  0
  5 32  1  0  0  0  0
  6  7  1  0  0  0  0
  6  8  1  0  0  0  0
  6  9  1  0  0  0  0
  7 10  1  0  0  0  0
  7 21  1  1  0  0  0
  8 11  2  0  0  0  0
  8 13  1  0  0  0  0
  9 22  1  0  0  0  0
  9 23  1  0  0  0  0
 10 12  2  0  0  0  0
 10 14  1  0  0  0  0
 11 15  1  0  0  0  0
 12 16  1  0  0  0  0
 13 17  2  0  0  0  0
 13 24  1  0  0  0  0
 14 19  2  0  0  0  0
 14 26  1  0  0  0  0
 15 18  2  0  0  0  0
 15 27  1  0  0  0  0
 16 20  2  0  0  0  0
 16 28  1  0  0  0  0
 17 18  1  0  0  0  0
 17 29  1  0  0  0  0
 19 20  1  0  0  0  0
 19 30  1  0  0  0  0
M  END
> <PUBCHEM_COMPOUND_CID>
129648

> <PUBCHEM_COMPOUND_CANONICALIZED>
1

> <PUBCHEM_CACTVS_COMPLEXITY>
389

> <PUBCHEM_CACTVS_HBOND_ACCEPTOR>
5

> <PUBCHEM_CACTVS_HBOND_DONOR>
3

> <PUBCHEM_CACTVS_ROTATABLE_BOND>
0

> <PUBCHEM_CACTVS_SUBSKEYS>
AAADccBwOAAAAAAAAAAAAAAAAAAAASAAAAA0YIAAAAAAAEiRQAAAGgAACAAADFSgmAIwBoAABgCAAiBCAAACCAAgIAAIiAAGCIgNJyKGMRqCeCClwBULuAfA4PwOoAAACAAIAABAAAAQABAAAAAAAAAAAA==

> <PUBCHEM_IUPAC_OPENEYE_NAME>
(6aS,11aS)-6,11a-dihydrobenzofuro[3,2-c]chromene-3,6a,9-triol

> <PUBCHEM_IUPAC_CAS_NAME>
(6aS,11aS)-6,11a-dihydrobenzofuro[3,2-c][1]benzopyran-3,6a,9-triol

> <PUBCHEM_IUPAC_NAME>
(6aS,11aS)-6,11a-dihydro-[1]benzofuro[3,2-c]chromene-3,6a,9-triol

> <PUBCHEM_IUPAC_SYSTEMATIC_NAME>
(6aS,11aS)-6,11a-dihydro-[1]benzofuro[3,2-c]chromene-3,6a,9-triol

> <PUBCHEM_IUPAC_TRADITIONAL_NAME>
(6aS,11aS)-6,11a-dihydrobenzofuro[3,2-c]chromene-3,6a,9-triol

> <PUBCHEM_IUPAC_INCHI>
InChI=1S/C15H12O5/c16-8-1-3-10-12(5-8)19-7-15(18)11-4-2-9(17)6-13(11)20-14(10)15/h1-6,14,16-18H,7H2/t14-,15+/m0/s1

> <PUBCHEM_IUPAC_INCHIKEY>
QMXOFBXZEKTJIK-LSDHHAIUSA-N

> <PUBCHEM_XLOGP3_AA>
1.2

> <PUBCHEM_EXACT_MASS>
272.068473

> <PUBCHEM_MOLECULAR_FORMULA>
C15H12O5

> <PUBCHEM_MOLECULAR_WEIGHT>
272.25278

> <PUBCHEM_OPENEYE_CAN_SMILES>
C1C2(C(C3=C(O1)C=C(C=C3)O)OC4=C2C=CC(=C4)O)O

> <PUBCHEM_OPENEYE_ISO_SMILES>
C1[C@@]2([C@H](C3=C(O1)C=C(C=C3)O)OC4=C2C=CC(=C4)O)O

> <PUBCHEM_CACTVS_TPSA>
79.2

> <PUBCHEM_MONOISOTOPIC_WEIGHT>
272.068473

> <PUBCHEM_TOTAL_CHARGE>
0

> <PUBCHEM_HEAVY_ATOM_COUNT>
20

> <PUBCHEM_ATOM_DEF_STEREO_COUNT>
2

> <PUBCHEM_ATOM_UDEF_STEREO_COUNT>
0

> <PUBCHEM_BOND_DEF_STEREO_COUNT>
0

> <PUBCHEM_BOND_UDEF_STEREO_COUNT>
0

> <PUBCHEM_ISOTOPIC_ATOM_COUNT>
0

> <PUBCHEM_COMPONENT_COUNT>
1

> <PUBCHEM_CACTVS_TAUTO_COUNT>
8

> <PUBCHEM_COORDINATE_TYPE>
1
5
255

> <PUBCHEM_BONDANNOTATIONS>
10  12  8
10  14  8
11  15  8
12  16  8
13  17  8
14  19  8
15  18  8
16  20  8
17  18  8
19  20  8
6  3  5
7  21  5
8  11  8
8  13  8

$$$$

