46173802
  -OEChem-07051213032D

 64 66  0     1  0  0  0  0  0999 V2000
   10.1588   -0.7301    0.0000 P   0  0  3  0  0  0  0  0  0  0  0  0
    9.2928    0.7699    0.0000 P   0  0  3  0  0  0  0  0  0  0  0  0
   11.8909   -1.7300    0.0000 O   0  0  0  0  0  0  0  0  0  0  0  0
    6.6472    2.3632    0.0000 O   0  0  0  0  0  0  0  0  0  0  0  0
   13.6229   -3.7300    0.0000 O   0  0  0  0  0  0  0  0  0  0  0  0
   10.1588   -1.7300    0.0000 O   0  0  0  0  0  0  0  0  0  0  0  0
   11.8909   -4.7300    0.0000 O   0  0  0  0  0  0  0  0  0  0  0  0
   10.1588   -3.7300    0.0000 O   0  0  0  0  0  0  0  0  0  0  0  0
    8.1994    4.4336    0.0000 O   0  0  0  0  0  0  0  0  0  0  0  0
    8.4268    1.2700    0.0000 O   0  0  0  0  0  0  0  0  0  0  0  0
   10.1588    0.2699    0.0000 O   0  0  0  0  0  0  0  0  0  0  0  0
    9.1588   -0.7301    0.0000 O   0  0  0  0  0  0  0  0  0  0  0  0
   11.1588   -0.7301    0.0000 O   0  0  0  0  0  0  0  0  0  0  0  0
    9.7928    1.6360    0.0000 O   0  0  0  0  0  0  0  0  0  0  0  0
    4.8025    4.7244    0.0000 O   0  0  0  0  0  0  0  0  0  0  0  0
    8.7928   -0.0961    0.0000 O   0  0  0  0  0  0  0  0  0  0  0  0
    2.0000    2.6882    0.0000 O   0  0  0  0  0  0  0  0  0  0  0  0
    4.9836    3.0018    0.0000 N   0  0  0  0  0  0  0  0  0  0  0  0
    3.4013    3.7063    0.0000 N   0  0  0  0  0  0  0  0  0  0  0  0
   12.7569   -2.2300    0.0000 C   0  0  0  0  0  0  0  0  0  0  0  0
   12.7569   -3.2300    0.0000 C   0  0  1  0  0  0  0  0  0  0  0  0
   11.8909   -3.7300    0.0000 C   0  0  2  0  0  0  0  0  0  0  0  0
   11.0249   -3.2300    0.0000 C   0  0  2  0  0  0  0  0  0  0  0  0
   11.0249   -2.2300    0.0000 C   0  0  2  0  0  0  0  0  0  0  0  0
    7.4562    3.7645    0.0000 C   0  0  2  0  0  0  0  0  0  0  0  0
    7.5608    2.7700    0.0000 C   0  0  1  0  0  0  0  0  0  0  0  0
    6.4781    3.9724    0.0000 C   0  0  0  0  0  0  0  0  0  0  0  0
    5.9781    3.1064    0.0000 C   0  0  1  0  0  0  0  0  0  0  0  0
   13.7569   -2.2300    0.0000 C   0  0  0  0  0  0  0  0  0  0  0  0
   13.2569   -1.3640    0.0000 C   0  0  0  0  0  0  0  0  0  0  0  0
    8.4268    2.2700    0.0000 C   0  0  0  0  0  0  0  0  0  0  0  0
    4.5768    2.0883    0.0000 C   0  0  0  0  0  0  0  0  0  0  0  0
    4.3958    3.8108    0.0000 C   0  0  0  0  0  0  0  0  0  0  0  0
    3.5823    1.9838    0.0000 C   0  0  0  0  0  0  0  0  0  0  0  0
    2.9945    2.7928    0.0000 C   0  0  0  0  0  0  0  0  0  0  0  0
    3.1756    1.0702    0.0000 C   0  0  0  0  0  0  0  0  0  0  0  0
   13.2939   -2.9200    0.0000 H   0  0  0  0  0  0  0  0  0  0  0  0
   12.4278   -4.0400    0.0000 H   0  0  0  0  0  0  0  0  0  0  0  0
   10.4879   -2.9200    0.0000 H   0  0  0  0  0  0  0  0  0  0  0  0
   10.4879   -2.5400    0.0000 H   0  0  0  0  0  0  0  0  0  0  0  0
    8.0351    3.5423    0.0000 H   0  0  0  0  0  0  0  0  0  0  0  0
    7.5283    2.1508    0.0000 H   0  0  0  0  0  0  0  0  0  0  0  0
    6.6697    4.5620    0.0000 H   0  0  0  0  0  0  0  0  0  0  0  0
    5.9117    4.2246    0.0000 H   0  0  0  0  0  0  0  0  0  0  0  0
    5.7559    2.5275    0.0000 H   0  0  0  0  0  0  0  0  0  0  0  0
   13.7939   -1.6740    0.0000 H   0  0  0  0  0  0  0  0  0  0  0  0
   13.5669   -0.8271    0.0000 H   0  0  0  0  0  0  0  0  0  0  0  0
   12.7200   -1.0540    0.0000 H   0  0  0  0  0  0  0  0  0  0  0  0
   13.7569   -2.8500    0.0000 H   0  0  0  0  0  0  0  0  0  0  0  0
   14.3769   -2.2300    0.0000 H   0  0  0  0  0  0  0  0  0  0  0  0
   13.7569   -1.6100    0.0000 H   0  0  0  0  0  0  0  0  0  0  0  0
    9.0374    2.1623    0.0000 H   0  0  0  0  0  0  0  0  0  0  0  0
    8.6388    2.8526    0.0000 H   0  0  0  0  0  0  0  0  0  0  0  0
   13.6229   -4.3501    0.0000 H   0  0  0  0  0  0  0  0  0  0  0  0
   11.3540   -5.0400    0.0000 H   0  0  0  0  0  0  0  0  0  0  0  0
    9.6219   -3.4200    0.0000 H   0  0  0  0  0  0  0  0  0  0  0  0
    8.0705    5.0400    0.0000 H   0  0  0  0  0  0  0  0  0  0  0  0
    4.9413    1.5867    0.0000 H   0  0  0  0  0  0  0  0  0  0  0  0
    3.0368    4.2079    0.0000 H   0  0  0  0  0  0  0  0  0  0  0  0
    8.8488   -1.2670    0.0000 H   0  0  0  0  0  0  0  0  0  0  0  0
    2.6092    1.3224    0.0000 H   0  0  0  0  0  0  0  0  0  0  0  0
    2.9234    0.5038    0.0000 H   0  0  0  0  0  0  0  0  0  0  0  0
    3.7420    0.8180    0.0000 H   0  0  0  0  0  0  0  0  0  0  0  0
   10.4128    1.6360    0.0000 H   0  0  0  0  0  0  0  0  0  0  0  0
  1  6  1  0  0  0  0
  1 11  1  0  0  0  0
  1 12  1  0  0  0  0
  1 13  2  0  0  0  0
  2 10  1  0  0  0  0
  2 11  1  0  0  0  0
  2 14  1  0  0  0  0
  2 16  2  0  0  0  0
  3 20  1  0  0  0  0
  3 24  1  0  0  0  0
  4 26  1  0  0  0  0
  4 28  1  0  0  0  0
 21  5  1  6  0  0  0
  5 54  1  0  0  0  0
 24  6  1  1  0  0  0
 22  7  1  1  0  0  0
  7 55  1  0  0  0  0
 23  8  1  1  0  0  0
  8 56  1  0  0  0  0
 25  9  1  6  0  0  0
  9 57  1  0  0  0  0
 10 31  1  0  0  0  0
 12 60  1  0  0  0  0
 14 64  1  0  0  0  0
 15 33  2  0  0  0  0
 17 35  2  0  0  0  0
 28 18  1  1  0  0  0
 18 32  1  0  0  0  0
 18 33  1  0  0  0  0
 19 33  1  0  0  0  0
 19 35  1  0  0  0  0
 19 59  1  0  0  0  0
 20 21  1  0  0  0  0
 20 29  1  0  0  0  0
 20 30  1  0  0  0  0
 21 22  1  0  0  0  0
 21 37  1  0  0  0  0
 22 23  1  0  0  0  0
 22 38  1  0  0  0  0
 23 24  1  0  0  0  0
 23 39  1  0  0  0  0
 24 40  1  0  0  0  0
 25 26  1  0  0  0  0
 25 27  1  0  0  0  0
 25 41  1  0  0  0  0
 26 31  1  1  0  0  0
 26 42  1  0  0  0  0
 27 28  1  0  0  0  0
 27 43  1  0  0  0  0
 27 44  1  0  0  0  0
 28 45  1  0  0  0  0
 29 49  1  0  0  0  0
 29 50  1  0  0  0  0
 29 51  1  0  0  0  0
 30 46  1  0  0  0  0
 30 47  1  0  0  0  0
 30 48  1  0  0  0  0
 31 52  1  0  0  0  0
 31 53  1  0  0  0  0
 32 34  2  0  0  0  0
 32 58  1  0  0  0  0
 34 35  1  0  0  0  0
 34 36  1  0  0  0  0
 36 61  1  0  0  0  0
 36 62  1  0  0  0  0
 36 63  1  0  0  0  0
M  END
> <PUBCHEM_COMPOUND_CID>
46173802

> <PUBCHEM_COMPOUND_CANONICALIZED>
1

> <PUBCHEM_CACTVS_COMPLEXITY>
1000

> <PUBCHEM_CACTVS_HBOND_ACCEPTOR>
15

> <PUBCHEM_CACTVS_HBOND_DONOR>
7

> <PUBCHEM_CACTVS_ROTATABLE_BOND>
8

> <PUBCHEM_CACTVS_SUBSKEYS>
AAADceB7PAMAAAAAAAAAAAAAAAAAASAAAAAkQAAAAAAAAAAAAAAAHgAQCCAADFTxgAcDCAPABxCIQgFWUICAAAAAAAAAAAEIAECREAIAgQAOQAAPByIHAMHwcBYMAAAAAAAAAAAAAAAAAAAAAAAAAAAAAA==

> <PUBCHEM_IUPAC_OPENEYE_NAME>
[hydroxy-[[(2R,3S,5R)-3-hydroxy-5-(5-methyl-2,4-dioxo-pyrimidin-1-yl)tetrahydrofuran-2-yl]methoxy]phosphoryl] [(2R,3R,4R,5R)-3,4,5-trihydroxy-6,6-dimethyl-tetrahydropyran-2-yl] hydrogen phosphate

> <PUBCHEM_IUPAC_CAS_NAME>
[hydroxy-[[(2R,3S,5R)-3-hydroxy-5-(5-methyl-2,4-dioxo-1-pyrimidinyl)-2-oxolanyl]methoxy]phosphoryl] [(2R,3R,4R,5R)-3,4,5-trihydroxy-6,6-dimethyl-2-oxanyl] hydrogen phosphate

> <PUBCHEM_IUPAC_NAME>
[hydroxy-[[(2R,3S,5R)-3-hydroxy-5-(5-methyl-2,4-dioxopyrimidin-1-yl)oxolan-2-yl]methoxy]phosphoryl] [(2R,3R,4R,5R)-3,4,5-trihydroxy-6,6-dimethyloxan-2-yl] hydrogen phosphate

> <PUBCHEM_IUPAC_SYSTEMATIC_NAME>
[(2R,3R,4R,5R)-6,6-dimethyl-3,4,5-tris(oxidanyl)oxan-2-yl] [[(2R,3S,5R)-5-[5-methyl-2,4-bis(oxidanylidene)pyrimidin-1-yl]-3-oxidanyl-oxolan-2-yl]methoxy-oxidanyl-phosphoryl] hydrogen phosphate

> <PUBCHEM_IUPAC_TRADITIONAL_NAME>
[[(2R,3S,5R)-5-(2,4-diketo-5-methyl-pyrimidin-1-yl)-3-hydroxy-tetrahydrofuran-2-yl]methoxy-hydroxy-phosphoryl] [(2R,3R,4R,5R)-3,4,5-trihydroxy-6,6-dimethyl-tetrahydropyran-2-yl] hydrogen phosphate

> <PUBCHEM_IUPAC_INCHI>
InChI=1S/C17H28N2O15P2/c1-7-5-19(16(25)18-14(7)24)10-4-8(20)9(31-10)6-30-35(26,27)34-36(28,29)33-15-12(22)11(21)13(23)17(2,3)32-15/h5,8-13,15,20-23H,4,6H2,1-3H3,(H,26,27)(H,28,29)(H,18,24,25)/t8-,9+,10+,11-,12+,13+,15+/m0/s1

> <PUBCHEM_IUPAC_INCHIKEY>
DVDRTBMEUQUIJJ-FNTRQBMGSA-N

> <PUBCHEM_XLOGP3_AA>
-4.6

> <PUBCHEM_EXACT_MASS>
562.096491

> <PUBCHEM_MOLECULAR_FORMULA>
C17H28N2O15P2

> <PUBCHEM_MOLECULAR_WEIGHT>
562.356144

> <PUBCHEM_OPENEYE_CAN_SMILES>
CC1=CN(C(=O)NC1=O)C2CC(C(O2)COP(=O)(O)OP(=O)(O)OC3C(C(C(C(O3)(C)C)O)O)O)O

> <PUBCHEM_OPENEYE_ISO_SMILES>
CC1=CN(C(=O)NC1=O)[C@H]2C[C@@H]([C@H](O2)COP(=O)(O)OP(=O)(O)O[C@@H]3[C@@H]([C@@H]([C@H](C(O3)(C)C)O)O)O)O

> <PUBCHEM_CACTVS_TPSA>
251

> <PUBCHEM_MONOISOTOPIC_WEIGHT>
562.096491

> <PUBCHEM_TOTAL_CHARGE>
0

> <PUBCHEM_HEAVY_ATOM_COUNT>
36

> <PUBCHEM_ATOM_DEF_STEREO_COUNT>
7

> <PUBCHEM_ATOM_UDEF_STEREO_COUNT>
0

> <PUBCHEM_BOND_DEF_STEREO_COUNT>
0

> <PUBCHEM_BOND_UDEF_STEREO_COUNT>
0

> <PUBCHEM_ISOTOPIC_ATOM_COUNT>
0

> <PUBCHEM_COMPONENT_COUNT>
1

> <PUBCHEM_CACTVS_TAUTO_COUNT>
3

> <PUBCHEM_COORDINATE_TYPE>
1
5
255

> <PUBCHEM_BONDANNOTATIONS>
28  18  5
18  32  8
18  33  8
19  33  8
19  35  8
26  31  5
32  34  8
34  35  8
21  5  6
24  6  5
22  7  5
23  8  5
25  9  6

$$$$

