   Color/Form
        Off-white powder
   from [1]HSDB

   Odor
        Odorless
   from [2]HSDB

   Taste
        Tasteless
   from [3]HSDB

   Melting Point
        228-232 deg C
   from [4]HSDB

   Solubilities

     * Soluble in certain organic solvents.
     * Practically insoluble in petroleum ether.
     * Moderately soluble in acetone and ethanol.
     * Slightly soluble in alcohols. In acetone, chloroform >50; ethyl
       acetate 2, benzene 0.6 (all in g/l @ 25 deg C).
     * In water, 84 mg/l @ 20 deg C pH 9.3; 2.5 mg/l @ 20 deg C @ pH 7.3;
       0.031 mg/l @ 20 deg C, pH 5.2.

   from [5]HSDB

   Other Chemical/Physical Properties

     * VP: 1.2X10-6 mm Hg @ 45 deg C
     * Buff/beige powder /Technical/

   from [6]HSDB

   Computed Properties
   Molecular Weight                  444.52046 [g/mol]
   Molecular Formula                 C[31]H[24]O[3]
   XLogP3-AA                         6.9
   H-Bond Donor                      1
   H-Bond Acceptor                   3
   Rotatable Bond Count              3
   Tautomer Count                    3
   Exact Mass                        444.172545
   MonoIsotopic Mass                 444.172545
   Topological Polar Surface Area    46.5
   Heavy Atom Count                  34
   Formal Charge                     0
   Complexity                        757
   Isotope Atom Count                0
   Defined Atom Stereocenter Count   0
   Undefined Atom Stereocenter Count 2
   Defined Bond Stereocenter Count   0
   Undefined Bond Stereocenter Count 0
   Covalently-Bonded Unit Count      1
   Feature 3D Acceptor Count         1
   Feature 3D Donor Count            1
   Feature 3D Ring Count             6
   Effective Rotor Count             3.8
   Conformer Sampling RMSD           0.8
   CID Conformer Count               [7]26

References

   1. http://toxnet.nlm.nih.gov/cgi-bin/sis/search/r?dbs+hsdb:@term+@rn+@rel+56073-07-5
   2. http://toxnet.nlm.nih.gov/cgi-bin/sis/search/r?dbs+hsdb:@term+@rn+@rel+56073-07-5
   3. http://toxnet.nlm.nih.gov/cgi-bin/sis/search/r?dbs+hsdb:@term+@rn+@rel+56073-07-5
   4. http://toxnet.nlm.nih.gov/cgi-bin/sis/search/r?dbs+hsdb:@term+@rn+@rel+56073-07-5
   5. http://toxnet.nlm.nih.gov/cgi-bin/sis/search/r?dbs+hsdb:@term+@rn+@rel+56073-07-5
   6. http://toxnet.nlm.nih.gov/cgi-bin/sis/search/r?dbs+hsdb:@term+@rn+@rel+56073-07-5
   7. http://pubchem.ncbi.nlm.nih.gov/vw3d/vw3d.cgi?cid=54676884
