   Color/Form
        Clear mobile liquid
   from [1]HSDB

   Boiling Point
        67 deg C @ 3.5 mm Hg
   from [2]HSDB

   Melting Point
        FP: -12 deg C
   from [3]HSDB

   Density/Specific Gravity
        1.034 @ 25 deg C/4 deg C
   from [4]HSDB

   Octanol/Water Partition Coefficient
        log Kow= 0.47
   from [5]HSDB

   Solubilities
        Miscible with water and soluble in common org solvents
   from [6]HSDB

   Spectral Properties

     * Index of refraction: 1.4515 @ 20 DEG C/D
     * IR: 2:345I (Aldrich Library of Infrared Spectra, Aldrich Chemical
       Co, Milwaukee, WI)
     * NMR: 3:50D (Aldrich Library of Mass Spectra, Aldrich Chemical Co,
       Milwaukee, WI)
     * MASS: 4071 (National Bureau of Standards EPA-NIH Mass Spectra Data
       Base, NSRDS-NBS-63)

   from [7]HSDB

   Vapor Pressure
        0.126 mm Hg @ 25 deg C
   from [8]HSDB

   Other Chemical/Physical Properties
        Heat of polymerization: 49.8 kJ/mole
   from [9]HSDB

   Computed Properties
   Molecular Weight                  130.1418 [g/mol]
   Molecular Formula                 C[6]H[10]O[3]
   XLogP3                            0.5
   H-Bond Donor                      1
   H-Bond Acceptor                   3
   Rotatable Bond Count              4
   Exact Mass                        130.062994
   MonoIsotopic Mass                 130.062994
   Topological Polar Surface Area    46.5
   Heavy Atom Count                  9
   Formal Charge                     0
   Complexity                        118
   Isotope Atom Count                0
   Defined Atom Stereocenter Count   0
   Undefined Atom Stereocenter Count 0
   Defined Bond Stereocenter Count   0
   Undefined Bond Stereocenter Count 0
   Covalently-Bonded Unit Count      1
   Feature 3D Acceptor Count         2
   Feature 3D Donor Count            1
   Effective Rotor Count             4
   Conformer Sampling RMSD           0.6
   CID Conformer Count               [10]32

References

   1. http://toxnet.nlm.nih.gov/cgi-bin/sis/search/r?dbs+hsdb:@term+@rn+@rel+868-77-9
   2. http://toxnet.nlm.nih.gov/cgi-bin/sis/search/r?dbs+hsdb:@term+@rn+@rel+868-77-9
   3. http://toxnet.nlm.nih.gov/cgi-bin/sis/search/r?dbs+hsdb:@term+@rn+@rel+868-77-9
   4. http://toxnet.nlm.nih.gov/cgi-bin/sis/search/r?dbs+hsdb:@term+@rn+@rel+868-77-9
   5. http://toxnet.nlm.nih.gov/cgi-bin/sis/search/r?dbs+hsdb:@term+@rn+@rel+868-77-9
   6. http://toxnet.nlm.nih.gov/cgi-bin/sis/search/r?dbs+hsdb:@term+@rn+@rel+868-77-9
   7. http://toxnet.nlm.nih.gov/cgi-bin/sis/search/r?dbs+hsdb:@term+@rn+@rel+868-77-9
   8. http://toxnet.nlm.nih.gov/cgi-bin/sis/search/r?dbs+hsdb:@term+@rn+@rel+868-77-9
   9. http://toxnet.nlm.nih.gov/cgi-bin/sis/search/r?dbs+hsdb:@term+@rn+@rel+868-77-9
  10. http://pubchem.ncbi.nlm.nih.gov/vw3d/vw3d.cgi?cid=13360
