440070
  -OEChem-07051212482D

 67 71  0     1  0  0  0  0  0999 V2000
    6.0061   -1.1289    0.0000 O   0  0  0  0  0  0  0  0  0  0  0  0
    4.2740   -1.1222    0.0000 O   0  0  0  0  0  0  0  0  0  0  0  0
    6.0138    0.8711    0.0000 O   0  0  0  0  0  0  0  0  0  0  0  0
    4.2856    1.8778    0.0000 O   0  0  0  0  0  0  0  0  0  0  0  0
    2.5497    0.8845    0.0000 O   0  0  0  0  0  0  0  0  0  0  0  0
    2.5381   -2.1155    0.0000 O   0  0  0  0  0  0  0  0  0  0  0  0
   10.5331    0.4234    0.0000 C   0  0  3  0  0  0  0  0  0  0  0  0
    9.6671    0.9234    0.0000 C   0  0  3  0  0  0  0  0  0  0  0  0
   11.3991    0.9234    0.0000 C   0  0  3  0  0  0  0  0  0  0  0  0
    8.7571    0.4166    0.0000 C   0  0  3  0  0  0  0  0  0  0  0  0
   11.3991    1.9234    0.0000 C   0  0  3  0  0  0  0  0  0  0  0  0
    8.7491   -0.6250    0.0000 C   0  0  3  0  0  0  0  0  0  0  0  0
    9.6671    1.9234    0.0000 C   0  0  0  0  0  0  0  0  0  0  0  0
   10.5492   -0.6181    0.0000 C   0  0  0  0  0  0  0  0  0  0  0  0
   10.5331    2.4234    0.0000 C   0  0  0  0  0  0  0  0  0  0  0  0
    9.6511   -1.1458    0.0000 C   0  0  0  0  0  0  0  0  0  0  0  0
   12.3454    0.6187    0.0000 C   0  0  0  0  0  0  0  0  0  0  0  0
   12.3454    2.2282    0.0000 C   0  0  0  0  0  0  0  0  0  0  0  0
    7.8302    0.9807    0.0000 C   0  0  0  0  0  0  0  0  0  0  0  0
    7.8136   -1.1747    0.0000 C   0  0  0  0  0  0  0  0  0  0  0  0
   12.9290    1.4235    0.0000 C   0  0  0  0  0  0  0  0  0  0  0  0
    6.8740   -0.6322    0.0000 C   0  0  2  0  0  0  0  0  0  0  0  0
    6.8824    0.4527    0.0000 C   0  0  0  0  0  0  0  0  0  0  0  0
    5.1420   -0.6255    0.0000 C   0  0  2  0  0  0  0  0  0  0  0  0
    5.1458    0.3744    0.0000 C   0  0  1  0  0  0  0  0  0  0  0  0
    4.2817    0.8778    0.0000 C   0  0  2  0  0  0  0  0  0  0  0  0
    3.4099   -0.6189    0.0000 C   0  0  1  0  0  0  0  0  0  0  0  0
    3.4138    0.3811    0.0000 C   0  0  1  0  0  0  0  0  0  0  0  0
    2.5420   -1.1155    0.0000 C   0  0  0  0  0  0  0  0  0  0  0  0
   11.2725    0.0041    0.0000 H   0  0  0  0  0  0  0  0  0  0  0  0
   10.4032    1.3484    0.0000 H   0  0  0  0  0  0  0  0  0  0  0  0
   11.4891    0.0782    0.0000 H   0  0  0  0  0  0  0  0  0  0  0  0
    8.7735    1.2664    0.0000 H   0  0  0  0  0  0  0  0  0  0  0  0
   11.4891    2.7687    0.0000 H   0  0  0  0  0  0  0  0  0  0  0  0
    8.7523   -1.4750    0.0000 H   0  0  0  0  0  0  0  0  0  0  0  0
    9.4550    2.5061    0.0000 H   0  0  0  0  0  0  0  0  0  0  0  0
    9.0565    1.8158    0.0000 H   0  0  0  0  0  0  0  0  0  0  0  0
   10.7672   -1.1985    0.0000 H   0  0  0  0  0  0  0  0  0  0  0  0
   11.1583   -0.5026    0.0000 H   0  0  0  0  0  0  0  0  0  0  0  0
   10.9316    2.8984    0.0000 H   0  0  0  0  0  0  0  0  0  0  0  0
   10.1346    2.8984    0.0000 H   0  0  0  0  0  0  0  0  0  0  0  0
    9.2538   -1.6218    0.0000 H   0  0  0  0  0  0  0  0  0  0  0  0
   10.0521   -1.6187    0.0000 H   0  0  0  0  0  0  0  0  0  0  0  0
   12.0943    0.0518    0.0000 H   0  0  0  0  0  0  0  0  0  0  0  0
   12.8827    0.3095    0.0000 H   0  0  0  0  0  0  0  0  0  0  0  0
    8.2385    1.4473    0.0000 H   0  0  0  0  0  0  0  0  0  0  0  0
    7.4403    1.4627    0.0000 H   0  0  0  0  0  0  0  0  0  0  0  0
   12.8827    2.5374    0.0000 H   0  0  0  0  0  0  0  0  0  0  0  0
   12.0943    2.7951    0.0000 H   0  0  0  0  0  0  0  0  0  0  0  0
    7.4163   -1.6507    0.0000 H   0  0  0  0  0  0  0  0  0  0  0  0
    8.2146   -1.6476    0.0000 H   0  0  0  0  0  0  0  0  0  0  0  0
   13.3898    1.0087    0.0000 H   0  0  0  0  0  0  0  0  0  0  0  0
   13.3898    1.8382    0.0000 H   0  0  0  0  0  0  0  0  0  0  0  0
    6.3389   -0.3191    0.0000 H   0  0  0  0  0  0  0  0  0  0  0  0
    6.6778    1.0380    0.0000 H   0  0  0  0  0  0  0  0  0  0  0  0
    6.2707    0.3514    0.0000 H   0  0  0  0  0  0  0  0  0  0  0  0
    5.6801   -0.3176    0.0000 H   0  0  0  0  0  0  0  0  0  0  0  0
    5.1482    0.9944    0.0000 H   0  0  0  0  0  0  0  0  0  0  0  0
    4.8198    1.1857    0.0000 H   0  0  0  0  0  0  0  0  0  0  0  0
    3.4075   -1.2389    0.0000 H   0  0  0  0  0  0  0  0  0  0  0  0
    2.8757    0.0732    0.0000 H   0  0  0  0  0  0  0  0  0  0  0  0
    6.0162    1.4911    0.0000 H   0  0  0  0  0  0  0  0  0  0  0  0
    2.3322   -0.5321    0.0000 H   0  0  0  0  0  0  0  0  0  0  0  0
    1.9310   -1.2208    0.0000 H   0  0  0  0  0  0  0  0  0  0  0  0
    3.7498    2.1898    0.0000 H   0  0  0  0  0  0  0  0  0  0  0  0
    2.0116    0.5765    0.0000 H   0  0  0  0  0  0  0  0  0  0  0  0
    2.0000   -2.4234    0.0000 H   0  0  0  0  0  0  0  0  0  0  0  0
 22  1  1  1  0  0  0
 24  1  1  6  0  0  0
  2 24  1  0  0  0  0
  2 27  1  0  0  0  0
 25  3  1  1  0  0  0
  3 62  1  0  0  0  0
 26  4  1  6  0  0  0
  4 65  1  0  0  0  0
 28  5  1  1  0  0  0
  5 66  1  0  0  0  0
  6 29  1  0  0  0  0
  6 67  1  0  0  0  0
  7  8  1  0  0  0  0
  7  9  1  0  0  0  0
  7 14  1  0  0  0  0
  7 30  1  0  0  0  0
  8 10  1  0  0  0  0
  8 13  1  0  0  0  0
  8 31  1  0  0  0  0
  9 11  1  0  0  0  0
  9 17  1  0  0  0  0
  9 32  1  0  0  0  0
 10 12  1  0  0  0  0
 10 19  1  0  0  0  0
 10 33  1  0  0  0  0
 11 15  1  0  0  0  0
 11 18  1  0  0  0  0
 11 34  1  0  0  0  0
 12 16  1  0  0  0  0
 12 20  1  0  0  0  0
 12 35  1  0  0  0  0
 13 15  1  0  0  0  0
 13 36  1  0  0  0  0
 13 37  1  0  0  0  0
 14 16  1  0  0  0  0
 14 38  1  0  0  0  0
 14 39  1  0  0  0  0
 15 40  1  0  0  0  0
 15 41  1  0  0  0  0
 16 42  1  0  0  0  0
 16 43  1  0  0  0  0
 17 21  1  0  0  0  0
 17 44  1  0  0  0  0
 17 45  1  0  0  0  0
 18 21  1  0  0  0  0
 18 48  1  0  0  0  0
 18 49  1  0  0  0  0
 19 23  1  0  0  0  0
 19 46  1  0  0  0  0
 19 47  1  0  0  0  0
 20 22  1  0  0  0  0
 20 50  1  0  0  0  0
 20 51  1  0  0  0  0
 21 52  1  0  0  0  0
 21 53  1  0  0  0  0
 22 23  1  0  0  0  0
 22 54  1  0  0  0  0
 23 55  1  0  0  0  0
 23 56  1  0  0  0  0
 24 25  1  0  0  0  0
 24 57  1  0  0  0  0
 25 26  1  0  0  0  0
 25 58  1  0  0  0  0
 26 28  1  0  0  0  0
 26 59  1  0  0  0  0
 27 28  1  0  0  0  0
 27 29  1  6  0  0  0
 27 60  1  0  0  0  0
 28 61  1  0  0  0  0
 29 63  1  0  0  0  0
 29 64  1  0  0  0  0
M  END
> <PUBCHEM_COMPOUND_CID>
440070

> <PUBCHEM_COMPOUND_CANONICALIZED>
1

> <PUBCHEM_CACTVS_COMPLEXITY>
572

> <PUBCHEM_CACTVS_HBOND_ACCEPTOR>
6

> <PUBCHEM_CACTVS_HBOND_DONOR>
4

> <PUBCHEM_CACTVS_ROTATABLE_BOND>
3

> <PUBCHEM_CACTVS_SUBSKEYS>
AAADcfB4OAAAAAAAAAAAAAAAAAAAAYAAAAA0YMEAAAAAAGDAAAAAGgAACAAADRSwgAMACAAABgAAAAAAAAAAAAAAAAAAAAAAAAAREAIAAAAiQAAFAAAHAAHA4PwOgAAAAAAAAADAAAYAACAAAAAACAAAAA==

> <PUBCHEM_IUPAC_OPENEYE_NAME>
(2R,3R,4S,5S,6R)-2-[[(3S)-2,3,4,5,6,7,8,9,10,11,12,13,14,15,16,17-hexadecahydro-1H-cyclopenta[a]phenanthren-3-yl]oxy]-6-(hydroxymethyl)tetrahydropyran-3,4,5-triol

> <PUBCHEM_IUPAC_CAS_NAME>
(2R,3R,4S,5S,6R)-2-[[(3S)-2,3,4,5,6,7,8,9,10,11,12,13,14,15,16,17-hexadecahydro-1H-cyclopenta[a]phenanthren-3-yl]oxy]-6-(hydroxymethyl)oxane-3,4,5-triol

> <PUBCHEM_IUPAC_NAME>
(2R,3R,4S,5S,6R)-2-[[(3S)-2,3,4,5,6,7,8,9,10,11,12,13,14,15,16,17-hexadecahydro-1H-cyclopenta[a]phenanthren-3-yl]oxy]-6-(hydroxymethyl)oxane-3,4,5-triol

> <PUBCHEM_IUPAC_SYSTEMATIC_NAME>
(2R,3R,4S,5S,6R)-2-[[(3S)-2,3,4,5,6,7,8,9,10,11,12,13,14,15,16,17-hexadecahydro-1H-cyclopenta[a]phenanthren-3-yl]oxy]-6-(hydroxymethyl)oxane-3,4,5-triol

> <PUBCHEM_IUPAC_TRADITIONAL_NAME>
(2R,3R,4S,5S,6R)-2-[[(3S)-2,3,4,5,6,7,8,9,10,11,12,13,14,15,16,17-hexadecahydro-1H-cyclopenta[a]phenanthren-3-yl]oxy]-6-methylol-tetrahydropyran-3,4,5-triol

> <PUBCHEM_IUPAC_INCHI>
InChI=1S/C23H38O6/c24-11-19-20(25)21(26)22(27)23(29-19)28-14-6-9-16-13(10-14)5-8-17-15-3-1-2-12(15)4-7-18(16)17/h12-27H,1-11H2/t12?,13?,14-,15?,16?,17?,18?,19+,20+,21-,22+,23+/m0/s1

> <PUBCHEM_IUPAC_INCHIKEY>
XJOFOZUEVJESOR-BOKRIMDLSA-N

> <PUBCHEM_XLOGP3_AA>
3.5

> <PUBCHEM_EXACT_MASS>
410.266839

> <PUBCHEM_MOLECULAR_FORMULA>
C23H38O6

> <PUBCHEM_MOLECULAR_WEIGHT>
410.54422

> <PUBCHEM_OPENEYE_CAN_SMILES>
C1CC2CCC3C4CCC(CC4CCC3C2C1)OC5C(C(C(C(O5)CO)O)O)O

> <PUBCHEM_OPENEYE_ISO_SMILES>
C1CC2CCC3C4CC[C@@H](CC4CCC3C2C1)O[C@H]5[C@@H]([C@H]([C@@H]([C@H](O5)CO)O)O)O

> <PUBCHEM_CACTVS_TPSA>
99.4

> <PUBCHEM_MONOISOTOPIC_WEIGHT>
410.266839

> <PUBCHEM_TOTAL_CHARGE>
0

> <PUBCHEM_HEAVY_ATOM_COUNT>
29

> <PUBCHEM_ATOM_DEF_STEREO_COUNT>
6

> <PUBCHEM_ATOM_UDEF_STEREO_COUNT>
6

> <PUBCHEM_BOND_DEF_STEREO_COUNT>
0

> <PUBCHEM_BOND_UDEF_STEREO_COUNT>
0

> <PUBCHEM_ISOTOPIC_ATOM_COUNT>
0

> <PUBCHEM_COMPONENT_COUNT>
1

> <PUBCHEM_CACTVS_TAUTO_COUNT>
1

> <PUBCHEM_COORDINATE_TYPE>
1
5
255

> <PUBCHEM_BONDANNOTATIONS>
22  1  5
24  1  6
10  33  3
11  34  3
12  35  3
27  29  6
25  3  5
26  4  6
28  5  5
7  30  3
8  31  3
9  32  3

$$$$

