   Color/Form

     * FINE, WHITE, CRYSTALLINE POWDER
     * LEAVES FROM ETHER

   from [1]HSDB

   Odor
        ODORLESS, OR NEARLY SO
   from [2]HSDB

   Taste
        TASTELESS
   from [3]HSDB

   Melting Point
        202-203 DEG C
   from [4]HSDB

   Dissociation Constants
        PK1= 4.43; PK2= 10.75
   from [5]HSDB

   Solubilities
        1 G IN 3 ML OF WATER; SLIGHTLY SOL IN ALCOHOL; PRACTICALLY INSOL
   IN CHLOROFORM & ETHER
   from [6]HSDB

   Spectral Properties

     * SADTLER REF NUMBER: 15194 (IR, PRISM)
     * IR: 1903 (Coblentz Society Spectral Collection)
     * NMR: 4445 (Sadtler Research Laboratories Spectral Collection)

   from [7]HSDB

   Other Chemical/Physical Properties

     * IR: 18075 (Sadtler Research Laboratories IR Grating Collection)
       /Caproic acid, 2-amino/
     * NMR: 17087 (Sadtler Research Laboratories Spectral Collection)
       /Caproic acid, 2-amino/

   from [8]HSDB

   Computed Properties
   Molecular Weight                  131.17292 [g/mol]
   Molecular Formula                 C[6]H[13]NO[2]
   XLogP3                            -3
   H-Bond Donor                      2
   H-Bond Acceptor                   3
   Rotatable Bond Count              5
   Exact Mass                        131.094629
   MonoIsotopic Mass                 131.094629
   Topological Polar Surface Area    63.3
   Heavy Atom Count                  9
   Formal Charge                     0
   Complexity                        83.1
   Isotope Atom Count                0
   Defined Atom Stereocenter Count   0
   Undefined Atom Stereocenter Count 0
   Defined Bond Stereocenter Count   0
   Undefined Bond Stereocenter Count 0
   Covalently-Bonded Unit Count      1
   Feature 3D Acceptor Count         2
   Feature 3D Donor Count            1
   Feature 3D Anion Count            1
   Feature 3D Cation Count           1
   Feature 3D Hydrophobe Count       1
   Effective Rotor Count             5
   Conformer Sampling RMSD           0.6
   CID Conformer Count               [9]70

References

   1. http://toxnet.nlm.nih.gov/cgi-bin/sis/search/r?dbs+hsdb:@term+@rn+@rel+60-32-2
   2. http://toxnet.nlm.nih.gov/cgi-bin/sis/search/r?dbs+hsdb:@term+@rn+@rel+60-32-2
   3. http://toxnet.nlm.nih.gov/cgi-bin/sis/search/r?dbs+hsdb:@term+@rn+@rel+60-32-2
   4. http://toxnet.nlm.nih.gov/cgi-bin/sis/search/r?dbs+hsdb:@term+@rn+@rel+60-32-2
   5. http://toxnet.nlm.nih.gov/cgi-bin/sis/search/r?dbs+hsdb:@term+@rn+@rel+60-32-2
   6. http://toxnet.nlm.nih.gov/cgi-bin/sis/search/r?dbs+hsdb:@term+@rn+@rel+60-32-2
   7. http://toxnet.nlm.nih.gov/cgi-bin/sis/search/r?dbs+hsdb:@term+@rn+@rel+60-32-2
   8. http://toxnet.nlm.nih.gov/cgi-bin/sis/search/r?dbs+hsdb:@term+@rn+@rel+60-32-2
   9. http://pubchem.ncbi.nlm.nih.gov/vw3d/vw3d.cgi?cid=564
