   Color/Form
        Needles from methanol/ethyl acetate
   from [1]HSDB

   Melting Point
        183-184.5 deg C
   from [2]HSDB

   Dissociation Constants
        K = 7.1X10-5 at 14.1 DEG C
   from [3]HSDB

   Solubilities

     * Water solubility = 1.5X10+5 mg/l @ 21 deg C
     * Solubility in water about 18 g/100 ml; solubility @ 23 deg C (g/100
       ml): 2.25 in absolute alcohol, 0.015 in anhydrous ether;
       practically insoluble in chloroform, benzene, petroleum ether

   from [4]HSDB

   Spectral Properties

     * IR: 2:277F (Aldrich Library of Infrared Spectra, Aldrich Chemical
       Co, Milwaukee, WI)
     * UV max (alcohol): 213 nm (E = 8900)

   from [5]HSDB

   Other Chemical/Physical Properties

     * SUBLIMES; SPECIFIC OPTICAL ROTATION: -161 DEG C/D (C= 0.57 IN
       METHANOL), -183.8 DEG @ 18 DEG C/D (C= 4.03 IN WATER)
     * NEEDLES FROM METHANOL/ETHYL ACETATE; MP: 191-192 DEG C; MAX
       ABSORPTION (ETHANOL): 212 NM (E= 8200) /(+ OR -)-FORM/

   from [6]HSDB

   Computed Properties
   Molecular Weight                  174.1513 [g/mol]
   Molecular Formula                 C[7]H[10]O[5]
   XLogP3-AA                         -1.7
   H-Bond Donor                      4
   H-Bond Acceptor                   5
   Rotatable Bond Count              1
   Exact Mass                        174.052823
   MonoIsotopic Mass                 174.052823
   Topological Polar Surface Area    98
   Heavy Atom Count                  12
   Formal Charge                     0
   Complexity                        222
   Isotope Atom Count                0
   Defined Atom Stereocenter Count   3
   Undefined Atom Stereocenter Count 0
   Defined Bond Stereocenter Count   0
   Undefined Bond Stereocenter Count 0
   Covalently-Bonded Unit Count      1
   Feature 3D Acceptor Count         5
   Feature 3D Donor Count            3
   Feature 3D Anion Count            1
   Feature 3D Ring Count             1
   Effective Rotor Count             1.8
   Conformer Sampling RMSD           0.4
   CID Conformer Count               [7]6

References

   1. http://toxnet.nlm.nih.gov/cgi-bin/sis/search/r?dbs+hsdb:@term+@rn+@rel+138-59-0
   2. http://toxnet.nlm.nih.gov/cgi-bin/sis/search/r?dbs+hsdb:@term+@rn+@rel+138-59-0
   3. http://toxnet.nlm.nih.gov/cgi-bin/sis/search/r?dbs+hsdb:@term+@rn+@rel+138-59-0
   4. http://toxnet.nlm.nih.gov/cgi-bin/sis/search/r?dbs+hsdb:@term+@rn+@rel+138-59-0
   5. http://toxnet.nlm.nih.gov/cgi-bin/sis/search/r?dbs+hsdb:@term+@rn+@rel+138-59-0
   6. http://toxnet.nlm.nih.gov/cgi-bin/sis/search/r?dbs+hsdb:@term+@rn+@rel+138-59-0
   7. http://pubchem.ncbi.nlm.nih.gov/vw3d/vw3d.cgi?cid=8742
