11070
  -OEChem-06261205172D

 36 36  0     1  0  0  0  0  0999 V2000
    2.9613    0.0000    0.0000 Cl  0  0  0  0  0  0  0  0  0  0  0  0
    5.8781    4.9504    0.0000 O   0  0  0  0  0  0  0  0  0  0  0  0
    5.8781    3.3409    0.0000 O   0  0  0  0  0  0  0  0  0  0  0  0
    4.0659    6.1456    0.0000 O   0  0  0  0  0  0  0  0  0  0  0  0
    3.4613    9.2030    0.0000 O   0  0  0  0  0  0  0  0  0  0  0  0
    1.3998    4.6664    0.0000 N   0  0  3  0  0  0  0  0  0  0  0  0
    3.1998    4.6456    0.0000 C   0  0  0  0  0  0  0  0  0  0  0  0
    2.3059    3.1110    0.0000 C   0  0  0  0  0  0  0  0  0  0  0  0
    3.1998    3.6456    0.0000 C   0  0  0  0  0  0  0  0  0  0  0  0
    2.3059    5.1803    0.0000 C   0  0  0  0  0  0  0  0  0  0  0  0
    1.3998    3.6248    0.0000 C   0  0  0  0  0  0  0  0  0  0  0  0
    4.0659    5.1456    0.0000 C   0  0  0  0  0  0  0  0  0  0  0  0
    4.0659    3.1456    0.0000 C   0  0  0  0  0  0  0  0  0  0  0  0
    4.9319    4.6456    0.0000 C   0  0  0  0  0  0  0  0  0  0  0  0
    4.9319    3.6456    0.0000 C   0  0  0  0  0  0  0  0  0  0  0  0
    0.5357    5.1698    0.0000 C   0  0  0  0  0  0  0  0  0  0  0  0
    6.4617    4.1456    0.0000 C   0  0  0  0  0  0  0  0  0  0  0  0
    4.9319    6.6456    0.0000 C   0  0  0  0  0  0  0  0  0  0  0  0
    1.9123    2.6319    0.0000 H   0  0  0  0  0  0  0  0  0  0  0  0
    2.7105    2.6412    0.0000 H   0  0  0  0  0  0  0  0  0  0  0  0
    2.7105    5.6501    0.0000 H   0  0  0  0  0  0  0  0  0  0  0  0
    1.9123    5.6593    0.0000 H   0  0  0  0  0  0  0  0  0  0  0  0
    0.7890    3.7309    0.0000 H   0  0  0  0  0  0  0  0  0  0  0  0
    1.1908    3.0411    0.0000 H   0  0  0  0  0  0  0  0  0  0  0  0
    4.0659    2.5256    0.0000 H   0  0  0  0  0  0  0  0  0  0  0  0
    0.8478    5.7055    0.0000 H   0  0  0  0  0  0  0  0  0  0  0  0
    0.0000    5.4818    0.0000 H   0  0  0  0  0  0  0  0  0  0  0  0
    0.2237    4.6340    0.0000 H   0  0  0  0  0  0  0  0  0  0  0  0
    6.9226    3.7309    0.0000 H   0  0  0  0  0  0  0  0  0  0  0  0
    6.9226    4.5604    0.0000 H   0  0  0  0  0  0  0  0  0  0  0  0
    5.2419    6.1087    0.0000 H   0  0  0  0  0  0  0  0  0  0  0  0
    5.4688    6.9556    0.0000 H   0  0  0  0  0  0  0  0  0  0  0  0
    4.6219    7.1826    0.0000 H   0  0  0  0  0  0  0  0  0  0  0  0
    3.9982    9.5130    0.0000 H   0  0  0  0  0  0  0  0  0  0  0  0
    2.9244    9.5130    0.0000 H   0  0  0  0  0  0  0  0  0  0  0  0
    3.9613    0.0000    0.0000 H   0  0  0  0  0  0  0  0  0  0  0  0
  1 36  1  0  0  0  0
  2 14  1  0  0  0  0
  2 17  1  0  0  0  0
  3 15  1  0  0  0  0
  3 17  1  0  0  0  0
  4 12  1  0  0  0  0
  4 18  1  0  0  0  0
  5 34  1  0  0  0  0
  5 35  1  0  0  0  0
  6 10  1  0  0  0  0
  6 11  1  0  0  0  0
  6 16  1  0  0  0  0
  7  9  1  0  0  0  0
  7 10  1  0  0  0  0
  7 12  2  0  0  0  0
  8  9  1  0  0  0  0
  8 11  1  0  0  0  0
  8 19  1  0  0  0  0
  8 20  1  0  0  0  0
  9 13  2  0  0  0  0
 10 21  1  0  0  0  0
 10 22  1  0  0  0  0
 11 23  1  0  0  0  0
 11 24  1  0  0  0  0
 12 14  1  0  0  0  0
 13 15  1  0  0  0  0
 13 25  1  0  0  0  0
 14 15  2  0  0  0  0
 16 26  1  0  0  0  0
 16 27  1  0  0  0  0
 16 28  1  0  0  0  0
 17 29  1  0  0  0  0
 17 30  1  0  0  0  0
 18 31  1  0  0  0  0
 18 32  1  0  0  0  0
 18 33  1  0  0  0  0
M  END
> <PUBCHEM_COMPOUND_CID>
11070

> <PUBCHEM_COMPOUND_CANONICALIZED>
1

> <PUBCHEM_CACTVS_COMPLEXITY>
261

> <PUBCHEM_CACTVS_HBOND_ACCEPTOR>
5

> <PUBCHEM_CACTVS_HBOND_DONOR>
2

> <PUBCHEM_CACTVS_ROTATABLE_BOND>
1

> <PUBCHEM_CACTVS_SUBSKEYS>
AAADceByOAAEAAAAAAAAAAAAAAAAASAAAAA8QAAAAAAAAEixAAAAHgAACAAADATBmAcyDoMABACAAiBCAACCCAAgIAAAiAAOjIgdJyKEsRukMCpnwBWOqAew8L4OoAABCAAYQABAAAIQADCAAAAAAAAAAA==

> <PUBCHEM_IUPAC_OPENEYE_NAME>
4-methoxy-6-methyl-7,8-dihydro-5H-[1,3]dioxolo[4,5-g]isoquinoline hydrate hydrochloride

> <PUBCHEM_IUPAC_CAS_NAME>
4-methoxy-6-methyl-7,8-dihydro-5H-[1,3]dioxolo[4,5-g]isoquinoline hydrate hydrochloride

> <PUBCHEM_IUPAC_NAME>
4-methoxy-6-methyl-7,8-dihydro-5H-[1,3]dioxolo[4,5-g]isoquinoline hydrate hydrochloride

> <PUBCHEM_IUPAC_SYSTEMATIC_NAME>
4-methoxy-6-methyl-7,8-dihydro-5H-[1,3]dioxolo[4,5-g]isoquinoline hydrate hydrochloride

> <PUBCHEM_IUPAC_TRADITIONAL_NAME>
4-methoxy-6-methyl-7,8-dihydro-5H-[1,3]dioxol[4,5-g]isoquinoline hydrate hydrochloride

> <PUBCHEM_IUPAC_INCHI>
InChI=1S/C12H15NO3.ClH.H2O/c1-13-4-3-8-5-10-12(16-7-15-10)11(14-2)9(8)6-13;;/h5H,3-4,6-7H2,1-2H3;1H;1H2

> <PUBCHEM_IUPAC_INCHIKEY>
ZNQOHJRIIMHFDR-UHFFFAOYSA-N

> <PUBCHEM_EXACT_MASS>
275.092436

> <PUBCHEM_MOLECULAR_FORMULA>
C12H18ClNO4

> <PUBCHEM_MOLECULAR_WEIGHT>
275.72862

> <PUBCHEM_OPENEYE_CAN_SMILES>
CN1CCC2=CC3=C(C(=C2C1)OC)OCO3.O.Cl

> <PUBCHEM_OPENEYE_ISO_SMILES>
CN1CCC2=CC3=C(C(=C2C1)OC)OCO3.O.Cl

> <PUBCHEM_CACTVS_TPSA>
31.9

> <PUBCHEM_MONOISOTOPIC_WEIGHT>
275.092436

> <PUBCHEM_TOTAL_CHARGE>
0

> <PUBCHEM_HEAVY_ATOM_COUNT>
18

> <PUBCHEM_ATOM_DEF_STEREO_COUNT>
0

> <PUBCHEM_ATOM_UDEF_STEREO_COUNT>
0

> <PUBCHEM_BOND_DEF_STEREO_COUNT>
0

> <PUBCHEM_BOND_UDEF_STEREO_COUNT>
0

> <PUBCHEM_ISOTOPIC_ATOM_COUNT>
0

> <PUBCHEM_COMPONENT_COUNT>
3

> <PUBCHEM_CACTVS_TAUTO_COUNT>
1

> <PUBCHEM_COORDINATE_TYPE>
1
5
255

> <PUBCHEM_BONDANNOTATIONS>
12  14  8
13  15  8
14  15  8
7  12  8
7  9  8
9  13  8

$$$$

