441435
  -OEChem-07051212542D

 47 47  0     1  0  0  0  0  0999 V2000
    4.2690   -0.7500    0.0000 O   0  0  0  0  0  0  0  0  0  0  0  0
    6.0010   -0.7500    0.0000 O   0  0  0  0  0  0  0  0  0  0  0  0
    4.2690   -3.7500    0.0000 O   0  0  0  0  0  0  0  0  0  0  0  0
    6.0010   -2.7500    0.0000 O   0  0  0  0  0  0  0  0  0  0  0  0
    2.5369   -2.7500    0.0000 O   0  0  0  0  0  0  0  0  0  0  0  0
    7.3671   -0.1160    0.0000 O   0  0  0  0  0  0  0  0  0  0  0  0
    8.5991    0.7500    0.0000 O   0  0  0  0  0  0  0  0  0  0  0  0
    2.5369    0.2500    0.0000 O   0  0  0  0  0  0  0  0  0  0  0  0
    6.8671    2.7500    0.0000 O   0  0  0  0  0  0  0  0  0  0  0  0
    5.3671    1.6160    0.0000 O   0  0  0  0  0  0  0  0  0  0  0  0
    8.5991    3.7500    0.0000 O   0  0  0  0  0  0  0  0  0  0  0  0
    4.2690   -2.7500    0.0000 C   0  0  2  0  0  0  0  0  0  0  0  0
    5.1350   -2.2500    0.0000 C   0  0  2  0  0  0  0  0  0  0  0  0
    3.4030   -2.2500    0.0000 C   0  0  2  0  0  0  0  0  0  0  0  0
    5.1350   -1.2500    0.0000 C   0  0  2  0  0  0  0  0  0  0  0  0
    3.4030   -1.2500    0.0000 C   0  0  1  0  0  0  0  0  0  0  0  0
    6.8671    0.7500    0.0000 C   0  0  2  0  0  0  0  0  0  0  0  0
    6.0010    0.2500    0.0000 C   0  0  0  0  0  0  0  0  0  0  0  0
    7.7331    1.2500    0.0000 C   0  0  1  0  0  0  0  0  0  0  0  0
    2.5369   -0.7500    0.0000 C   0  0  0  0  0  0  0  0  0  0  0  0
    7.7331    2.2500    0.0000 C   0  0  1  0  0  0  0  0  0  0  0  0
    6.3671    1.6160    0.0000 C   0  0  0  0  0  0  0  0  0  0  0  0
    8.5991    2.7500    0.0000 C   0  0  0  0  0  0  0  0  0  0  0  0
    4.8059   -3.0600    0.0000 H   0  0  0  0  0  0  0  0  0  0  0  0
    5.1350   -2.8700    0.0000 H   0  0  0  0  0  0  0  0  0  0  0  0
    3.4030   -2.8700    0.0000 H   0  0  0  0  0  0  0  0  0  0  0  0
    5.1350   -0.6300    0.0000 H   0  0  0  0  0  0  0  0  0  0  0  0
    3.4030   -0.6300    0.0000 H   0  0  0  0  0  0  0  0  0  0  0  0
    5.7890    0.8326    0.0000 H   0  0  0  0  0  0  0  0  0  0  0  0
    5.3905    0.1423    0.0000 H   0  0  0  0  0  0  0  0  0  0  0  0
    7.7331    0.6300    0.0000 H   0  0  0  0  0  0  0  0  0  0  0  0
    1.9264   -0.6423    0.0000 H   0  0  0  0  0  0  0  0  0  0  0  0
    2.3249   -1.3326    0.0000 H   0  0  0  0  0  0  0  0  0  0  0  0
    7.7331    2.8700    0.0000 H   0  0  0  0  0  0  0  0  0  0  0  0
    6.9497    1.8281    0.0000 H   0  0  0  0  0  0  0  0  0  0  0  0
    6.2594    2.2266    0.0000 H   0  0  0  0  0  0  0  0  0  0  0  0
    3.7320   -4.0600    0.0000 H   0  0  0  0  0  0  0  0  0  0  0  0
    6.5380   -2.4400    0.0000 H   0  0  0  0  0  0  0  0  0  0  0  0
    2.0000   -2.4400    0.0000 H   0  0  0  0  0  0  0  0  0  0  0  0
    7.9871   -0.1160    0.0000 H   0  0  0  0  0  0  0  0  0  0  0  0
    8.8112    2.1674    0.0000 H   0  0  0  0  0  0  0  0  0  0  0  0
    9.2097    2.8577    0.0000 H   0  0  0  0  0  0  0  0  0  0  0  0
    9.1360    1.0600    0.0000 H   0  0  0  0  0  0  0  0  0  0  0  0
    2.0000    0.5600    0.0000 H   0  0  0  0  0  0  0  0  0  0  0  0
    6.8671    3.3700    0.0000 H   0  0  0  0  0  0  0  0  0  0  0  0
    5.0571    2.1530    0.0000 H   0  0  0  0  0  0  0  0  0  0  0  0
    9.1360    4.0600    0.0000 H   0  0  0  0  0  0  0  0  0  0  0  0
  1 15  1  0  0  0  0
  1 16  1  0  0  0  0
 15  2  1  6  0  0  0
  2 18  1  0  0  0  0
 12  3  1  1  0  0  0
  3 37  1  0  0  0  0
 13  4  1  6  0  0  0
  4 38  1  0  0  0  0
 14  5  1  1  0  0  0
  5 39  1  0  0  0  0
 17  6  1  1  0  0  0
  6 40  1  0  0  0  0
 19  7  1  1  0  0  0
  7 43  1  0  0  0  0
  8 20  1  0  0  0  0
  8 44  1  0  0  0  0
 21  9  1  6  0  0  0
  9 45  1  0  0  0  0
 10 22  1  0  0  0  0
 10 46  1  0  0  0  0
 11 23  1  0  0  0  0
 11 47  1  0  0  0  0
 12 13  1  0  0  0  0
 12 14  1  0  0  0  0
 12 24  1  0  0  0  0
 13 15  1  0  0  0  0
 13 25  1  0  0  0  0
 14 16  1  0  0  0  0
 14 26  1  0  0  0  0
 15 27  1  0  0  0  0
 16 20  1  1  0  0  0
 16 28  1  0  0  0  0
 17 18  1  0  0  0  0
 17 19  1  0  0  0  0
 17 22  1  0  0  0  0
 18 29  1  0  0  0  0
 18 30  1  0  0  0  0
 19 21  1  0  0  0  0
 19 31  1  0  0  0  0
 20 32  1  0  0  0  0
 20 33  1  0  0  0  0
 21 23  1  0  0  0  0
 21 34  1  0  0  0  0
 22 35  1  0  0  0  0
 22 36  1  0  0  0  0
 23 41  1  0  0  0  0
 23 42  1  0  0  0  0
M  END
> <PUBCHEM_COMPOUND_CID>
441435

> <PUBCHEM_COMPOUND_CANONICALIZED>
1

> <PUBCHEM_CACTVS_COMPLEXITY>
356

> <PUBCHEM_CACTVS_HBOND_ACCEPTOR>
11

> <PUBCHEM_CACTVS_HBOND_DONOR>
9

> <PUBCHEM_CACTVS_ROTATABLE_BOND>
8

> <PUBCHEM_CACTVS_SUBSKEYS>
AAADceBwPAAAAAAAAAAAAAAAAAAAAAAAAAAkAAAAAAAAAAAAAAAAGgAACAAADFSwgAMACAAABgAAAAAAAAAAAAAAAAAAAAAAAAAREAIAAAAiQAAFAAAHAAHAYAwMAAAAAAAAAAAAAAAAAAAAAAAAAAAAAA==

> <PUBCHEM_IUPAC_OPENEYE_NAME>
(2R,3R,4R)-2-[[(2S,3R,4S,5R,6R)-3,4,5-trihydroxy-6-(hydroxymethyl)tetrahydropyran-2-yl]oxymethyl]pentane-1,2,3,4,5-pentol

> <PUBCHEM_IUPAC_CAS_NAME>
(2R,3R,4R)-2-[[(2S,3R,4S,5R,6R)-3,4,5-trihydroxy-6-(hydroxymethyl)-2-oxanyl]oxymethyl]pentane-1,2,3,4,5-pentol

> <PUBCHEM_IUPAC_NAME>
(2R,3R,4R)-2-[[(2S,3R,4S,5R,6R)-3,4,5-trihydroxy-6-(hydroxymethyl)oxan-2-yl]oxymethyl]pentane-1,2,3,4,5-pentol

> <PUBCHEM_IUPAC_SYSTEMATIC_NAME>
(2R,3R,4R)-2-[[(2S,3R,4S,5R,6R)-6-(hydroxymethyl)-3,4,5-tris(oxidanyl)oxan-2-yl]oxymethyl]pentane-1,2,3,4,5-pentol

> <PUBCHEM_IUPAC_TRADITIONAL_NAME>
(2R,3R,4R)-2-[[(2S,3R,4S,5R,6R)-3,4,5-trihydroxy-6-methylol-tetrahydropyran-2-yl]oxymethyl]pentane-1,2,3,4,5-pentol

> <PUBCHEM_IUPAC_INCHI>
InChI=1S/C12H24O11/c13-1-5(16)10(20)12(21,3-15)4-22-11-9(19)8(18)7(17)6(2-14)23-11/h5-11,13-21H,1-4H2/t5-,6-,7+,8+,9-,10-,11+,12-/m1/s1

> <PUBCHEM_IUPAC_INCHIKEY>
KMBKXANDSFBRCO-VCKNUUNJSA-N

> <PUBCHEM_XLOGP3_AA>
-5.5

> <PUBCHEM_EXACT_MASS>
344.131862

> <PUBCHEM_MOLECULAR_FORMULA>
C12H24O11

> <PUBCHEM_MOLECULAR_WEIGHT>
344.31236

> <PUBCHEM_OPENEYE_CAN_SMILES>
C(C1C(C(C(C(O1)OCC(CO)(C(C(CO)O)O)O)O)O)O)O

> <PUBCHEM_OPENEYE_ISO_SMILES>
C([C@@H]1[C@@H]([C@@H]([C@H]([C@H](O1)OC[C@](CO)([C@@H]([C@@H](CO)O)O)O)O)O)O)O

> <PUBCHEM_CACTVS_TPSA>
201

> <PUBCHEM_MONOISOTOPIC_WEIGHT>
344.131862

> <PUBCHEM_TOTAL_CHARGE>
0

> <PUBCHEM_HEAVY_ATOM_COUNT>
23

> <PUBCHEM_ATOM_DEF_STEREO_COUNT>
8

> <PUBCHEM_ATOM_UDEF_STEREO_COUNT>
0

> <PUBCHEM_BOND_DEF_STEREO_COUNT>
0

> <PUBCHEM_BOND_UDEF_STEREO_COUNT>
0

> <PUBCHEM_ISOTOPIC_ATOM_COUNT>
0

> <PUBCHEM_COMPONENT_COUNT>
1

> <PUBCHEM_CACTVS_TAUTO_COUNT>
1

> <PUBCHEM_COORDINATE_TYPE>
1
5
255

> <PUBCHEM_BONDANNOTATIONS>
16  20  5
15  2  6
12  3  5
13  4  6
14  5  5
17  6  5
19  7  5
21  9  6

$$$$

