46173733
  -OEChem-07051212492D

 64 67  0     1  0  0  0  0  0999 V2000
   10.1921    0.1646    0.0000 O   0  0  0  0  0  0  0  0  0  0  0  0
    9.8349    1.8595    0.0000 O   0  0  0  0  0  0  0  0  0  0  0  0
    6.2781   -0.6602    0.0000 O   0  0  0  0  0  0  0  0  0  0  0  0
    8.8564    1.6532    0.0000 O   0  0  0  0  0  0  0  0  0  0  0  0
    9.5708   -1.7364    0.0000 O   0  0  0  0  0  0  0  0  0  0  0  0
    6.8994    1.2408    0.0000 O   0  0  0  0  0  0  0  0  0  0  0  0
    7.6138   -2.1488    0.0000 O   0  0  0  0  0  0  0  0  0  0  0  0
   12.1491    0.5771    0.0000 O   0  0  0  0  0  0  0  0  0  0  0  0
   12.7705    2.4781    0.0000 O   0  0  0  0  0  0  0  0  0  0  0  0
   11.4348    3.9667    0.0000 O   0  0  0  0  0  0  0  0  0  0  0  0
    9.7884    4.5048    0.0000 O   0  0  0  0  0  0  0  0  0  0  0  0
    6.6353   -2.3550    0.0000 O   0  0  0  0  0  0  0  0  0  0  0  0
    4.6783   -4.3770    0.0000 N   0  0  0  0  0  0  0  0  0  0  0  0
    9.2136   -0.0416    0.0000 C   0  0  0  0  0  0  0  0  0  0  0  0
    8.5458    0.7027    0.0000 C   0  0  1  0  0  0  0  0  0  0  0  0
    8.9030   -0.9921    0.0000 C   0  0  2  0  0  0  0  0  0  0  0  0
    7.2566   -0.4540    0.0000 C   0  0  0  0  0  0  0  0  0  0  0  0
    7.9244   -1.1983    0.0000 C   0  0  1  0  0  0  0  0  0  0  0  0
    7.5673    0.4965    0.0000 C   0  0  2  0  0  0  0  0  0  0  0  0
   10.5028    1.1152    0.0000 C   0  0  2  0  0  0  0  0  0  0  0  0
   11.4813    1.3214    0.0000 C   0  0  1  0  0  0  0  0  0  0  0  0
   11.7920    2.2719    0.0000 C   0  0  2  0  0  0  0  0  0  0  0  0
   11.1241    3.0162    0.0000 C   0  0  2  0  0  0  0  0  0  0  0  0
   10.1456    2.8100    0.0000 C   0  0  1  0  0  0  0  0  0  0  0  0
    9.4778    3.5543    0.0000 C   0  0  0  0  0  0  0  0  0  0  0  0
    5.9674   -1.6107    0.0000 C   0  0  0  0  0  0  0  0  0  0  0  0
    4.9889   -1.8170    0.0000 C   0  0  0  0  0  0  0  0  0  0  0  0
    4.6783   -2.7675    0.0000 C   0  0  0  0  0  0  0  0  0  0  0  0
    3.7320   -3.0722    0.0000 C   0  0  0  0  0  0  0  0  0  0  0  0
    5.2619   -3.5722    0.0000 C   0  0  0  0  0  0  0  0  0  0  0  0
    3.7320   -4.0722    0.0000 C   0  0  0  0  0  0  0  0  0  0  0  0
    2.8660   -2.5722    0.0000 C   0  0  0  0  0  0  0  0  0  0  0  0
    2.8660   -4.5722    0.0000 C   0  0  0  0  0  0  0  0  0  0  0  0
    2.0000   -3.0722    0.0000 C   0  0  0  0  0  0  0  0  0  0  0  0
    2.0000   -4.0722    0.0000 C   0  0  0  0  0  0  0  0  0  0  0  0
    9.6277   -0.5030    0.0000 H   0  0  0  0  0  0  0  0  0  0  0  0
    8.1317    1.1642    0.0000 H   0  0  0  0  0  0  0  0  0  0  0  0
    9.5096   -0.8642    0.0000 H   0  0  0  0  0  0  0  0  0  0  0  0
    7.0640   -1.0433    0.0000 H   0  0  0  0  0  0  0  0  0  0  0  0
    8.3385   -1.6598    0.0000 H   0  0  0  0  0  0  0  0  0  0  0  0
    6.9606    0.3687    0.0000 H   0  0  0  0  0  0  0  0  0  0  0  0
   10.9169    0.6537    0.0000 H   0  0  0  0  0  0  0  0  0  0  0  0
   11.2887    0.7321    0.0000 H   0  0  0  0  0  0  0  0  0  0  0  0
   12.2060    1.8104    0.0000 H   0  0  0  0  0  0  0  0  0  0  0  0
   11.7308    3.1441    0.0000 H   0  0  0  0  0  0  0  0  0  0  0  0
    9.5389    2.6821    0.0000 H   0  0  0  0  0  0  0  0  0  0  0  0
    8.4424    2.1147    0.0000 H   0  0  0  0  0  0  0  0  0  0  0  0
    9.3782   -2.3257    0.0000 H   0  0  0  0  0  0  0  0  0  0  0  0
    8.0279   -2.6103    0.0000 H   0  0  0  0  0  0  0  0  0  0  0  0
    6.2928    1.1130    0.0000 H   0  0  0  0  0  0  0  0  0  0  0  0
    8.9308    3.8463    0.0000 H   0  0  0  0  0  0  0  0  0  0  0  0
    9.0952    3.0664    0.0000 H   0  0  0  0  0  0  0  0  0  0  0  0
   12.7558    0.7049    0.0000 H   0  0  0  0  0  0  0  0  0  0  0  0
   12.9631    3.0674    0.0000 H   0  0  0  0  0  0  0  0  0  0  0  0
   12.0414    4.0946    0.0000 H   0  0  0  0  0  0  0  0  0  0  0  0
    4.9684   -1.1973    0.0000 H   0  0  0  0  0  0  0  0  0  0  0  0
    4.3751   -1.7296    0.0000 H   0  0  0  0  0  0  0  0  0  0  0  0
    9.3744    4.9663    0.0000 H   0  0  0  0  0  0  0  0  0  0  0  0
    5.8819   -3.5722    0.0000 H   0  0  0  0  0  0  0  0  0  0  0  0
    4.8709   -4.9663    0.0000 H   0  0  0  0  0  0  0  0  0  0  0  0
    2.8660   -1.9522    0.0000 H   0  0  0  0  0  0  0  0  0  0  0  0
    2.8660   -5.1922    0.0000 H   0  0  0  0  0  0  0  0  0  0  0  0
    1.4631   -2.7622    0.0000 H   0  0  0  0  0  0  0  0  0  0  0  0
    1.4631   -4.3822    0.0000 H   0  0  0  0  0  0  0  0  0  0  0  0
  1 14  1  0  0  0  0
 20  1  1  6  0  0  0
  2 20  1  0  0  0  0
  2 24  1  0  0  0  0
  3 17  1  0  0  0  0
  3 26  1  0  0  0  0
 15  4  1  1  0  0  0
  4 47  1  0  0  0  0
 16  5  1  1  0  0  0
  5 48  1  0  0  0  0
 19  6  1  6  0  0  0
  6 50  1  0  0  0  0
 18  7  1  6  0  0  0
  7 49  1  0  0  0  0
 21  8  1  1  0  0  0
  8 53  1  0  0  0  0
 22  9  1  6  0  0  0
  9 54  1  0  0  0  0
 23 10  1  6  0  0  0
 10 55  1  0  0  0  0
 11 25  1  0  0  0  0
 11 58  1  0  0  0  0
 12 26  2  0  0  0  0
 13 30  1  0  0  0  0
 13 31  1  0  0  0  0
 13 60  1  0  0  0  0
 14 15  1  0  0  0  0
 14 16  1  0  0  0  0
 14 36  1  0  0  0  0
 15 19  1  0  0  0  0
 15 37  1  0  0  0  0
 16 18  1  0  0  0  0
 16 38  1  0  0  0  0
 17 18  1  0  0  0  0
 17 19  1  0  0  0  0
 17 39  1  0  0  0  0
 18 40  1  0  0  0  0
 19 41  1  0  0  0  0
 20 21  1  0  0  0  0
 20 42  1  0  0  0  0
 21 22  1  0  0  0  0
 21 43  1  0  0  0  0
 22 23  1  0  0  0  0
 22 44  1  0  0  0  0
 23 24  1  0  0  0  0
 23 45  1  0  0  0  0
 24 25  1  6  0  0  0
 24 46  1  0  0  0  0
 25 51  1  0  0  0  0
 25 52  1  0  0  0  0
 26 27  1  0  0  0  0
 27 28  1  0  0  0  0
 27 56  1  0  0  0  0
 27 57  1  0  0  0  0
 28 29  1  0  0  0  0
 28 30  2  0  0  0  0
 29 31  1  0  0  0  0
 29 32  2  0  0  0  0
 30 59  1  0  0  0  0
 31 33  2  0  0  0  0
 32 34  1  0  0  0  0
 32 61  1  0  0  0  0
 33 35  1  0  0  0  0
 33 62  1  0  0  0  0
 34 35  2  0  0  0  0
 34 63  1  0  0  0  0
 35 64  1  0  0  0  0
M  END
> <PUBCHEM_COMPOUND_CID>
46173733

> <PUBCHEM_COMPOUND_CANONICALIZED>
1

> <PUBCHEM_CACTVS_COMPLEXITY>
713

> <PUBCHEM_CACTVS_HBOND_ACCEPTOR>
12

> <PUBCHEM_CACTVS_HBOND_DONOR>
9

> <PUBCHEM_CACTVS_ROTATABLE_BOND>
7

> <PUBCHEM_CACTVS_SUBSKEYS>
AAADceB6PAAAAAAAAAAAAAAAAAAAAWAAAAA0YIAAAAAAAFgB8AAAHgAQCAAADBzxngc8yPLJlgCoAzT3TACCgCAxAiAI2aE4ZJgZMPLAlZGmYAhl0AHPyAf8+e+egAAAAAACAAACAAAQAASAAAAAAAAAAA==

> <PUBCHEM_IUPAC_OPENEYE_NAME>
[(2S,3S,5R,6R)-2,3,5,6-tetrahydroxy-4-[(2S,3R,4S,5R,6R)-3,4,5-trihydroxy-6-(hydroxymethyl)tetrahydropyran-2-yl]oxy-cyclohexyl] 2-(1H-indol-3-yl)acetate

> <PUBCHEM_IUPAC_CAS_NAME>
2-(1H-indol-3-yl)acetic acid [(2S,3S,5R,6R)-2,3,5,6-tetrahydroxy-4-[[(2S,3R,4S,5R,6R)-3,4,5-trihydroxy-6-(hydroxymethyl)-2-oxanyl]oxy]cyclohexyl] ester

> <PUBCHEM_IUPAC_NAME>
[(2S,3S,5R,6R)-2,3,5,6-tetrahydroxy-4-[(2S,3R,4S,5R,6R)-3,4,5-trihydroxy-6-(hydroxymethyl)oxan-2-yl]oxycyclohexyl] 2-(1H-indol-3-yl)acetate

> <PUBCHEM_IUPAC_SYSTEMATIC_NAME>
[(2S,3S,5R,6R)-4-[(2S,3R,4S,5R,6R)-6-(hydroxymethyl)-3,4,5-tris(oxidanyl)oxan-2-yl]oxy-2,3,5,6-tetrakis(oxidanyl)cyclohexyl] 2-(1H-indol-3-yl)ethanoate

> <PUBCHEM_IUPAC_TRADITIONAL_NAME>
2-(1H-indol-3-yl)acetic acid [(2S,3S,5R,6R)-2,3,5,6-tetrahydroxy-4-[(2S,3R,4S,5R,6R)-3,4,5-trihydroxy-6-methylol-tetrahydropyran-2-yl]oxy-cyclohexyl] ester

> <PUBCHEM_IUPAC_INCHI>
InChI=1S/C22H29NO12/c24-7-11-13(26)14(27)19(32)22(33-11)35-21-17(30)15(28)20(16(29)18(21)31)34-12(25)5-8-6-23-10-4-2-1-3-9(8)10/h1-4,6,11,13-24,26-32H,5,7H2/t11-,13+,14+,15-,16+,17-,18+,19-,20?,21?,22+/m1/s1

> <PUBCHEM_IUPAC_INCHIKEY>
ZBIDXXVRKIWIKP-BLWHGSIISA-N

> <PUBCHEM_XLOGP3_AA>
-3

> <PUBCHEM_EXACT_MASS>
499.168975

> <PUBCHEM_MOLECULAR_FORMULA>
C22H29NO12

> <PUBCHEM_MOLECULAR_WEIGHT>
499.46516

> <PUBCHEM_OPENEYE_CAN_SMILES>
C1=CC=C2C(=C1)C(=CN2)CC(=O)OC3C(C(C(C(C3O)O)OC4C(C(C(C(O4)CO)O)O)O)O)O

> <PUBCHEM_OPENEYE_ISO_SMILES>
C1=CC=C2C(=C1)C(=CN2)CC(=O)OC3[C@@H]([C@H](C([C@H]([C@@H]3O)O)O[C@H]4[C@@H]([C@H]([C@H]([C@H](O4)CO)O)O)O)O)O

> <PUBCHEM_CACTVS_TPSA>
222

> <PUBCHEM_MONOISOTOPIC_WEIGHT>
499.168975

> <PUBCHEM_TOTAL_CHARGE>
0

> <PUBCHEM_HEAVY_ATOM_COUNT>
35

> <PUBCHEM_ATOM_DEF_STEREO_COUNT>
9

> <PUBCHEM_ATOM_UDEF_STEREO_COUNT>
0

> <PUBCHEM_BOND_DEF_STEREO_COUNT>
0

> <PUBCHEM_BOND_UDEF_STEREO_COUNT>
0

> <PUBCHEM_ISOTOPIC_ATOM_COUNT>
0

> <PUBCHEM_COMPONENT_COUNT>
1

> <PUBCHEM_CACTVS_TAUTO_COUNT>
1

> <PUBCHEM_COORDINATE_TYPE>
1
5
255

> <PUBCHEM_BONDANNOTATIONS>
20  1  6
23  10  6
13  30  8
13  31  8
24  25  6
28  29  8
28  30  8
29  31  8
29  32  8
31  33  8
32  34  8
33  35  8
34  35  8
15  4  5
16  5  5
19  6  6
18  7  6
21  8  5
22  9  6

$$$$

