   Color/Form

     * CRYSTALS FROM METHYLENE CHLORIDE + ETHER
     * COLORLESS TO OFF-WHITE CRYSTALLINE POWDER
     * White solid
     * White crystals

   from [1]HSDB

   Melting Point
        190-198 DEG C
   from [2]HSDB

   Corrosivity
        Non-corrosive
   from [3]HSDB

   Solubilities

     * PRACTICALLY INSOL IN WATER UNLESS PH IS BELOW 4
     * SOLUBILITY @ ROOM TEMP: 60 MG/L WATER: @ 30 DEG C: 14 MG/L ETHANOL,
       GREATER THAN 150 MG/L CHLOROFORM, 1 MG/L DIETHYL ETHER, 29 MG/L 0.1
       MOLAR HYDROCHLORIC ACID
     * Soluble in dilute acids.
     * In ethanol, 14 mg/l; >150 mg/l in chloroform; 1 mg/l in diethyl
       ether; 29 mg/l in 0.1 M hydrochloric acid (all at 30 deg C).
     * In water 60 mg/l at 20 deg C.

   from [4]HSDB

   Spectral Properties
        MAX ABSORPTION (METHANOL): 250 NM (E= 17,500)
   from [5]HSDB

   Other Chemical/Physical Properties

     * A MIXTURE OF STEREOISOMERS
     * Hydrolyzed by alkalis.

   from [6]HSDB

   Computed Properties
   Molecular Weight                  511.5699 [g/mol]
   Molecular Formula                 C[33]H[25]N[3]O[3]
   XLogP3-AA                         3.1
   H-Bond Donor                      2
   H-Bond Acceptor                   5
   Rotatable Bond Count              5
   Tautomer Count                    3
   Exact Mass                        511.189592
   MonoIsotopic Mass                 511.189592
   Topological Polar Surface Area    92.2
   Heavy Atom Count                  39
   Formal Charge                     0
   Complexity                        1040
   Isotope Atom Count                0
   Defined Atom Stereocenter Count   0
   Undefined Atom Stereocenter Count 5
   Defined Bond Stereocenter Count   0
   Undefined Bond Stereocenter Count 1
   Covalently-Bonded Unit Count      1

References

   1. http://toxnet.nlm.nih.gov/cgi-bin/sis/search/r?dbs+hsdb:@term+@rn+@rel+991-42-4
   2. http://toxnet.nlm.nih.gov/cgi-bin/sis/search/r?dbs+hsdb:@term+@rn+@rel+991-42-4
   3. http://toxnet.nlm.nih.gov/cgi-bin/sis/search/r?dbs+hsdb:@term+@rn+@rel+991-42-4
   4. http://toxnet.nlm.nih.gov/cgi-bin/sis/search/r?dbs+hsdb:@term+@rn+@rel+991-42-4
   5. http://toxnet.nlm.nih.gov/cgi-bin/sis/search/r?dbs+hsdb:@term+@rn+@rel+991-42-4
   6. http://toxnet.nlm.nih.gov/cgi-bin/sis/search/r?dbs+hsdb:@term+@rn+@rel+991-42-4
