105053
  -OEChem-07051212542D

  4  2  0     0  0  0  0  0  0999 V2000
    2.8660    0.2500    0.0000 I   0  5  0  0  0  0  0  0  0  0  0  0
    3.7320    0.7500    0.0000 I   0  0  0  0  0  0  0  0  0  0  0  0
    2.8660   -0.7500    0.0000 I   0  0  0  0  0  0  0  0  0  0  0  0
    2.0000    0.7500    0.0000 K   0  3  0  0  0  0  0  0  0  0  0  0
  1  2  1  0  0  0  0
  1  3  1  0  0  0  0
M  CHG  2   1  -1   4   1
M  END
> <PUBCHEM_COMPOUND_CID>
105053

> <PUBCHEM_COMPOUND_CANONICALIZED>
1

> <PUBCHEM_CACTVS_COMPLEXITY>
3.2

> <PUBCHEM_CACTVS_HBOND_ACCEPTOR>
1

> <PUBCHEM_CACTVS_HBOND_DONOR>
0

> <PUBCHEM_CACTVS_ROTATABLE_BOND>
0

> <PUBCHEM_CACTVS_SUBSKEYS>
AAADcQAAAAAAQwAAAAAAAAAAAAAAAAAAAAAAAAAAAAAAAAAAAAAAAAAAAAAAAAAAAAAAAAAAAAAAAAAAAAAAAAAAAAAAAAAAAAAAAAAAAAAAAAAAAAAAAAAAAAAAAAAAAAAAAAAAAAAAAAAAAAAAAAAAAA==

> <PUBCHEM_IUPAC_OPENEYE_NAME>
potassium triiodide

> <PUBCHEM_IUPAC_CAS_NAME>
potassium triiodide

> <PUBCHEM_IUPAC_NAME>
potassium triiodide

> <PUBCHEM_IUPAC_SYSTEMATIC_NAME>
potassium triiodide

> <PUBCHEM_IUPAC_TRADITIONAL_NAME>
potassium triiodide

> <PUBCHEM_IUPAC_INCHI>
InChI=1S/I3.K/c1-3-2;/q-1;+1

> <PUBCHEM_IUPAC_INCHIKEY>
DKNPRRRKHAEUMW-UHFFFAOYSA-N

> <PUBCHEM_EXACT_MASS>
419.677126

> <PUBCHEM_MOLECULAR_FORMULA>
I3K

> <PUBCHEM_MOLECULAR_WEIGHT>
419.81171

> <PUBCHEM_OPENEYE_CAN_SMILES>
[K+].I[I-]I

> <PUBCHEM_OPENEYE_ISO_SMILES>
[K+].I[I-]I

> <PUBCHEM_CACTVS_TPSA>
0

> <PUBCHEM_MONOISOTOPIC_WEIGHT>
419.677126

> <PUBCHEM_TOTAL_CHARGE>
0

> <PUBCHEM_HEAVY_ATOM_COUNT>
4

> <PUBCHEM_ATOM_DEF_STEREO_COUNT>
0

> <PUBCHEM_ATOM_UDEF_STEREO_COUNT>
0

> <PUBCHEM_BOND_DEF_STEREO_COUNT>
0

> <PUBCHEM_BOND_UDEF_STEREO_COUNT>
0

> <PUBCHEM_ISOTOPIC_ATOM_COUNT>
0

> <PUBCHEM_COMPONENT_COUNT>
2

> <PUBCHEM_CACTVS_TAUTO_COUNT>
1

> <PUBCHEM_NONSTANDARDBOND>
1  4  7

> <PUBCHEM_COORDINATE_TYPE>
1
5
255

$$$$

