   Color/Form

     * Colorless liquid
     * Colorless to straw-colored liquid

   from [1]HSDB

   Odor
        Mild, geranium odor
   from [2]HSDB

   Boiling Point
        114-115 deg C at 760 mm Hg; 100 deg C at 490.3 mm Hg; 70 deg C at
   147.6 mm Hg; 20 deg C at 11.6 mm Hg
   from [3]HSDB

   Melting Point
        -48 to -52 deg C
   from [4]HSDB

   Density/Specific Gravity
        0.9715 at 20 deg C/4 deg C
   from [5]HSDB

   Octanol/Water Partition Coefficient
        log Kow = -0.38
   from [6]HSDB

   Solubilities

     * Miscible with benzene, chloroform, ethanol, 1,2-dichloroethane,
       ether, acetone, dioxane, tetrahydrofuran, pyridine; moderately sol
       in carbon tetrachloride
     * IMMISCIBLE WITH ALIPHATIC HYDROCARBONS
     * Miscible with water

   from [7]HSDB

   Spectral Properties

     * Index of refraction: 1.43064 at 20 deg C/D
     * SADTLER REF NUMBER: 5333 (IR, PRISM)
     * IR: 988 (Coblentz Society Spectral Collection)
     * NMR: 21 (Varian Associates NMR Spectra Catalogue)
     * MASS: 219 (Atlas of Mass Spectral Data, John Wiley & Sons, New
       York)
     * Raman: 603 (Sadtler Index Research Laboratory Spectral Collection)

   from [8]HSDB

   Vapor Pressure
        15.6 mm Hg at 25 deg C
   from [9]HSDB

   Viscosity
        1.68 centipoise at 20 deg C
   from [10]HSDB

   Other Chemical/Physical Properties

     * Specific heat: 0.616 cal/g; with water it forms an azeotrope, bp
       97.5 deg C (39.5 parts by wt propargyl alc and 60.5 parts of
       water); polymerized by heat or caustic; acidified aq soln resistant
       to polymerization
     * Henry's Law constant = 1.2X10-6 atm-cu m/mol at 25 deg C (est)
     * Hydroxyl radical reaction rate constant = 1.2X10-11 cu cm/molec-sec
       at 25 deg C (est)

   from [11]HSDB

   Computed Properties
   Molecular Weight                  56.06326 [g/mol]
   Molecular Formula                 C[3]H[4]O
   XLogP3                            -0.4
   H-Bond Donor                      1
   H-Bond Acceptor                   1
   Rotatable Bond Count              0
   Exact Mass                        56.026215
   MonoIsotopic Mass                 56.026215
   Topological Polar Surface Area    20.2
   Heavy Atom Count                  4
   Formal Charge                     0
   Complexity                        38.5
   Isotope Atom Count                0
   Defined Atom Stereocenter Count   0
   Undefined Atom Stereocenter Count 0
   Defined Bond Stereocenter Count   0
   Undefined Bond Stereocenter Count 0
   Covalently-Bonded Unit Count      1
   Feature 3D Acceptor Count         1
   Feature 3D Donor Count            1
   Feature 3D Hydrophobe Count       1
   Effective Rotor Count             0
   Conformer Sampling RMSD           0.4
   CID Conformer Count               [12]1

References

   1. http://toxnet.nlm.nih.gov/cgi-bin/sis/search/r?dbs+hsdb:@term+@rn+@rel+107-19-7
   2. http://toxnet.nlm.nih.gov/cgi-bin/sis/search/r?dbs+hsdb:@term+@rn+@rel+107-19-7
   3. http://toxnet.nlm.nih.gov/cgi-bin/sis/search/r?dbs+hsdb:@term+@rn+@rel+107-19-7
   4. http://toxnet.nlm.nih.gov/cgi-bin/sis/search/r?dbs+hsdb:@term+@rn+@rel+107-19-7
   5. http://toxnet.nlm.nih.gov/cgi-bin/sis/search/r?dbs+hsdb:@term+@rn+@rel+107-19-7
   6. http://toxnet.nlm.nih.gov/cgi-bin/sis/search/r?dbs+hsdb:@term+@rn+@rel+107-19-7
   7. http://toxnet.nlm.nih.gov/cgi-bin/sis/search/r?dbs+hsdb:@term+@rn+@rel+107-19-7
   8. http://toxnet.nlm.nih.gov/cgi-bin/sis/search/r?dbs+hsdb:@term+@rn+@rel+107-19-7
   9. http://toxnet.nlm.nih.gov/cgi-bin/sis/search/r?dbs+hsdb:@term+@rn+@rel+107-19-7
  10. http://toxnet.nlm.nih.gov/cgi-bin/sis/search/r?dbs+hsdb:@term+@rn+@rel+107-19-7
  11. http://toxnet.nlm.nih.gov/cgi-bin/sis/search/r?dbs+hsdb:@term+@rn+@rel+107-19-7
  12. http://pubchem.ncbi.nlm.nih.gov/vw3d/vw3d.cgi?cid=7859
