5462429
  -OEChem-07051212572D

 46 51  0     1  0  0  0  0  0999 V2000
    6.1432    0.3006    0.0000 O   0  0  0  0  0  0  0  0  0  0  0  0
    4.5155   -0.4696    0.0000 O   0  0  0  0  0  0  0  0  0  0  0  0
    2.9827    1.1870    0.0000 N   0  0  3  0  0  0  0  0  0  0  0  0
    5.7756   -1.7297    0.0000 N   0  0  0  0  0  0  0  0  0  0  0  0
    5.4096    0.3091    0.0000 C   0  0  2  0  0  0  0  0  0  0  0  0
    5.4096    1.3091    0.0000 C   0  0  2  0  0  0  0  0  0  0  0  0
    6.2756    1.8091    0.0000 C   0  0  3  0  0  0  0  0  0  0  0  0
    4.7883    1.0912    0.0000 C   0  0  1  0  0  0  0  0  0  0  0  0
    5.2877    1.9561    0.0000 C   0  0  1  0  0  0  0  0  0  0  0  0
    6.2756   -0.1909    0.0000 C   0  0  1  0  0  0  0  0  0  0  0  0
    7.1416    0.3091    0.0000 C   0  0  1  0  0  0  0  0  0  0  0  0
    7.1416    1.3091    0.0000 C   0  0  0  0  0  0  0  0  0  0  0  0
    4.2494    0.1893    0.0000 C   0  0  0  0  0  0  0  0  0  0  0  0
    5.3968    0.9637    0.0000 C   0  0  0  0  0  0  0  0  0  0  0  0
    5.7516    2.2488    0.0000 C   0  0  0  0  0  0  0  0  0  0  0  0
    7.0846   -0.7787    0.0000 C   0  0  0  0  0  0  0  0  0  0  0  0
    5.4666   -0.7787    0.0000 C   0  0  0  0  0  0  0  0  0  0  0  0
    2.0000    1.0019    0.0000 C   0  0  0  0  0  0  0  0  0  0  0  0
    6.7756   -1.7297    0.0000 C   0  0  0  0  0  0  0  0  0  0  0  0
    8.1000   -0.5464    0.0000 C   0  0  0  0  0  0  0  0  0  0  0  0
    6.7364    2.4225    0.0000 C   0  0  0  0  0  0  0  0  0  0  0  0
    7.4605   -2.5145    0.0000 C   0  0  0  0  0  0  0  0  0  0  0  0
    8.8029   -1.3151    0.0000 C   0  0  0  0  0  0  0  0  0  0  0  0
    8.4810   -2.3058    0.0000 C   0  0  0  0  0  0  0  0  0  0  0  0
    4.9847   -0.4271    0.0000 H   0  0  0  0  0  0  0  0  0  0  0  0
    6.4798    2.3945    0.0000 H   0  0  0  0  0  0  0  0  0  0  0  0
    3.9406    1.0284    0.0000 H   0  0  0  0  0  0  0  0  0  0  0  0
    4.9182    2.7216    0.0000 H   0  0  0  0  0  0  0  0  0  0  0  0
    7.9617    0.5326    0.0000 H   0  0  0  0  0  0  0  0  0  0  0  0
    7.7522    1.2015    0.0000 H   0  0  0  0  0  0  0  0  0  0  0  0
    7.3536    1.8917    0.0000 H   0  0  0  0  0  0  0  0  0  0  0  0
    3.8441   -0.2799    0.0000 H   0  0  0  0  0  0  0  0  0  0  0  0
    4.6998   -0.2369    0.0000 H   0  0  0  0  0  0  0  0  0  0  0  0
    4.7857    1.0680    0.0000 H   0  0  0  0  0  0  0  0  0  0  0  0
    5.1284    0.4048    0.0000 H   0  0  0  0  0  0  0  0  0  0  0  0
    5.3530    2.7238    0.0000 H   0  0  0  0  0  0  0  0  0  0  0  0
    1.8852    1.6112    0.0000 H   0  0  0  0  0  0  0  0  0  0  0  0
    1.3907    0.8872    0.0000 H   0  0  0  0  0  0  0  0  0  0  0  0
    2.1148    0.3926    0.0000 H   0  0  0  0  0  0  0  0  0  0  0  0
    5.4112   -2.2313    0.0000 H   0  0  0  0  0  0  0  0  0  0  0  0
    8.2848    0.0454    0.0000 H   0  0  0  0  0  0  0  0  0  0  0  0
    7.1349    1.9475    0.0000 H   0  0  0  0  0  0  0  0  0  0  0  0
    6.9484    3.0051    0.0000 H   0  0  0  0  0  0  0  0  0  0  0  0
    7.2622   -3.1019    0.0000 H   0  0  0  0  0  0  0  0  0  0  0  0
    9.4089   -1.1839    0.0000 H   0  0  0  0  0  0  0  0  0  0  0  0
    8.8941   -2.7681    0.0000 H   0  0  0  0  0  0  0  0  0  0  0  0
  1 11  1  0  0  0  0
  1 14  1  0  0  0  0
  2 17  2  0  0  0  0
  3  8  1  0  0  0  0
  3 13  1  0  0  0  0
  3 18  1  0  0  0  0
  4 17  1  0  0  0  0
  4 19  1  0  0  0  0
  4 40  1  0  0  0  0
  5  6  1  0  0  0  0
  5  8  1  0  0  0  0
  5 10  1  0  0  0  0
  5 25  1  6  0  0  0
  6  7  1  0  0  0  0
  6 13  1  0  0  0  0
  6 15  1  6  0  0  0
  7  9  1  0  0  0  0
  7 12  1  0  0  0  0
  7 26  1  0  0  0  0
  8  9  1  0  0  0  0
  8 27  1  1  0  0  0
  9 14  1  0  0  0  0
  9 28  1  1  0  0  0
 10 11  1  0  0  0  0
 10 16  1  0  0  0  0
 10 17  1  6  0  0  0
 11 12  1  0  0  0  0
 11 29  1  1  0  0  0
 12 30  1  0  0  0  0
 12 31  1  0  0  0  0
 13 32  1  0  0  0  0
 13 33  1  0  0  0  0
 14 34  1  0  0  0  0
 14 35  1  0  0  0  0
 15 21  2  0  0  0  0
 15 36  1  0  0  0  0
 16 19  1  0  0  0  0
 16 20  2  0  0  0  0
 18 37  1  0  0  0  0
 18 38  1  0  0  0  0
 18 39  1  0  0  0  0
 19 22  2  0  0  0  0
 20 23  1  0  0  0  0
 20 41  1  0  0  0  0
 21 42  1  0  0  0  0
 21 43  1  0  0  0  0
 22 24  1  0  0  0  0
 22 44  1  0  0  0  0
 23 24  2  0  0  0  0
 23 45  1  0  0  0  0
 24 46  1  0  0  0  0
M  END
> <PUBCHEM_COMPOUND_CID>
5462429

> <PUBCHEM_COMPOUND_CANONICALIZED>
1

> <PUBCHEM_CACTVS_COMPLEXITY>
635

> <PUBCHEM_CACTVS_HBOND_ACCEPTOR>
3

> <PUBCHEM_CACTVS_HBOND_DONOR>
1

> <PUBCHEM_CACTVS_ROTATABLE_BOND>
1

> <PUBCHEM_CACTVS_SUBSKEYS>
AAADceB7MAAAAAAAAAAAAAAAAAAAAeLEAAA8aIEABIAAAFgBAAAAHgAQAAAADzzhmAYywIPABACIAiVSUACCAAAhAgAIiAEIZIgIIDbAlZGGIAhm9AHIyAe82fOPgAAAAAACAADAAAYAADQAASAACQAAAA==

> <PUBCHEM_IUPAC_INCHI>
InChI=1S/C20H22N2O2/c1-3-19-10-22(2)16-11-9-24-15(8-13(11)19)20(17(16)19)12-6-4-5-7-14(12)21-18(20)23/h3-7,11,13,15-17H,1,8-10H2,2H3,(H,21,23)/t11-,13?,15+,16+,17-,19-,20-/m0/s1

> <PUBCHEM_IUPAC_INCHIKEY>
NFYYATWFXNPTRM-ICFOCEFXSA-N

> <PUBCHEM_XLOGP3_AA>
1.8

> <PUBCHEM_EXACT_MASS>
322.168128

> <PUBCHEM_MOLECULAR_FORMULA>
C20H22N2O2

> <PUBCHEM_MOLECULAR_WEIGHT>
322.40088

> <PUBCHEM_OPENEYE_CAN_SMILES>
CN1CC2(C3CC4C5(C2C1C3CO4)C6=CC=CC=C6NC5=O)C=C

> <PUBCHEM_OPENEYE_ISO_SMILES>
CN1C[C@@]2([C@@H]3[C@H]1[C@@H]4C2C[C@H]([C@@]35C6=CC=CC=C6NC5=O)OC4)C=C

> <PUBCHEM_CACTVS_TPSA>
41.6

> <PUBCHEM_MONOISOTOPIC_WEIGHT>
322.168128

> <PUBCHEM_TOTAL_CHARGE>
0

> <PUBCHEM_HEAVY_ATOM_COUNT>
24

> <PUBCHEM_ATOM_DEF_STEREO_COUNT>
6

> <PUBCHEM_ATOM_UDEF_STEREO_COUNT>
1

> <PUBCHEM_BOND_DEF_STEREO_COUNT>
0

> <PUBCHEM_BOND_UDEF_STEREO_COUNT>
0

> <PUBCHEM_ISOTOPIC_ATOM_COUNT>
0

> <PUBCHEM_COMPONENT_COUNT>
1

> <PUBCHEM_CACTVS_TAUTO_COUNT>
2

> <PUBCHEM_COORDINATE_TYPE>
1
5
255

> <PUBCHEM_BONDANNOTATIONS>
10  17  6
11  29  5
16  19  8
16  20  8
19  22  8
20  23  8
22  24  8
23  24  8
5  25  6
6  15  6
7  12  3
8  27  5
9  28  5

$$$$

