   Color/Form

     * Monoclinic prisms from ether & dilute hydrochloric acid
     * COLORLESS TO YELLOW MONOCLINIC FORM

   from [1]HSDB

   Boiling Point
        194 deg C @ 70 mm Hg
   from [2]HSDB

   Melting Point
        97 deg C
   from [3]HSDB

   Density/Specific Gravity
        1.485 @ 20 deg C/4 deg C; 1.2797 @ 100 deg C/4 deg C
   from [4]HSDB

   Dissociation Constants

     * K @ 18 deg C= 4.6X10-9
     * pKa= 8.360

   from [5]HSDB

   Heat of Combustion
        684.4 kg cal/g mol wt at 20 deg C (solid)
   from [6]HSDB

   Octanol/Water Partition Coefficient
        log Kow= 2.00
   from [7]HSDB

   Solubilities

     * Sol in hot and dil acids, in caustic solns; insol in petroleum
       ether
     * 169.35 g/100 g in acetone @ 0.2 deg C
     * 1305.9 g/100 g in acetone @ 84 deg C
     * 116.9 g/100 g in alcohol @ 1 deg C
     * 1105.25 g/100 g in alcohol @ 85 deg C
     * 105.9 g/100 g in ether @ 0.2 deg C
     * 1065.8 g/100 g in acetone @ 83 deg C
     * Very sol in ethanol, ether, and acetone
     * In water, 13,550 mg/l @ 25 deg C
     * 133,000 mg/l in water @ 90 deg C

   from [8]HSDB

   Spectral Properties

     * MAX ABSORPTION (WATER): 228 NM (LOG E= 3.88); 272 NM (LOG E= 3.77);
       328 NM (LOG E= 3.29)
     * IR: 2160 (Sadtler Research Laboratories Prism Collection)
     * UV: 569 (Sadtler Research Laboratories Spectral Collection)
     * NMR: 10615 (Sadtler Research Laboratories Spectral Collection)
     * MASS: 88 (Aldermaston, Eight Peak Index of Mass Spectra, UK)

   from [9]HSDB

   Vapor Pressure
        0.10 mm Hg @ 25 deg C
   from [10]HSDB

   Other Chemical/Physical Properties

     * Heat of fusion: 19.20 kJ/mol
     * Decomp when distilled at ordinary pressure
     * Aromatic to sweetish odor /Nitrophenols/
     * Vapor pressure: 0.75 torr at 20 deg C
     * Henry's Law constant = 2X10-9 atm-cu m/mole [Gaffney JS et al;
       Environ Sci Technol 21: 519-525 (1987)] [11]PubMed Abstract

   from [12]HSDB

   Computed Properties
   Molecular Weight                  139.1088 [g/mol]
   Molecular Formula                 C[6]H[5]NO[3]
   XLogP3                            2
   H-Bond Donor                      1
   H-Bond Acceptor                   3
   Rotatable Bond Count              0
   Tautomer Count                    3
   Exact Mass                        139.026943
   MonoIsotopic Mass                 139.026943
   Topological Polar Surface Area    66
   Heavy Atom Count                  10
   Formal Charge                     0
   Complexity                        131
   Isotope Atom Count                0
   Defined Atom Stereocenter Count   0
   Undefined Atom Stereocenter Count 0
   Defined Bond Stereocenter Count   0
   Undefined Bond Stereocenter Count 0
   Covalently-Bonded Unit Count      1
   Feature 3D Acceptor Count         2
   Feature 3D Donor Count            1
   Feature 3D Anion Count            1
   Feature 3D Ring Count             1
   Effective Rotor Count             1
   Conformer Sampling RMSD           0.4
   CID Conformer Count               [13]1

References

   1. http://toxnet.nlm.nih.gov/cgi-bin/sis/search/r?dbs+hsdb:@term+@rn+@rel+554-84-7
   2. http://toxnet.nlm.nih.gov/cgi-bin/sis/search/r?dbs+hsdb:@term+@rn+@rel+554-84-7
   3. http://toxnet.nlm.nih.gov/cgi-bin/sis/search/r?dbs+hsdb:@term+@rn+@rel+554-84-7
   4. http://toxnet.nlm.nih.gov/cgi-bin/sis/search/r?dbs+hsdb:@term+@rn+@rel+554-84-7
   5. http://toxnet.nlm.nih.gov/cgi-bin/sis/search/r?dbs+hsdb:@term+@rn+@rel+554-84-7
   6. http://toxnet.nlm.nih.gov/cgi-bin/sis/search/r?dbs+hsdb:@term+@rn+@rel+554-84-7
   7. http://toxnet.nlm.nih.gov/cgi-bin/sis/search/r?dbs+hsdb:@term+@rn+@rel+554-84-7
   8. http://toxnet.nlm.nih.gov/cgi-bin/sis/search/r?dbs+hsdb:@term+@rn+@rel+554-84-7
   9. http://toxnet.nlm.nih.gov/cgi-bin/sis/search/r?dbs+hsdb:@term+@rn+@rel+554-84-7
  10. http://toxnet.nlm.nih.gov/cgi-bin/sis/search/r?dbs+hsdb:@term+@rn+@rel+554-84-7
  11. http://www.ncbi.nlm.nih.gov/entrez/query.fcgi?cmd=Retrieve&db=pubmed&dopt=Abstract&list_uids=19994967
  12. http://toxnet.nlm.nih.gov/cgi-bin/sis/search/r?dbs+hsdb:@term+@rn+@rel+554-84-7
  13. http://pubchem.ncbi.nlm.nih.gov/vw3d/vw3d.cgi?cid=11137
