   Color/Form
        Colorless oil
   from [1]HSDB

   Odor
        Technical grade demeton has a pronounced mercaptan-like odor.
   from [2]HSDB

   Boiling Point
        128 deg C at 1 mm Hg
   from [3]HSDB

   Density/Specific Gravity
        Specific gravity: 1.132 at 21 deg C
   from [4]HSDB

   Octanol/Water Partition Coefficient
        log Kow = 2.09 (est)
   from [5]HSDB

   Solubilities

     * Soluble in most organic solvents.
     * In water, 2,000 mg/L at 20 deg C

   from [6]HSDB

   Spectral Properties
        INDEX OF REFRACTION: 1.5 @ 18 DEG C/D
   from [7]HSDB

   Vapor Pressure
        2.6X10-4 mm Hg at 20 deg C
   from [8]HSDB

   Other Chemical/Physical Properties

     * Henry's Law constant = 4.9X10-8 atm-cu m/mol at 25 deg C (est)
     * Hydroxyl radical reaction rate constant = 8.0X10-11 cu cm/molec-sec
       at 25 deg C (est)

   from [9]HSDB

   Computed Properties
   Molecular Weight                  258.338422 [g/mol]
   Molecular Formula                 C[8]H[19]O[3]PS[2]
   XLogP3                            2.3
   H-Bond Donor                      0
   H-Bond Acceptor                   5
   Rotatable Bond Count              9
   Exact Mass                        258.051323
   MonoIsotopic Mass                 258.051323
   Topological Polar Surface Area    86.1
   Heavy Atom Count                  14
   Formal Charge                     0
   Complexity                        168
   Isotope Atom Count                0
   Defined Atom Stereocenter Count   0
   Undefined Atom Stereocenter Count 0
   Defined Bond Stereocenter Count   0
   Undefined Bond Stereocenter Count 0
   Covalently-Bonded Unit Count      1
   Feature 3D Acceptor Count         1
   Feature 3D Hydrophobe Count       2
   Effective Rotor Count             9
   Conformer Sampling RMSD           0.8
   CID Conformer Count               [10]318

References

   1. http://toxnet.nlm.nih.gov/cgi-bin/sis/search/r?dbs+hsdb:@term+@rn+@rel+126-75-0
   2. http://toxnet.nlm.nih.gov/cgi-bin/sis/search/r?dbs+hsdb:@term+@rn+@rel+126-75-0
   3. http://toxnet.nlm.nih.gov/cgi-bin/sis/search/r?dbs+hsdb:@term+@rn+@rel+126-75-0
   4. http://toxnet.nlm.nih.gov/cgi-bin/sis/search/r?dbs+hsdb:@term+@rn+@rel+126-75-0
   5. http://toxnet.nlm.nih.gov/cgi-bin/sis/search/r?dbs+hsdb:@term+@rn+@rel+126-75-0
   6. http://toxnet.nlm.nih.gov/cgi-bin/sis/search/r?dbs+hsdb:@term+@rn+@rel+126-75-0
   7. http://toxnet.nlm.nih.gov/cgi-bin/sis/search/r?dbs+hsdb:@term+@rn+@rel+126-75-0
   8. http://toxnet.nlm.nih.gov/cgi-bin/sis/search/r?dbs+hsdb:@term+@rn+@rel+126-75-0
   9. http://toxnet.nlm.nih.gov/cgi-bin/sis/search/r?dbs+hsdb:@term+@rn+@rel+126-75-0
  10. http://pubchem.ncbi.nlm.nih.gov/vw3d/vw3d.cgi?cid=24723
