   Color/Form
        Crystals from petroleum ether.
   from [1]HSDB

   Melting Point
        96-98 deg C
   from [2]HSDB

   Dissociation Constants
        pKa = 8.87 (est)
   from [3]HSDB

   Octanol/Water Partition Coefficient
        log Kow = 6.30 (est)
   from [4]HSDB

   Solubilities
        In water, 16.7 mg/L at 25 deg C (est)
   from [5]HSDB

   Vapor Pressure
        3.46X10-8 mm Hg at 25 deg C (est)
   from [6]HSDB

   Other Chemical/Physical Properties

     * Henry's Law constant = 4.49X10-10 atm-cu m/mol at 25 deg C (est)
     * Hydroxyl radical reaction rate constant = 2.41X10-10 cu
       cm/molec-sec at 25 deg C (est)
     * MP: 72-74 deg C from methanol. /Cis-Form base/
     * MP: 126-128 deg C; C32-H37-N-08; ICI-47699 /Cis-Form citrate/
     * C32-H37-N-O8; ICI-46474, ... Fine, white, odorless crystalline
       powder; MP: 140-142 deg C; slightly sol in water, sol in ethanol,
       methanol, acetone; hygroscopic at high relative humidities.
       Sensitive to UV light. /Tamoxifen citrate/

   from [7]HSDB

   Computed Properties
   Molecular Weight                  371.51456 [g/mol]
   Molecular Formula                 C[26]H[29]NO
   XLogP3-AA                         7.1
   H-Bond Donor                      0
   H-Bond Acceptor                   2
   Rotatable Bond Count              8
   Exact Mass                        371.224915
   MonoIsotopic Mass                 371.224915
   Topological Polar Surface Area    12.5
   Heavy Atom Count                  28
   Formal Charge                     0
   Complexity                        463
   Isotope Atom Count                0
   Defined Atom Stereocenter Count   0
   Undefined Atom Stereocenter Count 0
   Defined Bond Stereocenter Count   1
   Undefined Bond Stereocenter Count 0
   Covalently-Bonded Unit Count      1
   Feature 3D Acceptor Count         1
   Feature 3D Cation Count           1
   Feature 3D Hydrophobe Count       1
   Feature 3D Ring Count             3
   Effective Rotor Count             8
   Conformer Sampling RMSD           1
   CID Conformer Count               [8]9

References

   1. http://toxnet.nlm.nih.gov/cgi-bin/sis/search/r?dbs+hsdb:@term+@rn+@rel+10540-29-1
   2. http://toxnet.nlm.nih.gov/cgi-bin/sis/search/r?dbs+hsdb:@term+@rn+@rel+10540-29-1
   3. http://toxnet.nlm.nih.gov/cgi-bin/sis/search/r?dbs+hsdb:@term+@rn+@rel+10540-29-1
   4. http://toxnet.nlm.nih.gov/cgi-bin/sis/search/r?dbs+hsdb:@term+@rn+@rel+10540-29-1
   5. http://toxnet.nlm.nih.gov/cgi-bin/sis/search/r?dbs+hsdb:@term+@rn+@rel+10540-29-1
   6. http://toxnet.nlm.nih.gov/cgi-bin/sis/search/r?dbs+hsdb:@term+@rn+@rel+10540-29-1
   7. http://toxnet.nlm.nih.gov/cgi-bin/sis/search/r?dbs+hsdb:@term+@rn+@rel+10540-29-1
   8. http://pubchem.ncbi.nlm.nih.gov/vw3d/vw3d.cgi?cid=2733526
