213060
  -OEChem-07051213092D

 27 27  0     1  0  0  0  0  0999 V2000
    4.2690    1.3450    0.0000 O   0  0  0  0  0  0  0  0  0  0  0  0
    2.5369    1.3450    0.0000 O   0  0  0  0  0  0  0  0  0  0  0  0
    6.0010    1.3450    0.0000 O   0  0  0  0  0  0  0  0  0  0  0  0
    5.1350    2.8450    0.0000 N   0  0  0  0  0  0  0  0  0  0  0  0
    3.4030   -0.1550    0.0000 C   0  0  3  0  0  0  0  0  0  0  0  0
    3.4030   -1.1550    0.0000 C   0  0  0  0  0  0  0  0  0  0  0  0
    4.2690    0.3450    0.0000 C   0  0  0  0  0  0  0  0  0  0  0  0
    2.5369    0.3450    0.0000 C   0  0  0  0  0  0  0  0  0  0  0  0
    2.5369   -1.6550    0.0000 C   0  0  0  0  0  0  0  0  0  0  0  0
    4.2690   -1.6550    0.0000 C   0  0  0  0  0  0  0  0  0  0  0  0
    2.5369   -2.6550    0.0000 C   0  0  0  0  0  0  0  0  0  0  0  0
    4.2690   -2.6550    0.0000 C   0  0  0  0  0  0  0  0  0  0  0  0
    3.4030   -3.1550    0.0000 C   0  0  0  0  0  0  0  0  0  0  0  0
    5.1350    1.8450    0.0000 C   0  0  0  0  0  0  0  0  0  0  0  0
    3.4030    0.6950    0.0000 H   0  0  0  0  0  0  0  0  0  0  0  0
    4.4810   -0.2376    0.0000 H   0  0  0  0  0  0  0  0  0  0  0  0
    4.8796    0.4527    0.0000 H   0  0  0  0  0  0  0  0  0  0  0  0
    1.9264    0.4527    0.0000 H   0  0  0  0  0  0  0  0  0  0  0  0
    2.3249   -0.2376    0.0000 H   0  0  0  0  0  0  0  0  0  0  0  0
    2.0000   -1.3450    0.0000 H   0  0  0  0  0  0  0  0  0  0  0  0
    4.8059   -1.3450    0.0000 H   0  0  0  0  0  0  0  0  0  0  0  0
    2.0000   -2.9650    0.0000 H   0  0  0  0  0  0  0  0  0  0  0  0
    4.8059   -2.9650    0.0000 H   0  0  0  0  0  0  0  0  0  0  0  0
    3.4030   -3.7750    0.0000 H   0  0  0  0  0  0  0  0  0  0  0  0
    2.0000    1.6550    0.0000 H   0  0  0  0  0  0  0  0  0  0  0  0
    5.6720    3.1550    0.0000 H   0  0  0  0  0  0  0  0  0  0  0  0
    4.5981    3.1550    0.0000 H   0  0  0  0  0  0  0  0  0  0  0  0
  1  7  1  0  0  0  0
  1 14  1  0  0  0  0
  2  8  1  0  0  0  0
  2 25  1  0  0  0  0
  3 14  2  0  0  0  0
  4 14  1  0  0  0  0
  4 26  1  0  0  0  0
  4 27  1  0  0  0  0
  5  6  1  0  0  0  0
  5  7  1  0  0  0  0
  5  8  1  0  0  0  0
  5 15  1  0  0  0  0
  6  9  2  0  0  0  0
  6 10  1  0  0  0  0
  7 16  1  0  0  0  0
  7 17  1  0  0  0  0
  8 18  1  0  0  0  0
  8 19  1  0  0  0  0
  9 11  1  0  0  0  0
  9 20  1  0  0  0  0
 10 12  2  0  0  0  0
 10 21  1  0  0  0  0
 11 13  2  0  0  0  0
 11 22  1  0  0  0  0
 12 13  1  0  0  0  0
 12 23  1  0  0  0  0
 13 24  1  0  0  0  0
M  END
> <PUBCHEM_COMPOUND_CID>
213060

> <PUBCHEM_COMPOUND_CANONICALIZED>
1

> <PUBCHEM_CACTVS_COMPLEXITY>
178

> <PUBCHEM_CACTVS_HBOND_ACCEPTOR>
3

> <PUBCHEM_CACTVS_HBOND_DONOR>
2

> <PUBCHEM_CACTVS_ROTATABLE_BOND>
5

> <PUBCHEM_CACTVS_SUBSKEYS>
AAADccByMAAAAAAAAAAAAAAAAAAAAAAAAAAwAAAAAAAAAAABAAAAHgAQCAAADQCgmAIwCIBABgCIAiBCGAACAAAgAAAIiAAAAIkIMCKAERCIYAAlwAEIiAeAwOAOgAAAAAAAAAAAAAAAAAAAAAAAAAAAAA==

> <PUBCHEM_IUPAC_OPENEYE_NAME>
(3-hydroxy-2-phenyl-propyl) carbamate

> <PUBCHEM_IUPAC_CAS_NAME>
carbamic acid (3-hydroxy-2-phenylpropyl) ester

> <PUBCHEM_IUPAC_NAME>
(3-hydroxy-2-phenylpropyl) carbamate

> <PUBCHEM_IUPAC_SYSTEMATIC_NAME>
(3-oxidanyl-2-phenyl-propyl) carbamate

> <PUBCHEM_IUPAC_TRADITIONAL_NAME>
carbamic acid (3-hydroxy-2-phenyl-propyl) ester

> <PUBCHEM_IUPAC_INCHI>
InChI=1S/C10H13NO3/c11-10(13)14-7-9(6-12)8-4-2-1-3-5-8/h1-5,9,12H,6-7H2,(H2,11,13)

> <PUBCHEM_IUPAC_INCHIKEY>
JQVQIZWJBLGVRW-UHFFFAOYSA-N

> <PUBCHEM_XLOGP3_AA>
0.6

> <PUBCHEM_EXACT_MASS>
195.089543

> <PUBCHEM_MOLECULAR_FORMULA>
C10H13NO3

> <PUBCHEM_MOLECULAR_WEIGHT>
195.21512

> <PUBCHEM_OPENEYE_CAN_SMILES>
C1=CC=C(C=C1)C(CO)COC(=O)N

> <PUBCHEM_OPENEYE_ISO_SMILES>
C1=CC=C(C=C1)C(CO)COC(=O)N

> <PUBCHEM_CACTVS_TPSA>
72.6

> <PUBCHEM_MONOISOTOPIC_WEIGHT>
195.089543

> <PUBCHEM_TOTAL_CHARGE>
0

> <PUBCHEM_HEAVY_ATOM_COUNT>
14

> <PUBCHEM_ATOM_DEF_STEREO_COUNT>
0

> <PUBCHEM_ATOM_UDEF_STEREO_COUNT>
1

> <PUBCHEM_BOND_DEF_STEREO_COUNT>
0

> <PUBCHEM_BOND_UDEF_STEREO_COUNT>
0

> <PUBCHEM_ISOTOPIC_ATOM_COUNT>
0

> <PUBCHEM_COMPONENT_COUNT>
1

> <PUBCHEM_CACTVS_TAUTO_COUNT>
2

> <PUBCHEM_COORDINATE_TYPE>
1
5
255

> <PUBCHEM_BONDANNOTATIONS>
10  12  8
11  13  8
12  13  8
5  15  3
6  10  8
6  9  8
9  11  8

$$$$

