   Color/Form

     * COLORLESS GLYCERINE-LIKE LIQ
     * Colorless liquid.

   from [1]HSDB

   Odor

     * FAINT ETHEREAL ODOR
     * SWEET, PLEASANT
     * Faint ether-like odor.

   from [2]HSDB

   Boiling Point
        128-130 DEG C @ 760 MM HG
   from [3]HSDB

   Melting Point
        -67.5 DEG C
   from [4]HSDB

   Density/Specific Gravity
        1.197 @ 20 DEG C/4 DEG C
   from [5]HSDB

   Dissociation Constants
        pKa = 14.31 @ 25 Deg C
   from [6]HSDB

   Heat of Combustion
        -6487 Btu/lb= -3604 cal/g= -150.8X10+5 J/kg
   from [7]HSDB

   Heat of Vaporization
        10740.6 G CAL/G MOLE
   from [8]HSDB

   Octanol/Water Partition Coefficient
        log Kow = -0.06
   from [9]HSDB

   Solubilities

     * SOL IN ALL PROPORTIONS IN WATER, ALC, ORG SOLVENTS; SLIGHTLY SOL IN
       ETHER
     * SOL IN VARIOUS RESINS
     * Infinitely soluble in aqueous solution (1X10+6 mg/l @ 25 deg C)

   from [10]HSDB

   Spectral Properties

     * INDEX OF REFRACTION: 1.4419 @ 20 DEG C/D
     * IR: 73 (Sadtler Research Laboratories Prism Collection)
     * NMR: 12 (Varian Associates NMR Spectra Catalogue)
     * MASS: 105 (Atlas of Mass Spectral Data, John Wiley & Sons, New
       York)

   from [11]HSDB

   Vapor Density
        2.78 (AIR= 1)
   from [12]HSDB

   Vapor Pressure
        4.9 MM HG @ 20 DEG C
   from [13]HSDB

   Viscosity
        0.0343 POISE @ 20 DEG C
   from [14]HSDB

   Other Chemical/Physical Properties

     * Coefficient of expansion 0.00089 @ 20 Deg C; Wt/Gal= 10.0 Lb @ 20
       Deg C; autoignition temperature 425 Deg C
     * CONVERSION FACTORS: 1 MG/L IS EQUIV TO 303.8 PPM & 1 PPM IS EQUIV
       TO 3.29 MG/CU M @ 25 DEG C, 760 MM HG
     * WHEN HEATED WITH WATER TO 100 DEG C IT DECOMPOSES INTO GLYCOL &
       ALDEHYDE; WHEN HEATED TO 184 DEG C, IT DECOMPOSES INTO ETHYLENE
       CHLORIDE & ACETALDEHYDE; DENSITY OF SATURATED AIR: 1.011 @ 20 DEG
       C; 1.022 @ 30.3 DEG C; PERCENT IN SATURATED AIR: 0.644 @ 20 DEG C;
       1.32 @ 30.3 DEG C
     * Vapor pressure = 7.18 mm Hg @ 25 Deg C
     * Standard Heat of Fusion = -70.6 kcal/mol @ 25 Deg C
     * Henry's Law constant = 7.61X10-7 atm-cu m/mole (est from vp/wsol).
     * hydroxyl radical rate constant = 1.40X10-12 cu-cm/molc sec @ 25 deg
       C

   from [15]HSDB

   Computed Properties
   Molecular Weight                  80.5135 [g/mol]
   Molecular Formula                 C[2]H[5]ClO
   XLogP3                            -0.1
   H-Bond Donor                      1
   H-Bond Acceptor                   1
   Rotatable Bond Count              1
   Exact Mass                        80.002892
   MonoIsotopic Mass                 80.002892
   Topological Polar Surface Area    20.2
   Heavy Atom Count                  4
   Formal Charge                     0
   Complexity                        10
   Isotope Atom Count                0
   Defined Atom Stereocenter Count   0
   Undefined Atom Stereocenter Count 0
   Defined Bond Stereocenter Count   0
   Undefined Bond Stereocenter Count 0
   Covalently-Bonded Unit Count      1
   Feature 3D Acceptor Count         1
   Feature 3D Donor Count            1
   Effective Rotor Count             1
   Conformer Sampling RMSD           0.4
   CID Conformer Count               [16]3

References

   1. http://toxnet.nlm.nih.gov/cgi-bin/sis/search/r?dbs+hsdb:@term+@rn+@rel+107-07-3
   2. http://toxnet.nlm.nih.gov/cgi-bin/sis/search/r?dbs+hsdb:@term+@rn+@rel+107-07-3
   3. http://toxnet.nlm.nih.gov/cgi-bin/sis/search/r?dbs+hsdb:@term+@rn+@rel+107-07-3
   4. http://toxnet.nlm.nih.gov/cgi-bin/sis/search/r?dbs+hsdb:@term+@rn+@rel+107-07-3
   5. http://toxnet.nlm.nih.gov/cgi-bin/sis/search/r?dbs+hsdb:@term+@rn+@rel+107-07-3
   6. http://toxnet.nlm.nih.gov/cgi-bin/sis/search/r?dbs+hsdb:@term+@rn+@rel+107-07-3
   7. http://toxnet.nlm.nih.gov/cgi-bin/sis/search/r?dbs+hsdb:@term+@rn+@rel+107-07-3
   8. http://toxnet.nlm.nih.gov/cgi-bin/sis/search/r?dbs+hsdb:@term+@rn+@rel+107-07-3
   9. http://toxnet.nlm.nih.gov/cgi-bin/sis/search/r?dbs+hsdb:@term+@rn+@rel+107-07-3
  10. http://toxnet.nlm.nih.gov/cgi-bin/sis/search/r?dbs+hsdb:@term+@rn+@rel+107-07-3
  11. http://toxnet.nlm.nih.gov/cgi-bin/sis/search/r?dbs+hsdb:@term+@rn+@rel+107-07-3
  12. http://toxnet.nlm.nih.gov/cgi-bin/sis/search/r?dbs+hsdb:@term+@rn+@rel+107-07-3
  13. http://toxnet.nlm.nih.gov/cgi-bin/sis/search/r?dbs+hsdb:@term+@rn+@rel+107-07-3
  14. http://toxnet.nlm.nih.gov/cgi-bin/sis/search/r?dbs+hsdb:@term+@rn+@rel+107-07-3
  15. http://toxnet.nlm.nih.gov/cgi-bin/sis/search/r?dbs+hsdb:@term+@rn+@rel+107-07-3
  16. http://pubchem.ncbi.nlm.nih.gov/vw3d/vw3d.cgi?cid=34
