17396399
  -OEChem-06241222562D

 44 45  0     1  0  0  0  0  0999 V2000
    2.0000   -3.4239    0.0000 Cl  0  0  0  0  0  0  0  0  0  0  0  0
    3.7320    1.5761    0.0000 O   0  0  0  0  0  0  0  0  0  0  0  0
    3.7320   -4.4239    0.0000 O   0  0  0  0  0  0  0  0  0  0  0  0
    5.4641    1.5761    0.0000 N   0  0  0  0  0  0  0  0  0  0  0  0
    5.9641    4.1149    0.0000 N   0  0  0  0  0  0  0  0  0  0  0  0
    3.7320   -0.4239    0.0000 N   0  0  0  0  0  0  0  0  0  0  0  0
    4.9641    4.1149    0.0000 N   0  0  0  0  0  0  0  0  0  0  0  0
    4.5981    0.0761    0.0000 C   0  0  3  0  0  0  0  0  0  0  0  0
    5.4641    2.5761    0.0000 C   0  0  0  0  0  0  0  0  0  0  0  0
    6.2731    3.1639    0.0000 C   0  0  0  0  0  0  0  0  0  0  0  0
    4.6551    3.1639    0.0000 C   0  0  0  0  0  0  0  0  0  0  0  0
    4.5981    1.0761    0.0000 C   0  0  0  0  0  0  0  0  0  0  0  0
    5.4641   -0.4239    0.0000 C   0  0  0  0  0  0  0  0  0  0  0  0
    3.7320   -1.4239    0.0000 C   0  0  0  0  0  0  0  0  0  0  0  0
    7.2242    2.8548    0.0000 C   0  0  0  0  0  0  0  0  0  0  0  0
    3.7040    2.8548    0.0000 C   0  0  0  0  0  0  0  0  0  0  0  0
    6.5519    4.9239    0.0000 C   0  0  0  0  0  0  0  0  0  0  0  0
    2.8660   -1.9239    0.0000 C   0  0  0  0  0  0  0  0  0  0  0  0
    4.5981   -1.9239    0.0000 C   0  0  0  0  0  0  0  0  0  0  0  0
    2.8660   -2.9239    0.0000 C   0  0  0  0  0  0  0  0  0  0  0  0
    4.5981   -2.9239    0.0000 C   0  0  0  0  0  0  0  0  0  0  0  0
    3.7320   -3.4239    0.0000 C   0  0  0  0  0  0  0  0  0  0  0  0
    4.5981   -4.9239    0.0000 C   0  0  0  0  0  0  0  0  0  0  0  0
    4.5981   -0.5439    0.0000 H   0  0  0  0  0  0  0  0  0  0  0  0
    6.0010    1.2661    0.0000 H   0  0  0  0  0  0  0  0  0  0  0  0
    3.1951   -0.1139    0.0000 H   0  0  0  0  0  0  0  0  0  0  0  0
    5.1541   -0.9609    0.0000 H   0  0  0  0  0  0  0  0  0  0  0  0
    6.0010   -0.7339    0.0000 H   0  0  0  0  0  0  0  0  0  0  0  0
    5.7741    0.1130    0.0000 H   0  0  0  0  0  0  0  0  0  0  0  0
    7.0326    2.2652    0.0000 H   0  0  0  0  0  0  0  0  0  0  0  0
    7.8138    2.6632    0.0000 H   0  0  0  0  0  0  0  0  0  0  0  0
    7.4158    3.4445    0.0000 H   0  0  0  0  0  0  0  0  0  0  0  0
    3.5124    3.4445    0.0000 H   0  0  0  0  0  0  0  0  0  0  0  0
    3.1144    2.6632    0.0000 H   0  0  0  0  0  0  0  0  0  0  0  0
    3.8956    2.2652    0.0000 H   0  0  0  0  0  0  0  0  0  0  0  0
    7.0535    4.5595    0.0000 H   0  0  0  0  0  0  0  0  0  0  0  0
    6.9163    5.4255    0.0000 H   0  0  0  0  0  0  0  0  0  0  0  0
    6.0503    5.2884    0.0000 H   0  0  0  0  0  0  0  0  0  0  0  0
    2.3291   -1.6139    0.0000 H   0  0  0  0  0  0  0  0  0  0  0  0
    5.1350   -1.6139    0.0000 H   0  0  0  0  0  0  0  0  0  0  0  0
    5.1350   -3.2339    0.0000 H   0  0  0  0  0  0  0  0  0  0  0  0
    4.2881   -5.4609    0.0000 H   0  0  0  0  0  0  0  0  0  0  0  0
    5.1350   -5.2339    0.0000 H   0  0  0  0  0  0  0  0  0  0  0  0
    4.9081   -4.3870    0.0000 H   0  0  0  0  0  0  0  0  0  0  0  0
  1 20  1  0  0  0  0
  2 12  2  0  0  0  0
  3 22  1  0  0  0  0
  3 23  1  0  0  0  0
  4  9  1  0  0  0  0
  4 12  1  0  0  0  0
  4 25  1  0  0  0  0
  5  7  1  0  0  0  0
  5 10  1  0  0  0  0
  5 17  1  0  0  0  0
  6  8  1  0  0  0  0
  6 14  1  0  0  0  0
  6 26  1  0  0  0  0
  7 11  2  0  0  0  0
  8 12  1  0  0  0  0
  8 13  1  0  0  0  0
  8 24  1  0  0  0  0
  9 10  2  0  0  0  0
  9 11  1  0  0  0  0
 10 15  1  0  0  0  0
 11 16  1  0  0  0  0
 13 27  1  0  0  0  0
 13 28  1  0  0  0  0
 13 29  1  0  0  0  0
 14 18  2  0  0  0  0
 14 19  1  0  0  0  0
 15 30  1  0  0  0  0
 15 31  1  0  0  0  0
 15 32  1  0  0  0  0
 16 33  1  0  0  0  0
 16 34  1  0  0  0  0
 16 35  1  0  0  0  0
 17 36  1  0  0  0  0
 17 37  1  0  0  0  0
 17 38  1  0  0  0  0
 18 20  1  0  0  0  0
 18 39  1  0  0  0  0
 19 21  2  0  0  0  0
 19 40  1  0  0  0  0
 20 22  2  0  0  0  0
 21 22  1  0  0  0  0
 21 41  1  0  0  0  0
 23 42  1  0  0  0  0
 23 43  1  0  0  0  0
 23 44  1  0  0  0  0
M  END
> <PUBCHEM_COMPOUND_CID>
17396399

> <PUBCHEM_COMPOUND_CANONICALIZED>
1

> <PUBCHEM_CACTVS_COMPLEXITY>
412

> <PUBCHEM_CACTVS_HBOND_ACCEPTOR>
4

> <PUBCHEM_CACTVS_HBOND_DONOR>
2

> <PUBCHEM_CACTVS_ROTATABLE_BOND>
5

> <PUBCHEM_CACTVS_SUBSKEYS>
AAADceB7sAAEAAAAAAAAAAAAAAAAAWAAAAAwAAAAAAAAAAABwAAAHgIYAAAACC7BliYyxpLIBACqASVyVACSDAAht0AY2KG+f5gMZiPF8/uUtChk3BHI6AewQAAAAEAAAAIACAAAgAAABAAQAAAAAAAAAA==

> <PUBCHEM_IUPAC_OPENEYE_NAME>
2-(3-chloro-4-methoxy-anilino)-N-(1,3,5-trimethylpyrazol-4-yl)propanamide

> <PUBCHEM_IUPAC_CAS_NAME>
2-(3-chloro-4-methoxyanilino)-N-(1,3,5-trimethyl-4-pyrazolyl)propanamide

> <PUBCHEM_IUPAC_NAME>
2-(3-chloro-4-methoxyanilino)-N-(1,3,5-trimethylpyrazol-4-yl)propanamide

> <PUBCHEM_IUPAC_SYSTEMATIC_NAME>
2-[(3-chloranyl-4-methoxy-phenyl)amino]-N-(1,3,5-trimethylpyrazol-4-yl)propanamide

> <PUBCHEM_IUPAC_TRADITIONAL_NAME>
2-(3-chloro-4-methoxy-anilino)-N-(1,3,5-trimethylpyrazol-4-yl)propionamide

> <PUBCHEM_IUPAC_INCHI>
InChI=1S/C16H21ClN4O2/c1-9-15(11(3)21(4)20-9)19-16(22)10(2)18-12-6-7-14(23-5)13(17)8-12/h6-8,10,18H,1-5H3,(H,19,22)

> <PUBCHEM_IUPAC_INCHIKEY>
SRDYIVLJRVXYLV-UHFFFAOYSA-N

> <PUBCHEM_XLOGP3_AA>
2.9

> <PUBCHEM_EXACT_MASS>
336.135304

> <PUBCHEM_MOLECULAR_FORMULA>
C16H21ClN4O2

> <PUBCHEM_MOLECULAR_WEIGHT>
336.81654

> <PUBCHEM_OPENEYE_CAN_SMILES>
CC1=C(C(=NN1C)C)NC(=O)C(C)NC2=CC(=C(C=C2)OC)Cl

> <PUBCHEM_OPENEYE_ISO_SMILES>
CC1=C(C(=NN1C)C)NC(=O)C(C)NC2=CC(=C(C=C2)OC)Cl

> <PUBCHEM_CACTVS_TPSA>
68.2

> <PUBCHEM_MONOISOTOPIC_WEIGHT>
336.135304

> <PUBCHEM_TOTAL_CHARGE>
0

> <PUBCHEM_HEAVY_ATOM_COUNT>
23

> <PUBCHEM_ATOM_DEF_STEREO_COUNT>
0

> <PUBCHEM_ATOM_UDEF_STEREO_COUNT>
1

> <PUBCHEM_BOND_DEF_STEREO_COUNT>
0

> <PUBCHEM_BOND_UDEF_STEREO_COUNT>
0

> <PUBCHEM_ISOTOPIC_ATOM_COUNT>
0

> <PUBCHEM_COMPONENT_COUNT>
1

> <PUBCHEM_CACTVS_TAUTO_COUNT>
5

> <PUBCHEM_COORDINATE_TYPE>
1
5
255

> <PUBCHEM_BONDANNOTATIONS>
14  18  8
14  19  8
18  20  8
19  21  8
20  22  8
21  22  8
5  10  8
5  7  8
7  11  8
8  13  3
9  10  8
9  11  8

$$$$

