   Color/Form
        COLORLESS LIQ
   from [1]HSDB

   Odor

     * MILD FLORAL ODOR
     * MILD HYACINTH-GARDENIA ODOR
     * Weak, bitter, almond-like odor

   from [2]HSDB

   Boiling Point
        204 DEG C
   from [3]HSDB

   Melting Point
        20.7 DEG C
   from [4]HSDB

   Density/Specific Gravity
        1.013 @ 25 deg C
   from [5]HSDB

   pH
        Neutral
   from [6]HSDB

   Solubilities

     * Sol in glycerol, mineral oil, alcohol
     * SOL IN MOST ORGANIC SOLVENTS
     * A high solvency for alcohol-soluble cellulose nitrate, cellulose
       acetate, and cellulose acetobutyrate; for many natural and
       synthetic resins; and for fats and oils. In contrast to benzyl
       alcohol, it is miscible with white spirit.
     * In water, 1,950 mg/l @ 25 deg C

   from [7]HSDB

   Spectral Properties

     * MAX ABSORPTION (SULFURIC ACID): 435 NM (LOG E= 4.0)
     * IR: 2:602A (Aldrich Library of Infrared Spectra, Aldrich Chemical
       Co, Milwaukee, WI)
     * NMR: 5:1C (Aldrich Library of Mass Spectra, Aldrich Chemical Co,
       Milwaukee, WI)
     * MASS: 4053 (National Bureau of Standards EPA-NIH Mass Spectra Data
       Base, NSRDS-NBS-63)
     * Refractive index = 1.525-1.529 at 20 deg C

   from [8]HSDB

   Other Chemical/Physical Properties

     * CONGEALS BELOW ROOM TEMP
     * BP 203 DEG C @ 760 MM HG; DENSITY 1.0129 @ 20 DEG C/4 DEG C; INDEX
       OF REFRACTION: 1.5272 @ 20 DEG C/D; SPECIFIC OPTICAL ROTATION:
       +42.9 DEG @ 19 DEG C/D; MAX ABSORPTION (UNDIL SULFURIC ACID): 435
       NM (LOG E= 4.0); VERY SOL IN ALC; SOL IN BENZENE, CHLOROFORM
       /D-FORM/
     * SPECIFIC OPTICAL ROTATION: -45.5 DEG @ 23 DEG C/D (METHANOL, 5%);
       BP 202-204 DEG C @ 760 MM HG; DENSITY 1.0129; SLIGHTLY SOL IN
       WATER; VERY SOL IN ALC, ETHER /L-FORM/
     * GLASSY; INSOL IN WATER; SOL IN ALL PROPORTIONS IN ALC, ETHER; INDEX
       OF REFRACTION: 1.5275 @ 20 DEG C/4 DEG C /DL-FORM/
     * IR: 1830 (National Bureau of Standards Spectral Collection) /Ethyl
       benzene, alpha-hydroxy (dl)/
     * MASS: 508 (Atlas of Mass Spectral Data, John Wiley & Sons, New
       York) /Ethyl benzene, alpha-hydroxy (dl)
     * MASS: 508 (Atlas of Mass Spectral Data, John Wiley & Sons, New
       York) /Ethyl benzene, alpha-hydroxy (l)/
     * MASS: 508 (Atlas of Mass Spectral Data, John Wiley & Sons, New
       York) /Ethyl benzene, alpha-hydroxy (d)/

   from [9]HSDB

   Computed Properties
   Molecular Weight                  122.1644 [g/mol]
   Molecular Formula                 C[8]H[10]O
   XLogP3                            1.4
   H-Bond Donor                      1
   H-Bond Acceptor                   1
   Rotatable Bond Count              1
   Exact Mass                        122.073165
   MonoIsotopic Mass                 122.073165
   Topological Polar Surface Area    20.2
   Heavy Atom Count                  9
   Formal Charge                     0
   Complexity                        74.6
   Isotope Atom Count                0
   Defined Atom Stereocenter Count   0
   Undefined Atom Stereocenter Count 1
   Defined Bond Stereocenter Count   0
   Undefined Bond Stereocenter Count 0
   Covalently-Bonded Unit Count      1
   Feature 3D Acceptor Count         1
   Feature 3D Donor Count            1
   Feature 3D Ring Count             1
   Effective Rotor Count             1
   Conformer Sampling RMSD           0.4
   CID Conformer Count               [10]2

References

   1. http://toxnet.nlm.nih.gov/cgi-bin/sis/search/r?dbs+hsdb:@term+@rn+@rel+98-85-1
   2. http://toxnet.nlm.nih.gov/cgi-bin/sis/search/r?dbs+hsdb:@term+@rn+@rel+98-85-1
   3. http://toxnet.nlm.nih.gov/cgi-bin/sis/search/r?dbs+hsdb:@term+@rn+@rel+98-85-1
   4. http://toxnet.nlm.nih.gov/cgi-bin/sis/search/r?dbs+hsdb:@term+@rn+@rel+98-85-1
   5. http://toxnet.nlm.nih.gov/cgi-bin/sis/search/r?dbs+hsdb:@term+@rn+@rel+98-85-1
   6. http://toxnet.nlm.nih.gov/cgi-bin/sis/search/r?dbs+hsdb:@term+@rn+@rel+98-85-1
   7. http://toxnet.nlm.nih.gov/cgi-bin/sis/search/r?dbs+hsdb:@term+@rn+@rel+98-85-1
   8. http://toxnet.nlm.nih.gov/cgi-bin/sis/search/r?dbs+hsdb:@term+@rn+@rel+98-85-1
   9. http://toxnet.nlm.nih.gov/cgi-bin/sis/search/r?dbs+hsdb:@term+@rn+@rel+98-85-1
  10. http://pubchem.ncbi.nlm.nih.gov/vw3d/vw3d.cgi?cid=7409
