440356
  -OEChem-07051212492D

 30 31  0     0  0  0  0  0  0999 V2000
    9.0506   -0.4979    0.0000 S   0  0  0  0  0  0  0  0  0  0  0  0
   11.1197   -1.1702    0.0000 S   0  0  0  0  0  0  0  0  0  0  0  0
    3.6942   -0.4771    0.0000 O   0  0  0  0  0  0  0  0  0  0  0  0
    3.1590    1.1702    0.0000 O   0  0  0  0  0  0  0  0  0  0  0  0
    9.8596    0.0899    0.0000 C   0  0  0  0  0  0  0  0  0  0  0  0
   10.8107   -0.2192    0.0000 C   0  0  0  0  0  0  0  0  0  0  0  0
    9.5506    1.0409    0.0000 C   0  0  0  0  0  0  0  0  0  0  0  0
    8.2416    0.0899    0.0000 C   0  0  0  0  0  0  0  0  0  0  0  0
    8.5506    1.0409    0.0000 C   0  0  0  0  0  0  0  0  0  0  0  0
    5.3884   -0.8372    0.0000 C   0  0  0  0  0  0  0  0  0  0  0  0
   11.6197    0.3686    0.0000 C   0  0  0  0  0  0  0  0  0  0  0  0
    4.6453   -0.1681    0.0000 C   0  0  0  0  0  0  0  0  0  0  0  0
   12.4287   -0.2192    0.0000 C   0  0  0  0  0  0  0  0  0  0  0  0
   12.1197   -1.1702    0.0000 C   0  0  0  0  0  0  0  0  0  0  0  0
    7.2905   -0.2192    0.0000 C   0  0  0  0  0  0  0  0  0  0  0  0
    6.3395   -0.5282    0.0000 C   0  0  0  0  0  0  0  0  0  0  0  0
    2.9511    0.1921    0.0000 C   0  0  0  0  0  0  0  0  0  0  0  0
    2.0000   -0.1170    0.0000 C   0  0  0  0  0  0  0  0  0  0  0  0
    9.9150    1.5425    0.0000 H   0  0  0  0  0  0  0  0  0  0  0  0
    8.1862    1.5425    0.0000 H   0  0  0  0  0  0  0  0  0  0  0  0
    4.8998   -1.2189    0.0000 H   0  0  0  0  0  0  0  0  0  0  0  0
    5.6795   -1.3846    0.0000 H   0  0  0  0  0  0  0  0  0  0  0  0
   11.6197    0.9886    0.0000 H   0  0  0  0  0  0  0  0  0  0  0  0
    5.1338    0.2137    0.0000 H   0  0  0  0  0  0  0  0  0  0  0  0
    4.3542    0.3794    0.0000 H   0  0  0  0  0  0  0  0  0  0  0  0
   13.0184   -0.0276    0.0000 H   0  0  0  0  0  0  0  0  0  0  0  0
   12.4841   -1.6718    0.0000 H   0  0  0  0  0  0  0  0  0  0  0  0
    1.8084    0.4727    0.0000 H   0  0  0  0  0  0  0  0  0  0  0  0
    1.4103   -0.3085    0.0000 H   0  0  0  0  0  0  0  0  0  0  0  0
    2.1916   -0.7066    0.0000 H   0  0  0  0  0  0  0  0  0  0  0  0
  1  5  1  0  0  0  0
  1  8  1  0  0  0  0
  2  6  1  0  0  0  0
  2 14  1  0  0  0  0
  3 12  1  0  0  0  0
  3 17  1  0  0  0  0
  4 17  2  0  0  0  0
  5  6  1  0  0  0  0
  5  7  2  0  0  0  0
  6 11  2  0  0  0  0
  7  9  1  0  0  0  0
  7 19  1  0  0  0  0
  8  9  2  0  0  0  0
  8 15  1  0  0  0  0
  9 20  1  0  0  0  0
 10 12  1  0  0  0  0
 10 16  1  0  0  0  0
 10 21  1  0  0  0  0
 10 22  1  0  0  0  0
 11 13  1  0  0  0  0
 11 23  1  0  0  0  0
 12 24  1  0  0  0  0
 12 25  1  0  0  0  0
 13 14  2  0  0  0  0
 13 26  1  0  0  0  0
 14 27  1  0  0  0  0
 15 16  3  0  0  0  0
 17 18  1  0  0  0  0
 18 28  1  0  0  0  0
 18 29  1  0  0  0  0
 18 30  1  0  0  0  0
M  END
> <PUBCHEM_COMPOUND_CID>
440356

> <PUBCHEM_COMPOUND_CANONICALIZED>
1

> <PUBCHEM_CACTVS_COMPLEXITY>
355

> <PUBCHEM_CACTVS_HBOND_ACCEPTOR>
4

> <PUBCHEM_CACTVS_HBOND_DONOR>
0

> <PUBCHEM_CACTVS_ROTATABLE_BOND>
5

> <PUBCHEM_CACTVS_SUBSKEYS>
AAADccBwMABgAAAAAAAAAAAAAAAAASJAAAAAAAAAAAAAAAAB4AAAGgQAAAAACACk0AKyCYAABAjMECDSCAgDAIAgCBBIiBgAAIgIICKgERCCIAAggAAoiAcAgIAAAAAAAAAAAAAAAAAAAAAAAAAAAAAAAA==

> <PUBCHEM_IUPAC_OPENEYE_NAME>
4-[5-(2-thienyl)-2-thienyl]but-3-ynyl acetate

> <PUBCHEM_IUPAC_CAS_NAME>
acetic acid 4-(5-thiophen-2-yl-2-thiophenyl)but-3-ynyl ester

> <PUBCHEM_IUPAC_NAME>
4-(5-thiophen-2-ylthiophen-2-yl)but-3-ynyl acetate

> <PUBCHEM_IUPAC_SYSTEMATIC_NAME>
4-(5-thiophen-2-ylthiophen-2-yl)but-3-ynyl ethanoate

> <PUBCHEM_IUPAC_TRADITIONAL_NAME>
acetic acid 4-[5-(2-thienyl)-2-thienyl]but-3-ynyl ester

> <PUBCHEM_IUPAC_INCHI>
InChI=1S/C14H12O2S2/c1-11(15)16-9-3-2-5-12-7-8-14(18-12)13-6-4-10-17-13/h4,6-8,10H,3,9H2,1H3

> <PUBCHEM_IUPAC_INCHIKEY>
KHPAKGUGOFYJNA-UHFFFAOYSA-N

> <PUBCHEM_XLOGP3_AA>
3.6

> <PUBCHEM_EXACT_MASS>
276.027872

> <PUBCHEM_MOLECULAR_FORMULA>
C14H12O2S2

> <PUBCHEM_MOLECULAR_WEIGHT>
276.37388

> <PUBCHEM_OPENEYE_CAN_SMILES>
CC(=O)OCCC#CC1=CC=C(S1)C2=CC=CS2

> <PUBCHEM_OPENEYE_ISO_SMILES>
CC(=O)OCCC#CC1=CC=C(S1)C2=CC=CS2

> <PUBCHEM_CACTVS_TPSA>
82.8

> <PUBCHEM_MONOISOTOPIC_WEIGHT>
276.027872

> <PUBCHEM_TOTAL_CHARGE>
0

> <PUBCHEM_HEAVY_ATOM_COUNT>
18

> <PUBCHEM_ATOM_DEF_STEREO_COUNT>
0

> <PUBCHEM_ATOM_UDEF_STEREO_COUNT>
0

> <PUBCHEM_BOND_DEF_STEREO_COUNT>
0

> <PUBCHEM_BOND_UDEF_STEREO_COUNT>
0

> <PUBCHEM_ISOTOPIC_ATOM_COUNT>
0

> <PUBCHEM_COMPONENT_COUNT>
1

> <PUBCHEM_CACTVS_TAUTO_COUNT>
1

> <PUBCHEM_COORDINATE_TYPE>
1
5
255

> <PUBCHEM_BONDANNOTATIONS>
1  5  8
1  8  8
11  13  8
13  14  8
2  14  8
2  6  8
5  7  8
6  11  8
7  9  8
8  9  8

$$$$

