46174002
  -OEChem-07051213112D

 27 29  0     1  0  0  0  0  0999 V2000
    2.0000   -0.0182    0.0000 O   0  0  0  0  0  0  0  0  0  0  0  0
    4.2326    1.8478    0.0000 O   0  0  0  0  0  0  0  0  0  0  0  0
    5.4646    0.9818    0.0000 O   0  0  0  0  0  0  0  0  0  0  0  0
    3.7326   -1.0183    0.0000 C   0  0  2  0  0  0  0  0  0  0  0  0
    4.5988   -1.5187    0.0000 C   0  0  0  0  0  0  0  0  0  0  0  0
    4.5986   -0.5182    0.0000 C   0  0  2  0  0  0  0  0  0  0  0  0
    2.8665   -0.5182    0.0000 C   0  0  1  0  0  0  0  0  0  0  0  0
    2.8665    0.4818    0.0000 C   0  0  1  0  0  0  0  0  0  0  0  0
    3.7326    0.9818    0.0000 C   0  0  1  0  0  0  0  0  0  0  0  0
    4.5986    0.4818    0.0000 C   0  0  0  0  0  0  0  0  0  0  0  0
    5.5988   -1.5187    0.0000 C   0  0  0  0  0  0  0  0  0  0  0  0
    4.0988   -2.3847    0.0000 C   0  0  0  0  0  0  0  0  0  0  0  0
    3.2326    1.8478    0.0000 C   0  0  0  0  0  0  0  0  0  0  0  0
    3.3075   -1.7543    0.0000 H   0  0  0  0  0  0  0  0  0  0  0  0
    5.4486   -0.5181    0.0000 H   0  0  0  0  0  0  0  0  0  0  0  0
    2.5566   -1.0552    0.0000 H   0  0  0  0  0  0  0  0  0  0  0  0
    2.5566    1.0187    0.0000 H   0  0  0  0  0  0  0  0  0  0  0  0
    5.5988   -2.1387    0.0000 H   0  0  0  0  0  0  0  0  0  0  0  0
    6.2188   -1.5187    0.0000 H   0  0  0  0  0  0  0  0  0  0  0  0
    5.5988   -0.8987    0.0000 H   0  0  0  0  0  0  0  0  0  0  0  0
    3.5619   -2.0747    0.0000 H   0  0  0  0  0  0  0  0  0  0  0  0
    3.7888   -2.9216    0.0000 H   0  0  0  0  0  0  0  0  0  0  0  0
    4.6358   -2.6947    0.0000 H   0  0  0  0  0  0  0  0  0  0  0  0
    3.7695    2.1578    0.0000 H   0  0  0  0  0  0  0  0  0  0  0  0
    2.9226    2.3847    0.0000 H   0  0  0  0  0  0  0  0  0  0  0  0
    2.6956    1.5378    0.0000 H   0  0  0  0  0  0  0  0  0  0  0  0
    3.9226    2.3847    0.0000 H   0  0  0  0  0  0  0  0  0  0  0  0
  7  1  1  6  0  0  0
  8  1  1  6  0  0  0
  9  2  1  6  0  0  0
  2 27  1  0  0  0  0
  3 10  2  0  0  0  0
  4  5  1  0  0  0  0
  4  6  1  0  0  0  0
  4  7  1  0  0  0  0
  4 14  1  6  0  0  0
  5  6  1  0  0  0  0
  5 11  1  0  0  0  0
  5 12  1  0  0  0  0
  6 10  1  0  0  0  0
  6 15  1  6  0  0  0
  7  8  1  0  0  0  0
  7 16  1  0  0  0  0
  8  9  1  0  0  0  0
  8 17  1  0  0  0  0
  9 10  1  0  0  0  0
  9 13  1  0  0  0  0
 11 18  1  0  0  0  0
 11 19  1  0  0  0  0
 11 20  1  0  0  0  0
 12 21  1  0  0  0  0
 12 22  1  0  0  0  0
 12 23  1  0  0  0  0
 13 24  1  0  0  0  0
 13 25  1  0  0  0  0
 13 26  1  0  0  0  0
M  END
> <PUBCHEM_COMPOUND_CID>
46174002

> <PUBCHEM_COMPOUND_CANONICALIZED>
1

> <PUBCHEM_CACTVS_COMPLEXITY>
309

> <PUBCHEM_CACTVS_HBOND_ACCEPTOR>
3

> <PUBCHEM_CACTVS_HBOND_DONOR>
1

> <PUBCHEM_CACTVS_ROTATABLE_BOND>
0

> <PUBCHEM_CACTVS_SUBSKEYS>
AAADccBwMAAAAAAAAAAAAAAAGiAAAAAAAAAwAAAABogAAAAAAAAAGgAACAAAD1SggAICAAAABgAIAIAQAAIAAAAAAAAAAAFAAAABABYAAAACQAAFIAADAAGK7PzPgAAAAAAAAADAAAYQABCAAAAAAAAAAA==

> <PUBCHEM_IUPAC_INCHI>
InChI=1S/C10H14O3/c1-9(2)4-5(9)7(11)10(3,12)8-6(4)13-8/h4-6,8,12H,1-3H3/t4-,5+,6+,8+,10-/m1/s1

> <PUBCHEM_IUPAC_INCHIKEY>
SCGLOUANVXWSOO-OKTXDSFISA-N

> <PUBCHEM_XLOGP3_AA>
0.3

> <PUBCHEM_EXACT_MASS>
182.094294

> <PUBCHEM_MOLECULAR_FORMULA>
C10H14O3

> <PUBCHEM_MOLECULAR_WEIGHT>
182.21636

> <PUBCHEM_OPENEYE_CAN_SMILES>
CC1(C2C1C(=O)C(C3C2O3)(C)O)C

> <PUBCHEM_OPENEYE_ISO_SMILES>
C[C@@]1([C@@H]2[C@@H](O2)[C@H]3[C@@H](C1=O)C3(C)C)O

> <PUBCHEM_CACTVS_TPSA>
49.8

> <PUBCHEM_MONOISOTOPIC_WEIGHT>
182.094294

> <PUBCHEM_TOTAL_CHARGE>
0

> <PUBCHEM_HEAVY_ATOM_COUNT>
13

> <PUBCHEM_ATOM_DEF_STEREO_COUNT>
5

> <PUBCHEM_ATOM_UDEF_STEREO_COUNT>
0

> <PUBCHEM_BOND_DEF_STEREO_COUNT>
0

> <PUBCHEM_BOND_UDEF_STEREO_COUNT>
0

> <PUBCHEM_ISOTOPIC_ATOM_COUNT>
0

> <PUBCHEM_COMPONENT_COUNT>
1

> <PUBCHEM_CACTVS_TAUTO_COUNT>
2

> <PUBCHEM_COORDINATE_TYPE>
1
5
255

> <PUBCHEM_BONDANNOTATIONS>
7  1  6
8  1  6
9  2  6
4  14  6
6  15  6

$$$$

