439800
  -OEChem-07051212472D

 27 29  0     1  0  0  0  0  0999 V2000
    6.3111   -1.8900    0.0000 O   0  0  0  0  0  0  0  0  0  0  0  0
    3.9667   -0.0586    0.0000 C   0  0  2  0  0  0  0  0  0  0  0  0
    5.5018   -1.3017    0.0000 C   0  0  3  0  0  0  0  0  0  0  0  0
    2.1347   -0.2998    0.0000 C   0  0  0  0  0  0  0  0  0  0  0  0
    3.7079    0.9074    0.0000 C   0  0  1  0  0  0  0  0  0  0  0  0
    6.4154   -0.8950    0.0000 C   0  0  3  0  0  0  0  0  0  0  0  0
    4.4445    1.8900    0.0000 C   0  0  0  0  0  0  0  0  0  0  0  0
    6.3108    0.0995    0.0000 C   0  0  0  0  0  0  0  0  0  0  0  0
    4.5883   -1.7084    0.0000 C   0  0  0  0  0  0  0  0  0  0  0  0
    1.2687    0.2002    0.0000 C   0  0  0  0  0  0  0  0  0  0  0  0
    1.6347   -1.1658    0.0000 C   0  0  0  0  0  0  0  0  0  0  0  0
    4.1867   -0.8796    0.0000 H   0  0  0  0  0  0  0  0  0  0  0  0
    3.4879    1.7284    0.0000 H   0  0  0  0  0  0  0  0  0  0  0  0
    7.2654   -0.8949    0.0000 H   0  0  0  0  0  0  0  0  0  0  0  0
    4.1267    2.4223    0.0000 H   0  0  0  0  0  0  0  0  0  0  0  0
    5.0576    1.9819    0.0000 H   0  0  0  0  0  0  0  0  0  0  0  0
    6.4131    0.7110    0.0000 H   0  0  0  0  0  0  0  0  0  0  0  0
    6.9306    0.0806    0.0000 H   0  0  0  0  0  0  0  0  0  0  0  0
    4.8405   -2.2748    0.0000 H   0  0  0  0  0  0  0  0  0  0  0  0
    4.0219   -1.9606    0.0000 H   0  0  0  0  0  0  0  0  0  0  0  0
    4.3361   -1.1420    0.0000 H   0  0  0  0  0  0  0  0  0  0  0  0
    0.9587   -0.3367    0.0000 H   0  0  0  0  0  0  0  0  0  0  0  0
    0.7318    0.5102    0.0000 H   0  0  0  0  0  0  0  0  0  0  0  0
    1.5787    0.7372    0.0000 H   0  0  0  0  0  0  0  0  0  0  0  0
    2.1717   -1.4758    0.0000 H   0  0  0  0  0  0  0  0  0  0  0  0
    1.3247   -1.7027    0.0000 H   0  0  0  0  0  0  0  0  0  0  0  0
    1.0978   -0.8558    0.0000 H   0  0  0  0  0  0  0  0  0  0  0  0
  1  3  1  0  0  0  0
  1  6  1  0  0  0  0
  2  3  1  0  0  0  0
  2  4  1  0  0  0  0
  2  7  1  0  0  0  0
  2 12  1  1  0  0  0
  3  6  1  0  0  0  0
  3  9  1  0  0  0  0
  4  5  1  0  0  0  0
  4 10  1  0  0  0  0
  4 11  1  0  0  0  0
  5  7  1  0  0  0  0
  5  8  1  0  0  0  0
  5 13  1  6  0  0  0
  6  8  1  0  0  0  0
  6 14  1  0  0  0  0
  7 15  1  0  0  0  0
  7 16  1  0  0  0  0
  8 17  1  0  0  0  0
  8 18  1  0  0  0  0
  9 19  1  0  0  0  0
  9 20  1  0  0  0  0
  9 21  1  0  0  0  0
 10 22  1  0  0  0  0
 10 23  1  0  0  0  0
 10 24  1  0  0  0  0
 11 25  1  0  0  0  0
 11 26  1  0  0  0  0
 11 27  1  0  0  0  0
M  END
> <PUBCHEM_COMPOUND_CID>
439800

> <PUBCHEM_COMPOUND_CANONICALIZED>
1

> <PUBCHEM_CACTVS_COMPLEXITY>
221

> <PUBCHEM_CACTVS_HBOND_ACCEPTOR>
1

> <PUBCHEM_CACTVS_HBOND_DONOR>
0

> <PUBCHEM_CACTVS_ROTATABLE_BOND>
0

> <PUBCHEM_CACTVS_SUBSKEYS>
AAADceBwIAAAAAAAAAAAAAAAEgBgAAAAAAAwYAAABIAAAAAAAAAAGgAAAAAAD1SggAICAAAABAAAAAAAAAAAAAAAAAAAAAAAAAAAAAIAAAACAAAEAAAAAAGAwPAPgAAAAAAAAADAAAYAADAAAAAAAAAAAA==

> <PUBCHEM_IUPAC_INCHI>
InChI=1S/C10H16O/c1-9(2)6-4-7(9)10(3)8(5-6)11-10/h6-8H,4-5H2,1-3H3/t6-,7-,8?,10?/m0/s1

> <PUBCHEM_IUPAC_INCHIKEY>
NQFUSWIGRKFAHK-KEMUHUQJSA-N

> <PUBCHEM_XLOGP3_AA>
2.1

> <PUBCHEM_EXACT_MASS>
152.120115

> <PUBCHEM_MOLECULAR_FORMULA>
C10H16O

> <PUBCHEM_MOLECULAR_WEIGHT>
152.23344

> <PUBCHEM_OPENEYE_CAN_SMILES>
CC1(C2CC1C3(C(C2)O3)C)C

> <PUBCHEM_OPENEYE_ISO_SMILES>
CC1([C@H]2C[C@@H]1C3(C(C2)O3)C)C

> <PUBCHEM_CACTVS_TPSA>
12.5

> <PUBCHEM_MONOISOTOPIC_WEIGHT>
152.120115

> <PUBCHEM_TOTAL_CHARGE>
0

> <PUBCHEM_HEAVY_ATOM_COUNT>
11

> <PUBCHEM_ATOM_DEF_STEREO_COUNT>
2

> <PUBCHEM_ATOM_UDEF_STEREO_COUNT>
2

> <PUBCHEM_BOND_DEF_STEREO_COUNT>
0

> <PUBCHEM_BOND_UDEF_STEREO_COUNT>
0

> <PUBCHEM_ISOTOPIC_ATOM_COUNT>
0

> <PUBCHEM_COMPONENT_COUNT>
1

> <PUBCHEM_CACTVS_TAUTO_COUNT>
1

> <PUBCHEM_COORDINATE_TYPE>
1
5
255

> <PUBCHEM_BONDANNOTATIONS>
2  12  5
3  9  3
5  13  6
6  14  3

$$$$

