69789
  -OEChem-07051213122D

 11 10  0     0  0  0  0  0  0999 V2000
    3.2320    0.8660    0.0000 F   0  0  0  0  0  0  0  0  0  0  0  0
    4.2320   -0.8660    0.0000 F   0  0  0  0  0  0  0  0  0  0  0  0
    2.0000    0.0000    0.0000 F   0  0  0  0  0  0  0  0  0  0  0  0
    2.8660   -1.5000    0.0000 F   0  0  0  0  0  0  0  0  0  0  0  0
    5.4641    0.0000    0.0000 O   0  0  0  0  0  0  0  0  0  0  0  0
    4.5981    1.5000    0.0000 O   0  0  0  0  0  0  0  0  0  0  0  0
    3.7320    0.0000    0.0000 C   0  0  0  0  0  0  0  0  0  0  0  0
    2.8660   -0.5000    0.0000 C   0  0  0  0  0  0  0  0  0  0  0  0
    4.5981    0.5000    0.0000 C   0  0  0  0  0  0  0  0  0  0  0  0
    2.8660    0.1200    0.0000 H   0  0  0  0  0  0  0  0  0  0  0  0
    6.0010    0.3100    0.0000 H   0  0  0  0  0  0  0  0  0  0  0  0
  1  7  1  0  0  0  0
  2  7  1  0  0  0  0
  3  8  1  0  0  0  0
  4  8  1  0  0  0  0
  5  9  1  0  0  0  0
  5 11  1  0  0  0  0
  6  9  2  0  0  0  0
  7  8  1  0  0  0  0
  7  9  1  0  0  0  0
  8 10  1  0  0  0  0
M  END
> <PUBCHEM_COMPOUND_CID>
69789

> <PUBCHEM_COMPOUND_CANONICALIZED>
1

> <PUBCHEM_CACTVS_COMPLEXITY>
121

> <PUBCHEM_CACTVS_HBOND_ACCEPTOR>
6

> <PUBCHEM_CACTVS_HBOND_DONOR>
1

> <PUBCHEM_CACTVS_ROTATABLE_BOND>
2

> <PUBCHEM_CACTVS_SUBSKEYS>
AAADcQBAMcAAAAAAAAAAAAAAAAAAAAAAAAAAAAAAAAAAAAAAAAAAGwAACAAACACAgBAACAAAAgAIAACQCAAAAAAAAAAAAAEAAAAAAAAAAAAAQAAAAAAAAAAAAAAAAAAAAAAAAAAAAAAAAAAAAAAAAAAAAA==

> <PUBCHEM_IUPAC_OPENEYE_NAME>
2,2,3,3-tetrafluoropropanoic acid

> <PUBCHEM_IUPAC_CAS_NAME>
2,2,3,3-tetrafluoropropanoic acid

> <PUBCHEM_IUPAC_NAME>
2,2,3,3-tetrafluoropropanoic acid

> <PUBCHEM_IUPAC_SYSTEMATIC_NAME>
2,2,3,3-tetrakis(fluoranyl)propanoic acid

> <PUBCHEM_IUPAC_TRADITIONAL_NAME>
2,2,3,3-tetrafluoropropionic acid

> <PUBCHEM_IUPAC_INCHI>
InChI=1S/C3H2F4O2/c4-1(5)3(6,7)2(8)9/h1H,(H,8,9)

> <PUBCHEM_IUPAC_INCHIKEY>
PXRROZVNOOEPPZ-UHFFFAOYSA-N

> <PUBCHEM_XLOGP3_AA>
1.3

> <PUBCHEM_EXACT_MASS>
145.999092

> <PUBCHEM_MOLECULAR_FORMULA>
C3H2F4O2

> <PUBCHEM_MOLECULAR_WEIGHT>
146.040393

> <PUBCHEM_OPENEYE_CAN_SMILES>
C(C(C(=O)O)(F)F)(F)F

> <PUBCHEM_OPENEYE_ISO_SMILES>
C(C(C(=O)O)(F)F)(F)F

> <PUBCHEM_CACTVS_TPSA>
37.3

> <PUBCHEM_MONOISOTOPIC_WEIGHT>
145.999092

> <PUBCHEM_TOTAL_CHARGE>
0

> <PUBCHEM_HEAVY_ATOM_COUNT>
9

> <PUBCHEM_ATOM_DEF_STEREO_COUNT>
0

> <PUBCHEM_ATOM_UDEF_STEREO_COUNT>
0

> <PUBCHEM_BOND_DEF_STEREO_COUNT>
0

> <PUBCHEM_BOND_UDEF_STEREO_COUNT>
0

> <PUBCHEM_ISOTOPIC_ATOM_COUNT>
0

> <PUBCHEM_COMPONENT_COUNT>
1

> <PUBCHEM_CACTVS_TAUTO_COUNT>
1

> <PUBCHEM_COORDINATE_TYPE>
1
5
255

$$$$

