3082239
  -OEChem-07051213042D

 37 36  0     1  0  0  0  0  0999 V2000
    6.8671   -0.4050    0.0000 P   0  0  3  0  0  0  0  0  0  0  0  0
    3.4030    3.5950    0.0000 P   0  0  0  0  0  0  0  0  0  0  0  0
    6.8671   -1.4050    0.0000 O   0  0  0  0  0  0  0  0  0  0  0  0
    6.8671    0.5950    0.0000 O   0  0  0  0  0  0  0  0  0  0  0  0
    7.8671   -0.4050    0.0000 O   0  0  0  0  0  0  0  0  0  0  0  0
    5.8671   -0.4050    0.0000 O   0  0  0  0  0  0  0  0  0  0  0  0
    8.5991   -4.4050    0.0000 O   0  0  0  0  0  0  0  0  0  0  0  0
    9.4651   -2.9050    0.0000 O   0  0  0  0  0  0  0  0  0  0  0  0
    2.5369    3.0950    0.0000 O   0  0  0  0  0  0  0  0  0  0  0  0
    2.9030    4.4610    0.0000 O   0  0  0  0  0  0  0  0  0  0  0  0
    3.9030    2.7290    0.0000 O   0  0  0  0  0  0  0  0  0  0  0  0
    6.8671   -3.4050    0.0000 N   0  0  0  0  0  0  0  0  0  0  0  0
    5.1350    2.5950    0.0000 N   0  0  0  0  0  0  0  0  0  0  0  0
    4.2690    4.0950    0.0000 N   0  0  0  0  0  0  0  0  0  0  0  0
    6.0010    4.0950    0.0000 N   0  0  0  0  0  0  0  0  0  0  0  0
    7.7331   -2.9050    0.0000 C   0  0  1  0  0  0  0  0  0  0  0  0
    7.7331   -1.9050    0.0000 C   0  0  0  0  0  0  0  0  0  0  0  0
    6.0010    1.0950    0.0000 C   0  0  0  0  0  0  0  0  0  0  0  0
    6.0010    2.0950    0.0000 C   0  0  0  0  0  0  0  0  0  0  0  0
    8.5991   -3.4050    0.0000 C   0  0  0  0  0  0  0  0  0  0  0  0
    5.1350    3.5950    0.0000 C   0  0  0  0  0  0  0  0  0  0  0  0
    7.7331   -3.5250    0.0000 H   0  0  0  0  0  0  0  0  0  0  0  0
    8.3437   -2.0127    0.0000 H   0  0  0  0  0  0  0  0  0  0  0  0
    7.9451   -1.3224    0.0000 H   0  0  0  0  0  0  0  0  0  0  0  0
    5.3905    1.2027    0.0000 H   0  0  0  0  0  0  0  0  0  0  0  0
    5.7890    0.5124    0.0000 H   0  0  0  0  0  0  0  0  0  0  0  0
    6.6116    1.9873    0.0000 H   0  0  0  0  0  0  0  0  0  0  0  0
    6.2131    2.6776    0.0000 H   0  0  0  0  0  0  0  0  0  0  0  0
    6.8671   -4.0250    0.0000 H   0  0  0  0  0  0  0  0  0  0  0  0
    6.3301   -3.0950    0.0000 H   0  0  0  0  0  0  0  0  0  0  0  0
    4.2690    4.7150    0.0000 H   0  0  0  0  0  0  0  0  0  0  0  0
    8.1771    0.1319    0.0000 H   0  0  0  0  0  0  0  0  0  0  0  0
    9.1360   -4.7150    0.0000 H   0  0  0  0  0  0  0  0  0  0  0  0
    6.5380    3.7850    0.0000 H   0  0  0  0  0  0  0  0  0  0  0  0
    6.0010    4.7150    0.0000 H   0  0  0  0  0  0  0  0  0  0  0  0
    2.0000    3.4050    0.0000 H   0  0  0  0  0  0  0  0  0  0  0  0
    2.2830    4.4610    0.0000 H   0  0  0  0  0  0  0  0  0  0  0  0
  1  3  1  0  0  0  0
  1  4  1  0  0  0  0
  1  5  1  0  0  0  0
  1  6  2  0  0  0  0
  2  9  1  0  0  0  0
  2 10  1  0  0  0  0
  2 11  2  0  0  0  0
  2 14  1  0  0  0  0
  3 17  1  0  0  0  0
  4 18  1  0  0  0  0
  5 32  1  0  0  0  0
  7 20  1  0  0  0  0
  7 33  1  0  0  0  0
  8 20  2  0  0  0  0
  9 36  1  0  0  0  0
 10 37  1  0  0  0  0
 16 12  1  1  0  0  0
 12 29  1  0  0  0  0
 12 30  1  0  0  0  0
 13 19  1  0  0  0  0
 13 21  2  0  0  0  0
 14 21  1  0  0  0  0
 14 31  1  0  0  0  0
 15 21  1  0  0  0  0
 15 34  1  0  0  0  0
 15 35  1  0  0  0  0
 16 17  1  0  0  0  0
 16 20  1  0  0  0  0
 16 22  1  0  0  0  0
 17 23  1  0  0  0  0
 17 24  1  0  0  0  0
 18 19  1  0  0  0  0
 18 25  1  0  0  0  0
 18 26  1  0  0  0  0
 19 27  1  0  0  0  0
 19 28  1  0  0  0  0
M  END
> <PUBCHEM_COMPOUND_CID>
3082239

> <PUBCHEM_COMPOUND_CANONICALIZED>
1

> <PUBCHEM_CACTVS_COMPLEXITY>
477

> <PUBCHEM_CACTVS_HBOND_ACCEPTOR>
11

> <PUBCHEM_CACTVS_HBOND_DONOR>
7

> <PUBCHEM_CACTVS_ROTATABLE_BOND>
10

> <PUBCHEM_CACTVS_SUBSKEYS>
AAADceBjvAMAAAAAAAAAAAAAAAAAAAAAAAAAAAAAAAAAAAAAAAAAHgAQiCAACCjhgAYBCAJAAxAoQACQLIAAAAEAAAAAAIGAAAACAAQAAAAAQAABMAAAAAAAAAAAAAAAAAAAAAAAAAAAAAAAAAAAAAAAAA==

> <PUBCHEM_IUPAC_OPENEYE_NAME>
(2S)-2-amino-3-[2-[[amino-(phosphonoamino)methylene]amino]ethoxy-hydroxy-phosphoryl]oxy-propanoic acid

> <PUBCHEM_IUPAC_CAS_NAME>
(2S)-2-amino-3-[2-[[amino-(phosphonoamino)methylidene]amino]ethoxy-hydroxyphosphoryl]oxypropanoic acid

> <PUBCHEM_IUPAC_NAME>
(2S)-2-amino-3-[2-[[amino-(phosphonoamino)methylidene]amino]ethoxy-hydroxyphosphoryl]oxypropanoic acid

> <PUBCHEM_IUPAC_SYSTEMATIC_NAME>
(2S)-2-azanyl-3-[2-[[azanyl-(phosphonoamino)methylidene]amino]ethoxy-oxidanyl-phosphoryl]oxy-propanoic acid

> <PUBCHEM_IUPAC_TRADITIONAL_NAME>
(2S)-2-amino-3-[2-[[amino-(phosphonoamino)methylene]amino]ethoxy-hydroxy-phosphoryl]oxy-propionic acid

> <PUBCHEM_IUPAC_INCHI>
InChI=1S/C6H16N4O9P2/c7-4(5(11)12)3-19-21(16,17)18-2-1-9-6(8)10-20(13,14)15/h4H,1-3,7H2,(H,11,12)(H,16,17)(H5,8,9,10,13,14,15)/t4-/m0/s1

> <PUBCHEM_IUPAC_INCHIKEY>
QOYUHKALUMVCHB-BYPYZUCNSA-N

> <PUBCHEM_XLOGP3_AA>
-7.4

> <PUBCHEM_EXACT_MASS>
350.039251

> <PUBCHEM_MOLECULAR_FORMULA>
C6H16N4O9P2

> <PUBCHEM_MOLECULAR_WEIGHT>
350.160164

> <PUBCHEM_OPENEYE_CAN_SMILES>
C(COP(=O)(O)OCC(C(=O)O)N)N=C(N)NP(=O)(O)O

> <PUBCHEM_OPENEYE_ISO_SMILES>
C(COP(=O)(O)OC[C@@H](C(=O)O)N)N=C(N)NP(=O)(O)O

> <PUBCHEM_CACTVS_TPSA>
227

> <PUBCHEM_MONOISOTOPIC_WEIGHT>
350.039251

> <PUBCHEM_TOTAL_CHARGE>
0

> <PUBCHEM_HEAVY_ATOM_COUNT>
21

> <PUBCHEM_ATOM_DEF_STEREO_COUNT>
1

> <PUBCHEM_ATOM_UDEF_STEREO_COUNT>
0

> <PUBCHEM_BOND_DEF_STEREO_COUNT>
0

> <PUBCHEM_BOND_UDEF_STEREO_COUNT>
0

> <PUBCHEM_ISOTOPIC_ATOM_COUNT>
0

> <PUBCHEM_COMPONENT_COUNT>
1

> <PUBCHEM_CACTVS_TAUTO_COUNT>
5

> <PUBCHEM_COORDINATE_TYPE>
1
5
255

> <PUBCHEM_BONDANNOTATIONS>
16  12  5

$$$$

