   Color/Form
        Colorless oily liquid
   from [1]HSDB

   Odor
        Aromatic odor
   from [2]HSDB

   Boiling Point
        233.5 deg C
   from [3]HSDB

   Melting Point
        -23.8 deg C
   from [4]HSDB

   Density/Specific Gravity
        1.0205
   from [5]HSDB

   Octanol/Water Partition Coefficient
        log Kow = 1.56
   from [6]HSDB

   Solubilities

     * Miscible with oxygenated solvents.
     * SOL IN ALL PROP IN ALC, ETHER; SOL IN ACETONE
     * In water, 100 mg/L at 25 deg C

   from [7]HSDB

   Spectral Properties

     * Index of refraction: 1.52105 @ 25 deg C/D
     * SADTLER REF NUMBER: 307 (IR, GRATING); 590 (UV)
     * MAX ABSORPTION (ALCOHOL): 258 NM (LOG E= 2.25); 264 NM (LOG E=
       2.15)
     * MASS: 62107 (NIST/EPA/MSDC Mass Spectral Database 1990 Version)
     * IR: 307 (Sadtler Research Laboratories IR Grating Spectral
       Collection)
     * UV: 598 (Sadtler Research Laboratories Spectral Collection)
     * 1H NMR: 135 (Sadtler Research Laboratories Spectral Collection)
     * Raman: 576 (Sadtler Research Laboratories Spectral Collection)

   from [8]HSDB

   Vapor Pressure
        0.089 mm Hg at 25 deg C /Extrapolated/
   from [9]HSDB

   Other Chemical/Physical Properties

     * Henry's Law constant = 1.4X10-4 atm-cu m/mole at 25 deg C
       /Estimated/
     * Hydroxyl radical reaction rate constant = 2.1X10-12 cu cm/molec-sec
       at 25 deg C /Estimated/

   from [10]HSDB

   Computed Properties
   Molecular Weight                  117.14788 [g/mol]
   Molecular Formula                 C[8]H[7]N
   XLogP3                            1.6
   H-Bond Donor                      0
   H-Bond Acceptor                   1
   Rotatable Bond Count              1
   Exact Mass                        117.057849
   MonoIsotopic Mass                 117.057849
   Topological Polar Surface Area    23.8
   Heavy Atom Count                  9
   Formal Charge                     0
   Complexity                        114
   Isotope Atom Count                0
   Defined Atom Stereocenter Count   0
   Undefined Atom Stereocenter Count 0
   Defined Bond Stereocenter Count   0
   Undefined Bond Stereocenter Count 0
   Covalently-Bonded Unit Count      1
   Feature 3D Acceptor Count         1
   Feature 3D Ring Count             1
   Effective Rotor Count             1
   Conformer Sampling RMSD           0.4
   CID Conformer Count               [11]3

References

   1. http://toxnet.nlm.nih.gov/cgi-bin/sis/search/r?dbs+hsdb:@term+@rn+@rel+140-29-4
   2. http://toxnet.nlm.nih.gov/cgi-bin/sis/search/r?dbs+hsdb:@term+@rn+@rel+140-29-4
   3. http://toxnet.nlm.nih.gov/cgi-bin/sis/search/r?dbs+hsdb:@term+@rn+@rel+140-29-4
   4. http://toxnet.nlm.nih.gov/cgi-bin/sis/search/r?dbs+hsdb:@term+@rn+@rel+140-29-4
   5. http://toxnet.nlm.nih.gov/cgi-bin/sis/search/r?dbs+hsdb:@term+@rn+@rel+140-29-4
   6. http://toxnet.nlm.nih.gov/cgi-bin/sis/search/r?dbs+hsdb:@term+@rn+@rel+140-29-4
   7. http://toxnet.nlm.nih.gov/cgi-bin/sis/search/r?dbs+hsdb:@term+@rn+@rel+140-29-4
   8. http://toxnet.nlm.nih.gov/cgi-bin/sis/search/r?dbs+hsdb:@term+@rn+@rel+140-29-4
   9. http://toxnet.nlm.nih.gov/cgi-bin/sis/search/r?dbs+hsdb:@term+@rn+@rel+140-29-4
  10. http://toxnet.nlm.nih.gov/cgi-bin/sis/search/r?dbs+hsdb:@term+@rn+@rel+140-29-4
  11. http://pubchem.ncbi.nlm.nih.gov/vw3d/vw3d.cgi?cid=8794
