   Color/Form
        Colorless liquid
   from [1]HSDB

   Odor

     * DISTINCT STRONG CYANIDE ODOR
     * The pure compound is practically odorless but usually has an odor
       of bitter almonds because of traces of hydrogen cyanide.

   from [2]HSDB

   Boiling Point
        95 deg C @ 760 mm Hg
   from [3]HSDB

   Melting Point
        -19 deg C
   from [4]HSDB

   Density/Specific Gravity
        SP GR: 0.9267 @ 25 deg C/4 deg C
   from [5]HSDB

   Solubilities

     * Freely sol in usual organic solvents; insol in petroleum ether and
       carbon disulfide.
     * Very soluble in ethanol and ethyl ether; soluble in acetone.
     * Miscible

   from [6]HSDB

   Spectral Properties

     * INDEX OF REFRACTION: 1.3980 @ 15 DEG C/D
     * MAX ABSORPTION (ALC): 263 NM (LOG E= 0.1)
     * IR: 585 (Sadtler Research Laboratories Prism Collection)
     * UV: 4-19 (Organic Electronic Spectral Data, Phillips et al, John
       Wiley & Sons, New York)
     * NMR: 18816 (Sadtler Research Laboratories Spectral Collection)
     * MASS: 131 (Atlas of Mass Spectral Data, John Wiley & Sons, New
       York)
     * IR: 3:508C (Aldrich Library of Infrared Spectra, Aldrich Chemical
       Co, Milwaukee, WI)
     * NMR: 3:165A (Aldrich Library of Mass Spectra, Aldrich Chemical Co,
       Milwaukee, WI)

   from [7]HSDB

   Vapor Density
        2.96 (Air= 1)
   from [8]HSDB

   Vapor Pressure
        7.50X10-1 mm Hg @ 20 deg C
   from [9]HSDB

   Computed Properties
   Molecular Weight                  85.10448 [g/mol]
   Molecular Formula                 C[4]H[7]NO
   XLogP3-AA                         -0.1
   H-Bond Donor                      1
   H-Bond Acceptor                   2
   Rotatable Bond Count              0
   Exact Mass                        85.052764
   MonoIsotopic Mass                 85.052764
   Topological Polar Surface Area    44
   Heavy Atom Count                  6
   Formal Charge                     0
   Complexity                        87
   Isotope Atom Count                0
   Defined Atom Stereocenter Count   0
   Undefined Atom Stereocenter Count 0
   Defined Bond Stereocenter Count   0
   Undefined Bond Stereocenter Count 0
   Covalently-Bonded Unit Count      1
   Feature 3D Acceptor Count         2
   Feature 3D Donor Count            1
   Feature 3D Hydrophobe Count       1
   Effective Rotor Count             0
   Conformer Sampling RMSD           0.4
   CID Conformer Count               [10]1

References

   1. http://toxnet.nlm.nih.gov/cgi-bin/sis/search/r?dbs+hsdb:@term+@rn+@rel+75-86-5
   2. http://toxnet.nlm.nih.gov/cgi-bin/sis/search/r?dbs+hsdb:@term+@rn+@rel+75-86-5
   3. http://toxnet.nlm.nih.gov/cgi-bin/sis/search/r?dbs+hsdb:@term+@rn+@rel+75-86-5
   4. http://toxnet.nlm.nih.gov/cgi-bin/sis/search/r?dbs+hsdb:@term+@rn+@rel+75-86-5
   5. http://toxnet.nlm.nih.gov/cgi-bin/sis/search/r?dbs+hsdb:@term+@rn+@rel+75-86-5
   6. http://toxnet.nlm.nih.gov/cgi-bin/sis/search/r?dbs+hsdb:@term+@rn+@rel+75-86-5
   7. http://toxnet.nlm.nih.gov/cgi-bin/sis/search/r?dbs+hsdb:@term+@rn+@rel+75-86-5
   8. http://toxnet.nlm.nih.gov/cgi-bin/sis/search/r?dbs+hsdb:@term+@rn+@rel+75-86-5
   9. http://toxnet.nlm.nih.gov/cgi-bin/sis/search/r?dbs+hsdb:@term+@rn+@rel+75-86-5
  10. http://pubchem.ncbi.nlm.nih.gov/vw3d/vw3d.cgi?cid=6406
