   Color/Form
        Crystals from boiling water
   from [1]HSDB

   Taste
        Slightly ammonia-like
   from [2]HSDB

   Melting Point
        220-228 deg C
   from [3]HSDB

   Dissociation Constants
        pKa1 = 1.3 (1st phosphate oxygen); pKa2 = 6.5 (2nd phosphate
   oxygen); pKa3 = 10.4 (tertiary amine) (est)
   from [4]HSDB

   Octanol/Water Partition Coefficient
        log Kow = 1.00 (est)
   from [5]HSDB

   pH
        pH 5.2 in 50% aq ethanol
   from [6]HSDB

   Solubilities

     * Soluble in 120 parts boiling methanol; difficultly soluble in
       ethanol; practically insoluble in chloroform, benzene.
     * Soluble in 20 parts boiling water
     * In water, 2.0X10+3 mg/L at 25 deg C (est)

   from [7]HSDB

   Spectral Properties
        UV max (methanol): 220, 267, 290 nm (log epsilon 4.6, 3.8, 3.6)
   from [8]HSDB

   Vapor Pressure
        1.9X10-12 mm Hg at 25 deg C (est)
   from [9]HSDB

   Other Chemical/Physical Properties

     * from boiling methanol, mp 185-195 deg C
     * Henry's Law constant = 1.1X10-19 atm-cu m/mol at 25 deg C (est)
     * Hydroxyl radical reaction rate constant = 2.8X10-10 cu
       cm/molecule-sec at 25 deg C (est)

   from [10]HSDB

   Computed Properties
   Molecular Weight                  284.248142 [g/mol]
   Molecular Formula                 C[12]H[17]N[2]O[4]P
   XLogP3-AA                         -1.6
   H-Bond Donor                      3
   H-Bond Acceptor                   5
   Rotatable Bond Count              5
   Exact Mass                        284.092594
   MonoIsotopic Mass                 284.092594
   Topological Polar Surface Area    85.8
   Heavy Atom Count                  19
   Formal Charge                     0
   Complexity                        347
   Isotope Atom Count                0
   Defined Atom Stereocenter Count   0
   Undefined Atom Stereocenter Count 0
   Defined Bond Stereocenter Count   0
   Undefined Bond Stereocenter Count 0
   Covalently-Bonded Unit Count      1
   Feature 3D Acceptor Count         3
   Feature 3D Donor Count            1
   Feature 3D Anion Count            1
   Feature 3D Cation Count           2
   Feature 3D Ring Count             2
   Effective Rotor Count             5
   Conformer Sampling RMSD           0.6
   CID Conformer Count               [11]34

References

   1. http://toxnet.nlm.nih.gov/cgi-bin/sis/search/r?dbs+hsdb:@term+@rn+@rel+520-52-5
   2. http://toxnet.nlm.nih.gov/cgi-bin/sis/search/r?dbs+hsdb:@term+@rn+@rel+520-52-5
   3. http://toxnet.nlm.nih.gov/cgi-bin/sis/search/r?dbs+hsdb:@term+@rn+@rel+520-52-5
   4. http://toxnet.nlm.nih.gov/cgi-bin/sis/search/r?dbs+hsdb:@term+@rn+@rel+520-52-5
   5. http://toxnet.nlm.nih.gov/cgi-bin/sis/search/r?dbs+hsdb:@term+@rn+@rel+520-52-5
   6. http://toxnet.nlm.nih.gov/cgi-bin/sis/search/r?dbs+hsdb:@term+@rn+@rel+520-52-5
   7. http://toxnet.nlm.nih.gov/cgi-bin/sis/search/r?dbs+hsdb:@term+@rn+@rel+520-52-5
   8. http://toxnet.nlm.nih.gov/cgi-bin/sis/search/r?dbs+hsdb:@term+@rn+@rel+520-52-5
   9. http://toxnet.nlm.nih.gov/cgi-bin/sis/search/r?dbs+hsdb:@term+@rn+@rel+520-52-5
  10. http://toxnet.nlm.nih.gov/cgi-bin/sis/search/r?dbs+hsdb:@term+@rn+@rel+520-52-5
  11. http://pubchem.ncbi.nlm.nih.gov/vw3d/vw3d.cgi?cid=10624
