6451387
  -OEChem-07051213042D

 30 30  0     1  0  0  0  0  0999 V2000
    5.1350   -3.7500    0.0000 O   0  0  0  0  0  0  0  0  0  0  0  0
    2.5369   -3.2500    0.0000 O   0  0  0  0  0  0  0  0  0  0  0  0
    3.4030   -3.7500    0.0000 C   0  0  2  0  0  0  0  0  0  0  0  0
    3.4030   -4.7500    0.0000 C   0  0  0  0  0  0  0  0  0  0  0  0
    4.2690   -3.2500    0.0000 C   0  0  2  0  0  0  0  0  0  0  0  0
    4.2690   -5.2500    0.0000 C   0  0  0  0  0  0  0  0  0  0  0  0
    5.1350   -4.7500    0.0000 C   0  0  0  0  0  0  0  0  0  0  0  0
    4.2690   -2.2500    0.0000 C   0  0  0  0  0  0  0  0  0  0  0  0
    5.1350   -1.7500    0.0000 C   0  0  0  0  0  0  0  0  0  0  0  0
    5.1350   -0.7500    0.0000 C   0  0  0  0  0  0  0  0  0  0  0  0
    5.1350    0.2500    0.0000 C   0  0  0  0  0  0  0  0  0  0  0  0
    5.1350    1.2500    0.0000 C   0  0  0  0  0  0  0  0  0  0  0  0
    5.1350    2.2500    0.0000 C   0  0  0  0  0  0  0  0  0  0  0  0
    5.1350    3.2500    0.0000 C   0  0  0  0  0  0  0  0  0  0  0  0
    5.1350    5.2500    0.0000 C   0  0  0  0  0  0  0  0  0  0  0  0
    5.1350    4.2500    0.0000 C   0  0  0  0  0  0  0  0  0  0  0  0
    3.4030   -3.1300    0.0000 H   0  0  0  0  0  0  0  0  0  0  0  0
    2.7924   -4.6423    0.0000 H   0  0  0  0  0  0  0  0  0  0  0  0
    3.1909   -5.3326    0.0000 H   0  0  0  0  0  0  0  0  0  0  0  0
    4.8059   -2.9400    0.0000 H   0  0  0  0  0  0  0  0  0  0  0  0
    3.8705   -5.7250    0.0000 H   0  0  0  0  0  0  0  0  0  0  0  0
    4.6675   -5.7250    0.0000 H   0  0  0  0  0  0  0  0  0  0  0  0
    5.3471   -5.3326    0.0000 H   0  0  0  0  0  0  0  0  0  0  0  0
    5.7456   -4.6423    0.0000 H   0  0  0  0  0  0  0  0  0  0  0  0
    3.7320   -1.9400    0.0000 H   0  0  0  0  0  0  0  0  0  0  0  0
    2.0000   -3.5600    0.0000 H   0  0  0  0  0  0  0  0  0  0  0  0
    5.6720   -2.0600    0.0000 H   0  0  0  0  0  0  0  0  0  0  0  0
    5.7550    5.2500    0.0000 H   0  0  0  0  0  0  0  0  0  0  0  0
    5.1350    5.8700    0.0000 H   0  0  0  0  0  0  0  0  0  0  0  0
    4.5150    5.2500    0.0000 H   0  0  0  0  0  0  0  0  0  0  0  0
  1  5  1  0  0  0  0
  1  7  1  0  0  0  0
  3  2  1  1  0  0  0
  2 26  1  0  0  0  0
  3  4  1  0  0  0  0
  3  5  1  0  0  0  0
  3 17  1  0  0  0  0
  4  6  1  0  0  0  0
  4 18  1  0  0  0  0
  4 19  1  0  0  0  0
  5  8  1  6  0  0  0
  5 20  1  0  0  0  0
  6  7  1  0  0  0  0
  6 21  1  0  0  0  0
  6 22  1  0  0  0  0
  7 23  1  0  0  0  0
  7 24  1  0  0  0  0
  8  9  2  0  0  0  0
  8 25  1  0  0  0  0
  9 10  1  0  0  0  0
  9 27  1  0  0  0  0
 10 11  3  0  0  0  0
 11 12  1  0  0  0  0
 12 13  3  0  0  0  0
 13 14  1  0  0  0  0
 14 16  3  0  0  0  0
 15 16  1  0  0  0  0
 15 28  1  0  0  0  0
 15 29  1  0  0  0  0
 15 30  1  0  0  0  0
M  END
> <PUBCHEM_COMPOUND_CID>
6451387

> <PUBCHEM_COMPOUND_CANONICALIZED>
1

> <PUBCHEM_CACTVS_COMPLEXITY>
446

> <PUBCHEM_CACTVS_HBOND_ACCEPTOR>
2

> <PUBCHEM_CACTVS_HBOND_DONOR>
1

> <PUBCHEM_CACTVS_ROTATABLE_BOND>
3

> <PUBCHEM_CACTVS_SUBSKEYS>
AAADccBwMAAAAAAAAAAAAAAAAAAAAAAAAAAkAAAAAAAAAAAAAAAAGgAACAAACBSggAICAAAABgDAECBCAAAAAAAgAAAICAAAAAgBFAIAIQACUAAEwAALIAPAQAAAAAAAAAAAAAAAAAAAAAAAAAAAAAAAAA==

> <PUBCHEM_IUPAC_OPENEYE_NAME>
(2S,3R)-2-[(E)-non-1-en-3,5,7-triynyl]tetrahydropyran-3-ol

> <PUBCHEM_IUPAC_CAS_NAME>
(2S,3R)-2-[(E)-non-1-en-3,5,7-triynyl]-3-oxanol

> <PUBCHEM_IUPAC_NAME>
(2S,3R)-2-[(E)-non-1-en-3,5,7-triynyl]oxan-3-ol

> <PUBCHEM_IUPAC_SYSTEMATIC_NAME>
(2S,3R)-2-[(E)-non-1-en-3,5,7-triynyl]oxan-3-ol

> <PUBCHEM_IUPAC_TRADITIONAL_NAME>
(2S,3R)-2-[(E)-non-1-en-3,5,7-triynyl]tetrahydropyran-3-ol

> <PUBCHEM_IUPAC_INCHI>
InChI=1S/C14H14O2/c1-2-3-4-5-6-7-8-11-14-13(15)10-9-12-16-14/h8,11,13-15H,9-10,12H2,1H3/b11-8+/t13-,14+/m1/s1

> <PUBCHEM_IUPAC_INCHIKEY>
WFJPISZWZQHNLX-GELOPOQCSA-N

> <PUBCHEM_XLOGP3_AA>
2

> <PUBCHEM_EXACT_MASS>
214.09938

> <PUBCHEM_MOLECULAR_FORMULA>
C14H14O2

> <PUBCHEM_MOLECULAR_WEIGHT>
214.25976

> <PUBCHEM_OPENEYE_CAN_SMILES>
CC#CC#CC#CC=CC1C(CCCO1)O

> <PUBCHEM_OPENEYE_ISO_SMILES>
CC#CC#CC#C/C=C/[C@H]1[C@@H](CCCO1)O

> <PUBCHEM_CACTVS_TPSA>
29.5

> <PUBCHEM_MONOISOTOPIC_WEIGHT>
214.09938

> <PUBCHEM_TOTAL_CHARGE>
0

> <PUBCHEM_HEAVY_ATOM_COUNT>
16

> <PUBCHEM_ATOM_DEF_STEREO_COUNT>
2

> <PUBCHEM_ATOM_UDEF_STEREO_COUNT>
0

> <PUBCHEM_BOND_DEF_STEREO_COUNT>
1

> <PUBCHEM_BOND_UDEF_STEREO_COUNT>
0

> <PUBCHEM_ISOTOPIC_ATOM_COUNT>
0

> <PUBCHEM_COMPONENT_COUNT>
1

> <PUBCHEM_CACTVS_TAUTO_COUNT>
1

> <PUBCHEM_COORDINATE_TYPE>
1
5
255

> <PUBCHEM_BONDANNOTATIONS>
3  2  5
5  8  6

$$$$

