   Color/Form
        Liquid
   from [1]HSDB

   Boiling Point
        232-234 deg C
   from [2]HSDB

   Melting Point
        -5 deg C
   from [3]HSDB

   Density/Specific Gravity
        0.96 kg/l
   from [4]HSDB

   Dissociation Constants
        pKa= 4.38
   from [5]HSDB

   Solubilities
        Insoluble in water
   from [6]HSDB

   Spectral Properties

     * IR: 5555 (Sadtler Research Laboratories Prism Collection)
     * UV: 1549 (Sadtler Research Laboratories Spectral Collection)
     * NMR: 8779 (Sadtler Research Laboratories Spectral Collection)

   from [7]HSDB

   Computed Properties
   Molecular Weight                  135.20622 [g/mol]
   Molecular Formula                 C[9]H[13]N
   XLogP3-AA                         2.3
   H-Bond Donor                      1
   H-Bond Acceptor                   1
   Rotatable Bond Count              0
   Exact Mass                        135.104799
   MonoIsotopic Mass                 135.104799
   Topological Polar Surface Area    26
   Heavy Atom Count                  10
   Formal Charge                     0
   Complexity                        99.3
   Isotope Atom Count                0
   Defined Atom Stereocenter Count   0
   Undefined Atom Stereocenter Count 0
   Defined Bond Stereocenter Count   0
   Undefined Bond Stereocenter Count 0
   Covalently-Bonded Unit Count      1
   Feature 3D Donor Count            1
   Feature 3D Cation Count           1
   Feature 3D Ring Count             1
   Effective Rotor Count             0
   Conformer Sampling RMSD           0.4
   CID Conformer Count               [8]1

References

   1. http://toxnet.nlm.nih.gov/cgi-bin/sis/search/r?dbs+hsdb:@term+@rn+@rel+88-05-1
   2. http://toxnet.nlm.nih.gov/cgi-bin/sis/search/r?dbs+hsdb:@term+@rn+@rel+88-05-1
   3. http://toxnet.nlm.nih.gov/cgi-bin/sis/search/r?dbs+hsdb:@term+@rn+@rel+88-05-1
   4. http://toxnet.nlm.nih.gov/cgi-bin/sis/search/r?dbs+hsdb:@term+@rn+@rel+88-05-1
   5. http://toxnet.nlm.nih.gov/cgi-bin/sis/search/r?dbs+hsdb:@term+@rn+@rel+88-05-1
   6. http://toxnet.nlm.nih.gov/cgi-bin/sis/search/r?dbs+hsdb:@term+@rn+@rel+88-05-1
   7. http://toxnet.nlm.nih.gov/cgi-bin/sis/search/r?dbs+hsdb:@term+@rn+@rel+88-05-1
   8. http://pubchem.ncbi.nlm.nih.gov/vw3d/vw3d.cgi?cid=6913
