5460545
  -OEChem-07051213042D

 51 55  0     1  0  0  0  0  0999 V2000
    5.6914   -1.0884    0.0000 O   0  0  0  0  0  0  0  0  0  0  0  0
    2.6198   -2.7528    0.0000 O   0  0  0  0  0  0  0  0  0  0  0  0
    7.4068   -0.6688    0.0000 O   0  0  0  0  0  0  0  0  0  0  0  0
    5.3245   -2.9243    0.0000 O   0  0  0  0  0  0  0  0  0  0  0  0
    6.7075   -2.2534    0.0000 O   0  0  0  0  0  0  0  0  0  0  0  0
    5.8209    0.1292    0.0000 C   0  0  1  0  0  0  0  0  0  0  0  0
    4.2348   -0.1572    0.0000 C   0  0  1  0  0  0  0  0  0  0  0  0
    4.9199    0.5631    0.0000 C   0  0  2  0  0  0  0  0  0  0  0  0
    4.7066   -1.0322    0.0000 C   0  0  2  0  0  0  0  0  0  0  0  0
    5.6849   -0.8555    0.0000 C   0  0  2  0  0  0  0  0  0  0  0  0
    4.1767   -1.9218    0.0000 C   0  0  3  0  0  0  0  0  0  0  0  0
    5.7140    1.3060    0.0000 C   0  0  0  0  0  0  0  0  0  0  0  0
    6.7218    0.5631    0.0000 C   0  0  0  0  0  0  0  0  0  0  0  0
    4.6974    1.5380    0.0000 C   0  0  0  0  0  0  0  0  0  0  0  0
    3.2003   -0.1112    0.0000 C   0  0  0  0  0  0  0  0  0  0  0  0
    6.3209    2.3199    0.0000 C   0  0  1  0  0  0  0  0  0  0  0  0
    5.2281   -0.2082    0.0000 C   0  0  0  0  0  0  0  0  0  0  0  0
    5.3209    2.3199    0.0000 C   0  0  0  0  0  0  0  0  0  0  0  0
    3.1415   -1.8996    0.0000 C   0  0  2  0  0  0  0  0  0  0  0  0
    6.9444    1.5380    0.0000 C   0  0  0  0  0  0  0  0  0  0  0  0
    2.6500   -0.9883    0.0000 C   0  0  0  0  0  0  0  0  0  0  0  0
    5.1712   -1.9362    0.0000 C   0  0  0  0  0  0  0  0  0  0  0  0
    6.5997   -1.2593    0.0000 C   0  0  0  0  0  0  0  0  0  0  0  0
    4.1588   -2.9216    0.0000 C   0  0  0  0  0  0  0  0  0  0  0  0
    7.9193    1.7606    0.0000 C   0  0  0  0  0  0  0  0  0  0  0  0
    4.1541    0.9319    0.0000 H   0  0  0  0  0  0  0  0  0  0  0  0
    4.6819   -1.8818    0.0000 H   0  0  0  0  0  0  0  0  0  0  0  0
    5.6116   -1.4712    0.0000 H   0  0  0  0  0  0  0  0  0  0  0  0
    5.3062    1.7730    0.0000 H   0  0  0  0  0  0  0  0  0  0  0  0
    5.1440    1.0622    0.0000 H   0  0  0  0  0  0  0  0  0  0  0  0
    6.8598   -0.0413    0.0000 H   0  0  0  0  0  0  0  0  0  0  0  0
    7.3418    0.5631    0.0000 H   0  0  0  0  0  0  0  0  0  0  0  0
    4.3108    2.0228    0.0000 H   0  0  0  0  0  0  0  0  0  0  0  0
    4.1388    1.2690    0.0000 H   0  0  0  0  0  0  0  0  0  0  0  0
    3.3335    0.4944    0.0000 H   0  0  0  0  0  0  0  0  0  0  0  0
    2.6265    0.1236    0.0000 H   0  0  0  0  0  0  0  0  0  0  0  0
    6.5100    3.1486    0.0000 H   0  0  0  0  0  0  0  0  0  0  0  0
    5.8193   -0.0215    0.0000 H   0  0  0  0  0  0  0  0  0  0  0  0
    5.1494    0.4068    0.0000 H   0  0  0  0  0  0  0  0  0  0  0  0
    5.4588    2.9243    0.0000 H   0  0  0  0  0  0  0  0  0  0  0  0
    4.7623    2.5889    0.0000 H   0  0  0  0  0  0  0  0  0  0  0  0
    3.4389   -2.4437    0.0000 H   0  0  0  0  0  0  0  0  0  0  0  0
    2.1890   -0.5737    0.0000 H   0  0  0  0  0  0  0  0  0  0  0  0
    2.1627   -1.3716    0.0000 H   0  0  0  0  0  0  0  0  0  0  0  0
    3.5389   -2.9105    0.0000 H   0  0  0  0  0  0  0  0  0  0  0  0
    4.1477   -3.5415    0.0000 H   0  0  0  0  0  0  0  0  0  0  0  0
    4.7787   -2.9327    0.0000 H   0  0  0  0  0  0  0  0  0  0  0  0
    8.3410    1.3061    0.0000 H   0  0  0  0  0  0  0  0  0  0  0  0
    8.1020    2.3530    0.0000 H   0  0  0  0  0  0  0  0  0  0  0  0
    2.0000   -2.7372    0.0000 H   0  0  0  0  0  0  0  0  0  0  0  0
    7.9740   -0.9192    0.0000 H   0  0  0  0  0  0  0  0  0  0  0  0
  1 17  1  0  0  0  0
  1 22  1  0  0  0  0
 19  2  1  1  0  0  0
  2 50  1  0  0  0  0
  3 23  1  0  0  0  0
  3 51  1  0  0  0  0
  4 22  2  0  0  0  0
  5 23  2  0  0  0  0
  6  8  1  0  0  0  0
  6 10  1  0  0  0  0
  6 12  1  6  0  0  0
  6 13  1  0  0  0  0
  7  8  1  0  0  0  0
  7  9  1  0  0  0  0
  7 15  1  6  0  0  0
  7 17  1  0  0  0  0
  8 14  1  0  0  0  0
  8 26  1  1  0  0  0
  9 10  1  0  0  0  0
  9 11  1  0  0  0  0
  9 27  1  1  0  0  0
 10 23  1  1  0  0  0
 10 28  1  0  0  0  0
 11 19  1  0  0  0  0
 11 22  1  0  0  0  0
 11 24  1  0  0  0  0
 12 16  1  0  0  0  0
 12 29  1  0  0  0  0
 12 30  1  0  0  0  0
 13 20  1  0  0  0  0
 13 31  1  0  0  0  0
 13 32  1  0  0  0  0
 14 18  1  0  0  0  0
 14 33  1  0  0  0  0
 14 34  1  0  0  0  0
 15 21  1  0  0  0  0
 15 35  1  0  0  0  0
 15 36  1  0  0  0  0
 16 18  1  0  0  0  0
 16 20  1  0  0  0  0
 16 37  1  6  0  0  0
 17 38  1  0  0  0  0
 17 39  1  0  0  0  0
 18 40  1  0  0  0  0
 18 41  1  0  0  0  0
 19 21  1  0  0  0  0
 19 42  1  0  0  0  0
 20 25  2  0  0  0  0
 21 43  1  0  0  0  0
 21 44  1  0  0  0  0
 24 45  1  0  0  0  0
 24 46  1  0  0  0  0
 24 47  1  0  0  0  0
 25 48  1  0  0  0  0
 25 49  1  0  0  0  0
M  END
> <PUBCHEM_COMPOUND_CID>
5460545

> <PUBCHEM_COMPOUND_CANONICALIZED>
1

> <PUBCHEM_CACTVS_COMPLEXITY>
700

> <PUBCHEM_CACTVS_HBOND_ACCEPTOR>
5

> <PUBCHEM_CACTVS_HBOND_DONOR>
2

> <PUBCHEM_CACTVS_ROTATABLE_BOND>
1

> <PUBCHEM_CACTVS_SUBSKEYS>
AAADceB4OAAAAAAAAAAAAAAAAAAAAYMAAAA0YIAABgASAGjAAAAAGgAACAAADxSggAICCAAABgCIAgDSCAAAAAAgAAAAAAEAAAgAEBYAAQACQAAFoAAAAAGI7vzPgAAAAAAAAADAAAYAADAAAQAACAAAAA==

> <PUBCHEM_IUPAC_INCHI>
InChI=1S/C20H26O5/c1-10-7-20-8-11(10)3-4-12(20)19-6-5-13(21)18(2,17(24)25-9-19)15(19)14(20)16(22)23/h11-15,21H,1,3-9H2,2H3,(H,22,23)/t11-,12+,13+,14-,15-,18?,19-,20+/m1/s1

> <PUBCHEM_IUPAC_INCHIKEY>
QYXZQZMPZUEEML-LHCJCPEVSA-N

> <PUBCHEM_XLOGP3_AA>
2.1

> <PUBCHEM_EXACT_MASS>
346.178024

> <PUBCHEM_MOLECULAR_FORMULA>
C20H26O5

> <PUBCHEM_MOLECULAR_WEIGHT>
346.41744

> <PUBCHEM_OPENEYE_CAN_SMILES>
CC12C(CCC3(C1C(C45C3CCC(C4)C(=C)C5)C(=O)O)COC2=O)O

> <PUBCHEM_OPENEYE_ISO_SMILES>
CC12[C@H](CC[C@@]3([C@@H]1[C@@H]([C@]45[C@H]3CC[C@H](C4)C(=C)C5)C(=O)O)COC2=O)O

> <PUBCHEM_CACTVS_TPSA>
83.8

> <PUBCHEM_MONOISOTOPIC_WEIGHT>
346.178024

> <PUBCHEM_TOTAL_CHARGE>
0

> <PUBCHEM_HEAVY_ATOM_COUNT>
25

> <PUBCHEM_ATOM_DEF_STEREO_COUNT>
7

> <PUBCHEM_ATOM_UDEF_STEREO_COUNT>
1

> <PUBCHEM_BOND_DEF_STEREO_COUNT>
0

> <PUBCHEM_BOND_UDEF_STEREO_COUNT>
0

> <PUBCHEM_ISOTOPIC_ATOM_COUNT>
0

> <PUBCHEM_COMPONENT_COUNT>
1

> <PUBCHEM_CACTVS_TAUTO_COUNT>
1

> <PUBCHEM_COORDINATE_TYPE>
1
5
255

> <PUBCHEM_BONDANNOTATIONS>
10  23  5
11  24  3
16  37  6
19  2  5
6  12  6
7  15  6
8  26  5
9  27  5

$$$$

