10291
  -OEChem-06261204262D

 19 20  0     0  0  0  0  0  0999 V2000
    5.4804    1.8446    0.0000 O   0  0  0  0  0  0  0  0  0  0  0  0
    2.0000   -1.1900    0.0000 O   0  0  0  0  0  0  0  0  0  0  0  0
    2.0000    0.8100    0.0000 O   0  0  0  0  0  0  0  0  0  0  0  0
    3.7320   -1.1900    0.0000 N   0  0  0  0  0  0  0  0  0  0  0  0
    5.4920   -1.2246    0.0000 N   0  0  0  0  0  0  0  0  0  0  0  0
    3.7320    0.8100    0.0000 N   0  0  0  0  0  0  0  0  0  0  0  0
    6.3981    0.3308    0.0000 N   0  0  0  0  0  0  0  0  0  0  0  0
    7.2622   -1.2141    0.0000 N   0  0  0  0  0  0  0  0  0  0  0  0
    4.5981   -0.6900    0.0000 C   0  0  0  0  0  0  0  0  0  0  0  0
    4.5981    0.3100    0.0000 C   0  0  0  0  0  0  0  0  0  0  0  0
    5.4920    0.8447    0.0000 C   0  0  0  0  0  0  0  0  0  0  0  0
    2.8660   -0.6900    0.0000 C   0  0  0  0  0  0  0  0  0  0  0  0
    2.8660    0.3100    0.0000 C   0  0  0  0  0  0  0  0  0  0  0  0
    6.3981   -0.7108    0.0000 C   0  0  0  0  0  0  0  0  0  0  0  0
    3.7320   -1.8100    0.0000 H   0  0  0  0  0  0  0  0  0  0  0  0
    5.4848   -1.8446    0.0000 H   0  0  0  0  0  0  0  0  0  0  0  0
    3.7320    1.4300    0.0000 H   0  0  0  0  0  0  0  0  0  0  0  0
    7.8003   -0.9062    0.0000 H   0  0  0  0  0  0  0  0  0  0  0  0
    7.2598   -1.8341    0.0000 H   0  0  0  0  0  0  0  0  0  0  0  0
  1 11  2  0  0  0  0
  2 12  2  0  0  0  0
  3 13  2  0  0  0  0
  4  9  1  0  0  0  0
  4 12  1  0  0  0  0
  4 15  1  0  0  0  0
  5  9  1  0  0  0  0
  5 14  1  0  0  0  0
  5 16  1  0  0  0  0
  6 10  1  0  0  0  0
  6 13  1  0  0  0  0
  6 17  1  0  0  0  0
  7 11  1  0  0  0  0
  7 14  2  0  0  0  0
  8 14  1  0  0  0  0
  8 18  1  0  0  0  0
  8 19  1  0  0  0  0
  9 10  2  0  0  0  0
 10 11  1  0  0  0  0
 12 13  1  0  0  0  0
M  END
> <PUBCHEM_COMPOUND_CID>
10291

> <PUBCHEM_COMPOUND_CANONICALIZED>
1

> <PUBCHEM_CACTVS_COMPLEXITY>
421

> <PUBCHEM_CACTVS_HBOND_ACCEPTOR>
3

> <PUBCHEM_CACTVS_HBOND_DONOR>
4

> <PUBCHEM_CACTVS_ROTATABLE_BOND>
0

> <PUBCHEM_CACTVS_SUBSKEYS>
AAADcYBjsAAAAAAAAAAAAAAAAAAAAAAAAAAgQAAAAAAAAACAAAAADgAQAAAACAgBgAABAALAAACoAAVQdACAAAEAAAABAACAAECAQAAAACAQAAAIBQKAAEAAAAAAAAAAAAAAAAAAAAAAAAAAAAAAAAAAAA==

> <PUBCHEM_IUPAC_OPENEYE_NAME>
2-amino-5,8-dihydro-1H-pteridine-4,6,7-trione

> <PUBCHEM_IUPAC_CAS_NAME>
2-amino-5,8-dihydro-1H-pteridine-4,6,7-trione

> <PUBCHEM_IUPAC_NAME>
2-amino-5,8-dihydro-1H-pteridine-4,6,7-trione

> <PUBCHEM_IUPAC_SYSTEMATIC_NAME>
2-azanyl-5,8-dihydro-1H-pteridine-4,6,7-trione

> <PUBCHEM_IUPAC_TRADITIONAL_NAME>
2-amino-5,8-dihydro-1H-pteridine-4,6,7-trione

> <PUBCHEM_IUPAC_INCHI>
InChI=1S/C6H5N5O3/c7-6-10-2-1(3(12)11-6)8-4(13)5(14)9-2/h(H,8,13)(H4,7,9,10,11,12,14)

> <PUBCHEM_IUPAC_INCHIKEY>
SFLOGVVDXPCWGR-UHFFFAOYSA-N

> <PUBCHEM_XLOGP3_AA>
-2.4

> <PUBCHEM_EXACT_MASS>
195.039239

> <PUBCHEM_MOLECULAR_FORMULA>
C6H5N5O3

> <PUBCHEM_MOLECULAR_WEIGHT>
195.1356

> <PUBCHEM_OPENEYE_CAN_SMILES>
C12=C(NC(=O)C(=O)N1)NC(=NC2=O)N

> <PUBCHEM_OPENEYE_ISO_SMILES>
C12=C(NC(=O)C(=O)N1)NC(=NC2=O)N

> <PUBCHEM_CACTVS_TPSA>
126

> <PUBCHEM_MONOISOTOPIC_WEIGHT>
195.039239

> <PUBCHEM_TOTAL_CHARGE>
0

> <PUBCHEM_HEAVY_ATOM_COUNT>
14

> <PUBCHEM_ATOM_DEF_STEREO_COUNT>
0

> <PUBCHEM_ATOM_UDEF_STEREO_COUNT>
0

> <PUBCHEM_BOND_DEF_STEREO_COUNT>
0

> <PUBCHEM_BOND_UDEF_STEREO_COUNT>
0

> <PUBCHEM_ISOTOPIC_ATOM_COUNT>
0

> <PUBCHEM_COMPONENT_COUNT>
1

> <PUBCHEM_CACTVS_TAUTO_COUNT>
74

> <PUBCHEM_COORDINATE_TYPE>
1
5
255

> <PUBCHEM_BONDANNOTATIONS>
10  11  8
12  13  8
4  12  8
4  9  8
5  14  8
5  9  8
6  10  8
6  13  8
7  11  8
7  14  8
9  10  8

$$$$

