17395407
  -OEChem-06241222502D

 53 57  0     0  0  0  0  0  0999 V2000
    5.4050   -1.3573    0.0000 O   0  0  0  0  0  0  0  0  0  0  0  0
    3.6730   -1.3573    0.0000 N   0  0  0  0  0  0  0  0  0  0  0  0
    6.2711    3.1427    0.0000 N   0  0  0  0  0  0  0  0  0  0  0  0
    4.5390    3.1427    0.0000 N   0  0  0  0  0  0  0  0  0  0  0  0
    7.0081    3.8098    0.0000 N   0  0  0  0  0  0  0  0  0  0  0  0
    5.6142    4.6145    0.0000 N   0  0  0  0  0  0  0  0  0  0  0  0
    3.6730   -2.3573    0.0000 C   0  0  0  0  0  0  0  0  0  0  0  0
    2.9819   -4.2408    0.0000 C   0  0  0  0  0  0  0  0  0  0  0  0
    2.8368   -3.8056    0.0000 C   0  0  0  0  0  0  0  0  0  0  0  0
    4.5092   -3.8056    0.0000 C   0  0  0  0  0  0  0  0  0  0  0  0
    4.5092   -2.8401    0.0000 C   0  0  0  0  0  0  0  0  0  0  0  0
    2.8368   -2.8401    0.0000 C   0  0  0  0  0  0  0  0  0  0  0  0
    2.9819   -3.1954    0.0000 C   0  0  0  0  0  0  0  0  0  0  0  0
    3.6730   -4.1084    0.0000 C   0  0  0  0  0  0  0  0  0  0  0  0
    3.8876   -4.7176    0.0000 C   0  0  0  0  0  0  0  0  0  0  0  0
    2.0000   -4.2884    0.0000 C   0  0  0  0  0  0  0  0  0  0  0  0
    4.5390   -0.8573    0.0000 C   0  0  0  0  0  0  0  0  0  0  0  0
    4.5390    0.1427    0.0000 C   0  0  0  0  0  0  0  0  0  0  0  0
    5.4050    0.6427    0.0000 C   0  0  0  0  0  0  0  0  0  0  0  0
    5.4050    1.6427    0.0000 C   0  0  0  0  0  0  0  0  0  0  0  0
    6.2711    2.1427    0.0000 C   0  0  0  0  0  0  0  0  0  0  0  0
    4.5390    2.1427    0.0000 C   0  0  0  0  0  0  0  0  0  0  0  0
    7.1371    1.6427    0.0000 C   0  0  0  0  0  0  0  0  0  0  0  0
    3.6730    1.6427    0.0000 C   0  0  0  0  0  0  0  0  0  0  0  0
    5.4050    3.6427    0.0000 C   0  0  0  0  0  0  0  0  0  0  0  0
    6.6030    4.7176    0.0000 C   0  0  0  0  0  0  0  0  0  0  0  0
    5.1016   -3.9884    0.0000 H   0  0  0  0  0  0  0  0  0  0  0  0
    2.8912   -4.4232    0.0000 H   0  0  0  0  0  0  0  0  0  0  0  0
    2.8478   -4.8461    0.0000 H   0  0  0  0  0  0  0  0  0  0  0  0
    5.1198   -2.9478    0.0000 H   0  0  0  0  0  0  0  0  0  0  0  0
    4.7212   -2.2575    0.0000 H   0  0  0  0  0  0  0  0  0  0  0  0
    2.6247   -2.2575    0.0000 H   0  0  0  0  0  0  0  0  0  0  0  0
    2.2262   -2.9478    0.0000 H   0  0  0  0  0  0  0  0  0  0  0  0
    2.6383   -2.6794    0.0000 H   0  0  0  0  0  0  0  0  0  0  0  0
    2.3885   -3.3750    0.0000 H   0  0  0  0  0  0  0  0  0  0  0  0
    1.5188   -3.8975    0.0000 H   0  0  0  0  0  0  0  0  0  0  0  0
    1.8068   -4.8776    0.0000 H   0  0  0  0  0  0  0  0  0  0  0  0
    3.3030   -4.6060    0.0000 H   0  0  0  0  0  0  0  0  0  0  0  0
    4.0430   -4.6059    0.0000 H   0  0  0  0  0  0  0  0  0  0  0  0
    3.5782   -5.2548    0.0000 H   0  0  0  0  0  0  0  0  0  0  0  0
    4.4127   -5.0471    0.0000 H   0  0  0  0  0  0  0  0  0  0  0  0
    3.1361   -1.0473    0.0000 H   0  0  0  0  0  0  0  0  0  0  0  0
    4.3270    0.7253    0.0000 H   0  0  0  0  0  0  0  0  0  0  0  0
    3.9284    0.0350    0.0000 H   0  0  0  0  0  0  0  0  0  0  0  0
    5.6171    0.0601    0.0000 H   0  0  0  0  0  0  0  0  0  0  0  0
    6.0156    0.7503    0.0000 H   0  0  0  0  0  0  0  0  0  0  0  0
    6.8271    1.1058    0.0000 H   0  0  0  0  0  0  0  0  0  0  0  0
    7.6740    1.3327    0.0000 H   0  0  0  0  0  0  0  0  0  0  0  0
    7.4471    2.1796    0.0000 H   0  0  0  0  0  0  0  0  0  0  0  0
    3.3630    2.1796    0.0000 H   0  0  0  0  0  0  0  0  0  0  0  0
    3.1360    1.3327    0.0000 H   0  0  0  0  0  0  0  0  0  0  0  0
    3.9830    1.1057    0.0000 H   0  0  0  0  0  0  0  0  0  0  0  0
    6.9130    5.2545    0.0000 H   0  0  0  0  0  0  0  0  0  0  0  0
  1 17  2  0  0  0  0
  2  7  1  0  0  0  0
  2 17  1  0  0  0  0
  2 42  1  0  0  0  0
  3  5  1  0  0  0  0
  3 21  1  0  0  0  0
  3 25  1  0  0  0  0
  4 22  2  0  0  0  0
  4 25  1  0  0  0  0
  5 26  2  0  0  0  0
  6 25  2  0  0  0  0
  6 26  1  0  0  0  0
  7 11  1  0  0  0  0
  7 12  1  0  0  0  0
  7 13  1  0  0  0  0
  8 13  1  0  0  0  0
  8 15  1  0  0  0  0
  8 16  1  0  0  0  0
  8 29  1  0  0  0  0
  9 12  1  0  0  0  0
  9 14  1  0  0  0  0
  9 16  1  0  0  0  0
  9 28  1  0  0  0  0
 10 11  1  0  0  0  0
 10 14  1  0  0  0  0
 10 15  1  0  0  0  0
 10 27  1  0  0  0  0
 11 30  1  0  0  0  0
 11 31  1  0  0  0  0
 12 32  1  0  0  0  0
 12 33  1  0  0  0  0
 13 34  1  0  0  0  0
 13 35  1  0  0  0  0
 14 38  1  0  0  0  0
 14 39  1  0  0  0  0
 15 40  1  0  0  0  0
 15 41  1  0  0  0  0
 16 36  1  0  0  0  0
 16 37  1  0  0  0  0
 17 18  1  0  0  0  0
 18 19  1  0  0  0  0
 18 43  1  0  0  0  0
 18 44  1  0  0  0  0
 19 20  1  0  0  0  0
 19 45  1  0  0  0  0
 19 46  1  0  0  0  0
 20 21  2  0  0  0  0
 20 22  1  0  0  0  0
 21 23  1  0  0  0  0
 22 24  1  0  0  0  0
 23 47  1  0  0  0  0
 23 48  1  0  0  0  0
 23 49  1  0  0  0  0
 24 50  1  0  0  0  0
 24 51  1  0  0  0  0
 24 52  1  0  0  0  0
 26 53  1  0  0  0  0
M  END
> <PUBCHEM_COMPOUND_CID>
17395407

> <PUBCHEM_COMPOUND_CANONICALIZED>
1

> <PUBCHEM_CACTVS_COMPLEXITY>
525

> <PUBCHEM_CACTVS_HBOND_ACCEPTOR>
4

> <PUBCHEM_CACTVS_HBOND_DONOR>
1

> <PUBCHEM_CACTVS_ROTATABLE_BOND>
4

> <PUBCHEM_CACTVS_SUBSKEYS>
AAADceB7oAAAAAAAAAAAAAAAAAAAAWAAAAA8YMGCAAAAAFgB4AAAHgAYAAAADYiBngQHkJbIEACqAwVxdACQhCsxgKAVWCE4RBiAKBJA2NCEhAhonALISCMYicAeAAAAAAAAAAAAAASAAAAAAAAAAAAAAA==

> <PUBCHEM_IUPAC_OPENEYE_NAME>
N-(1-adamantyl)-3-(5,7-dimethyl-[1,2,4]triazolo[1,5-a]pyrimidin-6-yl)propanamide

> <PUBCHEM_IUPAC_CAS_NAME>
N-(1-adamantyl)-3-(5,7-dimethyl-[1,2,4]triazolo[1,5-a]pyrimidin-6-yl)propanamide

> <PUBCHEM_IUPAC_NAME>
N-(1-adamantyl)-3-(5,7-dimethyl-[1,2,4]triazolo[1,5-a]pyrimidin-6-yl)propanamide

> <PUBCHEM_IUPAC_SYSTEMATIC_NAME>
N-(1-adamantyl)-3-(5,7-dimethyl-[1,2,4]triazolo[1,5-a]pyrimidin-6-yl)propanamide

> <PUBCHEM_IUPAC_TRADITIONAL_NAME>
N-(1-adamantyl)-3-(5,7-dimethyl-[1,2,4]triazolo[1,5-a]pyrimidin-6-yl)propionamide

> <PUBCHEM_IUPAC_INCHI>
InChI=1S/C20H27N5O/c1-12-17(13(2)25-19(23-12)21-11-22-25)3-4-18(26)24-20-8-14-5-15(9-20)7-16(6-14)10-20/h11,14-16H,3-10H2,1-2H3,(H,24,26)

> <PUBCHEM_IUPAC_INCHIKEY>
CZKLAMABOKMOHT-UHFFFAOYSA-N

> <PUBCHEM_XLOGP3_AA>
3.1

> <PUBCHEM_EXACT_MASS>
353.221561

> <PUBCHEM_MOLECULAR_FORMULA>
C20H27N5O

> <PUBCHEM_MOLECULAR_WEIGHT>
353.46128

> <PUBCHEM_OPENEYE_CAN_SMILES>
CC1=C(C(=NC2=NC=NN12)C)CCC(=O)NC34CC5CC(C3)CC(C5)C4

> <PUBCHEM_OPENEYE_ISO_SMILES>
CC1=C(C(=NC2=NC=NN12)C)CCC(=O)NC34CC5CC(C3)CC(C5)C4

> <PUBCHEM_CACTVS_TPSA>
72.2

> <PUBCHEM_MONOISOTOPIC_WEIGHT>
353.221561

> <PUBCHEM_TOTAL_CHARGE>
0

> <PUBCHEM_HEAVY_ATOM_COUNT>
26

> <PUBCHEM_ATOM_DEF_STEREO_COUNT>
0

> <PUBCHEM_ATOM_UDEF_STEREO_COUNT>
0

> <PUBCHEM_BOND_DEF_STEREO_COUNT>
0

> <PUBCHEM_BOND_UDEF_STEREO_COUNT>
0

> <PUBCHEM_ISOTOPIC_ATOM_COUNT>
0

> <PUBCHEM_COMPONENT_COUNT>
1

> <PUBCHEM_CACTVS_TAUTO_COUNT>
2

> <PUBCHEM_COORDINATE_TYPE>
1
5
255

> <PUBCHEM_BONDANNOTATIONS>
20  21  8
20  22  8
3  21  8
3  25  8
3  5  8
4  22  8
4  25  8
5  26  8
6  25  8
6  26  8

$$$$

