131900
  -OEChem-07051213002D

 76 81  0     1  0  0  0  0  0999 V2000
    2.2505    0.0368    0.0000 O   0  0  0  0  0  0  0  0  0  0  0  0
    8.7401    3.7131    0.0000 O   0  0  0  0  0  0  0  0  0  0  0  0
    2.8823   -3.6812    0.0000 O   0  0  0  0  0  0  0  0  0  0  0  0
    9.1562    1.2859    0.0000 N   0  0  3  0  0  0  0  0  0  0  0  0
    5.2923   -0.2682    0.0000 C   0  0  1  0  0  0  0  0  0  0  0  0
    6.4902    0.8067    0.0000 C   0  0  1  0  0  0  0  0  0  0  0  0
    4.8871    0.6396    0.0000 C   0  0  2  0  0  0  0  0  0  0  0  0
    5.6242    1.3067    0.0000 C   0  0  2  0  0  0  0  0  0  0  0  0
    4.6974   -1.1157    0.0000 C   0  0  2  0  0  0  0  0  0  0  0  0
    6.2810   -0.1651    0.0000 C   0  0  0  0  0  0  0  0  0  0  0  0
    7.3562    1.3067    0.0000 C   0  0  1  0  0  0  0  0  0  0  0  0
    7.3562    2.3067    0.0000 C   0  0  2  0  0  0  0  0  0  0  0  0
    3.6667   -1.0163    0.0000 C   0  0  1  0  0  0  0  0  0  0  0  0
    3.8590    0.7628    0.0000 C   0  0  0  0  0  0  0  0  0  0  0  0
    5.6242    2.3067    0.0000 C   0  0  0  0  0  0  0  0  0  0  0  0
    3.2447   -0.0707    0.0000 C   0  0  2  0  0  0  0  0  0  0  0  0
    6.4902    2.8067    0.0000 C   0  0  0  0  0  0  0  0  0  0  0  0
    8.2502    2.8414    0.0000 C   0  0  1  0  0  0  0  0  0  0  0  0
    5.1596   -2.0902    0.0000 C   0  0  0  0  0  0  0  0  0  0  0  0
    8.2502    0.7720    0.0000 C   0  0  0  0  0  0  0  0  0  0  0  0
    9.1562    2.3275    0.0000 C   0  0  2  0  0  0  0  0  0  0  0  0
    3.0267   -1.8845    0.0000 C   0  0  0  0  0  0  0  0  0  0  0  0
    5.6927   -1.2117    0.0000 C   0  0  0  0  0  0  0  0  0  0  0  0
    4.5399   -2.9730    0.0000 C   0  0  0  0  0  0  0  0  0  0  0  0
    3.4663   -2.8694    0.0000 C   0  0  2  0  0  0  0  0  0  0  0  0
   10.0874    2.8844    0.0000 C   0  0  0  0  0  0  0  0  0  0  0  0
    7.7402    3.7016    0.0000 C   0  0  0  0  0  0  0  0  0  0  0  0
   10.0874    0.7290    0.0000 C   0  0  0  0  0  0  0  0  0  0  0  0
   11.0312    1.2642    0.0000 C   0  0  2  0  0  0  0  0  0  0  0  0
   11.0312    2.3492    0.0000 C   0  0  0  0  0  0  0  0  0  0  0  0
   11.8953    0.7609    0.0000 C   0  0  0  0  0  0  0  0  0  0  0  0
    5.7229   -1.0010    0.0000 H   0  0  0  0  0  0  0  0  0  0  0  0
    7.1772    0.3062    0.0000 H   0  0  0  0  0  0  0  0  0  0  0  0
    4.6293    1.4496    0.0000 H   0  0  0  0  0  0  0  0  0  0  0  0
    4.8472    1.6514    0.0000 H   0  0  0  0  0  0  0  0  0  0  0  0
    6.2801   -0.7851    0.0000 H   0  0  0  0  0  0  0  0  0  0  0  0
    6.8974   -0.2312    0.0000 H   0  0  0  0  0  0  0  0  0  0  0  0
    7.3497    0.4567    0.0000 H   0  0  0  0  0  0  0  0  0  0  0  0
    7.3497    3.1567    0.0000 H   0  0  0  0  0  0  0  0  0  0  0  0
    2.8216   -0.9249    0.0000 H   0  0  0  0  0  0  0  0  0  0  0  0
    4.0371    1.3567    0.0000 H   0  0  0  0  0  0  0  0  0  0  0  0
    3.3044    1.0398    0.0000 H   0  0  0  0  0  0  0  0  0  0  0  0
    5.4121    2.8893    0.0000 H   0  0  0  0  0  0  0  0  0  0  0  0
    5.0136    2.1990    0.0000 H   0  0  0  0  0  0  0  0  0  0  0  0
    2.8797   -0.5719    0.0000 H   0  0  0  0  0  0  0  0  0  0  0  0
    6.8887    3.2816    0.0000 H   0  0  0  0  0  0  0  0  0  0  0  0
    6.0917    3.2816    0.0000 H   0  0  0  0  0  0  0  0  0  0  0  0
    7.8456    0.3023    0.0000 H   0  0  0  0  0  0  0  0  0  0  0  0
    8.6438    0.2930    0.0000 H   0  0  0  0  0  0  0  0  0  0  0  0
    5.5986   -2.5280    0.0000 H   0  0  0  0  0  0  0  0  0  0  0  0
    5.6660   -1.7326    0.0000 H   0  0  0  0  0  0  0  0  0  0  0  0
    9.1464    3.1775    0.0000 H   0  0  0  0  0  0  0  0  0  0  0  0
    2.5980   -1.4367    0.0000 H   0  0  0  0  0  0  0  0  0  0  0  0
    2.5122   -2.2303    0.0000 H   0  0  0  0  0  0  0  0  0  0  0  0
    5.6332   -1.8288    0.0000 H   0  0  0  0  0  0  0  0  0  0  0  0
    6.3099   -1.2712    0.0000 H   0  0  0  0  0  0  0  0  0  0  0  0
    5.7522   -0.5945    0.0000 H   0  0  0  0  0  0  0  0  0  0  0  0
    4.3756   -3.5708    0.0000 H   0  0  0  0  0  0  0  0  0  0  0  0
    5.1008   -3.2371    0.0000 H   0  0  0  0  0  0  0  0  0  0  0  0
    3.7222   -3.4342    0.0000 H   0  0  0  0  0  0  0  0  0  0  0  0
   10.4810    3.3634    0.0000 H   0  0  0  0  0  0  0  0  0  0  0  0
    9.6828    3.3542    0.0000 H   0  0  0  0  0  0  0  0  0  0  0  0
    8.2735    4.0177    0.0000 H   0  0  0  0  0  0  0  0  0  0  0  0
    7.4240    4.2349    0.0000 H   0  0  0  0  0  0  0  0  0  0  0  0
    7.2069    3.3854    0.0000 H   0  0  0  0  0  0  0  0  0  0  0  0
    9.6828    0.2592    0.0000 H   0  0  0  0  0  0  0  0  0  0  0  0
   10.4810    0.2499    0.0000 H   0  0  0  0  0  0  0  0  0  0  0  0
   11.5687    1.5732    0.0000 H   0  0  0  0  0  0  0  0  0  0  0  0
   11.6420    2.2431    0.0000 H   0  0  0  0  0  0  0  0  0  0  0  0
   11.2402    2.9329    0.0000 H   0  0  0  0  0  0  0  0  0  0  0  0
    2.0000    0.6040    0.0000 H   0  0  0  0  0  0  0  0  0  0  0  0
    8.4239    4.2464    0.0000 H   0  0  0  0  0  0  0  0  0  0  0  0
    3.1372   -4.2464    0.0000 H   0  0  0  0  0  0  0  0  0  0  0  0
   11.5832    0.2251    0.0000 H   0  0  0  0  0  0  0  0  0  0  0  0
   12.4310    0.4488    0.0000 H   0  0  0  0  0  0  0  0  0  0  0  0
   12.2073    1.2966    0.0000 H   0  0  0  0  0  0  0  0  0  0  0  0
 16  1  1  1  0  0  0
  1 71  1  0  0  0  0
 18  2  1  6  0  0  0
  2 72  1  0  0  0  0
 25  3  1  6  0  0  0
  3 73  1  0  0  0  0
  4 20  1  0  0  0  0
  4 21  1  0  0  0  0
  4 28  1  0  0  0  0
  5  7  1  0  0  0  0
  5  9  1  0  0  0  0
  5 10  1  0  0  0  0
  5 32  1  1  0  0  0
  6  8  1  0  0  0  0
  6 10  1  0  0  0  0
  6 11  1  0  0  0  0
  6 33  1  1  0  0  0
  7  8  1  0  0  0  0
  7 14  1  0  0  0  0
  7 34  1  6  0  0  0
  8 15  1  0  0  0  0
  8 35  1  1  0  0  0
  9 13  1  0  0  0  0
  9 19  1  0  0  0  0
  9 23  1  6  0  0  0
 10 36  1  0  0  0  0
 10 37  1  0  0  0  0
 11 12  1  0  0  0  0
 11 20  1  0  0  0  0
 11 38  1  6  0  0  0
 12 17  1  0  0  0  0
 12 18  1  0  0  0  0
 12 39  1  1  0  0  0
 13 16  1  0  0  0  0
 13 22  1  0  0  0  0
 13 40  1  1  0  0  0
 14 16  1  0  0  0  0
 14 41  1  0  0  0  0
 14 42  1  0  0  0  0
 15 17  1  0  0  0  0
 15 43  1  0  0  0  0
 15 44  1  0  0  0  0
 16 45  1  0  0  0  0
 17 46  1  0  0  0  0
 17 47  1  0  0  0  0
 18 21  1  0  0  0  0
 18 27  1  0  0  0  0
 19 24  1  0  0  0  0
 19 50  1  0  0  0  0
 19 51  1  0  0  0  0
 20 48  1  0  0  0  0
 20 49  1  0  0  0  0
 21 26  1  0  0  0  0
 21 52  1  1  0  0  0
 22 25  1  0  0  0  0
 22 53  1  0  0  0  0
 22 54  1  0  0  0  0
 23 55  1  0  0  0  0
 23 56  1  0  0  0  0
 23 57  1  0  0  0  0
 24 25  1  0  0  0  0
 24 58  1  0  0  0  0
 24 59  1  0  0  0  0
 25 60  1  0  0  0  0
 26 30  1  0  0  0  0
 26 61  1  0  0  0  0
 26 62  1  0  0  0  0
 27 63  1  0  0  0  0
 27 64  1  0  0  0  0
 27 65  1  0  0  0  0
 28 29  1  0  0  0  0
 28 66  1  0  0  0  0
 28 67  1  0  0  0  0
 29 30  1  0  0  0  0
 29 31  1  6  0  0  0
 29 68  1  0  0  0  0
 30 69  1  0  0  0  0
 30 70  1  0  0  0  0
 31 74  1  0  0  0  0
 31 75  1  0  0  0  0
 31 76  1  0  0  0  0
M  END
> <PUBCHEM_COMPOUND_CID>
131900

> <PUBCHEM_COMPOUND_CANONICALIZED>
1

> <PUBCHEM_CACTVS_COMPLEXITY>
715

> <PUBCHEM_CACTVS_HBOND_ACCEPTOR>
4

> <PUBCHEM_CACTVS_HBOND_DONOR>
3

> <PUBCHEM_CACTVS_ROTATABLE_BOND>
0

> <PUBCHEM_CACTVS_SUBSKEYS>
AAADcfB6MAAAAAAAAAAAAAAAAAAAAYAAAAA8eMECAAAAAGDwAAAAHgAACAAAD3zhgAYCAAMAAgAAAAAAAAAAAAAAAAAAAAAIAAACEAIAgAAEQAAEAACQAAHwwPAPgAAAAAAAAADAAAYAADAAAQAACAAAAA==

> <PUBCHEM_IUPAC_INCHI>
InChI=1S/C27H45NO3/c1-15-4-7-25-27(3,31)21-6-5-17-18(20(21)14-28(25)13-15)11-22-19(17)12-24(30)23-10-16(29)8-9-26(22,23)2/h15-25,29-31H,4-14H2,1-3H3/t15-,16-,17+,18+,19-,20-,21-,22-,23+,24-,25-,26+,27-/m0/s1

> <PUBCHEM_IUPAC_INCHIKEY>
IUKLSMSEHKDIIP-BZMYINFQSA-N

> <PUBCHEM_XLOGP3_AA>
4.1

> <PUBCHEM_EXACT_MASS>
431.339944

> <PUBCHEM_MOLECULAR_FORMULA>
C27H45NO3

> <PUBCHEM_MOLECULAR_WEIGHT>
431.6511

> <PUBCHEM_OPENEYE_CAN_SMILES>
CC1CCC2C(C3CCC4C(C3CN2C1)CC5C4CC(C6C5(CCC(C6)O)C)O)(C)O

> <PUBCHEM_OPENEYE_ISO_SMILES>
C[C@H]1CC[C@H]2[C@@]([C@H]3CC[C@@H]4[C@H]([C@@H]3CN2C1)C[C@H]5[C@H]4C[C@@H]([C@@H]6[C@@]5(CC[C@@H](C6)O)C)O)(C)O

> <PUBCHEM_CACTVS_TPSA>
63.9

> <PUBCHEM_MONOISOTOPIC_WEIGHT>
431.339944

> <PUBCHEM_TOTAL_CHARGE>
0

> <PUBCHEM_HEAVY_ATOM_COUNT>
31

> <PUBCHEM_ATOM_DEF_STEREO_COUNT>
13

> <PUBCHEM_ATOM_UDEF_STEREO_COUNT>
0

> <PUBCHEM_BOND_DEF_STEREO_COUNT>
0

> <PUBCHEM_BOND_UDEF_STEREO_COUNT>
0

> <PUBCHEM_ISOTOPIC_ATOM_COUNT>
0

> <PUBCHEM_COMPONENT_COUNT>
1

> <PUBCHEM_CACTVS_TAUTO_COUNT>
1

> <PUBCHEM_COORDINATE_TYPE>
1
5
255

> <PUBCHEM_BONDANNOTATIONS>
16  1  5
11  38  6
12  39  5
13  40  5
18  2  6
21  52  5
29  31  6
25  3  6
5  32  5
6  33  5
7  34  6
8  35  5
9  23  6

$$$$

