   Chemical and Physical Properties References

   [1]USDA ARS - USDA chemical properties
   from [2]ChemIDplus

   Color/Form

     * White to yellow crystalline powder /SRP: yellow color is phenolic
       impurities/
     * Colorless powder
     * White to yellow, crystalline ... powder.
     * Crystals from benzene

   from [3]HSDB

   Odor

     * ODORLESS WHEN PURE
     * A slight phenolic odor

   from [4]HSDB

   Boiling Point
        160 deg C @ 0.4 mm Hg
   from [5]HSDB

   Melting Point
        138 deg C
   from [6]HSDB

   Corrosivity

     * Free acid is corrosive to metals.
     * Most formulations are noncorrosive to spray equipment although some
       concentrates may be deleterious to painted surfaces.

   from [7]HSDB

   Density/Specific Gravity
        1.42 @ 25 deg C
   from [8]HSDB

   Dissociation Constants
        pKa= 2.73
   from [9]HSDB

   Heat of Combustion
        -7700 BTU/lb= -4300 cal/g= -180X10+5 J/kg
   from [10]HSDB

   Octanol/Water Partition Coefficient
        log Kow= 2.81
   from [11]HSDB

   Solubilities

     * 67.3 g/400 ml acetone at 25 deg C; 0.94 g/100 ml benzene at 28 deg
       C; 0.63 g/100 ml carbon disulfide at 29 deg C; 0.16 g/100 ml carbon
       tetrachloride at 25 deg C; 0.08 g/100 ml diesel oil and kerosene at
       25 deg C; 78.5 g/100 ml dioxane at 31 deg C; 10.3 g/100 ml ethanol
       (50%) at 25 deg C; 100 g/100 ml ethyl alcohol (95%) at 25 deg C;
       27.0 g/100 ml ethyl ether at 25 deg C; 24.8 g/100 ml isopropanol at
       31 deg C; 25 g/100 ml methyl isobutyl ketone at 25 deg C; 0.52
       g/100 ml ortho-dichlorobenzene at 25 deg C; 0.058 g/100 ml toluene
       at 25 deg C
     * INSOL IN PETROLEUM OILS
     * 1.1 g/kg n-heptane at 20 deg C
     * 540 PPM IN WATER AT 20 DEG C
     * In water, 677 ppm @ 25 deg C.

   from [12]HSDB

   Spectral Properties

     * SADTLER REF NUMBER: 13141 (IR, PRISM); 8174 (IR, GRATING); MAX
       ABSORPTION (WATER, 0.1 N HCL): 282 NM (LOG E= 3.26); 289 NM (LOG E=
       3.20) SHOULDER
     * The undissociated molecule in 0.1 M hydrochloric acid has a molar
       absorptivity of 1820 molar/cm at 282 nm; the anion in 0.01 M
       phosphate buffer is 2070 at 283.5 nm.
     * IR: 2221 (Coblentz Society Spectral Collection)
     * UV: 3427 (Sadtler Research Laboratories Spectral Collection)
     * 1H-NMR: 10803 (Sadtler Research Laboratories Spectral Collection)
     * MASS: 52494 (NIST/EPA/MSDC Mass Spectral Database 1990 Version)
     * Intense mass spectral peaks: 162 m/z (100%), 164 m/z (69%), 220 m/z
       (61%), 222 m/z (39%)
     * Intense mass spectral peaks: 111 m/z, 133 m/z, 175 m/z

   from [13]HSDB

   Surface Tension
        66.5 dyne/cm at 25 deg C and pH 1.4
   from [14]HSDB

   Vapor Pressure
        8.25X10-8 mm Hg @ 20 deg C (1.1X10-2 mPa @ 20 deg C)
   from [15]HSDB

   Other Chemical/Physical Properties

     * Percent adsorbed by 10 mg activated carbon from 1X10-4 M aqueous
       solution @ pH 3.0: 60.1%; @ pH 7.0: 18.8%; at pH 11.0: 14.3%.
     * NON-HYGROSCOPIC
     * polarizability= 227.4; Latent heat of fusion= 5.6 kcal/mol; Dipole
       moment= 3.33 debye
     * Proton NMR: Free 2,4-D in CD3OD shows no free H downfield of the
       aromatic absorptions, but shows an exchange peak with CD3OD at 5.13
       ppm relative to TMS. The CH2 group absorbs at 4.72 ppm, H-3 /of the
       ring/ at 7.35, H-5 at 7.12, and H-6 at 6.90 ppm.
     * Henry's Law constant = 8.6X10-6 atm-cu m/mole @ 20 deg C

   from [16]HSDB

   Computed Properties
   Molecular Weight                  221.03744 [g/mol]
   Molecular Formula                 C[8]H[6]Cl[2]O[3]
   XLogP3                            2.8
   H-Bond Donor                      1
   H-Bond Acceptor                   3
   Rotatable Bond Count              3
   Exact Mass                        219.969399
   MonoIsotopic Mass                 219.969399
   Topological Polar Surface Area    46.5
   Heavy Atom Count                  13
   Formal Charge                     0
   Complexity                        186
   Isotope Atom Count                0
   Defined Atom Stereocenter Count   0
   Undefined Atom Stereocenter Count 0
   Defined Bond Stereocenter Count   0
   Undefined Bond Stereocenter Count 0
   Covalently-Bonded Unit Count      1
   Feature 3D Acceptor Count         3
   Feature 3D Anion Count            1
   Feature 3D Ring Count             1
   Effective Rotor Count             3
   Conformer Sampling RMSD           0.6
   CID Conformer Count               [17]26

References

   1. http://www.ars.usda.gov/SP2UserFiles/ad_hoc/12755100DatabaseFiles/PesticidePropertiesDatabase/IndividualPesticideFiles/2,4-D-ACID.TXT
   2. http://chem.sis.nlm.nih.gov/chemidplus/
   3. http://toxnet.nlm.nih.gov/cgi-bin/sis/search/r?dbs+hsdb:@term+@rn+@rel+94-75-7
   4. http://toxnet.nlm.nih.gov/cgi-bin/sis/search/r?dbs+hsdb:@term+@rn+@rel+94-75-7
   5. http://toxnet.nlm.nih.gov/cgi-bin/sis/search/r?dbs+hsdb:@term+@rn+@rel+94-75-7
   6. http://toxnet.nlm.nih.gov/cgi-bin/sis/search/r?dbs+hsdb:@term+@rn+@rel+94-75-7
   7. http://toxnet.nlm.nih.gov/cgi-bin/sis/search/r?dbs+hsdb:@term+@rn+@rel+94-75-7
   8. http://toxnet.nlm.nih.gov/cgi-bin/sis/search/r?dbs+hsdb:@term+@rn+@rel+94-75-7
   9. http://toxnet.nlm.nih.gov/cgi-bin/sis/search/r?dbs+hsdb:@term+@rn+@rel+94-75-7
  10. http://toxnet.nlm.nih.gov/cgi-bin/sis/search/r?dbs+hsdb:@term+@rn+@rel+94-75-7
  11. http://toxnet.nlm.nih.gov/cgi-bin/sis/search/r?dbs+hsdb:@term+@rn+@rel+94-75-7
  12. http://toxnet.nlm.nih.gov/cgi-bin/sis/search/r?dbs+hsdb:@term+@rn+@rel+94-75-7
  13. http://toxnet.nlm.nih.gov/cgi-bin/sis/search/r?dbs+hsdb:@term+@rn+@rel+94-75-7
  14. http://toxnet.nlm.nih.gov/cgi-bin/sis/search/r?dbs+hsdb:@term+@rn+@rel+94-75-7
  15. http://toxnet.nlm.nih.gov/cgi-bin/sis/search/r?dbs+hsdb:@term+@rn+@rel+94-75-7
  16. http://toxnet.nlm.nih.gov/cgi-bin/sis/search/r?dbs+hsdb:@term+@rn+@rel+94-75-7
  17. http://pubchem.ncbi.nlm.nih.gov/vw3d/vw3d.cgi?cid=1486
