162733
  -OEChem-07051213032D

 40 34  0     0  0  0  0  0  0999 V2000
    7.5080    3.6200    0.0000 Al  0  1  0  0  0  0  0  0  0  0  0  0
    1.4030    5.2417    0.0000 Mg  0  2  0  0  0  0  0  0  0  0  0  0
    7.2395    8.9046    0.0000 O   0  0  0  0  0  0  0  0  0  0  0  0
    9.8376   10.4046    0.0000 O   0  0  0  0  0  0  0  0  0  0  0  0
    8.1055   10.4046    0.0000 O   0  0  0  0  0  0  0  0  0  0  0  0
    6.3735    7.4046    0.0000 O   0  0  0  0  0  0  0  0  0  0  0  0
    7.5080    2.6200    0.0000 O   0  5  0  0  0  0  0  0  0  0  0  0
    5.7759    2.6200    0.0000 O   0  0  0  0  0  0  0  0  0  0  0  0
    8.3740    4.1200    0.0000 O   0  5  0  0  0  0  0  0  0  0  0  0
    6.6419    4.1200    0.0000 O   0  5  0  0  0  0  0  0  0  0  0  0
   10.1060    4.1200    0.0000 O   0  0  0  0  0  0  0  0  0  0  0  0
    2.2690    5.7417    0.0000 O   0  5  0  0  0  0  0  0  0  0  0  0
    0.5369    5.7417    0.0000 O   0  5  0  0  0  0  0  0  0  0  0  0
    5.7759    0.6200    0.0000 N   0  0  0  0  0  0  0  0  0  0  0  0
    8.9715    8.9046    0.0000 C   0  0  0  0  0  0  0  0  0  0  0  0
    8.1055    8.4046    0.0000 C   0  0  0  0  0  0  0  0  0  0  0  0
    9.8376    8.4046    0.0000 C   0  0  0  0  0  0  0  0  0  0  0  0
    8.1055    7.4046    0.0000 C   0  0  0  0  0  0  0  0  0  0  0  0
    9.8376    7.4046    0.0000 C   0  0  0  0  0  0  0  0  0  0  0  0
    8.9715    6.9046    0.0000 C   0  0  0  0  0  0  0  0  0  0  0  0
    8.9715    9.9046    0.0000 C   0  0  0  0  0  0  0  0  0  0  0  0
    6.3735    8.4046    0.0000 C   0  0  0  0  0  0  0  0  0  0  0  0
    5.5074    8.9046    0.0000 C   0  0  0  0  0  0  0  0  0  0  0  0
    6.6419    1.1200    0.0000 C   0  0  0  0  0  0  0  0  0  0  0  0
    6.6419    2.1200    0.0000 C   0  0  0  0  0  0  0  0  0  0  0  0
    9.2400    3.6200    0.0000 C   0  0  0  0  0  0  0  0  0  0  0  0
   10.3745    8.7146    0.0000 H   0  0  0  0  0  0  0  0  0  0  0  0
    7.5686    7.0946    0.0000 H   0  0  0  0  0  0  0  0  0  0  0  0
   10.3745    7.0946    0.0000 H   0  0  0  0  0  0  0  0  0  0  0  0
    8.9715    6.2846    0.0000 H   0  0  0  0  0  0  0  0  0  0  0  0
    5.8174    9.4415    0.0000 H   0  0  0  0  0  0  0  0  0  0  0  0
    4.9705    9.2146    0.0000 H   0  0  0  0  0  0  0  0  0  0  0  0
    5.1974    8.3676    0.0000 H   0  0  0  0  0  0  0  0  0  0  0  0
    9.8376   11.0246    0.0000 H   0  0  0  0  0  0  0  0  0  0  0  0
    6.8540    0.5374    0.0000 H   0  0  0  0  0  0  0  0  0  0  0  0
    7.2525    1.2277    0.0000 H   0  0  0  0  0  0  0  0  0  0  0  0
    5.7759    0.0000    0.0000 H   0  0  0  0  0  0  0  0  0  0  0  0
    5.2390    0.9300    0.0000 H   0  0  0  0  0  0  0  0  0  0  0  0
    2.8059    5.4317    0.0000 H   0  0  0  0  0  0  0  0  0  0  0  0
    0.0000    5.4317    0.0000 H   0  0  0  0  0  0  0  0  0  0  0  0
  3 16  1  0  0  0  0
  3 22  1  0  0  0  0
  4 21  1  0  0  0  0
  4 34  1  0  0  0  0
  5 21  2  0  0  0  0
  6 22  2  0  0  0  0
  7 25  1  0  0  0  0
  8 25  2  0  0  0  0
  9 26  1  0  0  0  0
 10 26  1  0  0  0  0
 11 26  2  0  0  0  0
 12 39  1  0  0  0  0
 13 40  1  0  0  0  0
 14 24  1  0  0  0  0
 14 37  1  0  0  0  0
 14 38  1  0  0  0  0
 15 16  1  0  0  0  0
 15 17  2  0  0  0  0
 15 21  1  0  0  0  0
 16 18  2  0  0  0  0
 17 19  1  0  0  0  0
 17 27  1  0  0  0  0
 18 20  1  0  0  0  0
 18 28  1  0  0  0  0
 19 20  2  0  0  0  0
 19 29  1  0  0  0  0
 20 30  1  0  0  0  0
 22 23  1  0  0  0  0
 23 31  1  0  0  0  0
 23 32  1  0  0  0  0
 23 33  1  0  0  0  0
 24 25  1  0  0  0  0
 24 35  1  0  0  0  0
 24 36  1  0  0  0  0
M  CHG  7   1   3   2   2   7  -1   9  -1  10  -1  12  -1  13  -1
M  END
> <PUBCHEM_COMPOUND_CID>
162733

> <PUBCHEM_COMPOUND_CANONICALIZED>
1

> <PUBCHEM_CACTVS_COMPLEXITY>
268

> <PUBCHEM_CACTVS_HBOND_ACCEPTOR>
12

> <PUBCHEM_CACTVS_HBOND_DONOR>
4

> <PUBCHEM_CACTVS_ROTATABLE_BOND>
3

> <PUBCHEM_CACTVS_SUBSKEYS>
AAADccByPAAAADAAAAAAAAAAAAAAAAAAAAAwAAAAAAAAAAABAAAAHgAQCAAADATBmAQyDoBABgCIAiDSCAACCAAkIAAIiIGGCMgOJzaENRqCe2Cl4BEIuYeIyCCOAAAAAAAIAAAAAAAAABAAAAAAAAAAAA==

> <PUBCHEM_IUPAC_OPENEYE_NAME>
aluminum; magnesium; 2-acetoxybenzoic acid; 2-aminoacetate; carbonate; dihydroxide

> <PUBCHEM_IUPAC_CAS_NAME>
aluminum; magnesium; 2-acetyloxybenzoic acid; 2-aminoacetate; carbonate; dihydroxide

> <PUBCHEM_IUPAC_NAME>
aluminum; magnesium; 2-acetyloxybenzoic acid; 2-aminoacetate; carbonate; dihydroxide

> <PUBCHEM_IUPAC_SYSTEMATIC_NAME>
aluminum; magnesium; 2-acetyloxybenzoic acid; 2-azanylethanoate; carbonate; dihydroxide

> <PUBCHEM_IUPAC_TRADITIONAL_NAME>
aluminum; magnesium; 2-acetoxybenzoic acid; 2-aminoacetate; carbonate; dihydroxide

> <PUBCHEM_IUPAC_INCHI>
InChI=1S/C9H8O4.C2H5NO2.CH2O3.Al.Mg.2H2O/c1-6(10)13-8-5-3-2-4-7(8)9(11)12;3-1-2(4)5;2-1(3)4;;;;/h2-5H,1H3,(H,11,12);1,3H2,(H,4,5);(H2,2,3,4);;;2*1H2/q;;;+3;+2;;/p-5

> <PUBCHEM_IUPAC_INCHIKEY>
BRJPWEPTDCKYHE-UHFFFAOYSA-I

> <PUBCHEM_EXACT_MASS>
399.023266

> <PUBCHEM_MOLECULAR_FORMULA>
C12H14AlMgNO11

> <PUBCHEM_MOLECULAR_WEIGHT>
399.526199

> <PUBCHEM_OPENEYE_CAN_SMILES>
CC(=O)OC1=CC=CC=C1C(=O)O.C(C(=O)[O-])N.C(=O)([O-])[O-].[OH-].[OH-].[Mg+2].[Al+3]

> <PUBCHEM_OPENEYE_ISO_SMILES>
CC(=O)OC1=CC=CC=C1C(=O)O.C(C(=O)[O-])N.C(=O)([O-])[O-].[OH-].[OH-].[Mg+2].[Al+3]

> <PUBCHEM_CACTVS_TPSA>
195

> <PUBCHEM_MONOISOTOPIC_WEIGHT>
399.023266

> <PUBCHEM_TOTAL_CHARGE>
0

> <PUBCHEM_HEAVY_ATOM_COUNT>
26

> <PUBCHEM_ATOM_DEF_STEREO_COUNT>
0

> <PUBCHEM_ATOM_UDEF_STEREO_COUNT>
0

> <PUBCHEM_BOND_DEF_STEREO_COUNT>
0

> <PUBCHEM_BOND_UDEF_STEREO_COUNT>
0

> <PUBCHEM_ISOTOPIC_ATOM_COUNT>
0

> <PUBCHEM_COMPONENT_COUNT>
7

> <PUBCHEM_CACTVS_TAUTO_COUNT>
1

> <PUBCHEM_COORDINATE_TYPE>
1
5
255

> <PUBCHEM_BONDANNOTATIONS>
15  16  8
15  17  8
16  18  8
17  19  8
18  20  8
19  20  8

$$$$

