261477
  -OEChem-07051212572D

 79 85  0     1  0  0  0  0  0999 V2000
    6.8691    0.8568    0.0000 O   0  0  0  0  0  0  0  0  0  0  0  0
    8.6020    3.8578    0.0000 O   0  0  0  0  0  0  0  0  0  0  0  0
    7.4021    3.3003    0.0000 O   0  0  0  0  0  0  0  0  0  0  0  0
    6.3447    3.2972    0.0000 O   0  0  0  0  0  0  0  0  0  0  0  0
    4.7297   -3.0478    0.0000 O   0  0  0  0  0  0  0  0  0  0  0  0
    2.9968   -4.0478    0.0000 O   0  0  0  0  0  0  0  0  0  0  0  0
    9.4684   -0.6439    0.0000 N   0  0  3  0  0  0  0  0  0  0  0  0
    2.5369    1.3571    0.0000 N   0  0  0  0  0  0  0  0  0  0  0  0
    8.6020   -0.1436    0.0000 C   0  0  2  0  0  0  0  0  0  0  0  0
    8.6020    0.8568    0.0000 C   0  0  0  0  0  0  0  0  0  0  0  0
   10.3349   -0.1436    0.0000 C   0  0  0  0  0  0  0  0  0  0  0  0
    9.4684    1.3571    0.0000 C   0  0  0  0  0  0  0  0  0  0  0  0
   10.3349    0.8568    0.0000 C   0  0  0  0  0  0  0  0  0  0  0  0
    8.1954   -1.0468    0.0000 C   0  0  0  0  0  0  0  0  0  0  0  0
    3.4034    0.8568    0.0000 C   0  0  1  0  0  0  0  0  0  0  0  0
    7.7356    1.3571    0.0000 C   0  0  0  0  0  0  0  0  0  0  0  0
    4.2698    1.3571    0.0000 C   0  0  0  0  0  0  0  0  0  0  0  0
    4.2698    2.3575    0.0000 C   0  0  0  0  0  0  0  0  0  0  0  0
    3.4034    2.8578    0.0000 C   0  0  0  0  0  0  0  0  0  0  0  0
    9.4684   -1.6439    0.0000 C   0  0  0  0  0  0  0  0  0  0  0  0
    9.4684    2.3575    0.0000 C   0  0  0  0  0  0  0  0  0  0  0  0
    2.5369    2.3575    0.0000 C   0  0  0  0  0  0  0  0  0  0  0  0
    2.9968   -0.0464    0.0000 C   0  0  0  0  0  0  0  0  0  0  0  0
    7.3290   -1.5471    0.0000 C   0  0  0  0  0  0  0  0  0  0  0  0
    7.7356    2.3575    0.0000 C   0  0  0  0  0  0  0  0  0  0  0  0
    5.1363    0.8568    0.0000 C   0  0  0  0  0  0  0  0  0  0  0  0
    6.0027    1.3571    0.0000 C   0  0  0  0  0  0  0  0  0  0  0  0
    8.6020    2.8578    0.0000 C   0  0  0  0  0  0  0  0  0  0  0  0
    5.1363    2.8578    0.0000 C   0  0  0  0  0  0  0  0  0  0  0  0
    6.0027    2.3575    0.0000 C   0  0  0  0  0  0  0  0  0  0  0  0
    2.9968   -1.0468    0.0000 C   0  0  0  0  0  0  0  0  0  0  0  0
    6.4626   -1.0468    0.0000 C   0  0  0  0  0  0  0  0  0  0  0  0
    7.3290   -2.5476    0.0000 C   0  0  0  0  0  0  0  0  0  0  0  0
    3.8633   -1.5471    0.0000 C   0  0  0  0  0  0  0  0  0  0  0  0
    5.5961   -1.5471    0.0000 C   0  0  0  0  0  0  0  0  0  0  0  0
    6.4626   -3.0478    0.0000 C   0  0  0  0  0  0  0  0  0  0  0  0
    2.1304   -1.5471    0.0000 C   0  0  0  0  0  0  0  0  0  0  0  0
    5.5961   -2.5476    0.0000 C   0  0  0  0  0  0  0  0  0  0  0  0
    3.8633   -2.5476    0.0000 C   0  0  0  0  0  0  0  0  0  0  0  0
    2.1304   -2.5476    0.0000 C   0  0  0  0  0  0  0  0  0  0  0  0
    2.9968   -3.0478    0.0000 C   0  0  0  0  0  0  0  0  0  0  0  0
    9.4680    4.3578    0.0000 C   0  0  0  0  0  0  0  0  0  0  0  0
    5.7019    4.0633    0.0000 C   0  0  0  0  0  0  0  0  0  0  0  0
    7.7709    0.0348    0.0000 H   0  0  0  0  0  0  0  0  0  0  0  0
   10.5469   -0.7262    0.0000 H   0  0  0  0  0  0  0  0  0  0  0  0
   10.9454   -0.0360    0.0000 H   0  0  0  0  0  0  0  0  0  0  0  0
   10.9454    0.7492    0.0000 H   0  0  0  0  0  0  0  0  0  0  0  0
   10.5469    1.4394    0.0000 H   0  0  0  0  0  0  0  0  0  0  0  0
    8.3235   -1.6535    0.0000 H   0  0  0  0  0  0  0  0  0  0  0  0
    7.7355   -0.6310    0.0000 H   0  0  0  0  0  0  0  0  0  0  0  0
    2.5944    0.5958    0.0000 H   0  0  0  0  0  0  0  0  0  0  0  0
    3.8019    3.3327    0.0000 H   0  0  0  0  0  0  0  0  0  0  0  0
    3.0048    3.3327    0.0000 H   0  0  0  0  0  0  0  0  0  0  0  0
    8.8484   -1.6439    0.0000 H   0  0  0  0  0  0  0  0  0  0  0  0
    9.4684   -2.2639    0.0000 H   0  0  0  0  0  0  0  0  0  0  0  0
   10.0884   -1.6439    0.0000 H   0  0  0  0  0  0  0  0  0  0  0  0
   10.0054    2.6676    0.0000 H   0  0  0  0  0  0  0  0  0  0  0  0
    2.3249    2.9402    0.0000 H   0  0  0  0  0  0  0  0  0  0  0  0
    1.9264    2.2499    0.0000 H   0  0  0  0  0  0  0  0  0  0  0  0
    2.5673    0.4008    0.0000 H   0  0  0  0  0  0  0  0  0  0  0  0
    3.6030   -0.1765    0.0000 H   0  0  0  0  0  0  0  0  0  0  0  0
    2.0000    1.0471    0.0000 H   0  0  0  0  0  0  0  0  0  0  0  0
    5.1363    0.2368    0.0000 H   0  0  0  0  0  0  0  0  0  0  0  0
    5.1363    3.4778    0.0000 H   0  0  0  0  0  0  0  0  0  0  0  0
    6.4626   -0.4268    0.0000 H   0  0  0  0  0  0  0  0  0  0  0  0
    7.8660   -2.8576    0.0000 H   0  0  0  0  0  0  0  0  0  0  0  0
    4.4002   -1.2371    0.0000 H   0  0  0  0  0  0  0  0  0  0  0  0
    5.0592   -1.2371    0.0000 H   0  0  0  0  0  0  0  0  0  0  0  0
    6.4626   -3.6678    0.0000 H   0  0  0  0  0  0  0  0  0  0  0  0
    1.5934   -1.2371    0.0000 H   0  0  0  0  0  0  0  0  0  0  0  0
    7.8049    3.7716    0.0000 H   0  0  0  0  0  0  0  0  0  0  0  0
    1.5934   -2.8576    0.0000 H   0  0  0  0  0  0  0  0  0  0  0  0
    9.7780    3.8209    0.0000 H   0  0  0  0  0  0  0  0  0  0  0  0
   10.0050    4.6678    0.0000 H   0  0  0  0  0  0  0  0  0  0  0  0
    9.1580    4.8947    0.0000 H   0  0  0  0  0  0  0  0  0  0  0  0
    6.1769    4.4618    0.0000 H   0  0  0  0  0  0  0  0  0  0  0  0
    5.3034    4.5382    0.0000 H   0  0  0  0  0  0  0  0  0  0  0  0
    5.2270    3.6648    0.0000 H   0  0  0  0  0  0  0  0  0  0  0  0
    2.4599   -4.3578    0.0000 H   0  0  0  0  0  0  0  0  0  0  0  0
  1 16  1  0  0  0  0
  1 27  1  0  0  0  0
  2 28  1  0  0  0  0
  2 42  1  0  0  0  0
  3 25  1  0  0  0  0
  3 71  1  0  0  0  0
  4 30  1  0  0  0  0
  4 43  1  0  0  0  0
  5 38  1  0  0  0  0
  5 39  1  0  0  0  0
  6 41  1  0  0  0  0
  6 79  1  0  0  0  0
  7  9  1  0  0  0  0
  7 11  1  0  0  0  0
  7 20  1  0  0  0  0
  8 15  1  0  0  0  0
  8 22  1  0  0  0  0
  8 62  1  0  0  0  0
  9 10  1  0  0  0  0
  9 14  1  0  0  0  0
  9 44  1  6  0  0  0
 10 12  1  0  0  0  0
 10 16  2  0  0  0  0
 11 13  1  0  0  0  0
 11 45  1  0  0  0  0
 11 46  1  0  0  0  0
 12 13  1  0  0  0  0
 12 21  2  0  0  0  0
 13 47  1  0  0  0  0
 13 48  1  0  0  0  0
 14 24  1  0  0  0  0
 14 49  1  0  0  0  0
 14 50  1  0  0  0  0
 15 17  1  0  0  0  0
 15 23  1  0  0  0  0
 15 51  1  6  0  0  0
 16 25  1  0  0  0  0
 17 18  1  0  0  0  0
 17 26  2  0  0  0  0
 18 19  1  0  0  0  0
 18 29  2  0  0  0  0
 19 22  1  0  0  0  0
 19 52  1  0  0  0  0
 19 53  1  0  0  0  0
 20 54  1  0  0  0  0
 20 55  1  0  0  0  0
 20 56  1  0  0  0  0
 21 28  1  0  0  0  0
 21 57  1  0  0  0  0
 22 58  1  0  0  0  0
 22 59  1  0  0  0  0
 23 31  1  0  0  0  0
 23 60  1  0  0  0  0
 23 61  1  0  0  0  0
 24 32  2  0  0  0  0
 24 33  1  0  0  0  0
 25 28  2  0  0  0  0
 26 27  1  0  0  0  0
 26 63  1  0  0  0  0
 27 30  2  0  0  0  0
 29 30  1  0  0  0  0
 29 64  1  0  0  0  0
 31 34  2  0  0  0  0
 31 37  1  0  0  0  0
 32 35  1  0  0  0  0
 32 65  1  0  0  0  0
 33 36  2  0  0  0  0
 33 66  1  0  0  0  0
 34 39  1  0  0  0  0
 34 67  1  0  0  0  0
 35 38  2  0  0  0  0
 35 68  1  0  0  0  0
 36 38  1  0  0  0  0
 36 69  1  0  0  0  0
 37 40  2  0  0  0  0
 37 70  1  0  0  0  0
 39 41  2  0  0  0  0
 40 41  1  0  0  0  0
 40 72  1  0  0  0  0
 42 73  1  0  0  0  0
 42 74  1  0  0  0  0
 42 75  1  0  0  0  0
 43 76  1  0  0  0  0
 43 77  1  0  0  0  0
 43 78  1  0  0  0  0
M  END
> <PUBCHEM_COMPOUND_CID>
261477

> <PUBCHEM_COMPOUND_CANONICALIZED>
1

> <PUBCHEM_CACTVS_COMPLEXITY>
917

> <PUBCHEM_CACTVS_HBOND_ACCEPTOR>
8

> <PUBCHEM_CACTVS_HBOND_DONOR>
3

> <PUBCHEM_CACTVS_ROTATABLE_BOND>
2

> <PUBCHEM_CACTVS_SUBSKEYS>
AAADcfB/OAAAAAAAAAAAAAAAAAAAAAAAAAA8eMGCAAAAAACxVAAAHgAQCAAADCzBmAYyBoPABgCAAiBCAACCCAAgIAAIiIAOjIgNJyKGsRuGeCvn0BWLuAew8P8OoAABCAAYQABAAAIQADCAAAAAAAAAAA==

> <PUBCHEM_IUPAC_INCHI>
InChI=1S/C35H36N2O6/c1-37-13-11-23-18-32(41-3)34(39)35-33(23)27(37)15-20-4-7-24(8-5-20)42-29-16-21(6-9-28(29)38)14-26-25-19-31(43-35)30(40-2)17-22(25)10-12-36-26/h4-9,16-19,26-27,36,38-39H,10-15H2,1-3H3/t26-,27+/m1/s1

> <PUBCHEM_IUPAC_INCHIKEY>
AKGWXHYTRBFUAD-SXOMAYOGSA-N

> <PUBCHEM_XLOGP3_AA>
5.5

> <PUBCHEM_EXACT_MASS>
580.257337

> <PUBCHEM_MOLECULAR_FORMULA>
C35H36N2O6

> <PUBCHEM_MOLECULAR_WEIGHT>
580.67014

> <PUBCHEM_OPENEYE_CAN_SMILES>
CN1CCC2=CC(=C(C3=C2C1CC4=CC=C(C=C4)OC5=C(C=CC(=C5)CC6C7=CC(=C(C=C7CCN6)OC)O3)O)O)OC

> <PUBCHEM_OPENEYE_ISO_SMILES>
CN1CCC2=CC(=C(C3=C2[C@@H]1CC4=CC=C(C=C4)OC5=C(C=CC(=C5)C[C@@H]6C7=CC(=C(C=C7CCN6)OC)O3)O)O)OC

> <PUBCHEM_CACTVS_TPSA>
92.6

> <PUBCHEM_MONOISOTOPIC_WEIGHT>
580.257337

> <PUBCHEM_TOTAL_CHARGE>
0

> <PUBCHEM_HEAVY_ATOM_COUNT>
43

> <PUBCHEM_ATOM_DEF_STEREO_COUNT>
2

> <PUBCHEM_ATOM_UDEF_STEREO_COUNT>
0

> <PUBCHEM_BOND_DEF_STEREO_COUNT>
0

> <PUBCHEM_BOND_UDEF_STEREO_COUNT>
0

> <PUBCHEM_ISOTOPIC_ATOM_COUNT>
0

> <PUBCHEM_COMPONENT_COUNT>
1

> <PUBCHEM_CACTVS_TAUTO_COUNT>
2

> <PUBCHEM_COORDINATE_TYPE>
1
5
255

> <PUBCHEM_BONDANNOTATIONS>
10  12  8
10  16  8
12  21  8
15  51  6
16  25  8
17  18  8
17  26  8
18  29  8
21  28  8
24  32  8
24  33  8
25  28  8
26  27  8
27  30  8
29  30  8
31  34  8
31  37  8
32  35  8
33  36  8
34  39  8
35  38  8
36  38  8
37  40  8
39  41  8
40  41  8
9  44  6

$$$$

