   Color/Form

     * BROWNISH-YELLOW LEAF FROM WATER; PLATES FROM CHLOROFORM
     * White solid

   from [1]HSDB

   Boiling Point
        256-258 deg C
   from [2]HSDB

   Melting Point
        103-104 deg C
   from [3]HSDB

   Dissociation Constants
        pKa1 = less than 2; pKa2 = 4.47 at 25 deg C
   from [4]HSDB

   Octanol/Water Partition Coefficient
        log Kow = 0.15
   from [5]HSDB

   Solubilities

     * FREELY SOL IN ALCOHOL, CHLOROFORM, ETHER
     * SOL IN BENZENE
     * In water, 4.07X10+4 mg/l at 35 deg C.

   from [6]HSDB

   Spectral Properties

     * MAX ABSORPTION (CYCLOHEXANE): 235.5 NM (LOG E= 3.82); 289 NM (LOG
       E= 3.54); SADTLER REFERENCE NUMBER: 1604 (IR, PRISM); 460 (UV); 112
       (NMR)
     * IR: 262 (Sadtler Research Laboratories IR Grating Collection)
     * UV: 6-80 (Organic Electronic Spectral Data, Phillips et al, John
       Wiley & Sons, New York)
     * MASS: 45 (Aldermaston, Eight Peak Index of Mass Spectra, UK)

   from [7]HSDB

   Computed Properties
   Molecular Weight                  108.14112 [g/mol]
   Molecular Formula                 C[6]H[8]N[2]
   XLogP3                            0.1
   H-Bond Donor                      2
   H-Bond Acceptor                   2
   Rotatable Bond Count              0
   Exact Mass                        108.068748
   MonoIsotopic Mass                 108.068748
   Topological Polar Surface Area    52
   Heavy Atom Count                  8
   Formal Charge                     0
   Complexity                        62.9
   Isotope Atom Count                0
   Defined Atom Stereocenter Count   0
   Undefined Atom Stereocenter Count 0
   Defined Bond Stereocenter Count   0
   Undefined Bond Stereocenter Count 0
   Covalently-Bonded Unit Count      1
   Feature 3D Donor Count            2
   Feature 3D Cation Count           2
   Feature 3D Ring Count             1
   Effective Rotor Count             0
   Conformer Sampling RMSD           0.4
   CID Conformer Count               [8]1

References

   1. http://toxnet.nlm.nih.gov/cgi-bin/sis/search/r?dbs+hsdb:@term+@rn+@rel+95-54-5
   2. http://toxnet.nlm.nih.gov/cgi-bin/sis/search/r?dbs+hsdb:@term+@rn+@rel+95-54-5
   3. http://toxnet.nlm.nih.gov/cgi-bin/sis/search/r?dbs+hsdb:@term+@rn+@rel+95-54-5
   4. http://toxnet.nlm.nih.gov/cgi-bin/sis/search/r?dbs+hsdb:@term+@rn+@rel+95-54-5
   5. http://toxnet.nlm.nih.gov/cgi-bin/sis/search/r?dbs+hsdb:@term+@rn+@rel+95-54-5
   6. http://toxnet.nlm.nih.gov/cgi-bin/sis/search/r?dbs+hsdb:@term+@rn+@rel+95-54-5
   7. http://toxnet.nlm.nih.gov/cgi-bin/sis/search/r?dbs+hsdb:@term+@rn+@rel+95-54-5
   8. http://pubchem.ncbi.nlm.nih.gov/vw3d/vw3d.cgi?cid=7243
