10053416
  -OEChem-07051213152D

 84 85  0     1  0  0  0  0  0999 V2000
    7.8607    2.7190    0.0000 S   0  0  0  0  0  0  0  0  0  0  0  0
   11.0550    3.1880    0.0000 O   0  0  0  0  0  0  0  0  0  0  0  0
    8.3301   -0.1852    0.0000 O   0  0  0  0  0  0  0  0  0  0  0  0
    9.5105    2.5718    0.0000 O   0  0  0  0  0  0  0  0  0  0  0  0
    9.4890    1.1020    0.0000 O   0  0  0  0  0  0  0  0  0  0  0  0
    8.1998    3.2396    0.0000 N   0  0  0  0  0  0  0  0  0  0  0  0
    6.2427    2.7190    0.0000 N   0  0  0  0  0  0  0  0  0  0  0  0
    2.9511   -4.6647    0.0000 N   0  0  0  0  0  0  0  0  0  0  0  0
    7.7905    4.8514    0.0000 C   0  0  0  0  0  0  0  0  0  0  0  0
    6.7596    4.6482    0.0000 C   0  0  1  0  0  0  0  0  0  0  0  0
    8.5336    4.1823    0.0000 C   0  0  2  0  0  0  0  0  0  0  0  0
    9.5323    4.2346    0.0000 C   0  0  0  0  0  0  0  0  0  0  0  0
    6.5517    3.6701    0.0000 C   0  0  0  0  0  0  0  0  0  0  0  0
    6.0316    5.3338    0.0000 C   0  0  0  0  0  0  0  0  0  0  0  0
   10.0769    3.3959    0.0000 C   0  0  0  0  0  0  0  0  0  0  0  0
    7.5517    3.6701    0.0000 C   0  0  0  0  0  0  0  0  0  0  0  0
    7.0517    2.1313    0.0000 C   0  0  0  0  0  0  0  0  0  0  0  0
    7.7948    1.4621    0.0000 C   0  0  0  0  0  0  0  0  0  0  0  0
   11.3641    2.2370    0.0000 C   0  0  2  0  0  0  0  0  0  0  0  0
    7.5869    0.4840    0.0000 C   0  0  1  0  0  0  0  0  0  0  0  0
   12.3422    2.0291    0.0000 C   0  0  0  0  0  0  0  0  0  0  0  0
   10.4130    1.9280    0.0000 C   0  0  0  0  0  0  0  0  0  0  0  0
   12.1343    1.0509    0.0000 C   0  0  0  0  0  0  0  0  0  0  0  0
    6.6359    0.1750    0.0000 C   0  0  0  0  0  0  0  0  0  0  0  0
    6.4280   -0.8032    0.0000 C   0  0  0  0  0  0  0  0  0  0  0  0
   12.8774    0.3818    0.0000 C   0  0  0  0  0  0  0  0  0  0  0  0
   11.1832    0.7419    0.0000 C   0  0  0  0  0  0  0  0  0  0  0  0
    9.2811    0.1239    0.0000 C   0  0  0  0  0  0  0  0  0  0  0  0
   10.9753   -0.2362    0.0000 C   0  0  0  0  0  0  0  0  0  0  0  0
    7.1711   -1.4723    0.0000 C   0  0  0  0  0  0  0  0  0  0  0  0
    5.4769   -1.1122    0.0000 C   0  0  0  0  0  0  0  0  0  0  0  0
   10.0243   -0.5453    0.0000 C   0  0  0  0  0  0  0  0  0  0  0  0
    5.2690   -2.0904    0.0000 C   0  0  0  0  0  0  0  0  0  0  0  0
    4.3179   -2.3994    0.0000 C   0  0  0  0  0  0  0  0  0  0  0  0
    4.1100   -3.3775    0.0000 C   0  0  0  0  0  0  0  0  0  0  0  0
    3.1590   -3.6865    0.0000 C   0  0  0  0  0  0  0  0  0  0  0  0
    3.5748   -1.7302    0.0000 C   0  0  0  0  0  0  0  0  0  0  0  0
    2.0000   -4.9737    0.0000 C   0  0  0  0  0  0  0  0  0  0  0  0
    3.6942   -5.3338    0.0000 C   0  0  0  0  0  0  0  0  0  0  0  0
    8.2939    5.2134    0.0000 H   0  0  0  0  0  0  0  0  0  0  0  0
    7.5439    5.4203    0.0000 H   0  0  0  0  0  0  0  0  0  0  0  0
    6.9312    5.2440    0.0000 H   0  0  0  0  0  0  0  0  0  0  0  0
    8.9046    3.6855    0.0000 H   0  0  0  0  0  0  0  0  0  0  0  0
   10.1030    4.4769    0.0000 H   0  0  0  0  0  0  0  0  0  0  0  0
    9.3928    4.8387    0.0000 H   0  0  0  0  0  0  0  0  0  0  0  0
    6.4566    5.7852    0.0000 H   0  0  0  0  0  0  0  0  0  0  0  0
    5.5802    5.7589    0.0000 H   0  0  0  0  0  0  0  0  0  0  0  0
    5.6066    4.8824    0.0000 H   0  0  0  0  0  0  0  0  0  0  0  0
    8.6025    2.7682    0.0000 H   0  0  0  0  0  0  0  0  0  0  0  0
    7.5902    3.1266    0.0000 H   0  0  0  0  0  0  0  0  0  0  0  0
    7.9161    4.1717    0.0000 H   0  0  0  0  0  0  0  0  0  0  0  0
    8.3697    1.2299    0.0000 H   0  0  0  0  0  0  0  0  0  0  0  0
    8.1234    1.9879    0.0000 H   0  0  0  0  0  0  0  0  0  0  0  0
   10.8116    2.5184    0.0000 H   0  0  0  0  0  0  0  0  0  0  0  0
    7.4580   -0.1225    0.0000 H   0  0  0  0  0  0  0  0  0  0  0  0
   12.9487    1.9002    0.0000 H   0  0  0  0  0  0  0  0  0  0  0  0
   12.4711    2.6355    0.0000 H   0  0  0  0  0  0  0  0  0  0  0  0
   10.2214    2.5176    0.0000 H   0  0  0  0  0  0  0  0  0  0  0  0
    9.8234    1.7364    0.0000 H   0  0  0  0  0  0  0  0  0  0  0  0
   10.6046    1.3383    0.0000 H   0  0  0  0  0  0  0  0  0  0  0  0
    6.1751    0.5898    0.0000 H   0  0  0  0  0  0  0  0  0  0  0  0
   12.4626   -0.0790    0.0000 H   0  0  0  0  0  0  0  0  0  0  0  0
   13.3382   -0.0331    0.0000 H   0  0  0  0  0  0  0  0  0  0  0  0
   13.2923    0.8425    0.0000 H   0  0  0  0  0  0  0  0  0  0  0  0
   10.5768    0.8708    0.0000 H   0  0  0  0  0  0  0  0  0  0  0  0
   11.4361   -0.6511    0.0000 H   0  0  0  0  0  0  0  0  0  0  0  0
    6.7562   -1.9331    0.0000 H   0  0  0  0  0  0  0  0  0  0  0  0
    7.6319   -1.8872    0.0000 H   0  0  0  0  0  0  0  0  0  0  0  0
    7.5860   -1.0116    0.0000 H   0  0  0  0  0  0  0  0  0  0  0  0
    5.0162   -0.6973    0.0000 H   0  0  0  0  0  0  0  0  0  0  0  0
    9.8954   -1.1517    0.0000 H   0  0  0  0  0  0  0  0  0  0  0  0
    5.7297   -2.5052    0.0000 H   0  0  0  0  0  0  0  0  0  0  0  0
    4.5708   -3.7924    0.0000 H   0  0  0  0  0  0  0  0  0  0  0  0
    3.0727   -3.0726    0.0000 H   0  0  0  0  0  0  0  0  0  0  0  0
    2.5394   -3.6649    0.0000 H   0  0  0  0  0  0  0  0  0  0  0  0
    3.9896   -1.2695    0.0000 H   0  0  0  0  0  0  0  0  0  0  0  0
    3.1140   -1.3154    0.0000 H   0  0  0  0  0  0  0  0  0  0  0  0
    3.1599   -2.1910    0.0000 H   0  0  0  0  0  0  0  0  0  0  0  0
    3.2793   -5.7946    0.0000 H   0  0  0  0  0  0  0  0  0  0  0  0
    4.1550   -5.7487    0.0000 H   0  0  0  0  0  0  0  0  0  0  0  0
    4.1091   -4.8731    0.0000 H   0  0  0  0  0  0  0  0  0  0  0  0
    1.8084   -4.3840    0.0000 H   0  0  0  0  0  0  0  0  0  0  0  0
    1.4103   -5.1653    0.0000 H   0  0  0  0  0  0  0  0  0  0  0  0
    2.1916   -5.5634    0.0000 H   0  0  0  0  0  0  0  0  0  0  0  0
  1 16  1  0  0  0  0
  1 17  1  0  0  0  0
  2 15  1  0  0  0  0
  2 19  1  0  0  0  0
  3 20  1  0  0  0  0
  3 28  1  0  0  0  0
  4 15  2  0  0  0  0
  5 28  2  0  0  0  0
 11  6  1  6  0  0  0
  6 49  1  0  0  0  0
  6 50  1  0  0  0  0
  7 13  1  0  0  0  0
  7 17  2  0  0  0  0
  8 36  1  0  0  0  0
  8 38  1  0  0  0  0
  8 39  1  0  0  0  0
  9 10  1  0  0  0  0
  9 11  1  0  0  0  0
  9 40  1  0  0  0  0
  9 41  1  0  0  0  0
 10 13  1  0  0  0  0
 10 14  1  1  0  0  0
 10 42  1  0  0  0  0
 11 12  1  0  0  0  0
 11 43  1  0  0  0  0
 12 15  1  0  0  0  0
 12 44  1  0  0  0  0
 12 45  1  0  0  0  0
 13 16  2  0  0  0  0
 14 46  1  0  0  0  0
 14 47  1  0  0  0  0
 14 48  1  0  0  0  0
 16 51  1  0  0  0  0
 17 18  1  0  0  0  0
 18 20  1  0  0  0  0
 18 52  1  0  0  0  0
 18 53  1  0  0  0  0
 19 21  1  0  0  0  0
 19 22  1  6  0  0  0
 19 54  1  0  0  0  0
 20 24  1  6  0  0  0
 20 55  1  0  0  0  0
 21 23  1  0  0  0  0
 21 56  1  0  0  0  0
 21 57  1  0  0  0  0
 22 58  1  0  0  0  0
 22 59  1  0  0  0  0
 22 60  1  0  0  0  0
 23 26  1  0  0  0  0
 23 27  2  0  0  0  0
 24 25  2  0  0  0  0
 24 61  1  0  0  0  0
 25 30  1  0  0  0  0
 25 31  1  0  0  0  0
 26 62  1  0  0  0  0
 26 63  1  0  0  0  0
 26 64  1  0  0  0  0
 27 29  1  0  0  0  0
 27 65  1  0  0  0  0
 28 32  1  0  0  0  0
 29 32  2  0  0  0  0
 29 66  1  0  0  0  0
 30 67  1  0  0  0  0
 30 68  1  0  0  0  0
 30 69  1  0  0  0  0
 31 33  2  0  0  0  0
 31 70  1  0  0  0  0
 32 71  1  0  0  0  0
 33 34  1  0  0  0  0
 33 72  1  0  0  0  0
 34 35  2  0  0  0  0
 34 37  1  0  0  0  0
 35 36  1  0  0  0  0
 35 73  1  0  0  0  0
 36 74  1  0  0  0  0
 36 75  1  0  0  0  0
 37 76  1  0  0  0  0
 37 77  1  0  0  0  0
 37 78  1  0  0  0  0
 38 82  1  0  0  0  0
 38 83  1  0  0  0  0
 38 84  1  0  0  0  0
 39 79  1  0  0  0  0
 39 80  1  0  0  0  0
 39 81  1  0  0  0  0
M  END
> <PUBCHEM_COMPOUND_CID>
10053416

> <PUBCHEM_COMPOUND_CANONICALIZED>
1

> <PUBCHEM_CACTVS_COMPLEXITY>
969

> <PUBCHEM_CACTVS_HBOND_ACCEPTOR>
8

> <PUBCHEM_CACTVS_HBOND_DONOR>
1

> <PUBCHEM_CACTVS_ROTATABLE_BOND>
5

> <PUBCHEM_CACTVS_SUBSKEYS>
AAADcfB7OABAAAAAAAAAAAAAAAAAAWAAAAAAAAAAAAAAAAABgAAAHgQQAAAADTzl1gaiiRNIFAisAyTyTACA8KBhCjgICJU4IEgIJBogsQCGEAAG0ACooYOYyDCOAAAAAAAAAAAAAAAAAAAAAAAAAAAAAA==

> <PUBCHEM_IUPAC_OPENEYE_NAME>
(3S,6Z,8E,11S,15R,17S)-15-amino-3-[(1E,3E,5E)-7-(dimethylamino)-2,5-dimethyl-hepta-1,3,5-trienyl]-9,11,17-trimethyl-4,12-dioxa-20-thia-21-azabicyclo[16.2.1]henicosa-1(21),6,8,18-tetraene-5,13-dione

> <PUBCHEM_IUPAC_CAS_NAME>
(3S,6Z,8E,11S,15R,17S)-15-amino-3-[(1E,3E,5E)-7-(dimethylamino)-2,5-dimethylhepta-1,3,5-trienyl]-9,11,17-trimethyl-4,12-dioxa-20-thia-21-azabicyclo[16.2.1]heneicosa-1(21),6,8,18-tetraene-5,13-dione

> <PUBCHEM_IUPAC_NAME>
(3S,6Z,8E,11S,15R,17S)-15-amino-3-[(1E,3E,5E)-7-(dimethylamino)-2,5-dimethylhepta-1,3,5-trienyl]-9,11,17-trimethyl-4,12-dioxa-20-thia-21-azabicyclo[16.2.1]henicosa-1(21),6,8,18-tetraene-5,13-dione

> <PUBCHEM_IUPAC_SYSTEMATIC_NAME>
(3S,6Z,8E,11S,15R,17S)-15-azanyl-3-[(1E,3E,5E)-7-(dimethylamino)-2,5-dimethyl-hepta-1,3,5-trienyl]-9,11,17-trimethyl-4,12-dioxa-20-thia-21-azabicyclo[16.2.1]henicosa-1(21),6,8,18-tetraene-5,13-dione

> <PUBCHEM_IUPAC_TRADITIONAL_NAME>
(3S,6Z,8E,11S,15R,17S)-15-amino-3-[(1E,3E,5E)-7-(dimethylamino)-2,5-dimethyl-hepta-1,3,5-trienyl]-9,11,17-trimethyl-4,12-dioxa-20-thia-21-azabicyclo[16.2.1]heneicosa-1(21),6,8,18-tetraene-5,13-quinone

> <PUBCHEM_IUPAC_INCHI>
InChI=1S/C31H45N3O4S/c1-21(13-14-34(6)7)11-12-23(3)16-27-19-29-33-28(20-39-29)24(4)17-26(32)18-31(36)37-25(5)15-22(2)9-8-10-30(35)38-27/h8-13,16,20,24-27H,14-15,17-19,32H2,1-7H3/b10-8-,12-11+,21-13+,22-9+,23-16+/t24-,25-,26+,27+/m0/s1

> <PUBCHEM_IUPAC_INCHIKEY>
DSPNTLCJTJBXTD-IRNRRZNASA-N

> <PUBCHEM_XLOGP3_AA>
5.7

> <PUBCHEM_EXACT_MASS>
555.313078

> <PUBCHEM_MOLECULAR_FORMULA>
C31H45N3O4S

> <PUBCHEM_MOLECULAR_WEIGHT>
555.7717

> <PUBCHEM_OPENEYE_CAN_SMILES>
CC1CC(CC(=O)OC(CC(=CC=CC(=O)OC(CC2=NC1=CS2)C=C(C)C=CC(=CCN(C)C)C)C)C)N

> <PUBCHEM_OPENEYE_ISO_SMILES>
C[C@H]1C[C@H](CC(=O)O[C@H](C/C(=C/C=C\C(=O)O[C@@H](CC2=NC1=CS2)/C=C(\C)/C=C/C(=C/CN(C)C)/C)/C)C)N

> <PUBCHEM_CACTVS_TPSA>
123

> <PUBCHEM_MONOISOTOPIC_WEIGHT>
555.313078

> <PUBCHEM_TOTAL_CHARGE>
0

> <PUBCHEM_HEAVY_ATOM_COUNT>
39

> <PUBCHEM_ATOM_DEF_STEREO_COUNT>
4

> <PUBCHEM_ATOM_UDEF_STEREO_COUNT>
0

> <PUBCHEM_BOND_DEF_STEREO_COUNT>
5

> <PUBCHEM_BOND_UDEF_STEREO_COUNT>
0

> <PUBCHEM_ISOTOPIC_ATOM_COUNT>
0

> <PUBCHEM_COMPONENT_COUNT>
1

> <PUBCHEM_CACTVS_TAUTO_COUNT>
10

> <PUBCHEM_COORDINATE_TYPE>
1
5
255

> <PUBCHEM_BONDANNOTATIONS>
1  16  8
1  17  8
10  14  5
13  16  8
19  22  6
20  24  6
11  6  6
7  13  8
7  17  8

$$$$

