18666812
  -OEChem-07051212492D

 40 40  0     1  0  0  0  0  0999 V2000
    3.3100   -3.5950    0.0000 P   0  0  0  0  0  0  0  0  0  0  0  0
    5.9081   -1.0950    0.0000 O   0  0  0  0  0  0  0  0  0  0  0  0
    4.1760    0.9050    0.0000 O   0  0  0  0  0  0  0  0  0  0  0  0
    3.3100   -0.5950    0.0000 O   0  0  0  0  0  0  0  0  0  0  0  0
    3.3100   -2.5950    0.0000 O   0  0  0  0  0  0  0  0  0  0  0  0
    3.3100   -4.5950    0.0000 O   0  0  0  0  0  0  0  0  0  0  0  0
    2.3100   -3.5950    0.0000 O   0  0  0  0  0  0  0  0  0  0  0  0
    4.3100   -3.5950    0.0000 O   0  0  0  0  0  0  0  0  0  0  0  0
    7.6401    4.9050    0.0000 O   0  0  0  0  0  0  0  0  0  0  0  0
    9.3722    1.9050    0.0000 O   0  0  0  0  0  0  0  0  0  0  0  0
    5.9081    1.9050    0.0000 N   0  0  0  0  0  0  0  0  0  0  0  0
    7.6401    1.9050    0.0000 N   0  0  0  0  0  0  0  0  0  0  0  0
    8.5062    3.4050    0.0000 N   0  0  0  0  0  0  0  0  0  0  0  0
    5.9081    3.9050    0.0000 N   0  0  0  0  0  0  0  0  0  0  0  0
    5.0420   -0.5950    0.0000 C   0  0  1  0  0  0  0  0  0  0  0  0
    5.0420    0.4050    0.0000 C   0  0  2  0  0  0  0  0  0  0  0  0
    4.1760   -1.0950    0.0000 C   0  0  1  0  0  0  0  0  0  0  0  0
    5.9081    0.9050    0.0000 C   0  0  0  0  0  0  0  0  0  0  0  0
    4.1760   -2.0950    0.0000 C   0  0  0  0  0  0  0  0  0  0  0  0
    6.7741    2.4050    0.0000 C   0  0  0  0  0  0  0  0  0  0  0  0
    6.7741    3.4050    0.0000 C   0  0  0  0  0  0  0  0  0  0  0  0
    7.6401    3.9050    0.0000 C   0  0  0  0  0  0  0  0  0  0  0  0
    8.5062    2.4050    0.0000 C   0  0  0  0  0  0  0  0  0  0  0  0
    5.0420   -1.2150    0.0000 H   0  0  0  0  0  0  0  0  0  0  0  0
    5.0420    1.0250    0.0000 H   0  0  0  0  0  0  0  0  0  0  0  0
    4.1760   -0.4750    0.0000 H   0  0  0  0  0  0  0  0  0  0  0  0
    6.1201    0.3224    0.0000 H   0  0  0  0  0  0  0  0  0  0  0  0
    6.5187    1.0127    0.0000 H   0  0  0  0  0  0  0  0  0  0  0  0
    4.3881   -2.6776    0.0000 H   0  0  0  0  0  0  0  0  0  0  0  0
    4.7866   -1.9873    0.0000 H   0  0  0  0  0  0  0  0  0  0  0  0
    5.3711    2.2150    0.0000 H   0  0  0  0  0  0  0  0  0  0  0  0
    5.9081   -1.7150    0.0000 H   0  0  0  0  0  0  0  0  0  0  0  0
    3.6391    0.5950    0.0000 H   0  0  0  0  0  0  0  0  0  0  0  0
    2.7731   -0.9050    0.0000 H   0  0  0  0  0  0  0  0  0  0  0  0
    7.6401    1.2850    0.0000 H   0  0  0  0  0  0  0  0  0  0  0  0
    9.0431    3.7150    0.0000 H   0  0  0  0  0  0  0  0  0  0  0  0
    5.9081    4.5250    0.0000 H   0  0  0  0  0  0  0  0  0  0  0  0
    5.3711    3.5950    0.0000 H   0  0  0  0  0  0  0  0  0  0  0  0
    2.7731   -4.9050    0.0000 H   0  0  0  0  0  0  0  0  0  0  0  0
    2.0000   -3.0581    0.0000 H   0  0  0  0  0  0  0  0  0  0  0  0
  1  5  1  0  0  0  0
  1  6  1  0  0  0  0
  1  7  1  0  0  0  0
  1  8  2  0  0  0  0
 15  2  1  6  0  0  0
  2 32  1  0  0  0  0
 16  3  1  1  0  0  0
  3 33  1  0  0  0  0
 17  4  1  1  0  0  0
  4 34  1  0  0  0  0
  5 19  1  0  0  0  0
  6 39  1  0  0  0  0
  7 40  1  0  0  0  0
  9 22  2  0  0  0  0
 10 23  2  0  0  0  0
 11 18  1  0  0  0  0
 11 20  1  0  0  0  0
 11 31  1  0  0  0  0
 12 20  1  0  0  0  0
 12 23  1  0  0  0  0
 12 35  1  0  0  0  0
 13 22  1  0  0  0  0
 13 23  1  0  0  0  0
 13 36  1  0  0  0  0
 14 21  1  0  0  0  0
 14 37  1  0  0  0  0
 14 38  1  0  0  0  0
 15 16  1  0  0  0  0
 15 17  1  0  0  0  0
 15 24  1  0  0  0  0
 16 18  1  0  0  0  0
 16 25  1  0  0  0  0
 17 19  1  0  0  0  0
 17 26  1  0  0  0  0
 18 27  1  0  0  0  0
 18 28  1  0  0  0  0
 19 29  1  0  0  0  0
 19 30  1  0  0  0  0
 20 21  2  0  0  0  0
 21 22  1  0  0  0  0
M  END
> <PUBCHEM_COMPOUND_CID>
18666812

> <PUBCHEM_COMPOUND_CANONICALIZED>
1

> <PUBCHEM_CACTVS_COMPLEXITY>
547

> <PUBCHEM_CACTVS_HBOND_ACCEPTOR>
11

> <PUBCHEM_CACTVS_HBOND_DONOR>
9

> <PUBCHEM_CACTVS_ROTATABLE_BOND>
8

> <PUBCHEM_CACTVS_SUBSKEYS>
AAADceBzvAIAAAAAAAAAAAAAAAAAAAAAAAAgAAAAAAAAAAAAAAAAHgAQCCAACBzhgAYBAALAAxCIQAVQUICAAAAAAAAAAICIAECDUAIAgAAUQAAPFSIRAEDwEAIAAAAAAAAAAAAAAAAAAAAAAAAAAAAAAA==

> <PUBCHEM_IUPAC_OPENEYE_NAME>
[(2R,3S,4S)-5-[(5-amino-2,4-dioxo-1H-pyrimidin-6-yl)amino]-2,3,4-trihydroxy-pentyl] dihydrogen phosphate

> <PUBCHEM_IUPAC_CAS_NAME>
[(2R,3S,4S)-5-[(5-amino-2,4-dioxo-1H-pyrimidin-6-yl)amino]-2,3,4-trihydroxypentyl] dihydrogen phosphate

> <PUBCHEM_IUPAC_NAME>
[(2R,3S,4S)-5-[(5-amino-2,4-dioxo-1H-pyrimidin-6-yl)amino]-2,3,4-trihydroxypentyl] dihydrogen phosphate

> <PUBCHEM_IUPAC_SYSTEMATIC_NAME>
[(2R,3S,4S)-5-[[5-azanyl-2,4-bis(oxidanylidene)-1H-pyrimidin-6-yl]amino]-2,3,4-tris(oxidanyl)pentyl] dihydrogen phosphate

> <PUBCHEM_IUPAC_TRADITIONAL_NAME>
[(2R,3S,4S)-5-[(5-amino-2,4-diketo-1H-pyrimidin-6-yl)amino]-2,3,4-trihydroxy-pentyl] dihydrogen phosphate

> <PUBCHEM_IUPAC_INCHI>
InChI=1S/C9H17N4O9P/c10-5-7(12-9(18)13-8(5)17)11-1-3(14)6(16)4(15)2-22-23(19,20)21/h3-4,6,14-16H,1-2,10H2,(H2,19,20,21)(H3,11,12,13,17,18)/t3-,4+,6-/m0/s1

> <PUBCHEM_IUPAC_INCHIKEY>
RQRINYISXYAZKL-RPDRRWSUSA-N

> <PUBCHEM_XLOGP3_AA>
-4.3

> <PUBCHEM_EXACT_MASS>
356.073315

> <PUBCHEM_MOLECULAR_FORMULA>
C9H17N4O9P

> <PUBCHEM_MOLECULAR_WEIGHT>
356.226442

> <PUBCHEM_OPENEYE_CAN_SMILES>
C(C(C(C(COP(=O)(O)O)O)O)O)NC1=C(C(=O)NC(=O)N1)N

> <PUBCHEM_OPENEYE_ISO_SMILES>
C([C@@H]([C@@H]([C@@H](COP(=O)(O)O)O)O)O)NC1=C(C(=O)NC(=O)N1)N

> <PUBCHEM_CACTVS_TPSA>
224

> <PUBCHEM_MONOISOTOPIC_WEIGHT>
356.073315

> <PUBCHEM_TOTAL_CHARGE>
0

> <PUBCHEM_HEAVY_ATOM_COUNT>
23

> <PUBCHEM_ATOM_DEF_STEREO_COUNT>
3

> <PUBCHEM_ATOM_UDEF_STEREO_COUNT>
0

> <PUBCHEM_BOND_DEF_STEREO_COUNT>
0

> <PUBCHEM_BOND_UDEF_STEREO_COUNT>
0

> <PUBCHEM_ISOTOPIC_ATOM_COUNT>
0

> <PUBCHEM_COMPONENT_COUNT>
1

> <PUBCHEM_CACTVS_TAUTO_COUNT>
27

> <PUBCHEM_COORDINATE_TYPE>
1
5
255

> <PUBCHEM_BONDANNOTATIONS>
12  20  8
12  23  8
13  22  8
13  23  8
15  2  6
20  21  8
21  22  8
16  3  5
17  4  5

$$$$

