   Color/Form

     * Gas: Colorless
     * Liquid: colorless
     * Solid (dry ice): white, snow-like flakes or cubes
     * Colorless ... gas [Note: Shipped as a liquefied compressed gas.
       Solid form is utilized as dry ice].

   from [1]HSDB

   Odor

     * Odorless
     * Faintly pungent odor

   from [2]HSDB

   Taste
        Faint acid taste
   from [3]HSDB

   Boiling Point
        -78.5 deg C /sublimation/
   from [4]HSDB

   Melting Point
        -56.58 deg C (triple point)
   from [5]HSDB

   Critical Temperature and Pressure
        Critical temperature: 304.13 K; critical pressure: 7.375 MPa
   from [6]HSDB

   Density/Specific Gravity
        Absolute density: 0.1146 lb/cu ft at 25 deg C; density: (gas at 0
   deg C) 1.976 g/L at 760 mm Hg; (liq at 0 deg C) 0.914 at 34.3 atm;
   (solid) at -56.6 deg C) 1.512; critical density: 0.464
   from [7]HSDB

   Heat of Combustion
        0 J/kmol
   from [8]HSDB

   Heat of Vaporization
        83.12 g-cal/g
   from [9]HSDB

   pH
        The pH of saturated CO2 solutions varies from 3.7 at 101 kPa (1
   atm) to 3.2 at 2370 kPa (23.4 atm)
   from [10]HSDB

   Solubilities

     * Miscible with hydrocarbons and most organic liquids.
     * Quantity dissolved, mL/g (STP) at 20 deg C: acetone: 8.2; ethanol:
       3.6; benzene: 2.71; methanol: 4.1; toluene: 3.0; xylene: 2.31;
       heptane: 2.8; methyl acetate: 7.4; diethyl ether: 6.3
     * Solubility in water (mL CO2/100 mL H2O at 760 mm Hg): 171 at 0 deg
       C; 88 at 20 deg C; 36 at 60 deg C
     * Solubility in water: 1.501 g/L at 25 deg C (gas at a partial
       pressure of 101.325 kPa in equilibrium with the solution)
     * Miscible with water (1.7 v/v at 0 deg C, 0.76 v/v at 25 deg C at
       760 mm Hg partial pressure of CO2).
     * In water, 2.9X10+3 mg/L at 25 deg C

   from [11]HSDB

   Spectral Properties

     * Index of refraction: 1.6630 at 24 deg C
     * IR: 1924 (Sadtler Research Laboratories Prism Collection)
     * MASS: 61298 (NIST/EPA/MSDC Mass Spectral Database 1990 version); 89
       (Atlas of Mass Spectral Data, John Wiley & Sons, New York)

   from [12]HSDB

   Surface Tension
        0.0162 Newtons/meter at melting point
   from [13]HSDB

   Vapor Density
        1.53 at 78.2 deg C (Air = 1)
   from [14]HSDB

   Vapor Pressure
        4.83X10+4 mm Hg at 25 deg C
   from [15]HSDB

   Viscosity
        14.9 uPa-sec at 25 deg C
   from [16]HSDB

   Other Chemical/Physical Properties

     * Heat of formation: -393.51 kJ/mol; Entropy: 213.785 J/K-mol
     * Heat capacity: 37.135 J/K-mol (constant pressure)
     * Rate constant for second order reaction with O(1D): 1.1X10-10 cu
       cm/molecule-sec at 25 deg C; with singlet O2 reaction: <2X10-20 cu
       cm/molecule-sec at 25 deg C
     * van der Waals constants: a = 3.658 bar-sq L/sq mol; b = 0.0429
       L/mol
     * Critical molar volume: 94 cu cm/mol
     * Enthalpy of fusion: 9.02 kJ/mol
     * Viscosity: 10 uPa-sec at 200K; 15.0 uPa-sec at 300K
     * Diffusion coefficient (D) in water: 1.91X10-5 sq cm/sec at 25 deg C
     * Ionization energy: 13.773 eV
     * Incompatible with acrylaldehyde, aziridine, metal acetylides,
       sodium peroxide
     * Liquid: volatile, odorless, density 1.101 at -37 deg C, specific
       volume 8.76 cu ft/lb at 70 deg F
     * Solid (dry ice): density 1.56 at -79 deg C, melting point -78.5 deg
       C (sublimes)
     * All forms are noncombustible
     * Air contains 0.033% of carbon dioxide
     * Vol at 25 deg C: 8.76 cu ft/lb
     * Vapor pressure = 10.5 mm Hg at -120 deg C; 104.2 mm Hg at -100 deg
       C; 569.1 mm Hg at -82 deg C
     * Critical volume: 2.137 cu dm/kg
     * Critical compressibility factor: 0.274
     * Absolute density, gas at 101.325 kPa at 0 deg C: 1.9770 kg/cu m;
       relative density, gas at 101.325 kPa at 0 deg C (Air = 1): 1.53
     * Solid carbon dioxide sinks and boils in water
     * Latent heat of vaporization = 353.4 J/g at the triple point; 231.3
       J/g at 0 deg C; viscosity = 0.015 mPa-sec at 298 K and 101.3 kPa;
       gas density = 1.976 g/L at 273 K and 101.3 kPa

   from [17]HSDB

   Computed Properties
   Molecular Weight                  44.0095 [g/mol]
   Molecular Formula                 CO[2]
   XLogP3-AA                         0.9
   H-Bond Donor                      0
   H-Bond Acceptor                   2
   Rotatable Bond Count              0
   Exact Mass                        43.989829
   MonoIsotopic Mass                 43.989829
   Topological Polar Surface Area    34.1
   Heavy Atom Count                  3
   Formal Charge                     0
   Complexity                        18.3
   Isotope Atom Count                0
   Defined Atom Stereocenter Count   0
   Undefined Atom Stereocenter Count 0
   Defined Bond Stereocenter Count   0
   Undefined Bond Stereocenter Count 0
   Covalently-Bonded Unit Count      1
   Effective Rotor Count             0
   Conformer Sampling RMSD           0.4
   CID Conformer Count               [18]1

References

   1. http://toxnet.nlm.nih.gov/cgi-bin/sis/search/r?dbs+hsdb:@term+@rn+@rel+124-38-9
   2. http://toxnet.nlm.nih.gov/cgi-bin/sis/search/r?dbs+hsdb:@term+@rn+@rel+124-38-9
   3. http://toxnet.nlm.nih.gov/cgi-bin/sis/search/r?dbs+hsdb:@term+@rn+@rel+124-38-9
   4. http://toxnet.nlm.nih.gov/cgi-bin/sis/search/r?dbs+hsdb:@term+@rn+@rel+124-38-9
   5. http://toxnet.nlm.nih.gov/cgi-bin/sis/search/r?dbs+hsdb:@term+@rn+@rel+124-38-9
   6. http://toxnet.nlm.nih.gov/cgi-bin/sis/search/r?dbs+hsdb:@term+@rn+@rel+124-38-9
   7. http://toxnet.nlm.nih.gov/cgi-bin/sis/search/r?dbs+hsdb:@term+@rn+@rel+124-38-9
   8. http://toxnet.nlm.nih.gov/cgi-bin/sis/search/r?dbs+hsdb:@term+@rn+@rel+124-38-9
   9. http://toxnet.nlm.nih.gov/cgi-bin/sis/search/r?dbs+hsdb:@term+@rn+@rel+124-38-9
  10. http://toxnet.nlm.nih.gov/cgi-bin/sis/search/r?dbs+hsdb:@term+@rn+@rel+124-38-9
  11. http://toxnet.nlm.nih.gov/cgi-bin/sis/search/r?dbs+hsdb:@term+@rn+@rel+124-38-9
  12. http://toxnet.nlm.nih.gov/cgi-bin/sis/search/r?dbs+hsdb:@term+@rn+@rel+124-38-9
  13. http://toxnet.nlm.nih.gov/cgi-bin/sis/search/r?dbs+hsdb:@term+@rn+@rel+124-38-9
  14. http://toxnet.nlm.nih.gov/cgi-bin/sis/search/r?dbs+hsdb:@term+@rn+@rel+124-38-9
  15. http://toxnet.nlm.nih.gov/cgi-bin/sis/search/r?dbs+hsdb:@term+@rn+@rel+124-38-9
  16. http://toxnet.nlm.nih.gov/cgi-bin/sis/search/r?dbs+hsdb:@term+@rn+@rel+124-38-9
  17. http://toxnet.nlm.nih.gov/cgi-bin/sis/search/r?dbs+hsdb:@term+@rn+@rel+124-38-9
  18. http://pubchem.ncbi.nlm.nih.gov/vw3d/vw3d.cgi?cid=280
