10265589
  -OEChem-07051213082D

 32 31  0     0  0  0  0  0  0999 V2000
    8.9282   -1.8735    0.0000 Cl  0  0  0  0  0  0  0  0  0  0  0  0
    2.0000   -1.8735    0.0000 Cl  0  0  0  0  0  0  0  0  0  0  0  0
    5.4641   -1.8735    0.0000 P   0  0  0  0  0  0  0  0  0  0  0  0
    4.9641   -1.0075    0.0000 O   0  0  0  0  0  0  0  0  0  0  0  0
    5.9641   -2.7396    0.0000 O   0  0  0  0  0  0  0  0  0  0  0  0
    4.9641    2.4566    0.0000 O   0  0  0  0  0  0  0  0  0  0  0  0
    6.3301   -1.3735    0.0000 N   0  0  0  0  0  0  0  0  0  0  0  0
    4.5981   -2.3735    0.0000 N   0  0  0  0  0  0  0  0  0  0  0  0
    5.4641   -0.1415    0.0000 C   0  0  0  0  0  0  0  0  0  0  0  0
    4.9641    0.7245    0.0000 C   0  0  0  0  0  0  0  0  0  0  0  0
    7.1962   -1.8735    0.0000 C   0  0  0  0  0  0  0  0  0  0  0  0
    3.7320   -1.8735    0.0000 C   0  0  0  0  0  0  0  0  0  0  0  0
    5.4641    1.5906    0.0000 C   0  0  0  0  0  0  0  0  0  0  0  0
    2.8660   -2.3735    0.0000 C   0  0  0  0  0  0  0  0  0  0  0  0
    8.0622   -1.3735    0.0000 C   0  0  0  0  0  0  0  0  0  0  0  0
    4.5981   -2.9935    0.0000 H   0  0  0  0  0  0  0  0  0  0  0  0
    6.3301   -0.7535    0.0000 H   0  0  0  0  0  0  0  0  0  0  0  0
    5.9390   -0.5400    0.0000 H   0  0  0  0  0  0  0  0  0  0  0  0
    5.9390    0.2570    0.0000 H   0  0  0  0  0  0  0  0  0  0  0  0
    4.4892    1.1231    0.0000 H   0  0  0  0  0  0  0  0  0  0  0  0
    4.4892    0.3260    0.0000 H   0  0  0  0  0  0  0  0  0  0  0  0
    6.7976   -2.3485    0.0000 H   0  0  0  0  0  0  0  0  0  0  0  0
    7.5947   -2.3485    0.0000 H   0  0  0  0  0  0  0  0  0  0  0  0
    4.1306   -1.3986    0.0000 H   0  0  0  0  0  0  0  0  0  0  0  0
    3.3335   -1.3986    0.0000 H   0  0  0  0  0  0  0  0  0  0  0  0
    5.9390    1.1920    0.0000 H   0  0  0  0  0  0  0  0  0  0  0  0
    5.9390    1.9891    0.0000 H   0  0  0  0  0  0  0  0  0  0  0  0
    8.4607   -0.8986    0.0000 H   0  0  0  0  0  0  0  0  0  0  0  0
    7.6636   -0.8986    0.0000 H   0  0  0  0  0  0  0  0  0  0  0  0
    2.4675   -2.8485    0.0000 H   0  0  0  0  0  0  0  0  0  0  0  0
    3.2646   -2.8485    0.0000 H   0  0  0  0  0  0  0  0  0  0  0  0
    5.2741    2.9935    0.0000 H   0  0  0  0  0  0  0  0  0  0  0  0
  1 15  1  0  0  0  0
  2 14  1  0  0  0  0
  3  4  1  0  0  0  0
  3  5  2  0  0  0  0
  3  7  1  0  0  0  0
  3  8  1  0  0  0  0
  4  9  1  0  0  0  0
  6 13  1  0  0  0  0
  6 32  1  0  0  0  0
  7 11  1  0  0  0  0
  7 17  1  0  0  0  0
  8 12  1  0  0  0  0
  8 16  1  0  0  0  0
  9 10  1  0  0  0  0
  9 18  1  0  0  0  0
  9 19  1  0  0  0  0
 10 13  1  0  0  0  0
 10 20  1  0  0  0  0
 10 21  1  0  0  0  0
 11 15  1  0  0  0  0
 11 22  1  0  0  0  0
 11 23  1  0  0  0  0
 12 14  1  0  0  0  0
 12 24  1  0  0  0  0
 12 25  1  0  0  0  0
 13 26  1  0  0  0  0
 13 27  1  0  0  0  0
 14 30  1  0  0  0  0
 14 31  1  0  0  0  0
 15 28  1  0  0  0  0
 15 29  1  0  0  0  0
M  END
> <PUBCHEM_COMPOUND_CID>
10265589

> <PUBCHEM_COMPOUND_CANONICALIZED>
1

> <PUBCHEM_CACTVS_COMPLEXITY>
185

> <PUBCHEM_CACTVS_HBOND_ACCEPTOR>
5

> <PUBCHEM_CACTVS_HBOND_DONOR>
3

> <PUBCHEM_CACTVS_ROTATABLE_BOND>
10

> <PUBCHEM_CACTVS_SUBSKEYS>
AAADceBjMAIGAAAAAAAAAAAAAAAAAAAAAAAAAAAAAAAAAAAAAAAAHgIQiCAACAPhgEYAAABAAxAAQAAAAIAAAAAAAAAAAIAAAAAAEAAAAAAAQAABEAAAAAAAAAAAAAAAAAAAAAAAAAAAAAAAAAAAAAAAAA==

> <PUBCHEM_IUPAC_OPENEYE_NAME>
3-bis(2-chloroethylamino)phosphoryloxypropan-1-ol

> <PUBCHEM_IUPAC_CAS_NAME>
3-bis(2-chloroethylamino)phosphoryloxy-1-propanol

> <PUBCHEM_IUPAC_NAME>
3-bis(2-chloroethylamino)phosphoryloxypropan-1-ol

> <PUBCHEM_IUPAC_SYSTEMATIC_NAME>
3-bis(2-chloroethylamino)phosphoryloxypropan-1-ol

> <PUBCHEM_IUPAC_TRADITIONAL_NAME>
3-bis(2-chloroethylamino)phosphoryloxypropan-1-ol

> <PUBCHEM_IUPAC_INCHI>
InChI=1S/C7H17Cl2N2O3P/c8-2-4-10-15(13,11-5-3-9)14-7-1-6-12/h12H,1-7H2,(H2,10,11,13)

> <PUBCHEM_IUPAC_INCHIKEY>
JOAQXFLTMDRBOD-UHFFFAOYSA-N

> <PUBCHEM_XLOGP3_AA>
-0.2

> <PUBCHEM_EXACT_MASS>
278.035384

> <PUBCHEM_MOLECULAR_FORMULA>
C7H17Cl2N2O3P

> <PUBCHEM_MOLECULAR_WEIGHT>
279.101242

> <PUBCHEM_OPENEYE_CAN_SMILES>
C(CO)COP(=O)(NCCCl)NCCCl

> <PUBCHEM_OPENEYE_ISO_SMILES>
C(CO)COP(=O)(NCCCl)NCCCl

> <PUBCHEM_CACTVS_TPSA>
70.6

> <PUBCHEM_MONOISOTOPIC_WEIGHT>
278.035384

> <PUBCHEM_TOTAL_CHARGE>
0

> <PUBCHEM_HEAVY_ATOM_COUNT>
15

> <PUBCHEM_ATOM_DEF_STEREO_COUNT>
0

> <PUBCHEM_ATOM_UDEF_STEREO_COUNT>
0

> <PUBCHEM_BOND_DEF_STEREO_COUNT>
0

> <PUBCHEM_BOND_UDEF_STEREO_COUNT>
0

> <PUBCHEM_ISOTOPIC_ATOM_COUNT>
0

> <PUBCHEM_COMPONENT_COUNT>
1

> <PUBCHEM_CACTVS_TAUTO_COUNT>
2

> <PUBCHEM_COORDINATE_TYPE>
1
5
255

$$$$

