23425033
  -OEChem-07051213092D

 43 44  0     1  0  0  0  0  0999 V2000
    4.0000   -2.5981    0.0000 S   0  0  0  0  0  0  0  0  0  0  0  0
    5.0000   -0.8660    0.0000 N   0  0  0  0  0  0  0  0  0  0  0  0
    5.0000    0.8660    0.0000 C   0  0  2  0  0  0  0  0  0  0  0  0
    4.5000    0.0000    0.0000 C   0  0  1  0  0  0  0  0  0  0  0  0
    4.5000    1.7320    0.0000 C   0  0  1  0  0  0  0  0  0  0  0  0
    3.5000    0.0000    0.0000 C   0  0  1  0  0  0  0  0  0  0  0  0
    5.5878    0.0570    0.0000 C   0  0  0  0  0  0  0  0  0  0  0  0
    3.5000    1.7320    0.0000 C   0  0  0  0  0  0  0  0  0  0  0  0
    3.0000    0.8660    0.0000 C   0  0  0  0  0  0  0  0  0  0  0  0
    5.5878    1.6750    0.0000 C   0  0  0  0  0  0  0  0  0  0  0  0
    3.0000   -0.8660    0.0000 C   0  0  0  0  0  0  0  0  0  0  0  0
    6.5388    0.3660    0.0000 C   0  0  0  0  0  0  0  0  0  0  0  0
    6.5388    1.3660    0.0000 C   0  0  0  0  0  0  0  0  0  0  0  0
    5.0000    2.5981    0.0000 C   0  0  0  0  0  0  0  0  0  0  0  0
    2.0000   -0.8660    0.0000 C   0  0  0  0  0  0  0  0  0  0  0  0
    3.5000   -1.7320    0.0000 C   0  0  0  0  0  0  0  0  0  0  0  0
    7.3479    1.9538    0.0000 C   0  0  0  0  0  0  0  0  0  0  0  0
    4.5000   -1.7320    0.0000 C   0  0  0  0  0  0  0  0  0  0  0  0
    4.1900   -0.5369    0.0000 H   0  0  0  0  0  0  0  0  0  0  0  0
    4.1900    2.2690    0.0000 H   0  0  0  0  0  0  0  0  0  0  0  0
    2.8800    0.0000    0.0000 H   0  0  0  0  0  0  0  0  0  0  0  0
    5.0508   -0.2530    0.0000 H   0  0  0  0  0  0  0  0  0  0  0  0
    5.8400   -0.5094    0.0000 H   0  0  0  0  0  0  0  0  0  0  0  0
    3.6077    2.3426    0.0000 H   0  0  0  0  0  0  0  0  0  0  0  0
    2.9174    1.9441    0.0000 H   0  0  0  0  0  0  0  0  0  0  0  0
    2.5250    1.2646    0.0000 H   0  0  0  0  0  0  0  0  0  0  0  0
    2.5250    0.4675    0.0000 H   0  0  0  0  0  0  0  0  0  0  0  0
    5.3962    2.2647    0.0000 H   0  0  0  0  0  0  0  0  0  0  0  0
    2.6900   -1.4030    0.0000 H   0  0  0  0  0  0  0  0  0  0  0  0
    6.6678   -0.2404    0.0000 H   0  0  0  0  0  0  0  0  0  0  0  0
    7.1554    0.4308    0.0000 H   0  0  0  0  0  0  0  0  0  0  0  0
    5.5369    2.2881    0.0000 H   0  0  0  0  0  0  0  0  0  0  0  0
    5.3100    3.1350    0.0000 H   0  0  0  0  0  0  0  0  0  0  0  0
    4.4631    2.9081    0.0000 H   0  0  0  0  0  0  0  0  0  0  0  0
    2.0000   -0.2460    0.0000 H   0  0  0  0  0  0  0  0  0  0  0  0
    1.3800   -0.8660    0.0000 H   0  0  0  0  0  0  0  0  0  0  0  0
    2.0000   -1.4860    0.0000 H   0  0  0  0  0  0  0  0  0  0  0  0
    2.9631   -2.0420    0.0000 H   0  0  0  0  0  0  0  0  0  0  0  0
    3.8100   -2.2690    0.0000 H   0  0  0  0  0  0  0  0  0  0  0  0
    4.0369   -1.4220    0.0000 H   0  0  0  0  0  0  0  0  0  0  0  0
    7.7123    1.4522    0.0000 H   0  0  0  0  0  0  0  0  0  0  0  0
    7.8494    2.3182    0.0000 H   0  0  0  0  0  0  0  0  0  0  0  0
    6.9834    2.4554    0.0000 H   0  0  0  0  0  0  0  0  0  0  0  0
  1 18  2  0  0  0  0
  4  2  1  6  0  0  0
  2 18  2  0  0  0  0
  3  4  1  0  0  0  0
  3  5  1  0  0  0  0
  3  7  1  6  0  0  0
  3 10  1  0  0  0  0
  4  6  1  0  0  0  0
  4 19  1  0  0  0  0
  5  8  1  0  0  0  0
  5 14  1  1  0  0  0
  5 20  1  0  0  0  0
  6  9  1  0  0  0  0
  6 11  1  6  0  0  0
  6 21  1  0  0  0  0
  7 12  1  0  0  0  0
  7 22  1  0  0  0  0
  7 23  1  0  0  0  0
  8  9  1  0  0  0  0
  8 24  1  0  0  0  0
  8 25  1  0  0  0  0
  9 26  1  0  0  0  0
  9 27  1  0  0  0  0
 10 13  2  0  0  0  0
 10 28  1  0  0  0  0
 11 15  1  0  0  0  0
 11 16  1  0  0  0  0
 11 29  1  0  0  0  0
 12 13  1  0  0  0  0
 12 30  1  0  0  0  0
 12 31  1  0  0  0  0
 13 17  1  0  0  0  0
 14 32  1  0  0  0  0
 14 33  1  0  0  0  0
 14 34  1  0  0  0  0
 15 35  1  0  0  0  0
 15 36  1  0  0  0  0
 15 37  1  0  0  0  0
 16 38  1  0  0  0  0
 16 39  1  0  0  0  0
 16 40  1  0  0  0  0
 17 41  1  0  0  0  0
 17 42  1  0  0  0  0
 17 43  1  0  0  0  0
M  END
> <PUBCHEM_COMPOUND_CID>
23425033

> <PUBCHEM_COMPOUND_CANONICALIZED>
1

> <PUBCHEM_CACTVS_COMPLEXITY>
392

> <PUBCHEM_CACTVS_HBOND_ACCEPTOR>
2

> <PUBCHEM_CACTVS_HBOND_DONOR>
0

> <PUBCHEM_CACTVS_ROTATABLE_BOND>
2

> <PUBCHEM_CACTVS_SUBSKEYS>
AAADceB6AABAAAAAAAAAAAAAAAAAAQAAAAAwAAAAAAAAAAAAAAAAHAQAAAAADyjBAAQCAAIAAACkAiBCBAAAAAAgAAAACAAAAAgAAAIAgQAAAAAAgAAIAAMQgMAPgAAAAAAAAACAAASAACQAAAAAAAAAAA==

> <PUBCHEM_IUPAC_OPENEYE_NAME>
(5S,6R,9S,10R)-9-isopropyl-10-isothiocyanato-3,6-dimethyl-spiro[4.5]dec-3-ene

> <PUBCHEM_IUPAC_CAS_NAME>
(5S,6R,9S,10R)-10-isothiocyanato-3,6-dimethyl-9-propan-2-ylspiro[4.5]dec-3-ene

> <PUBCHEM_IUPAC_NAME>
(5S,6R,9S,10R)-10-isothiocyanato-3,6-dimethyl-9-propan-2-ylspiro[4.5]dec-3-ene

> <PUBCHEM_IUPAC_SYSTEMATIC_NAME>
(5S,6R,9S,10R)-10-isothiocyanato-3,6-dimethyl-9-propan-2-yl-spiro[4.5]dec-3-ene

> <PUBCHEM_IUPAC_TRADITIONAL_NAME>
(5S,6R,9S,10R)-9-isopropyl-10-isothiocyanato-3,6-dimethyl-spiro[4.5]dec-3-ene

> <PUBCHEM_IUPAC_INCHI>
InChI=1S/C16H25NS/c1-11(2)14-6-5-13(4)16(15(14)17-10-18)8-7-12(3)9-16/h9,11,13-15H,5-8H2,1-4H3/t13-,14+,15-,16-/m1/s1

> <PUBCHEM_IUPAC_INCHIKEY>
QEUKPIZJCSOXDW-QKPAOTATSA-N

> <PUBCHEM_XLOGP3_AA>
5.9

> <PUBCHEM_EXACT_MASS>
263.170771

> <PUBCHEM_MOLECULAR_FORMULA>
C16H25NS

> <PUBCHEM_MOLECULAR_WEIGHT>
263.4414

> <PUBCHEM_OPENEYE_CAN_SMILES>
CC1CCC(C(C12CCC(=C2)C)N=C=S)C(C)C

> <PUBCHEM_OPENEYE_ISO_SMILES>
C[C@@H]1CC[C@H]([C@H]([C@@]12CCC(=C2)C)N=C=S)C(C)C

> <PUBCHEM_CACTVS_TPSA>
44.4

> <PUBCHEM_MONOISOTOPIC_WEIGHT>
263.170771

> <PUBCHEM_TOTAL_CHARGE>
0

> <PUBCHEM_HEAVY_ATOM_COUNT>
18

> <PUBCHEM_ATOM_DEF_STEREO_COUNT>
4

> <PUBCHEM_ATOM_UDEF_STEREO_COUNT>
0

> <PUBCHEM_BOND_DEF_STEREO_COUNT>
0

> <PUBCHEM_BOND_UDEF_STEREO_COUNT>
0

> <PUBCHEM_ISOTOPIC_ATOM_COUNT>
0

> <PUBCHEM_COMPONENT_COUNT>
1

> <PUBCHEM_CACTVS_TAUTO_COUNT>
1

> <PUBCHEM_COORDINATE_TYPE>
1
5
255

> <PUBCHEM_BONDANNOTATIONS>
4  2  6
3  7  6
5  14  5
6  11  6

$$$$

