   Color/Form

     * WHITE POWDER
     * Fluffy, colorless to white (sometimes dyed black) powder [Note: A
       liquid above 95 degrees F].
     * Colorless hygroscopic powder

   from [1]HSDB

   Odor
        Odorless.
   from [2]HSDB

   Melting Point
        200-202 deg C; decomposes above melting point
   from [3]HSDB

   Dissociation Constants
        pKa= 2.72 @ 25 deg C
   from [4]HSDB

   Solubilities

     * Almost insoluble in ethanol, acetone, and petroleum oils.
     * Solubility (g/100 g) at 25 deg C in: methanol: 5; ethanol: 1.4;
       acetone: 0.04; carbon tetrachloride:0.004.
     * Solubility (g/100 g) at 25 deg C in: water: 111

   from [5]HSDB

   Vapor Pressure
        Approx 0.0 mm Hg at 20 deg C
   from [6]HSDB

   Other Chemical/Physical Properties

     * Hygroscopic
     * VP: Non-volatile

   from [7]HSDB

   Computed Properties
   Molecular Weight                  100.024252 [g/mol]
   Molecular Formula                 C[2]H[2]FNaO[2]
   H-Bond Donor                      0
   H-Bond Acceptor                   3
   Rotatable Bond Count              1
   Exact Mass                        99.993652
   MonoIsotopic Mass                 99.993652
   Topological Polar Surface Area    40.1
   Heavy Atom Count                  6
   Formal Charge                     0
   Complexity                        46.8
   Isotope Atom Count                0
   Defined Atom Stereocenter Count   0
   Undefined Atom Stereocenter Count 0
   Defined Bond Stereocenter Count   0
   Undefined Bond Stereocenter Count 0
   Covalently-Bonded Unit Count      2

References

   1. http://toxnet.nlm.nih.gov/cgi-bin/sis/search/r?dbs+hsdb:@term+@rn+@rel+62-74-8
   2. http://toxnet.nlm.nih.gov/cgi-bin/sis/search/r?dbs+hsdb:@term+@rn+@rel+62-74-8
   3. http://toxnet.nlm.nih.gov/cgi-bin/sis/search/r?dbs+hsdb:@term+@rn+@rel+62-74-8
   4. http://toxnet.nlm.nih.gov/cgi-bin/sis/search/r?dbs+hsdb:@term+@rn+@rel+62-74-8
   5. http://toxnet.nlm.nih.gov/cgi-bin/sis/search/r?dbs+hsdb:@term+@rn+@rel+62-74-8
   6. http://toxnet.nlm.nih.gov/cgi-bin/sis/search/r?dbs+hsdb:@term+@rn+@rel+62-74-8
   7. http://toxnet.nlm.nih.gov/cgi-bin/sis/search/r?dbs+hsdb:@term+@rn+@rel+62-74-8
