   Color/Form

     * Minute hexagonal plates from dilute alcohol
     * Colorless or white, lustrous plates or as white, crystalline powder

   from [1]HSDB

   Odor
        Faint
   from [2]HSDB

   Taste
        Sulfurous
   from [3]HSDB

   Boiling Point
        181 deg C (decomposes)
   from [4]HSDB

   Melting Point
        280-282 deg C (decomposes, sealed capillary)
   from [5]HSDB

   Dissociation Constants
        pKa = 2.28; pK2 = 9.21
   from [6]HSDB

   Octanol/Water Partition Coefficient
        log Kow = -1.87
   from [7]HSDB

   pH
        pH (1% aqueous solution) = 5.6-6.1
   from [8]HSDB

   Solubilities

     * Soluble in water but the crystals are somewhat water-repellant at
       first
     * Soluble in warm dilute alcohol; insoluble in absolute alcohol,
       ether, petroleum ether, benzene, acetone
     * Slightly soluble in acetic acid
     * In water, 56.6 g/L at 25 deg C

   from [9]HSDB

   Spectral Properties

     * MAX ABSORPTION (0.01 N HCL): 208 NM (SHOULDER) (LOG E= 3.2)
     * Specific optical rotation: 22.5 deg at 25 deg C/D (1 N HCl)
     * Specific optical rotation: -8.2 deg at 25 deg C/D (c = 0.8); +23.40
       at 20 deg C/D (c = 5.0 in 3.0N HCl)
     * MASS: 54346 (NIST/EPA/MSDC Mass Spectral Database, 1990 version)

   from [10]HSDB

   Vapor Pressure
        8.14X10-8 mm Hg at 25 deg C (est)
   from [11]HSDB

   Other Chemical/Physical Properties

     * Specific optical rotation: +8.12 deg at 25 deg C/D (c = 0.8);
       -21.19 deg at 25 deg C/D (c = 0.8 in 0.2N HCl) /Methione, D-form/
     * Platelets from alcohol. mp 281 deg C (decomposes), density 1.340;
       pKa1 = 2.28, pKa2 = 9.21; pH of 1% aqueous solution 5.6-6.1; Rf
       value 0.77. Solubility in water (g/L) at 0 deg C: 18.18; at 25 deg
       C: 33.81; at 50 deg C: 60/.70; at 75 deg C: 15.2 deg C. Soluble in
       dilute acids, alkalies. Very slightly soluble in 95% alcohol.
       Insoluble in ether. /Methionine, DL-form/
     * IR: 2549 (Coblentz Society Spectral Collection) /Methionine (DL)/
     * UV: 1-65 (Organic Electronic Spectral Data, Phillips et al, John
       Wiley & Sons, New York) /Methionine (DL)/
     * 13C NMR: 135 (Johnson and Jankowski, Carbon-13 NMR Spectra, John
       Wiley & Sons, New York) /Methionine (DL)/
     * MASS: 442 (National Bureau of Standards EPA-NIH Mass Spectra Data
       Base, NSRDS-NBS-63) /Methionine (DL)/
     * Henry's Law constant = 2.11X10-11 atm-cu m/mol at 25 deg C (est)
     * Hydroxyl radical reaction rate constant = 5.13X10-11 cu
       cm/molec-sec at 25 deg C (est)

   from [12]HSDB

   Computed Properties
   Molecular Weight                  149.21134 [g/mol]
   Molecular Formula                 C[5]H[11]NO[2]S
   XLogP3                            -1.9
   H-Bond Donor                      2
   H-Bond Acceptor                   4
   Rotatable Bond Count              4
   Exact Mass                        149.05105
   MonoIsotopic Mass                 149.05105
   Topological Polar Surface Area    88.6
   Heavy Atom Count                  9
   Formal Charge                     0
   Complexity                        97
   Isotope Atom Count                0
   Defined Atom Stereocenter Count   1
   Undefined Atom Stereocenter Count 0
   Defined Bond Stereocenter Count   0
   Undefined Bond Stereocenter Count 0
   Covalently-Bonded Unit Count      1
   Feature 3D Acceptor Count         2
   Feature 3D Donor Count            1
   Feature 3D Anion Count            1
   Feature 3D Cation Count           1
   Feature 3D Hydrophobe Count       1
   Effective Rotor Count             4
   Conformer Sampling RMSD           0.6
   CID Conformer Count               [13]36

References

   1. http://toxnet.nlm.nih.gov/cgi-bin/sis/search/r?dbs+hsdb:@term+@rn+@rel+63-68-3
   2. http://toxnet.nlm.nih.gov/cgi-bin/sis/search/r?dbs+hsdb:@term+@rn+@rel+63-68-3
   3. http://toxnet.nlm.nih.gov/cgi-bin/sis/search/r?dbs+hsdb:@term+@rn+@rel+63-68-3
   4. http://toxnet.nlm.nih.gov/cgi-bin/sis/search/r?dbs+hsdb:@term+@rn+@rel+63-68-3
   5. http://toxnet.nlm.nih.gov/cgi-bin/sis/search/r?dbs+hsdb:@term+@rn+@rel+63-68-3
   6. http://toxnet.nlm.nih.gov/cgi-bin/sis/search/r?dbs+hsdb:@term+@rn+@rel+63-68-3
   7. http://toxnet.nlm.nih.gov/cgi-bin/sis/search/r?dbs+hsdb:@term+@rn+@rel+63-68-3
   8. http://toxnet.nlm.nih.gov/cgi-bin/sis/search/r?dbs+hsdb:@term+@rn+@rel+63-68-3
   9. http://toxnet.nlm.nih.gov/cgi-bin/sis/search/r?dbs+hsdb:@term+@rn+@rel+63-68-3
  10. http://toxnet.nlm.nih.gov/cgi-bin/sis/search/r?dbs+hsdb:@term+@rn+@rel+63-68-3
  11. http://toxnet.nlm.nih.gov/cgi-bin/sis/search/r?dbs+hsdb:@term+@rn+@rel+63-68-3
  12. http://toxnet.nlm.nih.gov/cgi-bin/sis/search/r?dbs+hsdb:@term+@rn+@rel+63-68-3
  13. http://pubchem.ncbi.nlm.nih.gov/vw3d/vw3d.cgi?cid=6137
