   Color/Form
        PRISMS
   from [1]HSDB

   Boiling Point
        196 DEG C
   from [2]HSDB

   Melting Point
        60 DEG C
   from [3]HSDB

   Octanol/Water Partition Coefficient
        log Kow = 0.36
   from [4]HSDB

   Solubilities

     * SOL IN WATER, ETHANOL & DIETHYL ETHER
     * SOL IN ACETONE
     * In water, 7.64X10+4 mg/L at 25 deg C

   from [5]HSDB

   Vapor Pressure
        1 MM HG @ 52.4 DEG C
   from [6]HSDB

   Computed Properties
   Molecular Weight                  103.11976 [g/mol]
   Molecular Formula                 C[4]H[9]NO[2]
   XLogP3                            0.4
   H-Bond Donor                      1
   H-Bond Acceptor                   2
   Rotatable Bond Count              3
   Tautomer Count                    2
   Exact Mass                        103.063329
   MonoIsotopic Mass                 103.063329
   Topological Polar Surface Area    52.3
   Heavy Atom Count                  7
   Formal Charge                     0
   Complexity                        62.7
   Isotope Atom Count                0
   Defined Atom Stereocenter Count   0
   Undefined Atom Stereocenter Count 0
   Defined Bond Stereocenter Count   0
   Undefined Bond Stereocenter Count 0
   Covalently-Bonded Unit Count      1
   Feature 3D Acceptor Count         1
   Feature 3D Donor Count            1
   Feature 3D Hydrophobe Count       1
   Effective Rotor Count             3
   Conformer Sampling RMSD           0.4
   CID Conformer Count               [7]33

References

   1. http://toxnet.nlm.nih.gov/cgi-bin/sis/search/r?dbs+hsdb:@term+@rn+@rel+627-12-3
   2. http://toxnet.nlm.nih.gov/cgi-bin/sis/search/r?dbs+hsdb:@term+@rn+@rel+627-12-3
   3. http://toxnet.nlm.nih.gov/cgi-bin/sis/search/r?dbs+hsdb:@term+@rn+@rel+627-12-3
   4. http://toxnet.nlm.nih.gov/cgi-bin/sis/search/r?dbs+hsdb:@term+@rn+@rel+627-12-3
   5. http://toxnet.nlm.nih.gov/cgi-bin/sis/search/r?dbs+hsdb:@term+@rn+@rel+627-12-3
   6. http://toxnet.nlm.nih.gov/cgi-bin/sis/search/r?dbs+hsdb:@term+@rn+@rel+627-12-3
   7. http://pubchem.ncbi.nlm.nih.gov/vw3d/vw3d.cgi?cid=12306
