   Color/Form

     * Crystals from water
     * WHITE, CRYSTALLINE POWDER

   from [1]HSDB

   Odor
        SLIGHT ACETIC ODOR
   from [2]HSDB

   Taste
        CHARACTERISTIC SOUR TASTE
   from [3]HSDB

   Melting Point
        109.5 deg C
   from [4]HSDB

   Dissociation Constants
        pKa= 3.24 (carboxylic acid moiety)
   from [5]HSDB

   Octanol/Water Partition Coefficient
        log Kow = -0.66 /Estimated/
   from [6]HSDB

   pH
        2 TO 2.75 (1 IN 100 ML)
   from [7]HSDB

   Solubilities

     * 1 G IN 5 ML WATER, 4 ML ALC; PRACTICALLY INSOL IN CHLOROFORM &
       ETHER
     * Soluble in water, alcohol, hot isopropyl alcohol, methyl acetate,
       and ethyl acetate

   from [8]HSDB

   Spectral Properties

     * Specific optical rotation: +5 deg at 20 deg C (concn = 3 g/100 mL
       water)
     * MASS: 75327 (NIST/EPA/MSDC Mass Specral Database 1990 Version)

   from [9]HSDB

   Vapor Pressure
        1.1X10-5 mm Hg at 25 deg C /Estimated/
   from [10]HSDB

   Other Chemical/Physical Properties

     * pKa = 9.52 (SH group)
     * It is stable in ordinary light, nonhygroscopic (oxidizes in moist
       air), and stable at temperatures up to 120 deg C
     * Henry's Law constant = 1.7X10-13 atm-cu m/mole at 25 deg C
       /Estimated/
     * Hydroxyl radical reaction rate constant = 5.5X10-11 cu cm/molec-sec
       at 25 deg C /Estimated/

   from [11]HSDB

   Computed Properties
   Molecular Weight                  163.19486 [g/mol]
   Molecular Formula                 C[5]H[9]NO[3]S
   XLogP3                            0.4
   H-Bond Donor                      3
   H-Bond Acceptor                   4
   Rotatable Bond Count              3
   Tautomer Count                    2
   Exact Mass                        163.030314
   MonoIsotopic Mass                 163.030314
   Topological Polar Surface Area    67.4
   Heavy Atom Count                  10
   Formal Charge                     0
   Complexity                        148
   Isotope Atom Count                0
   Defined Atom Stereocenter Count   0
   Undefined Atom Stereocenter Count 1
   Defined Bond Stereocenter Count   0
   Undefined Bond Stereocenter Count 0
   Covalently-Bonded Unit Count      1
   Feature 3D Acceptor Count         3
   Feature 3D Donor Count            1
   Feature 3D Anion Count            1
   Effective Rotor Count             4
   Conformer Sampling RMSD           0.6
   CID Conformer Count               [12]26

References

   1. http://toxnet.nlm.nih.gov/cgi-bin/sis/search/r?dbs+hsdb:@term+@rn+@rel+616-91-1
   2. http://toxnet.nlm.nih.gov/cgi-bin/sis/search/r?dbs+hsdb:@term+@rn+@rel+616-91-1
   3. http://toxnet.nlm.nih.gov/cgi-bin/sis/search/r?dbs+hsdb:@term+@rn+@rel+616-91-1
   4. http://toxnet.nlm.nih.gov/cgi-bin/sis/search/r?dbs+hsdb:@term+@rn+@rel+616-91-1
   5. http://toxnet.nlm.nih.gov/cgi-bin/sis/search/r?dbs+hsdb:@term+@rn+@rel+616-91-1
   6. http://toxnet.nlm.nih.gov/cgi-bin/sis/search/r?dbs+hsdb:@term+@rn+@rel+616-91-1
   7. http://toxnet.nlm.nih.gov/cgi-bin/sis/search/r?dbs+hsdb:@term+@rn+@rel+616-91-1
   8. http://toxnet.nlm.nih.gov/cgi-bin/sis/search/r?dbs+hsdb:@term+@rn+@rel+616-91-1
   9. http://toxnet.nlm.nih.gov/cgi-bin/sis/search/r?dbs+hsdb:@term+@rn+@rel+616-91-1
  10. http://toxnet.nlm.nih.gov/cgi-bin/sis/search/r?dbs+hsdb:@term+@rn+@rel+616-91-1
  11. http://toxnet.nlm.nih.gov/cgi-bin/sis/search/r?dbs+hsdb:@term+@rn+@rel+616-91-1
  12. http://pubchem.ncbi.nlm.nih.gov/vw3d/vw3d.cgi?cid=581
