   Color/Form

     * OILY LIQ
     * COLORLESS TO SLIGHTLY YELLOW

   from [1]HSDB

   Odor

     * CHARACTERISTIC HAWTHORN ODOR
     * ODOR RESEMBLES THAT OF COUMARIN

   from [2]HSDB

   Boiling Point
        249.5 DEG C @ 760 MM HG
   from [3]HSDB

   Melting Point
        0 DEG C
   from [4]HSDB

   Density/Specific Gravity
        1.1191 @ 15 DEG C/4 DEG C
   from [5]HSDB

   Solubilities

     * SOL IN ALL PROP IN ALC & ETHER; VERY SOL IN ACETONE; SOL IN
       CHLOROFORM & BENZENE; INSOL IN WATER
     * SOL IN MOST ORGANIC SOLVENTS; @ LEAST 99% SOL IN SODIUM BISULFITE
       SOLN

   from [6]HSDB

   Spectral Properties

     * INDEX OF REFRACTION: 1.5730 @ 20 DEG C/D; MAX ABSORPTION (HEXANE):
       272 NM (LOG E= 4.20); 278 NM (LOG E= 4.10); 286 NM (LOG E= 3.74);
       SADTLER REFERENCE NUMBER: 1946 (IR, PRISM); 10848 (IR, GRATING);
       126 (NMR)
     * IR: 1081 (Coblentz Society Spectral Collection)
     * UV: 536 (Sadtler Research Laboratories Spectral Collection)
     * NMR: 194 (Varian Associates NMR Spectra Catalogue)
     * MASS: 694 (Atlas of Mass Spectral Data, John Wiley & Sons, New
       York)

   from [7]HSDB

   Vapor Density
        4.7 (AIR= 1)
   from [8]HSDB

   Vapor Pressure
        1 MM HG @ 73 DEG C
   from [9]HSDB

   Other Chemical/Physical Properties

     * ASSAY: 97.5% MIN (97-99%); CONGEALING POINT: -1 DEG C MIN; ACID
       VALUE: 6 MAX;
     * CONVERSION FACTORS: 1 MG/L= 180 PPM; 1 PPM= 5.6 MG/CU M
     * IR: 329 (Coblentz Society Spectral Collection) /o-Anisaldehyde/
     * UV: 3456 (Sadtler Research Laboratories Spectral Collection)
       /o-Anisaldehyde/
     * NMR: 1895 (Sadtler Research Laboratories Spectral Collection)
       /o-Anisaldehyde/
     * MASS: 94 (Aldermaston, Eight Peak Index of Mass Spectra, UK)
       /o-Anisaldehyde/
     * IR: 17084 (Sadtler Research Laboratories IR Grating Collection)
       /m-Anisaldehyde/
     * UV: 16956 (Sadtler Research Laboratories Spectral Collection)
       /m-Anisaldehyde/
     * MASS: 83 (Aldermaston, Eight Peak Index of Mass Spectra, UK)
       /m-Anisaldehyde/
     * NMR: 8849 (Sadtler Research Laboratories Spectral Collection)
       /m-Anisaldehyde/

   from [10]HSDB

   Computed Properties
   Molecular Weight                  136.14792 [g/mol]
   Molecular Formula                 C[8]H[8]O[2]
   XLogP3                            1.8
   H-Bond Donor                      0
   H-Bond Acceptor                   2
   Rotatable Bond Count              2
   Exact Mass                        136.052429
   MonoIsotopic Mass                 136.052429
   Topological Polar Surface Area    26.3
   Heavy Atom Count                  10
   Formal Charge                     0
   Complexity                        104
   Isotope Atom Count                0
   Defined Atom Stereocenter Count   0
   Undefined Atom Stereocenter Count 0
   Defined Bond Stereocenter Count   0
   Undefined Bond Stereocenter Count 0
   Covalently-Bonded Unit Count      1
   Feature 3D Acceptor Count         2
   Feature 3D Ring Count             1
   Effective Rotor Count             2
   Conformer Sampling RMSD           0.4
   CID Conformer Count               [11]2

References

   1. http://toxnet.nlm.nih.gov/cgi-bin/sis/search/r?dbs+hsdb:@term+@rn+@rel+123-11-5
   2. http://toxnet.nlm.nih.gov/cgi-bin/sis/search/r?dbs+hsdb:@term+@rn+@rel+123-11-5
   3. http://toxnet.nlm.nih.gov/cgi-bin/sis/search/r?dbs+hsdb:@term+@rn+@rel+123-11-5
   4. http://toxnet.nlm.nih.gov/cgi-bin/sis/search/r?dbs+hsdb:@term+@rn+@rel+123-11-5
   5. http://toxnet.nlm.nih.gov/cgi-bin/sis/search/r?dbs+hsdb:@term+@rn+@rel+123-11-5
   6. http://toxnet.nlm.nih.gov/cgi-bin/sis/search/r?dbs+hsdb:@term+@rn+@rel+123-11-5
   7. http://toxnet.nlm.nih.gov/cgi-bin/sis/search/r?dbs+hsdb:@term+@rn+@rel+123-11-5
   8. http://toxnet.nlm.nih.gov/cgi-bin/sis/search/r?dbs+hsdb:@term+@rn+@rel+123-11-5
   9. http://toxnet.nlm.nih.gov/cgi-bin/sis/search/r?dbs+hsdb:@term+@rn+@rel+123-11-5
  10. http://toxnet.nlm.nih.gov/cgi-bin/sis/search/r?dbs+hsdb:@term+@rn+@rel+123-11-5
  11. http://pubchem.ncbi.nlm.nih.gov/vw3d/vw3d.cgi?cid=31244
