9352
  -OEChem-06261203382D

 37 39  0     0  0  0  0  0  0999 V2000
    3.2827   -1.3027    0.0000 O   0  0  0  0  0  0  0  0  0  0  0  0
   11.0254   -1.3027    0.0000 O   0  0  0  0  0  0  0  0  0  0  0  0
    3.6493    0.3901    0.0000 N   0  0  0  0  0  0  0  0  0  0  0  0
   10.6587    0.3901    0.0000 N   0  0  0  0  0  0  0  0  0  0  0  0
    7.1540    1.3027    0.0000 C   0  0  0  0  0  0  0  0  0  0  0  0
    7.9630    0.7149    0.0000 C   0  0  0  0  0  0  0  0  0  0  0  0
    6.3450    0.7149    0.0000 C   0  0  0  0  0  0  0  0  0  0  0  0
    7.6540   -0.2362    0.0000 C   0  0  0  0  0  0  0  0  0  0  0  0
    6.6540   -0.2362    0.0000 C   0  0  0  0  0  0  0  0  0  0  0  0
    8.9784    0.9471    0.0000 C   0  0  0  0  0  0  0  0  0  0  0  0
    5.3296    0.9471    0.0000 C   0  0  0  0  0  0  0  0  0  0  0  0
    5.9691   -1.0209    0.0000 C   0  0  0  0  0  0  0  0  0  0  0  0
    8.3390   -1.0209    0.0000 C   0  0  0  0  0  0  0  0  0  0  0  0
    9.6814    0.1784    0.0000 C   0  0  0  0  0  0  0  0  0  0  0  0
    4.6267    0.1784    0.0000 C   0  0  0  0  0  0  0  0  0  0  0  0
    4.9486   -0.8122    0.0000 C   0  0  0  0  0  0  0  0  0  0  0  0
    9.3595   -0.8122    0.0000 C   0  0  0  0  0  0  0  0  0  0  0  0
   11.3307   -0.3504    0.0000 C   0  0  0  0  0  0  0  0  0  0  0  0
    2.9773   -0.3504    0.0000 C   0  0  0  0  0  0  0  0  0  0  0  0
   12.3081   -0.1388    0.0000 C   0  0  0  0  0  0  0  0  0  0  0  0
    2.0000   -0.1388    0.0000 C   0  0  0  0  0  0  0  0  0  0  0  0
    7.5689    1.7634    0.0000 H   0  0  0  0  0  0  0  0  0  0  0  0
    6.7392    1.7634    0.0000 H   0  0  0  0  0  0  0  0  0  0  0  0
    9.1632    1.5390    0.0000 H   0  0  0  0  0  0  0  0  0  0  0  0
    5.1448    1.5390    0.0000 H   0  0  0  0  0  0  0  0  0  0  0  0
    8.1406   -1.6083    0.0000 H   0  0  0  0  0  0  0  0  0  0  0  0
    6.1674   -1.6083    0.0000 H   0  0  0  0  0  0  0  0  0  0  0  0
    9.7726   -1.2746    0.0000 H   0  0  0  0  0  0  0  0  0  0  0  0
    4.5355   -1.2746    0.0000 H   0  0  0  0  0  0  0  0  0  0  0  0
    3.4600    0.9805    0.0000 H   0  0  0  0  0  0  0  0  0  0  0  0
   10.8480    0.9805    0.0000 H   0  0  0  0  0  0  0  0  0  0  0  0
   12.4393   -0.7447    0.0000 H   0  0  0  0  0  0  0  0  0  0  0  0
    2.1312    0.4672    0.0000 H   0  0  0  0  0  0  0  0  0  0  0  0
    1.3940   -0.0075    0.0000 H   0  0  0  0  0  0  0  0  0  0  0  0
    1.8688   -0.7447    0.0000 H   0  0  0  0  0  0  0  0  0  0  0  0
   12.9140   -0.0075    0.0000 H   0  0  0  0  0  0  0  0  0  0  0  0
   12.1768    0.4672    0.0000 H   0  0  0  0  0  0  0  0  0  0  0  0
  1 19  2  0  0  0  0
  2 18  2  0  0  0  0
  3 15  1  0  0  0  0
  3 19  1  0  0  0  0
  3 30  1  0  0  0  0
  4 14  1  0  0  0  0
  4 18  1  0  0  0  0
  4 31  1  0  0  0  0
  5  6  1  0  0  0  0
  5  7  1  0  0  0  0
  5 22  1  0  0  0  0
  5 23  1  0  0  0  0
  6  8  2  0  0  0  0
  6 10  1  0  0  0  0
  7  9  2  0  0  0  0
  7 11  1  0  0  0  0
  8  9  1  0  0  0  0
  8 13  1  0  0  0  0
  9 12  1  0  0  0  0
 10 14  2  0  0  0  0
 10 24  1  0  0  0  0
 11 15  2  0  0  0  0
 11 25  1  0  0  0  0
 12 16  2  0  0  0  0
 12 27  1  0  0  0  0
 13 17  2  0  0  0  0
 13 26  1  0  0  0  0
 14 17  1  0  0  0  0
 15 16  1  0  0  0  0
 16 29  1  0  0  0  0
 17 28  1  0  0  0  0
 18 20  1  0  0  0  0
 19 21  1  0  0  0  0
 20 32  1  0  0  0  0
 20 36  1  0  0  0  0
 20 37  1  0  0  0  0
 21 33  1  0  0  0  0
 21 34  1  0  0  0  0
 21 35  1  0  0  0  0
M  END
> <PUBCHEM_COMPOUND_CID>
9352

> <PUBCHEM_COMPOUND_CANONICALIZED>
1

> <PUBCHEM_CACTVS_COMPLEXITY>
385

> <PUBCHEM_CACTVS_HBOND_ACCEPTOR>
2

> <PUBCHEM_CACTVS_HBOND_DONOR>
2

> <PUBCHEM_CACTVS_ROTATABLE_BOND>
2

> <PUBCHEM_CACTVS_SUBSKEYS>
AAADceB7MAAAAAAAAAAAAAAAAAAAAYAAAAAwYAAAAAAAAGABQAAAHgAQAAAADAiBmAAywILAAACIAiVSUACCAAAhAgAIiAAAZIgIICLAkZGEIAhglADIyAcQgMAOiAAAQAAQAAAQAACAACAAAQAACAAAAA==

> <PUBCHEM_IUPAC_OPENEYE_NAME>
N-(7-acetamido-9H-fluoren-2-yl)acetamide

> <PUBCHEM_IUPAC_CAS_NAME>
N-(7-acetamido-9H-fluoren-2-yl)acetamide

> <PUBCHEM_IUPAC_NAME>
N-(7-acetamido-9H-fluoren-2-yl)acetamide

> <PUBCHEM_IUPAC_SYSTEMATIC_NAME>
N-(7-acetamido-9H-fluoren-2-yl)ethanamide

> <PUBCHEM_IUPAC_TRADITIONAL_NAME>
N-(7-acetamido-9H-fluoren-2-yl)acetamide

> <PUBCHEM_IUPAC_INCHI>
InChI=1S/C17H16N2O2/c1-10(20)18-14-3-5-16-12(8-14)7-13-9-15(19-11(2)21)4-6-17(13)16/h3-6,8-9H,7H2,1-2H3,(H,18,20)(H,19,21)

> <PUBCHEM_IUPAC_INCHIKEY>
XBZBRCVCSVLJJZ-UHFFFAOYSA-N

> <PUBCHEM_XLOGP3>
2.4

> <PUBCHEM_EXACT_MASS>
280.121178

> <PUBCHEM_MOLECULAR_FORMULA>
C17H16N2O2

> <PUBCHEM_MOLECULAR_WEIGHT>
280.32114

> <PUBCHEM_OPENEYE_CAN_SMILES>
CC(=O)NC1=CC2=C(C=C1)C3=C(C2)C=C(C=C3)NC(=O)C

> <PUBCHEM_OPENEYE_ISO_SMILES>
CC(=O)NC1=CC2=C(C=C1)C3=C(C2)C=C(C=C3)NC(=O)C

> <PUBCHEM_CACTVS_TPSA>
58.2

> <PUBCHEM_MONOISOTOPIC_WEIGHT>
280.121178

> <PUBCHEM_TOTAL_CHARGE>
0

> <PUBCHEM_HEAVY_ATOM_COUNT>
21

> <PUBCHEM_ATOM_DEF_STEREO_COUNT>
0

> <PUBCHEM_ATOM_UDEF_STEREO_COUNT>
0

> <PUBCHEM_BOND_DEF_STEREO_COUNT>
0

> <PUBCHEM_BOND_UDEF_STEREO_COUNT>
0

> <PUBCHEM_ISOTOPIC_ATOM_COUNT>
0

> <PUBCHEM_COMPONENT_COUNT>
1

> <PUBCHEM_CACTVS_TAUTO_COUNT>
6

> <PUBCHEM_COORDINATE_TYPE>
1
5
255

> <PUBCHEM_BONDANNOTATIONS>
10  14  8
11  15  8
12  16  8
13  17  8
14  17  8
15  16  8
6  10  8
6  8  8
7  11  8
7  9  8
8  13  8
9  12  8

$$$$

