   Color/Form
        COLORLESS LIQUID
   from [1]HSDB

   Odor

     * STRONG PEAR, BANANA ODOR
     * Fruity odor

   from [2]HSDB

   Taste

     * STRONG PEAR, BANANA TASTE
     * Slight apple taste

   from [3]HSDB

   Boiling Point
        142.5 DEG C
   from [4]HSDB

   Melting Point
        -78.5 DEG C
   from [5]HSDB

   Critical Temperature and Pressure
        CRITICAL TEMP: 326.1 DEG C; CRITICAL PRESSURE: 28 ATM
   from [6]HSDB

   Density/Specific Gravity
        0.876 AT 15 DEG C/4 DEG C
   from [7]HSDB

   Heat of Combustion
        -14,402 Btu/lb = -8000 cal/g
   from [8]HSDB

   Heat of Vaporization
        10,494.9 g cal/g mol (multiply by 4.184 for J/g mol)
   from [9]HSDB

   Solubilities

     * MISCIBLE WITH ETHYL ACETATE, ALC, ETHER, AMYL ALCOHOL. SOL OF WATER
       IN ISOAMYL ACETATE (25 DEG) 1.6% BY VOL.
     * SOL IN ACETONE, VERY SOLUBLE IN ETHANOL AND ETHER
     * Miscible with oils, hydrocarbons, alcohols, ethers, and esters.
     * In water, 2000 mg/l at 25 deg C.

   from [10]HSDB

   Spectral Properties

     * INDEX OF REFRACTION: 1.4003 AT 20 DEG C/D; SADTLER REFERENCE
       NUMBER: 6650 (IR, PRISM); 281 (NMR)
     * INDEX OF REFRACTION: 1.400 AT 20 DEG C/D
     * IR: 2:320G (Aldrich Library of Infrared Spectra, Aldrich Chemical
       Co, Milwaukee, WI)
     * NMR: 3:21C (Aldrich Library of Mass Spectra, Aldrich Chemical Co,
       Milwaukee, WI)

   from [11]HSDB

   Vapor Density
        4.5 (AIR= 1)
   from [12]HSDB

   Vapor Pressure
        5.6 mm Hg at 25 deg C /from experimentally derived coefficients/
   from [13]HSDB

   Relative Evaporation Rate
        Evaporation rate (butyl acetate = 1): 0.42
   from [14]HSDB

   Viscosity
        1.030 cP at 8.97 deg C; 0.872 cP at 19.91 deg C.
   from [15]HSDB

   Other Chemical/Physical Properties

     * 1 MG/L IS EQUIVALENT TO 188 PPM; 1 PPM IS EQUIVALENT TO 5.32 MG/CU
       M
     * BP: 120-145 DEG C /COMMERCIAL GRADE/
     * YELLOWISH LIQUID /COMMERCIAL PRODUCT/
     * DENSITY OF SATURATED AIR 1.03 (AIR= 1)
     * Heat of combustion: -1042.5 kcal/g mol at 20 deg C /Amyl acetate/
     * Will dissolve such substances as camphor, elemi, ester gums, copal
       ester, copals, dammar, kauri, rosin, sandarac, tannins, waxes,
       zanzibar, and "Cumar" resins.
     * Viscosity: 60 CENTIPOISE /90-95% grade/
     * Evaporation rate at 95 deg F: 5% for 1 1/4 min; 95% for 40 min.
       /90-95% grade/
     * Weighs 7.2 lb/gallon. /Amyl acetate/
     * When heated emits fumes with an acrid odor.
     * Henry's Law constant = 5.87X10-4 atm-cu m/mol

   from [16]HSDB

   Computed Properties
   Molecular Weight                  130.18486 [g/mol]
   Molecular Formula                 C[7]H[14]O[2]
   XLogP3                            2
   H-Bond Donor                      0
   H-Bond Acceptor                   2
   Rotatable Bond Count              4
   Exact Mass                        130.09938
   MonoIsotopic Mass                 130.09938
   Topological Polar Surface Area    26.3
   Heavy Atom Count                  9
   Formal Charge                     0
   Complexity                        86.9
   Isotope Atom Count                0
   Defined Atom Stereocenter Count   0
   Undefined Atom Stereocenter Count 0
   Defined Bond Stereocenter Count   0
   Undefined Bond Stereocenter Count 0
   Covalently-Bonded Unit Count      1
   Feature 3D Acceptor Count         1
   Feature 3D Hydrophobe Count       1
   Effective Rotor Count             4
   Conformer Sampling RMSD           0.6
   CID Conformer Count               [17]11

References

   1. http://toxnet.nlm.nih.gov/cgi-bin/sis/search/r?dbs+hsdb:@term+@rn+@rel+123-92-2
   2. http://toxnet.nlm.nih.gov/cgi-bin/sis/search/r?dbs+hsdb:@term+@rn+@rel+123-92-2
   3. http://toxnet.nlm.nih.gov/cgi-bin/sis/search/r?dbs+hsdb:@term+@rn+@rel+123-92-2
   4. http://toxnet.nlm.nih.gov/cgi-bin/sis/search/r?dbs+hsdb:@term+@rn+@rel+123-92-2
   5. http://toxnet.nlm.nih.gov/cgi-bin/sis/search/r?dbs+hsdb:@term+@rn+@rel+123-92-2
   6. http://toxnet.nlm.nih.gov/cgi-bin/sis/search/r?dbs+hsdb:@term+@rn+@rel+123-92-2
   7. http://toxnet.nlm.nih.gov/cgi-bin/sis/search/r?dbs+hsdb:@term+@rn+@rel+123-92-2
   8. http://toxnet.nlm.nih.gov/cgi-bin/sis/search/r?dbs+hsdb:@term+@rn+@rel+123-92-2
   9. http://toxnet.nlm.nih.gov/cgi-bin/sis/search/r?dbs+hsdb:@term+@rn+@rel+123-92-2
  10. http://toxnet.nlm.nih.gov/cgi-bin/sis/search/r?dbs+hsdb:@term+@rn+@rel+123-92-2
  11. http://toxnet.nlm.nih.gov/cgi-bin/sis/search/r?dbs+hsdb:@term+@rn+@rel+123-92-2
  12. http://toxnet.nlm.nih.gov/cgi-bin/sis/search/r?dbs+hsdb:@term+@rn+@rel+123-92-2
  13. http://toxnet.nlm.nih.gov/cgi-bin/sis/search/r?dbs+hsdb:@term+@rn+@rel+123-92-2
  14. http://toxnet.nlm.nih.gov/cgi-bin/sis/search/r?dbs+hsdb:@term+@rn+@rel+123-92-2
  15. http://toxnet.nlm.nih.gov/cgi-bin/sis/search/r?dbs+hsdb:@term+@rn+@rel+123-92-2
  16. http://toxnet.nlm.nih.gov/cgi-bin/sis/search/r?dbs+hsdb:@term+@rn+@rel+123-92-2
  17. http://pubchem.ncbi.nlm.nih.gov/vw3d/vw3d.cgi?cid=31276
