   Color/Form
        Yellow crystals from DMF (N,N-dimethylformamide)
   from [1]HSDB

   Odor
        Odorless
   from [2]HSDB

   Melting Point
        255 deg C
   from [3]HSDB

   Octanol/Water Partition Coefficient
        log Kow= -0.04 [Debnath AK et al; J Med Chem 34: 786-797 (1991)]
   [4]PubMed Abstract
   from [5]HSDB

   Solubilities
        Solubility in water (pH 6): approx 40 mg/l @ 25 deg C
   from [6]HSDB

   Spectral Properties

     * IR: 5187 (Coblentz Society spectral collection)
     * UV: 6985 (Sadtler Research Laboratories spectral collection)

   from [7]HSDB

   Other Chemical/Physical Properties

     * MP: 254-256 deg C (decomposes)
     * Decomposed by alkali
     * MP: 275 deg C (decomp)
     * Crystals will darken under strong light.

   from [8]HSDB

   Computed Properties
   Molecular Weight                  225.15828 [g/mol]
   Molecular Formula                 C[8]H[7]N[3]O[5]
   XLogP3                            -0.1
   H-Bond Donor                      0
   H-Bond Acceptor                   6
   Rotatable Bond Count              2
   Exact Mass                        225.03857
   MonoIsotopic Mass                 225.03857
   Topological Polar Surface Area    101
   Heavy Atom Count                  16
   Formal Charge                     0
   Complexity                        326
   Isotope Atom Count                0
   Defined Atom Stereocenter Count   0
   Undefined Atom Stereocenter Count 0
   Defined Bond Stereocenter Count   1
   Undefined Bond Stereocenter Count 0
   Covalently-Bonded Unit Count      1
   Feature 3D Acceptor Count         5
   Feature 3D Anion Count            1
   Feature 3D Ring Count             2
   Effective Rotor Count             3.8
   Conformer Sampling RMSD           0.6
   CID Conformer Count               [9]6

References

   1. http://toxnet.nlm.nih.gov/cgi-bin/sis/search/r?dbs+hsdb:@term+@rn+@rel+67-45-8
   2. http://toxnet.nlm.nih.gov/cgi-bin/sis/search/r?dbs+hsdb:@term+@rn+@rel+67-45-8
   3. http://toxnet.nlm.nih.gov/cgi-bin/sis/search/r?dbs+hsdb:@term+@rn+@rel+67-45-8
   4. http://www.ncbi.nlm.nih.gov/entrez/query.fcgi?cmd=Retrieve&db=pubmed&dopt=Abstract&list_uids=1995902
   5. http://toxnet.nlm.nih.gov/cgi-bin/sis/search/r?dbs+hsdb:@term+@rn+@rel+67-45-8
   6. http://toxnet.nlm.nih.gov/cgi-bin/sis/search/r?dbs+hsdb:@term+@rn+@rel+67-45-8
   7. http://toxnet.nlm.nih.gov/cgi-bin/sis/search/r?dbs+hsdb:@term+@rn+@rel+67-45-8
   8. http://toxnet.nlm.nih.gov/cgi-bin/sis/search/r?dbs+hsdb:@term+@rn+@rel+67-45-8
   9. http://pubchem.ncbi.nlm.nih.gov/vw3d/vw3d.cgi?cid=5323714
