   Color/Form

     * Clear, transparent liquid
     * Low viscosity liquid

   from [1]HSDB

   Odor
        Slight odor
   from [2]HSDB

   Boiling Point
        330 deg C; 194 deg C at 10 mm Hg
   from [3]HSDB

   Melting Point
        -55 deg C
   from [4]HSDB

   Density/Specific Gravity
        1.39 g/cu cm at 25 deg C
   from [5]HSDB

   Octanol/Water Partition Coefficient
        log Kow = 1.44
   from [6]HSDB

   Solubilities

     * Insoluble in benzene. Soluble in most organic solvents.
     * Soluble in carbon tetrachloride.
     * Very slightly soluble in aliphatic hydrocarbons; soluble in
       alcohols, esters, ketones and aromatic hydrocarbons.
     * In water, 7,000 mg/L, temp not specified.

   from [7]HSDB

   Spectral Properties

     * Index of refraction: 1.4721 at 20 deg C/D
     * IR: 6850 (Sadtler Research Laboratories Prism Collection)
     * NMR: 10547 (Sadtler Research Laboratories Spectral Collection)
     * MASS: 53926 (NIST/EPA/MCDC Mass Spectral Database 1990 version)

   from [8]HSDB

   Vapor Pressure
        6.125X10-2 mm Hg at 25 deg C
   from [9]HSDB

   Viscosity
        45 cP at 20 deg C
   from [10]HSDB

   Other Chemical/Physical Properties

     * 11.65 mg/cu m equivalent to 1 ppm (w/v conversion factor)
     * Phosphoric acid esters slowly hydrolyze in water at pH of 7 and 25
       deg C.
     * Henry's Law constant = 3.3X10-6 atm-cu m/mol at 25 deg C (est)
     * Hydroxyl radical reaction rate constant = 2.2X10-11 cu cm/molec-sec
       at 25 deg C (est)

   from [11]HSDB

   Computed Properties
   Molecular Weight                  285.489842 [g/mol]
   Molecular Formula                 C[6]H[12]Cl[3]O[4]P
   XLogP3-AA                         1.3
   H-Bond Donor                      0
   H-Bond Acceptor                   4
   Rotatable Bond Count              9
   Exact Mass                        283.953879
   MonoIsotopic Mass                 283.953879
   Topological Polar Surface Area    44.8
   Heavy Atom Count                  14
   Formal Charge                     0
   Complexity                        152
   Isotope Atom Count                0
   Defined Atom Stereocenter Count   0
   Undefined Atom Stereocenter Count 0
   Defined Bond Stereocenter Count   0
   Undefined Bond Stereocenter Count 0
   Covalently-Bonded Unit Count      1
   Feature 3D Acceptor Count         1
   Effective Rotor Count             9
   Conformer Sampling RMSD           0.8
   CID Conformer Count               [12]116

References

   1. http://toxnet.nlm.nih.gov/cgi-bin/sis/search/r?dbs+hsdb:@term+@rn+@rel+115-96-8
   2. http://toxnet.nlm.nih.gov/cgi-bin/sis/search/r?dbs+hsdb:@term+@rn+@rel+115-96-8
   3. http://toxnet.nlm.nih.gov/cgi-bin/sis/search/r?dbs+hsdb:@term+@rn+@rel+115-96-8
   4. http://toxnet.nlm.nih.gov/cgi-bin/sis/search/r?dbs+hsdb:@term+@rn+@rel+115-96-8
   5. http://toxnet.nlm.nih.gov/cgi-bin/sis/search/r?dbs+hsdb:@term+@rn+@rel+115-96-8
   6. http://toxnet.nlm.nih.gov/cgi-bin/sis/search/r?dbs+hsdb:@term+@rn+@rel+115-96-8
   7. http://toxnet.nlm.nih.gov/cgi-bin/sis/search/r?dbs+hsdb:@term+@rn+@rel+115-96-8
   8. http://toxnet.nlm.nih.gov/cgi-bin/sis/search/r?dbs+hsdb:@term+@rn+@rel+115-96-8
   9. http://toxnet.nlm.nih.gov/cgi-bin/sis/search/r?dbs+hsdb:@term+@rn+@rel+115-96-8
  10. http://toxnet.nlm.nih.gov/cgi-bin/sis/search/r?dbs+hsdb:@term+@rn+@rel+115-96-8
  11. http://toxnet.nlm.nih.gov/cgi-bin/sis/search/r?dbs+hsdb:@term+@rn+@rel+115-96-8
  12. http://pubchem.ncbi.nlm.nih.gov/vw3d/vw3d.cgi?cid=8295
