   Color/Form
        Yellow monoclinic prisms
   from [1]HSDB

   Melting Point
        105.5 deg C
   from [2]HSDB

   Density/Specific Gravity
        1.365 deg 15 C/deg 4 C
   from [3]HSDB

   Dissociation Constants
        pKa = 2.345
   from [4]HSDB

   Octanol/Water Partition Coefficient
        log Kow = 1.87
   from [5]HSDB

   Solubilities

     * Soluble in acetone, benzene, ether, ethanol, chloroform
     * In water, 1 g/100 mL at 19 deg C

   from [6]HSDB

   Spectral Properties

     * IR: 8626 (Sadtler Research Laboratories IR Grating Collection)
     * UV: 3620 (Sadtler Research Laboratories Spectral Collection)
     * 1H NMR: 3252 (Sadtler Research Laboratories Spectral Collection)
     * MASS: 21566 (NIST/EPA/MSDC Mass Spectral Database 1990 version)

   from [7]HSDB

   Vapor Pressure
        9.8X10-4 mm Hg at 25 deg C (est)
   from [8]HSDB

   Other Chemical/Physical Properties

     * Henry's Law constant = 8.3X10-9 atm-cu m/mole at 25 deg (est)
     * Hydroxyl radical rate constant: 1.2X10-11 cu cm/molecule sec at 25
       deg C (est)

   from [9]HSDB

   Computed Properties
   Molecular Weight                  152.15062 [g/mol]
   Molecular Formula                 C[7]H[8]N[2]O[2]
   XLogP3                            1.9
   H-Bond Donor                      1
   H-Bond Acceptor                   3
   Rotatable Bond Count              0
   Exact Mass                        152.058578
   MonoIsotopic Mass                 152.058578
   Topological Polar Surface Area    71.8
   Heavy Atom Count                  11
   Formal Charge                     0
   Complexity                        155
   Isotope Atom Count                0
   Defined Atom Stereocenter Count   0
   Undefined Atom Stereocenter Count 0
   Defined Bond Stereocenter Count   0
   Undefined Bond Stereocenter Count 0
   Covalently-Bonded Unit Count      1
   Feature 3D Acceptor Count         2
   Feature 3D Donor Count            1
   Feature 3D Anion Count            1
   Feature 3D Cation Count           1
   Feature 3D Ring Count             1
   Effective Rotor Count             1
   Conformer Sampling RMSD           0.4
   CID Conformer Count               [10]1

References

   1. http://toxnet.nlm.nih.gov/cgi-bin/sis/search/r?dbs+hsdb:@term+@rn+@rel+99-55-8
   2. http://toxnet.nlm.nih.gov/cgi-bin/sis/search/r?dbs+hsdb:@term+@rn+@rel+99-55-8
   3. http://toxnet.nlm.nih.gov/cgi-bin/sis/search/r?dbs+hsdb:@term+@rn+@rel+99-55-8
   4. http://toxnet.nlm.nih.gov/cgi-bin/sis/search/r?dbs+hsdb:@term+@rn+@rel+99-55-8
   5. http://toxnet.nlm.nih.gov/cgi-bin/sis/search/r?dbs+hsdb:@term+@rn+@rel+99-55-8
   6. http://toxnet.nlm.nih.gov/cgi-bin/sis/search/r?dbs+hsdb:@term+@rn+@rel+99-55-8
   7. http://toxnet.nlm.nih.gov/cgi-bin/sis/search/r?dbs+hsdb:@term+@rn+@rel+99-55-8
   8. http://toxnet.nlm.nih.gov/cgi-bin/sis/search/r?dbs+hsdb:@term+@rn+@rel+99-55-8
   9. http://toxnet.nlm.nih.gov/cgi-bin/sis/search/r?dbs+hsdb:@term+@rn+@rel+99-55-8
  10. http://pubchem.ncbi.nlm.nih.gov/vw3d/vw3d.cgi?cid=7444
