   Color/Form
        COLORLESS, TRANSPARENT LIQUID
   from [1]HSDB

   Odor

     * CHARACTERISTIC AROMATIC ODOR
     * Agreeable odor

   from [2]HSDB

   Taste

     * DISAGREEABLE TASTE
     * Burning taste

   from [3]HSDB

   Boiling Point
        124.5 Deg C
   from [4]HSDB

   Melting Point
        12.6 DEG C
   from [5]HSDB

   Corrosivity
        ... Has solvent /like/ action upon rubber, polystyrene, &
   styrene-acrylonitrile copolymer
   from [6]HSDB

   Critical Temperature and Pressure
        290 deg C
   from [7]HSDB

   Density/Specific Gravity
        0.9923 @ 20 deg C/4 deg C
   from [8]HSDB

   Heat of Combustion
        -5,652 cal/g (236X10+5 J/kg) at 25 deg C
   from [9]HSDB

   Heat of Vaporization
        75 cal/g (latent heat of vaporization)
   from [10]HSDB

   Octanol/Water Partition Coefficient
        Log Kow = 0.67
   from [11]HSDB

   Solubilities

     * SOL IN 8 PARTS WATER AT 25 DEG C; 17 PARTS BOILING WATER
     * Sol in water: 1 in 9 parts at 20 deg C, 1 in 10 parts at 30 deg C,
       & 1 in 11.5 parts at 37 deg C
     * Sol in sodium chloride solution: 1 in 9.5 parts at 20 deg C, 1 in
       11 parts at 30 deg C, & 1 in 12.5 parts at 37 deg C
     * MISCIBLE WITH ALC, CHLOROFORM, ETHER, OILS
     * water solubility = 12g/100 g water at 13 degC

   from [12]HSDB

   Spectral Properties

     * INDEX OF REFRACTION: 1.4049 AT 20 DEG C/D
     * SADTLER REFERENCE NUMBER: 5181 (IR, PRISM)
     * IR: 6325 (Coblentz Society Spectral Collection)
     * NMR: 474 (Varian Associates NMR Spectra Catalogue)
     * MASS: 627 (Atlas of Mass Spectral Data, John Wiley & Sons, New
       York)

   from [13]HSDB

   Surface Tension
        27.82 dynes/cm
   from [14]HSDB

   Vapor Density
        4.5
   from [15]HSDB

   Vapor Pressure
        25.3 mm Hg at 20 deg C
   from [16]HSDB

   Viscosity
        1.128 centipoise at 70 deg F
   from [17]HSDB

   Other Chemical/Physical Properties

     * GIVES ACETALDEHYDE ON HEATING WITH DIL HCL OR ON WARMING WITH
       SEVERAL DROPS CONCENTRATED H2SO4
     * CONGEALS NOT BELOW 11 DEG C & DISTILS BETWEEN 120 DEG & 126 DEG C
     * SPECIFIC HEAT 0.434; BULK DENSITY 8.27 LB/GAL (20 DEG C)
     * vapor pressure = 11.03 mm Hg at 25 degC
     * Heat capacity = 1.947 J/g-degK at25 degC
     * Heat of formation from acetaldehyde = -113.0 kJ/mole

   from [18]HSDB

   Computed Properties
   Molecular Weight                  132.15768 [g/mol]
   Molecular Formula                 C[6]H[12]O[3]
   XLogP3                            0.7
   H-Bond Donor                      0
   H-Bond Acceptor                   3
   Rotatable Bond Count              0
   Exact Mass                        132.078644
   MonoIsotopic Mass                 132.078644
   Topological Polar Surface Area    27.7
   Heavy Atom Count                  9
   Formal Charge                     0
   Complexity                        63.3
   Isotope Atom Count                0
   Defined Atom Stereocenter Count   0
   Undefined Atom Stereocenter Count 0
   Defined Bond Stereocenter Count   0
   Undefined Bond Stereocenter Count 0
   Covalently-Bonded Unit Count      1
   Feature 3D Acceptor Count         3
   Feature 3D Ring Count             1
   Effective Rotor Count             1.2
   Conformer Sampling RMSD           0.4
   CID Conformer Count               [19]1

References

   1. http://toxnet.nlm.nih.gov/cgi-bin/sis/search/r?dbs+hsdb:@term+@rn+@rel+123-63-7
   2. http://toxnet.nlm.nih.gov/cgi-bin/sis/search/r?dbs+hsdb:@term+@rn+@rel+123-63-7
   3. http://toxnet.nlm.nih.gov/cgi-bin/sis/search/r?dbs+hsdb:@term+@rn+@rel+123-63-7
   4. http://toxnet.nlm.nih.gov/cgi-bin/sis/search/r?dbs+hsdb:@term+@rn+@rel+123-63-7
   5. http://toxnet.nlm.nih.gov/cgi-bin/sis/search/r?dbs+hsdb:@term+@rn+@rel+123-63-7
   6. http://toxnet.nlm.nih.gov/cgi-bin/sis/search/r?dbs+hsdb:@term+@rn+@rel+123-63-7
   7. http://toxnet.nlm.nih.gov/cgi-bin/sis/search/r?dbs+hsdb:@term+@rn+@rel+123-63-7
   8. http://toxnet.nlm.nih.gov/cgi-bin/sis/search/r?dbs+hsdb:@term+@rn+@rel+123-63-7
   9. http://toxnet.nlm.nih.gov/cgi-bin/sis/search/r?dbs+hsdb:@term+@rn+@rel+123-63-7
  10. http://toxnet.nlm.nih.gov/cgi-bin/sis/search/r?dbs+hsdb:@term+@rn+@rel+123-63-7
  11. http://toxnet.nlm.nih.gov/cgi-bin/sis/search/r?dbs+hsdb:@term+@rn+@rel+123-63-7
  12. http://toxnet.nlm.nih.gov/cgi-bin/sis/search/r?dbs+hsdb:@term+@rn+@rel+123-63-7
  13. http://toxnet.nlm.nih.gov/cgi-bin/sis/search/r?dbs+hsdb:@term+@rn+@rel+123-63-7
  14. http://toxnet.nlm.nih.gov/cgi-bin/sis/search/r?dbs+hsdb:@term+@rn+@rel+123-63-7
  15. http://toxnet.nlm.nih.gov/cgi-bin/sis/search/r?dbs+hsdb:@term+@rn+@rel+123-63-7
  16. http://toxnet.nlm.nih.gov/cgi-bin/sis/search/r?dbs+hsdb:@term+@rn+@rel+123-63-7
  17. http://toxnet.nlm.nih.gov/cgi-bin/sis/search/r?dbs+hsdb:@term+@rn+@rel+123-63-7
  18. http://toxnet.nlm.nih.gov/cgi-bin/sis/search/r?dbs+hsdb:@term+@rn+@rel+123-63-7
  19. http://pubchem.ncbi.nlm.nih.gov/vw3d/vw3d.cgi?cid=31264
