   Color/Form

     * MOBILE LIQUID
     * Heavy, mobile, colorless liquid

   from [1]HSDB

   Odor

     * AROMATIC ODOR
     * Pungent odor

   from [2]HSDB

   Boiling Point
        156.2 DEG C @ 760 MM HG
   from [3]HSDB

   Melting Point
        -30.6 DEG C (SOLIDIFIES)
   from [4]HSDB

   Critical Temperature and Pressure
        CRITICAL TEMP 397 DEG C; CRITICAL PRESSURE 33,912 MM HG (44.6 ATM)
   from [5]HSDB

   Density/Specific Gravity
        @ 10 DEG C/4 DEG C: 1.5083; @ 15 DEG C/4 DEG C: 1.5017; @ 20 DEG
   C/4 DEG C: 1.4952; @ 30 DEG C/4 DEG C: 1.4815; @ 71 DEG C/4 DEG C:
   1.426; @ 0 DEG C/4 DEG C: 1.5220
   from [6]HSDB

   Heat of Combustion
        -8,510 BTU/LB= -4,730 CAL/G= -198X10+5 JOULES/KG
   from [7]HSDB

   Heat of Vaporization
        44.5 kJ/mol @ 25 deg C
   from [8]HSDB

   Octanol/Water Partition Coefficient
        log Kow = 2.99
   from [9]HSDB

   Solubilities

     * MISCIBLE WITH CHLOROFORM, BENZENE, PETROLEUM HYDROCARBONS; SOL IN
       ALCOHOL (10.4 G/100 G @ 25 DEG C), IN ETHER (71.3 G/100 G @ 25 DEG
       C); PRACTICALLY INOL IN WATER (0.045 G/100 G @ 30 DEG C)
     * SOL IN CARBON TETRACHLORIDE
     * Miscible with most organic solvents; insoluble in water
     * Very soluble in ethanol, ethyl ether, and benzene
     * Solubility in water = 410 mg/l @ 25 deg C

   from [10]HSDB

   Spectral Properties

     * INDEX OF REFRACTION: 1.565 @ 15 DEG C/D; 1.5602 @ 20 DEG C/D
     * MAX ABSORPTION (ALCOHOL): 213.5 NM (LOG E= 3.86)
     * IR: 6476 (Coblentz Society Spectral Collection)
     * UV: 954 (Sadtler Research Laboratories Spectral Collection)
     * NMR: 1212 (Sadtler Research Laboratories Spectral Collection)
     * MASS: 947 (Atlas of Mass Spectral Data, John Wiley & Sons, New
       York)
     * Index of Refraction: 1.5597 @ 20 deg C

   from [11]HSDB

   Surface Tension
        36 DYNES/CM= 0.036 NEWTONS/M @ 20 DEG C
   from [12]HSDB

   Vapor Density
        5.41 (AIR= 1)
   from [13]HSDB

   Vapor Pressure
        4.18 MM HG @ 25 DEG C
   from [14]HSDB

   Viscosity
        1.124 CP @ 20 DEG C
   from [15]HSDB

   Other Chemical/Physical Properties

     * HEAT OF MELTING 16.186 CAL/G @ 15 DEG C; SPECIFIC HEAT @ 26.84 DEG
       C: 0.2368
     * WT/GAL 12.51 LB
     * LIQUID-WATER INTERFACIAL TENSION: (EST) 30 DYNES/CM= 0.030
       NEWTONS/M @ 20 DEG C
     * Boiling point: 132.3 deg C @ 400 mm Hg; 110.1 deg C @ 200 mm Hg;
       68.6 deg C @ 40 mm Hg; 53.8 deg C @ 20 mm Hg; 40.0 deg C @ 10 mm
       Hg; 27.8 deg C @ 5 mm Hg; 2.9 deg C @ 1 mm Hg
     * Heat of Fusion = 10.62 kJ/mol @ 25 deg C
     * Diffusion Coefficient calculated as 0.67X10-5 sq m/sec
     * Diffusivity in air = 0.0691 sq cm/s @ 20 deg C and 0.0709 sq cm/s @
       20deg C
     * Diffusivity in water = 7.95X10+6 sq cm/s @ 20 deg C and 9.58X10+6
       sq cm/s @ 25 deg C

   from [16]HSDB

   Computed Properties
   Molecular Weight                  157.0079 [g/mol]
   Molecular Formula                 C[6]H[5]Br
   XLogP3                            3
   H-Bond Donor                      0
   H-Bond Acceptor                   0
   Rotatable Bond Count              0
   Exact Mass                        155.957462
   MonoIsotopic Mass                 155.957462
   Topological Polar Surface Area    0
   Heavy Atom Count                  7
   Formal Charge                     0
   Complexity                        46.1
   Isotope Atom Count                0
   Defined Atom Stereocenter Count   0
   Undefined Atom Stereocenter Count 0
   Defined Bond Stereocenter Count   0
   Undefined Bond Stereocenter Count 0
   Covalently-Bonded Unit Count      1
   Feature 3D Hydrophobe Count       1
   Feature 3D Ring Count             1
   Effective Rotor Count             0
   Conformer Sampling RMSD           0.4
   CID Conformer Count               [17]1

References

   1. http://toxnet.nlm.nih.gov/cgi-bin/sis/search/r?dbs+hsdb:@term+@rn+@rel+108-86-1
   2. http://toxnet.nlm.nih.gov/cgi-bin/sis/search/r?dbs+hsdb:@term+@rn+@rel+108-86-1
   3. http://toxnet.nlm.nih.gov/cgi-bin/sis/search/r?dbs+hsdb:@term+@rn+@rel+108-86-1
   4. http://toxnet.nlm.nih.gov/cgi-bin/sis/search/r?dbs+hsdb:@term+@rn+@rel+108-86-1
   5. http://toxnet.nlm.nih.gov/cgi-bin/sis/search/r?dbs+hsdb:@term+@rn+@rel+108-86-1
   6. http://toxnet.nlm.nih.gov/cgi-bin/sis/search/r?dbs+hsdb:@term+@rn+@rel+108-86-1
   7. http://toxnet.nlm.nih.gov/cgi-bin/sis/search/r?dbs+hsdb:@term+@rn+@rel+108-86-1
   8. http://toxnet.nlm.nih.gov/cgi-bin/sis/search/r?dbs+hsdb:@term+@rn+@rel+108-86-1
   9. http://toxnet.nlm.nih.gov/cgi-bin/sis/search/r?dbs+hsdb:@term+@rn+@rel+108-86-1
  10. http://toxnet.nlm.nih.gov/cgi-bin/sis/search/r?dbs+hsdb:@term+@rn+@rel+108-86-1
  11. http://toxnet.nlm.nih.gov/cgi-bin/sis/search/r?dbs+hsdb:@term+@rn+@rel+108-86-1
  12. http://toxnet.nlm.nih.gov/cgi-bin/sis/search/r?dbs+hsdb:@term+@rn+@rel+108-86-1
  13. http://toxnet.nlm.nih.gov/cgi-bin/sis/search/r?dbs+hsdb:@term+@rn+@rel+108-86-1
  14. http://toxnet.nlm.nih.gov/cgi-bin/sis/search/r?dbs+hsdb:@term+@rn+@rel+108-86-1
  15. http://toxnet.nlm.nih.gov/cgi-bin/sis/search/r?dbs+hsdb:@term+@rn+@rel+108-86-1
  16. http://toxnet.nlm.nih.gov/cgi-bin/sis/search/r?dbs+hsdb:@term+@rn+@rel+108-86-1
  17. http://pubchem.ncbi.nlm.nih.gov/vw3d/vw3d.cgi?cid=7961
