   Color/Form
        Yellow, oily liquid
   from [1]HSDB

   Odor

     * Pleasant
     * Terpene odor

   from [2]HSDB

   Taste
        SWEET, CITRUS
   from [3]HSDB

   Boiling Point
        167 deg C @ 760 mm Hg
   from [4]HSDB

   Melting Point
        < -10 deg C
   from [5]HSDB

   Density/Specific Gravity
        0.794 @ 20 deg C/4 deg C
   from [6]HSDB

   Octanol/Water Partition Coefficient
        log Kow= 4.17
   from [7]HSDB

   Solubilities

     * Practically insol in water; sol in alcohol, chloroform, ether, sol
       in glacial acetic acid.
     * Insoluble in water; soluble in ethanol, ethyl ether, and benzene.
     * Soluble in oxygenated and chlorinated solvents.
     * In water, 5.60 mg/l

   from [8]HSDB

   Spectral Properties

     * Index of refraction: 1.4709 @ 20 deg C; max absorption (ethanol):
       226 nm (E= 16,100)
     * MAX ABSORPTION (ALCOHOL): 225 NM (LOG E= 4.30)
     * IR: 4971 (Coblentz Society Spectral Collection)
     * UV: 5-241 (Organic Electronic Spectral Data, Phillips et al, John
       Wiley & Sons, New York)
     * MASS: 704 (Atlas of Mass Spectral Data, John Wiley & Sons, New
       York)
     * MASS: 710 (Atlas of Mass Spectral Data, John Wiley & Sons, New
       York)

   from [9]HSDB

   Vapor Pressure
        2.01 mm Hg
   from [10]HSDB

   Other Chemical/Physical Properties

     * BP: 44 deg C @ 10 mm Hg; Index of refraction: 1.4661 @ 25 deg C
       /alpha-Myrcene/
     * Density: 0.7959 @ 25 deg C/25 deg C; max absorption (isooctane):
       224.5 nm /alpha-Myrcene/
     * Triply unsaturated aliphatic hydrocarbon; Index of refraction:
       1.471 @ 20 deg C (81% Myrcene)

   from [11]HSDB

   Computed Properties
   Molecular Weight                  136.23404 [g/mol]
   Molecular Formula                 C[10]H[16]
   XLogP3-AA                         4.3
   H-Bond Donor                      0
   H-Bond Acceptor                   0
   Rotatable Bond Count              4
   Exact Mass                        136.125201
   MonoIsotopic Mass                 136.125201
   Topological Polar Surface Area    0
   Heavy Atom Count                  10
   Formal Charge                     0
   Complexity                        145
   Isotope Atom Count                0
   Defined Atom Stereocenter Count   0
   Undefined Atom Stereocenter Count 0
   Defined Bond Stereocenter Count   0
   Undefined Bond Stereocenter Count 0
   Covalently-Bonded Unit Count      1
   Feature 3D Hydrophobe Count       4
   Effective Rotor Count             4
   Conformer Sampling RMSD           0.6
   CID Conformer Count               [12]59

References

   1. http://toxnet.nlm.nih.gov/cgi-bin/sis/search/r?dbs+hsdb:@term+@rn+@rel+123-35-3
   2. http://toxnet.nlm.nih.gov/cgi-bin/sis/search/r?dbs+hsdb:@term+@rn+@rel+123-35-3
   3. http://toxnet.nlm.nih.gov/cgi-bin/sis/search/r?dbs+hsdb:@term+@rn+@rel+123-35-3
   4. http://toxnet.nlm.nih.gov/cgi-bin/sis/search/r?dbs+hsdb:@term+@rn+@rel+123-35-3
   5. http://toxnet.nlm.nih.gov/cgi-bin/sis/search/r?dbs+hsdb:@term+@rn+@rel+123-35-3
   6. http://toxnet.nlm.nih.gov/cgi-bin/sis/search/r?dbs+hsdb:@term+@rn+@rel+123-35-3
   7. http://toxnet.nlm.nih.gov/cgi-bin/sis/search/r?dbs+hsdb:@term+@rn+@rel+123-35-3
   8. http://toxnet.nlm.nih.gov/cgi-bin/sis/search/r?dbs+hsdb:@term+@rn+@rel+123-35-3
   9. http://toxnet.nlm.nih.gov/cgi-bin/sis/search/r?dbs+hsdb:@term+@rn+@rel+123-35-3
  10. http://toxnet.nlm.nih.gov/cgi-bin/sis/search/r?dbs+hsdb:@term+@rn+@rel+123-35-3
  11. http://toxnet.nlm.nih.gov/cgi-bin/sis/search/r?dbs+hsdb:@term+@rn+@rel+123-35-3
  12. http://pubchem.ncbi.nlm.nih.gov/vw3d/vw3d.cgi?cid=31253
