   Color/Form

     * White or slightly yellow lumps, rods, pellets
     * White rhombic crystals

   from [1]HSDB

   Odor
        Odorless.
   from [2]HSDB

   Boiling Point
        1327 deg C
   from [3]HSDB

   Melting Point
        380 deg C
   from [4]HSDB

   Density/Specific Gravity
        2.044 g/cu cm
   from [5]HSDB

   pH
        13.5 (0.1 Molar aq soln)
   from [6]HSDB

   Solubilities

     * INSOL IN ETHER, AMMONIA
     * 100 g/375 ml ethanol @ 25 deg C
     * Sol in 0.9 part water, about 0.6 part boiling water, 3 parts
       alcohol, 2.5 parts glycerol.
     * Solubility in water (g KOH/100 g H2O): 97 at 0 deg C; 103 @ 10 deg
       C; 112 @ 20 deg C; 126 @ 30 deg C; 178 @ 100 deg C.

   from [7]HSDB

   Vapor Pressure
        1 MM HG @ 714 DEG C
   from [8]HSDB

   Other Chemical/Physical Properties

     * When dissolved in water or alcohol or when the soln is treated with
       acid, much heat is generated.
     * HARD & BRITTLE & SHOWS CRYSTALLINE FRACTURE; STRONGLY ALKALINE.
     * Readily absorbs moisture & carbon dioxide from air & deliquesces.
     * Melting point: 406 deg C
     * Heat of solution: 53.51 kJ/mol (in water)
     * Heat of fusion: 7.5 kJ/mol
     * Density (g/cu cm) of aqueous solutions: 10 wt %: 1.092; 20 wt %:
       1.188; 30 wt %: 1.291; 40 wt %: 1.395; 50 wt %: 1.514
     * Melting point: ca 250 deg C; Heat of fusion: ca. 6.7 kJ/mol
       /Technical caustic potash (90-92% KOH)/

   from [9]HSDB

   Computed Properties
   Molecular Weight                  56.10564 [g/mol]
   Molecular Formula                 HKO
   H-Bond Donor                      1
   H-Bond Acceptor                   1
   Rotatable Bond Count              0
   Exact Mass                        55.966446
   MonoIsotopic Mass                 55.966446
   Topological Polar Surface Area    1
   Heavy Atom Count                  2
   Formal Charge                     0
   Complexity                        2
   Isotope Atom Count                0
   Defined Atom Stereocenter Count   0
   Undefined Atom Stereocenter Count 0
   Defined Bond Stereocenter Count   0
   Undefined Bond Stereocenter Count 0
   Covalently-Bonded Unit Count      2

References

   1. http://toxnet.nlm.nih.gov/cgi-bin/sis/search/r?dbs+hsdb:@term+@rn+@rel+1310-58-3
   2. http://toxnet.nlm.nih.gov/cgi-bin/sis/search/r?dbs+hsdb:@term+@rn+@rel+1310-58-3
   3. http://toxnet.nlm.nih.gov/cgi-bin/sis/search/r?dbs+hsdb:@term+@rn+@rel+1310-58-3
   4. http://toxnet.nlm.nih.gov/cgi-bin/sis/search/r?dbs+hsdb:@term+@rn+@rel+1310-58-3
   5. http://toxnet.nlm.nih.gov/cgi-bin/sis/search/r?dbs+hsdb:@term+@rn+@rel+1310-58-3
   6. http://toxnet.nlm.nih.gov/cgi-bin/sis/search/r?dbs+hsdb:@term+@rn+@rel+1310-58-3
   7. http://toxnet.nlm.nih.gov/cgi-bin/sis/search/r?dbs+hsdb:@term+@rn+@rel+1310-58-3
   8. http://toxnet.nlm.nih.gov/cgi-bin/sis/search/r?dbs+hsdb:@term+@rn+@rel+1310-58-3
   9. http://toxnet.nlm.nih.gov/cgi-bin/sis/search/r?dbs+hsdb:@term+@rn+@rel+1310-58-3
