13847328
  -OEChem-07051212502D

 58 61  0     1  0  0  0  0  0999 V2000
    5.3307    0.7792    0.0000 O   0  0  0  0  0  0  0  0  0  0  0  0
    2.5357   -2.7732    0.0000 O   0  0  0  0  0  0  0  0  0  0  0  0
    7.0628    1.7792    0.0000 O   0  0  0  0  0  0  0  0  0  0  0  0
    8.5179    2.2787    0.0000 O   0  0  0  0  0  0  0  0  0  0  0  0
   10.4749    2.6912    0.0000 O   0  0  0  0  0  0  0  0  0  0  0  0
    6.1968   -0.7208    0.0000 C   0  0  1  0  0  0  0  0  0  0  0  0
    7.0628   -1.2208    0.0000 C   0  0  2  0  0  0  0  0  0  0  0  0
    5.2868   -1.2277    0.0000 C   0  0  2  0  0  0  0  0  0  0  0  0
    7.9288   -0.7208    0.0000 C   0  0  1  0  0  0  0  0  0  0  0  0
    7.9288    0.2792    0.0000 C   0  0  2  0  0  0  0  0  0  0  0  0
    5.2787   -2.2693    0.0000 C   0  0  2  0  0  0  0  0  0  0  0  0
    6.1968    0.2792    0.0000 C   0  0  2  0  0  0  0  0  0  0  0  0
    7.0628    0.7792    0.0000 C   0  0  0  0  0  0  0  0  0  0  0  0
    7.0789   -2.2624    0.0000 C   0  0  0  0  0  0  0  0  0  0  0  0
    8.8750    0.5839    0.0000 C   0  0  2  0  0  0  0  0  0  0  0  0
    8.8750   -1.0256    0.0000 C   0  0  0  0  0  0  0  0  0  0  0  0
    6.1808   -2.7901    0.0000 C   0  0  0  0  0  0  0  0  0  0  0  0
    4.3599   -0.6636    0.0000 C   0  0  0  0  0  0  0  0  0  0  0  0
    9.4586   -0.2208    0.0000 C   0  0  0  0  0  0  0  0  0  0  0  0
    4.3433   -2.8190    0.0000 C   0  0  0  0  0  0  0  0  0  0  0  0
    5.2945   -0.2277    0.0000 C   0  0  0  0  0  0  0  0  0  0  0  0
    3.4120   -1.1916    0.0000 C   0  0  0  0  0  0  0  0  0  0  0  0
    3.4037   -2.2765    0.0000 C   0  0  1  0  0  0  0  0  0  0  0  0
    7.9288    1.2792    0.0000 C   0  0  0  0  0  0  0  0  0  0  0  0
    9.1857    1.5344    0.0000 C   0  0  0  0  0  0  0  0  0  0  0  0
   10.1642    1.7406    0.0000 C   0  0  0  0  0  0  0  0  0  0  0  0
    6.9329   -0.2958    0.0000 H   0  0  0  0  0  0  0  0  0  0  0  0
    7.8022   -1.6402    0.0000 H   0  0  0  0  0  0  0  0  0  0  0  0
    8.0188   -1.5661    0.0000 H   0  0  0  0  0  0  0  0  0  0  0  0
    5.2820   -3.1193    0.0000 H   0  0  0  0  0  0  0  0  0  0  0  0
    6.1968    0.8992    0.0000 H   0  0  0  0  0  0  0  0  0  0  0  0
    7.4613    1.2541    0.0000 H   0  0  0  0  0  0  0  0  0  0  0  0
    6.6643    1.2541    0.0000 H   0  0  0  0  0  0  0  0  0  0  0  0
    7.2969   -2.8427    0.0000 H   0  0  0  0  0  0  0  0  0  0  0  0
    7.6880   -2.1468    0.0000 H   0  0  0  0  0  0  0  0  0  0  0  0
    9.4875    0.6801    0.0000 H   0  0  0  0  0  0  0  0  0  0  0  0
    8.6240   -1.5925    0.0000 H   0  0  0  0  0  0  0  0  0  0  0  0
    9.4124   -1.3348    0.0000 H   0  0  0  0  0  0  0  0  0  0  0  0
    5.7835   -3.2661    0.0000 H   0  0  0  0  0  0  0  0  0  0  0  0
    6.5818   -3.2630    0.0000 H   0  0  0  0  0  0  0  0  0  0  0  0
    4.7681   -0.1969    0.0000 H   0  0  0  0  0  0  0  0  0  0  0  0
    3.9700   -0.1816    0.0000 H   0  0  0  0  0  0  0  0  0  0  0  0
    9.9195   -0.6356    0.0000 H   0  0  0  0  0  0  0  0  0  0  0  0
    9.9195    0.1939    0.0000 H   0  0  0  0  0  0  0  0  0  0  0  0
    3.9460   -3.2950    0.0000 H   0  0  0  0  0  0  0  0  0  0  0  0
    4.7443   -3.2919    0.0000 H   0  0  0  0  0  0  0  0  0  0  0  0
    5.9145   -0.2325    0.0000 H   0  0  0  0  0  0  0  0  0  0  0  0
    5.2993    0.3923    0.0000 H   0  0  0  0  0  0  0  0  0  0  0  0
    4.6745   -0.2229    0.0000 H   0  0  0  0  0  0  0  0  0  0  0  0
    3.2075   -0.6063    0.0000 H   0  0  0  0  0  0  0  0  0  0  0  0
    2.8004   -1.2929    0.0000 H   0  0  0  0  0  0  0  0  0  0  0  0
    2.8686   -1.9634    0.0000 H   0  0  0  0  0  0  0  0  0  0  0  0
    8.4658    1.5892    0.0000 H   0  0  0  0  0  0  0  0  0  0  0  0
    5.3307    1.3992    0.0000 H   0  0  0  0  0  0  0  0  0  0  0  0
   10.1848    1.1210    0.0000 H   0  0  0  0  0  0  0  0  0  0  0  0
   10.7780    1.6533    0.0000 H   0  0  0  0  0  0  0  0  0  0  0  0
    2.0000   -2.4611    0.0000 H   0  0  0  0  0  0  0  0  0  0  0  0
   11.0815    2.8190    0.0000 H   0  0  0  0  0  0  0  0  0  0  0  0
 12  1  1  1  0  0  0
  1 54  1  0  0  0  0
 23  2  1  6  0  0  0
  2 57  1  0  0  0  0
  3 24  2  0  0  0  0
  4 25  2  0  0  0  0
  5 26  1  0  0  0  0
  5 58  1  0  0  0  0
  6  7  1  0  0  0  0
  6  8  1  0  0  0  0
  6 12  1  0  0  0  0
  6 27  1  6  0  0  0
  7  9  1  0  0  0  0
  7 14  1  0  0  0  0
  7 28  1  1  0  0  0
  8 11  1  0  0  0  0
  8 18  1  0  0  0  0
  8 21  1  1  0  0  0
  9 10  1  0  0  0  0
  9 16  1  0  0  0  0
  9 29  1  6  0  0  0
 10 13  1  0  0  0  0
 10 15  1  0  0  0  0
 10 24  1  1  0  0  0
 11 17  1  0  0  0  0
 11 20  1  0  0  0  0
 11 30  1  1  0  0  0
 12 13  1  0  0  0  0
 12 31  1  0  0  0  0
 13 32  1  0  0  0  0
 13 33  1  0  0  0  0
 14 17  1  0  0  0  0
 14 34  1  0  0  0  0
 14 35  1  0  0  0  0
 15 19  1  0  0  0  0
 15 25  1  1  0  0  0
 15 36  1  0  0  0  0
 16 19  1  0  0  0  0
 16 37  1  0  0  0  0
 16 38  1  0  0  0  0
 17 39  1  0  0  0  0
 17 40  1  0  0  0  0
 18 22  1  0  0  0  0
 18 41  1  0  0  0  0
 18 42  1  0  0  0  0
 19 43  1  0  0  0  0
 19 44  1  0  0  0  0
 20 23  1  0  0  0  0
 20 45  1  0  0  0  0
 20 46  1  0  0  0  0
 21 47  1  0  0  0  0
 21 48  1  0  0  0  0
 21 49  1  0  0  0  0
 22 23  1  0  0  0  0
 22 50  1  0  0  0  0
 22 51  1  0  0  0  0
 23 52  1  0  0  0  0
 24 53  1  0  0  0  0
 25 26  1  0  0  0  0
 26 55  1  0  0  0  0
 26 56  1  0  0  0  0
M  END
> <PUBCHEM_COMPOUND_CID>
13847328

> <PUBCHEM_COMPOUND_CANONICALIZED>
1

> <PUBCHEM_CACTVS_COMPLEXITY>
591

> <PUBCHEM_CACTVS_HBOND_ACCEPTOR>
5

> <PUBCHEM_CACTVS_HBOND_DONOR>
3

> <PUBCHEM_CACTVS_ROTATABLE_BOND>
3

> <PUBCHEM_CACTVS_SUBSKEYS>
AAADcfB4OAAAAAAAAAAAAAAAAAAAAYAAAAAwYMAAAAAAAGDAAAAAGgAACAAADxSggAICAAAAAgAIAIgQgAIAAAAAAAAAAAFAAAAAEBIAAAAAQAAEAAAAAAGLzPDPgAAAAAAAAADAAAYAADAAAQAACAAAAA==

> <PUBCHEM_IUPAC_OPENEYE_NAME>
(3R,5R,8S,9S,10S,11S,13R,14S,17S)-3,11-dihydroxy-17-(2-hydroxyacetyl)-10-methyl-2,3,4,5,6,7,8,9,11,12,14,15,16,17-tetradecahydro-1H-cyclopenta[a]phenanthrene-13-carbaldehyde

> <PUBCHEM_IUPAC_CAS_NAME>
(3R,5R,8S,9S,10S,11S,13R,14S,17S)-3,11-dihydroxy-17-(2-hydroxy-1-oxoethyl)-10-methyl-2,3,4,5,6,7,8,9,11,12,14,15,16,17-tetradecahydro-1H-cyclopenta[a]phenanthrene-13-carboxaldehyde

> <PUBCHEM_IUPAC_NAME>
(3R,5R,8S,9S,10S,11S,13R,14S,17S)-3,11-dihydroxy-17-(2-hydroxyacetyl)-10-methyl-2,3,4,5,6,7,8,9,11,12,14,15,16,17-tetradecahydro-1H-cyclopenta[a]phenanthrene-13-carbaldehyde

> <PUBCHEM_IUPAC_SYSTEMATIC_NAME>
(3R,5R,8S,9S,10S,11S,13R,14S,17S)-10-methyl-3,11-bis(oxidanyl)-17-(2-oxidanylethanoyl)-2,3,4,5,6,7,8,9,11,12,14,15,16,17-tetradecahydro-1H-cyclopenta[a]phenanthrene-13-carbaldehyde

> <PUBCHEM_IUPAC_TRADITIONAL_NAME>
(3R,5R,8S,9S,10S,11S,13R,14S,17S)-17-glycoloyl-3,11-dihydroxy-10-methyl-2,3,4,5,6,7,8,9,11,12,14,15,16,17-tetradecahydro-1H-cyclopenta[a]phenanthrene-13-carbaldehyde

> <PUBCHEM_IUPAC_INCHI>
InChI=1S/C21H32O5/c1-20-7-6-13(24)8-12(20)2-3-14-15-4-5-16(18(26)10-22)21(15,11-23)9-17(25)19(14)20/h11-17,19,22,24-25H,2-10H2,1H3/t12-,13-,14+,15+,16-,17+,19-,20+,21-/m1/s1

> <PUBCHEM_IUPAC_INCHIKEY>
YWTDWORQGPLRLL-RXKIGOLRSA-N

> <PUBCHEM_XLOGP3_AA>
1.5

> <PUBCHEM_EXACT_MASS>
364.224974

> <PUBCHEM_MOLECULAR_FORMULA>
C21H32O5

> <PUBCHEM_MOLECULAR_WEIGHT>
364.47578

> <PUBCHEM_OPENEYE_CAN_SMILES>
CC12CCC(CC1CCC3C2C(CC4(C3CCC4C(=O)CO)C=O)O)O

> <PUBCHEM_OPENEYE_ISO_SMILES>
C[C@]12CC[C@H](C[C@H]1CC[C@@H]3[C@@H]2[C@H](C[C@]4([C@H]3CC[C@@H]4C(=O)CO)C=O)O)O

> <PUBCHEM_CACTVS_TPSA>
94.8

> <PUBCHEM_MONOISOTOPIC_WEIGHT>
364.224974

> <PUBCHEM_TOTAL_CHARGE>
0

> <PUBCHEM_HEAVY_ATOM_COUNT>
26

> <PUBCHEM_ATOM_DEF_STEREO_COUNT>
9

> <PUBCHEM_ATOM_UDEF_STEREO_COUNT>
0

> <PUBCHEM_BOND_DEF_STEREO_COUNT>
0

> <PUBCHEM_BOND_UDEF_STEREO_COUNT>
0

> <PUBCHEM_ISOTOPIC_ATOM_COUNT>
0

> <PUBCHEM_COMPONENT_COUNT>
1

> <PUBCHEM_CACTVS_TAUTO_COUNT>
4

> <PUBCHEM_COORDINATE_TYPE>
1
5
255

> <PUBCHEM_BONDANNOTATIONS>
12  1  5
10  24  5
11  30  5
15  25  5
23  2  6
6  27  6
7  28  5
8  21  5
9  29  6

$$$$

