51090913
  -OEChem-06241223002D

 48 50  0     1  0  0  0  0  0999 V2000
    3.2320   -4.5194    0.0000 O   0  0  0  0  0  0  0  0  0  0  0  0
    3.7320    0.0194    0.0000 O   0  0  0  0  0  0  0  0  0  0  0  0
    7.1962    1.0194    0.0000 O   0  0  0  0  0  0  0  0  0  0  0  0
    4.5981   -1.4806    0.0000 N   0  0  0  0  0  0  0  0  0  0  0  0
    5.4641    1.0194    0.0000 N   0  0  0  0  0  0  0  0  0  0  0  0
    4.5981    1.5194    0.0000 N   0  0  0  0  0  0  0  0  0  0  0  0
    3.7320   -2.9806    0.0000 C   0  0  3  0  0  0  0  0  0  0  0  0
    4.5411   -3.5684    0.0000 C   0  0  0  0  0  0  0  0  0  0  0  0
    3.7320   -1.9806    0.0000 C   0  0  0  0  0  0  0  0  0  0  0  0
    2.9230   -3.5684    0.0000 C   0  0  0  0  0  0  0  0  0  0  0  0
    4.2320   -4.5194    0.0000 C   0  0  0  0  0  0  0  0  0  0  0  0
    5.4641   -1.9806    0.0000 C   0  0  0  0  0  0  0  0  0  0  0  0
    4.5981   -0.4806    0.0000 C   0  0  0  0  0  0  0  0  0  0  0  0
    5.4641    0.0194    0.0000 C   0  0  0  0  0  0  0  0  0  0  0  0
    6.3301   -1.4806    0.0000 C   0  0  0  0  0  0  0  0  0  0  0  0
    6.3301    1.5194    0.0000 C   0  0  0  0  0  0  0  0  0  0  0  0
    4.5981    2.5194    0.0000 C   0  0  0  0  0  0  0  0  0  0  0  0
    6.3301    2.5194    0.0000 C   0  0  0  0  0  0  0  0  0  0  0  0
    5.4641    3.0194    0.0000 C   0  0  0  0  0  0  0  0  0  0  0  0
    3.7320    3.0194    0.0000 C   0  0  0  0  0  0  0  0  0  0  0  0
    3.7320    4.0194    0.0000 C   0  0  0  0  0  0  0  0  0  0  0  0
    2.8660    2.5194    0.0000 C   0  0  0  0  0  0  0  0  0  0  0  0
    2.8660    4.5194    0.0000 C   0  0  0  0  0  0  0  0  0  0  0  0
    2.0000    3.0194    0.0000 C   0  0  0  0  0  0  0  0  0  0  0  0
    2.0000    4.0194    0.0000 C   0  0  0  0  0  0  0  0  0  0  0  0
    4.2845   -2.6991    0.0000 H   0  0  0  0  0  0  0  0  0  0  0  0
    5.1075   -3.8205    0.0000 H   0  0  0  0  0  0  0  0  0  0  0  0
    4.8511   -3.0314    0.0000 H   0  0  0  0  0  0  0  0  0  0  0  0
    3.5200   -1.3980    0.0000 H   0  0  0  0  0  0  0  0  0  0  0  0
    3.1215   -2.0882    0.0000 H   0  0  0  0  0  0  0  0  0  0  0  0
    2.6130   -3.0314    0.0000 H   0  0  0  0  0  0  0  0  0  0  0  0
    2.3566   -3.8205    0.0000 H   0  0  0  0  0  0  0  0  0  0  0  0
    4.1672   -5.1360    0.0000 H   0  0  0  0  0  0  0  0  0  0  0  0
    4.8385   -4.6483    0.0000 H   0  0  0  0  0  0  0  0  0  0  0  0
    5.0656   -2.4555    0.0000 H   0  0  0  0  0  0  0  0  0  0  0  0
    5.8626   -2.4555    0.0000 H   0  0  0  0  0  0  0  0  0  0  0  0
    5.6762   -0.5632    0.0000 H   0  0  0  0  0  0  0  0  0  0  0  0
    6.0747    0.1271    0.0000 H   0  0  0  0  0  0  0  0  0  0  0  0
    6.6401   -2.0175    0.0000 H   0  0  0  0  0  0  0  0  0  0  0  0
    6.8671   -1.1706    0.0000 H   0  0  0  0  0  0  0  0  0  0  0  0
    6.0201   -0.9436    0.0000 H   0  0  0  0  0  0  0  0  0  0  0  0
    6.8671    2.8294    0.0000 H   0  0  0  0  0  0  0  0  0  0  0  0
    5.4641    3.6394    0.0000 H   0  0  0  0  0  0  0  0  0  0  0  0
    4.2690    4.3294    0.0000 H   0  0  0  0  0  0  0  0  0  0  0  0
    2.8660    1.8994    0.0000 H   0  0  0  0  0  0  0  0  0  0  0  0
    2.8660    5.1394    0.0000 H   0  0  0  0  0  0  0  0  0  0  0  0
    1.4631    2.7094    0.0000 H   0  0  0  0  0  0  0  0  0  0  0  0
    1.4631    4.3294    0.0000 H   0  0  0  0  0  0  0  0  0  0  0  0
  1 10  1  0  0  0  0
  1 11  1  0  0  0  0
  2 13  2  0  0  0  0
  3 16  2  0  0  0  0
  4  9  1  0  0  0  0
  4 12  1  0  0  0  0
  4 13  1  0  0  0  0
  5  6  1  0  0  0  0
  5 14  1  0  0  0  0
  5 16  1  0  0  0  0
  6 17  2  0  0  0  0
  7  8  1  0  0  0  0
  7  9  1  0  0  0  0
  7 10  1  0  0  0  0
  7 26  1  0  0  0  0
  8 11  1  0  0  0  0
  8 27  1  0  0  0  0
  8 28  1  0  0  0  0
  9 29  1  0  0  0  0
  9 30  1  0  0  0  0
 10 31  1  0  0  0  0
 10 32  1  0  0  0  0
 11 33  1  0  0  0  0
 11 34  1  0  0  0  0
 12 15  1  0  0  0  0
 12 35  1  0  0  0  0
 12 36  1  0  0  0  0
 13 14  1  0  0  0  0
 14 37  1  0  0  0  0
 14 38  1  0  0  0  0
 15 39  1  0  0  0  0
 15 40  1  0  0  0  0
 15 41  1  0  0  0  0
 16 18  1  0  0  0  0
 17 19  1  0  0  0  0
 17 20  1  0  0  0  0
 18 19  2  0  0  0  0
 18 42  1  0  0  0  0
 19 43  1  0  0  0  0
 20 21  2  0  0  0  0
 20 22  1  0  0  0  0
 21 23  1  0  0  0  0
 21 44  1  0  0  0  0
 22 24  2  0  0  0  0
 22 45  1  0  0  0  0
 23 25  2  0  0  0  0
 23 46  1  0  0  0  0
 24 25  1  0  0  0  0
 24 47  1  0  0  0  0
 25 48  1  0  0  0  0
M  END
> <PUBCHEM_COMPOUND_CID>
51090913

> <PUBCHEM_COMPOUND_CANONICALIZED>
1

> <PUBCHEM_CACTVS_COMPLEXITY>
552

> <PUBCHEM_CACTVS_HBOND_ACCEPTOR>
4

> <PUBCHEM_CACTVS_HBOND_DONOR>
0

> <PUBCHEM_CACTVS_ROTATABLE_BOND>
6

> <PUBCHEM_CACTVS_SUBSKEYS>
AAADceB7MAAAAAAAAAAAAAAAAAAAASAAAAAwQAAAAAAAAAABAAAAHgAIAAAADQjhmAYyAIMABACoAyFyEACSAAAgAAAaiAC4ANgIYKKAkTCWIAAmjgCIiYcggIAOAAAAAAAAAAAAAAAAAAAAAAAAAAAAAA==

> <PUBCHEM_IUPAC_OPENEYE_NAME>
N-ethyl-2-(6-oxo-3-phenyl-pyridazin-1-yl)-N-(tetrahydrofuran-3-ylmethyl)acetamide

> <PUBCHEM_IUPAC_CAS_NAME>
N-ethyl-N-(3-oxolanylmethyl)-2-(6-oxo-3-phenyl-1-pyridazinyl)acetamide

> <PUBCHEM_IUPAC_NAME>
N-ethyl-N-(oxolan-3-ylmethyl)-2-(6-oxo-3-phenylpyridazin-1-yl)acetamide

> <PUBCHEM_IUPAC_SYSTEMATIC_NAME>
N-ethyl-2-(6-oxidanylidene-3-phenyl-pyridazin-1-yl)-N-(oxolan-3-ylmethyl)ethanamide

> <PUBCHEM_IUPAC_TRADITIONAL_NAME>
N-ethyl-2-(6-keto-3-phenyl-pyridazin-1-yl)-N-(tetrahydrofuran-3-ylmethyl)acetamide

> <PUBCHEM_IUPAC_INCHI>
InChI=1S/C19H23N3O3/c1-2-21(12-15-10-11-25-14-15)19(24)13-22-18(23)9-8-17(20-22)16-6-4-3-5-7-16/h3-9,15H,2,10-14H2,1H3

> <PUBCHEM_IUPAC_INCHIKEY>
APOVCSJODDZZCK-UHFFFAOYSA-N

> <PUBCHEM_XLOGP3_AA>
1.6

> <PUBCHEM_EXACT_MASS>
341.173942

> <PUBCHEM_MOLECULAR_FORMULA>
C19H23N3O3

> <PUBCHEM_MOLECULAR_WEIGHT>
341.40422

> <PUBCHEM_OPENEYE_CAN_SMILES>
CCN(CC1CCOC1)C(=O)CN2C(=O)C=CC(=N2)C3=CC=CC=C3

> <PUBCHEM_OPENEYE_ISO_SMILES>
CCN(CC1CCOC1)C(=O)CN2C(=O)C=CC(=N2)C3=CC=CC=C3

> <PUBCHEM_CACTVS_TPSA>
62.2

> <PUBCHEM_MONOISOTOPIC_WEIGHT>
341.173942

> <PUBCHEM_TOTAL_CHARGE>
0

> <PUBCHEM_HEAVY_ATOM_COUNT>
25

> <PUBCHEM_ATOM_DEF_STEREO_COUNT>
0

> <PUBCHEM_ATOM_UDEF_STEREO_COUNT>
1

> <PUBCHEM_BOND_DEF_STEREO_COUNT>
0

> <PUBCHEM_BOND_UDEF_STEREO_COUNT>
0

> <PUBCHEM_ISOTOPIC_ATOM_COUNT>
0

> <PUBCHEM_COMPONENT_COUNT>
1

> <PUBCHEM_CACTVS_TAUTO_COUNT>
1

> <PUBCHEM_COORDINATE_TYPE>
1
5
255

> <PUBCHEM_BONDANNOTATIONS>
16  18  8
17  19  8
18  19  8
20  21  8
20  22  8
21  23  8
22  24  8
23  25  8
24  25  8
5  16  8
5  6  8
6  17  8
7  9  3

$$$$

