   Color/Form

     * Colorless, oily liquid.
     * Mobile liquid

   from [1]HSDB

   Odor

     * Aromatic ethereal odor
     * Chloroform-like odor.

   from [2]HSDB

   Taste
        As of chloroform
   from [3]HSDB

   Boiling Point
        57.4 deg C
   from [4]HSDB

   Melting Point
        -96.9 deg C
   from [5]HSDB

   Corrosivity

     * Will attack some forms of plastics, rubber, and coatings.
     * ... Marginal, increases however, with water content and
       temperature. Aluminum is easily attacked.

   from [6]HSDB

   Critical Temperature and Pressure
        Critical temperature 502.7 deg F= 261.5 deg C= 534.65 K; Critical
   pressure 734.8 psia= 50 atm.
   from [7]HSDB

   Density/Specific Gravity
        1.175 @ 20 deg C/4 deg C; 1.1680 @ 25 deg C/4 deg C
   from [8]HSDB

   Heat of Combustion
        -4,774 Btu/lb= -2,652 cal/g= -111X10+5 J/kg
   from [9]HSDB

   Heat of Vaporization
        131.6 Btu/lb= 73.1 cal/g= 3.06X10+5 J/kg
   from [10]HSDB

   Octanol/Water Partition Coefficient
        log Kow= 1.79
   from [11]HSDB

   pH
        Neutral
   from [12]HSDB

   Solubilities

     * Soluble in fixed and volatile oils.
     * Soluble in acetone; very soluble in ethanol, ethyl ether.
     * Miscible with oxygenated and chlorinated solvents.
     * In water, 5,040 mg/l @ 25 deg C

   from [13]HSDB

   Spectral Properties

     * Index of refraction: 1.4167 @ 20 deg C
     * SADTLER REFERENCE NUMBER: 3205 (IR, PRISM); J118 (NMR)
     * MASS: NIST 19755 (NIST/EPA/MCDC Mass Spectral Database 1990
       version); WILEY 216 (Atlas of Spectral Data)
     * IR: SADP 6336 (Sadtler Research Laboratories IR prism collection)
     * 13C NMR: STOT 137 (Stothers Carbon-13 NMR Spectroscopy)

   from [14]HSDB

   Surface Tension
        24.75 dynes/cm = 0.02475 N/m at 20 deg C
   from [15]HSDB

   Vapor Density
        3.92 (Air= 1)
   from [16]HSDB

   Vapor Pressure
        2.27X10+2 mm Hg @ 25 deg C
   from [17]HSDB

   Relative Evaporation Rate

     * 11.6 (butyl acetate= 1)
     * Measured half-life for evaporation from 1 ppm aqueous solution at
       25 deg C, still air, and an average depth of 6.5 cm: 32 min.

   from [18]HSDB

   Viscosity
        0.38X10-3 Pa.s @ 20 deg C
   from [19]HSDB

   Other Chemical/Physical Properties

     * Percent in saturated air: 30.8 @ 25 deg C
     * Dielectric constant: 10.9 @ 20 deg C (liq)
     * Binary azeotropes, bp with 1.9% water 53.3 deg C @ 97 kPa; with
       11.5% ethanol 54.6 deg C
     * Latent heat of vaporization @ 20 deg C: 280.3 J/g @ 20 deg C
     * Saturated concn in air: 986 g/cu m @ 20 deg C, 1,406 g/cu m @ 30
       deg C
     * Liquid thermal conductivity @ 35 deg F: 0.804 BTU-in/hr-sq ft-deg
       F; saturated vapor density 0.07032 lb/cu ft @ 20 deg C
     * Solubility of water in 1,1-dichloroethane - 0.097 g in 100 g @ 20
       deg C
     * Dipole moment: 2.06 debyes (gas), 2.00 debyes in benzene @ 25 deg C
     * GAS: Enthalpy of formation: -31.10 kcal/mole @ 25 deg C; Gibbs
       energy of formation: -17.52 kcal/mole @ 25 deg C; heat capacity:
       18.25 cal/deg-mole
     * LIQUID: Enthalpy of formation: -38.3 kcal/mole @ 25 deg C; Gibbs
       energy of formation: -18.1 kcal/mole @ 25 deg C; heat capacity:
       30.18 cal/deg/mole
     * Heat of melting: 1.881 kcal/mole @ mp; heat of sublimation: 6.97
       kcal/moel @ 298 K; specific heat: 21.85 cal/K/mole @ 400 K. 27.18
       cal/K/mole @ 600 K, 30.79 cal/K/mole @ 800 K, 33.40 cal/K/mole @
       1000 K
     * Ionization potential: 11.06 eV
     * Henry's Law constant = 5.62X10-3 atm-cu m/mole @ 24 deg C
     * Hydroxyl radical reaction rate constant = 2.74X10-13 cu
       cm/molecule-sec @ 25 deg C

   from [20]HSDB

   Computed Properties
   Molecular Weight                  98.95916 [g/mol]
   Molecular Formula                 C[2]H[4]Cl[2]
   XLogP3-AA                         1.9
   H-Bond Donor                      0
   H-Bond Acceptor                   0
   Rotatable Bond Count              0
   Exact Mass                        97.969005
   MonoIsotopic Mass                 97.969005
   Topological Polar Surface Area    0
   Heavy Atom Count                  4
   Formal Charge                     0
   Complexity                        11.5
   Isotope Atom Count                0
   Defined Atom Stereocenter Count   0
   Undefined Atom Stereocenter Count 0
   Defined Bond Stereocenter Count   0
   Undefined Bond Stereocenter Count 0
   Covalently-Bonded Unit Count      1
   Effective Rotor Count             0
   Conformer Sampling RMSD           0.4
   CID Conformer Count               [21]1

References

   1. http://toxnet.nlm.nih.gov/cgi-bin/sis/search/r?dbs+hsdb:@term+@rn+@rel+75-34-3
   2. http://toxnet.nlm.nih.gov/cgi-bin/sis/search/r?dbs+hsdb:@term+@rn+@rel+75-34-3
   3. http://toxnet.nlm.nih.gov/cgi-bin/sis/search/r?dbs+hsdb:@term+@rn+@rel+75-34-3
   4. http://toxnet.nlm.nih.gov/cgi-bin/sis/search/r?dbs+hsdb:@term+@rn+@rel+75-34-3
   5. http://toxnet.nlm.nih.gov/cgi-bin/sis/search/r?dbs+hsdb:@term+@rn+@rel+75-34-3
   6. http://toxnet.nlm.nih.gov/cgi-bin/sis/search/r?dbs+hsdb:@term+@rn+@rel+75-34-3
   7. http://toxnet.nlm.nih.gov/cgi-bin/sis/search/r?dbs+hsdb:@term+@rn+@rel+75-34-3
   8. http://toxnet.nlm.nih.gov/cgi-bin/sis/search/r?dbs+hsdb:@term+@rn+@rel+75-34-3
   9. http://toxnet.nlm.nih.gov/cgi-bin/sis/search/r?dbs+hsdb:@term+@rn+@rel+75-34-3
  10. http://toxnet.nlm.nih.gov/cgi-bin/sis/search/r?dbs+hsdb:@term+@rn+@rel+75-34-3
  11. http://toxnet.nlm.nih.gov/cgi-bin/sis/search/r?dbs+hsdb:@term+@rn+@rel+75-34-3
  12. http://toxnet.nlm.nih.gov/cgi-bin/sis/search/r?dbs+hsdb:@term+@rn+@rel+75-34-3
  13. http://toxnet.nlm.nih.gov/cgi-bin/sis/search/r?dbs+hsdb:@term+@rn+@rel+75-34-3
  14. http://toxnet.nlm.nih.gov/cgi-bin/sis/search/r?dbs+hsdb:@term+@rn+@rel+75-34-3
  15. http://toxnet.nlm.nih.gov/cgi-bin/sis/search/r?dbs+hsdb:@term+@rn+@rel+75-34-3
  16. http://toxnet.nlm.nih.gov/cgi-bin/sis/search/r?dbs+hsdb:@term+@rn+@rel+75-34-3
  17. http://toxnet.nlm.nih.gov/cgi-bin/sis/search/r?dbs+hsdb:@term+@rn+@rel+75-34-3
  18. http://toxnet.nlm.nih.gov/cgi-bin/sis/search/r?dbs+hsdb:@term+@rn+@rel+75-34-3
  19. http://toxnet.nlm.nih.gov/cgi-bin/sis/search/r?dbs+hsdb:@term+@rn+@rel+75-34-3
  20. http://toxnet.nlm.nih.gov/cgi-bin/sis/search/r?dbs+hsdb:@term+@rn+@rel+75-34-3
  21. http://pubchem.ncbi.nlm.nih.gov/vw3d/vw3d.cgi?cid=6365
