   Color/Form
        Oily liq
   from [1]HSDB

   Odor
        Amine odor
   from [2]HSDB

   Boiling Point
        203-210 deg C @ 0.3 mm Hg
   from [3]HSDB

   Octanol/Water Partition Coefficient
        log Kow= 4.55
   from [4]HSDB

   pH
        Alkaline reaction
   from [5]HSDB

   Solubilities
        In water, 14.2 mg/l @ 24 deg C
   from [6]HSDB

   Spectral Properties

     * MAX ABSORPTION: 251 NM (A= 1096, 1%, 1 CM); 252 NM (A= 1114, 1%, 1
       CM); 256 NM; 250 NM; 262 NM
     * Intense mass spectral peaks: 58 m/z, 86 m/z, 199 m/z, 284 m/z

   from [7]HSDB

   Other Chemical/Physical Properties

     * Decomp at 181 deg C (microblock); Hygroscopic; Aq soln are slightly
       acid to litmus /Hydrochloride/
     * PRACTICALLY ODORLESS /HYDROCHLORIDE/
     * pH of 5% soln between 4.2 & 5.2 /Hydrochloride/
     * White to slightly yellow crystals /Hydrochloride/
     * 1 g dissolves in about 3 ml water /Hydrochloride/
     * Sol in methanol, ethanol, chloroform /Hydrochloride/
     * Practically insol in ether, benzene /Hydrochloride/

   from [8]HSDB

   Computed Properties
   Molecular Weight                  284.4191 [g/mol]
   Molecular Formula                 C[17]H[20]N[2]S
   XLogP3                            4.5
   H-Bond Donor                      0
   H-Bond Acceptor                   3
   Rotatable Bond Count              4
   Exact Mass                        284.13472
   MonoIsotopic Mass                 284.13472
   Topological Polar Surface Area    31.8
   Heavy Atom Count                  20
   Formal Charge                     0
   Complexity                        285
   Isotope Atom Count                0
   Defined Atom Stereocenter Count   0
   Undefined Atom Stereocenter Count 0
   Defined Bond Stereocenter Count   0
   Undefined Bond Stereocenter Count 0
   Covalently-Bonded Unit Count      1
   Feature 3D Cation Count           2
   Feature 3D Ring Count             3
   Effective Rotor Count             4.4
   Conformer Sampling RMSD           0.6
   CID Conformer Count               [9]13

References

   1. http://toxnet.nlm.nih.gov/cgi-bin/sis/search/r?dbs+hsdb:@term+@rn+@rel+58-40-2
   2. http://toxnet.nlm.nih.gov/cgi-bin/sis/search/r?dbs+hsdb:@term+@rn+@rel+58-40-2
   3. http://toxnet.nlm.nih.gov/cgi-bin/sis/search/r?dbs+hsdb:@term+@rn+@rel+58-40-2
   4. http://toxnet.nlm.nih.gov/cgi-bin/sis/search/r?dbs+hsdb:@term+@rn+@rel+58-40-2
   5. http://toxnet.nlm.nih.gov/cgi-bin/sis/search/r?dbs+hsdb:@term+@rn+@rel+58-40-2
   6. http://toxnet.nlm.nih.gov/cgi-bin/sis/search/r?dbs+hsdb:@term+@rn+@rel+58-40-2
   7. http://toxnet.nlm.nih.gov/cgi-bin/sis/search/r?dbs+hsdb:@term+@rn+@rel+58-40-2
   8. http://toxnet.nlm.nih.gov/cgi-bin/sis/search/r?dbs+hsdb:@term+@rn+@rel+58-40-2
   9. http://pubchem.ncbi.nlm.nih.gov/vw3d/vw3d.cgi?cid=4926
