   Color/Form

     * Volatile liquid or gas
     * Colorless liquid or gas (above 69 degrees F)

   from [1]HSDB

   Odor
        Pungent, fruity odor
   from [2]HSDB

   Boiling Point
        20.1 deg C
   from [3]HSDB

   Melting Point
        -123.37 deg C
   from [4]HSDB

   Critical Temperature and Pressure
        Critical temperature: 188 deg C; critical pressure: 63.2 atm
   from [5]HSDB

   Density/Specific Gravity
        0.7834 g/cu cm at 18 deg C
   from [6]HSDB

   Dissociation Constants

     * Ka = 0.7X10-14 at 0 deg C
     * pKa = 13.57 at 25 deg C

   from [7]HSDB

   Heat of Combustion
        -1166.37 kJ/mol at 25 deg C (liquid)
   from [8]HSDB

   Heat of Vaporization
        26.11 kJ/mol at 25 deg C
   from [9]HSDB

   Octanol/Water Partition Coefficient
        log Kow = -0.34
   from [10]HSDB

   Solubilities

     * Miscible with ethanol, ether, benzene; slightly soluble in
       chloroform
     * Miscible with gasoline, solvent naphtha, toluene, xylene,
       turpentine, and acetone
     * Miscible with water /1X10+6 mg/L at 25 deg C/

   from [11]HSDB

   Spectral Properties

     * MAX ABSORPTION (GAS): 178 NM (LOG E= 3.48); 181 NM (LOG E= 3.60);
       181.5 NM (LOG E= 4.05)
     * MAX ABSORPTION (CYCLOHEXANE): 290 NM (LOG E= 1.23)
     * SADTLER REFERENCE NUMBER: 5824 (IR, PRISM)
     * Index of refraction = 1.3316 at 20 deg C
     * IR: 5645 (Coblentz Society Spectral Collection)
     * UV: 5-4 (Organic Electronic Spectral Data, Phillips et al, John
       Wiley & Sons, New York)
     * NMR: 6 (Varian Associates NMR Spectra Catalogue)
     * MASS: 62124 (NIST/EPA/MCDC Mass Spectral Database 1990 Version); 97
       (Atlas of Mass Spectral Data, John Wiley and Sons, NY)
     * RAS UV No. 12511

   from [12]HSDB

   Surface Tension
        21.2 mN/m at 20 deg C (1.0 mN/m = 1.0 dyn/cm)
   from [13]HSDB

   Vapor Density
        1.52 (Air = 1)
   from [14]HSDB

   Vapor Pressure
        902 mm Hg at 25 deg C
   from [15]HSDB

   Viscosity
        0.2456 mPa.sec at 15 deg C (1.0 mPa.sec = 1.0 cP)
   from [16]HSDB

   Other Chemical/Physical Properties

     * Coefficient of expansion, 0.00169/deg C (0 to 30 deg C); latent
       heat of fusion, 3.24 kJ/mol; heat of solution in water, -6.82
       kJ/mol at 25 deg C; dipole moment, 8.97X10-3 deg C.m
     * Heat capacity of liquid: 1.38 J/g-deg K at 20 degC; heat capacity
       of vapor: 1.24 J/g-deg K at 25 deg C, 101.3 kPa
     * Henry's Law constant = 6.67X10-5 atm-cu m/mol at 25 deg C [Gaffney
       JS et al; Environ Sci Technol 21: 519-23 (1987)] [17]PubMed
       Abstract
     * Hydroxyl radical reaction rate constant = 1.58X10-11 cu
       cm/molec-sec at 25 deg C

   from [18]HSDB

   Computed Properties
   Molecular Weight                  44.05256 [g/mol]
   Molecular Formula                 C[2]H[4]O
   XLogP3-AA                         -0.3
   H-Bond Donor                      0
   H-Bond Acceptor                   1
   Rotatable Bond Count              0
   Tautomer Count                    2
   Exact Mass                        44.026215
   MonoIsotopic Mass                 44.026215
   Topological Polar Surface Area    17.1
   Heavy Atom Count                  3
   Formal Charge                     0
   Complexity                        10.3
   Isotope Atom Count                0
   Defined Atom Stereocenter Count   0
   Undefined Atom Stereocenter Count 0
   Defined Bond Stereocenter Count   0
   Undefined Bond Stereocenter Count 0
   Covalently-Bonded Unit Count      1
   Feature 3D Acceptor Count         1
   Effective Rotor Count             0
   Conformer Sampling RMSD           0.4
   CID Conformer Count               [19]1

References

   1. http://toxnet.nlm.nih.gov/cgi-bin/sis/search/r?dbs+hsdb:@term+@rn+@rel+75-07-0
   2. http://toxnet.nlm.nih.gov/cgi-bin/sis/search/r?dbs+hsdb:@term+@rn+@rel+75-07-0
   3. http://toxnet.nlm.nih.gov/cgi-bin/sis/search/r?dbs+hsdb:@term+@rn+@rel+75-07-0
   4. http://toxnet.nlm.nih.gov/cgi-bin/sis/search/r?dbs+hsdb:@term+@rn+@rel+75-07-0
   5. http://toxnet.nlm.nih.gov/cgi-bin/sis/search/r?dbs+hsdb:@term+@rn+@rel+75-07-0
   6. http://toxnet.nlm.nih.gov/cgi-bin/sis/search/r?dbs+hsdb:@term+@rn+@rel+75-07-0
   7. http://toxnet.nlm.nih.gov/cgi-bin/sis/search/r?dbs+hsdb:@term+@rn+@rel+75-07-0
   8. http://toxnet.nlm.nih.gov/cgi-bin/sis/search/r?dbs+hsdb:@term+@rn+@rel+75-07-0
   9. http://toxnet.nlm.nih.gov/cgi-bin/sis/search/r?dbs+hsdb:@term+@rn+@rel+75-07-0
  10. http://toxnet.nlm.nih.gov/cgi-bin/sis/search/r?dbs+hsdb:@term+@rn+@rel+75-07-0
  11. http://toxnet.nlm.nih.gov/cgi-bin/sis/search/r?dbs+hsdb:@term+@rn+@rel+75-07-0
  12. http://toxnet.nlm.nih.gov/cgi-bin/sis/search/r?dbs+hsdb:@term+@rn+@rel+75-07-0
  13. http://toxnet.nlm.nih.gov/cgi-bin/sis/search/r?dbs+hsdb:@term+@rn+@rel+75-07-0
  14. http://toxnet.nlm.nih.gov/cgi-bin/sis/search/r?dbs+hsdb:@term+@rn+@rel+75-07-0
  15. http://toxnet.nlm.nih.gov/cgi-bin/sis/search/r?dbs+hsdb:@term+@rn+@rel+75-07-0
  16. http://toxnet.nlm.nih.gov/cgi-bin/sis/search/r?dbs+hsdb:@term+@rn+@rel+75-07-0
  17. http://www.ncbi.nlm.nih.gov/entrez/query.fcgi?cmd=Retrieve&db=pubmed&dopt=Abstract&list_uids=19994967
  18. http://toxnet.nlm.nih.gov/cgi-bin/sis/search/r?dbs+hsdb:@term+@rn+@rel+75-07-0
  19. http://pubchem.ncbi.nlm.nih.gov/vw3d/vw3d.cgi?cid=177
