   Color/Form
        Colorless liquid
   from [1]HSDB

   Boiling Point
        245 deg C
   from [2]HSDB

   Melting Point
        -19.8 deg C
   from [3]HSDB

   Density/Specific Gravity
        1.0076 @ 20 deg C
   from [4]HSDB

   Solubilities

     * Soluble in ethanol and ethyl ether
     * In water, 4230 mg/l @ 20 deg C

   from [5]HSDB

   Spectral Properties

     * Index of refraction: 1.426 @ 25 deg C
     * IR: 4796 (Coblentz Society Spectral Collection)
     * MASS: 1427 (Atlas of Mass Spectral Data, John Wiley & Sons, New
       York)

   from [6]HSDB

   Vapor Pressure
        0.058 mm Hg @ 25 deg C
   from [7]HSDB

   Other Chemical/Physical Properties
        CONVERSION FACTOR: 8.26 MG/CU M IS EQUIVALENT TO 1 PPM (WT/VOL)
   from [8]HSDB

   Computed Properties
   Molecular Weight                  202.24752 [g/mol]
   Molecular Formula                 C[10]H[18]O[4]
   XLogP3-AA                         1.3
   H-Bond Donor                      0
   H-Bond Acceptor                   4
   Rotatable Bond Count              9
   Exact Mass                        202.120509
   MonoIsotopic Mass                 202.120509
   Topological Polar Surface Area    52.6
   Heavy Atom Count                  14
   Formal Charge                     0
   Complexity                        157
   Isotope Atom Count                0
   Defined Atom Stereocenter Count   0
   Undefined Atom Stereocenter Count 0
   Defined Bond Stereocenter Count   0
   Undefined Bond Stereocenter Count 0
   Covalently-Bonded Unit Count      1
   Feature 3D Acceptor Count         2
   Feature 3D Hydrophobe Count       1
   Effective Rotor Count             9
   Conformer Sampling RMSD           0.8
   CID Conformer Count               [9]102

References

   1. http://toxnet.nlm.nih.gov/cgi-bin/sis/search/r?dbs+hsdb:@term+@rn+@rel+141-28-6
   2. http://toxnet.nlm.nih.gov/cgi-bin/sis/search/r?dbs+hsdb:@term+@rn+@rel+141-28-6
   3. http://toxnet.nlm.nih.gov/cgi-bin/sis/search/r?dbs+hsdb:@term+@rn+@rel+141-28-6
   4. http://toxnet.nlm.nih.gov/cgi-bin/sis/search/r?dbs+hsdb:@term+@rn+@rel+141-28-6
   5. http://toxnet.nlm.nih.gov/cgi-bin/sis/search/r?dbs+hsdb:@term+@rn+@rel+141-28-6
   6. http://toxnet.nlm.nih.gov/cgi-bin/sis/search/r?dbs+hsdb:@term+@rn+@rel+141-28-6
   7. http://toxnet.nlm.nih.gov/cgi-bin/sis/search/r?dbs+hsdb:@term+@rn+@rel+141-28-6
   8. http://toxnet.nlm.nih.gov/cgi-bin/sis/search/r?dbs+hsdb:@term+@rn+@rel+141-28-6
   9. http://pubchem.ncbi.nlm.nih.gov/vw3d/vw3d.cgi?cid=8844
