442694
  -OEChem-07051212592D

 37 39  0     0  0  0  0  0  0999 V2000
    3.7817    1.1060    0.0000 O   0  0  0  0  0  0  0  0  0  0  0  0
    2.0000   -1.9527    0.0000 O   0  0  0  0  0  0  0  0  0  0  0  0
    8.1821    1.6165    0.0000 O   0  0  0  0  0  0  0  0  0  0  0  0
    6.4082    2.6407    0.0000 O   0  0  0  0  0  0  0  0  0  0  0  0
    4.6641   -0.4286    0.0000 C   0  0  0  0  0  0  0  0  0  0  0  0
    5.5301    0.0714    0.0000 C   0  0  0  0  0  0  0  0  0  0  0  0
    4.6641   -1.4286    0.0000 C   0  0  0  0  0  0  0  0  0  0  0  0
    6.3961   -0.4286    0.0000 C   0  0  0  0  0  0  0  0  0  0  0  0
    3.7702    0.1061    0.0000 C   0  0  0  0  0  0  0  0  0  0  0  0
    5.5301   -1.9286    0.0000 C   0  0  0  0  0  0  0  0  0  0  0  0
    6.3961   -1.4286    0.0000 C   0  0  0  0  0  0  0  0  0  0  0  0
    5.5141    1.1129    0.0000 C   0  0  0  0  0  0  0  0  0  0  0  0
    3.7702   -1.9632    0.0000 C   0  0  0  0  0  0  0  0  0  0  0  0
    7.3062    0.0783    0.0000 C   0  0  0  0  0  0  0  0  0  0  0  0
    2.8641   -0.4078    0.0000 C   0  0  0  0  0  0  0  0  0  0  0  0
    2.8641   -1.4494    0.0000 C   0  0  0  0  0  0  0  0  0  0  0  0
    6.4121    1.6407    0.0000 C   0  0  0  0  0  0  0  0  0  0  0  0
    7.3142    1.1199    0.0000 C   0  0  0  0  0  0  0  0  0  0  0  0
    2.9215    1.6160    0.0000 C   0  0  0  0  0  0  0  0  0  0  0  0
    2.0038   -2.9527    0.0000 C   0  0  0  0  0  0  0  0  0  0  0  0
    9.0462    1.1132    0.0000 C   0  0  0  0  0  0  0  0  0  0  0  0
    5.5301   -2.5486    0.0000 H   0  0  0  0  0  0  0  0  0  0  0  0
    6.9331   -1.7386    0.0000 H   0  0  0  0  0  0  0  0  0  0  0  0
    4.9736    1.4167    0.0000 H   0  0  0  0  0  0  0  0  0  0  0  0
    3.7773   -2.5832    0.0000 H   0  0  0  0  0  0  0  0  0  0  0  0
    7.8395   -0.2379    0.0000 H   0  0  0  0  0  0  0  0  0  0  0  0
    2.3284   -0.0957    0.0000 H   0  0  0  0  0  0  0  0  0  0  0  0
    6.9440    2.9527    0.0000 H   0  0  0  0  0  0  0  0  0  0  0  0
    3.2377    2.1493    0.0000 H   0  0  0  0  0  0  0  0  0  0  0  0
    2.3882    1.9322    0.0000 H   0  0  0  0  0  0  0  0  0  0  0  0
    2.6054    1.0827    0.0000 H   0  0  0  0  0  0  0  0  0  0  0  0
    1.3839   -2.9551    0.0000 H   0  0  0  0  0  0  0  0  0  0  0  0
    2.0062   -3.5727    0.0000 H   0  0  0  0  0  0  0  0  0  0  0  0
    2.6238   -2.9503    0.0000 H   0  0  0  0  0  0  0  0  0  0  0  0
    8.7342    0.5774    0.0000 H   0  0  0  0  0  0  0  0  0  0  0  0
    9.5820    0.8011    0.0000 H   0  0  0  0  0  0  0  0  0  0  0  0
    9.3583    1.6489    0.0000 H   0  0  0  0  0  0  0  0  0  0  0  0
  1  9  1  0  0  0  0
  1 19  1  0  0  0  0
  2 16  1  0  0  0  0
  2 20  1  0  0  0  0
  3 18  1  0  0  0  0
  3 21  1  0  0  0  0
  4 17  1  0  0  0  0
  4 28  1  0  0  0  0
  5  6  1  0  0  0  0
  5  7  1  0  0  0  0
  5  9  2  0  0  0  0
  6  8  1  0  0  0  0
  6 12  2  0  0  0  0
  7 10  1  0  0  0  0
  7 13  2  0  0  0  0
  8 11  1  0  0  0  0
  8 14  2  0  0  0  0
  9 15  1  0  0  0  0
 10 11  2  0  0  0  0
 10 22  1  0  0  0  0
 11 23  1  0  0  0  0
 12 17  1  0  0  0  0
 12 24  1  0  0  0  0
 13 16  1  0  0  0  0
 13 25  1  0  0  0  0
 14 18  1  0  0  0  0
 14 26  1  0  0  0  0
 15 16  2  0  0  0  0
 15 27  1  0  0  0  0
 17 18  2  0  0  0  0
 19 29  1  0  0  0  0
 19 30  1  0  0  0  0
 19 31  1  0  0  0  0
 20 32  1  0  0  0  0
 20 33  1  0  0  0  0
 20 34  1  0  0  0  0
 21 35  1  0  0  0  0
 21 36  1  0  0  0  0
 21 37  1  0  0  0  0
M  END
> <PUBCHEM_COMPOUND_CID>
442694

> <PUBCHEM_COMPOUND_CANONICALIZED>
1

> <PUBCHEM_CACTVS_COMPLEXITY>
348

> <PUBCHEM_CACTVS_HBOND_ACCEPTOR>
4

> <PUBCHEM_CACTVS_HBOND_DONOR>
1

> <PUBCHEM_CACTVS_ROTATABLE_BOND>
3

> <PUBCHEM_CACTVS_SUBSKEYS>
AAADceB4OAAAAAAAAAAAAAAAAAAAAAAAAAAwYMAAAAAAAADBVAAAGgAACAAADASAmAIyBsAABgCAAiBCAAACCAAgIAAIiAAGiIgNJyKGMRqAcCMlwBULuAeA4PwO4AADCAAYQADAAAYQADCAAAAAAAAAAA==

> <PUBCHEM_IUPAC_OPENEYE_NAME>
2,5,7-trimethoxyphenanthren-3-ol

> <PUBCHEM_IUPAC_CAS_NAME>
2,5,7-trimethoxy-3-phenanthrenol

> <PUBCHEM_IUPAC_NAME>
2,5,7-trimethoxyphenanthren-3-ol

> <PUBCHEM_IUPAC_SYSTEMATIC_NAME>
2,5,7-trimethoxyphenanthren-3-ol

> <PUBCHEM_IUPAC_TRADITIONAL_NAME>
2,5,7-trimethoxyphenanthren-3-ol

> <PUBCHEM_IUPAC_INCHI>
InChI=1S/C17H16O4/c1-19-12-6-11-5-4-10-7-15(20-2)14(18)9-13(10)17(11)16(8-12)21-3/h4-9,18H,1-3H3

> <PUBCHEM_IUPAC_INCHIKEY>
KGYHMWVRKYFQQR-UHFFFAOYSA-N

> <PUBCHEM_XLOGP3_AA>
4

> <PUBCHEM_EXACT_MASS>
284.104859

> <PUBCHEM_MOLECULAR_FORMULA>
C17H16O4

> <PUBCHEM_MOLECULAR_WEIGHT>
284.30654

> <PUBCHEM_OPENEYE_CAN_SMILES>
COC1=CC(=C2C(=C1)C=CC3=CC(=C(C=C32)O)OC)OC

> <PUBCHEM_OPENEYE_ISO_SMILES>
COC1=CC(=C2C(=C1)C=CC3=CC(=C(C=C32)O)OC)OC

> <PUBCHEM_CACTVS_TPSA>
47.9

> <PUBCHEM_MONOISOTOPIC_WEIGHT>
284.104859

> <PUBCHEM_TOTAL_CHARGE>
0

> <PUBCHEM_HEAVY_ATOM_COUNT>
21

> <PUBCHEM_ATOM_DEF_STEREO_COUNT>
0

> <PUBCHEM_ATOM_UDEF_STEREO_COUNT>
0

> <PUBCHEM_BOND_DEF_STEREO_COUNT>
0

> <PUBCHEM_BOND_UDEF_STEREO_COUNT>
0

> <PUBCHEM_ISOTOPIC_ATOM_COUNT>
0

> <PUBCHEM_COMPONENT_COUNT>
1

> <PUBCHEM_CACTVS_TAUTO_COUNT>
3

> <PUBCHEM_COORDINATE_TYPE>
1
5
255

> <PUBCHEM_BONDANNOTATIONS>
10  11  8
12  17  8
13  16  8
14  18  8
15  16  8
17  18  8
5  6  8
5  7  8
5  9  8
6  12  8
6  8  8
7  10  8
7  13  8
8  11  8
8  14  8
9  15  8

$$$$

