   Color/Form
        Colorless to white liquid
   from [1]HSDB

   Odor

     * Penetrating fruity odor
     * CHARACTERISTIC BANANA, SLIGHTLY SPICY ODOR
     * Banana-like fruity odor

   from [2]HSDB

   Taste
        PEAR-LIKE FLAVOR
   from [3]HSDB

   Boiling Point
        151.5 deg C at 760 mm Hg; 111 deg C at 21 mm Hg
   from [4]HSDB

   Melting Point
        -35.5 deg C
   from [5]HSDB

   Corrosivity
        Will attack some forms of plastic
   from [6]HSDB

   Density/Specific Gravity
        0.8324 at 0 deg C/4 deg C; 0.8197 at 15 deg C/4 deg C; 0.8068 at
   30 deg C/4 deg C
   from [7]HSDB

   Heat of Vaporization
        12,478.9 G CAL/G MOL
   from [8]HSDB

   Octanol/Water Partition Coefficient
        log Kow = 1.98
   from [9]HSDB

   Solubilities

     * Soluble in alcohol and ether
     * 0.43% (by wt) in water
     * Miscible with organic solvents
     * In water, 4.28X10+3 mg/L at 25 deg C

   from [10]HSDB

   Spectral Properties

     * Index of refraction: 1.41156 at 15 deg C/D, 1.40729 at 25 deg C/D
     * INDEX OF REFRACTION: 1.4088 AT 20 DEG C/D; MAX ABSORPTION (METHYL
       ALCOHOL): 274 NM (LOG E= 1.34); SADTLER REF NUMBER: 340 (IR, PRISM)
     * IR: 10966 (Sadtler Research Laboratories IR Grating Collection)
     * UV: 1-167 (Organic Electronic Spectral Data, Phillips et al, John
       Wiley & Sons, New York)
     * 1H NMR: 41 (Sadtler Research Laboratories Spectral Collection)
     * MASS: 61743 (NIST/EPA/MSDC Mass Spectral database, 1990 version;
       407 (Atlas of Mass Spectral Data, John Wiley & Sons, New York)
     * Raman: 388 (Sadtler Research Laboratories Spectral Collection)
     * 13C NMR: JJ 270

   from [11]HSDB

   Surface Tension
        26.17 dynes/cm = 0.02617 N/m at 25 deg C
   from [12]HSDB

   Vapor Density
        3.9 (AIR= 1)
   from [13]HSDB

   Vapor Pressure
        3.85 mm Hg at 25 deg C
   from [14]HSDB

   Relative Evaporation Rate
        Evaporation rate = 17.4 (Ether = 1)
   from [15]HSDB

   Viscosity
        0.77 cP
   from [16]HSDB

   Other Chemical/Physical Properties

     * Bulk density = 6.8 lb/gal
     * PERCENT IN SATURATED AIR 0.21; 1 PPM IS EQUIVALENT TO 4.66 MG/CU M
       AT 25 DEG C, 760 MM HG; 1 MG/L IS EQUIVALENT TO 214 PPM AT 25 DEG
       C, 760 MM HG
     * CAN REACT WITH OXIDIZING MATERIALS.
     * Ionization Potential: 9.33 electron volts
     * 82.7 cal/g
     * Henry's Law constant = 1.69X10-4 atm-cu m/mol at 25 deg C
     * Hydroxyl radical reaction rate constant = 1.17X10-11 cu
       cm/molec-sec at 25 deg C

   from [17]HSDB

   Computed Properties
   Molecular Weight                  114.18546 [g/mol]
   Molecular Formula                 C[7]H[14]O
   XLogP3                            2
   H-Bond Donor                      0
   H-Bond Acceptor                   1
   Rotatable Bond Count              4
   Tautomer Count                    3
   Exact Mass                        114.104465
   MonoIsotopic Mass                 114.104465
   Topological Polar Surface Area    17.1
   Heavy Atom Count                  8
   Formal Charge                     0
   Complexity                        66.8
   Isotope Atom Count                0
   Defined Atom Stereocenter Count   0
   Undefined Atom Stereocenter Count 0
   Defined Bond Stereocenter Count   0
   Undefined Bond Stereocenter Count 0
   Covalently-Bonded Unit Count      1
   Feature 3D Acceptor Count         1
   Feature 3D Hydrophobe Count       2
   Effective Rotor Count             4
   Conformer Sampling RMSD           0.6
   CID Conformer Count               [18]41

References

   1. http://toxnet.nlm.nih.gov/cgi-bin/sis/search/r?dbs+hsdb:@term+@rn+@rel+110-43-0
   2. http://toxnet.nlm.nih.gov/cgi-bin/sis/search/r?dbs+hsdb:@term+@rn+@rel+110-43-0
   3. http://toxnet.nlm.nih.gov/cgi-bin/sis/search/r?dbs+hsdb:@term+@rn+@rel+110-43-0
   4. http://toxnet.nlm.nih.gov/cgi-bin/sis/search/r?dbs+hsdb:@term+@rn+@rel+110-43-0
   5. http://toxnet.nlm.nih.gov/cgi-bin/sis/search/r?dbs+hsdb:@term+@rn+@rel+110-43-0
   6. http://toxnet.nlm.nih.gov/cgi-bin/sis/search/r?dbs+hsdb:@term+@rn+@rel+110-43-0
   7. http://toxnet.nlm.nih.gov/cgi-bin/sis/search/r?dbs+hsdb:@term+@rn+@rel+110-43-0
   8. http://toxnet.nlm.nih.gov/cgi-bin/sis/search/r?dbs+hsdb:@term+@rn+@rel+110-43-0
   9. http://toxnet.nlm.nih.gov/cgi-bin/sis/search/r?dbs+hsdb:@term+@rn+@rel+110-43-0
  10. http://toxnet.nlm.nih.gov/cgi-bin/sis/search/r?dbs+hsdb:@term+@rn+@rel+110-43-0
  11. http://toxnet.nlm.nih.gov/cgi-bin/sis/search/r?dbs+hsdb:@term+@rn+@rel+110-43-0
  12. http://toxnet.nlm.nih.gov/cgi-bin/sis/search/r?dbs+hsdb:@term+@rn+@rel+110-43-0
  13. http://toxnet.nlm.nih.gov/cgi-bin/sis/search/r?dbs+hsdb:@term+@rn+@rel+110-43-0
  14. http://toxnet.nlm.nih.gov/cgi-bin/sis/search/r?dbs+hsdb:@term+@rn+@rel+110-43-0
  15. http://toxnet.nlm.nih.gov/cgi-bin/sis/search/r?dbs+hsdb:@term+@rn+@rel+110-43-0
  16. http://toxnet.nlm.nih.gov/cgi-bin/sis/search/r?dbs+hsdb:@term+@rn+@rel+110-43-0
  17. http://toxnet.nlm.nih.gov/cgi-bin/sis/search/r?dbs+hsdb:@term+@rn+@rel+110-43-0
  18. http://pubchem.ncbi.nlm.nih.gov/vw3d/vw3d.cgi?cid=8051
