5280353
  -OEChem-07051212442D

 77 80  0     0  0  0  0  0  0999 V2000
    7.8380    4.5681    0.0000 O   0  0  0  0  0  0  0  0  0  0  0  0
   13.3215   -1.5220    0.0000 O   0  0  0  0  0  0  0  0  0  0  0  0
    9.2392    3.5500    0.0000 O   0  0  0  0  0  0  0  0  0  0  0  0
   12.4555   -0.0220    0.0000 O   0  0  0  0  0  0  0  0  0  0  0  0
    3.4557    2.9115    0.0000 O   0  0  0  0  0  0  0  0  0  0  0  0
    5.1522   -5.0697    0.0000 O   0  0  0  0  0  0  0  0  0  0  0  0
    6.9759   -0.4158    0.0000 N   0  0  0  0  0  0  0  0  0  0  0  0
    8.2747   -1.8584    0.0000 N   0  0  0  0  0  0  0  0  0  0  0  0
    4.5772    1.5266    0.0000 N   0  0  0  0  0  0  0  0  0  0  0  0
    6.8735   -4.6085    0.0000 N   0  0  0  0  0  0  0  0  0  0  0  0
    7.4759    1.1230    0.0000 C   0  0  0  0  0  0  0  0  0  0  0  0
    7.7849    0.1719    0.0000 C   0  0  0  0  0  0  0  0  0  0  0  0
    9.8574   -1.5220    0.0000 C   0  0  0  0  0  0  0  0  0  0  0  0
    8.9439   -1.1152    0.0000 C   0  0  0  0  0  0  0  0  0  0  0  0
    6.4759    1.1230    0.0000 C   0  0  0  0  0  0  0  0  0  0  0  0
    9.7529   -2.5165    0.0000 C   0  0  0  0  0  0  0  0  0  0  0  0
    6.1669    0.1719    0.0000 C   0  0  0  0  0  0  0  0  0  0  0  0
    8.7360   -0.1371    0.0000 C   0  0  0  0  0  0  0  0  0  0  0  0
    8.0637    1.9320    0.0000 C   0  0  0  0  0  0  0  0  0  0  0  0
    8.7747   -2.7244    0.0000 C   0  0  0  0  0  0  0  0  0  0  0  0
   10.7234   -1.0220    0.0000 C   0  0  0  0  0  0  0  0  0  0  0  0
    7.6569    2.8456    0.0000 C   0  0  0  0  0  0  0  0  0  0  0  0
    5.8881    1.9320    0.0000 C   0  0  0  0  0  0  0  0  0  0  0  0
    5.2158   -0.1371    0.0000 C   0  0  0  0  0  0  0  0  0  0  0  0
   11.5895   -1.5220    0.0000 C   0  0  0  0  0  0  0  0  0  0  0  0
   10.4960   -3.1856    0.0000 C   0  0  0  0  0  0  0  0  0  0  0  0
    8.3680   -3.6379    0.0000 C   0  0  0  0  0  0  0  0  0  0  0  0
    4.4727    0.5321    0.0000 C   0  0  0  0  0  0  0  0  0  0  0  0
    7.3735   -3.7425    0.0000 C   0  0  0  0  0  0  0  0  0  0  0  0
    3.4945    0.3241    0.0000 C   0  0  0  0  0  0  0  0  0  0  0  0
    2.9945    1.1902    0.0000 C   0  0  0  0  0  0  0  0  0  0  0  0
    6.7044   -2.9993    0.0000 C   0  0  0  0  0  0  0  0  0  0  0  0
    8.2447    3.6546    0.0000 C   0  0  0  0  0  0  0  0  0  0  0  0
   12.4555   -1.0220    0.0000 C   0  0  0  0  0  0  0  0  0  0  0  0
    3.6636    1.9333    0.0000 C   0  0  0  0  0  0  0  0  0  0  0  0
    5.7908   -3.4061    0.0000 C   0  0  0  0  0  0  0  0  0  0  0  0
    3.0878   -0.5894    0.0000 C   0  0  0  0  0  0  0  0  0  0  0  0
    2.0000    1.2947    0.0000 C   0  0  0  0  0  0  0  0  0  0  0  0
    5.8953   -4.4006    0.0000 C   0  0  0  0  0  0  0  0  0  0  0  0
    6.9123   -2.0212    0.0000 C   0  0  0  0  0  0  0  0  0  0  0  0
    4.9248   -2.9061    0.0000 C   0  0  0  0  0  0  0  0  0  0  0  0
    2.0933   -0.6939    0.0000 C   0  0  0  0  0  0  0  0  0  0  0  0
    4.0588   -3.4061    0.0000 C   0  0  0  0  0  0  0  0  0  0  0  0
    9.1967    0.2778    0.0000 H   0  0  0  0  0  0  0  0  0  0  0  0
    8.4944    1.4860    0.0000 H   0  0  0  0  0  0  0  0  0  0  0  0
    8.5777    2.2787    0.0000 H   0  0  0  0  0  0  0  0  0  0  0  0
   11.1220   -0.5470    0.0000 H   0  0  0  0  0  0  0  0  0  0  0  0
   10.3249   -0.5470    0.0000 H   0  0  0  0  0  0  0  0  0  0  0  0
    6.9759   -1.0358    0.0000 H   0  0  0  0  0  0  0  0  0  0  0  0
    7.6581   -1.7936    0.0000 H   0  0  0  0  0  0  0  0  0  0  0  0
    7.2262    3.2916    0.0000 H   0  0  0  0  0  0  0  0  0  0  0  0
    7.1429    2.4989    0.0000 H   0  0  0  0  0  0  0  0  0  0  0  0
    6.3897    2.2964    0.0000 H   0  0  0  0  0  0  0  0  0  0  0  0
    5.5237    2.4336    0.0000 H   0  0  0  0  0  0  0  0  0  0  0  0
    5.3865    1.5676    0.0000 H   0  0  0  0  0  0  0  0  0  0  0  0
    5.0869   -0.7435    0.0000 H   0  0  0  0  0  0  0  0  0  0  0  0
   11.1909   -1.9969    0.0000 H   0  0  0  0  0  0  0  0  0  0  0  0
   11.9880   -1.9969    0.0000 H   0  0  0  0  0  0  0  0  0  0  0  0
   10.0812   -3.6464    0.0000 H   0  0  0  0  0  0  0  0  0  0  0  0
   10.9568   -3.6005    0.0000 H   0  0  0  0  0  0  0  0  0  0  0  0
   10.9109   -2.7249    0.0000 H   0  0  0  0  0  0  0  0  0  0  0  0
    8.7324   -4.1395    0.0000 H   0  0  0  0  0  0  0  0  0  0  0  0
    5.1141    1.8366    0.0000 H   0  0  0  0  0  0  0  0  0  0  0  0
    3.4522   -1.0910    0.0000 H   0  0  0  0  0  0  0  0  0  0  0  0
    2.0648    1.9113    0.0000 H   0  0  0  0  0  0  0  0  0  0  0  0
    1.3834    1.3595    0.0000 H   0  0  0  0  0  0  0  0  0  0  0  0
    1.9352    0.6781    0.0000 H   0  0  0  0  0  0  0  0  0  0  0  0
    7.5187   -2.1501    0.0000 H   0  0  0  0  0  0  0  0  0  0  0  0
    7.0412   -1.4147    0.0000 H   0  0  0  0  0  0  0  0  0  0  0  0
    6.3058   -1.8923    0.0000 H   0  0  0  0  0  0  0  0  0  0  0  0
    4.9248   -2.2861    0.0000 H   0  0  0  0  0  0  0  0  0  0  0  0
    8.2024    5.0697    0.0000 H   0  0  0  0  0  0  0  0  0  0  0  0
   13.8585   -1.2120    0.0000 H   0  0  0  0  0  0  0  0  0  0  0  0
    1.7288   -0.1923    0.0000 H   0  0  0  0  0  0  0  0  0  0  0  0
    1.8411   -1.2603    0.0000 H   0  0  0  0  0  0  0  0  0  0  0  0
    3.5218   -3.0961    0.0000 H   0  0  0  0  0  0  0  0  0  0  0  0
    4.0588   -4.0261    0.0000 H   0  0  0  0  0  0  0  0  0  0  0  0
  1 33  1  0  0  0  0
  1 72  1  0  0  0  0
  2 34  1  0  0  0  0
  2 73  1  0  0  0  0
  3 33  2  0  0  0  0
  4 34  2  0  0  0  0
  5 35  2  0  0  0  0
  6 39  2  0  0  0  0
  7 12  1  0  0  0  0
  7 17  1  0  0  0  0
  7 49  1  0  0  0  0
  8 14  1  0  0  0  0
  8 20  1  0  0  0  0
  8 50  1  0  0  0  0
  9 28  1  0  0  0  0
  9 35  1  0  0  0  0
  9 63  1  0  0  0  0
 10 29  2  0  0  0  0
 10 39  1  0  0  0  0
 11 12  2  0  0  0  0
 11 15  1  0  0  0  0
 11 19  1  0  0  0  0
 12 18  1  0  0  0  0
 13 14  1  0  0  0  0
 13 16  2  0  0  0  0
 13 21  1  0  0  0  0
 14 18  2  0  0  0  0
 15 17  2  0  0  0  0
 15 23  1  0  0  0  0
 16 20  1  0  0  0  0
 16 26  1  0  0  0  0
 17 24  1  0  0  0  0
 18 44  1  0  0  0  0
 19 22  1  0  0  0  0
 19 45  1  0  0  0  0
 19 46  1  0  0  0  0
 20 27  2  0  0  0  0
 21 25  1  0  0  0  0
 21 47  1  0  0  0  0
 21 48  1  0  0  0  0
 22 33  1  0  0  0  0
 22 51  1  0  0  0  0
 22 52  1  0  0  0  0
 23 53  1  0  0  0  0
 23 54  1  0  0  0  0
 23 55  1  0  0  0  0
 24 28  2  0  0  0  0
 24 56  1  0  0  0  0
 25 34  1  0  0  0  0
 25 57  1  0  0  0  0
 25 58  1  0  0  0  0
 26 59  1  0  0  0  0
 26 60  1  0  0  0  0
 26 61  1  0  0  0  0
 27 29  1  0  0  0  0
 27 62  1  0  0  0  0
 28 30  1  0  0  0  0
 29 32  1  0  0  0  0
 30 31  2  0  0  0  0
 30 37  1  0  0  0  0
 31 35  1  0  0  0  0
 31 38  1  0  0  0  0
 32 36  2  0  0  0  0
 32 40  1  0  0  0  0
 36 39  1  0  0  0  0
 36 41  1  0  0  0  0
 37 42  2  0  0  0  0
 37 64  1  0  0  0  0
 38 65  1  0  0  0  0
 38 66  1  0  0  0  0
 38 67  1  0  0  0  0
 40 68  1  0  0  0  0
 40 69  1  0  0  0  0
 40 70  1  0  0  0  0
 41 43  2  0  0  0  0
 41 71  1  0  0  0  0
 42 74  1  0  0  0  0
 42 75  1  0  0  0  0
 43 76  1  0  0  0  0
 43 77  1  0  0  0  0
M  END
> <PUBCHEM_COMPOUND_CID>
5280353

> <PUBCHEM_COMPOUND_CANONICALIZED>
1

> <PUBCHEM_CACTVS_COMPLEXITY>
1530

> <PUBCHEM_CACTVS_HBOND_ACCEPTOR>
7

> <PUBCHEM_CACTVS_HBOND_DONOR>
5

> <PUBCHEM_CACTVS_ROTATABLE_BOND>
11

> <PUBCHEM_CACTVS_SUBSKEYS>
AAADcfB/uAAAAAAAAAAAAAAAAAAAAWIECAAAAAAAAAAAAAABgAAAHgAQCAAADAiBngACiJLJkgCoAyXyXACCgCAhAiAImSEwRNgIIHLAkJGEQAhklADIyQeY2TOegAAAAAAAAAAAAAAAAAAAAAAAAAAAAA==

> <PUBCHEM_IUPAC_OPENEYE_NAME>
3-[(2Z,5Z)-2-[[3-(2-carboxyethyl)-4-methyl-5-[(Z)-(4-methyl-5-oxo-3-vinyl-pyrrol-2-ylidene)methyl]-1H-pyrrol-2-yl]methylene]-4-methyl-5-[(3-methyl-5-oxo-4-vinyl-pyrrol-2-yl)methylene]pyrrol-3-yl]propanoic acid

> <PUBCHEM_IUPAC_CAS_NAME>
3-[(2Z,5Z)-2-[[3-(2-carboxyethyl)-5-[(Z)-(3-ethenyl-4-methyl-5-oxo-2-pyrrolylidene)methyl]-4-methyl-1H-pyrrol-2-yl]methylidene]-5-[(4-ethenyl-3-methyl-5-oxo-2-pyrrolyl)methylidene]-4-methyl-3-pyrrolyl]propanoic acid

> <PUBCHEM_IUPAC_NAME>
3-[(2Z,5Z)-2-[[3-(2-carboxyethyl)-5-[(Z)-(3-ethenyl-4-methyl-5-oxopyrrol-2-ylidene)methyl]-4-methyl-1H-pyrrol-2-yl]methylidene]-5-[(4-ethenyl-3-methyl-5-oxopyrrol-2-yl)methylidene]-4-methylpyrrol-3-yl]propanoic acid

> <PUBCHEM_IUPAC_SYSTEMATIC_NAME>
3-[(2Z,5Z)-2-[[5-[(Z)-(3-ethenyl-4-methyl-5-oxidanylidene-pyrrol-2-ylidene)methyl]-3-(3-hydroxy-3-oxopropyl)-4-methyl-1H-pyrrol-2-yl]methylidene]-5-[(4-ethenyl-3-methyl-5-oxidanylidene-pyrrol-2-yl)methylidene]-4-methyl-pyrrol-3-yl]propanoic acid

> <PUBCHEM_IUPAC_TRADITIONAL_NAME>
3-[(2Z,5Z)-2-[[3-(2-carboxyethyl)-5-[(Z)-(5-keto-4-methyl-3-vinyl-3-pyrrolin-2-ylidene)methyl]-4-methyl-1H-pyrrol-2-yl]methylene]-5-[(5-keto-3-methyl-4-vinyl-pyrrol-2-yl)methylene]-4-methyl-3-pyrrolin-3-yl]propionic acid

> <PUBCHEM_IUPAC_INCHI>
InChI=1S/C33H34N4O6/c1-7-20-19(6)32(42)37-27(20)14-25-18(5)23(10-12-31(40)41)29(35-25)15-28-22(9-11-30(38)39)17(4)24(34-28)13-26-16(3)21(8-2)33(43)36-26/h7-8,13-15,34-35H,1-2,9-12H2,3-6H3,(H,37,42)(H,38,39)(H,40,41)/b24-13-,27-14-,28-15-

> <PUBCHEM_IUPAC_INCHIKEY>
RCNSAJSGRJSBKK-NSQVQWHSSA-N

> <PUBCHEM_XLOGP3_AA>
2.5

> <PUBCHEM_EXACT_MASS>
582.247835

> <PUBCHEM_MOLECULAR_FORMULA>
C33H34N4O6

> <PUBCHEM_MOLECULAR_WEIGHT>
582.64626

> <PUBCHEM_OPENEYE_CAN_SMILES>
CC1=C(C(=CC2=C(C(=C(N2)C=C3C(=C(C(=O)N3)C)C=C)C)CCC(=O)O)NC1=CC4=NC(=O)C(=C4C)C=C)CCC(=O)O

> <PUBCHEM_OPENEYE_ISO_SMILES>
CC\1=C(/C(=C/C2=C(C(=C(N2)/C=C\3/C(=C(C(=O)N3)C)C=C)C)CCC(=O)O)/N/C1=C\C4=NC(=O)C(=C4C)C=C)CCC(=O)O

> <PUBCHEM_CACTVS_TPSA>
161

> <PUBCHEM_MONOISOTOPIC_WEIGHT>
582.247835

> <PUBCHEM_TOTAL_CHARGE>
0

> <PUBCHEM_HEAVY_ATOM_COUNT>
43

> <PUBCHEM_ATOM_DEF_STEREO_COUNT>
0

> <PUBCHEM_ATOM_UDEF_STEREO_COUNT>
0

> <PUBCHEM_BOND_DEF_STEREO_COUNT>
3

> <PUBCHEM_BOND_UDEF_STEREO_COUNT>
0

> <PUBCHEM_ISOTOPIC_ATOM_COUNT>
0

> <PUBCHEM_COMPONENT_COUNT>
1

> <PUBCHEM_CACTVS_TAUTO_COUNT>
1001

> <PUBCHEM_COORDINATE_TYPE>
1
5
255

> <PUBCHEM_BONDANNOTATIONS>
11  12  8
11  15  8
13  14  8
13  16  8
15  17  8
16  20  8
7  12  8
7  17  8
8  14  8
8  20  8

$$$$

