442522
  -OEChem-07051212582D

 41 43  0     1  0  0  0  0  0999 V2000
    2.8641    0.2606    0.0000 O   0  0  0  0  0  0  0  0  0  0  0  0
    5.5301    1.7398    0.0000 O   0  0  0  0  0  0  0  0  0  0  0  0
    7.2785    1.7744    0.0000 O   0  0  0  0  0  0  0  0  0  0  0  0
    9.0602   -1.2844    0.0000 O   0  0  0  0  0  0  0  0  0  0  0  0
    4.6641    0.2398    0.0000 C   0  0  0  0  0  0  0  0  0  0  0  0
    3.7702   -1.2949    0.0000 C   0  0  0  0  0  0  0  0  0  0  0  0
    4.6641   -0.7602    0.0000 C   0  0  0  0  0  0  0  0  0  0  0  0
    3.7702    0.7744    0.0000 C   0  0  1  0  0  0  0  0  0  0  0  0
    2.8641   -0.7810    0.0000 C   0  0  2  0  0  0  0  0  0  0  0  0
    5.5301    0.7398    0.0000 C   0  0  0  0  0  0  0  0  0  0  0  0
    5.5301   -1.2602    0.0000 C   0  0  0  0  0  0  0  0  0  0  0  0
    6.3961    0.2398    0.0000 C   0  0  0  0  0  0  0  0  0  0  0  0
    6.3961   -0.7602    0.0000 C   0  0  0  0  0  0  0  0  0  0  0  0
    3.7817    1.7744    0.0000 C   0  0  0  0  0  0  0  0  0  0  0  0
    2.0000   -1.2844    0.0000 C   0  0  0  0  0  0  0  0  0  0  0  0
    7.2901    0.7744    0.0000 C   0  0  0  0  0  0  0  0  0  0  0  0
    7.2901   -1.2949    0.0000 C   0  0  0  0  0  0  0  0  0  0  0  0
    8.1962   -0.7810    0.0000 C   0  0  0  0  0  0  0  0  0  0  0  0
    8.1962    0.2606    0.0000 C   0  0  0  0  0  0  0  0  0  0  0  0
    8.1387    2.2844    0.0000 C   0  0  0  0  0  0  0  0  0  0  0  0
    9.0564   -2.2844    0.0000 C   0  0  0  0  0  0  0  0  0  0  0  0
    3.3765   -1.7739    0.0000 H   0  0  0  0  0  0  0  0  0  0  0  0
    4.1748   -1.7647    0.0000 H   0  0  0  0  0  0  0  0  0  0  0  0
    3.2362    1.0896    0.0000 H   0  0  0  0  0  0  0  0  0  0  0  0
    2.3266   -0.4721    0.0000 H   0  0  0  0  0  0  0  0  0  0  0  0
    5.5301   -1.8802    0.0000 H   0  0  0  0  0  0  0  0  0  0  0  0
    4.4017    1.7672    0.0000 H   0  0  0  0  0  0  0  0  0  0  0  0
    3.7889    2.3943    0.0000 H   0  0  0  0  0  0  0  0  0  0  0  0
    3.1618    1.7816    0.0000 H   0  0  0  0  0  0  0  0  0  0  0  0
    1.6879   -0.7486    0.0000 H   0  0  0  0  0  0  0  0  0  0  0  0
    1.4643   -1.5964    0.0000 H   0  0  0  0  0  0  0  0  0  0  0  0
    2.3121   -1.8201    0.0000 H   0  0  0  0  0  0  0  0  0  0  0  0
    7.2829   -1.9148    0.0000 H   0  0  0  0  0  0  0  0  0  0  0  0
    8.7319    0.5727    0.0000 H   0  0  0  0  0  0  0  0  0  0  0  0
    4.9932    2.0498    0.0000 H   0  0  0  0  0  0  0  0  0  0  0  0
    8.4549    1.7510    0.0000 H   0  0  0  0  0  0  0  0  0  0  0  0
    8.6720    2.6006    0.0000 H   0  0  0  0  0  0  0  0  0  0  0  0
    7.8225    2.8177    0.0000 H   0  0  0  0  0  0  0  0  0  0  0  0
    8.4364   -2.2820    0.0000 H   0  0  0  0  0  0  0  0  0  0  0  0
    9.0540   -2.9044    0.0000 H   0  0  0  0  0  0  0  0  0  0  0  0
    9.6764   -2.2868    0.0000 H   0  0  0  0  0  0  0  0  0  0  0  0
  1  8  1  0  0  0  0
  1  9  1  0  0  0  0
  2 10  1  0  0  0  0
  2 35  1  0  0  0  0
  3 16  1  0  0  0  0
  3 20  1  0  0  0  0
  4 18  1  0  0  0  0
  4 21  1  0  0  0  0
  5  7  1  0  0  0  0
  5  8  1  0  0  0  0
  5 10  2  0  0  0  0
  6  7  1  0  0  0  0
  6  9  1  0  0  0  0
  6 22  1  0  0  0  0
  6 23  1  0  0  0  0
  7 11  2  0  0  0  0
  8 14  1  6  0  0  0
  8 24  1  0  0  0  0
  9 15  1  6  0  0  0
  9 25  1  0  0  0  0
 10 12  1  0  0  0  0
 11 13  1  0  0  0  0
 11 26  1  0  0  0  0
 12 13  1  0  0  0  0
 12 16  2  0  0  0  0
 13 17  2  0  0  0  0
 14 27  1  0  0  0  0
 14 28  1  0  0  0  0
 14 29  1  0  0  0  0
 15 30  1  0  0  0  0
 15 31  1  0  0  0  0
 15 32  1  0  0  0  0
 16 19  1  0  0  0  0
 17 18  1  0  0  0  0
 17 33  1  0  0  0  0
 18 19  2  0  0  0  0
 19 34  1  0  0  0  0
 20 36  1  0  0  0  0
 20 37  1  0  0  0  0
 20 38  1  0  0  0  0
 21 39  1  0  0  0  0
 21 40  1  0  0  0  0
 21 41  1  0  0  0  0
M  END
> <PUBCHEM_COMPOUND_CID>
442522

> <PUBCHEM_COMPOUND_CANONICALIZED>
1

> <PUBCHEM_CACTVS_COMPLEXITY>
361

> <PUBCHEM_CACTVS_HBOND_ACCEPTOR>
4

> <PUBCHEM_CACTVS_HBOND_DONOR>
1

> <PUBCHEM_CACTVS_ROTATABLE_BOND>
2

> <PUBCHEM_CACTVS_SUBSKEYS>
AAADceB4OAAAAAAAAAAAAAAAAAAAAAAAAAA0YIAAAAAAAADRUAAAGgAACAAADBSgmAIyBsAABgCAAiBCAAACCAAgIAAAiAAGCIgMJyKGMRqCcCAlwBUIuAeA4PwO4AADCAAYAADAAAYQADAAAAAAAAAAAA==

> <PUBCHEM_IUPAC_OPENEYE_NAME>
(1R,3S)-7,9-dimethoxy-1,3-dimethyl-3,4-dihydro-1H-benzo[g]isochromen-10-ol

> <PUBCHEM_IUPAC_CAS_NAME>
(1R,3S)-7,9-dimethoxy-1,3-dimethyl-3,4-dihydro-1H-benzo[g][2]benzopyran-10-ol

> <PUBCHEM_IUPAC_NAME>
(1R,3S)-7,9-dimethoxy-1,3-dimethyl-3,4-dihydro-1H-benzo[g]isochromen-10-ol

> <PUBCHEM_IUPAC_SYSTEMATIC_NAME>
(1R,3S)-7,9-dimethoxy-1,3-dimethyl-3,4-dihydro-1H-benzo[g]isochromen-10-ol

> <PUBCHEM_IUPAC_TRADITIONAL_NAME>
(1R,3S)-7,9-dimethoxy-1,3-dimethyl-3,4-dihydro-1H-benz[g]isochromen-10-ol

> <PUBCHEM_IUPAC_INCHI>
InChI=1S/C17H20O4/c1-9-5-11-6-12-7-13(19-3)8-14(20-4)16(12)17(18)15(11)10(2)21-9/h6-10,18H,5H2,1-4H3/t9-,10+/m0/s1

> <PUBCHEM_IUPAC_INCHIKEY>
DJBNDURQGGCIGN-VHSXEESVSA-N

> <PUBCHEM_XLOGP3_AA>
3.3

> <PUBCHEM_EXACT_MASS>
288.136159

> <PUBCHEM_MOLECULAR_FORMULA>
C17H20O4

> <PUBCHEM_MOLECULAR_WEIGHT>
288.3383

> <PUBCHEM_OPENEYE_CAN_SMILES>
CC1CC2=C(C(O1)C)C(=C3C(=C2)C=C(C=C3OC)OC)O

> <PUBCHEM_OPENEYE_ISO_SMILES>
C[C@H]1CC2=C([C@H](O1)C)C(=C3C(=C2)C=C(C=C3OC)OC)O

> <PUBCHEM_CACTVS_TPSA>
47.9

> <PUBCHEM_MONOISOTOPIC_WEIGHT>
288.136159

> <PUBCHEM_TOTAL_CHARGE>
0

> <PUBCHEM_HEAVY_ATOM_COUNT>
21

> <PUBCHEM_ATOM_DEF_STEREO_COUNT>
2

> <PUBCHEM_ATOM_UDEF_STEREO_COUNT>
0

> <PUBCHEM_BOND_DEF_STEREO_COUNT>
0

> <PUBCHEM_BOND_UDEF_STEREO_COUNT>
0

> <PUBCHEM_ISOTOPIC_ATOM_COUNT>
0

> <PUBCHEM_COMPONENT_COUNT>
1

> <PUBCHEM_CACTVS_TAUTO_COUNT>
1

> <PUBCHEM_COORDINATE_TYPE>
1
5
255

> <PUBCHEM_BONDANNOTATIONS>
10  12  8
11  13  8
12  13  8
12  16  8
13  17  8
16  19  8
17  18  8
18  19  8
5  10  8
5  7  8
7  11  8
8  14  6
9  15  6

$$$$

