   Color/Form
        Colorless liquid
   from [1]HSDB

   Odor

     * Faint, not unpleasant odor
     * Almond-like odor
     * Mild amine odor
     * Mild aromatic
     * Characteristic, penetrating odor.
     * Weak, benzene-like odor.

   from [2]HSDB

   Boiling Point
        131.7 deg C
   from [3]HSDB

   Melting Point
        -45.2 deg C
   from [4]HSDB

   Corrosivity
        Liquid chlorobenzene will attack some forms of plastics, rubber,
   and coatings
   from [5]HSDB

   Critical Temperature and Pressure

     * Critical temperature: 678 deg F= 359 deg C= 632 K; critical
       pressure: 44.6 atm
     * Critical temperature = 359.2 deg C; critical pressure = 4.52 mPa.

   from [6]HSDB

   Density/Specific Gravity
        1.1058 g/cu cm at 20 deg C
   from [7]HSDB

   Heat of Combustion
        -3100 kJ/mol at 25 deg C
   from [8]HSDB

   Heat of Vaporization
        355.5 J/g at 50 deg C
   from [9]HSDB

   Octanol/Water Partition Coefficient
        log Kow = 2.84
   from [10]HSDB

   Solubilities

     * Miscible in ethanol, ethyl ether; very soluble in benzene, carbon
       tetrachloride
     * Miscible with nearly all organic solvents
     * Freely soluble in chloroform.
     * Very soluble in carbon disulfide
     * In water, 498 mg/L at 25 deg C

   from [11]HSDB

   Spectral Properties

     * Index of refraction: 1.5241 at 20 deg C/D
     * MAX ABSORPTION (ALCOHOL): 245 NM (LOG E= 1.95); 251 NM (LOG E=
       2.34); 258 NM (LOG E= 2.13); 264 NM (LOG E= 2.45)
     * IR: 5726 (Coblentz Society Spectral Collection)
     * UV: 6-63 (Organic Electronic Spectral Data, Phillips et al, John
       Wiley & Sons, New York)
     * Raman: 72 (Dollish et al; Characteristic Raman Frequencies or
       Organic Compounds. John Wiley & Sons, New York)
     * 1H NMR: 714 (Sadtler Research Laboratories Spectral Collection)
     * C13 NMR: 153 (Johnson and Jankowski, Carbon-13 NMR Spectra, Jphn
       Wiley & Sons, New York)
     * MASS: 61412 (NIST/EPA/MSDC Mass Spectral Database, 1990 version);
       1586 (Atlas of Mass Spectral Data, John Wiley & Sons, New York)

   from [12]HSDB

   Surface Tension
        33 dynes/cm at 25 deg C
   from [13]HSDB

   Vapor Density
        3.88 (air=1)
   from [14]HSDB

   Vapor Pressure
        12.0 mm Hg at 25 deg C
   from [15]HSDB

   Relative Evaporation Rate
        1 (Butyl acetate= 1)
   from [16]HSDB

   Viscosity
        0.806 mPa.s at 20 deg C
   from [17]HSDB

   Other Chemical/Physical Properties

     * Very refractive liquid
     * PERCENT IN SATURATED AIR: 1.55 (25 DEG C); DENSITY OF SATURATED
       AIR: 1.05 (AIR= 1)
     * EQUIVALENCIES IN AIR: 1 MG/L= 217 PPM AND 1 PPM= 4.60 MG/CU M @ 25
       DEG C, 760 MM HG
     * Heat of fusion: 20.40 cal/g
     * Saturated liquid density= 69.080 lb/cu ft @ 70 deg C
     * Liquid heat capacity= 0.321 Btu/lb-F @ 70 deg C
     * Liquid thermal conductivity= 0.869 Btu-in/hr-sq ft-F at 70 deg C
     * Saturated vapor pressure= 0.195 lb/sq in @ 70 deg C
     * Ideal gas heat capacity= 0.207 Btu/lb ft @ 75 deg C
     * Partition coefficients at 37 deg C for chlorobenzene into blood=
       30.8; into oil= 3,760. [Sato A, Nakajima T; Scand J Work Environ
       Health 13: 81-93 (1987)] [18]PubMed Abstract
     * Chlorobenzene has a good solvency for fats, oils, resins, polymers,
       binders, rubber, and chlorinated rubber.
     * Critical density = 0.365 g/cu cm; Heat of fusion = 84.9 J/g; Heat
       capacity = 1.338 J/g K at 20 deg C; Dielectric constant = 5.641 at
       20 deg C.
     * Henry's Law constant = 3.11X10-3 atm-cu m/mol at 25 deg C
     * Hydroxyl radical reaction rate constant = 7.70X10-13 cu
       cm/molec-sec at 25 deg C

   from [19]HSDB

   Computed Properties
   Molecular Weight                  112.5569 [g/mol]
   Molecular Formula                 C[6]H[5]Cl
   XLogP3                            2.9
   H-Bond Donor                      0
   H-Bond Acceptor                   0
   Rotatable Bond Count              0
   Exact Mass                        112.007978
   MonoIsotopic Mass                 112.007978
   Topological Polar Surface Area    0
   Heavy Atom Count                  7
   Formal Charge                     0
   Complexity                        46.1
   Isotope Atom Count                0
   Defined Atom Stereocenter Count   0
   Undefined Atom Stereocenter Count 0
   Defined Bond Stereocenter Count   0
   Undefined Bond Stereocenter Count 0
   Covalently-Bonded Unit Count      1
   Feature 3D Ring Count             1
   Effective Rotor Count             0
   Conformer Sampling RMSD           0.4
   CID Conformer Count               [20]1

References

   1. http://toxnet.nlm.nih.gov/cgi-bin/sis/search/r?dbs+hsdb:@term+@rn+@rel+108-90-7
   2. http://toxnet.nlm.nih.gov/cgi-bin/sis/search/r?dbs+hsdb:@term+@rn+@rel+108-90-7
   3. http://toxnet.nlm.nih.gov/cgi-bin/sis/search/r?dbs+hsdb:@term+@rn+@rel+108-90-7
   4. http://toxnet.nlm.nih.gov/cgi-bin/sis/search/r?dbs+hsdb:@term+@rn+@rel+108-90-7
   5. http://toxnet.nlm.nih.gov/cgi-bin/sis/search/r?dbs+hsdb:@term+@rn+@rel+108-90-7
   6. http://toxnet.nlm.nih.gov/cgi-bin/sis/search/r?dbs+hsdb:@term+@rn+@rel+108-90-7
   7. http://toxnet.nlm.nih.gov/cgi-bin/sis/search/r?dbs+hsdb:@term+@rn+@rel+108-90-7
   8. http://toxnet.nlm.nih.gov/cgi-bin/sis/search/r?dbs+hsdb:@term+@rn+@rel+108-90-7
   9. http://toxnet.nlm.nih.gov/cgi-bin/sis/search/r?dbs+hsdb:@term+@rn+@rel+108-90-7
  10. http://toxnet.nlm.nih.gov/cgi-bin/sis/search/r?dbs+hsdb:@term+@rn+@rel+108-90-7
  11. http://toxnet.nlm.nih.gov/cgi-bin/sis/search/r?dbs+hsdb:@term+@rn+@rel+108-90-7
  12. http://toxnet.nlm.nih.gov/cgi-bin/sis/search/r?dbs+hsdb:@term+@rn+@rel+108-90-7
  13. http://toxnet.nlm.nih.gov/cgi-bin/sis/search/r?dbs+hsdb:@term+@rn+@rel+108-90-7
  14. http://toxnet.nlm.nih.gov/cgi-bin/sis/search/r?dbs+hsdb:@term+@rn+@rel+108-90-7
  15. http://toxnet.nlm.nih.gov/cgi-bin/sis/search/r?dbs+hsdb:@term+@rn+@rel+108-90-7
  16. http://toxnet.nlm.nih.gov/cgi-bin/sis/search/r?dbs+hsdb:@term+@rn+@rel+108-90-7
  17. http://toxnet.nlm.nih.gov/cgi-bin/sis/search/r?dbs+hsdb:@term+@rn+@rel+108-90-7
  18. http://www.ncbi.nlm.nih.gov/entrez/query.fcgi?cmd=Retrieve&db=pubmed&dopt=Abstract&list_uids=3299685
  19. http://toxnet.nlm.nih.gov/cgi-bin/sis/search/r?dbs+hsdb:@term+@rn+@rel+108-90-7
  20. http://pubchem.ncbi.nlm.nih.gov/vw3d/vw3d.cgi?cid=7964
