9842758
  -OEChem-07051213072D

 58 61  0     1  0  0  0  0  0999 V2000
    8.8678   -0.6704    0.0000 O   0  0  0  0  0  0  0  0  0  0  0  0
   11.4728    1.9594    0.0000 O   0  0  0  0  0  0  0  0  0  0  0  0
    9.9762    2.8312    0.0000 O   0  0  0  0  0  0  0  0  0  0  0  0
    2.8660   -1.3038    0.0000 C   0  0  0  0  0  0  0  0  0  0  0  0
    2.8660    0.6962    0.0000 C   0  0  0  0  0  0  0  0  0  0  0  0
    2.0000   -0.8038    0.0000 C   0  0  0  0  0  0  0  0  0  0  0  0
    2.0000    0.1962    0.0000 C   0  0  0  0  0  0  0  0  0  0  0  0
    3.7320   -0.8038    0.0000 C   0  0  0  0  0  0  0  0  0  0  0  0
    3.7320    0.1962    0.0000 C   0  0  0  0  0  0  0  0  0  0  0  0
    6.3961   -1.3279    0.0000 C   0  0  3  0  0  0  0  0  0  0  0  0
    2.3660   -2.1698    0.0000 C   0  0  0  0  0  0  0  0  0  0  0  0
    3.3660   -2.1698    0.0000 C   0  0  0  0  0  0  0  0  0  0  0  0
    4.6260   -1.3384    0.0000 C   0  0  0  0  0  0  0  0  0  0  0  0
    2.3660    1.5622    0.0000 C   0  0  0  0  0  0  0  0  0  0  0  0
    3.3660    1.5622    0.0000 C   0  0  0  0  0  0  0  0  0  0  0  0
    5.5321   -0.8246    0.0000 C   0  0  0  0  0  0  0  0  0  0  0  0
    4.6260    0.7309    0.0000 C   0  0  0  0  0  0  0  0  0  0  0  0
    6.3923   -2.3279    0.0000 C   0  0  0  0  0  0  0  0  0  0  0  0
    5.5321    0.2170    0.0000 C   0  0  0  0  0  0  0  0  0  0  0  0
    7.2641   -0.8313    0.0000 C   0  0  0  0  0  0  0  0  0  0  0  0
    7.2564   -2.8312    0.0000 C   0  0  0  0  0  0  0  0  0  0  0  0
    8.1243   -2.3346    0.0000 C   0  0  0  0  0  0  0  0  0  0  0  0
    8.1282   -1.3346    0.0000 C   0  0  0  0  0  0  0  0  0  0  0  0
    7.4770    0.1397    0.0000 C   0  0  0  0  0  0  0  0  0  0  0  0
    8.4662    0.2390    0.0000 C   0  0  0  0  0  0  0  0  0  0  0  0
    8.9695    1.1031    0.0000 C   0  0  0  0  0  0  0  0  0  0  0  0
    9.9695    1.0992    0.0000 C   0  0  0  0  0  0  0  0  0  0  0  0
   10.4728    1.9633    0.0000 C   0  0  0  0  0  0  0  0  0  0  0  0
    1.3894   -0.6961    0.0000 H   0  0  0  0  0  0  0  0  0  0  0  0
    1.7880   -1.3864    0.0000 H   0  0  0  0  0  0  0  0  0  0  0  0
    1.7880    0.7788    0.0000 H   0  0  0  0  0  0  0  0  0  0  0  0
    1.3894    0.0886    0.0000 H   0  0  0  0  0  0  0  0  0  0  0  0
    5.6584   -1.7501    0.0000 H   0  0  0  0  0  0  0  0  0  0  0  0
    1.8291   -1.8598    0.0000 H   0  0  0  0  0  0  0  0  0  0  0  0
    2.0560   -2.7067    0.0000 H   0  0  0  0  0  0  0  0  0  0  0  0
    2.9030   -2.4798    0.0000 H   0  0  0  0  0  0  0  0  0  0  0  0
    2.8291   -2.4798    0.0000 H   0  0  0  0  0  0  0  0  0  0  0  0
    3.6760   -2.7067    0.0000 H   0  0  0  0  0  0  0  0  0  0  0  0
    3.9030   -1.8598    0.0000 H   0  0  0  0  0  0  0  0  0  0  0  0
    4.6188   -1.9584    0.0000 H   0  0  0  0  0  0  0  0  0  0  0  0
    3.9030    1.2522    0.0000 H   0  0  0  0  0  0  0  0  0  0  0  0
    3.6760    2.0992    0.0000 H   0  0  0  0  0  0  0  0  0  0  0  0
    2.8291    1.8722    0.0000 H   0  0  0  0  0  0  0  0  0  0  0  0
    2.9030    1.8722    0.0000 H   0  0  0  0  0  0  0  0  0  0  0  0
    2.0560    2.0992    0.0000 H   0  0  0  0  0  0  0  0  0  0  0  0
    1.8291    1.2522    0.0000 H   0  0  0  0  0  0  0  0  0  0  0  0
    4.6188    1.3508    0.0000 H   0  0  0  0  0  0  0  0  0  0  0  0
    5.7821   -2.2179    0.0000 H   0  0  0  0  0  0  0  0  0  0  0  0
    6.1780   -2.9097    0.0000 H   0  0  0  0  0  0  0  0  0  0  0  0
    6.0678    0.5291    0.0000 H   0  0  0  0  0  0  0  0  0  0  0  0
    6.8560   -3.3047    0.0000 H   0  0  0  0  0  0  0  0  0  0  0  0
    7.6531   -3.3077    0.0000 H   0  0  0  0  0  0  0  0  0  0  0  0
    8.3341   -2.9180    0.0000 H   0  0  0  0  0  0  0  0  0  0  0  0
    8.7353   -2.2293    0.0000 H   0  0  0  0  0  0  0  0  0  0  0  0
    7.0648    0.6028    0.0000 H   0  0  0  0  0  0  0  0  0  0  0  0
    8.6616    1.6412    0.0000 H   0  0  0  0  0  0  0  0  0  0  0  0
   10.2774    0.5611    0.0000 H   0  0  0  0  0  0  0  0  0  0  0  0
   11.7849    2.4952    0.0000 H   0  0  0  0  0  0  0  0  0  0  0  0
  1 23  1  0  0  0  0
  1 25  1  0  0  0  0
  2 28  1  0  0  0  0
  2 58  1  0  0  0  0
  3 28  2  0  0  0  0
  4  6  1  0  0  0  0
  4  8  1  0  0  0  0
  4 11  1  0  0  0  0
  4 12  1  0  0  0  0
  5  7  1  0  0  0  0
  5  9  1  0  0  0  0
  5 14  1  0  0  0  0
  5 15  1  0  0  0  0
  6  7  1  0  0  0  0
  6 29  1  0  0  0  0
  6 30  1  0  0  0  0
  7 31  1  0  0  0  0
  7 32  1  0  0  0  0
  8  9  2  0  0  0  0
  8 13  1  0  0  0  0
  9 17  1  0  0  0  0
 10 16  1  0  0  0  0
 10 18  1  0  0  0  0
 10 20  1  0  0  0  0
 10 33  1  0  0  0  0
 11 34  1  0  0  0  0
 11 35  1  0  0  0  0
 11 36  1  0  0  0  0
 12 37  1  0  0  0  0
 12 38  1  0  0  0  0
 12 39  1  0  0  0  0
 13 16  2  0  0  0  0
 13 40  1  0  0  0  0
 14 44  1  0  0  0  0
 14 45  1  0  0  0  0
 14 46  1  0  0  0  0
 15 41  1  0  0  0  0
 15 42  1  0  0  0  0
 15 43  1  0  0  0  0
 16 19  1  0  0  0  0
 17 19  2  0  0  0  0
 17 47  1  0  0  0  0
 18 21  1  0  0  0  0
 18 48  1  0  0  0  0
 18 49  1  0  0  0  0
 19 50  1  0  0  0  0
 20 23  2  0  0  0  0
 20 24  1  0  0  0  0
 21 22  1  0  0  0  0
 21 51  1  0  0  0  0
 21 52  1  0  0  0  0
 22 23  1  0  0  0  0
 22 53  1  0  0  0  0
 22 54  1  0  0  0  0
 24 25  2  0  0  0  0
 24 55  1  0  0  0  0
 25 26  1  0  0  0  0
 26 27  2  0  0  0  0
 26 56  1  0  0  0  0
 27 28  1  0  0  0  0
 27 57  1  0  0  0  0
M  END
> <PUBCHEM_COMPOUND_CID>
9842758

> <PUBCHEM_COMPOUND_CANONICALIZED>
1

> <PUBCHEM_CACTVS_COMPLEXITY>
619

> <PUBCHEM_CACTVS_HBOND_ACCEPTOR>
3

> <PUBCHEM_CACTVS_HBOND_DONOR>
1

> <PUBCHEM_CACTVS_ROTATABLE_BOND>
3

> <PUBCHEM_CACTVS_SUBSKEYS>
AAADceB4MAAAAAAAAAAAAAAAAAAAASAAAAAwYMAAAAAAAEjBwAAAGgAACAAADwSAmAAyDIAABkCIAqDSCAACCAAkIAAIiAEGCMgMJjKENRqCOSCkwBEIuYeIyPCPwAACAAAQAACAAAYAADAAAAAAAAAAAA==

> <PUBCHEM_IUPAC_OPENEYE_NAME>
(E)-3-[4-(1,1,4,4-tetramethyltetralin-6-yl)-4,5,6,7-tetrahydrobenzofuran-2-yl]prop-2-enoic acid

> <PUBCHEM_IUPAC_CAS_NAME>
(E)-3-[4-(5,5,8,8-tetramethyl-6,7-dihydronaphthalen-2-yl)-4,5,6,7-tetrahydrobenzofuran-2-yl]-2-propenoic acid

> <PUBCHEM_IUPAC_NAME>
(E)-3-[4-(5,5,8,8-tetramethyl-6,7-dihydronaphthalen-2-yl)-4,5,6,7-tetrahydro-1-benzofuran-2-yl]prop-2-enoic acid

> <PUBCHEM_IUPAC_SYSTEMATIC_NAME>
(E)-3-[4-(5,5,8,8-tetramethyl-6,7-dihydronaphthalen-2-yl)-4,5,6,7-tetrahydro-1-benzofuran-2-yl]prop-2-enoic acid

> <PUBCHEM_IUPAC_TRADITIONAL_NAME>
(E)-3-[4-(1,1,4,4-tetramethyltetralin-6-yl)-4,5,6,7-tetrahydrobenzofuran-2-yl]acrylic acid

> <PUBCHEM_IUPAC_INCHI>
InChI=1S/C25H30O3/c1-24(2)12-13-25(3,4)21-14-16(8-10-20(21)24)18-6-5-7-22-19(18)15-17(28-22)9-11-23(26)27/h8-11,14-15,18H,5-7,12-13H2,1-4H3,(H,26,27)/b11-9+

> <PUBCHEM_IUPAC_INCHIKEY>
WRWCAQNPEXYGJK-PKNBQFBNSA-N

> <PUBCHEM_XLOGP3_AA>
6.8

> <PUBCHEM_EXACT_MASS>
378.219495

> <PUBCHEM_MOLECULAR_FORMULA>
C25H30O3

> <PUBCHEM_MOLECULAR_WEIGHT>
378.5039

> <PUBCHEM_OPENEYE_CAN_SMILES>
CC1(CCC(C2=C1C=CC(=C2)C3CCCC4=C3C=C(O4)C=CC(=O)O)(C)C)C

> <PUBCHEM_OPENEYE_ISO_SMILES>
CC1(CCC(C2=C1C=CC(=C2)C3CCCC4=C3C=C(O4)/C=C/C(=O)O)(C)C)C

> <PUBCHEM_CACTVS_TPSA>
50.4

> <PUBCHEM_MONOISOTOPIC_WEIGHT>
378.219495

> <PUBCHEM_TOTAL_CHARGE>
0

> <PUBCHEM_HEAVY_ATOM_COUNT>
28

> <PUBCHEM_ATOM_DEF_STEREO_COUNT>
0

> <PUBCHEM_ATOM_UDEF_STEREO_COUNT>
1

> <PUBCHEM_BOND_DEF_STEREO_COUNT>
1

> <PUBCHEM_BOND_UDEF_STEREO_COUNT>
0

> <PUBCHEM_ISOTOPIC_ATOM_COUNT>
0

> <PUBCHEM_COMPONENT_COUNT>
1

> <PUBCHEM_CACTVS_TAUTO_COUNT>
1

> <PUBCHEM_COORDINATE_TYPE>
1
5
255

> <PUBCHEM_BONDANNOTATIONS>
1  23  8
1  25  8
10  33  3
13  16  8
16  19  8
17  19  8
20  23  8
20  24  8
24  25  8
8  13  8
8  9  8
9  17  8

$$$$

