102220
  -OEChem-07051213032D

 53 53  0     0  0  0  0  0  0999 V2000
    4.8001    0.0000    0.0000 Cl  0  0  0  0  0  0  0  0  0  0  0  0
    4.8671    5.1200    0.0000 O   0  0  0  0  0  0  0  0  0  0  0  0
    5.7331    6.6200    0.0000 O   0  0  0  0  0  0  0  0  0  0  0  0
    2.2690    4.6200    0.0000 N   0  0  0  0  0  0  0  0  0  0  0  0
    3.1350    5.1200    0.0000 C   0  0  0  0  0  0  0  0  0  0  0  0
    1.4030    5.1200    0.0000 C   0  0  0  0  0  0  0  0  0  0  0  0
    2.2690    3.6200    0.0000 C   0  0  0  0  0  0  0  0  0  0  0  0
    4.0010    4.6200    0.0000 C   0  0  0  0  0  0  0  0  0  0  0  0
    7.4651    6.6200    0.0000 C   0  0  0  0  0  0  0  0  0  0  0  0
    7.4651    7.6200    0.0000 C   0  0  0  0  0  0  0  0  0  0  0  0
    6.5991    5.1200    0.0000 C   0  0  0  0  0  0  0  0  0  0  0  0
    5.7331    4.6200    0.0000 C   0  0  0  0  0  0  0  0  0  0  0  0
    0.5369    4.6200    0.0000 C   0  0  0  0  0  0  0  0  0  0  0  0
    1.4030    3.1200    0.0000 C   0  0  0  0  0  0  0  0  0  0  0  0
    6.5991    6.1200    0.0000 C   0  0  0  0  0  0  0  0  0  0  0  0
    8.3312    8.1200    0.0000 C   0  0  0  0  0  0  0  0  0  0  0  0
    7.4651    4.6200    0.0000 C   0  0  0  0  0  0  0  0  0  0  0  0
    5.7331    3.6200    0.0000 C   0  0  0  0  0  0  0  0  0  0  0  0
    7.4651    3.6200    0.0000 C   0  0  0  0  0  0  0  0  0  0  0  0
    6.5991    3.1200    0.0000 C   0  0  0  0  0  0  0  0  0  0  0  0
    9.1972    7.6200    0.0000 C   0  0  0  0  0  0  0  0  0  0  0  0
    8.3312    9.1200    0.0000 C   0  0  0  0  0  0  0  0  0  0  0  0
   10.0632    8.1200    0.0000 C   0  0  0  0  0  0  0  0  0  0  0  0
    9.1972    9.6200    0.0000 C   0  0  0  0  0  0  0  0  0  0  0  0
   10.0632    9.1200    0.0000 C   0  0  0  0  0  0  0  0  0  0  0  0
    3.5335    5.5950    0.0000 H   0  0  0  0  0  0  0  0  0  0  0  0
    2.7365    5.5950    0.0000 H   0  0  0  0  0  0  0  0  0  0  0  0
    1.8015    5.5950    0.0000 H   0  0  0  0  0  0  0  0  0  0  0  0
    1.0044    5.5950    0.0000 H   0  0  0  0  0  0  0  0  0  0  0  0
    2.4810    3.0374    0.0000 H   0  0  0  0  0  0  0  0  0  0  0  0
    2.8796    3.7277    0.0000 H   0  0  0  0  0  0  0  0  0  0  0  0
    3.6025    4.1450    0.0000 H   0  0  0  0  0  0  0  0  0  0  0  0
    4.3996    4.1450    0.0000 H   0  0  0  0  0  0  0  0  0  0  0  0
    7.6772    6.0374    0.0000 H   0  0  0  0  0  0  0  0  0  0  0  0
    8.0757    6.7277    0.0000 H   0  0  0  0  0  0  0  0  0  0  0  0
    7.2531    8.2026    0.0000 H   0  0  0  0  0  0  0  0  0  0  0  0
    6.8546    7.5123    0.0000 H   0  0  0  0  0  0  0  0  0  0  0  0
    1.0930    3.6569    0.0000 H   0  0  0  0  0  0  0  0  0  0  0  0
    0.2269    5.1569    0.0000 H   0  0  0  0  0  0  0  0  0  0  0  0
    0.0000    4.3100    0.0000 H   0  0  0  0  0  0  0  0  0  0  0  0
    0.8469    4.0831    0.0000 H   0  0  0  0  0  0  0  0  0  0  0  0
    0.8660    2.8100    0.0000 H   0  0  0  0  0  0  0  0  0  0  0  0
    1.7130    2.5831    0.0000 H   0  0  0  0  0  0  0  0  0  0  0  0
    8.0021    4.9300    0.0000 H   0  0  0  0  0  0  0  0  0  0  0  0
    5.1962    3.3100    0.0000 H   0  0  0  0  0  0  0  0  0  0  0  0
    8.0021    3.3100    0.0000 H   0  0  0  0  0  0  0  0  0  0  0  0
    6.5991    2.5000    0.0000 H   0  0  0  0  0  0  0  0  0  0  0  0
    9.1972    7.0000    0.0000 H   0  0  0  0  0  0  0  0  0  0  0  0
    7.7942    9.4300    0.0000 H   0  0  0  0  0  0  0  0  0  0  0  0
   10.6002    7.8100    0.0000 H   0  0  0  0  0  0  0  0  0  0  0  0
    9.1972   10.2400    0.0000 H   0  0  0  0  0  0  0  0  0  0  0  0
   10.6002    9.4300    0.0000 H   0  0  0  0  0  0  0  0  0  0  0  0
    5.8001    0.0000    0.0000 H   0  0  0  0  0  0  0  0  0  0  0  0
  1 53  1  0  0  0  0
  2  8  1  0  0  0  0
  2 12  1  0  0  0  0
  3 15  2  0  0  0  0
  4  5  1  0  0  0  0
  4  6  1  0  0  0  0
  4  7  1  0  0  0  0
  5  8  1  0  0  0  0
  5 26  1  0  0  0  0
  5 27  1  0  0  0  0
  6 13  1  0  0  0  0
  6 28  1  0  0  0  0
  6 29  1  0  0  0  0
  7 14  1  0  0  0  0
  7 30  1  0  0  0  0
  7 31  1  0  0  0  0
  8 32  1  0  0  0  0
  8 33  1  0  0  0  0
  9 10  1  0  0  0  0
  9 15  1  0  0  0  0
  9 34  1  0  0  0  0
  9 35  1  0  0  0  0
 10 16  1  0  0  0  0
 10 36  1  0  0  0  0
 10 37  1  0  0  0  0
 11 12  1  0  0  0  0
 11 15  1  0  0  0  0
 11 17  2  0  0  0  0
 12 18  2  0  0  0  0
 13 39  1  0  0  0  0
 13 40  1  0  0  0  0
 13 41  1  0  0  0  0
 14 38  1  0  0  0  0
 14 42  1  0  0  0  0
 14 43  1  0  0  0  0
 16 21  2  0  0  0  0
 16 22  1  0  0  0  0
 17 19  1  0  0  0  0
 17 44  1  0  0  0  0
 18 20  1  0  0  0  0
 18 45  1  0  0  0  0
 19 20  2  0  0  0  0
 19 46  1  0  0  0  0
 20 47  1  0  0  0  0
 21 23  1  0  0  0  0
 21 48  1  0  0  0  0
 22 24  2  0  0  0  0
 22 49  1  0  0  0  0
 23 25  2  0  0  0  0
 23 50  1  0  0  0  0
 24 25  1  0  0  0  0
 24 51  1  0  0  0  0
 25 52  1  0  0  0  0
M  END
> <PUBCHEM_COMPOUND_CID>
102220

> <PUBCHEM_COMPOUND_CANONICALIZED>
1

> <PUBCHEM_CACTVS_COMPLEXITY>
348

> <PUBCHEM_CACTVS_HBOND_ACCEPTOR>
3

> <PUBCHEM_CACTVS_HBOND_DONOR>
1

> <PUBCHEM_CACTVS_ROTATABLE_BOND>
10

> <PUBCHEM_CACTVS_SUBSKEYS>
AAADceB6MAAEAAAAAAAAAAAAAAAAAAAAAAAwYAAAAAAAAAABQAAAHgAAAAAADAThmAYyBoMABACIAqBSAAACCAAkIAAIiAEOCMgOJjaENRqDOWCk4BGYqYeIyOCOAAAAAAAIAAAAAAAAABAAAAAAAAAAAA==

> <PUBCHEM_IUPAC_OPENEYE_NAME>
1-[2-[2-(diethylamino)ethoxy]phenyl]-3-phenyl-propan-1-one hydrochloride

> <PUBCHEM_IUPAC_CAS_NAME>
1-[2-[2-(diethylamino)ethoxy]phenyl]-3-phenyl-1-propanone hydrochloride

> <PUBCHEM_IUPAC_NAME>
1-[2-[2-(diethylamino)ethoxy]phenyl]-3-phenylpropan-1-one hydrochloride

> <PUBCHEM_IUPAC_SYSTEMATIC_NAME>
1-[2-[2-(diethylamino)ethoxy]phenyl]-3-phenyl-propan-1-one hydrochloride

> <PUBCHEM_IUPAC_TRADITIONAL_NAME>
1-[2-[2-(diethylamino)ethoxy]phenyl]-3-phenyl-propan-1-one hydrochloride

> <PUBCHEM_IUPAC_INCHI>
InChI=1S/C21H27NO2.ClH/c1-3-22(4-2)16-17-24-21-13-9-8-12-19(21)20(23)15-14-18-10-6-5-7-11-18;/h5-13H,3-4,14-17H2,1-2H3;1H

> <PUBCHEM_IUPAC_INCHIKEY>
BYWIEEUABBZFEE-UHFFFAOYSA-N

> <PUBCHEM_EXACT_MASS>
361.180857

> <PUBCHEM_MOLECULAR_FORMULA>
C21H28ClNO2

> <PUBCHEM_MOLECULAR_WEIGHT>
361.90552

> <PUBCHEM_OPENEYE_CAN_SMILES>
CCN(CC)CCOC1=CC=CC=C1C(=O)CCC2=CC=CC=C2.Cl

> <PUBCHEM_OPENEYE_ISO_SMILES>
CCN(CC)CCOC1=CC=CC=C1C(=O)CCC2=CC=CC=C2.Cl

> <PUBCHEM_CACTVS_TPSA>
29.5

> <PUBCHEM_MONOISOTOPIC_WEIGHT>
361.180857

> <PUBCHEM_TOTAL_CHARGE>
0

> <PUBCHEM_HEAVY_ATOM_COUNT>
25

> <PUBCHEM_ATOM_DEF_STEREO_COUNT>
0

> <PUBCHEM_ATOM_UDEF_STEREO_COUNT>
0

> <PUBCHEM_BOND_DEF_STEREO_COUNT>
0

> <PUBCHEM_BOND_UDEF_STEREO_COUNT>
0

> <PUBCHEM_ISOTOPIC_ATOM_COUNT>
0

> <PUBCHEM_COMPONENT_COUNT>
2

> <PUBCHEM_CACTVS_TAUTO_COUNT>
2

> <PUBCHEM_COORDINATE_TYPE>
1
5
255

> <PUBCHEM_BONDANNOTATIONS>
11  12  8
11  17  8
12  18  8
16  21  8
16  22  8
17  19  8
18  20  8
19  20  8
21  23  8
22  24  8
23  25  8
24  25  8

$$$$

