17396500
  -OEChem-06241222572D

 58 61  0     1  0  0  0  0  0999 V2000
    6.1808    2.2500    0.0000 S   0  0  0  0  0  0  0  0  0  0  0  0
    7.1808    2.2500    0.0000 O   0  0  0  0  0  0  0  0  0  0  0  0
    5.1808    2.2500    0.0000 O   0  0  0  0  0  0  0  0  0  0  0  0
    2.6691   -1.8433    0.0000 O   0  0  0  0  0  0  0  0  0  0  0  0
    7.9128    2.2500    0.0000 O   0  0  0  0  0  0  0  0  0  0  0  0
    7.0468   -2.2500    0.0000 O   0  0  0  0  0  0  0  0  0  0  0  0
    6.1808    3.2500    0.0000 N   0  0  3  0  0  0  0  0  0  0  0  0
    5.3147   -2.2500    0.0000 N   0  0  0  0  0  0  0  0  0  0  0  0
    6.1808    1.2500    0.0000 C   0  0  0  0  0  0  0  0  0  0  0  0
    6.1808   -0.7500    0.0000 C   0  0  0  0  0  0  0  0  0  0  0  0
    7.0468    3.7500    0.0000 C   0  0  0  0  0  0  0  0  0  0  0  0
    4.4487   -1.7500    0.0000 C   0  0  0  0  0  0  0  0  0  0  0  0
    5.3147    0.7500    0.0000 C   0  0  0  0  0  0  0  0  0  0  0  0
    7.0468    0.7500    0.0000 C   0  0  0  0  0  0  0  0  0  0  0  0
    6.1808   -1.7500    0.0000 C   0  0  0  0  0  0  0  0  0  0  0  0
    5.3147   -0.2500    0.0000 C   0  0  0  0  0  0  0  0  0  0  0  0
    7.0468   -0.2500    0.0000 C   0  0  0  0  0  0  0  0  0  0  0  0
    5.3147   -3.2500    0.0000 C   0  0  0  0  0  0  0  0  0  0  0  0
    5.3147    3.7500    0.0000 C   0  0  0  0  0  0  0  0  0  0  0  0
    7.9128    3.2500    0.0000 C   0  0  0  0  0  0  0  0  0  0  0  0
    3.5827   -2.2500    0.0000 C   0  0  0  0  0  0  0  0  0  0  0  0
    7.0468    4.7500    0.0000 C   0  0  0  0  0  0  0  0  0  0  0  0
    4.4487   -3.7500    0.0000 C   0  0  0  0  0  0  0  0  0  0  0  0
    6.1808   -3.7500    0.0000 C   0  0  0  0  0  0  0  0  0  0  0  0
    8.7788    3.7500    0.0000 C   0  0  0  0  0  0  0  0  0  0  0  0
    7.9128    5.2500    0.0000 C   0  0  0  0  0  0  0  0  0  0  0  0
    3.4782   -3.2445    0.0000 C   0  0  0  0  0  0  0  0  0  0  0  0
    8.7788    4.7500    0.0000 C   0  0  0  0  0  0  0  0  0  0  0  0
    4.4487   -4.7500    0.0000 C   0  0  0  0  0  0  0  0  0  0  0  0
    6.1808   -4.7500    0.0000 C   0  0  0  0  0  0  0  0  0  0  0  0
    5.3147   -5.2500    0.0000 C   0  0  0  0  0  0  0  0  0  0  0  0
    2.5000   -3.4524    0.0000 C   0  0  0  0  0  0  0  0  0  0  0  0
    2.0000   -2.5864    0.0000 C   0  0  0  0  0  0  0  0  0  0  0  0
    8.7788    1.7500    0.0000 C   0  0  0  0  0  0  0  0  0  0  0  0
    4.8472   -1.2750    0.0000 H   0  0  0  0  0  0  0  0  0  0  0  0
    4.0502   -1.2750    0.0000 H   0  0  0  0  0  0  0  0  0  0  0  0
    4.7778    1.0600    0.0000 H   0  0  0  0  0  0  0  0  0  0  0  0
    7.5837    1.0600    0.0000 H   0  0  0  0  0  0  0  0  0  0  0  0
    4.7778   -0.5600    0.0000 H   0  0  0  0  0  0  0  0  0  0  0  0
    7.5837   -0.5600    0.0000 H   0  0  0  0  0  0  0  0  0  0  0  0
    5.6247    4.2869    0.0000 H   0  0  0  0  0  0  0  0  0  0  0  0
    4.7778    4.0600    0.0000 H   0  0  0  0  0  0  0  0  0  0  0  0
    5.0047    3.2131    0.0000 H   0  0  0  0  0  0  0  0  0  0  0  0
    6.5098    5.0600    0.0000 H   0  0  0  0  0  0  0  0  0  0  0  0
    3.9118   -3.4400    0.0000 H   0  0  0  0  0  0  0  0  0  0  0  0
    6.7177   -3.4400    0.0000 H   0  0  0  0  0  0  0  0  0  0  0  0
    9.3158    3.4400    0.0000 H   0  0  0  0  0  0  0  0  0  0  0  0
    7.9128    5.8700    0.0000 H   0  0  0  0  0  0  0  0  0  0  0  0
    3.9389   -3.6594    0.0000 H   0  0  0  0  0  0  0  0  0  0  0  0
    9.3158    5.0600    0.0000 H   0  0  0  0  0  0  0  0  0  0  0  0
    3.9118   -5.0600    0.0000 H   0  0  0  0  0  0  0  0  0  0  0  0
    6.7177   -5.0600    0.0000 H   0  0  0  0  0  0  0  0  0  0  0  0
    5.3147   -5.8700    0.0000 H   0  0  0  0  0  0  0  0  0  0  0  0
    2.2478   -4.0188    0.0000 H   0  0  0  0  0  0  0  0  0  0  0  0
    1.3834   -2.5216    0.0000 H   0  0  0  0  0  0  0  0  0  0  0  0
    8.4688    1.2131    0.0000 H   0  0  0  0  0  0  0  0  0  0  0  0
    9.3158    1.4400    0.0000 H   0  0  0  0  0  0  0  0  0  0  0  0
    9.0888    2.2869    0.0000 H   0  0  0  0  0  0  0  0  0  0  0  0
  1  2  2  0  0  0  0
  1  3  2  0  0  0  0
  1  7  1  0  0  0  0
  1  9  1  0  0  0  0
  4 21  1  0  0  0  0
  4 33  1  0  0  0  0
  5 20  1  0  0  0  0
  5 34  1  0  0  0  0
  6 15  2  0  0  0  0
  7 11  1  0  0  0  0
  7 19  1  0  0  0  0
  8 12  1  0  0  0  0
  8 15  1  0  0  0  0
  8 18  1  0  0  0  0
  9 13  2  0  0  0  0
  9 14  1  0  0  0  0
 10 15  1  0  0  0  0
 10 16  2  0  0  0  0
 10 17  1  0  0  0  0
 11 20  1  0  0  0  0
 11 22  2  0  0  0  0
 12 21  1  0  0  0  0
 12 35  1  0  0  0  0
 12 36  1  0  0  0  0
 13 16  1  0  0  0  0
 13 37  1  0  0  0  0
 14 17  2  0  0  0  0
 14 38  1  0  0  0  0
 16 39  1  0  0  0  0
 17 40  1  0  0  0  0
 18 23  2  0  0  0  0
 18 24  1  0  0  0  0
 19 41  1  0  0  0  0
 19 42  1  0  0  0  0
 19 43  1  0  0  0  0
 20 25  2  0  0  0  0
 21 27  2  0  0  0  0
 22 26  1  0  0  0  0
 22 44  1  0  0  0  0
 23 29  1  0  0  0  0
 23 45  1  0  0  0  0
 24 30  2  0  0  0  0
 24 46  1  0  0  0  0
 25 28  1  0  0  0  0
 25 47  1  0  0  0  0
 26 28  2  0  0  0  0
 26 48  1  0  0  0  0
 27 32  1  0  0  0  0
 27 49  1  0  0  0  0
 28 50  1  0  0  0  0
 29 31  2  0  0  0  0
 29 51  1  0  0  0  0
 30 31  1  0  0  0  0
 30 52  1  0  0  0  0
 31 53  1  0  0  0  0
 32 33  2  0  0  0  0
 32 54  1  0  0  0  0
 33 55  1  0  0  0  0
 34 56  1  0  0  0  0
 34 57  1  0  0  0  0
 34 58  1  0  0  0  0
M  END
> <PUBCHEM_COMPOUND_CID>
17396500

> <PUBCHEM_COMPOUND_CANONICALIZED>
1

> <PUBCHEM_CACTVS_COMPLEXITY>
756

> <PUBCHEM_CACTVS_HBOND_ACCEPTOR>
6

> <PUBCHEM_CACTVS_HBOND_DONOR>
0

> <PUBCHEM_CACTVS_ROTATABLE_BOND>
8

> <PUBCHEM_CACTVS_SUBSKEYS>
AAADceB7OABAAAAAAAAAAAAAAAAAASAAAAAwYMAAAAAAAAAB1AAAHgQAQAAADAzh2AYyx4MABEKIAq1S0HDCCBAlIgAIiBmPbMgOJjLEtbuHOSjkxhHY6YeY2QKOEAAAAAAAEAAgAAAAAAAgAAAAAAAAAA==

> <PUBCHEM_IUPAC_OPENEYE_NAME>
N-(2-furylmethyl)-4-[(2-methoxyphenyl)-methyl-sulfamoyl]-N-phenyl-benzamide

> <PUBCHEM_IUPAC_CAS_NAME>
N-(2-furanylmethyl)-4-[(2-methoxyphenyl)-methylsulfamoyl]-N-phenylbenzamide

> <PUBCHEM_IUPAC_NAME>
N-(furan-2-ylmethyl)-4-[(2-methoxyphenyl)-methylsulfamoyl]-N-phenylbenzamide

> <PUBCHEM_IUPAC_SYSTEMATIC_NAME>
N-(furan-2-ylmethyl)-4-[(2-methoxyphenyl)-methyl-sulfamoyl]-N-phenyl-benzamide

> <PUBCHEM_IUPAC_TRADITIONAL_NAME>
N-(2-furfuryl)-4-[(2-methoxyphenyl)-methyl-sulfamoyl]-N-phenyl-benzamide

> <PUBCHEM_IUPAC_INCHI>
InChI=1S/C26H24N2O5S/c1-27(24-12-6-7-13-25(24)32-2)34(30,31)23-16-14-20(15-17-23)26(29)28(19-22-11-8-18-33-22)21-9-4-3-5-10-21/h3-18H,19H2,1-2H3

> <PUBCHEM_IUPAC_INCHIKEY>
RIMKCECESQWMMF-UHFFFAOYSA-N

> <PUBCHEM_XLOGP3_AA>
4.2

> <PUBCHEM_EXACT_MASS>
476.140593

> <PUBCHEM_MOLECULAR_FORMULA>
C26H24N2O5S

> <PUBCHEM_MOLECULAR_WEIGHT>
476.54416

> <PUBCHEM_OPENEYE_CAN_SMILES>
CN(C1=CC=CC=C1OC)S(=O)(=O)C2=CC=C(C=C2)C(=O)N(CC3=CC=CO3)C4=CC=CC=C4

> <PUBCHEM_OPENEYE_ISO_SMILES>
CN(C1=CC=CC=C1OC)S(=O)(=O)C2=CC=C(C=C2)C(=O)N(CC3=CC=CO3)C4=CC=CC=C4

> <PUBCHEM_CACTVS_TPSA>
88.4

> <PUBCHEM_MONOISOTOPIC_WEIGHT>
476.140593

> <PUBCHEM_TOTAL_CHARGE>
0

> <PUBCHEM_HEAVY_ATOM_COUNT>
34

> <PUBCHEM_ATOM_DEF_STEREO_COUNT>
0

> <PUBCHEM_ATOM_UDEF_STEREO_COUNT>
0

> <PUBCHEM_BOND_DEF_STEREO_COUNT>
0

> <PUBCHEM_BOND_UDEF_STEREO_COUNT>
0

> <PUBCHEM_ISOTOPIC_ATOM_COUNT>
0

> <PUBCHEM_COMPONENT_COUNT>
1

> <PUBCHEM_CACTVS_TAUTO_COUNT>
1

> <PUBCHEM_COORDINATE_TYPE>
1
5
255

> <PUBCHEM_BONDANNOTATIONS>
10  16  8
10  17  8
11  20  8
11  22  8
13  16  8
14  17  8
18  23  8
18  24  8
20  25  8
21  27  8
22  26  8
23  29  8
24  30  8
25  28  8
26  28  8
27  32  8
29  31  8
30  31  8
32  33  8
4  21  8
4  33  8
9  13  8
9  14  8

$$$$

