   Color/Form

     * White crystals
     * White fine powder

   from [1]HSDB

   Odor
        Odorless
   from [2]HSDB

   Melting Point
        98.9 deg C
   from [3]HSDB

   Density/Specific Gravity
        1.330 g/cu cm at 20 deg C
   from [4]HSDB

   Dissociation Constants
        pKa = 0.7
   from [5]HSDB

   Octanol/Water Partition Coefficient
        log Kow = 0.80 at 25 deg C
   from [6]HSDB

   Solubilities

     * In water, 4.25X10+3 mg/L at 25 deg C
     * Soluble in acetone, methanol, ethanol, dichloromethane, chloroform,
       acetonitrile, and tetrahydrofuran
     * In water at 25 deg C: 3.48X10+3 mg/L @ pH5; 2.95X10+3 mg/L @ pH 7,
       3.96X10+3 mg/L @ pH 9

   from [7]HSDB

   Vapor Pressure
        4.4X10-5 mm Hg at 25 deg C /Estimated/
   from [8]HSDB

   Other Chemical/Physical Properties

     * Henry's Law constant = 6.9X10-8 atm-cu m/mol at 25 deg C
       /Estimated/
     * Hydroxyl radical reaction rate constant = 7.6X10-11 cu
       cm/molecule-sec at 25 deg C /Estimated/

   from [9]HSDB

   Computed Properties
   Molecular Weight                  222.67414 [g/mol]
   Molecular Formula                 C[10]H[11]ClN[4]
   XLogP3-AA                         1.4
   H-Bond Donor                      0
   H-Bond Acceptor                   3
   Rotatable Bond Count              3
   Exact Mass                        222.067224
   MonoIsotopic Mass                 222.067224
   Topological Polar Surface Area    52.3
   Heavy Atom Count                  15
   Formal Charge                     0
   Complexity                        280
   Isotope Atom Count                0
   Defined Atom Stereocenter Count   0
   Undefined Atom Stereocenter Count 0
   Defined Bond Stereocenter Count   0
   Undefined Bond Stereocenter Count 0
   Covalently-Bonded Unit Count      1
   Feature 3D Acceptor Count         2
   Feature 3D Cation Count           2
   Feature 3D Ring Count             1
   Effective Rotor Count             3
   Conformer Sampling RMSD           0.6
   CID Conformer Count               [10]64

References

   1. http://toxnet.nlm.nih.gov/cgi-bin/sis/search/r?dbs+hsdb:@term+@rn+@rel+135410-20-7
   2. http://toxnet.nlm.nih.gov/cgi-bin/sis/search/r?dbs+hsdb:@term+@rn+@rel+135410-20-7
   3. http://toxnet.nlm.nih.gov/cgi-bin/sis/search/r?dbs+hsdb:@term+@rn+@rel+135410-20-7
   4. http://toxnet.nlm.nih.gov/cgi-bin/sis/search/r?dbs+hsdb:@term+@rn+@rel+135410-20-7
   5. http://toxnet.nlm.nih.gov/cgi-bin/sis/search/r?dbs+hsdb:@term+@rn+@rel+135410-20-7
   6. http://toxnet.nlm.nih.gov/cgi-bin/sis/search/r?dbs+hsdb:@term+@rn+@rel+135410-20-7
   7. http://toxnet.nlm.nih.gov/cgi-bin/sis/search/r?dbs+hsdb:@term+@rn+@rel+135410-20-7
   8. http://toxnet.nlm.nih.gov/cgi-bin/sis/search/r?dbs+hsdb:@term+@rn+@rel+135410-20-7
   9. http://toxnet.nlm.nih.gov/cgi-bin/sis/search/r?dbs+hsdb:@term+@rn+@rel+135410-20-7
  10. http://pubchem.ncbi.nlm.nih.gov/vw3d/vw3d.cgi?cid=213021
