   Color/Form

     * Colorless to slightly yellow crystals
     * YELLOW TO BROWN SOLID

   from [1]HSDB

   Odor
        Odorless
   from [2]HSDB

   Taste

     * Sweetish, then burning taste
     * TASTE /THRESHOLD/ CONCENTRATION 43.4 MG/L.

   from [3]HSDB

   Boiling Point
        279 DEG C (DECOMPOSES)
   from [4]HSDB

   Melting Point
        113-114 deg C
   from [5]HSDB

   Density/Specific Gravity
        1.270 @ 20 deg C/D
   from [6]HSDB

   Dissociation Constants
        pka= 7.15 @ 25 deg C
   from [7]HSDB

   Heat of Combustion
        -8870 BTU/LB= -4930 CAL/G= -206X10+5 J/KG
   from [8]HSDB

   Octanol/Water Partition Coefficient
        log Kow= 1.91
   from [9]HSDB

   Solubilities

     * Freely sol in alcohol, chloroform, ether; sol in soln of fixed
       alkali hydroxides & carbonates
     * Very sol in ethanol, ether, and acetone
     * 32.8 G/L IN WATER @ 40 DEG C
     * 10,000 mg/l @ 15 deg C
     * 16,000 mg/l in water @ 25 deg C
     * 269,000 mg/l in water @ 90 deg C

   from [10]HSDB

   Spectral Properties

     * MAX ABSORPTION (METHANOL): 310 NM (LOG E= 4.00); SADTLER REF
       NUMBER: 5887 (IR, PRISM), 506 (IR, GRATING)
     * Intense mass spectral peaks: 139 m/z (100%), 65 m/z (87%), 109 m/z
       (31%), 93 m/z (31%)
     * IR: 5952 (Coblentz Society Spectral Collection)
     * UV: 1684 (Sadtler Research Laboratories Spectral Collection)
     * NMR: 6814 (Sadtler Research Laboratories Spectral Collection)
     * MASS: 88 (Aldermaston, Eight Peak Index of Mass Spectra, UK)

   from [11]HSDB

   Vapor Pressure
        9.79X10-5 mm Hg @ 20 deg C
   from [12]HSDB

   Other Chemical/Physical Properties

     * Heat of fusion: 18.25 kJ/mol
     * Sublimes
     * FOR ... /FOR ODOR, TASTE, AND COLOR THRESHOLD/ CONCENTRATIONS ...
       58.3, 43.4, ND 0.24 MG/L, RESPECTIVELY.
     * Henry's Law constant = 1.3X10-8 atm-cu m/mol @ 20 deg C

   from [13]HSDB

   Computed Properties
   Molecular Weight                  139.1088 [g/mol]
   Molecular Formula                 C[6]H[5]NO[3]
   XLogP3                            1.9
   H-Bond Donor                      1
   H-Bond Acceptor                   3
   Rotatable Bond Count              0
   Tautomer Count                    2
   Exact Mass                        139.026943
   MonoIsotopic Mass                 139.026943
   Topological Polar Surface Area    66
   Heavy Atom Count                  10
   Formal Charge                     0
   Complexity                        123
   Isotope Atom Count                0
   Defined Atom Stereocenter Count   0
   Undefined Atom Stereocenter Count 0
   Defined Bond Stereocenter Count   0
   Undefined Bond Stereocenter Count 0
   Covalently-Bonded Unit Count      1
   Feature 3D Acceptor Count         2
   Feature 3D Donor Count            1
   Feature 3D Anion Count            1
   Feature 3D Ring Count             1
   Effective Rotor Count             1
   Conformer Sampling RMSD           0.4
   CID Conformer Count               [14]1

References

   1. http://toxnet.nlm.nih.gov/cgi-bin/sis/search/r?dbs+hsdb:@term+@rn+@rel+100-02-7
   2. http://toxnet.nlm.nih.gov/cgi-bin/sis/search/r?dbs+hsdb:@term+@rn+@rel+100-02-7
   3. http://toxnet.nlm.nih.gov/cgi-bin/sis/search/r?dbs+hsdb:@term+@rn+@rel+100-02-7
   4. http://toxnet.nlm.nih.gov/cgi-bin/sis/search/r?dbs+hsdb:@term+@rn+@rel+100-02-7
   5. http://toxnet.nlm.nih.gov/cgi-bin/sis/search/r?dbs+hsdb:@term+@rn+@rel+100-02-7
   6. http://toxnet.nlm.nih.gov/cgi-bin/sis/search/r?dbs+hsdb:@term+@rn+@rel+100-02-7
   7. http://toxnet.nlm.nih.gov/cgi-bin/sis/search/r?dbs+hsdb:@term+@rn+@rel+100-02-7
   8. http://toxnet.nlm.nih.gov/cgi-bin/sis/search/r?dbs+hsdb:@term+@rn+@rel+100-02-7
   9. http://toxnet.nlm.nih.gov/cgi-bin/sis/search/r?dbs+hsdb:@term+@rn+@rel+100-02-7
  10. http://toxnet.nlm.nih.gov/cgi-bin/sis/search/r?dbs+hsdb:@term+@rn+@rel+100-02-7
  11. http://toxnet.nlm.nih.gov/cgi-bin/sis/search/r?dbs+hsdb:@term+@rn+@rel+100-02-7
  12. http://toxnet.nlm.nih.gov/cgi-bin/sis/search/r?dbs+hsdb:@term+@rn+@rel+100-02-7
  13. http://toxnet.nlm.nih.gov/cgi-bin/sis/search/r?dbs+hsdb:@term+@rn+@rel+100-02-7
  14. http://pubchem.ncbi.nlm.nih.gov/vw3d/vw3d.cgi?cid=980
