166839
  -OEChem-07051213072D

 62 65  0     1  0  0  0  0  0999 V2000
    6.5271    1.2008    0.0000 O   0  0  0  0  0  0  0  0  0  0  0  0
    2.0000   -3.3515    0.0000 O   0  0  0  0  0  0  0  0  0  0  0  0
   11.2283    3.2695    0.0000 O   0  0  0  0  0  0  0  0  0  0  0  0
   11.5855    1.5747    0.0000 O   0  0  0  0  0  0  0  0  0  0  0  0
    7.3931   -0.2992    0.0000 C   0  0  1  0  0  0  0  0  0  0  0  0
    7.3931   -1.2992    0.0000 C   0  0  2  0  0  0  0  0  0  0  0  0
    8.3393    0.0055    0.0000 C   0  0  2  0  0  0  0  0  0  0  0  0
    6.5271   -1.7992    0.0000 C   0  0  1  0  0  0  0  0  0  0  0  0
    5.6610   -1.2992    0.0000 C   0  0  2  0  0  0  0  0  0  0  0  0
    6.5271    0.2008    0.0000 C   0  0  2  0  0  0  0  0  0  0  0  0
    8.3393   -1.6039    0.0000 C   0  0  0  0  0  0  0  0  0  0  0  0
    5.6610   -0.2992    0.0000 C   0  0  0  0  0  0  0  0  0  0  0  0
    8.9229   -0.7992    0.0000 C   0  0  0  0  0  0  0  0  0  0  0  0
    4.7510   -1.8060    0.0000 C   0  0  2  0  0  0  0  0  0  0  0  0
    8.6500    0.9560    0.0000 C   0  0  1  0  0  0  0  0  0  0  0  0
    7.3931    0.7008    0.0000 C   0  0  0  0  0  0  0  0  0  0  0  0
    6.5431   -2.8407    0.0000 C   0  0  0  0  0  0  0  0  0  0  0  0
    4.7430   -2.8476    0.0000 C   0  0  0  0  0  0  0  0  0  0  0  0
    3.8242   -1.2420    0.0000 C   0  0  0  0  0  0  0  0  0  0  0  0
    4.7587   -0.8061    0.0000 C   0  0  0  0  0  0  0  0  0  0  0  0
    5.6451   -3.3685    0.0000 C   0  0  0  0  0  0  0  0  0  0  0  0
    9.6285    1.1623    0.0000 C   0  0  0  0  0  0  0  0  0  0  0  0
    7.9821    1.7004    0.0000 C   0  0  0  0  0  0  0  0  0  0  0  0
    2.8763   -1.7699    0.0000 C   0  0  0  0  0  0  0  0  0  0  0  0
    3.8076   -3.3974    0.0000 C   0  0  0  0  0  0  0  0  0  0  0  0
    2.8680   -2.8549    0.0000 C   0  0  0  0  0  0  0  0  0  0  0  0
    9.9391    2.1128    0.0000 C   0  0  0  0  0  0  0  0  0  0  0  0
   10.9176    2.3190    0.0000 C   0  0  0  0  0  0  0  0  0  0  0  0
    7.4830   -2.1444    0.0000 H   0  0  0  0  0  0  0  0  0  0  0  0
    9.1790    0.1374    0.0000 H   0  0  0  0  0  0  0  0  0  0  0  0
    7.2664   -2.2185    0.0000 H   0  0  0  0  0  0  0  0  0  0  0  0
    6.3972   -0.8742    0.0000 H   0  0  0  0  0  0  0  0  0  0  0  0
    7.0640    0.5108    0.0000 H   0  0  0  0  0  0  0  0  0  0  0  0
    8.0883   -2.1708    0.0000 H   0  0  0  0  0  0  0  0  0  0  0  0
    8.8767   -1.9132    0.0000 H   0  0  0  0  0  0  0  0  0  0  0  0
    5.4490    0.2834    0.0000 H   0  0  0  0  0  0  0  0  0  0  0  0
    5.0504   -0.4069    0.0000 H   0  0  0  0  0  0  0  0  0  0  0  0
    9.3838   -1.2139    0.0000 H   0  0  0  0  0  0  0  0  0  0  0  0
    9.3838   -0.3845    0.0000 H   0  0  0  0  0  0  0  0  0  0  0  0
    8.0433    0.8282    0.0000 H   0  0  0  0  0  0  0  0  0  0  0  0
    8.0131    0.7008    0.0000 H   0  0  0  0  0  0  0  0  0  0  0  0
    7.3931    1.3208    0.0000 H   0  0  0  0  0  0  0  0  0  0  0  0
    6.7731    0.7008    0.0000 H   0  0  0  0  0  0  0  0  0  0  0  0
    7.0836   -3.1445    0.0000 H   0  0  0  0  0  0  0  0  0  0  0  0
    4.2324   -0.7753    0.0000 H   0  0  0  0  0  0  0  0  0  0  0  0
    3.4343   -0.7599    0.0000 H   0  0  0  0  0  0  0  0  0  0  0  0
    5.3787   -0.8109    0.0000 H   0  0  0  0  0  0  0  0  0  0  0  0
    4.7635   -0.1861    0.0000 H   0  0  0  0  0  0  0  0  0  0  0  0
    4.1388   -0.8013    0.0000 H   0  0  0  0  0  0  0  0  0  0  0  0
    5.6475   -3.9885    0.0000 H   0  0  0  0  0  0  0  0  0  0  0  0
    9.6490    0.5426    0.0000 H   0  0  0  0  0  0  0  0  0  0  0  0
   10.2423    1.0749    0.0000 H   0  0  0  0  0  0  0  0  0  0  0  0
    5.9901    1.5108    0.0000 H   0  0  0  0  0  0  0  0  0  0  0  0
    8.4436    2.1144    0.0000 H   0  0  0  0  0  0  0  0  0  0  0  0
    7.5681    2.1618    0.0000 H   0  0  0  0  0  0  0  0  0  0  0  0
    7.5207    1.2863    0.0000 H   0  0  0  0  0  0  0  0  0  0  0  0
    2.6718   -1.1846    0.0000 H   0  0  0  0  0  0  0  0  0  0  0  0
    2.2647   -1.8713    0.0000 H   0  0  0  0  0  0  0  0  0  0  0  0
    3.8100   -4.0174    0.0000 H   0  0  0  0  0  0  0  0  0  0  0  0
    9.9186    2.7324    0.0000 H   0  0  0  0  0  0  0  0  0  0  0  0
    9.3253    2.2001    0.0000 H   0  0  0  0  0  0  0  0  0  0  0  0
   11.8350    3.3974    0.0000 H   0  0  0  0  0  0  0  0  0  0  0  0
 10  1  1  6  0  0  0
  1 53  1  0  0  0  0
  2 26  2  0  0  0  0
  3 28  1  0  0  0  0
  3 62  1  0  0  0  0
  4 28  2  0  0  0  0
  5  6  1  0  0  0  0
  5  7  1  0  0  0  0
  5 10  1  0  0  0  0
  5 16  1  1  0  0  0
  6  8  1  0  0  0  0
  6 11  1  0  0  0  0
  6 29  1  6  0  0  0
  7 13  1  0  0  0  0
  7 15  1  0  0  0  0
  7 30  1  6  0  0  0
  8  9  1  0  0  0  0
  8 17  1  0  0  0  0
  8 31  1  1  0  0  0
  9 12  1  0  0  0  0
  9 14  1  0  0  0  0
  9 32  1  6  0  0  0
 10 12  1  0  0  0  0
 10 33  1  0  0  0  0
 11 13  1  0  0  0  0
 11 34  1  0  0  0  0
 11 35  1  0  0  0  0
 12 36  1  0  0  0  0
 12 37  1  0  0  0  0
 13 38  1  0  0  0  0
 13 39  1  0  0  0  0
 14 18  1  0  0  0  0
 14 19  1  0  0  0  0
 14 20  1  1  0  0  0
 15 22  1  0  0  0  0
 15 23  1  6  0  0  0
 15 40  1  0  0  0  0
 16 41  1  0  0  0  0
 16 42  1  0  0  0  0
 16 43  1  0  0  0  0
 17 21  2  0  0  0  0
 17 44  1  0  0  0  0
 18 21  1  0  0  0  0
 18 25  2  0  0  0  0
 19 24  1  0  0  0  0
 19 45  1  0  0  0  0
 19 46  1  0  0  0  0
 20 47  1  0  0  0  0
 20 48  1  0  0  0  0
 20 49  1  0  0  0  0
 21 50  1  0  0  0  0
 22 27  1  0  0  0  0
 22 51  1  0  0  0  0
 22 52  1  0  0  0  0
 23 54  1  0  0  0  0
 23 55  1  0  0  0  0
 23 56  1  0  0  0  0
 24 26  1  0  0  0  0
 24 57  1  0  0  0  0
 24 58  1  0  0  0  0
 25 26  1  0  0  0  0
 25 59  1  0  0  0  0
 27 28  1  0  0  0  0
 27 60  1  0  0  0  0
 27 61  1  0  0  0  0
M  END
> <PUBCHEM_COMPOUND_CID>
166839

> <PUBCHEM_COMPOUND_CANONICALIZED>
1

> <PUBCHEM_CACTVS_COMPLEXITY>
737

> <PUBCHEM_CACTVS_HBOND_ACCEPTOR>
4

> <PUBCHEM_CACTVS_HBOND_DONOR>
2

> <PUBCHEM_CACTVS_ROTATABLE_BOND>
4

> <PUBCHEM_CACTVS_SUBSKEYS>
AAADcfB4OAAAAAAAAAAAAAAAAAAAAYAAAAAwQIAAAAAAAGCAAAAAGgAACAAADxSggAICCAAAAgCIAqDSCAAAAAAgAAAICAEAAEgIEBIAAQAAQAAEgAAIgQOIyPCPgAAAAAAAAADAAAYAADAAAQAACAAAAA==

> <PUBCHEM_IUPAC_OPENEYE_NAME>
(4R)-4-[(8R,9S,10R,12S,13R,14S,17R)-12-hydroxy-10,13-dimethyl-3-oxo-1,2,8,9,11,12,14,15,16,17-decahydrocyclopenta[a]phenanthren-17-yl]pentanoic acid

> <PUBCHEM_IUPAC_CAS_NAME>
(4R)-4-[(8R,9S,10R,12S,13R,14S,17R)-12-hydroxy-10,13-dimethyl-3-oxo-1,2,8,9,11,12,14,15,16,17-decahydrocyclopenta[a]phenanthren-17-yl]pentanoic acid

> <PUBCHEM_IUPAC_NAME>
(4R)-4-[(8R,9S,10R,12S,13R,14S,17R)-12-hydroxy-10,13-dimethyl-3-oxo-1,2,8,9,11,12,14,15,16,17-decahydrocyclopenta[a]phenanthren-17-yl]pentanoic acid

> <PUBCHEM_IUPAC_SYSTEMATIC_NAME>
(4R)-4-[(8R,9S,10R,12S,13R,14S,17R)-10,13-dimethyl-12-oxidanyl-3-oxidanylidene-1,2,8,9,11,12,14,15,16,17-decahydrocyclopenta[a]phenanthren-17-yl]pentanoic acid

> <PUBCHEM_IUPAC_TRADITIONAL_NAME>
(4R)-4-[(8R,9S,10R,12S,13R,14S,17R)-12-hydroxy-3-keto-10,13-dimethyl-1,2,8,9,11,12,14,15,16,17-decahydrocyclopenta[a]phenanthren-17-yl]valeric acid

> <PUBCHEM_IUPAC_INCHI>
InChI=1S/C24H34O4/c1-14(4-9-22(27)28)18-7-8-19-17-6-5-15-12-16(25)10-11-23(15,2)20(17)13-21(26)24(18,19)3/h5-6,12,14,17-21,26H,4,7-11,13H2,1-3H3,(H,27,28)/t14-,17+,18-,19+,20+,21+,23+,24-/m1/s1

> <PUBCHEM_IUPAC_INCHIKEY>
DJVAMCYXFUWMLS-QUPGBHKMSA-N

> <PUBCHEM_XLOGP3_AA>
3.8

> <PUBCHEM_EXACT_MASS>
386.24571

> <PUBCHEM_MOLECULAR_FORMULA>
C24H34O4

> <PUBCHEM_MOLECULAR_WEIGHT>
386.52436

> <PUBCHEM_OPENEYE_CAN_SMILES>
CC(CCC(=O)O)C1CCC2C1(C(CC3C2C=CC4=CC(=O)CCC34C)O)C

> <PUBCHEM_OPENEYE_ISO_SMILES>
C[C@H](CCC(=O)O)[C@H]1CC[C@@H]2[C@@]1([C@H](C[C@H]3[C@H]2C=CC4=CC(=O)CC[C@]34C)O)C

> <PUBCHEM_CACTVS_TPSA>
74.6

> <PUBCHEM_MONOISOTOPIC_WEIGHT>
386.24571

> <PUBCHEM_TOTAL_CHARGE>
0

> <PUBCHEM_HEAVY_ATOM_COUNT>
28

> <PUBCHEM_ATOM_DEF_STEREO_COUNT>
8

> <PUBCHEM_ATOM_UDEF_STEREO_COUNT>
0

> <PUBCHEM_BOND_DEF_STEREO_COUNT>
0

> <PUBCHEM_BOND_UDEF_STEREO_COUNT>
0

> <PUBCHEM_ISOTOPIC_ATOM_COUNT>
0

> <PUBCHEM_COMPONENT_COUNT>
1

> <PUBCHEM_CACTVS_TAUTO_COUNT>
7

> <PUBCHEM_COORDINATE_TYPE>
1
5
255

> <PUBCHEM_BONDANNOTATIONS>
10  1  6
14  20  5
15  23  6
5  16  5
6  29  6
7  30  6
8  31  5
9  32  6

$$$$

