   Color/Form
        Colorless, crystalline stable solid
   from [1]HSDB

   Odor
        Characteristic odor
   from [2]HSDB

   Melting Point
        75-77 deg C
   from [3]HSDB

   Dissociation Constants

     * pKa= 5.2
     * pKa = 4.91

   from [4]HSDB

   Octanol/Water Partition Coefficient
        log Kow= 3.97
   from [5]HSDB

   Solubilities

     * Readily sol in most org solvents
     * VERY SOLUBLE IN ALCOHOL
     * In water, 21 mg/l @ 25 deg C

   from [6]HSDB

   Vapor Pressure
        4.74X10-5 mm Hg @ 25 deg C
   from [7]HSDB

   Computed Properties
   Molecular Weight                  206.28082 [g/mol]
   Molecular Formula                 C[13]H[18]O[2]
   XLogP3                            3.5
   H-Bond Donor                      1
   H-Bond Acceptor                   2
   Rotatable Bond Count              4
   Exact Mass                        206.13068
   MonoIsotopic Mass                 206.13068
   Topological Polar Surface Area    37.3
   Heavy Atom Count                  15
   Formal Charge                     0
   Complexity                        203
   Isotope Atom Count                0
   Defined Atom Stereocenter Count   0
   Undefined Atom Stereocenter Count 1
   Defined Bond Stereocenter Count   0
   Undefined Bond Stereocenter Count 0
   Covalently-Bonded Unit Count      1
   Feature 3D Acceptor Count         2
   Feature 3D Anion Count            1
   Feature 3D Hydrophobe Count       2
   Feature 3D Ring Count             1
   Effective Rotor Count             4
   Conformer Sampling RMSD           0.6
   CID Conformer Count               [8]8

References

   1. http://toxnet.nlm.nih.gov/cgi-bin/sis/search/r?dbs+hsdb:@term+@rn+@rel+15687-27-1
   2. http://toxnet.nlm.nih.gov/cgi-bin/sis/search/r?dbs+hsdb:@term+@rn+@rel+15687-27-1
   3. http://toxnet.nlm.nih.gov/cgi-bin/sis/search/r?dbs+hsdb:@term+@rn+@rel+15687-27-1
   4. http://toxnet.nlm.nih.gov/cgi-bin/sis/search/r?dbs+hsdb:@term+@rn+@rel+15687-27-1
   5. http://toxnet.nlm.nih.gov/cgi-bin/sis/search/r?dbs+hsdb:@term+@rn+@rel+15687-27-1
   6. http://toxnet.nlm.nih.gov/cgi-bin/sis/search/r?dbs+hsdb:@term+@rn+@rel+15687-27-1
   7. http://toxnet.nlm.nih.gov/cgi-bin/sis/search/r?dbs+hsdb:@term+@rn+@rel+15687-27-1
   8. http://pubchem.ncbi.nlm.nih.gov/vw3d/vw3d.cgi?cid=3672
