   Color/Form
        Colorless to yellowish liquid
   from [1]HSDB

   Odor

     * Floral odor
     * Odor of citronella oil

   from [2]HSDB

   Boiling Point
        213.3 deg C
   from [3]HSDB

   Melting Point
        -5 deg C
   from [4]HSDB

   Critical Temperature and Pressure
        Critical temperature = 671.5 K; Critial pressure = 2.63 MPa
   from [5]HSDB

   Density/Specific Gravity
        0.8279 at 20 deg C/4 deg C
   from [6]HSDB

   Heat of Combustion
        5943.4 kJ/mol at 298.15 deg K (liquid)
   from [7]HSDB

   Heat of Vaporization
        76.86 kJ/mol at 25 deg C
   from [8]HSDB

   Octanol/Water Partition Coefficient
        log Kow = 3.77
   from [9]HSDB

   Solubilities

     * Miscible with alcohol, ether
     * Soluble in ethanol, ether; very soluble in carbon tetrachloride
     * In water, 140 mg/L at 25 deg C

   from [10]HSDB

   Spectral Properties

     * Index of refraction = 1.4338 at 20 deg C/D
     * IR: 1491 (Sadtler Research Laboratories Prism Collection)
     * 1H NMR: 102 (Sadtler Research Laboratories Spectral Collection)
     * MASS: 4034 (NIST/EPA/MSDC Mass Spectral database, 1990 version);
       803 (Atlas of Mass Spectral Data, John Wiley & Sons, New York)

   from [11]HSDB

   Vapor Pressure
        0.0227 mm Hg at 25 deg C (est)
   from [12]HSDB

   Viscosity
        11.7 centapoise at 20 deg C
   from [13]HSDB

   Other Chemical/Physical Properties

     * BP: 215 deg C at 760 mm Hg; 107.5 deg C at 15 mm Hg; 95.6 deg C at
       7.5 mm Hg
     * Henry's Law constant = 3.1X10-5 atm-cu m/mol at 25 deg C (est)
     * Hydroxyl radical reaction rate constant = 1.4X10-11 cu cm/molec-sec
       at 25 deg C (est)

   from [14]HSDB

   Computed Properties
   Molecular Weight                  144.2545 [g/mol]
   Molecular Formula                 C[9]H[20]O
   XLogP3                            4.3
   H-Bond Donor                      1
   H-Bond Acceptor                   1
   Rotatable Bond Count              7
   Exact Mass                        144.151415
   MonoIsotopic Mass                 144.151415
   Topological Polar Surface Area    20.2
   Heavy Atom Count                  10
   Formal Charge                     0
   Complexity                        52.7
   Isotope Atom Count                0
   Defined Atom Stereocenter Count   0
   Undefined Atom Stereocenter Count 0
   Defined Bond Stereocenter Count   0
   Undefined Bond Stereocenter Count 0
   Covalently-Bonded Unit Count      1
   Feature 3D Acceptor Count         1
   Feature 3D Donor Count            1
   Feature 3D Hydrophobe Count       1
   Effective Rotor Count             7
   Conformer Sampling RMSD           0.6
   CID Conformer Count               [15]324

References

   1. http://toxnet.nlm.nih.gov/cgi-bin/sis/search/r?dbs+hsdb:@term+@rn+@rel+143-08-8
   2. http://toxnet.nlm.nih.gov/cgi-bin/sis/search/r?dbs+hsdb:@term+@rn+@rel+143-08-8
   3. http://toxnet.nlm.nih.gov/cgi-bin/sis/search/r?dbs+hsdb:@term+@rn+@rel+143-08-8
   4. http://toxnet.nlm.nih.gov/cgi-bin/sis/search/r?dbs+hsdb:@term+@rn+@rel+143-08-8
   5. http://toxnet.nlm.nih.gov/cgi-bin/sis/search/r?dbs+hsdb:@term+@rn+@rel+143-08-8
   6. http://toxnet.nlm.nih.gov/cgi-bin/sis/search/r?dbs+hsdb:@term+@rn+@rel+143-08-8
   7. http://toxnet.nlm.nih.gov/cgi-bin/sis/search/r?dbs+hsdb:@term+@rn+@rel+143-08-8
   8. http://toxnet.nlm.nih.gov/cgi-bin/sis/search/r?dbs+hsdb:@term+@rn+@rel+143-08-8
   9. http://toxnet.nlm.nih.gov/cgi-bin/sis/search/r?dbs+hsdb:@term+@rn+@rel+143-08-8
  10. http://toxnet.nlm.nih.gov/cgi-bin/sis/search/r?dbs+hsdb:@term+@rn+@rel+143-08-8
  11. http://toxnet.nlm.nih.gov/cgi-bin/sis/search/r?dbs+hsdb:@term+@rn+@rel+143-08-8
  12. http://toxnet.nlm.nih.gov/cgi-bin/sis/search/r?dbs+hsdb:@term+@rn+@rel+143-08-8
  13. http://toxnet.nlm.nih.gov/cgi-bin/sis/search/r?dbs+hsdb:@term+@rn+@rel+143-08-8
  14. http://toxnet.nlm.nih.gov/cgi-bin/sis/search/r?dbs+hsdb:@term+@rn+@rel+143-08-8
  15. http://pubchem.ncbi.nlm.nih.gov/vw3d/vw3d.cgi?cid=8914
