   Color/Form
        COLORLESS GAS
   from [1]HSDB

   Odor
        Odorless
   from [2]HSDB

   Boiling Point
        -75.9 deg C
   from [3]HSDB

   Melting Point
        -142.5 DEG C
   from [4]HSDB

   Critical Temperature and Pressure
        Critical temperature = 33.3 deg C; Critical pressure = 3.82 MPa
   from [5]HSDB

   Density/Specific Gravity
        1.519 g/cu cm at -76 deg C
   from [6]HSDB

   Solubilities
        Water solubility = 1.59X10+2 mg/l @ 25 deg C
   from [7]HSDB

   Spectral Properties

     * IR: 16251 (Sadtler Research Laboratories IR Grating Collection)
     * UV: 16575 (Sadtler Research Laboratories Spectral Collection)
     * NMR: 9038 (Sadtler Research Laboratories Spectral Collection)
     * MASS: 30 (National Bureau of Standards EPA-NIH Mass Spectra Data
       Base, NSRDS-NBS-63)
     * MASS: 4008 (National Bureau of Standards EPA-NIH Mass Spectra Data
       Base, NSRDS-NBS-63)

   from [8]HSDB

   Vapor Density
        3.87 (AIR= 1)
   from [9]HSDB

   Vapor Pressure
        Vapor pressure = 2.45X10+4 mm Hg @ 25 deg C /calculated from
   experimentally derived coefficients/
   from [10]HSDB

   Other Chemical/Physical Properties

     * ODORLESS OR FAINT ODOR; CRITICAL TEMP: 92 DEG F= 33 DEG C= 306 DEG
       K; HEAT OF POLYMERIZATION: -450 BTU/LB= 250 CAL/G= -10.5X10+5
       JOULES/KG; CRITICAL PRESSURE: 573 PSIA= 38.9 ATM= 3.95 MN/SQ M;
       HEAT OF COMBUSTION: -4,000 BTU/LB= -2,000 CAL/G= -90X10+5 JOULES/KG
       /INHIBITED/
     * MUCH HEAVIER THAN AIR
     * Critical density = 0.58 g/cu cm; Heat of evaporation = 16,821 J/mol
       at -75.6 deg C

   from [11]HSDB

   Computed Properties
   Molecular Weight                  100.015013 [g/mol]
   Molecular Formula                 C[2]F[4]
   XLogP3-AA                         1.3
   H-Bond Donor                      0
   H-Bond Acceptor                   4
   Rotatable Bond Count              0
   Exact Mass                        99.993613
   MonoIsotopic Mass                 99.993613
   Topological Polar Surface Area    0
   Heavy Atom Count                  6
   Formal Charge                     0
   Complexity                        55.6
   Isotope Atom Count                0
   Defined Atom Stereocenter Count   0
   Undefined Atom Stereocenter Count 0
   Defined Bond Stereocenter Count   0
   Undefined Bond Stereocenter Count 0
   Covalently-Bonded Unit Count      1
   Effective Rotor Count             0
   Conformer Sampling RMSD           0.4
   CID Conformer Count               [12]1

References

   1. http://toxnet.nlm.nih.gov/cgi-bin/sis/search/r?dbs+hsdb:@term+@rn+@rel+116-14-3
   2. http://toxnet.nlm.nih.gov/cgi-bin/sis/search/r?dbs+hsdb:@term+@rn+@rel+116-14-3
   3. http://toxnet.nlm.nih.gov/cgi-bin/sis/search/r?dbs+hsdb:@term+@rn+@rel+116-14-3
   4. http://toxnet.nlm.nih.gov/cgi-bin/sis/search/r?dbs+hsdb:@term+@rn+@rel+116-14-3
   5. http://toxnet.nlm.nih.gov/cgi-bin/sis/search/r?dbs+hsdb:@term+@rn+@rel+116-14-3
   6. http://toxnet.nlm.nih.gov/cgi-bin/sis/search/r?dbs+hsdb:@term+@rn+@rel+116-14-3
   7. http://toxnet.nlm.nih.gov/cgi-bin/sis/search/r?dbs+hsdb:@term+@rn+@rel+116-14-3
   8. http://toxnet.nlm.nih.gov/cgi-bin/sis/search/r?dbs+hsdb:@term+@rn+@rel+116-14-3
   9. http://toxnet.nlm.nih.gov/cgi-bin/sis/search/r?dbs+hsdb:@term+@rn+@rel+116-14-3
  10. http://toxnet.nlm.nih.gov/cgi-bin/sis/search/r?dbs+hsdb:@term+@rn+@rel+116-14-3
  11. http://toxnet.nlm.nih.gov/cgi-bin/sis/search/r?dbs+hsdb:@term+@rn+@rel+116-14-3
  12. http://pubchem.ncbi.nlm.nih.gov/vw3d/vw3d.cgi?cid=8301
