108016
  -OEChem-07051213112D

 27 31  0     1  0  0  0  0  0999 V2000
    5.4816    2.0348    0.0000 O   0  0  0  0  0  0  0  0  0  0  0  0
    4.6153    1.5344    0.0000 C   0  0  3  0  0  0  0  0  0  0  0  0
    5.4814    1.0344    0.0000 C   0  0  3  0  0  0  0  0  0  0  0  0
    5.4814    0.0344    0.0000 C   0  0  0  0  0  0  0  0  0  0  0  0
    3.7493    1.0344    0.0000 C   0  0  0  0  0  0  0  0  0  0  0  0
    4.6153   -0.4656    0.0000 C   0  0  0  0  0  0  0  0  0  0  0  0
    3.7493    0.0344    0.0000 C   0  0  0  0  0  0  0  0  0  0  0  0
    4.6314   -1.5071    0.0000 C   0  0  0  0  0  0  0  0  0  0  0  0
    2.8393   -0.4724    0.0000 C   0  0  0  0  0  0  0  0  0  0  0  0
    6.3408   -0.4604    0.0000 C   0  0  0  0  0  0  0  0  0  0  0  0
    2.8911    1.5313    0.0000 C   0  0  0  0  0  0  0  0  0  0  0  0
    3.7334   -2.0348    0.0000 C   0  0  0  0  0  0  0  0  0  0  0  0
    2.8313   -1.5140    0.0000 C   0  0  0  0  0  0  0  0  0  0  0  0
    5.5085   -1.9698    0.0000 C   0  0  0  0  0  0  0  0  0  0  0  0
    2.0000    0.0558    0.0000 C   0  0  0  0  0  0  0  0  0  0  0  0
    2.0256    1.0472    0.0000 C   0  0  0  0  0  0  0  0  0  0  0  0
    6.3543   -1.4520    0.0000 C   0  0  0  0  0  0  0  0  0  0  0  0
    6.1014    1.0343    0.0000 H   0  0  0  0  0  0  0  0  0  0  0  0
    4.3053    2.0713    0.0000 H   0  0  0  0  0  0  0  0  0  0  0  0
    6.8755   -0.1464    0.0000 H   0  0  0  0  0  0  0  0  0  0  0  0
    2.8957    2.1513    0.0000 H   0  0  0  0  0  0  0  0  0  0  0  0
    3.7358   -2.6548    0.0000 H   0  0  0  0  0  0  0  0  0  0  0  0
    2.2932   -1.8220    0.0000 H   0  0  0  0  0  0  0  0  0  0  0  0
    5.5284   -2.5895    0.0000 H   0  0  0  0  0  0  0  0  0  0  0  0
    1.4534   -0.2369    0.0000 H   0  0  0  0  0  0  0  0  0  0  0  0
    6.8972   -1.7513    0.0000 H   0  0  0  0  0  0  0  0  0  0  0  0
    1.4949    1.3677    0.0000 H   0  0  0  0  0  0  0  0  0  0  0  0
  1  2  1  0  0  0  0
  1  3  1  0  0  0  0
  2  3  1  0  0  0  0
  2  5  1  0  0  0  0
  2 19  1  0  0  0  0
  3  4  1  0  0  0  0
  3 18  1  0  0  0  0
  4  6  1  0  0  0  0
  4 10  2  0  0  0  0
  5  7  1  0  0  0  0
  5 11  2  0  0  0  0
  6  7  1  0  0  0  0
  6  8  2  0  0  0  0
  7  9  2  0  0  0  0
  8 12  1  0  0  0  0
  8 14  1  0  0  0  0
  9 13  1  0  0  0  0
  9 15  1  0  0  0  0
 10 17  1  0  0  0  0
 10 20  1  0  0  0  0
 11 16  1  0  0  0  0
 11 21  1  0  0  0  0
 12 13  2  0  0  0  0
 12 22  1  0  0  0  0
 13 23  1  0  0  0  0
 14 17  2  0  0  0  0
 14 24  1  0  0  0  0
 15 16  2  0  0  0  0
 15 25  1  0  0  0  0
 16 27  1  0  0  0  0
 17 26  1  0  0  0  0
M  END
> <PUBCHEM_COMPOUND_CID>
108016

> <PUBCHEM_COMPOUND_CANONICALIZED>
1

> <PUBCHEM_CACTVS_COMPLEXITY>
306

> <PUBCHEM_CACTVS_HBOND_ACCEPTOR>
1

> <PUBCHEM_CACTVS_HBOND_DONOR>
0

> <PUBCHEM_CACTVS_ROTATABLE_BOND>
0

> <PUBCHEM_CACTVS_SUBSKEYS>
AAADccB4IAAAAAAAAAAAAAAAEgAAAAAAAAAwYMGABIAAAADBVAAAGgAAAAAADBSgmAIwAMAABACAAiBCAAACAAAgAAAIiAAACIgIJiKAMRiCMAAkwAEIqAeAwPAOwAACAAAQAADAAAYAADAAAAAAAAAAAA==

> <PUBCHEM_IUPAC_INCHI>
InChI=1S/C16H10O/c1-3-9-7-8-10-4-2-6-12-14(10)13(9)11(5-1)15-16(12)17-15/h1-8,15-16H

> <PUBCHEM_IUPAC_INCHIKEY>
RJCXKHSGIOKCID-UHFFFAOYSA-N

> <PUBCHEM_XLOGP3_AA>
3.5

> <PUBCHEM_EXACT_MASS>
218.073165

> <PUBCHEM_MOLECULAR_FORMULA>
C16H10O

> <PUBCHEM_MOLECULAR_WEIGHT>
218.25

> <PUBCHEM_OPENEYE_CAN_SMILES>
C1=CC2=C3C(=C1)C4C(O4)C5=CC=CC(=C53)C=C2

> <PUBCHEM_OPENEYE_ISO_SMILES>
C1=CC2=C3C(=C1)C4C(O4)C5=CC=CC(=C53)C=C2

> <PUBCHEM_CACTVS_TPSA>
12.5

> <PUBCHEM_MONOISOTOPIC_WEIGHT>
218.073165

> <PUBCHEM_TOTAL_CHARGE>
0

> <PUBCHEM_HEAVY_ATOM_COUNT>
17

> <PUBCHEM_ATOM_DEF_STEREO_COUNT>
0

> <PUBCHEM_ATOM_UDEF_STEREO_COUNT>
2

> <PUBCHEM_BOND_DEF_STEREO_COUNT>
0

> <PUBCHEM_BOND_UDEF_STEREO_COUNT>
0

> <PUBCHEM_ISOTOPIC_ATOM_COUNT>
0

> <PUBCHEM_COMPONENT_COUNT>
1

> <PUBCHEM_CACTVS_TAUTO_COUNT>
1

> <PUBCHEM_COORDINATE_TYPE>
1
5
255

> <PUBCHEM_BONDANNOTATIONS>
2  1  3
3  1  3
10  17  8
11  16  8
12  13  8
14  17  8
15  16  8
4  10  8
4  6  8
5  11  8
5  7  8
6  7  8
6  8  8
7  9  8
8  12  8
8  14  8
9  13  8
9  15  8

$$$$

