   Color/Form

     * Monoclinic tablets or needle-like crystals
     * Colorless to white, crystalline powder.

   from [1]HSDB

   Odor

     * Odorless, but in moist air it is gradually hydrolyzed and acquires
       odor of acetic acid
     * Odorless [Note: Develops the vinegar-like odor of acetic acid on
       contact with moisture].

   from [2]HSDB

   Melting Point
        135 deg C (rapid heating)
   from [3]HSDB

   Density/Specific Gravity
        1.40
   from [4]HSDB

   Dissociation Constants
        pKa = 3.49 at 25 deg C
   from [5]HSDB

   Octanol/Water Partition Coefficient
        log Kow = 1.19
   from [6]HSDB

   Solubilities

     * 1 g sol in: 300 mL water at 25 deg C, 100 mL water at 37 deg C, 5
       mL alcohol, 17 mL chloroform, 10-15 mL ether; less sol in anhydrous
       ether
     * In water, 4,600 mg/L at 25 deg C

   from [7]HSDB

   Spectral Properties

     * Intense mass spectral peaks: 92 m/z, 120 m/z, 138 m/z, 180 m/z
     * MAX ABSORPTION (ETHER): 275 NM (LOG E= 3.11); SADTLER REF NUMBER:
       51 (IR, PRISM)
     * UV max: (0.1 N H2SO4): 229 (E(1%)(cm) 484); (CHCl3): 277 (E(1%)(cm)
       68)
     * IR: 5063 (Coblentz Society Spectral Collection)
     * UV: 25 (Sadtler Research Laboratories Spectral Collection)
     * NMR: 18001 (Sadtler Research Laboratories Spectral Collection)
     * Raman: 417 (Sadtler Research Laboratories Spectral Collection)
     * MASS: 23813 (NIST/EPA/MSDC Mass Spectral database, 1990 version)

   from [8]HSDB

   Vapor Pressure
        2.52X10-5 mm Hg at 25 deg C (calc)
   from [9]HSDB

   Other Chemical/Physical Properties

     * ... solidifies at 118 deg C
     * Henry's Law constant =: 1.30X10-9 atm-cu m/mole at 25 deg C (est)
     * Hydroxyl radical reaction rate constant = 8.10X10-13 cu
       cm/molec-sec at 25 deg C (est)

   from [10]HSDB

   Computed Properties
   Molecular Weight                  180.15742 [g/mol]
   Molecular Formula                 C[9]H[8]O[4]
   XLogP3                            1.2
   H-Bond Donor                      1
   H-Bond Acceptor                   4
   Rotatable Bond Count              3
   Exact Mass                        180.042259
   MonoIsotopic Mass                 180.042259
   Topological Polar Surface Area    63.6
   Heavy Atom Count                  13
   Formal Charge                     0
   Complexity                        212
   Isotope Atom Count                0
   Defined Atom Stereocenter Count   0
   Undefined Atom Stereocenter Count 0
   Defined Bond Stereocenter Count   0
   Undefined Bond Stereocenter Count 0
   Covalently-Bonded Unit Count      1
   Feature 3D Acceptor Count         3
   Feature 3D Anion Count            1
   Feature 3D Ring Count             1
   Effective Rotor Count             3
   Conformer Sampling RMSD           0.6
   CID Conformer Count               [11]18

References

   1. http://toxnet.nlm.nih.gov/cgi-bin/sis/search/r?dbs+hsdb:@term+@rn+@rel+50-78-2
   2. http://toxnet.nlm.nih.gov/cgi-bin/sis/search/r?dbs+hsdb:@term+@rn+@rel+50-78-2
   3. http://toxnet.nlm.nih.gov/cgi-bin/sis/search/r?dbs+hsdb:@term+@rn+@rel+50-78-2
   4. http://toxnet.nlm.nih.gov/cgi-bin/sis/search/r?dbs+hsdb:@term+@rn+@rel+50-78-2
   5. http://toxnet.nlm.nih.gov/cgi-bin/sis/search/r?dbs+hsdb:@term+@rn+@rel+50-78-2
   6. http://toxnet.nlm.nih.gov/cgi-bin/sis/search/r?dbs+hsdb:@term+@rn+@rel+50-78-2
   7. http://toxnet.nlm.nih.gov/cgi-bin/sis/search/r?dbs+hsdb:@term+@rn+@rel+50-78-2
   8. http://toxnet.nlm.nih.gov/cgi-bin/sis/search/r?dbs+hsdb:@term+@rn+@rel+50-78-2
   9. http://toxnet.nlm.nih.gov/cgi-bin/sis/search/r?dbs+hsdb:@term+@rn+@rel+50-78-2
  10. http://toxnet.nlm.nih.gov/cgi-bin/sis/search/r?dbs+hsdb:@term+@rn+@rel+50-78-2
  11. http://pubchem.ncbi.nlm.nih.gov/vw3d/vw3d.cgi?cid=2244
