   Color/Form

     * Oily liquid
     * Colorless liquid

   from [1]HSDB

   Odor
        Strong odor
   from [2]HSDB

   Boiling Point
        231.5 deg C
   from [3]HSDB

   Melting Point
        15 deg C
   from [4]HSDB

   Density/Specific Gravity
        0.8260 to 0.8263 at 20 deg C/4 deg C
   from [5]HSDB

   Octanol/Water Partition Coefficient
        log Kow = 4.09 [Tanii H, Hashimoyo K; Toxicol Lett 30: 13-17
   (1986)] [6]PubMed Abstract
   from [7]HSDB

   Solubilities

     * Insoluble in water. Soluble in ethanol, ether, acetone, benzene,
       carbon tetrachloride, chloroform.
     * In water, 20 mg/L at 25 deg C (est)

   from [8]HSDB

   Spectral Properties

     * Index of refraction = 1.4291 at 20 deg C/D
     * MASS: 22018 (NIST/EPA/MSDC Mass Spectral database, 1990 version);
       1137 (Atlas of Mass Spectral Data, John Wiley & Sons, New York)
     * IR: 461 (Sadtler Research Laboratories IR grating collection)
     * IR: 461 (Sadtler Research Laboratories IR grating collection)
     * 1H NMR: 663 (Sadtler Research Laboratories spectral collection)

   from [9]HSDB

   Vapor Density
        5.9 (Air = 1)
   from [10]HSDB

   Vapor Pressure
        4.1X10-2 mm Hg
   from [11]HSDB

   Other Chemical/Physical Properties

     * BP: 231.5 to 232.5 deg C at 761 mm Hg; 99 deg C at 7 mm Hg
     * Henry's Law constant = 6.36X10-5 atm-cu m/mol at 25 deg C
     * Hydroxyl radical reaction rate constant = 1.38X10-11 cu
       cm/molec-sec at 25 deg C (est)

   from [12]HSDB

   Computed Properties
   Molecular Weight                  170.29178 [g/mol]
   Molecular Formula                 C[11]H[22]O
   XLogP3                            4.1
   H-Bond Donor                      0
   H-Bond Acceptor                   1
   Rotatable Bond Count              8
   Tautomer Count                    3
   Exact Mass                        170.167065
   MonoIsotopic Mass                 170.167065
   Topological Polar Surface Area    17.1
   Heavy Atom Count                  12
   Formal Charge                     0
   Complexity                        108
   Isotope Atom Count                0
   Defined Atom Stereocenter Count   0
   Undefined Atom Stereocenter Count 0
   Defined Bond Stereocenter Count   0
   Undefined Bond Stereocenter Count 0
   Covalently-Bonded Unit Count      1
   Feature 3D Acceptor Count         1
   Feature 3D Hydrophobe Count       1
   Effective Rotor Count             8
   Conformer Sampling RMSD           0.8
   CID Conformer Count               [13]309

References

   1. http://toxnet.nlm.nih.gov/cgi-bin/sis/search/r?dbs+hsdb:@term+@rn+@rel+112-12-9
   2. http://toxnet.nlm.nih.gov/cgi-bin/sis/search/r?dbs+hsdb:@term+@rn+@rel+112-12-9
   3. http://toxnet.nlm.nih.gov/cgi-bin/sis/search/r?dbs+hsdb:@term+@rn+@rel+112-12-9
   4. http://toxnet.nlm.nih.gov/cgi-bin/sis/search/r?dbs+hsdb:@term+@rn+@rel+112-12-9
   5. http://toxnet.nlm.nih.gov/cgi-bin/sis/search/r?dbs+hsdb:@term+@rn+@rel+112-12-9
   6. http://www.ncbi.nlm.nih.gov/entrez/query.fcgi?cmd=Retrieve&db=pubmed&dopt=Abstract&list_uids=3952768
   7. http://toxnet.nlm.nih.gov/cgi-bin/sis/search/r?dbs+hsdb:@term+@rn+@rel+112-12-9
   8. http://toxnet.nlm.nih.gov/cgi-bin/sis/search/r?dbs+hsdb:@term+@rn+@rel+112-12-9
   9. http://toxnet.nlm.nih.gov/cgi-bin/sis/search/r?dbs+hsdb:@term+@rn+@rel+112-12-9
  10. http://toxnet.nlm.nih.gov/cgi-bin/sis/search/r?dbs+hsdb:@term+@rn+@rel+112-12-9
  11. http://toxnet.nlm.nih.gov/cgi-bin/sis/search/r?dbs+hsdb:@term+@rn+@rel+112-12-9
  12. http://toxnet.nlm.nih.gov/cgi-bin/sis/search/r?dbs+hsdb:@term+@rn+@rel+112-12-9
  13. http://pubchem.ncbi.nlm.nih.gov/vw3d/vw3d.cgi?cid=8163
