   Color/Form

     * Volatile liquid
     * Colorless liquid
     * Colorless liquid or solid (below 55 degrees F)

   from [1]HSDB

   Odor

     * Acrid odor and fumes
     * Quality: rancid, sweet; hedonic tone: unpleasant
     * Distinctive, acrid odor

   from [2]HSDB

   Boiling Point
        141 deg C
   from [3]HSDB

   Melting Point
        12.5 deg C
   from [4]HSDB

   Corrosivity
        Corrosive to metals
   from [5]HSDB

   Critical Temperature and Pressure
        Critical temperature: 648 deg F = 342 deg C; critical pressure: 57
   atm
   from [6]HSDB

   Density/Specific Gravity
        1.0511 g/cu cm at 20 deg C
   from [7]HSDB

   Dissociation Constants
        pKa = 4.25 at 25 deg C
   from [8]HSDB

   Heat of Combustion
        1368.4 kJ/mole
   from [9]HSDB

   Heat of Vaporization
        10,955.1 gcal/gmole
   from [10]HSDB

   Octanol/Water Partition Coefficient
        log Kow = 0.35
   from [11]HSDB

   Solubilities

     * Miscible with alcohol, and ether
     * Miscible with ethanol, ethyl ether; soluble in acetone, benzene,
       carbon tetrachloride
     * Miscible with chloroform
     * Miscible with water /1X10+6 mg/L/ at 25 deg C

   from [12]HSDB

   Spectral Properties

     * Index of refraction: 1.4224 at 20 deg C/D
     * Index of refraction: 1.4185 at 25 deg C
     * SADTLER REFERENCE NUMBER: 11017 (IR, PRISM); MAX ABSORPTION
       (METHANOL): 252 NM (LOG E= 1.96)
     * IR: 4287 (Coblentz Society Spectral Collection)
     * UV: 2994 (Sadtler Research Laboratories Spectral Collection)
     * Raman: 11 (Sadtler Research Laboratories Spectral Collection)
     * 1H NMR: 5298 (Sadtler Research Laboratories Spectral Collection)
     * MASS: 302 (NIST/EPA/MSDC Mass Spectral Database, 1990 version)

   from [13]HSDB

   Surface Tension
        28.1 dynes/cm at 30 deg C
   from [14]HSDB

   Vapor Density
        2.5 (Air = 1)
   from [15]HSDB

   Vapor Pressure
        3.97 mm Hg at 25 deg C
   from [16]HSDB

   Other Chemical/Physical Properties

     * Polymerizes readily in the presence of oxygen
     * Corrosive liquid
     * BP: 122.0 deg C at 400 mm Hg; 103.3 deg C at 200 mm Hg; 86.1 deg C
       at 100 mm Hg; 66.2 deg C at 40 mm Hg; 39.0 deg C at 10 mm Hg; 27.3
       deg C at 5 mm Hg
     * 1 ppm in air = 3 mg/cu m
     * Haet of Fusion: 37.03 cal/g = 154.93 J/g = 11,164 J/mol
     * Activated carbon adsorbability: 0.129 g/g carbon
     * Saturated concentration in air: 12.6 g/cu m at 20 deg C, 22.8 g/cu
       m at 30 deg C
     * Ratio of specific heats of vapor: 1.121; Heat of polymerization:
       -463 BTU/lb= -257 cal/g= -10.8X10+5 J/kg; Reid vapor pressure: 0.2
       psia
     * Liquid heat capacity: 0.460 BTU/lb-F at 106 deg F; Saturated vapor
       density: 0.00106 lb/cu ft at 70 deg F; Ideal gas heat capacity:
       0.257 BTU/lb-F at 75 deg F
     * Bulk density: 8.6 lb/gal at 20 deg C
     * Henry's Law constant = 3.7X10-7 atm-cu m/mol at 25 deg C (est)
     * Hydroxyl radical reaction rate constant = 9.73X10-12 cu
       cm/molec-sec at 25 deg C (est)

   from [17]HSDB

   Computed Properties
   Molecular Weight                  72.06266 [g/mol]
   Molecular Formula                 C[3]H[4]O[2]
   XLogP3                            0.3
   H-Bond Donor                      1
   H-Bond Acceptor                   2
   Rotatable Bond Count              1
   Exact Mass                        72.021129
   MonoIsotopic Mass                 72.021129
   Topological Polar Surface Area    37.3
   Heavy Atom Count                  5
   Formal Charge                     0
   Complexity                        55.9
   Isotope Atom Count                0
   Defined Atom Stereocenter Count   0
   Undefined Atom Stereocenter Count 0
   Defined Bond Stereocenter Count   0
   Undefined Bond Stereocenter Count 0
   Covalently-Bonded Unit Count      1
   Feature 3D Acceptor Count         2
   Feature 3D Anion Count            1
   Feature 3D Hydrophobe Count       1
   Effective Rotor Count             1
   Conformer Sampling RMSD           0.4
   CID Conformer Count               [18]1

References

   1. http://toxnet.nlm.nih.gov/cgi-bin/sis/search/r?dbs+hsdb:@term+@rn+@rel+79-10-7
   2. http://toxnet.nlm.nih.gov/cgi-bin/sis/search/r?dbs+hsdb:@term+@rn+@rel+79-10-7
   3. http://toxnet.nlm.nih.gov/cgi-bin/sis/search/r?dbs+hsdb:@term+@rn+@rel+79-10-7
   4. http://toxnet.nlm.nih.gov/cgi-bin/sis/search/r?dbs+hsdb:@term+@rn+@rel+79-10-7
   5. http://toxnet.nlm.nih.gov/cgi-bin/sis/search/r?dbs+hsdb:@term+@rn+@rel+79-10-7
   6. http://toxnet.nlm.nih.gov/cgi-bin/sis/search/r?dbs+hsdb:@term+@rn+@rel+79-10-7
   7. http://toxnet.nlm.nih.gov/cgi-bin/sis/search/r?dbs+hsdb:@term+@rn+@rel+79-10-7
   8. http://toxnet.nlm.nih.gov/cgi-bin/sis/search/r?dbs+hsdb:@term+@rn+@rel+79-10-7
   9. http://toxnet.nlm.nih.gov/cgi-bin/sis/search/r?dbs+hsdb:@term+@rn+@rel+79-10-7
  10. http://toxnet.nlm.nih.gov/cgi-bin/sis/search/r?dbs+hsdb:@term+@rn+@rel+79-10-7
  11. http://toxnet.nlm.nih.gov/cgi-bin/sis/search/r?dbs+hsdb:@term+@rn+@rel+79-10-7
  12. http://toxnet.nlm.nih.gov/cgi-bin/sis/search/r?dbs+hsdb:@term+@rn+@rel+79-10-7
  13. http://toxnet.nlm.nih.gov/cgi-bin/sis/search/r?dbs+hsdb:@term+@rn+@rel+79-10-7
  14. http://toxnet.nlm.nih.gov/cgi-bin/sis/search/r?dbs+hsdb:@term+@rn+@rel+79-10-7
  15. http://toxnet.nlm.nih.gov/cgi-bin/sis/search/r?dbs+hsdb:@term+@rn+@rel+79-10-7
  16. http://toxnet.nlm.nih.gov/cgi-bin/sis/search/r?dbs+hsdb:@term+@rn+@rel+79-10-7
  17. http://toxnet.nlm.nih.gov/cgi-bin/sis/search/r?dbs+hsdb:@term+@rn+@rel+79-10-7
  18. http://pubchem.ncbi.nlm.nih.gov/vw3d/vw3d.cgi?cid=6581
