17395356
  -OEChem-06241222492D

 53 54  0     1  0  0  0  0  0999 V2000
    7.2532    4.4139    0.0000 S   0  0  0  0  0  0  0  0  0  0  0  0
    3.7320   -3.6739    0.0000 O   0  0  0  0  0  0  0  0  0  0  0  0
    5.4641   -4.6739    0.0000 O   0  0  0  0  0  0  0  0  0  0  0  0
    5.4641    1.3261    0.0000 O   0  0  0  0  0  0  0  0  0  0  0  0
    8.9282    2.3261    0.0000 O   0  0  0  0  0  0  0  0  0  0  0  0
    6.3301   -0.1739    0.0000 N   0  0  0  0  0  0  0  0  0  0  0  0
    7.1962    2.3261    0.0000 N   0  0  0  0  0  0  0  0  0  0  0  0
    5.4641   -0.6739    0.0000 C   0  0  3  0  0  0  0  0  0  0  0  0
    5.4641   -1.6739    0.0000 C   0  0  0  0  0  0  0  0  0  0  0  0
    4.5981   -0.1739    0.0000 C   0  0  0  0  0  0  0  0  0  0  0  0
    4.5981   -2.1739    0.0000 C   0  0  0  0  0  0  0  0  0  0  0  0
    6.3301   -2.1739    0.0000 C   0  0  0  0  0  0  0  0  0  0  0  0
    4.5981   -3.1739    0.0000 C   0  0  0  0  0  0  0  0  0  0  0  0
    5.4641   -3.6739    0.0000 C   0  0  0  0  0  0  0  0  0  0  0  0
    6.3301   -3.1739    0.0000 C   0  0  0  0  0  0  0  0  0  0  0  0
    6.3301    0.8261    0.0000 C   0  0  0  0  0  0  0  0  0  0  0  0
    7.1962    1.3261    0.0000 C   0  0  0  0  0  0  0  0  0  0  0  0
    2.8660   -3.1739    0.0000 C   0  0  0  0  0  0  0  0  0  0  0  0
    6.3301   -5.1739    0.0000 C   0  0  0  0  0  0  0  0  0  0  0  0
    8.0622    2.8261    0.0000 C   0  0  0  0  0  0  0  0  0  0  0  0
    8.0622    3.8261    0.0000 C   0  0  0  0  0  0  0  0  0  0  0  0
    2.0000   -3.6739    0.0000 C   0  0  0  0  0  0  0  0  0  0  0  0
    6.3301   -6.1739    0.0000 C   0  0  0  0  0  0  0  0  0  0  0  0
    8.8712    4.4139    0.0000 C   0  0  0  0  0  0  0  0  0  0  0  0
    7.5622    5.3649    0.0000 C   0  0  0  0  0  0  0  0  0  0  0  0
    8.5622    5.3649    0.0000 C   0  0  0  0  0  0  0  0  0  0  0  0
    6.9744    6.1739    0.0000 C   0  0  0  0  0  0  0  0  0  0  0  0
    5.4641   -0.0539    0.0000 H   0  0  0  0  0  0  0  0  0  0  0  0
    4.9081    0.3630    0.0000 H   0  0  0  0  0  0  0  0  0  0  0  0
    4.0611    0.1361    0.0000 H   0  0  0  0  0  0  0  0  0  0  0  0
    4.2881   -0.7109    0.0000 H   0  0  0  0  0  0  0  0  0  0  0  0
    6.8671   -0.4839    0.0000 H   0  0  0  0  0  0  0  0  0  0  0  0
    4.0611   -1.8639    0.0000 H   0  0  0  0  0  0  0  0  0  0  0  0
    6.8671   -1.8639    0.0000 H   0  0  0  0  0  0  0  0  0  0  0  0
    6.8671   -3.4839    0.0000 H   0  0  0  0  0  0  0  0  0  0  0  0
    7.4082    0.7435    0.0000 H   0  0  0  0  0  0  0  0  0  0  0  0
    7.8067    1.4337    0.0000 H   0  0  0  0  0  0  0  0  0  0  0  0
    6.6592    2.6361    0.0000 H   0  0  0  0  0  0  0  0  0  0  0  0
    3.2646   -2.6990    0.0000 H   0  0  0  0  0  0  0  0  0  0  0  0
    2.4675   -2.6990    0.0000 H   0  0  0  0  0  0  0  0  0  0  0  0
    6.9407   -5.2816    0.0000 H   0  0  0  0  0  0  0  0  0  0  0  0
    6.5422   -4.5913    0.0000 H   0  0  0  0  0  0  0  0  0  0  0  0
    1.6900   -3.1370    0.0000 H   0  0  0  0  0  0  0  0  0  0  0  0
    1.4631   -3.9839    0.0000 H   0  0  0  0  0  0  0  0  0  0  0  0
    2.3100   -4.2109    0.0000 H   0  0  0  0  0  0  0  0  0  0  0  0
    5.7101   -6.1739    0.0000 H   0  0  0  0  0  0  0  0  0  0  0  0
    6.3301   -6.7939    0.0000 H   0  0  0  0  0  0  0  0  0  0  0  0
    6.9501   -6.1739    0.0000 H   0  0  0  0  0  0  0  0  0  0  0  0
    9.4608    4.2223    0.0000 H   0  0  0  0  0  0  0  0  0  0  0  0
    8.9266    5.8665    0.0000 H   0  0  0  0  0  0  0  0  0  0  0  0
    7.4760    6.5384    0.0000 H   0  0  0  0  0  0  0  0  0  0  0  0
    6.6100    6.6755    0.0000 H   0  0  0  0  0  0  0  0  0  0  0  0
    6.4728    5.8095    0.0000 H   0  0  0  0  0  0  0  0  0  0  0  0
  1 21  1  0  0  0  0
  1 25  1  0  0  0  0
  2 13  1  0  0  0  0
  2 18  1  0  0  0  0
  3 14  1  0  0  0  0
  3 19  1  0  0  0  0
  4 16  2  0  0  0  0
  5 20  2  0  0  0  0
  6  8  1  0  0  0  0
  6 16  1  0  0  0  0
  6 32  1  0  0  0  0
  7 17  1  0  0  0  0
  7 20  1  0  0  0  0
  7 38  1  0  0  0  0
  8  9  1  0  0  0  0
  8 10  1  0  0  0  0
  8 28  1  0  0  0  0
  9 11  2  0  0  0  0
  9 12  1  0  0  0  0
 10 29  1  0  0  0  0
 10 30  1  0  0  0  0
 10 31  1  0  0  0  0
 11 13  1  0  0  0  0
 11 33  1  0  0  0  0
 12 15  2  0  0  0  0
 12 34  1  0  0  0  0
 13 14  2  0  0  0  0
 14 15  1  0  0  0  0
 15 35  1  0  0  0  0
 16 17  1  0  0  0  0
 17 36  1  0  0  0  0
 17 37  1  0  0  0  0
 18 22  1  0  0  0  0
 18 39  1  0  0  0  0
 18 40  1  0  0  0  0
 19 23  1  0  0  0  0
 19 41  1  0  0  0  0
 19 42  1  0  0  0  0
 20 21  1  0  0  0  0
 21 24  2  0  0  0  0
 22 43  1  0  0  0  0
 22 44  1  0  0  0  0
 22 45  1  0  0  0  0
 23 46  1  0  0  0  0
 23 47  1  0  0  0  0
 23 48  1  0  0  0  0
 24 26  1  0  0  0  0
 24 49  1  0  0  0  0
 25 26  2  0  0  0  0
 25 27  1  0  0  0  0
 26 50  1  0  0  0  0
 27 51  1  0  0  0  0
 27 52  1  0  0  0  0
 27 53  1  0  0  0  0
M  END
> <PUBCHEM_COMPOUND_CID>
17395356

> <PUBCHEM_COMPOUND_CANONICALIZED>
1

> <PUBCHEM_CACTVS_COMPLEXITY>
491

> <PUBCHEM_CACTVS_HBOND_ACCEPTOR>
5

> <PUBCHEM_CACTVS_HBOND_DONOR>
2

> <PUBCHEM_CACTVS_ROTATABLE_BOND>
9

> <PUBCHEM_CACTVS_SUBSKEYS>
AAADceB7OABAAAAAAAAAAAAAAAAAASAAAAAwAAAAAAAAAAABwAAAHgQQAAAADCzh2AYyB4LABAiMAiFSEACDCIAkKBBIiJmOjMgNZjKktTuWOSrk1hGqqYe42LMOIAABAAAAQABAAAIAAACAAAAAAAAAAA==

> <PUBCHEM_IUPAC_OPENEYE_NAME>
N-[2-[1-(3,4-diethoxyphenyl)ethylamino]-2-oxo-ethyl]-5-methyl-thiophene-2-carboxamide

> <PUBCHEM_IUPAC_CAS_NAME>
N-[2-[1-(3,4-diethoxyphenyl)ethylamino]-2-oxoethyl]-5-methyl-2-thiophenecarboxamide

> <PUBCHEM_IUPAC_NAME>
N-[2-[1-(3,4-diethoxyphenyl)ethylamino]-2-oxoethyl]-5-methylthiophene-2-carboxamide

> <PUBCHEM_IUPAC_SYSTEMATIC_NAME>
N-[2-[1-(3,4-diethoxyphenyl)ethylamino]-2-oxidanylidene-ethyl]-5-methyl-thiophene-2-carboxamide

> <PUBCHEM_IUPAC_TRADITIONAL_NAME>
N-[2-[1-(3,4-diethoxyphenyl)ethylamino]-2-keto-ethyl]-5-methyl-thiophene-2-carboxamide

> <PUBCHEM_IUPAC_INCHI>
InChI=1S/C20H26N2O4S/c1-5-25-16-9-8-15(11-17(16)26-6-2)14(4)22-19(23)12-21-20(24)18-10-7-13(3)27-18/h7-11,14H,5-6,12H2,1-4H3,(H,21,24)(H,22,23)

> <PUBCHEM_IUPAC_INCHIKEY>
BQTNTIOAQHEWMV-UHFFFAOYSA-N

> <PUBCHEM_XLOGP3_AA>
3.5

> <PUBCHEM_EXACT_MASS>
390.161328

> <PUBCHEM_MOLECULAR_FORMULA>
C20H26N2O4S

> <PUBCHEM_MOLECULAR_WEIGHT>
390.49644

> <PUBCHEM_OPENEYE_CAN_SMILES>
CCOC1=C(C=C(C=C1)C(C)NC(=O)CNC(=O)C2=CC=C(S2)C)OCC

> <PUBCHEM_OPENEYE_ISO_SMILES>
CCOC1=C(C=C(C=C1)C(C)NC(=O)CNC(=O)C2=CC=C(S2)C)OCC

> <PUBCHEM_CACTVS_TPSA>
105

> <PUBCHEM_MONOISOTOPIC_WEIGHT>
390.161328

> <PUBCHEM_TOTAL_CHARGE>
0

> <PUBCHEM_HEAVY_ATOM_COUNT>
27

> <PUBCHEM_ATOM_DEF_STEREO_COUNT>
0

> <PUBCHEM_ATOM_UDEF_STEREO_COUNT>
1

> <PUBCHEM_BOND_DEF_STEREO_COUNT>
0

> <PUBCHEM_BOND_UDEF_STEREO_COUNT>
0

> <PUBCHEM_ISOTOPIC_ATOM_COUNT>
0

> <PUBCHEM_COMPONENT_COUNT>
1

> <PUBCHEM_CACTVS_TAUTO_COUNT>
10

> <PUBCHEM_COORDINATE_TYPE>
1
5
255

> <PUBCHEM_BONDANNOTATIONS>
1  21  8
1  25  8
11  13  8
12  15  8
13  14  8
14  15  8
21  24  8
24  26  8
25  26  8
8  10  3
9  11  8
9  12  8

$$$$

