23724698
  -OEChem-07051213082D

 70 73  0     1  0  0  0  0  0999 V2000
    7.7331   -0.5950    0.0000 O   0  0  0  0  0  0  0  0  0  0  0  0
   10.3312   -2.0950    0.0000 O   0  0  0  0  0  0  0  0  0  0  0  0
    8.5991   -3.0950    0.0000 O   0  0  0  0  0  0  0  0  0  0  0  0
    8.5991    0.9050    0.0000 O   0  0  0  0  0  0  0  0  0  0  0  0
   10.3312   -0.0950    0.0000 O   0  0  0  0  0  0  0  0  0  0  0  0
    6.0010   -1.5950    0.0000 O   0  0  0  0  0  0  0  0  0  0  0  0
   10.3312    2.9050    0.0000 O   0  3  0  0  0  0  0  0  0  0  0  0
    9.4651   -3.5950    0.0000 O   0  0  0  0  0  0  0  0  0  0  0  0
    5.1350   -3.0950    0.0000 O   0  0  0  0  0  0  0  0  0  0  0  0
   12.0796   -0.1296    0.0000 O   0  0  0  0  0  0  0  0  0  0  0  0
   12.0632   -5.0950    0.0000 O   0  0  0  0  0  0  0  0  0  0  0  0
   10.3312   -5.0950    0.0000 O   0  0  0  0  0  0  0  0  0  0  0  0
   13.8613    2.9292    0.0000 O   0  0  0  0  0  0  0  0  0  0  0  0
    6.0010    2.4050    0.0000 O   0  0  0  0  0  0  0  0  0  0  0  0
    7.7331    5.4050    0.0000 O   0  0  0  0  0  0  0  0  0  0  0  0
    2.5369   -1.5950    0.0000 O   0  0  0  0  0  0  0  0  0  0  0  0
    6.0010    4.4050    0.0000 O   0  0  0  0  0  0  0  0  0  0  0  0
    3.4030   -3.0950    0.0000 O   0  0  0  0  0  0  0  0  0  0  0  0
    9.4651   -1.5950    0.0000 C   0  0  1  0  0  0  0  0  0  0  0  0
    8.5991   -2.0950    0.0000 C   0  0  1  0  0  0  0  0  0  0  0  0
    7.7331   -1.5950    0.0000 C   0  0  1  0  0  0  0  0  0  0  0  0
    9.4651   -0.5950    0.0000 C   0  0  2  0  0  0  0  0  0  0  0  0
    8.5991   -0.0950    0.0000 C   0  0  1  0  0  0  0  0  0  0  0  0
    6.8671   -2.0950    0.0000 C   0  0  0  0  0  0  0  0  0  0  0  0
    9.4651    1.4050    0.0000 C   0  0  0  0  0  0  0  0  0  0  0  0
   10.3312   -3.0950    0.0000 C   0  0  0  0  0  0  0  0  0  0  0  0
    9.4651    2.4050    0.0000 C   0  0  0  0  0  0  0  0  0  0  0  0
   10.3312    0.9050    0.0000 C   0  0  0  0  0  0  0  0  0  0  0  0
   11.1972   -3.5950    0.0000 C   0  0  0  0  0  0  0  0  0  0  0  0
    5.1350   -2.0950    0.0000 C   0  0  0  0  0  0  0  0  0  0  0  0
   11.1972    1.4050    0.0000 C   0  0  0  0  0  0  0  0  0  0  0  0
    8.5991    2.9050    0.0000 C   0  0  0  0  0  0  0  0  0  0  0  0
   11.1972    2.4050    0.0000 C   0  0  0  0  0  0  0  0  0  0  0  0
    4.2690   -1.5950    0.0000 C   0  0  0  0  0  0  0  0  0  0  0  0
   12.0911    0.8703    0.0000 C   0  0  0  0  0  0  0  0  0  0  0  0
   11.1972   -4.5950    0.0000 C   0  0  0  0  0  0  0  0  0  0  0  0
   12.0911    2.9397    0.0000 C   0  0  0  0  0  0  0  0  0  0  0  0
    8.5991    3.9050    0.0000 C   0  0  0  0  0  0  0  0  0  0  0  0
    7.7331    2.4050    0.0000 C   0  0  0  0  0  0  0  0  0  0  0  0
   12.9972    1.3842    0.0000 C   0  0  0  0  0  0  0  0  0  0  0  0
   12.9972    2.4258    0.0000 C   0  0  0  0  0  0  0  0  0  0  0  0
    6.8671    2.9050    0.0000 C   0  0  0  0  0  0  0  0  0  0  0  0
    7.7331    4.4050    0.0000 C   0  0  0  0  0  0  0  0  0  0  0  0
    3.4030   -2.0950    0.0000 C   0  0  0  0  0  0  0  0  0  0  0  0
    6.8671    3.9050    0.0000 C   0  0  0  0  0  0  0  0  0  0  0  0
   10.0021   -1.2850    0.0000 H   0  0  0  0  0  0  0  0  0  0  0  0
    8.0622   -2.4050    0.0000 H   0  0  0  0  0  0  0  0  0  0  0  0
    7.1962   -1.2850    0.0000 H   0  0  0  0  0  0  0  0  0  0  0  0
   10.0021   -0.9050    0.0000 H   0  0  0  0  0  0  0  0  0  0  0  0
    8.0622    0.2150    0.0000 H   0  0  0  0  0  0  0  0  0  0  0  0
    6.4685   -2.5700    0.0000 H   0  0  0  0  0  0  0  0  0  0  0  0
    7.2656   -2.5700    0.0000 H   0  0  0  0  0  0  0  0  0  0  0  0
    8.0622   -3.4050    0.0000 H   0  0  0  0  0  0  0  0  0  0  0  0
   10.8681   -0.4050    0.0000 H   0  0  0  0  0  0  0  0  0  0  0  0
   10.3312    0.2850    0.0000 H   0  0  0  0  0  0  0  0  0  0  0  0
   11.8078   -3.7027    0.0000 H   0  0  0  0  0  0  0  0  0  0  0  0
   11.4092   -3.0124    0.0000 H   0  0  0  0  0  0  0  0  0  0  0  0
    4.6675   -1.1200    0.0000 H   0  0  0  0  0  0  0  0  0  0  0  0
    3.8705   -1.1200    0.0000 H   0  0  0  0  0  0  0  0  0  0  0  0
   12.0840    3.5596    0.0000 H   0  0  0  0  0  0  0  0  0  0  0  0
    9.1360    4.2150    0.0000 H   0  0  0  0  0  0  0  0  0  0  0  0
    7.7331    1.7850    0.0000 H   0  0  0  0  0  0  0  0  0  0  0  0
   13.5329    1.0721    0.0000 H   0  0  0  0  0  0  0  0  0  0  0  0
   12.6129   -0.4458    0.0000 H   0  0  0  0  0  0  0  0  0  0  0  0
   12.0632   -5.7150    0.0000 H   0  0  0  0  0  0  0  0  0  0  0  0
   14.3994    2.6212    0.0000 H   0  0  0  0  0  0  0  0  0  0  0  0
    5.4641    2.7150    0.0000 H   0  0  0  0  0  0  0  0  0  0  0  0
    8.2700    5.7150    0.0000 H   0  0  0  0  0  0  0  0  0  0  0  0
    2.0000   -1.9050    0.0000 H   0  0  0  0  0  0  0  0  0  0  0  0
    6.0010    5.0250    0.0000 H   0  0  0  0  0  0  0  0  0  0  0  0
  1 21  1  0  0  0  0
  1 23  1  0  0  0  0
 19  2  1  1  0  0  0
  2 26  1  0  0  0  0
 20  3  1  6  0  0  0
  3 53  1  0  0  0  0
 23  4  1  1  0  0  0
  4 25  1  0  0  0  0
 22  5  1  6  0  0  0
  5 54  1  0  0  0  0
  6 24  1  0  0  0  0
  6 30  1  0  0  0  0
  7 27  2  0  0  0  0
  7 33  1  0  0  0  0
  8 26  2  0  0  0  0
  9 30  2  0  0  0  0
 10 35  1  0  0  0  0
 10 64  1  0  0  0  0
 11 36  1  0  0  0  0
 11 65  1  0  0  0  0
 12 36  2  0  0  0  0
 13 41  1  0  0  0  0
 13 66  1  0  0  0  0
 14 42  1  0  0  0  0
 14 67  1  0  0  0  0
 15 43  1  0  0  0  0
 15 68  1  0  0  0  0
 16 44  1  0  0  0  0
 16 69  1  0  0  0  0
 17 45  1  0  0  0  0
 17 70  1  0  0  0  0
 18 44  2  0  0  0  0
 19 20  1  0  0  0  0
 19 22  1  0  0  0  0
 19 46  1  0  0  0  0
 20 21  1  0  0  0  0
 20 47  1  0  0  0  0
 21 24  1  1  0  0  0
 21 48  1  0  0  0  0
 22 23  1  0  0  0  0
 22 49  1  0  0  0  0
 23 50  1  0  0  0  0
 24 51  1  0  0  0  0
 24 52  1  0  0  0  0
 25 27  1  0  0  0  0
 25 28  2  0  0  0  0
 26 29  1  0  0  0  0
 27 32  1  0  0  0  0
 28 31  1  0  0  0  0
 28 55  1  0  0  0  0
 29 36  1  0  0  0  0
 29 56  1  0  0  0  0
 29 57  1  0  0  0  0
 30 34  1  0  0  0  0
 31 33  1  0  0  0  0
 31 35  2  0  0  0  0
 32 38  2  0  0  0  0
 32 39  1  0  0  0  0
 33 37  2  0  0  0  0
 34 44  1  0  0  0  0
 34 58  1  0  0  0  0
 34 59  1  0  0  0  0
 35 40  1  0  0  0  0
 37 41  1  0  0  0  0
 37 60  1  0  0  0  0
 38 43  1  0  0  0  0
 38 61  1  0  0  0  0
 39 42  2  0  0  0  0
 39 62  1  0  0  0  0
 40 41  2  0  0  0  0
 40 63  1  0  0  0  0
 42 45  1  0  0  0  0
 43 45  2  0  0  0  0
M  CHG  1   7   1
M  END
> <PUBCHEM_COMPOUND_CID>
23724698

> <PUBCHEM_COMPOUND_CANONICALIZED>
1

> <PUBCHEM_CACTVS_COMPLEXITY>
1060

> <PUBCHEM_CACTVS_HBOND_ACCEPTOR>
17

> <PUBCHEM_CACTVS_HBOND_DONOR>
9

> <PUBCHEM_CACTVS_ROTATABLE_BOND>
12

> <PUBCHEM_CACTVS_SUBSKEYS>
AAADceB4PgAAAAAAAAAAAAAAAAAAAAAAAAA0aIEAAAAAAACR9AAAGgAACAAADBSwmAMwDsAABkCIAqDSCAICCAAkIAAAiAFGiMgdNzaONR6ieWOl4BUPuYfK7PzOIAABCAAIQABAAAIQABCAAAAAAAAAAA==

> <PUBCHEM_IUPAC_OPENEYE_NAME>
3-[[(2R,3R,4S,5R,6S)-4-(2-carboxyacetyl)oxy-6-[5,7-dihydroxy-2-(3,4,5-trihydroxyphenyl)chromenylium-3-yl]oxy-3,5-dihydroxy-tetrahydropyran-2-yl]methoxy]-3-oxo-propanoic acid

> <PUBCHEM_IUPAC_CAS_NAME>
3-[[(2R,3R,4S,5R,6S)-4-(2-carboxy-1-oxoethoxy)-6-[[5,7-dihydroxy-2-(3,4,5-trihydroxyphenyl)-1-benzopyrylium-3-yl]oxy]-3,5-dihydroxy-2-oxanyl]methoxy]-3-oxopropanoic acid

> <PUBCHEM_IUPAC_NAME>
3-[[(2R,3R,4S,5R,6S)-4-(2-carboxyacetyl)oxy-6-[5,7-dihydroxy-2-(3,4,5-trihydroxyphenyl)chromenylium-3-yl]oxy-3,5-dihydroxyoxan-2-yl]methoxy]-3-oxopropanoic acid

> <PUBCHEM_IUPAC_SYSTEMATIC_NAME>
3-[[(2R,3R,4S,5R,6S)-6-[5,7-bis(oxidanyl)-2-[3,4,5-tris(oxidanyl)phenyl]chromenylium-3-yl]oxy-3,5-bis(oxidanyl)-4-(3-oxidanyl-3-oxidanylidene-propanoyl)oxy-oxan-2-yl]methoxy]-3-oxidanylidene-propanoic acid

> <PUBCHEM_IUPAC_TRADITIONAL_NAME>
3-[[(2R,3R,4S,5R,6S)-4-(2-carboxyacetyl)oxy-6-[[5,7-dihydroxy-2-(3,4,5-trihydroxyphenyl)-1-benzopyrylium-3-yl]oxy]-3,5-dihydroxy-tetrahydropyran-2-yl]methoxy]-3-keto-propionic acid

> <PUBCHEM_IUPAC_INCHI>
InChI=1S/C27H24O18/c28-10-3-12(29)11-5-16(25(42-15(11)4-10)9-1-13(30)22(38)14(31)2-9)43-27-24(40)26(45-21(37)7-19(34)35)23(39)17(44-27)8-41-20(36)6-18(32)33/h1-5,17,23-24,26-27,39-40H,6-8H2,(H6-,28,29,30,31,32,33,34,35,38)/p+1/t17-,23-,24-,26+,27-/m1/s1

> <PUBCHEM_IUPAC_INCHIKEY>
VXCZGIIAIJXTMN-WETICWMGSA-O

> <PUBCHEM_EXACT_MASS>
637.104089

> <PUBCHEM_MOLECULAR_FORMULA>
C27H25O18+

> <PUBCHEM_MOLECULAR_WEIGHT>
637.4766

> <PUBCHEM_OPENEYE_CAN_SMILES>
C1=C(C=C(C(=C1O)O)O)C2=C(C=C3C(=CC(=CC3=[O+]2)O)O)OC4C(C(C(C(O4)COC(=O)CC(=O)O)O)OC(=O)CC(=O)O)O

> <PUBCHEM_OPENEYE_ISO_SMILES>
C1=C(C=C(C(=C1O)O)O)C2=C(C=C3C(=CC(=CC3=[O+]2)O)O)O[C@H]4[C@@H]([C@H]([C@@H]([C@H](O4)COC(=O)CC(=O)O)O)OC(=O)CC(=O)O)O

> <PUBCHEM_CACTVS_TPSA>
288

> <PUBCHEM_MONOISOTOPIC_WEIGHT>
637.104089

> <PUBCHEM_TOTAL_CHARGE>
1

> <PUBCHEM_HEAVY_ATOM_COUNT>
45

> <PUBCHEM_ATOM_DEF_STEREO_COUNT>
5

> <PUBCHEM_ATOM_UDEF_STEREO_COUNT>
0

> <PUBCHEM_BOND_DEF_STEREO_COUNT>
0

> <PUBCHEM_BOND_UDEF_STEREO_COUNT>
0

> <PUBCHEM_ISOTOPIC_ATOM_COUNT>
0

> <PUBCHEM_COMPONENT_COUNT>
1

> <PUBCHEM_CACTVS_TAUTO_COUNT>
217

> <PUBCHEM_COORDINATE_TYPE>
1
5
255

> <PUBCHEM_BONDANNOTATIONS>
19  2  5
21  24  5
25  27  8
25  28  8
28  31  8
20  3  6
31  33  8
31  35  8
32  38  8
32  39  8
33  37  8
35  40  8
37  41  8
38  43  8
39  42  8
23  4  5
40  41  8
42  45  8
43  45  8
22  5  6
7  27  8
7  33  8

$$$$

