   Color/Form
        MONOCLINIC PRISMS FROM ALCOHOL + CHLOROFORM
   from [1]HSDB

   Melting Point
        208 DEG C
   from [2]HSDB

   Density/Specific Gravity
        1.399
   from [3]HSDB

   Solubilities
        SOLUBLE IN 15 PARTS CHLOROFORM, 900 PARTS ALCOHOL, 1000 PARTS
   ETHER; SLIGHTLY SOLUBLE IN ETHYL ACETATE, CARBON DISULFIDE, BENZENE,
   PETROLEUM ETHER; PRACTICALLY INSOLUBLE IN WATER
   from [4]HSDB

   Spectral Properties

     * MAXIMUM ABSORPTION (95% ETHANOL): 293 NM (LOG E= 3.93)
     * MAXIMUM ABSORPTION (95% ETHANOL): 290 NM (LOG E= 4.0)
     * UV: 6-873 (Organic Electronic Spectral Data, Phillips et al, John
       Wiley & Sons, New York)
     * NMR: 339 (Varian Associates NMR Spectra Catalogue)

   from [5]HSDB

   Other Chemical/Physical Properties

     * DECOMPOSES AT 217 DEG C /METHIODIDE/
     * NEEDLES FROM WATER /HEXAHYDRATE/
     * TWINNED CRYSTALS FROM METHANOL /METHIODIDE/

   from [6]HSDB

   Computed Properties
   Molecular Weight                  353.36856 [g/mol]
   Molecular Formula                 C[20]H[19]NO[5]
   XLogP3-AA                         2.8
   H-Bond Donor                      0
   H-Bond Acceptor                   6
   Rotatable Bond Count              0
   Tautomer Count                    2
   Exact Mass                        353.126323
   MonoIsotopic Mass                 353.126323
   Topological Polar Surface Area    57.2
   Heavy Atom Count                  26
   Formal Charge                     0
   Complexity                        542
   Isotope Atom Count                0
   Defined Atom Stereocenter Count   0
   Undefined Atom Stereocenter Count 0
   Defined Bond Stereocenter Count   0
   Undefined Bond Stereocenter Count 0
   Covalently-Bonded Unit Count      1
   Feature 3D Acceptor Count         5
   Feature 3D Cation Count           1
   Feature 3D Ring Count             4
   Effective Rotor Count             2.2
   Conformer Sampling RMSD           0.6
   CID Conformer Count               [7]17

References

   1. http://toxnet.nlm.nih.gov/cgi-bin/sis/search/r?dbs+hsdb:@term+@rn+@rel+130-86-9
   2. http://toxnet.nlm.nih.gov/cgi-bin/sis/search/r?dbs+hsdb:@term+@rn+@rel+130-86-9
   3. http://toxnet.nlm.nih.gov/cgi-bin/sis/search/r?dbs+hsdb:@term+@rn+@rel+130-86-9
   4. http://toxnet.nlm.nih.gov/cgi-bin/sis/search/r?dbs+hsdb:@term+@rn+@rel+130-86-9
   5. http://toxnet.nlm.nih.gov/cgi-bin/sis/search/r?dbs+hsdb:@term+@rn+@rel+130-86-9
   6. http://toxnet.nlm.nih.gov/cgi-bin/sis/search/r?dbs+hsdb:@term+@rn+@rel+130-86-9
   7. http://pubchem.ncbi.nlm.nih.gov/vw3d/vw3d.cgi?cid=4970
