   Color/Form

     * WHITE CRYSTALLINE SOLID
     * CRYSTALS FROM PETROLEUM ETHER
     * Colorless
     * White, crystalline solid in pure form [Note: Commercial product is
       a yellow oil].

   from [1]HSDB

   Boiling Point
        117-118 deg C at 0.01 mm Hg
   from [2]HSDB

   Melting Point
        60-60.5 DEG C
   from [3]HSDB

   Density/Specific Gravity
        1.1618 @ 70 DEG C/4 DEG C
   from [4]HSDB

   Solubilities

     * PRACTICALLY INSOLUBLE IN LIGHT PETROLEUM, WATER; SOL IN ACETONE,
       BENZENE, CARBON TETRACHLORIDE; SOL UB ACETONE, BENZENE, CARBON
       TETRACHLORIDE
     * READILY SOL IN ACETONITRILE
     * SOL IN ETHYL ETHER, METHANOL, CYCLOHEXANE
     * Soluble in alcohol

   from [5]HSDB

   Vapor Pressure
        0.01 MM HG AT 117 DEG C
   from [6]HSDB

   Other Chemical/Physical Properties

     * BOILING POINT: 117-118 DEG C @ 0.01 MM HG; INDEX OF REFRACTION:
       1.5142 @ 20 DEG C/D /TECHNICAL PRODUCT/
     * YELLOW OIL /COMMERCIAL RUELENE/

   from [7]HSDB

   Computed Properties
   Molecular Weight                  291.710922 [g/mol]
   Molecular Formula                 C[12]H[19]ClNO[3]P
   XLogP3                            3.4
   H-Bond Donor                      1
   H-Bond Acceptor                   4
   Rotatable Bond Count              5
   Tautomer Count                    2
   Exact Mass                        291.079108
   MonoIsotopic Mass                 291.079108
   Topological Polar Surface Area    47.6
   Heavy Atom Count                  18
   Formal Charge                     0
   Complexity                        319
   Isotope Atom Count                0
   Defined Atom Stereocenter Count   0
   Undefined Atom Stereocenter Count 1
   Defined Bond Stereocenter Count   0
   Undefined Bond Stereocenter Count 0
   Covalently-Bonded Unit Count      1
   Feature 3D Acceptor Count         1
   Feature 3D Hydrophobe Count       1
   Feature 3D Ring Count             1
   Effective Rotor Count             5
   Conformer Sampling RMSD           0.6
   CID Conformer Count               [8]81

References

   1. http://toxnet.nlm.nih.gov/cgi-bin/sis/search/r?dbs+hsdb:@term+@rn+@rel+299-86-5
   2. http://toxnet.nlm.nih.gov/cgi-bin/sis/search/r?dbs+hsdb:@term+@rn+@rel+299-86-5
   3. http://toxnet.nlm.nih.gov/cgi-bin/sis/search/r?dbs+hsdb:@term+@rn+@rel+299-86-5
   4. http://toxnet.nlm.nih.gov/cgi-bin/sis/search/r?dbs+hsdb:@term+@rn+@rel+299-86-5
   5. http://toxnet.nlm.nih.gov/cgi-bin/sis/search/r?dbs+hsdb:@term+@rn+@rel+299-86-5
   6. http://toxnet.nlm.nih.gov/cgi-bin/sis/search/r?dbs+hsdb:@term+@rn+@rel+299-86-5
   7. http://toxnet.nlm.nih.gov/cgi-bin/sis/search/r?dbs+hsdb:@term+@rn+@rel+299-86-5
   8. http://pubchem.ncbi.nlm.nih.gov/vw3d/vw3d.cgi?cid=9300
