440286
  -OEChem-07051212492D

 40 41  0     1  0  0  0  0  0999 V2000
    8.1226    1.8152    0.0000 O   0  0  0  0  0  0  0  0  0  0  0  0
    6.4763    2.3533    0.0000 O   0  0  0  0  0  0  0  0  0  0  0  0
    5.5443   -2.1077    0.0000 N   0  0  0  0  0  0  0  0  0  0  0  0
    7.5013   -0.0858    0.0000 N   0  0  0  0  0  0  0  0  0  0  0  0
    4.5981   -0.8030    0.0000 C   0  0  0  0  0  0  0  0  0  0  0  0
    5.5443   -0.4982    0.0000 C   0  0  0  0  0  0  0  0  0  0  0  0
    5.8550    0.4523    0.0000 C   0  0  0  0  0  0  0  0  0  0  0  0
    4.5981   -1.8030    0.0000 C   0  0  0  0  0  0  0  0  0  0  0  0
    3.7320   -0.3030    0.0000 C   0  0  0  0  0  0  0  0  0  0  0  0
    6.1279   -1.3030    0.0000 C   0  0  0  0  0  0  0  0  0  0  0  0
    6.8335    0.6585    0.0000 C   0  0  1  0  0  0  0  0  0  0  0  0
    3.7320    0.6970    0.0000 C   0  0  0  0  0  0  0  0  0  0  0  0
    3.7320   -2.3030    0.0000 C   0  0  0  0  0  0  0  0  0  0  0  0
    2.8660   -0.8030    0.0000 C   0  0  0  0  0  0  0  0  0  0  0  0
    2.8660   -1.8030    0.0000 C   0  0  0  0  0  0  0  0  0  0  0  0
    2.8660    1.1970    0.0000 C   0  0  0  0  0  0  0  0  0  0  0  0
    7.1441    1.6090    0.0000 C   0  0  0  0  0  0  0  0  0  0  0  0
    2.8660    2.1970    0.0000 C   0  0  0  0  0  0  0  0  0  0  0  0
    2.0000    2.6970    0.0000 C   0  0  0  0  0  0  0  0  0  0  0  0
    3.7320    2.6970    0.0000 C   0  0  0  0  0  0  0  0  0  0  0  0
    5.8344    1.0719    0.0000 H   0  0  0  0  0  0  0  0  0  0  0  0
    5.2411    0.5396    0.0000 H   0  0  0  0  0  0  0  0  0  0  0  0
    6.7479   -1.3030    0.0000 H   0  0  0  0  0  0  0  0  0  0  0  0
    6.6408    0.0692    0.0000 H   0  0  0  0  0  0  0  0  0  0  0  0
    5.7369   -2.6970    0.0000 H   0  0  0  0  0  0  0  0  0  0  0  0
    4.3426    0.5894    0.0000 H   0  0  0  0  0  0  0  0  0  0  0  0
    3.9441    1.2796    0.0000 H   0  0  0  0  0  0  0  0  0  0  0  0
    3.7320   -2.9230    0.0000 H   0  0  0  0  0  0  0  0  0  0  0  0
    2.3291   -0.4930    0.0000 H   0  0  0  0  0  0  0  0  0  0  0  0
    2.3291   -2.1130    0.0000 H   0  0  0  0  0  0  0  0  0  0  0  0
    2.3291    0.8870    0.0000 H   0  0  0  0  0  0  0  0  0  0  0  0
    8.1080    0.0421    0.0000 H   0  0  0  0  0  0  0  0  0  0  0  0
    7.3087   -0.6751    0.0000 H   0  0  0  0  0  0  0  0  0  0  0  0
    2.3100    3.2340    0.0000 H   0  0  0  0  0  0  0  0  0  0  0  0
    4.0420    2.1601    0.0000 H   0  0  0  0  0  0  0  0  0  0  0  0
    4.2690    3.0070    0.0000 H   0  0  0  0  0  0  0  0  0  0  0  0
    3.4220    3.2340    0.0000 H   0  0  0  0  0  0  0  0  0  0  0  0
    1.4631    3.0070    0.0000 H   0  0  0  0  0  0  0  0  0  0  0  0
    1.6900    2.1601    0.0000 H   0  0  0  0  0  0  0  0  0  0  0  0
    8.3152    2.4046    0.0000 H   0  0  0  0  0  0  0  0  0  0  0  0
  1 17  1  0  0  0  0
  1 40  1  0  0  0  0
  2 17  2  0  0  0  0
  3  8  1  0  0  0  0
  3 10  1  0  0  0  0
  3 25  1  0  0  0  0
 11  4  1  1  0  0  0
  4 32  1  0  0  0  0
  4 33  1  0  0  0  0
  5  6  1  0  0  0  0
  5  8  1  0  0  0  0
  5  9  2  0  0  0  0
  6  7  1  0  0  0  0
  6 10  2  0  0  0  0
  7 11  1  0  0  0  0
  7 21  1  0  0  0  0
  7 22  1  0  0  0  0
  8 13  2  0  0  0  0
  9 12  1  0  0  0  0
  9 14  1  0  0  0  0
 10 23  1  0  0  0  0
 11 17  1  0  0  0  0
 11 24  1  0  0  0  0
 12 16  1  0  0  0  0
 12 26  1  0  0  0  0
 12 27  1  0  0  0  0
 13 15  1  0  0  0  0
 13 28  1  0  0  0  0
 14 15  2  0  0  0  0
 14 29  1  0  0  0  0
 15 30  1  0  0  0  0
 16 18  2  0  0  0  0
 16 31  1  0  0  0  0
 18 19  1  0  0  0  0
 18 20  1  0  0  0  0
 19 34  1  0  0  0  0
 19 38  1  0  0  0  0
 19 39  1  0  0  0  0
 20 35  1  0  0  0  0
 20 36  1  0  0  0  0
 20 37  1  0  0  0  0
M  END
> <PUBCHEM_COMPOUND_CID>
440286

> <PUBCHEM_COMPOUND_CANONICALIZED>
1

> <PUBCHEM_CACTVS_COMPLEXITY>
377

> <PUBCHEM_CACTVS_HBOND_ACCEPTOR>
3

> <PUBCHEM_CACTVS_HBOND_DONOR>
3

> <PUBCHEM_CACTVS_ROTATABLE_BOND>
5

> <PUBCHEM_CACTVS_SUBSKEYS>
AAADceB7MAAAAAAAAAAAAAAAAAAAAWAAAAAwAAAAAAAAAFgB8AAAHgAQCAAADCjBngQ+yPLJkgCoAzT3TACCgCAxAiAI2aG4ZJgKIPLAkZGEYAhkkADIyAeY2fKOgAAAQAASAAAAAACAACQAAAAAAAAAAA==

> <PUBCHEM_IUPAC_OPENEYE_NAME>
(2S)-2-amino-3-[4-(3-methylbut-2-enyl)-1H-indol-3-yl]propanoic acid

> <PUBCHEM_IUPAC_CAS_NAME>
(2S)-2-amino-3-[4-(3-methylbut-2-enyl)-1H-indol-3-yl]propanoic acid

> <PUBCHEM_IUPAC_NAME>
(2S)-2-amino-3-[4-(3-methylbut-2-enyl)-1H-indol-3-yl]propanoic acid

> <PUBCHEM_IUPAC_SYSTEMATIC_NAME>
(2S)-2-azanyl-3-[4-(3-methylbut-2-enyl)-1H-indol-3-yl]propanoic acid

> <PUBCHEM_IUPAC_TRADITIONAL_NAME>
(2S)-2-amino-3-[4-(3-methylbut-2-enyl)-1H-indol-3-yl]propionic acid

> <PUBCHEM_IUPAC_INCHI>
InChI=1S/C16H20N2O2/c1-10(2)6-7-11-4-3-5-14-15(11)12(9-18-14)8-13(17)16(19)20/h3-6,9,13,18H,7-8,17H2,1-2H3,(H,19,20)/t13-/m0/s1

> <PUBCHEM_IUPAC_INCHIKEY>
MZSPRSJAOSKAAT-ZDUSSCGKSA-N

> <PUBCHEM_XLOGP3>
0.9

> <PUBCHEM_EXACT_MASS>
272.152478

> <PUBCHEM_MOLECULAR_FORMULA>
C16H20N2O2

> <PUBCHEM_MOLECULAR_WEIGHT>
272.3422

> <PUBCHEM_OPENEYE_CAN_SMILES>
CC(=CCC1=C2C(=CC=C1)NC=C2CC(C(=O)O)N)C

> <PUBCHEM_OPENEYE_ISO_SMILES>
CC(=CCC1=C2C(=CC=C1)NC=C2C[C@@H](C(=O)O)N)C

> <PUBCHEM_CACTVS_TPSA>
79.1

> <PUBCHEM_MONOISOTOPIC_WEIGHT>
272.152478

> <PUBCHEM_TOTAL_CHARGE>
0

> <PUBCHEM_HEAVY_ATOM_COUNT>
20

> <PUBCHEM_ATOM_DEF_STEREO_COUNT>
1

> <PUBCHEM_ATOM_UDEF_STEREO_COUNT>
0

> <PUBCHEM_BOND_DEF_STEREO_COUNT>
0

> <PUBCHEM_BOND_UDEF_STEREO_COUNT>
0

> <PUBCHEM_ISOTOPIC_ATOM_COUNT>
0

> <PUBCHEM_COMPONENT_COUNT>
1

> <PUBCHEM_CACTVS_TAUTO_COUNT>
1

> <PUBCHEM_COORDINATE_TYPE>
1
5
255

> <PUBCHEM_BONDANNOTATIONS>
13  15  8
14  15  8
3  10  8
3  8  8
11  4  5
5  6  8
5  8  8
5  9  8
6  10  8
8  13  8
9  14  8

$$$$

