   Color/Form
        STERNUTATIVE CRYSTALS FROM BENZENE
   from [1]HSDB

   Taste
        BITTER
   from [2]HSDB

   Melting Point
        167-168 DEG C
   from [3]HSDB

   Solubilities
        SLIGHTLY SOL IN WATER; SOL IN ALCOHOL, CHLOROFORM, HOT BENZENE
   from [4]HSDB

   Spectral Properties
        MAX ABSORPTION: 223 NM (E= 11,900); SPECIFIC OPTICAL ROTATION (C=
   3.64 IN 95% ETHANOL): -102.8 DEG @ 25 DEG C/D
   from [5]HSDB

   Computed Properties
   Molecular Weight                  262.30102 [g/mol]
   Molecular Formula                 C[15]H[18]O[4]
   XLogP3-AA                         1.4
   H-Bond Donor                      1
   H-Bond Acceptor                   4
   Rotatable Bond Count              0
   Tautomer Count                    3
   Exact Mass                        262.120509
   MonoIsotopic Mass                 262.120509
   Topological Polar Surface Area    63.6
   Heavy Atom Count                  19
   Formal Charge                     0
   Complexity                        506
   Isotope Atom Count                0
   Defined Atom Stereocenter Count   6
   Undefined Atom Stereocenter Count 0
   Defined Bond Stereocenter Count   0
   Undefined Bond Stereocenter Count 0
   Covalently-Bonded Unit Count      1
   Feature 3D Acceptor Count         3
   Feature 3D Donor Count            1
   Feature 3D Ring Count             3
   Effective Rotor Count             0.8
   Conformer Sampling RMSD           0.6
   CID Conformer Count               [6]3

References

   1. http://toxnet.nlm.nih.gov/cgi-bin/sis/search/r?dbs+hsdb:@term+@rn+@rel+6754-13-8
   2. http://toxnet.nlm.nih.gov/cgi-bin/sis/search/r?dbs+hsdb:@term+@rn+@rel+6754-13-8
   3. http://toxnet.nlm.nih.gov/cgi-bin/sis/search/r?dbs+hsdb:@term+@rn+@rel+6754-13-8
   4. http://toxnet.nlm.nih.gov/cgi-bin/sis/search/r?dbs+hsdb:@term+@rn+@rel+6754-13-8
   5. http://toxnet.nlm.nih.gov/cgi-bin/sis/search/r?dbs+hsdb:@term+@rn+@rel+6754-13-8
   6. http://pubchem.ncbi.nlm.nih.gov/vw3d/vw3d.cgi?cid=23205
