47205633
  -OEChem-06241222592D

 31 32  0     0  0  0  0  0  0999 V2000
    6.3301   -4.0202    0.0000 Br  0  0  0  0  0  0  0  0  0  0  0  0
    2.8660   -2.0202    0.0000 O   0  0  0  0  0  0  0  0  0  0  0  0
    4.5981    0.9798    0.0000 O   0  0  0  0  0  0  0  0  0  0  0  0
    6.3301    0.9798    0.0000 N   0  0  0  0  0  0  0  0  0  0  0  0
    5.8301    3.5186    0.0000 N   0  0  0  0  0  0  0  0  0  0  0  0
    6.8301    3.5186    0.0000 N   0  0  0  0  0  0  0  0  0  0  0  0
    4.5981   -2.0202    0.0000 C   0  0  0  0  0  0  0  0  0  0  0  0
    3.7320   -2.5202    0.0000 C   0  0  0  0  0  0  0  0  0  0  0  0
    5.4641   -2.5202    0.0000 C   0  0  0  0  0  0  0  0  0  0  0  0
    4.5981   -1.0202    0.0000 C   0  0  0  0  0  0  0  0  0  0  0  0
    3.7320   -3.5202    0.0000 C   0  0  0  0  0  0  0  0  0  0  0  0
    6.3301    1.9798    0.0000 C   0  0  0  0  0  0  0  0  0  0  0  0
    5.4641   -3.5202    0.0000 C   0  0  0  0  0  0  0  0  0  0  0  0
    4.5981   -4.0202    0.0000 C   0  0  0  0  0  0  0  0  0  0  0  0
    5.4641   -0.5202    0.0000 C   0  0  0  0  0  0  0  0  0  0  0  0
    5.4641    0.4798    0.0000 C   0  0  0  0  0  0  0  0  0  0  0  0
    5.5211    2.5676    0.0000 C   0  0  0  0  0  0  0  0  0  0  0  0
    7.1391    2.5676    0.0000 C   0  0  0  0  0  0  0  0  0  0  0  0
    2.0000   -2.5202    0.0000 C   0  0  0  0  0  0  0  0  0  0  0  0
    6.0010   -2.2102    0.0000 H   0  0  0  0  0  0  0  0  0  0  0  0
    4.0611   -0.7102    0.0000 H   0  0  0  0  0  0  0  0  0  0  0  0
    3.1951   -3.8302    0.0000 H   0  0  0  0  0  0  0  0  0  0  0  0
    4.5981   -4.6402    0.0000 H   0  0  0  0  0  0  0  0  0  0  0  0
    6.0010   -0.8302    0.0000 H   0  0  0  0  0  0  0  0  0  0  0  0
    6.8671    0.6698    0.0000 H   0  0  0  0  0  0  0  0  0  0  0  0
    4.9315    2.3760    0.0000 H   0  0  0  0  0  0  0  0  0  0  0  0
    7.7288    2.3760    0.0000 H   0  0  0  0  0  0  0  0  0  0  0  0
    5.4657    4.0202    0.0000 H   0  0  0  0  0  0  0  0  0  0  0  0
    1.6900   -1.9833    0.0000 H   0  0  0  0  0  0  0  0  0  0  0  0
    1.4631   -2.8302    0.0000 H   0  0  0  0  0  0  0  0  0  0  0  0
    2.3100   -3.0572    0.0000 H   0  0  0  0  0  0  0  0  0  0  0  0
  1 13  1  0  0  0  0
  2  8  1  0  0  0  0
  2 19  1  0  0  0  0
  3 16  2  0  0  0  0
  4 12  1  0  0  0  0
  4 16  1  0  0  0  0
  4 25  1  0  0  0  0
  5  6  1  0  0  0  0
  5 17  1  0  0  0  0
  5 28  1  0  0  0  0
  6 18  2  0  0  0  0
  7  8  2  0  0  0  0
  7  9  1  0  0  0  0
  7 10  1  0  0  0  0
  8 11  1  0  0  0  0
  9 13  2  0  0  0  0
  9 20  1  0  0  0  0
 10 15  2  3  0  0  0
 10 21  1  0  0  0  0
 11 14  2  0  0  0  0
 11 22  1  0  0  0  0
 12 17  2  0  0  0  0
 12 18  1  0  0  0  0
 13 14  1  0  0  0  0
 14 23  1  0  0  0  0
 15 16  1  0  0  0  0
 15 24  1  0  0  0  0
 17 26  1  0  0  0  0
 18 27  1  0  0  0  0
 19 29  1  0  0  0  0
 19 30  1  0  0  0  0
 19 31  1  0  0  0  0
M  END
> <PUBCHEM_COMPOUND_CID>
47205633

> <PUBCHEM_COMPOUND_CANONICALIZED>
1

> <PUBCHEM_CACTVS_COMPLEXITY>
338

> <PUBCHEM_CACTVS_HBOND_ACCEPTOR>
3

> <PUBCHEM_CACTVS_HBOND_DONOR>
2

> <PUBCHEM_CACTVS_ROTATABLE_BOND>
4

> <PUBCHEM_CACTVS_SUBSKEYS>
AAADccBzMAAAEAAAAAAAAAAAAAAAAWAAAAAwAAAAAAAAAAABwAAAHgBYAAABrAzBmgY+xpLjBACqAjV3UACSDAAhsgQYuaAmfPgMZqKEcVqQtCAk3BGIq5eAwCAOABAAEAAIAAAAIAAgABAAAAAAAAAAAA==

> <PUBCHEM_IUPAC_OPENEYE_NAME>
3-(5-bromo-2-methoxy-phenyl)-N-(1H-pyrazol-4-yl)prop-2-enamide

> <PUBCHEM_IUPAC_CAS_NAME>
3-(5-bromo-2-methoxyphenyl)-N-(1H-pyrazol-4-yl)-2-propenamide

> <PUBCHEM_IUPAC_NAME>
3-(5-bromo-2-methoxyphenyl)-N-(1H-pyrazol-4-yl)prop-2-enamide

> <PUBCHEM_IUPAC_SYSTEMATIC_NAME>
3-(5-bromanyl-2-methoxy-phenyl)-N-(1H-pyrazol-4-yl)prop-2-enamide

> <PUBCHEM_IUPAC_TRADITIONAL_NAME>
3-(5-bromo-2-methoxy-phenyl)-N-(1H-pyrazol-4-yl)acrylamide

> <PUBCHEM_IUPAC_INCHI>
InChI=1S/C13H12BrN3O2/c1-19-12-4-3-10(14)6-9(12)2-5-13(18)17-11-7-15-16-8-11/h2-8H,1H3,(H,15,16)(H,17,18)

> <PUBCHEM_IUPAC_INCHIKEY>
ZVLOCKJQUHKFTA-UHFFFAOYSA-N

> <PUBCHEM_XLOGP3_AA>
2.1

> <PUBCHEM_EXACT_MASS>
321.011289

> <PUBCHEM_MOLECULAR_FORMULA>
C13H12BrN3O2

> <PUBCHEM_MOLECULAR_WEIGHT>
322.15728

> <PUBCHEM_OPENEYE_CAN_SMILES>
COC1=C(C=C(C=C1)Br)C=CC(=O)NC2=CNN=C2

> <PUBCHEM_OPENEYE_ISO_SMILES>
COC1=C(C=C(C=C1)Br)C=CC(=O)NC2=CNN=C2

> <PUBCHEM_CACTVS_TPSA>
67

> <PUBCHEM_MONOISOTOPIC_WEIGHT>
321.011289

> <PUBCHEM_TOTAL_CHARGE>
0

> <PUBCHEM_HEAVY_ATOM_COUNT>
19

> <PUBCHEM_ATOM_DEF_STEREO_COUNT>
0

> <PUBCHEM_ATOM_UDEF_STEREO_COUNT>
0

> <PUBCHEM_BOND_DEF_STEREO_COUNT>
0

> <PUBCHEM_BOND_UDEF_STEREO_COUNT>
1

> <PUBCHEM_ISOTOPIC_ATOM_COUNT>
0

> <PUBCHEM_COMPONENT_COUNT>
1

> <PUBCHEM_CACTVS_TAUTO_COUNT>
4

> <PUBCHEM_COORDINATE_TYPE>
1
5
255

> <PUBCHEM_BONDANNOTATIONS>
10  15  1
11  14  8
12  17  8
12  18  8
13  14  8
5  17  8
5  6  8
6  18  8
7  8  8
7  9  8
8  11  8
9  13  8

$$$$

