439446
  -OEChem-07051212452D

 61 64  0     1  0  0  0  0  0999 V2000
    9.8781    1.2658    0.0000 P   0  0  3  0  0  0  0  0  0  0  0  0
   11.6010    1.4439    0.0000 P   0  0  3  0  0  0  0  0  0  0  0  0
    7.3435   -0.4987    0.0000 O   0  0  0  0  0  0  0  0  0  0  0  0
    4.8055    0.0057    0.0000 O   0  0  0  0  0  0  0  0  0  0  0  0
    6.0873    1.7636    0.0000 O   0  0  0  0  0  0  0  0  0  0  0  0
    9.0681    0.6794    0.0000 O   0  0  0  0  0  0  0  0  0  0  0  0
   14.2367    1.2136    0.0000 O   0  0  0  0  0  0  0  0  0  0  0  0
   12.5138    1.0356    0.0000 O   0  0  0  0  0  0  0  0  0  0  0  0
   10.6882    1.8522    0.0000 O   0  0  0  0  0  0  0  0  0  0  0  0
   12.3082    3.0250    0.0000 O   0  0  0  0  0  0  0  0  0  0  0  0
   13.9283    4.1977    0.0000 O   0  0  0  0  0  0  0  0  0  0  0  0
   10.4645    0.4558    0.0000 O   0  0  0  0  0  0  0  0  0  0  0  0
   15.7540    3.3811    0.0000 O   0  0  0  0  0  0  0  0  0  0  0  0
    9.2917    2.0758    0.0000 O   0  0  0  0  0  0  0  0  0  0  0  0
   12.0093    2.3567    0.0000 O   0  0  0  0  0  0  0  0  0  0  0  0
    4.2690   -4.5613    0.0000 O   0  0  0  0  0  0  0  0  0  0  0  0
   11.1927    0.5310    0.0000 O   0  0  0  0  0  0  0  0  0  0  0  0
    6.0812   -1.7565    0.0000 N   0  0  0  0  0  0  0  0  0  0  0  0
    4.2690   -1.5613    0.0000 N   0  0  0  0  0  0  0  0  0  0  0  0
    6.0812   -3.3660    0.0000 N   0  0  0  0  0  0  0  0  0  0  0  0
    3.4030   -3.0613    0.0000 N   0  0  0  0  0  0  0  0  0  0  0  0
    2.5369   -1.5613    0.0000 N   0  0  0  0  0  0  0  0  0  0  0  0
    5.8055    0.0040    0.0000 C   0  0  2  0  0  0  0  0  0  0  0  0
    6.3947    0.8120    0.0000 C   0  0  1  0  0  0  0  0  0  0  0  0
    6.3919   -0.8060    0.0000 C   0  0  1  0  0  0  0  0  0  0  0  0
    7.3452    0.5013    0.0000 C   0  0  1  0  0  0  0  0  0  0  0  0
    8.1552    1.0877    0.0000 C   0  0  0  0  0  0  0  0  0  0  0  0
    5.1350   -2.0613    0.0000 C   0  0  0  0  0  0  0  0  0  0  0  0
    6.6648   -2.5613    0.0000 C   0  0  0  0  0  0  0  0  0  0  0  0
    5.1350   -3.0613    0.0000 C   0  0  0  0  0  0  0  0  0  0  0  0
   13.2211    2.6166    0.0000 C   0  0  2  0  0  0  0  0  0  0  0  0
   13.3239    1.6219    0.0000 C   0  0  2  0  0  0  0  0  0  0  0  0
   14.0311    3.2030    0.0000 C   0  0  2  0  0  0  0  0  0  0  0  0
   15.0467    1.8000    0.0000 C   0  0  1  0  0  0  0  0  0  0  0  0
   14.9439    2.7947    0.0000 C   0  0  0  0  0  0  0  0  0  0  0  0
    4.2690   -3.5613    0.0000 C   0  0  0  0  0  0  0  0  0  0  0  0
    3.4030   -2.0613    0.0000 C   0  0  0  0  0  0  0  0  0  0  0  0
   15.9596    1.3917    0.0000 C   0  0  0  0  0  0  0  0  0  0  0  0
    5.5250    0.5569    0.0000 H   0  0  0  0  0  0  0  0  0  0  0  0
    5.7825    0.9101    0.0000 H   0  0  0  0  0  0  0  0  0  0  0  0
    5.7794   -0.9020    0.0000 H   0  0  0  0  0  0  0  0  0  0  0  0
    7.8972    0.2189    0.0000 H   0  0  0  0  0  0  0  0  0  0  0  0
    8.5028    1.6011    0.0000 H   0  0  0  0  0  0  0  0  0  0  0  0
    7.7100    1.5192    0.0000 H   0  0  0  0  0  0  0  0  0  0  0  0
    4.4964    0.5432    0.0000 H   0  0  0  0  0  0  0  0  0  0  0  0
    6.5030    2.2236    0.0000 H   0  0  0  0  0  0  0  0  0  0  0  0
    7.2848   -2.5613    0.0000 H   0  0  0  0  0  0  0  0  0  0  0  0
   13.1573    3.2334    0.0000 H   0  0  0  0  0  0  0  0  0  0  0  0
   12.7579    1.8751    0.0000 H   0  0  0  0  0  0  0  0  0  0  0  0
   13.4651    3.4562    0.0000 H   0  0  0  0  0  0  0  0  0  0  0  0
   15.1105    1.1833    0.0000 H   0  0  0  0  0  0  0  0  0  0  0  0
    4.2690   -0.9413    0.0000 H   0  0  0  0  0  0  0  0  0  0  0  0
   15.7064    0.8257    0.0000 H   0  0  0  0  0  0  0  0  0  0  0  0
   16.5255    1.1385    0.0000 H   0  0  0  0  0  0  0  0  0  0  0  0
   16.2127    1.9576    0.0000 H   0  0  0  0  0  0  0  0  0  0  0  0
   12.2445    3.6417    0.0000 H   0  0  0  0  0  0  0  0  0  0  0  0
   14.4305    4.5613    0.0000 H   0  0  0  0  0  0  0  0  0  0  0  0
   10.2113   -0.1102    0.0000 H   0  0  0  0  0  0  0  0  0  0  0  0
    2.0000   -1.8713    0.0000 H   0  0  0  0  0  0  0  0  0  0  0  0
    2.5369   -0.9413    0.0000 H   0  0  0  0  0  0  0  0  0  0  0  0
   11.6458    2.8589    0.0000 H   0  0  0  0  0  0  0  0  0  0  0  0
  1  6  1  0  0  0  0
  1  9  1  0  0  0  0
  1 12  1  0  0  0  0
  1 14  2  0  0  0  0
  2  8  1  0  0  0  0
  2  9  1  0  0  0  0
  2 15  1  0  0  0  0
  2 17  2  0  0  0  0
  3 25  1  0  0  0  0
  3 26  1  0  0  0  0
 23  4  1  6  0  0  0
  4 45  1  0  0  0  0
 24  5  1  6  0  0  0
  5 46  1  0  0  0  0
  6 27  1  0  0  0  0
  7 32  1  0  0  0  0
  7 34  1  0  0  0  0
 32  8  1  6  0  0  0
 31 10  1  1  0  0  0
 10 56  1  0  0  0  0
 33 11  1  1  0  0  0
 11 57  1  0  0  0  0
 12 58  1  0  0  0  0
 13 35  2  0  0  0  0
 15 61  1  0  0  0  0
 16 36  2  0  0  0  0
 25 18  1  1  0  0  0
 18 28  1  0  0  0  0
 18 29  1  0  0  0  0
 19 28  1  0  0  0  0
 19 37  1  0  0  0  0
 19 52  1  0  0  0  0
 20 29  2  0  0  0  0
 20 30  1  0  0  0  0
 21 36  1  0  0  0  0
 21 37  2  0  0  0  0
 22 37  1  0  0  0  0
 22 59  1  0  0  0  0
 22 60  1  0  0  0  0
 23 24  1  0  0  0  0
 23 25  1  0  0  0  0
 23 39  1  0  0  0  0
 24 26  1  0  0  0  0
 24 40  1  0  0  0  0
 25 41  1  0  0  0  0
 26 27  1  1  0  0  0
 26 42  1  0  0  0  0
 27 43  1  0  0  0  0
 27 44  1  0  0  0  0
 28 30  2  0  0  0  0
 29 47  1  0  0  0  0
 30 36  1  0  0  0  0
 31 32  1  0  0  0  0
 31 33  1  0  0  0  0
 31 48  1  0  0  0  0
 32 49  1  0  0  0  0
 33 35  1  0  0  0  0
 33 50  1  0  0  0  0
 34 35  1  0  0  0  0
 34 38  1  1  0  0  0
 34 51  1  0  0  0  0
 38 53  1  0  0  0  0
 38 54  1  0  0  0  0
 38 55  1  0  0  0  0
M  END
> <PUBCHEM_COMPOUND_CID>
439446

> <PUBCHEM_COMPOUND_CANONICALIZED>
1

> <PUBCHEM_CACTVS_COMPLEXITY>
1080

> <PUBCHEM_CACTVS_HBOND_ACCEPTOR>
16

> <PUBCHEM_CACTVS_HBOND_DONOR>
8

> <PUBCHEM_CACTVS_ROTATABLE_BOND>
8

> <PUBCHEM_CACTVS_SUBSKEYS>
AAADceB7vAMAAAAAAAAAAAAAAAAAAWJAAAAkQAAAAAAAAEABgAAAHgAQCCAACBzxlgcHuBfMFxCoQYdxdIKAgC0XEKABUAHoVECTWB5AyCQeQIAPIALXAGHycAYAAAAAAAAAAAAAAAAAAAAAAAAAAAAAAA==

> <PUBCHEM_IUPAC_OPENEYE_NAME>
[[(2R,3S,4R,5R)-5-(2-amino-6-oxo-3H-purin-9-yl)-3,4-dihydroxy-tetrahydrofuran-2-yl]methoxy-hydroxy-phosphoryl] [(2R,3S,4R,6R)-3,4-dihydroxy-6-methyl-5-oxo-tetrahydropyran-2-yl] hydrogen phosphate

> <PUBCHEM_IUPAC_CAS_NAME>
[[(2R,3S,4R,5R)-5-(2-amino-6-oxo-3H-purin-9-yl)-3,4-dihydroxy-2-oxolanyl]methoxy-hydroxyphosphoryl] [(2R,3S,4R,6R)-3,4-dihydroxy-6-methyl-5-oxo-2-oxanyl] hydrogen phosphate

> <PUBCHEM_IUPAC_NAME>
[[(2R,3S,4R,5R)-5-(2-amino-6-oxo-3H-purin-9-yl)-3,4-dihydroxyoxolan-2-yl]methoxy-hydroxyphosphoryl] [(2R,3S,4R,6R)-3,4-dihydroxy-6-methyl-5-oxooxan-2-yl] hydrogen phosphate

> <PUBCHEM_IUPAC_SYSTEMATIC_NAME>
[[(2R,3S,4R,5R)-5-(2-azanyl-6-oxidanylidene-3H-purin-9-yl)-3,4-bis(oxidanyl)oxolan-2-yl]methoxy-oxidanyl-phosphoryl] [(2R,3S,4R,6R)-6-methyl-3,4-bis(oxidanyl)-5-oxidanylidene-oxan-2-yl] hydrogen phosphate

> <PUBCHEM_IUPAC_TRADITIONAL_NAME>
[[(2R,3S,4R,5R)-5-(2-amino-6-keto-3H-purin-9-yl)-3,4-dihydroxy-tetrahydrofuran-2-yl]methoxy-hydroxy-phosphoryl] [(2R,3S,4R,6R)-3,4-dihydroxy-5-keto-6-methyl-tetrahydropyran-2-yl] hydrogen phosphate

> <PUBCHEM_IUPAC_INCHI>
InChI=1S/C16H23N5O15P2/c1-4-7(22)9(24)11(26)15(33-4)35-38(30,31)36-37(28,29)32-2-5-8(23)10(25)14(34-5)21-3-18-6-12(21)19-16(17)20-13(6)27/h3-5,8-11,14-15,23-26H,2H2,1H3,(H,28,29)(H,30,31)(H3,17,19,20,27)/t4-,5-,8-,9+,10-,11+,14-,15-/m1/s1

> <PUBCHEM_IUPAC_INCHIKEY>
PNHLMHWWFOPQLK-BKUUWRAGSA-N

> <PUBCHEM_XLOGP3_AA>
-6.1

> <PUBCHEM_EXACT_MASS>
587.066588

> <PUBCHEM_MOLECULAR_FORMULA>
C16H23N5O15P2

> <PUBCHEM_MOLECULAR_WEIGHT>
587.325844

> <PUBCHEM_OPENEYE_CAN_SMILES>
CC1C(=O)C(C(C(O1)OP(=O)(O)OP(=O)(O)OCC2C(C(C(O2)N3C=NC4=C3NC(=NC4=O)N)O)O)O)O

> <PUBCHEM_OPENEYE_ISO_SMILES>
C[C@@H]1C(=O)[C@@H]([C@@H]([C@H](O1)OP(=O)(O)OP(=O)(O)OC[C@@H]2[C@H]([C@H]([C@@H](O2)N3C=NC4=C3NC(=NC4=O)N)O)O)O)O

> <PUBCHEM_CACTVS_TPSA>
304

> <PUBCHEM_MONOISOTOPIC_WEIGHT>
587.066588

> <PUBCHEM_TOTAL_CHARGE>
0

> <PUBCHEM_HEAVY_ATOM_COUNT>
38

> <PUBCHEM_ATOM_DEF_STEREO_COUNT>
8

> <PUBCHEM_ATOM_UDEF_STEREO_COUNT>
0

> <PUBCHEM_BOND_DEF_STEREO_COUNT>
0

> <PUBCHEM_BOND_UDEF_STEREO_COUNT>
0

> <PUBCHEM_ISOTOPIC_ATOM_COUNT>
0

> <PUBCHEM_COMPONENT_COUNT>
1

> <PUBCHEM_CACTVS_TAUTO_COUNT>
63

> <PUBCHEM_COORDINATE_TYPE>
1
5
255

> <PUBCHEM_BONDANNOTATIONS>
31  10  5
33  11  5
25  18  5
18  28  8
18  29  8
19  28  8
19  37  8
20  29  8
20  30  8
21  36  8
21  37  8
26  27  5
28  30  8
30  36  8
34  38  5
23  4  6
24  5  6
32  8  6

$$$$

