   Color/Form
        CLEAR, COLORLESS LIQ
   from [1]HSDB

   Odor

     * FISHY, AMMONIA ODOR
     * Characteristic ammoniacal odor of aliphatic hydrazines

   from [2]HSDB

   Boiling Point
        81 deg C @ 753 mm Hg
   from [3]HSDB

   Melting Point
        -9 DEG C
   from [4]HSDB

   Corrosivity
        Corrosive to skin
   from [5]HSDB

   Density/Specific Gravity
        0.8274 at 20 deg C/4 deg C
   from [6]HSDB

   Dissociation Constants
        pKa = 7.9 /Estimated/
   from [7]HSDB

   Octanol/Water Partition Coefficient
        log Kow = -0.54 /Estimated/
   from [8]HSDB

   pH
        Alkaline
   from [9]HSDB

   Solubilities

     * Miscible with alcohol, ether, dimethylformamide, hydrocarbons
     * Miscible with water: 1X10+6 mg/l at 25 deg C

   from [10]HSDB

   Spectral Properties

     * Index of refraction: 1.4075 @ 20 deg C/D
     * MAX ABSORPTION (ALCOHOL): 235 NM (LOG E= 4.0); 280 NM (LOG E= 3.1)
     * MASS: 52263 (National Institute of Standards NIST/EPA/MSDC Mass
       Spectral Database); NBS 9 (National Bureau of Standards)
     * IR: SAD 1632 (Sadtler Spectral Library)

   from [11]HSDB

   Vapor Pressure
        69.9 mm Hg at 25 deg C
   from [12]HSDB

   Other Chemical/Physical Properties

     * Extremely hygroscopic prisms, decomposition at 168 deg C.
       /1,2-Dimethylhydrazine dihydrochloride/
     * IN PRESENCE OF TRACES OF HEAVY METAL IONS, WHICH ACT AS CATALYSTS,
       CMPD IS RAPIDLY DEHYDROGENATED TO AZOMETHANE
     * CONVERSION FACTORS: 1 MG/L= 4.07 PPM; 1 PPM= 2.5 MG/CU M
     * Hygroscopic, mobile liquid.
     * MASS: 9 (Atlas of Mass Spectral Data, John Wiley & Sons, New York)
       /1,2-Dimethylhydrazine dihydrochloride/
     * IR: 23745 (Sadtler Research Laboratories Prism Collection)
       /1,2-Dimethylhydrazine dihydrochloride/
     * Very soluble in ethanol or water /1,2-Dimethylhydrazine
       dihydrochloride/
     * Heat capacity: 40.88 cal/deg C/mole @ 25 deg C
     * Heat of sublimation: 9.40 kcal/mole @ 298 deg K
     * Fumes in air and gradually turns yellow.
     * Miscible with water with much evolution of heat.
     * Henry's Law constant = 5.5X10-6 atm-cu m/mol at 25 deg C
       /Estimated/
     * Hydroxyl radical rate constant = 1.3X10-10 cu cm/molec-sec at 25
       deg C /Estimated/

   from [13]HSDB

   Computed Properties
   Molecular Weight                  60.09832 [g/mol]
   Molecular Formula                 C[2]H[8]N[2]
   XLogP3-AA                         -0.4
   H-Bond Donor                      2
   H-Bond Acceptor                   2
   Rotatable Bond Count              1
   Exact Mass                        60.068748
   MonoIsotopic Mass                 60.068748
   Topological Polar Surface Area    24.1
   Heavy Atom Count                  4
   Formal Charge                     0
   Complexity                        6
   Isotope Atom Count                0
   Defined Atom Stereocenter Count   0
   Undefined Atom Stereocenter Count 0
   Defined Bond Stereocenter Count   0
   Undefined Bond Stereocenter Count 0
   Covalently-Bonded Unit Count      1
   Feature 3D Donor Count            2
   Effective Rotor Count             1
   Conformer Sampling RMSD           0.4
   CID Conformer Count               [14]3

References

   1. http://toxnet.nlm.nih.gov/cgi-bin/sis/search/r?dbs+hsdb:@term+@rn+@rel+540-73-8
   2. http://toxnet.nlm.nih.gov/cgi-bin/sis/search/r?dbs+hsdb:@term+@rn+@rel+540-73-8
   3. http://toxnet.nlm.nih.gov/cgi-bin/sis/search/r?dbs+hsdb:@term+@rn+@rel+540-73-8
   4. http://toxnet.nlm.nih.gov/cgi-bin/sis/search/r?dbs+hsdb:@term+@rn+@rel+540-73-8
   5. http://toxnet.nlm.nih.gov/cgi-bin/sis/search/r?dbs+hsdb:@term+@rn+@rel+540-73-8
   6. http://toxnet.nlm.nih.gov/cgi-bin/sis/search/r?dbs+hsdb:@term+@rn+@rel+540-73-8
   7. http://toxnet.nlm.nih.gov/cgi-bin/sis/search/r?dbs+hsdb:@term+@rn+@rel+540-73-8
   8. http://toxnet.nlm.nih.gov/cgi-bin/sis/search/r?dbs+hsdb:@term+@rn+@rel+540-73-8
   9. http://toxnet.nlm.nih.gov/cgi-bin/sis/search/r?dbs+hsdb:@term+@rn+@rel+540-73-8
  10. http://toxnet.nlm.nih.gov/cgi-bin/sis/search/r?dbs+hsdb:@term+@rn+@rel+540-73-8
  11. http://toxnet.nlm.nih.gov/cgi-bin/sis/search/r?dbs+hsdb:@term+@rn+@rel+540-73-8
  12. http://toxnet.nlm.nih.gov/cgi-bin/sis/search/r?dbs+hsdb:@term+@rn+@rel+540-73-8
  13. http://toxnet.nlm.nih.gov/cgi-bin/sis/search/r?dbs+hsdb:@term+@rn+@rel+540-73-8
  14. http://pubchem.ncbi.nlm.nih.gov/vw3d/vw3d.cgi?cid=1322
