   Color/Form

     * PLATES FROM BENZENE
     * COLORLESS PLATES

   from [1]HSDB

   Boiling Point
        273.5 deg C
   from [2]HSDB

   Melting Point
        64 deg C
   from [3]HSDB

   Octanol/Water Partition Coefficient
        log Kow= 0.25
   from [4]HSDB

   Solubilities
        Sol in water, ethanol, ether; slightly sol in cold benzene but sol
   in hot benzene.
   from [5]HSDB

   Spectral Properties
        MASS: 63 (Aldermaston, Eight Peak Index of Mass Spectra, UK)
   from [6]HSDB

   Other Chemical/Physical Properties
        READILY BECOMES OXIDIZED IN NEUTRAL OR ALKALINE SOLN TO FORM DARK
   PRODUCTS
   from [7]HSDB

   Computed Properties
   Molecular Weight                  122.1677 [g/mol]
   Molecular Formula                 C[7]H[10]N[2]
   XLogP3                            0.6
   H-Bond Donor                      2
   H-Bond Acceptor                   2
   Rotatable Bond Count              0
   Exact Mass                        122.084398
   MonoIsotopic Mass                 122.084398
   Topological Polar Surface Area    52
   Heavy Atom Count                  9
   Formal Charge                     0
   Complexity                        92.9
   Isotope Atom Count                0
   Defined Atom Stereocenter Count   0
   Undefined Atom Stereocenter Count 0
   Defined Bond Stereocenter Count   0
   Undefined Bond Stereocenter Count 0
   Covalently-Bonded Unit Count      1
   Feature 3D Donor Count            2
   Feature 3D Cation Count           2
   Feature 3D Ring Count             1
   Effective Rotor Count             0
   Conformer Sampling RMSD           0.4
   CID Conformer Count               [8]1

References

   1. http://toxnet.nlm.nih.gov/cgi-bin/sis/search/r?dbs+hsdb:@term+@rn+@rel+95-70-5
   2. http://toxnet.nlm.nih.gov/cgi-bin/sis/search/r?dbs+hsdb:@term+@rn+@rel+95-70-5
   3. http://toxnet.nlm.nih.gov/cgi-bin/sis/search/r?dbs+hsdb:@term+@rn+@rel+95-70-5
   4. http://toxnet.nlm.nih.gov/cgi-bin/sis/search/r?dbs+hsdb:@term+@rn+@rel+95-70-5
   5. http://toxnet.nlm.nih.gov/cgi-bin/sis/search/r?dbs+hsdb:@term+@rn+@rel+95-70-5
   6. http://toxnet.nlm.nih.gov/cgi-bin/sis/search/r?dbs+hsdb:@term+@rn+@rel+95-70-5
   7. http://toxnet.nlm.nih.gov/cgi-bin/sis/search/r?dbs+hsdb:@term+@rn+@rel+95-70-5
   8. http://pubchem.ncbi.nlm.nih.gov/vw3d/vw3d.cgi?cid=7252
