   Color/Form
        WHITE CRYSTALLINE POWDER
   from [1]HSDB

   Odor
        ODORLESS
   from [2]HSDB

   Taste
        Bitter
   from [3]HSDB

   Melting Point
        255-260 deg C
   from [4]HSDB

   Dissociation Constants
        pKa = 10.35 (25 deg C); pKa = 10.13 (35 deg C); pKa = 9.92 (45 deg
   C)
   from [5]HSDB

   pH
        A 1% aqueous solution has a pH of about 6.2
   from [6]HSDB

   Solubilities

     * Soluble in ethanol; slightly soluble in chlorform; insoluble in
       benzene and ether
     * In water, 4.0X10+5 mg/L at 25 deg C

   from [7]HSDB

   Spectral Properties

     * UV max (ethanol): 223, 270, 280, 287, and 291 nm (E 1% 1cm = 3622,
       239, 286, 196, 198)
     * IR: 20260 (Sadtler Research Laboratories IR grating collection)
     * UV: 18667 (Sadtler Research Laboratories spectral collection)
     * H-1 NMR: 10150 (Sadtler Research Laboratories spectral collection)

   from [8]HSDB

   Other Chemical/Physical Properties
        DECOMP @ 253-258 DEG C
   from [9]HSDB

   Computed Properties
   Molecular Weight                  246.7353 [g/mol]
   Molecular Formula                 C[14]H[15]ClN[2]
   H-Bond Donor                      2
   H-Bond Acceptor                   1
   Rotatable Bond Count              2
   Exact Mass                        246.092376
   MonoIsotopic Mass                 246.092376
   Topological Polar Surface Area    24.4
   Heavy Atom Count                  17
   Formal Charge                     0
   Complexity                        272
   Isotope Atom Count                0
   Defined Atom Stereocenter Count   0
   Undefined Atom Stereocenter Count 0
   Defined Bond Stereocenter Count   0
   Undefined Bond Stereocenter Count 0
   Covalently-Bonded Unit Count      2

References

   1. http://toxnet.nlm.nih.gov/cgi-bin/sis/search/r?dbs+hsdb:@term+@rn+@rel+550-99-2
   2. http://toxnet.nlm.nih.gov/cgi-bin/sis/search/r?dbs+hsdb:@term+@rn+@rel+550-99-2
   3. http://toxnet.nlm.nih.gov/cgi-bin/sis/search/r?dbs+hsdb:@term+@rn+@rel+550-99-2
   4. http://toxnet.nlm.nih.gov/cgi-bin/sis/search/r?dbs+hsdb:@term+@rn+@rel+550-99-2
   5. http://toxnet.nlm.nih.gov/cgi-bin/sis/search/r?dbs+hsdb:@term+@rn+@rel+550-99-2
   6. http://toxnet.nlm.nih.gov/cgi-bin/sis/search/r?dbs+hsdb:@term+@rn+@rel+550-99-2
   7. http://toxnet.nlm.nih.gov/cgi-bin/sis/search/r?dbs+hsdb:@term+@rn+@rel+550-99-2
   8. http://toxnet.nlm.nih.gov/cgi-bin/sis/search/r?dbs+hsdb:@term+@rn+@rel+550-99-2
   9. http://toxnet.nlm.nih.gov/cgi-bin/sis/search/r?dbs+hsdb:@term+@rn+@rel+550-99-2
