5899
  -OEChem-06261200582D

 15 15  0     0  0  0  0  0  0999 V2000
    2.0000    1.3770    0.0000 F   0  0  0  0  0  0  0  0  0  0  0  0
    3.3660    1.7430    0.0000 F   0  0  0  0  0  0  0  0  0  0  0  0
    2.3660    0.0110    0.0000 F   0  0  0  0  0  0  0  0  0  0  0  0
    2.8660   -1.1230    0.0000 O   0  0  0  0  0  0  0  0  0  0  0  0
    6.3301   -1.1230    0.0000 O   0  0  0  0  0  0  0  0  0  0  0  0
    4.5981   -1.1230    0.0000 N   0  0  0  0  0  0  0  0  0  0  0  0
    5.4641    0.3770    0.0000 N   0  0  0  0  0  0  0  0  0  0  0  0
    3.7320    0.3770    0.0000 C   0  0  0  0  0  0  0  0  0  0  0  0
    3.7320   -0.6230    0.0000 C   0  0  0  0  0  0  0  0  0  0  0  0
    4.5981    0.8770    0.0000 C   0  0  0  0  0  0  0  0  0  0  0  0
    2.8660    0.8770    0.0000 C   0  0  0  0  0  0  0  0  0  0  0  0
    5.4641   -0.6230    0.0000 C   0  0  0  0  0  0  0  0  0  0  0  0
    4.5981    1.4970    0.0000 H   0  0  0  0  0  0  0  0  0  0  0  0
    4.5981   -1.7430    0.0000 H   0  0  0  0  0  0  0  0  0  0  0  0
    6.0010    0.6870    0.0000 H   0  0  0  0  0  0  0  0  0  0  0  0
  1 11  1  0  0  0  0
  2 11  1  0  0  0  0
  3 11  1  0  0  0  0
  4  9  2  0  0  0  0
  5 12  2  0  0  0  0
  6  9  1  0  0  0  0
  6 12  1  0  0  0  0
  6 14  1  0  0  0  0
  7 10  1  0  0  0  0
  7 12  1  0  0  0  0
  7 15  1  0  0  0  0
  8  9  1  0  0  0  0
  8 10  2  0  0  0  0
  8 11  1  0  0  0  0
 10 13  1  0  0  0  0
M  END
> <PUBCHEM_COMPOUND_CID>
5899

> <PUBCHEM_COMPOUND_CANONICALIZED>
1

> <PUBCHEM_CACTVS_COMPLEXITY>
268

> <PUBCHEM_CACTVS_HBOND_ACCEPTOR>
5

> <PUBCHEM_CACTVS_HBOND_DONOR>
2

> <PUBCHEM_CACTVS_ROTATABLE_BOND>
0

> <PUBCHEM_CACTVS_SUBSKEYS>
AAADcQBjMYAAAAAAAAAAAAAAAAAAAAAAAAAgAAAAAAAAAAAAAAAAHwAQAAAADADBgBQBAALAAACIAgFWUACAAAAAAAAAAIEIAECAAAAAAAAEAAAIByIAAMAAAAAAAAAAAAAAAAAAAAAAAAAAAAAAAAAAAA==

> <PUBCHEM_IUPAC_OPENEYE_NAME>
5-(trifluoromethyl)-1H-pyrimidine-2,4-dione

> <PUBCHEM_IUPAC_CAS_NAME>
5-(trifluoromethyl)-1H-pyrimidine-2,4-dione

> <PUBCHEM_IUPAC_NAME>
5-(trifluoromethyl)-1H-pyrimidine-2,4-dione

> <PUBCHEM_IUPAC_SYSTEMATIC_NAME>
5-(trifluoromethyl)-1H-pyrimidine-2,4-dione

> <PUBCHEM_IUPAC_TRADITIONAL_NAME>
5-(trifluoromethyl)uracil

> <PUBCHEM_IUPAC_INCHI>
InChI=1S/C5H3F3N2O2/c6-5(7,8)2-1-9-4(12)10-3(2)11/h1H,(H2,9,10,11,12)

> <PUBCHEM_IUPAC_INCHIKEY>
LMNPKIOZMGYQIU-UHFFFAOYSA-N

> <PUBCHEM_XLOGP3>
0

> <PUBCHEM_EXACT_MASS>
180.014662

> <PUBCHEM_MOLECULAR_FORMULA>
C5H3F3N2O2

> <PUBCHEM_MOLECULAR_WEIGHT>
180.08473

> <PUBCHEM_OPENEYE_CAN_SMILES>
C1=C(C(=O)NC(=O)N1)C(F)(F)F

> <PUBCHEM_OPENEYE_ISO_SMILES>
C1=C(C(=O)NC(=O)N1)C(F)(F)F

> <PUBCHEM_CACTVS_TPSA>
58.2

> <PUBCHEM_MONOISOTOPIC_WEIGHT>
180.014662

> <PUBCHEM_TOTAL_CHARGE>
0

> <PUBCHEM_HEAVY_ATOM_COUNT>
12

> <PUBCHEM_ATOM_DEF_STEREO_COUNT>
0

> <PUBCHEM_ATOM_UDEF_STEREO_COUNT>
0

> <PUBCHEM_BOND_DEF_STEREO_COUNT>
0

> <PUBCHEM_BOND_UDEF_STEREO_COUNT>
0

> <PUBCHEM_ISOTOPIC_ATOM_COUNT>
0

> <PUBCHEM_COMPONENT_COUNT>
1

> <PUBCHEM_CACTVS_TAUTO_COUNT>
9

> <PUBCHEM_COORDINATE_TYPE>
1
5
255

> <PUBCHEM_BONDANNOTATIONS>
6  12  8
6  9  8
7  10  8
7  12  8
8  10  8
8  9  8

$$$$

