440275
  -OEChem-07051212492D

 21 21  0     0  0  0  0  0  0999 V2000
    2.8660   -3.6550    0.0000 Br  0  0  0  0  0  0  0  0  0  0  0  0
    2.8660    0.3450    0.0000 S   0  0  0  0  0  0  0  0  0  0  0  0
    2.8660    2.3450    0.0000 O   0  0  0  0  0  0  0  0  0  0  0  0
    4.5981    3.3450    0.0000 O   0  0  0  0  0  0  0  0  0  0  0  0
    5.4641    1.8450    0.0000 O   0  0  0  0  0  0  0  0  0  0  0  0
    2.8660   -0.6550    0.0000 C   0  0  0  0  0  0  0  0  0  0  0  0
    3.7320    0.8450    0.0000 C   0  0  0  0  0  0  0  0  0  0  0  0
    2.0000   -1.1550    0.0000 C   0  0  0  0  0  0  0  0  0  0  0  0
    3.7320   -1.1550    0.0000 C   0  0  0  0  0  0  0  0  0  0  0  0
    2.0000   -2.1550    0.0000 C   0  0  0  0  0  0  0  0  0  0  0  0
    3.7320   -2.1550    0.0000 C   0  0  0  0  0  0  0  0  0  0  0  0
    2.8660   -2.6550    0.0000 C   0  0  0  0  0  0  0  0  0  0  0  0
    3.7320    1.8450    0.0000 C   0  0  0  0  0  0  0  0  0  0  0  0
    4.5981    2.3450    0.0000 C   0  0  0  0  0  0  0  0  0  0  0  0
    3.9441    0.2624    0.0000 H   0  0  0  0  0  0  0  0  0  0  0  0
    4.3426    0.9527    0.0000 H   0  0  0  0  0  0  0  0  0  0  0  0
    1.4631   -0.8450    0.0000 H   0  0  0  0  0  0  0  0  0  0  0  0
    4.2690   -0.8450    0.0000 H   0  0  0  0  0  0  0  0  0  0  0  0
    1.4631   -2.4650    0.0000 H   0  0  0  0  0  0  0  0  0  0  0  0
    4.2690   -2.4650    0.0000 H   0  0  0  0  0  0  0  0  0  0  0  0
    5.1350    3.6550    0.0000 H   0  0  0  0  0  0  0  0  0  0  0  0
  1 12  1  0  0  0  0
  2  6  1  0  0  0  0
  2  7  1  0  0  0  0
  3 13  2  0  0  0  0
  4 14  1  0  0  0  0
  4 21  1  0  0  0  0
  5 14  2  0  0  0  0
  6  8  2  0  0  0  0
  6  9  1  0  0  0  0
  7 13  1  0  0  0  0
  7 15  1  0  0  0  0
  7 16  1  0  0  0  0
  8 10  1  0  0  0  0
  8 17  1  0  0  0  0
  9 11  2  0  0  0  0
  9 18  1  0  0  0  0
 10 12  2  0  0  0  0
 10 19  1  0  0  0  0
 11 12  1  0  0  0  0
 11 20  1  0  0  0  0
 13 14  1  0  0  0  0
M  END
> <PUBCHEM_COMPOUND_CID>
440275

> <PUBCHEM_COMPOUND_CANONICALIZED>
1

> <PUBCHEM_CACTVS_COMPLEXITY>
224

> <PUBCHEM_CACTVS_HBOND_ACCEPTOR>
4

> <PUBCHEM_CACTVS_HBOND_DONOR>
1

> <PUBCHEM_CACTVS_ROTATABLE_BOND>
4

> <PUBCHEM_CACTVS_SUBSKEYS>
AAADcYBwMABAEAAAAAAAAAAAAAAAAAAAAAAwAAAAAAAAAAABAAAAGgRACAABqASE0ACwCYAAAgiIAKDSCAICAAAgCBQIiBlAAKgIICKgERCAYAAggAAoihcAAAAAAAEAAAAAAAAAAgAAAAAAAAAAAAAAAA==

> <PUBCHEM_IUPAC_OPENEYE_NAME>
3-(4-bromophenyl)sulfanyl-2-oxo-propanoic acid

> <PUBCHEM_IUPAC_CAS_NAME>
3-[(4-bromophenyl)thio]-2-oxopropanoic acid

> <PUBCHEM_IUPAC_NAME>
3-(4-bromophenyl)sulfanyl-2-oxopropanoic acid

> <PUBCHEM_IUPAC_SYSTEMATIC_NAME>
3-(4-bromophenyl)sulfanyl-2-oxidanylidene-propanoic acid

> <PUBCHEM_IUPAC_TRADITIONAL_NAME>
3-[(4-bromophenyl)thio]-2-keto-propionic acid

> <PUBCHEM_IUPAC_INCHI>
InChI=1S/C9H7BrO3S/c10-6-1-3-7(4-2-6)14-5-8(11)9(12)13/h1-4H,5H2,(H,12,13)

> <PUBCHEM_IUPAC_INCHIKEY>
QJDFZNIKGFGPCR-UHFFFAOYSA-N

> <PUBCHEM_XLOGP3_AA>
2.6

> <PUBCHEM_EXACT_MASS>
273.929927

> <PUBCHEM_MOLECULAR_FORMULA>
C9H7BrO3S

> <PUBCHEM_MOLECULAR_WEIGHT>
275.11908

> <PUBCHEM_OPENEYE_CAN_SMILES>
C1=CC(=CC=C1SCC(=O)C(=O)O)Br

> <PUBCHEM_OPENEYE_ISO_SMILES>
C1=CC(=CC=C1SCC(=O)C(=O)O)Br

> <PUBCHEM_CACTVS_TPSA>
79.7

> <PUBCHEM_MONOISOTOPIC_WEIGHT>
273.929927

> <PUBCHEM_TOTAL_CHARGE>
0

> <PUBCHEM_HEAVY_ATOM_COUNT>
14

> <PUBCHEM_ATOM_DEF_STEREO_COUNT>
0

> <PUBCHEM_ATOM_UDEF_STEREO_COUNT>
0

> <PUBCHEM_BOND_DEF_STEREO_COUNT>
0

> <PUBCHEM_BOND_UDEF_STEREO_COUNT>
0

> <PUBCHEM_ISOTOPIC_ATOM_COUNT>
0

> <PUBCHEM_COMPONENT_COUNT>
1

> <PUBCHEM_CACTVS_TAUTO_COUNT>
2

> <PUBCHEM_COORDINATE_TYPE>
1
5
255

> <PUBCHEM_BONDANNOTATIONS>
10  12  8
11  12  8
6  8  8
6  9  8
8  10  8
9  11  8

$$$$

