5462417
  -OEChem-07051212562D

 94100  0     1  0  0  0  0  0999 V2000
    3.2704   -1.9263    0.0000 O   0  0  0  0  0  0  0  0  0  0  0  0
    5.4745    1.5624    0.0000 O   0  0  0  0  0  0  0  0  0  0  0  0
    2.5357   -1.1482    0.0000 O   0  0  0  0  0  0  0  0  0  0  0  0
    7.0442   -2.7400    0.0000 O   0  0  0  0  0  0  0  0  0  0  0  0
    6.9198    0.3969    0.0000 O   0  0  0  0  0  0  0  0  0  0  0  0
    7.1555   -1.1460    0.0000 O   0  0  0  0  0  0  0  0  0  0  0  0
    5.1877    3.3969    0.0000 O   0  0  0  0  0  0  0  0  0  0  0  0
    6.9198    2.3969    0.0000 O   0  0  0  0  0  0  0  0  0  0  0  0
    4.5357    2.8660    0.0000 O   0  0  0  0  0  0  0  0  0  0  0  0
    7.0778   -5.4100    0.0000 O   0  0  0  0  0  0  0  0  0  0  0  0
    6.9198    3.3969    0.0000 O   0  0  0  0  0  0  0  0  0  0  0  0
    7.7858    0.8969    0.0000 O   0  0  0  0  0  0  0  0  0  0  0  0
    2.8205    3.1071    0.0000 O   0  0  0  0  0  0  0  0  0  0  0  0
    4.2974   -2.2573    0.0000 C   0  0  1  0  0  0  0  0  0  0  0  0
    4.3058   -1.1724    0.0000 C   0  0  1  0  0  0  0  0  0  0  0  0
    5.2370   -2.7998    0.0000 C   0  0  2  0  0  0  0  0  0  0  0  0
    3.4977   -2.9811    0.0000 C   0  0  1  0  0  0  0  0  0  0  0  0
    5.2038   -0.6446    0.0000 C   0  0  1  0  0  0  0  0  0  0  0  0
    5.1877    0.3969    0.0000 C   0  0  2  0  0  0  0  0  0  0  0  0
    5.0100   -3.8542    0.0000 C   0  0  1  0  0  0  0  0  0  0  0  0
    4.3217    0.8969    0.0000 C   0  0  1  0  0  0  0  0  0  0  0  0
    3.4037   -0.6516    0.0000 C   0  0  1  0  0  0  0  0  0  0  0  0
    3.9373   -3.9661    0.0000 C   0  0  0  0  0  0  0  0  0  0  0  0
    6.1725   -2.2501    0.0000 C   0  0  1  0  0  0  0  0  0  0  0  0
    3.4117    0.3900    0.0000 C   0  0  0  0  0  0  0  0  0  0  0  0
    4.3217    1.8969    0.0000 C   0  0  2  0  0  0  0  0  0  0  0  0
    6.1557   -1.1652    0.0000 C   0  0  0  0  0  0  0  0  0  0  0  0
    6.0538    0.8969    0.0000 C   0  0  2  0  0  0  0  0  0  0  0  0
    3.3223   -1.3536    0.0000 C   0  0  0  0  0  0  0  0  0  0  0  0
    6.1031   -3.2998    0.0000 C   0  0  0  0  0  0  0  0  0  0  0  0
    5.3908    0.7668    0.0000 C   0  0  0  0  0  0  0  0  0  0  0  0
    5.1877    2.3969    0.0000 C   0  0  1  0  0  0  0  0  0  0  0  0
    6.0538    1.8969    0.0000 C   0  0  2  0  0  0  0  0  0  0  0  0
    4.7436    1.8878    0.0000 C   0  0  3  0  0  0  0  0  0  0  0  0
    5.6779   -4.5985    0.0000 C   0  0  0  0  0  0  0  0  0  0  0  0
    3.5557    2.5397    0.0000 C   0  0  0  0  0  0  0  0  0  0  0  0
    5.4683   -5.5763    0.0000 C   0  0  0  0  0  0  0  0  0  0  0  0
    6.6726   -4.4957    0.0000 C   0  0  0  0  0  0  0  0  0  0  0  0
    6.3334   -6.0778    0.0000 C   0  0  0  0  0  0  0  0  0  0  0  0
    6.0538    3.8969    0.0000 C   0  0  0  0  0  0  0  0  0  0  0  0
    7.7858    1.8969    0.0000 C   0  0  0  0  0  0  0  0  0  0  0  0
    3.7477    3.4816    0.0000 C   0  0  0  0  0  0  0  0  0  0  0  0
    3.8869    4.4719    0.0000 C   0  0  1  0  0  0  0  0  0  0  0  0
    6.0538    4.8969    0.0000 C   0  0  0  0  0  0  0  0  0  0  0  0
    8.6518    2.3969    0.0000 C   0  0  0  0  0  0  0  0  0  0  0  0
    3.0989    5.0876    0.0000 C   0  0  0  0  0  0  0  0  0  0  0  0
    4.8141    4.8465    0.0000 C   0  0  0  0  0  0  0  0  0  0  0  0
    3.2380    6.0778    0.0000 C   0  0  0  0  0  0  0  0  0  0  0  0
    2.6898   -3.2453    0.0000 H   0  0  0  0  0  0  0  0  0  0  0  0
    5.9316   -0.2055    0.0000 H   0  0  0  0  0  0  0  0  0  0  0  0
    4.7871   -4.4328    0.0000 H   0  0  0  0  0  0  0  0  0  0  0  0
    3.5856    1.3219    0.0000 H   0  0  0  0  0  0  0  0  0  0  0  0
    3.4025   -1.2716    0.0000 H   0  0  0  0  0  0  0  0  0  0  0  0
    3.3477   -4.1578    0.0000 H   0  0  0  0  0  0  0  0  0  0  0  0
    4.0660   -4.5725    0.0000 H   0  0  0  0  0  0  0  0  0  0  0  0
    6.7052   -1.9329    0.0000 H   0  0  0  0  0  0  0  0  0  0  0  0
    3.2072    0.9753    0.0000 H   0  0  0  0  0  0  0  0  0  0  0  0
    2.8001    0.2887    0.0000 H   0  0  0  0  0  0  0  0  0  0  0  0
    6.0538    0.2769    0.0000 H   0  0  0  0  0  0  0  0  0  0  0  0
    3.2100   -0.7438    0.0000 H   0  0  0  0  0  0  0  0  0  0  0  0
    2.7126   -1.4659    0.0000 H   0  0  0  0  0  0  0  0  0  0  0  0
    3.4347   -1.9633    0.0000 H   0  0  0  0  0  0  0  0  0  0  0  0
    5.7931   -3.8368    0.0000 H   0  0  0  0  0  0  0  0  0  0  0  0
    6.6400   -3.6098    0.0000 H   0  0  0  0  0  0  0  0  0  0  0  0
    6.4131   -2.7629    0.0000 H   0  0  0  0  0  0  0  0  0  0  0  0
    5.7795    0.2838    0.0000 H   0  0  0  0  0  0  0  0  0  0  0  0
    4.7992    0.9521    0.0000 H   0  0  0  0  0  0  0  0  0  0  0  0
    4.6508    2.7069    0.0000 H   0  0  0  0  0  0  0  0  0  0  0  0
    6.0538    2.5169    0.0000 H   0  0  0  0  0  0  0  0  0  0  0  0
    4.0888    2.4298    0.0000 H   0  0  0  0  0  0  0  0  0  0  0  0
    3.9542    3.0146    0.0000 H   0  0  0  0  0  0  0  0  0  0  0  0
    3.0807    2.9382    0.0000 H   0  0  0  0  0  0  0  0  0  0  0  0
    3.1571    2.0647    0.0000 H   0  0  0  0  0  0  0  0  0  0  0  0
    2.0000   -0.8361    0.0000 H   0  0  0  0  0  0  0  0  0  0  0  0
    7.5775   -2.4239    0.0000 H   0  0  0  0  0  0  0  0  0  0  0  0
    7.2299   -0.1400    0.0000 H   0  0  0  0  0  0  0  0  0  0  0  0
    4.9014   -5.8275    0.0000 H   0  0  0  0  0  0  0  0  0  0  0  0
    6.9835   -3.9593    0.0000 H   0  0  0  0  0  0  0  0  0  0  0  0
    6.3972   -6.6945    0.0000 H   0  0  0  0  0  0  0  0  0  0  0  0
    3.9732    5.0859    0.0000 H   0  0  0  0  0  0  0  0  0  0  0  0
    6.6738    4.8969    0.0000 H   0  0  0  0  0  0  0  0  0  0  0  0
    6.0538    5.5169    0.0000 H   0  0  0  0  0  0  0  0  0  0  0  0
    5.4338    4.8969    0.0000 H   0  0  0  0  0  0  0  0  0  0  0  0
    8.9618    1.8600    0.0000 H   0  0  0  0  0  0  0  0  0  0  0  0
    9.1888    2.7069    0.0000 H   0  0  0  0  0  0  0  0  0  0  0  0
    8.3418    2.9338    0.0000 H   0  0  0  0  0  0  0  0  0  0  0  0
    2.5092    5.2791    0.0000 H   0  0  0  0  0  0  0  0  0  0  0  0
    2.8078    4.5401    0.0000 H   0  0  0  0  0  0  0  0  0  0  0  0
    5.0463    4.2716    0.0000 H   0  0  0  0  0  0  0  0  0  0  0  0
    5.3889    5.0788    0.0000 H   0  0  0  0  0  0  0  0  0  0  0  0
    4.5818    5.4214    0.0000 H   0  0  0  0  0  0  0  0  0  0  0  0
    3.8520    5.9915    0.0000 H   0  0  0  0  0  0  0  0  0  0  0  0
    3.3243    6.6918    0.0000 H   0  0  0  0  0  0  0  0  0  0  0  0
    2.6241    6.1641    0.0000 H   0  0  0  0  0  0  0  0  0  0  0  0
 14  1  1  1  0  0  0
  1 17  1  0  0  0  0
  2 31  1  0  0  0  0
  2 34  1  0  0  0  0
 22  3  1  6  0  0  0
  3 74  1  0  0  0  0
 24  4  1  1  0  0  0
  4 75  1  0  0  0  0
 28  5  1  6  0  0  0
  5 76  1  0  0  0  0
  6 27  2  0  0  0  0
 32  7  1  6  0  0  0
  7 40  1  0  0  0  0
 33  8  1  6  0  0  0
  8 41  1  0  0  0  0
  9 34  1  0  0  0  0
  9 42  1  0  0  0  0
 10 38  1  0  0  0  0
 10 39  1  0  0  0  0
 11 40  2  0  0  0  0
 12 41  2  0  0  0  0
 13 42  2  0  0  0  0
 14 15  1  0  0  0  0
 14 16  1  0  0  0  0
 14 17  1  0  0  0  0
 15 18  1  0  0  0  0
 15 22  1  0  0  0  0
 15 29  1  1  0  0  0
 16 20  1  0  0  0  0
 16 24  1  0  0  0  0
 16 30  1  6  0  0  0
 17 23  1  0  0  0  0
 17 49  1  6  0  0  0
 18 19  1  0  0  0  0
 18 27  1  0  0  0  0
 18 50  1  6  0  0  0
 19 21  1  0  0  0  0
 19 28  1  0  0  0  0
 19 31  1  1  0  0  0
 20 23  1  0  0  0  0
 20 35  1  6  0  0  0
 20 51  1  0  0  0  0
 21 25  1  0  0  0  0
 21 26  1  0  0  0  0
 21 52  1  6  0  0  0
 22 25  1  0  0  0  0
 22 53  1  0  0  0  0
 23 54  1  0  0  0  0
 23 55  1  0  0  0  0
 24 27  1  0  0  0  0
 24 56  1  0  0  0  0
 25 57  1  0  0  0  0
 25 58  1  0  0  0  0
 26 32  1  0  0  0  0
 26 34  1  0  0  0  0
 26 36  1  1  0  0  0
 28 33  1  0  0  0  0
 28 59  1  0  0  0  0
 29 60  1  0  0  0  0
 29 61  1  0  0  0  0
 29 62  1  0  0  0  0
 30 63  1  0  0  0  0
 30 64  1  0  0  0  0
 30 65  1  0  0  0  0
 31 66  1  0  0  0  0
 31 67  1  0  0  0  0
 32 33  1  0  0  0  0
 32 68  1  0  0  0  0
 33 69  1  0  0  0  0
 34 70  1  0  0  0  0
 35 37  1  0  0  0  0
 35 38  2  0  0  0  0
 36 71  1  0  0  0  0
 36 72  1  0  0  0  0
 36 73  1  0  0  0  0
 37 39  2  0  0  0  0
 37 77  1  0  0  0  0
 38 78  1  0  0  0  0
 39 79  1  0  0  0  0
 40 44  1  0  0  0  0
 41 45  1  0  0  0  0
 42 43  1  0  0  0  0
 43 46  1  0  0  0  0
 43 47  1  1  0  0  0
 43 80  1  0  0  0  0
 44 81  1  0  0  0  0
 44 82  1  0  0  0  0
 44 83  1  0  0  0  0
 45 84  1  0  0  0  0
 45 85  1  0  0  0  0
 45 86  1  0  0  0  0
 46 48  1  0  0  0  0
 46 87  1  0  0  0  0
 46 88  1  0  0  0  0
 47 89  1  0  0  0  0
 47 90  1  0  0  0  0
 47 91  1  0  0  0  0
 48 92  1  0  0  0  0
 48 93  1  0  0  0  0
 48 94  1  0  0  0  0
M  END
> <PUBCHEM_COMPOUND_CID>
5462417

> <PUBCHEM_COMPOUND_CANONICALIZED>
1

> <PUBCHEM_CACTVS_COMPLEXITY>
1400

> <PUBCHEM_CACTVS_HBOND_ACCEPTOR>
13

> <PUBCHEM_CACTVS_HBOND_DONOR>
3

> <PUBCHEM_CACTVS_ROTATABLE_BOND>
9

> <PUBCHEM_CACTVS_SUBSKEYS>
AAADcfB8PAAAAAAAAAAAAAAAEgAAAaIAAAA0aMECAAASAGDRgAAAGgAACAAAD1SwmAMyDIAABkCIAqjSiAICCAAkIAAIiAFGCMgdNhIENQqiWSClwBEPKYPK7PzPgAAAAAAAAADAAAYQADCAAYAADAAAAA==

> <PUBCHEM_IUPAC_INCHI>
InChI=1S/C35H46O13/c1-8-15(2)29(42)47-30-31(5)20-12-21(38)33(7)25(34(20,14-44-30)27(41)24(45-16(3)36)28(31)46-17(4)37)23(39)26(40)32(6)19(18-9-10-43-13-18)11-22-35(32,33)48-22/h9-10,13,15,19-22,24-28,30,38,40-41H,8,11-12,14H2,1-7H3/t15-,19+,20+,21-,22-,24-,25+,26-,27+,28-,30?,31-,32-,33-,34+,35-/m1/s1

> <PUBCHEM_IUPAC_INCHIKEY>
AYBKFVIPPCLFDH-KPZLONJUSA-N

> <PUBCHEM_XLOGP3_AA>
1.7

> <PUBCHEM_EXACT_MASS>
674.293842

> <PUBCHEM_MOLECULAR_FORMULA>
C35H46O13

> <PUBCHEM_MOLECULAR_WEIGHT>
674.73194

> <PUBCHEM_OPENEYE_CAN_SMILES>
CCC(C)C(=O)OC1C2(C3CC(C4(C(C3(CO1)C(C(C2OC(=O)C)OC(=O)C)O)C(=O)C(C5(C46C(O6)CC5C7=COC=C7)C)O)C)O)C

> <PUBCHEM_OPENEYE_ISO_SMILES>
CC[C@@H](C)C(=O)OC1[C@@]2([C@@H]3C[C@H]([C@@]4([C@@H]([C@@]3(CO1)[C@H]([C@H]([C@H]2OC(=O)C)OC(=O)C)O)C(=O)[C@H]([C@@]5([C@]46[C@H](O6)C[C@H]5C7=COC=C7)C)O)C)O)C

> <PUBCHEM_CACTVS_TPSA>
192

> <PUBCHEM_MONOISOTOPIC_WEIGHT>
674.293842

> <PUBCHEM_TOTAL_CHARGE>
0

> <PUBCHEM_HEAVY_ATOM_COUNT>
48

> <PUBCHEM_ATOM_DEF_STEREO_COUNT>
15

> <PUBCHEM_ATOM_UDEF_STEREO_COUNT>
1

> <PUBCHEM_BOND_DEF_STEREO_COUNT>
0

> <PUBCHEM_BOND_UDEF_STEREO_COUNT>
0

> <PUBCHEM_ISOTOPIC_ATOM_COUNT>
0

> <PUBCHEM_COMPONENT_COUNT>
1

> <PUBCHEM_CACTVS_TAUTO_COUNT>
4

> <PUBCHEM_COORDINATE_TYPE>
1
5
255

> <PUBCHEM_BONDANNOTATIONS>
14  1  5
10  38  8
10  39  8
15  29  5
16  30  6
17  49  6
18  50  6
19  31  5
20  35  6
21  52  6
26  36  5
22  3  6
34  70  3
35  37  8
35  38  8
37  39  8
24  4  5
43  47  5
28  5  6
32  7  6
33  8  6

$$$$

