   Color/Form

     * Yellowish crystals
     * COLORLESS RHOMBIC NEEDLES
     * Orthorhombic crystals from alcohol and ether
     * Crystalline solid

   from [1]HSDB

   Odor

     * Bitter almond
     * Weak aromatic odor

   from [2]HSDB

   Boiling Point
        238 deg C
   from [3]HSDB

   Melting Point
        53-54 deg C
   from [4]HSDB

   Density/Specific Gravity
        1.1038 @ 75 deg/4 deg C
   from [5]HSDB

   Heat of Combustion
        897.0 kg.cal @ 20 deg C (liquid); 888.6 kg.cal @ 20 deg C (solid)
   from [6]HSDB

   Heat of Vaporization
        11,915.0 gram cal/gram mole
   from [7]HSDB

   Octanol/Water Partition Coefficient
        log Kow= 2.37
   from [8]HSDB

   Solubilities

     * Sol in alcohol, benzene, ether, chloroform, acetone
     * Soluble in ethanol; very soluble in ethyl ether, acetone, benzene,
       carbon tetrachloride, chloroform, pyridine, toluene, carbon
       disulfide.
     * In water, 442 mg/L @ 30 deg C

   from [9]HSDB

   Spectral Properties

     * INDEX OF REFRACTION: 1.5346 @ 62.5 DEG C
     * SADTLER REF NUMBER: 4693 (IR, PRISM); 438 (IR, GRATING); MAX
       ABSORPTION (HEXANE): 265 NM (LOG E= 4.02)
     * IR: 5633 (Coblentz Society Spectral Collection)
     * UV: 1293 (Sadtler Research Laboratories Spectral Collection)
     * NMR: 677 (Sadtler Research Laboratories Spectral Collection)
     * RAMAN: 301 (Sadtler Research Laboratories spectral collection)
     * MASS: 72131(NIST/EPA/MSDC Mass Spectra Database, 1990 version)

   from [10]HSDB

   Surface Tension
        36.83 dynes/cm @ 60 deg C; 35.64 dynes/cm @ 70 deg C
   from [11]HSDB

   Vapor Density
        4.72 (AIR = 1)
   from [12]HSDB

   Vapor Pressure
        0.164 mm Hg @ 25 deg C
   from [13]HSDB

   Other Chemical/Physical Properties

     * % IN SATURATED AIR: 0.17 @ 65 DEG C
     * Boiling point 105 deg C @ 9 mm Hg
     * VAPOR PRESSURE: 1.3 MM HG AT 65 DEG C
     * Henry's Law constant = 5.63X10-6 atm-cu m/mole @ 25 deg C
     * Hydroxyl radical reaction rate constant =7.7X10-13 cu
       cm/molecule-sec @ 25 deg C /Estimated/

   from [14]HSDB

   Computed Properties
   Molecular Weight                  137.13598 [g/mol]
   Molecular Formula                 C[7]H[7]NO[2]
   XLogP3                            2.4
   H-Bond Donor                      0
   H-Bond Acceptor                   2
   Rotatable Bond Count              0
   Exact Mass                        137.047678
   MonoIsotopic Mass                 137.047678
   Topological Polar Surface Area    45.8
   Heavy Atom Count                  10
   Formal Charge                     0
   Complexity                        122
   Isotope Atom Count                0
   Defined Atom Stereocenter Count   0
   Undefined Atom Stereocenter Count 0
   Defined Bond Stereocenter Count   0
   Undefined Bond Stereocenter Count 0
   Covalently-Bonded Unit Count      1
   Feature 3D Acceptor Count         2
   Feature 3D Anion Count            1
   Feature 3D Ring Count             1
   Effective Rotor Count             1
   Conformer Sampling RMSD           0.4
   CID Conformer Count               [15]1

References

   1. http://toxnet.nlm.nih.gov/cgi-bin/sis/search/r?dbs+hsdb:@term+@rn+@rel+99-99-0
   2. http://toxnet.nlm.nih.gov/cgi-bin/sis/search/r?dbs+hsdb:@term+@rn+@rel+99-99-0
   3. http://toxnet.nlm.nih.gov/cgi-bin/sis/search/r?dbs+hsdb:@term+@rn+@rel+99-99-0
   4. http://toxnet.nlm.nih.gov/cgi-bin/sis/search/r?dbs+hsdb:@term+@rn+@rel+99-99-0
   5. http://toxnet.nlm.nih.gov/cgi-bin/sis/search/r?dbs+hsdb:@term+@rn+@rel+99-99-0
   6. http://toxnet.nlm.nih.gov/cgi-bin/sis/search/r?dbs+hsdb:@term+@rn+@rel+99-99-0
   7. http://toxnet.nlm.nih.gov/cgi-bin/sis/search/r?dbs+hsdb:@term+@rn+@rel+99-99-0
   8. http://toxnet.nlm.nih.gov/cgi-bin/sis/search/r?dbs+hsdb:@term+@rn+@rel+99-99-0
   9. http://toxnet.nlm.nih.gov/cgi-bin/sis/search/r?dbs+hsdb:@term+@rn+@rel+99-99-0
  10. http://toxnet.nlm.nih.gov/cgi-bin/sis/search/r?dbs+hsdb:@term+@rn+@rel+99-99-0
  11. http://toxnet.nlm.nih.gov/cgi-bin/sis/search/r?dbs+hsdb:@term+@rn+@rel+99-99-0
  12. http://toxnet.nlm.nih.gov/cgi-bin/sis/search/r?dbs+hsdb:@term+@rn+@rel+99-99-0
  13. http://toxnet.nlm.nih.gov/cgi-bin/sis/search/r?dbs+hsdb:@term+@rn+@rel+99-99-0
  14. http://toxnet.nlm.nih.gov/cgi-bin/sis/search/r?dbs+hsdb:@term+@rn+@rel+99-99-0
  15. http://pubchem.ncbi.nlm.nih.gov/vw3d/vw3d.cgi?cid=7473
