   Color/Form
        Very small monoclinic crystals from diluted alcohol.
   from [1]HSDB

   Melting Point
        282 deg C
   from [2]HSDB

   Density/Specific Gravity
        1.27
   from [3]HSDB

   Solubilities
        Sol in alcohol, dioxane, chloroform, ether, vegetable oils; freely
   sol in pyridine, in solns of fixed alkali hydroxides
   from [4]HSDB

   Spectral Properties

     * Specific optical rotation at D (sodium) line: +58 deg, +/-5 deg
       (0.04 g in 1 ml dioxane).
     * UV max: 280 nm

   from [5]HSDB

   Other Chemical/Physical Properties

     * During heating on the microscope heating stage, rearrangement of
       the crystal structure takes place at 270 deg C and 275 deg C (rate
       of heating 4 deg C/min, Kofler microscope heating stage).
     * Precipated by digitonin

   from [6]HSDB

   Computed Properties
   Molecular Weight                  288.38136 [g/mol]
   Molecular Formula                 C[18]H[24]O[3]
   XLogP3                            2.5
   H-Bond Donor                      3
   H-Bond Acceptor                   3
   Rotatable Bond Count              0
   Tautomer Count                    9
   Exact Mass                        288.172545
   MonoIsotopic Mass                 288.172545
   Topological Polar Surface Area    60.7
   Heavy Atom Count                  21
   Formal Charge                     0
   Complexity                        411
   Isotope Atom Count                0
   Defined Atom Stereocenter Count   6
   Undefined Atom Stereocenter Count 0
   Defined Bond Stereocenter Count   0
   Undefined Bond Stereocenter Count 0
   Covalently-Bonded Unit Count      1
   Feature 3D Acceptor Count         2
   Feature 3D Donor Count            3
   Feature 3D Ring Count             4
   Effective Rotor Count             1.4
   Conformer Sampling RMSD           0.6
   CID Conformer Count               [7]1

References

   1. http://toxnet.nlm.nih.gov/cgi-bin/sis/search/r?dbs+hsdb:@term+@rn+@rel+50-27-1
   2. http://toxnet.nlm.nih.gov/cgi-bin/sis/search/r?dbs+hsdb:@term+@rn+@rel+50-27-1
   3. http://toxnet.nlm.nih.gov/cgi-bin/sis/search/r?dbs+hsdb:@term+@rn+@rel+50-27-1
   4. http://toxnet.nlm.nih.gov/cgi-bin/sis/search/r?dbs+hsdb:@term+@rn+@rel+50-27-1
   5. http://toxnet.nlm.nih.gov/cgi-bin/sis/search/r?dbs+hsdb:@term+@rn+@rel+50-27-1
   6. http://toxnet.nlm.nih.gov/cgi-bin/sis/search/r?dbs+hsdb:@term+@rn+@rel+50-27-1
   7. http://pubchem.ncbi.nlm.nih.gov/vw3d/vw3d.cgi?cid=5756
