   Chemical and Physical Properties References

   [1]USDA ARS - USDA chemical properties
   from [2]ChemIDplus

   Color/Form

     * Colorless crystals
     * White crystalline powder

   from [3]HSDB

   Odor
        Phenol-like odor
   from [4]HSDB

   Melting Point
        119 deg C
   from [5]HSDB

   Corrosivity
        Non-corrosive
   from [6]HSDB

   Octanol/Water Partition Coefficient
        log Kow = 2.92
   from [7]HSDB

   Solubilities

     * 200 g/l in dichloromethane; 53 g/l in isopropanol; 33 g/l in
       toluene; 1.3 g/l in hexane
     * In water, 27 mg/l @ 20 deg C
     * Soluble in organic solvents.

   from [8]HSDB

   Spectral Properties
        Intense mass spectral peaks: 144 M/z (100%), 115 M/z (44%), 116
   M/z (37%), 145 M/z (14%)
   from [9]HSDB

   Vapor Pressure
        2.7X10-7 mm Hg @ 25 deg C
   from [10]HSDB

   Other Chemical/Physical Properties

     * MAY BE RECRYSTALLIZED FROM BENZENE OR XYLENE
     * The crystal and molecular structure of Mesurol was determined by
       three-dimensional X-ray analysis; the molecule consists of 3
       approximately planar sections. [Takusagawa F, Jacobson RA; J Agric
       Food Chem 25 (2): 329-33 (1977)] [11]PubMed Abstract
     * Vapor (gas) specific gravity: 7.77
     * Henry's Law constant = 1.18X10-9 atm-cu m/mol @ 20 deg C

   from [12]HSDB

   Computed Properties
   Molecular Weight                  225.3073 [g/mol]
   Molecular Formula                 C[11]H[15]NO[2]S
   XLogP3                            2.9
   H-Bond Donor                      1
   H-Bond Acceptor                   3
   Rotatable Bond Count              3
   Tautomer Count                    2
   Exact Mass                        225.08235
   MonoIsotopic Mass                 225.08235
   Topological Polar Surface Area    63.6
   Heavy Atom Count                  15
   Formal Charge                     0
   Complexity                        211
   Isotope Atom Count                0
   Defined Atom Stereocenter Count   0
   Undefined Atom Stereocenter Count 0
   Defined Bond Stereocenter Count   0
   Undefined Bond Stereocenter Count 0
   Covalently-Bonded Unit Count      1
   Feature 3D Acceptor Count         1
   Feature 3D Donor Count            1
   Feature 3D Hydrophobe Count       1
   Feature 3D Ring Count             1
   Effective Rotor Count             4
   Conformer Sampling RMSD           0.6
   CID Conformer Count               [13]28

References

   1. http://www.ars.usda.gov/SP2UserFiles/ad_hoc/12755100DatabaseFiles/PesticidePropertiesDatabase/IndividualPesticideFiles/METHIOCARB.TXT
   2. http://chem.sis.nlm.nih.gov/chemidplus/
   3. http://toxnet.nlm.nih.gov/cgi-bin/sis/search/r?dbs+hsdb:@term+@rn+@rel+2032-65-7
   4. http://toxnet.nlm.nih.gov/cgi-bin/sis/search/r?dbs+hsdb:@term+@rn+@rel+2032-65-7
   5. http://toxnet.nlm.nih.gov/cgi-bin/sis/search/r?dbs+hsdb:@term+@rn+@rel+2032-65-7
   6. http://toxnet.nlm.nih.gov/cgi-bin/sis/search/r?dbs+hsdb:@term+@rn+@rel+2032-65-7
   7. http://toxnet.nlm.nih.gov/cgi-bin/sis/search/r?dbs+hsdb:@term+@rn+@rel+2032-65-7
   8. http://toxnet.nlm.nih.gov/cgi-bin/sis/search/r?dbs+hsdb:@term+@rn+@rel+2032-65-7
   9. http://toxnet.nlm.nih.gov/cgi-bin/sis/search/r?dbs+hsdb:@term+@rn+@rel+2032-65-7
  10. http://toxnet.nlm.nih.gov/cgi-bin/sis/search/r?dbs+hsdb:@term+@rn+@rel+2032-65-7
  11. http://www.ncbi.nlm.nih.gov/entrez/query.fcgi?cmd=Retrieve&db=pubmed&dopt=Abstract&list_uids=838969
  12. http://toxnet.nlm.nih.gov/cgi-bin/sis/search/r?dbs+hsdb:@term+@rn+@rel+2032-65-7
  13. http://pubchem.ncbi.nlm.nih.gov/vw3d/vw3d.cgi?cid=16248
