5548
  -OEChem-06261200442D

 84 83  0     1  0  0  0  0  0999 V2000
    9.4651   -2.0950    0.0000 O   0  0  0  0  0  0  0  0  0  0  0  0
   29.3837    0.4050    0.0000 O   0  0  0  0  0  0  0  0  0  0  0  0
    2.5369    1.9050    0.0000 O   0  0  0  0  0  0  0  0  0  0  0  0
   22.4555   -0.5950    0.0000 C   0  0  0  0  0  0  0  0  0  0  0  0
   23.3215   -1.0950    0.0000 C   0  0  0  0  0  0  0  0  0  0  0  0
   21.5895   -1.0950    0.0000 C   0  0  0  0  0  0  0  0  0  0  0  0
   24.1876   -0.5950    0.0000 C   0  0  0  0  0  0  0  0  0  0  0  0
   20.7235   -0.5950    0.0000 C   0  0  0  0  0  0  0  0  0  0  0  0
   13.7953   -0.5950    0.0000 C   0  0  0  0  0  0  0  0  0  0  0  0
   12.9292   -1.0950    0.0000 C   0  0  0  0  0  0  0  0  0  0  0  0
   14.6613   -1.0950    0.0000 C   0  0  0  0  0  0  0  0  0  0  0  0
   25.0536   -1.0950    0.0000 C   0  0  0  0  0  0  0  0  0  0  0  0
   19.8574   -1.0950    0.0000 C   0  0  0  0  0  0  0  0  0  0  0  0
   12.0632   -0.5950    0.0000 C   0  0  0  0  0  0  0  0  0  0  0  0
   15.5273   -0.5950    0.0000 C   0  0  0  0  0  0  0  0  0  0  0  0
   11.1972   -1.0950    0.0000 C   0  0  0  0  0  0  0  0  0  0  0  0
   18.9914   -0.5950    0.0000 C   0  0  0  0  0  0  0  0  0  0  0  0
   25.9196   -0.5950    0.0000 C   0  0  0  0  0  0  0  0  0  0  0  0
   16.3933   -1.0950    0.0000 C   0  0  0  0  0  0  0  0  0  0  0  0
   10.3312   -0.5950    0.0000 C   0  0  0  0  0  0  0  0  0  0  0  0
   18.1254   -1.0950    0.0000 C   0  0  0  0  0  0  0  0  0  0  0  0
   26.7856   -1.0950    0.0000 C   0  0  0  0  0  0  0  0  0  0  0  0
   17.2594   -0.5950    0.0000 C   0  0  0  0  0  0  0  0  0  0  0  0
    9.4651   -1.0950    0.0000 C   0  0  3  0  0  0  0  0  0  0  0  0
   27.6517   -0.5950    0.0000 C   0  0  0  0  0  0  0  0  0  0  0  0
   28.5177   -1.0950    0.0000 C   0  0  0  0  0  0  0  0  0  0  0  0
    8.5991   -0.5950    0.0000 C   0  0  0  0  0  0  0  0  0  0  0  0
   29.3837   -0.5950    0.0000 C   0  0  3  0  0  0  0  0  0  0  0  0
    7.7331   -0.0950    0.0000 C   0  0  0  0  0  0  0  0  0  0  0  0
   30.2497   -1.0950    0.0000 C   0  0  0  0  0  0  0  0  0  0  0  0
    6.8671    0.4050    0.0000 C   0  0  0  0  0  0  0  0  0  0  0  0
   31.1158   -1.5950    0.0000 C   0  0  0  0  0  0  0  0  0  0  0  0
    6.0010    0.9050    0.0000 C   0  0  0  0  0  0  0  0  0  0  0  0
    5.1350    1.4050    0.0000 C   0  0  0  0  0  0  0  0  0  0  0  0
    4.2690    1.9050    0.0000 C   0  0  0  0  0  0  0  0  0  0  0  0
    3.4030    2.4050    0.0000 C   0  0  0  0  0  0  0  0  0  0  0  0
   22.8540   -0.1201    0.0000 H   0  0  0  0  0  0  0  0  0  0  0  0
   22.0570   -0.1201    0.0000 H   0  0  0  0  0  0  0  0  0  0  0  0
   22.9230   -1.5700    0.0000 H   0  0  0  0  0  0  0  0  0  0  0  0
   23.7201   -1.5700    0.0000 H   0  0  0  0  0  0  0  0  0  0  0  0
   21.1910   -1.5700    0.0000 H   0  0  0  0  0  0  0  0  0  0  0  0
   21.9880   -1.5700    0.0000 H   0  0  0  0  0  0  0  0  0  0  0  0
   24.5861   -0.1201    0.0000 H   0  0  0  0  0  0  0  0  0  0  0  0
   23.7890   -0.1201    0.0000 H   0  0  0  0  0  0  0  0  0  0  0  0
   21.1220   -0.1201    0.0000 H   0  0  0  0  0  0  0  0  0  0  0  0
   20.3249   -0.1201    0.0000 H   0  0  0  0  0  0  0  0  0  0  0  0
   14.1938   -0.1201    0.0000 H   0  0  0  0  0  0  0  0  0  0  0  0
   13.3967   -0.1201    0.0000 H   0  0  0  0  0  0  0  0  0  0  0  0
   12.5307   -1.5700    0.0000 H   0  0  0  0  0  0  0  0  0  0  0  0
   13.3278   -1.5700    0.0000 H   0  0  0  0  0  0  0  0  0  0  0  0
   14.2628   -1.5700    0.0000 H   0  0  0  0  0  0  0  0  0  0  0  0
   15.0598   -1.5700    0.0000 H   0  0  0  0  0  0  0  0  0  0  0  0
   24.6551   -1.5700    0.0000 H   0  0  0  0  0  0  0  0  0  0  0  0
   25.4521   -1.5700    0.0000 H   0  0  0  0  0  0  0  0  0  0  0  0
   19.4589   -1.5700    0.0000 H   0  0  0  0  0  0  0  0  0  0  0  0
   20.2560   -1.5700    0.0000 H   0  0  0  0  0  0  0  0  0  0  0  0
   12.4617   -0.1201    0.0000 H   0  0  0  0  0  0  0  0  0  0  0  0
   11.6647   -0.1201    0.0000 H   0  0  0  0  0  0  0  0  0  0  0  0
   15.9258   -0.1201    0.0000 H   0  0  0  0  0  0  0  0  0  0  0  0
   15.1288   -0.1201    0.0000 H   0  0  0  0  0  0  0  0  0  0  0  0
   10.7987   -1.5700    0.0000 H   0  0  0  0  0  0  0  0  0  0  0  0
   11.5957   -1.5700    0.0000 H   0  0  0  0  0  0  0  0  0  0  0  0
   19.3899   -0.1201    0.0000 H   0  0  0  0  0  0  0  0  0  0  0  0
   18.5929   -0.1201    0.0000 H   0  0  0  0  0  0  0  0  0  0  0  0
   26.3182   -0.1201    0.0000 H   0  0  0  0  0  0  0  0  0  0  0  0
   25.5211   -0.1201    0.0000 H   0  0  0  0  0  0  0  0  0  0  0  0
   15.9948   -1.5700    0.0000 H   0  0  0  0  0  0  0  0  0  0  0  0
   16.7919   -1.5700    0.0000 H   0  0  0  0  0  0  0  0  0  0  0  0
   10.7297   -0.1201    0.0000 H   0  0  0  0  0  0  0  0  0  0  0  0
    9.9326   -0.1201    0.0000 H   0  0  0  0  0  0  0  0  0  0  0  0
   18.1254   -1.7150    0.0000 H   0  0  0  0  0  0  0  0  0  0  0  0
   26.3871   -1.5700    0.0000 H   0  0  0  0  0  0  0  0  0  0  0  0
   27.1842   -1.5700    0.0000 H   0  0  0  0  0  0  0  0  0  0  0  0
   17.2594    0.0250    0.0000 H   0  0  0  0  0  0  0  0  0  0  0  0
   10.2013   -1.5200    0.0000 H   0  0  0  0  0  0  0  0  0  0  0  0
   27.6517    0.0250    0.0000 H   0  0  0  0  0  0  0  0  0  0  0  0
   28.5177   -1.7150    0.0000 H   0  0  0  0  0  0  0  0  0  0  0  0
    8.9282   -2.4050    0.0000 H   0  0  0  0  0  0  0  0  0  0  0  0
   30.1198   -0.1700    0.0000 H   0  0  0  0  0  0  0  0  0  0  0  0
   29.9207    0.7150    0.0000 H   0  0  0  0  0  0  0  0  0  0  0  0
   31.6527   -1.9050    0.0000 H   0  0  0  0  0  0  0  0  0  0  0  0
    3.8015    2.8800    0.0000 H   0  0  0  0  0  0  0  0  0  0  0  0
    3.0044    2.8800    0.0000 H   0  0  0  0  0  0  0  0  0  0  0  0
    2.0000    2.2150    0.0000 H   0  0  0  0  0  0  0  0  0  0  0  0
  1 24  1  0  0  0  0
  1 78  1  0  0  0  0
  2 28  1  0  0  0  0
  2 80  1  0  0  0  0
  3 36  1  0  0  0  0
  3 84  1  0  0  0  0
  4  5  1  0  0  0  0
  4  6  1  0  0  0  0
  4 37  1  0  0  0  0
  4 38  1  0  0  0  0
  5  7  1  0  0  0  0
  5 39  1  0  0  0  0
  5 40  1  0  0  0  0
  6  8  1  0  0  0  0
  6 41  1  0  0  0  0
  6 42  1  0  0  0  0
  7 12  1  0  0  0  0
  7 43  1  0  0  0  0
  7 44  1  0  0  0  0
  8 13  1  0  0  0  0
  8 45  1  0  0  0  0
  8 46  1  0  0  0  0
  9 10  1  0  0  0  0
  9 11  1  0  0  0  0
  9 47  1  0  0  0  0
  9 48  1  0  0  0  0
 10 14  1  0  0  0  0
 10 49  1  0  0  0  0
 10 50  1  0  0  0  0
 11 15  1  0  0  0  0
 11 51  1  0  0  0  0
 11 52  1  0  0  0  0
 12 18  1  0  0  0  0
 12 53  1  0  0  0  0
 12 54  1  0  0  0  0
 13 17  1  0  0  0  0
 13 55  1  0  0  0  0
 13 56  1  0  0  0  0
 14 16  1  0  0  0  0
 14 57  1  0  0  0  0
 14 58  1  0  0  0  0
 15 19  1  0  0  0  0
 15 59  1  0  0  0  0
 15 60  1  0  0  0  0
 16 20  1  0  0  0  0
 16 61  1  0  0  0  0
 16 62  1  0  0  0  0
 17 21  1  0  0  0  0
 17 63  1  0  0  0  0
 17 64  1  0  0  0  0
 18 22  1  0  0  0  0
 18 65  1  0  0  0  0
 18 66  1  0  0  0  0
 19 23  1  0  0  0  0
 19 67  1  0  0  0  0
 19 68  1  0  0  0  0
 20 24  1  0  0  0  0
 20 69  1  0  0  0  0
 20 70  1  0  0  0  0
 21 23  2  3  0  0  0
 21 71  1  0  0  0  0
 22 25  1  0  0  0  0
 22 72  1  0  0  0  0
 22 73  1  0  0  0  0
 23 74  1  0  0  0  0
 24 27  1  0  0  0  0
 24 75  1  0  0  0  0
 25 26  2  3  0  0  0
 25 76  1  0  0  0  0
 26 28  1  0  0  0  0
 26 77  1  0  0  0  0
 27 29  3  0  0  0  0
 28 30  1  0  0  0  0
 28 79  1  0  0  0  0
 29 31  1  0  0  0  0
 30 32  3  0  0  0  0
 31 33  3  0  0  0  0
 32 81  1  0  0  0  0
 33 34  1  0  0  0  0
 34 35  3  0  0  0  0
 35 36  1  0  0  0  0
 36 82  1  0  0  0  0
 36 83  1  0  0  0  0
M  END
> <PUBCHEM_COMPOUND_CID>
5548

> <PUBCHEM_COMPOUND_CANONICALIZED>
1

> <PUBCHEM_CACTVS_COMPLEXITY>
830

> <PUBCHEM_CACTVS_HBOND_ACCEPTOR>
3

> <PUBCHEM_CACTVS_HBOND_DONOR>
3

> <PUBCHEM_CACTVS_ROTATABLE_BOND>
23

> <PUBCHEM_CACTVS_SUBSKEYS>
AAADcfB8MAAAAAAAAAAAAAAAAAAAAAAAAAAAAAAAAAAAAAAAAAAAGgAACAAACBSggAIAAAAAAgDAGCBCAAgAAAAgAAAICAAAAAgAFAIAAQAAUAAEgAAIEAOAwKAAAAAAAAAAAAAAAAAAAAAAAAAAAAAAAA==

> <PUBCHEM_IUPAC_OPENEYE_NAME>
tritriaconta-17,29-dien-2,4,6,32-tetrayne-1,8,31-triol

> <PUBCHEM_IUPAC_CAS_NAME>
tritriaconta-17,29-dien-2,4,6,32-tetrayne-1,8,31-triol

> <PUBCHEM_IUPAC_NAME>
tritriaconta-17,29-dien-2,4,6,32-tetrayne-1,8,31-triol

> <PUBCHEM_IUPAC_SYSTEMATIC_NAME>
tritriaconta-17,29-dien-2,4,6,32-tetrayne-1,8,31-triol

> <PUBCHEM_IUPAC_TRADITIONAL_NAME>
tritriaconta-17,29-dien-2,4,6,32-tetrayne-1,8,31-triol

> <PUBCHEM_IUPAC_INCHI>
InChI=1S/C33H48O3/c1-2-32(35)28-24-20-17-15-13-11-9-7-5-3-4-6-8-10-12-14-16-18-21-25-29-33(36)30-26-22-19-23-27-31-34/h1,6,8,24,28,32-36H,3-5,7,9-18,20-21,25,29,31H2

> <PUBCHEM_IUPAC_INCHIKEY>
OWUBELJGCSVHLJ-UHFFFAOYSA-N

> <PUBCHEM_XLOGP3_AA>
9.1

> <PUBCHEM_EXACT_MASS>
492.360345

> <PUBCHEM_MOLECULAR_FORMULA>
C33H48O3

> <PUBCHEM_MOLECULAR_WEIGHT>
492.73242

> <PUBCHEM_OPENEYE_CAN_SMILES>
C#CC(C=CCCCCCCCCCCC=CCCCCCCCCC(C#CC#CC#CCO)O)O

> <PUBCHEM_OPENEYE_ISO_SMILES>
C#CC(C=CCCCCCCCCCCC=CCCCCCCCCC(C#CC#CC#CCO)O)O

> <PUBCHEM_CACTVS_TPSA>
60.7

> <PUBCHEM_MONOISOTOPIC_WEIGHT>
492.360345

> <PUBCHEM_TOTAL_CHARGE>
0

> <PUBCHEM_HEAVY_ATOM_COUNT>
36

> <PUBCHEM_ATOM_DEF_STEREO_COUNT>
0

> <PUBCHEM_ATOM_UDEF_STEREO_COUNT>
2

> <PUBCHEM_BOND_DEF_STEREO_COUNT>
0

> <PUBCHEM_BOND_UDEF_STEREO_COUNT>
2

> <PUBCHEM_ISOTOPIC_ATOM_COUNT>
0

> <PUBCHEM_COMPONENT_COUNT>
1

> <PUBCHEM_CACTVS_TAUTO_COUNT>
1

> <PUBCHEM_COORDINATE_TYPE>
1
5
255

> <PUBCHEM_BONDANNOTATIONS>
21  23  1
24  75  3
25  26  1
28  79  3

$$$$

