442333
  -OEChem-07051212572D

 85 91  0     1  0  0  0  0  0999 V2000
    7.1982    0.8940    0.0000 O   0  0  0  0  0  0  0  0  0  0  0  0
    7.7312    3.3375    0.0000 O   0  0  0  0  0  0  0  0  0  0  0  0
    6.6738    3.3344    0.0000 O   0  0  0  0  0  0  0  0  0  0  0  0
    9.4311    3.7610    0.0000 O   0  0  0  0  0  0  0  0  0  0  0  0
    5.0588   -3.0106    0.0000 O   0  0  0  0  0  0  0  0  0  0  0  0
    3.3259   -4.0106    0.0000 O   0  0  0  0  0  0  0  0  0  0  0  0
    9.7975   -0.6067    0.0000 N   0  0  3  0  0  0  0  0  0  0  0  0
    2.8660    1.3942    0.0000 N   0  0  3  0  0  0  0  0  0  0  0  0
    8.9311   -0.1065    0.0000 C   0  0  2  0  0  0  0  0  0  0  0  0
    3.7325    0.8940    0.0000 C   0  0  1  0  0  0  0  0  0  0  0  0
    8.9311    0.8940    0.0000 C   0  0  0  0  0  0  0  0  0  0  0  0
    4.5989    1.3942    0.0000 C   0  0  0  0  0  0  0  0  0  0  0  0
   10.6640   -0.1065    0.0000 C   0  0  0  0  0  0  0  0  0  0  0  0
    9.7975    1.3942    0.0000 C   0  0  0  0  0  0  0  0  0  0  0  0
   10.6640    0.8940    0.0000 C   0  0  0  0  0  0  0  0  0  0  0  0
    8.5245   -1.0097    0.0000 C   0  0  0  0  0  0  0  0  0  0  0  0
    2.8660    2.3947    0.0000 C   0  0  0  0  0  0  0  0  0  0  0  0
    4.5989    2.3947    0.0000 C   0  0  0  0  0  0  0  0  0  0  0  0
    3.7325    2.8949    0.0000 C   0  0  0  0  0  0  0  0  0  0  0  0
    3.3259   -0.0092    0.0000 C   0  0  0  0  0  0  0  0  0  0  0  0
    8.0646    1.3942    0.0000 C   0  0  0  0  0  0  0  0  0  0  0  0
    5.4653    0.8940    0.0000 C   0  0  0  0  0  0  0  0  0  0  0  0
    9.7975   -1.6067    0.0000 C   0  0  0  0  0  0  0  0  0  0  0  0
    9.7975    2.3947    0.0000 C   0  0  0  0  0  0  0  0  0  0  0  0
    6.3318    1.3942    0.0000 C   0  0  0  0  0  0  0  0  0  0  0  0
    5.4653    2.8949    0.0000 C   0  0  0  0  0  0  0  0  0  0  0  0
    7.6581   -1.5099    0.0000 C   0  0  0  0  0  0  0  0  0  0  0  0
    2.0000    0.8942    0.0000 C   0  0  0  0  0  0  0  0  0  0  0  0
    8.0646    2.3947    0.0000 C   0  0  0  0  0  0  0  0  0  0  0  0
    3.3259   -1.0097    0.0000 C   0  0  0  0  0  0  0  0  0  0  0  0
    6.3318    2.3947    0.0000 C   0  0  0  0  0  0  0  0  0  0  0  0
    8.9311    2.8949    0.0000 C   0  0  0  0  0  0  0  0  0  0  0  0
    6.7917   -1.0097    0.0000 C   0  0  0  0  0  0  0  0  0  0  0  0
    7.6581   -2.5104    0.0000 C   0  0  0  0  0  0  0  0  0  0  0  0
    4.1924   -1.5099    0.0000 C   0  0  0  0  0  0  0  0  0  0  0  0
    2.4595   -1.5099    0.0000 C   0  0  0  0  0  0  0  0  0  0  0  0
    4.1924   -2.5104    0.0000 C   0  0  0  0  0  0  0  0  0  0  0  0
    5.9252   -1.5099    0.0000 C   0  0  0  0  0  0  0  0  0  0  0  0
    6.7917   -3.0106    0.0000 C   0  0  0  0  0  0  0  0  0  0  0  0
    5.9252   -2.5104    0.0000 C   0  0  0  0  0  0  0  0  0  0  0  0
    2.4595   -2.5104    0.0000 C   0  0  0  0  0  0  0  0  0  0  0  0
    3.3259   -3.0106    0.0000 C   0  0  0  0  0  0  0  0  0  0  0  0
    7.9138    4.3206    0.0000 C   0  0  0  0  0  0  0  0  0  0  0  0
    6.0310    4.1004    0.0000 C   0  0  0  0  0  0  0  0  0  0  0  0
   10.4311    3.7610    0.0000 C   0  0  0  0  0  0  0  0  0  0  0  0
    8.1000    0.0719    0.0000 H   0  0  0  0  0  0  0  0  0  0  0  0
    2.9235    0.6330    0.0000 H   0  0  0  0  0  0  0  0  0  0  0  0
   10.8760   -0.6891    0.0000 H   0  0  0  0  0  0  0  0  0  0  0  0
   11.2745    0.0012    0.0000 H   0  0  0  0  0  0  0  0  0  0  0  0
   11.2745    0.7863    0.0000 H   0  0  0  0  0  0  0  0  0  0  0  0
   10.8760    1.4766    0.0000 H   0  0  0  0  0  0  0  0  0  0  0  0
    8.6526   -1.6163    0.0000 H   0  0  0  0  0  0  0  0  0  0  0  0
    8.0646   -0.5939    0.0000 H   0  0  0  0  0  0  0  0  0  0  0  0
    2.6540    2.9773    0.0000 H   0  0  0  0  0  0  0  0  0  0  0  0
    2.2554    2.2870    0.0000 H   0  0  0  0  0  0  0  0  0  0  0  0
    4.1310    3.3699    0.0000 H   0  0  0  0  0  0  0  0  0  0  0  0
    3.3339    3.3699    0.0000 H   0  0  0  0  0  0  0  0  0  0  0  0
    2.8964    0.4379    0.0000 H   0  0  0  0  0  0  0  0  0  0  0  0
    3.9321   -0.1394    0.0000 H   0  0  0  0  0  0  0  0  0  0  0  0
    5.4653    0.2740    0.0000 H   0  0  0  0  0  0  0  0  0  0  0  0
    9.1775   -1.6067    0.0000 H   0  0  0  0  0  0  0  0  0  0  0  0
    9.7975   -2.2267    0.0000 H   0  0  0  0  0  0  0  0  0  0  0  0
   10.4175   -1.6067    0.0000 H   0  0  0  0  0  0  0  0  0  0  0  0
   10.3345    2.7047    0.0000 H   0  0  0  0  0  0  0  0  0  0  0  0
    5.4653    3.5149    0.0000 H   0  0  0  0  0  0  0  0  0  0  0  0
    1.6900    1.4312    0.0000 H   0  0  0  0  0  0  0  0  0  0  0  0
    1.4631    0.5842    0.0000 H   0  0  0  0  0  0  0  0  0  0  0  0
    2.3100    0.3573    0.0000 H   0  0  0  0  0  0  0  0  0  0  0  0
    6.7917   -0.3897    0.0000 H   0  0  0  0  0  0  0  0  0  0  0  0
    8.1950   -2.8204    0.0000 H   0  0  0  0  0  0  0  0  0  0  0  0
    4.7293   -1.1999    0.0000 H   0  0  0  0  0  0  0  0  0  0  0  0
    1.9225   -1.1999    0.0000 H   0  0  0  0  0  0  0  0  0  0  0  0
    5.3883   -1.1999    0.0000 H   0  0  0  0  0  0  0  0  0  0  0  0
    6.7917   -3.6306    0.0000 H   0  0  0  0  0  0  0  0  0  0  0  0
    1.9225   -2.8204    0.0000 H   0  0  0  0  0  0  0  0  0  0  0  0
    8.5234    4.2074    0.0000 H   0  0  0  0  0  0  0  0  0  0  0  0
    8.0270    4.9302    0.0000 H   0  0  0  0  0  0  0  0  0  0  0  0
    7.3042    4.4339    0.0000 H   0  0  0  0  0  0  0  0  0  0  0  0
    6.5060    4.4990    0.0000 H   0  0  0  0  0  0  0  0  0  0  0  0
    5.6325    4.5754    0.0000 H   0  0  0  0  0  0  0  0  0  0  0  0
    5.5561    3.7019    0.0000 H   0  0  0  0  0  0  0  0  0  0  0  0
   10.4311    3.1410    0.0000 H   0  0  0  0  0  0  0  0  0  0  0  0
   11.0511    3.7610    0.0000 H   0  0  0  0  0  0  0  0  0  0  0  0
   10.4311    4.3810    0.0000 H   0  0  0  0  0  0  0  0  0  0  0  0
    2.7890   -4.3206    0.0000 H   0  0  0  0  0  0  0  0  0  0  0  0
  1 21  1  0  0  0  0
  1 25  1  0  0  0  0
  2 29  1  0  0  0  0
  2 43  1  0  0  0  0
  3 31  1  0  0  0  0
  3 44  1  0  0  0  0
  4 32  1  0  0  0  0
  4 45  1  0  0  0  0
  5 37  1  0  0  0  0
  5 40  1  0  0  0  0
  6 42  1  0  0  0  0
  6 85  1  0  0  0  0
  7  9  1  0  0  0  0
  7 13  1  0  0  0  0
  7 23  1  0  0  0  0
  8 10  1  0  0  0  0
  8 17  1  0  0  0  0
  8 28  1  0  0  0  0
  9 11  1  0  0  0  0
  9 16  1  0  0  0  0
  9 46  1  6  0  0  0
 10 12  1  0  0  0  0
 10 20  1  0  0  0  0
 10 47  1  6  0  0  0
 11 14  1  0  0  0  0
 11 21  2  0  0  0  0
 12 18  1  0  0  0  0
 12 22  2  0  0  0  0
 13 15  1  0  0  0  0
 13 48  1  0  0  0  0
 13 49  1  0  0  0  0
 14 15  1  0  0  0  0
 14 24  2  0  0  0  0
 15 50  1  0  0  0  0
 15 51  1  0  0  0  0
 16 27  1  0  0  0  0
 16 52  1  0  0  0  0
 16 53  1  0  0  0  0
 17 19  1  0  0  0  0
 17 54  1  0  0  0  0
 17 55  1  0  0  0  0
 18 19  1  0  0  0  0
 18 26  2  0  0  0  0
 19 56  1  0  0  0  0
 19 57  1  0  0  0  0
 20 30  1  0  0  0  0
 20 58  1  0  0  0  0
 20 59  1  0  0  0  0
 21 29  1  0  0  0  0
 22 25  1  0  0  0  0
 22 60  1  0  0  0  0
 23 61  1  0  0  0  0
 23 62  1  0  0  0  0
 23 63  1  0  0  0  0
 24 32  1  0  0  0  0
 24 64  1  0  0  0  0
 25 31  2  0  0  0  0
 26 31  1  0  0  0  0
 26 65  1  0  0  0  0
 27 33  2  0  0  0  0
 27 34  1  0  0  0  0
 28 66  1  0  0  0  0
 28 67  1  0  0  0  0
 28 68  1  0  0  0  0
 29 32  2  0  0  0  0
 30 35  2  0  0  0  0
 30 36  1  0  0  0  0
 33 38  1  0  0  0  0
 33 69  1  0  0  0  0
 34 39  2  0  0  0  0
 34 70  1  0  0  0  0
 35 37  1  0  0  0  0
 35 71  1  0  0  0  0
 36 41  2  0  0  0  0
 36 72  1  0  0  0  0
 37 42  2  0  0  0  0
 38 40  2  0  0  0  0
 38 73  1  0  0  0  0
 39 40  1  0  0  0  0
 39 74  1  0  0  0  0
 41 42  1  0  0  0  0
 41 75  1  0  0  0  0
 43 76  1  0  0  0  0
 43 77  1  0  0  0  0
 43 78  1  0  0  0  0
 44 79  1  0  0  0  0
 44 80  1  0  0  0  0
 44 81  1  0  0  0  0
 45 82  1  0  0  0  0
 45 83  1  0  0  0  0
 45 84  1  0  0  0  0
M  END
> <PUBCHEM_COMPOUND_CID>
442333

> <PUBCHEM_COMPOUND_CANONICALIZED>
1

> <PUBCHEM_CACTVS_COMPLEXITY>
963

> <PUBCHEM_CACTVS_HBOND_ACCEPTOR>
8

> <PUBCHEM_CACTVS_HBOND_DONOR>
1

> <PUBCHEM_CACTVS_ROTATABLE_BOND>
3

> <PUBCHEM_CACTVS_SUBSKEYS>
AAADcfB/OAAAAAAAAAAAAAAAAAAAAAAAAAA8eMGCAAAAAACxVAAAHgAACAAADCzBmAYyBoMABgCAAiBCAACCCAAgIAAIiAAOjIgNJyKGsRuGeCvnwBWLuAew8P8OoAABCAAYQABAAAIQADCAAAAAAAAAAA==

> <PUBCHEM_IUPAC_INCHI>
InChI=1S/C37H40N2O6/c1-38-14-12-24-19-32(41-3)33-21-27(24)28(38)17-23-8-11-30(40)31(18-23)44-26-9-6-22(7-10-26)16-29-35-25(13-15-39(29)2)20-34(42-4)36(43-5)37(35)45-33/h6-11,18-21,28-29,40H,12-17H2,1-5H3/t28-,29+/m1/s1

> <PUBCHEM_IUPAC_INCHIKEY>
HGNHIFJNOKGSKI-WDYNHAJCSA-N

> <PUBCHEM_XLOGP3_AA>
6.3

> <PUBCHEM_EXACT_MASS>
608.288637

> <PUBCHEM_MOLECULAR_FORMULA>
C37H40N2O6

> <PUBCHEM_MOLECULAR_WEIGHT>
608.7233

> <PUBCHEM_OPENEYE_CAN_SMILES>
CN1CCC2=CC(=C(C3=C2C1CC4=CC=C(C=C4)OC5=C(C=CC(=C5)CC6C7=CC(=C(C=C7CCN6C)OC)O3)O)OC)OC

> <PUBCHEM_OPENEYE_ISO_SMILES>
CN1CCC2=CC(=C(C3=C2[C@@H]1CC4=CC=C(C=C4)OC5=C(C=CC(=C5)C[C@@H]6C7=CC(=C(C=C7CCN6C)OC)O3)O)OC)OC

> <PUBCHEM_CACTVS_TPSA>
72.9

> <PUBCHEM_MONOISOTOPIC_WEIGHT>
608.288637

> <PUBCHEM_TOTAL_CHARGE>
0

> <PUBCHEM_HEAVY_ATOM_COUNT>
45

> <PUBCHEM_ATOM_DEF_STEREO_COUNT>
2

> <PUBCHEM_ATOM_UDEF_STEREO_COUNT>
0

> <PUBCHEM_BOND_DEF_STEREO_COUNT>
0

> <PUBCHEM_BOND_UDEF_STEREO_COUNT>
0

> <PUBCHEM_ISOTOPIC_ATOM_COUNT>
0

> <PUBCHEM_COMPONENT_COUNT>
1

> <PUBCHEM_CACTVS_TAUTO_COUNT>
1

> <PUBCHEM_COORDINATE_TYPE>
1
5
255

> <PUBCHEM_BONDANNOTATIONS>
10  47  6
11  14  8
11  21  8
12  18  8
12  22  8
14  24  8
18  26  8
21  29  8
22  25  8
24  32  8
25  31  8
26  31  8
27  33  8
27  34  8
29  32  8
30  35  8
30  36  8
33  38  8
34  39  8
35  37  8
36  41  8
37  42  8
38  40  8
39  40  8
41  42  8
9  46  6

$$$$

