   Color/Form

     * Needles or plates
     * COLORLESS

   from [1]HSDB

   Taste
        Sweet
   from [2]HSDB

   Melting Point
        287 deg C (decomp)
   from [3]HSDB

   Dissociation Constants

     * pK1'= 1.78; pK2'= 5.97; pK3'= 8.97
     * pKa = 2.76 @ 0 deg C

   from [4]HSDB

   Octanol/Water Partition Coefficient
        log Kow= -3.32
   from [5]HSDB

   Solubilities

     * Insol in common neutral solvents except water
     * Insoluble in ethyl ether, acetone; slightly soluble in ethanol
     * In water, 4.56X10+4 mg/l @ 25 deg C

   from [6]HSDB

   Spectral Properties

     * MAX ABSORPTION (WATER, PH= 0): 211 NM (LOG E= 3.8)
     * Specific optical rotation:(c=0.77 in 0.5N of NaOH): -10.9 deg C at
       20 deg C/D; (c=0.75 to 3.77): -38.95 deg C at 25 deg C/D;
       (c=1.00-4.05 in 6.1N HCl): +13.34 deg C at 25 deg C/D
     * Specific optical rotation (1.13% in water): -39.7 @ 20 deg C/D
     * IR: 21318 (Sadtler Research Laboratories IR Grating Collection)
     * UV: 2-72 (Organic Electronic Spectral Data, Phillips et al, John
       Wiley & Sons, New York)
     * MASS: NIST 26153 (NIST/EPA/MCDC Mass Spectral Database 1990
       version)

   from [7]HSDB

   Other Chemical/Physical Properties

     * Softens @ 277 deg C
     * Fairly sol in water; insol in alcohol and ether; decomp 251-252 deg
       C; specific optical rotation (c= 2 in 3 moles of HCl): +8.0 deg at
       26 deg C/D /Monohydrochloride/
     * MP: 80 deg C; anhydrous, mp: 140 deg C /monohydrate/
     * SOL IN WATER; DECOMP AT 245 DEG C (ALSO REPORTED AS 196 DEG C);
       SPECIFIC OPTICAL ROTATION (C= 2) +47.6 DEG AT 20 DEG C/D
       /L-HISTIDINE DIHYDROCHLORIDE/
     * Rhombic crystals (also forms a monohydrate) /L-histidine
       monohydrochloride/; rhombic crystals, isomorphous with the mono-HCl
       /L-histidine dihydrochloride/
     * MASS: 111 (Aldermaston, Eight Peak Index of Mass Spectra, UK)
       /d-Histidine/
     * UV: 11479 (Sadtler Research Laboratories Spectral Collection)
       /dl-Histidine/
     * MASS: 111 (Aldermaston, Eight Peak Index of Mass Spectra, UK)
       /dl-Histidine/

   from [8]HSDB

   Computed Properties
   Molecular Weight                  155.15456 [g/mol]
   Molecular Formula                 C[6]H[9]N[3]O[2]
   XLogP3-AA                         -3.2
   H-Bond Donor                      3
   H-Bond Acceptor                   4
   Rotatable Bond Count              3
   Tautomer Count                    2
   Exact Mass                        155.069477
   MonoIsotopic Mass                 155.069477
   Topological Polar Surface Area    92
   Heavy Atom Count                  11
   Formal Charge                     0
   Complexity                        151
   Isotope Atom Count                0
   Defined Atom Stereocenter Count   1
   Undefined Atom Stereocenter Count 0
   Defined Bond Stereocenter Count   0
   Undefined Bond Stereocenter Count 0
   Covalently-Bonded Unit Count      1
   Feature 3D Acceptor Count         2
   Feature 3D Donor Count            2
   Feature 3D Anion Count            1
   Feature 3D Cation Count           2
   Feature 3D Ring Count             1
   Effective Rotor Count             3
   Conformer Sampling RMSD           0.6
   CID Conformer Count               [9]20

References

   1. http://toxnet.nlm.nih.gov/cgi-bin/sis/search/r?dbs+hsdb:@term+@rn+@rel+71-00-1
   2. http://toxnet.nlm.nih.gov/cgi-bin/sis/search/r?dbs+hsdb:@term+@rn+@rel+71-00-1
   3. http://toxnet.nlm.nih.gov/cgi-bin/sis/search/r?dbs+hsdb:@term+@rn+@rel+71-00-1
   4. http://toxnet.nlm.nih.gov/cgi-bin/sis/search/r?dbs+hsdb:@term+@rn+@rel+71-00-1
   5. http://toxnet.nlm.nih.gov/cgi-bin/sis/search/r?dbs+hsdb:@term+@rn+@rel+71-00-1
   6. http://toxnet.nlm.nih.gov/cgi-bin/sis/search/r?dbs+hsdb:@term+@rn+@rel+71-00-1
   7. http://toxnet.nlm.nih.gov/cgi-bin/sis/search/r?dbs+hsdb:@term+@rn+@rel+71-00-1
   8. http://toxnet.nlm.nih.gov/cgi-bin/sis/search/r?dbs+hsdb:@term+@rn+@rel+71-00-1
   9. http://pubchem.ncbi.nlm.nih.gov/vw3d/vw3d.cgi?cid=6274
