   Color/Form
        PLATELETS FROM PETROLEUM ETHER
   from [1]HSDB

   Boiling Point
        210 DEG C @ 5 MM HG
   from [2]HSDB

   Melting Point
        54-56 DEG C
   from [3]HSDB

   Octanol/Water Partition Coefficient
        log Kow = 4.535 (est)
   from [4]HSDB

   Solubilities
        VERY SPARINGLY SOL IN WATER, GLYCEROL; MORE SOL (IN ASCENDING
   DEGREE) IN PETROLEUM ETHER, ETHANOL, OLIVE OIL, ETHER, ACETONE, BENZENE
   from [5]HSDB

   Vapor Pressure
        2X10-6 mm Hg at 25 deg C (est)
   from [6]HSDB

   Computed Properties
   Molecular Weight                  268.1816 [g/mol]
   Molecular Formula                 C[14]H[15]Cl[2]N
   XLogP3-AA                         4.5
   H-Bond Donor                      0
   H-Bond Acceptor                   1
   Rotatable Bond Count              5
   Exact Mass                        267.058155
   MonoIsotopic Mass                 267.058155
   Topological Polar Surface Area    3.2
   Heavy Atom Count                  17
   Formal Charge                     0
   Complexity                        216
   Isotope Atom Count                0
   Defined Atom Stereocenter Count   0
   Undefined Atom Stereocenter Count 0
   Defined Bond Stereocenter Count   0
   Undefined Bond Stereocenter Count 0
   Covalently-Bonded Unit Count      1
   Feature 3D Cation Count           1
   Feature 3D Ring Count             2
   Effective Rotor Count             5
   Conformer Sampling RMSD           0.6
   CID Conformer Count               [7]87

References

   1. http://toxnet.nlm.nih.gov/cgi-bin/sis/search/r?dbs+hsdb:@term+@rn+@rel+494-03-1
   2. http://toxnet.nlm.nih.gov/cgi-bin/sis/search/r?dbs+hsdb:@term+@rn+@rel+494-03-1
   3. http://toxnet.nlm.nih.gov/cgi-bin/sis/search/r?dbs+hsdb:@term+@rn+@rel+494-03-1
   4. http://toxnet.nlm.nih.gov/cgi-bin/sis/search/r?dbs+hsdb:@term+@rn+@rel+494-03-1
   5. http://toxnet.nlm.nih.gov/cgi-bin/sis/search/r?dbs+hsdb:@term+@rn+@rel+494-03-1
   6. http://toxnet.nlm.nih.gov/cgi-bin/sis/search/r?dbs+hsdb:@term+@rn+@rel+494-03-1
   7. http://pubchem.ncbi.nlm.nih.gov/vw3d/vw3d.cgi?cid=10307
