11650
  -OEChem-06261205562D

 24 21  0     0  0  0  0  0  0999 V2000
    2.2690    4.1800    0.0000 O   0  0  0  0  0  0  0  0  0  0  0  0
    0.5369    4.1800    0.0000 O   0  0  0  0  0  0  0  0  0  0  0  0
    1.4030    2.6800    0.0000 O   0  0  0  0  0  0  0  0  0  0  0  0
    7.0749    1.8100    0.0000 N   0  0  0  0  0  0  0  0  0  0  0  0
    5.3429    1.8100    0.0000 N   0  0  0  0  0  0  0  0  0  0  0  0
    7.0749    6.2400    0.0000 N   0  0  0  0  0  0  0  0  0  0  0  0
    5.3429    6.2400    0.0000 N   0  0  0  0  0  0  0  0  0  0  0  0
    6.2089    0.3100    0.0000 N   0  0  0  0  0  0  0  0  0  0  0  0
    6.2089    4.7400    0.0000 N   0  0  0  0  0  0  0  0  0  0  0  0
    6.2089    1.3100    0.0000 C   0  0  0  0  0  0  0  0  0  0  0  0
    6.2089    5.7400    0.0000 C   0  0  0  0  0  0  0  0  0  0  0  0
    1.4030    3.6800    0.0000 C   0  0  0  0  0  0  0  0  0  0  0  0
    7.6118    1.5000    0.0000 H   0  0  0  0  0  0  0  0  0  0  0  0
    7.0749    2.4300    0.0000 H   0  0  0  0  0  0  0  0  0  0  0  0
    4.8059    1.5000    0.0000 H   0  0  0  0  0  0  0  0  0  0  0  0
    5.3429    2.4300    0.0000 H   0  0  0  0  0  0  0  0  0  0  0  0
    7.6118    5.9300    0.0000 H   0  0  0  0  0  0  0  0  0  0  0  0
    7.0749    6.8600    0.0000 H   0  0  0  0  0  0  0  0  0  0  0  0
    4.8059    5.9300    0.0000 H   0  0  0  0  0  0  0  0  0  0  0  0
    5.3429    6.8600    0.0000 H   0  0  0  0  0  0  0  0  0  0  0  0
    5.6720    0.0000    0.0000 H   0  0  0  0  0  0  0  0  0  0  0  0
    5.6720    4.4300    0.0000 H   0  0  0  0  0  0  0  0  0  0  0  0
    0.0000    3.8700    0.0000 H   0  0  0  0  0  0  0  0  0  0  0  0
    2.8059    3.8700    0.0000 H   0  0  0  0  0  0  0  0  0  0  0  0
  1 12  1  0  0  0  0
  1 24  1  0  0  0  0
  2 12  1  0  0  0  0
  2 23  1  0  0  0  0
  3 12  2  0  0  0  0
  4 10  1  0  0  0  0
  4 13  1  0  0  0  0
  4 14  1  0  0  0  0
  5 10  1  0  0  0  0
  5 15  1  0  0  0  0
  5 16  1  0  0  0  0
  6 11  1  0  0  0  0
  6 17  1  0  0  0  0
  6 18  1  0  0  0  0
  7 11  1  0  0  0  0
  7 19  1  0  0  0  0
  7 20  1  0  0  0  0
  8 10  2  0  0  0  0
  8 21  1  0  0  0  0
  9 11  2  0  0  0  0
  9 22  1  0  0  0  0
M  END
> <PUBCHEM_COMPOUND_CID>
11650

> <PUBCHEM_COMPOUND_CANONICALIZED>
1

> <PUBCHEM_CACTVS_COMPLEXITY>
52.5

> <PUBCHEM_CACTVS_HBOND_ACCEPTOR>
5

> <PUBCHEM_CACTVS_HBOND_DONOR>
8

> <PUBCHEM_CACTVS_ROTATABLE_BOND>
0

> <PUBCHEM_CACTVS_SUBSKEYS>
AAADccBDsAAAAAAAAAAAAAAAAAAAAAAAAAAAAAAAAAAAAAAAAAAABgAQCAAAAAAAAAABCABAAgAoAAAAKAAAAACAAAAAAAAAAAAAAAAAAAAAAAAAAAAAAAAAAAAAAAAAAAAAAAAAAAAAAAAAAAAAAAAAAA==

> <PUBCHEM_IUPAC_OPENEYE_NAME>
carbonic acid; guanidine

> <PUBCHEM_IUPAC_CAS_NAME>
carbonic acid; guanidine

> <PUBCHEM_IUPAC_NAME>
carbonic acid; guanidine

> <PUBCHEM_IUPAC_SYSTEMATIC_NAME>
carbonic acid; guanidine

> <PUBCHEM_IUPAC_TRADITIONAL_NAME>
carbonic acid; guanidine

> <PUBCHEM_IUPAC_INCHI>
InChI=1S/2CH5N3.CH2O3/c3*2-1(3)4/h2*(H5,2,3,4);(H2,2,3,4)

> <PUBCHEM_IUPAC_INCHIKEY>
STIAPHVBRDNOAJ-UHFFFAOYSA-N

> <PUBCHEM_EXACT_MASS>
180.097088

> <PUBCHEM_MOLECULAR_FORMULA>
C3H12N6O3

> <PUBCHEM_MOLECULAR_WEIGHT>
180.16578

> <PUBCHEM_OPENEYE_CAN_SMILES>
C(=N)(N)N.C(=N)(N)N.C(=O)(O)O

> <PUBCHEM_OPENEYE_ISO_SMILES>
C(=N)(N)N.C(=N)(N)N.C(=O)(O)O

> <PUBCHEM_CACTVS_TPSA>
209

> <PUBCHEM_MONOISOTOPIC_WEIGHT>
180.097088

> <PUBCHEM_TOTAL_CHARGE>
0

> <PUBCHEM_HEAVY_ATOM_COUNT>
12

> <PUBCHEM_ATOM_DEF_STEREO_COUNT>
0

> <PUBCHEM_ATOM_UDEF_STEREO_COUNT>
0

> <PUBCHEM_BOND_DEF_STEREO_COUNT>
0

> <PUBCHEM_BOND_UDEF_STEREO_COUNT>
0

> <PUBCHEM_ISOTOPIC_ATOM_COUNT>
0

> <PUBCHEM_COMPONENT_COUNT>
3

> <PUBCHEM_CACTVS_TAUTO_COUNT>
1

> <PUBCHEM_COORDINATE_TYPE>
1
5
255

$$$$

