51090851
  -OEChem-06241223002D

 41 43  0     1  0  0  0  0  0999 V2000
    2.3090    4.5194    0.0000 S   0  0  0  0  0  0  0  0  0  0  0  0
    5.4071    0.4806    0.0000 O   0  0  0  0  0  0  0  0  0  0  0  0
    3.6750    0.4806    0.0000 N   0  0  0  0  0  0  0  0  0  0  0  0
    5.4071   -1.5194    0.0000 N   0  0  0  0  0  0  0  0  0  0  0  0
    7.2193   -2.7147    0.0000 N   0  0  0  0  0  0  0  0  0  0  0  0
    4.5411   -3.0194    0.0000 N   0  0  0  0  0  0  0  0  0  0  0  0
    7.2193   -4.3242    0.0000 N   0  0  0  0  0  0  0  0  0  0  0  0
    5.4071   -4.5194    0.0000 N   0  0  0  0  0  0  0  0  0  0  0  0
    3.6750    1.4806    0.0000 C   0  0  3  0  0  0  0  0  0  0  0  0
    2.8090    1.9806    0.0000 C   0  0  0  0  0  0  0  0  0  0  0  0
    4.5411    1.9806    0.0000 C   0  0  0  0  0  0  0  0  0  0  0  0
    4.5411   -1.0194    0.0000 C   0  0  0  0  0  0  0  0  0  0  0  0
    2.8090    2.9806    0.0000 C   0  0  0  0  0  0  0  0  0  0  0  0
    4.5411   -0.0194    0.0000 C   0  0  0  0  0  0  0  0  0  0  0  0
    5.4071   -2.5194    0.0000 C   0  0  0  0  0  0  0  0  0  0  0  0
    6.2731   -3.0194    0.0000 C   0  0  0  0  0  0  0  0  0  0  0  0
    6.2731   -1.0194    0.0000 C   0  0  0  0  0  0  0  0  0  0  0  0
    3.6180    3.5684    0.0000 C   0  0  0  0  0  0  0  0  0  0  0  0
    2.0000    3.5684    0.0000 C   0  0  0  0  0  0  0  0  0  0  0  0
    6.2731   -4.0194    0.0000 C   0  0  0  0  0  0  0  0  0  0  0  0
    3.3090    4.5194    0.0000 C   0  0  0  0  0  0  0  0  0  0  0  0
    7.8030   -3.5194    0.0000 C   0  0  0  0  0  0  0  0  0  0  0  0
    4.5411   -4.0194    0.0000 C   0  0  0  0  0  0  0  0  0  0  0  0
    4.2120    1.1706    0.0000 H   0  0  0  0  0  0  0  0  0  0  0  0
    2.1984    2.0882    0.0000 H   0  0  0  0  0  0  0  0  0  0  0  0
    2.5970    1.3980    0.0000 H   0  0  0  0  0  0  0  0  0  0  0  0
    3.1381    0.1706    0.0000 H   0  0  0  0  0  0  0  0  0  0  0  0
    3.9305   -0.9118    0.0000 H   0  0  0  0  0  0  0  0  0  0  0  0
    4.3290   -1.6020    0.0000 H   0  0  0  0  0  0  0  0  0  0  0  0
    4.8511    1.4436    0.0000 H   0  0  0  0  0  0  0  0  0  0  0  0
    5.0780    2.2906    0.0000 H   0  0  0  0  0  0  0  0  0  0  0  0
    4.2311    2.5175    0.0000 H   0  0  0  0  0  0  0  0  0  0  0  0
    6.5831   -1.5564    0.0000 H   0  0  0  0  0  0  0  0  0  0  0  0
    6.8100   -0.7094    0.0000 H   0  0  0  0  0  0  0  0  0  0  0  0
    5.9631   -0.4825    0.0000 H   0  0  0  0  0  0  0  0  0  0  0  0
    4.2077    3.3768    0.0000 H   0  0  0  0  0  0  0  0  0  0  0  0
    1.4103    3.3768    0.0000 H   0  0  0  0  0  0  0  0  0  0  0  0
    7.4120   -2.1254    0.0000 H   0  0  0  0  0  0  0  0  0  0  0  0
    3.6734    5.0210    0.0000 H   0  0  0  0  0  0  0  0  0  0  0  0
    8.4230   -3.5194    0.0000 H   0  0  0  0  0  0  0  0  0  0  0  0
    4.0041   -4.3294    0.0000 H   0  0  0  0  0  0  0  0  0  0  0  0
  1 19  1  0  0  0  0
  1 21  1  0  0  0  0
  2 14  2  0  0  0  0
  3  9  1  0  0  0  0
  3 14  1  0  0  0  0
  3 27  1  0  0  0  0
  4 12  1  0  0  0  0
  4 15  1  0  0  0  0
  4 17  1  0  0  0  0
  5 16  1  0  0  0  0
  5 22  1  0  0  0  0
  5 38  1  0  0  0  0
  6 15  2  0  0  0  0
  6 23  1  0  0  0  0
  7 20  1  0  0  0  0
  7 22  2  0  0  0  0
  8 20  1  0  0  0  0
  8 23  2  0  0  0  0
  9 10  1  0  0  0  0
  9 11  1  0  0  0  0
  9 24  1  0  0  0  0
 10 13  1  0  0  0  0
 10 25  1  0  0  0  0
 10 26  1  0  0  0  0
 11 30  1  0  0  0  0
 11 31  1  0  0  0  0
 11 32  1  0  0  0  0
 12 14  1  0  0  0  0
 12 28  1  0  0  0  0
 12 29  1  0  0  0  0
 13 18  1  0  0  0  0
 13 19  2  0  0  0  0
 15 16  1  0  0  0  0
 16 20  2  0  0  0  0
 17 33  1  0  0  0  0
 17 34  1  0  0  0  0
 17 35  1  0  0  0  0
 18 21  2  0  0  0  0
 18 36  1  0  0  0  0
 19 37  1  0  0  0  0
 21 39  1  0  0  0  0
 22 40  1  0  0  0  0
 23 41  1  0  0  0  0
M  END
> <PUBCHEM_COMPOUND_CID>
51090851

> <PUBCHEM_COMPOUND_CANONICALIZED>
1

> <PUBCHEM_CACTVS_COMPLEXITY>
411

> <PUBCHEM_CACTVS_HBOND_ACCEPTOR>
6

> <PUBCHEM_CACTVS_HBOND_DONOR>
2

> <PUBCHEM_CACTVS_ROTATABLE_BOND>
6

> <PUBCHEM_CACTVS_SUBSKEYS>
AAADceBzoABAAAAAAAAAAAAAAAAAAWJAAAAsAAAAAAAAAFgB/gAAHgQQAAAADCjF3wS38b/JkAisAydzdACDgK2xGLBJ2bioVJiIaAJg2WGUBAgolgLoCCMQAAAOAAAAAAAAAAAAAAAAAAAAAAAAAAAAAA==

> <PUBCHEM_IUPAC_OPENEYE_NAME>
2-[methyl(7H-purin-6-yl)amino]-N-[1-methyl-2-(3-thienyl)ethyl]acetamide

> <PUBCHEM_IUPAC_CAS_NAME>
2-[methyl(7H-purin-6-yl)amino]-N-[1-(3-thiophenyl)propan-2-yl]acetamide

> <PUBCHEM_IUPAC_NAME>
2-[methyl(7H-purin-6-yl)amino]-N-(1-thiophen-3-ylpropan-2-yl)acetamide

> <PUBCHEM_IUPAC_SYSTEMATIC_NAME>
2-[methyl(7H-purin-6-yl)amino]-N-(1-thiophen-3-ylpropan-2-yl)ethanamide

> <PUBCHEM_IUPAC_TRADITIONAL_NAME>
2-[methyl(7H-purin-6-yl)amino]-N-[1-methyl-2-(3-thienyl)ethyl]acetamide

> <PUBCHEM_IUPAC_INCHI>
InChI=1S/C15H18N6OS/c1-10(5-11-3-4-23-7-11)20-12(22)6-21(2)15-13-14(17-8-16-13)18-9-19-15/h3-4,7-10H,5-6H2,1-2H3,(H,20,22)(H,16,17,18,19)

> <PUBCHEM_IUPAC_INCHIKEY>
RLPOOTPWNVRTGU-UHFFFAOYSA-N

> <PUBCHEM_XLOGP3_AA>
2

> <PUBCHEM_EXACT_MASS>
330.12628

> <PUBCHEM_MOLECULAR_FORMULA>
C15H18N6OS

> <PUBCHEM_MOLECULAR_WEIGHT>
330.40802

> <PUBCHEM_OPENEYE_CAN_SMILES>
CC(CC1=CSC=C1)NC(=O)CN(C)C2=NC=NC3=C2NC=N3

> <PUBCHEM_OPENEYE_ISO_SMILES>
CC(CC1=CSC=C1)NC(=O)CN(C)C2=NC=NC3=C2NC=N3

> <PUBCHEM_CACTVS_TPSA>
115

> <PUBCHEM_MONOISOTOPIC_WEIGHT>
330.12628

> <PUBCHEM_TOTAL_CHARGE>
0

> <PUBCHEM_HEAVY_ATOM_COUNT>
23

> <PUBCHEM_ATOM_DEF_STEREO_COUNT>
0

> <PUBCHEM_ATOM_UDEF_STEREO_COUNT>
1

> <PUBCHEM_BOND_DEF_STEREO_COUNT>
0

> <PUBCHEM_BOND_UDEF_STEREO_COUNT>
0

> <PUBCHEM_ISOTOPIC_ATOM_COUNT>
0

> <PUBCHEM_COMPONENT_COUNT>
1

> <PUBCHEM_CACTVS_TAUTO_COUNT>
8

> <PUBCHEM_COORDINATE_TYPE>
1
5
255

> <PUBCHEM_BONDANNOTATIONS>
1  19  8
1  21  8
13  18  8
13  19  8
15  16  8
16  20  8
18  21  8
5  16  8
5  22  8
6  15  8
6  23  8
7  20  8
7  22  8
8  20  8
8  23  8
9  11  3

$$$$

