   Color/Form

     * Clear liquid
     * Amber liquid

   from [1]HSDB

   Odor
        Aromatic
   from [2]HSDB

   Boiling Point
        136.5 deg C @ 10 mm Hg
   from [3]HSDB

   Corrosivity
        Noncorrosive
   from [4]HSDB

   Density/Specific Gravity
        1.063 g/ml @ 20 deg C
   from [5]HSDB

   Octanol/Water Partition Coefficient
        log Kow = 3.21
   from [6]HSDB

   Solubilities

     * Miscible with acetone, ethanol, kerosene, 4-methylpentan-2-one,
       xylene
     * In water, 970 mg/l @ 25 deg C

   from [7]HSDB

   Spectral Properties
        INDEX OF REFRACTION: 1.5124 @ 30 DEG C/D
   from [8]HSDB

   Vapor Pressure
        5.6X10-3 mm Hg @ 25 deg C
   from [9]HSDB

   Other Chemical/Physical Properties

     * Henry's Law constant= 4.1X10-6 atm-cu m/mole @ 20 deg C
     * Unstable in light
     * Relatively stable to hydrolysis by acids and alkalis (pH 5-9) at 40
       deg C.

   from [10]HSDB

   Computed Properties
   Molecular Weight                  187.30238 [g/mol]
   Molecular Formula                 C[9]H[17]NOS
   XLogP3                            3.2
   H-Bond Donor                      0
   H-Bond Acceptor                   2
   Rotatable Bond Count              2
   Exact Mass                        187.103085
   MonoIsotopic Mass                 187.103085
   Topological Polar Surface Area    45.6
   Heavy Atom Count                  12
   Formal Charge                     0
   Complexity                        142
   Isotope Atom Count                0
   Defined Atom Stereocenter Count   0
   Undefined Atom Stereocenter Count 0
   Defined Bond Stereocenter Count   0
   Undefined Bond Stereocenter Count 0
   Covalently-Bonded Unit Count      1
   Feature 3D Hydrophobe Count       1
   Feature 3D Ring Count             1
   Effective Rotor Count             4.4
   Conformer Sampling RMSD           0.6
   CID Conformer Count               [11]50

References

   1. http://toxnet.nlm.nih.gov/cgi-bin/sis/search/r?dbs+hsdb:@term+@rn+@rel+2212-67-1
   2. http://toxnet.nlm.nih.gov/cgi-bin/sis/search/r?dbs+hsdb:@term+@rn+@rel+2212-67-1
   3. http://toxnet.nlm.nih.gov/cgi-bin/sis/search/r?dbs+hsdb:@term+@rn+@rel+2212-67-1
   4. http://toxnet.nlm.nih.gov/cgi-bin/sis/search/r?dbs+hsdb:@term+@rn+@rel+2212-67-1
   5. http://toxnet.nlm.nih.gov/cgi-bin/sis/search/r?dbs+hsdb:@term+@rn+@rel+2212-67-1
   6. http://toxnet.nlm.nih.gov/cgi-bin/sis/search/r?dbs+hsdb:@term+@rn+@rel+2212-67-1
   7. http://toxnet.nlm.nih.gov/cgi-bin/sis/search/r?dbs+hsdb:@term+@rn+@rel+2212-67-1
   8. http://toxnet.nlm.nih.gov/cgi-bin/sis/search/r?dbs+hsdb:@term+@rn+@rel+2212-67-1
   9. http://toxnet.nlm.nih.gov/cgi-bin/sis/search/r?dbs+hsdb:@term+@rn+@rel+2212-67-1
  10. http://toxnet.nlm.nih.gov/cgi-bin/sis/search/r?dbs+hsdb:@term+@rn+@rel+2212-67-1
  11. http://pubchem.ncbi.nlm.nih.gov/vw3d/vw3d.cgi?cid=16653
