   Color/Form

     * COLORLESS ORTHORHOMBIC CRYSTALS
     * YELLOW SEMI-SOLID MASS

   from [1]HSDB

   Odor
        Sharp, unpleasant
   from [2]HSDB

   Boiling Point
        223.5 DEG C
   from [3]HSDB

   Melting Point
        73.4 DEG C
   from [4]HSDB

   Corrosivity
        Corrodes most metals in presence of moisture
   from [5]HSDB

   Critical Temperature and Pressure
        794 K and 4.8200X10+6 Pa
   from [6]HSDB

   Density/Specific Gravity
        3.14 g/cu cm
   from [7]HSDB

   Heat of Vaporization
        45.19 kJ/mol at 220.3 deg C
   from [8]HSDB

   Solubilities

     * SOL IN ALCOHOL, CHLOROFORM (ABOUT 22%), BENZENE, ACETONE, CARBON
       DISULFIDE, DIOXANE, CARBON TETRACHLORIDE (1.1 MOLAR), ETHER
     * INSOL IN PYRIDINE, QUINOLINE, ORG BASES
     * 1 gram dissolves in 10.1 ml water at 25 deg C.

   from [9]HSDB

   Vapor Pressure
        1 MM HG AT 49.2 DEG C (SUBLIMES)
   from [10]HSDB

   Other Chemical/Physical Properties

     * CRYOSCOPIC CONSTANT: 18.4; HEAT OF FUSION @ 73.2 DEG C: 13.29
       CAL/G; SPECIFIC HEAT @ 33 DEG C: 0.110 CAL/G/DEG C; DIPOLE MOMENT:
       3.12 @ 25 DEG C IN CARBON DISULFIDE; SATURATED SOLN IN CARBON
       TETRACHLORIDE IS APPROX 1.1 MOLAR; GRADUAL HYDROLYSIS /IN WATER/ TO
       ANTIMONY III OXYCHLORIDE (SBOCL).
     * AT 73.34 DEG C FUSES TO YELLOW OILY LIQUID; PRODUCES COLORLESS
       VAPOR @ 223 DEG C
     * Dielectric constant 5.34
     * VERY HYGROSCOPIC
     * Heat of solution: -70 Btu/lb= -39 cal/g= -1.6X10+5 J/kg
     * Heat of formation: -382.2 kJ/mol @ 298.15 K (25 deg C); Entropy:
       184.1 J/mol K @ 298.15 K (25 deg C); Heat capacity: 107.9 J/mol K
       (crystal)
     * Readily hydrolyzes, giving hydrous Sb2O3 with excess water, but
       when limited quantities of water are used, a large number of
       partially hydrolyzed products have been claimed, eg, SbOCl,
       Sb2OCl4, Sb4O3(OH)3Cl2, Sb8O11Cl2, and Sb8OCl22.

   from [11]HSDB

   Computed Properties
   Molecular Weight                  228.119 [g/mol]
   Molecular Formula                 Cl[3]Sb
   H-Bond Donor                      0
   H-Bond Acceptor                   0
   Rotatable Bond Count              0
   Exact Mass                        225.810374
   MonoIsotopic Mass                 225.810374
   Topological Polar Surface Area    0
   Heavy Atom Count                  4
   Formal Charge                     0
   Complexity                        8
   Isotope Atom Count                0
   Defined Atom Stereocenter Count   0
   Undefined Atom Stereocenter Count 0
   Defined Bond Stereocenter Count   0
   Undefined Bond Stereocenter Count 0
   Covalently-Bonded Unit Count      1

References

   1. http://toxnet.nlm.nih.gov/cgi-bin/sis/search/r?dbs+hsdb:@term+@rn+@rel+10025-91-9
   2. http://toxnet.nlm.nih.gov/cgi-bin/sis/search/r?dbs+hsdb:@term+@rn+@rel+10025-91-9
   3. http://toxnet.nlm.nih.gov/cgi-bin/sis/search/r?dbs+hsdb:@term+@rn+@rel+10025-91-9
   4. http://toxnet.nlm.nih.gov/cgi-bin/sis/search/r?dbs+hsdb:@term+@rn+@rel+10025-91-9
   5. http://toxnet.nlm.nih.gov/cgi-bin/sis/search/r?dbs+hsdb:@term+@rn+@rel+10025-91-9
   6. http://toxnet.nlm.nih.gov/cgi-bin/sis/search/r?dbs+hsdb:@term+@rn+@rel+10025-91-9
   7. http://toxnet.nlm.nih.gov/cgi-bin/sis/search/r?dbs+hsdb:@term+@rn+@rel+10025-91-9
   8. http://toxnet.nlm.nih.gov/cgi-bin/sis/search/r?dbs+hsdb:@term+@rn+@rel+10025-91-9
   9. http://toxnet.nlm.nih.gov/cgi-bin/sis/search/r?dbs+hsdb:@term+@rn+@rel+10025-91-9
  10. http://toxnet.nlm.nih.gov/cgi-bin/sis/search/r?dbs+hsdb:@term+@rn+@rel+10025-91-9
  11. http://toxnet.nlm.nih.gov/cgi-bin/sis/search/r?dbs+hsdb:@term+@rn+@rel+10025-91-9
