25164057
  -OEChem-07051213112D

 40 43  0     0  0  0  0  0  0999 V2000
    3.4446    0.2653    0.0000 O   0  0  0  0  0  0  0  0  0  0  0  0
    3.4446    1.2653    0.0000 O   0  0  0  0  0  0  0  0  0  0  0  0
    5.1767    4.2653    0.0000 O   0  0  0  0  0  0  0  0  0  0  0  0
    7.0275   -0.4084    0.0000 O   0  0  0  0  0  0  0  0  0  0  0  0
    6.9251    4.2999    0.0000 O   0  0  0  0  0  0  0  0  0  0  0  0
    2.5405   -1.2316    0.0000 O   0  0  0  0  0  0  0  0  0  0  0  0
    6.9088   -1.7347    0.0000 O   0  0  0  0  0  0  0  0  0  0  0  0
    7.5706    0.4572    0.0000 O   0  0  0  0  0  0  0  0  0  0  0  0
    4.2986   -4.3040    0.0000 O   0  0  0  0  0  0  0  0  0  0  0  0
    8.7068    1.2411    0.0000 O   0  0  0  0  0  0  0  0  0  0  0  0
    5.1767    1.2653    0.0000 C   0  0  0  0  0  0  0  0  0  0  0  0
    5.1767    0.2653    0.0000 C   0  0  0  0  0  0  0  0  0  0  0  0
    6.0427    1.7653    0.0000 C   0  0  0  0  0  0  0  0  0  0  0  0
    6.0427    2.7653    0.0000 C   0  0  0  0  0  0  0  0  0  0  0  0
    4.3107   -1.2347    0.0000 C   0  0  0  0  0  0  0  0  0  0  0  0
    4.3107   -0.2347    0.0000 C   0  0  0  0  0  0  0  0  0  0  0  0
    5.1767   -1.7347    0.0000 C   0  0  0  0  0  0  0  0  0  0  0  0
    4.3107    1.7653    0.0000 C   0  0  0  0  0  0  0  0  0  0  0  0
    6.0427   -0.2347    0.0000 C   0  0  0  0  0  0  0  0  0  0  0  0
    6.0427   -1.2347    0.0000 C   0  0  0  0  0  0  0  0  0  0  0  0
    5.1767    3.2653    0.0000 C   0  0  0  0  0  0  0  0  0  0  0  0
    6.9367    1.2306    0.0000 C   0  0  0  0  0  0  0  0  0  0  0  0
    4.3107    2.7653    0.0000 C   0  0  0  0  0  0  0  0  0  0  0  0
    6.9367    3.2999    0.0000 C   0  0  0  0  0  0  0  0  0  0  0  0
    3.4007   -1.7416    0.0000 C   0  0  0  0  0  0  0  0  0  0  0  0
    5.1928   -2.7762    0.0000 C   0  0  0  0  0  0  0  0  0  0  0  0
    7.8427    1.7444    0.0000 C   0  0  0  0  0  0  0  0  0  0  0  0
    7.8427    2.7861    0.0000 C   0  0  0  0  0  0  0  0  0  0  0  0
    3.3926   -2.7832    0.0000 C   0  0  0  0  0  0  0  0  0  0  0  0
    4.2947   -3.3040    0.0000 C   0  0  0  0  0  0  0  0  0  0  0  0
    3.7737    3.0753    0.0000 H   0  0  0  0  0  0  0  0  0  0  0  0
    5.7332   -3.0800    0.0000 H   0  0  0  0  0  0  0  0  0  0  0  0
    8.3785    3.0982    0.0000 H   0  0  0  0  0  0  0  0  0  0  0  0
    2.8545   -3.0911    0.0000 H   0  0  0  0  0  0  0  0  0  0  0  0
    2.9077   -0.0447    0.0000 H   0  0  0  0  0  0  0  0  0  0  0  0
    2.9077    1.5753    0.0000 H   0  0  0  0  0  0  0  0  0  0  0  0
    4.6398    4.5753    0.0000 H   0  0  0  0  0  0  0  0  0  0  0  0
    7.4584    4.6161    0.0000 H   0  0  0  0  0  0  0  0  0  0  0  0
    2.0000   -1.5354    0.0000 H   0  0  0  0  0  0  0  0  0  0  0  0
    3.7628   -4.6161    0.0000 H   0  0  0  0  0  0  0  0  0  0  0  0
  1 16  1  0  0  0  0
  1 35  1  0  0  0  0
  2 18  1  0  0  0  0
  2 36  1  0  0  0  0
  3 21  1  0  0  0  0
  3 37  1  0  0  0  0
  4 19  2  0  0  0  0
  5 24  1  0  0  0  0
  5 38  1  0  0  0  0
  6 25  1  0  0  0  0
  6 39  1  0  0  0  0
  7 20  2  0  0  0  0
  8 22  2  0  0  0  0
  9 30  1  0  0  0  0
  9 40  1  0  0  0  0
 10 27  2  0  0  0  0
 11 12  1  0  0  0  0
 11 13  1  0  0  0  0
 11 18  2  0  0  0  0
 12 16  2  0  0  0  0
 12 19  1  0  0  0  0
 13 14  2  0  0  0  0
 13 22  1  0  0  0  0
 14 21  1  0  0  0  0
 14 24  1  0  0  0  0
 15 16  1  0  0  0  0
 15 17  1  0  0  0  0
 15 25  2  0  0  0  0
 17 20  1  0  0  0  0
 17 26  2  0  0  0  0
 18 23  1  0  0  0  0
 19 20  1  0  0  0  0
 21 23  2  0  0  0  0
 22 27  1  0  0  0  0
 23 31  1  0  0  0  0
 24 28  2  0  0  0  0
 25 29  1  0  0  0  0
 26 30  1  0  0  0  0
 26 32  1  0  0  0  0
 27 28  1  0  0  0  0
 28 33  1  0  0  0  0
 29 30  2  0  0  0  0
 29 34  1  0  0  0  0
M  END
> <PUBCHEM_COMPOUND_CID>
25164057

> <PUBCHEM_COMPOUND_CANONICALIZED>
1

> <PUBCHEM_CACTVS_COMPLEXITY>
901

> <PUBCHEM_CACTVS_HBOND_ACCEPTOR>
10

> <PUBCHEM_CACTVS_HBOND_DONOR>
6

> <PUBCHEM_CACTVS_ROTATABLE_BOND>
1

> <PUBCHEM_CACTVS_SUBSKEYS>
AAADccB4PAAAAAAAAAAAAAAAAAAAAAAAAAAwYIEAAAAAAACBQAAAGgAACAAADASAmAAwBoAAAgCIAqBSAAACAAAkIAAAiAEGCMgIJzKCFRKAcQAlwBUImYeK7vTuoAADCAAYAABAAAYQADAAAAAAAAAAAA==

> <PUBCHEM_IUPAC_OPENEYE_NAME>
4,5,7-trihydroxy-3-(2,4,5-trihydroxy-7,8-dioxo-1-naphthyl)naphthalene-1,2-dione

> <PUBCHEM_IUPAC_CAS_NAME>
4,5,7-trihydroxy-3-(2,4,5-trihydroxy-7,8-dioxo-1-naphthalenyl)naphthalene-1,2-dione

> <PUBCHEM_IUPAC_NAME>
4,5,7-trihydroxy-3-(2,4,5-trihydroxy-7,8-dioxonaphthalen-1-yl)naphthalene-1,2-dione

> <PUBCHEM_IUPAC_SYSTEMATIC_NAME>
4,5,7-tris(oxidanyl)-3-[2,4,5-tris(oxidanyl)-7,8-bis(oxidanylidene)naphthalen-1-yl]naphthalene-1,2-dione

> <PUBCHEM_IUPAC_TRADITIONAL_NAME>
4,5,7-trihydroxy-3-(2,4,5-trihydroxy-7,8-diketo-1-naphthyl)-1,2-naphthoquinone

> <PUBCHEM_IUPAC_INCHI>
InChI=1S/C20H10O10/c21-5-1-6-12(7(22)2-5)19(29)16(20(30)17(6)27)14-10(25)3-8(23)13-9(24)4-11(26)18(28)15(13)14/h1-4,21-25,29H

> <PUBCHEM_IUPAC_INCHIKEY>
IHEKRRLEONOHHE-UHFFFAOYSA-N

> <PUBCHEM_XLOGP3_AA>
1.1

> <PUBCHEM_EXACT_MASS>
410.027397

> <PUBCHEM_MOLECULAR_FORMULA>
C20H10O10

> <PUBCHEM_MOLECULAR_WEIGHT>
410.2874

> <PUBCHEM_OPENEYE_CAN_SMILES>
C1=C(C=C2C(=C1O)C(=C(C(=O)C2=O)C3=C4C(=C(C=C3O)O)C(=CC(=O)C4=O)O)O)O

> <PUBCHEM_OPENEYE_ISO_SMILES>
C1=C(C=C2C(=C1O)C(=C(C(=O)C2=O)C3=C4C(=C(C=C3O)O)C(=CC(=O)C4=O)O)O)O

> <PUBCHEM_CACTVS_TPSA>
190

> <PUBCHEM_MONOISOTOPIC_WEIGHT>
410.027397

> <PUBCHEM_TOTAL_CHARGE>
0

> <PUBCHEM_HEAVY_ATOM_COUNT>
30

> <PUBCHEM_ATOM_DEF_STEREO_COUNT>
0

> <PUBCHEM_ATOM_UDEF_STEREO_COUNT>
0

> <PUBCHEM_BOND_DEF_STEREO_COUNT>
0

> <PUBCHEM_BOND_UDEF_STEREO_COUNT>
0

> <PUBCHEM_ISOTOPIC_ATOM_COUNT>
0

> <PUBCHEM_COMPONENT_COUNT>
1

> <PUBCHEM_CACTVS_TAUTO_COUNT>
998

> <PUBCHEM_COORDINATE_TYPE>
1
5
255

> <PUBCHEM_BONDANNOTATIONS>
11  13  8
11  18  8
13  14  8
14  21  8
15  17  8
15  25  8
17  26  8
18  23  8
21  23  8
25  29  8
26  30  8
29  30  8

$$$$

