439585
  -OEChem-07051212462D

 43 43  0     1  0  0  0  0  0999 V2000
    7.6382    3.1785    0.0000 O   0  0  0  0  0  0  0  0  0  0  0  0
    6.0010    0.7306    0.0000 O   0  0  0  0  0  0  0  0  0  0  0  0
    7.1030    1.5312    0.0000 O   0  0  0  0  0  0  0  0  0  0  0  0
    2.5369   -0.2694    0.0000 O   0  0  0  0  0  0  0  0  0  0  0  0
    5.1350    2.2306    0.0000 N   0  0  0  0  0  0  0  0  0  0  0  0
    4.2690   -0.2694    0.0000 N   0  0  0  0  0  0  0  0  0  0  0  0
    2.5369   -2.2694    0.0000 N   0  0  0  0  0  0  0  0  0  0  0  0
    5.9440    2.8184    0.0000 C   0  0  1  0  0  0  0  0  0  0  0  0
    5.6350    3.7694    0.0000 C   0  0  0  0  0  0  0  0  0  0  0  0
    4.6350    3.7694    0.0000 C   0  0  0  0  0  0  0  0  0  0  0  0
    4.3260    2.8184    0.0000 C   0  0  0  0  0  0  0  0  0  0  0  0
    5.1350    1.2306    0.0000 C   0  0  0  0  0  0  0  0  0  0  0  0
    6.8951    2.5094    0.0000 C   0  0  0  0  0  0  0  0  0  0  0  0
    4.2690   -2.2694    0.0000 C   0  0  0  0  0  0  0  0  0  0  0  0
    4.2690    0.7306    0.0000 C   0  0  0  0  0  0  0  0  0  0  0  0
    4.2690   -3.2694    0.0000 C   0  0  0  0  0  0  0  0  0  0  0  0
    3.4030   -1.7694    0.0000 C   0  0  1  0  0  0  0  0  0  0  0  0
    3.4030   -0.7694    0.0000 C   0  0  0  0  0  0  0  0  0  0  0  0
    5.1350   -3.7694    0.0000 C   0  0  0  0  0  0  0  0  0  0  0  0
    3.4030   -3.7694    0.0000 C   0  0  0  0  0  0  0  0  0  0  0  0
    6.0410    2.2060    0.0000 H   0  0  0  0  0  0  0  0  0  0  0  0
    6.2415    3.8983    0.0000 H   0  0  0  0  0  0  0  0  0  0  0  0
    5.5702    4.3860    0.0000 H   0  0  0  0  0  0  0  0  0  0  0  0
    4.6998    4.3860    0.0000 H   0  0  0  0  0  0  0  0  0  0  0  0
    4.0286    3.8983    0.0000 H   0  0  0  0  0  0  0  0  0  0  0  0
    3.7596    3.0705    0.0000 H   0  0  0  0  0  0  0  0  0  0  0  0
    4.0160    2.2814    0.0000 H   0  0  0  0  0  0  0  0  0  0  0  0
    4.8796   -2.3771    0.0000 H   0  0  0  0  0  0  0  0  0  0  0  0
    4.4810   -1.6868    0.0000 H   0  0  0  0  0  0  0  0  0  0  0  0
    4.0569    1.3132    0.0000 H   0  0  0  0  0  0  0  0  0  0  0  0
    3.6584    0.6229    0.0000 H   0  0  0  0  0  0  0  0  0  0  0  0
    4.2690   -3.8894    0.0000 H   0  0  0  0  0  0  0  0  0  0  0  0
    3.4030   -2.3894    0.0000 H   0  0  0  0  0  0  0  0  0  0  0  0
    4.8059   -0.5794    0.0000 H   0  0  0  0  0  0  0  0  0  0  0  0
    3.0930   -3.2325    0.0000 H   0  0  0  0  0  0  0  0  0  0  0  0
    2.8660   -4.0794    0.0000 H   0  0  0  0  0  0  0  0  0  0  0  0
    3.7130   -4.3064    0.0000 H   0  0  0  0  0  0  0  0  0  0  0  0
    4.8250   -4.3064    0.0000 H   0  0  0  0  0  0  0  0  0  0  0  0
    5.6720   -4.0794    0.0000 H   0  0  0  0  0  0  0  0  0  0  0  0
    5.4450   -3.2325    0.0000 H   0  0  0  0  0  0  0  0  0  0  0  0
    2.5369   -2.8894    0.0000 H   0  0  0  0  0  0  0  0  0  0  0  0
    2.0000   -1.9594    0.0000 H   0  0  0  0  0  0  0  0  0  0  0  0
    8.2279    2.9869    0.0000 H   0  0  0  0  0  0  0  0  0  0  0  0
  1 13  1  0  0  0  0
  1 43  1  0  0  0  0
  2 12  2  0  0  0  0
  3 13  2  0  0  0  0
  4 18  2  0  0  0  0
  5  8  1  0  0  0  0
  5 11  1  0  0  0  0
  5 12  1  0  0  0  0
  6 15  1  0  0  0  0
  6 18  1  0  0  0  0
  6 34  1  0  0  0  0
 17  7  1  6  0  0  0
  7 41  1  0  0  0  0
  7 42  1  0  0  0  0
  8  9  1  0  0  0  0
  8 13  1  1  0  0  0
  8 21  1  0  0  0  0
  9 10  1  0  0  0  0
  9 22  1  0  0  0  0
  9 23  1  0  0  0  0
 10 11  1  0  0  0  0
 10 24  1  0  0  0  0
 10 25  1  0  0  0  0
 11 26  1  0  0  0  0
 11 27  1  0  0  0  0
 12 15  1  0  0  0  0
 14 16  1  0  0  0  0
 14 17  1  0  0  0  0
 14 28  1  0  0  0  0
 14 29  1  0  0  0  0
 15 30  1  0  0  0  0
 15 31  1  0  0  0  0
 16 19  1  0  0  0  0
 16 20  1  0  0  0  0
 16 32  1  0  0  0  0
 17 18  1  0  0  0  0
 17 33  1  0  0  0  0
 19 38  1  0  0  0  0
 19 39  1  0  0  0  0
 19 40  1  0  0  0  0
 20 35  1  0  0  0  0
 20 36  1  0  0  0  0
 20 37  1  0  0  0  0
M  END
> <PUBCHEM_COMPOUND_CID>
439585

> <PUBCHEM_COMPOUND_CANONICALIZED>
1

> <PUBCHEM_CACTVS_COMPLEXITY>
384

> <PUBCHEM_CACTVS_HBOND_ACCEPTOR>
5

> <PUBCHEM_CACTVS_HBOND_DONOR>
3

> <PUBCHEM_CACTVS_ROTATABLE_BOND>
6

> <PUBCHEM_CACTVS_SUBSKEYS>
AAADceBzOAAAAAAAAAAAAAAAAAAAAWAAAAAAAAAAAAAAAAAAAAAAHgAQCAAADSjBgAQCCAPAAgAIAAGQGAAAAAAAAAAAAIGIAAACQBIAgCAUQAAEFgCQAACYEQIMAAAAAAAAAAAAAAAAAAAAAAAAAAAAAA==

> <PUBCHEM_IUPAC_OPENEYE_NAME>
(2S)-1-[2-[[(2S)-2-amino-4-methyl-pentanoyl]amino]acetyl]pyrrolidine-2-carboxylic acid

> <PUBCHEM_IUPAC_CAS_NAME>
(2S)-1-[2-[[(2S)-2-amino-4-methyl-1-oxopentyl]amino]-1-oxoethyl]-2-pyrrolidinecarboxylic acid

> <PUBCHEM_IUPAC_NAME>
(2S)-1-[2-[[(2S)-2-amino-4-methylpentanoyl]amino]acetyl]pyrrolidine-2-carboxylic acid

> <PUBCHEM_IUPAC_SYSTEMATIC_NAME>
(2S)-1-[2-[[(2S)-2-azanyl-4-methyl-pentanoyl]amino]ethanoyl]pyrrolidine-2-carboxylic acid

> <PUBCHEM_IUPAC_TRADITIONAL_NAME>
(2S)-1-[2-[[(2S)-2-amino-4-methyl-pentanoyl]amino]acetyl]proline

> <PUBCHEM_IUPAC_INCHI>
InChI=1S/C13H23N3O4/c1-8(2)6-9(14)12(18)15-7-11(17)16-5-3-4-10(16)13(19)20/h8-10H,3-7,14H2,1-2H3,(H,15,18)(H,19,20)/t9-,10-/m0/s1

> <PUBCHEM_IUPAC_INCHIKEY>
YFBBUHJJUXXZOF-UWVGGRQHSA-N

> <PUBCHEM_XLOGP3>
-2.4

> <PUBCHEM_EXACT_MASS>
285.168856

> <PUBCHEM_MOLECULAR_FORMULA>
C13H23N3O4

> <PUBCHEM_MOLECULAR_WEIGHT>
285.33942

> <PUBCHEM_OPENEYE_CAN_SMILES>
CC(C)CC(C(=O)NCC(=O)N1CCCC1C(=O)O)N

> <PUBCHEM_OPENEYE_ISO_SMILES>
CC(C)C[C@@H](C(=O)NCC(=O)N1CCC[C@H]1C(=O)O)N

> <PUBCHEM_CACTVS_TPSA>
113

> <PUBCHEM_MONOISOTOPIC_WEIGHT>
285.168856

> <PUBCHEM_TOTAL_CHARGE>
0

> <PUBCHEM_HEAVY_ATOM_COUNT>
20

> <PUBCHEM_ATOM_DEF_STEREO_COUNT>
2

> <PUBCHEM_ATOM_UDEF_STEREO_COUNT>
0

> <PUBCHEM_BOND_DEF_STEREO_COUNT>
0

> <PUBCHEM_BOND_UDEF_STEREO_COUNT>
0

> <PUBCHEM_ISOTOPIC_ATOM_COUNT>
0

> <PUBCHEM_COMPONENT_COUNT>
1

> <PUBCHEM_CACTVS_TAUTO_COUNT>
2

> <PUBCHEM_COORDINATE_TYPE>
1
5
255

> <PUBCHEM_BONDANNOTATIONS>
17  7  6
8  13  5

$$$$

