17395949
  -OEChem-06241222532D

 39 42  0     0  0  0  0  0  0999 V2000
    5.3511   -2.6708    0.0000 S   0  0  0  0  0  0  0  0  0  0  0  0
    5.7172    0.3680    0.0000 O   0  0  0  0  0  0  0  0  0  0  0  0
    3.9851    0.3680    0.0000 O   0  0  0  0  0  0  0  0  0  0  0  0
    4.0421   -1.7198    0.0000 N   0  0  0  0  0  0  0  0  0  0  0  0
    5.7172    4.3680    0.0000 N   0  0  0  0  0  0  0  0  0  0  0  0
    4.9082    4.9558    0.0000 N   0  0  0  0  0  0  0  0  0  0  0  0
    6.2172    5.9069    0.0000 N   0  0  0  0  0  0  0  0  0  0  0  0
    5.2172    5.9069    0.0000 N   0  0  0  0  0  0  0  0  0  0  0  0
    3.7634   -3.4798    0.0000 C   0  0  0  0  0  0  0  0  0  0  0  0
    4.3511   -2.6708    0.0000 C   0  0  0  0  0  0  0  0  0  0  0  0
    2.5878   -5.0979    0.0000 C   0  0  0  0  0  0  0  0  0  0  0  0
    2.7688   -3.3753    0.0000 C   0  0  0  0  0  0  0  0  0  0  0  0
    4.1701   -4.3934    0.0000 C   0  0  0  0  0  0  0  0  0  0  0  0
    5.7172    3.3680    0.0000 C   0  0  0  0  0  0  0  0  0  0  0  0
    2.1810   -4.1843    0.0000 C   0  0  0  0  0  0  0  0  0  0  0  0
    3.5823   -5.2024    0.0000 C   0  0  0  0  0  0  0  0  0  0  0  0
    5.7172    1.3680    0.0000 C   0  0  0  0  0  0  0  0  0  0  0  0
    4.8511   -1.1320    0.0000 C   0  0  0  0  0  0  0  0  0  0  0  0
    4.8511    2.8680    0.0000 C   0  0  0  0  0  0  0  0  0  0  0  0
    6.5832    2.8680    0.0000 C   0  0  0  0  0  0  0  0  0  0  0  0
    4.8511    1.8680    0.0000 C   0  0  0  0  0  0  0  0  0  0  0  0
    6.5832    1.8680    0.0000 C   0  0  0  0  0  0  0  0  0  0  0  0
    2.0000   -5.9069    0.0000 C   0  0  0  0  0  0  0  0  0  0  0  0
    5.6602   -1.7198    0.0000 C   0  0  0  0  0  0  0  0  0  0  0  0
    4.8511   -0.1320    0.0000 C   0  0  0  0  0  0  0  0  0  0  0  0
    6.5262    4.9558    0.0000 C   0  0  0  0  0  0  0  0  0  0  0  0
    2.5167   -2.8089    0.0000 H   0  0  0  0  0  0  0  0  0  0  0  0
    4.7867   -4.4582    0.0000 H   0  0  0  0  0  0  0  0  0  0  0  0
    1.5644   -4.1195    0.0000 H   0  0  0  0  0  0  0  0  0  0  0  0
    3.8345   -5.7688    0.0000 H   0  0  0  0  0  0  0  0  0  0  0  0
    4.3142    3.1780    0.0000 H   0  0  0  0  0  0  0  0  0  0  0  0
    7.1201    3.1780    0.0000 H   0  0  0  0  0  0  0  0  0  0  0  0
    4.3142    1.5580    0.0000 H   0  0  0  0  0  0  0  0  0  0  0  0
    7.1201    1.5580    0.0000 H   0  0  0  0  0  0  0  0  0  0  0  0
    1.4984   -5.5424    0.0000 H   0  0  0  0  0  0  0  0  0  0  0  0
    1.6356   -6.4085    0.0000 H   0  0  0  0  0  0  0  0  0  0  0  0
    2.5016   -6.2713    0.0000 H   0  0  0  0  0  0  0  0  0  0  0  0
    6.2498   -1.5282    0.0000 H   0  0  0  0  0  0  0  0  0  0  0  0
    7.1158    4.7642    0.0000 H   0  0  0  0  0  0  0  0  0  0  0  0
  1 10  1  0  0  0  0
  1 24  1  0  0  0  0
  2 17  1  0  0  0  0
  2 25  1  0  0  0  0
  3 25  2  0  0  0  0
  4 10  2  0  0  0  0
  4 18  1  0  0  0  0
  5  6  1  0  0  0  0
  5 14  1  0  0  0  0
  5 26  1  0  0  0  0
  6  8  2  0  0  0  0
  7  8  1  0  0  0  0
  7 26  2  0  0  0  0
  9 10  1  0  0  0  0
  9 12  2  0  0  0  0
  9 13  1  0  0  0  0
 11 15  2  0  0  0  0
 11 16  1  0  0  0  0
 11 23  1  0  0  0  0
 12 15  1  0  0  0  0
 12 27  1  0  0  0  0
 13 16  2  0  0  0  0
 13 28  1  0  0  0  0
 14 19  2  0  0  0  0
 14 20  1  0  0  0  0
 15 29  1  0  0  0  0
 16 30  1  0  0  0  0
 17 21  2  0  0  0  0
 17 22  1  0  0  0  0
 18 24  2  0  0  0  0
 18 25  1  0  0  0  0
 19 21  1  0  0  0  0
 19 31  1  0  0  0  0
 20 22  2  0  0  0  0
 20 32  1  0  0  0  0
 21 33  1  0  0  0  0
 22 34  1  0  0  0  0
 23 35  1  0  0  0  0
 23 36  1  0  0  0  0
 23 37  1  0  0  0  0
 24 38  1  0  0  0  0
 26 39  1  0  0  0  0
M  END
> <PUBCHEM_COMPOUND_CID>
17395949

> <PUBCHEM_COMPOUND_CANONICALIZED>
1

> <PUBCHEM_CACTVS_COMPLEXITY>
480

> <PUBCHEM_CACTVS_HBOND_ACCEPTOR>
7

> <PUBCHEM_CACTVS_HBOND_DONOR>
0

> <PUBCHEM_CACTVS_ROTATABLE_BOND>
5

> <PUBCHEM_CACTVS_SUBSKEYS>
AAADccB7sABAAAAAAAAAAAAAAAAAAWLAAAAwYAAAAAAAAAAB9AAAHgQIAAAADAyF3gS335YIFAiuAyTzbASC/KN3qrgdiDW+bNiOJqLkubuHOijkwBP46KewwAAOQEAAAAAAAACAgAAAAAAAAAAAAAAAAA==

> <PUBCHEM_IUPAC_OPENEYE_NAME>
[4-(tetrazol-1-yl)phenyl] 2-(p-tolyl)thiazole-4-carboxylate

> <PUBCHEM_IUPAC_CAS_NAME>
2-(4-methylphenyl)-4-thiazolecarboxylic acid [4-(1-tetrazolyl)phenyl] ester

> <PUBCHEM_IUPAC_NAME>
[4-(tetrazol-1-yl)phenyl] 2-(4-methylphenyl)-1,3-thiazole-4-carboxylate

> <PUBCHEM_IUPAC_SYSTEMATIC_NAME>
[4-(1,2,3,4-tetrazol-1-yl)phenyl] 2-(4-methylphenyl)-1,3-thiazole-4-carboxylate

> <PUBCHEM_IUPAC_TRADITIONAL_NAME>
2-(p-tolyl)thiazole-4-carboxylic acid [4-(tetrazol-1-yl)phenyl] ester

> <PUBCHEM_IUPAC_INCHI>
InChI=1S/C18H13N5O2S/c1-12-2-4-13(5-3-12)17-20-16(10-26-17)18(24)25-15-8-6-14(7-9-15)23-11-19-21-22-23/h2-11H,1H3

> <PUBCHEM_IUPAC_INCHIKEY>
XFPZKEKNPORKHL-UHFFFAOYSA-N

> <PUBCHEM_XLOGP3_AA>
4

> <PUBCHEM_EXACT_MASS>
363.078996

> <PUBCHEM_MOLECULAR_FORMULA>
C18H13N5O2S

> <PUBCHEM_MOLECULAR_WEIGHT>
363.39312

> <PUBCHEM_OPENEYE_CAN_SMILES>
CC1=CC=C(C=C1)C2=NC(=CS2)C(=O)OC3=CC=C(C=C3)N4C=NN=N4

> <PUBCHEM_OPENEYE_ISO_SMILES>
CC1=CC=C(C=C1)C2=NC(=CS2)C(=O)OC3=CC=C(C=C3)N4C=NN=N4

> <PUBCHEM_CACTVS_TPSA>
111

> <PUBCHEM_MONOISOTOPIC_WEIGHT>
363.078996

> <PUBCHEM_TOTAL_CHARGE>
0

> <PUBCHEM_HEAVY_ATOM_COUNT>
26

> <PUBCHEM_ATOM_DEF_STEREO_COUNT>
0

> <PUBCHEM_ATOM_UDEF_STEREO_COUNT>
0

> <PUBCHEM_BOND_DEF_STEREO_COUNT>
0

> <PUBCHEM_BOND_UDEF_STEREO_COUNT>
0

> <PUBCHEM_ISOTOPIC_ATOM_COUNT>
0

> <PUBCHEM_COMPONENT_COUNT>
1

> <PUBCHEM_CACTVS_TAUTO_COUNT>
1

> <PUBCHEM_COORDINATE_TYPE>
1
5
255

> <PUBCHEM_BONDANNOTATIONS>
1  10  8
1  24  8
11  15  8
11  16  8
12  15  8
13  16  8
14  19  8
14  20  8
17  21  8
17  22  8
18  24  8
19  21  8
20  22  8
4  10  8
4  18  8
5  26  8
5  6  8
6  8  8
7  26  8
7  8  8
9  12  8
9  13  8

$$$$

