439621
  -OEChem-07051212462D

 29 31  0     1  0  0  0  0  0999 V2000
    4.4026    1.0319    0.0000 O   0  0  0  0  0  0  0  0  0  0  0  0
    6.7485   -0.0600    0.0000 O   0  0  0  0  0  0  0  0  0  0  0  0
    6.7523    2.1156    0.0000 O   0  0  0  0  0  0  0  0  0  0  0  0
    5.3548    3.5334    0.0000 O   0  0  0  0  0  0  0  0  0  0  0  0
    2.8660   -3.5334    0.0000 O   0  0  0  0  0  0  0  0  0  0  0  0
    4.6783   -0.7287    0.0000 N   0  0  0  0  0  0  0  0  0  0  0  0
    2.8660   -0.5334    0.0000 N   0  0  0  0  0  0  0  0  0  0  0  0
    4.6783   -2.3382    0.0000 N   0  0  0  0  0  0  0  0  0  0  0  0
    2.0000   -2.0334    0.0000 N   0  0  0  0  0  0  0  0  0  0  0  0
    4.9889    0.2218    0.0000 C   0  0  1  0  0  0  0  0  0  0  0  0
    5.9405    0.5292    0.0000 C   0  0  1  0  0  0  0  0  0  0  0  0
    5.9422    1.5292    0.0000 C   0  0  1  0  0  0  0  0  0  0  0  0
    4.9917    1.8398    0.0000 C   0  0  1  0  0  0  0  0  0  0  0  0
    3.7320   -1.0334    0.0000 C   0  0  0  0  0  0  0  0  0  0  0  0
    5.2619   -1.5334    0.0000 C   0  0  0  0  0  0  0  0  0  0  0  0
    4.6844    2.7914    0.0000 C   0  0  0  0  0  0  0  0  0  0  0  0
    3.7320   -2.0334    0.0000 C   0  0  0  0  0  0  0  0  0  0  0  0
    2.8660   -2.5334    0.0000 C   0  0  0  0  0  0  0  0  0  0  0  0
    2.0000   -1.0334    0.0000 C   0  0  0  0  0  0  0  0  0  0  0  0
    5.4266   -0.2173    0.0000 H   0  0  0  0  0  0  0  0  0  0  0  0
    6.4934    0.8097    0.0000 H   0  0  0  0  0  0  0  0  0  0  0  0
    5.8463    2.1417    0.0000 H   0  0  0  0  0  0  0  0  0  0  0  0
    4.3795    1.9379    0.0000 H   0  0  0  0  0  0  0  0  0  0  0  0
    5.8819   -1.5334    0.0000 H   0  0  0  0  0  0  0  0  0  0  0  0
    4.0781    2.9214    0.0000 H   0  0  0  0  0  0  0  0  0  0  0  0
    7.3154    0.1912    0.0000 H   0  0  0  0  0  0  0  0  0  0  0  0
    7.3182    1.8624    0.0000 H   0  0  0  0  0  0  0  0  0  0  0  0
    2.8660    0.0866    0.0000 H   0  0  0  0  0  0  0  0  0  0  0  0
    1.4631   -0.7234    0.0000 H   0  0  0  0  0  0  0  0  0  0  0  0
  1 10  1  0  0  0  0
  1 13  1  0  0  0  0
 11  2  1  1  0  0  0
  2 26  1  0  0  0  0
 12  3  1  1  0  0  0
  3 27  1  0  0  0  0
  4 16  2  0  0  0  0
  5 18  2  0  0  0  0
 10  6  1  6  0  0  0
  6 14  1  0  0  0  0
  6 15  1  0  0  0  0
  7 14  1  0  0  0  0
  7 19  1  0  0  0  0
  7 28  1  0  0  0  0
  8 15  2  0  0  0  0
  8 17  1  0  0  0  0
  9 18  1  0  0  0  0
  9 19  2  0  0  0  0
 10 11  1  0  0  0  0
 10 20  1  0  0  0  0
 11 12  1  0  0  0  0
 11 21  1  0  0  0  0
 12 13  1  0  0  0  0
 12 22  1  0  0  0  0
 13 16  1  6  0  0  0
 13 23  1  0  0  0  0
 14 17  2  0  0  0  0
 15 24  1  0  0  0  0
 16 25  1  0  0  0  0
 17 18  1  0  0  0  0
 19 29  1  0  0  0  0
M  END
> <PUBCHEM_COMPOUND_CID>
439621

> <PUBCHEM_COMPOUND_CANONICALIZED>
1

> <PUBCHEM_CACTVS_COMPLEXITY>
430

> <PUBCHEM_CACTVS_HBOND_ACCEPTOR>
6

> <PUBCHEM_CACTVS_HBOND_DONOR>
3

> <PUBCHEM_CACTVS_ROTATABLE_BOND>
2

> <PUBCHEM_CACTVS_SUBSKEYS>
AAADccBzuAAAAAAAAAAAAAAAAAAAAWJAAAAgAAAAAAAAAEABgAAAHgAQCAAACBzhlgYFsBfMFgCoAQ9x9AKAgC0XEKABUIHoVECDWB5AyCQeQIAPIALTAGC6BQAAAAAAAAAAAAAAAAAAAAAAAAAAAAAAAA==

> <PUBCHEM_IUPAC_OPENEYE_NAME>
(2S,3S,4R,5R)-3,4-dihydroxy-5-(6-oxo-3H-purin-9-yl)tetrahydrofuran-2-carbaldehyde

> <PUBCHEM_IUPAC_CAS_NAME>
(2S,3S,4R,5R)-3,4-dihydroxy-5-(6-oxo-3H-purin-9-yl)-2-oxolanecarboxaldehyde

> <PUBCHEM_IUPAC_NAME>
(2S,3S,4R,5R)-3,4-dihydroxy-5-(6-oxo-3H-purin-9-yl)oxolane-2-carbaldehyde

> <PUBCHEM_IUPAC_SYSTEMATIC_NAME>
(2S,3S,4R,5R)-3,4-bis(oxidanyl)-5-(6-oxidanylidene-3H-purin-9-yl)oxolane-2-carbaldehyde

> <PUBCHEM_IUPAC_TRADITIONAL_NAME>
(2S,3S,4R,5R)-3,4-dihydroxy-5-(6-keto-3H-purin-9-yl)tetrahydrofuran-2-carbaldehyde

> <PUBCHEM_IUPAC_INCHI>
InChI=1S/C10H10N4O5/c15-1-4-6(16)7(17)10(19-4)14-3-13-5-8(14)11-2-12-9(5)18/h1-4,6-7,10,16-17H,(H,11,12,18)/t4-,6-,7-,10-/m1/s1

> <PUBCHEM_IUPAC_INCHIKEY>
UXDAQDIRNNXQHZ-KQYNXXCUSA-N

> <PUBCHEM_XLOGP3>
-1.9

> <PUBCHEM_EXACT_MASS>
266.065119

> <PUBCHEM_MOLECULAR_FORMULA>
C10H10N4O5

> <PUBCHEM_MOLECULAR_WEIGHT>
266.2102

> <PUBCHEM_OPENEYE_CAN_SMILES>
C1=NC(=O)C2=C(N1)N(C=N2)C3C(C(C(O3)C=O)O)O

> <PUBCHEM_OPENEYE_ISO_SMILES>
C1=NC(=O)C2=C(N1)N(C=N2)[C@H]3[C@@H]([C@@H]([C@H](O3)C=O)O)O

> <PUBCHEM_CACTVS_TPSA>
126

> <PUBCHEM_MONOISOTOPIC_WEIGHT>
266.065119

> <PUBCHEM_TOTAL_CHARGE>
0

> <PUBCHEM_HEAVY_ATOM_COUNT>
19

> <PUBCHEM_ATOM_DEF_STEREO_COUNT>
4

> <PUBCHEM_ATOM_UDEF_STEREO_COUNT>
0

> <PUBCHEM_BOND_DEF_STEREO_COUNT>
0

> <PUBCHEM_BOND_UDEF_STEREO_COUNT>
0

> <PUBCHEM_ISOTOPIC_ATOM_COUNT>
0

> <PUBCHEM_COMPONENT_COUNT>
1

> <PUBCHEM_CACTVS_TAUTO_COUNT>
6

> <PUBCHEM_COORDINATE_TYPE>
1
5
255

> <PUBCHEM_BONDANNOTATIONS>
13  16  6
14  17  8
17  18  8
11  2  5
12  3  5
10  6  6
6  14  8
6  15  8
7  14  8
7  19  8
8  15  8
8  17  8
9  18  8
9  19  8

$$$$

