20565
  -OEChem-07051213132D

 32 31  0     0  0  0  0  0  0999 V2000
    5.8890    2.5530    0.0000 Cl  0  0  0  0  0  0  0  0  0  0  0  0
    6.2550    3.9190    0.0000 Cl  0  0  0  0  0  0  0  0  0  0  0  0
    7.2550    2.1870    0.0000 Cl  0  0  0  0  0  0  0  0  0  0  0  0
    3.1350    3.6200    0.0000 O   0  0  0  0  0  0  0  0  0  0  0  0
    8.4871    3.0530    0.0000 O   0  5  0  0  0  0  0  0  0  0  0  0
    7.6210    4.5530    0.0000 O   0  0  0  0  0  0  0  0  0  0  0  0
    2.2690    5.1200    0.0000 N   0  3  0  0  0  0  0  0  0  0  0  0
    1.4030    3.6200    0.0000 N   0  0  0  0  0  0  0  0  0  0  0  0
    2.2690    4.1200    0.0000 C   0  0  0  0  0  0  0  0  0  0  0  0
    2.2690    6.1200    0.0000 C   0  0  0  0  0  0  0  0  0  0  0  0
    3.2690    5.1200    0.0000 C   0  0  0  0  0  0  0  0  0  0  0  0
    1.4030    2.6200    0.0000 C   0  0  0  0  0  0  0  0  0  0  0  0
    0.5369    2.1200    0.0000 C   0  0  0  0  0  0  0  0  0  0  0  0
    2.2690    2.1200    0.0000 C   0  0  0  0  0  0  0  0  0  0  0  0
    0.5369    1.1200    0.0000 C   0  0  0  0  0  0  0  0  0  0  0  0
    2.2690    1.1200    0.0000 C   0  0  0  0  0  0  0  0  0  0  0  0
    1.4030    0.6200    0.0000 C   0  0  0  0  0  0  0  0  0  0  0  0
    6.7550    3.0530    0.0000 C   0  0  0  0  0  0  0  0  0  0  0  0
    7.6210    3.5530    0.0000 C   0  0  0  0  0  0  0  0  0  0  0  0
    1.6490    5.1200    0.0000 H   0  0  0  0  0  0  0  0  0  0  0  0
    2.8890    6.1200    0.0000 H   0  0  0  0  0  0  0  0  0  0  0  0
    2.2690    6.7400    0.0000 H   0  0  0  0  0  0  0  0  0  0  0  0
    1.6490    6.1200    0.0000 H   0  0  0  0  0  0  0  0  0  0  0  0
    3.2690    4.5000    0.0000 H   0  0  0  0  0  0  0  0  0  0  0  0
    3.8890    5.1200    0.0000 H   0  0  0  0  0  0  0  0  0  0  0  0
    3.2690    5.7400    0.0000 H   0  0  0  0  0  0  0  0  0  0  0  0
    0.8660    3.9300    0.0000 H   0  0  0  0  0  0  0  0  0  0  0  0
    0.0000    2.4300    0.0000 H   0  0  0  0  0  0  0  0  0  0  0  0
    2.8059    2.4300    0.0000 H   0  0  0  0  0  0  0  0  0  0  0  0
    0.0000    0.8100    0.0000 H   0  0  0  0  0  0  0  0  0  0  0  0
    2.8059    0.8100    0.0000 H   0  0  0  0  0  0  0  0  0  0  0  0
    1.4030    0.0000    0.0000 H   0  0  0  0  0  0  0  0  0  0  0  0
  1 18  1  0  0  0  0
  2 18  1  0  0  0  0
  3 18  1  0  0  0  0
  4  9  2  0  0  0  0
  5 19  1  0  0  0  0
  6 19  2  0  0  0  0
  7  9  1  0  0  0  0
  7 10  1  0  0  0  0
  7 11  1  0  0  0  0
  7 20  1  0  0  0  0
  8  9  1  0  0  0  0
  8 12  1  0  0  0  0
  8 27  1  0  0  0  0
 10 21  1  0  0  0  0
 10 22  1  0  0  0  0
 10 23  1  0  0  0  0
 11 24  1  0  0  0  0
 11 25  1  0  0  0  0
 11 26  1  0  0  0  0
 12 13  2  0  0  0  0
 12 14  1  0  0  0  0
 13 15  1  0  0  0  0
 13 28  1  0  0  0  0
 14 16  2  0  0  0  0
 14 29  1  0  0  0  0
 15 17  2  0  0  0  0
 15 30  1  0  0  0  0
 16 17  1  0  0  0  0
 16 31  1  0  0  0  0
 17 32  1  0  0  0  0
 18 19  1  0  0  0  0
M  CHG  2   5  -1   7   1
M  END
> <PUBCHEM_COMPOUND_CID>
20565

> <PUBCHEM_COMPOUND_CANONICALIZED>
1

> <PUBCHEM_CACTVS_COMPLEXITY>
229

> <PUBCHEM_CACTVS_HBOND_ACCEPTOR>
3

> <PUBCHEM_CACTVS_HBOND_DONOR>
2

> <PUBCHEM_CACTVS_ROTATABLE_BOND>
1

> <PUBCHEM_CACTVS_SUBSKEYS>
AAADccBzMAAGAAAAAAAAAAAAAAAAAAAAAAAwAAAAAAAAAAABAAAAHgIQAAAACAqBkIQzyIPAAACIACTSWACCAAAhAgAIiIAIZYjIICLAkZGEIAholgJIyCcQAAAAAAAAAAAAAAAAAAAAAAAAAAAAAAAAAA==

> <PUBCHEM_IUPAC_OPENEYE_NAME>
dimethyl(phenylcarbamoyl)ammonium; 2,2,2-trichloroacetate

> <PUBCHEM_IUPAC_CAS_NAME>
[anilino(oxo)methyl]-dimethylammonium; 2,2,2-trichloroacetate

> <PUBCHEM_IUPAC_NAME>
dimethyl(phenylcarbamoyl)azanium; 2,2,2-trichloroacetate

> <PUBCHEM_IUPAC_SYSTEMATIC_NAME>
dimethyl(phenylcarbamoyl)azanium; 2,2,2-tris(chloranyl)ethanoate

> <PUBCHEM_IUPAC_TRADITIONAL_NAME>
dimethyl(phenylcarbamoyl)ammonium; 2,2,2-trichloroacetate

> <PUBCHEM_IUPAC_INCHI>
InChI=1S/C9H12N2O.C2HCl3O2/c1-11(2)9(12)10-8-6-4-3-5-7-8;3-2(4,5)1(6)7/h3-7H,1-2H3,(H,10,12);(H,6,7)

> <PUBCHEM_IUPAC_INCHIKEY>
XDWSZOWLJIWERG-UHFFFAOYSA-N

> <PUBCHEM_EXACT_MASS>
325.999175

> <PUBCHEM_MOLECULAR_FORMULA>
C11H13Cl3N2O3

> <PUBCHEM_MOLECULAR_WEIGHT>
327.59152

> <PUBCHEM_OPENEYE_CAN_SMILES>
C[NH+](C)C(=O)NC1=CC=CC=C1.C(=O)(C(Cl)(Cl)Cl)[O-]

> <PUBCHEM_OPENEYE_ISO_SMILES>
C[NH+](C)C(=O)NC1=CC=CC=C1.C(=O)(C(Cl)(Cl)Cl)[O-]

> <PUBCHEM_CACTVS_TPSA>
73.7

> <PUBCHEM_MONOISOTOPIC_WEIGHT>
325.999175

> <PUBCHEM_TOTAL_CHARGE>
0

> <PUBCHEM_HEAVY_ATOM_COUNT>
19

> <PUBCHEM_ATOM_DEF_STEREO_COUNT>
0

> <PUBCHEM_ATOM_UDEF_STEREO_COUNT>
0

> <PUBCHEM_BOND_DEF_STEREO_COUNT>
0

> <PUBCHEM_BOND_UDEF_STEREO_COUNT>
0

> <PUBCHEM_ISOTOPIC_ATOM_COUNT>
0

> <PUBCHEM_COMPONENT_COUNT>
2

> <PUBCHEM_CACTVS_TAUTO_COUNT>
3

> <PUBCHEM_COORDINATE_TYPE>
1
5
255

> <PUBCHEM_BONDANNOTATIONS>
12  13  8
12  14  8
13  15  8
14  16  8
15  17  8
16  17  8

$$$$

