247023
  -OEChem-07051213072D

 59 62  0     1  0  0  0  0  0999 V2000
    6.5270    1.0493    0.0000 O   0  0  0  0  0  0  0  0  0  0  0  0
    3.7320   -2.5030    0.0000 O   0  0  0  0  0  0  0  0  0  0  0  0
    9.7142    2.5489    0.0000 O   0  0  0  0  0  0  0  0  0  0  0  0
    2.8718   -0.9997    0.0000 O   0  0  0  0  0  0  0  0  0  0  0  0
    6.4831   -0.9575    0.0000 C   0  0  2  0  0  0  0  0  0  0  0  0
    7.3931   -0.4507    0.0000 C   0  0  2  0  0  0  0  0  0  0  0  0
    8.2591   -0.9507    0.0000 C   0  0  2  0  0  0  0  0  0  0  0  0
    9.1251   -0.4507    0.0000 C   0  0  1  0  0  0  0  0  0  0  0  0
    6.4750   -1.9991    0.0000 C   0  0  2  0  0  0  0  0  0  0  0  0
    9.1251    0.5493    0.0000 C   0  0  2  0  0  0  0  0  0  0  0  0
    8.2752   -1.9922    0.0000 C   0  0  0  0  0  0  0  0  0  0  0  0
    7.3771   -2.5200    0.0000 C   0  0  0  0  0  0  0  0  0  0  0  0
    5.5562   -0.3935    0.0000 C   0  0  0  0  0  0  0  0  0  0  0  0
    8.2591    1.0493    0.0000 C   0  0  0  0  0  0  0  0  0  0  0  0
    7.3931    0.5493    0.0000 C   0  0  0  0  0  0  0  0  0  0  0  0
    5.5396   -2.5489    0.0000 C   0  0  0  0  0  0  0  0  0  0  0  0
   10.0713   -0.7554    0.0000 C   0  0  0  0  0  0  0  0  0  0  0  0
    6.4908    0.0424    0.0000 C   0  0  0  0  0  0  0  0  0  0  0  0
    4.6084   -0.9214    0.0000 C   0  0  0  0  0  0  0  0  0  0  0  0
    4.6000   -2.0064    0.0000 C   0  0  1  0  0  0  0  0  0  0  0  0
   10.0713    0.8540    0.0000 C   0  0  0  0  0  0  0  0  0  0  0  0
    9.1251    1.5493    0.0000 C   0  0  0  0  0  0  0  0  0  0  0  0
   10.6550    0.0493    0.0000 C   0  0  0  0  0  0  0  0  0  0  0  0
   10.3820    1.8046    0.0000 C   0  0  0  0  0  0  0  0  0  0  0  0
   11.3605    2.0108    0.0000 C   0  0  0  0  0  0  0  0  0  0  0  0
    2.8680   -1.9997    0.0000 C   0  0  0  0  0  0  0  0  0  0  0  0
    2.0000   -2.4964    0.0000 C   0  0  0  0  0  0  0  0  0  0  0  0
    8.1292   -0.0257    0.0000 H   0  0  0  0  0  0  0  0  0  0  0  0
    8.9985   -1.3700    0.0000 H   0  0  0  0  0  0  0  0  0  0  0  0
    9.2151   -1.2959    0.0000 H   0  0  0  0  0  0  0  0  0  0  0  0
    6.4783   -2.8491    0.0000 H   0  0  0  0  0  0  0  0  0  0  0  0
    8.4932   -2.5726    0.0000 H   0  0  0  0  0  0  0  0  0  0  0  0
    8.8843   -1.8767    0.0000 H   0  0  0  0  0  0  0  0  0  0  0  0
    6.9798   -2.9959    0.0000 H   0  0  0  0  0  0  0  0  0  0  0  0
    7.7781   -2.9928    0.0000 H   0  0  0  0  0  0  0  0  0  0  0  0
    5.9644    0.0732    0.0000 H   0  0  0  0  0  0  0  0  0  0  0  0
    5.1663    0.0886    0.0000 H   0  0  0  0  0  0  0  0  0  0  0  0
    8.6576    1.5243    0.0000 H   0  0  0  0  0  0  0  0  0  0  0  0
    7.8606    1.5243    0.0000 H   0  0  0  0  0  0  0  0  0  0  0  0
    5.1423   -3.0248    0.0000 H   0  0  0  0  0  0  0  0  0  0  0  0
    5.9406   -3.0218    0.0000 H   0  0  0  0  0  0  0  0  0  0  0  0
    9.8203   -1.3223    0.0000 H   0  0  0  0  0  0  0  0  0  0  0  0
   10.6087   -1.0647    0.0000 H   0  0  0  0  0  0  0  0  0  0  0  0
    7.1108    0.0377    0.0000 H   0  0  0  0  0  0  0  0  0  0  0  0
    6.4956    0.6624    0.0000 H   0  0  0  0  0  0  0  0  0  0  0  0
    5.8708    0.0472    0.0000 H   0  0  0  0  0  0  0  0  0  0  0  0
    4.4038   -0.3361    0.0000 H   0  0  0  0  0  0  0  0  0  0  0  0
    3.9967   -1.0228    0.0000 H   0  0  0  0  0  0  0  0  0  0  0  0
    4.0648   -1.6933    0.0000 H   0  0  0  0  0  0  0  0  0  0  0  0
    9.7451    1.5493    0.0000 H   0  0  0  0  0  0  0  0  0  0  0  0
    9.1251    2.1693    0.0000 H   0  0  0  0  0  0  0  0  0  0  0  0
    8.5051    1.5493    0.0000 H   0  0  0  0  0  0  0  0  0  0  0  0
   11.2750    0.0493    0.0000 H   0  0  0  0  0  0  0  0  0  0  0  0
   11.4884    1.4041    0.0000 H   0  0  0  0  0  0  0  0  0  0  0  0
   11.9672    2.1386    0.0000 H   0  0  0  0  0  0  0  0  0  0  0  0
   11.2327    2.6174    0.0000 H   0  0  0  0  0  0  0  0  0  0  0  0
    1.6921   -1.9582    0.0000 H   0  0  0  0  0  0  0  0  0  0  0  0
    1.4619   -2.8043    0.0000 H   0  0  0  0  0  0  0  0  0  0  0  0
    2.3079   -3.0345    0.0000 H   0  0  0  0  0  0  0  0  0  0  0  0
  1 15  2  0  0  0  0
 20  2  1  6  0  0  0
  2 26  1  0  0  0  0
  3 24  2  0  0  0  0
  4 26  2  0  0  0  0
  5  6  1  0  0  0  0
  5  9  1  0  0  0  0
  5 13  1  0  0  0  0
  5 18  1  1  0  0  0
  6  7  1  0  0  0  0
  6 15  1  0  0  0  0
  6 28  1  6  0  0  0
  7  8  1  0  0  0  0
  7 11  1  0  0  0  0
  7 29  1  1  0  0  0
  8 10  1  0  0  0  0
  8 17  1  0  0  0  0
  8 30  1  6  0  0  0
  9 12  1  0  0  0  0
  9 16  1  0  0  0  0
  9 31  1  1  0  0  0
 10 14  1  0  0  0  0
 10 21  1  0  0  0  0
 10 22  1  1  0  0  0
 11 12  1  0  0  0  0
 11 32  1  0  0  0  0
 11 33  1  0  0  0  0
 12 34  1  0  0  0  0
 12 35  1  0  0  0  0
 13 19  1  0  0  0  0
 13 36  1  0  0  0  0
 13 37  1  0  0  0  0
 14 15  1  0  0  0  0
 14 38  1  0  0  0  0
 14 39  1  0  0  0  0
 16 20  1  0  0  0  0
 16 40  1  0  0  0  0
 16 41  1  0  0  0  0
 17 23  1  0  0  0  0
 17 42  1  0  0  0  0
 17 43  1  0  0  0  0
 18 44  1  0  0  0  0
 18 45  1  0  0  0  0
 18 46  1  0  0  0  0
 19 20  1  0  0  0  0
 19 47  1  0  0  0  0
 19 48  1  0  0  0  0
 20 49  1  0  0  0  0
 21 23  2  0  0  0  0
 21 24  1  0  0  0  0
 22 50  1  0  0  0  0
 22 51  1  0  0  0  0
 22 52  1  0  0  0  0
 23 53  1  0  0  0  0
 24 25  1  0  0  0  0
 25 54  1  0  0  0  0
 25 55  1  0  0  0  0
 25 56  1  0  0  0  0
 26 27  1  0  0  0  0
 27 57  1  0  0  0  0
 27 58  1  0  0  0  0
 27 59  1  0  0  0  0
M  END
> <PUBCHEM_COMPOUND_CID>
247023

> <PUBCHEM_COMPOUND_CANONICALIZED>
1

> <PUBCHEM_CACTVS_COMPLEXITY>
722

> <PUBCHEM_CACTVS_HBOND_ACCEPTOR>
4

> <PUBCHEM_CACTVS_HBOND_DONOR>
0

> <PUBCHEM_CACTVS_ROTATABLE_BOND>
3

> <PUBCHEM_CACTVS_SUBSKEYS>
AAADcfB4OAAAAAAAAAAAAAAAAAAAAQAAAAAwYMAAAAAAAEDAAAAAGgAAAAAADxSggAICCAAABACIAqDSCAAAAAAgAAAACAEAAEgAABIAAAACAAAEgAAIAYOIyvCvgAAAAAAAAADAAAYAACAAAAAAAAAAAA==

> <PUBCHEM_IUPAC_OPENEYE_NAME>
[(3R,5R,8S,9S,10S,13S,14S)-17-acetyl-10,13-dimethyl-11-oxo-1,2,3,4,5,6,7,8,9,12,14,15-dodecahydrocyclopenta[a]phenanthren-3-yl] acetate

> <PUBCHEM_IUPAC_CAS_NAME>
acetic acid [(3R,5R,8S,9S,10S,13S,14S)-17-acetyl-10,13-dimethyl-11-oxo-1,2,3,4,5,6,7,8,9,12,14,15-dodecahydrocyclopenta[a]phenanthren-3-yl] ester

> <PUBCHEM_IUPAC_NAME>
[(3R,5R,8S,9S,10S,13S,14S)-17-acetyl-10,13-dimethyl-11-oxo-1,2,3,4,5,6,7,8,9,12,14,15-dodecahydrocyclopenta[a]phenanthren-3-yl] acetate

> <PUBCHEM_IUPAC_SYSTEMATIC_NAME>
[(3R,5R,8S,9S,10S,13S,14S)-17-ethanoyl-10,13-dimethyl-11-oxidanylidene-1,2,3,4,5,6,7,8,9,12,14,15-dodecahydrocyclopenta[a]phenanthren-3-yl] ethanoate

> <PUBCHEM_IUPAC_TRADITIONAL_NAME>
acetic acid [(3R,5R,8S,9S,10S,13S,14S)-17-acetyl-11-keto-10,13-dimethyl-1,2,3,4,5,6,7,8,9,12,14,15-dodecahydrocyclopenta[a]phenanthren-3-yl] ester

> <PUBCHEM_IUPAC_INCHI>
InChI=1S/C23H32O4/c1-13(24)18-7-8-19-17-6-5-15-11-16(27-14(2)25)9-10-22(15,3)21(17)20(26)12-23(18,19)4/h7,15-17,19,21H,5-6,8-12H2,1-4H3/t15-,16-,17+,19+,21-,22+,23-/m1/s1

> <PUBCHEM_IUPAC_INCHIKEY>
JAZBMNIJZWDVQJ-VEWLMHDZSA-N

> <PUBCHEM_XLOGP3_AA>
3.7

> <PUBCHEM_EXACT_MASS>
372.23006

> <PUBCHEM_MOLECULAR_FORMULA>
C23H32O4

> <PUBCHEM_MOLECULAR_WEIGHT>
372.49778

> <PUBCHEM_OPENEYE_CAN_SMILES>
CC(=O)C1=CCC2C1(CC(=O)C3C2CCC4C3(CCC(C4)OC(=O)C)C)C

> <PUBCHEM_OPENEYE_ISO_SMILES>
CC(=O)C1=CC[C@@H]2[C@@]1(CC(=O)[C@H]3[C@H]2CC[C@H]4[C@@]3(CC[C@H](C4)OC(=O)C)C)C

> <PUBCHEM_CACTVS_TPSA>
60.4

> <PUBCHEM_MONOISOTOPIC_WEIGHT>
372.23006

> <PUBCHEM_TOTAL_CHARGE>
0

> <PUBCHEM_HEAVY_ATOM_COUNT>
27

> <PUBCHEM_ATOM_DEF_STEREO_COUNT>
7

> <PUBCHEM_ATOM_UDEF_STEREO_COUNT>
0

> <PUBCHEM_BOND_DEF_STEREO_COUNT>
0

> <PUBCHEM_BOND_UDEF_STEREO_COUNT>
0

> <PUBCHEM_ISOTOPIC_ATOM_COUNT>
0

> <PUBCHEM_COMPONENT_COUNT>
1

> <PUBCHEM_CACTVS_TAUTO_COUNT>
15

> <PUBCHEM_COORDINATE_TYPE>
1
5
255

> <PUBCHEM_BONDANNOTATIONS>
10  22  5
20  2  6
5  18  5
6  28  6
7  29  5
8  30  6
9  31  5

$$$$

