441983
  -OEChem-07051212562D

 39 43  0     0  0  0  0  0  0999 V2000
    8.6480    2.2986    0.0000 O   0  0  0  0  0  0  0  0  0  0  0  0
    6.9654    1.7486    0.0000 N   0  0  0  0  0  0  0  0  0  0  0  0
    4.5124    0.6311    0.0000 N   0  0  0  0  0  0  0  0  0  0  0  0
    9.7248   -0.6789    0.0000 N   0  0  0  0  0  0  0  0  0  0  0  0
    5.0091    2.1644    0.0000 C   0  0  0  0  0  0  0  0  0  0  0  0
    5.6782    2.9076    0.0000 C   0  0  0  0  0  0  0  0  0  0  0  0
    5.3181    1.2134    0.0000 C   0  0  0  0  0  0  0  0  0  0  0  0
    6.6564    2.6996    0.0000 C   0  0  0  0  0  0  0  0  0  0  0  0
    6.2962    1.0054    0.0000 C   0  0  0  0  0  0  0  0  0  0  0  0
    4.0150    2.1618    0.0000 C   0  0  0  0  0  0  0  0  0  0  0  0
    3.7086    1.2161    0.0000 C   0  0  0  0  0  0  0  0  0  0  0  0
    6.6028    0.0099    0.0000 C   0  0  0  0  0  0  0  0  0  0  0  0
    7.9875    1.5478    0.0000 C   0  0  0  0  0  0  0  0  0  0  0  0
    7.6200   -0.2145    0.0000 C   0  0  0  0  0  0  0  0  0  0  0  0
    8.3170    0.5596    0.0000 C   0  0  0  0  0  0  0  0  0  0  0  0
    3.3334    2.9413    0.0000 C   0  0  0  0  0  0  0  0  0  0  0  0
    2.6994    0.9844    0.0000 C   0  0  0  0  0  0  0  0  0  0  0  0
    7.9393   -1.2514    0.0000 C   0  0  0  0  0  0  0  0  0  0  0  0
    2.3191    2.7330    0.0000 C   0  0  0  0  0  0  0  0  0  0  0  0
    2.0000    1.7479    0.0000 C   0  0  0  0  0  0  0  0  0  0  0  0
    9.3816    0.3504    0.0000 C   0  0  0  0  0  0  0  0  0  0  0  0
    8.9988   -1.4852    0.0000 C   0  0  0  0  0  0  0  0  0  0  0  0
    7.2616   -1.9868    0.0000 C   0  0  0  0  0  0  0  0  0  0  0  0
    7.5596   -2.9413    0.0000 C   0  0  0  0  0  0  0  0  0  0  0  0
    5.9105    3.4824    0.0000 H   0  0  0  0  0  0  0  0  0  0  0  0
    5.1524    3.2361    0.0000 H   0  0  0  0  0  0  0  0  0  0  0  0
    7.2703    2.7859    0.0000 H   0  0  0  0  0  0  0  0  0  0  0  0
    6.6780    3.3193    0.0000 H   0  0  0  0  0  0  0  0  0  0  0  0
    4.5113    0.0111    0.0000 H   0  0  0  0  0  0  0  0  0  0  0  0
    6.1826   -0.4460    0.0000 H   0  0  0  0  0  0  0  0  0  0  0  0
    3.5313    3.5289    0.0000 H   0  0  0  0  0  0  0  0  0  0  0  0
    2.5152    0.3924    0.0000 H   0  0  0  0  0  0  0  0  0  0  0  0
    1.9056    3.1950    0.0000 H   0  0  0  0  0  0  0  0  0  0  0  0
    9.7911    0.8159    0.0000 H   0  0  0  0  0  0  0  0  0  0  0  0
    1.3942    1.6162    0.0000 H   0  0  0  0  0  0  0  0  0  0  0  0
    9.1881   -2.0755    0.0000 H   0  0  0  0  0  0  0  0  0  0  0  0
    6.6567   -1.8508    0.0000 H   0  0  0  0  0  0  0  0  0  0  0  0
    7.1395   -3.3972    0.0000 H   0  0  0  0  0  0  0  0  0  0  0  0
    8.1646   -3.0772    0.0000 H   0  0  0  0  0  0  0  0  0  0  0  0
  1 13  2  0  0  0  0
  2  8  1  0  0  0  0
  2  9  1  0  0  0  0
  2 13  1  0  0  0  0
  3  7  1  0  0  0  0
  3 11  1  0  0  0  0
  3 29  1  0  0  0  0
  4 21  2  0  0  0  0
  4 22  1  0  0  0  0
  5  6  1  0  0  0  0
  5  7  2  0  0  0  0
  5 10  1  0  0  0  0
  6  8  1  0  0  0  0
  6 25  1  0  0  0  0
  6 26  1  0  0  0  0
  7  9  1  0  0  0  0
  8 27  1  0  0  0  0
  8 28  1  0  0  0  0
  9 12  2  0  0  0  0
 10 11  1  0  0  0  0
 10 16  2  0  0  0  0
 11 17  2  0  0  0  0
 12 14  1  0  0  0  0
 12 30  1  0  0  0  0
 13 15  1  0  0  0  0
 14 15  2  0  0  0  0
 14 18  1  0  0  0  0
 15 21  1  0  0  0  0
 16 19  1  0  0  0  0
 16 31  1  0  0  0  0
 17 20  1  0  0  0  0
 17 32  1  0  0  0  0
 18 22  2  0  0  0  0
 18 23  1  0  0  0  0
 19 20  2  0  0  0  0
 19 33  1  0  0  0  0
 20 35  1  0  0  0  0
 21 34  1  0  0  0  0
 22 36  1  0  0  0  0
 23 24  2  0  0  0  0
 23 37  1  0  0  0  0
 24 38  1  0  0  0  0
 24 39  1  0  0  0  0
M  END
> <PUBCHEM_COMPOUND_CID>
441983

> <PUBCHEM_COMPOUND_CANONICALIZED>
1

> <PUBCHEM_CACTVS_COMPLEXITY>
585

> <PUBCHEM_CACTVS_HBOND_ACCEPTOR>
2

> <PUBCHEM_CACTVS_HBOND_DONOR>
1

> <PUBCHEM_CACTVS_ROTATABLE_BOND>
1

> <PUBCHEM_CACTVS_SUBSKEYS>
AAADccB7IAAAAAAAAAAAAAAAAAAAAWAAAAA8WIEAAAAAAFiB/AAAHgAQAAAADAjBngQ8wPPJkACoAzV3VACCgCA1AiAI2SE4ZNgIYPrA1ZGUIYhglgDIyccYgcAOgAAAAAACAAAAAAAAAAQAAAAAAAAAAA==

> <PUBCHEM_IUPAC_TRADITIONAL_NAME>
1-vinyl-8,13-dihydro-7H-2,7-naphthyridino[3,2-a]$b-carbolin-5-one

> <PUBCHEM_IUPAC_INCHI>
InChI=1S/C20H15N3O/c1-2-12-10-21-11-16-15(12)9-18-19-14(7-8-23(18)20(16)24)13-5-3-4-6-17(13)22-19/h2-6,9-11,22H,1,7-8H2

> <PUBCHEM_IUPAC_INCHIKEY>
FACXQEOSOVJIPD-UHFFFAOYSA-N

> <PUBCHEM_XLOGP3_AA>
3.1

> <PUBCHEM_EXACT_MASS>
313.121512

> <PUBCHEM_MOLECULAR_FORMULA>
C20H15N3O

> <PUBCHEM_MOLECULAR_WEIGHT>
313.3526

> <PUBCHEM_OPENEYE_CAN_SMILES>
C=CC1=C2C=C3C4=C(CCN3C(=O)C2=CN=C1)C5=CC=CC=C5N4

> <PUBCHEM_OPENEYE_ISO_SMILES>
C=CC1=C2C=C3C4=C(CCN3C(=O)C2=CN=C1)C5=CC=CC=C5N4

> <PUBCHEM_CACTVS_TPSA>
49

> <PUBCHEM_MONOISOTOPIC_WEIGHT>
313.121512

> <PUBCHEM_TOTAL_CHARGE>
0

> <PUBCHEM_HEAVY_ATOM_COUNT>
24

> <PUBCHEM_ATOM_DEF_STEREO_COUNT>
0

> <PUBCHEM_ATOM_UDEF_STEREO_COUNT>
0

> <PUBCHEM_BOND_DEF_STEREO_COUNT>
0

> <PUBCHEM_BOND_UDEF_STEREO_COUNT>
0

> <PUBCHEM_ISOTOPIC_ATOM_COUNT>
0

> <PUBCHEM_COMPONENT_COUNT>
1

> <PUBCHEM_CACTVS_TAUTO_COUNT>
5

> <PUBCHEM_COORDINATE_TYPE>
1
5
255

> <PUBCHEM_BONDANNOTATIONS>
10  11  8
10  16  8
11  17  8
12  14  8
13  15  8
14  15  8
14  18  8
15  21  8
16  19  8
17  20  8
18  22  8
19  20  8
2  13  8
2  9  8
3  11  8
3  7  8
4  21  8
4  22  8
5  10  8
5  7  8
9  12  8

$$$$

