25245483
  -OEChem-07051213102D

104103  0     1  0  0  0  0  0999 V2000
   23.6506   -2.9400    0.0000 P   0  0  3  0  0  0  0  0  0  0  0  0
   25.3827   -2.9400    0.0000 P   0  0  0  0  0  0  0  0  0  0  0  0
   22.7846   -3.4400    0.0000 O   0  0  0  0  0  0  0  0  0  0  0  0
   24.5167   -2.4400    0.0000 O   0  0  0  0  0  0  0  0  0  0  0  0
   23.1506   -2.0740    0.0000 O   0  0  0  0  0  0  0  0  0  0  0  0
   24.1506   -3.8060    0.0000 O   0  0  0  0  0  0  0  0  0  0  0  0
   26.2487   -3.4400    0.0000 O   0  0  0  0  0  0  0  0  0  0  0  0
   25.8827   -2.0740    0.0000 O   0  0  0  0  0  0  0  0  0  0  0  0
   24.8827   -3.8060    0.0000 O   0  0  0  0  0  0  0  0  0  0  0  0
   14.9904    1.0600    0.0000 C   0  0  0  0  0  0  0  0  0  0  0  0
   12.3923    2.5600    0.0000 C   0  0  0  0  0  0  0  0  0  0  0  0
   14.1244    1.5600    0.0000 C   0  0  0  0  0  0  0  0  0  0  0  0
   11.5263    3.0600    0.0000 C   0  0  0  0  0  0  0  0  0  0  0  0
   13.2583    3.0600    0.0000 C   0  0  0  0  0  0  0  0  0  0  0  0
   14.9904    0.0600    0.0000 C   0  0  0  0  0  0  0  0  0  0  0  0
   16.7224    0.0600    0.0000 C   0  0  0  0  0  0  0  0  0  0  0  0
   17.5885   -0.4400    0.0000 C   0  0  0  0  0  0  0  0  0  0  0  0
    8.9282    2.5600    0.0000 C   0  0  0  0  0  0  0  0  0  0  0  0
    9.7942    3.0600    0.0000 C   0  0  0  0  0  0  0  0  0  0  0  0
   14.1244    2.5600    0.0000 C   0  0  0  0  0  0  0  0  0  0  0  0
    8.0622    3.0600    0.0000 C   0  0  0  0  0  0  0  0  0  0  0  0
   15.8564   -0.4400    0.0000 C   0  0  0  0  0  0  0  0  0  0  0  0
   10.6603    2.5600    0.0000 C   0  0  0  0  0  0  0  0  0  0  0  0
   18.4545    0.0600    0.0000 C   0  0  0  0  0  0  0  0  0  0  0  0
   19.3205   -1.4400    0.0000 C   0  0  0  0  0  0  0  0  0  0  0  0
    7.1962    2.5600    0.0000 C   0  0  0  0  0  0  0  0  0  0  0  0
    6.3301    3.0600    0.0000 C   0  0  0  0  0  0  0  0  0  0  0  0
   19.3205   -0.4400    0.0000 C   0  0  0  0  0  0  0  0  0  0  0  0
    5.4641    2.5600    0.0000 C   0  0  0  0  0  0  0  0  0  0  0  0
   13.2583    4.0600    0.0000 C   0  0  0  0  0  0  0  0  0  0  0  0
   20.1865   -1.9400    0.0000 C   0  0  0  0  0  0  0  0  0  0  0  0
   14.1244   -0.4400    0.0000 C   0  0  0  0  0  0  0  0  0  0  0  0
    9.7942    4.0600    0.0000 C   0  0  0  0  0  0  0  0  0  0  0  0
    4.5981    3.0600    0.0000 C   0  0  0  0  0  0  0  0  0  0  0  0
   18.4545    1.0600    0.0000 C   0  0  0  0  0  0  0  0  0  0  0  0
   20.1865   -2.9400    0.0000 C   0  0  0  0  0  0  0  0  0  0  0  0
    6.3301    4.0600    0.0000 C   0  0  0  0  0  0  0  0  0  0  0  0
    3.7320    2.5600    0.0000 C   0  0  0  0  0  0  0  0  0  0  0  0
   19.3205   -3.4400    0.0000 C   0  0  0  0  0  0  0  0  0  0  0  0
   21.0526   -3.4400    0.0000 C   0  0  0  0  0  0  0  0  0  0  0  0
    2.8660    3.0600    0.0000 C   0  0  0  0  0  0  0  0  0  0  0  0
   21.9186   -2.9400    0.0000 C   0  0  0  0  0  0  0  0  0  0  0  0
    2.0000    2.5600    0.0000 C   0  0  0  0  0  0  0  0  0  0  0  0
    2.8660    4.0600    0.0000 C   0  0  0  0  0  0  0  0  0  0  0  0
   15.6010    0.9523    0.0000 H   0  0  0  0  0  0  0  0  0  0  0  0
   15.2024    1.6426    0.0000 H   0  0  0  0  0  0  0  0  0  0  0  0
   11.9938    2.0850    0.0000 H   0  0  0  0  0  0  0  0  0  0  0  0
   12.7908    2.0850    0.0000 H   0  0  0  0  0  0  0  0  0  0  0  0
   13.5138    1.6677    0.0000 H   0  0  0  0  0  0  0  0  0  0  0  0
   13.9123    0.9774    0.0000 H   0  0  0  0  0  0  0  0  0  0  0  0
   11.9248    3.5350    0.0000 H   0  0  0  0  0  0  0  0  0  0  0  0
   11.1278    3.5350    0.0000 H   0  0  0  0  0  0  0  0  0  0  0  0
   17.1210    0.5349    0.0000 H   0  0  0  0  0  0  0  0  0  0  0  0
   16.3239    0.5349    0.0000 H   0  0  0  0  0  0  0  0  0  0  0  0
   17.1899   -0.9149    0.0000 H   0  0  0  0  0  0  0  0  0  0  0  0
   17.9870   -0.9149    0.0000 H   0  0  0  0  0  0  0  0  0  0  0  0
    8.5297    2.0850    0.0000 H   0  0  0  0  0  0  0  0  0  0  0  0
    9.3267    2.0850    0.0000 H   0  0  0  0  0  0  0  0  0  0  0  0
   14.6613    2.8700    0.0000 H   0  0  0  0  0  0  0  0  0  0  0  0
    8.4607    3.5350    0.0000 H   0  0  0  0  0  0  0  0  0  0  0  0
    7.6636    3.5350    0.0000 H   0  0  0  0  0  0  0  0  0  0  0  0
   15.8564   -1.0600    0.0000 H   0  0  0  0  0  0  0  0  0  0  0  0
   10.6603    1.9400    0.0000 H   0  0  0  0  0  0  0  0  0  0  0  0
   18.7099   -1.3323    0.0000 H   0  0  0  0  0  0  0  0  0  0  0  0
   19.1085   -2.0226    0.0000 H   0  0  0  0  0  0  0  0  0  0  0  0
    7.1962    1.9400    0.0000 H   0  0  0  0  0  0  0  0  0  0  0  0
   19.8574   -0.1300    0.0000 H   0  0  0  0  0  0  0  0  0  0  0  0
    5.0656    2.0850    0.0000 H   0  0  0  0  0  0  0  0  0  0  0  0
    5.8626    2.0850    0.0000 H   0  0  0  0  0  0  0  0  0  0  0  0
   13.8783    4.0600    0.0000 H   0  0  0  0  0  0  0  0  0  0  0  0
   13.2583    4.6800    0.0000 H   0  0  0  0  0  0  0  0  0  0  0  0
   12.6383    4.0600    0.0000 H   0  0  0  0  0  0  0  0  0  0  0  0
   20.7971   -2.0477    0.0000 H   0  0  0  0  0  0  0  0  0  0  0  0
   20.3986   -1.3574    0.0000 H   0  0  0  0  0  0  0  0  0  0  0  0
   13.8144    0.0969    0.0000 H   0  0  0  0  0  0  0  0  0  0  0  0
   13.5874   -0.7500    0.0000 H   0  0  0  0  0  0  0  0  0  0  0  0
   14.4344   -0.9769    0.0000 H   0  0  0  0  0  0  0  0  0  0  0  0
   10.4142    4.0600    0.0000 H   0  0  0  0  0  0  0  0  0  0  0  0
    9.7942    4.6800    0.0000 H   0  0  0  0  0  0  0  0  0  0  0  0
    9.1742    4.0600    0.0000 H   0  0  0  0  0  0  0  0  0  0  0  0
    4.9966    3.5350    0.0000 H   0  0  0  0  0  0  0  0  0  0  0  0
    4.1996    3.5350    0.0000 H   0  0  0  0  0  0  0  0  0  0  0  0
   19.0745    1.0600    0.0000 H   0  0  0  0  0  0  0  0  0  0  0  0
   18.4545    1.6800    0.0000 H   0  0  0  0  0  0  0  0  0  0  0  0
   17.8345    1.0600    0.0000 H   0  0  0  0  0  0  0  0  0  0  0  0
    6.9501    4.0600    0.0000 H   0  0  0  0  0  0  0  0  0  0  0  0
    6.3301    4.6800    0.0000 H   0  0  0  0  0  0  0  0  0  0  0  0
    5.7101    4.0600    0.0000 H   0  0  0  0  0  0  0  0  0  0  0  0
    3.7320    1.9400    0.0000 H   0  0  0  0  0  0  0  0  0  0  0  0
   19.0105   -2.9031    0.0000 H   0  0  0  0  0  0  0  0  0  0  0  0
   18.7836   -3.7500    0.0000 H   0  0  0  0  0  0  0  0  0  0  0  0
   19.6305   -3.9769    0.0000 H   0  0  0  0  0  0  0  0  0  0  0  0
   21.0526   -4.0600    0.0000 H   0  0  0  0  0  0  0  0  0  0  0  0
   22.3171   -2.4651    0.0000 H   0  0  0  0  0  0  0  0  0  0  0  0
   21.5201   -2.4651    0.0000 H   0  0  0  0  0  0  0  0  0  0  0  0
    1.6900    3.0969    0.0000 H   0  0  0  0  0  0  0  0  0  0  0  0
    3.4860    4.0600    0.0000 H   0  0  0  0  0  0  0  0  0  0  0  0
    1.4631    2.2500    0.0000 H   0  0  0  0  0  0  0  0  0  0  0  0
    2.3100    2.0231    0.0000 H   0  0  0  0  0  0  0  0  0  0  0  0
    2.8660    4.6800    0.0000 H   0  0  0  0  0  0  0  0  0  0  0  0
    2.2460    4.0600    0.0000 H   0  0  0  0  0  0  0  0  0  0  0  0
   23.4606   -1.5370    0.0000 H   0  0  0  0  0  0  0  0  0  0  0  0
   26.7856   -3.1300    0.0000 H   0  0  0  0  0  0  0  0  0  0  0  0
   25.5727   -1.5370    0.0000 H   0  0  0  0  0  0  0  0  0  0  0  0
  1  3  1  0  0  0  0
  1  4  1  0  0  0  0
  1  5  1  0  0  0  0
  1  6  2  0  0  0  0
  2  4  1  0  0  0  0
  2  7  1  0  0  0  0
  2  8  1  0  0  0  0
  2  9  2  0  0  0  0
  3 42  1  0  0  0  0
  5102  1  0  0  0  0
  7103  1  0  0  0  0
  8104  1  0  0  0  0
 10 12  1  0  0  0  0
 10 15  1  0  0  0  0
 10 45  1  0  0  0  0
 10 46  1  0  0  0  0
 11 13  1  0  0  0  0
 11 14  1  0  0  0  0
 11 47  1  0  0  0  0
 11 48  1  0  0  0  0
 12 20  1  0  0  0  0
 12 49  1  0  0  0  0
 12 50  1  0  0  0  0
 13 23  1  0  0  0  0
 13 51  1  0  0  0  0
 13 52  1  0  0  0  0
 14 20  2  0  0  0  0
 14 30  1  0  0  0  0
 15 22  2  0  0  0  0
 15 32  1  0  0  0  0
 16 17  1  0  0  0  0
 16 22  1  0  0  0  0
 16 53  1  0  0  0  0
 16 54  1  0  0  0  0
 17 24  1  0  0  0  0
 17 55  1  0  0  0  0
 17 56  1  0  0  0  0
 18 19  1  0  0  0  0
 18 21  1  0  0  0  0
 18 57  1  0  0  0  0
 18 58  1  0  0  0  0
 19 23  2  0  0  0  0
 19 33  1  0  0  0  0
 20 59  1  0  0  0  0
 21 26  1  0  0  0  0
 21 60  1  0  0  0  0
 21 61  1  0  0  0  0
 22 62  1  0  0  0  0
 23 63  1  0  0  0  0
 24 28  2  0  0  0  0
 24 35  1  0  0  0  0
 25 28  1  0  0  0  0
 25 31  1  0  0  0  0
 25 64  1  0  0  0  0
 25 65  1  0  0  0  0
 26 27  2  0  0  0  0
 26 66  1  0  0  0  0
 27 29  1  0  0  0  0
 27 37  1  0  0  0  0
 28 67  1  0  0  0  0
 29 34  1  0  0  0  0
 29 68  1  0  0  0  0
 29 69  1  0  0  0  0
 30 70  1  0  0  0  0
 30 71  1  0  0  0  0
 30 72  1  0  0  0  0
 31 36  1  0  0  0  0
 31 73  1  0  0  0  0
 31 74  1  0  0  0  0
 32 75  1  0  0  0  0
 32 76  1  0  0  0  0
 32 77  1  0  0  0  0
 33 78  1  0  0  0  0
 33 79  1  0  0  0  0
 33 80  1  0  0  0  0
 34 38  1  0  0  0  0
 34 81  1  0  0  0  0
 34 82  1  0  0  0  0
 35 83  1  0  0  0  0
 35 84  1  0  0  0  0
 35 85  1  0  0  0  0
 36 39  1  0  0  0  0
 36 40  2  0  0  0  0
 37 86  1  0  0  0  0
 37 87  1  0  0  0  0
 37 88  1  0  0  0  0
 38 41  2  0  0  0  0
 38 89  1  0  0  0  0
 39 90  1  0  0  0  0
 39 91  1  0  0  0  0
 39 92  1  0  0  0  0
 40 42  1  0  0  0  0
 40 93  1  0  0  0  0
 41 43  1  0  0  0  0
 41 44  1  0  0  0  0
 42 94  1  0  0  0  0
 42 95  1  0  0  0  0
 43 96  1  0  0  0  0
 43 98  1  0  0  0  0
 43 99  1  0  0  0  0
 44 97  1  0  0  0  0
 44100  1  0  0  0  0
 44101  1  0  0  0  0
M  END
> <PUBCHEM_COMPOUND_CID>
25245483

> <PUBCHEM_COMPOUND_CANONICALIZED>
1

> <PUBCHEM_CACTVS_COMPLEXITY>
1160

> <PUBCHEM_CACTVS_HBOND_ACCEPTOR>
7

> <PUBCHEM_CACTVS_HBOND_DONOR>
3

> <PUBCHEM_CACTVS_ROTATABLE_BOND>
23

> <PUBCHEM_CACTVS_SUBSKEYS>
AAADcfB8OAMAAAAAAAAAAAAAAAAAAAAAAAAAAAAAAAAAAAAAAAAAGgAACCAADACggAICAAAAARCAQiBCAIAAAAAgAAAACAAAAAgABAIAAQAAEAAAgAAIAAIAAAAAAAAAAAAAAAAAAAAAAAAAAAAAAAAAAA==

> <PUBCHEM_IUPAC_OPENEYE_NAME>
[(2Z,6Z,10Z,14Z,18E,22E)-3,7,11,15,19,23,27-heptamethyloctacosa-2,6,10,14,18,22,26-heptaenyl] phosphono hydrogen phosphate

> <PUBCHEM_IUPAC_CAS_NAME>
[(2Z,6Z,10Z,14Z,18E,22E)-3,7,11,15,19,23,27-heptamethyloctacosa-2,6,10,14,18,22,26-heptaenyl] phosphono hydrogen phosphate

> <PUBCHEM_IUPAC_NAME>
[(2Z,6Z,10Z,14Z,18E,22E)-3,7,11,15,19,23,27-heptamethyloctacosa-2,6,10,14,18,22,26-heptaenyl] phosphono hydrogen phosphate

> <PUBCHEM_IUPAC_SYSTEMATIC_NAME>
[(2Z,6Z,10Z,14Z,18E,22E)-3,7,11,15,19,23,27-heptamethyloctacosa-2,6,10,14,18,22,26-heptaenyl] phosphono hydrogen phosphate

> <PUBCHEM_IUPAC_TRADITIONAL_NAME>
[(2Z,6Z,10Z,14Z,18E,22E)-3,7,11,15,19,23,27-heptamethyloctacosa-2,6,10,14,18,22,26-heptaenyl] phosphono hydrogen phosphate

> <PUBCHEM_IUPAC_INCHI>
InChI=1S/C35H60O7P2/c1-29(2)15-9-16-30(3)17-10-18-31(4)19-11-20-32(5)21-12-22-33(6)23-13-24-34(7)25-14-26-35(8)27-28-41-44(39,40)42-43(36,37)38/h15,17,19,21,23,25,27H,9-14,16,18,20,22,24,26,28H2,1-8H3,(H,39,40)(H2,36,37,38)/b30-17+,31-19+,32-21-,33-23-,34-25-,35-27-

> <PUBCHEM_IUPAC_INCHIKEY>
LSJLEXWXRKTZAJ-KQKACQDCSA-N

> <PUBCHEM_XLOGP3_AA>
10

> <PUBCHEM_EXACT_MASS>
654.381428

> <PUBCHEM_MOLECULAR_FORMULA>
C35H60O7P2

> <PUBCHEM_MOLECULAR_WEIGHT>
654.794224

> <PUBCHEM_OPENEYE_CAN_SMILES>
CC(=CCCC(=CCCC(=CCCC(=CCCC(=CCCC(=CCCC(=CCOP(=O)(O)OP(=O)(O)O)C)C)C)C)C)C)C

> <PUBCHEM_OPENEYE_ISO_SMILES>
CC(=CCC/C(=C/CC/C(=C/CC/C(=C\CC/C(=C\CC/C(=C\CC/C(=C\COP(=O)(O)OP(=O)(O)O)/C)/C)/C)/C)/C)/C)C

> <PUBCHEM_CACTVS_TPSA>
113

> <PUBCHEM_MONOISOTOPIC_WEIGHT>
654.381428

> <PUBCHEM_TOTAL_CHARGE>
0

> <PUBCHEM_HEAVY_ATOM_COUNT>
44

> <PUBCHEM_ATOM_DEF_STEREO_COUNT>
0

> <PUBCHEM_ATOM_UDEF_STEREO_COUNT>
0

> <PUBCHEM_BOND_DEF_STEREO_COUNT>
6

> <PUBCHEM_BOND_UDEF_STEREO_COUNT>
0

> <PUBCHEM_ISOTOPIC_ATOM_COUNT>
0

> <PUBCHEM_COMPONENT_COUNT>
1

> <PUBCHEM_CACTVS_TAUTO_COUNT>
1

> <PUBCHEM_COORDINATE_TYPE>
1
5
255

$$$$

