443590
  -OEChem-07051213022D

 56 64  0     1  0  0  0  0  0999 V2000
    2.0000    0.8764    0.0000 S   0  0  0  0  0  0  0  0  0  0  0  0
    2.2384   -2.7053    0.0000 O   0  0  0  0  0  0  0  0  0  0  0  0
    5.1162   -4.3210    0.0000 O   0  0  0  0  0  0  0  0  0  0  0  0
    2.6754    4.3067    0.0000 O   0  0  0  0  0  0  0  0  0  0  0  0
    8.5610   -3.1746    0.0000 O   0  0  0  0  0  0  0  0  0  0  0  0
    6.1432    5.0748    0.0000 O   0  0  0  0  0  0  0  0  0  0  0  0
    8.6881   -0.1558    0.0000 O   0  0  0  0  0  0  0  0  0  0  0  0
    8.3573    2.4092    0.0000 O   0  0  0  0  0  0  0  0  0  0  0  0
    3.4283    0.4505    0.0000 N   0  0  0  0  0  0  0  0  0  0  0  0
    3.5657   -1.9774    0.0000 N   0  0  0  0  0  0  0  0  0  0  0  0
    5.7168   -3.0735    0.0000 N   0  0  0  0  0  0  0  0  0  0  0  0
    3.4555    3.1628    0.0000 N   0  0  0  0  0  0  0  0  0  0  0  0
    7.7668   -2.2403    0.0000 N   0  0  0  0  0  0  0  0  0  0  0  0
    5.3576    3.7808    0.0000 N   0  0  0  0  0  0  0  0  0  0  0  0
    7.0701   -0.1558    0.0000 N   0  0  0  0  0  0  0  0  0  0  0  0
    6.8439    2.4426    0.0000 N   0  0  0  0  0  0  0  0  0  0  0  0
    2.7955   -0.7914    0.0000 C   0  0  3  0  0  0  0  0  0  0  0  0
    2.0523   -0.1223    0.0000 C   0  0  0  0  0  0  0  0  0  0  0  0
    2.5876   -1.7695    0.0000 C   0  0  0  0  0  0  0  0  0  0  0  0
    2.6691    1.6195    0.0000 C   0  0  0  0  0  0  0  0  0  0  0  0
    3.8747   -2.9285    0.0000 C   0  0  0  0  0  0  0  0  0  0  0  0
    2.9806   -3.3736    0.0000 C   0  0  0  0  0  0  0  0  0  0  0  0
    4.7657   -3.3825    0.0000 C   0  0  0  0  0  0  0  0  0  0  0  0
    2.6168    2.6182    0.0000 C   0  0  0  0  0  0  0  0  0  0  0  0
    6.6078   -3.5275    0.0000 C   0  0  0  0  0  0  0  0  0  0  0  0
    2.8454   -4.3644    0.0000 C   0  0  0  0  0  0  0  0  0  0  0  0
    6.1149   -4.3996    0.0000 C   0  0  0  0  0  0  0  0  0  0  0  0
    2.1080    3.4811    0.0000 C   0  0  0  0  0  0  0  0  0  0  0  0
    7.5589   -3.2184    0.0000 C   0  0  0  0  0  0  0  0  0  0  0  0
    3.6634    4.1409    0.0000 C   0  0  0  0  0  0  0  0  0  0  0  0
    6.5846   -5.2824    0.0000 C   0  0  0  0  0  0  0  0  0  0  0  0
    4.6144    4.4500    0.0000 C   0  0  0  0  0  0  0  0  0  0  0  0
    8.6222   -1.4127    0.0000 C   0  0  0  0  0  0  0  0  0  0  0  0
    7.8791   -0.7436    0.0000 C   0  0  0  0  0  0  0  0  0  0  0  0
    6.3086    4.0898    0.0000 C   0  0  0  0  0  0  0  0  0  0  0  0
    9.0700   -2.3103    0.0000 C   0  0  0  0  0  0  0  0  0  0  0  0
    7.0518    3.4207    0.0000 C   0  0  0  0  0  0  0  0  0  0  0  0
    7.3791    0.7953    0.0000 C   0  0  0  0  0  0  0  0  0  0  0  0
    5.1662    5.2824    0.0000 C   0  0  0  0  0  0  0  0  0  0  0  0
    7.5870    1.7734    0.0000 C   0  0  0  0  0  0  0  0  0  0  0  0
    8.3791    0.7953    0.0000 C   0  0  0  0  0  0  0  0  0  0  0  0
    8.0486    3.3591    0.0000 C   0  0  0  0  0  0  0  0  0  0  0  0
    1.9871   -1.0540    0.0000 H   0  0  0  0  0  0  0  0  0  0  0  0
    1.4459    0.0067    0.0000 H   0  0  0  0  0  0  0  0  0  0  0  0
    1.7709   -0.6747    0.0000 H   0  0  0  0  0  0  0  0  0  0  0  0
    2.2311   -4.2806    0.0000 H   0  0  0  0  0  0  0  0  0  0  0  0
    2.7616   -4.9787    0.0000 H   0  0  0  0  0  0  0  0  0  0  0  0
    3.4598   -4.4482    0.0000 H   0  0  0  0  0  0  0  0  0  0  0  0
    1.4883    3.5026    0.0000 H   0  0  0  0  0  0  0  0  0  0  0  0
    6.0372   -5.5736    0.0000 H   0  0  0  0  0  0  0  0  0  0  0  0
    6.8757   -5.8298    0.0000 H   0  0  0  0  0  0  0  0  0  0  0  0
    7.1319   -4.9913    0.0000 H   0  0  0  0  0  0  0  0  0  0  0  0
    9.6896   -2.3318    0.0000 H   0  0  0  0  0  0  0  0  0  0  0  0
    4.9316    5.8564    0.0000 H   0  0  0  0  0  0  0  0  0  0  0  0
    8.7435    1.2969    0.0000 H   0  0  0  0  0  0  0  0  0  0  0  0
    8.4284    3.8492    0.0000 H   0  0  0  0  0  0  0  0  0  0  0  0
  1 18  1  0  0  0  0
  1 20  1  0  0  0  0
  2 19  1  0  0  0  0
  2 22  1  0  0  0  0
  3 23  1  0  0  0  0
  3 27  1  0  0  0  0
  4 28  1  0  0  0  0
  4 30  1  0  0  0  0
  5 29  1  0  0  0  0
  5 36  1  0  0  0  0
  6 35  1  0  0  0  0
  6 39  1  0  0  0  0
  7 34  1  0  0  0  0
  7 41  1  0  0  0  0
  8 40  1  0  0  0  0
  8 42  1  0  0  0  0
  9 17  1  0  0  0  0
  9 20  2  0  0  0  0
 10 19  2  0  0  0  0
 10 21  1  0  0  0  0
 11 23  2  0  0  0  0
 11 25  1  0  0  0  0
 12 24  1  0  0  0  0
 12 30  2  0  0  0  0
 13 29  2  0  0  0  0
 13 33  1  0  0  0  0
 14 32  1  0  0  0  0
 14 35  2  0  0  0  0
 15 34  2  0  0  0  0
 15 38  1  0  0  0  0
 16 37  1  0  0  0  0
 16 40  2  0  0  0  0
 17 18  1  0  0  0  0
 17 19  1  0  0  0  0
 17 43  1  0  0  0  0
 18 44  1  0  0  0  0
 18 45  1  0  0  0  0
 20 24  1  0  0  0  0
 21 22  2  0  0  0  0
 21 23  1  0  0  0  0
 22 26  1  0  0  0  0
 24 28  2  0  0  0  0
 25 27  2  0  0  0  0
 25 29  1  0  0  0  0
 26 46  1  0  0  0  0
 26 47  1  0  0  0  0
 26 48  1  0  0  0  0
 27 31  1  0  0  0  0
 28 49  1  0  0  0  0
 30 32  1  0  0  0  0
 31 50  1  0  0  0  0
 31 51  1  0  0  0  0
 31 52  1  0  0  0  0
 32 39  2  0  0  0  0
 33 34  1  0  0  0  0
 33 36  2  0  0  0  0
 35 37  1  0  0  0  0
 36 53  1  0  0  0  0
 37 42  2  0  0  0  0
 38 40  1  0  0  0  0
 38 41  2  0  0  0  0
 39 54  1  0  0  0  0
 41 55  1  0  0  0  0
 42 56  1  0  0  0  0
M  END
> <PUBCHEM_COMPOUND_CID>
443590

> <PUBCHEM_COMPOUND_CANONICALIZED>
1

> <PUBCHEM_CACTVS_COMPLEXITY>
1070

> <PUBCHEM_CACTVS_HBOND_ACCEPTOR>
16

> <PUBCHEM_CACTVS_HBOND_DONOR>
0

> <PUBCHEM_CACTVS_ROTATABLE_BOND>
0

> <PUBCHEM_CACTVS_SUBSKEYS>
AAADccB7+ABAAAAAAAAAAAAAAAAAAWLFixYAAAAAAAAAAAAB/gAAHgQAAAAACCzl1gaihBIIFEioAY1y1ASAmCAPYjAAGCG1bFAGR5xsoCgfGWjHJADwIYAAAAAAAAAAAAAAAAAAAAAAAAAAAAAAAAAAAA==

> <PUBCHEM_IUPAC_INCHI>
InChI=1S/C26H14N8O7S/c1-9-17-24-30-14(6-39-24)21-28-12(4-37-21)19-27-11(3-35-19)20-29-13(5-36-20)22-31-15(7-38-22)26-32-16(8-42-26)23-33-18(10(2)40-23)25(34-17)41-9/h3-7,16H,8H2,1-2H3

> <PUBCHEM_IUPAC_INCHIKEY>
YVSQVYZBDXIXCC-UHFFFAOYSA-N

> <PUBCHEM_XLOGP3_AA>
2

> <PUBCHEM_EXACT_MASS>
582.070616

> <PUBCHEM_MOLECULAR_FORMULA>
C26H14N8O7S

> <PUBCHEM_MOLECULAR_WEIGHT>
582.50376

> <PUBCHEM_OPENEYE_CAN_SMILES>
CC1=C2C3=NC(=C(O3)C)C4=NC(=CO4)C5=NC(=CO5)C6=NC(=CO6)C7=NC(=CO7)C8=NC(=CO8)C9=NC(CS9)C(=N2)O1

> <PUBCHEM_OPENEYE_ISO_SMILES>
CC1=C2C3=NC(=C(O3)C)C4=NC(=CO4)C5=NC(=CO5)C6=NC(=CO6)C7=NC(=CO7)C8=NC(=CO8)C9=NC(CS9)C(=N2)O1

> <PUBCHEM_CACTVS_TPSA>
220

> <PUBCHEM_MONOISOTOPIC_WEIGHT>
582.070616

> <PUBCHEM_TOTAL_CHARGE>
0

> <PUBCHEM_HEAVY_ATOM_COUNT>
42

> <PUBCHEM_ATOM_DEF_STEREO_COUNT>
0

> <PUBCHEM_ATOM_UDEF_STEREO_COUNT>
1

> <PUBCHEM_BOND_DEF_STEREO_COUNT>
0

> <PUBCHEM_BOND_UDEF_STEREO_COUNT>
0

> <PUBCHEM_ISOTOPIC_ATOM_COUNT>
0

> <PUBCHEM_COMPONENT_COUNT>
1

> <PUBCHEM_CACTVS_TAUTO_COUNT>
1

> <PUBCHEM_COORDINATE_TYPE>
1
5
255

> <PUBCHEM_BONDANNOTATIONS>
10  19  8
10  21  8
11  23  8
11  25  8
12  24  8
12  30  8
13  29  8
13  33  8
14  32  8
14  35  8
15  34  8
15  38  8
16  37  8
16  40  8
17  43  3
2  19  8
2  22  8
21  22  8
24  28  8
25  27  8
3  23  8
3  27  8
32  39  8
33  36  8
37  42  8
38  41  8
4  28  8
4  30  8
5  29  8
5  36  8
6  35  8
6  39  8
7  34  8
7  41  8
8  40  8
8  42  8

$$$$

