12429
  -OEChem-06261206552D

 42 40  0     0  0  0  0  0  0999 V2000
    2.8850    0.0000    0.0000 I   0  5  0  0  0  0  0  0  0  0  0  0
    3.1350    5.6350    0.0000 N   0  3  0  0  0  0  0  0  0  0  0  0
    4.0010    6.1350    0.0000 C   0  0  0  0  0  0  0  0  0  0  0  0
    2.2690    5.1350    0.0000 C   0  0  0  0  0  0  0  0  0  0  0  0
    2.6350    6.5010    0.0000 C   0  0  0  0  0  0  0  0  0  0  0  0
    3.6350    4.7690    0.0000 C   0  0  0  0  0  0  0  0  0  0  0  0
    4.8671    5.6350    0.0000 C   0  0  0  0  0  0  0  0  0  0  0  0
    1.4030    5.6350    0.0000 C   0  0  0  0  0  0  0  0  0  0  0  0
    3.1350    7.3671    0.0000 C   0  0  0  0  0  0  0  0  0  0  0  0
    3.1350    3.9030    0.0000 C   0  0  0  0  0  0  0  0  0  0  0  0
    5.7331    6.1350    0.0000 C   0  0  0  0  0  0  0  0  0  0  0  0
    0.5369    5.1350    0.0000 C   0  0  0  0  0  0  0  0  0  0  0  0
    2.6350    8.2331    0.0000 C   0  0  0  0  0  0  0  0  0  0  0  0
    3.6350    3.0369    0.0000 C   0  0  0  0  0  0  0  0  0  0  0  0
    4.1100    4.3705    0.0000 H   0  0  0  0  0  0  0  0  0  0  0  0
    4.1100    5.1675    0.0000 H   0  0  0  0  0  0  0  0  0  0  0  0
    2.1601    6.8996    0.0000 H   0  0  0  0  0  0  0  0  0  0  0  0
    2.1601    6.1025    0.0000 H   0  0  0  0  0  0  0  0  0  0  0  0
    1.8705    4.6601    0.0000 H   0  0  0  0  0  0  0  0  0  0  0  0
    2.6675    4.6601    0.0000 H   0  0  0  0  0  0  0  0  0  0  0  0
    4.3996    6.6100    0.0000 H   0  0  0  0  0  0  0  0  0  0  0  0
    3.6025    6.6100    0.0000 H   0  0  0  0  0  0  0  0  0  0  0  0
    4.4685    5.1601    0.0000 H   0  0  0  0  0  0  0  0  0  0  0  0
    5.2656    5.1601    0.0000 H   0  0  0  0  0  0  0  0  0  0  0  0
    1.8015    6.1100    0.0000 H   0  0  0  0  0  0  0  0  0  0  0  0
    1.0044    6.1100    0.0000 H   0  0  0  0  0  0  0  0  0  0  0  0
    3.6100    6.9685    0.0000 H   0  0  0  0  0  0  0  0  0  0  0  0
    3.6100    7.7656    0.0000 H   0  0  0  0  0  0  0  0  0  0  0  0
    2.6601    4.3015    0.0000 H   0  0  0  0  0  0  0  0  0  0  0  0
    2.6601    3.5044    0.0000 H   0  0  0  0  0  0  0  0  0  0  0  0
    3.0981    2.7269    0.0000 H   0  0  0  0  0  0  0  0  0  0  0  0
    3.9450    2.5000    0.0000 H   0  0  0  0  0  0  0  0  0  0  0  0
    4.1720    3.3469    0.0000 H   0  0  0  0  0  0  0  0  0  0  0  0
    3.1720    8.5431    0.0000 H   0  0  0  0  0  0  0  0  0  0  0  0
    2.3250    8.7700    0.0000 H   0  0  0  0  0  0  0  0  0  0  0  0
    2.0981    7.9231    0.0000 H   0  0  0  0  0  0  0  0  0  0  0  0
    0.2269    5.6720    0.0000 H   0  0  0  0  0  0  0  0  0  0  0  0
    0.0000    4.8250    0.0000 H   0  0  0  0  0  0  0  0  0  0  0  0
    0.8469    4.5981    0.0000 H   0  0  0  0  0  0  0  0  0  0  0  0
    6.0431    5.5981    0.0000 H   0  0  0  0  0  0  0  0  0  0  0  0
    6.2700    6.4450    0.0000 H   0  0  0  0  0  0  0  0  0  0  0  0
    5.4231    6.6720    0.0000 H   0  0  0  0  0  0  0  0  0  0  0  0
  2  3  1  0  0  0  0
  2  4  1  0  0  0  0
  2  5  1  0  0  0  0
  2  6  1  0  0  0  0
  3  7  1  0  0  0  0
  3 21  1  0  0  0  0
  3 22  1  0  0  0  0
  4  8  1  0  0  0  0
  4 19  1  0  0  0  0
  4 20  1  0  0  0  0
  5  9  1  0  0  0  0
  5 17  1  0  0  0  0
  5 18  1  0  0  0  0
  6 10  1  0  0  0  0
  6 15  1  0  0  0  0
  6 16  1  0  0  0  0
  7 11  1  0  0  0  0
  7 23  1  0  0  0  0
  7 24  1  0  0  0  0
  8 12  1  0  0  0  0
  8 25  1  0  0  0  0
  8 26  1  0  0  0  0
  9 13  1  0  0  0  0
  9 27  1  0  0  0  0
  9 28  1  0  0  0  0
 10 14  1  0  0  0  0
 10 29  1  0  0  0  0
 10 30  1  0  0  0  0
 11 40  1  0  0  0  0
 11 41  1  0  0  0  0
 11 42  1  0  0  0  0
 12 37  1  0  0  0  0
 12 38  1  0  0  0  0
 12 39  1  0  0  0  0
 13 34  1  0  0  0  0
 13 35  1  0  0  0  0
 13 36  1  0  0  0  0
 14 31  1  0  0  0  0
 14 32  1  0  0  0  0
 14 33  1  0  0  0  0
M  CHG  2   1  -1   2   1
M  END
> <PUBCHEM_COMPOUND_CID>
12429

> <PUBCHEM_COMPOUND_CANONICALIZED>
1

> <PUBCHEM_CACTVS_COMPLEXITY>
80.2

> <PUBCHEM_CACTVS_HBOND_ACCEPTOR>
1

> <PUBCHEM_CACTVS_HBOND_DONOR>
0

> <PUBCHEM_CACTVS_ROTATABLE_BOND>
8

> <PUBCHEM_CACTVS_SUBSKEYS>
AAADceByAAAAAgAAAAAAAAAAAAAAAAAAAAAAAAAAAAAAAAAAAAAAHAAAAAAACADBAAQCAAMAAAAAAAAAAAAAAAAAAAAAAAAIAAAAAAAAAAAEAAAAAACAAAAAAAAAAAAAAAAAAAAAAAAAAAAAAAAAAAAAAA==

> <PUBCHEM_IUPAC_OPENEYE_NAME>
tetrapropylammonium iodide

> <PUBCHEM_IUPAC_CAS_NAME>
tetrapropylammonium iodide

> <PUBCHEM_IUPAC_NAME>
tetrapropylazanium iodide

> <PUBCHEM_IUPAC_SYSTEMATIC_NAME>
tetrapropylazanium iodide

> <PUBCHEM_IUPAC_TRADITIONAL_NAME>
tetrapropylammonium iodide

> <PUBCHEM_IUPAC_INCHI>
InChI=1S/C12H28N.HI/c1-5-9-13(10-6-2,11-7-3)12-8-4;/h5-12H2,1-4H3;1H/q+1;/p-1

> <PUBCHEM_IUPAC_INCHIKEY>
GKXDJYKZFZVASJ-UHFFFAOYSA-M

> <PUBCHEM_EXACT_MASS>
313.126648

> <PUBCHEM_MOLECULAR_FORMULA>
C12H28IN

> <PUBCHEM_MOLECULAR_WEIGHT>
313.26189

> <PUBCHEM_OPENEYE_CAN_SMILES>
CCC[N+](CCC)(CCC)CCC.[I-]

> <PUBCHEM_OPENEYE_ISO_SMILES>
CCC[N+](CCC)(CCC)CCC.[I-]

> <PUBCHEM_CACTVS_TPSA>
0

> <PUBCHEM_MONOISOTOPIC_WEIGHT>
313.126648

> <PUBCHEM_TOTAL_CHARGE>
0

> <PUBCHEM_HEAVY_ATOM_COUNT>
14

> <PUBCHEM_ATOM_DEF_STEREO_COUNT>
0

> <PUBCHEM_ATOM_UDEF_STEREO_COUNT>
0

> <PUBCHEM_BOND_DEF_STEREO_COUNT>
0

> <PUBCHEM_BOND_UDEF_STEREO_COUNT>
0

> <PUBCHEM_ISOTOPIC_ATOM_COUNT>
0

> <PUBCHEM_COMPONENT_COUNT>
2

> <PUBCHEM_CACTVS_TAUTO_COUNT>
1

> <PUBCHEM_COORDINATE_TYPE>
1
5
255

$$$$

