43594
  -OEChem-07051212522D

 53 56  0     1  0  0  0  0  0999 V2000
    8.6166   -1.0254    0.0000 S   0  0  0  0  0  0  0  0  0  0  0  0
    6.0185    0.4746    0.0000 S   0  0  0  0  0  0  0  0  0  0  0  0
    3.0800   -0.7193    0.0000 S   0  0  0  0  0  0  0  0  0  0  0  0
   11.1965    1.1873    0.0000 O   0  0  0  0  0  0  0  0  0  0  0  0
    7.7506    2.4746    0.0000 O   0  0  0  0  0  0  0  0  0  0  0  0
   12.4238   -0.0159    0.0000 O   0  0  0  0  0  0  0  0  0  0  0  0
    9.4826    2.4746    0.0000 O   0  0  0  0  0  0  0  0  0  0  0  0
   12.6078   -2.6553    0.0000 O   0  0  0  0  0  0  0  0  0  0  0  0
    2.1289   -1.0284    0.0000 O   0  0  0  0  0  0  0  0  0  0  0  0
    3.3890   -1.6704    0.0000 O   0  0  0  0  0  0  0  0  0  0  0  0
    2.7709    0.2317    0.0000 O   0  0  0  0  0  0  0  0  0  0  0  0
    9.4826    0.4746    0.0000 N   0  0  0  0  0  0  0  0  0  0  0  0
   11.1965   -1.2381    0.0000 N   0  0  0  0  0  0  0  0  0  0  0  0
    4.2389    0.5678    0.0000 N   0  0  0  0  0  0  0  0  0  0  0  0
    5.0480    1.9691    0.0000 N   0  0  0  0  0  0  0  0  0  0  0  0
    3.5698    1.3110    0.0000 N   0  0  0  0  0  0  0  0  0  0  0  0
    4.0698    2.1770    0.0000 N   0  0  0  0  0  0  0  0  0  0  0  0
    9.4826   -0.5254    0.0000 C   0  0  1  0  0  0  0  0  0  0  0  0
   10.4909   -0.5296    0.0000 C   0  0  1  0  0  0  0  0  0  0  0  0
   10.4909    0.4787    0.0000 C   0  0  0  0  0  0  0  0  0  0  0  0
    8.6166    0.9746    0.0000 C   0  0  0  0  0  0  0  0  0  0  0  0
    7.7506    0.4746    0.0000 C   0  0  0  0  0  0  0  0  0  0  0  0
    7.7506   -0.5254    0.0000 C   0  0  0  0  0  0  0  0  0  0  0  0
    6.8845    0.9746    0.0000 C   0  0  0  0  0  0  0  0  0  0  0  0
   12.1630   -0.9813    0.0000 C   0  0  0  0  0  0  0  0  0  0  0  0
    8.6166    1.9746    0.0000 C   0  0  0  0  0  0  0  0  0  0  0  0
   12.8686   -1.6899    0.0000 C   0  0  1  0  0  0  0  0  0  0  0  0
   13.8351   -1.4330    0.0000 C   0  0  0  0  0  0  0  0  0  0  0  0
    5.1525    0.9746    0.0000 C   0  0  0  0  0  0  0  0  0  0  0  0
   14.5408   -2.1416    0.0000 C   0  0  0  0  0  0  0  0  0  0  0  0
   14.0959   -0.4676    0.0000 C   0  0  0  0  0  0  0  0  0  0  0  0
    4.0310   -0.4103    0.0000 C   0  0  0  0  0  0  0  0  0  0  0  0
   15.5072   -1.8848    0.0000 C   0  0  0  0  0  0  0  0  0  0  0  0
   15.0624   -0.2108    0.0000 C   0  0  0  0  0  0  0  0  0  0  0  0
   15.7680   -0.9194    0.0000 C   0  0  0  0  0  0  0  0  0  0  0  0
    9.7009   -1.3469    0.0000 H   0  0  0  0  0  0  0  0  0  0  0  0
   10.2519   -1.1016    0.0000 H   0  0  0  0  0  0  0  0  0  0  0  0
    7.1400   -0.4178    0.0000 H   0  0  0  0  0  0  0  0  0  0  0  0
    7.5385   -1.1080    0.0000 H   0  0  0  0  0  0  0  0  0  0  0  0
   11.0348   -1.8367    0.0000 H   0  0  0  0  0  0  0  0  0  0  0  0
    7.2830    1.4495    0.0000 H   0  0  0  0  0  0  0  0  0  0  0  0
    6.4860    1.4495    0.0000 H   0  0  0  0  0  0  0  0  0  0  0  0
   13.3061   -2.1292    0.0000 H   0  0  0  0  0  0  0  0  0  0  0  0
    7.7506    3.0946    0.0000 H   0  0  0  0  0  0  0  0  0  0  0  0
   13.0453   -3.0946    0.0000 H   0  0  0  0  0  0  0  0  0  0  0  0
   14.3791   -2.7401    0.0000 H   0  0  0  0  0  0  0  0  0  0  0  0
   13.6584   -0.0283    0.0000 H   0  0  0  0  0  0  0  0  0  0  0  0
    4.1173   -1.0243    0.0000 H   0  0  0  0  0  0  0  0  0  0  0  0
    4.6506   -0.4320    0.0000 H   0  0  0  0  0  0  0  0  0  0  0  0
   15.9447   -2.3241    0.0000 H   0  0  0  0  0  0  0  0  0  0  0  0
   15.2241    0.3877    0.0000 H   0  0  0  0  0  0  0  0  0  0  0  0
   16.3672   -0.7601    0.0000 H   0  0  0  0  0  0  0  0  0  0  0  0
    2.0000   -1.6348    0.0000 H   0  0  0  0  0  0  0  0  0  0  0  0
  1 18  1  0  0  0  0
  1 23  1  0  0  0  0
  2 24  1  0  0  0  0
  2 29  1  0  0  0  0
  3  9  1  0  0  0  0
  3 10  2  0  0  0  0
  3 11  2  0  0  0  0
  3 32  1  0  0  0  0
  4 20  2  0  0  0  0
  5 26  1  0  0  0  0
  5 44  1  0  0  0  0
  6 25  2  0  0  0  0
  7 26  2  0  0  0  0
 27  8  1  1  0  0  0
  8 45  1  0  0  0  0
  9 53  1  0  0  0  0
 12 18  1  0  0  0  0
 12 20  1  0  0  0  0
 12 21  1  0  0  0  0
 19 13  1  1  0  0  0
 13 25  1  0  0  0  0
 13 40  1  0  0  0  0
 14 16  1  0  0  0  0
 14 29  1  0  0  0  0
 14 32  1  0  0  0  0
 15 17  1  0  0  0  0
 15 29  2  0  0  0  0
 16 17  2  0  0  0  0
 18 19  1  0  0  0  0
 18 36  1  6  0  0  0
 19 20  1  0  0  0  0
 19 37  1  0  0  0  0
 21 22  2  0  0  0  0
 21 26  1  0  0  0  0
 22 23  1  0  0  0  0
 22 24  1  0  0  0  0
 23 38  1  0  0  0  0
 23 39  1  0  0  0  0
 24 41  1  0  0  0  0
 24 42  1  0  0  0  0
 25 27  1  0  0  0  0
 27 28  1  0  0  0  0
 27 43  1  0  0  0  0
 28 30  2  0  0  0  0
 28 31  1  0  0  0  0
 30 33  1  0  0  0  0
 30 46  1  0  0  0  0
 31 34  2  0  0  0  0
 31 47  1  0  0  0  0
 32 48  1  0  0  0  0
 32 49  1  0  0  0  0
 33 35  2  0  0  0  0
 33 50  1  0  0  0  0
 34 35  1  0  0  0  0
 34 51  1  0  0  0  0
 35 52  1  0  0  0  0
M  END
> <PUBCHEM_COMPOUND_CID>
43594

> <PUBCHEM_COMPOUND_CANONICALIZED>
1

> <PUBCHEM_CACTVS_COMPLEXITY>
999

> <PUBCHEM_CACTVS_HBOND_ACCEPTOR>
13

> <PUBCHEM_CACTVS_HBOND_DONOR>
4

> <PUBCHEM_CACTVS_ROTATABLE_BOND>
9

> <PUBCHEM_CACTVS_SUBSKEYS>
AAADceB7vABgAAAAAAAAAAAAAABYAWAAAAAwQAAAAAAQAAABwAAAHgQYCAAADDzl2AaxGIfIAoqqAiXSfHIKEANggJANyIHICMiKdjqglTGUcAAk1gG4mQeYyKCOAAAAAAAAAAAAAAAAAAAAAAAAAAAAAA==

> <PUBCHEM_IUPAC_OPENEYE_NAME>
(6R,7R)-7-[[(2R)-2-hydroxy-2-phenyl-acetyl]amino]-8-oxo-3-[[1-(sulfomethyl)tetrazol-5-yl]sulfanylmethyl]-5-thia-1-azabicyclo[4.2.0]oct-2-ene-2-carboxylic acid

> <PUBCHEM_IUPAC_CAS_NAME>
(6R,7R)-7-[[(2R)-2-hydroxy-1-oxo-2-phenylethyl]amino]-8-oxo-3-[[[1-(sulfomethyl)-5-tetrazolyl]thio]methyl]-5-thia-1-azabicyclo[4.2.0]oct-2-ene-2-carboxylic acid

> <PUBCHEM_IUPAC_NAME>
(6R,7R)-7-[[(2R)-2-hydroxy-2-phenylacetyl]amino]-8-oxo-3-[[1-(sulfomethyl)tetrazol-5-yl]sulfanylmethyl]-5-thia-1-azabicyclo[4.2.0]oct-2-ene-2-carboxylic acid

> <PUBCHEM_IUPAC_SYSTEMATIC_NAME>
(6R,7R)-8-oxidanylidene-7-[[(2R)-2-oxidanyl-2-phenyl-ethanoyl]amino]-3-[[1-(sulfomethyl)-1,2,3,4-tetrazol-5-yl]sulfanylmethyl]-5-thia-1-azabicyclo[4.2.0]oct-2-ene-2-carboxylic acid

> <PUBCHEM_IUPAC_TRADITIONAL_NAME>
(6R,7R)-7-[[(2R)-2-hydroxy-2-phenyl-acetyl]amino]-8-keto-3-[[[1-(sulfomethyl)tetrazol-5-yl]thio]methyl]-5-thia-1-azabicyclo[4.2.0]oct-2-ene-2-carboxylic acid

> <PUBCHEM_IUPAC_INCHI>
InChI=1S/C18H18N6O8S3/c25-13(9-4-2-1-3-5-9)14(26)19-11-15(27)24-12(17(28)29)10(6-33-16(11)24)7-34-18-20-21-22-23(18)8-35(30,31)32/h1-5,11,13,16,25H,6-8H2,(H,19,26)(H,28,29)(H,30,31,32)/t11-,13-,16-/m1/s1

> <PUBCHEM_IUPAC_INCHIKEY>
DYAIAHUQIPBDIP-AXAPSJFSSA-N

> <PUBCHEM_XLOGP3>
-1.9

> <PUBCHEM_EXACT_MASS>
542.034825

> <PUBCHEM_MOLECULAR_FORMULA>
C18H18N6O8S3

> <PUBCHEM_MOLECULAR_WEIGHT>
542.56592

> <PUBCHEM_OPENEYE_CAN_SMILES>
C1C(=C(N2C(S1)C(C2=O)NC(=O)C(C3=CC=CC=C3)O)C(=O)O)CSC4=NN=NN4CS(=O)(=O)O

> <PUBCHEM_OPENEYE_ISO_SMILES>
C1C(=C(N2[C@H](S1)[C@@H](C2=O)NC(=O)[C@@H](C3=CC=CC=C3)O)C(=O)O)CSC4=NN=NN4CS(=O)(=O)O

> <PUBCHEM_CACTVS_TPSA>
264

> <PUBCHEM_MONOISOTOPIC_WEIGHT>
542.034825

> <PUBCHEM_TOTAL_CHARGE>
0

> <PUBCHEM_HEAVY_ATOM_COUNT>
35

> <PUBCHEM_ATOM_DEF_STEREO_COUNT>
3

> <PUBCHEM_ATOM_UDEF_STEREO_COUNT>
0

> <PUBCHEM_BOND_DEF_STEREO_COUNT>
0

> <PUBCHEM_BOND_UDEF_STEREO_COUNT>
0

> <PUBCHEM_ISOTOPIC_ATOM_COUNT>
0

> <PUBCHEM_COMPONENT_COUNT>
1

> <PUBCHEM_CACTVS_TAUTO_COUNT>
4

> <PUBCHEM_COORDINATE_TYPE>
1
5
255

> <PUBCHEM_BONDANNOTATIONS>
19  13  5
14  16  8
14  29  8
15  17  8
15  29  8
16  17  8
18  36  6
28  30  8
28  31  8
30  33  8
31  34  8
33  35  8
34  35  8
27  8  5

$$$$

