   Chemical and Physical Properties References

   [1]USDA ARS - USDA chemical properties
   from [2]ChemIDplus

   Color/Form

     * White granular crystals
     * Colorless crystals
     * Colorless to white crystalline solid [Note: Commercial formulations
       may be combined with combustible liquids.]

   from [3]HSDB

   Odor
        Mild mercaptan odor
   from [4]HSDB

   Boiling Point
        320 deg F (decomp)
   from [5]HSDB

   Melting Point
        41-42 deg C
   from [6]HSDB

   Corrosivity
        Corrosive to copper and brass
   from [7]HSDB

   Density/Specific Gravity
        1.398 at 43.5 deg C (liquid)
   from [8]HSDB

   Octanol/Water Partition Coefficient
        log Kow = 4.96
   from [9]HSDB

   Solubilities

     * Solubility at 25 deg C: isooctane 79% wt/wt; methanol 43% wt/wt
     * Solubility (g/100 g): acetone 650, benzene 790, carbon disulfide
       590, carbon tetrachloride 310, chloroform 630, diethyl ether 510,
       ethanol 63, ethyl acetate >200, isooctane 79, kerosene 60, methanol
       45, methylene chloride 400, propylene glycol 4, toluene 150,
       1,1,1-trichloroethane 400, triethylene glycol 5, xylene 400.
       Readily soluble in other organic solvents.
     * In water, 1.4 mg/L at 25 deg C
     * In water, 1.12 mg/L at 24 deg C

   from [10]HSDB

   Spectral Properties

     * Intense mass spectral peaks: 97 m/z (100%), 197 m/z (97%), 199 m/z
       (94%), 314 m/z (64%)
     * Intense mass spectral peaks: 286 m/z, 349 m/z
     * UV max: 208, 230, and 290 nm

   from [11]HSDB

   Vapor Pressure
        2.02X10-5 mm Hg at 25 deg C
   from [12]HSDB

   Other Chemical/Physical Properties

     * Heat of sublimation 26,800 cal/mol /From table/
     * Amber solid cake with amber oil /Technical grade/
     * Henry's Law constant = 2.93X10-6 atm cu-m/mol at 20 deg C
     * Hydroxyl radical reaction rate constant = 9.2X10-11 cu cm/molec-sec
       at 25 deg C (est)

   from [13]HSDB

   Computed Properties
   Molecular Weight                  350.586302 [g/mol]
   Molecular Formula                 C[9]H[11]Cl[3]NO[3]PS
   XLogP3                            5.3
   H-Bond Donor                      0
   H-Bond Acceptor                   5
   Rotatable Bond Count              6
   Exact Mass                        348.926284
   MonoIsotopic Mass                 348.926284
   Topological Polar Surface Area    72.7
   Heavy Atom Count                  18
   Formal Charge                     0
   Complexity                        303
   Isotope Atom Count                0
   Defined Atom Stereocenter Count   0
   Undefined Atom Stereocenter Count 0
   Defined Bond Stereocenter Count   0
   Undefined Bond Stereocenter Count 0
   Covalently-Bonded Unit Count      1
   Feature 3D Ring Count             1
   Effective Rotor Count             6
   Conformer Sampling RMSD           0.8
   CID Conformer Count               [14]30

References

   1. http://www.ars.usda.gov/SP2UserFiles/ad_hoc/12755100DatabaseFiles/PesticidePropertiesDatabase/IndividualPesticideFiles/CHLORPYRIFOS.TXT
   2. http://chem.sis.nlm.nih.gov/chemidplus/
   3. http://toxnet.nlm.nih.gov/cgi-bin/sis/search/r?dbs+hsdb:@term+@rn+@rel+2921-88-2
   4. http://toxnet.nlm.nih.gov/cgi-bin/sis/search/r?dbs+hsdb:@term+@rn+@rel+2921-88-2
   5. http://toxnet.nlm.nih.gov/cgi-bin/sis/search/r?dbs+hsdb:@term+@rn+@rel+2921-88-2
   6. http://toxnet.nlm.nih.gov/cgi-bin/sis/search/r?dbs+hsdb:@term+@rn+@rel+2921-88-2
   7. http://toxnet.nlm.nih.gov/cgi-bin/sis/search/r?dbs+hsdb:@term+@rn+@rel+2921-88-2
   8. http://toxnet.nlm.nih.gov/cgi-bin/sis/search/r?dbs+hsdb:@term+@rn+@rel+2921-88-2
   9. http://toxnet.nlm.nih.gov/cgi-bin/sis/search/r?dbs+hsdb:@term+@rn+@rel+2921-88-2
  10. http://toxnet.nlm.nih.gov/cgi-bin/sis/search/r?dbs+hsdb:@term+@rn+@rel+2921-88-2
  11. http://toxnet.nlm.nih.gov/cgi-bin/sis/search/r?dbs+hsdb:@term+@rn+@rel+2921-88-2
  12. http://toxnet.nlm.nih.gov/cgi-bin/sis/search/r?dbs+hsdb:@term+@rn+@rel+2921-88-2
  13. http://toxnet.nlm.nih.gov/cgi-bin/sis/search/r?dbs+hsdb:@term+@rn+@rel+2921-88-2
  14. http://pubchem.ncbi.nlm.nih.gov/vw3d/vw3d.cgi?cid=2730
