9562059
  -OEChem-07051213112D

 80 79  0     0  0  0  0  0  0999 V2000
    1.4030    0.0000    0.0000 Cl  0  0  0  0  0  0  0  0  0  0  0  0
   16.9914    4.0000    0.0000 Cl  0  0  0  0  0  0  0  0  0  0  0  0
    9.3617   10.8100    0.0000 O   0  0  0  0  0  0  0  0  0  0  0  0
    9.3617   14.8469    0.0000 O   0  0  0  0  0  0  0  0  0  0  0  0
    8.4957    9.3100    0.0000 O   0  0  0  0  0  0  0  0  0  0  0  0
    8.4957   13.3469    0.0000 O   0  0  0  0  0  0  0  0  0  0  0  0
    4.0010    5.5000    0.0000 N   0  0  0  0  0  0  0  0  0  0  0  0
   10.0632    6.0000    0.0000 N   0  0  0  0  0  0  0  0  0  0  0  0
    2.2690    5.5000    0.0000 N   0  0  0  0  0  0  0  0  0  0  0  0
   11.7953    6.0000    0.0000 N   0  0  0  0  0  0  0  0  0  0  0  0
   10.9292    4.5000    0.0000 N   0  0  0  0  0  0  0  0  0  0  0  0
    3.1350    7.0000    0.0000 N   0  0  0  0  0  0  0  0  0  0  0  0
    1.4030    4.0000    0.0000 N   0  0  0  0  0  0  0  0  0  0  0  0
   13.5273    6.0000    0.0000 N   0  0  0  0  0  0  0  0  0  0  0  0
    3.1350    4.0000    0.0000 N   0  0  0  0  0  0  0  0  0  0  0  0
   12.6613    4.5000    0.0000 N   0  0  0  0  0  0  0  0  0  0  0  0
    7.4651    5.5000    0.0000 C   0  0  0  0  0  0  0  0  0  0  0  0
    6.5991    6.0000    0.0000 C   0  0  0  0  0  0  0  0  0  0  0  0
    5.7331    5.5000    0.0000 C   0  0  0  0  0  0  0  0  0  0  0  0
    8.3312    6.0000    0.0000 C   0  0  0  0  0  0  0  0  0  0  0  0
    4.8671    6.0000    0.0000 C   0  0  0  0  0  0  0  0  0  0  0  0
    9.1972    5.5000    0.0000 C   0  0  0  0  0  0  0  0  0  0  0  0
    3.1350    6.0000    0.0000 C   0  0  0  0  0  0  0  0  0  0  0  0
   10.9292    5.5000    0.0000 C   0  0  0  0  0  0  0  0  0  0  0  0
    2.2690    4.5000    0.0000 C   0  0  0  0  0  0  0  0  0  0  0  0
   12.6613    5.5000    0.0000 C   0  0  0  0  0  0  0  0  0  0  0  0
    1.4030    3.0000    0.0000 C   0  0  0  0  0  0  0  0  0  0  0  0
   14.3933    5.5000    0.0000 C   0  0  0  0  0  0  0  0  0  0  0  0
    0.5369    2.5000    0.0000 C   0  0  0  0  0  0  0  0  0  0  0  0
   14.3933    4.5000    0.0000 C   0  0  0  0  0  0  0  0  0  0  0  0
    2.2690    2.5000    0.0000 C   0  0  0  0  0  0  0  0  0  0  0  0
   15.2594    6.0000    0.0000 C   0  0  0  0  0  0  0  0  0  0  0  0
    0.5369    1.5000    0.0000 C   0  0  0  0  0  0  0  0  0  0  0  0
   15.2594    4.0000    0.0000 C   0  0  0  0  0  0  0  0  0  0  0  0
    2.2690    1.5000    0.0000 C   0  0  0  0  0  0  0  0  0  0  0  0
   16.1254    5.5000    0.0000 C   0  0  0  0  0  0  0  0  0  0  0  0
   16.1254    4.5000    0.0000 C   0  0  0  0  0  0  0  0  0  0  0  0
    1.4030    1.0000    0.0000 C   0  0  0  0  0  0  0  0  0  0  0  0
    7.6297   10.8100    0.0000 C   0  0  0  0  0  0  0  0  0  0  0  0
    7.6297   14.8469    0.0000 C   0  0  0  0  0  0  0  0  0  0  0  0
    8.4957   10.3100    0.0000 C   0  0  0  0  0  0  0  0  0  0  0  0
    8.4957   14.3469    0.0000 C   0  0  0  0  0  0  0  0  0  0  0  0
    6.9976    6.4750    0.0000 H   0  0  0  0  0  0  0  0  0  0  0  0
    6.2006    6.4750    0.0000 H   0  0  0  0  0  0  0  0  0  0  0  0
    7.0666    5.0250    0.0000 H   0  0  0  0  0  0  0  0  0  0  0  0
    7.8637    5.0250    0.0000 H   0  0  0  0  0  0  0  0  0  0  0  0
    8.7297    6.4750    0.0000 H   0  0  0  0  0  0  0  0  0  0  0  0
    7.9326    6.4750    0.0000 H   0  0  0  0  0  0  0  0  0  0  0  0
    5.3346    5.0250    0.0000 H   0  0  0  0  0  0  0  0  0  0  0  0
    6.1316    5.0250    0.0000 H   0  0  0  0  0  0  0  0  0  0  0  0
    5.2656    6.4750    0.0000 H   0  0  0  0  0  0  0  0  0  0  0  0
    4.4685    6.4750    0.0000 H   0  0  0  0  0  0  0  0  0  0  0  0
    8.7987    5.0250    0.0000 H   0  0  0  0  0  0  0  0  0  0  0  0
    9.5957    5.0250    0.0000 H   0  0  0  0  0  0  0  0  0  0  0  0
   10.3923    4.1900    0.0000 H   0  0  0  0  0  0  0  0  0  0  0  0
   11.4662    4.1900    0.0000 H   0  0  0  0  0  0  0  0  0  0  0  0
    3.6720    7.3100    0.0000 H   0  0  0  0  0  0  0  0  0  0  0  0
    2.5981    7.3100    0.0000 H   0  0  0  0  0  0  0  0  0  0  0  0
    0.8660    4.3100    0.0000 H   0  0  0  0  0  0  0  0  0  0  0  0
   13.5273    6.6200    0.0000 H   0  0  0  0  0  0  0  0  0  0  0  0
    3.6720    4.3100    0.0000 H   0  0  0  0  0  0  0  0  0  0  0  0
    3.1350    3.3800    0.0000 H   0  0  0  0  0  0  0  0  0  0  0  0
   13.1982    4.1900    0.0000 H   0  0  0  0  0  0  0  0  0  0  0  0
   12.1244    4.1900    0.0000 H   0  0  0  0  0  0  0  0  0  0  0  0
    0.0000    2.8100    0.0000 H   0  0  0  0  0  0  0  0  0  0  0  0
   13.8564    4.1900    0.0000 H   0  0  0  0  0  0  0  0  0  0  0  0
    2.8059    2.8100    0.0000 H   0  0  0  0  0  0  0  0  0  0  0  0
   15.2594    6.6200    0.0000 H   0  0  0  0  0  0  0  0  0  0  0  0
    0.0000    1.1900    0.0000 H   0  0  0  0  0  0  0  0  0  0  0  0
   15.2594    3.3800    0.0000 H   0  0  0  0  0  0  0  0  0  0  0  0
    2.8059    1.1900    0.0000 H   0  0  0  0  0  0  0  0  0  0  0  0
   16.6623    5.8100    0.0000 H   0  0  0  0  0  0  0  0  0  0  0  0
    7.9397   15.3839    0.0000 H   0  0  0  0  0  0  0  0  0  0  0  0
    7.0928   15.1569    0.0000 H   0  0  0  0  0  0  0  0  0  0  0  0
    7.3197   14.3100    0.0000 H   0  0  0  0  0  0  0  0  0  0  0  0
    7.9397   11.3469    0.0000 H   0  0  0  0  0  0  0  0  0  0  0  0
    7.0928   11.1200    0.0000 H   0  0  0  0  0  0  0  0  0  0  0  0
    7.3197   10.2731    0.0000 H   0  0  0  0  0  0  0  0  0  0  0  0
    9.8987   10.5000    0.0000 H   0  0  0  0  0  0  0  0  0  0  0  0
    9.8987   14.5369    0.0000 H   0  0  0  0  0  0  0  0  0  0  0  0
  1 38  1  0  0  0  0
  2 37  1  0  0  0  0
  3 41  1  0  0  0  0
  3 79  1  0  0  0  0
  4 42  1  0  0  0  0
  4 80  1  0  0  0  0
  5 41  2  0  0  0  0
  6 42  2  0  0  0  0
  7 21  1  0  0  0  0
  7 23  2  0  0  0  0
  8 22  1  0  0  0  0
  8 24  2  0  0  0  0
  9 23  1  0  0  0  0
  9 25  2  0  0  0  0
 10 24  1  0  0  0  0
 10 26  2  0  0  0  0
 11 24  1  0  0  0  0
 11 55  1  0  0  0  0
 11 56  1  0  0  0  0
 12 23  1  0  0  0  0
 12 57  1  0  0  0  0
 12 58  1  0  0  0  0
 13 25  1  0  0  0  0
 13 27  1  0  0  0  0
 13 59  1  0  0  0  0
 14 26  1  0  0  0  0
 14 28  1  0  0  0  0
 14 60  1  0  0  0  0
 15 25  1  0  0  0  0
 15 61  1  0  0  0  0
 15 62  1  0  0  0  0
 16 26  1  0  0  0  0
 16 63  1  0  0  0  0
 16 64  1  0  0  0  0
 17 18  1  0  0  0  0
 17 20  1  0  0  0  0
 17 45  1  0  0  0  0
 17 46  1  0  0  0  0
 18 19  1  0  0  0  0
 18 43  1  0  0  0  0
 18 44  1  0  0  0  0
 19 21  1  0  0  0  0
 19 49  1  0  0  0  0
 19 50  1  0  0  0  0
 20 22  1  0  0  0  0
 20 47  1  0  0  0  0
 20 48  1  0  0  0  0
 21 51  1  0  0  0  0
 21 52  1  0  0  0  0
 22 53  1  0  0  0  0
 22 54  1  0  0  0  0
 27 29  2  0  0  0  0
 27 31  1  0  0  0  0
 28 30  2  0  0  0  0
 28 32  1  0  0  0  0
 29 33  1  0  0  0  0
 29 65  1  0  0  0  0
 30 34  1  0  0  0  0
 30 66  1  0  0  0  0
 31 35  2  0  0  0  0
 31 67  1  0  0  0  0
 32 36  2  0  0  0  0
 32 68  1  0  0  0  0
 33 38  2  0  0  0  0
 33 69  1  0  0  0  0
 34 37  2  0  0  0  0
 34 70  1  0  0  0  0
 35 38  1  0  0  0  0
 35 71  1  0  0  0  0
 36 37  1  0  0  0  0
 36 72  1  0  0  0  0
 39 41  1  0  0  0  0
 39 76  1  0  0  0  0
 39 77  1  0  0  0  0
 39 78  1  0  0  0  0
 40 42  1  0  0  0  0
 40 73  1  0  0  0  0
 40 74  1  0  0  0  0
 40 75  1  0  0  0  0
M  END
> <PUBCHEM_COMPOUND_CID>
9562059

> <PUBCHEM_COMPOUND_CANONICALIZED>
1

> <PUBCHEM_CACTVS_COMPLEXITY>
680

> <PUBCHEM_CACTVS_HBOND_ACCEPTOR>
6

> <PUBCHEM_CACTVS_HBOND_DONOR>
8

> <PUBCHEM_CACTVS_ROTATABLE_BOND>
13

> <PUBCHEM_CACTVS_SUBSKEYS>
AAADcfB7+AAGAAAAAAAAAAAAAAAAAAAAAAAwYAAAAAAAAAABQAAAHgIQCAAACArBkCQzyILAAgCoACTSbACCAAEhBwAJiAAAZoiIICLBm5GEIAhgkAJIyCcQAAAAAABAAAAAAAAAAIAAAAAAAAAAAAAAAA==

> <PUBCHEM_IUPAC_OPENEYE_NAME>
acetic acid; (1E)-2-[6-[[amino-[(E)-[amino-(4-chloroanilino)methylene]amino]methylene]amino]hexyl]-1-[amino-(4-chloroanilino)methylene]guanidine

> <PUBCHEM_IUPAC_CAS_NAME>
acetic acid; 2-[amino-[6-[[amino-[(E)-[amino-(4-chloroanilino)methylidene]amino]methylidene]amino]hexylimino]methyl]-1-(4-chlorophenyl)guanidine

> <PUBCHEM_IUPAC_NAME>
acetic acid; (1E)-2-[6-[[amino-[(E)-[amino-(4-chloroanilino)methylidene]amino]methylidene]amino]hexyl]-1-[amino-(4-chloroanilino)methylidene]guanidine

> <PUBCHEM_IUPAC_SYSTEMATIC_NAME>
(1E)-2-[6-[[azanyl-[(E)-[azanyl-[(4-chlorophenyl)amino]methylidene]amino]methylidene]amino]hexyl]-1-[azanyl-[(4-chlorophenyl)amino]methylidene]guanidine; ethanoic acid

> <PUBCHEM_IUPAC_TRADITIONAL_NAME>
acetic acid; (1E)-2-[6-[[amino-[(E)-[amino-(4-chloroanilino)methylene]amino]methylene]amino]hexyl]-1-[amino-(4-chloroanilino)methylene]guanidine

> <PUBCHEM_IUPAC_INCHI>
InChI=1S/C22H30Cl2N10.2C2H4O2/c23-15-5-9-17(10-6-15)31-21(27)33-19(25)29-13-3-1-2-4-14-30-20(26)34-22(28)32-18-11-7-16(24)8-12-18;2*1-2(3)4/h5-12H,1-4,13-14H2,(H5,25,27,29,31,33)(H5,26,28,30,32,34);2*1H3,(H,3,4)

> <PUBCHEM_IUPAC_INCHIKEY>
WDRFFJWBUDTUCA-UHFFFAOYSA-N

> <PUBCHEM_EXACT_MASS>
624.245455

> <PUBCHEM_MOLECULAR_FORMULA>
C26H38Cl2N10O4

> <PUBCHEM_MOLECULAR_WEIGHT>
625.55052

> <PUBCHEM_OPENEYE_CAN_SMILES>
CC(=O)O.CC(=O)O.C1=CC(=CC=C1NC(=NC(=NCCCCCCN=C(N)N=C(N)NC2=CC=C(C=C2)Cl)N)N)Cl

> <PUBCHEM_OPENEYE_ISO_SMILES>
CC(=O)O.CC(=O)O.C1=CC(=CC=C1N/C(=N/C(=NCCCCCCN=C(/N=C(/NC2=CC=C(C=C2)Cl)\N)N)N)/N)Cl

> <PUBCHEM_CACTVS_TPSA>
252

> <PUBCHEM_MONOISOTOPIC_WEIGHT>
624.245455

> <PUBCHEM_TOTAL_CHARGE>
0

> <PUBCHEM_HEAVY_ATOM_COUNT>
42

> <PUBCHEM_ATOM_DEF_STEREO_COUNT>
0

> <PUBCHEM_ATOM_UDEF_STEREO_COUNT>
0

> <PUBCHEM_BOND_DEF_STEREO_COUNT>
2

> <PUBCHEM_BOND_UDEF_STEREO_COUNT>
0

> <PUBCHEM_ISOTOPIC_ATOM_COUNT>
0

> <PUBCHEM_COMPONENT_COUNT>
3

> <PUBCHEM_CACTVS_TAUTO_COUNT>
36

> <PUBCHEM_COORDINATE_TYPE>
1
5
255

> <PUBCHEM_BONDANNOTATIONS>
27  29  8
27  31  8
28  30  8
28  32  8
29  33  8
30  34  8
31  35  8
32  36  8
33  38  8
34  37  8
35  38  8
36  37  8

$$$$

