3042
  -OEChem-07051212522D

 57 58  0     0  0  0  0  0  0999 V2000
    5.5000   -0.2990    0.0000 O   0  0  0  0  0  0  0  0  0  0  0  0
    6.6736    0.6858    0.0000 O   0  0  0  0  0  0  0  0  0  0  0  0
    3.5000    1.4330    0.0000 N   0  0  0  0  0  0  0  0  0  0  0  0
    7.0000   -1.1651    0.0000 C   0  0  0  0  0  0  0  0  0  0  0  0
    7.7660   -0.5223    0.0000 C   0  0  0  0  0  0  0  0  0  0  0  0
    6.1340   -1.6651    0.0000 C   0  0  0  0  0  0  0  0  0  0  0  0
    7.8660   -1.6651    0.0000 C   0  0  0  0  0  0  0  0  0  0  0  0
    7.5924    0.4625    0.0000 C   0  0  0  0  0  0  0  0  0  0  0  0
    8.7057   -0.8643    0.0000 C   0  0  0  0  0  0  0  0  0  0  0  0
    7.8660   -2.6651    0.0000 C   0  0  0  0  0  0  0  0  0  0  0  0
    6.1340   -2.6651    0.0000 C   0  0  0  0  0  0  0  0  0  0  0  0
    9.4718   -0.2215    0.0000 C   0  0  0  0  0  0  0  0  0  0  0  0
    8.3584    1.1053    0.0000 C   0  0  0  0  0  0  0  0  0  0  0  0
    7.0000   -3.1651    0.0000 C   0  0  0  0  0  0  0  0  0  0  0  0
    9.2981    0.7633    0.0000 C   0  0  0  0  0  0  0  0  0  0  0  0
    6.5000   -0.2990    0.0000 C   0  0  0  0  0  0  0  0  0  0  0  0
    5.0000    0.5670    0.0000 C   0  0  0  0  0  0  0  0  0  0  0  0
    4.0000    0.5670    0.0000 C   0  0  0  0  0  0  0  0  0  0  0  0
    2.5000    1.4330    0.0000 C   0  0  0  0  0  0  0  0  0  0  0  0
    4.0000    2.2990    0.0000 C   0  0  0  0  0  0  0  0  0  0  0  0
    2.0000    2.2990    0.0000 C   0  0  0  0  0  0  0  0  0  0  0  0
    3.5000    3.1651    0.0000 C   0  0  0  0  0  0  0  0  0  0  0  0
    7.8737   -1.1329    0.0000 H   0  0  0  0  0  0  0  0  0  0  0  0
    5.9219   -1.0824    0.0000 H   0  0  0  0  0  0  0  0  0  0  0  0
    5.5234   -1.7727    0.0000 H   0  0  0  0  0  0  0  0  0  0  0  0
    8.4766   -1.7727    0.0000 H   0  0  0  0  0  0  0  0  0  0  0  0
    8.0781   -1.0824    0.0000 H   0  0  0  0  0  0  0  0  0  0  0  0
    8.3957   -1.4012    0.0000 H   0  0  0  0  0  0  0  0  0  0  0  0
    9.1807   -1.2628    0.0000 H   0  0  0  0  0  0  0  0  0  0  0  0
    7.2824    0.9995    0.0000 H   0  0  0  0  0  0  0  0  0  0  0  0
    7.0098    0.2505    0.0000 H   0  0  0  0  0  0  0  0  0  0  0  0
    5.5234   -2.5574    0.0000 H   0  0  0  0  0  0  0  0  0  0  0  0
    5.9219   -3.2477    0.0000 H   0  0  0  0  0  0  0  0  0  0  0  0
    8.0781   -3.2477    0.0000 H   0  0  0  0  0  0  0  0  0  0  0  0
    8.4766   -2.5574    0.0000 H   0  0  0  0  0  0  0  0  0  0  0  0
    8.6684    1.6423    0.0000 H   0  0  0  0  0  0  0  0  0  0  0  0
    7.8835    1.5038    0.0000 H   0  0  0  0  0  0  0  0  0  0  0  0
    9.7818   -0.7584    0.0000 H   0  0  0  0  0  0  0  0  0  0  0  0
   10.0544   -0.0095    0.0000 H   0  0  0  0  0  0  0  0  0  0  0  0
    6.6015   -3.6400    0.0000 H   0  0  0  0  0  0  0  0  0  0  0  0
    7.3985   -3.6400    0.0000 H   0  0  0  0  0  0  0  0  0  0  0  0
    9.9181    0.7633    0.0000 H   0  0  0  0  0  0  0  0  0  0  0  0
    9.4058    1.3739    0.0000 H   0  0  0  0  0  0  0  0  0  0  0  0
    5.5826    0.7790    0.0000 H   0  0  0  0  0  0  0  0  0  0  0  0
    4.8923    1.1776    0.0000 H   0  0  0  0  0  0  0  0  0  0  0  0
    3.4174    0.3549    0.0000 H   0  0  0  0  0  0  0  0  0  0  0  0
    4.1077   -0.0436    0.0000 H   0  0  0  0  0  0  0  0  0  0  0  0
    1.9174    1.2210    0.0000 H   0  0  0  0  0  0  0  0  0  0  0  0
    2.6077    0.8224    0.0000 H   0  0  0  0  0  0  0  0  0  0  0  0
    4.4750    1.9005    0.0000 H   0  0  0  0  0  0  0  0  0  0  0  0
    4.4750    2.6976    0.0000 H   0  0  0  0  0  0  0  0  0  0  0  0
    2.5369    2.6090    0.0000 H   0  0  0  0  0  0  0  0  0  0  0  0
    4.0369    3.4751    0.0000 H   0  0  0  0  0  0  0  0  0  0  0  0
    3.1900    3.7020    0.0000 H   0  0  0  0  0  0  0  0  0  0  0  0
    2.9631    2.8551    0.0000 H   0  0  0  0  0  0  0  0  0  0  0  0
    1.6900    2.8360    0.0000 H   0  0  0  0  0  0  0  0  0  0  0  0
    1.4631    1.9890    0.0000 H   0  0  0  0  0  0  0  0  0  0  0  0
  1 16  1  0  0  0  0
  1 17  1  0  0  0  0
  2 16  2  0  0  0  0
  3 18  1  0  0  0  0
  3 19  1  0  0  0  0
  3 20  1  0  0  0  0
  4  5  1  0  0  0  0
  4  6  1  0  0  0  0
  4  7  1  0  0  0  0
  4 16  1  0  0  0  0
  5  8  1  0  0  0  0
  5  9  1  0  0  0  0
  5 23  1  0  0  0  0
  6 11  1  0  0  0  0
  6 24  1  0  0  0  0
  6 25  1  0  0  0  0
  7 10  1  0  0  0  0
  7 26  1  0  0  0  0
  7 27  1  0  0  0  0
  8 13  1  0  0  0  0
  8 30  1  0  0  0  0
  8 31  1  0  0  0  0
  9 12  1  0  0  0  0
  9 28  1  0  0  0  0
  9 29  1  0  0  0  0
 10 14  1  0  0  0  0
 10 34  1  0  0  0  0
 10 35  1  0  0  0  0
 11 14  1  0  0  0  0
 11 32  1  0  0  0  0
 11 33  1  0  0  0  0
 12 15  1  0  0  0  0
 12 38  1  0  0  0  0
 12 39  1  0  0  0  0
 13 15  1  0  0  0  0
 13 36  1  0  0  0  0
 13 37  1  0  0  0  0
 14 40  1  0  0  0  0
 14 41  1  0  0  0  0
 15 42  1  0  0  0  0
 15 43  1  0  0  0  0
 17 18  1  0  0  0  0
 17 44  1  0  0  0  0
 17 45  1  0  0  0  0
 18 46  1  0  0  0  0
 18 47  1  0  0  0  0
 19 21  1  0  0  0  0
 19 48  1  0  0  0  0
 19 49  1  0  0  0  0
 20 22  1  0  0  0  0
 20 50  1  0  0  0  0
 20 51  1  0  0  0  0
 21 52  1  0  0  0  0
 21 56  1  0  0  0  0
 21 57  1  0  0  0  0
 22 53  1  0  0  0  0
 22 54  1  0  0  0  0
 22 55  1  0  0  0  0
M  END
> <PUBCHEM_COMPOUND_CID>
3042

> <PUBCHEM_COMPOUND_CANONICALIZED>
1

> <PUBCHEM_CACTVS_COMPLEXITY>
326

> <PUBCHEM_CACTVS_HBOND_ACCEPTOR>
3

> <PUBCHEM_CACTVS_HBOND_DONOR>
0

> <PUBCHEM_CACTVS_ROTATABLE_BOND>
8

> <PUBCHEM_CACTVS_SUBSKEYS>
AAADcfB6MAAAAAAAAAAAAAAAAAAAAAAAAAAwYAAAAAAAAAAAAAAAHgAAAAAADwDhgAYCCAMABAAIAACQCAAAAAAAAAAAAAEIAAACABIAAAADAAAEAACQAAGIyOCPgAAAAAAAAAAAAAAAAAAAAAAAAAAAAA==

> <PUBCHEM_IUPAC_OPENEYE_NAME>
2-(diethylamino)ethyl 1-cyclohexylcyclohexanecarboxylate

> <PUBCHEM_IUPAC_CAS_NAME>
1-cyclohexyl-1-cyclohexanecarboxylic acid 2-(diethylamino)ethyl ester

> <PUBCHEM_IUPAC_NAME>
2-(diethylamino)ethyl 1-cyclohexylcyclohexane-1-carboxylate

> <PUBCHEM_IUPAC_SYSTEMATIC_NAME>
2-(diethylamino)ethyl 1-cyclohexylcyclohexane-1-carboxylate

> <PUBCHEM_IUPAC_TRADITIONAL_NAME>
1-cyclohexylcyclohexanecarboxylic acid 2-(diethylamino)ethyl ester

> <PUBCHEM_IUPAC_INCHI>
InChI=1S/C19H35NO2/c1-3-20(4-2)15-16-22-18(21)19(13-9-6-10-14-19)17-11-7-5-8-12-17/h17H,3-16H2,1-2H3

> <PUBCHEM_IUPAC_INCHIKEY>
CURUTKGFNZGFSE-UHFFFAOYSA-N

> <PUBCHEM_XLOGP3_AA>
5.5

> <PUBCHEM_EXACT_MASS>
309.266779

> <PUBCHEM_MOLECULAR_FORMULA>
C19H35NO2

> <PUBCHEM_MOLECULAR_WEIGHT>
309.4867

> <PUBCHEM_OPENEYE_CAN_SMILES>
CCN(CC)CCOC(=O)C1(CCCCC1)C2CCCCC2

> <PUBCHEM_OPENEYE_ISO_SMILES>
CCN(CC)CCOC(=O)C1(CCCCC1)C2CCCCC2

> <PUBCHEM_CACTVS_TPSA>
29.5

> <PUBCHEM_MONOISOTOPIC_WEIGHT>
309.266779

> <PUBCHEM_TOTAL_CHARGE>
0

> <PUBCHEM_HEAVY_ATOM_COUNT>
22

> <PUBCHEM_ATOM_DEF_STEREO_COUNT>
0

> <PUBCHEM_ATOM_UDEF_STEREO_COUNT>
0

> <PUBCHEM_BOND_DEF_STEREO_COUNT>
0

> <PUBCHEM_BOND_UDEF_STEREO_COUNT>
0

> <PUBCHEM_ISOTOPIC_ATOM_COUNT>
0

> <PUBCHEM_COMPONENT_COUNT>
1

> <PUBCHEM_CACTVS_TAUTO_COUNT>
1

> <PUBCHEM_COORDINATE_TYPE>
1
5
255

$$$$

