   Color/Form
        White to tan crystals
   from [1]HSDB

   Melting Point
        159-160 deg C
   from [2]HSDB

   Corrosivity
        Slightly corrosive to metals
   from [3]HSDB

   Density/Specific Gravity
        1.8 @ 20 deg C
   from [4]HSDB

   Octanol/Water Partition Coefficient
        log Kow = 3.88
   from [5]HSDB

   Solubilities

     * SOL IN HYDROCARBON & MOST ORG SOLVENTS
     * 5 g/100 ml toluene, 4 g/100 ml xylene, and 10 g/100 ml acetone,
       each at 30 deg C
     * In water, 8 mg/l @ 20 deg C

   from [6]HSDB

   Spectral Properties
        Intense mass spectral peaks: 239 m/z (100%), 241 m/z (66%), 178
   m/z (35%), 143 m/z (33%)
   from [7]HSDB

   Vapor Pressure
        6.2X10-9 mm Hg @ 20 deg C
   from [8]HSDB

   Other Chemical/Physical Properties
        Stable in neutral and slightly acidic media. Hydrolyzed on heating
   with alkalis.
   from [9]HSDB

   Computed Properties
   Molecular Weight                  275.5218 [g/mol]
   Molecular Formula                 C[9]H[5]Cl[3]N[4]
   XLogP3                            3
   H-Bond Donor                      1
   H-Bond Acceptor                   4
   Rotatable Bond Count              2
   Tautomer Count                    3
   Exact Mass                        273.957979
   MonoIsotopic Mass                 273.957979
   Topological Polar Surface Area    50.7
   Heavy Atom Count                  16
   Formal Charge                     0
   Complexity                        221
   Isotope Atom Count                0
   Defined Atom Stereocenter Count   0
   Undefined Atom Stereocenter Count 0
   Defined Bond Stereocenter Count   0
   Undefined Bond Stereocenter Count 0
   Covalently-Bonded Unit Count      1
   Feature 3D Donor Count            1
   Feature 3D Cation Count           1
   Feature 3D Ring Count             2
   Effective Rotor Count             2
   Conformer Sampling RMSD           0.6
   CID Conformer Count               [10]8

References

   1. http://toxnet.nlm.nih.gov/cgi-bin/sis/search/r?dbs+hsdb:@term+@rn+@rel+101-05-3
   2. http://toxnet.nlm.nih.gov/cgi-bin/sis/search/r?dbs+hsdb:@term+@rn+@rel+101-05-3
   3. http://toxnet.nlm.nih.gov/cgi-bin/sis/search/r?dbs+hsdb:@term+@rn+@rel+101-05-3
   4. http://toxnet.nlm.nih.gov/cgi-bin/sis/search/r?dbs+hsdb:@term+@rn+@rel+101-05-3
   5. http://toxnet.nlm.nih.gov/cgi-bin/sis/search/r?dbs+hsdb:@term+@rn+@rel+101-05-3
   6. http://toxnet.nlm.nih.gov/cgi-bin/sis/search/r?dbs+hsdb:@term+@rn+@rel+101-05-3
   7. http://toxnet.nlm.nih.gov/cgi-bin/sis/search/r?dbs+hsdb:@term+@rn+@rel+101-05-3
   8. http://toxnet.nlm.nih.gov/cgi-bin/sis/search/r?dbs+hsdb:@term+@rn+@rel+101-05-3
   9. http://toxnet.nlm.nih.gov/cgi-bin/sis/search/r?dbs+hsdb:@term+@rn+@rel+101-05-3
  10. http://pubchem.ncbi.nlm.nih.gov/vw3d/vw3d.cgi?cid=7541
