   Color/Form

     * COLORED NEEDLES
     * PALE YELLOW NEEDLES OR PLATES FROM ALCOHOL
     * Pale yellow crystals
     * Colorless crystals

   from [1]HSDB

   Boiling Point
        384 deg C
   from [2]HSDB

   Melting Point
        111 deg C
   from [3]HSDB

   Density/Specific Gravity
        1.252 AT 0 DEG C/4 DEG C
   from [4]HSDB

   Octanol/Water Partition Coefficient
        log Kow= 5.16
   from [5]HSDB

   Solubilities

     * Sol in ethyl alcohol, ethyl ether, benzene
     * Sol: in seawater at 22 deg C: 0.1 + or - 0.06 ppm, 0.120 mg/l at 24
       deg C (99% purity).
     * /Fluoranthene/ has a high molecular weight and its relative
       non-polarity makes this cmpd very insoluble in water.
     * Virtually insoluble (0.20-0.26 mg/l) in water
     * Sol in carbon disulfide, chloroform
     * Soluble in >10% Et2O
     * Readily soluble in diethyl ether, boiling ethanol, chloroform,
       carbon disulfide, and glacial acetic acid.

   from [6]HSDB

   Spectral Properties

     * MAX ABSORPTION (CYCLOHEXANE): 237 NM (LOG E= 4.75), 254 NM (LOG E=
       4.22), 263 NM (LOG E= 4.18), 277 NM (LOG E= 4.41), 288 NM (LOG E=
       4.73)
     * SADTLER REFERENCE NUMBER: 901 (IR, PRISM)
     * IR: 180 (Sadtler Research Laboratories IR Grating Collection)
     * UV: 281 (Sadtler Research Laboratories Spectral Collection)
     * NMR: 6679 (Sadtler Research Laboratories Spectral Collection)
     * MASS: 1425 (Atlas of Mass Spectral Data, John Wiley & Sons, New
       York)
     * Intense mass spectral peaks: 202 m/z (100%), 203 m/z (19%), 200 m/z
       (17%), 101 m/z (14%)
     * Light blue fluorescence

   from [7]HSDB

   Vapor Pressure
        9.22X10-6 mm Hg @ 25 deg C
   from [8]HSDB

   Other Chemical/Physical Properties

     * Most reactive at positions 3 & 8; reduction with sodium in ethanol
       gives tetrahydrofluoranthene; can be chlorinated, brominated &
       nitrated relatively easily. Concn sulfuric acid gives a mono- & a
       disulfonic acid. Numerous Friedel-Crafts reactions have been
       carried out with fluoranthene; reacts with nitrogen monoxide &
       nitrogen dioxide to form nitro derivatives.
     * Halogenation, nitration, and sulfonation take place predominantly
       at the 4-position.
     * Henry's Law constant = 9.45X10-6 atm cu-m/mol at 20 deg C
     * Hydroxyl radical rate constant= 5.00X10-11 cu-cm/molc sec at 25 deg
       C
     * Vapor pressure = 0.01 mm Hg at 20 deg C

   from [9]HSDB

   Computed Properties
   Molecular Weight                  202.2506 [g/mol]
   Molecular Formula                 C[16]H[10]
   XLogP3                            5.2
   H-Bond Donor                      0
   H-Bond Acceptor                   0
   Rotatable Bond Count              0
   Exact Mass                        202.07825
   MonoIsotopic Mass                 202.07825
   Topological Polar Surface Area    0
   Heavy Atom Count                  16
   Formal Charge                     0
   Complexity                        243
   Isotope Atom Count                0
   Defined Atom Stereocenter Count   0
   Undefined Atom Stereocenter Count 0
   Defined Bond Stereocenter Count   0
   Undefined Bond Stereocenter Count 0
   Covalently-Bonded Unit Count      1
   Feature 3D Ring Count             4
   Effective Rotor Count             0
   Conformer Sampling RMSD           0.4
   CID Conformer Count               [10]1

References

   1. http://toxnet.nlm.nih.gov/cgi-bin/sis/search/r?dbs+hsdb:@term+@rn+@rel+206-44-0
   2. http://toxnet.nlm.nih.gov/cgi-bin/sis/search/r?dbs+hsdb:@term+@rn+@rel+206-44-0
   3. http://toxnet.nlm.nih.gov/cgi-bin/sis/search/r?dbs+hsdb:@term+@rn+@rel+206-44-0
   4. http://toxnet.nlm.nih.gov/cgi-bin/sis/search/r?dbs+hsdb:@term+@rn+@rel+206-44-0
   5. http://toxnet.nlm.nih.gov/cgi-bin/sis/search/r?dbs+hsdb:@term+@rn+@rel+206-44-0
   6. http://toxnet.nlm.nih.gov/cgi-bin/sis/search/r?dbs+hsdb:@term+@rn+@rel+206-44-0
   7. http://toxnet.nlm.nih.gov/cgi-bin/sis/search/r?dbs+hsdb:@term+@rn+@rel+206-44-0
   8. http://toxnet.nlm.nih.gov/cgi-bin/sis/search/r?dbs+hsdb:@term+@rn+@rel+206-44-0
   9. http://toxnet.nlm.nih.gov/cgi-bin/sis/search/r?dbs+hsdb:@term+@rn+@rel+206-44-0
  10. http://pubchem.ncbi.nlm.nih.gov/vw3d/vw3d.cgi?cid=9154
