439673
  -OEChem-07051212462D

 50 53  0     1  0  0  0  0  0999 V2000
    3.4022   -1.0924    0.0000 S   0  0  0  0  0  0  0  0  0  0  0  0
    4.2663   -1.5958    0.0000 O   0  0  0  0  0  0  0  0  0  0  0  0
    2.5381   -0.5891    0.0000 O   0  0  0  0  0  0  0  0  0  0  0  0
    2.8989   -1.9565    0.0000 O   0  0  0  0  0  0  0  0  0  0  0  0
    3.9056   -0.2284    0.0000 O   0  0  0  0  0  0  0  0  0  0  0  0
    8.7934   -0.0435    0.0000 C   0  0  3  0  0  0  0  0  0  0  0  0
    7.9273    0.4565    0.0000 C   0  0  3  0  0  0  0  0  0  0  0  0
    9.6594    0.4565    0.0000 C   0  0  3  0  0  0  0  0  0  0  0  0
    7.0173   -0.0503    0.0000 C   0  0  3  0  0  0  0  0  0  0  0  0
    9.6594    1.4565    0.0000 C   0  0  3  0  0  0  0  0  0  0  0  0
    7.0093   -1.0919    0.0000 C   0  0  3  0  0  0  0  0  0  0  0  0
    7.9273    1.4565    0.0000 C   0  0  0  0  0  0  0  0  0  0  0  0
    8.8094   -1.0850    0.0000 C   0  0  0  0  0  0  0  0  0  0  0  0
    8.7934    1.9565    0.0000 C   0  0  0  0  0  0  0  0  0  0  0  0
    7.9114   -1.6127    0.0000 C   0  0  0  0  0  0  0  0  0  0  0  0
   10.6056    0.1518    0.0000 C   0  0  0  0  0  0  0  0  0  0  0  0
   10.6056    1.7613    0.0000 C   0  0  0  0  0  0  0  0  0  0  0  0
    6.0905    0.5138    0.0000 C   0  0  0  0  0  0  0  0  0  0  0  0
    6.0739   -1.6416    0.0000 C   0  0  0  0  0  0  0  0  0  0  0  0
   11.1892    0.9565    0.0000 C   0  0  0  0  0  0  0  0  0  0  0  0
    5.1426   -0.0142    0.0000 C   0  0  0  0  0  0  0  0  0  0  0  0
    5.1343   -1.0991    0.0000 C   0  0  3  0  0  0  0  0  0  0  0  0
    9.5328   -0.4628    0.0000 H   0  0  0  0  0  0  0  0  0  0  0  0
    8.6635    0.8815    0.0000 H   0  0  0  0  0  0  0  0  0  0  0  0
    9.7493   -0.3887    0.0000 H   0  0  0  0  0  0  0  0  0  0  0  0
    7.0337    0.7995    0.0000 H   0  0  0  0  0  0  0  0  0  0  0  0
    9.7493    2.3018    0.0000 H   0  0  0  0  0  0  0  0  0  0  0  0
    7.0126   -1.9419    0.0000 H   0  0  0  0  0  0  0  0  0  0  0  0
    7.7153    2.0391    0.0000 H   0  0  0  0  0  0  0  0  0  0  0  0
    7.3168    1.3489    0.0000 H   0  0  0  0  0  0  0  0  0  0  0  0
    9.0275   -1.6654    0.0000 H   0  0  0  0  0  0  0  0  0  0  0  0
    9.4186   -0.9695    0.0000 H   0  0  0  0  0  0  0  0  0  0  0  0
    9.1919    2.4315    0.0000 H   0  0  0  0  0  0  0  0  0  0  0  0
    8.3948    2.4315    0.0000 H   0  0  0  0  0  0  0  0  0  0  0  0
    7.5141   -2.0887    0.0000 H   0  0  0  0  0  0  0  0  0  0  0  0
    8.3124   -2.0856    0.0000 H   0  0  0  0  0  0  0  0  0  0  0  0
   10.3546   -0.4151    0.0000 H   0  0  0  0  0  0  0  0  0  0  0  0
   11.1430   -0.1574    0.0000 H   0  0  0  0  0  0  0  0  0  0  0  0
   11.1430    2.0705    0.0000 H   0  0  0  0  0  0  0  0  0  0  0  0
   10.3546    2.3282    0.0000 H   0  0  0  0  0  0  0  0  0  0  0  0
    6.4987    0.9804    0.0000 H   0  0  0  0  0  0  0  0  0  0  0  0
    5.7006    0.9958    0.0000 H   0  0  0  0  0  0  0  0  0  0  0  0
    5.6766   -2.1176    0.0000 H   0  0  0  0  0  0  0  0  0  0  0  0
    6.4748   -2.1145    0.0000 H   0  0  0  0  0  0  0  0  0  0  0  0
   11.6501    0.5418    0.0000 H   0  0  0  0  0  0  0  0  0  0  0  0
   11.6501    1.3713    0.0000 H   0  0  0  0  0  0  0  0  0  0  0  0
    4.9381    0.5711    0.0000 H   0  0  0  0  0  0  0  0  0  0  0  0
    4.5310   -0.1155    0.0000 H   0  0  0  0  0  0  0  0  0  0  0  0
    4.4006   -0.6699    0.0000 H   0  0  0  0  0  0  0  0  0  0  0  0
    2.0000   -0.8970    0.0000 H   0  0  0  0  0  0  0  0  0  0  0  0
  1  2  1  0  0  0  0
  1  3  1  0  0  0  0
  1  4  2  0  0  0  0
  1  5  2  0  0  0  0
  2 22  1  0  0  0  0
  3 50  1  0  0  0  0
  6  7  1  0  0  0  0
  6  8  1  0  0  0  0
  6 13  1  0  0  0  0
  6 23  1  0  0  0  0
  7  9  1  0  0  0  0
  7 12  1  0  0  0  0
  7 24  1  0  0  0  0
  8 10  1  0  0  0  0
  8 16  1  0  0  0  0
  8 25  1  0  0  0  0
  9 11  1  0  0  0  0
  9 18  1  0  0  0  0
  9 26  1  0  0  0  0
 10 14  1  0  0  0  0
 10 17  1  0  0  0  0
 10 27  1  0  0  0  0
 11 15  1  0  0  0  0
 11 19  1  0  0  0  0
 11 28  1  0  0  0  0
 12 14  1  0  0  0  0
 12 29  1  0  0  0  0
 12 30  1  0  0  0  0
 13 15  1  0  0  0  0
 13 31  1  0  0  0  0
 13 32  1  0  0  0  0
 14 33  1  0  0  0  0
 14 34  1  0  0  0  0
 15 35  1  0  0  0  0
 15 36  1  0  0  0  0
 16 20  1  0  0  0  0
 16 37  1  0  0  0  0
 16 38  1  0  0  0  0
 17 20  1  0  0  0  0
 17 39  1  0  0  0  0
 17 40  1  0  0  0  0
 18 21  1  0  0  0  0
 18 41  1  0  0  0  0
 18 42  1  0  0  0  0
 19 22  1  0  0  0  0
 19 43  1  0  0  0  0
 19 44  1  0  0  0  0
 20 45  1  0  0  0  0
 20 46  1  0  0  0  0
 21 22  1  0  0  0  0
 21 47  1  0  0  0  0
 21 48  1  0  0  0  0
 22 49  1  0  0  0  0
M  END
> <PUBCHEM_COMPOUND_CID>
439673

> <PUBCHEM_COMPOUND_CANONICALIZED>
1

> <PUBCHEM_CACTVS_COMPLEXITY>
511

> <PUBCHEM_CACTVS_HBOND_ACCEPTOR>
4

> <PUBCHEM_CACTVS_HBOND_DONOR>
1

> <PUBCHEM_CACTVS_ROTATABLE_BOND>
2

> <PUBCHEM_CACTVS_SUBSKEYS>
AAADceB4OABAAAAAAAAAAAAAAAAAAYAAAAAwYMAAAAAAAGDAAAAAGgAACAAADRSggAIAAAAAAIAAAAAAADAAAAAAAAAAAAAAAAAAAAIAAAAAAAAEAAAAAAGAwPAOgAAAAAAAAADAAAYAACAAAAAACAAAAA==

> <PUBCHEM_IUPAC_OPENEYE_NAME>
2,3,4,5,6,7,8,9,10,11,12,13,14,15,16,17-hexadecahydro-1H-cyclopenta[a]phenanthren-3-yl hydrogen sulfate

> <PUBCHEM_IUPAC_CAS_NAME>
sulfuric acid 2,3,4,5,6,7,8,9,10,11,12,13,14,15,16,17-hexadecahydro-1H-cyclopenta[a]phenanthren-3-yl ester

> <PUBCHEM_IUPAC_NAME>
2,3,4,5,6,7,8,9,10,11,12,13,14,15,16,17-hexadecahydro-1H-cyclopenta[a]phenanthren-3-yl hydrogen sulfate

> <PUBCHEM_IUPAC_SYSTEMATIC_NAME>
2,3,4,5,6,7,8,9,10,11,12,13,14,15,16,17-hexadecahydro-1H-cyclopenta[a]phenanthren-3-yl hydrogen sulfate

> <PUBCHEM_IUPAC_TRADITIONAL_NAME>
sulfuric acid 2,3,4,5,6,7,8,9,10,11,12,13,14,15,16,17-hexadecahydro-1H-cyclopenta[a]phenanthren-3-yl ester

> <PUBCHEM_IUPAC_INCHI>
InChI=1S/C17H28O4S/c18-22(19,20)21-13-6-9-15-12(10-13)5-8-16-14-3-1-2-11(14)4-7-17(15)16/h11-17H,1-10H2,(H,18,19,20)

> <PUBCHEM_IUPAC_INCHIKEY>
ULRQJNITUNNDBO-UHFFFAOYSA-N

> <PUBCHEM_XLOGP3_AA>
4.7

> <PUBCHEM_EXACT_MASS>
328.17083

> <PUBCHEM_MOLECULAR_FORMULA>
C17H28O4S

> <PUBCHEM_MOLECULAR_WEIGHT>
328.46682

> <PUBCHEM_OPENEYE_CAN_SMILES>
C1CC2CCC3C4CCC(CC4CCC3C2C1)OS(=O)(=O)O

> <PUBCHEM_OPENEYE_ISO_SMILES>
C1CC2CCC3C4CCC(CC4CCC3C2C1)OS(=O)(=O)O

> <PUBCHEM_CACTVS_TPSA>
72

> <PUBCHEM_MONOISOTOPIC_WEIGHT>
328.17083

> <PUBCHEM_TOTAL_CHARGE>
0

> <PUBCHEM_HEAVY_ATOM_COUNT>
22

> <PUBCHEM_ATOM_DEF_STEREO_COUNT>
0

> <PUBCHEM_ATOM_UDEF_STEREO_COUNT>
7

> <PUBCHEM_BOND_DEF_STEREO_COUNT>
0

> <PUBCHEM_BOND_UDEF_STEREO_COUNT>
0

> <PUBCHEM_ISOTOPIC_ATOM_COUNT>
0

> <PUBCHEM_COMPONENT_COUNT>
1

> <PUBCHEM_CACTVS_TAUTO_COUNT>
1

> <PUBCHEM_COORDINATE_TYPE>
1
5
255

> <PUBCHEM_BONDANNOTATIONS>
10  27  3
11  28  3
22  49  3
6  23  3
7  24  3
8  25  3
9  26  3

$$$$

