11953999
  -OEChem-07051213022D

 71 70  0     1  0  0  0  0  0999 V2000
    5.4641   -1.0950    0.0000 O   0  0  0  0  0  0  0  0  0  0  0  0
   10.6603   -1.0950    0.0000 O   0  0  0  0  0  0  0  0  0  0  0  0
   19.3205   -0.0950    0.0000 O   0  0  0  0  0  0  0  0  0  0  0  0
   15.8564   -1.0950    0.0000 O   0  0  0  0  0  0  0  0  0  0  0  0
   16.7224    0.4050    0.0000 N   0  0  0  0  0  0  0  0  0  0  0  0
    6.3301    0.4050    0.0000 C   0  0  1  0  0  0  0  0  0  0  0  0
    5.4641   -0.0950    0.0000 C   0  0  2  0  0  0  0  0  0  0  0  0
    4.5981    0.4050    0.0000 C   0  0  0  0  0  0  0  0  0  0  0  0
    7.1962   -0.0950    0.0000 C   0  0  0  0  0  0  0  0  0  0  0  0
    6.3301    1.4050    0.0000 C   0  0  0  0  0  0  0  0  0  0  0  0
    2.8660    0.4050    0.0000 C   0  0  0  0  0  0  0  0  0  0  0  0
    3.7320   -0.0950    0.0000 C   0  0  0  0  0  0  0  0  0  0  0  0
    4.5981    1.4050    0.0000 C   0  0  0  0  0  0  0  0  0  0  0  0
    8.0622    0.4050    0.0000 C   0  0  0  0  0  0  0  0  0  0  0  0
    2.0000   -0.0950    0.0000 C   0  0  0  0  0  0  0  0  0  0  0  0
    2.8660    1.4050    0.0000 C   0  0  0  0  0  0  0  0  0  0  0  0
    8.9282   -0.0950    0.0000 C   0  0  0  0  0  0  0  0  0  0  0  0
    8.0622    1.4050    0.0000 C   0  0  0  0  0  0  0  0  0  0  0  0
   10.6603   -0.0950    0.0000 C   0  0  3  0  0  0  0  0  0  0  0  0
    9.7942    0.4050    0.0000 C   0  0  0  0  0  0  0  0  0  0  0  0
   11.5263    0.4050    0.0000 C   0  0  0  0  0  0  0  0  0  0  0  0
   17.5885   -0.0950    0.0000 C   0  0  2  0  0  0  0  0  0  0  0  0
   12.3923   -0.0950    0.0000 C   0  0  0  0  0  0  0  0  0  0  0  0
   18.4545    0.4050    0.0000 C   0  0  0  0  0  0  0  0  0  0  0  0
   17.5885   -1.0950    0.0000 C   0  0  0  0  0  0  0  0  0  0  0  0
   14.9904    0.4050    0.0000 C   0  0  0  0  0  0  0  0  0  0  0  0
   13.2583    0.4050    0.0000 C   0  0  0  0  0  0  0  0  0  0  0  0
   15.8564   -0.0950    0.0000 C   0  0  0  0  0  0  0  0  0  0  0  0
   14.1244   -0.0950    0.0000 C   0  0  0  0  0  0  0  0  0  0  0  0
   14.9904    1.4050    0.0000 C   0  0  0  0  0  0  0  0  0  0  0  0
    6.8671    0.7150    0.0000 H   0  0  0  0  0  0  0  0  0  0  0  0
    6.0010   -0.4050    0.0000 H   0  0  0  0  0  0  0  0  0  0  0  0
    7.1962   -0.7150    0.0000 H   0  0  0  0  0  0  0  0  0  0  0  0
    6.9501    1.4050    0.0000 H   0  0  0  0  0  0  0  0  0  0  0  0
    6.3301    2.0250    0.0000 H   0  0  0  0  0  0  0  0  0  0  0  0
    5.7101    1.4050    0.0000 H   0  0  0  0  0  0  0  0  0  0  0  0
    2.8660   -0.2150    0.0000 H   0  0  0  0  0  0  0  0  0  0  0  0
    3.7320   -0.7150    0.0000 H   0  0  0  0  0  0  0  0  0  0  0  0
    5.2181    1.4050    0.0000 H   0  0  0  0  0  0  0  0  0  0  0  0
    4.5981    2.0250    0.0000 H   0  0  0  0  0  0  0  0  0  0  0  0
    3.9781    1.4050    0.0000 H   0  0  0  0  0  0  0  0  0  0  0  0
    4.9272   -1.4050    0.0000 H   0  0  0  0  0  0  0  0  0  0  0  0
    1.6900    0.4419    0.0000 H   0  0  0  0  0  0  0  0  0  0  0  0
    1.4631   -0.4050    0.0000 H   0  0  0  0  0  0  0  0  0  0  0  0
    2.3100   -0.6319    0.0000 H   0  0  0  0  0  0  0  0  0  0  0  0
    3.4860    1.4050    0.0000 H   0  0  0  0  0  0  0  0  0  0  0  0
    2.8660    2.0250    0.0000 H   0  0  0  0  0  0  0  0  0  0  0  0
    2.2460    1.4050    0.0000 H   0  0  0  0  0  0  0  0  0  0  0  0
    8.9282   -0.7150    0.0000 H   0  0  0  0  0  0  0  0  0  0  0  0
    8.6822    1.4050    0.0000 H   0  0  0  0  0  0  0  0  0  0  0  0
    8.0622    2.0250    0.0000 H   0  0  0  0  0  0  0  0  0  0  0  0
    7.4422    1.4050    0.0000 H   0  0  0  0  0  0  0  0  0  0  0  0
   11.3964   -0.5200    0.0000 H   0  0  0  0  0  0  0  0  0  0  0  0
    9.7942    1.0250    0.0000 H   0  0  0  0  0  0  0  0  0  0  0  0
   11.9248    0.8799    0.0000 H   0  0  0  0  0  0  0  0  0  0  0  0
   11.1278    0.8799    0.0000 H   0  0  0  0  0  0  0  0  0  0  0  0
   17.5885    0.5250    0.0000 H   0  0  0  0  0  0  0  0  0  0  0  0
   12.3923   -0.7150    0.0000 H   0  0  0  0  0  0  0  0  0  0  0  0
   18.8530    0.8799    0.0000 H   0  0  0  0  0  0  0  0  0  0  0  0
   18.0560    0.8799    0.0000 H   0  0  0  0  0  0  0  0  0  0  0  0
   16.7224    1.0250    0.0000 H   0  0  0  0  0  0  0  0  0  0  0  0
   16.9685   -1.0950    0.0000 H   0  0  0  0  0  0  0  0  0  0  0  0
   17.5885   -1.7150    0.0000 H   0  0  0  0  0  0  0  0  0  0  0  0
   18.2085   -1.0950    0.0000 H   0  0  0  0  0  0  0  0  0  0  0  0
   11.1972   -1.4050    0.0000 H   0  0  0  0  0  0  0  0  0  0  0  0
   13.2583    1.0250    0.0000 H   0  0  0  0  0  0  0  0  0  0  0  0
   14.1244   -0.7150    0.0000 H   0  0  0  0  0  0  0  0  0  0  0  0
   15.6104    1.4050    0.0000 H   0  0  0  0  0  0  0  0  0  0  0  0
   14.9904    2.0250    0.0000 H   0  0  0  0  0  0  0  0  0  0  0  0
   14.3704    1.4050    0.0000 H   0  0  0  0  0  0  0  0  0  0  0  0
   19.8574    0.2150    0.0000 H   0  0  0  0  0  0  0  0  0  0  0  0
  7  1  1  1  0  0  0
  1 42  1  0  0  0  0
  2 19  1  0  0  0  0
  2 65  1  0  0  0  0
  3 24  1  0  0  0  0
  3 71  1  0  0  0  0
  4 28  2  0  0  0  0
 22  5  1  6  0  0  0
  5 28  1  0  0  0  0
  5 61  1  0  0  0  0
  6  7  1  0  0  0  0
  6  9  1  0  0  0  0
  6 10  1  6  0  0  0
  6 31  1  0  0  0  0
  7  8  1  0  0  0  0
  7 32  1  0  0  0  0
  8 12  2  0  0  0  0
  8 13  1  0  0  0  0
  9 14  2  0  0  0  0
  9 33  1  0  0  0  0
 10 34  1  0  0  0  0
 10 35  1  0  0  0  0
 10 36  1  0  0  0  0
 11 12  1  0  0  0  0
 11 15  1  0  0  0  0
 11 16  1  0  0  0  0
 11 37  1  0  0  0  0
 12 38  1  0  0  0  0
 13 39  1  0  0  0  0
 13 40  1  0  0  0  0
 13 41  1  0  0  0  0
 14 17  1  0  0  0  0
 14 18  1  0  0  0  0
 15 43  1  0  0  0  0
 15 44  1  0  0  0  0
 15 45  1  0  0  0  0
 16 46  1  0  0  0  0
 16 47  1  0  0  0  0
 16 48  1  0  0  0  0
 17 20  2  0  0  0  0
 17 49  1  0  0  0  0
 18 50  1  0  0  0  0
 18 51  1  0  0  0  0
 18 52  1  0  0  0  0
 19 20  1  0  0  0  0
 19 21  1  0  0  0  0
 19 53  1  0  0  0  0
 20 54  1  0  0  0  0
 21 23  1  0  0  0  0
 21 55  1  0  0  0  0
 21 56  1  0  0  0  0
 22 24  1  0  0  0  0
 22 25  1  0  0  0  0
 22 57  1  0  0  0  0
 23 27  2  0  0  0  0
 23 58  1  0  0  0  0
 24 59  1  0  0  0  0
 24 60  1  0  0  0  0
 25 62  1  0  0  0  0
 25 63  1  0  0  0  0
 25 64  1  0  0  0  0
 26 28  1  0  0  0  0
 26 29  2  0  0  0  0
 26 30  1  0  0  0  0
 27 29  1  0  0  0  0
 27 66  1  0  0  0  0
 29 67  1  0  0  0  0
 30 68  1  0  0  0  0
 30 69  1  0  0  0  0
 30 70  1  0  0  0  0
M  END
> <PUBCHEM_COMPOUND_CID>
11953999

> <PUBCHEM_COMPOUND_CANONICALIZED>
1

> <PUBCHEM_CACTVS_COMPLEXITY>
671

> <PUBCHEM_CACTVS_HBOND_ACCEPTOR>
4

> <PUBCHEM_CACTVS_HBOND_DONOR>
4

> <PUBCHEM_CACTVS_ROTATABLE_BOND>
12

> <PUBCHEM_CACTVS_SUBSKEYS>
AAADcfB6OAAAAAAAAAAAAAAAAAAAAAAAAAAAAAAAAAAAAAAAAAAAHgAQCAAADTzhgAYCAALAAgCIAiFSEACAAAAgAAAICIEIAEgKFAIAAQAEUAAA1gCYkYIAAAAMAAAAAAAAAAAAAAAAAAAAAAAAAAAAAA==

> <PUBCHEM_IUPAC_OPENEYE_NAME>
(2E,4E,8E,10E,12R,13R,14E)-7,13-dihydroxy-N-[(1S)-2-hydroxy-1-methyl-ethyl]-2,10,12,14,16-pentamethyl-heptadeca-2,4,8,10,14-pentaenamide

> <PUBCHEM_IUPAC_CAS_NAME>
(2E,4E,8E,10E,12R,13R,14E)-7,13-dihydroxy-N-[(2S)-1-hydroxypropan-2-yl]-2,10,12,14,16-pentamethylheptadeca-2,4,8,10,14-pentaenamide

> <PUBCHEM_IUPAC_NAME>
(2E,4E,8E,10E,12R,13R,14E)-7,13-dihydroxy-N-[(2S)-1-hydroxypropan-2-yl]-2,10,12,14,16-pentamethylheptadeca-2,4,8,10,14-pentaenamide

> <PUBCHEM_IUPAC_SYSTEMATIC_NAME>
(2E,4E,8E,10E,12R,13R,14E)-2,10,12,14,16-pentamethyl-7,13-bis(oxidanyl)-N-[(2S)-1-oxidanylpropan-2-yl]heptadeca-2,4,8,10,14-pentaenamide

> <PUBCHEM_IUPAC_TRADITIONAL_NAME>
(2E,4E,8E,10E,12R,13R,14E)-7,13-dihydroxy-N-[(1S)-2-hydroxy-1-methyl-ethyl]-2,10,12,14,16-pentamethyl-heptadeca-2,4,8,10,14-pentaenamide

> <PUBCHEM_IUPAC_INCHI>
InChI=1S/C25H41NO4/c1-17(2)14-20(5)24(29)21(6)15-18(3)12-13-23(28)11-9-8-10-19(4)25(30)26-22(7)16-27/h8-10,12-15,17,21-24,27-29H,11,16H2,1-7H3,(H,26,30)/b9-8+,13-12+,18-15+,19-10+,20-14+/t21-,22+,23?,24+/m1/s1

> <PUBCHEM_IUPAC_INCHIKEY>
GADFOYPOADGIMS-NWAXCZKQSA-N

> <PUBCHEM_XLOGP3_AA>
4.4

> <PUBCHEM_EXACT_MASS>
419.303559

> <PUBCHEM_MOLECULAR_FORMULA>
C25H41NO4

> <PUBCHEM_MOLECULAR_WEIGHT>
419.59734

> <PUBCHEM_OPENEYE_CAN_SMILES>
CC(C)C=C(C)C(C(C)C=C(C)C=CC(CC=CC=C(C)C(=O)NC(C)CO)O)O

> <PUBCHEM_OPENEYE_ISO_SMILES>
C[C@@H](CO)NC(=O)/C(=C/C=C/CC(/C=C/C(=C/[C@@H](C)[C@H](/C(=C/C(C)C)/C)O)/C)O)/C

> <PUBCHEM_CACTVS_TPSA>
89.8

> <PUBCHEM_MONOISOTOPIC_WEIGHT>
419.303559

> <PUBCHEM_TOTAL_CHARGE>
0

> <PUBCHEM_HEAVY_ATOM_COUNT>
30

> <PUBCHEM_ATOM_DEF_STEREO_COUNT>
3

> <PUBCHEM_ATOM_UDEF_STEREO_COUNT>
1

> <PUBCHEM_BOND_DEF_STEREO_COUNT>
5

> <PUBCHEM_BOND_UDEF_STEREO_COUNT>
0

> <PUBCHEM_ISOTOPIC_ATOM_COUNT>
0

> <PUBCHEM_COMPONENT_COUNT>
1

> <PUBCHEM_CACTVS_TAUTO_COUNT>
5

> <PUBCHEM_COORDINATE_TYPE>
1
5
255

> <PUBCHEM_BONDANNOTATIONS>
7  1  5
19  53  3
22  5  6
6  10  6

$$$$

