439645
  -OEChem-07051212462D

 28 28  0     1  0  0  0  0  0999 V2000
    5.1350    0.4535    0.0000 O   0  0  0  0  0  0  0  0  0  0  0  0
    2.5369    0.9535    0.0000 O   0  0  0  0  0  0  0  0  0  0  0  0
    2.5369   -1.0465    0.0000 O   0  0  0  0  0  0  0  0  0  0  0  0
    3.7690    1.8195    0.0000 O   0  0  0  0  0  0  0  0  0  0  0  0
    4.2690   -2.0465    0.0000 O   0  0  0  0  0  0  0  0  0  0  0  0
    5.7690    1.8195    0.0000 O   0  0  0  0  0  0  0  0  0  0  0  0
    6.8671   -0.5465    0.0000 O   0  0  0  0  0  0  0  0  0  0  0  0
    3.4030    0.4535    0.0000 C   0  0  1  0  0  0  0  0  0  0  0  0
    3.4030   -0.5465    0.0000 C   0  0  1  0  0  0  0  0  0  0  0  0
    4.2690    0.9535    0.0000 C   0  0  3  0  0  0  0  0  0  0  0  0
    4.2690   -1.0465    0.0000 C   0  0  1  0  0  0  0  0  0  0  0  0
    5.1350   -0.5465    0.0000 C   0  0  1  0  0  0  0  0  0  0  0  0
    4.7690    1.8195    0.0000 C   0  0  0  0  0  0  0  0  0  0  0  0
    6.0010   -1.0465    0.0000 C   0  0  0  0  0  0  0  0  0  0  0  0
    3.4030    1.0735    0.0000 H   0  0  0  0  0  0  0  0  0  0  0  0
    3.4030   -1.1665    0.0000 H   0  0  0  0  0  0  0  0  0  0  0  0
    4.8059   -1.3565    0.0000 H   0  0  0  0  0  0  0  0  0  0  0  0
    5.6720   -0.2365    0.0000 H   0  0  0  0  0  0  0  0  0  0  0  0
    4.8766    2.4301    0.0000 H   0  0  0  0  0  0  0  0  0  0  0  0
    4.1864    2.0316    0.0000 H   0  0  0  0  0  0  0  0  0  0  0  0
    5.6025   -1.5214    0.0000 H   0  0  0  0  0  0  0  0  0  0  0  0
    6.3996   -1.5214    0.0000 H   0  0  0  0  0  0  0  0  0  0  0  0
    2.0000    0.6435    0.0000 H   0  0  0  0  0  0  0  0  0  0  0  0
    2.5369   -1.6665    0.0000 H   0  0  0  0  0  0  0  0  0  0  0  0
    4.0790    2.3565    0.0000 H   0  0  0  0  0  0  0  0  0  0  0  0
    4.8059   -2.3565    0.0000 H   0  0  0  0  0  0  0  0  0  0  0  0
    6.0790    2.3565    0.0000 H   0  0  0  0  0  0  0  0  0  0  0  0
    7.4040   -0.8565    0.0000 H   0  0  0  0  0  0  0  0  0  0  0  0
  1 10  1  0  0  0  0
  1 12  1  0  0  0  0
  8  2  1  6  0  0  0
  2 23  1  0  0  0  0
  9  3  1  1  0  0  0
  3 24  1  0  0  0  0
  4 10  1  0  0  0  0
  4 25  1  0  0  0  0
 11  5  1  1  0  0  0
  5 26  1  0  0  0  0
  6 13  1  0  0  0  0
  6 27  1  0  0  0  0
  7 14  1  0  0  0  0
  7 28  1  0  0  0  0
  8  9  1  0  0  0  0
  8 10  1  0  0  0  0
  8 15  1  0  0  0  0
  9 11  1  0  0  0  0
  9 16  1  0  0  0  0
 10 13  1  0  0  0  0
 11 12  1  0  0  0  0
 11 17  1  0  0  0  0
 12 14  1  6  0  0  0
 12 18  1  0  0  0  0
 13 19  1  0  0  0  0
 13 20  1  0  0  0  0
 14 21  1  0  0  0  0
 14 22  1  0  0  0  0
M  END
> <PUBCHEM_COMPOUND_CID>
439645

> <PUBCHEM_COMPOUND_CANONICALIZED>
1

> <PUBCHEM_CACTVS_COMPLEXITY>
199

> <PUBCHEM_CACTVS_HBOND_ACCEPTOR>
7

> <PUBCHEM_CACTVS_HBOND_DONOR>
6

> <PUBCHEM_CACTVS_ROTATABLE_BOND>
2

> <PUBCHEM_CACTVS_SUBSKEYS>
AAADccBgOAAAAAAAAAAAAAAAAAAAAAAAAAAkAAAAAAAAAAAAAAAAGgAACAAACBSggAIACAAABgAAAAAAAAAAAAAAAAAAAAAAAAAREAIAAAACQAAFAAAHAAHA4CQAAAAAAAAAAAAAAAAAAAAAAAAAAAAAAA==

> <PUBCHEM_IUPAC_OPENEYE_NAME>
(3S,4R,5S,6R)-2,6-bis(hydroxymethyl)tetrahydropyran-2,3,4,5-tetrol

> <PUBCHEM_IUPAC_CAS_NAME>
(3S,4R,5S,6R)-2,6-bis(hydroxymethyl)oxane-2,3,4,5-tetrol

> <PUBCHEM_IUPAC_NAME>
(3S,4R,5S,6R)-2,6-bis(hydroxymethyl)oxane-2,3,4,5-tetrol

> <PUBCHEM_IUPAC_SYSTEMATIC_NAME>
(3S,4R,5S,6R)-2,6-bis(hydroxymethyl)oxane-2,3,4,5-tetrol

> <PUBCHEM_IUPAC_TRADITIONAL_NAME>
(3S,4R,5S,6R)-2,6-dimethyloltetrahydropyran-2,3,4,5-tetrol

> <PUBCHEM_IUPAC_INCHI>
InChI=1S/C7H14O7/c8-1-3-4(10)5(11)6(12)7(13,2-9)14-3/h3-6,8-13H,1-2H2/t3-,4-,5-,6+,7?/m1/s1

> <PUBCHEM_IUPAC_INCHIKEY>
HAIWUXASLYEWLM-QTSLKERKSA-N

> <PUBCHEM_XLOGP3_AA>
-2.9

> <PUBCHEM_EXACT_MASS>
210.073953

> <PUBCHEM_MOLECULAR_FORMULA>
C7H14O7

> <PUBCHEM_MOLECULAR_WEIGHT>
210.18186

> <PUBCHEM_OPENEYE_CAN_SMILES>
C(C1C(C(C(C(O1)(CO)O)O)O)O)O

> <PUBCHEM_OPENEYE_ISO_SMILES>
C([C@@H]1[C@H]([C@H]([C@@H](C(O1)(CO)O)O)O)O)O

> <PUBCHEM_CACTVS_TPSA>
131

> <PUBCHEM_MONOISOTOPIC_WEIGHT>
210.073953

> <PUBCHEM_TOTAL_CHARGE>
0

> <PUBCHEM_HEAVY_ATOM_COUNT>
14

> <PUBCHEM_ATOM_DEF_STEREO_COUNT>
4

> <PUBCHEM_ATOM_UDEF_STEREO_COUNT>
1

> <PUBCHEM_BOND_DEF_STEREO_COUNT>
0

> <PUBCHEM_BOND_UDEF_STEREO_COUNT>
0

> <PUBCHEM_ISOTOPIC_ATOM_COUNT>
0

> <PUBCHEM_COMPONENT_COUNT>
1

> <PUBCHEM_CACTVS_TAUTO_COUNT>
1

> <PUBCHEM_COORDINATE_TYPE>
1
5
255

> <PUBCHEM_BONDANNOTATIONS>
10  13  3
12  14  6
8  2  6
9  3  5
11  5  5

$$$$

