92825
  -OEChem-07051212562D

 80 84  0     1  0  0  0  0  0999 V2000
    2.5357   -2.1612    0.0000 O   0  0  0  0  0  0  0  0  0  0  0  0
   11.4608    0.9253    0.0000 O   0  0  0  0  0  0  0  0  0  0  0  0
   10.6064   -0.5814    0.0000 O   0  0  0  0  0  0  0  0  0  0  0  0
    4.3500   -3.9391    0.0000 O   0  0  0  0  0  0  0  0  0  0  0  0
    7.0628   -0.6089    0.0000 C   0  0  2  0  0  0  0  0  0  0  0  0
    6.1968   -0.1089    0.0000 C   0  0  1  0  0  0  0  0  0  0  0  0
    5.2868   -0.6158    0.0000 C   0  0  2  0  0  0  0  0  0  0  0  0
    7.9288   -0.1089    0.0000 C   0  0  1  0  0  0  0  0  0  0  0  0
    5.2787   -1.6574    0.0000 C   0  0  1  0  0  0  0  0  0  0  0  0
    7.0789   -1.6504    0.0000 C   0  0  0  0  0  0  0  0  0  0  0  0
    7.9288    0.8911    0.0000 C   0  0  0  0  0  0  0  0  0  0  0  0
    6.1808   -2.1782    0.0000 C   0  0  0  0  0  0  0  0  0  0  0  0
    8.8228    1.4258    0.0000 C   0  0  1  0  0  0  0  0  0  0  0  0
    6.1968    0.8911    0.0000 C   0  0  0  0  0  0  0  0  0  0  0  0
    8.8228   -0.6436    0.0000 C   0  0  0  0  0  0  0  0  0  0  0  0
    4.3433   -2.2071    0.0000 C   0  0  2  0  0  0  0  0  0  0  0  0
    9.7288    0.9119    0.0000 C   0  0  1  0  0  0  0  0  0  0  0  0
    4.3599   -0.0517    0.0000 C   0  0  0  0  0  0  0  0  0  0  0  0
    9.7288   -0.1297    0.0000 C   0  0  0  0  0  0  0  0  0  0  0  0
    7.7056   -1.3750    0.0000 C   0  0  0  0  0  0  0  0  0  0  0  0
    7.0628    1.3911    0.0000 C   0  0  0  0  0  0  0  0  0  0  0  0
    5.2945    0.3842    0.0000 C   0  0  0  0  0  0  0  0  0  0  0  0
    3.4037   -1.6646    0.0000 C   0  0  2  0  0  0  0  0  0  0  0  0
    8.2709   -1.0486    0.0000 C   0  0  0  0  0  0  0  0  0  0  0  0
    3.4120   -0.5796    0.0000 C   0  0  0  0  0  0  0  0  0  0  0  0
    8.7977    2.5104    0.0000 C   0  0  0  0  0  0  0  0  0  0  0  0
   10.6726    1.4471    0.0000 C   0  0  0  0  0  0  0  0  0  0  0  0
    9.7288    3.0674    0.0000 C   0  0  0  0  0  0  0  0  0  0  0  0
   10.6726    2.5321    0.0000 C   0  0  0  0  0  0  0  0  0  0  0  0
    4.8466   -3.0712    0.0000 C   0  0  0  0  0  0  0  0  0  0  0  0
   10.5987    0.4186    0.0000 C   0  0  0  0  0  0  0  0  0  0  0  0
    3.8467   -3.0750    0.0000 C   0  0  0  0  0  0  0  0  0  0  0  0
   10.2188    3.9391    0.0000 C   0  0  0  0  0  0  0  0  0  0  0  0
    9.2188    3.9276    0.0000 C   0  0  0  0  0  0  0  0  0  0  0  0
    6.9329    0.3161    0.0000 H   0  0  0  0  0  0  0  0  0  0  0  0
    5.2820   -2.5074    0.0000 H   0  0  0  0  0  0  0  0  0  0  0  0
    7.2969   -2.2308    0.0000 H   0  0  0  0  0  0  0  0  0  0  0  0
    7.6880   -1.5349    0.0000 H   0  0  0  0  0  0  0  0  0  0  0  0
    5.7835   -2.6541    0.0000 H   0  0  0  0  0  0  0  0  0  0  0  0
    6.5818   -2.6511    0.0000 H   0  0  0  0  0  0  0  0  0  0  0  0
    9.5522    1.8620    0.0000 H   0  0  0  0  0  0  0  0  0  0  0  0
    5.9847    1.4737    0.0000 H   0  0  0  0  0  0  0  0  0  0  0  0
    5.5862    0.7834    0.0000 H   0  0  0  0  0  0  0  0  0  0  0  0
    8.4182   -1.1134    0.0000 H   0  0  0  0  0  0  0  0  0  0  0  0
    9.2164   -1.1226    0.0000 H   0  0  0  0  0  0  0  0  0  0  0  0
    4.7681    0.4150    0.0000 H   0  0  0  0  0  0  0  0  0  0  0  0
    3.9700    0.4304    0.0000 H   0  0  0  0  0  0  0  0  0  0  0  0
    9.9379   -0.7134    0.0000 H   0  0  0  0  0  0  0  0  0  0  0  0
   10.3397   -0.0236    0.0000 H   0  0  0  0  0  0  0  0  0  0  0  0
    7.2306   -1.7735    0.0000 H   0  0  0  0  0  0  0  0  0  0  0  0
    8.1041   -1.8499    0.0000 H   0  0  0  0  0  0  0  0  0  0  0  0
    8.1805   -0.9764    0.0000 H   0  0  0  0  0  0  0  0  0  0  0  0
    7.0628    2.0111    0.0000 H   0  0  0  0  0  0  0  0  0  0  0  0
    5.9145    0.3794    0.0000 H   0  0  0  0  0  0  0  0  0  0  0  0
    5.2993    1.0042    0.0000 H   0  0  0  0  0  0  0  0  0  0  0  0
    4.6745    0.3890    0.0000 H   0  0  0  0  0  0  0  0  0  0  0  0
    7.6884   -1.2607    0.0000 H   0  0  0  0  0  0  0  0  0  0  0  0
    8.4830   -1.6312    0.0000 H   0  0  0  0  0  0  0  0  0  0  0  0
    8.8535   -0.8365    0.0000 H   0  0  0  0  0  0  0  0  0  0  0  0
    3.4025   -2.2846    0.0000 H   0  0  0  0  0  0  0  0  0  0  0  0
    3.2075    0.0057    0.0000 H   0  0  0  0  0  0  0  0  0  0  0  0
    2.8004   -0.6810    0.0000 H   0  0  0  0  0  0  0  0  0  0  0  0
    8.5752    3.0892    0.0000 H   0  0  0  0  0  0  0  0  0  0  0  0
    8.1894    2.3903    0.0000 H   0  0  0  0  0  0  0  0  0  0  0  0
   10.8817    0.8634    0.0000 H   0  0  0  0  0  0  0  0  0  0  0  0
   11.2835    1.5532    0.0000 H   0  0  0  0  0  0  0  0  0  0  0  0
   11.2835    2.4260    0.0000 H   0  0  0  0  0  0  0  0  0  0  0  0
   10.8817    3.1158    0.0000 H   0  0  0  0  0  0  0  0  0  0  0  0
    4.3109   -3.3832    0.0000 H   0  0  0  0  0  0  0  0  0  0  0  0
    5.1587   -3.6069    0.0000 H   0  0  0  0  0  0  0  0  0  0  0  0
    5.3824   -2.7591    0.0000 H   0  0  0  0  0  0  0  0  0  0  0  0
    3.2267   -3.0774    0.0000 H   0  0  0  0  0  0  0  0  0  0  0  0
   10.7593    3.6354    0.0000 H   0  0  0  0  0  0  0  0  0  0  0  0
   10.5226    4.4796    0.0000 H   0  0  0  0  0  0  0  0  0  0  0  0
    9.6783    4.2429    0.0000 H   0  0  0  0  0  0  0  0  0  0  0  0
    9.7522    4.2438    0.0000 H   0  0  0  0  0  0  0  0  0  0  0  0
    8.9027    4.4609    0.0000 H   0  0  0  0  0  0  0  0  0  0  0  0
    8.6855    3.6114    0.0000 H   0  0  0  0  0  0  0  0  0  0  0  0
    2.0000   -1.8492    0.0000 H   0  0  0  0  0  0  0  0  0  0  0  0
   12.0001    0.6194    0.0000 H   0  0  0  0  0  0  0  0  0  0  0  0
 23  1  1  1  0  0  0
  1 79  1  0  0  0  0
  2 31  1  0  0  0  0
  2 80  1  0  0  0  0
  3 31  2  0  0  0  0
  4 32  2  0  0  0  0
  5  6  1  0  0  0  0
  5  8  1  0  0  0  0
  5 10  1  0  0  0  0
  5 20  1  1  0  0  0
  6  7  1  0  0  0  0
  6 14  1  0  0  0  0
  6 35  1  6  0  0  0
  7  9  1  0  0  0  0
  7 18  1  0  0  0  0
  7 22  1  1  0  0  0
  8 11  1  0  0  0  0
  8 15  1  0  0  0  0
  8 24  1  6  0  0  0
  9 12  1  0  0  0  0
  9 16  1  0  0  0  0
  9 36  1  6  0  0  0
 10 12  1  0  0  0  0
 10 37  1  0  0  0  0
 10 38  1  0  0  0  0
 11 13  1  0  0  0  0
 11 21  2  0  0  0  0
 12 39  1  0  0  0  0
 12 40  1  0  0  0  0
 13 17  1  0  0  0  0
 13 26  1  0  0  0  0
 13 41  1  1  0  0  0
 14 21  1  0  0  0  0
 14 42  1  0  0  0  0
 14 43  1  0  0  0  0
 15 19  1  0  0  0  0
 15 44  1  0  0  0  0
 15 45  1  0  0  0  0
 16 23  1  0  0  0  0
 16 30  1  1  0  0  0
 16 32  1  0  0  0  0
 17 19  1  0  0  0  0
 17 27  1  0  0  0  0
 17 31  1  1  0  0  0
 18 25  1  0  0  0  0
 18 46  1  0  0  0  0
 18 47  1  0  0  0  0
 19 48  1  0  0  0  0
 19 49  1  0  0  0  0
 20 50  1  0  0  0  0
 20 51  1  0  0  0  0
 20 52  1  0  0  0  0
 21 53  1  0  0  0  0
 22 54  1  0  0  0  0
 22 55  1  0  0  0  0
 22 56  1  0  0  0  0
 23 25  1  0  0  0  0
 23 60  1  0  0  0  0
 24 57  1  0  0  0  0
 24 58  1  0  0  0  0
 24 59  1  0  0  0  0
 25 61  1  0  0  0  0
 25 62  1  0  0  0  0
 26 28  1  0  0  0  0
 26 63  1  0  0  0  0
 26 64  1  0  0  0  0
 27 29  1  0  0  0  0
 27 65  1  0  0  0  0
 27 66  1  0  0  0  0
 28 29  1  0  0  0  0
 28 33  1  0  0  0  0
 28 34  1  0  0  0  0
 29 67  1  0  0  0  0
 29 68  1  0  0  0  0
 30 69  1  0  0  0  0
 30 70  1  0  0  0  0
 30 71  1  0  0  0  0
 32 72  1  0  0  0  0
 33 73  1  0  0  0  0
 33 74  1  0  0  0  0
 33 75  1  0  0  0  0
 34 76  1  0  0  0  0
 34 77  1  0  0  0  0
 34 78  1  0  0  0  0
M  END
> <PUBCHEM_COMPOUND_CID>
92825

> <PUBCHEM_COMPOUND_CANONICALIZED>
1

> <PUBCHEM_CACTVS_COMPLEXITY>
936

> <PUBCHEM_CACTVS_HBOND_ACCEPTOR>
4

> <PUBCHEM_CACTVS_HBOND_DONOR>
2

> <PUBCHEM_CACTVS_ROTATABLE_BOND>
2

> <PUBCHEM_CACTVS_SUBSKEYS>
AAADcfB4OAAAAAAAAAAAAAAAAAAAAAAAAAAwYMGCAAAAAADAAAAAGgAACAAADxSggAICCAAAAgCIAijSiAAAAAAgAAAACAEAAAgAEBYAAQAAQAAEoAAIAAOIyPCPgAAAAAAAAADAAAYAADAAAAAAAAAAAA==

> <PUBCHEM_IUPAC_OPENEYE_NAME>
(4aS,6aR,6aS,6bR,8aR,9S,10S,12aR,14bS)-9-formyl-10-hydroxy-2,2,6a,6b,9,12a-hexamethyl-1,3,4,5,6,6a,7,8,8a,10,11,12,13,14b-tetradecahydropicene-4a-carboxylic acid

> <PUBCHEM_IUPAC_CAS_NAME>
(4aS,6aR,6aS,6bR,8aR,9S,10S,12aR,14bS)-9-formyl-10-hydroxy-2,2,6a,6b,9,12a-hexamethyl-1,3,4,5,6,6a,7,8,8a,10,11,12,13,14b-tetradecahydropicene-4a-carboxylic acid

> <PUBCHEM_IUPAC_NAME>
(4aS,6aR,6aS,6bR,8aR,9S,10S,12aR,14bS)-9-formyl-10-hydroxy-2,2,6a,6b,9,12a-hexamethyl-1,3,4,5,6,6a,7,8,8a,10,11,12,13,14b-tetradecahydropicene-4a-carboxylic acid

> <PUBCHEM_IUPAC_SYSTEMATIC_NAME>
(4aS,6aR,6aS,6bR,8aR,9S,10S,12aR,14bS)-9-methanoyl-2,2,6a,6b,9,12a-hexamethyl-10-oxidanyl-1,3,4,5,6,6a,7,8,8a,10,11,12,13,14b-tetradecahydropicene-4a-carboxylic acid

> <PUBCHEM_IUPAC_TRADITIONAL_NAME>
(4aS,6aR,6aS,6bR,8aR,9S,10S,12aR,14bS)-9-formyl-10-hydroxy-2,2,6a,6b,9,12a-hexamethyl-1,3,4,5,6,6a,7,8,8a,10,11,12,13,14b-tetradecahydropicene-4a-carboxylic acid

> <PUBCHEM_IUPAC_INCHI>
InChI=1S/C30H46O4/c1-25(2)13-15-30(24(33)34)16-14-28(5)19(20(30)17-25)7-8-22-26(3)11-10-23(32)27(4,18-31)21(26)9-12-29(22,28)6/h7,18,20-23,32H,8-17H2,1-6H3,(H,33,34)/t20-,21+,22+,23-,26-,27-,28+,29+,30-/m0/s1

> <PUBCHEM_IUPAC_INCHIKEY>
QMHCWDVPABYZMC-MYPRUECHSA-N

> <PUBCHEM_XLOGP3_AA>
6.7

> <PUBCHEM_EXACT_MASS>
470.33961

> <PUBCHEM_MOLECULAR_FORMULA>
C30H46O4

> <PUBCHEM_MOLECULAR_WEIGHT>
470.68384

> <PUBCHEM_OPENEYE_CAN_SMILES>
CC1(CCC2(CCC3(C(=CCC4C3(CCC5C4(CCC(C5(C)C=O)O)C)C)C2C1)C)C(=O)O)C

> <PUBCHEM_OPENEYE_ISO_SMILES>
C[C@]12CC[C@@H]([C@@]([C@@H]1CC[C@@]3([C@@H]2CC=C4[C@]3(CC[C@@]5([C@H]4CC(CC5)(C)C)C(=O)O)C)C)(C)C=O)O

> <PUBCHEM_CACTVS_TPSA>
74.6

> <PUBCHEM_MONOISOTOPIC_WEIGHT>
470.33961

> <PUBCHEM_TOTAL_CHARGE>
0

> <PUBCHEM_HEAVY_ATOM_COUNT>
34

> <PUBCHEM_ATOM_DEF_STEREO_COUNT>
9

> <PUBCHEM_ATOM_UDEF_STEREO_COUNT>
0

> <PUBCHEM_BOND_DEF_STEREO_COUNT>
0

> <PUBCHEM_BOND_UDEF_STEREO_COUNT>
0

> <PUBCHEM_ISOTOPIC_ATOM_COUNT>
0

> <PUBCHEM_COMPONENT_COUNT>
1

> <PUBCHEM_CACTVS_TAUTO_COUNT>
1

> <PUBCHEM_COORDINATE_TYPE>
1
5
255

> <PUBCHEM_BONDANNOTATIONS>
23  1  5
13  41  5
16  30  5
17  31  5
5  20  5
6  35  6
7  22  5
8  24  6
9  36  6

$$$$

