   Color/Form

     * White solid
     * Colorless crystals

   from [1]HSDB

   Odor
        Odorless
   from [2]HSDB

   Boiling Point
        Decomposes above 200 deg C
   from [3]HSDB

   Melting Point
        230 deg C (dec)
   from [4]HSDB

   Density/Specific Gravity
        1.705 at 20 deg C
   from [5]HSDB

   Dissociation Constants
        pKa1 = 2.3 (20 deg C) (phosphate acid); pKa2 = 5.7 (20 deg C)
   (secondary amine); pKa3 =10.2 (25 deg C) (carboxylic acid)
   from [6]HSDB

   Octanol/Water Partition Coefficient
        log Kow = -3.40
   from [7]HSDB

   Solubilities

     * Insoluble in common organic solvents, e.g. acetone, ethanol and
       xylene.
     * In water, 10.5 g/L in water at pH 1.9 and 20 deg C.

   from [8]HSDB

   Vapor Pressure
        9.8X10-8 mm Hg at 25 deg C
   from [9]HSDB

   Other Chemical/Physical Properties

     * Pure glyphosate has a zwitterion structure.
     * The alkali metal and amine salts are readily soluble in water.
     * Henry's Law constant = 2.1X10-12 atm-cu m/mole at 25 deg C (est)
     * Hydroxyl radical reaction rate constant = 7.9X10-11 cu cm/molec-sec
       at 25 deg C (est)

   from [10]HSDB

   Computed Properties
   Molecular Weight                  169.073082 [g/mol]
   Molecular Formula                 C[3]H[8]NO[5]P
   XLogP3-AA                         -4.6
   H-Bond Donor                      4
   H-Bond Acceptor                   6
   Rotatable Bond Count              4
   Exact Mass                        169.014009
   MonoIsotopic Mass                 169.014009
   Topological Polar Surface Area    107
   Heavy Atom Count                  10
   Formal Charge                     0
   Complexity                        162
   Isotope Atom Count                0
   Defined Atom Stereocenter Count   0
   Undefined Atom Stereocenter Count 0
   Defined Bond Stereocenter Count   0
   Undefined Bond Stereocenter Count 0
   Covalently-Bonded Unit Count      1
   Feature 3D Acceptor Count         5
   Feature 3D Donor Count            1
   Feature 3D Anion Count            2
   Feature 3D Cation Count           1
   Effective Rotor Count             4
   Conformer Sampling RMSD           0.6
   CID Conformer Count               [11]7

References

   1. http://toxnet.nlm.nih.gov/cgi-bin/sis/search/r?dbs+hsdb:@term+@rn+@rel+1071-83-6
   2. http://toxnet.nlm.nih.gov/cgi-bin/sis/search/r?dbs+hsdb:@term+@rn+@rel+1071-83-6
   3. http://toxnet.nlm.nih.gov/cgi-bin/sis/search/r?dbs+hsdb:@term+@rn+@rel+1071-83-6
   4. http://toxnet.nlm.nih.gov/cgi-bin/sis/search/r?dbs+hsdb:@term+@rn+@rel+1071-83-6
   5. http://toxnet.nlm.nih.gov/cgi-bin/sis/search/r?dbs+hsdb:@term+@rn+@rel+1071-83-6
   6. http://toxnet.nlm.nih.gov/cgi-bin/sis/search/r?dbs+hsdb:@term+@rn+@rel+1071-83-6
   7. http://toxnet.nlm.nih.gov/cgi-bin/sis/search/r?dbs+hsdb:@term+@rn+@rel+1071-83-6
   8. http://toxnet.nlm.nih.gov/cgi-bin/sis/search/r?dbs+hsdb:@term+@rn+@rel+1071-83-6
   9. http://toxnet.nlm.nih.gov/cgi-bin/sis/search/r?dbs+hsdb:@term+@rn+@rel+1071-83-6
  10. http://toxnet.nlm.nih.gov/cgi-bin/sis/search/r?dbs+hsdb:@term+@rn+@rel+1071-83-6
  11. http://pubchem.ncbi.nlm.nih.gov/vw3d/vw3d.cgi?cid=3496
