47471
  -OEChem-07051212542D

 47 48  0     1  0  0  0  0  0999 V2000
    0.0000    2.6200    0.0000 Cl  0  0  0  0  0  0  0  0  0  0  0  0
    3.4641    2.6200    0.0000 Cl  0  0  0  0  0  0  0  0  0  0  0  0
    7.7942    2.1200    0.0000 Cl  0  0  0  0  0  0  0  0  0  0  0  0
    1.7320    3.6200    0.0000 S   0  0  0  0  0  0  0  0  0  0  0  0
    4.4947   10.5294    0.0000 O   0  0  0  0  0  0  0  0  0  0  0  0
    2.7626   10.5294    0.0000 O   0  5  0  0  0  0  0  0  0  0  0  0
    3.6286    9.0294    0.0000 O   0  0  0  0  0  0  0  0  0  0  0  0
    3.4641    5.6200    0.0000 N   0  0  0  0  0  0  0  0  0  0  0  0
    4.5468    6.8224    0.0000 N   0  0  0  0  0  0  0  0  0  0  0  0
    3.6286   10.0294    0.0000 N   0  3  0  0  0  0  0  0  0  0  0  0
    2.5981    4.1200    0.0000 C   0  0  3  0  0  0  0  0  0  0  0  0
    3.4641    3.6200    0.0000 C   0  0  0  0  0  0  0  0  0  0  0  0
    2.5981    5.1200    0.0000 C   0  0  0  0  0  0  0  0  0  0  0  0
    4.3301    4.1200    0.0000 C   0  0  0  0  0  0  0  0  0  0  0  0
    5.1962    3.6200    0.0000 C   0  0  0  0  0  0  0  0  0  0  0  0
    1.7320    2.6200    0.0000 C   0  0  0  0  0  0  0  0  0  0  0  0
    4.3776    5.2133    0.0000 C   0  0  0  0  0  0  0  0  0  0  0  0
    3.5686    6.6145    0.0000 C   0  0  0  0  0  0  0  0  0  0  0  0
    5.1962    2.6200    0.0000 C   0  0  0  0  0  0  0  0  0  0  0  0
    6.0622    4.1200    0.0000 C   0  0  0  0  0  0  0  0  0  0  0  0
    5.0468    5.9564    0.0000 C   0  0  0  0  0  0  0  0  0  0  0  0
    6.0622    2.1200    0.0000 C   0  0  0  0  0  0  0  0  0  0  0  0
    6.9282    3.6200    0.0000 C   0  0  0  0  0  0  0  0  0  0  0  0
    0.8660    2.1200    0.0000 C   0  0  0  0  0  0  0  0  0  0  0  0
    2.5981    2.1200    0.0000 C   0  0  0  0  0  0  0  0  0  0  0  0
    6.9282    2.6200    0.0000 C   0  0  0  0  0  0  0  0  0  0  0  0
    0.8660    1.1200    0.0000 C   0  0  0  0  0  0  0  0  0  0  0  0
    2.5981    1.1200    0.0000 C   0  0  0  0  0  0  0  0  0  0  0  0
    1.7320    0.6200    0.0000 C   0  0  0  0  0  0  0  0  0  0  0  0
    2.5981    3.5000    0.0000 H   0  0  0  0  0  0  0  0  0  0  0  0
    3.0656    3.1450    0.0000 H   0  0  0  0  0  0  0  0  0  0  0  0
    3.8626    3.1450    0.0000 H   0  0  0  0  0  0  0  0  0  0  0  0
    2.3860    5.7026    0.0000 H   0  0  0  0  0  0  0  0  0  0  0  0
    1.9875    5.0123    0.0000 H   0  0  0  0  0  0  0  0  0  0  0  0
    4.7287    4.5950    0.0000 H   0  0  0  0  0  0  0  0  0  0  0  0
    3.9316    4.5950    0.0000 H   0  0  0  0  0  0  0  0  0  0  0  0
    4.5066    4.6068    0.0000 H   0  0  0  0  0  0  0  0  0  0  0  0
    3.1079    7.0294    0.0000 H   0  0  0  0  0  0  0  0  0  0  0  0
    4.6592    2.3100    0.0000 H   0  0  0  0  0  0  0  0  0  0  0  0
    6.0622    4.7400    0.0000 H   0  0  0  0  0  0  0  0  0  0  0  0
    5.6634    5.8916    0.0000 H   0  0  0  0  0  0  0  0  0  0  0  0
    6.0622    1.5000    0.0000 H   0  0  0  0  0  0  0  0  0  0  0  0
    7.4651    3.9300    0.0000 H   0  0  0  0  0  0  0  0  0  0  0  0
    0.3291    0.8100    0.0000 H   0  0  0  0  0  0  0  0  0  0  0  0
    3.1350    0.8100    0.0000 H   0  0  0  0  0  0  0  0  0  0  0  0
    1.7320    0.0000    0.0000 H   0  0  0  0  0  0  0  0  0  0  0  0
    5.0316   10.2194    0.0000 H   0  0  0  0  0  0  0  0  0  0  0  0
  1 24  1  0  0  0  0
  2 25  1  0  0  0  0
  3 26  1  0  0  0  0
  4 11  1  0  0  0  0
  4 16  1  0  0  0  0
  5 10  1  0  0  0  0
  5 47  1  0  0  0  0
  6 10  1  0  0  0  0
  7 10  2  0  0  0  0
  8 13  1  0  0  0  0
  8 17  1  0  0  0  0
  8 18  1  0  0  0  0
  9 18  2  0  0  0  0
  9 21  1  0  0  0  0
 11 12  1  0  0  0  0
 11 13  1  0  0  0  0
 11 30  1  0  0  0  0
 12 14  1  0  0  0  0
 12 31  1  0  0  0  0
 12 32  1  0  0  0  0
 13 33  1  0  0  0  0
 13 34  1  0  0  0  0
 14 15  1  0  0  0  0
 14 35  1  0  0  0  0
 14 36  1  0  0  0  0
 15 19  2  0  0  0  0
 15 20  1  0  0  0  0
 16 24  2  0  0  0  0
 16 25  1  0  0  0  0
 17 21  2  0  0  0  0
 17 37  1  0  0  0  0
 18 38  1  0  0  0  0
 19 22  1  0  0  0  0
 19 39  1  0  0  0  0
 20 23  2  0  0  0  0
 20 40  1  0  0  0  0
 21 41  1  0  0  0  0
 22 26  2  0  0  0  0
 22 42  1  0  0  0  0
 23 26  1  0  0  0  0
 23 43  1  0  0  0  0
 24 27  1  0  0  0  0
 25 28  2  0  0  0  0
 27 29  2  0  0  0  0
 27 44  1  0  0  0  0
 28 29  1  0  0  0  0
 28 45  1  0  0  0  0
 29 46  1  0  0  0  0
M  CHG  2   6  -1  10   1
M  END
> <PUBCHEM_COMPOUND_CID>
47471

> <PUBCHEM_COMPOUND_CANONICALIZED>
1

> <PUBCHEM_CACTVS_COMPLEXITY>
408

> <PUBCHEM_CACTVS_HBOND_ACCEPTOR>
5

> <PUBCHEM_CACTVS_HBOND_DONOR>
1

> <PUBCHEM_CACTVS_ROTATABLE_BOND>
7

> <PUBCHEM_CACTVS_SUBSKEYS>
AAADceB7MABGAAAAAAAAAAAAAAAAAWAAAAAwYAAAAAAAAAAB0AAAHAYECAAADALFWiS9kZcMUAihAjBnZQACgC0xH7AJyBAYMoiIaCKhmxCUIAAogAKoiCcQgIAOBAAAAACAAIAIAAAAAQABAAAAAAAAAA==

> <PUBCHEM_IUPAC_OPENEYE_NAME>
1-[4-(4-chlorophenyl)-2-(2,6-dichlorophenyl)sulfanyl-butyl]imidazole; nitric acid

> <PUBCHEM_IUPAC_CAS_NAME>
1-[4-(4-chlorophenyl)-2-[(2,6-dichlorophenyl)thio]butyl]imidazole; nitric acid

> <PUBCHEM_IUPAC_NAME>
1-[4-(4-chlorophenyl)-2-(2,6-dichlorophenyl)sulfanylbutyl]imidazole; nitric acid

> <PUBCHEM_IUPAC_SYSTEMATIC_NAME>
1-[2-[2,6-bis(chloranyl)phenyl]sulfanyl-4-(4-chlorophenyl)butyl]imidazole; nitric acid

> <PUBCHEM_IUPAC_TRADITIONAL_NAME>
1-[4-(4-chlorophenyl)-2-[(2,6-dichlorophenyl)thio]butyl]imidazole; nitric acid

> <PUBCHEM_IUPAC_INCHI>
InChI=1S/C19H17Cl3N2S.HNO3/c20-15-7-4-14(5-8-15)6-9-16(12-24-11-10-23-13-24)25-19-17(21)2-1-3-18(19)22;2-1(3)4/h1-5,7-8,10-11,13,16H,6,9,12H2;(H,2,3,4)

> <PUBCHEM_IUPAC_INCHIKEY>
ZHPWRQIPPNZNML-UHFFFAOYSA-N

> <PUBCHEM_EXACT_MASS>
473.013445

> <PUBCHEM_MOLECULAR_FORMULA>
C19H18Cl3N3O3S

> <PUBCHEM_MOLECULAR_WEIGHT>
474.78852

> <PUBCHEM_OPENEYE_CAN_SMILES>
C1=CC(=C(C(=C1)Cl)SC(CCC2=CC=C(C=C2)Cl)CN3C=CN=C3)Cl.[N+](=O)(O)[O-]

> <PUBCHEM_OPENEYE_ISO_SMILES>
C1=CC(=C(C(=C1)Cl)SC(CCC2=CC=C(C=C2)Cl)CN3C=CN=C3)Cl.[N+](=O)(O)[O-]

> <PUBCHEM_CACTVS_TPSA>
109

> <PUBCHEM_MONOISOTOPIC_WEIGHT>
473.013445

> <PUBCHEM_TOTAL_CHARGE>
0

> <PUBCHEM_HEAVY_ATOM_COUNT>
29

> <PUBCHEM_ATOM_DEF_STEREO_COUNT>
0

> <PUBCHEM_ATOM_UDEF_STEREO_COUNT>
1

> <PUBCHEM_BOND_DEF_STEREO_COUNT>
0

> <PUBCHEM_BOND_UDEF_STEREO_COUNT>
0

> <PUBCHEM_ISOTOPIC_ATOM_COUNT>
0

> <PUBCHEM_COMPONENT_COUNT>
2

> <PUBCHEM_CACTVS_TAUTO_COUNT>
1

> <PUBCHEM_COORDINATE_TYPE>
1
5
255

> <PUBCHEM_BONDANNOTATIONS>
11  12  3
15  19  8
15  20  8
16  24  8
16  25  8
17  21  8
19  22  8
20  23  8
22  26  8
23  26  8
24  27  8
25  28  8
27  29  8
28  29  8
8  17  8
8  18  8
9  18  8
9  21  8

$$$$

