5281537
  -OEChem-07051212582D

 48 51  0     1  0  0  0  0  0999 V2000
    0.8089   -1.4888    0.0000 O   0  0  0  0  0  0  0  0  0  0  0  0
    5.6922   -0.3824    0.0000 O   0  0  0  0  0  0  0  0  0  0  0  0
    5.2917    1.5329    0.0000 O   0  0  0  0  0  0  0  0  0  0  0  0
    5.4879   -4.4306    0.0000 O   0  0  0  0  0  0  0  0  0  0  0  0
    4.8434    3.2059    0.0000 O   0  0  0  0  0  0  0  0  0  0  0  0
    3.3480   -0.5405    0.0000 C   0  0  1  0  0  0  0  0  0  0  0  0
    1.5160   -0.7817    0.0000 C   0  0  1  0  0  0  0  0  0  0  0  0
    4.8831   -1.7837    0.0000 C   0  0  2  0  0  0  0  0  0  0  0  0
    3.0892    0.4254    0.0000 C   0  0  1  0  0  0  0  0  0  0  0  0
    4.3258    1.2740    0.0000 C   0  0  1  0  0  0  0  0  0  0  0  0
    0.5501   -0.5229    0.0000 C   0  0  0  0  0  0  0  0  0  0  0  0
    3.4598    1.7740    0.0000 C   0  0  0  0  0  0  0  0  0  0  0  0
    5.7967   -1.3769    0.0000 C   0  0  1  0  0  0  0  0  0  0  0  0
    3.6068   -1.5064    0.0000 C   0  0  0  0  0  0  0  0  0  0  0  0
    4.7583   -2.8178    0.0000 C   0  0  0  0  0  0  0  0  0  0  0  0
    3.9696   -2.1904    0.0000 C   0  0  0  0  0  0  0  0  0  0  0  0
    6.6487   -1.9761    0.0000 C   0  0  0  0  0  0  0  0  0  0  0  0
    5.5963   -3.4365    0.0000 C   0  0  0  0  0  0  0  0  0  0  0  0
    6.5478   -3.0129    0.0000 C   0  0  0  0  0  0  0  0  0  0  0  0
    5.5505    2.4988    0.0000 C   0  0  0  0  0  0  0  0  0  0  0  0
    7.3591   -3.5975    0.0000 C   0  0  0  0  0  0  0  0  0  0  0  0
    6.5164    2.7576    0.0000 C   0  0  0  0  0  0  0  0  0  0  0  0
    6.7753    3.7235    0.0000 C   0  0  0  0  0  0  0  0  0  0  0  0
    6.0682    4.4306    0.0000 C   0  0  0  0  0  0  0  0  0  0  0  0
    2.8692    1.2464    0.0000 H   0  0  0  0  0  0  0  0  0  0  0  0
    4.4067    1.8887    0.0000 H   0  0  0  0  0  0  0  0  0  0  0  0
   -0.0675   -0.5769    0.0000 H   0  0  0  0  0  0  0  0  0  0  0  0
    0.6041    0.0948    0.0000 H   0  0  0  0  0  0  0  0  0  0  0  0
    2.8780    1.9886    0.0000 H   0  0  0  0  0  0  0  0  0  0  0  0
    3.7230    2.3354    0.0000 H   0  0  0  0  0  0  0  0  0  0  0  0
    6.5732   -1.0312    0.0000 H   0  0  0  0  0  0  0  0  0  0  0  0
    4.2057   -1.3460    0.0000 H   0  0  0  0  0  0  0  0  0  0  0  0
    3.7673   -2.1053    0.0000 H   0  0  0  0  0  0  0  0  0  0  0  0
    3.0079   -1.6669    0.0000 H   0  0  0  0  0  0  0  0  0  0  0  0
    4.4808   -3.3722    0.0000 H   0  0  0  0  0  0  0  0  0  0  0  0
    4.1646   -2.6392    0.0000 H   0  0  0  0  0  0  0  0  0  0  0  0
    4.2218   -2.7568    0.0000 H   0  0  0  0  0  0  0  0  0  0  0  0
    3.4032   -2.4426    0.0000 H   0  0  0  0  0  0  0  0  0  0  0  0
    3.7174   -1.6240    0.0000 H   0  0  0  0  0  0  0  0  0  0  0  0
    7.2122   -1.7174    0.0000 H   0  0  0  0  0  0  0  0  0  0  0  0
    7.7216   -3.0945    0.0000 H   0  0  0  0  0  0  0  0  0  0  0  0
    7.8621   -3.9600    0.0000 H   0  0  0  0  0  0  0  0  0  0  0  0
    6.9966   -4.1005    0.0000 H   0  0  0  0  0  0  0  0  0  0  0  0
    6.9548    2.3192    0.0000 H   0  0  0  0  0  0  0  0  0  0  0  0
    7.3741    3.8840    0.0000 H   0  0  0  0  0  0  0  0  0  0  0  0
    5.6297    3.9922    0.0000 H   0  0  0  0  0  0  0  0  0  0  0  0
    5.6297    4.8690    0.0000 H   0  0  0  0  0  0  0  0  0  0  0  0
    6.5066    4.8690    0.0000 H   0  0  0  0  0  0  0  0  0  0  0  0
  7  1  1  6  0  0  0
  1 11  1  0  0  0  0
  2  9  1  0  0  0  0
  2 13  1  0  0  0  0
 10  3  1  1  0  0  0
  3 20  1  0  0  0  0
  4 18  2  0  0  0  0
  5 20  2  0  0  0  0
  6  7  1  0  0  0  0
  6  8  1  0  0  0  0
  6 10  1  0  0  0  0
  6 14  1  1  0  0  0
  7  9  1  0  0  0  0
  7 11  1  0  0  0  0
  8 13  1  0  0  0  0
  8 15  1  0  0  0  0
  8 16  1  1  0  0  0
  9 12  1  0  0  0  0
  9 25  1  6  0  0  0
 10 12  1  0  0  0  0
 10 26  1  0  0  0  0
 11 27  1  0  0  0  0
 11 28  1  0  0  0  0
 12 29  1  0  0  0  0
 12 30  1  0  0  0  0
 13 17  1  0  0  0  0
 13 31  1  1  0  0  0
 14 32  1  0  0  0  0
 14 33  1  0  0  0  0
 14 34  1  0  0  0  0
 15 18  1  0  0  0  0
 15 35  1  0  0  0  0
 15 36  1  0  0  0  0
 16 37  1  0  0  0  0
 16 38  1  0  0  0  0
 16 39  1  0  0  0  0
 17 19  2  0  0  0  0
 17 40  1  0  0  0  0
 18 19  1  0  0  0  0
 19 21  1  0  0  0  0
 20 22  1  0  0  0  0
 21 41  1  0  0  0  0
 21 42  1  0  0  0  0
 21 43  1  0  0  0  0
 22 23  2  0  0  0  0
 22 44  1  0  0  0  0
 23 24  1  0  0  0  0
 23 45  1  0  0  0  0
 24 46  1  0  0  0  0
 24 47  1  0  0  0  0
 24 48  1  0  0  0  0
M  END
> <PUBCHEM_COMPOUND_CID>
5281537

> <PUBCHEM_COMPOUND_CANONICALIZED>
1

> <PUBCHEM_CACTVS_COMPLEXITY>
679

> <PUBCHEM_CACTVS_HBOND_ACCEPTOR>
5

> <PUBCHEM_CACTVS_HBOND_DONOR>
0

> <PUBCHEM_CACTVS_ROTATABLE_BOND>
3

> <PUBCHEM_CACTVS_SUBSKEYS>
AAADceB4OAAAAAAAAAAAAAAAEgAAAYAAAAAkQAAABIAAAACAAAAAGgAAAAAADlSggAICCAAABACIAqDSCAAAAAAgAAAICAEAAEgBBBIAIQACEAAFgAAKIYPK7PzPgAAAAAAAAAAAAAAAAAAAAIQADCAAAA==

> <PUBCHEM_IUPAC_INCHI>
InChI=1S/C19H24O5/c1-5-6-16(21)24-14-8-15-19(10-22-19)18(14,4)17(3)9-12(20)11(2)7-13(17)23-15/h5-7,13-15H,8-10H2,1-4H3/b6-5-/t13-,14-,15-,17+,18-,19-/m1/s1

> <PUBCHEM_IUPAC_INCHIKEY>
LJWZOKOFCBPNAG-SMRSBHFRSA-N

> <PUBCHEM_XLOGP3_AA>
1.9

> <PUBCHEM_EXACT_MASS>
332.162374

> <PUBCHEM_MOLECULAR_FORMULA>
C19H24O5

> <PUBCHEM_MOLECULAR_WEIGHT>
332.39086

> <PUBCHEM_OPENEYE_CAN_SMILES>
CC=CC(=O)OC1CC2C3(C1(C4(CC(=O)C(=CC4O2)C)C)C)CO3

> <PUBCHEM_OPENEYE_ISO_SMILES>
C/C=C\C(=O)O[C@@H]1C[C@@H]2[C@@]3([C@]1([C@]4(CC(=O)C(=C[C@H]4O2)C)C)C)CO3

> <PUBCHEM_CACTVS_TPSA>
65.1

> <PUBCHEM_MONOISOTOPIC_WEIGHT>
332.162374

> <PUBCHEM_TOTAL_CHARGE>
0

> <PUBCHEM_HEAVY_ATOM_COUNT>
24

> <PUBCHEM_ATOM_DEF_STEREO_COUNT>
6

> <PUBCHEM_ATOM_UDEF_STEREO_COUNT>
0

> <PUBCHEM_BOND_DEF_STEREO_COUNT>
1

> <PUBCHEM_BOND_UDEF_STEREO_COUNT>
0

> <PUBCHEM_ISOTOPIC_ATOM_COUNT>
0

> <PUBCHEM_COMPONENT_COUNT>
1

> <PUBCHEM_CACTVS_TAUTO_COUNT>
2

> <PUBCHEM_COORDINATE_TYPE>
1
5
255

> <PUBCHEM_BONDANNOTATIONS>
7  1  6
13  31  5
10  3  5
6  14  5
8  16  5
9  25  6

$$$$

