6444391
  -OEChem-07051213122D

 49 49  0     1  0  0  0  0  0999 V2000
    6.3301    5.9151    0.0000 Cl  0  0  0  0  0  0  0  0  0  0  0  0
    3.2320   -4.1830    0.0000 S   0  0  0  0  0  0  0  0  0  0  0  0
    5.4641    0.4151    0.0000 O   0  0  0  0  0  0  0  0  0  0  0  0
    2.0000    0.4151    0.0000 O   0  0  0  0  0  0  0  0  0  0  0  0
    4.5981    2.9151    0.0000 O   0  0  0  0  0  0  0  0  0  0  0  0
    4.5981    1.9151    0.0000 N   0  0  0  0  0  0  0  0  0  0  0  0
    3.7320   -1.5849    0.0000 C   0  0  0  0  0  0  0  0  0  0  0  0
    3.2320   -2.4510    0.0000 C   0  0  0  0  0  0  0  0  0  0  0  0
    4.5981   -1.0849    0.0000 C   0  0  0  0  0  0  0  0  0  0  0  0
    2.8660   -1.0849    0.0000 C   0  0  0  0  0  0  0  0  0  0  0  0
    3.7320   -3.3170    0.0000 C   0  0  3  0  0  0  0  0  0  0  0  0
    4.5981   -0.0849    0.0000 C   0  0  0  0  0  0  0  0  0  0  0  0
    2.8660   -0.0849    0.0000 C   0  0  0  0  0  0  0  0  0  0  0  0
    3.7320    0.4151    0.0000 C   0  0  0  0  0  0  0  0  0  0  0  0
    4.7320   -3.3170    0.0000 C   0  0  0  0  0  0  0  0  0  0  0  0
    3.7320    1.4151    0.0000 C   0  0  0  0  0  0  0  0  0  0  0  0
    2.8660    1.9151    0.0000 C   0  0  0  0  0  0  0  0  0  0  0  0
    3.7320   -5.0490    0.0000 C   0  0  0  0  0  0  0  0  0  0  0  0
    2.8660    2.9151    0.0000 C   0  0  0  0  0  0  0  0  0  0  0  0
    3.2320   -5.9151    0.0000 C   0  0  0  0  0  0  0  0  0  0  0  0
    5.4641    3.4151    0.0000 C   0  0  0  0  0  0  0  0  0  0  0  0
    5.4641    4.4151    0.0000 C   0  0  0  0  0  0  0  0  0  0  0  0
    6.3301    4.9151    0.0000 C   0  0  0  0  0  0  0  0  0  0  0  0
    4.0420   -2.1219    0.0000 H   0  0  0  0  0  0  0  0  0  0  0  0
    2.7571   -2.0524    0.0000 H   0  0  0  0  0  0  0  0  0  0  0  0
    2.7571   -2.8495    0.0000 H   0  0  0  0  0  0  0  0  0  0  0  0
    2.2554   -0.9773    0.0000 H   0  0  0  0  0  0  0  0  0  0  0  0
    2.6540   -1.6676    0.0000 H   0  0  0  0  0  0  0  0  0  0  0  0
    4.8101   -1.6676    0.0000 H   0  0  0  0  0  0  0  0  0  0  0  0
    5.2087   -0.9773    0.0000 H   0  0  0  0  0  0  0  0  0  0  0  0
    4.0420   -3.8539    0.0000 H   0  0  0  0  0  0  0  0  0  0  0  0
    4.7320   -3.9370    0.0000 H   0  0  0  0  0  0  0  0  0  0  0  0
    5.3520   -3.3170    0.0000 H   0  0  0  0  0  0  0  0  0  0  0  0
    4.7320   -2.6970    0.0000 H   0  0  0  0  0  0  0  0  0  0  0  0
    2.2554    2.0227    0.0000 H   0  0  0  0  0  0  0  0  0  0  0  0
    2.6540    1.3324    0.0000 H   0  0  0  0  0  0  0  0  0  0  0  0
    4.2070   -5.4476    0.0000 H   0  0  0  0  0  0  0  0  0  0  0  0
    4.2070   -4.6505    0.0000 H   0  0  0  0  0  0  0  0  0  0  0  0
    5.1350    1.6051    0.0000 H   0  0  0  0  0  0  0  0  0  0  0  0
    3.4860    2.9151    0.0000 H   0  0  0  0  0  0  0  0  0  0  0  0
    2.8660    3.5351    0.0000 H   0  0  0  0  0  0  0  0  0  0  0  0
    2.2460    2.9151    0.0000 H   0  0  0  0  0  0  0  0  0  0  0  0
    2.6951   -5.6051    0.0000 H   0  0  0  0  0  0  0  0  0  0  0  0
    2.9220   -6.4520    0.0000 H   0  0  0  0  0  0  0  0  0  0  0  0
    3.7690   -6.2251    0.0000 H   0  0  0  0  0  0  0  0  0  0  0  0
    5.6762    2.8324    0.0000 H   0  0  0  0  0  0  0  0  0  0  0  0
    6.0747    3.5227    0.0000 H   0  0  0  0  0  0  0  0  0  0  0  0
    4.9272    4.7251    0.0000 H   0  0  0  0  0  0  0  0  0  0  0  0
    6.8671    4.6051    0.0000 H   0  0  0  0  0  0  0  0  0  0  0  0
  1 23  1  0  0  0  0
  2 11  1  0  0  0  0
  2 18  1  0  0  0  0
  3 12  2  0  0  0  0
  4 13  2  0  0  0  0
  5  6  1  0  0  0  0
  5 21  1  0  0  0  0
  6 16  1  0  0  0  0
  6 39  1  0  0  0  0
  7  8  1  0  0  0  0
  7  9  1  0  0  0  0
  7 10  1  0  0  0  0
  7 24  1  0  0  0  0
  8 11  1  0  0  0  0
  8 25  1  0  0  0  0
  8 26  1  0  0  0  0
  9 12  1  0  0  0  0
  9 29  1  0  0  0  0
  9 30  1  0  0  0  0
 10 13  1  0  0  0  0
 10 27  1  0  0  0  0
 10 28  1  0  0  0  0
 11 15  1  0  0  0  0
 11 31  1  0  0  0  0
 12 14  1  0  0  0  0
 13 14  1  0  0  0  0
 14 16  2  0  0  0  0
 15 32  1  0  0  0  0
 15 33  1  0  0  0  0
 15 34  1  0  0  0  0
 16 17  1  0  0  0  0
 17 19  1  0  0  0  0
 17 35  1  0  0  0  0
 17 36  1  0  0  0  0
 18 20  1  0  0  0  0
 18 37  1  0  0  0  0
 18 38  1  0  0  0  0
 19 40  1  0  0  0  0
 19 41  1  0  0  0  0
 19 42  1  0  0  0  0
 20 43  1  0  0  0  0
 20 44  1  0  0  0  0
 20 45  1  0  0  0  0
 21 22  1  0  0  0  0
 21 46  1  0  0  0  0
 21 47  1  0  0  0  0
 22 23  2  0  0  0  0
 22 48  1  0  0  0  0
 23 49  1  0  0  0  0
M  END
> <PUBCHEM_COMPOUND_CID>
6444391

> <PUBCHEM_COMPOUND_CANONICALIZED>
1

> <PUBCHEM_CACTVS_COMPLEXITY>
457

> <PUBCHEM_CACTVS_HBOND_ACCEPTOR>
5

> <PUBCHEM_CACTVS_HBOND_DONOR>
1

> <PUBCHEM_CACTVS_ROTATABLE_BOND>
9

> <PUBCHEM_CACTVS_SUBSKEYS>
AAADceB6MABEAAAAAAAAAAAAAAAAAAAAAAAwAAAAAAAAAAAAAAAAHgYUAAAADQ+lwEKCAABQAAiIAqRSQAAAAAAgABAoCAEAAEgABBIoAQAAAAAAkAAoAUMIioCuAAAAAAAAAAAAAAAAAAAAAAAAAAAAAA==

> <PUBCHEM_IUPAC_OPENEYE_NAME>
2-[1-[[(E)-3-chloroallyloxy]amino]propylidene]-5-(2-ethylsulfanylpropyl)cyclohexane-1,3-dione

> <PUBCHEM_IUPAC_CAS_NAME>
2-[1-[[(E)-3-chloroprop-2-enoxy]amino]propylidene]-5-[2-(ethylthio)propyl]cyclohexane-1,3-dione

> <PUBCHEM_IUPAC_NAME>
2-[1-[[(E)-3-chloroprop-2-enoxy]amino]propylidene]-5-(2-ethylsulfanylpropyl)cyclohexane-1,3-dione

> <PUBCHEM_IUPAC_SYSTEMATIC_NAME>
2-[1-[[(E)-3-chloranylprop-2-enoxy]amino]propylidene]-5-(2-ethylsulfanylpropyl)cyclohexane-1,3-dione

> <PUBCHEM_IUPAC_TRADITIONAL_NAME>
2-[1-[[(E)-3-chloroallyloxy]amino]propylidene]-5-[2-(ethylthio)propyl]cyclohexane-1,3-quinone

> <PUBCHEM_IUPAC_INCHI>
InChI=1S/C17H26ClNO3S/c1-4-14(19-22-8-6-7-18)17-15(20)10-13(11-16(17)21)9-12(3)23-5-2/h6-7,12-13,19H,4-5,8-11H2,1-3H3/b7-6+,17-14?

> <PUBCHEM_IUPAC_INCHIKEY>
INNPZTGYZSAJFN-ZTVUPKSFSA-N

> <PUBCHEM_XLOGP3_AA>
4.3

> <PUBCHEM_EXACT_MASS>
359.132192

> <PUBCHEM_MOLECULAR_FORMULA>
C17H26ClNO3S

> <PUBCHEM_MOLECULAR_WEIGHT>
359.91124

> <PUBCHEM_OPENEYE_CAN_SMILES>
CCC(=C1C(=O)CC(CC1=O)CC(C)SCC)NOCC=CCl

> <PUBCHEM_OPENEYE_ISO_SMILES>
CCC(=C1C(=O)CC(CC1=O)CC(C)SCC)NOC/C=C/Cl

> <PUBCHEM_CACTVS_TPSA>
80.7

> <PUBCHEM_MONOISOTOPIC_WEIGHT>
359.132192

> <PUBCHEM_TOTAL_CHARGE>
0

> <PUBCHEM_HEAVY_ATOM_COUNT>
23

> <PUBCHEM_ATOM_DEF_STEREO_COUNT>
0

> <PUBCHEM_ATOM_UDEF_STEREO_COUNT>
1

> <PUBCHEM_BOND_DEF_STEREO_COUNT>
1

> <PUBCHEM_BOND_UDEF_STEREO_COUNT>
0

> <PUBCHEM_ISOTOPIC_ATOM_COUNT>
0

> <PUBCHEM_COMPONENT_COUNT>
1

> <PUBCHEM_CACTVS_TAUTO_COUNT>
13

> <PUBCHEM_COORDINATE_TYPE>
1
5
255

> <PUBCHEM_BONDANNOTATIONS>
11  15  3

$$$$

