23724706
  -OEChem-07051213082D

 93 98  0     1  0  0  0  0  0999 V2000
   10.3474   -1.2343    0.0000 O   0  0  0  0  0  0  0  0  0  0  0  0
    6.0010   -1.6796    0.0000 O   0  0  0  0  0  0  0  0  0  0  0  0
    8.6155   -1.2142    0.0000 O   0  0  0  0  0  0  0  0  0  0  0  0
    5.1350   -0.1796    0.0000 O   0  0  0  0  0  0  0  0  0  0  0  0
   12.0562   -3.2542    0.0000 O   0  0  0  0  0  0  0  0  0  0  0  0
   10.3127   -4.2341    0.0000 O   0  0  0  0  0  0  0  0  0  0  0  0
    8.5923   -3.2141    0.0000 O   0  0  0  0  0  0  0  0  0  0  0  0
    3.4030   -3.1796    0.0000 O   0  0  0  0  0  0  0  0  0  0  0  0
    5.1350   -4.1796    0.0000 O   0  0  0  0  0  0  0  0  0  0  0  0
    3.4030   -1.1796    0.0000 O   0  0  0  0  0  0  0  0  0  0  0  0
   12.9395   -1.7643    0.0000 O   0  0  0  0  0  0  0  0  0  0  0  0
    6.8671   -4.1796    0.0000 O   0  0  0  0  0  0  0  0  0  0  0  0
    6.8671    1.8204    0.0000 O   0  3  0  0  0  0  0  0  0  0  0  0
   10.3972    1.8445    0.0000 O   0  0  0  0  0  0  0  0  0  0  0  0
   13.8228   -0.2744    0.0000 O   0  0  0  0  0  0  0  0  0  0  0  0
    2.5369    1.3204    0.0000 O   0  0  0  0  0  0  0  0  0  0  0  0
    4.2690    4.3204    0.0000 O   0  0  0  0  0  0  0  0  0  0  0  0
    2.5369    3.3204    0.0000 O   0  0  0  0  0  0  0  0  0  0  0  0
   17.2405   -4.3142    0.0000 O   0  0  0  0  0  0  0  0  0  0  0  0
   18.9839   -3.3343    0.0000 O   0  0  0  0  0  0  0  0  0  0  0  0
   11.1960   -2.7442    0.0000 C   0  0  1  0  0  0  0  0  0  0  0  0
   10.3243   -3.2341    0.0000 C   0  0  1  0  0  0  0  0  0  0  0  0
   11.2076   -1.7442    0.0000 C   0  0  1  0  0  0  0  0  0  0  0  0
    9.4641   -2.7242    0.0000 C   0  0  2  0  0  0  0  0  0  0  0  0
    4.2690   -2.6796    0.0000 C   0  0  1  0  0  0  0  0  0  0  0  0
    5.1350   -3.1796    0.0000 C   0  0  1  0  0  0  0  0  0  0  0  0
    4.2690   -1.6796    0.0000 C   0  0  2  0  0  0  0  0  0  0  0  0
    6.0010   -2.6796    0.0000 C   0  0  1  0  0  0  0  0  0  0  0  0
    9.4756   -1.7242    0.0000 C   0  0  1  0  0  0  0  0  0  0  0  0
    5.1350   -1.1796    0.0000 C   0  0  1  0  0  0  0  0  0  0  0  0
   12.0793   -1.2543    0.0000 C   0  0  0  0  0  0  0  0  0  0  0  0
    6.8671   -3.1796    0.0000 C   0  0  0  0  0  0  0  0  0  0  0  0
    8.6270   -0.2143    0.0000 C   0  0  0  0  0  0  0  0  0  0  0  0
    6.0010    0.3204    0.0000 C   0  0  0  0  0  0  0  0  0  0  0  0
    7.7331    0.3204    0.0000 C   0  0  0  0  0  0  0  0  0  0  0  0
    6.8671   -0.1796    0.0000 C   0  0  0  0  0  0  0  0  0  0  0  0
    6.0010    1.3204    0.0000 C   0  0  0  0  0  0  0  0  0  0  0  0
    7.7331    1.3204    0.0000 C   0  0  0  0  0  0  0  0  0  0  0  0
    9.5331    0.2995    0.0000 C   0  0  0  0  0  0  0  0  0  0  0  0
    8.6270    1.8550    0.0000 C   0  0  0  0  0  0  0  0  0  0  0  0
    9.5331    1.3412    0.0000 C   0  0  0  0  0  0  0  0  0  0  0  0
    5.1350    1.8204    0.0000 C   0  0  0  0  0  0  0  0  0  0  0  0
   13.8113   -1.2743    0.0000 C   0  0  0  0  0  0  0  0  0  0  0  0
    5.1350    2.8204    0.0000 C   0  0  0  0  0  0  0  0  0  0  0  0
    4.2690    1.3204    0.0000 C   0  0  0  0  0  0  0  0  0  0  0  0
   14.6715   -1.7843    0.0000 C   0  0  0  0  0  0  0  0  0  0  0  0
    3.4030    1.8204    0.0000 C   0  0  0  0  0  0  0  0  0  0  0  0
    4.2690    3.3204    0.0000 C   0  0  0  0  0  0  0  0  0  0  0  0
    3.4030    2.8204    0.0000 C   0  0  0  0  0  0  0  0  0  0  0  0
   15.5432   -1.2943    0.0000 C   0  0  0  0  0  0  0  0  0  0  0  0
   16.4034   -1.8043    0.0000 C   0  0  0  0  0  0  0  0  0  0  0  0
   16.3918   -2.8043    0.0000 C   0  0  0  0  0  0  0  0  0  0  0  0
   17.2751   -1.3144    0.0000 C   0  0  0  0  0  0  0  0  0  0  0  0
   17.2520   -3.3142    0.0000 C   0  0  0  0  0  0  0  0  0  0  0  0
   18.1353   -1.8244    0.0000 C   0  0  0  0  0  0  0  0  0  0  0  0
   18.1238   -2.8243    0.0000 C   0  0  0  0  0  0  0  0  0  0  0  0
   11.1889   -3.3641    0.0000 H   0  0  0  0  0  0  0  0  0  0  0  0
   10.8576   -3.5503    0.0000 H   0  0  0  0  0  0  0  0  0  0  0  0
   11.2148   -1.1243    0.0000 H   0  0  0  0  0  0  0  0  0  0  0  0
    8.9308   -2.4080    0.0000 H   0  0  0  0  0  0  0  0  0  0  0  0
    4.2690   -3.2996    0.0000 H   0  0  0  0  0  0  0  0  0  0  0  0
    5.6720   -3.4896    0.0000 H   0  0  0  0  0  0  0  0  0  0  0  0
    4.2690   -1.0596    0.0000 H   0  0  0  0  0  0  0  0  0  0  0  0
    6.5380   -2.3696    0.0000 H   0  0  0  0  0  0  0  0  0  0  0  0
    8.9352   -2.0280    0.0000 H   0  0  0  0  0  0  0  0  0  0  0  0
    4.5981   -0.8696    0.0000 H   0  0  0  0  0  0  0  0  0  0  0  0
   12.4833   -0.7840    0.0000 H   0  0  0  0  0  0  0  0  0  0  0  0
   11.6863   -0.7748    0.0000 H   0  0  0  0  0  0  0  0  0  0  0  0
    7.4776   -3.2873    0.0000 H   0  0  0  0  0  0  0  0  0  0  0  0
    7.0791   -2.5970    0.0000 H   0  0  0  0  0  0  0  0  0  0  0  0
   12.0490   -3.8741    0.0000 H   0  0  0  0  0  0  0  0  0  0  0  0
   10.8460   -4.5502    0.0000 H   0  0  0  0  0  0  0  0  0  0  0  0
    8.5852   -3.8341    0.0000 H   0  0  0  0  0  0  0  0  0  0  0  0
    3.4030   -3.7996    0.0000 H   0  0  0  0  0  0  0  0  0  0  0  0
    4.5981   -4.4896    0.0000 H   0  0  0  0  0  0  0  0  0  0  0  0
    2.8660   -1.4896    0.0000 H   0  0  0  0  0  0  0  0  0  0  0  0
    6.8671   -0.7996    0.0000 H   0  0  0  0  0  0  0  0  0  0  0  0
   10.0688   -0.0125    0.0000 H   0  0  0  0  0  0  0  0  0  0  0  0
    7.4040   -4.4896    0.0000 H   0  0  0  0  0  0  0  0  0  0  0  0
    8.6199    2.4750    0.0000 H   0  0  0  0  0  0  0  0  0  0  0  0
    5.6720    3.1304    0.0000 H   0  0  0  0  0  0  0  0  0  0  0  0
    4.2690    0.7004    0.0000 H   0  0  0  0  0  0  0  0  0  0  0  0
   14.6643   -2.4043    0.0000 H   0  0  0  0  0  0  0  0  0  0  0  0
   10.3948    2.4645    0.0000 H   0  0  0  0  0  0  0  0  0  0  0  0
   15.5504   -0.6744    0.0000 H   0  0  0  0  0  0  0  0  0  0  0  0
    2.0000    1.6304    0.0000 H   0  0  0  0  0  0  0  0  0  0  0  0
    4.8059    4.6304    0.0000 H   0  0  0  0  0  0  0  0  0  0  0  0
    2.5369    3.9404    0.0000 H   0  0  0  0  0  0  0  0  0  0  0  0
   15.8513   -3.1080    0.0000 H   0  0  0  0  0  0  0  0  0  0  0  0
   17.2823   -0.6944    0.0000 H   0  0  0  0  0  0  0  0  0  0  0  0
   18.6758   -1.5206    0.0000 H   0  0  0  0  0  0  0  0  0  0  0  0
   17.7738   -4.6304    0.0000 H   0  0  0  0  0  0  0  0  0  0  0  0
   19.5244   -3.0305    0.0000 H   0  0  0  0  0  0  0  0  0  0  0  0
  1 23  1  0  0  0  0
  1 29  1  0  0  0  0
  2 28  1  0  0  0  0
  2 30  1  0  0  0  0
 29  3  1  6  0  0  0
  3 33  1  0  0  0  0
 30  4  1  6  0  0  0
  4 34  1  0  0  0  0
 21  5  1  1  0  0  0
  5 71  1  0  0  0  0
 22  6  1  6  0  0  0
  6 72  1  0  0  0  0
 24  7  1  1  0  0  0
  7 73  1  0  0  0  0
 25  8  1  6  0  0  0
  8 74  1  0  0  0  0
 26  9  1  1  0  0  0
  9 75  1  0  0  0  0
 27 10  1  1  0  0  0
 10 76  1  0  0  0  0
 11 31  1  0  0  0  0
 11 43  1  0  0  0  0
 12 32  1  0  0  0  0
 12 79  1  0  0  0  0
 13 37  1  0  0  0  0
 13 38  2  0  0  0  0
 14 41  1  0  0  0  0
 14 84  1  0  0  0  0
 15 43  2  0  0  0  0
 16 47  1  0  0  0  0
 16 86  1  0  0  0  0
 17 48  1  0  0  0  0
 17 87  1  0  0  0  0
 18 49  1  0  0  0  0
 18 88  1  0  0  0  0
 19 54  1  0  0  0  0
 19 92  1  0  0  0  0
 20 56  1  0  0  0  0
 20 93  1  0  0  0  0
 21 22  1  0  0  0  0
 21 23  1  0  0  0  0
 21 57  1  0  0  0  0
 22 24  1  0  0  0  0
 22 58  1  0  0  0  0
 23 31  1  6  0  0  0
 23 59  1  0  0  0  0
 24 29  1  0  0  0  0
 24 60  1  0  0  0  0
 25 26  1  0  0  0  0
 25 27  1  0  0  0  0
 25 61  1  0  0  0  0
 26 28  1  0  0  0  0
 26 62  1  0  0  0  0
 27 30  1  0  0  0  0
 27 63  1  0  0  0  0
 28 32  1  6  0  0  0
 28 64  1  0  0  0  0
 29 65  1  0  0  0  0
 30 66  1  0  0  0  0
 31 67  1  0  0  0  0
 31 68  1  0  0  0  0
 32 69  1  0  0  0  0
 32 70  1  0  0  0  0
 33 35  1  0  0  0  0
 33 39  2  0  0  0  0
 34 36  1  0  0  0  0
 34 37  2  0  0  0  0
 35 36  2  0  0  0  0
 35 38  1  0  0  0  0
 36 77  1  0  0  0  0
 37 42  1  0  0  0  0
 38 40  1  0  0  0  0
 39 41  1  0  0  0  0
 39 78  1  0  0  0  0
 40 41  2  0  0  0  0
 40 80  1  0  0  0  0
 42 44  2  0  0  0  0
 42 45  1  0  0  0  0
 43 46  1  0  0  0  0
 44 48  1  0  0  0  0
 44 81  1  0  0  0  0
 45 47  2  0  0  0  0
 45 82  1  0  0  0  0
 46 50  2  0  0  0  0
 46 83  1  0  0  0  0
 47 49  1  0  0  0  0
 48 49  2  0  0  0  0
 50 51  1  0  0  0  0
 50 85  1  0  0  0  0
 51 52  2  0  0  0  0
 51 53  1  0  0  0  0
 52 54  1  0  0  0  0
 52 89  1  0  0  0  0
 53 55  2  0  0  0  0
 53 90  1  0  0  0  0
 54 56  2  0  0  0  0
 55 56  1  0  0  0  0
 55 91  1  0  0  0  0
M  CHG  1  13   1
M  END
> <PUBCHEM_COMPOUND_CID>
23724706

> <PUBCHEM_COMPOUND_CANONICALIZED>
1

> <PUBCHEM_CACTVS_COMPLEXITY>
1300

> <PUBCHEM_CACTVS_HBOND_ACCEPTOR>
19

> <PUBCHEM_CACTVS_HBOND_DONOR>
13

> <PUBCHEM_CACTVS_ROTATABLE_BOND>
11

> <PUBCHEM_CACTVS_SUBSKEYS>
AAADcfB8PgAAAAAAAAAAAAAAAAAAAAAAAAA0aNECAAAAAACR9AAAGgAACAAADBSwmAMwDsAABkCIAqDSCAICCAAkIAAIiAFGiMgdNzaGNR6ieWOl4BUPuYfK7PzOIAABCAAIQABAAAIQABCAAAAAAAAAAA==

> <PUBCHEM_IUPAC_OPENEYE_NAME>
[(2R,3S,4S,5R,6S)-3,4,5-trihydroxy-6-[7-hydroxy-3-[(2S,3R,4S,5S,6R)-3,4,5-trihydroxy-6-(hydroxymethyl)tetrahydropyran-2-yl]oxy-2-(3,4,5-trihydroxyphenyl)chromenylium-5-yl]oxy-tetrahydropyran-2-yl]methyl (E)-3-(3,4-dihydroxyphenyl)prop-2-enoate

> <PUBCHEM_IUPAC_CAS_NAME>
(E)-3-(3,4-dihydroxyphenyl)-2-propenoic acid [(2R,3S,4S,5R,6S)-3,4,5-trihydroxy-6-[[7-hydroxy-3-[[(2S,3R,4S,5S,6R)-3,4,5-trihydroxy-6-(hydroxymethyl)-2-oxanyl]oxy]-2-(3,4,5-trihydroxyphenyl)-1-benzopyrylium-5-yl]oxy]-2-oxanyl]methyl ester

> <PUBCHEM_IUPAC_NAME>
[(2R,3S,4S,5R,6S)-3,4,5-trihydroxy-6-[7-hydroxy-3-[(2S,3R,4S,5S,6R)-3,4,5-trihydroxy-6-(hydroxymethyl)oxan-2-yl]oxy-2-(3,4,5-trihydroxyphenyl)chromenylium-5-yl]oxyoxan-2-yl]methyl (E)-3-(3,4-dihydroxyphenyl)prop-2-enoate

> <PUBCHEM_IUPAC_SYSTEMATIC_NAME>
[(2R,3S,4S,5R,6S)-6-[3-[(2S,3R,4S,5S,6R)-6-(hydroxymethyl)-3,4,5-tris(oxidanyl)oxan-2-yl]oxy-7-oxidanyl-2-[3,4,5-tris(oxidanyl)phenyl]chromenylium-5-yl]oxy-3,4,5-tris(oxidanyl)oxan-2-yl]methyl (E)-3-[3,4-bis(oxidanyl)phenyl]prop-2-enoate

> <PUBCHEM_IUPAC_TRADITIONAL_NAME>
(E)-3-(3,4-dihydroxyphenyl)acrylic acid [(2R,3S,4S,5R,6S)-3,4,5-trihydroxy-6-[[7-hydroxy-3-[(2S,3R,4S,5S,6R)-3,4,5-trihydroxy-6-methylol-tetrahydropyran-2-yl]oxy-2-(3,4,5-trihydroxyphenyl)-1-benzopyrylium-5-yl]oxy]tetrahydropyran-2-yl]methyl ester

> <PUBCHEM_IUPAC_INCHI>
InChI=1S/C36H36O20/c37-11-24-28(45)30(47)32(49)36(55-24)54-23-10-16-21(52-34(23)14-6-19(41)27(44)20(42)7-14)8-15(38)9-22(16)53-35-33(50)31(48)29(46)25(56-35)12-51-26(43)4-2-13-1-3-17(39)18(40)5-13/h1-10,24-25,28-33,35-37,45-50H,11-12H2,(H5-,38,39,40,41,42,43,44)/p+1/t24-,25-,28-,29-,30+,31+,32-,33-,35-,36-/m1/s1

> <PUBCHEM_IUPAC_INCHIKEY>
IKPXCKVGTSPZDV-QHVGLBQHSA-O

> <PUBCHEM_EXACT_MASS>
789.187819

> <PUBCHEM_MOLECULAR_FORMULA>
C36H37O20+

> <PUBCHEM_MOLECULAR_WEIGHT>
789.66698

> <PUBCHEM_OPENEYE_CAN_SMILES>
C1=CC(=C(C=C1C=CC(=O)OCC2C(C(C(C(O2)OC3=CC(=CC4=[O+]C(=C(C=C34)OC5C(C(C(C(O5)CO)O)O)O)C6=CC(=C(C(=C6)O)O)O)O)O)O)O)O)O

> <PUBCHEM_OPENEYE_ISO_SMILES>
C1=CC(=C(C=C1/C=C/C(=O)OC[C@@H]2[C@H]([C@@H]([C@H]([C@@H](O2)OC3=CC(=CC4=[O+]C(=C(C=C34)O[C@H]5[C@@H]([C@H]([C@@H]([C@H](O5)CO)O)O)O)C6=CC(=C(C(=C6)O)O)O)O)O)O)O)O)O

> <PUBCHEM_CACTVS_TPSA>
327

> <PUBCHEM_MONOISOTOPIC_WEIGHT>
789.187819

> <PUBCHEM_TOTAL_CHARGE>
1

> <PUBCHEM_HEAVY_ATOM_COUNT>
56

> <PUBCHEM_ATOM_DEF_STEREO_COUNT>
10

> <PUBCHEM_ATOM_UDEF_STEREO_COUNT>
0

> <PUBCHEM_BOND_DEF_STEREO_COUNT>
1

> <PUBCHEM_BOND_UDEF_STEREO_COUNT>
0

> <PUBCHEM_ISOTOPIC_ATOM_COUNT>
0

> <PUBCHEM_COMPONENT_COUNT>
1

> <PUBCHEM_CACTVS_TAUTO_COUNT>
996

> <PUBCHEM_COORDINATE_TYPE>
1
5
255

> <PUBCHEM_BONDANNOTATIONS>
27  10  5
13  37  8
13  38  8
23  31  6
28  32  6
29  3  6
33  35  8
33  39  8
34  36  8
34  37  8
35  36  8
35  38  8
38  40  8
39  41  8
30  4  6
40  41  8
42  44  8
42  45  8
44  48  8
45  47  8
47  49  8
48  49  8
21  5  5
51  52  8
51  53  8
52  54  8
53  55  8
54  56  8
55  56  8
22  6  6
24  7  5
25  8  6
26  9  5

$$$$

