439468
  -OEChem-07051213082D

 49 49  0     1  0  0  0  0  0999 V2000
    6.8671    2.3450    0.0000 P   0  0  0  0  0  0  0  0  0  0  0  0
    8.5991    0.3450    0.0000 P   0  0  0  0  0  0  0  0  0  0  0  0
    3.4030    0.3450    0.0000 P   0  0  0  0  0  0  0  0  0  0  0  0
    3.7691   -2.0211    0.0000 P   0  0  0  0  0  0  0  0  0  0  0  0
    7.7331   -2.1550    0.0000 P   0  0  0  0  0  0  0  0  0  0  0  0
    6.0010    1.8450    0.0000 O   0  0  0  0  0  0  0  0  0  0  0  0
    4.2690    0.8450    0.0000 O   0  0  0  0  0  0  0  0  0  0  0  0
    7.7331    0.8450    0.0000 O   0  0  0  0  0  0  0  0  0  0  0  0
    4.2690   -1.1550    0.0000 O   0  0  0  0  0  0  0  0  0  0  0  0
    7.7331   -1.1550    0.0000 O   0  0  0  0  0  0  0  0  0  0  0  0
    6.0010   -2.1550    0.0000 O   0  0  0  0  0  0  0  0  0  0  0  0
    7.7331    2.8450    0.0000 O   0  0  0  0  0  0  0  0  0  0  0  0
    6.3671    3.2110    0.0000 O   0  0  0  0  0  0  0  0  0  0  0  0
    9.4651   -0.1550    0.0000 O   0  0  0  0  0  0  0  0  0  0  0  0
    9.0991    1.2110    0.0000 O   0  0  0  0  0  0  0  0  0  0  0  0
    2.5369   -0.1550    0.0000 O   0  0  0  0  0  0  0  0  0  0  0  0
    2.9030    1.2110    0.0000 O   0  0  0  0  0  0  0  0  0  0  0  0
    3.2691   -2.8871    0.0000 O   0  0  0  0  0  0  0  0  0  0  0  0
    2.9030   -1.5210    0.0000 O   0  0  0  0  0  0  0  0  0  0  0  0
    7.7331   -3.1550    0.0000 O   0  0  0  0  0  0  0  0  0  0  0  0
    8.7331   -2.1550    0.0000 O   0  0  0  0  0  0  0  0  0  0  0  0
    7.3671    1.4790    0.0000 O   0  0  0  0  0  0  0  0  0  0  0  0
    3.9030   -0.5210    0.0000 O   0  0  0  0  0  0  0  0  0  0  0  0
    8.0991   -0.5210    0.0000 O   0  0  0  0  0  0  0  0  0  0  0  0
    6.7331   -2.1550    0.0000 O   0  0  0  0  0  0  0  0  0  0  0  0
    4.6350   -2.5210    0.0000 O   0  0  0  0  0  0  0  0  0  0  0  0
    6.0010    0.8450    0.0000 C   0  0  0  0  0  0  0  0  0  0  0  0
    5.1350    0.3450    0.0000 C   0  0  2  0  0  0  0  0  0  0  0  0
    6.8671    0.3450    0.0000 C   0  0  1  0  0  0  0  0  0  0  0  0
    5.1350   -0.6550    0.0000 C   0  0  1  0  0  0  0  0  0  0  0  0
    6.8671   -0.6550    0.0000 C   0  0  2  0  0  0  0  0  0  0  0  0
    6.0010   -1.1550    0.0000 C   0  0  0  0  0  0  0  0  0  0  0  0
    6.5380    1.1550    0.0000 H   0  0  0  0  0  0  0  0  0  0  0  0
    5.1350    0.9650    0.0000 H   0  0  0  0  0  0  0  0  0  0  0  0
    7.4040    0.0350    0.0000 H   0  0  0  0  0  0  0  0  0  0  0  0
    5.1350   -1.2750    0.0000 H   0  0  0  0  0  0  0  0  0  0  0  0
    7.4040   -0.3450    0.0000 H   0  0  0  0  0  0  0  0  0  0  0  0
    6.5380   -1.4650    0.0000 H   0  0  0  0  0  0  0  0  0  0  0  0
    5.6910   -2.6919    0.0000 H   0  0  0  0  0  0  0  0  0  0  0  0
    7.7331    3.4650    0.0000 H   0  0  0  0  0  0  0  0  0  0  0  0
    5.7471    3.2110    0.0000 H   0  0  0  0  0  0  0  0  0  0  0  0
   10.0021    0.1550    0.0000 H   0  0  0  0  0  0  0  0  0  0  0  0
    9.7191    1.2110    0.0000 H   0  0  0  0  0  0  0  0  0  0  0  0
    2.0000    0.1550    0.0000 H   0  0  0  0  0  0  0  0  0  0  0  0
    2.2830    1.2110    0.0000 H   0  0  0  0  0  0  0  0  0  0  0  0
    2.6490   -2.8871    0.0000 H   0  0  0  0  0  0  0  0  0  0  0  0
    2.3660   -1.8310    0.0000 H   0  0  0  0  0  0  0  0  0  0  0  0
    8.2700   -3.4650    0.0000 H   0  0  0  0  0  0  0  0  0  0  0  0
    9.0431   -2.6919    0.0000 H   0  0  0  0  0  0  0  0  0  0  0  0
  1  6  1  0  0  0  0
  1 12  1  0  0  0  0
  1 13  1  0  0  0  0
  1 22  2  0  0  0  0
  2  8  1  0  0  0  0
  2 14  1  0  0  0  0
  2 15  1  0  0  0  0
  2 24  2  0  0  0  0
  3  7  1  0  0  0  0
  3 16  1  0  0  0  0
  3 17  1  0  0  0  0
  3 23  2  0  0  0  0
  4  9  1  0  0  0  0
  4 18  1  0  0  0  0
  4 19  1  0  0  0  0
  4 26  2  0  0  0  0
  5 10  1  0  0  0  0
  5 20  1  0  0  0  0
  5 21  1  0  0  0  0
  5 25  2  0  0  0  0
  6 27  1  0  0  0  0
 28  7  1  6  0  0  0
 29  8  1  6  0  0  0
 30  9  1  1  0  0  0
 31 10  1  1  0  0  0
 11 32  1  0  0  0  0
 11 39  1  0  0  0  0
 12 40  1  0  0  0  0
 13 41  1  0  0  0  0
 14 42  1  0  0  0  0
 15 43  1  0  0  0  0
 16 44  1  0  0  0  0
 17 45  1  0  0  0  0
 18 46  1  0  0  0  0
 19 47  1  0  0  0  0
 20 48  1  0  0  0  0
 21 49  1  0  0  0  0
 27 28  1  0  0  0  0
 27 29  1  0  0  0  0
 27 33  1  0  0  0  0
 28 30  1  0  0  0  0
 28 34  1  0  0  0  0
 29 31  1  0  0  0  0
 29 35  1  0  0  0  0
 30 32  1  0  0  0  0
 30 36  1  0  0  0  0
 31 32  1  0  0  0  0
 31 37  1  0  0  0  0
 32 38  1  0  0  0  0
M  END
> <PUBCHEM_COMPOUND_CID>
439468

> <PUBCHEM_COMPOUND_CANONICALIZED>
1

> <PUBCHEM_CACTVS_COMPLEXITY>
824

> <PUBCHEM_CACTVS_HBOND_ACCEPTOR>
21

> <PUBCHEM_CACTVS_HBOND_DONOR>
11

> <PUBCHEM_CACTVS_ROTATABLE_BOND>
10

> <PUBCHEM_CACTVS_SUBSKEYS>
AAADceBgPgOAAAAAAAAAAAAAAAAAAAAAAAAwAAAAAAAAAAAAAAAAGgAACCAACBSggAIAAAAAAxAAQAAAAIAAAAAAAAAAAAAAAAABEAIAAAAAQAAFAAABAAHAYAQAAAAAAAAAAAACAAAQAACAAAAAAAAAAA==

> <PUBCHEM_IUPAC_OPENEYE_NAME>
[(1S,2R,4S,5R)-3-hydroxy-2,4,5,6-tetraphosphonooxy-cyclohexyl] dihydrogen phosphate

> <PUBCHEM_IUPAC_CAS_NAME>
[(1S,2R,4S,5R)-3-hydroxy-2,4,5,6-tetraphosphonooxycyclohexyl] dihydrogen phosphate

> <PUBCHEM_IUPAC_NAME>
[(1S,2R,4S,5R)-3-hydroxy-2,4,5,6-tetraphosphonooxycyclohexyl] dihydrogen phosphate

> <PUBCHEM_IUPAC_SYSTEMATIC_NAME>
[(1S,2R,4S,5R)-3-oxidanyl-2,4,5,6-tetraphosphonooxy-cyclohexyl] dihydrogen phosphate

> <PUBCHEM_IUPAC_TRADITIONAL_NAME>
[(1S,2R,4S,5R)-3-hydroxy-2,4,5,6-tetraphosphonooxy-cyclohexyl] dihydrogen phosphate

> <PUBCHEM_IUPAC_INCHI>
InChI=1S/C6H17O21P5/c7-1-2(23-28(8,9)10)4(25-30(14,15)16)6(27-32(20,21)22)5(26-31(17,18)19)3(1)24-29(11,12)13/h1-7H,(H2,8,9,10)(H2,11,12,13)(H2,14,15,16)(H2,17,18,19)(H2,20,21,22)/t1?,2-,3+,4+,5-,6?

> <PUBCHEM_IUPAC_INCHIKEY>
CTPQAXVNYGZUAJ-UYSNGIAKSA-N

> <PUBCHEM_XLOGP3_AA>
-9.2

> <PUBCHEM_EXACT_MASS>
579.895041

> <PUBCHEM_MOLECULAR_FORMULA>
C6H17O21P5

> <PUBCHEM_MOLECULAR_WEIGHT>
580.05539

> <PUBCHEM_OPENEYE_CAN_SMILES>
C1(C(C(C(C(C1OP(=O)(O)O)OP(=O)(O)O)OP(=O)(O)O)OP(=O)(O)O)OP(=O)(O)O)O

> <PUBCHEM_OPENEYE_ISO_SMILES>
[C@H]1([C@H](C([C@H]([C@@H](C1O)OP(=O)(O)O)OP(=O)(O)O)OP(=O)(O)O)OP(=O)(O)O)OP(=O)(O)O

> <PUBCHEM_CACTVS_TPSA>
354

> <PUBCHEM_MONOISOTOPIC_WEIGHT>
579.895041

> <PUBCHEM_TOTAL_CHARGE>
0

> <PUBCHEM_HEAVY_ATOM_COUNT>
32

> <PUBCHEM_ATOM_DEF_STEREO_COUNT>
4

> <PUBCHEM_ATOM_UDEF_STEREO_COUNT>
0

> <PUBCHEM_BOND_DEF_STEREO_COUNT>
0

> <PUBCHEM_BOND_UDEF_STEREO_COUNT>
0

> <PUBCHEM_ISOTOPIC_ATOM_COUNT>
0

> <PUBCHEM_COMPONENT_COUNT>
1

> <PUBCHEM_CACTVS_TAUTO_COUNT>
1

> <PUBCHEM_COORDINATE_TYPE>
1
5
255

> <PUBCHEM_BONDANNOTATIONS>
31  10  5
28  7  6
29  8  6
30  9  5

$$$$

