46173993
  -OEChem-07051213102D

 81 85  0     1  0  0  0  0  0999 V2000
    2.5357   -3.2936    0.0000 O   0  0  0  0  0  0  0  0  0  0  0  0
    5.3307    0.2587    0.0000 O   0  0  0  0  0  0  0  0  0  0  0  0
   11.5367    1.9031    0.0000 O   0  0  0  0  0  0  0  0  0  0  0  0
    9.7088    3.6669    0.0000 O   0  0  0  0  0  0  0  0  0  0  0  0
   11.2187    2.8183    0.0000 O   0  0  0  0  0  0  0  0  0  0  0  0
    7.0628   -1.7413    0.0000 C   0  0  1  0  0  0  0  0  0  0  0  0
    5.2868   -1.7481    0.0000 C   0  0  2  0  0  0  0  0  0  0  0  0
    7.9288   -1.2413    0.0000 C   0  0  1  0  0  0  0  0  0  0  0  0
    6.1968   -1.2413    0.0000 C   0  0  1  0  0  0  0  0  0  0  0  0
    5.2787   -2.7897    0.0000 C   0  0  1  0  0  0  0  0  0  0  0  0
    7.0789   -2.7828    0.0000 C   0  0  0  0  0  0  0  0  0  0  0  0
    7.9288   -0.2413    0.0000 C   0  0  0  0  0  0  0  0  0  0  0  0
    6.1808   -3.3106    0.0000 C   0  0  0  0  0  0  0  0  0  0  0  0
    8.8228    0.2934    0.0000 C   0  0  1  0  0  0  0  0  0  0  0  0
    4.3433   -3.3395    0.0000 C   0  0  0  0  0  0  0  0  0  0  0  0
    9.7288   -0.2205    0.0000 C   0  0  1  0  0  0  0  0  0  0  0  0
    8.8228   -1.7760    0.0000 C   0  0  0  0  0  0  0  0  0  0  0  0
    4.3599   -1.1841    0.0000 C   0  0  0  0  0  0  0  0  0  0  0  0
    9.7288   -1.2621    0.0000 C   0  0  0  0  0  0  0  0  0  0  0  0
    6.1968   -0.2413    0.0000 C   0  0  0  0  0  0  0  0  0  0  0  0
    7.7056   -2.5073    0.0000 C   0  0  0  0  0  0  0  0  0  0  0  0
    3.4037   -2.7970    0.0000 C   0  0  2  0  0  0  0  0  0  0  0  0
    5.2945   -0.7482    0.0000 C   0  0  0  0  0  0  0  0  0  0  0  0
    3.4120   -1.7120    0.0000 C   0  0  0  0  0  0  0  0  0  0  0  0
    8.2709   -2.1810    0.0000 C   0  0  0  0  0  0  0  0  0  0  0  0
    8.7977    1.3781    0.0000 C   0  0  0  0  0  0  0  0  0  0  0  0
    7.0628    0.2587    0.0000 C   0  0  0  0  0  0  0  0  0  0  0  0
   10.6726    0.3148    0.0000 C   0  0  0  0  0  0  0  0  0  0  0  0
    9.7288    1.9350    0.0000 C   0  0  2  0  0  0  0  0  0  0  0  0
   10.6726    1.3998    0.0000 C   0  0  2  0  0  0  0  0  0  0  0  0
    3.8467   -4.2074    0.0000 C   0  0  0  0  0  0  0  0  0  0  0  0
    4.8466   -4.2036    0.0000 C   0  0  0  0  0  0  0  0  0  0  0  0
   10.5987   -0.7138    0.0000 C   0  0  0  0  0  0  0  0  0  0  0  0
    9.2188    2.7952    0.0000 C   0  0  0  0  0  0  0  0  0  0  0  0
   10.2188    2.8067    0.0000 C   0  0  0  0  0  0  0  0  0  0  0  0
    6.9329   -0.8163    0.0000 H   0  0  0  0  0  0  0  0  0  0  0  0
    5.2820   -3.6397    0.0000 H   0  0  0  0  0  0  0  0  0  0  0  0
    7.2969   -3.3632    0.0000 H   0  0  0  0  0  0  0  0  0  0  0  0
    7.6880   -2.6673    0.0000 H   0  0  0  0  0  0  0  0  0  0  0  0
    9.5522    0.7297    0.0000 H   0  0  0  0  0  0  0  0  0  0  0  0
    5.7835   -3.7865    0.0000 H   0  0  0  0  0  0  0  0  0  0  0  0
    6.5818   -3.7834    0.0000 H   0  0  0  0  0  0  0  0  0  0  0  0
    8.4182   -2.2457    0.0000 H   0  0  0  0  0  0  0  0  0  0  0  0
    9.2164   -2.2550    0.0000 H   0  0  0  0  0  0  0  0  0  0  0  0
    4.7681   -0.7174    0.0000 H   0  0  0  0  0  0  0  0  0  0  0  0
    3.9700   -0.7020    0.0000 H   0  0  0  0  0  0  0  0  0  0  0  0
    9.9379   -1.8458    0.0000 H   0  0  0  0  0  0  0  0  0  0  0  0
   10.3397   -1.1560    0.0000 H   0  0  0  0  0  0  0  0  0  0  0  0
    7.2306   -2.9059    0.0000 H   0  0  0  0  0  0  0  0  0  0  0  0
    8.1041   -2.9823    0.0000 H   0  0  0  0  0  0  0  0  0  0  0  0
    8.1805   -2.1088    0.0000 H   0  0  0  0  0  0  0  0  0  0  0  0
    2.8686   -2.4839    0.0000 H   0  0  0  0  0  0  0  0  0  0  0  0
    5.9145   -0.7529    0.0000 H   0  0  0  0  0  0  0  0  0  0  0  0
    5.2993   -0.1282    0.0000 H   0  0  0  0  0  0  0  0  0  0  0  0
    4.6745   -0.7434    0.0000 H   0  0  0  0  0  0  0  0  0  0  0  0
    3.2075   -1.1267    0.0000 H   0  0  0  0  0  0  0  0  0  0  0  0
    2.8004   -1.8134    0.0000 H   0  0  0  0  0  0  0  0  0  0  0  0
    7.6884   -2.3931    0.0000 H   0  0  0  0  0  0  0  0  0  0  0  0
    8.4830   -2.7635    0.0000 H   0  0  0  0  0  0  0  0  0  0  0  0
    8.8535   -1.9688    0.0000 H   0  0  0  0  0  0  0  0  0  0  0  0
    8.5752    1.9568    0.0000 H   0  0  0  0  0  0  0  0  0  0  0  0
    8.1894    1.2579    0.0000 H   0  0  0  0  0  0  0  0  0  0  0  0
    7.0628    0.8787    0.0000 H   0  0  0  0  0  0  0  0  0  0  0  0
   10.8817   -0.2689    0.0000 H   0  0  0  0  0  0  0  0  0  0  0  0
   11.2835    0.4209    0.0000 H   0  0  0  0  0  0  0  0  0  0  0  0
   10.6690    2.0197    0.0000 H   0  0  0  0  0  0  0  0  0  0  0  0
   10.2928   -1.2531    0.0000 H   0  0  0  0  0  0  0  0  0  0  0  0
   11.1380   -1.0196    0.0000 H   0  0  0  0  0  0  0  0  0  0  0  0
   10.9045   -0.1745    0.0000 H   0  0  0  0  0  0  0  0  0  0  0  0
    4.3109   -4.5156    0.0000 H   0  0  0  0  0  0  0  0  0  0  0  0
    5.1587   -4.7393    0.0000 H   0  0  0  0  0  0  0  0  0  0  0  0
    5.3824   -3.8915    0.0000 H   0  0  0  0  0  0  0  0  0  0  0  0
    3.3085   -3.8995    0.0000 H   0  0  0  0  0  0  0  0  0  0  0  0
    3.5387   -4.7455    0.0000 H   0  0  0  0  0  0  0  0  0  0  0  0
    4.3848   -4.5153    0.0000 H   0  0  0  0  0  0  0  0  0  0  0  0
    9.7522    3.1114    0.0000 H   0  0  0  0  0  0  0  0  0  0  0  0
    8.9027    3.3285    0.0000 H   0  0  0  0  0  0  0  0  0  0  0  0
    8.6855    2.4790    0.0000 H   0  0  0  0  0  0  0  0  0  0  0  0
    2.0000   -2.9816    0.0000 H   0  0  0  0  0  0  0  0  0  0  0  0
   12.0748    1.5952    0.0000 H   0  0  0  0  0  0  0  0  0  0  0  0
   10.0126    4.2074    0.0000 H   0  0  0  0  0  0  0  0  0  0  0  0
 22  1  1  1  0  0  0
  1 79  1  0  0  0  0
  2 20  2  0  0  0  0
 30  3  1  6  0  0  0
  3 80  1  0  0  0  0
  4 35  1  0  0  0  0
  4 81  1  0  0  0  0
  5 35  2  0  0  0  0
  6  8  1  0  0  0  0
  6  9  1  0  0  0  0
  6 11  1  0  0  0  0
  6 21  1  1  0  0  0
  7  9  1  0  0  0  0
  7 10  1  0  0  0  0
  7 18  1  0  0  0  0
  7 23  1  1  0  0  0
  8 12  1  0  0  0  0
  8 17  1  0  0  0  0
  8 25  1  6  0  0  0
  9 20  1  0  0  0  0
  9 36  1  6  0  0  0
 10 13  1  0  0  0  0
 10 15  1  0  0  0  0
 10 37  1  6  0  0  0
 11 13  1  0  0  0  0
 11 38  1  0  0  0  0
 11 39  1  0  0  0  0
 12 14  1  0  0  0  0
 12 27  2  0  0  0  0
 13 41  1  0  0  0  0
 13 42  1  0  0  0  0
 14 16  1  0  0  0  0
 14 26  1  0  0  0  0
 14 40  1  1  0  0  0
 15 22  1  0  0  0  0
 15 31  1  0  0  0  0
 15 32  1  0  0  0  0
 16 19  1  0  0  0  0
 16 28  1  0  0  0  0
 16 33  1  1  0  0  0
 17 19  1  0  0  0  0
 17 43  1  0  0  0  0
 17 44  1  0  0  0  0
 18 24  1  0  0  0  0
 18 45  1  0  0  0  0
 18 46  1  0  0  0  0
 19 47  1  0  0  0  0
 19 48  1  0  0  0  0
 20 27  1  0  0  0  0
 21 49  1  0  0  0  0
 21 50  1  0  0  0  0
 21 51  1  0  0  0  0
 22 24  1  0  0  0  0
 22 52  1  0  0  0  0
 23 53  1  0  0  0  0
 23 54  1  0  0  0  0
 23 55  1  0  0  0  0
 24 56  1  0  0  0  0
 24 57  1  0  0  0  0
 25 58  1  0  0  0  0
 25 59  1  0  0  0  0
 25 60  1  0  0  0  0
 26 29  1  0  0  0  0
 26 61  1  0  0  0  0
 26 62  1  0  0  0  0
 27 63  1  0  0  0  0
 28 30  1  0  0  0  0
 28 64  1  0  0  0  0
 28 65  1  0  0  0  0
 29 30  1  0  0  0  0
 29 34  1  1  0  0  0
 29 35  1  0  0  0  0
 30 66  1  0  0  0  0
 31 73  1  0  0  0  0
 31 74  1  0  0  0  0
 31 75  1  0  0  0  0
 32 70  1  0  0  0  0
 32 71  1  0  0  0  0
 32 72  1  0  0  0  0
 33 67  1  0  0  0  0
 33 68  1  0  0  0  0
 33 69  1  0  0  0  0
 34 76  1  0  0  0  0
 34 77  1  0  0  0  0
 34 78  1  0  0  0  0
M  END
> <PUBCHEM_COMPOUND_CID>
46173993

> <PUBCHEM_COMPOUND_CANONICALIZED>
1

> <PUBCHEM_CACTVS_COMPLEXITY>
999

> <PUBCHEM_CACTVS_HBOND_ACCEPTOR>
5

> <PUBCHEM_CACTVS_HBOND_DONOR>
3

> <PUBCHEM_CACTVS_ROTATABLE_BOND>
1

> <PUBCHEM_CACTVS_SUBSKEYS>
AAADcfB4OAAAAAAAAAAAAAAAAAAAAAAAAAAwYMGCAAAAAADAAAAAGgAACAAADxSggAICCAAAAgCIAqDSCAAAAAAgAAAACAEAAEgAEBYAAQAAQAAFoAAIAQOIyPCPgAAAAAAAAADAAAYAADAAAAAAAAAAAA==

> <PUBCHEM_IUPAC_OPENEYE_NAME>
(2S,3R,4aS,6aR,6aS,6bR,8aR,10S,12aS,14bR)-3,10-dihydroxy-2,4a,6a,6b,9,9,12a-heptamethyl-13-oxo-3,4,5,6,6a,7,8,8a,10,11,12,14b-dodecahydro-1H-picene-2-carboxylic acid

> <PUBCHEM_IUPAC_CAS_NAME>
(2S,3R,4aS,6aR,6aS,6bR,8aR,10S,12aS,14bR)-3,10-dihydroxy-2,4a,6a,6b,9,9,12a-heptamethyl-13-oxo-3,4,5,6,6a,7,8,8a,10,11,12,14b-dodecahydro-1H-picene-2-carboxylic acid

> <PUBCHEM_IUPAC_NAME>
(2S,3R,4aS,6aR,6aS,6bR,8aR,10S,12aS,14bR)-3,10-dihydroxy-2,4a,6a,6b,9,9,12a-heptamethyl-13-oxo-3,4,5,6,6a,7,8,8a,10,11,12,14b-dodecahydro-1H-picene-2-carboxylic acid

> <PUBCHEM_IUPAC_SYSTEMATIC_NAME>
(2S,3R,4aS,6aR,6aS,6bR,8aR,10S,12aS,14bR)-2,4a,6a,6b,9,9,12a-heptamethyl-3,10-bis(oxidanyl)-13-oxidanylidene-3,4,5,6,6a,7,8,8a,10,11,12,14b-dodecahydro-1H-picene-2-carboxylic acid

> <PUBCHEM_IUPAC_TRADITIONAL_NAME>
(2S,3R,4aS,6aR,6aS,6bR,8aR,10S,12aS,14bR)-3,10-dihydroxy-13-keto-2,4a,6a,6b,9,9,12a-heptamethyl-3,4,5,6,6a,7,8,8a,10,11,12,14b-dodecahydro-1H-picene-2-carboxylic acid

> <PUBCHEM_IUPAC_INCHI>
InChI=1S/C30H46O5/c1-25(2)20-8-11-30(7)23(27(20,4)10-9-21(25)32)19(31)14-17-18-15-28(5,24(34)35)22(33)16-26(18,3)12-13-29(17,30)6/h14,18,20-23,32-33H,8-13,15-16H2,1-7H3,(H,34,35)/t18-,20-,21-,22+,23+,26-,27-,28-,29+,30+/m0/s1

> <PUBCHEM_IUPAC_INCHIKEY>
HFTWTHSIMCSLFQ-CMLLUXCUSA-N

> <PUBCHEM_XLOGP3_AA>
5.8

> <PUBCHEM_EXACT_MASS>
486.334525

> <PUBCHEM_MOLECULAR_FORMULA>
C30H46O5

> <PUBCHEM_MOLECULAR_WEIGHT>
486.68324

> <PUBCHEM_OPENEYE_CAN_SMILES>
CC1(C2CCC3(C(C2(CCC1O)C)C(=O)C=C4C3(CCC5(C4CC(C(C5)O)(C)C(=O)O)C)C)C)C

> <PUBCHEM_OPENEYE_ISO_SMILES>
C[C@@]12CC[C@@]3(C(=CC(=O)[C@H]4[C@]3(CC[C@@H]5[C@@]4(CC[C@@H](C5(C)C)O)C)C)[C@@H]1C[C@]([C@@H](C2)O)(C)C(=O)O)C

> <PUBCHEM_CACTVS_TPSA>
94.8

> <PUBCHEM_MONOISOTOPIC_WEIGHT>
486.334525

> <PUBCHEM_TOTAL_CHARGE>
0

> <PUBCHEM_HEAVY_ATOM_COUNT>
35

> <PUBCHEM_ATOM_DEF_STEREO_COUNT>
10

> <PUBCHEM_ATOM_UDEF_STEREO_COUNT>
0

> <PUBCHEM_BOND_DEF_STEREO_COUNT>
0

> <PUBCHEM_BOND_UDEF_STEREO_COUNT>
0

> <PUBCHEM_ISOTOPIC_ATOM_COUNT>
0

> <PUBCHEM_COMPONENT_COUNT>
1

> <PUBCHEM_CACTVS_TAUTO_COUNT>
5

> <PUBCHEM_COORDINATE_TYPE>
1
5
255

> <PUBCHEM_BONDANNOTATIONS>
22  1  5
10  37  6
14  40  5
16  33  5
29  34  5
30  3  6
6  21  5
7  23  5
8  25  6
9  36  6

$$$$

