   Color/Form
        Pale yellow viscous oil
   from [1]HSDB

   Odor
        LITTLE OR NO ODOR
   from [2]HSDB

   Taste
        LITTLE OR NO TASTE
   from [3]HSDB

   Boiling Point
        210 deg C at 0.1 mm Hg
   from [4]HSDB

   Melting Point
        3 deg C
   from [5]HSDB

   Octanol/Water Partition Coefficient
        log Kow = 12 (est)
   from [6]HSDB

   Solubilities

     * Insoluble in water. Soluble in alcohol, ether, acetone, chloroform.
     * In water, 1.9X10-6 mg/L at 25 deg C (est)

   from [7]HSDB

   Spectral Properties

     * MAX ABSORPTION (METHANOL): 292 NM (LOG E= 3.54); DECOMP @ 350 DEG
       C; SADTLER REF NUMBER: 10277 (IR, PRISM)
     * IR: 18246 (Sadtler Research Laboratories IR Grating Collection)
     * UV: 20771 (Sadtler Research Laboratories Spectral Collection)
     * NMR: 366 (Varian Associates NMR Spectra Catalogue)
     * MASS: 33141 (NIST/EPA/MSDC Mass Spectral database, 1990 version)
     * Specific optical rotation: +0.65 at 25 deg C/D (alc)

   from [8]HSDB

   Vapor Pressure
        1.4X10-8 mm Hg at 25 deg C (est)
   from [9]HSDB

   Other Chemical/Physical Properties

     * Slightly viscous, pale yellow oil; not affected by acid up to 100
       deg C; slowly oxidized by atmospheric oxygen, rapidly by ferric &
       silver salts; gradually darkens on exposure to light; not
       precipitated by digitonin /dl-alpha-Tocopherol/
     * Specific optical rotation: -3.0 at 25 deg C/5461 (benzene); +0.32
       at 25 deg C/5461d (alcohol) /d-alpha-Tocopherol/
     * Tocopherols act as antioxidants. /Tocopherols/
     * White crystalline powder /d-Tocopherol/
     * Practically insoluble in water; freely soluble in oils, fats,
       acetone, alcohol, chloroform, ether, other fat solvents; mp:
       2.5-3.5 deg C; index of refraction: 1.5045 at 25 deg C/d; max
       absorption: 294 nm (e= 71, 1%, 1 cm); bp: 200-220 deg C at 0.1
       mmHg; den: 0.950 at 25 deg C/4 deg C. /dl-alpha-tocopherol/
     * IR: 8537 (Sadtler Research Laboratories IR Grating Collection)
       /alpha-Tocopherol acetate/
     * UV: 2780 (Sadtler Research Laboratories Spectral Collection)
       /alpha-Tocopherol acetate/
     * NMR: 8653 (Sadtler Research Laboratories Spectral Collection)
       /alpha-Tocopherol acetate/
     * MASS: 3498 (National Bureau of Standards EPA-NIH Mass Spectra Data
       Base, NSRDS-NBS-63) /alpha-Tocopherol acetate/
     * IR: 4754 (Documentation of Molecular Spectroscopy Collection)
       /beta-Tocopherol/
     * UV: 4-1043 (Organic Electronic Spectral Data, Phillips et al, John
       Wiley & Sons, New York) /beta-Tocopherol/
     * MASS: 3214 (National Bureau of Standards EPA-NIH Mass Spectra Data
       Base, NSRDS-NBS-63) /beta-Tocopherol/
     * UV: 4-1043 (Organic Electronic Spectral Data, Phillips et al, John
       Wiley & Sons, New York) /gamma-Tocopherol/
     * MASS: 3215 (National Bureau of Standards EPA-NIH Mass Spectra Data
       Base, NSRDS-NBS-63) /gamma-Tocopherol/
     * UV: 4-1029 (Organic Electronic Spectral Data, Phillips et al, John
       Wiley & Sons, New York) /delta-Tocopherol/
     * Viscous oils; soluble in fats; insoluble in water /Tocopherols/
     * Decomposition at 350 deg C
     * Clear, yellow, viscous oils; insoluble in water, soluble in
       alcohol, and miscible with vegetable oils. /alpha-Tocopherols/
     * Clear, yellow, viscous oils; insoluble in water, soluble in
       alcohol, and miscible with vegetable oils. /alpha-Tocopheryl
       acetates/
     * White powder; insoluble in water and soluble in alcohol and in
       vegetable oils. /Acid succinate derivative/
     * Henry's Law constant = 3.6X10-6 atm-cu m/molat 25 deg C (est)
     * Hydroxyl radical reaction rate constant = 2.3X10-10 cu cm/molec-sec
       at 25 deg C (est)

   from [10]HSDB

   Computed Properties
   Molecular Weight                  430.7061 [g/mol]
   Molecular Formula                 C[29]H[50]O[2]
   XLogP3-AA                         10.7
   H-Bond Donor                      1
   H-Bond Acceptor                   2
   Rotatable Bond Count              12
   Tautomer Count                    9
   Exact Mass                        430.381081
   MonoIsotopic Mass                 430.381081
   Topological Polar Surface Area    29.5
   Heavy Atom Count                  31
   Formal Charge                     0
   Complexity                        503
   Isotope Atom Count                0
   Defined Atom Stereocenter Count   3
   Undefined Atom Stereocenter Count 0
   Defined Bond Stereocenter Count   0
   Undefined Bond Stereocenter Count 0
   Covalently-Bonded Unit Count      1
   Feature 3D Acceptor Count         1
   Feature 3D Donor Count            1
   Feature 3D Hydrophobe Count       3
   Feature 3D Ring Count             2
   Effective Rotor Count             12.8
   Conformer Sampling RMSD           1.6
   CID Conformer Count               [11]78

References

   1. http://toxnet.nlm.nih.gov/cgi-bin/sis/search/r?dbs+hsdb:@term+@rn+@rel+59-02-9
   2. http://toxnet.nlm.nih.gov/cgi-bin/sis/search/r?dbs+hsdb:@term+@rn+@rel+59-02-9
   3. http://toxnet.nlm.nih.gov/cgi-bin/sis/search/r?dbs+hsdb:@term+@rn+@rel+59-02-9
   4. http://toxnet.nlm.nih.gov/cgi-bin/sis/search/r?dbs+hsdb:@term+@rn+@rel+59-02-9
   5. http://toxnet.nlm.nih.gov/cgi-bin/sis/search/r?dbs+hsdb:@term+@rn+@rel+59-02-9
   6. http://toxnet.nlm.nih.gov/cgi-bin/sis/search/r?dbs+hsdb:@term+@rn+@rel+59-02-9
   7. http://toxnet.nlm.nih.gov/cgi-bin/sis/search/r?dbs+hsdb:@term+@rn+@rel+59-02-9
   8. http://toxnet.nlm.nih.gov/cgi-bin/sis/search/r?dbs+hsdb:@term+@rn+@rel+59-02-9
   9. http://toxnet.nlm.nih.gov/cgi-bin/sis/search/r?dbs+hsdb:@term+@rn+@rel+59-02-9
  10. http://toxnet.nlm.nih.gov/cgi-bin/sis/search/r?dbs+hsdb:@term+@rn+@rel+59-02-9
  11. http://pubchem.ncbi.nlm.nih.gov/vw3d/vw3d.cgi?cid=14985
