   Color/Form

     * Colorless liquid
     * Yellow liquid (technical)

   from [1]HSDB

   Odor
        Aromatic odor
   from [2]HSDB

   Boiling Point
        127 deg C @ 20 mm Hg
   from [3]HSDB

   Corrosivity
        NON-CORROSIVE
   from [4]HSDB

   Density/Specific Gravity
        0.955 @ 30 deg C
   from [5]HSDB

   Octanol/Water Partition Coefficient
        log Kow = 3.21
   from [6]HSDB

   Solubilities

     * Miscible with common organic solvents, e.g. acetone, ethanol,
       isopropanol, benzene, xylene, kerosene
     * Miscible with hydrogen sulfide
     * In water, 375 mg/l @ 25 deg C

   from [7]HSDB

   Spectral Properties

     * INDEX OF REFRACTION: 1.4750 @ 30 DEG C/D
     * Intense mass spectral peaks: 43 m/z (100%), 128 m/z (76%), 86 m/z
       (54%), 189 m/z (19%)

   from [8]HSDB

   Vapor Pressure
        2.4X10-2 mm Hg @ 25 deg C
   from [9]HSDB

   Other Chemical/Physical Properties

     * Hydrolyzed by strong acids on heating.
     * Vapor pressure: 43X10-3 mm Hg at 35 deg C
     * Hydroxyl radical rate constant= 3.2X10-11 cu cm/molecule-sec @ 25
       deg C

   from [10]HSDB

   Computed Properties
   Molecular Weight                  189.31826 [g/mol]
   Molecular Formula                 C[9]H[19]NOS
   XLogP3                            3.2
   H-Bond Donor                      0
   H-Bond Acceptor                   2
   Rotatable Bond Count              6
   Exact Mass                        189.118735
   MonoIsotopic Mass                 189.118735
   Topological Polar Surface Area    45.6
   Heavy Atom Count                  12
   Formal Charge                     0
   Complexity                        122
   Isotope Atom Count                0
   Defined Atom Stereocenter Count   0
   Undefined Atom Stereocenter Count 0
   Defined Bond Stereocenter Count   0
   Undefined Bond Stereocenter Count 0
   Covalently-Bonded Unit Count      1
   Feature 3D Hydrophobe Count       3
   Effective Rotor Count             7
   Conformer Sampling RMSD           0.8
   CID Conformer Count               [11]62

References

   1. http://toxnet.nlm.nih.gov/cgi-bin/sis/search/r?dbs+hsdb:@term+@rn+@rel+759-94-4
   2. http://toxnet.nlm.nih.gov/cgi-bin/sis/search/r?dbs+hsdb:@term+@rn+@rel+759-94-4
   3. http://toxnet.nlm.nih.gov/cgi-bin/sis/search/r?dbs+hsdb:@term+@rn+@rel+759-94-4
   4. http://toxnet.nlm.nih.gov/cgi-bin/sis/search/r?dbs+hsdb:@term+@rn+@rel+759-94-4
   5. http://toxnet.nlm.nih.gov/cgi-bin/sis/search/r?dbs+hsdb:@term+@rn+@rel+759-94-4
   6. http://toxnet.nlm.nih.gov/cgi-bin/sis/search/r?dbs+hsdb:@term+@rn+@rel+759-94-4
   7. http://toxnet.nlm.nih.gov/cgi-bin/sis/search/r?dbs+hsdb:@term+@rn+@rel+759-94-4
   8. http://toxnet.nlm.nih.gov/cgi-bin/sis/search/r?dbs+hsdb:@term+@rn+@rel+759-94-4
   9. http://toxnet.nlm.nih.gov/cgi-bin/sis/search/r?dbs+hsdb:@term+@rn+@rel+759-94-4
  10. http://toxnet.nlm.nih.gov/cgi-bin/sis/search/r?dbs+hsdb:@term+@rn+@rel+759-94-4
  11. http://pubchem.ncbi.nlm.nih.gov/vw3d/vw3d.cgi?cid=12968
