   Color/Form

     * Needles
     * Crystals
     * COLORLESS CRYSTALS

   from [1]HSDB

   Odor
        Odorless powder
   from [2]HSDB

   Boiling Point
        165 DEG C AT 760 MM HG
   from [3]HSDB

   Melting Point
        35.2 deg C
   from [4]HSDB

   Density/Specific Gravity
        1.3693 AT 36 deg C
   from [5]HSDB

   Dissociation Constants
        pKa = 2.59
   from [6]HSDB

   Octanol/Water Partition Coefficient
        log Kow= 0.03 /Estimated/
   from [7]HSDB

   Solubilities

     * Soluble in ethanol
     * In water, 50 mg/L @ 25 deg C

   from [8]HSDB

   Spectral Properties

     * IR: 17442 (Sadtler Research Laboratories Prism Collection)
     * MASS: 405 (NIST/EPA/MSDC Mass Spectral Database, 1990 version)

   from [9]HSDB

   Vapor Pressure
        1.3 mm Hg at 25 deg C /Estimated/
   from [10]HSDB

   Other Chemical/Physical Properties

     * BP: 164 deg C @ 82 mm Hg; 109 deg C @ 5 mm Hg
     * Burns with a green flame.
     * Henry's Law constant = 1.24X10-8 atm-cu m/mol @ 25 deg C
     * Hydroxyl radical reaction rate constant = 5.9X10-13 cu
       cm/molecule-sec @ 25 deg C /Estimated/

   from [11]HSDB

   Computed Properties
   Molecular Weight                  78.042423 [g/mol]
   Molecular Formula                 C[2]H[3]FO[2]
   XLogP3-AA                         0.2
   H-Bond Donor                      1
   H-Bond Acceptor                   3
   Rotatable Bond Count              1
   Exact Mass                        78.011708
   MonoIsotopic Mass                 78.011708
   Topological Polar Surface Area    37.3
   Heavy Atom Count                  5
   Formal Charge                     0
   Complexity                        42.9
   Isotope Atom Count                0
   Defined Atom Stereocenter Count   0
   Undefined Atom Stereocenter Count 0
   Defined Bond Stereocenter Count   0
   Undefined Bond Stereocenter Count 0
   Covalently-Bonded Unit Count      1
   Feature 3D Acceptor Count         2
   Feature 3D Anion Count            1
   Effective Rotor Count             1
   Conformer Sampling RMSD           0.4
   CID Conformer Count               [12]2

References

   1. http://toxnet.nlm.nih.gov/cgi-bin/sis/search/r?dbs+hsdb:@term+@rn+@rel+144-49-0
   2. http://toxnet.nlm.nih.gov/cgi-bin/sis/search/r?dbs+hsdb:@term+@rn+@rel+144-49-0
   3. http://toxnet.nlm.nih.gov/cgi-bin/sis/search/r?dbs+hsdb:@term+@rn+@rel+144-49-0
   4. http://toxnet.nlm.nih.gov/cgi-bin/sis/search/r?dbs+hsdb:@term+@rn+@rel+144-49-0
   5. http://toxnet.nlm.nih.gov/cgi-bin/sis/search/r?dbs+hsdb:@term+@rn+@rel+144-49-0
   6. http://toxnet.nlm.nih.gov/cgi-bin/sis/search/r?dbs+hsdb:@term+@rn+@rel+144-49-0
   7. http://toxnet.nlm.nih.gov/cgi-bin/sis/search/r?dbs+hsdb:@term+@rn+@rel+144-49-0
   8. http://toxnet.nlm.nih.gov/cgi-bin/sis/search/r?dbs+hsdb:@term+@rn+@rel+144-49-0
   9. http://toxnet.nlm.nih.gov/cgi-bin/sis/search/r?dbs+hsdb:@term+@rn+@rel+144-49-0
  10. http://toxnet.nlm.nih.gov/cgi-bin/sis/search/r?dbs+hsdb:@term+@rn+@rel+144-49-0
  11. http://toxnet.nlm.nih.gov/cgi-bin/sis/search/r?dbs+hsdb:@term+@rn+@rel+144-49-0
  12. http://pubchem.ncbi.nlm.nih.gov/vw3d/vw3d.cgi?cid=5237
