2707
  -OEChem-07051212522D

 10  9  0     0  0  0  0  0  0999 V2000
    2.0000   -0.9720    0.0000 Cl  0  0  0  0  0  0  0  0  0  0  0  0
    2.3660    0.3940    0.0000 Cl  0  0  0  0  0  0  0  0  0  0  0  0
    3.3660   -1.3380    0.0000 Cl  0  0  0  0  0  0  0  0  0  0  0  0
    4.5981   -0.4720    0.0000 O   0  0  0  0  0  0  0  0  0  0  0  0
    3.7320    1.0280    0.0000 O   0  0  0  0  0  0  0  0  0  0  0  0
    3.7320    0.0280    0.0000 C   0  0  0  0  0  0  0  0  0  0  0  0
    2.8660   -0.4720    0.0000 C   0  0  0  0  0  0  0  0  0  0  0  0
    3.7320   -0.5920    0.0000 H   0  0  0  0  0  0  0  0  0  0  0  0
    5.1350   -0.1620    0.0000 H   0  0  0  0  0  0  0  0  0  0  0  0
    4.2690    1.3380    0.0000 H   0  0  0  0  0  0  0  0  0  0  0  0
  1  7  1  0  0  0  0
  2  7  1  0  0  0  0
  3  7  1  0  0  0  0
  4  6  1  0  0  0  0
  4  9  1  0  0  0  0
  5  6  1  0  0  0  0
  5 10  1  0  0  0  0
  6  7  1  0  0  0  0
  6  8  1  0  0  0  0
M  END
> <PUBCHEM_COMPOUND_CID>
2707

> <PUBCHEM_COMPOUND_CANONICALIZED>
1

> <PUBCHEM_CACTVS_COMPLEXITY>
56.4

> <PUBCHEM_CACTVS_HBOND_ACCEPTOR>
2

> <PUBCHEM_CACTVS_HBOND_DONOR>
2

> <PUBCHEM_CACTVS_ROTATABLE_BOND>
0

> <PUBCHEM_CACTVS_SUBSKEYS>
AAADcQBAMAAGAAAAAAAAAAAAAAAAAAAAAAAAAAAAAAAAAAAAAAAAGgIACAAAAAKwgIMACAAAAgAAAAAAAAAAAAAAAAAAAAAAAQAAEAAAAAAAAAAAAAAAAAAAAAAAAAAAAAAAAAAAAAAAAAAAAAAAAAAAAA==

> <PUBCHEM_IUPAC_OPENEYE_NAME>
2,2,2-trichloroethane-1,1-diol

> <PUBCHEM_IUPAC_CAS_NAME>
2,2,2-trichloroethane-1,1-diol

> <PUBCHEM_IUPAC_NAME>
2,2,2-trichloroethane-1,1-diol

> <PUBCHEM_IUPAC_SYSTEMATIC_NAME>
2,2,2-tris(chloranyl)ethane-1,1-diol

> <PUBCHEM_IUPAC_TRADITIONAL_NAME>
2,2,2-trichloroethane-1,1-diol

> <PUBCHEM_IUPAC_INCHI>
InChI=1S/C2H3Cl3O2/c3-2(4,5)1(6)7/h1,6-7H

> <PUBCHEM_IUPAC_INCHIKEY>
RNFNDJAIBTYOQL-UHFFFAOYSA-N

> <PUBCHEM_XLOGP3>
1

> <PUBCHEM_EXACT_MASS>
163.919862

> <PUBCHEM_MOLECULAR_FORMULA>
C2H3Cl3O2

> <PUBCHEM_MOLECULAR_WEIGHT>
165.40302

> <PUBCHEM_OPENEYE_CAN_SMILES>
C(C(Cl)(Cl)Cl)(O)O

> <PUBCHEM_OPENEYE_ISO_SMILES>
C(C(Cl)(Cl)Cl)(O)O

> <PUBCHEM_CACTVS_TPSA>
40.5

> <PUBCHEM_MONOISOTOPIC_WEIGHT>
163.919862

> <PUBCHEM_TOTAL_CHARGE>
0

> <PUBCHEM_HEAVY_ATOM_COUNT>
7

> <PUBCHEM_ATOM_DEF_STEREO_COUNT>
0

> <PUBCHEM_ATOM_UDEF_STEREO_COUNT>
0

> <PUBCHEM_BOND_DEF_STEREO_COUNT>
0

> <PUBCHEM_BOND_UDEF_STEREO_COUNT>
0

> <PUBCHEM_ISOTOPIC_ATOM_COUNT>
0

> <PUBCHEM_COMPONENT_COUNT>
1

> <PUBCHEM_CACTVS_TAUTO_COUNT>
1

> <PUBCHEM_COORDINATE_TYPE>
1
5
255

$$$$

