442682
  -OEChem-07051212592D

 70 75  0     1  0  0  0  0  0999 V2000
    6.7942   -2.0968    0.0000 O   0  0  0  0  0  0  0  0  0  0  0  0
    9.5801    0.6877    0.0000 O   0  0  0  0  0  0  0  0  0  0  0  0
    5.8505    0.3751    0.0000 O   0  0  0  0  0  0  0  0  0  0  0  0
   11.3503    2.7465    0.0000 O   0  0  0  0  0  0  0  0  0  0  0  0
    5.9541    1.2224    0.0000 O   0  0  0  0  0  0  0  0  0  0  0  0
    7.8201    3.7224    0.0000 O   0  0  0  0  0  0  0  0  0  0  0  0
    9.9024   -0.1351    0.0000 O   0  0  0  0  0  0  0  0  0  0  0  0
   10.1030   -3.3268    0.0000 O   0  0  0  0  0  0  0  0  0  0  0  0
    2.8961   -0.1459    0.0000 O   0  0  0  0  0  0  0  0  0  0  0  0
    3.4977   -3.5574    0.0000 O   0  0  0  0  0  0  0  0  0  0  0  0
    2.2120   -2.0253    0.0000 O   0  0  0  0  0  0  0  0  0  0  0  0
   13.9502    1.1882    0.0000 O   0  0  0  0  0  0  0  0  0  0  0  0
   12.2066   -1.8051    0.0000 O   0  0  0  0  0  0  0  0  0  0  0  0
   13.9425   -0.8118    0.0000 O   0  0  0  0  0  0  0  0  0  0  0  0
    7.4782   -0.2174    0.0000 C   0  0  2  0  0  0  0  0  0  0  0  0
    6.4933   -0.3910    0.0000 C   0  0  1  0  0  0  0  0  0  0  0  0
    7.8201    0.7224    0.0000 C   0  0  0  0  0  0  0  0  0  0  0  0
    6.1513   -1.3307    0.0000 C   0  0  1  0  0  0  0  0  0  0  0  0
    8.1209   -0.9834    0.0000 C   0  0  0  0  0  0  0  0  0  0  0  0
    8.6862    1.2224    0.0000 C   0  0  0  0  0  0  0  0  0  0  0  0
    8.6862    2.2224    0.0000 C   0  0  0  0  0  0  0  0  0  0  0  0
   10.4862    2.2432    0.0000 C   0  0  1  0  0  0  0  0  0  0  0  0
   10.4862    1.2015    0.0000 C   0  0  1  0  0  0  0  0  0  0  0  0
    9.5801    2.7570    0.0000 C   0  0  0  0  0  0  0  0  0  0  0  0
    7.7789   -1.9231    0.0000 C   0  0  0  0  0  0  0  0  0  0  0  0
    6.9541    1.2224    0.0000 C   0  0  0  0  0  0  0  0  0  0  0  0
    5.1665   -1.5044    0.0000 C   0  0  0  0  0  0  0  0  0  0  0  0
    7.8201    2.7224    0.0000 C   0  0  0  0  0  0  0  0  0  0  0  0
    9.1438   -0.7867    0.0000 C   0  0  0  0  0  0  0  0  0  0  0  0
    6.9541    2.2224    0.0000 C   0  0  0  0  0  0  0  0  0  0  0  0
   11.3503    0.6982    0.0000 C   0  0  0  0  0  0  0  0  0  0  0  0
    8.4360   -2.7312    0.0000 C   0  0  0  0  0  0  0  0  0  0  0  0
    9.8195   -1.5795    0.0000 C   0  0  0  0  0  0  0  0  0  0  0  0
    4.8245   -2.4441    0.0000 C   0  0  0  0  0  0  0  0  0  0  0  0
    4.5237   -0.7383    0.0000 C   0  0  0  0  0  0  0  0  0  0  0  0
    9.4632   -2.5583    0.0000 C   0  0  0  0  0  0  0  0  0  0  0  0
   11.3464   -0.3018    0.0000 C   0  0  0  0  0  0  0  0  0  0  0  0
   12.2182    1.1949    0.0000 C   0  0  0  0  0  0  0  0  0  0  0  0
    3.5389   -0.9119    0.0000 C   0  0  0  0  0  0  0  0  0  0  0  0
    3.8397   -2.6177    0.0000 C   0  0  0  0  0  0  0  0  0  0  0  0
    3.1969   -1.8516    0.0000 C   0  0  0  0  0  0  0  0  0  0  0  0
   13.0823    0.6915    0.0000 C   0  0  0  0  0  0  0  0  0  0  0  0
   12.2105   -0.8051    0.0000 C   0  0  0  0  0  0  0  0  0  0  0  0
   13.0784   -0.3085    0.0000 C   0  0  0  0  0  0  0  0  0  0  0  0
    6.9318    0.4337    0.0000 H   0  0  0  0  0  0  0  0  0  0  0  0
    5.8827   -0.4987    0.0000 H   0  0  0  0  0  0  0  0  0  0  0  0
    5.9393   -1.9133    0.0000 H   0  0  0  0  0  0  0  0  0  0  0  0
   11.0237    1.9342    0.0000 H   0  0  0  0  0  0  0  0  0  0  0  0
   11.0237    1.5105    0.0000 H   0  0  0  0  0  0  0  0  0  0  0  0
    9.9737    3.2360    0.0000 H   0  0  0  0  0  0  0  0  0  0  0  0
    9.1755    3.2268    0.0000 H   0  0  0  0  0  0  0  0  0  0  0  0
    6.4172    2.5324    0.0000 H   0  0  0  0  0  0  0  0  0  0  0  0
    5.2399    0.2674    0.0000 H   0  0  0  0  0  0  0  0  0  0  0  0
    8.2173   -3.3114    0.0000 H   0  0  0  0  0  0  0  0  0  0  0  0
   10.4296   -1.4694    0.0000 H   0  0  0  0  0  0  0  0  0  0  0  0
    5.2230   -2.9190    0.0000 H   0  0  0  0  0  0  0  0  0  0  0  0
    4.7357   -0.1557    0.0000 H   0  0  0  0  0  0  0  0  0  0  0  0
   11.3479    3.3665    0.0000 H   0  0  0  0  0  0  0  0  0  0  0  0
   10.8083   -0.6097    0.0000 H   0  0  0  0  0  0  0  0  0  0  0  0
   12.2206    1.8148    0.0000 H   0  0  0  0  0  0  0  0  0  0  0  0
    5.6441    1.7594    0.0000 H   0  0  0  0  0  0  0  0  0  0  0  0
    7.2832    4.0324    0.0000 H   0  0  0  0  0  0  0  0  0  0  0  0
   10.4874   -0.3404    0.0000 H   0  0  0  0  0  0  0  0  0  0  0  0
    9.8887   -3.9086    0.0000 H   0  0  0  0  0  0  0  0  0  0  0  0
    2.2855   -0.2535    0.0000 H   0  0  0  0  0  0  0  0  0  0  0  0
    3.8962   -4.0324    0.0000 H   0  0  0  0  0  0  0  0  0  0  0  0
    2.0000   -2.6079    0.0000 H   0  0  0  0  0  0  0  0  0  0  0  0
   13.9526    1.8082    0.0000 H   0  0  0  0  0  0  0  0  0  0  0  0
   12.7424   -2.1172    0.0000 H   0  0  0  0  0  0  0  0  0  0  0  0
   14.4807   -0.5039    0.0000 H   0  0  0  0  0  0  0  0  0  0  0  0
  1 18  1  0  0  0  0
  1 25  1  0  0  0  0
  2 20  1  0  0  0  0
  2 23  1  0  0  0  0
 16  3  1  1  0  0  0
  3 53  1  0  0  0  0
 22  4  1  1  0  0  0
  4 58  1  0  0  0  0
  5 26  1  0  0  0  0
  5 61  1  0  0  0  0
  6 28  1  0  0  0  0
  6 62  1  0  0  0  0
  7 29  1  0  0  0  0
  7 63  1  0  0  0  0
  8 36  1  0  0  0  0
  8 64  1  0  0  0  0
  9 39  1  0  0  0  0
  9 65  1  0  0  0  0
 10 40  1  0  0  0  0
 10 66  1  0  0  0  0
 11 41  1  0  0  0  0
 11 67  1  0  0  0  0
 12 42  1  0  0  0  0
 12 68  1  0  0  0  0
 13 43  1  0  0  0  0
 13 69  1  0  0  0  0
 14 44  1  0  0  0  0
 14 70  1  0  0  0  0
 15 16  1  0  0  0  0
 15 17  1  0  0  0  0
 15 19  1  0  0  0  0
 15 45  1  1  0  0  0
 16 18  1  0  0  0  0
 16 46  1  0  0  0  0
 17 20  1  0  0  0  0
 17 26  2  0  0  0  0
 18 27  1  6  0  0  0
 18 47  1  0  0  0  0
 19 25  1  0  0  0  0
 19 29  2  0  0  0  0
 20 21  2  0  0  0  0
 21 24  1  0  0  0  0
 21 28  1  0  0  0  0
 22 23  1  0  0  0  0
 22 24  1  0  0  0  0
 22 48  1  0  0  0  0
 23 31  1  1  0  0  0
 23 49  1  0  0  0  0
 24 50  1  0  0  0  0
 24 51  1  0  0  0  0
 25 32  2  0  0  0  0
 26 30  1  0  0  0  0
 27 34  2  0  0  0  0
 27 35  1  0  0  0  0
 28 30  2  0  0  0  0
 29 33  1  0  0  0  0
 30 52  1  0  0  0  0
 31 37  2  0  0  0  0
 31 38  1  0  0  0  0
 32 36  1  0  0  0  0
 32 54  1  0  0  0  0
 33 36  2  0  0  0  0
 33 55  1  0  0  0  0
 34 40  1  0  0  0  0
 34 56  1  0  0  0  0
 35 39  2  0  0  0  0
 35 57  1  0  0  0  0
 37 43  1  0  0  0  0
 37 59  1  0  0  0  0
 38 42  2  0  0  0  0
 38 60  1  0  0  0  0
 39 41  1  0  0  0  0
 40 41  2  0  0  0  0
 42 44  1  0  0  0  0
 43 44  2  0  0  0  0
M  END
> <PUBCHEM_COMPOUND_CID>
442682

> <PUBCHEM_COMPOUND_CANONICALIZED>
1

> <PUBCHEM_CACTVS_COMPLEXITY>
965

> <PUBCHEM_CACTVS_HBOND_ACCEPTOR>
14

> <PUBCHEM_CACTVS_HBOND_DONOR>
12

> <PUBCHEM_CACTVS_ROTATABLE_BOND>
3

> <PUBCHEM_CACTVS_SUBSKEYS>
AAADceB4PAAAAAAAAAAAAAAAAAAAAAAAAAA0aMGCAAAAAACRVAAAGgAACAAADRSgmAIwBoAABgCAAiBCAAACCAAgIAAAiAAGiIgNNyKGMRqCeCGlwBULuAfA4PwOoAADCAAIQABAAAYQABCAAAAAAAAAAA==

> <PUBCHEM_IUPAC_OPENEYE_NAME>
(2R,3R)-2-(3,4,5-trihydroxyphenyl)-8-[(2R,3S,4S)-3,5,7-trihydroxy-2-(3,4,5-trihydroxyphenyl)chroman-4-yl]chromane-3,5,7-triol

> <PUBCHEM_IUPAC_CAS_NAME>
(2R,3R)-2-(3,4,5-trihydroxyphenyl)-8-[(2R,3S,4S)-3,5,7-trihydroxy-2-(3,4,5-trihydroxyphenyl)-3,4-dihydro-2H-1-benzopyran-4-yl]-3,4-dihydro-2H-1-benzopyran-3,5,7-triol

> <PUBCHEM_IUPAC_NAME>
(2R,3R)-2-(3,4,5-trihydroxyphenyl)-8-[(2R,3S,4S)-3,5,7-trihydroxy-2-(3,4,5-trihydroxyphenyl)-3,4-dihydro-2H-chromen-4-yl]-3,4-dihydro-2H-chromene-3,5,7-triol

> <PUBCHEM_IUPAC_SYSTEMATIC_NAME>
(2R,3R)-2-[3,4,5-tris(oxidanyl)phenyl]-8-[(2R,3S,4S)-3,5,7-tris(oxidanyl)-2-[3,4,5-tris(oxidanyl)phenyl]-3,4-dihydro-2H-chromen-4-yl]-3,4-dihydro-2H-chromene-3,5,7-triol

> <PUBCHEM_IUPAC_TRADITIONAL_NAME>
(2R,3R)-2-(3,4,5-trihydroxyphenyl)-8-[(2R,3S,4S)-3,5,7-trihydroxy-2-(3,4,5-trihydroxyphenyl)chroman-4-yl]chroman-3,5,7-triol

> <PUBCHEM_IUPAC_INCHI>
InChI=1S/C30H26O14/c31-11-5-14(33)22-21(6-11)43-29(10-3-18(37)26(41)19(38)4-10)27(42)24(22)23-15(34)8-13(32)12-7-20(39)28(44-30(12)23)9-1-16(35)25(40)17(36)2-9/h1-6,8,20,24,27-29,31-42H,7H2/t20-,24+,27+,28-,29-/m1/s1

> <PUBCHEM_IUPAC_INCHIKEY>
RTEDIEITOBJPNI-MMKMIGCXSA-N

> <PUBCHEM_XLOGP3_AA>
1.7

> <PUBCHEM_EXACT_MASS>
610.132256

> <PUBCHEM_MOLECULAR_FORMULA>
C30H26O14

> <PUBCHEM_MOLECULAR_WEIGHT>
610.51904

> <PUBCHEM_OPENEYE_CAN_SMILES>
C1C(C(OC2=C1C(=CC(=C2C3C(C(OC4=CC(=CC(=C34)O)O)C5=CC(=C(C(=C5)O)O)O)O)O)O)C6=CC(=C(C(=C6)O)O)O)O

> <PUBCHEM_OPENEYE_ISO_SMILES>
C1[C@H]([C@H](OC2=C1C(=CC(=C2[C@H]3[C@@H]([C@H](OC4=CC(=CC(=C34)O)O)C5=CC(=C(C(=C5)O)O)O)O)O)O)C6=CC(=C(C(=C6)O)O)O)O

> <PUBCHEM_CACTVS_TPSA>
261

> <PUBCHEM_MONOISOTOPIC_WEIGHT>
610.132256

> <PUBCHEM_TOTAL_CHARGE>
0

> <PUBCHEM_HEAVY_ATOM_COUNT>
44

> <PUBCHEM_ATOM_DEF_STEREO_COUNT>
5

> <PUBCHEM_ATOM_UDEF_STEREO_COUNT>
0

> <PUBCHEM_BOND_DEF_STEREO_COUNT>
0

> <PUBCHEM_BOND_UDEF_STEREO_COUNT>
0

> <PUBCHEM_ISOTOPIC_ATOM_COUNT>
0

> <PUBCHEM_COMPONENT_COUNT>
1

> <PUBCHEM_CACTVS_TAUTO_COUNT>
998

> <PUBCHEM_COORDINATE_TYPE>
1
5
255

> <PUBCHEM_BONDANNOTATIONS>
15  45  5
17  20  8
17  26  8
18  27  6
19  25  8
19  29  8
20  21  8
21  28  8
23  31  5
25  32  8
26  30  8
27  34  8
27  35  8
28  30  8
29  33  8
16  3  5
31  37  8
31  38  8
32  36  8
33  36  8
34  40  8
35  39  8
37  43  8
38  42  8
39  41  8
22  4  5
40  41  8
42  44  8
43  44  8

$$$$

