43495
  -OEChem-07051213112D

 21 23  0     0  0  0  0  0  0999 V2000
    7.6271    1.7298    0.0000 Cl  0  0  0  0  0  0  0  0  0  0  0  0
    3.3823    1.7298    0.0000 Cl  0  0  0  0  0  0  0  0  0  0  0  0
    8.3764   -1.7298    0.0000 Cl  0  0  0  0  0  0  0  0  0  0  0  0
    2.6330   -1.7298    0.0000 Cl  0  0  0  0  0  0  0  0  0  0  0  0
    2.0000    0.2182    0.0000 Cl  0  0  0  0  0  0  0  0  0  0  0  0
    9.0094    0.2182    0.0000 Cl  0  0  0  0  0  0  0  0  0  0  0  0
    5.5047    1.1308    0.0000 O   0  0  0  0  0  0  0  0  0  0  0  0
    6.0047   -0.4081    0.0000 C   0  0  0  0  0  0  0  0  0  0  0  0
    5.0047   -0.4081    0.0000 C   0  0  0  0  0  0  0  0  0  0  0  0
    6.3137    0.5430    0.0000 C   0  0  0  0  0  0  0  0  0  0  0  0
    4.6957    0.5430    0.0000 C   0  0  0  0  0  0  0  0  0  0  0  0
    4.3197   -1.1928    0.0000 C   0  0  0  0  0  0  0  0  0  0  0  0
    6.6897   -1.1928    0.0000 C   0  0  0  0  0  0  0  0  0  0  0  0
    7.3291    0.7752    0.0000 C   0  0  0  0  0  0  0  0  0  0  0  0
    3.6803    0.7752    0.0000 C   0  0  0  0  0  0  0  0  0  0  0  0
    7.7102   -0.9841    0.0000 C   0  0  0  0  0  0  0  0  0  0  0  0
    3.2992   -0.9841    0.0000 C   0  0  0  0  0  0  0  0  0  0  0  0
    8.0321    0.0066    0.0000 C   0  0  0  0  0  0  0  0  0  0  0  0
    2.9773    0.0066    0.0000 C   0  0  0  0  0  0  0  0  0  0  0  0
    6.4913   -1.7802    0.0000 H   0  0  0  0  0  0  0  0  0  0  0  0
    4.5181   -1.7802    0.0000 H   0  0  0  0  0  0  0  0  0  0  0  0
  1 14  1  0  0  0  0
  2 15  1  0  0  0  0
  3 16  1  0  0  0  0
  4 17  1  0  0  0  0
  5 19  1  0  0  0  0
  6 18  1  0  0  0  0
  7 10  1  0  0  0  0
  7 11  1  0  0  0  0
  8  9  1  0  0  0  0
  8 10  1  0  0  0  0
  8 13  2  0  0  0  0
  9 11  1  0  0  0  0
  9 12  2  0  0  0  0
 10 14  2  0  0  0  0
 11 15  2  0  0  0  0
 12 17  1  0  0  0  0
 12 21  1  0  0  0  0
 13 16  1  0  0  0  0
 13 20  1  0  0  0  0
 14 18  1  0  0  0  0
 15 19  1  0  0  0  0
 16 18  2  0  0  0  0
 17 19  2  0  0  0  0
M  END
> <PUBCHEM_COMPOUND_CID>
43495

> <PUBCHEM_COMPOUND_CANONICALIZED>
1

> <PUBCHEM_CACTVS_COMPLEXITY>
323

> <PUBCHEM_CACTVS_HBOND_ACCEPTOR>
1

> <PUBCHEM_CACTVS_HBOND_DONOR>
0

> <PUBCHEM_CACTVS_ROTATABLE_BOND>
0

> <PUBCHEM_CACTVS_SUBSKEYS>
AAADcQBwIAAHAAAAAAAAAAAAAAAAASAAAAAwYAAAAAAAAEgB/AAAGgIAAAAADAaAmCAwBsAABECIAqBSAAACCAAkJUAAikEEC8hMJjOFNhqCOSCkwBEIrYeIyOCOhCAAIQCICAQIQABCARAQCAAAAAAAAA==

> <PUBCHEM_IUPAC_OPENEYE_NAME>
2,3,4,6,7,8-hexachlorodibenzofuran

> <PUBCHEM_IUPAC_CAS_NAME>
2,3,4,6,7,8-hexachlorodibenzofuran

> <PUBCHEM_IUPAC_NAME>
2,3,4,6,7,8-hexachlorodibenzofuran

> <PUBCHEM_IUPAC_SYSTEMATIC_NAME>
2,3,4,6,7,8-hexakis(chloranyl)dibenzofuran

> <PUBCHEM_IUPAC_TRADITIONAL_NAME>
2,3,4,6,7,8-hexachlorodibenzofuran

> <PUBCHEM_IUPAC_INCHI>
InChI=1S/C12H2Cl6O/c13-5-1-3-4-2-6(14)8(16)10(18)12(4)19-11(3)9(17)7(5)15/h1-2H

> <PUBCHEM_IUPAC_INCHIKEY>
XTAHLACQOVXINQ-UHFFFAOYSA-N

> <PUBCHEM_XLOGP3>
7.1

> <PUBCHEM_EXACT_MASS>
373.820731

> <PUBCHEM_MOLECULAR_FORMULA>
C12H2Cl6O

> <PUBCHEM_MOLECULAR_WEIGHT>
374.86168

> <PUBCHEM_OPENEYE_CAN_SMILES>
C1=C2C3=CC(=C(C(=C3OC2=C(C(=C1Cl)Cl)Cl)Cl)Cl)Cl

> <PUBCHEM_OPENEYE_ISO_SMILES>
C1=C2C3=CC(=C(C(=C3OC2=C(C(=C1Cl)Cl)Cl)Cl)Cl)Cl

> <PUBCHEM_CACTVS_TPSA>
13.1

> <PUBCHEM_MONOISOTOPIC_WEIGHT>
371.823681

> <PUBCHEM_TOTAL_CHARGE>
0

> <PUBCHEM_HEAVY_ATOM_COUNT>
19

> <PUBCHEM_ATOM_DEF_STEREO_COUNT>
0

> <PUBCHEM_ATOM_UDEF_STEREO_COUNT>
0

> <PUBCHEM_BOND_DEF_STEREO_COUNT>
0

> <PUBCHEM_BOND_UDEF_STEREO_COUNT>
0

> <PUBCHEM_ISOTOPIC_ATOM_COUNT>
0

> <PUBCHEM_COMPONENT_COUNT>
1

> <PUBCHEM_CACTVS_TAUTO_COUNT>
1

> <PUBCHEM_COORDINATE_TYPE>
1
5
255

> <PUBCHEM_BONDANNOTATIONS>
10  14  8
11  15  8
12  17  8
13  16  8
14  18  8
15  19  8
16  18  8
17  19  8
7  10  8
7  11  8
8  10  8
8  13  8
8  9  8
9  11  8
9  12  8

$$$$

