17396141
  -OEChem-06241222542D

 42 44  0     1  0  0  0  0  0999 V2000
    5.4641    1.5945    0.0000 S   0  0  0  0  0  0  0  0  0  0  0  0
    2.0000   -2.4055    0.0000 F   0  0  0  0  0  0  0  0  0  0  0  0
    3.7320   -5.4055    0.0000 F   0  0  0  0  0  0  0  0  0  0  0  0
    3.7320    0.5945    0.0000 O   0  0  0  0  0  0  0  0  0  0  0  0
    4.5981   -0.9055    0.0000 N   0  0  0  0  0  0  0  0  0  0  0  0
    6.4347    3.0891    0.0000 N   0  0  0  0  0  0  0  0  0  0  0  0
    7.2437    1.6878    0.0000 N   0  0  0  0  0  0  0  0  0  0  0  0
    7.9128    2.4309    0.0000 N   0  0  0  0  0  0  0  0  0  0  0  0
    3.7320   -1.4055    0.0000 C   0  0  3  0  0  0  0  0  0  0  0  0
    3.7320   -2.4055    0.0000 C   0  0  0  0  0  0  0  0  0  0  0  0
    2.8660   -0.9055    0.0000 C   0  0  0  0  0  0  0  0  0  0  0  0
    2.8660   -2.9055    0.0000 C   0  0  0  0  0  0  0  0  0  0  0  0
    4.5981   -2.9055    0.0000 C   0  0  0  0  0  0  0  0  0  0  0  0
    4.5981    0.0945    0.0000 C   0  0  0  0  0  0  0  0  0  0  0  0
    5.4641    0.5945    0.0000 C   0  0  0  0  0  0  0  0  0  0  0  0
    2.8660   -3.9055    0.0000 C   0  0  0  0  0  0  0  0  0  0  0  0
    4.5981   -3.9055    0.0000 C   0  0  0  0  0  0  0  0  0  0  0  0
    5.6915    3.7582    0.0000 C   0  0  0  0  0  0  0  0  0  0  0  0
    3.7320   -4.4055    0.0000 C   0  0  0  0  0  0  0  0  0  0  0  0
    6.3301    2.0945    0.0000 C   0  0  0  0  0  0  0  0  0  0  0  0
    5.8994    4.7363    0.0000 C   0  0  0  0  0  0  0  0  0  0  0  0
    4.7404    3.4492    0.0000 C   0  0  0  0  0  0  0  0  0  0  0  0
    7.4128    3.2970    0.0000 C   0  0  0  0  0  0  0  0  0  0  0  0
    5.1563    5.4055    0.0000 C   0  0  0  0  0  0  0  0  0  0  0  0
    3.9973    4.1183    0.0000 C   0  0  0  0  0  0  0  0  0  0  0  0
    4.2052    5.0964    0.0000 C   0  0  0  0  0  0  0  0  0  0  0  0
    3.7320   -0.7855    0.0000 H   0  0  0  0  0  0  0  0  0  0  0  0
    5.1350   -1.2155    0.0000 H   0  0  0  0  0  0  0  0  0  0  0  0
    3.1760   -0.3685    0.0000 H   0  0  0  0  0  0  0  0  0  0  0  0
    2.3291   -0.5955    0.0000 H   0  0  0  0  0  0  0  0  0  0  0  0
    2.5560   -1.4424    0.0000 H   0  0  0  0  0  0  0  0  0  0  0  0
    5.1350   -2.5955    0.0000 H   0  0  0  0  0  0  0  0  0  0  0  0
    5.6762    0.0119    0.0000 H   0  0  0  0  0  0  0  0  0  0  0  0
    6.0747    0.7022    0.0000 H   0  0  0  0  0  0  0  0  0  0  0  0
    2.3291   -4.2155    0.0000 H   0  0  0  0  0  0  0  0  0  0  0  0
    5.1350   -4.2155    0.0000 H   0  0  0  0  0  0  0  0  0  0  0  0
    6.4891    4.9279    0.0000 H   0  0  0  0  0  0  0  0  0  0  0  0
    4.6116    2.8427    0.0000 H   0  0  0  0  0  0  0  0  0  0  0  0
    7.6650    3.8634    0.0000 H   0  0  0  0  0  0  0  0  0  0  0  0
    5.2852    6.0119    0.0000 H   0  0  0  0  0  0  0  0  0  0  0  0
    3.4076    3.9267    0.0000 H   0  0  0  0  0  0  0  0  0  0  0  0
    3.7445    5.5113    0.0000 H   0  0  0  0  0  0  0  0  0  0  0  0
  1 15  1  0  0  0  0
  1 20  1  0  0  0  0
  2 12  1  0  0  0  0
  3 19  1  0  0  0  0
  4 14  2  0  0  0  0
  5  9  1  0  0  0  0
  5 14  1  0  0  0  0
  5 28  1  0  0  0  0
  6 18  1  0  0  0  0
  6 20  1  0  0  0  0
  6 23  1  0  0  0  0
  7  8  1  0  0  0  0
  7 20  2  0  0  0  0
  8 23  2  0  0  0  0
  9 10  1  0  0  0  0
  9 11  1  0  0  0  0
  9 27  1  0  0  0  0
 10 12  2  0  0  0  0
 10 13  1  0  0  0  0
 11 29  1  0  0  0  0
 11 30  1  0  0  0  0
 11 31  1  0  0  0  0
 12 16  1  0  0  0  0
 13 17  2  0  0  0  0
 13 32  1  0  0  0  0
 14 15  1  0  0  0  0
 15 33  1  0  0  0  0
 15 34  1  0  0  0  0
 16 19  2  0  0  0  0
 16 35  1  0  0  0  0
 17 19  1  0  0  0  0
 17 36  1  0  0  0  0
 18 21  2  0  0  0  0
 18 22  1  0  0  0  0
 21 24  1  0  0  0  0
 21 37  1  0  0  0  0
 22 25  2  0  0  0  0
 22 38  1  0  0  0  0
 23 39  1  0  0  0  0
 24 26  2  0  0  0  0
 24 40  1  0  0  0  0
 25 26  1  0  0  0  0
 25 41  1  0  0  0  0
 26 42  1  0  0  0  0
M  END
> <PUBCHEM_COMPOUND_CID>
17396141

> <PUBCHEM_COMPOUND_CANONICALIZED>
1

> <PUBCHEM_CACTVS_COMPLEXITY>
467

> <PUBCHEM_CACTVS_HBOND_ACCEPTOR>
6

> <PUBCHEM_CACTVS_HBOND_DONOR>
1

> <PUBCHEM_CACTVS_ROTATABLE_BOND>
6

> <PUBCHEM_CACTVS_SUBSKEYS>
AAADceB7oYBAAAAAAAAAAAAAAAAAAWAAAAAwYAAAAAAAAAAB0AAAHwQYAAAADCjF2Ay30IfMEAiqAiVTdACSUCtxgpANyIAIZIiIKCLAmZGEIAhglgLIyCcQgIAOAAAAAAAAAAAAAAAAAAAAAAAAAAAAAA==

> <PUBCHEM_IUPAC_OPENEYE_NAME>
N-[1-(2,4-difluorophenyl)ethyl]-2-[(4-phenyl-1,2,4-triazol-3-yl)sulfanyl]acetamide

> <PUBCHEM_IUPAC_CAS_NAME>
N-[1-(2,4-difluorophenyl)ethyl]-2-[(4-phenyl-1,2,4-triazol-3-yl)thio]acetamide

> <PUBCHEM_IUPAC_NAME>
N-[1-(2,4-difluorophenyl)ethyl]-2-[(4-phenyl-1,2,4-triazol-3-yl)sulfanyl]acetamide

> <PUBCHEM_IUPAC_SYSTEMATIC_NAME>
N-[1-[2,4-bis(fluoranyl)phenyl]ethyl]-2-[(4-phenyl-1,2,4-triazol-3-yl)sulfanyl]ethanamide

> <PUBCHEM_IUPAC_TRADITIONAL_NAME>
N-[1-(2,4-difluorophenyl)ethyl]-2-[(4-phenyl-1,2,4-triazol-3-yl)thio]acetamide

> <PUBCHEM_IUPAC_INCHI>
InChI=1S/C18H16F2N4OS/c1-12(15-8-7-13(19)9-16(15)20)22-17(25)10-26-18-23-21-11-24(18)14-5-3-2-4-6-14/h2-9,11-12H,10H2,1H3,(H,22,25)

> <PUBCHEM_IUPAC_INCHIKEY>
ZXIPGSWBYXWOAW-UHFFFAOYSA-N

> <PUBCHEM_XLOGP3_AA>
3.4

> <PUBCHEM_EXACT_MASS>
374.101289

> <PUBCHEM_MOLECULAR_FORMULA>
C18H16F2N4OS

> <PUBCHEM_MOLECULAR_WEIGHT>
374.407646

> <PUBCHEM_OPENEYE_CAN_SMILES>
CC(C1=C(C=C(C=C1)F)F)NC(=O)CSC2=NN=CN2C3=CC=CC=C3

> <PUBCHEM_OPENEYE_ISO_SMILES>
CC(C1=C(C=C(C=C1)F)F)NC(=O)CSC2=NN=CN2C3=CC=CC=C3

> <PUBCHEM_CACTVS_TPSA>
85.1

> <PUBCHEM_MONOISOTOPIC_WEIGHT>
374.101289

> <PUBCHEM_TOTAL_CHARGE>
0

> <PUBCHEM_HEAVY_ATOM_COUNT>
26

> <PUBCHEM_ATOM_DEF_STEREO_COUNT>
0

> <PUBCHEM_ATOM_UDEF_STEREO_COUNT>
1

> <PUBCHEM_BOND_DEF_STEREO_COUNT>
0

> <PUBCHEM_BOND_UDEF_STEREO_COUNT>
0

> <PUBCHEM_ISOTOPIC_ATOM_COUNT>
0

> <PUBCHEM_COMPONENT_COUNT>
1

> <PUBCHEM_CACTVS_TAUTO_COUNT>
2

> <PUBCHEM_COORDINATE_TYPE>
1
5
255

> <PUBCHEM_BONDANNOTATIONS>
10  12  8
10  13  8
12  16  8
13  17  8
16  19  8
17  19  8
18  21  8
18  22  8
21  24  8
22  25  8
24  26  8
25  26  8
6  20  8
6  23  8
7  20  8
7  8  8
8  23  8
9  11  3

$$$$

