   Color/Form

     * Colorless fuming liquid
     * Colorless liquid [Note: Often used in an aqueous solution].

   from [1]HSDB

   Odor
        Pungent, penetrating odor.
   from [2]HSDB

   Taste
        SOUR
   from [3]HSDB

   Boiling Point
        100.8 deg C
   from [4]HSDB

   Melting Point
        8.4 deg C
   from [5]HSDB

   Corrosivity
        Corrosive to metals
   from [6]HSDB

   Critical Temperature and Pressure
        Critical temperature = 588 K
   from [7]HSDB

   Density/Specific Gravity
        1.220 at 20 deg C/4 deg C
   from [8]HSDB

   Dissociation Constants
        pKa = 3.75 at 20 deg C
   from [9]HSDB

   Heat of Combustion
        254.6 kJ/mol at 25 deg c (liquid)
   from [10]HSDB

   Heat of Vaporization
        20.10 kJ/mol at 25 deg C
   from [11]HSDB

   Octanol/Water Partition Coefficient
        log Kow = -0.54
   from [12]HSDB

   Solubilities

     * Miscible with ether, acetone, ethyl acetate, methanol, ethanol.
       Partially soluble in benzene, toluene, xylenes.
     * Dissolves to the extent of about 10% in benzene, toluene, and
       xylenes, and to a lesser extent in aliphatic hydrocarbons.
     * Miscible in water

   from [13]HSDB

   Spectral Properties

     * MAX ABSORPTION (UNDILUTED): 205 NM (EPSILON= 165)
     * Index of refraction: 1.3714 at 20 deg C/D
     * IR: 15 (Sadtler Research Laboratories IR Grating Collection)
     * 1H NMR: 6653 (Sadtler Research Laboratories Spectral Collection)
     * MASS: 49305 (NIST/EPA/MSDC Mass Spectral Database 1990 version)

   from [14]HSDB

   Surface Tension
        37.13 mN/m at 25 deg C
   from [15]HSDB

   Vapor Density
        1.59 (Air = 1)
   from [16]HSDB

   Vapor Pressure
        42.59 mm Hg at 25 deg C /Extrapolated/
   from [17]HSDB

   Relative Evaporation Rate
        2.1 (butyl acetate = 1)
   from [18]HSDB

   Viscosity
        1.607 mPas at 25 deg C
   from [19]HSDB

   Other Chemical/Physical Properties

     * Strong reducing agent.
     * Bulk density 10.16 lb/gal at 20 deg C
     * Density of saturated air: 1.03
     * Heat of Fusion: 12.68 kJ/mol
     * Heat capacity: 99.0 J/mol-K at 25 deg C
     * Dielectric constant: 57.9 at 20 deg C
     * May act both as an acid and as an aldehyde because the carboxyl is
       bound to a hydrogen rather than an alkyl group
     * Ionization potential: 11.33 eV
     * Concentration in saturated air: 80 g/cu m at 20 deg C
     * Heat of formation = -425.0 kJ/mol
     * Henry's Law constant = 1.67X10-7 atm-cu m/mol at 25 deg C [Gaffney
       JS et al; Environ Sci Technol 21: 519-24 (1987)] [20]PubMed
       Abstract
     * Hydroxyl radical reaction rate constant= 4.50X10-13 cu
       cm/(molecule-sec) at 25 deg C

   from [21]HSDB

   Computed Properties
   Molecular Weight                  46.02538 [g/mol]
   Molecular Formula                 CH[2]O[2]
   XLogP3-AA                         -0.2
   H-Bond Donor                      1
   H-Bond Acceptor                   2
   Rotatable Bond Count              0
   Exact Mass                        46.005479
   MonoIsotopic Mass                 46.005479
   Topological Polar Surface Area    37.3
   Heavy Atom Count                  3
   Formal Charge                     0
   Complexity                        10.3
   Isotope Atom Count                0
   Defined Atom Stereocenter Count   0
   Undefined Atom Stereocenter Count 0
   Defined Bond Stereocenter Count   0
   Undefined Bond Stereocenter Count 0
   Covalently-Bonded Unit Count      1
   Feature 3D Acceptor Count         2
   Feature 3D Anion Count            1
   Effective Rotor Count             0
   Conformer Sampling RMSD           0.4
   CID Conformer Count               [22]1

References

   1. http://toxnet.nlm.nih.gov/cgi-bin/sis/search/r?dbs+hsdb:@term+@rn+@rel+64-18-6
   2. http://toxnet.nlm.nih.gov/cgi-bin/sis/search/r?dbs+hsdb:@term+@rn+@rel+64-18-6
   3. http://toxnet.nlm.nih.gov/cgi-bin/sis/search/r?dbs+hsdb:@term+@rn+@rel+64-18-6
   4. http://toxnet.nlm.nih.gov/cgi-bin/sis/search/r?dbs+hsdb:@term+@rn+@rel+64-18-6
   5. http://toxnet.nlm.nih.gov/cgi-bin/sis/search/r?dbs+hsdb:@term+@rn+@rel+64-18-6
   6. http://toxnet.nlm.nih.gov/cgi-bin/sis/search/r?dbs+hsdb:@term+@rn+@rel+64-18-6
   7. http://toxnet.nlm.nih.gov/cgi-bin/sis/search/r?dbs+hsdb:@term+@rn+@rel+64-18-6
   8. http://toxnet.nlm.nih.gov/cgi-bin/sis/search/r?dbs+hsdb:@term+@rn+@rel+64-18-6
   9. http://toxnet.nlm.nih.gov/cgi-bin/sis/search/r?dbs+hsdb:@term+@rn+@rel+64-18-6
  10. http://toxnet.nlm.nih.gov/cgi-bin/sis/search/r?dbs+hsdb:@term+@rn+@rel+64-18-6
  11. http://toxnet.nlm.nih.gov/cgi-bin/sis/search/r?dbs+hsdb:@term+@rn+@rel+64-18-6
  12. http://toxnet.nlm.nih.gov/cgi-bin/sis/search/r?dbs+hsdb:@term+@rn+@rel+64-18-6
  13. http://toxnet.nlm.nih.gov/cgi-bin/sis/search/r?dbs+hsdb:@term+@rn+@rel+64-18-6
  14. http://toxnet.nlm.nih.gov/cgi-bin/sis/search/r?dbs+hsdb:@term+@rn+@rel+64-18-6
  15. http://toxnet.nlm.nih.gov/cgi-bin/sis/search/r?dbs+hsdb:@term+@rn+@rel+64-18-6
  16. http://toxnet.nlm.nih.gov/cgi-bin/sis/search/r?dbs+hsdb:@term+@rn+@rel+64-18-6
  17. http://toxnet.nlm.nih.gov/cgi-bin/sis/search/r?dbs+hsdb:@term+@rn+@rel+64-18-6
  18. http://toxnet.nlm.nih.gov/cgi-bin/sis/search/r?dbs+hsdb:@term+@rn+@rel+64-18-6
  19. http://toxnet.nlm.nih.gov/cgi-bin/sis/search/r?dbs+hsdb:@term+@rn+@rel+64-18-6
  20. http://www.ncbi.nlm.nih.gov/entrez/query.fcgi?cmd=Retrieve&db=pubmed&dopt=Abstract&list_uids=19994967
  21. http://toxnet.nlm.nih.gov/cgi-bin/sis/search/r?dbs+hsdb:@term+@rn+@rel+64-18-6
  22. http://pubchem.ncbi.nlm.nih.gov/vw3d/vw3d.cgi?cid=284
