93200
  -OEChem-07051213132D

 44 43  0     0  0  0  0  0  0999 V2000
    6.8301   -3.4641    0.0000 Cl  0  0  0  0  0  0  0  0  0  0  0  0
    6.3301   -0.8660    0.0000 Si  0  0  0  0  0  0  0  0  0  0  0  0
    7.1962   -0.3660    0.0000 O   0  0  0  0  0  0  0  0  0  0  0  0
    5.4641   -1.3660    0.0000 O   0  0  0  0  0  0  0  0  0  0  0  0
    5.8301    0.0000    0.0000 O   0  0  0  0  0  0  0  0  0  0  0  0
    9.7942   -0.8660    0.0000 O   0  0  0  0  0  0  0  0  0  0  0  0
    2.8660   -0.8660    0.0000 O   0  0  0  0  0  0  0  0  0  0  0  0
    6.3301    2.5981    0.0000 O   0  0  0  0  0  0  0  0  0  0  0  0
    6.8301   -1.7320    0.0000 C   0  0  0  0  0  0  0  0  0  0  0  0
    6.3301   -2.5981    0.0000 C   0  0  0  0  0  0  0  0  0  0  0  0
    6.3301    0.8660    0.0000 C   0  0  0  0  0  0  0  0  0  0  0  0
    4.5981   -0.8660    0.0000 C   0  0  0  0  0  0  0  0  0  0  0  0
    8.0622   -0.8660    0.0000 C   0  0  0  0  0  0  0  0  0  0  0  0
    8.9282   -0.3660    0.0000 C   0  0  0  0  0  0  0  0  0  0  0  0
    3.7320   -1.3660    0.0000 C   0  0  0  0  0  0  0  0  0  0  0  0
    5.8301    1.7320    0.0000 C   0  0  0  0  0  0  0  0  0  0  0  0
   10.6603   -0.3660    0.0000 C   0  0  0  0  0  0  0  0  0  0  0  0
    2.0000   -1.3660    0.0000 C   0  0  0  0  0  0  0  0  0  0  0  0
    5.8301    3.4641    0.0000 C   0  0  0  0  0  0  0  0  0  0  0  0
    7.3051   -2.1306    0.0000 H   0  0  0  0  0  0  0  0  0  0  0  0
    7.3051   -1.3335    0.0000 H   0  0  0  0  0  0  0  0  0  0  0  0
    5.8552   -2.1996    0.0000 H   0  0  0  0  0  0  0  0  0  0  0  0
    5.8552   -2.9966    0.0000 H   0  0  0  0  0  0  0  0  0  0  0  0
    7.6636   -1.3410    0.0000 H   0  0  0  0  0  0  0  0  0  0  0  0
    8.4607   -1.3410    0.0000 H   0  0  0  0  0  0  0  0  0  0  0  0
    4.9966   -0.3911    0.0000 H   0  0  0  0  0  0  0  0  0  0  0  0
    4.1996   -0.3911    0.0000 H   0  0  0  0  0  0  0  0  0  0  0  0
    6.8051    0.4675    0.0000 H   0  0  0  0  0  0  0  0  0  0  0  0
    6.8051    1.2646    0.0000 H   0  0  0  0  0  0  0  0  0  0  0  0
    5.3552    2.1306    0.0000 H   0  0  0  0  0  0  0  0  0  0  0  0
    5.3552    1.3335    0.0000 H   0  0  0  0  0  0  0  0  0  0  0  0
    3.3335   -1.8410    0.0000 H   0  0  0  0  0  0  0  0  0  0  0  0
    4.1306   -1.8410    0.0000 H   0  0  0  0  0  0  0  0  0  0  0  0
    9.3267    0.1089    0.0000 H   0  0  0  0  0  0  0  0  0  0  0  0
    8.5297    0.1089    0.0000 H   0  0  0  0  0  0  0  0  0  0  0  0
   10.9703   -0.9030    0.0000 H   0  0  0  0  0  0  0  0  0  0  0  0
   11.1972   -0.0560    0.0000 H   0  0  0  0  0  0  0  0  0  0  0  0
   10.3503    0.1709    0.0000 H   0  0  0  0  0  0  0  0  0  0  0  0
    1.6900   -0.8291    0.0000 H   0  0  0  0  0  0  0  0  0  0  0  0
    1.4631   -1.6760    0.0000 H   0  0  0  0  0  0  0  0  0  0  0  0
    2.3100   -1.9030    0.0000 H   0  0  0  0  0  0  0  0  0  0  0  0
    6.3671    3.7741    0.0000 H   0  0  0  0  0  0  0  0  0  0  0  0
    5.5201    4.0010    0.0000 H   0  0  0  0  0  0  0  0  0  0  0  0
    5.2932    3.1541    0.0000 H   0  0  0  0  0  0  0  0  0  0  0  0
  1 10  1  0  0  0  0
  2  3  1  0  0  0  0
  2  4  1  0  0  0  0
  2  5  1  0  0  0  0
  2  9  1  0  0  0  0
  3 13  1  0  0  0  0
  4 12  1  0  0  0  0
  5 11  1  0  0  0  0
  6 14  1  0  0  0  0
  6 17  1  0  0  0  0
  7 15  1  0  0  0  0
  7 18  1  0  0  0  0
  8 16  1  0  0  0  0
  8 19  1  0  0  0  0
  9 10  1  0  0  0  0
  9 20  1  0  0  0  0
  9 21  1  0  0  0  0
 10 22  1  0  0  0  0
 10 23  1  0  0  0  0
 11 16  1  0  0  0  0
 11 28  1  0  0  0  0
 11 29  1  0  0  0  0
 12 15  1  0  0  0  0
 12 26  1  0  0  0  0
 12 27  1  0  0  0  0
 13 14  1  0  0  0  0
 13 24  1  0  0  0  0
 13 25  1  0  0  0  0
 14 34  1  0  0  0  0
 14 35  1  0  0  0  0
 15 32  1  0  0  0  0
 15 33  1  0  0  0  0
 16 30  1  0  0  0  0
 16 31  1  0  0  0  0
 17 36  1  0  0  0  0
 17 37  1  0  0  0  0
 17 38  1  0  0  0  0
 18 39  1  0  0  0  0
 18 40  1  0  0  0  0
 18 41  1  0  0  0  0
 19 42  1  0  0  0  0
 19 43  1  0  0  0  0
 19 44  1  0  0  0  0
M  END
> <PUBCHEM_COMPOUND_CID>
93200

> <PUBCHEM_COMPOUND_CANONICALIZED>
1

> <PUBCHEM_CACTVS_COMPLEXITY>
172

> <PUBCHEM_CACTVS_HBOND_ACCEPTOR>
6

> <PUBCHEM_CACTVS_HBOND_DONOR>
0

> <PUBCHEM_CACTVS_ROTATABLE_BOND>
14

> <PUBCHEM_CACTVS_SUBSKEYS>
AAADceBwOAgEAAAAAAAAAAAAAAAAAAAAAAAAAAAAAAAAAAAAAAAAGhIAAEAAAAOgoEJCAAAABAAAAAAAAAAAAAAAAAAAAAAAAAABAAAAAAAAAAAAAAACAAAAAAAAAAAAAAAAAAAAAAAAAAAAAAAAAAAAAA==

> <PUBCHEM_IUPAC_OPENEYE_NAME>
2-chloroethyl-tris(2-methoxyethoxy)silane

> <PUBCHEM_IUPAC_CAS_NAME>
2-chloroethyl-tris(2-methoxyethoxy)silane

> <PUBCHEM_IUPAC_NAME>
2-chloroethyl-tris(2-methoxyethoxy)silane

> <PUBCHEM_IUPAC_SYSTEMATIC_NAME>
2-chloroethyl-tris(2-methoxyethoxy)silane

> <PUBCHEM_IUPAC_TRADITIONAL_NAME>
2-chloroethyl-tris(2-methoxyethoxy)silane

> <PUBCHEM_IUPAC_INCHI>
InChI=1S/C11H25ClO6Si/c1-13-5-8-16-19(11-4-12,17-9-6-14-2)18-10-7-15-3/h4-11H2,1-3H3

> <PUBCHEM_IUPAC_INCHIKEY>
SLZWEMYSYKOWCG-UHFFFAOYSA-N

> <PUBCHEM_EXACT_MASS>
316.110893

> <PUBCHEM_MOLECULAR_FORMULA>
C11H25ClO6Si

> <PUBCHEM_MOLECULAR_WEIGHT>
316.8511

> <PUBCHEM_OPENEYE_CAN_SMILES>
COCCO[Si](CCCl)(OCCOC)OCCOC

> <PUBCHEM_OPENEYE_ISO_SMILES>
COCCO[Si](CCCl)(OCCOC)OCCOC

> <PUBCHEM_CACTVS_TPSA>
55.4

> <PUBCHEM_MONOISOTOPIC_WEIGHT>
316.110893

> <PUBCHEM_TOTAL_CHARGE>
0

> <PUBCHEM_HEAVY_ATOM_COUNT>
19

> <PUBCHEM_ATOM_DEF_STEREO_COUNT>
0

> <PUBCHEM_ATOM_UDEF_STEREO_COUNT>
0

> <PUBCHEM_BOND_DEF_STEREO_COUNT>
0

> <PUBCHEM_BOND_UDEF_STEREO_COUNT>
0

> <PUBCHEM_ISOTOPIC_ATOM_COUNT>
0

> <PUBCHEM_COMPONENT_COUNT>
1

> <PUBCHEM_CACTVS_TAUTO_COUNT>
1

> <PUBCHEM_COORDINATE_TYPE>
1
5
255

$$$$

