5357444
  -OEChem-07051213062D

 41 43  0     0  0  0  0  0  0999 V2000
    7.1962    2.2327    0.0000 O   0  0  0  0  0  0  0  0  0  0  0  0
    5.4641    2.2327    0.0000 O   0  0  0  0  0  0  0  0  0  0  0  0
   10.7263    2.2568    0.0000 O   0  0  0  0  0  0  0  0  0  0  0  0
    2.8660   -1.2673    0.0000 O   0  0  0  0  0  0  0  0  0  0  0  0
    7.1962    0.2327    0.0000 C   0  0  0  0  0  0  0  0  0  0  0  0
    7.1962   -0.7673    0.0000 C   0  0  0  0  0  0  0  0  0  0  0  0
    8.0622    0.7327    0.0000 C   0  0  0  0  0  0  0  0  0  0  0  0
    6.3301    0.7327    0.0000 C   0  0  0  0  0  0  0  0  0  0  0  0
    8.0622   -1.2673    0.0000 C   0  0  0  0  0  0  0  0  0  0  0  0
    8.0622    1.7327    0.0000 C   0  0  0  0  0  0  0  0  0  0  0  0
    5.4641    0.2327    0.0000 C   0  0  0  0  0  0  0  0  0  0  0  0
    6.3301    1.7327    0.0000 C   0  0  0  0  0  0  0  0  0  0  0  0
    8.9561    0.1980    0.0000 C   0  0  0  0  0  0  0  0  0  0  0  0
    8.0622   -2.2673    0.0000 C   0  0  0  0  0  0  0  0  0  0  0  0
    8.9561    2.2673    0.0000 C   0  0  0  0  0  0  0  0  0  0  0  0
    4.5981    0.7327    0.0000 C   0  0  0  0  0  0  0  0  0  0  0  0
    5.4641   -0.7673    0.0000 C   0  0  0  0  0  0  0  0  0  0  0  0
    9.8622    0.7119    0.0000 C   0  0  0  0  0  0  0  0  0  0  0  0
    9.8622    1.7535    0.0000 C   0  0  0  0  0  0  0  0  0  0  0  0
    3.7320    0.2327    0.0000 C   0  0  0  0  0  0  0  0  0  0  0  0
    4.5981   -1.2673    0.0000 C   0  0  0  0  0  0  0  0  0  0  0  0
    3.7320   -0.7673    0.0000 C   0  0  0  0  0  0  0  0  0  0  0  0
    2.0000   -0.7673    0.0000 C   0  0  0  0  0  0  0  0  0  0  0  0
    6.5856   -0.6597    0.0000 H   0  0  0  0  0  0  0  0  0  0  0  0
    6.9841   -1.3499    0.0000 H   0  0  0  0  0  0  0  0  0  0  0  0
    8.6728   -1.3750    0.0000 H   0  0  0  0  0  0  0  0  0  0  0  0
    8.2742   -0.6847    0.0000 H   0  0  0  0  0  0  0  0  0  0  0  0
    8.9490   -0.4220    0.0000 H   0  0  0  0  0  0  0  0  0  0  0  0
    7.4422   -2.2673    0.0000 H   0  0  0  0  0  0  0  0  0  0  0  0
    8.0622   -2.8873    0.0000 H   0  0  0  0  0  0  0  0  0  0  0  0
    8.6822   -2.2673    0.0000 H   0  0  0  0  0  0  0  0  0  0  0  0
    8.9490    2.8873    0.0000 H   0  0  0  0  0  0  0  0  0  0  0  0
    4.5981    1.3527    0.0000 H   0  0  0  0  0  0  0  0  0  0  0  0
    6.0010   -1.0773    0.0000 H   0  0  0  0  0  0  0  0  0  0  0  0
   10.3979    0.3998    0.0000 H   0  0  0  0  0  0  0  0  0  0  0  0
    3.1951    0.5427    0.0000 H   0  0  0  0  0  0  0  0  0  0  0  0
    4.5981   -1.8873    0.0000 H   0  0  0  0  0  0  0  0  0  0  0  0
   11.2644    1.9489    0.0000 H   0  0  0  0  0  0  0  0  0  0  0  0
    2.3100   -0.2304    0.0000 H   0  0  0  0  0  0  0  0  0  0  0  0
    1.4631   -0.4573    0.0000 H   0  0  0  0  0  0  0  0  0  0  0  0
    1.6900   -1.3043    0.0000 H   0  0  0  0  0  0  0  0  0  0  0  0
  1 10  1  0  0  0  0
  1 12  1  0  0  0  0
  2 12  2  0  0  0  0
  3 19  1  0  0  0  0
  3 38  1  0  0  0  0
  4 22  1  0  0  0  0
  4 23  1  0  0  0  0
  5  6  1  0  0  0  0
  5  7  1  0  0  0  0
  5  8  2  0  0  0  0
  6  9  1  0  0  0  0
  6 24  1  0  0  0  0
  6 25  1  0  0  0  0
  7 10  2  0  0  0  0
  7 13  1  0  0  0  0
  8 11  1  0  0  0  0
  8 12  1  0  0  0  0
  9 14  1  0  0  0  0
  9 26  1  0  0  0  0
  9 27  1  0  0  0  0
 10 15  1  0  0  0  0
 11 16  2  0  0  0  0
 11 17  1  0  0  0  0
 13 18  2  0  0  0  0
 13 28  1  0  0  0  0
 14 29  1  0  0  0  0
 14 30  1  0  0  0  0
 14 31  1  0  0  0  0
 15 19  2  0  0  0  0
 15 32  1  0  0  0  0
 16 20  1  0  0  0  0
 16 33  1  0  0  0  0
 17 21  2  0  0  0  0
 17 34  1  0  0  0  0
 18 19  1  0  0  0  0
 18 35  1  0  0  0  0
 20 22  2  0  0  0  0
 20 36  1  0  0  0  0
 21 22  1  0  0  0  0
 21 37  1  0  0  0  0
 23 39  1  0  0  0  0
 23 40  1  0  0  0  0
 23 41  1  0  0  0  0
M  END
> <PUBCHEM_COMPOUND_CID>
5357444

> <PUBCHEM_COMPOUND_CANONICALIZED>
1

> <PUBCHEM_CACTVS_COMPLEXITY>
462

> <PUBCHEM_CACTVS_HBOND_ACCEPTOR>
4

> <PUBCHEM_CACTVS_HBOND_DONOR>
1

> <PUBCHEM_CACTVS_ROTATABLE_BOND>
4

> <PUBCHEM_CACTVS_SUBSKEYS>
AAADceB4OAAAAAAAAAAAAAAAAAAAAAAAAAAwYIAAAAAAAACBQAAAGgAACAAADASAmAIyDoAABgCIAiDSCAACCAAgIAAIiAEGCMgMJzKGNRqCeiClwBUIuQeI6KyOIAAACAAIAABAAAAQABAAAAAAAAAAAA==

> <PUBCHEM_IUPAC_OPENEYE_NAME>
7-hydroxy-3-(4-methoxyphenyl)-4-propyl-chromen-2-one

> <PUBCHEM_IUPAC_CAS_NAME>
7-hydroxy-3-(4-methoxyphenyl)-4-propyl-1-benzopyran-2-one

> <PUBCHEM_IUPAC_NAME>
7-hydroxy-3-(4-methoxyphenyl)-4-propylchromen-2-one

> <PUBCHEM_IUPAC_SYSTEMATIC_NAME>
3-(4-methoxyphenyl)-7-oxidanyl-4-propyl-chromen-2-one

> <PUBCHEM_IUPAC_TRADITIONAL_NAME>
7-hydroxy-3-(4-methoxyphenyl)-4-propyl-coumarin

> <PUBCHEM_IUPAC_INCHI>
InChI=1S/C19H18O4/c1-3-4-16-15-10-7-13(20)11-17(15)23-19(21)18(16)12-5-8-14(22-2)9-6-12/h5-11,20H,3-4H2,1-2H3

> <PUBCHEM_IUPAC_INCHIKEY>
FEMYLSRAIUUCNB-UHFFFAOYSA-N

> <PUBCHEM_XLOGP3_AA>
4.1

> <PUBCHEM_EXACT_MASS>
310.120509

> <PUBCHEM_MOLECULAR_FORMULA>
C19H18O4

> <PUBCHEM_MOLECULAR_WEIGHT>
310.34382

> <PUBCHEM_OPENEYE_CAN_SMILES>
CCCC1=C(C(=O)OC2=C1C=CC(=C2)O)C3=CC=C(C=C3)OC

> <PUBCHEM_OPENEYE_ISO_SMILES>
CCCC1=C(C(=O)OC2=C1C=CC(=C2)O)C3=CC=C(C=C3)OC

> <PUBCHEM_CACTVS_TPSA>
55.8

> <PUBCHEM_MONOISOTOPIC_WEIGHT>
310.120509

> <PUBCHEM_TOTAL_CHARGE>
0

> <PUBCHEM_HEAVY_ATOM_COUNT>
23

> <PUBCHEM_ATOM_DEF_STEREO_COUNT>
0

> <PUBCHEM_ATOM_UDEF_STEREO_COUNT>
0

> <PUBCHEM_BOND_DEF_STEREO_COUNT>
0

> <PUBCHEM_BOND_UDEF_STEREO_COUNT>
0

> <PUBCHEM_ISOTOPIC_ATOM_COUNT>
0

> <PUBCHEM_COMPONENT_COUNT>
1

> <PUBCHEM_CACTVS_TAUTO_COUNT>
9

> <PUBCHEM_COORDINATE_TYPE>
1
5
255

> <PUBCHEM_BONDANNOTATIONS>
1  10  8
1  12  8
10  15  8
11  16  8
11  17  8
13  18  8
15  19  8
16  20  8
17  21  8
18  19  8
20  22  8
21  22  8
5  7  8
5  8  8
7  10  8
7  13  8
8  12  8

$$$$

