   Color/Form
        Liquid
   from [1]HSDB

   Boiling Point
        79-80 deg C @ 1.5-1.6 mm Hg
   from [2]HSDB

   Octanol/Water Partition Coefficient
        log Kow= 1.58 @ 25 deg C
   from [3]HSDB

   Spectral Properties
        Intense mass spectral peaks: 56 m/z, 115 m/z, 132 m/z, 133 m/z
   from [4]HSDB

   Other Chemical/Physical Properties

     * EITHER ODORLESS OR HAS FAINT, CINNAMALDEHYDE-LIKE ODOR & SLIGHTLY
       ACID TASTE /SULFATE/
     * MELTS WITH DECOMP @ 218 DEG C /SULFATE/
     * MP: 164-166 deg C /Hydrochloride/
     * Crystals /Sulfate/
     * Crystals from ethyl acetate & ether /Hydrochloride/
     * WHITE CRYSTALLINE POWDER /SULFATE/
     * Sol in water /Sulfate/
     * Very slightly sol in alcohol, ether /Sulfate/
     * Practically insol in chloroform /Sulfate/

   from [5]HSDB

   Computed Properties
   Molecular Weight                  133.19034 [g/mol]
   Molecular Formula                 C[9]H[11]N
   XLogP3                            1.5
   H-Bond Donor                      1
   H-Bond Acceptor                   1
   Rotatable Bond Count              1
   Exact Mass                        133.089149
   MonoIsotopic Mass                 133.089149
   Topological Polar Surface Area    26
   Heavy Atom Count                  10
   Formal Charge                     0
   Complexity                        116
   Isotope Atom Count                0
   Defined Atom Stereocenter Count   1
   Undefined Atom Stereocenter Count 1
   Defined Bond Stereocenter Count   0
   Undefined Bond Stereocenter Count 0
   Covalently-Bonded Unit Count      1
   Feature 3D Donor Count            1
   Feature 3D Cation Count           1
   Feature 3D Ring Count             1
   Effective Rotor Count             1.6
   Conformer Sampling RMSD           0.4
   CID Conformer Count               [6]2

References

   1. http://toxnet.nlm.nih.gov/cgi-bin/sis/search/r?dbs+hsdb:@term+@rn+@rel+155-09-9
   2. http://toxnet.nlm.nih.gov/cgi-bin/sis/search/r?dbs+hsdb:@term+@rn+@rel+155-09-9
   3. http://toxnet.nlm.nih.gov/cgi-bin/sis/search/r?dbs+hsdb:@term+@rn+@rel+155-09-9
   4. http://toxnet.nlm.nih.gov/cgi-bin/sis/search/r?dbs+hsdb:@term+@rn+@rel+155-09-9
   5. http://toxnet.nlm.nih.gov/cgi-bin/sis/search/r?dbs+hsdb:@term+@rn+@rel+155-09-9
   6. http://pubchem.ncbi.nlm.nih.gov/vw3d/vw3d.cgi?cid=441233
