   Color/Form
        Large monoclinic prisms from water
   from [1]HSDB

   Odor
        Odorless
   from [2]HSDB

   Taste
        Slightly bitter taste
   from [3]HSDB

   Melting Point
        169-170.5 deg C
   from [4]HSDB

   Density/Specific Gravity
        1.293 at 21 deg C/4 deg C
   from [5]HSDB

   Dissociation Constants
        pKa = 9.38
   from [6]HSDB

   Octanol/Water Partition Coefficient
        log Kow = 0.46
   from [7]HSDB

   pH
        Saturated aqueous soln: 5.5-6.5
   from [8]HSDB

   Solubilities

     * Very slightly sol in cold water, considerably more sol in hot
       water; sol in methanol, ethanol, dimethylformamide, ethylene
       dichloride, acetone, ethyl acetate; slightly sol in ether;
       practically insol in petroleum ether, pentane, benzene.
     * In water, 14,000 mg/L at 25 deg C

   from [9]HSDB

   Spectral Properties

     * UV max (ethanol): 250 nm (epsilon 13800)
     * Intense mass spectral peaks: 80 m/z, 109 m/z, 151 m/z
     * MASS: 4765 (NIST/EPA/MSDC Mass Spectral database, 1990 version)
     * IR: 5420 (Coblentz Society spectral collection)
     * UV: 2913 (Sadtler Research Laboratories spectral collection)
     * Raman: 930 (Sadtler Research Laboratories spectral collection)

   from [10]HSDB

   Vapor Pressure
        6.29X10-5 mm Hg at 25 deg C
   from [11]HSDB

   Other Chemical/Physical Properties

     * Melting point = 170 deg C
     * Henry's Law constant = 6.42X10-13 atm-cu m/mol at 25 deg C (est)
     * Hydroxyl radical reaction rate constant = 1.77X10-11 cu
       cm/molec-sec at 25 deg C (est)

   from [12]HSDB

   Computed Properties
   Molecular Weight                  151.16256 [g/mol]
   Molecular Formula                 C[8]H[9]NO[2]
   XLogP3                            0.5
   H-Bond Donor                      2
   H-Bond Acceptor                   2
   Rotatable Bond Count              1
   Tautomer Count                    6
   Exact Mass                        151.063329
   MonoIsotopic Mass                 151.063329
   Topological Polar Surface Area    49.3
   Heavy Atom Count                  11
   Formal Charge                     0
   Complexity                        139
   Isotope Atom Count                0
   Defined Atom Stereocenter Count   0
   Undefined Atom Stereocenter Count 0
   Defined Bond Stereocenter Count   0
   Undefined Bond Stereocenter Count 0
   Covalently-Bonded Unit Count      1
   Feature 3D Acceptor Count         1
   Feature 3D Donor Count            2
   Feature 3D Ring Count             1
   Effective Rotor Count             2
   Conformer Sampling RMSD           0.4
   CID Conformer Count               [13]2

References

   1. http://toxnet.nlm.nih.gov/cgi-bin/sis/search/r?dbs+hsdb:@term+@rn+@rel+103-90-2
   2. http://toxnet.nlm.nih.gov/cgi-bin/sis/search/r?dbs+hsdb:@term+@rn+@rel+103-90-2
   3. http://toxnet.nlm.nih.gov/cgi-bin/sis/search/r?dbs+hsdb:@term+@rn+@rel+103-90-2
   4. http://toxnet.nlm.nih.gov/cgi-bin/sis/search/r?dbs+hsdb:@term+@rn+@rel+103-90-2
   5. http://toxnet.nlm.nih.gov/cgi-bin/sis/search/r?dbs+hsdb:@term+@rn+@rel+103-90-2
   6. http://toxnet.nlm.nih.gov/cgi-bin/sis/search/r?dbs+hsdb:@term+@rn+@rel+103-90-2
   7. http://toxnet.nlm.nih.gov/cgi-bin/sis/search/r?dbs+hsdb:@term+@rn+@rel+103-90-2
   8. http://toxnet.nlm.nih.gov/cgi-bin/sis/search/r?dbs+hsdb:@term+@rn+@rel+103-90-2
   9. http://toxnet.nlm.nih.gov/cgi-bin/sis/search/r?dbs+hsdb:@term+@rn+@rel+103-90-2
  10. http://toxnet.nlm.nih.gov/cgi-bin/sis/search/r?dbs+hsdb:@term+@rn+@rel+103-90-2
  11. http://toxnet.nlm.nih.gov/cgi-bin/sis/search/r?dbs+hsdb:@term+@rn+@rel+103-90-2
  12. http://toxnet.nlm.nih.gov/cgi-bin/sis/search/r?dbs+hsdb:@term+@rn+@rel+103-90-2
  13. http://pubchem.ncbi.nlm.nih.gov/vw3d/vw3d.cgi?cid=1983
