440026
  -OEChem-07051212482D

 51 52  0     1  0  0  0  0  0999 V2000
    6.8909   -2.3412    0.0000 P   0  0  3  0  0  0  0  0  0  0  0  0
    8.4732   -3.0457    0.0000 P   0  0  3  0  0  0  0  0  0  0  0  0
    5.0298    0.1233    0.0000 O   0  0  0  0  0  0  0  0  0  0  0  0
    3.1330   -1.6368    0.0000 O   0  0  0  0  0  0  0  0  0  0  0  0
    2.4608    0.4323    0.0000 O   0  0  0  0  0  0  0  0  0  0  0  0
    6.3031   -1.5322    0.0000 O   0  0  0  0  0  0  0  0  0  0  0  0
    2.4888    1.7111    0.0000 O   0  0  0  0  0  0  0  0  0  0  0  0
    7.4787   -3.1503    0.0000 O   0  0  0  0  0  0  0  0  0  0  0  0
    7.6999   -1.7535    0.0000 O   0  0  0  0  0  0  0  0  0  0  0  0
    6.0819   -2.9290    0.0000 O   0  0  0  0  0  0  0  0  0  0  0  0
    9.4677   -2.9412    0.0000 O   0  0  0  0  0  0  0  0  0  0  0  0
    8.5778   -4.0402    0.0000 O   0  0  0  0  0  0  0  0  0  0  0  0
    8.3687   -2.0512    0.0000 O   0  0  0  0  0  0  0  0  0  0  0  0
    4.2208    1.7111    0.0000 N   0  0  0  0  0  0  0  0  0  0  0  0
    3.3548    3.2111    0.0000 N   0  0  0  0  0  0  0  0  0  0  0  0
    4.2208    4.7111    0.0000 N   0  0  0  0  0  0  0  0  0  0  0  0
   11.6378   -4.4547    0.0000 N   0  0  0  0  0  0  0  0  0  0  0  0
    3.7208   -0.8277    0.0000 C   0  0  1  0  0  0  0  0  0  0  0  0
    3.4118    0.1233    0.0000 C   0  0  2  0  0  0  0  0  0  0  0  0
    4.7208   -0.8277    0.0000 C   0  0  1  0  0  0  0  0  0  0  0  0
    4.2208    0.7111    0.0000 C   0  0  1  0  0  0  0  0  0  0  0  0
    5.3086   -1.6368    0.0000 C   0  0  0  0  0  0  0  0  0  0  0  0
    5.0868    2.2111    0.0000 C   0  0  0  0  0  0  0  0  0  0  0  0
    3.3548    2.2111    0.0000 C   0  0  0  0  0  0  0  0  0  0  0  0
    5.0868    3.2111    0.0000 C   0  0  0  0  0  0  0  0  0  0  0  0
    4.2208    3.7111    0.0000 C   0  0  0  0  0  0  0  0  0  0  0  0
   10.0555   -3.7502    0.0000 C   0  0  0  0  0  0  0  0  0  0  0  0
   11.0501   -3.6457    0.0000 C   0  0  0  0  0  0  0  0  0  0  0  0
   12.6324   -4.3502    0.0000 C   0  0  0  0  0  0  0  0  0  0  0  0
    3.1085   -0.7307    0.0000 H   0  0  0  0  0  0  0  0  0  0  0  0
    2.9734   -0.3151    0.0000 H   0  0  0  0  0  0  0  0  0  0  0  0
    5.3332   -0.7307    0.0000 H   0  0  0  0  0  0  0  0  0  0  0  0
    3.6684    0.9926    0.0000 H   0  0  0  0  0  0  0  0  0  0  0  0
    4.7514   -1.9085    0.0000 H   0  0  0  0  0  0  0  0  0  0  0  0
    5.4795   -2.2327    0.0000 H   0  0  0  0  0  0  0  0  0  0  0  0
    3.3852   -2.2032    0.0000 H   0  0  0  0  0  0  0  0  0  0  0  0
    2.0000    0.0175    0.0000 H   0  0  0  0  0  0  0  0  0  0  0  0
    5.6238    1.9011    0.0000 H   0  0  0  0  0  0  0  0  0  0  0  0
    5.6238    3.5211    0.0000 H   0  0  0  0  0  0  0  0  0  0  0  0
    7.6351   -1.1368    0.0000 H   0  0  0  0  0  0  0  0  0  0  0  0
    4.7578    5.0211    0.0000 H   0  0  0  0  0  0  0  0  0  0  0  0
    3.6839    5.0211    0.0000 H   0  0  0  0  0  0  0  0  0  0  0  0
    9.4983   -4.0220    0.0000 H   0  0  0  0  0  0  0  0  0  0  0  0
   10.2264   -4.3462    0.0000 H   0  0  0  0  0  0  0  0  0  0  0  0
   11.6073   -3.3739    0.0000 H   0  0  0  0  0  0  0  0  0  0  0  0
   10.8792   -3.0497    0.0000 H   0  0  0  0  0  0  0  0  0  0  0  0
    8.0762   -4.4047    0.0000 H   0  0  0  0  0  0  0  0  0  0  0  0
   11.3857   -5.0211    0.0000 H   0  0  0  0  0  0  0  0  0  0  0  0
   12.6972   -4.9668    0.0000 H   0  0  0  0  0  0  0  0  0  0  0  0
   13.2490   -4.2854    0.0000 H   0  0  0  0  0  0  0  0  0  0  0  0
   12.5676   -3.7336    0.0000 H   0  0  0  0  0  0  0  0  0  0  0  0
  1  6  1  0  0  0  0
  1  8  1  0  0  0  0
  1  9  1  0  0  0  0
  1 10  2  0  0  0  0
  2  8  1  0  0  0  0
  2 11  1  0  0  0  0
  2 12  1  0  0  0  0
  2 13  2  0  0  0  0
  3 20  1  0  0  0  0
  3 21  1  0  0  0  0
 18  4  1  1  0  0  0
  4 36  1  0  0  0  0
 19  5  1  1  0  0  0
  5 37  1  0  0  0  0
  6 22  1  0  0  0  0
  7 24  2  0  0  0  0
  9 40  1  0  0  0  0
 11 27  1  0  0  0  0
 12 47  1  0  0  0  0
 21 14  1  6  0  0  0
 14 23  1  0  0  0  0
 14 24  1  0  0  0  0
 15 24  1  0  0  0  0
 15 26  2  0  0  0  0
 16 26  1  0  0  0  0
 16 41  1  0  0  0  0
 16 42  1  0  0  0  0
 17 28  1  0  0  0  0
 17 29  1  0  0  0  0
 17 48  1  0  0  0  0
 18 19  1  0  0  0  0
 18 20  1  0  0  0  0
 18 30  1  0  0  0  0
 19 21  1  0  0  0  0
 19 31  1  0  0  0  0
 20 22  1  6  0  0  0
 20 32  1  0  0  0  0
 21 33  1  0  0  0  0
 22 34  1  0  0  0  0
 22 35  1  0  0  0  0
 23 25  2  0  0  0  0
 23 38  1  0  0  0  0
 25 26  1  0  0  0  0
 25 39  1  0  0  0  0
 27 28  1  0  0  0  0
 27 43  1  0  0  0  0
 27 44  1  0  0  0  0
 28 45  1  0  0  0  0
 28 46  1  0  0  0  0
 29 49  1  0  0  0  0
 29 50  1  0  0  0  0
 29 51  1  0  0  0  0
M  END
> <PUBCHEM_COMPOUND_CID>
440026

> <PUBCHEM_COMPOUND_CANONICALIZED>
1

> <PUBCHEM_CACTVS_COMPLEXITY>
762

> <PUBCHEM_CACTVS_HBOND_ACCEPTOR>
12

> <PUBCHEM_CACTVS_HBOND_DONOR>
6

> <PUBCHEM_CACTVS_ROTATABLE_BOND>
10

> <PUBCHEM_CACTVS_SUBSKEYS>
AAADceBzvAMAAAAAAAAAAAAAAAAAASAAAAAgAAAAAAAAAAAAAAAAHgAQCCAACBThgAYDAAPABxCoQCJmdICAAAEAAgAIAIAYABCDEAIAgAAOQAAHFgITAADwMAIAAAAAAAAAAAAAAAAAAAAAAAAAAAAAAA==

> <PUBCHEM_IUPAC_OPENEYE_NAME>
[[(2R,3S,4R,5R)-5-(4-amino-2-oxo-pyrimidin-1-yl)-3,4-dihydroxy-tetrahydrofuran-2-yl]methoxy-hydroxy-phosphoryl] 2-(methylamino)ethyl hydrogen phosphate

> <PUBCHEM_IUPAC_CAS_NAME>
[[(2R,3S,4R,5R)-5-(4-amino-2-oxo-1-pyrimidinyl)-3,4-dihydroxy-2-oxolanyl]methoxy-hydroxyphosphoryl] 2-(methylamino)ethyl hydrogen phosphate

> <PUBCHEM_IUPAC_NAME>
[[(2R,3S,4R,5R)-5-(4-amino-2-oxopyrimidin-1-yl)-3,4-dihydroxyoxolan-2-yl]methoxy-hydroxyphosphoryl] 2-(methylamino)ethyl hydrogen phosphate

> <PUBCHEM_IUPAC_SYSTEMATIC_NAME>
[[(2R,3S,4R,5R)-5-(4-azanyl-2-oxidanylidene-pyrimidin-1-yl)-3,4-bis(oxidanyl)oxolan-2-yl]methoxy-oxidanyl-phosphoryl] 2-(methylamino)ethyl hydrogen phosphate

> <PUBCHEM_IUPAC_TRADITIONAL_NAME>
[[(2R,3S,4R,5R)-5-(4-amino-2-keto-pyrimidin-1-yl)-3,4-dihydroxy-tetrahydrofuran-2-yl]methoxy-hydroxy-phosphoryl] 2-(methylamino)ethyl hydrogen phosphate

> <PUBCHEM_IUPAC_INCHI>
InChI=1S/C12H22N4O11P2/c1-14-3-5-24-28(20,21)27-29(22,23)25-6-7-9(17)10(18)11(26-7)16-4-2-8(13)15-12(16)19/h2,4,7,9-11,14,17-18H,3,5-6H2,1H3,(H,20,21)(H,22,23)(H2,13,15,19)/t7-,9-,10-,11-/m1/s1

> <PUBCHEM_IUPAC_INCHIKEY>
RSPRLQAZJOAGFP-QCNRFFRDSA-N

> <PUBCHEM_XLOGP3>
-6.7

> <PUBCHEM_EXACT_MASS>
460.076031

> <PUBCHEM_MOLECULAR_FORMULA>
C12H22N4O11P2

> <PUBCHEM_MOLECULAR_WEIGHT>
460.270804

> <PUBCHEM_OPENEYE_CAN_SMILES>
CNCCOP(=O)(O)OP(=O)(O)OCC1C(C(C(O1)N2C=CC(=NC2=O)N)O)O

> <PUBCHEM_OPENEYE_ISO_SMILES>
CNCCOP(=O)(O)OP(=O)(O)OC[C@@H]1[C@H]([C@H]([C@@H](O1)N2C=CC(=NC2=O)N)O)O

> <PUBCHEM_CACTVS_TPSA>
223

> <PUBCHEM_MONOISOTOPIC_WEIGHT>
460.076031

> <PUBCHEM_TOTAL_CHARGE>
0

> <PUBCHEM_HEAVY_ATOM_COUNT>
29

> <PUBCHEM_ATOM_DEF_STEREO_COUNT>
4

> <PUBCHEM_ATOM_UDEF_STEREO_COUNT>
0

> <PUBCHEM_BOND_DEF_STEREO_COUNT>
0

> <PUBCHEM_BOND_UDEF_STEREO_COUNT>
0

> <PUBCHEM_ISOTOPIC_ATOM_COUNT>
0

> <PUBCHEM_COMPONENT_COUNT>
1

> <PUBCHEM_CACTVS_TAUTO_COUNT>
3

> <PUBCHEM_COORDINATE_TYPE>
1
5
255

> <PUBCHEM_BONDANNOTATIONS>
21  14  6
14  23  8
14  24  8
15  24  8
15  26  8
20  22  6
23  25  8
25  26  8
18  4  5
19  5  5

$$$$

