   Color/Form

     * CRYSTALS FROM BENZENE
     * COLORLESS SOLID

   from [1]HSDB

   Melting Point
        161 DEG C
   from [2]HSDB

   Corrosivity
        NON-CORROSIVE
   from [3]HSDB

   Dissociation Constants
        pKa= 3.70
   from [4]HSDB

   Octanol/Water Partition Coefficient
        3.20
   from [5]HSDB

   Solubilities

     * SOL IN ACETONE, ALC, ETHER
     * 200 MG/L WATER @ 28 DEG C; SOL IN MOST ORGANIC SOLVENTS

   from [6]HSDB

   Spectral Properties
        Intense mass spectral peaks: 203 m/z (100%), 159 m/z (91%), 193
   m/z (86%), 195 m/z (85%)
   from [7]HSDB

   Vapor Pressure
        1.7x10-5 mm Hg at 25 deg C
   from [8]HSDB

   Other Chemical/Physical Properties

     * It forms water-soluble salts with alkalis.
     * 1.1 Pa @ 100 deg C
     * Henry's Law constant= 1.8x10-8 atm-cu m/mole at 25 deg C (est)

   from [9]HSDB

   Computed Properties
   Molecular Weight                  239.4831 [g/mol]
   Molecular Formula                 C[8]H[5]Cl[3]O[2]
   XLogP3                            3.2
   H-Bond Donor                      1
   H-Bond Acceptor                   2
   Rotatable Bond Count              2
   Exact Mass                        237.935512
   MonoIsotopic Mass                 237.935512
   Topological Polar Surface Area    37.3
   Heavy Atom Count                  13
   Formal Charge                     0
   Complexity                        198
   Isotope Atom Count                0
   Defined Atom Stereocenter Count   0
   Undefined Atom Stereocenter Count 0
   Defined Bond Stereocenter Count   0
   Undefined Bond Stereocenter Count 0
   Covalently-Bonded Unit Count      1
   Feature 3D Acceptor Count         2
   Feature 3D Anion Count            1
   Feature 3D Ring Count             1
   Effective Rotor Count             2
   Conformer Sampling RMSD           0.6
   CID Conformer Count               [10]4

References

   1. http://toxnet.nlm.nih.gov/cgi-bin/sis/search/r?dbs+hsdb:@term+@rn+@rel+85-34-7
   2. http://toxnet.nlm.nih.gov/cgi-bin/sis/search/r?dbs+hsdb:@term+@rn+@rel+85-34-7
   3. http://toxnet.nlm.nih.gov/cgi-bin/sis/search/r?dbs+hsdb:@term+@rn+@rel+85-34-7
   4. http://toxnet.nlm.nih.gov/cgi-bin/sis/search/r?dbs+hsdb:@term+@rn+@rel+85-34-7
   5. http://toxnet.nlm.nih.gov/cgi-bin/sis/search/r?dbs+hsdb:@term+@rn+@rel+85-34-7
   6. http://toxnet.nlm.nih.gov/cgi-bin/sis/search/r?dbs+hsdb:@term+@rn+@rel+85-34-7
   7. http://toxnet.nlm.nih.gov/cgi-bin/sis/search/r?dbs+hsdb:@term+@rn+@rel+85-34-7
   8. http://toxnet.nlm.nih.gov/cgi-bin/sis/search/r?dbs+hsdb:@term+@rn+@rel+85-34-7
   9. http://toxnet.nlm.nih.gov/cgi-bin/sis/search/r?dbs+hsdb:@term+@rn+@rel+85-34-7
  10. http://pubchem.ncbi.nlm.nih.gov/vw3d/vw3d.cgi?cid=6805
