   Color/Form
        Crystals
   from [1]HSDB

   Melting Point
        113-115 deg C
   from [2]HSDB

   Dissociation Constants
        pKa = 8.74 [McFarland JW et al; J Med Chem 40: 1340-6 (1997)]
   [3]PubMed Abstract
   from [4]HSDB

   Octanol/Water Partition Coefficient
        log Kow = 4.02 [McFarland JW et al; J Med Chem 40: 1340-6 (1997)]
   [5]PubMed Abstract
   from [6]HSDB

   Solubilities
        In water, 7.09 mg/L @ 25 deg C /Estimated/
   from [7]HSDB

   Vapor Pressure
        3.9X10-27 mm Hg @ 25 deg C /Estimated/
   from [8]HSDB

   Other Chemical/Physical Properties

     * Hydroxyl radical reaction rate constant = 4.23X10-10 cu
       cm/molec-sec @ 25 deg C /Estimated/
     * Henry's Law constant = 5.3X10-29 atm-cu m/mol @ 25 deg C
       /Estimated/

   from [9]HSDB

   Computed Properties
   Molecular Weight                  748.98448 [g/mol]
   Molecular Formula                 C[38]H[72]N[2]O[12]
   XLogP3                            4
   H-Bond Donor                      5
   H-Bond Acceptor                   14
   Rotatable Bond Count              7
   Tautomer Count                    2
   Exact Mass                        748.508526
   MonoIsotopic Mass                 748.508526
   Topological Polar Surface Area    180
   Heavy Atom Count                  52
   Formal Charge                     0
   Complexity                        1150
   Isotope Atom Count                0
   Defined Atom Stereocenter Count   17
   Undefined Atom Stereocenter Count 1
   Defined Bond Stereocenter Count   0
   Undefined Bond Stereocenter Count 0
   Covalently-Bonded Unit Count      1

References

   1. http://toxnet.nlm.nih.gov/cgi-bin/sis/search/r?dbs+hsdb:@term+@rn+@rel+83905-01-5
   2. http://toxnet.nlm.nih.gov/cgi-bin/sis/search/r?dbs+hsdb:@term+@rn+@rel+83905-01-5
   3. http://www.ncbi.nlm.nih.gov/entrez/query.fcgi?cmd=Retrieve&db=pubmed&dopt=Abstract&list_uids=9135031
   4. http://toxnet.nlm.nih.gov/cgi-bin/sis/search/r?dbs+hsdb:@term+@rn+@rel+83905-01-5
   5. http://www.ncbi.nlm.nih.gov/entrez/query.fcgi?cmd=Retrieve&db=pubmed&dopt=Abstract&list_uids=9135031
   6. http://toxnet.nlm.nih.gov/cgi-bin/sis/search/r?dbs+hsdb:@term+@rn+@rel+83905-01-5
   7. http://toxnet.nlm.nih.gov/cgi-bin/sis/search/r?dbs+hsdb:@term+@rn+@rel+83905-01-5
   8. http://toxnet.nlm.nih.gov/cgi-bin/sis/search/r?dbs+hsdb:@term+@rn+@rel+83905-01-5
   9. http://toxnet.nlm.nih.gov/cgi-bin/sis/search/r?dbs+hsdb:@term+@rn+@rel+83905-01-5
