66587
  -OEChem-07051213052D

 22 24  0     0  0  0  0  0  0999 V2000
    4.5274    1.4303    0.0000 O   0  0  0  0  0  0  0  0  0  0  0  0
    7.3991   -1.4303    0.0000 O   0  0  0  0  0  0  0  0  0  0  0  0
    5.0274   -0.1085    0.0000 C   0  0  0  0  0  0  0  0  0  0  0  0
    4.0274   -0.1085    0.0000 C   0  0  0  0  0  0  0  0  0  0  0  0
    5.3364    0.8425    0.0000 C   0  0  0  0  0  0  0  0  0  0  0  0
    3.7183    0.8425    0.0000 C   0  0  0  0  0  0  0  0  0  0  0  0
    5.7123   -0.8933    0.0000 C   0  0  0  0  0  0  0  0  0  0  0  0
    3.3424   -0.8933    0.0000 C   0  0  0  0  0  0  0  0  0  0  0  0
    6.3518    1.0748    0.0000 C   0  0  0  0  0  0  0  0  0  0  0  0
    2.7029    1.0748    0.0000 C   0  0  0  0  0  0  0  0  0  0  0  0
    6.7328   -0.6846    0.0000 C   0  0  0  0  0  0  0  0  0  0  0  0
    7.0547    0.3061    0.0000 C   0  0  0  0  0  0  0  0  0  0  0  0
    2.3219   -0.6846    0.0000 C   0  0  0  0  0  0  0  0  0  0  0  0
    2.0000    0.3061    0.0000 C   0  0  0  0  0  0  0  0  0  0  0  0
    5.5139   -1.4807    0.0000 H   0  0  0  0  0  0  0  0  0  0  0  0
    3.5408   -1.4807    0.0000 H   0  0  0  0  0  0  0  0  0  0  0  0
    6.5365    1.6666    0.0000 H   0  0  0  0  0  0  0  0  0  0  0  0
    2.5182    1.6666    0.0000 H   0  0  0  0  0  0  0  0  0  0  0  0
    7.6607    0.4373    0.0000 H   0  0  0  0  0  0  0  0  0  0  0  0
    1.9088   -1.1469    0.0000 H   0  0  0  0  0  0  0  0  0  0  0  0
    1.3940    0.4373    0.0000 H   0  0  0  0  0  0  0  0  0  0  0  0
    8.0060   -1.3037    0.0000 H   0  0  0  0  0  0  0  0  0  0  0  0
  1  5  1  0  0  0  0
  1  6  1  0  0  0  0
  2 11  1  0  0  0  0
  2 22  1  0  0  0  0
  3  4  1  0  0  0  0
  3  5  2  0  0  0  0
  3  7  1  0  0  0  0
  4  6  1  0  0  0  0
  4  8  2  0  0  0  0
  5  9  1  0  0  0  0
  6 10  2  0  0  0  0
  7 11  2  0  0  0  0
  7 15  1  0  0  0  0
  8 13  1  0  0  0  0
  8 16  1  0  0  0  0
  9 12  2  0  0  0  0
  9 17  1  0  0  0  0
 10 14  1  0  0  0  0
 10 18  1  0  0  0  0
 11 12  1  0  0  0  0
 12 19  1  0  0  0  0
 13 14  2  0  0  0  0
 13 20  1  0  0  0  0
 14 21  1  0  0  0  0
M  END
> <PUBCHEM_COMPOUND_CID>
66587

> <PUBCHEM_COMPOUND_CANONICALIZED>
1

> <PUBCHEM_CACTVS_COMPLEXITY>
216

> <PUBCHEM_CACTVS_HBOND_ACCEPTOR>
2

> <PUBCHEM_CACTVS_HBOND_DONOR>
1

> <PUBCHEM_CACTVS_ROTATABLE_BOND>
0

> <PUBCHEM_CACTVS_SUBSKEYS>
AAADccBwMAAAAAAAAAAAAAAAAAAAASAAAAAwYAAAAAAAAEgB/AAAGgAACAAADASAmAAwBsAABkCIAqBSAAACCAAkIAAIiAEGCMgMJjKGNRqCeSCkwBEIuYfK7PzOgQABAAAIAAACAAIAABAAAAAAAAAAAA==

> <PUBCHEM_IUPAC_OPENEYE_NAME>
dibenzofuran-2-ol

> <PUBCHEM_IUPAC_CAS_NAME>
2-dibenzofuranol

> <PUBCHEM_IUPAC_NAME>
dibenzofuran-2-ol

> <PUBCHEM_IUPAC_SYSTEMATIC_NAME>
dibenzofuran-2-ol

> <PUBCHEM_IUPAC_TRADITIONAL_NAME>
dibenzofuran-2-ol

> <PUBCHEM_IUPAC_INCHI>
InChI=1S/C12H8O2/c13-8-5-6-12-10(7-8)9-3-1-2-4-11(9)14-12/h1-7,13H

> <PUBCHEM_IUPAC_INCHIKEY>
HGIDRHWWNZRUEP-UHFFFAOYSA-N

> <PUBCHEM_XLOGP3>
3.8

> <PUBCHEM_EXACT_MASS>
184.052429

> <PUBCHEM_MOLECULAR_FORMULA>
C12H8O2

> <PUBCHEM_MOLECULAR_WEIGHT>
184.19072

> <PUBCHEM_OPENEYE_CAN_SMILES>
C1=CC=C2C(=C1)C3=C(O2)C=CC(=C3)O

> <PUBCHEM_OPENEYE_ISO_SMILES>
C1=CC=C2C(=C1)C3=C(O2)C=CC(=C3)O

> <PUBCHEM_CACTVS_TPSA>
33.4

> <PUBCHEM_MONOISOTOPIC_WEIGHT>
184.052429

> <PUBCHEM_TOTAL_CHARGE>
0

> <PUBCHEM_HEAVY_ATOM_COUNT>
14

> <PUBCHEM_ATOM_DEF_STEREO_COUNT>
0

> <PUBCHEM_ATOM_UDEF_STEREO_COUNT>
0

> <PUBCHEM_BOND_DEF_STEREO_COUNT>
0

> <PUBCHEM_BOND_UDEF_STEREO_COUNT>
0

> <PUBCHEM_ISOTOPIC_ATOM_COUNT>
0

> <PUBCHEM_COMPONENT_COUNT>
1

> <PUBCHEM_CACTVS_TAUTO_COUNT>
3

> <PUBCHEM_COORDINATE_TYPE>
1
5
255

> <PUBCHEM_BONDANNOTATIONS>
1  5  8
1  6  8
10  14  8
11  12  8
13  14  8
3  4  8
3  5  8
3  7  8
4  6  8
4  8  8
5  9  8
6  10  8
7  11  8
8  13  8
9  12  8

$$$$

