   Color/Form

     * Yellow to light-orange crystalline powder
     * Crystals from ethanol

   from [1]HSDB

   Odor
        Floral odor
   from [2]HSDB

   Melting Point
        180-182 deg C
   from [3]HSDB

   Dissociation Constants
        pKa = 4.2 /Estimated/
   from [4]HSDB

   Octanol/Water Partition Coefficient
        log Kow = 6.30
   from [5]HSDB

   Solubilities

     * Soluble in DMSO; slightly soluble in polyethylene glycol 400,
       octanol, ethanol; practically insoluble in water, glycerin
     * ... Soluble in ether; slightly soluble in ... chloroform.

   from [6]HSDB

   Spectral Properties
        Max absorption (methanol): 351 nm (Epsilon=45,000)
   from [7]HSDB

   Vapor Pressure
        2.4X10-7 mm Hg @ 25 deg C /Estimated/
   from [8]HSDB

   Other Chemical/Physical Properties

     * Henry's Law constant: 9.5X10-6 atm-cu m/mol @ 25 deg C /Estimated/
     * Hydroxyl radical reaction rate constant: 2.9X10-10 cu
       cm/molecule-sec @ 25 deg C /Estimated/

   from [9]HSDB

   Computed Properties
   Molecular Weight                  300.43512 [g/mol]
   Molecular Formula                 C[20]H[28]O[2]
   XLogP3                            6.3
   H-Bond Donor                      1
   H-Bond Acceptor                   2
   Rotatable Bond Count              5
   Exact Mass                        300.20893
   MonoIsotopic Mass                 300.20893
   Topological Polar Surface Area    37.3
   Heavy Atom Count                  22
   Formal Charge                     0
   Complexity                        567
   Isotope Atom Count                0
   Defined Atom Stereocenter Count   0
   Undefined Atom Stereocenter Count 0
   Defined Bond Stereocenter Count   4
   Undefined Bond Stereocenter Count 0
   Covalently-Bonded Unit Count      1
   Feature 3D Acceptor Count         2
   Feature 3D Anion Count            1
   Feature 3D Hydrophobe Count       3
   Feature 3D Ring Count             1
   Effective Rotor Count             5.8
   Conformer Sampling RMSD           0.8
   CID Conformer Count               [10]22

References

   1. http://toxnet.nlm.nih.gov/cgi-bin/sis/search/r?dbs+hsdb:@term+@rn+@rel+302-79-4
   2. http://toxnet.nlm.nih.gov/cgi-bin/sis/search/r?dbs+hsdb:@term+@rn+@rel+302-79-4
   3. http://toxnet.nlm.nih.gov/cgi-bin/sis/search/r?dbs+hsdb:@term+@rn+@rel+302-79-4
   4. http://toxnet.nlm.nih.gov/cgi-bin/sis/search/r?dbs+hsdb:@term+@rn+@rel+302-79-4
   5. http://toxnet.nlm.nih.gov/cgi-bin/sis/search/r?dbs+hsdb:@term+@rn+@rel+302-79-4
   6. http://toxnet.nlm.nih.gov/cgi-bin/sis/search/r?dbs+hsdb:@term+@rn+@rel+302-79-4
   7. http://toxnet.nlm.nih.gov/cgi-bin/sis/search/r?dbs+hsdb:@term+@rn+@rel+302-79-4
   8. http://toxnet.nlm.nih.gov/cgi-bin/sis/search/r?dbs+hsdb:@term+@rn+@rel+302-79-4
   9. http://toxnet.nlm.nih.gov/cgi-bin/sis/search/r?dbs+hsdb:@term+@rn+@rel+302-79-4
  10. http://pubchem.ncbi.nlm.nih.gov/vw3d/vw3d.cgi?cid=444795
