17395330
  -OEChem-06241222492D

 43 45  0     0  0  0  0  0  0999 V2000
    2.8660   -1.6012    0.0000 Cl  0  0  0  0  0  0  0  0  0  0  0  0
    7.4128    4.6012    0.0000 S   0  0  0  0  0  0  0  0  0  0  0  0
    3.7320   -1.1012    0.0000 O   0  0  0  0  0  0  0  0  0  0  0  0
    5.4641    1.8988    0.0000 N   0  0  0  0  0  0  0  0  0  0  0  0
    5.4641   -0.1012    0.0000 N   0  0  0  0  0  0  0  0  0  0  0  0
    4.5981   -2.6012    0.0000 N   0  0  0  0  0  0  0  0  0  0  0  0
    6.3301    1.3988    0.0000 C   0  0  0  0  0  0  0  0  0  0  0  0
    4.5981    1.3988    0.0000 C   0  0  0  0  0  0  0  0  0  0  0  0
    6.3301    0.3988    0.0000 C   0  0  0  0  0  0  0  0  0  0  0  0
    4.5981    0.3988    0.0000 C   0  0  0  0  0  0  0  0  0  0  0  0
    5.4641    2.8988    0.0000 C   0  0  0  0  0  0  0  0  0  0  0  0
    5.4641   -1.1012    0.0000 C   0  0  0  0  0  0  0  0  0  0  0  0
    6.3301    3.3988    0.0000 C   0  0  0  0  0  0  0  0  0  0  0  0
    4.5981   -1.6012    0.0000 C   0  0  0  0  0  0  0  0  0  0  0  0
    7.2437    2.9920    0.0000 C   0  0  0  0  0  0  0  0  0  0  0  0
    6.4347    4.3933    0.0000 C   0  0  0  0  0  0  0  0  0  0  0  0
    7.9128    3.7352    0.0000 C   0  0  0  0  0  0  0  0  0  0  0  0
    3.7320   -3.1012    0.0000 C   0  0  0  0  0  0  0  0  0  0  0  0
    2.8660   -2.6012    0.0000 C   0  0  0  0  0  0  0  0  0  0  0  0
    3.7320   -4.1012    0.0000 C   0  0  0  0  0  0  0  0  0  0  0  0
    2.0000   -3.1012    0.0000 C   0  0  0  0  0  0  0  0  0  0  0  0
    2.8660   -4.6012    0.0000 C   0  0  0  0  0  0  0  0  0  0  0  0
    2.0000   -4.1012    0.0000 C   0  0  0  0  0  0  0  0  0  0  0  0
    6.9407    1.2911    0.0000 H   0  0  0  0  0  0  0  0  0  0  0  0
    6.5422    1.9814    0.0000 H   0  0  0  0  0  0  0  0  0  0  0  0
    4.3860    1.9814    0.0000 H   0  0  0  0  0  0  0  0  0  0  0  0
    3.9875    1.2911    0.0000 H   0  0  0  0  0  0  0  0  0  0  0  0
    6.5422   -0.1838    0.0000 H   0  0  0  0  0  0  0  0  0  0  0  0
    6.9407    0.5064    0.0000 H   0  0  0  0  0  0  0  0  0  0  0  0
    3.9875    0.5064    0.0000 H   0  0  0  0  0  0  0  0  0  0  0  0
    4.3860   -0.1838    0.0000 H   0  0  0  0  0  0  0  0  0  0  0  0
    5.2520    3.4814    0.0000 H   0  0  0  0  0  0  0  0  0  0  0  0
    4.8535    2.7911    0.0000 H   0  0  0  0  0  0  0  0  0  0  0  0
    5.6762   -1.6838    0.0000 H   0  0  0  0  0  0  0  0  0  0  0  0
    6.0747   -0.9936    0.0000 H   0  0  0  0  0  0  0  0  0  0  0  0
    7.3726    2.3856    0.0000 H   0  0  0  0  0  0  0  0  0  0  0  0
    5.9739    4.8082    0.0000 H   0  0  0  0  0  0  0  0  0  0  0  0
    5.1350   -2.9112    0.0000 H   0  0  0  0  0  0  0  0  0  0  0  0
    8.5294    3.6704    0.0000 H   0  0  0  0  0  0  0  0  0  0  0  0
    4.2690   -4.4112    0.0000 H   0  0  0  0  0  0  0  0  0  0  0  0
    1.4631   -2.7912    0.0000 H   0  0  0  0  0  0  0  0  0  0  0  0
    2.8660   -5.2212    0.0000 H   0  0  0  0  0  0  0  0  0  0  0  0
    1.4631   -4.4112    0.0000 H   0  0  0  0  0  0  0  0  0  0  0  0
  1 19  1  0  0  0  0
  2 16  1  0  0  0  0
  2 17  1  0  0  0  0
  3 14  2  0  0  0  0
  4  7  1  0  0  0  0
  4  8  1  0  0  0  0
  4 11  1  0  0  0  0
  5  9  1  0  0  0  0
  5 10  1  0  0  0  0
  5 12  1  0  0  0  0
  6 14  1  0  0  0  0
  6 18  1  0  0  0  0
  6 38  1  0  0  0  0
  7  9  1  0  0  0  0
  7 24  1  0  0  0  0
  7 25  1  0  0  0  0
  8 10  1  0  0  0  0
  8 26  1  0  0  0  0
  8 27  1  0  0  0  0
  9 28  1  0  0  0  0
  9 29  1  0  0  0  0
 10 30  1  0  0  0  0
 10 31  1  0  0  0  0
 11 13  1  0  0  0  0
 11 32  1  0  0  0  0
 11 33  1  0  0  0  0
 12 14  1  0  0  0  0
 12 34  1  0  0  0  0
 12 35  1  0  0  0  0
 13 15  1  0  0  0  0
 13 16  2  0  0  0  0
 15 17  2  0  0  0  0
 15 36  1  0  0  0  0
 16 37  1  0  0  0  0
 17 39  1  0  0  0  0
 18 19  1  0  0  0  0
 18 20  2  0  0  0  0
 19 21  2  0  0  0  0
 20 22  1  0  0  0  0
 20 40  1  0  0  0  0
 21 23  1  0  0  0  0
 21 41  1  0  0  0  0
 22 23  2  0  0  0  0
 22 42  1  0  0  0  0
 23 43  1  0  0  0  0
M  END
> <PUBCHEM_COMPOUND_CID>
17395330

> <PUBCHEM_COMPOUND_CANONICALIZED>
1

> <PUBCHEM_CACTVS_COMPLEXITY>
390

> <PUBCHEM_CACTVS_HBOND_ACCEPTOR>
4

> <PUBCHEM_CACTVS_HBOND_DONOR>
1

> <PUBCHEM_CACTVS_ROTATABLE_BOND>
5

> <PUBCHEM_CACTVS_SUBSKEYS>
AAADceB7IABEAAAAAAAAAAAAAAAAASAAAAA8QAAAAAAAAAABwAAAHgYQAAAADArF2CSwwYPAAAiMAiVSUACDAIAhDxBIiBiIZogIYCLhk7HUIAhglADoyAcQAAAIAAAAAAAAABAAAAAAAAAAIAAAAAAAAA==

> <PUBCHEM_IUPAC_OPENEYE_NAME>
N-(2-chlorophenyl)-2-[4-(3-thienylmethyl)piperazin-1-yl]acetamide

> <PUBCHEM_IUPAC_CAS_NAME>
N-(2-chlorophenyl)-2-[4-(3-thiophenylmethyl)-1-piperazinyl]acetamide

> <PUBCHEM_IUPAC_NAME>
N-(2-chlorophenyl)-2-[4-(thiophen-3-ylmethyl)piperazin-1-yl]acetamide

> <PUBCHEM_IUPAC_SYSTEMATIC_NAME>
N-(2-chlorophenyl)-2-[4-(thiophen-3-ylmethyl)piperazin-1-yl]ethanamide

> <PUBCHEM_IUPAC_TRADITIONAL_NAME>
N-(2-chlorophenyl)-2-[4-(3-thenyl)piperazino]acetamide

> <PUBCHEM_IUPAC_INCHI>
InChI=1S/C17H20ClN3OS/c18-15-3-1-2-4-16(15)19-17(22)12-21-8-6-20(7-9-21)11-14-5-10-23-13-14/h1-5,10,13H,6-9,11-12H2,(H,19,22)

> <PUBCHEM_IUPAC_INCHIKEY>
DSZDPIIGLKKYGF-UHFFFAOYSA-N

> <PUBCHEM_XLOGP3_AA>
2.8

> <PUBCHEM_EXACT_MASS>
349.101561

> <PUBCHEM_MOLECULAR_FORMULA>
C17H20ClN3OS

> <PUBCHEM_MOLECULAR_WEIGHT>
349.8782

> <PUBCHEM_OPENEYE_CAN_SMILES>
C1CN(CCN1CC2=CSC=C2)CC(=O)NC3=CC=CC=C3Cl

> <PUBCHEM_OPENEYE_ISO_SMILES>
C1CN(CCN1CC2=CSC=C2)CC(=O)NC3=CC=CC=C3Cl

> <PUBCHEM_CACTVS_TPSA>
63.8

> <PUBCHEM_MONOISOTOPIC_WEIGHT>
349.101561

> <PUBCHEM_TOTAL_CHARGE>
0

> <PUBCHEM_HEAVY_ATOM_COUNT>
23

> <PUBCHEM_ATOM_DEF_STEREO_COUNT>
0

> <PUBCHEM_ATOM_UDEF_STEREO_COUNT>
0

> <PUBCHEM_BOND_DEF_STEREO_COUNT>
0

> <PUBCHEM_BOND_UDEF_STEREO_COUNT>
0

> <PUBCHEM_ISOTOPIC_ATOM_COUNT>
0

> <PUBCHEM_COMPONENT_COUNT>
1

> <PUBCHEM_CACTVS_TAUTO_COUNT>
3

> <PUBCHEM_COORDINATE_TYPE>
1
5
255

> <PUBCHEM_BONDANNOTATIONS>
13  15  8
13  16  8
15  17  8
18  19  8
18  20  8
19  21  8
2  16  8
2  17  8
20  22  8
21  23  8
22  23  8

$$$$

