5281655
  -OEChem-07051212582D

 76 81  0     1  0  0  0  0  0999 V2000
    8.4638    1.4900    0.0000 O   0  0  0  0  0  0  0  0  0  0  0  0
    7.0539   -0.2773    0.0000 O   0  0  0  0  0  0  0  0  0  0  0  0
   11.0516   -0.0453    0.0000 O   0  0  0  0  0  0  0  0  0  0  0  0
    7.0539   -3.0397    0.0000 O   0  0  0  0  0  0  0  0  0  0  0  0
    3.9040   -0.1554    0.0000 O   0  0  0  0  0  0  0  0  0  0  0  0
    5.5276   -3.0397    0.0000 O   0  0  0  0  0  0  0  0  0  0  0  0
    9.6573    2.9121    0.0000 O   0  0  0  0  0  0  0  0  0  0  0  0
    7.8170   -0.7179    0.0000 C   0  0  2  0  0  0  0  0  0  0  0  0
    8.5801   -0.2773    0.0000 C   0  0  3  0  0  0  0  0  0  0  0  0
    8.6008    0.4864    0.0000 C   0  0  3  0  0  0  0  0  0  0  0  0
    9.2275    0.7409    0.0000 C   0  0  0  0  0  0  0  0  0  0  0  0
    9.3433   -0.7179    0.0000 C   0  0  0  0  0  0  0  0  0  0  0  0
    9.3433   -1.5991    0.0000 C   0  0  3  0  0  0  0  0  0  0  0  0
    7.8170   -1.5991    0.0000 C   0  0  0  0  0  0  0  0  0  0  0  0
   10.0891   -0.3165    0.0000 C   0  0  0  0  0  0  0  0  0  0  0  0
    8.5801   -2.0397    0.0000 C   0  0  0  0  0  0  0  0  0  0  0  0
    7.6251    0.7052    0.0000 C   0  0  0  0  0  0  0  0  0  0  0  0
    9.9641    1.4172    0.0000 C   0  0  0  0  0  0  0  0  0  0  0  0
   10.2139    0.5768    0.0000 C   0  0  0  0  0  0  0  0  0  0  0  0
    7.0539   -2.0397    0.0000 C   0  0  0  0  0  0  0  0  0  0  0  0
    6.2907   -0.7179    0.0000 C   0  0  0  0  0  0  0  0  0  0  0  0
    6.2907   -1.5991    0.0000 C   0  0  0  0  0  0  0  0  0  0  0  0
    7.3267    1.6597    0.0000 C   0  0  0  0  0  0  0  0  0  0  0  0
    5.5276   -0.2773    0.0000 C   0  0  0  0  0  0  0  0  0  0  0  0
    5.5276   -2.0397    0.0000 C   0  0  0  0  0  0  0  0  0  0  0  0
    8.0041    2.3953    0.0000 C   0  0  0  0  0  0  0  0  0  0  0  0
    4.7644   -0.7179    0.0000 C   0  0  0  0  0  0  0  0  0  0  0  0
    4.7644   -1.5991    0.0000 C   0  0  0  0  0  0  0  0  0  0  0  0
    5.5276    0.7227    0.0000 C   0  0  0  0  0  0  0  0  0  0  0  0
    7.7058    3.3497    0.0000 C   0  0  0  0  0  0  0  0  0  0  0  0
    3.9040   -2.1616    0.0000 C   0  0  0  0  0  0  0  0  0  0  0  0
    8.9799    2.1764    0.0000 C   0  0  0  0  0  0  0  0  0  0  0  0
    2.9999   -0.6446    0.0000 C   0  0  0  0  0  0  0  0  0  0  0  0
    4.6616    1.2227    0.0000 C   0  0  0  0  0  0  0  0  0  0  0  0
    2.9999   -1.6725    0.0000 C   0  0  0  0  0  0  0  0  0  0  0  0
    2.0000   -0.6307    0.0000 C   0  0  0  0  0  0  0  0  0  0  0  0
    2.5120    0.2283    0.0000 C   0  0  0  0  0  0  0  0  0  0  0  0
    4.6615    2.2227    0.0000 C   0  0  0  0  0  0  0  0  0  0  0  0
    3.7955    2.7226    0.0000 C   0  0  0  0  0  0  0  0  0  0  0  0
    5.5276    2.7227    0.0000 C   0  0  0  0  0  0  0  0  0  0  0  0
    9.4057   -0.0749    0.0000 H   0  0  0  0  0  0  0  0  0  0  0  0
    9.9538   -0.8256    0.0000 H   0  0  0  0  0  0  0  0  0  0  0  0
    9.5553   -0.1353    0.0000 H   0  0  0  0  0  0  0  0  0  0  0  0
    9.9434   -2.2011    0.0000 H   0  0  0  0  0  0  0  0  0  0  0  0
    8.5801   -2.6597    0.0000 H   0  0  0  0  0  0  0  0  0  0  0  0
    7.0102    0.6258    0.0000 H   0  0  0  0  0  0  0  0  0  0  0  0
    7.5965    0.0859    0.0000 H   0  0  0  0  0  0  0  0  0  0  0  0
   10.3834    0.9605    0.0000 H   0  0  0  0  0  0  0  0  0  0  0  0
   10.4208    1.8366    0.0000 H   0  0  0  0  0  0  0  0  0  0  0  0
    9.5448    1.8739    0.0000 H   0  0  0  0  0  0  0  0  0  0  0  0
   10.1122   -0.0348    0.0000 H   0  0  0  0  0  0  0  0  0  0  0  0
   10.8255    0.4751    0.0000 H   0  0  0  0  0  0  0  0  0  0  0  0
   10.3156    1.1884    0.0000 H   0  0  0  0  0  0  0  0  0  0  0  0
    6.7217    1.7953    0.0000 H   0  0  0  0  0  0  0  0  0  0  0  0
    6.1382    0.6150    0.0000 H   0  0  0  0  0  0  0  0  0  0  0  0
    5.7396    1.3053    0.0000 H   0  0  0  0  0  0  0  0  0  0  0  0
    8.2975    3.5347    0.0000 H   0  0  0  0  0  0  0  0  0  0  0  0
    7.5208    3.9415    0.0000 H   0  0  0  0  0  0  0  0  0  0  0  0
    7.1140    3.1648    0.0000 H   0  0  0  0  0  0  0  0  0  0  0  0
    3.9298   -2.7811    0.0000 H   0  0  0  0  0  0  0  0  0  0  0  0
    4.9906   -3.3497    0.0000 H   0  0  0  0  0  0  0  0  0  0  0  0
    9.1649    1.5847    0.0000 H   0  0  0  0  0  0  0  0  0  0  0  0
    4.1246    0.9127    0.0000 H   0  0  0  0  0  0  0  0  0  0  0  0
    2.4673   -1.9899    0.0000 H   0  0  0  0  0  0  0  0  0  0  0  0
    2.0086   -0.0108    0.0000 H   0  0  0  0  0  0  0  0  0  0  0  0
    1.3801   -0.6221    0.0000 H   0  0  0  0  0  0  0  0  0  0  0  0
    1.9914   -1.2506    0.0000 H   0  0  0  0  0  0  0  0  0  0  0  0
    3.0531    0.5308    0.0000 H   0  0  0  0  0  0  0  0  0  0  0  0
    2.2094    0.7695    0.0000 H   0  0  0  0  0  0  0  0  0  0  0  0
    1.9708   -0.0742    0.0000 H   0  0  0  0  0  0  0  0  0  0  0  0
    5.8376    2.1857    0.0000 H   0  0  0  0  0  0  0  0  0  0  0  0
    6.0645    3.0327    0.0000 H   0  0  0  0  0  0  0  0  0  0  0  0
    5.2176    3.2596    0.0000 H   0  0  0  0  0  0  0  0  0  0  0  0
    4.1055    3.2596    0.0000 H   0  0  0  0  0  0  0  0  0  0  0  0
    3.2586    3.0326    0.0000 H   0  0  0  0  0  0  0  0  0  0  0  0
    3.4855    2.1857    0.0000 H   0  0  0  0  0  0  0  0  0  0  0  0
  1 10  1  0  0  0  0
  1 11  1  0  0  0  0
  8  2  1  1  0  0  0
  2 21  1  0  0  0  0
  3 15  2  0  0  0  0
  4 20  2  0  0  0  0
  5 27  1  0  0  0  0
  5 33  1  0  0  0  0
  6 25  1  0  0  0  0
  6 61  1  0  0  0  0
  7 32  2  0  0  0  0
  8  9  1  0  0  0  0
  8 10  1  0  0  0  0
  8 14  1  0  0  0  0
  9 11  1  0  0  0  0
  9 12  1  0  0  0  0
  9 41  1  0  0  0  0
 10 15  1  0  0  0  0
 10 17  1  0  0  0  0
 11 18  1  0  0  0  0
 11 19  1  0  0  0  0
 12 13  1  0  0  0  0
 12 42  1  0  0  0  0
 12 43  1  0  0  0  0
 13 15  1  0  0  0  0
 13 16  1  0  0  0  0
 13 44  1  0  0  0  0
 14 16  2  0  0  0  0
 14 20  1  0  0  0  0
 16 45  1  0  0  0  0
 17 23  1  0  0  0  0
 17 46  1  0  0  0  0
 17 47  1  0  0  0  0
 18 48  1  0  0  0  0
 18 49  1  0  0  0  0
 18 50  1  0  0  0  0
 19 51  1  0  0  0  0
 19 52  1  0  0  0  0
 19 53  1  0  0  0  0
 20 22  1  0  0  0  0
 21 22  1  0  0  0  0
 21 24  2  0  0  0  0
 22 25  2  0  0  0  0
 23 26  2  0  0  0  0
 23 54  1  0  0  0  0
 24 27  1  0  0  0  0
 24 29  1  0  0  0  0
 25 28  1  0  0  0  0
 26 30  1  0  0  0  0
 26 32  1  0  0  0  0
 27 28  2  0  0  0  0
 28 31  1  0  0  0  0
 29 34  1  0  0  0  0
 29 55  1  0  0  0  0
 29 56  1  0  0  0  0
 30 57  1  0  0  0  0
 30 58  1  0  0  0  0
 30 59  1  0  0  0  0
 31 35  2  0  0  0  0
 31 60  1  0  0  0  0
 32 62  1  0  0  0  0
 33 35  1  0  0  0  0
 33 36  1  0  0  0  0
 33 37  1  0  0  0  0
 34 38  2  0  0  0  0
 34 63  1  0  0  0  0
 35 64  1  0  0  0  0
 36 65  1  0  0  0  0
 36 66  1  0  0  0  0
 36 67  1  0  0  0  0
 37 68  1  0  0  0  0
 37 69  1  0  0  0  0
 37 70  1  0  0  0  0
 38 39  1  0  0  0  0
 38 40  1  0  0  0  0
 39 74  1  0  0  0  0
 39 75  1  0  0  0  0
 39 76  1  0  0  0  0
 40 71  1  0  0  0  0
 40 72  1  0  0  0  0
 40 73  1  0  0  0  0
M  END
> <PUBCHEM_COMPOUND_CID>
5281655

> <PUBCHEM_COMPOUND_CANONICALIZED>
1

> <PUBCHEM_CACTVS_COMPLEXITY>
1280

> <PUBCHEM_CACTVS_HBOND_ACCEPTOR>
7

> <PUBCHEM_CACTVS_HBOND_DONOR>
1

> <PUBCHEM_CACTVS_ROTATABLE_BOND>
5

> <PUBCHEM_CACTVS_SUBSKEYS>
AAADcfB8OAAAAAAAAAAAAAAAAAAAASAAAAA0YIECBIAAAACRAAAAGgAACAAADUSgmAICBoAABgCIAqhSgAICCAAkIAAIiAFECMgNJzaGNR6CeWCl4BUKuYeK7vzuoAACCAAIAADAAAYQADCAAAAAAAAAAA==

> <PUBCHEM_IUPAC_INCHI>
InChI=1S/C33H36O7/c1-17(2)8-9-21-27-20(11-12-30(4,5)38-27)25(35)24-26(36)22-14-19-15-23-31(6,7)40-32(29(19)37,13-10-18(3)16-34)33(22,23)39-28(21)24/h8,10-12,14,16,19,23,35H,9,13,15H2,1-7H3/b18-10-/t19?,23?,32?,33-/m1/s1

> <PUBCHEM_IUPAC_INCHIKEY>
COQAPWLZSHQTKA-PYOCCJRJSA-N

> <PUBCHEM_XLOGP3_AA>
5.3

> <PUBCHEM_EXACT_MASS>
544.246103

> <PUBCHEM_MOLECULAR_FORMULA>
C33H36O7

> <PUBCHEM_MOLECULAR_WEIGHT>
544.63474

> <PUBCHEM_OPENEYE_CAN_SMILES>
CC(=CCC1=C2C(=C(C3=C1OC(C=C3)(C)C)O)C(=O)C4=CC5CC6C4(O2)C(C5=O)(OC6(C)C)CC=C(C)C=O)C

> <PUBCHEM_OPENEYE_ISO_SMILES>
CC(=CCC1=C2C(=C(C3=C1OC(C=C3)(C)C)O)C(=O)C4=CC5CC6[C@@]4(O2)C(C5=O)(OC6(C)C)C/C=C(/C)\C=O)C

> <PUBCHEM_CACTVS_TPSA>
99.1

> <PUBCHEM_MONOISOTOPIC_WEIGHT>
544.246103

> <PUBCHEM_TOTAL_CHARGE>
0

> <PUBCHEM_HEAVY_ATOM_COUNT>
40

> <PUBCHEM_ATOM_DEF_STEREO_COUNT>
1

> <PUBCHEM_ATOM_UDEF_STEREO_COUNT>
3

> <PUBCHEM_BOND_DEF_STEREO_COUNT>
1

> <PUBCHEM_BOND_UDEF_STEREO_COUNT>
0

> <PUBCHEM_ISOTOPIC_ATOM_COUNT>
0

> <PUBCHEM_COMPONENT_COUNT>
1

> <PUBCHEM_CACTVS_TAUTO_COUNT>
19

> <PUBCHEM_COORDINATE_TYPE>
1
5
255

> <PUBCHEM_BONDANNOTATIONS>
10  17  3
13  44  3
8  2  5
21  22  8
21  24  8
22  25  8
24  27  8
25  28  8
27  28  8
9  41  3

$$$$

