439865
  -OEChem-07051212472D

 52 55  0     1  0  0  0  0  0999 V2000
    6.5469   -1.7058    0.0000 O   0  0  0  0  0  0  0  0  0  0  0  0
    4.7931    0.3257    0.0000 C   0  0  3  0  0  0  0  0  0  0  0  0
    5.6591   -0.1743    0.0000 C   0  0  3  0  0  0  0  0  0  0  0  0
    6.5251    0.3257    0.0000 C   0  0  3  0  0  0  0  0  0  0  0  0
    3.8831   -0.1811    0.0000 C   0  0  3  0  0  0  0  0  0  0  0  0
    6.5251    1.3257    0.0000 C   0  0  3  0  0  0  0  0  0  0  0  0
    3.8751   -1.2227    0.0000 C   0  0  3  0  0  0  0  0  0  0  0  0
    4.7931    1.3257    0.0000 C   0  0  0  0  0  0  0  0  0  0  0  0
    5.6752   -1.2158    0.0000 C   0  0  2  0  0  0  0  0  0  0  0  0
    5.6591    1.8257    0.0000 C   0  0  0  0  0  0  0  0  0  0  0  0
    4.7771   -1.7436    0.0000 C   0  0  0  0  0  0  0  0  0  0  0  0
    7.4714    0.0210    0.0000 C   0  0  0  0  0  0  0  0  0  0  0  0
    7.4714    1.6304    0.0000 C   0  0  0  0  0  0  0  0  0  0  0  0
    2.9562    0.3829    0.0000 C   0  0  0  0  0  0  0  0  0  0  0  0
    8.0550    0.8257    0.0000 C   0  0  0  0  0  0  0  0  0  0  0  0
    2.9396   -1.7725    0.0000 C   0  0  0  0  0  0  0  0  0  0  0  0
    3.8908    0.8188    0.0000 C   0  0  0  0  0  0  0  0  0  0  0  0
    6.5251    2.3257    0.0000 C   0  0  0  0  0  0  0  0  0  0  0  0
    2.0084   -0.1450    0.0000 C   0  0  0  0  0  0  0  0  0  0  0  0
    2.0000   -1.2300    0.0000 C   0  0  0  0  0  0  0  0  0  0  0  0
    5.5292    0.7507    0.0000 H   0  0  0  0  0  0  0  0  0  0  0  0
    6.3985   -0.5936    0.0000 H   0  0  0  0  0  0  0  0  0  0  0  0
    6.6151   -0.5195    0.0000 H   0  0  0  0  0  0  0  0  0  0  0  0
    3.8783   -2.0727    0.0000 H   0  0  0  0  0  0  0  0  0  0  0  0
    4.5810    1.9083    0.0000 H   0  0  0  0  0  0  0  0  0  0  0  0
    4.1825    1.2180    0.0000 H   0  0  0  0  0  0  0  0  0  0  0  0
    5.6812   -1.8358    0.0000 H   0  0  0  0  0  0  0  0  0  0  0  0
    6.0576    2.3007    0.0000 H   0  0  0  0  0  0  0  0  0  0  0  0
    5.2606    2.3007    0.0000 H   0  0  0  0  0  0  0  0  0  0  0  0
    4.3798   -2.2195    0.0000 H   0  0  0  0  0  0  0  0  0  0  0  0
    5.1781   -2.2164    0.0000 H   0  0  0  0  0  0  0  0  0  0  0  0
    7.2203   -0.5459    0.0000 H   0  0  0  0  0  0  0  0  0  0  0  0
    8.0087   -0.2882    0.0000 H   0  0  0  0  0  0  0  0  0  0  0  0
    8.0087    1.9397    0.0000 H   0  0  0  0  0  0  0  0  0  0  0  0
    7.2203    2.1974    0.0000 H   0  0  0  0  0  0  0  0  0  0  0  0
    3.3645    0.8496    0.0000 H   0  0  0  0  0  0  0  0  0  0  0  0
    2.5663    0.8650    0.0000 H   0  0  0  0  0  0  0  0  0  0  0  0
    8.5158    0.4110    0.0000 H   0  0  0  0  0  0  0  0  0  0  0  0
    8.5158    1.2404    0.0000 H   0  0  0  0  0  0  0  0  0  0  0  0
    2.5423   -2.2484    0.0000 H   0  0  0  0  0  0  0  0  0  0  0  0
    3.3406   -2.2454    0.0000 H   0  0  0  0  0  0  0  0  0  0  0  0
    4.5108    0.8141    0.0000 H   0  0  0  0  0  0  0  0  0  0  0  0
    3.8956    1.4388    0.0000 H   0  0  0  0  0  0  0  0  0  0  0  0
    3.2708    0.8236    0.0000 H   0  0  0  0  0  0  0  0  0  0  0  0
    7.1451    2.3257    0.0000 H   0  0  0  0  0  0  0  0  0  0  0  0
    6.5251    2.9457    0.0000 H   0  0  0  0  0  0  0  0  0  0  0  0
    5.9051    2.3257    0.0000 H   0  0  0  0  0  0  0  0  0  0  0  0
    1.8038    0.4403    0.0000 H   0  0  0  0  0  0  0  0  0  0  0  0
    1.3967   -0.2464    0.0000 H   0  0  0  0  0  0  0  0  0  0  0  0
    1.3900   -1.1192    0.0000 H   0  0  0  0  0  0  0  0  0  0  0  0
    1.7864   -1.8120    0.0000 H   0  0  0  0  0  0  0  0  0  0  0  0
    6.5541   -2.3257    0.0000 H   0  0  0  0  0  0  0  0  0  0  0  0
  9  1  1  1  0  0  0
  1 52  1  0  0  0  0
  2  3  1  0  0  0  0
  2  5  1  0  0  0  0
  2  8  1  0  0  0  0
  2 21  1  0  0  0  0
  3  4  1  0  0  0  0
  3  9  1  0  0  0  0
  3 22  1  0  0  0  0
  4  6  1  0  0  0  0
  4 12  1  0  0  0  0
  4 23  1  0  0  0  0
  5  7  1  0  0  0  0
  5 14  1  0  0  0  0
  5 17  1  0  0  0  0
  6 10  1  0  0  0  0
  6 13  1  0  0  0  0
  6 18  1  0  0  0  0
  7 11  1  0  0  0  0
  7 16  1  0  0  0  0
  7 24  1  0  0  0  0
  8 10  1  0  0  0  0
  8 25  1  0  0  0  0
  8 26  1  0  0  0  0
  9 11  1  0  0  0  0
  9 27  1  0  0  0  0
 10 28  1  0  0  0  0
 10 29  1  0  0  0  0
 11 30  1  0  0  0  0
 11 31  1  0  0  0  0
 12 15  1  0  0  0  0
 12 32  1  0  0  0  0
 12 33  1  0  0  0  0
 13 15  1  0  0  0  0
 13 34  1  0  0  0  0
 13 35  1  0  0  0  0
 14 19  1  0  0  0  0
 14 36  1  0  0  0  0
 14 37  1  0  0  0  0
 15 38  1  0  0  0  0
 15 39  1  0  0  0  0
 16 20  1  0  0  0  0
 16 40  1  0  0  0  0
 16 41  1  0  0  0  0
 17 42  1  0  0  0  0
 17 43  1  0  0  0  0
 17 44  1  0  0  0  0
 18 45  1  0  0  0  0
 18 46  1  0  0  0  0
 18 47  1  0  0  0  0
 19 20  1  0  0  0  0
 19 48  1  0  0  0  0
 19 49  1  0  0  0  0
 20 50  1  0  0  0  0
 20 51  1  0  0  0  0
M  END
> <PUBCHEM_COMPOUND_CID>
439865

> <PUBCHEM_COMPOUND_CANONICALIZED>
1

> <PUBCHEM_CACTVS_COMPLEXITY>
391

> <PUBCHEM_CACTVS_HBOND_ACCEPTOR>
1

> <PUBCHEM_CACTVS_HBOND_DONOR>
1

> <PUBCHEM_CACTVS_ROTATABLE_BOND>
0

> <PUBCHEM_CACTVS_SUBSKEYS>
AAADcfB4IAAAAAAAAAAAAAAAAAAAAYAAAAAwYMAAAAAAAGDAAAAAGgAACAAADxSggAICAAAAAgAAAAAAAAAAAAAAAAAAAAAAAAAAEAIAAAAAQAAEAAAAAAGAwPAPgAAAAAAAAADAAAYAADAAAAAACAAAAA==

> <PUBCHEM_IUPAC_OPENEYE_NAME>
(7S)-10,13-dimethyl-2,3,4,5,6,7,8,9,11,12,14,15,16,17-tetradecahydro-1H-cyclopenta[a]phenanthren-7-ol

> <PUBCHEM_IUPAC_CAS_NAME>
(7S)-10,13-dimethyl-2,3,4,5,6,7,8,9,11,12,14,15,16,17-tetradecahydro-1H-cyclopenta[a]phenanthren-7-ol

> <PUBCHEM_IUPAC_NAME>
(7S)-10,13-dimethyl-2,3,4,5,6,7,8,9,11,12,14,15,16,17-tetradecahydro-1H-cyclopenta[a]phenanthren-7-ol

> <PUBCHEM_IUPAC_SYSTEMATIC_NAME>
(7S)-10,13-dimethyl-2,3,4,5,6,7,8,9,11,12,14,15,16,17-tetradecahydro-1H-cyclopenta[a]phenanthren-7-ol

> <PUBCHEM_IUPAC_TRADITIONAL_NAME>
(7S)-10,13-dimethyl-2,3,4,5,6,7,8,9,11,12,14,15,16,17-tetradecahydro-1H-cyclopenta[a]phenanthren-7-ol

> <PUBCHEM_IUPAC_INCHI>
InChI=1S/C19H32O/c1-18-9-5-7-14(18)17-15(8-11-18)19(2)10-4-3-6-13(19)12-16(17)20/h13-17,20H,3-12H2,1-2H3/t13?,14?,15?,16-,17?,18?,19?/m0/s1

> <PUBCHEM_IUPAC_INCHIKEY>
GUCUXPJTVXMEKL-JHBQCQMPSA-N

> <PUBCHEM_XLOGP3_AA>
6.3

> <PUBCHEM_EXACT_MASS>
276.245316

> <PUBCHEM_MOLECULAR_FORMULA>
C19H32O

> <PUBCHEM_MOLECULAR_WEIGHT>
276.45678

> <PUBCHEM_OPENEYE_CAN_SMILES>
CC12CCCC1C3C(CC2)C4(CCCCC4CC3O)C

> <PUBCHEM_OPENEYE_ISO_SMILES>
CC12CCCC1C3[C@H](CC4CCCCC4(C3CC2)C)O

> <PUBCHEM_CACTVS_TPSA>
20.2

> <PUBCHEM_MONOISOTOPIC_WEIGHT>
276.245316

> <PUBCHEM_TOTAL_CHARGE>
0

> <PUBCHEM_HEAVY_ATOM_COUNT>
20

> <PUBCHEM_ATOM_DEF_STEREO_COUNT>
1

> <PUBCHEM_ATOM_UDEF_STEREO_COUNT>
6

> <PUBCHEM_BOND_DEF_STEREO_COUNT>
0

> <PUBCHEM_BOND_UDEF_STEREO_COUNT>
0

> <PUBCHEM_ISOTOPIC_ATOM_COUNT>
0

> <PUBCHEM_COMPONENT_COUNT>
1

> <PUBCHEM_CACTVS_TAUTO_COUNT>
1

> <PUBCHEM_COORDINATE_TYPE>
1
5
255

> <PUBCHEM_BONDANNOTATIONS>
9  1  5
2  21  3
3  22  3
4  23  3
5  17  3
6  18  3
7  24  3

$$$$

