854073
  -OEChem-06241222472D

 33 34  0     0  0  0  0  0  0999 V2000
    6.3582    2.5094    0.0000 O   0  0  0  0  0  0  0  0  0  0  0  0
    2.8660    1.2306    0.0000 O   0  0  0  0  0  0  0  0  0  0  0  0
    4.5981    2.2306    0.0000 N   0  0  0  0  0  0  0  0  0  0  0  0
    3.7320   -0.2694    0.0000 N   0  0  0  0  0  0  0  0  0  0  0  0
    3.7891    2.8184    0.0000 C   0  0  0  0  0  0  0  0  0  0  0  0
    4.0981    3.7694    0.0000 C   0  0  0  0  0  0  0  0  0  0  0  0
    5.0981    3.7694    0.0000 C   0  0  0  0  0  0  0  0  0  0  0  0
    5.4071    2.8184    0.0000 C   0  0  0  0  0  0  0  0  0  0  0  0
    4.5981    1.2306    0.0000 C   0  0  0  0  0  0  0  0  0  0  0  0
    3.7320    0.7306    0.0000 C   0  0  0  0  0  0  0  0  0  0  0  0
    2.8660   -0.7694    0.0000 C   0  0  0  0  0  0  0  0  0  0  0  0
    2.8660   -1.7694    0.0000 C   0  0  0  0  0  0  0  0  0  0  0  0
    2.0000   -2.2694    0.0000 C   0  0  0  0  0  0  0  0  0  0  0  0
    3.7320   -2.2694    0.0000 C   0  0  0  0  0  0  0  0  0  0  0  0
    2.0000   -3.2694    0.0000 C   0  0  0  0  0  0  0  0  0  0  0  0
    3.7320   -3.2694    0.0000 C   0  0  0  0  0  0  0  0  0  0  0  0
    2.8660   -3.7694    0.0000 C   0  0  0  0  0  0  0  0  0  0  0  0
    3.2227    3.0705    0.0000 H   0  0  0  0  0  0  0  0  0  0  0  0
    3.4791    2.2814    0.0000 H   0  0  0  0  0  0  0  0  0  0  0  0
    4.1629    4.3860    0.0000 H   0  0  0  0  0  0  0  0  0  0  0  0
    3.4916    3.8983    0.0000 H   0  0  0  0  0  0  0  0  0  0  0  0
    5.7045    3.8983    0.0000 H   0  0  0  0  0  0  0  0  0  0  0  0
    5.0333    4.3860    0.0000 H   0  0  0  0  0  0  0  0  0  0  0  0
    4.8101    0.6480    0.0000 H   0  0  0  0  0  0  0  0  0  0  0  0
    5.2087    1.3382    0.0000 H   0  0  0  0  0  0  0  0  0  0  0  0
    4.2690   -0.5794    0.0000 H   0  0  0  0  0  0  0  0  0  0  0  0
    2.6540   -0.1868    0.0000 H   0  0  0  0  0  0  0  0  0  0  0  0
    2.2554   -0.8771    0.0000 H   0  0  0  0  0  0  0  0  0  0  0  0
    1.4631   -1.9594    0.0000 H   0  0  0  0  0  0  0  0  0  0  0  0
    4.2690   -1.9594    0.0000 H   0  0  0  0  0  0  0  0  0  0  0  0
    1.4631   -3.5794    0.0000 H   0  0  0  0  0  0  0  0  0  0  0  0
    4.2690   -3.5794    0.0000 H   0  0  0  0  0  0  0  0  0  0  0  0
    2.8660   -4.3894    0.0000 H   0  0  0  0  0  0  0  0  0  0  0  0
  1  8  2  0  0  0  0
  2 10  2  0  0  0  0
  3  5  1  0  0  0  0
  3  8  1  0  0  0  0
  3  9  1  0  0  0  0
  4 10  1  0  0  0  0
  4 11  1  0  0  0  0
  4 26  1  0  0  0  0
  5  6  1  0  0  0  0
  5 18  1  0  0  0  0
  5 19  1  0  0  0  0
  6  7  1  0  0  0  0
  6 20  1  0  0  0  0
  6 21  1  0  0  0  0
  7  8  1  0  0  0  0
  7 22  1  0  0  0  0
  7 23  1  0  0  0  0
  9 10  1  0  0  0  0
  9 24  1  0  0  0  0
  9 25  1  0  0  0  0
 11 12  1  0  0  0  0
 11 27  1  0  0  0  0
 11 28  1  0  0  0  0
 12 13  2  0  0  0  0
 12 14  1  0  0  0  0
 13 15  1  0  0  0  0
 13 29  1  0  0  0  0
 14 16  2  0  0  0  0
 14 30  1  0  0  0  0
 15 17  2  0  0  0  0
 15 31  1  0  0  0  0
 16 17  1  0  0  0  0
 16 32  1  0  0  0  0
 17 33  1  0  0  0  0
M  END
> <PUBCHEM_COMPOUND_CID>
854073

> <PUBCHEM_COMPOUND_CANONICALIZED>
1

> <PUBCHEM_CACTVS_COMPLEXITY>
285

> <PUBCHEM_CACTVS_HBOND_ACCEPTOR>
2

> <PUBCHEM_CACTVS_HBOND_DONOR>
1

> <PUBCHEM_CACTVS_ROTATABLE_BOND>
4

> <PUBCHEM_CACTVS_SUBSKEYS>
AAADceBzMAAAAAAAAAAAAAAAAAAAAWAAAAAwAAAAAAAAAAABAAAAHgAQAAAADADBmAQwAIPAAACIAiFSEACCAAAgAAAIiIGIBIgIYDKAkTGUIAhglgCIiAcUgAAOAAAAAAAAAAAAAAAAAAAAAAAAAAAAAA==

> <PUBCHEM_IUPAC_OPENEYE_NAME>
N-benzyl-2-(2-oxopyrrolidin-1-yl)acetamide

> <PUBCHEM_IUPAC_CAS_NAME>
2-(2-oxo-1-pyrrolidinyl)-N-(phenylmethyl)acetamide

> <PUBCHEM_IUPAC_NAME>
N-benzyl-2-(2-oxopyrrolidin-1-yl)acetamide

> <PUBCHEM_IUPAC_SYSTEMATIC_NAME>
2-(2-oxidanylidenepyrrolidin-1-yl)-N-(phenylmethyl)ethanamide

> <PUBCHEM_IUPAC_TRADITIONAL_NAME>
N-benzyl-2-(2-ketopyrrolidino)acetamide

> <PUBCHEM_IUPAC_INCHI>
InChI=1S/C13H16N2O2/c16-12(10-15-8-4-7-13(15)17)14-9-11-5-2-1-3-6-11/h1-3,5-6H,4,7-10H2,(H,14,16)

> <PUBCHEM_IUPAC_INCHIKEY>
ZDRGKCOOCZCMQF-UHFFFAOYSA-N

> <PUBCHEM_XLOGP3>
0.6

> <PUBCHEM_EXACT_MASS>
232.121178

> <PUBCHEM_MOLECULAR_FORMULA>
C13H16N2O2

> <PUBCHEM_MOLECULAR_WEIGHT>
232.27834

> <PUBCHEM_OPENEYE_CAN_SMILES>
C1CC(=O)N(C1)CC(=O)NCC2=CC=CC=C2

> <PUBCHEM_OPENEYE_ISO_SMILES>
C1CC(=O)N(C1)CC(=O)NCC2=CC=CC=C2

> <PUBCHEM_CACTVS_TPSA>
49.4

> <PUBCHEM_MONOISOTOPIC_WEIGHT>
232.121178

> <PUBCHEM_TOTAL_CHARGE>
0

> <PUBCHEM_HEAVY_ATOM_COUNT>
17

> <PUBCHEM_ATOM_DEF_STEREO_COUNT>
0

> <PUBCHEM_ATOM_UDEF_STEREO_COUNT>
0

> <PUBCHEM_BOND_DEF_STEREO_COUNT>
0

> <PUBCHEM_BOND_UDEF_STEREO_COUNT>
0

> <PUBCHEM_ISOTOPIC_ATOM_COUNT>
0

> <PUBCHEM_COMPONENT_COUNT>
1

> <PUBCHEM_CACTVS_TAUTO_COUNT>
4

> <PUBCHEM_COORDINATE_TYPE>
1
5
255

> <PUBCHEM_BONDANNOTATIONS>
12  13  8
12  14  8
13  15  8
14  16  8
15  17  8
16  17  8

$$$$

