17395385
  -OEChem-06241222492D

 36 38  0     0  0  0  0  0  0999 V2000
    2.0000    1.0173    0.0000 Br  0  0  0  0  0  0  0  0  0  0  0  0
    6.3301   -0.4827    0.0000 O   0  0  0  0  0  0  0  0  0  0  0  0
    8.9282    2.0173    0.0000 O   0  0  0  0  0  0  0  0  0  0  0  0
    5.4641   -1.9827    0.0000 O   0  0  0  0  0  0  0  0  0  0  0  0
    8.9282   -0.9827    0.0000 N   0  0  0  0  0  0  0  0  0  0  0  0
    8.0622    0.5173    0.0000 N   0  0  0  0  0  0  0  0  0  0  0  0
    9.7942   -0.4827    0.0000 C   0  0  0  0  0  0  0  0  0  0  0  0
    9.7942    0.5173    0.0000 C   0  0  0  0  0  0  0  0  0  0  0  0
   10.6882   -1.0174    0.0000 C   0  0  0  0  0  0  0  0  0  0  0  0
    8.0622   -0.4827    0.0000 C   0  0  0  0  0  0  0  0  0  0  0  0
   10.6882    1.0520    0.0000 C   0  0  0  0  0  0  0  0  0  0  0  0
   11.5942   -0.5035    0.0000 C   0  0  0  0  0  0  0  0  0  0  0  0
    8.9282    1.0173    0.0000 C   0  0  0  0  0  0  0  0  0  0  0  0
    7.1962   -0.9827    0.0000 C   0  0  0  0  0  0  0  0  0  0  0  0
   11.5942    0.5381    0.0000 C   0  0  0  0  0  0  0  0  0  0  0  0
   10.6766   -2.0173    0.0000 C   0  0  0  0  0  0  0  0  0  0  0  0
    4.5981   -0.4827    0.0000 C   0  0  0  0  0  0  0  0  0  0  0  0
    5.4641   -0.9827    0.0000 C   0  0  0  0  0  0  0  0  0  0  0  0
    4.5981    0.5173    0.0000 C   0  0  0  0  0  0  0  0  0  0  0  0
    3.7320   -0.9827    0.0000 C   0  0  0  0  0  0  0  0  0  0  0  0
    3.7320    1.0173    0.0000 C   0  0  0  0  0  0  0  0  0  0  0  0
    2.8660   -0.4827    0.0000 C   0  0  0  0  0  0  0  0  0  0  0  0
    2.8660    0.5173    0.0000 C   0  0  0  0  0  0  0  0  0  0  0  0
    8.9282   -1.6027    0.0000 H   0  0  0  0  0  0  0  0  0  0  0  0
   10.6810    1.6719    0.0000 H   0  0  0  0  0  0  0  0  0  0  0  0
   12.1300   -0.8156    0.0000 H   0  0  0  0  0  0  0  0  0  0  0  0
    6.7976   -1.4576    0.0000 H   0  0  0  0  0  0  0  0  0  0  0  0
    7.5947   -1.4576    0.0000 H   0  0  0  0  0  0  0  0  0  0  0  0
   12.1300    0.8502    0.0000 H   0  0  0  0  0  0  0  0  0  0  0  0
   10.0566   -2.0101    0.0000 H   0  0  0  0  0  0  0  0  0  0  0  0
   10.6694   -2.6373    0.0000 H   0  0  0  0  0  0  0  0  0  0  0  0
   11.2966   -2.0245    0.0000 H   0  0  0  0  0  0  0  0  0  0  0  0
    5.1350    0.8273    0.0000 H   0  0  0  0  0  0  0  0  0  0  0  0
    3.7320   -1.6027    0.0000 H   0  0  0  0  0  0  0  0  0  0  0  0
    3.7320    1.6373    0.0000 H   0  0  0  0  0  0  0  0  0  0  0  0
    2.3291   -0.7927    0.0000 H   0  0  0  0  0  0  0  0  0  0  0  0
  1 23  1  0  0  0  0
  2 14  1  0  0  0  0
  2 18  1  0  0  0  0
  3 13  2  0  0  0  0
  4 18  2  0  0  0  0
  5  7  1  0  0  0  0
  5 10  1  0  0  0  0
  5 24  1  0  0  0  0
  6 10  2  0  0  0  0
  6 13  1  0  0  0  0
  7  8  1  0  0  0  0
  7  9  2  0  0  0  0
  8 11  2  0  0  0  0
  8 13  1  0  0  0  0
  9 12  1  0  0  0  0
  9 16  1  0  0  0  0
 10 14  1  0  0  0  0
 11 15  1  0  0  0  0
 11 25  1  0  0  0  0
 12 15  2  0  0  0  0
 12 26  1  0  0  0  0
 14 27  1  0  0  0  0
 14 28  1  0  0  0  0
 15 29  1  0  0  0  0
 16 30  1  0  0  0  0
 16 31  1  0  0  0  0
 16 32  1  0  0  0  0
 17 18  1  0  0  0  0
 17 19  2  0  0  0  0
 17 20  1  0  0  0  0
 19 21  1  0  0  0  0
 19 33  1  0  0  0  0
 20 22  2  0  0  0  0
 20 34  1  0  0  0  0
 21 23  2  0  0  0  0
 21 35  1  0  0  0  0
 22 23  1  0  0  0  0
 22 36  1  0  0  0  0
M  END
> <PUBCHEM_COMPOUND_CID>
17395385

> <PUBCHEM_COMPOUND_CANONICALIZED>
1

> <PUBCHEM_CACTVS_COMPLEXITY>
500

> <PUBCHEM_CACTVS_HBOND_ACCEPTOR>
3

> <PUBCHEM_CACTVS_HBOND_DONOR>
1

> <PUBCHEM_CACTVS_ROTATABLE_BOND>
4

> <PUBCHEM_CACTVS_SUBSKEYS>
AAADccB7MAAAEAAAAAAAAAAAAAAAAAAAAAAwYIAAAAAAAACBQAAAHgBQAAABrAihmAIzyILABACoAifyfASCAAElAAQJiAEQTOgKJjrA/ZmHMYhk0AHY69eYyGCOAgACAAACAAAEAAQAAAQAAAAAAAAAAA==

> <PUBCHEM_IUPAC_OPENEYE_NAME>
(8-methyl-4-oxo-1H-quinazolin-2-yl)methyl 4-bromobenzoate

> <PUBCHEM_IUPAC_CAS_NAME>
4-bromobenzoic acid (8-methyl-4-oxo-1H-quinazolin-2-yl)methyl ester

> <PUBCHEM_IUPAC_NAME>
(8-methyl-4-oxo-1H-quinazolin-2-yl)methyl 4-bromobenzoate

> <PUBCHEM_IUPAC_SYSTEMATIC_NAME>
(8-methyl-4-oxidanylidene-1H-quinazolin-2-yl)methyl 4-bromanylbenzoate

> <PUBCHEM_IUPAC_TRADITIONAL_NAME>
4-bromobenzoic acid (4-keto-8-methyl-1H-quinazolin-2-yl)methyl ester

> <PUBCHEM_IUPAC_INCHI>
InChI=1S/C17H13BrN2O3/c1-10-3-2-4-13-15(10)19-14(20-16(13)21)9-23-17(22)11-5-7-12(18)8-6-11/h2-8H,9H2,1H3,(H,19,20,21)

> <PUBCHEM_IUPAC_INCHIKEY>
OTNHMQMVGUEWRA-UHFFFAOYSA-N

> <PUBCHEM_XLOGP3_AA>
3.3

> <PUBCHEM_EXACT_MASS>
372.010954

> <PUBCHEM_MOLECULAR_FORMULA>
C17H13BrN2O3

> <PUBCHEM_MOLECULAR_WEIGHT>
373.20072

> <PUBCHEM_OPENEYE_CAN_SMILES>
CC1=CC=CC2=C1NC(=NC2=O)COC(=O)C3=CC=C(C=C3)Br

> <PUBCHEM_OPENEYE_ISO_SMILES>
CC1=CC=CC2=C1NC(=NC2=O)COC(=O)C3=CC=C(C=C3)Br

> <PUBCHEM_CACTVS_TPSA>
67.8

> <PUBCHEM_MONOISOTOPIC_WEIGHT>
372.010954

> <PUBCHEM_TOTAL_CHARGE>
0

> <PUBCHEM_HEAVY_ATOM_COUNT>
23

> <PUBCHEM_ATOM_DEF_STEREO_COUNT>
0

> <PUBCHEM_ATOM_UDEF_STEREO_COUNT>
0

> <PUBCHEM_BOND_DEF_STEREO_COUNT>
0

> <PUBCHEM_BOND_UDEF_STEREO_COUNT>
0

> <PUBCHEM_ISOTOPIC_ATOM_COUNT>
0

> <PUBCHEM_COMPONENT_COUNT>
1

> <PUBCHEM_CACTVS_TAUTO_COUNT>
10

> <PUBCHEM_COORDINATE_TYPE>
1
5
255

> <PUBCHEM_BONDANNOTATIONS>
11  15  8
12  15  8
17  19  8
17  20  8
19  21  8
20  22  8
21  23  8
22  23  8
5  10  8
5  7  8
6  10  8
6  13  8
7  8  8
7  9  8
8  11  8
8  13  8
9  12  8

$$$$

