   Chemical and Physical Properties References

   [1]USDA ARS - USDA chemical properties
   from [2]ChemIDplus

   Color/Form

     * White to cream powder
     * Yellow amorphous powder
     * Colorless crystals
     * White, crystalline powder [Note: Commercial product is a yellow
       powder].

   from [3]HSDB

   Odor
        Odorless [Note: Commercial product has a pungent odor].
   from [4]HSDB

   Melting Point
        178 deg C
   from [5]HSDB

   Corrosivity
        Noncorrosive
   from [6]HSDB

   Density/Specific Gravity
        1.74
   from [7]HSDB

   Heat of Combustion
        (Est) -7100 BTU/lb= -3940 cal/g= -165X10+5 J/kg
   from [8]HSDB

   Octanol/Water Partition Coefficient
        log Kow= 2.35
   from [9]HSDB

   Solubilities

     * 7.78 g/100 ml chloroform; 8.15 g/100 ml tetrachloroethane; 4.96
       g/100 ml cyclohexanone; 4.70 g/100 ml dioxane; 2.13 g/100 ml
       benzene; 0.69 g/100 ml toluene; 0.04 g/100 ml heptane; 0.29 g/100
       ml ethanol; 0.25 g/100 ml ether @ 26 deg C.
     * 20 g/kg xylene; 21 g/kg acetone; 1.7 g/kg propan-2-ol @ 25 deg C
     * Slightly sol in ethylene dichloride
     * Soluble in kerosene.
     * In water, 5.1 mg/l @ 25 deg C

   from [10]HSDB

   Spectral Properties

     * SADTLER REFERENCE NUMBER: 10592 (IR, PRISM)
     * Intense mass spectral peaks: 79 m/z (100%), 77 m/z (42%), 80 m/z
       (25%), 149 m/z (21%)
     * MASS: NIST 53912 (NIST/EPA/MSDC Mass Spectral Database, 1990
       version); ALDN 152 (Aldermaston, Eight Peak Index of Mass Spectra,
       U.K.)

   from [11]HSDB

   Vapor Pressure
        9X10-8 mm Hg @ 25 deg C
   from [12]HSDB

   Other Chemical/Physical Properties

     * CRYSTALS FROM BENZENE, CARBON TETRACHLORIDE
     * Decomp products are corrosive.
     * Pungent odor /Technical grade/
     * Solubility of captan in water in the presence of acetone at a concn
       of 10 ul/l: 5328 + or - 274 ug/l; acetone at 100 ul/l: 5992 + or -
       337 ug/l; acetone at 500 ul/l: 6526 + or - 319 ug/l. /From table/

   from [13]HSDB

   Computed Properties
   Molecular Weight                  300.58932 [g/mol]
   Molecular Formula                 C[9]H[8]Cl[3]NO[2]S
   XLogP3                            2.4
   H-Bond Donor                      0
   H-Bond Acceptor                   3
   Rotatable Bond Count              1
   Tautomer Count                    3
   Exact Mass                        298.934133
   MonoIsotopic Mass                 298.934133
   Topological Polar Surface Area    62.7
   Heavy Atom Count                  16
   Formal Charge                     0
   Complexity                        340
   Isotope Atom Count                0
   Defined Atom Stereocenter Count   0
   Undefined Atom Stereocenter Count 2
   Defined Bond Stereocenter Count   0
   Undefined Bond Stereocenter Count 0
   Covalently-Bonded Unit Count      1
   Feature 3D Acceptor Count         2
   Feature 3D Ring Count             2
   Effective Rotor Count             2.6
   Conformer Sampling RMSD           0.6
   CID Conformer Count               [14]5

References

   1. http://www.ars.usda.gov/SP2UserFiles/ad_hoc/12755100DatabaseFiles/PesticidePropertiesDatabase/IndividualPesticideFiles/CAPTAN.TXT
   2. http://chem.sis.nlm.nih.gov/chemidplus/
   3. http://toxnet.nlm.nih.gov/cgi-bin/sis/search/r?dbs+hsdb:@term+@rn+@rel+133-06-2
   4. http://toxnet.nlm.nih.gov/cgi-bin/sis/search/r?dbs+hsdb:@term+@rn+@rel+133-06-2
   5. http://toxnet.nlm.nih.gov/cgi-bin/sis/search/r?dbs+hsdb:@term+@rn+@rel+133-06-2
   6. http://toxnet.nlm.nih.gov/cgi-bin/sis/search/r?dbs+hsdb:@term+@rn+@rel+133-06-2
   7. http://toxnet.nlm.nih.gov/cgi-bin/sis/search/r?dbs+hsdb:@term+@rn+@rel+133-06-2
   8. http://toxnet.nlm.nih.gov/cgi-bin/sis/search/r?dbs+hsdb:@term+@rn+@rel+133-06-2
   9. http://toxnet.nlm.nih.gov/cgi-bin/sis/search/r?dbs+hsdb:@term+@rn+@rel+133-06-2
  10. http://toxnet.nlm.nih.gov/cgi-bin/sis/search/r?dbs+hsdb:@term+@rn+@rel+133-06-2
  11. http://toxnet.nlm.nih.gov/cgi-bin/sis/search/r?dbs+hsdb:@term+@rn+@rel+133-06-2
  12. http://toxnet.nlm.nih.gov/cgi-bin/sis/search/r?dbs+hsdb:@term+@rn+@rel+133-06-2
  13. http://toxnet.nlm.nih.gov/cgi-bin/sis/search/r?dbs+hsdb:@term+@rn+@rel+133-06-2
  14. http://pubchem.ncbi.nlm.nih.gov/vw3d/vw3d.cgi?cid=8606
