17396136
  -OEChem-06241222542D

 35 37  0     1  0  0  0  0  0999 V2000
    2.5000    0.2617    0.0000 S   0  0  0  0  0  0  0  0  0  0  0  0
    7.6097   -0.9198    0.0000 S   0  0  0  0  0  0  0  0  0  0  0  0
   11.4389   -1.8708    0.0000 S   0  0  0  0  0  0  0  0  0  0  0  0
    9.3698   -1.1986    0.0000 O   0  0  0  0  0  0  0  0  0  0  0  0
    5.7076   -1.5378    0.0000 O   0  0  0  0  0  0  0  0  0  0  0  0
    5.1724    0.1095    0.0000 N   0  0  0  0  0  0  0  0  0  0  0  0
    8.8698    0.3403    0.0000 N   0  0  0  0  0  0  0  0  0  0  0  0
    9.8698    0.3403    0.0000 N   0  0  0  0  0  0  0  0  0  0  0  0
    4.2213   -0.1996    0.0000 C   0  0  3  0  0  0  0  0  0  0  0  0
    3.4782    0.4696    0.0000 C   0  0  0  0  0  0  0  0  0  0  0  0
    4.0134   -1.1777    0.0000 C   0  0  0  0  0  0  0  0  0  0  0  0
    3.5827    1.4641    0.0000 C   0  0  0  0  0  0  0  0  0  0  0  0
    5.9155   -0.5597    0.0000 C   0  0  0  0  0  0  0  0  0  0  0  0
    6.8666   -0.2506    0.0000 C   0  0  0  0  0  0  0  0  0  0  0  0
    2.6691    1.8708    0.0000 C   0  0  0  0  0  0  0  0  0  0  0  0
    2.0000    1.1277    0.0000 C   0  0  0  0  0  0  0  0  0  0  0  0
    8.5608   -0.6108    0.0000 C   0  0  0  0  0  0  0  0  0  0  0  0
   11.1298   -0.9198    0.0000 C   0  0  0  0  0  0  0  0  0  0  0  0
   10.1788   -0.6108    0.0000 C   0  0  0  0  0  0  0  0  0  0  0  0
   11.9389   -0.3320    0.0000 C   0  0  0  0  0  0  0  0  0  0  0  0
   12.7479   -0.9198    0.0000 C   0  0  0  0  0  0  0  0  0  0  0  0
   12.4389   -1.8708    0.0000 C   0  0  0  0  0  0  0  0  0  0  0  0
    4.6820   -0.6144    0.0000 H   0  0  0  0  0  0  0  0  0  0  0  0
    5.3012    0.7159    0.0000 H   0  0  0  0  0  0  0  0  0  0  0  0
    3.4069   -1.0488    0.0000 H   0  0  0  0  0  0  0  0  0  0  0  0
    3.8845   -1.7842    0.0000 H   0  0  0  0  0  0  0  0  0  0  0  0
    4.6198   -1.3066    0.0000 H   0  0  0  0  0  0  0  0  0  0  0  0
    4.1196    1.7741    0.0000 H   0  0  0  0  0  0  0  0  0  0  0  0
    7.3551    0.1311    0.0000 H   0  0  0  0  0  0  0  0  0  0  0  0
    6.5755    0.2968    0.0000 H   0  0  0  0  0  0  0  0  0  0  0  0
    2.5402    2.4773    0.0000 H   0  0  0  0  0  0  0  0  0  0  0  0
    1.3834    1.1925    0.0000 H   0  0  0  0  0  0  0  0  0  0  0  0
   11.9389    0.2880    0.0000 H   0  0  0  0  0  0  0  0  0  0  0  0
   13.3375   -0.7282    0.0000 H   0  0  0  0  0  0  0  0  0  0  0  0
   12.8033   -2.3724    0.0000 H   0  0  0  0  0  0  0  0  0  0  0  0
  1 10  1  0  0  0  0
  1 16  1  0  0  0  0
  2 14  1  0  0  0  0
  2 17  1  0  0  0  0
  3 18  1  0  0  0  0
  3 22  1  0  0  0  0
  4 17  1  0  0  0  0
  4 19  1  0  0  0  0
  5 13  2  0  0  0  0
  6  9  1  0  0  0  0
  6 13  1  0  0  0  0
  6 24  1  0  0  0  0
  7  8  1  0  0  0  0
  7 17  2  0  0  0  0
  8 19  2  0  0  0  0
  9 10  1  0  0  0  0
  9 11  1  0  0  0  0
  9 23  1  0  0  0  0
 10 12  2  0  0  0  0
 11 25  1  0  0  0  0
 11 26  1  0  0  0  0
 11 27  1  0  0  0  0
 12 15  1  0  0  0  0
 12 28  1  0  0  0  0
 13 14  1  0  0  0  0
 14 29  1  0  0  0  0
 14 30  1  0  0  0  0
 15 16  2  0  0  0  0
 15 31  1  0  0  0  0
 16 32  1  0  0  0  0
 18 19  1  0  0  0  0
 18 20  2  0  0  0  0
 20 21  1  0  0  0  0
 20 33  1  0  0  0  0
 21 22  2  0  0  0  0
 21 34  1  0  0  0  0
 22 35  1  0  0  0  0
M  END
> <PUBCHEM_COMPOUND_CID>
17396136

> <PUBCHEM_COMPOUND_CANONICALIZED>
1

> <PUBCHEM_CACTVS_COMPLEXITY>
388

> <PUBCHEM_CACTVS_HBOND_ACCEPTOR>
7

> <PUBCHEM_CACTVS_HBOND_DONOR>
1

> <PUBCHEM_CACTVS_ROTATABLE_BOND>
6

> <PUBCHEM_CACTVS_SUBSKEYS>
AAADccBzMABgAAAAAAAAAAAAAAAAAWJEgAAAAAAAAAAAAAAB+AAAHgQYAAAACCjF0gSyAYLABEiuACFyEACTAIBsCBBaiLkoDNgIJrKgtRmMEQhk3gGoqYeYAAAAAAAAAAAAAAAAAAAAAAAAAAAAAAAAAA==

> <PUBCHEM_IUPAC_OPENEYE_NAME>
N-[1-(2-thienyl)ethyl]-2-[[5-(2-thienyl)-1,3,4-oxadiazol-2-yl]sulfanyl]acetamide

> <PUBCHEM_IUPAC_CAS_NAME>
N-(1-thiophen-2-ylethyl)-2-[(5-thiophen-2-yl-1,3,4-oxadiazol-2-yl)thio]acetamide

> <PUBCHEM_IUPAC_NAME>
N-(1-thiophen-2-ylethyl)-2-[(5-thiophen-2-yl-1,3,4-oxadiazol-2-yl)sulfanyl]acetamide

> <PUBCHEM_IUPAC_SYSTEMATIC_NAME>
N-(1-thiophen-2-ylethyl)-2-[(5-thiophen-2-yl-1,3,4-oxadiazol-2-yl)sulfanyl]ethanamide

> <PUBCHEM_IUPAC_TRADITIONAL_NAME>
N-[1-(2-thienyl)ethyl]-2-[[5-(2-thienyl)-1,3,4-oxadiazol-2-yl]thio]acetamide

> <PUBCHEM_IUPAC_INCHI>
InChI=1S/C14H13N3O2S3/c1-9(10-4-2-6-20-10)15-12(18)8-22-14-17-16-13(19-14)11-5-3-7-21-11/h2-7,9H,8H2,1H3,(H,15,18)

> <PUBCHEM_IUPAC_INCHIKEY>
FJXZWJBQHZKDRA-UHFFFAOYSA-N

> <PUBCHEM_XLOGP3_AA>
2.9

> <PUBCHEM_EXACT_MASS>
351.01699

> <PUBCHEM_MOLECULAR_FORMULA>
C14H13N3O2S3

> <PUBCHEM_MOLECULAR_WEIGHT>
351.46692

> <PUBCHEM_OPENEYE_CAN_SMILES>
CC(C1=CC=CS1)NC(=O)CSC2=NN=C(O2)C3=CC=CS3

> <PUBCHEM_OPENEYE_ISO_SMILES>
CC(C1=CC=CS1)NC(=O)CSC2=NN=C(O2)C3=CC=CS3

> <PUBCHEM_CACTVS_TPSA>
150

> <PUBCHEM_MONOISOTOPIC_WEIGHT>
351.01699

> <PUBCHEM_TOTAL_CHARGE>
0

> <PUBCHEM_HEAVY_ATOM_COUNT>
22

> <PUBCHEM_ATOM_DEF_STEREO_COUNT>
0

> <PUBCHEM_ATOM_UDEF_STEREO_COUNT>
1

> <PUBCHEM_BOND_DEF_STEREO_COUNT>
0

> <PUBCHEM_BOND_UDEF_STEREO_COUNT>
0

> <PUBCHEM_ISOTOPIC_ATOM_COUNT>
0

> <PUBCHEM_COMPONENT_COUNT>
1

> <PUBCHEM_CACTVS_TAUTO_COUNT>
2

> <PUBCHEM_COORDINATE_TYPE>
1
5
255

> <PUBCHEM_BONDANNOTATIONS>
1  10  8
1  16  8
10  12  8
12  15  8
15  16  8
18  20  8
20  21  8
21  22  8
3  18  8
3  22  8
4  17  8
4  19  8
7  17  8
7  8  8
8  19  8
9  11  3

$$$$

