443020
  -OEChem-07051213002D

 67 72  0     1  0  0  0  0  0999 V2000
    9.5756   -1.7729    0.0000 O   0  0  0  0  0  0  0  0  0  0  0  0
   11.8561    0.2804    0.0000 O   0  0  0  0  0  0  0  0  0  0  0  0
    4.2712    1.2066    0.0000 O   0  0  0  0  0  0  0  0  0  0  0  0
    6.0033    1.2096    0.0000 O   0  0  0  0  0  0  0  0  0  0  0  0
   15.5049   -0.9094    0.0000 O   0  0  0  0  0  0  0  0  0  0  0  0
    7.7336    2.2126    0.0000 O   0  0  0  0  0  0  0  0  0  0  0  0
   15.5049   -2.5188    0.0000 O   0  0  0  0  0  0  0  0  0  0  0  0
    4.2764   -1.7934    0.0000 O   0  0  0  0  0  0  0  0  0  0  0  0
    6.0068   -0.7904    0.0000 O   0  0  0  0  0  0  0  0  0  0  0  0
    2.5427   -0.7964    0.0000 O   0  0  0  0  0  0  0  0  0  0  0  0
    2.5375    2.2036    0.0000 O   0  0  0  0  0  0  0  0  0  0  0  0
   10.3779   -0.3777    0.0000 C   0  0  1  0  0  0  0  0  0  0  0  0
   11.0471   -1.1208    0.0000 C   0  0  1  0  0  0  0  0  0  0  0  0
    9.4709   -0.7844    0.0000 C   0  0  1  0  0  0  0  0  0  0  0  0
   11.9606   -0.7141    0.0000 C   0  0  1  0  0  0  0  0  0  0  0  0
   10.5478   -1.9804    0.0000 C   0  0  0  0  0  0  0  0  0  0  0  0
   10.8779    0.4883    0.0000 C   0  0  0  0  0  0  0  0  0  0  0  0
    8.6040   -0.2859    0.0000 C   0  0  0  0  0  0  0  0  0  0  0  0
   12.8266   -1.2141    0.0000 C   0  0  0  0  0  0  0  0  0  0  0  0
    8.6022    0.7141    0.0000 C   0  0  0  0  0  0  0  0  0  0  0  0
    7.7388   -0.7874    0.0000 C   0  0  0  0  0  0  0  0  0  0  0  0
   13.6927   -0.7141    0.0000 C   0  0  0  0  0  0  0  0  0  0  0  0
   12.8266   -2.2141    0.0000 C   0  0  0  0  0  0  0  0  0  0  0  0
    7.7354    1.2126    0.0000 C   0  0  0  0  0  0  0  0  0  0  0  0
    5.1399   -0.2919    0.0000 C   0  0  2  0  0  0  0  0  0  0  0  0
    4.2747   -0.7934    0.0000 C   0  0  2  0  0  0  0  0  0  0  0  0
    5.1381    0.7081    0.0000 C   0  0  1  0  0  0  0  0  0  0  0  0
    6.8719   -0.2889    0.0000 C   0  0  0  0  0  0  0  0  0  0  0  0
    3.4078   -0.2949    0.0000 C   0  0  1  0  0  0  0  0  0  0  0  0
   14.5587   -1.2141    0.0000 C   0  0  0  0  0  0  0  0  0  0  0  0
    6.8702    0.7111    0.0000 C   0  0  0  0  0  0  0  0  0  0  0  0
    3.4061    0.7051    0.0000 C   0  0  1  0  0  0  0  0  0  0  0  0
   13.6927   -2.7141    0.0000 C   0  0  0  0  0  0  0  0  0  0  0  0
   14.5587   -2.2141    0.0000 C   0  0  0  0  0  0  0  0  0  0  0  0
    2.5392    1.2036    0.0000 C   0  0  0  0  0  0  0  0  0  0  0  0
   16.0885   -1.7141    0.0000 C   0  0  0  0  0  0  0  0  0  0  0  0
    8.5988    2.7141    0.0000 C   0  0  0  0  0  0  0  0  0  0  0  0
    9.8084    0.2532    0.0000 H   0  0  0  0  0  0  0  0  0  0  0  0
   11.6150   -1.7533    0.0000 H   0  0  0  0  0  0  0  0  0  0  0  0
    8.9513   -1.1227    0.0000 H   0  0  0  0  0  0  0  0  0  0  0  0
   12.4806   -0.3764    0.0000 H   0  0  0  0  0  0  0  0  0  0  0  0
   10.3554   -2.5698    0.0000 H   0  0  0  0  0  0  0  0  0  0  0  0
   11.1137   -2.2338    0.0000 H   0  0  0  0  0  0  0  0  0  0  0  0
   11.0695    1.0780    0.0000 H   0  0  0  0  0  0  0  0  0  0  0  0
   10.3115    0.7405    0.0000 H   0  0  0  0  0  0  0  0  0  0  0  0
    9.1386    1.0250    0.0000 H   0  0  0  0  0  0  0  0  0  0  0  0
    7.7399   -1.4074    0.0000 H   0  0  0  0  0  0  0  0  0  0  0  0
   13.6927   -0.0941    0.0000 H   0  0  0  0  0  0  0  0  0  0  0  0
   12.2897   -2.5241    0.0000 H   0  0  0  0  0  0  0  0  0  0  0  0
    5.1409   -0.9119    0.0000 H   0  0  0  0  0  0  0  0  0  0  0  0
    4.8122   -1.1024    0.0000 H   0  0  0  0  0  0  0  0  0  0  0  0
    5.1371    1.3281    0.0000 H   0  0  0  0  0  0  0  0  0  0  0  0
    2.8704    0.0142    0.0000 H   0  0  0  0  0  0  0  0  0  0  0  0
    6.3355   -0.5998    0.0000 H   0  0  0  0  0  0  0  0  0  0  0  0
    3.4050    1.3251    0.0000 H   0  0  0  0  0  0  0  0  0  0  0  0
   13.6927   -3.3341    0.0000 H   0  0  0  0  0  0  0  0  0  0  0  0
    1.9284    1.3102    0.0000 H   0  0  0  0  0  0  0  0  0  0  0  0
    2.3282    0.6206    0.0000 H   0  0  0  0  0  0  0  0  0  0  0  0
    3.7400   -2.1043    0.0000 H   0  0  0  0  0  0  0  0  0  0  0  0
   16.5494   -2.1288    0.0000 H   0  0  0  0  0  0  0  0  0  0  0  0
   16.5494   -1.2994    0.0000 H   0  0  0  0  0  0  0  0  0  0  0  0
    6.0078   -1.4104    0.0000 H   0  0  0  0  0  0  0  0  0  0  0  0
    2.0052   -0.4873    0.0000 H   0  0  0  0  0  0  0  0  0  0  0  0
    8.9097    2.1777    0.0000 H   0  0  0  0  0  0  0  0  0  0  0  0
    9.1352    3.0250    0.0000 H   0  0  0  0  0  0  0  0  0  0  0  0
    8.2878    3.2505    0.0000 H   0  0  0  0  0  0  0  0  0  0  0  0
    2.0000    2.5127    0.0000 H   0  0  0  0  0  0  0  0  0  0  0  0
  1 14  1  0  0  0  0
  1 16  1  0  0  0  0
  2 15  1  0  0  0  0
  2 17  1  0  0  0  0
  3 27  1  0  0  0  0
  3 32  1  0  0  0  0
 27  4  1  1  0  0  0
  4 31  1  0  0  0  0
  5 30  1  0  0  0  0
  5 36  1  0  0  0  0
  6 24  1  0  0  0  0
  6 37  1  0  0  0  0
  7 34  1  0  0  0  0
  7 36  1  0  0  0  0
 26  8  1  1  0  0  0
  8 59  1  0  0  0  0
 25  9  1  6  0  0  0
  9 62  1  0  0  0  0
 29 10  1  6  0  0  0
 10 63  1  0  0  0  0
 11 35  1  0  0  0  0
 11 67  1  0  0  0  0
 12 13  1  0  0  0  0
 12 14  1  0  0  0  0
 12 17  1  0  0  0  0
 12 38  1  6  0  0  0
 13 15  1  0  0  0  0
 13 16  1  0  0  0  0
 13 39  1  6  0  0  0
 14 18  1  6  0  0  0
 14 40  1  0  0  0  0
 15 19  1  6  0  0  0
 15 41  1  0  0  0  0
 16 42  1  0  0  0  0
 16 43  1  0  0  0  0
 17 44  1  0  0  0  0
 17 45  1  0  0  0  0
 18 20  2  0  0  0  0
 18 21  1  0  0  0  0
 19 22  2  0  0  0  0
 19 23  1  0  0  0  0
 20 24  1  0  0  0  0
 20 46  1  0  0  0  0
 21 28  2  0  0  0  0
 21 47  1  0  0  0  0
 22 30  1  0  0  0  0
 22 48  1  0  0  0  0
 23 33  2  0  0  0  0
 23 49  1  0  0  0  0
 24 31  2  0  0  0  0
 25 26  1  0  0  0  0
 25 27  1  0  0  0  0
 25 50  1  0  0  0  0
 26 29  1  0  0  0  0
 26 51  1  0  0  0  0
 27 52  1  0  0  0  0
 28 31  1  0  0  0  0
 28 54  1  0  0  0  0
 29 32  1  0  0  0  0
 29 53  1  0  0  0  0
 30 34  2  0  0  0  0
 32 35  1  1  0  0  0
 32 55  1  0  0  0  0
 33 34  1  0  0  0  0
 33 56  1  0  0  0  0
 35 57  1  0  0  0  0
 35 58  1  0  0  0  0
 36 60  1  0  0  0  0
 36 61  1  0  0  0  0
 37 64  1  0  0  0  0
 37 65  1  0  0  0  0
 37 66  1  0  0  0  0
M  END
> <PUBCHEM_COMPOUND_CID>
443020

> <PUBCHEM_COMPOUND_CANONICALIZED>
1

> <PUBCHEM_CACTVS_COMPLEXITY>
771

> <PUBCHEM_CACTVS_HBOND_ACCEPTOR>
11

> <PUBCHEM_CACTVS_HBOND_DONOR>
4

> <PUBCHEM_CACTVS_ROTATABLE_BOND>
6

> <PUBCHEM_CACTVS_SUBSKEYS>
AAADceB4PAAAAAAAAAAAAAAAAAAAASJEgAA0YIAAAAASAEgBQAAAGgAACAAADRSwmAMyDoAABgCAAiBCAAACCAAgIAAIiAAGiIgdNiKEMRqieCKlwBEPqAfA4PwOoAABAAAAQABAAAIAAACAAAAAAAAAAA==

> <PUBCHEM_IUPAC_OPENEYE_NAME>
(2S,3R,4S,5S,6R)-2-[4-[(3S,3aR,6S,6aR)-3-(1,3-benzodioxol-5-yl)-1,3,3a,4,6,6a-hexahydrofuro[3,4-c]furan-6-yl]-2-methoxy-phenoxy]-6-(hydroxymethyl)tetrahydropyran-3,4,5-triol

> <PUBCHEM_IUPAC_CAS_NAME>
(2S,3R,4S,5S,6R)-2-[4-[(3S,3aR,6S,6aR)-3-(1,3-benzodioxol-5-yl)-1,3,3a,4,6,6a-hexahydrofuro[3,4-c]furan-6-yl]-2-methoxyphenoxy]-6-(hydroxymethyl)oxane-3,4,5-triol

> <PUBCHEM_IUPAC_NAME>
(2S,3R,4S,5S,6R)-2-[4-[(3S,3aR,6S,6aR)-3-(1,3-benzodioxol-5-yl)-1,3,3a,4,6,6a-hexahydrofuro[3,4-c]furan-6-yl]-2-methoxyphenoxy]-6-(hydroxymethyl)oxane-3,4,5-triol

> <PUBCHEM_IUPAC_SYSTEMATIC_NAME>
(2S,3R,4S,5S,6R)-2-[4-[(3S,3aR,6S,6aR)-3-(1,3-benzodioxol-5-yl)-1,3,3a,4,6,6a-hexahydrofuro[3,4-c]furan-6-yl]-2-methoxy-phenoxy]-6-(hydroxymethyl)oxane-3,4,5-triol

> <PUBCHEM_IUPAC_TRADITIONAL_NAME>
(2S,3R,4S,5S,6R)-2-[4-[(3S,3aR,6S,6aR)-3-(1,3-benzodioxol-5-yl)-1,3,3a,4,6,6a-hexahydrofuro[3,4-c]furan-6-yl]-2-methoxy-phenoxy]-6-methylol-tetrahydropyran-3,4,5-triol

> <PUBCHEM_IUPAC_INCHI>
InChI=1S/C26H30O11/c1-31-18-6-12(3-5-17(18)36-26-23(30)22(29)21(28)20(8-27)37-26)24-14-9-33-25(15(14)10-32-24)13-2-4-16-19(7-13)35-11-34-16/h2-7,14-15,20-30H,8-11H2,1H3/t14-,15-,20+,21+,22-,23+,24+,25+,26+/m0/s1

> <PUBCHEM_IUPAC_INCHIKEY>
USVLFVSHBLNSOC-WMYFGKAISA-N

> <PUBCHEM_XLOGP3_AA>
0.7

> <PUBCHEM_EXACT_MASS>
518.178812

> <PUBCHEM_MOLECULAR_FORMULA>
C26H30O11

> <PUBCHEM_MOLECULAR_WEIGHT>
518.5098

> <PUBCHEM_OPENEYE_CAN_SMILES>
COC1=C(C=CC(=C1)C2C3COC(C3CO2)C4=CC5=C(C=C4)OCO5)OC6C(C(C(C(O6)CO)O)O)O

> <PUBCHEM_OPENEYE_ISO_SMILES>
COC1=C(C=CC(=C1)[C@@H]2[C@H]3CO[C@@H]([C@H]3CO2)C4=CC5=C(C=C4)OCO5)O[C@H]6[C@@H]([C@H]([C@@H]([C@H](O6)CO)O)O)O

> <PUBCHEM_CACTVS_TPSA>
146

> <PUBCHEM_MONOISOTOPIC_WEIGHT>
518.178812

> <PUBCHEM_TOTAL_CHARGE>
0

> <PUBCHEM_HEAVY_ATOM_COUNT>
37

> <PUBCHEM_ATOM_DEF_STEREO_COUNT>
9

> <PUBCHEM_ATOM_UDEF_STEREO_COUNT>
0

> <PUBCHEM_BOND_DEF_STEREO_COUNT>
0

> <PUBCHEM_BOND_UDEF_STEREO_COUNT>
0

> <PUBCHEM_ISOTOPIC_ATOM_COUNT>
0

> <PUBCHEM_COMPONENT_COUNT>
1

> <PUBCHEM_CACTVS_TAUTO_COUNT>
1

> <PUBCHEM_COORDINATE_TYPE>
1
5
255

> <PUBCHEM_BONDANNOTATIONS>
29  10  6
12  38  6
13  39  6
14  18  6
15  19  6
18  20  8
18  21  8
19  22  8
19  23  8
20  24  8
21  28  8
22  30  8
23  33  8
24  31  8
28  31  8
30  34  8
32  35  5
33  34  8
27  4  5
26  8  5
25  9  6

$$$$

