49787034
  -OEChem-07051213112D

 66 67  0     1  0  0  0  0  0999 V2000
    4.2690    2.6550    0.0000 S   0  0  0  0  0  0  0  0  0  0  0  0
    6.8671   -0.8450    0.0000 O   0  0  0  0  0  0  0  0  0  0  0  0
    8.5991   -0.8450    0.0000 O   0  0  0  0  0  0  0  0  0  0  0  0
    5.1350   -1.8450    0.0000 O   0  0  0  0  0  0  0  0  0  0  0  0
    8.5991   -1.8450    0.0000 O   0  0  0  0  0  0  0  0  0  0  0  0
    5.1350   -3.8450    0.0000 O   0  0  0  0  0  0  0  0  0  0  0  0
    8.5991   -3.8450    0.0000 O   0  0  0  0  0  0  0  0  0  0  0  0
    6.8671   -4.8450    0.0000 O   0  0  0  0  0  0  0  0  0  0  0  0
    8.5991    2.1550    0.0000 O   0  0  0  0  0  0  0  0  0  0  0  0
   10.3312    1.1550    0.0000 O   0  0  0  0  0  0  0  0  0  0  0  0
   11.1972   -0.3450    0.0000 O   0  0  0  0  0  0  0  0  0  0  0  0
    7.7331    2.6550    0.0000 O   0  0  0  0  0  0  0  0  0  0  0  0
    4.2690    3.6550    0.0000 O   0  0  0  0  0  0  0  0  0  0  0  0
    2.5369    2.6550    0.0000 O   0  0  0  0  0  0  0  0  0  0  0  0
    6.8671    1.1550    0.0000 N   0  0  0  0  0  0  0  0  0  0  0  0
    6.0010    3.6550    0.0000 N   0  0  0  0  0  0  0  0  0  0  0  0
    6.8671   -1.8450    0.0000 C   0  0  0  0  0  0  0  0  0  0  0  0
    6.0010   -2.3450    0.0000 C   0  0  1  0  0  0  0  0  0  0  0  0
    7.7331   -2.3450    0.0000 C   0  0  1  0  0  0  0  0  0  0  0  0
    6.0010   -3.3450    0.0000 C   0  0  1  0  0  0  0  0  0  0  0  0
    7.7331   -3.3450    0.0000 C   0  0  2  0  0  0  0  0  0  0  0  0
    6.8671   -3.8450    0.0000 C   0  0  0  0  0  0  0  0  0  0  0  0
    7.7331    0.6550    0.0000 C   0  0  1  0  0  0  0  0  0  0  0  0
    7.7331   -0.3450    0.0000 C   0  0  1  0  0  0  0  0  0  0  0  0
    8.5991    1.1550    0.0000 C   0  0  2  0  0  0  0  0  0  0  0  0
    9.4651    0.6550    0.0000 C   0  0  1  0  0  0  0  0  0  0  0  0
    9.4651   -0.3450    0.0000 C   0  0  1  0  0  0  0  0  0  0  0  0
   10.3312   -0.8450    0.0000 C   0  0  0  0  0  0  0  0  0  0  0  0
    6.8671    2.1550    0.0000 C   0  0  0  0  0  0  0  0  0  0  0  0
    6.0010    2.6550    0.0000 C   0  0  2  0  0  0  0  0  0  0  0  0
    5.1350    2.1550    0.0000 C   0  0  0  0  0  0  0  0  0  0  0  0
    5.1350    4.1550    0.0000 C   0  0  0  0  0  0  0  0  0  0  0  0
    3.4030    2.1550    0.0000 C   0  0  0  0  0  0  0  0  0  0  0  0
    5.1350    5.1550    0.0000 C   0  0  0  0  0  0  0  0  0  0  0  0
    6.3301   -1.5350    0.0000 H   0  0  0  0  0  0  0  0  0  0  0  0
    5.4641   -2.6550    0.0000 H   0  0  0  0  0  0  0  0  0  0  0  0
    7.7331   -1.7250    0.0000 H   0  0  0  0  0  0  0  0  0  0  0  0
    5.4641   -3.0350    0.0000 H   0  0  0  0  0  0  0  0  0  0  0  0
    7.7331   -3.9650    0.0000 H   0  0  0  0  0  0  0  0  0  0  0  0
    6.3301   -4.1550    0.0000 H   0  0  0  0  0  0  0  0  0  0  0  0
    7.7331    1.2750    0.0000 H   0  0  0  0  0  0  0  0  0  0  0  0
    7.7331   -0.9650    0.0000 H   0  0  0  0  0  0  0  0  0  0  0  0
    8.0622    1.4650    0.0000 H   0  0  0  0  0  0  0  0  0  0  0  0
   10.0021    0.3450    0.0000 H   0  0  0  0  0  0  0  0  0  0  0  0
    9.4651   -0.9650    0.0000 H   0  0  0  0  0  0  0  0  0  0  0  0
    6.3301    0.8450    0.0000 H   0  0  0  0  0  0  0  0  0  0  0  0
    9.9326   -1.3200    0.0000 H   0  0  0  0  0  0  0  0  0  0  0  0
   10.7297   -1.3200    0.0000 H   0  0  0  0  0  0  0  0  0  0  0  0
    4.5981   -2.1550    0.0000 H   0  0  0  0  0  0  0  0  0  0  0  0
    9.1360   -2.1550    0.0000 H   0  0  0  0  0  0  0  0  0  0  0  0
    5.1350   -4.4650    0.0000 H   0  0  0  0  0  0  0  0  0  0  0  0
    8.5991   -4.4650    0.0000 H   0  0  0  0  0  0  0  0  0  0  0  0
    6.3301   -5.1550    0.0000 H   0  0  0  0  0  0  0  0  0  0  0  0
    9.1360    2.4650    0.0000 H   0  0  0  0  0  0  0  0  0  0  0  0
   10.3312    1.7750    0.0000 H   0  0  0  0  0  0  0  0  0  0  0  0
    6.5380    2.9650    0.0000 H   0  0  0  0  0  0  0  0  0  0  0  0
   11.7341   -0.6550    0.0000 H   0  0  0  0  0  0  0  0  0  0  0  0
    4.7365    1.6800    0.0000 H   0  0  0  0  0  0  0  0  0  0  0  0
    5.5335    1.6800    0.0000 H   0  0  0  0  0  0  0  0  0  0  0  0
    6.5380    3.9650    0.0000 H   0  0  0  0  0  0  0  0  0  0  0  0
    3.0044    1.6800    0.0000 H   0  0  0  0  0  0  0  0  0  0  0  0
    3.8015    1.6800    0.0000 H   0  0  0  0  0  0  0  0  0  0  0  0
    5.7550    5.1550    0.0000 H   0  0  0  0  0  0  0  0  0  0  0  0
    5.1350    5.7750    0.0000 H   0  0  0  0  0  0  0  0  0  0  0  0
    4.5150    5.1550    0.0000 H   0  0  0  0  0  0  0  0  0  0  0  0
    2.0000    2.3450    0.0000 H   0  0  0  0  0  0  0  0  0  0  0  0
  1 31  1  0  0  0  0
  1 33  1  0  0  0  0
  2 17  1  0  0  0  0
 24  2  1  6  0  0  0
  3 24  1  0  0  0  0
  3 27  1  0  0  0  0
 18  4  1  1  0  0  0
  4 49  1  0  0  0  0
 19  5  1  6  0  0  0
  5 50  1  0  0  0  0
 20  6  1  1  0  0  0
  6 51  1  0  0  0  0
 21  7  1  1  0  0  0
  7 52  1  0  0  0  0
  8 22  1  0  0  0  0
  8 53  1  0  0  0  0
 25  9  1  1  0  0  0
  9 54  1  0  0  0  0
 26 10  1  6  0  0  0
 10 55  1  0  0  0  0
 11 28  1  0  0  0  0
 11 57  1  0  0  0  0
 12 29  2  0  0  0  0
 13 32  2  0  0  0  0
 14 33  1  0  0  0  0
 14 66  1  0  0  0  0
 23 15  1  6  0  0  0
 15 29  1  0  0  0  0
 15 46  1  0  0  0  0
 30 16  1  6  0  0  0
 16 32  1  0  0  0  0
 16 60  1  0  0  0  0
 17 18  1  0  0  0  0
 17 19  1  0  0  0  0
 17 35  1  0  0  0  0
 18 20  1  0  0  0  0
 18 36  1  0  0  0  0
 19 21  1  0  0  0  0
 19 37  1  0  0  0  0
 20 22  1  0  0  0  0
 20 38  1  0  0  0  0
 21 22  1  0  0  0  0
 21 39  1  0  0  0  0
 22 40  1  0  0  0  0
 23 24  1  0  0  0  0
 23 25  1  0  0  0  0
 23 41  1  0  0  0  0
 24 42  1  0  0  0  0
 25 26  1  0  0  0  0
 25 43  1  0  0  0  0
 26 27  1  0  0  0  0
 26 44  1  0  0  0  0
 27 28  1  1  0  0  0
 27 45  1  0  0  0  0
 28 47  1  0  0  0  0
 28 48  1  0  0  0  0
 29 30  1  0  0  0  0
 30 31  1  0  0  0  0
 30 56  1  0  0  0  0
 31 58  1  0  0  0  0
 31 59  1  0  0  0  0
 32 34  1  0  0  0  0
 33 61  1  0  0  0  0
 33 62  1  0  0  0  0
 34 63  1  0  0  0  0
 34 64  1  0  0  0  0
 34 65  1  0  0  0  0
M  END
> <PUBCHEM_COMPOUND_CID>
49787034

> <PUBCHEM_COMPOUND_CANONICALIZED>
1

> <PUBCHEM_CACTVS_COMPLEXITY>
674

> <PUBCHEM_CACTVS_HBOND_ACCEPTOR>
14

> <PUBCHEM_CACTVS_HBOND_DONOR>
11

> <PUBCHEM_CACTVS_ROTATABLE_BOND>
9

> <PUBCHEM_CACTVS_SUBSKEYS>
AAADcfB7PABAAAAAAAAAAAAAAAAAAAAAAAA0QAAAAAAAAAAAAAAAHgQQCAAACDz1wAeCCALABggIAAEQEAAAAAAAABAAAIGIAAATUAIggCA3QAAHFgCXAAHwcA8AAAAAAAAAAAACAAAQAACAAAAAAAAAAA==

> <PUBCHEM_IUPAC_OPENEYE_NAME>
(2R)-2-acetamido-N-[(2R,3R,4R,5S,6R)-4,5-dihydroxy-6-(hydroxymethyl)-2-[(2R,3R,5S,6R)-2,3,4,5,6-pentahydroxycyclohexoxy]tetrahydropyran-3-yl]-3-(hydroxymethylsulfanyl)propanamide

> <PUBCHEM_IUPAC_CAS_NAME>
(2R)-2-acetamido-N-[(2R,3R,4R,5S,6R)-4,5-dihydroxy-6-(hydroxymethyl)-2-[(2R,3R,5S,6R)-2,3,4,5,6-pentahydroxycyclohexyl]oxy-3-oxanyl]-3-(hydroxymethylthio)propanamide

> <PUBCHEM_IUPAC_NAME>
(2R)-2-acetamido-N-[(2R,3R,4R,5S,6R)-4,5-dihydroxy-6-(hydroxymethyl)-2-[(2R,3R,5S,6R)-2,3,4,5,6-pentahydroxycyclohexyl]oxyoxan-3-yl]-3-(hydroxymethylsulfanyl)propanamide

> <PUBCHEM_IUPAC_SYSTEMATIC_NAME>
(2R)-2-acetamido-N-[(2R,3R,4R,5S,6R)-6-(hydroxymethyl)-4,5-bis(oxidanyl)-2-[(2R,3R,5S,6R)-2,3,4,5,6-pentakis(oxidanyl)cyclohexyl]oxy-oxan-3-yl]-3-(hydroxymethylsulfanyl)propanamide

> <PUBCHEM_IUPAC_TRADITIONAL_NAME>
(2R)-2-acetamido-N-[(2R,3R,4R,5S,6R)-4,5-dihydroxy-6-methylol-2-[(2R,3R,5S,6R)-2,3,4,5,6-pentahydroxycyclohexoxy]tetrahydropyran-3-yl]-3-(methylolthio)propionamide

> <PUBCHEM_IUPAC_INCHI>
InChI=1S/C18H32N2O13S/c1-5(23)19-6(3-34-4-22)17(31)20-8-10(25)9(24)7(2-21)32-18(8)33-16-14(29)12(27)11(26)13(28)15(16)30/h6-16,18,21-22,24-30H,2-4H2,1H3,(H,19,23)(H,20,31)/t6-,7+,8+,9+,10+,11?,12-,13+,14+,15+,16?,18+/m0/s1

> <PUBCHEM_IUPAC_INCHIKEY>
QHDGYCVBKYWETJ-JPFSBEFCSA-N

> <PUBCHEM_XLOGP3_AA>
-5.9

> <PUBCHEM_EXACT_MASS>
516.16251

> <PUBCHEM_MOLECULAR_FORMULA>
C18H32N2O13S

> <PUBCHEM_MOLECULAR_WEIGHT>
516.51728

> <PUBCHEM_OPENEYE_CAN_SMILES>
CC(=O)NC(CSCO)C(=O)NC1C(C(C(OC1OC2C(C(C(C(C2O)O)O)O)O)CO)O)O

> <PUBCHEM_OPENEYE_ISO_SMILES>
CC(=O)N[C@@H](CSCO)C(=O)N[C@@H]1[C@H]([C@@H]([C@H](O[C@@H]1OC2[C@@H]([C@H](C([C@H]([C@H]2O)O)O)O)O)CO)O)O

> <PUBCHEM_CACTVS_TPSA>
284

> <PUBCHEM_MONOISOTOPIC_WEIGHT>
516.16251

> <PUBCHEM_TOTAL_CHARGE>
0

> <PUBCHEM_HEAVY_ATOM_COUNT>
34

> <PUBCHEM_ATOM_DEF_STEREO_COUNT>
10

> <PUBCHEM_ATOM_UDEF_STEREO_COUNT>
0

> <PUBCHEM_BOND_DEF_STEREO_COUNT>
0

> <PUBCHEM_BOND_UDEF_STEREO_COUNT>
0

> <PUBCHEM_ISOTOPIC_ATOM_COUNT>
0

> <PUBCHEM_COMPONENT_COUNT>
1

> <PUBCHEM_CACTVS_TAUTO_COUNT>
4

> <PUBCHEM_COORDINATE_TYPE>
1
5
255

> <PUBCHEM_BONDANNOTATIONS>
26  10  6
23  15  6
30  16  6
24  2  6
27  28  5
18  4  5
19  5  6
20  6  5
21  7  5
25  9  5

$$$$

