11435
  -OEChem-06261205402D

 16 16  0     0  0  0  0  0  0999 V2000
    4.8479   -0.1452    0.0000 S   0  0  0  0  0  0  0  0  0  0  0  0
    2.0000    1.9239    0.0000 O   0  0  0  0  0  0  0  0  0  0  0  0
    3.9538   -1.9239    0.0000 O   0  0  0  0  0  0  0  0  0  0  0  0
    3.0878   -0.4239    0.0000 N   0  0  0  0  0  0  0  0  0  0  0  0
    3.5878    1.1149    0.0000 N   0  0  0  0  0  0  0  0  0  0  0  0
    2.2788    0.1639    0.0000 C   0  0  0  0  0  0  0  0  0  0  0  0
    3.8968    0.1639    0.0000 C   0  0  0  0  0  0  0  0  0  0  0  0
    2.5878    1.1149    0.0000 C   0  0  0  0  0  0  0  0  0  0  0  0
    3.0878   -1.4239    0.0000 C   0  0  0  0  0  0  0  0  0  0  0  0
    2.2218   -1.9239    0.0000 C   0  0  0  0  0  0  0  0  0  0  0  0
    1.7124    0.4160    0.0000 H   0  0  0  0  0  0  0  0  0  0  0  0
    1.9688   -0.3731    0.0000 H   0  0  0  0  0  0  0  0  0  0  0  0
    1.9118   -1.3870    0.0000 H   0  0  0  0  0  0  0  0  0  0  0  0
    1.6848   -2.2339    0.0000 H   0  0  0  0  0  0  0  0  0  0  0  0
    2.5318   -2.4609    0.0000 H   0  0  0  0  0  0  0  0  0  0  0  0
    5.3086    0.2697    0.0000 H   0  0  0  0  0  0  0  0  0  0  0  0
  1  7  1  0  0  0  0
  1 16  1  0  0  0  0
  2  8  2  0  0  0  0
  3  9  2  0  0  0  0
  4  6  1  0  0  0  0
  4  7  1  0  0  0  0
  4  9  1  0  0  0  0
  5  7  2  0  0  0  0
  5  8  1  0  0  0  0
  6  8  1  0  0  0  0
  6 11  1  0  0  0  0
  6 12  1  0  0  0  0
  9 10  1  0  0  0  0
 10 13  1  0  0  0  0
 10 14  1  0  0  0  0
 10 15  1  0  0  0  0
M  END
> <PUBCHEM_COMPOUND_CID>
11435

> <PUBCHEM_COMPOUND_CANONICALIZED>
1

> <PUBCHEM_CACTVS_COMPLEXITY>
224

> <PUBCHEM_CACTVS_HBOND_ACCEPTOR>
3

> <PUBCHEM_CACTVS_HBOND_DONOR>
1

> <PUBCHEM_CACTVS_ROTATABLE_BOND>
0

> <PUBCHEM_CACTVS_SUBSKEYS>
AAADcYBjMABAAAAAAAAAAAAAAAAAAQAAAAAAAAAAAAAAAAAAAAAAHgQAAAAAAADBgAQDAAMAAAQoAAEQNAAAEAEAAAABAACIAAAAQAAACCAQAAAABgCAAAAAAAAAAAAAAAAAAAAAAAAAAAAAAAAAAAAAAA==

> <PUBCHEM_IUPAC_OPENEYE_NAME>
3-acetyl-2-sulfanyl-4H-imidazol-5-one

> <PUBCHEM_IUPAC_CAS_NAME>
3-acetyl-2-mercapto-4H-imidazol-5-one

> <PUBCHEM_IUPAC_NAME>
3-acetyl-2-sulfanyl-4H-imidazol-5-one

> <PUBCHEM_IUPAC_SYSTEMATIC_NAME>
3-ethanoyl-2-sulfanyl-4H-imidazol-5-one

> <PUBCHEM_IUPAC_TRADITIONAL_NAME>
1-acetyl-2-mercapto-2-imidazolin-4-one

> <PUBCHEM_IUPAC_INCHI>
InChI=1S/C5H6N2O2S/c1-3(8)7-2-4(9)6-5(7)10/h2H2,1H3,(H,6,9,10)

> <PUBCHEM_IUPAC_INCHIKEY>
DDWXNUFFAFBJDG-UHFFFAOYSA-N

> <PUBCHEM_XLOGP3_AA>
-0.3

> <PUBCHEM_EXACT_MASS>
158.014998

> <PUBCHEM_MOLECULAR_FORMULA>
C5H6N2O2S

> <PUBCHEM_MOLECULAR_WEIGHT>
158.17834

> <PUBCHEM_OPENEYE_CAN_SMILES>
CC(=O)N1CC(=O)N=C1S

> <PUBCHEM_OPENEYE_ISO_SMILES>
CC(=O)N1CC(=O)N=C1S

> <PUBCHEM_CACTVS_TPSA>
50.7

> <PUBCHEM_MONOISOTOPIC_WEIGHT>
158.014998

> <PUBCHEM_TOTAL_CHARGE>
0

> <PUBCHEM_HEAVY_ATOM_COUNT>
10

> <PUBCHEM_ATOM_DEF_STEREO_COUNT>
0

> <PUBCHEM_ATOM_UDEF_STEREO_COUNT>
0

> <PUBCHEM_BOND_DEF_STEREO_COUNT>
0

> <PUBCHEM_BOND_UDEF_STEREO_COUNT>
0

> <PUBCHEM_ISOTOPIC_ATOM_COUNT>
0

> <PUBCHEM_COMPONENT_COUNT>
1

> <PUBCHEM_CACTVS_TAUTO_COUNT>
3

> <PUBCHEM_COORDINATE_TYPE>
1
5
255

$$$$

