442726
  -OEChem-07051212592D

 45 47  0     1  0  0  0  0  0999 V2000
    5.5220    0.5159    0.0000 O   0  0  0  0  0  0  0  0  0  0  0  0
    2.9239    0.0159    0.0000 O   0  0  0  0  0  0  0  0  0  0  0  0
    4.8668   -2.6630    0.0000 O   0  0  0  0  0  0  0  0  0  0  0  0
    6.9662   -0.5716    0.0000 O   0  0  0  0  0  0  0  0  0  0  0  0
    2.0000   -1.3667    0.0000 O   0  0  0  0  0  0  0  0  0  0  0  0
    4.8651    2.9878    0.0000 N   0  0  3  0  0  0  0  0  0  0  0  0
    4.6559    2.0160    0.0000 C   0  0  1  0  0  0  0  0  0  0  0  0
    5.5220    1.5159    0.0000 C   0  0  1  0  0  0  0  0  0  0  0  0
    6.2590    2.1830    0.0000 C   0  0  0  0  0  0  0  0  0  0  0  0
    5.8539    3.0908    0.0000 C   0  0  0  0  0  0  0  0  0  0  0  0
    3.7899    1.5159    0.0000 C   0  0  0  0  0  0  0  0  0  0  0  0
    5.3695    2.1149    0.0000 C   0  0  0  0  0  0  0  0  0  0  0  0
    4.7748    1.3008    0.0000 C   0  0  0  0  0  0  0  0  0  0  0  0
    4.6310   -1.6912    0.0000 C   0  0  2  0  0  0  0  0  0  0  0  0
    5.1310   -0.8251    0.0000 C   0  0  2  0  0  0  0  0  0  0  0  0
    3.7899    0.5159    0.0000 C   0  0  0  0  0  0  0  0  0  0  0  0
    3.6310   -1.6912    0.0000 C   0  0  1  0  0  0  0  0  0  0  0  0
    5.9970   -0.3251    0.0000 C   0  0  0  0  0  0  0  0  0  0  0  0
    5.6028   -1.9269    0.0000 C   0  0  0  0  0  0  0  0  0  0  0  0
    2.9239   -0.9841    0.0000 C   0  0  0  0  0  0  0  0  0  0  0  0
    4.4239   -0.1180    0.0000 C   0  0  0  0  0  0  0  0  0  0  0  0
    3.2483   -2.6150    0.0000 C   0  0  0  0  0  0  0  0  0  0  0  0
    4.2309    2.7521    0.0000 H   0  0  0  0  0  0  0  0  0  0  0  0
    6.2989    1.1712    0.0000 H   0  0  0  0  0  0  0  0  0  0  0  0
    6.6244    1.6822    0.0000 H   0  0  0  0  0  0  0  0  0  0  0  0
    6.7955    2.4938    0.0000 H   0  0  0  0  0  0  0  0  0  0  0  0
    6.4435    3.2826    0.0000 H   0  0  0  0  0  0  0  0  0  0  0  0
    5.7251    3.6973    0.0000 H   0  0  0  0  0  0  0  0  0  0  0  0
    5.8148    1.6835    0.0000 H   0  0  0  0  0  0  0  0  0  0  0  0
    5.8583    2.4963    0.0000 H   0  0  0  0  0  0  0  0  0  0  0  0
    4.9946    0.7211    0.0000 H   0  0  0  0  0  0  0  0  0  0  0  0
    4.5163   -0.9061    0.0000 H   0  0  0  0  0  0  0  0  0  0  0  0
    4.0020   -0.0667    0.0000 H   0  0  0  0  0  0  0  0  0  0  0  0
    4.4005    0.6236    0.0000 H   0  0  0  0  0  0  0  0  0  0  0  0
    3.0229   -1.8121    0.0000 H   0  0  0  0  0  0  0  0  0  0  0  0
    5.4566   -2.5294    0.0000 H   0  0  0  0  0  0  0  0  0  0  0  0
    6.2053   -2.0731    0.0000 H   0  0  0  0  0  0  0  0  0  0  0  0
    5.7490   -1.3244    0.0000 H   0  0  0  0  0  0  0  0  0  0  0  0
    4.8623    0.3204    0.0000 H   0  0  0  0  0  0  0  0  0  0  0  0
    3.9855    0.3204    0.0000 H   0  0  0  0  0  0  0  0  0  0  0  0
    3.9855   -0.5564    0.0000 H   0  0  0  0  0  0  0  0  0  0  0  0
    2.6755   -2.3778    0.0000 H   0  0  0  0  0  0  0  0  0  0  0  0
    3.0110   -3.1878    0.0000 H   0  0  0  0  0  0  0  0  0  0  0  0
    3.8211   -2.8523    0.0000 H   0  0  0  0  0  0  0  0  0  0  0  0
    4.4180   -3.0908    0.0000 H   0  0  0  0  0  0  0  0  0  0  0  0
  1  8  1  0  0  0  0
  1 18  1  0  0  0  0
  2 16  1  0  0  0  0
  2 20  1  0  0  0  0
 14  3  1  1  0  0  0
  3 45  1  0  0  0  0
  4 18  2  0  0  0  0
  5 20  2  0  0  0  0
  6  7  1  0  0  0  0
  6 10  1  0  0  0  0
  6 12  1  0  0  0  0
  7  8  1  0  0  0  0
  7 11  1  0  0  0  0
  7 23  1  6  0  0  0
  8  9  1  0  0  0  0
  8 24  1  6  0  0  0
  9 10  1  0  0  0  0
  9 25  1  0  0  0  0
  9 26  1  0  0  0  0
 10 27  1  0  0  0  0
 10 28  1  0  0  0  0
 11 13  2  0  0  0  0
 11 16  1  0  0  0  0
 12 13  1  0  0  0  0
 12 29  1  0  0  0  0
 12 30  1  0  0  0  0
 13 31  1  0  0  0  0
 14 15  1  0  0  0  0
 14 17  1  0  0  0  0
 14 19  1  0  0  0  0
 15 18  1  0  0  0  0
 15 21  1  1  0  0  0
 15 32  1  0  0  0  0
 16 33  1  0  0  0  0
 16 34  1  0  0  0  0
 17 20  1  0  0  0  0
 17 22  1  6  0  0  0
 17 35  1  0  0  0  0
 19 36  1  0  0  0  0
 19 37  1  0  0  0  0
 19 38  1  0  0  0  0
 21 39  1  0  0  0  0
 21 40  1  0  0  0  0
 21 41  1  0  0  0  0
 22 42  1  0  0  0  0
 22 43  1  0  0  0  0
 22 44  1  0  0  0  0
M  END
> <PUBCHEM_COMPOUND_CID>
442726

> <PUBCHEM_COMPOUND_CANONICALIZED>
1

> <PUBCHEM_CACTVS_COMPLEXITY>
531

> <PUBCHEM_CACTVS_HBOND_ACCEPTOR>
6

> <PUBCHEM_CACTVS_HBOND_DONOR>
1

> <PUBCHEM_CACTVS_ROTATABLE_BOND>
0

> <PUBCHEM_CACTVS_SUBSKEYS>
AAADceB6OAAAAAAAAAAAAAAAAAAAAWIAAAAAAAAAAAAQAAAAAAAAHgAACAAADXzhgAYCCAMABgCIAiDSCACAAAAgAAAACAEIAAgCBBYAoQAHUAAH4ACYIAPYZggOgAAAAAAAAAAAAAAAAAAAAAAAAAAAAA==

> <PUBCHEM_IUPAC_INCHI>
InChI=1S/C16H23NO5/c1-9-14(18)21-8-11-4-6-17-7-5-12(13(11)17)22-15(19)10(2)16(9,3)20/h4,9-10,12-13,20H,5-8H2,1-3H3/t9-,10+,12-,13-,16+/m1/s1

> <PUBCHEM_IUPAC_INCHIKEY>
PSUFRPOAICRSTC-ZLGRWFNRSA-N

> <PUBCHEM_XLOGP3_AA>
0.2

> <PUBCHEM_EXACT_MASS>
309.157623

> <PUBCHEM_MOLECULAR_FORMULA>
C16H23NO5

> <PUBCHEM_MOLECULAR_WEIGHT>
309.35752

> <PUBCHEM_OPENEYE_CAN_SMILES>
CC1C(=O)OCC2=CCN3C2C(CC3)OC(=O)C(C1(C)O)C

> <PUBCHEM_OPENEYE_ISO_SMILES>
C[C@@H]1C(=O)OCC2=CCN3[C@H]2[C@@H](CC3)OC(=O)[C@@H]([C@@]1(C)O)C

> <PUBCHEM_CACTVS_TPSA>
76.1

> <PUBCHEM_MONOISOTOPIC_WEIGHT>
309.157623

> <PUBCHEM_TOTAL_CHARGE>
0

> <PUBCHEM_HEAVY_ATOM_COUNT>
22

> <PUBCHEM_ATOM_DEF_STEREO_COUNT>
5

> <PUBCHEM_ATOM_UDEF_STEREO_COUNT>
0

> <PUBCHEM_BOND_DEF_STEREO_COUNT>
0

> <PUBCHEM_BOND_UDEF_STEREO_COUNT>
0

> <PUBCHEM_ISOTOPIC_ATOM_COUNT>
0

> <PUBCHEM_COMPONENT_COUNT>
1

> <PUBCHEM_CACTVS_TAUTO_COUNT>
4

> <PUBCHEM_COORDINATE_TYPE>
1
5
255

> <PUBCHEM_BONDANNOTATIONS>
15  21  5
17  22  6
14  3  5
7  23  6
8  24  6

$$$$

