161243
  -OEChem-07051212512D

 43 48  0     0  0  0  0  0  0999 V2000
    6.2970    3.5673    0.0000 O   0  0  0  0  0  0  0  0  0  0  0  0
    4.8517    4.4167    0.0000 O   0  0  0  0  0  0  0  0  0  0  0  0
    2.8718    1.3337    0.0000 O   0  0  0  0  0  0  0  0  0  0  0  0
    7.2979   -3.5278    0.0000 O   0  0  0  0  0  0  0  0  0  0  0  0
    5.7924   -4.4125    0.0000 O   0  0  0  0  0  0  0  0  0  0  0  0
    6.3740    0.3368    0.0000 N   0  3  0  0  0  0  0  0  0  0  0  0
    5.5080   -0.1632    0.0000 C   0  0  0  0  0  0  0  0  0  0  0  0
    4.6419    0.3368    0.0000 C   0  0  0  0  0  0  0  0  0  0  0  0
    4.6419    1.3368    0.0000 C   0  0  0  0  0  0  0  0  0  0  0  0
    5.5080    1.8368    0.0000 C   0  0  0  0  0  0  0  0  0  0  0  0
    5.5240   -1.2047    0.0000 C   0  0  0  0  0  0  0  0  0  0  0  0
    4.6260   -1.7324    0.0000 C   0  0  0  0  0  0  0  0  0  0  0  0
    6.3740    1.3368    0.0000 C   0  0  0  0  0  0  0  0  0  0  0  0
    5.5240    2.8783    0.0000 C   0  0  0  0  0  0  0  0  0  0  0  0
    3.7319   -0.1700    0.0000 C   0  0  0  0  0  0  0  0  0  0  0  0
    3.7319    1.8437    0.0000 C   0  0  0  0  0  0  0  0  0  0  0  0
    3.7239   -1.2116    0.0000 C   0  0  0  0  0  0  0  0  0  0  0  0
    6.4760   -1.7253    0.0000 C   0  0  0  0  0  0  0  0  0  0  0  0
    4.6260    3.4061    0.0000 C   0  0  0  0  0  0  0  0  0  0  0  0
    4.6176   -2.8174    0.0000 C   0  0  0  0  0  0  0  0  0  0  0  0
    3.7239    2.8853    0.0000 C   0  0  0  0  0  0  0  0  0  0  0  0
    6.4927   -2.8102    0.0000 C   0  0  0  0  0  0  0  0  0  0  0  0
    7.2400   -0.1632    0.0000 C   0  0  0  0  0  0  0  0  0  0  0  0
    5.5572   -3.3599    0.0000 C   0  0  0  0  0  0  0  0  0  0  0  0
    5.8824    4.5161    0.0000 C   0  0  0  0  0  0  0  0  0  0  0  0
    6.8660   -4.5161    0.0000 C   0  0  0  0  0  0  0  0  0  0  0  0
    2.0000    1.8236    0.0000 C   0  0  0  0  0  0  0  0  0  0  0  0
    6.9109    1.6468    0.0000 H   0  0  0  0  0  0  0  0  0  0  0  0
    3.1986    0.1462    0.0000 H   0  0  0  0  0  0  0  0  0  0  0  0
    3.1858   -1.5195    0.0000 H   0  0  0  0  0  0  0  0  0  0  0  0
    7.0068   -1.4050    0.0000 H   0  0  0  0  0  0  0  0  0  0  0  0
    4.0795   -3.1253    0.0000 H   0  0  0  0  0  0  0  0  0  0  0  0
    3.1858    3.1932    0.0000 H   0  0  0  0  0  0  0  0  0  0  0  0
    6.9300   -0.7001    0.0000 H   0  0  0  0  0  0  0  0  0  0  0  0
    7.7770   -0.4732    0.0000 H   0  0  0  0  0  0  0  0  0  0  0  0
    7.5500    0.3738    0.0000 H   0  0  0  0  0  0  0  0  0  0  0  0
    6.4734    4.7033    0.0000 H   0  0  0  0  0  0  0  0  0  0  0  0
    5.7583    5.1235    0.0000 H   0  0  0  0  0  0  0  0  0  0  0  0
    6.7419   -5.1235    0.0000 H   0  0  0  0  0  0  0  0  0  0  0  0
    7.4570   -4.7033    0.0000 H   0  0  0  0  0  0  0  0  0  0  0  0
    2.3038    2.3641    0.0000 H   0  0  0  0  0  0  0  0  0  0  0  0
    1.4595    2.1274    0.0000 H   0  0  0  0  0  0  0  0  0  0  0  0
    1.6962    1.2832    0.0000 H   0  0  0  0  0  0  0  0  0  0  0  0
  1 14  1  0  0  0  0
  1 25  1  0  0  0  0
  2 19  1  0  0  0  0
  2 25  1  0  0  0  0
  3 16  1  0  0  0  0
  3 27  1  0  0  0  0
  4 22  1  0  0  0  0
  4 26  1  0  0  0  0
  5 24  1  0  0  0  0
  5 26  1  0  0  0  0
  6  7  1  0  0  0  0
  6 13  2  0  0  0  0
  6 23  1  0  0  0  0
  7  8  2  0  0  0  0
  7 11  1  0  0  0  0
  8  9  1  0  0  0  0
  8 15  1  0  0  0  0
  9 10  1  0  0  0  0
  9 16  2  0  0  0  0
 10 13  1  0  0  0  0
 10 14  2  0  0  0  0
 11 12  1  0  0  0  0
 11 18  2  0  0  0  0
 12 17  1  0  0  0  0
 12 20  2  0  0  0  0
 13 28  1  0  0  0  0
 14 19  1  0  0  0  0
 15 17  2  0  0  0  0
 15 29  1  0  0  0  0
 16 21  1  0  0  0  0
 17 30  1  0  0  0  0
 18 22  1  0  0  0  0
 18 31  1  0  0  0  0
 19 21  2  0  0  0  0
 20 24  1  0  0  0  0
 20 32  1  0  0  0  0
 21 33  1  0  0  0  0
 22 24  2  0  0  0  0
 23 34  1  0  0  0  0
 23 35  1  0  0  0  0
 23 36  1  0  0  0  0
 25 37  1  0  0  0  0
 25 38  1  0  0  0  0
 26 39  1  0  0  0  0
 26 40  1  0  0  0  0
 27 41  1  0  0  0  0
 27 42  1  0  0  0  0
 27 43  1  0  0  0  0
M  CHG  1   6   1
M  END
> <PUBCHEM_COMPOUND_CID>
161243

> <PUBCHEM_COMPOUND_CANONICALIZED>
1

> <PUBCHEM_CACTVS_COMPLEXITY>
575

> <PUBCHEM_CACTVS_HBOND_ACCEPTOR>
5

> <PUBCHEM_CACTVS_HBOND_DONOR>
0

> <PUBCHEM_CACTVS_ROTATABLE_BOND>
1

> <PUBCHEM_CACTVS_SUBSKEYS>
AAADceB6OAAAAAAAAAAAAAAAAAAAASJAAAA8YMEAAAAAAEjx/AAAHgAAAAAADAzBngc+zvMMFACgAzRnRACCiCAxICAI2CAuzJgdJ+LEsZukMCpnwB3O6Afw8P8O4QADSAAaQADCAAaQADSAAAAAAAAAAA==

> <PUBCHEM_IUPAC_INCHI>
InChI=1S/C21H16NO5/c1-22-8-14-19(17(23-2)7-18-21(14)27-10-26-18)12-4-3-11-5-15-16(25-9-24-15)6-13(11)20(12)22/h3-8H,9-10H2,1-2H3/q+1

> <PUBCHEM_IUPAC_INCHIKEY>
RNSBFHHWMMKJAM-UHFFFAOYSA-N

> <PUBCHEM_XLOGP3_AA>
4.4

> <PUBCHEM_EXACT_MASS>
362.102848

> <PUBCHEM_MOLECULAR_FORMULA>
C21H16NO5+

> <PUBCHEM_MOLECULAR_WEIGHT>
362.35544

> <PUBCHEM_OPENEYE_CAN_SMILES>
C[N+]1=CC2=C3C(=CC(=C2C4=C1C5=CC6=C(C=C5C=C4)OCO6)OC)OCO3

> <PUBCHEM_OPENEYE_ISO_SMILES>
C[N+]1=CC2=C3C(=CC(=C2C4=C1C5=CC6=C(C=C5C=C4)OCO6)OC)OCO3

> <PUBCHEM_CACTVS_TPSA>
50

> <PUBCHEM_MONOISOTOPIC_WEIGHT>
362.102848

> <PUBCHEM_TOTAL_CHARGE>
1

> <PUBCHEM_HEAVY_ATOM_COUNT>
27

> <PUBCHEM_ATOM_DEF_STEREO_COUNT>
0

> <PUBCHEM_ATOM_UDEF_STEREO_COUNT>
0

> <PUBCHEM_BOND_DEF_STEREO_COUNT>
0

> <PUBCHEM_BOND_UDEF_STEREO_COUNT>
0

> <PUBCHEM_ISOTOPIC_ATOM_COUNT>
0

> <PUBCHEM_COMPONENT_COUNT>
1

> <PUBCHEM_CACTVS_TAUTO_COUNT>
1

> <PUBCHEM_COORDINATE_TYPE>
1
5
255

> <PUBCHEM_BONDANNOTATIONS>
10  13  8
10  14  8
11  12  8
11  18  8
12  17  8
12  20  8
14  19  8
15  17  8
16  21  8
18  22  8
19  21  8
20  24  8
22  24  8
6  13  8
6  7  8
7  11  8
7  8  8
8  15  8
8  9  8
9  10  8
9  16  8

$$$$

