   Color/Form
        Pale yellowish flake
   from [1]HSDB

   Odor
        Faintly earthy
   from [2]HSDB

   Melting Point
        59.6 deg C
   from [3]HSDB

   Corrosivity
        Non-corrosive /End-use product/
   from [4]HSDB

   Density/Specific Gravity
        1.15 at 25 deg C
   from [5]HSDB

   Octanol/Water Partition Coefficient
        log Kow = 6.2
   from [6]HSDB

   pH
        pH = 6.94
   from [7]HSDB

   Solubilities

     * In water, 6.69X10-3 mg/L at 20 deg C
     * Solubility in n-hexane 44 g/L, toluene 450 g/L, dichloromethane 620
       g/L, acetone 220 g/L, methanol 7.8 g/L, and dimethylformamide 190
       g/L.

   from [8]HSDB

   Vapor Pressure
        1.27X10-8 mm Hg at 25 deg C
   from [9]HSDB

   Viscosity
        405.95 cS at 20 deg C; 217.23 cS at 40 deg C /End-use product/
   from [10]HSDB

   Other Chemical/Physical Properties

     * Relative density = 1.04 /End-use product/
     * Henry's Law constant = 9.7X10-7 atm-cu m/mol at 25 deg C
       /Estimated/
     * Hydroxyl radical reaction rate constant = 2.6X10-10 cu
       cm/molecule-sec at 25 deg C /Estimated/
     * Ozone rate constant = 3.3X10-16 cu cm/molecule sec at 25 deg C
       /Estimated/

   from [11]HSDB

   Computed Properties
   Molecular Weight                  384.50848 [g/mol]
   Molecular Formula                 C[24]H[32]O[4]
   XLogP3-AA                         7.6
   H-Bond Donor                      0
   H-Bond Acceptor                   4
   Rotatable Bond Count              13
   Tautomer Count                    7
   Exact Mass                        384.23006
   MonoIsotopic Mass                 384.23006
   Topological Polar Surface Area    60.4
   Heavy Atom Count                  28
   Formal Charge                     0
   Complexity                        575
   Isotope Atom Count                0
   Defined Atom Stereocenter Count   0
   Undefined Atom Stereocenter Count 0
   Defined Bond Stereocenter Count   0
   Undefined Bond Stereocenter Count 0
   Covalently-Bonded Unit Count      1
   Feature 3D Acceptor Count         3
   Feature 3D Hydrophobe Count       1
   Feature 3D Ring Count             2
   Effective Rotor Count             13
   Conformer Sampling RMSD           1.4
   CID Conformer Count               [12]86

References

   1. http://toxnet.nlm.nih.gov/cgi-bin/sis/search/r?dbs+hsdb:@term+@rn+@rel+57960-19-7
   2. http://toxnet.nlm.nih.gov/cgi-bin/sis/search/r?dbs+hsdb:@term+@rn+@rel+57960-19-7
   3. http://toxnet.nlm.nih.gov/cgi-bin/sis/search/r?dbs+hsdb:@term+@rn+@rel+57960-19-7
   4. http://toxnet.nlm.nih.gov/cgi-bin/sis/search/r?dbs+hsdb:@term+@rn+@rel+57960-19-7
   5. http://toxnet.nlm.nih.gov/cgi-bin/sis/search/r?dbs+hsdb:@term+@rn+@rel+57960-19-7
   6. http://toxnet.nlm.nih.gov/cgi-bin/sis/search/r?dbs+hsdb:@term+@rn+@rel+57960-19-7
   7. http://toxnet.nlm.nih.gov/cgi-bin/sis/search/r?dbs+hsdb:@term+@rn+@rel+57960-19-7
   8. http://toxnet.nlm.nih.gov/cgi-bin/sis/search/r?dbs+hsdb:@term+@rn+@rel+57960-19-7
   9. http://toxnet.nlm.nih.gov/cgi-bin/sis/search/r?dbs+hsdb:@term+@rn+@rel+57960-19-7
  10. http://toxnet.nlm.nih.gov/cgi-bin/sis/search/r?dbs+hsdb:@term+@rn+@rel+57960-19-7
  11. http://toxnet.nlm.nih.gov/cgi-bin/sis/search/r?dbs+hsdb:@term+@rn+@rel+57960-19-7
  12. http://pubchem.ncbi.nlm.nih.gov/vw3d/vw3d.cgi?cid=93315
