343582
  -OEChem-07051212572D

 33 35  0     0  0  0  0  0  0999 V2000
    7.2901    0.3020    0.0000 O   0  0  0  0  0  0  0  0  0  0  0  0
    3.7702    0.3020    0.0000 O   0  0  0  0  0  0  0  0  0  0  0  0
    5.5301    1.2673    0.0000 O   0  0  0  0  0  0  0  0  0  0  0  0
    2.0000    0.2915    0.0000 O   0  0  0  0  0  0  0  0  0  0  0  0
    8.1962   -0.2119    0.0000 C   0  0  0  0  0  0  0  0  0  0  0  0
    6.3961   -0.2327    0.0000 C   0  0  0  0  0  0  0  0  0  0  0  0
    6.3961   -1.2327    0.0000 C   0  0  0  0  0  0  0  0  0  0  0  0
    8.1962   -1.2535    0.0000 C   0  0  0  0  0  0  0  0  0  0  0  0
    9.1962   -0.2080    0.0000 C   0  0  0  0  0  0  0  0  0  0  0  0
    8.6928    0.6561    0.0000 C   0  0  0  0  0  0  0  0  0  0  0  0
    7.2901   -1.7673    0.0000 C   0  0  0  0  0  0  0  0  0  0  0  0
    5.5301    0.2673    0.0000 C   0  0  0  0  0  0  0  0  0  0  0  0
    5.5301   -1.7327    0.0000 C   0  0  0  0  0  0  0  0  0  0  0  0
    4.6641   -1.2327    0.0000 C   0  0  0  0  0  0  0  0  0  0  0  0
    4.6641   -0.2327    0.0000 C   0  0  0  0  0  0  0  0  0  0  0  0
    3.7702   -1.7673    0.0000 C   0  0  0  0  0  0  0  0  0  0  0  0
    2.8641   -1.2535    0.0000 C   0  0  0  0  0  0  0  0  0  0  0  0
    2.8641   -0.2119    0.0000 C   0  0  0  0  0  0  0  0  0  0  0  0
    4.6641    1.7673    0.0000 C   0  0  0  0  0  0  0  0  0  0  0  0
    8.7319   -1.5656    0.0000 H   0  0  0  0  0  0  0  0  0  0  0  0
    9.2310    0.3482    0.0000 H   0  0  0  0  0  0  0  0  0  0  0  0
    9.0008    1.1942    0.0000 H   0  0  0  0  0  0  0  0  0  0  0  0
    8.1547    0.9640    0.0000 H   0  0  0  0  0  0  0  0  0  0  0  0
    9.1985   -0.8280    0.0000 H   0  0  0  0  0  0  0  0  0  0  0  0
    9.8162   -0.2056    0.0000 H   0  0  0  0  0  0  0  0  0  0  0  0
    9.1938    0.4120    0.0000 H   0  0  0  0  0  0  0  0  0  0  0  0
    7.2829   -2.3873    0.0000 H   0  0  0  0  0  0  0  0  0  0  0  0
    5.5301   -2.3527    0.0000 H   0  0  0  0  0  0  0  0  0  0  0  0
    3.7773   -2.3873    0.0000 H   0  0  0  0  0  0  0  0  0  0  0  0
    2.3284   -1.5656    0.0000 H   0  0  0  0  0  0  0  0  0  0  0  0
    4.9741    2.3043    0.0000 H   0  0  0  0  0  0  0  0  0  0  0  0
    4.1272    2.0773    0.0000 H   0  0  0  0  0  0  0  0  0  0  0  0
    4.3541    1.2304    0.0000 H   0  0  0  0  0  0  0  0  0  0  0  0
  1  5  1  0  0  0  0
  1  6  1  0  0  0  0
  2 15  1  0  0  0  0
  2 18  1  0  0  0  0
  3 12  1  0  0  0  0
  3 19  1  0  0  0  0
  4 18  2  0  0  0  0
  5  8  1  0  0  0  0
  5  9  1  0  0  0  0
  5 10  1  0  0  0  0
  6  7  2  0  0  0  0
  6 12  1  0  0  0  0
  7 11  1  0  0  0  0
  7 13  1  0  0  0  0
  8 11  2  0  0  0  0
  8 20  1  0  0  0  0
  9 24  1  0  0  0  0
  9 25  1  0  0  0  0
  9 26  1  0  0  0  0
 10 21  1  0  0  0  0
 10 22  1  0  0  0  0
 10 23  1  0  0  0  0
 11 27  1  0  0  0  0
 12 15  2  0  0  0  0
 13 14  2  0  0  0  0
 13 28  1  0  0  0  0
 14 15  1  0  0  0  0
 14 16  1  0  0  0  0
 16 17  2  0  0  0  0
 16 29  1  0  0  0  0
 17 18  1  0  0  0  0
 17 30  1  0  0  0  0
 19 31  1  0  0  0  0
 19 32  1  0  0  0  0
 19 33  1  0  0  0  0
M  END
> <PUBCHEM_COMPOUND_CID>
343582

> <PUBCHEM_COMPOUND_CANONICALIZED>
1

> <PUBCHEM_CACTVS_COMPLEXITY>
437

> <PUBCHEM_CACTVS_HBOND_ACCEPTOR>
4

> <PUBCHEM_CACTVS_HBOND_DONOR>
0

> <PUBCHEM_CACTVS_ROTATABLE_BOND>
1

> <PUBCHEM_CACTVS_SUBSKEYS>
AAADccBwOAAAAAAAAAAAAAAAAAAAAAAAAAAwQIAAAAAAAACBAAAAGgAAAAAADESAmAIyDoAABACIAiDSCAACCAAgIAAIiAAEiMgNJyKEMRqCOiKlwBUKqYeA4HwOIAADCAAIQABAAAYQABCAAAAAAAAAAA==

> <PUBCHEM_IUPAC_OPENEYE_NAME>
10-methoxy-2,2-dimethyl-pyrano[3,2-g]chromen-8-one

> <PUBCHEM_IUPAC_CAS_NAME>
10-methoxy-2,2-dimethyl-8-pyrano[3,2-g][1]benzopyranone

> <PUBCHEM_IUPAC_NAME>
10-methoxy-2,2-dimethylpyrano[3,2-g]chromen-8-one

> <PUBCHEM_IUPAC_SYSTEMATIC_NAME>
10-methoxy-2,2-dimethyl-pyrano[3,2-g]chromen-8-one

> <PUBCHEM_IUPAC_TRADITIONAL_NAME>
10-methoxy-2,2-dimethyl-pyrano[3,2-g]chromen-8-one

> <PUBCHEM_IUPAC_INCHI>
InChI=1S/C15H14O4/c1-15(2)7-6-10-8-9-4-5-11(16)18-12(9)14(17-3)13(10)19-15/h4-8H,1-3H3

> <PUBCHEM_IUPAC_INCHIKEY>
XYPWCJWXFYYGPA-UHFFFAOYSA-N

> <PUBCHEM_XLOGP3_AA>
2.8

> <PUBCHEM_EXACT_MASS>
258.089209

> <PUBCHEM_MOLECULAR_FORMULA>
C15H14O4

> <PUBCHEM_MOLECULAR_WEIGHT>
258.26926

> <PUBCHEM_OPENEYE_CAN_SMILES>
CC1(C=CC2=C(O1)C(=C3C(=C2)C=CC(=O)O3)OC)C

> <PUBCHEM_OPENEYE_ISO_SMILES>
CC1(C=CC2=C(O1)C(=C3C(=C2)C=CC(=O)O3)OC)C

> <PUBCHEM_CACTVS_TPSA>
44.8

> <PUBCHEM_MONOISOTOPIC_WEIGHT>
258.089209

> <PUBCHEM_TOTAL_CHARGE>
0

> <PUBCHEM_HEAVY_ATOM_COUNT>
19

> <PUBCHEM_ATOM_DEF_STEREO_COUNT>
0

> <PUBCHEM_ATOM_UDEF_STEREO_COUNT>
0

> <PUBCHEM_BOND_DEF_STEREO_COUNT>
0

> <PUBCHEM_BOND_UDEF_STEREO_COUNT>
0

> <PUBCHEM_ISOTOPIC_ATOM_COUNT>
0

> <PUBCHEM_COMPONENT_COUNT>
1

> <PUBCHEM_CACTVS_TAUTO_COUNT>
1

> <PUBCHEM_COORDINATE_TYPE>
1
5
255

> <PUBCHEM_BONDANNOTATIONS>
12  15  8
13  14  8
14  15  8
14  16  8
16  17  8
17  18  8
2  15  8
2  18  8
6  12  8
6  7  8
7  13  8

$$$$

