255699
  -OEChem-07051213062D

 55 58  0     1  0  0  0  0  0999 V2000
    2.0000   -1.4701    0.0000 F   0  0  0  0  0  0  0  0  0  0  0  0
    2.4967   -2.3380    0.0000 F   0  0  0  0  0  0  0  0  0  0  0  0
    9.2814    1.9728    0.0000 O   0  0  0  0  0  0  0  0  0  0  0  0
    6.6591   -0.4183    0.0000 C   0  0  1  0  0  0  0  0  0  0  0  0
    7.5251    0.0817    0.0000 C   0  0  1  0  0  0  0  0  0  0  0  0
    5.7931    0.0817    0.0000 C   0  0  1  0  0  0  0  0  0  0  0  0
    7.5251    1.0817    0.0000 C   0  0  1  0  0  0  0  0  0  0  0  0
    4.8831   -0.4251    0.0000 C   0  0  2  0  0  0  0  0  0  0  0  0
    4.8750   -1.4667    0.0000 C   0  0  1  0  0  0  0  0  0  0  0  0
    8.4713    1.3864    0.0000 C   0  0  2  0  0  0  0  0  0  0  0  0
    5.7931    1.0817    0.0000 C   0  0  0  0  0  0  0  0  0  0  0  0
    6.6591    1.5817    0.0000 C   0  0  0  0  0  0  0  0  0  0  0  0
    6.6752   -1.4598    0.0000 C   0  0  0  0  0  0  0  0  0  0  0  0
    8.4713   -0.2230    0.0000 C   0  0  0  0  0  0  0  0  0  0  0  0
    5.7771   -1.9875    0.0000 C   0  0  0  0  0  0  0  0  0  0  0  0
    9.0550    0.5817    0.0000 C   0  0  0  0  0  0  0  0  0  0  0  0
    3.9562    0.1390    0.0000 C   0  0  0  0  0  0  0  0  0  0  0  0
    7.5251    2.0817    0.0000 C   0  0  0  0  0  0  0  0  0  0  0  0
    3.9396   -2.0164    0.0000 C   0  0  0  0  0  0  0  0  0  0  0  0
    4.8908    0.5748    0.0000 C   0  0  0  0  0  0  0  0  0  0  0  0
    3.0084   -0.3890    0.0000 C   0  0  0  0  0  0  0  0  0  0  0  0
    3.0000   -1.4740    0.0000 C   0  0  0  0  0  0  0  0  0  0  0  0
    8.1640    2.3380    0.0000 C   0  0  0  0  0  0  0  0  0  0  0  0
    7.3985   -0.8376    0.0000 H   0  0  0  0  0  0  0  0  0  0  0  0
    7.6151   -0.7635    0.0000 H   0  0  0  0  0  0  0  0  0  0  0  0
    6.5292    0.5067    0.0000 H   0  0  0  0  0  0  0  0  0  0  0  0
    4.8783   -2.3167    0.0000 H   0  0  0  0  0  0  0  0  0  0  0  0
    5.5810    1.6643    0.0000 H   0  0  0  0  0  0  0  0  0  0  0  0
    5.1825    0.9741    0.0000 H   0  0  0  0  0  0  0  0  0  0  0  0
    7.0576    2.0567    0.0000 H   0  0  0  0  0  0  0  0  0  0  0  0
    6.2606    2.0567    0.0000 H   0  0  0  0  0  0  0  0  0  0  0  0
    6.8932   -2.0402    0.0000 H   0  0  0  0  0  0  0  0  0  0  0  0
    7.2843   -1.3443    0.0000 H   0  0  0  0  0  0  0  0  0  0  0  0
    8.2203   -0.7899    0.0000 H   0  0  0  0  0  0  0  0  0  0  0  0
    9.0087   -0.5322    0.0000 H   0  0  0  0  0  0  0  0  0  0  0  0
    5.3798   -2.4635    0.0000 H   0  0  0  0  0  0  0  0  0  0  0  0
    6.1781   -2.4604    0.0000 H   0  0  0  0  0  0  0  0  0  0  0  0
    9.5158    0.1670    0.0000 H   0  0  0  0  0  0  0  0  0  0  0  0
    9.5158    0.9964    0.0000 H   0  0  0  0  0  0  0  0  0  0  0  0
    4.3644    0.6056    0.0000 H   0  0  0  0  0  0  0  0  0  0  0  0
    3.5663    0.6210    0.0000 H   0  0  0  0  0  0  0  0  0  0  0  0
    8.1451    2.0817    0.0000 H   0  0  0  0  0  0  0  0  0  0  0  0
    7.5251    2.7017    0.0000 H   0  0  0  0  0  0  0  0  0  0  0  0
    6.9051    2.0817    0.0000 H   0  0  0  0  0  0  0  0  0  0  0  0
    3.5423   -2.4924    0.0000 H   0  0  0  0  0  0  0  0  0  0  0  0
    4.3406   -2.4893    0.0000 H   0  0  0  0  0  0  0  0  0  0  0  0
    5.5108    0.5701    0.0000 H   0  0  0  0  0  0  0  0  0  0  0  0
    4.8956    1.1948    0.0000 H   0  0  0  0  0  0  0  0  0  0  0  0
    4.2708    0.5796    0.0000 H   0  0  0  0  0  0  0  0  0  0  0  0
    2.8038    0.1963    0.0000 H   0  0  0  0  0  0  0  0  0  0  0  0
    2.3967   -0.4904    0.0000 H   0  0  0  0  0  0  0  0  0  0  0  0
    8.7540    2.5286    0.0000 H   0  0  0  0  0  0  0  0  0  0  0  0
    7.9734    2.9280    0.0000 H   0  0  0  0  0  0  0  0  0  0  0  0
    7.5740    2.1475    0.0000 H   0  0  0  0  0  0  0  0  0  0  0  0
    9.8473    1.7197    0.0000 H   0  0  0  0  0  0  0  0  0  0  0  0
  1 22  1  0  0  0  0
  2 22  1  0  0  0  0
 10  3  1  1  0  0  0
  3 55  1  0  0  0  0
  4  5  1  0  0  0  0
  4  6  1  0  0  0  0
  4 13  1  0  0  0  0
  4 24  1  1  0  0  0
  5  7  1  0  0  0  0
  5 14  1  0  0  0  0
  5 25  1  6  0  0  0
  6  8  1  0  0  0  0
  6 11  1  0  0  0  0
  6 26  1  6  0  0  0
  7 10  1  0  0  0  0
  7 12  1  0  0  0  0
  7 18  1  1  0  0  0
  8  9  1  0  0  0  0
  8 17  1  0  0  0  0
  8 20  1  1  0  0  0
  9 15  1  0  0  0  0
  9 19  1  0  0  0  0
  9 27  1  6  0  0  0
 10 16  1  0  0  0  0
 10 23  1  0  0  0  0
 11 12  1  0  0  0  0
 11 28  1  0  0  0  0
 11 29  1  0  0  0  0
 12 30  1  0  0  0  0
 12 31  1  0  0  0  0
 13 15  1  0  0  0  0
 13 32  1  0  0  0  0
 13 33  1  0  0  0  0
 14 16  1  0  0  0  0
 14 34  1  0  0  0  0
 14 35  1  0  0  0  0
 15 36  1  0  0  0  0
 15 37  1  0  0  0  0
 16 38  1  0  0  0  0
 16 39  1  0  0  0  0
 17 21  1  0  0  0  0
 17 40  1  0  0  0  0
 17 41  1  0  0  0  0
 18 42  1  0  0  0  0
 18 43  1  0  0  0  0
 18 44  1  0  0  0  0
 19 22  1  0  0  0  0
 19 45  1  0  0  0  0
 19 46  1  0  0  0  0
 20 47  1  0  0  0  0
 20 48  1  0  0  0  0
 20 49  1  0  0  0  0
 21 22  1  0  0  0  0
 21 50  1  0  0  0  0
 21 51  1  0  0  0  0
 23 52  1  0  0  0  0
 23 53  1  0  0  0  0
 23 54  1  0  0  0  0
M  END
> <PUBCHEM_COMPOUND_CID>
255699

> <PUBCHEM_COMPOUND_CANONICALIZED>
1

> <PUBCHEM_CACTVS_COMPLEXITY>
506

> <PUBCHEM_CACTVS_HBOND_ACCEPTOR>
3

> <PUBCHEM_CACTVS_HBOND_DONOR>
1

> <PUBCHEM_CACTVS_ROTATABLE_BOND>
0

> <PUBCHEM_CACTVS_SUBSKEYS>
AAADcfB4IYAAAAAAAAAAAAAAAAAAAYAAAAAwYMAAAAAAAGDAAAAAGwAACAAAD0SAgBACAAAAAgAAAAAAAAAAAAAAAAAAAAAAAAAAAAIAAAAAQAAEAAAAAAGAwPAPgAAAAAAAAACAAAQAACAAAYAADAAAAA==

> <PUBCHEM_IUPAC_OPENEYE_NAME>
(5S,8R,9S,10S,13S,14S,17S)-3,3-difluoro-10,13,17-trimethyl-2,4,5,6,7,8,9,11,12,14,15,16-dodecahydro-1H-cyclopenta[a]phenanthren-17-ol

> <PUBCHEM_IUPAC_CAS_NAME>
(5S,8R,9S,10S,13S,14S,17S)-3,3-difluoro-10,13,17-trimethyl-2,4,5,6,7,8,9,11,12,14,15,16-dodecahydro-1H-cyclopenta[a]phenanthren-17-ol

> <PUBCHEM_IUPAC_NAME>
(5S,8R,9S,10S,13S,14S,17S)-3,3-difluoro-10,13,17-trimethyl-2,4,5,6,7,8,9,11,12,14,15,16-dodecahydro-1H-cyclopenta[a]phenanthren-17-ol

> <PUBCHEM_IUPAC_SYSTEMATIC_NAME>
(5S,8R,9S,10S,13S,14S,17S)-3,3-bis(fluoranyl)-10,13,17-trimethyl-2,4,5,6,7,8,9,11,12,14,15,16-dodecahydro-1H-cyclopenta[a]phenanthren-17-ol

> <PUBCHEM_IUPAC_TRADITIONAL_NAME>
(5S,8R,9S,10S,13S,14S,17S)-3,3-difluoro-10,13,17-trimethyl-2,4,5,6,7,8,9,11,12,14,15,16-dodecahydro-1H-cyclopenta[a]phenanthren-17-ol

> <PUBCHEM_IUPAC_INCHI>
InChI=1S/C20H32F2O/c1-17-10-11-20(21,22)12-13(17)4-5-14-15(17)6-8-18(2)16(14)7-9-19(18,3)23/h13-16,23H,4-12H2,1-3H3/t13-,14+,15-,16-,17-,18-,19-/m0/s1

> <PUBCHEM_IUPAC_INCHIKEY>
CFOLMZDQBCZMCT-PHFHYRSDSA-N

> <PUBCHEM_XLOGP3_AA>
5.7

> <PUBCHEM_EXACT_MASS>
326.242122

> <PUBCHEM_MOLECULAR_FORMULA>
C20H32F2O

> <PUBCHEM_MOLECULAR_WEIGHT>
326.464286

> <PUBCHEM_OPENEYE_CAN_SMILES>
CC12CCC(CC1CCC3C2CCC4(C3CCC4(C)O)C)(F)F

> <PUBCHEM_OPENEYE_ISO_SMILES>
C[C@]12CCC(C[C@@H]1CC[C@@H]3[C@@H]2CC[C@]4([C@H]3CC[C@]4(C)O)C)(F)F

> <PUBCHEM_CACTVS_TPSA>
20.2

> <PUBCHEM_MONOISOTOPIC_WEIGHT>
326.242122

> <PUBCHEM_TOTAL_CHARGE>
0

> <PUBCHEM_HEAVY_ATOM_COUNT>
23

> <PUBCHEM_ATOM_DEF_STEREO_COUNT>
7

> <PUBCHEM_ATOM_UDEF_STEREO_COUNT>
0

> <PUBCHEM_BOND_DEF_STEREO_COUNT>
0

> <PUBCHEM_BOND_UDEF_STEREO_COUNT>
0

> <PUBCHEM_ISOTOPIC_ATOM_COUNT>
0

> <PUBCHEM_COMPONENT_COUNT>
1

> <PUBCHEM_CACTVS_TAUTO_COUNT>
1

> <PUBCHEM_COORDINATE_TYPE>
1
5
255

> <PUBCHEM_BONDANNOTATIONS>
10  3  5
4  24  5
5  25  6
6  26  6
7  18  5
8  20  5
9  27  6

$$$$

