   Color/Form
        Colorless prisms
   from [1]HSDB

   Melting Point
        217--218 deg C
   from [2]HSDB

   Dissociation Constants
        pKa = 6.28 /Estimated/
   from [3]HSDB

   Octanol/Water Partition Coefficient
        log Kow = -1.88 @ 25 deg C /Estimated/
   from [4]HSDB

   Solubilities

     * Sol in chloroform; sparingly sol in ethanol, acetone; slightly sol
       in water
     * Difficult solubility in ether and ligroin.
     * In water, 1X10+6 mg/L @ 25 deg C /Estimated/

   from [5]HSDB

   Spectral Properties

     * Specific optical rotation: -139 deg @ 18 deg C/D (chloroform)
     * Max absorption (methanol): 218 nm (log epsilon= 3.90)

   from [6]HSDB

   Vapor Pressure
        1.2X10-12 mm Hg @ 25 deg C /Estimated/
   from [7]HSDB

   Other Chemical/Physical Properties

     * Readily hydrolyzed with alkali
     * Reacts readily with oxidizing agents (slowly with atmospheric
       oxygen) to form dihydropyrrolizine and other derivatives
     * Sol in water /Hydrochloride/
     * Henry's Law constant = 3.2X10-11 atm-cu m/mol @ 25 deg C
       /Estimated/
     * Hydroxyl radical reaction rate constant = 2X10-10 cu cm/molec-sec @
       25 deg C /Estimated/

   from [8]HSDB

   Computed Properties
   Molecular Weight                  333.37892 [g/mol]
   Molecular Formula                 C[18]H[23]NO[5]
   XLogP3-AA                         0.7
   H-Bond Donor                      1
   H-Bond Acceptor                   6
   Rotatable Bond Count              0
   Exact Mass                        333.157623
   MonoIsotopic Mass                 333.157623
   Topological Polar Surface Area    76.1
   Heavy Atom Count                  24
   Formal Charge                     0
   Complexity                        650
   Isotope Atom Count                0
   Defined Atom Stereocenter Count   3
   Undefined Atom Stereocenter Count 0
   Defined Bond Stereocenter Count   1
   Undefined Bond Stereocenter Count 0
   Covalently-Bonded Unit Count      1
   Feature 3D Acceptor Count         3
   Feature 3D Donor Count            1
   Feature 3D Cation Count           1
   Feature 3D Hydrophobe Count       1
   Feature 3D Ring Count             2
   Effective Rotor Count             1.6
   Conformer Sampling RMSD           0.6
   CID Conformer Count               [9]19

References

   1. http://toxnet.nlm.nih.gov/cgi-bin/sis/search/r?dbs+hsdb:@term+@rn+@rel+480-81-9
   2. http://toxnet.nlm.nih.gov/cgi-bin/sis/search/r?dbs+hsdb:@term+@rn+@rel+480-81-9
   3. http://toxnet.nlm.nih.gov/cgi-bin/sis/search/r?dbs+hsdb:@term+@rn+@rel+480-81-9
   4. http://toxnet.nlm.nih.gov/cgi-bin/sis/search/r?dbs+hsdb:@term+@rn+@rel+480-81-9
   5. http://toxnet.nlm.nih.gov/cgi-bin/sis/search/r?dbs+hsdb:@term+@rn+@rel+480-81-9
   6. http://toxnet.nlm.nih.gov/cgi-bin/sis/search/r?dbs+hsdb:@term+@rn+@rel+480-81-9
   7. http://toxnet.nlm.nih.gov/cgi-bin/sis/search/r?dbs+hsdb:@term+@rn+@rel+480-81-9
   8. http://toxnet.nlm.nih.gov/cgi-bin/sis/search/r?dbs+hsdb:@term+@rn+@rel+480-81-9
   9. http://pubchem.ncbi.nlm.nih.gov/vw3d/vw3d.cgi?cid=5281750
