23708775
  -OEChem-07051213072D

 58 57  0     1  0  0  0  0  0999 V2000
    2.0000    1.6797    0.0000 Na  0  3  0  0  0  0  0  0  0  0  0  0
    7.8434   -3.8907    0.0000 O   0  0  0  0  0  0  0  0  0  0  0  0
   10.6913   -1.8216    0.0000 O   0  0  0  0  0  0  0  0  0  0  0  0
    2.9511    1.3707    0.0000 O   0  5  0  0  0  0  0  0  0  0  0  0
    2.4158   -0.2766    0.0000 O   0  0  0  0  0  0  0  0  0  0  0  0
    8.1222   -2.1307    0.0000 C   0  0  2  0  0  0  0  0  0  0  0  0
    8.9312   -1.5429    0.0000 C   0  0  2  0  0  0  0  0  0  0  0  0
    8.4312   -3.0817    0.0000 C   0  0  2  0  0  0  0  0  0  0  0  0
    9.7402   -2.1307    0.0000 C   0  0  1  0  0  0  0  0  0  0  0  0
    9.4312   -3.0817    0.0000 C   0  0  0  0  0  0  0  0  0  0  0  0
    7.1711   -1.8216    0.0000 C   0  0  0  0  0  0  0  0  0  0  0  0
    8.9312   -0.5429    0.0000 C   0  0  0  0  0  0  0  0  0  0  0  0
    6.4280   -2.4908    0.0000 C   0  0  0  0  0  0  0  0  0  0  0  0
    9.7972   -0.0429    0.0000 C   0  0  0  0  0  0  0  0  0  0  0  0
    9.7972    0.9571    0.0000 C   0  0  0  0  0  0  0  0  0  0  0  0
    5.4769   -2.1818    0.0000 C   0  0  0  0  0  0  0  0  0  0  0  0
   10.6632    1.4571    0.0000 C   0  0  0  0  0  0  0  0  0  0  0  0
    5.2690   -1.2036    0.0000 C   0  0  0  0  0  0  0  0  0  0  0  0
   10.6632    2.4571    0.0000 C   0  0  0  0  0  0  0  0  0  0  0  0
   11.5293    2.9571    0.0000 C   0  0  0  0  0  0  0  0  0  0  0  0
    4.3179   -0.8946    0.0000 C   0  0  0  0  0  0  0  0  0  0  0  0
   11.5293    3.9571    0.0000 C   0  0  0  0  0  0  0  0  0  0  0  0
    4.1100    0.0836    0.0000 C   0  0  0  0  0  0  0  0  0  0  0  0
   12.3953    4.4571    0.0000 C   0  0  0  0  0  0  0  0  0  0  0  0
    3.1590    0.3926    0.0000 C   0  0  0  0  0  0  0  0  0  0  0  0
    8.0252   -1.5183    0.0000 H   0  0  0  0  0  0  0  0  0  0  0  0
    8.3788   -1.2614    0.0000 H   0  0  0  0  0  0  0  0  0  0  0  0
    7.8188   -2.9847    0.0000 H   0  0  0  0  0  0  0  0  0  0  0  0
    9.8372   -1.5183    0.0000 H   0  0  0  0  0  0  0  0  0  0  0  0
    9.3664   -3.6983    0.0000 H   0  0  0  0  0  0  0  0  0  0  0  0
   10.0376   -3.2106    0.0000 H   0  0  0  0  0  0  0  0  0  0  0  0
    7.4622   -1.2742    0.0000 H   0  0  0  0  0  0  0  0  0  0  0  0
    6.6825   -1.4399    0.0000 H   0  0  0  0  0  0  0  0  0  0  0  0
    8.3942   -0.2329    0.0000 H   0  0  0  0  0  0  0  0  0  0  0  0
    8.0956   -4.4571    0.0000 H   0  0  0  0  0  0  0  0  0  0  0  0
   11.1520   -2.2365    0.0000 H   0  0  0  0  0  0  0  0  0  0  0  0
    6.5569   -3.0972    0.0000 H   0  0  0  0  0  0  0  0  0  0  0  0
   10.3341   -0.3529    0.0000 H   0  0  0  0  0  0  0  0  0  0  0  0
    9.5852    1.5397    0.0000 H   0  0  0  0  0  0  0  0  0  0  0  0
    9.1866    0.8495    0.0000 H   0  0  0  0  0  0  0  0  0  0  0  0
    5.0162   -2.5966    0.0000 H   0  0  0  0  0  0  0  0  0  0  0  0
   10.8753    0.8745    0.0000 H   0  0  0  0  0  0  0  0  0  0  0  0
   11.2738    1.5648    0.0000 H   0  0  0  0  0  0  0  0  0  0  0  0
    5.8886   -1.1820    0.0000 H   0  0  0  0  0  0  0  0  0  0  0  0
    5.3553   -0.5896    0.0000 H   0  0  0  0  0  0  0  0  0  0  0  0
   10.4512    3.0397    0.0000 H   0  0  0  0  0  0  0  0  0  0  0  0
   10.0526    2.3495    0.0000 H   0  0  0  0  0  0  0  0  0  0  0  0
   11.7413    2.3745    0.0000 H   0  0  0  0  0  0  0  0  0  0  0  0
   12.1398    3.0648    0.0000 H   0  0  0  0  0  0  0  0  0  0  0  0
    3.6983   -0.9162    0.0000 H   0  0  0  0  0  0  0  0  0  0  0  0
    4.2316   -1.5086    0.0000 H   0  0  0  0  0  0  0  0  0  0  0  0
   11.3172    4.5397    0.0000 H   0  0  0  0  0  0  0  0  0  0  0  0
   10.9187    3.8495    0.0000 H   0  0  0  0  0  0  0  0  0  0  0  0
    4.7296    0.1052    0.0000 H   0  0  0  0  0  0  0  0  0  0  0  0
    4.1963    0.6975    0.0000 H   0  0  0  0  0  0  0  0  0  0  0  0
   12.7053    3.9202    0.0000 H   0  0  0  0  0  0  0  0  0  0  0  0
   12.9322    4.7671    0.0000 H   0  0  0  0  0  0  0  0  0  0  0  0
   12.0853    4.9941    0.0000 H   0  0  0  0  0  0  0  0  0  0  0  0
  8  2  1  6  0  0  0
  2 35  1  0  0  0  0
  9  3  1  6  0  0  0
  3 36  1  0  0  0  0
  4 25  1  0  0  0  0
  5 25  2  0  0  0  0
  6  7  1  0  0  0  0
  6  8  1  0  0  0  0
  6 11  1  6  0  0  0
  6 26  1  0  0  0  0
  7  9  1  0  0  0  0
  7 12  1  1  0  0  0
  7 27  1  0  0  0  0
  8 10  1  0  0  0  0
  8 28  1  0  0  0  0
  9 10  1  0  0  0  0
  9 29  1  0  0  0  0
 10 30  1  0  0  0  0
 10 31  1  0  0  0  0
 11 13  1  0  0  0  0
 11 32  1  0  0  0  0
 11 33  1  0  0  0  0
 12 14  2  0  0  0  0
 12 34  1  0  0  0  0
 13 16  2  0  0  0  0
 13 37  1  0  0  0  0
 14 15  1  0  0  0  0
 14 38  1  0  0  0  0
 15 17  1  0  0  0  0
 15 39  1  0  0  0  0
 15 40  1  0  0  0  0
 16 18  1  0  0  0  0
 16 41  1  0  0  0  0
 17 19  1  0  0  0  0
 17 42  1  0  0  0  0
 17 43  1  0  0  0  0
 18 21  1  0  0  0  0
 18 44  1  0  0  0  0
 18 45  1  0  0  0  0
 19 20  1  0  0  0  0
 19 46  1  0  0  0  0
 19 47  1  0  0  0  0
 20 22  1  0  0  0  0
 20 48  1  0  0  0  0
 20 49  1  0  0  0  0
 21 23  1  0  0  0  0
 21 50  1  0  0  0  0
 21 51  1  0  0  0  0
 22 24  1  0  0  0  0
 22 52  1  0  0  0  0
 22 53  1  0  0  0  0
 23 25  1  0  0  0  0
 23 54  1  0  0  0  0
 23 55  1  0  0  0  0
 24 56  1  0  0  0  0
 24 57  1  0  0  0  0
 24 58  1  0  0  0  0
M  CHG  2   1   1   4  -1
M  END
> <PUBCHEM_COMPOUND_CID>
23708775

> <PUBCHEM_COMPOUND_CANONICALIZED>
1

> <PUBCHEM_CACTVS_COMPLEXITY>
409

> <PUBCHEM_CACTVS_HBOND_ACCEPTOR>
4

> <PUBCHEM_CACTVS_HBOND_DONOR>
2

> <PUBCHEM_CACTVS_ROTATABLE_BOND>
12

> <PUBCHEM_CACTVS_SUBSKEYS>
AAADcfB4OCAAAAAAAAAAAAAAAAAAAYAAAAAAAAAAAAAAAAAAAAAAGgAACAAADRSggAICCAAAAgCIACDSCAAAAAAgAAAICAEAAAgAEBIAAQAAQAAFwAAIAAPIwKAOgAAAAAAAAAAAAAAAAAAAAIQADAAAAA==

> <PUBCHEM_IUPAC_OPENEYE_NAME>
sodium (Z)-7-[(1R,2R,3R,5S)-3,5-dihydroxy-2-[(E)-oct-1-enyl]cyclopentyl]hept-5-enoate

> <PUBCHEM_IUPAC_CAS_NAME>
sodium (Z)-7-[(1R,2R,3R,5S)-3,5-dihydroxy-2-[(E)-oct-1-enyl]cyclopentyl]-5-heptenoate

> <PUBCHEM_IUPAC_NAME>
sodium (Z)-7-[(1R,2R,3R,5S)-3,5-dihydroxy-2-[(E)-oct-1-enyl]cyclopentyl]hept-5-enoate

> <PUBCHEM_IUPAC_SYSTEMATIC_NAME>
sodium (Z)-7-[(1R,2R,3R,5S)-2-[(E)-oct-1-enyl]-3,5-bis(oxidanyl)cyclopentyl]hept-5-enoate

> <PUBCHEM_IUPAC_TRADITIONAL_NAME>
sodium (Z)-7-[(1R,2R,3R,5S)-3,5-dihydroxy-2-[(E)-oct-1-enyl]cyclopentyl]hept-5-enoate

> <PUBCHEM_IUPAC_INCHI>
InChI=1S/C20H34O4.Na/c1-2-3-4-5-6-9-12-16-17(19(22)15-18(16)21)13-10-7-8-11-14-20(23)24;/h7,9-10,12,16-19,21-22H,2-6,8,11,13-15H2,1H3,(H,23,24);/q;+1/p-1/b10-7-,12-9+;/t16-,17-,18-,19+;/m1./s1

> <PUBCHEM_IUPAC_INCHIKEY>
WESGECMANBOOPN-CYMBGFKMSA-M

> <PUBCHEM_EXACT_MASS>
360.227654

> <PUBCHEM_MOLECULAR_FORMULA>
C20H33NaO4

> <PUBCHEM_MOLECULAR_WEIGHT>
360.463389

> <PUBCHEM_OPENEYE_CAN_SMILES>
CCCCCCC=CC1C(CC(C1CC=CCCCC(=O)[O-])O)O.[Na+]

> <PUBCHEM_OPENEYE_ISO_SMILES>
CCCCCC/C=C/[C@H]1[C@@H](C[C@@H]([C@@H]1C/C=C\CCCC(=O)[O-])O)O.[Na+]

> <PUBCHEM_CACTVS_TPSA>
80.6

> <PUBCHEM_MONOISOTOPIC_WEIGHT>
360.227654

> <PUBCHEM_TOTAL_CHARGE>
0

> <PUBCHEM_HEAVY_ATOM_COUNT>
25

> <PUBCHEM_ATOM_DEF_STEREO_COUNT>
4

> <PUBCHEM_ATOM_UDEF_STEREO_COUNT>
0

> <PUBCHEM_BOND_DEF_STEREO_COUNT>
2

> <PUBCHEM_BOND_UDEF_STEREO_COUNT>
0

> <PUBCHEM_ISOTOPIC_ATOM_COUNT>
0

> <PUBCHEM_COMPONENT_COUNT>
2

> <PUBCHEM_CACTVS_TAUTO_COUNT>
1

> <PUBCHEM_NONSTANDARDBOND>
1  4  7

> <PUBCHEM_COORDINATE_TYPE>
1
5
255

> <PUBCHEM_BONDANNOTATIONS>
8  2  6
9  3  6
6  11  6
7  12  5

$$$$

