   Dissociation Constants
        pKa = 8.7 amine (est)
   from [1]HSDB

   Octanol/Water Partition Coefficient
        log Kow = 3.85 at 25 deg C (est)
   from [2]HSDB

   Solubilities
        In water, 22 mg/L at 25 deg C (est)
   from [3]HSDB

   Vapor Pressure
        3.7X10-9 mm Hg at 25 deg C (est)
   from [4]HSDB

   Other Chemical/Physical Properties

     * Henry's Law constant = 6.5X10-13 atm-cu m/mole at 25 deg C (est)
     * White to almost white crystalline powder, slightly soluble in water
       /Hydrochloride salt/
     * Hydroxyl radical reaction rate constant = 5.1X10-11 cu
       cm/molecule-sec at 25 deg C (est)
     * Odorless, white powder. Molecular weight: 414.77; mp: 259-260 deg C
       (decomposition). Soluble in ethanol, ethyl acetate; slightly
       soluble in water /Mefloquine hydrochloride/

   from [5]HSDB

   Computed Properties
   Molecular Weight                  378.312159 [g/mol]
   Molecular Formula                 C[17]H[16]F[6]N[2]O
   XLogP3-AA                         3.6
   H-Bond Donor                      2
   H-Bond Acceptor                   9
   Rotatable Bond Count              2
   Exact Mass                        378.116682
   MonoIsotopic Mass                 378.116682
   Topological Polar Surface Area    45.2
   Heavy Atom Count                  26
   Formal Charge                     0
   Complexity                        483
   Isotope Atom Count                0
   Defined Atom Stereocenter Count   0
   Undefined Atom Stereocenter Count 2
   Defined Bond Stereocenter Count   0
   Undefined Bond Stereocenter Count 0
   Covalently-Bonded Unit Count      1
   Feature 3D Acceptor Count         2
   Feature 3D Donor Count            2
   Feature 3D Cation Count           1
   Feature 3D Ring Count             3
   Effective Rotor Count             5.2
   Conformer Sampling RMSD           0.8
   CID Conformer Count               [6]11

References

   1. http://toxnet.nlm.nih.gov/cgi-bin/sis/search/r?dbs+hsdb:@term+@rn+@rel+53230-10-7
   2. http://toxnet.nlm.nih.gov/cgi-bin/sis/search/r?dbs+hsdb:@term+@rn+@rel+53230-10-7
   3. http://toxnet.nlm.nih.gov/cgi-bin/sis/search/r?dbs+hsdb:@term+@rn+@rel+53230-10-7
   4. http://toxnet.nlm.nih.gov/cgi-bin/sis/search/r?dbs+hsdb:@term+@rn+@rel+53230-10-7
   5. http://toxnet.nlm.nih.gov/cgi-bin/sis/search/r?dbs+hsdb:@term+@rn+@rel+53230-10-7
   6. http://pubchem.ncbi.nlm.nih.gov/vw3d/vw3d.cgi?cid=4046
