439313
  -OEChem-07051212452D

 86 88  0     1  0  0  0  0  0999 V2000
    3.3934    7.4864    0.0000 S   0  0  0  0  0  0  0  0  0  0  0  0
   16.6176   -1.6939    0.0000 P   0  0  0  0  0  0  0  0  0  0  0  0
   13.3673   -0.8515    0.0000 P   0  0  3  0  0  0  0  0  0  0  0  0
   12.0822    0.3096    0.0000 P   0  0  3  0  0  0  0  0  0  0  0  0
   14.3707   -3.7723    0.0000 O   0  0  0  0  0  0  0  0  0  0  0  0
   16.7204   -2.6886    0.0000 O   0  0  0  0  0  0  0  0  0  0  0  0
   16.7166   -4.8642    0.0000 O   0  0  0  0  0  0  0  0  0  0  0  0
   13.6747   -1.8031    0.0000 O   0  0  0  0  0  0  0  0  0  0  0  0
   16.5148   -0.6992    0.0000 O   0  0  0  0  0  0  0  0  0  0  0  0
   17.6123   -1.5911    0.0000 O   0  0  0  0  0  0  0  0  0  0  0  0
   13.0600    0.1000    0.0000 O   0  0  0  0  0  0  0  0  0  0  0  0
   11.1044    0.5193    0.0000 O   0  0  0  0  0  0  0  0  0  0  0  0
   15.6229   -1.7967    0.0000 O   0  0  0  0  0  0  0  0  0  0  0  0
    8.1710    1.1481    0.0000 O   0  0  0  0  0  0  0  0  0  0  0  0
   12.4157   -1.1589    0.0000 O   0  0  0  0  0  0  0  0  0  0  0  0
   14.3189   -0.5442    0.0000 O   0  0  0  0  0  0  0  0  0  0  0  0
   12.2918    1.2874    0.0000 O   0  0  0  0  0  0  0  0  0  0  0  0
    9.2045    3.5836    0.0000 O   0  0  0  0  0  0  0  0  0  0  0  0
   11.8726   -0.6681    0.0000 O   0  0  0  0  0  0  0  0  0  0  0  0
    6.6342    5.9060    0.0000 O   0  0  0  0  0  0  0  0  0  0  0  0
    2.1083    8.6476    0.0000 O   0  0  0  0  0  0  0  0  0  0  0  0
   14.6464   -5.5329    0.0000 N   0  0  0  0  0  0  0  0  0  0  0  0
   14.6464   -7.1423    0.0000 N   0  0  0  0  0  0  0  0  0  0  0  0
   12.8342   -5.3376    0.0000 N   0  0  0  0  0  0  0  0  0  0  0  0
   11.9681   -6.8376    0.0000 N   0  0  0  0  0  0  0  0  0  0  0  0
   12.8342   -8.3376    0.0000 N   0  0  0  0  0  0  0  0  0  0  0  0
    7.5563    3.0512    0.0000 N   0  0  0  0  0  0  0  0  0  0  0  0
    4.9860    5.3736    0.0000 N   0  0  0  0  0  0  0  0  0  0  0  0
   15.9104   -3.2750    0.0000 C   0  0  1  0  0  0  0  0  0  0  0  0
   15.9086   -4.2750    0.0000 C   0  0  2  0  0  0  0  0  0  0  0  0
   14.9599   -2.9643    0.0000 C   0  0  1  0  0  0  0  0  0  0  0  0
   14.9571   -4.5824    0.0000 C   0  0  1  0  0  0  0  0  0  0  0  0
   14.6525   -2.0127    0.0000 C   0  0  0  0  0  0  0  0  0  0  0  0
   13.7002   -5.8376    0.0000 C   0  0  0  0  0  0  0  0  0  0  0  0
   15.2300   -6.3376    0.0000 C   0  0  0  0  0  0  0  0  0  0  0  0
    9.8192    1.6804    0.0000 C   0  0  0  0  0  0  0  0  0  0  0  0
   13.7002   -6.8376    0.0000 C   0  0  0  0  0  0  0  0  0  0  0  0
    8.8414    1.8900    0.0000 C   0  0  3  0  0  0  0  0  0  0  0  0
   10.7970    1.4708    0.0000 C   0  0  0  0  0  0  0  0  0  0  0  0
   10.0288    2.6582    0.0000 C   0  0  0  0  0  0  0  0  0  0  0  0
    9.6096    0.7027    0.0000 C   0  0  0  0  0  0  0  0  0  0  0  0
   12.8342   -7.3376    0.0000 C   0  0  0  0  0  0  0  0  0  0  0  0
    8.5341    2.8416    0.0000 C   0  0  0  0  0  0  0  0  0  0  0  0
   11.9681   -5.8376    0.0000 C   0  0  0  0  0  0  0  0  0  0  0  0
    7.2489    4.0028    0.0000 C   0  0  0  0  0  0  0  0  0  0  0  0
    6.2711    4.2124    0.0000 C   0  0  0  0  0  0  0  0  0  0  0  0
    5.9638    5.1640    0.0000 C   0  0  0  0  0  0  0  0  0  0  0  0
    4.6786    6.3252    0.0000 C   0  0  0  0  0  0  0  0  0  0  0  0
    3.7008    6.5348    0.0000 C   0  0  0  0  0  0  0  0  0  0  0  0
    2.4157    7.6960    0.0000 C   0  0  0  0  0  0  0  0  0  0  0  0
   16.4623   -3.5574    0.0000 H   0  0  0  0  0  0  0  0  0  0  0  0
   15.8106   -4.8872    0.0000 H   0  0  0  0  0  0  0  0  0  0  0  0
   14.3477   -2.8663    0.0000 H   0  0  0  0  0  0  0  0  0  0  0  0
   15.3947   -5.0215    0.0000 H   0  0  0  0  0  0  0  0  0  0  0  0
   15.2666   -1.9275    0.0000 H   0  0  0  0  0  0  0  0  0  0  0  0
   14.6752   -1.3932    0.0000 H   0  0  0  0  0  0  0  0  0  0  0  0
   17.2835   -4.6130    0.0000 H   0  0  0  0  0  0  0  0  0  0  0  0
   15.8500   -6.3376    0.0000 H   0  0  0  0  0  0  0  0  0  0  0  0
    8.0103    2.0682    0.0000 H   0  0  0  0  0  0  0  0  0  0  0  0
   11.4111    1.5561    0.0000 H   0  0  0  0  0  0  0  0  0  0  0  0
   10.8197    2.0904    0.0000 H   0  0  0  0  0  0  0  0  0  0  0  0
    9.0034    0.8326    0.0000 H   0  0  0  0  0  0  0  0  0  0  0  0
    9.4797    0.0964    0.0000 H   0  0  0  0  0  0  0  0  0  0  0  0
   10.2159    0.5727    0.0000 H   0  0  0  0  0  0  0  0  0  0  0  0
   10.6351    2.5283    0.0000 H   0  0  0  0  0  0  0  0  0  0  0  0
   10.1588    3.2645    0.0000 H   0  0  0  0  0  0  0  0  0  0  0  0
    9.4226    2.7882    0.0000 H   0  0  0  0  0  0  0  0  0  0  0  0
   17.0170   -0.3356    0.0000 H   0  0  0  0  0  0  0  0  0  0  0  0
   17.9759   -2.0933    0.0000 H   0  0  0  0  0  0  0  0  0  0  0  0
   11.4312   -5.5276    0.0000 H   0  0  0  0  0  0  0  0  0  0  0  0
    7.5648    1.2780    0.0000 H   0  0  0  0  0  0  0  0  0  0  0  0
   12.2858   -1.7651    0.0000 H   0  0  0  0  0  0  0  0  0  0  0  0
    7.1406    2.5912    0.0000 H   0  0  0  0  0  0  0  0  0  0  0  0
   12.2972   -8.6476    0.0000 H   0  0  0  0  0  0  0  0  0  0  0  0
   13.3711   -8.6476    0.0000 H   0  0  0  0  0  0  0  0  0  0  0  0
    7.8630    4.0881    0.0000 H   0  0  0  0  0  0  0  0  0  0  0  0
    7.2716    4.6224    0.0000 H   0  0  0  0  0  0  0  0  0  0  0  0
   12.8818    1.4780    0.0000 H   0  0  0  0  0  0  0  0  0  0  0  0
    5.6570    4.1272    0.0000 H   0  0  0  0  0  0  0  0  0  0  0  0
    6.2484    3.5929    0.0000 H   0  0  0  0  0  0  0  0  0  0  0  0
    4.5703    4.9136    0.0000 H   0  0  0  0  0  0  0  0  0  0  0  0
    5.2927    6.4104    0.0000 H   0  0  0  0  0  0  0  0  0  0  0  0
    4.7013    6.9448    0.0000 H   0  0  0  0  0  0  0  0  0  0  0  0
    3.0867    6.4496    0.0000 H   0  0  0  0  0  0  0  0  0  0  0  0
    3.6781    5.9152    0.0000 H   0  0  0  0  0  0  0  0  0  0  0  0
    2.0000    7.2360    0.0000 H   0  0  0  0  0  0  0  0  0  0  0  0
  1 49  1  0  0  0  0
  1 50  1  0  0  0  0
  2  6  1  0  0  0  0
  2  9  1  0  0  0  0
  2 10  1  0  0  0  0
  2 13  2  0  0  0  0
  3  8  1  0  0  0  0
  3 11  1  0  0  0  0
  3 15  1  0  0  0  0
  3 16  2  0  0  0  0
  4 11  1  0  0  0  0
  4 12  1  0  0  0  0
  4 17  1  0  0  0  0
  4 19  2  0  0  0  0
  5 31  1  0  0  0  0
  5 32  1  0  0  0  0
 29  6  1  1  0  0  0
 30  7  1  1  0  0  0
  7 57  1  0  0  0  0
  8 33  1  0  0  0  0
  9 68  1  0  0  0  0
 10 69  1  0  0  0  0
 12 39  1  0  0  0  0
 14 38  1  0  0  0  0
 14 71  1  0  0  0  0
 15 72  1  0  0  0  0
 17 78  1  0  0  0  0
 18 43  2  0  0  0  0
 20 47  2  0  0  0  0
 21 50  2  0  0  0  0
 32 22  1  6  0  0  0
 22 34  1  0  0  0  0
 22 35  1  0  0  0  0
 23 35  2  0  0  0  0
 23 37  1  0  0  0  0
 24 34  1  0  0  0  0
 24 44  2  0  0  0  0
 25 42  2  0  0  0  0
 25 44  1  0  0  0  0
 26 42  1  0  0  0  0
 26 74  1  0  0  0  0
 26 75  1  0  0  0  0
 27 43  1  0  0  0  0
 27 45  1  0  0  0  0
 27 73  1  0  0  0  0
 28 47  1  0  0  0  0
 28 48  1  0  0  0  0
 28 81  1  0  0  0  0
 29 30  1  0  0  0  0
 29 31  1  0  0  0  0
 29 51  1  0  0  0  0
 30 32  1  0  0  0  0
 30 52  1  0  0  0  0
 31 33  1  6  0  0  0
 31 53  1  0  0  0  0
 32 54  1  0  0  0  0
 33 55  1  0  0  0  0
 33 56  1  0  0  0  0
 34 37  2  0  0  0  0
 35 58  1  0  0  0  0
 36 38  1  0  0  0  0
 36 39  1  0  0  0  0
 36 40  1  0  0  0  0
 36 41  1  0  0  0  0
 37 42  1  0  0  0  0
 38 43  1  0  0  0  0
 38 59  1  0  0  0  0
 39 60  1  0  0  0  0
 39 61  1  0  0  0  0
 40 65  1  0  0  0  0
 40 66  1  0  0  0  0
 40 67  1  0  0  0  0
 41 62  1  0  0  0  0
 41 63  1  0  0  0  0
 41 64  1  0  0  0  0
 44 70  1  0  0  0  0
 45 46  1  0  0  0  0
 45 76  1  0  0  0  0
 45 77  1  0  0  0  0
 46 47  1  0  0  0  0
 46 79  1  0  0  0  0
 46 80  1  0  0  0  0
 48 49  1  0  0  0  0
 48 82  1  0  0  0  0
 48 83  1  0  0  0  0
 49 84  1  0  0  0  0
 49 85  1  0  0  0  0
 50 86  1  0  0  0  0
M  END
> <PUBCHEM_COMPOUND_CID>
439313

> <PUBCHEM_COMPOUND_CANONICALIZED>
1

> <PUBCHEM_CACTVS_COMPLEXITY>
1330

> <PUBCHEM_CACTVS_HBOND_ACCEPTOR>
22

> <PUBCHEM_CACTVS_HBOND_DONOR>
9

> <PUBCHEM_CACTVS_ROTATABLE_BOND>
20

> <PUBCHEM_CACTVS_SUBSKEYS>
AAADcfB7vgNAAAAAAAAAAAAAAAAAAWJAAAAsAAAAAAAAAFgB+AAAHgQQCCAADhzl1waH8L/MFxioQQdx9IKAgC0RELABUKFoVBCDWBpAyEAeRAgPFgLTACDyMAIJAAAAAAAAAAAAAAAAAAAAAAAAAAAAAA==

> <PUBCHEM_IUPAC_OPENEYE_NAME>
S-[2-[3-[[4-[[[(2R,3S,4R,5R)-5-(6-aminopurin-9-yl)-4-hydroxy-3-phosphonooxy-tetrahydrofuran-2-yl]methoxy-hydroxy-phosphoryl]oxy-hydroxy-phosphoryl]oxy-2-hydroxy-3,3-dimethyl-butanoyl]amino]propanoylamino]ethyl] methanethioate

> <PUBCHEM_IUPAC_CAS_NAME>
methanethioic acid S-[2-[[3-[[4-[[[(2R,3S,4R,5R)-5-(6-aminopurin-9-yl)-4-hydroxy-3-phosphonooxy-2-oxolanyl]methoxy-hydroxyphosphoryl]oxy-hydroxyphosphoryl]oxy-2-hydroxy-3,3-dimethyl-1-oxobutyl]amino]-1-oxopropyl]amino]ethyl] ester

> <PUBCHEM_IUPAC_NAME>
S-[2-[3-[[4-[[[(2R,3S,4R,5R)-5-(6-aminopurin-9-yl)-4-hydroxy-3-phosphonooxyoxolan-2-yl]methoxy-hydroxyphosphoryl]oxy-hydroxyphosphoryl]oxy-2-hydroxy-3,3-dimethylbutanoyl]amino]propanoylamino]ethyl] methanethioate

> <PUBCHEM_IUPAC_SYSTEMATIC_NAME>
S-[2-[3-[[4-[[[(2R,3S,4R,5R)-5-(6-aminopurin-9-yl)-4-oxidanyl-3-phosphonooxy-oxolan-2-yl]methoxy-oxidanyl-phosphoryl]oxy-oxidanyl-phosphoryl]oxy-3,3-dimethyl-2-oxidanyl-butanoyl]amino]propanoylamino]ethyl] methanethioate

> <PUBCHEM_IUPAC_TRADITIONAL_NAME>
methanethioic acid S-[2-[3-[[4-[[[(2R,3S,4R,5R)-5-adenin-9-yl-4-hydroxy-3-phosphonooxy-tetrahydrofuran-2-yl]methoxy-hydroxy-phosphoryl]oxy-hydroxy-phosphoryl]oxy-2-hydroxy-3,3-dimethyl-butanoyl]amino]propanoylamino]ethyl] ester

> <PUBCHEM_IUPAC_INCHI>
InChI=1S/C22H36N7O17P3S/c1-22(2,17(33)20(34)25-4-3-13(31)24-5-6-50-11-30)8-43-49(40,41)46-48(38,39)42-7-12-16(45-47(35,36)37)15(32)21(44-12)29-10-28-14-18(23)26-9-27-19(14)29/h9-12,15-17,21,32-33H,3-8H2,1-2H3,(H,24,31)(H,25,34)(H,38,39)(H,40,41)(H2,23,26,27)(H2,35,36,37)/t12-,15-,16-,17?,21-/m1/s1

> <PUBCHEM_IUPAC_INCHIKEY>
SXMOKYXNAPLNCW-BWGWEBPHSA-N

> <PUBCHEM_XLOGP3>
-5.6

> <PUBCHEM_EXACT_MASS>
795.110124

> <PUBCHEM_MOLECULAR_FORMULA>
C22H36N7O17P3S

> <PUBCHEM_MOLECULAR_WEIGHT>
795.544226

> <PUBCHEM_OPENEYE_CAN_SMILES>
CC(C)(COP(=O)(O)OP(=O)(O)OCC1C(C(C(O1)N2C=NC3=C2N=CN=C3N)O)OP(=O)(O)O)C(C(=O)NCCC(=O)NCCSC=O)O

> <PUBCHEM_OPENEYE_ISO_SMILES>
CC(C)(COP(=O)(O)OP(=O)(O)OC[C@@H]1[C@H]([C@H]([C@@H](O1)N2C=NC3=C2N=CN=C3N)O)OP(=O)(O)O)C(C(=O)NCCC(=O)NCCSC=O)O

> <PUBCHEM_CACTVS_TPSA>
389

> <PUBCHEM_MONOISOTOPIC_WEIGHT>
795.110124

> <PUBCHEM_TOTAL_CHARGE>
0

> <PUBCHEM_HEAVY_ATOM_COUNT>
50

> <PUBCHEM_ATOM_DEF_STEREO_COUNT>
4

> <PUBCHEM_ATOM_UDEF_STEREO_COUNT>
1

> <PUBCHEM_BOND_DEF_STEREO_COUNT>
0

> <PUBCHEM_BOND_UDEF_STEREO_COUNT>
0

> <PUBCHEM_ISOTOPIC_ATOM_COUNT>
0

> <PUBCHEM_COMPONENT_COUNT>
1

> <PUBCHEM_CACTVS_TAUTO_COUNT>
12

> <PUBCHEM_COORDINATE_TYPE>
1
5
255

> <PUBCHEM_BONDANNOTATIONS>
32  22  6
22  34  8
22  35  8
23  35  8
23  37  8
24  34  8
24  44  8
25  42  8
25  44  8
31  33  6
34  37  8
37  42  8
38  59  3
29  6  5
30  7  5

$$$$

