47205250
  -OEChem-06241222582D

 31 32  0     0  0  0  0  0  0999 V2000
    8.7665   -0.8069    0.0000 S   0  0  0  0  0  0  0  0  0  0  0  0
   10.5266   -0.5282    0.0000 S   0  0  0  0  0  0  0  0  0  0  0  0
    2.8090    0.7798    0.0000 S   0  0  0  0  0  0  0  0  0  0  0  0
   10.8356    0.4229    0.0000 O   0  0  0  0  0  0  0  0  0  0  0  0
   10.2176   -1.4792    0.0000 O   0  0  0  0  0  0  0  0  0  0  0  0
    4.7770    1.4792    0.0000 O   0  0  0  0  0  0  0  0  0  0  0  0
    5.3122   -0.1681    0.0000 N   0  0  0  0  0  0  0  0  0  0  0  0
   11.4776   -0.8372    0.0000 N   0  0  0  0  0  0  0  0  0  0  0  0
    7.0064   -0.5282    0.0000 C   0  0  0  0  0  0  0  0  0  0  0  0
    7.9575   -0.2192    0.0000 C   0  0  0  0  0  0  0  0  0  0  0  0
    6.2633    0.1410    0.0000 C   0  0  0  0  0  0  0  0  0  0  0  0
    9.5755   -0.2192    0.0000 C   0  0  0  0  0  0  0  0  0  0  0  0
    8.2665    0.7319    0.0000 C   0  0  0  0  0  0  0  0  0  0  0  0
    9.2665    0.7319    0.0000 C   0  0  0  0  0  0  0  0  0  0  0  0
    4.5691    0.5011    0.0000 C   0  0  0  0  0  0  0  0  0  0  0  0
    3.6180    0.1921    0.0000 C   0  0  0  0  0  0  0  0  0  0  0  0
    3.3090   -0.7590    0.0000 C   0  0  0  0  0  0  0  0  0  0  0  0
    2.3090   -0.7590    0.0000 C   0  0  0  0  0  0  0  0  0  0  0  0
    2.0000    0.1921    0.0000 C   0  0  0  0  0  0  0  0  0  0  0  0
    6.5179   -0.9099    0.0000 H   0  0  0  0  0  0  0  0  0  0  0  0
    7.2975   -1.0756    0.0000 H   0  0  0  0  0  0  0  0  0  0  0  0
    6.7519    0.5227    0.0000 H   0  0  0  0  0  0  0  0  0  0  0  0
    5.9722    0.6884    0.0000 H   0  0  0  0  0  0  0  0  0  0  0  0
    7.9021    1.2335    0.0000 H   0  0  0  0  0  0  0  0  0  0  0  0
    9.6309    1.2335    0.0000 H   0  0  0  0  0  0  0  0  0  0  0  0
    5.1833   -0.7745    0.0000 H   0  0  0  0  0  0  0  0  0  0  0  0
   11.9384   -0.4223    0.0000 H   0  0  0  0  0  0  0  0  0  0  0  0
   11.6065   -1.4436    0.0000 H   0  0  0  0  0  0  0  0  0  0  0  0
    3.6734   -1.2606    0.0000 H   0  0  0  0  0  0  0  0  0  0  0  0
    1.9446   -1.2606    0.0000 H   0  0  0  0  0  0  0  0  0  0  0  0
    1.4103    0.3836    0.0000 H   0  0  0  0  0  0  0  0  0  0  0  0
  1 10  1  0  0  0  0
  1 12  1  0  0  0  0
  2  4  2  0  0  0  0
  2  5  2  0  0  0  0
  2  8  1  0  0  0  0
  2 12  1  0  0  0  0
  3 16  1  0  0  0  0
  3 19  1  0  0  0  0
  6 15  2  0  0  0  0
  7 11  1  0  0  0  0
  7 15  1  0  0  0  0
  7 26  1  0  0  0  0
  8 27  1  0  0  0  0
  8 28  1  0  0  0  0
  9 10  1  0  0  0  0
  9 11  1  0  0  0  0
  9 20  1  0  0  0  0
  9 21  1  0  0  0  0
 10 13  2  0  0  0  0
 11 22  1  0  0  0  0
 11 23  1  0  0  0  0
 12 14  2  0  0  0  0
 13 14  1  0  0  0  0
 13 24  1  0  0  0  0
 14 25  1  0  0  0  0
 15 16  1  0  0  0  0
 16 17  2  0  0  0  0
 17 18  1  0  0  0  0
 17 29  1  0  0  0  0
 18 19  2  0  0  0  0
 18 30  1  0  0  0  0
 19 31  1  0  0  0  0
M  END
> <PUBCHEM_COMPOUND_CID>
47205250

> <PUBCHEM_COMPOUND_CANONICALIZED>
1

> <PUBCHEM_CACTVS_COMPLEXITY>
421

> <PUBCHEM_CACTVS_HBOND_ACCEPTOR>
6

> <PUBCHEM_CACTVS_HBOND_DONOR>
2

> <PUBCHEM_CACTVS_ROTATABLE_BOND>
5

> <PUBCHEM_CACTVS_SUBSKEYS>
AAADccBzMABgAAAAAAAAAAAAAAAAASJAAAAAAAAAAAAAAAAB4AAAHgQQQAAACADF0ASwAYLAAAqMACFSEHDDAZAkCBBIiJkIBMgIIDKglRGEAQhglgCoiYcYAAAAAAAAAAAAAAAAAAAAAAAAAAAAAAAAAA==

> <PUBCHEM_IUPAC_OPENEYE_NAME>
N-[2-(5-sulfamoyl-2-thienyl)ethyl]thiophene-2-carboxamide

> <PUBCHEM_IUPAC_CAS_NAME>
N-[2-(5-sulfamoyl-2-thiophenyl)ethyl]-2-thiophenecarboxamide

> <PUBCHEM_IUPAC_NAME>
N-[2-(5-sulfamoylthiophen-2-yl)ethyl]thiophene-2-carboxamide

> <PUBCHEM_IUPAC_SYSTEMATIC_NAME>
N-[2-(5-sulfamoylthiophen-2-yl)ethyl]thiophene-2-carboxamide

> <PUBCHEM_IUPAC_TRADITIONAL_NAME>
N-[2-(5-sulfamoyl-2-thienyl)ethyl]thiophene-2-carboxamide

> <PUBCHEM_IUPAC_INCHI>
InChI=1S/C11H12N2O3S3/c12-19(15,16)10-4-3-8(18-10)5-6-13-11(14)9-2-1-7-17-9/h1-4,7H,5-6H2,(H,13,14)(H2,12,15,16)

> <PUBCHEM_IUPAC_INCHIKEY>
ATMKAESZVVGWRH-UHFFFAOYSA-N

> <PUBCHEM_XLOGP3_AA>
1.8

> <PUBCHEM_EXACT_MASS>
316.001005

> <PUBCHEM_MOLECULAR_FORMULA>
C11H12N2O3S3

> <PUBCHEM_MOLECULAR_WEIGHT>
316.41958

> <PUBCHEM_OPENEYE_CAN_SMILES>
C1=CSC(=C1)C(=O)NCCC2=CC=C(S2)S(=O)(=O)N

> <PUBCHEM_OPENEYE_ISO_SMILES>
C1=CSC(=C1)C(=O)NCCC2=CC=C(S2)S(=O)(=O)N

> <PUBCHEM_CACTVS_TPSA>
154

> <PUBCHEM_MONOISOTOPIC_WEIGHT>
316.001005

> <PUBCHEM_TOTAL_CHARGE>
0

> <PUBCHEM_HEAVY_ATOM_COUNT>
19

> <PUBCHEM_ATOM_DEF_STEREO_COUNT>
0

> <PUBCHEM_ATOM_UDEF_STEREO_COUNT>
0

> <PUBCHEM_BOND_DEF_STEREO_COUNT>
0

> <PUBCHEM_BOND_UDEF_STEREO_COUNT>
0

> <PUBCHEM_ISOTOPIC_ATOM_COUNT>
0

> <PUBCHEM_COMPONENT_COUNT>
1

> <PUBCHEM_CACTVS_TAUTO_COUNT>
2

> <PUBCHEM_COORDINATE_TYPE>
1
5
255

> <PUBCHEM_BONDANNOTATIONS>
1  10  8
1  12  8
10  13  8
12  14  8
13  14  8
16  17  8
17  18  8
18  19  8
3  16  8
3  19  8

$$$$

