   Color/Form

     * Whitish to light brown powder
     * Crystals from heptane

   from [1]HSDB

   Melting Point
        120-122 deg C
   from [2]HSDB

   Density/Specific Gravity
        1.87
   from [3]HSDB

   Octanol/Water Partition Coefficient
        log Kow = 4.51 /Estimated/
   from [4]HSDB

   Solubilities

     * Sol in ether, acetone, benzene, xylene, heavy aromatic naphtha
     * Greater than 1% in ethanol & kerosene
     * 25 g/100 ml acetone at 25 deg C, 38 g/100 ml benzene at 25 deg C,
       34 g/100 ml carbon tetrachloride at 25 deg C, 2 g/100 ml fuel oil
       at 25 deg C, 34 g/100 ml toluene at 25 deg C, 29 g/100 ml xylene at
       25 deg C.
     * It is soluble in water to about 0.1 mg/L at 20 deg C.

   from [5]HSDB

   Spectral Properties
        Intense mass spectral peaks: 103 m/z (100%), 311 m/z (48%), 313
   m/z (38%), 75 m/z (34%)
   from [6]HSDB

   Vapor Pressure
        2.92X10-6 mm Hg at 20 deg C
   from [7]HSDB

   Other Chemical/Physical Properties

     * Hexane/acetonitrile partition coefficient -0.03 (log)
     * 1-Octane/dimethyl formamide partition coefficient -0.69 (log)
     * 1-Octane/85% dimethylformamide:15% water partition coefficient 0.23
       (log)
     * Hexane/90% dimethyl sulfonoxide/10% water partition coefficient
       0.27 (log)
     * Heptane/90% ethanol:10% water partition coefficient 0.43 (log)
     * 1-Octane/80% acetone:20% water partition coefficient 1.19 (log)
     * Whitish to light-brown crystalline powder; mild chemical odor; loss
       of chlorine if heated above 210 deg C; tends to rearrange in the
       presence of acids, certain metal salts, and catalytically active
       carriers /Technical product, 95% or greater than 95% isobenzan/
     * Vapor pressure = 3X10-6 mm Hg at 20 deg C
     * Henry's Law constant = 5.9X10-8 atm-cu m/mol at 25 deg C
       /Estimated/
     * Hydroxyl radical reaction rate constant = 4.7X10-12 cu cm/molec-sec
       at 25 deg C /Estimated/

   from [8]HSDB

   Computed Properties
   Molecular Weight                  411.75146 [g/mol]
   Molecular Formula                 C[9]H[4]Cl[8]O
   XLogP3-AA                         4.6
   H-Bond Donor                      0
   H-Bond Acceptor                   1
   Rotatable Bond Count              0
   Exact Mass                        411.771136
   MonoIsotopic Mass                 407.777036
   Topological Polar Surface Area    9.2
   Heavy Atom Count                  18
   Formal Charge                     0
   Complexity                        426
   Isotope Atom Count                0
   Defined Atom Stereocenter Count   0
   Undefined Atom Stereocenter Count 6
   Defined Bond Stereocenter Count   0
   Undefined Bond Stereocenter Count 0
   Covalently-Bonded Unit Count      1

References

   1. http://toxnet.nlm.nih.gov/cgi-bin/sis/search/r?dbs+hsdb:@term+@rn+@rel+297-78-9
   2. http://toxnet.nlm.nih.gov/cgi-bin/sis/search/r?dbs+hsdb:@term+@rn+@rel+297-78-9
   3. http://toxnet.nlm.nih.gov/cgi-bin/sis/search/r?dbs+hsdb:@term+@rn+@rel+297-78-9
   4. http://toxnet.nlm.nih.gov/cgi-bin/sis/search/r?dbs+hsdb:@term+@rn+@rel+297-78-9
   5. http://toxnet.nlm.nih.gov/cgi-bin/sis/search/r?dbs+hsdb:@term+@rn+@rel+297-78-9
   6. http://toxnet.nlm.nih.gov/cgi-bin/sis/search/r?dbs+hsdb:@term+@rn+@rel+297-78-9
   7. http://toxnet.nlm.nih.gov/cgi-bin/sis/search/r?dbs+hsdb:@term+@rn+@rel+297-78-9
   8. http://toxnet.nlm.nih.gov/cgi-bin/sis/search/r?dbs+hsdb:@term+@rn+@rel+297-78-9
