   Color/Form
        Crystals from boiling ethanol
   from [1]HSDB

   Melting Point
        160-162 deg C
   from [2]HSDB

   Octanol/Water Partition Coefficient
        log Kow = -9.54 @ 25 deg C /Estimated/
   from [3]HSDB

   Solubilities
        In water, 70,000 mg/L @ 20 deg C
   from [4]HSDB

   Vapor Pressure
        8.3X10-16 mm Hg @ 25 deg C /Estimated/
   from [5]HSDB

   Other Chemical/Physical Properties

     * Henry's Law constant = 1.9X10-22 atm-cu m/mol @ 25 deg C
       /Estimated/
     * Hydroxyl radical reaction rate constant = 2.3X10-10 cu cm/molec-sec
       @ 25 deg C /Estimated/

   from [6]HSDB

   Computed Properties
   Molecular Weight                  229.25624 [g/mol]
   Molecular Formula                 C[8]H[11]N[3]O[3]S
   XLogP3                            -0.9
   H-Bond Donor                      2
   H-Bond Acceptor                   4
   Rotatable Bond Count              2
   Tautomer Count                    3
   Exact Mass                        229.052112
   MonoIsotopic Mass                 229.052112
   Topological Polar Surface Area    113
   Heavy Atom Count                  15
   Formal Charge                     0
   Complexity                        331
   Isotope Atom Count                0
   Defined Atom Stereocenter Count   2
   Undefined Atom Stereocenter Count 0
   Defined Bond Stereocenter Count   0
   Undefined Bond Stereocenter Count 0
   Covalently-Bonded Unit Count      1
   Feature 3D Acceptor Count         3
   Feature 3D Donor Count            3
   Feature 3D Ring Count             2
   Effective Rotor Count             3
   Conformer Sampling RMSD           0.6
   CID Conformer Count               [7]12

References

   1. http://toxnet.nlm.nih.gov/cgi-bin/sis/search/r?dbs+hsdb:@term+@rn+@rel+134678-17-4
   2. http://toxnet.nlm.nih.gov/cgi-bin/sis/search/r?dbs+hsdb:@term+@rn+@rel+134678-17-4
   3. http://toxnet.nlm.nih.gov/cgi-bin/sis/search/r?dbs+hsdb:@term+@rn+@rel+134678-17-4
   4. http://toxnet.nlm.nih.gov/cgi-bin/sis/search/r?dbs+hsdb:@term+@rn+@rel+134678-17-4
   5. http://toxnet.nlm.nih.gov/cgi-bin/sis/search/r?dbs+hsdb:@term+@rn+@rel+134678-17-4
   6. http://toxnet.nlm.nih.gov/cgi-bin/sis/search/r?dbs+hsdb:@term+@rn+@rel+134678-17-4
   7. http://pubchem.ncbi.nlm.nih.gov/vw3d/vw3d.cgi?cid=60825
