   Color/Form
        Viscous liquid
   from [1]HSDB

   Boiling Point
        99-100 deg C @ 22 mm Hg
   from [2]HSDB

   Density/Specific Gravity
        1.2879 @ 14 deg/15 deg C
   from [3]HSDB

   Solubilities
        Soluble in water
   from [4]HSDB

   Spectral Properties

     * IR: 21293 (Sadtler Research Laboratories IR prism collection)
     * 1H NMR: 9192 (Sadtler Research Laboratories Spectral Collection)

   from [5]HSDB

   Computed Properties
   Molecular Weight                  159.01112 [g/mol]
   Molecular Formula                 C[4]H[8]Cl[2]O[2]
   XLogP3-AA                         1.3
   H-Bond Donor                      0
   H-Bond Acceptor                   2
   Rotatable Bond Count              5
   Exact Mass                        157.990135
   MonoIsotopic Mass                 157.990135
   Topological Polar Surface Area    18.5
   Heavy Atom Count                  8
   Formal Charge                     0
   Complexity                        37
   Isotope Atom Count                0
   Defined Atom Stereocenter Count   0
   Undefined Atom Stereocenter Count 0
   Defined Bond Stereocenter Count   0
   Undefined Bond Stereocenter Count 0
   Covalently-Bonded Unit Count      1
   Feature 3D Acceptor Count         2
   Effective Rotor Count             5
   Conformer Sampling RMSD           0.6
   CID Conformer Count               [6]44

References

   1. http://toxnet.nlm.nih.gov/cgi-bin/sis/search/r?dbs+hsdb:@term+@rn+@rel+13483-18-6
   2. http://toxnet.nlm.nih.gov/cgi-bin/sis/search/r?dbs+hsdb:@term+@rn+@rel+13483-18-6
   3. http://toxnet.nlm.nih.gov/cgi-bin/sis/search/r?dbs+hsdb:@term+@rn+@rel+13483-18-6
   4. http://toxnet.nlm.nih.gov/cgi-bin/sis/search/r?dbs+hsdb:@term+@rn+@rel+13483-18-6
   5. http://toxnet.nlm.nih.gov/cgi-bin/sis/search/r?dbs+hsdb:@term+@rn+@rel+13483-18-6
   6. http://pubchem.ncbi.nlm.nih.gov/vw3d/vw3d.cgi?cid=61632
