   Chemical and Physical Properties References

   [1]USDA ARS - USDA chemical properties
   from [2]ChemIDplus

   Color/Form

     * Yellow crystals
     * YELLOW-ORANGE PRISMS

   from [3]HSDB

   Odor
        NO APPRECIABLE ODOR
   from [4]HSDB

   Boiling Point
        139-140 deg C @ 4.2 mm Hg
   from [5]HSDB

   Melting Point
        46-47 deg C
   from [6]HSDB

   Corrosivity
        Technical not corrosive
   from [7]HSDB

   Density/Specific Gravity
        1.36 @ 22 deg C
   from [8]HSDB

   Octanol/Water Partition Coefficient
        log Kow= 5.34
   from [9]HSDB

   Solubilities

     * Solubility @ 25 deg C: > 100 g/100 ml acetone; 81 g/100 ml xylene
     * SOLUBILITY @ 25 DEG C: 7 G/100 ML ETHANOL
     * Sol at 25 deg C: > 100 g/100 ml acetonitrile; > 100 g/100 ml
       choloroform; 82 g/100 ml dimethylformamide; 83 g/100 ml dioxane;
       5-6.7 g/100 ml hexane; 3-3.4 g/100 ml methanol; 44 g/100 ml methyl
       cellosolve; 88 g/100 ml methyl ethyl ketone
     * Slightly sol in water (0.0024 g/100 ml)
     * In water, 18.4 mg/l @ 25 deg C, pH= 5

   from [10]HSDB

   Spectral Properties
        Intense mass spectral peaks: 306 m/z (100%), 264 m/z (97%), 43 m/z
   (95%), 41 m/z (35%)
   from [11]HSDB

   Vapor Pressure
        4.58X10-5 mm Hg @ 25 deg C
   from [12]HSDB

   Other Chemical/Physical Properties
        Henry's Law constant= 1.03X10-4 atm-cu m/mol @ 20 deg C
   from [13]HSDB

   Computed Properties
   Molecular Weight                  335.27905 [g/mol]
   Molecular Formula                 C[13]H[16]F[3]N[3]O[4]
   XLogP3                            5.3
   H-Bond Donor                      0
   H-Bond Acceptor                   8
   Rotatable Bond Count              5
   Exact Mass                        335.109291
   MonoIsotopic Mass                 335.109291
   Topological Polar Surface Area    94.9
   Heavy Atom Count                  23
   Formal Charge                     0
   Complexity                        392
   Isotope Atom Count                0
   Defined Atom Stereocenter Count   0
   Undefined Atom Stereocenter Count 0
   Defined Bond Stereocenter Count   0
   Undefined Bond Stereocenter Count 0
   Covalently-Bonded Unit Count      1
   Feature 3D Acceptor Count         4
   Feature 3D Anion Count            2
   Feature 3D Cation Count           1
   Feature 3D Hydrophobe Count       2
   Feature 3D Ring Count             1
   Effective Rotor Count             8
   Conformer Sampling RMSD           0.8
   CID Conformer Count               [14]2

References

   1. http://www.ars.usda.gov/SP2UserFiles/ad_hoc/12755100DatabaseFiles/PesticidePropertiesDatabase/IndividualPesticideFiles/TRIFLURALIN.TXT
   2. http://chem.sis.nlm.nih.gov/chemidplus/
   3. http://toxnet.nlm.nih.gov/cgi-bin/sis/search/r?dbs+hsdb:@term+@rn+@rel+1582-09-8
   4. http://toxnet.nlm.nih.gov/cgi-bin/sis/search/r?dbs+hsdb:@term+@rn+@rel+1582-09-8
   5. http://toxnet.nlm.nih.gov/cgi-bin/sis/search/r?dbs+hsdb:@term+@rn+@rel+1582-09-8
   6. http://toxnet.nlm.nih.gov/cgi-bin/sis/search/r?dbs+hsdb:@term+@rn+@rel+1582-09-8
   7. http://toxnet.nlm.nih.gov/cgi-bin/sis/search/r?dbs+hsdb:@term+@rn+@rel+1582-09-8
   8. http://toxnet.nlm.nih.gov/cgi-bin/sis/search/r?dbs+hsdb:@term+@rn+@rel+1582-09-8
   9. http://toxnet.nlm.nih.gov/cgi-bin/sis/search/r?dbs+hsdb:@term+@rn+@rel+1582-09-8
  10. http://toxnet.nlm.nih.gov/cgi-bin/sis/search/r?dbs+hsdb:@term+@rn+@rel+1582-09-8
  11. http://toxnet.nlm.nih.gov/cgi-bin/sis/search/r?dbs+hsdb:@term+@rn+@rel+1582-09-8
  12. http://toxnet.nlm.nih.gov/cgi-bin/sis/search/r?dbs+hsdb:@term+@rn+@rel+1582-09-8
  13. http://toxnet.nlm.nih.gov/cgi-bin/sis/search/r?dbs+hsdb:@term+@rn+@rel+1582-09-8
  14. http://pubchem.ncbi.nlm.nih.gov/vw3d/vw3d.cgi?cid=5569
