21718008
  -OEChem-07051213102D

 44 45  0     1  0  0  0  0  0999 V2000
    3.1200    2.0173    0.0000 Br  0  0  0  0  0  0  0  0  0  0  0  0
    4.8684   -2.0173    0.0000 Cl  0  0  0  0  0  0  0  0  0  0  0  0
    2.6200   -1.8487    0.0000 O   0  0  0  0  0  0  0  0  0  0  0  0
    3.9860    0.5173    0.0000 C   0  0  2  0  0  0  0  0  0  0  0  0
    3.9860   -0.4827    0.0000 C   0  0  1  0  0  0  0  0  0  0  0  0
    3.1200   -0.9827    0.0000 C   0  0  1  0  0  0  0  0  0  0  0  0
    4.8800   -1.0174    0.0000 C   0  0  1  0  0  0  0  0  0  0  0  0
    4.8800    1.0520    0.0000 C   0  0  0  0  0  0  0  0  0  0  0  0
    5.7860   -0.5035    0.0000 C   0  0  2  0  0  0  0  0  0  0  0  0
    3.1200    1.0173    0.0000 C   0  0  2  0  0  0  0  0  0  0  0  0
    5.7860    0.5381    0.0000 C   0  0  0  0  0  0  0  0  0  0  0  0
    2.2540   -0.4827    0.0000 C   0  0  0  0  0  0  0  0  0  0  0  0
    2.2540    0.5173    0.0000 C   0  0  0  0  0  0  0  0  0  0  0  0
    3.9860    1.5173    0.0000 C   0  0  0  0  0  0  0  0  0  0  0  0
    6.6501   -1.0068    0.0000 C   0  0  0  0  0  0  0  0  0  0  0  0
    3.6200   -1.8487    0.0000 C   0  0  0  0  0  0  0  0  0  0  0  0
    7.5181   -0.5102    0.0000 C   0  0  0  0  0  0  0  0  0  0  0  0
    6.6463   -2.0068    0.0000 C   0  0  0  0  0  0  0  0  0  0  0  0
    3.9795   -1.3327    0.0000 H   0  0  0  0  0  0  0  0  0  0  0  0
    4.3389   -1.3201    0.0000 H   0  0  0  0  0  0  0  0  0  0  0  0
    5.2736    1.5310    0.0000 H   0  0  0  0  0  0  0  0  0  0  0  0
    4.4754    1.5218    0.0000 H   0  0  0  0  0  0  0  0  0  0  0  0
    6.3236   -0.1946    0.0000 H   0  0  0  0  0  0  0  0  0  0  0  0
    2.5831    1.3273    0.0000 H   0  0  0  0  0  0  0  0  0  0  0  0
    6.3969    0.4320    0.0000 H   0  0  0  0  0  0  0  0  0  0  0  0
    5.9951    1.1218    0.0000 H   0  0  0  0  0  0  0  0  0  0  0  0
    1.6434   -0.3750    0.0000 H   0  0  0  0  0  0  0  0  0  0  0  0
    2.0419   -1.0653    0.0000 H   0  0  0  0  0  0  0  0  0  0  0  0
    2.0419    1.0999    0.0000 H   0  0  0  0  0  0  0  0  0  0  0  0
    1.6434    0.4096    0.0000 H   0  0  0  0  0  0  0  0  0  0  0  0
    4.6060    1.5173    0.0000 H   0  0  0  0  0  0  0  0  0  0  0  0
    3.9860    2.1373    0.0000 H   0  0  0  0  0  0  0  0  0  0  0  0
    3.3660    1.5173    0.0000 H   0  0  0  0  0  0  0  0  0  0  0  0
    7.1859   -1.3189    0.0000 H   0  0  0  0  0  0  0  0  0  0  0  0
    3.0831   -2.1587    0.0000 H   0  0  0  0  0  0  0  0  0  0  0  0
    3.9300   -2.3857    0.0000 H   0  0  0  0  0  0  0  0  0  0  0  0
    4.1569   -1.5387    0.0000 H   0  0  0  0  0  0  0  0  0  0  0  0
    2.0000   -1.8487    0.0000 H   0  0  0  0  0  0  0  0  0  0  0  0
    7.8260   -1.0483    0.0000 H   0  0  0  0  0  0  0  0  0  0  0  0
    8.0562   -0.2023    0.0000 H   0  0  0  0  0  0  0  0  0  0  0  0
    7.2101    0.0279    0.0000 H   0  0  0  0  0  0  0  0  0  0  0  0
    6.0263   -2.0045    0.0000 H   0  0  0  0  0  0  0  0  0  0  0  0
    6.6439   -2.6268    0.0000 H   0  0  0  0  0  0  0  0  0  0  0  0
    7.2663   -2.0092    0.0000 H   0  0  0  0  0  0  0  0  0  0  0  0
 10  1  1  6  0  0  0
  7  2  1  1  0  0  0
  6  3  1  6  0  0  0
  3 38  1  0  0  0  0
  4  5  1  0  0  0  0
  4  8  1  0  0  0  0
  4 10  1  0  0  0  0
  4 14  1  6  0  0  0
  5  6  1  0  0  0  0
  5  7  1  0  0  0  0
  5 19  1  1  0  0  0
  6 12  1  0  0  0  0
  6 16  1  0  0  0  0
  7  9  1  0  0  0  0
  7 20  1  0  0  0  0
  8 11  1  0  0  0  0
  8 21  1  0  0  0  0
  8 22  1  0  0  0  0
  9 11  1  0  0  0  0
  9 15  1  6  0  0  0
  9 23  1  0  0  0  0
 10 13  1  0  0  0  0
 10 24  1  0  0  0  0
 11 25  1  0  0  0  0
 11 26  1  0  0  0  0
 12 13  1  0  0  0  0
 12 27  1  0  0  0  0
 12 28  1  0  0  0  0
 13 29  1  0  0  0  0
 13 30  1  0  0  0  0
 14 31  1  0  0  0  0
 14 32  1  0  0  0  0
 14 33  1  0  0  0  0
 15 17  1  0  0  0  0
 15 18  1  0  0  0  0
 15 34  1  0  0  0  0
 16 35  1  0  0  0  0
 16 36  1  0  0  0  0
 16 37  1  0  0  0  0
 17 39  1  0  0  0  0
 17 40  1  0  0  0  0
 17 41  1  0  0  0  0
 18 42  1  0  0  0  0
 18 43  1  0  0  0  0
 18 44  1  0  0  0  0
M  END
> <PUBCHEM_COMPOUND_CID>
21718008

> <PUBCHEM_COMPOUND_CANONICALIZED>
1

> <PUBCHEM_CACTVS_COMPLEXITY>
322

> <PUBCHEM_CACTVS_HBOND_ACCEPTOR>
1

> <PUBCHEM_CACTVS_HBOND_DONOR>
1

> <PUBCHEM_CACTVS_ROTATABLE_BOND>
1

> <PUBCHEM_CACTVS_SUBSKEYS>
AAADceBwIAAEEAAAAAAAAAAAAAAAAAAAAAAwYAAAAAAAAADAAAAAGgJACAABz0eAgEACAAAAAgAAAAAAAAAAAAAAAAAAAAAAAiAAAAIBAAAAQAAEAAAAAAGAwPAPgAAAAAAAAACEIAZgADMAAAAAAAAAAA==

> <PUBCHEM_IUPAC_OPENEYE_NAME>
(1R,4S,4aS,7R,8R,8aS)-4-bromo-8-chloro-7-isopropyl-1,4a-dimethyl-decalin-1-ol

> <PUBCHEM_IUPAC_CAS_NAME>
(1R,4S,4aS,7R,8R,8aS)-4-bromo-8-chloro-1,4a-dimethyl-7-propan-2-yl-2,3,4,5,6,7,8,8a-octahydronaphthalen-1-ol

> <PUBCHEM_IUPAC_NAME>
(1R,4S,4aS,7R,8R,8aS)-4-bromo-8-chloro-1,4a-dimethyl-7-propan-2-yl-2,3,4,5,6,7,8,8a-octahydronaphthalen-1-ol

> <PUBCHEM_IUPAC_SYSTEMATIC_NAME>
(1R,4S,4aS,7R,8R,8aS)-4-bromanyl-8-chloranyl-1,4a-dimethyl-7-propan-2-yl-2,3,4,5,6,7,8,8a-octahydronaphthalen-1-ol

> <PUBCHEM_IUPAC_TRADITIONAL_NAME>
(1R,4S,4aS,7R,8R,8aS)-4-bromo-8-chloro-7-isopropyl-1,4a-dimethyl-decalin-1-ol

> <PUBCHEM_IUPAC_INCHI>
InChI=1S/C15H26BrClO/c1-9(2)10-5-7-14(3)11(16)6-8-15(4,18)13(14)12(10)17/h9-13,18H,5-8H2,1-4H3/t10-,11+,12-,13+,14-,15-/m1/s1

> <PUBCHEM_IUPAC_INCHIKEY>
SEHJXVSWIARHOZ-ARSDKDGVSA-N

> <PUBCHEM_XLOGP3_AA>
4.7

> <PUBCHEM_EXACT_MASS>
336.085555

> <PUBCHEM_MOLECULAR_FORMULA>
C15H26BrClO

> <PUBCHEM_MOLECULAR_WEIGHT>
337.72334

> <PUBCHEM_OPENEYE_CAN_SMILES>
CC(C)C1CCC2(C(CCC(C2C1Cl)(C)O)Br)C

> <PUBCHEM_OPENEYE_ISO_SMILES>
CC(C)[C@H]1CC[C@@]2([C@H](CC[C@@]([C@H]2[C@@H]1Cl)(C)O)Br)C

> <PUBCHEM_CACTVS_TPSA>
20.2

> <PUBCHEM_MONOISOTOPIC_WEIGHT>
336.085555

> <PUBCHEM_TOTAL_CHARGE>
0

> <PUBCHEM_HEAVY_ATOM_COUNT>
18

> <PUBCHEM_ATOM_DEF_STEREO_COUNT>
6

> <PUBCHEM_ATOM_UDEF_STEREO_COUNT>
0

> <PUBCHEM_BOND_DEF_STEREO_COUNT>
0

> <PUBCHEM_BOND_UDEF_STEREO_COUNT>
0

> <PUBCHEM_ISOTOPIC_ATOM_COUNT>
0

> <PUBCHEM_COMPONENT_COUNT>
1

> <PUBCHEM_CACTVS_TAUTO_COUNT>
1

> <PUBCHEM_COORDINATE_TYPE>
1
5
255

> <PUBCHEM_BONDANNOTATIONS>
10  1  6
7  2  5
6  3  6
4  14  6
5  19  5
9  15  6

$$$$

