11954185
  -OEChem-07051213072D

 24 24  0     1  0  0  0  0  0999 V2000
    5.1350   -0.6550    0.0000 O   0  0  0  0  0  0  0  0  0  0  0  0
    2.5369    0.8450    0.0000 O   0  0  0  0  0  0  0  0  0  0  0  0
    2.5369   -1.1550    0.0000 O   0  0  0  0  0  0  0  0  0  0  0  0
    6.0010    0.8450    0.0000 O   0  0  0  0  0  0  0  0  0  0  0  0
    4.2690    1.8450    0.0000 N   0  0  0  0  0  0  0  0  0  0  0  0
    3.4030    0.3450    0.0000 C   0  0  1  0  0  0  0  0  0  0  0  0
    3.4030   -0.6550    0.0000 C   0  0  1  0  0  0  0  0  0  0  0  0
    4.2690    0.8450    0.0000 C   0  0  2  0  0  0  0  0  0  0  0  0
    4.2690   -1.1550    0.0000 C   0  0  1  0  0  0  0  0  0  0  0  0
    5.1350    0.3450    0.0000 C   0  0  3  0  0  0  0  0  0  0  0  0
    4.2690   -2.1550    0.0000 C   0  0  0  0  0  0  0  0  0  0  0  0
    3.4030    0.9650    0.0000 H   0  0  0  0  0  0  0  0  0  0  0  0
    3.4030   -1.2750    0.0000 H   0  0  0  0  0  0  0  0  0  0  0  0
    4.8059    1.1550    0.0000 H   0  0  0  0  0  0  0  0  0  0  0  0
    4.8059   -1.4650    0.0000 H   0  0  0  0  0  0  0  0  0  0  0  0
    5.1350    1.1950    0.0000 H   0  0  0  0  0  0  0  0  0  0  0  0
    3.6490   -2.1550    0.0000 H   0  0  0  0  0  0  0  0  0  0  0  0
    4.2690   -2.7750    0.0000 H   0  0  0  0  0  0  0  0  0  0  0  0
    4.8890   -2.1550    0.0000 H   0  0  0  0  0  0  0  0  0  0  0  0
    4.8059    2.1550    0.0000 H   0  0  0  0  0  0  0  0  0  0  0  0
    3.7320    2.1550    0.0000 H   0  0  0  0  0  0  0  0  0  0  0  0
    2.0000    0.5350    0.0000 H   0  0  0  0  0  0  0  0  0  0  0  0
    2.5369   -1.7750    0.0000 H   0  0  0  0  0  0  0  0  0  0  0  0
    6.5380    0.5350    0.0000 H   0  0  0  0  0  0  0  0  0  0  0  0
  1  9  1  0  0  0  0
  1 10  1  0  0  0  0
  6  2  1  6  0  0  0
  2 22  1  0  0  0  0
  7  3  1  1  0  0  0
  3 23  1  0  0  0  0
  4 10  1  0  0  0  0
  4 24  1  0  0  0  0
  8  5  1  1  0  0  0
  5 20  1  0  0  0  0
  5 21  1  0  0  0  0
  6  7  1  0  0  0  0
  6  8  1  0  0  0  0
  6 12  1  0  0  0  0
  7  9  1  0  0  0  0
  7 13  1  0  0  0  0
  8 10  1  0  0  0  0
  8 14  1  0  0  0  0
  9 11  1  6  0  0  0
  9 15  1  0  0  0  0
 10 16  1  0  0  0  0
 11 17  1  0  0  0  0
 11 18  1  0  0  0  0
 11 19  1  0  0  0  0
M  END
> <PUBCHEM_COMPOUND_CID>
11954185

> <PUBCHEM_COMPOUND_CANONICALIZED>
1

> <PUBCHEM_CACTVS_COMPLEXITY>
143

> <PUBCHEM_CACTVS_HBOND_ACCEPTOR>
5

> <PUBCHEM_CACTVS_HBOND_DONOR>
4

> <PUBCHEM_CACTVS_ROTATABLE_BOND>
0

> <PUBCHEM_CACTVS_SUBSKEYS>
AAADccBiOAAAAAAAAAAAAAAAAAAAAAAAAAAkAAAAAAAAAAAAAAAAHgAQCAAACDzxgAcCCABABgAAAAAAAAAAAAAAAAAAAIAAAAATEAIAgAADQAAHEAAHAAHwYAQAAAAAAAAAAAAAAAAAAAAAAAAAAAAAAA==

> <PUBCHEM_IUPAC_OPENEYE_NAME>
(3R,4R,5S,6R)-3-amino-6-methyl-tetrahydropyran-2,4,5-triol

> <PUBCHEM_IUPAC_CAS_NAME>
(3R,4R,5S,6R)-3-amino-6-methyloxane-2,4,5-triol

> <PUBCHEM_IUPAC_NAME>
(3R,4R,5S,6R)-3-amino-6-methyloxane-2,4,5-triol

> <PUBCHEM_IUPAC_SYSTEMATIC_NAME>
(3R,4R,5S,6R)-3-azanyl-6-methyl-oxane-2,4,5-triol

> <PUBCHEM_IUPAC_TRADITIONAL_NAME>
(3R,4R,5S,6R)-3-amino-6-methyl-tetrahydropyran-2,4,5-triol

> <PUBCHEM_IUPAC_INCHI>
InChI=1S/C6H13NO4/c1-2-4(8)5(9)3(7)6(10)11-2/h2-6,8-10H,7H2,1H3/t2-,3-,4-,5-,6?/m1/s1

> <PUBCHEM_IUPAC_INCHIKEY>
TVTGZVYLUHVBAJ-IVMDWMLBSA-N

> <PUBCHEM_XLOGP3_AA>
-2.3

> <PUBCHEM_EXACT_MASS>
163.084458

> <PUBCHEM_MOLECULAR_FORMULA>
C6H13NO4

> <PUBCHEM_MOLECULAR_WEIGHT>
163.17172

> <PUBCHEM_OPENEYE_CAN_SMILES>
CC1C(C(C(C(O1)O)N)O)O

> <PUBCHEM_OPENEYE_ISO_SMILES>
C[C@@H]1[C@H]([C@@H]([C@H](C(O1)O)N)O)O

> <PUBCHEM_CACTVS_TPSA>
95.9

> <PUBCHEM_MONOISOTOPIC_WEIGHT>
163.084458

> <PUBCHEM_TOTAL_CHARGE>
0

> <PUBCHEM_HEAVY_ATOM_COUNT>
11

> <PUBCHEM_ATOM_DEF_STEREO_COUNT>
4

> <PUBCHEM_ATOM_UDEF_STEREO_COUNT>
1

> <PUBCHEM_BOND_DEF_STEREO_COUNT>
0

> <PUBCHEM_BOND_UDEF_STEREO_COUNT>
0

> <PUBCHEM_ISOTOPIC_ATOM_COUNT>
0

> <PUBCHEM_COMPONENT_COUNT>
1

> <PUBCHEM_CACTVS_TAUTO_COUNT>
1

> <PUBCHEM_COORDINATE_TYPE>
1
5
255

> <PUBCHEM_BONDANNOTATIONS>
10  16  3
6  2  6
7  3  5
8  5  5
9  11  6

$$$$

