6692
  -OEChem-06261201272D

 39 41  0     1  0  0  0  0  0999 V2000
    2.0000    1.9400    0.0000 Cl  0  0  0  0  0  0  0  0  0  0  0  0
    7.1962    1.9400    0.0000 O   0  0  0  0  0  0  0  0  0  0  0  0
    5.4641    1.9400    0.0000 O   0  0  0  0  0  0  0  0  0  0  0  0
    7.1962   -1.0600    0.0000 O   0  0  0  0  0  0  0  0  0  0  0  0
    3.7320   -1.0600    0.0000 O   0  0  0  0  0  0  0  0  0  0  0  0
    5.4641   -0.0600    0.0000 C   0  0  3  0  0  0  0  0  0  0  0  0
    6.3301    0.4400    0.0000 C   0  0  0  0  0  0  0  0  0  0  0  0
    5.4641   -1.0600    0.0000 C   0  0  0  0  0  0  0  0  0  0  0  0
    4.5981    0.4400    0.0000 C   0  0  0  0  0  0  0  0  0  0  0  0
    7.1962   -0.0600    0.0000 C   0  0  0  0  0  0  0  0  0  0  0  0
    6.3301    1.4400    0.0000 C   0  0  0  0  0  0  0  0  0  0  0  0
    8.0622    0.4400    0.0000 C   0  0  0  0  0  0  0  0  0  0  0  0
    4.5981   -1.5600    0.0000 C   0  0  0  0  0  0  0  0  0  0  0  0
    4.5981    1.4400    0.0000 C   0  0  0  0  0  0  0  0  0  0  0  0
    3.7320   -0.0600    0.0000 C   0  0  0  0  0  0  0  0  0  0  0  0
    8.0622    1.4400    0.0000 C   0  0  0  0  0  0  0  0  0  0  0  0
    8.9561   -0.0947    0.0000 C   0  0  0  0  0  0  0  0  0  0  0  0
    3.7320    1.9400    0.0000 C   0  0  0  0  0  0  0  0  0  0  0  0
    2.8660    0.4400    0.0000 C   0  0  0  0  0  0  0  0  0  0  0  0
    4.5981   -2.5600    0.0000 C   0  0  0  0  0  0  0  0  0  0  0  0
    8.9561    1.9747    0.0000 C   0  0  0  0  0  0  0  0  0  0  0  0
    2.8660    1.4400    0.0000 C   0  0  0  0  0  0  0  0  0  0  0  0
    9.8622    0.4192    0.0000 C   0  0  0  0  0  0  0  0  0  0  0  0
    9.8622    1.4608    0.0000 C   0  0  0  0  0  0  0  0  0  0  0  0
    6.0010   -0.3700    0.0000 H   0  0  0  0  0  0  0  0  0  0  0  0
    5.6762   -1.6426    0.0000 H   0  0  0  0  0  0  0  0  0  0  0  0
    6.0747   -0.9523    0.0000 H   0  0  0  0  0  0  0  0  0  0  0  0
    5.1350    1.7500    0.0000 H   0  0  0  0  0  0  0  0  0  0  0  0
    3.7320   -0.6800    0.0000 H   0  0  0  0  0  0  0  0  0  0  0  0
    8.9490   -0.7146    0.0000 H   0  0  0  0  0  0  0  0  0  0  0  0
    3.7320    2.5600    0.0000 H   0  0  0  0  0  0  0  0  0  0  0  0
    2.3291    0.1300    0.0000 H   0  0  0  0  0  0  0  0  0  0  0  0
    3.9781   -2.5600    0.0000 H   0  0  0  0  0  0  0  0  0  0  0  0
    4.5981   -3.1800    0.0000 H   0  0  0  0  0  0  0  0  0  0  0  0
    5.2181   -2.5600    0.0000 H   0  0  0  0  0  0  0  0  0  0  0  0
    8.9490    2.5946    0.0000 H   0  0  0  0  0  0  0  0  0  0  0  0
   10.3979    0.1071    0.0000 H   0  0  0  0  0  0  0  0  0  0  0  0
   10.3979    1.7729    0.0000 H   0  0  0  0  0  0  0  0  0  0  0  0
    5.4641    2.5600    0.0000 H   0  0  0  0  0  0  0  0  0  0  0  0
  1 22  1  0  0  0  0
  2 11  1  0  0  0  0
  2 16  1  0  0  0  0
  3 11  1  0  0  0  0
  3 39  1  0  0  0  0
  4 10  2  0  0  0  0
  5 13  2  0  0  0  0
  6  7  1  0  0  0  0
  6  8  1  0  0  0  0
  6  9  1  0  0  0  0
  6 25  1  0  0  0  0
  7 10  1  0  0  0  0
  7 11  2  0  0  0  0
  8 13  1  0  0  0  0
  8 26  1  0  0  0  0
  8 27  1  0  0  0  0
  9 14  2  0  0  0  0
  9 15  1  0  0  0  0
 10 12  1  0  0  0  0
 12 16  1  0  0  0  0
 12 17  2  0  0  0  0
 13 20  1  0  0  0  0
 14 18  1  0  0  0  0
 14 28  1  0  0  0  0
 15 19  2  0  0  0  0
 15 29  1  0  0  0  0
 16 21  2  0  0  0  0
 17 23  1  0  0  0  0
 17 30  1  0  0  0  0
 18 22  2  0  0  0  0
 18 31  1  0  0  0  0
 19 22  1  0  0  0  0
 19 32  1  0  0  0  0
 20 33  1  0  0  0  0
 20 34  1  0  0  0  0
 20 35  1  0  0  0  0
 21 24  1  0  0  0  0
 21 36  1  0  0  0  0
 23 24  2  0  0  0  0
 23 37  1  0  0  0  0
 24 38  1  0  0  0  0
M  END
> <PUBCHEM_COMPOUND_CID>
6692

> <PUBCHEM_COMPOUND_CANONICALIZED>
1

> <PUBCHEM_CACTVS_COMPLEXITY>
534

> <PUBCHEM_CACTVS_HBOND_ACCEPTOR>
4

> <PUBCHEM_CACTVS_HBOND_DONOR>
1

> <PUBCHEM_CACTVS_ROTATABLE_BOND>
4

> <PUBCHEM_CACTVS_SUBSKEYS>
AAADccB4OAAEAAAAAAAAAAAAAAAAAAAAAAAwYIAAAAAAAACBQAAAGgIACAAADQaAmCAyDoAABgCIAqBSAAACCAAkJQAIiAEGCsgcJjaFNxqAMWAk4BEMqYeIyvCuhAAAAAAIAAAIAAAAABAAAAAAAAAAAA==

> <PUBCHEM_IUPAC_OPENEYE_NAME>
3-[1-(4-chlorophenyl)-3-oxo-butyl]-2-hydroxy-chromen-4-one

> <PUBCHEM_IUPAC_CAS_NAME>
3-[1-(4-chlorophenyl)-3-oxobutyl]-2-hydroxy-1-benzopyran-4-one

> <PUBCHEM_IUPAC_NAME>
3-[1-(4-chlorophenyl)-3-oxobutyl]-2-hydroxychromen-4-one

> <PUBCHEM_IUPAC_SYSTEMATIC_NAME>
3-[1-(4-chlorophenyl)-3-oxidanylidene-butyl]-2-oxidanyl-chromen-4-one

> <PUBCHEM_IUPAC_TRADITIONAL_NAME>
3-[1-(4-chlorophenyl)-3-keto-butyl]-2-hydroxy-chromone

> <PUBCHEM_IUPAC_INCHI>
InChI=1S/C19H15ClO4/c1-11(21)10-15(12-6-8-13(20)9-7-12)17-18(22)14-4-2-3-5-16(14)24-19(17)23/h2-9,15,23H,10H2,1H3

> <PUBCHEM_IUPAC_INCHIKEY>
HENZOLWOIZODCT-UHFFFAOYSA-N

> <PUBCHEM_XLOGP3>
3.3

> <PUBCHEM_EXACT_MASS>
342.065887

> <PUBCHEM_MOLECULAR_FORMULA>
C19H15ClO4

> <PUBCHEM_MOLECULAR_WEIGHT>
342.773

> <PUBCHEM_OPENEYE_CAN_SMILES>
CC(=O)CC(C1=CC=C(C=C1)Cl)C2=C(OC3=CC=CC=C3C2=O)O

> <PUBCHEM_OPENEYE_ISO_SMILES>
CC(=O)CC(C1=CC=C(C=C1)Cl)C2=C(OC3=CC=CC=C3C2=O)O

> <PUBCHEM_CACTVS_TPSA>
63.6

> <PUBCHEM_MONOISOTOPIC_WEIGHT>
342.065887

> <PUBCHEM_TOTAL_CHARGE>
0

> <PUBCHEM_HEAVY_ATOM_COUNT>
24

> <PUBCHEM_ATOM_DEF_STEREO_COUNT>
0

> <PUBCHEM_ATOM_UDEF_STEREO_COUNT>
1

> <PUBCHEM_BOND_DEF_STEREO_COUNT>
0

> <PUBCHEM_BOND_UDEF_STEREO_COUNT>
0

> <PUBCHEM_ISOTOPIC_ATOM_COUNT>
0

> <PUBCHEM_COMPONENT_COUNT>
1

> <PUBCHEM_CACTVS_TAUTO_COUNT>
9

> <PUBCHEM_COORDINATE_TYPE>
1
5
255

> <PUBCHEM_BONDANNOTATIONS>
10  12  8
12  16  8
12  17  8
14  18  8
15  19  8
16  21  8
17  23  8
18  22  8
19  22  8
2  11  8
2  16  8
21  24  8
23  24  8
6  8  3
7  10  8
7  11  8
9  14  8
9  15  8

$$$$

