   Color/Form

     * WHITE CRYSTALLINE SOLID
     * PALE YELLOWISH CRYSTALLINE POWDER
     * White to pale-yellow, crystalline solid.

   from [1]HSDB

   Odor
        Slight, phenolic odor.
   from [2]HSDB

   Taste
        TASTELESS
   from [3]HSDB

   Boiling Point
        265 DEG C
   from [4]HSDB

   Melting Point
        70 DEG C
   from [5]HSDB

   Density/Specific Gravity
        1.048 AT 20 DEG C/4 DEG C
   from [6]HSDB

   Solubilities

     * INSOL IN WATER; FREELY SOL IN TOLUENE; SOL IN METHANOL,
       ISOPROPANOL, METHYL ETHYL KETONE, ACETONE, CELLOSOLVE, BENZENE,
       MOST HYDROCARBON SOLVENTS, ETHANOL, PETROLEUM ETHER, LIQ PETROLATUM
       (WHITE OIL): 0.5% WT/WT; MORE SOL IN FOOD OILS & FATS THAN
       BUTYLATED HYDROXYANISOL; GOOD SOLUBILITY IN LINSEED OIL
     * Insol in aq alkali
     * Sol in naphtha; insol in 10% sodium hydroxide
     * 0.4 mg/l at 20 deg C /in water/

   from [7]HSDB

   Spectral Properties

     * INDEX OF REFRACTION: 1.4859 @ 75 DEG C/D.
     * MAX ABSORPTION (ISOPROPANOL): 227 NM (LOG E= 3.75); 277 NM (LOG E=
       3.34); 283 NM (LOG E= 3.34)
     * Intense mass spectral peaks: 205 m/z (100%), 220 m/z (27%), 57 m/z
       (27%), 206 m/z (15%)
     * IR: 2107 (Coblentz Society Spectral Collection)
     * NMR: 1563 (Atlas of Mass Spectral Data, John Wiley & Sons, New
       York)

   from [8]HSDB

   Vapor Density
        7.6 (AIR= 1)
   from [9]HSDB

   Viscosity
        3.47 centistokes at 0 deg C, 1.54 centistokes at 120 deg C
   from [10]HSDB

   Other Chemical/Physical Properties
        Bp: 136 deg C at 10 mm Hg
   from [11]HSDB

   Computed Properties
   Molecular Weight                  220.35046 [g/mol]
   Molecular Formula                 C[15]H[24]O
   XLogP3-AA                         5.3
   H-Bond Donor                      1
   H-Bond Acceptor                   1
   Rotatable Bond Count              2
   Tautomer Count                    2
   Exact Mass                        220.182715
   MonoIsotopic Mass                 220.182715
   Topological Polar Surface Area    20.2
   Heavy Atom Count                  16
   Formal Charge                     0
   Complexity                        207
   Isotope Atom Count                0
   Defined Atom Stereocenter Count   0
   Undefined Atom Stereocenter Count 0
   Defined Bond Stereocenter Count   0
   Undefined Bond Stereocenter Count 0
   Covalently-Bonded Unit Count      1
   Feature 3D Donor Count            1
   Feature 3D Hydrophobe Count       2
   Feature 3D Ring Count             1
   Effective Rotor Count             2
   Conformer Sampling RMSD           0.6
   CID Conformer Count               [12]2

References

   1. http://toxnet.nlm.nih.gov/cgi-bin/sis/search/r?dbs+hsdb:@term+@rn+@rel+128-37-0
   2. http://toxnet.nlm.nih.gov/cgi-bin/sis/search/r?dbs+hsdb:@term+@rn+@rel+128-37-0
   3. http://toxnet.nlm.nih.gov/cgi-bin/sis/search/r?dbs+hsdb:@term+@rn+@rel+128-37-0
   4. http://toxnet.nlm.nih.gov/cgi-bin/sis/search/r?dbs+hsdb:@term+@rn+@rel+128-37-0
   5. http://toxnet.nlm.nih.gov/cgi-bin/sis/search/r?dbs+hsdb:@term+@rn+@rel+128-37-0
   6. http://toxnet.nlm.nih.gov/cgi-bin/sis/search/r?dbs+hsdb:@term+@rn+@rel+128-37-0
   7. http://toxnet.nlm.nih.gov/cgi-bin/sis/search/r?dbs+hsdb:@term+@rn+@rel+128-37-0
   8. http://toxnet.nlm.nih.gov/cgi-bin/sis/search/r?dbs+hsdb:@term+@rn+@rel+128-37-0
   9. http://toxnet.nlm.nih.gov/cgi-bin/sis/search/r?dbs+hsdb:@term+@rn+@rel+128-37-0
  10. http://toxnet.nlm.nih.gov/cgi-bin/sis/search/r?dbs+hsdb:@term+@rn+@rel+128-37-0
  11. http://toxnet.nlm.nih.gov/cgi-bin/sis/search/r?dbs+hsdb:@term+@rn+@rel+128-37-0
  12. http://pubchem.ncbi.nlm.nih.gov/vw3d/vw3d.cgi?cid=31404
