442494
  -OEChem-07051212582D

 48 50  0     1  0  0  0  0  0999 V2000
    6.3580    2.2074    0.0000 N   0  0  0  0  0  0  0  0  0  0  0  0
    3.7320   -2.3273    0.0000 N   0  0  0  0  0  0  0  0  0  0  0  0
    5.4641    0.6727    0.0000 C   0  0  2  0  0  0  0  0  0  0  0  0
    4.5981    0.1727    0.0000 C   0  0  1  0  0  0  0  0  0  0  0  0
    5.4641    1.6727    0.0000 C   0  0  1  0  0  0  0  0  0  0  0  0
    3.7320    0.6727    0.0000 C   0  0  0  0  0  0  0  0  0  0  0  0
    3.7320    1.6727    0.0000 C   0  0  2  0  0  0  0  0  0  0  0  0
    4.5981    2.1727    0.0000 C   0  0  0  0  0  0  0  0  0  0  0  0
    6.3580    0.1380    0.0000 C   0  0  0  0  0  0  0  0  0  0  0  0
    4.5981   -0.8273    0.0000 C   0  0  0  0  0  0  0  0  0  0  0  0
    3.7320   -1.3273    0.0000 C   0  0  2  0  0  0  0  0  0  0  0  0
    7.2641    0.6519    0.0000 C   0  0  0  0  0  0  0  0  0  0  0  0
    7.2641    1.6935    0.0000 C   0  0  0  0  0  0  0  0  0  0  0  0
    2.8660    2.1727    0.0000 C   0  0  0  0  0  0  0  0  0  0  0  0
    2.8660   -0.8273    0.0000 C   0  0  0  0  0  0  0  0  0  0  0  0
    2.0000   -1.3273    0.0000 C   0  0  0  0  0  0  0  0  0  0  0  0
    2.8660   -2.8273    0.0000 C   0  0  0  0  0  0  0  0  0  0  0  0
    2.0000   -2.3273    0.0000 C   0  0  0  0  0  0  0  0  0  0  0  0
    5.4576   -0.1773    0.0000 H   0  0  0  0  0  0  0  0  0  0  0  0
    5.1350   -0.1373    0.0000 H   0  0  0  0  0  0  0  0  0  0  0  0
    5.4576    2.5227    0.0000 H   0  0  0  0  0  0  0  0  0  0  0  0
    3.1215    0.7804    0.0000 H   0  0  0  0  0  0  0  0  0  0  0  0
    3.5200    0.0901    0.0000 H   0  0  0  0  0  0  0  0  0  0  0  0
    3.1951    1.3627    0.0000 H   0  0  0  0  0  0  0  0  0  0  0  0
    4.9966    2.6476    0.0000 H   0  0  0  0  0  0  0  0  0  0  0  0
    4.1996    2.6476    0.0000 H   0  0  0  0  0  0  0  0  0  0  0  0
    5.9534   -0.3318    0.0000 H   0  0  0  0  0  0  0  0  0  0  0  0
    6.7517   -0.3410    0.0000 H   0  0  0  0  0  0  0  0  0  0  0  0
    4.8101   -1.4099    0.0000 H   0  0  0  0  0  0  0  0  0  0  0  0
    5.2087   -0.7196    0.0000 H   0  0  0  0  0  0  0  0  0  0  0  0
    4.2690   -1.6373    0.0000 H   0  0  0  0  0  0  0  0  0  0  0  0
    6.3509    2.8273    0.0000 H   0  0  0  0  0  0  0  0  0  0  0  0
    7.4732    0.0682    0.0000 H   0  0  0  0  0  0  0  0  0  0  0  0
    7.8750    0.7580    0.0000 H   0  0  0  0  0  0  0  0  0  0  0  0
    7.8750    1.5874    0.0000 H   0  0  0  0  0  0  0  0  0  0  0  0
    7.4732    2.2772    0.0000 H   0  0  0  0  0  0  0  0  0  0  0  0
    3.1760    2.7096    0.0000 H   0  0  0  0  0  0  0  0  0  0  0  0
    2.3291    2.4827    0.0000 H   0  0  0  0  0  0  0  0  0  0  0  0
    2.5560    1.6358    0.0000 H   0  0  0  0  0  0  0  0  0  0  0  0
    3.2646   -0.3524    0.0000 H   0  0  0  0  0  0  0  0  0  0  0  0
    2.4675   -0.3524    0.0000 H   0  0  0  0  0  0  0  0  0  0  0  0
    4.2690   -2.6373    0.0000 H   0  0  0  0  0  0  0  0  0  0  0  0
    1.7880   -0.7447    0.0000 H   0  0  0  0  0  0  0  0  0  0  0  0
    1.3894   -1.4350    0.0000 H   0  0  0  0  0  0  0  0  0  0  0  0
    2.4675   -3.3023    0.0000 H   0  0  0  0  0  0  0  0  0  0  0  0
    3.2646   -3.3023    0.0000 H   0  0  0  0  0  0  0  0  0  0  0  0
    1.3894   -2.2196    0.0000 H   0  0  0  0  0  0  0  0  0  0  0  0
    1.7880   -2.9099    0.0000 H   0  0  0  0  0  0  0  0  0  0  0  0
  1  5  1  0  0  0  0
  1 13  1  0  0  0  0
  1 32  1  0  0  0  0
  2 11  1  0  0  0  0
  2 17  1  0  0  0  0
  2 42  1  0  0  0  0
  3  4  1  0  0  0  0
  3  5  1  0  0  0  0
  3  9  1  0  0  0  0
  3 19  1  1  0  0  0
  4  6  1  0  0  0  0
  4 10  1  6  0  0  0
  4 20  1  0  0  0  0
  5  8  1  0  0  0  0
  5 21  1  6  0  0  0
  6  7  1  0  0  0  0
  6 22  1  0  0  0  0
  6 23  1  0  0  0  0
  7  8  1  0  0  0  0
  7 14  1  1  0  0  0
  7 24  1  0  0  0  0
  8 25  1  0  0  0  0
  8 26  1  0  0  0  0
  9 12  1  0  0  0  0
  9 27  1  0  0  0  0
  9 28  1  0  0  0  0
 11 10  1  1  0  0  0
 10 29  1  0  0  0  0
 10 30  1  0  0  0  0
 11 15  1  0  0  0  0
 11 31  1  0  0  0  0
 12 13  1  0  0  0  0
 12 33  1  0  0  0  0
 12 34  1  0  0  0  0
 13 35  1  0  0  0  0
 13 36  1  0  0  0  0
 14 37  1  0  0  0  0
 14 38  1  0  0  0  0
 14 39  1  0  0  0  0
 15 16  1  0  0  0  0
 15 40  1  0  0  0  0
 15 41  1  0  0  0  0
 16 18  1  0  0  0  0
 16 43  1  0  0  0  0
 16 44  1  0  0  0  0
 17 18  1  0  0  0  0
 17 45  1  0  0  0  0
 17 46  1  0  0  0  0
 18 47  1  0  0  0  0
 18 48  1  0  0  0  0
M  END
> <PUBCHEM_COMPOUND_CID>
442494

> <PUBCHEM_COMPOUND_CANONICALIZED>
1

> <PUBCHEM_CACTVS_COMPLEXITY>
266

> <PUBCHEM_CACTVS_HBOND_ACCEPTOR>
2

> <PUBCHEM_CACTVS_HBOND_DONOR>
2

> <PUBCHEM_CACTVS_ROTATABLE_BOND>
2

> <PUBCHEM_CACTVS_SUBSKEYS>
AAADceB7AAAAAAAAAAAAAAAAAAAAAAAAAAA8WIAAAAAAAACwAAAAHAAQAAAADSjBAAQCAALAAAAAAAAAAAAAAAAAAAAAAIAIAAAAAAIAgAAEAAAAEACAAAEQgMAOgAAAAAAAAACAAASAACQAAAAAAAAAAA==

> <PUBCHEM_IUPAC_OPENEYE_NAME>
(4aR,5S,7R,8aR)-7-methyl-5-[[(2S)-2-piperidyl]methyl]-1,2,3,4,4a,5,6,7,8,8a-decahydroquinoline

> <PUBCHEM_IUPAC_CAS_NAME>
(4aR,5S,7R,8aR)-7-methyl-5-[[(2S)-2-piperidinyl]methyl]-1,2,3,4,4a,5,6,7,8,8a-decahydroquinoline

> <PUBCHEM_IUPAC_NAME>
(4aR,5S,7R,8aR)-7-methyl-5-[[(2S)-piperidin-2-yl]methyl]-1,2,3,4,4a,5,6,7,8,8a-decahydroquinoline

> <PUBCHEM_IUPAC_SYSTEMATIC_NAME>
(4aR,5S,7R,8aR)-7-methyl-5-[[(2S)-piperidin-2-yl]methyl]-1,2,3,4,4a,5,6,7,8,8a-decahydroquinoline

> <PUBCHEM_IUPAC_TRADITIONAL_NAME>
(4aR,5S,7R,8aR)-7-methyl-5-[[(2S)-2-piperidyl]methyl]-1,2,3,4,4a,5,6,7,8,8a-decahydroquinoline

> <PUBCHEM_IUPAC_INCHI>
InChI=1S/C16H30N2/c1-12-9-13(11-14-5-2-3-7-17-14)15-6-4-8-18-16(15)10-12/h12-18H,2-11H2,1H3/t12-,13+,14+,15-,16-/m1/s1

> <PUBCHEM_IUPAC_INCHIKEY>
HLJWSLBSLJLQBA-LYYZXLFJSA-N

> <PUBCHEM_XLOGP3_AA>
3.2

> <PUBCHEM_EXACT_MASS>
250.240899

> <PUBCHEM_MOLECULAR_FORMULA>
C16H30N2

> <PUBCHEM_MOLECULAR_WEIGHT>
250.4228

> <PUBCHEM_OPENEYE_CAN_SMILES>
CC1CC(C2CCCNC2C1)CC3CCCCN3

> <PUBCHEM_OPENEYE_ISO_SMILES>
C[C@@H]1C[C@H]([C@H]2CCCN[C@@H]2C1)C[C@@H]3CCCCN3

> <PUBCHEM_CACTVS_TPSA>
24.1

> <PUBCHEM_MONOISOTOPIC_WEIGHT>
250.240899

> <PUBCHEM_TOTAL_CHARGE>
0

> <PUBCHEM_HEAVY_ATOM_COUNT>
18

> <PUBCHEM_ATOM_DEF_STEREO_COUNT>
5

> <PUBCHEM_ATOM_UDEF_STEREO_COUNT>
0

> <PUBCHEM_BOND_DEF_STEREO_COUNT>
0

> <PUBCHEM_BOND_UDEF_STEREO_COUNT>
0

> <PUBCHEM_ISOTOPIC_ATOM_COUNT>
0

> <PUBCHEM_COMPONENT_COUNT>
1

> <PUBCHEM_CACTVS_TAUTO_COUNT>
1

> <PUBCHEM_COORDINATE_TYPE>
1
5
255

> <PUBCHEM_BONDANNOTATIONS>
11  10  5
3  19  5
4  10  6
5  21  6
7  14  5

$$$$

