440092
  -OEChem-07051212482D

 17 17  0     1  0  0  0  0  0999 V2000
    4.8479    1.9814    0.0000 O   0  0  0  0  0  0  0  0  0  0  0  0
    2.0000   -0.0877    0.0000 O   0  0  0  0  0  0  0  0  0  0  0  0
    6.6791   -1.3749    0.0000 O   0  0  0  0  0  0  0  0  0  0  0  0
    4.9849   -1.7350    0.0000 O   0  0  0  0  0  0  0  0  0  0  0  0
    3.7601   -0.3665    0.0000 N   0  0  0  0  0  0  0  0  0  0  0  0
    3.2601    1.1723    0.0000 N   0  0  0  0  0  0  0  0  0  0  0  0
    4.5691    0.2213    0.0000 C   0  0  1  0  0  0  0  0  0  0  0  0
    5.5202   -0.0877    0.0000 C   0  0  0  0  0  0  0  0  0  0  0  0
    4.2601    1.1723    0.0000 C   0  0  0  0  0  0  0  0  0  0  0  0
    2.9511    0.2213    0.0000 C   0  0  0  0  0  0  0  0  0  0  0  0
    5.7281   -1.0659    0.0000 C   0  0  0  0  0  0  0  0  0  0  0  0
    4.6661   -0.3911    0.0000 H   0  0  0  0  0  0  0  0  0  0  0  0
    6.1398   -0.0661    0.0000 H   0  0  0  0  0  0  0  0  0  0  0  0
    5.6064    0.5262    0.0000 H   0  0  0  0  0  0  0  0  0  0  0  0
    3.7601   -0.9865    0.0000 H   0  0  0  0  0  0  0  0  0  0  0  0
    2.8956    1.6739    0.0000 H   0  0  0  0  0  0  0  0  0  0  0  0
    6.8080   -1.9814    0.0000 H   0  0  0  0  0  0  0  0  0  0  0  0
  1  9  2  0  0  0  0
  2 10  2  0  0  0  0
  3 11  1  0  0  0  0
  3 17  1  0  0  0  0
  4 11  2  0  0  0  0
  5  7  1  0  0  0  0
  5 10  1  0  0  0  0
  5 15  1  0  0  0  0
  6  9  1  0  0  0  0
  6 10  1  0  0  0  0
  6 16  1  0  0  0  0
  7  8  1  6  0  0  0
  7  9  1  0  0  0  0
  7 12  1  0  0  0  0
  8 11  1  0  0  0  0
  8 13  1  0  0  0  0
  8 14  1  0  0  0  0
M  END
> <PUBCHEM_COMPOUND_CID>
440092

> <PUBCHEM_COMPOUND_CANONICALIZED>
1

> <PUBCHEM_CACTVS_COMPLEXITY>
225

> <PUBCHEM_CACTVS_HBOND_ACCEPTOR>
4

> <PUBCHEM_CACTVS_HBOND_DONOR>
3

> <PUBCHEM_CACTVS_ROTATABLE_BOND>
2

> <PUBCHEM_CACTVS_SUBSKEYS>
AAADcYBjOAAAAAAAAAAAAAAAAAAAAWAAAAAAAAAAAAAAAAAAAAAAHgAQCAAACCjBgAQBCALAAgAIAAGQGAAAAAAAAAAAAIGIAACAQBgAgCAUQAAOFyIAAAAnAAAAAAAAAAAAAAAAAAAAAAAAAAAAAAAAAA==

> <PUBCHEM_IUPAC_OPENEYE_NAME>
2-[(4S)-2,5-dioxoimidazolidin-4-yl]acetic acid

> <PUBCHEM_IUPAC_CAS_NAME>
2-[(4S)-2,5-dioxo-4-imidazolidinyl]acetic acid

> <PUBCHEM_IUPAC_NAME>
2-[(4S)-2,5-dioxoimidazolidin-4-yl]acetic acid

> <PUBCHEM_IUPAC_SYSTEMATIC_NAME>
2-[(4S)-2,5-bis(oxidanylidene)imidazolidin-4-yl]ethanoic acid

> <PUBCHEM_IUPAC_TRADITIONAL_NAME>
2-[(4S)-2,5-diketoimidazolidin-4-yl]acetic acid

> <PUBCHEM_IUPAC_INCHI>
InChI=1S/C5H6N2O4/c8-3(9)1-2-4(10)7-5(11)6-2/h2H,1H2,(H,8,9)(H2,6,7,10,11)/t2-/m0/s1

> <PUBCHEM_IUPAC_INCHIKEY>
DQQLZADYSWBCOX-REOHCLBHSA-N

> <PUBCHEM_XLOGP3_AA>
-1.5

> <PUBCHEM_EXACT_MASS>
158.032757

> <PUBCHEM_MOLECULAR_FORMULA>
C5H6N2O4

> <PUBCHEM_MOLECULAR_WEIGHT>
158.11214

> <PUBCHEM_OPENEYE_CAN_SMILES>
C(C1C(=O)NC(=O)N1)C(=O)O

> <PUBCHEM_OPENEYE_ISO_SMILES>
C([C@H]1C(=O)NC(=O)N1)C(=O)O

> <PUBCHEM_CACTVS_TPSA>
95.5

> <PUBCHEM_MONOISOTOPIC_WEIGHT>
158.032757

> <PUBCHEM_TOTAL_CHARGE>
0

> <PUBCHEM_HEAVY_ATOM_COUNT>
11

> <PUBCHEM_ATOM_DEF_STEREO_COUNT>
1

> <PUBCHEM_ATOM_UDEF_STEREO_COUNT>
0

> <PUBCHEM_BOND_DEF_STEREO_COUNT>
0

> <PUBCHEM_BOND_UDEF_STEREO_COUNT>
0

> <PUBCHEM_ISOTOPIC_ATOM_COUNT>
0

> <PUBCHEM_COMPONENT_COUNT>
1

> <PUBCHEM_CACTVS_TAUTO_COUNT>
8

> <PUBCHEM_COORDINATE_TYPE>
1
5
255

> <PUBCHEM_BONDANNOTATIONS>
7  8  6

$$$$

