   Color/Form

     * CRYSTALS FROM METHANOL
     * COLORLESS CRYSTALS

   from [1]HSDB

   Odor
        ESSENTIALLY ODORLESS
   from [2]HSDB

   Melting Point
        155-156 DEG C
   from [3]HSDB

   Heat of Vaporization
        AVG MOLAR VAPORIZATION HEAT IS CALCULATED TO BE 25 KCAL/MOL
   from [4]HSDB

   Octanol/Water Partition Coefficient
        log Kow = 4.40 @ 25 deg C
   from [5]HSDB

   Solubilities

     * LESS THAN 5% IN WATER; GREATER THAN 5% IN CYCLOHEXANONE, ACETONE,
       XYLENE
     * Solubility (g/kg solvent @ 25 deg C): 120 g in dioxan, 250 g in
       benzene, 170 g in toluene, 140 g in xylene, 100 g in acetone, 70 g
       in carbon tetrachloride.
     * 7% @ 25 DEG C IN CARBON TETRACHLORIDE
     * water solubility = 0.5 mg/l @ 25 deg C

   from [6]HSDB

   Spectral Properties
        Intense mass spectral peaks: 301 m/z (100%), 299 m/z (80%), 303
   m/z (48%), 332 m/z (32%)
   from [7]HSDB

   Vapor Pressure
        2.5X10-6 mm Hg at 25 deg C
   from [8]HSDB

   Other Chemical/Physical Properties

     * DECOMPOSES @ 360-370 DEG C
     * SPECIFIC GRAVITY, C: 1.70 /DATHAL W-75/
     * VAPOR PRESSURES WERE IN RANGE OF 0.0007-1.478 TORR @ 75-160 DEG C
     * Stable to heat and UV light

   from [9]HSDB

   Computed Properties
   Molecular Weight                  331.96424 [g/mol]
   Molecular Formula                 C[10]H[6]Cl[4]O[4]
   XLogP3                            4.4
   H-Bond Donor                      0
   H-Bond Acceptor                   4
   Rotatable Bond Count              4
   Exact Mass                        331.899069
   MonoIsotopic Mass                 329.902019
   Topological Polar Surface Area    52.6
   Heavy Atom Count                  18
   Formal Charge                     0
   Complexity                        290
   Isotope Atom Count                0
   Defined Atom Stereocenter Count   0
   Undefined Atom Stereocenter Count 0
   Defined Bond Stereocenter Count   0
   Undefined Bond Stereocenter Count 0
   Covalently-Bonded Unit Count      1
   Feature 3D Acceptor Count         2
   Feature 3D Ring Count             1
   Effective Rotor Count             4
   Conformer Sampling RMSD           0.6
   CID Conformer Count               [10]2

References

   1. http://toxnet.nlm.nih.gov/cgi-bin/sis/search/r?dbs+hsdb:@term+@rn+@rel+1861-32-1
   2. http://toxnet.nlm.nih.gov/cgi-bin/sis/search/r?dbs+hsdb:@term+@rn+@rel+1861-32-1
   3. http://toxnet.nlm.nih.gov/cgi-bin/sis/search/r?dbs+hsdb:@term+@rn+@rel+1861-32-1
   4. http://toxnet.nlm.nih.gov/cgi-bin/sis/search/r?dbs+hsdb:@term+@rn+@rel+1861-32-1
   5. http://toxnet.nlm.nih.gov/cgi-bin/sis/search/r?dbs+hsdb:@term+@rn+@rel+1861-32-1
   6. http://toxnet.nlm.nih.gov/cgi-bin/sis/search/r?dbs+hsdb:@term+@rn+@rel+1861-32-1
   7. http://toxnet.nlm.nih.gov/cgi-bin/sis/search/r?dbs+hsdb:@term+@rn+@rel+1861-32-1
   8. http://toxnet.nlm.nih.gov/cgi-bin/sis/search/r?dbs+hsdb:@term+@rn+@rel+1861-32-1
   9. http://toxnet.nlm.nih.gov/cgi-bin/sis/search/r?dbs+hsdb:@term+@rn+@rel+1861-32-1
  10. http://pubchem.ncbi.nlm.nih.gov/vw3d/vw3d.cgi?cid=2943
