   Color/Form
        Colorless crystals
   from [1]HSDB

   Odor
        ODORLESS
   from [2]HSDB

   Boiling Point
        304 deg C (with decomp)
   from [3]HSDB

   Melting Point
        99.5 deg C
   from [4]HSDB

   Corrosivity
        Non corrosive at room temp
   from [5]HSDB

   Density/Specific Gravity
        1.744 at 25 deg C/4 deg C
   from [6]HSDB

   Octanol/Water Partition Coefficient
        log Kow = 4.38
   from [7]HSDB

   Solubilities

     * READILY SOL IN CARBON DISULFIDE
     * Soluble in ethanol, benzene, and chloroform
     * In ethanol about 40 mg/L (25 deg C)
     * /Tecnazene/ is readily soluble in ... ketones, and aromatic and
       chlorinated hydrocarbon compounds. It is practically insoluble in
       water (0.44 mg/l at 20 deg C) ...
     * In water, 2.09 mg/L at 25 deg C

   from [8]HSDB

   Spectral Properties

     * IR: 20450 (Sadtler Research Laboratories Prism Collection)
     * UV: 7878 (Sadtler Research Laboratories Spectral Collection)
     * Raman: 1148 (Sadtler Research Laboratories spectral collection)
     * NMR: 2341 (Sadtler Research Laboratories Spectral Collection)

   from [9]HSDB

   Vapor Pressure
        0.0018 mm Hg at 15 deg C (est)
   from [10]HSDB

   Other Chemical/Physical Properties

     * Very stable to acids and bases. Stable to heat up to almost 300 deg
       C. In solution, decomposes slowly when exposed to UV radiation.
     * Henry's Law constant = 2.34X10-5 atm-cu m/mole at 25 deg C (est)
     * Hydroxyl radical reaction rate constant = 7.20X10-15 cu
       cm/molec-sec at 25 deg C (est)

   from [11]HSDB

   Computed Properties
   Molecular Weight                  260.88964 [g/mol]
   Molecular Formula                 C[6]HCl[4]NO[2]
   XLogP3                            3.9
   H-Bond Donor                      0
   H-Bond Acceptor                   2
   Rotatable Bond Count              0
   Exact Mass                        260.873189
   MonoIsotopic Mass                 258.876139
   Topological Polar Surface Area    45.8
   Heavy Atom Count                  13
   Formal Charge                     0
   Complexity                        195
   Isotope Atom Count                0
   Defined Atom Stereocenter Count   0
   Undefined Atom Stereocenter Count 0
   Defined Bond Stereocenter Count   0
   Undefined Bond Stereocenter Count 0
   Covalently-Bonded Unit Count      1
   Feature 3D Acceptor Count         2
   Feature 3D Anion Count            1
   Feature 3D Ring Count             1
   Effective Rotor Count             1
   Conformer Sampling RMSD           0.4
   CID Conformer Count               [12]1

References

   1. http://toxnet.nlm.nih.gov/cgi-bin/sis/search/r?dbs+hsdb:@term+@rn+@rel+117-18-0
   2. http://toxnet.nlm.nih.gov/cgi-bin/sis/search/r?dbs+hsdb:@term+@rn+@rel+117-18-0
   3. http://toxnet.nlm.nih.gov/cgi-bin/sis/search/r?dbs+hsdb:@term+@rn+@rel+117-18-0
   4. http://toxnet.nlm.nih.gov/cgi-bin/sis/search/r?dbs+hsdb:@term+@rn+@rel+117-18-0
   5. http://toxnet.nlm.nih.gov/cgi-bin/sis/search/r?dbs+hsdb:@term+@rn+@rel+117-18-0
   6. http://toxnet.nlm.nih.gov/cgi-bin/sis/search/r?dbs+hsdb:@term+@rn+@rel+117-18-0
   7. http://toxnet.nlm.nih.gov/cgi-bin/sis/search/r?dbs+hsdb:@term+@rn+@rel+117-18-0
   8. http://toxnet.nlm.nih.gov/cgi-bin/sis/search/r?dbs+hsdb:@term+@rn+@rel+117-18-0
   9. http://toxnet.nlm.nih.gov/cgi-bin/sis/search/r?dbs+hsdb:@term+@rn+@rel+117-18-0
  10. http://toxnet.nlm.nih.gov/cgi-bin/sis/search/r?dbs+hsdb:@term+@rn+@rel+117-18-0
  11. http://toxnet.nlm.nih.gov/cgi-bin/sis/search/r?dbs+hsdb:@term+@rn+@rel+117-18-0
  12. http://pubchem.ncbi.nlm.nih.gov/vw3d/vw3d.cgi?cid=8330
