   Color/Form

     * Colorless crystals; (tech., brown solid)
     * Brown solid
     * Light brown solid from n-pentane.
     * White crystals when pure

   from [1]HSDB

   Melting Point
        75 deg C
   from [2]HSDB

   Octanol/Water Partition Coefficient
        log Kow= 3.36
   from [3]HSDB

   Solubilities

     * /Solubility/ in acetone, ethanol >1000, xylene 505, kerosene 62,
       hexane 15 (all in g/l, 20 deg C); miscible with acetone, ethanol,
       methyl isobutyl ketone.
     * Acetone: >100; ethanol: >100; n-hexane: 1.5; 4-methylpentan-2- one:
       soluble; kerossene: 6.2; xylene: 50.5 g/100 ml @ 20 deg C
     * In water, 73 mg/l @ 20 deg C

   from [4]HSDB

   Vapor Density
        5.8X10-5 mg/l @ 25 deg C
   from [5]HSDB

   Vapor Pressure
        1.72X10-7 mm Hg @ 25 deg C
   from [6]HSDB

   Other Chemical/Physical Properties

     * No decomposition occurs over 16 h at 100 deg C. Decomposed by
       sunlight. Stable to hydrolysis between pH 4 and 10 at 40 deg C.
     * Melting point: 74.8-75.5 deg C when pure (technical is 68-70 deg C)

   from [7]HSDB

   Computed Properties
   Molecular Weight                  271.35414 [g/mol]
   Molecular Formula                 C[17]H[21]NO[2]
   XLogP3                            3.4
   H-Bond Donor                      0
   H-Bond Acceptor                   2
   Rotatable Bond Count              5
   Exact Mass                        271.157229
   MonoIsotopic Mass                 271.157229
   Topological Polar Surface Area    29.5
   Heavy Atom Count                  20
   Formal Charge                     0
   Complexity                        314
   Isotope Atom Count                0
   Defined Atom Stereocenter Count   0
   Undefined Atom Stereocenter Count 1
   Defined Bond Stereocenter Count   0
   Undefined Bond Stereocenter Count 0
   Covalently-Bonded Unit Count      1
   Feature 3D Acceptor Count         2
   Feature 3D Ring Count             2
   Effective Rotor Count             6
   Conformer Sampling RMSD           0.8
   CID Conformer Count               [8]85

References

   1. http://toxnet.nlm.nih.gov/cgi-bin/sis/search/r?dbs+hsdb:@term+@rn+@rel+15299-99-7
   2. http://toxnet.nlm.nih.gov/cgi-bin/sis/search/r?dbs+hsdb:@term+@rn+@rel+15299-99-7
   3. http://toxnet.nlm.nih.gov/cgi-bin/sis/search/r?dbs+hsdb:@term+@rn+@rel+15299-99-7
   4. http://toxnet.nlm.nih.gov/cgi-bin/sis/search/r?dbs+hsdb:@term+@rn+@rel+15299-99-7
   5. http://toxnet.nlm.nih.gov/cgi-bin/sis/search/r?dbs+hsdb:@term+@rn+@rel+15299-99-7
   6. http://toxnet.nlm.nih.gov/cgi-bin/sis/search/r?dbs+hsdb:@term+@rn+@rel+15299-99-7
   7. http://toxnet.nlm.nih.gov/cgi-bin/sis/search/r?dbs+hsdb:@term+@rn+@rel+15299-99-7
   8. http://pubchem.ncbi.nlm.nih.gov/vw3d/vw3d.cgi?cid=27189
