   Color/Form
        Colorless gas
   from [1]HSDB

   Odor
        Typical sulfide odor except when pure
   from [2]HSDB

   Boiling Point
        -50 deg C at 760 mm Hg
   from [3]HSDB

   Melting Point
        -138.8 deg C
   from [4]HSDB

   Corrosivity
        Attacks metals in the presence of moisture and is involved in
   atmospheric sulfur corrosion
   from [5]HSDB

   Critical Temperature and Pressure
        Critical temperature: 105 deg C; critical pressure: 5,946 kPa
   from [6]HSDB

   Density/Specific Gravity
        1.028 at 17 deg C/4 deg C
   from [7]HSDB

   Heat of Vaporization
        18.57 kJ/mol at 222.87 K
   from [8]HSDB

   Octanol/Water Partition Coefficient
        log Kow = -1.33 (est)
   from [9]HSDB

   Solubilities

     * Soluble in alcohol; very soluble in potassium hydroxide
     * SOL IN TOLUENE; VERY SOL IN CARBON DISULFIDE
     * In water, 1,220 mg/L at 25 deg C

   from [10]HSDB

   Spectral Properties

     * IR: 83 (Documentation of Molecular Spectroscopy Collection)
     * MASS: 19006 (NIST/EPA/MSDC Mass Spectral Database, 1990 version)

   from [11]HSDB

   Vapor Density
        2.1 (Air= 1)
   from [12]HSDB

   Vapor Pressure
        9412 mm Hg at 25 deg C (est)
   from [13]HSDB

   Other Chemical/Physical Properties

     * Burns with bluish flame
     * Henry's Law constant = 0.61 atm-cu m/mol at 25 deg C (est)
     * Hydroxyl radical reaction rate constant = 2X10-15 cu cm/molec-sec
       at 25 deg C (est)

   from [14]HSDB

   Computed Properties
   Molecular Weight                  60.0751 [g/mol]
   Molecular Formula                 COS
   XLogP3-AA                         1.5
   H-Bond Donor                      0
   H-Bond Acceptor                   2
   Rotatable Bond Count              0
   Exact Mass                        59.966986
   MonoIsotopic Mass                 59.966986
   Topological Polar Surface Area    49.2
   Heavy Atom Count                  3
   Formal Charge                     0
   Complexity                        27.8
   Isotope Atom Count                0
   Defined Atom Stereocenter Count   0
   Undefined Atom Stereocenter Count 0
   Defined Bond Stereocenter Count   0
   Undefined Bond Stereocenter Count 0
   Covalently-Bonded Unit Count      1
   Feature 3D Acceptor Count         1
   Effective Rotor Count             0
   Conformer Sampling RMSD           0.4
   CID Conformer Count               [15]1

References

   1. http://toxnet.nlm.nih.gov/cgi-bin/sis/search/r?dbs+hsdb:@term+@rn+@rel+463-58-1
   2. http://toxnet.nlm.nih.gov/cgi-bin/sis/search/r?dbs+hsdb:@term+@rn+@rel+463-58-1
   3. http://toxnet.nlm.nih.gov/cgi-bin/sis/search/r?dbs+hsdb:@term+@rn+@rel+463-58-1
   4. http://toxnet.nlm.nih.gov/cgi-bin/sis/search/r?dbs+hsdb:@term+@rn+@rel+463-58-1
   5. http://toxnet.nlm.nih.gov/cgi-bin/sis/search/r?dbs+hsdb:@term+@rn+@rel+463-58-1
   6. http://toxnet.nlm.nih.gov/cgi-bin/sis/search/r?dbs+hsdb:@term+@rn+@rel+463-58-1
   7. http://toxnet.nlm.nih.gov/cgi-bin/sis/search/r?dbs+hsdb:@term+@rn+@rel+463-58-1
   8. http://toxnet.nlm.nih.gov/cgi-bin/sis/search/r?dbs+hsdb:@term+@rn+@rel+463-58-1
   9. http://toxnet.nlm.nih.gov/cgi-bin/sis/search/r?dbs+hsdb:@term+@rn+@rel+463-58-1
  10. http://toxnet.nlm.nih.gov/cgi-bin/sis/search/r?dbs+hsdb:@term+@rn+@rel+463-58-1
  11. http://toxnet.nlm.nih.gov/cgi-bin/sis/search/r?dbs+hsdb:@term+@rn+@rel+463-58-1
  12. http://toxnet.nlm.nih.gov/cgi-bin/sis/search/r?dbs+hsdb:@term+@rn+@rel+463-58-1
  13. http://toxnet.nlm.nih.gov/cgi-bin/sis/search/r?dbs+hsdb:@term+@rn+@rel+463-58-1
  14. http://toxnet.nlm.nih.gov/cgi-bin/sis/search/r?dbs+hsdb:@term+@rn+@rel+463-58-1
  15. http://pubchem.ncbi.nlm.nih.gov/vw3d/vw3d.cgi?cid=10039
