5030
  -OEChem-06261200282D

 93 92  0     1  0  0  0  0  0999 V2000
    6.3301   -0.5000    0.0000 P   0  0  3  0  0  0  0  0  0  0  0  0
    5.4641   -1.0000    0.0000 O   0  0  0  0  0  0  0  0  0  0  0  0
    7.1962    0.0000    0.0000 O   0  0  0  0  0  0  0  0  0  0  0  0
    8.9282    1.0000    0.0000 O   0  0  0  0  0  0  0  0  0  0  0  0
   11.5263   -1.5000    0.0000 O   0  0  0  0  0  0  0  0  0  0  0  0
    5.8301    0.3660    0.0000 O   0  5  0  0  0  0  0  0  0  0  0  0
    6.8301   -1.3660    0.0000 O   0  0  0  0  0  0  0  0  0  0  0  0
    2.8660   -0.5000    0.0000 N   0  3  0  0  0  0  0  0  0  0  0  0
   10.6603    0.0000    0.0000 N   0  0  0  0  0  0  0  0  0  0  0  0
   18.4545   -0.5000    0.0000 C   0  0  0  0  0  0  0  0  0  0  0  0
   19.3205    0.0000    0.0000 C   0  0  0  0  0  0  0  0  0  0  0  0
   17.5885    0.0000    0.0000 C   0  0  0  0  0  0  0  0  0  0  0  0
   20.1865   -0.5000    0.0000 C   0  0  0  0  0  0  0  0  0  0  0  0
   16.7224   -0.5000    0.0000 C   0  0  0  0  0  0  0  0  0  0  0  0
   21.0526    0.0000    0.0000 C   0  0  0  0  0  0  0  0  0  0  0  0
   15.8564    0.0000    0.0000 C   0  0  0  0  0  0  0  0  0  0  0  0
   21.9186   -0.5000    0.0000 C   0  0  0  0  0  0  0  0  0  0  0  0
   14.9904   -0.5000    0.0000 C   0  0  0  0  0  0  0  0  0  0  0  0
   22.7846    0.0000    0.0000 C   0  0  0  0  0  0  0  0  0  0  0  0
   14.1244    0.0000    0.0000 C   0  0  0  0  0  0  0  0  0  0  0  0
    3.7320   -1.0000    0.0000 C   0  0  0  0  0  0  0  0  0  0  0  0
   23.6506   -0.5000    0.0000 C   0  0  0  0  0  0  0  0  0  0  0  0
   13.2583   -0.5000    0.0000 C   0  0  0  0  0  0  0  0  0  0  0  0
   24.5167    0.0000    0.0000 C   0  0  0  0  0  0  0  0  0  0  0  0
    2.0000    0.0000    0.0000 C   0  0  0  0  0  0  0  0  0  0  0  0
    2.3660   -1.3660    0.0000 C   0  0  0  0  0  0  0  0  0  0  0  0
    3.3660    0.3660    0.0000 C   0  0  0  0  0  0  0  0  0  0  0  0
    4.5981   -0.5000    0.0000 C   0  0  0  0  0  0  0  0  0  0  0  0
   12.3923    0.0000    0.0000 C   0  0  0  0  0  0  0  0  0  0  0  0
   25.3827   -0.5000    0.0000 C   0  0  0  0  0  0  0  0  0  0  0  0
   11.5263   -0.5000    0.0000 C   0  0  0  0  0  0  0  0  0  0  0  0
    8.9282    0.0000    0.0000 C   0  0  3  0  0  0  0  0  0  0  0  0
   26.2487    0.0000    0.0000 C   0  0  0  0  0  0  0  0  0  0  0  0
    9.7942   -0.5000    0.0000 C   0  0  0  0  0  0  0  0  0  0  0  0
    8.0622   -0.5000    0.0000 C   0  0  0  0  0  0  0  0  0  0  0  0
    9.7942    1.5000    0.0000 C   0  0  0  0  0  0  0  0  0  0  0  0
   18.0560   -0.9749    0.0000 H   0  0  0  0  0  0  0  0  0  0  0  0
   18.8530   -0.9749    0.0000 H   0  0  0  0  0  0  0  0  0  0  0  0
   19.7190    0.4749    0.0000 H   0  0  0  0  0  0  0  0  0  0  0  0
   18.9220    0.4749    0.0000 H   0  0  0  0  0  0  0  0  0  0  0  0
   17.9870    0.4749    0.0000 H   0  0  0  0  0  0  0  0  0  0  0  0
   17.1899    0.4749    0.0000 H   0  0  0  0  0  0  0  0  0  0  0  0
   19.7880   -0.9749    0.0000 H   0  0  0  0  0  0  0  0  0  0  0  0
   20.5851   -0.9749    0.0000 H   0  0  0  0  0  0  0  0  0  0  0  0
   16.3239   -0.9749    0.0000 H   0  0  0  0  0  0  0  0  0  0  0  0
   17.1210   -0.9749    0.0000 H   0  0  0  0  0  0  0  0  0  0  0  0
   21.4511    0.4749    0.0000 H   0  0  0  0  0  0  0  0  0  0  0  0
   20.6540    0.4749    0.0000 H   0  0  0  0  0  0  0  0  0  0  0  0
   16.2549    0.4749    0.0000 H   0  0  0  0  0  0  0  0  0  0  0  0
   15.4579    0.4749    0.0000 H   0  0  0  0  0  0  0  0  0  0  0  0
   21.5201   -0.9749    0.0000 H   0  0  0  0  0  0  0  0  0  0  0  0
   22.3171   -0.9749    0.0000 H   0  0  0  0  0  0  0  0  0  0  0  0
   14.5919   -0.9749    0.0000 H   0  0  0  0  0  0  0  0  0  0  0  0
   15.3889   -0.9749    0.0000 H   0  0  0  0  0  0  0  0  0  0  0  0
   23.1831    0.4749    0.0000 H   0  0  0  0  0  0  0  0  0  0  0  0
   22.3861    0.4749    0.0000 H   0  0  0  0  0  0  0  0  0  0  0  0
   14.5229    0.4749    0.0000 H   0  0  0  0  0  0  0  0  0  0  0  0
   13.7258    0.4749    0.0000 H   0  0  0  0  0  0  0  0  0  0  0  0
    3.3335   -1.4750    0.0000 H   0  0  0  0  0  0  0  0  0  0  0  0
    4.1306   -1.4750    0.0000 H   0  0  0  0  0  0  0  0  0  0  0  0
   23.2521   -0.9749    0.0000 H   0  0  0  0  0  0  0  0  0  0  0  0
   24.0492   -0.9749    0.0000 H   0  0  0  0  0  0  0  0  0  0  0  0
   12.8598   -0.9749    0.0000 H   0  0  0  0  0  0  0  0  0  0  0  0
   13.6569   -0.9749    0.0000 H   0  0  0  0  0  0  0  0  0  0  0  0
    3.9030    0.0560    0.0000 H   0  0  0  0  0  0  0  0  0  0  0  0
    3.6760    0.9030    0.0000 H   0  0  0  0  0  0  0  0  0  0  0  0
    2.8291    0.6760    0.0000 H   0  0  0  0  0  0  0  0  0  0  0  0
    1.8291   -1.0560    0.0000 H   0  0  0  0  0  0  0  0  0  0  0  0
    2.0560   -1.9030    0.0000 H   0  0  0  0  0  0  0  0  0  0  0  0
    2.9030   -1.6760    0.0000 H   0  0  0  0  0  0  0  0  0  0  0  0
    2.3100    0.5369    0.0000 H   0  0  0  0  0  0  0  0  0  0  0  0
    1.4631    0.3100    0.0000 H   0  0  0  0  0  0  0  0  0  0  0  0
    1.6900   -0.5369    0.0000 H   0  0  0  0  0  0  0  0  0  0  0  0
   24.9152    0.4749    0.0000 H   0  0  0  0  0  0  0  0  0  0  0  0
   24.1181    0.4749    0.0000 H   0  0  0  0  0  0  0  0  0  0  0  0
    4.9966   -0.0251    0.0000 H   0  0  0  0  0  0  0  0  0  0  0  0
    4.1996   -0.0251    0.0000 H   0  0  0  0  0  0  0  0  0  0  0  0
   12.7908    0.4749    0.0000 H   0  0  0  0  0  0  0  0  0  0  0  0
   11.9938    0.4749    0.0000 H   0  0  0  0  0  0  0  0  0  0  0  0
   24.9842   -0.9749    0.0000 H   0  0  0  0  0  0  0  0  0  0  0  0
   25.7812   -0.9749    0.0000 H   0  0  0  0  0  0  0  0  0  0  0  0
    9.6643    0.4250    0.0000 H   0  0  0  0  0  0  0  0  0  0  0  0
    9.3957   -0.9749    0.0000 H   0  0  0  0  0  0  0  0  0  0  0  0
   10.1928   -0.9749    0.0000 H   0  0  0  0  0  0  0  0  0  0  0  0
   26.5587   -0.5369    0.0000 H   0  0  0  0  0  0  0  0  0  0  0  0
   26.7856    0.3100    0.0000 H   0  0  0  0  0  0  0  0  0  0  0  0
   25.9387    0.5369    0.0000 H   0  0  0  0  0  0  0  0  0  0  0  0
   10.6603    0.6200    0.0000 H   0  0  0  0  0  0  0  0  0  0  0  0
    7.6636   -0.9749    0.0000 H   0  0  0  0  0  0  0  0  0  0  0  0
    8.4607   -0.9749    0.0000 H   0  0  0  0  0  0  0  0  0  0  0  0
   10.1042    0.9631    0.0000 H   0  0  0  0  0  0  0  0  0  0  0  0
   10.3312    1.8100    0.0000 H   0  0  0  0  0  0  0  0  0  0  0  0
    9.4842    2.0369    0.0000 H   0  0  0  0  0  0  0  0  0  0  0  0
  1  2  1  0  0  0  0
  1  3  1  0  0  0  0
  1  6  1  0  0  0  0
  1  7  2  0  0  0  0
  2 28  1  0  0  0  0
  3 35  1  0  0  0  0
  4 32  1  0  0  0  0
  4 36  1  0  0  0  0
  5 31  2  0  0  0  0
  8 21  1  0  0  0  0
  8 25  1  0  0  0  0
  8 26  1  0  0  0  0
  8 27  1  0  0  0  0
  9 31  1  0  0  0  0
  9 34  1  0  0  0  0
  9 88  1  0  0  0  0
 10 11  1  0  0  0  0
 10 12  1  0  0  0  0
 10 37  1  0  0  0  0
 10 38  1  0  0  0  0
 11 13  1  0  0  0  0
 11 39  1  0  0  0  0
 11 40  1  0  0  0  0
 12 14  1  0  0  0  0
 12 41  1  0  0  0  0
 12 42  1  0  0  0  0
 13 15  1  0  0  0  0
 13 43  1  0  0  0  0
 13 44  1  0  0  0  0
 14 16  1  0  0  0  0
 14 45  1  0  0  0  0
 14 46  1  0  0  0  0
 15 17  1  0  0  0  0
 15 47  1  0  0  0  0
 15 48  1  0  0  0  0
 16 18  1  0  0  0  0
 16 49  1  0  0  0  0
 16 50  1  0  0  0  0
 17 19  1  0  0  0  0
 17 51  1  0  0  0  0
 17 52  1  0  0  0  0
 18 20  1  0  0  0  0
 18 53  1  0  0  0  0
 18 54  1  0  0  0  0
 19 22  1  0  0  0  0
 19 55  1  0  0  0  0
 19 56  1  0  0  0  0
 20 23  1  0  0  0  0
 20 57  1  0  0  0  0
 20 58  1  0  0  0  0
 21 28  1  0  0  0  0
 21 59  1  0  0  0  0
 21 60  1  0  0  0  0
 22 24  1  0  0  0  0
 22 61  1  0  0  0  0
 22 62  1  0  0  0  0
 23 29  1  0  0  0  0
 23 63  1  0  0  0  0
 23 64  1  0  0  0  0
 24 30  1  0  0  0  0
 24 74  1  0  0  0  0
 24 75  1  0  0  0  0
 25 71  1  0  0  0  0
 25 72  1  0  0  0  0
 25 73  1  0  0  0  0
 26 68  1  0  0  0  0
 26 69  1  0  0  0  0
 26 70  1  0  0  0  0
 27 65  1  0  0  0  0
 27 66  1  0  0  0  0
 27 67  1  0  0  0  0
 28 76  1  0  0  0  0
 28 77  1  0  0  0  0
 29 31  1  0  0  0  0
 29 78  1  0  0  0  0
 29 79  1  0  0  0  0
 30 33  1  0  0  0  0
 30 80  1  0  0  0  0
 30 81  1  0  0  0  0
 32 34  1  0  0  0  0
 32 35  1  0  0  0  0
 32 82  1  0  0  0  0
 33 85  1  0  0  0  0
 33 86  1  0  0  0  0
 33 87  1  0  0  0  0
 34 83  1  0  0  0  0
 34 84  1  0  0  0  0
 35 89  1  0  0  0  0
 35 90  1  0  0  0  0
 36 91  1  0  0  0  0
 36 92  1  0  0  0  0
 36 93  1  0  0  0  0
M  CHG  2   6  -1   8   1
M  END
> <PUBCHEM_COMPOUND_CID>
5030

> <PUBCHEM_COMPOUND_CANONICALIZED>
1

> <PUBCHEM_CACTVS_COMPLEXITY>
563

> <PUBCHEM_CACTVS_HBOND_ACCEPTOR>
6

> <PUBCHEM_CACTVS_HBOND_DONOR>
1

> <PUBCHEM_CACTVS_ROTATABLE_BOND>
26

> <PUBCHEM_CACTVS_SUBSKEYS>
AAADcfB7OAIAAAAAAAAAAAAAAAAAAAAAAAAAAAAAAAAAAAAAAAAAHgAQACAACBThgAYCAAPABRAIQAEQEIAAAAAAAAAAAIEIAAADABIAgAAFAAACFgCSAAEYiICAAAAAAAAAAAAAAAAAAAAAAAAAAAAAAA==

> <PUBCHEM_IUPAC_OPENEYE_NAME>
[2-methoxy-3-(octadecanoylamino)propyl] 2-(trimethylammonio)ethyl phosphate

> <PUBCHEM_IUPAC_CAS_NAME>
[2-methoxy-3-(1-oxooctadecylamino)propyl] 2-(trimethylammonio)ethyl phosphate

> <PUBCHEM_IUPAC_NAME>
[2-methoxy-3-(octadecanoylamino)propyl] 2-(trimethylazaniumyl)ethyl phosphate

> <PUBCHEM_IUPAC_SYSTEMATIC_NAME>
[2-methoxy-3-(octadecanoylamino)propyl] 2-(trimethylazaniumyl)ethyl phosphate

> <PUBCHEM_IUPAC_TRADITIONAL_NAME>
(2-methoxy-3-stearamido-propyl) 2-(trimethylammonio)ethyl phosphate

> <PUBCHEM_IUPAC_INCHI>
InChI=1S/C27H57N2O6P/c1-6-7-8-9-10-11-12-13-14-15-16-17-18-19-20-21-27(30)28-24-26(33-5)25-35-36(31,32)34-23-22-29(2,3)4/h26H,6-25H2,1-5H3,(H-,28,30,31,32)

> <PUBCHEM_IUPAC_INCHIKEY>
KTJPWDKOKGANNX-UHFFFAOYSA-N

> <PUBCHEM_XLOGP3_AA>
6.6

> <PUBCHEM_EXACT_MASS>
536.395424

> <PUBCHEM_MOLECULAR_FORMULA>
C27H57N2O6P

> <PUBCHEM_MOLECULAR_WEIGHT>
536.725042

> <PUBCHEM_OPENEYE_CAN_SMILES>
CCCCCCCCCCCCCCCCCC(=O)NCC(COP(=O)([O-])OCC[N+](C)(C)C)OC

> <PUBCHEM_OPENEYE_ISO_SMILES>
CCCCCCCCCCCCCCCCCC(=O)NCC(COP(=O)([O-])OCC[N+](C)(C)C)OC

> <PUBCHEM_CACTVS_TPSA>
96.9

> <PUBCHEM_MONOISOTOPIC_WEIGHT>
536.395424

> <PUBCHEM_TOTAL_CHARGE>
0

> <PUBCHEM_HEAVY_ATOM_COUNT>
36

> <PUBCHEM_ATOM_DEF_STEREO_COUNT>
0

> <PUBCHEM_ATOM_UDEF_STEREO_COUNT>
1

> <PUBCHEM_BOND_DEF_STEREO_COUNT>
0

> <PUBCHEM_BOND_UDEF_STEREO_COUNT>
0

> <PUBCHEM_ISOTOPIC_ATOM_COUNT>
0

> <PUBCHEM_COMPONENT_COUNT>
1

> <PUBCHEM_CACTVS_TAUTO_COUNT>
2

> <PUBCHEM_COORDINATE_TYPE>
1
5
255

> <PUBCHEM_BONDANNOTATIONS>
32  82  3

$$$$

