17396392
  -OEChem-06241222562D

 30 32  0     0  0  0  0  0  0999 V2000
    3.7320    2.6574    0.0000 Cl  0  0  0  0  0  0  0  0  0  0  0  0
    2.0000    1.6574    0.0000 Cl  0  0  0  0  0  0  0  0  0  0  0  0
    9.4643   -2.6574    0.0000 S   0  0  0  0  0  0  0  0  0  0  0  0
    5.5443   -0.1474    0.0000 S   0  0  0  0  0  0  0  0  0  0  0  0
    7.7430   -2.1961    0.0000 O   0  0  0  0  0  0  0  0  0  0  0  0
    7.1279   -1.0747    0.0000 O   0  0  0  0  0  0  0  0  0  0  0  0
    9.1279   -1.0747    0.0000 N   0  0  0  0  0  0  0  0  0  0  0  0
    7.1279    0.6574    0.0000 N   0  0  0  0  0  0  0  0  0  0  0  0
    5.5443    1.4621    0.0000 N   0  0  0  0  0  0  0  0  0  0  0  0
   10.1224   -1.1792    0.0000 C   0  0  0  0  0  0  0  0  0  0  0  0
    8.6279   -0.2087    0.0000 C   0  0  0  0  0  0  0  0  0  0  0  0
   10.3303   -2.1574    0.0000 C   0  0  0  0  0  0  0  0  0  0  0  0
    8.7212   -1.9882    0.0000 C   0  0  0  0  0  0  0  0  0  0  0  0
    7.6279   -0.2087    0.0000 C   0  0  0  0  0  0  0  0  0  0  0  0
    6.1279    0.6574    0.0000 C   0  0  0  0  0  0  0  0  0  0  0  0
    4.5981    1.1574    0.0000 C   0  0  0  0  0  0  0  0  0  0  0  0
    4.5981    0.1574    0.0000 C   0  0  0  0  0  0  0  0  0  0  0  0
    3.7320    1.6574    0.0000 C   0  0  0  0  0  0  0  0  0  0  0  0
    3.7320   -0.3426    0.0000 C   0  0  0  0  0  0  0  0  0  0  0  0
    2.8660    1.1574    0.0000 C   0  0  0  0  0  0  0  0  0  0  0  0
    2.8660    0.1574    0.0000 C   0  0  0  0  0  0  0  0  0  0  0  0
   10.7390   -1.1144    0.0000 H   0  0  0  0  0  0  0  0  0  0  0  0
   10.1224   -0.5592    0.0000 H   0  0  0  0  0  0  0  0  0  0  0  0
    9.2105    0.0034    0.0000 H   0  0  0  0  0  0  0  0  0  0  0  0
    8.5202    0.4019    0.0000 H   0  0  0  0  0  0  0  0  0  0  0  0
   10.5825   -2.7238    0.0000 H   0  0  0  0  0  0  0  0  0  0  0  0
   10.9200   -1.9658    0.0000 H   0  0  0  0  0  0  0  0  0  0  0  0
    7.4379    1.1943    0.0000 H   0  0  0  0  0  0  0  0  0  0  0  0
    3.7320   -0.9626    0.0000 H   0  0  0  0  0  0  0  0  0  0  0  0
    2.3291   -0.1526    0.0000 H   0  0  0  0  0  0  0  0  0  0  0  0
  1 18  1  0  0  0  0
  2 20  1  0  0  0  0
  3 12  1  0  0  0  0
  3 13  1  0  0  0  0
  4 15  1  0  0  0  0
  4 17  1  0  0  0  0
  5 13  2  0  0  0  0
  6 14  2  0  0  0  0
  7 10  1  0  0  0  0
  7 11  1  0  0  0  0
  7 13  1  0  0  0  0
  8 14  1  0  0  0  0
  8 15  1  0  0  0  0
  8 28  1  0  0  0  0
  9 15  2  0  0  0  0
  9 16  1  0  0  0  0
 10 12  1  0  0  0  0
 10 22  1  0  0  0  0
 10 23  1  0  0  0  0
 11 14  1  0  0  0  0
 11 24  1  0  0  0  0
 11 25  1  0  0  0  0
 12 26  1  0  0  0  0
 12 27  1  0  0  0  0
 16 17  2  0  0  0  0
 16 18  1  0  0  0  0
 17 19  1  0  0  0  0
 18 20  2  0  0  0  0
 19 21  2  0  0  0  0
 19 29  1  0  0  0  0
 20 21  1  0  0  0  0
 21 30  1  0  0  0  0
M  END
> <PUBCHEM_COMPOUND_CID>
17396392

> <PUBCHEM_COMPOUND_CANONICALIZED>
1

> <PUBCHEM_CACTVS_COMPLEXITY>
443

> <PUBCHEM_CACTVS_HBOND_ACCEPTOR>
5

> <PUBCHEM_CACTVS_HBOND_DONOR>
1

> <PUBCHEM_CACTVS_ROTATABLE_BOND>
3

> <PUBCHEM_CACTVS_SUBSKEYS>
AAADccBzMABmAAAAAAAAAAAAAAAAAWLAAAAwAAAAAAAAAFgB8AAAHgYQAAAACArF1iSx0bPIEAisASVydACD8KlhDTlJmnyoRpiIYKLhmrHUIAholwLIyCcQAAAAAAIAABIAARQABAAAJAACKAAAAAAAAA==

> <PUBCHEM_IUPAC_OPENEYE_NAME>
N-(4,5-dichloro-1,3-benzothiazol-2-yl)-2-(2-oxothiazolidin-3-yl)acetamide

> <PUBCHEM_IUPAC_CAS_NAME>
N-(4,5-dichloro-1,3-benzothiazol-2-yl)-2-(2-oxo-3-thiazolidinyl)acetamide

> <PUBCHEM_IUPAC_NAME>
N-(4,5-dichloro-1,3-benzothiazol-2-yl)-2-(2-oxo-1,3-thiazolidin-3-yl)acetamide

> <PUBCHEM_IUPAC_SYSTEMATIC_NAME>
N-[4,5-bis(chloranyl)-1,3-benzothiazol-2-yl]-2-(2-oxidanylidene-1,3-thiazolidin-3-yl)ethanamide

> <PUBCHEM_IUPAC_TRADITIONAL_NAME>
N-(4,5-dichloro-1,3-benzothiazol-2-yl)-2-(2-ketothiazolidin-3-yl)acetamide

> <PUBCHEM_IUPAC_INCHI>
InChI=1S/C12H9Cl2N3O2S2/c13-6-1-2-7-10(9(6)14)16-11(21-7)15-8(18)5-17-3-4-20-12(17)19/h1-2H,3-5H2,(H,15,16,18)

> <PUBCHEM_IUPAC_INCHIKEY>
HCHDPRDCZVLQRF-UHFFFAOYSA-N

> <PUBCHEM_XLOGP3_AA>
3.4

> <PUBCHEM_EXACT_MASS>
360.951324

> <PUBCHEM_MOLECULAR_FORMULA>
C12H9Cl2N3O2S2

> <PUBCHEM_MOLECULAR_WEIGHT>
362.25476

> <PUBCHEM_OPENEYE_CAN_SMILES>
C1CSC(=O)N1CC(=O)NC2=NC3=C(S2)C=CC(=C3Cl)Cl

> <PUBCHEM_OPENEYE_ISO_SMILES>
C1CSC(=O)N1CC(=O)NC2=NC3=C(S2)C=CC(=C3Cl)Cl

> <PUBCHEM_CACTVS_TPSA>
116

> <PUBCHEM_MONOISOTOPIC_WEIGHT>
360.951324

> <PUBCHEM_TOTAL_CHARGE>
0

> <PUBCHEM_HEAVY_ATOM_COUNT>
21

> <PUBCHEM_ATOM_DEF_STEREO_COUNT>
0

> <PUBCHEM_ATOM_UDEF_STEREO_COUNT>
0

> <PUBCHEM_BOND_DEF_STEREO_COUNT>
0

> <PUBCHEM_BOND_UDEF_STEREO_COUNT>
0

> <PUBCHEM_ISOTOPIC_ATOM_COUNT>
0

> <PUBCHEM_COMPONENT_COUNT>
1

> <PUBCHEM_CACTVS_TAUTO_COUNT>
5

> <PUBCHEM_COORDINATE_TYPE>
1
5
255

> <PUBCHEM_BONDANNOTATIONS>
16  17  8
16  18  8
17  19  8
18  20  8
19  21  8
20  21  8
4  15  8
4  17  8
9  15  8
9  16  8

$$$$

