   Color/Form
        Crystals
   from [1]HSDB

   Melting Point
        225 deg C dec
   from [2]HSDB

   Dissociation Constants
        pKa: 8.76 (water), 9.4 (50% alcohol)
   from [3]HSDB

   Octanol/Water Partition Coefficient
        log Kow = -6.21 (est)
   from [4]HSDB

   Solubilities

     * Soluble in dilute acetic acid; slightly soluble in dry alcohol,
       ether; practically insoluble in other organic solvents
     * In water, 1.0X10+6 mg/L at 25 deg C /miscible/ (est)

   from [5]HSDB

   Spectral Properties
        Specific optical rotation at 25 deg C/D: -8.64 deg (c= 8.55 in
   dilute acetic acid)
   from [6]HSDB

   Other Chemical/Physical Properties

     * Darkens above 220 deg C without decomposition ... toxin /is/
       destroyed in strong acids and in alkaline solutions.
     * ... heat-stable (except in alkaline milieu), water-soluble ...
       unstable when heated to 100 deg C (212 deg F) in acid ... can be
       fatal when ingested
     * Hydroxyl radical reaction rate constant = 3.71X10-10 cu
       cm/molec-sec at 25 deg C (est)

   from [7]HSDB

   Computed Properties
   Molecular Weight                  319.26798 [g/mol]
   Molecular Formula                 C[11]H[17]N[3]O[8]
   XLogP3-AA                         -4.8
   H-Bond Donor                      8
   H-Bond Acceptor                   8
   Rotatable Bond Count              1
   Tautomer Count                    3
   Exact Mass                        319.101565
   MonoIsotopic Mass                 319.101565
   Topological Polar Surface Area    195
   Heavy Atom Count                  22
   Formal Charge                     0
   Complexity                        562
   Isotope Atom Count                0
   Defined Atom Stereocenter Count   2
   Undefined Atom Stereocenter Count 7
   Defined Bond Stereocenter Count   0
   Undefined Bond Stereocenter Count 0
   Covalently-Bonded Unit Count      1

References

   1. http://toxnet.nlm.nih.gov/cgi-bin/sis/search/r?dbs+hsdb:@term+@rn+@rel+4368-28-9
   2. http://toxnet.nlm.nih.gov/cgi-bin/sis/search/r?dbs+hsdb:@term+@rn+@rel+4368-28-9
   3. http://toxnet.nlm.nih.gov/cgi-bin/sis/search/r?dbs+hsdb:@term+@rn+@rel+4368-28-9
   4. http://toxnet.nlm.nih.gov/cgi-bin/sis/search/r?dbs+hsdb:@term+@rn+@rel+4368-28-9
   5. http://toxnet.nlm.nih.gov/cgi-bin/sis/search/r?dbs+hsdb:@term+@rn+@rel+4368-28-9
   6. http://toxnet.nlm.nih.gov/cgi-bin/sis/search/r?dbs+hsdb:@term+@rn+@rel+4368-28-9
   7. http://toxnet.nlm.nih.gov/cgi-bin/sis/search/r?dbs+hsdb:@term+@rn+@rel+4368-28-9
