17395489
  -OEChem-06241222502D

 35 37  0     1  0  0  0  0  0999 V2000
    8.3264    1.5933    0.0000 O   0  0  0  0  0  0  0  0  0  0  0  0
    4.8255    1.9612    0.0000 O   0  0  0  0  0  0  0  0  0  0  0  0
    6.5856   -1.0873    0.0000 O   0  0  0  0  0  0  0  0  0  0  0  0
    5.4641    0.2976    0.0000 N   0  0  0  0  0  0  0  0  0  0  0  0
    7.0468    0.6340    0.0000 N   0  0  0  0  0  0  0  0  0  0  0  0
    2.0000   -0.7024    0.0000 N   0  0  0  0  0  0  0  0  0  0  0  0
    6.5468    1.5000    0.0000 C   0  0  3  0  0  0  0  0  0  0  0  0
    5.5686    1.2921    0.0000 C   0  0  0  0  0  0  0  0  0  0  0  0
    7.4128    2.0000    0.0000 C   0  0  0  0  0  0  0  0  0  0  0  0
    6.3389    2.4782    0.0000 C   0  0  0  0  0  0  0  0  0  0  0  0
    6.3776   -0.1092    0.0000 C   0  0  0  0  0  0  0  0  0  0  0  0
    4.5981   -0.2024    0.0000 C   0  0  0  0  0  0  0  0  0  0  0  0
    4.5981   -1.2024    0.0000 C   0  0  0  0  0  0  0  0  0  0  0  0
    7.5173    2.9945    0.0000 C   0  0  0  0  0  0  0  0  0  0  0  0
    8.4955    3.2024    0.0000 C   0  0  0  0  0  0  0  0  0  0  0  0
    8.9955    2.3364    0.0000 C   0  0  0  0  0  0  0  0  0  0  0  0
    3.7320   -1.7024    0.0000 C   0  0  0  0  0  0  0  0  0  0  0  0
    5.4641   -1.7024    0.0000 C   0  0  0  0  0  0  0  0  0  0  0  0
    3.7320   -2.7024    0.0000 C   0  0  0  0  0  0  0  0  0  0  0  0
    5.4641   -2.7024    0.0000 C   0  0  0  0  0  0  0  0  0  0  0  0
    4.5981   -3.2024    0.0000 C   0  0  0  0  0  0  0  0  0  0  0  0
    2.8660   -1.2024    0.0000 C   0  0  0  0  0  0  0  0  0  0  0  0
    7.6634    0.5692    0.0000 H   0  0  0  0  0  0  0  0  0  0  0  0
    6.9453    2.6070    0.0000 H   0  0  0  0  0  0  0  0  0  0  0  0
    6.2100    3.0846    0.0000 H   0  0  0  0  0  0  0  0  0  0  0  0
    5.7324    2.3492    0.0000 H   0  0  0  0  0  0  0  0  0  0  0  0
    4.3860    0.3802    0.0000 H   0  0  0  0  0  0  0  0  0  0  0  0
    3.9875   -0.3101    0.0000 H   0  0  0  0  0  0  0  0  0  0  0  0
    7.0566    3.4094    0.0000 H   0  0  0  0  0  0  0  0  0  0  0  0
    8.7477    3.7688    0.0000 H   0  0  0  0  0  0  0  0  0  0  0  0
    9.6121    2.2716    0.0000 H   0  0  0  0  0  0  0  0  0  0  0  0
    6.0010   -1.3924    0.0000 H   0  0  0  0  0  0  0  0  0  0  0  0
    3.1951   -3.0124    0.0000 H   0  0  0  0  0  0  0  0  0  0  0  0
    6.0010   -3.0124    0.0000 H   0  0  0  0  0  0  0  0  0  0  0  0
    4.5981   -3.8224    0.0000 H   0  0  0  0  0  0  0  0  0  0  0  0
  1  9  1  0  0  0  0
  1 16  1  0  0  0  0
  2  8  2  0  0  0  0
  3 11  2  0  0  0  0
  4  8  1  0  0  0  0
  4 11  1  0  0  0  0
  4 12  1  0  0  0  0
  5  7  1  0  0  0  0
  5 11  1  0  0  0  0
  5 23  1  0  0  0  0
  6 22  3  0  0  0  0
  7  8  1  0  0  0  0
  7  9  1  0  0  0  0
  7 10  1  0  0  0  0
  9 14  2  0  0  0  0
 10 24  1  0  0  0  0
 10 25  1  0  0  0  0
 10 26  1  0  0  0  0
 12 13  1  0  0  0  0
 12 27  1  0  0  0  0
 12 28  1  0  0  0  0
 13 17  1  0  0  0  0
 13 18  2  0  0  0  0
 14 15  1  0  0  0  0
 14 29  1  0  0  0  0
 15 16  2  0  0  0  0
 15 30  1  0  0  0  0
 16 31  1  0  0  0  0
 17 19  2  0  0  0  0
 17 22  1  0  0  0  0
 18 20  1  0  0  0  0
 18 32  1  0  0  0  0
 19 21  1  0  0  0  0
 19 33  1  0  0  0  0
 20 21  2  0  0  0  0
 20 34  1  0  0  0  0
 21 35  1  0  0  0  0
M  END
> <PUBCHEM_COMPOUND_CID>
17395489

> <PUBCHEM_COMPOUND_CANONICALIZED>
1

> <PUBCHEM_CACTVS_COMPLEXITY>
526

> <PUBCHEM_CACTVS_HBOND_ACCEPTOR>
4

> <PUBCHEM_CACTVS_HBOND_DONOR>
1

> <PUBCHEM_CACTVS_ROTATABLE_BOND>
3

> <PUBCHEM_CACTVS_SUBSKEYS>
AAADccB7MAAAAAAAAAAAAAAAAAAAAWJAAAAwAAAAAAAAAAABwAAAHgAQAAAADIzhmAYzBIPABECYBqlSkACiCAAkIAAIiAGODMiO5j6MtTuXOSju9zOYqY+Y2ZMegAAAAAAQAAAAAAAAACAAAAAAAAAAAA==

> <PUBCHEM_IUPAC_OPENEYE_NAME>
2-[[4-(2-furyl)-4-methyl-2,5-dioxo-imidazolidin-1-yl]methyl]benzonitrile

> <PUBCHEM_IUPAC_CAS_NAME>
2-[[4-(2-furanyl)-4-methyl-2,5-dioxo-1-imidazolidinyl]methyl]benzonitrile

> <PUBCHEM_IUPAC_NAME>
2-[[4-(furan-2-yl)-4-methyl-2,5-dioxoimidazolidin-1-yl]methyl]benzonitrile

> <PUBCHEM_IUPAC_SYSTEMATIC_NAME>
2-[[4-(furan-2-yl)-4-methyl-2,5-bis(oxidanylidene)imidazolidin-1-yl]methyl]benzenecarbonitrile

> <PUBCHEM_IUPAC_TRADITIONAL_NAME>
2-[[4-(2-furyl)-2,5-diketo-4-methyl-imidazolidin-1-yl]methyl]benzonitrile

> <PUBCHEM_IUPAC_INCHI>
InChI=1S/C16H13N3O3/c1-16(13-7-4-8-22-13)14(20)19(15(21)18-16)10-12-6-3-2-5-11(12)9-17/h2-8H,10H2,1H3,(H,18,21)

> <PUBCHEM_IUPAC_INCHIKEY>
SEOIHJSSOKZTBN-UHFFFAOYSA-N

> <PUBCHEM_XLOGP3_AA>
1.3

> <PUBCHEM_EXACT_MASS>
295.095691

> <PUBCHEM_MOLECULAR_FORMULA>
C16H13N3O3

> <PUBCHEM_MOLECULAR_WEIGHT>
295.29272

> <PUBCHEM_OPENEYE_CAN_SMILES>
CC1(C(=O)N(C(=O)N1)CC2=CC=CC=C2C#N)C3=CC=CO3

> <PUBCHEM_OPENEYE_ISO_SMILES>
CC1(C(=O)N(C(=O)N1)CC2=CC=CC=C2C#N)C3=CC=CO3

> <PUBCHEM_CACTVS_TPSA>
86.3

> <PUBCHEM_MONOISOTOPIC_WEIGHT>
295.095691

> <PUBCHEM_TOTAL_CHARGE>
0

> <PUBCHEM_HEAVY_ATOM_COUNT>
22

> <PUBCHEM_ATOM_DEF_STEREO_COUNT>
0

> <PUBCHEM_ATOM_UDEF_STEREO_COUNT>
1

> <PUBCHEM_BOND_DEF_STEREO_COUNT>
0

> <PUBCHEM_BOND_UDEF_STEREO_COUNT>
0

> <PUBCHEM_ISOTOPIC_ATOM_COUNT>
0

> <PUBCHEM_COMPONENT_COUNT>
1

> <PUBCHEM_CACTVS_TAUTO_COUNT>
2

> <PUBCHEM_COORDINATE_TYPE>
1
5
255

> <PUBCHEM_BONDANNOTATIONS>
1  16  8
1  9  8
13  17  8
13  18  8
14  15  8
15  16  8
17  19  8
18  20  8
19  21  8
20  21  8
7  10  3
9  14  8

$$$$

