   Color/Form

     * ORTHORHOMBIC PLATES OR SCALES FROM WATER
     * WHITE SHINING CRYSTALLINE SCALES
     * White, shining crystalline leaflets or white crystalline powder.
     * Colorless, glossy, crystalline material.

   from [1]HSDB

   Odor
        ODORLESS
   from [2]HSDB

   Taste
        SLIGHTLY BURNING
   from [3]HSDB

   Boiling Point
        304 DEG C @ 760 MM HG
   from [4]HSDB

   Melting Point
        114.3 DEG C
   from [5]HSDB

   Density/Specific Gravity
        1.2190 @ 15 DEG C
   from [6]HSDB

   Dissociation Constants

     * KB: 1X10-13 AT 28 DEG C
     * pKa = 0.50 at 25 deg C

   from [7]HSDB

   Octanol/Water Partition Coefficient
        Log Kow= 1.16
   from [8]HSDB

   Solubilities

     * 1 G SOL IN 185 ML WATER, 3.4 ML ALC, 20 ML BOILING WATER, 3 ML
       METHANOL, 4 ML ACETONE, 0.6 ML BOILING ALCOHOL, IN 3.7 ML
       CHLOROFORM, 5 ML GLYCEROL, 8 ML DIOXANE, 47 ML BENZENE, 18 ML
       ETHER; VERY SPARINGLY SOL IN PETROLEUM ETHER; CHLORAL HYDRATE
       INCREASES SOLUBILITY IN WATER
     * SOL IN TOLUENE; VERY SOL IN HOT TOLUENE, IN CARBON TETRACHLORIDE
     * Water solubility= 6.93X10+3 mg/l at 25 deg C
     * Slightly soluble in water; very soluble in ethanol and acetone;
       soluble in ethyl ether.

   from [9]HSDB

   Spectral Properties

     * INDEX OF REFRACTION: 1.515 (ALPHA), 1.620 (BETA), GREATER THAN
       1.733 (GAMMA); PKA: 1
     * MAX ABSORPTION (ALCOHOL): 242 NM (LOG E= 4.16); SADTLER REFERENCE
       NUMBER: 160 (IR, PRISM); 49 (IR, GRATING); 63 (UV); 5235 (NMR)
     * IR: 2230 (Sadtler Research Laboratories Prism Collection)
     * UV: 599 (Sadtler Research Laboratories Spectral Collection)
     * MASS: 304 (National Bureau of Standards EPA-NIH Mass Spectra Data
       Base, NSRDS-NBS-63)
     * Intense mass spectral peaks: 93 m/z, 135 m/z

   from [10]HSDB

   Vapor Density
        4.65
   from [11]HSDB

   Vapor Pressure
        1.22X10-3 mm Hg at 25 deg C
   from [12]HSDB

   Other Chemical/Physical Properties

     * IT FORMS EUTECTIC MIXTURE WITH PHENOL, RESORCINOL, & THYMOL
     * VAPOR PRESSURE: 1 MM HG @ 114.0 DEG C

   from [13]HSDB

   Computed Properties
   Molecular Weight                  135.16316 [g/mol]
   Molecular Formula                 C[8]H[9]NO
   XLogP3                            1.2
   H-Bond Donor                      1
   H-Bond Acceptor                   1
   Rotatable Bond Count              1
   Tautomer Count                    3
   Exact Mass                        135.068414
   MonoIsotopic Mass                 135.068414
   Topological Polar Surface Area    29.1
   Heavy Atom Count                  10
   Formal Charge                     0
   Complexity                        116
   Isotope Atom Count                0
   Defined Atom Stereocenter Count   0
   Undefined Atom Stereocenter Count 0
   Defined Bond Stereocenter Count   0
   Undefined Bond Stereocenter Count 0
   Covalently-Bonded Unit Count      1
   Feature 3D Acceptor Count         1
   Feature 3D Donor Count            1
   Feature 3D Ring Count             1
   Effective Rotor Count             2
   Conformer Sampling RMSD           0.4
   CID Conformer Count               [14]2

References

   1. http://toxnet.nlm.nih.gov/cgi-bin/sis/search/r?dbs+hsdb:@term+@rn+@rel+103-84-4
   2. http://toxnet.nlm.nih.gov/cgi-bin/sis/search/r?dbs+hsdb:@term+@rn+@rel+103-84-4
   3. http://toxnet.nlm.nih.gov/cgi-bin/sis/search/r?dbs+hsdb:@term+@rn+@rel+103-84-4
   4. http://toxnet.nlm.nih.gov/cgi-bin/sis/search/r?dbs+hsdb:@term+@rn+@rel+103-84-4
   5. http://toxnet.nlm.nih.gov/cgi-bin/sis/search/r?dbs+hsdb:@term+@rn+@rel+103-84-4
   6. http://toxnet.nlm.nih.gov/cgi-bin/sis/search/r?dbs+hsdb:@term+@rn+@rel+103-84-4
   7. http://toxnet.nlm.nih.gov/cgi-bin/sis/search/r?dbs+hsdb:@term+@rn+@rel+103-84-4
   8. http://toxnet.nlm.nih.gov/cgi-bin/sis/search/r?dbs+hsdb:@term+@rn+@rel+103-84-4
   9. http://toxnet.nlm.nih.gov/cgi-bin/sis/search/r?dbs+hsdb:@term+@rn+@rel+103-84-4
  10. http://toxnet.nlm.nih.gov/cgi-bin/sis/search/r?dbs+hsdb:@term+@rn+@rel+103-84-4
  11. http://toxnet.nlm.nih.gov/cgi-bin/sis/search/r?dbs+hsdb:@term+@rn+@rel+103-84-4
  12. http://toxnet.nlm.nih.gov/cgi-bin/sis/search/r?dbs+hsdb:@term+@rn+@rel+103-84-4
  13. http://toxnet.nlm.nih.gov/cgi-bin/sis/search/r?dbs+hsdb:@term+@rn+@rel+103-84-4
  14. http://pubchem.ncbi.nlm.nih.gov/vw3d/vw3d.cgi?cid=904
