   Color/Form
        Yellow crystals from dimethylformamide/methanol
   from [1]HSDB

   Melting Point
        260-262 deg C
   from [2]HSDB

   Octanol/Water Partition Coefficient
        log Kow = 0.95
   from [3]HSDB

   Solubilities

     * Insoluble in most organic solvents; soluble in dimethylformamide
     * In water, 1.3X10+2 mg/L at 25 deg C

   from [4]HSDB

   Vapor Pressure
        3.56X10-7 mm Hg at 25 deg C (est)
   from [5]HSDB

   Other Chemical/Physical Properties

     * Henry's Law constant = 1.1X10-14 atm-cu m/mol at 25 deg C (est)
     * Hydroxyl radical reaction rate constant = 7.1X10-12 cu
       cm/molecule-sec at 25 deg C (est)

   from [6]HSDB

   Computed Properties
   Molecular Weight                  214.20184 [g/mol]
   Molecular Formula                 C[6]H[6]N[4]O[3]S
   XLogP3                            0.9
   H-Bond Donor                      1
   H-Bond Acceptor                   5
   Rotatable Bond Count              1
   Tautomer Count                    2
   Exact Mass                        214.016061
   MonoIsotopic Mass                 214.016061
   Topological Polar Surface Area    119
   Heavy Atom Count                  14
   Formal Charge                     0
   Complexity                        268
   Isotope Atom Count                0
   Defined Atom Stereocenter Count   0
   Undefined Atom Stereocenter Count 0
   Defined Bond Stereocenter Count   0
   Undefined Bond Stereocenter Count 0
   Covalently-Bonded Unit Count      1
   Feature 3D Acceptor Count         3
   Feature 3D Donor Count            1
   Feature 3D Anion Count            1
   Feature 3D Ring Count             2
   Effective Rotor Count             2.8
   Conformer Sampling RMSD           0.6
   CID Conformer Count               [7]4

References

   1. http://toxnet.nlm.nih.gov/cgi-bin/sis/search/r?dbs+hsdb:@term+@rn+@rel+61-57-4
   2. http://toxnet.nlm.nih.gov/cgi-bin/sis/search/r?dbs+hsdb:@term+@rn+@rel+61-57-4
   3. http://toxnet.nlm.nih.gov/cgi-bin/sis/search/r?dbs+hsdb:@term+@rn+@rel+61-57-4
   4. http://toxnet.nlm.nih.gov/cgi-bin/sis/search/r?dbs+hsdb:@term+@rn+@rel+61-57-4
   5. http://toxnet.nlm.nih.gov/cgi-bin/sis/search/r?dbs+hsdb:@term+@rn+@rel+61-57-4
   6. http://toxnet.nlm.nih.gov/cgi-bin/sis/search/r?dbs+hsdb:@term+@rn+@rel+61-57-4
   7. http://pubchem.ncbi.nlm.nih.gov/vw3d/vw3d.cgi?cid=6093
