439625
  -OEChem-07051212462D

 56 57  0     1  0  0  0  0  0999 V2000
    7.7331   -3.2500    0.0000 O   0  0  0  0  0  0  0  0  0  0  0  0
    6.8671    0.2500    0.0000 O   0  0  0  0  0  0  0  0  0  0  0  0
    6.0010   -4.2500    0.0000 O   0  0  0  0  0  0  0  0  0  0  0  0
    5.1350   -2.7500    0.0000 O   0  0  0  0  0  0  0  0  0  0  0  0
    8.5991   -4.7500    0.0000 O   0  0  0  0  0  0  0  0  0  0  0  0
    6.0010   -1.2500    0.0000 N   0  0  0  0  0  0  0  0  0  0  0  0
    9.4651   -3.2500    0.0000 N   0  0  0  0  0  0  0  0  0  0  0  0
    6.0010    1.7500    0.0000 N   0  0  0  0  0  0  0  0  0  0  0  0
    3.4030    3.2500    0.0000 N   0  0  0  0  0  0  0  0  0  0  0  0
   10.3312   -4.7500    0.0000 N   0  0  0  0  0  0  0  0  0  0  0  0
    2.5369    4.7500    0.0000 N   0  0  0  0  0  0  0  0  0  0  0  0
    4.2690    4.7500    0.0000 N   0  0  0  0  0  0  0  0  0  0  0  0
   12.0632   -4.7500    0.0000 N   0  0  0  0  0  0  0  0  0  0  0  0
    6.8671   -1.7500    0.0000 C   0  0  2  0  0  0  0  0  0  0  0  0
    6.8671   -2.7500    0.0000 C   0  0  1  0  0  0  0  0  0  0  0  0
    5.1350    1.2500    0.0000 C   0  0  3  0  0  0  0  0  0  0  0  0
    8.5991   -2.7500    0.0000 C   0  0  1  0  0  0  0  0  0  0  0  0
    5.1350    0.2500    0.0000 C   0  0  0  0  0  0  0  0  0  0  0  0
    7.7331   -1.2500    0.0000 C   0  0  0  0  0  0  0  0  0  0  0  0
    4.2690    1.7500    0.0000 C   0  0  0  0  0  0  0  0  0  0  0  0
    8.5991   -1.7500    0.0000 C   0  0  0  0  0  0  0  0  0  0  0  0
    6.0010   -0.2500    0.0000 C   0  0  0  0  0  0  0  0  0  0  0  0
    4.2690    2.7500    0.0000 C   0  0  0  0  0  0  0  0  0  0  0  0
    6.0010   -3.2500    0.0000 C   0  0  0  0  0  0  0  0  0  0  0  0
   10.3312   -2.7500    0.0000 C   0  0  0  0  0  0  0  0  0  0  0  0
    9.4651   -4.2500    0.0000 C   0  0  0  0  0  0  0  0  0  0  0  0
    2.5369    2.7500    0.0000 C   0  0  0  0  0  0  0  0  0  0  0  0
    3.4030    4.2500    0.0000 C   0  0  0  0  0  0  0  0  0  0  0  0
   11.1972   -3.2500    0.0000 C   0  0  0  0  0  0  0  0  0  0  0  0
   11.1972   -4.2500    0.0000 C   0  0  0  0  0  0  0  0  0  0  0  0
    6.3301   -2.0600    0.0000 H   0  0  0  0  0  0  0  0  0  0  0  0
    6.8671   -3.3700    0.0000 H   0  0  0  0  0  0  0  0  0  0  0  0
    5.1350    2.1000    0.0000 H   0  0  0  0  0  0  0  0  0  0  0  0
    8.5991   -3.3700    0.0000 H   0  0  0  0  0  0  0  0  0  0  0  0
    4.5244    0.3577    0.0000 H   0  0  0  0  0  0  0  0  0  0  0  0
    4.9230   -0.3326    0.0000 H   0  0  0  0  0  0  0  0  0  0  0  0
    7.7331   -0.6300    0.0000 H   0  0  0  0  0  0  0  0  0  0  0  0
    3.6584    1.8577    0.0000 H   0  0  0  0  0  0  0  0  0  0  0  0
    4.0569    1.1674    0.0000 H   0  0  0  0  0  0  0  0  0  0  0  0
    5.4641   -1.5600    0.0000 H   0  0  0  0  0  0  0  0  0  0  0  0
    9.1360   -1.4400    0.0000 H   0  0  0  0  0  0  0  0  0  0  0  0
    4.8796    2.6423    0.0000 H   0  0  0  0  0  0  0  0  0  0  0  0
    4.4810    3.3326    0.0000 H   0  0  0  0  0  0  0  0  0  0  0  0
    6.0010    2.3700    0.0000 H   0  0  0  0  0  0  0  0  0  0  0  0
    6.5380    1.4400    0.0000 H   0  0  0  0  0  0  0  0  0  0  0  0
   10.3312   -2.1300    0.0000 H   0  0  0  0  0  0  0  0  0  0  0  0
    2.2269    3.2869    0.0000 H   0  0  0  0  0  0  0  0  0  0  0  0
    2.0000    2.4400    0.0000 H   0  0  0  0  0  0  0  0  0  0  0  0
    2.8469    2.2131    0.0000 H   0  0  0  0  0  0  0  0  0  0  0  0
   11.7341   -2.9400    0.0000 H   0  0  0  0  0  0  0  0  0  0  0  0
    5.4641   -4.5600    0.0000 H   0  0  0  0  0  0  0  0  0  0  0  0
    2.5369    5.3700    0.0000 H   0  0  0  0  0  0  0  0  0  0  0  0
    2.0000    4.4400    0.0000 H   0  0  0  0  0  0  0  0  0  0  0  0
    4.2690    5.3700    0.0000 H   0  0  0  0  0  0  0  0  0  0  0  0
   12.6002   -4.4400    0.0000 H   0  0  0  0  0  0  0  0  0  0  0  0
   12.0632   -5.3700    0.0000 H   0  0  0  0  0  0  0  0  0  0  0  0
  1 15  1  0  0  0  0
  1 17  1  0  0  0  0
  2 22  2  0  0  0  0
  3 24  1  0  0  0  0
  3 51  1  0  0  0  0
  4 24  2  0  0  0  0
  5 26  2  0  0  0  0
 14  6  1  1  0  0  0
  6 22  1  0  0  0  0
  6 40  1  0  0  0  0
 17  7  1  6  0  0  0
  7 25  1  0  0  0  0
  7 26  1  0  0  0  0
  8 16  1  0  0  0  0
  8 44  1  0  0  0  0
  8 45  1  0  0  0  0
  9 23  1  0  0  0  0
  9 27  1  0  0  0  0
  9 28  1  0  0  0  0
 10 26  1  0  0  0  0
 10 30  2  0  0  0  0
 11 28  1  0  0  0  0
 11 52  1  0  0  0  0
 11 53  1  0  0  0  0
 12 28  2  0  0  0  0
 12 54  1  0  0  0  0
 13 30  1  0  0  0  0
 13 55  1  0  0  0  0
 13 56  1  0  0  0  0
 14 15  1  0  0  0  0
 14 19  1  0  0  0  0
 14 31  1  0  0  0  0
 15 24  1  6  0  0  0
 15 32  1  0  0  0  0
 16 18  1  0  0  0  0
 16 20  1  0  0  0  0
 16 33  1  0  0  0  0
 17 21  1  0  0  0  0
 17 34  1  0  0  0  0
 18 22  1  0  0  0  0
 18 35  1  0  0  0  0
 18 36  1  0  0  0  0
 19 21  2  0  0  0  0
 19 37  1  0  0  0  0
 20 23  1  0  0  0  0
 20 38  1  0  0  0  0
 20 39  1  0  0  0  0
 21 41  1  0  0  0  0
 23 42  1  0  0  0  0
 23 43  1  0  0  0  0
 25 29  2  0  0  0  0
 25 46  1  0  0  0  0
 27 47  1  0  0  0  0
 27 48  1  0  0  0  0
 27 49  1  0  0  0  0
 29 30  1  0  0  0  0
 29 50  1  0  0  0  0
M  END
> <PUBCHEM_COMPOUND_CID>
439625

> <PUBCHEM_COMPOUND_CANONICALIZED>
1

> <PUBCHEM_CACTVS_COMPLEXITY>
795

> <PUBCHEM_CACTVS_HBOND_ACCEPTOR>
7

> <PUBCHEM_CACTVS_HBOND_DONOR>
6

> <PUBCHEM_CACTVS_ROTATABLE_BOND>
9

> <PUBCHEM_CACTVS_SUBSKEYS>
AAADceB7+AAAAAAAAAAAAAAAAAAAAAAAAAAgQAAAAAAAAAAAAAAAHgAQCAAACDzhgAYDCAPABgCoACP2fAKAAAGgAgAJCIFYABiDBBoA6QQPUAAG1gKbIAIYAQAAAAAAAAAAAAAAAAAAAAAAAAAAAAAAAA==

> <PUBCHEM_IUPAC_OPENEYE_NAME>
(2S,3S,6R)-3-[[3-amino-5-[carbamimidoyl(methyl)amino]pentanoyl]amino]-6-(4-amino-2-oxo-pyrimidin-1-yl)-3,6-dihydro-2H-pyran-2-carboxylic acid

> <PUBCHEM_IUPAC_CAS_NAME>
(2S,3S,6R)-3-[[3-amino-5-[carbamimidoyl(methyl)amino]-1-oxopentyl]amino]-6-(4-amino-2-oxo-1-pyrimidinyl)-3,6-dihydro-2H-pyran-2-carboxylic acid

> <PUBCHEM_IUPAC_NAME>
(2S,3S,6R)-3-[[3-amino-5-[carbamimidoyl(methyl)amino]pentanoyl]amino]-6-(4-amino-2-oxopyrimidin-1-yl)-3,6-dihydro-2H-pyran-2-carboxylic acid

> <PUBCHEM_IUPAC_SYSTEMATIC_NAME>
(2S,3S,6R)-3-[[3-azanyl-5-[carbamimidoyl(methyl)amino]pentanoyl]amino]-6-(4-azanyl-2-oxidanylidene-pyrimidin-1-yl)-3,6-dihydro-2H-pyran-2-carboxylic acid

> <PUBCHEM_IUPAC_TRADITIONAL_NAME>
(2S,3S,6R)-3-[[5-[amidino(methyl)amino]-3-amino-pentanoyl]amino]-6-(4-amino-2-keto-pyrimidin-1-yl)-3,6-dihydro-2H-pyran-2-carboxylic acid

> <PUBCHEM_IUPAC_INCHI>
InChI=1S/C17H26N8O5/c1-24(16(20)21)6-4-9(18)8-12(26)22-10-2-3-13(30-14(10)15(27)28)25-7-5-11(19)23-17(25)29/h2-3,5,7,9-10,13-14H,4,6,8,18H2,1H3,(H3,20,21)(H,22,26)(H,27,28)(H2,19,23,29)/t9?,10-,13+,14-/m0/s1

> <PUBCHEM_IUPAC_INCHIKEY>
CXNPLSGKWMLZPZ-LBLJTAPMSA-N

> <PUBCHEM_XLOGP3_AA>
-5.2

> <PUBCHEM_EXACT_MASS>
422.202616

> <PUBCHEM_MOLECULAR_FORMULA>
C17H26N8O5

> <PUBCHEM_MOLECULAR_WEIGHT>
422.43894

> <PUBCHEM_OPENEYE_CAN_SMILES>
CN(CCC(CC(=O)NC1C=CC(OC1C(=O)O)N2C=CC(=NC2=O)N)N)C(=N)N

> <PUBCHEM_OPENEYE_ISO_SMILES>
CN(CCC(CC(=O)N[C@H]1C=C[C@@H](O[C@@H]1C(=O)O)N2C=CC(=NC2=O)N)N)C(=N)N

> <PUBCHEM_CACTVS_TPSA>
213

> <PUBCHEM_MONOISOTOPIC_WEIGHT>
422.202616

> <PUBCHEM_TOTAL_CHARGE>
0

> <PUBCHEM_HEAVY_ATOM_COUNT>
30

> <PUBCHEM_ATOM_DEF_STEREO_COUNT>
3

> <PUBCHEM_ATOM_UDEF_STEREO_COUNT>
1

> <PUBCHEM_BOND_DEF_STEREO_COUNT>
0

> <PUBCHEM_BOND_UDEF_STEREO_COUNT>
0

> <PUBCHEM_ISOTOPIC_ATOM_COUNT>
0

> <PUBCHEM_COMPONENT_COUNT>
1

> <PUBCHEM_CACTVS_TAUTO_COUNT>
6

> <PUBCHEM_COORDINATE_TYPE>
1
5
255

> <PUBCHEM_BONDANNOTATIONS>
10  26  8
10  30  8
15  24  6
16  33  3
25  29  8
29  30  8
14  6  5
17  7  6
7  25  8
7  26  8

$$$$

