441177
  -OEChem-07051212522D

 87 92  0     1  0  0  0  0  0999 V2000
    5.4641    0.2476    0.0000 O   0  0  0  0  0  0  0  0  0  0  0  0
    6.3243   -1.2558    0.0000 O   0  0  0  0  0  0  0  0  0  0  0  0
    2.8602   -1.2424    0.0000 O   0  0  0  0  0  0  0  0  0  0  0  0
    4.5884   -2.2491    0.0000 O   0  0  0  0  0  0  0  0  0  0  0  0
    6.3401    0.7925    0.0000 O   0  0  0  0  0  0  0  0  0  0  0  0
   10.7084    0.2893    0.0000 O   0  0  0  0  0  0  0  0  0  0  0  0
   10.8005   -0.7562    0.0000 O   0  0  0  0  0  0  0  0  0  0  0  0
    8.0885    3.8208    0.0000 O   0  0  0  0  0  0  0  0  0  0  0  0
   11.6125    1.7862    0.0000 O   0  0  0  0  0  0  0  0  0  0  0  0
   11.6930   -2.3376    0.0000 O   0  0  0  0  0  0  0  0  0  0  0  0
    8.9698    5.4334    0.0000 O   0  0  0  0  0  0  0  0  0  0  0  0
   12.5846    5.4474    0.0000 O   0  0  0  0  0  0  0  0  0  0  0  0
   12.5994   -5.8274    0.0000 O   0  0  0  0  0  0  0  0  0  0  0  0
   10.8675   -5.8474    0.0000 O   0  0  0  0  0  0  0  0  0  0  0  0
    2.8680    0.7576    0.0000 N   0  0  0  0  0  0  0  0  0  0  0  0
   10.8443   -3.8476    0.0000 N   0  0  0  0  0  0  0  0  0  0  0  0
    3.7320    0.2542    0.0000 C   0  0  2  0  0  0  0  0  0  0  0  0
    3.7282   -0.7458    0.0000 C   0  0  1  0  0  0  0  0  0  0  0  0
    4.5923   -1.2491    0.0000 C   0  0  2  0  0  0  0  0  0  0  0  0
    5.4602   -0.7524    0.0000 C   0  0  1  0  0  0  0  0  0  0  0  0
    4.6000    0.7509    0.0000 C   0  0  1  0  0  0  0  0  0  0  0  0
    7.1923   -0.7591    0.0000 C   0  0  2  0  0  0  0  0  0  0  0  0
    7.2003    0.2825    0.0000 C   0  0  2  0  0  0  0  0  0  0  0  0
    8.0943   -1.2799    0.0000 C   0  0  0  0  0  0  0  0  0  0  0  0
    8.1103    0.7893    0.0000 C   0  0  0  0  0  0  0  0  0  0  0  0
    8.9924   -0.7522    0.0000 C   0  0  0  0  0  0  0  0  0  0  0  0
    8.9763    0.2893    0.0000 C   0  0  0  0  0  0  0  0  0  0  0  0
    4.6038    1.7509    0.0000 C   0  0  0  0  0  0  0  0  0  0  0  0
    8.0860   -2.3649    0.0000 C   0  0  0  0  0  0  0  0  0  0  0  0
    8.1103    1.7893    0.0000 C   0  0  0  0  0  0  0  0  0  0  0  0
    9.8423    0.7893    0.0000 C   0  0  0  0  0  0  0  0  0  0  0  0
    9.9443   -1.2728    0.0000 C   0  0  0  0  0  0  0  0  0  0  0  0
    8.9763    2.2893    0.0000 C   0  0  0  0  0  0  0  0  0  0  0  0
    9.8423    1.7893    0.0000 C   0  0  0  0  0  0  0  0  0  0  0  0
    9.0256   -2.9074    0.0000 C   0  0  0  0  0  0  0  0  0  0  0  0
    9.9610   -2.3577    0.0000 C   0  0  0  0  0  0  0  0  0  0  0  0
    2.0000    0.2609    0.0000 C   0  0  0  0  0  0  0  0  0  0  0  0
    8.9603    3.3308    0.0000 C   0  0  0  0  0  0  0  0  0  0  0  0
   10.7523    2.2962    0.0000 C   0  0  0  0  0  0  0  0  0  0  0  0
    9.0295   -3.9074    0.0000 C   0  0  0  0  0  0  0  0  0  0  0  0
    9.8583    3.8586    0.0000 C   0  0  0  0  0  0  0  0  0  0  0  0
   10.7604    3.3378    0.0000 C   0  0  0  0  0  0  0  0  0  0  0  0
   10.8328   -2.8476    0.0000 C   0  0  0  0  0  0  0  0  0  0  0  0
    9.8416    4.9435    0.0000 C   0  0  0  0  0  0  0  0  0  0  0  0
   11.7083    3.8657    0.0000 C   0  0  0  0  0  0  0  0  0  0  0  0
   11.7166    4.9507    0.0000 C   0  0  0  0  0  0  0  0  0  0  0  0
   10.7770    5.4932    0.0000 C   0  0  0  0  0  0  0  0  0  0  0  0
   11.7161   -4.3375    0.0000 C   0  0  3  0  0  0  0  0  0  0  0  0
   12.5763   -3.8275    0.0000 C   0  0  0  0  0  0  0  0  0  0  0  0
   11.7277   -5.3374    0.0000 C   0  0  0  0  0  0  0  0  0  0  0  0
   12.5884    6.4473    0.0000 C   0  0  0  0  0  0  0  0  0  0  0  0
    3.7344    0.8742    0.0000 H   0  0  0  0  0  0  0  0  0  0  0  0
    3.7258   -1.3658    0.0000 H   0  0  0  0  0  0  0  0  0  0  0  0
    4.0542   -1.5570    0.0000 H   0  0  0  0  0  0  0  0  0  0  0  0
    5.4578   -1.3724    0.0000 H   0  0  0  0  0  0  0  0  0  0  0  0
    5.1381    1.0588    0.0000 H   0  0  0  0  0  0  0  0  0  0  0  0
    7.1911   -1.3791    0.0000 H   0  0  0  0  0  0  0  0  0  0  0  0
    7.2086    0.9024    0.0000 H   0  0  0  0  0  0  0  0  0  0  0  0
    2.8703    1.3776    0.0000 H   0  0  0  0  0  0  0  0  0  0  0  0
    5.2238    1.7485    0.0000 H   0  0  0  0  0  0  0  0  0  0  0  0
    4.6062    2.3709    0.0000 H   0  0  0  0  0  0  0  0  0  0  0  0
    3.9838    1.7533    0.0000 H   0  0  0  0  0  0  0  0  0  0  0  0
    7.5478   -2.6728    0.0000 H   0  0  0  0  0  0  0  0  0  0  0  0
    7.5734    2.0993    0.0000 H   0  0  0  0  0  0  0  0  0  0  0  0
    2.8578   -1.8624    0.0000 H   0  0  0  0  0  0  0  0  0  0  0  0
    4.0503   -2.5570    0.0000 H   0  0  0  0  0  0  0  0  0  0  0  0
    1.6921    0.7990    0.0000 H   0  0  0  0  0  0  0  0  0  0  0  0
    1.4619   -0.0470    0.0000 H   0  0  0  0  0  0  0  0  0  0  0  0
    2.3079   -0.2772    0.0000 H   0  0  0  0  0  0  0  0  0  0  0  0
    6.3473    1.4124    0.0000 H   0  0  0  0  0  0  0  0  0  0  0  0
    8.4095   -3.9098    0.0000 H   0  0  0  0  0  0  0  0  0  0  0  0
    9.0318   -4.5274    0.0000 H   0  0  0  0  0  0  0  0  0  0  0  0
    9.6495   -3.9050    0.0000 H   0  0  0  0  0  0  0  0  0  0  0  0
   11.2453    0.5993    0.0000 H   0  0  0  0  0  0  0  0  0  0  0  0
   11.3433   -1.0558    0.0000 H   0  0  0  0  0  0  0  0  0  0  0  0
   12.2416    3.5495    0.0000 H   0  0  0  0  0  0  0  0  0  0  0  0
   10.3110   -4.1637    0.0000 H   0  0  0  0  0  0  0  0  0  0  0  0
   10.7746    6.1132    0.0000 H   0  0  0  0  0  0  0  0  0  0  0  0
   11.1828   -4.6537    0.0000 H   0  0  0  0  0  0  0  0  0  0  0  0
    8.9626    6.0534    0.0000 H   0  0  0  0  0  0  0  0  0  0  0  0
   12.8925   -4.3608    0.0000 H   0  0  0  0  0  0  0  0  0  0  0  0
   13.1096   -3.5113    0.0000 H   0  0  0  0  0  0  0  0  0  0  0  0
   12.2601   -3.2942    0.0000 H   0  0  0  0  0  0  0  0  0  0  0  0
   13.2084    6.4450    0.0000 H   0  0  0  0  0  0  0  0  0  0  0  0
   12.5908    7.0673    0.0000 H   0  0  0  0  0  0  0  0  0  0  0  0
   11.9684    6.4497    0.0000 H   0  0  0  0  0  0  0  0  0  0  0  0
   12.6066   -6.4473    0.0000 H   0  0  0  0  0  0  0  0  0  0  0  0
  1 20  1  0  0  0  0
  1 21  1  0  0  0  0
 20  2  1  1  0  0  0
 22  2  1  6  0  0  0
 18  3  1  1  0  0  0
  3 65  1  0  0  0  0
 19  4  1  6  0  0  0
  4 66  1  0  0  0  0
 23  5  1  1  0  0  0
  5 70  1  0  0  0  0
  6 31  1  0  0  0  0
  6 74  1  0  0  0  0
  7 32  1  0  0  0  0
  7 75  1  0  0  0  0
  8 38  2  0  0  0  0
  9 39  2  0  0  0  0
 10 43  2  0  0  0  0
 11 44  1  0  0  0  0
 11 80  1  0  0  0  0
 12 46  1  0  0  0  0
 12 51  1  0  0  0  0
 13 50  1  0  0  0  0
 13 87  1  0  0  0  0
 14 50  2  0  0  0  0
 17 15  1  1  0  0  0
 15 37  1  0  0  0  0
 15 59  1  0  0  0  0
 16 43  1  0  0  0  0
 16 48  1  0  0  0  0
 16 77  1  0  0  0  0
 17 18  1  0  0  0  0
 17 21  1  0  0  0  0
 17 52  1  0  0  0  0
 18 19  1  0  0  0  0
 18 53  1  0  0  0  0
 19 20  1  0  0  0  0
 19 54  1  0  0  0  0
 20 55  1  0  0  0  0
 21 28  1  1  0  0  0
 21 56  1  0  0  0  0
 22 23  1  0  0  0  0
 22 24  1  0  0  0  0
 22 57  1  0  0  0  0
 23 25  1  0  0  0  0
 23 58  1  0  0  0  0
 24 26  2  0  0  0  0
 24 29  1  0  0  0  0
 25 27  1  0  0  0  0
 25 30  2  0  0  0  0
 26 27  1  0  0  0  0
 26 32  1  0  0  0  0
 27 31  2  0  0  0  0
 28 60  1  0  0  0  0
 28 61  1  0  0  0  0
 28 62  1  0  0  0  0
 29 35  2  0  0  0  0
 29 63  1  0  0  0  0
 30 33  1  0  0  0  0
 30 64  1  0  0  0  0
 31 34  1  0  0  0  0
 32 36  2  0  0  0  0
 33 34  2  0  0  0  0
 33 38  1  0  0  0  0
 34 39  1  0  0  0  0
 35 36  1  0  0  0  0
 35 40  1  0  0  0  0
 36 43  1  0  0  0  0
 37 67  1  0  0  0  0
 37 68  1  0  0  0  0
 37 69  1  0  0  0  0
 38 41  1  0  0  0  0
 39 42  1  0  0  0  0
 40 71  1  0  0  0  0
 40 72  1  0  0  0  0
 40 73  1  0  0  0  0
 41 42  2  0  0  0  0
 41 44  1  0  0  0  0
 42 45  1  0  0  0  0
 44 47  2  0  0  0  0
 45 46  2  0  0  0  0
 45 76  1  0  0  0  0
 46 47  1  0  0  0  0
 47 78  1  0  0  0  0
 48 49  1  0  0  0  0
 48 50  1  0  0  0  0
 48 79  1  0  0  0  0
 49 81  1  0  0  0  0
 49 82  1  0  0  0  0
 49 83  1  0  0  0  0
 51 84  1  0  0  0  0
 51 85  1  0  0  0  0
 51 86  1  0  0  0  0
M  END
> <PUBCHEM_COMPOUND_CID>
441177

> <PUBCHEM_COMPOUND_CANONICALIZED>
1

> <PUBCHEM_CACTVS_COMPLEXITY>
1350

> <PUBCHEM_CACTVS_HBOND_ACCEPTOR>
15

> <PUBCHEM_CACTVS_HBOND_DONOR>
9

> <PUBCHEM_CACTVS_ROTATABLE_BOND>
7

> <PUBCHEM_CACTVS_SUBSKEYS>
AAADcfB/PAAAAAAAAAAAAAAAAAAAAAAAAAA0YMGDAAAAAADBUAAAHgAQCAAADDzxmAcyDoLABgCIAqHSGACCCAAkIAAAiIGODMgfNzaGtTuncWhn9hWfuYf77PzO4AADCAAYAADAAAYQADCAAAAAAAAAAA==

> <PUBCHEM_IUPAC_OPENEYE_NAME>
2-[[(5S,6S)-5-[(2S,3R,4S,5R,6R)-3,4-dihydroxy-6-methyl-5-(methylamino)tetrahydropyran-2-yl]oxy-1,6,9,14-tetrahydroxy-11-methoxy-3-methyl-8,13-dioxo-5,6-dihydrobenzo[a]tetracene-2-carbonyl]amino]propanoic acid

> <PUBCHEM_IUPAC_CAS_NAME>
2-[[[(5S,6S)-5-[[(2S,3R,4S,5R,6R)-3,4-dihydroxy-6-methyl-5-(methylamino)-2-oxanyl]oxy]-1,6,9,14-tetrahydroxy-11-methoxy-3-methyl-8,13-dioxo-5,6-dihydrobenzo[a]tetracen-2-yl]-oxomethyl]amino]propanoic acid

> <PUBCHEM_IUPAC_NAME>
2-[[(5S,6S)-5-[(2S,3R,4S,5R,6R)-3,4-dihydroxy-6-methyl-5-(methylamino)oxan-2-yl]oxy-1,6,9,14-tetrahydroxy-11-methoxy-3-methyl-8,13-dioxo-5,6-dihydrobenzo[a]tetracene-2-carbonyl]amino]propanoic acid

> <PUBCHEM_IUPAC_SYSTEMATIC_NAME>
2-[[(5S,6S)-11-methoxy-3-methyl-5-[(2S,3R,4S,5R,6R)-6-methyl-5-(methylamino)-3,4-bis(oxidanyl)oxan-2-yl]oxy-1,6,9,14-tetrakis(oxidanyl)-8,13-bis(oxidanylidene)-5,6-dihydrobenzo[a]tetracen-2-yl]carbonylamino]propanoic acid

> <PUBCHEM_IUPAC_TRADITIONAL_NAME>
2-[[(5S,6S)-5-[(2S,3R,4S,5R,6R)-3,4-dihydroxy-6-methyl-5-(methylamino)tetrahydropyran-2-yl]oxy-1,6,9,14-tetrahydroxy-8,13-diketo-11-methoxy-3-methyl-5,6-dihydrobenzo[a]tetracene-2-carbonyl]amino]propionic acid

> <PUBCHEM_IUPAC_INCHI>
InChI=1S/C35H36N2O14/c1-10-6-17-22(28(42)19(10)33(46)37-11(2)34(47)48)21-15(27(41)32(17)51-35-31(45)30(44)24(36-4)12(3)50-35)9-16-23(29(21)43)26(40)14-7-13(49-5)8-18(38)20(14)25(16)39/h6-9,11-12,24,27,30-32,35-36,38,41-45H,1-5H3,(H,37,46)(H,47,48)/t11?,12-,24+,27+,30+,31-,32+,35+/m1/s1

> <PUBCHEM_IUPAC_INCHIKEY>
DHQWPIXFALDZDJ-DFKBRRSPSA-N

> <PUBCHEM_XLOGP3_AA>
-0.4

> <PUBCHEM_EXACT_MASS>
708.216654

> <PUBCHEM_MOLECULAR_FORMULA>
C35H36N2O14

> <PUBCHEM_MOLECULAR_WEIGHT>
708.66534

> <PUBCHEM_OPENEYE_CAN_SMILES>
CC1C(C(C(C(O1)OC2C(C3=C(C4=C(C(=C(C=C24)C)C(=O)NC(C)C(=O)O)O)C(=C5C(=C3)C(=O)C6=C(C=C(C=C6C5=O)OC)O)O)O)O)O)NC

> <PUBCHEM_OPENEYE_ISO_SMILES>
C[C@@H]1[C@@H]([C@@H]([C@H]([C@@H](O1)O[C@@H]2[C@H](C3=C(C4=C(C(=C(C=C24)C)C(=O)NC(C)C(=O)O)O)C(=C5C(=C3)C(=O)C6=C(C=C(C=C6C5=O)OC)O)O)O)O)O)NC

> <PUBCHEM_CACTVS_TPSA>
262

> <PUBCHEM_MONOISOTOPIC_WEIGHT>
708.216654

> <PUBCHEM_TOTAL_CHARGE>
0

> <PUBCHEM_HEAVY_ATOM_COUNT>
51

> <PUBCHEM_ATOM_DEF_STEREO_COUNT>
7

> <PUBCHEM_ATOM_UDEF_STEREO_COUNT>
1

> <PUBCHEM_BOND_DEF_STEREO_COUNT>
0

> <PUBCHEM_BOND_UDEF_STEREO_COUNT>
0

> <PUBCHEM_ISOTOPIC_ATOM_COUNT>
0

> <PUBCHEM_COMPONENT_COUNT>
1

> <PUBCHEM_CACTVS_TAUTO_COUNT>
994

> <PUBCHEM_COORDINATE_TYPE>
1
5
255

> <PUBCHEM_BONDANNOTATIONS>
17  15  5
20  2  5
22  2  6
21  28  5
24  26  8
24  29  8
25  27  8
25  30  8
26  32  8
27  31  8
29  35  8
18  3  5
30  33  8
31  34  8
32  36  8
33  34  8
35  36  8
19  4  6
41  42  8
41  44  8
42  45  8
44  47  8
45  46  8
46  47  8
48  49  3
23  5  5

$$$$

