   Chemical and Physical Properties References

   [1]USDA ARS - USDA chemical properties
   from [2]ChemIDplus

   Color/Form

     * Yellow-brown liquid
     * Yellow oil

   from [3]HSDB

   Odor
        Phenolic odor
   from [4]HSDB

   Boiling Point
        118 deg C @ 0.05 mm Hg
   from [5]HSDB

   Melting Point
        3.4 deg C
   from [6]HSDB

   Density/Specific Gravity
        1.3227 @ 25 deg C/4 deg C
   from [7]HSDB

   Octanol/Water Partition Coefficient
        log Kow= 3.30
   from [8]HSDB

   Solubilities

     * Readily soluble in dichloromethane, 2-propanol, toluene, hardly sol
       in n-hexane.
     * Low solubility in aliphatic hydrocarbons; soluble in most organic
       solvents
     * Readily soluble in alcohols, esters, ketones, aromatic
       hydrocarbons, and chlorinated hydrocarbons; hexane solubility = 24
       g/l @ 20 deg C; isopropanol solubility = 138 g/l @ 20 deg C
     * In water, 38.0 mg/l @ 25 deg C [Shiu WY et al; Rev Environ Contam
       Toxicol 116: 15-187 (1990)] [9]PubMed Abstract

   from [10]HSDB

   Spectral Properties

     * Index of refraction: 1.5528 @ 25 deg C
     * Max absorption: 269.5 nm (E= 6756)
     * Intense mass spectral peaks: 109 m/z (100%), 125 m/z (97%), 277 m/z
       (67%), 260 m/z (42%)

   from [11]HSDB

   Vapor Pressure
        5.40X10-5 mm Hg @ 20 deg C
   from [12]HSDB

   Other Chemical/Physical Properties

     * THERMAL DECOMP @ 100-140 DEG C PRODUCES MIXTURE OF ORGANOPHOSPHORUS
       POLYMERS
     * BP: 164 deg C/1.3X10+2 Pa (pure active ingredient)
     * Density: 1.328 @ 20 deg C
     * Henry's Law constant= 9.30X10-7 atm-cu m/mol @ 25 deg C

   from [13]HSDB

   Computed Properties
   Molecular Weight                  277.234042 [g/mol]
   Molecular Formula                 C[9]H[12]NO[5]PS
   XLogP3                            3.3
   H-Bond Donor                      0
   H-Bond Acceptor                   6
   Rotatable Bond Count              4
   Exact Mass                        277.01738
   MonoIsotopic Mass                 277.01738
   Topological Polar Surface Area    106
   Heavy Atom Count                  17
   Formal Charge                     0
   Complexity                        313
   Isotope Atom Count                0
   Defined Atom Stereocenter Count   0
   Undefined Atom Stereocenter Count 0
   Defined Bond Stereocenter Count   0
   Undefined Bond Stereocenter Count 0
   Covalently-Bonded Unit Count      1
   Feature 3D Acceptor Count         2
   Feature 3D Anion Count            1
   Feature 3D Ring Count             1
   Effective Rotor Count             5
   Conformer Sampling RMSD           0.6
   CID Conformer Count               [14]37

References

   1. http://www.ars.usda.gov/SP2UserFiles/ad_hoc/12755100DatabaseFiles/PesticidePropertiesDatabase/IndividualPesticideFiles/FENITROTHION.TXT
   2. http://chem.sis.nlm.nih.gov/chemidplus/
   3. http://toxnet.nlm.nih.gov/cgi-bin/sis/search/r?dbs+hsdb:@term+@rn+@rel+122-14-5
   4. http://toxnet.nlm.nih.gov/cgi-bin/sis/search/r?dbs+hsdb:@term+@rn+@rel+122-14-5
   5. http://toxnet.nlm.nih.gov/cgi-bin/sis/search/r?dbs+hsdb:@term+@rn+@rel+122-14-5
   6. http://toxnet.nlm.nih.gov/cgi-bin/sis/search/r?dbs+hsdb:@term+@rn+@rel+122-14-5
   7. http://toxnet.nlm.nih.gov/cgi-bin/sis/search/r?dbs+hsdb:@term+@rn+@rel+122-14-5
   8. http://toxnet.nlm.nih.gov/cgi-bin/sis/search/r?dbs+hsdb:@term+@rn+@rel+122-14-5
   9. http://www.ncbi.nlm.nih.gov/entrez/query.fcgi?cmd=Retrieve&db=pubmed&dopt=Abstract&list_uids=2205893
  10. http://toxnet.nlm.nih.gov/cgi-bin/sis/search/r?dbs+hsdb:@term+@rn+@rel+122-14-5
  11. http://toxnet.nlm.nih.gov/cgi-bin/sis/search/r?dbs+hsdb:@term+@rn+@rel+122-14-5
  12. http://toxnet.nlm.nih.gov/cgi-bin/sis/search/r?dbs+hsdb:@term+@rn+@rel+122-14-5
  13. http://toxnet.nlm.nih.gov/cgi-bin/sis/search/r?dbs+hsdb:@term+@rn+@rel+122-14-5
  14. http://pubchem.ncbi.nlm.nih.gov/vw3d/vw3d.cgi?cid=31200
