5459896
  -OEChem-07051212452D

 33 33  0     1  0  0  0  0  0999 V2000
    4.2690    0.1550    0.0000 O   0  0  0  0  0  0  0  0  0  0  0  0
    4.2690   -2.8450    0.0000 O   0  0  0  0  0  0  0  0  0  0  0  0
    2.5369   -1.8450    0.0000 O   0  0  0  0  0  0  0  0  0  0  0  0
    6.0010    0.1550    0.0000 O   0  0  0  0  0  0  0  0  0  0  0  0
    6.0010   -1.8450    0.0000 O   0  0  0  0  0  0  0  0  0  0  0  0
    2.5369    1.1550    0.0000 O   0  0  0  0  0  0  0  0  0  0  0  0
    6.0010    3.1550    0.0000 O   0  5  0  0  0  0  0  0  0  0  0  0
    6.8671    1.6550    0.0000 N   0  0  0  0  0  0  0  0  0  0  0  0
    6.8671    2.6550    0.0000 N   0  3  0  0  0  0  0  0  0  0  0  0
    4.2690   -1.8450    0.0000 C   0  0  1  0  0  0  0  0  0  0  0  0
    3.4030   -1.3450    0.0000 C   0  0  1  0  0  0  0  0  0  0  0  0
    3.4030   -0.3450    0.0000 C   0  0  1  0  0  0  0  0  0  0  0  0
    5.1350   -1.3450    0.0000 C   0  0  2  0  0  0  0  0  0  0  0  0
    5.1350   -0.3450    0.0000 C   0  0  1  0  0  0  0  0  0  0  0  0
    2.5369    0.1550    0.0000 C   0  0  0  0  0  0  0  0  0  0  0  0
    6.0010    1.1550    0.0000 C   0  0  0  0  0  0  0  0  0  0  0  0
    7.7331    3.1550    0.0000 C   0  0  0  0  0  0  0  0  0  0  0  0
    4.8059   -2.1550    0.0000 H   0  0  0  0  0  0  0  0  0  0  0  0
    3.4030   -1.9650    0.0000 H   0  0  0  0  0  0  0  0  0  0  0  0
    5.1350   -1.9650    0.0000 H   0  0  0  0  0  0  0  0  0  0  0  0
    3.4030    0.2750    0.0000 H   0  0  0  0  0  0  0  0  0  0  0  0
    5.1350    0.2750    0.0000 H   0  0  0  0  0  0  0  0  0  0  0  0
    1.9264    0.2627    0.0000 H   0  0  0  0  0  0  0  0  0  0  0  0
    2.3249   -0.4276    0.0000 H   0  0  0  0  0  0  0  0  0  0  0  0
    3.7320   -3.1550    0.0000 H   0  0  0  0  0  0  0  0  0  0  0  0
    2.0000   -1.5350    0.0000 H   0  0  0  0  0  0  0  0  0  0  0  0
    6.5380   -1.5350    0.0000 H   0  0  0  0  0  0  0  0  0  0  0  0
    5.7890    1.7376    0.0000 H   0  0  0  0  0  0  0  0  0  0  0  0
    5.3905    1.0473    0.0000 H   0  0  0  0  0  0  0  0  0  0  0  0
    2.0000    1.4650    0.0000 H   0  0  0  0  0  0  0  0  0  0  0  0
    8.0431    2.6181    0.0000 H   0  0  0  0  0  0  0  0  0  0  0  0
    8.2700    3.4650    0.0000 H   0  0  0  0  0  0  0  0  0  0  0  0
    7.4231    3.6919    0.0000 H   0  0  0  0  0  0  0  0  0  0  0  0
  1 12  1  0  0  0  0
  1 14  1  0  0  0  0
 10  2  1  1  0  0  0
  2 25  1  0  0  0  0
 11  3  1  6  0  0  0
  3 26  1  0  0  0  0
 14  4  1  1  0  0  0
  4 16  1  0  0  0  0
 13  5  1  6  0  0  0
  5 27  1  0  0  0  0
  6 15  1  0  0  0  0
  6 30  1  0  0  0  0
  7  9  1  0  0  0  0
  8  9  2  0  0  0  0
  8 16  1  0  0  0  0
  9 17  1  0  0  0  0
 10 11  1  0  0  0  0
 10 13  1  0  0  0  0
 10 18  1  0  0  0  0
 11 12  1  0  0  0  0
 11 19  1  0  0  0  0
 12 15  1  1  0  0  0
 12 21  1  0  0  0  0
 13 14  1  0  0  0  0
 13 20  1  0  0  0  0
 14 22  1  0  0  0  0
 15 23  1  0  0  0  0
 15 24  1  0  0  0  0
 16 28  1  0  0  0  0
 16 29  1  0  0  0  0
 17 31  1  0  0  0  0
 17 32  1  0  0  0  0
 17 33  1  0  0  0  0
M  CHG  2   7  -1   9   1
M  END
> <PUBCHEM_COMPOUND_CID>
5459896

> <PUBCHEM_COMPOUND_CANONICALIZED>
1

> <PUBCHEM_CACTVS_COMPLEXITY>
275

> <PUBCHEM_CACTVS_HBOND_ACCEPTOR>
8

> <PUBCHEM_CACTVS_HBOND_DONOR>
4

> <PUBCHEM_CACTVS_ROTATABLE_BOND>
4

> <PUBCHEM_CACTVS_SUBSKEYS>
AAADceBzOAAAAAAAAAAAAAAAAAAAAAAAAAAkAAAAAAAAAAAAAAAAHgAMCAAACBSwgAcCCAAQBgACAAAAAAAAAAAAAAAAAAAAAAAREAIAAAAqQAAFAAAHAAHAYAwAAAAAAAAAAAAAAAAAAAAAAAAAAAAAAA==

> <PUBCHEM_IUPAC_OPENEYE_NAME>
(Z)-methyl-oxido-[[(2S,3R,4S,5S,6R)-3,4,5-trihydroxy-6-(hydroxymethyl)tetrahydropyran-2-yl]oxymethylimino]ammonium

> <PUBCHEM_IUPAC_CAS_NAME>
(Z)-methyl-oxido-[[(2S,3R,4S,5S,6R)-3,4,5-trihydroxy-6-(hydroxymethyl)-2-oxanyl]oxymethylimino]ammonium

> <PUBCHEM_IUPAC_NAME>
(Z)-methyl-oxido-[[(2S,3R,4S,5S,6R)-3,4,5-trihydroxy-6-(hydroxymethyl)oxan-2-yl]oxymethylimino]azanium

> <PUBCHEM_IUPAC_SYSTEMATIC_NAME>
(Z)-[(2S,3R,4S,5S,6R)-6-(hydroxymethyl)-3,4,5-tris(oxidanyl)oxan-2-yl]oxymethylimino-methyl-oxidanidyl-azanium

> <PUBCHEM_IUPAC_TRADITIONAL_NAME>
(Z)-methyl-oxido-[[(2S,3R,4S,5S,6R)-3,4,5-trihydroxy-6-methylol-tetrahydropyran-2-yl]oxymethylimino]ammonium

> <PUBCHEM_IUPAC_INCHI>
InChI=1S/C8H16N2O7/c1-10(15)9-3-16-8-7(14)6(13)5(12)4(2-11)17-8/h4-8,11-14H,2-3H2,1H3/b10-9-/t4-,5-,6+,7-,8-/m1/s1

> <PUBCHEM_IUPAC_INCHIKEY>
YHLRMABUJXBLCK-LBCXAKKBSA-N

> <PUBCHEM_XLOGP3>
-2.6

> <PUBCHEM_EXACT_MASS>
252.095751

> <PUBCHEM_MOLECULAR_FORMULA>
C8H16N2O7

> <PUBCHEM_MOLECULAR_WEIGHT>
252.22184

> <PUBCHEM_OPENEYE_CAN_SMILES>
C[N+](=NCOC1C(C(C(C(O1)CO)O)O)O)[O-]

> <PUBCHEM_OPENEYE_ISO_SMILES>
C/[N+](=N/CO[C@H]1[C@@H]([C@H]([C@@H]([C@H](O1)CO)O)O)O)/[O-]

> <PUBCHEM_CACTVS_TPSA>
141

> <PUBCHEM_MONOISOTOPIC_WEIGHT>
252.095751

> <PUBCHEM_TOTAL_CHARGE>
0

> <PUBCHEM_HEAVY_ATOM_COUNT>
17

> <PUBCHEM_ATOM_DEF_STEREO_COUNT>
5

> <PUBCHEM_ATOM_UDEF_STEREO_COUNT>
0

> <PUBCHEM_BOND_DEF_STEREO_COUNT>
1

> <PUBCHEM_BOND_UDEF_STEREO_COUNT>
0

> <PUBCHEM_ISOTOPIC_ATOM_COUNT>
0

> <PUBCHEM_COMPONENT_COUNT>
1

> <PUBCHEM_CACTVS_TAUTO_COUNT>
1

> <PUBCHEM_COORDINATE_TYPE>
1
5
255

> <PUBCHEM_BONDANNOTATIONS>
12  15  5
10  2  5
11  3  6
14  4  5
13  5  6

$$$$

