3388
  -OEChem-06251223232D

 85 88  0     0  0  0  0  0  0999 V2000
   11.5263   -7.7327    0.0000 S   0  0  0  0  0  0  0  0  0  0  0  0
   15.9205   -5.2052    0.0000 F   0  0  0  0  0  0  0  0  0  0  0  0
   15.5597   -6.5726    0.0000 F   0  0  0  0  0  0  0  0  0  0  0  0
   14.5531   -4.8444    0.0000 F   0  0  0  0  0  0  0  0  0  0  0  0
    6.3301    0.2673    0.0000 O   0  0  0  0  0  0  0  0  0  0  0  0
    7.1962    1.7673    0.0000 O   0  0  0  0  0  0  0  0  0  0  0  0
    9.7942   -2.7327    0.0000 N   0  0  0  0  0  0  0  0  0  0  0  0
    8.0622   -1.7327    0.0000 N   0  0  0  0  0  0  0  0  0  0  0  0
   11.5263   -5.7327    0.0000 N   0  0  0  0  0  0  0  0  0  0  0  0
    9.7942   -1.7327    0.0000 C   0  0  0  0  0  0  0  0  0  0  0  0
    8.9282   -3.2327    0.0000 C   0  0  0  0  0  0  0  0  0  0  0  0
    8.9282   -1.2327    0.0000 C   0  0  0  0  0  0  0  0  0  0  0  0
    8.0622   -2.7327    0.0000 C   0  0  0  0  0  0  0  0  0  0  0  0
   10.6603   -3.2327    0.0000 C   0  0  0  0  0  0  0  0  0  0  0  0
   10.6603   -4.2327    0.0000 C   0  0  0  0  0  0  0  0  0  0  0  0
    7.1962   -1.2327    0.0000 C   0  0  0  0  0  0  0  0  0  0  0  0
   11.5263   -4.7327    0.0000 C   0  0  0  0  0  0  0  0  0  0  0  0
    7.1962   -0.2327    0.0000 C   0  0  0  0  0  0  0  0  0  0  0  0
   12.3923   -6.2327    0.0000 C   0  0  0  0  0  0  0  0  0  0  0  0
   10.6603   -6.2327    0.0000 C   0  0  0  0  0  0  0  0  0  0  0  0
   12.3923   -7.2327    0.0000 C   0  0  0  0  0  0  0  0  0  0  0  0
   10.6603   -7.2327    0.0000 C   0  0  0  0  0  0  0  0  0  0  0  0
    4.5981    3.2673    0.0000 C   0  0  0  0  0  0  0  0  0  0  0  0
    4.5981    4.2673    0.0000 C   0  0  0  0  0  0  0  0  0  0  0  0
    5.4641    2.7673    0.0000 C   0  0  0  0  0  0  0  0  0  0  0  0
    3.7320    4.7673    0.0000 C   0  0  0  0  0  0  0  0  0  0  0  0
    5.4641    1.7673    0.0000 C   0  0  0  0  0  0  0  0  0  0  0  0
   13.2862   -5.6980    0.0000 C   0  0  0  0  0  0  0  0  0  0  0  0
    3.7320    5.7673    0.0000 C   0  0  0  0  0  0  0  0  0  0  0  0
    6.3301    1.2673    0.0000 C   0  0  0  0  0  0  0  0  0  0  0  0
    9.7663   -5.6980    0.0000 C   0  0  0  0  0  0  0  0  0  0  0  0
    2.8660    6.2673    0.0000 C   0  0  0  0  0  0  0  0  0  0  0  0
   14.1923   -6.2118    0.0000 C   0  0  0  0  0  0  0  0  0  0  0  0
   13.2862   -7.7673    0.0000 C   0  0  0  0  0  0  0  0  0  0  0  0
    9.7663   -7.7673    0.0000 C   0  0  0  0  0  0  0  0  0  0  0  0
   14.1923   -7.2535    0.0000 C   0  0  0  0  0  0  0  0  0  0  0  0
    2.8660    7.2673    0.0000 C   0  0  0  0  0  0  0  0  0  0  0  0
    8.8602   -6.2118    0.0000 C   0  0  0  0  0  0  0  0  0  0  0  0
    8.8602   -7.2535    0.0000 C   0  0  0  0  0  0  0  0  0  0  0  0
   15.0564   -5.7085    0.0000 C   0  0  0  0  0  0  0  0  0  0  0  0
    2.0000    7.7673    0.0000 C   0  0  0  0  0  0  0  0  0  0  0  0
   10.4048   -1.8403    0.0000 H   0  0  0  0  0  0  0  0  0  0  0  0
   10.0063   -1.1501    0.0000 H   0  0  0  0  0  0  0  0  0  0  0  0
    8.5297   -3.7076    0.0000 H   0  0  0  0  0  0  0  0  0  0  0  0
    9.3267   -3.7076    0.0000 H   0  0  0  0  0  0  0  0  0  0  0  0
    9.3267   -0.7577    0.0000 H   0  0  0  0  0  0  0  0  0  0  0  0
    8.5297   -0.7577    0.0000 H   0  0  0  0  0  0  0  0  0  0  0  0
    7.4516   -2.6250    0.0000 H   0  0  0  0  0  0  0  0  0  0  0  0
    7.8501   -3.3153    0.0000 H   0  0  0  0  0  0  0  0  0  0  0  0
   11.2708   -3.3403    0.0000 H   0  0  0  0  0  0  0  0  0  0  0  0
   10.8723   -2.6501    0.0000 H   0  0  0  0  0  0  0  0  0  0  0  0
   10.0497   -4.1250    0.0000 H   0  0  0  0  0  0  0  0  0  0  0  0
   10.4482   -4.8153    0.0000 H   0  0  0  0  0  0  0  0  0  0  0  0
    6.5856   -1.1250    0.0000 H   0  0  0  0  0  0  0  0  0  0  0  0
    6.9841   -1.8153    0.0000 H   0  0  0  0  0  0  0  0  0  0  0  0
   12.1369   -4.8403    0.0000 H   0  0  0  0  0  0  0  0  0  0  0  0
   11.7383   -4.1501    0.0000 H   0  0  0  0  0  0  0  0  0  0  0  0
    7.8067   -0.3403    0.0000 H   0  0  0  0  0  0  0  0  0  0  0  0
    7.4082    0.3499    0.0000 H   0  0  0  0  0  0  0  0  0  0  0  0
    5.2087    4.1597    0.0000 H   0  0  0  0  0  0  0  0  0  0  0  0
    4.8101    4.8499    0.0000 H   0  0  0  0  0  0  0  0  0  0  0  0
    3.9875    3.3750    0.0000 H   0  0  0  0  0  0  0  0  0  0  0  0
    4.3860    2.6847    0.0000 H   0  0  0  0  0  0  0  0  0  0  0  0
    6.0747    2.6597    0.0000 H   0  0  0  0  0  0  0  0  0  0  0  0
    5.6762    3.3499    0.0000 H   0  0  0  0  0  0  0  0  0  0  0  0
    3.1215    4.8750    0.0000 H   0  0  0  0  0  0  0  0  0  0  0  0
    3.5200    4.1847    0.0000 H   0  0  0  0  0  0  0  0  0  0  0  0
    4.8535    1.8750    0.0000 H   0  0  0  0  0  0  0  0  0  0  0  0
    5.2520    1.1847    0.0000 H   0  0  0  0  0  0  0  0  0  0  0  0
   13.2791   -5.0780    0.0000 H   0  0  0  0  0  0  0  0  0  0  0  0
    4.3426    5.6597    0.0000 H   0  0  0  0  0  0  0  0  0  0  0  0
    3.9441    6.3499    0.0000 H   0  0  0  0  0  0  0  0  0  0  0  0
    9.7735   -5.0780    0.0000 H   0  0  0  0  0  0  0  0  0  0  0  0
    2.2554    6.3750    0.0000 H   0  0  0  0  0  0  0  0  0  0  0  0
    2.6540    5.6847    0.0000 H   0  0  0  0  0  0  0  0  0  0  0  0
   13.2791   -8.3873    0.0000 H   0  0  0  0  0  0  0  0  0  0  0  0
    9.7735   -8.3873    0.0000 H   0  0  0  0  0  0  0  0  0  0  0  0
   14.7281   -7.5656    0.0000 H   0  0  0  0  0  0  0  0  0  0  0  0
    3.4766    7.1597    0.0000 H   0  0  0  0  0  0  0  0  0  0  0  0
    3.0781    7.8499    0.0000 H   0  0  0  0  0  0  0  0  0  0  0  0
    8.3245   -5.8998    0.0000 H   0  0  0  0  0  0  0  0  0  0  0  0
    8.3245   -7.5656    0.0000 H   0  0  0  0  0  0  0  0  0  0  0  0
    2.3100    8.3043    0.0000 H   0  0  0  0  0  0  0  0  0  0  0  0
    1.4631    8.0773    0.0000 H   0  0  0  0  0  0  0  0  0  0  0  0
    1.6900    7.2304    0.0000 H   0  0  0  0  0  0  0  0  0  0  0  0
  1 21  1  0  0  0  0
  1 22  1  0  0  0  0
  2 40  1  0  0  0  0
  3 40  1  0  0  0  0
  4 40  1  0  0  0  0
  5 18  1  0  0  0  0
  5 30  1  0  0  0  0
  6 30  2  0  0  0  0
  7 10  1  0  0  0  0
  7 11  1  0  0  0  0
  7 14  1  0  0  0  0
  8 12  1  0  0  0  0
  8 13  1  0  0  0  0
  8 16  1  0  0  0  0
  9 17  1  0  0  0  0
  9 19  1  0  0  0  0
  9 20  1  0  0  0  0
 10 12  1  0  0  0  0
 10 42  1  0  0  0  0
 10 43  1  0  0  0  0
 11 13  1  0  0  0  0
 11 44  1  0  0  0  0
 11 45  1  0  0  0  0
 12 46  1  0  0  0  0
 12 47  1  0  0  0  0
 13 48  1  0  0  0  0
 13 49  1  0  0  0  0
 14 15  1  0  0  0  0
 14 50  1  0  0  0  0
 14 51  1  0  0  0  0
 15 17  1  0  0  0  0
 15 52  1  0  0  0  0
 15 53  1  0  0  0  0
 16 18  1  0  0  0  0
 16 54  1  0  0  0  0
 16 55  1  0  0  0  0
 17 56  1  0  0  0  0
 17 57  1  0  0  0  0
 18 58  1  0  0  0  0
 18 59  1  0  0  0  0
 19 21  2  0  0  0  0
 19 28  1  0  0  0  0
 20 22  1  0  0  0  0
 20 31  2  0  0  0  0
 21 34  1  0  0  0  0
 22 35  2  0  0  0  0
 23 24  1  0  0  0  0
 23 25  1  0  0  0  0
 23 62  1  0  0  0  0
 23 63  1  0  0  0  0
 24 26  1  0  0  0  0
 24 60  1  0  0  0  0
 24 61  1  0  0  0  0
 25 27  1  0  0  0  0
 25 64  1  0  0  0  0
 25 65  1  0  0  0  0
 26 29  1  0  0  0  0
 26 66  1  0  0  0  0
 26 67  1  0  0  0  0
 27 30  1  0  0  0  0
 27 68  1  0  0  0  0
 27 69  1  0  0  0  0
 28 33  2  0  0  0  0
 28 70  1  0  0  0  0
 29 32  1  0  0  0  0
 29 71  1  0  0  0  0
 29 72  1  0  0  0  0
 31 38  1  0  0  0  0
 31 73  1  0  0  0  0
 32 37  1  0  0  0  0
 32 74  1  0  0  0  0
 32 75  1  0  0  0  0
 33 36  1  0  0  0  0
 33 40  1  0  0  0  0
 34 36  2  0  0  0  0
 34 76  1  0  0  0  0
 35 39  1  0  0  0  0
 35 77  1  0  0  0  0
 36 78  1  0  0  0  0
 37 41  1  0  0  0  0
 37 79  1  0  0  0  0
 37 80  1  0  0  0  0
 38 39  2  0  0  0  0
 38 81  1  0  0  0  0
 39 82  1  0  0  0  0
 41 83  1  0  0  0  0
 41 84  1  0  0  0  0
 41 85  1  0  0  0  0
M  END
> <PUBCHEM_COMPOUND_CID>
3388

> <PUBCHEM_COMPOUND_CANONICALIZED>
1

> <PUBCHEM_CACTVS_COMPLEXITY>
765

> <PUBCHEM_CACTVS_HBOND_ACCEPTOR>
9

> <PUBCHEM_CACTVS_HBOND_DONOR>
0

> <PUBCHEM_CACTVS_ROTATABLE_BOND>
16

> <PUBCHEM_CACTVS_SUBSKEYS>
AAADcfB/MYBAAAAAAAAAAAAAAAAAAAAAAAA8eIEAAAAAAACxQAAAHwQAAAAADAjh2BYyyYMABAiIAiTSSACCAAAhChAIiB0IZIgKYHLg0ZGXIAhkgAD4yAeYyKCOEAAAQAAAAQAgAACAAAACAAAAAAAAAA==

> <PUBCHEM_IUPAC_OPENEYE_NAME>
2-[4-[3-[2-(trifluoromethyl)phenothiazin-10-yl]propyl]piperazin-1-yl]ethyl decanoate

> <PUBCHEM_IUPAC_CAS_NAME>
decanoic acid 2-[4-[3-[2-(trifluoromethyl)-10-phenothiazinyl]propyl]-1-piperazinyl]ethyl ester

> <PUBCHEM_IUPAC_NAME>
2-[4-[3-[2-(trifluoromethyl)phenothiazin-10-yl]propyl]piperazin-1-yl]ethyl decanoate

> <PUBCHEM_IUPAC_SYSTEMATIC_NAME>
2-[4-[3-[2-(trifluoromethyl)phenothiazin-10-yl]propyl]piperazin-1-yl]ethyl decanoate

> <PUBCHEM_IUPAC_TRADITIONAL_NAME>
capric acid 2-[4-[3-[2-(trifluoromethyl)phenothiazin-10-yl]propyl]piperazino]ethyl ester

> <PUBCHEM_IUPAC_INCHI>
InChI=1S/C32H44F3N3O2S/c1-2-3-4-5-6-7-8-14-31(39)40-24-23-37-21-19-36(20-22-37)17-11-18-38-27-12-9-10-13-29(27)41-30-16-15-26(25-28(30)38)32(33,34)35/h9-10,12-13,15-16,25H,2-8,11,14,17-24H2,1H3

> <PUBCHEM_IUPAC_INCHIKEY>
VIQCGTZFEYDQMR-UHFFFAOYSA-N

> <PUBCHEM_XLOGP3>
9

> <PUBCHEM_EXACT_MASS>
591.310633

> <PUBCHEM_MOLECULAR_FORMULA>
C32H44F3N3O2S

> <PUBCHEM_MOLECULAR_WEIGHT>
591.77087

> <PUBCHEM_OPENEYE_CAN_SMILES>
CCCCCCCCCC(=O)OCCN1CCN(CC1)CCCN2C3=CC=CC=C3SC4=C2C=C(C=C4)C(F)(F)F

> <PUBCHEM_OPENEYE_ISO_SMILES>
CCCCCCCCCC(=O)OCCN1CCN(CC1)CCCN2C3=CC=CC=C3SC4=C2C=C(C=C4)C(F)(F)F

> <PUBCHEM_CACTVS_TPSA>
61.3

> <PUBCHEM_MONOISOTOPIC_WEIGHT>
591.310633

> <PUBCHEM_TOTAL_CHARGE>
0

> <PUBCHEM_HEAVY_ATOM_COUNT>
41

> <PUBCHEM_ATOM_DEF_STEREO_COUNT>
0

> <PUBCHEM_ATOM_UDEF_STEREO_COUNT>
0

> <PUBCHEM_BOND_DEF_STEREO_COUNT>
0

> <PUBCHEM_BOND_UDEF_STEREO_COUNT>
0

> <PUBCHEM_ISOTOPIC_ATOM_COUNT>
0

> <PUBCHEM_COMPONENT_COUNT>
1

> <PUBCHEM_CACTVS_TAUTO_COUNT>
1

> <PUBCHEM_COORDINATE_TYPE>
1
5
255

> <PUBCHEM_BONDANNOTATIONS>
19  21  8
19  28  8
20  22  8
20  31  8
21  34  8
22  35  8
28  33  8
31  38  8
33  36  8
34  36  8
35  39  8
38  39  8

$$$$

