6325446
  -OEChem-07051212562D

 47 49  0     1  0  0  0  0  0999 V2000
    2.2788   -0.0920    0.0000 O   0  0  0  0  0  0  0  0  0  0  0  0
    4.8479   -0.4010    0.0000 O   0  0  0  0  0  0  0  0  0  0  0  0
    6.8648    0.3182    0.0000 O   0  0  0  0  0  0  0  0  0  0  0  0
    3.0878   -0.6798    0.0000 C   0  0  2  0  0  0  0  0  0  0  0  0
    2.2788   -1.2676    0.0000 C   0  0  0  0  0  0  0  0  0  0  0  0
    2.5878   -2.2186    0.0000 C   0  0  2  0  0  0  0  0  0  0  0  0
    3.8968   -1.2676    0.0000 C   0  0  0  0  0  0  0  0  0  0  0  0
    3.8968   -0.0920    0.0000 C   0  0  0  0  0  0  0  0  0  0  0  0
    3.5878   -2.2186    0.0000 C   0  0  0  0  0  0  0  0  0  0  0  0
    2.5878    0.8590    0.0000 C   0  0  0  0  0  0  0  0  0  0  0  0
    3.5878    0.8590    0.0000 C   0  0  0  0  0  0  0  0  0  0  0  0
    3.1061    1.6542    0.0000 C   0  0  0  0  0  0  0  0  0  0  0  0
    3.9734    2.0396    0.0000 C   0  0  0  0  0  0  0  0  0  0  0  0
    2.0000   -3.0277    0.0000 C   0  0  0  0  0  0  0  0  0  0  0  0
    4.8401   -1.1630    0.0000 C   0  0  0  0  0  0  0  0  0  0  0  0
    4.5013    1.2658    0.0000 C   0  0  0  0  0  0  0  0  0  0  0  0
    4.1276    3.0277    0.0000 C   0  0  0  0  0  0  0  0  0  0  0  0
    3.1658    2.6294    0.0000 C   0  0  0  0  0  0  0  0  0  0  0  0
    4.9108    1.8915    0.0000 C   0  0  0  0  0  0  0  0  0  0  0  0
    5.5750   -0.5623    0.0000 C   0  0  0  0  0  0  0  0  0  0  0  0
    5.6171    1.2575    0.0000 C   0  0  0  0  0  0  0  0  0  0  0  0
    5.8650    0.3413    0.0000 C   0  0  0  0  0  0  0  0  0  0  0  0
    6.4014   -1.1254    0.0000 C   0  0  0  0  0  0  0  0  0  0  0  0
    1.9688   -0.7307    0.0000 H   0  0  0  0  0  0  0  0  0  0  0  0
    1.7124   -1.5198    0.0000 H   0  0  0  0  0  0  0  0  0  0  0  0
    1.9754   -2.1217    0.0000 H   0  0  0  0  0  0  0  0  0  0  0  0
    3.9522   -2.7202    0.0000 H   0  0  0  0  0  0  0  0  0  0  0  0
    3.0526    2.2718    0.0000 H   0  0  0  0  0  0  0  0  0  0  0  0
    3.5082    1.1822    0.0000 H   0  0  0  0  0  0  0  0  0  0  0  0
    1.4984   -2.6632    0.0000 H   0  0  0  0  0  0  0  0  0  0  0  0
    1.6356   -3.5292    0.0000 H   0  0  0  0  0  0  0  0  0  0  0  0
    2.5016   -3.3921    0.0000 H   0  0  0  0  0  0  0  0  0  0  0  0
    5.0803   -1.7346    0.0000 H   0  0  0  0  0  0  0  0  0  0  0  0
    4.7535    0.6994    0.0000 H   0  0  0  0  0  0  0  0  0  0  0  0
    5.0677    1.5180    0.0000 H   0  0  0  0  0  0  0  0  0  0  0  0
    4.2492    1.8322    0.0000 H   0  0  0  0  0  0  0  0  0  0  0  0
    4.7401    2.9321    0.0000 H   0  0  0  0  0  0  0  0  0  0  0  0
    4.2232    3.6402    0.0000 H   0  0  0  0  0  0  0  0  0  0  0  0
    3.5150    3.1233    0.0000 H   0  0  0  0  0  0  0  0  0  0  0  0
    3.5315    3.1301    0.0000 H   0  0  0  0  0  0  0  0  0  0  0  0
    2.6651    2.9951    0.0000 H   0  0  0  0  0  0  0  0  0  0  0  0
    2.8001    2.1288    0.0000 H   0  0  0  0  0  0  0  0  0  0  0  0
    5.1772    2.4514    0.0000 H   0  0  0  0  0  0  0  0  0  0  0  0
    6.1451    1.5825    0.0000 H   0  0  0  0  0  0  0  0  0  0  0  0
    6.0523   -1.6378    0.0000 H   0  0  0  0  0  0  0  0  0  0  0  0
    6.9138   -1.4744    0.0000 H   0  0  0  0  0  0  0  0  0  0  0  0
    6.7505   -0.6130    0.0000 H   0  0  0  0  0  0  0  0  0  0  0  0
  1  4  1  0  0  0  0
  1 10  1  0  0  0  0
  2  8  2  0  0  0  0
  3 22  2  0  0  0  0
  4  5  1  6  0  0  0
  4  7  1  0  0  0  0
  4  8  1  0  0  0  0
  5  6  1  0  0  0  0
  5 24  1  0  0  0  0
  5 25  1  0  0  0  0
  6  9  1  0  0  0  0
  6 14  1  6  0  0  0
  6 26  1  0  0  0  0
  7  9  2  0  0  0  0
  7 15  1  0  0  0  0
  8 11  1  0  0  0  0
  9 27  1  0  0  0  0
 10 11  2  0  0  0  0
 10 12  1  0  0  0  0
 11 16  1  0  0  0  0
 12 13  1  0  0  0  0
 12 28  1  0  0  0  0
 12 29  1  0  0  0  0
 13 17  1  0  0  0  0
 13 18  1  0  0  0  0
 13 19  1  0  0  0  0
 14 30  1  0  0  0  0
 14 31  1  0  0  0  0
 14 32  1  0  0  0  0
 15 20  2  0  0  0  0
 15 33  1  0  0  0  0
 16 34  1  0  0  0  0
 16 35  1  0  0  0  0
 16 36  1  0  0  0  0
 17 37  1  0  0  0  0
 17 38  1  0  0  0  0
 17 39  1  0  0  0  0
 18 40  1  0  0  0  0
 18 41  1  0  0  0  0
 18 42  1  0  0  0  0
 19 21  2  0  0  0  0
 19 43  1  0  0  0  0
 20 22  1  0  0  0  0
 20 23  1  0  0  0  0
 21 22  1  0  0  0  0
 21 44  1  0  0  0  0
 23 45  1  0  0  0  0
 23 46  1  0  0  0  0
 23 47  1  0  0  0  0
M  END
> <PUBCHEM_COMPOUND_CID>
6325446

> <PUBCHEM_COMPOUND_CANONICALIZED>
1

> <PUBCHEM_CACTVS_COMPLEXITY>
715

> <PUBCHEM_CACTVS_HBOND_ACCEPTOR>
3

> <PUBCHEM_CACTVS_HBOND_DONOR>
0

> <PUBCHEM_CACTVS_ROTATABLE_BOND>
0

> <PUBCHEM_CACTVS_SUBSKEYS>
AAADceB4MAAAAAAAAAAAAAAAAAAAAQIAAAAAAAAAAAAAAAAAAAAAGgAAAAAAD0SAgAACAAAABACIAqBSAAIACAAgIAAICAFAAEgIBBIAIQQCEAAEwAAIoYMIgEAPAAAAAAAAAAAAAAAAAAAAAAAAAAAAAA==

> <PUBCHEM_IUPAC_INCHI>
InChI=1S/C20H24O3/c1-12-8-15-9-13(2)16(21)6-7-19(4,5)11-17-14(3)18(22)20(15,10-12)23-17/h6-9,12H,10-11H2,1-5H3/b7-6+,13-9-/t12-,20+/m0/s1

> <PUBCHEM_IUPAC_INCHIKEY>
MJNNONLDVCCGCA-ZQHAHMAHSA-N

> <PUBCHEM_XLOGP3_AA>
3.7

> <PUBCHEM_EXACT_MASS>
312.172545

> <PUBCHEM_MOLECULAR_FORMULA>
C20H24O3

> <PUBCHEM_MOLECULAR_WEIGHT>
312.40276

> <PUBCHEM_OPENEYE_CAN_SMILES>
CC1CC23C(=C1)C=C(C(=O)C=CC(CC(=C(C2=O)C)O3)(C)C)C

> <PUBCHEM_OPENEYE_ISO_SMILES>
C[C@@H]1C[C@@]23C(=C1)/C=C(\C(=O)/C=C/C(CC(=C(C2=O)C)O3)(C)C)/C

> <PUBCHEM_CACTVS_TPSA>
43.4

> <PUBCHEM_MONOISOTOPIC_WEIGHT>
312.172545

> <PUBCHEM_TOTAL_CHARGE>
0

> <PUBCHEM_HEAVY_ATOM_COUNT>
23

> <PUBCHEM_ATOM_DEF_STEREO_COUNT>
2

> <PUBCHEM_ATOM_UDEF_STEREO_COUNT>
0

> <PUBCHEM_BOND_DEF_STEREO_COUNT>
2

> <PUBCHEM_BOND_UDEF_STEREO_COUNT>
0

> <PUBCHEM_ISOTOPIC_ATOM_COUNT>
0

> <PUBCHEM_COMPONENT_COUNT>
1

> <PUBCHEM_CACTVS_TAUTO_COUNT>
12

> <PUBCHEM_COORDINATE_TYPE>
1
5
255

> <PUBCHEM_BONDANNOTATIONS>
4  5  6
6  14  6

$$$$

