   Color/Form

     * Triclinic plates, rods from water
     * Thick, syrupy liquid or colorless crystals
     * Tablets

   from [1]HSDB

   Odor
        Spicey
   from [2]HSDB

   Boiling Point
        198.5 deg C at 760 mm Hg, 95.0-96 deg C at 11.5 mm Hg
   from [3]HSDB

   Melting Point
        62.5-64 deg C
   from [4]HSDB

   Critical Temperature and Pressure
        Critical temperature: 680.62 K; critical pressure: 4857.97 kPa
   (est)
   from [5]HSDB

   Density/Specific Gravity
        0.972
   from [6]HSDB

   Dissociation Constants

     * pKa = 4.96 at 18 deg C
     * pk = 5.02 at 25 deg C

   from [7]HSDB

   Heat of Combustion
        Molar heat of combusion: 635.1 kilocalories
   from [8]HSDB

   Octanol/Water Partition Coefficient
        log Kow = 1.40 (est)
   from [9]HSDB

   Solubilities

     * Sparingly soluble in cold water; freely soluble in hot water.
       Soluble in alcohol, ether.
     * In water, 1.9X10+4 mg/L at 25 deg C (est)

   from [10]HSDB

   Spectral Properties

     * Index of refraction: 1.4342 at 81 deg C/D
     * UV maximum (water): 216-217 nm (molar extinction coefficient:
       10700)
     * MASS: 71188 (NIST/EPA/MSDC Mass Spectral Database, 1990 Version),
       245 (Atlas of Mass Spectral Data, John Wiley & Sons, New York)
     * IR: 22001 (Sadtler Research Laboratories IR prism collection)
     * UV: 5-40 (Phillip et al., Organic Electronic Spectral Data, John
       Wiley & Sons, New York)

   from [11]HSDB

   Vapor Pressure
        1.33X10-1 mm Hg at 25 deg C
   from [12]HSDB

   Other Chemical/Physical Properties

     * Density: 0.9641 g/cu cm at 76 deg C
     * Volatile with steam
     * Combustible
     * Crystals; melting point: 75-76 deg C. /Amide/
     * Liquid; density: 0.9498 at 20 deg C/4 deg C; boiling point: 139.6
       deg C at 766 mm Hg; index of refraction: 1.4370 at 20 deg C/D.
       /Methyl ester/
     * Liquid; density: 0.9247 at 20 deg C/4 deg C; boiling point: 156 deg
       C at 752 mm Hg, 55.5 deg C at 11 mm Hg; index of refraction: 1.4350
       at 20 deg C/D; heat of formation: 953.2 kilocalories at constant
       volume, 954.4 kilocalories at constant pressure. /Ethyl ester/
     * Liquid; pleasant odor; density: 0.9279 at 15 deg C/15 deg C;
       boiling point: 149-151 deg C at 7 mm Hg. /Geranyl ester/
     * Leaflets; much less soluble in water than calcium angelate: 100
       parts of aqueous solution saturated at 17 deg C contains 6.05 parts
       of anhydrous calcium tiglate. /Calcium salt trihydrate/
     * Henry's Law constant = 7.1X10-7 atm-cu m/mole at 25 deg C (est)
     * Hydroxyl radical reaction rate constant = 3.1X10-11 cu
       cm/molecule-sec at 25 deg C (est)

   from [13]HSDB

   Computed Properties
   Molecular Weight                  100.11582 [g/mol]
   Molecular Formula                 C[5]H[8]O[2]
   XLogP3-AA                         1
   H-Bond Donor                      1
   H-Bond Acceptor                   2
   Rotatable Bond Count              1
   Exact Mass                        100.052429
   MonoIsotopic Mass                 100.052429
   Topological Polar Surface Area    37.3
   Heavy Atom Count                  7
   Formal Charge                     0
   Complexity                        103
   Isotope Atom Count                0
   Defined Atom Stereocenter Count   0
   Undefined Atom Stereocenter Count 0
   Defined Bond Stereocenter Count   1
   Undefined Bond Stereocenter Count 0
   Covalently-Bonded Unit Count      1
   Feature 3D Acceptor Count         2
   Feature 3D Anion Count            1
   Feature 3D Hydrophobe Count       2
   Effective Rotor Count             1
   Conformer Sampling RMSD           0.4
   CID Conformer Count               [14]2

References

   1. http://toxnet.nlm.nih.gov/cgi-bin/sis/search/r?dbs+hsdb:@term+@rn+@rel+80-59-1
   2. http://toxnet.nlm.nih.gov/cgi-bin/sis/search/r?dbs+hsdb:@term+@rn+@rel+80-59-1
   3. http://toxnet.nlm.nih.gov/cgi-bin/sis/search/r?dbs+hsdb:@term+@rn+@rel+80-59-1
   4. http://toxnet.nlm.nih.gov/cgi-bin/sis/search/r?dbs+hsdb:@term+@rn+@rel+80-59-1
   5. http://toxnet.nlm.nih.gov/cgi-bin/sis/search/r?dbs+hsdb:@term+@rn+@rel+80-59-1
   6. http://toxnet.nlm.nih.gov/cgi-bin/sis/search/r?dbs+hsdb:@term+@rn+@rel+80-59-1
   7. http://toxnet.nlm.nih.gov/cgi-bin/sis/search/r?dbs+hsdb:@term+@rn+@rel+80-59-1
   8. http://toxnet.nlm.nih.gov/cgi-bin/sis/search/r?dbs+hsdb:@term+@rn+@rel+80-59-1
   9. http://toxnet.nlm.nih.gov/cgi-bin/sis/search/r?dbs+hsdb:@term+@rn+@rel+80-59-1
  10. http://toxnet.nlm.nih.gov/cgi-bin/sis/search/r?dbs+hsdb:@term+@rn+@rel+80-59-1
  11. http://toxnet.nlm.nih.gov/cgi-bin/sis/search/r?dbs+hsdb:@term+@rn+@rel+80-59-1
  12. http://toxnet.nlm.nih.gov/cgi-bin/sis/search/r?dbs+hsdb:@term+@rn+@rel+80-59-1
  13. http://toxnet.nlm.nih.gov/cgi-bin/sis/search/r?dbs+hsdb:@term+@rn+@rel+80-59-1
  14. http://pubchem.ncbi.nlm.nih.gov/vw3d/vw3d.cgi?cid=125468
