   Color/Form
        Clear, colorless liquid
   from [1]HSDB

   Odor

     * Peculiar odor
     * Distinctive, aromatic odor
     * Sweet odor

   from [2]HSDB

   Boiling Point
        164.7 deg C at 760 mm Hg
   from [3]HSDB

   Melting Point
        -44.8 deg C
   from [4]HSDB

   Critical Temperature and Pressure
        Critical temperature = 364.36 deg C; Critical pressure =
   3.1269X10+6 Pa
   from [5]HSDB

   Density/Specific Gravity
        0.8637 at 20 deg C/4 deg C
   from [6]HSDB

   Heat of Vaporization
        5193.1 kJ/mol at 25 deg C
   from [7]HSDB

   Octanol/Water Partition Coefficient
        log Kow = 3.42
   from [8]HSDB

   Solubilities

     * Miscible with alcohol, ether, benzene
     * Miscible in ethanol, ethyl ether, acetone
     * Miscible with oxygenated and aromatic solvents.
     * In water, 48.2 mg/L at 25 deg C

   from [9]HSDB

   Spectral Properties

     * Index of refraction: 1.49541 at 18 deg C/D
     * MAX ABSORPTION (ALCOHOL): 258 NM (LOG E= 2.2); 263 NM (LOG E= 2.2);
       267 NM (LOG E= 2.2); 273 NM (LOG E= 2.3)
     * Intense mass spectral peaks at 105 m/z and 120 m/z
     * IR: 6116 (Coblentz Society Spectral Collection)
     * UV: 1256 (Sadtler Research Laboratories Spectral Collection)
     * NMR: 241 (Varian Associates NMR Spectra Catalogue)
     * MASS: 57765 (NIST/EPA/MSDC Mass Spectral database, 1990 version)
     * C13 NMR: 351 (Johnson and Jankowski, Carbon 13 NMR Spectra, John
       Wiley and Sons, New York)
     * Raman: 91 (Dollish et al, Characteristic Raman Frequencies of
       Organic Compounds, John Wiley and Sons, New York)

   from [10]HSDB

   Surface Tension
        28.84 mN/m at 20 deg C
   from [11]HSDB

   Vapor Density
        1.006 AT 20 DEG C (AIR = 1)
   from [12]HSDB

   Vapor Pressure
        2.48 mm Hg at 25 deg C
   from [13]HSDB

   Other Chemical/Physical Properties

     * CONVERSION FACTORS: 1 PPM= 4.92 MG/CU M; 1 MG/L= 203.5 PPM
     * Vapor pressure = 1.86 mm Hg @ 20 deg C
     * Liquid Molar Volume= 0.139524 cu m/kmol; IG Heat of Formation=
       -1.59X10+7 J/kmol; Heat of Fusion at the melting point= 9.5144X10+6
       J/kmol
     * Boiling point = 98.9 deg C at 100 mm Hg, 61 deg C at 20 mm Hg, 47.4
       deg C at 10 mm Hg, and 9.6 deg C at 1.0 mm Hg
     * Critical volume = 427 cu cm/mole
     * Heat of formation = -63.4 kJ/mole liquid at 25 deg C
     * Specific heat = 200.5 J/mole-K liquid at 25 deg C
     * Henry's Law constant = 8.77X10-3 atm-cu m/mole at 25 deg C
     * Hydroxyl radical reaction rate constant = 5.75X10-11 cu
       cm/molec-sec at 25 deg C

   from [14]HSDB

   Computed Properties
   Molecular Weight                  120.19158 [g/mol]
   Molecular Formula                 C[9]H[12]
   XLogP3                            3.4
   H-Bond Donor                      0
   H-Bond Acceptor                   0
   Rotatable Bond Count              0
   Exact Mass                        120.0939
   MonoIsotopic Mass                 120.0939
   Topological Polar Surface Area    0
   Heavy Atom Count                  9
   Formal Charge                     0
   Complexity                        55
   Isotope Atom Count                0
   Defined Atom Stereocenter Count   0
   Undefined Atom Stereocenter Count 0
   Defined Bond Stereocenter Count   0
   Undefined Bond Stereocenter Count 0
   Covalently-Bonded Unit Count      1
   Feature 3D Ring Count             1
   Effective Rotor Count             0
   Conformer Sampling RMSD           0.4
   CID Conformer Count               [15]1

References

   1. http://toxnet.nlm.nih.gov/cgi-bin/sis/search/r?dbs+hsdb:@term+@rn+@rel+108-67-8
   2. http://toxnet.nlm.nih.gov/cgi-bin/sis/search/r?dbs+hsdb:@term+@rn+@rel+108-67-8
   3. http://toxnet.nlm.nih.gov/cgi-bin/sis/search/r?dbs+hsdb:@term+@rn+@rel+108-67-8
   4. http://toxnet.nlm.nih.gov/cgi-bin/sis/search/r?dbs+hsdb:@term+@rn+@rel+108-67-8
   5. http://toxnet.nlm.nih.gov/cgi-bin/sis/search/r?dbs+hsdb:@term+@rn+@rel+108-67-8
   6. http://toxnet.nlm.nih.gov/cgi-bin/sis/search/r?dbs+hsdb:@term+@rn+@rel+108-67-8
   7. http://toxnet.nlm.nih.gov/cgi-bin/sis/search/r?dbs+hsdb:@term+@rn+@rel+108-67-8
   8. http://toxnet.nlm.nih.gov/cgi-bin/sis/search/r?dbs+hsdb:@term+@rn+@rel+108-67-8
   9. http://toxnet.nlm.nih.gov/cgi-bin/sis/search/r?dbs+hsdb:@term+@rn+@rel+108-67-8
  10. http://toxnet.nlm.nih.gov/cgi-bin/sis/search/r?dbs+hsdb:@term+@rn+@rel+108-67-8
  11. http://toxnet.nlm.nih.gov/cgi-bin/sis/search/r?dbs+hsdb:@term+@rn+@rel+108-67-8
  12. http://toxnet.nlm.nih.gov/cgi-bin/sis/search/r?dbs+hsdb:@term+@rn+@rel+108-67-8
  13. http://toxnet.nlm.nih.gov/cgi-bin/sis/search/r?dbs+hsdb:@term+@rn+@rel+108-67-8
  14. http://toxnet.nlm.nih.gov/cgi-bin/sis/search/r?dbs+hsdb:@term+@rn+@rel+108-67-8
  15. http://pubchem.ncbi.nlm.nih.gov/vw3d/vw3d.cgi?cid=7947
