168082
  -OEChem-07051213092D

 31 31  0     0  0  0  0  0  0999 V2000
    6.7985    1.2730    0.0000 O   0  0  0  0  0  0  0  0  0  0  0  0
    6.2633   -0.3743    0.0000 N   0  0  0  0  0  0  0  0  0  0  0  0
    2.8090   -1.0131    0.0000 N   0  0  0  0  0  0  0  0  0  0  0  0
    2.3090    0.5257    0.0000 N   0  0  0  0  0  0  0  0  0  0  0  0
    8.7006    0.6550    0.0000 C   0  0  0  0  0  0  0  0  0  0  0  0
    7.9575   -0.0141    0.0000 C   0  0  0  0  0  0  0  0  0  0  0  0
    5.3122   -0.0652    0.0000 C   0  0  0  0  0  0  0  0  0  0  0  0
    4.5691   -0.7344    0.0000 C   0  0  0  0  0  0  0  0  0  0  0  0
    7.0064    0.2949    0.0000 C   0  0  0  0  0  0  0  0  0  0  0  0
    9.6517    0.3460    0.0000 C   0  0  0  0  0  0  0  0  0  0  0  0
    8.4927    1.6331    0.0000 C   0  0  0  0  0  0  0  0  0  0  0  0
    3.6180   -0.4254    0.0000 C   0  0  0  0  0  0  0  0  0  0  0  0
    3.3090    0.5257    0.0000 C   0  0  0  0  0  0  0  0  0  0  0  0
    2.0000   -0.4254    0.0000 C   0  0  0  0  0  0  0  0  0  0  0  0
    8.1110    0.8466    0.0000 H   0  0  0  0  0  0  0  0  0  0  0  0
    7.6664   -0.5616    0.0000 H   0  0  0  0  0  0  0  0  0  0  0  0
    8.4461   -0.3959    0.0000 H   0  0  0  0  0  0  0  0  0  0  0  0
    5.6033    0.4822    0.0000 H   0  0  0  0  0  0  0  0  0  0  0  0
    4.8237    0.3165    0.0000 H   0  0  0  0  0  0  0  0  0  0  0  0
    4.2780   -1.2818    0.0000 H   0  0  0  0  0  0  0  0  0  0  0  0
    5.0577   -1.1161    0.0000 H   0  0  0  0  0  0  0  0  0  0  0  0
    9.4601   -0.2437    0.0000 H   0  0  0  0  0  0  0  0  0  0  0  0
   10.2413    0.1544    0.0000 H   0  0  0  0  0  0  0  0  0  0  0  0
    9.8433    0.9356    0.0000 H   0  0  0  0  0  0  0  0  0  0  0  0
    9.0992    1.7620    0.0000 H   0  0  0  0  0  0  0  0  0  0  0  0
    8.3638    2.2396    0.0000 H   0  0  0  0  0  0  0  0  0  0  0  0
    7.8863    1.5042    0.0000 H   0  0  0  0  0  0  0  0  0  0  0  0
    6.3922   -0.9807    0.0000 H   0  0  0  0  0  0  0  0  0  0  0  0
    2.8090   -1.6331    0.0000 H   0  0  0  0  0  0  0  0  0  0  0  0
    3.6734    1.0273    0.0000 H   0  0  0  0  0  0  0  0  0  0  0  0
    1.4103   -0.6169    0.0000 H   0  0  0  0  0  0  0  0  0  0  0  0
  1  9  2  0  0  0  0
  2  7  1  0  0  0  0
  2  9  1  0  0  0  0
  2 28  1  0  0  0  0
  3 12  1  0  0  0  0
  3 14  1  0  0  0  0
  3 29  1  0  0  0  0
  4 13  1  0  0  0  0
  4 14  2  0  0  0  0
  5  6  1  0  0  0  0
  5 10  1  0  0  0  0
  5 11  1  0  0  0  0
  5 15  1  0  0  0  0
  6  9  1  0  0  0  0
  6 16  1  0  0  0  0
  6 17  1  0  0  0  0
  7  8  1  0  0  0  0
  7 18  1  0  0  0  0
  7 19  1  0  0  0  0
  8 12  1  0  0  0  0
  8 20  1  0  0  0  0
  8 21  1  0  0  0  0
 10 22  1  0  0  0  0
 10 23  1  0  0  0  0
 10 24  1  0  0  0  0
 11 25  1  0  0  0  0
 11 26  1  0  0  0  0
 11 27  1  0  0  0  0
 12 13  2  0  0  0  0
 13 30  1  0  0  0  0
 14 31  1  0  0  0  0
M  END
> <PUBCHEM_COMPOUND_CID>
168082

> <PUBCHEM_COMPOUND_CANONICALIZED>
1

> <PUBCHEM_CACTVS_COMPLEXITY>
182

> <PUBCHEM_CACTVS_HBOND_ACCEPTOR>
2

> <PUBCHEM_CACTVS_HBOND_DONOR>
2

> <PUBCHEM_CACTVS_ROTATABLE_BOND>
5

> <PUBCHEM_CACTVS_SUBSKEYS>
AAADceBzIAAAAAAAAAAAAAAAAAAAAWAAAAAAAAAAAAAAAAABgAAAHgAQAAAADQjBlgQvkBbJkACoARV3dAAAgC2xEqABUYE4cAiAaBBAyQEUAAAIFgLAQCAAAAAIAAAAAAAAAAAAAAAAAAAAAAAAAAAAAA==

> <PUBCHEM_IUPAC_OPENEYE_NAME>
N-[2-(1H-imidazol-5-yl)ethyl]-3-methyl-butanamide

> <PUBCHEM_IUPAC_CAS_NAME>
N-[2-(1H-imidazol-5-yl)ethyl]-3-methylbutanamide

> <PUBCHEM_IUPAC_NAME>
N-[2-(1H-imidazol-5-yl)ethyl]-3-methylbutanamide

> <PUBCHEM_IUPAC_SYSTEMATIC_NAME>
N-[2-(1H-imidazol-5-yl)ethyl]-3-methyl-butanamide

> <PUBCHEM_IUPAC_TRADITIONAL_NAME>
N-[2-(1H-imidazol-5-yl)ethyl]-3-methyl-butyramide

> <PUBCHEM_IUPAC_INCHI>
InChI=1S/C10H17N3O/c1-8(2)5-10(14)12-4-3-9-6-11-7-13-9/h6-8H,3-5H2,1-2H3,(H,11,13)(H,12,14)

> <PUBCHEM_IUPAC_INCHIKEY>
IYVCRLBHSDTDKL-UHFFFAOYSA-N

> <PUBCHEM_XLOGP3>
0.8

> <PUBCHEM_EXACT_MASS>
195.137162

> <PUBCHEM_MOLECULAR_FORMULA>
C10H17N3O

> <PUBCHEM_MOLECULAR_WEIGHT>
195.26148

> <PUBCHEM_OPENEYE_CAN_SMILES>
CC(C)CC(=O)NCCC1=CN=CN1

> <PUBCHEM_OPENEYE_ISO_SMILES>
CC(C)CC(=O)NCCC1=CN=CN1

> <PUBCHEM_CACTVS_TPSA>
57.8

> <PUBCHEM_MONOISOTOPIC_WEIGHT>
195.137162

> <PUBCHEM_TOTAL_CHARGE>
0

> <PUBCHEM_HEAVY_ATOM_COUNT>
14

> <PUBCHEM_ATOM_DEF_STEREO_COUNT>
0

> <PUBCHEM_ATOM_UDEF_STEREO_COUNT>
0

> <PUBCHEM_BOND_DEF_STEREO_COUNT>
0

> <PUBCHEM_BOND_UDEF_STEREO_COUNT>
0

> <PUBCHEM_ISOTOPIC_ATOM_COUNT>
0

> <PUBCHEM_COMPONENT_COUNT>
1

> <PUBCHEM_CACTVS_TAUTO_COUNT>
4

> <PUBCHEM_COORDINATE_TYPE>
1
5
255

> <PUBCHEM_BONDANNOTATIONS>
12  13  8
3  12  8
3  14  8
4  13  8
4  14  8

$$$$

