   Color/Form
        Needles from acetone/light petroleum
   from [1]HSDB

   Melting Point
        182-183 deg C
   from [2]HSDB

   Octanol/Water Partition Coefficient
        log Kow = 13.27 (est)
   from [3]HSDB

   Solubilities
        In water, 7.9X10-10 mg/L at 25 deg C (est)
   from [4]HSDB

   Spectral Properties
        UV max: 503 nm (CS2); 472 nm (methanol); 466-467 nm (hexane); 485
   nm (chloroform)
   from [5]HSDB

   Other Chemical/Physical Properties

     * Reported as shiny purple platelets with gold luster from pyridine;
       MP: 216 deg C; readily soluble in pyridine
     * Stout, blue-black needles, MP 203-205 deg C (vac) /Diacetate/
     * Henry's Law constant = 1.1x10-4 atm-cu cm/mol at 25 deg C (est)
     * Hydroxyl radical reaction rate constant = 7.2X10-10 cu-cm/molec-sec
       at 25 deg C (est)

   from [6]HSDB

   Computed Properties
   Molecular Weight                  596.83848 [g/mol]
   Molecular Formula                 C[40]H[52]O[4]
   XLogP3-AA                         10.3
   H-Bond Donor                      2
   H-Bond Acceptor                   4
   Rotatable Bond Count              10
   Tautomer Count                    253
   Exact Mass                        596.38656
   MonoIsotopic Mass                 596.38656
   Topological Polar Surface Area    74.6
   Heavy Atom Count                  44
   Formal Charge                     0
   Complexity                        1340
   Isotope Atom Count                0
   Defined Atom Stereocenter Count   2
   Undefined Atom Stereocenter Count 0
   Defined Bond Stereocenter Count   9
   Undefined Bond Stereocenter Count 0
   Covalently-Bonded Unit Count      1
   Feature 3D Acceptor Count         4
   Feature 3D Donor Count            2
   Feature 3D Hydrophobe Count       6
   Feature 3D Ring Count             2
   Effective Rotor Count             11.2
   Conformer Sampling RMSD           1.2
   CID Conformer Count               [7]47

References

   1. http://toxnet.nlm.nih.gov/cgi-bin/sis/search/r?dbs+hsdb:@term+@rn+@rel+472-61-7
   2. http://toxnet.nlm.nih.gov/cgi-bin/sis/search/r?dbs+hsdb:@term+@rn+@rel+472-61-7
   3. http://toxnet.nlm.nih.gov/cgi-bin/sis/search/r?dbs+hsdb:@term+@rn+@rel+472-61-7
   4. http://toxnet.nlm.nih.gov/cgi-bin/sis/search/r?dbs+hsdb:@term+@rn+@rel+472-61-7
   5. http://toxnet.nlm.nih.gov/cgi-bin/sis/search/r?dbs+hsdb:@term+@rn+@rel+472-61-7
   6. http://toxnet.nlm.nih.gov/cgi-bin/sis/search/r?dbs+hsdb:@term+@rn+@rel+472-61-7
   7. http://pubchem.ncbi.nlm.nih.gov/vw3d/vw3d.cgi?cid=5281224
