   Color/Form

     * Colorless gas
     * Colorless gas ... [Note: Shipped as a liquefied compressed gas].

   from [1]HSDB

   Odor

     * Nearly odorless
     * Like carbon tetrachloride
     * ... Faint, sweetish odor ...

   from [2]HSDB

   Boiling Point
        -40.8 deg C @ 760 mm Hg
   from [3]HSDB

   Melting Point
        -157.4 deg C
   from [4]HSDB

   Critical Temperature and Pressure
        Critical temperature: 96.0 deg C; Critical pressure: 48.7 atm
   from [5]HSDB

   Density/Specific Gravity
        1.194 @ 25 deg C
   from [6]HSDB

   Heat of Combustion
        -6.5704X10+07 J/kmol
   from [7]HSDB

   Heat of Vaporization
        101 BTU/lb= 55.9 cal/g= 2.34X10+5 J/kg
   from [8]HSDB

   Octanol/Water Partition Coefficient
        log Kow= 1.08
   from [9]HSDB

   Solubilities

     * 0.28 g/l water @ 77 deg F & 14.7 psia
     * 0.14 g/l water @ 122 deg F & 14.7 psia
     * > 10% in acetone
     * > 10% in chloroform
     * > 10% in ethyl ether
     * Sol in ether, acetone, and chloroform
     * In water, 2770 mg/l @ 25 deg C

   from [10]HSDB

   Spectral Properties

     * Index of refraction: 1.256 @ 25 deg C
     * IR: 3701 (Sadtler Research Laboratories Prism Collection)
     * MASS: 132 (Atlas of Mass Spectral Data, John Wiley & Sons, New
       York)

   from [11]HSDB

   Surface Tension
        1.5 N/cm @ -41 deg C
   from [12]HSDB

   Vapor Density
        3 (Air = 1)
   from [13]HSDB

   Vapor Pressure
        7,250 mm Hg @ 25 deg C
   from [14]HSDB

   Viscosity
        0.23 mN/sec/sq m @ 25 deg C (liquid); 0.013 mN/sec/sq m @ 25 deg C
   (gas)
   from [15]HSDB

   Other Chemical/Physical Properties

     * 1 MG/L= 282.6 PPM & 1 PPM= 3.54 MG/CU M @ 25 DEG C, 760 MM HG
     * Density at bp: 4.82 g/l (gas)
     * Ratio of specific heats of vapor (gas): 1.13 (est)
     * Dielectric constant: 6.11 @ 24 deg C; dipole moment: 1.4 debyes
       (gas)
     * Enthalpy @ 25 deg C: -115.6 kcal/mole (gas); Gibbs (free) energy of
       formation @ 25 deg C: -108.1 kcal/mole (gas); entropy @ 25 deg C:
       67.12 cal/deg/mole (gas); heat capacity @ 25 deg C: 13.35
       cal/deg/mole (gas)
     * Density: 1.41 @ -40 deg C (liquid)
     * VP: 201 kPa @ -25 deg C; 498 kPa @ 0 deg C; 1044 kPa @ 25 deg C;
       1944 kPa @ 50 deg C; 3317 kPa @ 75 deg C
     * Henry's Law constant= 4.06X10-2 atm-cu m/mole @ 22 deg C
     * Hydroxyl radical rate constant= 4.68X10-15 cu cm/molecule-sec @ 25
       deg C
     * Ozone depletion potential=0.055 (CFC11=1)

   from [16]HSDB

   Computed Properties
   Molecular Weight                  86.468446 [g/mol]
   Molecular Formula                 CHClF[2]
   XLogP3-AA                         1.8
   H-Bond Donor                      0
   H-Bond Acceptor                   2
   Rotatable Bond Count              0
   Exact Mass                        85.973484
   MonoIsotopic Mass                 85.973484
   Topological Polar Surface Area    0
   Heavy Atom Count                  4
   Formal Charge                     0
   Complexity                        13.5
   Isotope Atom Count                0
   Defined Atom Stereocenter Count   0
   Undefined Atom Stereocenter Count 0
   Defined Bond Stereocenter Count   0
   Undefined Bond Stereocenter Count 0
   Covalently-Bonded Unit Count      1
   Effective Rotor Count             0
   Conformer Sampling RMSD           0.4
   CID Conformer Count               [17]1

References

   1. http://toxnet.nlm.nih.gov/cgi-bin/sis/search/r?dbs+hsdb:@term+@rn+@rel+75-45-6
   2. http://toxnet.nlm.nih.gov/cgi-bin/sis/search/r?dbs+hsdb:@term+@rn+@rel+75-45-6
   3. http://toxnet.nlm.nih.gov/cgi-bin/sis/search/r?dbs+hsdb:@term+@rn+@rel+75-45-6
   4. http://toxnet.nlm.nih.gov/cgi-bin/sis/search/r?dbs+hsdb:@term+@rn+@rel+75-45-6
   5. http://toxnet.nlm.nih.gov/cgi-bin/sis/search/r?dbs+hsdb:@term+@rn+@rel+75-45-6
   6. http://toxnet.nlm.nih.gov/cgi-bin/sis/search/r?dbs+hsdb:@term+@rn+@rel+75-45-6
   7. http://toxnet.nlm.nih.gov/cgi-bin/sis/search/r?dbs+hsdb:@term+@rn+@rel+75-45-6
   8. http://toxnet.nlm.nih.gov/cgi-bin/sis/search/r?dbs+hsdb:@term+@rn+@rel+75-45-6
   9. http://toxnet.nlm.nih.gov/cgi-bin/sis/search/r?dbs+hsdb:@term+@rn+@rel+75-45-6
  10. http://toxnet.nlm.nih.gov/cgi-bin/sis/search/r?dbs+hsdb:@term+@rn+@rel+75-45-6
  11. http://toxnet.nlm.nih.gov/cgi-bin/sis/search/r?dbs+hsdb:@term+@rn+@rel+75-45-6
  12. http://toxnet.nlm.nih.gov/cgi-bin/sis/search/r?dbs+hsdb:@term+@rn+@rel+75-45-6
  13. http://toxnet.nlm.nih.gov/cgi-bin/sis/search/r?dbs+hsdb:@term+@rn+@rel+75-45-6
  14. http://toxnet.nlm.nih.gov/cgi-bin/sis/search/r?dbs+hsdb:@term+@rn+@rel+75-45-6
  15. http://toxnet.nlm.nih.gov/cgi-bin/sis/search/r?dbs+hsdb:@term+@rn+@rel+75-45-6
  16. http://toxnet.nlm.nih.gov/cgi-bin/sis/search/r?dbs+hsdb:@term+@rn+@rel+75-45-6
  17. http://pubchem.ncbi.nlm.nih.gov/vw3d/vw3d.cgi?cid=6372
