5281150
  -OEChem-07051212552D

 40 39  0     0  0  0  0  0  0999 V2000
    3.7320   -4.5000    0.0000 O   0  0  0  0  0  0  0  0  0  0  0  0
   11.5263    2.0000    0.0000 C   0  0  0  0  0  0  0  0  0  0  0  0
   10.6603    1.5000    0.0000 C   0  0  0  0  0  0  0  0  0  0  0  0
   11.5263    3.0000    0.0000 C   0  0  0  0  0  0  0  0  0  0  0  0
   10.6603    0.5000    0.0000 C   0  0  0  0  0  0  0  0  0  0  0  0
   12.3923    3.5000    0.0000 C   0  0  0  0  0  0  0  0  0  0  0  0
    9.7942    0.0000    0.0000 C   0  0  0  0  0  0  0  0  0  0  0  0
   12.3923    4.5000    0.0000 C   0  0  0  0  0  0  0  0  0  0  0  0
    9.7942   -1.0000    0.0000 C   0  0  0  0  0  0  0  0  0  0  0  0
    8.9282   -1.5000    0.0000 C   0  0  0  0  0  0  0  0  0  0  0  0
    8.0622   -1.0000    0.0000 C   0  0  0  0  0  0  0  0  0  0  0  0
    7.1962   -1.5000    0.0000 C   0  0  0  0  0  0  0  0  0  0  0  0
    6.3301   -2.0000    0.0000 C   0  0  0  0  0  0  0  0  0  0  0  0
    5.4641   -2.5000    0.0000 C   0  0  0  0  0  0  0  0  0  0  0  0
    4.5981   -3.0000    0.0000 C   0  0  0  0  0  0  0  0  0  0  0  0
    3.7320   -3.5000    0.0000 C   0  0  0  0  0  0  0  0  0  0  0  0
    2.8660   -3.0000    0.0000 C   0  0  0  0  0  0  0  0  0  0  0  0
    2.0000   -3.5000    0.0000 C   0  0  0  0  0  0  0  0  0  0  0  0
   11.7383    1.4174    0.0000 H   0  0  0  0  0  0  0  0  0  0  0  0
   12.1369    2.1077    0.0000 H   0  0  0  0  0  0  0  0  0  0  0  0
   10.4482    2.0826    0.0000 H   0  0  0  0  0  0  0  0  0  0  0  0
   10.0497    1.3923    0.0000 H   0  0  0  0  0  0  0  0  0  0  0  0
   11.3142    3.5826    0.0000 H   0  0  0  0  0  0  0  0  0  0  0  0
   10.9157    2.8923    0.0000 H   0  0  0  0  0  0  0  0  0  0  0  0
   10.8723   -0.0826    0.0000 H   0  0  0  0  0  0  0  0  0  0  0  0
   11.2708    0.6077    0.0000 H   0  0  0  0  0  0  0  0  0  0  0  0
   12.6044    2.9174    0.0000 H   0  0  0  0  0  0  0  0  0  0  0  0
   13.0029    3.6077    0.0000 H   0  0  0  0  0  0  0  0  0  0  0  0
    9.5822    0.5826    0.0000 H   0  0  0  0  0  0  0  0  0  0  0  0
    9.1836   -0.1077    0.0000 H   0  0  0  0  0  0  0  0  0  0  0  0
   13.0123    4.5000    0.0000 H   0  0  0  0  0  0  0  0  0  0  0  0
   12.3923    5.1200    0.0000 H   0  0  0  0  0  0  0  0  0  0  0  0
   11.7723    4.5000    0.0000 H   0  0  0  0  0  0  0  0  0  0  0  0
   10.3312   -1.3100    0.0000 H   0  0  0  0  0  0  0  0  0  0  0  0
    8.9282   -2.1200    0.0000 H   0  0  0  0  0  0  0  0  0  0  0  0
    8.4607   -0.5251    0.0000 H   0  0  0  0  0  0  0  0  0  0  0  0
    7.6636   -0.5251    0.0000 H   0  0  0  0  0  0  0  0  0  0  0  0
    2.8660   -2.3800    0.0000 H   0  0  0  0  0  0  0  0  0  0  0  0
    1.4631   -3.1900    0.0000 H   0  0  0  0  0  0  0  0  0  0  0  0
    2.0000   -4.1200    0.0000 H   0  0  0  0  0  0  0  0  0  0  0  0
  1 16  2  0  0  0  0
  2  3  1  0  0  0  0
  2  4  1  0  0  0  0
  2 19  1  0  0  0  0
  2 20  1  0  0  0  0
  3  5  1  0  0  0  0
  3 21  1  0  0  0  0
  3 22  1  0  0  0  0
  4  6  1  0  0  0  0
  4 23  1  0  0  0  0
  4 24  1  0  0  0  0
  5  7  1  0  0  0  0
  5 25  1  0  0  0  0
  5 26  1  0  0  0  0
  6  8  1  0  0  0  0
  6 27  1  0  0  0  0
  6 28  1  0  0  0  0
  7  9  1  0  0  0  0
  7 29  1  0  0  0  0
  7 30  1  0  0  0  0
  8 31  1  0  0  0  0
  8 32  1  0  0  0  0
  8 33  1  0  0  0  0
  9 10  2  0  0  0  0
  9 34  1  0  0  0  0
 10 11  1  0  0  0  0
 10 35  1  0  0  0  0
 11 12  1  0  0  0  0
 11 36  1  0  0  0  0
 11 37  1  0  0  0  0
 12 13  3  0  0  0  0
 13 14  1  0  0  0  0
 14 15  3  0  0  0  0
 15 16  1  0  0  0  0
 16 17  1  0  0  0  0
 17 18  2  0  0  0  0
 17 38  1  0  0  0  0
 18 39  1  0  0  0  0
 18 40  1  0  0  0  0
M  END
> <PUBCHEM_COMPOUND_CID>
5281150

> <PUBCHEM_COMPOUND_CANONICALIZED>
1

> <PUBCHEM_CACTVS_COMPLEXITY>
400

> <PUBCHEM_CACTVS_HBOND_ACCEPTOR>
1

> <PUBCHEM_CACTVS_HBOND_DONOR>
0

> <PUBCHEM_CACTVS_ROTATABLE_BOND>
9

> <PUBCHEM_CACTVS_SUBSKEYS>
AAADceB4IAAAAAAAAAAAAAAAAAAAAAAAAAAAAAAAAAAAAAAAAAAAGgAAAAAACASAgAACAAAAAADIEKBSAAgAAAAgAAAICAAAAEgAAAIAAQAAAAAAgAAIAIMAgIAAAAAAAAAAAAAAAAAAAAAAAAAAAAAAAA==

> <PUBCHEM_IUPAC_OPENEYE_NAME>
(9Z)-heptadeca-1,9-dien-4,6-diyn-3-one

> <PUBCHEM_IUPAC_CAS_NAME>
(9Z)-3-heptadeca-1,9-dien-4,6-diynone

> <PUBCHEM_IUPAC_NAME>
(9Z)-heptadeca-1,9-dien-4,6-diyn-3-one

> <PUBCHEM_IUPAC_SYSTEMATIC_NAME>
(9Z)-heptadeca-1,9-dien-4,6-diyn-3-one

> <PUBCHEM_IUPAC_TRADITIONAL_NAME>
(9Z)-heptadeca-1,9-dien-4,6-diyn-3-one

> <PUBCHEM_IUPAC_INCHI>
InChI=1S/C17H22O/c1-3-5-6-7-8-9-10-11-12-13-14-15-16-17(18)4-2/h4,10-11H,2-3,5-9,12H2,1H3/b11-10-

> <PUBCHEM_IUPAC_INCHIKEY>
UQEBOJRXTNLPKZ-KHPPLWFESA-N

> <PUBCHEM_XLOGP3_AA>
6

> <PUBCHEM_EXACT_MASS>
242.167065

> <PUBCHEM_MOLECULAR_FORMULA>
C17H22O

> <PUBCHEM_MOLECULAR_WEIGHT>
242.35598

> <PUBCHEM_OPENEYE_CAN_SMILES>
CCCCCCCC=CCC#CC#CC(=O)C=C

> <PUBCHEM_OPENEYE_ISO_SMILES>
CCCCCCC/C=C\CC#CC#CC(=O)C=C

> <PUBCHEM_CACTVS_TPSA>
17.1

> <PUBCHEM_MONOISOTOPIC_WEIGHT>
242.167065

> <PUBCHEM_TOTAL_CHARGE>
0

> <PUBCHEM_HEAVY_ATOM_COUNT>
18

> <PUBCHEM_ATOM_DEF_STEREO_COUNT>
0

> <PUBCHEM_ATOM_UDEF_STEREO_COUNT>
0

> <PUBCHEM_BOND_DEF_STEREO_COUNT>
1

> <PUBCHEM_BOND_UDEF_STEREO_COUNT>
0

> <PUBCHEM_ISOTOPIC_ATOM_COUNT>
0

> <PUBCHEM_COMPONENT_COUNT>
1

> <PUBCHEM_CACTVS_TAUTO_COUNT>
1

> <PUBCHEM_COORDINATE_TYPE>
1
5
255

$$$$

