443007
  -OEChem-07051213002D

 42 44  0     1  0  0  0  0  0999 V2000
    6.3301   -1.0155    0.0000 O   0  0  0  0  0  0  0  0  0  0  0  0
    5.4641    0.4845    0.0000 O   0  0  0  0  0  0  0  0  0  0  0  0
    2.0000   -0.5155    0.0000 O   0  0  0  0  0  0  0  0  0  0  0  0
    2.0000   -2.5155    0.0000 O   0  0  0  0  0  0  0  0  0  0  0  0
    9.1671    2.2695    0.0000 N   0  0  0  0  0  0  0  0  0  0  0  0
    9.9037    1.2868    0.0000 C   0  0  3  0  0  0  0  0  0  0  0  0
    9.6448    0.3209    0.0000 C   0  0  3  0  0  0  0  0  0  0  0  0
   11.7356    0.5280    0.0000 C   0  0  0  0  0  0  0  0  0  0  0  0
   11.4768   -0.4379    0.0000 C   0  0  0  0  0  0  0  0  0  0  0  0
    7.3007    0.4790    0.0000 C   0  0  0  0  0  0  0  0  0  0  0  0
    8.1097   -0.9222    0.0000 C   0  0  0  0  0  0  0  0  0  0  0  0
    7.1962   -0.5155    0.0000 C   0  0  0  0  0  0  0  0  0  0  0  0
    8.6671    3.1355    0.0000 C   0  0  0  0  0  0  0  0  0  0  0  0
    5.4641   -0.5155    0.0000 C   0  0  0  0  0  0  0  0  0  0  0  0
    4.5981   -1.0155    0.0000 C   0  0  0  0  0  0  0  0  0  0  0  0
    3.7320   -0.5155    0.0000 C   0  0  0  0  0  0  0  0  0  0  0  0
    4.5981   -2.0155    0.0000 C   0  0  0  0  0  0  0  0  0  0  0  0
    2.8660   -1.0155    0.0000 C   0  0  0  0  0  0  0  0  0  0  0  0
    3.7320   -2.5155    0.0000 C   0  0  0  0  0  0  0  0  0  0  0  0
    2.8660   -2.0155    0.0000 C   0  0  0  0  0  0  0  0  0  0  0  0
    2.0000    0.4845    0.0000 C   0  0  0  0  0  0  0  0  0  0  0  0
    9.8752    0.6675    0.0000 H   0  0  0  0  0  0  0  0  0  0  0  0
    9.7338   -0.2927    0.0000 H   0  0  0  0  0  0  0  0  0  0  0  0
   12.3269    0.3416    0.0000 H   0  0  0  0  0  0  0  0  0  0  0  0
   11.9477    1.1106    0.0000 H   0  0  0  0  0  0  0  0  0  0  0  0
   11.2648   -1.0205    0.0000 H   0  0  0  0  0  0  0  0  0  0  0  0
   12.0681   -0.6243    0.0000 H   0  0  0  0  0  0  0  0  0  0  0  0
    7.1984    1.0905    0.0000 H   0  0  0  0  0  0  0  0  0  0  0  0
    6.6810    0.4601    0.0000 H   0  0  0  0  0  0  0  0  0  0  0  0
    7.7720   -1.4422    0.0000 H   0  0  0  0  0  0  0  0  0  0  0  0
    8.5704   -1.3371    0.0000 H   0  0  0  0  0  0  0  0  0  0  0  0
    6.6762   -0.1778    0.0000 H   0  0  0  0  0  0  0  0  0  0  0  0
    9.2040    3.4455    0.0000 H   0  0  0  0  0  0  0  0  0  0  0  0
    8.3571    3.6724    0.0000 H   0  0  0  0  0  0  0  0  0  0  0  0
    8.1301    2.8255    0.0000 H   0  0  0  0  0  0  0  0  0  0  0  0
    3.7320    0.1045    0.0000 H   0  0  0  0  0  0  0  0  0  0  0  0
    5.1350   -2.3255    0.0000 H   0  0  0  0  0  0  0  0  0  0  0  0
    3.7320   -3.1355    0.0000 H   0  0  0  0  0  0  0  0  0  0  0  0
    2.0000   -3.1355    0.0000 H   0  0  0  0  0  0  0  0  0  0  0  0
    2.6200    0.4845    0.0000 H   0  0  0  0  0  0  0  0  0  0  0  0
    2.0000    1.1045    0.0000 H   0  0  0  0  0  0  0  0  0  0  0  0
    1.3800    0.4845    0.0000 H   0  0  0  0  0  0  0  0  0  0  0  0
  1 12  1  0  0  0  0
  1 14  1  0  0  0  0
  2 14  2  0  0  0  0
  3 18  1  0  0  0  0
  3 21  1  0  0  0  0
  4 20  1  0  0  0  0
  4 39  1  0  0  0  0
  5  6  1  0  0  0  0
  5  7  1  0  0  0  0
  5 13  1  0  0  0  0
  6  8  1  0  0  0  0
  6 10  1  0  0  0  0
  6 22  1  0  0  0  0
  7  9  1  0  0  0  0
  7 11  1  0  0  0  0
  7 23  1  0  0  0  0
  8  9  1  0  0  0  0
  8 24  1  0  0  0  0
  8 25  1  0  0  0  0
  9 26  1  0  0  0  0
  9 27  1  0  0  0  0
 10 12  1  0  0  0  0
 10 28  1  0  0  0  0
 10 29  1  0  0  0  0
 11 12  1  0  0  0  0
 11 30  1  0  0  0  0
 11 31  1  0  0  0  0
 12 32  1  0  0  0  0
 13 33  1  0  0  0  0
 13 34  1  0  0  0  0
 13 35  1  0  0  0  0
 14 15  1  0  0  0  0
 15 16  2  0  0  0  0
 15 17  1  0  0  0  0
 16 18  1  0  0  0  0
 16 36  1  0  0  0  0
 17 19  2  0  0  0  0
 17 37  1  0  0  0  0
 18 20  2  0  0  0  0
 19 20  1  0  0  0  0
 19 38  1  0  0  0  0
 21 40  1  0  0  0  0
 21 41  1  0  0  0  0
 21 42  1  0  0  0  0
M  END
> <PUBCHEM_COMPOUND_CID>
443007

> <PUBCHEM_COMPOUND_CANONICALIZED>
1

> <PUBCHEM_CACTVS_COMPLEXITY>
375

> <PUBCHEM_CACTVS_HBOND_ACCEPTOR>
5

> <PUBCHEM_CACTVS_HBOND_DONOR>
1

> <PUBCHEM_CACTVS_ROTATABLE_BOND>
4

> <PUBCHEM_CACTVS_SUBSKEYS>
AAADceB6OAAAAAAAAAAAAAAAAAAAAWAAAAA8QAAABgAAAAABAAAAHgAACAAADDzhmAYyDoMABgCIAiDSCAACCAAkIAAIiAEOiMgNJjKGtRqGcSMmwBGLuYfa7DzOIAABAAAAQABAAAIAAACAAAAAAAAAAA==

> <PUBCHEM_IUPAC_OPENEYE_NAME>
(8-methyl-8-azabicyclo[3.2.1]octan-3-yl) 4-hydroxy-3-methoxy-benzoate

> <PUBCHEM_IUPAC_CAS_NAME>
4-hydroxy-3-methoxybenzoic acid (8-methyl-8-azabicyclo[3.2.1]octan-3-yl) ester

> <PUBCHEM_IUPAC_NAME>
(8-methyl-8-azabicyclo[3.2.1]octan-3-yl) 4-hydroxy-3-methoxybenzoate

> <PUBCHEM_IUPAC_SYSTEMATIC_NAME>
(8-methyl-8-azabicyclo[3.2.1]octan-3-yl) 3-methoxy-4-oxidanyl-benzoate

> <PUBCHEM_IUPAC_TRADITIONAL_NAME>
4-hydroxy-3-methoxy-benzoic acid (8-methyl-8-azabicyclo[3.2.1]octan-3-yl) ester

> <PUBCHEM_IUPAC_INCHI>
InChI=1S/C16H21NO4/c1-17-11-4-5-12(17)9-13(8-11)21-16(19)10-3-6-14(18)15(7-10)20-2/h3,6-7,11-13,18H,4-5,8-9H2,1-2H3

> <PUBCHEM_IUPAC_INCHIKEY>
OZKTVDIYALBSMA-UHFFFAOYSA-N

> <PUBCHEM_XLOGP3>
3

> <PUBCHEM_EXACT_MASS>
291.147058

> <PUBCHEM_MOLECULAR_FORMULA>
C16H21NO4

> <PUBCHEM_MOLECULAR_WEIGHT>
291.34224

> <PUBCHEM_OPENEYE_CAN_SMILES>
CN1C2CCC1CC(C2)OC(=O)C3=CC(=C(C=C3)O)OC

> <PUBCHEM_OPENEYE_ISO_SMILES>
CN1C2CCC1CC(C2)OC(=O)C3=CC(=C(C=C3)O)OC

> <PUBCHEM_CACTVS_TPSA>
59

> <PUBCHEM_MONOISOTOPIC_WEIGHT>
291.147058

> <PUBCHEM_TOTAL_CHARGE>
0

> <PUBCHEM_HEAVY_ATOM_COUNT>
21

> <PUBCHEM_ATOM_DEF_STEREO_COUNT>
0

> <PUBCHEM_ATOM_UDEF_STEREO_COUNT>
2

> <PUBCHEM_BOND_DEF_STEREO_COUNT>
0

> <PUBCHEM_BOND_UDEF_STEREO_COUNT>
0

> <PUBCHEM_ISOTOPIC_ATOM_COUNT>
0

> <PUBCHEM_COMPONENT_COUNT>
1

> <PUBCHEM_CACTVS_TAUTO_COUNT>
5

> <PUBCHEM_COORDINATE_TYPE>
1
5
255

> <PUBCHEM_BONDANNOTATIONS>
15  16  8
15  17  8
16  18  8
17  19  8
18  20  8
19  20  8
6  8  3
7  9  3

$$$$

