51090878
  -OEChem-06241223002D

 48 50  0     0  0  0  0  0  0999 V2000
    8.4939    2.7671    0.0000 O   0  0  0  0  0  0  0  0  0  0  0  0
    2.0000    1.4010    0.0000 O   0  5  0  0  0  0  0  0  0  0  0  0
    2.8660   -0.0990    0.0000 O   0  0  0  0  0  0  0  0  0  0  0  0
    9.4939   -0.6970    0.0000 N   0  0  0  0  0  0  0  0  0  0  0  0
    8.4939    1.0350    0.0000 N   0  0  0  0  0  0  0  0  0  0  0  0
   11.4939   -2.4291    0.0000 N   0  0  0  0  0  0  0  0  0  0  0  0
    6.4103    2.7058    0.0000 N   0  0  0  0  0  0  0  0  0  0  0  0
    2.8660    0.9010    0.0000 N   0  3  0  0  0  0  0  0  0  0  0  0
    9.9939    0.1690    0.0000 C   0  0  0  0  0  0  0  0  0  0  0  0
    8.4939   -0.6970    0.0000 C   0  0  0  0  0  0  0  0  0  0  0  0
    9.4939    1.0350    0.0000 C   0  0  0  0  0  0  0  0  0  0  0  0
    7.9939    0.1690    0.0000 C   0  0  0  0  0  0  0  0  0  0  0  0
    9.9939   -1.5630    0.0000 C   0  0  0  0  0  0  0  0  0  0  0  0
   10.9939   -1.5630    0.0000 C   0  0  0  0  0  0  0  0  0  0  0  0
    7.9939    1.9010    0.0000 C   0  0  0  0  0  0  0  0  0  0  0  0
    6.9939    1.9010    0.0000 C   0  0  0  0  0  0  0  0  0  0  0  0
    6.4103    1.0963    0.0000 C   0  0  0  0  0  0  0  0  0  0  0  0
    5.4641    1.4010    0.0000 C   0  0  0  0  0  0  0  0  0  0  0  0
    5.4641    2.4010    0.0000 C   0  0  0  0  0  0  0  0  0  0  0  0
   12.4939   -2.4291    0.0000 C   0  0  0  0  0  0  0  0  0  0  0  0
   10.9939   -3.2951    0.0000 C   0  0  0  0  0  0  0  0  0  0  0  0
    4.5981    0.9010    0.0000 C   0  0  0  0  0  0  0  0  0  0  0  0
    4.5981    2.9010    0.0000 C   0  0  0  0  0  0  0  0  0  0  0  0
    3.7320    1.4010    0.0000 C   0  0  0  0  0  0  0  0  0  0  0  0
    3.7320    2.4010    0.0000 C   0  0  0  0  0  0  0  0  0  0  0  0
    7.9113   -0.9091    0.0000 H   0  0  0  0  0  0  0  0  0  0  0  0
    8.6016   -1.3076    0.0000 H   0  0  0  0  0  0  0  0  0  0  0  0
   10.4689   -0.2295    0.0000 H   0  0  0  0  0  0  0  0  0  0  0  0
   10.4689    0.5675    0.0000 H   0  0  0  0  0  0  0  0  0  0  0  0
   10.0765    1.2471    0.0000 H   0  0  0  0  0  0  0  0  0  0  0  0
    9.3863    1.6456    0.0000 H   0  0  0  0  0  0  0  0  0  0  0  0
    7.5190    0.5675    0.0000 H   0  0  0  0  0  0  0  0  0  0  0  0
    7.5190   -0.2295    0.0000 H   0  0  0  0  0  0  0  0  0  0  0  0
    9.4113   -1.7751    0.0000 H   0  0  0  0  0  0  0  0  0  0  0  0
   10.1016   -2.1736    0.0000 H   0  0  0  0  0  0  0  0  0  0  0  0
   11.5765   -1.3510    0.0000 H   0  0  0  0  0  0  0  0  0  0  0  0
   10.8863   -0.9525    0.0000 H   0  0  0  0  0  0  0  0  0  0  0  0
    6.6029    0.5070    0.0000 H   0  0  0  0  0  0  0  0  0  0  0  0
    6.6029    3.2951    0.0000 H   0  0  0  0  0  0  0  0  0  0  0  0
   10.4570   -2.9851    0.0000 H   0  0  0  0  0  0  0  0  0  0  0  0
   10.6839   -3.8320    0.0000 H   0  0  0  0  0  0  0  0  0  0  0  0
   11.5309   -3.6051    0.0000 H   0  0  0  0  0  0  0  0  0  0  0  0
   12.4939   -3.0491    0.0000 H   0  0  0  0  0  0  0  0  0  0  0  0
   13.1139   -2.4291    0.0000 H   0  0  0  0  0  0  0  0  0  0  0  0
   12.4939   -1.8091    0.0000 H   0  0  0  0  0  0  0  0  0  0  0  0
    4.5981    0.2810    0.0000 H   0  0  0  0  0  0  0  0  0  0  0  0
    4.5981    3.5210    0.0000 H   0  0  0  0  0  0  0  0  0  0  0  0
    3.1951    2.7110    0.0000 H   0  0  0  0  0  0  0  0  0  0  0  0
  1 15  2  0  0  0  0
  2  8  1  0  0  0  0
  3  8  2  0  0  0  0
  4  9  1  0  0  0  0
  4 10  1  0  0  0  0
  4 13  1  0  0  0  0
  5 11  1  0  0  0  0
  5 12  1  0  0  0  0
  5 15  1  0  0  0  0
  6 14  1  0  0  0  0
  6 20  1  0  0  0  0
  6 21  1  0  0  0  0
  7 16  1  0  0  0  0
  7 19  1  0  0  0  0
  7 39  1  0  0  0  0
  8 24  1  0  0  0  0
  9 11  1  0  0  0  0
  9 28  1  0  0  0  0
  9 29  1  0  0  0  0
 10 12  1  0  0  0  0
 10 26  1  0  0  0  0
 10 27  1  0  0  0  0
 11 30  1  0  0  0  0
 11 31  1  0  0  0  0
 12 32  1  0  0  0  0
 12 33  1  0  0  0  0
 13 14  1  0  0  0  0
 13 34  1  0  0  0  0
 13 35  1  0  0  0  0
 14 36  1  0  0  0  0
 14 37  1  0  0  0  0
 15 16  1  0  0  0  0
 16 17  2  0  0  0  0
 17 18  1  0  0  0  0
 17 38  1  0  0  0  0
 18 19  2  0  0  0  0
 18 22  1  0  0  0  0
 19 23  1  0  0  0  0
 20 43  1  0  0  0  0
 20 44  1  0  0  0  0
 20 45  1  0  0  0  0
 21 40  1  0  0  0  0
 21 41  1  0  0  0  0
 21 42  1  0  0  0  0
 22 24  2  0  0  0  0
 22 46  1  0  0  0  0
 23 25  2  0  0  0  0
 23 47  1  0  0  0  0
 24 25  1  0  0  0  0
 25 48  1  0  0  0  0
M  CHG  2   2  -1   8   1
M  END
> <PUBCHEM_COMPOUND_CID>
51090878

> <PUBCHEM_COMPOUND_CANONICALIZED>
1

> <PUBCHEM_CACTVS_COMPLEXITY>
487

> <PUBCHEM_CACTVS_HBOND_ACCEPTOR>
5

> <PUBCHEM_CACTVS_HBOND_DONOR>
1

> <PUBCHEM_CACTVS_ROTATABLE_BOND>
4

> <PUBCHEM_CACTVS_SUBSKEYS>
AAADceB7sAAAAAAAAAAAAAAAAAAAAWAAAAA8QAAAAAAAAFgB8AAAHgAUAAAADAjBngQywPPZ0ACpAyVyVwCCgCAnAiAomSG4ZNoIYPLAlbGUIQhglgDIyYcYiYCeAACAQAACAAAAAQCAAAQAAAAAAAAAAA==

> <PUBCHEM_IUPAC_OPENEYE_NAME>
[4-[2-(dimethylamino)ethyl]piperazin-1-yl]-(5-nitro-1H-indol-2-yl)methanone

> <PUBCHEM_IUPAC_CAS_NAME>
[4-[2-(dimethylamino)ethyl]-1-piperazinyl]-(5-nitro-1H-indol-2-yl)methanone

> <PUBCHEM_IUPAC_NAME>
[4-[2-(dimethylamino)ethyl]piperazin-1-yl]-(5-nitro-1H-indol-2-yl)methanone

> <PUBCHEM_IUPAC_SYSTEMATIC_NAME>
[4-[2-(dimethylamino)ethyl]piperazin-1-yl]-(5-nitro-1H-indol-2-yl)methanone

> <PUBCHEM_IUPAC_TRADITIONAL_NAME>
[4-[2-(dimethylamino)ethyl]piperazino]-(5-nitro-1H-indol-2-yl)methanone

> <PUBCHEM_IUPAC_INCHI>
InChI=1S/C17H23N5O3/c1-19(2)5-6-20-7-9-21(10-8-20)17(23)16-12-13-11-14(22(24)25)3-4-15(13)18-16/h3-4,11-12,18H,5-10H2,1-2H3

> <PUBCHEM_IUPAC_INCHIKEY>
VYTXXNLVQAOUKH-UHFFFAOYSA-N

> <PUBCHEM_XLOGP3_AA>
1.5

> <PUBCHEM_EXACT_MASS>
345.18009

> <PUBCHEM_MOLECULAR_FORMULA>
C17H23N5O3

> <PUBCHEM_MOLECULAR_WEIGHT>
345.39622

> <PUBCHEM_OPENEYE_CAN_SMILES>
CN(C)CCN1CCN(CC1)C(=O)C2=CC3=C(N2)C=CC(=C3)[N+](=O)[O-]

> <PUBCHEM_OPENEYE_ISO_SMILES>
CN(C)CCN1CCN(CC1)C(=O)C2=CC3=C(N2)C=CC(=C3)[N+](=O)[O-]

> <PUBCHEM_CACTVS_TPSA>
88.4

> <PUBCHEM_MONOISOTOPIC_WEIGHT>
345.18009

> <PUBCHEM_TOTAL_CHARGE>
0

> <PUBCHEM_HEAVY_ATOM_COUNT>
25

> <PUBCHEM_ATOM_DEF_STEREO_COUNT>
0

> <PUBCHEM_ATOM_UDEF_STEREO_COUNT>
0

> <PUBCHEM_BOND_DEF_STEREO_COUNT>
0

> <PUBCHEM_BOND_UDEF_STEREO_COUNT>
0

> <PUBCHEM_ISOTOPIC_ATOM_COUNT>
0

> <PUBCHEM_COMPONENT_COUNT>
1

> <PUBCHEM_CACTVS_TAUTO_COUNT>
5

> <PUBCHEM_COORDINATE_TYPE>
1
5
255

> <PUBCHEM_BONDANNOTATIONS>
16  17  8
17  18  8
18  19  8
18  22  8
19  23  8
22  24  8
23  25  8
24  25  8
7  16  8
7  19  8

$$$$

