   Color/Form
        Crystals from chloroform
   from [1]HSDB

   Melting Point
        68-70 deg C
   from [2]HSDB

   Solubilities
        Very soluble in water, ethanol, diethyl ether; soluble in warm
   chloroform; insoluble in ligroin
   from [3]HSDB

   Spectral Properties

     * IR: 19779 (Sadtler Research Laboratories IR Grating Collection)
     * NMR: 9495 (Sadtler Research Laboratories Spectral Collection)
     * MASS: 99194 (NIST/EPA/MSDC Mass Spectral Database, 1990 version;
       Wiley 1285

   from [4]HSDB

   Computed Properties
   Molecular Weight                  119.0761 [g/mol]
   Molecular Formula                 C[3]H[5]NO[4]
   XLogP3-AA                         -0.5
   H-Bond Donor                      1
   H-Bond Acceptor                   4
   Rotatable Bond Count              2
   Tautomer Count                    2
   Exact Mass                        119.021858
   MonoIsotopic Mass                 119.021858
   Topological Polar Surface Area    83.1
   Heavy Atom Count                  8
   Formal Charge                     0
   Complexity                        104
   Isotope Atom Count                0
   Defined Atom Stereocenter Count   0
   Undefined Atom Stereocenter Count 0
   Defined Bond Stereocenter Count   0
   Undefined Bond Stereocenter Count 0
   Covalently-Bonded Unit Count      1
   Feature 3D Acceptor Count         4
   Feature 3D Anion Count            2
   Effective Rotor Count             3
   Conformer Sampling RMSD           0.6
   CID Conformer Count               [5]9

References

   1. http://toxnet.nlm.nih.gov/cgi-bin/sis/search/r?dbs+hsdb:@term+@rn+@rel+504-88-1
   2. http://toxnet.nlm.nih.gov/cgi-bin/sis/search/r?dbs+hsdb:@term+@rn+@rel+504-88-1
   3. http://toxnet.nlm.nih.gov/cgi-bin/sis/search/r?dbs+hsdb:@term+@rn+@rel+504-88-1
   4. http://toxnet.nlm.nih.gov/cgi-bin/sis/search/r?dbs+hsdb:@term+@rn+@rel+504-88-1
   5. http://pubchem.ncbi.nlm.nih.gov/vw3d/vw3d.cgi?cid=1678
