60934
  -OEChem-07051213032D

108111  0     1  0  0  0  0  0999 V2000
    5.7665    1.0369    0.0000 S   0  0  0  0  0  0  0  0  0  0  0  0
    4.0010    7.3205    0.0000 O   0  0  0  0  0  0  0  0  0  0  0  0
    5.7331   10.3205    0.0000 O   0  0  0  0  0  0  0  0  0  0  0  0
    5.7331   11.3205    0.0000 O   0  0  0  0  0  0  0  0  0  0  0  0
    4.8671   14.8205    0.0000 O   0  0  0  0  0  0  0  0  0  0  0  0
    6.5991   11.8205    0.0000 O   0  0  0  0  0  0  0  0  0  0  0  0
    6.6325    1.5369    0.0000 O   0  0  0  0  0  0  0  0  0  0  0  0
    5.2665    1.9030    0.0000 O   0  0  0  0  0  0  0  0  0  0  0  0
    6.2665    0.1709    0.0000 O   0  0  0  0  0  0  0  0  0  0  0  0
    5.7331    8.3205    0.0000 N   0  0  3  0  0  0  0  0  0  0  0  0
    4.8671    5.8205    0.0000 N   0  0  0  0  0  0  0  0  0  0  0  0
    4.0010   11.3205    0.0000 N   0  0  0  0  0  0  0  0  0  0  0  0
    5.7331   13.3205    0.0000 N   0  0  0  0  0  0  0  0  0  0  0  0
    3.1350   14.8205    0.0000 N   0  0  0  0  0  0  0  0  0  0  0  0
    8.3312   12.8205    0.0000 N   0  0  0  0  0  0  0  0  0  0  0  0
    7.4651    7.3205    0.0000 C   0  0  2  0  0  0  0  0  0  0  0  0
    7.4651    8.3205    0.0000 C   0  0  1  0  0  0  0  0  0  0  0  0
    6.5991    6.8205    0.0000 C   0  0  0  0  0  0  0  0  0  0  0  0
    6.5991    8.8205    0.0000 C   0  0  0  0  0  0  0  0  0  0  0  0
    8.3591    6.7859    0.0000 C   0  0  0  0  0  0  0  0  0  0  0  0
    8.3591    8.8552    0.0000 C   0  0  0  0  0  0  0  0  0  0  0  0
    5.7331    7.3205    0.0000 C   0  0  1  0  0  0  0  0  0  0  0  0
    9.2652    7.2997    0.0000 C   0  0  0  0  0  0  0  0  0  0  0  0
    9.2652    8.3414    0.0000 C   0  0  0  0  0  0  0  0  0  0  0  0
    4.8671    8.8205    0.0000 C   0  0  0  0  0  0  0  0  0  0  0  0
    4.8671    6.8205    0.0000 C   0  0  0  0  0  0  0  0  0  0  0  0
    4.8671    9.8205    0.0000 C   0  0  2  0  0  0  0  0  0  0  0  0
    4.0010   10.3205    0.0000 C   0  0  2  0  0  0  0  0  0  0  0  0
    4.0010    5.3205    0.0000 C   0  0  0  0  0  0  0  0  0  0  0  0
    3.1350    9.8205    0.0000 C   0  0  0  0  0  0  0  0  0  0  0  0
    3.1350    4.8205    0.0000 C   0  0  0  0  0  0  0  0  0  0  0  0
    4.5010    4.4545    0.0000 C   0  0  0  0  0  0  0  0  0  0  0  0
    3.5010    6.1866    0.0000 C   0  0  0  0  0  0  0  0  0  0  0  0
    2.2690   10.3205    0.0000 C   0  0  0  0  0  0  0  0  0  0  0  0
    4.8671   11.8205    0.0000 C   0  0  0  0  0  0  0  0  0  0  0  0
    4.8671   12.8205    0.0000 C   0  0  2  0  0  0  0  0  0  0  0  0
    2.2690   11.3205    0.0000 C   0  0  0  0  0  0  0  0  0  0  0  0
    1.4030    9.8205    0.0000 C   0  0  0  0  0  0  0  0  0  0  0  0
    4.0010   13.3205    0.0000 C   0  0  0  0  0  0  0  0  0  0  0  0
    1.4030   11.8205    0.0000 C   0  0  0  0  0  0  0  0  0  0  0  0
    0.5369   10.3205    0.0000 C   0  0  0  0  0  0  0  0  0  0  0  0
    0.5369   11.3205    0.0000 C   0  0  0  0  0  0  0  0  0  0  0  0
    4.0010   14.3205    0.0000 C   0  0  0  0  0  0  0  0  0  0  0  0
    6.5991   12.8205    0.0000 C   0  0  0  0  0  0  0  0  0  0  0  0
    7.4651   13.3205    0.0000 C   0  0  0  0  0  0  0  0  0  0  0  0
    7.4651   14.3205    0.0000 C   0  0  0  0  0  0  0  0  0  0  0  0
    8.3312   14.8205    0.0000 C   0  0  0  0  0  0  0  0  0  0  0  0
    9.1972   13.3205    0.0000 C   0  0  0  0  0  0  0  0  0  0  0  0
    9.1972   14.3205    0.0000 C   0  0  0  0  0  0  0  0  0  0  0  0
   10.0911   12.7859    0.0000 C   0  0  0  0  0  0  0  0  0  0  0  0
   10.0911   14.8552    0.0000 C   0  0  0  0  0  0  0  0  0  0  0  0
   10.9972   13.2997    0.0000 C   0  0  0  0  0  0  0  0  0  0  0  0
   10.9972   14.3413    0.0000 C   0  0  0  0  0  0  0  0  0  0  0  0
    4.9004    0.5369    0.0000 C   0  0  0  0  0  0  0  0  0  0  0  0
    7.4586    6.4706    0.0000 H   0  0  0  0  0  0  0  0  0  0  0  0
    7.4586    9.1705    0.0000 H   0  0  0  0  0  0  0  0  0  0  0  0
    6.2006    6.3456    0.0000 H   0  0  0  0  0  0  0  0  0  0  0  0
    6.9976    6.3456    0.0000 H   0  0  0  0  0  0  0  0  0  0  0  0
    6.9976    9.2955    0.0000 H   0  0  0  0  0  0  0  0  0  0  0  0
    6.2006    9.2955    0.0000 H   0  0  0  0  0  0  0  0  0  0  0  0
    7.9545    6.3161    0.0000 H   0  0  0  0  0  0  0  0  0  0  0  0
    8.7527    6.3068    0.0000 H   0  0  0  0  0  0  0  0  0  0  0  0
    8.7527    9.3342    0.0000 H   0  0  0  0  0  0  0  0  0  0  0  0
    7.9545    9.3250    0.0000 H   0  0  0  0  0  0  0  0  0  0  0  0
    5.1962    7.6305    0.0000 H   0  0  0  0  0  0  0  0  0  0  0  0
    9.4742    6.7160    0.0000 H   0  0  0  0  0  0  0  0  0  0  0  0
    9.8760    7.4058    0.0000 H   0  0  0  0  0  0  0  0  0  0  0  0
    9.8760    8.2352    0.0000 H   0  0  0  0  0  0  0  0  0  0  0  0
    9.4742    8.9250    0.0000 H   0  0  0  0  0  0  0  0  0  0  0  0
    4.2565    8.9282    0.0000 H   0  0  0  0  0  0  0  0  0  0  0  0
    4.6550    8.2379    0.0000 H   0  0  0  0  0  0  0  0  0  0  0  0
    4.8671   10.4405    0.0000 H   0  0  0  0  0  0  0  0  0  0  0  0
    4.5380   10.6305    0.0000 H   0  0  0  0  0  0  0  0  0  0  0  0
    5.4040    5.5105    0.0000 H   0  0  0  0  0  0  0  0  0  0  0  0
    2.7365    9.3456    0.0000 H   0  0  0  0  0  0  0  0  0  0  0  0
    3.5335    9.3456    0.0000 H   0  0  0  0  0  0  0  0  0  0  0  0
    6.2700   10.0105    0.0000 H   0  0  0  0  0  0  0  0  0  0  0  0
    3.4641   11.6305    0.0000 H   0  0  0  0  0  0  0  0  0  0  0  0
    3.9641    4.1445    0.0000 H   0  0  0  0  0  0  0  0  0  0  0  0
    4.8110    3.9176    0.0000 H   0  0  0  0  0  0  0  0  0  0  0  0
    5.0380    4.7645    0.0000 H   0  0  0  0  0  0  0  0  0  0  0  0
    4.0380    6.4966    0.0000 H   0  0  0  0  0  0  0  0  0  0  0  0
    3.1910    6.7235    0.0000 H   0  0  0  0  0  0  0  0  0  0  0  0
    2.9641    5.8766    0.0000 H   0  0  0  0  0  0  0  0  0  0  0  0
    2.8250    5.3575    0.0000 H   0  0  0  0  0  0  0  0  0  0  0  0
    2.5981    4.5105    0.0000 H   0  0  0  0  0  0  0  0  0  0  0  0
    3.4450    4.2836    0.0000 H   0  0  0  0  0  0  0  0  0  0  0  0
    4.8671   13.4405    0.0000 H   0  0  0  0  0  0  0  0  0  0  0  0
    2.8059   11.6305    0.0000 H   0  0  0  0  0  0  0  0  0  0  0  0
    1.4030    9.2005    0.0000 H   0  0  0  0  0  0  0  0  0  0  0  0
    3.3905   13.4282    0.0000 H   0  0  0  0  0  0  0  0  0  0  0  0
    3.7890   12.7379    0.0000 H   0  0  0  0  0  0  0  0  0  0  0  0
    1.4030   12.4405    0.0000 H   0  0  0  0  0  0  0  0  0  0  0  0
    0.0000   10.0105    0.0000 H   0  0  0  0  0  0  0  0  0  0  0  0
    5.7331   13.9405    0.0000 H   0  0  0  0  0  0  0  0  0  0  0  0
    0.0000   11.6305    0.0000 H   0  0  0  0  0  0  0  0  0  0  0  0
    3.1350   15.4405    0.0000 H   0  0  0  0  0  0  0  0  0  0  0  0
    2.5981   14.5105    0.0000 H   0  0  0  0  0  0  0  0  0  0  0  0
    6.9282   14.6305    0.0000 H   0  0  0  0  0  0  0  0  0  0  0  0
    8.3312   15.4405    0.0000 H   0  0  0  0  0  0  0  0  0  0  0  0
   10.0840   12.1659    0.0000 H   0  0  0  0  0  0  0  0  0  0  0  0
   10.0840   15.4751    0.0000 H   0  0  0  0  0  0  0  0  0  0  0  0
   11.5329   12.9876    0.0000 H   0  0  0  0  0  0  0  0  0  0  0  0
   11.5329   14.6534    0.0000 H   0  0  0  0  0  0  0  0  0  0  0  0
    4.5904    1.0739    0.0000 H   0  0  0  0  0  0  0  0  0  0  0  0
    4.3635    0.2269    0.0000 H   0  0  0  0  0  0  0  0  0  0  0  0
    5.2104    0.0000    0.0000 H   0  0  0  0  0  0  0  0  0  0  0  0
    7.1694    1.2269    0.0000 H   0  0  0  0  0  0  0  0  0  0  0  0
  1  7  1  0  0  0  0
  1  8  2  0  0  0  0
  1  9  2  0  0  0  0
  1 54  1  0  0  0  0
  2 26  2  0  0  0  0
 27  3  1  6  0  0  0
  3 77  1  0  0  0  0
  4 35  2  0  0  0  0
  5 43  2  0  0  0  0
  6 44  2  0  0  0  0
  7108  1  0  0  0  0
 10 19  1  0  0  0  0
 10 22  1  0  0  0  0
 10 25  1  0  0  0  0
 11 26  1  0  0  0  0
 11 29  1  0  0  0  0
 11 74  1  0  0  0  0
 28 12  1  6  0  0  0
 12 35  1  0  0  0  0
 12 78  1  0  0  0  0
 36 13  1  6  0  0  0
 13 44  1  0  0  0  0
 13 95  1  0  0  0  0
 14 43  1  0  0  0  0
 14 97  1  0  0  0  0
 14 98  1  0  0  0  0
 15 45  2  0  0  0  0
 15 48  1  0  0  0  0
 16 17  1  0  0  0  0
 16 18  1  0  0  0  0
 16 20  1  0  0  0  0
 16 55  1  6  0  0  0
 17 19  1  0  0  0  0
 17 21  1  0  0  0  0
 17 56  1  6  0  0  0
 18 22  1  0  0  0  0
 18 57  1  0  0  0  0
 18 58  1  0  0  0  0
 19 59  1  0  0  0  0
 19 60  1  0  0  0  0
 20 23  1  0  0  0  0
 20 61  1  0  0  0  0
 20 62  1  0  0  0  0
 21 24  1  0  0  0  0
 21 63  1  0  0  0  0
 21 64  1  0  0  0  0
 22 26  1  1  0  0  0
 22 65  1  0  0  0  0
 23 24  1  0  0  0  0
 23 66  1  0  0  0  0
 23 67  1  0  0  0  0
 24 68  1  0  0  0  0
 24 69  1  0  0  0  0
 25 27  1  0  0  0  0
 25 70  1  0  0  0  0
 25 71  1  0  0  0  0
 27 28  1  0  0  0  0
 27 72  1  0  0  0  0
 28 30  1  0  0  0  0
 28 73  1  0  0  0  0
 29 31  1  0  0  0  0
 29 32  1  0  0  0  0
 29 33  1  0  0  0  0
 30 34  1  0  0  0  0
 30 75  1  0  0  0  0
 30 76  1  0  0  0  0
 31 85  1  0  0  0  0
 31 86  1  0  0  0  0
 31 87  1  0  0  0  0
 32 79  1  0  0  0  0
 32 80  1  0  0  0  0
 32 81  1  0  0  0  0
 33 82  1  0  0  0  0
 33 83  1  0  0  0  0
 33 84  1  0  0  0  0
 34 37  2  0  0  0  0
 34 38  1  0  0  0  0
 35 36  1  0  0  0  0
 36 39  1  0  0  0  0
 36 88  1  0  0  0  0
 37 40  1  0  0  0  0
 37 89  1  0  0  0  0
 38 41  2  0  0  0  0
 38 90  1  0  0  0  0
 39 43  1  0  0  0  0
 39 91  1  0  0  0  0
 39 92  1  0  0  0  0
 40 42  2  0  0  0  0
 40 93  1  0  0  0  0
 41 42  1  0  0  0  0
 41 94  1  0  0  0  0
 42 96  1  0  0  0  0
 44 45  1  0  0  0  0
 45 46  1  0  0  0  0
 46 47  2  0  0  0  0
 46 99  1  0  0  0  0
 47 49  1  0  0  0  0
 47100  1  0  0  0  0
 48 49  1  0  0  0  0
 48 50  2  0  0  0  0
 49 51  2  0  0  0  0
 50 52  1  0  0  0  0
 50101  1  0  0  0  0
 51 53  1  0  0  0  0
 51102  1  0  0  0  0
 52 53  2  0  0  0  0
 52103  1  0  0  0  0
 53104  1  0  0  0  0
 54105  1  0  0  0  0
 54106  1  0  0  0  0
 54107  1  0  0  0  0
M  END
> <PUBCHEM_COMPOUND_CID>
60934

> <PUBCHEM_COMPOUND_CANONICALIZED>
1

> <PUBCHEM_CACTVS_COMPLEXITY>
1230

> <PUBCHEM_CACTVS_HBOND_ACCEPTOR>
10

> <PUBCHEM_CACTVS_HBOND_DONOR>
6

> <PUBCHEM_CACTVS_ROTATABLE_BOND>
13

> <PUBCHEM_CACTVS_SUBSKEYS>
AAADcfB/vABAAAAAAAAAAAAAAAAAAAAAAAA8eMECAAAAAACx9AAAHgQQCAAADbzhngaywPPIEoKoAyVyVHCCgCAnAiAImKG4ZNgKcPrA1bGUYQhklgDYyYedyKCOgAAAAAACAAAAAAAAACQAAAAAAAAAAA==

> <PUBCHEM_IUPAC_OPENEYE_NAME>
(2S)-N-[(1S,2R)-3-[(3S,4aS,8aS)-3-(tert-butylcarbamoyl)-3,4,4a,5,6,7,8,8a-octahydro-1H-isoquinolin-2-yl]-1-benzyl-2-hydroxy-propyl]-2-(quinoline-2-carbonylamino)butanediamide; methanesulfonic acid

> <PUBCHEM_IUPAC_CAS_NAME>
(2S)-N-[(2S,3R)-4-[(3S,4aS,8aS)-3-[(tert-butylamino)-oxomethyl]-3,4,4a,5,6,7,8,8a-octahydro-1H-isoquinolin-2-yl]-3-hydroxy-1-phenylbutan-2-yl]-2-[[oxo(2-quinolinyl)methyl]amino]butanediamide; methanesulfonic acid

> <PUBCHEM_IUPAC_NAME>
(2S)-N-[(2S,3R)-4-[(3S,4aS,8aS)-3-(tert-butylcarbamoyl)-3,4,4a,5,6,7,8,8a-octahydro-1H-isoquinolin-2-yl]-3-hydroxy-1-phenylbutan-2-yl]-2-(quinoline-2-carbonylamino)butanediamide; methanesulfonic acid

> <PUBCHEM_IUPAC_SYSTEMATIC_NAME>
(2S)-N-[(2S,3R)-4-[(3S,4aS,8aS)-3-(tert-butylcarbamoyl)-3,4,4a,5,6,7,8,8a-octahydro-1H-isoquinolin-2-yl]-3-oxidanyl-1-phenyl-butan-2-yl]-2-(quinolin-2-ylcarbonylamino)butanediamide; methanesulfonic acid

> <PUBCHEM_IUPAC_TRADITIONAL_NAME>
(2S)-N-[(1S,2R)-3-[(3S,4aS,8aS)-3-(tert-butylcarbamoyl)-3,4,4a,5,6,7,8,8a-octahydro-1H-isoquinolin-2-yl]-1-benzyl-2-hydroxy-propyl]-2-(quinaldoylamino)succinamide; mesylic acid

> <PUBCHEM_IUPAC_INCHI>
InChI=1S/C38H50N6O5.CH4O3S/c1-38(2,3)43-37(49)32-20-26-14-7-8-15-27(26)22-44(32)23-33(45)30(19-24-11-5-4-6-12-24)41-36(48)31(21-34(39)46)42-35(47)29-18-17-25-13-9-10-16-28(25)40-29;1-5(2,3)4/h4-6,9-13,16-18,26-27,30-33,45H,7-8,14-15,19-23H2,1-3H3,(H2,39,46)(H,41,48)(H,42,47)(H,43,49);1H3,(H,2,3,4)/t26-,27+,30-,31-,32-,33+;/m0./s1

> <PUBCHEM_IUPAC_INCHIKEY>
IRHXGOXEBNJUSN-YOXDLBRISA-N

> <PUBCHEM_EXACT_MASS>
766.372384

> <PUBCHEM_MOLECULAR_FORMULA>
C39H54N6O8S

> <PUBCHEM_MOLECULAR_WEIGHT>
766.94646

> <PUBCHEM_OPENEYE_CAN_SMILES>
CC(C)(C)NC(=O)C1CC2CCCCC2CN1CC(C(CC3=CC=CC=C3)NC(=O)C(CC(=O)N)NC(=O)C4=NC5=CC=CC=C5C=C4)O.CS(=O)(=O)O

> <PUBCHEM_OPENEYE_ISO_SMILES>
CC(C)(C)NC(=O)[C@@H]1C[C@@H]2CCCC[C@@H]2CN1C[C@H]([C@H](CC3=CC=CC=C3)NC(=O)[C@H](CC(=O)N)NC(=O)C4=NC5=CC=CC=C5C=C4)O.CS(=O)(=O)O

> <PUBCHEM_CACTVS_TPSA>
230

> <PUBCHEM_MONOISOTOPIC_WEIGHT>
766.372384

> <PUBCHEM_TOTAL_CHARGE>
0

> <PUBCHEM_HEAVY_ATOM_COUNT>
54

> <PUBCHEM_ATOM_DEF_STEREO_COUNT>
6

> <PUBCHEM_ATOM_UDEF_STEREO_COUNT>
0

> <PUBCHEM_BOND_DEF_STEREO_COUNT>
0

> <PUBCHEM_BOND_UDEF_STEREO_COUNT>
0

> <PUBCHEM_ISOTOPIC_ATOM_COUNT>
0

> <PUBCHEM_COMPONENT_COUNT>
2

> <PUBCHEM_CACTVS_TAUTO_COUNT>
24

> <PUBCHEM_COORDINATE_TYPE>
1
5
255

> <PUBCHEM_BONDANNOTATIONS>
28  12  6
36  13  6
15  45  8
15  48  8
16  55  6
17  56  6
22  26  5
27  3  6
34  37  8
34  38  8
37  40  8
38  41  8
40  42  8
41  42  8
45  46  8
46  47  8
47  49  8
48  49  8
48  50  8
49  51  8
50  52  8
51  53  8
52  53  8

$$$$

