244386
  -OEChem-07051213062D

 37 39  0     0  0  0  0  0  0999 V2000
    6.0290    1.0176    0.0000 O   0  0  0  0  0  0  0  0  0  0  0  0
    4.2690   -2.0171    0.0000 O   0  0  0  0  0  0  0  0  0  0  0  0
    2.5369    0.9829    0.0000 O   0  0  0  0  0  0  0  0  0  0  0  0
    2.5369   -1.0171    0.0000 O   0  0  0  0  0  0  0  0  0  0  0  0
    6.0174   -2.0517    0.0000 O   0  0  0  0  0  0  0  0  0  0  0  0
   10.3914    2.5171    0.0000 O   0  0  0  0  0  0  0  0  0  0  0  0
    5.1350   -0.5171    0.0000 C   0  0  0  0  0  0  0  0  0  0  0  0
    5.1350    0.4829    0.0000 C   0  0  0  0  0  0  0  0  0  0  0  0
    4.2690   -1.0171    0.0000 C   0  0  0  0  0  0  0  0  0  0  0  0
    6.9350    0.5037    0.0000 C   0  0  0  0  0  0  0  0  0  0  0  0
    6.0290   -1.0517    0.0000 C   0  0  0  0  0  0  0  0  0  0  0  0
    4.2690    0.9829    0.0000 C   0  0  0  0  0  0  0  0  0  0  0  0
    3.4030   -0.5171    0.0000 C   0  0  0  0  0  0  0  0  0  0  0  0
    3.4030    0.4829    0.0000 C   0  0  0  0  0  0  0  0  0  0  0  0
    6.9350   -0.5379    0.0000 C   0  0  0  0  0  0  0  0  0  0  0  0
    7.7991    1.0071    0.0000 C   0  0  0  0  0  0  0  0  0  0  0  0
    8.6671    0.5104    0.0000 C   0  0  0  0  0  0  0  0  0  0  0  0
    7.7953    2.0071    0.0000 C   0  0  0  0  0  0  0  0  0  0  0  0
    9.5312    1.0138    0.0000 C   0  0  0  0  0  0  0  0  0  0  0  0
    8.6594    2.5104    0.0000 C   0  0  0  0  0  0  0  0  0  0  0  0
    9.5273    2.0137    0.0000 C   0  0  0  0  0  0  0  0  0  0  0  0
    3.4030   -2.5171    0.0000 C   0  0  0  0  0  0  0  0  0  0  0  0
    2.5369    1.9829    0.0000 C   0  0  0  0  0  0  0  0  0  0  0  0
    4.2690    1.6029    0.0000 H   0  0  0  0  0  0  0  0  0  0  0  0
    7.4708   -0.8500    0.0000 H   0  0  0  0  0  0  0  0  0  0  0  0
    8.6694   -0.1096    0.0000 H   0  0  0  0  0  0  0  0  0  0  0  0
    7.2571    2.3150    0.0000 H   0  0  0  0  0  0  0  0  0  0  0  0
   10.0693    0.7058    0.0000 H   0  0  0  0  0  0  0  0  0  0  0  0
    8.6570    3.1304    0.0000 H   0  0  0  0  0  0  0  0  0  0  0  0
    2.0000   -0.7071    0.0000 H   0  0  0  0  0  0  0  0  0  0  0  0
    3.0930   -1.9801    0.0000 H   0  0  0  0  0  0  0  0  0  0  0  0
    2.8660   -2.8271    0.0000 H   0  0  0  0  0  0  0  0  0  0  0  0
    3.7130   -3.0540    0.0000 H   0  0  0  0  0  0  0  0  0  0  0  0
    3.1569    1.9829    0.0000 H   0  0  0  0  0  0  0  0  0  0  0  0
    2.5369    2.6029    0.0000 H   0  0  0  0  0  0  0  0  0  0  0  0
    1.9169    1.9829    0.0000 H   0  0  0  0  0  0  0  0  0  0  0  0
   10.9295    2.2092    0.0000 H   0  0  0  0  0  0  0  0  0  0  0  0
  1  8  1  0  0  0  0
  1 10  1  0  0  0  0
  2  9  1  0  0  0  0
  2 22  1  0  0  0  0
  3 14  1  0  0  0  0
  3 23  1  0  0  0  0
  4 13  1  0  0  0  0
  4 30  1  0  0  0  0
  5 11  2  0  0  0  0
  6 21  1  0  0  0  0
  6 37  1  0  0  0  0
  7  8  1  0  0  0  0
  7  9  2  0  0  0  0
  7 11  1  0  0  0  0
  8 12  2  0  0  0  0
  9 13  1  0  0  0  0
 10 15  2  0  0  0  0
 10 16  1  0  0  0  0
 11 15  1  0  0  0  0
 12 14  1  0  0  0  0
 12 24  1  0  0  0  0
 13 14  2  0  0  0  0
 15 25  1  0  0  0  0
 16 17  2  0  0  0  0
 16 18  1  0  0  0  0
 17 19  1  0  0  0  0
 17 26  1  0  0  0  0
 18 20  2  0  0  0  0
 18 27  1  0  0  0  0
 19 21  2  0  0  0  0
 19 28  1  0  0  0  0
 20 21  1  0  0  0  0
 20 29  1  0  0  0  0
 22 31  1  0  0  0  0
 22 32  1  0  0  0  0
 22 33  1  0  0  0  0
 23 34  1  0  0  0  0
 23 35  1  0  0  0  0
 23 36  1  0  0  0  0
M  END
> <PUBCHEM_COMPOUND_CID>
244386

> <PUBCHEM_COMPOUND_CANONICALIZED>
1

> <PUBCHEM_CACTVS_COMPLEXITY>
468

> <PUBCHEM_CACTVS_HBOND_ACCEPTOR>
6

> <PUBCHEM_CACTVS_HBOND_DONOR>
2

> <PUBCHEM_CACTVS_ROTATABLE_BOND>
3

> <PUBCHEM_CACTVS_SUBSKEYS>
AAADccB4OAAAAAAAAAAAAAAAAAAAAAAAAAAwYIAAAAAAAACBQAAAGgAACAAADASAmAIyBoAABgCIAqBSAAACCAAkIAAIiAEGiMgNJzaGNRqCeWOl4BULuQfK7LzOIQABCAAIQABCAAIQABCAAAAAAAAAAA==

> <PUBCHEM_IUPAC_OPENEYE_NAME>
6-hydroxy-2-(4-hydroxyphenyl)-5,7-dimethoxy-chromen-4-one

> <PUBCHEM_IUPAC_CAS_NAME>
6-hydroxy-2-(4-hydroxyphenyl)-5,7-dimethoxy-1-benzopyran-4-one

> <PUBCHEM_IUPAC_NAME>
6-hydroxy-2-(4-hydroxyphenyl)-5,7-dimethoxychromen-4-one

> <PUBCHEM_IUPAC_SYSTEMATIC_NAME>
2-(4-hydroxyphenyl)-5,7-dimethoxy-6-oxidanyl-chromen-4-one

> <PUBCHEM_IUPAC_TRADITIONAL_NAME>
6-hydroxy-2-(4-hydroxyphenyl)-5,7-dimethoxy-chromone

> <PUBCHEM_IUPAC_INCHI>
InChI=1S/C17H14O6/c1-21-14-8-13-15(17(22-2)16(14)20)11(19)7-12(23-13)9-3-5-10(18)6-4-9/h3-8,18,20H,1-2H3

> <PUBCHEM_IUPAC_INCHIKEY>
NFSSFGJGSUAWLF-UHFFFAOYSA-N

> <PUBCHEM_XLOGP3>
1.5

> <PUBCHEM_EXACT_MASS>
314.079038

> <PUBCHEM_MOLECULAR_FORMULA>
C17H14O6

> <PUBCHEM_MOLECULAR_WEIGHT>
314.28946

> <PUBCHEM_OPENEYE_CAN_SMILES>
COC1=C(C(=C2C(=C1)OC(=CC2=O)C3=CC=C(C=C3)O)OC)O

> <PUBCHEM_OPENEYE_ISO_SMILES>
COC1=C(C(=C2C(=C1)OC(=CC2=O)C3=CC=C(C=C3)O)OC)O

> <PUBCHEM_CACTVS_TPSA>
85.2

> <PUBCHEM_MONOISOTOPIC_WEIGHT>
314.079038

> <PUBCHEM_TOTAL_CHARGE>
0

> <PUBCHEM_HEAVY_ATOM_COUNT>
23

> <PUBCHEM_ATOM_DEF_STEREO_COUNT>
0

> <PUBCHEM_ATOM_UDEF_STEREO_COUNT>
0

> <PUBCHEM_BOND_DEF_STEREO_COUNT>
0

> <PUBCHEM_BOND_UDEF_STEREO_COUNT>
0

> <PUBCHEM_ISOTOPIC_ATOM_COUNT>
0

> <PUBCHEM_COMPONENT_COUNT>
1

> <PUBCHEM_CACTVS_TAUTO_COUNT>
15

> <PUBCHEM_COORDINATE_TYPE>
1
5
255

> <PUBCHEM_BONDANNOTATIONS>
1  10  8
1  8  8
10  15  8
11  15  8
12  14  8
13  14  8
16  17  8
16  18  8
17  19  8
18  20  8
19  21  8
20  21  8
7  11  8
7  8  8
7  9  8
8  12  8
9  13  8

$$$$

