114951
  -OEChem-07051213152D

 61 65  0     1  0  0  0  0  0999 V2000
    8.7353    2.1993    0.0000 O   0  0  0  0  0  0  0  0  0  0  0  0
    7.4774    3.4615    0.0000 O   0  0  0  0  0  0  0  0  0  0  0  0
    6.5251   -0.3634    0.0000 C   0  0  1  0  0  0  0  0  0  0  0  0
    6.5251   -1.3634    0.0000 C   0  0  1  0  0  0  0  0  0  0  0  0
    5.6591   -1.8634    0.0000 C   0  0  1  0  0  0  0  0  0  0  0  0
    4.7931   -1.3634    0.0000 C   0  0  1  0  0  0  0  0  0  0  0  0
    3.8831   -1.8702    0.0000 C   0  0  2  0  0  0  0  0  0  0  0  0
    7.4714   -0.0586    0.0000 C   0  0  2  0  0  0  0  0  0  0  0  0
    5.6591    0.1366    0.0000 C   0  0  0  0  0  0  0  0  0  0  0  0
    4.7931   -0.3634    0.0000 C   0  0  0  0  0  0  0  0  0  0  0  0
    3.8751   -2.9118    0.0000 C   0  0  3  0  0  0  0  0  0  0  0  0
    7.4714   -1.6681    0.0000 C   0  0  0  0  0  0  0  0  0  0  0  0
    5.6752   -2.9049    0.0000 C   0  0  0  0  0  0  0  0  0  0  0  0
    8.0550   -0.8634    0.0000 C   0  0  0  0  0  0  0  0  0  0  0  0
    4.7771   -3.4326    0.0000 C   0  0  0  0  0  0  0  0  0  0  0  0
    2.9562   -1.3061    0.0000 C   0  0  0  0  0  0  0  0  0  0  0  0
    7.7820    0.8919    0.0000 C   0  0  1  0  0  0  0  0  0  0  0  0
    6.5251    0.6366    0.0000 C   0  0  0  0  0  0  0  0  0  0  0  0
    2.9396   -3.4615    0.0000 C   0  0  0  0  0  0  0  0  0  0  0  0
    3.8908   -0.8702    0.0000 C   0  0  0  0  0  0  0  0  0  0  0  0
    2.0084   -1.8341    0.0000 C   0  0  0  0  0  0  0  0  0  0  0  0
    2.0000   -2.9190    0.0000 C   0  0  0  0  0  0  0  0  0  0  0  0
    7.1956    1.7019    0.0000 C   0  0  0  0  0  0  0  0  0  0  0  0
    8.7336    1.1993    0.0000 C   0  0  0  0  0  0  0  0  0  0  0  0
    7.7848    2.5099    0.0000 C   0  0  0  0  0  0  0  0  0  0  0  0
    6.6151   -2.2086    0.0000 H   0  0  0  0  0  0  0  0  0  0  0  0
    6.3985   -2.2827    0.0000 H   0  0  0  0  0  0  0  0  0  0  0  0
    5.5292   -0.9384    0.0000 H   0  0  0  0  0  0  0  0  0  0  0  0
    8.3111    0.0733    0.0000 H   0  0  0  0  0  0  0  0  0  0  0  0
    6.0576    0.6116    0.0000 H   0  0  0  0  0  0  0  0  0  0  0  0
    5.2606    0.6116    0.0000 H   0  0  0  0  0  0  0  0  0  0  0  0
    4.5810    0.2193    0.0000 H   0  0  0  0  0  0  0  0  0  0  0  0
    4.1825   -0.4710    0.0000 H   0  0  0  0  0  0  0  0  0  0  0  0
    3.8783   -3.7618    0.0000 H   0  0  0  0  0  0  0  0  0  0  0  0
    7.2203   -2.2350    0.0000 H   0  0  0  0  0  0  0  0  0  0  0  0
    8.0087   -1.9773    0.0000 H   0  0  0  0  0  0  0  0  0  0  0  0
    5.8932   -3.4853    0.0000 H   0  0  0  0  0  0  0  0  0  0  0  0
    6.2843   -2.7894    0.0000 H   0  0  0  0  0  0  0  0  0  0  0  0
    8.5158   -1.2781    0.0000 H   0  0  0  0  0  0  0  0  0  0  0  0
    8.5158   -0.4486    0.0000 H   0  0  0  0  0  0  0  0  0  0  0  0
    4.3798   -3.9086    0.0000 H   0  0  0  0  0  0  0  0  0  0  0  0
    5.1781   -3.9055    0.0000 H   0  0  0  0  0  0  0  0  0  0  0  0
    3.3645   -0.8395    0.0000 H   0  0  0  0  0  0  0  0  0  0  0  0
    2.5663   -0.8241    0.0000 H   0  0  0  0  0  0  0  0  0  0  0  0
    6.9423    0.7604    0.0000 H   0  0  0  0  0  0  0  0  0  0  0  0
    7.1451    0.6366    0.0000 H   0  0  0  0  0  0  0  0  0  0  0  0
    6.5251    1.2566    0.0000 H   0  0  0  0  0  0  0  0  0  0  0  0
    5.9051    0.6366    0.0000 H   0  0  0  0  0  0  0  0  0  0  0  0
    2.5423   -3.9375    0.0000 H   0  0  0  0  0  0  0  0  0  0  0  0
    3.3406   -3.9344    0.0000 H   0  0  0  0  0  0  0  0  0  0  0  0
    4.5108   -0.8750    0.0000 H   0  0  0  0  0  0  0  0  0  0  0  0
    3.8956   -0.2502    0.0000 H   0  0  0  0  0  0  0  0  0  0  0  0
    3.2708   -0.8654    0.0000 H   0  0  0  0  0  0  0  0  0  0  0  0
    1.8038   -1.2488    0.0000 H   0  0  0  0  0  0  0  0  0  0  0  0
    1.3967   -1.9354    0.0000 H   0  0  0  0  0  0  0  0  0  0  0  0
    1.3900   -2.8082    0.0000 H   0  0  0  0  0  0  0  0  0  0  0  0
    1.7864   -3.5011    0.0000 H   0  0  0  0  0  0  0  0  0  0  0  0
    6.7356    2.1176    0.0000 H   0  0  0  0  0  0  0  0  0  0  0  0
    6.7342    1.2879    0.0000 H   0  0  0  0  0  0  0  0  0  0  0  0
    8.8615    0.5926    0.0000 H   0  0  0  0  0  0  0  0  0  0  0  0
    9.3503    1.2630    0.0000 H   0  0  0  0  0  0  0  0  0  0  0  0
  1 24  1  0  0  0  0
  1 25  1  0  0  0  0
  2 25  2  0  0  0  0
  3  4  1  0  0  0  0
  3  8  1  0  0  0  0
  3  9  1  0  0  0  0
  3 18  1  1  0  0  0
  4  5  1  0  0  0  0
  4 12  1  0  0  0  0
  4 26  1  1  0  0  0
  5  6  1  0  0  0  0
  5 13  1  0  0  0  0
  5 27  1  1  0  0  0
  6  7  1  0  0  0  0
  6 10  1  0  0  0  0
  6 28  1  6  0  0  0
  7 11  1  0  0  0  0
  7 16  1  0  0  0  0
  7 20  1  1  0  0  0
  8 14  1  0  0  0  0
  8 17  1  0  0  0  0
  8 29  1  6  0  0  0
  9 10  1  0  0  0  0
  9 30  1  0  0  0  0
  9 31  1  0  0  0  0
 10 32  1  0  0  0  0
 10 33  1  0  0  0  0
 11 15  1  0  0  0  0
 11 19  1  0  0  0  0
 11 34  1  0  0  0  0
 12 14  1  0  0  0  0
 12 35  1  0  0  0  0
 12 36  1  0  0  0  0
 13 15  1  0  0  0  0
 13 37  1  0  0  0  0
 13 38  1  0  0  0  0
 14 39  1  0  0  0  0
 14 40  1  0  0  0  0
 15 41  1  0  0  0  0
 15 42  1  0  0  0  0
 16 21  1  0  0  0  0
 16 43  1  0  0  0  0
 16 44  1  0  0  0  0
 17 23  1  0  0  0  0
 17 24  1  0  0  0  0
 17 45  1  6  0  0  0
 18 46  1  0  0  0  0
 18 47  1  0  0  0  0
 18 48  1  0  0  0  0
 19 22  1  0  0  0  0
 19 49  1  0  0  0  0
 19 50  1  0  0  0  0
 20 51  1  0  0  0  0
 20 52  1  0  0  0  0
 20 53  1  0  0  0  0
 21 22  1  0  0  0  0
 21 54  1  0  0  0  0
 21 55  1  0  0  0  0
 22 56  1  0  0  0  0
 22 57  1  0  0  0  0
 23 25  1  0  0  0  0
 23 58  1  0  0  0  0
 23 59  1  0  0  0  0
 24 60  1  0  0  0  0
 24 61  1  0  0  0  0
M  END
> <PUBCHEM_COMPOUND_CID>
114951

> <PUBCHEM_COMPOUND_CANONICALIZED>
1

> <PUBCHEM_CACTVS_COMPLEXITY>
556

> <PUBCHEM_CACTVS_HBOND_ACCEPTOR>
2

> <PUBCHEM_CACTVS_HBOND_DONOR>
0

> <PUBCHEM_CACTVS_ROTATABLE_BOND>
1

> <PUBCHEM_CACTVS_SUBSKEYS>
AAADcfB4MAAAAAAAAAAAAAAAAAAAAaIAAAAwYMAAAAAAAGDAAAAAGgAAAAAADwCggAICCAAABAAIAACQCAAAAAAAAAAAAAEAAAAAABIAAAACAAAEAAAAAAGKyPCPgAAAAAAAAACAAAQAACAAAQAACAAAAA==

> <PUBCHEM_IUPAC_OPENEYE_NAME>
(4R)-4-[(8R,9S,10S,13S,14R,17R)-10,13-dimethyl-2,3,4,5,6,7,8,9,11,12,14,15,16,17-tetradecahydro-1H-cyclopenta[a]phenanthren-17-yl]tetrahydrofuran-2-one

> <PUBCHEM_IUPAC_CAS_NAME>
(4R)-4-[(8R,9S,10S,13S,14R,17R)-10,13-dimethyl-2,3,4,5,6,7,8,9,11,12,14,15,16,17-tetradecahydro-1H-cyclopenta[a]phenanthren-17-yl]-2-oxolanone

> <PUBCHEM_IUPAC_NAME>
(4R)-4-[(8R,9S,10S,13S,14R,17R)-10,13-dimethyl-2,3,4,5,6,7,8,9,11,12,14,15,16,17-tetradecahydro-1H-cyclopenta[a]phenanthren-17-yl]oxolan-2-one

> <PUBCHEM_IUPAC_SYSTEMATIC_NAME>
(4R)-4-[(8R,9S,10S,13S,14R,17R)-10,13-dimethyl-2,3,4,5,6,7,8,9,11,12,14,15,16,17-tetradecahydro-1H-cyclopenta[a]phenanthren-17-yl]oxolan-2-one

> <PUBCHEM_IUPAC_TRADITIONAL_NAME>
(4R)-4-[(8R,9S,10S,13S,14R,17R)-10,13-dimethyl-2,3,4,5,6,7,8,9,11,12,14,15,16,17-tetradecahydro-1H-cyclopenta[a]phenanthren-17-yl]tetrahydrofuran-2-one

> <PUBCHEM_IUPAC_INCHI>
InChI=1S/C23H36O2/c1-22-11-4-3-5-16(22)6-7-17-19-9-8-18(15-13-21(24)25-14-15)23(19,2)12-10-20(17)22/h15-20H,3-14H2,1-2H3/t15-,16?,17-,18+,19+,20-,22-,23+/m0/s1

> <PUBCHEM_IUPAC_INCHIKEY>
AQARKTASOBROAE-OCYOQFCJSA-N

> <PUBCHEM_XLOGP3_AA>
7.2

> <PUBCHEM_EXACT_MASS>
344.27153

> <PUBCHEM_MOLECULAR_FORMULA>
C23H36O2

> <PUBCHEM_MOLECULAR_WEIGHT>
344.53074

> <PUBCHEM_OPENEYE_CAN_SMILES>
CC12CCCCC1CCC3C2CCC4(C3CCC4C5CC(=O)OC5)C

> <PUBCHEM_OPENEYE_ISO_SMILES>
C[C@]12CC[C@H]3[C@H]([C@H]1CC[C@@H]2[C@H]4CC(=O)OC4)CCC5[C@@]3(CCCC5)C

> <PUBCHEM_CACTVS_TPSA>
26.3

> <PUBCHEM_MONOISOTOPIC_WEIGHT>
344.27153

> <PUBCHEM_TOTAL_CHARGE>
0

> <PUBCHEM_HEAVY_ATOM_COUNT>
25

> <PUBCHEM_ATOM_DEF_STEREO_COUNT>
7

> <PUBCHEM_ATOM_UDEF_STEREO_COUNT>
1

> <PUBCHEM_BOND_DEF_STEREO_COUNT>
0

> <PUBCHEM_BOND_UDEF_STEREO_COUNT>
0

> <PUBCHEM_ISOTOPIC_ATOM_COUNT>
0

> <PUBCHEM_COMPONENT_COUNT>
1

> <PUBCHEM_CACTVS_TAUTO_COUNT>
2

> <PUBCHEM_COORDINATE_TYPE>
1
5
255

> <PUBCHEM_BONDANNOTATIONS>
11  34  3
17  45  6
3  18  5
4  26  5
5  27  5
6  28  6
7  20  5
8  29  6

$$$$

