440914
  -OEChem-07051212512D

 53 56  0     1  0  0  0  0  0999 V2000
    5.8934    3.5692    0.0000 O   0  0  0  0  0  0  0  0  0  0  0  0
    6.7168   -0.9947    0.0000 O   0  0  0  0  0  0  0  0  0  0  0  0
    5.5177   -2.2445    0.0000 O   0  0  0  0  0  0  0  0  0  0  0  0
    2.6346   -3.1320    0.0000 O   0  0  0  0  0  0  0  0  0  0  0  0
    4.3664   -3.1623    0.0000 O   0  0  0  0  0  0  0  0  0  0  0  0
    5.1708    0.4036    0.0000 C   0  0  1  0  0  0  0  0  0  0  0  0
    4.2699    0.8375    0.0000 C   0  0  2  0  0  0  0  0  0  0  0  0
    3.5848    0.1172    0.0000 C   0  0  1  0  0  0  0  0  0  0  0  0
    4.0566   -0.7578    0.0000 C   0  0  2  0  0  0  0  0  0  0  0  0
    5.0349   -0.5811    0.0000 C   0  0  2  0  0  0  0  0  0  0  0  0
    5.0640    1.5804    0.0000 C   0  0  0  0  0  0  0  0  0  0  0  0
    5.6708    2.5942    0.0000 C   0  0  2  0  0  0  0  0  0  0  0  0
    6.0718    0.8375    0.0000 C   0  0  0  0  0  0  0  0  0  0  0  0
    4.0474    1.8124    0.0000 C   0  0  0  0  0  0  0  0  0  0  0  0
    3.5267   -1.6474    0.0000 C   0  0  2  0  0  0  0  0  0  0  0  0
    2.5503    0.1632    0.0000 C   0  0  0  0  0  0  0  0  0  0  0  0
    4.6708    2.5942    0.0000 C   0  0  0  0  0  0  0  0  0  0  0  0
    6.2943    1.8124    0.0000 C   0  0  0  0  0  0  0  0  0  0  0  0
    3.1102    0.9974    0.0000 C   0  0  0  0  0  0  0  0  0  0  0  0
    2.4915   -1.6253    0.0000 C   0  0  0  0  0  0  0  0  0  0  0  0
    2.0000   -0.7139    0.0000 C   0  0  0  0  0  0  0  0  0  0  0  0
    5.7565   -1.2734    0.0000 C   0  0  0  0  0  0  0  0  0  0  0  0
    4.3838   -2.1625    0.0000 C   0  0  0  0  0  0  0  0  0  0  0  0
    3.5092   -2.6472    0.0000 C   0  0  0  0  0  0  0  0  0  0  0  0
    7.2693    2.0349    0.0000 C   0  0  0  0  0  0  0  0  0  0  0  0
    3.5041    1.2063    0.0000 H   0  0  0  0  0  0  0  0  0  0  0  0
    4.5408   -1.4564    0.0000 H   0  0  0  0  0  0  0  0  0  0  0  0
    4.8558   -1.1747    0.0000 H   0  0  0  0  0  0  0  0  0  0  0  0
    4.6562    2.0474    0.0000 H   0  0  0  0  0  0  0  0  0  0  0  0
    4.4940    1.3365    0.0000 H   0  0  0  0  0  0  0  0  0  0  0  0
    6.2098    0.2330    0.0000 H   0  0  0  0  0  0  0  0  0  0  0  0
    6.6918    0.8375    0.0000 H   0  0  0  0  0  0  0  0  0  0  0  0
    3.6608    2.2971    0.0000 H   0  0  0  0  0  0  0  0  0  0  0  0
    3.4888    1.5434    0.0000 H   0  0  0  0  0  0  0  0  0  0  0  0
    2.6835    0.7688    0.0000 H   0  0  0  0  0  0  0  0  0  0  0  0
    1.9765    0.3980    0.0000 H   0  0  0  0  0  0  0  0  0  0  0  0
    4.8088    3.1987    0.0000 H   0  0  0  0  0  0  0  0  0  0  0  0
    4.1123    2.8632    0.0000 H   0  0  0  0  0  0  0  0  0  0  0  0
    3.6559    1.2916    0.0000 H   0  0  0  0  0  0  0  0  0  0  0  0
    2.8159    1.5431    0.0000 H   0  0  0  0  0  0  0  0  0  0  0  0
    2.5644    0.7031    0.0000 H   0  0  0  0  0  0  0  0  0  0  0  0
    1.9034   -1.8218    0.0000 H   0  0  0  0  0  0  0  0  0  0  0  0
    2.5845   -2.2383    0.0000 H   0  0  0  0  0  0  0  0  0  0  0  0
    1.5390   -0.2994    0.0000 H   0  0  0  0  0  0  0  0  0  0  0  0
    1.5127   -1.0972    0.0000 H   0  0  0  0  0  0  0  0  0  0  0  0
    4.0645   -2.6939    0.0000 H   0  0  0  0  0  0  0  0  0  0  0  0
    4.9153   -2.4818    0.0000 H   0  0  0  0  0  0  0  0  0  0  0  0
    4.7032   -1.6310    0.0000 H   0  0  0  0  0  0  0  0  0  0  0  0
    6.4858    3.7519    0.0000 H   0  0  0  0  0  0  0  0  0  0  0  0
    7.6910    1.5804    0.0000 H   0  0  0  0  0  0  0  0  0  0  0  0
    7.4520    2.6274    0.0000 H   0  0  0  0  0  0  0  0  0  0  0  0
    7.1642   -1.4239    0.0000 H   0  0  0  0  0  0  0  0  0  0  0  0
    2.6237   -3.7519    0.0000 H   0  0  0  0  0  0  0  0  0  0  0  0
 12  1  1  6  0  0  0
  1 49  1  0  0  0  0
  2 22  1  0  0  0  0
  2 52  1  0  0  0  0
  3 22  2  0  0  0  0
  4 24  1  0  0  0  0
  4 53  1  0  0  0  0
  5 24  2  0  0  0  0
  6  7  1  0  0  0  0
  6 10  1  0  0  0  0
  6 11  1  6  0  0  0
  6 13  1  0  0  0  0
  7  8  1  0  0  0  0
  7 14  1  0  0  0  0
  7 26  1  1  0  0  0
  8  9  1  0  0  0  0
  8 16  1  0  0  0  0
  8 19  1  6  0  0  0
  9 10  1  0  0  0  0
  9 15  1  0  0  0  0
  9 27  1  1  0  0  0
 10 22  1  1  0  0  0
 10 28  1  0  0  0  0
 11 12  1  0  0  0  0
 11 29  1  0  0  0  0
 11 30  1  0  0  0  0
 12 17  1  0  0  0  0
 12 18  1  0  0  0  0
 13 18  1  0  0  0  0
 13 31  1  0  0  0  0
 13 32  1  0  0  0  0
 14 17  1  0  0  0  0
 14 33  1  0  0  0  0
 14 34  1  0  0  0  0
 15 20  1  0  0  0  0
 15 23  1  1  0  0  0
 15 24  1  0  0  0  0
 16 21  1  0  0  0  0
 16 35  1  0  0  0  0
 16 36  1  0  0  0  0
 17 37  1  0  0  0  0
 17 38  1  0  0  0  0
 18 25  2  0  0  0  0
 19 39  1  0  0  0  0
 19 40  1  0  0  0  0
 19 41  1  0  0  0  0
 20 21  1  0  0  0  0
 20 42  1  0  0  0  0
 20 43  1  0  0  0  0
 21 44  1  0  0  0  0
 21 45  1  0  0  0  0
 23 46  1  0  0  0  0
 23 47  1  0  0  0  0
 23 48  1  0  0  0  0
 25 50  1  0  0  0  0
 25 51  1  0  0  0  0
M  END
> <PUBCHEM_COMPOUND_CID>
440914

> <PUBCHEM_COMPOUND_CANONICALIZED>
1

> <PUBCHEM_CACTVS_COMPLEXITY>
686

> <PUBCHEM_CACTVS_HBOND_ACCEPTOR>
5

> <PUBCHEM_CACTVS_HBOND_DONOR>
3

> <PUBCHEM_CACTVS_ROTATABLE_BOND>
2

> <PUBCHEM_CACTVS_SUBSKEYS>
AAADceB4OAAAAAAAAAAAAAAAAAAAAYMAAAAwYAAABgAAAGDAAAAAGgAACAAAD0SAgAACCAAAAgCIAgDSCAAAAAAgAAAAAAEAAAgABBIAAQAAQAAEgAAAEAGI7vTPgAAAAAAAAADAAAYAACAAAYAACAAAAA==

> <PUBCHEM_IUPAC_INCHI>
InChI=1S/C20H28O5/c1-11-9-19-10-20(11,25)8-5-12(19)17(2)6-4-7-18(3,16(23)24)14(17)13(19)15(21)22/h12-14,25H,1,4-10H2,2-3H3,(H,21,22)(H,23,24)/t12-,13+,14-,17-,18+,19-,20-/m0/s1

> <PUBCHEM_IUPAC_INCHIKEY>
CZEMYYICWZPENF-VOLTXKGXSA-N

> <PUBCHEM_XLOGP3_AA>
2.2

> <PUBCHEM_EXACT_MASS>
348.193674

> <PUBCHEM_MOLECULAR_FORMULA>
C20H28O5

> <PUBCHEM_MOLECULAR_WEIGHT>
348.43332

> <PUBCHEM_OPENEYE_CAN_SMILES>
CC12CCCC(C1C(C34C2CCC(C3)(C(=C)C4)O)C(=O)O)(C)C(=O)O

> <PUBCHEM_OPENEYE_ISO_SMILES>
C[C@@]12CCC[C@@]([C@H]1[C@@H]([C@]34[C@H]2CC[C@](C3)(C(=C)C4)O)C(=O)O)(C)C(=O)O

> <PUBCHEM_CACTVS_TPSA>
94.8

> <PUBCHEM_MONOISOTOPIC_WEIGHT>
348.193674

> <PUBCHEM_TOTAL_CHARGE>
0

> <PUBCHEM_HEAVY_ATOM_COUNT>
25

> <PUBCHEM_ATOM_DEF_STEREO_COUNT>
7

> <PUBCHEM_ATOM_UDEF_STEREO_COUNT>
0

> <PUBCHEM_BOND_DEF_STEREO_COUNT>
0

> <PUBCHEM_BOND_UDEF_STEREO_COUNT>
0

> <PUBCHEM_ISOTOPIC_ATOM_COUNT>
0

> <PUBCHEM_COMPONENT_COUNT>
1

> <PUBCHEM_CACTVS_TAUTO_COUNT>
1

> <PUBCHEM_COORDINATE_TYPE>
1
5
255

> <PUBCHEM_BONDANNOTATIONS>
12  1  6
10  22  5
15  23  5
6  11  6
7  26  5
8  19  6
9  27  5

$$$$

