6438330
  -OEChem-07051213022D

 78 80  0     1  0  0  0  0  0999 V2000
   14.1249   -2.5206    0.0000 O   0  0  0  0  0  0  0  0  0  0  0  0
   12.8923   -0.6546    0.0000 O   0  0  0  0  0  0  0  0  0  0  0  0
   12.3923   -4.5206    0.0000 O   0  0  0  0  0  0  0  0  0  0  0  0
    9.7942   -2.0206    0.0000 O   0  0  0  0  0  0  0  0  0  0  0  0
    7.2772    3.9310    0.0000 O   0  0  0  0  0  0  0  0  0  0  0  0
    4.2286    2.1709    0.0000 O   0  0  0  0  0  0  0  0  0  0  0  0
    7.8923    2.8095    0.0000 O   0  0  0  0  0  0  0  0  0  0  0  0
   10.6603   -3.5206    0.0000 N   0  0  0  0  0  0  0  0  0  0  0  0
    6.3923    1.9435    0.0000 N   0  0  0  0  0  0  0  0  0  0  0  0
   13.2583   -2.0206    0.0000 C   0  0  2  0  0  0  0  0  0  0  0  0
   13.2583   -3.0206    0.0000 C   0  0  1  0  0  0  0  0  0  0  0  0
   12.3923   -1.5206    0.0000 C   0  0  2  0  0  0  0  0  0  0  0  0
   12.3923   -3.5206    0.0000 C   0  0  0  0  0  0  0  0  0  0  0  0
   11.5263   -2.0206    0.0000 C   0  0  0  0  0  0  0  0  0  0  0  0
   11.5263   -3.0206    0.0000 C   0  0  0  0  0  0  0  0  0  0  0  0
   11.8923   -0.6546    0.0000 C   0  0  0  0  0  0  0  0  0  0  0  0
   10.8923   -0.6546    0.0000 C   0  0  0  0  0  0  0  0  0  0  0  0
    9.7942   -3.0206    0.0000 C   0  0  0  0  0  0  0  0  0  0  0  0
   10.3923    0.2114    0.0000 C   0  0  0  0  0  0  0  0  0  0  0  0
    8.9282   -3.5206    0.0000 C   0  0  0  0  0  0  0  0  0  0  0  0
    5.4641   -3.5206    0.0000 C   0  0  2  0  0  0  0  0  0  0  0  0
    9.3923    0.2114    0.0000 C   0  0  0  0  0  0  0  0  0  0  0  0
    8.0622   -3.0206    0.0000 C   0  0  0  0  0  0  0  0  0  0  0  0
    4.5981   -3.0206    0.0000 C   0  0  0  0  0  0  0  0  0  0  0  0
    8.9282   -4.5206    0.0000 C   0  0  0  0  0  0  0  0  0  0  0  0
    7.1962   -3.5206    0.0000 C   0  0  0  0  0  0  0  0  0  0  0  0
    3.7320   -3.5206    0.0000 C   0  0  0  0  0  0  0  0  0  0  0  0
    6.3301   -3.0206    0.0000 C   0  0  0  0  0  0  0  0  0  0  0  0
    5.4641   -4.5206    0.0000 C   0  0  0  0  0  0  0  0  0  0  0  0
    2.8660   -3.0206    0.0000 C   0  0  0  0  0  0  0  0  0  0  0  0
    8.8923    1.0775    0.0000 C   0  0  0  0  0  0  0  0  0  0  0  0
    7.1962   -4.5206    0.0000 C   0  0  0  0  0  0  0  0  0  0  0  0
    2.0000   -3.5206    0.0000 C   0  0  0  0  0  0  0  0  0  0  0  0
    7.8923    1.0775    0.0000 C   0  0  0  0  0  0  0  0  0  0  0  0
    5.5559    4.3922    0.0000 C   0  0  0  0  0  0  0  0  0  0  0  0
    4.6899    3.8922    0.0000 C   0  0  0  0  0  0  0  0  0  0  0  0
    5.8923    2.8095    0.0000 C   0  0  0  0  0  0  0  0  0  0  0  0
    6.2990    3.7230    0.0000 C   0  0  0  0  0  0  0  0  0  0  0  0
    4.8978    2.9140    0.0000 C   0  0  0  0  0  0  0  0  0  0  0  0
    7.3923    1.9435    0.0000 C   0  0  0  0  0  0  0  0  0  0  0  0
   13.5683   -1.4836    0.0000 H   0  0  0  0  0  0  0  0  0  0  0  0
   13.5683   -3.5576    0.0000 H   0  0  0  0  0  0  0  0  0  0  0  0
   10.9893   -1.7106    0.0000 H   0  0  0  0  0  0  0  0  0  0  0  0
   12.2023   -0.1177    0.0000 H   0  0  0  0  0  0  0  0  0  0  0  0
   13.5123   -0.6546    0.0000 H   0  0  0  0  0  0  0  0  0  0  0  0
   10.6603   -4.1406    0.0000 H   0  0  0  0  0  0  0  0  0  0  0  0
   10.5823   -1.1915    0.0000 H   0  0  0  0  0  0  0  0  0  0  0  0
   10.7023    0.7484    0.0000 H   0  0  0  0  0  0  0  0  0  0  0  0
    6.0010   -3.8306    0.0000 H   0  0  0  0  0  0  0  0  0  0  0  0
    9.0823   -0.3255    0.0000 H   0  0  0  0  0  0  0  0  0  0  0  0
    4.9966   -2.5457    0.0000 H   0  0  0  0  0  0  0  0  0  0  0  0
    4.1996   -2.5457    0.0000 H   0  0  0  0  0  0  0  0  0  0  0  0
    8.0622   -2.4006    0.0000 H   0  0  0  0  0  0  0  0  0  0  0  0
    8.3082   -4.5206    0.0000 H   0  0  0  0  0  0  0  0  0  0  0  0
    8.9282   -5.1406    0.0000 H   0  0  0  0  0  0  0  0  0  0  0  0
    9.5482   -4.5206    0.0000 H   0  0  0  0  0  0  0  0  0  0  0  0
    3.3335   -3.9956    0.0000 H   0  0  0  0  0  0  0  0  0  0  0  0
    4.1306   -3.9956    0.0000 H   0  0  0  0  0  0  0  0  0  0  0  0
    6.3301   -2.4006    0.0000 H   0  0  0  0  0  0  0  0  0  0  0  0
    4.8441   -4.5206    0.0000 H   0  0  0  0  0  0  0  0  0  0  0  0
    5.4641   -5.1406    0.0000 H   0  0  0  0  0  0  0  0  0  0  0  0
    6.0841   -4.5206    0.0000 H   0  0  0  0  0  0  0  0  0  0  0  0
    3.2646   -2.5457    0.0000 H   0  0  0  0  0  0  0  0  0  0  0  0
    2.4675   -2.5457    0.0000 H   0  0  0  0  0  0  0  0  0  0  0  0
    9.2023    1.6144    0.0000 H   0  0  0  0  0  0  0  0  0  0  0  0
    6.5762   -4.5206    0.0000 H   0  0  0  0  0  0  0  0  0  0  0  0
    7.1962   -5.1406    0.0000 H   0  0  0  0  0  0  0  0  0  0  0  0
    7.8162   -4.5206    0.0000 H   0  0  0  0  0  0  0  0  0  0  0  0
    1.6900   -2.9837    0.0000 H   0  0  0  0  0  0  0  0  0  0  0  0
    1.4631   -3.8306    0.0000 H   0  0  0  0  0  0  0  0  0  0  0  0
    2.3100   -4.0576    0.0000 H   0  0  0  0  0  0  0  0  0  0  0  0
    7.5823    0.5405    0.0000 H   0  0  0  0  0  0  0  0  0  0  0  0
    6.0166    4.8070    0.0000 H   0  0  0  0  0  0  0  0  0  0  0  0
    5.1915    4.8938    0.0000 H   0  0  0  0  0  0  0  0  0  0  0  0
    4.4377    4.4586    0.0000 H   0  0  0  0  0  0  0  0  0  0  0  0
    4.1002    3.7006    0.0000 H   0  0  0  0  0  0  0  0  0  0  0  0
    6.0823    1.4066    0.0000 H   0  0  0  0  0  0  0  0  0  0  0  0
    7.4688    4.5206    0.0000 H   0  0  0  0  0  0  0  0  0  0  0  0
 10  1  1  6  0  0  0
 11  1  1  6  0  0  0
 12  2  1  6  0  0  0
  2 45  1  0  0  0  0
  3 13  2  0  0  0  0
  4 18  2  0  0  0  0
  5 38  1  0  0  0  0
  5 78  1  0  0  0  0
  6 39  2  0  0  0  0
  7 40  2  0  0  0  0
  8 15  1  0  0  0  0
  8 18  1  0  0  0  0
  8 46  1  0  0  0  0
  9 37  1  0  0  0  0
  9 40  1  0  0  0  0
  9 77  1  0  0  0  0
 10 11  1  0  0  0  0
 10 12  1  0  0  0  0
 10 41  1  0  0  0  0
 11 13  1  0  0  0  0
 11 42  1  0  0  0  0
 12 14  1  0  0  0  0
 12 16  1  0  0  0  0
 13 15  1  0  0  0  0
 14 15  2  0  0  0  0
 14 43  1  0  0  0  0
 16 17  2  0  0  0  0
 16 44  1  0  0  0  0
 17 19  1  0  0  0  0
 17 47  1  0  0  0  0
 18 20  1  0  0  0  0
 19 22  2  0  0  0  0
 19 48  1  0  0  0  0
 20 23  2  0  0  0  0
 20 25  1  0  0  0  0
 21 24  1  0  0  0  0
 21 28  1  0  0  0  0
 21 29  1  6  0  0  0
 21 49  1  0  0  0  0
 22 31  1  0  0  0  0
 22 50  1  0  0  0  0
 23 26  1  0  0  0  0
 23 53  1  0  0  0  0
 24 27  1  0  0  0  0
 24 51  1  0  0  0  0
 24 52  1  0  0  0  0
 25 54  1  0  0  0  0
 25 55  1  0  0  0  0
 25 56  1  0  0  0  0
 26 28  2  0  0  0  0
 26 32  1  0  0  0  0
 27 30  1  0  0  0  0
 27 57  1  0  0  0  0
 27 58  1  0  0  0  0
 28 59  1  0  0  0  0
 29 60  1  0  0  0  0
 29 61  1  0  0  0  0
 29 62  1  0  0  0  0
 30 33  1  0  0  0  0
 30 63  1  0  0  0  0
 30 64  1  0  0  0  0
 31 34  2  0  0  0  0
 31 65  1  0  0  0  0
 32 66  1  0  0  0  0
 32 67  1  0  0  0  0
 32 68  1  0  0  0  0
 33 69  1  0  0  0  0
 33 70  1  0  0  0  0
 33 71  1  0  0  0  0
 34 40  1  0  0  0  0
 34 72  1  0  0  0  0
 35 36  1  0  0  0  0
 35 38  1  0  0  0  0
 35 73  1  0  0  0  0
 35 74  1  0  0  0  0
 36 39  1  0  0  0  0
 36 75  1  0  0  0  0
 36 76  1  0  0  0  0
 37 38  2  0  0  0  0
 37 39  1  0  0  0  0
M  END
> <PUBCHEM_COMPOUND_CID>
6438330

> <PUBCHEM_COMPOUND_CANONICALIZED>
1

> <PUBCHEM_CACTVS_COMPLEXITY>
1260

> <PUBCHEM_CACTVS_HBOND_ACCEPTOR>
7

> <PUBCHEM_CACTVS_HBOND_DONOR>
4

> <PUBCHEM_CACTVS_ROTATABLE_BOND>
12

> <PUBCHEM_CACTVS_SUBSKEYS>
AAADcfB7OAAAAAAAAAAAAAAAEgAAAQAAAAAgAAAABAAAAAAAAAAAHgAQCAAADVyhgAICAALABgCIAqVSUAKAAAAgIgAICAHAAEgJBBYAgSQGUAAH9ACLkYO6EAIMAAAAAAAAAAAAAAAAAAAAAAAAAAAAAA==

> <PUBCHEM_IUPAC_OPENEYE_NAME>
(2E,4E,6R)-N-[(1S,5S,6R)-5-hydroxy-5-[(1E,3E,5E)-7-[(2-hydroxy-5-oxo-cyclopenten-1-yl)amino]-7-oxo-hepta-1,3,5-trienyl]-2-oxo-7-oxabicyclo[4.1.0]hept-3-en-3-yl]-2,4,6-trimethyl-deca-2,4-dienamide

> <PUBCHEM_IUPAC_CAS_NAME>
(2E,4E,6R)-N-[(1S,5S,6R)-5-hydroxy-5-[(1E,3E,5E)-7-[(2-hydroxy-5-oxo-1-cyclopentenyl)amino]-7-oxohepta-1,3,5-trienyl]-2-oxo-7-oxabicyclo[4.1.0]hept-3-en-3-yl]-2,4,6-trimethyldeca-2,4-dienamide

> <PUBCHEM_IUPAC_NAME>
(2E,4E,6R)-N-[(1S,5S,6R)-5-hydroxy-5-[(1E,3E,5E)-7-[(2-hydroxy-5-oxocyclopenten-1-yl)amino]-7-oxohepta-1,3,5-trienyl]-2-oxo-7-oxabicyclo[4.1.0]hept-3-en-3-yl]-2,4,6-trimethyldeca-2,4-dienamide

> <PUBCHEM_IUPAC_SYSTEMATIC_NAME>
(2E,4E,6R)-2,4,6-trimethyl-N-[(1S,5S,6R)-5-oxidanyl-2-oxidanylidene-5-[(1E,3E,5E)-7-oxidanylidene-7-[(2-oxidanyl-5-oxidanylidene-cyclopenten-1-yl)amino]hepta-1,3,5-trienyl]-7-oxabicyclo[4.1.0]hept-3-en-3-yl]deca-2,4-dienamide

> <PUBCHEM_IUPAC_TRADITIONAL_NAME>
(2E,4E,6R)-N-[(1S,5S,6R)-5-hydroxy-5-[(1E,3E,5E)-7-[(2-hydroxy-5-keto-cyclopenten-1-yl)amino]-7-keto-hepta-1,3,5-trienyl]-2-keto-7-oxabicyclo[4.1.0]hept-3-en-3-yl]-2,4,6-trimethyl-deca-2,4-dienamide

> <PUBCHEM_IUPAC_INCHI>
InChI=1S/C31H38N2O7/c1-5-6-11-19(2)16-20(3)17-21(4)30(38)32-22-18-31(39,29-28(40-29)27(22)37)15-10-8-7-9-12-25(36)33-26-23(34)13-14-24(26)35/h7-10,12,15-19,28-29,34,39H,5-6,11,13-14H2,1-4H3,(H,32,38)(H,33,36)/b8-7+,12-9+,15-10+,20-16+,21-17+/t19-,28-,29-,31+/m1/s1

> <PUBCHEM_IUPAC_INCHIKEY>
TWWQHCKLTXDWBD-MVTGTTCWSA-N

> <PUBCHEM_XLOGP3_AA>
4.1

> <PUBCHEM_EXACT_MASS>
550.267902

> <PUBCHEM_MOLECULAR_FORMULA>
C31H38N2O7

> <PUBCHEM_MOLECULAR_WEIGHT>
550.64262

> <PUBCHEM_OPENEYE_CAN_SMILES>
CCCCC(C)C=C(C)C=C(C)C(=O)NC1=CC(C2C(C1=O)O2)(C=CC=CC=CC(=O)NC3=C(CCC3=O)O)O

> <PUBCHEM_OPENEYE_ISO_SMILES>
CCCC[C@@H](C)/C=C(\C)/C=C(\C)/C(=O)NC1=C[C@]([C@H]2[C@@H](C1=O)O2)(/C=C/C=C/C=C/C(=O)NC3=C(CCC3=O)O)O

> <PUBCHEM_CACTVS_TPSA>
145

> <PUBCHEM_MONOISOTOPIC_WEIGHT>
550.267902

> <PUBCHEM_TOTAL_CHARGE>
0

> <PUBCHEM_HEAVY_ATOM_COUNT>
40

> <PUBCHEM_ATOM_DEF_STEREO_COUNT>
4

> <PUBCHEM_ATOM_UDEF_STEREO_COUNT>
0

> <PUBCHEM_BOND_DEF_STEREO_COUNT>
5

> <PUBCHEM_BOND_UDEF_STEREO_COUNT>
0

> <PUBCHEM_ISOTOPIC_ATOM_COUNT>
0

> <PUBCHEM_COMPONENT_COUNT>
1

> <PUBCHEM_CACTVS_TAUTO_COUNT>
220

> <PUBCHEM_COORDINATE_TYPE>
1
5
255

> <PUBCHEM_BONDANNOTATIONS>
10  1  6
11  1  6
12  2  6
21  29  6

$$$$

