   Color/Form

     * Monoclinic prisms
     * Colorless or white deliquescent crystals
     * Colorless to light-brownish crystals
     * ...colorless, hygroscopic, crystalline solid, which occurs in
       monoclinically prismatic structures...

   from [1]HSDB

   Odor
        Characteristic penetrating odor similar to vinegar
   from [2]HSDB

   Boiling Point
        189.3 deg C
   from [3]HSDB

   Melting Point
        Exists in alpha, beta, and gamma forms having mp 63 deg C, 55-56
   deg C, and 50 deg C respectively.
   from [4]HSDB

   Corrosivity
        ...extremely corrosive and will cause serious chemical burns.
   from [5]HSDB

   Critical Temperature and Pressure
        Critical temperature: 686.0 K; critical pressure: 5.78X10+6 Pa
   from [6]HSDB

   Density/Specific Gravity
        1.3703 at 65 deg C/4 deg C (liquid); 1.58 at 20 deg C/20 deg C
   (solid)
   from [7]HSDB

   Dissociation Constants
        pKa = 2.87
   from [8]HSDB

   Heat of Combustion
        715.9 kJ/mol
   from [9]HSDB

   Heat of Vaporization
        50.09 kJ/mole
   from [10]HSDB

   Octanol/Water Partition Coefficient
        log Kow = 0.22
   from [11]HSDB

   Solubilities

     * Soluble in ethanol, diethyl ether, benzene, chloroform; slightly
       soluble in carbon tetrachloride.
     * ... good solubility in methanol, acetone, diethyl ether, and
       ethanol, but is only sparingly soluble in hydrocarbons and
       chlorinated hydrocarbons.
     * In water, 8.58X10+5 mg/L at 25 deg C

   from [12]HSDB

   Spectral Properties

     * Index of refraction: 1.4351 at 55 deg C/D
     * SADTLER REF NUMBER: 2094 (IR, PRISM)
     * MAX ABSORPTION (ALCOHOL): 218 NM (LOG E= 1.7) SHOULDER
     * IR: 5567 (Coblentz Society Spectral Collection)
     * 1H NMR: 128 (Sadtler Research Laboratories Spectral Collection)
     * Raman: 435 (Sadtler Research Laboratories spectral collection)
     * MASS: 19629 (NIST/EPA/MSDC Mass Spectral Database, 1990 Version)

   from [13]HSDB

   Surface Tension
        35.17 dyn/cm at 100 deg C
   from [14]HSDB

   Vapor Density
        3.26 (Air = 1)
   from [15]HSDB

   Vapor Pressure
        6.50X10-2 mm Hg at 25 deg C
   from [16]HSDB

   Viscosity
        2.16 millipascal-sec at 70 deg C, 1.32 millipascal-sec at 100 deg
   C, 1.30 millipascal-sec at 130 deg C
   from [17]HSDB

   Other Chemical/Physical Properties

     * This compound absorbs water from the air and forms a syrup.
     * Combustible liquid when exposed to heat or flame...When heated to
       decomposition it emits toxic fumes
     * /Chloroacetic acid occurs in/ monoclinically prismatic structures
       existing in the alpha, beta, gamma, and also possibly the delta
       form. Of these the alpha form is the most stable and the most
       important industrially.
     * IR: 5567 (Coblentz Society Spectral Collection) /Chloroacetic acid
       (beta)/
     * MASS: 196 (Atlas of Mass Spectral Data, John Wiley & Sons, New
       York) /Chloroacetic acid (beta)/
     * IR: 5567 (Coblentz Society Spectral Collection) /Chloroacetic acid
       (gamma)/
     * MASS: 196 (Atlas of Mass Spectral Data, John Wiley & Sons, New
       York) /Chloroacetic acid (gamma)/
     * The commercial material melts at 61-63 deg C, boiling range 186-191
       deg C.
     * Free energy of formation: -368.7 kJ/mole at 100 deg C; heat
       capacity: 181.0 joule/mole-K at 100 deg C; heat of formation:
       -490.1 kJ/mole at 100 deg C; heat of sublimation: 88.1 kJ/mole at
       25 deg C
     * Heat of fusion at the melting point = 1.2285X10+7 J/kmol
     * Degree of dissociation in water (potentiometric): 1.52X10-3 at 25
       deg C
     * Henry's Law constant = 9.26X10-9 atm-cu m/mole at 25 deg C
     * Hydroxyl radical reaction rate constant = 7.9X10-13 cu
       cm/molecule-sec at 25 deg C (est)

   from [18]HSDB

   Computed Properties
   Molecular Weight                  94.49702 [g/mol]
   Molecular Formula                 C[2]H[3]ClO[2]
   XLogP3                            0.2
   H-Bond Donor                      1
   H-Bond Acceptor                   2
   Rotatable Bond Count              1
   Exact Mass                        93.982157
   MonoIsotopic Mass                 93.982157
   Topological Polar Surface Area    37.3
   Heavy Atom Count                  5
   Formal Charge                     0
   Complexity                        42.9
   Isotope Atom Count                0
   Defined Atom Stereocenter Count   0
   Undefined Atom Stereocenter Count 0
   Defined Bond Stereocenter Count   0
   Undefined Bond Stereocenter Count 0
   Covalently-Bonded Unit Count      1
   Feature 3D Acceptor Count         2
   Feature 3D Anion Count            1
   Effective Rotor Count             1
   Conformer Sampling RMSD           0.4
   CID Conformer Count               [19]3

References

   1. http://toxnet.nlm.nih.gov/cgi-bin/sis/search/r?dbs+hsdb:@term+@rn+@rel+79-11-8
   2. http://toxnet.nlm.nih.gov/cgi-bin/sis/search/r?dbs+hsdb:@term+@rn+@rel+79-11-8
   3. http://toxnet.nlm.nih.gov/cgi-bin/sis/search/r?dbs+hsdb:@term+@rn+@rel+79-11-8
   4. http://toxnet.nlm.nih.gov/cgi-bin/sis/search/r?dbs+hsdb:@term+@rn+@rel+79-11-8
   5. http://toxnet.nlm.nih.gov/cgi-bin/sis/search/r?dbs+hsdb:@term+@rn+@rel+79-11-8
   6. http://toxnet.nlm.nih.gov/cgi-bin/sis/search/r?dbs+hsdb:@term+@rn+@rel+79-11-8
   7. http://toxnet.nlm.nih.gov/cgi-bin/sis/search/r?dbs+hsdb:@term+@rn+@rel+79-11-8
   8. http://toxnet.nlm.nih.gov/cgi-bin/sis/search/r?dbs+hsdb:@term+@rn+@rel+79-11-8
   9. http://toxnet.nlm.nih.gov/cgi-bin/sis/search/r?dbs+hsdb:@term+@rn+@rel+79-11-8
  10. http://toxnet.nlm.nih.gov/cgi-bin/sis/search/r?dbs+hsdb:@term+@rn+@rel+79-11-8
  11. http://toxnet.nlm.nih.gov/cgi-bin/sis/search/r?dbs+hsdb:@term+@rn+@rel+79-11-8
  12. http://toxnet.nlm.nih.gov/cgi-bin/sis/search/r?dbs+hsdb:@term+@rn+@rel+79-11-8
  13. http://toxnet.nlm.nih.gov/cgi-bin/sis/search/r?dbs+hsdb:@term+@rn+@rel+79-11-8
  14. http://toxnet.nlm.nih.gov/cgi-bin/sis/search/r?dbs+hsdb:@term+@rn+@rel+79-11-8
  15. http://toxnet.nlm.nih.gov/cgi-bin/sis/search/r?dbs+hsdb:@term+@rn+@rel+79-11-8
  16. http://toxnet.nlm.nih.gov/cgi-bin/sis/search/r?dbs+hsdb:@term+@rn+@rel+79-11-8
  17. http://toxnet.nlm.nih.gov/cgi-bin/sis/search/r?dbs+hsdb:@term+@rn+@rel+79-11-8
  18. http://toxnet.nlm.nih.gov/cgi-bin/sis/search/r?dbs+hsdb:@term+@rn+@rel+79-11-8
  19. http://pubchem.ncbi.nlm.nih.gov/vw3d/vw3d.cgi?cid=300
