   Color/Form

     * LEAFLETS FROM ALCOHOL
     * CREAMY WHITE TO PALE YELLOW CRYSTALS OR CRYSTALLINE POWDER

   from [1]HSDB

   Odor
        ALMOST ODORLESS
   from [2]HSDB

   Melting Point
        149-151 DEG C
   from [3]HSDB

   pH
        4.5 IN SATURATED SOLN @ 25 DEG C
   from [4]HSDB

   Solubilities
        PRACTICALLY INSOL IN COLD WATER; SOL IN CHLOROFORM; SLIGHTLY SOL
   IN WARM WATER; READILY SOL IN ALKALINE SOLN; SOL IN METHANOL, ETHANOL,
   ETHER, ACETONE, BENZENE
   from [5]HSDB

   Spectral Properties

     * MAX ABSORPTION (ALCOHOL): 269 NM (LOG E= 4.35); 320 NM (LOG E=
       3.53)
     * IR: 10612 (Sadtler Research Laboratories IR Grating Collection)
     * UV: 13337 (Sadtler Research Laboratories Spectral Collection)
     * NMR: 3618 (Sadtler Research Laboratories Spectral Collection)

   from [6]HSDB

   Other Chemical/Physical Properties
        SOLN IN ALKALIES ARE RED, IN CONCN H2SO4 BLUE
   from [7]HSDB

   Computed Properties
   Molecular Weight                  222.2387 [g/mol]
   Molecular Formula                 C[15]H[10]O[2]
   XLogP3                            2.9
   H-Bond Donor                      0
   H-Bond Acceptor                   2
   Rotatable Bond Count              1
   Tautomer Count                    2
   Exact Mass                        222.06808
   MonoIsotopic Mass                 222.06808
   Topological Polar Surface Area    34.1
   Heavy Atom Count                  17
   Formal Charge                     0
   Complexity                        304
   Isotope Atom Count                0
   Defined Atom Stereocenter Count   0
   Undefined Atom Stereocenter Count 0
   Defined Bond Stereocenter Count   0
   Undefined Bond Stereocenter Count 0
   Covalently-Bonded Unit Count      1
   Feature 3D Acceptor Count         2
   Feature 3D Anion Count            1
   Feature 3D Ring Count             3
   Effective Rotor Count             1.2
   Conformer Sampling RMSD           0.6
   CID Conformer Count               [8]1

References

   1. http://toxnet.nlm.nih.gov/cgi-bin/sis/search/r?dbs+hsdb:@term+@rn+@rel+83-12-5
   2. http://toxnet.nlm.nih.gov/cgi-bin/sis/search/r?dbs+hsdb:@term+@rn+@rel+83-12-5
   3. http://toxnet.nlm.nih.gov/cgi-bin/sis/search/r?dbs+hsdb:@term+@rn+@rel+83-12-5
   4. http://toxnet.nlm.nih.gov/cgi-bin/sis/search/r?dbs+hsdb:@term+@rn+@rel+83-12-5
   5. http://toxnet.nlm.nih.gov/cgi-bin/sis/search/r?dbs+hsdb:@term+@rn+@rel+83-12-5
   6. http://toxnet.nlm.nih.gov/cgi-bin/sis/search/r?dbs+hsdb:@term+@rn+@rel+83-12-5
   7. http://toxnet.nlm.nih.gov/cgi-bin/sis/search/r?dbs+hsdb:@term+@rn+@rel+83-12-5
   8. http://pubchem.ncbi.nlm.nih.gov/vw3d/vw3d.cgi?cid=4760
