17395977
  -OEChem-06241222532D

 47 50  0     0  0  0  0  0  0999 V2000
    4.5981   -1.7479    0.0000 S   0  0  0  0  0  0  0  0  0  0  0  0
    4.0981   -2.6139    0.0000 O   0  0  0  0  0  0  0  0  0  0  0  0
    5.0981   -0.8819    0.0000 O   0  0  0  0  0  0  0  0  0  0  0  0
    4.5981    1.2521    0.0000 O   0  0  0  0  0  0  0  0  0  0  0  0
    5.4641   -2.2479    0.0000 N   0  0  0  0  0  0  0  0  0  0  0  0
    6.2731   -3.8357    0.0000 N   0  0  0  0  0  0  0  0  0  0  0  0
    2.8660    1.2521    0.0000 N   0  0  0  0  0  0  0  0  0  0  0  0
    4.6551   -3.8357    0.0000 C   0  0  0  0  0  0  0  0  0  0  0  0
    4.9641   -4.7867    0.0000 C   0  0  0  0  0  0  0  0  0  0  0  0
    5.4641   -3.2479    0.0000 C   0  0  0  0  0  0  0  0  0  0  0  0
    5.9641   -4.7867    0.0000 C   0  0  0  0  0  0  0  0  0  0  0  0
    3.7320   -1.2479    0.0000 C   0  0  0  0  0  0  0  0  0  0  0  0
    3.7320   -0.2479    0.0000 C   0  0  0  0  0  0  0  0  0  0  0  0
    2.8660    0.2521    0.0000 C   0  0  0  0  0  0  0  0  0  0  0  0
    4.5981    3.2521    0.0000 C   0  0  0  0  0  0  0  0  0  0  0  0
    2.8660   -1.7479    0.0000 C   0  0  0  0  0  0  0  0  0  0  0  0
    3.7320    2.7521    0.0000 C   0  0  0  0  0  0  0  0  0  0  0  0
    4.5981    4.2521    0.0000 C   0  0  0  0  0  0  0  0  0  0  0  0
    2.0000   -0.2479    0.0000 C   0  0  0  0  0  0  0  0  0  0  0  0
    3.7320    1.7521    0.0000 C   0  0  0  0  0  0  0  0  0  0  0  0
    2.0000   -1.2479    0.0000 C   0  0  0  0  0  0  0  0  0  0  0  0
    2.8660    3.2521    0.0000 C   0  0  0  0  0  0  0  0  0  0  0  0
    5.4920    2.7174    0.0000 C   0  0  0  0  0  0  0  0  0  0  0  0
    3.7320    4.7521    0.0000 C   0  0  0  0  0  0  0  0  0  0  0  0
    5.4920    4.7867    0.0000 C   0  0  0  0  0  0  0  0  0  0  0  0
    2.8660    4.2521    0.0000 C   0  0  0  0  0  0  0  0  0  0  0  0
    6.3981    3.2313    0.0000 C   0  0  0  0  0  0  0  0  0  0  0  0
    6.3981    4.2729    0.0000 C   0  0  0  0  0  0  0  0  0  0  0  0
    4.3451   -3.2988    0.0000 H   0  0  0  0  0  0  0  0  0  0  0  0
    4.0887   -4.0879    0.0000 H   0  0  0  0  0  0  0  0  0  0  0  0
    4.3576   -4.9157    0.0000 H   0  0  0  0  0  0  0  0  0  0  0  0
    5.0289   -5.4034    0.0000 H   0  0  0  0  0  0  0  0  0  0  0  0
    5.8993   -5.4034    0.0000 H   0  0  0  0  0  0  0  0  0  0  0  0
    6.5706   -4.9157    0.0000 H   0  0  0  0  0  0  0  0  0  0  0  0
    6.0010   -1.9379    0.0000 H   0  0  0  0  0  0  0  0  0  0  0  0
    4.2690    0.0621    0.0000 H   0  0  0  0  0  0  0  0  0  0  0  0
    2.8660   -2.3679    0.0000 H   0  0  0  0  0  0  0  0  0  0  0  0
    2.3291    1.5621    0.0000 H   0  0  0  0  0  0  0  0  0  0  0  0
    1.4631    0.0621    0.0000 H   0  0  0  0  0  0  0  0  0  0  0  0
    1.4631   -1.5579    0.0000 H   0  0  0  0  0  0  0  0  0  0  0  0
    2.3291    2.9421    0.0000 H   0  0  0  0  0  0  0  0  0  0  0  0
    5.4848    2.0975    0.0000 H   0  0  0  0  0  0  0  0  0  0  0  0
    3.7320    5.3721    0.0000 H   0  0  0  0  0  0  0  0  0  0  0  0
    5.4848    5.4067    0.0000 H   0  0  0  0  0  0  0  0  0  0  0  0
    2.3291    4.5621    0.0000 H   0  0  0  0  0  0  0  0  0  0  0  0
    6.9338    2.9192    0.0000 H   0  0  0  0  0  0  0  0  0  0  0  0
    6.9338    4.5850    0.0000 H   0  0  0  0  0  0  0  0  0  0  0  0
  1  2  2  0  0  0  0
  1  3  2  0  0  0  0
  1  5  1  0  0  0  0
  1 12  1  0  0  0  0
  4 20  2  0  0  0  0
  5 10  1  0  0  0  0
  5 35  1  0  0  0  0
  6 10  2  0  0  0  0
  6 11  1  0  0  0  0
  7 14  1  0  0  0  0
  7 20  1  0  0  0  0
  7 38  1  0  0  0  0
  8  9  1  0  0  0  0
  8 10  1  0  0  0  0
  8 29  1  0  0  0  0
  8 30  1  0  0  0  0
  9 11  1  0  0  0  0
  9 31  1  0  0  0  0
  9 32  1  0  0  0  0
 11 33  1  0  0  0  0
 11 34  1  0  0  0  0
 12 13  1  0  0  0  0
 12 16  2  0  0  0  0
 13 14  2  0  0  0  0
 13 36  1  0  0  0  0
 14 19  1  0  0  0  0
 15 17  1  0  0  0  0
 15 18  1  0  0  0  0
 15 23  2  0  0  0  0
 16 21  1  0  0  0  0
 16 37  1  0  0  0  0
 17 20  1  0  0  0  0
 17 22  2  0  0  0  0
 18 24  1  0  0  0  0
 18 25  2  0  0  0  0
 19 21  2  0  0  0  0
 19 39  1  0  0  0  0
 21 40  1  0  0  0  0
 22 26  1  0  0  0  0
 22 41  1  0  0  0  0
 23 27  1  0  0  0  0
 23 42  1  0  0  0  0
 24 26  2  0  0  0  0
 24 43  1  0  0  0  0
 25 28  1  0  0  0  0
 25 44  1  0  0  0  0
 26 45  1  0  0  0  0
 27 28  2  0  0  0  0
 27 46  1  0  0  0  0
 28 47  1  0  0  0  0
M  END
> <PUBCHEM_COMPOUND_CID>
17395977

> <PUBCHEM_COMPOUND_CANONICALIZED>
1

> <PUBCHEM_CACTVS_COMPLEXITY>
700

> <PUBCHEM_CACTVS_HBOND_ACCEPTOR>
4

> <PUBCHEM_CACTVS_HBOND_DONOR>
2

> <PUBCHEM_CACTVS_ROTATABLE_BOND>
5

> <PUBCHEM_CACTVS_SUBSKEYS>
AAADceB7MABAAAAAAAAAAAAAAAAAAQAAAAAwYMAAAAAAAADBVAAAHgQQQAAADAjB2AQxwcLAAAKoAidydHDCABElAgAIiBkwZMgIIDLAlZGEIQxglADIyYcYiMCOgAACACAQAAAAAAQAQCAAAAAAAAAAAA==

> <PUBCHEM_IUPAC_OPENEYE_NAME>
N-[3-(3,4-dihydro-2H-pyrrol-5-ylsulfamoyl)phenyl]naphthalene-1-carboxamide

> <PUBCHEM_IUPAC_CAS_NAME>
N-[3-(3,4-dihydro-2H-pyrrol-5-ylsulfamoyl)phenyl]-1-naphthalenecarboxamide

> <PUBCHEM_IUPAC_NAME>
N-[3-(3,4-dihydro-2H-pyrrol-5-ylsulfamoyl)phenyl]naphthalene-1-carboxamide

> <PUBCHEM_IUPAC_SYSTEMATIC_NAME>
N-[3-(3,4-dihydro-2H-pyrrol-5-ylsulfamoyl)phenyl]naphthalene-1-carboxamide

> <PUBCHEM_IUPAC_TRADITIONAL_NAME>
N-[3-(1-pyrrolin-2-ylsulfamoyl)phenyl]-1-naphthamide

> <PUBCHEM_IUPAC_INCHI>
InChI=1S/C21H19N3O3S/c25-21(19-11-3-7-15-6-1-2-10-18(15)19)23-16-8-4-9-17(14-16)28(26,27)24-20-12-5-13-22-20/h1-4,6-11,14H,5,12-13H2,(H,22,24)(H,23,25)

> <PUBCHEM_IUPAC_INCHIKEY>
NUDBYVRQQNFZPY-UHFFFAOYSA-N

> <PUBCHEM_XLOGP3_AA>
2.7

> <PUBCHEM_EXACT_MASS>
393.114712

> <PUBCHEM_MOLECULAR_FORMULA>
C21H19N3O3S

> <PUBCHEM_MOLECULAR_WEIGHT>
393.45886

> <PUBCHEM_OPENEYE_CAN_SMILES>
C1CC(=NC1)NS(=O)(=O)C2=CC=CC(=C2)NC(=O)C3=CC=CC4=CC=CC=C43

> <PUBCHEM_OPENEYE_ISO_SMILES>
C1CC(=NC1)NS(=O)(=O)C2=CC=CC(=C2)NC(=O)C3=CC=CC4=CC=CC=C43

> <PUBCHEM_CACTVS_TPSA>
96

> <PUBCHEM_MONOISOTOPIC_WEIGHT>
393.114712

> <PUBCHEM_TOTAL_CHARGE>
0

> <PUBCHEM_HEAVY_ATOM_COUNT>
28

> <PUBCHEM_ATOM_DEF_STEREO_COUNT>
0

> <PUBCHEM_ATOM_UDEF_STEREO_COUNT>
0

> <PUBCHEM_BOND_DEF_STEREO_COUNT>
0

> <PUBCHEM_BOND_UDEF_STEREO_COUNT>
0

> <PUBCHEM_ISOTOPIC_ATOM_COUNT>
0

> <PUBCHEM_COMPONENT_COUNT>
1

> <PUBCHEM_CACTVS_TAUTO_COUNT>
6

> <PUBCHEM_COORDINATE_TYPE>
1
5
255

> <PUBCHEM_BONDANNOTATIONS>
12  13  8
12  16  8
13  14  8
14  19  8
15  17  8
15  18  8
15  23  8
16  21  8
17  22  8
18  24  8
18  25  8
19  21  8
22  26  8
23  27  8
24  26  8
25  28  8
27  28  8

$$$$

