8379
  -OEChem-06261202472D

 96 96  0     0  0  0  0  0  0999 V2000
   13.2583   -5.2500    0.0000 O   0  0  0  0  0  0  0  0  0  0  0  0
   16.7224   -3.2500    0.0000 O   0  0  0  0  0  0  0  0  0  0  0  0
   14.1244   -3.7500    0.0000 O   0  0  0  0  0  0  0  0  0  0  0  0
   14.9904   -3.2500    0.0000 O   0  0  0  0  0  0  0  0  0  0  0  0
   19.3205    2.2500    0.0000 C   0  0  0  0  0  0  0  0  0  0  0  0
    7.1962   -4.7500    0.0000 C   0  0  0  0  0  0  0  0  0  0  0  0
   19.3205    1.2500    0.0000 C   0  0  0  0  0  0  0  0  0  0  0  0
    8.0622   -5.2500    0.0000 C   0  0  0  0  0  0  0  0  0  0  0  0
   20.1865    2.7500    0.0000 C   0  0  0  0  0  0  0  0  0  0  0  0
    6.3301   -5.2500    0.0000 C   0  0  0  0  0  0  0  0  0  0  0  0
   18.4545    0.7500    0.0000 C   0  0  0  0  0  0  0  0  0  0  0  0
    8.9282   -4.7500    0.0000 C   0  0  0  0  0  0  0  0  0  0  0  0
   20.1865    3.7500    0.0000 C   0  0  0  0  0  0  0  0  0  0  0  0
    5.4641   -4.7500    0.0000 C   0  0  0  0  0  0  0  0  0  0  0  0
   18.4545   -0.2500    0.0000 C   0  0  0  0  0  0  0  0  0  0  0  0
    9.7942   -5.2500    0.0000 C   0  0  0  0  0  0  0  0  0  0  0  0
   21.0526    4.2500    0.0000 C   0  0  0  0  0  0  0  0  0  0  0  0
    4.5981   -5.2500    0.0000 C   0  0  0  0  0  0  0  0  0  0  0  0
   10.6603   -4.7500    0.0000 C   0  0  0  0  0  0  0  0  0  0  0  0
   17.5885   -0.7500    0.0000 C   0  0  0  0  0  0  0  0  0  0  0  0
    3.7320   -4.7500    0.0000 C   0  0  0  0  0  0  0  0  0  0  0  0
   21.0526    5.2500    0.0000 C   0  0  0  0  0  0  0  0  0  0  0  0
   11.5263   -5.2500    0.0000 C   0  0  0  0  0  0  0  0  0  0  0  0
   17.5885   -1.7500    0.0000 C   0  0  0  0  0  0  0  0  0  0  0  0
    2.8660   -5.2500    0.0000 C   0  0  0  0  0  0  0  0  0  0  0  0
   21.9186    5.7500    0.0000 C   0  0  0  0  0  0  0  0  0  0  0  0
   12.3923   -4.7500    0.0000 C   0  0  0  0  0  0  0  0  0  0  0  0
   16.7224   -2.2500    0.0000 C   0  0  0  0  0  0  0  0  0  0  0  0
    2.0000   -4.7500    0.0000 C   0  0  0  0  0  0  0  0  0  0  0  0
   21.9186    6.7500    0.0000 C   0  0  0  0  0  0  0  0  0  0  0  0
   15.8564   -3.7500    0.0000 C   0  0  0  0  0  0  0  0  0  0  0  0
   14.1244   -4.7500    0.0000 C   0  0  0  0  0  0  0  0  0  0  0  0
   15.8564   -4.7500    0.0000 C   0  0  0  0  0  0  0  0  0  0  0  0
   14.9904   -5.2500    0.0000 C   0  0  0  0  0  0  0  0  0  0  0  0
   14.9904   -6.2500    0.0000 C   0  0  0  0  0  0  0  0  0  0  0  0
   16.7224   -5.2500    0.0000 C   0  0  0  0  0  0  0  0  0  0  0  0
   15.8564   -6.7500    0.0000 C   0  0  0  0  0  0  0  0  0  0  0  0
   16.7224   -6.2500    0.0000 C   0  0  0  0  0  0  0  0  0  0  0  0
    7.5947   -4.2750    0.0000 H   0  0  0  0  0  0  0  0  0  0  0  0
    6.7976   -4.2750    0.0000 H   0  0  0  0  0  0  0  0  0  0  0  0
   19.1085    2.8326    0.0000 H   0  0  0  0  0  0  0  0  0  0  0  0
   18.7099    2.1423    0.0000 H   0  0  0  0  0  0  0  0  0  0  0  0
    7.6636   -5.7250    0.0000 H   0  0  0  0  0  0  0  0  0  0  0  0
    8.4607   -5.7250    0.0000 H   0  0  0  0  0  0  0  0  0  0  0  0
   19.5326    0.6674    0.0000 H   0  0  0  0  0  0  0  0  0  0  0  0
   19.9311    1.3577    0.0000 H   0  0  0  0  0  0  0  0  0  0  0  0
    5.9316   -5.7250    0.0000 H   0  0  0  0  0  0  0  0  0  0  0  0
    6.7287   -5.7250    0.0000 H   0  0  0  0  0  0  0  0  0  0  0  0
   20.3986    2.1674    0.0000 H   0  0  0  0  0  0  0  0  0  0  0  0
   20.7971    2.8577    0.0000 H   0  0  0  0  0  0  0  0  0  0  0  0
   18.2424    1.3326    0.0000 H   0  0  0  0  0  0  0  0  0  0  0  0
   17.8439    0.6423    0.0000 H   0  0  0  0  0  0  0  0  0  0  0  0
    9.3267   -4.2750    0.0000 H   0  0  0  0  0  0  0  0  0  0  0  0
    8.5297   -4.2750    0.0000 H   0  0  0  0  0  0  0  0  0  0  0  0
    5.8626   -4.2750    0.0000 H   0  0  0  0  0  0  0  0  0  0  0  0
    5.0656   -4.2750    0.0000 H   0  0  0  0  0  0  0  0  0  0  0  0
   19.9745    4.3326    0.0000 H   0  0  0  0  0  0  0  0  0  0  0  0
   19.5760    3.6423    0.0000 H   0  0  0  0  0  0  0  0  0  0  0  0
    9.3957   -5.7250    0.0000 H   0  0  0  0  0  0  0  0  0  0  0  0
   10.1928   -5.7250    0.0000 H   0  0  0  0  0  0  0  0  0  0  0  0
   18.6665   -0.8326    0.0000 H   0  0  0  0  0  0  0  0  0  0  0  0
   19.0651   -0.1423    0.0000 H   0  0  0  0  0  0  0  0  0  0  0  0
    4.1996   -5.7250    0.0000 H   0  0  0  0  0  0  0  0  0  0  0  0
    4.9966   -5.7250    0.0000 H   0  0  0  0  0  0  0  0  0  0  0  0
   21.2646    3.6674    0.0000 H   0  0  0  0  0  0  0  0  0  0  0  0
   21.6631    4.3577    0.0000 H   0  0  0  0  0  0  0  0  0  0  0  0
   11.0588   -4.2750    0.0000 H   0  0  0  0  0  0  0  0  0  0  0  0
   10.2617   -4.2750    0.0000 H   0  0  0  0  0  0  0  0  0  0  0  0
   17.3764   -0.1674    0.0000 H   0  0  0  0  0  0  0  0  0  0  0  0
   16.9779   -0.8577    0.0000 H   0  0  0  0  0  0  0  0  0  0  0  0
   20.8405    5.8326    0.0000 H   0  0  0  0  0  0  0  0  0  0  0  0
   20.4420    5.1423    0.0000 H   0  0  0  0  0  0  0  0  0  0  0  0
    4.1306   -4.2750    0.0000 H   0  0  0  0  0  0  0  0  0  0  0  0
    3.3335   -4.2750    0.0000 H   0  0  0  0  0  0  0  0  0  0  0  0
   17.8005   -2.3326    0.0000 H   0  0  0  0  0  0  0  0  0  0  0  0
   18.1990   -1.6423    0.0000 H   0  0  0  0  0  0  0  0  0  0  0  0
   11.1278   -5.7250    0.0000 H   0  0  0  0  0  0  0  0  0  0  0  0
   11.9248   -5.7250    0.0000 H   0  0  0  0  0  0  0  0  0  0  0  0
    2.4675   -5.7250    0.0000 H   0  0  0  0  0  0  0  0  0  0  0  0
    3.2646   -5.7250    0.0000 H   0  0  0  0  0  0  0  0  0  0  0  0
   22.1306    5.1674    0.0000 H   0  0  0  0  0  0  0  0  0  0  0  0
   22.5292    5.8577    0.0000 H   0  0  0  0  0  0  0  0  0  0  0  0
   12.7908   -4.2750    0.0000 H   0  0  0  0  0  0  0  0  0  0  0  0
   11.9938   -4.2750    0.0000 H   0  0  0  0  0  0  0  0  0  0  0  0
   16.5104   -1.6674    0.0000 H   0  0  0  0  0  0  0  0  0  0  0  0
   16.1119   -2.3577    0.0000 H   0  0  0  0  0  0  0  0  0  0  0  0
    2.3100   -4.2131    0.0000 H   0  0  0  0  0  0  0  0  0  0  0  0
   22.5386    6.7500    0.0000 H   0  0  0  0  0  0  0  0  0  0  0  0
   21.9186    7.3700    0.0000 H   0  0  0  0  0  0  0  0  0  0  0  0
   21.2986    6.7500    0.0000 H   0  0  0  0  0  0  0  0  0  0  0  0
    1.4631   -4.4400    0.0000 H   0  0  0  0  0  0  0  0  0  0  0  0
    1.6900   -5.2869    0.0000 H   0  0  0  0  0  0  0  0  0  0  0  0
   14.4534   -6.5600    0.0000 H   0  0  0  0  0  0  0  0  0  0  0  0
   17.2594   -4.9400    0.0000 H   0  0  0  0  0  0  0  0  0  0  0  0
   15.8564   -7.3700    0.0000 H   0  0  0  0  0  0  0  0  0  0  0  0
   17.2594   -6.5600    0.0000 H   0  0  0  0  0  0  0  0  0  0  0  0
  1 27  1  0  0  0  0
  1 32  1  0  0  0  0
  2 28  1  0  0  0  0
  2 31  1  0  0  0  0
  3 32  2  0  0  0  0
  4 31  2  0  0  0  0
  5  7  1  0  0  0  0
  5  9  1  0  0  0  0
  5 41  1  0  0  0  0
  5 42  1  0  0  0  0
  6  8  1  0  0  0  0
  6 10  1  0  0  0  0
  6 39  1  0  0  0  0
  6 40  1  0  0  0  0
  7 11  1  0  0  0  0
  7 45  1  0  0  0  0
  7 46  1  0  0  0  0
  8 12  1  0  0  0  0
  8 43  1  0  0  0  0
  8 44  1  0  0  0  0
  9 13  1  0  0  0  0
  9 49  1  0  0  0  0
  9 50  1  0  0  0  0
 10 14  1  0  0  0  0
 10 47  1  0  0  0  0
 10 48  1  0  0  0  0
 11 15  1  0  0  0  0
 11 51  1  0  0  0  0
 11 52  1  0  0  0  0
 12 16  1  0  0  0  0
 12 53  1  0  0  0  0
 12 54  1  0  0  0  0
 13 17  1  0  0  0  0
 13 57  1  0  0  0  0
 13 58  1  0  0  0  0
 14 18  1  0  0  0  0
 14 55  1  0  0  0  0
 14 56  1  0  0  0  0
 15 20  1  0  0  0  0
 15 61  1  0  0  0  0
 15 62  1  0  0  0  0
 16 19  1  0  0  0  0
 16 59  1  0  0  0  0
 16 60  1  0  0  0  0
 17 22  1  0  0  0  0
 17 65  1  0  0  0  0
 17 66  1  0  0  0  0
 18 21  1  0  0  0  0
 18 63  1  0  0  0  0
 18 64  1  0  0  0  0
 19 23  1  0  0  0  0
 19 67  1  0  0  0  0
 19 68  1  0  0  0  0
 20 24  1  0  0  0  0
 20 69  1  0  0  0  0
 20 70  1  0  0  0  0
 21 25  1  0  0  0  0
 21 73  1  0  0  0  0
 21 74  1  0  0  0  0
 22 26  1  0  0  0  0
 22 71  1  0  0  0  0
 22 72  1  0  0  0  0
 23 27  1  0  0  0  0
 23 77  1  0  0  0  0
 23 78  1  0  0  0  0
 24 28  1  0  0  0  0
 24 75  1  0  0  0  0
 24 76  1  0  0  0  0
 25 29  1  0  0  0  0
 25 79  1  0  0  0  0
 25 80  1  0  0  0  0
 26 30  1  0  0  0  0
 26 81  1  0  0  0  0
 26 82  1  0  0  0  0
 27 83  1  0  0  0  0
 27 84  1  0  0  0  0
 28 85  1  0  0  0  0
 28 86  1  0  0  0  0
 29 87  1  0  0  0  0
 29 91  1  0  0  0  0
 29 92  1  0  0  0  0
 30 88  1  0  0  0  0
 30 89  1  0  0  0  0
 30 90  1  0  0  0  0
 31 33  1  0  0  0  0
 32 34  1  0  0  0  0
 33 34  1  0  0  0  0
 33 36  2  0  0  0  0
 34 35  2  0  0  0  0
 35 37  1  0  0  0  0
 35 93  1  0  0  0  0
 36 38  1  0  0  0  0
 36 94  1  0  0  0  0
 37 38  2  0  0  0  0
 37 95  1  0  0  0  0
 38 96  1  0  0  0  0
M  END
> <PUBCHEM_COMPOUND_CID>
8379

> <PUBCHEM_COMPOUND_CANONICALIZED>
1

> <PUBCHEM_CACTVS_COMPLEXITY>
499

> <PUBCHEM_CACTVS_HBOND_ACCEPTOR>
4

> <PUBCHEM_CACTVS_HBOND_DONOR>
0

> <PUBCHEM_CACTVS_ROTATABLE_BOND>
28

> <PUBCHEM_CACTVS_SUBSKEYS>
AAADcfB8OAAAAAAAAAAAAAAAAAAAAAAAAAAwAAAAAAAAAAABAAAAGgAAAAAADACgmAIyCIAABACIAiDSCAACAAAkAAAIiAEACMgIJjKANRiCMQAkwAEIqYfLyKCOgAAAAAAQAAAAAAAAACAAAAAAAAAAAA==

> <PUBCHEM_IUPAC_OPENEYE_NAME>
ditridecyl benzene-1,2-dicarboxylate

> <PUBCHEM_IUPAC_CAS_NAME>
benzene-1,2-dicarboxylic acid ditridecyl ester

> <PUBCHEM_IUPAC_NAME>
ditridecyl benzene-1,2-dicarboxylate

> <PUBCHEM_IUPAC_SYSTEMATIC_NAME>
ditridecyl benzene-1,2-dicarboxylate

> <PUBCHEM_IUPAC_TRADITIONAL_NAME>
benzene-1,2-dicarboxylic acid ditridecyl ester

> <PUBCHEM_IUPAC_INCHI>
InChI=1S/C34H58O4/c1-3-5-7-9-11-13-15-17-19-21-25-29-37-33(35)31-27-23-24-28-32(31)34(36)38-30-26-22-20-18-16-14-12-10-8-6-4-2/h23-24,27-28H,3-22,25-26,29-30H2,1-2H3

> <PUBCHEM_IUPAC_INCHIKEY>
YCZJVRCZIPDYHH-UHFFFAOYSA-N

> <PUBCHEM_XLOGP3>
14.5

> <PUBCHEM_EXACT_MASS>
530.43351

> <PUBCHEM_MOLECULAR_FORMULA>
C34H58O4

> <PUBCHEM_MOLECULAR_WEIGHT>
530.82192

> <PUBCHEM_OPENEYE_CAN_SMILES>
CCCCCCCCCCCCCOC(=O)C1=CC=CC=C1C(=O)OCCCCCCCCCCCCC

> <PUBCHEM_OPENEYE_ISO_SMILES>
CCCCCCCCCCCCCOC(=O)C1=CC=CC=C1C(=O)OCCCCCCCCCCCCC

> <PUBCHEM_CACTVS_TPSA>
52.6

> <PUBCHEM_MONOISOTOPIC_WEIGHT>
530.43351

> <PUBCHEM_TOTAL_CHARGE>
0

> <PUBCHEM_HEAVY_ATOM_COUNT>
38

> <PUBCHEM_ATOM_DEF_STEREO_COUNT>
0

> <PUBCHEM_ATOM_UDEF_STEREO_COUNT>
0

> <PUBCHEM_BOND_DEF_STEREO_COUNT>
0

> <PUBCHEM_BOND_UDEF_STEREO_COUNT>
0

> <PUBCHEM_ISOTOPIC_ATOM_COUNT>
0

> <PUBCHEM_COMPONENT_COUNT>
1

> <PUBCHEM_CACTVS_TAUTO_COUNT>
1

> <PUBCHEM_COORDINATE_TYPE>
1
5
255

> <PUBCHEM_BONDANNOTATIONS>
33  34  8
33  36  8
34  35  8
35  37  8
36  38  8
37  38  8

$$$$

