23662398
  -OEChem-07051213142D

 21 19  0     0  0  0  0  0  0999 V2000
    7.7331    1.1550    0.0000 K   0  3  0  0  0  0  0  0  0  0  0  0
    6.8671    0.6550    0.0000 S   0  5  0  0  0  0  0  0  0  0  0  0
    6.0010    2.1550    0.0000 S   0  0  0  0  0  0  0  0  0  0  0  0
    4.2690   -1.8450    0.0000 O   0  0  0  0  0  0  0  0  0  0  0  0
    2.5369    1.1550    0.0000 O   0  0  0  0  0  0  0  0  0  0  0  0
    5.1350    0.6550    0.0000 N   0  0  0  0  0  0  0  0  0  0  0  0
    4.2690    1.1550    0.0000 C   0  0  0  0  0  0  0  0  0  0  0  0
    5.1350   -0.3450    0.0000 C   0  0  0  0  0  0  0  0  0  0  0  0
    3.4030    0.6550    0.0000 C   0  0  0  0  0  0  0  0  0  0  0  0
    4.2690   -0.8450    0.0000 C   0  0  0  0  0  0  0  0  0  0  0  0
    6.0010    1.1550    0.0000 C   0  0  0  0  0  0  0  0  0  0  0  0
    5.3471   -0.9276    0.0000 H   0  0  0  0  0  0  0  0  0  0  0  0
    5.7456   -0.2373    0.0000 H   0  0  0  0  0  0  0  0  0  0  0  0
    4.6675    1.6300    0.0000 H   0  0  0  0  0  0  0  0  0  0  0  0
    3.8705    1.6300    0.0000 H   0  0  0  0  0  0  0  0  0  0  0  0
    4.0569   -0.2624    0.0000 H   0  0  0  0  0  0  0  0  0  0  0  0
    3.6584   -0.9527    0.0000 H   0  0  0  0  0  0  0  0  0  0  0  0
    3.0044    0.1801    0.0000 H   0  0  0  0  0  0  0  0  0  0  0  0
    3.8015    0.1801    0.0000 H   0  0  0  0  0  0  0  0  0  0  0  0
    3.7320   -2.1550    0.0000 H   0  0  0  0  0  0  0  0  0  0  0  0
    2.0000    0.8450    0.0000 H   0  0  0  0  0  0  0  0  0  0  0  0
  2 11  1  0  0  0  0
  3 11  2  0  0  0  0
  4 10  1  0  0  0  0
  4 20  1  0  0  0  0
  5  9  1  0  0  0  0
  5 21  1  0  0  0  0
  6  7  1  0  0  0  0
  6  8  1  0  0  0  0
  6 11  1  0  0  0  0
  7  9  1  0  0  0  0
  7 14  1  0  0  0  0
  7 15  1  0  0  0  0
  8 10  1  0  0  0  0
  8 12  1  0  0  0  0
  8 13  1  0  0  0  0
  9 18  1  0  0  0  0
  9 19  1  0  0  0  0
 10 16  1  0  0  0  0
 10 17  1  0  0  0  0
M  CHG  2   1   1   2  -1
M  END
> <PUBCHEM_COMPOUND_CID>
23662398

> <PUBCHEM_COMPOUND_CANONICALIZED>
1

> <PUBCHEM_CACTVS_COMPLEXITY>
109

> <PUBCHEM_CACTVS_HBOND_ACCEPTOR>
4

> <PUBCHEM_CACTVS_HBOND_DONOR>
2

> <PUBCHEM_CACTVS_ROTATABLE_BOND>
4

> <PUBCHEM_CACTVS_SUBSKEYS>
AAADccBiMABgQAAAAAAAAAAAAAAAAAAAAAAAAAAAAAAAAAAAAAAAHgQACAAAAADhgAYAAAMAAgAEAAAAAAAAAAAAAAgAAAAIAAACEAAAAAAAAAAAAACQAAAAAAAAAAAAAAAAAAAAAAAAAAAAAAAAAAAAAA==

> <PUBCHEM_IUPAC_OPENEYE_NAME>
potassium N,N-bis(2-hydroxyethyl)carbamodithioate

> <PUBCHEM_IUPAC_CAS_NAME>
potassium N,N-bis(2-hydroxyethyl)carbamodithioate

> <PUBCHEM_IUPAC_NAME>
potassium N,N-bis(2-hydroxyethyl)carbamodithioate

> <PUBCHEM_IUPAC_SYSTEMATIC_NAME>
potassium N,N-bis(2-hydroxyethyl)carbamodithioate

> <PUBCHEM_IUPAC_TRADITIONAL_NAME>
potassium N,N-bis(2-hydroxyethyl)carbamodithioate

> <PUBCHEM_IUPAC_INCHI>
InChI=1S/C5H11NO2S2.K/c7-3-1-6(2-4-8)5(9)10;/h7-8H,1-4H2,(H,9,10);/q;+1/p-1

> <PUBCHEM_IUPAC_INCHIKEY>
JGNZPIJKQREYSO-UHFFFAOYSA-M

> <PUBCHEM_EXACT_MASS>
218.979002

> <PUBCHEM_MOLECULAR_FORMULA>
C5H10KNO2S2

> <PUBCHEM_MOLECULAR_WEIGHT>
219.3667

> <PUBCHEM_OPENEYE_CAN_SMILES>
C(CO)N(CCO)C(=S)[S-].[K+]

> <PUBCHEM_OPENEYE_ISO_SMILES>
C(CO)N(CCO)C(=S)[S-].[K+]

> <PUBCHEM_CACTVS_TPSA>
76.8

> <PUBCHEM_MONOISOTOPIC_WEIGHT>
218.979002

> <PUBCHEM_TOTAL_CHARGE>
0

> <PUBCHEM_HEAVY_ATOM_COUNT>
11

> <PUBCHEM_ATOM_DEF_STEREO_COUNT>
0

> <PUBCHEM_ATOM_UDEF_STEREO_COUNT>
0

> <PUBCHEM_BOND_DEF_STEREO_COUNT>
0

> <PUBCHEM_BOND_UDEF_STEREO_COUNT>
0

> <PUBCHEM_ISOTOPIC_ATOM_COUNT>
0

> <PUBCHEM_COMPONENT_COUNT>
2

> <PUBCHEM_CACTVS_TAUTO_COUNT>
1

> <PUBCHEM_NONSTANDARDBOND>
1  2  7

> <PUBCHEM_COORDINATE_TYPE>
1
5
255

$$$$

