17396213
  -OEChem-06241222552D

 41 43  0     1  0  0  0  0  0999 V2000
    4.5981    3.5223    0.0000 F   0  0  0  0  0  0  0  0  0  0  0  0
    2.8660    4.5223    0.0000 F   0  0  0  0  0  0  0  0  0  0  0  0
    5.4641   -2.9777    0.0000 O   0  0  0  0  0  0  0  0  0  0  0  0
    7.2125   -4.0123    0.0000 O   0  0  0  0  0  0  0  0  0  0  0  0
    2.8660   -1.4777    0.0000 O   0  0  0  0  0  0  0  0  0  0  0  0
    3.7320   -2.9777    0.0000 O   0  0  0  0  0  0  0  0  0  0  0  0
    3.7320    0.0223    0.0000 N   0  0  0  0  0  0  0  0  0  0  0  0
    2.8660    0.5223    0.0000 C   0  0  3  0  0  0  0  0  0  0  0  0
    2.8660    1.5223    0.0000 C   0  0  0  0  0  0  0  0  0  0  0  0
    2.0000    0.0223    0.0000 C   0  0  0  0  0  0  0  0  0  0  0  0
    4.5981   -1.4777    0.0000 C   0  0  0  0  0  0  0  0  0  0  0  0
    3.7320   -0.9777    0.0000 C   0  0  0  0  0  0  0  0  0  0  0  0
    6.3301   -1.4777    0.0000 C   0  0  0  0  0  0  0  0  0  0  0  0
    6.3301   -2.4777    0.0000 C   0  0  0  0  0  0  0  0  0  0  0  0
    5.4641   -0.9777    0.0000 C   0  0  0  0  0  0  0  0  0  0  0  0
    3.7320    2.0223    0.0000 C   0  0  0  0  0  0  0  0  0  0  0  0
    2.0000    2.0223    0.0000 C   0  0  0  0  0  0  0  0  0  0  0  0
    4.5981   -2.4777    0.0000 C   0  0  0  0  0  0  0  0  0  0  0  0
    7.2241   -3.0124    0.0000 C   0  0  0  0  0  0  0  0  0  0  0  0
    7.2241   -0.9431    0.0000 C   0  0  0  0  0  0  0  0  0  0  0  0
    3.7320    3.0223    0.0000 C   0  0  0  0  0  0  0  0  0  0  0  0
    2.0000    3.0223    0.0000 C   0  0  0  0  0  0  0  0  0  0  0  0
    8.1301   -2.4985    0.0000 C   0  0  0  0  0  0  0  0  0  0  0  0
    2.8660    3.5223    0.0000 C   0  0  0  0  0  0  0  0  0  0  0  0
    8.1301   -1.4569    0.0000 C   0  0  0  0  0  0  0  0  0  0  0  0
    8.0727   -4.5223    0.0000 C   0  0  0  0  0  0  0  0  0  0  0  0
    2.8660   -0.0977    0.0000 H   0  0  0  0  0  0  0  0  0  0  0  0
    4.2690    0.3323    0.0000 H   0  0  0  0  0  0  0  0  0  0  0  0
    1.6900    0.5592    0.0000 H   0  0  0  0  0  0  0  0  0  0  0  0
    1.4631   -0.2877    0.0000 H   0  0  0  0  0  0  0  0  0  0  0  0
    2.3100   -0.5146    0.0000 H   0  0  0  0  0  0  0  0  0  0  0  0
    5.4641   -0.3577    0.0000 H   0  0  0  0  0  0  0  0  0  0  0  0
    4.2690    1.7123    0.0000 H   0  0  0  0  0  0  0  0  0  0  0  0
    1.4631    1.7123    0.0000 H   0  0  0  0  0  0  0  0  0  0  0  0
    7.2169   -0.3231    0.0000 H   0  0  0  0  0  0  0  0  0  0  0  0
    1.4631    3.3323    0.0000 H   0  0  0  0  0  0  0  0  0  0  0  0
    8.6659   -2.8106    0.0000 H   0  0  0  0  0  0  0  0  0  0  0  0
    8.6659   -1.1448    0.0000 H   0  0  0  0  0  0  0  0  0  0  0  0
    7.7565   -5.0556    0.0000 H   0  0  0  0  0  0  0  0  0  0  0  0
    8.6060   -4.8385    0.0000 H   0  0  0  0  0  0  0  0  0  0  0  0
    8.3889   -3.9890    0.0000 H   0  0  0  0  0  0  0  0  0  0  0  0
  1 21  1  0  0  0  0
  2 24  1  0  0  0  0
  3 14  1  0  0  0  0
  3 18  1  0  0  0  0
  4 19  1  0  0  0  0
  4 26  1  0  0  0  0
  5 12  2  0  0  0  0
  6 18  2  0  0  0  0
  7  8  1  0  0  0  0
  7 12  1  0  0  0  0
  7 28  1  0  0  0  0
  8  9  1  0  0  0  0
  8 10  1  0  0  0  0
  8 27  1  0  0  0  0
  9 16  2  0  0  0  0
  9 17  1  0  0  0  0
 10 29  1  0  0  0  0
 10 30  1  0  0  0  0
 10 31  1  0  0  0  0
 11 12  1  0  0  0  0
 11 15  2  0  0  0  0
 11 18  1  0  0  0  0
 13 14  2  0  0  0  0
 13 15  1  0  0  0  0
 13 20  1  0  0  0  0
 14 19  1  0  0  0  0
 15 32  1  0  0  0  0
 16 21  1  0  0  0  0
 16 33  1  0  0  0  0
 17 22  2  0  0  0  0
 17 34  1  0  0  0  0
 19 23  2  0  0  0  0
 20 25  2  0  0  0  0
 20 35  1  0  0  0  0
 21 24  2  0  0  0  0
 22 24  1  0  0  0  0
 22 36  1  0  0  0  0
 23 25  1  0  0  0  0
 23 37  1  0  0  0  0
 25 38  1  0  0  0  0
 26 39  1  0  0  0  0
 26 40  1  0  0  0  0
 26 41  1  0  0  0  0
M  END
> <PUBCHEM_COMPOUND_CID>
17396213

> <PUBCHEM_COMPOUND_CANONICALIZED>
1

> <PUBCHEM_CACTVS_COMPLEXITY>
582

> <PUBCHEM_CACTVS_HBOND_ACCEPTOR>
6

> <PUBCHEM_CACTVS_HBOND_DONOR>
1

> <PUBCHEM_CACTVS_ROTATABLE_BOND>
4

> <PUBCHEM_CACTVS_SUBSKEYS>
AAADccB6OYAAAAAAAAAAAAAAAAAAAAAAAAAwYIAAAAAAAACBQAAAHwAQAAAADCzBmA4yDoLABACIAiHSGACCCAAgIAAIiIEOjMgNJi6MsRuGOirm9hGKqYeQwLAOAAABAAAIQAAAAAIAABCAAAAAAAAAAA==

> <PUBCHEM_IUPAC_OPENEYE_NAME>
N-[1-(3,4-difluorophenyl)ethyl]-8-methoxy-2-oxo-chromene-3-carboxamide

> <PUBCHEM_IUPAC_CAS_NAME>
N-[1-(3,4-difluorophenyl)ethyl]-8-methoxy-2-oxo-1-benzopyran-3-carboxamide

> <PUBCHEM_IUPAC_NAME>
N-[1-(3,4-difluorophenyl)ethyl]-8-methoxy-2-oxochromene-3-carboxamide

> <PUBCHEM_IUPAC_SYSTEMATIC_NAME>
N-[1-[3,4-bis(fluoranyl)phenyl]ethyl]-8-methoxy-2-oxidanylidene-chromene-3-carboxamide

> <PUBCHEM_IUPAC_TRADITIONAL_NAME>
N-[1-(3,4-difluorophenyl)ethyl]-2-keto-8-methoxy-chromene-3-carboxamide

> <PUBCHEM_IUPAC_INCHI>
InChI=1S/C19H15F2NO4/c1-10(11-6-7-14(20)15(21)9-11)22-18(23)13-8-12-4-3-5-16(25-2)17(12)26-19(13)24/h3-10H,1-2H3,(H,22,23)

> <PUBCHEM_IUPAC_INCHIKEY>
HHENABFGUMWHNJ-UHFFFAOYSA-N

> <PUBCHEM_XLOGP3_AA>
4

> <PUBCHEM_EXACT_MASS>
359.096914

> <PUBCHEM_MOLECULAR_FORMULA>
C19H15F2NO4

> <PUBCHEM_MOLECULAR_WEIGHT>
359.323506

> <PUBCHEM_OPENEYE_CAN_SMILES>
CC(C1=CC(=C(C=C1)F)F)NC(=O)C2=CC3=C(C(=CC=C3)OC)OC2=O

> <PUBCHEM_OPENEYE_ISO_SMILES>
CC(C1=CC(=C(C=C1)F)F)NC(=O)C2=CC3=C(C(=CC=C3)OC)OC2=O

> <PUBCHEM_CACTVS_TPSA>
64.6

> <PUBCHEM_MONOISOTOPIC_WEIGHT>
359.096914

> <PUBCHEM_TOTAL_CHARGE>
0

> <PUBCHEM_HEAVY_ATOM_COUNT>
26

> <PUBCHEM_ATOM_DEF_STEREO_COUNT>
0

> <PUBCHEM_ATOM_UDEF_STEREO_COUNT>
1

> <PUBCHEM_BOND_DEF_STEREO_COUNT>
0

> <PUBCHEM_BOND_UDEF_STEREO_COUNT>
0

> <PUBCHEM_ISOTOPIC_ATOM_COUNT>
0

> <PUBCHEM_COMPONENT_COUNT>
1

> <PUBCHEM_CACTVS_TAUTO_COUNT>
2

> <PUBCHEM_COORDINATE_TYPE>
1
5
255

> <PUBCHEM_BONDANNOTATIONS>
11  15  8
11  18  8
13  14  8
13  15  8
13  20  8
14  19  8
16  21  8
17  22  8
19  23  8
20  25  8
21  24  8
22  24  8
23  25  8
3  14  8
3  18  8
8  10  3
9  16  8
9  17  8

$$$$

