   Color/Form

     * Yellowish, viscous liquid
     * White crystalline powder
     * Colorless solid

   from [1]HSDB

   Odor
        Practically odorless
   from [2]HSDB

   Boiling Point
        180 deg C at 0.1 mm Hg
   from [3]HSDB

   Corrosivity
        Noncorrosive to metals.
   from [4]HSDB

   Dissociation Constants
        The pKa of the conjugate acid of propiconazole is 1.09.
   from [5]HSDB

   Octanol/Water Partition Coefficient
        log Kow = 3.72
   from [6]HSDB

   Solubilities

     * 47 g/L in n-hexane; completely miscible with ethanol, acetone,
       toluene, and octanol.
     * Soluble in most organic solvents
     * In water, 100 mg/L at 25 deg C

   from [7]HSDB

   Vapor Pressure
        1X10-6 mm Hg at 25 deg C
   from [8]HSDB

   Other Chemical/Physical Properties

     * Henry's Law constant = 4.1X10-9 atm-cu m/mol at 25 deg C (est)
     * Hydroxyl radical reaction rate constant = 2.3X10-11 cu cm/molec-sec
       at 25 deg C (est)

   from [9]HSDB

   Computed Properties
   Molecular Weight                  342.22038 [g/mol]
   Molecular Formula                 C[15]H[17]Cl[2]N[3]O[2]
   XLogP3                            3.5
   H-Bond Donor                      0
   H-Bond Acceptor                   4
   Rotatable Bond Count              5
   Exact Mass                        341.069782
   MonoIsotopic Mass                 341.069782
   Topological Polar Surface Area    49.2
   Heavy Atom Count                  22
   Formal Charge                     0
   Complexity                        377
   Isotope Atom Count                0
   Defined Atom Stereocenter Count   0
   Undefined Atom Stereocenter Count 2
   Defined Bond Stereocenter Count   0
   Undefined Bond Stereocenter Count 0
   Covalently-Bonded Unit Count      1
   Feature 3D Acceptor Count         2
   Feature 3D Cation Count           2
   Feature 3D Hydrophobe Count       1
   Feature 3D Ring Count             3
   Effective Rotor Count             6
   Conformer Sampling RMSD           0.8
   CID Conformer Count               [10]111

References

   1. http://toxnet.nlm.nih.gov/cgi-bin/sis/search/r?dbs+hsdb:@term+@rn+@rel+60207-90-1
   2. http://toxnet.nlm.nih.gov/cgi-bin/sis/search/r?dbs+hsdb:@term+@rn+@rel+60207-90-1
   3. http://toxnet.nlm.nih.gov/cgi-bin/sis/search/r?dbs+hsdb:@term+@rn+@rel+60207-90-1
   4. http://toxnet.nlm.nih.gov/cgi-bin/sis/search/r?dbs+hsdb:@term+@rn+@rel+60207-90-1
   5. http://toxnet.nlm.nih.gov/cgi-bin/sis/search/r?dbs+hsdb:@term+@rn+@rel+60207-90-1
   6. http://toxnet.nlm.nih.gov/cgi-bin/sis/search/r?dbs+hsdb:@term+@rn+@rel+60207-90-1
   7. http://toxnet.nlm.nih.gov/cgi-bin/sis/search/r?dbs+hsdb:@term+@rn+@rel+60207-90-1
   8. http://toxnet.nlm.nih.gov/cgi-bin/sis/search/r?dbs+hsdb:@term+@rn+@rel+60207-90-1
   9. http://toxnet.nlm.nih.gov/cgi-bin/sis/search/r?dbs+hsdb:@term+@rn+@rel+60207-90-1
  10. http://pubchem.ncbi.nlm.nih.gov/vw3d/vw3d.cgi?cid=43234
