   Color/Form
        MONOCLINIC PRISMS FROM WATER
   from [1]HSDB

   Melting Point
        142 DEG C
   from [2]HSDB

   Density/Specific Gravity
        1.544 AT 20 DEG C/4 DEG C
   from [3]HSDB

   Dissociation Constants
        PKA 2.89
   from [4]HSDB

   Octanol/Water Partition Coefficient
        log Kow= 2.05
   from [5]HSDB

   Solubilities

     * SOL IN 900 PARTS COLD WATER; MORE SOL IN HOT WATER; FREELY SOL IN
       ALCOHOL, ETHER.
     * SOL IN ACETONE, BENZENE
     * SOLUBLE IN METHANOL
     * 2087 mg/l at 25 deg C in water

   from [6]HSDB

   Spectral Properties

     * MAX ABSORPTION (ALCOHOL): 229 NM (LOG E= 3.71), SHOULDER; 278 NM
       (LOG E= 2.88); SADTLER REF NUMBER: 251 (IR, PRISM); 85 (IR,
       GRATING)
     * IR: 3157 (Coblentz Society Spectral Collection)
     * UV: 101 (Sadtler Research Laboratories Spectral Collection)
     * NMR: 10212 (Sadtler Research Laboratories Spectral Collection)
     * MASS: 952 (Atlas of Mass Spectral Data, John Wiley & Sons, New
       York)

   from [7]HSDB

   Vapor Pressure
        6.6X10-4 mm Hg at 25 deg C (extrapolated)
   from [8]HSDB

   Computed Properties
   Molecular Weight                  156.5664 [g/mol]
   Molecular Formula                 C[7]H[5]ClO[2]
   XLogP3                            2.1
   H-Bond Donor                      1
   H-Bond Acceptor                   2
   Rotatable Bond Count              1
   Exact Mass                        155.997807
   MonoIsotopic Mass                 155.997807
   Topological Polar Surface Area    37.3
   Heavy Atom Count                  10
   Formal Charge                     0
   Complexity                        136
   Isotope Atom Count                0
   Defined Atom Stereocenter Count   0
   Undefined Atom Stereocenter Count 0
   Defined Bond Stereocenter Count   0
   Undefined Bond Stereocenter Count 0
   Covalently-Bonded Unit Count      1
   Feature 3D Acceptor Count         2
   Feature 3D Anion Count            1
   Feature 3D Ring Count             1
   Effective Rotor Count             1
   Conformer Sampling RMSD           0.4
   CID Conformer Count               [9]2

References

   1. http://toxnet.nlm.nih.gov/cgi-bin/sis/search/r?dbs+hsdb:@term+@rn+@rel+118-91-2
   2. http://toxnet.nlm.nih.gov/cgi-bin/sis/search/r?dbs+hsdb:@term+@rn+@rel+118-91-2
   3. http://toxnet.nlm.nih.gov/cgi-bin/sis/search/r?dbs+hsdb:@term+@rn+@rel+118-91-2
   4. http://toxnet.nlm.nih.gov/cgi-bin/sis/search/r?dbs+hsdb:@term+@rn+@rel+118-91-2
   5. http://toxnet.nlm.nih.gov/cgi-bin/sis/search/r?dbs+hsdb:@term+@rn+@rel+118-91-2
   6. http://toxnet.nlm.nih.gov/cgi-bin/sis/search/r?dbs+hsdb:@term+@rn+@rel+118-91-2
   7. http://toxnet.nlm.nih.gov/cgi-bin/sis/search/r?dbs+hsdb:@term+@rn+@rel+118-91-2
   8. http://toxnet.nlm.nih.gov/cgi-bin/sis/search/r?dbs+hsdb:@term+@rn+@rel+118-91-2
   9. http://pubchem.ncbi.nlm.nih.gov/vw3d/vw3d.cgi?cid=8374
