   Color/Form

     * White crystals
     * Colorless crystals

   from [1]HSDB

   Odor
        Odorless
   from [2]HSDB

   Boiling Point
        approx. 280 deg C @ 760 mm Hg
   from [3]HSDB

   Melting Point
        163-164.5 deg C
   from [4]HSDB

   Density/Specific Gravity
        1.39 g/cu cm (20 deg C)
   from [5]HSDB

   Octanol/Water Partition Coefficient
        log Kow= 2.42
   from [6]HSDB

   Solubilities

     * Sol in N,N-dimethylformamide, acetone, ethanol, isopropanol, and
       other org solvents
     * Sol (20 deg C): 23 g/l dichloromethane; 170 mg/l hexane; 110 g/l
       methanol; 22 g/l octan-1-ol.
     * Solubility in acetone: 3 ppm
     * 110 mg/l @ 22 deg C

   from [7]HSDB

   Spectral Properties
        Intense mass spectral peaks: 72 m/z (100%), 232 m/z (25%), 44 m/z
   (22%), 42 m/z (11%)
   from [8]HSDB

   Vapor Pressure
        9.38X10-7 mm Hg @ 25 deg C
   from [9]HSDB

   Other Chemical/Physical Properties

     * MP: ABOUT 155 DEG C; NONCORROSIVE /TECHNICAL PRODUCT/
     * On hydrolysis at 20 deg C, 50% loss (calc) occurs in 1.6 yr at pH
       1, 2.4 yr at pH 5, 2.8 yr at pH 9.
     * Henry's Law constant= 2.60X10-9 atm-cu m/mole @ 25 deg C

   from [10]HSDB

   Computed Properties
   Molecular Weight                  232.20235 [g/mol]
   Molecular Formula                 C[10]H[11]F[3]N[2]O
   XLogP3                            2.4
   H-Bond Donor                      1
   H-Bond Acceptor                   4
   Rotatable Bond Count              1
   Tautomer Count                    2
   Exact Mass                        232.082348
   MonoIsotopic Mass                 232.082348
   Topological Polar Surface Area    32.3
   Heavy Atom Count                  16
   Formal Charge                     0
   Complexity                        253
   Isotope Atom Count                0
   Defined Atom Stereocenter Count   0
   Undefined Atom Stereocenter Count 0
   Defined Bond Stereocenter Count   0
   Undefined Bond Stereocenter Count 0
   Covalently-Bonded Unit Count      1
   Feature 3D Acceptor Count         1
   Feature 3D Donor Count            1
   Feature 3D Ring Count             1
   Effective Rotor Count             4
   Conformer Sampling RMSD           0.6
   CID Conformer Count               [11]10

References

   1. http://toxnet.nlm.nih.gov/cgi-bin/sis/search/r?dbs+hsdb:@term+@rn+@rel+2164-17-2
   2. http://toxnet.nlm.nih.gov/cgi-bin/sis/search/r?dbs+hsdb:@term+@rn+@rel+2164-17-2
   3. http://toxnet.nlm.nih.gov/cgi-bin/sis/search/r?dbs+hsdb:@term+@rn+@rel+2164-17-2
   4. http://toxnet.nlm.nih.gov/cgi-bin/sis/search/r?dbs+hsdb:@term+@rn+@rel+2164-17-2
   5. http://toxnet.nlm.nih.gov/cgi-bin/sis/search/r?dbs+hsdb:@term+@rn+@rel+2164-17-2
   6. http://toxnet.nlm.nih.gov/cgi-bin/sis/search/r?dbs+hsdb:@term+@rn+@rel+2164-17-2
   7. http://toxnet.nlm.nih.gov/cgi-bin/sis/search/r?dbs+hsdb:@term+@rn+@rel+2164-17-2
   8. http://toxnet.nlm.nih.gov/cgi-bin/sis/search/r?dbs+hsdb:@term+@rn+@rel+2164-17-2
   9. http://toxnet.nlm.nih.gov/cgi-bin/sis/search/r?dbs+hsdb:@term+@rn+@rel+2164-17-2
  10. http://toxnet.nlm.nih.gov/cgi-bin/sis/search/r?dbs+hsdb:@term+@rn+@rel+2164-17-2
  11. http://pubchem.ncbi.nlm.nih.gov/vw3d/vw3d.cgi?cid=16562
