   Color/Form
        White powder
   from [1]HSDB

   Odor
        Odorless
   from [2]HSDB

   Taste
        Bitter
   from [3]HSDB

   Boiling Point
        122-124 deg C at 8 mm Hg; 134-135 deg C at 12 mm Hg
   from [4]HSDB

   Dissociation Constants
        pKa = 7.3 at 25 deg C (est)
   from [5]HSDB

   Octanol/Water Partition Coefficient
        log Kow = 1.70 (est)
   from [6]HSDB

   Solubilities

     * Free sol in water; very slightly sol in alcohol; practically insol
       in chloroform and ether.
     * In water, 1.7X10+4 mg/L at 25 deg C (est)

   from [7]HSDB

   Spectral Properties

     * UV: 1297 (Absorption Spectra in the UV and visible Regions,
       Academic Press, New York)
     * Intense mass spectral peaks: 57 m/z, 85 m/z, 191 m/z

   from [8]HSDB

   Vapor Pressure
        3.2X10-3 mm Hg at 25 deg C (est)
   from [9]HSDB

   Other Chemical/Physical Properties

     * Odorless, having bitter taste; decomposes at 186 deg C; pKa 7.2;
       soluble in water, methanol, alcohol; white crystalline powder
       /Phendimetrazine tartrate/
     * Bitter, white, odorless, crystalline powder ... freely soluble in
       water and sparingly soluble in warm alcohol. /Phendimetrazine
       tartrate/
     * MP: 208 deg C; specific optical rotation: +35.7 deg at 20 deg C/D
       /Phendimetrazine hydrochloride/
     * MW: 770.91 /Pamoate/
     * MW: 341.36. /Phendimetrazine tartrate/
     * MW 411.49; MP 165-167 deg C /phendimetrazine tartrate/
     * Henry's Law constant = 2.7X10-8 atm-cu m/mole at 25 deg C (est)
     * Hydroxyl radical reaction rate constant = 1.5X10-10 cu
       cm/molecule-sec at 25 deg C (est)

   from [10]HSDB

   Computed Properties
   Molecular Weight                  191.26948 [g/mol]
   Molecular Formula                 C[12]H[17]NO
   XLogP3-AA                         1.9
   H-Bond Donor                      0
   H-Bond Acceptor                   2
   Rotatable Bond Count              1
   Exact Mass                        191.131014
   MonoIsotopic Mass                 191.131014
   Topological Polar Surface Area    12.5
   Heavy Atom Count                  14
   Formal Charge                     0
   Complexity                        177
   Isotope Atom Count                0
   Defined Atom Stereocenter Count   2
   Undefined Atom Stereocenter Count 0
   Defined Bond Stereocenter Count   0
   Undefined Bond Stereocenter Count 0
   Covalently-Bonded Unit Count      1
   Feature 3D Acceptor Count         1
   Feature 3D Cation Count           1
   Feature 3D Ring Count             2
   Effective Rotor Count             2.2
   Conformer Sampling RMSD           0.6
   CID Conformer Count               [11]4

References

   1. http://toxnet.nlm.nih.gov/cgi-bin/sis/search/r?dbs+hsdb:@term+@rn+@rel+634-03-7
   2. http://toxnet.nlm.nih.gov/cgi-bin/sis/search/r?dbs+hsdb:@term+@rn+@rel+634-03-7
   3. http://toxnet.nlm.nih.gov/cgi-bin/sis/search/r?dbs+hsdb:@term+@rn+@rel+634-03-7
   4. http://toxnet.nlm.nih.gov/cgi-bin/sis/search/r?dbs+hsdb:@term+@rn+@rel+634-03-7
   5. http://toxnet.nlm.nih.gov/cgi-bin/sis/search/r?dbs+hsdb:@term+@rn+@rel+634-03-7
   6. http://toxnet.nlm.nih.gov/cgi-bin/sis/search/r?dbs+hsdb:@term+@rn+@rel+634-03-7
   7. http://toxnet.nlm.nih.gov/cgi-bin/sis/search/r?dbs+hsdb:@term+@rn+@rel+634-03-7
   8. http://toxnet.nlm.nih.gov/cgi-bin/sis/search/r?dbs+hsdb:@term+@rn+@rel+634-03-7
   9. http://toxnet.nlm.nih.gov/cgi-bin/sis/search/r?dbs+hsdb:@term+@rn+@rel+634-03-7
  10. http://toxnet.nlm.nih.gov/cgi-bin/sis/search/r?dbs+hsdb:@term+@rn+@rel+634-03-7
  11. http://pubchem.ncbi.nlm.nih.gov/vw3d/vw3d.cgi?cid=30487
