   Color/Form
        Pale yellow crystals.
   from [1]HSDB

   Odor
        SLIGHT AMINE-LIKE ODOR
   from [2]HSDB

   Melting Point
        97-98 DEG C
   from [3]HSDB

   Octanol/Water Partition Coefficient
        Log Kow = 5.18
   from [4]HSDB

   Solubilities

     * PRACTICALLY INSOL IN WATER; 1 G SOL IN 25 ML ALCOHOL, 10 ML ETHER,
       2 ML CHLOROFORM
     * SOL IN PETROLEUM ETHER

   from [5]HSDB

   Spectral Properties
        Intense mass spectral peaks: 58 m/z, 221 m/z, 255 m/z, 315 m/z
   from [6]HSDB

   Other Chemical/Physical Properties

     * CRYSTALS; MP: 221 DEG C /CHLORPROTHIXENE HYDROCHLORIDE/
     * FREELY SOL IN WATER @ PH 6-6.5 /HYDROCHLORIDE/
     * Incompatible with acids, alkalies, phenobarbital, thiopental
       sodium, mepazine.

   from [7]HSDB

   Computed Properties
   Molecular Weight                  315.86022 [g/mol]
   Molecular Formula                 C[18]H[18]ClNS
   XLogP3                            5.2
   H-Bond Donor                      0
   H-Bond Acceptor                   2
   Rotatable Bond Count              3
   Exact Mass                        315.084848
   MonoIsotopic Mass                 315.084848
   Topological Polar Surface Area    28.5
   Heavy Atom Count                  21
   Formal Charge                     0
   Complexity                        381
   Isotope Atom Count                0
   Defined Atom Stereocenter Count   0
   Undefined Atom Stereocenter Count 0
   Defined Bond Stereocenter Count   1
   Undefined Bond Stereocenter Count 0
   Covalently-Bonded Unit Count      1
   Feature 3D Cation Count           1
   Feature 3D Ring Count             3
   Effective Rotor Count             3.2
   Conformer Sampling RMSD           0.6
   CID Conformer Count               [8]10

References

   1. http://toxnet.nlm.nih.gov/cgi-bin/sis/search/r?dbs+hsdb:@term+@rn+@rel+113-59-7
   2. http://toxnet.nlm.nih.gov/cgi-bin/sis/search/r?dbs+hsdb:@term+@rn+@rel+113-59-7
   3. http://toxnet.nlm.nih.gov/cgi-bin/sis/search/r?dbs+hsdb:@term+@rn+@rel+113-59-7
   4. http://toxnet.nlm.nih.gov/cgi-bin/sis/search/r?dbs+hsdb:@term+@rn+@rel+113-59-7
   5. http://toxnet.nlm.nih.gov/cgi-bin/sis/search/r?dbs+hsdb:@term+@rn+@rel+113-59-7
   6. http://toxnet.nlm.nih.gov/cgi-bin/sis/search/r?dbs+hsdb:@term+@rn+@rel+113-59-7
   7. http://toxnet.nlm.nih.gov/cgi-bin/sis/search/r?dbs+hsdb:@term+@rn+@rel+113-59-7
   8. http://pubchem.ncbi.nlm.nih.gov/vw3d/vw3d.cgi?cid=667467
