   Chemical and Physical Properties References

   [1]USDA ARS - USDA chemical properties
   from [2]ChemIDplus

   Color/Form

     * WHITE SOLID
     * LIGHT TAN SOLID
     * Colorless to tan crystalline solid.

   from [3]HSDB

   Odor

     * Odorless
     * Odorless.

   from [4]HSDB

   Boiling Point
        Decomposes
   from [5]HSDB

   Melting Point
        153 DEG C
   from [6]HSDB

   Corrosivity
        Non-corrosive, but some oil based formulations may be deleterious
   to painted surfaces.
   from [7]HSDB

   Density/Specific Gravity
        SP GR: 1.80 AT 20 deg C/20 deg C
   from [8]HSDB

   Dissociation Constants
        pKa is 2.88 at 25 deg C
   from [9]HSDB

   Heat of Combustion
        -6,500 BTU/lb
   from [10]HSDB

   Octanol/Water Partition Coefficient
        log Kow= 4
   from [11]HSDB

   Solubilities

     * 0.028% AT 25 DEG C
     * VERY SLIGHTLY SOL IN PETROLEUM ETHER
     * 590 MG/KG IN ETHANOL OR ISOPROPYL ALC
     * 1.05 x 10(-3) M at 25 deg C
     * Solubilities (in %) at 25 deg C: in 95% ethanol: (54.8), ethyl
       ether: (23.4), n-heptane: (0.039), methanol: (49.60), toluene:
       (0.73), and xylene: (0.61).
     * Water solubility of 268 mg/l (at 25 deg C).

   from [12]HSDB

   Spectral Properties

     * MAX ABSORPTION (0.1 N HYDROCHLORIC ACID): 287.5 NM (LOG E= 3.35),
       295 NM (LOG E= 3.32)
     * MAX ABSORPTION: 206, 289, 297 NM (E= 1872, 99, 91; 1 SOLN %, 1 CM
       CELL PATH)
     * IR diagnostic wavelengths, 13.05 and 14.70 nm
     * Proton NMR resonances (... from tetramethyl silane): 7.92 (H3);
       7.66 (H6); 5.15 (CH2) in DMSO-d.
     * (13)C-NMR resonances (... from tetramethyl silane): 169.8 (COO),
       153.6 (C1), 122.3 (C2), 131.4 (C3), 124.1 (C4), 131.4 (C5), 116.7
       (C6), 67.0 (CH2).
     * Mass Spectra 254(n); M-35; M-CH2COOH; M-CH2COO (with H transfer);
       M-COOH
     * Intense mass spectral peaks: 196 m/z (100%), 198 m/z (97%), 254 m/z
       (50%), 256 m/z (49%)
     * IR: 8175 (Sadtler Research Laboratories IR Grating Collection)
     * UV: 3432 (Sadtler Research Laboratories Spectral Collection)
     * NMR: 18671 (Sadtler Research Laboratories Spectral Collection)

   from [13]HSDB

   Vapor Pressure
        Less than 0.01 mPa @ 20 deg C
   from [14]HSDB

   Other Chemical/Physical Properties

     * FORMS WATER-SOLUBLE SODIUM & ALKANOLAMINE SALTS.
     * Phase transition at 60 deg C
     * Colorless crystals (technical grade 94% pure)
     * Crystals from benzene

   from [15]HSDB

   Computed Properties
   Molecular Weight                  255.4825 [g/mol]
   Molecular Formula                 C[8]H[5]Cl[3]O[3]
   XLogP3                            3.3
   H-Bond Donor                      1
   H-Bond Acceptor                   3
   Rotatable Bond Count              3
   Exact Mass                        253.930427
   MonoIsotopic Mass                 253.930427
   Topological Polar Surface Area    46.5
   Heavy Atom Count                  14
   Formal Charge                     0
   Complexity                        212
   Isotope Atom Count                0
   Defined Atom Stereocenter Count   0
   Undefined Atom Stereocenter Count 0
   Defined Bond Stereocenter Count   0
   Undefined Bond Stereocenter Count 0
   Covalently-Bonded Unit Count      1
   Feature 3D Acceptor Count         3
   Feature 3D Anion Count            1
   Feature 3D Ring Count             1
   Effective Rotor Count             3
   Conformer Sampling RMSD           0.6
   CID Conformer Count               [16]24

References

   1. http://www.ars.usda.gov/SP2UserFiles/ad_hoc/12755100DatabaseFiles/PesticidePropertiesDatabase/IndividualPesticideFiles/2,4,5-T_AMINE_SALTS.TXT
   2. http://chem.sis.nlm.nih.gov/chemidplus/
   3. http://toxnet.nlm.nih.gov/cgi-bin/sis/search/r?dbs+hsdb:@term+@rn+@rel+93-76-5
   4. http://toxnet.nlm.nih.gov/cgi-bin/sis/search/r?dbs+hsdb:@term+@rn+@rel+93-76-5
   5. http://toxnet.nlm.nih.gov/cgi-bin/sis/search/r?dbs+hsdb:@term+@rn+@rel+93-76-5
   6. http://toxnet.nlm.nih.gov/cgi-bin/sis/search/r?dbs+hsdb:@term+@rn+@rel+93-76-5
   7. http://toxnet.nlm.nih.gov/cgi-bin/sis/search/r?dbs+hsdb:@term+@rn+@rel+93-76-5
   8. http://toxnet.nlm.nih.gov/cgi-bin/sis/search/r?dbs+hsdb:@term+@rn+@rel+93-76-5
   9. http://toxnet.nlm.nih.gov/cgi-bin/sis/search/r?dbs+hsdb:@term+@rn+@rel+93-76-5
  10. http://toxnet.nlm.nih.gov/cgi-bin/sis/search/r?dbs+hsdb:@term+@rn+@rel+93-76-5
  11. http://toxnet.nlm.nih.gov/cgi-bin/sis/search/r?dbs+hsdb:@term+@rn+@rel+93-76-5
  12. http://toxnet.nlm.nih.gov/cgi-bin/sis/search/r?dbs+hsdb:@term+@rn+@rel+93-76-5
  13. http://toxnet.nlm.nih.gov/cgi-bin/sis/search/r?dbs+hsdb:@term+@rn+@rel+93-76-5
  14. http://toxnet.nlm.nih.gov/cgi-bin/sis/search/r?dbs+hsdb:@term+@rn+@rel+93-76-5
  15. http://toxnet.nlm.nih.gov/cgi-bin/sis/search/r?dbs+hsdb:@term+@rn+@rel+93-76-5
  16. http://pubchem.ncbi.nlm.nih.gov/vw3d/vw3d.cgi?cid=1480
