6063
  -OEChem-06261201052D

 72 75  0     1  0  0  0  0  0999 V2000
    5.4023    0.0000    0.0000 Cl  0  0  0  0  0  0  0  0  0  0  0  0
    6.0319    7.5168    0.0000 O   0  0  0  0  0  0  0  0  0  0  0  0
    2.7950    6.7605    0.0000 O   0  0  0  0  0  0  0  0  0  0  0  0
    7.0465    8.1463    0.0000 O   0  0  0  0  0  0  0  0  0  0  0  0
    0.0000    3.2082    0.0000 O   0  0  0  0  0  0  0  0  0  0  0  0
    8.8722    7.3297    0.0000 N   0  0  0  0  0  0  0  0  0  0  0  0
   10.4923    8.5024    0.0000 N   0  0  0  0  0  0  0  0  0  0  0  0
    5.3931    6.2605    0.0000 C   0  0  1  0  0  0  0  0  0  0  0  0
    5.3931    5.2605    0.0000 C   0  0  2  0  0  0  0  0  0  0  0  0
    4.5271    4.7605    0.0000 C   0  0  1  0  0  0  0  0  0  0  0  0
    3.6610    5.2605    0.0000 C   0  0  2  0  0  0  0  0  0  0  0  0
    6.3393    6.5652    0.0000 C   0  0  1  0  0  0  0  0  0  0  0  0
    4.5271    6.7605    0.0000 C   0  0  0  0  0  0  0  0  0  0  0  0
    6.3393    4.9558    0.0000 C   0  0  0  0  0  0  0  0  0  0  0  0
    3.6610    6.2605    0.0000 C   0  0  2  0  0  0  0  0  0  0  0  0
    2.7510    4.7536    0.0000 C   0  0  1  0  0  0  0  0  0  0  0  0
    6.9229    5.7605    0.0000 C   0  0  0  0  0  0  0  0  0  0  0  0
    4.5431    3.7190    0.0000 C   0  0  0  0  0  0  0  0  0  0  0  0
    5.3931    7.2605    0.0000 C   0  0  0  0  0  0  0  0  0  0  0  0
    3.6451    3.1912    0.0000 C   0  0  0  0  0  0  0  0  0  0  0  0
    2.7430    3.7120    0.0000 C   0  0  0  0  0  0  0  0  0  0  0  0
    7.1493    7.1516    0.0000 C   0  0  0  0  0  0  0  0  0  0  0  0
    2.7587    5.7536    0.0000 C   0  0  0  0  0  0  0  0  0  0  0  0
    1.8242    5.3177    0.0000 C   0  0  0  0  0  0  0  0  0  0  0  0
    1.8076    3.1623    0.0000 C   0  0  0  0  0  0  0  0  0  0  0  0
    8.0622    6.7433    0.0000 C   0  0  0  0  0  0  0  0  0  0  0  0
    0.8763    4.7898    0.0000 C   0  0  0  0  0  0  0  0  0  0  0  0
    0.8679    3.7048    0.0000 C   0  0  0  0  0  0  0  0  0  0  0  0
    9.7850    6.9214    0.0000 C   0  0  0  0  0  0  0  0  0  0  0  0
    8.7694    8.3244    0.0000 C   0  0  0  0  0  0  0  0  0  0  0  0
   10.5951    7.5077    0.0000 C   0  0  0  0  0  0  0  0  0  0  0  0
    9.5794    8.9108    0.0000 C   0  0  0  0  0  0  0  0  0  0  0  0
   11.3023    9.0888    0.0000 C   0  0  0  0  0  0  0  0  0  0  0  0
    5.4830    4.4153    0.0000 H   0  0  0  0  0  0  0  0  0  0  0  0
    5.2664    4.3412    0.0000 H   0  0  0  0  0  0  0  0  0  0  0  0
    4.3972    5.6855    0.0000 H   0  0  0  0  0  0  0  0  0  0  0  0
    4.9256    7.2354    0.0000 H   0  0  0  0  0  0  0  0  0  0  0  0
    4.1285    7.2354    0.0000 H   0  0  0  0  0  0  0  0  0  0  0  0
    6.0883    4.3888    0.0000 H   0  0  0  0  0  0  0  0  0  0  0  0
    6.8767    4.6465    0.0000 H   0  0  0  0  0  0  0  0  0  0  0  0
    3.1241    5.9505    0.0000 H   0  0  0  0  0  0  0  0  0  0  0  0
    7.3838    5.3458    0.0000 H   0  0  0  0  0  0  0  0  0  0  0  0
    7.3838    6.1752    0.0000 H   0  0  0  0  0  0  0  0  0  0  0  0
    4.7612    3.1386    0.0000 H   0  0  0  0  0  0  0  0  0  0  0  0
    5.1523    3.8345    0.0000 H   0  0  0  0  0  0  0  0  0  0  0  0
    6.0131    7.2605    0.0000 H   0  0  0  0  0  0  0  0  0  0  0  0
    5.3931    7.8805    0.0000 H   0  0  0  0  0  0  0  0  0  0  0  0
    4.7731    7.2605    0.0000 H   0  0  0  0  0  0  0  0  0  0  0  0
    3.2478    2.7153    0.0000 H   0  0  0  0  0  0  0  0  0  0  0  0
    4.0460    2.7183    0.0000 H   0  0  0  0  0  0  0  0  0  0  0  0
    3.3787    5.7488    0.0000 H   0  0  0  0  0  0  0  0  0  0  0  0
    2.7635    6.3736    0.0000 H   0  0  0  0  0  0  0  0  0  0  0  0
    2.1388    5.7584    0.0000 H   0  0  0  0  0  0  0  0  0  0  0  0
    1.8361    5.9376    0.0000 H   0  0  0  0  0  0  0  0  0  0  0  0
    6.4476    7.9768    0.0000 H   0  0  0  0  0  0  0  0  0  0  0  0
    2.7950    7.3805    0.0000 H   0  0  0  0  0  0  0  0  0  0  0  0
    1.8100    2.5423    0.0000 H   0  0  0  0  0  0  0  0  0  0  0  0
    7.7146    6.2299    0.0000 H   0  0  0  0  0  0  0  0  0  0  0  0
    8.5074    6.3118    0.0000 H   0  0  0  0  0  0  0  0  0  0  0  0
    0.3430    5.1060    0.0000 H   0  0  0  0  0  0  0  0  0  0  0  0
    9.4375    6.4079    0.0000 H   0  0  0  0  0  0  0  0  0  0  0  0
   10.2303    6.4899    0.0000 H   0  0  0  0  0  0  0  0  0  0  0  0
    8.4986    8.8821    0.0000 H   0  0  0  0  0  0  0  0  0  0  0  0
    8.1731    8.1545    0.0000 H   0  0  0  0  0  0  0  0  0  0  0  0
   10.8659    6.9500    0.0000 H   0  0  0  0  0  0  0  0  0  0  0  0
   11.1914    7.6776    0.0000 H   0  0  0  0  0  0  0  0  0  0  0  0
    9.9270    9.4242    0.0000 H   0  0  0  0  0  0  0  0  0  0  0  0
    9.1342    9.3422    0.0000 H   0  0  0  0  0  0  0  0  0  0  0  0
   11.6659    8.5866    0.0000 H   0  0  0  0  0  0  0  0  0  0  0  0
   11.8045    9.4524    0.0000 H   0  0  0  0  0  0  0  0  0  0  0  0
   10.9388    9.5910    0.0000 H   0  0  0  0  0  0  0  0  0  0  0  0
    6.4023    0.0000    0.0000 H   0  0  0  0  0  0  0  0  0  0  0  0
  1 72  1  0  0  0  0
 12  2  1  6  0  0  0
  2 55  1  0  0  0  0
 15  3  1  1  0  0  0
  3 56  1  0  0  0  0
  4 22  2  0  0  0  0
  5 28  2  0  0  0  0
  6 26  1  0  0  0  0
  6 29  1  0  0  0  0
  6 30  1  0  0  0  0
  7 31  1  0  0  0  0
  7 32  1  0  0  0  0
  7 33  1  0  0  0  0
  8  9  1  0  0  0  0
  8 12  1  0  0  0  0
  8 13  1  0  0  0  0
  8 19  1  1  0  0  0
  9 10  1  0  0  0  0
  9 14  1  0  0  0  0
  9 34  1  6  0  0  0
 10 11  1  0  0  0  0
 10 18  1  0  0  0  0
 10 35  1  1  0  0  0
 11 15  1  0  0  0  0
 11 16  1  0  0  0  0
 11 36  1  6  0  0  0
 12 17  1  0  0  0  0
 12 22  1  0  0  0  0
 13 15  1  0  0  0  0
 13 37  1  0  0  0  0
 13 38  1  0  0  0  0
 14 17  1  0  0  0  0
 14 39  1  0  0  0  0
 14 40  1  0  0  0  0
 15 41  1  0  0  0  0
 16 21  1  0  0  0  0
 16 23  1  1  0  0  0
 16 24  1  0  0  0  0
 17 42  1  0  0  0  0
 17 43  1  0  0  0  0
 18 20  1  0  0  0  0
 18 44  1  0  0  0  0
 18 45  1  0  0  0  0
 19 46  1  0  0  0  0
 19 47  1  0  0  0  0
 19 48  1  0  0  0  0
 20 21  1  0  0  0  0
 20 49  1  0  0  0  0
 20 50  1  0  0  0  0
 21 25  2  0  0  0  0
 22 26  1  0  0  0  0
 23 51  1  0  0  0  0
 23 52  1  0  0  0  0
 23 53  1  0  0  0  0
 24 27  2  0  0  0  0
 24 54  1  0  0  0  0
 25 28  1  0  0  0  0
 25 57  1  0  0  0  0
 26 58  1  0  0  0  0
 26 59  1  0  0  0  0
 27 28  1  0  0  0  0
 27 60  1  0  0  0  0
 29 31  1  0  0  0  0
 29 61  1  0  0  0  0
 29 62  1  0  0  0  0
 30 32  1  0  0  0  0
 30 63  1  0  0  0  0
 30 64  1  0  0  0  0
 31 65  1  0  0  0  0
 31 66  1  0  0  0  0
 32 67  1  0  0  0  0
 32 68  1  0  0  0  0
 33 69  1  0  0  0  0
 33 70  1  0  0  0  0
 33 71  1  0  0  0  0
M  END
> <PUBCHEM_COMPOUND_CID>
6063

> <PUBCHEM_COMPOUND_CANONICALIZED>
1

> <PUBCHEM_CACTVS_COMPLEXITY>
875

> <PUBCHEM_CACTVS_HBOND_ACCEPTOR>
6

> <PUBCHEM_CACTVS_HBOND_DONOR>
3

> <PUBCHEM_CACTVS_ROTATABLE_BOND>
3

> <PUBCHEM_CACTVS_SUBSKEYS>
AAADcfB7OAAEAAAAAAAAAAAAAAAAAYAAAAA8YIEAAAAAAGDAAAAAHgAACAAAD1ThgAYCAAMAAgCIAqBSAAIAAAAgAAAICAHIAEgAUBIAgSAUQAAGgACIAYPYzPDPgAAAAAAAAADAAAYAADAAAYAADAAAAA==

> <PUBCHEM_IUPAC_OPENEYE_NAME>
(8S,9S,10R,11S,13S,14S,17R)-11,17-dihydroxy-10,13-dimethyl-17-[2-(4-methylpiperazin-1-yl)acetyl]-7,8,9,11,12,14,15,16-octahydro-6H-cyclopenta[a]phenanthren-3-one hydrochloride

> <PUBCHEM_IUPAC_CAS_NAME>
(8S,9S,10R,11S,13S,14S,17R)-11,17-dihydroxy-10,13-dimethyl-17-[2-(4-methyl-1-piperazinyl)-1-oxoethyl]-7,8,9,11,12,14,15,16-octahydro-6H-cyclopenta[a]phenanthren-3-one hydrochloride

> <PUBCHEM_IUPAC_NAME>
(8S,9S,10R,11S,13S,14S,17R)-11,17-dihydroxy-10,13-dimethyl-17-[2-(4-methylpiperazin-1-yl)acetyl]-7,8,9,11,12,14,15,16-octahydro-6H-cyclopenta[a]phenanthren-3-one hydrochloride

> <PUBCHEM_IUPAC_SYSTEMATIC_NAME>
(8S,9S,10R,11S,13S,14S,17R)-10,13-dimethyl-17-[2-(4-methylpiperazin-1-yl)ethanoyl]-11,17-bis(oxidanyl)-7,8,9,11,12,14,15,16-octahydro-6H-cyclopenta[a]phenanthren-3-one hydrochloride

> <PUBCHEM_IUPAC_TRADITIONAL_NAME>
(8S,9S,10R,11S,13S,14S,17R)-11,17-dihydroxy-10,13-dimethyl-17-[2-(4-methylpiperazino)acetyl]-7,8,9,11,12,14,15,16-octahydro-6H-cyclopenta[a]phenanthren-3-one hydrochloride

> <PUBCHEM_IUPAC_INCHI>
InChI=1S/C26H38N2O4.ClH/c1-24-8-6-18(29)14-17(24)4-5-19-20-7-9-26(32,25(20,2)15-21(30)23(19)24)22(31)16-28-12-10-27(3)11-13-28;/h6,8,14,19-21,23,30,32H,4-5,7,9-13,15-16H2,1-3H3;1H/t19-,20-,21-,23+,24-,25-,26-;/m0./s1

> <PUBCHEM_IUPAC_INCHIKEY>
OHMBNBZVSGNWEE-HEBJBRBZSA-N

> <PUBCHEM_EXACT_MASS>
478.259835

> <PUBCHEM_MOLECULAR_FORMULA>
C26H39ClN2O4

> <PUBCHEM_MOLECULAR_WEIGHT>
479.05186

> <PUBCHEM_OPENEYE_CAN_SMILES>
CC12CC(C3C(C1CCC2(C(=O)CN4CCN(CC4)C)O)CCC5=CC(=O)C=CC35C)O.Cl

> <PUBCHEM_OPENEYE_ISO_SMILES>
C[C@]12C[C@@H]([C@H]3[C@H]([C@@H]1CC[C@@]2(C(=O)CN4CCN(CC4)C)O)CCC5=CC(=O)C=C[C@]35C)O.Cl

> <PUBCHEM_CACTVS_TPSA>
81.1

> <PUBCHEM_MONOISOTOPIC_WEIGHT>
478.259835

> <PUBCHEM_TOTAL_CHARGE>
0

> <PUBCHEM_HEAVY_ATOM_COUNT>
33

> <PUBCHEM_ATOM_DEF_STEREO_COUNT>
7

> <PUBCHEM_ATOM_UDEF_STEREO_COUNT>
0

> <PUBCHEM_BOND_DEF_STEREO_COUNT>
0

> <PUBCHEM_BOND_UDEF_STEREO_COUNT>
0

> <PUBCHEM_ISOTOPIC_ATOM_COUNT>
0

> <PUBCHEM_COMPONENT_COUNT>
2

> <PUBCHEM_CACTVS_TAUTO_COUNT>
6

> <PUBCHEM_COORDINATE_TYPE>
1
5
255

> <PUBCHEM_BONDANNOTATIONS>
10  35  5
11  36  6
16  23  5
12  2  6
15  3  5
8  19  5
9  34  6

$$$$

