   Color/Form

     * LUSTROUS LEAFLETS FROM WATER
     * WHITE CRYSTALLINE POWDER

   from [1]HSDB

   Odor
        ODORLESS
   from [2]HSDB

   Melting Point
        122.5 DEG C
   from [3]HSDB

   Density/Specific Gravity
        1.26
   from [4]HSDB

   Solubilities

     * SOLUBILITY IN BOILNG WATER ABOUT 1.0 G/100 ML; SOL IN ALC, ETHER,
       BENZENE
     * INSOL IN WATER
     * FREELY SOL IN ACETONE
     * Practically insoluble in petroleum hydrocarbons, very soluble in
       benzene and alkalies.

   from [5]HSDB

   Spectral Properties

     * IR: 15254 (Sadtler Research Laboratories IR Grating Collection)
     * UV: 167 (Sadtler Research Laboratories Spectral Collection)
     * NMR: 6552 (Sadtler Research Laboratories Spectral Collection)
     * IR: 474 (Sadtler Research Laboratories Prism Collection)
     * UV: 167 (Sadtler Research Laboratories Spectral Collection)

   from [6]HSDB

   Computed Properties
   Molecular Weight                  200.23318 [g/mol]
   Molecular Formula                 C[13]H[12]O[2]
   XLogP3                            3.4
   H-Bond Donor                      1
   H-Bond Acceptor                   2
   Rotatable Bond Count              3
   Tautomer Count                    2
   Exact Mass                        200.08373
   MonoIsotopic Mass                 200.08373
   Topological Polar Surface Area    29.5
   Heavy Atom Count                  15
   Formal Charge                     0
   Complexity                        167
   Isotope Atom Count                0
   Defined Atom Stereocenter Count   0
   Undefined Atom Stereocenter Count 0
   Defined Bond Stereocenter Count   0
   Undefined Bond Stereocenter Count 0
   Covalently-Bonded Unit Count      1
   Feature 3D Acceptor Count         1
   Feature 3D Donor Count            1
   Feature 3D Ring Count             2
   Effective Rotor Count             3
   Conformer Sampling RMSD           0.6
   CID Conformer Count               [7]14

References

   1. http://toxnet.nlm.nih.gov/cgi-bin/sis/search/r?dbs+hsdb:@term+@rn+@rel+103-16-2
   2. http://toxnet.nlm.nih.gov/cgi-bin/sis/search/r?dbs+hsdb:@term+@rn+@rel+103-16-2
   3. http://toxnet.nlm.nih.gov/cgi-bin/sis/search/r?dbs+hsdb:@term+@rn+@rel+103-16-2
   4. http://toxnet.nlm.nih.gov/cgi-bin/sis/search/r?dbs+hsdb:@term+@rn+@rel+103-16-2
   5. http://toxnet.nlm.nih.gov/cgi-bin/sis/search/r?dbs+hsdb:@term+@rn+@rel+103-16-2
   6. http://toxnet.nlm.nih.gov/cgi-bin/sis/search/r?dbs+hsdb:@term+@rn+@rel+103-16-2
   7. http://pubchem.ncbi.nlm.nih.gov/vw3d/vw3d.cgi?cid=7638
