   Color/Form
        White crystalline solid
   from [1]HSDB

   Odor
        Odorless
   from [2]HSDB

   Melting Point
        232 deg C
   from [3]HSDB

   Density/Specific Gravity
        1.09 at 24 deg C
   from [4]HSDB

   Dissociation Constants
        pKa = 2.94
   from [5]HSDB

   Solubilities
        In water, 91 mg/l (20 deg C). In acetone 51.0, methanol 34.6,
   ethyl acetate 10.6, isopropanol 9.2, dichloromethane 0.1, toluene 0.8,
   xylene 0.3 (all in g/l, 20 deg C).
   from [6]HSDB

   Vapor Pressure
        9.42X10-7 mm Hg @ 25 deg C
   from [7]HSDB

   Computed Properties
   Molecular Weight                  255.030603 [g/mol]
   Molecular Formula                 C[7]H[5]Cl[2]FN[2]O[3]
   XLogP3-AA                         1.8
   H-Bond Donor                      2
   H-Bond Acceptor                   6
   Rotatable Bond Count              3
   Tautomer Count                    2
   Exact Mass                        253.966126
   MonoIsotopic Mass                 253.966126
   Topological Polar Surface Area    85.4
   Heavy Atom Count                  15
   Formal Charge                     0
   Complexity                        246
   Isotope Atom Count                0
   Defined Atom Stereocenter Count   0
   Undefined Atom Stereocenter Count 0
   Defined Bond Stereocenter Count   0
   Undefined Bond Stereocenter Count 0
   Covalently-Bonded Unit Count      1
   Feature 3D Acceptor Count         2
   Feature 3D Donor Count            1
   Feature 3D Anion Count            1
   Feature 3D Cation Count           1
   Feature 3D Ring Count             1
   Effective Rotor Count             3
   Conformer Sampling RMSD           0.6
   CID Conformer Count               [8]20

References

   1. http://toxnet.nlm.nih.gov/cgi-bin/sis/search/r?dbs+hsdb:@term+@rn+@rel+69377-81-7
   2. http://toxnet.nlm.nih.gov/cgi-bin/sis/search/r?dbs+hsdb:@term+@rn+@rel+69377-81-7
   3. http://toxnet.nlm.nih.gov/cgi-bin/sis/search/r?dbs+hsdb:@term+@rn+@rel+69377-81-7
   4. http://toxnet.nlm.nih.gov/cgi-bin/sis/search/r?dbs+hsdb:@term+@rn+@rel+69377-81-7
   5. http://toxnet.nlm.nih.gov/cgi-bin/sis/search/r?dbs+hsdb:@term+@rn+@rel+69377-81-7
   6. http://toxnet.nlm.nih.gov/cgi-bin/sis/search/r?dbs+hsdb:@term+@rn+@rel+69377-81-7
   7. http://toxnet.nlm.nih.gov/cgi-bin/sis/search/r?dbs+hsdb:@term+@rn+@rel+69377-81-7
   8. http://pubchem.ncbi.nlm.nih.gov/vw3d/vw3d.cgi?cid=50465
