94320
  -OEChem-07051213102D

 85 89  0     1  0  0  0  0  0999 V2000
    3.7320   -3.0234    0.0000 O   0  0  0  0  0  0  0  0  0  0  0  0
    6.5270    0.5289    0.0000 O   0  0  0  0  0  0  0  0  0  0  0  0
   12.4150    3.0886    0.0000 O   0  0  0  0  0  0  0  0  0  0  0  0
   10.9051    3.9372    0.0000 O   0  0  0  0  0  0  0  0  0  0  0  0
    2.8718   -1.5201    0.0000 O   0  0  0  0  0  0  0  0  0  0  0  0
    8.2591   -1.4710    0.0000 C   0  0  2  0  0  0  0  0  0  0  0  0
    6.4831   -1.4779    0.0000 C   0  0  2  0  0  0  0  0  0  0  0  0
    7.3931   -0.9711    0.0000 C   0  0  1  0  0  0  0  0  0  0  0  0
    9.1251   -0.9711    0.0000 C   0  0  1  0  0  0  0  0  0  0  0  0
    6.4750   -2.5195    0.0000 C   0  0  1  0  0  0  0  0  0  0  0  0
    8.2752   -2.5126    0.0000 C   0  0  0  0  0  0  0  0  0  0  0  0
    7.3771   -3.0403    0.0000 C   0  0  0  0  0  0  0  0  0  0  0  0
    5.5396   -3.0692    0.0000 C   0  0  0  0  0  0  0  0  0  0  0  0
    9.1251    0.0289    0.0000 C   0  0  0  0  0  0  0  0  0  0  0  0
   10.0191    0.5636    0.0000 C   0  0  1  0  0  0  0  0  0  0  0  0
   10.9251    0.0498    0.0000 C   0  0  1  0  0  0  0  0  0  0  0  0
   10.0191   -1.5057    0.0000 C   0  0  0  0  0  0  0  0  0  0  0  0
    5.5562   -0.9138    0.0000 C   0  0  0  0  0  0  0  0  0  0  0  0
   10.9251   -0.9919    0.0000 C   0  0  0  0  0  0  0  0  0  0  0  0
    7.3931    0.0289    0.0000 C   0  0  0  0  0  0  0  0  0  0  0  0
    8.9019   -2.2371    0.0000 C   0  0  0  0  0  0  0  0  0  0  0  0
    4.6000   -2.5267    0.0000 C   0  0  2  0  0  0  0  0  0  0  0  0
    6.4908   -0.4779    0.0000 C   0  0  0  0  0  0  0  0  0  0  0  0
    4.6084   -1.4418    0.0000 C   0  0  0  0  0  0  0  0  0  0  0  0
    9.4672   -1.9107    0.0000 C   0  0  0  0  0  0  0  0  0  0  0  0
    8.2591    0.5289    0.0000 C   0  0  0  0  0  0  0  0  0  0  0  0
    9.9940    1.6483    0.0000 C   0  0  0  0  0  0  0  0  0  0  0  0
   11.8689    0.5850    0.0000 C   0  0  0  0  0  0  0  0  0  0  0  0
   10.9251    2.2052    0.0000 C   0  0  1  0  0  0  0  0  0  0  0  0
   11.8689    1.6700    0.0000 C   0  0  0  0  0  0  0  0  0  0  0  0
    5.0430   -3.9372    0.0000 C   0  0  0  0  0  0  0  0  0  0  0  0
    6.0430   -3.9333    0.0000 C   0  0  0  0  0  0  0  0  0  0  0  0
   11.7950   -0.4435    0.0000 C   0  0  0  0  0  0  0  0  0  0  0  0
   10.4152    3.0654    0.0000 C   0  0  0  0  0  0  0  0  0  0  0  0
   11.4151    3.0770    0.0000 C   0  0  0  0  0  0  0  0  0  0  0  0
    2.8680   -2.5200    0.0000 C   0  0  0  0  0  0  0  0  0  0  0  0
    2.0000   -3.0167    0.0000 C   0  0  0  0  0  0  0  0  0  0  0  0
    8.1292   -0.5461    0.0000 H   0  0  0  0  0  0  0  0  0  0  0  0
    6.4783   -3.3695    0.0000 H   0  0  0  0  0  0  0  0  0  0  0  0
    8.4932   -3.0930    0.0000 H   0  0  0  0  0  0  0  0  0  0  0  0
    8.8843   -2.3971    0.0000 H   0  0  0  0  0  0  0  0  0  0  0  0
    6.9798   -3.5163    0.0000 H   0  0  0  0  0  0  0  0  0  0  0  0
    7.7781   -3.5132    0.0000 H   0  0  0  0  0  0  0  0  0  0  0  0
   10.7485    0.9999    0.0000 H   0  0  0  0  0  0  0  0  0  0  0  0
    9.6145   -1.9755    0.0000 H   0  0  0  0  0  0  0  0  0  0  0  0
   10.4127   -1.9847    0.0000 H   0  0  0  0  0  0  0  0  0  0  0  0
    5.9644   -0.4472    0.0000 H   0  0  0  0  0  0  0  0  0  0  0  0
    5.1663   -0.4318    0.0000 H   0  0  0  0  0  0  0  0  0  0  0  0
   11.1342   -1.5756    0.0000 H   0  0  0  0  0  0  0  0  0  0  0  0
   11.5360   -0.8858    0.0000 H   0  0  0  0  0  0  0  0  0  0  0  0
    8.4269   -2.6356    0.0000 H   0  0  0  0  0  0  0  0  0  0  0  0
    9.3004   -2.7120    0.0000 H   0  0  0  0  0  0  0  0  0  0  0  0
    9.3768   -1.8386    0.0000 H   0  0  0  0  0  0  0  0  0  0  0  0
    4.0648   -2.2136    0.0000 H   0  0  0  0  0  0  0  0  0  0  0  0
    7.1108   -0.4827    0.0000 H   0  0  0  0  0  0  0  0  0  0  0  0
    6.4956    0.1421    0.0000 H   0  0  0  0  0  0  0  0  0  0  0  0
    5.8708   -0.4731    0.0000 H   0  0  0  0  0  0  0  0  0  0  0  0
    4.4038   -0.8565    0.0000 H   0  0  0  0  0  0  0  0  0  0  0  0
    3.9967   -1.5431    0.0000 H   0  0  0  0  0  0  0  0  0  0  0  0
    8.8846   -2.1228    0.0000 H   0  0  0  0  0  0  0  0  0  0  0  0
    9.6794   -2.4933    0.0000 H   0  0  0  0  0  0  0  0  0  0  0  0
   10.0498   -1.6986    0.0000 H   0  0  0  0  0  0  0  0  0  0  0  0
    8.2591    1.1490    0.0000 H   0  0  0  0  0  0  0  0  0  0  0  0
    9.7715    2.2270    0.0000 H   0  0  0  0  0  0  0  0  0  0  0  0
    9.3857    1.5281    0.0000 H   0  0  0  0  0  0  0  0  0  0  0  0
   12.0780    0.0013    0.0000 H   0  0  0  0  0  0  0  0  0  0  0  0
   12.4798    0.6911    0.0000 H   0  0  0  0  0  0  0  0  0  0  0  0
   12.4798    1.5639    0.0000 H   0  0  0  0  0  0  0  0  0  0  0  0
   12.0780    2.2537    0.0000 H   0  0  0  0  0  0  0  0  0  0  0  0
    4.5048   -3.6292    0.0000 H   0  0  0  0  0  0  0  0  0  0  0  0
    4.7350   -4.4753    0.0000 H   0  0  0  0  0  0  0  0  0  0  0  0
    5.5811   -4.2451    0.0000 H   0  0  0  0  0  0  0  0  0  0  0  0
    5.5072   -4.2454    0.0000 H   0  0  0  0  0  0  0  0  0  0  0  0
    6.3550   -4.4690    0.0000 H   0  0  0  0  0  0  0  0  0  0  0  0
    6.5787   -3.6212    0.0000 H   0  0  0  0  0  0  0  0  0  0  0  0
   11.4891   -0.9829    0.0000 H   0  0  0  0  0  0  0  0  0  0  0  0
   12.3343   -0.7494    0.0000 H   0  0  0  0  0  0  0  0  0  0  0  0
   12.1008    0.0958    0.0000 H   0  0  0  0  0  0  0  0  0  0  0  0
   10.9485    3.3816    0.0000 H   0  0  0  0  0  0  0  0  0  0  0  0
   10.0990    3.5987    0.0000 H   0  0  0  0  0  0  0  0  0  0  0  0
    9.8818    2.7492    0.0000 H   0  0  0  0  0  0  0  0  0  0  0  0
   12.7188    3.6290    0.0000 H   0  0  0  0  0  0  0  0  0  0  0  0
    1.6921   -2.4786    0.0000 H   0  0  0  0  0  0  0  0  0  0  0  0
    1.4619   -3.3246    0.0000 H   0  0  0  0  0  0  0  0  0  0  0  0
    2.3079   -3.5548    0.0000 H   0  0  0  0  0  0  0  0  0  0  0  0
 22  1  1  1  0  0  0
  1 36  1  0  0  0  0
  2 20  2  0  0  0  0
  3 35  1  0  0  0  0
  3 82  1  0  0  0  0
  4 35  2  0  0  0  0
  5 36  2  0  0  0  0
  6  8  1  0  0  0  0
  6  9  1  0  0  0  0
  6 11  1  0  0  0  0
  6 21  1  1  0  0  0
  7  8  1  0  0  0  0
  7 10  1  0  0  0  0
  7 18  1  0  0  0  0
  7 23  1  1  0  0  0
  8 20  1  0  0  0  0
  8 38  1  6  0  0  0
  9 14  1  0  0  0  0
  9 17  1  0  0  0  0
  9 25  1  6  0  0  0
 10 12  1  0  0  0  0
 10 13  1  0  0  0  0
 10 39  1  6  0  0  0
 11 12  1  0  0  0  0
 11 40  1  0  0  0  0
 11 41  1  0  0  0  0
 12 42  1  0  0  0  0
 12 43  1  0  0  0  0
 13 22  1  0  0  0  0
 13 31  1  0  0  0  0
 13 32  1  0  0  0  0
 14 15  1  0  0  0  0
 14 26  2  0  0  0  0
 15 16  1  0  0  0  0
 15 27  1  0  0  0  0
 15 44  1  1  0  0  0
 16 19  1  0  0  0  0
 16 28  1  0  0  0  0
 16 33  1  1  0  0  0
 17 19  1  0  0  0  0
 17 45  1  0  0  0  0
 17 46  1  0  0  0  0
 18 24  1  0  0  0  0
 18 47  1  0  0  0  0
 18 48  1  0  0  0  0
 19 49  1  0  0  0  0
 19 50  1  0  0  0  0
 20 26  1  0  0  0  0
 21 51  1  0  0  0  0
 21 52  1  0  0  0  0
 21 53  1  0  0  0  0
 22 24  1  0  0  0  0
 22 54  1  0  0  0  0
 23 55  1  0  0  0  0
 23 56  1  0  0  0  0
 23 57  1  0  0  0  0
 24 58  1  0  0  0  0
 24 59  1  0  0  0  0
 25 60  1  0  0  0  0
 25 61  1  0  0  0  0
 25 62  1  0  0  0  0
 26 63  1  0  0  0  0
 27 29  1  0  0  0  0
 27 64  1  0  0  0  0
 27 65  1  0  0  0  0
 28 30  1  0  0  0  0
 28 66  1  0  0  0  0
 28 67  1  0  0  0  0
 29 30  1  0  0  0  0
 29 34  1  6  0  0  0
 29 35  1  0  0  0  0
 30 68  1  0  0  0  0
 30 69  1  0  0  0  0
 31 70  1  0  0  0  0
 31 71  1  0  0  0  0
 31 72  1  0  0  0  0
 32 73  1  0  0  0  0
 32 74  1  0  0  0  0
 32 75  1  0  0  0  0
 33 76  1  0  0  0  0
 33 77  1  0  0  0  0
 33 78  1  0  0  0  0
 34 79  1  0  0  0  0
 34 80  1  0  0  0  0
 34 81  1  0  0  0  0
 36 37  1  0  0  0  0
 37 83  1  0  0  0  0
 37 84  1  0  0  0  0
 37 85  1  0  0  0  0
M  END
> <PUBCHEM_COMPOUND_CID>
94320

> <PUBCHEM_COMPOUND_CANONICALIZED>
1

> <PUBCHEM_CACTVS_COMPLEXITY>
1070

> <PUBCHEM_CACTVS_HBOND_ACCEPTOR>
5

> <PUBCHEM_CACTVS_HBOND_DONOR>
1

> <PUBCHEM_CACTVS_ROTATABLE_BOND>
3

> <PUBCHEM_CACTVS_SUBSKEYS>
AAADcfB8OAAAAAAAAAAAAAAAAAAAAAAAAAAwYMGCAAAAAADAAAAAGgAACAAADxSggAICCAAABgCIAqDSCAAAAAAgAAAACAEAAEgAABIAAQACQAAEgAAIAQOIyPCPgAAAAAAAAADAAAYAADAAAAAAAAAAAA==

> <PUBCHEM_IUPAC_OPENEYE_NAME>
(2S,4aS,6aR,6aS,6bR,8aR,10S,12aS,14bR)-10-acetoxy-2,4a,6a,6b,9,9,12a-heptamethyl-13-oxo-3,4,5,6,6a,7,8,8a,10,11,12,14b-dodecahydro-1H-picene-2-carboxylic acid

> <PUBCHEM_IUPAC_CAS_NAME>
(2S,4aS,6aR,6aS,6bR,8aR,10S,12aS,14bR)-10-acetyloxy-2,4a,6a,6b,9,9,12a-heptamethyl-13-oxo-3,4,5,6,6a,7,8,8a,10,11,12,14b-dodecahydro-1H-picene-2-carboxylic acid

> <PUBCHEM_IUPAC_NAME>
(2S,4aS,6aR,6aS,6bR,8aR,10S,12aS,14bR)-10-acetyloxy-2,4a,6a,6b,9,9,12a-heptamethyl-13-oxo-3,4,5,6,6a,7,8,8a,10,11,12,14b-dodecahydro-1H-picene-2-carboxylic acid

> <PUBCHEM_IUPAC_SYSTEMATIC_NAME>
(2S,4aS,6aR,6aS,6bR,8aR,10S,12aS,14bR)-10-acetyloxy-2,4a,6a,6b,9,9,12a-heptamethyl-13-oxidanylidene-3,4,5,6,6a,7,8,8a,10,11,12,14b-dodecahydro-1H-picene-2-carboxylic acid

> <PUBCHEM_IUPAC_TRADITIONAL_NAME>
(2S,4aS,6aR,6aS,6bR,8aR,10S,12aS,14bR)-10-acetoxy-13-keto-2,4a,6a,6b,9,9,12a-heptamethyl-3,4,5,6,6a,7,8,8a,10,11,12,14b-dodecahydro-1H-picene-2-carboxylic acid

> <PUBCHEM_IUPAC_INCHI>
InChI=1S/C32H48O5/c1-19(33)37-24-10-11-30(6)23(27(24,2)3)9-12-32(8)25(30)22(34)17-20-21-18-29(5,26(35)36)14-13-28(21,4)15-16-31(20,32)7/h17,21,23-25H,9-16,18H2,1-8H3,(H,35,36)/t21-,23-,24-,25+,28+,29-,30-,31+,32+/m0/s1

> <PUBCHEM_IUPAC_INCHIKEY>
FTQDJVZNPJRVPG-XWEVEMRCSA-N

> <PUBCHEM_XLOGP3_AA>
7

> <PUBCHEM_EXACT_MASS>
512.350175

> <PUBCHEM_MOLECULAR_FORMULA>
C32H48O5

> <PUBCHEM_MOLECULAR_WEIGHT>
512.72052

> <PUBCHEM_OPENEYE_CAN_SMILES>
CC(=O)OC1CCC2(C(C1(C)C)CCC3(C2C(=O)C=C4C3(CCC5(C4CC(CC5)(C)C(=O)O)C)C)C)C

> <PUBCHEM_OPENEYE_ISO_SMILES>
CC(=O)O[C@H]1CC[C@]2([C@H](C1(C)C)CC[C@@]3([C@@H]2C(=O)C=C4[C@]3(CC[C@@]5([C@H]4C[C@@](CC5)(C)C(=O)O)C)C)C)C

> <PUBCHEM_CACTVS_TPSA>
80.7

> <PUBCHEM_MONOISOTOPIC_WEIGHT>
512.350175

> <PUBCHEM_TOTAL_CHARGE>
0

> <PUBCHEM_HEAVY_ATOM_COUNT>
37

> <PUBCHEM_ATOM_DEF_STEREO_COUNT>
9

> <PUBCHEM_ATOM_UDEF_STEREO_COUNT>
0

> <PUBCHEM_BOND_DEF_STEREO_COUNT>
0

> <PUBCHEM_BOND_UDEF_STEREO_COUNT>
0

> <PUBCHEM_ISOTOPIC_ATOM_COUNT>
0

> <PUBCHEM_COMPONENT_COUNT>
1

> <PUBCHEM_CACTVS_TAUTO_COUNT>
5

> <PUBCHEM_COORDINATE_TYPE>
1
5
255

> <PUBCHEM_BONDANNOTATIONS>
22  1  5
10  39  6
15  44  5
16  33  5
29  34  6
6  21  5
7  23  5
8  38  6
9  25  6

$$$$

