47205102
  -OEChem-06241222582D

 36 37  0     0  0  0  0  0  0999 V2000
   12.1549    1.1138    0.0000 S   0  0  0  0  0  0  0  0  0  0  0  0
    6.4712   -1.5325    0.0000 O   0  0  0  0  0  0  0  0  0  0  0  0
   10.1869    1.8132    0.0000 O   0  0  0  0  0  0  0  0  0  0  0  0
    5.3122   -0.2453    0.0000 N   0  0  0  0  0  0  0  0  0  0  0  0
    9.6517    0.1659    0.0000 N   0  0  0  0  0  0  0  0  0  0  0  0
    2.8090   -1.1932    0.0000 N   0  0  0  0  0  0  0  0  0  0  0  0
    2.0000   -0.6054    0.0000 N   0  0  0  0  0  0  0  0  0  0  0  0
    7.9575   -0.1942    0.0000 C   0  0  0  0  0  0  0  0  0  0  0  0
    7.0064    0.1148    0.0000 C   0  0  0  0  0  0  0  0  0  0  0  0
    8.7006    0.4749    0.0000 C   0  0  0  0  0  0  0  0  0  0  0  0
    6.2633   -0.5543    0.0000 C   0  0  0  0  0  0  0  0  0  0  0  0
    4.5691   -0.9144    0.0000 C   0  0  0  0  0  0  0  0  0  0  0  0
    3.6180   -0.6054    0.0000 C   0  0  0  0  0  0  0  0  0  0  0  0
   10.3948    0.8350    0.0000 C   0  0  0  0  0  0  0  0  0  0  0  0
    3.3090    0.3456    0.0000 C   0  0  0  0  0  0  0  0  0  0  0  0
   11.3459    0.5260    0.0000 C   0  0  0  0  0  0  0  0  0  0  0  0
    2.3090    0.3456    0.0000 C   0  0  0  0  0  0  0  0  0  0  0  0
   11.6549   -0.4250    0.0000 C   0  0  0  0  0  0  0  0  0  0  0  0
   12.6549   -0.4250    0.0000 C   0  0  0  0  0  0  0  0  0  0  0  0
   12.9639    0.5260    0.0000 C   0  0  0  0  0  0  0  0  0  0  0  0
    7.6664   -0.7416    0.0000 H   0  0  0  0  0  0  0  0  0  0  0  0
    8.4461   -0.5759    0.0000 H   0  0  0  0  0  0  0  0  0  0  0  0
    7.2975    0.6622    0.0000 H   0  0  0  0  0  0  0  0  0  0  0  0
    6.5179    0.4965    0.0000 H   0  0  0  0  0  0  0  0  0  0  0  0
    8.9917    1.0224    0.0000 H   0  0  0  0  0  0  0  0  0  0  0  0
    8.2121    0.8566    0.0000 H   0  0  0  0  0  0  0  0  0  0  0  0
    4.2780   -1.4619    0.0000 H   0  0  0  0  0  0  0  0  0  0  0  0
    5.0577   -1.2961    0.0000 H   0  0  0  0  0  0  0  0  0  0  0  0
    5.1833    0.3612    0.0000 H   0  0  0  0  0  0  0  0  0  0  0  0
    9.7806   -0.4405    0.0000 H   0  0  0  0  0  0  0  0  0  0  0  0
    3.6734    0.8472    0.0000 H   0  0  0  0  0  0  0  0  0  0  0  0
    2.8090   -1.8132    0.0000 H   0  0  0  0  0  0  0  0  0  0  0  0
    1.9446    0.8472    0.0000 H   0  0  0  0  0  0  0  0  0  0  0  0
   11.2905   -0.9266    0.0000 H   0  0  0  0  0  0  0  0  0  0  0  0
   13.0193   -0.9266    0.0000 H   0  0  0  0  0  0  0  0  0  0  0  0
   13.5536    0.7176    0.0000 H   0  0  0  0  0  0  0  0  0  0  0  0
  1 16  1  0  0  0  0
  1 20  1  0  0  0  0
  2 11  2  0  0  0  0
  3 14  2  0  0  0  0
  4 11  1  0  0  0  0
  4 12  1  0  0  0  0
  4 29  1  0  0  0  0
  5 10  1  0  0  0  0
  5 14  1  0  0  0  0
  5 30  1  0  0  0  0
  6  7  1  0  0  0  0
  6 13  1  0  0  0  0
  6 32  1  0  0  0  0
  7 17  2  0  0  0  0
  8  9  1  0  0  0  0
  8 10  1  0  0  0  0
  8 21  1  0  0  0  0
  8 22  1  0  0  0  0
  9 11  1  0  0  0  0
  9 23  1  0  0  0  0
  9 24  1  0  0  0  0
 10 25  1  0  0  0  0
 10 26  1  0  0  0  0
 12 13  1  0  0  0  0
 12 27  1  0  0  0  0
 12 28  1  0  0  0  0
 13 15  2  0  0  0  0
 14 16  1  0  0  0  0
 15 17  1  0  0  0  0
 15 31  1  0  0  0  0
 16 18  2  0  0  0  0
 17 33  1  0  0  0  0
 18 19  1  0  0  0  0
 18 34  1  0  0  0  0
 19 20  2  0  0  0  0
 19 35  1  0  0  0  0
 20 36  1  0  0  0  0
M  END
> <PUBCHEM_COMPOUND_CID>
47205102

> <PUBCHEM_COMPOUND_CANONICALIZED>
1

> <PUBCHEM_CACTVS_COMPLEXITY>
340

> <PUBCHEM_CACTVS_HBOND_ACCEPTOR>
4

> <PUBCHEM_CACTVS_HBOND_DONOR>
3

> <PUBCHEM_CACTVS_ROTATABLE_BOND>
7

> <PUBCHEM_CACTVS_SUBSKEYS>
AAADceBzsABAAAAAAAAAAAAAAAAAAWJAAAAAAAAAAAAAAAAB4AAAHgQYAAAACAjF1gS8gZLjAAiuATV3UACTBIAkihBYubk4ZNgIYLKg1dGUhQhgngCoyYYcAAAAAAAAAAAAAAAAAAAAAAAAAAAAAAAAAA==

> <PUBCHEM_IUPAC_OPENEYE_NAME>
N-[4-oxo-4-(1H-pyrazol-5-ylmethylamino)butyl]thiophene-2-carboxamide

> <PUBCHEM_IUPAC_CAS_NAME>
N-[4-oxo-4-(1H-pyrazol-5-ylmethylamino)butyl]-2-thiophenecarboxamide

> <PUBCHEM_IUPAC_NAME>
N-[4-oxo-4-(1H-pyrazol-5-ylmethylamino)butyl]thiophene-2-carboxamide

> <PUBCHEM_IUPAC_SYSTEMATIC_NAME>
N-[4-oxidanylidene-4-(1H-pyrazol-5-ylmethylamino)butyl]thiophene-2-carboxamide

> <PUBCHEM_IUPAC_TRADITIONAL_NAME>
N-[4-keto-4-(1H-pyrazol-5-ylmethylamino)butyl]thiophene-2-carboxamide

> <PUBCHEM_IUPAC_INCHI>
InChI=1S/C13H16N4O2S/c18-12(15-9-10-5-7-16-17-10)4-1-6-14-13(19)11-3-2-8-20-11/h2-3,5,7-8H,1,4,6,9H2,(H,14,19)(H,15,18)(H,16,17)

> <PUBCHEM_IUPAC_INCHIKEY>
SYIPNVQNWYBEKT-UHFFFAOYSA-N

> <PUBCHEM_XLOGP3_AA>
0.6

> <PUBCHEM_EXACT_MASS>
292.099397

> <PUBCHEM_MOLECULAR_FORMULA>
C13H16N4O2S

> <PUBCHEM_MOLECULAR_WEIGHT>
292.35674

> <PUBCHEM_OPENEYE_CAN_SMILES>
C1=CSC(=C1)C(=O)NCCCC(=O)NCC2=CC=NN2

> <PUBCHEM_OPENEYE_ISO_SMILES>
C1=CSC(=C1)C(=O)NCCCC(=O)NCC2=CC=NN2

> <PUBCHEM_CACTVS_TPSA>
115

> <PUBCHEM_MONOISOTOPIC_WEIGHT>
292.099397

> <PUBCHEM_TOTAL_CHARGE>
0

> <PUBCHEM_HEAVY_ATOM_COUNT>
20

> <PUBCHEM_ATOM_DEF_STEREO_COUNT>
0

> <PUBCHEM_ATOM_UDEF_STEREO_COUNT>
0

> <PUBCHEM_BOND_DEF_STEREO_COUNT>
0

> <PUBCHEM_BOND_UDEF_STEREO_COUNT>
0

> <PUBCHEM_ISOTOPIC_ATOM_COUNT>
0

> <PUBCHEM_COMPONENT_COUNT>
1

> <PUBCHEM_CACTVS_TAUTO_COUNT>
8

> <PUBCHEM_COORDINATE_TYPE>
1
5
255

> <PUBCHEM_BONDANNOTATIONS>
1  16  8
1  20  8
13  15  8
15  17  8
16  18  8
18  19  8
19  20  8
6  13  8
6  7  8
7  17  8

$$$$

