5505
  -OEChem-07051212522D

 36 36  0     0  0  0  0  0  0999 V2000
    3.0000   -0.7500    0.0000 S   0  0  0  0  0  0  0  0  0  0  0  0
    4.0000   -0.7500    0.0000 O   0  0  0  0  0  0  0  0  0  0  0  0
    2.0000   -0.7500    0.0000 O   0  0  0  0  0  0  0  0  0  0  0  0
    4.7320    0.2500    0.0000 O   0  0  0  0  0  0  0  0  0  0  0  0
    3.8660    1.7500    0.0000 N   0  0  0  0  0  0  0  0  0  0  0  0
    3.0000    0.2500    0.0000 N   0  0  0  0  0  0  0  0  0  0  0  0
    4.7320    3.2500    0.0000 C   0  0  0  0  0  0  0  0  0  0  0  0
    4.7320    2.2500    0.0000 C   0  0  0  0  0  0  0  0  0  0  0  0
    5.5981    3.7500    0.0000 C   0  0  0  0  0  0  0  0  0  0  0  0
    3.0000   -1.7500    0.0000 C   0  0  0  0  0  0  0  0  0  0  0  0
    5.5981    4.7500    0.0000 C   0  0  0  0  0  0  0  0  0  0  0  0
    3.8660    0.7500    0.0000 C   0  0  0  0  0  0  0  0  0  0  0  0
    2.1340   -2.2500    0.0000 C   0  0  0  0  0  0  0  0  0  0  0  0
    3.8660   -2.2500    0.0000 C   0  0  0  0  0  0  0  0  0  0  0  0
    3.0000   -3.7500    0.0000 C   0  0  0  0  0  0  0  0  0  0  0  0
    2.1340   -3.2500    0.0000 C   0  0  0  0  0  0  0  0  0  0  0  0
    3.8660   -3.2500    0.0000 C   0  0  0  0  0  0  0  0  0  0  0  0
    3.0000   -4.7500    0.0000 C   0  0  0  0  0  0  0  0  0  0  0  0
    4.5200    3.8326    0.0000 H   0  0  0  0  0  0  0  0  0  0  0  0
    4.1215    3.1423    0.0000 H   0  0  0  0  0  0  0  0  0  0  0  0
    4.9441    1.6674    0.0000 H   0  0  0  0  0  0  0  0  0  0  0  0
    5.3426    2.3577    0.0000 H   0  0  0  0  0  0  0  0  0  0  0  0
    5.8101    3.1674    0.0000 H   0  0  0  0  0  0  0  0  0  0  0  0
    6.2087    3.8577    0.0000 H   0  0  0  0  0  0  0  0  0  0  0  0
    3.3291    2.0600    0.0000 H   0  0  0  0  0  0  0  0  0  0  0  0
    6.2181    4.7500    0.0000 H   0  0  0  0  0  0  0  0  0  0  0  0
    5.5981    5.3700    0.0000 H   0  0  0  0  0  0  0  0  0  0  0  0
    4.9781    4.7500    0.0000 H   0  0  0  0  0  0  0  0  0  0  0  0
    2.4631    0.5600    0.0000 H   0  0  0  0  0  0  0  0  0  0  0  0
    1.5970   -1.9400    0.0000 H   0  0  0  0  0  0  0  0  0  0  0  0
    4.4030   -1.9400    0.0000 H   0  0  0  0  0  0  0  0  0  0  0  0
    1.5970   -3.5600    0.0000 H   0  0  0  0  0  0  0  0  0  0  0  0
    4.4030   -3.5600    0.0000 H   0  0  0  0  0  0  0  0  0  0  0  0
    2.3800   -4.7500    0.0000 H   0  0  0  0  0  0  0  0  0  0  0  0
    3.0000   -5.3700    0.0000 H   0  0  0  0  0  0  0  0  0  0  0  0
    3.6200   -4.7500    0.0000 H   0  0  0  0  0  0  0  0  0  0  0  0
  1  2  2  0  0  0  0
  1  3  2  0  0  0  0
  1  6  1  0  0  0  0
  1 10  1  0  0  0  0
  4 12  2  0  0  0  0
  5  8  1  0  0  0  0
  5 12  1  0  0  0  0
  5 25  1  0  0  0  0
  6 12  1  0  0  0  0
  6 29  1  0  0  0  0
  7  8  1  0  0  0  0
  7  9  1  0  0  0  0
  7 19  1  0  0  0  0
  7 20  1  0  0  0  0
  8 21  1  0  0  0  0
  8 22  1  0  0  0  0
  9 11  1  0  0  0  0
  9 23  1  0  0  0  0
  9 24  1  0  0  0  0
 10 13  2  0  0  0  0
 10 14  1  0  0  0  0
 11 26  1  0  0  0  0
 11 27  1  0  0  0  0
 11 28  1  0  0  0  0
 13 16  1  0  0  0  0
 13 30  1  0  0  0  0
 14 17  2  0  0  0  0
 14 31  1  0  0  0  0
 15 16  2  0  0  0  0
 15 17  1  0  0  0  0
 15 18  1  0  0  0  0
 16 32  1  0  0  0  0
 17 33  1  0  0  0  0
 18 34  1  0  0  0  0
 18 35  1  0  0  0  0
 18 36  1  0  0  0  0
M  END
> <PUBCHEM_COMPOUND_CID>
5505

> <PUBCHEM_COMPOUND_CANONICALIZED>
1

> <PUBCHEM_CACTVS_COMPLEXITY>
354

> <PUBCHEM_CACTVS_HBOND_ACCEPTOR>
3

> <PUBCHEM_CACTVS_HBOND_DONOR>
2

> <PUBCHEM_CACTVS_ROTATABLE_BOND>
5

> <PUBCHEM_CACTVS_SUBSKEYS>
AAADceBzMABAAAAAAAAAAAAAAAAAAAAAAAAwAAAAAAAAAAABAAAAHgQQQAAADADBWAQzAYLAAAKIAiBCEHBCABAgAAAIiJgIAIiIICKAkRCEIAAglgIIiAcAgAAOEAAAAAAAAAAgAAAAAAAAAAAAAAAAAA==

> <PUBCHEM_IUPAC_OPENEYE_NAME>
1-butyl-3-(p-tolylsulfonyl)urea

> <PUBCHEM_IUPAC_CAS_NAME>
1-butyl-3-(4-methylphenyl)sulfonylurea

> <PUBCHEM_IUPAC_NAME>
1-butyl-3-(4-methylphenyl)sulfonylurea

> <PUBCHEM_IUPAC_SYSTEMATIC_NAME>
1-butyl-3-(4-methylphenyl)sulfonyl-urea

> <PUBCHEM_IUPAC_TRADITIONAL_NAME>
1-butyl-3-tosyl-urea

> <PUBCHEM_IUPAC_INCHI>
InChI=1S/C12H18N2O3S/c1-3-4-9-13-12(15)14-18(16,17)11-7-5-10(2)6-8-11/h5-8H,3-4,9H2,1-2H3,(H2,13,14,15)

> <PUBCHEM_IUPAC_INCHIKEY>
JLRGJRBPOGGCBT-UHFFFAOYSA-N

> <PUBCHEM_XLOGP3>
2.3

> <PUBCHEM_EXACT_MASS>
270.103813

> <PUBCHEM_MOLECULAR_FORMULA>
C12H18N2O3S

> <PUBCHEM_MOLECULAR_WEIGHT>
270.34792

> <PUBCHEM_OPENEYE_CAN_SMILES>
CCCCNC(=O)NS(=O)(=O)C1=CC=C(C=C1)C

> <PUBCHEM_OPENEYE_ISO_SMILES>
CCCCNC(=O)NS(=O)(=O)C1=CC=C(C=C1)C

> <PUBCHEM_CACTVS_TPSA>
83.6

> <PUBCHEM_MONOISOTOPIC_WEIGHT>
270.103813

> <PUBCHEM_TOTAL_CHARGE>
0

> <PUBCHEM_HEAVY_ATOM_COUNT>
18

> <PUBCHEM_ATOM_DEF_STEREO_COUNT>
0

> <PUBCHEM_ATOM_UDEF_STEREO_COUNT>
0

> <PUBCHEM_BOND_DEF_STEREO_COUNT>
0

> <PUBCHEM_BOND_UDEF_STEREO_COUNT>
0

> <PUBCHEM_ISOTOPIC_ATOM_COUNT>
0

> <PUBCHEM_COMPONENT_COUNT>
1

> <PUBCHEM_CACTVS_TAUTO_COUNT>
3

> <PUBCHEM_COORDINATE_TYPE>
1
5
255

> <PUBCHEM_BONDANNOTATIONS>
10  13  8
10  14  8
13  16  8
14  17  8
15  16  8
15  17  8

$$$$

