   Color/Form
        LIQUID
   from [1]HSDB

   Boiling Point
        195 DEG C @ 12 ATM
   from [2]HSDB

   Spectral Properties

     * MAX ABSORPTION: 264 NM
     * Intense mass spectral peaks: 58 m/z, 73 m/z, 165 m/z, 181 m/z

   from [3]HSDB

   Other Chemical/Physical Properties

     * CRYSTALS; MP: 156-157 DEG C; PH OF AQ SOLN ABOUT 5.5
       /HYDROCHLORIDE/
     * BITTER TASTE & PRACTICALLY NO ODOR; WHITE, CRYSTALLINE POWDER; SOL
       IN ACID SOLN /CITRATE/
     * SOL IN WATER, ALCOHOL, CHLOROFORM; SPARINGLY SOL IN ACETONE,
       BENZENE; PRACTICALLY INSOL IN ETHER /HYDROCHLORIDE/
     * SPARINGLY SOL IN WATER, SLIGHTLY SOL IN ETHANOL; INSOL IN
       CHLOROFORM, DIETHYL ETHER & BENZENE; VERY SLIGHTLY SOL IN ACETONE;
       MP: 136 DEC C /CITRATE/

   from [4]HSDB

   Computed Properties
   Molecular Weight                  269.38132 [g/mol]
   Molecular Formula                 C[18]H[23]NO
   XLogP3                            3.8
   H-Bond Donor                      0
   H-Bond Acceptor                   2
   Rotatable Bond Count              6
   Exact Mass                        269.177964
   MonoIsotopic Mass                 269.177964
   Topological Polar Surface Area    12.5
   Heavy Atom Count                  20
   Formal Charge                     0
   Complexity                        260
   Isotope Atom Count                0
   Defined Atom Stereocenter Count   0
   Undefined Atom Stereocenter Count 1
   Defined Bond Stereocenter Count   0
   Undefined Bond Stereocenter Count 0
   Covalently-Bonded Unit Count      1
   Feature 3D Acceptor Count         1
   Feature 3D Cation Count           1
   Feature 3D Ring Count             2
   Effective Rotor Count             6
   Conformer Sampling RMSD           0.8
   CID Conformer Count               [5]42

References

   1. http://toxnet.nlm.nih.gov/cgi-bin/sis/search/r?dbs+hsdb:@term+@rn+@rel+83-98-7
   2. http://toxnet.nlm.nih.gov/cgi-bin/sis/search/r?dbs+hsdb:@term+@rn+@rel+83-98-7
   3. http://toxnet.nlm.nih.gov/cgi-bin/sis/search/r?dbs+hsdb:@term+@rn+@rel+83-98-7
   4. http://toxnet.nlm.nih.gov/cgi-bin/sis/search/r?dbs+hsdb:@term+@rn+@rel+83-98-7
   5. http://pubchem.ncbi.nlm.nih.gov/vw3d/vw3d.cgi?cid=4601
