   Color/Form
        Colorless crystals
   from [1]HSDB

   Melting Point
        96.3 deg C
   from [2]HSDB

   Density/Specific Gravity
        1.15 g/cu cm @ 20 deg C
   from [3]HSDB

   Dissociation Constants
        pKa (conjugate acid)= 3.52
   from [4]HSDB

   Octanol/Water Partition Coefficient
        log Kow= 2.84
   from [5]HSDB

   Solubilities

     * In acetone, 389 g/l @ 20 deg C; ethyl acetate, 617 g/l @ 20 deg C;
       methanol, 176 g/l @ 20 deg C; methylene chloride, 1000 g/l @ 20 deg
       C; n-hexane, 23.7 g/l @ 20 deg C; toluene, 412 g/l @ 20 deg C.
     * In water, 0.121 g/l @ 25 deg C.

   from [6]HSDB

   Vapor Pressure
        1.65X10-5 mm Hg @ 25 deg C
   from [7]HSDB

   Computed Properties
   Molecular Weight                  199.25172 [g/mol]
   Molecular Formula                 C[12]H[13]N[3]
   XLogP3-AA                         2.9
   H-Bond Donor                      1
   H-Bond Acceptor                   3
   Rotatable Bond Count              2
   Tautomer Count                    5
   Exact Mass                        199.110947
   MonoIsotopic Mass                 199.110947
   Topological Polar Surface Area    37.8
   Heavy Atom Count                  15
   Formal Charge                     0
   Complexity                        179
   Isotope Atom Count                0
   Defined Atom Stereocenter Count   0
   Undefined Atom Stereocenter Count 0
   Defined Bond Stereocenter Count   0
   Undefined Bond Stereocenter Count 0
   Covalently-Bonded Unit Count      1
   Feature 3D Acceptor Count         1
   Feature 3D Donor Count            1
   Feature 3D Cation Count           1
   Feature 3D Ring Count             2
   Effective Rotor Count             2
   Conformer Sampling RMSD           0.6
   CID Conformer Count               [8]3

References

   1. http://toxnet.nlm.nih.gov/cgi-bin/sis/search/r?dbs+hsdb:@term+@rn+@rel+53112-28-0
   2. http://toxnet.nlm.nih.gov/cgi-bin/sis/search/r?dbs+hsdb:@term+@rn+@rel+53112-28-0
   3. http://toxnet.nlm.nih.gov/cgi-bin/sis/search/r?dbs+hsdb:@term+@rn+@rel+53112-28-0
   4. http://toxnet.nlm.nih.gov/cgi-bin/sis/search/r?dbs+hsdb:@term+@rn+@rel+53112-28-0
   5. http://toxnet.nlm.nih.gov/cgi-bin/sis/search/r?dbs+hsdb:@term+@rn+@rel+53112-28-0
   6. http://toxnet.nlm.nih.gov/cgi-bin/sis/search/r?dbs+hsdb:@term+@rn+@rel+53112-28-0
   7. http://toxnet.nlm.nih.gov/cgi-bin/sis/search/r?dbs+hsdb:@term+@rn+@rel+53112-28-0
   8. http://pubchem.ncbi.nlm.nih.gov/vw3d/vw3d.cgi?cid=91650
