3414
  -OEChem-06251223242D

  7  6  0     0  0  0  0  0  0999 V2000
    2.8660   -0.3170    0.0000 P   0  0  0  0  0  0  0  0  0  0  0  0
    2.0000   -0.8170    0.0000 O   0  5  0  0  0  0  0  0  0  0  0  0
    2.3660    0.5490    0.0000 O   0  5  0  0  0  0  0  0  0  0  0  0
    3.3660   -1.1830    0.0000 O   0  0  0  0  0  0  0  0  0  0  0  0
    4.5981   -0.3170    0.0000 O   0  5  0  0  0  0  0  0  0  0  0  0
    3.7320    1.1830    0.0000 O   0  0  0  0  0  0  0  0  0  0  0  0
    3.7320    0.1830    0.0000 C   0  0  0  0  0  0  0  0  0  0  0  0
  1  2  1  0  0  0  0
  1  3  1  0  0  0  0
  1  4  2  0  0  0  0
  1  7  1  0  0  0  0
  5  7  1  0  0  0  0
  6  7  2  0  0  0  0
M  CHG  3   2  -1   3  -1   5  -1
M  END
> <PUBCHEM_COMPOUND_CID>
3414

> <PUBCHEM_COMPOUND_CANONICALIZED>
1

> <PUBCHEM_CACTVS_COMPLEXITY>
103

> <PUBCHEM_CACTVS_HBOND_ACCEPTOR>
5

> <PUBCHEM_CACTVS_HBOND_DONOR>
0

> <PUBCHEM_CACTVS_ROTATABLE_BOND>
0

> <PUBCHEM_CACTVS_SUBSKEYS>
AAADcQAAOAIAAAAAAAAAAAAAAAAAAAAAAAAAAAAAAAAAAAAAAAAAAggAACAAAAAAAAAACAAAABAIQAAACIAAAAAAAAAAAAAAAAAAAAAAAAAAAAAAAAAAAAAAAAAAAAAAAAAAAAAAAAAAAAAAAAAAAAAAAA==

> <PUBCHEM_IUPAC_OPENEYE_NAME>
phosphonatoformate

> <PUBCHEM_IUPAC_CAS_NAME>
phosphonatoformate

> <PUBCHEM_IUPAC_NAME>
phosphonatoformate

> <PUBCHEM_IUPAC_SYSTEMATIC_NAME>
phosphonatomethanoate

> <PUBCHEM_IUPAC_TRADITIONAL_NAME>
phosphonatoformate

> <PUBCHEM_IUPAC_INCHI>
InChI=1S/CH3O5P/c2-1(3)7(4,5)6/h(H,2,3)(H2,4,5,6)/p-3

> <PUBCHEM_IUPAC_INCHIKEY>
ZJAOAACCNHFJAH-UHFFFAOYSA-K

> <PUBCHEM_XLOGP3_AA>
-1.3

> <PUBCHEM_EXACT_MASS>
122.948335

> <PUBCHEM_MOLECULAR_FORMULA>
CO5P-3

> <PUBCHEM_MOLECULAR_WEIGHT>
122.981462

> <PUBCHEM_OPENEYE_CAN_SMILES>
C(=O)([O-])P(=O)([O-])[O-]

> <PUBCHEM_OPENEYE_ISO_SMILES>
C(=O)([O-])P(=O)([O-])[O-]

> <PUBCHEM_CACTVS_TPSA>
103

> <PUBCHEM_MONOISOTOPIC_WEIGHT>
122.948335

> <PUBCHEM_TOTAL_CHARGE>
-3

> <PUBCHEM_HEAVY_ATOM_COUNT>
7

> <PUBCHEM_ATOM_DEF_STEREO_COUNT>
0

> <PUBCHEM_ATOM_UDEF_STEREO_COUNT>
0

> <PUBCHEM_BOND_DEF_STEREO_COUNT>
0

> <PUBCHEM_BOND_UDEF_STEREO_COUNT>
0

> <PUBCHEM_ISOTOPIC_ATOM_COUNT>
0

> <PUBCHEM_COMPONENT_COUNT>
1

> <PUBCHEM_CACTVS_TAUTO_COUNT>
1

> <PUBCHEM_COORDINATE_TYPE>
1
5
255

$$$$

