442849
  -OEChem-07051212592D

 25 26  0     0  0  0  0  0  0999 V2000
    3.7320    1.6276    0.0000 O   0  0  0  0  0  0  0  0  0  0  0  0
    2.0000   -1.3724    0.0000 O   0  0  0  0  0  0  0  0  0  0  0  0
    5.8550   -2.1276    0.0000 O   0  0  0  0  0  0  0  0  0  0  0  0
    6.1279   -0.3724    0.0000 N   0  0  0  0  0  0  0  0  0  0  0  0
    4.5981    0.1276    0.0000 C   0  0  0  0  0  0  0  0  0  0  0  0
    4.5981   -0.8724    0.0000 C   0  0  0  0  0  0  0  0  0  0  0  0
    5.5443    0.4324    0.0000 C   0  0  0  0  0  0  0  0  0  0  0  0
    3.7320    0.6276    0.0000 C   0  0  0  0  0  0  0  0  0  0  0  0
    2.8660    0.1276    0.0000 C   0  0  0  0  0  0  0  0  0  0  0  0
    5.5443   -1.1771    0.0000 C   0  0  0  0  0  0  0  0  0  0  0  0
    3.7320   -1.3724    0.0000 C   0  0  0  0  0  0  0  0  0  0  0  0
    2.8660   -0.8724    0.0000 C   0  0  0  0  0  0  0  0  0  0  0  0
    2.0000    0.6276    0.0000 C   0  0  0  0  0  0  0  0  0  0  0  0
    2.8660    2.1276    0.0000 C   0  0  0  0  0  0  0  0  0  0  0  0
    6.0817    0.7416    0.0000 H   0  0  0  0  0  0  0  0  0  0  0  0
    5.2933    0.9993    0.0000 H   0  0  0  0  0  0  0  0  0  0  0  0
    6.7479   -0.3724    0.0000 H   0  0  0  0  0  0  0  0  0  0  0  0
    3.7320   -1.9924    0.0000 H   0  0  0  0  0  0  0  0  0  0  0  0
    2.3100    1.1646    0.0000 H   0  0  0  0  0  0  0  0  0  0  0  0
    1.4631    0.9376    0.0000 H   0  0  0  0  0  0  0  0  0  0  0  0
    1.6900    0.0907    0.0000 H   0  0  0  0  0  0  0  0  0  0  0  0
    2.0000   -1.9924    0.0000 H   0  0  0  0  0  0  0  0  0  0  0  0
    3.1760    2.6646    0.0000 H   0  0  0  0  0  0  0  0  0  0  0  0
    2.3291    2.4376    0.0000 H   0  0  0  0  0  0  0  0  0  0  0  0
    2.5560    1.5907    0.0000 H   0  0  0  0  0  0  0  0  0  0  0  0
  1  8  1  0  0  0  0
  1 14  1  0  0  0  0
  2 12  1  0  0  0  0
  2 22  1  0  0  0  0
  3 10  2  0  0  0  0
  4  7  1  0  0  0  0
  4 10  1  0  0  0  0
  4 17  1  0  0  0  0
  5  6  1  0  0  0  0
  5  7  1  0  0  0  0
  5  8  2  0  0  0  0
  6 10  1  0  0  0  0
  6 11  2  0  0  0  0
  7 15  1  0  0  0  0
  7 16  1  0  0  0  0
  8  9  1  0  0  0  0
  9 12  2  0  0  0  0
  9 13  1  0  0  0  0
 11 12  1  0  0  0  0
 11 18  1  0  0  0  0
 13 19  1  0  0  0  0
 13 20  1  0  0  0  0
 13 21  1  0  0  0  0
 14 23  1  0  0  0  0
 14 24  1  0  0  0  0
 14 25  1  0  0  0  0
M  END
> <PUBCHEM_COMPOUND_CID>
442849

> <PUBCHEM_COMPOUND_CANONICALIZED>
1

> <PUBCHEM_CACTVS_COMPLEXITY>
244

> <PUBCHEM_CACTVS_HBOND_ACCEPTOR>
3

> <PUBCHEM_CACTVS_HBOND_DONOR>
2

> <PUBCHEM_CACTVS_ROTATABLE_BOND>
1

> <PUBCHEM_CACTVS_SUBSKEYS>
AAADccByMAAAAAAAAAAAAAAAAAAAAWAAAAAwAAAAAAAAAFgBAAAAHgAQCAAADATBmAYyBoLABgCIAiFSEACCCAAkIAAAiIEODMgMJzKGtBuEcShnxhWIuYe++P6O4AADCAAYAADAAAYQADAAAAAAAAAAAA==

> <PUBCHEM_IUPAC_OPENEYE_NAME>
6-hydroxy-4-methoxy-5-methyl-isoindolin-1-one

> <PUBCHEM_IUPAC_CAS_NAME>
6-hydroxy-4-methoxy-5-methyl-2,3-dihydroisoindol-1-one

> <PUBCHEM_IUPAC_NAME>
6-hydroxy-4-methoxy-5-methyl-2,3-dihydroisoindol-1-one

> <PUBCHEM_IUPAC_SYSTEMATIC_NAME>
4-methoxy-5-methyl-6-oxidanyl-2,3-dihydroisoindol-1-one

> <PUBCHEM_IUPAC_TRADITIONAL_NAME>
6-hydroxy-4-methoxy-5-methyl-isoindolin-1-one

> <PUBCHEM_IUPAC_INCHI>
InChI=1S/C10H11NO3/c1-5-8(12)3-6-7(9(5)14-2)4-11-10(6)13/h3,12H,4H2,1-2H3,(H,11,13)

> <PUBCHEM_IUPAC_INCHIKEY>
ICZVDXDXJQCDOJ-UHFFFAOYSA-N

> <PUBCHEM_XLOGP3_AA>
0.8

> <PUBCHEM_EXACT_MASS>
193.073893

> <PUBCHEM_MOLECULAR_FORMULA>
C10H11NO3

> <PUBCHEM_MOLECULAR_WEIGHT>
193.19924

> <PUBCHEM_OPENEYE_CAN_SMILES>
CC1=C(C=C2C(=C1OC)CNC2=O)O

> <PUBCHEM_OPENEYE_ISO_SMILES>
CC1=C(C=C2C(=C1OC)CNC2=O)O

> <PUBCHEM_CACTVS_TPSA>
58.6

> <PUBCHEM_MONOISOTOPIC_WEIGHT>
193.073893

> <PUBCHEM_TOTAL_CHARGE>
0

> <PUBCHEM_HEAVY_ATOM_COUNT>
14

> <PUBCHEM_ATOM_DEF_STEREO_COUNT>
0

> <PUBCHEM_ATOM_UDEF_STEREO_COUNT>
0

> <PUBCHEM_BOND_DEF_STEREO_COUNT>
0

> <PUBCHEM_BOND_UDEF_STEREO_COUNT>
0

> <PUBCHEM_ISOTOPIC_ATOM_COUNT>
0

> <PUBCHEM_COMPONENT_COUNT>
1

> <PUBCHEM_CACTVS_TAUTO_COUNT>
12

> <PUBCHEM_COORDINATE_TYPE>
1
5
255

> <PUBCHEM_BONDANNOTATIONS>
11  12  8
5  6  8
5  8  8
6  11  8
8  9  8
9  12  8

$$$$

