6376209
  -OEChem-07051213122D

 48 48  0     1  0  0  0  0  0999 V2000
    5.5981    1.7500    0.0000 O   0  0  0  0  0  0  0  0  0  0  0  0
    3.8660   -1.2500    0.0000 O   0  0  0  0  0  0  0  0  0  0  0  0
    4.7320    3.2500    0.0000 O   0  0  0  0  0  0  0  0  0  0  0  0
    3.0000    3.2500    0.0000 O   0  0  0  0  0  0  0  0  0  0  0  0
    6.4641   -1.7500    0.0000 O   0  0  0  0  0  0  0  0  0  0  0  0
    5.5981   -1.2500    0.0000 N   0  0  0  0  0  0  0  0  0  0  0  0
    3.0000    1.2500    0.0000 C   0  0  0  0  0  0  0  0  0  0  0  0
    3.8660    1.7500    0.0000 C   0  0  3  0  0  0  0  0  0  0  0  0
    3.0000    0.2500    0.0000 C   0  0  0  0  0  0  0  0  0  0  0  0
    4.7320    0.2500    0.0000 C   0  0  3  0  0  0  0  0  0  0  0  0
    4.7320    1.2500    0.0000 C   0  0  0  0  0  0  0  0  0  0  0  0
    3.8660   -0.2500    0.0000 C   0  0  0  0  0  0  0  0  0  0  0  0
    2.0000    1.2500    0.0000 C   0  0  0  0  0  0  0  0  0  0  0  0
    2.5000    2.1160    0.0000 C   0  0  0  0  0  0  0  0  0  0  0  0
    3.8660    2.7500    0.0000 C   0  0  0  0  0  0  0  0  0  0  0  0
    5.5981   -0.2500    0.0000 C   0  0  0  0  0  0  0  0  0  0  0  0
    6.4641    0.2500    0.0000 C   0  0  0  0  0  0  0  0  0  0  0  0
    7.3301   -0.2500    0.0000 C   0  0  0  0  0  0  0  0  0  0  0  0
    8.1962    0.2500    0.0000 C   0  0  0  0  0  0  0  0  0  0  0  0
    4.7320    4.2500    0.0000 C   0  0  0  0  0  0  0  0  0  0  0  0
    6.4641   -2.7500    0.0000 C   0  0  0  0  0  0  0  0  0  0  0  0
    7.3301   -3.2500    0.0000 C   0  0  0  0  0  0  0  0  0  0  0  0
    7.3301   -4.2500    0.0000 C   0  0  0  0  0  0  0  0  0  0  0  0
    4.4030    2.0600    0.0000 H   0  0  0  0  0  0  0  0  0  0  0  0
    2.3894    0.3577    0.0000 H   0  0  0  0  0  0  0  0  0  0  0  0
    2.7880   -0.3326    0.0000 H   0  0  0  0  0  0  0  0  0  0  0  0
    4.7320   -0.3700    0.0000 H   0  0  0  0  0  0  0  0  0  0  0  0
    3.0369    2.4260    0.0000 H   0  0  0  0  0  0  0  0  0  0  0  0
    2.1900    2.6530    0.0000 H   0  0  0  0  0  0  0  0  0  0  0  0
    1.9631    1.8060    0.0000 H   0  0  0  0  0  0  0  0  0  0  0  0
    2.0000    1.8700    0.0000 H   0  0  0  0  0  0  0  0  0  0  0  0
    1.3800    1.2500    0.0000 H   0  0  0  0  0  0  0  0  0  0  0  0
    2.0000    0.6300    0.0000 H   0  0  0  0  0  0  0  0  0  0  0  0
    6.8626    0.7249    0.0000 H   0  0  0  0  0  0  0  0  0  0  0  0
    6.0656    0.7249    0.0000 H   0  0  0  0  0  0  0  0  0  0  0  0
    6.9316   -0.7249    0.0000 H   0  0  0  0  0  0  0  0  0  0  0  0
    7.7287   -0.7249    0.0000 H   0  0  0  0  0  0  0  0  0  0  0  0
    8.5062   -0.2869    0.0000 H   0  0  0  0  0  0  0  0  0  0  0  0
    8.7331    0.5600    0.0000 H   0  0  0  0  0  0  0  0  0  0  0  0
    7.8862    0.7869    0.0000 H   0  0  0  0  0  0  0  0  0  0  0  0
    5.3520    4.2500    0.0000 H   0  0  0  0  0  0  0  0  0  0  0  0
    4.7320    4.8700    0.0000 H   0  0  0  0  0  0  0  0  0  0  0  0
    4.1120    4.2500    0.0000 H   0  0  0  0  0  0  0  0  0  0  0  0
    5.8535   -2.6423    0.0000 H   0  0  0  0  0  0  0  0  0  0  0  0
    6.2520   -3.3326    0.0000 H   0  0  0  0  0  0  0  0  0  0  0  0
    7.8671   -2.9400    0.0000 H   0  0  0  0  0  0  0  0  0  0  0  0
    6.7932   -4.5600    0.0000 H   0  0  0  0  0  0  0  0  0  0  0  0
    7.8671   -4.5600    0.0000 H   0  0  0  0  0  0  0  0  0  0  0  0
  1 11  2  0  0  0  0
  2 12  2  0  0  0  0
  3 15  1  0  0  0  0
  3 20  1  0  0  0  0
  4 15  2  0  0  0  0
  5  6  1  0  0  0  0
  5 21  1  0  0  0  0
  6 16  2  0  0  0  0
  7  8  1  0  0  0  0
  7  9  1  0  0  0  0
  7 13  1  0  0  0  0
  7 14  1  0  0  0  0
  8 11  1  0  0  0  0
  8 15  1  0  0  0  0
  8 24  1  0  0  0  0
  9 12  1  0  0  0  0
  9 25  1  0  0  0  0
  9 26  1  0  0  0  0
 10 11  1  0  0  0  0
 10 12  1  0  0  0  0
 10 16  1  0  0  0  0
 10 27  1  0  0  0  0
 13 31  1  0  0  0  0
 13 32  1  0  0  0  0
 13 33  1  0  0  0  0
 14 28  1  0  0  0  0
 14 29  1  0  0  0  0
 14 30  1  0  0  0  0
 16 17  1  0  0  0  0
 17 18  1  0  0  0  0
 17 34  1  0  0  0  0
 17 35  1  0  0  0  0
 18 19  1  0  0  0  0
 18 36  1  0  0  0  0
 18 37  1  0  0  0  0
 19 38  1  0  0  0  0
 19 39  1  0  0  0  0
 19 40  1  0  0  0  0
 20 41  1  0  0  0  0
 20 42  1  0  0  0  0
 20 43  1  0  0  0  0
 21 22  1  0  0  0  0
 21 44  1  0  0  0  0
 21 45  1  0  0  0  0
 22 23  2  0  0  0  0
 22 46  1  0  0  0  0
 23 47  1  0  0  0  0
 23 48  1  0  0  0  0
M  END
> <PUBCHEM_COMPOUND_CID>
6376209

> <PUBCHEM_COMPOUND_CANONICALIZED>
1

> <PUBCHEM_CACTVS_COMPLEXITY>
521

> <PUBCHEM_CACTVS_HBOND_ACCEPTOR>
6

> <PUBCHEM_CACTVS_HBOND_DONOR>
0

> <PUBCHEM_CACTVS_ROTATABLE_BOND>
8

> <PUBCHEM_CACTVS_SUBSKEYS>
AAADceB6OAAAAAAAAAAAAAAAAAAAAAAAAAAwAAAAAAAAAAAAAAAAHgAEAAAADwyhgAICCAAQBACoAaDyCAAAAAAAAAAIAAEwAAAABBYIAQAAAAAEIAAAAAGIzuCvgAAAAAAAAACAAAQAACAAAAAAAAAAAA==

> <PUBCHEM_IUPAC_OPENEYE_NAME>
methyl 5-[(E)-N-allyloxy-C-propyl-carbonimidoyl]-2,2-dimethyl-4,6-dioxo-cyclohexanecarboxylate

> <PUBCHEM_IUPAC_CAS_NAME>
2,2-dimethyl-4,6-dioxo-5-[(1E)-1-prop-2-enoxyiminobutyl]-1-cyclohexanecarboxylic acid methyl ester

> <PUBCHEM_IUPAC_NAME>
methyl 2,2-dimethyl-4,6-dioxo-5-[(E)-N-prop-2-enoxy-C-propylcarbonimidoyl]cyclohexane-1-carboxylate

> <PUBCHEM_IUPAC_SYSTEMATIC_NAME>
methyl 2,2-dimethyl-4,6-bis(oxidanylidene)-5-[(E)-N-prop-2-enoxy-C-propyl-carbonimidoyl]cyclohexane-1-carboxylate

> <PUBCHEM_IUPAC_TRADITIONAL_NAME>
5-[(E)-N-allyloxy-C-propyl-carbonimidoyl]-4,6-diketo-2,2-dimethyl-cyclohexanecarboxylic acid methyl ester

> <PUBCHEM_IUPAC_INCHI>
InChI=1S/C17H25NO5/c1-6-8-11(18-23-9-7-2)13-12(19)10-17(3,4)14(15(13)20)16(21)22-5/h7,13-14H,2,6,8-10H2,1,3-5H3/b18-11+

> <PUBCHEM_IUPAC_INCHIKEY>
MSNWHIVXIUIVPC-WOJGMQOQSA-N

> <PUBCHEM_XLOGP3_AA>
2.9

> <PUBCHEM_EXACT_MASS>
323.173273

> <PUBCHEM_MOLECULAR_FORMULA>
C17H25NO5

> <PUBCHEM_MOLECULAR_WEIGHT>
323.3841

> <PUBCHEM_OPENEYE_CAN_SMILES>
CCCC(=NOCC=C)C1C(=O)CC(C(C1=O)C(=O)OC)(C)C

> <PUBCHEM_OPENEYE_ISO_SMILES>
CCC/C(=N\OCC=C)/C1C(=O)CC(C(C1=O)C(=O)OC)(C)C

> <PUBCHEM_CACTVS_TPSA>
82

> <PUBCHEM_MONOISOTOPIC_WEIGHT>
323.173273

> <PUBCHEM_TOTAL_CHARGE>
0

> <PUBCHEM_HEAVY_ATOM_COUNT>
23

> <PUBCHEM_ATOM_DEF_STEREO_COUNT>
0

> <PUBCHEM_ATOM_UDEF_STEREO_COUNT>
2

> <PUBCHEM_BOND_DEF_STEREO_COUNT>
1

> <PUBCHEM_BOND_UDEF_STEREO_COUNT>
0

> <PUBCHEM_ISOTOPIC_ATOM_COUNT>
0

> <PUBCHEM_COMPONENT_COUNT>
1

> <PUBCHEM_CACTVS_TAUTO_COUNT>
32

> <PUBCHEM_COORDINATE_TYPE>
1
5
255

> <PUBCHEM_BONDANNOTATIONS>
10  16  3
8  15  3

$$$$

