443039
  -OEChem-07051213002D

 30 32  0     0  0  0  0  0  0999 V2000
    8.9030    1.8986    0.0000 Br  0  0  0  0  0  0  0  0  0  0  0  0
    5.2619   -0.6815    0.0000 O   0  0  0  0  0  0  0  0  0  0  0  0
    4.9889   -2.4367    0.0000 O   0  0  0  0  0  0  0  0  0  0  0  0
    4.9889    1.0738    0.0000 N   0  0  0  0  0  0  0  0  0  0  0  0
    2.0000   -0.1815    0.0000 C   0  0  0  0  0  0  0  0  0  0  0  0
    2.0000   -1.1815    0.0000 C   0  0  0  0  0  0  0  0  0  0  0  0
    2.8660    0.3185    0.0000 C   0  0  0  0  0  0  0  0  0  0  0  0
    2.8660   -1.6815    0.0000 C   0  0  0  0  0  0  0  0  0  0  0  0
    3.7320   -0.1815    0.0000 C   0  0  0  0  0  0  0  0  0  0  0  0
    3.7320   -1.1815    0.0000 C   0  0  0  0  0  0  0  0  0  0  0  0
    4.6783    0.1233    0.0000 C   0  0  0  0  0  0  0  0  0  0  0  0
    4.6783   -1.4862    0.0000 C   0  0  0  0  0  0  0  0  0  0  0  0
    5.9674    1.2800    0.0000 C   0  0  0  0  0  0  0  0  0  0  0  0
    6.6353    0.5357    0.0000 C   0  0  0  0  0  0  0  0  0  0  0  0
    6.2781    2.2305    0.0000 C   0  0  0  0  0  0  0  0  0  0  0  0
    7.6138    0.7419    0.0000 C   0  0  0  0  0  0  0  0  0  0  0  0
    7.2566    2.4367    0.0000 C   0  0  0  0  0  0  0  0  0  0  0  0
    7.9244    1.6924    0.0000 C   0  0  0  0  0  0  0  0  0  0  0  0
    1.7880    0.4011    0.0000 H   0  0  0  0  0  0  0  0  0  0  0  0
    1.3894   -0.2891    0.0000 H   0  0  0  0  0  0  0  0  0  0  0  0
    1.3894   -1.0738    0.0000 H   0  0  0  0  0  0  0  0  0  0  0  0
    1.7880   -1.7641    0.0000 H   0  0  0  0  0  0  0  0  0  0  0  0
    3.2646    0.7935    0.0000 H   0  0  0  0  0  0  0  0  0  0  0  0
    2.4675    0.7935    0.0000 H   0  0  0  0  0  0  0  0  0  0  0  0
    2.4675   -2.1564    0.0000 H   0  0  0  0  0  0  0  0  0  0  0  0
    3.2646   -2.1564    0.0000 H   0  0  0  0  0  0  0  0  0  0  0  0
    6.4427   -0.0536    0.0000 H   0  0  0  0  0  0  0  0  0  0  0  0
    5.8640    2.6920    0.0000 H   0  0  0  0  0  0  0  0  0  0  0  0
    8.0279    0.2804    0.0000 H   0  0  0  0  0  0  0  0  0  0  0  0
    7.4492    3.0260    0.0000 H   0  0  0  0  0  0  0  0  0  0  0  0
  1 18  1  0  0  0  0
  2 11  1  0  0  0  0
  2 12  1  0  0  0  0
  3 12  2  0  0  0  0
  4 11  2  0  0  0  0
  4 13  1  0  0  0  0
  5  6  1  0  0  0  0
  5  7  1  0  0  0  0
  5 19  1  0  0  0  0
  5 20  1  0  0  0  0
  6  8  1  0  0  0  0
  6 21  1  0  0  0  0
  6 22  1  0  0  0  0
  7  9  1  0  0  0  0
  7 23  1  0  0  0  0
  7 24  1  0  0  0  0
  8 10  1  0  0  0  0
  8 25  1  0  0  0  0
  8 26  1  0  0  0  0
  9 10  2  0  0  0  0
  9 11  1  0  0  0  0
 10 12  1  0  0  0  0
 13 14  2  0  0  0  0
 13 15  1  0  0  0  0
 14 16  1  0  0  0  0
 14 27  1  0  0  0  0
 15 17  2  0  0  0  0
 15 28  1  0  0  0  0
 16 18  2  0  0  0  0
 16 29  1  0  0  0  0
 17 18  1  0  0  0  0
 17 30  1  0  0  0  0
M  END
> <PUBCHEM_COMPOUND_CID>
443039

> <PUBCHEM_COMPOUND_CANONICALIZED>
1

> <PUBCHEM_CACTVS_COMPLEXITY>
420

> <PUBCHEM_CACTVS_HBOND_ACCEPTOR>
3

> <PUBCHEM_CACTVS_HBOND_DONOR>
0

> <PUBCHEM_CACTVS_ROTATABLE_BOND>
1

> <PUBCHEM_CACTVS_SUBSKEYS>
AAADccByMAAAEAAAAAAAAAAAAAAAAQAAAAAwQAAAAAAAAEgBAAAAHgBAAAABrAiBkAAwyIIABACoAiTyTACCAAAgAgQIiAEgZPgIJDKAsZGCMABkgAAI6xeYyKCAAAAgAAAAAAAAAEAAAAAAAAAAAAAAAA==

> <PUBCHEM_IUPAC_OPENEYE_NAME>
3-(4-bromophenyl)imino-4,5,6,7-tetrahydroisobenzofuran-1-one

> <PUBCHEM_IUPAC_CAS_NAME>
3-(4-bromophenyl)imino-4,5,6,7-tetrahydroisobenzofuran-1-one

> <PUBCHEM_IUPAC_NAME>
3-(4-bromophenyl)imino-4,5,6,7-tetrahydro-2-benzofuran-1-one

> <PUBCHEM_IUPAC_SYSTEMATIC_NAME>
3-(4-bromophenyl)imino-4,5,6,7-tetrahydro-2-benzofuran-1-one

> <PUBCHEM_IUPAC_TRADITIONAL_NAME>
3-(4-bromophenyl)imino-4,5,6,7-tetrahydroisobenzofuran-1-one

> <PUBCHEM_IUPAC_INCHI>
InChI=1S/C14H12BrNO2/c15-9-5-7-10(8-6-9)16-13-11-3-1-2-4-12(11)14(17)18-13/h5-8H,1-4H2

> <PUBCHEM_IUPAC_INCHIKEY>
VZUHQRBBQSLSHS-UHFFFAOYSA-N

> <PUBCHEM_XLOGP3_AA>
3.8

> <PUBCHEM_EXACT_MASS>
305.005141

> <PUBCHEM_MOLECULAR_FORMULA>
C14H12BrNO2

> <PUBCHEM_MOLECULAR_WEIGHT>
306.15458

> <PUBCHEM_OPENEYE_CAN_SMILES>
C1CCC2=C(C1)C(=NC3=CC=C(C=C3)Br)OC2=O

> <PUBCHEM_OPENEYE_ISO_SMILES>
C1CCC2=C(C1)C(=NC3=CC=C(C=C3)Br)OC2=O

> <PUBCHEM_CACTVS_TPSA>
38.7

> <PUBCHEM_MONOISOTOPIC_WEIGHT>
305.005141

> <PUBCHEM_TOTAL_CHARGE>
0

> <PUBCHEM_HEAVY_ATOM_COUNT>
18

> <PUBCHEM_ATOM_DEF_STEREO_COUNT>
0

> <PUBCHEM_ATOM_UDEF_STEREO_COUNT>
0

> <PUBCHEM_BOND_DEF_STEREO_COUNT>
0

> <PUBCHEM_BOND_UDEF_STEREO_COUNT>
0

> <PUBCHEM_ISOTOPIC_ATOM_COUNT>
0

> <PUBCHEM_COMPONENT_COUNT>
1

> <PUBCHEM_CACTVS_TAUTO_COUNT>
1

> <PUBCHEM_COORDINATE_TYPE>
1
5
255

> <PUBCHEM_BONDANNOTATIONS>
13  14  8
13  15  8
14  16  8
15  17  8
16  18  8
17  18  8

$$$$

