46173797
  -OEChem-07051213032D

 91 93  0     1  0  0  0  0  0999 V2000
    2.8323   -4.2007    0.0000 O   0  0  0  0  0  0  0  0  0  0  0  0
    2.7622   -1.1523    0.0000 O   0  0  0  0  0  0  0  0  0  0  0  0
    4.0520   -2.5468    0.0000 O   0  0  0  0  0  0  0  0  0  0  0  0
    4.2080   -0.0703    0.0000 O   0  0  0  0  0  0  0  0  0  0  0  0
    6.9058   -4.1490    0.0000 O   0  0  0  0  0  0  0  0  0  0  0  0
    5.8997   -0.0807    0.0000 O   0  0  0  0  0  0  0  0  0  0  0  0
    8.6554   -1.2319    0.0000 O   0  0  0  0  0  0  0  0  0  0  0  0
    6.0452    1.3373    0.0000 O   0  0  0  0  0  0  0  0  0  0  0  0
    9.5093    3.3373    0.0000 O   0  0  0  0  0  0  0  0  0  0  0  0
    5.1819    3.8510    0.0000 O   0  0  0  0  0  0  0  0  0  0  0  0
    6.9139    3.8419    0.0000 N   0  0  0  0  0  0  0  0  0  0  0  0
    3.0477   -2.6287    0.0000 C   0  0  1  0  0  0  0  0  0  0  0  0
    3.5432   -3.4973    0.0000 C   0  0  1  0  0  0  0  0  0  0  0  0
    3.5523   -1.7653    0.0000 C   0  0  1  0  0  0  0  0  0  0  0  0
    4.5432   -3.5026    0.0000 C   0  0  1  0  0  0  0  0  0  0  0  0
    4.5196   -1.5116    0.0000 C   0  0  1  0  0  0  0  0  0  0  0  0
    5.0477   -2.6392    0.0000 C   0  0  2  0  0  0  0  0  0  0  0  0
    5.0242   -0.6482    0.0000 C   0  0  2  0  0  0  0  0  0  0  0  0
    2.0832   -2.3647    0.0000 C   0  0  0  0  0  0  0  0  0  0  0  0
    6.0477   -2.6445    0.0000 C   0  0  1  0  0  0  0  0  0  0  0  0
    5.2465   -4.2134    0.0000 C   0  0  0  0  0  0  0  0  0  0  0  0
    6.0241   -0.6535    0.0000 C   0  0  1  0  0  0  0  0  0  0  0  0
    5.4042   -1.9780    0.0000 C   0  0  0  0  0  0  0  0  0  0  0  0
    6.9111   -3.1491    0.0000 C   0  0  0  0  0  0  0  0  0  0  0  0
    6.0530   -1.6445    0.0000 C   0  0  0  0  0  0  0  0  0  0  0  0
    6.5939   -1.6524    0.0000 C   0  0  0  0  0  0  0  0  0  0  0  0
    6.0294    0.3465    0.0000 C   0  0  0  0  0  0  0  0  0  0  0  0
    6.9216   -1.1491    0.0000 C   0  0  0  0  0  0  0  0  0  0  0  0
    5.1660    0.8511    0.0000 C   0  0  0  0  0  0  0  0  0  0  0  0
    6.8926   -0.1996    0.0000 C   0  0  0  0  0  0  0  0  0  0  0  0
    7.8140   -1.6004    0.0000 C   0  0  0  0  0  0  0  0  0  0  0  0
    7.7612    0.2958    0.0000 C   0  0  0  0  0  0  0  0  0  0  0  0
    5.1713    1.8511    0.0000 C   0  0  0  0  0  0  0  0  0  0  0  0
    7.7773    1.3373    0.0000 C   0  0  0  0  0  0  0  0  0  0  0  0
    8.6593   -0.2319    0.0000 C   0  0  0  0  0  0  0  0  0  0  0  0
    6.0400    2.3465    0.0000 C   0  0  0  0  0  0  0  0  0  0  0  0
    8.6433    1.8373    0.0000 C   0  0  0  0  0  0  0  0  0  0  0  0
    9.5613    0.2889    0.0000 C   0  0  0  0  0  0  0  0  0  0  0  0
    6.9113    1.8373    0.0000 C   0  0  0  0  0  0  0  0  0  0  0  0
    9.5533    1.3305    0.0000 C   0  0  0  0  0  0  0  0  0  0  0  0
    8.6433    2.8373    0.0000 C   0  0  0  0  0  0  0  0  0  0  0  0
    7.7773    3.3373    0.0000 C   0  0  0  0  0  0  0  0  0  0  0  0
    6.0453    3.3465    0.0000 C   0  0  0  0  0  0  0  0  0  0  0  0
    6.5580    2.0437    0.0000 C   0  0  0  0  0  0  0  0  0  0  0  0
    6.9113    2.8373    0.0000 C   0  0  0  0  0  0  0  0  0  0  0  0
   10.4293   -0.2078    0.0000 C   0  0  0  0  0  0  0  0  0  0  0  0
    2.5380   -2.9816    0.0000 H   0  0  0  0  0  0  0  0  0  0  0  0
    3.5939   -4.1152    0.0000 H   0  0  0  0  0  0  0  0  0  0  0  0
    3.4213   -1.1593    0.0000 H   0  0  0  0  0  0  0  0  0  0  0  0
    4.4858   -4.1199    0.0000 H   0  0  0  0  0  0  0  0  0  0  0  0
    4.0602   -1.9280    0.0000 H   0  0  0  0  0  0  0  0  0  0  0  0
    4.6948   -2.1295    0.0000 H   0  0  0  0  0  0  0  0  0  0  0  0
    4.8668   -0.0485    0.0000 H   0  0  0  0  0  0  0  0  0  0  0  0
    1.9196   -2.9628    0.0000 H   0  0  0  0  0  0  0  0  0  0  0  0
    1.4852   -2.2011    0.0000 H   0  0  0  0  0  0  0  0  0  0  0  0
    2.2468   -1.7667    0.0000 H   0  0  0  0  0  0  0  0  0  0  0  0
    6.0444   -3.2645    0.0000 H   0  0  0  0  0  0  0  0  0  0  0  0
    5.6872   -3.7773    0.0000 H   0  0  0  0  0  0  0  0  0  0  0  0
    5.6826   -4.6541    0.0000 H   0  0  0  0  0  0  0  0  0  0  0  0
    4.8058   -4.6495    0.0000 H   0  0  0  0  0  0  0  0  0  0  0  0
    6.6441   -0.6567    0.0000 H   0  0  0  0  0  0  0  0  0  0  0  0
    5.6933   -1.4296    0.0000 H   0  0  0  0  0  0  0  0  0  0  0  0
    5.9526   -2.2672    0.0000 H   0  0  0  0  0  0  0  0  0  0  0  0
    5.1150   -2.5264    0.0000 H   0  0  0  0  0  0  0  0  0  0  0  0
    2.2343   -4.0370    0.0000 H   0  0  0  0  0  0  0  0  0  0  0  0
    2.1881   -1.3866    0.0000 H   0  0  0  0  0  0  0  0  0  0  0  0
    7.1262   -2.5676    0.0000 H   0  0  0  0  0  0  0  0  0  0  0  0
    7.5211   -3.2600    0.0000 H   0  0  0  0  0  0  0  0  0  0  0  0
    5.5177   -1.3317    0.0000 H   0  0  0  0  0  0  0  0  0  0  0  0
    7.1324   -1.3453    0.0000 H   0  0  0  0  0  0  0  0  0  0  0  0
    6.9010   -2.1910    0.0000 H   0  0  0  0  0  0  0  0  0  0  0  0
    6.0553   -1.9596    0.0000 H   0  0  0  0  0  0  0  0  0  0  0  0
    3.9946   -3.1641    0.0000 H   0  0  0  0  0  0  0  0  0  0  0  0
    3.6448   -0.3294    0.0000 H   0  0  0  0  0  0  0  0  0  0  0  0
    6.5680    0.6537    0.0000 H   0  0  0  0  0  0  0  0  0  0  0  0
    4.6275    0.5439    0.0000 H   0  0  0  0  0  0  0  0  0  0  0  0
    7.4411   -4.4619    0.0000 H   0  0  0  0  0  0  0  0  0  0  0  0
    8.0938   -1.0472    0.0000 H   0  0  0  0  0  0  0  0  0  0  0  0
    8.3672   -1.8803    0.0000 H   0  0  0  0  0  0  0  0  0  0  0  0
    7.5341   -2.1537    0.0000 H   0  0  0  0  0  0  0  0  0  0  0  0
    4.6360    2.1639    0.0000 H   0  0  0  0  0  0  0  0  0  0  0  0
   10.0866    1.6467    0.0000 H   0  0  0  0  0  0  0  0  0  0  0  0
    6.8708    2.5790    0.0000 H   0  0  0  0  0  0  0  0  0  0  0  0
    7.0933    1.7309    0.0000 H   0  0  0  0  0  0  0  0  0  0  0  0
    6.2452    1.5084    0.0000 H   0  0  0  0  0  0  0  0  0  0  0  0
    6.3743    3.1473    0.0000 H   0  0  0  0  0  0  0  0  0  0  0  0
    6.9172    4.4619    0.0000 H   0  0  0  0  0  0  0  0  0  0  0  0
   10.7372    0.3303    0.0000 H   0  0  0  0  0  0  0  0  0  0  0  0
   10.9674   -0.5157    0.0000 H   0  0  0  0  0  0  0  0  0  0  0  0
   10.1214   -0.7459    0.0000 H   0  0  0  0  0  0  0  0  0  0  0  0
    9.1912   -1.5440    0.0000 H   0  0  0  0  0  0  0  0  0  0  0  0
 13  1  1  1  0  0  0
  1 65  1  0  0  0  0
 14  2  1  6  0  0  0
  2 66  1  0  0  0  0
 17  3  1  1  0  0  0
  3 73  1  0  0  0  0
 18  4  1  1  0  0  0
  4 74  1  0  0  0  0
  5 24  1  0  0  0  0
  5 77  1  0  0  0  0
  6 30  2  0  0  0  0
  7 35  1  0  0  0  0
  7 91  1  0  0  0  0
  8 39  2  0  0  0  0
  9 41  2  0  0  0  0
 10 43  2  0  0  0  0
 11 42  1  0  0  0  0
 11 43  1  0  0  0  0
 11 87  1  0  0  0  0
 12 13  1  0  0  0  0
 12 14  1  0  0  0  0
 12 19  1  6  0  0  0
 12 47  1  0  0  0  0
 13 15  1  0  0  0  0
 13 48  1  0  0  0  0
 14 16  1  0  0  0  0
 14 49  1  0  0  0  0
 15 17  1  0  0  0  0
 15 21  1  1  0  0  0
 15 50  1  0  0  0  0
 16 18  1  0  0  0  0
 16 23  1  1  0  0  0
 16 51  1  0  0  0  0
 17 20  1  0  0  0  0
 17 52  1  0  0  0  0
 18 22  1  0  0  0  0
 18 53  1  0  0  0  0
 19 54  1  0  0  0  0
 19 55  1  0  0  0  0
 19 56  1  0  0  0  0
 20 24  1  6  0  0  0
 20 25  1  0  0  0  0
 20 57  1  0  0  0  0
 21 58  1  0  0  0  0
 21 59  1  0  0  0  0
 21 60  1  0  0  0  0
 22 26  1  6  0  0  0
 22 27  1  0  0  0  0
 22 61  1  0  0  0  0
 23 62  1  0  0  0  0
 23 63  1  0  0  0  0
 23 64  1  0  0  0  0
 24 67  1  0  0  0  0
 24 68  1  0  0  0  0
 25 28  2  0  0  0  0
 25 69  1  0  0  0  0
 26 70  1  0  0  0  0
 26 71  1  0  0  0  0
 26 72  1  0  0  0  0
 27 29  2  0  0  0  0
 27 75  1  0  0  0  0
 28 30  1  0  0  0  0
 28 31  1  0  0  0  0
 29 33  1  0  0  0  0
 29 76  1  0  0  0  0
 30 32  1  0  0  0  0
 31 78  1  0  0  0  0
 31 79  1  0  0  0  0
 31 80  1  0  0  0  0
 32 34  1  0  0  0  0
 32 35  2  0  0  0  0
 33 36  2  0  0  0  0
 33 81  1  0  0  0  0
 34 37  2  0  0  0  0
 34 39  1  0  0  0  0
 35 38  1  0  0  0  0
 36 43  1  0  0  0  0
 36 44  1  0  0  0  0
 37 40  1  0  0  0  0
 37 41  1  0  0  0  0
 38 40  2  0  0  0  0
 38 46  1  0  0  0  0
 39 45  1  0  0  0  0
 40 82  1  0  0  0  0
 41 42  1  0  0  0  0
 42 45  2  0  0  0  0
 44 83  1  0  0  0  0
 44 84  1  0  0  0  0
 44 85  1  0  0  0  0
 45 86  1  0  0  0  0
 46 88  1  0  0  0  0
 46 89  1  0  0  0  0
 46 90  1  0  0  0  0
M  END
> <PUBCHEM_COMPOUND_CID>
46173797

> <PUBCHEM_COMPOUND_CANONICALIZED>
1

> <PUBCHEM_CACTVS_COMPLEXITY>
1300

> <PUBCHEM_CACTVS_HBOND_ACCEPTOR>
10

> <PUBCHEM_CACTVS_HBOND_DONOR>
7

> <PUBCHEM_CACTVS_ROTATABLE_BOND>
1

> <PUBCHEM_CACTVS_SUBSKEYS>
AAADcfB+PAAAAAAAAAAAAAAAAAAAAAAAAAAwQAAAAAAAAAABAAAAHgAQCAAADRyhmAIyBoLAAgCIAqVSUACCAAAkIgAIiAGECMgINjaClTOEcUAl5BGImceb7/Tu4AADAAAYAADAAAYAADAAAAAAAAAAAA==

> <PUBCHEM_IUPAC_INCHI>
InChI=1S/C35H45NO10/c1-15-9-8-10-16(2)35(46)36-24-13-25(38)26-23(34(24)45)12-18(4)30(41)27(26)29(40)17(3)11-22(14-37)33(44)21(7)32(43)20(6)31(42)19(5)28(15)39/h8-13,15,19-22,28,31-33,37,39,41-44H,14H2,1-7H3,(H,36,46)/b9-8+,16-10-,17-11+/t15-,19+,20+,21-,22+,28-,31+,32-,33+/m0/s1

> <PUBCHEM_IUPAC_INCHIKEY>
DWSNNJANRGBGNU-SMGNAMCTSA-N

> <PUBCHEM_XLOGP3_AA>
3.4

> <PUBCHEM_EXACT_MASS>
639.304347

> <PUBCHEM_MOLECULAR_FORMULA>
C35H45NO10

> <PUBCHEM_MOLECULAR_WEIGHT>
639.7325

> <PUBCHEM_OPENEYE_CAN_SMILES>
CC1C=CC=C(C(=O)NC2=CC(=O)C3=C(C(=C(C=C3C2=O)C)O)C(=O)C(=CC(C(C(C(C(C(C(C1O)C)O)C)O)C)O)CO)C)C

> <PUBCHEM_OPENEYE_ISO_SMILES>
C[C@H]1/C=C/C=C(\C(=O)NC2=CC(=O)C3=C(C(=C(C=C3C2=O)C)O)C(=O)/C(=C/[C@@H]([C@@H]([C@H]([C@H]([C@@H]([C@@H]([C@@H]([C@H]1O)C)O)C)O)C)O)CO)/C)/C

> <PUBCHEM_CACTVS_TPSA>
202

> <PUBCHEM_MONOISOTOPIC_WEIGHT>
639.304347

> <PUBCHEM_TOTAL_CHARGE>
0

> <PUBCHEM_HEAVY_ATOM_COUNT>
46

> <PUBCHEM_ATOM_DEF_STEREO_COUNT>
9

> <PUBCHEM_ATOM_UDEF_STEREO_COUNT>
0

> <PUBCHEM_BOND_DEF_STEREO_COUNT>
3

> <PUBCHEM_BOND_UDEF_STEREO_COUNT>
0

> <PUBCHEM_ISOTOPIC_ATOM_COUNT>
0

> <PUBCHEM_COMPONENT_COUNT>
1

> <PUBCHEM_CACTVS_TAUTO_COUNT>
1000

> <PUBCHEM_COORDINATE_TYPE>
1
5
255

> <PUBCHEM_BONDANNOTATIONS>
13  1  5
12  19  6
15  21  5
16  23  5
14  2  6
20  24  6
22  26  6
17  3  5
32  34  8
32  35  8
34  37  8
35  38  8
37  40  8
38  40  8
18  4  5

$$$$

