   Melting Point
        40-65 deg C (freeze dried)
   from [1]HSDB

   Solubilities

     * Soluble in dimethyl sulphoxide and N,N-dimethylformamide, but
       addition of water causes precipitation; soluble in benzene,
       chloroform, ethyl acetate, and 2-methoxyethanol.
     * Insoluble in water

   from [2]HSDB

   Spectral Properties
        lamda max = 261 nm (in ethanol)
   from [3]HSDB

   Computed Properties
   Molecular Weight                  788.6694 [g/mol]
   Molecular Formula                 C[42]H[50]Cl[4]N[2]O[4]
   XLogP3                            9.2
   H-Bond Donor                      0
   H-Bond Acceptor                   6
   Rotatable Bond Count              18
   Exact Mass                        788.249519
   MonoIsotopic Mass                 786.252469
   Topological Polar Surface Area    59.1
   Heavy Atom Count                  52
   Formal Charge                     0
   Complexity                        1120
   Isotope Atom Count                0
   Defined Atom Stereocenter Count   5
   Undefined Atom Stereocenter Count 0
   Defined Bond Stereocenter Count   0
   Undefined Bond Stereocenter Count 0
   Covalently-Bonded Unit Count      1

References

   1. http://toxnet.nlm.nih.gov/cgi-bin/sis/search/r?dbs+hsdb:@term+@rn+@rel+22966-79-6
   2. http://toxnet.nlm.nih.gov/cgi-bin/sis/search/r?dbs+hsdb:@term+@rn+@rel+22966-79-6
   3. http://toxnet.nlm.nih.gov/cgi-bin/sis/search/r?dbs+hsdb:@term+@rn+@rel+22966-79-6
