30465
  -OEChem-07051213032D

 15 13  0     1  0  0  0  0  0999 V2000
    2.0000   -0.7078    0.0000 Ca  0  2  0  0  0  0  0  0  0  0  0  0
    2.7818   -1.3313    0.0000 O   0  5  0  0  0  0  0  0  0  0  0  0
    4.3802   -1.8906    0.0000 O   0  0  0  0  0  0  0  0  0  0  0  0
    2.0000    0.2922    0.0000 O   0  5  0  0  0  0  0  0  0  0  0  0
    2.5593    1.8906    0.0000 O   0  0  0  0  0  0  0  0  0  0  0  0
    5.1906   -0.2078    0.0000 N   0  0  0  0  0  0  0  0  0  0  0  0
    4.1906   -0.2078    0.0000 C   0  0  1  0  0  0  0  0  0  0  0  0
    3.7568    0.6932    0.0000 C   0  0  0  0  0  0  0  0  0  0  0  0
    3.7568   -1.1088    0.0000 C   0  0  0  0  0  0  0  0  0  0  0  0
    2.7818    0.9157    0.0000 C   0  0  0  0  0  0  0  0  0  0  0  0
    4.5205   -0.7328    0.0000 H   0  0  0  0  0  0  0  0  0  0  0  0
    4.3612    0.8311    0.0000 H   0  0  0  0  0  0  0  0  0  0  0  0
    3.7568    1.3132    0.0000 H   0  0  0  0  0  0  0  0  0  0  0  0
    5.5006    0.3291    0.0000 H   0  0  0  0  0  0  0  0  0  0  0  0
    5.5006   -0.7447    0.0000 H   0  0  0  0  0  0  0  0  0  0  0  0
  2  9  1  0  0  0  0
  3  9  2  0  0  0  0
  4 10  1  0  0  0  0
  5 10  2  0  0  0  0
  7  6  1  6  0  0  0
  6 14  1  0  0  0  0
  6 15  1  0  0  0  0
  7  8  1  0  0  0  0
  7  9  1  0  0  0  0
  7 11  1  0  0  0  0
  8 10  1  0  0  0  0
  8 12  1  0  0  0  0
  8 13  1  0  0  0  0
M  CHG  3   1   2   2  -1   4  -1
M  END
> <PUBCHEM_COMPOUND_CID>
30465

> <PUBCHEM_COMPOUND_CANONICALIZED>
1

> <PUBCHEM_CACTVS_COMPLEXITY>
122

> <PUBCHEM_CACTVS_HBOND_ACCEPTOR>
5

> <PUBCHEM_CACTVS_HBOND_DONOR>
1

> <PUBCHEM_CACTVS_ROTATABLE_BOND>
1

> <PUBCHEM_CACTVS_SUBSKEYS>
AAADcYBiOAAAAAgAAAAAAAAAAAAAAAAAAAAAAAAAAAAAAAAAAAAAHgAQAAAACCjBgAQACABAAAAIAACQCAAAAAAAAAAAAIGAAAACABgAAAAAAAAGEAAAAABDAAAAAAAAAAAAAAAAAAAAAAAAAAAAAAAAAA==

> <PUBCHEM_IUPAC_OPENEYE_NAME>
calcium (2S)-2-aminobutanedioate

> <PUBCHEM_IUPAC_CAS_NAME>
calcium (2S)-2-aminobutanedioate

> <PUBCHEM_IUPAC_NAME>
calcium (2S)-2-aminobutanedioate

> <PUBCHEM_IUPAC_SYSTEMATIC_NAME>
calcium (2S)-2-azanylbutanedioate

> <PUBCHEM_IUPAC_TRADITIONAL_NAME>
calcium (2S)-2-aminosuccinate

> <PUBCHEM_IUPAC_INCHI>
InChI=1S/C4H7NO4.Ca/c5-2(4(8)9)1-3(6)7;/h2H,1,5H2,(H,6,7)(H,8,9);/q;+2/p-2/t2-;/m0./s1

> <PUBCHEM_IUPAC_INCHIKEY>
OPSXJNAGCGVGOG-DKWTVANSSA-L

> <PUBCHEM_EXACT_MASS>
170.984449

> <PUBCHEM_MOLECULAR_FORMULA>
C4H5CaNO4

> <PUBCHEM_MOLECULAR_WEIGHT>
171.1648

> <PUBCHEM_OPENEYE_CAN_SMILES>
C(C(C(=O)[O-])N)C(=O)[O-].[Ca+2]

> <PUBCHEM_OPENEYE_ISO_SMILES>
C([C@@H](C(=O)[O-])N)C(=O)[O-].[Ca+2]

> <PUBCHEM_CACTVS_TPSA>
106

> <PUBCHEM_MONOISOTOPIC_WEIGHT>
170.984449

> <PUBCHEM_TOTAL_CHARGE>
0

> <PUBCHEM_HEAVY_ATOM_COUNT>
10

> <PUBCHEM_ATOM_DEF_STEREO_COUNT>
1

> <PUBCHEM_ATOM_UDEF_STEREO_COUNT>
0

> <PUBCHEM_BOND_DEF_STEREO_COUNT>
0

> <PUBCHEM_BOND_UDEF_STEREO_COUNT>
0

> <PUBCHEM_ISOTOPIC_ATOM_COUNT>
0

> <PUBCHEM_COMPONENT_COUNT>
2

> <PUBCHEM_CACTVS_TAUTO_COUNT>
1

> <PUBCHEM_COORDINATE_TYPE>
1
5
255

> <PUBCHEM_BONDANNOTATIONS>
7  6  6

$$$$

