9394
  -OEChem-06261203402D

 90 92  0     0  0  0  0  0  0999 V2000
    4.5981    1.0000    0.0000 O   0  0  0  0  0  0  0  0  0  0  0  0
    8.0622   -1.0000    0.0000 O   0  0  0  0  0  0  0  0  0  0  0  0
    8.0622    5.0000    0.0000 N   0  3  0  0  0  0  0  0  0  0  0  0
    4.5981   -5.0000    0.0000 N   0  3  0  0  0  0  0  0  0  0  0  0
    6.3301    2.0000    0.0000 N   0  0  0  0  0  0  0  0  0  0  0  0
    6.3301   -2.0000    0.0000 N   0  0  0  0  0  0  0  0  0  0  0  0
    4.5981   -4.0000    0.0000 C   0  0  0  0  0  0  0  0  0  0  0  0
    8.0622    4.0000    0.0000 C   0  0  0  0  0  0  0  0  0  0  0  0
    4.5981   -6.0000    0.0000 C   0  0  0  0  0  0  0  0  0  0  0  0
    8.0622    6.0000    0.0000 C   0  0  0  0  0  0  0  0  0  0  0  0
    9.0622    5.0000    0.0000 C   0  0  0  0  0  0  0  0  0  0  0  0
    7.0622    5.0000    0.0000 C   0  0  0  0  0  0  0  0  0  0  0  0
    3.5981   -5.0000    0.0000 C   0  0  0  0  0  0  0  0  0  0  0  0
    5.5981   -5.0000    0.0000 C   0  0  0  0  0  0  0  0  0  0  0  0
    7.1962    3.5000    0.0000 C   0  0  0  0  0  0  0  0  0  0  0  0
    5.4641   -3.5000    0.0000 C   0  0  0  0  0  0  0  0  0  0  0  0
    3.7320   -6.5000    0.0000 C   0  0  0  0  0  0  0  0  0  0  0  0
    8.9282    6.5000    0.0000 C   0  0  0  0  0  0  0  0  0  0  0  0
    3.0981   -4.1340    0.0000 C   0  0  0  0  0  0  0  0  0  0  0  0
    6.0981   -5.8660    0.0000 C   0  0  0  0  0  0  0  0  0  0  0  0
    6.5622    5.8660    0.0000 C   0  0  0  0  0  0  0  0  0  0  0  0
    9.5622    4.1340    0.0000 C   0  0  0  0  0  0  0  0  0  0  0  0
    7.1962    2.5000    0.0000 C   0  0  0  0  0  0  0  0  0  0  0  0
    5.4641   -2.5000    0.0000 C   0  0  0  0  0  0  0  0  0  0  0  0
    2.8660   -6.0000    0.0000 C   0  0  0  0  0  0  0  0  0  0  0  0
    9.7942    6.0000    0.0000 C   0  0  0  0  0  0  0  0  0  0  0  0
    3.7320   -7.5000    0.0000 C   0  0  0  0  0  0  0  0  0  0  0  0
    8.9282    7.5000    0.0000 C   0  0  0  0  0  0  0  0  0  0  0  0
    6.3301    1.0000    0.0000 C   0  0  0  0  0  0  0  0  0  0  0  0
    6.3301   -1.0000    0.0000 C   0  0  0  0  0  0  0  0  0  0  0  0
    2.0000   -6.5000    0.0000 C   0  0  0  0  0  0  0  0  0  0  0  0
   10.6603    6.5000    0.0000 C   0  0  0  0  0  0  0  0  0  0  0  0
    2.8660   -8.0000    0.0000 C   0  0  0  0  0  0  0  0  0  0  0  0
    9.7942    8.0000    0.0000 C   0  0  0  0  0  0  0  0  0  0  0  0
   10.6603    7.5000    0.0000 C   0  0  0  0  0  0  0  0  0  0  0  0
    2.0000   -7.5000    0.0000 C   0  0  0  0  0  0  0  0  0  0  0  0
    5.4641    0.5000    0.0000 C   0  0  0  0  0  0  0  0  0  0  0  0
    7.1962   -0.5000    0.0000 C   0  0  0  0  0  0  0  0  0  0  0  0
    5.4641   -0.5000    0.0000 C   0  0  0  0  0  0  0  0  0  0  0  0
    7.1962    0.5000    0.0000 C   0  0  0  0  0  0  0  0  0  0  0  0
    8.2742    3.4174    0.0000 H   0  0  0  0  0  0  0  0  0  0  0  0
    8.6728    4.1077    0.0000 H   0  0  0  0  0  0  0  0  0  0  0  0
    4.3860   -3.4174    0.0000 H   0  0  0  0  0  0  0  0  0  0  0  0
    3.9875   -4.1077    0.0000 H   0  0  0  0  0  0  0  0  0  0  0  0
    4.8101   -6.5826    0.0000 H   0  0  0  0  0  0  0  0  0  0  0  0
    5.2087   -5.8923    0.0000 H   0  0  0  0  0  0  0  0  0  0  0  0
    7.8501    6.5826    0.0000 H   0  0  0  0  0  0  0  0  0  0  0  0
    7.4516    5.8923    0.0000 H   0  0  0  0  0  0  0  0  0  0  0  0
    6.1807   -4.7880    0.0000 H   0  0  0  0  0  0  0  0  0  0  0  0
    5.4904   -4.3894    0.0000 H   0  0  0  0  0  0  0  0  0  0  0  0
    3.0155   -5.2120    0.0000 H   0  0  0  0  0  0  0  0  0  0  0  0
    3.7057   -5.6106    0.0000 H   0  0  0  0  0  0  0  0  0  0  0  0
    6.4796    4.7880    0.0000 H   0  0  0  0  0  0  0  0  0  0  0  0
    7.1698    4.3894    0.0000 H   0  0  0  0  0  0  0  0  0  0  0  0
    9.6448    5.2120    0.0000 H   0  0  0  0  0  0  0  0  0  0  0  0
    8.9545    5.6106    0.0000 H   0  0  0  0  0  0  0  0  0  0  0  0
    6.9841    4.0826    0.0000 H   0  0  0  0  0  0  0  0  0  0  0  0
    6.5856    3.3923    0.0000 H   0  0  0  0  0  0  0  0  0  0  0  0
    5.6762   -4.0826    0.0000 H   0  0  0  0  0  0  0  0  0  0  0  0
    6.0747   -3.3923    0.0000 H   0  0  0  0  0  0  0  0  0  0  0  0
    3.6350   -3.8240    0.0000 H   0  0  0  0  0  0  0  0  0  0  0  0
    2.7881   -3.5970    0.0000 H   0  0  0  0  0  0  0  0  0  0  0  0
    2.5611   -4.4440    0.0000 H   0  0  0  0  0  0  0  0  0  0  0  0
    5.5611   -6.1760    0.0000 H   0  0  0  0  0  0  0  0  0  0  0  0
    6.4081   -6.4030    0.0000 H   0  0  0  0  0  0  0  0  0  0  0  0
    6.6350   -5.5560    0.0000 H   0  0  0  0  0  0  0  0  0  0  0  0
    7.0991    6.1760    0.0000 H   0  0  0  0  0  0  0  0  0  0  0  0
    6.2522    6.4030    0.0000 H   0  0  0  0  0  0  0  0  0  0  0  0
    6.0252    5.5560    0.0000 H   0  0  0  0  0  0  0  0  0  0  0  0
    9.0252    3.8240    0.0000 H   0  0  0  0  0  0  0  0  0  0  0  0
    9.8722    3.5970    0.0000 H   0  0  0  0  0  0  0  0  0  0  0  0
   10.0991    4.4440    0.0000 H   0  0  0  0  0  0  0  0  0  0  0  0
    5.2520   -1.9174    0.0000 H   0  0  0  0  0  0  0  0  0  0  0  0
    4.8535   -2.6077    0.0000 H   0  0  0  0  0  0  0  0  0  0  0  0
    7.4082    1.9174    0.0000 H   0  0  0  0  0  0  0  0  0  0  0  0
    7.8067    2.6077    0.0000 H   0  0  0  0  0  0  0  0  0  0  0  0
    2.8660   -5.3800    0.0000 H   0  0  0  0  0  0  0  0  0  0  0  0
    9.7942    5.3800    0.0000 H   0  0  0  0  0  0  0  0  0  0  0  0
    4.2690   -7.8100    0.0000 H   0  0  0  0  0  0  0  0  0  0  0  0
    8.3913    7.8100    0.0000 H   0  0  0  0  0  0  0  0  0  0  0  0
    5.7932    2.3100    0.0000 H   0  0  0  0  0  0  0  0  0  0  0  0
    6.8671   -2.3100    0.0000 H   0  0  0  0  0  0  0  0  0  0  0  0
    1.4631   -6.1900    0.0000 H   0  0  0  0  0  0  0  0  0  0  0  0
   11.1972    6.1900    0.0000 H   0  0  0  0  0  0  0  0  0  0  0  0
    2.8660   -8.6200    0.0000 H   0  0  0  0  0  0  0  0  0  0  0  0
    9.7942    8.6200    0.0000 H   0  0  0  0  0  0  0  0  0  0  0  0
   11.1972    7.8100    0.0000 H   0  0  0  0  0  0  0  0  0  0  0  0
    1.4631   -7.8100    0.0000 H   0  0  0  0  0  0  0  0  0  0  0  0
    4.9272   -0.8100    0.0000 H   0  0  0  0  0  0  0  0  0  0  0  0
    7.7331    0.8100    0.0000 H   0  0  0  0  0  0  0  0  0  0  0  0
  1 37  2  0  0  0  0
  2 38  2  0  0  0  0
  3  8  1  0  0  0  0
  3 10  1  0  0  0  0
  3 11  1  0  0  0  0
  3 12  1  0  0  0  0
  4  7  1  0  0  0  0
  4  9  1  0  0  0  0
  4 13  1  0  0  0  0
  4 14  1  0  0  0  0
  5 23  1  0  0  0  0
  5 29  1  0  0  0  0
  5 81  1  0  0  0  0
  6 24  1  0  0  0  0
  6 30  1  0  0  0  0
  6 82  1  0  0  0  0
  7 16  1  0  0  0  0
  7 43  1  0  0  0  0
  7 44  1  0  0  0  0
  8 15  1  0  0  0  0
  8 41  1  0  0  0  0
  8 42  1  0  0  0  0
  9 17  1  0  0  0  0
  9 45  1  0  0  0  0
  9 46  1  0  0  0  0
 10 18  1  0  0  0  0
 10 47  1  0  0  0  0
 10 48  1  0  0  0  0
 11 22  1  0  0  0  0
 11 55  1  0  0  0  0
 11 56  1  0  0  0  0
 12 21  1  0  0  0  0
 12 53  1  0  0  0  0
 12 54  1  0  0  0  0
 13 19  1  0  0  0  0
 13 51  1  0  0  0  0
 13 52  1  0  0  0  0
 14 20  1  0  0  0  0
 14 49  1  0  0  0  0
 14 50  1  0  0  0  0
 15 23  1  0  0  0  0
 15 57  1  0  0  0  0
 15 58  1  0  0  0  0
 16 24  1  0  0  0  0
 16 59  1  0  0  0  0
 16 60  1  0  0  0  0
 17 25  2  0  0  0  0
 17 27  1  0  0  0  0
 18 26  2  0  0  0  0
 18 28  1  0  0  0  0
 19 61  1  0  0  0  0
 19 62  1  0  0  0  0
 19 63  1  0  0  0  0
 20 64  1  0  0  0  0
 20 65  1  0  0  0  0
 20 66  1  0  0  0  0
 21 67  1  0  0  0  0
 21 68  1  0  0  0  0
 21 69  1  0  0  0  0
 22 70  1  0  0  0  0
 22 71  1  0  0  0  0
 22 72  1  0  0  0  0
 23 75  1  0  0  0  0
 23 76  1  0  0  0  0
 24 73  1  0  0  0  0
 24 74  1  0  0  0  0
 25 31  1  0  0  0  0
 25 77  1  0  0  0  0
 26 32  1  0  0  0  0
 26 78  1  0  0  0  0
 27 33  2  0  0  0  0
 27 79  1  0  0  0  0
 28 34  2  0  0  0  0
 28 80  1  0  0  0  0
 29 37  1  0  0  0  0
 29 40  2  0  0  0  0
 30 38  1  0  0  0  0
 30 39  2  0  0  0  0
 31 36  2  0  0  0  0
 31 83  1  0  0  0  0
 32 35  2  0  0  0  0
 32 84  1  0  0  0  0
 33 36  1  0  0  0  0
 33 85  1  0  0  0  0
 34 35  1  0  0  0  0
 34 86  1  0  0  0  0
 35 87  1  0  0  0  0
 36 88  1  0  0  0  0
 37 39  1  0  0  0  0
 38 40  1  0  0  0  0
 39 89  1  0  0  0  0
 40 90  1  0  0  0  0
M  CHG  2   3   1   4   1
M  END
> <PUBCHEM_COMPOUND_CID>
9394

> <PUBCHEM_COMPOUND_CANONICALIZED>
1

> <PUBCHEM_CACTVS_COMPLEXITY>
774

> <PUBCHEM_CACTVS_HBOND_ACCEPTOR>
4

> <PUBCHEM_CACTVS_HBOND_DONOR>
2

> <PUBCHEM_CACTVS_ROTATABLE_BOND>
18

> <PUBCHEM_CACTVS_SUBSKEYS>
AAADcfB/sAAAAAAAAAAAAAAAAAAAAAAAAAAwYIAAAAAAAAABQAAAHgAQAAAADAzBmAQyAIPAAACIAqRSQACCAAAgAgAIiICIBMgIICKA0TGEIAhgkACIiccQgAAOAAAAAAAAAAAAAAAAAAAAAAAAAAAAAA==

> <PUBCHEM_IUPAC_OPENEYE_NAME>
benzyl-[3-[[4-[3-[benzyl(diethyl)ammonio]propylamino]-3,6-dioxo-cyclohexa-1,4-dien-1-yl]amino]propyl]-diethyl-ammonium

> <PUBCHEM_IUPAC_CAS_NAME>
3-[[4-[3-[diethyl-(phenylmethyl)ammonio]propylamino]-3,6-dioxo-1-cyclohexa-1,4-dienyl]amino]propyl-diethyl-(phenylmethyl)ammonium

> <PUBCHEM_IUPAC_NAME>
benzyl-[3-[[4-[3-[benzyl(diethyl)azaniumyl]propylamino]-3,6-dioxocyclohexa-1,4-dien-1-yl]amino]propyl]-diethylazanium

> <PUBCHEM_IUPAC_SYSTEMATIC_NAME>
3-[[4-[3-[diethyl-(phenylmethyl)azaniumyl]propylamino]-3,6-bis(oxidanylidene)cyclohexa-1,4-dien-1-yl]amino]propyl-diethyl-(phenylmethyl)azanium

> <PUBCHEM_IUPAC_TRADITIONAL_NAME>
benzyl-[3-[[4-[3-[benzyl(diethyl)ammonio]propylamino]-3,6-diketo-cyclohexa-1,4-dien-1-yl]amino]propyl]-diethyl-ammonium

> <PUBCHEM_IUPAC_INCHI>
InChI=1S/C34H48N4O2/c1-5-37(6-2,27-29-17-11-9-12-18-29)23-15-21-35-31-25-34(40)32(26-33(31)39)36-22-16-24-38(7-3,8-4)28-30-19-13-10-14-20-30/h9-14,17-20,25-26H,5-8,15-16,21-24,27-28H2,1-4H3/p+2

> <PUBCHEM_IUPAC_INCHIKEY>
YERABYSOHUZTPQ-UHFFFAOYSA-P

> <PUBCHEM_XLOGP3_AA>
5.7

> <PUBCHEM_EXACT_MASS>
546.393377

> <PUBCHEM_MOLECULAR_FORMULA>
C34H50N4O2+2

> <PUBCHEM_MOLECULAR_WEIGHT>
546.7864

> <PUBCHEM_OPENEYE_CAN_SMILES>
CC[N+](CC)(CCCNC1=CC(=O)C(=CC1=O)NCCC[N+](CC)(CC)CC2=CC=CC=C2)CC3=CC=CC=C3

> <PUBCHEM_OPENEYE_ISO_SMILES>
CC[N+](CC)(CCCNC1=CC(=O)C(=CC1=O)NCCC[N+](CC)(CC)CC2=CC=CC=C2)CC3=CC=CC=C3

> <PUBCHEM_CACTVS_TPSA>
58.2

> <PUBCHEM_MONOISOTOPIC_WEIGHT>
546.393377

> <PUBCHEM_TOTAL_CHARGE>
2

> <PUBCHEM_HEAVY_ATOM_COUNT>
40

> <PUBCHEM_ATOM_DEF_STEREO_COUNT>
0

> <PUBCHEM_ATOM_UDEF_STEREO_COUNT>
0

> <PUBCHEM_BOND_DEF_STEREO_COUNT>
0

> <PUBCHEM_BOND_UDEF_STEREO_COUNT>
0

> <PUBCHEM_ISOTOPIC_ATOM_COUNT>
0

> <PUBCHEM_COMPONENT_COUNT>
1

> <PUBCHEM_CACTVS_TAUTO_COUNT>
6

> <PUBCHEM_COORDINATE_TYPE>
1
5
255

> <PUBCHEM_BONDANNOTATIONS>
17  25  8
17  27  8
18  26  8
18  28  8
25  31  8
26  32  8
27  33  8
28  34  8
31  36  8
32  35  8
33  36  8
34  35  8

$$$$

