   Color/Form
        Colorless crystals
   from [1]HSDB

   Melting Point
        65.5 deg C
   from [2]HSDB

   Octanol/Water Partition Coefficient
        log Kow = 3.79
   from [3]HSDB

   Solubilities

     * Readily soluble in most organic solvents
     * Soluble in carbon tetrachloride
     * In water, 69 mg/L at 25 deg C (est)

   from [4]HSDB

   Spectral Properties

     * UV max = 288 and 326 nm
     * IR: 8476 (Sadtler Research Laboratories IR Grating Collection)
     * UV: 5-408 (Organic Electronic Spectral Data, Phillips et al, John
       Wiley & Sons, New York)
     * 1H NMR: 3204 (Sadtler Research Laboratories Spectral Collection)
     * MASS: 39032 (NIST/EPA/MSDC Mass Spectral Database, 1990 Version)

   from [5]HSDB

   Vapor Pressure
        1.4X10-6 mm Hg at 25 deg C (est)
   from [6]HSDB

   Other Chemical/Physical Properties

     * White to off-white powder. /USP/
     * UV: 939 (Absorption Spectra in the UV and visible Regions, Academic
       Press, New York) /Benzophenone, 2-hydroxy-4'-methoxy/
     * MASS: 1532 (National Bureau of Standards EPA-NIH Mass Spectra Data
       Base, NSRDS-NBS-63) /Benzophenone, 2-hydroxy-4'-methoxy/
     * UV: 1120 (Absorption Spectra in the UV and visible Regions,
       Academic Press, New York) /Benzophenone, 2-hydroxy-5-methoxy/
     * Henry's Law constant = 1.5X10-8 atm-cu m/mol at 25 deg C (est)
     * Hydroxyl radical reaction rate constant = 2.0X10-10 cu
       cm/molecule-sec at 25 deg C (est)

   from [7]HSDB

   Computed Properties
   Molecular Weight                  228.24328 [g/mol]
   Molecular Formula                 C[14]H[12]O[3]
   XLogP3                            3.6
   H-Bond Donor                      1
   H-Bond Acceptor                   3
   Rotatable Bond Count              3
   Tautomer Count                    5
   Exact Mass                        228.078644
   MonoIsotopic Mass                 228.078644
   Topological Polar Surface Area    46.5
   Heavy Atom Count                  17
   Formal Charge                     0
   Complexity                        258
   Isotope Atom Count                0
   Defined Atom Stereocenter Count   0
   Undefined Atom Stereocenter Count 0
   Defined Bond Stereocenter Count   0
   Undefined Bond Stereocenter Count 0
   Covalently-Bonded Unit Count      1
   Feature 3D Acceptor Count         2
   Feature 3D Donor Count            1
   Feature 3D Ring Count             2
   Effective Rotor Count             3
   Conformer Sampling RMSD           0.6
   CID Conformer Count               [8]2

References

   1. http://toxnet.nlm.nih.gov/cgi-bin/sis/search/r?dbs+hsdb:@term+@rn+@rel+131-57-7
   2. http://toxnet.nlm.nih.gov/cgi-bin/sis/search/r?dbs+hsdb:@term+@rn+@rel+131-57-7
   3. http://toxnet.nlm.nih.gov/cgi-bin/sis/search/r?dbs+hsdb:@term+@rn+@rel+131-57-7
   4. http://toxnet.nlm.nih.gov/cgi-bin/sis/search/r?dbs+hsdb:@term+@rn+@rel+131-57-7
   5. http://toxnet.nlm.nih.gov/cgi-bin/sis/search/r?dbs+hsdb:@term+@rn+@rel+131-57-7
   6. http://toxnet.nlm.nih.gov/cgi-bin/sis/search/r?dbs+hsdb:@term+@rn+@rel+131-57-7
   7. http://toxnet.nlm.nih.gov/cgi-bin/sis/search/r?dbs+hsdb:@term+@rn+@rel+131-57-7
   8. http://pubchem.ncbi.nlm.nih.gov/vw3d/vw3d.cgi?cid=4632
