442799
  -OEChem-07051212592D

 61 63  0     1  0  0  0  0  0999 V2000
    7.7331   -1.0950    0.0000 O   0  0  0  0  0  0  0  0  0  0  0  0
    4.2690   -0.0950    0.0000 O   0  0  0  0  0  0  0  0  0  0  0  0
    6.0010   -0.0950    0.0000 O   0  0  0  0  0  0  0  0  0  0  0  0
    6.0010   -3.0950    0.0000 O   0  0  0  0  0  0  0  0  0  0  0  0
    7.7331   -4.0950    0.0000 O   0  0  0  0  0  0  0  0  0  0  0  0
    9.4651   -1.0950    0.0000 O   0  0  0  0  0  0  0  0  0  0  0  0
    6.0010    1.9050    0.0000 O   0  0  0  0  0  0  0  0  0  0  0  0
    9.4651   -3.0950    0.0000 O   0  0  0  0  0  0  0  0  0  0  0  0
    4.2690    2.9050    0.0000 O   0  0  0  0  0  0  0  0  0  0  0  0
    2.5369    1.9050    0.0000 O   0  0  0  0  0  0  0  0  0  0  0  0
    6.8671   -1.5950    0.0000 C   0  0  1  0  0  0  0  0  0  0  0  0
    6.8671   -2.5950    0.0000 C   0  0  2  0  0  0  0  0  0  0  0  0
    7.7331   -3.0950    0.0000 C   0  0  1  0  0  0  0  0  0  0  0  0
    5.1350    1.4050    0.0000 C   0  0  1  0  0  0  0  0  0  0  0  0
    8.5991   -2.5950    0.0000 C   0  0  2  0  0  0  0  0  0  0  0  0
    5.1350    0.4050    0.0000 C   0  0  1  0  0  0  0  0  0  0  0  0
    4.2690    1.9050    0.0000 C   0  0  1  0  0  0  0  0  0  0  0  0
    3.4030    1.4050    0.0000 C   0  0  2  0  0  0  0  0  0  0  0  0
    3.4030    0.4050    0.0000 C   0  0  2  0  0  0  0  0  0  0  0  0
    6.0010   -1.0950    0.0000 C   0  0  0  0  0  0  0  0  0  0  0  0
    8.5991   -1.5950    0.0000 C   0  0  1  0  0  0  0  0  0  0  0  0
    2.5369   -0.0950    0.0000 C   0  0  0  0  0  0  0  0  0  0  0  0
    9.4651   -0.0950    0.0000 C   0  0  0  0  0  0  0  0  0  0  0  0
   10.3312    0.4050    0.0000 C   0  0  0  0  0  0  0  0  0  0  0  0
    8.5991    0.4050    0.0000 C   0  0  0  0  0  0  0  0  0  0  0  0
   10.3312    1.4050    0.0000 C   0  0  0  0  0  0  0  0  0  0  0  0
    8.5991    1.4050    0.0000 C   0  0  0  0  0  0  0  0  0  0  0  0
    9.4651    1.9050    0.0000 C   0  0  0  0  0  0  0  0  0  0  0  0
    9.4651    2.9050    0.0000 C   0  0  0  0  0  0  0  0  0  0  0  0
   10.3312    3.4050    0.0000 C   0  0  0  0  0  0  0  0  0  0  0  0
   10.3312    4.4050    0.0000 C   0  0  0  0  0  0  0  0  0  0  0  0
    6.8671   -0.9750    0.0000 H   0  0  0  0  0  0  0  0  0  0  0  0
    6.3301   -2.2850    0.0000 H   0  0  0  0  0  0  0  0  0  0  0  0
    8.2700   -3.4050    0.0000 H   0  0  0  0  0  0  0  0  0  0  0  0
    5.1350    2.0250    0.0000 H   0  0  0  0  0  0  0  0  0  0  0  0
    8.5991   -3.2150    0.0000 H   0  0  0  0  0  0  0  0  0  0  0  0
    5.1350   -0.2150    0.0000 H   0  0  0  0  0  0  0  0  0  0  0  0
    4.8059    2.2150    0.0000 H   0  0  0  0  0  0  0  0  0  0  0  0
    3.4030    2.0250    0.0000 H   0  0  0  0  0  0  0  0  0  0  0  0
    3.4030   -0.2150    0.0000 H   0  0  0  0  0  0  0  0  0  0  0  0
    8.5991   -0.9750    0.0000 H   0  0  0  0  0  0  0  0  0  0  0  0
    5.3905   -0.9873    0.0000 H   0  0  0  0  0  0  0  0  0  0  0  0
    5.7890   -1.6776    0.0000 H   0  0  0  0  0  0  0  0  0  0  0  0
    2.2269    0.4419    0.0000 H   0  0  0  0  0  0  0  0  0  0  0  0
    2.0000   -0.4050    0.0000 H   0  0  0  0  0  0  0  0  0  0  0  0
    2.8469   -0.6319    0.0000 H   0  0  0  0  0  0  0  0  0  0  0  0
    5.4641   -2.7850    0.0000 H   0  0  0  0  0  0  0  0  0  0  0  0
    7.1962   -4.4050    0.0000 H   0  0  0  0  0  0  0  0  0  0  0  0
    6.0010    2.5250    0.0000 H   0  0  0  0  0  0  0  0  0  0  0  0
   10.0021   -2.7850    0.0000 H   0  0  0  0  0  0  0  0  0  0  0  0
    3.7320    3.2150    0.0000 H   0  0  0  0  0  0  0  0  0  0  0  0
    2.0000    1.5950    0.0000 H   0  0  0  0  0  0  0  0  0  0  0  0
   10.8681    0.0950    0.0000 H   0  0  0  0  0  0  0  0  0  0  0  0
    8.0622    0.0950    0.0000 H   0  0  0  0  0  0  0  0  0  0  0  0
   10.8681    1.7150    0.0000 H   0  0  0  0  0  0  0  0  0  0  0  0
    8.0622    1.7150    0.0000 H   0  0  0  0  0  0  0  0  0  0  0  0
    9.2531    3.4876    0.0000 H   0  0  0  0  0  0  0  0  0  0  0  0
    8.8546    2.7973    0.0000 H   0  0  0  0  0  0  0  0  0  0  0  0
   10.8681    3.0950    0.0000 H   0  0  0  0  0  0  0  0  0  0  0  0
   10.8681    4.7150    0.0000 H   0  0  0  0  0  0  0  0  0  0  0  0
    9.7942    4.7150    0.0000 H   0  0  0  0  0  0  0  0  0  0  0  0
  1 11  1  0  0  0  0
  1 21  1  0  0  0  0
  2 16  1  0  0  0  0
  2 19  1  0  0  0  0
 16  3  1  6  0  0  0
  3 20  1  0  0  0  0
 12  4  1  6  0  0  0
  4 47  1  0  0  0  0
 13  5  1  1  0  0  0
  5 48  1  0  0  0  0
 21  6  1  1  0  0  0
  6 23  1  0  0  0  0
 14  7  1  1  0  0  0
  7 49  1  0  0  0  0
 15  8  1  6  0  0  0
  8 50  1  0  0  0  0
 17  9  1  1  0  0  0
  9 51  1  0  0  0  0
 18 10  1  6  0  0  0
 10 52  1  0  0  0  0
 11 12  1  0  0  0  0
 11 20  1  1  0  0  0
 11 32  1  0  0  0  0
 12 13  1  0  0  0  0
 12 33  1  0  0  0  0
 13 15  1  0  0  0  0
 13 34  1  0  0  0  0
 14 16  1  0  0  0  0
 14 17  1  0  0  0  0
 14 35  1  0  0  0  0
 15 21  1  0  0  0  0
 15 36  1  0  0  0  0
 16 37  1  0  0  0  0
 17 18  1  0  0  0  0
 17 38  1  0  0  0  0
 18 19  1  0  0  0  0
 18 39  1  0  0  0  0
 19 22  1  1  0  0  0
 19 40  1  0  0  0  0
 20 42  1  0  0  0  0
 20 43  1  0  0  0  0
 21 41  1  0  0  0  0
 22 44  1  0  0  0  0
 22 45  1  0  0  0  0
 22 46  1  0  0  0  0
 23 24  2  0  0  0  0
 23 25  1  0  0  0  0
 24 26  1  0  0  0  0
 24 53  1  0  0  0  0
 25 27  2  0  0  0  0
 25 54  1  0  0  0  0
 26 28  2  0  0  0  0
 26 55  1  0  0  0  0
 27 28  1  0  0  0  0
 27 56  1  0  0  0  0
 28 29  1  0  0  0  0
 29 30  1  0  0  0  0
 29 57  1  0  0  0  0
 29 58  1  0  0  0  0
 30 31  2  0  0  0  0
 30 59  1  0  0  0  0
 31 60  1  0  0  0  0
 31 61  1  0  0  0  0
M  END
> <PUBCHEM_COMPOUND_CID>
442799

> <PUBCHEM_COMPOUND_CANONICALIZED>
1

> <PUBCHEM_CACTVS_COMPLEXITY>
568

> <PUBCHEM_CACTVS_HBOND_ACCEPTOR>
10

> <PUBCHEM_CACTVS_HBOND_DONOR>
6

> <PUBCHEM_CACTVS_ROTATABLE_BOND>
7

> <PUBCHEM_CACTVS_SUBSKEYS>
AAADceB4PAAAAAAAAAAAAAAAAAAAAAAAAAA0SIAAAAAAAAABAAAAGgAACAAADBSwmAMyDoAABgCAAiBCAAACCAAgIAAIiAAGCIgdNiKEMRqieCClwBEPqAfA4IwOIAAAAAAAAABAAAAAAAAAAAAAAAAAAA==

> <PUBCHEM_IUPAC_OPENEYE_NAME>
(2R,3R,4R,5R,6S)-2-[[(2R,3S,4S,5R,6S)-6-(4-allylphenoxy)-3,4,5-trihydroxy-tetrahydropyran-2-yl]methoxy]-6-methyl-tetrahydropyran-3,4,5-triol

> <PUBCHEM_IUPAC_CAS_NAME>
(2S,3R,4R,5R,6R)-2-methyl-6-[[(2R,3S,4S,5R,6S)-3,4,5-trihydroxy-6-(4-prop-2-enylphenoxy)-2-oxanyl]methoxy]oxane-3,4,5-triol

> <PUBCHEM_IUPAC_NAME>
(2S,3R,4R,5R,6R)-2-methyl-6-[[(2R,3S,4S,5R,6S)-3,4,5-trihydroxy-6-(4-prop-2-enylphenoxy)oxan-2-yl]methoxy]oxane-3,4,5-triol

> <PUBCHEM_IUPAC_SYSTEMATIC_NAME>
(2S,3R,4R,5R,6R)-2-methyl-6-[[(2R,3S,4S,5R,6S)-3,4,5-tris(oxidanyl)-6-(4-prop-2-enylphenoxy)oxan-2-yl]methoxy]oxane-3,4,5-triol

> <PUBCHEM_IUPAC_TRADITIONAL_NAME>
(2R,3R,4R,5R,6S)-2-[[(2R,3S,4S,5R,6S)-6-(4-allylphenoxy)-3,4,5-trihydroxy-tetrahydropyran-2-yl]methoxy]-6-methyl-tetrahydropyran-3,4,5-triol

> <PUBCHEM_IUPAC_INCHI>
InChI=1S/C21H30O10/c1-3-4-11-5-7-12(8-6-11)30-21-19(27)17(25)15(23)13(31-21)9-28-20-18(26)16(24)14(22)10(2)29-20/h3,5-8,10,13-27H,1,4,9H2,2H3/t10-,13+,14-,15+,16+,17-,18+,19+,20+,21+/m0/s1

> <PUBCHEM_IUPAC_INCHIKEY>
DAELTTGCCPRYTP-ZLQZEYEISA-N

> <PUBCHEM_XLOGP3_AA>
-0.8

> <PUBCHEM_EXACT_MASS>
442.183897

> <PUBCHEM_MOLECULAR_FORMULA>
C21H30O10

> <PUBCHEM_MOLECULAR_WEIGHT>
442.4569

> <PUBCHEM_OPENEYE_CAN_SMILES>
CC1C(C(C(C(O1)OCC2C(C(C(C(O2)OC3=CC=C(C=C3)CC=C)O)O)O)O)O)O

> <PUBCHEM_OPENEYE_ISO_SMILES>
C[C@H]1[C@@H]([C@H]([C@H]([C@@H](O1)OC[C@@H]2[C@H]([C@@H]([C@H]([C@@H](O2)OC3=CC=C(C=C3)CC=C)O)O)O)O)O)O

> <PUBCHEM_CACTVS_TPSA>
158

> <PUBCHEM_MONOISOTOPIC_WEIGHT>
442.183897

> <PUBCHEM_TOTAL_CHARGE>
0

> <PUBCHEM_HEAVY_ATOM_COUNT>
31

> <PUBCHEM_ATOM_DEF_STEREO_COUNT>
10

> <PUBCHEM_ATOM_UDEF_STEREO_COUNT>
0

> <PUBCHEM_BOND_DEF_STEREO_COUNT>
0

> <PUBCHEM_BOND_UDEF_STEREO_COUNT>
0

> <PUBCHEM_ISOTOPIC_ATOM_COUNT>
0

> <PUBCHEM_COMPONENT_COUNT>
1

> <PUBCHEM_CACTVS_TAUTO_COUNT>
1

> <PUBCHEM_COORDINATE_TYPE>
1
5
255

> <PUBCHEM_BONDANNOTATIONS>
18  10  6
11  20  5
19  22  5
23  24  8
23  25  8
24  26  8
25  27  8
26  28  8
27  28  8
16  3  6
12  4  6
13  5  5
21  6  5
14  7  5
15  8  6
17  9  5

$$$$

