26305
  -OEChem-07051212572D

 32 34  0     1  0  0  0  0  0999 V2000
    7.3424    0.8047    0.0000 O   0  0  0  0  0  0  0  0  0  0  0  0
    9.9260    0.0000    0.0000 O   0  0  0  0  0  0  0  0  0  0  0  0
    3.7702    1.0347    0.0000 O   0  0  0  0  0  0  0  0  0  0  0  0
    2.0000    1.0241    0.0000 O   0  0  0  0  0  0  0  0  0  0  0  0
    7.9260    0.0000    0.0000 C   0  0  1  0  0  0  0  0  0  0  0  0
    8.9260    0.0000    0.0000 C   0  0  0  0  0  0  0  0  0  0  0  0
    7.3424   -0.8047    0.0000 C   0  0  0  0  0  0  0  0  0  0  0  0
    6.3961   -0.5000    0.0000 C   0  0  0  0  0  0  0  0  0  0  0  0
    6.3961    0.5000    0.0000 C   0  0  0  0  0  0  0  0  0  0  0  0
    8.9260   -1.0000    0.0000 C   0  0  0  0  0  0  0  0  0  0  0  0
    8.9260    1.0000    0.0000 C   0  0  0  0  0  0  0  0  0  0  0  0
    5.5301   -1.0000    0.0000 C   0  0  0  0  0  0  0  0  0  0  0  0
    5.5301    1.0000    0.0000 C   0  0  0  0  0  0  0  0  0  0  0  0
    4.6641   -0.5000    0.0000 C   0  0  0  0  0  0  0  0  0  0  0  0
    4.6641    0.5000    0.0000 C   0  0  0  0  0  0  0  0  0  0  0  0
    3.7702   -1.0347    0.0000 C   0  0  0  0  0  0  0  0  0  0  0  0
    2.8641   -0.5208    0.0000 C   0  0  0  0  0  0  0  0  0  0  0  0
    2.8641    0.5208    0.0000 C   0  0  0  0  0  0  0  0  0  0  0  0
    8.3122    0.7572    0.0000 H   0  0  0  0  0  0  0  0  0  0  0  0
    7.0913   -1.3716    0.0000 H   0  0  0  0  0  0  0  0  0  0  0  0
    7.8798   -1.1140    0.0000 H   0  0  0  0  0  0  0  0  0  0  0  0
    8.3060   -1.0000    0.0000 H   0  0  0  0  0  0  0  0  0  0  0  0
    8.9260   -1.6200    0.0000 H   0  0  0  0  0  0  0  0  0  0  0  0
    9.5460   -1.0000    0.0000 H   0  0  0  0  0  0  0  0  0  0  0  0
    9.5460    1.0000    0.0000 H   0  0  0  0  0  0  0  0  0  0  0  0
    8.9260    1.6200    0.0000 H   0  0  0  0  0  0  0  0  0  0  0  0
    8.3060    1.0000    0.0000 H   0  0  0  0  0  0  0  0  0  0  0  0
    5.5301   -1.6200    0.0000 H   0  0  0  0  0  0  0  0  0  0  0  0
    5.5301    1.6200    0.0000 H   0  0  0  0  0  0  0  0  0  0  0  0
   10.2360   -0.5369    0.0000 H   0  0  0  0  0  0  0  0  0  0  0  0
    3.7773   -1.6546    0.0000 H   0  0  0  0  0  0  0  0  0  0  0  0
    2.3284   -0.8329    0.0000 H   0  0  0  0  0  0  0  0  0  0  0  0
  1  5  1  0  0  0  0
  1  9  1  0  0  0  0
  2  6  1  0  0  0  0
  2 30  1  0  0  0  0
  3 15  1  0  0  0  0
  3 18  1  0  0  0  0
  4 18  2  0  0  0  0
  5  6  1  0  0  0  0
  5  7  1  0  0  0  0
  5 19  1  6  0  0  0
  6 10  1  0  0  0  0
  6 11  1  0  0  0  0
  7  8  1  0  0  0  0
  7 20  1  0  0  0  0
  7 21  1  0  0  0  0
  8  9  2  0  0  0  0
  8 12  1  0  0  0  0
  9 13  1  0  0  0  0
 10 22  1  0  0  0  0
 10 23  1  0  0  0  0
 10 24  1  0  0  0  0
 11 25  1  0  0  0  0
 11 26  1  0  0  0  0
 11 27  1  0  0  0  0
 12 14  2  0  0  0  0
 12 28  1  0  0  0  0
 13 15  2  0  0  0  0
 13 29  1  0  0  0  0
 14 15  1  0  0  0  0
 14 16  1  0  0  0  0
 16 17  2  0  0  0  0
 16 31  1  0  0  0  0
 17 18  1  0  0  0  0
 17 32  1  0  0  0  0
M  END
> <PUBCHEM_COMPOUND_CID>
26305

> <PUBCHEM_COMPOUND_CANONICALIZED>
1

> <PUBCHEM_CACTVS_COMPLEXITY>
387

> <PUBCHEM_CACTVS_HBOND_ACCEPTOR>
4

> <PUBCHEM_CACTVS_HBOND_DONOR>
1

> <PUBCHEM_CACTVS_ROTATABLE_BOND>
1

> <PUBCHEM_CACTVS_SUBSKEYS>
AAADccBwOAAAAAAAAAAAAAAAAAAAASAAAAAwQAAAAAAAAEiBAAAAGgAACAAADFSgmAIyDoAABgCIAiDSCAACCAAgIAAIiAAGCMgNJyKEMRqCeiClwBULqYeA4PwOIAACCAAIAABAAAQQABAAAAAAAAAAAA==

> <PUBCHEM_IUPAC_OPENEYE_NAME>
(2R)-2-(1-hydroxy-1-methyl-ethyl)-2,3-dihydrofuro[3,2-g]chromen-7-one

> <PUBCHEM_IUPAC_CAS_NAME>
(2R)-2-(2-hydroxypropan-2-yl)-2,3-dihydrofuro[3,2-g][1]benzopyran-7-one

> <PUBCHEM_IUPAC_NAME>
(2R)-2-(2-hydroxypropan-2-yl)-2,3-dihydrofuro[3,2-g]chromen-7-one

> <PUBCHEM_IUPAC_SYSTEMATIC_NAME>
(2R)-2-(2-oxidanylpropan-2-yl)-2,3-dihydrofuro[3,2-g]chromen-7-one

> <PUBCHEM_IUPAC_TRADITIONAL_NAME>
(2R)-2-(1-hydroxy-1-methyl-ethyl)-2,3-dihydrofuro[3,2-g]chromen-7-one

> <PUBCHEM_IUPAC_INCHI>
InChI=1S/C14H14O4/c1-14(2,16)12-6-9-5-8-3-4-13(15)18-10(8)7-11(9)17-12/h3-5,7,12,16H,6H2,1-2H3/t12-/m1/s1

> <PUBCHEM_IUPAC_INCHIKEY>
FWYSBEAFFPBAQU-GFCCVEGCSA-N

> <PUBCHEM_XLOGP3_AA>
1.9

> <PUBCHEM_EXACT_MASS>
246.089209

> <PUBCHEM_MOLECULAR_FORMULA>
C14H14O4

> <PUBCHEM_MOLECULAR_WEIGHT>
246.25856

> <PUBCHEM_OPENEYE_CAN_SMILES>
CC(C)(C1CC2=C(O1)C=C3C(=C2)C=CC(=O)O3)O

> <PUBCHEM_OPENEYE_ISO_SMILES>
CC(C)([C@H]1CC2=C(O1)C=C3C(=C2)C=CC(=O)O3)O

> <PUBCHEM_CACTVS_TPSA>
55.8

> <PUBCHEM_MONOISOTOPIC_WEIGHT>
246.089209

> <PUBCHEM_TOTAL_CHARGE>
0

> <PUBCHEM_HEAVY_ATOM_COUNT>
18

> <PUBCHEM_ATOM_DEF_STEREO_COUNT>
1

> <PUBCHEM_ATOM_UDEF_STEREO_COUNT>
0

> <PUBCHEM_BOND_DEF_STEREO_COUNT>
0

> <PUBCHEM_BOND_UDEF_STEREO_COUNT>
0

> <PUBCHEM_ISOTOPIC_ATOM_COUNT>
0

> <PUBCHEM_COMPONENT_COUNT>
1

> <PUBCHEM_CACTVS_TAUTO_COUNT>
1

> <PUBCHEM_COORDINATE_TYPE>
1
5
255

> <PUBCHEM_BONDANNOTATIONS>
12  14  8
13  15  8
14  15  8
14  16  8
16  17  8
17  18  8
3  15  8
3  18  8
5  19  6
8  12  8
8  9  8
9  13  8

$$$$

