159223
  -OEChem-07051212552D

101100  0     1  0  0  0  0  0999 V2000
   13.2583   -0.5950    0.0000 O   0  0  0  0  0  0  0  0  0  0  0  0
   20.1865   -0.5950    0.0000 O   0  0  0  0  0  0  0  0  0  0  0  0
    6.3301   -0.5950    0.0000 O   0  0  0  0  0  0  0  0  0  0  0  0
   14.9904   -0.5950    0.0000 O   0  0  0  0  0  0  0  0  0  0  0  0
   27.1147   -0.5950    0.0000 O   0  0  0  0  0  0  0  0  0  0  0  0
   21.9186   -0.5950    0.0000 O   0  0  0  0  0  0  0  0  0  0  0  0
    8.0622   -0.5950    0.0000 O   0  0  0  0  0  0  0  0  0  0  0  0
   28.8468   -0.5950    0.0000 O   0  0  0  0  0  0  0  0  0  0  0  0
   18.4545    0.4050    0.0000 C   0  0  0  0  0  0  0  0  0  0  0  0
   12.3923    0.9050    0.0000 C   0  0  0  0  0  0  0  0  0  0  0  0
   19.3205    0.9050    0.0000 C   0  0  0  0  0  0  0  0  0  0  0  0
   11.5263    0.4050    0.0000 C   0  0  0  0  0  0  0  0  0  0  0  0
   17.5885    0.9050    0.0000 C   0  0  0  0  0  0  0  0  0  0  0  0
   13.2583    0.4050    0.0000 C   0  0  2  0  0  0  0  0  0  0  0  0
   20.1865    0.4050    0.0000 C   0  0  2  0  0  0  0  0  0  0  0  0
   10.6603    0.9050    0.0000 C   0  0  0  0  0  0  0  0  0  0  0  0
   16.7224    0.4050    0.0000 C   0  0  0  0  0  0  0  0  0  0  0  0
   14.1244    0.9050    0.0000 C   0  0  0  0  0  0  0  0  0  0  0  0
    9.7942    0.4050    0.0000 C   0  0  0  0  0  0  0  0  0  0  0  0
   15.8564    0.9050    0.0000 C   0  0  0  0  0  0  0  0  0  0  0  0
   21.0526    0.9050    0.0000 C   0  0  0  0  0  0  0  0  0  0  0  0
   24.5167    0.9050    0.0000 C   0  0  0  0  0  0  0  0  0  0  0  0
   23.6506    0.4050    0.0000 C   0  0  0  0  0  0  0  0  0  0  0  0
    8.9282    0.9050    0.0000 C   0  0  0  0  0  0  0  0  0  0  0  0
   25.3827    0.4050    0.0000 C   0  0  0  0  0  0  0  0  0  0  0  0
   14.9904    0.4050    0.0000 C   0  0  0  0  0  0  0  0  0  0  0  0
   22.7846    0.9050    0.0000 C   0  0  0  0  0  0  0  0  0  0  0  0
    6.3301    0.4050    0.0000 C   0  0  1  0  0  0  0  0  0  0  0  0
    7.1962    0.9050    0.0000 C   0  0  0  0  0  0  0  0  0  0  0  0
    5.4641    0.9050    0.0000 C   0  0  0  0  0  0  0  0  0  0  0  0
   26.2487    0.9050    0.0000 C   0  0  0  0  0  0  0  0  0  0  0  0
   21.9186    0.4050    0.0000 C   0  0  0  0  0  0  0  0  0  0  0  0
    8.0622    0.4050    0.0000 C   0  0  0  0  0  0  0  0  0  0  0  0
    4.5981    0.4050    0.0000 C   0  0  0  0  0  0  0  0  0  0  0  0
   27.1147    0.4050    0.0000 C   0  0  2  0  0  0  0  0  0  0  0  0
    3.7320    0.9050    0.0000 C   0  0  0  0  0  0  0  0  0  0  0  0
   27.9808    0.9050    0.0000 C   0  0  0  0  0  0  0  0  0  0  0  0
    2.8660    0.4050    0.0000 C   0  0  0  0  0  0  0  0  0  0  0  0
   28.8468    0.4050    0.0000 C   0  0  0  0  0  0  0  0  0  0  0  0
    2.0000    0.9050    0.0000 C   0  0  0  0  0  0  0  0  0  0  0  0
   29.7128    0.9050    0.0000 C   0  0  0  0  0  0  0  0  0  0  0  0
   18.0560   -0.0699    0.0000 H   0  0  0  0  0  0  0  0  0  0  0  0
   18.8530   -0.0699    0.0000 H   0  0  0  0  0  0  0  0  0  0  0  0
   12.7908    1.3800    0.0000 H   0  0  0  0  0  0  0  0  0  0  0  0
   11.9938    1.3800    0.0000 H   0  0  0  0  0  0  0  0  0  0  0  0
   19.7190    1.3800    0.0000 H   0  0  0  0  0  0  0  0  0  0  0  0
   18.9220    1.3800    0.0000 H   0  0  0  0  0  0  0  0  0  0  0  0
   11.1278   -0.0699    0.0000 H   0  0  0  0  0  0  0  0  0  0  0  0
   11.9248   -0.0699    0.0000 H   0  0  0  0  0  0  0  0  0  0  0  0
   17.9870    1.3800    0.0000 H   0  0  0  0  0  0  0  0  0  0  0  0
   17.1899    1.3800    0.0000 H   0  0  0  0  0  0  0  0  0  0  0  0
   13.7953    0.0950    0.0000 H   0  0  0  0  0  0  0  0  0  0  0  0
   19.6496    0.0950    0.0000 H   0  0  0  0  0  0  0  0  0  0  0  0
   11.0588    1.3800    0.0000 H   0  0  0  0  0  0  0  0  0  0  0  0
   10.2617    1.3800    0.0000 H   0  0  0  0  0  0  0  0  0  0  0  0
   16.3239   -0.0699    0.0000 H   0  0  0  0  0  0  0  0  0  0  0  0
   17.1210   -0.0699    0.0000 H   0  0  0  0  0  0  0  0  0  0  0  0
   14.5229    1.3800    0.0000 H   0  0  0  0  0  0  0  0  0  0  0  0
   13.7258    1.3800    0.0000 H   0  0  0  0  0  0  0  0  0  0  0  0
    9.3957   -0.0699    0.0000 H   0  0  0  0  0  0  0  0  0  0  0  0
   10.1928   -0.0699    0.0000 H   0  0  0  0  0  0  0  0  0  0  0  0
   16.2549    1.3800    0.0000 H   0  0  0  0  0  0  0  0  0  0  0  0
   15.4579    1.3800    0.0000 H   0  0  0  0  0  0  0  0  0  0  0  0
   21.4511    1.3800    0.0000 H   0  0  0  0  0  0  0  0  0  0  0  0
   20.6540    1.3800    0.0000 H   0  0  0  0  0  0  0  0  0  0  0  0
   24.9152    1.3800    0.0000 H   0  0  0  0  0  0  0  0  0  0  0  0
   24.1181    1.3800    0.0000 H   0  0  0  0  0  0  0  0  0  0  0  0
   23.2521   -0.0699    0.0000 H   0  0  0  0  0  0  0  0  0  0  0  0
   24.0492   -0.0699    0.0000 H   0  0  0  0  0  0  0  0  0  0  0  0
    9.3267    1.3800    0.0000 H   0  0  0  0  0  0  0  0  0  0  0  0
    8.5297    1.3800    0.0000 H   0  0  0  0  0  0  0  0  0  0  0  0
   24.9842   -0.0699    0.0000 H   0  0  0  0  0  0  0  0  0  0  0  0
   25.7812   -0.0699    0.0000 H   0  0  0  0  0  0  0  0  0  0  0  0
   23.1831    1.3800    0.0000 H   0  0  0  0  0  0  0  0  0  0  0  0
   22.3861    1.3800    0.0000 H   0  0  0  0  0  0  0  0  0  0  0  0
    6.8671    0.0950    0.0000 H   0  0  0  0  0  0  0  0  0  0  0  0
    7.5947    1.3800    0.0000 H   0  0  0  0  0  0  0  0  0  0  0  0
    6.7976    1.3800    0.0000 H   0  0  0  0  0  0  0  0  0  0  0  0
    5.8626    1.3800    0.0000 H   0  0  0  0  0  0  0  0  0  0  0  0
    5.0656    1.3800    0.0000 H   0  0  0  0  0  0  0  0  0  0  0  0
   26.6472    1.3800    0.0000 H   0  0  0  0  0  0  0  0  0  0  0  0
   25.8502    1.3800    0.0000 H   0  0  0  0  0  0  0  0  0  0  0  0
    4.1996   -0.0699    0.0000 H   0  0  0  0  0  0  0  0  0  0  0  0
    4.9966   -0.0699    0.0000 H   0  0  0  0  0  0  0  0  0  0  0  0
   26.5778    0.0950    0.0000 H   0  0  0  0  0  0  0  0  0  0  0  0
    4.1306    1.3800    0.0000 H   0  0  0  0  0  0  0  0  0  0  0  0
    3.3335    1.3800    0.0000 H   0  0  0  0  0  0  0  0  0  0  0  0
   28.3793    1.3800    0.0000 H   0  0  0  0  0  0  0  0  0  0  0  0
   27.5822    1.3800    0.0000 H   0  0  0  0  0  0  0  0  0  0  0  0
   12.7214   -0.9050    0.0000 H   0  0  0  0  0  0  0  0  0  0  0  0
   20.7235   -0.9050    0.0000 H   0  0  0  0  0  0  0  0  0  0  0  0
    2.4675   -0.0699    0.0000 H   0  0  0  0  0  0  0  0  0  0  0  0
    3.2646   -0.0699    0.0000 H   0  0  0  0  0  0  0  0  0  0  0  0
    5.7932   -0.9050    0.0000 H   0  0  0  0  0  0  0  0  0  0  0  0
   27.6517   -0.9050    0.0000 H   0  0  0  0  0  0  0  0  0  0  0  0
    2.3100    1.4419    0.0000 H   0  0  0  0  0  0  0  0  0  0  0  0
    1.4631    1.2150    0.0000 H   0  0  0  0  0  0  0  0  0  0  0  0
    1.6900    0.3681    0.0000 H   0  0  0  0  0  0  0  0  0  0  0  0
   30.0228    0.3681    0.0000 H   0  0  0  0  0  0  0  0  0  0  0  0
   30.2497    1.2150    0.0000 H   0  0  0  0  0  0  0  0  0  0  0  0
   29.4028    1.4419    0.0000 H   0  0  0  0  0  0  0  0  0  0  0  0
 14  1  1  6  0  0  0
  1 90  1  0  0  0  0
 15  2  1  6  0  0  0
  2 91  1  0  0  0  0
 28  3  1  6  0  0  0
  3 94  1  0  0  0  0
  4 26  2  0  0  0  0
 35  5  1  6  0  0  0
  5 95  1  0  0  0  0
  6 32  2  0  0  0  0
  7 33  2  0  0  0  0
  8 39  2  0  0  0  0
  9 11  1  0  0  0  0
  9 13  1  0  0  0  0
  9 42  1  0  0  0  0
  9 43  1  0  0  0  0
 10 12  1  0  0  0  0
 10 14  1  0  0  0  0
 10 44  1  0  0  0  0
 10 45  1  0  0  0  0
 11 15  1  0  0  0  0
 11 46  1  0  0  0  0
 11 47  1  0  0  0  0
 12 16  1  0  0  0  0
 12 48  1  0  0  0  0
 12 49  1  0  0  0  0
 13 17  1  0  0  0  0
 13 50  1  0  0  0  0
 13 51  1  0  0  0  0
 14 18  1  0  0  0  0
 14 52  1  0  0  0  0
 15 21  1  0  0  0  0
 15 53  1  0  0  0  0
 16 19  1  0  0  0  0
 16 54  1  0  0  0  0
 16 55  1  0  0  0  0
 17 20  1  0  0  0  0
 17 56  1  0  0  0  0
 17 57  1  0  0  0  0
 18 26  1  0  0  0  0
 18 58  1  0  0  0  0
 18 59  1  0  0  0  0
 19 24  1  0  0  0  0
 19 60  1  0  0  0  0
 19 61  1  0  0  0  0
 20 26  1  0  0  0  0
 20 62  1  0  0  0  0
 20 63  1  0  0  0  0
 21 32  1  0  0  0  0
 21 64  1  0  0  0  0
 21 65  1  0  0  0  0
 22 23  1  0  0  0  0
 22 25  1  0  0  0  0
 22 66  1  0  0  0  0
 22 67  1  0  0  0  0
 23 27  1  0  0  0  0
 23 68  1  0  0  0  0
 23 69  1  0  0  0  0
 24 33  1  0  0  0  0
 24 70  1  0  0  0  0
 24 71  1  0  0  0  0
 25 31  1  0  0  0  0
 25 72  1  0  0  0  0
 25 73  1  0  0  0  0
 27 32  1  0  0  0  0
 27 74  1  0  0  0  0
 27 75  1  0  0  0  0
 28 29  1  0  0  0  0
 28 30  1  0  0  0  0
 28 76  1  0  0  0  0
 29 33  1  0  0  0  0
 29 77  1  0  0  0  0
 29 78  1  0  0  0  0
 30 34  1  0  0  0  0
 30 79  1  0  0  0  0
 30 80  1  0  0  0  0
 31 35  1  0  0  0  0
 31 81  1  0  0  0  0
 31 82  1  0  0  0  0
 34 36  1  0  0  0  0
 34 83  1  0  0  0  0
 34 84  1  0  0  0  0
 35 37  1  0  0  0  0
 35 85  1  0  0  0  0
 36 38  1  0  0  0  0
 36 86  1  0  0  0  0
 36 87  1  0  0  0  0
 37 39  1  0  0  0  0
 37 88  1  0  0  0  0
 37 89  1  0  0  0  0
 38 40  1  0  0  0  0
 38 92  1  0  0  0  0
 38 93  1  0  0  0  0
 39 41  1  0  0  0  0
 40 96  1  0  0  0  0
 40 97  1  0  0  0  0
 40 98  1  0  0  0  0
 41 99  1  0  0  0  0
 41100  1  0  0  0  0
 41101  1  0  0  0  0
M  END
> <PUBCHEM_COMPOUND_CID>
159223

> <PUBCHEM_COMPOUND_CANONICALIZED>
1

> <PUBCHEM_CACTVS_COMPLEXITY>
707

> <PUBCHEM_CACTVS_HBOND_ACCEPTOR>
8

> <PUBCHEM_CACTVS_HBOND_DONOR>
4

> <PUBCHEM_CACTVS_ROTATABLE_BOND>
30

> <PUBCHEM_CACTVS_SUBSKEYS>
AAADcfB8PAAAAAAAAAAAAAAAAAAAAAAAAAAAAAAAAAAAAAAAAAAAGgAACAAACBSggAICAAAAAgAIAIAQAAAAAAAAAAAAAAEAAAAAEBYAAAAAQAAEIAAAAAGIyKCAAAAAAAAAAAAAAAAAAAAAAAAAAAAAAA==

> <PUBCHEM_IUPAC_OPENEYE_NAME>
(4R,12R,20R,28R)-4,12,20,28-tetrahydroxytritriacontane-2,10,18,26-tetrone

> <PUBCHEM_IUPAC_CAS_NAME>
(4R,12R,20R,28R)-4,12,20,28-tetrahydroxytritriacontane-2,10,18,26-tetrone

> <PUBCHEM_IUPAC_NAME>
(4R,12R,20R,28R)-4,12,20,28-tetrahydroxytritriacontane-2,10,18,26-tetrone

> <PUBCHEM_IUPAC_SYSTEMATIC_NAME>
(4R,12R,20R,28R)-4,12,20,28-tetrakis(oxidanyl)tritriacontane-2,10,18,26-tetrone

> <PUBCHEM_IUPAC_TRADITIONAL_NAME>
(4R,12R,20R,28R)-4,12,20,28-tetrahydroxytritriacontane-2,10,18,26-tetrone

> <PUBCHEM_IUPAC_INCHI>
InChI=1S/C33H60O8/c1-3-4-8-15-28(36)23-29(37)18-11-6-12-19-32(40)25-33(41)21-14-7-13-20-31(39)24-30(38)17-10-5-9-16-27(35)22-26(2)34/h27-28,31-32,35-36,39-40H,3-25H2,1-2H3/t27-,28-,31-,32-/m1/s1

> <PUBCHEM_IUPAC_INCHIKEY>
RFJUKGGHUDCGDN-QWWQXMGCSA-N

> <PUBCHEM_XLOGP3_AA>
3.3

> <PUBCHEM_EXACT_MASS>
584.428819

> <PUBCHEM_MOLECULAR_FORMULA>
C33H60O8

> <PUBCHEM_MOLECULAR_WEIGHT>
584.8247

> <PUBCHEM_OPENEYE_CAN_SMILES>
CCCCCC(CC(=O)CCCCCC(CC(=O)CCCCCC(CC(=O)CCCCCC(CC(=O)C)O)O)O)O

> <PUBCHEM_OPENEYE_ISO_SMILES>
CCCCC[C@H](CC(=O)CCCCC[C@H](CC(=O)CCCCC[C@H](CC(=O)CCCCC[C@H](CC(=O)C)O)O)O)O

> <PUBCHEM_CACTVS_TPSA>
149

> <PUBCHEM_MONOISOTOPIC_WEIGHT>
584.428819

> <PUBCHEM_TOTAL_CHARGE>
0

> <PUBCHEM_HEAVY_ATOM_COUNT>
41

> <PUBCHEM_ATOM_DEF_STEREO_COUNT>
4

> <PUBCHEM_ATOM_UDEF_STEREO_COUNT>
0

> <PUBCHEM_BOND_DEF_STEREO_COUNT>
0

> <PUBCHEM_BOND_UDEF_STEREO_COUNT>
0

> <PUBCHEM_ISOTOPIC_ATOM_COUNT>
0

> <PUBCHEM_COMPONENT_COUNT>
1

> <PUBCHEM_CACTVS_TAUTO_COUNT>
81

> <PUBCHEM_COORDINATE_TYPE>
1
5
255

> <PUBCHEM_BONDANNOTATIONS>
14  1  6
15  2  6
28  3  6
35  5  6

$$$$

