445262
  -OEChem-07051213092D

 22 22  0     0  0  0  0  0  0999 V2000
    2.0000   -2.0950    0.0000 O   0  0  0  0  0  0  0  0  0  0  0  0
    3.7320   -2.0950    0.0000 O   0  0  0  0  0  0  0  0  0  0  0  0
    2.8660   -0.5950    0.0000 N   0  0  0  0  0  0  0  0  0  0  0  0
    2.8660    2.4050    0.0000 N   0  0  0  0  0  0  0  0  0  0  0  0
    2.8660    1.4050    0.0000 C   0  0  0  0  0  0  0  0  0  0  0  0
    2.0000    0.9050    0.0000 C   0  0  0  0  0  0  0  0  0  0  0  0
    3.7320    0.9050    0.0000 C   0  0  0  0  0  0  0  0  0  0  0  0
    2.0000   -0.0950    0.0000 C   0  0  0  0  0  0  0  0  0  0  0  0
    3.7320   -0.0950    0.0000 C   0  0  0  0  0  0  0  0  0  0  0  0
    2.8660   -1.5950    0.0000 C   0  0  0  0  0  0  0  0  0  0  0  0
    3.4030    1.7150    0.0000 H   0  0  0  0  0  0  0  0  0  0  0  0
    1.7880    1.4876    0.0000 H   0  0  0  0  0  0  0  0  0  0  0  0
    1.3894    0.7973    0.0000 H   0  0  0  0  0  0  0  0  0  0  0  0
    4.3426    0.7973    0.0000 H   0  0  0  0  0  0  0  0  0  0  0  0
    3.9441    1.4876    0.0000 H   0  0  0  0  0  0  0  0  0  0  0  0
    1.3894    0.0127    0.0000 H   0  0  0  0  0  0  0  0  0  0  0  0
    1.7880   -0.6776    0.0000 H   0  0  0  0  0  0  0  0  0  0  0  0
    3.9441   -0.6776    0.0000 H   0  0  0  0  0  0  0  0  0  0  0  0
    4.3426    0.0127    0.0000 H   0  0  0  0  0  0  0  0  0  0  0  0
    3.4030    2.7150    0.0000 H   0  0  0  0  0  0  0  0  0  0  0  0
    2.3291    2.7150    0.0000 H   0  0  0  0  0  0  0  0  0  0  0  0
    2.0000   -2.7150    0.0000 H   0  0  0  0  0  0  0  0  0  0  0  0
  1 10  1  0  0  0  0
  1 22  1  0  0  0  0
  2 10  2  0  0  0  0
  3  8  1  0  0  0  0
  3  9  1  0  0  0  0
  3 10  1  0  0  0  0
  4  5  1  0  0  0  0
  4 20  1  0  0  0  0
  4 21  1  0  0  0  0
  5  6  1  0  0  0  0
  5  7  1  0  0  0  0
  5 11  1  0  0  0  0
  6  8  1  0  0  0  0
  6 12  1  0  0  0  0
  6 13  1  0  0  0  0
  7  9  1  0  0  0  0
  7 14  1  0  0  0  0
  7 15  1  0  0  0  0
  8 16  1  0  0  0  0
  8 17  1  0  0  0  0
  9 18  1  0  0  0  0
  9 19  1  0  0  0  0
M  END
> <PUBCHEM_COMPOUND_CID>
445262

> <PUBCHEM_COMPOUND_CANONICALIZED>
1

> <PUBCHEM_CACTVS_COMPLEXITY>
130

> <PUBCHEM_CACTVS_HBOND_ACCEPTOR>
3

> <PUBCHEM_CACTVS_HBOND_DONOR>
2

> <PUBCHEM_CACTVS_ROTATABLE_BOND>
0

> <PUBCHEM_CACTVS_SUBSKEYS>
AAADccBjMAAAAAAAAAAAAAAAAAAAAAAAAAAsAAAAAAAAAAAAAAAAHgAQCAAACCjBAAQACANAAgAIAAAAGAAAAAAAAAAAAIAIAAAAAAIAwAAEAAAAFgCAAAAQAAAAAAAAAAAAAAAAAAAAAAAAAAAAAAAAAA==

> <PUBCHEM_IUPAC_OPENEYE_NAME>
4-aminopiperidine-1-carboxylic acid

> <PUBCHEM_IUPAC_CAS_NAME>
4-amino-1-piperidinecarboxylic acid

> <PUBCHEM_IUPAC_NAME>
4-aminopiperidine-1-carboxylic acid

> <PUBCHEM_IUPAC_SYSTEMATIC_NAME>
4-azanylpiperidine-1-carboxylic acid

> <PUBCHEM_IUPAC_TRADITIONAL_NAME>
4-aminopiperidine-1-carboxylic acid

> <PUBCHEM_IUPAC_INCHI>
InChI=1S/C6H12N2O2/c7-5-1-3-8(4-2-5)6(9)10/h5H,1-4,7H2,(H,9,10)

> <PUBCHEM_IUPAC_INCHIKEY>
NQNQKLBWDARKDG-UHFFFAOYSA-N

> <PUBCHEM_XLOGP3_AA>
-2.9

> <PUBCHEM_EXACT_MASS>
144.089878

> <PUBCHEM_MOLECULAR_FORMULA>
C6H12N2O2

> <PUBCHEM_MOLECULAR_WEIGHT>
144.17168

> <PUBCHEM_OPENEYE_CAN_SMILES>
C1CN(CCC1N)C(=O)O

> <PUBCHEM_OPENEYE_ISO_SMILES>
C1CN(CCC1N)C(=O)O

> <PUBCHEM_CACTVS_TPSA>
66.6

> <PUBCHEM_MONOISOTOPIC_WEIGHT>
144.089878

> <PUBCHEM_TOTAL_CHARGE>
0

> <PUBCHEM_HEAVY_ATOM_COUNT>
10

> <PUBCHEM_ATOM_DEF_STEREO_COUNT>
0

> <PUBCHEM_ATOM_UDEF_STEREO_COUNT>
0

> <PUBCHEM_BOND_DEF_STEREO_COUNT>
0

> <PUBCHEM_BOND_UDEF_STEREO_COUNT>
0

> <PUBCHEM_ISOTOPIC_ATOM_COUNT>
0

> <PUBCHEM_COMPONENT_COUNT>
1

> <PUBCHEM_CACTVS_TAUTO_COUNT>
1

> <PUBCHEM_COORDINATE_TYPE>
1
5
255

$$$$

