41648
  -OEChem-07051213122D

 32 32  0     0  0  0  0  0  0999 V2000
    5.6646   -1.6468    0.0000 O   0  0  0  0  0  0  0  0  0  0  0  0
    3.1756   -0.3170    0.0000 O   0  0  0  0  0  0  0  0  0  0  0  0
    4.8556   -1.0590    0.0000 N   0  0  0  0  0  0  0  0  0  0  0  0
    4.5768    0.7011    0.0000 N   0  0  0  0  0  0  0  0  0  0  0  0
    2.9945    1.4055    0.0000 N   0  0  0  0  0  0  0  0  0  0  0  0
    7.4247   -1.3680    0.0000 C   0  0  0  0  0  0  0  0  0  0  0  0
    6.4736   -1.0590    0.0000 C   0  0  0  0  0  0  0  0  0  0  0  0
    8.3757   -1.6770    0.0000 C   0  0  0  0  0  0  0  0  0  0  0  0
    7.1157   -2.3191    0.0000 C   0  0  0  0  0  0  0  0  0  0  0  0
    7.7337   -0.4170    0.0000 C   0  0  0  0  0  0  0  0  0  0  0  0
    6.1646   -0.1080    0.0000 C   0  0  0  0  0  0  0  0  0  0  0  0
    5.1646   -0.1080    0.0000 C   0  0  0  0  0  0  0  0  0  0  0  0
    3.5823    0.5965    0.0000 C   0  0  0  0  0  0  0  0  0  0  0  0
    2.0000    1.3010    0.0000 C   0  0  0  0  0  0  0  0  0  0  0  0
    3.4013    2.3191    0.0000 C   0  0  0  0  0  0  0  0  0  0  0  0
    8.1842   -2.2667    0.0000 H   0  0  0  0  0  0  0  0  0  0  0  0
    8.9654   -1.8686    0.0000 H   0  0  0  0  0  0  0  0  0  0  0  0
    8.5673   -1.0874    0.0000 H   0  0  0  0  0  0  0  0  0  0  0  0
    6.5260   -2.1275    0.0000 H   0  0  0  0  0  0  0  0  0  0  0  0
    6.9241   -2.9088    0.0000 H   0  0  0  0  0  0  0  0  0  0  0  0
    7.7053   -2.5107    0.0000 H   0  0  0  0  0  0  0  0  0  0  0  0
    8.3234   -0.6086    0.0000 H   0  0  0  0  0  0  0  0  0  0  0  0
    7.9253    0.1727    0.0000 H   0  0  0  0  0  0  0  0  0  0  0  0
    7.1440   -0.2254    0.0000 H   0  0  0  0  0  0  0  0  0  0  0  0
    6.5290    0.3936    0.0000 H   0  0  0  0  0  0  0  0  0  0  0  0
    4.8290    1.2674    0.0000 H   0  0  0  0  0  0  0  0  0  0  0  0
    1.9352    1.9176    0.0000 H   0  0  0  0  0  0  0  0  0  0  0  0
    1.3834    1.2362    0.0000 H   0  0  0  0  0  0  0  0  0  0  0  0
    2.0648    0.6844    0.0000 H   0  0  0  0  0  0  0  0  0  0  0  0
    3.9677    2.0669    0.0000 H   0  0  0  0  0  0  0  0  0  0  0  0
    3.6534    2.8855    0.0000 H   0  0  0  0  0  0  0  0  0  0  0  0
    2.8349    2.5713    0.0000 H   0  0  0  0  0  0  0  0  0  0  0  0
  1  3  1  0  0  0  0
  1  7  1  0  0  0  0
  2 13  2  0  0  0  0
  3 12  2  0  0  0  0
  4 12  1  0  0  0  0
  4 13  1  0  0  0  0
  4 26  1  0  0  0  0
  5 13  1  0  0  0  0
  5 14  1  0  0  0  0
  5 15  1  0  0  0  0
  6  7  1  0  0  0  0
  6  8  1  0  0  0  0
  6  9  1  0  0  0  0
  6 10  1  0  0  0  0
  7 11  2  0  0  0  0
  8 16  1  0  0  0  0
  8 17  1  0  0  0  0
  8 18  1  0  0  0  0
  9 19  1  0  0  0  0
  9 20  1  0  0  0  0
  9 21  1  0  0  0  0
 10 22  1  0  0  0  0
 10 23  1  0  0  0  0
 10 24  1  0  0  0  0
 11 12  1  0  0  0  0
 11 25  1  0  0  0  0
 14 27  1  0  0  0  0
 14 28  1  0  0  0  0
 14 29  1  0  0  0  0
 15 30  1  0  0  0  0
 15 31  1  0  0  0  0
 15 32  1  0  0  0  0
M  END
> <PUBCHEM_COMPOUND_CID>
41648

> <PUBCHEM_COMPOUND_CANONICALIZED>
1

> <PUBCHEM_CACTVS_COMPLEXITY>
235

> <PUBCHEM_CACTVS_HBOND_ACCEPTOR>
3

> <PUBCHEM_CACTVS_HBOND_DONOR>
1

> <PUBCHEM_CACTVS_ROTATABLE_BOND>
2

> <PUBCHEM_CACTVS_SUBSKEYS>
AAADceBzMAAAAAAAAAAAAAAAAAAAAWAAAAAAAAAAAAAAAAABgAAAHgAUAAAADgSBkgQztJPQAACpAKJycgCAAAAlIgAhGCE+bFqAJApAkICEAIhqlwpISGIQAAANAAAAAAAAAAAAAAAAAAAAAAAAAAAAAA==

> <PUBCHEM_IUPAC_OPENEYE_NAME>
3-(5-tert-butylisoxazol-3-yl)-1,1-dimethyl-urea

> <PUBCHEM_IUPAC_CAS_NAME>
3-(5-tert-butyl-3-isoxazolyl)-1,1-dimethylurea

> <PUBCHEM_IUPAC_NAME>
3-(5-tert-butyl-1,2-oxazol-3-yl)-1,1-dimethylurea

> <PUBCHEM_IUPAC_SYSTEMATIC_NAME>
3-(5-tert-butyl-1,2-oxazol-3-yl)-1,1-dimethyl-urea

> <PUBCHEM_IUPAC_TRADITIONAL_NAME>
3-(5-tert-butylisoxazol-3-yl)-1,1-dimethyl-urea

> <PUBCHEM_IUPAC_INCHI>
InChI=1S/C10H17N3O2/c1-10(2,3)7-6-8(12-15-7)11-9(14)13(4)5/h6H,1-5H3,(H,11,12,14)

> <PUBCHEM_IUPAC_INCHIKEY>
JLLJHQLUZAKJFH-UHFFFAOYSA-N

> <PUBCHEM_XLOGP3_AA>
1.6

> <PUBCHEM_EXACT_MASS>
211.132077

> <PUBCHEM_MOLECULAR_FORMULA>
C10H17N3O2

> <PUBCHEM_MOLECULAR_WEIGHT>
211.26088

> <PUBCHEM_OPENEYE_CAN_SMILES>
CC(C)(C)C1=CC(=NO1)NC(=O)N(C)C

> <PUBCHEM_OPENEYE_ISO_SMILES>
CC(C)(C)C1=CC(=NO1)NC(=O)N(C)C

> <PUBCHEM_CACTVS_TPSA>
58.4

> <PUBCHEM_MONOISOTOPIC_WEIGHT>
211.132077

> <PUBCHEM_TOTAL_CHARGE>
0

> <PUBCHEM_HEAVY_ATOM_COUNT>
15

> <PUBCHEM_ATOM_DEF_STEREO_COUNT>
0

> <PUBCHEM_ATOM_UDEF_STEREO_COUNT>
0

> <PUBCHEM_BOND_DEF_STEREO_COUNT>
0

> <PUBCHEM_BOND_UDEF_STEREO_COUNT>
0

> <PUBCHEM_ISOTOPIC_ATOM_COUNT>
0

> <PUBCHEM_COMPONENT_COUNT>
1

> <PUBCHEM_CACTVS_TAUTO_COUNT>
3

> <PUBCHEM_COORDINATE_TYPE>
1
5
255

> <PUBCHEM_BONDANNOTATIONS>
1  3  8
1  7  8
11  12  8
3  12  8
7  11  8

$$$$

