   Color/Form
        Liquid
   from [1]HSDB

   Odor
        Amine odor
   from [2]HSDB

   Boiling Point
        185 deg C @ 760 mm Hg
   from [3]HSDB

   Density/Specific Gravity
        0.9584 @ 20 deg C
   from [4]HSDB

   Spectral Properties
        Index of refraction: 1.4396 @ 20 deg C/D
   from [5]HSDB

   Vapor Pressure
        2 mm Hg @ 38-40 deg C
   from [6]HSDB

   Other Chemical/Physical Properties

     * Crystalline solid /Hydrochloride/
     * May polymerize if stored in the presence of air.

   from [7]HSDB

   Computed Properties
   Molecular Weight                  70.09314 [g/mol]
   Molecular Formula                 C[3]H[6]N[2]
   XLogP3-AA                         -1
   H-Bond Donor                      1
   H-Bond Acceptor                   2
   Rotatable Bond Count              1
   Exact Mass                        70.053098
   MonoIsotopic Mass                 70.053098
   Topological Polar Surface Area    49.8
   Heavy Atom Count                  5
   Formal Charge                     0
   Complexity                        49.2
   Isotope Atom Count                0
   Defined Atom Stereocenter Count   0
   Undefined Atom Stereocenter Count 0
   Defined Bond Stereocenter Count   0
   Undefined Bond Stereocenter Count 0
   Covalently-Bonded Unit Count      1
   Feature 3D Acceptor Count         1
   Feature 3D Donor Count            1
   Feature 3D Cation Count           1
   Effective Rotor Count             1
   Conformer Sampling RMSD           0.4
   CID Conformer Count               [8]3

References

   1. http://toxnet.nlm.nih.gov/cgi-bin/sis/search/r?dbs+hsdb:@term+@rn+@rel+151-18-8
   2. http://toxnet.nlm.nih.gov/cgi-bin/sis/search/r?dbs+hsdb:@term+@rn+@rel+151-18-8
   3. http://toxnet.nlm.nih.gov/cgi-bin/sis/search/r?dbs+hsdb:@term+@rn+@rel+151-18-8
   4. http://toxnet.nlm.nih.gov/cgi-bin/sis/search/r?dbs+hsdb:@term+@rn+@rel+151-18-8
   5. http://toxnet.nlm.nih.gov/cgi-bin/sis/search/r?dbs+hsdb:@term+@rn+@rel+151-18-8
   6. http://toxnet.nlm.nih.gov/cgi-bin/sis/search/r?dbs+hsdb:@term+@rn+@rel+151-18-8
   7. http://toxnet.nlm.nih.gov/cgi-bin/sis/search/r?dbs+hsdb:@term+@rn+@rel+151-18-8
   8. http://pubchem.ncbi.nlm.nih.gov/vw3d/vw3d.cgi?cid=1647
