440934
  -OEChem-07051212512D

 40 41  0     1  0  0  0  0  0999 V2000
    5.4641    0.8100    0.0000 O   0  0  0  0  0  0  0  0  0  0  0  0
    2.8660   -0.6900    0.0000 N   0  0  0  0  0  0  0  0  0  0  0  0
    8.0622   -0.6900    0.0000 N   0  0  0  0  0  0  0  0  0  0  0  0
    3.7320   -0.1900    0.0000 C   0  0  1  0  0  0  0  0  0  0  0  0
    7.1962   -0.1900    0.0000 C   0  0  1  0  0  0  0  0  0  0  0  0
    3.7320    0.8100    0.0000 C   0  0  0  0  0  0  0  0  0  0  0  0
    7.1962    0.8100    0.0000 C   0  0  0  0  0  0  0  0  0  0  0  0
    4.5981   -0.6900    0.0000 C   0  0  0  0  0  0  0  0  0  0  0  0
    6.3301   -0.6900    0.0000 C   0  0  0  0  0  0  0  0  0  0  0  0
    2.8660    1.3100    0.0000 C   0  0  0  0  0  0  0  0  0  0  0  0
    8.0622    1.3100    0.0000 C   0  0  0  0  0  0  0  0  0  0  0  0
    2.0000    0.8100    0.0000 C   0  0  0  0  0  0  0  0  0  0  0  0
    8.9282    0.8100    0.0000 C   0  0  0  0  0  0  0  0  0  0  0  0
    2.0000   -0.1900    0.0000 C   0  0  0  0  0  0  0  0  0  0  0  0
    8.9282   -0.1900    0.0000 C   0  0  0  0  0  0  0  0  0  0  0  0
    5.4641   -0.1900    0.0000 C   0  0  0  0  0  0  0  0  0  0  0  0
    3.7320   -0.8100    0.0000 H   0  0  0  0  0  0  0  0  0  0  0  0
    7.1962   -0.8100    0.0000 H   0  0  0  0  0  0  0  0  0  0  0  0
    4.3426    0.7023    0.0000 H   0  0  0  0  0  0  0  0  0  0  0  0
    3.9441    1.3926    0.0000 H   0  0  0  0  0  0  0  0  0  0  0  0
    6.9841    1.3926    0.0000 H   0  0  0  0  0  0  0  0  0  0  0  0
    6.5856    0.7023    0.0000 H   0  0  0  0  0  0  0  0  0  0  0  0
    4.1996   -1.1650    0.0000 H   0  0  0  0  0  0  0  0  0  0  0  0
    4.9966   -1.1650    0.0000 H   0  0  0  0  0  0  0  0  0  0  0  0
    5.9316   -1.1650    0.0000 H   0  0  0  0  0  0  0  0  0  0  0  0
    6.7287   -1.1650    0.0000 H   0  0  0  0  0  0  0  0  0  0  0  0
    3.2646    1.7850    0.0000 H   0  0  0  0  0  0  0  0  0  0  0  0
    2.4675    1.7850    0.0000 H   0  0  0  0  0  0  0  0  0  0  0  0
    8.4607    1.7850    0.0000 H   0  0  0  0  0  0  0  0  0  0  0  0
    7.6636    1.7850    0.0000 H   0  0  0  0  0  0  0  0  0  0  0  0
    1.7880    1.3926    0.0000 H   0  0  0  0  0  0  0  0  0  0  0  0
    1.3894    0.7023    0.0000 H   0  0  0  0  0  0  0  0  0  0  0  0
    9.5388    0.7023    0.0000 H   0  0  0  0  0  0  0  0  0  0  0  0
    9.1403    1.3926    0.0000 H   0  0  0  0  0  0  0  0  0  0  0  0
    2.8660   -1.3100    0.0000 H   0  0  0  0  0  0  0  0  0  0  0  0
    8.0622   -1.3100    0.0000 H   0  0  0  0  0  0  0  0  0  0  0  0
    1.3894   -0.0823    0.0000 H   0  0  0  0  0  0  0  0  0  0  0  0
    1.7880   -0.7726    0.0000 H   0  0  0  0  0  0  0  0  0  0  0  0
    9.1403   -0.7726    0.0000 H   0  0  0  0  0  0  0  0  0  0  0  0
    9.5388   -0.0823    0.0000 H   0  0  0  0  0  0  0  0  0  0  0  0
  1 16  2  0  0  0  0
  2  4  1  0  0  0  0
  2 14  1  0  0  0  0
  2 35  1  0  0  0  0
  3  5  1  0  0  0  0
  3 15  1  0  0  0  0
  3 36  1  0  0  0  0
  4  6  1  0  0  0  0
  4  8  1  1  0  0  0
  4 17  1  0  0  0  0
  5  7  1  0  0  0  0
  5  9  1  6  0  0  0
  5 18  1  0  0  0  0
  6 10  1  0  0  0  0
  6 19  1  0  0  0  0
  6 20  1  0  0  0  0
  7 11  1  0  0  0  0
  7 21  1  0  0  0  0
  7 22  1  0  0  0  0
  8 16  1  0  0  0  0
  8 23  1  0  0  0  0
  8 24  1  0  0  0  0
  9 16  1  0  0  0  0
  9 25  1  0  0  0  0
  9 26  1  0  0  0  0
 10 12  1  0  0  0  0
 10 27  1  0  0  0  0
 10 28  1  0  0  0  0
 11 13  1  0  0  0  0
 11 29  1  0  0  0  0
 11 30  1  0  0  0  0
 12 14  1  0  0  0  0
 12 31  1  0  0  0  0
 12 32  1  0  0  0  0
 13 15  1  0  0  0  0
 13 33  1  0  0  0  0
 13 34  1  0  0  0  0
 14 37  1  0  0  0  0
 14 38  1  0  0  0  0
 15 39  1  0  0  0  0
 15 40  1  0  0  0  0
M  END
> <PUBCHEM_COMPOUND_CID>
440934

> <PUBCHEM_COMPOUND_CANONICALIZED>
1

> <PUBCHEM_CACTVS_COMPLEXITY>
208

> <PUBCHEM_CACTVS_HBOND_ACCEPTOR>
3

> <PUBCHEM_CACTVS_HBOND_DONOR>
2

> <PUBCHEM_CACTVS_ROTATABLE_BOND>
4

> <PUBCHEM_CACTVS_SUBSKEYS>
AAADceBzIAAAAAAAAAAAAAAAAAAAAAAAAAAsWAAAAAAAAAAAAAAAHgAQAAAACCzBgAQAAALAAAAIAIAQAAAAAAAAAAAAAIEIAAAAABoAgAAEAAAAEACAAAEYiICAAAAAAAAAAAAAAAAAAAAAAAAAAAAAAA==

> <PUBCHEM_IUPAC_OPENEYE_NAME>
1,3-bis[(2S)-2-piperidyl]propan-2-one

> <PUBCHEM_IUPAC_CAS_NAME>
1,3-bis[(2S)-2-piperidinyl]-2-propanone

> <PUBCHEM_IUPAC_NAME>
1,3-bis[(2S)-piperidin-2-yl]propan-2-one

> <PUBCHEM_IUPAC_SYSTEMATIC_NAME>
1,3-bis[(2S)-piperidin-2-yl]propan-2-one

> <PUBCHEM_IUPAC_TRADITIONAL_NAME>
1,3-bis[(2S)-2-piperidyl]acetone

> <PUBCHEM_IUPAC_INCHI>
InChI=1S/C13H24N2O/c16-13(9-11-5-1-3-7-14-11)10-12-6-2-4-8-15-12/h11-12,14-15H,1-10H2/t11-,12-/m0/s1

> <PUBCHEM_IUPAC_INCHIKEY>
JFMCQBGTUJUOAB-RYUDHWBXSA-N

> <PUBCHEM_XLOGP3_AA>
0.8

> <PUBCHEM_EXACT_MASS>
224.188863

> <PUBCHEM_MOLECULAR_FORMULA>
C13H24N2O

> <PUBCHEM_MOLECULAR_WEIGHT>
224.34246

> <PUBCHEM_OPENEYE_CAN_SMILES>
C1CCNC(C1)CC(=O)CC2CCCCN2

> <PUBCHEM_OPENEYE_ISO_SMILES>
C1CCN[C@@H](C1)CC(=O)C[C@@H]2CCCCN2

> <PUBCHEM_CACTVS_TPSA>
41.1

> <PUBCHEM_MONOISOTOPIC_WEIGHT>
224.188863

> <PUBCHEM_TOTAL_CHARGE>
0

> <PUBCHEM_HEAVY_ATOM_COUNT>
16

> <PUBCHEM_ATOM_DEF_STEREO_COUNT>
2

> <PUBCHEM_ATOM_UDEF_STEREO_COUNT>
0

> <PUBCHEM_BOND_DEF_STEREO_COUNT>
0

> <PUBCHEM_BOND_UDEF_STEREO_COUNT>
0

> <PUBCHEM_ISOTOPIC_ATOM_COUNT>
0

> <PUBCHEM_COMPONENT_COUNT>
1

> <PUBCHEM_CACTVS_TAUTO_COUNT>
2

> <PUBCHEM_COORDINATE_TYPE>
1
5
255

> <PUBCHEM_BONDANNOTATIONS>
4  8  5
5  9  6

$$$$

