583224
  -OEChem-06241222452D

 20 16  0     0  0  0  0  0  0999 V2000
    4.5981   -0.5670    0.0000 Rh  0  0  0  0  0  0  0  0  0  0  0  0
    2.0000    1.9330    0.0000 F   0  0  0  0  0  0  0  0  0  0  0  0
    3.3660    2.2990    0.0000 F   0  0  0  0  0  0  0  0  0  0  0  0
    2.3660    0.5670    0.0000 F   0  0  0  0  0  0  0  0  0  0  0  0
    7.1962    1.9330    0.0000 F   0  0  0  0  0  0  0  0  0  0  0  0
    5.8301    2.2990    0.0000 F   0  0  0  0  0  0  0  0  0  0  0  0
    6.8301    0.5670    0.0000 F   0  0  0  0  0  0  0  0  0  0  0  0
    3.7321   -0.0670    0.0000 O   0  0  0  0  0  0  0  0  0  0  0  0
    5.4641   -0.0670    0.0000 O   0  0  0  0  0  0  0  0  0  0  0  0
    3.5981   -2.2990    0.0000 O   0  3  0  0  0  0  0  0  0  0  0  0
    5.5981   -2.2990    0.0000 O   0  3  0  0  0  0  0  0  0  0  0  0
    3.7321    0.9330    0.0000 C   0  0  0  0  0  0  0  0  0  0  0  0
    5.4641    0.9330    0.0000 C   0  0  0  0  0  0  0  0  0  0  0  0
    4.5981    1.4330    0.0000 C   0  0  0  0  0  0  0  0  0  0  0  0
    2.8660    1.4330    0.0000 C   0  0  0  0  0  0  0  0  0  0  0  0
    6.3301    1.4330    0.0000 C   0  0  0  0  0  0  0  0  0  0  0  0
    4.0981   -1.4330    0.0000 C   0  5  0  0  0  0  0  0  0  0  0  0
    5.0981   -1.4330    0.0000 C   0  5  0  0  0  0  0  0  0  0  0  0
    3.1951   -0.3770    0.0000 H   0  0  0  0  0  0  0  0  0  0  0  0
    4.5981    2.0530    0.0000 H   0  0  0  0  0  0  0  0  0  0  0  0
  2 15  1  0  0  0  0
  3 15  1  0  0  0  0
  4 15  1  0  0  0  0
  5 16  1  0  0  0  0
  6 16  1  0  0  0  0
  7 16  1  0  0  0  0
  8 12  1  0  0  0  0
  8 19  1  0  0  0  0
  9 13  2  0  0  0  0
 10 17  3  0  0  0  0
 11 18  3  0  0  0  0
 12 14  2  3  0  0  0
 12 15  1  0  0  0  0
 13 14  1  0  0  0  0
 13 16  1  0  0  0  0
 14 20  1  0  0  0  0
M  CHG  4  10   1  11   1  17  -1  18  -1
M  END
> <PUBCHEM_COMPOUND_CID>
583224

> <PUBCHEM_COMPOUND_CANONICALIZED>
1

> <PUBCHEM_CACTVS_COMPLEXITY>
325

> <PUBCHEM_CACTVS_HBOND_ACCEPTOR>
10

> <PUBCHEM_CACTVS_HBOND_DONOR>
1

> <PUBCHEM_CACTVS_ROTATABLE_BOND>
0

> <PUBCHEM_CACTVS_SUBSKEYS>
AAADcQBgOcAAAAAAABAAAAAAAAAAAAAAAAAgAAAAAAAAAAAAAAAAGwAACAAACASAgBAAAAAAAgCIAKBSAAAAAAAgIAAACAAAAEgAAAAAAAAAAAAAAAAIAQIAAAAAAAAAAAAAAAAAAAAAAAAAAAAAAAAAAA==

> <PUBCHEM_IUPAC_OPENEYE_NAME>
carbon monoxide; 1,1,1,5,5,5-hexafluoro-4-hydroxy-pent-3-en-2-one; rhodium

> <PUBCHEM_IUPAC_CAS_NAME>
carbon monoxide; 1,1,1,5,5,5-hexafluoro-4-hydroxy-3-penten-2-one; rhodium

> <PUBCHEM_IUPAC_NAME>
carbon monoxide; 1,1,1,5,5,5-hexafluoro-4-hydroxypent-3-en-2-one; rhodium

> <PUBCHEM_IUPAC_SYSTEMATIC_NAME>
carbon monoxide; 1,1,1,5,5,5-hexakis(fluoranyl)-4-oxidanyl-pent-3-en-2-one; rhodium

> <PUBCHEM_IUPAC_TRADITIONAL_NAME>
carbon monoxide; 1,1,1,5,5,5-hexafluoro-4-hydroxy-pent-3-en-2-one; rhodium

> <PUBCHEM_IUPAC_INCHI>
InChI=1S/C5H2F6O2.2CO.Rh/c6-4(7,8)2(12)1-3(13)5(9,10)11;2*1-2;/h1,12H;;;

> <PUBCHEM_IUPAC_INCHIKEY>
BSYCHZPOFCADSM-UHFFFAOYSA-N

> <PUBCHEM_EXACT_MASS>
366.891232

> <PUBCHEM_MOLECULAR_FORMULA>
C7H2F6O4Rh

> <PUBCHEM_MOLECULAR_WEIGHT>
366.984299

> <PUBCHEM_OPENEYE_CAN_SMILES>
[C-]#[O+].[C-]#[O+].C(=C(C(F)(F)F)O)C(=O)C(F)(F)F.[Rh]

> <PUBCHEM_OPENEYE_ISO_SMILES>
[C-]#[O+].[C-]#[O+].C(=C(C(F)(F)F)O)C(=O)C(F)(F)F.[Rh]

> <PUBCHEM_CACTVS_TPSA>
39.3

> <PUBCHEM_MONOISOTOPIC_WEIGHT>
366.891232

> <PUBCHEM_TOTAL_CHARGE>
0

> <PUBCHEM_HEAVY_ATOM_COUNT>
18

> <PUBCHEM_ATOM_DEF_STEREO_COUNT>
0

> <PUBCHEM_ATOM_UDEF_STEREO_COUNT>
0

> <PUBCHEM_BOND_DEF_STEREO_COUNT>
0

> <PUBCHEM_BOND_UDEF_STEREO_COUNT>
1

> <PUBCHEM_ISOTOPIC_ATOM_COUNT>
0

> <PUBCHEM_COMPONENT_COUNT>
4

> <PUBCHEM_CACTVS_TAUTO_COUNT>
2

> <PUBCHEM_NONSTANDARDBOND>
1  17  6
1  18  6
1  8  6
1  9  6

> <PUBCHEM_COORDINATE_TYPE>
1
5
255

> <PUBCHEM_BONDANNOTATIONS>
1  17  4
1  18  4
1  8  4
1  9  4
12  14  1

$$$$

