20054929
  -OEChem-07051213092D

 71 75  0     1  0  0  0  0  0999 V2000
    8.1272    3.1284    0.0000 O   0  0  0  0  0  0  0  0  0  0  0  0
    8.1884   -2.9369    0.0000 O   0  0  0  0  0  0  0  0  0  0  0  0
    7.2785    1.6184    0.0000 O   0  0  0  0  0  0  0  0  0  0  0  0
    9.0602   -1.4403    0.0000 O   0  0  0  0  0  0  0  0  0  0  0  0
   10.7424    1.6585    0.0000 O   0  0  0  0  0  0  0  0  0  0  0  0
   10.7193    3.6584    0.0000 O   0  0  0  0  0  0  0  0  0  0  0  0
    9.0220    0.6385    0.0000 O   0  0  0  0  0  0  0  0  0  0  0  0
   10.7807   -4.4470    0.0000 O   0  0  0  0  0  0  0  0  0  0  0  0
    9.0448   -5.4403    0.0000 O   0  0  0  0  0  0  0  0  0  0  0  0
   10.7884   -2.4470    0.0000 O   0  0  0  0  0  0  0  0  0  0  0  0
    8.1040    5.1282    0.0000 O   0  0  0  0  0  0  0  0  0  0  0  0
    5.5301    1.5839    0.0000 O   0  0  0  0  0  0  0  0  0  0  0  0
    5.5301   -2.4161    0.0000 O   0  0  0  0  0  0  0  0  0  0  0  0
    3.7817    1.6184    0.0000 O   0  0  0  0  0  0  0  0  0  0  0  0
    9.8706    2.1485    0.0000 C   0  0  1  0  0  0  0  0  0  0  0  0
    9.8591    3.1484    0.0000 C   0  0  1  0  0  0  0  0  0  0  0  0
    9.0105    1.6385    0.0000 C   0  0  2  0  0  0  0  0  0  0  0  0
    8.9873    3.6384    0.0000 C   0  0  1  0  0  0  0  0  0  0  0  0
    9.9166   -3.9436    0.0000 C   0  0  2  0  0  0  0  0  0  0  0  0
    9.0487   -4.4403    0.0000 C   0  0  2  0  0  0  0  0  0  0  0  0
    8.1387    2.1284    0.0000 C   0  0  1  0  0  0  0  0  0  0  0  0
    9.9205   -2.9436    0.0000 C   0  0  2  0  0  0  0  0  0  0  0  0
    8.1846   -3.9369    0.0000 C   0  0  2  0  0  0  0  0  0  0  0  0
    9.0564   -2.4403    0.0000 C   0  0  1  0  0  0  0  0  0  0  0  0
    8.9758    4.6383    0.0000 C   0  0  0  0  0  0  0  0  0  0  0  0
    7.3166   -4.4336    0.0000 C   0  0  0  0  0  0  0  0  0  0  0  0
    7.2901    0.6185    0.0000 C   0  0  0  0  0  0  0  0  0  0  0  0
    8.1962   -0.9370    0.0000 C   0  0  0  0  0  0  0  0  0  0  0  0
    6.3961    0.0839    0.0000 C   0  0  0  0  0  0  0  0  0  0  0  0
    8.1962    0.1047    0.0000 C   0  0  0  0  0  0  0  0  0  0  0  0
    6.3961   -0.9161    0.0000 C   0  0  0  0  0  0  0  0  0  0  0  0
    7.2901   -1.4508    0.0000 C   0  0  0  0  0  0  0  0  0  0  0  0
    5.5301    0.5839    0.0000 C   0  0  0  0  0  0  0  0  0  0  0  0
    5.5301   -1.4161    0.0000 C   0  0  0  0  0  0  0  0  0  0  0  0
    4.6641    0.0839    0.0000 C   0  0  0  0  0  0  0  0  0  0  0  0
    4.6641   -0.9161    0.0000 C   0  0  0  0  0  0  0  0  0  0  0  0
    3.7702    0.6185    0.0000 C   0  0  0  0  0  0  0  0  0  0  0  0
    3.7702   -1.4508    0.0000 C   0  0  0  0  0  0  0  0  0  0  0  0
    2.8641   -0.9370    0.0000 C   0  0  0  0  0  0  0  0  0  0  0  0
    2.8641    0.1047    0.0000 C   0  0  0  0  0  0  0  0  0  0  0  0
    2.0000   -1.4403    0.0000 C   0  0  0  0  0  0  0  0  0  0  0  0
    9.8778    1.5285    0.0000 H   0  0  0  0  0  0  0  0  0  0  0  0
    9.8519    3.7684    0.0000 H   0  0  0  0  0  0  0  0  0  0  0  0
    8.4772    1.3223    0.0000 H   0  0  0  0  0  0  0  0  0  0  0  0
    8.4468    3.9421    0.0000 H   0  0  0  0  0  0  0  0  0  0  0  0
    9.9142   -4.5636    0.0000 H   0  0  0  0  0  0  0  0  0  0  0  0
    8.5106   -4.7482    0.0000 H   0  0  0  0  0  0  0  0  0  0  0  0
    7.5982    2.4322    0.0000 H   0  0  0  0  0  0  0  0  0  0  0  0
   10.4562   -3.2557    0.0000 H   0  0  0  0  0  0  0  0  0  0  0  0
    7.6489   -3.6249    0.0000 H   0  0  0  0  0  0  0  0  0  0  0  0
    8.5207   -2.1282    0.0000 H   0  0  0  0  0  0  0  0  0  0  0  0
    9.5876    4.5377    0.0000 H   0  0  0  0  0  0  0  0  0  0  0  0
    9.1811    5.2233    0.0000 H   0  0  0  0  0  0  0  0  0  0  0  0
    7.0087   -3.8955    0.0000 H   0  0  0  0  0  0  0  0  0  0  0  0
    6.7785   -4.7415    0.0000 H   0  0  0  0  0  0  0  0  0  0  0  0
    7.6246   -4.9717    0.0000 H   0  0  0  0  0  0  0  0  0  0  0  0
   11.2757    1.9747    0.0000 H   0  0  0  0  0  0  0  0  0  0  0  0
   10.7121    4.2783    0.0000 H   0  0  0  0  0  0  0  0  0  0  0  0
    9.5625    0.3348    0.0000 H   0  0  0  0  0  0  0  0  0  0  0  0
   10.7783   -5.0669    0.0000 H   0  0  0  0  0  0  0  0  0  0  0  0
    8.7319    0.4167    0.0000 H   0  0  0  0  0  0  0  0  0  0  0  0
    8.5067   -5.7482    0.0000 H   0  0  0  0  0  0  0  0  0  0  0  0
   11.3242   -2.7590    0.0000 H   0  0  0  0  0  0  0  0  0  0  0  0
    7.2829   -2.0708    0.0000 H   0  0  0  0  0  0  0  0  0  0  0  0
    8.0969    5.7482    0.0000 H   0  0  0  0  0  0  0  0  0  0  0  0
    3.7773   -2.0708    0.0000 H   0  0  0  0  0  0  0  0  0  0  0  0
    2.3284    0.4167    0.0000 H   0  0  0  0  0  0  0  0  0  0  0  0
    1.6879   -0.9046    0.0000 H   0  0  0  0  0  0  0  0  0  0  0  0
    1.4643   -1.7524    0.0000 H   0  0  0  0  0  0  0  0  0  0  0  0
    2.3121   -1.9760    0.0000 H   0  0  0  0  0  0  0  0  0  0  0  0
    3.2484    1.9346    0.0000 H   0  0  0  0  0  0  0  0  0  0  0  0
  1 18  1  0  0  0  0
  1 21  1  0  0  0  0
  2 23  1  0  0  0  0
  2 24  1  0  0  0  0
 21  3  1  6  0  0  0
  3 27  1  0  0  0  0
 24  4  1  1  0  0  0
  4 28  1  0  0  0  0
 15  5  1  6  0  0  0
  5 57  1  0  0  0  0
 16  6  1  1  0  0  0
  6 58  1  0  0  0  0
 17  7  1  1  0  0  0
  7 59  1  0  0  0  0
 19  8  1  6  0  0  0
  8 60  1  0  0  0  0
 20  9  1  1  0  0  0
  9 62  1  0  0  0  0
 22 10  1  6  0  0  0
 10 63  1  0  0  0  0
 11 25  1  0  0  0  0
 11 65  1  0  0  0  0
 12 33  2  0  0  0  0
 13 34  2  0  0  0  0
 14 37  1  0  0  0  0
 14 71  1  0  0  0  0
 15 16  1  0  0  0  0
 15 17  1  0  0  0  0
 15 42  1  0  0  0  0
 16 18  1  0  0  0  0
 16 43  1  0  0  0  0
 17 21  1  0  0  0  0
 17 44  1  0  0  0  0
 18 25  1  6  0  0  0
 18 45  1  0  0  0  0
 19 20  1  0  0  0  0
 19 22  1  0  0  0  0
 19 46  1  0  0  0  0
 20 23  1  0  0  0  0
 20 47  1  0  0  0  0
 21 48  1  0  0  0  0
 22 24  1  0  0  0  0
 22 49  1  0  0  0  0
 23 26  1  6  0  0  0
 23 50  1  0  0  0  0
 24 51  1  0  0  0  0
 25 52  1  0  0  0  0
 25 53  1  0  0  0  0
 26 54  1  0  0  0  0
 26 55  1  0  0  0  0
 26 56  1  0  0  0  0
 27 29  1  0  0  0  0
 27 30  2  0  0  0  0
 28 30  1  0  0  0  0
 28 32  2  0  0  0  0
 29 31  2  0  0  0  0
 29 33  1  0  0  0  0
 30 61  1  0  0  0  0
 31 32  1  0  0  0  0
 31 34  1  0  0  0  0
 32 64  1  0  0  0  0
 33 35  1  0  0  0  0
 34 36  1  0  0  0  0
 35 36  2  0  0  0  0
 35 37  1  0  0  0  0
 36 38  1  0  0  0  0
 37 40  2  0  0  0  0
 38 39  2  0  0  0  0
 38 66  1  0  0  0  0
 39 40  1  0  0  0  0
 39 41  1  0  0  0  0
 40 67  1  0  0  0  0
 41 68  1  0  0  0  0
 41 69  1  0  0  0  0
 41 70  1  0  0  0  0
M  END
> <PUBCHEM_COMPOUND_CID>
20054929

> <PUBCHEM_COMPOUND_CANONICALIZED>
1

> <PUBCHEM_CACTVS_COMPLEXITY>
964

> <PUBCHEM_CACTVS_HBOND_ACCEPTOR>
14

> <PUBCHEM_CACTVS_HBOND_DONOR>
8

> <PUBCHEM_CACTVS_ROTATABLE_BOND>
5

> <PUBCHEM_CACTVS_SUBSKEYS>
AAADceB4PAAAAAAAAAAAAAAAAAAAAAAAAAA0aMECAAAAAADBQAAAGgAACAAADBSwmAMyDoAABgCIAqBSAAACCAAkIAAAiAEGCMgdNzaGNRqieWCl4BUPuYfL7PzO4AADCAAYAADAAAYQADAAAAAAAAAAAA==

> <PUBCHEM_IUPAC_OPENEYE_NAME>
1-hydroxy-3-methyl-8-[(2S,3R,4S,5S,6R)-3,4,5-trihydroxy-6-(hydroxymethyl)tetrahydropyran-2-yl]oxy-6-[(2S,3R,4R,5R,6S)-3,4,5-trihydroxy-6-methyl-tetrahydropyran-2-yl]oxy-anthracene-9,10-dione

> <PUBCHEM_IUPAC_CAS_NAME>
1-hydroxy-3-methyl-8-[[(2S,3R,4S,5S,6R)-3,4,5-trihydroxy-6-(hydroxymethyl)-2-oxanyl]oxy]-6-[[(2S,3R,4R,5R,6S)-3,4,5-trihydroxy-6-methyl-2-oxanyl]oxy]anthracene-9,10-dione

> <PUBCHEM_IUPAC_NAME>
1-hydroxy-3-methyl-8-[(2S,3R,4S,5S,6R)-3,4,5-trihydroxy-6-(hydroxymethyl)oxan-2-yl]oxy-6-[(2S,3R,4R,5R,6S)-3,4,5-trihydroxy-6-methyloxan-2-yl]oxyanthracene-9,10-dione

> <PUBCHEM_IUPAC_SYSTEMATIC_NAME>
1-[(2S,3R,4S,5S,6R)-6-(hydroxymethyl)-3,4,5-tris(oxidanyl)oxan-2-yl]oxy-6-methyl-3-[(2S,3R,4R,5R,6S)-6-methyl-3,4,5-tris(oxidanyl)oxan-2-yl]oxy-8-oxidanyl-anthracene-9,10-dione

> <PUBCHEM_IUPAC_TRADITIONAL_NAME>
1-hydroxy-3-methyl-8-[(2S,3R,4S,5S,6R)-3,4,5-trihydroxy-6-methylol-tetrahydropyran-2-yl]oxy-6-[(2S,3R,4R,5R,6S)-3,4,5-trihydroxy-6-methyl-tetrahydropyran-2-yl]oxy-9,10-anthraquinone

> <PUBCHEM_IUPAC_INCHI>
InChI=1S/C27H30O14/c1-8-3-11-16(13(29)4-8)21(33)17-12(19(11)31)5-10(39-26-24(36)22(34)18(30)9(2)38-26)6-14(17)40-27-25(37)23(35)20(32)15(7-28)41-27/h3-6,9,15,18,20,22-30,32,34-37H,7H2,1-2H3/t9-,15+,18-,20+,22+,23-,24+,25+,26-,27+/m0/s1

> <PUBCHEM_IUPAC_INCHIKEY>
GPSQZOFVCVOOIE-QWVHOXPHSA-N

> <PUBCHEM_XLOGP3_AA>
-0.4

> <PUBCHEM_EXACT_MASS>
578.163556

> <PUBCHEM_MOLECULAR_FORMULA>
C27H30O14

> <PUBCHEM_MOLECULAR_WEIGHT>
578.5187

> <PUBCHEM_OPENEYE_CAN_SMILES>
CC1C(C(C(C(O1)OC2=CC(=C3C(=C2)C(=O)C4=CC(=CC(=C4C3=O)O)C)OC5C(C(C(C(O5)CO)O)O)O)O)O)O

> <PUBCHEM_OPENEYE_ISO_SMILES>
C[C@H]1[C@@H]([C@H]([C@H]([C@@H](O1)OC2=CC(=C3C(=C2)C(=O)C4=CC(=CC(=C4C3=O)O)C)O[C@H]5[C@@H]([C@H]([C@@H]([C@H](O5)CO)O)O)O)O)O)O

> <PUBCHEM_CACTVS_TPSA>
233

> <PUBCHEM_MONOISOTOPIC_WEIGHT>
578.163556

> <PUBCHEM_TOTAL_CHARGE>
0

> <PUBCHEM_HEAVY_ATOM_COUNT>
41

> <PUBCHEM_ATOM_DEF_STEREO_COUNT>
10

> <PUBCHEM_ATOM_UDEF_STEREO_COUNT>
0

> <PUBCHEM_BOND_DEF_STEREO_COUNT>
0

> <PUBCHEM_BOND_UDEF_STEREO_COUNT>
0

> <PUBCHEM_ISOTOPIC_ATOM_COUNT>
0

> <PUBCHEM_COMPONENT_COUNT>
1

> <PUBCHEM_CACTVS_TAUTO_COUNT>
12

> <PUBCHEM_COORDINATE_TYPE>
1
5
255

> <PUBCHEM_BONDANNOTATIONS>
22  10  6
18  25  6
23  26  6
27  29  8
27  30  8
28  30  8
28  32  8
29  31  8
21  3  6
31  32  8
35  36  8
35  37  8
36  38  8
37  40  8
38  39  8
39  40  8
24  4  5
15  5  6
16  6  5
17  7  5
19  8  6
20  9  5

$$$$

