4547
  -OEChem-06261200122D

 69 71  0     1  0  0  0  0  0999 V2000
    7.1962   -0.0600    0.0000 O   0  0  0  0  0  0  0  0  0  0  0  0
    3.7320    2.9400    0.0000 O   0  0  0  0  0  0  0  0  0  0  0  0
    6.3301    4.4400    0.0000 O   0  0  0  0  0  0  0  0  0  0  0  0
    4.5981    4.4400    0.0000 O   0  0  0  0  0  0  0  0  0  0  0  0
    8.9282   -3.0600    0.0000 N   0  0  0  0  0  0  0  0  0  0  0  0
    6.3301   -1.5600    0.0000 N   0  0  0  0  0  0  0  0  0  0  0  0
    9.7942   -3.5600    0.0000 C   0  0  0  0  0  0  0  0  0  0  0  0
    8.0622   -3.5600    0.0000 C   0  0  0  0  0  0  0  0  0  0  0  0
    8.0622   -4.5600    0.0000 C   0  0  0  0  0  0  0  0  0  0  0  0
    9.7942   -4.5600    0.0000 C   0  0  0  0  0  0  0  0  0  0  0  0
    8.9282   -5.0600    0.0000 C   0  0  0  0  0  0  0  0  0  0  0  0
    7.1962   -2.0600    0.0000 C   0  0  3  0  0  0  0  0  0  0  0  0
    8.9282   -2.0600    0.0000 C   0  0  0  0  0  0  0  0  0  0  0  0
    8.0622   -1.5600    0.0000 C   0  0  0  0  0  0  0  0  0  0  0  0
    7.1962   -3.0600    0.0000 C   0  0  0  0  0  0  0  0  0  0  0  0
    6.3301   -3.5600    0.0000 C   0  0  0  0  0  0  0  0  0  0  0  0
    9.7942   -1.5600    0.0000 C   0  0  0  0  0  0  0  0  0  0  0  0
    8.0622   -0.5600    0.0000 C   0  0  0  0  0  0  0  0  0  0  0  0
    6.3301   -4.5600    0.0000 C   0  0  0  0  0  0  0  0  0  0  0  0
    5.4641   -3.0600    0.0000 C   0  0  0  0  0  0  0  0  0  0  0  0
    9.7942   -0.5600    0.0000 C   0  0  0  0  0  0  0  0  0  0  0  0
    8.9282   -0.0600    0.0000 C   0  0  0  0  0  0  0  0  0  0  0  0
    6.3301   -0.5600    0.0000 C   0  0  0  0  0  0  0  0  0  0  0  0
    5.4641   -0.0600    0.0000 C   0  0  0  0  0  0  0  0  0  0  0  0
    5.4641    0.9400    0.0000 C   0  0  0  0  0  0  0  0  0  0  0  0
    4.5981    1.4400    0.0000 C   0  0  0  0  0  0  0  0  0  0  0  0
    6.3301    1.4400    0.0000 C   0  0  0  0  0  0  0  0  0  0  0  0
    4.5981    2.4400    0.0000 C   0  0  0  0  0  0  0  0  0  0  0  0
    6.3301    2.4400    0.0000 C   0  0  0  0  0  0  0  0  0  0  0  0
    5.4641    2.9400    0.0000 C   0  0  0  0  0  0  0  0  0  0  0  0
    5.4641    3.9400    0.0000 C   0  0  0  0  0  0  0  0  0  0  0  0
    2.8660    2.4400    0.0000 C   0  0  0  0  0  0  0  0  0  0  0  0
    2.0000    2.9400    0.0000 C   0  0  0  0  0  0  0  0  0  0  0  0
   10.4048   -3.6677    0.0000 H   0  0  0  0  0  0  0  0  0  0  0  0
   10.0063   -2.9774    0.0000 H   0  0  0  0  0  0  0  0  0  0  0  0
    7.8501   -2.9774    0.0000 H   0  0  0  0  0  0  0  0  0  0  0  0
    7.4516   -3.6677    0.0000 H   0  0  0  0  0  0  0  0  0  0  0  0
   10.0063   -5.1426    0.0000 H   0  0  0  0  0  0  0  0  0  0  0  0
   10.4048   -4.4523    0.0000 H   0  0  0  0  0  0  0  0  0  0  0  0
    7.4516   -4.4523    0.0000 H   0  0  0  0  0  0  0  0  0  0  0  0
    7.8501   -5.1426    0.0000 H   0  0  0  0  0  0  0  0  0  0  0  0
    8.5297   -5.5350    0.0000 H   0  0  0  0  0  0  0  0  0  0  0  0
    9.3267   -5.5350    0.0000 H   0  0  0  0  0  0  0  0  0  0  0  0
    6.6592   -2.3700    0.0000 H   0  0  0  0  0  0  0  0  0  0  0  0
    7.4082   -3.6426    0.0000 H   0  0  0  0  0  0  0  0  0  0  0  0
    7.8067   -2.9523    0.0000 H   0  0  0  0  0  0  0  0  0  0  0  0
    6.8671   -3.8700    0.0000 H   0  0  0  0  0  0  0  0  0  0  0  0
   10.3312   -1.8700    0.0000 H   0  0  0  0  0  0  0  0  0  0  0  0
    5.7932   -1.8700    0.0000 H   0  0  0  0  0  0  0  0  0  0  0  0
    7.5252   -0.2500    0.0000 H   0  0  0  0  0  0  0  0  0  0  0  0
    5.7101   -4.5600    0.0000 H   0  0  0  0  0  0  0  0  0  0  0  0
    6.3301   -5.1800    0.0000 H   0  0  0  0  0  0  0  0  0  0  0  0
    6.9501   -4.5600    0.0000 H   0  0  0  0  0  0  0  0  0  0  0  0
    5.7741   -2.5231    0.0000 H   0  0  0  0  0  0  0  0  0  0  0  0
    4.9272   -2.7500    0.0000 H   0  0  0  0  0  0  0  0  0  0  0  0
    5.1541   -3.5969    0.0000 H   0  0  0  0  0  0  0  0  0  0  0  0
   10.3312   -0.2500    0.0000 H   0  0  0  0  0  0  0  0  0  0  0  0
    8.9282    0.5600    0.0000 H   0  0  0  0  0  0  0  0  0  0  0  0
    4.8535    0.0477    0.0000 H   0  0  0  0  0  0  0  0  0  0  0  0
    5.2520   -0.6426    0.0000 H   0  0  0  0  0  0  0  0  0  0  0  0
    4.0611    1.1300    0.0000 H   0  0  0  0  0  0  0  0  0  0  0  0
    6.8671    1.1300    0.0000 H   0  0  0  0  0  0  0  0  0  0  0  0
    6.8671    2.7500    0.0000 H   0  0  0  0  0  0  0  0  0  0  0  0
    2.4675    1.9650    0.0000 H   0  0  0  0  0  0  0  0  0  0  0  0
    3.2646    1.9650    0.0000 H   0  0  0  0  0  0  0  0  0  0  0  0
    2.3100    3.4769    0.0000 H   0  0  0  0  0  0  0  0  0  0  0  0
    1.4631    3.2500    0.0000 H   0  0  0  0  0  0  0  0  0  0  0  0
    1.6900    2.4031    0.0000 H   0  0  0  0  0  0  0  0  0  0  0  0
    6.3301    5.0600    0.0000 H   0  0  0  0  0  0  0  0  0  0  0  0
  1 23  2  0  0  0  0
  2 28  1  0  0  0  0
  2 32  1  0  0  0  0
  3 31  1  0  0  0  0
  3 69  1  0  0  0  0
  4 31  2  0  0  0  0
  5  7  1  0  0  0  0
  5  8  1  0  0  0  0
  5 13  1  0  0  0  0
  6 12  1  0  0  0  0
  6 23  1  0  0  0  0
  6 49  1  0  0  0  0
  7 10  1  0  0  0  0
  7 34  1  0  0  0  0
  7 35  1  0  0  0  0
  8  9  1  0  0  0  0
  8 36  1  0  0  0  0
  8 37  1  0  0  0  0
  9 11  1  0  0  0  0
  9 40  1  0  0  0  0
  9 41  1  0  0  0  0
 10 11  1  0  0  0  0
 10 38  1  0  0  0  0
 10 39  1  0  0  0  0
 11 42  1  0  0  0  0
 11 43  1  0  0  0  0
 12 14  1  0  0  0  0
 12 15  1  0  0  0  0
 12 44  1  0  0  0  0
 13 14  1  0  0  0  0
 13 17  2  0  0  0  0
 14 18  2  0  0  0  0
 15 16  1  0  0  0  0
 15 45  1  0  0  0  0
 15 46  1  0  0  0  0
 16 19  1  0  0  0  0
 16 20  1  0  0  0  0
 16 47  1  0  0  0  0
 17 21  1  0  0  0  0
 17 48  1  0  0  0  0
 18 22  1  0  0  0  0
 18 50  1  0  0  0  0
 19 51  1  0  0  0  0
 19 52  1  0  0  0  0
 19 53  1  0  0  0  0
 20 54  1  0  0  0  0
 20 55  1  0  0  0  0
 20 56  1  0  0  0  0
 21 22  2  0  0  0  0
 21 57  1  0  0  0  0
 22 58  1  0  0  0  0
 23 24  1  0  0  0  0
 24 25  1  0  0  0  0
 24 59  1  0  0  0  0
 24 60  1  0  0  0  0
 25 26  2  0  0  0  0
 25 27  1  0  0  0  0
 26 28  1  0  0  0  0
 26 61  1  0  0  0  0
 27 29  2  0  0  0  0
 27 62  1  0  0  0  0
 28 30  2  0  0  0  0
 29 30  1  0  0  0  0
 29 63  1  0  0  0  0
 30 31  1  0  0  0  0
 32 33  1  0  0  0  0
 32 64  1  0  0  0  0
 32 65  1  0  0  0  0
 33 66  1  0  0  0  0
 33 67  1  0  0  0  0
 33 68  1  0  0  0  0
M  END
> <PUBCHEM_COMPOUND_CID>
4547

> <PUBCHEM_COMPOUND_CANONICALIZED>
1

> <PUBCHEM_CACTVS_COMPLEXITY>
619

> <PUBCHEM_CACTVS_HBOND_ACCEPTOR>
5

> <PUBCHEM_CACTVS_HBOND_DONOR>
2

> <PUBCHEM_CACTVS_ROTATABLE_BOND>
10

> <PUBCHEM_CACTVS_SUBSKEYS>
AAADcfB7OAAAAAAAAAAAAAAAAAAAAAAAAAA8YIAAAAAAAAABQAAAHgAQCAAADSzhmAYyzoPABgCIAiXSWACCCAAlIgAIiIEObMgMJzbE9ZuGeWjl9hHI+YeY3PLOQAABAAAKAACAAAIAABQAAAAAAAAAAA==

> <PUBCHEM_IUPAC_OPENEYE_NAME>
2-ethoxy-4-[2-[[3-methyl-1-[2-(1-piperidyl)phenyl]butyl]amino]-2-oxo-ethyl]benzoic acid

> <PUBCHEM_IUPAC_CAS_NAME>
2-ethoxy-4-[2-[[3-methyl-1-[2-(1-piperidinyl)phenyl]butyl]amino]-2-oxoethyl]benzoic acid

> <PUBCHEM_IUPAC_NAME>
2-ethoxy-4-[2-[[3-methyl-1-(2-piperidin-1-ylphenyl)butyl]amino]-2-oxoethyl]benzoic acid

> <PUBCHEM_IUPAC_SYSTEMATIC_NAME>
2-ethoxy-4-[2-[[3-methyl-1-(2-piperidin-1-ylphenyl)butyl]amino]-2-oxidanylidene-ethyl]benzoic acid

> <PUBCHEM_IUPAC_TRADITIONAL_NAME>
2-ethoxy-4-[2-keto-2-[[3-methyl-1-(2-piperidinophenyl)butyl]amino]ethyl]benzoic acid

> <PUBCHEM_IUPAC_INCHI>
InChI=1S/C27H36N2O4/c1-4-33-25-17-20(12-13-22(25)27(31)32)18-26(30)28-23(16-19(2)3)21-10-6-7-11-24(21)29-14-8-5-9-15-29/h6-7,10-13,17,19,23H,4-5,8-9,14-16,18H2,1-3H3,(H,28,30)(H,31,32)

> <PUBCHEM_IUPAC_INCHIKEY>
FAEKWTJYAYMJKF-UHFFFAOYSA-N

> <PUBCHEM_XLOGP3_AA>
5.2

> <PUBCHEM_EXACT_MASS>
452.267508

> <PUBCHEM_MOLECULAR_FORMULA>
C27H36N2O4

> <PUBCHEM_MOLECULAR_WEIGHT>
452.58574

> <PUBCHEM_OPENEYE_CAN_SMILES>
CCOC1=C(C=CC(=C1)CC(=O)NC(CC(C)C)C2=CC=CC=C2N3CCCCC3)C(=O)O

> <PUBCHEM_OPENEYE_ISO_SMILES>
CCOC1=C(C=CC(=C1)CC(=O)NC(CC(C)C)C2=CC=CC=C2N3CCCCC3)C(=O)O

> <PUBCHEM_CACTVS_TPSA>
78.9

> <PUBCHEM_MONOISOTOPIC_WEIGHT>
452.267508

> <PUBCHEM_TOTAL_CHARGE>
0

> <PUBCHEM_HEAVY_ATOM_COUNT>
33

> <PUBCHEM_ATOM_DEF_STEREO_COUNT>
0

> <PUBCHEM_ATOM_UDEF_STEREO_COUNT>
1

> <PUBCHEM_BOND_DEF_STEREO_COUNT>
0

> <PUBCHEM_BOND_UDEF_STEREO_COUNT>
0

> <PUBCHEM_ISOTOPIC_ATOM_COUNT>
0

> <PUBCHEM_COMPONENT_COUNT>
1

> <PUBCHEM_CACTVS_TAUTO_COUNT>
7

> <PUBCHEM_COORDINATE_TYPE>
1
5
255

> <PUBCHEM_BONDANNOTATIONS>
12  15  3
13  14  8
13  17  8
14  18  8
17  21  8
18  22  8
21  22  8
25  26  8
25  27  8
26  28  8
27  29  8
28  30  8
29  30  8

$$$$

