53297381
  -OEChem-07051213112D

 50 51  0     1  0  0  0  0  0999 V2000
    5.5443    2.4698    0.0000 S   0  0  0  0  0  0  0  0  0  0  0  0
    2.0000    2.6651    0.0000 F   0  0  0  0  0  0  0  0  0  0  0  0
    9.1279    1.6651    0.0000 O   0  0  0  0  0  0  0  0  0  0  0  0
   11.6279   -0.9330    0.0000 O   0  0  0  0  0  0  0  0  0  0  0  0
   10.1279   -1.7990    0.0000 O   0  0  0  0  0  0  0  0  0  0  0  0
   10.1279   -0.0670    0.0000 N   0  0  0  0  0  0  0  0  0  0  0  0
    7.6279    0.7990    0.0000 N   0  0  0  0  0  0  0  0  0  0  0  0
    5.5443    0.8603    0.0000 N   0  0  0  0  0  0  0  0  0  0  0  0
    8.6279   -0.9330    0.0000 C   0  0  0  0  0  0  0  0  0  0  0  0
    9.1279   -0.0670    0.0000 C   0  0  1  0  0  0  0  0  0  0  0  0
    8.6279    0.7990    0.0000 C   0  0  0  0  0  0  0  0  0  0  0  0
    7.1279    1.6651    0.0000 C   0  0  1  0  0  0  0  0  0  0  0  0
    9.1279   -1.7990    0.0000 C   0  0  0  0  0  0  0  0  0  0  0  0
    7.6279   -0.9330    0.0000 C   0  0  0  0  0  0  0  0  0  0  0  0
    6.1279    1.6651    0.0000 C   0  0  0  0  0  0  0  0  0  0  0  0
    7.6279    2.5311    0.0000 C   0  0  0  0  0  0  0  0  0  0  0  0
   10.6279   -0.9330    0.0000 C   0  0  0  0  0  0  0  0  0  0  0  0
    4.5981    2.1651    0.0000 C   0  0  0  0  0  0  0  0  0  0  0  0
    4.5981    1.1651    0.0000 C   0  0  0  0  0  0  0  0  0  0  0  0
   12.1279   -1.7990    0.0000 C   0  0  0  0  0  0  0  0  0  0  0  0
    3.7320    2.6651    0.0000 C   0  0  0  0  0  0  0  0  0  0  0  0
    3.7320    0.6651    0.0000 C   0  0  0  0  0  0  0  0  0  0  0  0
   13.1279   -1.7990    0.0000 C   0  0  0  0  0  0  0  0  0  0  0  0
   11.6279   -2.6651    0.0000 C   0  0  0  0  0  0  0  0  0  0  0  0
    2.8660    2.1651    0.0000 C   0  0  0  0  0  0  0  0  0  0  0  0
    2.8660    1.1651    0.0000 C   0  0  0  0  0  0  0  0  0  0  0  0
    9.4379    0.4699    0.0000 H   0  0  0  0  0  0  0  0  0  0  0  0
    8.3179   -1.4700    0.0000 H   0  0  0  0  0  0  0  0  0  0  0  0
    6.8179    1.1281    0.0000 H   0  0  0  0  0  0  0  0  0  0  0  0
    7.6279   -0.3130    0.0000 H   0  0  0  0  0  0  0  0  0  0  0  0
    8.5910   -2.1090    0.0000 H   0  0  0  0  0  0  0  0  0  0  0  0
    9.4379   -2.3360    0.0000 H   0  0  0  0  0  0  0  0  0  0  0  0
    9.6648   -1.4890    0.0000 H   0  0  0  0  0  0  0  0  0  0  0  0
    7.0079   -0.9330    0.0000 H   0  0  0  0  0  0  0  0  0  0  0  0
    7.6279   -1.5530    0.0000 H   0  0  0  0  0  0  0  0  0  0  0  0
   10.4379    0.4699    0.0000 H   0  0  0  0  0  0  0  0  0  0  0  0
    7.3179    0.2621    0.0000 H   0  0  0  0  0  0  0  0  0  0  0  0
    8.1648    2.2211    0.0000 H   0  0  0  0  0  0  0  0  0  0  0  0
    7.9379    3.0680    0.0000 H   0  0  0  0  0  0  0  0  0  0  0  0
    7.0910    2.8411    0.0000 H   0  0  0  0  0  0  0  0  0  0  0  0
   11.5079   -1.7990    0.0000 H   0  0  0  0  0  0  0  0  0  0  0  0
    3.7320    3.2851    0.0000 H   0  0  0  0  0  0  0  0  0  0  0  0
    3.7320    0.0451    0.0000 H   0  0  0  0  0  0  0  0  0  0  0  0
   13.1279   -2.4190    0.0000 H   0  0  0  0  0  0  0  0  0  0  0  0
   13.7479   -1.7990    0.0000 H   0  0  0  0  0  0  0  0  0  0  0  0
   13.1279   -1.1790    0.0000 H   0  0  0  0  0  0  0  0  0  0  0  0
   11.0910   -2.3551    0.0000 H   0  0  0  0  0  0  0  0  0  0  0  0
   11.3179   -3.2020    0.0000 H   0  0  0  0  0  0  0  0  0  0  0  0
   12.1648   -2.9751    0.0000 H   0  0  0  0  0  0  0  0  0  0  0  0
    2.3291    0.8551    0.0000 H   0  0  0  0  0  0  0  0  0  0  0  0
  1 15  1  0  0  0  0
  1 18  1  0  0  0  0
  2 25  1  0  0  0  0
  3 11  2  0  0  0  0
  4 17  1  0  0  0  0
  4 20  1  0  0  0  0
  5 17  2  0  0  0  0
 10  6  1  1  0  0  0
  6 17  1  0  0  0  0
  6 36  1  0  0  0  0
  7 11  1  0  0  0  0
 12  7  1  1  0  0  0
  7 37  1  0  0  0  0
  8 15  2  0  0  0  0
  8 19  1  0  0  0  0
  9 10  1  0  0  0  0
  9 13  1  0  0  0  0
  9 14  1  0  0  0  0
  9 28  1  0  0  0  0
 10 11  1  0  0  0  0
 10 27  1  0  0  0  0
 12 15  1  0  0  0  0
 12 16  1  0  0  0  0
 12 29  1  0  0  0  0
 13 31  1  0  0  0  0
 13 32  1  0  0  0  0
 13 33  1  0  0  0  0
 14 30  1  0  0  0  0
 14 34  1  0  0  0  0
 14 35  1  0  0  0  0
 16 38  1  0  0  0  0
 16 39  1  0  0  0  0
 16 40  1  0  0  0  0
 18 19  2  0  0  0  0
 18 21  1  0  0  0  0
 19 22  1  0  0  0  0
 20 23  1  0  0  0  0
 20 24  1  0  0  0  0
 20 41  1  0  0  0  0
 21 25  2  0  0  0  0
 21 42  1  0  0  0  0
 22 26  2  0  0  0  0
 22 43  1  0  0  0  0
 23 44  1  0  0  0  0
 23 45  1  0  0  0  0
 23 46  1  0  0  0  0
 24 47  1  0  0  0  0
 24 48  1  0  0  0  0
 24 49  1  0  0  0  0
 25 26  1  0  0  0  0
 26 50  1  0  0  0  0
M  END
> <PUBCHEM_COMPOUND_CID>
53297381

> <PUBCHEM_COMPOUND_CANONICALIZED>
1

> <PUBCHEM_CACTVS_COMPLEXITY>
506

> <PUBCHEM_CACTVS_HBOND_ACCEPTOR>
6

> <PUBCHEM_CACTVS_HBOND_DONOR>
2

> <PUBCHEM_CACTVS_ROTATABLE_BOND>
7

> <PUBCHEM_CACTVS_SUBSKEYS>
AAADceB7MQBAAAAAAAAAAAAAAAAAAWAAAAAwAAAAAAAAAFgB8AAAHwQQAAAADTzh1g4yybLIFAisASVyXACD8KBhCjhImL24ZJkIYLLgkbGcIAhglgDoyAcQAAAIAAAAAAAAAQAAAAAAAAACAAAAAAAAAA==

> <PUBCHEM_IUPAC_OPENEYE_NAME>
isopropyl N-[(1S)-1-[[(1R)-1-(6-fluoro-1,3-benzothiazol-2-yl)ethyl]carbamoyl]-2-methyl-propyl]carbamate

> <PUBCHEM_IUPAC_CAS_NAME>
N-[(2S)-1-[[(1R)-1-(6-fluoro-1,3-benzothiazol-2-yl)ethyl]amino]-3-methyl-1-oxobutan-2-yl]carbamic acid propan-2-yl ester

> <PUBCHEM_IUPAC_NAME>
propan-2-yl N-[(2S)-1-[[(1R)-1-(6-fluoro-1,3-benzothiazol-2-yl)ethyl]amino]-3-methyl-1-oxobutan-2-yl]carbamate

> <PUBCHEM_IUPAC_SYSTEMATIC_NAME>
propan-2-yl N-[(2S)-1-[[(1R)-1-(6-fluoranyl-1,3-benzothiazol-2-yl)ethyl]amino]-3-methyl-1-oxidanylidene-butan-2-yl]carbamate

> <PUBCHEM_IUPAC_TRADITIONAL_NAME>
N-[(1S)-1-[[(1R)-1-(6-fluoro-1,3-benzothiazol-2-yl)ethyl]carbamoyl]-2-methyl-propyl]carbamic acid isopropyl ester

> <PUBCHEM_IUPAC_INCHI>
InChI=1S/C18H24FN3O3S/c1-9(2)15(22-18(24)25-10(3)4)16(23)20-11(5)17-21-13-7-6-12(19)8-14(13)26-17/h6-11,15H,1-5H3,(H,20,23)(H,22,24)/t11-,15+/m1/s1

> <PUBCHEM_IUPAC_INCHIKEY>
USRKFGIXLGKMKU-ABAIWWIYSA-N

> <PUBCHEM_XLOGP3_AA>
3.9

> <PUBCHEM_EXACT_MASS>
381.152241

> <PUBCHEM_MOLECULAR_FORMULA>
C18H24FN3O3S

> <PUBCHEM_MOLECULAR_WEIGHT>
381.464863

> <PUBCHEM_OPENEYE_CAN_SMILES>
CC(C)C(C(=O)NC(C)C1=NC2=C(S1)C=C(C=C2)F)NC(=O)OC(C)C

> <PUBCHEM_OPENEYE_ISO_SMILES>
C[C@H](C1=NC2=C(S1)C=C(C=C2)F)NC(=O)[C@H](C(C)C)NC(=O)OC(C)C

> <PUBCHEM_CACTVS_TPSA>
109

> <PUBCHEM_MONOISOTOPIC_WEIGHT>
381.152241

> <PUBCHEM_TOTAL_CHARGE>
0

> <PUBCHEM_HEAVY_ATOM_COUNT>
26

> <PUBCHEM_ATOM_DEF_STEREO_COUNT>
2

> <PUBCHEM_ATOM_UDEF_STEREO_COUNT>
0

> <PUBCHEM_BOND_DEF_STEREO_COUNT>
0

> <PUBCHEM_BOND_UDEF_STEREO_COUNT>
0

> <PUBCHEM_ISOTOPIC_ATOM_COUNT>
0

> <PUBCHEM_COMPONENT_COUNT>
1

> <PUBCHEM_CACTVS_TAUTO_COUNT>
4

> <PUBCHEM_COORDINATE_TYPE>
1
5
255

> <PUBCHEM_BONDANNOTATIONS>
1  15  8
1  18  8
18  19  8
18  21  8
19  22  8
21  25  8
22  26  8
25  26  8
10  6  5
12  7  5
8  15  8
8  19  8

$$$$

