165307
  -OEChem-07051213072D

 64 66  0     0  0  0  0  0  0999 V2000
    3.0000    8.4054    0.0000 Cl  0  0  0  0  0  0  0  0  0  0  0  0
    0.0000    8.4054    0.0000 Cl  0  0  0  0  0  0  0  0  0  0  0  0
    7.7320   11.1554    0.0000 O   0  0  0  0  0  0  0  0  0  0  0  0
    7.7320    6.1554    0.0000 O   0  0  0  0  0  0  0  0  0  0  0  0
    6.0000    9.1554    0.0000 O   0  5  0  0  0  0  0  0  0  0  0  0
    6.8660   10.6554    0.0000 O   0  0  0  0  0  0  0  0  0  0  0  0
    8.6551   15.7432    0.0000 N   0  0  0  0  0  0  0  0  0  0  0  0
   10.2731    1.5677    0.0000 N   0  0  0  0  0  0  0  0  0  0  0  0
   10.2731   15.7432    0.0000 N   0  0  0  0  0  0  0  0  0  0  0  0
    8.6551    1.5677    0.0000 N   0  0  0  0  0  0  0  0  0  0  0  0
    9.4641   11.1554    0.0000 N   0  0  0  0  0  0  0  0  0  0  0  0
    9.4641    6.1554    0.0000 N   0  0  0  0  0  0  0  0  0  0  0  0
    6.8660    9.6554    0.0000 N   0  3  0  0  0  0  0  0  0  0  0  0
    8.9641   16.6943    0.0000 C   0  0  0  0  0  0  0  0  0  0  0  0
    9.9641    0.6166    0.0000 C   0  0  0  0  0  0  0  0  0  0  0  0
    9.4641   15.1554    0.0000 C   0  0  0  0  0  0  0  0  0  0  0  0
    9.4641    2.1554    0.0000 C   0  0  0  0  0  0  0  0  0  0  0  0
    9.9641   16.6943    0.0000 C   0  0  0  0  0  0  0  0  0  0  0  0
    8.9641    0.6166    0.0000 C   0  0  0  0  0  0  0  0  0  0  0  0
    9.4641   14.1554    0.0000 C   0  0  0  0  0  0  0  0  0  0  0  0
    9.4641    3.1554    0.0000 C   0  0  0  0  0  0  0  0  0  0  0  0
    9.4641   12.1554    0.0000 C   0  0  0  0  0  0  0  0  0  0  0  0
    8.5981   13.6554    0.0000 C   0  0  0  0  0  0  0  0  0  0  0  0
   10.3301   13.6554    0.0000 C   0  0  0  0  0  0  0  0  0  0  0  0
    9.4641    5.1554    0.0000 C   0  0  0  0  0  0  0  0  0  0  0  0
   10.3301    3.6554    0.0000 C   0  0  0  0  0  0  0  0  0  0  0  0
    8.5981    3.6554    0.0000 C   0  0  0  0  0  0  0  0  0  0  0  0
    8.5981    9.6554    0.0000 C   0  0  0  0  0  0  0  0  0  0  0  0
    8.5981   12.6554    0.0000 C   0  0  0  0  0  0  0  0  0  0  0  0
   10.3301   12.6554    0.0000 C   0  0  0  0  0  0  0  0  0  0  0  0
   10.3301    4.6554    0.0000 C   0  0  0  0  0  0  0  0  0  0  0  0
    8.5981    4.6554    0.0000 C   0  0  0  0  0  0  0  0  0  0  0  0
    8.5981    7.6554    0.0000 C   0  0  0  0  0  0  0  0  0  0  0  0
    7.7320    9.1554    0.0000 C   0  0  0  0  0  0  0  0  0  0  0  0
    8.5981   10.6554    0.0000 C   0  0  0  0  0  0  0  0  0  0  0  0
    7.7320    8.1554    0.0000 C   0  0  0  0  0  0  0  0  0  0  0  0
    8.5981    6.6554    0.0000 C   0  0  0  0  0  0  0  0  0  0  0  0
    9.4641    9.1554    0.0000 C   0  0  0  0  0  0  0  0  0  0  0  0
    9.4641    8.1554    0.0000 C   0  0  0  0  0  0  0  0  0  0  0  0
    9.0289   17.3109    0.0000 H   0  0  0  0  0  0  0  0  0  0  0  0
    8.3576   16.8232    0.0000 H   0  0  0  0  0  0  0  0  0  0  0  0
    9.8993    0.0000    0.0000 H   0  0  0  0  0  0  0  0  0  0  0  0
   10.5706    0.4877    0.0000 H   0  0  0  0  0  0  0  0  0  0  0  0
   10.5706   16.8232    0.0000 H   0  0  0  0  0  0  0  0  0  0  0  0
    9.8993   17.3109    0.0000 H   0  0  0  0  0  0  0  0  0  0  0  0
    8.3576    0.4877    0.0000 H   0  0  0  0  0  0  0  0  0  0  0  0
    9.0289    0.0000    0.0000 H   0  0  0  0  0  0  0  0  0  0  0  0
    8.0654   15.5516    0.0000 H   0  0  0  0  0  0  0  0  0  0  0  0
   10.8628    1.7592    0.0000 H   0  0  0  0  0  0  0  0  0  0  0  0
    8.0611   13.9654    0.0000 H   0  0  0  0  0  0  0  0  0  0  0  0
   10.8671   13.9654    0.0000 H   0  0  0  0  0  0  0  0  0  0  0  0
   10.8671    3.3454    0.0000 H   0  0  0  0  0  0  0  0  0  0  0  0
    8.0611    3.3454    0.0000 H   0  0  0  0  0  0  0  0  0  0  0  0
    8.0611   12.3454    0.0000 H   0  0  0  0  0  0  0  0  0  0  0  0
   10.8671   12.3454    0.0000 H   0  0  0  0  0  0  0  0  0  0  0  0
   10.8671    4.9654    0.0000 H   0  0  0  0  0  0  0  0  0  0  0  0
    8.0611    4.9654    0.0000 H   0  0  0  0  0  0  0  0  0  0  0  0
   10.0010   10.8454    0.0000 H   0  0  0  0  0  0  0  0  0  0  0  0
   10.0010    6.4654    0.0000 H   0  0  0  0  0  0  0  0  0  0  0  0
    7.1951    7.8454    0.0000 H   0  0  0  0  0  0  0  0  0  0  0  0
   10.0010    9.4654    0.0000 H   0  0  0  0  0  0  0  0  0  0  0  0
   10.0010    7.8454    0.0000 H   0  0  0  0  0  0  0  0  0  0  0  0
    4.0000    8.4054    0.0000 H   0  0  0  0  0  0  0  0  0  0  0  0
    1.0000    8.4054    0.0000 H   0  0  0  0  0  0  0  0  0  0  0  0
  1 63  1  0  0  0  0
  2 64  1  0  0  0  0
  3 35  2  0  0  0  0
  4 37  2  0  0  0  0
  5 13  1  0  0  0  0
  6 13  2  0  0  0  0
  7 14  1  0  0  0  0
  7 16  1  0  0  0  0
  7 48  1  0  0  0  0
  8 15  1  0  0  0  0
  8 17  1  0  0  0  0
  8 49  1  0  0  0  0
  9 16  2  0  0  0  0
  9 18  1  0  0  0  0
 10 17  2  0  0  0  0
 10 19  1  0  0  0  0
 11 22  1  0  0  0  0
 11 35  1  0  0  0  0
 11 58  1  0  0  0  0
 12 25  1  0  0  0  0
 12 37  1  0  0  0  0
 12 59  1  0  0  0  0
 13 34  1  0  0  0  0
 14 18  1  0  0  0  0
 14 40  1  0  0  0  0
 14 41  1  0  0  0  0
 15 19  1  0  0  0  0
 15 42  1  0  0  0  0
 15 43  1  0  0  0  0
 16 20  1  0  0  0  0
 17 21  1  0  0  0  0
 18 44  1  0  0  0  0
 18 45  1  0  0  0  0
 19 46  1  0  0  0  0
 19 47  1  0  0  0  0
 20 23  2  0  0  0  0
 20 24  1  0  0  0  0
 21 26  2  0  0  0  0
 21 27  1  0  0  0  0
 22 29  2  0  0  0  0
 22 30  1  0  0  0  0
 23 29  1  0  0  0  0
 23 50  1  0  0  0  0
 24 30  2  0  0  0  0
 24 51  1  0  0  0  0
 25 31  2  0  0  0  0
 25 32  1  0  0  0  0
 26 31  1  0  0  0  0
 26 52  1  0  0  0  0
 27 32  2  0  0  0  0
 27 53  1  0  0  0  0
 28 34  2  0  0  0  0
 28 35  1  0  0  0  0
 28 38  1  0  0  0  0
 29 54  1  0  0  0  0
 30 55  1  0  0  0  0
 31 56  1  0  0  0  0
 32 57  1  0  0  0  0
 33 36  2  0  0  0  0
 33 37  1  0  0  0  0
 33 39  1  0  0  0  0
 34 36  1  0  0  0  0
 36 60  1  0  0  0  0
 38 39  2  0  0  0  0
 38 61  1  0  0  0  0
 39 62  1  0  0  0  0
M  CHG  2   5  -1  13   1
M  END
> <PUBCHEM_COMPOUND_CID>
165307

> <PUBCHEM_COMPOUND_CANONICALIZED>
1

> <PUBCHEM_CACTVS_COMPLEXITY>
916

> <PUBCHEM_CACTVS_HBOND_ACCEPTOR>
6

> <PUBCHEM_CACTVS_HBOND_DONOR>
6

> <PUBCHEM_CACTVS_ROTATABLE_BOND>
6

> <PUBCHEM_CACTVS_SUBSKEYS>
AAADceB7uAAGAAAAAAAAAAAAAAAAAQIAAAAwYMAAAAAAAAABUAAAHgAUAAAADAjBmAQxwILQQACpAidydwCCAAElAgApiIEoZNoIYLrA3ZGUIYhglADIyccciACOSAAAQAACAACQAACAAAQAAAAAAAAAAA==

> <PUBCHEM_IUPAC_OPENEYE_NAME>
N1,N4-bis[4-(4,5-dihydro-1H-imidazol-2-yl)phenyl]-2-nitro-terephthalamide dihydrochloride

> <PUBCHEM_IUPAC_CAS_NAME>
N1,N4-bis[4-(4,5-dihydro-1H-imidazol-2-yl)phenyl]-2-nitrobenzene-1,4-dicarboxamide dihydrochloride

> <PUBCHEM_IUPAC_NAME>
1-N,4-N-bis[4-(4,5-dihydro-1H-imidazol-2-yl)phenyl]-2-nitrobenzene-1,4-dicarboxamide dihydrochloride

> <PUBCHEM_IUPAC_SYSTEMATIC_NAME>
N1,N4-bis[4-(4,5-dihydro-1H-imidazol-2-yl)phenyl]-2-nitro-benzene-1,4-dicarboxamide dihydrochloride

> <PUBCHEM_IUPAC_TRADITIONAL_NAME>
N,N'-bis[4-(2-imidazolin-2-yl)phenyl]-2-nitro-terephthalamide dihydrochloride

> <PUBCHEM_IUPAC_INCHI>
InChI=1S/C26H23N7O4.2ClH/c34-25(31-19-6-1-16(2-7-19)23-27-11-12-28-23)18-5-10-21(22(15-18)33(36)37)26(35)32-20-8-3-17(4-9-20)24-29-13-14-30-24;;/h1-10,15H,11-14H2,(H,27,28)(H,29,30)(H,31,34)(H,32,35);2*1H

> <PUBCHEM_IUPAC_INCHIKEY>
QQYQBVHDLFJARZ-UHFFFAOYSA-N

> <PUBCHEM_EXACT_MASS>
569.134508

> <PUBCHEM_MOLECULAR_FORMULA>
C26H25Cl2N7O4

> <PUBCHEM_MOLECULAR_WEIGHT>
570.4272

> <PUBCHEM_OPENEYE_CAN_SMILES>
C1CN=C(N1)C2=CC=C(C=C2)NC(=O)C3=CC(=C(C=C3)C(=O)NC4=CC=C(C=C4)C5=NCCN5)[N+](=O)[O-].Cl.Cl

> <PUBCHEM_OPENEYE_ISO_SMILES>
C1CN=C(N1)C2=CC=C(C=C2)NC(=O)C3=CC(=C(C=C3)C(=O)NC4=CC=C(C=C4)C5=NCCN5)[N+](=O)[O-].Cl.Cl

> <PUBCHEM_CACTVS_TPSA>
153

> <PUBCHEM_MONOISOTOPIC_WEIGHT>
569.134508

> <PUBCHEM_TOTAL_CHARGE>
0

> <PUBCHEM_HEAVY_ATOM_COUNT>
39

> <PUBCHEM_ATOM_DEF_STEREO_COUNT>
0

> <PUBCHEM_ATOM_UDEF_STEREO_COUNT>
0

> <PUBCHEM_BOND_DEF_STEREO_COUNT>
0

> <PUBCHEM_BOND_UDEF_STEREO_COUNT>
0

> <PUBCHEM_ISOTOPIC_ATOM_COUNT>
0

> <PUBCHEM_COMPONENT_COUNT>
3

> <PUBCHEM_CACTVS_TAUTO_COUNT>
9

> <PUBCHEM_COORDINATE_TYPE>
1
5
255

> <PUBCHEM_BONDANNOTATIONS>
20  23  8
20  24  8
21  26  8
21  27  8
22  29  8
22  30  8
23  29  8
24  30  8
25  31  8
25  32  8
26  31  8
27  32  8
28  34  8
28  38  8
33  36  8
33  39  8
34  36  8
38  39  8

$$$$

