   Chemical and Physical Properties References

   [1]USDA ARS - USDA chemical properties
   from [2]ChemIDplus

   Color/Form

     * White crystalline solid
     * Colorless crystals
     * Fine flakes or coarse powder

   from [3]HSDB

   Odor
        ODORLESS
   from [4]HSDB

   Melting Point
        93-94 deg C
   from [5]HSDB

   Corrosivity
        Non-corrosive
   from [6]HSDB

   Density/Specific Gravity
        1.49 @ 20 deg C
   from [7]HSDB

   Octanol/Water Partition Coefficient
        log Kow=3.20
   from [8]HSDB

   Solubilities

     * PARTIALLY SOL IN TOLUENE
     * SPARINGLY SOL IN ALIPHATIC HYDROCARBONS
     * In acetone 500, benzene 150, ethanol 150, xylene 130, n-heptane 15
       (all in g/kg at 25 deg C). Readily soluble in dimethylformamide,
       chloroform, and diethyl ether. Moderately soluble in aromatic
       hydrocarbons. Sparingly soluble in aliphatic hydrocarbons.
     * In water, 75 mg/l @ 25 deg C

   from [9]HSDB

   Spectral Properties
        Intense mass spectral peaks: 61 m/z (100%), 46 m/z (29%), 248 m/z
   (11%), 160 m/z (8%)
   from [10]HSDB

   Vapor Pressure
        1.43X10-6 mm Hg @ 25 deg C
   from [11]HSDB

   Other Chemical/Physical Properties
        Henry's Law constant= 1.97X10-9 atm-cu m/mol @ 25 deg C
   from [12]HSDB

   Computed Properties
   Molecular Weight                  249.0939 [g/mol]
   Molecular Formula                 C[9]H[10]Cl[2]N[2]O[2]
   XLogP3                            3.2
   H-Bond Donor                      1
   H-Bond Acceptor                   2
   Rotatable Bond Count              2
   Tautomer Count                    2
   Exact Mass                        248.011933
   MonoIsotopic Mass                 248.011933
   Topological Polar Surface Area    41.6
   Heavy Atom Count                  15
   Formal Charge                     0
   Complexity                        228
   Isotope Atom Count                0
   Defined Atom Stereocenter Count   0
   Undefined Atom Stereocenter Count 0
   Defined Bond Stereocenter Count   0
   Undefined Bond Stereocenter Count 0
   Covalently-Bonded Unit Count      1
   Feature 3D Acceptor Count         1
   Feature 3D Donor Count            1
   Feature 3D Ring Count             1
   Effective Rotor Count             4
   Conformer Sampling RMSD           0.6
   CID Conformer Count               [13]49

References

   1. http://www.ars.usda.gov/SP2UserFiles/ad_hoc/12755100DatabaseFiles/PesticidePropertiesDatabase/IndividualPesticideFiles/LINURON.TXT
   2. http://chem.sis.nlm.nih.gov/chemidplus/
   3. http://toxnet.nlm.nih.gov/cgi-bin/sis/search/r?dbs+hsdb:@term+@rn+@rel+330-55-2
   4. http://toxnet.nlm.nih.gov/cgi-bin/sis/search/r?dbs+hsdb:@term+@rn+@rel+330-55-2
   5. http://toxnet.nlm.nih.gov/cgi-bin/sis/search/r?dbs+hsdb:@term+@rn+@rel+330-55-2
   6. http://toxnet.nlm.nih.gov/cgi-bin/sis/search/r?dbs+hsdb:@term+@rn+@rel+330-55-2
   7. http://toxnet.nlm.nih.gov/cgi-bin/sis/search/r?dbs+hsdb:@term+@rn+@rel+330-55-2
   8. http://toxnet.nlm.nih.gov/cgi-bin/sis/search/r?dbs+hsdb:@term+@rn+@rel+330-55-2
   9. http://toxnet.nlm.nih.gov/cgi-bin/sis/search/r?dbs+hsdb:@term+@rn+@rel+330-55-2
  10. http://toxnet.nlm.nih.gov/cgi-bin/sis/search/r?dbs+hsdb:@term+@rn+@rel+330-55-2
  11. http://toxnet.nlm.nih.gov/cgi-bin/sis/search/r?dbs+hsdb:@term+@rn+@rel+330-55-2
  12. http://toxnet.nlm.nih.gov/cgi-bin/sis/search/r?dbs+hsdb:@term+@rn+@rel+330-55-2
  13. http://pubchem.ncbi.nlm.nih.gov/vw3d/vw3d.cgi?cid=9502
