32230
  -OEChem-07051213122D

 49 49  0     1  0  0  0  0  0999 V2000
    4.5981   -0.5000    0.0000 S   0  0  0  0  0  0  0  0  0  0  0  0
    5.9641   -0.1340    0.0000 S   0  0  0  0  0  0  0  0  0  0  0  0
    5.4641   -1.0000    0.0000 P   0  0  0  0  0  0  0  0  0  0  0  0
    2.8660    0.5000    0.0000 O   0  0  0  0  0  0  0  0  0  0  0  0
    6.3301   -1.5000    0.0000 O   0  0  0  0  0  0  0  0  0  0  0  0
    4.9641   -1.8660    0.0000 O   0  0  0  0  0  0  0  0  0  0  0  0
    3.7320    2.0000    0.0000 N   0  0  0  0  0  0  0  0  0  0  0  0
    2.8660    2.5000    0.0000 C   0  0  3  0  0  0  0  0  0  0  0  0
    2.8660    3.5000    0.0000 C   0  0  0  0  0  0  0  0  0  0  0  0
    3.7320    4.0000    0.0000 C   0  0  0  0  0  0  0  0  0  0  0  0
    4.5981    3.5000    0.0000 C   0  0  0  0  0  0  0  0  0  0  0  0
    4.5981    2.5000    0.0000 C   0  0  0  0  0  0  0  0  0  0  0  0
    2.0000    2.0000    0.0000 C   0  0  0  0  0  0  0  0  0  0  0  0
    3.7320    1.0000    0.0000 C   0  0  0  0  0  0  0  0  0  0  0  0
    4.5981    0.5000    0.0000 C   0  0  0  0  0  0  0  0  0  0  0  0
    6.3301   -2.5000    0.0000 C   0  0  0  0  0  0  0  0  0  0  0  0
    3.9641   -1.8660    0.0000 C   0  0  0  0  0  0  0  0  0  0  0  0
    7.1962   -3.0000    0.0000 C   0  0  0  0  0  0  0  0  0  0  0  0
    3.4641   -2.7320    0.0000 C   0  0  0  0  0  0  0  0  0  0  0  0
    2.4641   -2.7320    0.0000 C   0  0  0  0  0  0  0  0  0  0  0  0
    7.1962   -4.0000    0.0000 C   0  0  0  0  0  0  0  0  0  0  0  0
    2.8660    1.8800    0.0000 H   0  0  0  0  0  0  0  0  0  0  0  0
    2.6540    4.0826    0.0000 H   0  0  0  0  0  0  0  0  0  0  0  0
    2.2554    3.3923    0.0000 H   0  0  0  0  0  0  0  0  0  0  0  0
    4.1306    4.4750    0.0000 H   0  0  0  0  0  0  0  0  0  0  0  0
    3.3335    4.4750    0.0000 H   0  0  0  0  0  0  0  0  0  0  0  0
    5.2087    3.3923    0.0000 H   0  0  0  0  0  0  0  0  0  0  0  0
    4.8101    4.0826    0.0000 H   0  0  0  0  0  0  0  0  0  0  0  0
    4.8101    1.9174    0.0000 H   0  0  0  0  0  0  0  0  0  0  0  0
    5.2087    2.6077    0.0000 H   0  0  0  0  0  0  0  0  0  0  0  0
    1.6900    2.5369    0.0000 H   0  0  0  0  0  0  0  0  0  0  0  0
    1.4631    1.6900    0.0000 H   0  0  0  0  0  0  0  0  0  0  0  0
    2.3100    1.4631    0.0000 H   0  0  0  0  0  0  0  0  0  0  0  0
    5.2087    0.3923    0.0000 H   0  0  0  0  0  0  0  0  0  0  0  0
    4.8101    1.0826    0.0000 H   0  0  0  0  0  0  0  0  0  0  0  0
    4.0718   -1.2554    0.0000 H   0  0  0  0  0  0  0  0  0  0  0  0
    3.3815   -1.6540    0.0000 H   0  0  0  0  0  0  0  0  0  0  0  0
    5.7196   -2.3923    0.0000 H   0  0  0  0  0  0  0  0  0  0  0  0
    6.1181   -3.0826    0.0000 H   0  0  0  0  0  0  0  0  0  0  0  0
    7.8067   -3.1077    0.0000 H   0  0  0  0  0  0  0  0  0  0  0  0
    7.4082   -2.4174    0.0000 H   0  0  0  0  0  0  0  0  0  0  0  0
    3.3564   -3.3426    0.0000 H   0  0  0  0  0  0  0  0  0  0  0  0
    4.0467   -2.9441    0.0000 H   0  0  0  0  0  0  0  0  0  0  0  0
    2.4641   -2.1120    0.0000 H   0  0  0  0  0  0  0  0  0  0  0  0
    1.8441   -2.7320    0.0000 H   0  0  0  0  0  0  0  0  0  0  0  0
    2.4641   -3.3520    0.0000 H   0  0  0  0  0  0  0  0  0  0  0  0
    6.5762   -4.0000    0.0000 H   0  0  0  0  0  0  0  0  0  0  0  0
    7.1962   -4.6200    0.0000 H   0  0  0  0  0  0  0  0  0  0  0  0
    7.8162   -4.0000    0.0000 H   0  0  0  0  0  0  0  0  0  0  0  0
  1  3  1  0  0  0  0
  1 15  1  0  0  0  0
  2  3  2  0  0  0  0
  3  5  1  0  0  0  0
  3  6  1  0  0  0  0
  4 14  2  0  0  0  0
  5 16  1  0  0  0  0
  6 17  1  0  0  0  0
  7  8  1  0  0  0  0
  7 12  1  0  0  0  0
  7 14  1  0  0  0  0
  8  9  1  0  0  0  0
  8 13  1  0  0  0  0
  8 22  1  0  0  0  0
  9 10  1  0  0  0  0
  9 23  1  0  0  0  0
  9 24  1  0  0  0  0
 10 11  1  0  0  0  0
 10 25  1  0  0  0  0
 10 26  1  0  0  0  0
 11 12  1  0  0  0  0
 11 27  1  0  0  0  0
 11 28  1  0  0  0  0
 12 29  1  0  0  0  0
 12 30  1  0  0  0  0
 13 31  1  0  0  0  0
 13 32  1  0  0  0  0
 13 33  1  0  0  0  0
 14 15  1  0  0  0  0
 15 34  1  0  0  0  0
 15 35  1  0  0  0  0
 16 18  1  0  0  0  0
 16 38  1  0  0  0  0
 16 39  1  0  0  0  0
 17 19  1  0  0  0  0
 17 36  1  0  0  0  0
 17 37  1  0  0  0  0
 18 21  1  0  0  0  0
 18 40  1  0  0  0  0
 18 41  1  0  0  0  0
 19 20  1  0  0  0  0
 19 42  1  0  0  0  0
 19 43  1  0  0  0  0
 20 44  1  0  0  0  0
 20 45  1  0  0  0  0
 20 46  1  0  0  0  0
 21 47  1  0  0  0  0
 21 48  1  0  0  0  0
 21 49  1  0  0  0  0
M  END
> <PUBCHEM_COMPOUND_CID>
32230

> <PUBCHEM_COMPOUND_CANONICALIZED>
1

> <PUBCHEM_CACTVS_COMPLEXITY>
356

> <PUBCHEM_CACTVS_HBOND_ACCEPTOR>
5

> <PUBCHEM_CACTVS_HBOND_DONOR>
0

> <PUBCHEM_CACTVS_ROTATABLE_BOND>
9

> <PUBCHEM_CACTVS_SUBSKEYS>
AAADceByMAJgAAAAAAAAAAAAAAAAAAAAAAAsAAAAAAAAAAAAAAAAHgQAACAACCjlwAaCAAMAARAIAAEQEAAAAAAAAAAAAAAIAAAAAAIAgAAEAAAABgCAAAEQAAAAAAAAAAAAAAAAAAAAAAAAAAAAAAAAAA==

> <PUBCHEM_IUPAC_OPENEYE_NAME>
2-dipropoxyphosphinothioylsulfanyl-1-(2-methyl-1-piperidyl)ethanone

> <PUBCHEM_IUPAC_CAS_NAME>
2-(dipropoxyphosphinothioylthio)-1-(2-methyl-1-piperidinyl)ethanone

> <PUBCHEM_IUPAC_NAME>
2-dipropoxyphosphinothioylsulfanyl-1-(2-methylpiperidin-1-yl)ethanone

> <PUBCHEM_IUPAC_SYSTEMATIC_NAME>
2-dipropoxyphosphinothioylsulfanyl-1-(2-methylpiperidin-1-yl)ethanone

> <PUBCHEM_IUPAC_TRADITIONAL_NAME>
2-(dipropoxythiophosphorylthio)-1-(2-methylpiperidino)ethanone

> <PUBCHEM_IUPAC_INCHI>
InChI=1S/C14H28NO3PS2/c1-4-10-17-19(20,18-11-5-2)21-12-14(16)15-9-7-6-8-13(15)3/h13H,4-12H2,1-3H3

> <PUBCHEM_IUPAC_INCHIKEY>
UNLYSVIDNRIVFJ-UHFFFAOYSA-N

> <PUBCHEM_XLOGP3_AA>
4.2

> <PUBCHEM_EXACT_MASS>
353.124822

> <PUBCHEM_MOLECULAR_FORMULA>
C14H28NO3PS2

> <PUBCHEM_MOLECULAR_WEIGHT>
353.480782

> <PUBCHEM_OPENEYE_CAN_SMILES>
CCCOP(=S)(OCCC)SCC(=O)N1CCCCC1C

> <PUBCHEM_OPENEYE_ISO_SMILES>
CCCOP(=S)(OCCC)SCC(=O)N1CCCCC1C

> <PUBCHEM_CACTVS_TPSA>
96.2

> <PUBCHEM_MONOISOTOPIC_WEIGHT>
353.124822

> <PUBCHEM_TOTAL_CHARGE>
0

> <PUBCHEM_HEAVY_ATOM_COUNT>
21

> <PUBCHEM_ATOM_DEF_STEREO_COUNT>
0

> <PUBCHEM_ATOM_UDEF_STEREO_COUNT>
1

> <PUBCHEM_BOND_DEF_STEREO_COUNT>
0

> <PUBCHEM_BOND_UDEF_STEREO_COUNT>
0

> <PUBCHEM_ISOTOPIC_ATOM_COUNT>
0

> <PUBCHEM_COMPONENT_COUNT>
1

> <PUBCHEM_CACTVS_TAUTO_COUNT>
1

> <PUBCHEM_COORDINATE_TYPE>
1
5
255

> <PUBCHEM_BONDANNOTATIONS>
8  13  3

$$$$

