5481
  -OEChem-06261200422D

 82 88  0     1  0  0  0  0  0999 V2000
    7.2333   -1.7052    0.0000 O   0  0  0  0  0  0  0  0  0  0  0  0
    6.3210   -2.4959    0.0000 O   0  0  0  0  0  0  0  0  0  0  0  0
    6.0169   -3.5501    0.0000 O   0  0  0  0  0  0  0  0  0  0  0  0
    8.4766    0.2331    0.0000 O   0  0  0  0  0  0  0  0  0  0  0  0
    9.2897    0.7019    0.0000 O   0  0  0  0  0  0  0  0  0  0  0  0
    6.2448    0.8464    0.0000 O   0  0  0  0  0  0  0  0  0  0  0  0
    4.5321    1.1046    0.0000 O   0  0  0  0  0  0  0  0  0  0  0  0
    2.4847    4.9527    0.0000 O   0  0  0  0  0  0  0  0  0  0  0  0
    8.1557   -2.3686    0.0000 C   0  0  3  0  0  0  0  0  0  0  0  0
    7.2434   -2.3686    0.0000 C   0  0  3  0  0  0  0  0  0  0  0  0
    6.7873   -3.1587    0.0000 C   0  0  3  0  0  0  0  0  0  0  0  0
    7.2434   -3.9487    0.0000 C   0  0  3  0  0  0  0  0  0  0  0  0
    8.6118   -3.1587    0.0000 C   0  0  3  0  0  0  0  0  0  0  0  0
    8.7245   -1.6553    0.0000 C   0  0  3  0  0  0  0  0  0  0  0  0
    8.1557   -3.9487    0.0000 C   0  0  0  0  0  0  0  0  0  0  0  0
    5.3884   -2.4959    0.0000 C   0  0  3  0  0  0  0  0  0  0  0  0
    8.5215   -0.7659    0.0000 C   0  0  3  0  0  0  0  0  0  0  0  0
    6.6746   -1.6553    0.0000 C   0  0  0  0  0  0  0  0  0  0  0  0
    9.6118   -3.1587    0.0000 C   0  0  0  0  0  0  0  0  0  0  0  0
    7.6996   -0.3701    0.0000 C   0  0  0  0  0  0  0  0  0  0  0  0
    7.0869   -4.9364    0.0000 C   0  0  0  0  0  0  0  0  0  0  0  0
    9.6331   -1.7371    0.0000 C   0  0  0  0  0  0  0  0  0  0  0  0
    6.8776   -0.7659    0.0000 C   0  0  0  0  0  0  0  0  0  0  0  0
    4.4374   -2.1869    0.0000 C   0  0  0  0  0  0  0  0  0  0  0  0
    9.3047   -0.2980    0.0000 C   0  0  0  0  0  0  0  0  0  0  0  0
    9.9917   -0.8982    0.0000 C   0  0  0  0  0  0  0  0  0  0  0  0
    7.8640   -5.5658    0.0000 C   0  0  0  0  0  0  0  0  0  0  0  0
    6.0958   -0.1424    0.0000 C   0  0  0  0  0  0  0  0  0  0  0  0
    6.1533   -5.2947    0.0000 C   0  0  0  0  0  0  0  0  0  0  0  0
    3.6942   -2.8560    0.0000 C   0  0  0  0  0  0  0  0  0  0  0  0
   10.9666   -0.6757    0.0000 C   0  0  0  0  0  0  0  0  0  0  0  0
    2.7432   -2.5470    0.0000 C   0  0  0  0  0  0  0  0  0  0  0  0
    3.9021   -3.8341    0.0000 C   0  0  0  0  0  0  0  0  0  0  0  0
    2.0000   -3.2161    0.0000 C   0  0  0  0  0  0  0  0  0  0  0  0
    3.1590   -4.5033    0.0000 C   0  0  0  0  0  0  0  0  0  0  0  0
    5.4630    1.4699    0.0000 C   0  0  0  0  0  0  0  0  0  0  0  0
    2.2079   -4.1942    0.0000 C   0  0  0  0  0  0  0  0  0  0  0  0
    5.6120    2.4587    0.0000 C   0  0  0  0  0  0  0  0  0  0  0  0
    4.8302    3.0822    0.0000 C   0  0  0  0  0  0  0  0  0  0  0  0
    4.9793    4.0710    0.0000 C   0  0  0  0  0  0  0  0  0  0  0  0
    3.8993    2.7169    0.0000 C   0  0  0  0  0  0  0  0  0  0  0  0
    4.1974    4.6945    0.0000 C   0  0  0  0  0  0  0  0  0  0  0  0
    3.1175    3.3404    0.0000 C   0  0  0  0  0  0  0  0  0  0  0  0
    3.2666    4.3292    0.0000 C   0  0  0  0  0  0  0  0  0  0  0  0
    6.6251   -2.4149    0.0000 H   0  0  0  0  0  0  0  0  0  0  0  0
    6.2647   -3.4924    0.0000 H   0  0  0  0  0  0  0  0  0  0  0  0
    8.9218   -2.6217    0.0000 H   0  0  0  0  0  0  0  0  0  0  0  0
    8.9682   -2.2254    0.0000 H   0  0  0  0  0  0  0  0  0  0  0  0
    8.0480   -4.5593    0.0000 H   0  0  0  0  0  0  0  0  0  0  0  0
    8.7383   -4.1608    0.0000 H   0  0  0  0  0  0  0  0  0  0  0  0
    6.0701   -1.7933    0.0000 H   0  0  0  0  0  0  0  0  0  0  0  0
    9.6118   -3.7787    0.0000 H   0  0  0  0  0  0  0  0  0  0  0  0
   10.2318   -3.1587    0.0000 H   0  0  0  0  0  0  0  0  0  0  0  0
    9.6118   -2.5387    0.0000 H   0  0  0  0  0  0  0  0  0  0  0  0
    8.0861    0.1146    0.0000 H   0  0  0  0  0  0  0  0  0  0  0  0
    7.3130    0.1146    0.0000 H   0  0  0  0  0  0  0  0  0  0  0  0
    9.9511   -2.2694    0.0000 H   0  0  0  0  0  0  0  0  0  0  0  0
    4.7284   -1.6394    0.0000 H   0  0  0  0  0  0  0  0  0  0  0  0
    3.9488   -1.8052    0.0000 H   0  0  0  0  0  0  0  0  0  0  0  0
    7.9263    0.5187    0.0000 H   0  0  0  0  0  0  0  0  0  0  0  0
    7.4738   -6.0476    0.0000 H   0  0  0  0  0  0  0  0  0  0  0  0
    8.3458   -5.9560    0.0000 H   0  0  0  0  0  0  0  0  0  0  0  0
    8.2542   -5.0840    0.0000 H   0  0  0  0  0  0  0  0  0  0  0  0
    5.5081    0.0550    0.0000 H   0  0  0  0  0  0  0  0  0  0  0  0
    5.7993   -0.6869    0.0000 H   0  0  0  0  0  0  0  0  0  0  0  0
    5.6715   -4.9045    0.0000 H   0  0  0  0  0  0  0  0  0  0  0  0
    6.0563   -5.9071    0.0000 H   0  0  0  0  0  0  0  0  0  0  0  0
   11.1046   -1.2802    0.0000 H   0  0  0  0  0  0  0  0  0  0  0  0
   11.5711   -0.5378    0.0000 H   0  0  0  0  0  0  0  0  0  0  0  0
   10.8286   -0.0713    0.0000 H   0  0  0  0  0  0  0  0  0  0  0  0
    2.6142   -1.9405    0.0000 H   0  0  0  0  0  0  0  0  0  0  0  0
    4.4918   -4.0257    0.0000 H   0  0  0  0  0  0  0  0  0  0  0  0
    1.4104   -3.0245    0.0000 H   0  0  0  0  0  0  0  0  0  0  0  0
    3.2879   -5.1097    0.0000 H   0  0  0  0  0  0  0  0  0  0  0  0
    1.7472   -4.6091    0.0000 H   0  0  0  0  0  0  0  0  0  0  0  0
    6.1998    2.2613    0.0000 H   0  0  0  0  0  0  0  0  0  0  0  0
    5.9086    3.0032    0.0000 H   0  0  0  0  0  0  0  0  0  0  0  0
    5.5564    4.2976    0.0000 H   0  0  0  0  0  0  0  0  0  0  0  0
    3.8069    2.1038    0.0000 H   0  0  0  0  0  0  0  0  0  0  0  0
    4.2898    5.3076    0.0000 H   0  0  0  0  0  0  0  0  0  0  0  0
    2.5404    3.1139    0.0000 H   0  0  0  0  0  0  0  0  0  0  0  0
    2.5771    5.5658    0.0000 H   0  0  0  0  0  0  0  0  0  0  0  0
  1  9  1  0  0  0  0
  1 16  1  0  0  0  0
  2 11  1  0  0  0  0
  2 16  1  0  0  0  0
  3 12  1  0  0  0  0
  3 16  1  0  0  0  0
  4 17  1  0  0  0  0
  4 60  1  0  0  0  0
  5 25  2  0  0  0  0
  6 28  1  0  0  0  0
  6 36  1  0  0  0  0
  7 36  2  0  0  0  0
  8 44  1  0  0  0  0
  8 82  1  0  0  0  0
  9 10  1  0  0  0  0
  9 13  1  0  0  0  0
  9 14  1  0  0  0  0
 10 11  1  0  0  0  0
 10 18  1  0  0  0  0
 10 45  1  0  0  0  0
 11 12  1  0  0  0  0
 11 46  1  0  0  0  0
 12 15  1  0  0  0  0
 12 21  1  0  0  0  0
 13 15  1  0  0  0  0
 13 19  1  0  0  0  0
 13 47  1  0  0  0  0
 14 17  1  0  0  0  0
 14 22  1  0  0  0  0
 14 48  1  0  0  0  0
 15 49  1  0  0  0  0
 15 50  1  0  0  0  0
 16 24  1  0  0  0  0
 17 20  1  0  0  0  0
 17 25  1  0  0  0  0
 18 23  2  0  0  0  0
 18 51  1  0  0  0  0
 19 52  1  0  0  0  0
 19 53  1  0  0  0  0
 19 54  1  0  0  0  0
 20 23  1  0  0  0  0
 20 55  1  0  0  0  0
 20 56  1  0  0  0  0
 21 27  1  0  0  0  0
 21 29  2  0  0  0  0
 22 26  2  0  0  0  0
 22 57  1  0  0  0  0
 23 28  1  0  0  0  0
 24 30  1  0  0  0  0
 24 58  1  0  0  0  0
 24 59  1  0  0  0  0
 25 26  1  0  0  0  0
 26 31  1  0  0  0  0
 27 61  1  0  0  0  0
 27 62  1  0  0  0  0
 27 63  1  0  0  0  0
 28 64  1  0  0  0  0
 28 65  1  0  0  0  0
 29 66  1  0  0  0  0
 29 67  1  0  0  0  0
 30 32  2  0  0  0  0
 30 33  1  0  0  0  0
 31 68  1  0  0  0  0
 31 69  1  0  0  0  0
 31 70  1  0  0  0  0
 32 34  1  0  0  0  0
 32 71  1  0  0  0  0
 33 35  2  0  0  0  0
 33 72  1  0  0  0  0
 34 37  2  0  0  0  0
 34 73  1  0  0  0  0
 35 37  1  0  0  0  0
 35 74  1  0  0  0  0
 36 38  1  0  0  0  0
 37 75  1  0  0  0  0
 38 39  1  0  0  0  0
 38 76  1  0  0  0  0
 38 77  1  0  0  0  0
 39 40  2  0  0  0  0
 39 41  1  0  0  0  0
 40 42  1  0  0  0  0
 40 78  1  0  0  0  0
 41 43  2  0  0  0  0
 41 79  1  0  0  0  0
 42 44  2  0  0  0  0
 42 80  1  0  0  0  0
 43 44  1  0  0  0  0
 43 81  1  0  0  0  0
M  END
> <PUBCHEM_COMPOUND_CID>
5481

> <PUBCHEM_COMPOUND_CANONICALIZED>
1

> <PUBCHEM_CACTVS_COMPLEXITY>
1270

> <PUBCHEM_CACTVS_HBOND_ACCEPTOR>
8

> <PUBCHEM_CACTVS_HBOND_DONOR>
2

> <PUBCHEM_CACTVS_ROTATABLE_BOND>
8

> <PUBCHEM_CACTVS_SUBSKEYS>
AAADcfB8PAAAAAAAAAAAAAAAAAAAASIAAAA0YMEABIgAAACBQAAAGgAACAAADVSgmAIyDoAABgCIAqDSCAICAAAgIAAIiAFGCMgZJjKCNRKicAAlwBEOuYfK7PyOoAAAAAAAAADCAAYQADCAAAAAAAAAAA==

> <PUBCHEM_IUPAC_INCHI>
InChI=1S/C36H38O8/c1-21(2)34-17-23(4)36-28(32(34)42-35(43-34,44-36)19-25-8-6-5-7-9-25)15-26(18-33(40)29(36)14-22(3)31(33)39)20-41-30(38)16-24-10-12-27(37)13-11-24/h5-15,23,28-29,32,37,40H,1,16-20H2,2-4H3

> <PUBCHEM_IUPAC_INCHIKEY>
WWZMXEIBZCEIFB-UHFFFAOYSA-N

> <PUBCHEM_XLOGP3_AA>
4.5

> <PUBCHEM_EXACT_MASS>
598.256668

> <PUBCHEM_MOLECULAR_FORMULA>
C36H38O8

> <PUBCHEM_MOLECULAR_WEIGHT>
598.68212

> <PUBCHEM_OPENEYE_CAN_SMILES>
CC1CC2(C3C4C1(C5C=C(C(=O)C5(CC(=C4)COC(=O)CC6=CC=C(C=C6)O)O)C)OC(O3)(O2)CC7=CC=CC=C7)C(=C)C

> <PUBCHEM_OPENEYE_ISO_SMILES>
CC1CC2(C3C4C1(C5C=C(C(=O)C5(CC(=C4)COC(=O)CC6=CC=C(C=C6)O)O)C)OC(O3)(O2)CC7=CC=CC=C7)C(=C)C

> <PUBCHEM_CACTVS_TPSA>
112

> <PUBCHEM_MONOISOTOPIC_WEIGHT>
598.256668

> <PUBCHEM_TOTAL_CHARGE>
0

> <PUBCHEM_HEAVY_ATOM_COUNT>
44

> <PUBCHEM_ATOM_DEF_STEREO_COUNT>
0

> <PUBCHEM_ATOM_UDEF_STEREO_COUNT>
8

> <PUBCHEM_BOND_DEF_STEREO_COUNT>
0

> <PUBCHEM_BOND_UDEF_STEREO_COUNT>
0

> <PUBCHEM_ISOTOPIC_ATOM_COUNT>
0

> <PUBCHEM_COMPONENT_COUNT>
1

> <PUBCHEM_CACTVS_TAUTO_COUNT>
6

> <PUBCHEM_COORDINATE_TYPE>
1
5
255

> <PUBCHEM_BONDANNOTATIONS>
9  1  3
10  18  3
12  21  3
13  19  3
14  22  3
16  24  3
11  2  3
30  32  8
30  33  8
32  34  8
33  35  8
34  37  8
35  37  8
39  40  8
39  41  8
17  4  3
40  42  8
41  43  8
42  44  8
43  44  8

$$$$

