17396108
  -OEChem-06241222542D

 45 49  0     1  0  0  0  0  0999 V2000
    8.5390    2.4308    0.0000 Cl  0  0  0  0  0  0  0  0  0  0  0  0
    4.9718   -1.5580    0.0000 S   0  0  0  0  0  0  0  0  0  0  0  0
    4.1613    1.0240    0.0000 O   0  0  0  0  0  0  0  0  0  0  0  0
    6.8069   -1.5692    0.0000 O   0  0  0  0  0  0  0  0  0  0  0  0
   10.3512   -0.3740    0.0000 O   0  0  0  0  0  0  0  0  0  0  0  0
   10.3512    1.2355    0.0000 O   0  0  0  0  0  0  0  0  0  0  0  0
    5.9409   -0.0692    0.0000 N   0  0  0  0  0  0  0  0  0  0  0  0
    4.1671   -0.1641    0.0000 N   0  0  0  0  0  0  0  0  0  0  0  0
    5.0749    1.4308    0.0000 C   0  0  3  0  0  0  0  0  0  0  0  0
    4.9703    2.4253    0.0000 C   0  0  0  0  0  0  0  0  0  0  0  0
    3.9922    2.6332    0.0000 C   0  0  0  0  0  0  0  0  0  0  0  0
    5.9409    0.9308    0.0000 C   0  0  0  0  0  0  0  0  0  0  0  0
    3.4922    1.7672    0.0000 C   0  0  0  0  0  0  0  0  0  0  0  0
    5.0749   -0.5692    0.0000 C   0  0  0  0  0  0  0  0  0  0  0  0
    6.8069   -0.5692    0.0000 C   0  0  0  0  0  0  0  0  0  0  0  0
    7.6730   -0.0692    0.0000 C   0  0  0  0  0  0  0  0  0  0  0  0
    8.5390   -0.5692    0.0000 C   0  0  0  0  0  0  0  0  0  0  0  0
    4.0000   -1.7672    0.0000 C   0  0  0  0  0  0  0  0  0  0  0  0
    3.5000   -0.9011    0.0000 C   0  0  0  0  0  0  0  0  0  0  0  0
    7.6730    0.9308    0.0000 C   0  0  0  0  0  0  0  0  0  0  0  0
    9.4050   -0.0692    0.0000 C   0  0  0  0  0  0  0  0  0  0  0  0
    9.4050    0.9308    0.0000 C   0  0  0  0  0  0  0  0  0  0  0  0
    8.5390    1.4308    0.0000 C   0  0  0  0  0  0  0  0  0  0  0  0
    3.5000   -2.6332    0.0000 C   0  0  0  0  0  0  0  0  0  0  0  0
    2.5000   -0.9011    0.0000 C   0  0  0  0  0  0  0  0  0  0  0  0
   10.9348    0.4308    0.0000 C   0  0  0  0  0  0  0  0  0  0  0  0
    2.5000   -2.6332    0.0000 C   0  0  0  0  0  0  0  0  0  0  0  0
    2.0000   -1.7672    0.0000 C   0  0  0  0  0  0  0  0  0  0  0  0
    5.0424    0.8116    0.0000 H   0  0  0  0  0  0  0  0  0  0  0  0
    5.5903    2.4253    0.0000 H   0  0  0  0  0  0  0  0  0  0  0  0
    5.0352    3.0419    0.0000 H   0  0  0  0  0  0  0  0  0  0  0  0
    4.1838    3.2229    0.0000 H   0  0  0  0  0  0  0  0  0  0  0  0
    3.4258    2.8854    0.0000 H   0  0  0  0  0  0  0  0  0  0  0  0
    6.5515    0.8231    0.0000 H   0  0  0  0  0  0  0  0  0  0  0  0
    6.1530    1.5134    0.0000 H   0  0  0  0  0  0  0  0  0  0  0  0
    2.9906    2.1316    0.0000 H   0  0  0  0  0  0  0  0  0  0  0  0
    3.0773    1.3064    0.0000 H   0  0  0  0  0  0  0  0  0  0  0  0
    8.5390   -1.1892    0.0000 H   0  0  0  0  0  0  0  0  0  0  0  0
    7.1360    1.2408    0.0000 H   0  0  0  0  0  0  0  0  0  0  0  0
    3.8100   -3.1701    0.0000 H   0  0  0  0  0  0  0  0  0  0  0  0
    2.1900   -0.3642    0.0000 H   0  0  0  0  0  0  0  0  0  0  0  0
   11.3957    0.0160    0.0000 H   0  0  0  0  0  0  0  0  0  0  0  0
   11.3957    0.8455    0.0000 H   0  0  0  0  0  0  0  0  0  0  0  0
    2.1900   -3.1701    0.0000 H   0  0  0  0  0  0  0  0  0  0  0  0
    1.3800   -1.7672    0.0000 H   0  0  0  0  0  0  0  0  0  0  0  0
  1 23  1  0  0  0  0
  2 14  1  0  0  0  0
  2 18  1  0  0  0  0
  3  9  1  0  0  0  0
  3 13  1  0  0  0  0
  4 15  2  0  0  0  0
  5 21  1  0  0  0  0
  5 26  1  0  0  0  0
  6 22  1  0  0  0  0
  6 26  1  0  0  0  0
  7 12  1  0  0  0  0
  7 14  1  0  0  0  0
  7 15  1  0  0  0  0
  8 14  2  0  0  0  0
  8 19  1  0  0  0  0
  9 10  1  0  0  0  0
  9 12  1  0  0  0  0
  9 29  1  0  0  0  0
 10 11  1  0  0  0  0
 10 30  1  0  0  0  0
 10 31  1  0  0  0  0
 11 13  1  0  0  0  0
 11 32  1  0  0  0  0
 11 33  1  0  0  0  0
 12 34  1  0  0  0  0
 12 35  1  0  0  0  0
 13 36  1  0  0  0  0
 13 37  1  0  0  0  0
 15 16  1  0  0  0  0
 16 17  2  0  0  0  0
 16 20  1  0  0  0  0
 17 21  1  0  0  0  0
 17 38  1  0  0  0  0
 18 19  1  0  0  0  0
 18 24  2  0  0  0  0
 19 25  2  0  0  0  0
 20 23  2  0  0  0  0
 20 39  1  0  0  0  0
 21 22  2  0  0  0  0
 22 23  1  0  0  0  0
 24 27  1  0  0  0  0
 24 40  1  0  0  0  0
 25 28  1  0  0  0  0
 25 41  1  0  0  0  0
 26 42  1  0  0  0  0
 26 43  1  0  0  0  0
 27 28  2  0  0  0  0
 27 44  1  0  0  0  0
 28 45  1  0  0  0  0
M  END
> <PUBCHEM_COMPOUND_CID>
17396108

> <PUBCHEM_COMPOUND_CANONICALIZED>
1

> <PUBCHEM_CACTVS_COMPLEXITY>
584

> <PUBCHEM_CACTVS_HBOND_ACCEPTOR>
6

> <PUBCHEM_CACTVS_HBOND_DONOR>
0

> <PUBCHEM_CACTVS_ROTATABLE_BOND>
4

> <PUBCHEM_CACTVS_SUBSKEYS>
AAADceB7OABEAAAAAAAAAAAAAAAAAWJEgAAwYAAAAAAAAFgB9AAAHgYAAAAADB7h3icx37MIFAisAyVydACD+KllL3hJmD0+79ifJrPlv5unMSpsxxPe6ae63BLOIAABIQAASQBAAAJCAACSAAAAAAAAAA==

> <PUBCHEM_IUPAC_OPENEYE_NAME>
N-(1,3-benzothiazol-2-yl)-7-chloro-N-(tetrahydrofuran-2-ylmethyl)-1,3-benzodioxole-5-carboxamide

> <PUBCHEM_IUPAC_CAS_NAME>
N-(1,3-benzothiazol-2-yl)-7-chloro-N-(2-oxolanylmethyl)-1,3-benzodioxole-5-carboxamide

> <PUBCHEM_IUPAC_NAME>
N-(1,3-benzothiazol-2-yl)-7-chloro-N-(oxolan-2-ylmethyl)-1,3-benzodioxole-5-carboxamide

> <PUBCHEM_IUPAC_SYSTEMATIC_NAME>
N-(1,3-benzothiazol-2-yl)-7-chloranyl-N-(oxolan-2-ylmethyl)-1,3-benzodioxole-5-carboxamide

> <PUBCHEM_IUPAC_TRADITIONAL_NAME>
N-(1,3-benzothiazol-2-yl)-7-chloro-N-(tetrahydrofurfuryl)-piperonylamide

> <PUBCHEM_IUPAC_INCHI>
InChI=1S/C20H17ClN2O4S/c21-14-8-12(9-16-18(14)27-11-26-16)19(24)23(10-13-4-3-7-25-13)20-22-15-5-1-2-6-17(15)28-20/h1-2,5-6,8-9,13H,3-4,7,10-11H2

> <PUBCHEM_IUPAC_INCHIKEY>
RBHXEPCXARYCFS-UHFFFAOYSA-N

> <PUBCHEM_XLOGP3_AA>
4.6

> <PUBCHEM_EXACT_MASS>
416.059756

> <PUBCHEM_MOLECULAR_FORMULA>
C20H17ClN2O4S

> <PUBCHEM_MOLECULAR_WEIGHT>
416.87798

> <PUBCHEM_OPENEYE_CAN_SMILES>
C1CC(OC1)CN(C2=NC3=CC=CC=C3S2)C(=O)C4=CC5=C(C(=C4)Cl)OCO5

> <PUBCHEM_OPENEYE_ISO_SMILES>
C1CC(OC1)CN(C2=NC3=CC=CC=C3S2)C(=O)C4=CC5=C(C(=C4)Cl)OCO5

> <PUBCHEM_CACTVS_TPSA>
89.1

> <PUBCHEM_MONOISOTOPIC_WEIGHT>
416.059756

> <PUBCHEM_TOTAL_CHARGE>
0

> <PUBCHEM_HEAVY_ATOM_COUNT>
28

> <PUBCHEM_ATOM_DEF_STEREO_COUNT>
0

> <PUBCHEM_ATOM_UDEF_STEREO_COUNT>
1

> <PUBCHEM_BOND_DEF_STEREO_COUNT>
0

> <PUBCHEM_BOND_UDEF_STEREO_COUNT>
0

> <PUBCHEM_ISOTOPIC_ATOM_COUNT>
0

> <PUBCHEM_COMPONENT_COUNT>
1

> <PUBCHEM_CACTVS_TAUTO_COUNT>
1

> <PUBCHEM_COORDINATE_TYPE>
1
5
255

> <PUBCHEM_BONDANNOTATIONS>
16  17  8
16  20  8
17  21  8
18  19  8
18  24  8
19  25  8
2  14  8
2  18  8
20  23  8
21  22  8
22  23  8
24  27  8
25  28  8
27  28  8
8  14  8
8  19  8
9  12  3

$$$$

