   Color/Form

     * Yellowish liquid
     * Viscous pale yellow liquid or crystalline mass

   from [1]HSDB

   Odor
        Odorless
   from [2]HSDB

   Boiling Point
        Decomposes on distillation
   from [3]HSDB

   Melting Point
        25-26 deg C
   from [4]HSDB

   Corrosivity
        Non-corrosive in general, tinplate is an exception
   from [5]HSDB

   Density/Specific Gravity
        1.361 at 20 deg C
   from [6]HSDB

   Octanol/Water Partition Coefficient
        log Kow = 1.48
   from [7]HSDB

   Solubilities

     * Completely miscible with common organic solvents, e.g. alcohols,
       ethers, ketones, chloroform, benzene, toluene, xylene; slightly
       soluble in hexane; very slightly soluble in ligroin and paraffin
       oil.
     * MISCIBLE WITH ... DIETHYL ETHER
     * In water, 2.6X10+3 mg/L at 24 deg C

   from [8]HSDB

   Spectral Properties

     * INDEX OF REFRACTION: 1.5541 AT 20 DEG C/D
     * Intense mass spectral peaks: 93 m/z (100%), 125 m/z (83%), 126 m/z
       (47%), 79 m/z (34%)

   from [9]HSDB

   Vapor Pressure
        8.48X10-7 mm Hg at 30 deg C
   from [10]HSDB

   Other Chemical/Physical Properties

     * SOLIDIFIES AT ABOUT 25 DEG C
     * Extremely stable to acids
     * Emulsifiable concentrate hydrolyzed by water to dimethoate and
       (dimethoxyphosphinothioylthio)acetic acid; DT50 < 1 day (pH 3-9, 25
       deg C). Hydrolyzed more rapidly in alkaline media. Dilute solutions
       in non-polar organic solvents are stable.
     * Henry's Law constant = 1.10X10-10 atm-cu m/mol at 25 deg C (est)
     * Hydroxyl radical reaction rate constant = 8,85X10-11 cu
       cm/molec-sec at 25 deg C (est)

   from [11]HSDB

   Computed Properties
   Molecular Weight                  257.267542 [g/mol]
   Molecular Formula                 C[6]H[12]NO[4]PS[2]
   XLogP3                            1.5
   H-Bond Donor                      0
   H-Bond Acceptor                   6
   Rotatable Bond Count              5
   Exact Mass                        256.994536
   MonoIsotopic Mass                 256.994536
   Topological Polar Surface Area    113
   Heavy Atom Count                  14
   Formal Charge                     0
   Complexity                        252
   Isotope Atom Count                0
   Defined Atom Stereocenter Count   0
   Undefined Atom Stereocenter Count 0
   Defined Bond Stereocenter Count   0
   Undefined Bond Stereocenter Count 0
   Covalently-Bonded Unit Count      1
   Feature 3D Acceptor Count         2
   Effective Rotor Count             7
   Conformer Sampling RMSD           0.8
   CID Conformer Count               [12]159

References

   1. http://toxnet.nlm.nih.gov/cgi-bin/sis/search/r?dbs+hsdb:@term+@rn+@rel+2540-82-1
   2. http://toxnet.nlm.nih.gov/cgi-bin/sis/search/r?dbs+hsdb:@term+@rn+@rel+2540-82-1
   3. http://toxnet.nlm.nih.gov/cgi-bin/sis/search/r?dbs+hsdb:@term+@rn+@rel+2540-82-1
   4. http://toxnet.nlm.nih.gov/cgi-bin/sis/search/r?dbs+hsdb:@term+@rn+@rel+2540-82-1
   5. http://toxnet.nlm.nih.gov/cgi-bin/sis/search/r?dbs+hsdb:@term+@rn+@rel+2540-82-1
   6. http://toxnet.nlm.nih.gov/cgi-bin/sis/search/r?dbs+hsdb:@term+@rn+@rel+2540-82-1
   7. http://toxnet.nlm.nih.gov/cgi-bin/sis/search/r?dbs+hsdb:@term+@rn+@rel+2540-82-1
   8. http://toxnet.nlm.nih.gov/cgi-bin/sis/search/r?dbs+hsdb:@term+@rn+@rel+2540-82-1
   9. http://toxnet.nlm.nih.gov/cgi-bin/sis/search/r?dbs+hsdb:@term+@rn+@rel+2540-82-1
  10. http://toxnet.nlm.nih.gov/cgi-bin/sis/search/r?dbs+hsdb:@term+@rn+@rel+2540-82-1
  11. http://toxnet.nlm.nih.gov/cgi-bin/sis/search/r?dbs+hsdb:@term+@rn+@rel+2540-82-1
  12. http://pubchem.ncbi.nlm.nih.gov/vw3d/vw3d.cgi?cid=17345
