224006
  -OEChem-07051213072D

 60 63  0     1  0  0  0  0  0999 V2000
    8.6500    2.8322    0.0000 O   0  0  0  0  0  0  0  0  0  0  0  0
    5.6489   -2.4923    0.0000 O   0  0  0  0  0  0  0  0  0  0  0  0
    2.0000   -1.4754    0.0000 O   0  0  0  0  0  0  0  0  0  0  0  0
   10.2963    2.2941    0.0000 O   0  0  0  0  0  0  0  0  0  0  0  0
    7.3810   -2.4856    0.0000 O   0  0  0  0  0  0  0  0  0  0  0  0
    7.3931    0.5770    0.0000 C   0  0  2  0  0  0  0  0  0  0  0  0
    7.3931    1.5770    0.0000 C   0  0  2  0  0  0  0  0  0  0  0  0
    6.5271    0.0770    0.0000 C   0  0  1  0  0  0  0  0  0  0  0  0
    5.6610    0.5770    0.0000 C   0  0  1  0  0  0  0  0  0  0  0  0
    4.7510    0.0701    0.0000 C   0  0  2  0  0  0  0  0  0  0  0  0
    6.5271    2.0770    0.0000 C   0  0  0  0  0  0  0  0  0  0  0  0
    5.6610    1.5770    0.0000 C   0  0  0  0  0  0  0  0  0  0  0  0
    8.3393    1.8817    0.0000 C   0  0  2  0  0  0  0  0  0  0  0  0
    8.3393    0.2722    0.0000 C   0  0  0  0  0  0  0  0  0  0  0  0
    6.5431   -0.9646    0.0000 C   0  0  0  0  0  0  0  0  0  0  0  0
    8.9229    1.0770    0.0000 C   0  0  0  0  0  0  0  0  0  0  0  0
    4.7430   -0.9715    0.0000 C   0  0  0  0  0  0  0  0  0  0  0  0
    5.6451   -1.4923    0.0000 C   0  0  2  0  0  0  0  0  0  0  0  0
    7.3931    2.5770    0.0000 C   0  0  0  0  0  0  0  0  0  0  0  0
    3.8242    0.6342    0.0000 C   0  0  0  0  0  0  0  0  0  0  0  0
    4.7587    1.0701    0.0000 C   0  0  0  0  0  0  0  0  0  0  0  0
    2.8763    0.1062    0.0000 C   0  0  0  0  0  0  0  0  0  0  0  0
    3.8076   -1.5212    0.0000 C   0  0  0  0  0  0  0  0  0  0  0  0
    2.8680   -0.9787    0.0000 C   0  0  0  0  0  0  0  0  0  0  0  0
    9.6285    3.0384    0.0000 C   0  0  0  0  0  0  0  0  0  0  0  0
    6.5169   -2.9890    0.0000 C   0  0  0  0  0  0  0  0  0  0  0  0
    9.9391    3.9890    0.0000 C   0  0  0  0  0  0  0  0  0  0  0  0
    6.5207   -3.9890    0.0000 C   0  0  0  0  0  0  0  0  0  0  0  0
    7.4830   -0.2683    0.0000 H   0  0  0  0  0  0  0  0  0  0  0  0
    7.2664   -0.3424    0.0000 H   0  0  0  0  0  0  0  0  0  0  0  0
    6.3972    1.0020    0.0000 H   0  0  0  0  0  0  0  0  0  0  0  0
    6.9256    2.5519    0.0000 H   0  0  0  0  0  0  0  0  0  0  0  0
    6.1285    2.5519    0.0000 H   0  0  0  0  0  0  0  0  0  0  0  0
    5.4490    2.1596    0.0000 H   0  0  0  0  0  0  0  0  0  0  0  0
    5.0504    1.4693    0.0000 H   0  0  0  0  0  0  0  0  0  0  0  0
    7.9018    2.3210    0.0000 H   0  0  0  0  0  0  0  0  0  0  0  0
    8.0883   -0.2947    0.0000 H   0  0  0  0  0  0  0  0  0  0  0  0
    8.8767   -0.0370    0.0000 H   0  0  0  0  0  0  0  0  0  0  0  0
    6.7612   -1.5450    0.0000 H   0  0  0  0  0  0  0  0  0  0  0  0
    7.1523   -0.8491    0.0000 H   0  0  0  0  0  0  0  0  0  0  0  0
    9.3838    0.6622    0.0000 H   0  0  0  0  0  0  0  0  0  0  0  0
    9.3838    1.4917    0.0000 H   0  0  0  0  0  0  0  0  0  0  0  0
    5.1087   -1.8033    0.0000 H   0  0  0  0  0  0  0  0  0  0  0  0
    8.0131    2.5770    0.0000 H   0  0  0  0  0  0  0  0  0  0  0  0
    7.3931    3.1970    0.0000 H   0  0  0  0  0  0  0  0  0  0  0  0
    6.7731    2.5770    0.0000 H   0  0  0  0  0  0  0  0  0  0  0  0
    4.2324    1.1009    0.0000 H   0  0  0  0  0  0  0  0  0  0  0  0
    3.4343    1.1162    0.0000 H   0  0  0  0  0  0  0  0  0  0  0  0
    5.3787    1.0653    0.0000 H   0  0  0  0  0  0  0  0  0  0  0  0
    4.7635    1.6901    0.0000 H   0  0  0  0  0  0  0  0  0  0  0  0
    4.1388    1.0749    0.0000 H   0  0  0  0  0  0  0  0  0  0  0  0
    2.6718    0.6915    0.0000 H   0  0  0  0  0  0  0  0  0  0  0  0
    2.2647    0.0049    0.0000 H   0  0  0  0  0  0  0  0  0  0  0  0
    3.8100   -2.1412    0.0000 H   0  0  0  0  0  0  0  0  0  0  0  0
   10.5285    3.7963    0.0000 H   0  0  0  0  0  0  0  0  0  0  0  0
   10.1317    4.5783    0.0000 H   0  0  0  0  0  0  0  0  0  0  0  0
    9.3498    4.1816    0.0000 H   0  0  0  0  0  0  0  0  0  0  0  0
    5.9007   -3.9913    0.0000 H   0  0  0  0  0  0  0  0  0  0  0  0
    6.5231   -4.6089    0.0000 H   0  0  0  0  0  0  0  0  0  0  0  0
    7.1407   -3.9866    0.0000 H   0  0  0  0  0  0  0  0  0  0  0  0
 13  1  1  1  0  0  0
  1 25  1  0  0  0  0
 18  2  1  1  0  0  0
  2 26  1  0  0  0  0
  3 24  2  0  0  0  0
  4 25  2  0  0  0  0
  5 26  2  0  0  0  0
  6  7  1  0  0  0  0
  6  8  1  0  0  0  0
  6 14  1  0  0  0  0
  6 29  1  6  0  0  0
  7 11  1  0  0  0  0
  7 13  1  0  0  0  0
  7 19  1  1  0  0  0
  8  9  1  0  0  0  0
  8 15  1  0  0  0  0
  8 30  1  1  0  0  0
  9 10  1  0  0  0  0
  9 12  1  0  0  0  0
  9 31  1  6  0  0  0
 10 17  1  0  0  0  0
 10 20  1  0  0  0  0
 10 21  1  1  0  0  0
 11 12  1  0  0  0  0
 11 32  1  0  0  0  0
 11 33  1  0  0  0  0
 12 34  1  0  0  0  0
 12 35  1  0  0  0  0
 13 16  1  0  0  0  0
 13 36  1  0  0  0  0
 14 16  1  0  0  0  0
 14 37  1  0  0  0  0
 14 38  1  0  0  0  0
 15 18  1  0  0  0  0
 15 39  1  0  0  0  0
 15 40  1  0  0  0  0
 16 41  1  0  0  0  0
 16 42  1  0  0  0  0
 17 18  1  0  0  0  0
 17 23  2  0  0  0  0
 18 43  1  0  0  0  0
 19 44  1  0  0  0  0
 19 45  1  0  0  0  0
 19 46  1  0  0  0  0
 20 22  1  0  0  0  0
 20 47  1  0  0  0  0
 20 48  1  0  0  0  0
 21 49  1  0  0  0  0
 21 50  1  0  0  0  0
 21 51  1  0  0  0  0
 22 24  1  0  0  0  0
 22 52  1  0  0  0  0
 22 53  1  0  0  0  0
 23 24  1  0  0  0  0
 23 54  1  0  0  0  0
 25 27  1  0  0  0  0
 26 28  1  0  0  0  0
 27 55  1  0  0  0  0
 27 56  1  0  0  0  0
 27 57  1  0  0  0  0
 28 58  1  0  0  0  0
 28 59  1  0  0  0  0
 28 60  1  0  0  0  0
M  END
> <PUBCHEM_COMPOUND_CID>
224006

> <PUBCHEM_COMPOUND_CANONICALIZED>
1

> <PUBCHEM_CACTVS_COMPLEXITY>
739

> <PUBCHEM_CACTVS_HBOND_ACCEPTOR>
5

> <PUBCHEM_CACTVS_HBOND_DONOR>
0

> <PUBCHEM_CACTVS_ROTATABLE_BOND>
4

> <PUBCHEM_CACTVS_SUBSKEYS>
AAADcfB4OAAAAAAAAAAAAAAAAAAAAYAAAAAwYIAAAAAAAGDAAAAAGgAAAAAADxSggAICCAAABACIAqDSCAAAAAAgAAAACAEAAEgABBIAIQACEAAEgAAIIQOIyPCPgAAAAAAAAADAAAYAACAAAIAADAAAAA==

> <PUBCHEM_IUPAC_OPENEYE_NAME>
[(6R,8R,9S,10R,13S,14S,17S)-6-acetoxy-10,13-dimethyl-3-oxo-1,2,6,7,8,9,11,12,14,15,16,17-dodecahydrocyclopenta[a]phenanthren-17-yl] acetate

> <PUBCHEM_IUPAC_CAS_NAME>
acetic acid [(6R,8R,9S,10R,13S,14S,17S)-6-acetyloxy-10,13-dimethyl-3-oxo-1,2,6,7,8,9,11,12,14,15,16,17-dodecahydrocyclopenta[a]phenanthren-17-yl] ester

> <PUBCHEM_IUPAC_NAME>
[(6R,8R,9S,10R,13S,14S,17S)-6-acetyloxy-10,13-dimethyl-3-oxo-1,2,6,7,8,9,11,12,14,15,16,17-dodecahydrocyclopenta[a]phenanthren-17-yl] acetate

> <PUBCHEM_IUPAC_SYSTEMATIC_NAME>
[(6R,8R,9S,10R,13S,14S,17S)-6-acetyloxy-10,13-dimethyl-3-oxidanylidene-1,2,6,7,8,9,11,12,14,15,16,17-dodecahydrocyclopenta[a]phenanthren-17-yl] ethanoate

> <PUBCHEM_IUPAC_TRADITIONAL_NAME>
acetic acid [(6R,8R,9S,10R,13S,14S,17S)-6-acetoxy-3-keto-10,13-dimethyl-1,2,6,7,8,9,11,12,14,15,16,17-dodecahydrocyclopenta[a]phenanthren-17-yl] ester

> <PUBCHEM_IUPAC_INCHI>
InChI=1S/C23H32O5/c1-13(24)27-20-12-16-17-5-6-21(28-14(2)25)23(17,4)10-8-18(16)22(3)9-7-15(26)11-19(20)22/h11,16-18,20-21H,5-10,12H2,1-4H3/t16-,17-,18-,20+,21-,22+,23-/m0/s1

> <PUBCHEM_IUPAC_INCHIKEY>
UIYVZBDIGKEIAK-XZUVIMIXSA-N

> <PUBCHEM_XLOGP3_AA>
3.2

> <PUBCHEM_EXACT_MASS>
388.224974

> <PUBCHEM_MOLECULAR_FORMULA>
C23H32O5

> <PUBCHEM_MOLECULAR_WEIGHT>
388.49718

> <PUBCHEM_OPENEYE_CAN_SMILES>
CC(=O)OC1CCC2C1(CCC3C2CC(C4=CC(=O)CCC34C)OC(=O)C)C

> <PUBCHEM_OPENEYE_ISO_SMILES>
CC(=O)O[C@H]1CC[C@@H]2[C@@]1(CC[C@H]3[C@H]2C[C@H](C4=CC(=O)CC[C@]34C)OC(=O)C)C

> <PUBCHEM_CACTVS_TPSA>
69.7

> <PUBCHEM_MONOISOTOPIC_WEIGHT>
388.224974

> <PUBCHEM_TOTAL_CHARGE>
0

> <PUBCHEM_HEAVY_ATOM_COUNT>
28

> <PUBCHEM_ATOM_DEF_STEREO_COUNT>
7

> <PUBCHEM_ATOM_UDEF_STEREO_COUNT>
0

> <PUBCHEM_BOND_DEF_STEREO_COUNT>
0

> <PUBCHEM_BOND_UDEF_STEREO_COUNT>
0

> <PUBCHEM_ISOTOPIC_ATOM_COUNT>
0

> <PUBCHEM_COMPONENT_COUNT>
1

> <PUBCHEM_CACTVS_TAUTO_COUNT>
2

> <PUBCHEM_COORDINATE_TYPE>
1
5
255

> <PUBCHEM_BONDANNOTATIONS>
13  1  5
10  21  5
18  2  5
6  29  6
7  19  5
8  30  5
9  31  6

$$$$

