   Color/Form

     * WHITE MINUTE MONOCLINIC PRISMS
     * Triclinic or monoclinic prisms

   from [1]HSDB

   Odor
        Odorless
   from [2]HSDB

   Taste

     * Very acid taste
     * TART TASTE; PURE AQ SOLN ARE SLIGHTLY BITTER & TASTE BUILD UP IS
       SLOW

   from [3]HSDB

   Boiling Point
        235 deg C
   from [4]HSDB

   Melting Point
        188 deg C
   from [5]HSDB

   Density/Specific Gravity
        1.572 @ 25 deg C/4 deg C
   from [6]HSDB

   Dissociation Constants
        pK1 = 4.207, pK2 = 5.635 at 25 deg C
   from [7]HSDB

   Heat of Combustion
        -356.32 KCAL/MOLE
   from [8]HSDB

   Octanol/Water Partition Coefficient
        log Kow = -0.59
   from [9]HSDB

   pH
        pH = 2.7 (0.1 molar aq soln)
   from [10]HSDB

   Solubilities

     * Soluble in ethanol, ethyl ether, acetone, methanol; slightly
       soluble in deuterated dimethyl formamide; insoluble in toluene,
       benzene.
     * 1 g sol in: 13 ml cold water; 1 ml boiling water; 18.5 ml alcohol;
       6.3 ml methanol; 36 ml acetone; 20 ml glycerol; 113 ml ether
     * Practically insol in carbon disulfide, carbon tetrachloride,
       petroleum ether
     * IN 100 ML SOLVENT @ 25 DEG C: 9.0 G IN ETHANOL, 0.66 G IN ETHER,
       0.02 G IN CHLOROFORM
     * In water, 8.32X10+4 mg/L @ 25 deg C

   from [11]HSDB

   Spectral Properties

     * MAX ABSORPTION (WATER): 208 NM (LOG E= 2.0); SADTLER REFERENCE
       NUMBER: 11335 (IR, PRISM)
     * IR: 910 (Coblentz Society Spectral Collection)
     * UV: 5-20 (Organic Electronic Spectral Data, Phillips et al, John
       Wiley & Sons, New York)
     * NMR: 4531 (Sadtler Research Laboratories Spectral Collection)
     * MASS: 20451 (NIST/EPA/MSDC Mass Spectral Database, 1990 version)
     * Index of refraction = 1.450

   from [12]HSDB

   Vapor Pressure
        1.91X10-7 mm Hg @ 25 deg C /extrapolated/
   from [13]HSDB

   Other Chemical/Physical Properties

     * BUFFERING INDEX: 2.90
     * BULK DENSITY: 55 LB/CU FT; NONHYGROSCOPIC
     * STD FREE ENERGY OF ANION FORMATION: -164.97 KCAL FOR AQ SOLN @ 25
       DEG C
     * Henry's Law constant = 3.6X10-13 atn-cu m/mol @ 25 deg C
       /Estimated/
     * Hydroxyl radical reaction rate constant = 2.8X10-12 cu cm/molec-sec
       @ 25 deg C /Estimated/

   from [14]HSDB

   Computed Properties
   Molecular Weight                  118.08804 [g/mol]
   Molecular Formula                 C[4]H[6]O[4]
   XLogP3                            -0.6
   H-Bond Donor                      2
   H-Bond Acceptor                   4
   Rotatable Bond Count              3
   Exact Mass                        118.026609
   MonoIsotopic Mass                 118.026609
   Topological Polar Surface Area    74.6
   Heavy Atom Count                  8
   Formal Charge                     0
   Complexity                        92.6
   Isotope Atom Count                0
   Defined Atom Stereocenter Count   0
   Undefined Atom Stereocenter Count 0
   Defined Bond Stereocenter Count   0
   Undefined Bond Stereocenter Count 0
   Covalently-Bonded Unit Count      1
   Feature 3D Acceptor Count         4
   Feature 3D Anion Count            2
   Effective Rotor Count             3
   Conformer Sampling RMSD           0.6
   CID Conformer Count               [15]7

References

   1. http://toxnet.nlm.nih.gov/cgi-bin/sis/search/r?dbs+hsdb:@term+@rn+@rel+110-15-6
   2. http://toxnet.nlm.nih.gov/cgi-bin/sis/search/r?dbs+hsdb:@term+@rn+@rel+110-15-6
   3. http://toxnet.nlm.nih.gov/cgi-bin/sis/search/r?dbs+hsdb:@term+@rn+@rel+110-15-6
   4. http://toxnet.nlm.nih.gov/cgi-bin/sis/search/r?dbs+hsdb:@term+@rn+@rel+110-15-6
   5. http://toxnet.nlm.nih.gov/cgi-bin/sis/search/r?dbs+hsdb:@term+@rn+@rel+110-15-6
   6. http://toxnet.nlm.nih.gov/cgi-bin/sis/search/r?dbs+hsdb:@term+@rn+@rel+110-15-6
   7. http://toxnet.nlm.nih.gov/cgi-bin/sis/search/r?dbs+hsdb:@term+@rn+@rel+110-15-6
   8. http://toxnet.nlm.nih.gov/cgi-bin/sis/search/r?dbs+hsdb:@term+@rn+@rel+110-15-6
   9. http://toxnet.nlm.nih.gov/cgi-bin/sis/search/r?dbs+hsdb:@term+@rn+@rel+110-15-6
  10. http://toxnet.nlm.nih.gov/cgi-bin/sis/search/r?dbs+hsdb:@term+@rn+@rel+110-15-6
  11. http://toxnet.nlm.nih.gov/cgi-bin/sis/search/r?dbs+hsdb:@term+@rn+@rel+110-15-6
  12. http://toxnet.nlm.nih.gov/cgi-bin/sis/search/r?dbs+hsdb:@term+@rn+@rel+110-15-6
  13. http://toxnet.nlm.nih.gov/cgi-bin/sis/search/r?dbs+hsdb:@term+@rn+@rel+110-15-6
  14. http://toxnet.nlm.nih.gov/cgi-bin/sis/search/r?dbs+hsdb:@term+@rn+@rel+110-15-6
  15. http://pubchem.ncbi.nlm.nih.gov/vw3d/vw3d.cgi?cid=1110
