   Color/Form

     * WHITE PLATES FROM METHANOL
     * THIN RECTANGULAR PRISMS FROM METHANOL
     * Platelets

   from [1]HSDB

   Odor

     * SLIGHT ODOR
     * Odorless solid

   from [2]HSDB

   Melting Point
        170.5-171.5 DEG C
   from [3]HSDB

   Corrosivity
        NON-CORROSIVE
   from [4]HSDB

   Density/Specific Gravity
        1.27 @ 20 DEG C/20 DEG C
   from [5]HSDB

   Octanol/Water Partition Coefficient
        log Kow= 1.94 (est)
   from [6]HSDB

   pH
        6.26 SATURATED AQ SOLUTION
   from [7]HSDB

   Solubilities

     * VERY SLIGHTLY SOL IN NUMBER 3 DIESEL OIL; MODERATELY SOL IN
       METHANOL, ETHANOL, PRACTICALLY INSOL IN HYDROCARBON SOLVENTS
     * SLIGHTLY SOL IN OIL & POLAR SOLVENTS
     * Solubility (ppm): water 230 (@ 25 deg C), acetone 52,000 (@ 27 deg
       C), benzene 2900 (@ 27 deg C)
     * Sol in benzene: 3 g/kg at 27 deg C

   from [8]HSDB

   Spectral Properties

     * MAX ABSORPTION: 247 NM
     * Intense mass spectral peaks: 72 m/z (100%), 198 m/z (19%), 73 m/z
       (7%), 200 m/z (6%)
     * IR: 10667 (Sadtler Research Laboratories Prism Collection)
     * UV: 20884 (Sadtler Research Laboratories Spectral Collection)
     * NMR: 16056 (Sadtler Research Laboratories Spectral Collection)
     * MASS: 161 (Aldermaston, Eight Peak Index of Mass Spectra, UK)

   from [9]HSDB

   Vapor Pressure
        0.067 mPa @ 25 deg C
   from [10]HSDB

   Other Chemical/Physical Properties

     * COMMERCIAL PRODUCT MELTS @ 176-177 DEG C
     * VAPOR PRESSURE: 178X10-5 MM HG @ 100 DEG C
     * DECOMP @ 185-200 DEG C
     * The rate of hydrolysis at room temp and pH 7 is negligible ... .
     * Monuron-TCA is a crystalline solid; mp 78-81 deg C. Solubility
       (room temperature): 918 mg/l water; 400 g/kg 1,2-dichloroethane;
       177 g/kg methanol; 91 g/kg xylene. It is acidic in reaction and
       incompatible with alkaline materials. /Monuron Trichloroacetate/
     * ... Used at 10-15 kg/ha for total weed control of uncropped areas.
       /Monuron Trichloroacetate/
     * Henry's Law constant= 5.72X10-10 atm-cu m/mole (est).

   from [11]HSDB

   Computed Properties
   Molecular Weight                  198.64944 [g/mol]
   Molecular Formula                 C[9]H[11]ClN[2]O
   XLogP3                            1.9
   H-Bond Donor                      1
   H-Bond Acceptor                   1
   Rotatable Bond Count              1
   Tautomer Count                    2
   Exact Mass                        198.055991
   MonoIsotopic Mass                 198.055991
   Topological Polar Surface Area    32.3
   Heavy Atom Count                  13
   Formal Charge                     0
   Complexity                        177
   Isotope Atom Count                0
   Defined Atom Stereocenter Count   0
   Undefined Atom Stereocenter Count 0
   Defined Bond Stereocenter Count   0
   Undefined Bond Stereocenter Count 0
   Covalently-Bonded Unit Count      1
   Feature 3D Acceptor Count         1
   Feature 3D Donor Count            1
   Feature 3D Ring Count             1
   Effective Rotor Count             3
   Conformer Sampling RMSD           0.6
   CID Conformer Count               [12]5

References

   1. http://toxnet.nlm.nih.gov/cgi-bin/sis/search/r?dbs+hsdb:@term+@rn+@rel+150-68-5
   2. http://toxnet.nlm.nih.gov/cgi-bin/sis/search/r?dbs+hsdb:@term+@rn+@rel+150-68-5
   3. http://toxnet.nlm.nih.gov/cgi-bin/sis/search/r?dbs+hsdb:@term+@rn+@rel+150-68-5
   4. http://toxnet.nlm.nih.gov/cgi-bin/sis/search/r?dbs+hsdb:@term+@rn+@rel+150-68-5
   5. http://toxnet.nlm.nih.gov/cgi-bin/sis/search/r?dbs+hsdb:@term+@rn+@rel+150-68-5
   6. http://toxnet.nlm.nih.gov/cgi-bin/sis/search/r?dbs+hsdb:@term+@rn+@rel+150-68-5
   7. http://toxnet.nlm.nih.gov/cgi-bin/sis/search/r?dbs+hsdb:@term+@rn+@rel+150-68-5
   8. http://toxnet.nlm.nih.gov/cgi-bin/sis/search/r?dbs+hsdb:@term+@rn+@rel+150-68-5
   9. http://toxnet.nlm.nih.gov/cgi-bin/sis/search/r?dbs+hsdb:@term+@rn+@rel+150-68-5
  10. http://toxnet.nlm.nih.gov/cgi-bin/sis/search/r?dbs+hsdb:@term+@rn+@rel+150-68-5
  11. http://toxnet.nlm.nih.gov/cgi-bin/sis/search/r?dbs+hsdb:@term+@rn+@rel+150-68-5
  12. http://pubchem.ncbi.nlm.nih.gov/vw3d/vw3d.cgi?cid=8800
