   Color/Form

     * Colorless liquid
     * Colorless liquid or gas (above 89 degrees F).

   from [1]HSDB

   Odor
        Mild, sweet odor resembling that of chloroform
   from [2]HSDB

   Boiling Point
        31.7 deg C
   from [3]HSDB

   Melting Point
        -122.5 deg C
   from [4]HSDB

   Corrosivity
        Vinylidene chloride may be corrosive or unstable in the presence
   of steel.
   from [5]HSDB

   Critical Temperature and Pressure
        Critical temperature: 220.8 deg C; critical pressure: 5.21 MPa
   from [6]HSDB

   Density/Specific Gravity
        1.2129 at 20 deg C/4 deg C
   from [7]HSDB

   Heat of Combustion
        1095.9 kJ/mole at 25 deg C
   from [8]HSDB

   Heat of Vaporization
        26.48 kJ/mole at 25 deg C
   from [9]HSDB

   Octanol/Water Partition Coefficient
        log Kow = 2.13
   from [10]HSDB

   Solubilities

     * 0.63 g/100 g water at 50 deg C (solubility at saturation vapor
       pressure)
     * In water: 3.5 g/l at 4 deg C; 3.0 g/l at 16 deg C
     * Soluble in ethanol, acetone, benzene, carbon tetrachloride; very
       soluble in ethyl ether, chloroform.
     * In water, 2,420 mg/L at 25 deg C

   from [11]HSDB

   Spectral Properties

     * MAX ABSORPTION (VAPOR): LESS THAN 200 NM
     * Index of refraction: 1.4249 at 20 deg C/D
     * IR: 11632 (Sadtler Research Laboratories Prism Collection)
     * NMR: 6385 (Sadtler Research Laboratories Spectral Collection)
     * UV: HBCP
     * MASS: 888 (NIST/EPA/MCDC Mass Spectral Database 1990 version); 203
       (Atlas of Mass Spectral Data)

   from [12]HSDB

   Surface Tension
        24 DYNES/CM @ 15 DEG C (INHIBITED)
   from [13]HSDB

   Vapor Density
        3.25 (air= 1)
   from [14]HSDB

   Vapor Pressure
        600 mm Hg at 25 deg C
   from [15]HSDB

   Relative Evaporation Rate
        ... The evaporation half-life of a dilute aq soln of vinylidene
   chloride (1 ppm w/w) in an open container stirred at 200 rpm at 25 deg
   C /was/ 22 min, 90% of the cmpd was lost in 89 min.
   from [16]HSDB

   Viscosity
        0.3302 cP at 20 deg C
   from [17]HSDB

   Other Chemical/Physical Properties

     * HEAT OF POLYMERIZATION: -185 CAL/G; VAPOR SPECIFIC GRAVITY: 3.3
     * The water/air partition coefficient at 20 deg C is 0.16.
     * Heat of combustion: -4860 BTU/lb= -2700 cal/g
     * Liquid density at 0 deg C: 1.2517 g/cu m
     * Latent heat of vaporization at 25 deg C: 26.48 kJ/mol; latent heat
       of vaporization at boiling point: 26.14 kJ/mol
     * Latent heat of fusion: 6.51 kJ/mol at melting point
     * Specific heat: 1.148 J/g-K at constant pressure
     * Dielectric constant: 4.60 at ambient temperatures
     * Heat of polymerization: -18.0 Kcal/mol.
     * Heat of formation: -23.9 kJ/mol at 298.15 K
     * Heat capacity: 1113 J/mol at 298.15 K
     * Saturated concn in air: 2,640 g/cu m @ 20 deg C, 3,675 g/cu m @ 30
       deg C
     * Solubility of water in monomer, @ 25 deg C, 0.035 wt%; critical
       vol: 218 cu m/mole
     * Conversion factor: 1 mg/cu m= 0.25 ppm, 1 ppm= 3.97 mg/cu m
     * Dipole moment: 1.30 debye @ 25 deg C in benzene
     * Gibbs energy of formation: 5.85 kcal/mole (liq), 5.78 kcal/mole
       (gas)
     * Enthalpy of melting: 1.557 kcal/mole @ mp; enthalpy of sublimation:
       6.328 kcal/mole @ 298 K
     * Henry's Law constant = 2.61X10-2 atm-cu m/mole @ 24 deg C
     * Hydroxyl radical rate constant = 1.09X10-11 cu cm/molecule-sec @ 25
       deg C

   from [18]HSDB

   Computed Properties
   Molecular Weight                  96.94328 [g/mol]
   Molecular Formula                 C[2]H[2]Cl[2]
   XLogP3-AA                         2.3
   H-Bond Donor                      0
   H-Bond Acceptor                   0
   Rotatable Bond Count              0
   Exact Mass                        95.953355
   MonoIsotopic Mass                 95.953355
   Topological Polar Surface Area    0
   Heavy Atom Count                  4
   Formal Charge                     0
   Complexity                        27
   Isotope Atom Count                0
   Defined Atom Stereocenter Count   0
   Undefined Atom Stereocenter Count 0
   Defined Bond Stereocenter Count   0
   Undefined Bond Stereocenter Count 0
   Covalently-Bonded Unit Count      1
   Effective Rotor Count             0
   Conformer Sampling RMSD           0.4
   CID Conformer Count               [19]1

References

   1. http://toxnet.nlm.nih.gov/cgi-bin/sis/search/r?dbs+hsdb:@term+@rn+@rel+75-35-4
   2. http://toxnet.nlm.nih.gov/cgi-bin/sis/search/r?dbs+hsdb:@term+@rn+@rel+75-35-4
   3. http://toxnet.nlm.nih.gov/cgi-bin/sis/search/r?dbs+hsdb:@term+@rn+@rel+75-35-4
   4. http://toxnet.nlm.nih.gov/cgi-bin/sis/search/r?dbs+hsdb:@term+@rn+@rel+75-35-4
   5. http://toxnet.nlm.nih.gov/cgi-bin/sis/search/r?dbs+hsdb:@term+@rn+@rel+75-35-4
   6. http://toxnet.nlm.nih.gov/cgi-bin/sis/search/r?dbs+hsdb:@term+@rn+@rel+75-35-4
   7. http://toxnet.nlm.nih.gov/cgi-bin/sis/search/r?dbs+hsdb:@term+@rn+@rel+75-35-4
   8. http://toxnet.nlm.nih.gov/cgi-bin/sis/search/r?dbs+hsdb:@term+@rn+@rel+75-35-4
   9. http://toxnet.nlm.nih.gov/cgi-bin/sis/search/r?dbs+hsdb:@term+@rn+@rel+75-35-4
  10. http://toxnet.nlm.nih.gov/cgi-bin/sis/search/r?dbs+hsdb:@term+@rn+@rel+75-35-4
  11. http://toxnet.nlm.nih.gov/cgi-bin/sis/search/r?dbs+hsdb:@term+@rn+@rel+75-35-4
  12. http://toxnet.nlm.nih.gov/cgi-bin/sis/search/r?dbs+hsdb:@term+@rn+@rel+75-35-4
  13. http://toxnet.nlm.nih.gov/cgi-bin/sis/search/r?dbs+hsdb:@term+@rn+@rel+75-35-4
  14. http://toxnet.nlm.nih.gov/cgi-bin/sis/search/r?dbs+hsdb:@term+@rn+@rel+75-35-4
  15. http://toxnet.nlm.nih.gov/cgi-bin/sis/search/r?dbs+hsdb:@term+@rn+@rel+75-35-4
  16. http://toxnet.nlm.nih.gov/cgi-bin/sis/search/r?dbs+hsdb:@term+@rn+@rel+75-35-4
  17. http://toxnet.nlm.nih.gov/cgi-bin/sis/search/r?dbs+hsdb:@term+@rn+@rel+75-35-4
  18. http://toxnet.nlm.nih.gov/cgi-bin/sis/search/r?dbs+hsdb:@term+@rn+@rel+75-35-4
  19. http://pubchem.ncbi.nlm.nih.gov/vw3d/vw3d.cgi?cid=6366
