442456
  -OEChem-07051212582D

 76 80  0     1  0  0  0  0  0999 V2000
   12.4545    0.8990    0.0000 O   0  0  0  0  0  0  0  0  0  0  0  0
   11.5981   -1.6044    0.0000 O   0  0  0  0  0  0  0  0  0  0  0  0
   14.1865    0.9056    0.0000 O   0  0  0  0  0  0  0  0  0  0  0  0
   10.7263   -0.1077    0.0000 O   0  0  0  0  0  0  0  0  0  0  0  0
   14.1904   -0.0944    0.0000 O   0  0  0  0  0  0  0  0  0  0  0  0
   14.1981   -2.0944    0.0000 O   0  0  0  0  0  0  0  0  0  0  0  0
   12.4468    2.8989    0.0000 O   0  0  0  0  0  0  0  0  0  0  0  0
   14.1749    3.9056    0.0000 O   0  0  0  0  0  0  0  0  0  0  0  0
   15.9108    2.9123    0.0000 O   0  0  0  0  0  0  0  0  0  0  0  0
   13.3378   -3.5977    0.0000 O   0  0  0  0  0  0  0  0  0  0  0  0
    7.1962   -0.1319    0.0000 O   0  0  0  0  0  0  0  0  0  0  0  0
    8.9446   -3.1665    0.0000 O   0  0  0  0  0  0  0  0  0  0  0  0
    7.1962   -3.1319    0.0000 O   0  0  0  0  0  0  0  0  0  0  0  0
    2.8660    1.3681    0.0000 O   0  0  0  0  0  0  0  0  0  0  0  0
   12.4583   -0.1010    0.0000 C   0  0  2  0  0  0  0  0  0  0  0  0
   13.3263   -0.5977    0.0000 C   0  0  2  0  0  0  0  0  0  0  0  0
   13.3301   -1.5977    0.0000 C   0  0  1  0  0  0  0  0  0  0  0  0
   13.3186    1.4023    0.0000 C   0  0  2  0  0  0  0  0  0  0  0  0
   11.5942   -0.6044    0.0000 C   0  0  1  0  0  0  0  0  0  0  0  0
   13.3147    2.4023    0.0000 C   0  0  1  0  0  0  0  0  0  0  0  0
   12.4660   -2.1010    0.0000 C   0  0  1  0  0  0  0  0  0  0  0  0
   14.1788    2.9056    0.0000 C   0  0  1  0  0  0  0  0  0  0  0  0
   15.0467    2.4090    0.0000 C   0  0  2  0  0  0  0  0  0  0  0  0
   15.0506    1.4090    0.0000 C   0  0  2  0  0  0  0  0  0  0  0  0
   12.4699   -3.1010    0.0000 C   0  0  0  0  0  0  0  0  0  0  0  0
   15.9185    0.9123    0.0000 C   0  0  0  0  0  0  0  0  0  0  0  0
    9.8622   -0.6111    0.0000 C   0  0  0  0  0  0  0  0  0  0  0  0
    8.9561   -0.0972    0.0000 C   0  0  0  0  0  0  0  0  0  0  0  0
    9.8622   -1.6527    0.0000 C   0  0  0  0  0  0  0  0  0  0  0  0
    8.0622   -0.6319    0.0000 C   0  0  0  0  0  0  0  0  0  0  0  0
    8.0622   -1.6319    0.0000 C   0  0  0  0  0  0  0  0  0  0  0  0
    6.3301   -0.6319    0.0000 C   0  0  1  0  0  0  0  0  0  0  0  0
    8.9561   -2.1665    0.0000 C   0  0  0  0  0  0  0  0  0  0  0  0
    6.3301   -1.6319    0.0000 C   0  0  0  0  0  0  0  0  0  0  0  0
    7.1962   -2.1319    0.0000 C   0  0  0  0  0  0  0  0  0  0  0  0
    5.4641   -0.1319    0.0000 C   0  0  0  0  0  0  0  0  0  0  0  0
    5.4641    0.8681    0.0000 C   0  0  0  0  0  0  0  0  0  0  0  0
    4.5981   -0.6319    0.0000 C   0  0  0  0  0  0  0  0  0  0  0  0
    4.5981    1.3681    0.0000 C   0  0  0  0  0  0  0  0  0  0  0  0
    3.7320   -0.1319    0.0000 C   0  0  0  0  0  0  0  0  0  0  0  0
    3.7320    0.8681    0.0000 C   0  0  0  0  0  0  0  0  0  0  0  0
    2.0000    0.8681    0.0000 C   0  0  0  0  0  0  0  0  0  0  0  0
   11.9202    0.2069    0.0000 H   0  0  0  0  0  0  0  0  0  0  0  0
   13.3239    0.0223    0.0000 H   0  0  0  0  0  0  0  0  0  0  0  0
   13.8659   -1.2856    0.0000 H   0  0  0  0  0  0  0  0  0  0  0  0
   13.3209    0.7823    0.0000 H   0  0  0  0  0  0  0  0  0  0  0  0
   11.5918    0.0156    0.0000 H   0  0  0  0  0  0  0  0  0  0  0  0
   12.7790    2.0902    0.0000 H   0  0  0  0  0  0  0  0  0  0  0  0
   11.9303   -2.4131    0.0000 H   0  0  0  0  0  0  0  0  0  0  0  0
   14.7145    3.2177    0.0000 H   0  0  0  0  0  0  0  0  0  0  0  0
   15.5849    2.1010    0.0000 H   0  0  0  0  0  0  0  0  0  0  0  0
   15.0530    0.7890    0.0000 H   0  0  0  0  0  0  0  0  0  0  0  0
   11.8589   -2.9957    0.0000 H   0  0  0  0  0  0  0  0  0  0  0  0
   12.2601   -3.6844    0.0000 H   0  0  0  0  0  0  0  0  0  0  0  0
   15.6106    0.3742    0.0000 H   0  0  0  0  0  0  0  0  0  0  0  0
   16.4567    0.6044    0.0000 H   0  0  0  0  0  0  0  0  0  0  0  0
   16.2265    1.4504    0.0000 H   0  0  0  0  0  0  0  0  0  0  0  0
   14.7285   -0.4023    0.0000 H   0  0  0  0  0  0  0  0  0  0  0  0
   14.7338   -1.7823    0.0000 H   0  0  0  0  0  0  0  0  0  0  0  0
   12.4444    3.5189    0.0000 H   0  0  0  0  0  0  0  0  0  0  0  0
   14.7107    4.2177    0.0000 H   0  0  0  0  0  0  0  0  0  0  0  0
   16.4490    2.6044    0.0000 H   0  0  0  0  0  0  0  0  0  0  0  0
   13.3402   -4.2177    0.0000 H   0  0  0  0  0  0  0  0  0  0  0  0
    8.9490    0.5228    0.0000 H   0  0  0  0  0  0  0  0  0  0  0  0
   10.3979   -1.9648    0.0000 H   0  0  0  0  0  0  0  0  0  0  0  0
    5.7932   -0.9419    0.0000 H   0  0  0  0  0  0  0  0  0  0  0  0
    5.7196   -1.5242    0.0000 H   0  0  0  0  0  0  0  0  0  0  0  0
    6.1181   -2.2145    0.0000 H   0  0  0  0  0  0  0  0  0  0  0  0
    9.4779   -3.4826    0.0000 H   0  0  0  0  0  0  0  0  0  0  0  0
    6.0010    1.1781    0.0000 H   0  0  0  0  0  0  0  0  0  0  0  0
    4.5981   -1.2519    0.0000 H   0  0  0  0  0  0  0  0  0  0  0  0
    4.5981    1.9881    0.0000 H   0  0  0  0  0  0  0  0  0  0  0  0
    3.1951   -0.4419    0.0000 H   0  0  0  0  0  0  0  0  0  0  0  0
    1.6900    1.4051    0.0000 H   0  0  0  0  0  0  0  0  0  0  0  0
    1.4631    0.5581    0.0000 H   0  0  0  0  0  0  0  0  0  0  0  0
    2.3100    0.3312    0.0000 H   0  0  0  0  0  0  0  0  0  0  0  0
 15  1  1  6  0  0  0
 18  1  1  1  0  0  0
  2 19  1  0  0  0  0
  2 21  1  0  0  0  0
  3 18  1  0  0  0  0
  3 24  1  0  0  0  0
 19  4  1  1  0  0  0
  4 27  1  0  0  0  0
 16  5  1  1  0  0  0
  5 58  1  0  0  0  0
 17  6  1  6  0  0  0
  6 59  1  0  0  0  0
 20  7  1  6  0  0  0
  7 60  1  0  0  0  0
 22  8  1  6  0  0  0
  8 61  1  0  0  0  0
 23  9  1  1  0  0  0
  9 62  1  0  0  0  0
 10 25  1  0  0  0  0
 10 63  1  0  0  0  0
 11 30  1  0  0  0  0
 11 32  1  0  0  0  0
 12 33  1  0  0  0  0
 12 69  1  0  0  0  0
 13 35  2  0  0  0  0
 14 41  1  0  0  0  0
 14 42  1  0  0  0  0
 15 16  1  0  0  0  0
 15 19  1  0  0  0  0
 15 43  1  0  0  0  0
 16 17  1  0  0  0  0
 16 44  1  0  0  0  0
 17 21  1  0  0  0  0
 17 45  1  0  0  0  0
 18 20  1  0  0  0  0
 18 46  1  0  0  0  0
 19 47  1  0  0  0  0
 20 22  1  0  0  0  0
 20 48  1  0  0  0  0
 21 25  1  1  0  0  0
 21 49  1  0  0  0  0
 22 23  1  0  0  0  0
 22 50  1  0  0  0  0
 23 24  1  0  0  0  0
 23 51  1  0  0  0  0
 24 26  1  6  0  0  0
 24 52  1  0  0  0  0
 25 53  1  0  0  0  0
 25 54  1  0  0  0  0
 26 55  1  0  0  0  0
 26 56  1  0  0  0  0
 26 57  1  0  0  0  0
 27 28  1  0  0  0  0
 27 29  2  0  0  0  0
 28 30  2  0  0  0  0
 28 64  1  0  0  0  0
 29 33  1  0  0  0  0
 29 65  1  0  0  0  0
 30 31  1  0  0  0  0
 31 33  2  0  0  0  0
 31 35  1  0  0  0  0
 32 34  1  0  0  0  0
 32 36  1  1  0  0  0
 32 66  1  0  0  0  0
 34 35  1  0  0  0  0
 34 67  1  0  0  0  0
 34 68  1  0  0  0  0
 36 37  2  0  0  0  0
 36 38  1  0  0  0  0
 37 39  1  0  0  0  0
 37 70  1  0  0  0  0
 38 40  2  0  0  0  0
 38 71  1  0  0  0  0
 39 41  2  0  0  0  0
 39 72  1  0  0  0  0
 40 41  1  0  0  0  0
 40 73  1  0  0  0  0
 42 74  1  0  0  0  0
 42 75  1  0  0  0  0
 42 76  1  0  0  0  0
M  END
> <PUBCHEM_COMPOUND_CID>
442456

> <PUBCHEM_COMPOUND_CANONICALIZED>
1

> <PUBCHEM_CACTVS_COMPLEXITY>
900

> <PUBCHEM_CACTVS_HBOND_ACCEPTOR>
14

> <PUBCHEM_CACTVS_HBOND_DONOR>
7

> <PUBCHEM_CACTVS_ROTATABLE_BOND>
7

> <PUBCHEM_CACTVS_SUBSKEYS>
AAADcfB4PAAAAAAAAAAAAAAAAAAAAAAAAAA0aJECAAAAAACRQAAAGgAACAAADBSwmAMyDoAABgCIAqBSAAACCAAkIAAIiAEGCMgdNzaGNRqieWCl4BUPuQfI7OzOIAAACAAIAABAAAAQABAAAAAAAAAAAA==

> <PUBCHEM_IUPAC_OPENEYE_NAME>
(2S)-7-[(2S,3R,4S,5S,6R)-4,5-dihydroxy-6-(hydroxymethyl)-3-[(2S,3R,4R,5R,6S)-3,4,5-trihydroxy-6-methyl-tetrahydropyran-2-yl]oxy-tetrahydropyran-2-yl]oxy-5-hydroxy-2-(4-methoxyphenyl)chroman-4-one

> <PUBCHEM_IUPAC_CAS_NAME>
(2S)-7-[[(2S,3R,4S,5S,6R)-4,5-dihydroxy-6-(hydroxymethyl)-3-[[(2S,3R,4R,5R,6S)-3,4,5-trihydroxy-6-methyl-2-oxanyl]oxy]-2-oxanyl]oxy]-5-hydroxy-2-(4-methoxyphenyl)-3,4-dihydro-2H-1-benzopyran-4-one

> <PUBCHEM_IUPAC_NAME>
(2S)-7-[(2S,3R,4S,5S,6R)-4,5-dihydroxy-6-(hydroxymethyl)-3-[(2S,3R,4R,5R,6S)-3,4,5-trihydroxy-6-methyloxan-2-yl]oxyoxan-2-yl]oxy-5-hydroxy-2-(4-methoxyphenyl)-2,3-dihydrochromen-4-one

> <PUBCHEM_IUPAC_SYSTEMATIC_NAME>
(2S)-7-[(2S,3R,4S,5S,6R)-6-(hydroxymethyl)-3-[(2S,3R,4R,5R,6S)-6-methyl-3,4,5-tris(oxidanyl)oxan-2-yl]oxy-4,5-bis(oxidanyl)oxan-2-yl]oxy-2-(4-methoxyphenyl)-5-oxidanyl-2,3-dihydrochromen-4-one

> <PUBCHEM_IUPAC_TRADITIONAL_NAME>
(2S)-7-[(2S,3R,4S,5S,6R)-4,5-dihydroxy-6-methylol-3-[(2S,3R,4R,5R,6S)-3,4,5-trihydroxy-6-methyl-tetrahydropyran-2-yl]oxy-tetrahydropyran-2-yl]oxy-5-hydroxy-2-(4-methoxyphenyl)chroman-4-one

> <PUBCHEM_IUPAC_INCHI>
InChI=1S/C28H34O14/c1-11-21(32)23(34)25(36)27(38-11)42-26-24(35)22(33)19(10-29)41-28(26)39-14-7-15(30)20-16(31)9-17(40-18(20)8-14)12-3-5-13(37-2)6-4-12/h3-8,11,17,19,21-30,32-36H,9-10H2,1-2H3/t11-,17-,19+,21-,22+,23+,24-,25+,26+,27-,28+/m0/s1

> <PUBCHEM_IUPAC_INCHIKEY>
NLAWPKPYBMEWIR-SKYQDXIQSA-N

> <PUBCHEM_XLOGP3_AA>
-0.2

> <PUBCHEM_EXACT_MASS>
594.194856

> <PUBCHEM_MOLECULAR_FORMULA>
C28H34O14

> <PUBCHEM_MOLECULAR_WEIGHT>
594.56116

> <PUBCHEM_OPENEYE_CAN_SMILES>
CC1C(C(C(C(O1)OC2C(C(C(OC2OC3=CC(=C4C(=O)CC(OC4=C3)C5=CC=C(C=C5)OC)O)CO)O)O)O)O)O

> <PUBCHEM_OPENEYE_ISO_SMILES>
C[C@H]1[C@@H]([C@H]([C@H]([C@@H](O1)O[C@@H]2[C@H]([C@@H]([C@H](O[C@H]2OC3=CC(=C4C(=O)C[C@H](OC4=C3)C5=CC=C(C=C5)OC)O)CO)O)O)O)O)O

> <PUBCHEM_CACTVS_TPSA>
214

> <PUBCHEM_MONOISOTOPIC_WEIGHT>
594.194856

> <PUBCHEM_TOTAL_CHARGE>
0

> <PUBCHEM_HEAVY_ATOM_COUNT>
42

> <PUBCHEM_ATOM_DEF_STEREO_COUNT>
11

> <PUBCHEM_ATOM_UDEF_STEREO_COUNT>
0

> <PUBCHEM_BOND_DEF_STEREO_COUNT>
0

> <PUBCHEM_BOND_UDEF_STEREO_COUNT>
0

> <PUBCHEM_ISOTOPIC_ATOM_COUNT>
0

> <PUBCHEM_COMPONENT_COUNT>
1

> <PUBCHEM_CACTVS_TAUTO_COUNT>
9

> <PUBCHEM_COORDINATE_TYPE>
1
5
255

> <PUBCHEM_BONDANNOTATIONS>
15  1  6
18  1  5
21  25  5
24  26  6
27  28  8
27  29  8
28  30  8
29  33  8
30  31  8
31  33  8
32  36  5
36  37  8
36  38  8
37  39  8
38  40  8
39  41  8
19  4  5
40  41  8
16  5  5
17  6  6
20  7  6
22  8  6
23  9  5

$$$$

