160505
  -OEChem-07051212442D

 40 41  0     0  0  0  0  0  0999 V2000
    7.1962   -0.7244    0.0000 O   0  0  0  0  0  0  0  0  0  0  0  0
    7.4337    0.6229    0.0000 O   0  0  0  0  0  0  0  0  0  0  0  0
    4.1785    1.8077    0.0000 O   0  0  0  0  0  0  0  0  0  0  0  0
    4.5981    0.7756    0.0000 O   0  0  0  0  0  0  0  0  0  0  0  0
    5.4641   -3.7244    0.0000 O   0  0  0  0  0  0  0  0  0  0  0  0
    2.8660   -1.2244    0.0000 O   0  0  0  0  0  0  0  0  0  0  0  0
    3.7320    0.2756    0.0000 O   0  0  0  0  0  0  0  0  0  0  0  0
    5.4641   -0.7244    0.0000 C   0  0  0  0  0  0  0  0  0  0  0  0
    5.8061    1.2153    0.0000 C   0  0  0  0  0  0  0  0  0  0  0  0
    5.4641    0.2756    0.0000 C   0  0  0  0  0  0  0  0  0  0  0  0
    4.5981   -1.2244    0.0000 C   0  0  0  0  0  0  0  0  0  0  0  0
    6.3301   -1.2244    0.0000 C   0  0  0  0  0  0  0  0  0  0  0  0
    6.7909    1.3890    0.0000 C   0  0  0  0  0  0  0  0  0  0  0  0
    5.1633    1.9814    0.0000 C   0  0  0  0  0  0  0  0  0  0  0  0
    6.4902    3.0947    0.0000 C   0  0  0  0  0  0  0  0  0  0  0  0
    4.5981   -2.2244    0.0000 C   0  0  0  0  0  0  0  0  0  0  0  0
    7.1330    2.3286    0.0000 C   0  0  0  0  0  0  0  0  0  0  0  0
    5.5054    2.9210    0.0000 C   0  0  0  0  0  0  0  0  0  0  0  0
    6.3301   -2.2244    0.0000 C   0  0  0  0  0  0  0  0  0  0  0  0
    5.4641   -2.7244    0.0000 C   0  0  0  0  0  0  0  0  0  0  0  0
    3.7320   -0.7244    0.0000 C   0  0  0  0  0  0  0  0  0  0  0  0
    6.8322    4.0344    0.0000 C   0  0  0  0  0  0  0  0  0  0  0  0
    8.0622   -1.2244    0.0000 C   0  0  0  0  0  0  0  0  0  0  0  0
    2.0000   -0.7244    0.0000 C   0  0  0  0  0  0  0  0  0  0  0  0
    4.0611   -2.5344    0.0000 H   0  0  0  0  0  0  0  0  0  0  0  0
    7.7435    2.4363    0.0000 H   0  0  0  0  0  0  0  0  0  0  0  0
    5.1068    3.3960    0.0000 H   0  0  0  0  0  0  0  0  0  0  0  0
    6.8671   -2.5344    0.0000 H   0  0  0  0  0  0  0  0  0  0  0  0
    7.4148    3.8223    0.0000 H   0  0  0  0  0  0  0  0  0  0  0  0
    7.0442    4.6170    0.0000 H   0  0  0  0  0  0  0  0  0  0  0  0
    6.2496    4.2464    0.0000 H   0  0  0  0  0  0  0  0  0  0  0  0
    8.0443    0.7306    0.0000 H   0  0  0  0  0  0  0  0  0  0  0  0
    3.7800    2.2826    0.0000 H   0  0  0  0  0  0  0  0  0  0  0  0
    7.7522   -1.7613    0.0000 H   0  0  0  0  0  0  0  0  0  0  0  0
    8.5991   -1.5344    0.0000 H   0  0  0  0  0  0  0  0  0  0  0  0
    8.3722   -0.6874    0.0000 H   0  0  0  0  0  0  0  0  0  0  0  0
    4.9272   -4.0344    0.0000 H   0  0  0  0  0  0  0  0  0  0  0  0
    2.3100   -0.1874    0.0000 H   0  0  0  0  0  0  0  0  0  0  0  0
    1.4631   -0.4144    0.0000 H   0  0  0  0  0  0  0  0  0  0  0  0
    1.6900   -1.2613    0.0000 H   0  0  0  0  0  0  0  0  0  0  0  0
  1 12  1  0  0  0  0
  1 23  1  0  0  0  0
  2 13  1  0  0  0  0
  2 32  1  0  0  0  0
  3 14  1  0  0  0  0
  3 33  1  0  0  0  0
  4 10  2  0  0  0  0
  5 20  1  0  0  0  0
  5 37  1  0  0  0  0
  6 21  1  0  0  0  0
  6 24  1  0  0  0  0
  7 21  2  0  0  0  0
  8 10  1  0  0  0  0
  8 11  2  0  0  0  0
  8 12  1  0  0  0  0
  9 10  1  0  0  0  0
  9 13  2  0  0  0  0
  9 14  1  0  0  0  0
 11 16  1  0  0  0  0
 11 21  1  0  0  0  0
 12 19  2  0  0  0  0
 13 17  1  0  0  0  0
 14 18  2  0  0  0  0
 15 17  2  0  0  0  0
 15 18  1  0  0  0  0
 15 22  1  0  0  0  0
 16 20  2  0  0  0  0
 16 25  1  0  0  0  0
 17 26  1  0  0  0  0
 18 27  1  0  0  0  0
 19 20  1  0  0  0  0
 19 28  1  0  0  0  0
 22 29  1  0  0  0  0
 22 30  1  0  0  0  0
 22 31  1  0  0  0  0
 23 34  1  0  0  0  0
 23 35  1  0  0  0  0
 23 36  1  0  0  0  0
 24 38  1  0  0  0  0
 24 39  1  0  0  0  0
 24 40  1  0  0  0  0
M  END
> <PUBCHEM_COMPOUND_CID>
160505

> <PUBCHEM_COMPOUND_CANONICALIZED>
1

> <PUBCHEM_CACTVS_COMPLEXITY>
454

> <PUBCHEM_CACTVS_HBOND_ACCEPTOR>
7

> <PUBCHEM_CACTVS_HBOND_DONOR>
3

> <PUBCHEM_CACTVS_ROTATABLE_BOND>
5

> <PUBCHEM_CACTVS_SUBSKEYS>
AAADceB4OAAAAAAAAAAAAAAAAAAAAAAAAAAwYAAAAAAAAAABQAAAGgAACAAADASAmAIyDoAABgCIAqDSCAACCAAkIAAAiAEGCMgMJzaGNRqAcWAl4BUIuYfL7PzO4AABCAAYAADAAAIQADAAAAAAAAAAAA==

> <PUBCHEM_IUPAC_OPENEYE_NAME>
methyl 2-(2,6-dihydroxy-4-methyl-benzoyl)-5-hydroxy-3-methoxy-benzoate

> <PUBCHEM_IUPAC_CAS_NAME>
2-[(2,6-dihydroxy-4-methylphenyl)-oxomethyl]-5-hydroxy-3-methoxybenzoic acid methyl ester

> <PUBCHEM_IUPAC_NAME>
methyl 2-(2,6-dihydroxy-4-methylbenzoyl)-5-hydroxy-3-methoxybenzoate

> <PUBCHEM_IUPAC_SYSTEMATIC_NAME>
methyl 3-methoxy-2-[4-methyl-2,6-bis(oxidanyl)phenyl]carbonyl-5-oxidanyl-benzoate

> <PUBCHEM_IUPAC_TRADITIONAL_NAME>
2-(2,6-dihydroxy-4-methyl-benzoyl)-5-hydroxy-3-methoxy-benzoic acid methyl ester

> <PUBCHEM_IUPAC_INCHI>
InChI=1S/C17H16O7/c1-8-4-11(19)15(12(20)5-8)16(21)14-10(17(22)24-3)6-9(18)7-13(14)23-2/h4-7,18-20H,1-3H3

> <PUBCHEM_IUPAC_INCHIKEY>
YJRLSCDUYLRBIZ-UHFFFAOYSA-N

> <PUBCHEM_XLOGP3_AA>
2.9

> <PUBCHEM_EXACT_MASS>
332.089603

> <PUBCHEM_MOLECULAR_FORMULA>
C17H16O7

> <PUBCHEM_MOLECULAR_WEIGHT>
332.30474

> <PUBCHEM_OPENEYE_CAN_SMILES>
CC1=CC(=C(C(=C1)O)C(=O)C2=C(C=C(C=C2C(=O)OC)O)OC)O

> <PUBCHEM_OPENEYE_ISO_SMILES>
CC1=CC(=C(C(=C1)O)C(=O)C2=C(C=C(C=C2C(=O)OC)O)OC)O

> <PUBCHEM_CACTVS_TPSA>
113

> <PUBCHEM_MONOISOTOPIC_WEIGHT>
332.089603

> <PUBCHEM_TOTAL_CHARGE>
0

> <PUBCHEM_HEAVY_ATOM_COUNT>
24

> <PUBCHEM_ATOM_DEF_STEREO_COUNT>
0

> <PUBCHEM_ATOM_UDEF_STEREO_COUNT>
0

> <PUBCHEM_BOND_DEF_STEREO_COUNT>
0

> <PUBCHEM_BOND_UDEF_STEREO_COUNT>
0

> <PUBCHEM_ISOTOPIC_ATOM_COUNT>
0

> <PUBCHEM_COMPONENT_COUNT>
1

> <PUBCHEM_CACTVS_TAUTO_COUNT>
70

> <PUBCHEM_COORDINATE_TYPE>
1
5
255

> <PUBCHEM_BONDANNOTATIONS>
11  16  8
12  19  8
13  17  8
14  18  8
15  17  8
15  18  8
16  20  8
19  20  8
8  11  8
8  12  8
9  13  8
9  14  8

$$$$

