17395504
  -OEChem-06241222502D

 48 49  0     0  0  0  0  0  0999 V2000
    7.8916    2.8080    0.0000 O   0  0  0  0  0  0  0  0  0  0  0  0
    7.8916   -2.1920    0.0000 O   0  0  0  0  0  0  0  0  0  0  0  0
    6.1595    2.8080    0.0000 O   0  0  0  0  0  0  0  0  0  0  0  0
    2.9945   -3.2329    0.0000 O   0  0  0  0  0  0  0  0  0  0  0  0
    3.1756   -1.5103    0.0000 O   0  0  0  0  0  0  0  0  0  0  0  0
    7.0255   -0.6920    0.0000 N   0  0  0  0  0  0  0  0  0  0  0  0
    6.0550   -3.1865    0.0000 N   0  0  0  0  0  0  0  0  0  0  0  0
    7.0255    1.3080    0.0000 C   0  0  0  0  0  0  0  0  0  0  0  0
    6.1595    0.8080    0.0000 C   0  0  0  0  0  0  0  0  0  0  0  0
    7.8916    0.8080    0.0000 C   0  0  0  0  0  0  0  0  0  0  0  0
    6.1595   -0.1920    0.0000 C   0  0  0  0  0  0  0  0  0  0  0  0
    7.8916   -0.1920    0.0000 C   0  0  0  0  0  0  0  0  0  0  0  0
    7.0255   -1.6920    0.0000 C   0  0  0  0  0  0  0  0  0  0  0  0
    7.0255    2.3080    0.0000 C   0  0  0  0  0  0  0  0  0  0  0  0
    6.1595   -2.1920    0.0000 C   0  0  0  0  0  0  0  0  0  0  0  0
    5.2460   -1.7853    0.0000 C   0  0  0  0  0  0  0  0  0  0  0  0
    4.5768   -2.5284    0.0000 C   0  0  0  0  0  0  0  0  0  0  0  0
    5.0768   -3.3944    0.0000 C   0  0  0  0  0  0  0  0  0  0  0  0
    5.0380   -0.8071    0.0000 C   0  0  0  0  0  0  0  0  0  0  0  0
    7.8916    3.8080    0.0000 C   0  0  0  0  0  0  0  0  0  0  0  0
    4.6701   -4.3080    0.0000 C   0  0  0  0  0  0  0  0  0  0  0  0
    3.5823   -2.4239    0.0000 C   0  0  0  0  0  0  0  0  0  0  0  0
    8.7576    4.3080    0.0000 C   0  0  0  0  0  0  0  0  0  0  0  0
    2.0000   -3.1284    0.0000 C   0  0  0  0  0  0  0  0  0  0  0  0
    7.5625    1.6180    0.0000 H   0  0  0  0  0  0  0  0  0  0  0  0
    8.5021    0.7003    0.0000 H   0  0  0  0  0  0  0  0  0  0  0  0
    8.1036    1.3906    0.0000 H   0  0  0  0  0  0  0  0  0  0  0  0
    5.9474    1.3906    0.0000 H   0  0  0  0  0  0  0  0  0  0  0  0
    5.5489    0.7003    0.0000 H   0  0  0  0  0  0  0  0  0  0  0  0
    8.1036   -0.7746    0.0000 H   0  0  0  0  0  0  0  0  0  0  0  0
    8.5021   -0.0843    0.0000 H   0  0  0  0  0  0  0  0  0  0  0  0
    5.5489   -0.0843    0.0000 H   0  0  0  0  0  0  0  0  0  0  0  0
    5.9474   -0.7746    0.0000 H   0  0  0  0  0  0  0  0  0  0  0  0
    6.5157   -3.6014    0.0000 H   0  0  0  0  0  0  0  0  0  0  0  0
    5.6445   -0.6782    0.0000 H   0  0  0  0  0  0  0  0  0  0  0  0
    4.9091   -0.2007    0.0000 H   0  0  0  0  0  0  0  0  0  0  0  0
    4.4316   -0.9360    0.0000 H   0  0  0  0  0  0  0  0  0  0  0  0
    7.6795    4.3906    0.0000 H   0  0  0  0  0  0  0  0  0  0  0  0
    7.2810    3.7003    0.0000 H   0  0  0  0  0  0  0  0  0  0  0  0
    4.1037   -4.0558    0.0000 H   0  0  0  0  0  0  0  0  0  0  0  0
    4.4179   -4.8744    0.0000 H   0  0  0  0  0  0  0  0  0  0  0  0
    5.2365   -4.5602    0.0000 H   0  0  0  0  0  0  0  0  0  0  0  0
    9.0676    3.7710    0.0000 H   0  0  0  0  0  0  0  0  0  0  0  0
    9.2945    4.6180    0.0000 H   0  0  0  0  0  0  0  0  0  0  0  0
    8.4476    4.8449    0.0000 H   0  0  0  0  0  0  0  0  0  0  0  0
    2.0648   -2.5118    0.0000 H   0  0  0  0  0  0  0  0  0  0  0  0
    1.3834   -3.0636    0.0000 H   0  0  0  0  0  0  0  0  0  0  0  0
    1.9352   -3.7450    0.0000 H   0  0  0  0  0  0  0  0  0  0  0  0
  1 14  1  0  0  0  0
  1 20  1  0  0  0  0
  2 13  2  0  0  0  0
  3 14  2  0  0  0  0
  4 22  1  0  0  0  0
  4 24  1  0  0  0  0
  5 22  2  0  0  0  0
  6 11  1  0  0  0  0
  6 12  1  0  0  0  0
  6 13  1  0  0  0  0
  7 15  1  0  0  0  0
  7 18  1  0  0  0  0
  7 34  1  0  0  0  0
  8  9  1  0  0  0  0
  8 10  1  0  0  0  0
  8 14  1  0  0  0  0
  8 25  1  0  0  0  0
  9 11  1  0  0  0  0
  9 28  1  0  0  0  0
  9 29  1  0  0  0  0
 10 12  1  0  0  0  0
 10 26  1  0  0  0  0
 10 27  1  0  0  0  0
 11 32  1  0  0  0  0
 11 33  1  0  0  0  0
 12 30  1  0  0  0  0
 12 31  1  0  0  0  0
 13 15  1  0  0  0  0
 15 16  2  0  0  0  0
 16 17  1  0  0  0  0
 16 19  1  0  0  0  0
 17 18  2  0  0  0  0
 17 22  1  0  0  0  0
 18 21  1  0  0  0  0
 19 35  1  0  0  0  0
 19 36  1  0  0  0  0
 19 37  1  0  0  0  0
 20 23  1  0  0  0  0
 20 38  1  0  0  0  0
 20 39  1  0  0  0  0
 21 40  1  0  0  0  0
 21 41  1  0  0  0  0
 21 42  1  0  0  0  0
 23 43  1  0  0  0  0
 23 44  1  0  0  0  0
 23 45  1  0  0  0  0
 24 46  1  0  0  0  0
 24 47  1  0  0  0  0
 24 48  1  0  0  0  0
M  END
> <PUBCHEM_COMPOUND_CID>
17395504

> <PUBCHEM_COMPOUND_CANONICALIZED>
1

> <PUBCHEM_CACTVS_COMPLEXITY>
487

> <PUBCHEM_CACTVS_HBOND_ACCEPTOR>
5

> <PUBCHEM_CACTVS_HBOND_DONOR>
1

> <PUBCHEM_CACTVS_ROTATABLE_BOND>
6

> <PUBCHEM_CACTVS_SUBSKEYS>
AAADceB7OAAAAAAAAAAAAAAAAAAAAWAAAAAsAAAAAAAAAAABgAAAHgAQAAAADQjhngYCiJPJlACoAwXwXACCgCAnACAAmSG4TNgIZnrAtLmWEYhm1gHI6Ue8HwIegAAAAAAAAAAAAAAAAAAAAAAAAAAAAA==

> <PUBCHEM_IUPAC_OPENEYE_NAME>
ethyl 1-(4-methoxycarbonyl-3,5-dimethyl-1H-pyrrole-2-carbonyl)piperidine-4-carboxylate

> <PUBCHEM_IUPAC_CAS_NAME>
1-[(4-methoxycarbonyl-3,5-dimethyl-1H-pyrrol-2-yl)-oxomethyl]-4-piperidinecarboxylic acid ethyl ester

> <PUBCHEM_IUPAC_NAME>
ethyl 1-(4-methoxycarbonyl-3,5-dimethyl-1H-pyrrole-2-carbonyl)piperidine-4-carboxylate

> <PUBCHEM_IUPAC_SYSTEMATIC_NAME>
ethyl 1-[(4-methoxycarbonyl-3,5-dimethyl-1H-pyrrol-2-yl)carbonyl]piperidine-4-carboxylate

> <PUBCHEM_IUPAC_TRADITIONAL_NAME>
1-(4-carbomethoxy-3,5-dimethyl-1H-pyrrole-2-carbonyl)isonipecotic acid ethyl ester

> <PUBCHEM_IUPAC_INCHI>
InChI=1S/C17H24N2O5/c1-5-24-16(21)12-6-8-19(9-7-12)15(20)14-10(2)13(11(3)18-14)17(22)23-4/h12,18H,5-9H2,1-4H3

> <PUBCHEM_IUPAC_INCHIKEY>
FBPKSKJFQFCHQY-UHFFFAOYSA-N

> <PUBCHEM_XLOGP3_AA>
1.8

> <PUBCHEM_EXACT_MASS>
336.168522

> <PUBCHEM_MOLECULAR_FORMULA>
C17H24N2O5

> <PUBCHEM_MOLECULAR_WEIGHT>
336.38286

> <PUBCHEM_OPENEYE_CAN_SMILES>
CCOC(=O)C1CCN(CC1)C(=O)C2=C(C(=C(N2)C)C(=O)OC)C

> <PUBCHEM_OPENEYE_ISO_SMILES>
CCOC(=O)C1CCN(CC1)C(=O)C2=C(C(=C(N2)C)C(=O)OC)C

> <PUBCHEM_CACTVS_TPSA>
88.7

> <PUBCHEM_MONOISOTOPIC_WEIGHT>
336.168522

> <PUBCHEM_TOTAL_CHARGE>
0

> <PUBCHEM_HEAVY_ATOM_COUNT>
24

> <PUBCHEM_ATOM_DEF_STEREO_COUNT>
0

> <PUBCHEM_ATOM_UDEF_STEREO_COUNT>
0

> <PUBCHEM_BOND_DEF_STEREO_COUNT>
0

> <PUBCHEM_BOND_UDEF_STEREO_COUNT>
0

> <PUBCHEM_ISOTOPIC_ATOM_COUNT>
0

> <PUBCHEM_COMPONENT_COUNT>
1

> <PUBCHEM_CACTVS_TAUTO_COUNT>
10

> <PUBCHEM_COORDINATE_TYPE>
1
5
255

> <PUBCHEM_BONDANNOTATIONS>
15  16  8
16  17  8
17  18  8
7  15  8
7  18  8

$$$$

