443601
  -OEChem-07051213022D

 79 81  0     1  0  0  0  0  0999 V2000
    7.0418    2.7109    0.0000 S   0  0  0  0  0  0  0  0  0  0  0  0
    8.7470   -3.7613    0.0000 O   0  0  0  0  0  0  0  0  0  0  0  0
   10.8232   -1.3635    0.0000 O   0  0  0  0  0  0  0  0  0  0  0  0
   12.0949   -1.8516    0.0000 O   0  0  0  0  0  0  0  0  0  0  0  0
    9.3397    0.8272    0.0000 O   0  0  0  0  0  0  0  0  0  0  0  0
   13.9816   -4.7568    0.0000 O   0  0  0  0  0  0  0  0  0  0  0  0
    7.2184   -1.2941    0.0000 O   0  0  0  0  0  0  0  0  0  0  0  0
    6.1378   -0.7213    0.0000 O   0  0  0  0  0  0  0  0  0  0  0  0
   10.7398    1.4521    0.0000 O   0  0  0  0  0  0  0  0  0  0  0  0
    8.0200    4.7423    0.0000 O   0  0  0  0  0  0  0  0  0  0  0  0
   11.5598    4.7560    0.0000 O   0  0  0  0  0  0  0  0  0  0  0  0
    2.5728   -0.1820    0.0000 O   0  0  0  0  0  0  0  0  0  0  0  0
    3.2356    1.4182    0.0000 O   0  0  0  0  0  0  0  0  0  0  0  0
   11.3085   -3.3949    0.0000 N   0  0  0  0  0  0  0  0  0  0  0  0
    9.1502   -1.8117    0.0000 N   0  0  0  0  0  0  0  0  0  0  0  0
   13.8769   -2.7596    0.0000 N   0  0  0  0  0  0  0  0  0  0  0  0
    7.6666    0.3789    0.0000 N   0  0  0  0  0  0  0  0  0  0  0  0
    5.0834    0.6528    0.0000 N   0  0  0  0  0  0  0  0  0  0  0  0
   10.3750   -3.0365    0.0000 C   0  0  1  0  0  0  0  0  0  0  0  0
    9.7456   -3.8136    0.0000 C   0  0  1  0  0  0  0  0  0  0  0  0
   10.2903   -4.6523    0.0000 C   0  0  0  0  0  0  0  0  0  0  0  0
   11.2562   -4.3935    0.0000 C   0  0  0  0  0  0  0  0  0  0  0  0
   10.1161   -2.0706    0.0000 C   0  0  0  0  0  0  0  0  0  0  0  0
   12.1472   -2.8502    0.0000 C   0  0  0  0  0  0  0  0  0  0  0  0
   13.0382   -3.3042    0.0000 C   0  0  3  0  0  0  0  0  0  0  0  0
    8.8914   -0.8458    0.0000 C   0  0  1  0  0  0  0  0  0  0  0  0
   13.0906   -4.3028    0.0000 C   0  0  0  0  0  0  0  0  0  0  0  0
    9.5985   -0.1387    0.0000 C   0  0  0  0  0  0  0  0  0  0  0  0
    7.9255   -0.5870    0.0000 C   0  0  0  0  0  0  0  0  0  0  0  0
    6.8006    0.8789    0.0000 C   0  0  1  0  0  0  0  0  0  0  0  0
    6.5418    1.8448    0.0000 C   0  0  0  0  0  0  0  0  0  0  0  0
    6.0073    0.2702    0.0000 C   0  0  0  0  0  0  0  0  0  0  0  0
    9.7739    2.7109    0.0000 C   0  0  0  0  0  0  0  0  0  0  0  0
    9.7739    1.7109    0.0000 C   0  0  0  0  0  0  0  0  0  0  0  0
    8.9078    3.2109    0.0000 C   0  0  0  0  0  0  0  0  0  0  0  0
    8.0418    2.7109    0.0000 C   0  0  0  0  0  0  0  0  0  0  0  0
   10.6839    3.2177    0.0000 C   0  0  0  0  0  0  0  0  0  0  0  0
    8.8918    4.2524    0.0000 C   0  0  0  0  0  0  0  0  0  0  0  0
    4.2900    0.0441    0.0000 C   0  0  1  0  0  0  0  0  0  0  0  0
   10.6919    4.2593    0.0000 C   0  0  0  0  0  0  0  0  0  0  0  0
    9.7898    4.7801    0.0000 C   0  0  0  0  0  0  0  0  0  0  0  0
   11.5440    2.7077    0.0000 C   0  0  0  0  0  0  0  0  0  0  0  0
    4.4206   -0.9474    0.0000 C   0  0  0  0  0  0  0  0  0  0  0  0
    3.3662    0.4268    0.0000 C   0  0  0  0  0  0  0  0  0  0  0  0
   10.8357   -2.6216    0.0000 H   0  0  0  0  0  0  0  0  0  0  0  0
    9.4356   -4.3506    0.0000 H   0  0  0  0  0  0  0  0  0  0  0  0
    9.7378   -4.9338    0.0000 H   0  0  0  0  0  0  0  0  0  0  0  0
   10.5125   -5.2311    0.0000 H   0  0  0  0  0  0  0  0  0  0  0  0
   11.3532   -5.0058    0.0000 H   0  0  0  0  0  0  0  0  0  0  0  0
   11.8754   -4.3610    0.0000 H   0  0  0  0  0  0  0  0  0  0  0  0
   13.0058   -2.6851    0.0000 H   0  0  0  0  0  0  0  0  0  0  0  0
    8.4093   -4.2813    0.0000 H   0  0  0  0  0  0  0  0  0  0  0  0
    8.7118   -2.2502    0.0000 H   0  0  0  0  0  0  0  0  0  0  0  0
    9.4903   -1.0063    0.0000 H   0  0  0  0  0  0  0  0  0  0  0  0
   12.4752   -4.2273    0.0000 H   0  0  0  0  0  0  0  0  0  0  0  0
   12.9093   -4.8957    0.0000 H   0  0  0  0  0  0  0  0  0  0  0  0
    9.9541   -0.6466    0.0000 H   0  0  0  0  0  0  0  0  0  0  0  0
   10.1604    0.1233    0.0000 H   0  0  0  0  0  0  0  0  0  0  0  0
   14.4293   -3.0410    0.0000 H   0  0  0  0  0  0  0  0  0  0  0  0
   13.8444   -2.1404    0.0000 H   0  0  0  0  0  0  0  0  0  0  0  0
    6.8412    0.2603    0.0000 H   0  0  0  0  0  0  0  0  0  0  0  0
    8.1585    0.7564    0.0000 H   0  0  0  0  0  0  0  0  0  0  0  0
    6.1034    2.2833    0.0000 H   0  0  0  0  0  0  0  0  0  0  0  0
    6.0049    1.5348    0.0000 H   0  0  0  0  0  0  0  0  0  0  0  0
   14.0140   -5.3760    0.0000 H   0  0  0  0  0  0  0  0  0  0  0  0
    7.8298    2.1283    0.0000 H   0  0  0  0  0  0  0  0  0  0  0  0
    7.8813    3.3098    0.0000 H   0  0  0  0  0  0  0  0  0  0  0  0
    5.0025    1.2676    0.0000 H   0  0  0  0  0  0  0  0  0  0  0  0
    4.2091    0.6588    0.0000 H   0  0  0  0  0  0  0  0  0  0  0  0
    9.7874    5.4001    0.0000 H   0  0  0  0  0  0  0  0  0  0  0  0
   11.2279    2.1744    0.0000 H   0  0  0  0  0  0  0  0  0  0  0  0
   12.0774    2.3916    0.0000 H   0  0  0  0  0  0  0  0  0  0  0  0
   11.8602    3.2411    0.0000 H   0  0  0  0  0  0  0  0  0  0  0  0
    3.8059   -1.0283    0.0000 H   0  0  0  0  0  0  0  0  0  0  0  0
    4.5015   -1.5620    0.0000 H   0  0  0  0  0  0  0  0  0  0  0  0
    5.0353   -0.8664    0.0000 H   0  0  0  0  0  0  0  0  0  0  0  0
    8.0128    5.3623    0.0000 H   0  0  0  0  0  0  0  0  0  0  0  0
   11.5622    5.3760    0.0000 H   0  0  0  0  0  0  0  0  0  0  0  0
    2.0000    0.0553    0.0000 H   0  0  0  0  0  0  0  0  0  0  0  0
  1 31  1  0  0  0  0
  1 36  1  0  0  0  0
 20  2  1  1  0  0  0
  2 52  1  0  0  0  0
  3 23  2  0  0  0  0
  4 24  2  0  0  0  0
  5 28  1  0  0  0  0
  5 34  1  0  0  0  0
  6 27  1  0  0  0  0
  6 65  1  0  0  0  0
  7 29  2  0  0  0  0
  8 32  2  0  0  0  0
  9 34  2  0  0  0  0
 10 38  1  0  0  0  0
 10 77  1  0  0  0  0
 11 40  1  0  0  0  0
 11 78  1  0  0  0  0
 12 44  1  0  0  0  0
 12 79  1  0  0  0  0
 13 44  2  0  0  0  0
 14 19  1  0  0  0  0
 14 22  1  0  0  0  0
 14 24  1  0  0  0  0
 15 23  1  0  0  0  0
 26 15  1  6  0  0  0
 15 53  1  0  0  0  0
 16 25  1  0  0  0  0
 16 59  1  0  0  0  0
 16 60  1  0  0  0  0
 17 29  1  0  0  0  0
 17 30  1  0  0  0  0
 17 62  1  0  0  0  0
 18 32  1  0  0  0  0
 39 18  1  1  0  0  0
 18 68  1  0  0  0  0
 19 20  1  0  0  0  0
 19 23  1  1  0  0  0
 19 45  1  0  0  0  0
 20 21  1  0  0  0  0
 20 46  1  0  0  0  0
 21 22  1  0  0  0  0
 21 47  1  0  0  0  0
 21 48  1  0  0  0  0
 22 49  1  0  0  0  0
 22 50  1  0  0  0  0
 24 25  1  0  0  0  0
 25 27  1  0  0  0  0
 25 51  1  0  0  0  0
 26 28  1  0  0  0  0
 26 29  1  0  0  0  0
 26 54  1  0  0  0  0
 27 55  1  0  0  0  0
 27 56  1  0  0  0  0
 28 57  1  0  0  0  0
 28 58  1  0  0  0  0
 30 31  1  0  0  0  0
 30 32  1  6  0  0  0
 30 61  1  0  0  0  0
 31 63  1  0  0  0  0
 31 64  1  0  0  0  0
 33 34  1  0  0  0  0
 33 35  1  0  0  0  0
 33 37  2  0  0  0  0
 35 36  1  0  0  0  0
 35 38  2  0  0  0  0
 36 66  1  0  0  0  0
 36 67  1  0  0  0  0
 37 40  1  0  0  0  0
 37 42  1  0  0  0  0
 38 41  1  0  0  0  0
 39 43  1  0  0  0  0
 39 44  1  0  0  0  0
 39 69  1  0  0  0  0
 40 41  2  0  0  0  0
 41 70  1  0  0  0  0
 42 71  1  0  0  0  0
 42 72  1  0  0  0  0
 42 73  1  0  0  0  0
 43 74  1  0  0  0  0
 43 75  1  0  0  0  0
 43 76  1  0  0  0  0
M  END
> <PUBCHEM_COMPOUND_CID>
443601

> <PUBCHEM_COMPOUND_CANONICALIZED>
1

> <PUBCHEM_CACTVS_COMPLEXITY>
1110

> <PUBCHEM_CACTVS_HBOND_ACCEPTOR>
14

> <PUBCHEM_CACTVS_HBOND_DONOR>
9

> <PUBCHEM_CACTVS_ROTATABLE_BOND>
7

> <PUBCHEM_CACTVS_SUBSKEYS>
AAADcfB7vABAAAAAAAAAAAAAAAAAAWAAAAAwAAAAAAAAAAABAAAAHgQQCAAADDzl2AayDoPABgiIAiHSGAACAAAkIBAAiIGOCMgKdzaitDqXcQAn9hW4uQfa6fSOoAADCAAYAABAAAYQADAAAAAAAAAAAA==

> <PUBCHEM_IUPAC_OPENEYE_NAME>
(2S)-2-[[(5R,8S)-8-[[(2S,3R)-1-(2-amino-3-hydroxy-propanoyl)-3-hydroxy-pyrrolidine-2-carbonyl]amino]-14,16-dihydroxy-13-methyl-7,11-dioxo-10-oxa-3-thia-6-azabicyclo[10.4.0]hexadeca-1(16),12,14-triene-5-carbonyl]amino]propanoic acid

> <PUBCHEM_IUPAC_CAS_NAME>
(2S)-2-[[[(5R,8S)-8-[[[(2S,3R)-1-(2-amino-3-hydroxy-1-oxopropyl)-3-hydroxy-2-pyrrolidinyl]-oxomethyl]amino]-14,16-dihydroxy-13-methyl-7,11-dioxo-10-oxa-3-thia-6-azabicyclo[10.4.0]hexadeca-1(16),12,14-trien-5-yl]-oxomethyl]amino]propanoic acid

> <PUBCHEM_IUPAC_NAME>
(2S)-2-[[(5R,8S)-8-[[(2S,3R)-1-(2-amino-3-hydroxypropanoyl)-3-hydroxypyrrolidine-2-carbonyl]amino]-14,16-dihydroxy-13-methyl-7,11-dioxo-10-oxa-3-thia-6-azabicyclo[10.4.0]hexadeca-1(16),12,14-triene-5-carbonyl]amino]propanoic acid

> <PUBCHEM_IUPAC_SYSTEMATIC_NAME>
(2S)-2-[[(5R,8S)-8-[[(2S,3R)-1-(2-azanyl-3-oxidanyl-propanoyl)-3-oxidanyl-pyrrolidin-2-yl]carbonylamino]-13-methyl-14,16-bis(oxidanyl)-7,11-bis(oxidanylidene)-10-oxa-3-thia-6-azabicyclo[10.4.0]hexadeca-1(16),12,14-trien-5-yl]carbonylamino]propanoic acid

> <PUBCHEM_IUPAC_TRADITIONAL_NAME>
(2S)-2-[[(5R,8S)-8-[[(2S,3R)-1-(2-amino-3-hydroxy-propanoyl)-3-hydroxy-prolyl]amino]-14,16-dihydroxy-7,11-diketo-13-methyl-10-oxa-3-thia-6-azabicyclo[10.4.0]hexadeca-1(16),12,14-triene-5-carbonyl]amino]propionic acid

> <PUBCHEM_IUPAC_INCHI>
InChI=1S/C26H35N5O12S/c1-10-17(34)5-18(35)12-8-44-9-15(22(37)28-11(2)25(40)41)30-21(36)14(7-43-26(42)19(10)12)29-23(38)20-16(33)3-4-31(20)24(39)13(27)6-32/h5,11,13-16,20,32-35H,3-4,6-9,27H2,1-2H3,(H,28,37)(H,29,38)(H,30,36)(H,40,41)/t11-,13?,14-,15-,16+,20-/m0/s1

> <PUBCHEM_IUPAC_INCHIKEY>
HMHQWJDFNVJCHA-ZPGBQQFCSA-N

> <PUBCHEM_XLOGP3_AA>
-4.5

> <PUBCHEM_EXACT_MASS>
641.200293

> <PUBCHEM_MOLECULAR_FORMULA>
C26H35N5O12S

> <PUBCHEM_MOLECULAR_WEIGHT>
641.6474

> <PUBCHEM_OPENEYE_CAN_SMILES>
CC1=C(C=C(C2=C1C(=O)OCC(C(=O)NC(CSC2)C(=O)NC(C)C(=O)O)NC(=O)C3C(CCN3C(=O)C(CO)N)O)O)O

> <PUBCHEM_OPENEYE_ISO_SMILES>
CC1=C(C=C(C2=C1C(=O)OC[C@@H](C(=O)N[C@@H](CSC2)C(=O)N[C@@H](C)C(=O)O)NC(=O)[C@@H]3[C@@H](CCN3C(=O)C(CO)N)O)O)O

> <PUBCHEM_CACTVS_TPSA>
303

> <PUBCHEM_MONOISOTOPIC_WEIGHT>
641.200293

> <PUBCHEM_TOTAL_CHARGE>
0

> <PUBCHEM_HEAVY_ATOM_COUNT>
44

> <PUBCHEM_ATOM_DEF_STEREO_COUNT>
5

> <PUBCHEM_ATOM_UDEF_STEREO_COUNT>
1

> <PUBCHEM_BOND_DEF_STEREO_COUNT>
0

> <PUBCHEM_BOND_UDEF_STEREO_COUNT>
0

> <PUBCHEM_ISOTOPIC_ATOM_COUNT>
0

> <PUBCHEM_COMPONENT_COUNT>
1

> <PUBCHEM_CACTVS_TAUTO_COUNT>
108

> <PUBCHEM_COORDINATE_TYPE>
1
5
255

> <PUBCHEM_BONDANNOTATIONS>
26  15  6
25  16  3
39  18  5
19  23  5
20  2  5
30  32  6
33  35  8
33  37  8
35  38  8
37  40  8
38  41  8
40  41  8

$$$$

