   Color/Form

     * Crystals from methanol
     * White...crystalline powder

   from [1]HSDB

   Odor
        Odorless
   from [2]HSDB

   Melting Point
        235-237 deg C
   from [3]HSDB

   Solubilities
        Insol in water; Soluble in ethanol (1 in 120), chloroform (1 in
   15), diethyl ether (1 in 400) and dioxane.
   from [4]HSDB

   Spectral Properties
        Specific optical rotation= -32.4 deg @ 20 deg C (c=0.496 in
   CHCl3); UV max (methanol)= 241 nm (e= 16770)
   from [5]HSDB

   Other Chemical/Physical Properties
        Crystals from ethyl acetate or from methanol; melting point
   203-206 deg C; UV max (ethanol): 242 mm (epsilon 16900). /Norgestrel/
   from [6]HSDB

   Computed Properties
   Molecular Weight                  312.44582 [g/mol]
   Molecular Formula                 C[21]H[28]O[2]
   XLogP3                            3.3
   H-Bond Donor                      1
   H-Bond Acceptor                   2
   Rotatable Bond Count              2
   Tautomer Count                    8
   Exact Mass                        312.20893
   MonoIsotopic Mass                 312.20893
   Topological Polar Surface Area    37.3
   Heavy Atom Count                  23
   Formal Charge                     0
   Complexity                        609
   Isotope Atom Count                0
   Defined Atom Stereocenter Count   6
   Undefined Atom Stereocenter Count 0
   Defined Bond Stereocenter Count   0
   Undefined Bond Stereocenter Count 0
   Covalently-Bonded Unit Count      1
   Feature 3D Acceptor Count         2
   Feature 3D Donor Count            1
   Feature 3D Hydrophobe Count       2
   Feature 3D Ring Count             4
   Effective Rotor Count             2.8
   Conformer Sampling RMSD           0.6
   CID Conformer Count               [7]1

References

   1. http://toxnet.nlm.nih.gov/cgi-bin/sis/search/r?dbs+hsdb:@term+@rn+@rel+797-63-7
   2. http://toxnet.nlm.nih.gov/cgi-bin/sis/search/r?dbs+hsdb:@term+@rn+@rel+797-63-7
   3. http://toxnet.nlm.nih.gov/cgi-bin/sis/search/r?dbs+hsdb:@term+@rn+@rel+797-63-7
   4. http://toxnet.nlm.nih.gov/cgi-bin/sis/search/r?dbs+hsdb:@term+@rn+@rel+797-63-7
   5. http://toxnet.nlm.nih.gov/cgi-bin/sis/search/r?dbs+hsdb:@term+@rn+@rel+797-63-7
   6. http://toxnet.nlm.nih.gov/cgi-bin/sis/search/r?dbs+hsdb:@term+@rn+@rel+797-63-7
   7. http://pubchem.ncbi.nlm.nih.gov/vw3d/vw3d.cgi?cid=13109
