17395581
  -OEChem-06241222512D

 52 54  0     1  0  0  0  0  0999 V2000
    3.4154    1.3013    0.0000 S   0  0  0  0  0  0  0  0  0  0  0  0
    2.2399    2.9193    0.0000 O   0  0  0  0  0  0  0  0  0  0  0  0
    4.5032   -5.0466    0.0000 O   0  0  0  0  0  0  0  0  0  0  0  0
    3.6411    3.9374    0.0000 N   0  0  0  0  0  0  0  0  0  0  0  0
    3.6942   -0.4588    0.0000 N   0  0  0  0  0  0  0  0  0  0  0  0
    5.0032    0.4923    0.0000 N   0  0  0  0  0  0  0  0  0  0  0  0
    5.3122   -0.4588    0.0000 N   0  0  0  0  0  0  0  0  0  0  0  0
    4.7238    5.1398    0.0000 C   0  0  0  0  0  0  0  0  0  0  0  0
    3.8102    5.5466    0.0000 C   0  0  0  0  0  0  0  0  0  0  0  0
    3.1411    4.8034    0.0000 C   0  0  0  0  0  0  0  0  0  0  0  0
    4.6193    4.1453    0.0000 C   0  0  0  0  0  0  0  0  0  0  0  0
    3.2344    3.0238    0.0000 C   0  0  0  0  0  0  0  0  0  0  0  0
    3.8222    2.2148    0.0000 C   0  0  3  0  0  0  0  0  0  0  0  0
    2.7431   -0.7678    0.0000 C   0  0  0  0  0  0  0  0  0  0  0  0
    4.8167    2.3194    0.0000 C   0  0  0  0  0  0  0  0  0  0  0  0
    4.0032    0.4923    0.0000 C   0  0  0  0  0  0  0  0  0  0  0  0
    4.5032   -1.0466    0.0000 C   0  0  0  0  0  0  0  0  0  0  0  0
    2.0000   -0.0987    0.0000 C   0  0  0  0  0  0  0  0  0  0  0  0
    2.5352   -1.7460    0.0000 C   0  0  0  0  0  0  0  0  0  0  0  0
    4.5032   -2.0466    0.0000 C   0  0  0  0  0  0  0  0  0  0  0  0
    3.6372   -2.5466    0.0000 C   0  0  0  0  0  0  0  0  0  0  0  0
    5.3692   -2.5466    0.0000 C   0  0  0  0  0  0  0  0  0  0  0  0
    3.6372   -3.5466    0.0000 C   0  0  0  0  0  0  0  0  0  0  0  0
    5.3692   -3.5466    0.0000 C   0  0  0  0  0  0  0  0  0  0  0  0
    4.5032   -4.0466    0.0000 C   0  0  0  0  0  0  0  0  0  0  0  0
    5.3692   -5.5466    0.0000 C   0  0  0  0  0  0  0  0  0  0  0  0
    4.1203    6.0835    0.0000 H   0  0  0  0  0  0  0  0  0  0  0  0
    3.3087    5.9110    0.0000 H   0  0  0  0  0  0  0  0  0  0  0  0
    5.3303    5.0109    0.0000 H   0  0  0  0  0  0  0  0  0  0  0  0
    4.9154    5.7295    0.0000 H   0  0  0  0  0  0  0  0  0  0  0  0
    2.7263    5.2642    0.0000 H   0  0  0  0  0  0  0  0  0  0  0  0
    2.6395    4.4390    0.0000 H   0  0  0  0  0  0  0  0  0  0  0  0
    4.6841    3.5287    0.0000 H   0  0  0  0  0  0  0  0  0  0  0  0
    5.2393    4.1453    0.0000 H   0  0  0  0  0  0  0  0  0  0  0  0
    4.1866    1.7132    0.0000 H   0  0  0  0  0  0  0  0  0  0  0  0
    3.2039   -1.1827    0.0000 H   0  0  0  0  0  0  0  0  0  0  0  0
    4.8815    1.7028    0.0000 H   0  0  0  0  0  0  0  0  0  0  0  0
    5.4333    2.3842    0.0000 H   0  0  0  0  0  0  0  0  0  0  0  0
    4.7519    2.9360    0.0000 H   0  0  0  0  0  0  0  0  0  0  0  0
    2.4149    0.3621    0.0000 H   0  0  0  0  0  0  0  0  0  0  0  0
    1.5392    0.3162    0.0000 H   0  0  0  0  0  0  0  0  0  0  0  0
    1.5851   -0.5594    0.0000 H   0  0  0  0  0  0  0  0  0  0  0  0
    1.9288   -1.6170    0.0000 H   0  0  0  0  0  0  0  0  0  0  0  0
    2.4063   -2.3524    0.0000 H   0  0  0  0  0  0  0  0  0  0  0  0
    3.1417   -1.8748    0.0000 H   0  0  0  0  0  0  0  0  0  0  0  0
    3.1003   -2.2366    0.0000 H   0  0  0  0  0  0  0  0  0  0  0  0
    5.9062   -2.2366    0.0000 H   0  0  0  0  0  0  0  0  0  0  0  0
    3.1003   -3.8566    0.0000 H   0  0  0  0  0  0  0  0  0  0  0  0
    5.9062   -3.8566    0.0000 H   0  0  0  0  0  0  0  0  0  0  0  0
    5.0592   -6.0835    0.0000 H   0  0  0  0  0  0  0  0  0  0  0  0
    5.9062   -5.8566    0.0000 H   0  0  0  0  0  0  0  0  0  0  0  0
    5.6792   -5.0096    0.0000 H   0  0  0  0  0  0  0  0  0  0  0  0
  1 13  1  0  0  0  0
  1 16  1  0  0  0  0
  2 12  2  0  0  0  0
  3 25  1  0  0  0  0
  3 26  1  0  0  0  0
  4 10  1  0  0  0  0
  4 11  1  0  0  0  0
  4 12  1  0  0  0  0
  5 14  1  0  0  0  0
  5 16  1  0  0  0  0
  5 17  1  0  0  0  0
  6  7  1  0  0  0  0
  6 16  2  0  0  0  0
  7 17  2  0  0  0  0
  8  9  1  0  0  0  0
  8 11  1  0  0  0  0
  8 29  1  0  0  0  0
  8 30  1  0  0  0  0
  9 10  1  0  0  0  0
  9 27  1  0  0  0  0
  9 28  1  0  0  0  0
 10 31  1  0  0  0  0
 10 32  1  0  0  0  0
 11 33  1  0  0  0  0
 11 34  1  0  0  0  0
 12 13  1  0  0  0  0
 13 15  1  0  0  0  0
 13 35  1  0  0  0  0
 14 18  1  0  0  0  0
 14 19  1  0  0  0  0
 14 36  1  0  0  0  0
 15 37  1  0  0  0  0
 15 38  1  0  0  0  0
 15 39  1  0  0  0  0
 17 20  1  0  0  0  0
 18 40  1  0  0  0  0
 18 41  1  0  0  0  0
 18 42  1  0  0  0  0
 19 43  1  0  0  0  0
 19 44  1  0  0  0  0
 19 45  1  0  0  0  0
 20 21  2  0  0  0  0
 20 22  1  0  0  0  0
 21 23  1  0  0  0  0
 21 46  1  0  0  0  0
 22 24  2  0  0  0  0
 22 47  1  0  0  0  0
 23 25  2  0  0  0  0
 23 48  1  0  0  0  0
 24 25  1  0  0  0  0
 24 49  1  0  0  0  0
 26 50  1  0  0  0  0
 26 51  1  0  0  0  0
 26 52  1  0  0  0  0
M  END
> <PUBCHEM_COMPOUND_CID>
17395581

> <PUBCHEM_COMPOUND_CANONICALIZED>
1

> <PUBCHEM_CACTVS_COMPLEXITY>
465

> <PUBCHEM_CACTVS_HBOND_ACCEPTOR>
5

> <PUBCHEM_CACTVS_HBOND_DONOR>
0

> <PUBCHEM_CACTVS_ROTATABLE_BOND>
6

> <PUBCHEM_CACTVS_SUBSKEYS>
AAADceB7sABAAAAAAAAAAAAAAAAAAWLAAAAwAAAAAAAAAAABwAAAHgQIAAAADCzF2wazFocMFAiqAiNyNACS2AtgILAdyCEuDJiMLqKEuRuEMChkzhOIqAeQ0AIOIAAAAAAAAABAAAAAAAAAAAAAAAAAAA==

> <PUBCHEM_IUPAC_OPENEYE_NAME>
2-[[4-isopropyl-5-(4-methoxyphenyl)-1,2,4-triazol-3-yl]sulfanyl]-1-pyrrolidin-1-yl-propan-1-one

> <PUBCHEM_IUPAC_CAS_NAME>
2-[[5-(4-methoxyphenyl)-4-propan-2-yl-1,2,4-triazol-3-yl]thio]-1-(1-pyrrolidinyl)-1-propanone

> <PUBCHEM_IUPAC_NAME>
2-[[5-(4-methoxyphenyl)-4-propan-2-yl-1,2,4-triazol-3-yl]sulfanyl]-1-pyrrolidin-1-ylpropan-1-one

> <PUBCHEM_IUPAC_SYSTEMATIC_NAME>
2-[[5-(4-methoxyphenyl)-4-propan-2-yl-1,2,4-triazol-3-yl]sulfanyl]-1-pyrrolidin-1-yl-propan-1-one

> <PUBCHEM_IUPAC_TRADITIONAL_NAME>
2-[[4-isopropyl-5-(4-methoxyphenyl)-1,2,4-triazol-3-yl]thio]-1-pyrrolidino-propan-1-one

> <PUBCHEM_IUPAC_INCHI>
InChI=1S/C19H26N4O2S/c1-13(2)23-17(15-7-9-16(25-4)10-8-15)20-21-19(23)26-14(3)18(24)22-11-5-6-12-22/h7-10,13-14H,5-6,11-12H2,1-4H3

> <PUBCHEM_IUPAC_INCHIKEY>
MFIIHEZULWLJPN-UHFFFAOYSA-N

> <PUBCHEM_XLOGP3_AA>
3

> <PUBCHEM_EXACT_MASS>
374.177647

> <PUBCHEM_MOLECULAR_FORMULA>
C19H26N4O2S

> <PUBCHEM_MOLECULAR_WEIGHT>
374.50034

> <PUBCHEM_OPENEYE_CAN_SMILES>
CC(C)N1C(=NN=C1SC(C)C(=O)N2CCCC2)C3=CC=C(C=C3)OC

> <PUBCHEM_OPENEYE_ISO_SMILES>
CC(C)N1C(=NN=C1SC(C)C(=O)N2CCCC2)C3=CC=C(C=C3)OC

> <PUBCHEM_CACTVS_TPSA>
85.6

> <PUBCHEM_MONOISOTOPIC_WEIGHT>
374.177647

> <PUBCHEM_TOTAL_CHARGE>
0

> <PUBCHEM_HEAVY_ATOM_COUNT>
26

> <PUBCHEM_ATOM_DEF_STEREO_COUNT>
0

> <PUBCHEM_ATOM_UDEF_STEREO_COUNT>
1

> <PUBCHEM_BOND_DEF_STEREO_COUNT>
0

> <PUBCHEM_BOND_UDEF_STEREO_COUNT>
0

> <PUBCHEM_ISOTOPIC_ATOM_COUNT>
0

> <PUBCHEM_COMPONENT_COUNT>
1

> <PUBCHEM_CACTVS_TAUTO_COUNT>
1

> <PUBCHEM_COORDINATE_TYPE>
1
5
255

> <PUBCHEM_BONDANNOTATIONS>
13  15  3
20  21  8
20  22  8
21  23  8
22  24  8
23  25  8
24  25  8
5  16  8
5  17  8
6  16  8
6  7  8
7  17  8

$$$$

