5256
  -OEChem-06261200362D

 69 69  0     1  0  0  0  0  0999 V2000
    7.0064   -1.0624    0.0000 O   0  0  0  0  0  0  0  0  0  0  0  0
    8.5812   -4.3059    0.0000 O   0  0  0  0  0  0  0  0  0  0  0  0
    6.8870   -4.6660    0.0000 O   0  0  0  0  0  0  0  0  0  0  0  0
    5.2237    3.1592    0.0000 O   0  0  0  0  0  0  0  0  0  0  0  0
    6.7985   -0.0843    0.0000 O   0  0  0  0  0  0  0  0  0  0  0  0
    6.4712   -2.7097    0.0000 N   0  0  0  0  0  0  0  0  0  0  0  0
    5.1043   -0.4444    0.0000 N   0  0  0  0  0  0  0  0  0  0  0  0
    6.3827    1.8720    0.0000 N   0  0  0  0  0  0  0  0  0  0  0  0
    6.7100    4.4975    0.0000 N   0  0  0  0  0  0  0  0  0  0  0  0
    2.8090   -2.3704    0.0000 N   0  0  0  0  0  0  0  0  0  0  0  0
   11.5538   -1.6294    0.0000 N   0  0  0  0  0  0  0  0  0  0  0  0
   11.2574    3.9305    0.0000 N   0  0  0  0  0  0  0  0  0  0  0  0
    2.3090   -0.8316    0.0000 N   0  0  0  0  0  0  0  0  0  0  0  0
    7.4223   -3.0187    0.0000 C   0  0  3  0  0  0  0  0  0  0  0  0
    8.1654   -2.3496    0.0000 C   0  0  0  0  0  0  0  0  0  0  0  0
    5.3122   -1.4225    0.0000 C   0  0  3  0  0  0  0  0  0  0  0  0
    9.1165   -2.6586    0.0000 C   0  0  0  0  0  0  0  0  0  0  0  0
    4.5691   -2.0916    0.0000 C   0  0  0  0  0  0  0  0  0  0  0  0
    9.8596   -1.9895    0.0000 C   0  0  0  0  0  0  0  0  0  0  0  0
    7.8690    3.2103    0.0000 C   0  0  0  0  0  0  0  0  0  0  0  0
    6.2633   -1.7315    0.0000 C   0  0  0  0  0  0  0  0  0  0  0  0
    8.6121    3.8794    0.0000 C   0  0  0  0  0  0  0  0  0  0  0  0
    6.9179    3.5193    0.0000 C   0  0  3  0  0  0  0  0  0  0  0  0
    9.5632    3.5704    0.0000 C   0  0  0  0  0  0  0  0  0  0  0  0
    3.6180   -1.7826    0.0000 C   0  0  0  0  0  0  0  0  0  0  0  0
   10.8107   -2.2985    0.0000 C   0  0  0  0  0  0  0  0  0  0  0  0
    7.6302   -3.9968    0.0000 C   0  0  0  0  0  0  0  0  0  0  0  0
    6.1748    2.8502    0.0000 C   0  0  0  0  0  0  0  0  0  0  0  0
    5.8475    0.2248    0.0000 C   0  0  0  0  0  0  0  0  0  0  0  0
    5.6396    1.2029    0.0000 C   0  0  0  0  0  0  0  0  0  0  0  0
   10.3063    4.2395    0.0000 C   0  0  0  0  0  0  0  0  0  0  0  0
    3.3090   -0.8316    0.0000 C   0  0  0  0  0  0  0  0  0  0  0  0
    2.0000   -1.7826    0.0000 C   0  0  0  0  0  0  0  0  0  0  0  0
    7.2455   -2.1873    0.0000 H   0  0  0  0  0  0  0  0  0  0  0  0
    8.4565   -1.8022    0.0000 H   0  0  0  0  0  0  0  0  0  0  0  0
    7.6768   -1.9679    0.0000 H   0  0  0  0  0  0  0  0  0  0  0  0
    4.5038   -1.1599    0.0000 H   0  0  0  0  0  0  0  0  0  0  0  0
    8.8254   -3.2060    0.0000 H   0  0  0  0  0  0  0  0  0  0  0  0
    9.6050   -3.0403    0.0000 H   0  0  0  0  0  0  0  0  0  0  0  0
    4.2780   -2.6391    0.0000 H   0  0  0  0  0  0  0  0  0  0  0  0
    5.0577   -2.4734    0.0000 H   0  0  0  0  0  0  0  0  0  0  0  0
   10.1507   -1.4420    0.0000 H   0  0  0  0  0  0  0  0  0  0  0  0
    9.3710   -1.6078    0.0000 H   0  0  0  0  0  0  0  0  0  0  0  0
    6.0104   -3.1246    0.0000 H   0  0  0  0  0  0  0  0  0  0  0  0
    7.5779    2.6629    0.0000 H   0  0  0  0  0  0  0  0  0  0  0  0
    8.3576    2.8286    0.0000 H   0  0  0  0  0  0  0  0  0  0  0  0
    8.9032    4.4268    0.0000 H   0  0  0  0  0  0  0  0  0  0  0  0
    8.1236    4.2611    0.0000 H   0  0  0  0  0  0  0  0  0  0  0  0
    7.5496    4.0881    0.0000 H   0  0  0  0  0  0  0  0  0  0  0  0
    4.5147   -0.2528    0.0000 H   0  0  0  0  0  0  0  0  0  0  0  0
    9.2721    3.0230    0.0000 H   0  0  0  0  0  0  0  0  0  0  0  0
   10.0518    3.1887    0.0000 H   0  0  0  0  0  0  0  0  0  0  0  0
   10.5196   -2.8459    0.0000 H   0  0  0  0  0  0  0  0  0  0  0  0
   11.2992   -2.6802    0.0000 H   0  0  0  0  0  0  0  0  0  0  0  0
    5.3110    1.7287    0.0000 H   0  0  0  0  0  0  0  0  0  0  0  0
    5.0647    0.9706    0.0000 H   0  0  0  0  0  0  0  0  0  0  0  0
   10.5974    4.7870    0.0000 H   0  0  0  0  0  0  0  0  0  0  0  0
    9.8178    4.6212    0.0000 H   0  0  0  0  0  0  0  0  0  0  0  0
    6.9724    1.6804    0.0000 H   0  0  0  0  0  0  0  0  0  0  0  0
    7.1708    4.9123    0.0000 H   0  0  0  0  0  0  0  0  0  0  0  0
    6.1204    4.6890    0.0000 H   0  0  0  0  0  0  0  0  0  0  0  0
    2.8090   -2.9904    0.0000 H   0  0  0  0  0  0  0  0  0  0  0  0
    3.6734   -0.3300    0.0000 H   0  0  0  0  0  0  0  0  0  0  0  0
   12.1435   -1.8209    0.0000 H   0  0  0  0  0  0  0  0  0  0  0  0
   11.4249   -1.0229    0.0000 H   0  0  0  0  0  0  0  0  0  0  0  0
    1.4103   -1.9742    0.0000 H   0  0  0  0  0  0  0  0  0  0  0  0
    8.7101   -4.9123    0.0000 H   0  0  0  0  0  0  0  0  0  0  0  0
   11.7181    4.3454    0.0000 H   0  0  0  0  0  0  0  0  0  0  0  0
   11.3863    3.3241    0.0000 H   0  0  0  0  0  0  0  0  0  0  0  0
  1 21  2  0  0  0  0
  2 27  1  0  0  0  0
  2 67  1  0  0  0  0
  3 27  2  0  0  0  0
  4 28  2  0  0  0  0
  5 29  2  0  0  0  0
  6 14  1  0  0  0  0
  6 21  1  0  0  0  0
  6 44  1  0  0  0  0
  7 16  1  0  0  0  0
  7 29  1  0  0  0  0
  7 50  1  0  0  0  0
  8 28  1  0  0  0  0
  8 30  1  0  0  0  0
  8 59  1  0  0  0  0
  9 23  1  0  0  0  0
  9 60  1  0  0  0  0
  9 61  1  0  0  0  0
 10 25  1  0  0  0  0
 10 33  1  0  0  0  0
 10 62  1  0  0  0  0
 11 26  1  0  0  0  0
 11 64  1  0  0  0  0
 11 65  1  0  0  0  0
 12 31  1  0  0  0  0
 12 68  1  0  0  0  0
 12 69  1  0  0  0  0
 13 32  1  0  0  0  0
 13 33  2  0  0  0  0
 14 15  1  0  0  0  0
 14 27  1  0  0  0  0
 14 34  1  0  0  0  0
 15 17  1  0  0  0  0
 15 35  1  0  0  0  0
 15 36  1  0  0  0  0
 16 18  1  0  0  0  0
 16 21  1  0  0  0  0
 16 37  1  0  0  0  0
 17 19  1  0  0  0  0
 17 38  1  0  0  0  0
 17 39  1  0  0  0  0
 18 25  1  0  0  0  0
 18 40  1  0  0  0  0
 18 41  1  0  0  0  0
 19 26  1  0  0  0  0
 19 42  1  0  0  0  0
 19 43  1  0  0  0  0
 20 22  1  0  0  0  0
 20 23  1  0  0  0  0
 20 45  1  0  0  0  0
 20 46  1  0  0  0  0
 22 24  1  0  0  0  0
 22 47  1  0  0  0  0
 22 48  1  0  0  0  0
 23 28  1  0  0  0  0
 23 49  1  0  0  0  0
 24 31  1  0  0  0  0
 24 51  1  0  0  0  0
 24 52  1  0  0  0  0
 25 32  2  0  0  0  0
 26 53  1  0  0  0  0
 26 54  1  0  0  0  0
 29 30  1  0  0  0  0
 30 55  1  0  0  0  0
 30 56  1  0  0  0  0
 31 57  1  0  0  0  0
 31 58  1  0  0  0  0
 32 63  1  0  0  0  0
 33 66  1  0  0  0  0
M  END
> <PUBCHEM_COMPOUND_CID>
5256

> <PUBCHEM_COMPOUND_CANONICALIZED>
1

> <PUBCHEM_CACTVS_COMPLEXITY>
636

> <PUBCHEM_CACTVS_HBOND_ACCEPTOR>
9

> <PUBCHEM_CACTVS_HBOND_DONOR>
8

> <PUBCHEM_CACTVS_ROTATABLE_BOND>
17

> <PUBCHEM_CACTVS_SUBSKEYS>
AAADcfB7+AAAAAAAAAAAAAAAAAAAAWAAAAAAAAAAAAAAAAABgAAAHgAQCAAACCjBlgQtmBbJkgCoARX3fAAAgC2xEqABUYG4cAiCaBJA2SGUQAAMlgLQQCGcSQAAAAAAAAAAAAAAAAAAAAAAAAAAAAAAAA==

> <PUBCHEM_IUPAC_OPENEYE_NAME>
6-amino-2-[[2-[[2-(2,6-diaminohexanoylamino)acetyl]amino]-3-(1H-imidazol-5-yl)propanoyl]amino]hexanoic acid

> <PUBCHEM_IUPAC_CAS_NAME>
6-amino-2-[[2-[[2-[(2,6-diamino-1-oxohexyl)amino]-1-oxoethyl]amino]-3-(1H-imidazol-5-yl)-1-oxopropyl]amino]hexanoic acid

> <PUBCHEM_IUPAC_NAME>
6-amino-2-[[2-[[2-(2,6-diaminohexanoylamino)acetyl]amino]-3-(1H-imidazol-5-yl)propanoyl]amino]hexanoic acid

> <PUBCHEM_IUPAC_SYSTEMATIC_NAME>
6-azanyl-2-[[2-[2-[2,6-bis(azanyl)hexanoylamino]ethanoylamino]-3-(1H-imidazol-5-yl)propanoyl]amino]hexanoic acid

> <PUBCHEM_IUPAC_TRADITIONAL_NAME>
6-amino-2-[[2-[[2-(2,6-diaminohexanoylamino)acetyl]amino]-3-(1H-imidazol-5-yl)propanoyl]amino]hexanoic acid

> <PUBCHEM_IUPAC_INCHI>
InChI=1S/C20H36N8O5/c21-7-3-1-5-14(23)18(30)25-11-17(29)27-16(9-13-10-24-12-26-13)19(31)28-15(20(32)33)6-2-4-8-22/h10,12,14-16H,1-9,11,21-23H2,(H,24,26)(H,25,30)(H,27,29)(H,28,31)(H,32,33)

> <PUBCHEM_IUPAC_INCHIKEY>
VHFZVZMBXJOMKA-UHFFFAOYSA-N

> <PUBCHEM_XLOGP3_AA>
-4.9

> <PUBCHEM_EXACT_MASS>
468.280866

> <PUBCHEM_MOLECULAR_FORMULA>
C20H36N8O5

> <PUBCHEM_MOLECULAR_WEIGHT>
468.55044

> <PUBCHEM_OPENEYE_CAN_SMILES>
C1=C(NC=N1)CC(C(=O)NC(CCCCN)C(=O)O)NC(=O)CNC(=O)C(CCCCN)N

> <PUBCHEM_OPENEYE_ISO_SMILES>
C1=C(NC=N1)CC(C(=O)NC(CCCCN)C(=O)O)NC(=O)CNC(=O)C(CCCCN)N

> <PUBCHEM_CACTVS_TPSA>
231

> <PUBCHEM_MONOISOTOPIC_WEIGHT>
468.280866

> <PUBCHEM_TOTAL_CHARGE>
0

> <PUBCHEM_HEAVY_ATOM_COUNT>
33

> <PUBCHEM_ATOM_DEF_STEREO_COUNT>
0

> <PUBCHEM_ATOM_UDEF_STEREO_COUNT>
3

> <PUBCHEM_BOND_DEF_STEREO_COUNT>
0

> <PUBCHEM_BOND_UDEF_STEREO_COUNT>
0

> <PUBCHEM_ISOTOPIC_ATOM_COUNT>
0

> <PUBCHEM_COMPONENT_COUNT>
1

> <PUBCHEM_CACTVS_TAUTO_COUNT>
16

> <PUBCHEM_COORDINATE_TYPE>
1
5
255

> <PUBCHEM_BONDANNOTATIONS>
10  25  8
10  33  8
13  32  8
13  33  8
14  34  3
16  37  3
23  49  3
25  32  8

$$$$

