47205046
  -OEChem-06241222572D

 36 38  0     0  0  0  0  0  0999 V2000
    5.6103    1.4907    0.0000 O   0  0  0  0  0  0  0  0  0  0  0  0
    4.6783   -2.9703    0.0000 N   0  0  0  0  0  0  0  0  0  0  0  0
    7.2566    0.9526    0.0000 N   0  0  0  0  0  0  0  0  0  0  0  0
    8.9541    3.0222    0.0000 N   0  0  0  0  0  0  0  0  0  0  0  0
    9.9484    2.9159    0.0000 N   0  0  0  0  0  0  0  0  0  0  0  0
    4.6783   -1.3609    0.0000 C   0  0  0  0  0  0  0  0  0  0  0  0
    4.9889   -0.4104    0.0000 C   0  0  0  0  0  0  0  0  0  0  0  0
    3.7320   -1.6656    0.0000 C   0  0  0  0  0  0  0  0  0  0  0  0
    5.9674   -0.2041    0.0000 C   0  0  0  0  0  0  0  0  0  0  0  0
    3.7320   -2.6656    0.0000 C   0  0  0  0  0  0  0  0  0  0  0  0
    5.2619   -2.1656    0.0000 C   0  0  0  0  0  0  0  0  0  0  0  0
    2.8660   -1.1656    0.0000 C   0  0  0  0  0  0  0  0  0  0  0  0
    6.2781    0.7464    0.0000 C   0  0  0  0  0  0  0  0  0  0  0  0
    2.8660   -3.1656    0.0000 C   0  0  0  0  0  0  0  0  0  0  0  0
    7.5673    1.9031    0.0000 C   0  0  0  0  0  0  0  0  0  0  0  0
    2.0000   -1.6656    0.0000 C   0  0  0  0  0  0  0  0  0  0  0  0
    2.0000   -2.6656    0.0000 C   0  0  0  0  0  0  0  0  0  0  0  0
    8.5458    2.1094    0.0000 C   0  0  0  0  0  0  0  0  0  0  0  0
    9.2878    1.4389    0.0000 C   0  0  0  0  0  0  0  0  0  0  0  0
   10.1547    1.9374    0.0000 C   0  0  0  0  0  0  0  0  0  0  0  0
    4.9684    0.2093    0.0000 H   0  0  0  0  0  0  0  0  0  0  0  0
    4.3751   -0.3230    0.0000 H   0  0  0  0  0  0  0  0  0  0  0  0
    5.9880   -0.8238    0.0000 H   0  0  0  0  0  0  0  0  0  0  0  0
    6.5812   -0.2915    0.0000 H   0  0  0  0  0  0  0  0  0  0  0  0
    5.8819   -2.1656    0.0000 H   0  0  0  0  0  0  0  0  0  0  0  0
    4.8709   -3.5597    0.0000 H   0  0  0  0  0  0  0  0  0  0  0  0
    2.8660   -0.5456    0.0000 H   0  0  0  0  0  0  0  0  0  0  0  0
    2.8660   -3.7856    0.0000 H   0  0  0  0  0  0  0  0  0  0  0  0
    7.5467    2.5228    0.0000 H   0  0  0  0  0  0  0  0  0  0  0  0
    6.9534    1.9905    0.0000 H   0  0  0  0  0  0  0  0  0  0  0  0
    7.6707    0.4911    0.0000 H   0  0  0  0  0  0  0  0  0  0  0  0
    1.4631   -1.3556    0.0000 H   0  0  0  0  0  0  0  0  0  0  0  0
    1.4631   -2.9756    0.0000 H   0  0  0  0  0  0  0  0  0  0  0  0
    9.2219    0.8224    0.0000 H   0  0  0  0  0  0  0  0  0  0  0  0
    8.6450    3.5597    0.0000 H   0  0  0  0  0  0  0  0  0  0  0  0
   10.7206    1.6843    0.0000 H   0  0  0  0  0  0  0  0  0  0  0  0
  1 13  2  0  0  0  0
  2 10  1  0  0  0  0
  2 11  1  0  0  0  0
  2 26  1  0  0  0  0
  3 13  1  0  0  0  0
  3 15  1  0  0  0  0
  3 31  1  0  0  0  0
  4  5  1  0  0  0  0
  4 18  1  0  0  0  0
  4 35  1  0  0  0  0
  5 20  2  0  0  0  0
  6  7  1  0  0  0  0
  6  8  1  0  0  0  0
  6 11  2  0  0  0  0
  7  9  1  0  0  0  0
  7 21  1  0  0  0  0
  7 22  1  0  0  0  0
  8 10  1  0  0  0  0
  8 12  2  0  0  0  0
  9 13  1  0  0  0  0
  9 23  1  0  0  0  0
  9 24  1  0  0  0  0
 10 14  2  0  0  0  0
 11 25  1  0  0  0  0
 12 16  1  0  0  0  0
 12 27  1  0  0  0  0
 14 17  1  0  0  0  0
 14 28  1  0  0  0  0
 15 18  1  0  0  0  0
 15 29  1  0  0  0  0
 15 30  1  0  0  0  0
 16 17  2  0  0  0  0
 16 32  1  0  0  0  0
 17 33  1  0  0  0  0
 18 19  2  0  0  0  0
 19 20  1  0  0  0  0
 19 34  1  0  0  0  0
 20 36  1  0  0  0  0
M  END
> <PUBCHEM_COMPOUND_CID>
47205046

> <PUBCHEM_COMPOUND_CANONICALIZED>
1

> <PUBCHEM_CACTVS_COMPLEXITY>
336

> <PUBCHEM_CACTVS_HBOND_ACCEPTOR>
2

> <PUBCHEM_CACTVS_HBOND_DONOR>
3

> <PUBCHEM_CACTVS_ROTATABLE_BOND>
5

> <PUBCHEM_CACTVS_SUBSKEYS>
AAADceBzoAAAAAAAAAAAAAAAAAAAAWLAAAAwAAAAAAAAAFgB/AAAHgAYAAAADAjBngQ8wPLrkACqAzV3VACShCAxgiAY+aE4ZJgIYPLA0dGUpAhgngDIyAcYicCOgAAAAAACAAAAAAAAAAQAAAAAAAAAAA==

> <PUBCHEM_IUPAC_OPENEYE_NAME>
3-(1H-indol-3-yl)-N-(1H-pyrazol-5-ylmethyl)propanamide

> <PUBCHEM_IUPAC_CAS_NAME>
3-(1H-indol-3-yl)-N-(1H-pyrazol-5-ylmethyl)propanamide

> <PUBCHEM_IUPAC_NAME>
3-(1H-indol-3-yl)-N-(1H-pyrazol-5-ylmethyl)propanamide

> <PUBCHEM_IUPAC_SYSTEMATIC_NAME>
3-(1H-indol-3-yl)-N-(1H-pyrazol-5-ylmethyl)propanamide

> <PUBCHEM_IUPAC_TRADITIONAL_NAME>
3-(1H-indol-3-yl)-N-(1H-pyrazol-5-ylmethyl)propionamide

> <PUBCHEM_IUPAC_INCHI>
InChI=1S/C15H16N4O/c20-15(17-10-12-7-8-18-19-12)6-5-11-9-16-14-4-2-1-3-13(11)14/h1-4,7-9,16H,5-6,10H2,(H,17,20)(H,18,19)

> <PUBCHEM_IUPAC_INCHIKEY>
APGYELKZXIYSJM-UHFFFAOYSA-N

> <PUBCHEM_XLOGP3>
1.3

> <PUBCHEM_EXACT_MASS>
268.132411

> <PUBCHEM_MOLECULAR_FORMULA>
C15H16N4O

> <PUBCHEM_MOLECULAR_WEIGHT>
268.31374

> <PUBCHEM_OPENEYE_CAN_SMILES>
C1=CC=C2C(=C1)C(=CN2)CCC(=O)NCC3=CC=NN3

> <PUBCHEM_OPENEYE_ISO_SMILES>
C1=CC=C2C(=C1)C(=CN2)CCC(=O)NCC3=CC=NN3

> <PUBCHEM_CACTVS_TPSA>
73.6

> <PUBCHEM_MONOISOTOPIC_WEIGHT>
268.132411

> <PUBCHEM_TOTAL_CHARGE>
0

> <PUBCHEM_HEAVY_ATOM_COUNT>
20

> <PUBCHEM_ATOM_DEF_STEREO_COUNT>
0

> <PUBCHEM_ATOM_UDEF_STEREO_COUNT>
0

> <PUBCHEM_BOND_DEF_STEREO_COUNT>
0

> <PUBCHEM_BOND_UDEF_STEREO_COUNT>
0

> <PUBCHEM_ISOTOPIC_ATOM_COUNT>
0

> <PUBCHEM_COMPONENT_COUNT>
1

> <PUBCHEM_CACTVS_TAUTO_COUNT>
4

> <PUBCHEM_COORDINATE_TYPE>
1
5
255

> <PUBCHEM_BONDANNOTATIONS>
10  14  8
12  16  8
14  17  8
16  17  8
18  19  8
19  20  8
2  10  8
2  11  8
4  18  8
4  5  8
5  20  8
6  11  8
6  8  8
8  10  8
8  12  8

$$$$

