   Color/Form

     * Crystals from water
     * Needles from water

   from [1]HSDB

   Melting Point
        257.0-257.5 deg C (0.4 H2O)
   from [2]HSDB

   Octanol/Water Partition Coefficient
        log Kow = -1.11
   from [3]HSDB

   Solubilities
        In water, 8.23X10+3 mg/L at 25 deg C (est)
   from [4]HSDB

   Spectral Properties

     * Maximum absorption (pH 1): 257.5 nm (E = 12,7000); pH 7: 259 nm (E
       = 13,400); pH13: 259 nm (E = 14,000).
     * Specific optical rotation: -5 deg at 27 deg C/D (concentration by
       volume= 0.25 g in 100 ml water).

   from [5]HSDB

   Vapor Pressure
        6.0X10-15 mm Hg at 25 deg C (est)
   from [6]HSDB

   Other Chemical/Physical Properties

     * Henry's Law constant = 1.11X10-22 atm-cu cm/mol at 25 deg C (est)
     * Hydroxyl radical reaction rate constant = 2.38X10-10 cu
       cm/molec-sec at 25 deg C (est)
     * The monohydrate occurs as a white, crystalline powder and has a
       solubility of approximately 0.45 mg/mL in water at 25 deg C.
       /Vidarabine monohydrate/

   from [7]HSDB

   Computed Properties
   Molecular Weight                  285.2566 [g/mol]
   Molecular Formula                 C[10]H[15]N[5]O[5]
   H-Bond Donor                      5
   H-Bond Acceptor                   9
   Rotatable Bond Count              2
   Tautomer Count                    3
   Exact Mass                        285.107319
   MonoIsotopic Mass                 285.107319
   Topological Polar Surface Area    141
   Heavy Atom Count                  20
   Formal Charge                     0
   Complexity                        335
   Isotope Atom Count                0
   Defined Atom Stereocenter Count   4
   Undefined Atom Stereocenter Count 0
   Defined Bond Stereocenter Count   0
   Undefined Bond Stereocenter Count 0
   Covalently-Bonded Unit Count      2

References

   1. http://toxnet.nlm.nih.gov/cgi-bin/sis/search/r?dbs+hsdb:@term+@rn+@rel+5536-17-4
   2. http://toxnet.nlm.nih.gov/cgi-bin/sis/search/r?dbs+hsdb:@term+@rn+@rel+5536-17-4
   3. http://toxnet.nlm.nih.gov/cgi-bin/sis/search/r?dbs+hsdb:@term+@rn+@rel+5536-17-4
   4. http://toxnet.nlm.nih.gov/cgi-bin/sis/search/r?dbs+hsdb:@term+@rn+@rel+5536-17-4
   5. http://toxnet.nlm.nih.gov/cgi-bin/sis/search/r?dbs+hsdb:@term+@rn+@rel+5536-17-4
   6. http://toxnet.nlm.nih.gov/cgi-bin/sis/search/r?dbs+hsdb:@term+@rn+@rel+5536-17-4
   7. http://toxnet.nlm.nih.gov/cgi-bin/sis/search/r?dbs+hsdb:@term+@rn+@rel+5536-17-4
