   Color/Form

     * White crystalline solid
     * Colorless crystals

   from [1]HSDB

   Odor
        Slight pyrethrum-like odor
   from [2]HSDB

   Boiling Point
        180-190 deg C at 0.1 mm Hg
   from [3]HSDB

   Melting Point
        68-70 deg C
   from [4]HSDB

   Corrosivity
        Non-corrosive
   from [5]HSDB

   Density/Specific Gravity
        1.108 at 20 deg C/20 deg C
   from [6]HSDB

   Octanol/Water Partition Coefficient
        log Kow = 4.73
   from [7]HSDB

   Solubilities

     * Methanol (53 g/kg), hexane (20 g/kg), xylene (1 g/kg), acetone,
       toluene.
     * In acetone, ethanol, methanol, hexane, n-octanol all >2 g/100 mL
     * In water, 1.83 mg/L at 25 deg C.

   from [8]HSDB

   Spectral Properties

     * Index of refraction: 1.5175 at 21.5 deg C/D
     * Intense mass spectral peaks: 79 m/z, 107 m/z, 123 m/z, 164 m/z.

   from [9]HSDB

   Vapor Pressure
        7.1X10-6 mm Hg at 30 deg C
   from [10]HSDB

   Other Chemical/Physical Properties

     * MP: 60-80 deg C /Technical/
     * Henry's Law constant = 1.69X10-6 atm-cu m/mol at 25 deg C (est)
     * Hydroxyl radical reaction rate constant = 1.27X10-10 cu
       cm/molec-sec at 25 deg C (est)

   from [11]HSDB

   Computed Properties
   Molecular Weight                  331.4061 [g/mol]
   Molecular Formula                 C[19]H[25]NO[4]
   XLogP3                            4.7
   H-Bond Donor                      0
   H-Bond Acceptor                   4
   Rotatable Bond Count              5
   Exact Mass                        331.178358
   MonoIsotopic Mass                 331.178358
   Topological Polar Surface Area    63.7
   Heavy Atom Count                  24
   Formal Charge                     0
   Complexity                        639
   Isotope Atom Count                0
   Defined Atom Stereocenter Count   0
   Undefined Atom Stereocenter Count 2
   Defined Bond Stereocenter Count   0
   Undefined Bond Stereocenter Count 0
   Covalently-Bonded Unit Count      1
   Feature 3D Acceptor Count         3
   Feature 3D Hydrophobe Count       2
   Feature 3D Ring Count             2
   Effective Rotor Count             6.6
   Conformer Sampling RMSD           0.8
   CID Conformer Count               [12]270

References

   1. http://toxnet.nlm.nih.gov/cgi-bin/sis/search/r?dbs+hsdb:@term+@rn+@rel+7696-12-0
   2. http://toxnet.nlm.nih.gov/cgi-bin/sis/search/r?dbs+hsdb:@term+@rn+@rel+7696-12-0
   3. http://toxnet.nlm.nih.gov/cgi-bin/sis/search/r?dbs+hsdb:@term+@rn+@rel+7696-12-0
   4. http://toxnet.nlm.nih.gov/cgi-bin/sis/search/r?dbs+hsdb:@term+@rn+@rel+7696-12-0
   5. http://toxnet.nlm.nih.gov/cgi-bin/sis/search/r?dbs+hsdb:@term+@rn+@rel+7696-12-0
   6. http://toxnet.nlm.nih.gov/cgi-bin/sis/search/r?dbs+hsdb:@term+@rn+@rel+7696-12-0
   7. http://toxnet.nlm.nih.gov/cgi-bin/sis/search/r?dbs+hsdb:@term+@rn+@rel+7696-12-0
   8. http://toxnet.nlm.nih.gov/cgi-bin/sis/search/r?dbs+hsdb:@term+@rn+@rel+7696-12-0
   9. http://toxnet.nlm.nih.gov/cgi-bin/sis/search/r?dbs+hsdb:@term+@rn+@rel+7696-12-0
  10. http://toxnet.nlm.nih.gov/cgi-bin/sis/search/r?dbs+hsdb:@term+@rn+@rel+7696-12-0
  11. http://toxnet.nlm.nih.gov/cgi-bin/sis/search/r?dbs+hsdb:@term+@rn+@rel+7696-12-0
  12. http://pubchem.ncbi.nlm.nih.gov/vw3d/vw3d.cgi?cid=83975
