442874
  -OEChem-07051213002D

 57 61  0     1  0  0  0  0  0999 V2000
    7.0106    1.1661    0.0000 S   0  0  0  0  0  0  0  0  0  0  0  0
    3.7209   -0.5754    0.0000 O   0  0  0  0  0  0  0  0  0  0  0  0
    6.5862   -1.8220    0.0000 O   0  0  0  0  0  0  0  0  0  0  0  0
    5.5468   -2.5634    0.0000 O   0  0  0  0  0  0  0  0  0  0  0  0
    5.6445    2.1661    0.0000 O   0  0  0  0  0  0  0  0  0  0  0  0
    4.5890   -3.0309    0.0000 O   0  0  0  0  0  0  0  0  0  0  0  0
    9.1086    0.1661    0.0000 O   0  0  0  0  0  0  0  0  0  0  0  0
    8.2426    3.6661    0.0000 O   0  0  0  0  0  0  0  0  0  0  0  0
    7.1285   -3.2692    0.0000 O   0  0  0  0  0  0  0  0  0  0  0  0
    6.5106    0.6661    0.0000 N   0  0  0  0  0  0  0  0  0  0  0  0
    8.2426    1.6661    0.0000 N   0  0  0  0  0  0  0  0  0  0  0  0
    6.1787   -0.9088    0.0000 C   0  0  1  0  0  0  0  0  0  0  0  0
    5.7736   -0.0010    0.0000 C   0  0  1  0  0  0  0  0  0  0  0  0
    7.3766    0.1661    0.0000 C   0  0  2  0  0  0  0  0  0  0  0  0
    4.5874   -1.0747    0.0000 C   0  0  2  0  0  0  0  0  0  0  0  0
    5.4432   -1.5688    0.0000 C   0  0  1  0  0  0  0  0  0  0  0  0
    7.1674   -0.8057    0.0000 C   0  0  0  0  0  0  0  0  0  0  0  0
    4.7911   -0.1077    0.0000 C   0  0  0  0  0  0  0  0  0  0  0  0
    7.3766    2.1661    0.0000 C   0  0  1  0  0  0  0  0  0  0  0  0
    6.5106    1.6661    0.0000 C   0  0  0  0  0  0  0  0  0  0  0  0
    4.3803   -2.0530    0.0000 C   0  0  0  0  0  0  0  0  0  0  0  0
    8.2426    0.6661    0.0000 C   0  0  0  0  0  0  0  0  0  0  0  0
    3.3858   -2.1584    0.0000 C   0  0  0  0  0  0  0  0  0  0  0  0
    2.9783   -1.2452    0.0000 C   0  0  1  0  0  0  0  0  0  0  0  0
    7.3766    3.1661    0.0000 C   0  0  0  0  0  0  0  0  0  0  0  0
    2.4727   -2.5659    0.0000 C   0  0  0  0  0  0  0  0  0  0  0  0
    3.4912   -3.1528    0.0000 C   0  0  0  0  0  0  0  0  0  0  0  0
    9.1086    2.1661    0.0000 C   0  0  0  0  0  0  0  0  0  0  0  0
    2.0000   -1.0381    0.0000 C   0  0  0  0  0  0  0  0  0  0  0  0
    6.1339   -3.3729    0.0000 C   0  0  0  0  0  0  0  0  0  0  0  0
    5.7264   -4.2861    0.0000 C   0  0  0  0  0  0  0  0  0  0  0  0
    5.4255    0.7745    0.0000 H   0  0  0  0  0  0  0  0  0  0  0  0
    4.9230   -1.9062    0.0000 H   0  0  0  0  0  0  0  0  0  0  0  0
    7.1665   -1.4257    0.0000 H   0  0  0  0  0  0  0  0  0  0  0  0
    7.7839   -0.8718    0.0000 H   0  0  0  0  0  0  0  0  0  0  0  0
    4.7894    0.5123    0.0000 H   0  0  0  0  0  0  0  0  0  0  0  0
    4.1744   -0.0443    0.0000 H   0  0  0  0  0  0  0  0  0  0  0  0
    2.8173   -0.6464    0.0000 H   0  0  0  0  0  0  0  0  0  0  0  0
    7.2028   -1.8863    0.0000 H   0  0  0  0  0  0  0  0  0  0  0  0
    7.1645    3.7487    0.0000 H   0  0  0  0  0  0  0  0  0  0  0  0
    6.7660    3.0584    0.0000 H   0  0  0  0  0  0  0  0  0  0  0  0
    2.2200   -1.9997    0.0000 H   0  0  0  0  0  0  0  0  0  0  0  0
    1.9065   -2.8186    0.0000 H   0  0  0  0  0  0  0  0  0  0  0  0
    2.7253   -3.1321    0.0000 H   0  0  0  0  0  0  0  0  0  0  0  0
    2.8747   -3.2181    0.0000 H   0  0  0  0  0  0  0  0  0  0  0  0
    3.5566   -3.7694    0.0000 H   0  0  0  0  0  0  0  0  0  0  0  0
    4.1078   -3.0875    0.0000 H   0  0  0  0  0  0  0  0  0  0  0  0
    9.4186    1.6291    0.0000 H   0  0  0  0  0  0  0  0  0  0  0  0
    9.6456    2.4761    0.0000 H   0  0  0  0  0  0  0  0  0  0  0  0
    8.7986    2.7030    0.0000 H   0  0  0  0  0  0  0  0  0  0  0  0
    2.1284   -0.4315    0.0000 H   0  0  0  0  0  0  0  0  0  0  0  0
    1.3934   -0.9097    0.0000 H   0  0  0  0  0  0  0  0  0  0  0  0
    1.8716   -1.6447    0.0000 H   0  0  0  0  0  0  0  0  0  0  0  0
    8.2426    4.2861    0.0000 H   0  0  0  0  0  0  0  0  0  0  0  0
    5.1602   -4.0334    0.0000 H   0  0  0  0  0  0  0  0  0  0  0  0
    5.4737   -4.8523    0.0000 H   0  0  0  0  0  0  0  0  0  0  0  0
    6.2926   -4.5388    0.0000 H   0  0  0  0  0  0  0  0  0  0  0  0
  1 14  1  0  0  0  0
  1 19  1  0  0  0  0
 15  2  1  1  0  0  0
  2 24  1  0  0  0  0
 12  3  1  6  0  0  0
  3 39  1  0  0  0  0
 16  4  1  6  0  0  0
  4 30  1  0  0  0  0
  5 20  2  0  0  0  0
  6 21  2  0  0  0  0
  7 22  2  0  0  0  0
  8 25  1  0  0  0  0
  8 54  1  0  0  0  0
  9 30  2  0  0  0  0
 10 13  1  0  0  0  0
 10 14  1  0  0  0  0
 10 20  1  0  0  0  0
 11 19  1  0  0  0  0
 11 22  1  0  0  0  0
 11 28  1  0  0  0  0
 12 13  1  0  0  0  0
 12 16  1  0  0  0  0
 12 17  1  0  0  0  0
 13 18  1  0  0  0  0
 13 32  1  6  0  0  0
 14 17  1  1  0  0  0
 14 22  1  0  0  0  0
 15 16  1  0  0  0  0
 15 18  1  0  0  0  0
 15 21  1  0  0  0  0
 16 33  1  0  0  0  0
 17 34  1  0  0  0  0
 17 35  1  0  0  0  0
 18 36  1  0  0  0  0
 18 37  1  0  0  0  0
 19 20  1  0  0  0  0
 19 25  1  1  0  0  0
 21 23  1  0  0  0  0
 23 24  1  0  0  0  0
 23 26  1  0  0  0  0
 23 27  1  0  0  0  0
 24 29  1  1  0  0  0
 24 38  1  0  0  0  0
 25 40  1  0  0  0  0
 25 41  1  0  0  0  0
 26 42  1  0  0  0  0
 26 43  1  0  0  0  0
 26 44  1  0  0  0  0
 27 45  1  0  0  0  0
 27 46  1  0  0  0  0
 27 47  1  0  0  0  0
 28 48  1  0  0  0  0
 28 49  1  0  0  0  0
 28 50  1  0  0  0  0
 29 51  1  0  0  0  0
 29 52  1  0  0  0  0
 29 53  1  0  0  0  0
 30 31  1  0  0  0  0
 31 55  1  0  0  0  0
 31 56  1  0  0  0  0
 31 57  1  0  0  0  0
M  END
> <PUBCHEM_COMPOUND_CID>
442874

> <PUBCHEM_COMPOUND_CANONICALIZED>
1

> <PUBCHEM_CACTVS_COMPLEXITY>
956

> <PUBCHEM_CACTVS_HBOND_ACCEPTOR>
9

> <PUBCHEM_CACTVS_HBOND_DONOR>
2

> <PUBCHEM_CACTVS_ROTATABLE_BOND>
3

> <PUBCHEM_CACTVS_SUBSKEYS>
AAADceB7PABAAAAAAAAAAAAAAAAAAeLFiRAsAAAAAAAWLFgAAAAAHgQACAAADnzhwAYCCAMABggIAIGQGAIAAABAABAAAAHIAAADUBYggCQWQAAHJgCzAAH+/f/fAAAAAAAAAAAAAAAAAAAAAaUABSgAAA==

> <PUBCHEM_IUPAC_INCHI>
InChI=1S/C20H26N2O8S/c1-9-16(3,4)12(25)18(30-9)6-11-17(28,13(18)29-10(2)24)7-19-14(26)21(5)20(8-23,31-19)15(27)22(11)19/h9,11,13,23,28H,6-8H2,1-5H3/t9-,11-,13+,17+,18-,19-,20-/m1/s1

> <PUBCHEM_IUPAC_INCHIKEY>
ITMLCHOGYDYPNT-OQIMMBKLSA-N

> <PUBCHEM_XLOGP3_AA>
-0.6

> <PUBCHEM_EXACT_MASS>
454.140987

> <PUBCHEM_MOLECULAR_FORMULA>
C20H26N2O8S

> <PUBCHEM_MOLECULAR_WEIGHT>
454.49404

> <PUBCHEM_OPENEYE_CAN_SMILES>
CC1C(C(=O)C2(O1)CC3C(C2OC(=O)C)(CC45N3C(=O)C(S4)(N(C5=O)C)CO)O)(C)C

> <PUBCHEM_OPENEYE_ISO_SMILES>
C[C@@H]1C(C(=O)[C@]2(O1)C[C@@H]3[C@]([C@@H]2OC(=O)C)(C[C@@]45N3C(=O)[C@@](S4)(N(C5=O)C)CO)O)(C)C

> <PUBCHEM_CACTVS_TPSA>
159

> <PUBCHEM_MONOISOTOPIC_WEIGHT>
454.140987

> <PUBCHEM_TOTAL_CHARGE>
0

> <PUBCHEM_HEAVY_ATOM_COUNT>
31

> <PUBCHEM_ATOM_DEF_STEREO_COUNT>
7

> <PUBCHEM_ATOM_UDEF_STEREO_COUNT>
0

> <PUBCHEM_BOND_DEF_STEREO_COUNT>
0

> <PUBCHEM_BOND_UDEF_STEREO_COUNT>
0

> <PUBCHEM_ISOTOPIC_ATOM_COUNT>
0

> <PUBCHEM_COMPONENT_COUNT>
1

> <PUBCHEM_CACTVS_TAUTO_COUNT>
1

> <PUBCHEM_COORDINATE_TYPE>
1
5
255

> <PUBCHEM_BONDANNOTATIONS>
13  32  6
14  17  5
19  25  5
15  2  5
24  29  5
12  3  6
16  4  6

$$$$

