   Color/Form

     * Colorless crystals from hexane/CH2Cl2
     * Colorless solid

   from [1]HSDB

   Odor
        Odorless
   from [2]HSDB

   Boiling Point
        >250 deg C
   from [3]HSDB

   Melting Point
        106.2-106.9 deg C
   from [4]HSDB

   Density/Specific Gravity
        1.25 g/cu cm
   from [5]HSDB

   Octanol/Water Partition Coefficient
        log Kow = 2.90
   from [6]HSDB

   Solubilities

     * Readily soluble in acetone, ethanol, xylene, and dimethyl sulfoxide
     * Soluble at 25 deg C (%w/w): acetone > 23; ethanol > 23; xylene 12;
       DMSO > 18.
     * In water, 140 mg/L at 25 deg C

   from [7]HSDB

   Vapor Pressure
        2.59X10-7 mm Hg at 25 deg C
   from [8]HSDB

   Other Chemical/Physical Properties

     * Henry's Law constant = 7.0X10-10 atm-cu m/mole at 20 deg C (est)
     * Hydroxyl radical reaction rate constant = 1.48X10-11 cu cm/mole-sec
       at 20 deg C (est)

   from [9]HSDB

   Computed Properties
   Molecular Weight                  291.77592 [g/mol]
   Molecular Formula                 C[15]H[18]ClN[3]O
   XLogP3                            2.9
   H-Bond Donor                      1
   H-Bond Acceptor                   3
   Rotatable Bond Count              5
   Exact Mass                        291.11384
   MonoIsotopic Mass                 291.11384
   Topological Polar Surface Area    50.9
   Heavy Atom Count                  20
   Formal Charge                     0
   Complexity                        331
   Isotope Atom Count                0
   Defined Atom Stereocenter Count   0
   Undefined Atom Stereocenter Count 2
   Defined Bond Stereocenter Count   0
   Undefined Bond Stereocenter Count 0
   Covalently-Bonded Unit Count      1
   Feature 3D Acceptor Count         1
   Feature 3D Donor Count            1
   Feature 3D Cation Count           2
   Feature 3D Hydrophobe Count       1
   Feature 3D Ring Count             2
   Effective Rotor Count             5.6
   Conformer Sampling RMSD           0.8
   CID Conformer Count               [10]34

References

   1. http://toxnet.nlm.nih.gov/cgi-bin/sis/search/r?dbs+hsdb:@term+@rn+@rel+94361-06-5
   2. http://toxnet.nlm.nih.gov/cgi-bin/sis/search/r?dbs+hsdb:@term+@rn+@rel+94361-06-5
   3. http://toxnet.nlm.nih.gov/cgi-bin/sis/search/r?dbs+hsdb:@term+@rn+@rel+94361-06-5
   4. http://toxnet.nlm.nih.gov/cgi-bin/sis/search/r?dbs+hsdb:@term+@rn+@rel+94361-06-5
   5. http://toxnet.nlm.nih.gov/cgi-bin/sis/search/r?dbs+hsdb:@term+@rn+@rel+94361-06-5
   6. http://toxnet.nlm.nih.gov/cgi-bin/sis/search/r?dbs+hsdb:@term+@rn+@rel+94361-06-5
   7. http://toxnet.nlm.nih.gov/cgi-bin/sis/search/r?dbs+hsdb:@term+@rn+@rel+94361-06-5
   8. http://toxnet.nlm.nih.gov/cgi-bin/sis/search/r?dbs+hsdb:@term+@rn+@rel+94361-06-5
   9. http://toxnet.nlm.nih.gov/cgi-bin/sis/search/r?dbs+hsdb:@term+@rn+@rel+94361-06-5
  10. http://pubchem.ncbi.nlm.nih.gov/vw3d/vw3d.cgi?cid=86132
