794
  -OEChem-07051212482D

 17 17  0     0  0  0  0  0  0999 V2000
    5.1043    1.2730    0.0000 O   0  0  0  0  0  0  0  0  0  0  0  0
    7.0064    0.6550    0.0000 O   0  0  0  0  0  0  0  0  0  0  0  0
    6.4712   -0.9923    0.0000 O   0  0  0  0  0  0  0  0  0  0  0  0
    2.8090   -0.6530    0.0000 N   0  0  0  0  0  0  0  0  0  0  0  0
    2.3090    0.8858    0.0000 N   0  0  0  0  0  0  0  0  0  0  0  0
    4.5691   -0.3743    0.0000 C   0  0  0  0  0  0  0  0  0  0  0  0
    3.6180   -0.0652    0.0000 C   0  0  0  0  0  0  0  0  0  0  0  0
    3.3090    0.8858    0.0000 C   0  0  0  0  0  0  0  0  0  0  0  0
    5.3122    0.2949    0.0000 C   0  0  0  0  0  0  0  0  0  0  0  0
    2.0000   -0.0652    0.0000 C   0  0  0  0  0  0  0  0  0  0  0  0
    6.2633   -0.0141    0.0000 C   0  0  0  0  0  0  0  0  0  0  0  0
    4.2780   -0.9217    0.0000 H   0  0  0  0  0  0  0  0  0  0  0  0
    5.0577   -0.7560    0.0000 H   0  0  0  0  0  0  0  0  0  0  0  0
    2.8090   -1.2730    0.0000 H   0  0  0  0  0  0  0  0  0  0  0  0
    3.6734    1.3874    0.0000 H   0  0  0  0  0  0  0  0  0  0  0  0
    1.4103   -0.2568    0.0000 H   0  0  0  0  0  0  0  0  0  0  0  0
    7.5961    0.4634    0.0000 H   0  0  0  0  0  0  0  0  0  0  0  0
  1  9  2  0  0  0  0
  2 11  1  0  0  0  0
  2 17  1  0  0  0  0
  3 11  2  0  0  0  0
  4  7  1  0  0  0  0
  4 10  1  0  0  0  0
  4 14  1  0  0  0  0
  5  8  1  0  0  0  0
  5 10  2  0  0  0  0
  6  7  1  0  0  0  0
  6  9  1  0  0  0  0
  6 12  1  0  0  0  0
  6 13  1  0  0  0  0
  7  8  2  0  0  0  0
  8 15  1  0  0  0  0
  9 11  1  0  0  0  0
 10 16  1  0  0  0  0
M  END
> <PUBCHEM_COMPOUND_CID>
794

> <PUBCHEM_COMPOUND_CANONICALIZED>
1

> <PUBCHEM_CACTVS_COMPLEXITY>
181

> <PUBCHEM_CACTVS_HBOND_ACCEPTOR>
4

> <PUBCHEM_CACTVS_HBOND_DONOR>
2

> <PUBCHEM_CACTVS_ROTATABLE_BOND>
3

> <PUBCHEM_CACTVS_SUBSKEYS>
AAADcYBjMAAAAAAAAAAAAAAAAAAAAWAAAAAAAAAAAAAAAAABgAAAHgAQCAAACAzBlgQtmBbJkgCoAZT3bAIAgC2xEqABUYF4cAiAaBpAnQCUQAAMkAJAQCC8EQIAAAAAAAAAAAAAAAAAAAAAAAAAAAAAAA==

> <PUBCHEM_IUPAC_OPENEYE_NAME>
3-(1H-imidazol-5-yl)-2-oxo-propanoic acid

> <PUBCHEM_IUPAC_CAS_NAME>
3-(1H-imidazol-5-yl)-2-oxopropanoic acid

> <PUBCHEM_IUPAC_NAME>
3-(1H-imidazol-5-yl)-2-oxopropanoic acid

> <PUBCHEM_IUPAC_SYSTEMATIC_NAME>
3-(1H-imidazol-5-yl)-2-oxidanylidene-propanoic acid

> <PUBCHEM_IUPAC_TRADITIONAL_NAME>
3-(1H-imidazol-5-yl)-2-keto-propionic acid

> <PUBCHEM_IUPAC_INCHI>
InChI=1S/C6H6N2O3/c9-5(6(10)11)1-4-2-7-3-8-4/h2-3H,1H2,(H,7,8)(H,10,11)

> <PUBCHEM_IUPAC_INCHIKEY>
JEJNWEREQWMOHB-UHFFFAOYSA-N

> <PUBCHEM_XLOGP3_AA>
-0.6

> <PUBCHEM_EXACT_MASS>
154.037842

> <PUBCHEM_MOLECULAR_FORMULA>
C6H6N2O3

> <PUBCHEM_MOLECULAR_WEIGHT>
154.12344

> <PUBCHEM_OPENEYE_CAN_SMILES>
C1=C(NC=N1)CC(=O)C(=O)O

> <PUBCHEM_OPENEYE_ISO_SMILES>
C1=C(NC=N1)CC(=O)C(=O)O

> <PUBCHEM_CACTVS_TPSA>
83

> <PUBCHEM_MONOISOTOPIC_WEIGHT>
154.037842

> <PUBCHEM_TOTAL_CHARGE>
0

> <PUBCHEM_HEAVY_ATOM_COUNT>
11

> <PUBCHEM_ATOM_DEF_STEREO_COUNT>
0

> <PUBCHEM_ATOM_UDEF_STEREO_COUNT>
0

> <PUBCHEM_BOND_DEF_STEREO_COUNT>
0

> <PUBCHEM_BOND_UDEF_STEREO_COUNT>
0

> <PUBCHEM_ISOTOPIC_ATOM_COUNT>
0

> <PUBCHEM_COMPONENT_COUNT>
1

> <PUBCHEM_CACTVS_TAUTO_COUNT>
7

> <PUBCHEM_COORDINATE_TYPE>
1
5
255

> <PUBCHEM_BONDANNOTATIONS>
4  10  8
4  7  8
5  10  8
5  8  8
7  8  8

$$$$

