   Color/Form
        Colorless liquid
   from [1]HSDB

   Odor

     * Odor described as being quite similar to that of trichloroethylene
       or chloroform
     * Chloroform-like odor

   from [2]HSDB

   Boiling Point
        157 deg C
   from [3]HSDB

   Melting Point
        -14.7 deg C
   from [4]HSDB

   Critical Temperature and Pressure
        Critical temp: 652 deg K; critical pressure: 3.87X10+6 Pa
   from [5]HSDB

   Density/Specific Gravity
        1.3889 g/cu cm at 20 deg C
   from [6]HSDB

   Heat of Combustion
        -1.5536X10+9 J/kmol
   from [7]HSDB

   Heat of Vaporization
        4.7998X10+7 J/kmole
   from [8]HSDB

   Octanol/Water Partition Coefficient
        log Kow = 2.27
   from [9]HSDB

   Solubilities

     * Dissolves oils, fats, waxes, chlorinated rubber, and numerous
       resins.
     * Slightly soluble in carbon tetrachloride; soluble in ethanol, ethyl
       ether; very soluble in chloroform
     * In water, 1750 mg/L at 25 deg C

   from [10]HSDB

   Spectral Properties

     * Index of refraction = 1.4852 at 20 deg C/D
     * MASS: 21378 (NIST/EPA/MSDC Mass Spectral Database, 1990 version)
     * IR: 5859 (Coblentz Society Spectral Collection)
     * Raman: 312 (Sadtler Research Laboratories Spectral Collection)
     * 1H NMR: 6769 (Sadtler Research Laboratories Spectral Collection)
     * 13C NMR: 23 (Johnson and Jankowski, Carbon-13 NMR Spectra, John
       Wiley & Sons, New York)

   from [11]HSDB

   Surface Tension
        3.77X10-2 N/m at 20 deg C
   from [12]HSDB

   Vapor Density
        5.08 (Air = 1)
   from [13]HSDB

   Vapor Pressure
        3.69 mm Hg at 25 deg C
   from [14]HSDB

   Viscosity
        2.5X10-4 Pa.s at 20 deg C
   from [15]HSDB

   Other Chemical/Physical Properties

     * 1 ppm = 6.13 mg/cu m
     * Saturation concentration in air: 16 g/cu m at 20 deg C, 31 g/cu m
       at 30 deg C
     * Forms azeotropes with camphene, alpha-pinene, and
       2,7-dimethyloctane
     * Critical molar volume = 0.334 um/kg
     * Enthalpy of vaporization (at BP)= 8.87 kcal/mol; enthalpy of
       sublimation (at 298 deg K)= 11.22 kcal/mol
     * MASS: 4380 (NIST/EPA/MSDC Mass Spectral Database, 1990 version);
       815 (Atlas of Mass Spectral Data, John Wiley & Sons, New York)
       /Propane, 1,1,1-trichloro/
     * MASS: 4382 (NIST/EPA/MSDC Mass Spectral Database, 1990 version)
       /Propane, 1,1,2-trichloro/
     * IR: 10638 (Sadtler Research Laboratories IR Grating Collection)
       /Propane, 1,1,2-trichloro/
     * Raman: 756 (Sadtler Research Laboratories Prism Collection)
       /Propane, 1,1,2-trichloro/
     * 1H NMR: 3652 (Sadtler Research Laboratories Prism Collection)
       /Propane, 1,1,2-trichloro/
     * IR: 23715 (Sadtler Research Laboratories Prism Collection)
       /Propane, 1,2,2-trichloro/
     * 1H NMR: 383 (Varian Associates NMR Spectra Catalogue) /Propane,
       1,2,2-trichloro/
     * MASS: 4381 (NIST/EPA/MSDC Mass Spectral Dtabase, 1990 version); 814
       (Atlas of Mass Spectral Data, John Wiley & Sons, New York)
       /Propane, 1,2,2-trichloro/
     * Viscosity = 2.505 cP at 20 deg C; surface tension 37.80 dyne/cm at
       20 deg C; standard heat of combustion -414.77 kcal/mol; heat of
       vaporization 11.22 kcal/mol at 25 deg C
     * Henry's Law constant = 3.43X10-4 atm-cu m/mole at 25 deg C
     * Hydroxyl radical reaction rate constant = 3.5X10-13 cu cm/molec-sec
       at 25 deg C (est)

   from [16]HSDB

   Computed Properties
   Molecular Weight                  147.4308 [g/mol]
   Molecular Formula                 C[3]H[5]Cl[3]
   XLogP3                            1.8
   H-Bond Donor                      0
   H-Bond Acceptor                   0
   Rotatable Bond Count              2
   Exact Mass                        145.945683
   MonoIsotopic Mass                 145.945683
   Topological Polar Surface Area    0
   Heavy Atom Count                  6
   Formal Charge                     0
   Complexity                        25.2
   Isotope Atom Count                0
   Defined Atom Stereocenter Count   0
   Undefined Atom Stereocenter Count 0
   Defined Bond Stereocenter Count   0
   Undefined Bond Stereocenter Count 0
   Covalently-Bonded Unit Count      1
   Effective Rotor Count             2
   Conformer Sampling RMSD           0.4
   CID Conformer Count               [17]9

References

   1. http://toxnet.nlm.nih.gov/cgi-bin/sis/search/r?dbs+hsdb:@term+@rn+@rel+96-18-4
   2. http://toxnet.nlm.nih.gov/cgi-bin/sis/search/r?dbs+hsdb:@term+@rn+@rel+96-18-4
   3. http://toxnet.nlm.nih.gov/cgi-bin/sis/search/r?dbs+hsdb:@term+@rn+@rel+96-18-4
   4. http://toxnet.nlm.nih.gov/cgi-bin/sis/search/r?dbs+hsdb:@term+@rn+@rel+96-18-4
   5. http://toxnet.nlm.nih.gov/cgi-bin/sis/search/r?dbs+hsdb:@term+@rn+@rel+96-18-4
   6. http://toxnet.nlm.nih.gov/cgi-bin/sis/search/r?dbs+hsdb:@term+@rn+@rel+96-18-4
   7. http://toxnet.nlm.nih.gov/cgi-bin/sis/search/r?dbs+hsdb:@term+@rn+@rel+96-18-4
   8. http://toxnet.nlm.nih.gov/cgi-bin/sis/search/r?dbs+hsdb:@term+@rn+@rel+96-18-4
   9. http://toxnet.nlm.nih.gov/cgi-bin/sis/search/r?dbs+hsdb:@term+@rn+@rel+96-18-4
  10. http://toxnet.nlm.nih.gov/cgi-bin/sis/search/r?dbs+hsdb:@term+@rn+@rel+96-18-4
  11. http://toxnet.nlm.nih.gov/cgi-bin/sis/search/r?dbs+hsdb:@term+@rn+@rel+96-18-4
  12. http://toxnet.nlm.nih.gov/cgi-bin/sis/search/r?dbs+hsdb:@term+@rn+@rel+96-18-4
  13. http://toxnet.nlm.nih.gov/cgi-bin/sis/search/r?dbs+hsdb:@term+@rn+@rel+96-18-4
  14. http://toxnet.nlm.nih.gov/cgi-bin/sis/search/r?dbs+hsdb:@term+@rn+@rel+96-18-4
  15. http://toxnet.nlm.nih.gov/cgi-bin/sis/search/r?dbs+hsdb:@term+@rn+@rel+96-18-4
  16. http://toxnet.nlm.nih.gov/cgi-bin/sis/search/r?dbs+hsdb:@term+@rn+@rel+96-18-4
  17. http://pubchem.ncbi.nlm.nih.gov/vw3d/vw3d.cgi?cid=7285
