47205227
  -OEChem-06241222582D

 32 34  0     0  0  0  0  0  0999 V2000
    2.0000    1.7797    0.0000 Cl  0  0  0  0  0  0  0  0  0  0  0  0
    5.5443   -0.0250    0.0000 O   0  0  0  0  0  0  0  0  0  0  0  0
    7.6279    1.6458    0.0000 O   0  0  0  0  0  0  0  0  0  0  0  0
    7.6279   -0.0863    0.0000 N   0  0  0  0  0  0  0  0  0  0  0  0
    8.7212   -1.8659    0.0000 N   0  0  0  0  0  0  0  0  0  0  0  0
    9.4643   -2.5350    0.0000 N   0  0  0  0  0  0  0  0  0  0  0  0
    5.5443    1.5845    0.0000 C   0  0  0  0  0  0  0  0  0  0  0  0
    4.5981    1.2797    0.0000 C   0  0  0  0  0  0  0  0  0  0  0  0
    6.1279    0.7797    0.0000 C   0  0  0  0  0  0  0  0  0  0  0  0
    4.5981    0.2797    0.0000 C   0  0  0  0  0  0  0  0  0  0  0  0
    7.1279    0.7797    0.0000 C   0  0  0  0  0  0  0  0  0  0  0  0
    3.7320    1.7797    0.0000 C   0  0  0  0  0  0  0  0  0  0  0  0
    5.8550    2.5350    0.0000 C   0  0  0  0  0  0  0  0  0  0  0  0
    8.6279   -0.0863    0.0000 C   0  0  0  0  0  0  0  0  0  0  0  0
    3.7320   -0.2203    0.0000 C   0  0  0  0  0  0  0  0  0  0  0  0
    9.1279   -0.9523    0.0000 C   0  0  0  0  0  0  0  0  0  0  0  0
    2.8660    1.2797    0.0000 C   0  0  0  0  0  0  0  0  0  0  0  0
    2.8660    0.2797    0.0000 C   0  0  0  0  0  0  0  0  0  0  0  0
   10.1224   -1.0568    0.0000 C   0  0  0  0  0  0  0  0  0  0  0  0
   10.3303   -2.0350    0.0000 C   0  0  0  0  0  0  0  0  0  0  0  0
    3.7320    2.3997    0.0000 H   0  0  0  0  0  0  0  0  0  0  0  0
    9.2105    0.1258    0.0000 H   0  0  0  0  0  0  0  0  0  0  0  0
    8.5202    0.5243    0.0000 H   0  0  0  0  0  0  0  0  0  0  0  0
    6.4443    2.3424    0.0000 H   0  0  0  0  0  0  0  0  0  0  0  0
    6.0476    3.1243    0.0000 H   0  0  0  0  0  0  0  0  0  0  0  0
    5.2656    2.7276    0.0000 H   0  0  0  0  0  0  0  0  0  0  0  0
    3.7320   -0.8403    0.0000 H   0  0  0  0  0  0  0  0  0  0  0  0
    7.3179   -0.6232    0.0000 H   0  0  0  0  0  0  0  0  0  0  0  0
    2.3291   -0.0303    0.0000 H   0  0  0  0  0  0  0  0  0  0  0  0
   10.5373   -0.5961    0.0000 H   0  0  0  0  0  0  0  0  0  0  0  0
    8.1147   -1.9948    0.0000 H   0  0  0  0  0  0  0  0  0  0  0  0
   10.8967   -2.2872    0.0000 H   0  0  0  0  0  0  0  0  0  0  0  0
  1 17  1  0  0  0  0
  2  9  1  0  0  0  0
  2 10  1  0  0  0  0
  3 11  2  0  0  0  0
  4 11  1  0  0  0  0
  4 14  1  0  0  0  0
  4 28  1  0  0  0  0
  5  6  1  0  0  0  0
  5 16  1  0  0  0  0
  5 31  1  0  0  0  0
  6 20  2  0  0  0  0
  7  8  1  0  0  0  0
  7  9  2  0  0  0  0
  7 13  1  0  0  0  0
  8 10  2  0  0  0  0
  8 12  1  0  0  0  0
  9 11  1  0  0  0  0
 10 15  1  0  0  0  0
 12 17  2  0  0  0  0
 12 21  1  0  0  0  0
 13 24  1  0  0  0  0
 13 25  1  0  0  0  0
 13 26  1  0  0  0  0
 14 16  1  0  0  0  0
 14 22  1  0  0  0  0
 14 23  1  0  0  0  0
 15 18  2  0  0  0  0
 15 27  1  0  0  0  0
 16 19  2  0  0  0  0
 17 18  1  0  0  0  0
 18 29  1  0  0  0  0
 19 20  1  0  0  0  0
 19 30  1  0  0  0  0
 20 32  1  0  0  0  0
M  END
> <PUBCHEM_COMPOUND_CID>
47205227

> <PUBCHEM_COMPOUND_CANONICALIZED>
1

> <PUBCHEM_CACTVS_COMPLEXITY>
368

> <PUBCHEM_CACTVS_HBOND_ACCEPTOR>
3

> <PUBCHEM_CACTVS_HBOND_DONOR>
2

> <PUBCHEM_CACTVS_ROTATABLE_BOND>
3

> <PUBCHEM_CACTVS_SUBSKEYS>
AAADccBzMAAEAAAAAAAAAAAAAAAAAWJAAAAwAAAAAAAAAEgB/AAAHgIYAAAADA7BniQ+htLjBECqA7V3UAKSDAAkpwAYuaH+btgOZrKF9/+XvSjk3hGY6YeY3+LugCAAIAAIAAAAQABAABAAAAAAAAAAAA==

> <PUBCHEM_IUPAC_OPENEYE_NAME>
5-chloro-3-methyl-N-(1H-pyrazol-5-ylmethyl)benzofuran-2-carboxamide

> <PUBCHEM_IUPAC_CAS_NAME>
5-chloro-3-methyl-N-(1H-pyrazol-5-ylmethyl)-2-benzofurancarboxamide

> <PUBCHEM_IUPAC_NAME>
5-chloro-3-methyl-N-(1H-pyrazol-5-ylmethyl)-1-benzofuran-2-carboxamide

> <PUBCHEM_IUPAC_SYSTEMATIC_NAME>
5-chloranyl-3-methyl-N-(1H-pyrazol-5-ylmethyl)-1-benzofuran-2-carboxamide

> <PUBCHEM_IUPAC_TRADITIONAL_NAME>
5-chloro-3-methyl-N-(1H-pyrazol-5-ylmethyl)coumarilamide

> <PUBCHEM_IUPAC_INCHI>
InChI=1S/C14H12ClN3O2/c1-8-11-6-9(15)2-3-12(11)20-13(8)14(19)16-7-10-4-5-17-18-10/h2-6H,7H2,1H3,(H,16,19)(H,17,18)

> <PUBCHEM_IUPAC_INCHIKEY>
JESNXSNLWRDZLY-UHFFFAOYSA-N

> <PUBCHEM_XLOGP3_AA>
2.8

> <PUBCHEM_EXACT_MASS>
289.061804

> <PUBCHEM_MOLECULAR_FORMULA>
C14H12ClN3O2

> <PUBCHEM_MOLECULAR_WEIGHT>
289.71698

> <PUBCHEM_OPENEYE_CAN_SMILES>
CC1=C(OC2=C1C=C(C=C2)Cl)C(=O)NCC3=CC=NN3

> <PUBCHEM_OPENEYE_ISO_SMILES>
CC1=C(OC2=C1C=C(C=C2)Cl)C(=O)NCC3=CC=NN3

> <PUBCHEM_CACTVS_TPSA>
70.9

> <PUBCHEM_MONOISOTOPIC_WEIGHT>
289.061804

> <PUBCHEM_TOTAL_CHARGE>
0

> <PUBCHEM_HEAVY_ATOM_COUNT>
20

> <PUBCHEM_ATOM_DEF_STEREO_COUNT>
0

> <PUBCHEM_ATOM_UDEF_STEREO_COUNT>
0

> <PUBCHEM_BOND_DEF_STEREO_COUNT>
0

> <PUBCHEM_BOND_UDEF_STEREO_COUNT>
0

> <PUBCHEM_ISOTOPIC_ATOM_COUNT>
0

> <PUBCHEM_COMPONENT_COUNT>
1

> <PUBCHEM_CACTVS_TAUTO_COUNT>
4

> <PUBCHEM_COORDINATE_TYPE>
1
5
255

> <PUBCHEM_BONDANNOTATIONS>
10  15  8
12  17  8
15  18  8
16  19  8
17  18  8
19  20  8
2  10  8
2  9  8
5  16  8
5  6  8
6  20  8
7  8  8
7  9  8
8  10  8
8  12  8

$$$$

