443288
  -OEChem-07051213012D

 64 64  0     1  0  0  0  0  0999 V2000
   11.1972   -5.6370    0.0000 Cl  0  0  0  0  0  0  0  0  0  0  0  0
    8.1972   -3.9050    0.0000 Cl  0  0  0  0  0  0  0  0  0  0  0  0
    9.4651   -0.1729    0.0000 S   0  0  0  0  0  0  0  0  0  0  0  0
   11.1972   -2.1730    0.0000 P   0  0  3  0  0  0  0  0  0  0  0  0
   12.0632   -1.6730    0.0000 O   0  0  0  0  0  0  0  0  0  0  0  0
   11.6972   -3.0390    0.0000 O   0  0  0  0  0  0  0  0  0  0  0  0
    7.7331    2.8270    0.0000 O   0  0  0  0  0  0  0  0  0  0  0  0
    6.8671    2.3270    0.0000 O   0  0  0  0  0  0  0  0  0  0  0  0
    2.5369    0.8271    0.0000 O   0  0  0  0  0  0  0  0  0  0  0  0
    3.4030    2.3270    0.0000 O   0  0  0  0  0  0  0  0  0  0  0  0
   10.3312    5.3270    0.0000 O   0  0  0  0  0  0  0  0  0  0  0  0
   11.1972    3.8270    0.0000 O   0  0  0  0  0  0  0  0  0  0  0  0
   10.3312   -1.6730    0.0000 N   0  0  0  0  0  0  0  0  0  0  0  0
   10.6972   -3.0390    0.0000 N   0  0  0  0  0  0  0  0  0  0  0  0
    7.7331    0.8271    0.0000 N   0  0  0  0  0  0  0  0  0  0  0  0
    9.4651    2.8270    0.0000 N   0  0  0  0  0  0  0  0  0  0  0  0
    4.2690   -0.1729    0.0000 N   0  0  0  0  0  0  0  0  0  0  0  0
   10.3312   -0.6729    0.0000 C   0  0  3  0  0  0  0  0  0  0  0  0
   11.1972   -0.1729    0.0000 C   0  0  0  0  0  0  0  0  0  0  0  0
   12.0632   -0.6729    0.0000 C   0  0  0  0  0  0  0  0  0  0  0  0
   11.1972   -3.9050    0.0000 C   0  0  0  0  0  0  0  0  0  0  0  0
    9.6972   -3.0390    0.0000 C   0  0  0  0  0  0  0  0  0  0  0  0
    9.4651    0.8271    0.0000 C   0  0  0  0  0  0  0  0  0  0  0  0
    8.5991    1.3270    0.0000 C   0  0  3  0  0  0  0  0  0  0  0  0
   10.6972   -4.7710    0.0000 C   0  0  0  0  0  0  0  0  0  0  0  0
    9.1972   -3.9050    0.0000 C   0  0  0  0  0  0  0  0  0  0  0  0
    8.5991    2.3270    0.0000 C   0  0  0  0  0  0  0  0  0  0  0  0
    6.0010    0.8271    0.0000 C   0  0  0  0  0  0  0  0  0  0  0  0
    6.8671    1.3270    0.0000 C   0  0  0  0  0  0  0  0  0  0  0  0
    5.1350    1.3270    0.0000 C   0  0  0  0  0  0  0  0  0  0  0  0
    4.2690    0.8271    0.0000 C   0  0  3  0  0  0  0  0  0  0  0  0
    9.4651    3.8270    0.0000 C   0  0  0  0  0  0  0  0  0  0  0  0
    3.4030    1.3270    0.0000 C   0  0  0  0  0  0  0  0  0  0  0  0
   10.3312    4.3270    0.0000 C   0  0  0  0  0  0  0  0  0  0  0  0
    9.7942   -0.9829    0.0000 H   0  0  0  0  0  0  0  0  0  0  0  0
   11.5957    0.3020    0.0000 H   0  0  0  0  0  0  0  0  0  0  0  0
   10.7987    0.3020    0.0000 H   0  0  0  0  0  0  0  0  0  0  0  0
    9.7942   -1.9830    0.0000 H   0  0  0  0  0  0  0  0  0  0  0  0
   12.6738   -0.7806    0.0000 H   0  0  0  0  0  0  0  0  0  0  0  0
   12.2753   -0.0903    0.0000 H   0  0  0  0  0  0  0  0  0  0  0  0
    9.8048   -2.4284    0.0000 H   0  0  0  0  0  0  0  0  0  0  0  0
    9.1146   -2.8269    0.0000 H   0  0  0  0  0  0  0  0  0  0  0  0
   11.6721   -4.3035    0.0000 H   0  0  0  0  0  0  0  0  0  0  0  0
   11.6721   -3.5065    0.0000 H   0  0  0  0  0  0  0  0  0  0  0  0
   10.0757    0.7194    0.0000 H   0  0  0  0  0  0  0  0  0  0  0  0
    9.6772    1.4097    0.0000 H   0  0  0  0  0  0  0  0  0  0  0  0
    8.5991    0.7071    0.0000 H   0  0  0  0  0  0  0  0  0  0  0  0
    9.0895   -4.5156    0.0000 H   0  0  0  0  0  0  0  0  0  0  0  0
    9.7798   -4.1170    0.0000 H   0  0  0  0  0  0  0  0  0  0  0  0
   10.2222   -4.3725    0.0000 H   0  0  0  0  0  0  0  0  0  0  0  0
   10.2222   -5.1696    0.0000 H   0  0  0  0  0  0  0  0  0  0  0  0
    7.7331    0.2071    0.0000 H   0  0  0  0  0  0  0  0  0  0  0  0
    5.6025    0.3521    0.0000 H   0  0  0  0  0  0  0  0  0  0  0  0
    6.3996    0.3521    0.0000 H   0  0  0  0  0  0  0  0  0  0  0  0
    5.5335    1.8020    0.0000 H   0  0  0  0  0  0  0  0  0  0  0  0
    4.7365    1.8020    0.0000 H   0  0  0  0  0  0  0  0  0  0  0  0
    4.8059    0.5171    0.0000 H   0  0  0  0  0  0  0  0  0  0  0  0
   10.0021    2.5170    0.0000 H   0  0  0  0  0  0  0  0  0  0  0  0
    9.2531    4.4097    0.0000 H   0  0  0  0  0  0  0  0  0  0  0  0
    8.8546    3.7194    0.0000 H   0  0  0  0  0  0  0  0  0  0  0  0
    3.7320   -0.4829    0.0000 H   0  0  0  0  0  0  0  0  0  0  0  0
    4.8059   -0.4829    0.0000 H   0  0  0  0  0  0  0  0  0  0  0  0
    2.0000    1.1370    0.0000 H   0  0  0  0  0  0  0  0  0  0  0  0
   10.8681    5.6370    0.0000 H   0  0  0  0  0  0  0  0  0  0  0  0
  1 25  1  0  0  0  0
  2 26  1  0  0  0  0
  3 18  1  0  0  0  0
  3 23  1  0  0  0  0
  4  5  1  0  0  0  0
  4  6  2  0  0  0  0
  4 13  1  0  0  0  0
  4 14  1  0  0  0  0
  5 20  1  0  0  0  0
  7 27  2  0  0  0  0
  8 29  2  0  0  0  0
  9 33  1  0  0  0  0
  9 63  1  0  0  0  0
 10 33  2  0  0  0  0
 11 34  1  0  0  0  0
 11 64  1  0  0  0  0
 12 34  2  0  0  0  0
 13 18  1  0  0  0  0
 13 38  1  0  0  0  0
 14 21  1  0  0  0  0
 14 22  1  0  0  0  0
 15 24  1  0  0  0  0
 15 29  1  0  0  0  0
 15 52  1  0  0  0  0
 16 27  1  0  0  0  0
 16 32  1  0  0  0  0
 16 58  1  0  0  0  0
 17 31  1  0  0  0  0
 17 61  1  0  0  0  0
 17 62  1  0  0  0  0
 18 19  1  0  0  0  0
 18 35  1  0  0  0  0
 19 20  1  0  0  0  0
 19 36  1  0  0  0  0
 19 37  1  0  0  0  0
 20 39  1  0  0  0  0
 20 40  1  0  0  0  0
 21 25  1  0  0  0  0
 21 43  1  0  0  0  0
 21 44  1  0  0  0  0
 22 26  1  0  0  0  0
 22 41  1  0  0  0  0
 22 42  1  0  0  0  0
 23 24  1  0  0  0  0
 23 45  1  0  0  0  0
 23 46  1  0  0  0  0
 24 27  1  0  0  0  0
 24 47  1  0  0  0  0
 25 50  1  0  0  0  0
 25 51  1  0  0  0  0
 26 48  1  0  0  0  0
 26 49  1  0  0  0  0
 28 29  1  0  0  0  0
 28 30  1  0  0  0  0
 28 53  1  0  0  0  0
 28 54  1  0  0  0  0
 30 31  1  0  0  0  0
 30 55  1  0  0  0  0
 30 56  1  0  0  0  0
 31 33  1  0  0  0  0
 31 57  1  0  0  0  0
 32 34  1  0  0  0  0
 32 59  1  0  0  0  0
 32 60  1  0  0  0  0
M  END
> <PUBCHEM_COMPOUND_CID>
443288

> <PUBCHEM_COMPOUND_CANONICALIZED>
1

> <PUBCHEM_CACTVS_COMPLEXITY>
761

> <PUBCHEM_CACTVS_HBOND_ACCEPTOR>
12

> <PUBCHEM_CACTVS_HBOND_DONOR>
6

> <PUBCHEM_CACTVS_ROTATABLE_BOND>
16

> <PUBCHEM_CACTVS_SUBSKEYS>
AAADceB7vAJGAAAAAAAAAAAAAAAAAAAAAAAsAAAAAAAAAAAAAAAAHgYQiCAACCvlwEaACALAAxgIQAGQGIAAAABAABAAAIGIAAACQBIggCBUQAAGFgCwAACcFwIAAAAAAAAAAAAAAAAAAAAAAAAAAAAAAA==

> <PUBCHEM_IUPAC_OPENEYE_NAME>
2-amino-5-[[1-[[2-[bis(2-chloroethyl)amino]-2-oxo-1,3,2$l^{5}-oxazaphosphinan-4-yl]sulfanylmethyl]-2-(carboxymethylamino)-2-oxo-ethyl]amino]-5-oxo-pentanoic acid

> <PUBCHEM_IUPAC_CAS_NAME>
2-amino-5-[[3-[[2-[bis(2-chloroethyl)amino]-2-oxo-1,3,2$l^{5}-oxazaphosphorinan-4-yl]thio]-1-(carboxymethylamino)-1-oxopropan-2-yl]amino]-5-oxopentanoic acid

> <PUBCHEM_IUPAC_NAME>
2-amino-5-[[3-[[2-[bis(2-chloroethyl)amino]-2-oxo-1,3,2$l^{5}-oxazaphosphinan-4-yl]sulfanyl]-1-(carboxymethylamino)-1-oxopropan-2-yl]amino]-5-oxopentanoic acid

> <PUBCHEM_IUPAC_SYSTEMATIC_NAME>
2-azanyl-5-[[3-[[2-[bis(2-chloroethyl)amino]-2-oxidanylidene-1,3,2$l^{5}-oxazaphosphinan-4-yl]sulfanyl]-1-(2-hydroxy-2-oxoethylamino)-1-oxidanylidene-propan-2-yl]amino]-5-oxidanylidene-pentanoic acid

> <PUBCHEM_IUPAC_TRADITIONAL_NAME>
2-amino-5-[[1-[[[2-[bis(2-chloroethyl)amino]-2-keto-1,3,2$l^{5}-oxazaphosphorinan-4-yl]thio]methyl]-2-(carboxymethylamino)-2-keto-ethyl]amino]-5-keto-valeric acid

> <PUBCHEM_IUPAC_INCHI>
InChI=1S/C17H30Cl2N5O8PS/c18-4-6-24(7-5-19)33(31)23-14(3-8-32-33)34-10-12(16(28)21-9-15(26)27)22-13(25)2-1-11(20)17(29)30/h11-12,14H,1-10,20H2,(H,21,28)(H,22,25)(H,23,31)(H,26,27)(H,29,30)

> <PUBCHEM_IUPAC_INCHIKEY>
CXEDBYAXQXFDHD-UHFFFAOYSA-N

> <PUBCHEM_XLOGP3_AA>
-3.5

> <PUBCHEM_EXACT_MASS>
565.092976

> <PUBCHEM_MOLECULAR_FORMULA>
C17H30Cl2N5O8PS

> <PUBCHEM_MOLECULAR_WEIGHT>
566.393562

> <PUBCHEM_OPENEYE_CAN_SMILES>
C1COP(=O)(NC1SCC(C(=O)NCC(=O)O)NC(=O)CCC(C(=O)O)N)N(CCCl)CCCl

> <PUBCHEM_OPENEYE_ISO_SMILES>
C1COP(=O)(NC1SCC(C(=O)NCC(=O)O)NC(=O)CCC(C(=O)O)N)N(CCCl)CCCl

> <PUBCHEM_CACTVS_TPSA>
226

> <PUBCHEM_MONOISOTOPIC_WEIGHT>
565.092976

> <PUBCHEM_TOTAL_CHARGE>
0

> <PUBCHEM_HEAVY_ATOM_COUNT>
34

> <PUBCHEM_ATOM_DEF_STEREO_COUNT>
0

> <PUBCHEM_ATOM_UDEF_STEREO_COUNT>
4

> <PUBCHEM_BOND_DEF_STEREO_COUNT>
0

> <PUBCHEM_BOND_UDEF_STEREO_COUNT>
0

> <PUBCHEM_ISOTOPIC_ATOM_COUNT>
0

> <PUBCHEM_COMPONENT_COUNT>
1

> <PUBCHEM_CACTVS_TAUTO_COUNT>
8

> <PUBCHEM_COORDINATE_TYPE>
1
5
255

> <PUBCHEM_BONDANNOTATIONS>
31  17  3
24  27  3
18  3  3
4  14  3

$$$$

