10720
  -OEChem-06261204532D

 23 24  0     1  0  0  0  0  0999 V2000
    4.2320   -0.1618    0.0000 C   0  0  3  0  0  0  0  0  0  0  0  0
    4.4909    0.8041    0.0000 C   0  0  3  0  0  0  0  0  0  0  0  0
    3.7543    1.7867    0.0000 C   0  0  0  0  0  0  0  0  0  0  0  0
    2.5000   -1.1618    0.0000 C   0  0  0  0  0  0  0  0  0  0  0  0
    2.0000   -0.2958    0.0000 C   0  0  0  0  0  0  0  0  0  0  0  0
    6.0640   -0.9207    0.0000 C   0  0  0  0  0  0  0  0  0  0  0  0
    6.3228    0.0453    0.0000 C   0  0  0  0  0  0  0  0  0  0  0  0
    6.5640   -1.7867    0.0000 C   0  0  0  0  0  0  0  0  0  0  0  0
    7.1888    0.5453    0.0000 C   0  0  0  0  0  0  0  0  0  0  0  0
    4.4980    0.1841    0.0000 H   0  0  0  0  0  0  0  0  0  0  0  0
    4.2726   -0.7805    0.0000 H   0  0  0  0  0  0  0  0  0  0  0  0
    4.0721    2.3190    0.0000 H   0  0  0  0  0  0  0  0  0  0  0  0
    3.1411    1.8786    0.0000 H   0  0  0  0  0  0  0  0  0  0  0  0
    1.7294    0.2620    0.0000 H   0  0  0  0  0  0  0  0  0  0  0  0
    1.4523   -0.5863    0.0000 H   0  0  0  0  0  0  0  0  0  0  0  0
    1.9631   -1.4719    0.0000 H   0  0  0  0  0  0  0  0  0  0  0  0
    2.8100   -1.6988    0.0000 H   0  0  0  0  0  0  0  0  0  0  0  0
    7.4988    0.0083    0.0000 H   0  0  0  0  0  0  0  0  0  0  0  0
    7.7258    0.8553    0.0000 H   0  0  0  0  0  0  0  0  0  0  0  0
    6.8788    1.0822    0.0000 H   0  0  0  0  0  0  0  0  0  0  0  0
    6.0271   -2.0967    0.0000 H   0  0  0  0  0  0  0  0  0  0  0  0
    6.8740   -2.3236    0.0000 H   0  0  0  0  0  0  0  0  0  0  0  0
    7.1009   -1.4767    0.0000 H   0  0  0  0  0  0  0  0  0  0  0  0
  1  3  1  0  0  0  0
  1  4  1  0  0  0  0
  1  6  1  0  0  0  0
  1 11  1  0  0  0  0
  2  3  1  0  0  0  0
  2  5  1  0  0  0  0
  2  7  1  0  0  0  0
  2 10  1  0  0  0  0
  3 12  1  0  0  0  0
  3 13  1  0  0  0  0
  4  5  1  0  0  0  0
  4 16  1  0  0  0  0
  4 17  1  0  0  0  0
  5 14  1  0  0  0  0
  5 15  1  0  0  0  0
  6  7  2  0  0  0  0
  6  8  1  0  0  0  0
  7  9  1  0  0  0  0
  8 21  1  0  0  0  0
  8 22  1  0  0  0  0
  8 23  1  0  0  0  0
  9 18  1  0  0  0  0
  9 19  1  0  0  0  0
  9 20  1  0  0  0  0
M  END
> <PUBCHEM_COMPOUND_CID>
10720

> <PUBCHEM_COMPOUND_CANONICALIZED>
1

> <PUBCHEM_CACTVS_COMPLEXITY>
147

> <PUBCHEM_CACTVS_HBOND_ACCEPTOR>
0

> <PUBCHEM_CACTVS_HBOND_DONOR>
0

> <PUBCHEM_CACTVS_ROTATABLE_BOND>
0

> <PUBCHEM_CACTVS_SUBSKEYS>
AAADccBwAAAAAAAAAAAAAAAAAAAAAYIAAAAgAAAAAAAAAAAAAAAAGAAAAAAADQCAAAACAAAAAACAAgBAAAAAAAAgAAAACAAAAAgAAAIAAAAAAAAAgAAIAAMAgMAOAAAAAAAAAAAAAAAAAAAAAQAAAAAAAA==

> <PUBCHEM_IUPAC_OPENEYE_NAME>
2,3-dimethylbicyclo[2.2.1]hept-2-ene

> <PUBCHEM_IUPAC_CAS_NAME>
2,3-dimethylbicyclo[2.2.1]hept-2-ene

> <PUBCHEM_IUPAC_NAME>
2,3-dimethylbicyclo[2.2.1]hept-2-ene

> <PUBCHEM_IUPAC_SYSTEMATIC_NAME>
2,3-dimethylbicyclo[2.2.1]hept-2-ene

> <PUBCHEM_IUPAC_TRADITIONAL_NAME>
2,3-dimethylbicyclo[2.2.1]hept-2-ene

> <PUBCHEM_IUPAC_INCHI>
InChI=1S/C9H14/c1-6-7(2)9-4-3-8(6)5-9/h8-9H,3-5H2,1-2H3

> <PUBCHEM_IUPAC_INCHIKEY>
LSIXBBPOJBJQHN-UHFFFAOYSA-N

> <PUBCHEM_XLOGP3_AA>
2.2

> <PUBCHEM_EXACT_MASS>
122.10955

> <PUBCHEM_MOLECULAR_FORMULA>
C9H14

> <PUBCHEM_MOLECULAR_WEIGHT>
122.20746

> <PUBCHEM_OPENEYE_CAN_SMILES>
CC1=C(C2CCC1C2)C

> <PUBCHEM_OPENEYE_ISO_SMILES>
CC1=C(C2CCC1C2)C

> <PUBCHEM_CACTVS_TPSA>
0

> <PUBCHEM_MONOISOTOPIC_WEIGHT>
122.10955

> <PUBCHEM_TOTAL_CHARGE>
0

> <PUBCHEM_HEAVY_ATOM_COUNT>
9

> <PUBCHEM_ATOM_DEF_STEREO_COUNT>
0

> <PUBCHEM_ATOM_UDEF_STEREO_COUNT>
2

> <PUBCHEM_BOND_DEF_STEREO_COUNT>
0

> <PUBCHEM_BOND_UDEF_STEREO_COUNT>
0

> <PUBCHEM_ISOTOPIC_ATOM_COUNT>
0

> <PUBCHEM_COMPONENT_COUNT>
1

> <PUBCHEM_CACTVS_TAUTO_COUNT>
1

> <PUBCHEM_COORDINATE_TYPE>
1
5
255

> <PUBCHEM_BONDANNOTATIONS>
1  3  3
2  3  3

$$$$

