5281947
  -OEChem-07051213012D

 46 48  0     0  0  0  0  0  0999 V2000
    5.4641    0.1481    0.0000 O   0  0  0  0  0  0  0  0  0  0  0  0
    3.7320   -1.8518    0.0000 O   0  0  0  0  0  0  0  0  0  0  0  0
    8.9942    0.1723    0.0000 O   0  0  0  0  0  0  0  0  0  0  0  0
    7.2125   -2.8864    0.0000 O   0  0  0  0  0  0  0  0  0  0  0  0
    5.4641   -2.8519    0.0000 O   0  0  0  0  0  0  0  0  0  0  0  0
    7.2241    0.1828    0.0000 C   0  0  0  0  0  0  0  0  0  0  0  0
    6.3301   -0.3519    0.0000 C   0  0  0  0  0  0  0  0  0  0  0  0
    6.3301   -1.3518    0.0000 C   0  0  0  0  0  0  0  0  0  0  0  0
    7.2125    1.1827    0.0000 C   0  0  0  0  0  0  0  0  0  0  0  0
    8.1301   -0.3310    0.0000 C   0  0  0  0  0  0  0  0  0  0  0  0
    4.5981   -0.3519    0.0000 C   0  0  0  0  0  0  0  0  0  0  0  0
    7.2241   -1.8865    0.0000 C   0  0  0  0  0  0  0  0  0  0  0  0
    5.4641   -1.8518    0.0000 C   0  0  0  0  0  0  0  0  0  0  0  0
    4.5981   -1.3518    0.0000 C   0  0  0  0  0  0  0  0  0  0  0  0
    8.1301   -1.3727    0.0000 C   0  0  0  0  0  0  0  0  0  0  0  0
    8.0727    1.6927    0.0000 C   0  0  0  0  0  0  0  0  0  0  0  0
    3.7320    0.1481    0.0000 C   0  0  0  0  0  0  0  0  0  0  0  0
    8.0611    2.6927    0.0000 C   0  0  0  0  0  0  0  0  0  0  0  0
    3.7320    1.1482    0.0000 C   0  0  0  0  0  0  0  0  0  0  0  0
    2.8660   -0.3519    0.0000 C   0  0  0  0  0  0  0  0  0  0  0  0
    8.9213    3.2026    0.0000 C   0  0  0  0  0  0  0  0  0  0  0  0
    7.1894    3.1826    0.0000 C   0  0  0  0  0  0  0  0  0  0  0  0
    2.8660    1.6482    0.0000 C   0  0  0  0  0  0  0  0  0  0  0  0
    2.0000    0.1481    0.0000 C   0  0  0  0  0  0  0  0  0  0  0  0
    2.0000    1.1482    0.0000 C   0  0  0  0  0  0  0  0  0  0  0  0
    3.7320   -2.8519    0.0000 C   0  0  0  0  0  0  0  0  0  0  0  0
    6.9937    1.7629    0.0000 H   0  0  0  0  0  0  0  0  0  0  0  0
    6.6032    1.0680    0.0000 H   0  0  0  0  0  0  0  0  0  0  0  0
    8.6659   -1.6847    0.0000 H   0  0  0  0  0  0  0  0  0  0  0  0
    8.6132    1.3889    0.0000 H   0  0  0  0  0  0  0  0  0  0  0  0
    4.2690    1.4582    0.0000 H   0  0  0  0  0  0  0  0  0  0  0  0
    2.8660   -0.9719    0.0000 H   0  0  0  0  0  0  0  0  0  0  0  0
    9.5323   -0.1356    0.0000 H   0  0  0  0  0  0  0  0  0  0  0  0
    7.7458   -3.2026    0.0000 H   0  0  0  0  0  0  0  0  0  0  0  0
    9.2375    2.6693    0.0000 H   0  0  0  0  0  0  0  0  0  0  0  0
    9.4546    3.5188    0.0000 H   0  0  0  0  0  0  0  0  0  0  0  0
    7.4932    3.7231    0.0000 H   0  0  0  0  0  0  0  0  0  0  0  0
    6.6489    3.4864    0.0000 H   0  0  0  0  0  0  0  0  0  0  0  0
    6.8856    2.6421    0.0000 H   0  0  0  0  0  0  0  0  0  0  0  0
    8.6051    3.7360    0.0000 H   0  0  0  0  0  0  0  0  0  0  0  0
    2.8660    2.2682    0.0000 H   0  0  0  0  0  0  0  0  0  0  0  0
    1.4631   -0.1619    0.0000 H   0  0  0  0  0  0  0  0  0  0  0  0
    1.4631    1.4582    0.0000 H   0  0  0  0  0  0  0  0  0  0  0  0
    3.1120   -2.8519    0.0000 H   0  0  0  0  0  0  0  0  0  0  0  0
    3.7320   -3.4718    0.0000 H   0  0  0  0  0  0  0  0  0  0  0  0
    4.3520   -2.8519    0.0000 H   0  0  0  0  0  0  0  0  0  0  0  0
  1  7  1  0  0  0  0
  1 11  1  0  0  0  0
  2 14  1  0  0  0  0
  2 26  1  0  0  0  0
  3 10  1  0  0  0  0
  3 33  1  0  0  0  0
  4 12  1  0  0  0  0
  4 34  1  0  0  0  0
  5 13  2  0  0  0  0
  6  7  2  0  0  0  0
  6  9  1  0  0  0  0
  6 10  1  0  0  0  0
  7  8  1  0  0  0  0
  8 12  2  0  0  0  0
  8 13  1  0  0  0  0
  9 16  1  0  0  0  0
  9 27  1  0  0  0  0
  9 28  1  0  0  0  0
 10 15  2  0  0  0  0
 11 14  2  0  0  0  0
 11 17  1  0  0  0  0
 12 15  1  0  0  0  0
 13 14  1  0  0  0  0
 15 29  1  0  0  0  0
 16 18  2  0  0  0  0
 16 30  1  0  0  0  0
 17 19  2  0  0  0  0
 17 20  1  0  0  0  0
 18 21  1  0  0  0  0
 18 22  1  0  0  0  0
 19 23  1  0  0  0  0
 19 31  1  0  0  0  0
 20 24  2  0  0  0  0
 20 32  1  0  0  0  0
 21 35  1  0  0  0  0
 21 36  1  0  0  0  0
 21 40  1  0  0  0  0
 22 37  1  0  0  0  0
 22 38  1  0  0  0  0
 22 39  1  0  0  0  0
 23 25  2  0  0  0  0
 23 41  1  0  0  0  0
 24 25  1  0  0  0  0
 24 42  1  0  0  0  0
 25 43  1  0  0  0  0
 26 44  1  0  0  0  0
 26 45  1  0  0  0  0
 26 46  1  0  0  0  0
M  END
> <PUBCHEM_COMPOUND_CID>
5281947

> <PUBCHEM_COMPOUND_CANONICALIZED>
1

> <PUBCHEM_CACTVS_COMPLEXITY>
583

> <PUBCHEM_CACTVS_HBOND_ACCEPTOR>
5

> <PUBCHEM_CACTVS_HBOND_DONOR>
2

> <PUBCHEM_CACTVS_ROTATABLE_BOND>
4

> <PUBCHEM_CACTVS_SUBSKEYS>
AAADceB4OAAAAAAAAAAAAAAAAAAAAAAAAAAwYIAAAAAAAACBQAAAGgAACAAADASAmAIyBoAABgCIAqBSAAICCAAkIAAIiAFGCMgMJzaGNR6CeWCl4BUIuQfI7PzOIAACCAAIAABAAAQQABAAAAAAAAAAAA==

> <PUBCHEM_IUPAC_OPENEYE_NAME>
5,7-dihydroxy-3-methoxy-8-(3-methylbut-2-enyl)-2-phenyl-chromen-4-one

> <PUBCHEM_IUPAC_CAS_NAME>
5,7-dihydroxy-3-methoxy-8-(3-methylbut-2-enyl)-2-phenyl-1-benzopyran-4-one

> <PUBCHEM_IUPAC_NAME>
5,7-dihydroxy-3-methoxy-8-(3-methylbut-2-enyl)-2-phenylchromen-4-one

> <PUBCHEM_IUPAC_SYSTEMATIC_NAME>
3-methoxy-8-(3-methylbut-2-enyl)-5,7-bis(oxidanyl)-2-phenyl-chromen-4-one

> <PUBCHEM_IUPAC_TRADITIONAL_NAME>
5,7-dihydroxy-3-methoxy-8-(3-methylbut-2-enyl)-2-phenyl-chromone

> <PUBCHEM_IUPAC_INCHI>
InChI=1S/C21H20O5/c1-12(2)9-10-14-15(22)11-16(23)17-18(24)21(25-3)19(26-20(14)17)13-7-5-4-6-8-13/h4-9,11,22-23H,10H2,1-3H3

> <PUBCHEM_IUPAC_INCHIKEY>
OYPUUKBKGMMPPS-UHFFFAOYSA-N

> <PUBCHEM_XLOGP3_AA>
5.1

> <PUBCHEM_EXACT_MASS>
352.131074

> <PUBCHEM_MOLECULAR_FORMULA>
C21H20O5

> <PUBCHEM_MOLECULAR_WEIGHT>
352.3805

> <PUBCHEM_OPENEYE_CAN_SMILES>
CC(=CCC1=C(C=C(C2=C1OC(=C(C2=O)OC)C3=CC=CC=C3)O)O)C

> <PUBCHEM_OPENEYE_ISO_SMILES>
CC(=CCC1=C(C=C(C2=C1OC(=C(C2=O)OC)C3=CC=CC=C3)O)O)C

> <PUBCHEM_CACTVS_TPSA>
76

> <PUBCHEM_MONOISOTOPIC_WEIGHT>
352.131074

> <PUBCHEM_TOTAL_CHARGE>
0

> <PUBCHEM_HEAVY_ATOM_COUNT>
26

> <PUBCHEM_ATOM_DEF_STEREO_COUNT>
0

> <PUBCHEM_ATOM_UDEF_STEREO_COUNT>
0

> <PUBCHEM_BOND_DEF_STEREO_COUNT>
0

> <PUBCHEM_BOND_UDEF_STEREO_COUNT>
0

> <PUBCHEM_ISOTOPIC_ATOM_COUNT>
0

> <PUBCHEM_COMPONENT_COUNT>
1

> <PUBCHEM_CACTVS_TAUTO_COUNT>
12

> <PUBCHEM_COORDINATE_TYPE>
1
5
255

> <PUBCHEM_BONDANNOTATIONS>
1  11  8
1  7  8
10  15  8
11  14  8
12  15  8
13  14  8
17  19  8
17  20  8
19  23  8
20  24  8
23  25  8
24  25  8
6  10  8
6  7  8
7  8  8
8  12  8
8  13  8

$$$$

