11017668
  -OEChem-07051213052D

 91 93  0     1  0  0  0  0  0999 V2000
    3.2045   -4.3249    0.0000 O   0  0  0  0  0  0  0  0  0  0  0  0
    3.1344   -1.2766    0.0000 O   0  0  0  0  0  0  0  0  0  0  0  0
    4.4242   -2.6710    0.0000 O   0  0  0  0  0  0  0  0  0  0  0  0
    4.5802   -0.1945    0.0000 O   0  0  0  0  0  0  0  0  0  0  0  0
    6.2719   -0.2049    0.0000 O   0  0  0  0  0  0  0  0  0  0  0  0
    9.0276   -1.3562    0.0000 O   0  0  0  0  0  0  0  0  0  0  0  0
   10.7857    1.7162    0.0000 O   0  0  0  0  0  0  0  0  0  0  0  0
    6.4174    1.2131    0.0000 O   0  0  0  0  0  0  0  0  0  0  0  0
    9.8815    3.2131    0.0000 O   0  0  0  0  0  0  0  0  0  0  0  0
    5.5541    3.7268    0.0000 O   0  0  0  0  0  0  0  0  0  0  0  0
    7.2861    3.7177    0.0000 N   0  0  0  0  0  0  0  0  0  0  0  0
    3.4199   -2.7529    0.0000 C   0  0  1  0  0  0  0  0  0  0  0  0
    3.9154   -3.6215    0.0000 C   0  0  1  0  0  0  0  0  0  0  0  0
    3.9245   -1.8895    0.0000 C   0  0  1  0  0  0  0  0  0  0  0  0
    4.9153   -3.6268    0.0000 C   0  0  1  0  0  0  0  0  0  0  0  0
    4.8918   -1.6358    0.0000 C   0  0  1  0  0  0  0  0  0  0  0  0
    5.4199   -2.7635    0.0000 C   0  0  2  0  0  0  0  0  0  0  0  0
    5.3963   -0.7724    0.0000 C   0  0  2  0  0  0  0  0  0  0  0  0
    2.4554   -2.4890    0.0000 C   0  0  0  0  0  0  0  0  0  0  0  0
    6.4199   -2.7687    0.0000 C   0  0  1  0  0  0  0  0  0  0  0  0
    5.6187   -4.3376    0.0000 C   0  0  0  0  0  0  0  0  0  0  0  0
    6.3963   -0.7777    0.0000 C   0  0  1  0  0  0  0  0  0  0  0  0
    5.7763   -2.1022    0.0000 C   0  0  0  0  0  0  0  0  0  0  0  0
    7.2833   -3.2733    0.0000 C   0  0  0  0  0  0  0  0  0  0  0  0
    6.4252   -1.7687    0.0000 C   0  0  0  0  0  0  0  0  0  0  0  0
    6.9661   -1.7767    0.0000 C   0  0  0  0  0  0  0  0  0  0  0  0
    6.4016    0.2223    0.0000 C   0  0  0  0  0  0  0  0  0  0  0  0
    7.2938   -1.2733    0.0000 C   0  0  0  0  0  0  0  0  0  0  0  0
    5.5382    0.7268    0.0000 C   0  0  0  0  0  0  0  0  0  0  0  0
    7.2648   -0.3238    0.0000 C   0  0  0  0  0  0  0  0  0  0  0  0
    8.1862   -1.7247    0.0000 C   0  0  0  0  0  0  0  0  0  0  0  0
    8.1334    0.1716    0.0000 C   0  0  0  0  0  0  0  0  0  0  0  0
    5.5435    1.7268    0.0000 C   0  0  0  0  0  0  0  0  0  0  0  0
    8.1495    1.2131    0.0000 C   0  0  0  0  0  0  0  0  0  0  0  0
    9.0314   -0.3562    0.0000 C   0  0  0  0  0  0  0  0  0  0  0  0
    6.4122    2.2222    0.0000 C   0  0  0  0  0  0  0  0  0  0  0  0
    9.0155    1.7131    0.0000 C   0  0  0  0  0  0  0  0  0  0  0  0
    9.9335    0.1646    0.0000 C   0  0  0  0  0  0  0  0  0  0  0  0
    9.9255    1.2062    0.0000 C   0  0  0  0  0  0  0  0  0  0  0  0
    7.2834    1.7131    0.0000 C   0  0  0  0  0  0  0  0  0  0  0  0
    9.0155    2.7131    0.0000 C   0  0  0  0  0  0  0  0  0  0  0  0
    8.1495    3.2131    0.0000 C   0  0  0  0  0  0  0  0  0  0  0  0
    6.4174    3.2222    0.0000 C   0  0  0  0  0  0  0  0  0  0  0  0
    7.2834    2.7131    0.0000 C   0  0  0  0  0  0  0  0  0  0  0  0
    6.9302    1.9195    0.0000 C   0  0  0  0  0  0  0  0  0  0  0  0
   10.8015   -0.3320    0.0000 C   0  0  0  0  0  0  0  0  0  0  0  0
    2.9102   -3.1058    0.0000 H   0  0  0  0  0  0  0  0  0  0  0  0
    3.9661   -4.2395    0.0000 H   0  0  0  0  0  0  0  0  0  0  0  0
    3.7935   -1.2835    0.0000 H   0  0  0  0  0  0  0  0  0  0  0  0
    4.8580   -4.2442    0.0000 H   0  0  0  0  0  0  0  0  0  0  0  0
    4.4324   -2.0522    0.0000 H   0  0  0  0  0  0  0  0  0  0  0  0
    5.0670   -2.2537    0.0000 H   0  0  0  0  0  0  0  0  0  0  0  0
    5.2390   -0.1727    0.0000 H   0  0  0  0  0  0  0  0  0  0  0  0
    2.2918   -3.0870    0.0000 H   0  0  0  0  0  0  0  0  0  0  0  0
    1.8574   -2.3253    0.0000 H   0  0  0  0  0  0  0  0  0  0  0  0
    2.6190   -1.8910    0.0000 H   0  0  0  0  0  0  0  0  0  0  0  0
    6.5243   -3.3799    0.0000 H   0  0  0  0  0  0  0  0  0  0  0  0
    6.0594   -3.9016    0.0000 H   0  0  0  0  0  0  0  0  0  0  0  0
    6.0548   -4.7784    0.0000 H   0  0  0  0  0  0  0  0  0  0  0  0
    5.1780   -4.7737    0.0000 H   0  0  0  0  0  0  0  0  0  0  0  0
    7.0163   -0.7809    0.0000 H   0  0  0  0  0  0  0  0  0  0  0  0
    6.0655   -1.5538    0.0000 H   0  0  0  0  0  0  0  0  0  0  0  0
    6.3248   -2.3914    0.0000 H   0  0  0  0  0  0  0  0  0  0  0  0
    5.4872   -2.6506    0.0000 H   0  0  0  0  0  0  0  0  0  0  0  0
    2.6065   -4.1613    0.0000 H   0  0  0  0  0  0  0  0  0  0  0  0
    2.5603   -1.5108    0.0000 H   0  0  0  0  0  0  0  0  0  0  0  0
    7.5961   -2.7380    0.0000 H   0  0  0  0  0  0  0  0  0  0  0  0
    7.8186   -3.5861    0.0000 H   0  0  0  0  0  0  0  0  0  0  0  0
    6.9704   -3.8086    0.0000 H   0  0  0  0  0  0  0  0  0  0  0  0
    5.8899   -1.4559    0.0000 H   0  0  0  0  0  0  0  0  0  0  0  0
    7.5046   -1.4695    0.0000 H   0  0  0  0  0  0  0  0  0  0  0  0
    7.2732   -2.3152    0.0000 H   0  0  0  0  0  0  0  0  0  0  0  0
    6.4275   -2.0838    0.0000 H   0  0  0  0  0  0  0  0  0  0  0  0
    4.3668   -3.2884    0.0000 H   0  0  0  0  0  0  0  0  0  0  0  0
    4.0169   -0.4536    0.0000 H   0  0  0  0  0  0  0  0  0  0  0  0
    6.9402    0.5294    0.0000 H   0  0  0  0  0  0  0  0  0  0  0  0
    4.9997    0.4197    0.0000 H   0  0  0  0  0  0  0  0  0  0  0  0
    8.4660   -1.1714    0.0000 H   0  0  0  0  0  0  0  0  0  0  0  0
    8.7394   -2.0045    0.0000 H   0  0  0  0  0  0  0  0  0  0  0  0
    7.9063   -2.2779    0.0000 H   0  0  0  0  0  0  0  0  0  0  0  0
    5.0082    2.0397    0.0000 H   0  0  0  0  0  0  0  0  0  0  0  0
    6.7465    3.0231    0.0000 H   0  0  0  0  0  0  0  0  0  0  0  0
    7.2430    2.4548    0.0000 H   0  0  0  0  0  0  0  0  0  0  0  0
    7.4655    1.6067    0.0000 H   0  0  0  0  0  0  0  0  0  0  0  0
    6.6174    1.3842    0.0000 H   0  0  0  0  0  0  0  0  0  0  0  0
    7.2894    4.3376    0.0000 H   0  0  0  0  0  0  0  0  0  0  0  0
   11.1094    0.2061    0.0000 H   0  0  0  0  0  0  0  0  0  0  0  0
   11.3396   -0.6399    0.0000 H   0  0  0  0  0  0  0  0  0  0  0  0
   10.4935   -0.8701    0.0000 H   0  0  0  0  0  0  0  0  0  0  0  0
    9.5633   -1.6682    0.0000 H   0  0  0  0  0  0  0  0  0  0  0  0
   11.3262    1.4125    0.0000 H   0  0  0  0  0  0  0  0  0  0  0  0
 13  1  1  1  0  0  0
  1 65  1  0  0  0  0
 14  2  1  6  0  0  0
  2 66  1  0  0  0  0
 17  3  1  1  0  0  0
  3 74  1  0  0  0  0
 18  4  1  1  0  0  0
  4 75  1  0  0  0  0
  5 30  2  0  0  0  0
  6 35  1  0  0  0  0
  6 90  1  0  0  0  0
  7 39  1  0  0  0  0
  7 91  1  0  0  0  0
  8 40  2  0  0  0  0
  9 41  2  0  0  0  0
 10 43  2  0  0  0  0
 11 42  1  0  0  0  0
 11 43  1  0  0  0  0
 11 86  1  0  0  0  0
 12 13  1  0  0  0  0
 12 14  1  0  0  0  0
 12 19  1  6  0  0  0
 12 47  1  0  0  0  0
 13 15  1  0  0  0  0
 13 48  1  0  0  0  0
 14 16  1  0  0  0  0
 14 49  1  0  0  0  0
 15 17  1  0  0  0  0
 15 21  1  1  0  0  0
 15 50  1  0  0  0  0
 16 18  1  0  0  0  0
 16 23  1  1  0  0  0
 16 51  1  0  0  0  0
 17 20  1  0  0  0  0
 17 52  1  0  0  0  0
 18 22  1  0  0  0  0
 18 53  1  0  0  0  0
 19 54  1  0  0  0  0
 19 55  1  0  0  0  0
 19 56  1  0  0  0  0
 20 24  1  6  0  0  0
 20 25  1  0  0  0  0
 20 57  1  0  0  0  0
 21 58  1  0  0  0  0
 21 59  1  0  0  0  0
 21 60  1  0  0  0  0
 22 26  1  6  0  0  0
 22 27  1  0  0  0  0
 22 61  1  0  0  0  0
 23 62  1  0  0  0  0
 23 63  1  0  0  0  0
 23 64  1  0  0  0  0
 24 67  1  0  0  0  0
 24 68  1  0  0  0  0
 24 69  1  0  0  0  0
 25 28  2  0  0  0  0
 25 70  1  0  0  0  0
 26 71  1  0  0  0  0
 26 72  1  0  0  0  0
 26 73  1  0  0  0  0
 27 29  2  0  0  0  0
 27 76  1  0  0  0  0
 28 30  1  0  0  0  0
 28 31  1  0  0  0  0
 29 33  1  0  0  0  0
 29 77  1  0  0  0  0
 30 32  1  0  0  0  0
 31 78  1  0  0  0  0
 31 79  1  0  0  0  0
 31 80  1  0  0  0  0
 32 34  2  0  0  0  0
 32 35  1  0  0  0  0
 33 36  2  0  0  0  0
 33 81  1  0  0  0  0
 34 37  1  0  0  0  0
 34 40  1  0  0  0  0
 35 38  2  0  0  0  0
 36 43  1  0  0  0  0
 36 45  1  0  0  0  0
 37 39  2  0  0  0  0
 37 41  1  0  0  0  0
 38 39  1  0  0  0  0
 38 46  1  0  0  0  0
 40 44  1  0  0  0  0
 41 42  1  0  0  0  0
 42 44  2  0  0  0  0
 44 82  1  0  0  0  0
 45 83  1  0  0  0  0
 45 84  1  0  0  0  0
 45 85  1  0  0  0  0
 46 87  1  0  0  0  0
 46 88  1  0  0  0  0
 46 89  1  0  0  0  0
M  END
> <PUBCHEM_COMPOUND_CID>
11017668

> <PUBCHEM_COMPOUND_CANONICALIZED>
1

> <PUBCHEM_CACTVS_COMPLEXITY>
1320

> <PUBCHEM_CACTVS_HBOND_ACCEPTOR>
10

> <PUBCHEM_CACTVS_HBOND_DONOR>
7

> <PUBCHEM_CACTVS_ROTATABLE_BOND>
0

> <PUBCHEM_CACTVS_SUBSKEYS>
AAADcfB+PAAAAAAAAAAAAAAAAAAAAAAAAAAwQAAAAAAAAAABAAAAHgAQCAAADRyhmAICBoLAAgCIAqVSUACCAAAkIgAIiAGECMgINzaClTOEcUAl5BWImce77/Tu4AADCAAYAADAAAYQADAAAAAAAAAAAA==

> <PUBCHEM_IUPAC_INCHI>
InChI=1S/C35H45NO10/c1-14-10-9-11-15(2)35(46)36-22-13-23(37)24-25(32(43)21(8)33(44)26(24)34(22)45)29(40)17(4)12-16(3)28(39)19(6)31(42)20(7)30(41)18(5)27(14)38/h9-14,16,18-20,27-28,30-31,38-39,41-44H,1-8H3,(H,36,46)/b10-9+,15-11-,17-12+/t14-,16-,18+,19+,20+,27-,28-,30+,31+/m0/s1

> <PUBCHEM_IUPAC_INCHIKEY>
VFGOUSMZKMNRLA-CVQHHNHTSA-N

> <PUBCHEM_XLOGP3_AA>
3.7

> <PUBCHEM_EXACT_MASS>
639.304347

> <PUBCHEM_MOLECULAR_FORMULA>
C35H45NO10

> <PUBCHEM_MOLECULAR_WEIGHT>
639.7325

> <PUBCHEM_OPENEYE_CAN_SMILES>
CC1C=CC=C(C(=O)NC2=CC(=O)C3=C(C(=C(C(=C3C2=O)O)C)O)C(=O)C(=CC(C(C(C(C(C(C(C1O)C)O)C)O)C)O)C)C)C

> <PUBCHEM_OPENEYE_ISO_SMILES>
C[C@H]1/C=C/C=C(\C(=O)NC2=CC(=O)C3=C(C(=C(C(=C3C2=O)O)C)O)C(=O)/C(=C/[C@@H]([C@@H]([C@H]([C@H]([C@@H]([C@@H]([C@@H]([C@H]1O)C)O)C)O)C)O)C)/C)/C

> <PUBCHEM_CACTVS_TPSA>
202

> <PUBCHEM_MONOISOTOPIC_WEIGHT>
639.304347

> <PUBCHEM_TOTAL_CHARGE>
0

> <PUBCHEM_HEAVY_ATOM_COUNT>
46

> <PUBCHEM_ATOM_DEF_STEREO_COUNT>
9

> <PUBCHEM_ATOM_UDEF_STEREO_COUNT>
0

> <PUBCHEM_BOND_DEF_STEREO_COUNT>
3

> <PUBCHEM_BOND_UDEF_STEREO_COUNT>
0

> <PUBCHEM_ISOTOPIC_ATOM_COUNT>
0

> <PUBCHEM_COMPONENT_COUNT>
1

> <PUBCHEM_CACTVS_TAUTO_COUNT>
1000

> <PUBCHEM_COORDINATE_TYPE>
1
5
255

> <PUBCHEM_BONDANNOTATIONS>
13  1  5
12  19  6
15  21  5
16  23  5
14  2  6
20  24  6
22  26  6
17  3  5
32  34  8
32  35  8
34  37  8
35  38  8
37  39  8
38  39  8
18  4  5

$$$$

