586267
  -OEChem-06241222462D

 14 15  0     1  0  0  0  0  0999 V2000
    4.0000    1.5000    0.0000 F   0  0  0  0  0  0  0  0  0  0  0  0
    4.0000   -1.5000    0.0000 F   0  0  0  0  0  0  0  0  0  0  0  0
    2.0000    0.5000    0.0000 F   0  0  0  0  0  0  0  0  0  0  0  0
    3.0000    1.5000    0.0000 F   0  0  0  0  0  0  0  0  0  0  0  0
    2.0000   -0.5000    0.0000 F   0  0  0  0  0  0  0  0  0  0  0  0
    3.0000   -1.5000    0.0000 F   0  0  0  0  0  0  0  0  0  0  0  0
    5.7139    1.2127    0.0000 F   0  0  0  0  0  0  0  0  0  0  0  0
    4.0000    0.5000    0.0000 C   0  0  3  0  0  0  0  0  0  0  0  0
    4.0000   -0.5000    0.0000 C   0  0  3  0  0  0  0  0  0  0  0  0
    3.0000    0.5000    0.0000 C   0  0  0  0  0  0  0  0  0  0  0  0
    3.0000   -0.5000    0.0000 C   0  0  0  0  0  0  0  0  0  0  0  0
    5.0083    0.5041    0.0000 C   0  0  0  0  0  0  0  0  0  0  0  0
    5.0083   -0.5041    0.0000 C   0  0  0  0  0  0  0  0  0  0  0  0
    5.4458   -0.9435    0.0000 H   0  0  0  0  0  0  0  0  0  0  0  0
  1  8  1  0  0  0  0
  2  9  1  0  0  0  0
  3 10  1  0  0  0  0
  4 10  1  0  0  0  0
  5 11  1  0  0  0  0
  6 11  1  0  0  0  0
  7 12  1  0  0  0  0
  8  9  1  0  0  0  0
  8 10  1  0  0  0  0
  8 12  1  0  0  0  0
  9 11  1  0  0  0  0
  9 13  1  0  0  0  0
 10 11  1  0  0  0  0
 12 13  2  0  0  0  0
 13 14  1  0  0  0  0
M  END
> <PUBCHEM_COMPOUND_CID>
586267

> <PUBCHEM_COMPOUND_CANONICALIZED>
1

> <PUBCHEM_CACTVS_COMPLEXITY>
319

> <PUBCHEM_CACTVS_HBOND_ACCEPTOR>
7

> <PUBCHEM_CACTVS_HBOND_DONOR>
0

> <PUBCHEM_CACTVS_ROTATABLE_BOND>
0

> <PUBCHEM_CACTVS_SUBSKEYS>
AAADcQBgAcAAAAAAAAAAAAAAAABggAAAAAAgAAAAAAAAAAAAAAAAGQAAAAAADACAABAAAAAAAACAACBCAAAAAAAgAAAACAAAAAgAAAIAAAAAAAAAgAAIAAMAAAAKgAAAAAAAAAAAAAAAAAAAAAAAAAAAAA==

> <PUBCHEM_IUPAC_OPENEYE_NAME>
1,2,2,3,3,4,5-heptafluorobicyclo[2.2.0]hex-5-ene

> <PUBCHEM_IUPAC_CAS_NAME>
1,2,2,3,3,4,5-heptafluorobicyclo[2.2.0]hex-5-ene

> <PUBCHEM_IUPAC_NAME>
1,2,2,3,3,4,5-heptafluorobicyclo[2.2.0]hex-5-ene

> <PUBCHEM_IUPAC_SYSTEMATIC_NAME>
1,2,2,3,3,4,5-heptakis(fluoranyl)bicyclo[2.2.0]hex-5-ene

> <PUBCHEM_IUPAC_TRADITIONAL_NAME>
1,2,2,3,3,4,5-heptafluorobicyclo[2.2.0]hex-5-ene

> <PUBCHEM_IUPAC_INCHI>
InChI=1S/C6HF7/c7-2-1-3(8)4(2,9)6(12,13)5(3,10)11/h1H

> <PUBCHEM_IUPAC_INCHIKEY>
PEZQTDVBSVGYCV-UHFFFAOYSA-N

> <PUBCHEM_XLOGP3_AA>
1.8

> <PUBCHEM_EXACT_MASS>
205.996648

> <PUBCHEM_MOLECULAR_FORMULA>
C6HF7

> <PUBCHEM_MOLECULAR_WEIGHT>
206.060962

> <PUBCHEM_OPENEYE_CAN_SMILES>
C1=C(C2(C1(C(C2(F)F)(F)F)F)F)F

> <PUBCHEM_OPENEYE_ISO_SMILES>
C1=C(C2(C1(C(C2(F)F)(F)F)F)F)F

> <PUBCHEM_CACTVS_TPSA>
0

> <PUBCHEM_MONOISOTOPIC_WEIGHT>
205.996648

> <PUBCHEM_TOTAL_CHARGE>
0

> <PUBCHEM_HEAVY_ATOM_COUNT>
13

> <PUBCHEM_ATOM_DEF_STEREO_COUNT>
0

> <PUBCHEM_ATOM_UDEF_STEREO_COUNT>
2

> <PUBCHEM_BOND_DEF_STEREO_COUNT>
0

> <PUBCHEM_BOND_UDEF_STEREO_COUNT>
0

> <PUBCHEM_ISOTOPIC_ATOM_COUNT>
0

> <PUBCHEM_COMPONENT_COUNT>
1

> <PUBCHEM_CACTVS_TAUTO_COUNT>
1

> <PUBCHEM_COORDINATE_TYPE>
1
5
255

> <PUBCHEM_BONDANNOTATIONS>
8  1  3
9  2  3

$$$$

