73441
  -OEChem-07051213032D

 61 65  0     1  0  0  0  0  0999 V2000
    2.5393   -3.9842    0.0000 O   0  0  0  0  0  0  0  0  0  0  0  0
    5.1616   -2.4432    0.0000 O   0  0  0  0  0  0  0  0  0  0  0  0
    4.8361   -5.9691    0.0000 O   0  0  0  0  0  0  0  0  0  0  0  0
    6.2512   -3.4512    0.0000 O   0  0  0  0  0  0  0  0  0  0  0  0
    4.2936    3.1576    0.0000 O   0  0  0  0  0  0  0  0  0  0  0  0
    6.0155   -1.9083    0.0000 O   0  0  0  0  0  0  0  0  0  0  0  0
    6.8859    4.6676    0.0000 O   0  0  0  0  0  0  0  0  0  0  0  0
    2.5514    0.0917    0.0000 O   0  0  0  0  0  0  0  0  0  0  0  0
    5.1500    5.6609    0.0000 O   0  0  0  0  0  0  0  0  0  0  0  0
    3.3956    1.6231    0.0000 O   0  0  0  0  0  0  0  0  0  0  0  0
    3.4014   -3.4776    0.0000 C   0  0  2  0  0  0  0  0  0  0  0  0
    4.2995   -2.9498    0.0000 C   0  0  1  0  0  0  0  0  0  0  0  0
    3.3931   -4.5625    0.0000 C   0  0  0  0  0  0  0  0  0  0  0  0
    4.3327   -5.1050    0.0000 C   0  0  2  0  0  0  0  0  0  0  0  0
    5.2682   -4.5553    0.0000 C   0  0  0  0  0  0  0  0  0  0  0  0
    5.2514   -3.4704    0.0000 C   0  0  0  0  0  0  0  0  0  0  0  0
    4.2834   -1.9083    0.0000 C   0  0  0  0  0  0  0  0  0  0  0  0
    2.4994   -2.9568    0.0000 C   0  0  0  0  0  0  0  0  0  0  0  0
    3.4174   -1.4083    0.0000 C   0  0  0  0  0  0  0  0  0  0  0  0
    3.8361   -5.9730    0.0000 C   0  0  0  0  0  0  0  0  0  0  0  0
    2.5074   -1.9152    0.0000 C   0  0  0  0  0  0  0  0  0  0  0  0
    5.1495   -1.4083    0.0000 C   0  0  0  0  0  0  0  0  0  0  0  0
    5.1495   -0.4083    0.0000 C   0  0  0  0  0  0  0  0  0  0  0  0
    3.4174   -0.4083    0.0000 C   0  0  0  0  0  0  0  0  0  0  0  0
    5.1616    2.6609    0.0000 C   0  0  2  0  0  0  0  0  0  0  0  0
    4.2834    0.0917    0.0000 C   0  0  0  0  0  0  0  0  0  0  0  0
    6.0256    3.1643    0.0000 C   0  0  0  0  0  0  0  0  0  0  0  0
    6.0218    4.1643    0.0000 C   0  0  2  0  0  0  0  0  0  0  0  0
    5.1654    1.6610    0.0000 C   0  0  0  0  0  0  0  0  0  0  0  0
    5.1538    4.6609    0.0000 C   0  0  1  0  0  0  0  0  0  0  0  0
    4.2898    4.1576    0.0000 C   0  0  1  0  0  0  0  0  0  0  0  0
    4.2674    1.1332    0.0000 C   0  0  0  0  0  0  0  0  0  0  0  0
    6.0595    0.0985    0.0000 C   0  0  0  0  0  0  0  0  0  0  0  0
    6.0675    1.1401    0.0000 C   0  0  0  0  0  0  0  0  0  0  0  0
    3.4218    4.6542    0.0000 C   0  0  0  0  0  0  0  0  0  0  0  0
    2.7831   -4.4517    0.0000 H   0  0  0  0  0  0  0  0  0  0  0  0
    3.1795   -5.1446    0.0000 H   0  0  0  0  0  0  0  0  0  0  0  0
    5.4862   -5.1357    0.0000 H   0  0  0  0  0  0  0  0  0  0  0  0
    5.8773   -4.4398    0.0000 H   0  0  0  0  0  0  0  0  0  0  0  0
    1.9612   -3.2647    0.0000 H   0  0  0  0  0  0  0  0  0  0  0  0
    3.2979   -5.6650    0.0000 H   0  0  0  0  0  0  0  0  0  0  0  0
    3.5281   -6.5111    0.0000 H   0  0  0  0  0  0  0  0  0  0  0  0
    4.3742   -6.2809    0.0000 H   0  0  0  0  0  0  0  0  0  0  0  0
    1.9741   -1.5990    0.0000 H   0  0  0  0  0  0  0  0  0  0  0  0
    2.0000   -3.6784    0.0000 H   0  0  0  0  0  0  0  0  0  0  0  0
    5.7010   -2.7490    0.0000 H   0  0  0  0  0  0  0  0  0  0  0  0
    5.8993    2.2388    0.0000 H   0  0  0  0  0  0  0  0  0  0  0  0
    5.4560   -5.9667    0.0000 H   0  0  0  0  0  0  0  0  0  0  0  0
    6.2399    2.5825    0.0000 H   0  0  0  0  0  0  0  0  0  0  0  0
    6.6358    3.2743    0.0000 H   0  0  0  0  0  0  0  0  0  0  0  0
    6.0194    4.7843    0.0000 H   0  0  0  0  0  0  0  0  0  0  0  0
    5.6896    4.9730    0.0000 H   0  0  0  0  0  0  0  0  0  0  0  0
    3.7540    3.8455    0.0000 H   0  0  0  0  0  0  0  0  0  0  0  0
    6.5928   -0.2177    0.0000 H   0  0  0  0  0  0  0  0  0  0  0  0
    6.6056    1.4481    0.0000 H   0  0  0  0  0  0  0  0  0  0  0  0
    3.7297    5.1924    0.0000 H   0  0  0  0  0  0  0  0  0  0  0  0
    2.8837    4.9622    0.0000 H   0  0  0  0  0  0  0  0  0  0  0  0
    3.1139    4.1161    0.0000 H   0  0  0  0  0  0  0  0  0  0  0  0
    7.4240    4.3597    0.0000 H   0  0  0  0  0  0  0  0  0  0  0  0
    5.6857    5.9730    0.0000 H   0  0  0  0  0  0  0  0  0  0  0  0
    2.8623    1.3070    0.0000 H   0  0  0  0  0  0  0  0  0  0  0  0
 11  1  1  6  0  0  0
  1 45  1  0  0  0  0
 12  2  1  6  0  0  0
  2 46  1  0  0  0  0
 14  3  1  6  0  0  0
  3 48  1  0  0  0  0
  4 16  2  0  0  0  0
  5 25  1  0  0  0  0
  5 31  1  0  0  0  0
  6 22  2  0  0  0  0
 28  7  1  6  0  0  0
  7 59  1  0  0  0  0
  8 24  2  0  0  0  0
 30  9  1  1  0  0  0
  9 60  1  0  0  0  0
 10 32  1  0  0  0  0
 10 61  1  0  0  0  0
 11 12  1  0  0  0  0
 11 13  1  0  0  0  0
 11 18  1  0  0  0  0
 12 16  1  0  0  0  0
 12 17  1  0  0  0  0
 13 14  1  0  0  0  0
 13 36  1  0  0  0  0
 13 37  1  0  0  0  0
 14 15  1  0  0  0  0
 14 20  1  0  0  0  0
 15 16  1  0  0  0  0
 15 38  1  0  0  0  0
 15 39  1  0  0  0  0
 17 19  2  0  0  0  0
 17 22  1  0  0  0  0
 18 21  2  0  0  0  0
 18 40  1  0  0  0  0
 19 21  1  0  0  0  0
 19 24  1  0  0  0  0
 20 41  1  0  0  0  0
 20 42  1  0  0  0  0
 20 43  1  0  0  0  0
 21 44  1  0  0  0  0
 22 23  1  0  0  0  0
 23 26  2  0  0  0  0
 23 33  1  0  0  0  0
 24 26  1  0  0  0  0
 25 27  1  0  0  0  0
 25 29  1  0  0  0  0
 25 47  1  1  0  0  0
 26 32  1  0  0  0  0
 27 28  1  0  0  0  0
 27 49  1  0  0  0  0
 27 50  1  0  0  0  0
 28 30  1  0  0  0  0
 28 51  1  0  0  0  0
 29 32  2  0  0  0  0
 29 34  1  0  0  0  0
 30 31  1  0  0  0  0
 30 52  1  0  0  0  0
 31 35  1  6  0  0  0
 31 53  1  0  0  0  0
 33 34  2  0  0  0  0
 33 54  1  0  0  0  0
 34 55  1  0  0  0  0
 35 56  1  0  0  0  0
 35 57  1  0  0  0  0
 35 58  1  0  0  0  0
M  END
> <PUBCHEM_COMPOUND_CID>
73441

> <PUBCHEM_COMPOUND_CANONICALIZED>
1

> <PUBCHEM_CACTVS_COMPLEXITY>
1050

> <PUBCHEM_CACTVS_HBOND_ACCEPTOR>
10

> <PUBCHEM_CACTVS_HBOND_DONOR>
6

> <PUBCHEM_CACTVS_ROTATABLE_BOND>
1

> <PUBCHEM_CACTVS_SUBSKEYS>
AAADceB4PAAAAAAAAAAAAAAAAAAAAAAAAAA0YIECAAAAAACBAAAAGgAACAAADFSgmAIyBoAABgCIAqBSAAICAAAkIAAIiAFECMgJNzaCNRqCcUAl4BELuYfL7PTOwAADAAAYAADCAAYQADCAAAAAAAAAAA==

> <PUBCHEM_IUPAC_OPENEYE_NAME>
(3R,4aR,12bS)-9-[(2R,4R,5S,6R)-4,5-dihydroxy-6-methyl-tetrahydropyran-2-yl]-3,4a,8,12b-tetrahydroxy-3-methyl-2,4-dihydrobenzo[a]anthracene-1,7,12-trione

> <PUBCHEM_IUPAC_CAS_NAME>
(3R,4aR,12bS)-9-[(2R,4R,5S,6R)-4,5-dihydroxy-6-methyl-2-oxanyl]-3,4a,8,12b-tetrahydroxy-3-methyl-2,4-dihydrobenzo[a]anthracene-1,7,12-trione

> <PUBCHEM_IUPAC_NAME>
(3R,4aR,12bS)-9-[(2R,4R,5S,6R)-4,5-dihydroxy-6-methyloxan-2-yl]-3,4a,8,12b-tetrahydroxy-3-methyl-2,4-dihydrobenzo[a]anthracene-1,7,12-trione

> <PUBCHEM_IUPAC_SYSTEMATIC_NAME>
(3R,4aR,12bS)-3-methyl-9-[(2R,4R,5S,6R)-6-methyl-4,5-bis(oxidanyl)oxan-2-yl]-3,4a,8,12b-tetrakis(oxidanyl)-2,4-dihydrobenzo[a]anthracene-1,7,12-trione

> <PUBCHEM_IUPAC_TRADITIONAL_NAME>
(3R,4aR,12bS)-9-[(2R,4R,5S,6R)-4,5-dihydroxy-6-methyl-tetrahydropyran-2-yl]-3,4a,8,12b-tetrahydroxy-3-methyl-2,4-dihydrobenz[a]anthracene-1,7,12-trione

> <PUBCHEM_IUPAC_INCHI>
InChI=1S/C25H26O10/c1-10-19(28)14(26)7-15(35-10)11-3-4-12-17(20(11)29)21(30)13-5-6-24(33)9-23(2,32)8-16(27)25(24,34)18(13)22(12)31/h3-6,10,14-15,19,26,28-29,32-34H,7-9H2,1-2H3/t10-,14-,15-,19-,23+,24+,25+/m1/s1

> <PUBCHEM_IUPAC_INCHIKEY>
KCOULPRVOZDQEL-IFNZWHIZSA-N

> <PUBCHEM_XLOGP3_AA>
-1.2

> <PUBCHEM_EXACT_MASS>
486.152597

> <PUBCHEM_MOLECULAR_FORMULA>
C25H26O10

> <PUBCHEM_MOLECULAR_WEIGHT>
486.46794

> <PUBCHEM_OPENEYE_CAN_SMILES>
CC1C(C(CC(O1)C2=C(C3=C(C=C2)C(=O)C4=C(C3=O)C=CC5(C4(C(=O)CC(C5)(C)O)O)O)O)O)O

> <PUBCHEM_OPENEYE_ISO_SMILES>
C[C@@H]1[C@H]([C@@H](C[C@@H](O1)C2=C(C3=C(C=C2)C(=O)C4=C(C3=O)C=C[C@]5([C@@]4(C(=O)C[C@](C5)(C)O)O)O)O)O)O

> <PUBCHEM_CACTVS_TPSA>
182

> <PUBCHEM_MONOISOTOPIC_WEIGHT>
486.152597

> <PUBCHEM_TOTAL_CHARGE>
0

> <PUBCHEM_HEAVY_ATOM_COUNT>
35

> <PUBCHEM_ATOM_DEF_STEREO_COUNT>
7

> <PUBCHEM_ATOM_UDEF_STEREO_COUNT>
0

> <PUBCHEM_BOND_DEF_STEREO_COUNT>
0

> <PUBCHEM_BOND_UDEF_STEREO_COUNT>
0

> <PUBCHEM_ISOTOPIC_ATOM_COUNT>
0

> <PUBCHEM_COMPONENT_COUNT>
1

> <PUBCHEM_CACTVS_TAUTO_COUNT>
10

> <PUBCHEM_COORDINATE_TYPE>
1
5
255

> <PUBCHEM_BONDANNOTATIONS>
11  1  6
12  2  6
23  26  8
23  33  8
25  47  5
26  32  8
29  32  8
29  34  8
14  3  6
31  35  6
33  34  8
28  7  6
30  9  5

$$$$

