7026
  -OEChem-06261201412D

 46 46  0     0  0  0  0  0  0999 V2000
    5.4641    2.5950    0.0000 O   0  0  0  0  0  0  0  0  0  0  0  0
    8.0622    1.0950    0.0000 N   0  0  0  0  0  0  0  0  0  0  0  0
    2.8660    1.0950    0.0000 N   0  0  0  0  0  0  0  0  0  0  0  0
    4.5981   -1.9050    0.0000 N   0  0  0  0  0  0  0  0  0  0  0  0
    6.3301    1.0950    0.0000 C   0  0  0  0  0  0  0  0  0  0  0  0
    4.5981    1.0950    0.0000 C   0  0  0  0  0  0  0  0  0  0  0  0
    5.4641   -0.4050    0.0000 C   0  0  0  0  0  0  0  0  0  0  0  0
    5.4641    1.5950    0.0000 C   0  0  0  0  0  0  0  0  0  0  0  0
    7.1962    1.5950    0.0000 C   0  0  0  0  0  0  0  0  0  0  0  0
    3.7320    1.5950    0.0000 C   0  0  0  0  0  0  0  0  0  0  0  0
    6.3301    0.0950    0.0000 C   0  0  0  0  0  0  0  0  0  0  0  0
    4.5981    0.0950    0.0000 C   0  0  0  0  0  0  0  0  0  0  0  0
    5.4641   -1.4050    0.0000 C   0  0  0  0  0  0  0  0  0  0  0  0
    8.9282    1.5950    0.0000 C   0  0  0  0  0  0  0  0  0  0  0  0
    8.0622    0.0950    0.0000 C   0  0  0  0  0  0  0  0  0  0  0  0
    2.0000    1.5950    0.0000 C   0  0  0  0  0  0  0  0  0  0  0  0
    2.8660    0.0950    0.0000 C   0  0  0  0  0  0  0  0  0  0  0  0
    4.5981   -2.9050    0.0000 C   0  0  0  0  0  0  0  0  0  0  0  0
    3.7320   -1.4050    0.0000 C   0  0  0  0  0  0  0  0  0  0  0  0
    7.5947    2.0700    0.0000 H   0  0  0  0  0  0  0  0  0  0  0  0
    6.7976    2.0700    0.0000 H   0  0  0  0  0  0  0  0  0  0  0  0
    4.1306    2.0700    0.0000 H   0  0  0  0  0  0  0  0  0  0  0  0
    3.3335    2.0700    0.0000 H   0  0  0  0  0  0  0  0  0  0  0  0
    6.8671   -0.2150    0.0000 H   0  0  0  0  0  0  0  0  0  0  0  0
    4.0611   -0.2150    0.0000 H   0  0  0  0  0  0  0  0  0  0  0  0
    5.6762   -1.9876    0.0000 H   0  0  0  0  0  0  0  0  0  0  0  0
    6.0747   -1.2973    0.0000 H   0  0  0  0  0  0  0  0  0  0  0  0
    7.4422    0.0950    0.0000 H   0  0  0  0  0  0  0  0  0  0  0  0
    8.0622   -0.5250    0.0000 H   0  0  0  0  0  0  0  0  0  0  0  0
    8.6822    0.0950    0.0000 H   0  0  0  0  0  0  0  0  0  0  0  0
    9.2382    1.0581    0.0000 H   0  0  0  0  0  0  0  0  0  0  0  0
    9.4651    1.9050    0.0000 H   0  0  0  0  0  0  0  0  0  0  0  0
    8.6182    2.1319    0.0000 H   0  0  0  0  0  0  0  0  0  0  0  0
    2.2460    0.0950    0.0000 H   0  0  0  0  0  0  0  0  0  0  0  0
    2.8660   -0.5250    0.0000 H   0  0  0  0  0  0  0  0  0  0  0  0
    3.4860    0.0950    0.0000 H   0  0  0  0  0  0  0  0  0  0  0  0
    2.3100    2.1319    0.0000 H   0  0  0  0  0  0  0  0  0  0  0  0
    1.4631    1.9050    0.0000 H   0  0  0  0  0  0  0  0  0  0  0  0
    1.6900    1.0581    0.0000 H   0  0  0  0  0  0  0  0  0  0  0  0
    4.0420   -0.8681    0.0000 H   0  0  0  0  0  0  0  0  0  0  0  0
    3.9781   -2.9050    0.0000 H   0  0  0  0  0  0  0  0  0  0  0  0
    4.5981   -3.5250    0.0000 H   0  0  0  0  0  0  0  0  0  0  0  0
    5.2181   -2.9050    0.0000 H   0  0  0  0  0  0  0  0  0  0  0  0
    3.1951   -1.0950    0.0000 H   0  0  0  0  0  0  0  0  0  0  0  0
    3.4220   -1.9419    0.0000 H   0  0  0  0  0  0  0  0  0  0  0  0
    6.0010    2.9050    0.0000 H   0  0  0  0  0  0  0  0  0  0  0  0
  1  8  1  0  0  0  0
  1 46  1  0  0  0  0
  2  9  1  0  0  0  0
  2 14  1  0  0  0  0
  2 15  1  0  0  0  0
  3 10  1  0  0  0  0
  3 16  1  0  0  0  0
  3 17  1  0  0  0  0
  4 13  1  0  0  0  0
  4 18  1  0  0  0  0
  4 19  1  0  0  0  0
  5  8  2  0  0  0  0
  5  9  1  0  0  0  0
  5 11  1  0  0  0  0
  6  8  1  0  0  0  0
  6 10  1  0  0  0  0
  6 12  2  0  0  0  0
  7 11  2  0  0  0  0
  7 12  1  0  0  0  0
  7 13  1  0  0  0  0
  9 20  1  0  0  0  0
  9 21  1  0  0  0  0
 10 22  1  0  0  0  0
 10 23  1  0  0  0  0
 11 24  1  0  0  0  0
 12 25  1  0  0  0  0
 13 26  1  0  0  0  0
 13 27  1  0  0  0  0
 14 31  1  0  0  0  0
 14 32  1  0  0  0  0
 14 33  1  0  0  0  0
 15 28  1  0  0  0  0
 15 29  1  0  0  0  0
 15 30  1  0  0  0  0
 16 37  1  0  0  0  0
 16 38  1  0  0  0  0
 16 39  1  0  0  0  0
 17 34  1  0  0  0  0
 17 35  1  0  0  0  0
 17 36  1  0  0  0  0
 18 41  1  0  0  0  0
 18 42  1  0  0  0  0
 18 43  1  0  0  0  0
 19 40  1  0  0  0  0
 19 44  1  0  0  0  0
 19 45  1  0  0  0  0
M  END
> <PUBCHEM_COMPOUND_CID>
7026

> <PUBCHEM_COMPOUND_CANONICALIZED>
1

> <PUBCHEM_CACTVS_COMPLEXITY>
236

> <PUBCHEM_CACTVS_HBOND_ACCEPTOR>
4

> <PUBCHEM_CACTVS_HBOND_DONOR>
1

> <PUBCHEM_CACTVS_ROTATABLE_BOND>
6

> <PUBCHEM_CACTVS_SUBSKEYS>
AAADceBzIAAAAAAAAAAAAAAAAAAAAAAAAAAwAAAAAAAAAAABAAAAHgAACAAADATBmAQyBoMAAgCAAiBCAACCAAAgIAAAiAAMDIgIJiKCkROEcAhmwBEImAeQ0GIOIAACAAAIAABAAAQAABAAAAAAAAAAAA==

> <PUBCHEM_IUPAC_OPENEYE_NAME>
2,4,6-tris[(dimethylamino)methyl]phenol

> <PUBCHEM_IUPAC_CAS_NAME>
2,4,6-tris[(dimethylamino)methyl]phenol

> <PUBCHEM_IUPAC_NAME>
2,4,6-tris[(dimethylamino)methyl]phenol

> <PUBCHEM_IUPAC_SYSTEMATIC_NAME>
2,4,6-tris[(dimethylamino)methyl]phenol

> <PUBCHEM_IUPAC_TRADITIONAL_NAME>
2,4,6-tris[(dimethylamino)methyl]phenol

> <PUBCHEM_IUPAC_INCHI>
InChI=1S/C15H27N3O/c1-16(2)9-12-7-13(10-17(3)4)15(19)14(8-12)11-18(5)6/h7-8,19H,9-11H2,1-6H3

> <PUBCHEM_IUPAC_INCHIKEY>
AHDSRXYHVZECER-UHFFFAOYSA-N

> <PUBCHEM_XLOGP3_AA>
1.1

> <PUBCHEM_EXACT_MASS>
265.215412

> <PUBCHEM_MOLECULAR_FORMULA>
C15H27N3O

> <PUBCHEM_MOLECULAR_WEIGHT>
265.39438

> <PUBCHEM_OPENEYE_CAN_SMILES>
CN(C)CC1=CC(=C(C(=C1)CN(C)C)O)CN(C)C

> <PUBCHEM_OPENEYE_ISO_SMILES>
CN(C)CC1=CC(=C(C(=C1)CN(C)C)O)CN(C)C

> <PUBCHEM_CACTVS_TPSA>
30

> <PUBCHEM_MONOISOTOPIC_WEIGHT>
265.215412

> <PUBCHEM_TOTAL_CHARGE>
0

> <PUBCHEM_HEAVY_ATOM_COUNT>
19

> <PUBCHEM_ATOM_DEF_STEREO_COUNT>
0

> <PUBCHEM_ATOM_UDEF_STEREO_COUNT>
0

> <PUBCHEM_BOND_DEF_STEREO_COUNT>
0

> <PUBCHEM_BOND_UDEF_STEREO_COUNT>
0

> <PUBCHEM_ISOTOPIC_ATOM_COUNT>
0

> <PUBCHEM_COMPONENT_COUNT>
1

> <PUBCHEM_CACTVS_TAUTO_COUNT>
2

> <PUBCHEM_COORDINATE_TYPE>
1
5
255

> <PUBCHEM_BONDANNOTATIONS>
5  11  8
5  8  8
6  12  8
6  8  8
7  11  8
7  12  8

$$$$

