   Color/Form

     * CRYSTALS FROM DILUTE ALCOHOL
     * WHITE TO NEARLY WHITE POWDER

   from [1]HSDB

   Odor
        PRACTICALLY ODORLESS
   from [2]HSDB

   Melting Point
        234 DEG C
   from [3]HSDB

   Dissociation Constants
        PKA: 10.7 IN WATER
   from [4]HSDB

   Octanol/Water Partition Coefficient
        log Kow = 1.95
   from [5]HSDB

   Solubilities
        FREELY SOL IN ACETONE, ETHYL ACETATE, METHANOL; SPARINGLY SOL IN
   ALC; PRACTICALLY INSOL IN WATER; PRACTICALLY INSOL IN CHLOROFORM, ETHER
   from [6]HSDB

   Computed Properties
   Molecular Weight                  389.87754 [g/mol]
   Molecular Formula                 C[14]H[16]ClN[3]O[4]S[2]
   XLogP3                            2
   H-Bond Donor                      3
   H-Bond Acceptor                   7
   Rotatable Bond Count              2
   Exact Mass                        389.027076
   MonoIsotopic Mass                 389.027076
   Topological Polar Surface Area    135
   Heavy Atom Count                  24
   Formal Charge                     0
   Complexity                        758
   Isotope Atom Count                0
   Defined Atom Stereocenter Count   0
   Undefined Atom Stereocenter Count 4
   Defined Bond Stereocenter Count   0
   Undefined Bond Stereocenter Count 0
   Covalently-Bonded Unit Count      1
   Feature 3D Acceptor Count         4
   Feature 3D Donor Count            3
   Feature 3D Cation Count           1
   Feature 3D Ring Count             3
   Effective Rotor Count             3.2
   Conformer Sampling RMSD           0.6
   CID Conformer Count               [7]40

References

   1. http://toxnet.nlm.nih.gov/cgi-bin/sis/search/r?dbs+hsdb:@term+@rn+@rel+2259-96-3
   2. http://toxnet.nlm.nih.gov/cgi-bin/sis/search/r?dbs+hsdb:@term+@rn+@rel+2259-96-3
   3. http://toxnet.nlm.nih.gov/cgi-bin/sis/search/r?dbs+hsdb:@term+@rn+@rel+2259-96-3
   4. http://toxnet.nlm.nih.gov/cgi-bin/sis/search/r?dbs+hsdb:@term+@rn+@rel+2259-96-3
   5. http://toxnet.nlm.nih.gov/cgi-bin/sis/search/r?dbs+hsdb:@term+@rn+@rel+2259-96-3
   6. http://toxnet.nlm.nih.gov/cgi-bin/sis/search/r?dbs+hsdb:@term+@rn+@rel+2259-96-3
   7. http://pubchem.ncbi.nlm.nih.gov/vw3d/vw3d.cgi?cid=2910
