10829
  -OEChem-06261205002D

 40 41  0     0  0  0  0  0  0999 V2000
    5.1350   -0.0600    0.0000 O   0  0  0  0  0  0  0  0  0  0  0  0
    4.2690   -4.5600    0.0000 O   0  0  0  0  0  0  0  0  0  0  0  0
    2.5369   -1.5600    0.0000 O   0  0  0  0  0  0  0  0  0  0  0  0
    3.4030    2.9400    0.0000 O   0  0  0  0  0  0  0  0  0  0  0  0
    3.4030   -0.0600    0.0000 O   0  0  0  0  0  0  0  0  0  0  0  0
    6.0010    4.4400    0.0000 O   0  0  0  0  0  0  0  0  0  0  0  0
    4.2690    4.4400    0.0000 O   0  0  0  0  0  0  0  0  0  0  0  0
    4.2690   -1.5600    0.0000 C   0  0  0  0  0  0  0  0  0  0  0  0
    5.1350   -2.0600    0.0000 C   0  0  0  0  0  0  0  0  0  0  0  0
    6.0010    2.4400    0.0000 C   0  0  0  0  0  0  0  0  0  0  0  0
    5.1350    0.9400    0.0000 C   0  0  0  0  0  0  0  0  0  0  0  0
    5.1350    2.9400    0.0000 C   0  0  0  0  0  0  0  0  0  0  0  0
    3.4030   -2.0600    0.0000 C   0  0  0  0  0  0  0  0  0  0  0  0
    6.0010    1.4400    0.0000 C   0  0  0  0  0  0  0  0  0  0  0  0
    5.1350   -3.0600    0.0000 C   0  0  0  0  0  0  0  0  0  0  0  0
    4.2690   -3.5600    0.0000 C   0  0  0  0  0  0  0  0  0  0  0  0
    4.2690    2.4400    0.0000 C   0  0  0  0  0  0  0  0  0  0  0  0
    4.2690   -0.5600    0.0000 C   0  0  0  0  0  0  0  0  0  0  0  0
    4.2690    1.4400    0.0000 C   0  0  0  0  0  0  0  0  0  0  0  0
    3.4030   -3.0600    0.0000 C   0  0  0  0  0  0  0  0  0  0  0  0
    6.0010   -1.5600    0.0000 C   0  0  0  0  0  0  0  0  0  0  0  0
    6.8671    2.9400    0.0000 C   0  0  0  0  0  0  0  0  0  0  0  0
    5.1350    3.9400    0.0000 C   0  0  0  0  0  0  0  0  0  0  0  0
    5.1350   -5.0600    0.0000 C   0  0  0  0  0  0  0  0  0  0  0  0
    6.5380    1.1300    0.0000 H   0  0  0  0  0  0  0  0  0  0  0  0
    5.6720   -3.3700    0.0000 H   0  0  0  0  0  0  0  0  0  0  0  0
    3.7320    1.1300    0.0000 H   0  0  0  0  0  0  0  0  0  0  0  0
    2.8660   -3.3700    0.0000 H   0  0  0  0  0  0  0  0  0  0  0  0
    6.3110   -2.0969    0.0000 H   0  0  0  0  0  0  0  0  0  0  0  0
    6.5380   -1.2500    0.0000 H   0  0  0  0  0  0  0  0  0  0  0  0
    5.6910   -1.0231    0.0000 H   0  0  0  0  0  0  0  0  0  0  0  0
    7.1771    2.4031    0.0000 H   0  0  0  0  0  0  0  0  0  0  0  0
    7.4040    3.2500    0.0000 H   0  0  0  0  0  0  0  0  0  0  0  0
    6.5571    3.4769    0.0000 H   0  0  0  0  0  0  0  0  0  0  0  0
    2.0000   -1.8700    0.0000 H   0  0  0  0  0  0  0  0  0  0  0  0
    2.8660    2.6300    0.0000 H   0  0  0  0  0  0  0  0  0  0  0  0
    4.8250   -5.5969    0.0000 H   0  0  0  0  0  0  0  0  0  0  0  0
    5.6720   -5.3700    0.0000 H   0  0  0  0  0  0  0  0  0  0  0  0
    5.4450   -4.5231    0.0000 H   0  0  0  0  0  0  0  0  0  0  0  0
    6.0010    5.0600    0.0000 H   0  0  0  0  0  0  0  0  0  0  0  0
  1 11  1  0  0  0  0
  1 18  1  0  0  0  0
  2 16  1  0  0  0  0
  2 24  1  0  0  0  0
  3 13  1  0  0  0  0
  3 35  1  0  0  0  0
  4 17  1  0  0  0  0
  4 36  1  0  0  0  0
  5 18  2  0  0  0  0
  6 23  1  0  0  0  0
  6 40  1  0  0  0  0
  7 23  2  0  0  0  0
  8  9  1  0  0  0  0
  8 13  2  0  0  0  0
  8 18  1  0  0  0  0
  9 15  2  0  0  0  0
  9 21  1  0  0  0  0
 10 12  1  0  0  0  0
 10 14  2  0  0  0  0
 10 22  1  0  0  0  0
 11 14  1  0  0  0  0
 11 19  2  0  0  0  0
 12 17  2  0  0  0  0
 12 23  1  0  0  0  0
 13 20  1  0  0  0  0
 14 25  1  0  0  0  0
 15 16  1  0  0  0  0
 15 26  1  0  0  0  0
 16 20  2  0  0  0  0
 17 19  1  0  0  0  0
 19 27  1  0  0  0  0
 20 28  1  0  0  0  0
 21 29  1  0  0  0  0
 21 30  1  0  0  0  0
 21 31  1  0  0  0  0
 22 32  1  0  0  0  0
 22 33  1  0  0  0  0
 22 34  1  0  0  0  0
 24 37  1  0  0  0  0
 24 38  1  0  0  0  0
 24 39  1  0  0  0  0
M  END
> <PUBCHEM_COMPOUND_CID>
10829

> <PUBCHEM_COMPOUND_CANONICALIZED>
1

> <PUBCHEM_CACTVS_COMPLEXITY>
466

> <PUBCHEM_CACTVS_HBOND_ACCEPTOR>
7

> <PUBCHEM_CACTVS_HBOND_DONOR>
3

> <PUBCHEM_CACTVS_ROTATABLE_BOND>
5

> <PUBCHEM_CACTVS_SUBSKEYS>
AAADceB4OAAAAAAAAAAAAAAAAAAAAAAAAAAwYAAAAAAAAAABQAAAGgAACAAADASAmAIyDoAABgCIAiDSCAACCAAkIAAAiAEGCMgMJzaGNRqCe2Cl4BUIuQeI7LzOoAABCAAYAABAAAIQADAAAAAAAAAAAA==

> <PUBCHEM_IUPAC_OPENEYE_NAME>
2-hydroxy-4-(2-hydroxy-4-methoxy-6-methyl-benzoyl)oxy-6-methyl-benzoic acid

> <PUBCHEM_IUPAC_CAS_NAME>
2-hydroxy-4-[(2-hydroxy-4-methoxy-6-methylphenyl)-oxomethoxy]-6-methylbenzoic acid

> <PUBCHEM_IUPAC_NAME>
2-hydroxy-4-(2-hydroxy-4-methoxy-6-methylbenzoyl)oxy-6-methylbenzoic acid

> <PUBCHEM_IUPAC_SYSTEMATIC_NAME>
4-(4-methoxy-2-methyl-6-oxidanyl-phenyl)carbonyloxy-2-methyl-6-oxidanyl-benzoic acid

> <PUBCHEM_IUPAC_TRADITIONAL_NAME>
2-hydroxy-4-(2-hydroxy-4-methoxy-6-methyl-benzoyl)oxy-6-methyl-benzoic acid

> <PUBCHEM_IUPAC_INCHI>
InChI=1S/C17H16O7/c1-8-5-11(7-12(18)14(8)16(20)21)24-17(22)15-9(2)4-10(23-3)6-13(15)19/h4-7,18-19H,1-3H3,(H,20,21)

> <PUBCHEM_IUPAC_INCHIKEY>
GODLCSLPZIBRMG-UHFFFAOYSA-N

> <PUBCHEM_XLOGP3_AA>
4

> <PUBCHEM_EXACT_MASS>
332.089603

> <PUBCHEM_MOLECULAR_FORMULA>
C17H16O7

> <PUBCHEM_MOLECULAR_WEIGHT>
332.30474

> <PUBCHEM_OPENEYE_CAN_SMILES>
CC1=CC(=CC(=C1C(=O)OC2=CC(=C(C(=C2)C)C(=O)O)O)O)OC

> <PUBCHEM_OPENEYE_ISO_SMILES>
CC1=CC(=CC(=C1C(=O)OC2=CC(=C(C(=C2)C)C(=O)O)O)O)OC

> <PUBCHEM_CACTVS_TPSA>
113

> <PUBCHEM_MONOISOTOPIC_WEIGHT>
332.089603

> <PUBCHEM_TOTAL_CHARGE>
0

> <PUBCHEM_HEAVY_ATOM_COUNT>
24

> <PUBCHEM_ATOM_DEF_STEREO_COUNT>
0

> <PUBCHEM_ATOM_UDEF_STEREO_COUNT>
0

> <PUBCHEM_BOND_DEF_STEREO_COUNT>
0

> <PUBCHEM_BOND_UDEF_STEREO_COUNT>
0

> <PUBCHEM_ISOTOPIC_ATOM_COUNT>
0

> <PUBCHEM_COMPONENT_COUNT>
1

> <PUBCHEM_CACTVS_TAUTO_COUNT>
169

> <PUBCHEM_COORDINATE_TYPE>
1
5
255

> <PUBCHEM_BONDANNOTATIONS>
10  12  8
10  14  8
11  14  8
11  19  8
12  17  8
13  20  8
15  16  8
16  20  8
17  19  8
8  13  8
8  9  8
9  15  8

$$$$

