442935
  -OEChem-07051213002D

 25 27  0     1  0  0  0  0  0999 V2000
    6.7889   -1.8137    0.0000 O   0  0  0  0  0  0  0  0  0  0  0  0
    4.6660    1.9416    0.0000 O   0  0  0  0  0  0  0  0  0  0  0  0
    5.5321    0.4416    0.0000 N   0  0  0  0  0  0  0  0  0  0  0  0
    4.6660   -1.0584    0.0000 N   0  0  0  0  0  0  0  0  0  0  0  0
    7.0619   -0.0584    0.0000 C   0  0  0  0  0  0  0  0  0  0  0  0
    6.4783   -0.8632    0.0000 C   0  0  1  0  0  0  0  0  0  0  0  0
    6.4783    0.7463    0.0000 C   0  0  0  0  0  0  0  0  0  0  0  0
    5.5321   -0.5584    0.0000 C   0  0  0  0  0  0  0  0  0  0  0  0
    4.6660    0.9416    0.0000 C   0  0  0  0  0  0  0  0  0  0  0  0
    3.8000    0.4416    0.0000 C   0  0  0  0  0  0  0  0  0  0  0  0
    3.8000   -0.5584    0.0000 C   0  0  0  0  0  0  0  0  0  0  0  0
    2.9061    0.9762    0.0000 C   0  0  0  0  0  0  0  0  0  0  0  0
    2.9061   -1.0931    0.0000 C   0  0  0  0  0  0  0  0  0  0  0  0
    2.0000    0.4624    0.0000 C   0  0  0  0  0  0  0  0  0  0  0  0
    2.0000   -0.5793    0.0000 C   0  0  0  0  0  0  0  0  0  0  0  0
    7.5228   -0.4732    0.0000 H   0  0  0  0  0  0  0  0  0  0  0  0
    7.5228    0.3563    0.0000 H   0  0  0  0  0  0  0  0  0  0  0  0
    7.0908   -0.9594    0.0000 H   0  0  0  0  0  0  0  0  0  0  0  0
    7.0157    1.0555    0.0000 H   0  0  0  0  0  0  0  0  0  0  0  0
    6.2272    1.3132    0.0000 H   0  0  0  0  0  0  0  0  0  0  0  0
    7.3956   -1.9416    0.0000 H   0  0  0  0  0  0  0  0  0  0  0  0
    2.9132    1.5962    0.0000 H   0  0  0  0  0  0  0  0  0  0  0  0
    2.9132   -1.7131    0.0000 H   0  0  0  0  0  0  0  0  0  0  0  0
    1.4643    0.7744    0.0000 H   0  0  0  0  0  0  0  0  0  0  0  0
    1.4643   -0.8913    0.0000 H   0  0  0  0  0  0  0  0  0  0  0  0
  6  1  1  6  0  0  0
  1 21  1  0  0  0  0
  2  9  2  0  0  0  0
  3  7  1  0  0  0  0
  3  8  1  0  0  0  0
  3  9  1  0  0  0  0
  4  8  2  0  0  0  0
  4 11  1  0  0  0  0
  5  6  1  0  0  0  0
  5  7  1  0  0  0  0
  5 16  1  0  0  0  0
  5 17  1  0  0  0  0
  6  8  1  0  0  0  0
  6 18  1  0  0  0  0
  7 19  1  0  0  0  0
  7 20  1  0  0  0  0
  9 10  1  0  0  0  0
 10 11  1  0  0  0  0
 10 12  2  0  0  0  0
 11 13  2  0  0  0  0
 12 14  1  0  0  0  0
 12 22  1  0  0  0  0
 13 15  1  0  0  0  0
 13 23  1  0  0  0  0
 14 15  2  0  0  0  0
 14 24  1  0  0  0  0
 15 25  1  0  0  0  0
M  END
> <PUBCHEM_COMPOUND_CID>
442935

> <PUBCHEM_COMPOUND_CANONICALIZED>
1

> <PUBCHEM_CACTVS_COMPLEXITY>
327

> <PUBCHEM_CACTVS_HBOND_ACCEPTOR>
3

> <PUBCHEM_CACTVS_HBOND_DONOR>
1

> <PUBCHEM_CACTVS_ROTATABLE_BOND>
0

> <PUBCHEM_CACTVS_SUBSKEYS>
AAADccBzMAAAAAAAAAAAAAAAAAAAAWAAAAAwQAAAAAAAAECBAAAAHgAACAAADBzhmAYxwIMAAgCoAidydASCAAEkAgAJiAE4ZMgKMDqA3ZGEYYhihgCYyccYiACOAAAAAAACAAAAAAAAAAQAAAAAAAAAAA==

> <PUBCHEM_IUPAC_OPENEYE_NAME>
(3S)-3-hydroxy-2,3-dihydro-1H-pyrrolo[2,1-b]quinazolin-9-one

> <PUBCHEM_IUPAC_CAS_NAME>
(3S)-3-hydroxy-2,3-dihydro-1H-pyrrolo[2,1-b]quinazolin-9-one

> <PUBCHEM_IUPAC_NAME>
(3S)-3-hydroxy-2,3-dihydro-1H-pyrrolo[2,1-b]quinazolin-9-one

> <PUBCHEM_IUPAC_SYSTEMATIC_NAME>
(3S)-3-oxidanyl-2,3-dihydro-1H-pyrrolo[2,1-b]quinazolin-9-one

> <PUBCHEM_IUPAC_TRADITIONAL_NAME>
(3S)-3-hydroxy-2,3-dihydro-1H-pyrrolo[2,1-b]quinazolin-9-one

> <PUBCHEM_IUPAC_INCHI>
InChI=1S/C11H10N2O2/c14-9-5-6-13-10(9)12-8-4-2-1-3-7(8)11(13)15/h1-4,9,14H,5-6H2/t9-/m0/s1

> <PUBCHEM_IUPAC_INCHIKEY>
SDIVYZXRQHWCKF-VIFPVBQESA-N

> <PUBCHEM_XLOGP3_AA>
0.4

> <PUBCHEM_EXACT_MASS>
202.074228

> <PUBCHEM_MOLECULAR_FORMULA>
C11H10N2O2

> <PUBCHEM_MOLECULAR_WEIGHT>
202.2093

> <PUBCHEM_OPENEYE_CAN_SMILES>
C1CN2C(=NC3=CC=CC=C3C2=O)C1O

> <PUBCHEM_OPENEYE_ISO_SMILES>
C1CN2C(=NC3=CC=CC=C3C2=O)[C@H]1O

> <PUBCHEM_CACTVS_TPSA>
52.9

> <PUBCHEM_MONOISOTOPIC_WEIGHT>
202.074228

> <PUBCHEM_TOTAL_CHARGE>
0

> <PUBCHEM_HEAVY_ATOM_COUNT>
15

> <PUBCHEM_ATOM_DEF_STEREO_COUNT>
1

> <PUBCHEM_ATOM_UDEF_STEREO_COUNT>
0

> <PUBCHEM_BOND_DEF_STEREO_COUNT>
0

> <PUBCHEM_BOND_UDEF_STEREO_COUNT>
0

> <PUBCHEM_ISOTOPIC_ATOM_COUNT>
0

> <PUBCHEM_COMPONENT_COUNT>
1

> <PUBCHEM_CACTVS_TAUTO_COUNT>
19

> <PUBCHEM_COORDINATE_TYPE>
1
5
255

> <PUBCHEM_BONDANNOTATIONS>
6  1  6
10  11  8
10  12  8
11  13  8
12  14  8
13  15  8
14  15  8
3  8  8
3  9  8
4  11  8
4  8  8
9  10  8

$$$$

