5321779
  -OEChem-07051213152D

 60 62  0     1  0  0  0  0  0999 V2000
    7.2051    1.8231    0.0000 O   0  0  0  0  0  0  0  0  0  0  0  0
    2.6206    2.9399    0.0000 O   0  0  0  0  0  0  0  0  0  0  0  0
    3.7164   -2.6596    0.0000 O   0  0  0  0  0  0  0  0  0  0  0  0
    2.0000   -2.8923    0.0000 O   0  0  0  0  0  0  0  0  0  0  0  0
    3.3277    0.3850    0.0000 C   0  0  2  0  0  0  0  0  0  0  0  0
    4.2516    0.0023    0.0000 C   0  0  2  0  0  0  0  0  0  0  0  0
    5.5582    1.3089    0.0000 C   0  0  2  0  0  0  0  0  0  0  0  0
    5.1755    2.2327    0.0000 C   0  0  0  0  0  0  0  0  0  0  0  0
    5.1755    0.3850    0.0000 C   0  0  0  0  0  0  0  0  0  0  0  0
    2.9450    1.3089    0.0000 C   0  0  0  0  0  0  0  0  0  0  0  0
    4.2516    2.6154    0.0000 C   0  0  0  0  0  0  0  0  0  0  0  0
    2.4917   -0.2363    0.0000 C   0  0  0  0  0  0  0  0  0  0  0  0
    6.2313    2.0506    0.0000 C   0  0  2  0  0  0  0  0  0  0  0  0
    3.3277    2.2327    0.0000 C   0  0  1  0  0  0  0  0  0  0  0  0
    4.4035   -1.0282    0.0000 C   0  0  0  0  0  0  0  0  0  0  0  0
    2.6197   -1.2700    0.0000 C   0  0  0  0  0  0  0  0  0  0  0  0
    5.9565    3.0137    0.0000 C   0  0  0  0  0  0  0  0  0  0  0  0
    3.5820   -1.6686    0.0000 C   0  0  2  0  0  0  0  0  0  0  0  0
    2.4038    0.7677    0.0000 C   0  0  0  0  0  0  0  0  0  0  0  0
    4.9933    3.2886    0.0000 C   0  0  0  0  0  0  0  0  0  0  0  0
    5.4731    3.3436    0.0000 C   0  0  0  0  0  0  0  0  0  0  0  0
    6.2863    2.5304    0.0000 C   0  0  0  0  0  0  0  0  0  0  0  0
    4.7658    4.2623    0.0000 C   0  0  0  0  0  0  0  0  0  0  0  0
    5.3317   -1.4002    0.0000 C   0  0  0  0  0  0  0  0  0  0  0  0
    2.9254   -3.2714    0.0000 C   0  0  0  0  0  0  0  0  0  0  0  0
    3.0597   -4.2623    0.0000 C   0  0  0  0  0  0  0  0  0  0  0  0
    5.0369   -0.3230    0.0000 H   0  0  0  0  0  0  0  0  0  0  0  0
    5.8834    0.5236    0.0000 H   0  0  0  0  0  0  0  0  0  0  0  0
    5.2564   -0.2297    0.0000 H   0  0  0  0  0  0  0  0  0  0  0  0
    5.7902    0.3041    0.0000 H   0  0  0  0  0  0  0  0  0  0  0  0
    2.4532    1.6863    0.0000 H   0  0  0  0  0  0  0  0  0  0  0  0
    2.4532    0.9314    0.0000 H   0  0  0  0  0  0  0  0  0  0  0  0
    2.2125    0.3173    0.0000 H   0  0  0  0  0  0  0  0  0  0  0  0
    1.8985   -0.4166    0.0000 H   0  0  0  0  0  0  0  0  0  0  0  0
    6.6590    2.4995    0.0000 H   0  0  0  0  0  0  0  0  0  0  0  0
    2.7196    2.1118    0.0000 H   0  0  0  0  0  0  0  0  0  0  0  0
    2.0004   -1.2398    0.0000 H   0  0  0  0  0  0  0  0  0  0  0  0
    2.4839   -1.8750    0.0000 H   0  0  0  0  0  0  0  0  0  0  0  0
    6.5738    3.0711    0.0000 H   0  0  0  0  0  0  0  0  0  0  0  0
    6.0138    3.6311    0.0000 H   0  0  0  0  0  0  0  0  0  0  0  0
    3.0908   -2.0470    0.0000 H   0  0  0  0  0  0  0  0  0  0  0  0
    2.6411    1.3405    0.0000 H   0  0  0  0  0  0  0  0  0  0  0  0
    1.8310    1.0049    0.0000 H   0  0  0  0  0  0  0  0  0  0  0  0
    2.1666    0.1949    0.0000 H   0  0  0  0  0  0  0  0  0  0  0  0
    6.0720    3.1831    0.0000 H   0  0  0  0  0  0  0  0  0  0  0  0
    5.6336    3.9424    0.0000 H   0  0  0  0  0  0  0  0  0  0  0  0
    4.8742    3.5040    0.0000 H   0  0  0  0  0  0  0  0  0  0  0  0
    6.4468    1.9315    0.0000 H   0  0  0  0  0  0  0  0  0  0  0  0
    6.8852    2.6909    0.0000 H   0  0  0  0  0  0  0  0  0  0  0  0
    6.1258    3.1293    0.0000 H   0  0  0  0  0  0  0  0  0  0  0  0
    5.3696    4.4034    0.0000 H   0  0  0  0  0  0  0  0  0  0  0  0
    4.6248    4.8661    0.0000 H   0  0  0  0  0  0  0  0  0  0  0  0
    4.1621    4.1213    0.0000 H   0  0  0  0  0  0  0  0  0  0  0  0
    5.4197   -2.0139    0.0000 H   0  0  0  0  0  0  0  0  0  0  0  0
    5.8192   -1.0171    0.0000 H   0  0  0  0  0  0  0  0  0  0  0  0
    7.6291    2.2754    0.0000 H   0  0  0  0  0  0  0  0  0  0  0  0
    2.0217    2.7794    0.0000 H   0  0  0  0  0  0  0  0  0  0  0  0
    2.4453   -4.3456    0.0000 H   0  0  0  0  0  0  0  0  0  0  0  0
    3.1430   -4.8767    0.0000 H   0  0  0  0  0  0  0  0  0  0  0  0
    3.6741   -4.1790    0.0000 H   0  0  0  0  0  0  0  0  0  0  0  0
 13  1  1  6  0  0  0
  1 56  1  0  0  0  0
 14  2  1  6  0  0  0
  2 57  1  0  0  0  0
 18  3  1  1  0  0  0
  3 25  1  0  0  0  0
  4 25  2  0  0  0  0
  5  6  1  0  0  0  0
  5 10  1  0  0  0  0
  5 12  1  0  0  0  0
  5 19  1  6  0  0  0
  6  9  1  0  0  0  0
  6 15  1  0  0  0  0
  6 27  1  1  0  0  0
  7  8  1  0  0  0  0
  7  9  1  0  0  0  0
  7 13  1  0  0  0  0
  7 28  1  6  0  0  0
  8 11  1  0  0  0  0
  8 21  1  0  0  0  0
  8 22  1  0  0  0  0
  9 29  1  0  0  0  0
  9 30  1  0  0  0  0
 10 14  1  0  0  0  0
 10 31  1  0  0  0  0
 10 32  1  0  0  0  0
 11 14  1  0  0  0  0
 11 20  2  0  0  0  0
 12 16  1  0  0  0  0
 12 33  1  0  0  0  0
 12 34  1  0  0  0  0
 13 17  1  0  0  0  0
 13 35  1  0  0  0  0
 14 36  1  0  0  0  0
 15 18  1  0  0  0  0
 15 24  2  0  0  0  0
 16 18  1  0  0  0  0
 16 37  1  0  0  0  0
 16 38  1  0  0  0  0
 17 20  1  0  0  0  0
 17 39  1  0  0  0  0
 17 40  1  0  0  0  0
 18 41  1  0  0  0  0
 19 42  1  0  0  0  0
 19 43  1  0  0  0  0
 19 44  1  0  0  0  0
 20 23  1  0  0  0  0
 21 45  1  0  0  0  0
 21 46  1  0  0  0  0
 21 47  1  0  0  0  0
 22 48  1  0  0  0  0
 22 49  1  0  0  0  0
 22 50  1  0  0  0  0
 23 51  1  0  0  0  0
 23 52  1  0  0  0  0
 23 53  1  0  0  0  0
 24 54  1  0  0  0  0
 24 55  1  0  0  0  0
 25 26  1  0  0  0  0
 26 58  1  0  0  0  0
 26 59  1  0  0  0  0
 26 60  1  0  0  0  0
M  END
> <PUBCHEM_COMPOUND_CID>
5321779

> <PUBCHEM_COMPOUND_CANONICALIZED>
1

> <PUBCHEM_CACTVS_COMPLEXITY>
647

> <PUBCHEM_CACTVS_HBOND_ACCEPTOR>
4

> <PUBCHEM_CACTVS_HBOND_DONOR>
2

> <PUBCHEM_CACTVS_ROTATABLE_BOND>
2

> <PUBCHEM_CACTVS_SUBSKEYS>
AAADcfB4OAAAAAAAAAAAAAAAAAAAAAAAAAAwQAAAAAAYAACAAAAAGgAACAAADxSggAICCAAABgCIAgDSCAAAAAAgAAAACAAAAAgAFAIAIQACUAAEwAAIMAOA4PQPgAAAAAAAAABAAAIAACAAAAAAAAAAAA==

> <PUBCHEM_IUPAC_INCHI>
InChI=1S/C22H34O4/c1-12-9-17(24)16-10-15-13(2)19(26-14(3)23)7-8-22(15,6)11-18(25)20(12)21(16,4)5/h15-19,24-25H,2,7-11H2,1,3-6H3/t15-,16-,17+,18+,19+,22+/m1/s1

> <PUBCHEM_IUPAC_INCHIKEY>
KHXOPJUQEGBFTQ-WDHPPJNLSA-N

> <PUBCHEM_XLOGP3_AA>
2.4

> <PUBCHEM_EXACT_MASS>
362.24571

> <PUBCHEM_MOLECULAR_FORMULA>
C22H34O4

> <PUBCHEM_MOLECULAR_WEIGHT>
362.50296

> <PUBCHEM_OPENEYE_CAN_SMILES>
CC1=C2C(CC3(CCC(C(=C)C3CC(C2(C)C)C(C1)O)OC(=O)C)C)O

> <PUBCHEM_OPENEYE_ISO_SMILES>
CC1=C2[C@H](C[C@@]3(CC[C@@H](C(=C)[C@H]3C[C@@H](C2(C)C)[C@H](C1)O)OC(=O)C)C)O

> <PUBCHEM_CACTVS_TPSA>
66.8

> <PUBCHEM_MONOISOTOPIC_WEIGHT>
362.24571

> <PUBCHEM_TOTAL_CHARGE>
0

> <PUBCHEM_HEAVY_ATOM_COUNT>
26

> <PUBCHEM_ATOM_DEF_STEREO_COUNT>
6

> <PUBCHEM_ATOM_UDEF_STEREO_COUNT>
0

> <PUBCHEM_BOND_DEF_STEREO_COUNT>
0

> <PUBCHEM_BOND_UDEF_STEREO_COUNT>
0

> <PUBCHEM_ISOTOPIC_ATOM_COUNT>
0

> <PUBCHEM_COMPONENT_COUNT>
1

> <PUBCHEM_CACTVS_TAUTO_COUNT>
1

> <PUBCHEM_COORDINATE_TYPE>
1
5
255

> <PUBCHEM_BONDANNOTATIONS>
13  1  6
14  2  6
18  3  5
5  19  6
6  27  5
7  28  6

$$$$

