440453
  -OEChem-07051212492D

 73 78  0     1  0  0  0  0  0999 V2000
    6.3462   -2.2076    0.0000 O   0  0  0  0  0  0  0  0  0  0  0  0
    5.2833   -2.6918    0.0000 O   0  0  0  0  0  0  0  0  0  0  0  0
   12.7535    3.1716    0.0000 O   0  0  0  0  0  0  0  0  0  0  0  0
    2.5662   -2.6176    0.0000 O   0  0  0  0  0  0  0  0  0  0  0  0
    7.4136    0.0273    0.0000 C   0  0  1  0  0  0  0  0  0  0  0  0
    8.2796   -0.4727    0.0000 C   0  0  2  0  0  0  0  0  0  0  0  0
    6.6766   -0.6398    0.0000 C   0  0  2  0  0  0  0  0  0  0  0  0
    9.1457    0.0273    0.0000 C   0  0  1  0  0  0  0  0  0  0  0  0
    7.0817   -1.5476    0.0000 C   0  0  2  0  0  0  0  0  0  0  0  0
    8.0704   -1.4446    0.0000 C   0  0  0  0  0  0  0  0  0  0  0  0
    9.1457    1.0272    0.0000 C   0  0  2  0  0  0  0  0  0  0  0  0
    5.6942   -0.7465    0.0000 C   0  0  1  0  0  0  0  0  0  0  0  0
    7.4136    1.0272    0.0000 C   0  0  0  0  0  0  0  0  0  0  0  0
    5.4904   -1.7135    0.0000 C   0  0  1  0  0  0  0  0  0  0  0  0
    8.2796    1.5272    0.0000 C   0  0  0  0  0  0  0  0  0  0  0  0
   10.0396    1.5619    0.0000 C   0  0  2  0  0  0  0  0  0  0  0  0
    6.5476    0.5273    0.0000 C   0  0  0  0  0  0  0  0  0  0  0  0
   10.0396   -0.5074    0.0000 C   0  0  0  0  0  0  0  0  0  0  0  0
   10.9457    1.0481    0.0000 C   0  0  0  0  0  0  0  0  0  0  0  0
    4.6239   -1.2142    0.0000 C   0  0  0  0  0  0  0  0  0  0  0  0
    5.0231   -0.0051    0.0000 C   0  0  0  0  0  0  0  0  0  0  0  0
   10.0145    2.6466    0.0000 C   0  0  0  0  0  0  0  0  0  0  0  0
   10.9457    0.0064    0.0000 C   0  0  0  0  0  0  0  0  0  0  0  0
    4.2889   -2.7972    0.0000 C   0  0  1  0  0  0  0  0  0  0  0  0
    9.1698    2.0552    0.0000 C   0  0  0  0  0  0  0  0  0  0  0  0
    3.8814   -1.8840    0.0000 C   0  0  0  0  0  0  0  0  0  0  0  0
   11.8895    1.5833    0.0000 C   0  0  0  0  0  0  0  0  0  0  0  0
   10.9457    3.2035    0.0000 C   0  0  0  0  0  0  0  0  0  0  0  0
   11.8895    2.6683    0.0000 C   0  0  2  0  0  0  0  0  0  0  0  0
    3.3757   -3.2047    0.0000 C   0  0  0  0  0  0  0  0  0  0  0  0
    4.3943   -3.7916    0.0000 C   0  0  0  0  0  0  0  0  0  0  0  0
    8.9666   -0.9733    0.0000 H   0  0  0  0  0  0  0  0  0  0  0  0
    6.3285    0.1356    0.0000 H   0  0  0  0  0  0  0  0  0  0  0  0
    9.1391   -0.8227    0.0000 H   0  0  0  0  0  0  0  0  0  0  0  0
    7.4264   -2.3246    0.0000 H   0  0  0  0  0  0  0  0  0  0  0  0
    8.0695   -2.0646    0.0000 H   0  0  0  0  0  0  0  0  0  0  0  0
    8.6869   -1.5106    0.0000 H   0  0  0  0  0  0  0  0  0  0  0  0
    9.1391    1.8772    0.0000 H   0  0  0  0  0  0  0  0  0  0  0  0
    5.0956   -0.9083    0.0000 H   0  0  0  0  0  0  0  0  0  0  0  0
    7.2016    1.6099    0.0000 H   0  0  0  0  0  0  0  0  0  0  0  0
    6.8030    0.9196    0.0000 H   0  0  0  0  0  0  0  0  0  0  0  0
    8.6782    2.0022    0.0000 H   0  0  0  0  0  0  0  0  0  0  0  0
    7.8811    2.0022    0.0000 H   0  0  0  0  0  0  0  0  0  0  0  0
    6.8576    1.0642    0.0000 H   0  0  0  0  0  0  0  0  0  0  0  0
    6.0106    0.8373    0.0000 H   0  0  0  0  0  0  0  0  0  0  0  0
    6.2376   -0.0097    0.0000 H   0  0  0  0  0  0  0  0  0  0  0  0
    9.6350   -0.9772    0.0000 H   0  0  0  0  0  0  0  0  0  0  0  0
   10.4332   -0.9864    0.0000 H   0  0  0  0  0  0  0  0  0  0  0  0
    4.9879   -0.7123    0.0000 H   0  0  0  0  0  0  0  0  0  0  0  0
    4.1628   -0.7998    0.0000 H   0  0  0  0  0  0  0  0  0  0  0  0
    5.4828    0.4109    0.0000 H   0  0  0  0  0  0  0  0  0  0  0  0
    4.6071    0.4545    0.0000 H   0  0  0  0  0  0  0  0  0  0  0  0
    4.5634   -0.4212    0.0000 H   0  0  0  0  0  0  0  0  0  0  0  0
    9.7920    3.2253    0.0000 H   0  0  0  0  0  0  0  0  0  0  0  0
    9.4063    2.5264    0.0000 H   0  0  0  0  0  0  0  0  0  0  0  0
   11.4814   -0.3056    0.0000 H   0  0  0  0  0  0  0  0  0  0  0  0
    9.4756    2.5945    0.0000 H   0  0  0  0  0  0  0  0  0  0  0  0
    8.6304    2.3611    0.0000 H   0  0  0  0  0  0  0  0  0  0  0  0
    8.8639    1.5159    0.0000 H   0  0  0  0  0  0  0  0  0  0  0  0
    3.5165   -1.3827    0.0000 H   0  0  0  0  0  0  0  0  0  0  0  0
    3.3447   -2.1945    0.0000 H   0  0  0  0  0  0  0  0  0  0  0  0
   12.0985    0.9996    0.0000 H   0  0  0  0  0  0  0  0  0  0  0  0
   12.5003    1.6894    0.0000 H   0  0  0  0  0  0  0  0  0  0  0  0
   11.3393    3.6826    0.0000 H   0  0  0  0  0  0  0  0  0  0  0  0
   10.5411    3.6733    0.0000 H   0  0  0  0  0  0  0  0  0  0  0  0
   12.4270    2.3593    0.0000 H   0  0  0  0  0  0  0  0  0  0  0  0
    2.9301   -3.6358    0.0000 H   0  0  0  0  0  0  0  0  0  0  0  0
    3.7228   -3.7184    0.0000 H   0  0  0  0  0  0  0  0  0  0  0  0
    3.7777   -3.8570    0.0000 H   0  0  0  0  0  0  0  0  0  0  0  0
    4.4596   -4.4082    0.0000 H   0  0  0  0  0  0  0  0  0  0  0  0
    5.0108   -3.7263    0.0000 H   0  0  0  0  0  0  0  0  0  0  0  0
   12.7512    3.7916    0.0000 H   0  0  0  0  0  0  0  0  0  0  0  0
    2.0000   -2.8703    0.0000 H   0  0  0  0  0  0  0  0  0  0  0  0
  1  9  1  0  0  0  0
 14  1  1  6  0  0  0
  2 14  1  0  0  0  0
  2 24  1  0  0  0  0
 29  3  1  6  0  0  0
  3 72  1  0  0  0  0
  4 30  1  0  0  0  0
  4 73  1  0  0  0  0
  5  6  1  0  0  0  0
  5  7  1  0  0  0  0
  5 13  1  0  0  0  0
  5 17  1  6  0  0  0
  6  8  1  0  0  0  0
  6 10  1  0  0  0  0
  6 32  1  1  0  0  0
  7  9  1  0  0  0  0
  7 12  1  0  0  0  0
  7 33  1  1  0  0  0
  8 11  1  0  0  0  0
  8 18  1  0  0  0  0
  8 34  1  6  0  0  0
  9 10  1  0  0  0  0
  9 35  1  1  0  0  0
 10 36  1  0  0  0  0
 10 37  1  0  0  0  0
 11 15  1  0  0  0  0
 11 16  1  0  0  0  0
 11 38  1  1  0  0  0
 12 14  1  0  0  0  0
 12 21  1  1  0  0  0
 12 39  1  0  0  0  0
 13 15  1  0  0  0  0
 13 40  1  0  0  0  0
 13 41  1  0  0  0  0
 14 20  1  0  0  0  0
 15 42  1  0  0  0  0
 15 43  1  0  0  0  0
 16 19  1  0  0  0  0
 16 22  1  0  0  0  0
 16 25  1  6  0  0  0
 17 44  1  0  0  0  0
 17 45  1  0  0  0  0
 17 46  1  0  0  0  0
 18 23  1  0  0  0  0
 18 47  1  0  0  0  0
 18 48  1  0  0  0  0
 19 23  2  0  0  0  0
 19 27  1  0  0  0  0
 20 26  1  0  0  0  0
 20 49  1  0  0  0  0
 20 50  1  0  0  0  0
 21 51  1  0  0  0  0
 21 52  1  0  0  0  0
 21 53  1  0  0  0  0
 22 28  1  0  0  0  0
 22 54  1  0  0  0  0
 22 55  1  0  0  0  0
 23 56  1  0  0  0  0
 24 26  1  0  0  0  0
 24 30  1  0  0  0  0
 24 31  1  1  0  0  0
 25 57  1  0  0  0  0
 25 58  1  0  0  0  0
 25 59  1  0  0  0  0
 26 60  1  0  0  0  0
 26 61  1  0  0  0  0
 27 29  1  0  0  0  0
 27 62  1  0  0  0  0
 27 63  1  0  0  0  0
 28 29  1  0  0  0  0
 28 64  1  0  0  0  0
 28 65  1  0  0  0  0
 29 66  1  0  0  0  0
 30 67  1  0  0  0  0
 30 68  1  0  0  0  0
 31 69  1  0  0  0  0
 31 70  1  0  0  0  0
 31 71  1  0  0  0  0
M  END
> <PUBCHEM_COMPOUND_CID>
440453

> <PUBCHEM_COMPOUND_CANONICALIZED>
1

> <PUBCHEM_CACTVS_COMPLEXITY>
794

> <PUBCHEM_CACTVS_HBOND_ACCEPTOR>
4

> <PUBCHEM_CACTVS_HBOND_DONOR>
2

> <PUBCHEM_CACTVS_ROTATABLE_BOND>
1

> <PUBCHEM_CACTVS_SUBSKEYS>
AAADcfB4OAAAAAAAAAAAAAAAAAAAAaJEAAAwYIAAAAASAGCAAAAAGgAACAAAD1SggAICCAAABgCAAiBCAAAAAAAgAAAACAAAAAgREAIAAQAiQAAEwAAPAAPA4PwPgAAAAAAAAADAAAQAACAAAYAADAAAAA==

> <PUBCHEM_IUPAC_INCHI>
InChI=1S/C27H42O4/c1-16-23-22(30-27(16)12-11-24(2,15-28)31-27)14-21-19-6-5-17-13-18(29)7-9-25(17,3)20(19)8-10-26(21,23)4/h5,16,18-23,28-29H,6-15H2,1-4H3/t16-,18-,19+,20-,21-,22-,23-,24-,25-,26-,27-/m0/s1

> <PUBCHEM_IUPAC_INCHIKEY>
NELZMZLNTYWIPD-MLBSDYKWSA-N

> <PUBCHEM_XLOGP3_AA>
4.4

> <PUBCHEM_EXACT_MASS>
430.30831

> <PUBCHEM_MOLECULAR_FORMULA>
C27H42O4

> <PUBCHEM_MOLECULAR_WEIGHT>
430.61998

> <PUBCHEM_OPENEYE_CAN_SMILES>
CC1C2C(CC3C2(CCC4C3CC=C5C4(CCC(C5)O)C)C)OC16CCC(O6)(C)CO

> <PUBCHEM_OPENEYE_ISO_SMILES>
C[C@H]1[C@H]2[C@H](C[C@@H]3[C@@]2(CC[C@H]4[C@H]3CC=C5[C@@]4(CC[C@@H](C5)O)C)C)O[C@]16CC[C@@](O6)(C)CO

> <PUBCHEM_CACTVS_TPSA>
58.9

> <PUBCHEM_MONOISOTOPIC_WEIGHT>
430.30831

> <PUBCHEM_TOTAL_CHARGE>
0

> <PUBCHEM_HEAVY_ATOM_COUNT>
31

> <PUBCHEM_ATOM_DEF_STEREO_COUNT>
11

> <PUBCHEM_ATOM_UDEF_STEREO_COUNT>
0

> <PUBCHEM_BOND_DEF_STEREO_COUNT>
0

> <PUBCHEM_BOND_UDEF_STEREO_COUNT>
0

> <PUBCHEM_ISOTOPIC_ATOM_COUNT>
0

> <PUBCHEM_COMPONENT_COUNT>
1

> <PUBCHEM_CACTVS_TAUTO_COUNT>
1

> <PUBCHEM_COORDINATE_TYPE>
1
5
255

> <PUBCHEM_BONDANNOTATIONS>
14  1  6
11  38  5
12  21  5
16  25  6
24  31  5
29  3  6
5  17  6
6  32  5
7  33  5
8  34  6
9  35  5

$$$$

