   Chemical and Physical Properties References

   [1]USDA ARS - USDA chemical properties
   from [2]ChemIDplus

   Color/Form

     * White crystalline solid /Purity not provided/
     * Colorless crystals /Purity not provided/
     * Light brown solid (pure)
     * Dark oily liquid
     * Solid, white-gray

   from [3]HSDB

   Odor
        Odorless
   from [4]HSDB

   Boiling Point
        351 deg C
   from [5]HSDB

   Melting Point
        91-93 deg C
   from [6]HSDB

   Corrosivity

     * Corrosive to polyethylene
     * Non-corrosive under normal use conditions.

   from [7]HSDB

   Density/Specific Gravity
        1.41 g/cu cm at 22 deg C
   from [8]HSDB

   Octanol/Water Partition Coefficient
        log Kow = 3.07
   from [9]HSDB

   Solubilities

     * Solubility in water at room temperature: 225 ppm
     * In water 130 mg/L at 20 deg C; in isopropanol and dichloromethane
       >200 g/L at 20 deg C, toluene 50-100 g/L at 20 deg C, and hexane <1
       g/L at 20 deg C; in benzene 7X10+4 mg/L at 25 deg C, acetone
       1.7X10+6 mg/L at 25 deg C, and ethanol 1.1X10+6 mg/L at 25 deg C.
     * Sparingly soluble in aromatic solvents
     * In water, 152 mg/L at 25 deg C

   from [10]HSDB

   Spectral Properties

     * Intense mass spectral peaks: 161 m/z (100%), 163 m/z (71%), 57 m/z
       (68%), 217 m/z (18%)
     * Absorption maxima: 258 nm (Epsilon=16,670 L/mol cm); 208 nm
       (Epsilon=25,170 L/mol cm)

   from [11]HSDB

   Vapor Pressure
        0.121 mPa (9.08X10-7 mm Hg) at 25 deg C; 12 mPa (9.0X10-5 mm Hg)
   at 60 deg C
   from [12]HSDB

   Other Chemical/Physical Properties

     * Medium to dark gray, crystalline solid /Technical grade, 97%
       nominal/
     * Liquid /Technical grade, purity not provided/
     * Completely soluble in ketones, alcohols, chlorinated hydrocarbons;
       moderately soluble in xylene, benzene, and toluene /Herbax
       technical/
     * Readily soluble in ketones (60% isophorone at 25 deg C), alchohols
       (54% in ethanol at 25 deg C), ethers, and chlorinated hydrocarbons;
       moderately soluble in aromatic solvents /Riselect technical/
     * Henry's Law Constant: 1.7X10-4 Pa cu m/mole (1.7X10-9 atm-cu
       m/mole) at 25 deg C
     * Hydroxyl radical reaction rate constant = 3.8X10-12 cu cm/molec-sec
       at 25 deg C /Estimated/

   from [13]HSDB

   Computed Properties
   Molecular Weight                  218.07986 [g/mol]
   Molecular Formula                 C[9]H[9]Cl[2]NO
   XLogP3                            3.1
   H-Bond Donor                      1
   H-Bond Acceptor                   1
   Rotatable Bond Count              2
   Tautomer Count                    3
   Exact Mass                        217.006119
   MonoIsotopic Mass                 217.006119
   Topological Polar Surface Area    29.1
   Heavy Atom Count                  13
   Formal Charge                     0
   Complexity                        187
   Isotope Atom Count                0
   Defined Atom Stereocenter Count   0
   Undefined Atom Stereocenter Count 0
   Defined Bond Stereocenter Count   0
   Undefined Bond Stereocenter Count 0
   Covalently-Bonded Unit Count      1
   Feature 3D Acceptor Count         1
   Feature 3D Donor Count            1
   Feature 3D Hydrophobe Count       1
   Feature 3D Ring Count             1
   Effective Rotor Count             3
   Conformer Sampling RMSD           0.6
   CID Conformer Count               [14]6

References

   1. http://www.ars.usda.gov/SP2UserFiles/ad_hoc/12755100DatabaseFiles/PesticidePropertiesDatabase/IndividualPesticideFiles/PROPANIL.TXT
   2. http://chem.sis.nlm.nih.gov/chemidplus/
   3. http://toxnet.nlm.nih.gov/cgi-bin/sis/search/r?dbs+hsdb:@term+@rn+@rel+709-98-8
   4. http://toxnet.nlm.nih.gov/cgi-bin/sis/search/r?dbs+hsdb:@term+@rn+@rel+709-98-8
   5. http://toxnet.nlm.nih.gov/cgi-bin/sis/search/r?dbs+hsdb:@term+@rn+@rel+709-98-8
   6. http://toxnet.nlm.nih.gov/cgi-bin/sis/search/r?dbs+hsdb:@term+@rn+@rel+709-98-8
   7. http://toxnet.nlm.nih.gov/cgi-bin/sis/search/r?dbs+hsdb:@term+@rn+@rel+709-98-8
   8. http://toxnet.nlm.nih.gov/cgi-bin/sis/search/r?dbs+hsdb:@term+@rn+@rel+709-98-8
   9. http://toxnet.nlm.nih.gov/cgi-bin/sis/search/r?dbs+hsdb:@term+@rn+@rel+709-98-8
  10. http://toxnet.nlm.nih.gov/cgi-bin/sis/search/r?dbs+hsdb:@term+@rn+@rel+709-98-8
  11. http://toxnet.nlm.nih.gov/cgi-bin/sis/search/r?dbs+hsdb:@term+@rn+@rel+709-98-8
  12. http://toxnet.nlm.nih.gov/cgi-bin/sis/search/r?dbs+hsdb:@term+@rn+@rel+709-98-8
  13. http://toxnet.nlm.nih.gov/cgi-bin/sis/search/r?dbs+hsdb:@term+@rn+@rel+709-98-8
  14. http://pubchem.ncbi.nlm.nih.gov/vw3d/vw3d.cgi?cid=4933
