441893
  -OEChem-07051212562D

 73 78  0     1  0  0  0  0  0999 V2000
    5.5954   -2.5246    0.0000 O   0  0  0  0  0  0  0  0  0  0  0  0
    3.9300   -1.4434    0.0000 O   0  0  0  0  0  0  0  0  0  0  0  0
    8.3882    2.8128    0.0000 O   0  0  0  0  0  0  0  0  0  0  0  0
   12.0027    2.8546    0.0000 O   0  0  0  0  0  0  0  0  0  0  0  0
    6.6628   -0.2898    0.0000 C   0  0  1  0  0  0  0  0  0  0  0  0
    7.5288   -0.7898    0.0000 C   0  0  2  0  0  0  0  0  0  0  0  0
    5.9258   -0.9569    0.0000 C   0  0  2  0  0  0  0  0  0  0  0  0
    8.3948   -0.2898    0.0000 C   0  0  1  0  0  0  0  0  0  0  0  0
    6.3309   -1.8647    0.0000 C   0  0  2  0  0  0  0  0  0  0  0  0
    8.3948    0.7102    0.0000 C   0  0  2  0  0  0  0  0  0  0  0  0
    7.3196   -1.7616    0.0000 C   0  0  0  0  0  0  0  0  0  0  0  0
    6.6628    0.7102    0.0000 C   0  0  0  0  0  0  0  0  0  0  0  0
    4.9434   -1.0636    0.0000 C   0  0  1  0  0  0  0  0  0  0  0  0
    7.5288    1.2102    0.0000 C   0  0  0  0  0  0  0  0  0  0  0  0
    9.2888    1.2449    0.0000 C   0  0  2  0  0  0  0  0  0  0  0  0
    4.7396   -2.0305    0.0000 C   0  0  1  0  0  0  0  0  0  0  0  0
    5.7968    0.2102    0.0000 C   0  0  0  0  0  0  0  0  0  0  0  0
    9.2888   -0.8245    0.0000 C   0  0  0  0  0  0  0  0  0  0  0  0
   10.1949    0.7310    0.0000 C   0  0  0  0  0  0  0  0  0  0  0  0
    9.2637    2.3296    0.0000 C   0  0  1  0  0  0  0  0  0  0  0  0
    4.2723   -0.3222    0.0000 C   0  0  0  0  0  0  0  0  0  0  0  0
    4.6359   -3.0251    0.0000 C   0  0  0  0  0  0  0  0  0  0  0  0
   10.1949   -0.3106    0.0000 C   0  0  0  0  0  0  0  0  0  0  0  0
    8.4189    1.7382    0.0000 C   0  0  0  0  0  0  0  0  0  0  0  0
   11.1386    1.2663    0.0000 C   0  0  0  0  0  0  0  0  0  0  0  0
   10.1949    2.8865    0.0000 C   0  0  0  0  0  0  0  0  0  0  0  0
   11.1386    2.3512    0.0000 C   0  0  2  0  0  0  0  0  0  0  0  0
    3.7227   -3.4327    0.0000 C   0  0  0  0  0  0  0  0  0  0  0  0
    2.9132   -2.8456    0.0000 C   0  0  2  0  0  0  0  0  0  0  0  0
    3.0169   -1.8510    0.0000 C   0  0  0  0  0  0  0  0  0  0  0  0
    2.0000   -3.2531    0.0000 C   0  0  0  0  0  0  0  0  0  0  0  0
    8.2158   -1.2903    0.0000 H   0  0  0  0  0  0  0  0  0  0  0  0
    5.5777   -0.1814    0.0000 H   0  0  0  0  0  0  0  0  0  0  0  0
    8.3883   -1.1398    0.0000 H   0  0  0  0  0  0  0  0  0  0  0  0
    6.6756   -2.6416    0.0000 H   0  0  0  0  0  0  0  0  0  0  0  0
    8.3883    1.5602    0.0000 H   0  0  0  0  0  0  0  0  0  0  0  0
    7.3187   -2.3816    0.0000 H   0  0  0  0  0  0  0  0  0  0  0  0
    7.9361   -1.8277    0.0000 H   0  0  0  0  0  0  0  0  0  0  0  0
    6.4507    1.2928    0.0000 H   0  0  0  0  0  0  0  0  0  0  0  0
    6.0522    0.6025    0.0000 H   0  0  0  0  0  0  0  0  0  0  0  0
    4.3448   -1.2253    0.0000 H   0  0  0  0  0  0  0  0  0  0  0  0
    7.9274    1.6852    0.0000 H   0  0  0  0  0  0  0  0  0  0  0  0
    7.1303    1.6852    0.0000 H   0  0  0  0  0  0  0  0  0  0  0  0
    6.1068    0.7471    0.0000 H   0  0  0  0  0  0  0  0  0  0  0  0
    5.2598    0.5202    0.0000 H   0  0  0  0  0  0  0  0  0  0  0  0
    5.4868   -0.3267    0.0000 H   0  0  0  0  0  0  0  0  0  0  0  0
    8.8842   -1.2942    0.0000 H   0  0  0  0  0  0  0  0  0  0  0  0
    9.6824   -1.3035    0.0000 H   0  0  0  0  0  0  0  0  0  0  0  0
    9.2529    2.9495    0.0000 H   0  0  0  0  0  0  0  0  0  0  0  0
    4.7320    0.0939    0.0000 H   0  0  0  0  0  0  0  0  0  0  0  0
    3.8562    0.1375    0.0000 H   0  0  0  0  0  0  0  0  0  0  0  0
    3.8126   -0.7382    0.0000 H   0  0  0  0  0  0  0  0  0  0  0  0
    4.7864   -3.6266    0.0000 H   0  0  0  0  0  0  0  0  0  0  0  0
    5.2544   -2.9814    0.0000 H   0  0  0  0  0  0  0  0  0  0  0  0
   10.7306   -0.6227    0.0000 H   0  0  0  0  0  0  0  0  0  0  0  0
    8.7248    2.2775    0.0000 H   0  0  0  0  0  0  0  0  0  0  0  0
    7.8796    2.0440    0.0000 H   0  0  0  0  0  0  0  0  0  0  0  0
    8.1131    1.1989    0.0000 H   0  0  0  0  0  0  0  0  0  0  0  0
   11.3477    0.6826    0.0000 H   0  0  0  0  0  0  0  0  0  0  0  0
   11.7495    1.3724    0.0000 H   0  0  0  0  0  0  0  0  0  0  0  0
   10.5885    3.3655    0.0000 H   0  0  0  0  0  0  0  0  0  0  0  0
    9.7903    3.3563    0.0000 H   0  0  0  0  0  0  0  0  0  0  0  0
   11.1351    2.9712    0.0000 H   0  0  0  0  0  0  0  0  0  0  0  0
    3.2771   -3.8637    0.0000 H   0  0  0  0  0  0  0  0  0  0  0  0
    4.0699   -3.9464    0.0000 H   0  0  0  0  0  0  0  0  0  0  0  0
    2.4113   -2.4816    0.0000 H   0  0  0  0  0  0  0  0  0  0  0  0
    2.8664   -1.2495    0.0000 H   0  0  0  0  0  0  0  0  0  0  0  0
    2.3984   -1.8948    0.0000 H   0  0  0  0  0  0  0  0  0  0  0  0
    8.3762    3.4327    0.0000 H   0  0  0  0  0  0  0  0  0  0  0  0
    1.7473   -2.6869    0.0000 H   0  0  0  0  0  0  0  0  0  0  0  0
    1.4338   -3.5058    0.0000 H   0  0  0  0  0  0  0  0  0  0  0  0
    2.2527   -3.8193    0.0000 H   0  0  0  0  0  0  0  0  0  0  0  0
   12.5409    2.5467    0.0000 H   0  0  0  0  0  0  0  0  0  0  0  0
  1  9  1  0  0  0  0
 16  1  1  1  0  0  0
  2 16  1  0  0  0  0
  2 30  1  0  0  0  0
 20  3  1  6  0  0  0
  3 69  1  0  0  0  0
 27  4  1  6  0  0  0
  4 73  1  0  0  0  0
  5  6  1  0  0  0  0
  5  7  1  0  0  0  0
  5 12  1  0  0  0  0
  5 17  1  6  0  0  0
  6  8  1  0  0  0  0
  6 11  1  0  0  0  0
  6 32  1  1  0  0  0
  7  9  1  0  0  0  0
  7 13  1  0  0  0  0
  7 33  1  1  0  0  0
  8 10  1  0  0  0  0
  8 18  1  0  0  0  0
  8 34  1  6  0  0  0
  9 11  1  0  0  0  0
  9 35  1  1  0  0  0
 10 14  1  0  0  0  0
 10 15  1  0  0  0  0
 10 36  1  1  0  0  0
 11 37  1  0  0  0  0
 11 38  1  0  0  0  0
 12 14  1  0  0  0  0
 12 39  1  0  0  0  0
 12 40  1  0  0  0  0
 13 16  1  0  0  0  0
 13 21  1  1  0  0  0
 13 41  1  0  0  0  0
 14 42  1  0  0  0  0
 14 43  1  0  0  0  0
 15 19  1  0  0  0  0
 15 20  1  0  0  0  0
 15 24  1  6  0  0  0
 16 22  1  0  0  0  0
 17 44  1  0  0  0  0
 17 45  1  0  0  0  0
 17 46  1  0  0  0  0
 18 23  1  0  0  0  0
 18 47  1  0  0  0  0
 18 48  1  0  0  0  0
 19 23  2  0  0  0  0
 19 25  1  0  0  0  0
 20 26  1  0  0  0  0
 20 49  1  0  0  0  0
 21 50  1  0  0  0  0
 21 51  1  0  0  0  0
 21 52  1  0  0  0  0
 22 28  1  0  0  0  0
 22 53  1  0  0  0  0
 22 54  1  0  0  0  0
 23 55  1  0  0  0  0
 24 56  1  0  0  0  0
 24 57  1  0  0  0  0
 24 58  1  0  0  0  0
 25 27  1  0  0  0  0
 25 59  1  0  0  0  0
 25 60  1  0  0  0  0
 26 27  1  0  0  0  0
 26 61  1  0  0  0  0
 26 62  1  0  0  0  0
 27 63  1  0  0  0  0
 28 29  1  0  0  0  0
 28 64  1  0  0  0  0
 28 65  1  0  0  0  0
 29 30  1  0  0  0  0
 29 31  1  1  0  0  0
 29 66  1  0  0  0  0
 30 67  1  0  0  0  0
 30 68  1  0  0  0  0
 31 70  1  0  0  0  0
 31 71  1  0  0  0  0
 31 72  1  0  0  0  0
M  END
> <PUBCHEM_COMPOUND_CID>
441893

> <PUBCHEM_COMPOUND_CANONICALIZED>
1

> <PUBCHEM_CACTVS_COMPLEXITY>
779

> <PUBCHEM_CACTVS_HBOND_ACCEPTOR>
4

> <PUBCHEM_CACTVS_HBOND_DONOR>
2

> <PUBCHEM_CACTVS_ROTATABLE_BOND>
0

> <PUBCHEM_CACTVS_SUBSKEYS>
AAADcfB4OAAAAAAAAAAAAAAAAAAAAaIAAAA0YIEAAAASAGCAAAAAGgAACAAADxSggAICCAAABgCAAiBCAAAAAAAgAAAACAAAAAgQEAIAAQAiQAAFwAAMAAPA4PwPgAAAAAAAAADAAAQQADAAAYAADAAAAA==

> <PUBCHEM_IUPAC_INCHI>
InChI=1S/C27H42O4/c1-15-7-10-27(30-14-15)16(2)24-22(31-27)13-21-19-6-5-17-11-18(28)12-23(29)26(17,4)20(19)8-9-25(21,24)3/h5,15-16,18-24,28-29H,6-14H2,1-4H3/t15-,16+,18-,19-,20+,21+,22+,23-,24+,25+,26+,27-/m1/s1

> <PUBCHEM_IUPAC_INCHIKEY>
QMQIQBOGXYYATH-IDABPMKMSA-N

> <PUBCHEM_XLOGP3_AA>
4.7

> <PUBCHEM_EXACT_MASS>
430.30831

> <PUBCHEM_MOLECULAR_FORMULA>
C27H42O4

> <PUBCHEM_MOLECULAR_WEIGHT>
430.61998

> <PUBCHEM_OPENEYE_CAN_SMILES>
CC1CCC2(C(C3C(O2)CC4C3(CCC5C4CC=C6C5(C(CC(C6)O)O)C)C)C)OC1

> <PUBCHEM_OPENEYE_ISO_SMILES>
C[C@@H]1CC[C@@]2([C@H]([C@H]3[C@@H](O2)C[C@@H]4[C@@]3(CC[C@H]5[C@H]4CC=C6[C@@]5([C@@H](C[C@@H](C6)O)O)C)C)C)OC1

> <PUBCHEM_CACTVS_TPSA>
58.9

> <PUBCHEM_MONOISOTOPIC_WEIGHT>
430.30831

> <PUBCHEM_TOTAL_CHARGE>
0

> <PUBCHEM_HEAVY_ATOM_COUNT>
31

> <PUBCHEM_ATOM_DEF_STEREO_COUNT>
12

> <PUBCHEM_ATOM_UDEF_STEREO_COUNT>
0

> <PUBCHEM_BOND_DEF_STEREO_COUNT>
0

> <PUBCHEM_BOND_UDEF_STEREO_COUNT>
0

> <PUBCHEM_ISOTOPIC_ATOM_COUNT>
0

> <PUBCHEM_COMPONENT_COUNT>
1

> <PUBCHEM_CACTVS_TAUTO_COUNT>
1

> <PUBCHEM_COORDINATE_TYPE>
1
5
255

> <PUBCHEM_BONDANNOTATIONS>
16  1  5
10  36  5
13  21  5
15  24  6
29  31  5
20  3  6
27  4  6
5  17  6
6  32  5
7  33  5
8  34  6
9  35  5

$$$$

