   Color/Form
        White, amorphous powder
   from [1]HSDB

   Dissociation Constants
        pKa = 8.84 (tertiary amine) [McFarland JW et al; J Med Chem 40:
   1340-6 (1997)] [2]PubMed Abstract
   from [3]HSDB

   Octanol/Water Partition Coefficient
        log Kow = 1.69 [McFarland JW et al; J Med Chem 40: 1340-6 (1997)]
   [4]PubMed Abstract
   from [5]HSDB

   Solubilities

     * Sol in dil acids. Freely sol in methanol, ethanol, butanol,
       acetone. Practically insol in hexane, carbon tetrachloride, dibutyl
       ether
     * In water, 16 mg/L at 25 deg C (est)

   from [6]HSDB

   Spectral Properties
        UV max (methanol) = 286 to 289 nm
   from [7]HSDB

   Vapor Pressure
        3.4X10-25 mm Hg at 25 deg C (est)
   from [8]HSDB

   Other Chemical/Physical Properties

     * Long needles from ethyl acetate, mp 134-135 deg C. Specific optical
       rotation = -54 deg for D (sodium) line at 25 deg C (methanol).
       Freely sol in water. Forms various cryst hydrates /Hydrochloride/
     * Mol wt: 785.85 /Phosphate/
     * Henry's Law constant = 2.0X10-28 atm-cu m/mole at 25 deg C (est)
     * Hydroxyl radical reaction rate constant = 2.8xX0-10 cu
       cm/molecule-sec at 25 deg C (est)

   from [9]HSDB

   Computed Properties
   Molecular Weight                  687.85834 [g/mol]
   Molecular Formula                 C[35]H[61]NO[12]
   XLogP3-AA                         2.6
   H-Bond Donor                      3
   H-Bond Acceptor                   13
   Rotatable Bond Count              6
   Tautomer Count                    4
   Exact Mass                        687.419376
   MonoIsotopic Mass                 687.419376
   Topological Polar Surface Area    166
   Heavy Atom Count                  48
   Formal Charge                     0
   Complexity                        1090
   Isotope Atom Count                0
   Defined Atom Stereocenter Count   18
   Undefined Atom Stereocenter Count 0
   Defined Bond Stereocenter Count   0
   Undefined Bond Stereocenter Count 0
   Covalently-Bonded Unit Count      1
   Feature 3D Acceptor Count         11
   Feature 3D Donor Count            3
   Feature 3D Cation Count           1
   Feature 3D Ring Count             2
   Effective Rotor Count             11
   Conformer Sampling RMSD           1.2
   CID Conformer Count               [10]30

References

   1. http://toxnet.nlm.nih.gov/cgi-bin/sis/search/r?dbs+hsdb:@term+@rn+@rel+3922-90-5
   2. http://www.ncbi.nlm.nih.gov/entrez/query.fcgi?cmd=Retrieve&db=pubmed&dopt=Abstract&list_uids=9135031
   3. http://toxnet.nlm.nih.gov/cgi-bin/sis/search/r?dbs+hsdb:@term+@rn+@rel+3922-90-5
   4. http://www.ncbi.nlm.nih.gov/entrez/query.fcgi?cmd=Retrieve&db=pubmed&dopt=Abstract&list_uids=9135031
   5. http://toxnet.nlm.nih.gov/cgi-bin/sis/search/r?dbs+hsdb:@term+@rn+@rel+3922-90-5
   6. http://toxnet.nlm.nih.gov/cgi-bin/sis/search/r?dbs+hsdb:@term+@rn+@rel+3922-90-5
   7. http://toxnet.nlm.nih.gov/cgi-bin/sis/search/r?dbs+hsdb:@term+@rn+@rel+3922-90-5
   8. http://toxnet.nlm.nih.gov/cgi-bin/sis/search/r?dbs+hsdb:@term+@rn+@rel+3922-90-5
   9. http://toxnet.nlm.nih.gov/cgi-bin/sis/search/r?dbs+hsdb:@term+@rn+@rel+3922-90-5
  10. http://pubchem.ncbi.nlm.nih.gov/vw3d/vw3d.cgi?cid=72493
