8777
  -OEChem-06261203052D

 68 66  0     0  0  0  0  0  0999 V2000
    1.4030    0.8660    0.0000 S   0  0  0  0  0  0  0  0  0  0  0  0
    2.2690    1.3660    0.0000 O   0  0  0  0  0  0  0  0  0  0  0  0
    5.7331    4.2130    0.0000 O   0  0  0  0  0  0  0  0  0  0  0  0
    4.0010    7.2130    0.0000 O   0  0  0  0  0  0  0  0  0  0  0  0
    9.1972    7.2130    0.0000 O   0  0  0  0  0  0  0  0  0  0  0  0
    0.5369    0.3660    0.0000 O   0  0  0  0  0  0  0  0  0  0  0  0
    0.9030    1.7320    0.0000 O   0  0  0  0  0  0  0  0  0  0  0  0
    1.9030    0.0000    0.0000 O   0  0  0  0  0  0  0  0  0  0  0  0
    6.5991    6.7130    0.0000 N   0  0  0  0  0  0  0  0  0  0  0  0
    7.4651    1.3660    0.0000 C   0  0  0  0  0  0  0  0  0  0  0  0
    8.3312    0.8660    0.0000 C   0  0  0  0  0  0  0  0  0  0  0  0
    6.5991    0.8660    0.0000 C   0  0  0  0  0  0  0  0  0  0  0  0
    9.1972    1.3660    0.0000 C   0  0  0  0  0  0  0  0  0  0  0  0
    5.7331    1.3660    0.0000 C   0  0  0  0  0  0  0  0  0  0  0  0
   10.0632    0.8660    0.0000 C   0  0  0  0  0  0  0  0  0  0  0  0
    4.8671    0.8660    0.0000 C   0  0  0  0  0  0  0  0  0  0  0  0
   10.9292    1.3660    0.0000 C   0  0  0  0  0  0  0  0  0  0  0  0
    4.0010    1.3660    0.0000 C   0  0  0  0  0  0  0  0  0  0  0  0
   11.7953    0.8660    0.0000 C   0  0  0  0  0  0  0  0  0  0  0  0
    3.1350    0.8660    0.0000 C   0  0  0  0  0  0  0  0  0  0  0  0
   12.6613    1.3660    0.0000 C   0  0  0  0  0  0  0  0  0  0  0  0
    7.4651    7.2130    0.0000 C   0  0  0  0  0  0  0  0  0  0  0  0
    5.7331    7.2130    0.0000 C   0  0  0  0  0  0  0  0  0  0  0  0
    6.5991    5.7130    0.0000 C   0  0  0  0  0  0  0  0  0  0  0  0
    8.3312    6.7130    0.0000 C   0  0  0  0  0  0  0  0  0  0  0  0
    4.8671    6.7130    0.0000 C   0  0  0  0  0  0  0  0  0  0  0  0
    5.7331    5.2130    0.0000 C   0  0  0  0  0  0  0  0  0  0  0  0
    7.8637    1.8410    0.0000 H   0  0  0  0  0  0  0  0  0  0  0  0
    7.0666    1.8410    0.0000 H   0  0  0  0  0  0  0  0  0  0  0  0
    7.9326    0.3911    0.0000 H   0  0  0  0  0  0  0  0  0  0  0  0
    8.7297    0.3911    0.0000 H   0  0  0  0  0  0  0  0  0  0  0  0
    6.2006    0.3911    0.0000 H   0  0  0  0  0  0  0  0  0  0  0  0
    6.9976    0.3911    0.0000 H   0  0  0  0  0  0  0  0  0  0  0  0
    9.5957    1.8410    0.0000 H   0  0  0  0  0  0  0  0  0  0  0  0
    8.7987    1.8410    0.0000 H   0  0  0  0  0  0  0  0  0  0  0  0
    6.1316    1.8410    0.0000 H   0  0  0  0  0  0  0  0  0  0  0  0
    5.3346    1.8410    0.0000 H   0  0  0  0  0  0  0  0  0  0  0  0
    9.6647    0.3911    0.0000 H   0  0  0  0  0  0  0  0  0  0  0  0
   10.4617    0.3911    0.0000 H   0  0  0  0  0  0  0  0  0  0  0  0
    4.4685    0.3911    0.0000 H   0  0  0  0  0  0  0  0  0  0  0  0
    5.2656    0.3911    0.0000 H   0  0  0  0  0  0  0  0  0  0  0  0
   11.3278    1.8410    0.0000 H   0  0  0  0  0  0  0  0  0  0  0  0
   10.5307    1.8410    0.0000 H   0  0  0  0  0  0  0  0  0  0  0  0
    4.3996    1.8410    0.0000 H   0  0  0  0  0  0  0  0  0  0  0  0
    3.6025    1.8410    0.0000 H   0  0  0  0  0  0  0  0  0  0  0  0
   11.3967    0.3911    0.0000 H   0  0  0  0  0  0  0  0  0  0  0  0
   12.1938    0.3911    0.0000 H   0  0  0  0  0  0  0  0  0  0  0  0
    2.7365    0.3911    0.0000 H   0  0  0  0  0  0  0  0  0  0  0  0
    3.5335    0.3911    0.0000 H   0  0  0  0  0  0  0  0  0  0  0  0
   12.9713    0.8291    0.0000 H   0  0  0  0  0  0  0  0  0  0  0  0
   13.1982    1.6760    0.0000 H   0  0  0  0  0  0  0  0  0  0  0  0
   12.3513    1.9030    0.0000 H   0  0  0  0  0  0  0  0  0  0  0  0
    7.8637    7.6879    0.0000 H   0  0  0  0  0  0  0  0  0  0  0  0
    7.0666    7.6879    0.0000 H   0  0  0  0  0  0  0  0  0  0  0  0
    6.1316    7.6879    0.0000 H   0  0  0  0  0  0  0  0  0  0  0  0
    5.3346    7.6879    0.0000 H   0  0  0  0  0  0  0  0  0  0  0  0
    6.8112    5.1304    0.0000 H   0  0  0  0  0  0  0  0  0  0  0  0
    7.2097    5.8206    0.0000 H   0  0  0  0  0  0  0  0  0  0  0  0
    5.5210    5.7956    0.0000 H   0  0  0  0  0  0  0  0  0  0  0  0
    5.1225    5.1053    0.0000 H   0  0  0  0  0  0  0  0  0  0  0  0
    4.4685    6.2380    0.0000 H   0  0  0  0  0  0  0  0  0  0  0  0
    5.2656    6.2380    0.0000 H   0  0  0  0  0  0  0  0  0  0  0  0
    7.9326    6.2380    0.0000 H   0  0  0  0  0  0  0  0  0  0  0  0
    8.7297    6.2380    0.0000 H   0  0  0  0  0  0  0  0  0  0  0  0
    5.1962    3.9030    0.0000 H   0  0  0  0  0  0  0  0  0  0  0  0
    3.4641    6.9030    0.0000 H   0  0  0  0  0  0  0  0  0  0  0  0
    9.7341    6.9030    0.0000 H   0  0  0  0  0  0  0  0  0  0  0  0
    0.0000    0.6760    0.0000 H   0  0  0  0  0  0  0  0  0  0  0  0
  1  2  1  0  0  0  0
  1  6  1  0  0  0  0
  1  7  2  0  0  0  0
  1  8  2  0  0  0  0
  2 20  1  0  0  0  0
  3 27  1  0  0  0  0
  3 65  1  0  0  0  0
  4 26  1  0  0  0  0
  4 66  1  0  0  0  0
  5 25  1  0  0  0  0
  5 67  1  0  0  0  0
  6 68  1  0  0  0  0
  9 22  1  0  0  0  0
  9 23  1  0  0  0  0
  9 24  1  0  0  0  0
 10 11  1  0  0  0  0
 10 12  1  0  0  0  0
 10 28  1  0  0  0  0
 10 29  1  0  0  0  0
 11 13  1  0  0  0  0
 11 30  1  0  0  0  0
 11 31  1  0  0  0  0
 12 14  1  0  0  0  0
 12 32  1  0  0  0  0
 12 33  1  0  0  0  0
 13 15  1  0  0  0  0
 13 34  1  0  0  0  0
 13 35  1  0  0  0  0
 14 16  1  0  0  0  0
 14 36  1  0  0  0  0
 14 37  1  0  0  0  0
 15 17  1  0  0  0  0
 15 38  1  0  0  0  0
 15 39  1  0  0  0  0
 16 18  1  0  0  0  0
 16 40  1  0  0  0  0
 16 41  1  0  0  0  0
 17 19  1  0  0  0  0
 17 42  1  0  0  0  0
 17 43  1  0  0  0  0
 18 20  1  0  0  0  0
 18 44  1  0  0  0  0
 18 45  1  0  0  0  0
 19 21  1  0  0  0  0
 19 46  1  0  0  0  0
 19 47  1  0  0  0  0
 20 48  1  0  0  0  0
 20 49  1  0  0  0  0
 21 50  1  0  0  0  0
 21 51  1  0  0  0  0
 21 52  1  0  0  0  0
 22 25  1  0  0  0  0
 22 53  1  0  0  0  0
 22 54  1  0  0  0  0
 23 26  1  0  0  0  0
 23 55  1  0  0  0  0
 23 56  1  0  0  0  0
 24 27  1  0  0  0  0
 24 57  1  0  0  0  0
 24 58  1  0  0  0  0
 25 63  1  0  0  0  0
 25 64  1  0  0  0  0
 26 61  1  0  0  0  0
 26 62  1  0  0  0  0
 27 59  1  0  0  0  0
 27 60  1  0  0  0  0
M  END
> <PUBCHEM_COMPOUND_CID>
8777

> <PUBCHEM_COMPOUND_CANONICALIZED>
1

> <PUBCHEM_CACTVS_COMPLEXITY>
300

> <PUBCHEM_CACTVS_HBOND_ACCEPTOR>
8

> <PUBCHEM_CACTVS_HBOND_DONOR>
4

> <PUBCHEM_CACTVS_ROTATABLE_BOND>
18

> <PUBCHEM_CACTVS_SUBSKEYS>
AAADcfB6OABAAAAAAAAAAAAAAAAAAAAAAAAAAAAAAAAAAAAAAAAAHgAACAAACADhgAYCAAMAAoAAAAAAADAAAAAAAAAAAAAIAAACEAIAAAAAAAAEAACQAAGAwKAAAAAAAAAAAAAAAAAAAAAAAAAAAAAAAA==

> <PUBCHEM_IUPAC_OPENEYE_NAME>
2-[bis(2-hydroxyethyl)amino]ethanol; dodecyl hydrogen sulfate

> <PUBCHEM_IUPAC_CAS_NAME>
2-[bis(2-hydroxyethyl)amino]ethanol; sulfuric acid dodecyl ester

> <PUBCHEM_IUPAC_NAME>
2-[bis(2-hydroxyethyl)amino]ethanol; dodecyl hydrogen sulfate

> <PUBCHEM_IUPAC_SYSTEMATIC_NAME>
2-[bis(2-hydroxyethyl)amino]ethanol; dodecyl hydrogen sulfate

> <PUBCHEM_IUPAC_TRADITIONAL_NAME>
2-[bis(2-hydroxyethyl)amino]ethanol; sulfuric acid lauryl ester

> <PUBCHEM_IUPAC_INCHI>
InChI=1S/C12H26O4S.C6H15NO3/c1-2-3-4-5-6-7-8-9-10-11-12-16-17(13,14)15;8-4-1-7(2-5-9)3-6-10/h2-12H2,1H3,(H,13,14,15);8-10H,1-6H2

> <PUBCHEM_IUPAC_INCHIKEY>
JZKFHQMONDVVNF-UHFFFAOYSA-N

> <PUBCHEM_EXACT_MASS>
415.260374

> <PUBCHEM_MOLECULAR_FORMULA>
C18H41NO7S

> <PUBCHEM_MOLECULAR_WEIGHT>
415.58564

> <PUBCHEM_OPENEYE_CAN_SMILES>
CCCCCCCCCCCCOS(=O)(=O)O.C(CO)N(CCO)CCO

> <PUBCHEM_OPENEYE_ISO_SMILES>
CCCCCCCCCCCCOS(=O)(=O)O.C(CO)N(CCO)CCO

> <PUBCHEM_CACTVS_TPSA>
136

> <PUBCHEM_MONOISOTOPIC_WEIGHT>
415.260374

> <PUBCHEM_TOTAL_CHARGE>
0

> <PUBCHEM_HEAVY_ATOM_COUNT>
27

> <PUBCHEM_ATOM_DEF_STEREO_COUNT>
0

> <PUBCHEM_ATOM_UDEF_STEREO_COUNT>
0

> <PUBCHEM_BOND_DEF_STEREO_COUNT>
0

> <PUBCHEM_BOND_UDEF_STEREO_COUNT>
0

> <PUBCHEM_ISOTOPIC_ATOM_COUNT>
0

> <PUBCHEM_COMPONENT_COUNT>
2

> <PUBCHEM_CACTVS_TAUTO_COUNT>
1

> <PUBCHEM_COORDINATE_TYPE>
1
5
255

$$$$

