442996
  -OEChem-07051213002D

 30 32  0     1  0  0  0  0  0999 V2000
    2.0000   -0.8978    0.0000 O   0  0  0  0  0  0  0  0  0  0  0  0
    4.8086   -2.1356    0.0000 O   0  0  0  0  0  0  0  0  0  0  0  0
    4.8229    2.4863    0.0000 N   0  0  3  0  0  0  0  0  0  0  0  0
    5.5596    1.5037    0.0000 C   0  0  3  0  0  0  0  0  0  0  0  0
    5.3007    0.5378    0.0000 C   0  0  3  0  0  0  0  0  0  0  0  0
    7.3915    0.7449    0.0000 C   0  0  0  0  0  0  0  0  0  0  0  0
    7.1327   -0.2210    0.0000 C   0  0  0  0  0  0  0  0  0  0  0  0
    2.9566    0.6959    0.0000 C   0  0  0  0  0  0  0  0  0  0  0  0
    3.7656   -0.7054    0.0000 C   0  0  0  0  0  0  0  0  0  0  0  0
    2.8520   -0.2986    0.0000 C   0  0  0  0  0  0  0  0  0  0  0  0
    4.3229    3.3523    0.0000 C   0  0  0  0  0  0  0  0  0  0  0  0
    3.8904   -1.7395    0.0000 C   0  0  0  0  0  0  0  0  0  0  0  0
    3.0525   -2.3582    0.0000 C   0  0  0  0  0  0  0  0  0  0  0  0
    2.1009   -1.9346    0.0000 C   0  0  0  0  0  0  0  0  0  0  0  0
    3.1608   -3.3523    0.0000 C   0  0  0  0  0  0  0  0  0  0  0  0
    5.5206    0.6546    0.0000 H   0  0  0  0  0  0  0  0  0  0  0  0
    5.9457    1.0914    0.0000 H   0  0  0  0  0  0  0  0  0  0  0  0
    7.9828    0.5584    0.0000 H   0  0  0  0  0  0  0  0  0  0  0  0
    7.6036    1.3275    0.0000 H   0  0  0  0  0  0  0  0  0  0  0  0
    6.9206   -0.8037    0.0000 H   0  0  0  0  0  0  0  0  0  0  0  0
    7.7240   -0.4075    0.0000 H   0  0  0  0  0  0  0  0  0  0  0  0
    2.8543    1.3074    0.0000 H   0  0  0  0  0  0  0  0  0  0  0  0
    2.3368    0.6770    0.0000 H   0  0  0  0  0  0  0  0  0  0  0  0
    4.8599    3.6623    0.0000 H   0  0  0  0  0  0  0  0  0  0  0  0
    4.0129    3.8893    0.0000 H   0  0  0  0  0  0  0  0  0  0  0  0
    3.7860    3.0423    0.0000 H   0  0  0  0  0  0  0  0  0  0  0  0
    1.5979   -2.2970    0.0000 H   0  0  0  0  0  0  0  0  0  0  0  0
    2.5445   -3.4195    0.0000 H   0  0  0  0  0  0  0  0  0  0  0  0
    3.2280   -3.9687    0.0000 H   0  0  0  0  0  0  0  0  0  0  0  0
    3.7772   -3.2852    0.0000 H   0  0  0  0  0  0  0  0  0  0  0  0
  1 10  1  0  0  0  0
  1 14  1  0  0  0  0
  2 12  2  0  0  0  0
  3  4  1  0  0  0  0
  3  5  1  0  0  0  0
  3 11  1  0  0  0  0
  4  6  1  0  0  0  0
  4  8  1  0  0  0  0
  4 16  1  0  0  0  0
  5  7  1  0  0  0  0
  5  9  1  0  0  0  0
  5 17  1  0  0  0  0
  6  7  1  0  0  0  0
  6 18  1  0  0  0  0
  6 19  1  0  0  0  0
  7 20  1  0  0  0  0
  7 21  1  0  0  0  0
  8 10  1  0  0  0  0
  8 22  1  0  0  0  0
  8 23  1  0  0  0  0
  9 10  2  0  0  0  0
  9 12  1  0  0  0  0
 11 24  1  0  0  0  0
 11 25  1  0  0  0  0
 11 26  1  0  0  0  0
 12 13  1  0  0  0  0
 13 14  2  0  0  0  0
 13 15  1  0  0  0  0
 14 27  1  0  0  0  0
 15 28  1  0  0  0  0
 15 29  1  0  0  0  0
 15 30  1  0  0  0  0
M  END
> <PUBCHEM_COMPOUND_CID>
442996

> <PUBCHEM_COMPOUND_CANONICALIZED>
1

> <PUBCHEM_CACTVS_COMPLEXITY>
394

> <PUBCHEM_CACTVS_HBOND_ACCEPTOR>
3

> <PUBCHEM_CACTVS_HBOND_DONOR>
0

> <PUBCHEM_CACTVS_ROTATABLE_BOND>
0

> <PUBCHEM_CACTVS_SUBSKEYS>
AAADccByMAAAAAAAAAAAAAAAAAAAAWAAAAAgQAAABAAAAACAAAAAHgAAAAAADCzhgAYCAAMABACIAoBSAACACAAgIAAACAEIAEgAABoAgQAEAAAGgACIAYOYyKCAAAAAAAAAAAAAAAAAAAAAAAAAAAAAAA==

> <PUBCHEM_IUPAC_INCHI>
InChI=1S/C12H15NO2/c1-7-6-15-10-5-8-3-4-9(13(8)2)11(10)12(7)14/h6,8-9H,3-5H2,1-2H3

> <PUBCHEM_IUPAC_INCHIKEY>
ODQUOOUDMCGJCX-UHFFFAOYSA-N

> <PUBCHEM_XLOGP3_AA>
1

> <PUBCHEM_EXACT_MASS>
205.110279

> <PUBCHEM_MOLECULAR_FORMULA>
C12H15NO2

> <PUBCHEM_MOLECULAR_WEIGHT>
205.253

> <PUBCHEM_OPENEYE_CAN_SMILES>
CC1=COC2=C(C1=O)C3CCC(C2)N3C

> <PUBCHEM_OPENEYE_ISO_SMILES>
CC1=COC2=C(C1=O)C3CCC(C2)N3C

> <PUBCHEM_CACTVS_TPSA>
29.5

> <PUBCHEM_MONOISOTOPIC_WEIGHT>
205.110279

> <PUBCHEM_TOTAL_CHARGE>
0

> <PUBCHEM_HEAVY_ATOM_COUNT>
15

> <PUBCHEM_ATOM_DEF_STEREO_COUNT>
0

> <PUBCHEM_ATOM_UDEF_STEREO_COUNT>
2

> <PUBCHEM_BOND_DEF_STEREO_COUNT>
0

> <PUBCHEM_BOND_UDEF_STEREO_COUNT>
0

> <PUBCHEM_ISOTOPIC_ATOM_COUNT>
0

> <PUBCHEM_COMPONENT_COUNT>
1

> <PUBCHEM_CACTVS_TAUTO_COUNT>
3

> <PUBCHEM_COORDINATE_TYPE>
1
5
255

> <PUBCHEM_BONDANNOTATIONS>
1  10  8
1  14  8
12  13  8
13  14  8
4  16  3
5  17  3
9  10  8
9  12  8

$$$$

