17395269
  -OEChem-06241222492D

 33 33  0     1  0  0  0  0  0999 V2000
    4.6261    0.0657    0.0000 S   0  0  0  0  0  0  0  0  0  0  0  0
    6.5282   -0.5523    0.0000 O   0  0  0  0  0  0  0  0  0  0  0  0
    7.0634    1.0950    0.0000 N   0  0  0  0  0  0  0  0  0  0  0  0
    2.8660   -0.2130    0.0000 N   0  0  0  0  0  0  0  0  0  0  0  0
    3.3660    1.3258    0.0000 N   0  0  0  0  0  0  0  0  0  0  0  0
    2.0570    0.3748    0.0000 N   0  0  0  0  0  0  0  0  0  0  0  0
    2.3660    1.3258    0.0000 N   0  0  0  0  0  0  0  0  0  0  0  0
    8.0145    0.7860    0.0000 C   0  0  0  0  0  0  0  0  0  0  0  0
    5.3692    0.7349    0.0000 C   0  0  3  0  0  0  0  0  0  0  0  0
    6.3203    0.4259    0.0000 C   0  0  0  0  0  0  0  0  0  0  0  0
    8.7576    1.4551    0.0000 C   0  0  0  0  0  0  0  0  0  0  0  0
    8.2224   -0.1922    0.0000 C   0  0  0  0  0  0  0  0  0  0  0  0
    5.1613    1.7130    0.0000 C   0  0  0  0  0  0  0  0  0  0  0  0
    3.6750    0.3748    0.0000 C   0  0  0  0  0  0  0  0  0  0  0  0
    2.8660   -1.2130    0.0000 C   0  0  0  0  0  0  0  0  0  0  0  0
    2.0000   -1.7130    0.0000 C   0  0  0  0  0  0  0  0  0  0  0  0
    7.8856    1.3924    0.0000 H   0  0  0  0  0  0  0  0  0  0  0  0
    4.7796    0.9265    0.0000 H   0  0  0  0  0  0  0  0  0  0  0  0
    6.9345    1.7014    0.0000 H   0  0  0  0  0  0  0  0  0  0  0  0
    9.1725    0.9944    0.0000 H   0  0  0  0  0  0  0  0  0  0  0  0
    9.2184    1.8700    0.0000 H   0  0  0  0  0  0  0  0  0  0  0  0
    8.3428    1.9158    0.0000 H   0  0  0  0  0  0  0  0  0  0  0  0
    7.6160   -0.3211    0.0000 H   0  0  0  0  0  0  0  0  0  0  0  0
    8.3513   -0.7986    0.0000 H   0  0  0  0  0  0  0  0  0  0  0  0
    8.8289   -0.0633    0.0000 H   0  0  0  0  0  0  0  0  0  0  0  0
    5.7678    1.8419    0.0000 H   0  0  0  0  0  0  0  0  0  0  0  0
    5.0324    2.3195    0.0000 H   0  0  0  0  0  0  0  0  0  0  0  0
    4.5549    1.5841    0.0000 H   0  0  0  0  0  0  0  0  0  0  0  0
    3.0781   -1.7956    0.0000 H   0  0  0  0  0  0  0  0  0  0  0  0
    3.4766   -1.1054    0.0000 H   0  0  0  0  0  0  0  0  0  0  0  0
    1.6900   -1.1761    0.0000 H   0  0  0  0  0  0  0  0  0  0  0  0
    1.4631   -2.0230    0.0000 H   0  0  0  0  0  0  0  0  0  0  0  0
    2.3100   -2.2500    0.0000 H   0  0  0  0  0  0  0  0  0  0  0  0
  1  9  1  0  0  0  0
  1 14  1  0  0  0  0
  2 10  2  0  0  0  0
  3  8  1  0  0  0  0
  3 10  1  0  0  0  0
  3 19  1  0  0  0  0
  4  6  1  0  0  0  0
  4 14  1  0  0  0  0
  4 15  1  0  0  0  0
  5  7  1  0  0  0  0
  5 14  2  0  0  0  0
  6  7  2  0  0  0  0
  8 11  1  0  0  0  0
  8 12  1  0  0  0  0
  8 17  1  0  0  0  0
  9 10  1  0  0  0  0
  9 13  1  0  0  0  0
  9 18  1  0  0  0  0
 11 20  1  0  0  0  0
 11 21  1  0  0  0  0
 11 22  1  0  0  0  0
 12 23  1  0  0  0  0
 12 24  1  0  0  0  0
 12 25  1  0  0  0  0
 13 26  1  0  0  0  0
 13 27  1  0  0  0  0
 13 28  1  0  0  0  0
 15 16  1  0  0  0  0
 15 29  1  0  0  0  0
 15 30  1  0  0  0  0
 16 31  1  0  0  0  0
 16 32  1  0  0  0  0
 16 33  1  0  0  0  0
M  END
> <PUBCHEM_COMPOUND_CID>
17395269

> <PUBCHEM_COMPOUND_CANONICALIZED>
1

> <PUBCHEM_CACTVS_COMPLEXITY>
238

> <PUBCHEM_CACTVS_HBOND_ACCEPTOR>
5

> <PUBCHEM_CACTVS_HBOND_DONOR>
1

> <PUBCHEM_CACTVS_ROTATABLE_BOND>
5

> <PUBCHEM_CACTVS_SUBSKEYS>
AAADceBzoABAAAAAAAAAAAAAAAAAAWAAAAAAAAAAAAAAAAABgAAAHgQYAAAACCjFwASDEAbIAAgqAAEQNAAAEANAgJAVQIEIAACAAAAACAAEAAAAFgKAAAAAAAAAAAAAAAAAAAAAAAAAAAAAAAAAAAAAAA==

> <PUBCHEM_IUPAC_OPENEYE_NAME>
2-(1-ethyltetrazol-5-yl)sulfanyl-N-isopropyl-propanamide

> <PUBCHEM_IUPAC_CAS_NAME>
2-[(1-ethyl-5-tetrazolyl)thio]-N-propan-2-ylpropanamide

> <PUBCHEM_IUPAC_NAME>
2-(1-ethyltetrazol-5-yl)sulfanyl-N-propan-2-ylpropanamide

> <PUBCHEM_IUPAC_SYSTEMATIC_NAME>
2-[(1-ethyl-1,2,3,4-tetrazol-5-yl)sulfanyl]-N-propan-2-yl-propanamide

> <PUBCHEM_IUPAC_TRADITIONAL_NAME>
2-[(1-ethyltetrazol-5-yl)thio]-N-isopropyl-propionamide

> <PUBCHEM_IUPAC_INCHI>
InChI=1S/C9H17N5OS/c1-5-14-9(11-12-13-14)16-7(4)8(15)10-6(2)3/h6-7H,5H2,1-4H3,(H,10,15)

> <PUBCHEM_IUPAC_INCHIKEY>
NJZKJZARSZVSGZ-UHFFFAOYSA-N

> <PUBCHEM_XLOGP3_AA>
1.3

> <PUBCHEM_EXACT_MASS>
243.115381

> <PUBCHEM_MOLECULAR_FORMULA>
C9H17N5OS

> <PUBCHEM_MOLECULAR_WEIGHT>
243.32918

> <PUBCHEM_OPENEYE_CAN_SMILES>
CCN1C(=NN=N1)SC(C)C(=O)NC(C)C

> <PUBCHEM_OPENEYE_ISO_SMILES>
CCN1C(=NN=N1)SC(C)C(=O)NC(C)C

> <PUBCHEM_CACTVS_TPSA>
98

> <PUBCHEM_MONOISOTOPIC_WEIGHT>
243.115381

> <PUBCHEM_TOTAL_CHARGE>
0

> <PUBCHEM_HEAVY_ATOM_COUNT>
16

> <PUBCHEM_ATOM_DEF_STEREO_COUNT>
0

> <PUBCHEM_ATOM_UDEF_STEREO_COUNT>
1

> <PUBCHEM_BOND_DEF_STEREO_COUNT>
0

> <PUBCHEM_BOND_UDEF_STEREO_COUNT>
0

> <PUBCHEM_ISOTOPIC_ATOM_COUNT>
0

> <PUBCHEM_COMPONENT_COUNT>
1

> <PUBCHEM_CACTVS_TAUTO_COUNT>
2

> <PUBCHEM_COORDINATE_TYPE>
1
5
255

> <PUBCHEM_BONDANNOTATIONS>
4  14  8
4  6  8
5  14  8
5  7  8
6  7  8
9  13  3

$$$$

